/*--------------------------------*- C++ -*----------------------------------*\
  =========                 |
  \\      /  F ield         | OpenFOAM: The Open Source CFD Toolbox
   \\    /   O peration     | Website:  https://openfoam.org
    \\  /    A nd           | Version:  8
     \\/     M anipulation  |
\*---------------------------------------------------------------------------*/
FoamFile
{
    version     2.0;
    format      ascii;
    class       volScalarField;
    location    "0.55";
    object      p_rgh;
}
// * * * * * * * * * * * * * * * * * * * * * * * * * * * * * * * * * * * * * //

dimensions      [1 -1 -2 0 0 0 0];

internalField   nonuniform List<scalar> 
9150
(
1963.11
1962.13
1961.59
1961.09
1960.85
1960.85
1961.09
1961.59
1962.14
1963.11
1962.74
1962.2
1961.81
1961.47
1961.3
1961.32
1961.47
1961.82
1962.2
1962.74
1962.46
1962.16
1961.92
1961.7
1961.58
1961.59
1961.7
1961.92
1962.16
1962.47
1962.34
1962.15
1961.99
1961.83
1961.75
1961.74
1961.83
1961.99
1962.15
1962.34
1962.35
1962.15
1962.02
1961.88
1961.82
1961.82
1961.89
1962.02
1962.15
1962.35
1952.01
1950.71
1950.58
1951.23
1951.29
1951.28
1951.22
1950.56
1950.7
1952
1955.5
1954.83
1954.5
1954.42
1954.49
1954.5
1954.45
1954.53
1954.85
1955.52
1958.47
1957.74
1957.43
1957.1
1957.04
1957.05
1957.1
1957.43
1957.74
1958.48
1961.12
1960.05
1959.69
1959.03
1958.9
1958.9
1959.03
1959.69
1960.05
1961.12
1964.11
1961.88
1961.16
1960.36
1960.14
1960.14
1960.37
1961.17
1961.89
1964.12
1946.31
1945.05
1943.21
1942.23
1941.65
1941.73
1942.45
1943.42
1945.18
1946.6
1945.58
1945.55
1944.67
1944.43
1944.05
1944.02
1944.4
1944.64
1945.58
1945.66
1945.64
1945.71
1944.77
1945.17
1944.76
1944.77
1945.24
1944.81
1945.73
1945.68
1942.78
1945.2
1944.06
1945.67
1945.27
1945.28
1945.61
1944.03
1945.18
1942.76
1934.24
1945.38
1945.24
1947.34
1947.49
1947.49
1947.36
1945.28
1945.4
1934.24
226.532
259.333
317.566
411.166
554.173
653.478
526.004
346.245
248.038
208.926
136.872
164.185
188.643
209.785
247.769
292.831
210.346
147.45
111.453
69.035
199.114
210.163
204.605
207.528
211.482
232.593
185.489
168.561
160.338
148.001
228.012
208.927
208.785
206.902
204.982
231.727
155.231
143.515
143.354
138.004
230.448
218.64
218.824
214.754
245.753
234.851
158.788
162.627
161.765
154.44
255.726
228.752
228.742
228.015
263.663
232.512
188.07
192.823
200.595
197.109
266.733
270.727
244.388
274.378
241.377
231.745
215.341
220.436
213.667
198.982
270.421
286.209
263.8
280.896
242.831
247.812
235.071
224.625
210.813
193.797
269.326
265.849
227.463
233.454
217.025
249.245
229.707
218.826
202.115
181.983
147.518
112.86
65.4113
73.361
123.045
193.665
190.164
153.305
97.6598
94.2438
9.01047
47.7302
25.9047
19.7676
131.246
156.247
119.64
42.107
18.1871
11.4301
2.5872
5.95743
26.5469
45.9134
150.59
150.553
102.187
19.3254
6.21584
5.75449
2.21345
2.29003
2.42025
25.326
149.955
169.282
34.0237
5.0465
4.08514
4.19793
1.75319
1.72586
1.29344
12.479
183.12
158.445
10.6192
3.4235
3.84464
3.74989
1.54659
1.56194
1.6309
10.573
184.034
176.553
9.85617
3.90724
3.95188
3.93168
1.43261
1.46679
1.5282
11.979
182.443
199.215
10.7477
4.00532
3.9893
3.97964
1.31681
1.33027
1.37695
11.6964
186.369
215.627
9.88189
3.90262
3.89401
3.86846
1.17537
1.19369
1.7552
9.93859
198.223
220.631
8.66537
3.66486
3.73885
3.70704
1.1137
1.13622
3.55377
5.81666
218.993
219.364
5.87074
3.30544
3.37888
3.41614
1.43198
9.20741
5.48976
2.55457
245.144
229.052
2.93538
3.0175
2.99496
3.13007
2.22574
13.6351
6.72764
1.47682
257.455
252.75
2.79811
2.81682
2.74663
2.86566
4.5521
12.7003
8.50706
0.040074
275.846
256.548
2.47246
2.8841
2.55065
2.65821
8.36145
11.7952
4.98696
-1.87677
293.666
258.144
2.32658
3.0487
2.24844
2.25691
10.8699
13.9751
1.98724
-1.28135
276.082
300.235
2.0397
2.46393
1.72117
2.01897
11.6833
13.5131
5.43688
1.67978
302.537
303.689
1.11924
1.98901
2.89298
4.08067
8.57632
4.9543
5.92189
2.06457
319.584
316.927
1.28922
2.104
4.68228
4.21518
2.68009
1.24369
2.52391
1.48376
332.824
334.09
1.19897
2.77911
4.68289
2.79852
0.875337
1.06139
1.19811
1.11795
346.207
348.243
0.949841
4.44157
4.66959
0.709289
0.232859
0.396649
0.526858
0.48701
359.685
360.103
0.875326
4.71418
4.75566
0.138183
-0.617175
-0.488505
-0.331509
-0.261205
373.258
372.095
0.730312
4.73615
4.79318
0.0978204
-1.0795
-0.944398
-0.797992
-0.711746
387.469
388.032
0.48383
4.82141
3.73163
0.376627
-0.905242
-0.847129
-0.74049
-0.657839
403.931
404.878
0.349068
2.23366
0.800049
0.920336
-0.492192
-0.480492
-0.440511
-0.410972
421.179
421.598
0.508014
0.628579
0.491767
0.712676
-0.0910451
-0.142792
-0.153951
-0.160178
437.879
438.139
0.716629
0.783454
0.627526
0.514087
0.0932856
0.0298464
-0.00324553
-0.0213362
454.184
454.285
0.539052
0.629599
0.524899
0.418233
0.0234792
0.0110161
-0.00408126
-0.0116288
470.117
469.999
0.170279
0.215537
0.172262
0.103165
-0.0589302
-0.0658463
-0.0742916
-0.084122
485.792
485.643
-0.252949
-0.235445
-0.254657
-0.307684
-0.177707
-0.17876
-0.180527
-0.190605
501.696
501.682
-0.697395
-0.689194
-0.710966
-0.769353
-0.312632
-0.304159
-0.300109
-0.30402
517.763
518.177
-1.12281
-1.12684
-1.15618
-1.21188
-0.435241
-0.418552
-0.409602
-0.408174
534.357
534.828
-1.49456
-1.50877
-1.54675
-1.60857
-0.520463
-0.500776
-0.488934
-0.484342
551.316
551.726
-1.7676
-1.79032
-1.83727
-1.91131
-0.557661
-0.537921
-0.525454
-0.520587
568.343
568.996
-1.91951
-1.94371
-1.9913
-2.06578
-0.543634
-0.526569
-0.514537
-0.508774
586.472
587.147
-1.94721
-1.96798
-2.00233
-2.06489
-0.489478
-0.477417
-0.468606
-0.463541
604.631
605.601
-1.85821
-1.8799
-1.91143
-1.95862
-0.411365
-0.404748
-0.399631
-0.39652
624.279
625.079
-1.69783
-1.7132
-1.73738
-1.77172
-0.32551
-0.32339
-0.321448
-0.320286
643.07
643.88
-1.49331
-1.50174
-1.5167
-1.53868
-0.24426
-0.245086
-0.2452
-0.244865
663.782
664.48
-1.26545
-1.27012
-1.27739
-1.28769
-0.174083
-0.176334
-0.177326
-0.178643
682.53
683.243
-1.04124
-1.04174
-1.0425
-1.04333
-0.117453
-0.120027
-0.121164
-0.122489
704.889
705.536
-0.835125
-0.833785
-0.830015
-0.824085
-0.0737834
-0.0761288
-0.0772146
-0.0795676
724.003
724.615
-0.659374
-0.655427
-0.649546
-0.640399
-0.0414483
-0.0432027
-0.0438969
-0.0461856
748.232
748.729
-0.515015
-0.510517
-0.50402
-0.49427
-0.0182925
-0.019596
-0.020132
-0.0241058
767.689
768.082
-0.403959
-0.39811
-0.391414
-0.382206
-0.00156328
-0.00244805
-0.00301736
-0.00501924
793.734
793.952
-0.319686
-0.311917
-0.305669
-0.297879
0.00978948
0.0091786
0.00971707
0.0595693
813.326
813.474
-0.151122
-0.244835
-0.241125
-0.235305
0.017668
0.0172278
0.0186195
6.30213
837.14
837.556
6.1374
-0.195899
-0.193608
-0.189337
0.0227532
0.0223899
0.0238326
8.5543
856.702
857.303
8.43527
-0.159077
-0.157911
-0.154757
0.0260354
0.0256581
0.0273993
13.8136
881.746
882.16
13.7141
-0.131174
-0.130814
-0.128545
0.0278687
0.0275135
0.0287685
16.6273
901.953
902.315
16.5495
-0.111073
-0.110832
-0.109015
0.0289556
0.0285443
0.0303976
22.5205
927.128
927.439
22.4526
-0.0950976
-0.0953029
-0.0937996
0.0294557
0.0291222
0.030023
25.4758
947.021
947.357
25.4231
-0.0831286
-0.0830934
-0.0819127
0.0297698
0.0293807
0.0309946
31.9763
972.29
972.501
31.9109
-0.0722604
-0.0730672
-0.0720636
0.0296768
0.0293294
0.0299027
35.1201
991.86
992.055
35.059
-0.0648469
-0.0649821
-0.0641932
0.0297322
0.0294229
0.0308663
42.2298
1017.04
1017.25
42.1753
-0.0572541
-0.0581477
-0.0574223
0.0295343
0.0293792
0.0299433
45.7983
1036.64
1036.93
45.7584
-0.0522502
-0.0523867
-0.051822
0.0293578
0.0292544
0.0307859
54.313
1063.09
1063.43
54.2833
-0.0462239
-0.0472368
-0.0467284
0.0287539
0.0287877
0.0295269
58.8534
1083.54
1084
58.8472
-0.0426601
-0.0427996
-0.0424228
0.0279907
0.0280178
0.0298256
69.8086
1112.6
1112.98
69.8082
-0.0375583
-0.0386268
-0.0382756
0.0266142
0.0265845
0.0272851
76.2436
1135.11
1135.24
76.2172
-0.034531
-0.034829
-0.0346969
0.0250702
0.0248714
0.0264688
90.4092
1166.83
1166.55
90.3195
-0.0296764
-0.0311615
-0.0311167
0.023178
0.022829
0.0230674
99.269
1191.15
1190.51
99.1113
-0.0273945
-0.0280728
-0.0282761
0.0214448
0.0209591
0.0221278
116.973
1224.46
1223.61
116.754
-0.0235168
-0.0252841
-0.0254766
0.0195501
0.0189786
0.0187767
128.318
1249.68
1248.77
128.08
-0.0224685
-0.0231471
-0.0234625
0.0179866
0.017376
0.0181748
149.21
1283.45
1282.58
148.958
-0.0195573
-0.0211468
-0.0214145
0.0163574
0.015715
0.0152077
162.555
1308.9
1308.08
162.309
-0.0192222
-0.0196079
-0.0198987
0.0150798
0.0144762
0.0147905
186.28
1342.6
1341.83
186.027
-0.0168412
-0.0180011
-0.0182993
0.0138749
0.0132715
0.0125561
201.092
1367.83
1367.09
200.84
-0.0164129
-0.0166517
-0.0169589
0.0130425
0.0125598
0.0122917
228.509
1401.67
1400.9
228.239
-0.0142787
-0.0150361
-0.0155166
0.0119276
0.0115768
0.0108471
245.827
1426.99
1426.18
245.538
-0.0136741
-0.013884
-0.0143297
0.0115579
0.0112347
0.0110179
279.917
1461.62
1460.72
279.598
-0.0117853
-0.0125711
-0.0131586
0.0106846
0.010373
0.00956092
303.213
1487.81
1486.96
302.891
-0.0115598
-0.0117606
-0.012314
0.0101055
0.00988575
0.00951392
348.283
1523.14
1522.44
347.979
-0.0101414
-0.0108577
-0.011519
0.00935287
0.00915089
0.00816692
381.578
1550.2
1549.57
381.298
-0.0105617
-0.0105577
-0.011125
0.00904713
0.00898783
0.00838193
441.173
1585.03
1584.52
440.949
-0.00991681
-0.0101352
-0.0107601
0.00850025
0.00851336
0.00729047
486.581
1611.8
1611.34
486.4
-0.0108051
-0.0102228
-0.0106951
0.00840996
0.00865824
0.00772966
562.721
1644.13
1643.83
562.641
-0.0104182
-0.00989155
-0.0104702
0.00796784
0.00833779
0.00682129
621.193
1669.24
1669.1
621.216
-0.0112995
-0.00996689
-0.0104117
0.0079197
0.00861415
0.00712338
717.407
1697.47
1697.35
717.446
-0.0105996
-0.00930479
-0.0100067
0.00752456
0.00824989
0.00595998
793.507
1720.35
1720.34
793.631
-0.0114673
-0.00917238
-0.0097857
0.00746861
0.00855235
0.00637158
918.609
1743.73
1743.7
918.696
-0.0106449
-0.0083484
-0.0091489
0.00707374
0.00829025
0.00461466
1022.31
1764
1763.85
1022.32
-0.0118399
-0.00800494
-0.00873952
0.00664723
0.00658919
0.00161862
1188.23
1781.88
1781.77
1188.22
-0.0132456
-0.00814513
-0.00769071
0.00467107
0.00404326
0.00840396
1320.78
1800.79
1800.79
1320.77
-0.00267826
-0.00831548
-0.00733939
0.00275235
0.00499929
48.0246
1485.5
1818.23
1818.31
1485.57
49.8535
-0.00563629
-0.00767395
0.00216952
0.00349513
183.403
1605.91
1837.51
1836.72
1605.78
186.468
-0.0049451
-0.00673123
0.00216072
0.00121066
394.496
1749.33
1854.88
1855.17
1749.19
405.754
-0.00678138
-0.00569825
-0.000158736
-0.00514699
699.845
1828.54
1873.74
1874.19
1845.83
767.929
-0.00996847
-0.00621406
0.00136603
0.022553
1246.75
1891.93
1892.25
1892.29
1891.62
1244.27
0.0090064
-0.00554722
-0.00436786
187.264
1656.49
1910.15
1911.54
1911.59
1910.26
1667.6
212.655
-0.00838237
0.00958693
1142.66
1926.97
1927.03
1926.79
1926.8
1927.05
1927.16
1180.04
0.00542003
703.629
1891.43
1939.66
1937.71
1937.03
1936.93
1937.52
1939.48
1897.72
727.84
175.165
154.296
136.983
130.193
109.655
103.038
107.577
129.745
123.063
108.016
94.3922
90.2999
76.2888
59.9096
47.2
38.4357
30.2258
22.0027
13.3948
10.972
7.72668
14.7744
18.4231
19.4099
10.9557
6.61172
10.1976
9.42137
16.0651
29.1658
41.3716
51.9635
75.4716
106.387
142.281
183.474
235.52
300.421
363.998
432.672
38.4752
38.3683
54.7557
56.6417
36.9221
22.7812
27.0757
39.7335
48.5259
49.4277
35.1029
22.4492
38.8357
48.3341
50.1233
47.6688
16.4178
21.4862
6.50613
-3.46715
-4.86036
-1.78034
-3.98079
-12.3791
-0.541235
5.96424
-8.71411
-13.9342
-10.0481
8.69814
27.698
40.4785
58.6271
71.0647
93.9727
122.266
152.358
197.418
247.832
299.464
147.314
152.956
175.316
174.746
140.047
83.2447
63.1554
59.7881
48.4199
34.1885
27.3374
25.2502
27.6799
22.5862
12.2445
-4.2983
-6.42992
-6.40947
-6.11369
-5.80593
-5.82091
-4.13449
11.8994
9.85628
13.2747
18.1719
4.8612
1.52178
9.84793
26.9433
27.0826
20.6837
15.8591
25.8147
42.7438
64.7391
85.9299
106.219
127.462
142.028
142.065
146.453
144.947
135.468
111.644
80.3208
55.4543
39.0333
34.8467
20.969
7.77517
4.21916
-5.78219
-7.53733
-7.34724
-6.93975
-6.70281
-6.68228
-6.62743
-6.54698
-6.51395
-6.70122
-6.74581
3.4221
26.1533
0.793454
-5.88376
-4.98792
5.40863
41.7942
28.1013
6.75899
-3.02433
-2.63349
0.823235
12.0311
46.0494
60.9171
62.0082
57.3844
149.296
146.654
138.001
121.656
110.703
76.621
48.4398
34.6201
15.354
-5.14183
-6.71518
-7.20556
-7.32194
-7.31956
-7.27081
-7.17468
-7.02332
-6.91071
-6.8271
-6.64652
-6.53325
-6.47147
-6.44799
-5.82646
-4.81278
-5.74607
-6.37445
-6.47594
-3.80108
-0.284969
-3.30936
-5.38578
-5.53813
-5.58635
-5.55313
-5.45008
24.4339
64.3889
29.4008
37.0569
195.335
171.98
142.78
109.441
57.1338
19.6326
-6.16194
-6.86998
-7.21355
-7.22279
-7.22973
-7.25466
-7.27179
-7.27643
-7.25433
-7.17365
-7.07169
-6.9637
-6.82334
-6.65539
-6.51679
-6.30274
-5.92679
-6.05328
-6.20172
-6.29831
-6.2893
-6.23147
-6.21088
-6.14481
-6.0612
-5.97389
-5.85655
-5.77968
-5.74544
-5.72125
14.0686
65.6598
20.7644
44.0428
180.889
158.792
127.49
63.5989
-1.98043
-6.68655
-6.88498
-6.91946
-7.05364
-7.11552
-7.11946
-7.13205
-7.13457
-7.11653
-7.08981
-7.0488
-6.99104
-6.90779
-6.80613
-6.71553
-6.63942
-6.53695
-5.92596
-5.94515
-6.25514
-6.26254
-6.26413
-6.24886
-6.2205
-6.17311
-6.1157
-6.04252
-5.9774
-5.94571
-5.89601
-5.78156
3.69443
8.42649
14.6163
80.3705
176.157
153.622
126.005
70.3092
17.9331
-6.77998
-6.91207
-6.94456
-7.01642
-7.06341
-7.07335
-7.06972
-7.05712
-7.03561
-7.00486
-6.97034
-6.92331
-6.86966
-6.8081
-6.7542
-6.70668
-6.67618
-6.16562
-5.87903
-5.76013
-5.9106
-6.27427
-6.26719
-6.23451
-6.19509
-6.15361
-6.11011
-6.10318
-6.08093
-6.02501
-5.96352
-5.43338
0.214147
18.9964
80.0956
160.959
143.108
123.97
105.258
72.227
-5.25829
-6.89862
-6.93363
-6.95124
-6.96899
-6.97343
-6.97009
-6.9611
-6.94628
-6.92795
-6.90555
-6.87845
-6.84422
-6.80712
-6.7703
-6.73465
-6.70626
-6.56063
-5.8661
-5.73702
-5.60515
-5.76397
-6.26215
-6.24372
-6.20957
-6.17721
-6.1572
-6.16711
-6.17428
-6.16885
-5.70549
11.9437
54.1525
82.5976
87.3747
126.651
126.621
120.325
112.533
105.723
54.823
-6.78277
-6.8993
-6.90152
-6.9057
-6.9047
-6.89811
-6.88967
-6.8803
-6.87003
-6.85824
-6.84351
-6.82696
-6.80318
-6.77644
-6.74803
-6.71975
-6.6959
-6.53836
-5.70453
-5.5759
-6.05113
-6.33829
-6.28292
-6.2372
-6.20811
-6.19213
-6.18721
-6.18301
-6.13411
15.7756
93.011
104.248
108.465
105.243
66.4868
123.872
124.6
120.949
117.242
111.802
20.8815
-6.85972
-6.86215
-6.85134
-6.8462
-6.84112
-6.8372
-6.83495
-6.83416
-6.83297
-6.8292
-6.81521
-6.7995
-6.77871
-6.75411
-6.73001
-6.70909
-6.6972
-6.51573
-6.41359
-6.44874
-6.40203
-6.34299
-6.29609
-6.26084
-6.23545
-6.21551
-6.20026
-6.07853
20.278
111.885
117.626
116.759
113.812
5.56454
29.0024
110.57
131.368
128.184
125.17
96.0699
-5.27951
-6.81598
-6.81193
-6.80278
-6.80547
-6.81008
-6.81962
-6.83245
-6.84275
-6.84463
-6.83558
-6.81767
-6.79181
-6.75632
-6.71907
-6.68585
-6.65414
-6.616
-6.56746
-6.49962
-6.43301
-6.37212
-6.26616
-6.28829
-6.2639
-6.24535
-6.22958
-5.97572
6.0928
83.4934
120.456
121.447
119.105
3.98292
3.93932
14.3784
115.506
140.705
137.62
134.205
58.7994
-6.76537
-6.78342
-6.77229
-6.77996
-6.79428
-6.81688
-6.84422
-6.86511
-6.87017
-6.85832
-6.8332
-6.79793
-6.75241
-6.70555
-6.6584
-6.60267
-6.55936
-6.51515
-6.46473
-6.41104
-6.24066
-6.1637
-6.27758
-6.2557
-6.23671
-6.21921
-6.04224
-3.4257
19.072
108.11
126.045
126.546
3.72444
3.73372
3.76404
22.7767
136.067
150.037
147.298
130.277
6.50202
-6.73543
-6.73543
-6.73355
-6.75337
-6.77961
-6.80866
-6.82962
-6.8335
-6.81912
-6.79055
-6.75279
-6.70799
-6.65831
-6.59494
-6.5384
-6.49262
-6.46008
-6.42229
-6.34294
-6.18366
-6.13191
-6.19833
-6.22116
-6.19789
-6.17912
-6.1022
-5.3011
4.61204
106.332
135.071
137.854
3.91624
3.88631
3.95994
3.97861
44.5649
161.919
158.241
153.919
87.0484
-6.60222
-6.66934
-6.66464
-6.67938
-6.70164
-6.72721
-6.74353
-6.73677
-6.71352
-6.6842
-6.65063
-6.61427
-6.56998
-6.51002
-6.4712
-6.43257
-6.40887
-6.37731
-6.2897
-6.13589
-6.08853
-6.08618
-6.17654
-6.15007
-6.122
-6.07844
-6.00538
13.2535
143.463
149.394
152.392
3.9585
3.92798
3.9221
3.8901
4.56161
92.5642
170.236
165.971
159.336
30.6927
-6.59099
-6.59736
-6.60183
-6.61323
-6.63056
-6.63889
-6.62863
-6.60629
-6.58028
-6.55142
-6.51985
-6.48481
-6.44632
-6.41309
-6.38903
-6.36127
-6.32953
-6.26187
-6.08554
-6.03225
-5.99025
-6.10968
-6.08701
-6.06809
-6.03581
-0.531766
96.0717
161.383
166.289
169.857
3.85139
3.80297
3.74392
3.68401
3.59364
17.1191
145.475
179.073
174.439
133.134
-6.38115
-6.50921
-6.51766
-6.52248
-6.52741
-6.53563
-6.52971
-6.51236
-6.49331
-6.46899
-6.44226
-6.41595
-6.38831
-6.3613
-6.33425
-6.30581
-6.27682
-6.22921
-6.03517
-5.95483
-5.91588
-6.03835
-6.01534
-6.00439
-5.93255
53.6996
173.077
177.041
181.441
185.055
3.73104
3.88037
3.67715
3.17304
3.03714
2.96776
34.6856
171.812
184.85
178.849
74.2526
-6.41434
-6.43471
-6.42666
-6.42795
-6.43501
-6.4385
-6.43416
-6.41527
-6.3923
-6.37165
-6.34906
-6.32447
-6.29821
-6.27033
-6.24199
-6.21154
-6.14174
-5.93102
-5.85405
-5.85587
-5.94152
-5.91323
-5.89531
-5.64187
68.4549
183.929
185.825
189.07
191.455
4.19666
5.77174
4.8402
2.61975
2.2807
2.22451
2.15537
36.6995
176.812
189.955
176.609
26.6832
-6.32858
-6.31739
-6.34155
-6.35897
-6.3558
-6.34265
-6.33331
-6.32606
-6.30838
-6.28142
-6.25462
-6.2256
-6.19709
-6.16965
-6.12989
-5.9416
-5.80932
-5.72623
-5.74567
-5.80774
-5.77163
-5.73235
-5.17705
27.9133
167.761
191.385
190.945
191.114
5.01905
5.08275
4.5051
2.31216
1.67608
1.68178
1.57803
1.48358
26.0586
165.934
192.519
171.842
21.5647
-4.45595
-6.28572
-6.27435
-6.27083
-6.27733
-6.2873
-6.25905
-6.2233
-6.19248
-6.17102
-6.14702
-6.12427
-6.09174
-5.90569
-5.76415
-5.66961
-5.58473
-5.66106
-5.67183
-5.6279
-5.58564
-5.30661
-1.69977
46.1402
176.145
199.942
195.786
4.8675
4.80763
4.3109
1.97795
1.34002
1.38517
1.29797
1.27328
1.17452
1.58705
103.697
178.057
175.578
130.327
20.7788
14.4937
0.926478
-6.22074
-6.1736
-6.17782
-6.11574
-6.04897
-6.03793
-6.02506
-5.98969
-5.92006
-5.74951
-5.56814
-5.5599
-5.65733
-5.61039
-5.54827
-5.49813
-5.44516
-5.1579
-4.90653
-5.08158
8.40819
159.616
60.2257
4.73319
4.73197
4.25582
2.457
1.08212
1.08969
1.06673
1.02239
0.957566
0.855862
0.924451
30.6518
144.381
151.284
150.17
147.865
100.628
24.9187
36.3231
13.3303
-2.94406
-5.7638
-5.79939
-5.8219
-5.87937
-5.77707
-5.64837
-5.61143
-5.56938
-5.58932
-5.60447
-5.56994
-5.43137
-5.29016
-5.22431
-5.16299
-5.05256
-3.60084
4.87512
0.818998
4.53479
4.56034
4.12061
3.22232
0.821539
0.841983
0.866564
0.844868
0.781
1.1367
1.31041
0.560083
-0.0168223
4.58584
86.4906
142.148
150.968
151.111
149.427
145.391
125.268
12.9206
24.0153
32.9744
24.8892
9.03994
0.634595
2.07781
24.9583
113.424
163.387
133.839
104.139
110.93
92.8224
49.8724
20.0378
6.91676
5.71212
0.470321
3.52756
4.17977
3.91439
3.61434
0.928813
0.618486
0.67952
0.770242
1.46977
1.44454
1.20577
0.403772
0.0425294
0.0180943
-0.0795327
-0.179422
-0.278137
0.731914
62.5308
137.614
176.868
193.741
203.876
204.058
215.7
258.308
253.49
254.693
246.919
247.051
248.29
250.232
252.874
254.684
256.545
253.406
251.997
224.822
213.267
197.333
1.30449
3.0447
3.70927
2.11548
0.385571
0.441659
0.488211
0.759018
1.45986
1.2886
1.09507
0.766601
-0.0820065
-0.142208
-0.212606
-0.274362
-0.313626
-0.342034
-0.451441
-0.579181
-0.639505
-0.17517
25.3357
119.822
178.698
218.339
265.221
272.079
267.515
254.882
161.549
123.816
102.571
89.0385
90.7738
78.4682
81.885
91.1916
97.3328
95.7051
0.521817
0.718723
1.17819
0.496131
0.297
0.314479
0.32124
0.498034
1.2889
1.13197
0.413063
-0.142456
-0.132757
-0.134542
-0.0989786
-0.177804
-0.349647
-0.430021
-0.516592
-0.549705
-0.531194
-0.484527
-0.466247
-0.497674
-0.518418
-0.507062
-0.460005
2.1725
1.88438
0.816402
-0.658614
-0.633939
-0.218625
-0.158357
-0.576799
-0.581572
-0.592613
-0.599714
-0.599268
-0.60251
0.264865
0.222143
0.256288
0.256142
0.251621
0.216971
0.195532
0.327844
1.1528
0.404706
-0.150621
-0.157539
-0.0875853
-0.130943
-0.183349
-0.304982
-0.443146
-0.492909
-0.543568
-0.571677
-0.572784
-0.491357
-0.434883
-0.448924
-0.561184
-0.55506
-0.553451
-0.574847
-0.613485
-0.643193
-0.631209
-0.594894
-0.532943
-0.520587
-0.514983
-0.52545
-0.414823
-0.555537
-0.578717
-0.578867
0.201189
0.183767
0.207594
0.200861
0.162652
0.103811
0.0605643
0.174827
0.163046
-0.15656
-0.232729
-0.155062
-0.209598
-0.263835
-0.391004
-0.519895
-0.553277
-0.587145
-0.61465
-0.630451
-0.639573
-0.650094
-0.598033
-0.483053
-0.469781
-0.455518
-0.45135
-0.452871
-0.573539
-0.611636
-0.615685
-0.596311
-0.586716
-0.589654
-0.600885
-0.617982
-0.556541
-0.320531
-0.321511
-0.512172
0.16888
0.13957
0.127372
0.102746
0.0471325
-0.0159872
-0.0490879
-0.0685123
-0.215977
-0.286963
-0.356274
-0.405418
-0.455673
-0.52829
-0.582805
-0.620217
-0.649319
-0.671625
-0.687866
-0.700259
-0.711011
-0.718754
-0.723559
-0.7233
-0.717859
-0.614247
-0.510383
-0.506528
-0.497937
-0.494378
-0.64409
-0.624122
-0.611757
-0.611611
-0.625723
-0.647114
-0.672301
-0.683064
-0.386846
-0.527796
0.106817
0.0734677
0.0360971
-0.0136365
-0.0768161
-0.142622
-0.19585
-0.279702
-0.351426
-0.401109
-0.44983
-0.540295
-0.606559
-0.657847
-0.699959
-0.690874
-0.680727
-0.745916
-0.777958
-0.782998
-0.788375
-0.790132
-0.788608
-0.783342
-0.77631
-0.770225
-0.761132
-0.727647
-0.573585
-0.544011
-0.630013
-0.658931
-0.657098
-0.651144
-0.656588
-0.671193
-0.691278
-0.667904
-0.397371
-0.493768
0.453779
-0.0146265
-0.0762
-0.138724
-0.202233
-0.273366
-0.346739
-0.421056
-0.499322
-0.554245
-0.360032
-0.367564
-0.471085
-0.778053
-0.792925
-0.478929
-0.386001
-0.505175
-0.834078
-0.821701
-0.872635
-0.870571
-0.863198
-0.850613
-0.835811
-0.821203
-0.807924
-0.799031
-0.790264
-0.774971
-0.464388
0.287448
-0.521711
-0.676072
-0.670204
-0.668894
-0.668194
-0.633946
-0.389914
-0.365935
0.838547
0.595241
0.112163
-0.269738
-0.313939
-0.388155
-0.47197
-0.569891
-0.662293
-0.747078
-0.76182
-0.574082
-0.466361
-0.490592
-0.521699
-0.543508
-0.534196
-0.513381
-0.490349
-0.532132
-0.955614
-0.948027
-0.937494
-0.919533
-0.898593
-0.87846
-0.858121
-0.838339
-0.820963
-0.80858
-0.70278
0.832198
1.15031
-0.69637
-0.6766
-0.660845
-0.641672
-0.622854
-0.514393
-0.320403
1.06683
0.784129
0.602617
0.345064
-0.333172
-0.519818
-0.599117
-0.690601
-0.78574
-0.875451
-0.95574
-0.982817
-0.971217
-1.05276
-1.12646
-1.12195
-0.809236
-0.59918
-0.577611
-0.553804
-0.693399
-1.02458
-1.01199
-0.98918
-0.962297
-0.935012
-0.90767
-0.882381
-0.857922
-0.837358
-0.770819
0.74989
1.53548
-0.0459858
-0.687005
-0.662554
-0.638395
-0.618627
-0.610722
-0.573187
0.519854
0.736823
0.742183
0.558291
0.425964
-0.238712
-0.660547
-0.743491
-0.826655
-0.907738
-0.983198
-1.0413
-1.10232
-1.14046
-1.16537
-1.18202
-1.19137
-1.19189
-0.933424
-0.625724
-0.830241
-1.10646
-1.08704
-1.05748
-1.02516
-0.993007
-0.961015
-0.929947
-0.900436
-0.83272
-0.0804808
1.46692
1.53237
1.14019
-0.685263
-0.603136
-0.517711
-0.629854
-0.622251
-0.628164
0.272686
0.102915
-0.00373173
0.583795
0.436008
0.312186
-0.408687
-0.735136
-0.825663
-0.914396
-0.987224
-1.05483
-1.12409
-1.18389
-1.21954
-1.24245
-1.2559
-1.26053
-1.25394
-1.15615
-1.12148
-1.1879
-1.16295
-1.12712
-1.08953
-1.05097
-1.01423
-0.981089
-0.951075
-0.498803
1.43622
1.52237
1.56705
1.61891
-0.608295
-0.0772604
0.12812
-0.644668
-0.635322
-0.635233
-0.0111151
-0.162334
-0.32405
-0.447763
0.146879
0.240254
0.155601
-0.707934
-0.880685
-0.981928
-1.07009
-1.13992
-1.19958
-1.26072
-1.29103
-1.31058
-1.31907
-1.31875
-1.30969
-1.29192
-1.26813
-1.24174
-1.21672
-1.17918
-1.13815
-1.09528
-1.05523
-1.0202
-0.992449
-0.0486666
1.50021
1.56104
1.59881
0.716178
-0.478728
0.143649
0.191897
-0.44796
-0.647087
-0.644439
-0.4055
-0.542133
-0.689302
-0.817016
-0.889335
-0.141769
-0.077203
-0.147395
-1.03507
-1.17071
-1.2652
-1.32955
-1.37068
-1.40394
-1.41393
-1.41004
-1.39853
-1.38188
-1.361
-1.33379
-1.27094
-1.25679
-1.24462
-1.20783
-1.16491
-1.12035
-1.0774
-1.0399
-1.01185
0.0214329
1.56903
1.64354
1.27123
-0.665806
-0.677492
0.115238
0.169802
0.122172
-0.663002
-0.659419
-0.860607
-0.983535
-1.10173
-1.21538
-1.30223
-1.3217
-0.469793
-0.462339
-0.62845
-1.42937
-1.51433
-1.58771
-1.62431
-1.60832
-1.5772
-1.54048
-1.49791
-1.45542
-1.4135
-1.37285
-1.31168
-1.26366
-1.25225
-1.21995
-1.17308
-1.12494
-1.07869
-1.03877
-1.0095
-0.348281
1.59332
1.34576
-0.555004
-0.774592
-0.75952
-0.39672
0.199245
0.218467
-0.677036
-0.67258
-1.29933
-1.40747
-1.51233
-1.61428
-1.72185
-1.79249
-1.56121
-0.840476
-0.79861
-1.28956
-1.73935
-1.77075
-1.77963
-1.77408
-1.71938
-1.64489
-1.58104
-1.51197
-1.44808
-1.39142
-1.30693
-1.24044
-1.22324
-1.20248
-1.15791
-1.10532
-1.05537
-1.01027
-0.97221
-0.799472
-0.744066
-0.781838
-0.818891
-0.785346
-0.761702
-0.737763
0.229774
0.252912
-0.66754
-0.679963
-1.70531
-1.82153
-1.92151
-2.04547
-2.18708
-2.26271
-2.20814
-1.90791
-1.13911
-0.491438
-0.466426
-0.998539
-1.71105
-1.83164
-1.7755
-1.69013
-1.60028
-1.52322
-1.44466
-1.37638
-1.28495
-1.21185
-1.16504
-1.14559
-1.1218
-1.06875
-1.01644
-0.964979
-0.92416
-0.887484
-0.855346
-0.828242
-0.801595
-0.775745
-0.753981
-0.722407
-0.0818225
0.291676
-0.588121
-0.667332
-2.0228
-2.14853
-2.27633
-2.43784
-2.61718
-2.66761
-2.54966
-2.38716
-2.18841
-0.690077
0.134374
0.308626
0.39328
-0.301503
-1.54924
-1.63682
-1.54125
-1.46067
-1.38741
-1.31735
-1.24336
-1.15293
-1.1068
-1.0828
-1.0691
-1.01703
-0.964194
-0.915004
-0.87209
-0.841473
-0.815937
-0.798908
-0.780953
-0.762083
-0.741065
-0.720409
-0.548705
0.328297
-0.375675
-0.640601
-2.17454
-2.29555
-2.43912
-2.60386
-2.76109
-2.78532
-2.64409
-2.45989
-2.31799
-1.67717
0.315025
0.541904
0.677153
0.751511
-0.00862159
-1.39999
-1.3568
-1.29667
-1.26088
-1.21251
-1.16379
-1.07438
-1.02085
-1.02099
-0.995176
-0.947277
-0.899597
-0.855667
-0.808998
-0.772562
-0.765471
-0.760622
-0.751916
-0.738201
-0.718552
-0.695917
-0.536268
0.375542
-0.165797
-0.607261
-2.15821
-2.25122
-2.36246
-2.46164
-2.57425
-2.5645
-2.46674
-2.32872
-2.19542
-2.03439
0.199989
0.97195
1.17235
1.2329
0.714355
-1.09559
-1.15166
-1.08412
-1.04376
-1.05948
-1.0416
-1.0061
-0.972646
-0.944486
-0.906379
-0.864201
-0.822976
-0.785803
-0.746691
-0.70891
-0.700861
-0.708511
-0.670378
-0.545641
-0.637893
-0.649808
-0.475671
0.437126
-0.059599
-0.563714
-2.02548
-2.09721
-2.15226
-2.20942
-2.26501
-2.25537
-2.1947
-2.10215
-1.99246
-1.71329
0.719254
1.28366
1.57108
1.68437
0.298621
-0.910281
-0.953846
-0.893536
-0.871335
-0.855843
-0.858329
-0.890345
-0.869498
-0.839308
-0.805043
-0.769241
-0.734802
-0.703488
-0.678686
-0.63625
-0.638146
-0.63911
-0.28647
-0.0362776
-0.402199
-0.582766
-0.41015
0.52378
-0.0979899
-0.514029
-1.81899
-1.87099
-1.90598
-1.93822
-1.97402
-1.97918
-1.9601
-1.82867
-1.38636
0.451087
1.23858
1.57835
1.80658
1.35725
-0.527957
-0.737273
-0.765777
-0.75416
-0.703257
-0.700742
-0.693283
-0.686669
-0.734991
-0.718284
-0.691005
-0.662618
-0.636136
-0.61291
-0.594127
-0.578676
-0.568986
-0.479688
0.0351848
0.0453081
-0.195287
-0.503809
-0.359829
0.632996
-0.214897
-0.459222
-1.56945
-1.6038
-1.63257
-1.65433
-1.67084
-1.68345
-1.64038
-0.509844
0.986432
1.44896
1.72253
1.94679
2.10253
0.0407937
-0.513749
-0.562798
-0.589918
-0.604374
-0.549961
-0.540383
-0.540941
-0.536042
-0.596802
-0.591391
-0.572786
-0.553535
-0.535432
-0.519279
-0.506199
-0.495987
-0.488056
-0.15123
0.128854
0.140419
-0.126805
-0.418424
-0.312642
0.719917
-0.249602
-0.394767
-1.30227
-1.31776
-1.32675
-1.32539
-1.32256
-1.3108
-1.23521
-0.00154048
1.76384
2.04742
2.25371
2.38644
0.885327
-0.261007
-0.333669
-0.378208
-0.411267
-0.435272
-0.378309
-0.383403
-0.390538
-0.441164
-0.474222
-0.467638
-0.458105
-0.448075
-0.438322
-0.429255
-0.421985
-0.416053
-0.409896
-0.058386
0.218621
0.230151
-0.258025
-0.342684
-0.21703
0.153872
-0.264847
-0.328404
-1.0443
-1.04287
-1.0339
-1.01353
-0.980998
-0.928491
-0.820978
-0.405101
0.355767
1.77102
2.03177
1.08071
-0.0160661
-0.1206
-0.172449
-0.217111
-0.255108
-0.273627
-0.224849
-0.2402
-0.305053
-0.349379
-0.353785
-0.355127
-0.35423
-0.352489
-0.350189
-0.347347
-0.344919
-0.341874
-0.337761
-0.333827
0.233509
0.00879411
-0.30165
-0.272453
-0.0510597
-0.256205
-0.25521
-0.262751
-0.815447
-0.801818
-0.779925
-0.74545
-0.695837
-0.625714
-0.51177
-0.377804
-0.251595
-0.0409584
0.062564
0.0397072
0.02339
-0.0226588
-0.0690751
-0.105604
-0.137078
-0.157836
-0.140663
-0.177934
-0.22606
-0.241533
-0.251131
-0.259941
-0.266204
-0.27051
-0.273544
-0.274948
-0.274872
-0.272807
-0.269723
-0.265556
-0.258391
-0.2482
-0.236116
-0.187228
0.018551
-0.00278164
-0.203524
-0.211286
-0.627182
-0.608291
-0.582361
-0.546694
-0.499044
-0.435529
-0.341811
-0.249754
-0.165912
-0.0799789
-0.0116668
0.034742
0.0545807
0.0451151
0.0235193
-0.0235966
-0.0644294
-0.0869404
-0.10785
-0.127417
-0.145866
-0.162886
-0.177433
-0.18811
-0.197228
-0.204344
-0.209424
-0.21306
-0.214974
-0.214101
-0.211139
-0.207427
-0.200783
-0.192104
-0.182395
-0.168654
0.0738038
0.0705898
-0.155691
-0.172973
-0.480314
-0.46082
-0.43582
-0.403931
-0.363787
-0.314004
-0.254992
-0.195073
-0.134594
-0.0764448
-0.019842
0.0315095
0.0554858
0.0551575
0.0477044
0.00467555
-0.0273053
-0.0439139
-0.0610777
-0.078253
-0.094652
-0.109758
-0.123123
-0.134518
-0.144398
-0.152354
-0.158139
-0.162575
-0.165516
-0.165963
-0.164156
-0.160971
-0.156083
-0.150186
-0.143878
-0.139429
-0.0112597
-0.105146
-0.138512
-0.138967
-0.369513
-0.352117
-0.330339
-0.304258
-0.272594
-0.23563
-0.19446
-0.151097
-0.108729
-0.0703456
-0.034844
0.00702048
0.0389709
0.0373799
0.0152351
-0.00304733
-0.0133894
-0.0245107
-0.0369533
-0.0499745
-0.0629662
-0.0753776
-0.086716
-0.0968763
-0.106058
-0.11343
-0.119151
-0.123601
-0.126758
-0.128205
-0.12806
-0.126494
-0.123502
-0.119933
-0.11659
-0.110141
-0.109966
-0.110141
-0.111337
-0.112004
-0.287482
-0.273416
-0.25623
-0.23547
-0.211248
-0.18386
-0.154133
-0.12342
-0.0935694
-0.0664208
-0.0438861
-0.025348
-0.0112589
-0.00575978
-0.00503558
-0.00651081
-0.0109238
-0.0176615
-0.0259195
-0.0351783
-0.0448362
-0.0544363
-0.0634534
-0.0720044
-0.079877
-0.0862671
-0.091346
-0.0954824
-0.098516
-0.100458
-0.101069
-0.100486
-0.0991493
-0.0971778
-0.0925482
-0.0853571
-0.0900238
-0.0928773