/*--------------------------------*- C++ -*----------------------------------*\
  =========                 |
  \\      /  F ield         | OpenFOAM: The Open Source CFD Toolbox
   \\    /   O peration     | Website:  https://openfoam.org
    \\  /    A nd           | Version:  8
     \\/     M anipulation  |
\*---------------------------------------------------------------------------*/
FoamFile
{
    version     2.0;
    format      ascii;
    class       volScalarField;
    location    "1.2";
    object      alpha.water;
}
// * * * * * * * * * * * * * * * * * * * * * * * * * * * * * * * * * * * * * //

dimensions      [0 0 0 0 0 0 0];

internalField   nonuniform List<scalar> 
9150
(
1
1
1
1
1
1
1
1
1
1
1
1
1
1
1
1
1
1
1
1
1
1
1
1
1
1
1
1
1
1
1
1
1
1
1
1
1
1
1
1
1
1
1
1
1
1
1
1
1
1
1
1
1
1
1
1
1
1
1
1
1
1
1
1
1
1
1
1
1
1
1
1
1
1
1
1
1
1
1
1
1
1
1
1
1
1
1
1
1
1
1
1
1
1
1
1
1
1
1
1
1
1
1
1
1
1
1
1
1
1
1
1
1
1
1
1
1
1
1
1
1
1
1
1
1
1
1
1
1
1
1
1
1
1
1
1
1
1
1
1
1
1
1
1
1
1
1
1
1
1
0.13663
0.171754
0.21538
0.227895
0.228109
0.223492
0.222692
0.222692
0.222869
0.226756
0.128298
0.125993
0.126194
0.126026
0.127993
0.239693
0.252191
0.320433
0.68405
0.683226
0.392083
0.12755
0.125978
0.126194
0.173372
0.668569
0.72639
0.72692
0.727793
0.503781
0.707489
0.430993
0.12755
0.130348
0.144452
0.277442
0.664276
0.727793
0.728087
0.72837
0.70974
0.486945
0.252519
0.285063
0.243529
0.139375
0.135455
0.568688
0.728381
0.728432
0.610393
0.190982
0.241947
0.483159
0.500406
0.194422
0.129316
0.128334
0.435262
0.728482
0.651572
0.121935
0.0643705
0.400837
0.52719
0.531709
0.129779
0.128334
0.166813
0.651896
0.662739
0.194546
0.0526669
0.0545073
0.404422
0.568119
0.497722
0.128334
0.188551
0.470772
0.192593
0.0526669
0.0524417
0.0526669
0.110268
0.57077
0.629013
0.132872
0.1533
0.433201
0.0582358
0.0524417
0.0524417
0.0524417
0.0882571
0.518861
0.638841
0.246343
0.16714
0.365806
0.206922
0.0767068
0.0525313
0.184282
0.251243
0.581502
0.639064
0.289126
0.17285
0.322359
0.0662859
0.219402
0.627743
0.634273
0.627776
0.638885
0.638841
0.303821
0.176424
0.287085
0.00956031
0.00955984
0.231318
0.636744
0.637582
0.638715
0.639017
0.326941
0.181971
0.188494
0.00956008
0.032969
0.563693
0.635444
0.503837
0.637582
0.638715
0.390189
0.18751
0.190383
0.00956399
0.373545
0.616872
0.62027
0.273637
0.469247
0.636346
0.467167
0.192958
0.265544
0.58674
0.592483
0.471559
0.223683
0.222269
0.412634
0.630247
0.519824
0.203887
0.627892
0.569572
0.494916
0.227356
0.222268
0.222371
0.491521
0.623502
0.552771
0.183693
0.677368
0.481065
0.542188
0.629617
0.590812
0.222268
0.583435
0.621895
0.53591
0.105263
0.709229
0.631394
0.631391
0.631393
0.492732
0.227292
0.58982
0.622466
0.484788
0.0756106
0.695291
0.631391
0.631396
0.340101
0.258662
0.319282
0.627004
0.623381
0.511274
0.0424637
0.367399
0.315996
0.631134
0.448632
0.254422
0.501672
0.631526
0.627327
0.340805
0.0219677
0.0210016
0.248486
0.314899
0.252093
0.254293
0.597413
0.632695
0.631526
0.13436
0.00460359
0.00187541
0.250385
0.251212
0.252067
0.310083
0.632695
0.632695
0.522058
0.0311209
0.00115147
0.00115447
0.251212
0.252044
0.252067
0.575199
0.632535
0.632695
0.240763
0.000994067
0.000558041
0.00106189
0.463792
0.258139
0.527746
0.631064
0.632028
0.632535
0.105577
0.000286949
0.000564382
0.0010842
0.345893
0.604358
0.630259
0.629868
0.631064
0.63143
0.0300923
3.73315e-05
0.000250664
0.000754158
0.183884
0.452184
0.542311
0.359041
0.594414
0.587383
0.007731
1.46612e-05
9.16543e-05
0.000113149
0.0309831
0.0564996
0.0640437
0.0222705
0.548933
0.553873
5.11208e-06
5.13521e-06
0.000186226
0.000577537
5.48295e-05
0.000922843
3.76804e-06
3.76804e-06
0.530918
0.533274
5.12553e-06
5.11944e-06
3.54126e-05
0.000556873
5.2598e-05
2.43777e-05
3.76804e-06
3.74341e-06
0.507064
0.50884
5.11335e-06
5.17782e-06
5.50424e-06
2.85503e-05
0.000188838
4.32203e-06
3.91212e-06
3.76804e-06
0.497081
0.498165
5.17782e-06
1.21772e-05
1.8918e-05
7.40305e-06
0.00935501
9.90653e-05
4.02897e-06
3.91212e-06
0.499433
0.499511
5.60038e-06
2.10193e-05
0.000101203
7.9814e-06
0.00446855
4.18844e-06
4.02897e-06
4.18844e-06
0.547201
0.557338
7.63669e-06
5.39495e-05
0.000116923
1.2865e-05
8.15781e-05
6.64825e-06
7.43415e-06
7.2128e-06
0.633847
0.640404
1.72708e-05
0.000172017
0.000454848
0.000145503
1.85564e-05
1.53799e-05
4.01988e-05
2.62872e-05
0.677557
0.67969
6.32863e-05
0.000237505
0.00116056
0.000826812
3.59171e-05
0.000225371
4.38468e-05
0.00131791
0.682426
0.682389
0.00175662
0.000202786
0.00116257
0.00116002
0.000143001
0.000229711
3.90239e-05
0.00747192
0.682332
0.68174
0.00620149
5.31749e-05
0.000956311
0.00113287
0.000294426
0.000141289
3.25987e-05
0.0114996
0.680927
0.681318
0.00986496
4.63621e-07
4.17179e-05
5.06929e-05
3.93449e-05
2.64438e-05
2.64438e-05
0.0172421
0.681436
0.678939
0.0101794
5.89651e-08
5.78859e-08
5.89651e-08
5.36391e-05
2.74472e-05
1.57929e-05
0.0156008
0.681436
0.681435
0.0160058
5.78859e-08
5.75615e-08
5.78859e-08
9.06289e-05
6.21285e-05
5.53013e-06
0.0156303
0.680377
0.683134
0.0190007
5.76144e-08
5.78174e-08
6.27418e-08
9.02467e-05
2.84333e-05
2.61152e-06
0.0159562
0.679969
0.683508
0.0206024
5.78929e-08
5.75625e-08
7.56593e-08
3.90659e-05
1.71205e-05
1.50696e-06
0.0157657
0.679096
0.683508
0.0217549
7.37427e-08
5.32344e-08
5.86975e-08
3.30202e-06
2.73679e-05
9.87759e-07
0.0129888
0.680576
0.683489
0.0140347
5.57578e-08
4.74388e-08
4.68128e-08
1.97824e-05
2.73689e-05
9.86061e-07
0.00810304
0.680741
0.680634
0.00626731
6.39761e-08
3.12492e-07
4.39937e-08
1.97458e-05
1.19381e-05
9.87759e-07
0.00183298
0.679781
0.677739
0.00114614
6.38872e-08
2.6945e-06
4.39937e-08
6.31296e-06
9.91931e-07
9.81887e-07
9.91931e-07
0.672118
0.674648
2.70134e-06
1.03296e-07
2.98588e-06
4.61451e-08
2.90611e-07
2.41811e-05
9.91931e-07
1.17577e-06
0.666646
0.672919
0.00155929
2.14052e-07
2.98532e-06
4.83789e-08
2.90566e-07
6.69968e-05
1.63724e-06
0.000190493
0.677133
0.678633
0.000211728
2.5027e-07
2.98498e-06
4.96305e-08
4.24401e-07
6.70846e-05
5.6618e-06
5.4628e-06
0.697037
0.694104
2.68036e-07
2.84391e-07
2.20677e-06
5.60015e-08
6.84712e-07
6.7122e-05
1.02709e-05
5.47007e-06
0.713679
0.716471
3.06758e-07
2.98986e-07
3.06758e-07
5.17306e-07
1.31467e-06
6.7122e-05
1.06836e-05
8.10561e-06
0.732486
0.732217
3.2447e-07
3.06758e-07
4.43112e-07
4.82277e-06
2.53028e-06
6.7122e-05
1.04759e-05
1.05271e-05
0.745822
0.74671
3.60277e-07
3.26812e-07
7.07252e-07
4.94616e-05
6.69588e-06
6.71033e-05
1.0482e-05
3.38772e-05
0.758663
0.758657
5.87022e-05
3.60277e-07
4.65047e-07
0.000272651
1.64884e-05
6.69096e-05
1.0461e-05
0.00655492
0.768802
0.768794
0.00673888
4.26804e-07
5.17776e-07
0.000403988
2.94849e-05
4.50496e-05
1.0461e-05
0.0126411
0.776916
0.776892
0.0128531
4.67457e-07
5.07354e-07
7.72985e-05
3.52725e-05
4.44165e-05
1.05027e-05
0.0162811
0.783546
0.783582
0.0164784
4.67462e-07
8.98624e-07
5.77551e-06
3.21595e-05
4.88318e-05
1.06112e-05
0.0199584
0.788859
0.788997
0.0201012
4.67451e-07
1.06036e-06
1.68361e-06
2.60922e-05
4.18418e-05
1.06133e-05
0.0229987
0.792937
0.793059
0.0231039
4.67462e-07
4.67691e-07
4.7434e-07
2.62831e-05
1.0695e-05
1.06346e-05
0.0256478
0.796448
0.79653
0.0256895
4.67691e-07
6.6545e-06
2.05803e-06
2.11793e-05
3.49899e-05
1.06026e-05
0.0282197
0.799813
0.799893
0.028227
4.70602e-07
0.000188243
1.38921e-05
4.35575e-06
8.92908e-05
1.08049e-05
0.0305448
0.802891
0.803019
0.0305537
5.04216e-07
0.00019357
1.70087e-05
5.32954e-06
9.13117e-05
1.14434e-05
0.0331798
0.806625
0.806884
0.0332955
8.69568e-07
0.000193325
2.18535e-05
1.11318e-05
9.22516e-05
1.22232e-05
0.036423
0.811233
0.811468
0.0366265
1.46263e-06
5.23274e-05
2.19018e-05
2.35218e-05
9.26953e-05
1.29054e-05
0.0401452
0.81647
0.816479
0.040256
1.67287e-06
1.71349e-06
1.04283e-05
7.21272e-05
9.25334e-05
1.35246e-05
0.0448981
0.823009
0.822975
0.0450318
1.71349e-06
0.000213097
1.9535e-05
9.32578e-05
9.07764e-05
1.4044e-05
0.0504653
0.830342
0.830476
0.0507525
2.19304e-06
0.000530817
1.10353e-05
9.21761e-05
0.00012786
1.45216e-05
0.0574883
0.838996
0.839017
0.0576827
3.31228e-06
0.000531124
0.000184164
8.683e-05
0.000185745
1.49459e-05
0.0653058
0.848037
0.848079
0.0654521
3.00554e-06
0.000483962
0.000522879
8.0549e-05
0.000239703
1.54159e-05
0.0747792
0.858119
0.858204
0.0750942
3.01327e-06
5.71675e-05
0.000150854
0.000103748
0.000239854
1.60192e-05
0.0846668
0.867647
0.867788
0.0849054
3.00442e-06
3.03558e-06
2.4171e-06
0.000150275
0.000239703
1.66912e-05
0.0953022
0.877025
0.877226
0.0954299
3.03558e-06
3.91417e-06
7.34857e-05
0.000177771
0.000237335
1.73466e-05
0.105905
0.885643
0.885784
0.105979
3.38656e-06
0.000170375
0.0010466
0.000202441
0.000192502
1.81399e-05
0.11692
0.893858
0.893982
0.116928
6.21799e-06
0.000700382
0.00128659
0.000202441
0.000159062
1.89021e-05
0.127386
0.901103
0.901197
0.127389
8.66479e-06
0.000680525
0.00128659
0.00020241
0.000131696
1.94417e-05
0.138585
0.908429
0.908508
0.138606
6.55788e-06
0.000580122
0.00128652
0.000201532
0.000116931
1.99263e-05
0.150087
0.915447
0.915535
0.150121
4.65466e-06
0.000499414
0.00128492
0.000199108
0.000115867
2.03661e-05
0.16352
0.923058
0.923177
0.163552
3.08182e-06
0.000408023
0.00127377
0.000196175
0.00012242
2.08356e-05
0.178653
0.930809
0.930936
0.178736
2.67367e-06
0.000209305
0.000987689
0.000193164
0.000118234
2.13496e-05
0.197303
0.93922
0.939356
0.197434
2.5653e-06
6.18775e-05
0.000364854
0.000157016
0.000165414
2.19387e-05
0.219301
0.947724
0.947859
0.219397
2.56047e-06
7.4562e-06
0.000445269
7.19625e-05
0.00016553
2.2587e-05
0.244843
0.9561
0.956204
0.244931
2.56047e-06
7.67543e-06
0.000611884
1.40468e-05
0.000165415
2.22615e-05
0.274199
0.964223
0.964322
0.274292
2.56047e-06
4.55316e-05
0.000707464
4.79487e-05
0.000103873
2.18004e-05
0.306153
0.971562
0.97164
0.306251
2.64506e-06
0.000196293
0.000709291
0.00024915
2.98748e-05
2.17481e-05
0.341227
0.978136
0.978205
0.341296
2.86214e-06
0.00017319
0.000531853
0.00045063
2.17678e-05
2.17678e-05
0.379641
0.983712
0.98376
0.379701
2.74423e-06
3.58532e-05
5.23529e-05
0.000648804
3.63163e-05
2.17481e-05
0.423368
0.988339
0.98837
0.423424
2.74423e-06
2.58708e-06
5.05182e-07
0.000842105
6.7348e-05
2.17678e-05
0.471937
0.9917
0.991723
0.471959
2.73539e-06
1.18111e-05
2.51129e-07
0.000842332
5.18711e-05
2.18777e-05
0.530326
0.994108
0.994129
0.530299
2.83837e-06
1.197e-05
2.46766e-07
0.000536616
2.04005e-05
1.34833e-05
0.594752
0.995876
0.99589
0.594726
3.77403e-06
9.30039e-06
1.48204e-05
1.41264e-05
2.12155e-06
3.2957e-06
0.670967
0.997101
0.997119
0.670963
5.36874e-06
5.92814e-06
4.99624e-05
2.10514e-06
2.05737e-06
2.10514e-06
0.747644
0.99816
0.998181
0.747677
5.97022e-06
5.97022e-06
5.60791e-05
3.98065e-06
2.08176e-06
0.0286006
0.820035
0.998924
0.998914
0.820054
0.0272484
5.92963e-06
7.38373e-05
8.03071e-06
2.05736e-06
0.104622
0.88334
0.999521
0.999521
0.883368
0.105363
6.16992e-06
0.000122545
7.12756e-06
2.17697e-06
0.215766
0.944841
0.999824
0.999804
0.944812
0.216988
7.41269e-06
0.000154943
1.58191e-06
1.85641e-06
0.398837
0.984251
0.999955
0.999956
0.983778
0.398686
9.9471e-06
2.83079e-05
1.96684e-07
1.06681e-06
0.654795
0.999967
0.999984
0.999982
0.999967
0.657872
4.23057e-06
3.95414e-06
3.55672e-09
0.0958325
0.873574
0.999987
0.999999
0.999999
0.999986
0.869596
0.090464
3.8878e-07
5.96277e-11
0.582397
0.999923
0.999999
1
1
0.999999
0.999838
0.577158
5.81036e-09
0.339211
0.968413
1
1
1
1
1
1
0.970594
0.342297
0.597787
0.660387
0.660387
0.633537
0.518166
0.565073
0.637308
0.637308
0.637308
0.503132
0.499142
0.580616
0.710855
0.711209
0.711209
0.711209
0.711188
0.634842
0.486171
0.484054
0.484748
0.687717
0.589493
0.373892
0.364501
0.361472
0.360816
0.359723
0.359086
0.357906
0.352123
0.351566
0.612614
0.696585
0.699817
0.700557
0.700677
0.700677
0.700385
0.686095
0.624535
0.595116
0.658038
0.657277
0.552386
0.232314
0.397083
0.431617
0.553474
0.717262
0.715328
0.713333
0.694593
0.700843
0.696243
0.697214
0.700713
0.726555
0.727291
0.727411
0.72766
0.72769
0.727654
0.727223
0.726616
0.718478
0.697546
0.581812
0.479221
0.505643
0.506592
0.392013
0.146084
0.148781
0.222115
0.58804
0.700557
0.700677
0.700295
0.686806
0.110349
0.11026
0.123635
0.157244
0.132336
0.136463
0.301625
0.700993
0.719504
0.717777
0.717432
0.661426
0.332715
0.187133
0.167367
0.176311
0.219597
0.545532
0.727347
0.727641
0.72769
0.727654
0.692977
0.692292
0.327831
0.0159044
0.0148111
0.0147025
0.014615
0.014545
0.014507
0.0144747
0.0144718
0.0145927
0.0151349
0.141598
0.528628
0.508529
0.675498
0.686277
0.303831
0.110293
0.110253
0.110319
0.111376
0.148483
0.609026
0.723264
0.720896
0.716908
0.251371
0.00141581
0.00141581
0.00141581
0.00141799
0.00144349
0.00185838
0.176825
0.718372
0.727347
0.727641
0.510489
0.0306384
0.0282261
0.025662
0.0221438
0.0155606
0.0148111
0.0146741
0.0145487
0.0144747
0.0144735
0.0144736
0.0144735
0.0145927
0.072326
0.203752
0.336211
0.577165
0.685634
0.72286
0.210096
0.110319
0.110302
0.110583
0.267093
0.726069
0.725993
0.630176
0.121438
0.0015287
0.00141592
0.00141574
0.00141592
0.00141702
0.00142104
0.00144533
0.00181519
0.241349
0.599185
0.7166
0.408906
0.251226
0.230622
0.205208
0.271119
0.299414
0.183205
0.0651782
0.0220332
0.0144897
0.0144747
0.0144735
0.0144855
0.0147651
0.150074
0.34129
0.582668
0.656406
0.594922
0.728482
0.65773
0.150259
0.110533
0.110674
0.500664
0.726414
0.726419
0.60142
0.113495
0.0291217
0.00179405
0.00141592
0.00141702
0.00142461
0.00144222
0.00146417
0.00197569
0.00142054
0.00643916
0.199669
0.480743
0.628093
0.644605
0.658873
0.668724
0.672675
0.672362
0.544296
0.358559
0.0164101
0.0144897
0.0144854
0.0788224
0.354879
0.633895
0.688113
0.69221
0.691913
0.445132
0.728482
0.727998
0.625773
0.474354
0.492803
0.726555
0.726604
0.726479
0.726615
0.726719
0.565306
0.187088
0.0441353
0.00641744
0.00268521
0.00151011
0.00173734
0.0014354
0.00140335
0.00138266
0.00134274
0.0248377
0.0816004
0.138563
0.203932
0.37092
0.511988
0.666289
0.688109
0.687354
0.395807
0.0154137
0.0206687
0.383111
0.685989
0.690905
0.693102
0.692935
0.692366
0.443823
0.519726
0.6583
0.712759
0.720747
0.72649
0.726673
0.726663
0.726583
0.72656
0.726686
0.726548
0.72647
0.616986
0.104844
0.00325508
0.00168874
0.00157057
0.00143611
0.00139192
0.00136132
0.00132532
0.00131825
0.00131467
0.00131154
0.00130985
0.00131154
0.00131447
0.112165
0.587075
0.688109
0.686903
0.294616
0.0271041
0.17777
0.537294
0.659739
0.693228
0.693102
0.64359
0.443596
0.564986
0.221058
0.437736
0.655648
0.726673
0.726682
0.726682
0.726664
0.726659
0.726819
0.726621
0.661147
0.272119
0.013618
0.00448464
0.00204977
0.00158101
0.00142799
0.00170611
0.0020794
0.0020794
0.0013806
0.00131731
0.00130985
0.0013067
0.00130985
0.00131305
0.00274551
0.171504
0.678386
0.686227
0.208597
0.0315847
0.0998466
0.158916
0.338148
0.693102
0.693158
0.445909
0.443575
0.691013
0.221661
0.221005
0.224604
0.448027
0.726691
0.726691
0.726664
0.726674
0.726533
0.549705
0.10018
0.0272631
0.021152
0.0089261
0.00174621
0.00141621
0.00132558
0.00130684
0.00130631
0.00146642
0.00175866
0.00175866
0.00145469
0.00130332
0.00130896
0.0360049
0.0795455
0.340684
0.660014
0.404945
0.0967712
0.0524113
0.291503
0.380295
0.274572
0.683712
0.643489
0.443575
0.443573
0.719954
0.729986
0.356227
0.231205
0.238363
0.645945
0.725863
0.631447
0.509219
0.450462
0.356264
0.285838
0.234146
0.0959647
0.013043
0.00144776
0.00132055
0.00130198
0.00130151
0.00130125
0.00130125
0.00156924
0.00129871
0.00130149
0.00130207
0.00130237
0.417767
0.621297
0.620078
0.42889
0.0973165
0.0893825
0.202863
0.422198
0.423644
0.274115
0.505415
0.692603
0.443573
0.443573
0.724246
0.731126
0.73085
0.613162
0.252497
0.220156
0.220156
0.220156
0.221202
0.645454
0.668467
0.652442
0.509558
0.107471
0.00514756
0.00132086
0.00130197
0.00130151
0.00130064
0.00130085
0.00130122
0.00130074
0.00130066
0.00130122
0.00130114
0.243027
0.621297
0.621297
0.44346
0.0967146
0.0893825
0.0892336
0.172745
0.423952
0.423952
0.274408
0.338996
0.709351
0.66783
0.443573
0.662323
0.731817
0.672611
0.303435
0.221806
0.220981
0.220501
0.293221
0.704992
0.711334
0.599658
0.596467
0.530051
0.0967887
0.00235386
0.00166537
0.00132367
0.00130064
0.00130061
0.00130053
0.00130078
0.00130114
0.00130111
0.00130084
0.0119215
0.494272
0.612096
0.613751
0.296894
0.0895062
0.0892336
0.0892161
0.0892336
0.339899
0.423952
0.275064
0.427641
0.713186
0.716186
0.622446
0.613271
0.732477
0.554047
0.293193
0.237557
0.366299
0.732408
0.731288
0.731272
0.671492
0.238122
0.390583
0.510041
0.101754
0.0581256
0.00379875
0.00142271
0.0013318
0.0013004
0.00130075
0.0013012
0.0013011
0.00130122
0.00130134
0.378543
0.576029
0.364408
0.115272
0.118183
0.089248
0.0892226
0.0892236
0.0892187
0.0969269
0.386516
0.454777
0.49147
0.716186
0.717118
0.718388
0.681906
0.732471
0.732476
0.732474
0.732472
0.732486
0.732464
0.732411
0.66185
0.238178
0.237707
0.47144
0.507457
0.433859
0.561429
0.315593
0.133965
0.0551454
0.00623145
0.00131317
0.0013011
0.0013011
0.00130115
0.00130122
0.321942
0.487161
0.131338
0.111765
0.11037
0.109835
0.164886
0.0982614
0.0895492
0.0899241
0.184538
0.44725
0.291521
0.565724
0.704014
0.719138
0.73246
0.732486
0.732473
0.732473
0.732486
0.732486
0.732473
0.700935
0.257888
0.210023
0.247084
0.588382
0.444266
0.690385
0.731238
0.731972
0.731589
0.655921
0.412273
0.307923
0.246883
0.235859
0.452534
0.474821
0.560884
0.170221
0.114245
0.113146
0.113675
0.20115
0.225199
0.220379
0.0899241
0.0903915
0.0908093
0.31875
0.103252
0.200939
0.551563
0.719598
0.732476
0.732459
0.732452
0.732381
0.732441
0.732533
0.732968
0.52699
0.211225
0.220726
0.615841
0.604837
0.376023
0.487189
0.731972
0.73208
0.732
0.731588
0.731736
0.731588
0.732497
0.733041
0.73237
0.711817
0.3233
0.117014
0.115555
0.114245
0.115232
0.206398
0.225199
0.225199
0.202818
0.0908093
0.0909197
0.0922253
0.0971386
0.102436
0.57508
0.719652
0.732448
0.732501
0.732509
0.732393
0.732548
0.733029
0.733206
0.514862
0.211225
0.33665
0.721917
0.593452
0.374813
0.374813
0.643147
0.732108
0.732131
0.731999
0.73194
0.732318
0.733041
0.733041
0.733041
0.730346
0.358998
0.11615
0.115579
0.114884
0.115474
0.118229
0.2088
0.224722
0.199692
0.0909197
0.0913287
0.092214
0.0945812
0.202063
0.711337
0.71966
0.732469
0.732449
0.732492
0.732439
0.732464
0.732526
0.732876
0.692917
0.279667
0.397556
0.723767
0.710103
0.374813
0.385045
0.555458
0.732131
0.732131
0.732131
0.73172
0.732579
0.73304
0.733041
0.73304
0.729851
0.349136
0.116662
0.116151
0.115588
0.116196
0.116801
0.120379
0.145196
0.131379
0.0985563
0.092214
0.106518
0.297687
0.640688
0.719661
0.719662
0.534575
0.45453
0.716709
0.732431
0.732426
0.732414
0.732406
0.728674
0.500124
0.588869
0.724494
0.723786
0.678008
0.409269
0.73192
0.732108
0.732131
0.731861
0.732178
0.731856
0.732624
0.73304
0.728274
0.72782
0.725103
0.403262
0.116673
0.116196
0.116786
0.117318
0.1178
0.11825
0.121425
0.408381
0.544705
0.616341
0.705478
0.720843
0.719721
0.719662
0.0533419
0.0430871
0.0273223
0.28156
0.670141
0.732394
0.732388
0.732379
0.732353
0.732117
0.729612
0.724981
0.724534
0.7257
0.728819
0.731917
0.73173
0.731372
0.732195
0.732218
0.732128
0.693545
0.674795
0.712291
0.723852
0.721702
0.704966
0.393836
0.117316
0.1178
0.118267
0.118996
0.143796
0.607091
0.718982
0.719898
0.720613
0.720452
0.715745
0.719667
0.00175444
0.0021848
0.000857721
0.000613642
0.0422728
0.409932
0.732378
0.732352
0.732076
0.60292
0.460015
0.6381
0.69765
0.696419
0.682674
0.634562
0.579492
0.460852
0.360351
0.353298
0.35433
0.465754
0.718426
0.718783
0.710028
0.687704
0.693698
0.718968
0.718499
0.639521
0.210102
0.121422
0.124117
0.409725
0.719779
0.720542
0.720723
0.720511
0.719862
0.719846
0.000463965
0.000305752
0.000185944
0.00016036
0.000592203
0.0316576
0.459088
0.731713
0.630138
0.0758288
0.0183546
0.0607501
0.0878861
0.113075
0.116871
0.0609827
0.0303368
0.000253231
0.000217791
0.00032832
0.00466986
0.381757
0.718783
0.718883
0.718993
0.717929
0.719178
0.719179
0.718968
0.718656
0.686779
0.436947
0.315529
0.343816
0.67968
0.720797
0.720965
0.720723
0.719927
0.719952
0.000285167
0.00013872
0.000127553
0.00012226
0.000152588
0.000501143
0.0737354
0.258171
0.196695
0.000135347
4.50005e-05
4.50005e-05
4.45901e-05
4.78638e-05
6.58251e-05
0.000127678
0.000214037
0.000211667
5.4036e-05
0.000134563
0.00102784
0.0707001
0.549965
0.71898
0.719105
0.719178
0.719286
0.719348
0.719394
0.646925
0.643252
0.644217
0.662497
0.659457
0.70373
0.720993
0.721019
0.720851
0.700751
0.706163
0.000263662
0.00012016
0.000118495
0.000117581
0.000119795
0.000150409
0.00030445
0.00116881
0.00419338
0.003601
4.52478e-05
4.459e-05
4.77818e-05
7.62575e-05
0.00153799
0.00369292
0.00291201
0.000355477
2.5856e-05
1.58734e-05
7.62315e-05
0.000324551
0.0785779
0.577878
0.719015
0.719286
0.719348
0.719565
0.719739
0.691043
0.643292
0.643833
0.672466
0.720887
0.720993
0.721021
0.721006
0.716292
0.700746
0.700741
0.000153433
0.000117421
0.000117138
0.000117016
0.000117126
0.000118123
0.000127466
0.00014519
0.000186239
0.000514197
0.000402362
4.77818e-05
5.97309e-05
0.00079578
0.00482536
0.00482536
0.00482536
0.00336042
9.47339e-06
8.98687e-06
8.10379e-06
1.97122e-05
9.90196e-05
0.000540694
0.324007
0.704013
0.719507
0.71974
0.719843
0.720329
0.719724
0.720661
0.72082
0.720782
0.720887
0.720993
0.72102
0.720928
0.701995
0.700787
0.000115389
0.000117118
0.000117016
0.000116971
0.000116941
0.00011646
0.000108367
7.94125e-05
3.89238e-05
4.56448e-05
0.000400131
0.000202026
8.03208e-05
9.74152e-05
0.00278975
0.00482536
0.00474072
0.00266016
8.98687e-06
7.474e-06
4.58377e-06
3.27231e-06
3.4372e-06
5.25604e-06
8.78364e-06
4.12518e-05
0.229634
0.546104
0.705617
0.720461
0.720603
0.720707
0.720914
0.720785
0.720827
0.720865
0.72098
0.720811
0.720636
0.719994
0.000497709
0.000159899
0.000116971
0.000116951
0.000116971
0.000116946
0.000140821
0.000117567
3.02597e-05
2.63322e-05
0.000153982
0.000201312
0.000125049
8.66398e-05
7.60463e-05
0.000587284
0.00328969
0.000988518
8.06865e-06
4.58377e-06
3.53191e-06
3.14384e-06
3.13158e-06
3.56944e-06
6.10062e-06
1.00334e-05
2.82461e-06
5.03351e-06
1.26857e-05
0.0579793
0.350123
0.600207
0.720756
0.720838
0.720747
0.720705
0.720811
0.720756
0.720732
0.720598
0.00119702
0.00122587
0.00107365
0.00083146
0.000283209
0.000116995
0.000257831
0.000134704
2.63322e-05
2.53941e-05
2.56722e-05
0.000108092
0.000292825
0.000173069
6.5918e-05
5.99073e-05
5.92504e-05
5.92493e-05
0.000260082
0.000209838
3.81343e-05
3.00373e-06
3.00164e-06
2.44581e-05
3.45012e-05
2.01356e-05
3.02936e-06
3.18894e-06
4.24102e-06
1.14085e-05
5.23927e-05
0.000265638
0.00199
0.117389
0.351419
0.536515
0.626768
0.663229
0.67357
0.666178
0.000558087
0.00123778
0.0012429
0.00124982
0.0012516
0.00104862
0.000287948
3.50777e-05
2.53941e-05
2.53042e-05
2.53941e-05
0.000216127
0.000292825
0.000246861
6.16209e-05
5.94747e-05
5.92249e-05
5.92496e-05
0.00019467
0.000438903
0.000126932
3.00373e-06
3.00372e-06
3.00353e-06
3.00473e-06
3.00335e-06
3.00397e-06
3.01128e-06
3.08955e-06
3.87511e-06
1.12328e-05
0.000510594
0.00290364
0.00285709
0.00304842
0.0107427
0.0622392
0.0972495
0.119703
0.141911
5.60172e-06
0.000274989
0.00116154
0.0012516
0.0012516
0.0012516
0.000644615
2.6996e-05
2.53941e-05
2.53941e-05
6.36093e-05
0.000182366
0.0001948
0.0001963
0.000852075
0.00231484
0.000937126
5.92496e-05
0.00012566
0.000445
0.000455603
0.000225216
3.00353e-06
3.00332e-06
3.00332e-06
3.00332e-06
3.00335e-06
3.00398e-06
3.01128e-06
3.08089e-06
3.85216e-06
1.5743e-05
0.00238367
0.00737133
0.00449924
0.00164506
0.000130594
0.000173286
0.000168425
0.000402722
5.39873e-06
5.37455e-06
9.75351e-05
0.000258121
0.000646464
0.00122256
0.000466431
2.68433e-05
2.37667e-05
3.02486e-05
5.78209e-05
1.16174e-05
0.00011605
0.00150383
0.00235144
0.00235926
0.00236036
0.00138099
0.000179351
0.000286007
0.000459229
0.000465742
0.000357181
7.07113e-06
3.00332e-06
3.00335e-06
3.00398e-06
3.00482e-06
3.00508e-06
3.00826e-06
3.21995e-06
1.05186e-05
0.00289314
0.00745314
0.00745245
0.00455528
9.64614e-05
6.96377e-05
6.79212e-05
6.8765e-05
5.37455e-06
5.37455e-06
5.37455e-06
6.87669e-06
1.1957e-05
4.53447e-05
0.000351167
0.000194854
2.07305e-05
1.6796e-05
7.44739e-06
6.47333e-06
0.000466599
0.00235144
0.00235926
0.00236036
0.00236096
0.00236077
0.000596382
0.000311037
0.000335085
0.000469241
0.000469241
0.00043984
3.72395e-05
3.03097e-06
3.00489e-06
3.00508e-06
3.00857e-06
3.01234e-06
3.0099e-06
3.46535e-06
0.000114368
0.00555177
0.00745358
0.00658172
6.96378e-05
6.79212e-05
6.69321e-05
6.69817e-05
6.9753e-05
4.63846e-05
2.67596e-05
1.26122e-05
1.18418e-05
1.18617e-05
9.59127e-05
0.000194711
0.000188987
6.23854e-05
6.47333e-06
5.89987e-06
5.6773e-06
0.00131434
0.00235784
0.00236087
0.00236087
0.00236088
0.00196564
0.000340582
0.00031389
0.000306992
0.000301287
0.000304275
0.000352309
0.000338851
8.52774e-05
3.00719e-06
3.00973e-06
3.01111e-06
3.03039e-06
4.27521e-06
4.70523e-06
0.000233421
0.00527835
0.00633754
0.00111048
0.000333951
6.692e-05
6.69321e-05
0.000328023
0.000299948
0.000350583
0.000352183
0.000300373
3.23775e-05
3.05813e-05
0.000149471
0.000184786
0.000144165
8.88769e-06
5.0239e-06
4.79456e-06
5.12567e-05
0.000363043
0.00076108
0.00130054
0.00236077
0.00232156
0.00208859
0.000394218
0.00029764
0.00029746
0.00029764
0.00029706
0.000548639
0.000543343
0.000288648
3.46538e-06
3.03279e-06
3.03492e-06
3.10078e-06
1.01859e-05
1.0208e-05
1.12807e-05
0.000686828
0.00395772
0.00376077
6.69321e-05
8.69971e-05
0.000697215
0.000199835
0.000308053
0.000352963
0.000352963
0.000352963
0.000339316
8.10954e-05
5.9664e-05
4.38574e-05
6.25827e-06
4.71461e-06
4.71441e-06
4.79223e-06
5.23922e-06
5.8121e-06
2.6581e-05
0.000105269
0.00015937
0.00100996
0.00104859
0.00105755
0.0011014
0.00114102
0.00114873
0.000845401
0.000469912
0.00021188
5.91054e-06
3.35334e-06
3.10908e-06
3.13852e-06
3.99318e-06
1.02407e-05
1.06105e-05
1.23919e-05
0.00255906
0.00373838
0.000465376
0.000100759
0.000421536
1.71984e-05
0.000165157
0.000352183
0.000352963
0.000351887
0.000302299
3.36848e-05
5.80319e-06
4.85655e-06
4.71461e-06
4.70127e-06
4.71461e-06
4.69987e-06
4.82856e-06
5.19932e-06
5.29674e-06
5.1704e-06
4.8601e-06
5.25947e-06
0.000182857
0.00109945
0.00114887
0.0011495
0.00114909
0.00105562
0.000139947
0.000148974
0.000697025
0.000224316
3.41872e-06
3.1469e-06
3.79981e-06
2.26957e-05
2.89444e-05
1.22524e-05
9.14569e-06
0.00115891
0.00281077
0.000921643
6.16573e-05
7.1452e-07
4.6975e-07
0.000147427
0.00024675
8.75135e-05
1.67841e-05
2.25231e-06
1.01366e-05
3.38668e-05
4.10319e-05
4.19029e-05
4.1944e-05
1.76777e-05
5.34677e-06
5.29605e-06
5.1705e-06
5.12509e-06
4.51529e-06
4.76364e-06
5.59336e-06
2.17778e-05
2.77016e-05
0.000806093
0.00114945
0.000447733
2.38536e-05
0.000107122
0.000854677
0.000990249
0.000156888
4.8298e-06
4.45375e-06
2.30229e-05
2.91472e-05
2.89997e-05
9.3289e-06
5.631e-06
0.000844156
0.000697044
6.35158e-08
4.48289e-07
4.61208e-07
4.69361e-07
4.70922e-07
1.0356e-06
1.03764e-06
1.00165e-06
1.51425e-06
3.29483e-07
2.74599e-05
4.24891e-05
4.24891e-05
4.24891e-05
4.22605e-05
4.15968e-05
2.05445e-05
4.51581e-06
4.21745e-06
4.39562e-06
4.59374e-06
4.92624e-06
6.35389e-05
0.000155374
0.000152555
4.97372e-05
1.83032e-05
1.94306e-05
0.000785015
0.00110802
0.000876847
5.44519e-05
6.68496e-06
1.56288e-05
2.87122e-05
2.90636e-05
9.31502e-06
5.42821e-06
0.00057134
0.000261161
7.10628e-08
6.37218e-07
4.80486e-07
4.70774e-07
3.012e-06
3.28913e-06
1.15701e-06
3.29533e-07
3.29484e-07
3.29533e-07
7.14111e-07
1.36952e-06
6.2149e-07
2.58718e-05
4.17049e-05
4.11222e-05
1.86749e-05
4.18917e-06
4.08921e-06
4.21745e-06
6.58444e-05
9.8565e-05
9.7823e-05
4.24259e-05
1.67741e-05
1.69867e-05
1.74953e-05
1.83032e-05
0.000856765
0.00112206
0.00112581
0.000621691
1.91646e-05
1.59946e-05
1.97945e-05
6.98195e-06
4.94546e-06
5.17256e-06
0.000377965
0.000110872
9.47515e-07
2.67035e-06
1.79665e-06
4.70922e-07
1.55243e-06
3.28267e-06
9.50302e-07
3.31716e-07
3.29533e-07
3.41478e-07
1.18203e-06
6.89093e-07
5.94197e-07
5.94197e-07
2.60518e-05
1.54722e-05
4.24125e-06
4.08924e-06
4.07323e-06
5.17122e-05
9.79661e-05
9.82778e-05
6.28739e-05
1.62216e-05
1.59414e-05
1.63866e-05
1.69868e-05
0.000120748
0.00110335
0.00112608
0.0011263
0.00104537
8.91767e-05
5.32446e-06
4.91662e-06
4.91662e-06
4.91662e-06
0.000138348
0.000115823
0.000110872
1.67447e-06
2.67035e-06
2.66201e-06
7.97535e-07
8.42337e-07
8.68667e-07
5.71949e-07
3.45425e-07
3.31716e-07
1.75968e-06
2.88656e-06
2.28097e-06
5.94197e-07
3.49477e-06
2.80113e-05
2.85842e-05
1.55208e-05
4.07323e-06
4.00406e-06
6.75205e-05
9.68458e-05
6.40567e-05
1.78681e-05
1.54236e-05
1.55597e-05
1.59413e-05
0.000101938
0.00101207
0.00112608
0.00112656
0.00112608
0.000733855
2.1645e-05
5.06612e-06
4.99137e-06
1.45402e-05
0.000214312
0.000306919
0.000295536
0.00015018
9.50244e-07
2.61732e-06
2.32534e-06
8.63786e-07
1.21544e-06
1.21763e-06
8.95027e-07
5.74675e-07
7.67816e-06
4.66055e-06
2.48919e-06
1.63498e-06
1.94929e-06
2.71149e-05
2.85846e-05
2.85632e-05
2.32121e-05
4.00406e-06
3.92873e-06
3.51214e-05
9.26346e-05
3.22934e-05
1.61938e-05
1.5023e-05
1.5308e-05
0.000163033
0.00102287
0.00112589
0.00112644
0.00112608
0.00077009
7.62348e-05
5.35828e-06
5.14222e-06
5.06612e-06
4.32572e-05
0.000306919
0.000306919
0.000306919
0.000306608
1.15817e-07
1.14721e-06
1.26317e-06
2.2516e-06
0.000151527
0.000280594
0.000248709
0.000259251
0.00010344
7.57893e-06
1.63498e-06
1.62556e-06
1.62877e-06
1.00421e-05
2.85632e-05
2.85846e-05
2.02064e-05
3.93834e-06
3.87609e-06
1.60382e-05
2.54547e-05
2.65247e-05
1.88755e-05
1.49511e-05
1.5023e-05
0.000954875
0.00111829
0.00111874
0.0010354
0.000489379
5.10162e-05
9.86717e-06
1.05014e-05
1.0449e-05
6.19013e-06
3.17003e-05
0.000164699
0.000178843
0.000115883
0.000174007
4.61691e-08
1.35305e-06
2.13557e-05
0.000572692
0.00250298
0.0032489
0.00303137
0.00156821
7.85073e-05
2.05669e-06
1.87338e-06
1.63498e-06
1.62877e-06
1.81469e-06
1.72834e-05
2.85632e-05
1.70238e-05
3.87609e-06
3.80632e-06
1.26374e-05
1.27954e-05
1.32571e-05
1.39045e-05
1.43533e-05
1.79831e-05
0.00105488
0.00110067
0.000632114
0.000170412
1.1093e-05
8.14197e-06
9.10065e-06
2.06035e-05
1.97785e-05
2.7364e-06
7.33376e-06
2.414e-06
2.301e-06
5.39975e-06
2.291e-05
5.21081e-08
4.44763e-06
0.000383571
0.0031102
0.00345742
0.00345856