/*--------------------------------*- C++ -*----------------------------------*\
  =========                 |
  \\      /  F ield         | OpenFOAM: The Open Source CFD Toolbox
   \\    /   O peration     | Website:  https://openfoam.org
    \\  /    A nd           | Version:  8
     \\/     M anipulation  |
\*---------------------------------------------------------------------------*/
FoamFile
{
    version     2.0;
    format      ascii;
    class       surfaceScalarField;
    location    "1.2";
    object      phi;
}
// * * * * * * * * * * * * * * * * * * * * * * * * * * * * * * * * * * * * * //

dimensions      [0 3 -1 0 0 0 0];

internalField   nonuniform List<scalar> 
18095
(
1.94569e-08
-1.71923e-07
1.52466e-07
2.31084e-08
-1.98299e-07
1.94647e-07
1.9802e-08
-2.05893e-07
2.09199e-07
1.13817e-08
-2.10865e-07
2.19285e-07
1.26084e-09
-2.13453e-07
2.23574e-07
-9.47483e-09
-2.13569e-07
2.24305e-07
-1.93343e-08
-2.1015e-07
2.2001e-07
-2.30369e-08
-2.05508e-07
2.09211e-07
-1.94294e-08
-1.98365e-07
1.94757e-07
-1.71974e-07
1.52545e-07
1.55489e-08
-1.87472e-07
1.56825e-08
-1.98432e-07
1.18361e-08
-2.02047e-07
6.16874e-09
-2.05198e-07
-3.0624e-10
-2.06978e-07
-7.30427e-09
-2.06571e-07
-1.24776e-08
-2.04977e-07
-1.5636e-08
-2.0235e-07
-1.55149e-08
-1.98486e-07
-1.87489e-07
6.87332e-09
-1.94345e-07
8.32207e-09
-1.99881e-07
7.19292e-09
-2.00918e-07
3.74205e-09
-2.01747e-07
-3.87943e-10
-2.02848e-07
-4.16284e-09
-2.02796e-07
-6.86951e-09
-2.0227e-07
-8.19397e-09
-2.01025e-07
-6.8511e-09
-1.99829e-07
-1.9434e-07
4.56384e-09
-1.98909e-07
4.63987e-09
-1.99957e-07
3.96806e-09
-2.00246e-07
2.58095e-09
-2.0036e-07
4.12859e-10
-2.0068e-07
-1.65565e-09
-2.00728e-07
-3.57216e-09
-2.00354e-07
-4.65134e-09
-1.99946e-07
-4.56444e-09
-1.99916e-07
-1.98905e-07
1.09087e-09
1.13369e-09
8.87998e-10
5.28274e-10
-1.52011e-10
-8.7969e-10
-1.23351e-09
-1.17947e-09
-1.0953e-09
-2.55561e-08
-1.97376e-07
2.22932e-07
-2.82099e-08
-1.9881e-07
2.01464e-07
-2.39596e-08
-2.01276e-07
1.97026e-07
-1.40113e-08
-2.00324e-07
1.90376e-07
-1.02206e-09
-2.0162e-07
1.8863e-07
1.21942e-08
-2.01702e-07
1.88486e-07
2.32179e-08
-2.01162e-07
1.90139e-07
2.81071e-08
-2.01956e-07
1.97067e-07
2.5564e-08
-1.9865e-07
2.01193e-07
-1.97123e-07
2.22687e-07
-1.00982e-08
-1.87278e-07
-1.55171e-08
-1.93391e-07
-1.4133e-08
-2.0266e-07
-5.75575e-09
-2.08701e-07
1.44265e-09
-2.08818e-07
8.26879e-09
-2.08528e-07
1.53669e-08
-2.08261e-07
1.56847e-08
-2.02274e-07
1.00744e-08
-1.9304e-07
-1.87049e-07
-1.10745e-08
-1.76204e-07
-8.95768e-09
-1.95508e-07
-6.30291e-09
-2.05315e-07
-4.30027e-09
-2.10704e-07
-3.55175e-10
-2.12763e-07
3.30873e-09
-2.12192e-07
5.34789e-09
-2.103e-07
8.41251e-09
-2.05338e-07
1.08261e-08
-1.95454e-07
-1.76223e-07
-7.10217e-09
-1.69102e-07
-9.45868e-09
-1.93151e-07
-9.16068e-09
-2.05613e-07
-4.83543e-09
-2.15029e-07
-8.49262e-10
-2.16749e-07
3.75761e-09
-2.16799e-07
8.92462e-09
-2.15467e-07
9.21419e-09
-2.05628e-07
6.98867e-09
-1.93228e-07
-1.69234e-07
-1.66354e-08
-1.51394e-08
-1.15531e-08
-7.29691e-09
-4.71876e-10
7.03417e-09
1.15772e-08
1.51599e-08
1.66892e-08
3.2633e-08
-1.5742e-07
1.24787e-07
3.67842e-08
-1.99068e-07
1.94917e-07
2.76471e-08
-2.10557e-07
2.19694e-07
1.47846e-08
-2.15438e-07
2.28301e-07
5.51257e-11
-2.17254e-07
2.31983e-07
-1.53443e-08
-2.17625e-07
2.33024e-07
-2.87116e-08
-2.1504e-07
2.28407e-07
-3.75159e-08
-2.10571e-07
2.19376e-07
-3.29225e-08
-1.99378e-07
1.94785e-07
-1.57649e-07
1.24727e-07
1.65616e-08
-1.73981e-07
1.90212e-08
-2.01528e-07
1.56665e-08
-2.07202e-07
9.01675e-09
-2.08788e-07
-3.45701e-10
-2.07891e-07
-9.2868e-09
-2.08684e-07
-1.53398e-08
-2.08987e-07
-1.87162e-08
-2.07195e-07
-1.64532e-08
-2.01641e-07
-1.74102e-07
1.05647e-08
-1.84546e-07
9.91774e-09
-2.00881e-07
8.14714e-09
-2.05431e-07
4.11418e-09
-2.04755e-07
1.02017e-09
-2.04797e-07
-2.72234e-09
-2.04941e-07
-7.65622e-09
-2.04053e-07
-9.61249e-09
-2.05239e-07
-1.03959e-08
-2.00858e-07
-1.84498e-07
7.79331e-09
-1.92339e-07
6.60434e-09
-1.99692e-07
6.71115e-09
-2.05538e-07
1.8784e-09
-1.99923e-07
-3.01085e-10
-2.02618e-07
-2.4753e-09
-2.02767e-07
-6.6944e-09
-1.99834e-07
-6.39781e-09
-2.05535e-07
-7.70031e-09
-1.99555e-07
-1.92199e-07
3.0593e-08
3.23652e-08
2.38533e-08
1.43063e-08
3.18581e-10
-1.39631e-08
-2.36583e-08
-3.2127e-08
-3.04888e-08
-6.14004e-07
-5.42935e-07
1.15694e-06
-7.65542e-08
-5.3745e-07
4.0111e-07
-4.77664e-07
8.15931e-07
-4.1482e-07
1.10792e-06
-2.91986e-07
1.30423e-06
-1.96309e-07
1.4349e-06
-1.30676e-07
1.5282e-06
-9.32937e-08
1.63105e-06
-1.02854e-07
-8.62612e-08
1.71731e-06
-1.03855e-06
-9.08474e-07
1.40409e-06
-6.59981e-07
-9.16017e-07
-2.45788e-07
-8.91856e-07
1.36438e-07
-7.97046e-07
2.85802e-07
-4.4135e-07
3.33105e-07
-2.43612e-07
3.54606e-07
-1.52177e-07
4.02174e-07
-1.40861e-07
4.65741e-07
-1.66421e-07
-1.64255e-07
5.43735e-07
-1.11867e-06
-8.99007e-07
1.1092e-06
-9.71148e-07
-1.06353e-06
-8.02424e-07
-1.06058e-06
-5.89653e-07
-1.00982e-06
-3.65459e-07
-6.65545e-07
-2.14634e-07
-3.94438e-07
-1.26496e-07
-2.40314e-07
-6.7782e-08
-1.99575e-07
-3.1663e-08
-2.0254e-07
-1.89872e-07
-6.04612e-09
-9.79767e-07
-6.79023e-07
7.59784e-07
-1.02264e-06
-1.02067e-06
-1.01909e-06
-1.06412e-06
-8.99553e-07
-1.12936e-06
-5.57591e-07
-1.00751e-06
-2.22214e-07
-7.29814e-07
-1.00381e-07
-3.62147e-07
-8.77187e-08
-2.12238e-07
-7.89089e-08
-2.1135e-07
-1.73833e-07
-9.49479e-08
-9.34795e-07
-4.08131e-07
6.63902e-07
-1.07132e-06
-8.8414e-07
-1.07415e-06
-1.06129e-06
-1.0467e-06
-1.15681e-06
-8.35397e-07
-1.21881e-06
-4.0757e-07
-1.15764e-06
-6.07779e-08
-7.0894e-07
-1.07534e-07
-1.65482e-07
-1.05586e-07
-2.13299e-07
-1.97172e-07
-8.22462e-08
-6.60551e-07
-1.36274e-07
3.88694e-07
-1.0752e-06
-4.69495e-07
-1.17739e-06
-9.59095e-07
-1.10168e-06
-1.23252e-06
-1.01773e-06
-1.30276e-06
-8.08064e-07
-1.3673e-06
-2.96855e-07
-1.22015e-06
-1.05331e-07
-3.57005e-07
-6.61067e-08
-2.52524e-07
-2.33555e-07
-2.97237e-08
-5.88782e-08
1.73357e-08
-9.47317e-08
-5.26904e-07
-1.46916e-09
-9.09866e-07
-5.76133e-07
-9.76011e-07
-1.16638e-06
-9.4384e-07
-1.33493e-06
-9.0366e-07
-1.40748e-06
-7.12236e-07
-1.41157e-06
-2.85883e-07
-7.83357e-07
-1.04492e-07
-4.33915e-07
-2.56208e-07
-8.18387e-08
2.72431e-07
-3.89208e-08
-2.16174e-07
2.64678e-07
6.28385e-09
-9.8928e-08
-2.12527e-07
-5.04679e-07
-7.60628e-07
-7.35913e-07
-1.10369e-06
-8.14124e-07
-1.32927e-06
-7.40623e-07
-1.48507e-06
-4.39816e-07
-1.08416e-06
-2.20082e-07
-6.53648e-07
-2.8501e-07
-1.9128e-07
3.36597e-07
-9.47285e-08
-2.80789e-07
3.70233e-07
-2.73528e-08
2.07009e-07
-4.93024e-08
-2.45204e-07
-3.08415e-07
-6.01845e-07
-7.47052e-07
-7.93058e-07
-1.13806e-06
-8.36436e-07
-1.4417e-06
-6.01052e-07
-1.31955e-06
-3.13724e-07
-9.40976e-07
-4.06541e-07
-1.92193e-07
1.98459e-07
-1.59201e-07
-1.33987e-07
2.45871e-07
-7.47656e-08
2.39771e-07
-4.32016e-08
1.21555e-07
-1.90198e-07
-1.33504e-07
-4.91993e-07
-3.56731e-07
-9.14833e-07
-3.58446e-07
-1.43998e-06
-2.55709e-07
-1.42229e-06
-3.75226e-08
-1.15916e-06
-4.78069e-07
3.40053e-08
2.70679e-07
-1.57075e-07
-2.72804e-07
3.03715e-07
-1.07802e-07
3.14337e-07
-5.3824e-08
2.44045e-07
-1.19906e-07
8.11423e-08
-3.2909e-07
-3.18566e-08
-8.01834e-07
-1.68967e-08
-1.45494e-06
3.97443e-08
-1.47893e-06
1.40365e-07
-1.25978e-06
-5.29759e-07
1.92054e-07
3.15136e-07
-2.27391e-07
-2.44821e-07
4.57807e-07
-2.50472e-07
4.70375e-07
-6.63916e-08
4.21554e-07
-7.10858e-08
2.08457e-07
-1.15993e-07
1.15064e-07
-7.08441e-07
1.28087e-07
-1.46796e-06
1.81468e-07
-1.53231e-06
2.15749e-07
-1.29406e-06
-5.22088e-07
2.08078e-07
2.75374e-07
-1.89292e-07
-3.13473e-07
2.11214e-07
-1.86313e-07
2.43611e-07
-9.87887e-08
2.26449e-07
-5.39241e-08
1.60022e-07
-4.95659e-08
1.5789e-07
-7.06309e-07
1.55385e-07
-1.46546e-06
1.88114e-07
-1.56504e-06
2.07853e-07
-1.3138e-06
-4.61167e-07
1.46932e-07
4.34933e-07
-2.03026e-08
-6.03922e-07
2.86342e-07
-3.77253e-08
2.27137e-07
-3.95837e-08
1.80847e-07
-7.63394e-09
1.46392e-07
-1.51106e-08
1.5692e-07
-7.16836e-07
1.56443e-07
-1.46498e-06
1.8279e-07
-1.59138e-06
1.40342e-07
-1.27136e-06
-3.81024e-07
6.01994e-08
4.0267e-07
3.54792e-08
-4.58453e-07
3.47607e-07
1.73393e-08
3.20316e-07
-1.22923e-08
2.60618e-07
5.2064e-08
2.12551e-07
3.29559e-08
2.13443e-07
-7.17729e-07
2.01695e-07
-1.45323e-06
2.15884e-07
-1.60557e-06
1.56962e-07
-1.21243e-06
-2.34724e-07
1.06619e-08
2.28362e-07
1.09717e-08
-2.03854e-07
2.34331e-07
1.13707e-08
2.05493e-07
1.65452e-08
1.82049e-07
7.55082e-08
1.86122e-07
2.88827e-08
2.54314e-07
-7.8592e-07
2.59061e-07
-1.45798e-06
2.17337e-07
-1.56385e-06
9.64258e-08
-1.09152e-06
-8.58953e-08
-5.24025e-08
1.77406e-07
-3.74114e-08
-1.29023e-07
2.06127e-07
-1.7351e-08
1.54701e-07
6.79715e-08
1.79027e-07
5.11818e-08
1.94526e-07
1.33836e-08
2.82319e-07
-8.73712e-07
2.97055e-07
-1.47272e-06
2.8691e-07
-1.5537e-06
1.38815e-07
-9.43427e-07
9.95156e-09
4.29685e-08
5.17148e-08
-3.07651e-08
-5.83611e-08
9.27342e-08
-5.83705e-08
1.80847e-07
-2.01408e-08
1.70916e-07
6.11123e-08
1.3479e-07
4.95093e-08
2.28521e-07
-9.67442e-07
2.62163e-07
-1.50636e-06
2.93266e-07
-1.58481e-06
7.22949e-08
-7.22456e-07
1.51301e-07
-6.9054e-08
5.5862e-08
4.31757e-08
-1.29803e-07
7.23125e-08
-7.48207e-08
1.31746e-07
-7.95741e-08
1.52602e-07
4.02562e-08
2.65323e-07
-6.32115e-08
3.09163e-07
-1.01128e-06
2.92285e-07
-1.48948e-06
2.06161e-07
-1.49868e-06
9.14334e-08
-6.07728e-07
3.15038e-07
-7.23035e-08
3.3128e-07
1.29853e-07
-4.17957e-07
2.35683e-07
2.07768e-08
1.93181e-07
-3.70719e-08
2.65042e-07
-3.16046e-08
4.50498e-07
-2.48668e-07
5.45663e-07
-1.10645e-06
6.11964e-07
-1.55578e-06
7.20937e-07
-1.60766e-06
7.85006e-07
-6.71797e-07
7.67522e-07
3.32522e-07
4.24694e-07
1.6901e-07
-4.63851e-07
3.55411e-07
9.00599e-08
2.66662e-07
5.16775e-08
2.16501e-07
1.85562e-08
4.28332e-07
-4.60499e-07
6.55045e-07
-1.33316e-06
7.22402e-07
-1.62314e-06
7.81851e-07
-1.66711e-06
1.04012e-06
-9.30067e-07
8.95205e-07
9.12438e-07
3.4392e-07
1.791e-07
-3.54009e-07
2.64884e-07
1.69096e-07
2.0201e-07
1.14552e-07
1.39912e-07
8.06542e-08
4.69652e-07
-7.90239e-07
6.32996e-07
-1.4965e-06
6.78643e-07
-1.66879e-06
6.93101e-07
-1.68156e-06
1.00795e-06
-1.24492e-06
7.45164e-07
1.15799e-06
1.82573e-07
2.0748e-07
-2.10954e-07
1.62063e-07
1.89606e-07
9.22997e-08
1.84316e-07
4.4971e-08
1.27983e-07
3.93046e-07
-1.13831e-06
5.04621e-07
-1.60808e-06
5.40097e-07
-1.70426e-06
5.41055e-07
-1.68252e-06
2.50488e-07
-9.5435e-07
7.0936e-07
2.86294e-07
9.39818e-08
2.06845e-07
-9.33462e-08
1.16651e-07
1.66937e-07
1.09944e-07
1.91023e-07
8.49399e-08
1.52987e-07
3.51876e-07
-1.40525e-06
4.32521e-07
-1.68873e-06
4.54664e-07
-1.72641e-06
3.95055e-07
-1.62291e-06
-1.63541e-07
-3.95755e-07
6.78871e-07
-1.33049e-07
1.35485e-07
1.88281e-07
-1.1692e-07
1.34568e-07
1.67854e-07
1.40803e-07
1.84787e-07
7.67874e-08
2.17003e-07
2.44699e-07
-1.57316e-06
2.70929e-07
-1.71496e-06
2.76863e-07
-1.73234e-06
-9.2622e-08
-1.25343e-06
-4.26192e-07
-6.21839e-08
4.73896e-07
-2.21216e-07
1.80784e-07
1.11912e-07
-1.04416e-07
2.12427e-07
1.36211e-07
1.50192e-07
2.47023e-07
3.43303e-08
3.32864e-07
1.12394e-07
-1.65122e-06
1.07759e-07
-1.71032e-06
9.6848e-08
-1.72143e-06
-3.9142e-07
-7.65156e-07
-4.95698e-07
4.20963e-08
2.79849e-07
-3.01652e-07
9.93042e-08
6.05088e-08
-4.79012e-08
9.8184e-08
1.37331e-07
7.34901e-09
3.37858e-07
-6.1112e-09
3.46324e-07
4.50036e-08
-1.70234e-06
5.49153e-08
-1.72023e-06
-1.5878e-08
-1.65064e-06
-2.70874e-07
-5.10156e-07
-2.80493e-07
5.17166e-08
2.45538e-07
-2.4618e-07
-3.88289e-07
-1.89192e-07
6.37988e-07
-3.39229e-07
8.82707e-08
-4.16266e-07
4.14896e-07
3.57205e-08
-1.05663e-07
8.15465e-10
-1.66743e-06
-4.44569e-08
-1.67496e-06
-1.41312e-07
-1.55378e-06
-1.76e-07
-4.75465e-07
-1.88753e-07
6.44725e-08
1.80241e-07
-1.23458e-07
-1.27996e-06
-1.54291e-08
1.1062e-06
-1.34011e-06
1.48428e-07
-1.02553e-06
1.00315e-07
1.67435e-08
-1.14793e-06
2.23068e-09
-1.65292e-06
-2.22448e-08
-1.65049e-06
-6.30437e-08
-1.51298e-06
-3.07611e-08
-5.07747e-07
-2.17108e-09
3.5884e-08
1.68606e-07
9.46407e-09
-3.75787e-07
1.92094e-07
1.68264e-07
-3.40758e-07
1.13404e-07
-1.76732e-07
-6.37107e-08
1.48564e-08
-1.33952e-06
1.10318e-09
-1.63917e-06
-1.5482e-08
-1.6339e-06
-3.04299e-08
-1.49804e-06
1.76273e-08
-5.55804e-07
1.48043e-07
-9.453e-08
1.27587e-07
1.89064e-07
2.94942e-07
1.60422e-07
-2.63267e-07
1.97421e-07
2.10921e-07
4.84382e-08
8.52747e-08
2.3582e-08
-1.31467e-06
2.27377e-09
-1.61786e-06
-1.47294e-08
-1.6169e-06
-2.35585e-08
-1.4892e-06
1.57817e-08
-5.95145e-07
1.26305e-07
-2.05051e-07
3.05084e-08
2.23387e-07
1.90526e-07
1.98662e-07
-2.28765e-07
-9.62183e-09
4.1107e-07
5.31415e-08
2.25131e-08
2.61519e-08
-1.28768e-06
7.89451e-09
-1.5996e-06
-9.33472e-09
-1.59967e-06
-2.30879e-08
-1.47545e-06
-9.89887e-10
-6.17243e-07
6.78858e-08
-2.73927e-07
-6.83558e-08
1.66752e-07
-3.13317e-07
3.99847e-07
1.12132e-07
-3.6263e-07
4.60383e-07
-3.61454e-09
-3.36502e-07
2.1148e-08
-1.31244e-06
3.42816e-09
-1.58188e-06
-1.45763e-08
-1.58166e-06
-2.41699e-08
-1.46585e-06
5.07414e-10
-6.4192e-07
6.64864e-08
-3.39906e-07
-1.30662e-07
1.28793e-07
-7.24287e-07
4.32207e-07
6.91928e-07
-3.1817e-07
5.42634e-08
-6.53268e-08
-5.89341e-07
1.68714e-08
-1.39463e-06
2.04322e-09
-1.56705e-06
-1.25539e-08
-1.56707e-06
-1.12794e-08
-1.46713e-06
4.84513e-09
-6.58042e-07
9.95477e-08
-4.34607e-07
-2.04029e-07
1.72915e-07
-4.63502e-07
1.12475e-07
7.83234e-07
-8.65396e-08
-3.22708e-07
-6.64874e-08
-6.09392e-07
1.19811e-08
-1.4731e-06
4.8305e-10
-1.55556e-06
-1.08245e-08
-1.55576e-06
-6.35515e-09
-1.4716e-06
-3.44628e-08
-6.29934e-07
6.64012e-08
-5.35472e-07
-3.36794e-07
1.99166e-07
-1.04815e-07
-1.88489e-07
4.05778e-07
-5.14672e-08
-3.76065e-07
-3.38265e-08
-6.27032e-07
5.09685e-09
-1.51203e-06
-1.37302e-09
-1.54909e-06
-1.31556e-08
-1.54398e-06
2.13954e-08
-1.50615e-06
-1.33351e-08
-5.95204e-07
3.10026e-08
-5.79807e-07
-4.70493e-07
1.64702e-07
1.31274e-08
-2.56983e-07
5.5365e-08
-5.23821e-09
-3.57696e-07
3.04044e-08
-6.62668e-07
3.19141e-08
-1.51353e-06
2.27097e-08
-1.53988e-06
1.79233e-08
-1.53919e-06
2.31899e-08
-1.51142e-06
5.44591e-08
-6.26473e-07
4.05097e-08
-5.65855e-07
-5.25605e-07
9.56236e-08
-6.53986e-08
-3.18243e-07
1.26658e-07
-2.71896e-08
-3.95912e-07
4.07183e-08
-7.30579e-07
3.25071e-08
-1.50533e-06
1.9897e-08
-1.52727e-06
1.63906e-08
-1.53568e-06
1.39405e-08
-1.50897e-06
9.44456e-08
-7.06978e-07
8.20297e-08
-5.5344e-07
-4.67557e-07
2.39824e-08
-2.36593e-07
-4.55059e-07
3.73411e-07
-9.53238e-08
-5.37181e-07
1.24938e-08
-8.38396e-07
6.66543e-09
-1.4995e-06
-2.4629e-09
-1.51814e-06
-1.45647e-08
-1.52358e-06
-2.52896e-08
-1.49824e-06
2.30026e-08
-7.55269e-07
-6.35887e-09
-5.24077e-07
-4.03573e-07
-7.03415e-08
-2.42396e-07
-6.18987e-07
4.06324e-07
-8.98624e-08
-6.89716e-07
-1.69616e-08
-9.11301e-07
-2.83159e-08
-1.48814e-06
-3.56003e-08
-1.51086e-06
-4.88837e-08
-1.5103e-06
-5.53662e-08
-1.49176e-06
-4.16578e-08
-7.68978e-07
-8.19773e-08
-4.83756e-07
-3.74842e-07
-1.10705e-07
-1.95731e-07
-7.38658e-07
3.15403e-07
-9.85389e-08
-7.86903e-07
-3.15605e-08
-9.78276e-07
-4.18523e-08
-1.47785e-06
-4.62965e-08
-1.50641e-06
-5.97937e-08
-1.4968e-06
-6.74766e-08
-1.48408e-06
-6.31689e-08
-7.73281e-07
-7.99328e-08
-4.66992e-07
-3.63025e-07
-9.17503e-08
-1.80395e-07
-8.19589e-07
2.61326e-07
-9.18989e-08
-8.75401e-07
-4.2665e-09
-1.06591e-06
-9.47263e-09
-1.47265e-06
-2.17983e-08
-1.49409e-06
-3.13528e-08
-1.48725e-06
-4.01527e-08
-1.47528e-06
-4.7404e-08
-7.66027e-07
-5.73977e-08
-4.56999e-07
-3.61685e-07
-5.87363e-08
-1.15925e-07
-8.85816e-07
1.82153e-07
-3.37164e-08
-9.57608e-07
2.99298e-08
-1.12955e-06
2.57406e-08
-1.46846e-06
7.91582e-09
-1.47626e-06
6.47772e-09
-1.48581e-06
-6.68641e-09
-1.46211e-06
-3.05809e-08
-7.42132e-07
-4.70895e-08
-4.4049e-07
-3.57615e-07
-5.11582e-08
-5.66921e-08
-9.18755e-07
8.96302e-08
-2.01015e-08
-9.94208e-07
-1.89754e-09
-1.14776e-06
-1.25081e-08
-1.45784e-06
-1.49701e-08
-1.4738e-06
-3.6585e-08
-1.46419e-06
-4.46341e-08
-1.45406e-06
-5.43813e-08
-7.32383e-07
-6.09449e-08
-4.33928e-07
-3.54059e-07
-6.44981e-08
2.68038e-09
-9.36075e-07
1.46392e-08
2.65026e-08
-1.01803e-06
5.22844e-08
-1.17355e-06
4.92858e-08
-1.45485e-06
2.94954e-08
-1.45401e-06
2.48511e-08
-1.45955e-06
5.686e-09
-1.4349e-06
-3.64374e-08
-6.9026e-07
-6.18815e-08
-4.08483e-07
-3.37432e-07
-7.85085e-08
2.45768e-08
-9.40471e-07
-2.018e-08
3.67861e-08
-1.03023e-06
4.02026e-08
-1.17696e-06
1.52313e-08
-1.42988e-06
3.16964e-09
-1.44195e-06
-1.39563e-08
-1.44242e-06
-3.90039e-08
-1.40985e-06
-6.0372e-08
-6.68889e-07
-7.75855e-08
-3.91267e-07
-3.22356e-07
-9.26581e-08
3.08452e-08
-9.32439e-07
-3.88776e-08
3.73697e-08
-1.03677e-06
3.31171e-08
-1.17271e-06
1.05121e-08
-1.40727e-06
-6.29631e-09
-1.42514e-06
-2.42847e-08
-1.42443e-06
-3.68029e-08
-1.39734e-06
-6.20606e-08
-6.43631e-07
-7.72842e-08
-3.76041e-07
-3.12919e-07
-8.67209e-08
3.97441e-08
-9.21943e-07
-5.02435e-08
3.82999e-08
-1.03533e-06
2.50604e-08
-1.15947e-06
3.17325e-09
-1.38538e-06
-1.45264e-08
-1.40744e-06
-3.10624e-08
-1.4079e-06
-3.64504e-08
-1.39195e-06
-6.80606e-08
-6.12019e-07
-7.72001e-08
-3.669e-07
-3.16319e-07
-7.37995e-08
5.05431e-08
-9.16197e-07
-5.62898e-08
4.72131e-08
-1.032e-06
3.78033e-08
-1.15006e-06
4.28965e-09
-1.35187e-06
-8.78105e-09
-1.39437e-06
-2.56436e-08
-1.39104e-06
-6.12185e-08
-1.35637e-06
-8.90062e-08
-5.84226e-07
-8.73938e-08
-3.68511e-07
-3.28169e-07
-7.55416e-08
5.56409e-08
-9.1386e-07
-5.7978e-08
5.05344e-08
-1.0269e-06
4.92557e-08
-1.14878e-06
2.73134e-08
-1.32992e-06
6.5435e-09
-1.37361e-06
-8.28161e-09
-1.37621e-06
-5.33066e-08
-1.31135e-06
-8.78542e-08
-5.49675e-07
-9.93776e-08
-3.56984e-07
-3.24873e-07
-1.02673e-07
4.95235e-08
-9.09942e-07
-5.34436e-08
3.74322e-08
-1.01482e-06
3.09335e-08
-1.14228e-06
1.35685e-08
-1.31256e-06
-1.0876e-09
-1.35895e-06
-1.85395e-08
-1.35876e-06
-3.57908e-08
-1.2941e-06
-7.24719e-08
-5.12992e-07
-9.59791e-08
-3.33477e-07
-3.13222e-07
-1.07629e-07
4.21835e-08
-9.03413e-07
-4.87143e-08
2.8701e-08
-1.00134e-06
2.07015e-08
-1.13428e-06
1.5854e-08
-1.30771e-06
1.63447e-09
-1.34473e-06
-1.1542e-08
-1.34558e-06
-2.036e-08
-1.28528e-06
-5.74522e-08
-4.75898e-07
-9.27205e-08
-2.98207e-07
-2.90598e-07
-1.15342e-07
4.18394e-08
-8.94374e-07
-5.08777e-08
2.65956e-08
-9.86098e-07
1.49903e-08
-1.12268e-06
1.42326e-08
-1.30695e-06
5.58212e-10
-1.33106e-06
-1.3771e-08
-1.33125e-06
-1.73601e-08
-1.28169e-06
-5.94955e-08
-4.33762e-07
-1.12273e-07
-2.45428e-07
-2.5213e-07
-1.50741e-07
4.38572e-08
-8.79445e-07
-5.87859e-08
2.27229e-08
-9.64963e-07
8.70031e-09
-1.10866e-06
1.65073e-08
-1.31476e-06
1.68826e-09
-1.31624e-06
-1.26871e-08
-1.31688e-06
-9.44743e-09
-1.28493e-06
-6.38947e-08
-3.79313e-07
-1.57379e-07
-1.51942e-07
-1.70974e-07
-2.38536e-07
4.59025e-08
-8.59408e-07
-6.59405e-08
2.53531e-08
-9.44414e-07
1.31512e-08
-1.09646e-06
1.43944e-08
-1.316e-06
4.21416e-10
-1.30226e-06
-1.32267e-08
-1.30323e-06
-1.15174e-08
-1.28664e-06
-6.08693e-08
-3.2996e-07
-2.0086e-07
-1.19492e-08
-6.28633e-08
-3.08971e-07
7.38362e-08
-8.39489e-07
-9.37554e-08
4.81169e-08
-9.18694e-07
2.35394e-08
-1.07188e-06
1.42597e-08
-1.30672e-06
8.16974e-10
-1.28882e-06
-1.30648e-08
-1.28935e-06
-1.77473e-08
-1.28195e-06
-2.30198e-08
-3.24687e-07
-1.47932e-07
1.12963e-07
1.00185e-07
-3.10979e-07
1.00187e-07
-8.11723e-07
-1.27953e-07
6.70936e-08
-8.85594e-07
3.40868e-08
-1.03887e-06
1.44131e-08
-1.28705e-06
4.15192e-10
-1.27482e-06
-1.36603e-08
-1.27527e-06
-2.45936e-08
-1.27102e-06
3.34413e-08
-3.82723e-07
-1.66051e-09
1.48066e-07
2.37274e-07
-1.38749e-07
1.10455e-07
-7.6961e-07
-1.52569e-07
6.25737e-08
-8.37715e-07
3.01022e-08
-1.0064e-06
1.37817e-08
-1.27073e-06
-2.67716e-10
-1.26077e-06
-1.38001e-08
-1.26174e-06
-2.55298e-08
-1.25929e-06
5.91402e-08
-4.67392e-07
8.08174e-08
1.26389e-07
2.70795e-07
4.72953e-08
1.29534e-07
-7.13076e-07
-1.86069e-07
7.12697e-08
-7.79461e-07
2.98459e-08
-9.64978e-07
1.40262e-08
-1.25491e-06
-1.49375e-10
-1.2466e-06
-1.45797e-08
-1.24731e-06
-2.68867e-08
-1.24698e-06
2.82132e-08
-5.22491e-07
4.34658e-08
1.11135e-07
2.91969e-07
2.22904e-08
1.54161e-07
-6.43787e-07
-2.23451e-07
8.65514e-08
-7.11851e-07
3.08312e-08
-9.09253e-07
1.52025e-08
-1.23928e-06
2.86025e-11
-1.23142e-06
-1.54109e-08
-1.23187e-06
-2.91406e-08
-1.23325e-06
5.56627e-09
-5.57199e-07
3.60946e-08
8.0605e-08
2.97823e-07
3.02412e-08
1.69224e-07
-5.61667e-07
-2.51346e-07
9.33273e-08
-6.35965e-07
3.09369e-08
-8.46866e-07
1.51035e-08
-1.22345e-06
-2.24504e-10
-1.2161e-06
-1.50423e-08
-1.21705e-06
-2.83849e-08
-1.21991e-06
5.92178e-09
-5.91506e-07
4.58576e-08
4.06684e-08
2.91881e-07
5.17998e-08
1.78097e-07
-4.72696e-07
-2.67066e-07
8.98725e-08
-5.47733e-07
3.1319e-08
-7.88314e-07
1.56388e-08
-1.20777e-06
1.70254e-10
-1.20063e-06
-1.62135e-08
-1.20067e-06
-2.97982e-08
-1.20633e-06
-2.12711e-08
-6.00032e-07
-1.89119e-08
3.83084e-08
2.74814e-07
-1.84612e-09
1.79872e-07
-3.78759e-07
-2.73808e-07
9.12403e-08
-4.59087e-07
3.20229e-08
-7.29092e-07
1.58109e-08
-1.19155e-06
-9.11666e-10
-1.18391e-06
-1.74256e-08
-1.18415e-06
-3.30829e-08
-1.19067e-06
-2.91277e-08
-6.03988e-07
-5.6076e-09
1.47892e-08
2.66331e-07
2.87577e-09
1.64645e-07
-2.8849e-07
-2.54914e-07
8.26263e-08
-3.77068e-07
3.26291e-08
-6.79097e-07
1.66564e-08
-1.17558e-06
5.54255e-10
-1.1678e-06
-1.62433e-08
-1.16736e-06
-3.12425e-08
-1.17567e-06
-3.2375e-08
-6.02856e-07
3.13998e-08
-4.89846e-08
2.30145e-07
6.75864e-08
1.44026e-07
-2.04613e-07
-2.27902e-07
7.43325e-08
-3.07374e-07
3.43024e-08
-6.39066e-07
1.88041e-08
-1.16009e-06
8.79334e-10
-1.14988e-06
-1.61964e-08
-1.15028e-06
-3.17284e-08
-1.16014e-06
-3.65097e-08
-5.98074e-07
5.4292e-08
-1.39785e-07
1.39267e-07
1.45171e-07
1.26896e-07
-1.3294e-07
-1.98569e-07
6.32374e-08
-2.43724e-07
3.2943e-08
-6.0877e-07
1.73793e-08
-1.14452e-06
4.35538e-10
-1.13293e-06
-1.706e-08
-1.13278e-06
-3.1697e-08
-1.1455e-06
-2.19743e-08
-6.07795e-07
3.02412e-08
-1.91999e-07
4.29159e-08
1.26593e-07
1.22432e-07
-6.72353e-08
-1.88138e-07
6.09042e-08
-1.82202e-07
3.41727e-08
-5.82041e-07
1.81524e-08
-1.1285e-06
2.01192e-10
-1.11498e-06
-1.80422e-08
-1.11454e-06
-3.32369e-08
-1.13031e-06
-1.94972e-08
-6.21535e-07
-2.4177e-08
-1.87317e-07
-1.15372e-09
1.98937e-08
7.70024e-08
-1.45935e-08
-1.29643e-07
3.521e-08
-1.404e-07
3.38612e-08
-5.80691e-07
1.80258e-08
-1.11266e-06
3.7854e-10
-1.09734e-06
-1.64705e-08
-1.09769e-06
-3.02935e-08
-1.11648e-06
-1.27005e-08
-6.39128e-07
-2.72294e-08
-1.72786e-07
-7.87691e-08
5.03873e-08
6.10046e-08
3.17254e-08
-1.07323e-07
2.88352e-08
-1.08227e-07
3.4955e-08
-5.86808e-07
1.88221e-08
-1.09653e-06
5.43314e-10
-1.07906e-06
-1.8532e-08
-1.07862e-06
-3.72245e-08
-1.09779e-06
-3.13372e-08
-6.45014e-07
-3.56654e-08
-1.68456e-07
-1.89372e-07
7.4938e-08
5.44272e-08
6.88693e-08
-9.15721e-08
2.62774e-08
-8.00826e-08
3.44113e-08
-5.94943e-07
1.75798e-08
-1.0797e-06
-3.44351e-10
-1.06113e-06
-1.75489e-08
-1.06141e-06
-3.42845e-08
-1.08106e-06
3.62348e-08
-7.15532e-07
1.22241e-07
-2.54462e-07
-2.18513e-07
1.51383e-07
4.38496e-08
9.07541e-08
-6.57339e-08
2.96937e-08
-6.59266e-08
3.57655e-08
-6.01015e-07
1.83486e-08
-1.06228e-06
2.2609e-10
-1.04301e-06
-1.82473e-08
-1.04294e-06
-3.42057e-08
-1.0651e-06
-6.56931e-09
-7.43167e-07
7.30269e-08
-3.34057e-07
-2.03975e-07
5.84892e-08
3.27638e-08
9.63093e-08
-3.83179e-08
2.71412e-08
-6.03007e-08
3.52499e-08
-6.09122e-07
1.79747e-08
-1.04501e-06
7.37618e-11
-1.02511e-06
-1.75092e-08
-1.02536e-06
-3.55329e-08
-1.04707e-06
-6.47825e-08
-7.13917e-07
-9.11541e-08
-3.07685e-07
-1.07948e-07
-1.87181e-07
5.79709e-08
9.46041e-08
-5.62657e-08
3.79923e-08
-4.03226e-08
3.73964e-08
-6.08525e-07
1.90548e-08
-1.02666e-06
2.3632e-10
-1.00629e-06
-1.85625e-08
-1.00656e-06
-3.7327e-08
-1.02831e-06
-1.39014e-07
-6.1223e-07
-2.54019e-07
-1.9268e-07
-3.16063e-08
-3.30362e-07
5.38761e-08
9.81352e-08
-5.74075e-08
4.05271e-08
-2.69738e-08
3.71085e-08
-6.05106e-07
1.83925e-08
-1.00795e-06
1.5082e-10
-9.8805e-07
-1.79882e-08
-9.88419e-07
-3.79406e-08
-1.00836e-06
-1.40512e-07
-5.09659e-07
-2.7454e-07
-5.8652e-08
1.04394e-09
-3.0719e-07
5.42893e-08
1.08089e-07
-6.42425e-08
4.15391e-08
-1.42214e-08
3.85833e-08
-6.0215e-07
1.97644e-08
-9.89129e-07
2.16693e-10
-9.68502e-07
-1.93956e-08
-9.68806e-07
-3.88959e-08
-9.88856e-07
-6.37971e-08
-4.84758e-07
-1.45424e-07
2.29749e-08
2.40224e-08
-1.68402e-07
6.14056e-08
1.27704e-07
-8.102e-08
4.6801e-08
3.85198e-10
3.84909e-08
-5.9384e-07
1.93347e-08
-9.69973e-07
-1.13466e-11
-9.49156e-07
-1.91068e-08
-9.49711e-07
-3.83624e-08
-9.696e-07
-4.20459e-08
-4.81075e-07
-1.28613e-07
1.09542e-07
7.35474e-08
-1.78138e-07
6.99881e-08
1.49099e-07
-9.13829e-08
5.13336e-08
1.90404e-08
4.03906e-08
-5.82897e-07
2.06462e-08
-9.50229e-07
1.61548e-10
-9.28672e-07
-2.06092e-08
-9.2894e-07
-3.97746e-08
-9.50435e-07
-3.59065e-08
-4.84942e-07
-1.28658e-07
2.02295e-07
1.53724e-07
-2.08835e-07
7.55514e-08
1.66528e-07
-9.29798e-08
5.40439e-08
4.05475e-08
4.04896e-08
-5.69343e-07
2.05478e-08
-9.30287e-07
-3.48319e-11
-9.08089e-07
-2.0575e-08
-9.084e-07
-4.04221e-08
-9.30588e-07
-4.87692e-08
-4.76594e-07
-1.76295e-07
3.29821e-07
2.42902e-07
-2.65472e-07
8.0274e-08
1.84267e-07
-9.80135e-08
5.27462e-08
6.80742e-08
4.23225e-08
-5.5892e-07
2.16469e-08
-9.09612e-07
8.2582e-11
-8.86525e-07
-2.17464e-08
-8.86571e-07
-4.22848e-08
-9.10049e-07
-2.48073e-08
-4.94072e-07
-1.22835e-07
4.27849e-07
3.80764e-07
-2.60698e-07
9.0897e-08
2.16494e-07
-1.23124e-07
6.13781e-08
9.75904e-08
4.33013e-08
-5.40843e-07
2.20101e-08
-8.8832e-07
7.20932e-11
-8.64587e-07
-2.19786e-08
-8.6452e-07
-4.2746e-08
-8.89282e-07
-2.41754e-08
-5.12643e-07
-1.01288e-07
5.04961e-07
5.00131e-07
-2.20655e-07
6.35019e-08
2.32563e-07
-7.95712e-08
4.33253e-08
1.17766e-07
4.43629e-08
-5.4188e-07
2.24124e-08
-8.66369e-07
1.45794e-10
-8.4232e-07
-2.20171e-08
-8.42357e-07
-4.39995e-08
-8.67299e-07
-2.60877e-08
-5.30555e-07
-8.59237e-08
5.64797e-07
5.82741e-07
-1.68534e-07
7.55997e-08
2.43944e-07
-8.69809e-08
5.27342e-08
1.40631e-07
4.58427e-08
-5.34989e-07
2.31726e-08
-8.437e-07
1.89807e-10
-8.19337e-07
-2.29037e-08
-8.19264e-07
-4.54746e-08
-8.44729e-07
-2.39474e-08
-5.52082e-07
-4.26539e-08
5.83504e-07
6.418e-07
-1.01712e-07
9.651e-08
2.71255e-07
-1.23821e-07
5.48859e-08
1.82257e-07
4.66696e-08
-5.26771e-07
2.30117e-08
-8.20041e-07
1.12588e-10
-7.96438e-07
-2.28726e-08
-7.96279e-07
-4.6604e-08
-8.20997e-07
-1.99966e-08
-5.78689e-07
1.4968e-09
5.62011e-07
6.7116e-07
-2.78634e-08
1.5989e-07
3.50466e-07
-2.39102e-07
7.90545e-08
2.63084e-07
4.82531e-08
-4.95974e-07
2.3809e-08
-7.95599e-07
1.14167e-10
-7.72743e-07
-2.37829e-08
-7.72382e-07
-4.80756e-08
-7.96704e-07
-2.68125e-08
-5.99952e-07
2.25802e-08
5.12618e-07
6.60049e-07
3.36913e-08
2.31527e-07
4.8177e-07
-3.62832e-07
8.3623e-08
4.10995e-07
4.94974e-08
-4.61842e-07
2.38926e-08
-7.69992e-07
7.7724e-13
-7.48851e-07
-2.3739e-08
-7.48642e-07
-4.94273e-08
-7.71016e-07
-4.44703e-08
-6.04909e-07
5.36081e-08
4.14539e-07
6.39802e-07
7.38546e-08
1.95459e-07
5.98399e-07
-3.12089e-07
6.3642e-08
5.42805e-07
5.11017e-08
-4.49309e-07
2.5373e-08
-7.44266e-07
-5.68813e-11
-7.23422e-07
-2.51455e-08
-7.23553e-07
-5.10682e-08
-7.45093e-07
-5.27378e-08
-6.0324e-07
1.24877e-07
2.36924e-07
5.66966e-07
1.97713e-07
1.37069e-07
6.66681e-07
-2.05349e-07
4.41162e-08
6.35769e-07
5.19717e-08
-4.57159e-07
2.4761e-08
-7.17054e-07
-2.4565e-11
-6.98636e-07
-2.45971e-08
-6.98981e-07
-5.19293e-08
-7.17761e-07
-5.65257e-08
-5.98643e-07
1.10258e-07
7.01401e-08
3.96783e-07
2.80441e-07
9.17498e-08
7.09874e-07
-1.34944e-07
3.98462e-08
6.87663e-07
5.51058e-08
-4.72424e-07
2.74019e-08
-6.89351e-07
-8.10098e-11
-6.71153e-07
-2.73121e-08
-6.7175e-07
-5.51024e-08
-6.89971e-07
-5.66628e-08
-5.97083e-07
4.62465e-08
-3.27696e-08
2.17243e-07
2.25786e-07
3.60445e-08
7.49861e-07
-7.60312e-08
4.06658e-08
6.83042e-07
5.57239e-08
-4.87483e-07
2.70107e-08
-6.6064e-07
1.9138e-10
-6.44334e-07
-2.68145e-08
-6.44744e-07
-5.54957e-08
-6.6129e-07
-6.93687e-08
-5.8321e-07
-1.4243e-08
-8.7896e-08
1.05282e-07
9.77182e-08
-4.88296e-08
7.43104e-07
5.55857e-08
4.45212e-08
5.89693e-07
6.05347e-08
-5.03492e-07
3.05672e-08
-6.3067e-07
2.15814e-10
-6.13982e-07
-3.00399e-08
-6.14488e-07
-6.04335e-08
-6.30896e-07
-9.01829e-08
-5.53461e-07
-6.17744e-08
-1.16305e-07
6.14175e-08
-1.79108e-08
-1.80567e-07
6.55612e-07
2.68058e-07
5.50747e-08
3.54037e-07
6.19925e-08
-5.10419e-07
2.79174e-08
-5.96597e-07
1.04093e-10
-5.86169e-07
-2.79212e-08
-5.86463e-07
-6.20876e-08
-5.9673e-07
-8.13867e-08
-5.34162e-07
-5.61554e-08
-1.41536e-07
3.19426e-08
-2.66809e-08
-2.75715e-07
4.79513e-07
4.51814e-07
2.59324e-08
5.24001e-08
6.47357e-08
-5.49218e-07
3.12756e-08
-5.63136e-07
1.69143e-11
-5.5491e-07
-3.14391e-08
-5.55007e-07
-6.42945e-08
-5.63874e-07
-3.88724e-08
-5.59584e-07
-1.62746e-08
-1.64134e-07
3.16438e-08
-1.59757e-08
-1.47901e-07
2.61082e-07
3.6633e-07
7.94401e-08
-1.74946e-07
6.33322e-08
-5.33111e-07
3.10951e-08
-5.30899e-07
5.75222e-10
-5.24391e-07
-2.96516e-08
-5.2478e-07
-6.34786e-08
-5.30047e-07
-9.00717e-08
-5.32991e-07
-5.59228e-08
-1.98283e-07
3.27401e-08
-5.70187e-08
2.32662e-08
1.31279e-07
1.06538e-07
1.20808e-07
-2.72487e-07
7.5766e-08
-4.88069e-07
3.64221e-08
-4.91555e-07
1.1236e-10
-4.88081e-07
-3.69278e-08
-4.8774e-07
-7.58729e-08
-4.91102e-07
-1.23901e-07
-4.84963e-07
-1.15308e-07
-2.06876e-07
4.44343e-08
-1.27002e-07
1.41968e-07
5.11479e-08
-6.18364e-08
1.24486e-07
-2.55006e-07
7.62504e-08
-4.39835e-07
3.66309e-08
-4.51936e-07
1.28723e-09
-4.52737e-07
-3.38994e-08
-4.52553e-07
-7.49026e-08
-4.50099e-07
-1.21689e-07
-4.38177e-07
-1.23195e-07
-2.0537e-07
6.69686e-08
-1.45729e-07
1.60636e-07
-1.70903e-08
-9.23984e-08
1.40495e-07
-2.34869e-07
8.9102e-08
-3.88442e-07
4.29367e-08
-4.05771e-07
-2.05253e-09
-4.07748e-07
-4.74685e-08
-4.07137e-07
-9.2179e-08
-4.05388e-07
-1.41868e-07
-3.88488e-07
-1.24492e-07
-2.22746e-07
5.63978e-08
-1.13922e-07
7.35326e-08
-6.03121e-08
-3.03123e-08
1.32489e-07
-2.93826e-07
8.84155e-08
-3.44369e-07
4.28498e-08
-3.60205e-07
1.1942e-09
-3.66092e-07
-4.00985e-08
-3.65844e-07
-8.59738e-08
-3.59513e-07
-1.29994e-07
-3.44468e-07
-5.82269e-08
-2.94513e-07
-1.09147e-08
9.08532e-09
1.59191e-07
-9.22009e-08
-1.27302e-07
1.42759e-07
-2.77393e-07
9.78687e-08
-2.99478e-07
5.05064e-08
-3.12843e-07
-2.18009e-09
-3.13406e-07
-5.42311e-08
-3.13793e-07
-1.00507e-07
-3.13237e-07
-1.45537e-07