/*--------------------------------*- C++ -*----------------------------------*\
  =========                 |
  \\      /  F ield         | OpenFOAM: The Open Source CFD Toolbox
   \\    /   O peration     | Website:  https://openfoam.org
    \\  /    A nd           | Version:  8
     \\/     M anipulation  |
\*---------------------------------------------------------------------------*/
FoamFile
{
    version     2.0;
    format      ascii;
    class       surfaceScalarField;
    location    "4.05";
    object      alphaPhi0.water;
}
// * * * * * * * * * * * * * * * * * * * * * * * * * * * * * * * * * * * * * //

dimensions      [0 3 -1 0 0 0 0];

internalField   nonuniform List<scalar> 
18095
(
1.9616e-08
-1.72067e-07
1.52451e-07
2.30452e-08
-1.98047e-07
1.94618e-07
1.96383e-08
-2.05886e-07
2.09293e-07
1.05173e-08
-2.1055e-07
2.19671e-07
-2.84173e-10
-2.13452e-07
2.24253e-07
-1.11258e-08
-2.13372e-07
2.24214e-07
-2.00226e-08
-2.10658e-07
2.19554e-07
-2.31127e-08
-2.05927e-07
2.09017e-07
-1.96395e-08
-1.98021e-07
1.94548e-07
-1.72019e-07
1.5238e-07
1.54835e-08
-1.87551e-07
1.57645e-08
-1.98328e-07
1.20518e-08
-2.02174e-07
6.63593e-09
-2.05134e-07
6.52313e-11
-2.06881e-07
-6.38198e-09
-2.06925e-07
-1.20194e-08
-2.0502e-07
-1.5812e-08
-2.02134e-07
-1.55113e-08
-1.98322e-07
-1.87531e-07
6.82671e-09
-1.94377e-07
8.29052e-09
-1.99792e-07
7.1134e-09
-2.00997e-07
4.11025e-09
-2.02131e-07
1.54823e-11
-2.02786e-07
-4.13935e-09
-2.0277e-07
-7.225e-09
-2.01935e-07
-8.32014e-09
-2.01039e-07
-6.83593e-09
-1.99806e-07
-1.94367e-07
4.5388e-09
-1.98916e-07
4.68535e-09
-1.99938e-07
3.60337e-09
-1.99915e-07
1.86065e-09
-2.00388e-07
-1.87736e-10
-2.00738e-07
-2.08516e-09
-2.00873e-07
-3.58771e-09
-2.00432e-07
-4.68728e-09
-1.9994e-07
-4.5464e-09
-1.99947e-07
-1.98913e-07
1.08374e-09
1.1453e-09
1.23073e-09
8.42807e-10
1.04882e-10
-7.68064e-10
-1.20009e-09
-1.13979e-09
-1.08702e-09
-2.71482e-08
-1.97068e-07
2.24216e-07
-2.9634e-08
-1.99005e-07
2.0149e-07
-2.4948e-08
-2.01738e-07
1.97052e-07
-1.30858e-08
-2.02149e-07
1.90286e-07
9.25604e-10
-2.02228e-07
1.88217e-07
1.42612e-08
-2.01572e-07
1.88236e-07
2.42843e-08
-2.00395e-07
1.90372e-07
2.87431e-08
-2.00734e-07
1.96275e-07
2.62834e-08
-1.9859e-07
2.0105e-07
-1.96522e-07
2.22806e-07
-9.81211e-09
-1.87256e-07
-1.51712e-08
-1.93646e-07
-1.41437e-08
-2.02766e-07
-7.74665e-09
-2.08546e-07
-1.25443e-09
-2.0872e-07
5.48535e-09
-2.08311e-07
1.31841e-08
-2.08094e-07
1.50318e-08
-2.02581e-07
9.67704e-09
-1.93235e-07
-1.86845e-07
-1.08283e-08
-1.76428e-07
-8.99839e-09
-1.95475e-07
-6.70343e-09
-2.05061e-07
-4.725e-09
-2.10524e-07
-4.34676e-10
-2.13011e-07
4.13788e-09
-2.12884e-07
6.21941e-09
-2.10175e-07
8.52927e-09
-2.04891e-07
1.05622e-08
-1.95268e-07
-1.76283e-07
-6.71855e-09
-1.69709e-07
-8.86348e-09
-1.93331e-07
-8.75786e-09
-2.05166e-07
-4.41398e-09
-2.14868e-07
-8.42822e-10
-2.16582e-07
2.91168e-09
-2.16639e-07
7.93823e-09
-2.15202e-07
8.46832e-09
-2.05421e-07
6.59048e-09
-1.9339e-07
-1.69693e-07
-1.72577e-08
-1.59704e-08
-1.18433e-08
-7.04053e-09
6.30809e-10
8.20636e-09
1.2559e-08
1.61548e-08
1.73127e-08
2.47177e-08
-1.62264e-07
1.37546e-07
2.70566e-08
-2.0192e-07
1.99581e-07
1.88371e-08
-2.12868e-07
2.21087e-07
2.63559e-09
-2.16601e-07
2.32803e-07
-1.43745e-08
-2.17468e-07
2.34478e-07
-3.0933e-08
-2.16263e-07
2.32821e-07
-4.22647e-08
-2.14848e-07
2.2618e-07
-4.75561e-08
-2.08521e-07
2.13813e-07
-4.0105e-08
-1.95724e-07
1.88273e-07
-1.53523e-07
1.13418e-07
1.41201e-08
-1.76384e-07
1.62828e-08
-2.04082e-07
1.23348e-08
-2.0892e-07
4.36746e-09
-2.08634e-07
-4.62743e-09
-2.08473e-07
-1.28177e-08
-2.08072e-07
-1.92132e-08
-2.08453e-07
-2.20084e-08
-2.05726e-07
-1.84816e-08
-1.99251e-07
-1.72005e-07
9.06564e-09
-1.8545e-07
7.40287e-09
-2.0242e-07
5.14844e-09
-2.06665e-07
9.88976e-10
-2.04474e-07
-2.33544e-09
-2.05148e-07
-6.25914e-09
-2.04149e-07
-1.05515e-08
-2.04161e-07
-1.15688e-08
-2.04709e-07
-1.07436e-08
-2.00076e-07
-1.82749e-07
7.03762e-09
-1.92487e-07
4.54396e-09
-1.99926e-07
4.38578e-09
-2.06507e-07
-1.3508e-09
-1.98738e-07
-3.5563e-09
-2.02943e-07
-4.6825e-09
-2.03023e-07
-8.42301e-09
-2.0042e-07
-7.49126e-09
-2.05641e-07
-8.47111e-09
-1.99096e-07
-1.9122e-07
3.17288e-08
3.32934e-08
2.38382e-08
1.53869e-08
6.60974e-10
-1.41255e-08
-2.41737e-08
-3.35396e-08
-3.15859e-08
3.82534e-08
4.91915e-09
-4.31725e-08
3.27704e-08
5.48293e-09
2.8396e-08
4.37441e-09
1.01013e-08
1.82947e-08
-2.00422e-08
3.07163e-08
-7.0678e-08
4.4214e-08
-8.28295e-08
1.02738e-08
-7.73347e-08
-5.49165e-09
-5.81321e-08
-1.91997e-08
-2.77341e-08
-3.03948e-08
-1.72533e-07
3.10295e-08
1.6868e-07
-1.71956e-07
3.68138e-09
-1.55954e-07
-1.25561e-08
-1.23529e-07
-1.59053e-08
-1.07332e-07
1.20264e-08
-9.63047e-08
1.74164e-08
-8.60821e-08
5.67964e-11
-7.41139e-08
-1.7457e-08
-6.41966e-08
-2.91138e-08
-2.53865e-08
-5.85446e-08
-2.46703e-07
1.71021e-08
2.12184e-07
-2.25064e-07
-1.78427e-08
-2.06129e-07
-3.14237e-08
-1.89078e-07
-3.30327e-08
-1.54589e-07
-2.06029e-08
-1.45849e-07
9.36765e-09
-1.64856e-07
1.79147e-08
-1.96629e-07
1.43743e-08
-1.73802e-07
-3.0267e-09
-1.98888e-08
-1.85067e-07
-2.10204e-07
-1.08573e-08
1.96104e-07
-2.03611e-07
-2.41686e-08
-2.13076e-07
-2.17824e-08
-2.37854e-07
-8.19579e-09
-2.35861e-07
1.24051e-08
-2.12683e-07
2.80841e-08
-2.16249e-07
1.96721e-08
-2.03782e-07
-1.46028e-10
-1.77811e-07
-3.12452e-08
-4.41223e-08
-2.1598e-07
-2.15343e-07
-1.813e-08
2.22749e-07
-2.21017e-07
-1.81277e-08
-2.19197e-07
-3.20274e-09
-1.90094e-07
1.57955e-08
-2.07898e-07
2.92761e-08
-2.16585e-07
3.4907e-08
-2.1612e-07
1.72133e-08
-2.83235e-07
-1.77464e-08
-2.79529e-07
-3.59265e-08
-4.00066e-08
-2.84674e-07
-3.11675e-07
-5.90604e-09
2.99544e-07
-2.22496e-07
-1.17305e-08
-2.2692e-07
8.25632e-10
-2.2097e-07
9.38166e-09
-2.12306e-07
2.0317e-08
-2.32928e-07
3.26495e-08
-3.10932e-07
3.6492e-08
-3.35229e-07
5.55961e-09
-3.58855e-07
-1.31412e-08
-1.7002e-08
-3.81542e-07
-3.37611e-07
1.40212e-08
3.17685e-07
-3.59245e-07
9.91943e-09
-3.16461e-07
1.33488e-08
-2.62416e-07
2.01961e-08
-3.77695e-07
3.83379e-08
-3.92882e-07
4.63542e-08
-3.92278e-07
3.48971e-08
-3.97752e-07
1.01995e-08
-4.08435e-07
-3.14556e-09
-5.66907e-09
-3.80733e-07
-2.39923e-07
3.28907e-08
2.21054e-07
-2.70695e-07
4.06923e-08
-3.05531e-07
4.86102e-08
-3.30468e-07
5.18747e-08
-3.46521e-07
5.85047e-08
-3.49548e-07
5.8324e-08
-3.8249e-07
4.96491e-08
-4.11228e-07
3.82509e-08
-4.25224e-07
1.06335e-08
3.24284e-09
-4.32462e-07
-1.06236e-07
2.83579e-08
1.1077e-07
-1.05801e-07
4.02578e-08
-1.16589e-07
5.93991e-08
-1.35302e-07
7.05874e-08
-1.54141e-07
7.73463e-08
-1.70327e-07
8.19856e-08
-1.90021e-07
8.02644e-08
-2.25174e-07
7.16097e-08
-2.86902e-07
4.18618e-08
3.10744e-08
-3.15358e-07
-4.31538e-08
1.6429e-08
5.5081e-08
-4.02838e-08
3.72713e-08
-3.59241e-08
5.50373e-08
-3.5791e-08
7.04544e-08
-3.9949e-08
8.15049e-08
-4.28519e-08
9.00125e-08
-5.61976e-08
9.45687e-08
-8.36928e-08
9.90882e-08
-1.30268e-07
8.76613e-08
8.08436e-08
-1.74779e-07
-2.53669e-08
2.13527e-08
2.04397e-08
-2.07191e-08
3.26179e-08
-1.65691e-08
5.08875e-08
-1.71498e-08
7.10353e-08
-2.36548e-08
8.80101e-08
-3.60431e-08
1.03569e-07
-5.0584e-08
1.19257e-07
-7.80397e-08
1.26542e-07
-1.15727e-07
1.25332e-07
1.18677e-07
-1.53585e-07
1.00403e-07
7.23618e-08
-1.50858e-07
6.44314e-08
6.85896e-08
3.33716e-08
8.19475e-08
1.30271e-08
9.13799e-08
-6.61517e-09
1.07327e-07
-3.28748e-08
1.2996e-07
-4.76839e-08
1.4897e-07
-6.64495e-08
1.45301e-07
-8.79108e-08
1.46802e-07
1.50454e-07
-1.1968e-07
2.17349e-07
9.74904e-08
-2.37193e-07
1.71989e-07
1.13954e-07
1.31006e-07
1.22931e-07
8.99799e-08
1.32406e-07
4.79634e-08
1.49034e-07
1.48617e-08
1.62751e-07
-5.03848e-09
1.68902e-07
-2.03241e-08
1.81051e-07
-4.06214e-08
1.85776e-07
1.98531e-07
-7.16263e-08
3.13527e-07
9.24703e-08
-3.00691e-07
2.87054e-07
1.40636e-07
2.51972e-07
1.58006e-07
2.15964e-07
1.68414e-07
1.88873e-07
1.73692e-07
1.62723e-07
1.88673e-07
1.27945e-07
2.03713e-07
9.37033e-08
2.15336e-07
5.80181e-08
2.26546e-07
2.20734e-07
4.01377e-08
3.59761e-07
1.26683e-08
-2.81941e-07
3.92624e-07
1.06092e-07
3.9502e-07
1.63186e-07
3.74009e-07
1.93451e-07
3.49172e-07
1.9856e-07
3.36763e-07
2.01115e-07
3.412e-07
1.99309e-07
3.63354e-07
1.93214e-07
3.88007e-07
2.01934e-07
2.10787e-07
3.97992e-07
3.68159e-07
-6.13471e-08
-2.94141e-07
4.5118e-07
7.71267e-09
5.19639e-07
9.17329e-08
5.35858e-07
1.74237e-07
5.34097e-07
2.16516e-07
5.07142e-07
2.30679e-07
4.93114e-07
2.1337e-07
4.95933e-07
1.90436e-07
5.28674e-07
1.69241e-07
1.62071e-07
5.7743e-07
3.80888e-07
-8.35942e-08
-3.58636e-07
4.45341e-07
-5.72728e-08
5.41139e-07
-1.53806e-09
6.37362e-07
7.81887e-08
6.88353e-07
1.70422e-07
5.87397e-07
2.0399e-07
6.14017e-07
1.98173e-07
6.11497e-07
2.13205e-07
5.95629e-07
1.85156e-07
1.58504e-07
5.99236e-07
4.26688e-07
-8.40757e-08
-4.26204e-07
4.34871e-07
-6.54558e-08
4.80829e-07
-4.74938e-08
5.68363e-07
-9.34536e-09
6.71328e-07
6.74506e-08
5.83777e-07
1.35834e-07
5.95383e-07
1.71926e-07
6.20387e-07
1.76187e-07
6.17361e-07
1.81302e-07
1.84168e-07
6.74884e-07
4.90247e-07
-6.88304e-08
-5.05469e-07
4.6864e-07
-4.3847e-08
4.51677e-07
-3.05316e-08
4.64533e-07
-2.2204e-08
5.3449e-07
-2.50896e-09
6.19064e-07
5.12536e-08
5.87458e-07
9.77499e-08
6.44879e-07
1.0965e-07
6.8547e-07
1.31594e-07
1.52431e-07
7.08091e-07
6.03409e-07
-6.74087e-08
-6.05673e-07
5.63942e-07
-3.82685e-09
5.21487e-07
1.19218e-08
4.96485e-07
2.79552e-09
4.95295e-07
-1.32493e-09
5.42097e-07
4.43656e-09
6.1412e-07
2.56723e-08
5.83158e-07
4.76316e-08
7.02208e-07
7.75818e-08
1.2248e-07
8.31643e-07
6.56845e-07
-1.20629e-07
-6.36202e-07
5.40372e-07
1.54021e-08
5.61526e-07
3.05245e-08
5.95859e-07
2.32683e-08
5.87333e-07
7.18592e-09
5.83541e-07
8.17409e-09
5.85284e-07
2.37876e-08
5.93471e-07
3.89092e-08
6.26005e-07
4.91364e-08
6.3472e-08
6.89126e-07
5.23571e-07
-1.89223e-07
-4.99664e-07
2.46048e-07
-1.67205e-08
4.26772e-07
2.43525e-08
6.90574e-07
2.29106e-09
7.21348e-07
-1.95541e-08
7.38628e-07
-8.99182e-09
7.22776e-07
3.94456e-08
6.82278e-07
6.52909e-08
6.58572e-07
7.15901e-08
7.80745e-08
6.42176e-07
1.24672e-07
-6.34467e-08
-1.13182e-07
1.31385e-07
-2.53122e-08
1.36484e-07
-9.14388e-09
3.90082e-07
-3.61549e-08
7.164e-07
-7.67782e-08
7.29815e-07
-1.82714e-08
7.10647e-07
5.48568e-08
6.90535e-07
8.01965e-08
6.84285e-07
7.61947e-08
7.4431e-08
6.85029e-07
-1.25577e-07
-8.23287e-08
1.39307e-07
-7.3706e-08
-8.4944e-08
-2.9099e-08
-7.76887e-08
-4.8722e-09
-1.08467e-07
4.8173e-08
-1.49063e-07
1.04547e-07
-6.14712e-08
2.22265e-07
-3.01079e-08
4.36194e-07
-3.56388e-08
6.01861e-07
-1.74127e-08
2.31841e-08
6.5115e-07
-1.70912e-07
-1.21425e-07
2.02248e-07
-3.85498e-07
-2.68743e-07
-4.20923e-07
-2.7512e-07
-4.06889e-07
-1.87883e-07
-1.82212e-07
-1.32404e-07
-1.07003e-07
-1.41388e-07
-3.88318e-08
-1.02987e-07
3.75631e-08
-1.01357e-07
1.05266e-07
-1.02808e-07
-4.86465e-08
1.48707e-07
-7.99527e-07
-4.23254e-07
4.52983e-07
-9.69611e-07
-4.7522e-07
-8.38011e-07
-4.62079e-07
-5.77826e-07
-3.86171e-07
-4.18417e-07
-2.97921e-07
-2.86314e-07
-2.69195e-07
-1.51379e-07
-2.42629e-07
-9.13806e-08
-1.5995e-07
-2.966e-08
-1.22387e-07
-1.13792e-07
6.35e-08
-1.03709e-06
-4.13161e-07
1.02309e-06
-1.03651e-06
-4.68567e-07
-9.54826e-07
-5.27214e-07
-8.48837e-07
-5.79557e-07
-7.16478e-07
-5.97873e-07
-5.48051e-07
-6.57148e-07
-3.22676e-07
-6.70002e-07
-1.27562e-07
-5.55797e-07
-4.39277e-08
-3.44445e-07
-1.39277e-07
1.63892e-08
-8.68536e-07
-4.16244e-07
8.80084e-07
-8.60258e-07
-4.60296e-07
-8.57852e-07
-5.20329e-07
-8.55718e-07
-5.7684e-07
-7.92017e-07
-6.59334e-07
-6.69734e-07
-7.75896e-07
-4.90652e-07
-8.4555e-07
-2.41933e-07
-8.16416e-07
-9.15047e-08
-5.196e-07
-2.92968e-07
-3.03514e-08
-4.4539e-07
-5.90308e-08
3.93373e-07
-4.90237e-07
-1.5065e-07
-5.39506e-07
-2.86985e-07
-5.61557e-07
-4.69765e-07
-5.48698e-07
-6.67976e-07
-5.07899e-07
-8.1338e-07
-3.70716e-07
-9.78515e-07
-1.58965e-07
-9.39824e-07
-3.07037e-08
-3.19206e-07
-2.24428e-07
1.28471e-08
-5.48828e-08
-5.56793e-08
5.35632e-08
-5.29571e-08
-5.97135e-08
-3.57407e-08
-6.11934e-08
-1.14286e-07
-7.74815e-08
-2.53403e-07
-2.65332e-07
-2.85536e-07
-7.77029e-07
-2.65021e-07
-9.91264e-07
-7.71203e-08
-8.81893e-07
-1.94935e-08
-1.44963e-07
-7.69806e-08
-1.70897e-08
-3.85613e-08
-5.91285e-08
4.23546e-08
-3.14089e-08
-6.47458e-08
-2.28142e-08
-6.9764e-08
-3.0078e-08
-6.94464e-08
-8.68408e-08
-9.25501e-08
-1.41431e-07
-6.51978e-07
-1.63661e-07
-9.55087e-07
-3.18354e-08
-8.59192e-07
-2.03252e-08
-1.56487e-07
-1.07936e-07
1.06184e-08
-2.89676e-08
-6.07552e-08
3.07411e-08
-2.35952e-08
-7.02087e-08
-1.54898e-08
-7.72405e-08
-9.28658e-09
-7.54827e-08
-2.52307e-08
-7.64991e-08
-6.25294e-08
-5.88945e-07
-9.02154e-08
-9.18957e-07
-3.1166e-08
-8.6204e-07
-8.5275e-09
-1.79137e-07
-1.31792e-07
1.53144e-08
-8.4881e-09
-6.20737e-08
7.3257e-09
-8.04977e-09
-7.02965e-08
-3.61322e-09
-8.07895e-08
1.57855e-09
-8.03665e-08
1.22894e-08
-8.6998e-08
1.61523e-08
-6.14364e-07
7.73818e-09
-9.02099e-07
-3.70453e-09
-8.83928e-07
1.60281e-10
-1.82846e-07
-1.35864e-07
4.22071e-09
7.9138e-09
-6.12116e-08
-8.77368e-09
7.54533e-09
-7.15194e-08
7.50612e-09
-7.98818e-08
9.8575e-09
-8.1831e-08
2.75621e-08
-1.89922e-07
3.32044e-08
-7.15597e-07
4.80696e-08
-9.0852e-07
1.37587e-08
-8.81983e-07
3.69255e-09
-1.95221e-07
-1.30474e-07
-1.68136e-09
2.29704e-08
-5.80215e-08
-2.61583e-08
2.113e-08
-6.95652e-08
1.86035e-08
-7.69271e-08
2.56159e-08
-8.79335e-08
6.74452e-08
-4.92262e-07
5.2163e-08
-7.21682e-07
7.96259e-08
-9.09625e-07
1.82747e-08
-8.48324e-07
-7.79851e-09
-2.50375e-07
-1.11268e-07
-2.68844e-08
3.22039e-08
-5.00754e-08
-3.93127e-08
2.67995e-08
-6.40451e-08
2.15496e-08
-7.15212e-08
5.18057e-08
-1.50591e-07
6.24454e-08
-6.53231e-07
5.75215e-08
-7.08564e-07
5.46852e-08
-8.32644e-07
-2.45252e-08
-8.20311e-07
-4.63452e-08
-2.66807e-07
-9.34631e-08
-6.46163e-08
3.4262e-08
-3.91045e-08
-4.52335e-08
2.37907e-08
-5.35084e-08
1.52916e-08
-6.29062e-08
1.08276e-08
-4.48228e-07
-2.51506e-08
-6.48077e-07
-3.4566e-08
-6.86506e-07
-9.7397e-08
-7.88584e-07
-2.21629e-07
-7.17513e-07
-1.08265e-07
-2.94785e-07
-9.73596e-08
-1.08307e-07
3.17814e-08
-2.71267e-08
-4.37659e-08
1.8653e-08
-4.03803e-08
3.21198e-08
-9.48051e-08
-2.01846e-09
-5.07715e-07
-8.96545e-08
-5.57764e-07
-1.37807e-07
-5.76643e-07
-2.96372e-07
-6.49169e-07
-3.82775e-07
-6.24531e-07
-2.33933e-07
-4.03582e-07
-2.9282e-07
-1.55068e-07
2.9672e-08
-1.46151e-08
-4.21899e-08
1.42631e-08
-2.49791e-08
6.18446e-08
-1.46751e-07
2.2222e-08
-4.62241e-07
-6.84344e-08
-4.65005e-07
-1.7821e-07
-4.44934e-07
-3.22264e-07
-5.23886e-07
-3.65075e-07
-6.32281e-07
-3.76325e-07
-4.28311e-07
-3.15651e-07
-4.33738e-07
4.5678e-08
-7.68871e-09
-5.26121e-08
3.43135e-08
-1.36154e-08
1.79772e-07
-1.00864e-07
9.59309e-08
-3.37557e-07
-1.01221e-08
-3.56877e-07
-1.49257e-07
-3.52896e-07
-2.95989e-07
-4.80092e-07
-3.82443e-07
-5.98826e-07
-3.30646e-07
-5.25727e-07
-3.97045e-07
-2.60805e-07
8.20725e-08
-2.12649e-08
-6.84663e-08
1.43352e-07
-7.47088e-08
5.29072e-07
-1.68326e-07
5.50141e-07
-2.72391e-07
4.91187e-07
-3.00101e-07
3.69824e-07
-2.77749e-07
1.86524e-07
-2.9694e-07
-1.99799e-08
-3.92474e-07
-1.85395e-08
-5.85797e-07
-5.22155e-07
8.25683e-08
5.93994e-07
-4.21664e-08
-2.92704e-07
8.70753e-07
-8.68192e-08
8.43444e-07
-1.40442e-07
7.71714e-07
-2.02938e-07
7.12862e-07
-2.44598e-07
6.82649e-07
-2.48696e-07
6.49591e-07
-2.63617e-07
5.67823e-07
-3.10683e-07
4.70106e-07
-4.88231e-07
-5.84862e-07
3.48963e-07
9.37291e-07
-3.72525e-08
-9.33725e-07
9.20012e-07
-7.76874e-08
8.74749e-07
-9.87484e-08
8.20993e-07
-1.3722e-07
7.61345e-07
-1.79058e-07
7.22215e-07
-2.09258e-07
7.28786e-07
-2.69933e-07
8.00723e-07
-3.82314e-07
9.11093e-07
-5.98619e-07
-6.19587e-07
9.45522e-07
8.24606e-07
-8.91336e-09
-8.52568e-07
7.74695e-07
-2.76502e-08
6.88031e-07
-5.2374e-08
6.18088e-07
-7.30114e-08
5.85194e-07
-1.06397e-07
5.82095e-07
-2.05522e-07
7.51234e-07
-4.38766e-07
1.03532e-06
-6.66209e-07
1.18153e-06
-7.45104e-07
-3.9176e-07
9.77156e-07
6.10017e-07
2.26922e-08
-6.46407e-07
5.5014e-07
3.13101e-08
4.63908e-07
3.28976e-08
3.61962e-07
5.70086e-08
2.77754e-07
-2.06855e-08
5.36304e-07
-4.62274e-07
9.23762e-07
-8.25912e-07
1.02081e-06
-7.81463e-07
5.36509e-07
-2.6186e-07
-1.27864e-07
2.91521e-07
3.14234e-07
8.48348e-08
-3.69936e-07
2.38099e-07
1.08601e-07
1.54385e-07
1.19348e-07
4.58666e-08
1.68355e-07
1.81224e-07
-1.54969e-07
5.91592e-07
-8.8103e-07
7.93162e-07
-1.03384e-06
2.85628e-07
-3.06435e-07
1.60585e-07
-1.41518e-07
-9.79774e-08
1.25906e-07
1.63215e-07
1.16906e-07
-1.95297e-07
1.37656e-07
1.3416e-07
1.03954e-07
1.5305e-07
7.2026e-08
1.92945e-07
2.95852e-07
-4.05577e-07
4.75326e-07
-1.0884e-06
2.47112e-07
-9.35364e-07
5.2701e-08
-1.2714e-07
8.43849e-08
-1.7855e-07
-1.88776e-07
1.27226e-07
1.394e-07
1.3043e-07
-1.52924e-07
1.31051e-07
1.42509e-07
1.29035e-07
1.55065e-07
1.34792e-07
1.60555e-07
3.18794e-07
-6.22722e-07
3.65522e-07
-1.16827e-06
1.27385e-07
-7.69853e-07
4.25882e-08
-4.39806e-08
-1.79612e-08
-1.14126e-07
-1.46433e-07
-4.83299e-08
8.54046e-08
1.25798e-07
-8.07732e-08
1.044e-07
1.23513e-07
1.31605e-07
1.2786e-07
1.31678e-07
1.43319e-07
3.1568e-07
-8.24244e-07
2.75005e-07
-1.13445e-06
3.74369e-08
-5.19262e-07
5.47042e-09
-6.59363e-09
-1.1169e-07
2.3567e-09
-7.40515e-08
-1.68607e-07
4.63967e-08
1.26456e-07
-4.70545e-08
5.91644e-08
1.10745e-07
9.39496e-08
9.30748e-08
1.26582e-07
1.02863e-07
2.41568e-07
-9.51082e-07
1.65947e-07
-1.05022e-06
4.4226e-09
-2.94006e-07
8.61377e-10
-4.72064e-09
1.6611e-09
3.94264e-10
1.22793e-09
-8.01082e-08
3.17292e-09
1.11268e-07
1.20142e-08
1.60124e-08
9.79057e-08
1.91587e-08
8.99282e-08
6.95702e-08
5.24511e-08
1.35343e-07
-9.8928e-07
1.26113e-07
-1.01633e-06
3.76513e-09
-1.16442e-07
4.36776e-10
-9.3664e-10
7.14496e-10
8.71198e-11
1.46723e-10
1.7716e-09
-2.99024e-08
1.02269e-07
3.8901e-08
-6.58847e-08
1.33888e-07
-1.12086e-07
1.51807e-07
3.54212e-08
-3.53062e-08
4.23125e-08
-9.34267e-07
5.50509e-08
-9.99291e-07
7.62315e-10
-2.37783e-08
-7.42775e-11
-1.2319e-10
1.11507e-10
-9.02795e-11
1.83835e-11
2.12901e-10
-8.89906e-08
4.72852e-08
6.10319e-08
-1.35227e-07
1.0044e-07
-3.77715e-08
3.88516e-08
-4.69255e-08
-1.21976e-08
-3.14635e-09
-9.55863e-07
-1.14211e-08
-9.61358e-07
-2.56314e-10
-1.4771e-08
-3.05009e-10
-8.25318e-11
5.39277e-12
-3.22696e-10
-3.1147e-10
1.19124e-10
-4.99925e-08
0
3.15884e-08
-2.69037e-08
8.17577e-10
0
1.92308e-09
8.66314e-09
-5.22123e-09
1.37577e-09
-9.32006e-07
-2.99538e-09
-9.36666e-07
-9.02732e-11
-2.21378e-09
-1.07543e-10
-7.12406e-11
-4.00424e-11
-3.01489e-10
-3.82162e-10
3.31773e-11
-3.98277e-09
0
3.93212e-09
-2.87214e-09
0
-1.18242e-10
0
6.34533e-09
-2.87991e-09
5.55549e-09
-9.08391e-07
-4.29874e-09
-9.13717e-07
-3.08155e-11
-2.23707e-09
-4.37106e-11
-6.90597e-11
-2.40028e-11
-2.90926e-10
-3.97745e-10
-4.80443e-12
-1.47908e-09
-1.00007e-10
1.00838e-09
-9.18706e-10
-2.25619e-10
3.31633e-10
-3.69988e-10
6.01137e-09
-2.20162e-09
2.81811e-08
-8.89733e-07
9.459e-09
-9.01438e-07
-1.90559e-11
-1.78292e-10
-3.89027e-11
-6.69426e-11
-8.37064e-12
-4.68356e-10
-4.06688e-10
-9.80891e-13
-6.45212e-11
3.18868e-12
-3.60144e-11
-1.50485e-10
-4.15488e-11
0
-4.31136e-10
3.20105e-11
-2.35183e-09
-8.64158e-09
-9.00265e-07
-4.68061e-10
-9.00913e-07
-7.85361e-12
-6.44391e-10
-2.87719e-11
-6.51727e-11
-2.85431e-11
-4.72267e-10
-4.32401e-10
-5.78784e-12
3.30897e-11
1.86477e-12
-1.11636e-10
-2.79511e-11
2.54997e-13
0
-2.01159e-10
1.22333e-09
-3.64323e-09
1.08208e-09
-9.28673e-07
-1.60841e-09
-9.29128e-07
-6.6348e-12
-2.24026e-09
-3.05326e-11
-3.50494e-11
-4.08313e-11
-4.65969e-10
-4.48335e-10
-2.85793e-11
4.58376e-12
4.30935e-12
-4.67499e-11
-5.09906e-12
6.476e-12
0
-2.39363e-10
5.03758e-09
-8.70738e-09
1.70818e-09
-9.5185e-07
-3.61789e-09
-9.51464e-07
-2.1109e-12
-8.20871e-09
-2.43359e-11
-1.08453e-11
-5.04464e-11
-2.91436e-10
-4.61805e-10
-3.56858e-11
3.81597e-12
9.80573e-12
-6.28076e-12
1.31909e-11
4.88081e-12
2.23927e-10
-3.53088e-10
3.90304e-09
-2.40919e-08
-8.96063e-10
-9.65192e-07
-4.95482e-09
-9.64936e-07
-2.04918e-11
-2.50336e-08
-2.11671e-11
-9.00604e-12
-5.27678e-11
-1.70017e-10
-4.54508e-10
-5.4503e-11
6.03529e-12
9.62452e-12
-2.75194e-12
1.49976e-10
1.36625e-10
4.53024e-10
-4.24305e-10
3.96266e-09
-3.83792e-08
-5.32361e-10
-9.71554e-07
-4.42607e-09
-9.72432e-07
-2.02182e-11
-3.89744e-08
-2.21192e-11
-7.14413e-12
-3.91567e-11
-1.2256e-10
-1.22607e-10
-1.67823e-11
1.2931e-10
8.64892e-10
-5.73806e-11
8.39155e-10
1.45368e-09
3.40655e-10
2.11739e-11
4.83408e-09
-5.0165e-08
7.276e-10
-9.74412e-07
-4.43576e-09
-9.75057e-07
-4.36704e-13
-5.04261e-08
0
-7.61996e-12
-9.02781e-12
-1.26679e-10
-1.23851e-11
-2.57579e-12
1.21336e-09
1.72406e-09
-2.01852e-09
1.15323e-09
2.42593e-09
8.78765e-10
1.96486e-10
4.79551e-09
-5.93932e-08
-4.2743e-10
-9.74836e-07
-4.72275e-09
-9.76238e-07
-1.06693e-12
-6.02288e-08
0
-8.70244e-12
7.70902e-12
-1.23134e-10
-9.71352e-12
-9.65369e-13
1.9603e-09
1.79748e-09
-1.97971e-09
1.6116e-10
4.27908e-09
1.2952e-10
3.04623e-11
5.12642e-09
-6.83288e-08
7.62925e-10
-9.75071e-07
-4.6817e-09
-9.75047e-07
-1.56304e-12
-6.86733e-08
0
-1.02246e-11
-3.79298e-14
-1.11842e-10
-5.63325e-12
-1.12195e-12
-1.66675e-09
7.56336e-10
9.71749e-10
0
4.94953e-10
3.11579e-11
-5.32796e-13
5.65547e-09
-7.67161e-08
-1.44626e-10
-9.72194e-07
-6.15672e-09
-9.72197e-07
-1.0919e-11
-7.74255e-08
-1.03622e-11
-1.08664e-11
-4.1515e-12
-1.06749e-10
-2.11233e-12
-1.89392e-12
-3.04871e-10
0
5.77011e-10
0
1.67319e-12
1.35739e-12
-1.69527e-12
5.88801e-09
-8.36319e-08
6.11678e-10
-9.67577e-07
-4.99732e-09
-9.67977e-07
-1.72523e-11
-8.35774e-08
-1.8327e-11
-9.63803e-12
-1.41726e-12
-5.00815e-11
-1.78538e-12
-1.39615e-12
-7.9834e-12
-1.80195e-11
5.94133e-11
-4.29242e-15
-1.76388e-12
6.60453e-13
-1.97757e-12
6.41772e-09
-8.90148e-08
1.06816e-09
-9.60533e-07
-5.92725e-09
-9.59925e-07
-2.10873e-12
-8.86994e-08
-2.30687e-12
-9.45154e-12
-9.3225e-13
-2.87864e-12
-1.38037e-12
-2.13954e-12
-2.44765e-11
-1.64542e-11
6.06083e-11
6.46515e-13
-1.13567e-11
1.03528e-12
-1.91527e-12
5.76933e-09
-9.18183e-08
-7.25419e-10
-9.50633e-07
-6.04102e-09
-9.50589e-07
-4.66999e-13
-9.12341e-08
-6.53087e-13
-9.34e-12
-8.87389e-13
-2.80659e-12
-1.24331e-12
-1.33299e-12
-1.53685e-11
-8.94197e-12
2.62201e-11
5.16425e-13
-2.98774e-11
8.49963e-13
-1.91377e-12
6.04424e-09
-9.39023e-08
-1.23241e-09
-9.39125e-07
-7.86437e-09
-9.37666e-07
-2.24138e-12
-9.30782e-08
-2.37113e-12
-9.22196e-12
-1.40753e-12
-3.89246e-12
-1.90656e-12
-1.08777e-12
-3.23885e-12
-5.33129e-12
3.2785e-12
1.18874e-12
-1.68826e-11
1.39473e-12
-1.93334e-12
5.82915e-09
-9.49044e-08
-1.30789e-09
-9.27045e-07
-7.40211e-09
-9.25335e-07
-4.55454e-12
-9.41292e-08
-4.30928e-12
-9.48442e-12
0
-3.49179e-12
1.89554e-11
-1.44614e-10
0
-5.21963e-12
3.5619e-12
2.45021e-12
-2.89717e-12
2.35547e-12
-1.73622e-12
9.04911e-09
-9.77007e-08
1.43534e-09
-9.13469e-07
-7.04367e-09
-9.12372e-07
-1.03605e-11
-9.66125e-08
-9.71946e-12
-1.0235e-11
-4.62294e-11
3.52764e-12
7.19363e-11
-2.24972e-10
-1.62181e-14
-2.02529e-12
1.98502e-12
9.22172e-14
-2.90322e-12
1.59348e-13
-1.72535e-12
6.24377e-09
-9.96726e-08
-1.95941e-09
-9.01444e-07
-8.69341e-09
-8.99674e-07
-2.57052e-11
-9.89433e-08
-2.8185e-11
-8.28804e-12
-1.79576e-10
4.8972e-11
1.51475e-10
-2.59098e-10
1.12832e-13
-5.76588e-13
1.40423e-14
4.60034e-13
-1.13072e-11
5.89167e-13
-1.72921e-12
9.12087e-09
-1.02601e-07
7.8085e-10
-8.87787e-07
-8.27156e-09
-8.85993e-07
-1.46404e-11
-1.01776e-07
-1.67326e-11
-7.07594e-12
-1.50499e-10
7.71266e-11
2.22579e-10
-2.21586e-10
6.78263e-14
-5.96687e-13
-4.77299e-14
2.02828e-12
-1.18257e-11
1.99707e-12
-1.59397e-12
8.51228e-09
-1.04281e-07
-2.34859e-10
-8.73802e-07
-8.56119e-09
-8.7256e-07
-5.63032e-12
-1.03692e-07
-6.47714e-12
-6.81364e-12
-1.01317e-10
5.0634e-11
2.98558e-10
-1.77274e-10
8.64601e-14
-6.11071e-13
-7.2083e-14
2.30401e-12
-1.2538e-11
2.26921e-12
-1.43971e-12
1.09163e-08
-1.06419e-07
1.91521e-09
-8.58545e-07
-8.55647e-09
-8.57416e-07
-6.47788e-13
-1.05403e-07
-8.68488e-13
-7.11592e-12
-5.27581e-12
1.54801e-11
2.47706e-10
-9.66178e-11
1.05802e-13
-6.15974e-13
-1.0089e-13
2.33107e-12
-1.32419e-11
2.23683e-12
-1.26902e-12
8.93037e-09
-1.08428e-07
-1.68213e-09
-8.43884e-07
-1.08508e-08
-8.43068e-07
-6.85957e-13
-1.07869e-07
-2.46208e-13
-8.14018e-12
3.30866e-12
1.14303e-11
8.49766e-11
4.94443e-12
1.53077e-13
-5.91682e-13
-1.77361e-13
1.4347e-12
-6.69349e-13
1.30196e-12
-1.1354e-12
1.21899e-08
-1.16116e-07
8.86631e-10
-8.3074e-07
-1.08085e-08
-8.30782e-07
-9.93413e-12
-1.15602e-07
-8.56859e-12
-1.00007e-11
8.49529e-12
2.49134e-10
6.96078e-11
8.04178e-12
1.95442e-13
-5.1158e-13
-2.75694e-13
1.13612e-13
-5.86897e-13
6.80694e-14
-1.08961e-12
1.13224e-08
-1.35678e-07
-8.71184e-10
-8.23876e-07
-1.26466e-08
-8.22924e-07
-2.91646e-11
-1.34733e-07
-2.76156e-11
-1.15266e-11
-1.12781e-11
3.48949e-10
6.47215e-11
-2.19613e-11
2.56508e-13
-4.13951e-13
-3.55823e-13
1.23973e-13
-4.5413e-13
7.8437e-14
-1.04319e-12
1.43137e-08
-1.71083e-07
3.84862e-10
-8.18561e-07
-1.32051e-08
-8.18277e-07
-3.1736e-11
-1.70795e-07
-3.20727e-11
-1.17129e-11
-1.85056e-11
3.59767e-10
1.36444e-10
-1.74356e-11
3.09027e-13
-3.67085e-13
-1.73395e-13
1.36579e-13
-2.80877e-13
1.06378e-13
-1.01156e-12
1.35323e-08
-2.13629e-07
-1.01447e-09
-8.12858e-07
-1.48164e-08
-8.1217e-07
-3.92975e-11
-2.14298e-07
-4.37587e-11
-9.52297e-12
-7.67399e-12
3.43237e-10
4.86846e-10
-3.99326e-11
1.16316e-13
-2.44084e-13
-3.22956e-13
1.86846e-13
-3.45448e-13
2.27926e-13
-1.05057e-12
1.42179e-08
-2.4764e-07
-9.30898e-10
-8.0174e-07
-1.50833e-08
-8.01615e-07
-4.62549e-12
-2.49157e-07
-5.40757e-12
-1.00203e-11
-4.08977e-11
2.26651e-10
4.68471e-10
-2.12625e-11
0
8.45581e-14
-1.78055e-12
8.90489e-13
-9.41368e-13
9.92974e-13
-1.14638e-12
1.29713e-08
-2.6466e-07
9.72678e-10
-7.88684e-07
-1.4175e-08
-7.86134e-07
-3.47186e-12
-2.64814e-07
-4.30064e-12
-1.01799e-11
5.21366e-11
8.57816e-12
4.95703e-11
6.70042e-11
0
2.13724e-13
-2.53975e-12
1.62726e-12
-9.17761e-17
1.867e-12
-1.3645e-12
1.43062e-08
-2.69415e-07
2.31613e-10
-7.71078e-07
-1.59849e-08
-7.68079e-07
-9.76885e-13
-2.68696e-07
-1.66768e-12
-1.04783e-11
5.92123e-12
0
1.73079e-11
3.13696e-11
0
3.00475e-13
-2.67217e-13
1.59311e-12
1.57487e-12
3.32647e-12
-3.04475e-12
1.69853e-08
-2.68272e-07
-3.91804e-09
-7.47267e-07
-1.56567e-08
-7.54466e-07
-4.77143e-12
-2.66411e-07
-5.19027e-12
-1.10478e-11
4.09092e-12
1.01694e-11
1.01192e-11
3.604e-12
3.36144e-13
3.9059e-13
-4.79989e-13
4.32193e-12
2.84498e-12
1.84552e-11
-1.70549e-11
2.12256e-08
-2.71562e-07
1.84368e-09
-7.24916e-07
-2.08156e-08
-7.30614e-07
-1.10278e-11
-2.68508e-07
-8.68875e-12
-1.42744e-11
-1.03073e-12
3.07573e-12
2.51942e-11
1.20937e-12
3.35874e-14
3.06627e-13
-4.46311e-15
1.37381e-11
-4.467e-12
1.431e-10
-1.45824e-10
3.2388e-08
-2.95693e-07
2.28131e-08
-7.13949e-07
-6.35352e-09
-7.01933e-07
-3.60897e-11
-2.64976e-07
-6.17874e-12
-4.48634e-11
-5.67292e-12
2.19548e-12
5.51465e-11
-6.69322e-13
7.28277e-12
3.47664e-11
1.06851e-12
1.50725e-11
-7.89187e-13
1.24574e-09
-1.37132e-09
1.34037e-08
-2.91356e-07
-2.75859e-08
-6.73059e-07
-2.68871e-08
-7.06316e-07
-3.07766e-10
-3.2334e-07
-1.06039e-11
-3.42811e-10
-1.70046e-11
1.37033e-12
5.01372e-11
-2.28722e-13
3.70461e-11
4.5727e-12
9.0476e-12
7.10025e-11
-1.3643e-13
-1.2805e-09
-1.90148e-11
-5.1689e-08
-2.01792e-07
-6.59205e-08
-6.5831e-07
-1.08649e-07
-6.65727e-07
-3.13569e-09
-4.67695e-07
-3.1897e-11
-3.43794e-09
-1.25706e-11
-2.33085e-13
1.85044e-11
1.78582e-13
2.06119e-13
-1.68186e-12
2.24806e-12
3.80227e-12
-4.84131e-13
1.81525e-10
-1.94989e-10
4.59348e-08
-2.41431e-07
3.62342e-08
-6.46405e-07
1.53239e-08
-6.4502e-07
-4.03003e-09
-4.51224e-07
0
-7.96904e-09
0
-1.40163e-13
4.73423e-12
1.18854e-11
1.42155e-13
-2.43104e-12
-1.61861e-13
2.21395e-13
-3.17453e-13
1.99326e-09
-2.18776e-09
8.00927e-08
-3.43834e-07
6.42909e-08
-6.33715e-07
2.82e-08
-6.09072e-07
-2.37047e-10
-4.02402e-07
-2.50071e-12
-6.8236e-09
-2.51924e-12
-1.23548e-13
7.63615e-13
-3.62692e-13
4.11409e-12
-9.38243e-12
-1.21813e-12
4.01737e-12
-1.91441e-13
1.79657e-08
-2.01494e-08
1.42874e-07
-4.77846e-07
9.20731e-08
-5.8298e-07
7.87676e-08
-5.9587e-07
7.185e-09
-3.2659e-07
-5.22269e-13
-1.95929e-11
-6.72366e-13
2.51218e-14
3.65387e-13
-2.76052e-13
7.20338e-12
-8.35438e-13
-1.31387e-11
7.08543e-12
-4.98105e-14
2.71415e-08
-5.12417e-08
3.7316e-08
-4.89453e-07
1.08658e-08
-5.5653e-07
-1.97201e-08
-5.6538e-07
-2.2187e-10
-3.40664e-07
-4.17852e-13
-2.41046e-10
-4.1483e-13
2.07165e-14
2.79995e-13
-3.30865e-13
2.91419e-14
-6.79779e-17
-5.53711e-13
5.63091e-13
-5.72372e-13
4.05045e-08
-8.82135e-08
4.86233e-08
-4.9462e-07
1.82189e-08
-5.26128e-07
-1.91644e-08
-5.28e-07
-2.50673e-09
-3.61056e-07
-1.72091e-13
-2.7476e-09
-1.20177e-13
-3.26084e-14
3.29679e-13
-1.71254e-13
5.93856e-16
-6.61448e-16
-1.66737e-19
1.03637e-11
-1.09354e-11
3.1467e-08
-1.1488e-07
9.39779e-09
-4.69957e-07
-2.38363e-08
-4.92909e-07
-5.72356e-08
-4.94602e-07
-1.8439e-08
-4.02652e-07
-2.82635e-13
-2.11863e-08
-1.47844e-13
-1.68781e-13
4.48541e-12
0
3.70929e-14
-3.77424e-14
-1.18587e-17
2.00388e-10
-2.11286e-10
6.8506e-08
-1.88403e-07
4.90247e-08
-4.50876e-07
7.58983e-09
-4.51482e-07
-3.70835e-08
-4.49944e-07
-3.2616e-08
-4.06018e-07
-1.00105e-11
-5.50591e-08
-4.86177e-12
-5.30895e-12
6.85394e-12
0
1.70017e-12
-1.7379e-12
-1.26268e-17
3.37875e-09
-3.58835e-09
5.05865e-08
-2.37907e-07
5.07305e-09
-4.0542e-07
-3.41868e-08
-4.12221e-07
-7.69997e-08
-4.07138e-07
-8.29358e-08
-3.98648e-07
-2.81299e-10
-1.36884e-07
-5.2816e-12
-2.8127e-10
2.31736e-12
-1.86004e-12
6.03017e-11
-6.20396e-11
-1.32523e-18
2.91941e-08
-3.27224e-08
8.718e-08
-2.91809e-07
3.44157e-08
-3.52655e-07
-1.45137e-08
-3.63294e-07
-5.38438e-08
-3.67807e-07
-9.27438e-08
-3.59602e-07
-6.78893e-09
-2.21495e-07
-2.79153e-12
-7.06796e-09
7.88496e-13
-2.3337e-12
2.40677e-09
-2.46881e-09
-4.87134e-20
8.80261e-08
-1.21746e-07
8.87519e-08
-2.95778e-07
5.01175e-08
-3.14023e-07
7.83902e-10
-3.13961e-07
-5.44882e-08
-3.12535e-07
-1.06744e-07
-3.07346e-07
-4.43732e-08
-2.78115e-07
-3.07953e-10
-5.03584e-08
-3.06848e-10
-7.85988e-13
3.60541e-08
-3.8523e-08
-3.84374e-24
1.18573e-07
-2.02377e-07
6.9829e-08
-2.47033e-07
1.582e-08
-2.60014e-07
-3.28833e-08
-2.65257e-07
-7.88701e-08
-2.66549e-07
-1.2102e-07
-2.65197e-07
-1.46951e-07
-2.52556e-07
-2.49823e-08
-1.73849e-07
-2.52844e-08