/*--------------------------------*- C++ -*----------------------------------*\
  =========                 |
  \\      /  F ield         | OpenFOAM: The Open Source CFD Toolbox
   \\    /   O peration     | Website:  https://openfoam.org
    \\  /    A nd           | Version:  8
     \\/     M anipulation  |
\*---------------------------------------------------------------------------*/
FoamFile
{
    version     2.0;
    format      ascii;
    class       surfaceScalarField;
    location    "4.85";
    object      alphaPhi0.water;
}
// * * * * * * * * * * * * * * * * * * * * * * * * * * * * * * * * * * * * * //

dimensions      [0 3 -1 0 0 0 0];

internalField   nonuniform List<scalar> 
18095
(
1.58516e-07
-9.65485e-07
8.06969e-07
1.65405e-07
-1.24823e-06
1.24135e-06
1.2222e-07
-1.24224e-06
1.28542e-06
6.53608e-08
-1.26348e-06
1.32034e-06
6.39099e-11
-1.28047e-06
1.34577e-06
-6.52444e-08
-1.28049e-06
1.34579e-06
-1.22132e-07
-1.26351e-06
1.3204e-06
-1.65347e-07
-1.24227e-06
1.28549e-06
-1.58493e-07
-1.24826e-06
1.24141e-06
-9.65557e-07
8.07064e-07
1.11041e-07
-1.07653e-06
9.94232e-08
-1.23662e-06
7.28734e-08
-1.21569e-06
4.00621e-08
-1.23067e-06
4.26915e-11
-1.24045e-06
-3.99832e-08
-1.24046e-06
-7.28106e-08
-1.23068e-06
-9.93758e-08
-1.21571e-06
-1.11014e-07
-1.23663e-06
-1.07657e-06
6.71655e-08
-1.14369e-06
5.2761e-08
-1.22221e-06
4.21533e-08
-1.20508e-06
2.38784e-08
-1.21239e-06
2.71098e-11
-1.2166e-06
-2.38277e-08
-1.21661e-06
-4.21123e-08
-1.2124e-06
-5.27296e-08
-1.20509e-06
-6.71425e-08
-1.22221e-06
-1.14371e-06
3.96255e-08
-1.18332e-06
2.66277e-08
-1.20921e-06
2.20215e-08
-1.20047e-06
1.25364e-08
-1.20291e-06
1.52282e-11
-1.20408e-06
-1.25077e-08
-1.20408e-06
-2.19979e-08
-1.20291e-06
-2.661e-08
-1.20048e-06
-3.96102e-08
-1.20921e-06
-1.18332e-06
1.66831e-08
7.4684e-09
6.99426e-09
4.08686e-09
5.08456e-12
-4.07723e-09
-6.98641e-09
-7.46302e-09
-1.66768e-08
-1.747e-07
-1.16362e-06
1.33832e-06
-2.18787e-07
-1.21627e-06
1.26036e-06
-1.64739e-07
-1.21272e-06
1.15867e-06
-8.65365e-08
-1.20391e-06
1.12571e-06
7.06242e-10
-1.20244e-06
1.1152e-06
8.79177e-08
-1.20255e-06
1.11534e-06
1.65982e-07
-1.2042e-06
1.12613e-06
2.19924e-07
-1.21313e-06
1.15919e-06
1.75744e-07
-1.21685e-06
1.26104e-06
-1.1643e-06
1.34005e-06
-9.28393e-08
-1.07079e-06
-9.54145e-08
-1.21369e-06
-7.89763e-08
-1.22915e-06
-4.38693e-08
-1.23902e-06
3.98727e-10
-1.24671e-06
4.46342e-08
-1.24679e-06
7.96604e-08
-1.23922e-06
9.59755e-08
-1.22945e-06
9.31583e-08
-1.21404e-06
-1.07115e-06
-5.78944e-08
-1.01289e-06
-5.50469e-08
-1.21654e-06
-4.63542e-08
-1.23785e-06
-2.69261e-08
-1.25844e-06
2.39939e-10
-1.27388e-06
2.73831e-08
-1.27393e-06
4.6746e-08
-1.25859e-06
5.53328e-08
-1.23803e-06
5.80337e-08
-1.21674e-06
-1.01311e-06
-7.47523e-08
-9.38138e-07
-6.19091e-08
-1.22938e-06
-4.85009e-08
-1.25126e-06
-2.7659e-08
-1.27929e-06
1.48832e-10
-1.30168e-06
2.79403e-08
-1.30172e-06
4.87348e-08
-1.27938e-06
6.2067e-08
-1.25137e-06
7.4826e-08
-1.2295e-06
-9.38286e-07
-1.3117e-07
-1.19208e-07
-8.50407e-08
-4.39893e-08
9.64325e-11
4.41704e-08
8.51889e-08
1.19309e-07
1.31222e-07
-3.21985e-08
-9.22153e-07
9.54351e-07
1.21133e-08
-1.34e-06
1.29569e-06
1.5775e-08
-1.27536e-06
1.2717e-06
1.07618e-08
-1.22672e-06
1.23173e-06
5.95355e-09
-1.22356e-06
1.22837e-06
1.18711e-09
-1.22439e-06
1.22916e-06
-4.57514e-09
-1.22659e-06
1.23235e-06
3.16434e-09
-1.27345e-06
1.26571e-06
5.57211e-08
-1.34275e-06
1.2902e-06
-9.45025e-07
1.00075e-06
1.75049e-08
-9.39658e-07
2.44822e-08
-1.34698e-06
1.70015e-08
-1.26788e-06
1.09892e-08
-1.2207e-06
4.5941e-09
-1.21716e-06
-1.97454e-09
-1.21782e-06
-8.01364e-09
-1.22055e-06
-1.30038e-08
-1.26846e-06
-7.14481e-09
-1.34861e-06
-9.5217e-07
3.09548e-08
-9.70613e-07
2.22766e-08
-1.3383e-06
1.35084e-08
-1.25911e-06
8.79014e-09
-1.21599e-06
2.86804e-09
-1.21124e-06
-3.56061e-09
-1.21139e-06
-7.88618e-09
-1.21623e-06
-1.66233e-08
-1.25972e-06
-2.57113e-08
-1.33952e-06
-9.77881e-07
8.12242e-08
-1.05184e-06
5.51939e-08
-1.31227e-06
3.60493e-08
-1.23997e-06
2.2776e-08
-1.20271e-06
1.84276e-09
-1.19031e-06
-1.91002e-08
-1.19045e-06
-3.19671e-08
-1.20336e-06
-5.08999e-08
-1.24079e-06
-7.7604e-08
-1.31282e-06
-1.05549e-06
2.86487e-07
2.34575e-07
1.53275e-07
7.62708e-08
1.16226e-09
-7.39474e-08
-1.51176e-07
-2.32777e-07
-2.84562e-07
3.59878e-08
3.79596e-09
-3.97837e-08
3.2189e-08
3.7995e-09
2.83898e-08
3.79924e-09
2.4594e-08
3.79588e-09
2.08071e-08
3.78711e-09
1.70305e-08
3.77665e-09
1.32672e-08
3.76332e-09
9.51903e-09
3.74839e-09
5.78655e-09
3.73265e-09
3.71187e-09
2.07493e-09
3.43504e-08
7.91775e-09
-3.84719e-08
3.01905e-08
7.96e-09
2.60063e-08
7.98357e-09
2.18112e-08
7.9912e-09
1.76159e-08
7.98271e-09
1.34311e-08
7.96173e-09
9.26343e-09
7.9312e-09
5.12327e-09
7.8889e-09
1.01829e-09
7.83797e-09
7.77871e-09
-3.04826e-09
2.66873e-08
1.18432e-08
-3.06125e-08
2.27257e-08
1.19219e-08
1.87404e-08
1.1969e-08
1.47439e-08
1.19878e-08
1.07453e-08
1.19815e-08
6.7541e-09
1.1953e-08
2.78073e-09
1.19047e-08
-1.16982e-09
1.18396e-08
-5.09075e-09
1.17591e-08
1.16682e-08
-8.98004e-09
1.89175e-08
1.55635e-08
-2.26377e-08
1.517e-08
1.56696e-08
1.14041e-08
1.57349e-08
7.62919e-09
1.57629e-08
3.85294e-09
1.57578e-08
8.13525e-11
1.57246e-08
-3.68019e-09
1.56664e-08
-7.428e-09
1.55875e-08
-1.11614e-08
1.54925e-08
1.53861e-08
-1.48791e-08
1.12429e-08
1.91051e-08
-1.47845e-08
7.68039e-09
1.92321e-08
4.10352e-09
1.93118e-08
5.17115e-10
1.93493e-08
-3.0748e-09
1.93497e-08
-6.66869e-09
1.93186e-08
-1.02638e-08
1.92615e-08
-1.3861e-08
1.91848e-08
-1.74626e-08
1.90942e-08
1.89955e-08
-2.10719e-08
3.50881e-09
2.25061e-08
-6.90984e-09
8.77115e-11
2.26532e-08
-3.35032e-09
2.27498e-08
-6.80298e-09
2.28018e-08
-1.02699e-08
2.28166e-08
-1.37527e-08
2.28014e-08
-1.72543e-08
2.27633e-08
-2.07795e-08
2.27101e-08
-2.43346e-08
2.26494e-08
2.25883e-08
-2.79273e-08
-4.45838e-09
2.58207e-08
1.14372e-09
-7.79947e-09
2.59942e-08
-1.11668e-08
2.6117e-08
-1.45617e-08
2.61967e-08
-1.79877e-08
2.62428e-08
-2.14494e-08
2.62633e-08
-2.49538e-08
2.62677e-08
-2.85095e-08
2.62658e-08
-3.21265e-08
2.62665e-08
2.62779e-08
-3.58161e-08
-1.2841e-08
2.91216e-08
9.54004e-09
-1.61829e-08
2.9336e-08
-1.95687e-08
2.9503e-08
-2.3003e-08
2.96312e-08
-2.64914e-08
2.97312e-08
-3.00417e-08
2.98135e-08
-3.36632e-08
2.98893e-08
-3.73668e-08
2.99693e-08
-4.11642e-08
3.0064e-08
3.01826e-08
-4.50689e-08
-2.18199e-08
3.24993e-08
1.84424e-08
-2.52616e-08
3.27778e-08
-2.87721e-08
3.30135e-08
-3.23576e-08
3.32167e-08
-3.60252e-08
3.33988e-08
-3.9783e-08
3.35712e-08
-4.36399e-08
3.37461e-08
-4.76054e-08
3.39348e-08
-5.16898e-08
3.41483e-08
3.43967e-08
-5.59039e-08
-3.15499e-08
3.60553e-08
2.7994e-08
-3.51996e-08
3.64275e-08
-3.89482e-08
3.6762e-08
-4.28007e-08
3.70692e-08
-4.67621e-08
3.73601e-08
-5.0837e-08
3.7646e-08
-5.50292e-08
3.79383e-08
-5.93424e-08
3.8248e-08
-6.37798e-08
3.85857e-08
3.89615e-08
-6.83447e-08
-4.21214e-08
3.9891e-08
3.82857e-08
-4.60832e-08
4.03892e-08
-5.01732e-08
4.08519e-08
-5.43919e-08
4.12878e-08
-5.87378e-08
4.17059e-08
-6.32073e-08
4.21156e-08
-6.77957e-08
4.25267e-08
-7.24963e-08
4.29487e-08
-7.7301e-08
4.33904e-08
4.3861e-08
-8.22005e-08
-5.35174e-08
4.4089e-08
4.93193e-08
-5.78709e-08
4.47425e-08
-6.2375e-08
4.53559e-08
-6.70222e-08
4.59349e-08
-7.18013e-08
4.64854e-08
-7.66998e-08
4.70142e-08
-8.17031e-08
4.753e-08
-8.67965e-08
4.8042e-08
-9.19628e-08
4.85568e-08
4.90803e-08
-9.7182e-08
-6.55743e-08
4.86931e-08
6.09706e-08
-7.03542e-08
4.95206e-08
-7.52965e-08
5.02971e-08
-8.03823e-08
5.10208e-08
-8.55907e-08
5.16941e-08
-9.0899e-08
5.23229e-08
-9.62881e-08
5.29191e-08
-1.01745e-07
5.34987e-08
-1.07253e-07
5.4065e-08
5.45683e-08
-1.12741e-07
-7.79736e-08
5.36933e-08
7.29732e-08
-8.31582e-08
5.47051e-08
-8.85063e-08
5.5643e-08
-9.39852e-08
5.64997e-08
-9.95619e-08
5.72708e-08
-1.052e-07
5.79612e-08
-1.10872e-07
5.85912e-08
-1.1656e-07
5.91866e-08
-1.22108e-07
5.96133e-08
6.00827e-08
-1.27538e-07
-9.02762e-08
5.90271e-08
8.49422e-08
-9.57971e-08
6.02257e-08
-1.0148e-07
6.13244e-08
-1.07284e-07
6.23036e-08
-1.13158e-07
6.31454e-08
-1.19039e-07
6.38414e-08
-1.24854e-07
6.4407e-08
-1.30101e-07
6.47323e-08
-1.34254e-07
6.45784e-08
6.4459e-08
-1.39565e-07
-1.01979e-07
6.45838e-08
9.64218e-08
-1.0773e-07
6.59761e-08
-1.13657e-07
6.72514e-08
-1.19734e-07
6.83803e-08
-1.2591e-07
6.93213e-08
-1.32078e-07
7.00099e-08
-1.38108e-07
7.04368e-08
-1.43622e-07
7.04721e-08
-1.4916e-07
7.02301e-08
6.97453e-08
-1.54103e-07
-1.12559e-07
7.01974e-08
1.06945e-07
-1.18366e-07
7.17828e-08
-1.24378e-07
7.3263e-08
-1.30608e-07
7.46097e-08
-1.37049e-07
7.57644e-08
-1.43678e-07
7.65417e-08
-1.5019e-07
7.68831e-08
-1.56186e-07
7.65195e-08
-1.6144e-07
7.58396e-08
7.41917e-08
-1.58993e-07
-1.21642e-07
7.56781e-08
1.16163e-07
-1.2728e-07
7.74196e-08
-1.33106e-07
7.90891e-08
-1.39184e-07
8.06875e-08
-1.45507e-07
8.21831e-08
-1.52473e-07
8.33054e-08
-1.59506e-07
8.38524e-08
-1.65543e-07
8.24918e-08
-1.70943e-07
8.08309e-08
7.8558e-08
-1.66675e-07
-1.29255e-07
8.09509e-08
1.23983e-07
-1.34635e-07
8.27993e-08
-1.40154e-07
8.46084e-08
-1.45888e-07
8.64216e-08
-1.51965e-07
8.8267e-08
-1.55465e-07
8.89382e-08
-1.6089e-07
8.64266e-08
-1.73072e-07
8.4024e-08
-1.77494e-07
8.52514e-08
8.23457e-08
-1.80564e-07
-1.35388e-07
8.60577e-08
1.30281e-07
-1.40595e-07
8.80064e-08
-1.45924e-07
8.99374e-08
-1.51397e-07
9.18955e-08
-1.56681e-07
9.3562e-08
-1.50401e-07
8.84828e-08
-1.52011e-07
8.6656e-08
-1.7283e-07
8.84895e-08
-1.76596e-07
8.90167e-08
8.49484e-08
-1.79156e-07
-1.39376e-07
9.09457e-08
1.34488e-07
-1.44413e-07
9.30437e-08
-1.49656e-07
9.51808e-08
-1.55088e-07
9.73372e-08
-1.54194e-07
9.63119e-08
-1.51613e-07
9.16696e-08
-1.5677e-07
9.08451e-08
-1.71658e-07
9.13147e-08
-1.73821e-07
9.11797e-08
8.70549e-08
-1.75928e-07
-1.40561e-07
9.53293e-08
1.36177e-07
-1.44995e-07
9.7478e-08
-1.49451e-07
9.96392e-08
-1.52589e-07
1.01109e-07
-1.41983e-07
9.54298e-08
-1.44951e-07
9.42347e-08
-1.49062e-07
9.41874e-08
-1.66705e-07
9.56517e-08
-1.68724e-07
9.31972e-08
8.90608e-08
-1.70731e-07
-1.39392e-07
9.91945e-08
1.35468e-07
-1.43424e-07
1.01511e-07
-1.47575e-07
1.03812e-07
-1.40087e-07
1.00614e-07
-1.41373e-07
9.65471e-08
-1.435e-07
9.63755e-08
-1.5711e-07
9.86447e-08
-1.60677e-07
9.9218e-08
-1.62306e-07
9.48238e-08
9.09801e-08
-1.64226e-07
-1.35608e-07
1.02284e-07
1.3245e-07
-1.38826e-07
1.04659e-07
-1.40737e-07
1.06452e-07
-1.29853e-07
1.00428e-07
-1.33112e-07
9.9623e-08
-1.35884e-07
9.89796e-08
-1.52176e-07
1.03513e-07
-1.53504e-07
1.00545e-07
-1.55114e-07
9.64336e-08
9.29888e-08
-1.57124e-07
-1.29778e-07
1.04544e-07
1.27524e-07
-1.32133e-07
1.06975e-07
-1.24255e-07
1.04264e-07
-1.2395e-07
1.00393e-07
-1.25266e-07
1.01054e-07
-1.33526e-07
1.01001e-07
-1.42094e-07
1.0625e-07
-1.43991e-07
1.02441e-07
-1.46274e-07
9.87161e-08
9.56311e-08
-1.48918e-07
-1.22036e-07
1.05746e-07
1.20867e-07
-1.22232e-07
1.08057e-07
-1.1301e-07
1.02878e-07
-1.14448e-07
1.01872e-07
-1.15409e-07
1.02287e-07
-1.29463e-07
1.0168e-07
-1.31912e-07
1.08698e-07
-1.34519e-07
1.05047e-07
-1.37543e-07
1.01739e-07
9.90071e-08
-1.4092e-07
-1.12433e-07
1.06037e-07
1.12157e-07
-1.03329e-07
1.07514e-07
-1.0184e-07
1.01468e-07
-1.03006e-07
1.0309e-07
-1.04209e-07
1.03568e-07
-1.09698e-07
1.02633e-07
-1.22366e-07
1.0759e-07
-1.25716e-07
1.08396e-07
-1.29451e-07
1.05474e-07
1.03094e-07
-1.3354e-07
-1.01101e-07
1.06293e-07
1.00866e-07
-9.80773e-08
1.09423e-07
-9.19907e-08
1.07109e-07
-9.38163e-08
1.04935e-07
-9.59605e-08
1.05652e-07
-9.9076e-08
1.05756e-07
-1.13836e-07
1.06562e-07
-1.17714e-07
1.12274e-07
-1.22055e-07
1.09814e-07
1.07831e-07
-1.26792e-07
-8.8551e-08
1.06623e-07
8.82361e-08
-8.98894e-08
1.11467e-07
-8.91308e-08
1.16389e-07
-8.51164e-08
1.15151e-07
-8.86074e-08
1.0915e-07
-9.2109e-08
1.09376e-07
-1.05923e-07
1.12094e-07
-1.10403e-07
1.16753e-07
-1.15343e-07
1.14753e-07
1.13188e-07
-1.20701e-07
-7.65465e-08
1.0695e-07
7.62207e-08
-7.86007e-08
1.13524e-07
-8.21841e-08
1.19993e-07
-8.54055e-08
1.23869e-07
-8.66266e-08
1.22391e-07
-8.9835e-08
1.23728e-07
-9.99047e-08
1.22757e-07
-1.04313e-07
1.2116e-07
-1.09626e-07
1.20065e-07
1.19076e-07
-1.15514e-07
-6.47565e-08
1.05965e-07
6.57412e-08
-6.58955e-08
1.14663e-07
-6.95903e-08
1.2369e-07
-7.62692e-08
1.30568e-07
-8.35092e-08
1.29796e-07
-8.77317e-08
1.28279e-07
-9.16076e-08
1.26633e-07
-9.68195e-08
1.26372e-07
-1.03438e-07
1.26683e-07
1.26124e-07
-1.10486e-07
-5.82828e-08
1.02887e-07
6.13605e-08
-5.83703e-08
1.05383e-07
-5.53519e-08
9.4111e-08
-5.17538e-08
8.54616e-08
-6.56507e-08
8.24733e-08
-8.04812e-08
1.09955e-07
-8.20539e-08
1.28205e-07
-8.90472e-08
1.33365e-07
-9.86233e-08
1.36258e-07
1.34003e-07
-1.06503e-07
-5.70473e-08
9.27252e-08
6.55065e-08
-4.52845e-08
6.77881e-08
-3.82229e-08
7.34913e-08
-3.12189e-08
7.83824e-08
-2.94738e-08
8.05912e-08
-4.0463e-08
8.42068e-08
-5.34621e-08
8.98765e-08
-5.52551e-08
9.10719e-08
-6.91783e-08
8.89782e-08
1.09023e-07
-9.80876e-08
-6.08969e-08
8.86466e-08
7.88144e-08
-4.01547e-08
7.07886e-08
-3.63567e-08
6.96181e-08
-3.39015e-08
7.59137e-08
-3.36547e-08
8.03312e-08
-3.6134e-08
8.66296e-08
-3.95305e-08
9.33118e-08
-3.98197e-08
9.01801e-08
-4.47638e-08
9.06484e-08
1.01807e-07
-6.77121e-08
-8.33539e-08
9.04649e-08
8.71069e-08
-6.47538e-08
9.78374e-08
-4.09036e-08
8.78439e-08
-3.64208e-08
7.14153e-08
-3.27023e-08
7.65991e-08
-3.08396e-08
8.47591e-08
-2.94292e-08
9.18213e-08
-2.58454e-08
1.06385e-07
-3.15304e-08
1.24672e-07
1.37418e-07
-5.28515e-08
-8.36547e-08
8.73852e-08
8.70469e-08
-7.85309e-08
9.7392e-08
-6.72299e-08
1.08495e-07
-5.36602e-08
1.17451e-07
-4.16863e-08
1.21461e-07
-3.40944e-08
1.28755e-07
-3.43299e-08
1.4113e-07
-3.72355e-08
1.47103e-07
-4.14652e-08
1.50892e-07
1.54136e-07
-4.75228e-08
-7.77261e-08
8.31217e-08
8.19903e-08
-7.29481e-08
9.26211e-08
-6.68459e-08
1.02434e-07
-6.02599e-08
1.11485e-07
-5.40683e-08
1.2027e-07
-4.86686e-08
1.29294e-07
-4.43456e-08
1.37775e-07
-4.25119e-08
1.45395e-07
-4.40782e-08
1.52526e-07
1.59385e-07
-4.92922e-08
-7.06029e-08
7.80263e-08
7.56983e-08
-6.5844e-08
8.78629e-08
-6.17629e-08
9.83603e-08
-5.70967e-08
1.06861e-07
-5.2639e-08
1.15938e-07
-4.9005e-08
1.25852e-07
-4.65731e-08
1.35357e-07
-4.64149e-08
1.45245e-07
-4.92211e-08
1.55336e-07
1.65255e-07
-5.50896e-08
-6.48702e-08
7.12532e-08
7.16441e-08
-5.84967e-08
7.36844e-08
-5.01278e-08
8.20767e-08
-4.62422e-08
9.0163e-08
-4.90576e-08
1.0107e-07
-4.80881e-08
1.22039e-07
-4.71364e-08
1.34414e-07
-4.89733e-08
1.47086e-07
-5.37642e-08
1.60129e-07
1.72464e-07
-6.09728e-08
-5.82282e-08
5.90165e-08
6.87203e-08
-4.93142e-08
6.44222e-08
-4.2781e-08
7.52164e-08
-3.73064e-08
8.41772e-08
-3.38115e-08
9.6411e-08
-4.05362e-08
1.14952e-07
-4.25707e-08
1.36463e-07
-4.77735e-08
1.38152e-07
-5.6235e-08
1.56916e-07
1.80807e-07
-6.45789e-08
-5.47321e-08
5.62516e-08
7.04727e-08
-4.85598e-08
5.79229e-08
-4.1128e-08
6.73848e-08
-3.55282e-08
8.4358e-08
-3.60003e-08
1.05426e-07
-3.76338e-08
1.17802e-07
-3.46805e-08
1.19857e-07
-3.43314e-08
1.2246e-07
-5.44616e-08
1.33953e-07
1.89785e-07
-6.34388e-08
-6.67391e-08
5.50258e-08
7.38729e-08
-5.9511e-08
6.38333e-08
-5.54865e-08
7.44812e-08
-5.37606e-08
8.75308e-08
-4.96564e-08
1.01805e-07
-4.33767e-08
1.14533e-07
-3.57005e-08
1.0833e-07
-3.43006e-08
1.21586e-07
-3.78966e-08
1.37483e-07
1.5652e-07
-5.82358e-08
-7.67316e-08
5.22376e-08
7.95691e-08
-7.3847e-08
6.10383e-08
-7.06904e-08
7.15544e-08
-6.69473e-08
8.38019e-08
-6.26776e-08
9.77178e-08
-4.73616e-08
1.09916e-07
-4.24816e-08
1.03975e-07
-3.9989e-08
1.19544e-07
-4.00549e-08
1.38074e-07
1.55293e-07
-4.25281e-08
-8.27179e-08
5.07777e-08
8.41788e-08
-8.15165e-08
5.98373e-08
-8.01403e-08
7.01791e-08
-7.81588e-08
8.18227e-08
-7.53863e-08
9.49817e-08
-6.69988e-08
1.09445e-07
-5.1409e-08
1.14212e-07
-4.72181e-08
1.15855e-07
-4.33187e-08
1.34661e-07
1.59653e-07
-4.71312e-08
-8.58143e-08
5.06162e-08
8.5976e-08
-8.666e-08
6.06832e-08
-8.79883e-08
7.15078e-08
-8.88763e-08
8.27114e-08
-8.83513e-08
9.44703e-08
-8.58963e-08
1.07888e-07
-7.40865e-08
1.24057e-07
-6.31956e-08
1.33959e-07
-5.45328e-08
1.55196e-07
1.93997e-07
-6.16352e-08
-8.48026e-08
5.15668e-08
8.385e-08
-8.85123e-08
6.43764e-08
-9.47341e-08
7.773e-08
-1.01838e-07
8.98157e-08
-1.07303e-07
9.99361e-08
-1.09543e-07
1.10116e-07
-1.07186e-07
1.23389e-07
-1.03348e-07
1.40573e-07
-1.00692e-07
1.63542e-07
1.93114e-07
-9.82073e-08
-7.61052e-08
5.11898e-08
7.64967e-08
-8.064e-08
6.88494e-08
-9.24482e-08
8.7369e-08
-1.1107e-07
1.08437e-07
-1.2806e-07
1.16926e-07
-1.36754e-07
1.18805e-07
-1.40721e-07
1.27354e-07
-1.44425e-07
1.4437e-07
-1.48914e-07
1.68471e-07
1.96964e-07
-1.52279e-07
-5.69559e-08
4.27848e-08
6.53604e-08
-5.20807e-08
6.39755e-08
-4.64607e-08
6.45787e-08
-7.35457e-08
3.90119e-08
-1.10855e-07
4.74701e-08
-1.28579e-07
5.00826e-08
-1.35639e-07
5.31757e-08
-1.31535e-07
4.06821e-08
-1.24467e-07
2.73426e-08
1.59389e-08
-1.2663e-07
-5.90592e-08
2.71218e-08
7.46996e-08
-3.34909e-08
3.97989e-08
-5.98458e-09
9.01015e-09
-8.063e-09
1.88393e-09
-1.39339e-08
8.35883e-10
-1.87985e-08
2.79688e-10
-1.8049e-08
2.95722e-10
-1.26832e-08
4.71219e-10
-9.2406e-09
5.21111e-10
4.57292e-10
-8.43891e-09
-1.08171e-07
1.62166e-08
1.1903e-07
-2.52555e-08
1.97843e-08
-1.37311e-09
7.34364e-10
-2.15603e-10
6.27889e-10
-2.13899e-10
6.29503e-10
-6.14911e-10
4.64406e-10
-8.65297e-10
3.99684e-10
-9.62905e-10
4.37113e-10
-1.02692e-09
4.95968e-10
4.96064e-10
-1.13738e-09
-1.75186e-07
1.64184e-08
1.75804e-07
-4.04457e-08
1.92735e-08
-8.4755e-10
2.05123e-09
-4.08e-10
2.19733e-10
-1.82798e-10
4.24176e-10
-2.37404e-10
4.99811e-10
-3.28746e-10
4.62125e-10
-4.10021e-10
4.88865e-10
-4.64945e-10
5.04387e-10
5.1666e-10
-5.17305e-10
-2.37033e-07
2.7067e-08
2.26913e-07
-1.41531e-07
4.00488e-08
-5.44366e-10
2.65308e-08
-4.6686e-10
1.59577e-10
-3.26687e-10
2.84151e-10
-2.93902e-10
4.5569e-10
-3.05178e-10
4.72308e-10
-3.22857e-10
5.00981e-10
-3.34897e-10
5.14045e-10
5.25136e-10
-3.42884e-10
-2.77543e-07
4.37016e-08
2.61031e-07
-2.93174e-07
5.75614e-08
-1.5974e-07
7.37751e-08
-5.65446e-10
3.94849e-08
-5.17615e-10
2.24896e-10
-4.50586e-10
3.94287e-10
-4.02349e-10
4.26492e-10
-3.44687e-10
4.46452e-10
-2.9238e-10
4.6514e-10
4.80577e-10
-2.46952e-10
-2.80132e-07
5.78676e-08
2.65978e-07
-2.9059e-07
6.81801e-08
-2.97247e-07
8.18542e-08
-1.73e-07
8.7265e-08
-5.11601e-09
5.68027e-08
-3.95175e-10
4.61858e-09
-2.96864e-10
3.28702e-10
-2.29541e-10
3.79327e-10
-1.6521e-10
3.98441e-10
4.2502e-10
-1.09996e-10
-2.34172e-07
5.77422e-08
2.44969e-07
-2.29315e-07
5.92704e-08
-2.51659e-07
7.00966e-08
-2.06903e-07
8.62324e-08
-2.02163e-07
1.21562e-07
-1.58319e-07
1.41893e-07
-9.15967e-08
1.36975e-07
-4.01744e-08
1.10639e-07
-1.64619e-08
9.21625e-08
8.26533e-08
-6.79018e-09
-1.79738e-07
5.30396e-08
1.88579e-07
-1.78053e-07
6.14193e-08
-1.74908e-07
6.99854e-08
-1.67059e-07
8.08432e-08
-1.87891e-07
1.08708e-07
-1.89323e-07
1.30855e-07
-1.67413e-07
1.44324e-07
-1.35432e-07
1.56393e-07
-1.02191e-07
1.6657e-07
1.75329e-07
-7.02569e-08
-1.84168e-07
6.32113e-08
1.66974e-07
-1.7142e-07
6.69341e-08
-1.63211e-07
6.33196e-08
-1.67569e-07
8.16208e-08
-1.81768e-07
1.01248e-07
-1.69495e-07
1.14215e-07
-1.52467e-07
1.26557e-07
-1.32852e-07
1.36236e-07
-1.11694e-07
1.44896e-07
1.5234e-07
-8.88751e-08
-2.0011e-07
5.9745e-08
2.04271e-07
-1.88281e-07
6.55413e-08
-1.84412e-07
7.2799e-08
-1.82105e-07
8.1553e-08
-1.73469e-07
9.29072e-08
-1.61754e-07
1.0265e-07
-1.4748e-07
1.10835e-07
-1.31722e-07
1.19268e-07
-1.1542e-07
1.27709e-07
1.34625e-07
-9.82195e-08
-1.99251e-07
5.60529e-08
2.02948e-07
-1.94847e-07
6.11753e-08
-1.89736e-07
6.78892e-08
-1.85193e-07
7.73214e-08
-1.81096e-07
8.91052e-08
-1.73499e-07
9.53549e-08
-1.53889e-07
9.13738e-08
-1.39816e-07
6.66576e-08
-1.10543e-07
4.91256e-08
3.85797e-08
-8.05662e-08
-2.06494e-07
5.58686e-08
2.06685e-07
-2.01844e-07
5.65305e-08
-1.9013e-07
4.80666e-08
-1.67585e-07
3.24844e-08
-1.37123e-07
3.0384e-08
-9.82603e-08
2.5087e-08
-6.42331e-08
2.05951e-08
-4.03569e-08
1.78682e-08
-2.37574e-08
1.43867e-08
1.69331e-08
-1.02763e-08
-1.23699e-07
2.53392e-08
1.75871e-07
-8.11145e-08
1.66434e-08
-5.14019e-08
1.3365e-08
-3.78532e-08
1.23671e-08
-2.96126e-08
1.74634e-08
-2.26582e-08
1.35465e-08
-1.50176e-08
8.50989e-09
-4.92978e-09
3.34477e-09
6.10133e-09
-1.08189e-09
-5.17656e-09
1.90456e-08
-3.47049e-08
1.06008e-08
5.0606e-08
-2.67395e-08
8.83904e-09
-2.16177e-08
7.34999e-09
-1.61966e-08
4.95062e-09
-8.02268e-09
1.05238e-08
9.18503e-10
3.53676e-09
2.26667e-08
-1.19372e-08
7.05713e-08
-2.95862e-08
1.37412e-07
-4.14895e-08
-5.17629e-08
1.89248e-07
-6.28989e-08
2.07671e-08
7.49385e-08
-5.60765e-08
1.56911e-08
-4.25364e-08
7.09629e-09
-2.18286e-08
-3.38265e-09
1.03693e-08
-1.55155e-08
4.87139e-08
-3.09184e-08
8.52042e-08
-4.84258e-08
1.20727e-07
-6.51078e-08
1.59062e-07
-7.98213e-08
-9.36252e-08
2.00926e-07
-7.44932e-08
6.91885e-09
8.95908e-08
-5.39466e-08
-4.86731e-09
-2.90884e-08
-1.77608e-08
-5.30729e-10
-3.19386e-08
3.14849e-08
-4.75294e-08
6.5282e-08
-6.47138e-08
1.00094e-07
-8.3236e-08
1.37129e-07
-1.02141e-07
1.78289e-07
-1.20979e-07
-1.39795e-07
2.2446e-07
-4.19734e-08
-6.74605e-09
5.558e-08
-2.33818e-08
-2.34746e-08
4.91858e-11
-4.11906e-08
2.7742e-08
-5.96297e-08
5.93512e-08
-7.91231e-08
9.44592e-08
-9.982e-08
1.32786e-07
-1.21561e-07
1.74685e-07
-1.44037e-07
2.21033e-07
-1.67324e-07
-1.91977e-07
2.73228e-07
-9.32416e-09
-1.90828e-08
2.26428e-08
1.05162e-08
-4.33867e-08
3.51957e-08
-6.58691e-08
6.43048e-08
-8.8748e-08
9.82211e-08
-1.12507e-07
1.36943e-07
-1.38151e-07
1.79866e-07
-1.64482e-07
2.26726e-07
-1.90892e-07
2.76919e-07
-2.17463e-07
-2.35236e-07
3.24176e-07
2.42007e-08
-3.49451e-08
-5.58187e-09
4.59548e-08
-6.47977e-08
7.20228e-08
-9.1939e-08
1.02796e-07
-1.19816e-07
1.3853e-07
-1.48555e-07
1.802e-07
-1.79605e-07
2.26297e-07
-2.10562e-07
2.68877e-07
-2.33418e-07
2.44569e-07
-1.77794e-07
-1.75282e-07
2.37926e-07
5.32337e-08
-5.75216e-08
-3.20241e-08
7.60463e-08
-8.75378e-08
1.02286e-07
-1.18184e-07
1.32188e-07
-1.50365e-07
1.67399e-07
-1.84302e-07
2.07507e-07
-2.1966e-07
2.41333e-07
-2.4428e-07
1.99511e-07
-1.77763e-07
2.17435e-07
-1.92255e-07
-2.50194e-07
2.8621e-07
7.70875e-08
-7.66286e-08
-5.81222e-08
9.78214e-08
-1.08405e-07
1.21609e-07
-1.42105e-07
1.4857e-07
-1.77947e-07
1.79615e-07
-2.15974e-07
2.0082e-07
-2.41449e-07
1.51949e-07
-1.78713e-07
1.80095e-07
-2.02246e-07
2.7354e-07
-2.83397e-07
-4.10291e-07
4.29662e-07
9.24527e-08
-9.34103e-08
-7.5772e-08
1.10625e-07
-1.26409e-07
1.30613e-07
-1.62205e-07
1.52301e-07
-2.0021e-07
1.63343e-07
-2.27589e-07
1.03551e-07
-1.60237e-07
1.33471e-07
-1.96159e-07
2.51451e-07
-3.05248e-07
4.84493e-07
-5.48473e-07
-7.19522e-07
6.83994e-07
1.02966e-07
-1.07878e-07
-8.86576e-08
1.1801e-07
-1.41925e-07
1.32956e-07
-1.77668e-07
1.36375e-07
-2.04202e-07
7.05042e-08
-1.22609e-07
9.01599e-08
-1.53488e-07
2.14849e-07
-2.95038e-07
4.90273e-07
-6.13795e-07
6.64798e-07
-7.76547e-07
-8.3914e-07
7.84228e-07
1.1087e-07
-1.20939e-07
-9.84219e-08
1.2259e-07
-1.54503e-07
1.26856e-07
-1.82773e-07
6.54691e-08
-1.14282e-07
5.51682e-08
-7.96815e-08
1.5248e-07
-2.19803e-07
4.43658e-07
-5.98028e-07
6.2148e-07
-7.99527e-07
7.12512e-07
-8.67816e-07
-9.15765e-07
7.89056e-07
1.15764e-07
-1.31601e-07
-1.05103e-07
1.22981e-07
-1.61882e-07
8.75111e-08
-1.32929e-07
4.44819e-08
-5.02307e-08
7.91675e-08
-1.05412e-07
3.50397e-07
-4.51165e-07
5.62757e-07
-8.02358e-07
6.48439e-07
-8.85122e-07
7.18788e-07
-9.38139e-07
-9.79314e-07
7.82345e-07
1.12678e-07
-1.38257e-07
-1.06013e-07
1.01648e-07
-1.5085e-07
4.10818e-08
-5.10321e-08
5.44043e-08
-6.36981e-08
1.75091e-07
-2.25122e-07
4.9943e-07
-7.47229e-07
5.85912e-07
-8.88293e-07
6.52648e-07
-9.51721e-07
7.12688e-07
-9.98167e-07
-1.03343e-06
7.66813e-07
1.00072e-07
-1.37862e-07
-1.00461e-07
3.922e-08
-9.46161e-08
2.16767e-08
-3.56775e-08
4.94653e-08
-9.49738e-08
3.70596e-07
-4.34045e-07
5.1669e-07
-8.75126e-07
5.8771e-07
-9.58991e-07
6.47006e-07
-1.01094e-06
6.99244e-07
-1.05039e-06
-1.07885e-06
7.44662e-07
1.04329e-07
-1.35656e-07
-1.06539e-07
3.60195e-08
-5.03374e-08
4.26721e-08
-4.78255e-08
1.21364e-07
-1.79828e-07
4.6903e-07
-7.21269e-07
5.41218e-07
-9.46446e-07
5.94288e-07
-1.01191e-06
6.41014e-07
-1.05764e-06
6.82609e-07
-1.09198e-06
-1.1144e-06
7.18156e-07
6.1989e-08
-1.1958e-07
-1.05432e-07
2.27643e-08
-2.61964e-08
3.96285e-08
-7.08686e-08
2.64707e-07
-3.38183e-07
4.81224e-07
-9.07048e-07
5.39024e-07
-1.00392e-06
5.8398e-07
-1.05681e-06
6.23414e-07
-1.09706e-06
6.57649e-07
-1.12621e-06
-1.14232e-06
6.85576e-07
4.43208e-08
-7.83945e-08
-1.30643e-07
3.94552e-08
-2.72606e-08
8.04057e-08
-1.18207e-07
4.23927e-07
-6.5685e-07
4.93729e-07
-9.744e-07
5.34371e-07
-1.04449e-06
5.69816e-07
-1.09224e-06
6.01744e-07
-1.12899e-06
6.29068e-07
-1.15353e-06
-1.16344e-06
6.50188e-07
2.01981e-08
-3.56031e-08
-7.31273e-08
2.95894e-08
-4.25981e-08
1.69565e-07
-2.41633e-07
4.28585e-07
-9.03707e-07
4.7736e-07
-1.0231e-06
5.12759e-07
-1.07987e-06
5.4456e-07
-1.12404e-06
5.72806e-07
-1.15724e-06
5.95936e-07
-1.17666e-06
-1.17993e-06
6.12425e-07
1.18297e-08
-1.54001e-08
-3.99583e-08
3.07114e-08
-6.92166e-08
3.34397e-07
-5.26372e-07
4.18591e-07
-9.85587e-07
4.57118e-07
-1.06158e-06
4.89071e-07
-1.11181e-06
5.17804e-07
-1.15277e-06
5.42597e-07
-1.18203e-06
5.61828e-07
-1.19589e-06
-1.19225e-06
5.74148e-07
3.06056e-08
-1.51056e-08
-3.66783e-08
8.71518e-08
-1.3383e-07
3.75433e-07
-7.95335e-07
4.14084e-07
-1.02408e-06
4.39785e-07
-1.08726e-06
4.64908e-07
-1.13694e-06
4.89082e-07
-1.17694e-06
5.09886e-07
-1.20283e-06
5.25265e-07
-1.21127e-06
-1.20128e-06
5.34293e-07
1.42894e-08
-2.45567e-08
-9.6775e-09
1.78118e-07
-2.70346e-07
3.45761e-07
-9.52606e-07
3.78692e-07
-1.05693e-06
4.05329e-07
-1.11389e-06
4.31057e-07
-1.16266e-06
4.54397e-07
-1.20028e-06
4.72806e-07
-1.22124e-06
4.84615e-07
-1.22308e-06
-1.20624e-06
4.8958e-07
1.0841e-08
-3.35934e-08
-6.53344e-09
2.62161e-07
-4.8544e-07
3.22845e-07
-1.00928e-06
3.50326e-07
-1.08436e-06
3.75457e-07
-1.13902e-06
3.99638e-07
-1.18684e-06
4.20634e-07
-1.22128e-06
4.3608e-07
-1.23669e-06
4.44867e-07
-1.23187e-06
-1.20881e-06
4.47429e-07
3.07632e-08
-4.48513e-08
-8.03495e-09
2.74112e-07
-7.02194e-07
3.02853e-07
-1.03778e-06
3.2332e-07
-1.10481e-06
3.45092e-07
-1.16079e-06
3.66461e-07
-1.20821e-06
3.84183e-07
-1.239e-06
3.96124e-07
-1.24863e-06
4.01726e-07
-1.23747e-06
-1.20866e-06
4.01584e-07
7.28448e-08
-9.72284e-08
-4.98611e-10
2.40728e-07
-8.46395e-07
2.66158e-07
-1.06308e-06
2.88637e-07
-1.12727e-06
3.11167e-07
-1.18332e-06
3.31302e-07
-1.22835e-06
3.46284e-07
-1.25398e-06
3.54918e-07
-1.25726e-06
3.57246e-07
-1.2398e-06
-1.20467e-06
3.53252e-07
1.09073e-07
-1.89505e-07
-9.28129e-10
2.11349e-07
-9.41118e-07
2.36761e-07
-1.08845e-06
2.59825e-07
-1.15033e-06
2.81285e-07
-1.20478e-06
2.99271e-07
-1.24633e-06
3.1195e-07
-1.26666e-06
3.19224e-07
-1.26454e-06
3.21636e-07
-1.24221e-06
-1.20122e-06
3.18186e-07
1.22773e-07
-3.03878e-07
-3.26319e-09
1.91733e-07
-1.00929e-06
2.14436e-07
-1.11114e-06
2.34661e-07
-1.17056e-06
2.52824e-07
-1.22294e-06
2.67342e-07
-1.26085e-06
2.7725e-07
-1.27657e-06
2.83943e-07
-1.27123e-06
2.8956e-07
-1.24783e-06
-1.20693e-06
2.95266e-07
1.40136e-07
-4.40035e-07
-1.26149e-08
1.79961e-07
-1.04947e-06
1.96502e-07
-1.12768e-06
2.11337e-07
-1.18539e-06
2.24308e-07
-1.23591e-06
2.33263e-07
-1.2698e-06
2.37629e-07
-1.28094e-06
2.39323e-07
-1.27292e-06
2.40128e-07
-1.24863e-06
-1.20561e-06
2.38816e-07
1.43135e-07
-5.97344e-07
-4.905e-09
1.61458e-07
-1.06857e-06
1.73297e-07
-1.13952e-06
1.84971e-07
-1.19706e-06
1.9451e-07
-1.24545e-06
1.99218e-07
-1.27451e-06
1.99553e-07
-1.28127e-06
1.98042e-07
-1.27141e-06
1.96104e-07
-1.2467e-06
-1.1979e-06
1.88388e-07
1.09065e-07
-7.14084e-07
-4.02041e-09
1.26394e-07
-1.08592e-06
1.4154e-07
-1.15467e-06
1.55372e-07
-1.2109e-06
1.64752e-07
-1.25483e-06
1.67933e-07
-1.27769e-06
1.67237e-07
-1.28058e-06
1.65806e-07
-1.26998e-06
1.65143e-07
-1.24603e-06
-1.18368e-06
1.50925e-07
7.09058e-08
-7.88606e-07
-1.37562e-09
9.42657e-08
-1.10929e-06
1.14036e-07
-1.17444e-06
1.29914e-07
-1.22678e-06
1.38846e-07
-1.26376e-06
1.41475e-07
-1.28032e-06
1.41785e-07
-1.28089e-06
1.43166e-07
-1.27136e-06
1.48476e-07
-1.25134e-06
-1.15977e-06
1.24561e-07
5.69473e-08
-8.47737e-07
-9.41584e-11
7.8001e-08
-1.13034e-06
9.59598e-08
-1.1924e-06
1.09747e-07
-1.24056e-06
1.15444e-07
-1.26946e-06
1.16259e-07
-1.28114e-06
1.16465e-07
-1.28109e-06
1.18617e-07
-1.27352e-06
1.26909e-07
-1.25963e-06
-1.12703e-06
9.50179e-08
4.47293e-08
-8.95929e-07
-2.7744e-10
6.28306e-08
-1.14845e-06
7.85863e-08
-1.20815e-06
8.97021e-08
-1.25168e-06
9.15726e-08
-1.27133e-06
9.00233e-08
-1.27959e-06
8.85931e-08
-1.27966e-06
8.76771e-08
-1.2726e-06
9.05336e-08
-1.26249e-06
-1.09131e-06
5.62675e-08
2.61352e-08
-9.22267e-07
-9.2736e-10
4.47589e-08
-1.16707e-06
6.0469e-08
-1.22386e-06
6.93665e-08
-1.26058e-06
6.82443e-08
-1.27021e-06
6.49373e-08
-1.27628e-06
6.24183e-08
-1.27714e-06
5.88255e-08
-1.26901e-06
5.54728e-08
-1.25914e-06
-1.06271e-06
2.8279e-08
1.43472e-08
-9.39933e-07
3.85956e-09
3.12135e-08
-1.18393e-06
4.62453e-08
-1.2389e-06
5.16668e-08
-1.266e-06
4.79537e-08
-1.2665e-06
4.28664e-08
-1.27119e-06
3.95358e-08
-1.27381e-06
3.43014e-08
-1.26377e-06
2.57448e-08
-1.25058e-06
-1.04381e-06
8.18104e-09
9.40282e-09
-9.54744e-07
7.50232e-09
2.36814e-08
-1.1982e-06
3.75013e-08
-1.25272e-06
3.821e-08
-1.26671e-06
3.23747e-08
-1.26066e-06
2.54768e-08
-1.2643e-06
2.14498e-08
-1.26979e-06
1.64338e-08
-1.25876e-06
4.61393e-09
-1.23876e-06
-1.03809e-06
-3.59148e-17
1.62319e-08
-9.6987e-07
-7.25824e-12
2.26997e-08
-1.20466e-06
3.30232e-08
-1.26304e-06
2.84212e-08
-1.2621e-06
2.12561e-08
-1.25349e-06
1.30904e-08
-1.25613e-06
7.97126e-09
-1.26467e-06
5.97442e-09
-1.25676e-06
-5.90539e-09
-1.22688e-06
-1.04366e-06
6.06418e-54
6.11863e-09
-9.75227e-07
-4.14394e-11
1.93208e-08
-1.21787e-06
2.95827e-08
-1.2733e-06
2.17238e-08
-1.25425e-06
1.36147e-08
-1.24539e-06
4.50683e-09
-1.24702e-06
-2.95224e-09
-1.25721e-06
5.82276e-10
-1.26029e-06
-4.50396e-09
-1.2218e-06
-1.04788e-06
1.6737e-91
-2.71956e-09
-9.72475e-07
6.82136e-32
2.60948e-08
-1.24668e-06
3.04965e-08
-1.2777e-06
1.86588e-08
-1.24241e-06
9.00088e-09
-1.23573e-06
-1.23597e-09
-1.23679e-06
-1.3538e-08
-1.24491e-06
-6.01647e-09
-1.26782e-06
1.17619e-08
-1.23957e-06
-1.03607e-06
2.78917e-108
-1.79988e-08
2.03183e-67