/*--------------------------------*- C++ -*----------------------------------*\
  =========                 |
  \\      /  F ield         | OpenFOAM: The Open Source CFD Toolbox
   \\    /   O peration     | Website:  https://openfoam.org
    \\  /    A nd           | Version:  8
     \\/     M anipulation  |
\*---------------------------------------------------------------------------*/
FoamFile
{
    version     2.0;
    format      ascii;
    class       volScalarField;
    location    "4.85";
    object      epsilon;
}
// * * * * * * * * * * * * * * * * * * * * * * * * * * * * * * * * * * * * * //

dimensions      [0 2 -3 0 0 0 0];

internalField   nonuniform List<scalar> 
9150
(
0.031313
0.0124376
0.00309686
0.000936348
0.00044078
0.000440493
0.000935727
0.00309543
0.0124351
0.0313131
0.0302219
0.00874518
0.0017296
0.000600485
0.000331329
0.00033114
0.000600112
0.00172871
0.00874313
0.0302217
0.0284248
0.00694243
0.00111497
0.000491456
0.000296001
0.000295846
0.000491189
0.00111442
0.00694069
0.0284244
0.0264922
0.00600222
0.000834915
0.000458645
0.000285076
0.000284935
0.000458416
0.000834572
0.00600073
0.0264918
0.0244896
0.00559774
0.000695768
0.000451375
0.000283245
0.000283109
0.000451158
0.000695537
0.00559636
0.0244891
0.123419
0.0520773
0.022291
0.0135058
0.00958572
0.00959292
0.013532
0.0223562
0.0522476
0.123471
0.0761074
0.0229609
0.0130101
0.00859954
0.00595344
0.00595506
0.00860817
0.0130324
0.0229804
0.0761036
0.0553449
0.0178494
0.00756347
0.00448867
0.00291806
0.00291786
0.00449032
0.0075682
0.0178505
0.0553408
0.0424978
0.0152031
0.00476244
0.00226765
0.00132304
0.00132259
0.00226725
0.00476221
0.0151997
0.0424957
0.0356073
0.0136963
0.00350449
0.0012893
0.000668957
0.000668594
0.00128863
0.00350316
0.0136928
0.0356063
1.05468
0.160244
0.0478259
0.0208033
0.0122804
0.0121229
0.0203269
0.0474333
0.16817
1.44479
0.276113
0.120725
0.0457829
0.0205067
0.0123253
0.0122333
0.0202445
0.0450101
0.116157
0.279441
0.234474
0.104153
0.0446908
0.0202135
0.0123804
0.0123434
0.020121
0.0444611
0.102568
0.235323
0.196571
0.0914866
0.0439054
0.0199446
0.0124479
0.0124411
0.0199291
0.0438644
0.0913671
0.196896
0.155984
0.0860565
0.0402447
0.0187501
0.012083
0.0120911
0.0187777
0.0403191
0.08636
0.156101
0.00472808
0.00469538
0.00466307
0.00463046
0.00459696
0.00456209
0.00452549
0.00448692
0.00444638
0.00440428
0.00291273
0.00291219
0.00290889
0.00290264
0.00289326
0.00288067
0.00286487
0.00284591
0.00282394
0.002799
0.00274694
0.00275705
0.0027639
0.00276741
0.00276759
0.00276454
0.00275843
0.00274951
0.00273805
0.00272465
0.00284762
0.00286874
0.00288752
0.00290401
0.00291838
0.00293088
0.00294189
0.00295173
0.00296091
0.00296999
0.00307368
0.00311145
0.00314913
0.00318698
0.00322546
0.00326479
0.00330551
0.00334824
0.00339364
0.00344234
0.00341029
0.00347497
0.00354363
0.00361636
0.00369395
0.00377718
0.00386691
0.003964
0.00406929
0.00418355
0.00387764
0.00398479
0.00410161
0.00422921
0.0043688
0.00452163
0.00468892
0.0048718
0.00507131
0.00528825
0.00451245
0.00468441
0.00487527
0.00508688
0.00532108
0.00557959
0.00586389
0.00617517
0.00651416
0.00688115
0.00536626
0.00563415
0.00593413
0.00626881
0.00664047
0.00705088
0.00750111
0.00799135
0.00852081
0.00908768
0.00650085
0.00690431
0.0073571
0.00786211
0.00842123
0.00903502
0.00970248
0.0104209
0.0111858
0.0119913
0.00797927
0.00856346
0.00921701
0.00994177
0.0107375
0.0116016
0.0125288
0.0135113
0.0145391
0.0156005
0.00985092
0.01066
0.0115584
0.012545
0.0136155
0.014762
0.0159734
0.0172358
0.0185333
0.0198486
0.0121343
0.0132031
0.0143778
0.0156528
0.0170181
0.0184597
0.0199604
0.021501
0.0230609
0.0246187
0.014806
0.0161542
0.0176201
0.019193
0.020857
0.0225919
0.0243755
0.0261851
0.0279987
0.0297939
0.0178046
0.019437
0.0211964
0.0230676
0.0250294
0.027056
0.0291201
0.0311973
0.0332682
0.035317
0.021046
0.022958
0.0250082
0.02718
0.0294489
0.0317836
0.03415
0.03652
0.0388786
0.0412231
0.0244456
0.0266277
0.0289651
0.0314441
0.0340421
0.0367249
0.0394486
0.042174
0.0448887
0.0476031
0.0279445
0.0303888
0.033011
0.035805
0.0387569
0.0418378
0.0449958
0.0481682
0.0513458
0.0545643
0.0315211
0.0342325
0.037149
0.040272
0.0435985
0.0471147
0.0507771
0.0545092
0.058296
0.0621989
0.035165
0.0381627
0.0413994
0.0448794
0.0486017
0.0525581
0.056744
0.0611737
0.0657927
0.0706016
0.0388659
0.0421781
0.0457764
0.0496707
0.0538626
0.0583529
0.0631915
0.0684537
0.0740623
0.0799764
0.0426534
0.0463181
0.0503296
0.0547058
0.0594636
0.064648
0.0703485
0.0766174
0.0833722
0.0905791
0.0465995
0.0506746
0.0551794
0.0601401
0.0655913
0.0716276
0.0783825
0.0858614
0.0939946
0.102742
0.0508149
0.0553673
0.0604502
0.066108
0.0724213
0.0795287
0.0875533
0.0964898
0.10629
0.116896
0.0554302
0.0605391
0.0663002
0.0727838
0.0801283
0.0885418
0.0981308
0.108874
0.120728
0.133609
0.0606409
0.0664039
0.0729638
0.0804427
0.0890642
0.0990627
0.110554
0.123518
0.1379
0.153582
0.0666723
0.0732109
0.0807282
0.0894218
0.0995925
0.111517
0.125331
0.141021
0.158515
0.177654
0.0737399
0.0812172
0.0899135
0.100099
0.112155
0.126414
0.143062
0.162108
0.183445
0.206856
0.0820782
0.0907147
0.10088
0.112909
0.127274
0.144397
0.164527
0.187721
0.213818
0.242504
0.0920103
0.102108
0.114097
0.128386
0.145606
0.166312
0.190778
0.21912
0.25113
0.286342
0.1039
0.115829
0.130107
0.147262
0.168032
0.193139
0.223078
0.257971
0.297417
0.340708
0.118435
0.132698
0.149817
0.170439
0.195639
0.226533
0.26352
0.306702
0.355326
0.408496
0.136625
0.154027
0.174651
0.199357
0.230176
0.268988
0.315474
0.368628
0.427911
0.49323
0.159732
0.181655
0.207315
0.238093
0.276174
0.323373
0.379917
0.445073
0.518753
0.600395
0.188609
0.216916
0.250295
0.289978
0.338032
0.396348
0.465942
0.546933
0.638901
0.740395
0.224081
0.260963
0.304998
0.357658
0.420793
0.495925
0.584137
0.685852
0.800351
0.925471
0.267825
0.316371
0.375071
0.445686
0.530045
0.629281
0.743754
0.873052
1.01554
1.168
0.322782
0.386951
0.465373
0.560087
0.672711
0.803656
0.952109
1.11609
1.2924
1.47655
0.39304
0.47775
0.581586
0.706789
0.854553
1.02432
1.21369
1.41868
1.63415
1.8543
0.482641
0.593422
0.728647
0.890252
1.07906
1.29339
1.52919
1.78013
2.03898
2.29911
0.595418
0.738581
0.911847
1.1161
1.35064
1.61282
1.89727
2.19584
2.50007
2.804
0.734055
0.916508
1.13459
1.38703
1.67143
1.98352
2.31642
2.66093
3.01116
3.36092
0.895706
1.12212
1.38896
1.69333
2.03062
2.39488
2.77782
3.17045
3.56692
3.96085
1.06924
1.34159
1.65888
2.01636
2.40755
2.82497
3.25955
3.7022
4.14574
4.58297
1.23967
1.55748
1.92501
2.33532
2.77985
3.24974
3.73572
4.22842
4.71863
5.19834
1.39211
1.7539
2.17168
2.63522
3.13265
3.65358
4.18851
4.72708
5.25947
5.77745
1.51475
1.91756
2.38638
2.90575
3.45568
4.02386
4.60342
5.18357
5.75156
6.29795
1.60299
2.03946
2.55963
3.14717
3.75311
4.35971
4.97662
5.59132
6.18435
6.74239
1.6762
2.14172
2.71184
3.3646
4.02
4.66215
5.31734
5.96165
6.56191
7.10189
1.74423
2.24238
2.88038
3.4894
4.09178
4.82265
5.50818
6.11878
6.66064
7.15032
1.74085
2.21822
2.81788
3.47331
3.97363
4.5576
5.18016
5.76025
6.29659
6.79694
1.65814
2.08974
2.6086
3.20864
3.78443
4.25516
4.7678
5.2863
5.78517
6.25526
1.50213
1.87671
2.32676
2.85738
3.4673
4.00387
4.40287
4.80565
5.20818
5.59551
1.28967
1.58787
1.94427
2.36029
2.83499
3.35344
3.80615
4.17536
4.51752
4.82855
1.07481
1.29641
1.56058
1.86604
2.20663
2.56995
2.93187
3.27374
3.5846
3.86349
0.901528
1.05976
1.24659
1.46178
1.70091
1.9561
2.21761
2.47576
2.7235
2.95545
0.784109
0.899272
1.03272
1.18443
1.35234
1.53356
1.72355
1.9176
2.11192
2.30265
0.718796
0.80927
0.912263
1.02814
1.15632
1.29639
1.4471
1.60662
1.7731
1.94496
0.695831
0.77645
0.86751
0.969792
1.08399
1.21123
1.35231
1.50715
1.67485
1.85454
0.703608
0.785213
0.877899
0.983053
1.10205
1.23782
1.39461
1.57552
1.77873
1.99047
0.727871
0.817654
0.921316
1.03971
1.17144
1.32167
1.49518
1.69005
1.8986
2.10864
0.749915
0.846666
0.957564
1.08514
1.22761
1.38466
1.55509
1.73059
1.92239
2.14422
0.747813
0.849538
0.967189
1.10297
1.2579
1.43232
1.62802
1.85354
2.11826
2.43052
0.748214
0.861442
0.996651
1.1574
1.34805
1.56864
1.82601
2.13007
2.49104
2.91728
0.771118
0.906274
1.07207
1.27467
1.51584
1.80127
2.13822
2.53554
3.00273
3.5475
0.827438
0.996098
1.20615
1.46305
1.77399
2.14548
2.58342
3.09388
3.68238
4.34929
0.930942
1.14515
1.41499
1.75089
2.16134
2.65238
3.22678
3.88486
4.61586
5.37358
1.08816
1.36842
1.72683
2.17782
2.73208
3.39442
4.16039
5.00669
5.84273
6.44472
1.31325
1.69078
2.17874
2.79755
3.5619
4.47108
5.48225
6.42713
6.96462
6.93079
1.63209
2.14726
2.81966
3.68126
4.75321
5.99868
7.15181
7.64719
7.35953
6.71886
2.07164
2.77713
3.70987
4.92382
6.43793
7.98248
8.57272
8.0084
7.11446
6.27664
2.66316
3.63258
4.93889
6.66889
8.74045
9.79102
8.99584
7.78834
6.72551
5.85851
3.44756
4.79119
6.64764
9.12996
11.1848
10.533
8.89074
7.47118
6.35363
5.49257
4.47554
6.35816
9.03008
12.2754
12.6683
10.5577
8.62594
7.12793
5.99671
5.17772
5.78496
8.38746
12.1274
14.6589
12.785
10.2763
8.25951
6.74563
5.65058
4.92074
7.41422
10.8938
15.4005
15.8402
12.6964
9.93354
7.85888
6.35817
5.33891
4.74072
9.50814
14.185
18.2549
15.9721
12.3258
9.47831
7.40725
5.96878
5.07238
4.65162
12.1116
18.0594
20.0472
15.7231
11.8397
8.9544
6.91771
5.58559
4.86231
4.66871
15.7698
22.4133
20.6174
15.2106
11.1664
8.31153
6.37798
5.21656
4.72591
4.81326
20.177
24.6394
19.3767
14.1915
10.3187
7.59416
5.82578
4.89254
4.6904
5.11102
24.6246
26.0273
18.912
13.4041
9.50993
6.87893
5.29978
4.64176
4.78153
5.58792
29.2715
25.4524
17.838
12.3465
8.5765
6.12654
4.80367
4.48133
5.02067
6.2678
32.1129
24.2043
16.6258
11.2617
7.64296
5.40068
4.37254
4.43383
5.4263
7.16917
35.4761
23.7793
15.6004
10.2228
6.73925
4.71897
4.01754
4.50759
6.00852
8.31029
36.2708
22.3937
14.2134
9.09665
5.84363
4.08118
3.73823
4.69918
6.76788
9.70879
30.1844
19.7252
12.7298
8.05324
5.02067
3.50306
3.52856
4.99224
7.69372
11.3768
28.2462
18.4241
11.7304
7.18695
4.26771
2.96861
3.36411
5.35543
8.77402
13.3679
27.2843
17.568
10.8916
6.37193
3.53816
2.45793
3.2132
5.73727
9.97689
15.7712
26.5061
16.728
10.0243
5.53182
2.81508
1.96776
3.0395
6.04889
11.1791
18.5233
26.0578
15.9103
9.09947
4.66186
2.12033
1.51014
2.80611
6.17783
12.1734
21.361
25.7013
15.0802
8.13947
3.80198
1.4984
1.10362
2.48771
6.0178
12.6941
23.8028
25.5723
14.2812
7.15872
2.97636
0.979293
0.761731
2.08476
5.50773
12.4742
25.1892
25.3481
13.2717
6.06029
2.17926
0.575913
0.492026
1.62633
4.65407
11.2862
24.5894
24.5691
11.8494
4.82204
1.45206
0.298167
0.295757
1.16675
3.5724
9.12774
20.9616
22.9073
9.9888
3.53564
0.863857
0.136674
0.165022
0.767392
2.49446
6.6095
15.6884
19.8086
7.70923
2.32223
0.45138
0.0585545
0.0852963
0.461689
1.59548
4.32296
10.473
15.3445
5.24116
1.31925
0.205814
0.0269539
0.0416079
0.252283
0.941104
2.56564
6.11498
9.27293
2.87673
0.617499
0.0849729
0.0162052
0.0211978
0.123588
0.514288
1.41391
3.1725
4.4019
1.30723
0.250058
0.0385303
0.0131407
0.0138884
0.0544232
0.255904
0.75307
1.47747
1.16517
0.469897
0.09309
0.0237927
0.0123804
0.0122198
0.0257386
0.109133
0.411971
0.798426
0.00435962
0.00431804
0.00428514
0.00425846
0.00423511
0.00421298
0.00419016
0.00416488
0.00413585
0.00410234
0.00406398
0.00402107
0.00397517
0.00392857
0.00388314
0.0038396
0.00380021
0.00377156
0.00375644
0.00373925
0.00373925
0.000886075
0.00375158
0.00374815
0.00374575
0.000885768
0.00088624
0.000885599
0.000884944
0.0037423
0.00374782
0.000883263
0.00084918
0.000790924
0.000719263
0.000637736
0.000547162
0.000446551
0.000332285
0.000511
0.00276993
0.00273745
0.0027041
0.00267041
0.00263665
0.00260283
0.00256877
0.00253419
0.00249877
0.00246224
0.00242443
0.00238536
0.00234508
0.00230356
0.00226048
0.0022151
0.00216655
0.00211437
0.00205895
0.00200085
0.00194151
0.00187962
0.00183311
0.0017763
0.00171206
0.00163201
0.00154791
0.00145376
0.00134614
0.00123112
0.00109037
0.000935081
0.000823264
0.000741627
0.000670387
0.00060633
0.000551651
0.000515001
0.000527406
0.000800889
0.0027089
0.00269111
0.00267286
0.00265469
0.00263694
0.00261974
0.00260306
0.00258674
0.00257049
0.00255393
0.00253661
0.002518
0.00249755
0.00247461
0.00244846
0.00241836
0.0023837
0.00234424
0.00230037
0.00225321
0.00220462
0.00215791
0.002111
0.00205912
0.00199846
0.00192613
0.00183994
0.00173829
0.00162113
0.00149088
0.00135238
0.00121455
0.00108899
0.000978503
0.000881764
0.000798755
0.000735061
0.000705085
0.000749414
0.00114084
0.00298005
0.0029919
0.00300553
0.00302135
0.00303954
0.00306009
0.00308275
0.00310705
0.00313238
0.00315792
0.00318269
0.00320559
0.00322539
0.00324086
0.0032508
0.00325418
0.00325027
0.00323887
0.00322034
0.00319584
0.0031678
0.00314094
0.00311861
0.00309208
0.0030541
0.00299901
0.00292258
0.00282043
0.00268838
0.00252456
0.0023329
0.00212768
0.00192677
0.00173724
0.00155364
0.00137043
0.00120407
0.00109307
0.00108632
0.00148871
0.0034979
0.00356226
0.00363266
0.00370934
0.00379224
0.00388095
0.00397471
0.00407248
0.00417296
0.00427466
0.00437592
0.0044749
0.00456968
0.00465841
0.00473948
0.00481168
0.00487453
0.00492834
0.0049741
0.00501357
0.00505021
0.00509159
0.0051607
0.00524673
0.00534147
0.00543855
0.00553145
0.00560825
0.0056488
0.00562293
0.00550353
0.00529544
0.00501649
0.00466128
0.00419381
0.0035737
0.00286383
0.00225137
0.00183556
0.00194186
0.00431432
0.00446548
0.00462969
0.00480683
0.00499626
0.00519668
0.00540624
0.00562267
0.00584362
0.00606681
0.0062901
0.00651137
0.00672849
0.00693974
0.00714427
0.00734224
0.00753562
0.00772859
0.00792664
0.00813629
0.00836755
0.00864026
0.00899323
0.00948382
0.0101093
0.0108752
0.0117842
0.0128167
0.0139127
0.0149485
0.0157482
0.0161633
0.0160567
0.0153495
0.0139312
0.0118213
0.0091439
0.00636119
0.00404884
0.00282741
0.00553593
0.00582099
0.00612851
0.00645737
0.00680545
0.00716944
0.00754508
0.00792787
0.00831409
0.00870145
0.0090892
0.00947735
0.00986618
0.0102565
0.0106518
0.0110586
0.0114881
0.0119597
0.0124966
0.0131267
0.0138854
0.0148295
0.0160425
0.0176797
0.0198675
0.0226182
0.0259146
0.0296265
0.0335308
0.0371833
0.0401507
0.0418242
0.0419653
0.0405146
0.0373927
0.0325902
0.026435
0.0188661
0.0108527
0.00486723
0.00729665
0.00777007
0.00827467
0.0088071
0.00936249
0.00993394
0.0105128
0.0110912
0.0116649
0.0122348
0.0128074
0.0133909
0.0139942
0.0146263
0.0153018
0.0160439
0.0168887
0.0178964
0.0191401
0.020709
0.0227149
0.0252932
0.0285935
0.0327385
0.0379247
0.0442869
0.0513705
0.0585358
0.0650566
0.0703466
0.0740993
0.0761318
0.0763558
0.0745729
0.0707885
0.0646856
0.0558061
0.0437321
0.0280764
0.0087133
0.00972004
0.0104286
0.0111702
0.0119386
0.0127263
0.0135221
0.0143109
0.0150794
0.0158257
0.0165614
0.0173117
0.0181054
0.0189695
0.0199278
0.0210091
0.0222708
0.0238036
0.0257422
0.0282578
0.0315163
0.0356848
0.040925
0.0473478
0.0549133
0.0634238
0.0726939
0.0820386
0.0904595
0.0973523
0.102491
0.105781
0.107332
0.107271
0.105595
0.102107
0.0965775
0.0885438
0.0772634
0.0616462
0.0508399
0.0128719
0.0138368
0.0148238
0.0158249
0.016834
0.0178394
0.0188176
0.0197451
0.0206229
0.021487
0.0223982
0.0234245
0.0246151
0.025999
0.0276176
0.029581
0.0320673
0.035287
0.0394606
0.0447624
0.051306
0.0591404
0.0682273
0.0783338
0.0890235
0.0996457
0.109387
0.117487
0.12366
0.127875
0.130242
0.130996
0.130376
0.128531
0.125501
0.121324
0.1159
0.108814
0.0987194
0.0900266
0.0167353
0.0179489
0.0191592
0.0203584
0.0215482
0.0227266
0.0238683
0.0249296
0.0259088
0.0268761
0.0279436
0.029217
0.0307666
0.0326143
0.0347964
0.0374944
0.0409749
0.0454765
0.0511999
0.0582592
0.0666842
0.0764392
0.0874084
0.0992552
0.111319
0.122747
0.132593
0.140254
0.145587
0.148714
0.149922
0.149577
0.14802
0.145549
0.142454
0.139108
0.135937
0.133427
0.132216
0.137461
0.0212265
0.0226685
0.0240743
0.0254357
0.0267608
0.0280643
0.0293396
0.0305315
0.0316208
0.0326992
0.0339264
0.0354338
0.0372849
0.0395011
0.042161
0.0455198
0.0498953
0.0555021
0.0624771
0.070913
0.0808332
0.0921786
0.10478
0.118246
0.131767
0.144275
0.154577
0.161954
0.166402
0.168305
0.16817
0.166504
0.163739
0.160259
0.156456
0.152872
0.150412
0.150753
0.158334
0.191153
0.0262243
0.0278781
0.0294684
0.0309884
0.0324384
0.0338365
0.0352005
0.0365337
0.037821
0.0391077
0.0405325
0.0421975
0.0441603
0.0465925
0.0497926
0.0539552
0.0592596
0.0658877
0.0739979
0.0837101
0.0950643
0.108
0.122338
0.137695
0.153232
0.167379
0.178269
0.184966
0.187998
0.188243
0.186482
0.183323
0.179228
0.174587
0.169804
0.165466
0.162703
0.164246
0.179004
0.24922
0.0316283
0.0335067
0.0353077
0.0370153
0.0386218
0.040144
0.041637
0.0431715
0.0447537
0.0463745
0.0480568
0.0498851
0.0520558
0.0549102
0.0587799
0.063846
0.0702262
0.078088
0.0876107
0.0989077
0.11199
0.126786
0.143156
0.160848
0.178997
0.195079
0.205631
0.210125
0.210677
0.20872
0.205133
0.200477
0.19515
0.18949
0.183866
0.178862
0.175714
0.177831
0.197807
0.31037
0.0374192
0.03958
0.0416563
0.0436293
0.0455013
0.0473145
0.0491171
0.0509558
0.0528447
0.0547978
0.0568702
0.0591706
0.0619243
0.0654851
0.0702213
0.076405
0.0842112
0.093817
0.10537
0.118899
0.134339
0.151583
0.170469
0.190762
0.211706
0.228975
0.235997
0.236355
0.233845
0.229655
0.224403
0.218463
0.212123
0.205656
0.199407
0.193976
0.19072
0.193535
0.217572
0.372871
0.0436543
0.0461922
0.0486611
0.0510609
0.053401
0.0557083
0.0580073
0.0603237
0.062703
0.0651853
0.0678622
0.0708769
0.0744864
0.0790397
0.0849357
0.092545
0.1022
0.11412
0.128315
0.14469
0.163157
0.183624
0.205924
0.229732
0.252474
0.265308
0.266076
0.262596
0.25765
0.251765
0.245248
0.238333
0.231235
0.224197
0.217559
0.211968
0.208924
0.212721
0.24061
0.436638
0.0504491
0.0534838
0.0565308
0.0595802
0.0626219
0.0656445
0.0686752
0.0717533
0.0749287
0.0782567
0.0818428
0.0858653
0.0906283
0.0964684
0.103782
0.113022
0.124708
0.139312
0.156563
0.176129
0.198042
0.222315
0.248617
0.274245
0.291005
0.295577
0.293661
0.289008
0.282963
0.27612
0.268815
0.261296
0.253787
0.246528
0.23986
0.234448
0.231895
0.236993
0.270095
0.504177
0.0579963
0.0617342
0.0655654
0.0694719
0.0734281
0.077421
0.0814664
0.0856049
0.0898951
0.0944136
0.0992961
0.104771
0.111131
0.118703
0.12786
0.139048
0.152815
0.169938
0.190335
0.213132
0.23843
0.266362
0.293358
0.311845
0.320907
0.323466
0.321633
0.317073
0.310893
0.303786
0.296223
0.288556
0.281081
0.274067
0.267849
0.263078
0.261451
0.268375
0.307642
0.586354
0.0664308
0.0711094
0.0759465
0.080929
0.0860292
0.091233
0.0965543
0.102038
0.107761
0.113835
0.120431
0.127794
0.136224
0.146047
0.157618
0.171349
0.187755
0.207498
0.231299
0.258131
0.287493
0.316476
0.337145
0.347985
0.353798
0.35565
0.353974
0.349673
0.343618
0.336541
0.329042
0.32159
0.314587
0.308331
0.303142
0.299649
0.299653
0.309292
0.356322
0.698066
0.0758653
0.0817178
0.0878109
0.0941079
0.100578
0.107209
0.114021
0.121074
0.128475
0.136376
0.14498
0.154545
0.165393
0.177894
0.19246
0.209569
0.229834
0.253982
0.282441
0.313799
0.344038
0.366646
0.38013
0.38865
0.393597
0.395019
0.393247
0.388929
0.38284
0.375806
0.368567
0.361708
0.355673
0.350776
0.347304
0.345851
0.348392
0.362255
0.42183
0.858464
0.0864873
0.0937579
0.101346
0.10919
0.117241
0.125479
0.133929
0.142671
0.151851
0.161672
0.172374
0.184225
0.197597
0.212982
0.230899
0.251926
0.276771
0.306147
0.339273
0.371392
0.396744
0.414417
0.427019
0.43569
0.440501
0.441679
0.439633
0.435027
0.428792
0.421883
0.415192
0.409447
0.405162
0.402611
0.401922
0.403455
0.409175
0.427733
0.501578
1.04351
0.0985681
0.107517
0.116857
0.12649
0.136333
0.146344
0.15654
0.16702
0.177971
0.189662
0.202398
0.216555
0.232628
0.251143
0.272643
0.297659
0.326742
0.359956
0.394481
0.424344
0.447762
0.465946
0.479584
0.488626
0.493397
0.494259
0.491698
0.486615
0.480152
0.473581
0.468089
0.464621
0.463776
0.465707
0.470085
0.476407
0.485603
0.506524
0.588477
1.21222
0.11249
0.123428
0.134831
0.146546
0.158442
0.170442
0.182557
0.194896
0.207682
0.221228
0.235906
0.25256
0.271886
0.294005
0.31943
0.348614
0.381753
0.417572
0.451485
0.480552
0.504418
0.523426
0.537242
0.546166
0.550538
0.550653
0.54711
0.541181
0.5345
0.528928
0.526135
0.527454
0.533722
0.544984
0.560055
0.576184
0.590287
0.607036
0.676142
1.28811
0.128765
0.14209
0.155956
0.17014
0.184451
0.198775
0.213115
0.227604
0.24252
0.258258
0.27537
0.294984
0.317905
0.344139
0.373953
0.407727
0.444818
0.4822
0.515841
0.543847
0.56705
0.5853
0.598553
0.606854
0.610119
0.608559
0.60314
0.595896
0.589446
0.586478
0.589405
0.600398
0.621106
0.651997
0.690915
0.730516
0.756687
0.76118
0.783502
1.11186
0.148067
0.164297
0.181153
0.198334
0.215583
0.232752
0.249842
0.267029
0.284678
0.303345
0.3238
0.347058
0.373989
0.404855
0.439571
0.478172
0.518127
0.554306
0.585418
0.611654
0.633165
0.64999
0.661939
0.668446
0.669251
0.664737
0.656625
0.648308
0.64362
0.646281
0.66007
0.688985
0.736877
0.806312
0.894963
0.985639
1.03157
1.03518
1.05111
1.19107
0.171229
0.191037
0.211576
0.232457
0.25337
0.274151
0.294798
0.315534
0.336827
0.359368
0.384035
0.411805
0.443455
0.479567
0.519984
0.563378
0.604254
0.637473
0.664243
0.686381
0.704085
0.717368
0.725535
0.727791
0.724014
0.715328
0.704777
0.696767
0.696374
0.70905
0.741097
0.800089
0.894773
1.03387
1.2132
1.37148
1.41636
1.53506
1.44445
1.67582
0.199242
0.223471
0.248563
0.274036
0.299522
0.324825
0.349956
0.375181
0.401018
0.428202
0.457611
0.490146
0.526646
0.567695
0.61291
0.658414
0.696813
0.725351
0.746788
0.763242
0.775291
0.782861
0.785113
0.78127
0.771573
0.758422
0.745941
0.739591
0.746251
0.77426
0.833912
0.938642
1.10495
1.34331
1.59006
1.66563
1.88002
1.94152
1.54045
2.08162
0.233306
0.262975
0.293659
0.32476
0.355822
0.386604
0.417113
0.447629
0.478677
0.510961
0.545293
0.582478
0.623174
0.66768
0.71467
0.758114
0.790719
0.812322
0.826647
0.835642
0.840268
0.840599
0.835981
0.825551
0.809905
0.792156
0.7775
0.773257
0.789134
0.837349
0.932114
1.0858
1.27686
1.463
1.64825
1.91367
2.19983
1.85637
1.42672
2.24274
0.274937
0.311271
0.348777
0.386703
0.424475
0.461771
0.498563
0.535119
0.571935
0.609651
0.648945
0.69042
0.734476
0.780692
0.826038
0.863055
0.886647
0.899052
0.903427
0.901895
0.896507
0.888201
0.876391
0.859586
0.837506
0.813551
0.794739
0.790554
0.813642
0.879803
0.997358
1.13113
1.26075
1.43933
1.68473
1.87435
1.74183
1.38376
1.19514
2.11344
0.326137
0.370627
0.416441
0.462617
0.508405
0.553367
0.597412
0.640765
0.683853
0.727199
0.771297
0.816488
0.862723
0.908442
0.948257
0.974975
0.987385
0.987644
0.978427
0.962862
0.944573
0.926048
0.90705
0.883919
0.85282
0.819141
0.792396
0.782677
0.801481
0.858871
0.943978
1.04122
1.15441
1.27705
1.35181
1.3058
1.15564
0.999117
0.959374
1.82025
0.389538
0.444004
0.499931
0.55605
0.611351
0.665222
0.717471
0.768242
0.817866
0.866711
0.915076
0.963058
1.00969
1.05154
1.0819
1.0958
1.09433
1.07899
1.05272
1.01987
0.985527
0.954358
0.928506
0.898909
0.854488
0.807727
0.771487
0.753181
0.759465
0.79479
0.862325
0.939949
0.988915
1.00147
0.979763
0.924393
0.845766
0.7738
0.785842
1.49903
0.468445
0.535252
0.603576
0.671644
0.738078
0.802053
0.86327
0.921796
0.977847
1.0316
1.08313
1.13222
1.17699
1.21142
1.22885
1.22743
1.20828
1.17322
1.12629
1.07316
1.02003
0.9724
0.933076
0.895413
0.845448
0.790531
0.74713
0.720234
0.712465
0.724457
0.751663
0.782428
0.797962
0.795201
0.775827
0.741832
0.699675
0.666152
0.696875
1.2745
0.567306
0.649699
0.73324
0.815454
0.894568
0.969592
1.04019
1.10641
1.16839
1.22608
1.27919
1.32679
1.36523
1.38722
1.38802
1.36734
1.32644
1.26826
1.19816
1.12326
1.05098
0.986695
0.932391
0.887088
0.838417
0.78275
0.735609
0.702194
0.683221
0.67706
0.679431
0.685506
0.689307
0.68701
0.67725
0.6609
0.642818
0.635952
0.686829
1.19927
0.692912
0.794712
0.896415
0.994803
1.08775
1.17415
1.25366
1.32633
1.39218
1.45088
1.50178
1.54319
1.56935
1.57313
1.5531
1.50973
1.44431
1.36135
1.26765
1.17215
1.08362
1.0075
0.94493
0.892437
0.842576
0.790451
0.743082
0.707264
0.683079
0.668552
0.660939
0.65762
0.655743
0.653234
0.649137
0.644066
0.641773
0.653483
0.725017
1.24016
0.854786
0.979144
1.1014
1.21748
1.32483
1.42216
1.50913
1.58576
1.65207
1.70784
1.75207
1.78119
1.78863
1.76947
1.72387
1.65327
1.56015
1.45092
1.33397
1.21996
1.1183
1.03358
0.964455
0.905746
0.853518
0.80537
0.763896
0.731385
0.706801
0.689746
0.679471
0.674065
0.671593
0.670677
0.670413
0.671546
0.67795
0.701698
0.79402
1.37195
1.06488
1.21402
1.35826
1.4927
1.61425
1.72137
1.81352
1.89067
1.95284
2.00021
2.03179
2.04148
2.02265
1.97427
1.898
1.79629
1.6733
1.53676
1.39744
1.26709
1.15442
1.06299
0.989251
0.926688
0.873177
0.827689
0.791091
0.763038
0.741998
0.727368
0.718912
0.715337
0.715106
0.716858
0.719976
0.725501
0.737694
0.770751
0.883643
1.56684
1.33485
1.51034
1.67727
1.82993
1.96462
2.07936
2.17337
2.2464
2.29872
2.33054
2.33976
2.32082
2.26864
2.18543
2.07441
1.94039
1.78791
1.62462
1.4651
1.32123
1.1994
1.10113
1.02253
0.95773
0.904462
0.862746
0.830933
0.806813
0.789093
0.777488
0.77153
0.769964
0.771635
0.775939
0.782741
0.793316
0.812295
0.855039
0.988016
1.79924
1.67384
1.87732
2.06731
2.23742
2.38329
2.5024
2.5935
2.65628
2.69135
2.69976
2.67914
2.62397
2.5326
2.40956
2.26082
2.09351
1.91249
1.7258
1.54879
1.39233
1.26067
1.15372
1.06824
1.00098
0.949644
0.911751
0.884217
0.86429
0.850321
0.841562
0.837396
0.837005
0.839751
0.845511
0.854753
0.869444
0.895322
0.949653
1.10804
2.05229
2.08556
2.3194
2.5334
2.72043
2.87545
2.99545
3.07906
3.12644
3.13766
3.11262
3.05321
2.95541
2.82116
2.65729
2.47165
2.27178
2.06272
1.85275
1.65733
1.48581
1.34167
1.22482
1.13285
1.06271
1.01118
0.97481
0.949984
0.933399
0.922655
0.916297
0.913473
0.913673
0.916753
0.923093
0.933877
0.951955
0.984566
1.05287
1.24494
2.32545
2.56848
2.83628
3.07657
3.2811
3.44391
3.5614
3.63244
3.65819
3.64096
3.58068
3.47725
3.33219
3.15283
2.9483
2.72633
2.49188
2.24877
2.01109
1.79314
1.60285
1.44362
1.31554
1.21641
1.14276
1.09046
1.05505
1.03202
1.01732
1.00795
1.00212
0.998964
0.998313
1.00052
1.00655
1.01831
1.03969
1.07966
1.16345
1.39285
2.6343
3.11669
3.42404
3.69552
3.92124
4.09387
4.20908
4.26586
4.26459
4.20817
4.10433
3.95304
3.75982
3.53651
3.29296
3.03253
2.75507
2.47192
2.20206
1.95726
1.74489
1.56857
1.42851
1.32222
1.24544
1.19285
1.1585
1.13645
1.12165
1.11074
1.10216
1.09561
1.09156
1.09101
1.09552
1.10766
1.13224
1.17997
1.28023
1.55075
2.99216
3.71998
4.07175
4.38016
4.63211
4.81746
4.93032
4.96975
4.93895
4.8423
4.68955
4.48823
4.25052
3.98724
3.7021
3.3912
3.06089
2.73389
2.42778
2.15246
1.91589
1.72187
1.57035
1.45818
1.37994
1.32863
1.29605
1.27378
1.25536
1.23782
1.22104
1.20622
1.19497
1.18899
1.19031
1.20192
1.22935
1.28493
1.40282
1.72038
3.4001
4.36553
4.76428
5.11551
5.40155
5.60767
5.72403
5.74518
5.67444
5.5343
5.33737
5.09455
4.82001
4.51475
4.17136
3.79372
3.40584
3.03187
2.68623
2.37952
2.11998
1.911
1.75166
1.63774
1.56235
1.51614
1.48709
1.46178
1.43208
1.39803
1.36371
1.33328
1.3097
1.29503
1.29127
1.30137
1.33127
1.39478
1.53116
1.89975
3.85829
5.03139
5.47609
5.87182
6.19745
6.43393
6.56648
6.57573
6.45852
6.27078
6.03522
5.76183
5.4521
5.086
4.66239
4.21152
3.76616
3.34664
2.96466
2.63328
2.35978
2.14592
1.9891
1.88382
1.82176
1.7896
1.76654
1.72852
1.66907
1.59956
1.53294
1.4772
1.4356
1.4092
1.39893
1.40702
1.43936
1.51113
1.6669
2.09042
4.36482
5.68876
6.17582
6.61329
6.98073
7.25698
7.40951
7.37748
7.22288
7.00636
6.75058
6.45355
6.08812
5.63025
5.11959
4.60196
4.10463
3.64548
3.24161
2.90472
2.63903
2.44285
2.31094
2.23677
2.21172
2.21474
2.20003
2.11712
1.97842
1.83961
1.72293
1.6334
1.57014
1.53088
1.5141
1.52065
1.55607
1.63679
1.81267
2.29178
4.91923
6.30275
6.8218
7.28981
7.69104
8.00327
8.16255
8.10258
7.96005
7.75023
7.4959
7.16743
6.70281
6.12942
5.52165
4.92894
4.38187
3.90254
3.50674
3.2006
2.98217
2.84412
2.77672
2.77382
2.82841
2.84494
2.83571
2.65996
2.33584
2.09149
1.91556
1.79174
1.70879
1.65896
1.63779
1.64445
1.68425
1.77516
1.97307
2.51227
5.52712
6.8462
7.38673
7.87966
8.31525
8.66543
8.77366
8.82008
8.71461
8.55414
8.33854
7.95346
7.3124
6.56619
5.83123
5.16136
4.58823
4.13095
3.79607
3.5801
3.47276
3.45987
3.51534
3.59353
3.61281
3.76388
3.64302
3.06387
2.61008
2.29729
2.08416
1.94022
1.84689
1.79251
1.77058
1.77962
1.82522
1.9274
2.14929
2.75703
6.18384
7.29168
7.83073
8.32951
8.7904
9.16002
9.3991
9.46355
9.46196
9.42805
9.3029
8.81205
7.80868
6.82987
5.97569
5.27435
4.7425
4.38497
4.19648
4.16383
4.27125
4.51652
4.56378
4.60433
4.8726
4.61725
3.80738
3.17326
2.73195
2.42537
2.2139
2.07133
1.9801
1.92877
1.9109
1.92529
1.97827
2.0922
2.33748
3.01216
6.85008
7.61415
8.10277
8.54452
8.95098
9.31904
9.62076
9.7657
9.9552
10.0615
10.1545
9.24523
7.86345
6.74921
5.88917
5.27169
4.89381
4.7534
4.84235
5.12761
5.42671
5.47035
5.83794
5.94811
5.2301
4.32577
3.62644
3.11778
2.75142
2.49029
2.3076
2.18429
2.10688
2.06629
2.05753
2.08039
2.14242
2.26845
2.53614
3.27483
7.51639
7.62532
8.07536
8.47706
8.8422
9.1692
9.45093
9.68881
9.94213
10.2627
9.85587
8.43105
7.23035
6.29153
5.61942
5.22388
5.12628
5.35943
5.94554
6.07188
6.40034
6.88159
6.27846
5.28677
4.47035
3.83927
3.35658
2.99165
2.71966
2.52115
2.38095
2.28735
2.23149
2.20722
2.21139
2.24514
2.31744
2.45562
2.74447
3.54363
8.17469
7.28322
7.74241
8.14514
8.49783
8.802
9.06437
9.29512
9.45992
9.28715
8.35736
7.2921
6.4044
5.73225
5.31142
5.1903
5.44009
6.11126
6.15532
6.86328
6.39742
5.60284
4.91215
4.31902
3.82932
3.43527
3.12279
2.87874
2.6923
2.55459
2.45812
2.39651
2.36459
2.35863
2.37715
2.42255
2.50518
2.65483
2.96313
3.8191
8.82426
6.7126
7.14473
7.52065
7.83799
8.08767
8.26044
8.34903
8.24783
7.71007
6.92859
6.20499
5.60729
5.18293
4.97807
5.05149
5.44304
5.59818
6.10413
5.515
4.96246
4.47814
4.06532
3.71636
3.42474
3.18403
2.9881
2.83185
2.71128
2.62298
2.56372
2.53036
2.52008
2.53085
2.56239
2.61814
2.70963
2.86897
3.1944
4.10374
9.47344
5.97916
6.34627
6.66475
6.92204
7.08944
7.13756
7.04404
6.72305
6.23733
5.72766
5.2645
4.8966
4.66245
4.59853
4.73277
4.87946
5.17126
4.88311
4.50613
4.17177
3.88231
3.63301
3.42062
3.24158
3.09225
2.96972
2.87197
2.79766
2.74565
2.71467
2.70323
2.70983
2.73349
2.77479
2.83791
2.93545
3.10168
3.4414
4.40136
10.1388
5.1247
5.40021
5.62833
5.79129
5.88019
5.86162
5.68229
5.40487
5.09378
4.78921
4.52591
4.33504
4.24103
4.26484
4.39483
4.58878
4.57427
4.33488
4.09948