/*--------------------------------*- C++ -*----------------------------------*\
  =========                 |
  \\      /  F ield         | OpenFOAM: The Open Source CFD Toolbox
   \\    /   O peration     | Website:  https://openfoam.org
    \\  /    A nd           | Version:  8
     \\/     M anipulation  |
\*---------------------------------------------------------------------------*/
FoamFile
{
    version     2.0;
    format      ascii;
    class       volScalarField;
    location    "4.85";
    object      p_rgh;
}
// * * * * * * * * * * * * * * * * * * * * * * * * * * * * * * * * * * * * * //

dimensions      [1 -1 -2 0 0 0 0];

internalField   nonuniform List<scalar> 
9150
(
2560.55
2533.55
2508.05
2490.85
2482.55
2482.54
2490.83
2508.02
2533.52
2560.52
2551.31
2531.76
2516.1
2504.3
2498.32
2498.32
2504.29
2516.08
2531.74
2551.28
2541.65
2528.1
2519.55
2511.79
2507.68
2507.68
2511.78
2519.53
2528.08
2541.63
2536.56
2526.56
2521.08
2515.72
2512.75
2512.75
2515.71
2521.07
2526.54
2536.54
2534.89
2525.99
2521.4
2517.23
2514.78
2514.78
2517.22
2521.38
2525.98
2534.87
2095.84
2091.85
2116.99
2131.27
2137.89
2137.8
2131
2116.59
2091.28
2095.07
2285.49
2261.38
2256.02
2254.82
2254.95
2254.9
2254.68
2255.79
2261.09
2285.19
2409.54
2378.22
2362.31
2352.45
2347.8
2347.78
2352.37
2362.18
2378.07
2409.41
2509.72
2467.58
2439.78
2422.45
2413.97
2413.95
2422.41
2439.71
2467.5
2509.66
2579.96
2527.31
2488.71
2466.68
2456.55
2456.54
2466.65
2488.66
2527.27
2579.93
1916.11
1951.95
1940.01
1948.04
1944.16
1943.03
1947.65
1938.35
1948.02
1907.62
1942.95
1959.37
1940.51
1946.88
1943.34
1942.51
1946.84
1937.27
1956.39
1936.87
1918.55
1949.25
1917.97
1924.49
1927.6
1927.36
1924.02
1915.58
1946.87
1914.55
1758.89
1883.26
1900.76
1918.89
1934.89
1934.72
1918.09
1899.04
1881.99
1755.58
1633.68
1871.29
1967.68
1997.73
2013.31
2013.16
1997.22
1966.88
1870.37
1631.32
1815.34
1815.45
1815.56
1815.67
1815.78
1815.9
1816.01
1816.13
1816.26
1816.38
1815.46
1815.57
1815.68
1815.8
1815.91
1816.02
1816.14
1816.26
1816.38
1816.5
1815.54
1815.65
1815.76
1815.87
1815.99
1816.1
1816.21
1816.33
1816.45
1816.56
1815.56
1815.67
1815.78
1815.89
1816
1816.11
1816.22
1816.33
1816.45
1816.56
1815.53
1815.64
1815.75
1815.85
1815.96
1816.06
1816.17
1816.27
1816.38
1816.49
1815.46
1815.56
1815.66
1815.76
1815.86
1815.96
1816.06
1816.16
1816.26
1816.36
1815.35
1815.45
1815.55
1815.64
1815.73
1815.83
1815.92
1816.01
1816.1
1816.18
1815.22
1815.31
1815.4
1815.49
1815.58
1815.66
1815.74
1815.82
1815.9
1815.98
1815.07
1815.16
1815.25
1815.33
1815.41
1815.48
1815.55
1815.62
1815.68
1815.74
1814.92
1815
1815.08
1815.16
1815.23
1815.29
1815.35
1815.4
1815.45
1815.49
1814.77
1814.84
1814.92
1814.98
1815.04
1815.09
1815.13
1815.17
1815.2
1815.22
1814.61
1814.69
1814.75
1814.81
1814.86
1814.89
1814.92
1814.93
1814.94
1814.94
1814.46
1814.53
1814.59
1814.64
1814.67
1814.69
1814.7
1814.7
1814.68
1814.66
1814.32
1814.38
1814.43
1814.47
1814.49
1814.5
1814.49
1814.46
1814.42
1813.22
1814.17
1814.23
1814.28
1814.31
1814.32
1814.32
1814.29
1813.64
1810.69
1810.18
1814.03
1814.08
1814.13
1814.15
1814.17
1814.17
1814.15
1813.3
1810.88
1809.72
1813.89
1813.94
1813.98
1814
1813.99
1813.94
1813.92
1813.72
1812.94
1808.72
1813.74
1813.77
1813.79
1813.79
1813.68
1813.35
1813.62
1813.76
1813.28
1809.86
1813.59
1813.6
1813.6
1813.56
1813.48
1812.03
1802.1
1802.31
1813.98
1814.32
1813.48
1813.49
1813.49
1813.46
1813.42
1800.56
1778.9
1790.84
1813.99
1813.99
1813.4
1813.45
1813.52
1813.6
1809.13
1775.5
1774.78
1788.98
1813.55
1813.69
1813.18
1813.15
1813.1
1812.76
1785.75
1770.76
1770.65
1802.55
1814.11
1813.99
1813.05
1813.11
1813.11
1801.74
1766.45
1767.54
1775.73
1813.91
1813.9
1813.91
1812.53
1812.59
1812.07
1780.86
1764.75
1764.59
1794.3
1813.98
1813.9
1813.89
1812.49
1812.54
1801.86
1760.7
1761.42
1766.45
1813.46
1813.66
1813.69
1813.76
1812.47
1811.76
1777.97
1758.6
1758.91
1766.86
1813.22
1813.3
1813.41
1813.56
1812.24
1803.77
1756.43
1756.42
1756.39
1758
1806.7
1813
1813.12
1813.3
1812.18
1806.88
1759.51
1754.4
1754.41
1754.39
1772.59
1812.42
1812.59
1812.84
1812
1811.14
1797
1759.24
1752.45
1752.75
1770.79
1811.69
1811.88
1812.2
1811.66
1811.48
1811.56
1805.97
1787.84
1775.4
1797.19
1810.34
1810.76
1811.22
1810.51
1809.84
1809.01
1808.15
1807.94
1808.55
1809.38
1809.52
1809.73
1810.16
1809.37
1805.63
1768.63
1683.66
1658.27
1789.05
1808.51
1807.66
1807.35
1808.19
1787.61
1643.13
1543.54
1533.17
1532.24
1568.44
1638.43
1615.58
1614.56
1745.96
1774.54
1549.22
1528.41
1528.13
1527.96
1527.89
1528.5
1531.9
1535.53
1600.23
1803.43
1689.11
1548.25
1523.53
1523.8
1523.79
1523.99
1524.59
1581.08
1675.68
1811.88
1809.02
1764.84
1680.21
1630.77
1628.68
1679.63
1734.96
1781.25
1802.56
1810.79
1811.03
1811.52
1811.55
1809.5
1808.93
1812.49
1812.62
1812.07
1811.28
1808.65
1808.2
1807.78
1807.81
1807.61
1807.6
1808.01
1807.96
1807.72
1807.38
1806.43
1770.07
1725.05
1713.41
1768.12
1801.15
1803.75
1803.73
1803.5
1803.31
1719.89
1683.7
1683.19
1683.06
1682.79
1753.19
1801.9
1799.95
1792.81
1798.86
1727.35
1679.94
1679
1682.36
1742.71
1769.34
1759.59
1630.54
1682.47
1795.05
1788.64
1744.58
1735.56
1780.04
1798.61
1775.57
1637.01
1602.9
1601.41
1721.1
1799.56
1798.24
1797.14
1796.26
1794.71
1763.33
1593.98
1593.39
1592.79
1592.76
1797.77
1795.98
1794.27
1792.65
1791
1775.33
1620.27
1585.01
1584.41
1583.13
1795.89
1793.62
1791.32
1789.07
1786.89
1783.67
1726.2
1608.76
1595.79
1688.73
1794.36
1791.63
1788.82
1786.14
1783.74
1781.44
1775.93
1762.52
1759.72
1773.62
1793.68
1790.25
1786.81
1782.5
1780.16
1779.71
1778.37
1775.06
1770.62
1766.55
1792.47
1787.71
1673.44
1477.07
1521.62
1586.69
1592.29
1484.95
1388.97
1318.96
1791.2
1709.81
1176.93
873.133
896.374
916.302
913.978
868.718
841.302
829.137
1795.64
1419.98
840.808
820.112
819.839
819.638
819.249
818.83
818.583
818.478
1803.48
1397.13
822.427
818.836
818.714
818.621
818.547
818.479
818.45
818.425
1815.72
1676.25
986.63
818.613
818.618
818.545
818.482
818.444
818.412
818.381
1829.56
1829.08
1627.72
962.363
818.308
818.435
818.471
818.481
818.461
818.427
1839.67
1841.42
1842.64
1651.22
982.215
817.374
817.853
818.049
818.131
818.172
1734.98
1632.9
1644.7
1646.37
1485.2
1376.91
1208.19
1027.75
932.128
887.267
1605.67
1611.08
1613.29
1613.37
1655.07
1827.34
1838.17
1766.91
1688.99
1629.9
1697.09
1660.33
1619.79
1648.3
1826.91
1862.27
1862.94
1862.63
1862.76
1862.5
1851.72
1839.9
1810.78
1846.68
1866.25
1867.17
1867.17
1867.06
1865.68
1864.39
1868.03
1869.46
1870.55
1870.46
1870.14
1871.77
1874.44
1796.93
1669.84
1475.36
1874.33
1877.39
1867.13
1636.84
1430.16
1246.06
1091.52
996.227
948.913
927.663
1348.69
1096.58
990.789
923.662
909.09
905.1
904.387
906.119
908.663
926.486
915.026
913.744
914.317
915.85
927.973
941.818
986.427
1140.64
1499.26
1889.34
1333.46
1514.33
1567.05
1638.8
1741.45
1876.91
1910.18
1909.99
1912.14
1915.37
1882.4
1890.96
1894.88
1898.12
1901.46
1904.6
1907.65
1911.11
1915.24
1919.92
1883.05
1888.7
1892.98
1896.93
1900.86
1904.74
1908.46
1912.1
1915.96
1920.67
1859.83
1885.1
1891.45
1894.98
1893.59
1900.53
1906.86
1910.14
1913.74
1913.57
1771.28
1884.89
1890.47
1890.33
1891.42
1897.84
1905.49
1907.95
1783.32
1539.16
1778.93
1882.37
1889.04
1891.35
1890.69
1897.87
1905.15
1745.69
1216.86
1224.34
1880.14
1882.89
1886.41
1888.69
1892.67
1896.46
1632.83
1150.33
1177.33
1199.8
1876.49
1877.75
1879.54
1883.07
1886.38
1567.98
1069.34
1091.66
1206.22
1577.4
1868.04
1868.92
1870.74
1873.37
1528.49
954.188
975.712
1237.58
1842.62
1890.79
1863.24
1864.16
1863.19
1591
817.075
842.617
1205.31
1845.01
1880.91
1872.95
1862
1860.23
1783.58
819.621
700.575
935.964
1789.44
1877.03
1870
1857.92
1857.57
1855.08
984.381
631.341
643.502
1635.91
1875
1868.8
1856.94
1843.04
1855.94
1562.17
597.456
604.035
997.925
1817.12
1862.84
1854.86
1842.73
1828.61
1850.52
874.605
555.533
563.19
1462.41
1862.55
1858.44
1846.3
1832.52
1817.41
1736.81
592.876
538.759
687.214
1725.72
1855.89
1848.53
1836.37
1822.66
1807.51
1270.46
479.396
505.377
1286.27
1853.19
1853.64
1843.01
1830.16
1815.93
1800.46
728.018
468.502
482.49
1656.65
1859.83
1850.8
1838.15
1824.65
1810.16
1794.68
488.429
448.09
1045.89
1829.1
1853.2
1845.23
1833.75
1820.47
1805.87
1790.37
382.9
401.36
1483.65
1870.47
1860.66
1847.57
1833.83
1819.18
1803.57
1787.2
376.32
545.369
1748.18
1867.98
1858.03
1845.46
1832.01
1817.57
1802.3
1786.63
363.756
983.626
1847.99
1866.11
1856.87
1845.07
1831.63
1816.84
1801.1
1784.89
320.118
1314.57
1880.12
1871.73
1860.27
1847.74
1833.89
1818.82
1802.83
1786.12
283.619
1580.77
1887.01
1875.17
1862.72
1850.17
1836.91
1823.03
1808.95
1795.2
498.226
1723.5
1882.41
1872.64
1861.63
1850.01
1837.5
1824.53
1812.12
1801.56
654.682
1807.4
1878.99
1870.75
1860.99
1849.97
1837.3
1823.29
1808.29
1791.88
873.482
1864.19
1882.66
1874.43
1865.03
1854.31
1841.97
1828.34
1813.62
1798.34
1126
1895.22
1890.93
1881.17
1871.48
1861.15
1849.92
1838.12
1826.39
1816.63
1349.3
1903.84
1893.96
1884.36
1875.36
1866.27
1856.93
1848.01
1840.98
1837.22
1459.9
1897.39
1891.51
1884.13
1876.5
1868.5
1860.2
1852.56
1846.8
1840.28
1525.8
1898.14
1892.26
1885.44
1878.07
1870.24
1861.86
1853.68
1845.43
1752.54
1584.12
1901.26
1894.54
1887.73
1880.42
1872.81
1864.58
1856.22
1846.75
1635.07
1615.16
1902.44
1896.41
1890.07
1883.45
1876.6
1868.97
1860.81
1851.24
1585.71
1615.8
1902.27
1898.06
1892.73
1887.58
1882.15
1875.68
1868.55
1860.25
1560.75
1594.65
1901.08
1900.56
1896.56
1893.03
1889.21
1884.17
1878.74
1872.27
1565.63
1589.46
1905.17
1905.59
1902.28
1899.88
1897.33
1893.33
1889.69
1884.31
1616.88
1649.99
1908.5
1911.12
1910.32
1909.14
1907.48
1904.05
1902.26
1896.01
1674.26
1719.83
1925.19
1923.78
1923.22
1921.53
1920.35
1919.23
1920.45
1917.75
1749.02
1832.04
1950.85
1938.26
1937.49
1934.15
1933.11
1935.83
1939.25
1950.47
1828.19
1816.51
1816.66
1816.81
1816.97
1817.13
1817.3
1817.48
1817.67
1817.86
1818.06
1818.27
1818.48
1818.71
1818.94
1819.19
1819.44
1819.69
1819.95
1820.22
1820.48
1820.75
1821.02
1821.28
1821.54
1821.8
1822.04
1822.27
1822.5
1822.71
1822.91
1823.05
1823.17
1823.27
1823.35
1823.41
1823.45
1823.47
1823.48
1823.48
1823.45
1816.63
1816.78
1816.93
1817.08
1817.24
1817.41
1817.58
1817.76
1817.95
1818.14
1818.35
1818.56
1818.78
1819
1819.23
1819.47
1819.72
1819.96
1820.22
1820.47
1820.73
1820.99
1821.25
1821.5
1821.75
1821.97
1822.2
1822.41
1822.6
1822.78
1822.95
1823.1
1823.22
1823.31
1823.38
1823.43
1823.46
1823.47
1823.46
1823.43
1816.69
1816.83
1816.98
1817.13
1817.29
1817.45
1817.62
1817.79
1817.98
1818.17
1818.37
1818.58
1818.79
1819.01
1819.24
1819.48
1819.72
1819.97
1820.22
1820.48
1820.74
1821
1821.26
1821.51
1821.75
1821.99
1822.22
1822.43
1822.64
1822.83
1822.99
1823.13
1823.26
1823.36
1823.43
1823.47
1823.49
1823.48
1823.46
1823.43
1816.68
1816.82
1816.96
1817.1
1817.25
1817.41
1817.57
1817.74
1817.92
1818.11
1818.31
1818.52
1818.73
1818.95
1819.19
1819.43
1819.67
1819.93
1820.19
1820.46
1820.73
1821
1821.27
1821.52
1821.79
1822.05
1822.31
1822.55
1822.76
1822.95
1823.11
1823.25
1823.38
1823.48
1823.55
1823.57
1823.55
1823.52
1823.48
1823.43
1816.6
1816.73
1816.86
1817
1817.14
1817.29
1817.45
1817.61
1817.79
1817.98
1818.17
1818.38
1818.59
1818.82
1819.06
1819.31
1819.57
1819.84
1820.11
1820.4
1820.68
1820.97
1821.27
1821.57
1821.89
1822.18
1822.46
1822.72
1822.96
1823.16
1823.32
1823.46
1823.57
1823.68
1823.74
1823.69
1823.59
1823.53
1823.46
1823.4
1816.47
1816.58
1816.7
1816.83
1816.96
1817.1
1817.25
1817.41
1817.58
1817.76
1817.96
1818.16
1818.38
1818.61
1818.86
1819.12
1819.39
1819.67
1819.96
1820.25
1820.57
1820.92
1821.26
1821.6
1821.94
1822.28
1822.61
1822.94
1823.17
1822.96
1822.49
1822.25
1822.37
1822.81
1823.15
1822.99
1822.43
1822.32
1822.34
1822.22
1816.28
1816.39
1816.5
1816.61
1816.73
1816.86
1816.99
1817.14
1817.3
1817.47
1817.65
1817.86
1818.08
1818.32
1818.57
1818.83
1819.09
1819.37
1819.67
1819.98
1820.33
1820.71
1821.1
1821.48
1821.86
1822.17
1822.18
1821.77
1820.4
1820.54
1821.01
1821.17
1821.25
1822.05
1822.84
1822.54
1821.64
1821.41
1821.14
1821.09
1816.06
1816.15
1816.24
1816.34
1816.44
1816.55
1816.67
1816.79
1816.94
1817.1
1817.27
1817.46
1817.67
1817.89
1818.12
1818.4
1818.67
1818.72
1818.7
1819.13
1819.87
1820.26
1820.63
1821.04
1821.03
1817.95
1817.88
1818.44
1818.79
1820.52
1823.2
1823.41
1823.32
1822.59
1823.04
1822.93
1822.44
1821.5
1821.17
1820.24
1815.81
1815.88
1815.95
1816.02
1816.09
1816.18
1816.27
1816.37
1816.49
1816.62
1816.63
1816.64
1816.88
1817.36
1817.53
1817.27
1817.22
1817.49
1817.73
1818.68
1819.01
1819.22
1818.79
1814.9
1814.93
1815.34
1815.76
1817.82
1821.65
1822.09
1822.04
1819.85
1819.57
1819.92
1820.43
1822.12
1822.3
1821.95
1821.43
1820.84
1815.53
1815.57
1815.61
1815.65
1815.69
1815.74
1815.81
1815.89
1815.55
1815.4
1815.53
1815.65
1816.37
1816.66
1816.75
1816.18
1816.3
1816.55
1817.46
1817.51
1817.53
1815.04
1812.07
1812.07
1812.09
1812.36
1817.49
1818.58
1818.94
1819.41
1817.77
1816.95
1817.5
1817.99
1818.37
1818.56
1819.73
1820.97
1820.53
1819.73
1815.23
1815.24
1815.25
1815.25
1815.22
1815.04
1815
1815.13
1815.07
1814.74
1814.79
1815.53
1815.64
1815.72
1815.82
1815.42
1815.3
1816.03
1815.96
1815.82
1815.6
1812.97
1809.03
1808.73
1808.75
1814.64
1814.87
1815.07
1815.48
1816.05
1816.74
1816.63
1815.95
1816.01
1816.33
1816.36
1816.79
1817.21
1819.34
1818.35
1814.93
1814.91
1814.87
1814.87
1814.6
1813.43
1813.16
1814.37
1814.53
1814.63
1814.73
1814.66
1813.73
1810.66
1813
1814.7
1814.66
1814.52
1814.24
1813.85
1813.35
1812.69
1810.06
1805.21
1807.13
1810.97
1810.92
1811.17
1811.65
1812.33
1813.14
1814.05
1815
1815.95
1816.81
1817
1815.5
1814.6
1814.83
1814.87
1814.61
1813.72
1813.63
1813.87
1814.31
1813.86
1805.26
1802.78
1811.84
1814.52
1814.54
1812.48
1800.2
1799.61
1807.81
1813.68
1813.45
1813.09
1812.61
1811.99
1811.26
1810.4
1809.39
1807.26
1804.48
1806.1
1806.88
1807.29
1807.9
1808.67
1809.56
1810.53
1811.5
1812.45
1813.33
1814.09
1814.69
1813.75
1810.45
1809.91
1812.03
1811.95
1813.53
1813.68
1809.9
1799.84
1800.18
1800.18
1801.38
1813.25
1807.38
1796.18
1796.62
1796.64
1803.35
1813.05
1812.53
1811.96
1811.28
1810.47
1809.5
1808.31
1806.48
1798.89
1792.79
1792.55
1802.98
1804.13
1804.76
1805.55
1806.44
1807.38
1808.31
1809.19
1809.94
1810.46
1810.72
1807.24
1802.78
1806.42
1810.1
1811.68
1809.44
1799.15
1798.88
1798.98
1798.98
1799.58
1800.6
1795
1794.94
1794.99
1795.08
1795.92
1812.31
1812.47
1811.8
1811.14
1810.44
1809.65
1808.7
1807.58
1806.12
1772.96
1707.19
1745.39
1802.66
1802.67
1802.91
1803.45
1804.17
1804.98
1805.8
1806.59
1807.28
1807.34
1800.53
1786.59
1784.76
1792.31
1807.23
1798.51
1798.01
1798.18
1798.41
1798.48
1812.67
1814.29
1799.15
1794.19
1794.06
1793.61
1809.33
1811.26
1812.69
1811.87
1810.99
1810.05
1808.75
1809.42
1808.79
1808.41
1784.55
1689.38
1693.12
1725.78
1801.77
1801.76
1801.87
1802.22
1802.74
1803.36
1804.04
1804.75
1805.43
1805.12
1785.59
1780.78
1780.7
1780.38
1797.04
1797.12
1797.14
1797.13
1806.54
1814.58
1815.13
1814.91
1808.8
1795.03
1797.43
1812.92
1813.71
1813.08
1812.17
1801.95
1786.47
1798.1
1810.13
1809.4
1808.48
1774.02
1669.03
1674.26
1706.04
1803.04
1802.25
1801.8
1801.63
1801.7
1801.94
1802.33
1802.83
1803.41
1804.07
1803.84
1782.4
1777.97
1777.97
1777.93
1796.15
1796.33
1796.23
1809.68
1814.74
1814.66
1814.58
1814.38
1813.41
1812.16
1812.32
1813.61
1813.31
1812.86
1812.24
1807.37
1780.66
1768.19
1800.81
1765.56
1659.73
1640.33
1642.13
1733.64
1806.06
1804.44
1803.3
1802.51
1801.99
1801.7
1801.62
1801.71
1801.96
1802.36
1802.9
1803.48
1798.42
1777.93
1775.79
1776.03
1804.51
1797.85
1809.58
1814.3
1814.31
1814.3
1814.25
1814.13
1813.99
1813.86
1813.71
1813.54
1813.33
1813.03
1812.62
1811.75
1804.57
1736.95
1640.3
1629.18
1631.18
1632.69
1675.17
1809.45
1807.89
1806.13
1804.67
1803.52
1802.63
1801.97
1801.52
1801.26
1801.18
1801.23
1801.67
1802.21
1802.94
1799.83
1789.69
1775.08
1813.65
1813.28
1814.04
1814.1
1814.11
1814.1
1814.07
1814
1813.89
1813.78
1813.71
1813.71
1813.76
1813.87
1813.94
1814.07
1796.15
1653.7
1622.51
1623.37
1623.87
1663.14
1810.51
1811.44
1809.3
1807.45
1805.84
1804.46
1803.28
1802.29
1801.51
1800.85
1800.15
1799.86
1800.05
1800.54
1801.03
1801.82
1802.88
1789.47
1813.81
1813.9
1813.96
1814.01
1814.03
1814.02
1813.98
1813.91
1813.71
1813.24
1813.44
1813.59
1812.53
1814.44
1815.08
1815.77
1796.7
1642
1617.06
1616.46
1695.64
1817.86
1814.7
1812.33
1810.32
1808.5
1806.82
1805.3
1803.9
1802.62
1801.51
1800.47
1799.27
1798.67
1798.31
1798.64
1798.9
1799.66
1801.45
1804.09
1813.95
1813.96
1813.99
1814.02
1814.04
1814.04
1814
1813.9
1813.69
1811.31
1781.43
1775.74
1813.99
1814.92
1815.91
1817
1803.59
1653.54
1612.72
1700.12
1817.91
1816.1
1814.31
1812.53
1810.82
1809.18
1807.58
1805.87
1804.41
1802.91
1801.44
1800.06
1798.67
1797.27
1796.51
1796.16
1795.8
1795.95
1797.47
1800.33
1813.94
1813.99
1814.06
1814.12
1814.2
1814.26
1814.3
1814.28
1814.12
1791.66
1736.66
1738.06
1807.4
1815.4
1815.69
1815.65
1749.43
1647.14
1657.25
1818.52
1817.31
1815.91
1814.24
1812.11
1809.75
1809.75
1806.16
1805.47
1805.05
1803.24
1801.41
1799.66
1798.05
1796.39
1795.15
1794.38
1793.63
1793.14
1777.69
1745.78
1813.94
1814.02
1814.13
1814.26
1814.41
1814.61
1814.82
1815.07
1815.12
1768.44
1731.26
1731.54
1753.32
1817.14
1817.53
1818.48
1731.3
1648.05
1787.36
1814.8
1815.48
1815.22
1810.36
1787.61
1777.71
1787.12
1788.13
1806.29
1806.02
1803.77
1801.6
1799.66
1798.09
1796.71
1796.03
1796.14
1797.9
1781.82
1674.17
1644.84
1813.87
1814
1814.16
1813.16
1811.96
1814.8
1815.1
1815.39
1815.54
1787.36
1727.42
1726.68
1724.65
1787.07
1756.31
1647.68
1680.14
1817.19
1816.68
1816.85
1817.03
1813.58
1779.98
1769.49
1768.95
1767.73
1786.13
1808.97
1806.91
1804.2
1801.57
1799.24
1797.09
1793.15
1770.45
1743.13
1696.71
1608.34
1648.69
1680.02
1813.74
1813.95
1812.98
1809.6
1809.91
1811.7
1815.42
1815.76
1816.14
1814.76
1787.96
1757.07
1744.9
1661.38
1626.66
1630.14
1671.26
1820.42
1820.04
1819.63
1817.89
1783.99
1770.2
1769.91
1769.46
1792.69
1810.18
1810.57
1807.5
1804.08
1800.35
1777.28
1694.98
1584.95
1473.36
1425.97
1387.89
1534.39
1793
1813.09
1813.53
1813.81
1811.59
1809.37
1809.75
1810.14
1811.55
1815.86
1816.75
1817.42
1818.13
1816.61
1801
1667.03
1621.56
1621.75
1705.3
1822.17
1821.92
1821.07
1796.65
1770.58
1770.63
1771.06
1807.81
1818.41
1815.81
1812.49
1808.63
1799.1
1691.72
1496.45
1367.07
1312.76
1306.33
1306.85
1308.67
1461.98
1762.75
1816.51
1813.15
1813.52
1813.01
1809.25
1809.54
1810.03
1810.54
1813
1816.95
1817.64
1818.38
1819.02
1814.64
1673.77
1615.52
1615.48
1755.85
1823.35
1823.33
1814.33
1770.8
1770.67
1771.02
1811.1
1823.02
1821.71
1819.51
1814.47
1790.61
1612.89
1367.03
1302.28
1303.01
1303.5
1304.07
1304.57
1304.75
1322.51
1723.9
1824
1812.59
1813.05
1813.5
1812.61
1810.63
1810.86
1812.99
1813.67
1815.41
1816.93
1818.53
1819.33
1795.62
1621.16
1609.26
1633.36
1821.04
1823.57
1823.72
1805.21
1770.45
1770.22
1794.18
1826.81
1827.34
1827.08
1825.86
1820.67
1655.69
1332.64
1300.66
1301.37
1302.14
1302.98
1303.65
1303.97
1303.82
1413.58
1793.18
1834.11
1811.76
1812.31
1812.88
1813.51
1814.12
1814.78
1815.59
1815.22
1814.8
1815.64
1817.78
1816.43
1690.38
1606.13
1604.33
1766.03
1824.05
1823.93
1823.92
1818.53
1782.79
1767.07
1795.9
1809.45
1831.58
1833.45
1834.76
1829.17
1524.72
1299.52
1299.99
1300.42
1300.88
1301.23
1304.42
1348.99
1453.36
1725.07
1833.77
1841.75
1810.79
1811.16
1812.16
1813.05
1813.83
1814.59
1815.36
1816.03
1816.3
1817.41
1818.38
1776.04
1599.27
1599.99
1688.68
1823.27
1823.35
1823.63
1823.58
1822.99
1821.67
1787.9
1608.86
1544.82
1784.79
1835.81
1840.54
1842.62
1573.47
1296.81
1296.94
1299.16
1337.52
1426.91
1563.07
1720.75
1806.53
1848.61
1846.54
1846.05
1808.06
1810.51
1811.46
1812.41
1813.26
1814.08
1814.87
1815.64
1816.37
1817.03
1816.1
1687.74
1601
1616.96
1821.83
1824.38
1824.5
1824.63
1824.4
1823.63
1822.92
1732.88
1439.89
1413.82
1597.35
1833.46
1837.4
1842.66
1822.04
1613.16
1504.44
1576.8
1727.28
1822.49
1861.62
1857.7
1854.59
1852.01
1849.74
1847.46
1806.35
1809.46
1810.74
1811.81
1812.72
1813.57
1814.45
1815.35
1816.33
1817.53
1810.22
1649.46
1596.44
1731.19
1822.94
1823.76
1824.65
1825.1
1824.89
1823.45
1779.33
1476.4
1390.16
1390.76
1396.2
1722.59
1835.19
1835.48
1838.18
1847
1850.5
1853.14
1855.1
1856.34
1856.46
1855.94
1854.65
1852.75
1850.29
1847.24
1802.16
1810.62
1811.27
1811.9
1812.49
1812.84
1812.98
1814.16
1814.71
1815.39
1779.5
1616.77
1615.32
1823.08
1822.91
1824.11
1825.39
1826.36
1826.73
1821.84
1584.89
1379.58
1381.44
1381.35
1379.58
1378.77
1588.17
1698.3
1790.57
1833.86
1841.87
1847.53
1850.8
1850.79
1851.84
1852.52
1852.11
1850.86
1848.8
1845.98
1795.96
1811.71
1811.65
1811.76
1811.96
1811.52
1811.34
1812.45
1813.02
1811.5
1670.86
1611.63
1708.83
1820.29
1821.57
1823.66
1825.95
1828.23
1830.21
1805.41
1482.93
1374.69
1376.27
1376.71
1376.69
1378.65
1385.85
1396.02
1569.59
1679.39
1743.52
1760.23
1742.52
1746.15
1778.12
1806.54
1833.31
1842.23
1845.53
1842.35
1803.33
1811.7
1811.19
1810.9
1810.75
1810.07
1809.28
1809.03
1809.67
1739.41
1544.89
1603.3
1815.52
1818.61
1819.42
1819.74
1819.32
1822.14
1831.45
1834.86
1608.25
1366.83
1369.23
1368.86
1417.75
1549.63
1586.97
1590.28
1571.25
1587.16
1645.12
1652.94
1663.52
1677.08
1706.23
1723.34
1762.46
1770.65
1802.79
1841.43
1810.29
1809.71
1809.31
1809.03
1808.85
1808.45
1807.81
1807.82
1804.93
1601.89
1530.01
1656.11
1812.87
1812.74
1813.61
1759.88
1697.11
1792.63
1828.64
1834.22
1840.23
1678.16
1454.18
1510.01
1800.85
1847.99
1846.33
1844.21
1839.04
1842
1843.27
1843.2
1840.53
1846.52
1839.31
1807.68
1747.4
1746.3
1746.97
1840.98
1806.99
1806.61
1806.35
1806.1
1805.81
1805.35
1804.64
1804.18
1708.5
1501.64
1511.96
1788.27
1809.58
1808.9
1758.86
1554.8
1590.72
1789.21
1820.32
1823.63
1827.43
1831.53
1831.92
1831.63
1832.73
1834.72
1836.01
1836.67
1837.22
1838.1
1839.41
1840.82
1842.19
1843.48
1844.46
1844.54
1792.35
1743.31
1742.33
1811.11
1803.19
1803.08
1802.98
1802.9
1802.78
1802.57
1802.65
1754.3
1469.65
1480.52
1590.55
1801.21
1803.77
1745.44
1498.87
1504.67
1604.24
1811.26
1812.32
1808.58
1806.96
1818.02
1820.8
1822.41
1824.51
1826.66
1828.53
1830.46
1832.42
1834.23
1835.89
1837.73
1839.58
1841.1
1842.24
1842.89
1842.8
1804.54
1742.22
1747.99
1798.97
1798.98
1798.9
1798.69
1798.23
1797.55
1797.26
1616.1
1457.55
1482.65
1797.3
1794.39
1762.6
1488.13
1473.57
1482.99
1759.91
1805.81
1802.62
1796.2
1797.64
1799.16
1808.43
1813.5
1815.9
1818.33
1820.88
1823.74
1826.8
1829.66
1831.95
1834.34
1836.57
1838.74
1840.18
1841.14
1841.48
1841.02
1812.69
1748.62
1794.84
1794.91
1794.93
1794.77
1794.39
1794.37
1724.07
1425.84
1435.85
1575.83
1788.35
1784.79
1542.96
1456.2
1457.27
1601.12
1800.23
1798.98
1798
1789.94
1788.73
1789.89
1794.22
1803.96
1806.6
1809.81
1813.13
1817.24
1821.34
1824.99
1828.05
1831.11
1833.93
1836.54
1838.38
1839.67
1840.31
1840.11
1837.76
1747.82
1791.29
1790.65
1790.35
1789.76
1789.02
1788.24
1579.68
1419.8
1450.06
1777.29
1779.79
1666.83
1435.91
1440.58
1464.32
1783.58
1792.84
1791.62
1790.91
1790.58
1786.67
1780.7
1789.29
1793.75
1796.6
1800.49
1805.29
1810.8
1815.86
1820.55
1824.69
1828.44
1831.99
1834.87
1837.2
1838.91
1839.92
1839.99
1837.7
1774.43
1729.28
1786.13
1785.51
1784.78
1784.58
1768.59
1488.82
1404.7
1603.39
1762.95
1746.61
1441.5
1426.61
1426.23
1675.9
1788.52
1786.59
1784.93
1783.59
1782.53
1781.77
1781.38
1781.41
1781.46
1784.38
1789.63
1797.4
1805.41
1811.58
1817.11
1822.18
1826.75
1830.79
1834.28
1837.18
1839.45
1841
1841.64
1840.76
1840.66
1702.91
1781.54
1779.15
1776.69
1775.86
1648.25
1228.38
1540.71
1746.76
1753.2
1574.13
1419.24
1416.22
1552.33
1783.14
1781.84
1780.24
1778.53
1776.76
1774.85
1772.69
1769.98
1764.04
1736.77
1681.46
1658.41
1741.28
1798.61
1810.82
1816.23
1821.56
1826.67
1831.32
1835.45
1839.01
1841.96
1844.23
1845.69
1846.2
1844.3
1752.96
1775.96
1772.68
1769.2
1763.85
1400.73
1197.49
1685.99
1723.06
1734.53
1568.47
1411.59
1607.26
1776.29
1776.29
1776.21
1775.33
1773.78
1771.6
1768.59
1764.24
1734.61
1512.55
1261.29
1092.17
1042.25
1251.15
1659.24
1811.28
1817.73
1823.39
1828.92
1834.21
1839.03
1843.34
1847.08
1850.21
1852.63
1854.16
1827.88
1772.09
1767.98
1762.36
1752.76
1498.63
1001.71
1147.28
1710.65
1710.11
1673.47
1473.12
1717.56
1777.31
1775.89
1775.91
1775.58
1774.52
1772.74
1770.14
1766.55
1702.33
1327.35
977.735
884.156
888.207
893.259
927.08
1444.38
1803.35
1822.86
1828.71
1834.4
1840.23
1845.76
1850.86
1855.52
1859.7
1863.34
1866.36
1839.05
1764.13
1731.43
1583.44
1290.24
943.253
839.61
1038.35
1515.03
1523.71
1234.51
1242.67
1748.59
1787.74
1783.81
1780.94
1778.97
1776.97
1774.58
1771.31
1635.75
1180.73
897.839
879.414
880.815
881.984
884.519
983.804
1422.95
1785.77
1830.14
1836.98
1843.3
1849.77
1856.04
1862.01
1867.66
1873.02
1878.13
1882.92
1856
1269.15
1108.99
940.799
837.06
820.323
821.777
905.081
939.995
919.643
849.923
948.661
1505.05
1795.06
1790.98
1786
1782.59
1779.92
1767.78
1523.13
1032.11
872.002
874.583
876.044
877.304
879.101
906.878
1430.67
1747.92
1828.7
1842.19
1849.02
1856.06
1863.16
1870.13
1876.94
1883.59
1890.17
1896.83
1903.48
1877.66
824.706
820.856
820.343
819.86
818.032
818.708
820.484
821.853
823.391
829.041
872.96
1476.49
1791.02
1782.22
1782.81
1784.24
1742.33
1338.7
917.046
864.65
868.037
869.821
871.534
875.026
933.936
1345.28
1797.06
1841.75
1849.29
1856.72
1864.4
1872.19
1879.96
1887.67
1895.33
1903.01
1910.84
1919.09
1927.69
1904.25
818.413
818.304
818.512
819.18
818.186
818.209
818.511
818.768
819.029
820.874
956.66
1647.32
1747.92
1756.21
1778.64
1690.72
1159.13
845.693
850.954
853.683
857.455
869.01
940.452
1145.91
1516.07
1833.75
1848.57
1856.99
1865.29
1873.79
1882.37
1890.94
1899.47
1907.99
1916.56
1925.28
1934.38
1944.26
1954.82
1948.16
818.395
818.364
818.321
818.251
818.252
818.221
818.263
818.359
818.353
818.075
1311.75
1750.5
1739.36
1734.4
1662.53
1042.94
824.613
828.871
832.978
881.242
1042.25
1314.26
1591.1
1823.98
1842.98
1853.31
1863.6
1873.42
1883.1
1892.7
1902.19
1911.56
1920.84
1930.26
1939.8
1949.6
1959.8
1971.54
1984.26
1987.07
818.348
818.311
818.274
818.235
818.22
818.17
818.217
818.237
818.184
954.602
1683.23
1771.95
1767.13
1699.7
1131.23
808.843
805.653
827.248
1066.23
1443.54
1763.9
1825.95
1834.7
1846.26
1858.36
1869.97
1881.09
1891.93
1902.57
1913.02
1923.3
1933.36
1943.43
1953.64
1964.15
1974.91
1986.41
1999.9
2014.91
2016.93
818.388
818.354
818.33
818.308
818.264
818.177
818.053
817.873
880.207
1512.47
1785.83
1776.42
1746.06
1164.74
805.227
789.866
790.675
1077.98
1716.99
1824.83
1831.67
1841.56
1853.19
1865.15
1877.01
1888.76
1900.38
1911.85
1923.12
1934.17
1945.04
1955.69
1966.39
1977.28
1988.61
2000.27
2013.14
2028.33
2045.61
2046.07
818.184
818.164
818.128
818.087
817.951
817.5
845.981
1069.41
1569.9
1797.24
1789.42
1777.05
1395.44
838.215
780.834
780.902
784.022
1215.69
1674.49
1785.37
1823.64
1853.3
1869.99
1883
1895.53
1907.9
1920.09
1932.06
1943.78
1955.25
1966.5
1977.62
1988.67
2000.1
2012.07
2024.59
2038.68
2055.63
2075.21
2077.45
866.343
860.632
881.124
954.496
1099.67
1322.43
1574.91
1754.83
1803.8
1802.27
1761.39
1369.41
865.94
793.166
778.765
778.302
784.61
851.984
937.701
1188.4
1707.7
1863.95
1886.27
1900.79
1914.1
1926.95
1939.45
1951.64
1963.53
1975.13
1986.51
1997.78
2009.06
2020.75
2033.19
2046.49
2061.65
2080.37
2102.4
2106.6
1599.3
1609.2
1652.57
1700.2
1734.08
1778.92
1783.19
1783.85
1725.2
1514.75
1213.96
897.702
807.474
798.729
780.977
778.977
782.102
786.502
796.42
914.493
1583.81
1886.5
1907.49
1920.15
1932.57
1944.97
1957.14
1969.08
1980.76
1992.18
2003.41
2014.58
2025.91
2037.65
2050.36
2064.26
2080.39
2100.85
2125.38
2132.14
1861
1846.06
1832.29
1822.78
1791.47
1673.34
1464.25
1230.86
1147.34
1150.14
1229.2
1155.37
878.103
796.673
780.838
777.312
781.14
788.31
876.523
1344.03
1880.12
1915.59
1925.93
1936
1947.24
1958.77
1970.32
1981.8
1993.09
2004.17
2015.09
2026.02
2037.2
2048.93
2061.76
2076.09
2093.1
2115.18
2142.13
2151.71
1863.97
1813.86
1678.26
1439.71
1202.29
1070.58
1070.12
1076.6
1308.93
1736.58
1734.57
1414.36
856.336
793.527
779.473
774.847
788.116
970.727
1597.53
1905.66
1920.24
1927
1934.35
1943.69
1954.09
1964.97
1976.04
1987.1
1998.01
2008.73
2019.32
2029.96
2040.93
2052.59
2065.47
2080.09
2097.86
2121.37
2150.52
2161.93
1264.39
1083.18
978.294
927.81
938.32
949.746
1173.89
1735.43
1752.25
1745.95
1708.33
1288.82
836.467
789.992
777.83
871.243
1174.08
1849.93
1907.96
1913.99
1918.45
1924.46
1932.22
1941.24
1951.13
1961.54
1972.19
1982.85
1993.39
2003.75
2014.04
2024.44
2035.22
2046.82
2059.77
2074.6
2092.99
2117.61
2148.53
2161.63
924.192
922.254
922.91
923.989
1032.08
1659.1
1790.55
1774.02
1751.38
1528.95
986.854
886.353
848.675
883.492
1030.24
1703.03
1892.57
1897.47
1899.44
1902.05
1906.52
1912.51
1919.76
1928.12
1937.34
1947.12
1957.19
1967.35
1977.47
1987.53
1997.6
2007.88
2018.65
2030.29
2043.36
2058.5
2077.25
2102.6
2134.6
2149.03
931.381
956.958
1314.97
1851.47
1860.67
1850.06
1819.41
1485.2
1009.68
975.583
944.814
904.718
1024.11
1516.89
1883.52
1883.48
1880.94
1879.83
1880.15
1881.91
1885.17
1889.93
1896.07
1903.36
1911.57
1920.43
1929.72
1939.26
1948.96
1958.84
1968.95
1979.39
1990.39
2002.33
2015.71
2031.19
2050.14
2075.72
2107.96
2122.73
1919.33
1914.34
1915.12
1911.88
1864.21
1383.44
1026.83
1027.07
1009.46
981.52
1074.63
1339.68
1884.66
1879.08
1869.27
1861.51
1856.42
1853.51
1851.61
1851.21
1852.62
1855.74
1860.31
1866.08
1872.86
1880.35
1888.43
1897.24
1906.74
1916.69
1927.3
1938.66
1950.51
1963.13
1977.18
1993.15
2012.28
2037.54
2069.05
2083.04
1918.23
1920.8
1920.74
1513.08
1044.9
1042.85
1035.42
1026.27
1065.26
1241.85
1856.24
1884.68
1867.47
1853.72
1842.07
1831.68
1823.24
1817.21
1813.91
1811.95
1811.81
1813.8
1816.66
1820.15
1824.63
1829.61
1833.61
1840.65
1850.89
1861.76
1872.72
1885.84
1900.49
1914.35
1929.65
1946.53
1965.81
1990.29
2019.95
2032.18
1924.9
1926.93
1602.29
1068.34
1051.26
1037.23
1032.42
1161.61
1735.95
1891.5
1872.55
1854.79
1838.52
1822.79
1808.04
1795.04
1783.28
1773.67
1769.09
1765.34
1764.13
1765.11
1765.4
1763.39
1752.07
1763.67
1769.99
1777.64
1785.92
1796.57
1811.02
1827.85
1844.17
1860
1876.91
1895.08
1914.46
1937.46
1964.4
1974.74
1925.47
1825.99
1199.52
1072.61
1049.17
1125.19
1563.72
1896.15
1879.65
1860.28
1841.5
1822.63
1803.48