/*--------------------------------*- C++ -*----------------------------------*\
  =========                 |
  \\      /  F ield         | OpenFOAM: The Open Source CFD Toolbox
   \\    /   O peration     | Website:  https://openfoam.org
    \\  /    A nd           | Version:  8
     \\/     M anipulation  |
\*---------------------------------------------------------------------------*/
FoamFile
{
    version     2.0;
    format      ascii;
    class       volScalarField;
    location    "3.9";
    object      k;
}
// * * * * * * * * * * * * * * * * * * * * * * * * * * * * * * * * * * * * * //

dimensions      [0 2 -2 0 0 0 0];

internalField   nonuniform List<scalar> 
9150
(
0.00182767
0.000940433
0.000475059
0.000301085
0.00019206
0.000192013
0.000301014
0.000475027
0.00094047
0.00182766
0.00178496
0.000746261
0.000398375
0.000256419
0.00016064
0.000160599
0.000256356
0.000398335
0.000746291
0.00178495
0.00171345
0.00065098
0.000365398
0.000236366
0.000148049
0.00014801
0.000236304
0.000365353
0.000651004
0.00171345
0.00163487
0.000600967
0.000352277
0.000228324
0.000143254
0.000143215
0.000228261
0.000352228
0.000600988
0.00163487
0.00155141
0.000579458
0.000347498
0.000225497
0.000141751
0.000141712
0.000225434
0.000347448
0.000579477
0.0015514
0.00284848
0.00255779
0.00185231
0.00161423
0.00132673
0.00132615
0.00161297
0.00185053
0.00255587
0.00284816
0.00230477
0.00150343
0.00128056
0.0012072
0.000972251
0.000971888
0.00120644
0.00127967
0.00150304
0.00230477
0.00204964
0.00125158
0.000887388
0.000805773
0.000624121
0.00062391
0.000805358
0.000887013
0.00125153
0.00204966
0.00186778
0.00110968
0.000648985
0.000529091
0.00038534
0.000385223
0.000528881
0.000648838
0.00110971
0.00186778
0.00178739
0.00102025
0.000523503
0.000371101
0.000252265
0.000252197
0.000370991
0.000523443
0.00102029
0.00178739
0.0130986
0.0053583
0.00261875
0.00189061
0.00153232
0.00153327
0.00189051
0.00259843
0.00517217
0.0124164
0.00493521
0.00376568
0.00250239
0.00188927
0.00154061
0.00154076
0.00188827
0.00250189
0.0037828
0.00492334
0.00441461
0.00341892
0.00248545
0.00188962
0.00154916
0.00154868
0.00188769
0.00248341
0.00342433
0.00441107
0.00392203
0.00315513
0.00246908
0.00188657
0.00155698
0.00155619
0.00188455
0.00246685
0.00315355
0.00392056
0.00336055
0.00310468
0.00236676
0.00184088
0.00153012
0.00152928
0.00183907
0.00236451
0.00310129
0.00335994
0.00117191
0.00117257
0.00117303
0.00117313
0.0011727
0.00117152
0.00116936
0.00116593
0.00116092
0.00115397
0.00230197
0.00230421
0.00230576
0.00230632
0.00230558
0.00230312
0.0022985
0.00229124
0.00228081
0.00226665
0.00295054
0.00295501
0.00295832
0.00296017
0.00296018
0.00295794
0.00295303
0.00294501
0.00293345
0.00291793
0.00344549
0.0034519
0.00345681
0.00345986
0.00346064
0.00345878
0.00345389
0.0034456
0.00343357
0.0034175
0.00388234
0.00389059
0.00389702
0.00390122
0.00390281
0.0039014
0.00389666
0.00388829
0.00387602
0.00385962
0.00429707
0.00430719
0.00431519
0.00432062
0.00432309
0.00432228
0.00431791
0.00430973
0.00429748
0.00428094
0.00470853
0.00472067
0.00473041
0.00473723
0.00474079
0.00474091
0.00473736
0.00472985
0.00471804
0.00470166
0.00512942
0.00514371
0.00515545
0.00516397
0.00516917
0.00517098
0.00516911
0.00516308
0.00515235
0.00513644
0.00557003
0.00558638
0.00560058
0.0056119
0.00562011
0.00562511
0.00562625
0.00562271
0.00561362
0.00559827
0.00604173
0.00606102
0.00607845
0.00609405
0.00610715
0.00611693
0.00612228
0.00612194
0.00611462
0.00609929
0.00655604
0.00657958
0.00660141
0.00662208
0.00664089
0.00665653
0.00666728
0.00667109
0.00666583
0.00664978
0.00712005
0.00714839
0.00717562
0.00720218
0.00722761
0.00725051
0.00726859
0.00727853
0.00727645
0.00725917
0.00774211
0.00777534
0.00780779
0.00784019
0.00787266
0.00790426
0.0079324
0.007952
0.00795562
0.00793657
0.00843379
0.0084711
0.00850738
0.00854393
0.00858182
0.00862137
0.00866098
0.00869445
0.00870785
0.00868494
0.00920933
0.00924939
0.00928735
0.00932487
0.00936352
0.00940457
0.00944856
0.00949015
0.00950791
0.00947853
0.0100816
0.0101223
0.0101591
0.0101939
0.0102274
0.0102581
0.0102827
0.0102913
0.010283
0.0102659
0.0110553
0.0110905
0.0111181
0.01114
0.0111562
0.0111619
0.0111503
0.0111249
0.0111173
0.0111217
0.0121358
0.0121595
0.0121701
0.0121688
0.0121557
0.0121319
0.0121048
0.0120856
0.0120917
0.0121084
0.013326
0.0133362
0.0133293
0.0133065
0.0132717
0.0132365
0.0132101
0.0132026
0.0132181
0.0132398
0.0146269
0.0146255
0.0146083
0.0145785
0.0145415
0.0145041
0.0144743
0.0144667
0.01448
0.014497
0.0160343
0.0160254
0.0160042
0.0159727
0.0159352
0.0159003
0.0158752
0.0158665
0.0158712
0.0158775
0.0175231
0.0175056
0.0174829
0.0174568
0.0174308
0.0174103
0.0173991
0.0173985
0.0174037
0.0174038
0.0190691
0.0190374
0.019009
0.0189924
0.0189956
0.0190115
0.0190347
0.0190653
0.0190973
0.0191092
0.0206521
0.0206042
0.0205704
0.0205639
0.0205957
0.0206615
0.0207515
0.0208623
0.0209822
0.0210536
0.022253
0.0221976
0.0221581
0.02215
0.0221903
0.0223035
0.0225074
0.0227834
0.0230775
0.0232636
0.0238552
0.0238107
0.0237761
0.0237745
0.0238268
0.0239634
0.0242195
0.024598
0.0249798
0.0253576
0.0254264
0.0254153
0.0254075
0.025419
0.0254764
0.0256058
0.0258403
0.0261676
0.0265744
0.0271228
0.026944
0.0269775
0.0270229
0.0270831
0.0271698
0.027294
0.027466
0.0276831
0.0279961
0.0284336
0.0284374
0.0285529
0.0286868
0.0288347
0.0289857
0.0291303
0.0292644
0.0294104
0.0296203
0.0299032
0.0300434
0.0302994
0.0305682
0.030831
0.03107
0.0312708
0.0314354
0.031578
0.0317221
0.03186
0.0318614
0.0323102
0.0327669
0.033205
0.0336007
0.033925
0.0341558
0.0342804
0.0343163
0.0342918
0.0338757
0.034566
0.0352809
0.0359836
0.036627
0.0371538
0.0375048
0.037635
0.0375267
0.0371726
0.0360213
0.0369989
0.03803
0.0390672
0.0400401
0.0408538
0.0413882
0.0414744
0.0408864
0.0396905
0.0381858
0.0394694
0.0408507
0.0422797
0.0436693
0.0448746
0.0455645
0.045008
0.0431941
0.0413719
0.040229
0.0417912
0.0435099
0.0453482
0.0472045
0.0487069
0.0486842
0.0466899
0.0444774
0.0427619
0.0420155
0.0437657
0.0457247
0.0478773
0.0500042
0.051079
0.0498171
0.0475025
0.0456262
0.0441959
0.0434836
0.0452774
0.0472871
0.0494968
0.051483
0.0518259
0.0502265
0.0482986
0.0468521
0.0457717
0.0446956
0.0463894
0.0482303
0.0501887
0.0518459
0.052015
0.050691
0.0492144
0.0481891
0.0474801
0.0457929
0.0473153
0.0488751
0.0504388
0.0517823
0.0521479
0.0513165
0.0502682
0.0495931
0.0492405
0.0468976
0.048259
0.0495539
0.0507337
0.0517169
0.0522686
0.052059
0.0514864
0.0510409
0.0509532
0.0480614
0.0493154
0.0504319
0.0513524
0.0520348
0.0524745
0.0526624
0.0526461
0.0524944
0.0526213
0.0493456
0.0505879
0.0516455
0.0524448
0.0529715
0.0533041
0.0535514
0.0537817
0.0540409
0.0544586
0.0508543
0.0522709
0.0534802
0.0543297
0.0548001
0.0550648
0.0553321
0.0556819
0.0561401
0.056763
0.0525561
0.0543757
0.0560304
0.0572329
0.0577716
0.0578853
0.0580437
0.0583791
0.0589044
0.0596662
0.0542961
0.0566472
0.0590637
0.0610919
0.0617803
0.0615288
0.0614629
0.0617087
0.062268
0.0631707
0.0558536
0.0587127
0.0620307
0.0644639
0.0647326
0.0655026
0.065285
0.0654824
0.0660236
0.0667402
0.0567831
0.0596832
0.0630924
0.0649215
0.0651033
0.0660206
0.0663613
0.0666806
0.0673368
0.0684742
0.0571624
0.0597653
0.0626494
0.0644074
0.0649553
0.0654362
0.0659293
0.0665618
0.0674388
0.0681471
0.0569593
0.0590932
0.0614359
0.0636069
0.0649648
0.0655629
0.0658286
0.0660427
0.0663899
0.0668431
0.0562231
0.0578598
0.0596578
0.0615453
0.0630398
0.063872
0.0644661
0.0650417
0.0656633
0.0663541
0.0553956
0.0567214
0.0581437
0.059612
0.0610182
0.0622655
0.0633783
0.0644157
0.0654182
0.0664166
0.0548668
0.0560568
0.0573369
0.0586974
0.0601125
0.0615448
0.0629571
0.0643284
0.0656593
0.0669628
0.0548085
0.0559984
0.0572925
0.0586994
0.0602107
0.0618006
0.0634318
0.0650699
0.0666937
0.0682994
0.0553367
0.0566542
0.0580962
0.0596711
0.0613708
0.0631737
0.0650486
0.0669613
0.0688724
0.0707669
0.0566296
0.058209
0.0599336
0.0617978
0.0637858
0.0658776
0.0680465
0.0702567
0.0724713
0.0746688
0.058973
0.0609697
0.0631276
0.0653992
0.0677578
0.0702006
0.0727205
0.0752802
0.0778306
0.0803462
0.0628346
0.0654986
0.0682847
0.0710715
0.0738578
0.0766794
0.0795638
0.0824814
0.0853652
0.0881848
0.0690746
0.0730881
0.0768475
0.0801796
0.0834683
0.0867319
0.0898843
0.0929085
0.0958361
0.0987642
0.0775925
0.0833897
0.0886846
0.0933671
0.0979533
0.102416
0.105597
0.10771
0.10998
0.11265
0.0889926
0.0962738
0.103226
0.109762
0.115692
0.120195
0.122663
0.124454
0.126842
0.129795
0.105632
0.114423
0.122485
0.128621
0.13248
0.135314
0.138664
0.142519
0.146581
0.150562
0.12895
0.138687
0.145292
0.149333
0.153304
0.157785
0.162592
0.167372
0.171806
0.175609
0.155793
0.164848
0.171475
0.178223
0.184622
0.19035
0.195202
0.198844
0.201156
0.202354
0.184827
0.196847
0.20703
0.215508
0.221701
0.225287
0.22662
0.226038
0.224094
0.22122
0.222895
0.233083
0.239093
0.242069
0.242778
0.241791
0.239597
0.236399
0.232435
0.228112
0.252192
0.254139
0.253772
0.252307
0.250124
0.247366
0.243964
0.239904
0.235223
0.230036
0.266808
0.265641
0.263329
0.260093
0.256023
0.251214
0.245746
0.23973
0.233264
0.226432
0.280265
0.276523
0.271186
0.264711
0.25743
0.249587
0.24139
0.233016
0.224613
0.216325
0.291002
0.282808
0.272939
0.262216
0.251239
0.240406
0.229964
0.220057
0.210786
0.202273
0.295532
0.281608
0.266688
0.251876
0.237901
0.225189
0.21392
0.204106
0.195686
0.188634
0.293907
0.274019
0.254253
0.236275
0.220724
0.207866
0.197667
0.189878
0.184086
0.179783
0.288972
0.263492
0.239834
0.220046
0.204486
0.19312
0.18559
0.181264
0.179049
0.177497
0.284631
0.254049
0.227879
0.207262
0.192672
0.183694
0.179588
0.179183
0.180398
0.180214
0.283493
0.248198
0.220077
0.199371
0.185929
0.179388
0.178611
0.181817
0.185591
0.184971
0.286005
0.246247
0.216133
0.195222
0.182895
0.178304
0.180181
0.186291
0.191569
0.189647
0.291696
0.24758
0.21522
0.19358
0.181691
0.178423
0.182207
0.190431
0.196861
0.194103
0.299895
0.25149
0.21649
0.193452
0.181226
0.178515
0.183498
0.193368
0.201955
0.199732
0.309809
0.257286
0.219243
0.194124
0.180798
0.177941
0.183575
0.194781
0.206172
0.206445
0.320946
0.264476
0.223028
0.195192
0.18008
0.176545
0.18262
0.195246
0.209441
0.214327
0.333065
0.272765
0.227595
0.196452
0.178895
0.174154
0.180392
0.194362
0.211545
0.223203
0.346016
0.282006
0.232831
0.19781
0.177179
0.17083
0.177284
0.193126
0.213681
0.231894
0.359829
0.292234
0.238733
0.199214
0.174813
0.166381
0.173076
0.191332
0.215772
0.239742
0.374878
0.303574
0.245259
0.200515
0.171563
0.160512
0.167418
0.188482
0.216986
0.246023
0.391645
0.316108
0.252255
0.201466
0.167196
0.153148
0.160638
0.18554
0.219343
0.254411
0.410677
0.329878
0.259431
0.20167
0.161357
0.144129
0.153009
0.183335
0.224199
0.266799
0.433732
0.344976
0.266293
0.200544
0.153573
0.133153
0.144522
0.182043
0.231727
0.283347
0.459662
0.360231
0.271754
0.197275
0.143345
0.119913
0.135
0.181359
0.241514
0.303802
0.48666
0.374264
0.274694
0.191119
0.130346
0.104266
0.124215
0.180629
0.252899
0.328065
0.515008
0.386508
0.274304
0.181561
0.114593
0.0864639
0.111996
0.178839
0.264689
0.35618
0.543152
0.395024
0.269059
0.167954
0.0964414
0.0673463
0.0983083
0.174643
0.275074
0.38754
0.567488
0.396769
0.257105
0.149843
0.0767333
0.0484012
0.0832233
0.16635
0.281089
0.419595
0.584138
0.387648
0.236394
0.12715
0.0567836
0.031545
0.066985
0.152113
0.278461
0.446148
0.578549
0.360374
0.205131
0.100761
0.0383387
0.0185764
0.0505946
0.131064
0.262096
0.454043
0.535829
0.312281
0.165648
0.0736357
0.0233182
0.0102199
0.0359994
0.105921
0.230258
0.432094
0.440626
0.247085
0.12347
0.0492434
0.012796
0.00559233
0.0240338
0.0795427
0.185567
0.366167
0.334696
0.182347
0.0855975
0.0299769
0.00651245
0.00331082
0.0152073
0.0562221
0.13922
0.279952
0.241464
0.127493
0.0552611
0.0164828
0.00335633
0.00225117
0.00917886
0.0378017
0.100776
0.207898
0.166273
0.0848689
0.0328471
0.0082202
0.00206404
0.00178398
0.00536083
0.0239182
0.0704507
0.148673
0.109261
0.0537459
0.0173569
0.00394033
0.00164179
0.00159747
0.00317337
0.0137402
0.0472954
0.102363
0.0726106
0.0300629
0.00727887
0.00223003
0.00154036
0.00153904
0.00214674
0.00644098
0.0279488
0.0706122
0.00114373
0.00113027
0.00111327
0.00109247
0.00106771
0.00103908
0.00100693
0.00097199
0.000935441
0.000898986
0.000864827
0.000835402
0.0008128
0.000797974
0.000790191
0.000787113
0.000785568
0.000782621
0.000775887
0.000763675
0.000745401
0.000721778
0.000694869
0.000667706
0.000643097
0.000621904
0.000602257
0.000580594
0.000553394
0.000518548
0.000476246
0.000443539
0.000442819
0.000442008
0.000442319
0.000442946
0.000421923
0.000379659
0.000316598
0.000202174
0.00224695
0.0022212
0.00218961
0.00215212
0.00210903
0.00206106
0.00200941
0.00195587
0.00190273
0.00185268
0.00180852
0.00177262
0.00174629
0.00172916
0.00171898
0.00171204
0.00170414
0.00169223
0.00167388
0.00164697
0.00161123
0.0015683
0.00152143
0.00147449
0.00143003
0.00138737
0.00134246
0.0012899
0.00122527
0.00114634
0.00105377
0.000952575
0.000857785
0.000782601
0.00072112
0.000662845
0.000599028
0.00052171
0.000423816
0.000280146
0.00289681
0.00286936
0.00283621
0.00279745
0.00275349
0.00270512
0.00265356
0.00260047
0.00254791
0.00249818
0.00245346
0.00241535
0.0023843
0.00235932
0.00233807
0.00231747
0.00229454
0.00226706
0.00223374
0.00219411
0.00214885
0.00209946
0.00204756
0.00199393
0.00193759
0.00187707
0.00181014
0.00173421
0.00164727
0.00154859
0.00143866
0.00131914
0.00119937
0.00109725
0.00100867
0.000922039
0.000828482
0.000721878
0.000593396
0.000417893
0.00339588
0.00336798
0.00333476
0.00329651
0.00325379
0.00320752
0.00315898
0.00310973
0.0030615
0.00301601
0.00297467
0.00293814
0.00290597
0.00287658
0.00284763
0.00281655
0.00278113
0.00274007
0.00269308
0.00264091
0.00258525
0.00252827
0.00247153
0.00241394
0.00235133
0.00228046
0.00220018
0.00210967
0.00200796
0.00189479
0.00177075
0.00163884
0.00150711
0.00138572
0.00127459
0.00116573
0.0010501
0.00091787
0.000760722
0.000555382
0.00383765
0.00380938
0.00377601
0.00373801
0.00369617
0.00365163
0.0036058
0.00356031
0.00351677
0.00347654
0.00344024
0.00340739
0.00337626
0.00334453
0.00330991
0.00327046
0.0032248
0.00317235
0.00311338
0.00304908
0.00298153
0.00291351
0.00284742
0.00278284
0.00271838
0.0026458
0.00256014
0.00246188
0.00235111
0.00222784
0.00209287
0.00194977
0.001805
0.00166381
0.00152699
0.00139164
0.00125432
0.0010985
0.000907076
0.000665169
0.00425868
0.00422988
0.00419591
0.00415741
0.00411538
0.00407125
0.00402671
0.0039837
0.00394405
0.00390905
0.00387875
0.00385105
0.00382193
0.00378804
0.00374778
0.00370048
0.00364586
0.00358398
0.00351534
0.00344103
0.00336282
0.00328313
0.00320451
0.00312875
0.00306101
0.00299148
0.00290723
0.00280644
0.0026913
0.00256239
0.00241883
0.00226346
0.00210416
0.00194402
0.00178549
0.00162661
0.00146189
0.00127951
0.00106311
0.000800045
0.00467916
0.00464958
0.00461434
0.00457424
0.00453049
0.00448481
0.0044393
0.00439632
0.00435829
0.00432707
0.00430272
0.00428139
0.00425428
0.00421685
0.00416972
0.0041144
0.00405172
0.00398209
0.0039061
0.00382466
0.00373914
0.00365146
0.00356426
0.00348073
0.0034048
0.00333056
0.00324708
0.00314662
0.00302939
0.00289705
0.00274919
0.0025881
0.00241975
0.00224796
0.00207273
0.00189237
0.00170519
0.00150336
0.00127067
0.000994813
0.00511369
0.00508284
0.00504542
0.00500236
0.0049551
0.00490561
0.00485626
0.00480978
0.00476908
0.00473691
0.00471438
0.00469666
0.00467204
0.0046328
0.00458074
0.00451983
0.00445141
0.00437612
0.00429475
0.00420838
0.00411838
0.00402643
0.00393476
0.0038463
0.00376368
0.00368319
0.00359857
0.00349933
0.00337899
0.00323977
0.00308743
0.00292657
0.00275807
0.00258095
0.00239469
0.00219943
0.00199298
0.00176617
0.00150943
0.00121476
0.00557482
0.00554169
0.00550063
0.00545284
0.00540008
0.00534455
0.00528878
0.00523548
0.00518739
0.00514689
0.00511445
0.00508723
0.00506883
0.00504243
0.00499581
0.00493466
0.004863
0.00478292
0.00469618
0.00460463
0.00451021
0.00441484
0.00432038
0.00422873
0.00414145
0.00405624
0.00396841
0.00386883
0.00374757
0.00360715
0.00345506
0.00329468
0.00312455
0.00294296
0.00274918
0.00254021
0.00231097
0.00205307
0.00174978
0.00139868
0.00607386
0.00603637
0.00598916
0.00593396
0.00587305
0.00580902
0.00574456
0.00568225
0.00562438
0.00557265
0.00552668
0.005489
0.00547356
0.00546328
0.00543019
0.00537395
0.00530156
0.00521703
0.00512378
0.00502508
0.00492385
0.00482264
0.00472352
0.00462803
0.00453696
0.00444835
0.00435817
0.00425987
0.00414535
0.00401123
0.00386159
0.00369999
0.0035267
0.00334013
0.0031381
0.00291441
0.00266021
0.00235793
0.00195564
0.00139822
0.00662045
0.00657552
0.00651849
0.00645217
0.00637968
0.00630418
0.00622867
0.00615578
0.00608761
0.00602576
0.00597098
0.00593133
0.00591785
0.00591801
0.00589965
0.0058513
0.00577914
0.00568905
0.00558685
0.00547773
0.0053658
0.00525432
0.005146
0.00504302
0.00494676
0.00485692
0.00477
0.00467926
0.00457434
0.00444855
0.00430273
0.00414101
0.00396375
0.00377002
0.00355642
0.00331741
0.00304145
0.00270275
0.00221016
0.00139437
0.00722352
0.00716722
0.00709611
0.00701473
0.00692732
0.00683767
0.00674915
0.00666463
0.00658658
0.00651744
0.00646056
0.00642536
0.00641913
0.00643179
0.00642549
0.00638183
0.0063053
0.00620459
0.00608874
0.005965
0.0058382
0.00571156
0.00558832
0.00547223
0.00536682
0.00527424
0.00519284
0.00511452
0.00502276
0.00490662
0.0047655
0.00460124
0.0044139
0.0042052
0.00397418
0.00371676
0.00342137
0.0030528
0.00249428
0.00140716
0.00789107
0.00781861
0.00772945
0.00763035
0.00752644
0.00742173
0.00731964
0.00722338
0.00713621
0.00706203
0.00700657
0.00697863
0.00698413
0.00701157
0.00701296
0.00696456
0.00687359
0.00675472
0.00662084
0.00648073
0.00633832
0.00619466
0.00605211
0.00591619
0.00579384
0.0056902
0.00560551
0.00553802
0.00546785
0.0053627
0.005222
0.00504567
0.00483708
0.00460027
0.00433907
0.00405456
0.00374039
0.00335445
0.00272727
0.00142255
0.00862368
0.00853024
0.00842165
0.00830581
0.00818722
0.00806897
0.00795418
0.00784647
0.00775012
0.00767004
0.0076125
0.0075878
0.00760471
0.00764148
0.00763543
0.00756901
0.00745547
0.00731512
0.0071633
0.00700985
0.00685684
0.00669945
0.0065366
0.00637655
0.00623183
0.00610886
0.00600824
0.00594
0.00588586
0.00579082
0.00563802
0.00542748
0.00517423
0.00488721
0.00457303
0.0042424
0.00389857
0.00348008
0.00277349
0.00147405
0.00940036
0.00929052
0.0091707
0.00904619
0.00891899
0.00879063
0.00866399
0.00854371
0.0084361
0.00834775
0.00828159
0.00824113
0.00824113
0.0082824
0.00827523
0.00818829
0.00805077
0.0078899
0.00772084
0.00755478
0.00739432
0.00722573
0.00704267
0.00685974
0.00669536
0.0065557
0.00644451
0.006361
0.00628447
0.00617791
0.00599561
0.0057362
0.00543075
0.00509213
0.00472478
0.00433699
0.00393821
0.00345386
0.00268169
0.00141847
0.0102022
0.0101027
0.00999049
0.0098692
0.0097399
0.00960384
0.0094641
0.00932644
0.00919941
0.0090925
0.00901035
0.00895792
0.00895163
0.00898351
0.00897058
0.00886592
0.00870598
0.00852283
0.00833168
0.00814442
0.00796606
0.00778336
0.00758347
0.00738393
0.00720667
0.00705821
0.00693582
0.00681989
0.00669458
0.00653717
0.00630458
0.00600491
0.00566398
0.0052895
0.00488242
0.00444375
0.00397319
0.00340786
0.00256937
0.00140778
0.0110886
0.011016
0.0109211
0.0108064
0.0106744
0.0105279
0.0103714
0.0102118
0.0100599
0.00992933
0.00983464
0.00978542
0.00978256
0.00979961
0.00976554
0.00964604
0.00946796
0.00925986
0.00904191
0.00882741
0.00862164
0.00841459
0.00819744
0.00798191
0.00778715
0.00762239
0.00747824
0.00731889
0.00712909
0.00690188
0.0066158
0.00628029
0.0059091
0.00550691
0.00507237
0.0045998
0.00407617
0.00345242
0.00258454
0.00141333
0.0121006
0.0120545
0.0119744
0.0118624
0.011723
0.0115618
0.0113866
0.0112074
0.0110382
0.010898
0.0108056
0.010762
0.0107545
0.0107514
0.0106949
0.0105622
0.0103671
0.0101363
0.00989492
0.00965709
0.00942339
0.0091862
0.00894477
0.00870435
0.00847836
0.00827439
0.00807409
0.00785222
0.00760087
0.00731009
0.00697294
0.00659817
0.00619366
0.00576236
0.00530235
0.00480543
0.00425205
0.00359439
0.00270657
0.00140236
0.0132441
0.0132117
0.0131382
0.0130241
0.0128751
0.012701
0.0125142
0.0123287
0.0121612
0.0120305
0.0119488
0.0119084
0.0118917
0.011868
0.0117907
0.0116442
0.0114381
0.0111958
0.0109413
0.010687
0.0104295
0.0101639
0.00989254
0.00961686
0.00934598
0.00907839
0.00879583
0.00849166
0.00816456
0.00780684
0.00741628
0.00699775
0.00655427
0.00608777
0.00559609
0.00507072
0.00449061
0.00380649
0.00289371
0.00140756
0.0145002
0.0144709
0.0144006
0.0142858
0.0141323
0.0139557
0.0137743
0.0136049
0.0134632
0.0133617
0.0133033
0.0132749
0.0132549
0.0132127
0.0131203
0.0129684
0.0127642
0.0125258
0.0122712
0.012008
0.0117304
0.0114354
0.0111257
0.0108013
0.0104651
0.0101109
0.00973117
0.00932797
0.00890475
0.00846109
0.00799722
0.00751463
0.00701493
0.0064978
0.0059595
0.0053906
0.00476987
0.00404901
0.00309667
0.00140768
0.0158725
0.0158404
0.0157724
0.0156595
0.0155083
0.0153428
0.0151866
0.0150584
0.0149726
0.0149343
0.0149314
0.01494
0.0149351
0.0148935
0.0148009
0.0146555
0.0144656
0.0142457
0.0140065
0.0137465
0.0134548
0.013129
0.0127726
0.0123843
0.0119618
0.0114996
0.0109998
0.0104686
0.00991312
0.00934074
0.00876044
0.00817721
0.00759105
0.00699776
0.00638934
0.00575223
0.00506157
0.00426643
0.00323322
0.00144842
0.0173874
0.0173427
0.0172701
0.0171634
0.01703
0.0168998
0.0167955
0.0167362
0.016743
0.0168166
0.0169215
0.0170068
0.0170462
0.0170297
0.016956
0.0168314
0.0166703
0.0164905
0.0162992
0.0160791
0.0157996
0.0154555
0.0150599
0.0146052
0.0140675
0.0134517
0.0127781
0.0120575
0.0113018
0.010533
0.00977412
0.00903736
0.00832196
0.00761857
0.00691244
0.00618317
0.00539951
0.00450444
0.00336055
0.00149157
0.0190827
0.0190097
0.0189187
0.0188292
0.0187487
0.0186947
0.0186713
0.0186996
0.0188335
0.0190784
0.0193601
0.0195796
0.0196967
0.0197253
0.0196866
0.0196007
0.0194951
0.0194037
0.0193362
0.0192368
0.0190095
0.0186595
0.018232
0.0176981
0.0170078
0.0161872
0.015283
0.0143011
0.0132545
0.0121894
0.0111604
0.0101949
0.00929212
0.0084355
0.00760082
0.00675855
0.00586904
0.00486605
0.0035994
0.0016068
0.0210328
0.0209299
0.0208131
0.0207312
0.0207147
0.0207751
0.020862
0.0209824
0.0212647
0.0217387
0.0222434
0.0226154
0.0228193
0.0229012
0.0229209
0.02292
0.022946
0.023038
0.0231762
0.023216
0.0230727
0.0228311
0.0224491
0.0218166
0.0209259
0.0198622
0.0186675
0.0173529
0.0159382
0.0144824
0.0130834
0.0117992
0.0106353
0.00957038
0.00856769
0.00758554
0.00657201
0.00544113
0.0040158
0.00183308
0.0232676
0.0231325
0.0229757
0.0228912
0.0229014
0.0230275
0.023213
0.0233903
0.0237531
0.0244045
0.0251523
0.0256721
0.0259607
0.0261541
0.026335
0.0265348
0.0267737
0.0270919
0.027465
0.027733
0.0277733
0.0276142
0.0272272
0.0264951
0.0254234
0.0240931
0.0225842
0.0210024
0.0193426
0.0175589
0.0157474
0.0140643
0.0125538
0.0112129
0.0099828
0.00880782
0.00762335
0.00630867
0.00465048
0.00219303
0.0256406
0.0255982
0.0254149
0.0252275
0.0250562
0.025013
0.0252006
0.0255062
0.0259725
0.0267646
0.0277848
0.0286087
0.0290953
0.0294688
0.0298449
0.0302481
0.0307034
0.0312461
0.0318262
0.0322544
0.0323727
0.0321739
0.0316504
0.0307573
0.0295511
0.0281018
0.0264966
0.0248775
0.0232531
0.0214985
0.0194878
0.0173537
0.0154192
0.0137486
0.0121959
0.0107068
0.00922165
0.00757822
0.00555122
0.00268362
0.0276814
0.027837
0.0275697
0.0271891
0.026942
0.0268728
0.0270375
0.0274464
0.0281329
0.029183
0.0304506
0.0315664
0.0323465
0.0329173
0.0334319
0.0339564
0.0345337
0.0351997
0.0358514
0.0362367
0.0362306
0.0358711
0.0351938
0.034214
0.0330013
0.0316486
0.0302043
0.0286496
0.0270176
0.0253714
0.0236372
0.0217951
0.0198614
0.0178843
0.0158763
0.0138092
0.0117177
0.00945674
0.00684252
0.00330995
0.0289186
0.0291927
0.0291508
0.0289661
0.0288128
0.0287997
0.0290025
0.0294911
0.0303095
0.0314966
0.0329292
0.0342686
0.0351712
0.0357647
0.036343
0.0369961
0.0377066
0.038415
0.038972
0.0391938
0.039049
0.0385755
0.0378026
0.0367722
0.0355547
0.0342338
0.0328635
0.0314352
0.0300264
0.0287694
0.0277008
0.0267045
0.0254181
0.0235686
0.0211214
0.0182512
0.0151678
0.0119961
0.00863594
0.00407942
0.0302496
0.0305409
0.030693
0.0307513
0.0307532
0.0307883
0.0309833
0.0314517
0.0322456
0.0333615
0.0346624
0.0358943
0.0368152
0.037598
0.0384326
0.039314
0.0401832
0.0409346
0.0414452
0.0416365
0.0414761
0.040983
0.0402033
0.0391917
0.0380107
0.0367221
0.0353732
0.0340124
0.0327495
0.0316258
0.0306144
0.0295688
0.0282633
0.0265496
0.0242261
0.0214525
0.0183083
0.0147955
0.0105369
0.00493518
0.0320363
0.0322356
0.032383
0.0324612
0.0324775
0.0324585
0.0325491
0.0328947
0.0335106
0.0344109
0.0355854
0.0368409
0.0380225
0.0392261
0.0404822
0.0417124
0.0428156
0.043699
0.0442711
0.0444834
0.0443465
0.0439135
0.0432529
0.0424317
0.0415049
0.0404945
0.0393652
0.0380898
0.0367331
0.035336
0.0338567
0.0321659
0.0302619
0.0279926
0.0253807
0.0226164
0.0196818
0.0162963
0.011988
0.00515392
0.0342245
0.0341304
0.0339951
0.0338005
0.0336157
0.0335074
0.0335287
0.0337895
0.0343602
0.0353016
0.0365992
0.0381255
0.039789
0.0415453
0.0433032
0.0449106
0.0462389
0.0472033
0.0477515
0.0479038
0.0477328
0.0473298
0.0467874
0.0461885
0.0455982
0.0450489
0.0444674
0.0436471
0.0424679
0.0409704
0.0391996
0.0371555
0.034826
0.032122
0.0290416
0.0256032
0.0219236
0.0178606
0.0130636
0.00630035
0.0365625
0.035856
0.0352691
0.0348241
0.0345395
0.0344498
0.0345776
0.034979
0.0357246
0.0368522
0.0384051
0.0403385
0.0425569
0.0449155
0.0472075
0.0491677
0.0505947
0.0514442
0.0517809
0.0517196
0.0513953
0.0509287
0.0504198
0.0499455
0.0495569
0.0492764
0.049062
0.0487335
0.0480777
0.0470025
0.0455055
0.0436207
0.0412759
0.0385154
0.0352621
0.0313552
0.0268273
0.0217573
0.0159525
0.0083666
0.0384145
0.0373159
0.0365738
0.0361293
0.0359517
0.0360293
0.0363691
0.0370102
0.0379995
0.0393908
0.0412596
0.0436219
0.0463898
0.0493658
0.0522084
0.054447
0.05577
0.0562325
0.0561141
0.055684
0.055117
0.0545261
0.0539856
0.0535389
0.0532043
0.0529769
0.0528201
0.0526482
0.0523217
0.0516459
0.0504378
0.0487475
0.0467465
0.044447
0.0416244
0.0379825
0.0331845
0.0272237
0.0198781
0.0105438
0.0399006
0.038822
0.038185
0.0379185
0.0379775
0.0383228
0.0389379
0.039863
0.0411663
0.0429118
0.0451691
0.047972
0.0512491
0.0547863
0.0581587
0.0605324
0.0612921
0.0609545
0.060248
0.059437
0.0586518
0.0579616
0.0573951
0.056954
0.0566226
0.0563688
0.0561397
0.0558554
0.0554185
0.0547457
0.0537798
0.0524551
0.0507183
0.0484875
0.0457447
0.0423905
0.0380883
0.032341
0.0243516
0.0123465
0.041439
0.0405553
0.0401329
0.0401109
0.0404445
0.0410977
0.0420592
0.0433616
0.0450651
0.0472332
0.0499287
0.0531695
0.0568411
0.0606393
0.0641804
0.0663986
0.0660531
0.0649256
0.063759
0.0627072
0.0618264
0.0611292
0.0605998
0.0602061
0.059908
0.059658
0.0593986
0.0590607
0.0585739
0.0578831
0.0569407
0.055663
0.0539328
0.0516422
0.0487468
0.0451693
0.0407094
0.0349705
0.0269987
0.013449
0.0431414
0.0425215
0.0423572
0.0426034
0.0432259
0.0442053
0.0455429
0.0472645
0.0494114
0.0520308
0.0551614
0.0587418
0.0624776
0.0663151
0.0700432
0.0707208
0.0694212
0.0678935
0.0665475
0.0654579
0.064632
0.0640415
0.0636408
0.0633773
0.063196
0.0630408
0.0628529
0.0625701
0.062129
0.061469
0.0605263
0.0592163
0.0574316
0.0550607
0.0520032
0.048134
0.0432461
0.0369908
0.0285949
0.0144511
0.0450356
0.0447196
0.0448378
0.0453571
0.0462563
0.0475337
0.0492071
0.0513066
0.0538645
0.0568986
0.0603076
0.0636966
0.0672975
0.0716801
0.0742341
0.0733185
0.0715961
0.0699925
0.0687066
0.0677593
0.0671236
0.0667482
0.0665716
0.0665296
0.0665581
0.0665944
0.0665761
0.0664404
0.0661234
0.0655583
0.0646719
0.0633784
0.0615777
0.0591589
0.0559981
0.0519368
0.0467431
0.0400363
0.0310406
0.0159334
0.0470875
0.0471097
0.047543
0.0483463
0.0494965
0.0510039
0.0529119
0.0552784
0.0581376
0.0613769
0.0645205
0.0676992
0.0716606
0.0755464
0.0763634
0.0747056
0.072917
0.0714535
0.0703863
0.0697019
0.0693541
0.0692804
0.0694111
0.0696741
0.0699978
0.0703121
0.0705485
0.0706394
0.0705162
0.0701066
0.0693319
0.0681044
0.0663248
0.0638794
0.0606308
0.0563943
0.050894
0.043669
0.033848
0.017739
0.0491903
0.0495775
0.0503691
0.0514858
0.0528745
0.0545369
0.0565432
0.0590021
0.0619554
0.0651223
0.0681929
0.0715001
0.0751892
0.0777352
0.0772086
0.075351
0.073702
0.0724879
0.0717181
0.0713603
0.0713602
0.0716505
0.0721559
0.0727973
0.073494
0.0741655
0.0747328
0.0751188
0.0752465
0.0750372
0.0744082
0.0732705
0.0715251
0.0690556
0.0657147
0.0612966
0.0554841
0.0477316
0.0369991
0.0197985
0.0512278
0.0519859
0.0531512
0.054605
0.0562417
0.058021
0.0600324
0.0624745
0.0655187
0.0689249
0.0721537
0.0752242
0.0780475
0.0790231
0.0775224
0.0756393
0.0741922
0.0732601
0.0728132
0.0728075
0.0731855
0.0738787
0.0748089
0.0758904
0.0770315
0.0781369
0.0791097
0.0798549
0.0802812
0.0803016
0.0798314
0.0787846
0.0770667
0.0745642
0.0711262
0.0665331
0.0604329
0.0521956
0.040562
0.0220636
0.0531628
0.054208
0.0556619
0.057402
0.0592701
0.0611456
0.0630978
0.0654211
0.0684087
0.0720389
0.0755349
0.0783196
0.0799898
0.0793043
0.0772877
0.0755938
0.0744646
0.073876
0.0737859
0.0741508
0.0749191
0.0760288
0.077407
0.0789686
0.0806149
0.0822317
0.0836926
0.084867
0.0856357
0.0859004
0.085581
0.0846043
0.0828903
0.0803368
0.0767956
0.0720371
0.0656774
0.0569998
0.0444702
0.0244713
0.0551957
0.0563864
0.0579693
0.0598617
0.0618917
0.0638127
0.0655816
0.0675319
0.0699061
0.0726664
0.0755431
0.0780799
0.0788434
0.0776078
0.076216
0.0751916
0.0746197
0.0745014
0.0748302
0.0755852
0.0767341
0.0782357
0.0800379
0.0820745
0.0842562
0.0864571
0.0885069
0.0902012
0.0913627
0.0918769
0.0916792
0.0907277
0.0889751
0.0863417
0.0826864
0.0777693
0.0711744
0.0621007
0.0487206
0.0269706
0.0576756
0.0589994
0.0606749
0.0626542
0.0648315
0.066833
0.068319
0.0696083
0.0710319
0.0725652
0.0740045
0.075162
0.0755939
0.0753387
0.0749999
0.0748499
0.0749711
0.0754155
0.0762081
0.0773536
0.0788465
0.0806752
0.0828204
0.0852579
0.0879439
0.0907896
0.0935713
0.0958985
0.0974903
0.0982491
0.0981392
0.0971581
0.0953123
0.0925612
0.0887747
0.0836986
0.0768804
0.0674399
0.0532695
0.0295131
0.0607763
0.0623383
0.0642774
0.0665556