/*--------------------------------*- C++ -*----------------------------------*\
  =========                 |
  \\      /  F ield         | OpenFOAM: The Open Source CFD Toolbox
   \\    /   O peration     | Website:  https://openfoam.org
    \\  /    A nd           | Version:  8
     \\/     M anipulation  |
\*---------------------------------------------------------------------------*/
FoamFile
{
    version     2.0;
    format      ascii;
    class       volScalarField;
    location    "3.9";
    object      nut;
}
// * * * * * * * * * * * * * * * * * * * * * * * * * * * * * * * * * * * * * //

dimensions      [0 2 -1 0 0 0 0];

internalField   nonuniform List<scalar> 
9150
(
9.60049e-06
6.40411e-06
6.56706e-06
8.72526e-06
7.5294e-06
7.52722e-06
8.7218e-06
6.56572e-06
6.40428e-06
9.60045e-06
9.48765e-06
5.73656e-06
8.26988e-06
9.86648e-06
7.00522e-06
7.00338e-06
9.86328e-06
8.26789e-06
5.7367e-06
9.48762e-06
9.29567e-06
5.49958e-06
1.07924e-05
1.02414e-05
6.65912e-06
6.65736e-06
1.02385e-05
1.079e-05
5.49968e-06
9.29564e-06
9.08002e-06
5.42194e-06
1.33942e-05
1.02389e-05
6.47319e-06
6.47144e-06
1.0236e-05
1.33917e-05
5.42203e-06
9.08e-06
8.84519e-06
5.40574e-06
1.56374e-05
1.01474e-05
6.37875e-06
6.377e-06
1.01445e-05
1.56352e-05
5.40583e-06
8.84517e-06
5.91219e-06
1.12679e-05
1.38361e-05
1.73434e-05
1.64948e-05
1.64901e-05
1.7334e-05
1.3826e-05
1.12628e-05
5.91188e-06
6.28014e-06
8.85434e-06
1.13392e-05
1.52499e-05
1.42697e-05
1.42657e-05
1.52423e-05
1.13324e-05
8.85224e-06
6.28014e-06
6.83016e-06
7.8993e-06
9.37104e-06
1.30238e-05
1.20006e-05
1.1997e-05
1.30174e-05
9.36676e-06
7.89875e-06
6.83018e-06
7.38704e-06
7.29331e-06
7.96362e-06
1.11197e-05
1.00929e-05
1.00898e-05
1.11145e-05
7.96093e-06
7.29329e-06
7.38704e-06
8.07464e-06
6.84359e-06
7.04508e-06
9.62461e-06
8.55775e-06
8.55518e-06
9.62048e-06
7.04331e-06
6.84371e-06
8.07463e-06
1.28389e-05
1.59703e-05
1.3077e-05
1.56815e-05
1.7333e-05
1.72925e-05
1.5577e-05
1.28155e-05
1.50567e-05
1.25363e-05
7.88742e-06
1.07922e-05
1.24432e-05
1.57825e-05
1.73927e-05
1.73653e-05
1.57144e-05
1.2379e-05
1.07745e-05
7.8788e-06
7.46012e-06
1.01831e-05
1.24904e-05
1.59396e-05
1.7458e-05
1.74398e-05
1.58927e-05
1.24545e-05
1.01716e-05
7.45739e-06
7.03171e-06
9.79815e-06
1.25198e-05
1.60713e-05
1.75134e-05
1.74997e-05
1.60401e-05
1.24965e-05
9.78528e-06
7.0305e-06
6.50899e-06
1.00529e-05
1.25265e-05
1.62553e-05
1.74092e-05
1.73999e-05
1.62369e-05
1.25123e-05
1.00422e-05
6.50844e-06
7.68001e-06
7.68184e-06
7.68302e-06
7.68308e-06
7.68143e-06
7.67742e-06
7.67024e-06
7.65898e-06
7.64261e-06
7.61987e-06
6.47361e-05
6.44895e-05
6.42352e-05
6.39658e-05
6.36706e-05
6.3336e-05
6.29456e-05
6.24813e-05
6.19237e-05
6.12526e-05
0.000129731
0.000129181
0.000128596
0.000127965
0.00012727
0.000126492
0.000125608
0.000124593
0.000123419
0.000122058
0.000184091
0.000183359
0.00018256
0.000181679
0.000180699
0.000179598
0.000178351
0.000176932
0.000175314
0.000173469
0.000228151
0.000227349
0.000226449
0.000225436
0.000224292
0.000222995
0.000221522
0.00021985
0.000217953
0.000215809
0.000263932
0.000263135
0.000262213
0.000261151
0.000259932
0.000258537
0.000256945
0.000255133
0.000253082
0.000250772
0.000293272
0.000292518
0.000291619
0.00029056
0.000289323
0.000287893
0.00028625
0.000284375
0.000282251
0.000279862
0.000317612
0.000316916
0.000316061
0.000315029
0.000313807
0.000312378
0.000310726
0.000308833
0.000306682
0.000304264
0.00033804
0.000337398
0.000336593
0.000335606
0.000334418
0.000333014
0.000331375
0.000329485
0.00032733
0.000324902
0.000355395
0.000354808
0.000354055
0.000353121
0.000351981
0.000350612
0.000348994
0.000347112
0.000344953
0.000342512
0.000370339
0.000369803
0.000369096
0.000368206
0.000367109
0.000365779
0.000364188
0.000362317
0.000360149
0.000357682
0.00038331
0.000382806
0.000382139
0.000381297
0.000380251
0.000378972
0.000377424
0.000375575
0.0003734
0.00037089
0.000394655
0.000394161
0.000393525
0.000392729
0.000391748
0.000390544
0.000389071
0.000387278
0.00038511
0.00038254
0.000404706
0.000404196
0.000403566
0.000402803
0.000401884
0.00040077
0.000399408
0.000397718
0.000395587
0.000392924
0.00041384
0.000413274
0.000412608
0.000411834
0.00041093
0.000409861
0.000408574
0.000406962
0.000404821
0.000401992
0.000422463
0.000421787
0.000421021
0.000420157
0.000419166
0.000417991
0.000416545
0.000414678
0.000412269
0.000409324
0.000430933
0.000430052
0.000429068
0.00042797
0.000426719
0.000425224
0.000423369
0.000421085
0.000418467
0.000415504
0.00043958
0.000438381
0.000437035
0.00043553
0.000433827
0.000431871
0.00042963
0.000427113
0.000424388
0.000421413
0.000448702
0.000447104
0.000445314
0.000443319
0.000441117
0.000438723
0.000436158
0.00043344
0.000430586
0.000427539
0.000458496
0.000456473
0.000454233
0.000451779
0.000449122
0.000446289
0.000443329
0.000440285
0.000437154
0.000433884
0.000469013
0.000466546
0.000463857
0.000460943
0.000457817
0.000454515
0.000451086
0.000447577
0.000443994
0.000440304
0.000479989
0.000477027
0.000473861
0.000470474
0.000466868
0.000463074
0.000459135
0.000455084
0.000450932
0.000446668
0.000490993
0.00048742
0.000483687
0.000479793
0.000475732
0.000471476
0.000467036
0.000462433
0.000457682
0.000452764
0.000501546
0.000497213
0.000492787
0.000488296
0.000483736
0.000479045
0.000474179
0.000469147
0.000463957
0.000458466
0.000511133
0.000505881
0.00050059
0.000495323
0.000490115
0.000484964
0.000479847
0.000474744
0.000469512
0.00046365
0.000519227
0.000512917
0.000506618
0.000500408
0.000494366
0.000488557
0.000483059
0.000477778
0.000472295
0.000466477
0.00052528
0.000517778
0.00051028
0.000502942
0.000495868
0.000489161
0.000482892
0.000476916
0.000471013
0.000465454
0.000529288
0.000520552
0.000511902
0.000503468
0.000495374
0.000487723
0.000480542
0.000473664
0.000467123
0.000461041
0.000531768
0.000521983
0.000512428
0.000503221
0.000494435
0.00048608
0.000478151
0.000470621
0.000463559
0.000456957
0.000534378
0.000523985
0.000513966
0.000504391
0.000495295
0.000486673
0.000478493
0.000470758
0.000463459
0.000456595
0.000538857
0.000528405
0.000518467
0.000509095
0.000500287
0.000491982
0.000484099
0.000476556
0.000469338
0.000462447
0.00054648
0.000536565
0.000527371
0.000518914
0.000511126
0.000503841
0.000496839
0.000489919
0.000482956
0.000475854
0.000557921
0.000549067
0.000541162
0.000534196
0.000528018
0.000522334
0.000516707
0.000510519
0.000503026
0.000494444
0.000573171
0.000565709
0.000559416
0.000554285
0.000550121
0.000546452
0.000542146
0.000534916
0.000524907
0.000515617
0.00059177
0.000585781
0.00058115
0.00057794
0.000575925
0.000573862
0.000567955
0.000557315
0.000547307
0.000539917
0.000613055
0.000608394
0.000605183
0.00060359
0.000602987
0.000599875
0.000590685
0.000580103
0.000572521
0.000567643
0.000636322
0.000632695
0.000630389
0.000629582
0.000628907
0.000623712
0.000614128
0.000605764
0.000600722
0.000598228
0.000660989
0.000658117
0.000656133
0.000655138
0.000653816
0.000648565
0.000640562
0.000634361
0.000631413
0.000630826
0.00068659
0.000684425
0.000682608
0.000681179
0.000679566
0.000675654
0.000669767
0.000665288
0.000663719
0.000664434
0.000712516
0.000711222
0.000709834
0.000708294
0.000706529
0.000704135
0.000700673
0.000697747
0.000696753
0.000698037
0.000737909
0.00073767
0.00073709
0.000736035
0.000734503
0.000732749
0.000731137
0.000730036
0.000729626
0.000730993
0.000762034
0.000763014
0.000763562
0.000763479
0.00076277
0.000761782
0.000761025
0.000760878
0.000761445
0.000763138
0.000784838
0.000787363
0.000789493
0.00079081
0.000791263
0.000791311
0.000791491
0.000792076
0.000793211
0.000795139
0.000806466
0.000811024
0.000815393
0.000818775
0.000820662
0.000821609
0.000822464
0.000823531
0.000824945
0.000826993
0.000826706
0.000833621
0.000841142
0.000847955
0.000851651
0.000852743
0.000853713
0.000854949
0.000856556
0.000858795
0.00084535
0.00085448
0.0008655
0.000874312
0.000878225
0.00088192
0.000883192
0.000884909
0.000886998
0.000889037
0.000861235
0.000871282
0.000883483
0.000891269
0.000894947
0.000900002
0.000903195
0.000905454
0.000907865
0.000911171
0.000873919
0.000883306
0.000893911
0.000901716
0.000906325
0.000910106
0.000913693
0.000917259
0.00092096
0.000923519
0.000883897
0.000892057
0.000901018
0.000909966
0.000916926
0.000921576
0.000924581
0.000926582
0.000928276
0.000929717
0.000891216
0.00089807
0.000905439
0.000913395
0.00092035
0.00092519
0.000928873
0.000931794
0.000934086
0.000935825
0.000897192
0.000903429
0.000909806
0.000916265
0.000922516
0.000928145
0.00093291
0.000936728
0.000939601
0.000941579
0.000903328
0.000909445
0.000915546
0.000921594
0.000927489
0.000933022
0.000937911
0.000941909
0.000944887
0.000946816
0.000910257
0.000916411
0.000922437
0.000928305
0.000933925
0.00093913
0.00094369
0.000947375
0.00095002
0.000951526
0.000917912
0.000924051
0.000929942
0.000935546
0.000940761
0.000945432
0.00094936
0.000952334
0.000954266
0.000955065
0.000925705
0.000931554
0.000937015
0.000942045
0.000946539
0.000950364
0.000953378
0.000955433
0.000956403
0.000956214
0.000932054
0.00093715
0.000941826
0.000946013
0.000949553
0.000952329
0.000954257
0.000955217
0.000955055
0.000953678
0.00093471
0.000938961
0.000942801
0.000946087
0.00094857
0.000950194
0.00095099
0.00095084
0.000949481
0.000946766
0.000931384
0.000936804
0.000940985
0.000943553
0.000945095
0.000945774
0.000945517
0.000943948
0.00094071
0.000935952
0.000920462
0.000928616
0.000935064
0.000939119
0.000941983
0.000943967
0.000942613
0.000937173
0.000929863
0.000922621
0.00090402
0.000914599
0.000923947
0.000931466
0.000936399
0.000936405
0.000930841
0.000922376
0.000914367
0.000907884
0.000888628
0.000901624
0.000912315
0.000917519
0.000915992
0.000910969
0.000905528
0.000900918
0.000897666
0.000895845
0.000878224
0.000890059
0.000894189
0.000893216
0.000890798
0.000889173
0.000888946
0.00089007
0.000892003
0.000894247
0.000866185
0.000873787
0.000877659
0.000881295
0.00088549
0.000890055
0.000894552
0.000898183
0.000900527
0.000901564
0.000857224
0.000871338
0.000883647
0.00089428
0.000902265
0.000907068
0.000908823
0.000907881
0.000904812
0.000900197
0.000871782
0.0008873
0.000897605
0.00090333
0.000905196
0.00090393
0.00090017
0.000894369
0.000887072
0.000878982
0.000882846
0.000888295
0.000889424
0.000887713
0.000883863
0.000878289
0.000871186
0.000862779
0.000853374
0.000843393
0.000872856
0.000870614
0.000865927
0.000859437
0.000851449
0.000842168
0.00083179
0.000820585
0.00080889
0.000797124
0.000850754
0.000843178
0.000833829
0.000823062
0.000811086
0.000798101
0.000784397
0.000770394
0.000756639
0.000743816
0.000819497
0.000807466
0.000793912
0.000779176
0.000763581
0.000747475
0.000731304
0.000715684
0.000701448
0.000689632
0.000780764
0.000764751
0.000747649
0.000729855
0.000711818
0.000694018
0.000677074
0.000661863
0.00064959
0.000641693
0.000738368
0.000718967
0.000699249
0.000679729
0.000660887
0.000643219
0.000627501
0.000614965
0.000607245
0.000605977
0.000698059
0.000675877
0.000654581
0.000634703
0.000616499
0.000600382
0.000587398
0.00057927
0.000577853
0.00058446
0.00066533
0.000640688
0.00061846
0.000598932
0.000581965
0.000567943
0.000558392
0.000555425
0.000560556
0.000574019
0.000642575
0.000615293
0.000592098
0.000572851
0.000556897
0.000544762
0.00053854
0.000540384
0.000550751
0.000568571
0.000628694
0.000598329
0.000573638
0.000554005
0.000538445
0.00052754
0.000523761
0.000529073
0.000542466
0.000562128
0.000621401
0.000587458
0.000560561
0.000539726
0.000523604
0.000512863
0.000510294
0.000517564
0.000532177
0.000551903
0.000618626
0.000580679
0.000550868
0.000528043
0.000510486
0.000498753
0.000495883
0.00050354
0.000518636
0.000537248
0.000618561
0.000576418
0.000543101
0.000517626
0.000497944
0.000484255
0.000479816
0.000486601
0.000501724
0.000518936
0.000619954
0.000573579
0.000536291
0.00050767
0.000485471
0.00046931
0.000462699
0.000468159
0.000482885
0.000499403
0.000622025
0.000571423
0.000529802
0.000497636
0.000472715
0.000453823
0.000444626
0.000448454
0.000462856
0.0004805
0.000624175
0.000569403
0.000523199
0.000487138
0.000459391
0.000437807
0.000426184
0.000429083
0.000444101
0.000463661
0.000625869
0.000567117
0.000516225
0.000475889
0.000445122
0.000420915
0.000407121
0.000409935
0.000426522
0.000448104
0.00062665
0.000564245
0.000508708
0.000463635
0.000429357
0.00040238
0.000386578
0.000390153
0.000409214
0.000433303
0.000625927
0.000560542
0.000500592
0.000450252
0.000411702
0.000381734
0.000364478
0.000370495
0.000393856
0.000421914
0.000623328
0.000556111
0.000491984
0.000435679
0.00039179
0.00035854
0.000340967
0.000351984
0.000381781
0.000415049
0.0006208
0.000551807
0.000483058
0.000419752
0.000369132
0.000332189
0.000316073
0.000335186
0.00037326
0.000412405
0.000619329
0.000547623
0.000473371
0.000401987
0.000343139
0.000302012
0.000289827
0.00032023
0.000367905
0.000413286
0.00061886
0.000543078
0.00046229
0.000381885
0.00031338
0.000267519
0.000262382
0.000306833
0.000365038
0.000417128
0.00062022
0.000538228
0.000449467
0.000359159
0.000279805
0.000228719
0.00023408
0.000294274
0.000363664
0.000423609
0.000622718
0.000532004
0.000433833
0.000333242
0.000242714
0.000186496
0.000205398
0.000281367
0.000362411
0.000432255
0.000624461
0.000522622
0.000413961
0.000303536
0.000202977
0.000143106
0.000176774
0.000266474
0.000359242
0.000441799
0.000623949
0.000507781
0.000388103
0.000269476
0.000162053
0.000102243
0.00014852
0.000247764
0.000351403
0.000449529
0.000614386
0.000483074
0.00035446
0.000231124
0.000122166
6.82535e-05
0.000121383
0.000224243
0.000335715
0.000449023
0.000589818
0.000447534
0.000314638
0.000190677
8.64464e-05
4.41339e-05
9.68933e-05
0.000197672
0.000311638
0.000435818
0.000546738
0.00040453
0.000272326
0.000150744
5.77232e-05
2.97854e-05
7.59866e-05
0.000170888
0.000282012
0.000405278
0.000500548
0.000361737
0.000230776
0.000113189
3.75847e-05
2.26838e-05
5.88971e-05
0.000146938
0.000254829
0.000371286
0.000457782
0.000322525
0.00019046
7.95085e-05
2.59502e-05
1.97401e-05
4.4915e-05
0.000125331
0.000233304
0.000344124
0.0004263
0.000290088
0.000150052
5.14627e-05
2.05339e-05
1.84322e-05
3.34292e-05
0.000104179
0.000220336
0.00033128
0.000440671
0.000263377
0.000104421
3.04858e-05
1.81732e-05
1.76431e-05
2.39271e-05
7.78545e-05
0.000213424
0.000362943
0.000530858
0.000191225
4.83791e-05
1.84344e-05
1.7398e-05
1.73029e-05
1.74381e-05
4.0541e-05
0.00016888
0.000493709
7.58634e-06
7.54204e-06
7.48574e-06
7.41618e-06
7.3325e-06
7.23443e-06
7.12258e-06
6.99878e-06
6.86661e-06
6.73178e-06
6.60239e-06
6.48811e-06
6.39807e-06
6.33736e-06
6.30431e-06
6.29039e-06
6.2832e-06
6.27101e-06
6.24413e-06
6.19538e-06
6.12164e-06
6.02474e-06
5.91207e-06
5.79568e-06
5.68775e-06
5.59288e-06
5.50349e-06
5.40346e-06
5.27544e-06
5.10686e-06
4.89504e-06
4.72049e-06
4.71399e-06
4.70272e-06
1.99151e-05
1.99351e-05
1.8979e-05
1.70739e-05
1.4236e-05
2.87607e-06
6.03956e-05
5.934e-05
5.8103e-05
5.66916e-05
5.51301e-05
5.34616e-05
5.17497e-05
5.00772e-05
4.85395e-05
4.72378e-05
4.62664e-05
4.56941e-05
4.55432e-05
4.5772e-05
4.62719e-05
4.68788e-05
4.74047e-05
4.7722e-05
4.77253e-05
4.73003e-05
4.64539e-05
4.53184e-05
4.41354e-05
4.31783e-05
4.26054e-05
4.23244e-05
4.20121e-05
4.12628e-05
3.97437e-05
3.7303e-05
3.41067e-05
3.08945e-05
2.87089e-05
2.76546e-05
2.74428e-05
2.7432e-05
2.5627e-05
2.13277e-05
1.38764e-05
3.98562e-06
0.000120385
0.00011837
0.000116061
0.000113462
0.000110599
0.000107526
0.00010433
0.00010113
9.80714e-05
9.53126e-05
9.3009e-05
9.12794e-05
9.0173e-05
8.96451e-05
8.95562e-05
8.96952e-05
8.98241e-05
8.97225e-05
8.92179e-05
8.81987e-05
8.66659e-05
8.47489e-05
8.26849e-05
8.07389e-05
7.90538e-05
7.75316e-05
7.58623e-05
7.36731e-05
7.06664e-05
6.67037e-05
6.18907e-05
5.66634e-05
5.18299e-05
4.80358e-05
4.47424e-05
4.10549e-05
3.60668e-05
2.88551e-05
1.84972e-05
5.94482e-06
0.000171244
0.000168596
0.000165607
0.000162281
0.000158645
0.000154752
0.000150691
0.000146585
0.000142583
0.000138855
0.000135566
0.000132847
0.000130759
0.000129265
0.000128237
0.000127472
0.000126737
0.000125808
0.000124507
0.000122722
0.000120438
0.000117747
0.000114839
0.000111936
0.000109156
0.000106402
0.000103415
9.99101e-05
9.56707e-05
9.05976e-05
8.47462e-05
7.84104e-05
7.20615e-05
6.60837e-05
6.02087e-05
5.37887e-05
4.60979e-05
3.62004e-05
2.30919e-05
7.90195e-06
0.000213245
0.000210217
0.000206832
0.000203098
0.000199039
0.000194711
0.000190196
0.000185607
0.000181086
0.000176793
0.000172882
0.000169474
0.00016662
0.000164289
0.000162368
0.000160682
0.000159024
0.000157196
0.000155033
0.00015243
0.000149357
0.000145872
0.000142121
0.000138302
0.000134581
0.000130816
0.000126728
0.000122114
0.000116831
0.000110813
0.000104094
9.68443e-05
8.92867e-05
8.15403e-05
7.34589e-05
6.4666e-05
5.46436e-05
4.23737e-05
2.6774e-05
9.46502e-06
0.000248025
0.000244794
0.000241206
0.000237271
0.000233018
0.000228496
0.000223781
0.000218977
0.00021421
0.000209625
0.000205359
0.00020151
0.00019811
0.000195124
0.000192455
0.000189959
0.000187463
0.000184802
0.000181833
0.000178463
0.000174655
0.000170438
0.000165909
0.000161241
0.000156683
0.000152076
0.000147091
0.000141553
0.000135373
0.000128502
0.000120936
0.000112744
0.000104067
9.48742e-05
8.50867e-05
7.43672e-05
6.21518e-05
4.76501e-05
3.01108e-05
1.13838e-05
0.000277031
0.000273709
0.000270039
0.000266034
0.000261723
0.000257156
0.000252398
0.000247543
0.000242701
0.000238002
0.000233568
0.000229474
0.000225714
0.00022224
0.000218977
0.00021581
0.000212603
0.000209218
0.000205545
0.000201506
0.000197069
0.000192247
0.00018711
0.0001818
0.000176467
0.000171034
0.00016527
0.000158965
0.000152022
0.000144407
0.000136104
0.000127127
0.000117501
0.000107178
9.59936e-05
8.36295e-05
6.96553e-05
5.34255e-05
3.43042e-05
1.41549e-05
0.000301402
0.00029805
0.000294362
0.000290356
0.000286064
0.000281531
0.000276819
0.000272006
0.000267189
0.00026248
0.000257992
0.000253788
0.000249831
0.000246049
0.000242363
0.000238687
0.000234913
0.00023094
0.000226685
0.000222094
0.000217146
0.000211848
0.000206249
0.000200431
0.000194482
0.000188342
0.000181886
0.000174922
0.000167306
0.000159006
0.000150049
0.000140431
0.000130074
0.000118809
0.00010643
9.26921e-05
7.71424e-05
5.91878e-05
3.86354e-05
1.72826e-05
0.000322029
0.000318668
0.000314984
0.000311001
0.000306756
0.000302293
0.000297669
0.000292949
0.000288213
0.000283548
0.000279037
0.000274735
0.000270758
0.000266934
0.000263045
0.000259035
0.000254846
0.000250418
0.000245703
0.000240673
0.000235317
0.000229643
0.000223675
0.000217449
0.000210996
0.000204272
0.000197198
0.000189654
0.000181482
0.000172647
0.000163149
0.000152941
0.000141869
0.000129709
0.000116218
0.00010108
8.38369e-05
6.40749e-05
4.19615e-05
1.99113e-05
0.000339621
0.00033624
0.000332547
0.000328576
0.000324373
0.000319984
0.000315465
0.000310871
0.000306264
0.000301705
0.000297245
0.000292956
0.000289023
0.000285271
0.000281348
0.000277164
0.000272706
0.000267955
0.000262897
0.000257525
0.000251843
0.000245859
0.000239585
0.000233028
0.000226184
0.000219013
0.00021146
0.00020345
0.000194874
0.000185628
0.000175652
0.000164842
0.000153045
0.000140013
0.000125416
0.000108719
8.91921e-05
6.58719e-05
3.83491e-05
1.99734e-05
0.000354747
0.00035131
0.000347566
0.000343569
0.000339374
0.000335039
0.000330621
0.000326173
0.000321742
0.000317369
0.000313086
0.000308979
0.000305146
0.000301453
0.000297571
0.000293325
0.000288712
0.000283742
0.000278427
0.000272785
0.000266833
0.000260583
0.000254046
0.000247215
0.000240072
0.000232583
0.000224695
0.000216341
0.000207421
0.000197819
0.000187425
0.00017609
0.000163627
0.000149779
0.000134159
0.000116174
9.49057e-05
6.90164e-05
3.68268e-05
4.67032e-06
0.000367876
0.000364328
0.000360474
0.000356391
0.000352156
0.000347841
0.00034351
0.000339214
0.000334993
0.000330874
0.000326877
0.000323053
0.00031942
0.000315855
0.000312032
0.000307758
0.000303028
0.000297877
0.000292345
0.000286467
0.000280274
0.00027379
0.000267026
0.000259978
0.000252622
0.00024492
0.000236811
0.000228202
0.000218997
0.000209099
0.000198333
0.000186493
0.000173298
0.000158541
0.000141868
0.000122703
0.000100119
7.26654e-05
3.89477e-05
2.02067e-05
0.000379399
0.000375671
0.000371636
0.000367408
0.000363086
0.00035876
0.000354499
0.000350354
0.000346356
0.000342521
0.000338851
0.000335349
0.000331982
0.000328612
0.000324866
0.000320534
0.00031565
0.000310297
0.000304546
0.000298454
0.000292055
0.000285372
0.000278417
0.00027119
0.000263669
0.000255808
0.000247528
0.000238759
0.000229433
0.00021926
0.000208051
0.000195568
0.000181517
0.000165592
0.00014762
0.00012718
0.00010354
7.52353e-05
3.97165e-05
4.75176e-06
0.000389576
0.000385582
0.000381307
0.000376897
0.000372471
0.000368122
0.000363919
0.00035991
0.000356112
0.000352522
0.000349122
0.000345896
0.000342781
0.000339559
0.000335799
0.000331334
0.000326245
0.000320672
0.000314723
0.00030847
0.000301943
0.000295138
0.000288048
0.000280683
0.000273036
0.000265052
0.00025666
0.000247862
0.000238471
0.000228047
0.000216285
0.000202886
0.000187603
0.00017016
0.000150285
0.000127952
0.000102932
7.41354e-05
3.88434e-05
4.85023e-06
0.000398364
0.00039408
0.000389586
0.000385035
0.000380538
0.00037618
0.000372024
0.000368108
0.000364445
0.00036101
0.000357734
0.000354562
0.000351479
0.000348341
0.000344543
0.000339883
0.000334563
0.00032879
0.000322689
0.000316347
0.000309788
0.000302949
0.000295795
0.000288385
0.000280753
0.000272831
0.000264528
0.00025573
0.000246181
0.000235475
0.000223058
0.000208561
0.000191795
0.000172533
0.000150571
0.000125909
9.89165e-05
6.95469e-05
3.65075e-05
2.02959e-05
0.000405585
0.000401207
0.000396666
0.000392104
0.000387618
0.000383273
0.00037912
0.000375199
0.000371528
0.000368086
0.000364784
0.000361546
0.000358384
0.000355136
0.000351208
0.000346325
0.000340779
0.000334826
0.000328601
0.000322195
0.000315627
0.0003088
0.00030166
0.000294312
0.000286831
0.00027913
0.000271034
0.000262264
0.000252526
0.000241433
0.000228404
0.000213106
0.000195309
0.000174734
0.000151152
0.000124597
9.57117e-05
6.53399e-05
3.30075e-05
4.72494e-06
0.000411852
0.000407591
0.000403154
0.000398661
0.000394194
0.000389811
0.000385559
0.000381478
0.000377601
0.00037394
0.000370455
0.000367096
0.000363792
0.000360291
0.000356083
0.000350992
0.000345261
0.000339132
0.000332773
0.000326278
0.000319663
0.000312825
0.000305739
0.000298491
0.000291145
0.000283635
0.000275721
0.000266991
0.000257104
0.000245713
0.000232394
0.000216867
0.000198847
0.000178032
0.000154161
0.000127189
9.75439e-05
6.61268e-05
3.35125e-05
4.72358e-06
0.000417889
0.000413805
0.000409489
0.00040503
0.000400501
0.000395965
0.00039148
0.000387099
0.00038288
0.00037888
0.000375113
0.0003715
0.000367901
0.000364038
0.000359511
0.00035421
0.00034828
0.000341948
0.000335413
0.00032877
0.00032202
0.000315111
0.000308038
0.000300817
0.000293494
0.000286002
0.000278017
0.000269224
0.000259308
0.000247896
0.000234683
0.000219424
0.00020183
0.000181585
0.000158377
0.00013199
0.000102443
7.00649e-05
3.5491e-05
4.71491e-06
0.000424044
0.000420016
0.000415701
0.000411155
0.000406449
0.000401656
0.000396852
0.000392112
0.000387512
0.000383123
0.000378954
0.000374909
0.000370877
0.000366567
0.00036167
0.000356089
0.000349919
0.000343361
0.000336611
0.000329767
0.000322822
0.000315757
0.000308576
0.000301267
0.000293855
0.000286181
0.000277975
0.000269034
0.000259111
0.000247877
0.000235049
0.000220357
0.000203519
0.000184188
0.000161981
0.00013652
0.000107476
7.46422e-05
3.86551e-05
2.02338e-05
0.000430221
0.000426048
0.000421577
0.000416828
0.000411862
0.000406772
0.000401651
0.000396584
0.000391635
0.00038685
0.000382225
0.000377681
0.00037308
0.000368197
0.000362819
0.000356876
0.00035043
0.000343629
0.000336626
0.000329502
0.000322245
0.000314873
0.000307389
0.000299775
0.000292023
0.000283988
0.000275493
0.000266401
0.000256524
0.000245568
0.000233256
0.000219291
0.000203319
0.000184937
0.00016371
0.000139164
0.000110768
7.79115e-05
4.02021e-05
4.71835e-06
0.000436255
0.000431731
0.000426944
0.000421877
0.000416583
0.000411179
0.000405777
0.000400456
0.000395254
0.000390168
0.000385146
0.000380102
0.000374911
0.000369406
0.000363472
0.000357077
0.000350264
0.000343124
0.000335744
0.000328156
0.000320347
0.000312349
0.000304197
0.0002959
0.000287437
0.000278795
0.000269896
0.000260651
0.000250921
0.000240465
0.000228921
0.00021586
0.000200819
0.000183328
0.000162897
0.000138998
0.000111024
7.82726e-05
4.03846e-05
4.78591e-06
0.000442043
0.000436956
0.000431675
0.000426178
0.000420513
0.00041482
0.000409204
0.000403725
0.000398405
0.000393193
0.000387938
0.000382485
0.000376734
0.000370606
0.000364067
0.000357115
0.000349791
0.000342141
0.000334188
0.000325876
0.000317112
0.000307996
0.000298714
0.000289344
0.000279991
0.000270683
0.000261374
0.000252009
0.000242512
0.000232667
0.000222031
0.000210023
0.000196029
0.000179468
0.000159791
0.000136459
0.000108913
7.65721e-05
3.93518e-05
4.86202e-06
0.000447413
0.000441547
0.000435593
0.000429604
0.000423628
0.000417764
0.000412012
0.000406414
0.000401075
0.000395936
0.000390698
0.000385029
0.000378805
0.000372051
0.000364841
0.000357231
0.000349285
0.000341066
0.000332525
0.000323347
0.000313566
0.000303678
0.000293716
0.000283593
0.000273423
0.000263331
0.000253259
0.000243243
0.000233404
0.000223691
0.000213651
0.00020254
0.000189559
0.00017397
0.000155136
0.000132515
0.000105653
7.42161e-05
3.83506e-05
5.05331e-06
0.000452322
0.000445524
0.000438746
0.000432202
0.000425972
0.000420073
0.000414253
0.000408478
0.00040312
0.000398219
0.000393163
0.000387348
0.000380648
0.000373228
0.000365353
0.000357201
0.000348942
0.000340656
0.000332111
0.000322921
0.000313289
0.00030362
0.000293801
0.000283406
0.000272537
0.000261436
0.000250092
0.000238655
0.000227435
0.000216687
0.000206184
0.000195168
0.000182712
0.000167894
0.000149948
0.00012827
0.000102426
7.21669e-05
3.76576e-05
5.40517e-06
0.000456681
0.00044882
0.000441124
0.000433958
0.000427346
0.000421209
0.000415177
0.00040891
0.000403188
0.000398345
0.000393529
0.000387495
0.000380344
0.000372605
0.000364698
0.000356839
0.000349124
0.000341611
0.000334286
0.000326665
0.000318523
0.00031
0.000300822
0.000290523
0.00027909
0.00026677
0.00025381
0.000240612
0.00022744
0.000214595
0.000202265
0.000190108
0.000177306
0.000162689
0.000145447
0.000124932
0.000100569
7.1778e-05
3.80374e-05
5.92081e-06
0.000459654
0.000451233
0.000442799
0.000434756
0.000426965
0.000419643
0.000412946
0.000406453
0.000400381
0.000395357
0.000391031
0.000385723
0.000379055
0.000371963
0.000364997
0.000358365
0.000352192
0.000346622
0.000341533
0.000336172
0.000329926
0.000322601
0.000313895
0.000303447
0.000291343
0.000277845
0.00026342
0.000248696
0.000233966
0.000219264
0.0002045
0.000190102
0.000175839
0.000160435
0.000143303
0.000123879
0.000101313
7.42391e-05
4.04463e-05
6.56301e-06
0.000459568
0.000451711
0.000442611
0.000433243
0.000424288
0.000415946
0.000408521
0.000401969
0.000396384
0.000392163
0.000388852
0.000385063
0.0003802
0.000374899
0.000369832
0.000365319
0.000361534
0.000358602
0.000356043
0.000352743
0.000347959
0.000341399
0.000332797
0.000321979
0.00030911
0.00029461
0.000278966
0.000262546
0.00024577
0.00022914
0.000212767
0.00019676
0.000180765
0.000163947
0.000146027
0.000126825
0.000105361
7.96937e-05
4.54146e-05
7.30347e-06
0.000454927
0.000447526
0.000438996
0.000429928
0.000421024
0.000412726
0.00040537
0.000399185
0.000394416
0.000391309
0.000389579
0.000388096
0.000385678
0.000382829
0.000380543
0.000379171
0.000378684
0.000378847
0.000378734
0.000377209
0.000373625
0.0003676
0.00035885
0.000347303
0.000333166
0.000316902
0.000299104
0.000280315
0.000261239
0.000242668
0.000225105
0.000208551
0.000191996
0.000174356
0.000154993
0.000133943
0.000111009
8.50456e-05
5.15239e-05
8.11881e-06
0.000450486
0.000443364
0.000435866
0.000428106
0.000420274
0.000412739
0.000406019
0.000400582
0.000396801
0.000394924
0.000394739
0.00039539
0.000395918
0.000396875
0.00039881
0.000401665
0.00040509
0.000408451
0.0004107
0.000410919
0.000408429
0.000402828
0.000393926
0.000381727
0.000366445
0.000348497
0.000328477
0.000307115
0.000285423
0.000264007
0.000243179
0.000223007
0.000202755
0.000182053
0.000159903
0.000136453
0.000111835
8.53021e-05
5.22213e-05
8.86634e-06
0.000449944
0.000443158
0.000436467
0.000429791
0.000423131
0.000416631
0.000410881
0.000406516
0.000403864
0.000403342
0.000405217
0.000408893
0.000413681
0.000419637
0.000426618
0.000434082
0.0004413
0.000447474
0.000451658
0.000453083
0.000451258
0.000445954
0.000437143
0.000424978
0.000409767
0.000391887
0.000371679
0.000349631
0.000326479
0.00030265
0.000278145
0.000252545
0.000226128
0.000198351
0.000169186
0.000139636
0.000110204
8.02744e-05
4.80174e-05
9.06184e-06
0.000455621
0.000448726
0.000442146
0.000435819
0.000429917
0.000424688
0.000420436
0.000417708
0.000417061
0.00041912
0.000424147
0.00043172
0.000441244
0.000452166
0.000463777
0.000475066
0.000485061
0.000492933
0.000497972
0.000499698
0.00049787
0.000492444
0.000483564
0.000471558
0.000456917
0.00044021
0.000421738
0.000401358
0.000378953
0.000354602
0.000328305
0.000299957
0.000269522
0.000236594
0.000201136
0.000163341
0.000124426
8.49012e-05
4.57748e-05
1.01434e-05
0.000468241
0.000460465
0.000453584
0.000447771
0.000443122
0.000439785
0.000437904
0.00043782
0.00044006
0.000445049
0.000453166
0.000464197
0.000477545
0.000492338
0.000507397
0.000521264
0.000532689
0.000540965
0.000545806
0.000547038
0.000544626
0.00053866
0.000529386
0.000517216
0.000502689
0.000486393
0.000468742
0.000449614
0.000428583
0.000405278
0.000379513
0.000351227
0.000319858
0.000285299
0.000247161
0.000204723
0.000157875
0.00010733
5.56959e-05
1.16889e-05
0.000485908
0.000478255
0.000472435
0.000468368
0.000465941
0.000465078
0.000465858
0.000468511
0.000473291
0.000480535
0.000490724
0.000503892
0.000519598
0.000536909
0.000554259
0.000569529
0.000581142
0.000588733
0.000592547
0.000592755
0.000589416
0.000582656
0.000572748
0.000560096
0.000545183
0.000528487
0.00051037
0.000490929
0.000469921
0.00044676
0.000420642
0.000391449
0.000359536
0.000324921