/*--------------------------------*- C++ -*----------------------------------*\
  =========                 |
  \\      /  F ield         | OpenFOAM: The Open Source CFD Toolbox
   \\    /   O peration     | Website:  https://openfoam.org
    \\  /    A nd           | Version:  8
     \\/     M anipulation  |
\*---------------------------------------------------------------------------*/
FoamFile
{
    version     2.0;
    format      ascii;
    class       surfaceScalarField;
    location    "3.9";
    object      phi;
}
// * * * * * * * * * * * * * * * * * * * * * * * * * * * * * * * * * * * * * //

dimensions      [0 3 -1 0 0 0 0];

internalField   nonuniform List<scalar> 
18095
(
1.58386e-07
-9.6566e-07
8.07274e-07
1.65306e-07
-1.24819e-06
1.24127e-06
1.22142e-07
-1.24223e-06
1.28539e-06
6.52808e-08
-1.26348e-06
1.32035e-06
-1.6793e-11
-1.28046e-06
1.34576e-06
-6.53113e-08
-1.28046e-06
1.34576e-06
-1.22165e-07
-1.26348e-06
1.32033e-06
-1.65321e-07
-1.24222e-06
1.28537e-06
-1.58392e-07
-1.24818e-06
1.24125e-06
-9.65641e-07
8.07249e-07
1.10983e-07
-1.07664e-06
9.93607e-08
-1.23657e-06
7.28212e-08
-1.21569e-06
4.00079e-08
-1.23067e-06
-1.09591e-11
-1.24045e-06
-4.00281e-08
-1.24044e-06
-7.2837e-08
-1.23067e-06
-9.93729e-08
-1.21568e-06
-1.1099e-07
-1.23656e-06
-1.07663e-06
6.71153e-08
-1.14376e-06
5.27216e-08
-1.22217e-06
4.21154e-08
-1.20508e-06
2.38415e-08
-1.2124e-06
-6.54823e-12
-1.2166e-06
-2.38538e-08
-1.2166e-06
-4.21254e-08
-1.2124e-06
-5.27293e-08
-1.20508e-06
-6.71217e-08
-1.22217e-06
-1.14375e-06
3.9596e-08
-1.18335e-06
2.66085e-08
-1.20918e-06
2.20003e-08
-1.20047e-06
1.25152e-08
-1.20291e-06
-3.34048e-12
-1.20408e-06
-1.25216e-08
-1.20408e-06
-2.20057e-08
-1.20291e-06
-2.66127e-08
-1.20047e-06
-3.96001e-08
-1.20918e-06
-1.18335e-06
1.66465e-08
7.46256e-09
6.98956e-09
4.07803e-09
-9.68916e-13
-4.07994e-09
-6.99125e-09
-7.46374e-09
-1.6648e-08
-1.75155e-07
-1.16422e-06
1.33938e-06
-2.19265e-07
-1.21653e-06
1.26064e-06
-1.6539e-07
-1.2129e-06
1.15903e-06
-8.73733e-08
-1.20409e-06
1.12607e-06
-1.85463e-10
-1.20253e-06
1.11534e-06
8.701e-08
-1.2025e-06
1.1153e-06
1.65064e-07
-1.20401e-06
1.12596e-06
2.18963e-07
-1.2128e-06
1.1589e-06
1.74865e-07
-1.21638e-06
1.26048e-06
-1.16404e-06
1.3389e-06
-9.30853e-08
-1.07113e-06
-9.57797e-08
-1.21384e-06
-7.93918e-08
-1.22929e-06
-4.43389e-08
-1.23914e-06
-1.04826e-10
-1.24676e-06
4.41376e-08
-1.24674e-06
7.92106e-08
-1.23908e-06
9.5628e-08
-1.22922e-06
9.29986e-08
-1.21375e-06
-1.07104e-06
-5.79593e-08
-1.01318e-06
-5.52142e-08
-1.21658e-06
-4.65881e-08
-1.23792e-06
-2.72038e-08
-1.25852e-06
-6.31311e-11
-1.2739e-06
2.70835e-08
-1.27389e-06
4.64845e-08
-1.25849e-06
5.51379e-08
-1.23787e-06
5.79218e-08
-1.21653e-06
-1.01312e-06
-7.47466e-08
-9.38429e-07
-6.19567e-08
-1.22937e-06
-4.86235e-08
-1.25125e-06
-2.78265e-08
-1.27932e-06
-3.92893e-11
-1.30169e-06
2.77523e-08
-1.30168e-06
4.85618e-08
-1.2793e-06
6.19149e-08
-1.25122e-06
7.47271e-08
-1.22935e-06
-9.3839e-07
-1.31155e-07
-1.1926e-07
-8.51209e-08
-4.40967e-08
-2.55246e-11
4.4049e-08
8.50821e-08
1.19234e-07
1.31141e-07
-4.43009e-08
-9.34644e-07
9.78945e-07
4.26674e-09
-1.34232e-06
1.29375e-06
9.79911e-09
-1.2746e-06
1.26907e-06
3.69837e-09
-1.22697e-06
1.23307e-06
-1.52096e-09
-1.22471e-06
1.22993e-06
-6.82256e-09
-1.22441e-06
1.22971e-06
-1.27349e-08
-1.2271e-06
1.23301e-06
-8.26561e-09
-1.27523e-06
1.27076e-06
3.88713e-08
-1.34142e-06
1.29429e-06
-9.28603e-07
9.67474e-07
1.24761e-08
-9.4712e-07
1.81015e-08
-1.34794e-06
1.19272e-08
-1.26843e-06
5.49244e-09
-1.22053e-06
-1.24763e-09
-1.21797e-06
-7.94519e-09
-1.21771e-06
-1.42629e-08
-1.22078e-06
-2.12972e-08
-1.26819e-06
-1.50084e-08
-1.34771e-06
-9.43612e-07
2.79846e-08
-9.75105e-07
1.91875e-08
-1.33915e-06
1.03976e-08
-1.25964e-06
5.85844e-09
-1.21599e-06
-7.57517e-10
-1.21135e-06
-7.14107e-09
-1.21132e-06
-1.19463e-08
-1.21598e-06
-2.06423e-08
-1.2595e-06
-2.94406e-08
-1.33891e-06
-9.73052e-07
7.89583e-08
-1.05406e-06
5.23563e-08
-1.31255e-06
3.33023e-08
-1.24058e-06
2.04652e-08
-1.20316e-06
-4.74362e-10
-1.19041e-06
-2.14157e-08
-1.19038e-06
-3.44063e-08
-1.20299e-06
-5.35201e-08
-1.24038e-06
-7.99881e-08
-1.31245e-06
-1.05304e-06
2.85312e-07
2.33409e-07
1.51854e-07
7.47687e-08
-3.023e-10
-7.53816e-08
-1.52413e-07
-2.33894e-07
-2.85863e-07
1.36659e-07
4.83866e-10
-1.37143e-07
1.36075e-07
5.83533e-10
1.35408e-07
6.67363e-10
1.34667e-07
7.40671e-10
1.33858e-07
8.0912e-10
1.32978e-07
8.7938e-10
1.32018e-07
9.60373e-10
1.30956e-07
1.06148e-09
1.29765e-07
1.19106e-09
1.35821e-09
1.28407e-07
1.36099e-07
8.74129e-10
-1.3649e-07
1.35608e-07
1.07468e-09
1.35026e-07
1.24964e-09
1.34363e-07
1.4044e-09
1.33624e-07
1.54753e-09
1.32815e-07
1.68945e-09
1.31933e-07
1.84254e-09
1.30974e-07
2.02049e-09
1.29927e-07
2.23853e-09
2.51086e-09
1.28775e-07
1.31637e-07
1.36503e-09
-1.32128e-07
1.31043e-07
1.66866e-09
1.30356e-07
1.93599e-09
1.29586e-07
2.17443e-09
1.28738e-07
2.39549e-09
1.27813e-07
2.61414e-09
1.26808e-07
2.84715e-09
1.25716e-07
3.11269e-09
1.24525e-07
3.42899e-09
3.81362e-09
1.23222e-07
1.26659e-07
1.96466e-09
-1.27259e-07
1.25955e-07
2.37303e-09
1.2516e-07
2.73096e-09
1.24287e-07
3.0474e-09
1.23344e-07
3.33919e-09
1.2233e-07
3.62782e-09
1.21241e-07
3.93582e-09
1.20069e-07
4.28555e-09
1.188e-07
4.69764e-09
5.19114e-09
1.17422e-07
1.21325e-07
2.68826e-09
-1.22048e-07
1.20493e-07
3.20424e-09
1.19577e-07
3.64685e-09
1.18598e-07
4.02653e-09
1.17567e-07
4.37091e-09
1.16482e-07
4.71294e-09
1.15335e-07
5.08311e-09
1.14113e-07
5.50722e-09
1.12804e-07
6.00651e-09
6.59924e-09
1.11395e-07
1.15669e-07
3.54248e-09
-1.16523e-07
1.14696e-07
4.17797e-09
1.13646e-07
4.69724e-09
1.12562e-07
5.10988e-09
1.11459e-07
5.47417e-09
1.10326e-07
5.84676e-09
1.09141e-07
6.26774e-09
1.07886e-07
6.76244e-09
1.06545e-07
7.34702e-09
8.03351e-09
1.05111e-07
1.097e-07
4.50859e-09
-1.10666e-07
1.08578e-07
5.29986e-09
1.07391e-07
5.88431e-09
1.06228e-07
6.27348e-09
1.05102e-07
6.59991e-09
1.03964e-07
6.98577e-09
1.0276e-07
7.47137e-09
1.01463e-07
8.05959e-09
1.00062e-07
8.74778e-09
9.53588e-09
9.85592e-08
1.03443e-07
5.44325e-09
-1.04378e-07
1.02151e-07
6.5925e-09
1.00848e-07
7.18729e-09
9.9753e-08
7.36884e-09
9.87378e-08
7.61518e-09
9.76388e-08
8.08483e-09
9.63919e-08
8.71822e-09
9.49811e-08
9.47037e-09
9.34169e-08
1.0312e-08
1.1227e-08
9.17258e-08
9.64874e-08
6.33268e-09
-9.73768e-08
9.53579e-08
7.72164e-09
9.43787e-08
8.16659e-09
9.37948e-08
7.95291e-09
9.29575e-08
8.45272e-09
9.1809e-08
9.23349e-09
9.03544e-08
1.01729e-08
8.86287e-08
1.11962e-08
8.66887e-08
1.2252e-08
1.33151e-08
8.46005e-08
8.99308e-08
5.98785e-09
-8.95861e-08
9.07692e-08
6.88286e-09
9.09224e-08
8.01345e-09
9.01362e-08
8.73914e-09
8.88176e-08
9.77146e-09
8.7061e-08
1.09901e-08
8.49261e-08
1.23079e-08
8.24893e-08
1.36332e-08
7.98411e-08
1.49003e-08
1.60762e-08
7.708e-08
8.85391e-08
5.71964e-09
-8.8271e-08
8.83386e-08
7.083e-09
8.78084e-08
8.54363e-09
8.64938e-08
1.00539e-08
8.45563e-08
1.17091e-08
8.20652e-08
1.34814e-08
7.91087e-08
1.52646e-08
7.57918e-08
1.69501e-08
7.22557e-08
1.84363e-08
1.96675e-08
6.86642e-08
8.54696e-08
5.92213e-09
-8.56722e-08
8.48581e-08
7.69434e-09
8.36867e-08
9.71509e-09
8.18233e-08
1.19174e-08
7.92658e-08
1.42666e-08
7.60579e-08
1.66894e-08
7.22423e-08
1.90801e-08
6.79305e-08
2.12618e-08
6.33506e-08
2.30162e-08
2.42073e-08
5.88108e-08
8.04665e-08
6.46971e-09
-8.10142e-08
7.93882e-08
8.7727e-09
7.77538e-08
1.13496e-08
7.54768e-08
1.41945e-08
7.24733e-08
1.727e-08
6.86545e-08
2.05082e-08
6.39572e-08
2.37773e-08
5.84582e-08
2.67606e-08
5.25674e-08
2.89068e-08
2.98663e-08
4.69082e-08
7.29749e-08
7.49966e-09
-7.40048e-08
7.14949e-08
1.0253e-08
6.95037e-08
1.33409e-08
6.69217e-08
1.67764e-08
6.36091e-08
2.05825e-08
5.9372e-08
2.4745e-08
5.38442e-08
2.9305e-08
4.68223e-08
3.37823e-08
3.91514e-08
3.65777e-08
3.69567e-08
3.20611e-08
6.24778e-08
9.13093e-09
-6.41089e-08
6.04263e-08
1.23049e-08
5.78921e-08
1.5875e-08
5.48007e-08
1.98678e-08
5.10641e-08
2.4319e-08
4.6517e-08
2.92922e-08
4.07959e-08
3.5026e-08
3.24652e-08
4.2113e-08
2.07676e-08
4.82753e-08
4.44306e-08
1.32937e-08
4.86604e-08
1.16981e-08
-5.12274e-08
4.55637e-08
1.54015e-08
4.18434e-08
1.95953e-08
3.7308e-08
2.44032e-08
3.18435e-08
2.97835e-08
2.54632e-08
3.56725e-08
1.78132e-08
4.26761e-08
8.24478e-09
5.16815e-08
2.30398e-09
5.42162e-08
4.861e-08
-1.87546e-09
3.30491e-08
1.50399e-08
-3.6391e-08
2.92345e-08
1.92162e-08
2.48988e-08
2.3931e-08
1.99633e-08
2.93388e-08
1.37921e-08
3.59548e-08
6.44812e-09
4.30165e-08
-6.04773e-10
4.9729e-08
-3.93017e-09
5.50069e-08
-5.74484e-09
5.60308e-08
5.17138e-08
-8.84875e-09
1.58748e-08
1.91139e-08
-1.99488e-08
1.14064e-08
2.36846e-08
6.61445e-09
2.87229e-08
1.62693e-09
3.43264e-08
-3.83259e-09
4.14143e-08
-8.32252e-09
4.75064e-08
-1.18999e-08
5.33063e-08
-1.37739e-08
5.68809e-08
-1.53661e-08
5.76229e-08
5.43282e-08
-1.79806e-08
-1.80125e-09
2.36459e-08
-2.73079e-09
-6.66715e-09
2.85503e-08
-1.17413e-08
3.3797e-08
-1.68377e-08
3.94227e-08
-1.97688e-08
4.43452e-08
-2.09253e-08
4.86627e-08
-2.3118e-08
5.5499e-08
-2.57016e-08
5.94644e-08
-2.76967e-08
5.96179e-08
5.8189e-08
-3.15577e-08
-1.94978e-08
2.81391e-08
1.50045e-08
-2.4227e-08
3.32793e-08
-2.90067e-08
3.85766e-08
-3.34252e-08
4.38409e-08
-3.81662e-08
4.9086e-08
-4.32129e-08
5.37093e-08
-4.53844e-08
5.76703e-08
-4.65272e-08
6.06071e-08
-4.88986e-08
6.19892e-08
6.23351e-08
-5.30447e-08
-3.96488e-08
3.28108e-08
3.4977e-08
-4.48097e-08
3.844e-08
-5.04322e-08
4.41988e-08
-5.60867e-08
4.94951e-08
-6.10004e-08
5.39995e-08
-6.50395e-08
5.77483e-08
-6.82784e-08
6.09092e-08
-7.11364e-08
6.3465e-08
-7.45432e-08
6.5396e-08
6.68835e-08
-7.90916e-08
-6.12415e-08
3.70266e-08
5.70257e-08
-6.62831e-08
4.34811e-08
-7.21753e-08
5.00908e-08
-7.8911e-08
5.62305e-08
-8.44298e-08
5.9518e-08
-8.9353e-08
6.26712e-08
-9.38518e-08
6.54077e-08
-9.82381e-08
6.78512e-08
-1.02994e-07
7.0152e-08
7.23176e-08
-1.08428e-07
-8.5937e-08
4.02618e-08
8.27016e-08
-9.07742e-08
4.83183e-08
-9.59588e-08
5.52753e-08
-1.00944e-07
6.12156e-08
-1.07531e-07
6.61053e-08
-1.14306e-07
6.94461e-08
-1.20905e-07
7.20058e-08
-1.27664e-07
7.46109e-08
-1.3501e-07
7.74973e-08
7.99479e-08
-1.4264e-07
-1.12276e-07
4.45133e-08
1.08024e-07
-1.14995e-07
5.10375e-08
-1.17752e-07
5.80328e-08
-1.214e-07
6.4863e-08
-1.29319e-07
7.40245e-08
-1.38744e-07
7.8871e-08
-1.46795e-07
8.00567e-08
-1.55408e-07
8.32239e-08
-1.67169e-07
8.92586e-08
9.13706e-08
-1.78592e-07
-1.43393e-07
4.87669e-08
1.3914e-07
-1.447e-07
5.23446e-08
-1.47932e-07
6.12651e-08
-1.50241e-07
6.7172e-08
-1.5037e-07
7.41532e-08
-1.53325e-07
8.18259e-08
-1.63801e-07
9.05329e-08
-1.75737e-07
9.516e-08
-1.9668e-07
1.10202e-07
1.14799e-07
-2.20109e-07
-1.78546e-07
4.96933e-08
1.7762e-07
-1.80635e-07
5.44332e-08
-1.77556e-07
5.81867e-08
-1.77405e-07
6.70202e-08
-1.78583e-07
7.53311e-08
-1.82499e-07
8.57427e-08
-1.88941e-07
9.69752e-08
-2.09002e-07
1.15221e-07
-2.26932e-07
1.28131e-07
1.28925e-07
-2.41058e-07
-2.20836e-07
5.18711e-08
2.18659e-07
-2.23392e-07
5.69889e-08
-2.27113e-07
6.19081e-08
-2.28773e-07
6.86799e-08
-2.30472e-07
7.70299e-08
-2.33473e-07
8.87438e-08
-2.43399e-07
1.06902e-07
-2.54851e-07
1.26673e-07
-2.65963e-07
1.39244e-07
1.42311e-07
-2.79348e-07
-2.65309e-07
5.63397e-08
2.6084e-07
-2.69178e-07
6.08584e-08
-2.73722e-07
6.64526e-08
-2.788e-07
7.37579e-08
-2.85976e-07
8.42062e-08
-2.93978e-07
9.67462e-08
-3.02707e-07
1.15631e-07
-3.11035e-07
1.35001e-07
-3.19141e-07
1.4735e-07
1.55482e-07
-3.32312e-07
-3.08306e-07
6.16079e-08
3.03038e-07
-3.13378e-07
6.59302e-08
-3.19901e-07
7.29757e-08
-3.2846e-07
8.23177e-08
-3.37434e-07
9.31806e-08
-3.4848e-07
1.07792e-07
-3.54689e-07
1.21839e-07
-3.5683e-07
1.37142e-07
-3.53899e-07
1.44419e-07
1.61221e-07
-3.59637e-07
-3.32751e-07
6.79933e-08
3.26366e-07
-3.39652e-07
7.28313e-08
-3.47637e-07
8.09604e-08
-3.56256e-07
9.09368e-08
-3.65028e-07
1.01953e-07
-3.71652e-07
1.14416e-07
-3.77634e-07
1.27821e-07
-3.8343e-07
1.42939e-07
-3.96937e-07
1.57925e-07
1.67972e-07
-4.03688e-07
-3.49632e-07
7.5839e-08
3.41786e-07
-3.59258e-07
8.24576e-08
-3.69128e-07
9.08309e-08
-3.78993e-07
1.00801e-07
-3.89547e-07
1.12507e-07
-4.00719e-07
1.25588e-07
-4.12631e-07
1.39733e-07
-4.2398e-07
1.54288e-07
-4.34265e-07
1.6821e-07
1.78127e-07
-4.4442e-07
-3.61164e-07
8.47781e-08
3.52225e-07
-3.70913e-07
9.22064e-08
-3.81659e-07
1.01576e-07
-3.93734e-07
1.12877e-07
-4.07264e-07
1.26037e-07
-4.22559e-07
1.40883e-07
-4.39723e-07
1.56898e-07
-4.58775e-07
1.7334e-07
-4.79244e-07
1.88679e-07
2.09355e-07
-5.10472e-07
-3.66164e-07
9.42109e-08
3.56731e-07
-3.76542e-07
1.02585e-07
-3.88193e-07
1.13227e-07
-4.01533e-07
1.26217e-07
-4.1708e-07
1.41583e-07
-4.35285e-07
1.59089e-07
-4.59006e-07
1.80618e-07
-4.93338e-07
2.07672e-07
-5.35607e-07
2.30948e-07
2.33508e-07
-5.59761e-07
-3.66599e-07
1.03796e-07
3.57014e-07
-3.77136e-07
1.13122e-07
-3.88991e-07
1.25083e-07
-4.02664e-07
1.39889e-07
-4.19026e-07
1.57945e-07
-4.43045e-07
1.83107e-07
-4.84546e-07
2.2212e-07
-5.35061e-07
2.58186e-07
-5.6729e-07
2.63177e-07
2.4368e-07
-5.77463e-07
-3.63497e-07
1.13128e-07
3.54165e-07
-3.73554e-07
1.2318e-07
-3.84647e-07
1.36175e-07
-3.97436e-07
1.52679e-07
-4.16397e-07
1.76906e-07
-4.52643e-07
2.19353e-07
-5.00451e-07
2.69928e-07
-5.32496e-07
2.90231e-07
-5.40512e-07
2.71192e-07
2.47649e-07
-5.4448e-07
-3.58017e-07
1.21962e-07
3.49182e-07
-3.67172e-07
1.32336e-07
-3.76856e-07
1.45859e-07
-3.8888e-07
1.64703e-07
-4.11068e-07
1.99094e-07
-4.45522e-07
2.53808e-07
-4.71243e-07
2.95649e-07
-4.82142e-07
3.0113e-07
-4.86095e-07
2.75146e-07
2.50333e-07
-4.8878e-07
-3.51944e-07
1.30539e-07
3.43368e-07
-3.60398e-07
1.40789e-07
-3.68834e-07
1.54295e-07
-3.78773e-07
1.74642e-07
-3.94414e-07
2.14737e-07
-4.11428e-07
2.70821e-07
-4.19791e-07
3.04012e-07
-4.23666e-07
3.05006e-07
-4.2688e-07
2.78361e-07
2.53618e-07
-4.30165e-07
-3.46937e-07
1.39804e-07
3.37672e-07
-3.55909e-07
1.49762e-07
-3.64418e-07
1.62804e-07
-3.71607e-07
1.81831e-07
-3.75122e-07
2.18252e-07
-3.73356e-07
2.69057e-07
-3.69725e-07
3.0038e-07
-3.68994e-07
3.04275e-07
-3.73516e-07
2.82883e-07
2.58342e-07
-3.7824e-07
-3.41263e-07
1.5041e-07
3.30656e-07
-3.51681e-07
1.6018e-07
-3.6148e-07
1.72603e-07
-3.68734e-07
1.89086e-07
-3.65954e-07
2.15472e-07
-3.52552e-07
2.55654e-07
-3.39525e-07
2.87355e-07
-3.32111e-07
2.96861e-07
-3.34103e-07
2.84875e-07
2.63094e-07
-3.38855e-07
-3.3121e-07
1.62113e-07
3.19507e-07
-3.42935e-07
1.71905e-07
-3.54072e-07
1.8374e-07
-3.63174e-07
1.98187e-07
-3.64207e-07
2.16505e-07
-3.49912e-07
2.41359e-07
-3.29761e-07
2.67204e-07
-3.12802e-07
2.79903e-07
-3.05359e-07
2.77434e-07
2.63522e-07
-3.05787e-07
-3.13785e-07
1.737e-07
3.02198e-07
-3.25277e-07
1.83397e-07
-3.3617e-07
1.94634e-07
-3.45315e-07
2.07332e-07
-3.4986e-07
2.2105e-07
-3.43833e-07
2.35332e-07
-3.25478e-07
2.4885e-07
-2.96747e-07
2.51171e-07
-2.84626e-07
2.65313e-07
2.62904e-07
-2.84009e-07
-2.9043e-07
1.83866e-07
2.80264e-07
-3.0004e-07
1.93007e-07
-3.09154e-07
2.03747e-07
-3.16776e-07
2.14954e-07
-3.20731e-07
2.25005e-07
-3.18229e-07
2.32831e-07
-3.08407e-07
2.39027e-07
-3.02563e-07
2.45326e-07
-2.9096e-07
2.53711e-07
2.55684e-07
-2.8374e-07
-2.66239e-07
1.91619e-07
2.58486e-07
-2.74081e-07
2.00849e-07
-2.83517e-07
2.13184e-07
-2.94579e-07
2.26016e-07
-3.0403e-07
2.34456e-07
-3.07526e-07
2.36326e-07
-3.04636e-07
2.36138e-07
-2.9837e-07
2.3906e-07
-2.89297e-07
2.44637e-07
2.49573e-07
-2.83186e-07
-2.36583e-07
1.96168e-07
2.32034e-07
-2.41558e-07
2.05824e-07
-2.5186e-07
2.23486e-07
-2.72847e-07
2.47002e-07
-3.00007e-07
2.61616e-07
-3.0789e-07
2.44211e-07
-3.03507e-07
2.31755e-07
-2.96513e-07
2.32067e-07
-2.93919e-07
2.42043e-07
2.49933e-07
-2.94279e-07
-2.09407e-07
1.98284e-07
2.07291e-07
-2.11304e-07
2.07721e-07
-2.13442e-07
2.25624e-07
-2.50314e-07
2.83875e-07
-3.05953e-07
3.17256e-07
-3.0607e-07
2.44328e-07
-2.99518e-07
2.25203e-07
-2.95127e-07
2.27675e-07
-2.97549e-07
2.44466e-07
2.60663e-07
-3.0828e-07
-1.98561e-07
1.99641e-07
1.97203e-07
-1.97641e-07
2.06801e-07
-2.00537e-07
2.28521e-07
-2.1869e-07
3.02029e-07
-2.23091e-07
3.21656e-07
-2.59552e-07
2.80788e-07
-2.89227e-07
2.54876e-07
-3.17716e-07
2.56164e-07
-3.4246e-07
2.69209e-07
2.75225e-07
-3.57024e-07
-1.93805e-07
2.01995e-07
1.91451e-07
-1.98192e-07
2.11188e-07
-2.02818e-07
2.33148e-07
-2.03156e-07
3.02372e-07
-2.07309e-07
3.2581e-07
-2.35509e-07
3.0899e-07
-2.68257e-07
2.87624e-07
-2.8539e-07
2.73298e-07
-2.80691e-07
2.64513e-07
2.48034e-07
-2.53497e-07
-2.15042e-07
2.10072e-07
2.06964e-07
-2.23324e-07
2.1947e-07
-2.31379e-07
2.41202e-07
-2.24731e-07
2.95721e-07
-2.09095e-07
3.10171e-07
-1.96239e-07
2.96132e-07
-1.85631e-07
2.77012e-07
-1.63772e-07
2.51437e-07
-1.31853e-07
2.32592e-07
2.11789e-07
-9.56086e-08
-2.32668e-07
2.22556e-07
2.20184e-07
-2.43268e-07
2.30071e-07
-2.47056e-07
2.44989e-07
-2.10222e-07
2.58888e-07
-1.73041e-07
2.7299e-07
-1.4301e-07
2.66101e-07
-1.13092e-07
2.47096e-07
-9.19613e-08
2.30308e-07
-7.36246e-08
2.14256e-07
1.98464e-07
-6.02999e-08
-2.22122e-07
2.32298e-07
2.1238e-07
-2.24557e-07
2.32506e-07
-2.13663e-07
2.34095e-07
-1.88513e-07
2.33737e-07
-1.51896e-07
2.36372e-07
-1.20822e-07
2.35027e-07
-1.00114e-07
2.26387e-07
-8.36472e-08
2.13841e-07
-6.91146e-08
1.99724e-07
1.84888e-07
-5.55388e-08
-1.80922e-07
2.35441e-07
1.77779e-07
-1.79938e-07
2.31522e-07
-1.73254e-07
2.27411e-07
-1.62686e-07
2.23169e-07
-1.45307e-07
2.18993e-07
-1.23976e-07
2.13696e-07
-1.03205e-07
2.05616e-07
-8.38789e-08
1.94515e-07
-6.55233e-08
1.81369e-07
1.66955e-07
-4.75908e-08
-1.40751e-07
2.36764e-07
1.39428e-07
-1.39579e-07
2.3035e-07
-1.35444e-07
2.23276e-07
-1.27871e-07
2.15596e-07
-1.1625e-07
2.07372e-07
-1.00795e-07
1.98241e-07
-8.27447e-08
1.87566e-07
-6.34721e-08
1.75243e-07
-4.37007e-08
1.61597e-07
1.47004e-07
-2.37497e-08
-9.17388e-08
2.40073e-07
8.84304e-08
-9.242e-08
2.31031e-07
-8.99317e-08
2.20787e-07
-8.39192e-08
2.09583e-07
-7.4135e-08
1.97588e-07
-6.07165e-08
1.84823e-07
-4.43632e-08
1.71213e-07
-2.59326e-08
1.56812e-07
-6.13441e-09
1.41799e-07
1.26375e-07
1.44938e-08
-4.39121e-08
2.44236e-07
3.97494e-08
-4.51286e-08
2.32248e-07
-4.28163e-08
2.18475e-07
-3.66781e-08
2.03445e-07
-2.68265e-08
1.87736e-07
-1.35468e-08
1.71543e-07
2.71477e-09
1.54951e-07
2.13945e-08
1.38132e-07
4.18825e-08
1.2131e-07
1.04668e-07
6.359e-08
4.00305e-09
2.48306e-07
-8.07356e-09
2.3862e-09
2.33864e-07
5.39645e-09
2.15465e-07
1.26158e-08
1.96226e-07
2.35752e-08
1.76777e-07
3.78778e-08
1.5724e-07
5.52756e-08
1.37553e-07
7.54073e-08
1.18e-07
9.76672e-08
9.90504e-08
8.1002e-08
1.21333e-07
3.8599e-08
2.50834e-07
-4.11274e-08
4.26793e-08
2.29782e-07
5.02222e-08
2.07922e-07
6.15945e-08
1.84854e-07
7.56934e-08
1.62678e-07
9.22784e-08
1.40655e-07
1.11875e-07
1.17956e-07
1.34694e-07
9.51808e-08
1.6001e-07
7.37344e-08
5.42898e-08
1.86722e-07
1.07374e-07
2.46336e-07
-1.02875e-07
1.02127e-07
2.35028e-07
1.10886e-07
1.99164e-07
1.25003e-07
1.70737e-07
1.40472e-07
1.4721e-07
1.5691e-07
1.24217e-07
1.77056e-07
9.78108e-08
2.0235e-07
6.98867e-08
2.31258e-07
4.48263e-08
2.40763e-08
2.61472e-07
1.12774e-07
2.16674e-07
-8.31125e-08
1.38378e-07
2.09422e-07
1.6078e-07
1.76761e-07
1.85091e-07
1.46427e-07
2.09097e-07
1.23203e-07
2.29289e-07
1.04026e-07
2.52887e-07
7.42131e-08
2.83212e-07
3.95617e-08
3.16422e-07
1.16162e-08
-8.70214e-09
3.49201e-07
7.81735e-08
1.92943e-07
-5.44437e-08
1.1716e-07
1.70438e-07
1.53246e-07
1.40673e-07
1.87045e-07
1.12628e-07
2.26227e-07
8.40205e-08
2.79204e-07
5.10482e-08
3.33569e-07
1.98485e-08
3.78278e-07
-5.14673e-09
4.13965e-07
-2.40717e-08
-4.08146e-08
4.46078e-07
5.87701e-08
1.65239e-07
-3.10668e-08
9.48383e-08
1.34371e-07
1.36994e-07
9.85181e-08
1.90092e-07
5.95307e-08
2.57917e-07
1.61946e-08
3.38626e-07
-2.96591e-08
4.03911e-07
-4.54369e-08
4.49161e-07
-5.03967e-08
4.8739e-07
-6.23008e-08
-7.68048e-08
5.2338e-07
1.03768e-07
1.13e-07
-5.15306e-08
1.64914e-07
7.32225e-08
2.41417e-07
2.20156e-08
3.21206e-07
-2.02588e-08
3.89286e-07
-5.18852e-08
4.23533e-07
-6.39065e-08
4.54943e-07
-7.68461e-08
4.9372e-07
-8.91741e-08
5.3603e-07
-1.04611e-07
-1.216e-07
5.80826e-07
1.72804e-07
4.5602e-08
-1.05405e-07
2.52592e-07
-6.57152e-09
3.28e-07
-5.33916e-08
3.75166e-07
-6.74255e-08
4.09926e-07
-8.66446e-08
4.46764e-07
-1.00745e-07
4.89062e-07
-1.19144e-07
5.36767e-07
-1.3688e-07
5.90991e-07
-1.58836e-07
-1.78791e-07
6.48182e-07
1.69982e-07
-3.1572e-08
-9.28079e-08
2.38387e-07
-7.49777e-08
2.84917e-07
-9.99213e-08
3.39926e-07
-1.22435e-07
3.96174e-07
-1.42893e-07
4.61057e-07
-1.65627e-07
5.31395e-07
-1.89482e-07
6.09568e-07
-2.15053e-07
6.87069e-07
-2.36338e-07
-2.55555e-07
7.63833e-07
6.70049e-08
-9.17746e-08
-6.80226e-09
1.29997e-07
-1.3797e-07
2.10415e-07
-1.80339e-07
3.02854e-07
-2.14875e-07
4.0724e-07
-2.47278e-07
5.14575e-07
-2.72962e-07
6.20438e-07
-2.95346e-07
7.16331e-07
-3.10947e-07
8.07425e-07
-3.27431e-07
-3.37744e-07
8.89614e-07
6.50203e-08
-1.86791e-07
2.99964e-08
1.722e-07
-2.45151e-07
2.81832e-07
-2.89971e-07
3.89576e-07
-3.22618e-07
4.91314e-07
-3.49017e-07
5.86129e-07
-3.67778e-07
6.73432e-07
-3.8265e-07
7.56013e-07
-3.93527e-07
8.29663e-07
-4.01081e-07
-4.07028e-07
8.98947e-07
1.47454e-07
-2.95011e-07
-3.92348e-08
2.44054e-07
-3.41752e-07
3.31512e-07
-3.7743e-07
4.14505e-07
-4.05612e-07
4.94791e-07
-4.29303e-07
5.76517e-07
-4.49504e-07
6.59477e-07
-4.65609e-07
7.42948e-07
-4.76999e-07
8.25576e-07
-4.83709e-07
-4.86913e-07
9.05461e-07
1.41294e-07
-3.73373e-07
-6.29327e-08
2.1896e-07
-4.19418e-07
3.00802e-07
-4.59271e-07
3.87998e-07
-4.92808e-07
4.79166e-07
-5.20471e-07
5.72372e-07
-5.42711e-07
6.65966e-07
-5.59204e-07
7.5857e-07
-5.69603e-07
8.48746e-07
-5.73885e-07
-5.72397e-07
9.3423e-07
9.2829e-08
-4.5754e-07
-8.66117e-09
1.82757e-07
-5.09346e-07
2.78033e-07
-5.54548e-07
3.77738e-07
-5.92513e-07
4.80183e-07
-6.22917e-07
5.83047e-07
-6.45574e-07
6.84063e-07
-6.60219e-07
7.8104e-07
-6.6658e-07
8.71697e-07
-6.64542e-07
-6.54368e-07
9.53669e-07
4.59664e-08
-5.5662e-07
5.31133e-08
1.50108e-07
-6.13487e-07
2.57452e-07
-6.61892e-07
3.66237e-07
-7.01298e-07
4.74612e-07
-7.31291e-07
5.80495e-07
-7.51457e-07
6.81541e-07
-7.61265e-07
7.75e-07
-7.60038e-07
8.57701e-07
-7.47243e-07
-7.23231e-07
9.26564e-07
2.42534e-09
-6.65591e-07
1.06545e-07
1.13899e-07
-7.24962e-07
2.25618e-07
-7.73611e-07
3.35607e-07
-8.11287e-07
4.41971e-07
-8.37655e-07
5.42682e-07
-8.52167e-07
6.35263e-07
-8.53846e-07
7.16393e-07
-8.41168e-07
7.81838e-07
-8.12688e-07
-7.69573e-07
8.2818e-07
-4.16394e-08
-7.77043e-07
1.53092e-07
6.87114e-08
-8.35313e-07
1.75765e-07
-8.80665e-07
2.77758e-07
-9.1328e-07
3.73062e-07
-9.32959e-07
4.59885e-07
-9.3899e-07
5.35848e-07
-9.2981e-07
5.97555e-07
-9.02876e-07
6.40203e-07
-8.55336e-07
-7.89323e-07
6.59954e-07
-8.63684e-08
-8.81855e-07
1.9118e-07
1.36483e-08
-9.3533e-07
1.07423e-07
-9.74439e-07
1.93804e-07
-9.99662e-07
2.7164e-07
-1.01079e-06
3.39496e-07
-1.00685e-06
3.95516e-07
-9.8583e-07
4.37408e-07
-9.44767e-07
4.58407e-07
-8.76335e-07
-7.81949e-07
4.51032e-07
-1.33006e-07
-9.71997e-07
2.23147e-07
-4.98192e-08
-1.01852e-06
2.60359e-08
-1.05029e-06
9.41024e-08
-1.06773e-06
1.5365e-07
-1.07034e-06
2.03643e-07
-1.05684e-06
2.42909e-07
-1.0251e-06
2.68974e-07
-9.70832e-07
2.75862e-07
-8.83224e-07
-7.66197e-07
2.60111e-07
-1.83327e-07
-1.04444e-06
2.55766e-07
-1.18082e-07
-1.08376e-06
-5.95277e-08
-1.10885e-06
-7.51567e-09
-1.11974e-06
3.76285e-08
-1.11549e-06
7.52136e-08
-1.09442e-06
1.04415e-07
-1.0543e-06
1.20012e-07
-9.8643e-07
1.18048e-07
-8.8126e-07
-7.48641e-07
1.00492e-07
-2.32441e-07
-1.09993e-06
2.87934e-07
-1.83436e-07
-1.13277e-06
-1.39731e-07
-1.15255e-06
-1.00689e-07
-1.15878e-06
-6.61287e-08
-1.15005e-06
-3.60302e-08
-1.12452e-06
-1.00729e-08
-1.08025e-06
1.17438e-08
-1.00825e-06
1.33074e-08
-8.82824e-07
-7.44575e-07
9.24184e-09
-2.69523e-07
-1.13864e-06
3.08232e-07
-2.35874e-07
-1.16642e-06
-2.05753e-07
-1.18267e-06
-1.785e-07
-1.18604e-06
-1.53987e-07
-1.17456e-06
-1.32222e-07
-1.14629e-06
-1.13043e-07
-1.09943e-06
-9.54469e-08
-1.02584e-06
-8.09619e-08
-8.97309e-07
-7.53323e-07
-7.22153e-08
-2.89685e-07
-1.16116e-06
3.12203e-07
-2.69834e-07
-1.18627e-06
-2.51198e-07
-1.20131e-06
-2.33231e-07
-1.204e-06
-2.15835e-07
-1.19196e-06
-1.98936e-07
-1.16319e-06
-1.82111e-07
-1.11626e-06
-1.61508e-07
-1.04645e-06
-1.33143e-07
-9.25673e-07
-7.64668e-07
-1.21798e-07
-2.95079e-07
-1.17058e-06
3.04504e-07
-2.86217e-07
-1.19513e-06
-2.76616e-07
-1.21091e-06
-2.65867e-07
-1.21475e-06
-2.5402e-07
-1.2038e-06
-2.41003e-07
-1.1762e-06
-2.25822e-07
-1.13144e-06
-2.03592e-07
-1.06868e-06
-1.68864e-07
-9.60401e-07
-7.87905e-07
-1.45626e-07
-2.86978e-07
-1.16948e-06
2.85878e-07
-2.86542e-07
-1.19557e-06
-2.83508e-07
-1.21394e-06
-2.77876e-07
-1.22038e-06
-2.70355e-07
-1.21132e-06
-2.61826e-07
-1.18473e-06
-2.5275e-07
-1.14052e-06
-2.42442e-07
-1.07898e-06
-2.15453e-07
-9.87391e-07
-8.28454e-07
-1.74904e-07
-2.70029e-07
-1.16081e-06
2.61359e-07
-2.74994e-07
-1.1906e-06
-2.75372e-07
-1.21357e-06
-2.71478e-07
-1.22428e-06
-2.64309e-07
-1.21849e-06
-2.55053e-07
-1.19399e-06
-2.4442e-07
-1.15115e-06
-2.30458e-07
-1.09295e-06
-1.99625e-07
-1.01822e-06
-8.76547e-07
-1.51531e-07
-2.4895e-07
-1.14732e-06
2.35452e-07
-2.56382e-07
-1.18317e-06
-2.57747e-07
-1.2122e-06
-2.53984e-07
-1.22804e-06
-2.46545e-07
-1.22593e-06
-2.37305e-07
-1.20323e-06
-2.28483e-07
-1.15997e-06
-2.217e-07
-1.09973e-06
-2.14209e-07
-1.02571e-06
-9.10234e-07
-1.80523e-07
-2.25062e-07
-1.13195e-06
2.09699e-07
-2.31792e-07
-1.17644e-06
-2.31475e-07
-1.21252e-06
-2.25579e-07
-1.23394e-06
-2.15407e-07
-1.2361e-06
-2.02446e-07
-1.21619e-06
-1.88734e-07
-1.17368e-06
-1.76394e-07
-1.11207e-06
-1.65065e-07
-1.03704e-06
-9.30836e-07
-1.44464e-07
-1.99575e-07
-1.11848e-06
1.86099e-07
-2.02937e-07
-1.17308e-06
-1.99544e-07
-1.21591e-06
-1.9112e-07
-1.24236e-06
-1.78432e-07
-1.24879e-06
-1.62175e-07
-1.23245e-06
-1.43722e-07
-1.19214e-06
-1.25065e-07
-1.13073e-06
-1.07261e-07
-1.05485e-06
-9.57276e-07
-8.08212e-08
-1.72602e-07
-1.11175e-06
1.65873e-07
-1.70694e-07
-1.17499e-06
-1.64124e-07
-1.22248e-06
-1.54093e-07
-1.25239e-06
-1.40498e-07
-1.26239e-06
-1.23151e-07
-1.24979e-06
-1.02696e-07
-1.21259e-06
-8.0573e-08
-1.15285e-06
-5.80161e-08
-1.0774e-06
-9.82979e-07
-3.23135e-08
-1.4068e-07
-1.11636e-06
1.45295e-07
-1.33789e-07
-1.18188e-06
-1.25954e-07
-1.23032e-06
-1.16672e-07
-1.26167e-06
-1.04753e-07
-1.2743e-06
-8.92326e-08
-1.26531e-06
-7.02104e-08
-1.23161e-06
-4.8697e-08
-1.17436e-06
-2.60131e-08
-1.10009e-06
-1.00621e-06
-2.78525e-09
-9.7368e-08
-1.12069e-06
1.01692e-07
-9.26727e-08
-1.18657e-06
-8.8091e-08
-1.2349e-06
-8.25463e-08
-1.26722e-06
-7.46086e-08
-1.28224e-06
-6.30998e-08
-1.27682e-06
-4.79013e-08
-1.24681e-06
-2.97644e-08
-1.1925e-06
-1.01744e-08
-1.11968e-06
-1.0247e-06
8.32242e-09
-6.80316e-08
-1.1224e-06
6.97457e-08
-6.49769e-08
-1.18963e-06
-6.20179e-08
-1.23786e-06
-5.86306e-08
-1.27061e-06
-5.35965e-08
-1.28728e-06
-4.54905e-08
-1.28493e-06
-3.37035e-08
-1.2586e-06
-1.83347e-08
-1.20787e-06
-6.65839e-10
-1.13735e-06
-1.04105e-06
1.56815e-08
-6.37558e-08
-1.13457e-06
7.59241e-08
-5.47667e-08
-1.19862e-06
-4.86307e-08
-1.24399e-06
-4.44401e-08
-1.2748e-06
-4.05029e-08
-1.29121e-06
-3.46491e-08
-1.29078e-06
-2.53182e-08
-1.26793e-06
-1.15665e-08
-1.22162e-06
5.66556e-09
-1.15458e-06
-1.05788e-06
2.24947e-08
-5.63494e-08
-1.14787e-06
6.96456e-08
-4.54629e-08
-1.2095e-06
-3.8308e-08
-1.25115e-06
-3.43149e-08
-1.27879e-06
-3.16566e-08
-1.29387e-06
-2.77889e-08
-1.29465e-06
-2.03616e-08
-1.27536e-06
-7.38224e-09
-1.2346e-06
1.09279e-08
-1.17289e-06
-1.07715e-06
3.01994e-08
-5.44925e-08
-1.16287e-06
6.94931e-08
-4.08047e-08
-1.22319e-06
-3.21637e-08
-1.25979e-06
-2.79847e-08
-1.28297e-06
-2.61498e-08
-1.29571e-06
-2.38871e-08
-1.29691e-06
-1.80285e-08
-1.28122e-06
-5.75749e-09
-1.24687e-06
1.41636e-08
-1.19281e-06
-1.09999e-06
3.70063e-08
-5.12803e-08
-1.19474e-06
8.31542e-08
-3.28514e-08
-1.24162e-06
-2.38679e-08
-1.26877e-06
-2.07579e-08
-1.28608e-06
-2.0703e-08
-1.29576e-06
-2.10242e-08
-1.29659e-06
-1.77749e-08
-1.28446e-06
-8.026e-09
-1.25662e-06
1.27064e-08
-1.21354e-06
-1.13609e-06
4.88033e-08
-2.21777e-08
-1.20946e-06
3.69017e-08
-1.4298e-08
-1.2495e-06
-1.18359e-08
-1.27124e-06
-1.20585e-08
-1.28586e-06
-1.40536e-08
-1.29377e-06
-1.63924e-08
-1.29425e-06
-1.52333e-08
-1.28562e-06
-1.02665e-08
-1.26158e-06
2.94123e-09
-1.22675e-06
-1.16128e-06
2.81298e-08
-2.02828e-08
-1.23825e-06
4.90654e-08
-1.10652e-08
-1.25872e-06
-8.42249e-09
-1.27388e-06
-7.64056e-09
-1.28664e-06
-9.11383e-09
-1.29229e-06
-1.08799e-08
-1.29249e-06
-7.65551e-09
-1.28885e-06
-4.57802e-10
-1.26878e-06
1.56197e-08
-1.24283e-06
-1.2071e-06
6.14398e-08
-1.17254e-09
-1.24822e-06
1.11441e-08
-7.00723e-10
-1.25919e-06
-1.50961e-09
-1.27307e-06
-2.14957e-09
-1.286e-06
-5.89665e-09
-1.28855e-06
-1.01319e-08
-1.28825e-06
-9.55955e-09
-1.28942e-06
-6.87674e-09
-1.27146e-06
-1.67862e-09
-1.24802e-06
-1.23016e-06
2.13853e-08
1.60344e-08
-1.24112e-06
-2.31353e-08
8.63778e-09
-1.25179e-06
5.26452e-09
-1.2697e-06
2.68778e-09
-1.28342e-06
-4.03897e-09
-1.28182e-06
-1.10279e-08
-1.28126e-06
-1.35972e-08
-1.28685e-06
-1.34384e-08
-1.27162e-06
-1.8176e-08
-1.24329e-06
-1.22691e-06
-2.14292e-08
2.72078e-08
-1.2231e-06
-4.52242e-08
1.47444e-08
-1.23933e-06
1.13404e-08
-1.26629e-06
6.33062e-09
-1.27841e-06
-3.13302e-09
-1.27235e-06
-1.25648e-08
-1.27183e-06
-1.87864e-08
-1.28063e-06
-1.95175e-08
-1.27089e-06
-3.01986e-08
-1.23261e-06
-1.20801e-06
-4.90956e-08
2.86008e-08
-1.19567e-06
-5.60327e-08
1.62036e-08
-1.22693e-06
1.58136e-08
-1.2659e-06
8.1238e-09
-1.27072e-06
-2.59875e-09
-1.26163e-06
-1.31339e-08
-1.2613e-06
-2.23546e-08
-1.27141e-06
-2.16156e-08
-1.27163e-06
-3.15119e-08
-1.22271e-06
-1.17917e-06
-6.03549e-08
1.91256e-08
-1.15545e-06
-5.93456e-08
1.56914e-08
-1.2235e-06
1.98613e-08
-1.27007e-06
9.12891e-09
-1.25999e-06
-2.14581e-09
-1.25036e-06
-1.3314e-08
-1.25013e-06
-2.49768e-08
-1.25975e-06
-2.15401e-08
-1.27507e-06
-2.19333e-08
-1.22232e-06
-1.13867e-06
-6.2438e-08
-1.23342e-09
-1.09237e-06
-6.18398e-08
1.9597e-08
-1.24433e-06
2.4148e-08
-1.27462e-06
9.78313e-09
-1.24562e-06
-1.84567e-09
-1.23873e-06
-1.34416e-08
-1.23853e-06
-2.76635e-08
-1.24552e-06
-2.49496e-08
-1.27778e-06
-1.89692e-09
-1.24537e-06
-1.07704e-06
-6.35191e-08