/*--------------------------------*- C++ -*----------------------------------*\
  =========                 |
  \\      /  F ield         | OpenFOAM: The Open Source CFD Toolbox
   \\    /   O peration     | Website:  https://openfoam.org
    \\  /    A nd           | Version:  8
     \\/     M anipulation  |
\*---------------------------------------------------------------------------*/
FoamFile
{
    version     2.0;
    format      ascii;
    class       surfaceScalarField;
    location    "3.85";
    object      alphaPhi0.water;
}
// * * * * * * * * * * * * * * * * * * * * * * * * * * * * * * * * * * * * * //

dimensions      [0 3 -1 0 0 0 0];

internalField   nonuniform List<scalar> 
18095
(
1.96636e-08
-1.72049e-07
1.52386e-07
2.31229e-08
-1.98059e-07
1.946e-07
1.95917e-08
-2.05691e-07
2.09222e-07
1.00386e-08
-2.10289e-07
2.19842e-07
-1.25916e-09
-2.13321e-07
2.24619e-07
-1.20469e-08
-2.13487e-07
2.24275e-07
-2.01655e-08
-2.11209e-07
2.19328e-07
-2.31343e-08
-2.06027e-07
2.08996e-07
-1.96841e-08
-1.97902e-07
1.94452e-07
-1.71965e-07
1.52281e-07
1.55171e-08
-1.87567e-07
1.58031e-08
-1.98345e-07
1.23443e-08
-2.02232e-07
7.1489e-09
-2.05094e-07
9.90072e-10
-2.07162e-07
-5.74507e-09
-2.06752e-07
-1.17627e-08
-2.05191e-07
-1.58665e-08
-2.01923e-07
-1.55321e-08
-1.98237e-07
-1.87497e-07
6.82586e-09
-1.94392e-07
8.28856e-09
-1.99808e-07
7.06406e-09
-2.01007e-07
3.69986e-09
-2.0173e-07
-6.23894e-10
-2.02838e-07
-4.57611e-09
-2.028e-07
-7.38047e-09
-2.02387e-07
-8.34454e-09
-2.00959e-07
-6.84997e-09
-1.99731e-07
-1.94347e-07
4.53031e-09
-1.98923e-07
4.68681e-09
-1.99965e-07
3.81157e-09
-2.00132e-07
2.44888e-09
-2.00367e-07
4.45311e-10
-2.00835e-07
-1.60446e-09
-2.0075e-07
-3.64981e-09
-2.00342e-07
-4.74072e-09
-1.99868e-07
-4.56667e-09
-1.99905e-07
-1.98913e-07
1.07733e-09
1.11267e-09
9.80604e-10
6.13567e-10
-2.21316e-10
-9.71596e-10
-1.31323e-09
-1.18136e-09
-1.08669e-09
-2.70962e-08
-1.96642e-07
2.23738e-07
-2.96698e-08
-1.98687e-07
2.01261e-07
-2.51112e-08
-2.00964e-07
1.96405e-07
-1.45092e-08
-2.01061e-07
1.90459e-07
-1.04665e-09
-2.01758e-07
1.88296e-07
1.29285e-08
-2.02085e-07
1.8811e-07
2.43387e-08
-2.01689e-07
1.90279e-07
2.93963e-08
-2.01494e-07
1.96437e-07
2.6876e-08
-1.98938e-07
2.01458e-07
-1.96682e-07
2.23558e-07
-9.72012e-09
-1.86922e-07
-1.50106e-08
-1.93397e-07
-1.30296e-08
-2.02945e-07
-5.5677e-09
-2.08522e-07
9.73865e-10
-2.083e-07
7.37252e-09
-2.08484e-07
1.40985e-08
-2.08415e-07
1.53681e-08
-2.02764e-07
9.76589e-09
-1.93335e-07
-1.86916e-07
-1.05563e-08
-1.76366e-07
-8.38544e-09
-1.95567e-07
-6.19183e-09
-2.05139e-07
-4.38259e-09
-2.10332e-07
-1.11824e-10
-2.12571e-07
4.16901e-09
-2.12764e-07
6.0789e-09
-2.10325e-07
8.43283e-09
-2.05118e-07
1.06259e-08
-1.95528e-07
-1.76291e-07
-6.56694e-09
-1.69799e-07
-8.62258e-09
-1.93512e-07
-8.41019e-09
-2.05351e-07
-3.92966e-09
-2.14812e-07
5.62417e-11
-2.16557e-07
4.13133e-09
-2.16839e-07
8.8065e-09
-2.15e-07
8.99692e-09
-2.05308e-07
6.72957e-09
-1.93261e-07
-1.69561e-07
-1.74131e-08
-1.63248e-08
-1.24539e-08
-7.4237e-09
6.38576e-10
8.07431e-09
1.24017e-08
1.60895e-08
1.72804e-08
3.46998e-08
-1.5862e-07
1.2392e-07
4.00651e-08
-2.00114e-07
1.94749e-07
3.45753e-08
-2.11691e-07
2.17181e-07
2.19891e-08
-2.16878e-07
2.29464e-07
4.94807e-09
-2.17651e-07
2.34691e-07
-1.28194e-08
-2.17118e-07
2.34886e-07
-2.85044e-08
-2.15268e-07
2.30953e-07
-3.84845e-08
-2.09584e-07
2.19564e-07
-3.5358e-08
-1.97243e-07
1.94117e-07
-1.55833e-07
1.20475e-07
1.63051e-08
-1.74925e-07
1.82461e-08
-2.02055e-07
1.44916e-08
-2.07937e-07
7.08747e-09
-2.09474e-07
-2.18437e-09
-2.08379e-07
-1.14132e-08
-2.0789e-07
-1.85915e-08
-2.08089e-07
-2.15628e-08
-2.06613e-07
-1.7944e-08
-2.00862e-07
-1.73777e-07
9.52188e-09
-1.84447e-07
8.89668e-09
-2.0143e-07
6.79806e-09
-2.05838e-07
1.35231e-09
-2.04028e-07
-2.21762e-09
-2.04809e-07
-5.53449e-09
-2.04573e-07
-8.8583e-09
-2.04765e-07
-1.00932e-08
-2.05378e-07
-1.00794e-08
-2.00876e-07
-1.83857e-07
7.38275e-09
-1.9183e-07
5.61194e-09
-1.99659e-07
6.01998e-09
-2.06246e-07
1.4621e-09
-1.9947e-07
-1.6851e-10
-2.03178e-07
-1.81948e-09
-2.02922e-07
-6.80267e-09
-1.99782e-07
-6.26039e-09
-2.0592e-07
-7.63086e-09
-1.99505e-07
-1.91488e-07
3.19088e-08
3.35104e-08
2.36694e-08
1.46579e-08
-2.24444e-10
-1.50365e-08
-2.45398e-08
-3.40232e-08
-3.20707e-08
-5.1565e-07
1.01271e-07
4.14373e-07
-6.16143e-07
1.00488e-07
-7.06383e-07
9.0211e-08
-7.82123e-07
7.55479e-08
-8.42719e-07
5.37132e-08
-9.43137e-07
3.37499e-08
-9.58749e-07
1.56268e-08
-9.61491e-07
2.75764e-09
-9.52946e-07
-8.53074e-09
-2.05521e-08
-9.32349e-07
-6.46244e-07
1.43663e-07
6.03846e-07
-6.89453e-07
1.43668e-07
-7.3645e-07
1.37016e-07
-8.26388e-07
1.14709e-07
-8.6323e-07
9.03405e-08
-8.87687e-07
5.82246e-08
-8.99501e-07
2.74567e-08
-9.04866e-07
8.13684e-09
-9.07085e-07
-6.23717e-09
-2.70736e-08
-9.00809e-07
-7.05578e-07
1.80999e-07
6.7542e-07
-7.30616e-07
1.74203e-07
-6.67116e-07
1.59178e-07
-6.90037e-07
1.29882e-07
-8.09597e-07
1.13413e-07
-8.47099e-07
9.55118e-08
-8.59295e-07
3.96706e-08
-8.40494e-07
1.27758e-08
-8.28947e-07
-1.12226e-10
-1.8874e-08
-8.61017e-07
-6.47055e-07
1.87379e-07
6.40797e-07
-6.47333e-07
1.74727e-07
-6.44863e-07
1.57789e-07
-5.2476e-07
1.35525e-07
-5.22944e-07
1.11678e-07
-5.18485e-07
9.03624e-08
-5.44394e-07
5.3836e-08
-5.48144e-07
2.3628e-08
-5.48723e-07
4.45818e-10
-2.50545e-08
-5.42596e-07
-5.85822e-07
1.88245e-07
5.84983e-07
-5.82515e-07
1.71568e-07
-5.74818e-07
1.50153e-07
-4.22793e-07
1.23388e-07
-3.96603e-07
8.54394e-08
-3.71192e-07
6.49357e-08
-3.6007e-07
4.27332e-08
-3.60309e-07
2.38638e-08
-3.64025e-07
4.15016e-09
-1.6462e-08
-3.72639e-07
-4.43886e-07
1.71252e-07
4.60836e-07
-4.29016e-07
1.56717e-07
-4.16795e-07
1.38043e-07
-3.91288e-07
1.11554e-07
-3.59628e-07
8.41758e-08
-3.31763e-07
5.8397e-08
-2.40138e-07
3.31669e-08
-2.28679e-07
1.23946e-08
-2.26327e-07
1.79479e-09
-7.91817e-09
-2.34882e-07
-3.53243e-07
1.40386e-07
3.82998e-07
-3.25394e-07
1.29118e-07
-3.04259e-07
1.17029e-07
-2.89067e-07
9.47149e-08
-2.75924e-07
7.10853e-08
-2.6606e-07
4.8586e-08
-2.62751e-07
2.99225e-08
-2.62456e-07
1.36382e-08
-2.36397e-07
1.54561e-10
-9.4036e-09
-1.94033e-07
-3.40076e-07
1.15835e-07
3.64267e-07
-3.14886e-07
1.05163e-07
-2.94252e-07
9.58799e-08
-2.79624e-07
7.96503e-08
-2.69593e-07
6.1105e-08
-2.64802e-07
4.38518e-08
-2.64322e-07
2.94803e-08
-2.67563e-07
1.68776e-08
-2.57678e-07
4.79062e-09
-1.02688e-08
-2.13493e-07
-3.49565e-07
9.73078e-08
3.67925e-07
-3.32693e-07
8.7897e-08
-3.18258e-07
8.0904e-08
-3.06223e-07
6.81362e-08
-2.97144e-07
5.19173e-08
-2.89893e-07
3.64929e-08
-2.83965e-07
2.3149e-08
-2.77867e-07
1.07497e-08
-2.72038e-07
-1.07402e-09
-1.34142e-08
-2.57245e-07
-3.45102e-07
8.57121e-08
3.56303e-07
-3.35521e-07
7.77711e-08
-3.26526e-07
7.14663e-08
-3.17317e-07
5.87677e-08
-3.04814e-07
4.01452e-08
-2.95403e-07
2.69611e-08
-2.91942e-07
1.94892e-08
-2.91528e-07
1.03001e-08
-2.90836e-07
-1.81669e-09
-1.69096e-08
-2.87426e-07
-3.32313e-07
7.75323e-08
3.39948e-07
-3.30916e-07
7.59311e-08
-3.32874e-07
7.32653e-08
-3.32111e-07
5.79795e-08
-3.15873e-07
2.38779e-08
-3.0069e-07
1.1749e-08
-2.9575e-07
1.45166e-08
-2.97175e-07
1.16959e-08
-2.8658e-07
-1.23726e-08
-3.63653e-08
-2.67693e-07
-3.09859e-07
6.74495e-08
3.19545e-07
-3.00528e-07
6.6054e-08
-3.00537e-07
6.40112e-08
-3.02164e-07
4.75533e-08
-2.85064e-07
4.97389e-09
-2.68097e-07
-4.14314e-09
-2.56969e-07
6.52688e-09
-2.53292e-07
1.27362e-08
-2.49253e-07
-1.60641e-08
-6.0732e-08
-2.3409e-07
-2.06533e-07
3.90881e-08
2.22853e-07
-2.03123e-07
4.76175e-08
-2.16563e-07
5.28133e-08
-2.37534e-07
4.24651e-08
-2.31447e-07
1.53316e-08
-2.0932e-07
-3.09185e-08
-1.57793e-07
-4.96087e-08
-1.10442e-07
-3.92615e-08
-1.29284e-07
-4.1663e-08
-5.25208e-08
-1.47758e-07
-2.9811e-07
3.4256e-08
2.88161e-07
-2.94758e-07
5.62368e-08
-3.08162e-07
7.78455e-08
-2.83515e-07
8.57555e-08
-4.00518e-07
3.16868e-08
-3.57495e-07
-5.62209e-08
-3.18841e-07
-6.93761e-08
-3.12832e-07
-2.44998e-08
-3.11199e-07
-1.38914e-08
-1.55359e-08
-2.6208e-07
-5.65358e-07
6.28513e-08
5.61967e-07
-5.06854e-07
4.53264e-08
-2.7985e-07
5.58612e-08
-2.45341e-07
4.82614e-08
-3.29626e-07
1.67841e-08
-5.00315e-07
-1.63563e-08
-2.51224e-07
-2.50318e-08
-2.59166e-07
-1.90497e-08
-2.4408e-07
-3.15057e-08
-3.27243e-08
-2.29376e-07
-2.84074e-07
4.4238e-08
2.98773e-07
-2.9076e-07
5.37812e-08
-2.77731e-07
3.9772e-08
-2.68748e-07
3.64664e-08
-2.67701e-07
1.27588e-08
-2.7251e-07
-1.47686e-08
-2.9476e-07
-3.27007e-08
-3.13155e-07
-4.61831e-08
-2.82813e-07
-6.88748e-08
-7.45294e-08
-2.4355e-07
-2.8674e-07
3.05845e-08
2.98732e-07
-4.68584e-07
7.3801e-08
-3.48332e-07
7.61872e-08
-2.48731e-07
2.7733e-08
-2.25807e-07
-1.36147e-08
-4.25455e-07
-4.09551e-08
-5.11792e-07
-5.89339e-08
-4.93844e-07
-8.76221e-08
-4.69628e-07
-1.32168e-07
-1.71402e-07
-4.51789e-07
-4.81051e-07
6.52285e-08
4.49268e-07
-4.4165e-07
4.07218e-08
-4.04994e-07
4.59063e-08
-3.88316e-07
1.52139e-08
-3.97712e-07
-2.88367e-09
-4.39857e-07
2.52501e-09
-4.26093e-07
-6.76505e-08
-3.84141e-07
-1.33949e-07
-3.52078e-07
-1.6368e-07
-2.07664e-07
-3.15683e-07
1.57271e-07
9.60113e-08
-1.82493e-07
1.17486e-07
4.79966e-08
1.41822e-07
1.2418e-08
1.29092e-07
1.29721e-08
2.0277e-07
3.95257e-08
1.3466e-07
6.51016e-08
4.40272e-08
1.75303e-08
-6.35892e-08
-2.80705e-08
-1.60945e-07
-6.18336e-08
-1.45933e-07
-2.00607e-07
3.34394e-07
1.38017e-07
-3.51635e-07
3.20736e-07
9.6012e-08
3.17528e-07
6.31454e-08
3.34965e-07
4.018e-08
3.91375e-07
1.86426e-08
4.64626e-07
1.64999e-09
4.77809e-07
4.44917e-09
4.22405e-07
2.76775e-08
1.24762e-07
8.84447e-08
-2.1598e-09
3.79055e-08
4.17445e-07
1.22911e-07
-4.02447e-07
4.35647e-07
7.77915e-08
4.33348e-07
6.22549e-08
4.07722e-07
6.53031e-08
3.63422e-07
6.30484e-08
3.24042e-07
4.11315e-08
2.95246e-07
3.33371e-08
1.21666e-07
4.98777e-08
1.12126e-07
7.53296e-08
-3.11335e-08
1.26253e-07
2.96516e-07
1.21459e-07
-2.95152e-07
2.68353e-07
1.05847e-07
1.78753e-07
1.51836e-07
2.04076e-08
1.31453e-07
-2.85004e-08
4.86755e-08
-2.58072e-08
8.13199e-09
-1.17236e-08
-2.55667e-09
2.73539e-08
-1.11906e-08
1.16513e-07
-3.66289e-08
-1.90314e-07
3.70321e-07
1.99792e-07
1.33156e-07
-2.7489e-07
1.14741e-07
1.03479e-07
2.88224e-08
1.10694e-07
-4.22188e-08
8.05587e-08
-6.16344e-08
5.91215e-08
-3.96698e-08
7.1897e-09
5.19601e-08
-6.28789e-08
2.28453e-07
-1.61064e-07
4.05613e-07
-2.13651e-07
-2.48977e-07
4.65052e-07
5.86302e-08
1.32708e-08
-1.10043e-07
3.36691e-08
1.27834e-08
2.47351e-08
1.48513e-08
2.00335e-08
1.5873e-08
3.20476e-08
1.23425e-08
4.28141e-08
-3.94362e-09
2.47347e-07
-1.58206e-08
4.88061e-07
-1.2782e-07
5.3817e-07
-2.61653e-07
-2.67463e-07
5.57545e-07
2.55706e-08
1.23747e-08
-2.4775e-08
2.56421e-08
1.24834e-08
2.77543e-08
1.26722e-08
3.0707e-08
1.26525e-08
3.73437e-08
6.16857e-09
3.90714e-08
-4.33343e-09
7.07628e-08
-4.66703e-08
5.43832e-07
-1.84771e-07
6.14408e-07
-2.75058e-07
-2.12533e-07
5.36507e-07
2.199e-08
1.24313e-08
-2.20593e-08
2.27116e-08
1.17515e-08
2.64645e-08
8.95734e-09
3.48165e-08
4.53591e-09
4.02279e-08
1.10597e-10
7.34301e-08
-3.66761e-08
4.28626e-07
-9.67979e-08
6.3283e-07
-1.66176e-07
4.73065e-07
-1.65178e-07
-1.40221e-07
3.42309e-07
1.82051e-08
1.22871e-08
-1.80666e-08
2.04975e-08
9.45511e-09
2.44224e-08
5.07962e-09
3.82094e-08
-9.33203e-09
5.57159e-08
-1.707e-08
3.99816e-07
-8.98509e-08
4.33605e-07
-9.86827e-08
3.66052e-07
-1.26329e-07
3.3275e-07
-1.33137e-07
-1.38024e-07
3.29864e-07
1.94174e-08
6.89688e-09
-1.40311e-08
2.5662e-08
3.20868e-09
2.83517e-08
2.38575e-09
3.85509e-07
-1.08286e-08
4.57604e-07
-8.59397e-08
4.47184e-07
-1.00853e-07
3.28649e-07
-1.13623e-07
3.19504e-07
-1.18445e-07
3.12102e-07
-1.26424e-07
-1.43578e-07
3.16968e-07
1.19954e-07
1.13533e-08
-1.49954e-08
3.29761e-07
1.34922e-08
4.43896e-07
-1.60185e-08
5.16712e-07
-8.35944e-08
5.31556e-07
-1.52254e-07
3.30795e-07
-1.62409e-07
3.20831e-07
-1.06412e-07
3.07572e-07
-1.06389e-07
3.01611e-07
-1.21408e-07
-1.70069e-07
3.27412e-07
3.38494e-07
-9.15326e-09
-2.93735e-07
4.01304e-07
-4.47336e-08
4.74021e-07
-8.86849e-08
5.25235e-07
-1.34777e-07
5.38011e-07
-1.64996e-07
4.20263e-07
-1.6981e-07
2.78975e-07
-1.03441e-07
2.70679e-07
-9.96677e-08
2.69891e-07
-1.21823e-07
-2.74766e-07
3.74019e-07
3.75889e-07
-5.1414e-08
-3.30655e-07
4.2532e-07
-9.37339e-08
4.69638e-07
-1.32938e-07
4.93366e-07
-1.58471e-07
4.95966e-07
-1.67564e-07
4.91084e-07
-1.64894e-07
2.7638e-07
-1.29968e-07
2.63665e-07
-8.80046e-08
2.77921e-07
-1.37654e-07
-3.64226e-07
4.56262e-07
5.33733e-07
-1.1027e-07
-4.75017e-07
5.77805e-07
-1.37943e-07
6.14942e-07
-1.5929e-07
6.22682e-07
-1.66146e-07
6.15785e-07
-1.60633e-07
5.83073e-07
-1.32208e-07
3.29239e-07
-8.03279e-08
2.95527e-07
-7.65223e-08
4.06325e-07
-1.95925e-07
-3.40107e-07
4.1726e-07
6.15592e-07
-1.59153e-07
-5.66842e-07
6.57435e-07
-1.79923e-07
6.87852e-07
-1.87335e-07
7.02442e-07
-1.8009e-07
7.00109e-07
-1.58225e-07
5.01982e-07
-8.39681e-08
5.17544e-07
-2.85706e-08
4.85501e-07
-4.99677e-08
4.53399e-07
-1.52543e-07
-2.73577e-07
3.39787e-07
6.10084e-07
-1.9567e-07
-5.7356e-07
6.46206e-07
-2.16024e-07
6.7868e-07
-2.18978e-07
6.84141e-07
-1.77044e-07
5.75321e-07
-1.1917e-07
4.35021e-07
-5.23359e-08
4.64611e-07
-1.44901e-08
5.74978e-07
-2.26381e-08
5.42984e-07
-7.96775e-08
-2.08765e-07
4.20083e-07
4.48605e-07
-2.03486e-07
-4.40779e-07
4.44934e-07
-1.98718e-07
4.23325e-07
-1.96232e-07
3.77756e-07
-1.94717e-07
4.29146e-07
-1.74324e-07
4.62507e-07
-8.90018e-08
4.81972e-07
-3.74303e-08
7.3029e-07
-2.51401e-08
8.0665e-07
-6.16097e-08
-1.37688e-07
6.84589e-07
1.90159e-07
-2.12119e-07
-2.05945e-07
1.83634e-07
-2.76395e-07
2.89637e-07
-3.26039e-07
4.15768e-07
-3.3516e-07
4.80812e-07
-2.46706e-07
5.45595e-07
-1.57567e-07
6.02004e-07
-9.71812e-08
7.65339e-07
-5.03483e-08
9.42406e-07
-5.86861e-08
-9.06991e-08
8.95905e-07
1.1791e-07
-3.72028e-07
-9.17347e-09
3.36876e-07
-6.15706e-07
5.21668e-07
-6.5766e-07
5.92712e-07
-5.69771e-07
6.34099e-07
-4.22629e-07
7.32044e-07
-2.67547e-07
8.7001e-07
-1.55794e-07
9.03664e-07
-8.26068e-08
9.13422e-07
-6.79489e-08
-8.49941e-08
9.07983e-07
9.08686e-08
-5.13649e-07
1.52504e-07
3.20511e-07
-8.44564e-07
4.62501e-07
-7.98782e-07
4.87148e-07
-5.93633e-07
4.91053e-07
-4.2575e-07
5.28833e-07
-3.01656e-07
5.90944e-07
-2.1407e-07
6.63507e-07
-1.52852e-07
7.25198e-07
-1.28306e-07
-1.25852e-07
7.66543e-07
-1.88381e-07
-6.47702e-07
2.44296e-07
-9.92442e-08
-9.33579e-07
-6.19873e-08
-8.35255e-07
-1.16093e-07
-5.38529e-07
-1.31472e-07
-3.94921e-07
-8.66423e-08
-2.41158e-07
-1.43864e-08
-1.63326e-07
5.72285e-08
-1.44963e-07
1.07091e-07
-1.37001e-07
-4.89936e-08
8.27164e-08
-5.78276e-07
-5.12439e-07
2.00527e-07
-5.73379e-07
-9.3958e-07
-5.21352e-07
-8.87161e-07
-5.7032e-07
-4.88123e-07
-6.01508e-07
-3.16384e-07
-2.95109e-07
-1.41034e-07
-1.88771e-07
-3.23247e-08
-2.49287e-07
-2.38829e-08
-2.2047e-07
-1.04475e-08
8.01764e-09
-1.34159e-07
-5.97602e-07
-1.35274e-07
1.54529e-07
-7.88315e-07
-8.04195e-07
-6.8614e-07
-9.9044e-07
-5.5933e-07
-6.10068e-07
-5.69732e-07
-2.72303e-07
-1.60401e-07
-1.74488e-07
-8.26568e-08
-1.10222e-07
-7.94817e-08
-2.88924e-08
-8.22075e-08
-9.55611e-09
3.36962e-09
-7.93938e-08
-1.47419e-07
-6.01313e-08
6.83599e-08
-7.45204e-07
-2.73225e-07
-7.92755e-07
-9.44319e-07
-5.04709e-07
-8.91258e-07
-3.98135e-07
-3.78121e-07
-4.27484e-07
-1.50643e-07
-2.31277e-07
-9.6554e-08
-8.23567e-08
-6.71469e-08
-6.12677e-08
-3.24795e-08
-7.54834e-09
-5.18626e-08
-7.1187e-08
-2.92671e-08
3.72071e-08
-2.84505e-07
-7.92937e-08
-7.86163e-07
-4.89825e-07
-6.3979e-07
-1.0352e-06
-3.14665e-07
-7.08697e-07
-2.84162e-07
-1.92161e-07
-3.25073e-07
-6.21537e-08
-3.22647e-07
-2.70712e-08
-2.31274e-07
1.03374e-08
1.27424e-08
-1.5186e-07
-3.03107e-08
1.15692e-09
-3.31688e-09
-8.14187e-08
-3.14609e-08
-4.3683e-07
-1.20542e-07
-6.59654e-07
-8.09761e-07
-3.45647e-07
-1.0324e-06
-1.7796e-07
-3.66208e-07
-2.40443e-07
-4.06161e-09
-2.83453e-07
1.19368e-08
-3.28345e-07
4.40255e-08
5.47156e-08
-3.61942e-07
1.52923e-08
1.65742e-08
-3.39848e-08
-1.63564e-08
-3.63388e-09
-9.35493e-08
-4.67219e-08
-4.27502e-07
-4.95913e-07
-3.5717e-07
-1.10955e-06
-1.0429e-07
-6.23907e-07
-1.59598e-07
6.3702e-08
-2.33475e-07
8.18134e-08
-2.93938e-07
9.08451e-08
8.6173e-08
-3.25391e-07
3.03547e-08
3.7306e-08
-8.23098e-08
1.24526e-08
1.03487e-08
-2.45575e-08
-1.2135e-08
-2.05342e-07
-3.48886e-07
-2.40614e-07
-1.09539e-06
-9.64669e-08
-7.75763e-07
-1.4057e-07
1.07683e-07
-1.97383e-07
1.37893e-07
-2.48339e-07
1.40468e-07
1.24906e-07
-2.87069e-07
1.38799e-08
2.41382e-08
-2.8585e-08
4.32814e-09
1.6092e-08
-8.22212e-09
-5.7973e-10
-1.30965e-07
-2.4763e-07
-1.70478e-07
-1.08798e-06
-1.07663e-07
-8.89956e-07
-1.49836e-07
1.49752e-07
-1.89483e-07
1.77506e-07
-2.28032e-07
1.79021e-07
1.70065e-07
-2.73185e-07
6.58069e-09
2.84828e-09
-2.14857e-09
8.98851e-10
1.60384e-08
-3.45169e-09
3.82646e-09
-9.51693e-08
-1.53749e-07
-1.27906e-07
-1.07334e-06
-7.30746e-08
-1.01087e-06
-9.25234e-08
1.69071e-07
-1.14529e-07
1.9941e-07
-1.54734e-07
2.19193e-07
1.88248e-07
-1.97193e-07
-2.79682e-09
0
4.04162e-10
0
2.31479e-09
0
3.91583e-09
-5.77967e-08
-7.84115e-08
-8.69109e-08
-1.03859e-06
-2.97095e-08
-1.11651e-06
-2.60208e-08
1.6525e-07
-1.98812e-08
1.93142e-07
-3.04102e-08
1.98524e-07
7.99441e-08
-2.61952e-08
-2.24555e-10
0
2.80201e-12
0
1.90407e-10
0
2.2036e-09
-3.04477e-08
-3.32267e-08
-4.56434e-08
-1.01141e-06
-1.48615e-08
-1.07795e-06
-1.31712e-08
1.63421e-07
-1.98983e-09
1.12372e-07
1.57729e-08
4.72218e-08
3.91529e-09
0
3.02643e-11
2.83432e-11
-6.36957e-11
2.5962e-10
1.00065e-10
8.16226e-10
2.70538e-10
-2.69265e-08
-2.06299e-10
-1.55999e-08
-1.01453e-06
-1.60643e-08
-9.81869e-07
3.34609e-09
2.36873e-08
-2.12436e-08
8.24147e-09
-2.20728e-09
0
2.82677e-11
-3.15372e-10
-6.20429e-12
2.55577e-11
-7.20126e-12
1.62806e-12
7.15106e-11
1.88581e-10
1.43947e-11
3.06975e-10
-3.32756e-10
-1.24805e-08
-9.98134e-07
-8.9671e-09
-9.97391e-07
6.66811e-10
-2.22075e-10
6.21599e-09
4.09859e-11
3.96759e-09
-1.80513e-11
-2.01633e-11
1.52135e-09
-1.51615e-11
1.76132e-11
5.43261e-12
-4.59657e-12
4.2844e-11
-4.44908e-12
-3.76633e-12
3.13603e-10
-6.73655e-10
-7.18021e-09
-9.9533e-07
-1.10994e-09
-9.99057e-07
3.18179e-11
-1.53098e-09
9.13951e-11
-3.34141e-11
8.21436e-11
-7.89266e-12
-9.84802e-12
6.3659e-11
-5.20873e-11
3.61674e-11
2.33799e-11
0
7.24673e-11
-8.24222e-12
-2.99669e-12
1.04796e-09
-3.88238e-09
-3.91031e-09
-9.92618e-07
-4.31121e-09
-9.93632e-07
3.51414e-11
-3.62628e-09
8.31371e-12
-7.26265e-12
2.28933e-11
-1.70644e-11
-1.88842e-11
5.66615e-11
-9.15243e-11
1.57081e-10
6.19124e-11
0
7.64545e-11
-4.25239e-14
-2.73145e-12
4.51139e-09
-7.43108e-09
1.85127e-09
-9.87432e-07
-3.44332e-09
-9.88349e-07
-2.69069e-13
-7.03894e-09
-9.04538e-13
-7.48366e-12
-1.04907e-12
-7.27261e-14
-8.42299e-12
-3.05805e-12
-6.10753e-11
1.52135e-10
1.28507e-10
0
4.28433e-11
1.92577e-13
-3.13859e-12
2.71793e-09
-9.71963e-09
-1.37055e-11
-9.83521e-07
-3.17549e-09
-9.8313e-07
-2.10909e-12
-9.32467e-09
-1.65842e-12
-8.77691e-12
-3.53561e-13
-1.12389e-11
-2.11959e-12
-7.69699e-13
-2.1847e-11
8.11634e-11
1.24468e-10
2.43858e-12
8.14765e-12
2.23861e-12
-3.13703e-12
4.83346e-09
-1.38172e-08
-6.74217e-10
-9.76091e-07
-5.03747e-09
-9.76328e-07
-2.17343e-11
-1.3393e-08
-2.25387e-11
-8.91054e-12
-7.3834e-12
-1.19782e-10
-9.9099e-12
-1.03811e-11
-5.88335e-11
5.66301e-11
6.25201e-11
0
-5.03437e-12
3.08424e-13
-3.66695e-12
2.45152e-09
-1.5238e-08
5.60038e-11
-9.71203e-07
-2.79294e-09
-9.70325e-07
-2.89751e-11
-1.48343e-08
-3.11547e-11
-7.74703e-12
-3.46079e-11
-8.75342e-11
-3.65034e-11
-5.51477e-11
2.15206e-12
1.51755e-11
-1.21729e-11
0
1.46371e-11
2.4081e-12
-6.26392e-12
5.62029e-09
-1.97713e-08
-5.95872e-10
-9.62401e-07
-5.69764e-09
-9.62258e-07
-5.16596e-11
-1.93151e-08
-5.49148e-11
-4.42047e-12
-7.43827e-11
-3.69263e-11
-2.96204e-11
-5.02086e-11
3.16612e-11
1.15609e-10
-1.75858e-10
3.34785e-11
5.08333e-11
3.10106e-11
-3.57505e-12
2.57656e-09
-2.13092e-08
-3.5844e-10
-9.57223e-07
-2.95607e-09
-9.56747e-07
-7.77163e-12
-2.10164e-08
-8.48903e-12
-3.72143e-12
-1.35225e-11
-4.05566e-12
-4.43615e-12
-1.10946e-11
4.49123e-11
1.58703e-10
-6.6295e-11
5.07736e-12
3.83271e-11
5.3732e-12
-3.23545e-12
6.12343e-09
-2.64093e-08
-2.23042e-10
-9.48863e-07
-6.23102e-09
-9.48446e-07
-4.19343e-13
-2.62305e-08
0
-4.15989e-12
-7.22134e-12
7.3631e-12
3.3393e-11
-3.56081e-11
-3.99658e-11
6.20358e-12
1.25763e-10
0
-1.11611e-11
1.10978e-12
-3.45833e-12
3.35046e-09
-2.97587e-08
-4.45676e-10
-9.4534e-07
-3.57998e-09
-9.45111e-07
-9.82481e-13
-2.9709e-08
-9.00394e-13
-4.25749e-12
-1.40949e-11
1.94394e-11
6.06635e-11
-3.35703e-11
-5.33565e-11
2.03101e-11
1.32067e-11
0
-5.40264e-11
1.38705e-12
-3.76667e-12
6.40815e-09
-3.70329e-08
-2.05731e-10
-9.40832e-07
-6.60803e-09
-9.4038e-07
-4.01964e-13
-3.70745e-08
0
-4.67234e-12
-6.50612e-12
1.81538e-11
8.03455e-11
-1.98594e-11
7.93689e-13
4.07821e-12
9.23772e-13
2.39456e-12
-4.4744e-11
3.52108e-12
-4.24547e-12
3.96719e-09
-4.35768e-08
-1.87369e-10
-9.41579e-07
-4.02458e-09
-9.41195e-07
-6.20993e-13
-4.36741e-08
-4.83269e-13
-4.81543e-12
-1.09815e-11
1.32968e-11
8.37844e-11
-6.62535e-12
2.22826e-12
5.61909e-13
-2.30732e-13
1.65197e-11
-3.91557e-11
1.57772e-11
-3.16584e-12
7.02266e-09
-5.50605e-08
-3.27625e-10
-9.41554e-07
-7.20743e-09
-9.4135e-07
-3.62973e-13
-5.52966e-08
0
-5.18384e-12
8.46696e-12
3.55316e-12
6.06197e-11
1.94915e-12
1.20143e-11
-4.62362e-12
-4.09189e-12
1.25039e-11
-2.61265e-11
1.22753e-11
-2.82425e-12
4.47372e-09
-6.59721e-08
-1.23218e-10
-9.45618e-07
-4.6655e-09
-9.45215e-07
-2.73641e-13
-6.62747e-08
1.39794e-13
-5.60265e-12
3.22119e-12
4.66326e-13
1.48707e-11
2.98167e-11
1.84154e-11
-3.37683e-13
-1.19624e-11
1.37731e-11
-3.18966e-12
1.24606e-11
-1.5142e-12
7.68004e-09
-8.12897e-08
-4.99397e-10
-9.46061e-07
-7.80734e-09
-9.46538e-07
-4.12667e-13
-8.16496e-08
0
-6.02075e-12
5.54874e-12
-3.61751e-13
6.48382e-12
1.75319e-11
-5.0153e-13
-1.81823e-13
3.47685e-13
0
-2.63002e-13
1.76561e-13
-1.69319e-12
4.95868e-09
-9.34751e-08
2.45859e-10
-9.48064e-07
-5.0246e-09
-9.47792e-07
-1.2289e-12
-9.37087e-08
-8.36036e-13
-6.41898e-12
1.24351e-12
-2.60562e-12
6.5878e-12
3.57504e-12
-2.03523e-14
-1.84485e-13
1.97952e-14
5.55962e-14
-3.41379e-13
9.66044e-14
-1.7357e-12
7.80764e-09
-1.06375e-07
-7.27364e-10
-9.4355e-07
-8.03139e-09
-9.43628e-07
-3.44643e-12
-1.06452e-07
-3.2002e-12
-6.66735e-12
0
-4.48619e-12
1.13389e-11
0
1.24181e-13
-9.57337e-13
0
1.67921e-13
-3.88337e-13
1.80396e-13
-1.75061e-12
5.43279e-09
-1.12739e-07
8.59914e-10
-9.37391e-07
-5.42257e-09
-9.37292e-07
-2.96323e-12
-1.12602e-07
-2.89168e-12
-6.7284e-12
0
-3.87405e-12
1.6766e-11
-1.64845e-12
1.26038e-13
-4.94686e-12
-6.51824e-11
3.24893e-13
-6.41043e-13
4.3687e-13
-1.87171e-12
1.04166e-08
-1.16652e-07
5.13922e-09
-9.23704e-07
-5.93392e-09
-9.25621e-07
-1.21453e-12
-1.17986e-07
-1.11469e-12
-6.78217e-12
0
-1.51588e-12
1.50031e-11
2.12308e-12
4.64259e-12
-3.02025e-12
-8.625e-11
1.04677e-12
-7.12527e-13
1.25137e-12
-2.13608e-12
1.5769e-08
-1.15064e-07
1.76634e-08
-9.10078e-07
5.77373e-09
-9.14185e-07
-6.80285e-13
-1.15121e-07
-4.92078e-13
-6.87354e-12
6.3542e-13
-1.63204e-12
7.09937e-12
7.34319e-12
9.81927e-12
8.6531e-13
-7.94683e-11
2.30264e-12
-7.95062e-12
3.06487e-12
-3.20814e-12
1.8438e-08
-1.14224e-07
1.86695e-08
-8.91853e-07
-3.07205e-10
-8.98186e-07
-2.42963e-12
-1.1423e-07
-2.1382e-12
-7.08962e-12
-9.01642e-16
-3.77222e-12
4.08414e-12
2.74989e-12
1.02533e-10
7.42397e-13
-1.02419e-10
1.15253e-11
-1.56012e-12
9.81771e-12
-2.37009e-12
1.5696e-08
-1.12234e-07
1.40838e-08
-8.77038e-07
-8.66459e-11
-8.82561e-07
-4.75256e-12
-1.11575e-07
-4.01152e-12
-7.53106e-12
-1.34138e-12
-9.75725e-12
1.87208e-12
6.3839e-13
8.19026e-11
1.41048e-11
-9.52658e-11
5.00428e-12
3.37947e-12
4.32186e-12
-1.98304e-12
7.0857e-09
-1.13095e-07
-4.3585e-09
-8.62597e-07
-1.39201e-08
-8.62596e-07
-6.03518e-12
-1.11939e-07
-5.37605e-12
-7.64343e-12
-6.74949e-12
-1.15261e-11
1.91258e-12
-1.95715e-12
3.80665e-11
2.85422e-11
-1.15278e-10
4.08398e-12
6.34017e-12
3.6181e-12
-1.57215e-12
1.05418e-08
-1.17978e-07
1.39112e-09
-8.49993e-07
-8.94104e-09
-8.5048e-07
-4.89533e-12
-1.16986e-07
-5.19887e-12
-7.51973e-12
-1.50105e-11
-6.03243e-12
-6.71768e-13
-8.88992e-12
9.35446e-12
3.63155e-11
-1.09112e-10
8.38297e-13
1.01352e-12
7.79531e-13
-1.51886e-12
1.15673e-08
-1.2998e-07
-7.90909e-11
-8.39313e-07
-1.15157e-08
-8.39843e-07
-2.81563e-12
-1.29119e-07
-2.45932e-12
-8.13088e-12
0
-1.07444e-11
-8.57365e-13
-5.55118e-12
0
2.35188e-12
-2.15957e-11
1.03614e-13
3.5532e-13
1.61402e-13
-1.5807e-12
1.16538e-08
-1.45874e-07
5.95546e-10
-8.30976e-07
-1.16315e-08
-8.30228e-07
-8.03514e-12
-1.4513e-07
-7.12111e-12
-8.71113e-12
0
-1.35959e-11
9.94769e-13
-2.53404e-12
8.57183e-14
5.18605e-13
0
1.4698e-13
2.90017e-13
1.73191e-13
-1.61076e-12
1.29679e-08
-1.63102e-07
3.62001e-10
-8.20693e-07
-1.21447e-08
-8.20448e-07
-9.7852e-12
-1.62472e-07
-8.85271e-12
-9.62538e-12
-7.69795e-12
-1.35006e-11
2.5211e-12
-4.64259e-12
1.19681e-13
5.42158e-13
-1.48451e-13
1.24142e-13
2.81705e-13
1.30957e-13
-1.62159e-12
1.44067e-08
-1.8002e-07
1.46698e-09
-8.09198e-07
-1.29395e-08
-8.08124e-07
-1.12806e-11
-1.79524e-07
-1.09778e-11
-1.01521e-11
-8.19628e-12
-1.52728e-11
2.96254e-12
-1.60653e-12
9.90191e-14
6.99864e-13
-1.3694e-14
1.28909e-13
2.46597e-13
1.72748e-13
-1.66928e-12
1.44604e-08
-1.95646e-07
7.05062e-10
-7.96312e-07
-1.29636e-08
-7.95873e-07
-1.26001e-11
-1.954e-07
-1.20925e-11
-1.07169e-11
-1.06918e-11
-1.61089e-11
1.02137e-12
-5.79893e-12
0
8.00671e-13
0
5.8873e-13
1.41919e-12
7.82392e-13
-1.86516e-12
1.75269e-08
-2.16473e-07
1.60362e-09
-7.81595e-07
-1.55748e-08
-7.80436e-07
-1.2124e-11
-2.16272e-07
-1.26922e-11
-1.00349e-11
-1.19055e-11
-1.66931e-11
3.79882e-13
-8.31234e-12
1.08736e-13
6.5013e-13
1.28383e-14
1.80607e-12
2.82601e-12
2.51826e-12
-2.56596e-12
1.70762e-08
-2.42401e-07
1.87983e-09
-7.68157e-07
-1.4846e-08
-7.65977e-07
-1.21303e-11
-2.42138e-07
-1.16443e-11
-9.00767e-12
-1.35333e-11
-1.13964e-11
2.29222e-12
-1.24939e-11
2.12096e-13
6.15041e-13
-2.01697e-13
8.43465e-12
6.99184e-12
9.46118e-12
-3.54727e-12
2.09022e-08
-2.7604e-07
2.31704e-09
-7.51234e-07
-1.84531e-08
-7.47286e-07
-9.02089e-12
-2.75575e-07
-8.59052e-12
-8.07602e-12
-1.07982e-11
-3.78121e-12
6.06499e-12
-1.16018e-11
7.97687e-12
2.08798e-11
-1.62589e-13
1.43316e-11
1.06488e-11
1.60529e-11
-5.1407e-12
1.79721e-08
-3.01494e-07
1.84918e-11
-7.33876e-07
-1.68113e-08
-7.31168e-07
-6.36182e-12
-3.01249e-07
-5.76776e-12
-7.40045e-12
-6.39126e-12
8.31855e-13
1.04416e-11
-1.88199e-12
4.98021e-11
4.90975e-11
-2.61224e-11
3.74648e-11
2.80415e-11
3.4314e-11
-2.36258e-12
2.14811e-08
-3.18996e-07
-1.83989e-09
-7.10301e-07
-2.15058e-08
-7.11207e-07
-7.00551e-12
-3.18941e-07
-6.36399e-12
-6.79656e-12
-1.1678e-11
4.50472e-12
1.36297e-11
-6.4221e-12
2.99617e-12
1.40825e-11
-6.15549e-12
1.13676e-11
8.00732e-12
1.01905e-11
-1.3972e-12
1.9184e-08
-3.25659e-07
2.24682e-09
-6.93096e-07
-1.97433e-08
-6.88714e-07
-5.55163e-12
-3.26336e-07
-4.87939e-12
-6.23217e-12
-5.73393e-12
3.01335e-12
4.69788e-12
-4.18115e-12
-4.23964e-13
0
1.36767e-12
8.83392e-13
9.64294e-14
5.22627e-12
-5.86567e-12
3.00441e-08
-3.44193e-07
1.18283e-08
-6.74861e-07
-1.55367e-08
-6.60879e-07
-3.39848e-12
-3.30222e-07
-1.94476e-12
-6.3889e-12
-7.38224e-13
0
6.0833e-13
-2.05169e-13
2.23792e-14
3.59709e-13
1.50709e-13
1.06668e-13
-1.20728e-14
4.69766e-11
-5.27647e-11
1.55829e-08
-3.56452e-07
-2.02568e-08
-6.38702e-07
-2.75526e-08
-6.54003e-07
-2.45911e-11
-3.54335e-07
-1.49713e-12
-2.88056e-11
-2.29079e-13
1.55148e-13
4.27646e-13
-5.28463e-14
2.93853e-13
1.18954e-12
6.39627e-13
2.68191e-13
-1.16747e-14
3.75823e-10
-4.28344e-10
-2.29898e-08
-3.23113e-07
-3.97119e-08
-6.215e-07
-7.87839e-08
-6.14933e-07
-2.33065e-10
-4.47921e-07
-4.06755e-13
-2.61469e-10
-1.45341e-13
-1.10716e-13
3.32283e-13
-5.23556e-14
7.6758e-13
2.46633e-13
-9.14444e-14
7.61606e-13
-1.20728e-14
3.91905e-09
-4.34665e-09
6.92675e-08
-3.79541e-07
5.16144e-08
-6.02928e-07
1.7891e-08
-5.81218e-07
-2.18883e-09
-4.31024e-07
-4.11834e-14
-2.45024e-09
2.29456e-14
-1.80149e-13
4.4905e-12
1.69753e-13
3.10668e-14
0
-2.58548e-13
3.5249e-14
-1.44769e-14
2.7212e-08
-3.15586e-08
1.19211e-07
-4.72036e-07
6.58315e-08
-5.49573e-07
4.71374e-08
-5.62524e-07
1.94844e-09
-3.85977e-07
-2.02877e-13
-7.47589e-10
-5.3468e-14
-3.01211e-13
9.35605e-12
9.08776e-13
6.62241e-15
8.68299e-16
-6.87377e-15
2.90607e-13
-2.98979e-13
3.39948e-08
-6.81487e-08
3.21116e-08
-4.72951e-07
4.58993e-09
-5.22027e-07
-2.48747e-08
-5.33053e-07
-7.47752e-09
-4.0402e-07
-4.12941e-12
-8.21955e-09
-3.44086e-12
-5.45826e-13
4.77386e-12
-2.20789e-14
1.54481e-14
4.47744e-16
-9.74799e-15
5.77743e-12
-6.05855e-12
5.22116e-08
-1.18869e-07
5.24394e-08
-4.73068e-07
2.007e-08
-4.89623e-07
-1.79042e-08
-4.95055e-07
-1.53442e-08
-4.09767e-07
-8.96836e-12
-2.44013e-08
-6.32867e-12
-1.75425e-12
2.42152e-12
-1.72335e-12
3.79347e-15
1.78356e-16
-5.04517e-15
1.08174e-10
-1.14227e-10
4.28712e-08
-1.50213e-07
1.03959e-08
-4.37974e-07
-2.57439e-08
-4.53461e-07
-6.27407e-08
-4.5802e-07
-4.91628e-08
-4.28667e-07
-5.15808e-11
-7.91997e-08
-1.92907e-11
-3.1681e-11
6.97097e-13
-1.66526e-11
1.03667e-13
-1.02488e-13
-9.65918e-16
2.06587e-09
-2.17999e-09
9.25498e-08
-2.3362e-07
5.97409e-08
-4.03885e-07
1.53106e-08
-4.09033e-07
-3.2118e-08
-4.10586e-07
-6.15181e-08
-4.00631e-07
-9.04501e-10
-1.45282e-07
-3.01487e-11
-9.0311e-10
2.50041e-13
-2.87886e-11
1.51516e-11
-1.52541e-11
-1.30119e-17
1.82008e-08
-2.03658e-08
6.77555e-08
-2.81788e-07
3.03265e-08
-3.6646e-07
-1.02392e-08
-3.68465e-07
-5.96439e-08
-3.61185e-07
-1.09617e-07
-3.50663e-07
-1.42181e-08
-2.42652e-07
-1.77866e-11
-1.51015e-08
-2.81316e-12
-1.39458e-11
1.12068e-09
-1.13594e-09
-2.60401e-18
6.96049e-08
-8.31692e-08
9.13507e-08
-2.97501e-07
3.61565e-08
-3.11263e-07
-1.5464e-08
-3.16844e-07
-5.97281e-08
-3.16921e-07
-9.71682e-08
-3.13227e-07
-5.35207e-08
-2.90768e-07
-7.58191e-10
-6.91391e-08
-7.38944e-10
-1.54589e-11
3.02744e-08
-3.14103e-08
-2.15978e-18
1.42809e-07
-1.97108e-07
1.04579e-07
-2.59333e-07
6.2102e-08
-2.68786e-07
1.34467e-08
-2.68189e-07
-3.97221e-08
-2.63752e-07
-9.78869e-08
-2.55062e-07
-1.41139e-07
-2.47405e-07
-2.7157e-08
-1.80696e-07
-2.78867e-08
-7.4722e-12
9.36751e-08
-9.37841e-19
9.18881e-08
4.97361e-08
1.04144e-08
-2.30832e-08