/*--------------------------------*- C++ -*----------------------------------*\
  =========                 |
  \\      /  F ield         | OpenFOAM: The Open Source CFD Toolbox
   \\    /   O peration     | Website:  https://openfoam.org
    \\  /    A nd           | Version:  8
     \\/     M anipulation  |
\*---------------------------------------------------------------------------*/
FoamFile
{
    version     2.0;
    format      ascii;
    class       volScalarField;
    location    "3.85";
    object      p;
}
// * * * * * * * * * * * * * * * * * * * * * * * * * * * * * * * * * * * * * //

dimensions      [1 -1 -2 0 0 0 0];

internalField   nonuniform List<scalar> 
9150
(
-204.479
-205.485
-206.095
-206.569
-206.808
-206.812
-206.568
-206.091
-205.48
-204.479
-224.528
-225.046
-225.463
-225.792
-225.955
-225.949
-225.777
-225.458
-225.044
-224.527
-244.42
-244.705
-244.957
-245.173
-245.282
-245.283
-245.174
-244.956
-244.704
-244.42
-264.158
-264.335
-264.505
-264.66
-264.749
-264.738
-264.662
-264.505
-264.336
-264.159
-283.778
-283.961
-284.094
-284.223
-284.298
-284.29
-284.233
-284.101
-283.964
-283.779
-118.362
-119.259
-119.062
-118.615
-118.447
-118.45
-118.613
-119.06
-119.271
-118.374
-133.971
-134.689
-134.9
-134.948
-134.854
-134.852
-134.95
-134.892
-134.68
-133.969
-150.478
-151.223
-151.527
-151.886
-151.939
-151.942
-151.88
-151.532
-151.215
-150.468
-167.352
-168.473
-168.913
-169.559
-169.715
-169.717
-169.538
-168.898
-168.461
-167.339
-184.292
-186.378
-187.128
-187.84
-188.103
-188.116
-187.848
-187.124
-186.377
-184.295
-24.6822
-26.3791
-28.4229
-29.411
-29.7602
-29.6265
-28.9959
-27.8984
-26.0834
-24.5265
-45.1695
-45.377
-46.3561
-46.7972
-47.2537
-47.2179
-46.8069
-46.4591
-45.4365
-45.1708
-65.1307
-65.0624
-66.0466
-65.7024
-66.2191
-66.1841
-65.7304
-66.0863
-65.0491
-65.1321
-87.9889
-85.2276
-86.291
-84.6847
-84.9479
-84.8971
-84.7168
-86.2406
-85.2384
-87.9835
-114.096
-104.221
-103.879
-102.318
-102.017
-102
-102.369
-103.868
-104.243
-114.105
790.85
789.44
785.72
780.762
775.407
769.712
766.218
764.187
763.492
764.445
760.974
759.554
755.429
751.362
748.23
744.554
742.076
740.32
739.927
741.39
731.764
729.28
724.775
723.554
717.334
714.621
712.937
711.274
710.561
710.757
705.634
701.757
697.76
694.501
695.124
689.326
684.998
683.784
683.802
685.622
683.056
679.58
676.323
673.196
673.394
670.29
667.995
667.381
667.79
668.19
662.546
659.297
656.307
654.289
653.341
651.939
651.501
653.032
653.619
655.036
644.889
643.08
641.398
640.196
639.849
640.097
641.186
643.054
644.382
643.635
627.172
626.266
625.281
624.676
624.4
624.391
624.761
625.606
626.602
629.594
607.64
607.264
606.826
606.532
606.547
606.688
606.887
607.379
608.073
609.647
587.37
587.115
586.997
587.181
587.5
587.724
587.963
588.431
589.272
590.516
566.879
566.698
566.711
567.146
567.518
567.778
567.92
568.208
569.245
570.783
545.512
545.619
545.811
546.347
546.969
547.492
547.155
546.909
548.568
549.909
527.241
526.877
527.535
529.24
532.58
534.407
532.436
530.108
527.743
531.365
506.521
507.069
506.61
512.216
527.607
516.172
513.452
511.448
512.854
512.85
486.195
487.089
488.43
499.587
497.974
510.017
496.914
504.758
507.174
510.255
477.787
475.776
479.434
479.786
479.345
480.781
481.576
485.438
491.63
497.918
469.461
466.466
466.686
462.378
463.851
458.129
462.996
465.712
467.197
473.773
444.866
444.779
436.384
432.9
424.483
415.265
414.436
421.209
429.623
439.678
420.265
413.443
411.184
406.423
401.618
400.689
398.76
400.505
398.584
399.374
408.349
404.858
402.226
398.031
393.84
389.808
382.96
378.212
384.341
409.101
400.776
396.422
389.81
384.641
381.558
379.421
376.75
372.445
396.232
396.514
385.709
383.575
381.057
375.871
373.934
375.118
375.356
377.245
380.624
378.717
362.815
357.651
352.986
346.19
337.497
324.044
331.289
346.722
360.845
360.506
341.418
339.955
338.172
335.151
328.414
326.727
323.333
326.076
339.231
344.737
336.204
335.903
335.249
334.482
333.46
333.013
332.367
328.349
337.271
340.212
335.97
335.99
336.007
336.08
335.793
335.023
331.433
327.603
340.788
321.836
336.02
336.213
336.208
336.147
335.891
330.552
331.23
326.885
319.756
319.168
335.462
335.246
335.139
330.338
331.184
332.583
318.53
317.178
316.008
314.614
333.369
328.183
328.429
333.618
329.92
317.736
314.931
312.57
311.127
309.336
325.942
324.846
322.956
320.598
316.266
311.272
307.536
305.867
304.02
300.619
314.032
311.252
308.465
305.171
301.293
297.286
292.371
296.413
294.412
285.402
303.926
300.825
297.239
294.079
289.905
285.297
279.093
287.312
278.304
269.559
302.913
298.431
292.681
285.893
277.621
268.903
278.609
264.777
259.784
252.323
303.481
298.322
290.539
281.633
271.852
263.885
263.469
239.682
237.327
228.116
306.553
301.827
292.039
279.879
268.922
256.117
244.685
231.478
218.6
214.67
312.142
307.079
293.05
273.546
253.016
236.321
224.215
215.028
203.228
204.124
323.308
298.689
257.791
219.19
186.806
168.567
158.252
156.164
158.267
167.811
317.663
252.26
175.838
112.865
82.0859
70.1625
74.2722
85.238
96.694
108.638
266.832
190.332
92.0634
35.8896
19.7269
12.538
13.4971
34.1939
41.6391
51.5618
181.268
115.42
63.8592
52.3522
51.3776
54.1466
71.2819
69.7762
72.5305
69.7786
92.4385
84.9618
81.6397
83.2309
78.4722
80.4356
90.8834
91.551
91.5901
91.5278
38.9428
40.7465
56.4482
84.4458
92.7951
89.5686
86.355
90.1893
92.7305
93.2207
5.84372
8.08698
19.5331
62.6986
102.653
103.488
99.2876
92.3626
86.2795
90.6222
-8.1438
-7.63152
-2.23191
26.2423
93.4804
111.13
101.093
96.2595
89.5651
82.8227
-3.95874
-2.32399
3.70906
14.9527
62.9215
101.599
85.9597
86.552
78.5467
73.6596
5.68991
9.73952
11.9756
17.0166
42.6555
77.8357
68.0026
68.6509
64.5528
60.2723
4.59212
10.3845
11.3301
13.0378
27.8024
63.396
57.4448
54.522
50.2195
45.3086
2.19076
3.52997
3.84659
4.77611
14.8177
48.6273
42.3672
38.3782
32.1611
24.1991
0.193683
0.586817
0.397902
0.614839
6.25413
30.244
25.9324
23.1587
13.2013
5.96824
0.203931
0.121949
-0.0746152
-0.710013
-0.294222
9.66647
18.2051
10.0136
1.969
-1.04565
0.104211
0.0541226
-0.0419495
-0.253351
0.111796
-2.81697
-4.4782
-2.55905
-1.57787
-1.44245
0.00215053
0.00158238
0.0385496
-0.00813598
17.6801
25.0866
1.21729
0.0868008
-0.940084
-0.826418
-0.110083
-0.0834326
-0.0552048
-0.0504214
25.6928
24.8553
-0.358885
-0.714165
-0.92868
-1.02846
-0.252977
-0.262973
-0.26785
-0.29314
34.0454
17.3001
-0.961688
-1.06757
-1.1532
-1.2223
-0.378993
-0.395611
-0.387575
-0.389205
24.2784
26.6828
-1.15781
-1.17128
-1.18576
-1.20237
-0.458663
-0.470156
-0.440867
-0.443136
26.2873
24.9819
-1.19062
-1.19718
-1.19816
-1.20824
-0.491909
-0.48773
-0.473913
-0.47537
25.9925
25.1678
-1.21085
-1.21265
-1.21933
-1.21543
-0.553797
-0.539813
-0.530591
-0.538188
26.2961
25.1031
-1.19869
-1.20157
-1.21899
-1.21855
-0.594128
-0.601403
-0.584152
-0.593078
26.0252
25.2553
-1.17795
-1.18016
-1.21546
-1.21652
-0.57525
-0.578236
-0.544274
-0.551911
26.2238
25.3268
-1.201
-1.19785
-1.21963
-1.22528
-0.580525
-0.559407
-0.536214
-0.538589
25.9743
25.4913
-1.25578
-1.24962
-1.27165
-1.27387
-0.606792
-0.571308
-0.576772
-0.579425
26.1785
25.5157
-1.30322
-1.29872
-1.32106
-1.32129
-0.658483
-0.656433
-0.645158
-0.659984
26.0541
25.6069
-1.3613
-1.35471
-1.37601
-1.37678
-0.695099
-0.699023
-0.686329
-0.701289
26.2422
25.7492
-1.40952
-1.40598
-1.42171
-1.4403
-0.693502
-0.698582
-0.690209
-0.69988
26.3807
25.7583
-1.46609
-1.46369
-1.46701
-1.49558
-0.697171
-0.700406
-0.682458
-0.689892
26.5503
26.028
-1.535
-1.53248
-1.53383
-1.55295
-0.711845
-0.708983
-0.682924
-0.692489
26.5365
26.0562
-1.5974
-1.59551
-1.59748
-1.6009
-0.737019
-0.73224
-0.727051
-0.731699
26.7314
26.0581
-1.64252
-1.64276
-1.64573
-1.64155
-0.75127
-0.748097
-0.747831
-0.746844
26.7254
25.8379
-1.67754
-1.68387
-1.68674
-1.67909
-0.753605
-0.745313
-0.741385
-0.738663
25.9755
26.4497
-1.72292
-1.73053
-1.73018
-1.72215
-0.748127
-0.721738
-0.708527
-0.672928
19.4231
32.6354
-1.82265
-1.80117
-1.78653
-1.77462
-0.753137
-0.69466
-0.66533
-0.575389
9.44908
42.8866
-1.97056
-1.87931
-1.8424
-1.81995
-0.772074
-0.704355
-0.670524
-0.58128
8.64667
43.4837
-2.0005
-1.9069
-1.87117
-1.84055
-0.830025
-0.758684
-0.717338
-0.639477
11.5046
40.5493
-1.97913
-1.88757
-1.85914
-1.83345
-0.899331
-0.841527
-0.828176
-0.852013
26.3707
25.2305
-1.80838
-1.80917
-1.80967
-1.80142
-0.972435
-0.919475
-0.909266
-0.930708
26.7781
24.6388
-1.78509
-1.7761
-1.78029
-1.77832
-1.03579
-0.992225
-0.986529
-1.00253
25.4199
25.7989
-1.78962
-1.77157
-1.77286
-1.77837
-1.09093
-1.07313
-1.07027
-1.08432
25.4832
25.2364
-1.78286
-1.77127
-1.77891
-1.77483
-1.14209
-1.13888
-1.13797
-1.14411
25.0656
25.1652
-1.77976
-1.7721
-1.77517
-1.77451
-1.19182
-1.19034
-1.18986
-1.19493
24.4322
24.7431
-1.7722
-1.76688
-1.77184
-1.77107
-1.23787
-1.23676
-1.23683
-1.25326
23.8215
24.351
-1.78584
-1.76732
-1.77574
-1.77357
-1.28383
-1.28213
-1.28247
-1.3163
23.0182
23.4944
-1.80788
-1.77217
-1.78195
-1.78106
-1.32641
-1.32539
-1.3259
-1.36506
22.3644
22.3507
-1.81529
-1.77566
-1.78469
-1.7844
-1.36429
-1.36454
-1.36496
-1.3708
21.3485
20.8234
-1.78639
-1.78014
-1.78716
-1.78712
-1.40087
-1.40134
-1.39889
-1.3512
19.9993
19.6527
-1.7405
-1.78753
-1.79292
-1.79439
-1.43828
-1.44132
-1.4192
-1.35335
17.9262
18.7933
-1.73965
-1.8038
-1.80922
-1.80953
-1.49299
-1.48878
-1.4754
-1.46767
16.6394
17.2093
-1.81757
-1.82741
-1.82828
-1.82991
-1.53948
-1.53337
-1.53741
-1.54239
17.688
14.0495
-1.99562
-1.84893
-1.84643
-1.84882
-1.57711
-1.57124
-1.5756
-1.4236
15.8904
12.393
-2.16226
-1.86403
-1.86164
-1.86168
-1.61357
-1.61289
-1.61176
-1.95563
7.16728
15.0745
-1.84595
-1.8743
-1.86536
-1.86904
-1.65173
-1.65218
-1.64709
-2.66721
3.88104
12.2631
-1.14625
-1.87153
-1.87034
-1.87371
-1.68646
-1.68209
-1.68575
-2.46363
7.20361
5.09791
-1.83981
-1.89119
-1.88807
-1.88771
-1.7207
-1.71698
-1.75274
-1.60386
4.37275
1.61606
-2.96979
-1.89594
-1.89674
-1.89494
-1.75515
-1.75534
-1.76639
-1.48543
2.15759
0.127613
-2.96108
-1.91283
-1.89762
-1.90149
-1.78738
-1.78929
-1.94522
-0.800166
0.638183
-0.565077
-2.48783
-2.03287
-1.90379
-1.91003
-1.81744
-1.82449
-2.39881
-1.99454
-0.523571
-0.242565
-1.09787
-2.21823
-1.90826
-1.91622
-1.84809
-1.8287
-3.05944
-1.34087
-0.675491
-0.874868
-2.06928
-3.33328
-1.92322
-1.92502
-1.88123
-2.58527
-4.71316
-2.65161
-1.69871
-2.08788
-2.71453
-4.12299
-2.28985
-1.93217
-1.9043
-4.1718
-5.84397
-5.9087
-5.82371
-5.54995
-5.36361
-5.33392
-3.92759
-1.94276
-2.75075
-9.22373
-12.3188
-14.1906
-14.9879
-15.2019
-14.745
-13.0548
-9.57672
-2.7215
767.105
770.899
774.919
778.841
782.478
785.97
789.292
792.32
795.301
797.873
800.154
801.948
803.058
805.579
806.426
806.835
807.66
808.802
811.318
811.968
812.323
812.612
812.192
812.109
811.946
811.693
811.58
811.448
811.149
810.742
811.616
813.401
815.134
815.188
816.51
815.418
815.594
815.748
816.701
822.737
743.884
747.755
752.081
756.232
760.488
764.155
767.518
770.628
773.478
776.124
778.394
780.665
782.697
784.486
785.986
787.528
789.447
791.04
792.396
793.727
795.169
795.115
793.443
793.249
792.535
791.426
791.046
791.229
790.787
789.537
789.067
789.512
790.434
793.827
795.346
795.247
794.096
794.451
796.179
801.148
713.689
719.58
726.124
731.95
736.965
741.217
744.736
747.906
750.707
753.452
756.047
758.572
760.999
763.526
766.412
769.036
771.494
773.333
774.63
775.03
774.699
774.891
774.018
772.15
771.714
772.605
772.739
775.073
774.478
773.781
771.706
769.167
767.236
769.014
771.148
767.327
767.49
766.249
768.361
771.409
688.052
694.901
700.956
706.434
712.397
717.859
722.17
725.76
728.391
730.95
733.362
735.762
738.444
741.602
745.098
748.794
753.248
754.92
755.05
755.391
755.111
754.95
754.354
757.208
757.142
756.899
758.06
759.342
760.726
760.876
759.702
756.217
752.049
748.199
747.691
740.499
750.361
743.624
745.092
742.944
670.282
674.615
678.398
682.894
690.328
696.624
701.057
704.057
706.401
708.464
710.327
712.309
714.517
717.777
722.161
726.632
732.584
734.218
734.981
735.243
735.163
735.264
735.977
741.249
742.826
739.99
744.676
744.537
745.201
745.111
741.796
739.001
735.561
732.861
730.628
725.45
726.752
727.979
726.126
726.902
657.088
660.096
663.626
666.648
671.558
677.459
681.488
683.841
685.405
686.135
686.36
686.412
687.705
691.139
696.101
701.867
707.256
710.937
712.527
713.337
713.816
713.81
714.666
716.556
720.816
718.66
721.019
722.658
722.794
722.23
720.512
718.644
716.741
715.059
713.8
711.233
711.74
713.598
714.751
715.735
645.623
647.597
649.838
650.8
654.167
658.62
661.903
663.64
664.139
663.848
662.124
658.821
654.448
656.319
662.694
669.83
676.327
681.657
684.141
686.598
687.973
689.038
690.815
692.244
694.293
696.332
698.277
699.573
700.207
699.91
698.861
697.945
697.492
697.624
697.597
697.85
698.664
701.319
703.564
705.268
633.131
634.315
633.603
634.212
636.729
639.488
641.618
642.88
643.017
642.201
639.861
636.953
637.295
629.494
632.078
639.04
647.035
651.832
655.992
657.941
660.938
662.927
666.558
670.996
674.229
676.638
678.156
679.444
679.887
679.751
679.787
680.022
680.674
682.012
682.984
684.931
689.207
692.341
694.284
694.794
611.718
612.846
614.644
616.338
618.565
620.708
623.007
624.209
624.944
625.092
624.773
621.437
621.033
618.326
619.55
623.824
629.084
634.902
641.821
639.372
641.342
644.699
646.356
651.022
654.641
657.455
658.754
660.526
661.474
661.573
662.112
663.306
665.783
668.148
670.839
676.448
682.353
684.342
685.246
685.018
592.04
593.873
595.902
598.16
600.534
602.844
605.056
606.301
607.143
608.93
611.241
612.492
613.486
614.002
615.008
616.935
619.753
623.138
626.118
625.562
625.665
628.132
629.892
633.649
636.21
637.225
639.372
640.514
641.384
642.628
644.087
646.463
649.616
653.361
657.579
662.055
666.285
671.65
671.8
671.608
572.87
575.066
577.239
579.826
582.751
585.849
588.679
590.338
593.262
598.695
600.431
601.936
603.208
604.576
606.124
607.575
608.523
610.069
612.084
611.772
610.727
611.913
612.752
613.798
615.551
617.736
618.023
623.011
620.573
620.616
623.099
626.281
629.981
634.733
640.129
645.35
649.792
652.346
653.373
654.669
552.786
555.706
558.603
561.355
564.97
568.658
571.668
573.893
576.972
585.493
588.871
590.137
590.48
591.572
591.919
593.155
593.13
594.922
595.201
596.725
593.173
594.324
594.517
595.084
596.109
597.013
596.881
602.205
601.711
598.194
598.782
600.384
604.75
610.842
617.189
622.753
627.447
630.651
632.424
632.634
531.423
535.363
540.855
546.884
545.192
549.767
552.423
555.066
559.347
563.864
568.198
572.957
578.776
579.925
578.188
579.91
577.609
584.318
585.131
578.497
586.911
573.929
574.409
575.325
576.202
577.039
577.791
579.534
578.68
577.27
576.987
576.588
580.034
586.189
592.448
597.403
600.974
603.244
606.145
607.09
518.377
528.89
520.175
528.858
527.888
531.934
529.874
532.369
538.217
545.094
551.906
557.082
560.379
561.672
564.407
569.002
559.732
562.646
563.667
560.469
565.212
564.857
556.009
556.174
556.625
557.202
557.796
559.283
559.338
559.432
560.112
561.474
562.382
566.645
571.837
576.437
580.378
586.202
589.737
589.633
514.658
517.949
516.702
524.363
518.939
525.804
524.676
520.5
520.689
529.427
536.132
540.511
542.382
543.415
545.209
557.69
545.546
544.777
544.154
542.8
540.522
544.133
541.264
537.703
537.133
537.033
537.214
537.679
537.619
539.85
540.101
542.302
544.762
548.674
553.227
557.741
564.163
570.053
571.997
571.395
503.855
508.244
509.235
511.126
517.068
514.497
516.164
506.479
509.615
516.208
520.498
524.344
526.202
526.887
527.483
528.963
530.958
528.109
527.812
526.216
523.658
521.799
521.156
518.142
516.735
515.981
515.847
514.898
514.51
512.976
514.844
517.225
520.967
525.819
530.556
535.852
544.5
550.825
551.41
551.905
481.257
485.562
491.932
501.456
507.744
509.863
508.603
502.295
502.88
503.307
505.831
509.705
511.978
513.32
513.939
514.691
514.876
515.113
513.805
510.495
505.89
502.303
501.183
498.513
494.769
494.419
493.78
491.239
490.303
490.267
496.423
493.819
495.866
499.296
505.721
511.179
517.99
524.84
526.968
531.6
450.455
461.923
472.703
479.937
486.206
494.278
494.963
493.942
498.176
502.091
498.534
499.014
499.86
500.69
501.01
501.224
501.301
501.223
500.154
495.501
488.968
483.601
480.458
475.828
470.439
472.821
476.15
469.026
471.861
472.269
473.992
476.435
478.869
477.993
483.598
489.661
495.282
500.717
505.32
508.896
413.82
431.465
445.878
456.98
465.925
473.847
478.91
481.309
480.771
484.765
491.281
492.043
488.091
488.484
487.04
486.882
487.055
487.138
487.09
482.083
476.868
473.612
466.957
454.666
452.085
447.473
445.149
451.433
448.014
450.798
453.109
455.742
458.502
459.745
464.691
470.215
475.054
479.713
484.469
487.245
391.589
409.087
423.812
435.215
444.659
452.394
458.579
461.93
464.377
467.406
468.635
470.485
474.634
471.137
469.751
469.113
469.739
470.494
472.153
468.723
458.568
447.862
437.061
427.426
416.71
422.178
421.121
425.865
429.982
429.826
430.342
432.295
439.441
444.417
448.559
452.985
457.263
461.29
465.551
467.252
379.747
390.872
403.724
414.577
423.815
430.675
436.405
442.086
446.444
449.045
450.317
450.926
448.808
451.03
450.228
446.945
449.142
447.65
446.487
443.128
432.569
424.249
427.722
431.851
432.335
425.466
410.877
400.968
394.736
399.086
409.785
414.57
418.462
422.696
431.467
437.355
442.826
448.156
453.07
456.88
372.459
378.367
387.086
395.411
403.144
410.797
417.925
423.822
428.641
432.057
433.554
433.148
431.503
430.285
434.051
433.069
433.762
438.102
440.408
437.179
441.196
436.504
423.381
410.143
405.636
408.286
405.786
405.348
406.559
407.987
409.405
409.105
407.813
406.416
415.365
424.729
431.71
441.36
447.86
453.453
358.811
362.194
367.877
374.65
382.608
391.033
398.736
405.86
411.559
414.943
415.95
414.597
410.81
405.495
403.82
406.241
400.273
403.559
409.908
412.306
413.025
415.937
413.835
410.923
403.024
402.385
400.744
401.304
394.948
403.088
408.565
411.033
413.741
417.038
416.579
424.133
432.726
443.696
454.623
459.738
344.608
344.864
346.594
351.499
358.846
367.969
377.093
385.429
391.637
394.735
394.471
390.622
383.032
373.005
362.683
352.145
349.538
356.614
365.839
373.769
379.004
379.128
374.937
370.465
372.675
372.104
377.45
383.846
390.179
395.748
400.312
411.938
415.657
416.821
428.322
440.725
447.515
459.094
472.733
477.339
332.519
338.239
339.067
334.248
335.445
342.335
352.505
361.527
367.094
367.522
364.419
358.873
349.53
336.836
323.908
312.959
306.755
309.31
315.198
320.208
327.12
333.477
332.376
330.977
336.065
342.039
353.334
364.038
373.429
380.376
392.079
401.771
412.988
433.028
438.164
464.469
465.364
473.128
487.061
491.544
324.058
325.611
325.068
322.665
319.89
316.259
321.546
327.268
330.222
327.484
321.845
315.031
307.163
297.677
287.294
278.017
269.319
263.132
259.095
255.164
253.48
260.241
268.308
278.227
290.966
307.304
324.694
342.654
355.718
367.547
388.432
409.554
426.647
434.778
441.912
449.741
459.597
471.613
486.665
490.925
318.982
318.379
315.612
310.253
302.206
292.295
288.266
282.192
276.391
268.906
262.067
261.175
260.256
255.056
247.529
237.759
226.12
215.244
204.192
189.248
174.598
170.011
183.796
199.718
230.987
263.208
288.466
318.027
328.885
347.528
363.757
381.597
401.837
415.319
416.783
433.768
446.678
455.502
461.414
461.723
313.313
309.44
300.541
286.178
276.119
262.511
246.85
233.025
221.053
218.426
227.462
223.515
222.315
216.394
207.086
195.741
181.667
168.571
163.581
157.506
158.869
158.478
162.959
169.227
180.899
217.597
254.378
281.54
302.074
320.888
341.937
361.604
370.5
378.969
396.916
409.551
422.245
427.857
433.606
433.153
306.303
297.333
285.054
265.663
242.709
230.107
223.806
213.955
205.833
204.042
204.226
195.725
195.593
181.894
167.823
165.749
161.881
160.05
156.285
154.292
153.991
155.001
158.178
163.012
168.988
193.038
225.045
250.422
270.859
290.097
319.117
324.533
339.475
353.354
365.553
383.173
389.448
393.334
398.171
398.559
296.378
287.179
270.02
246.828
238.814
229.697
218.622
205.201
191.481
183.55
175.343
178.21
161.866
159.592
158.214
157.418
158.104
158.84
158.475
158.08
158.143
159.196
162.08
165.44
169.236
175.242
193.403
217.931
240.787
258.469
274.839
290.699
307.216
324.368
339.678
348.834
355.246
362.798
363.927
366.718
281.712
268.681
250.407
243.557
241.288
230.404
213.118
195.549
187.363
175.919
156.461
158.976
157.753
156.918
156.455
156.138
156.233
156.822
156.952
156.286
157.751
163.582
167.346
169.135
175.58
174.623
177.274
190.41
214.838
236.789
252.798
266.208
283.389
297.632
309.312
320.166
327.32
331.158
332.275
336.642
267.126
258.854
247.722
249.971
250.845
227.686
216.272
200.72
189.671
174.106
155.69
157.212
156.774
156.606
155.691
155.212
154.936
154.942
154.961
154.313
153.117
157.305
162.768
166.453
172.365
173.161
181.347
201.794
215.713
229.763
243.245
255.762
267.628
278.229
288.373
296.027
301.057
303.94
304.957
308.667
250.207
249.998
248.538
253.691
264.026
228.368
216.794
206.674
193.985
179.63
158.964
157.191
156.558
156.216
155.675
156.237
156.302
155.394
153.599
152.384
152.244
152.184
153.608
159.519
168.526
170.925
183.812
199.515
212.779
224.326
237.295
249.519
253.651
262.682
268.895
273.981
278.231
280.542
282.934
284.724
230.643
236.558
246.128
254.598
274.93
235.194
222.689
215.565
201.997
186.271
169.325
158.306
157.603
156.693
155.921
155.121
155.621
152.257
150.93
150.21
149.767
148.805
148.938
150.453
162.762
172.718
171.921
171.245
193.309
206.865
218.01
228.268
237.263
243.757
248.848
253.235
257.077
259.476
262.07
263.234
217.591
231.77
245.011
249.921
288.279
244.504
231.718
223.114
209.288
192.42
176.23
161.917
156.42
156.012
155.135
154.258
153.652
152.904
151.448
149.997
149.119
149.06
149.642
155.878
166.942
150.026
154.187
156.655
172.645
188.769
200.669
209.95
217.488
223.112
228.027
232.719
236.756
240.028
241.766
243.261
209.186
225.362
241.137
244.211
273.06
249.211
236.136
219.011
206.476
187.956
177.008
167.202
158.78
154.826
154.085
153.674
153.673
152.905
151.748
150.836
150.029
151.108
151.132
156.303
152.119
147.453
140.423
148.41
164.519
176.105
184.832
191.748
197.645
202.755
207.676
212.423
216.175
220.481
224.243
225.716
180.926
198.367
216.099
221.743
249.32
232.63
216.786
204.79
201.687
177.054
170.36
163.777
158.448
147.38
147.424
151.455
152.91
153.679
154.794
154.895
154.619
155.897
160.061
161.586
154.866
145.805
142.955
149.57
156.335
162.963
169.023
174.398
179.525
184.565
189.132
194.179
198.844
202.149
204.504
206.774
117.775
125.114
163.443
187.981
207.07
188.716
177.586
177.935
174.657
163.981
162.689
151.531
146.29
148.919
144.919
141.511
146.248
150.197
148.657
145.634
143.859
145.266
149.959
160.442
154.061
147.394
145.377
147.128
149.425
152.026
155.617
159.652
163.658
167.953
171.549
175.29
177.321
179.97
183.654
185.986
71.8793
84.9098
108.596
137.197
147.937
158.076
150.945
155.595
154.127
149.503
144.211
138.854
135.212
130.342
127.337
128.003
131.987
136.736
139.787
141.671
141.088
137.613
145.075
137.611
140.02
139.92
139.856
138.658
138.016
139.095
141.484
144.962
148.247
152.241
158.823
152.317
155.608
155.875
157.609
159.974
73.7267
83.122
92.4589
102.504
122.327
120.066
129.044
131.12
132.068
132.94
126.92
120.351
117.225
116.071
112.661
114.422
116.773
117.858
121.116
122.381
122.892
128.667
128.686
131.655
130.788
129.031
126.905
125.143
123.566
122.388
123.354
126.709
130.092
133.035
137.283
137.943
138.025
140.117
139.708
140.111
90.3324
87.9324
85.4082
96.9625
109.236
102.392
106.269
109.089
107.837
111.341
107.789
101.467
107.551
107.603
105.691
106.593
108.323
109.939
111.717
114.583
118.342
121.244
119.005
117.879
117.159
116.067
113.689
110.155
106.182
102.652
101.575
105.079
110.544
113.243
116.511
118.453
119.81
120.107
122.16
123.031
92.458
90.3713
84.6099
112.516
92.0326
92.6509
92.2894
91.6172
91.4031
86.4462
82.5874
86.3066
91.186
88.3886
94.0574
96.7069
99.3075
102.215
104.88
107.44
109.616
108.153
108.852
107.659
105.674
104.07
101.516
96.8396
91.4364
87.1633
84.8756
86.1377
92.4588
93.1996
96.5038
97.3246
97.5389
101.275
101.381
100.878
88.8151
78.7576
82.3757
83.0968
70.9903
80.608
73.0244
67.4849
62.7792
61.2379
64.0812
68.7072
72.3236
73.2262
82.6009
86.3064
83.4328
87.6185
89.8466
89.3282
89.7906
91.0285
91.9786
92.0181
90.5673
88.7999
87.0868
83.9986
79.8418
76.1912
73.7744
72.7237
72.9702
75.3045
76.3826
77.3769
78.7514
82.2368
85.0583
85.608
78.0996
73.8993
71.6156
69.174
64.8674
59.2474
56.6817
37.4149
38.9187
35.9004
39.3157
45.833
52.3123
53.5493
53.5759
61.9066
67.4836
68.5329
68.9068
69.2164
68.8824
68.6886
68.7206
68.509
68.0333
67.5103
66.5195
65.1433
63.0826
61.1703
60.3128
58.9049
56.3274
55.2543
56.6681
59.4423
62.3439
65.5007
64.466
73.1927
68.8474
63.994
59.4977
54.9324
49.5252
44.6792
38.8056
30.4873
25.1105
21.9655
22.0604
29.9538
38.0048
35.258
40.6579
37.4169
38.7433
43.627
46.6375
47.5919
47.462
47.6532
47.2186
45.696
44.7483
45.5136
46.7957
47.1139
45.3847
44.9052
46.4022
46.2953
44.3886
45.802
47.5165
51.2801
47.9191
53.1938
45.3766
51.2126
55.3402
50.6553
46.4808
42.0623
36.7505
36.7484
34.8701
31.4713
28.9552
27.3993
26.3309
21.7515
35.7354
23.8606
21.1106
25.7342
29.4121
25.4004
28.2195
31.8156
31.2841
29.4162
25.378
20.7496
18.335
17.9729
20.8959
23.7346
25.2783
25.7193
28.4963
30.5224
31.0095
32.9558
34.414
35.0102
34.7629
34.9584
36.0927
39.2852
39.7653
35.1955
32.4848
31.363
30.7405
30.522
32.6736
31.0834
28.9021
26.4913
26.3388
27.9513
25.7383
21.8401
13.901
11.428
12.8811
8.81466
21.5633
20.3391
12.5212
6.23819
1.77222
-0.424077
-0.334599
1.35159
3.29386
4.29906
6.26569
9.93981
12.0926
13.3229
16.4035
21.2109
24.6944
25.7695
28.1551
27.1241
27.6132
29.6303
16.7245
10.9452
8.55671
11.7775
20.0842
25.7255
32.3041
31.7592
27.7888
23.3595
16.1364
8.94935
5.83611
2.5313
-0.207624
3.86442
5.59207
2.24617
0.743491
-0.486373
-0.88045
-0.919649
-0.954202
-0.985194
-1.01359
-0.934926
-0.985226
-0.874321
-0.822977
0.476452
2.02608
2.75423
2.55714
1.54174
1.63608
4.85904
7.9389
9.05949
10.2364
13.5245
0.669792
-1.01478
0.135791
-1.37461
8.81264
8.3897
0.871072
-0.175278
1.26006
2.25383
0.109864
-0.61521
-0.881176
-0.898521
-0.933542
-0.96286
-0.908414
-0.645646
-0.879104
-0.973733
-0.984911
-0.997555
-1.00297
-1.02699
-1.05537
-1.05887
-1.04617
-1.04265
-1.05251
-1.04546
-1.02205
-0.991719
-0.960928
-0.935236
-0.915023
-0.868044
-0.736097
-0.0874968
0.586313
1.45782
-0.893859
-1.13328
-1.55573
-1.87769
-1.53477
-1.33278
-1.17992
-1.10883
-1.12351
-1.07548
-1.00286
-1.00813
-1.07242
-1.11126
-1.13144
-1.1421
-1.12419
-1.09969
-1.07229
-1.0389
-1.02339
-1.02768
-1.0259
-1.03853
-1.06606
-1.08347
-1.07433
-1.06393
-1.05427
-1.03613
-1.01218
-0.99081
-0.969712
-0.955795
-0.948614
-0.940943
-0.947251
-0.939727
-0.926598
-0.931371
-1.19341
-1.18683
-1.33466
-1.55149
-1.61515
-1.4255
-1.40808
-1.19032
-1.22536
-1.10349
-0.995923
-1.08618
-0.993537
-1.04302
-1.11864
-1.16168
-1.17861
-1.1609
-1.12663
-1.08199
-1.05381
-1.04136
-1.03826
-1.04376
-1.05769
-1.06574
-1.06584
-1.05993
-1.04938
-1.04297
-1.02764
-1.01011
-0.995499
-0.980775
-0.970107
-0.963407
-0.955529
-0.945752
-0.936082
-0.933966
-0.828353
-0.971362
-1.13676
-1.23661
-1.23726
-1.20424
-1.14139
-1.12456
-1.06359
-1.03152
-1.08851
-1.06926
-1.08682
-1.13627
-1.18414
-1.21113
-1.1891
-1.15292
-1.14347
-1.11749
-1.09092
-1.08303
-1.07864
-1.05842
-1.06238
-1.06816
-1.06898
-1.06576
-1.07185
-1.06265
-1.05113
-1.03857
-1.02259
-1.00485
-0.982236
-0.967044
-0.961501
-0.951216
-0.940686
-0.934252
-1.06723
-1.10802
-1.16254
-1.19661
-1.20172
-1.2012
-1.21312
-1.15401
-1.16829
-1.17681
-1.16653
-1.16658
-1.17553
-1.17595
-1.1755
-1.16153
-1.14139
-1.13869
-1.1395
-1.11837
-1.08625
-1.11782
-1.1032
-1.10192
-1.10046
-1.10009
-1.09966
-1.09809
-1.09216
-1.08975
-1.08021
-1.06931
-1.05372
-1.03495
-1.00691
-0.983123
-0.972971
-0.959403
-0.949462
-0.941177
-1.28623
-1.27869
-1.22956
-1.18614
-1.16178
-1.14956
-1.1468
-1.16106
-1.17616
-1.18869
-1.20538
-1.21923
-1.22409
-1.22249
-1.21789
-1.20716
-1.16767
-1.14887
-1.15132
-1.12749
-1.13813
-1.14768
-1.15866
-1.14032
-1.14912
-1.14921
-1.14038
-1.13256
-1.1247
-1.11496
-1.10294
-1.09366
-1.08019
-1.06459
-1.0457
-1.02749
-1.00825
-0.994321
-0.979875
-0.973692
-1.22018
-1.21517
-1.19381
-1.16644
-1.14196
-1.12573
-1.12525
-1.14463
-1.16989
-1.20055
-1.2295
-1.25573
-1.2727
-1.27585
-1.25754
-1.23825
-1.21209
-1.19501
-1.18619
-1.18418
-1.18627
-1.19576
-1.19375
-1.18693
-1.18456
-1.18152
-1.17709
-1.16592
-1.15516
-1.14596
-1.13488
-1.12121
-1.10867
-1.0964
-1.08219
-1.06574
-1.04961
-1.03534
-1.02005
-1.0157
-1.20924
-1.20242
-1.18571
-1.1678
-1.1536
-1.14875
-1.15462
-1.16804
-1.18819
-1.20675
-1.22857
-1.24823
-1.26282
-1.2692
-1.26619
-1.25665
-1.2528
-1.24473
-1.23995
-1.24319
-1.24824
-1.24182
-1.23337
-1.2258
-1.21937
-1.21348
-1.20745
-1.20131
-1.19077
-1.1796
-1.16976
-1.15899
-1.14552
-1.12581
-1.10584
-1.10759
-1.09532
-1.07917
-1.06796
-1.06383
-1.21181
-1.20243
-1.19667
-1.18522
-1.17653
-1.17449
-1.17716
-1.18951
-1.20185
-1.2171
-1.23235
-1.24332
-1.25293
-1.26217
-1.26969
-1.27733
-1.29013
-1.27109
-1.30297
-1.29738
-1.29036
-1.28095
-1.27065
-1.26076
-1.25308
-1.24591
-1.23737
-1.23105
-1.22512
-1.21624
-1.20896
-1.20102
-1.19273
-1.18544
-1.17632
-1.16982
-1.15385
-1.13545
-1.12191
-1.11655
-1.22249
-1.21765
-1.20969
-1.2021
-1.19731
-1.19608
-1.2009
-1.20917
-1.21889
-1.22981
-1.2404
-1.24936
-1.25898
-1.26839
-1.27943
-1.29466
-1.31327
-1.30866
-1.33183
-1.32737
-1.32409
-1.32136
-1.31301
-1.30574
-1.2966
-1.28746
-1.27763
-1.27125
-1.26443
-1.25332
-1.2487
-1.2423
-1.23913
-1.24
-1.23935
-1.23621
-1.21259
-1.19304
-1.17844
-1.17264
-1.23251
-1.23118
-1.22739
-1.22423
-1.21919
-1.217
-1.21946
-1.22864
-1.24481
-1.25696
-1.26768
-1.27555
-1.28797
-1.28689
-1.3073
-1.34161
-1.35106
-1.36711
-1.37568
-1.37861
-1.37836
-1.35867
-1.35719
-1.35799
-1.34516
-1.33293
-1.32164
-1.30327
-1.30131
-1.28802
-1.28389
-1.27818
-1.26678
-1.28839
-1.28476
-1.27388
-1.25608
-1.23962
-1.22452
-1.21974
-1.25481
-1.256
-1.2543
-1.24969
-1.24356
-1.24719
-1.2526
-1.26058
-1.27544
-1.28461
-1.29635
-1.31354
-1.33182
-1.35554
-1.38317
-1.39916
-1.41613
-1.42708
-1.44045
-1.44453
-1.44573
-1.44205
-1.43288
-1.4247
-1.40331
-1.38512
-1.37536
-1.35012
-1.34492
-1.32973
-1.3232
-1.28162
-1.31828
-1.31126
-1.30418
-1.29551
-1.28056
-1.2655
-1.25716
-1.24866
-1.28514