/*--------------------------------*- C++ -*----------------------------------*\
  =========                 |
  \\      /  F ield         | OpenFOAM: The Open Source CFD Toolbox
   \\    /   O peration     | Website:  https://openfoam.org
    \\  /    A nd           | Version:  8
     \\/     M anipulation  |
\*---------------------------------------------------------------------------*/
FoamFile
{
    version     2.0;
    format      ascii;
    class       volScalarField;
    location    "7.1";
    object      p;
}
// * * * * * * * * * * * * * * * * * * * * * * * * * * * * * * * * * * * * * //

dimensions      [1 -1 -2 0 0 0 0];

internalField   nonuniform List<scalar> 
9150
(
-204.413
-205.416
-206.068
-206.536
-206.769
-206.759
-206.518
-206.063
-205.423
-204.42
-224.476
-224.983
-225.416
-225.737
-225.902
-225.916
-225.744
-225.419
-224.988
-224.48
-244.369
-244.646
-244.906
-245.127
-245.233
-245.233
-245.119
-244.901
-244.646
-244.371
-264.108
-264.28
-264.45
-264.61
-264.692
-264.683
-264.602
-264.448
-264.279
-264.109
-283.732
-283.907
-284.046
-284.173
-284.236
-284.235
-284.172
-284.044
-283.906
-283.732
-118.616
-119.267
-118.852
-118.491
-118.312
-118.326
-118.528
-118.885
-119.277
-118.628
-133.949
-134.666
-134.782
-134.839
-134.745
-134.753
-134.846
-134.805
-134.672
-133.959
-150.376
-151.136
-151.446
-151.81
-151.877
-151.87
-151.795
-151.453
-151.134
-150.372
-167.212
-168.386
-168.878
-169.483
-169.681
-169.669
-169.481
-168.871
-168.379
-167.211
-184.348
-186.347
-187.13
-187.771
-188.075
-188.079
-187.811
-187.146
-186.361
-184.362
-24.3238
-26.0756
-28.1893
-29.2619
-29.7231
-29.6668
-29.047
-27.9148
-26.0576
-24.4428
-44.8812
-45.251
-46.2946
-46.7147
-47.2135
-47.2333
-46.7785
-46.403
-45.3393
-44.9804
-65.2517
-65.0618
-66.1407
-65.8304
-66.237
-66.2304
-65.7325
-66.1726
-65.1154
-65.3127
-88.0961
-85.192
-86.0932
-84.6649
-84.7507
-84.7681
-84.6879
-86.1556
-85.2181
-88.15
-113.126
-104.069
-103.411
-102.217
-101.748
-101.725
-102.18
-103.403
-104.066
-113.139
1358.05
1356.14
1353.97
1352.59
1352.28
1353.19
1354.6
1356.17
1357.79
1359.37
1338.47
1337.14
1336.83
1335.01
1333.69
1332.15
1333.06
1334.19
1335.64
1337.99
1320.06
1318.61
1318.83
1319.21
1317.89
1316.64
1315.92
1315.95
1314.59
1316.85
1304.66
1303.51
1303.05
1303.36
1299.03
1296.99
1295.04
1294.04
1295.4
1293.94
1286.94
1285.3
1286.93
1286.5
1281.17
1278.37
1275.67
1274.01
1272.67
1272.19
1268.1
1267.43
1266.75
1265.08
1262.43
1260.05
1257.58
1256.17
1255.69
1256.13
1248.94
1248.09
1246.97
1245.27
1243.35
1241.47
1239.75
1239.73
1240.47
1240.31
1230.12
1229.08
1227.78
1226.3
1224.49
1222.67
1221.26
1220.92
1220.62
1222.39
1211.17
1210.49
1209.66
1208.47
1206.8
1204.99
1203.37
1202.18
1201.36
1201.29
1194.35
1193.05
1192.35
1191.34
1190.11
1188.71
1187.15
1185.82
1184.99
1184.59
1174.83
1174.28
1174.36
1174.12
1173.54
1172.42
1171.08
1169.93
1169.08
1168.65
1155.98
1156.03
1156.12
1155.94
1155.62
1155.02
1154.19
1153.45
1152.9
1152.54
1136.43
1136.58
1136.59
1136.59
1136.65
1136.4
1136.01
1135.88
1135.72
1135.8
1118.29
1118.16
1118.11
1118.13
1118.24
1118.37
1118.24
1118.13
1118.1
1118.23
1100.82
1100.65
1100.45
1100.36
1100.43
1100.31
1100.2
1100.03
1099.86
1099.89
1082.48
1082.31
1082.21
1082.28
1082.32
1082.08
1081.86
1081.69
1081.52
1081.31
1063.74
1063.79
1063.87
1063.91
1063.79
1063.69
1063.51
1063.32
1063.06
1062.93
1045.63
1045.5
1045.21
1045.07
1044.82
1044.51
1044.16
1044.2
1044.3
1044.36
1026.85
1026.63
1026.33
1025.62
1025.67
1025.26
1025.06
1025.04
1025.15
1025.31
1007.77
1008.47
1008.37
1008.23
1008
1007.93
1007.6
1006.75
1006.73
1007.05
988.259
988.353
988.333
988.309
988.37
988.418
988.468
988.577
988.902
989.142
968.216
968.502
968.574
968.762
968.893
968.908
969.129
969.161
969.343
969.543
948.747
948.95
948.624
949.309
949.426
949.736
949.929
950.155
950.297
950.486
928.695
929.13
929.568
929.438
930.117
930.58
930.496
931.276
931.014
931.338
907.56
908.314
910.684
910.01
910.401
910.96
911.281
911.715
912.213
912.192
887.763
888.928
890.008
890.899
891.51
891.993
892.373
892.964
893.099
893.418
869.312
870.386
871.375
872.145
872.939
873.549
874.148
874.324
874.614
874.783
851.394
852.373
853.35
854.153
854.843
855.449
855.915
856.059
856.045
856.137
834.528
834.806
835.497
836.074
836.558
836.992
837.273
837.269
837.068
836.819
816.476
817.083
817.386
817.567
817.914
818.067
818.063
817.884
817.52
817.142
798.574
799.602
799.938
799.308
799.186
799.009
798.67
798.182
797.702
797.723
782.135
782.026
781.718
781.264
780.876
780.335
779.681
779.174
778.977
779.359
764.942
764.523
763.998
763.554
763.09
762.475
761.871
762.077
761.746
760.974
744.181
744.727
744.885
745.293
745.402
745.203
745.174
744.924
743.9
742.55
727.889
725.729
726.241
727.543
728.282
728.51
728.42
728.165
726.638
724.772
710.108
709.547
709.236
709.622
710.297
710.461
710.24
709.67
708.215
706.354
692.885
693.127
693.203
692.486
692.791
693.177
692.314
691.129
689.392
687.596
676.009
676.425
677.279
676.012
674.101
675.124
674.206
672.361
670.453
668.593
661.567
657.783
663.264
660.594
656.03
657.027
655.368
652.255
651.423
649.489
639.634
637.336
637.134
636.583
637.841
635.92
640.253
635.018
632.926
631.364
618.83
617.486
616.168
615.959
616.192
614.634
617.623
616.611
614.8
613.318
596.633
595.214
594.227
593.749
593.793
594.286
596.246
596.287
595.628
594.424
574.335
572.934
572.149
572.102
572.661
574.69
576.067
576.678
576.36
575.067
553.119
552.188
552.146
552.638
553.725
556.535
558.714
559.552
558.631
556.846
533.8
534.239
535.319
536.842
538.327
539.47
541.856
541.611
541.221
540.3
519.068
520.504
521.829
522.761
524.637
526.474
527.603
528.515
528.571
527.673
503.681
505.602
507.184
509.231
511.38
512.915
514.934
516.791
517.693
517.23
485.095
487.84
490.63
494.228
497.504
500.568
503.64
505.885
507.678
508.505
463.753
469.138
470.975
476.151
480.917
485.233
489.818
494.572
497.131
499.203
447.663
449.538
451.615
455.883
461.152
466.976
473.78
481.415
486.76
489.965
428.918
430.77
431.666
434.766
441.625
448.63
459.752
464.86
468.499
473.69
413.473
417.378
420.843
424.683
428.64
433.496
434.663
438.568
448.712
460.076
388.646
385.457
403.246
394.247
396.057
397.671
400.651
408.878
422.113
434.958
358.351
362.891
371.035
371.301
373.028
372.31
373.647
380.619
390.212
400.152
357.982
351.72
352.519
349.697
348.6
349.132
351.419
355.961
359.925
362.566
330.041
340.453
333.892
330.271
328.438
328.561
330.247
331.252
331.564
332.382
315.97
317.777
324.765
313.871
315.603
313.617
312.808
311.199
307.973
302.993
299.737
299.443
303.887
295.019
292.608
285.377
287.869
288.352
286.641
284.212
281.825
278.015
276.167
270.754
264.163
257.42
258.797
259.501
262.603
261.817
264.2
258.882
251.816
245.903
234.47
226.161
220.408
222.512
230.675
235.049
253.397
241.202
240.97
233.77
215.708
203.864
196.893
203.128
213.595
220.935
254.537
242.576
240.823
239.186
227.439
220.416
213.163
210.177
211.636
211.699
245.514
259.641
251.507
261.949
250.37
241.325
230.868
222.208
215.766
208.696
255.671
269.512
262.834
264.707
258.219
243.721
238.47
227.29
210.298
200.335
268.345
272.911
272.403
269.475
262.392
242.501
225.023
210.144
197.243
188.225
258.957
267.788
269.118
265.477
247.198
227.085
209.229
194.415
180.536
170.009
249.938
259.51
263.091
250.751
222.633
198.869
184.134
176.531
161.435
154.429
241.129
247.219
240.785
224.397
190.42
163.162
164.708
158.63
145.781
141.724
206.071
213.541
202.065
178.379
152.28
142.727
144.406
141.552
137.224
130.8
152.857
161.973
153.581
140.555
131.295
128.391
129.559
128.872
134.217
129.596
104.939
111.499
114.245
113.393
117.901
120.981
125.541
128.141
129.429
128.46
68.3459
70.1766
77.6816
89.8074
107.704
118.827
123.722
127.34
129.339
128.59
46.3914
46.4379
59.0861
77.6663
101.44
121.411
121.054
123.271
124.413
123.821
50.9758
60.2039
60.795
88.1309
100.899
122.259
127.073
115.721
117.075
114.586
52.3209
63.0659
56.5449
74.9253
103.033
115.21
145.99
113.911
111.848
106.534
54.3285
49.74
69.2729
65.5663
99.1258
102.135
142.355
107.64
108.511
101.107
46.7404
43.0146
57.4865
57.1494
85.8901
99.9905
99.1417
99.4337
89.162
85.7737
36.3633
36.3754
45.0656
51.9902
75.5928
73.7931
59.6108
67.8371
62.1481
57.0703
36.3649
44.6226
32.901
49.6315
52.2112
50.1867
43.5875
46.0609
45.0559
42.2885
25.7036
25.9457
25.9591
40.9811
46.7537
46.2165
39.4254
40.6367
38.8425
36.905
16.898
13.1165
39.9462
34.6691
51.5404
47.7426
31.8057
34.0194
33.3734
32.3388
12.7309
10.9465
18.4822
14.5626
49.4808
38.8633
30.2343
25.9357
26.875
27.8128
0.280409
-0.849264
-2.41738
3.90639
39.6338
32.5539
35.011
24.6785
26.7764
26.0718
-2.49135
-4.27197
-2.31848
-4.53977
31.0112
26.8052
25.9227
12.7948
16.3366
15.0081
-1.82194
-1.79296
-3.3679
-5.70777
21.9169
21.0441
3.05073
-3.96638
1.38809
2.42157
-1.71262
-1.64552
-1.63031
-3.09566
18.8241
15.801
-5.67386
-3.71882
-2.89337
-1.80387
-1.73238
-1.72388
-1.68043
-2.43622
20.4067
11.284
-5.1288
-1.53318
-1.6189
-1.70842
-1.77538
-1.77856
-1.77294
-1.84155
15.5389
14.4488
-3.03937
-1.71855
-1.73111
-1.74011
-1.77509
-1.77434
-1.77219
-1.80454
8.86044
18.634
-1.76444
-1.75031
-1.74197
-1.74664
-1.79497
-1.79531
-1.80038
-1.8741
11.8916
12.5992
-1.81118
-1.75528
-1.75034
-1.7511
-1.80845
-1.81224
-1.81839
-1.89138
12.8576
5.71487
-1.85987
-1.77504
-1.77714
-1.77783
-1.82234
-1.8258
-1.81716
-2.03248
7.69675
7.13587
-2.05853
-1.80141
-1.80835
-1.80763
-1.84062
-1.83969
-1.84574
-2.27144
6.10362
4.80749
-2.26593
-1.8219
-1.82575
-1.82725
-1.86091
-1.86005
-1.93557
-1.86789
2.76614
3.14455
-2.30769
-1.90711
-1.84008
-1.83948
-1.88077
-1.8816
-2.05395
-1.77655
0.535308
1.47224
-1.58622
-1.99178
-1.8476
-1.84818
-1.89723
-1.89738
-2.20671
-1.35078
-0.390305
0.190153
-1.48182
-2.2662
-1.85581
-1.85808
-1.91045
-1.90994
-3.22754
-2.04293
-0.917693
-0.760926
-1.54413
-3.13814
-1.86025
-1.87365
-1.92482
-2.25432
-4.27342
-2.22441
-1.54225
-1.95125
-3.07646
-4.58048
-2.43596
-1.908
-1.94668
-4.00401
-5.73391
-5.88141
-5.79427
-5.57317
-5.30768
-5.17643
-3.93963
-1.94043
-2.69752
-9.44411
-12.6514
-14.4433
-15.2636
-15.3734
-14.8922
-13.1495
-9.76544
-2.83005
1360.94
1362.26
1363.83
1365.83
1367.91
1369.88
1371.91
1373.81
1376.42
1377.71
1381.51
1381.93
1382.43
1382.64
1382.91
1383.04
1383.43
1383.76
1384.1
1384.43
1384.75
1385.02
1385.24
1385.28
1384.87
1384.78
1384.61
1384.52
1384.7
1385.06
1385.69
1386.32
1386.74
1387.02
1387.21
1387.3
1387.35
1387.45
1387.45
1387.61
1340.42
1341.79
1343.62
1345.47
1347.51
1349.73
1352.22
1353.44
1355.04
1356.27
1363.18
1361.1
1361.67
1362.28
1362.85
1363.26
1363.72
1364.11
1364.47
1364.83
1365.11
1365.25
1365.43
1365.39
1365.08
1364.79
1364.44
1364.07
1364.02
1364.39
1364.93
1365.46
1365.95
1366.56
1366.84
1367.16
1367.56
1367.84
1368.05
1368.12
1318.88
1321.05
1323.3
1325.12
1326.97
1329.12
1331.37
1333.29
1334.42
1335.62
1342.21
1341.47
1341.15
1342.2
1342.91
1343.87
1343.88
1344.21
1344.6
1344.94
1345.17
1345.18
1345.06
1345.05
1344.5
1344.41
1344.16
1343.8
1343.64
1343.74
1344.32
1345.02
1346.4
1347.43
1347.39
1347.76
1348.4
1348.63
1349.08
1349.16
1297.51
1299.63
1301.11
1303.61
1306.03
1308.59
1311.06
1313.17
1314.87
1317.1
1320.11
1320.88
1321.31
1322.43
1323.12
1324.25
1324.31
1324.43
1324.69
1324.93
1325.1
1325.18
1325.05
1324.76
1324.46
1324.25
1324.18
1323.99
1324
1324.16
1324.49
1325.2
1326.42
1327.01
1327.47
1328.11
1329.36
1329.4
1330.21
1330.25
1274.32
1278.15
1279.95
1282.63
1285.18
1287.9
1290.67
1293.11
1295.88
1299.31
1300.84
1301.6
1302.49
1303.43
1304.28
1304.61
1304.71
1304.65
1304.69
1304.77
1304.94
1305.08
1304.96
1304.73
1304.32
1304.91
1303.97
1304.24
1304.58
1304.75
1305
1305.62
1306.43
1307.46
1307.56
1307.44
1308.6
1309.42
1309.53
1310.14
1257.6
1260.11
1261.13
1262.88
1265.03
1267.54
1270.26
1273.24
1278.05
1281.67
1280.36
1281.92
1283.23
1284.36
1284.62
1285.04
1285.02
1284.73
1284.37
1284.02
1284.72
1285.29
1285.46
1285.44
1284.98
1285.7
1285.24
1284.41
1285.66
1285.8
1286.35
1286.75
1287.67
1288.54
1286.72
1287.57
1286.82
1288.25
1289.03
1289.43
1241.05
1242.46
1242.58
1244.02
1245.99
1248.34
1250.84
1253.36
1256.37
1258.41
1260.44
1262.08
1263.52
1264.38
1265.03
1265.45
1265.39
1264.88
1264.35
1265.65
1265.85
1265.74
1265.65
1265.73
1266.22
1265.93
1265.55
1265.19
1266.23
1267.04
1267.51
1267.89
1268.49
1268.35
1267.89
1269.62
1267.92
1269.38
1269.73
1269.94
1224.65
1221.4
1222.98
1225.01
1227.33
1229.78
1232.25
1234.73
1237.26
1239.16
1240.81
1242.57
1243.9
1245.01
1245.64
1245.95
1246.03
1246
1246.11
1247.44
1247.99
1248.15
1248.12
1248.12
1248.23
1247.95
1247.04
1247.13
1247.81
1248.4
1248.7
1248.76
1249.14
1249.96
1252.59
1252.03
1250.83
1250.94
1250.76
1250.81
1201.69
1202.51
1204.11
1206.14
1208.6
1211.23
1213.79
1216.12
1218.16
1220.41
1222.34
1223.91
1224.84
1225.52
1226.04
1226.34
1226.6
1226.87
1227.25
1227.87
1229.01
1229.07
1228.47
1228.75
1228.87
1228.88
1228.52
1228.84
1229.36
1229.98
1230.94
1231.43
1232.88
1233.84
1234.13
1234.19
1232.66
1232.02
1231.65
1231.56
1184.7
1185.45
1186.89
1188.76
1191.07
1193.46
1195.85
1198.62
1200.59
1202.14
1203.77
1204.93
1206.09
1206.03
1206.49
1206.79
1207.07
1207.35
1207.63
1207.94
1208.45
1208.58
1209.01
1209.29
1209.4
1209.41
1209.42
1209.79
1210.67
1211.56
1212.24
1212.4
1212.11
1212.99
1213.8
1213.41
1213
1212.59
1212.22
1212.26
1168.68
1169.47
1170.84
1172.45
1174.77
1177.11
1179.38
1181.5
1183.03
1184.52
1185.44
1185.95
1186.6
1186.69
1186.93
1187.19
1187.46
1187.71
1188.02
1188.4
1188.81
1188.78
1188.88
1188.93
1189.09
1188.94
1189.22
1189.96
1190.03
1190.99
1191.61
1190.19
1190.51
1190.83
1191.27
1191.26
1191.43
1191.68
1191.87
1192.05
1152.52
1153.76
1155.13
1156.64
1158.36
1160.39
1162.31
1163.85
1165.28
1166.33
1166.81
1167.02
1167.1
1167.2
1167.39
1167.44
1167.65
1167.88
1168.12
1168.45
1168.79
1168.83
1168.54
1168.17
1168.15
1168.39
1168.49
1168.19
1168.17
1169.34
1167.87
1168.2
1168.55
1168.88
1169.21
1170.39
1170.47
1170.24
1170.76
1171.01
1136.09
1136.75
1137.69
1139.39
1140.21
1141.91
1143.82
1145.61
1146.86
1147.69
1147.81
1147.82
1147.7
1147.65
1147.82
1147.87
1147.83
1147.97
1148.14
1148.28
1148.33
1148.07
1147.34
1146.46
1146.07
1148.11
1146.06
1146.02
1145.63
1145.03
1144.97
1145.44
1146.02
1146.64
1147.38
1148.71
1149.05
1149.31
1149.85
1150.07
1118.61
1119.1
1119.73
1120.51
1121.61
1122.79
1124.33
1125.89
1127.12
1127.66
1127.75
1127.71
1127.81
1128
1128.18
1128.46
1128.45
1128.48
1128.53
1128.6
1128.57
1128.21
1127.56
1126.7
1128.43
1129.21
1126.14
1124.82
1122.93
1121.57
1121
1121.44
1122.69
1124.23
1125.68
1127.75
1128.55
1129.15
1129.72
1129.98
1099.89
1100.01
1100.33
1100.81
1102.16
1102.07
1103.36
1104.59
1105.8
1106.35
1106.48
1107.37
1107.64
1108.14
1108.59
1108.8
1108.98
1109.02
1109.06
1109.23
1109.21
1108.9
1108.25
1107.91
1108.34
1108.2
1106.87
1105.54
1104.42
1102.87
1101.58
1100.82
1101.49
1104.32
1105.91
1108.41
1109.4
1109.86
1110.53
1110.87
1081.15
1081.16
1081.51
1081.96
1082.24
1082.7
1083.69
1084.93
1086.08
1087.05
1087.03
1088.38
1088.47
1088.78
1089.22
1089.4
1089.51
1089.55
1089.52
1089.97
1090.68
1090.72
1090.06
1090.07
1090.42
1091.05
1090.92
1090.26
1089.56
1089.17
1089.18
1089.16
1087.26
1088.24
1089.22
1090.93
1091.22
1091.62
1092.2
1092.46
1062.92
1062.58
1063.53
1063.78
1064.1
1064.54
1065.4
1066.53
1067.22
1068.02
1067.95
1068.86
1068.69
1069.11
1069.53
1069.83
1070.22
1070.46
1070.57
1071.57
1071.87
1072.63
1072.76
1073.21
1074.58
1075.23
1075.68
1075.93
1075.98
1076.19
1076.6
1075.98
1073.3
1073.55
1073.23
1073.88
1073.8
1074.15
1074.34
1074.42
1044.4
1044.56
1044.88
1045.17
1046.03
1046.44
1046.46
1047.63
1048.09
1048.1
1048.56
1047.57
1048.88
1049.7
1049.82
1051.07
1051.32
1051.96
1051.91
1052.6
1053.18
1053.62
1054.49
1055.44
1056.59
1057.65
1059.01
1059.37
1058.63
1058.52
1058.54
1058.51
1057.66
1056.98
1056.71
1056.26
1056.34
1056.45
1056.29
1056.3
1025.65
1025.93
1026.22
1026.52
1026.83
1027.17
1027.59
1028.08
1028.4
1028.65
1028.65
1028.92
1029.27
1030.08
1030.94
1031.4
1032.2
1032.79
1033.36
1033.7
1034.2
1034.63
1035.28
1036
1036.8
1037.43
1038.2
1038.95
1039.41
1040.03
1040.58
1040.57
1039.99
1039.38
1038.72
1038.31
1038.1
1038.21
1037.88
1037.92
1007.21
1007.46
1007.6
1007.85
1008.07
1008.32
1008.54
1008.87
1009.1
1009.22
1009.68
1010.4
1010.31
1010.26
1011.03
1011.73
1012.42
1012.88
1014.23
1014.36
1014.96
1015.45
1015.94
1016.44
1016.97
1017.54
1018.14
1018.74
1019.71
1020.52
1020.84
1020.83
1020.63
1020.2
1019.91
1019.72
1019.5
1019.47
1019.4
1019.49
989.293
989.117
988.917
989.032
989.141
989.362
989.452
989.372
989.291
989.173
989.213
989.159
989.359
989.862
990.444
991.306
992.169
992.982
994.786
994.591
995.342
995.946
996.519
997.128
997.696
998.026
998.109
998.117
998.31
998.444
998.779
999.547
1000.21
1000.65
1000.8
1000.84
1000.75
1000.66
1000.68
1000.79
969.615
969.799
969.896
969.943
969.934
969.919
969.815
969.387
969.135
968.872
968.674
968.6
968.676
969.512
969.663
970.456
971.476
972.437
974.434
974.915
975.76
976.463
977.246
978.148
978.954
979.122
978.72
978.851
979.391
980.105
980.45
980.793
981.428
981.902
982.198
982.34
982.255
982.925
982.361
982.363
950.657
950.777
950.828
950.776
950.61
950.307
949.847
949.326
948.749
948.359
948.316
947.976
947.521
947.677
948.079
949.067
950.675
952.522
954.44
955.903
956.83
957.527
958.243
959.234
960.43
961.036
961.421
962.097
962.978
963.787
964.265
964.104
964.126
964.412
964.332
964.432
964.474
964.772
965.002
964.274
931.58
931.771
931.825
931.659
931.465
931.207
930.658
930.122
929.68
929.004
928.249
927.581
926.642
926.238
926.856
928.414
930.722
933.169
935.195
937.185
938.428
938.907
940.056
941.007
942.088
943.41
945.109
946.722
947.447
948.358
948.933
947.915
947.512
947.33
946.82
946.646
946.644
947.044
946.257
946.255
912.526
912.741
912.802
912.824
912.779
912.936
912.272
911.74
911.37
910.564
909.962
908.726
908.866
908.578
909.6
911.625
913.221
915.869
917.52
919.463
918.95
920.401
920.689
921.839
923.741
925.882
927.94
929.757
930.756
931.238
930.82
930.217
929.618
929.014
928.773
928.996
929.127
928.279
928.126
928.158
893.61
893.67
894.095
894.32
893.975
895.989
894.024
893.169
892.644
892.166
891.502
891.958
891.818
892.214
893.202
894.852
896.614
898.502
899.831
898.954
901.284
900.602
903.16
904.389
905.777
907.4
908.964
910.33
910.804
911.593
911.773
911.241
910.968
910.569
910.344
910.034
909.892
909.318
909.083
909.086
874.914
875.043
875.664
876.224
875.73
878.465
873.925
873.238
873.051
872.738
872.492
872.531
873.25
874.079
874.638
875.04
876.652
877.095
877.747
878.68
880.012
881.063
884.163
885.875
887.179
888.356
888.731
890.332
890.925
891.151
891.299
891.197
891.045
890.82
890.669
890.446
890.181
889.863
889.632
889.584
856.066
856.025
856.557
856.68
856.358
859.17
853.404
853.213
853.123
852.83
852.718
852.785
852.948
853.111
853.705
854.375
855.081
855.824
856.695
857.749
858.838
860.005
861.678
863.845
865.126
866.569
868.06
869.263
869.927
870.299
870.448
870.432
870.431
870.437
870.419
870.35
870.213
870.191
870.136
870.092
836.589
836.432
836.231
835.789
835.74
835.732
833.487
833.152
832.607
832.406
832.426
832.492
832.515
832.615
832.882
833.268
833.758
834.295
835.031
835.99
837.121
838.435
839.867
841.318
842.802
844.342
845.757
846.86
847.649
848.204
848.64
849.027
849.341
849.551
849.703
849.9
850.272
850.531
850.654
850.714
816.736
816.312
815.867
815.588
815.883
815.065
813.962
812.98
811.553
811.378
811.648
811.765
811.719
811.74
811.731
811.801
812.028
812.359
812.935
813.751
814.84
815.956
817.3
818.707
820.099
821.47
822.756
823.877
824.878
825.815
826.667
827.337
827.868
828.388
828.999
829.674
830.232
830.683
831.035
831.403
797.464
796.837
796.182
796.102
796.355
795.656
794.762
793.824
792.037
791.597
791.339
791.049
790.738
790.442
790.136
789.925
789.914
790.105
790.535
791.218
792.129
793.197
794.492
795.949
797.415
798.884
800.332
801.689
803.001
804.281
805.465
806.333
807.011
807.61
808.129
808.786
809.674
810.525
811.136
811.764
777.843
777.569
777.147
776.702
776.426
776.907
776.113
773.87
771.712
770.889
770.259
769.683
769.079
768.56
768.041
767.684
767.517
767.567
767.795
768.273
769.106
770.206
771.555
773.078
774.702
776.4
778.034
779.751
781.522
783.03
784.325
785.145
785.712
786.318
787.131
788.155
789.2
790.29
791.072
791.502
759.568
758.527
757.52
756.608
755.533
754.691
753.589
751.928
750.801
749.739
748.691
747.63
746.861
746.093
745.381
744.729
744.251
744.078
744.248
744.593
745.31
746.238
747.612
749.427
751.304
753.349
755.785
758.929
760.57
761.593
762.798
763.513
763.836
764.404
765.653
767.373
768.942
770.404
771.165
771.18
741.048
739.377
737.655
736.361
735.021
733.62
732.164
730.626
729.042
727.925
726.556
725.173
723.994
722.705
721.519
720.725
719.955
719.333
719.056
719.153
719.574
720.639
722.662
724.65
726.663
729.548
732.458
735.14
737.71
739.213
741.131
741.879
742.11
743.867
746.146
747.452
749.288
751.426
752.53
753.004
722.787
720.771
718.429
716.153
714.46
712.721
710.919
708.955
706.968
705.059
703.275
701.679
700.069
698.593
696.995
695.715
694.3
693.144
692.288
691.824
691.896
692.622
694.291
696.455
698.532
701.931
705.046
709.046
712.26
715.575
717.654
719.331
723.016
726.836
729.483
731.377
731.62
732.49
733.953
735.694
704.303
701.899
699.134
696.533
694.336
691.95
689.491
686.774
684.186
681.586
679.114
676.955
674.839
672.316
670.317
668.263
666.258
664.138
661.91
660.176
659.099
659.329
660.617
663.342
666.093
669.145
676.962
677.967
683.994
689.509
693.993
698.898
704.189
708.214
711.215
713.292
714.508
715.526
717.459
718.68
685.644
682.668
679.903
676.961
673.965
670.916
667.538
664.005
660.566
657.291
653.931
650.558
647.136
644.037
640.714
637.945
633.296
629.525
625.808
622.1
619.349
619.153
621.207
625.912
630.797
636.073
643.323
648.152
654.494
661.172
669.263
676.716
683.622
690.288
694.379
695.761
698.846
700.29
700.355
701.22
668.473
663.818
660.409
657.09
653.562
649.654
645.373
641.045
636.614
632.172
627.576
622.536
617.061
611.719
607.691
603.391
597.669
592.475
587.47
582.758
577.834
580.589
580.327
583.42
591.92
598.1
607.016
615.854
624.501
633.738
643.474
654.285
664.159
671.229
677.423
682.88
683.226
685.166
687.107
687.982
647.453
645.346
641.13
637.6
633.481
628.78
623.248
617.335
611.431
605.485
599.335
592.597
586.082
581.448
571.868
565.907
559.997
553.986
547.896
540.711
534.462
535.11
537.431
536.353
543.581
552.954
564.773
576.679
590.67
603.587
616.293
628.366
640.289
653.962
662.01
666.817
674.242
675.029
675.203
677.184
629.051
626.202
622.641
618.513
613.385
607.41
600.315
593.026
586.377
579.573
572.074
564.091
558.984
548.264
537.873
530.736
524.647
517.492
508.981
500.67
497.848
496.505
493.511
494.589
499.258
505.655
516.288
533.649
555.234
572.408
589.876
604.983
618.414
630.455
644.829
652.348
656.626
663.903
663.767
668.92
611.113
608.094
604.159
599.028
592.435
588.047
577.118
568.977
561.375
554.024
546.161
538.399
532.25
520.198
506.623
500.804
495.696
489.213
486.402
484.735
481.81
478.457
477.605
480.334
485.276
490.497
494.717
504.993
526.209
547.062
564.529
582.069
597.174
610.845
625.384
636.198
641.878
646.522
652.667
650.959
592.17
588.842
584.685
579.46
573.473
566.549
554.834
545.002
536.381
529.568
522.823
515.383
506.343
495.259
483.227
477.324
476.299
477.041
476.873
477.014
476.345
475.498
476.021
477.54
479.536
481.707
484.344
490.043
502.765
522.97
540.658
557.294
573.304
586.372
597.219
607.676
616.639
623.823
628.406
631.206
572.87
569.365
564.751
559.432
553.269
544.257
534.16
523.363
512.523
504.402
499.149
493.992
487.146
477.193
470.397
467.437
466.199
466.436
466.308
466.654
467.348
468.135
468.944
470.673
472.969
475.508
478.228
482.065
487.962
504.608
519.684
533.405
546.473
556.09
570.558
576.568
581.033
592.353
594.144
601.11
554.742
551.112
546.793
541.856
535.956
526.95
516.965
505.554
494.913
487.1
482.323
476.645
470.025
464.731
461.973
459.209
456.727
455.762
456.487
457.975
459.783
461.107
462.844
465.076
467.391
469.696
472.017
475.557
480.039
491.078
502.4
512.123
520.998
528.028
538.937
548.407
543.156
558.117
559.272
565.936
538.928
536.34
532.095
526.626
519.88
511.504
502.339
491.479
480.278
473.37
468.709
461.303
459.696
460.963
457.613
453.748
450.722
450.859
452.069
452.774
457.943
461.499
458.537
461.558
463.961
465.963
467.562
470.531
474.443
480.019
486.028
489.208
491.59
493.663
501.701
508.407
511.68
526.265
524.793
532.587
526.152
523.654
519.979
515.158
508.543
499.499
488.233
478.406
464.101
456.479
453.836
449.792
453.252
455.483
452.845
451.026
450.287
450.795
451.446
450.824
467.11
468.661
459.271
460.452
462.502
464.211
465.302
466.914
469.494
470.65
470.941
468.195
466.041
466.703
469.269
476.353
481.737
493.685
494.332
500.286
515.971
513.824
510.347
505.562
499.682
491.638
480.737
468.651
456.373
445.535
439.73
438.283
448.605
442.593
444.359
442.81
440.482
437.377
438.064
442.482
449.521
456.369
457.14
459.203
461.864
464.258
466.463
469.811
473.787
473.408
470.386
463.709
461.004
456.09
453.173
453.193
464.821
464.585
481.045
481.53
507.69
505.776
502.345
497.635
492.4
485.851
477.304
467.465
456.77
446.489
441.375
443.385
435.995
435.392
433.116
429.093
426.817
424.657
423.933
427.144
434.445
444.848
452.792
457.358
461.207
464.975
468.99
476.034
483.692
485.127
484.175
477.981
465.914
461.188
457.977
458.445
452.661
463.94
468.435
479.117
499.714
498.331
495.571
491.047
485.3
478.454
470.804
462.228
452.471
442.495
435.209
430.796
426.206
423.52
419.609
414.489
409.926
406.419
407.032
413.799
425.104
437.164
448.386
456.075
461.129
464.866
468.879
479.454
490.492
495.732
501.78
493.275
485.691
477.82
469.66
466.532
467.241
469.6
469.923
474.466
491.488
491.847
489.98
485.133
477.997
470.179
461.824
452.977
443.444
434.285
426.523
420.756
416.452
412.644
409.751
407.746
404.772
409.148
415.042
411.709
422.827
436.095
444.578
454.315
465.071
464.099
469.068
477.688
481.165
496.457
497.333
498.999
489.279
482.248
473.582
472.043
471.696
471.044
472.532
470.481
482.169
487.419
484.285
478.737
469.829
460.263
450.638
441.225
431.747
422.52
414.554
409.119
406.662
403.32
403.139
403.713
404.456
406.912
410.637
410.711
417.444
428.325
438.305
448.893
472.608
457.474
471.403
478.046
481.33
482.049
477.154
483.811
473.665
469.202
466.342
467.057
464.1
461.79
461.867
460.299
471.482
478.771
477.307
471.516
462.006
451.16
440.647
430.114
419.283
408.57
396.684
396.869
394.844
394.563
394.789
395.565
396.012
395.988
397.447
402.692
410.517
419.26
427.595
435.83
446.068
454.622
462.712
464.802
495.601
474.289
474.999
464.376
461.327
457.784
454.256
452.464
452.029
450.209
450.252
449.239
444.117
448.431
447.996
443.214
434.083
425.999
417.735
407.925
402.75
396.8
392.419
387.015
382.977
381.172
377.057
376.374
377.141
379.322
383.269
389.048
396.984
406.864
416.511
425.572
434.664
442.322
448.583
458.992
469.439
451.497
457.642
451.504
447.822
445.301
442.872
440.86
440.087
438.902
436.769
437.064
405.133
403.865
400.652
396.236
394.06
386.502
380.433
379.222
376.853
370.973
362.852
358.384
355.747
357.422
356.548
355.248
355.307
356.695
359.997
365.151
372.903
382.891
393.977
406.173
415.321
420.858
423.1
437.931
439.338
437.751
437.412
433.203
430.8
432.015
430.001
427.563
425.474
423.311
420.565
420.431
363.461
362.315
360.426
360.359
360.368
358.124
352.987
344.3
345.946
336.017
338.717
339.145
332.609
332.656
331.034
329.124
328.454
329.537
331.559
332.436
338.199
349.142
360.931
372.432
386.911
395.344
398.752
410.906
413.618
413.818
412.413
410.632
409.582
418.053
414.005
410.858
408.771
405.125
403.906
403.235
330.822
329.939
330.481
331.332
330.701
328.695
325.013
320.313
315.942
313.453
314.154
315.569
312.565
310.502
306.69
298.997
297.937
300.451
302.982
301.333
308.688
315.035
324.698
337.356
352.465
366.305
374.667
385.35
389.424
385.509
386.808
387.023
388.248
397.574
392.749
390.328
388.061
385.5
384.228
382.894
299.772
301.928
305.786
306.336
308.186
306.661
302.39
296.154
298.674
288.352
290.503
286.299
282.86
287.704
284.573
283.165
283.051
283.835
283.427
282.671
285.192
290.259
297.702
306.597
324.392
335.492
349.388
363.45
353.083
357.735
361.067
363.382
365.967
368.013
367.467
367.229
364.801
361.39
358.914
359.665
283.853
282.402
283.795
279.608
274.189
270.789
268.666
267.297
267.101
267.118
269.286
270.773
268.265
263.874
263.101
265.419
266.643
265.733
263.296
265.779
266.457
266.492
269.999
279.445
287.992
302.175
318.928
327.964
331.101
333.192
335.473
337.957
338.723
336.683
336.628
335.589
332.491
326.793
325.161
330.201
263.015
258.43
253.431
245.363
233.384
222.552
219.165
239.767
247.626
247.434
241.711
241.359
242.592
243.753
243.44
239.353
241.106
244.261
243.602
242.095
241.579
241.852
241.035
248.459
254.847
278.028
288.419
294.154
299.31
303.512
306.927
308.062
307.736
305.559
304.04
303.698
302.38
305.51
308.001
307.353
237.565
233.561
225.206
216.089
200.987
200.917
214.142
205.889
203.049
211.63
214.469
214.594
216.06
218.31
221.925
222.991
221.275
217.859
216.391
214.465
213.925
213.879
214.765
219.848
236.793
242.17
255.442
263.179
268.771
273.964
279.141
281.814
283.158
282.824
283.033
284.269
287.183
288.834
289.492
285.924
217.33
209.989
203.693
191.073
182.912
184.409
185.881
182.895
177.668
172.624
178.653
184.422
188.552
192.748
197.856
199.303
199.365
195.617
190.713
187.814
185.907
183.335
185.533
206.845
211.038
216.671
225.662
234.841
241.539
248.471
254.113
258.136
262.036
264.008
265.067
267.017
270.625
273.779
274.727
273.929
207.827
198.687
188.386
174.409
168.463
168.32
167.361
164.131
155.447
142.063
137.141
154.966
162.948
170.904
174.635
180.912
177.119
175.441
168.395
163.537
160.342
158.229
165.683
176.97
181.354
191.37
199.751
208.183
213.643
219.818
224.805
230.504
236.776
241.236
241.632
245.717
247.56
255.721
256.854
259.25
201.541
189.724
178.768
167.125
156.233
155.674
154.749
153.231
148.791
144.227
143.284
147.334
152.707
156.612
158.488
162.753
164.985
163.603
157.349
150.952
147.977
147.937
155.384
161.549
164.39
168.262
177.651
182.764
183.233
184.49
188.054
194.11
204.34
204.888
210.478
215.826
220.829
228.705
234.079
244.243
190.408
178.769
169.273
160.444
149.55
149.086
149.813
150.618
150.555