/*--------------------------------*- C++ -*----------------------------------*\
  =========                 |
  \\      /  F ield         | OpenFOAM: The Open Source CFD Toolbox
   \\    /   O peration     | Website:  https://openfoam.org
    \\  /    A nd           | Version:  8
     \\/     M anipulation  |
\*---------------------------------------------------------------------------*/
FoamFile
{
    version     2.0;
    format      ascii;
    class       volVectorField;
    location    "1.25";
    object      U;
}
// * * * * * * * * * * * * * * * * * * * * * * * * * * * * * * * * * * * * * //

dimensions      [0 1 -1 0 0 0 0];

internalField   nonuniform List<vector> 
9150
(
(0.00500155 -0.0779629 0)
(0.0129948 -0.097481 0)
(0.010876 -0.104084 0)
(0.00848804 -0.107974 0)
(0.00212888 -0.109254 0)
(-0.00221656 -0.109166 0)
(-0.00827991 -0.10799 0)
(-0.0108368 -0.104152 0)
(-0.0129937 -0.0974735 0)
(-0.00500694 -0.0779702 0)
(0.00600578 -0.0921027 0)
(0.00860462 -0.100532 0)
(0.00728033 -0.102247 0)
(0.00456056 -0.104146 0)
(0.00180571 -0.105399 0)
(-0.00238805 -0.105122 0)
(-0.0045163 -0.104104 0)
(-0.0072404 -0.102311 0)
(-0.00858956 -0.100501 0)
(-0.00600797 -0.0920942 0)
(0.00180984 -0.0954924 0)
(0.00459124 -0.0990039 0)
(0.00368108 -0.101035 0)
(0.00332893 -0.101665 0)
(0.00104846 -0.102287 0)
(-0.000476602 -0.102652 0)
(-0.002865 -0.102102 0)
(-0.00377946 -0.10085 0)
(-0.00459701 -0.0990029 0)
(-0.00181264 -0.0954909 0)
(0.00178312 -0.0984524 0)
(0.00248795 -0.100402 0)
(0.00212288 -0.100402 0)
(0.0012167 -0.100845 0)
(0.00066344 -0.100823 0)
(-0.000777918 -0.100825 0)
(-0.00160789 -0.100434 0)
(-0.0022031 -0.100289 0)
(-0.00250095 -0.10042 0)
(-0.00178172 -0.0984555 0)
(0.000200071 -0.0995 0)
(0.000737988 -0.099563 0)
(0.000507865 -0.0998671 0)
(0.000537881 -0.0999374 0)
(0.000122551 -0.100115 0)
(-0.000186992 -0.100068 0)
(-0.00052833 -0.100023 0)
(-0.000448714 -0.0999876 0)
(-0.000734333 -0.0995713 0)
(-0.000197932 -0.0995004 0)
(0.0770867 -0.195278 1.52134e-26)
(0.0494993 -0.185619 0)
(0.0316615 -0.17724 0)
(0.0164042 -0.174858 0)
(0.00446357 -0.176193 0)
(-0.00497116 -0.175898 0)
(-0.0165822 -0.174541 0)
(-0.0317373 -0.176978 0)
(-0.0496219 -0.185523 0)
(-0.0771067 -0.195221 -1.5325e-26)
(0.058459 -0.146252 4.18419e-27)
(0.0481046 -0.146457 0)
(0.0279084 -0.156384 0)
(0.0200448 -0.157407 0)
(0.00383956 -0.155751 0)
(-0.00464401 -0.155972 0)
(-0.0204365 -0.157338 0)
(-0.028087 -0.15641 0)
(-0.0482319 -0.146575 0)
(-0.0585366 -0.146356 -4.24808e-27)
(0.047836 -0.121633 2.05161e-27)
(0.041924 -0.131465 0)
(0.0297653 -0.13405 0)
(0.017993 -0.137159 0)
(0.00543309 -0.140378 0)
(-0.00647088 -0.140595 0)
(-0.0183346 -0.137536 0)
(-0.0299608 -0.13447 0)
(-0.0419488 -0.131583 0)
(-0.0478651 -0.121665 -2.13742e-27)
(0.0375315 -0.0996021 2.94406e-27)
(0.0388552 -0.110369 0)
(0.0223341 -0.120062 0)
(0.0178001 -0.124883 0)
(0.00526438 -0.125086 0)
(-0.00314618 -0.125623 0)
(-0.0165965 -0.125577 0)
(-0.0218224 -0.119824 0)
(-0.0386343 -0.110329 0)
(-0.0374749 -0.0995677 -2.93062e-27)
(0.0252479 -0.0813163 -1.06817e-26)
(0.0283668 -0.100978 -1.25517e-26)
(0.0203357 -0.108137 -3.14619e-27)
(0.0110698 -0.113873 -2.79774e-27)
(0.00461141 -0.116677 -1.01735e-28)
(-0.00488466 -0.116338 -8.92649e-29)
(-0.0120588 -0.113356 -2.76901e-27)
(-0.0205646 -0.108324 -3.15806e-27)
(-0.0284748 -0.10095 -1.25739e-26)
(-0.0252477 -0.0812788 -1.06723e-26)
(0.0178102 -0.144533 0)
(0.0106691 -0.205409 0)
(0.0206924 -0.21658 0)
(0.00574395 -0.223526 0)
(0.00575248 -0.225286 0)
(-0.00760011 -0.224671 0)
(-0.00833923 -0.221875 0)
(-0.0216957 -0.215466 0)
(-0.0110515 -0.203847 0)
(-0.017035 -0.142285 0)
(0.0154252 -0.167323 0)
(0.00131141 -0.200122 0)
(0.0144242 -0.20886 0)
(0.00105988 -0.213087 0)
(0.00638507 -0.21429 0)
(-0.00713847 -0.213987 0)
(-0.00155354 -0.213183 0)
(-0.0149905 -0.208284 0)
(-0.00145808 -0.199004 0)
(-0.0158629 -0.166993 0)
(0.0153296 -0.171831 0)
(-0.00374713 -0.203148 0)
(0.0109741 -0.208013 0)
(-0.00204024 -0.209378 0)
(0.00390229 -0.209677 0)
(-0.00427057 -0.209439 0)
(0.00157486 -0.209485 0)
(-0.0111623 -0.207716 0)
(0.00363143 -0.202773 0)
(-0.0151787 -0.17172 0)
(0.0168971 -0.193407 0)
(-0.00650462 -0.203909 0)
(0.00988304 -0.209952 0)
(-0.00118735 -0.206294 0)
(0.00253817 -0.207428 0)
(-0.00225706 -0.207174 0)
(0.00133535 -0.206574 0)
(-0.0101323 -0.209627 0)
(0.006573 -0.20349 0)
(-0.0170025 -0.193054 0)
(0.0336634 -0.217923 0)
(0.00814592 -0.204241 0)
(0.0167382 -0.204616 0)
(0.0106729 -0.197291 0)
(0.00196066 -0.193809 0)
(-0.00195864 -0.193474 0)
(-0.0108597 -0.19642 0)
(-0.0168487 -0.204211 0)
(-0.0082604 -0.204253 0)
(-0.0336197 -0.217665 0)
(-0.841304 -0.210851 0)
(-0.61644 -0.305277 0)
(-0.367991 -0.35368 0)
(-0.13083 -0.359615 0)
(0.134918 -0.37972 0)
(0.247395 -0.188579 0)
(0.351146 -0.164787 0)
(0.386443 -0.267616 0)
(0.465423 -0.292792 0)
(0.611886 -0.25227 0)
(-0.512088 -0.458159 0)
(-0.358631 -0.695175 0)
(-0.205798 -0.802632 0)
(-0.0517767 -0.823087 0)
(0.165902 -0.689483 0)
(0.237293 -0.286218 0)
(0.400614 -0.0339215 0)
(0.366949 -0.203335 0)
(0.430071 -0.353524 0)
(0.50424 -0.343464 0)
(-0.437217 -0.626196 0)
(-0.392347 -0.882119 0)
(-0.377876 -0.981942 0)
(-0.367128 -0.997689 0)
(-0.363854 -0.793856 0)
(-0.163979 -0.511968 0)
(-0.00931876 -0.311396 0)
(0.0214497 -0.438568 0)
(0.0302148 -0.404218 0)
(0.0613589 -0.25794 0)
(-0.456584 -0.584427 0)
(-0.495465 -0.829974 0)
(-0.567143 -0.923441 0)
(-0.587674 -0.927787 0)
(-0.581323 -0.809177 0)
(-0.491407 -0.742284 0)
(-0.240756 -0.489719 0)
(-0.112237 -0.406666 0)
(-0.0756601 -0.357733 0)
(-0.024702 -0.35463 0)
(-0.301391 -0.378839 0)
(-0.456651 -0.685427 0)
(-0.575715 -0.872264 0)
(-0.603217 -0.960188 0)
(-0.620104 -1.00796 0)
(-0.60753 -1.03671 0)
(-0.454374 -0.936453 0)
(-0.240011 -0.743869 0)
(-0.0530204 -0.534405 0)
(0.0268197 -0.402415 0)
(0.0570229 -0.143116 0)
(-0.140457 -0.395806 0)
(-0.28631 -0.7158 0)
(-0.380688 -0.94359 0)
(-0.419776 -1.12274 0)
(-0.431352 -1.23152 0)
(-0.374981 -1.30016 0)
(-0.276285 -1.2805 0)
(-0.0963027 -0.968891 0)
(0.0735505 -0.489881 0)
(0.388283 0.134618 0)
(0.319789 0.032094 0)
(0.190489 -0.293391 0)
(0.111135 -0.609121 0)
(0.0405159 -0.862982 0)
(-0.0860589 -1.12357 0)
(-0.0785816 -1.37224 0)
(-0.0832437 -1.43572 0)
(-0.0169456 -1.32659 0)
(0.0966155 -0.826427 0)
(0.333172 0.00529227 0)
(0.361342 0.0236859 0)
(0.359738 -0.124901 0)
(0.25323 -0.510217 0)
(0.241169 -0.647129 0)
(0.125822 -0.843387 0)
(0.137703 -1.279 0)
(0.149446 -1.41531 0)
(0.157301 -1.36996 0)
(0.146705 -1.03836 0)
(0.273347 0.021482 0)
(0.242989 0.0228371 0)
(0.218496 -0.207149 0)
(0.203846 -0.466283 0)
(0.21454 -0.583754 0)
(0.146809 -0.80873 0)
(0.205412 -1.27445 0)
(0.242668 -1.40403 0)
(0.249801 -1.32136 0)
(0.125769 -1.00453 0)
(0.0393864 0.212044 0)
(0.00615975 0.0643253 0)
(0.0982943 -0.307741 0)
(0.1465 -0.408226 0)
(0.1011 -0.530631 0)
(0.125439 -0.952536 0)
(0.244031 -1.38642 0)
(0.271988 -1.42425 0)
(0.284578 -1.2728 0)
(0.0682658 -0.688811 0)
(-0.13554 0.204025 0)
(0.0887285 -0.284355 0)
(0.0829556 -0.367241 0)
(0.0951104 -0.421353 0)
(0.0549856 -0.530527 0)
(0.143078 -1.25319 0)
(0.188957 -1.50382 0)
(0.241284 -1.47275 0)
(0.138228 -1.02274 0)
(-0.150872 -0.181875 0)
(0.0248629 0.033774 0)
(0.0885622 -0.339085 0)
(0.0720459 -0.367711 0)
(0.0366807 -0.356683 0)
(0.0375399 -0.579975 0)
(0.136706 -1.38796 0)
(0.121236 -1.52764 0)
(0.112439 -1.39861 0)
(-0.101492 -0.466821 0)
(-0.150776 -0.118749 0)
(0.120851 -0.158135 0)
(0.0952188 -0.342087 0)
(0.0875455 -0.329972 0)
(0.02544 -0.29177 0)
(0.023343 -0.734192 0)
(0.123405 -1.42961 0)
(0.0287507 -1.4286 0)
(0.00387272 -1.00795 0)
(-0.12657 -0.30207 0)
(-0.134346 -0.164253 0)
(0.190667 -0.196007 0)
(0.127827 -0.270658 0)
(0.115143 -0.259172 0)
(0.0684499 -0.250377 0)
(0.0634317 -0.767583 0)
(0.126176 -1.41372 0)
(0.0394818 -1.34297 0)
(0.0210559 -0.872645 0)
(-0.0516569 -0.224135 0)
(-0.0915839 -0.134421 0)
(0.175526 -0.163089 0)
(0.136601 -0.221958 0)
(0.132304 -0.226288 0)
(0.113649 -0.241356 0)
(0.10295 -0.74918 0)
(0.189204 -1.36857 0)
(0.151038 -1.31093 0)
(0.131935 -0.867911 0)
(0.0612575 -0.0878704 0)
(-0.0479807 -0.0817507 0)
(0.139187 -0.164246 0)
(0.103746 -0.194131 0)
(0.108971 -0.212967 0)
(0.0971216 -0.247384 0)
(0.122911 -0.848376 0)
(0.234726 -1.38035 0)
(0.211086 -1.28763 0)
(0.158617 -0.918635 0)
(0.0906895 0.117899 0)
(-0.0207054 0.00144758 0)
(0.110395 -0.167387 0)
(0.0968681 -0.173885 0)
(0.0974658 -0.210647 0)
(0.0905795 -0.264945 0)
(0.161939 -1.08193 0)
(0.256676 -1.40123 0)
(0.228307 -1.21535 0)
(0.117303 -0.78667 0)
(0.042566 0.251786 0)
(0.0271097 0.115876 0)
(0.0876064 -0.1317 0)
(0.0473997 -0.172362 0)
(0.0311924 -0.210248 0)
(0.0831357 -0.313755 0)
(0.163535 -1.34409 0)
(0.241981 -1.41584 0)
(0.17478 -1.02347 0)
(-0.0734485 -0.352932 0)
(-0.105499 0.288098 0)
(0.0247952 0.0556076 0)
(0.0175581 -0.0423138 0)
(-0.0302095 -0.0684555 0)
(-0.103578 -0.160624 0)
(0.0696524 -0.439107 0)
(0.110299 -1.45979 0)
(0.128814 -1.35116 0)
(0.0344021 -0.561948 0)
(-0.167996 -0.146253 0)
(-0.0743383 -0.0783562 0)
(0.00789774 -0.0625893 0)
(-0.239696 0.0373961 0)
(-0.269407 -0.0285837 0)
(-0.302412 -0.271922 0)
(-0.0610261 -1.03585 0)
(-0.114993 -1.51115 0)
(-0.0297445 -1.25165 0)
(-0.0504844 -0.276716 0)
(-0.139672 -0.137236 0)
(-0.0878624 -0.0980856 0)
(-0.0752938 -0.0902416 0)
(-0.270696 0.0169449 0)
(-0.341315 0.0204936 0)
(-0.26924 -0.515229 0)
(-0.169012 -1.21044 0)
(-0.199184 -1.50132 0)
(-0.15628 -1.34676 0)
(-0.0581368 -0.264416 0)
(-0.0970832 -0.197137 0)
(-0.0559351 -0.163819 0)
(-0.0558367 -0.13477 0)
(-0.127888 0.0949286 0)
(-0.145069 0.0152072 0)
(-0.0812814 -0.54878 0)
(-0.188301 -1.19061 0)
(-0.206557 -1.55421 0)
(-0.174304 -1.58538 0)
(-0.0241568 -0.320956 0)
(-0.002429 -0.223563 0)
(0.0282499 -0.18434 0)
(0.00472035 -0.128619 0)
(0.0779077 0.0409176 0)
(0.125259 -0.0136409 0)
(0.229576 -0.29589 0)
(-0.0232444 -0.796073 0)
(-0.0395927 -1.58309 0)
(-0.0318321 -1.68183 0)
(0.00634394 -0.53597 0)
(0.15168 -0.211848 0)
(0.122102 -0.18973 0)
(0.111076 -0.175738 0)
(0.105003 -0.158695 0)
(0.149859 -0.206838 0)
(0.239987 -0.337056 0)
(0.0975557 -0.446099 0)
(0.0695949 -1.48967 0)
(0.0742022 -1.70225 0)
(0.119316 -1.28496 0)
(0.270732 -0.226054 0)
(0.198407 -0.185561 0)
(0.202 -0.19376 0)
(0.0626907 -0.25491 0)
(0.0746757 -0.269122 0)
(0.101572 -0.314574 0)
(0.0584337 -0.367678 0)
(0.0949543 -1.53239 0)
(0.0948713 -1.7139 0)
(0.119361 -1.34333 0)
(0.0983421 -0.243676 0)
(0.0998614 -0.17326 0)
(0.0600028 -0.167059 0)
(0.00290177 -0.274834 0)
(0.00925887 -0.264139 0)
(-0.0204174 -0.252323 0)
(-0.0188528 -0.348802 0)
(0.0454144 -1.6651 0)
(0.0199416 -1.72713 0)
(0.00377034 -1.03782 0)
(-0.192901 -0.0266402 0)
(-0.0789619 -0.1476 0)
(-0.230514 -0.107027 0)
(0.131469 -0.202913 0)
(-0.012561 -0.276346 0)
(-0.0568992 -0.154094 0)
(-0.150553 -0.985433 0)
(-0.0107961 -1.67871 0)
(-0.0317348 -1.67301 0)
(-0.101497 -0.319487 0)
(-0.172479 -0.0782985 0)
(-0.132909 -0.0395576 0)
(-0.105896 0.033162 0)
(0.0594471 -0.0198317 0)
(-0.152498 0.0302229 0)
(-0.214469 0.238501 0)
(-0.0548746 -0.660193 0)
(-0.000184918 -1.67587 0)
(-0.0194583 -1.66177 0)
(0.132707 -1.06701 0)
(0.0402401 0.0810549 0)
(0.0849581 -0.151419 0)
(-0.0935753 0.225276 0)
(-0.289889 0.164193 0)
(-0.317848 0.14465 0)
(-0.276168 0.107666 0)
(-0.0176745 -1.45565 0)
(-0.000841105 -1.64871 0)
(-0.0124464 -1.65411 0)
(0.0643472 -1.3309 0)
(0.0152715 0.364584 0)
(0.00491426 0.217347 0)
(-0.178477 0.292025 0)
(-0.0758673 0.017567 0)
(-0.045492 -0.100237 0)
(-0.0171391 -0.144353 0)
(-0.0120973 -1.47458 0)
(0.00259886 -1.64034 0)
(-0.0106385 -1.63571 0)
(0.000979996 -1.54324 0)
(0.0415431 0.551989 0)
(-0.0526555 0.433676 0)
(-0.154054 0.480397 0)
(0.152445 0.129989 0)
(0.121376 0.210626 0)
(0.0522061 -0.0672419 0)
(0.0160291 -1.54298 0)
(0.00483474 -1.6311 0)
(-0.00838597 -1.63016 0)
(-0.00277319 -1.48797 0)
(-0.0739451 0.703635 0)
(-0.0748495 0.434755 0)
(-0.0867184 0.48404 0)
(0.0563337 0.0528058 0)
(0.104376 0.023827 0)
(0.106733 0.109953 0)
(0.000409496 -1.31474 0)
(0.00383195 -1.62041 0)
(-0.0103234 -1.61942 0)
(-0.0262808 -1.5235 0)
(-0.0149762 0.849658 0)
(-0.0171001 0.464405 0)
(0.0575014 0.372184 0)
(-0.286113 0.0153845 0)
(-0.218799 0.100946 0)
(-0.0644502 0.125976 0)
(0.00506339 -1.41113 0)
(0.00620126 -1.60536 0)
(-0.00544563 -1.60406 0)
(-0.0341802 -1.46806 0)
(0.104991 0.632323 0)
(0.216674 0.383896 0)
(0.369454 0.172562 0)
(-0.286312 -0.0990218 0)
(-0.22581 -0.200932 0)
(-0.0141311 -0.420691 0)
(0.00652929 -1.39822 0)
(0.0057001 -1.59228 0)
(-0.00893698 -1.59114 0)
(-0.0248526 -1.43969 0)
(0.0041509 -0.153869 0)
(0.262393 0.096094 0)
(0.311647 0.118058 0)
(-0.121562 -0.166622 0)
(-0.0914765 -0.2999 0)
(0.0205284 -0.53544 0)
(0.0047268 -1.37949 0)
(0.00800488 -1.57527 0)
(-0.00623527 -1.57437 0)
(-0.00589548 -1.41883 0)
(-0.000926405 -0.28083 0)
(0.0909233 0.0415584 0)
(0.0854765 0.110822 0)
(-0.0913222 -0.288307 0)
(-0.0599591 -0.429406 0)
(0.00889004 -0.640094 0)
(0.00417575 -1.3778 0)
(0.00605277 -1.56026 0)
(-0.00631946 -1.55971 0)
(-0.00469903 -1.41588 0)
(0.00357539 -0.367083 0)
(0.0701678 0.0357631 0)
(0.0486434 0.16361 0)
(-0.0890892 -0.387405 0)
(-0.0564594 -0.512074 0)
(-0.00448543 -0.719591 0)
(0.00182733 -1.38708 0)
(0.00664322 -1.55016 0)
(-0.00805369 -1.5501 0)
(-0.00729063 -1.41897 0)
(0.00103278 -0.512661 0)
(0.109759 0.00318535 0)
(0.115358 0.184656 0)
(-0.0776334 -0.449842 0)
(-0.0493942 -0.595567 0)
(-0.000505049 -0.788353 0)
(0.00494662 -1.39087 0)
(0.00671177 -1.53859 0)
(-0.00658652 -1.53761 0)
(-0.00487414 -1.42617 0)
(-9.74095e-05 -0.690864 0)
(0.11591 -0.176548 0)
(0.196393 0.0961527 0)
(-0.067202 -0.535743 0)
(-0.0392834 -0.657616 0)
(0.000860203 -0.843056 0)
(0.00564217 -1.39455 0)
(0.00608605 -1.5265 0)
(-0.00720493 -1.52487 0)
(-0.00318796 -1.42903 0)
(-0.0109815 -0.766265 0)
(0.0566734 -0.353304 0)
(0.142445 -0.0981764 0)
(-0.0589595 -0.591127 0)
(-0.0337494 -0.720352 0)
(-0.00274732 -0.902794 0)
(0.00537849 -1.39997 0)
(0.00731206 -1.51396 0)
(-0.00672171 -1.51357 0)
(-0.00403822 -1.42499 0)
(-0.0201756 -0.795016 0)
(0.00965801 -0.424327 0)
(0.0430585 -0.251577 0)
(-0.0349618 -0.630448 0)
(-0.0202319 -0.748581 0)
(0.00360789 -0.931363 0)
(0.006424 -1.40161 0)
(0.00642824 -1.50191 0)
(-0.00663411 -1.50118 0)
(-0.00257804 -1.40157 0)
(-0.0346888 -0.774366 0)
(-0.0244975 -0.443533 0)
(-0.00539977 -0.332826 0)
(-0.0216066 -0.654915 0)
(-0.012407 -0.780667 0)
(0.00101092 -0.959462 0)
(0.00342825 -1.40425 0)
(0.00634545 -1.48852 0)
(-0.00721538 -1.49014 0)
(0.00616205 -1.38844 0)
(-0.0299456 -0.730146 0)
(-0.0250877 -0.472186 0)
(0.00302892 -0.400507 0)
(-0.0107097 -0.67243 0)
(-0.00849862 -0.791284 0)
(-0.00994641 -0.967291 0)
(-0.00901209 -1.41013 0)
(0.00293928 -1.47898 0)
(-0.0107618 -1.47856 0)
(-0.0145904 -1.36854 0)
(-0.0317469 -0.688228 0)
(-0.0254235 -0.555973 0)
(0.0246477 -0.501058 0)
(0.00262314 -0.674751 0)
(0.000193284 -0.790141 0)
(-0.0160387 -0.962406 0)
(-0.00771223 -1.41361 0)
(0.00318634 -1.46881 0)
(-0.00988328 -1.46054 0)
(-0.0229916 -1.42241 0)
(-0.0123629 -0.661821 0)
(-0.0227212 -0.625343 0)
(0.0206687 -0.558079 0)
(0.0228347 -0.664062 0)
(0.0231417 -0.783352 0)
(0.0214755 -0.962388 0)
(0.0451692 -1.43031 0)
(0.0194008 -1.45373 0)
(0.00632082 -1.45176 0)
(0.0327474 -1.41824 0)
(0.0207981 -0.622343 0)
(-0.0335424 -0.643096 0)
(0.00407079 -0.582302 0)
(0.025578 -0.649642 0)
(0.0232649 -0.76958 0)
(0.0153763 -0.960491 0)
(0.0217496 -1.43426 0)
(0.00898394 -1.43903 0)
(-0.00615834 -1.44189 0)
(0.00240896 -1.38599 0)
(0.00438447 -0.558345 0)
(-0.066532 -0.62438 0)
(-0.0624675 -0.559598 0)
(0.0270307 -0.644477 0)
(0.0280199 -0.762797 0)
(0.0162995 -0.960655 0)
(0.0214069 -1.42287 0)
(0.0101473 -1.42611 0)
(-0.00448804 -1.42812 0)
(0.00161779 -1.39244 0)
(0.00694759 -0.490262 0)
(-0.0652071 -0.52542 0)
(-0.102868 -0.504762 0)
(0.0353408 -0.643129 0)
(0.0264679 -0.750053 0)
(0.0015995 -0.94625 0)
(0.00100774 -1.41375 0)
(0.00275609 -1.41719 0)
(-0.00856347 -1.41698 0)
(-0.0252201 -1.38664 0)
(-0.0380369 -0.422777 0)
(-0.0965793 -0.401244 0)
(-0.14978 -0.428929 0)
(0.0539552 -0.619036 0)
(0.0405911 -0.723017 0)
(0.0284993 -0.916072 0)
(0.0169267 -1.39715 0)
(0.0101183 -1.4032 0)
(-0.0047637 -1.40124 0)
(-0.00533753 -1.33071 0)
(-0.0676227 -0.317801 0)
(-0.144574 -0.272285 0)
(-0.19758 -0.349387 0)
(0.0760473 -0.572229 0)
(0.0546328 -0.679904 0)
(0.0345078 -0.88348 0)
(0.014417 -1.37814 0)
(0.00849621 -1.38384 0)
(-0.00520451 -1.38605 0)
(-0.00324548 -1.21727 0)
(-0.057951 -0.164292 0)
(-0.143684 -0.176036 0)
(-0.199946 -0.285982 0)
(0.0885744 -0.536779 0)
(0.0593867 -0.63701 0)
(0.0302162 -0.841472 0)
(0.00122175 -1.3525 0)
(0.00572552 -1.37086 0)
(-0.00852866 -1.37139 0)
(-0.0129241 -1.21518 0)
(0.0110337 -0.0804176 0)
(-0.0150244 -0.0151508 0)
(-0.150915 -0.200372 0)
(0.106661 -0.459113 0)
(0.0697658 -0.562413 0)
(0.036194 -0.776973 0)
(0.00701793 -1.32286 0)
(0.0070249 -1.35654 0)
(-0.00736368 -1.35601 0)
(-0.0124061 -1.22837 0)
(0.0297399 -0.198035 0)
(0.132368 0.136757 0)
(0.0702383 0.0778084 0)
(0.104435 -0.38485 0)
(0.0623586 -0.497386 0)
(0.0270238 -0.725765 0)
(0.00609984 -1.29517 0)
(0.00710294 -1.34084 0)
(-0.0074274 -1.34055 0)
(-0.00344273 -1.25418 0)
(0.0125467 -0.494286 0)
(0.156165 0.0144573 0)
(0.145643 0.169757 0)
(0.0869954 -0.308924 0)
(0.0496788 -0.421907 0)
(0.017509 -0.674556 0)
(0.00641015 -1.28489 0)
(0.00711814 -1.32622 0)
(-0.00745483 -1.32652 0)
(-0.0029951 -1.2779 0)
(0.00441834 -0.560649 0)
(0.0605579 -0.0551469 0)
(0.0739613 0.133208 0)
(0.0658752 -0.245594 0)
(0.0341173 -0.364111 0)
(0.00688037 -0.637058 0)
(0.00551198 -1.28498 0)
(0.00695831 -1.31025 0)
(-0.00733616 -1.3099 0)
(-0.00594165 -1.2873 0)
(-0.0059456 -0.568108 0)
(-0.00442663 -0.0661988 0)
(-0.00957401 0.0895919 0)
(0.0476434 -0.200357 0)
(0.0212503 -0.315908 0)
(0.0117569 -0.611261 0)
(0.00595934 -1.28522 0)
(0.00704324 -1.29669 0)
(-0.00783723 -1.29698 0)
(-0.00705019 -1.28765 0)
(-0.0180335 -0.551627 0)
(-0.0208684 -0.0566455 0)
(-0.033732 0.0714726 0)
(0.0333243 -0.164015 0)
(0.0155029 -0.281877 0)
(0.014763 -0.602708 0)
(0.00785838 -1.27645 0)
(0.00659542 -1.28091 0)
(-0.00692015 -1.28011 0)
(-0.00892012 -1.27634 0)
(-0.0176126 -0.546824 0)
(-0.0152933 -0.0455164 0)
(-0.0238108 0.0645134 0)
(0.0208774 -0.148418 0)
(0.00779578 -0.266156 0)
(0.0150754 -0.60328 0)
(0.00668602 -1.26597 0)
(0.00748649 -1.26632 0)
(-0.0080373 -1.26696 0)
(-0.00697133 -1.26502 0)
(-0.0149549 -0.549122 0)
(-0.0086481 -0.0570065 0)
(-0.0257237 0.0738656 0)
(0.012945 -0.137019 0)
(0.00295606 -0.25529 0)
(0.0142066 -0.615676 0)
(0.00878839 -1.25336 0)
(0.00633011 -1.25247 0)
(-0.00634522 -1.25122 0)
(-0.00912443 -1.25154 0)
(-0.0173076 -0.533339 0)
(-0.0287861 0.00446486 0)
(-0.0585473 0.0999215 0)
(0.0101199 -0.134528 0)
(0.000929969 -0.252348 0)
(0.0147989 -0.633228 0)
(0.00769294 -1.24157 0)
(0.00758782 -1.23629 0)
(-0.00800239 -1.23715 0)
(-0.00732686 -1.2389 0)
(-0.0234986 -0.554548 0)
(0.00422686 0.0643167 0)
(-0.0321333 0.14465 0)
(0.0121471 -0.131737 0)
(0.00303178 -0.247538 0)
(0.0153718 -0.647328 0)
(0.00898027 -1.22762 0)
(0.00663373 -1.22279 0)
(-0.00634899 -1.22168 0)
(-0.00899843 -1.22544 0)
(-0.0188921 -0.580779 0)
(0.0199258 -0.00375886 0)
(0.028857 0.198336 0)
(0.0162412 -0.129125 0)
(0.00706929 -0.242577 0)
(0.0174122 -0.659311 0)
(0.00922716 -1.21424 0)
(0.00741867 -1.20668 0)
(-0.00738395 -1.20709 0)
(-0.00823112 -1.21111 0)
(-0.0164595 -0.586453 0)
(-0.00401575 -0.0547402 0)
(0.0222267 0.220914 0)
(0.0228897 -0.122211 0)
(0.0118098 -0.233152 0)
(0.0186707 -0.664543 0)
(0.00955116 -1.19973 0)
(0.00730434 -1.19119 0)
(-0.00683261 -1.1909 0)
(-0.00889033 -1.19728 0)
(-0.0169781 -0.587145 0)
(-0.0210632 -0.0478629 0)
(-0.0160005 0.221657 0)
(0.0287662 -0.112693 0)
(0.0150645 -0.221525 0)
(0.0190112 -0.666564 0)
(0.010196 -1.18507 0)
(0.00705755 -1.17577 0)
(-0.00701385 -1.1759 0)
(-0.00936103 -1.18199 0)
(-0.0190327 -0.581146 0)
(-0.028033 -0.0396772 0)
(-0.0329281 0.233729 0)
(0.0341365 -0.0921559 0)
(0.0181685 -0.20073 0)
(0.0187785 -0.666289 0)
(0.00965175 -1.17006 0)
(0.00755053 -1.15827 0)
(-0.00766337 -1.15855 0)
(-0.00965917 -1.16713 0)
(-0.0154412 -0.586874 0)
(-0.0120126 -0.0188934 0)
(-0.0232332 0.24817 0)
(0.0401874 -0.069199 0)
(0.0200815 -0.178398 0)
(0.0182948 -0.663728 0)
(0.0102368 -1.1546 0)
(0.0067609 -1.14265 0)
(-0.0072201 -1.1426 0)
(-0.0106431 -1.15213 0)
(-0.0214006 -0.580987 0)
(-0.0102833 -0.00347083 0)
(0.0016143 0.261445 0)
(0.0426315 -0.0299331 0)
(0.0225252 -0.140332 0)
(0.0195036 -0.658203 0)
(0.0101758 -1.13885 0)
(0.00775185 -1.12434 0)
(-0.0079985 -1.12463 0)
(-0.0106489 -1.13613 0)
(-0.0282736 -0.582044 0)
(-0.00239515 -0.0561976 0)
(0.0292723 0.230588 0)
(0.0381879 -0.00364941 0)
(0.0194304 -0.12096 0)
(0.019086 -0.656688 0)
(0.0108548 -1.12293 0)
(0.00703003 -1.10765 0)
(-0.0073566 -1.10779 0)
(-0.0112812 -1.12064 0)
(-0.0274053 -0.57415 0)
(-0.0105706 -0.159107 0)
(0.0420648 0.160141 0)
(0.0351175 0.0263215 0)
(0.0199879 -0.09283 0)
(0.0198351 -0.654028 0)
(0.0105462 -1.10642 0)
(0.00765673 -1.08917 0)
(-0.00824819 -1.08948 0)
(-0.011526 -1.10465 0)
(-0.0209546 -0.574165 0)
(-0.0200825 -0.24194 0)
(0.0296017 0.0558157 0)
(0.0289156 0.04258 0)
(0.0191388 -0.0844669 0)
(0.0190856 -0.654702 0)
(0.0108685 -1.08992 0)
(0.00712997 -1.07158 0)
(-0.00754588 -1.0717 0)
(-0.0116885 -1.08813 0)
(-0.0155888 -0.573858 0)
(-0.0259564 -0.2245 0)
(-0.031756 0.0474533 0)
(0.0387069 0.0615185 0)
(0.0234362 -0.0580095 0)
(0.0190499 -0.647656 0)
(0.0112226 -1.0727 0)
(0.00769992 -1.05313 0)
(-0.00812473 -1.05335 0)
(-0.0119021 -1.07148 0)
(-0.0148907 -0.574241 0)
(-0.0300854 -0.173742 0)
(-0.0480673 -0.0213056 0)
(0.0533404 0.0949281 0)
(0.0253716 -0.0179806 0)
(0.018691 -0.645582 0)
(0.0114975 -1.05541 0)
(0.00748505 -1.03486 0)
(-0.00750736 -1.03478 0)
(-0.0120103 -1.0536 0)
(-0.0216334 -0.539651 0)
(-0.0301904 -0.146424 0)
(-0.0293831 -0.0461259 0)
(0.0492068 0.14691 0)
(0.0174912 0.0231819 0)
(0.0204803 -0.649275 0)
(0.0124211 -1.03742 0)
(0.00776921 -1.01583 0)
(-0.00787446 -1.0163 0)
(-0.0125279 -1.03601 0)
(-0.0234653 -0.527665 0)
(-0.0429721 -0.136884 0)
(-0.0266257 -0.0887507 0)
(0.0407488 0.219676 0)
(0.013563 0.0579952 0)
(0.0212026 -0.654099 0)
(0.0117344 -1.01932 0)
(0.00759825 -0.99747 0)
(-0.00750834 -0.997113 0)
(-0.0122535 -1.01802 0)
(-0.0124771 -0.564225 0)
(-0.0124243 -0.115049 0)
(-0.0245935 -0.151588 0)
(0.0142225 0.278678 0)
(0.0108376 0.063457 0)
(0.0222917 -0.659252 0)
(0.013309 -1.0005 0)
(0.00767941 -0.977687 0)
(-0.00781583 -0.978203 0)
(-0.0133511 -0.999636 0)
(-0.0145879 -0.573924 0)
(-0.0026713 -0.077085 0)
(-0.0210116 -0.162293 0)
(0.000927289 0.284529 0)
(0.0134334 0.0420004 0)
(0.022362 -0.664861 0)
(0.0123381 -0.981555 0)
(0.00763185 -0.958895 0)
(-0.00759617 -0.958437 0)
(-0.0127225 -0.980684 0)
(-0.023815 -0.575742 0)
(-0.0248656 -0.0508991 0)
(-0.0561155 -0.14232 0)
(-5.09697e-05 0.269507 0)
(0.022779 0.0274825 0)
(0.0223618 -0.663685 0)
(0.0142772 -0.961785 0)
(0.00775884 -0.938304 0)
(-0.00780515 -0.938435 0)
(-0.0143801 -0.961005 0)
(-0.0224969 -0.595968 0)
(0.00750638 -0.0170316 0)
(-0.0391615 -0.0353331 0)
(0.0141799 0.236266 0)
(0.0302456 0.00958907 0)
(0.0233697 -0.659516 0)
(0.0133732 -0.94183 0)
(0.00769885 -0.918542 0)
(-0.00759476 -0.918224 0)
(-0.0134632 -0.941358 0)
(-0.0241073 -0.588467 0)
(-0.0250712 -0.0166066 0)
(-0.0525551 0.0593445 0)
(0.0262476 0.207634 0)
(0.0321605 0.00761988 0)
(0.023629 -0.646035 0)
(0.0154491 -0.921058 0)
(0.00805802 -0.897184 0)
(-0.00790131 -0.896869 0)
(-0.01525 -0.920438 0)
(-0.0241974 -0.578121 0)
(-0.0362048 0.0237482 0)
(-0.0576432 0.110464 0)
(0.0390562 0.199925 0)
(0.0392661 0.0269366 0)
(0.0247958 -0.633882 0)
(0.0144987 -0.899996 0)
(0.00770126 -0.876004 0)
(-0.00760891 -0.87606 0)
(-0.0144499 -0.899946 0)
(-0.0237002 -0.574925 0)
(-0.0256192 0.0600454 0)
(-0.0452595 0.139867 0)
(0.0351653 0.194481 0)
(0.0302473 0.03298 0)
(0.0239543 -0.629303 0)
(0.0163278 -0.878136 0)
(0.00831712 -0.853909 0)
(-0.00807988 -0.853282 0)
(-0.0162603 -0.877906 0)
(-0.0232585 -0.583621 0)
(-0.0123019 0.056417 0)
(-0.022969 0.166947 0)
(0.0366641 0.194021 0)
(0.0360793 0.0494003 0)
(0.0250197 -0.611548 0)
(0.0159171 -0.855672 0)
(0.00773783 -0.831447 0)
(-0.00766968 -0.831696 0)
(-0.0155885 -0.856177 0)
(-0.0231109 -0.582898 0)
(-0.0267758 0.0676386 0)
(-0.0337894 0.204486 0)
(0.0437216 0.197319 0)
(0.0403944 0.0679948 0)
(0.0253501 -0.60316 0)
(0.0173068 -0.832328 0)
(0.00834876 -0.808188 0)
(-0.00815244 -0.807871 0)
(-0.017299 -0.832617 0)
(-0.0227035 -0.580092 0)
(-0.0327858 0.105614 0)
(-0.0668693 0.256112 0)
(0.0482713 0.20994 0)
(0.0416464 0.0880025 0)
(0.0251886 -0.58989 0)
(0.0170024 -0.808358 0)
(0.00755381 -0.785045 0)
(-0.00766252 -0.785285 0)
(-0.0168464 -0.809144 0)
(-0.0233992 -0.574723 0)
(-0.036975 0.167071 0)
(-0.0789288 0.293194 0)
(0.0622334 0.233168 0)
(0.0487639 0.126902 0)
(0.0261509 -0.567636 0)
(0.0184618 -0.783366 0)
(0.00820494 -0.760539 0)
(-0.00826805 -0.760559 0)
(-0.0185771 -0.784141 0)
(-0.0264161 -0.574307 0)
(-0.0323163 0.213364 0)
(-0.0616658 0.333726 0)
(0.0652615 0.261788 0)
(0.0486975 0.161437 0)
(0.0255874 -0.556625 0)
(0.018434 -0.757706 0)
(0.00746854 -0.735995 0)
(-0.00763446 -0.736412 0)
(-0.0184194 -0.758725 0)
(-0.0263486 -0.557856 0)
(-0.0416135 0.253775 0)
(-0.0650283 0.382028 0)
(0.0675842 0.302625 0)
(0.0526239 0.207337 0)
(0.0272909 -0.53133 0)
(0.0201715 -0.730927 0)
(0.00832687 -0.710658 0)
(-0.00841236 -0.710833 0)
(-0.0202917 -0.731823 0)
(-0.0274602 -0.546159 0)
(-0.0406169 0.301187 0)
(-0.0663405 0.410831 0)
(0.0725736 0.348679 0)
(0.0552737 0.250065 0)
(0.0265118 -0.514274 0)
(0.020616 -0.703152 0)
(0.00755599 -0.684063 0)
(-0.00774434 -0.68469 0)
(-0.0206694 -0.704349 0)
(-0.0292673 -0.539905 0)
(-0.0296388 0.329612 0)
(-0.049789 0.431646 0)
(0.0672773 0.400527 0)
(0.0530237 0.305023 0)
(0.0274076 -0.492465 0)
(0.0221193 -0.674199 0)
(0.00837825 -0.65775 0)
(-0.00845058 -0.65823 0)
(-0.0221985 -0.675339 0)
(-0.0333098 -0.53412 0)
(-0.022956 0.324671 0)
(-0.0178773 0.455792 0)
(0.0674175 0.43984 0)
(0.0507962 0.337499 0)
(0.0280269 -0.476556 0)
(0.0230617 -0.643834 0)
(0.00793985 -0.629341 0)
(-0.00795071 -0.630194 0)
(-0.0230108 -0.64537 0)
(-0.0362881 -0.516749 0)
(-0.021357 0.287354 0)
(0.0249934 0.46767 0)
(0.0445146 0.505167 0)
(0.024646 0.392117 0)
(0.0332126 -0.470804 0)
(0.0238667 -0.611991 0)
(0.00813576 -0.601083 0)
(-0.00825739 -0.601903 0)
(-0.0241818 -0.613826 0)
(-0.0431713 -0.507865 0)
(-0.011836 0.18447 0)
(0.0827624 0.437564 0)
(0.0220412 0.545448 0)
(-0.0309545 0.384643 0)
(0.0476424 -0.520126 0)
(0.0249208 -0.578986 0)
(0.00761131 -0.570917 0)
(-0.00799782 -0.571916 0)
(-0.0252347 -0.581241 0)
(-0.0490201 -0.535069 0)
(0.0255671 -0.0413743 0)
(0.103987 0.303119 0)
(-0.0185331 0.621652 0)
(-0.0102637 0.361725 0)
(0.0503461 -0.534408 0)
(0.0263 -0.544505 0)
(0.0078279 -0.540408 0)
(-0.00860002 -0.541047 0)
(-0.026918 -0.546656 0)
(-0.0491366 -0.541868 0)
(-0.0148175 -0.173453 0)
(0.0597946 0.147419 0)
(-0.105738 0.618075 0)
(0.0287819 0.207226 0)
(0.0546067 -0.496979 0)
(0.0273861 -0.505714 0)
(0.00972365 -0.506918 0)
(-0.00936835 -0.506354 0)
(-0.0276819 -0.507839 0)
(-0.055631 -0.496789 0)
(-0.059178 -0.249883 0)
(-0.0161641 0.0622556 0)
(-0.123232 0.505141 0)
(0.0535877 -0.181183 0)
(0.0613676 -0.450021 0)
(0.0330243 -0.467065 0)
(0.0147736 -0.469905 0)
(-0.00422381 -0.470145 0)
(-0.0250881 -0.467366 0)
(-0.0517368 -0.456239 0)
(-0.0589032 -0.269722 0)
(-0.0627993 -0.0345186 0)
(-0.00289362 0.401584 0)
(0.0806435 -0.229895 0)
(0.0642761 -0.402467 0)
(0.0311516 -0.423981 0)
(0.0112032 -0.428667 0)
(-0.0141111 -0.429142 0)
(-0.034457 -0.421719 0)
(-0.0682422 -0.402037 0)
(-0.0734034 -0.228134 0)
(-0.0734447 -0.0722204 0)
(-0.0386537 0.237278 0)
(0.0743489 -0.291913 0)
(0.0614117 -0.359957 0)
(0.0294504 -0.37924 0)
(0.00871812 -0.383386 0)
(-0.0141177 -0.382484 0)
(-0.0352367 -0.379251 0)
(-0.0650726 -0.3599 0)
(-0.0746608 -0.270101 0)
(-0.0139394 -0.0914323 0)
(0.0974733 -0.103035 0)
(0.070567 -0.289748 0)
(0.0664431 -0.313707 0)
(0.0385469 -0.329001 0)
(0.0165636 -0.331411 0)
(-0.0158507 -0.330856 0)
(-0.0379626 -0.326071 0)
(-0.070122 -0.310055 0)
(-0.0744108 -0.286726 0)
(-0.0884682 -0.143185 0)
(0.0954053 -0.202244 0)
(0.071532 -0.225664 0)
(0.0668042 -0.261359 0)
(0.0322014 -0.281712 0)
(0.00963423 -0.282995 0)
(-0.0191603 -0.283058 0)
(-0.0416911 -0.280614 0)
(-0.0713672 -0.257195 0)
(-0.0745834 -0.220438 0)
(-0.102874 -0.214469 0)
(0.0541502 -0.134727 0)
(0.0520479 -0.196793 0)
(0.0429528 -0.234846 0)
(0.0204126 -0.241591 0)
(0.0129029 -0.245463 0)
(-0.0109419 -0.245905 0)
(-0.01884 -0.242199 0)
(-0.043689 -0.232972 0)
(-0.051794 -0.188625 0)
(-0.0527691 -0.139366 0)
(0.743299 -0.196894 0)
(0.834149 -0.164521 0)
(0.931896 -0.149209 0)
(1.01389 -0.155162 0)
(1.07333 -0.161485 0)
(1.09379 -0.169326 0)
(1.10086 -0.187888 0)
(1.112 -0.188525 0)
(1.12599 -0.186642 0)
(1.14187 -0.194355 0)
(1.15214 -0.214548 0)
(1.15496 -0.21815 0)
(1.15717 -0.215947 0)
(1.16056 -0.201605 0)
(1.16804 -0.187336 0)
(1.19462 -0.173217 0)
(1.24033 -0.173664 0)
(1.27652 -0.174785 0)
(1.29884 -0.165815 0)
(1.31245 -0.136444 0)
(1.31983 -0.069918 0)
(1.29636 0.0443471 0)
(1.19025 0.157695 0)
(1.00503 0.307012 0)
(0.762956 0.361905 0)
(0.550649 0.257101 0)
(0.435184 0.12741 0)
(0.392708 0.0422798 0)
(0.376915 0.040624 0)
(0.33516 0.0430077 0)
(0.323859 0.0367855 0)
(0.327407 0.0309516 0)
(0.317174 0.0205265 0)
(0.278512 0.00294689 0)
(0.235327 0.00179125 0)
(0.171144 0.0387528 0)
(0.129144 0.0423389 0)
(0.114891 0.0459678 0)
(0.0659312 0.0434221 0)
(0.0639395 0.0876708 0)
(0.574992 -0.248366 0)
(0.62154 -0.204816 0)
(0.679349 -0.151957 0)
(0.667304 -0.118276 0)
(0.694993 -0.0469865 0)
(0.715389 0.0602869 0)
(0.70245 0.0949862 0)
(0.715011 0.130663 0)
(0.750642 0.148573 0)
(0.753406 0.174264 0)
(0.737248 0.170195 0)
(0.713612 0.172674 0)
(0.700158 0.17711 0)
(0.684484 0.16168 0)
(0.684768 0.0931324 0)
(0.704454 0.0749618 0)
(0.728437 0.0546388 0)
(0.744731 0.0231946 0)
(0.756253 0.0193167 0)
(0.756083 0.0321194 0)
(0.767969 0.0755392 0)