/*--------------------------------*- C++ -*----------------------------------*\
  =========                 |
  \\      /  F ield         | OpenFOAM: The Open Source CFD Toolbox
   \\    /   O peration     | Website:  https://openfoam.org
    \\  /    A nd           | Version:  8
     \\/     M anipulation  |
\*---------------------------------------------------------------------------*/
FoamFile
{
    version     2.0;
    format      ascii;
    class       surfaceScalarField;
    location    "5.55";
    object      alphaPhi0.water;
}
// * * * * * * * * * * * * * * * * * * * * * * * * * * * * * * * * * * * * * //

dimensions      [0 3 -1 0 0 0 0];

internalField   nonuniform List<scalar> 
18095
(
1.97618e-08
-1.72062e-07
1.523e-07
2.3101e-08
-1.97874e-07
1.94535e-07
1.96814e-08
-2.05858e-07
2.09277e-07
1.02496e-08
-2.10546e-07
2.19977e-07
-1.21578e-09
-2.1342e-07
2.24885e-07
-1.22317e-08
-2.13371e-07
2.24387e-07
-2.04699e-08
-2.10831e-07
2.1907e-07
-2.3234e-08
-2.06169e-07
2.08933e-07
-1.9774e-08
-1.97859e-07
1.94399e-07
-1.72011e-07
1.52237e-07
1.55063e-08
-1.87568e-07
1.58744e-08
-1.98242e-07
1.21064e-08
-2.0209e-07
6.60922e-09
-2.05048e-07
1.623e-10
-2.06973e-07
-6.30082e-09
-2.06908e-07
-1.18357e-08
-2.05297e-07
-1.59367e-08
-2.02068e-07
-1.55446e-08
-1.98251e-07
-1.87555e-07
6.81908e-09
-1.94387e-07
8.35627e-09
-1.99779e-07
7.25494e-09
-2.00988e-07
4.17892e-09
-2.01972e-07
-1.01375e-10
-2.02693e-07
-4.25581e-09
-2.02754e-07
-7.27016e-09
-2.02282e-07
-8.34452e-09
-2.00993e-07
-6.82542e-09
-1.9977e-07
-1.94381e-07
4.53449e-09
-1.98922e-07
4.70935e-09
-1.99954e-07
3.63775e-09
-1.99917e-07
2.08962e-09
-2.00424e-07
2.39065e-10
-2.00842e-07
-1.75903e-09
-2.00755e-07
-3.60136e-09
-2.0044e-07
-4.70478e-09
-1.9989e-07
-4.53751e-09
-1.99937e-07
-1.98918e-07
1.07824e-09
1.12391e-09
1.20717e-09
7.82934e-10
-5.91827e-11
-8.14628e-10
-1.2545e-09
-1.1443e-09
-1.08177e-09
-2.75194e-08
-1.96531e-07
2.2405e-07
-3.02505e-08
-1.9904e-07
2.01771e-07
-2.549e-08
-2.01515e-07
1.96755e-07
-1.40287e-08
-2.02414e-07
1.90953e-07
2.06329e-10
-2.02422e-07
1.88187e-07
1.41262e-08
-2.01715e-07
1.87796e-07
2.48423e-08
-2.00561e-07
1.89845e-07
2.97776e-08
-2.00722e-07
1.95787e-07
2.7344e-08
-1.98689e-07
2.01122e-07
-1.9639e-07
2.23734e-07
-9.83875e-09
-1.86692e-07
-1.56675e-08
-1.93211e-07
-1.42443e-08
-2.02939e-07
-8.14932e-09
-2.08509e-07
-1.98508e-09
-2.08586e-07
4.76598e-09
-2.08467e-07
1.24459e-08
-2.08241e-07
1.48117e-08
-2.03088e-07
9.56786e-09
-1.93445e-07
-1.86822e-07
-1.05516e-08
-1.76141e-07
-8.59602e-09
-1.95167e-07
-6.91531e-09
-2.04619e-07
-5.99001e-09
-2.09435e-07
-2.03063e-09
-2.12545e-07
2.77113e-09
-2.13268e-07
5.55918e-09
-2.11029e-07
7.89878e-09
-2.05427e-07
1.02572e-08
-1.95803e-07
-1.76565e-07
-6.33255e-09
-1.69808e-07
-8.0693e-09
-1.9343e-07
-7.48986e-09
-2.05199e-07
-2.49846e-09
-2.14426e-07
1.07839e-09
-2.16122e-07
4.74012e-09
-2.1693e-07
9.19536e-09
-2.15485e-07
9.14158e-09
-2.05373e-07
6.7383e-09
-1.934e-07
-1.69827e-07
-1.75079e-08
-1.6403e-08
-1.23245e-08
-6.77298e-09
1.9901e-09
9.44705e-09
1.30321e-08
1.65913e-08
1.75901e-08
3.48774e-08
-1.57145e-07
1.22268e-07
3.82329e-08
-1.98316e-07
1.94961e-07
2.76974e-08
-2.10041e-07
2.20576e-07
1.32306e-08
-2.15069e-07
2.29535e-07
-3.85306e-09
-2.166e-07
2.33684e-07
-2.12171e-08
-2.16556e-07
2.3392e-07
-3.41331e-08
-2.16368e-07
2.29284e-07
-4.0105e-08
-2.11575e-07
2.17547e-07
-3.41942e-08
-1.9978e-07
1.93869e-07
-1.5855e-07
1.24356e-07
1.73772e-08
-1.74523e-07
2.04331e-08
-2.01372e-07
1.74349e-08
-2.07043e-07
1.05013e-08
-2.08135e-07
1.64768e-09
-2.07746e-07
-6.69268e-09
-2.08216e-07
-1.39608e-08
-2.091e-07
-1.79322e-08
-2.07603e-07
-1.6214e-08
-2.01498e-07
-1.74764e-07
9.38856e-09
-1.83911e-07
9.41432e-09
-2.01398e-07
8.20348e-09
-2.05832e-07
4.96638e-09
-2.04898e-07
1.93008e-09
-2.0471e-07
-1.72391e-09
-2.04562e-07
-7.12463e-09
-2.037e-07
-8.94766e-09
-2.0578e-07
-8.97589e-09
-2.0147e-07
-1.8374e-07
7.57061e-09
-1.91482e-07
5.89657e-09
-1.99724e-07
6.52636e-09
-2.06462e-07
1.06411e-09
-1.99436e-07
-6.68967e-10
-2.02977e-07
-2.23079e-09
-2.03e-07
-6.21129e-09
-1.99719e-07
-5.62099e-09
-2.06371e-07
-7.65818e-09
-1.99432e-07
-1.91398e-07
3.25686e-08
3.46159e-08
2.49091e-08
1.64263e-08
1.63605e-09
-1.35684e-08
-2.34421e-08
-3.40261e-08
-3.2336e-08
1.1375e-07
-2.09756e-08
-9.228e-08
1.19763e-07
-5.81277e-09
1.18307e-07
1.45692e-09
1.06648e-07
1.16588e-08
8.21403e-08
2.45077e-08
5.13504e-08
3.07899e-08
2.86117e-08
2.27387e-08
1.98174e-08
8.54827e-09
3.23387e-08
-1.26539e-08
-1.05923e-08
4.32497e-08
8.445e-08
2.64521e-09
-1.02702e-07
5.49268e-08
2.51243e-08
3.45128e-08
2.20136e-08
2.08435e-08
2.53281e-08
4.80306e-09
4.05482e-08
-1.79404e-08
5.35334e-08
-2.75106e-08
3.23189e-08
-1.14396e-08
-7.76858e-09
-4.61386e-09
-1.9472e-08
-8.72633e-09
-6.47983e-09
-1.95285e-09
-3.1887e-09
7.63596e-09
-6.70509e-09
2.98032e-08
-2.60638e-08
3.35943e-08
-3.64885e-08
3.14375e-08
-3.40688e-08
3.71727e-08
-2.82957e-08
4.64475e-08
-3.05837e-08
3.35155e-08
-3.33451e-08
-4.87275e-09
-2.64567e-08
-2.63243e-08
-1.74967e-08
-1.76864e-08
-3.45097e-08
-3.26675e-08
6.39151e-08
-2.12232e-08
1.64433e-08
-1.54855e-08
2.77832e-08
-1.10843e-08
2.14196e-08
4.68628e-09
1.75325e-08
3.30147e-08
1.87888e-08
4.99443e-08
1.7264e-08
4.68192e-08
-2.03479e-09
3.87255e-08
-1.8008e-08
-9.71382e-09
3.09426e-08
-9.17668e-09
-3.11663e-08
3.19399e-09
1.38086e-08
-3.69577e-09
2.1853e-08
2.53113e-08
3.07581e-08
1.83165e-08
4.95951e-08
2.13075e-09
7.12869e-08
-1.72665e-09
8.74591e-08
9.88402e-10
8.99924e-08
-4.5823e-09
7.37056e-08
-1.72108e-09
1.28497e-08
5.11422e-08
-3.32083e-08
-2.26295e-08
2.24091e-08
2.05861e-09
-3.88866e-08
4.73925e-08
-1.9821e-08
6.7887e-08
-1.87896e-09
6.76764e-08
2.47323e-09
6.274e-08
3.17316e-09
5.72107e-08
6.76414e-09
3.92256e-08
1.34024e-08
1.70501e-08
2.04537e-08
3.12492e-08
-1.41083e-09
2.14027e-08
-1.51038e-08
-2.98062e-08
3.70092e-09
-2.11015e-08
-5.8098e-09
-1.04083e-08
-9.14979e-09
1.42486e-09
-1.9808e-08
1.28812e-08
-3.29772e-08
1.63379e-08
-4.65433e-08
2.03221e-08
-6.2977e-08
2.98878e-08
-7.38426e-08
3.12866e-08
3.2075e-08
-7.47016e-08
-3.22185e-08
-2.55755e-09
1.96726e-08
-5.93124e-08
5.99258e-09
-7.83297e-08
8.74889e-09
-8.88381e-08
1.18372e-08
-9.34262e-08
1.74707e-08
-9.97679e-08
2.26807e-08
-1.05237e-07
2.59189e-08
-1.05146e-07
2.98483e-08
-1.04059e-07
3.03487e-08
2.83144e-08
-1.00308e-07
-1.14407e-07
1.48574e-08
9.69919e-08
-1.24022e-07
1.56078e-08
-1.26679e-07
1.14055e-08
-1.26302e-07
1.1462e-08
-1.26145e-07
1.73151e-08
-1.35195e-07
3.17214e-08
-1.48275e-07
3.89783e-08
-1.59454e-07
4.101e-08
-1.66471e-07
3.73583e-08
3.10344e-08
-1.69198e-07
-1.55623e-07
2.14215e-08
1.49123e-07
-1.62565e-07
2.0994e-08
-1.65023e-07
1.24524e-08
-1.55707e-07
2.14505e-09
-1.41474e-07
3.08323e-09
-1.35381e-07
2.49959e-08
-1.43606e-07
4.50464e-08
-1.54214e-07
5.16114e-08
-1.65965e-07
4.91027e-08
4.25819e-08
-1.77516e-07
-1.58041e-07
9.22634e-09
1.74195e-07
-1.47553e-07
1.16076e-08
-1.48443e-07
1.08831e-08
-1.44607e-07
-1.98665e-09
-1.32426e-07
-9.40695e-09
-1.12152e-07
4.3679e-09
-9.35584e-08
2.61431e-08
-7.86309e-08
3.6272e-08
-7.4209e-08
4.27913e-08
3.80305e-08
-7.58208e-08
-1.20973e-07
-6.33309e-09
1.27952e-07
-1.07889e-07
-4.50126e-09
-9.82345e-08
-1.55767e-09
-9.19877e-08
-6.13455e-09
-7.98404e-08
-1.59462e-08
-6.23085e-08
-1.62318e-08
-3.21939e-08
-4.78892e-09
-8.06389e-10
5.7724e-09
2.71049e-08
1.47137e-08
1.75205e-08
4.70203e-08
6.06927e-08
-6.61466e-10
-6.62966e-08
5.76326e-08
-3.22046e-09
6.16046e-08
-5.46916e-09
6.66668e-08
-1.24052e-08
7.82749e-08
-2.42481e-08
9.0765e-08
-2.77172e-08
1.1031e-07
-2.3799e-08
1.30107e-07
-1.3554e-08
1.458e-07
-5.07204e-10
5.03258e-09
1.58758e-07
1.32049e-07
-4.71044e-09
-1.27091e-07
1.36717e-07
-7.94879e-09
1.43604e-07
-1.48822e-08
1.50636e-07
-2.99645e-08
1.66389e-07
-4.49681e-08
1.90558e-07
-5.35012e-08
2.22271e-07
-5.72774e-08
2.60009e-07
-5.31492e-08
2.99512e-07
-4.18815e-08
-1.88505e-08
3.21517e-07
1.14061e-07
-1.92685e-08
-9.95647e-08
1.36574e-07
-3.05187e-08
1.57677e-07
-3.59777e-08
1.70599e-07
-4.29017e-08
1.79306e-07
-5.37056e-08
1.86514e-07
-6.07206e-08
1.94178e-07
-6.49551e-08
2.08526e-07
-6.75481e-08
2.29599e-07
-6.30039e-08
-4.43576e-08
2.54782e-07
7.87402e-08
-4.36086e-08
-5.00015e-08
1.15685e-07
-6.72896e-08
1.46385e-07
-6.67595e-08
1.6161e-07
-5.81212e-08
1.64742e-07
-5.6852e-08
1.60784e-07
-5.67928e-08
1.52427e-07
-5.66044e-08
1.39382e-07
-5.45148e-08
1.19796e-07
-4.34722e-08
-3.1718e-08
1.07074e-07
8.80194e-08
-6.65196e-08
-5.4409e-08
1.24403e-07
-9.90529e-08
1.51865e-07
-9.43487e-08
1.68866e-07
-7.52155e-08
1.73721e-07
-6.17355e-08
1.68696e-07
-5.17639e-08
1.55201e-07
-4.31178e-08
1.38921e-07
-3.82521e-08
1.19809e-07
-2.44002e-08
-1.6145e-08
1.04185e-07
1.26358e-07
-1.08114e-07
-8.16275e-08
1.57402e-07
-1.2658e-07
1.7985e-07
-1.16849e-07
2.02951e-07
-9.83543e-08
2.23981e-07
-8.27887e-08
2.34664e-07
-6.24193e-08
2.26298e-07
-3.47325e-08
2.07154e-07
-1.91091e-08
1.74007e-07
8.73273e-09
2.80254e-08
1.29824e-07
1.33345e-07
-1.51394e-07
-9.25564e-08
1.72263e-07
-1.65522e-07
2.15954e-07
-1.60517e-07
2.60371e-07
-1.42783e-07
2.92664e-07
-1.15065e-07
2.99334e-07
-6.90038e-08
2.96521e-07
-3.19121e-08
2.73947e-07
3.14938e-09
1.86892e-07
9.58486e-08
1.23624e-07
9.12621e-08
1.10075e-07
-2.0209e-07
-5.94072e-08
1.70942e-07
-2.26424e-07
2.42983e-07
-2.32585e-07
3.11103e-07
-2.10873e-07
3.32913e-07
-1.31253e-07
2.51192e-07
1.94196e-09
1.14137e-07
8.05118e-08
-4.29909e-08
1.36984e-07
-2.06192e-07
2.06352e-07
2.48751e-07
-3.42264e-07
7.06719e-08
-2.39722e-07
-3.30689e-08
1.17972e-07
-2.73752e-07
1.479e-07
-2.62551e-07
8.8922e-08
-1.1248e-07
6.69774e-09
-8.87891e-09
-2.56328e-08
3.4895e-08
-1.38861e-07
4.48092e-08
-4.61663e-07
2.14391e-07
-5.71275e-07
2.91399e-07
2.86419e-07
-6.08558e-07
6.10894e-10
-2.43806e-07
3.79838e-09
-1.90462e-08
-2.53546e-07
-3.75119e-08
-1.94963e-07
-2.70271e-08
-2.45704e-08
-5.6139e-08
2.00066e-08
-6.82438e-08
4.64322e-08
-1.38022e-07
7.22331e-08
-5.61212e-07
2.20192e-07
-5.78814e-07
3.08436e-07
2.74164e-07
-5.66949e-07
-6.95081e-08
-2.17421e-07
4.248e-08
-1.05357e-07
-2.16559e-07
-6.36456e-08
-1.21584e-07
-3.6741e-08
-1.25617e-09
-4.93857e-08
3.2613e-08
-5.41811e-08
5.10346e-08
-5.36982e-08
6.9791e-08
-3.54807e-07
9.53696e-08
-5.02064e-07
2.77048e-07
2.26304e-07
-4.54768e-07
-1.47634e-07
-1.60766e-07
9.03292e-08
-1.96313e-07
-1.68176e-07
-3.41248e-08
-1.042e-07
-3.75448e-08
2.14325e-09
-4.09112e-08
3.59994e-08
-3.75763e-08
4.76431e-08
-2.52094e-08
5.70534e-08
-3.00841e-08
6.07212e-08
-1.3077e-07
5.56754e-08
5.9724e-08
-2.13453e-07
-2.52768e-07
-9.23393e-08
1.83779e-07
-2.96351e-07
-1.24979e-07
-1.98903e-07
-8.06733e-08
-4.91634e-08
7.30913e-09
-4.0097e-08
2.6911e-08
-3.41232e-08
4.15864e-08
-2.56479e-08
4.84579e-08
-1.98943e-08
5.45912e-08
-2.3267e-08
5.77631e-08
5.15117e-08
-3.09404e-08
-2.5937e-07
2.96727e-08
1.34653e-07
-3.70714e-07
-1.46415e-08
-4.17997e-07
-2.65696e-08
-9.61563e-08
1.98869e-08
-4.82698e-08
1.97298e-08
-3.93244e-08
3.25667e-08
-3.30448e-08
4.20954e-08
-2.59926e-08
4.74188e-08
-2.19756e-08
5.33696e-08
5.26325e-08
-2.43815e-08
-1.4358e-07
1.07554e-07
6.26255e-08
-2.81343e-07
1.20162e-07
-3.96278e-07
8.19408e-08
-4.06045e-07
6.42295e-08
-1.99496e-07
1.0153e-07
-6.00284e-08
7.70108e-08
-5.49294e-08
3.68762e-08
-4.28751e-08
3.527e-08
-3.46138e-08
4.50283e-08
7.34104e-08
-5.51269e-08
6.10054e-08
1.56775e-07
-1.1047e-07
-6.41814e-09
1.88552e-07
-1.37396e-07
2.10129e-07
-2.81521e-07
2.09379e-07
-3.6333e-07
2.14236e-07
-1.99431e-07
2.07987e-07
-6.19238e-08
1.07713e-07
-7.21213e-08
4.53873e-08
-1.00792e-07
1.33657e-07
2.53621e-07
-1.96867e-07
2.93306e-07
2.14153e-07
-3.51082e-07
2.41868e-07
2.39772e-07
1.77975e-07
2.78049e-07
8.70723e-08
3.0805e-07
-9.11508e-09
3.09629e-07
-9.01391e-08
3.05252e-07
-1.1542e-07
2.97636e-07
-1.2668e-07
2.81793e-07
-1.13942e-07
2.79358e-07
2.62533e-07
-1.3975e-07
3.92625e-07
2.59538e-07
-4.3849e-07
3.39132e-07
2.93018e-07
2.98024e-07
3.19114e-07
2.68192e-07
3.38045e-07
2.37193e-07
3.41021e-07
2.15056e-07
3.27848e-07
2.05863e-07
3.07629e-07
2.11332e-07
2.9027e-07
2.32192e-07
2.82761e-07
2.74383e-07
2.40053e-07
5.44034e-07
2.34436e-07
-4.62655e-07
4.94548e-07
3.42462e-07
4.11409e-07
4.02416e-07
3.51593e-07
3.98256e-07
3.25002e-07
3.68051e-07
3.13912e-07
3.39357e-07
3.15648e-07
3.06352e-07
3.35884e-07
2.70834e-07
3.75982e-07
2.43248e-07
2.21017e-07
4.29431e-07
5.58132e-07
1.80923e-07
-5.4411e-07
5.27496e-07
3.21085e-07
4.67688e-07
2.94889e-07
4.27367e-07
2.89619e-07
4.17784e-07
2.86421e-07
3.86394e-07
2.96638e-07
3.78268e-07
3.15279e-07
3.73903e-07
2.75784e-07
3.91531e-07
2.25486e-07
1.76089e-07
4.36483e-07
5.64665e-07
1.28645e-07
-5.12496e-07
3.8683e-07
2.7321e-07
2.73984e-07
2.30069e-07
3.07499e-07
2.46944e-07
3.31537e-07
2.40479e-07
3.38357e-07
2.16664e-07
3.62998e-07
1.91268e-07
3.96474e-07
1.76349e-07
4.72303e-07
1.58423e-07
1.49529e-07
4.98947e-07
3.87344e-07
9.65e-08
-3.56972e-07
2.76626e-07
1.68668e-07
2.75867e-07
2.18652e-07
2.89445e-07
2.26172e-07
3.02198e-07
2.22906e-07
3.12286e-07
2.04201e-07
3.24995e-07
1.76092e-07
3.48057e-07
1.50859e-07
3.98156e-07
1.16825e-07
1.23344e-07
6.01213e-07
1.81509e-07
8.4747e-08
-1.78059e-07
1.96764e-07
1.35265e-07
2.48842e-07
2.17333e-07
2.35682e-07
2.43177e-07
2.55289e-07
2.00924e-07
2.9609e-07
1.60931e-07
3.2962e-07
1.40116e-07
3.54883e-07
1.23127e-07
3.64772e-07
1.10949e-07
1.8035e-07
6.91503e-07
1.74273e-07
8.93333e-08
-1.85788e-07
1.65466e-07
1.37386e-07
2.41514e-07
1.80478e-07
3.51356e-07
2.48542e-07
3.48755e-07
2.70259e-07
3.2074e-07
2.29153e-07
4.34688e-07
1.85181e-07
5.66569e-07
1.93315e-07
6.66171e-07
2.17009e-07
2.22761e-07
6.51614e-07
1.90654e-07
9.34045e-08
-2.04886e-07
1.86648e-07
1.34705e-07
2.11714e-07
1.48725e-07
3.88858e-07
1.99528e-07
4.51999e-07
2.16803e-07
4.80762e-07
2.05765e-07
4.89572e-07
2.01577e-07
4.99856e-07
2.06547e-07
4.97853e-07
2.21992e-07
2.4157e-07
4.79158e-07
2.41232e-07
1.39234e-07
-3.36818e-07
2.25179e-07
1.44071e-07
2.18783e-07
1.50884e-07
3.53975e-07
1.65016e-07
3.73076e-07
2.09004e-07
3.78444e-07
2.01162e-07
3.76974e-07
2.03204e-07
3.74918e-07
2.0867e-07
3.75841e-07
2.21105e-07
2.54511e-07
3.62919e-07
1.90033e-07
1.88679e-07
-3.07747e-07
1.73948e-07
1.55919e-07
1.71521e-07
1.48629e-07
2.74086e-07
1.51533e-07
2.96933e-07
2.16608e-07
2.90143e-07
2.0811e-07
2.94193e-07
1.9922e-07
3.03006e-07
1.99888e-07
3.09942e-07
2.14187e-07
2.75937e-07
2.88526e-07
1.13378e-07
2.1442e-07
-1.51828e-07
8.75094e-08
1.83994e-07
1.0697e-07
1.25924e-07
1.81986e-07
1.40319e-07
2.23355e-07
2.13155e-07
2.17775e-07
2.13769e-07
2.25572e-07
1.91452e-07
2.46453e-07
1.7903e-07
2.62122e-07
1.97124e-07
3.17498e-07
2.20569e-07
2.67994e-08
2.21112e-07
-3.33817e-08
2.92751e-08
2.20177e-07
4.27886e-08
1.71087e-07
8.01292e-08
1.59519e-07
1.30016e-07
1.68966e-07
1.38204e-07
2.05604e-07
1.46199e-07
1.8348e-07
1.62972e-07
1.62286e-07
1.58097e-07
1.70839e-07
2.22312e-07
1.27406e-07
-1.13448e-07
2.05682e-07
1.28923e-07
-6.16158e-08
1.71307e-07
-6.27224e-09
1.53961e-07
2.8517e-08
1.49465e-07
7.66693e-08
1.44193e-07
1.09258e-07
1.62557e-07
9.81478e-08
1.92995e-07
7.74649e-08
1.82998e-07
4.61026e-08
1.77719e-07
1.98052e-07
4.12262e-08
-1.62407e-07
1.68023e-07
2.00104e-07
-1.04189e-07
1.13134e-07
-3.78068e-08
8.80002e-08
1.5368e-08
9.68866e-08
2.59464e-08
1.34463e-07
2.37241e-08
1.63154e-07
2.51861e-08
1.93677e-07
1.2676e-08
1.95505e-07
4.2472e-09
1.95358e-07
2.16116e-07
3.15023e-08
-9.04245e-08
8.07839e-08
1.47346e-07
-6.37012e-08
5.97462e-08
-3.47993e-08
5.30316e-08
-1.87285e-08
8.14125e-08
-2.13905e-08
1.40198e-07
-2.75314e-08
1.8418e-07
-2.2095e-08
1.89094e-07
-1.09653e-08
1.84349e-07
3.18357e-09
1.85485e-07
2.2682e-07
4.24914e-08
-3.53593e-08
1.03514e-08
7.5127e-08
-3.04192e-08
2.43974e-09
-6.36571e-08
2.56915e-08
-1.01872e-07
9.91055e-08
-1.1801e-07
1.5723e-07
-1.06949e-07
1.73769e-07
-8.25169e-08
1.65148e-07
-5.03679e-08
1.52189e-07
-4.4676e-09
1.37353e-07
1.74461e-07
4.67428e-08
-8.33594e-08
-1.4373e-08
9.97496e-08
-7.8744e-08
-1.88093e-08
-3.48495e-07
-9.61478e-09
-3.55569e-07
9.25382e-08
-3.46918e-07
1.49676e-07
-3.07735e-07
1.3254e-07
-2.32498e-07
7.25861e-08
-1.24439e-07
4.2042e-08
-3.75933e-08
4.87747e-08
1.07669e-07
2.63452e-08
-1.30635e-07
-2.91181e-08
1.31435e-07
-1.10326e-07
-5.42935e-08
-1.21601e-07
-2.90167e-08
-3.78841e-07
-2.6576e-08
-4.23084e-07
-2.57293e-09
-3.40067e-07
-1.01233e-08
-2.45351e-07
-4.6434e-08
-1.586e-07
-4.4771e-08
-9.36331e-08
-1.62249e-08
4.89241e-08
-3.4885e-08
-3.20501e-07
-1.25625e-07
3.29564e-07
-2.65634e-07
-1.40674e-07
-1.94489e-07
-1.33442e-07
-2.41356e-07
-1.1547e-07
-2.6125e-07
-9.93733e-08
-1.9955e-07
-9.36159e-08
-1.71145e-07
-7.48889e-08
-1.6085e-07
-5.73768e-08
-1.3829e-07
-3.87806e-08
1.37802e-08
-1.03143e-07
-4.35929e-07
-1.57235e-07
4.67555e-07
-4.16577e-07
-1.60002e-07
-4.00754e-07
-1.49205e-07
-3.75752e-07
-1.38919e-07
-3.14019e-07
-1.20894e-07
-2.79669e-07
-1.29182e-07
-2.31635e-07
-1.24275e-07
-1.9712e-07
-1.00233e-07
-1.64279e-07
-8.81978e-08
-4.43628e-08
-1.09833e-07
-4.96694e-07
-1.91103e-07
5.30586e-07
-4.66917e-07
-1.89729e-07
-4.34196e-07
-1.81753e-07
-4.05929e-07
-1.66759e-07
-3.44481e-07
-1.56926e-07
-3.07504e-07
-1.67361e-07
-2.45835e-07
-1.87605e-07
-2.00294e-07
-1.81186e-07
-1.58751e-07
-1.42711e-07
-9.00722e-08
-1.28119e-07
-5.56515e-07
-2.40066e-07
6.0562e-07
-5.1186e-07
-2.34212e-07
-4.50625e-07
-2.42587e-07
-3.9393e-07
-2.21873e-07
-3.40703e-07
-1.87046e-07
-2.81302e-07
-2.07781e-07
-2.61329e-07
-2.47573e-07
-2.02917e-07
-2.38137e-07
-1.44859e-07
-1.99642e-07
-1.34099e-07
-9.98402e-08
-5.84431e-07
-2.61163e-07
6.95545e-07
-5.18909e-07
-2.1408e-07
-4.22966e-07
-2.95412e-07
-2.99051e-07
-3.14252e-07
-2.5927e-07
-2.60973e-07
-2.11598e-07
-2.75894e-07
-1.52211e-07
-3.05434e-07
-1.14062e-07
-2.74667e-07
-8.61318e-08
-2.13982e-07
-1.26187e-07
-8.22138e-08
-3.83249e-07
-2.47637e-07
5.85352e-07
-3.70971e-07
-2.48318e-07
-3.8822e-07
-3.61372e-07
-3.48674e-07
-4.18104e-07
-2.51997e-07
-4.39679e-07
-1.46128e-07
-4.28329e-07
-6.77572e-08
-3.85908e-07
-5.19824e-08
-2.21839e-07
-3.95003e-08
-1.38036e-07
-6.96003e-08
-4.20139e-08
-1.17065e-07
-2.31336e-07
3.47601e-07
-2.58066e-07
-2.20417e-07
-4.27482e-07
-3.65108e-07
-3.98322e-07
-4.55694e-07
-3.45508e-07
-5.20669e-07
-2.04927e-07
-4.16904e-07
-7.33398e-08
-4.68489e-07
-7.33962e-09
-2.53554e-07
-7.02432e-09
-1.38848e-07
-7.7861e-08
1.66447e-09
7.27147e-08
-9.24061e-08
-1.19277e-07
1.36159e-08
-1.0108e-07
-6.6821e-08
-2.31752e-07
-1.93091e-07
-3.70901e-07
-1.90151e-07
-3.75701e-07
-1.34911e-07
-4.56102e-07
-5.25264e-08
-4.44969e-07
5.27356e-08
-3.42652e-07
9.96381e-08
-2.04157e-07
-8.05873e-08
1.01794e-07
1.60735e-07
-9.3814e-08
-1.63861e-07
1.50734e-07
-9.85179e-08
3.68046e-07
-1.81542e-07
2.16388e-07
-2.78461e-07
1.49246e-07
-3.10972e-07
1.19077e-07
-4.28056e-07
1.23076e-07
-4.50732e-07
2.34518e-07
-4.63868e-07
2.67695e-07
-3.73755e-07
-8.97143e-08
2.24288e-07
1.70861e-07
-1.59694e-07
-1.27355e-07
1.74326e-07
-1.01878e-07
3.35596e-07
-1.74015e-07
2.61851e-07
-2.598e-07
3.32157e-07
-3.76566e-07
3.83778e-07
-4.82091e-07
3.98231e-07
-4.67278e-07
4.71883e-07
-4.31456e-07
4.9235e-07
-3.8923e-07
-9.89469e-08
3.61846e-07
2.49032e-07
-1.00276e-07
-5.26888e-07
1.68573e-07
-5.00361e-08
1.89381e-07
-1.45751e-07
2.68084e-07
-3.7333e-07
4.53236e-07
-5.51499e-07
5.29073e-07
-5.60382e-07
5.61735e-07
-5.02448e-07
6.41541e-07
-4.63397e-07
5.15903e-07
-2.63358e-07
-1.37018e-08
4.12677e-07
1.54703e-07
2.83671e-08
-3.79023e-07
6.11784e-08
-5.75783e-09
7.53867e-08
-1.27579e-07
2.71608e-07
-4.38727e-07
4.48768e-07
-7.3517e-07
5.76993e-07
-6.91531e-07
6.11126e-07
-5.86572e-07
4.64829e-07
-3.24969e-07
2.58226e-07
-5.85267e-08
1.21034e-07
1.06668e-07
-9.80459e-08
6.42547e-08
2.03424e-08
-1.32816e-07
1.7579e-08
-4.65579e-08
-1.97484e-07
5.3407e-08
-5.94626e-07
1.34339e-07
-8.23514e-07
1.05655e-07
-7.04035e-07
-8.23057e-08
-4.09744e-07
-2.61463e-07
-1.42984e-07
-3.52741e-07
5.19034e-08
1.12303e-07
-2.67268e-07
-1.09137e-07
1.6231e-07
-1.75197e-08
-1.32646e-07
6.52358e-08
-7.02566e-08
-1.56655e-07
-1.61684e-07
-5.91802e-07
-1.1919e-07
-8.58803e-07
-1.98791e-07
-6.5196e-07
-3.95698e-07
-2.20096e-07
-4.72076e-07
-6.56739e-08
-4.15509e-07
2.30883e-08
8.77223e-08
-3.43314e-07
-1.06222e-07
1.99624e-07
9.82475e-08
-6.01586e-08
9.40187e-08
-1.18939e-07
-9.46867e-08
-2.85896e-07
-4.50656e-07
-2.81668e-07
-8.57129e-07
-1.86895e-07
-7.16206e-07
-2.98632e-07
-7.52893e-08
-2.79083e-07
-8.50439e-08
-2.76703e-07
2.08878e-08
6.16186e-08
-2.50429e-07
-1.28339e-08
2.49361e-07
5.07819e-08
-4.60628e-09
8.89789e-08
-5.21785e-08
-4.90866e-08
-2.71633e-07
-2.15045e-07
-2.46216e-07
-8.75081e-07
-7.52004e-08
-9.16637e-07
-1.19966e-07
-4.46008e-08
-8.42944e-08
-6.79155e-08
-4.48697e-08
-1.60426e-08
6.39266e-08
-4.70069e-08
1.21116e-07
1.95439e-07
-6.86597e-08
8.89584e-08
9.84911e-08
7.79719e-08
-4.49012e-08
-6.6725e-09
-1.43963e-07
-4.79037e-08
-8.25557e-07
-6.48245e-09
-9.60665e-07
2.10386e-08
-8.74032e-08
9.39748e-08
-3.19219e-08
1.26867e-07
-2.73303e-09
6.1424e-08
1.0828e-07
1.52356e-07
1.33929e-07
-9.15898e-08
1.91145e-07
5.97022e-08
1.22034e-07
-2.87859e-08
3.74656e-08
-8.1553e-08
2.61156e-08
-8.25982e-07
3.26417e-08
-9.62915e-07
3.72528e-08
-1.39319e-07
1.18691e-07
-1.34376e-08
9.59469e-08
5.32514e-08
4.9985e-08
8.55772e-08
-4.32231e-09
8.01312e-08
3.42602e-08
1.34368e-08
4.19687e-08
3.15459e-09
-3.66647e-08
9.10976e-09
-7.79637e-08
4.00173e-08
-8.59009e-07
5.36586e-08
-9.72316e-07
5.48612e-08
-1.48568e-07
5.91038e-08
1.15293e-08
3.01017e-08
7.73565e-08
3.3284e-08
4.09265e-08
-3.72388e-08
3.04298e-08
5.15627e-08
3.27954e-08
-2.804e-08
3.58988e-08
-3.97426e-08
3.15303e-08
-4.21045e-08
5.68048e-08
-8.77035e-07
5.59728e-08
-9.67208e-07
3.05373e-08
-9.6344e-08
-3.04766e-08
5.21838e-08
-2.34888e-08
5.01919e-08
-7.50748e-09
1.79389e-08
-2.193e-08
-9.52951e-09
1.76434e-08
8.97829e-09
-5.89227e-08
-5.68014e-10
-1.22429e-08
5.04234e-09
-5.03781e-08
1.67487e-08
-8.81797e-07
-4.90592e-09
-9.3732e-07
0
-1.05035e-07
6.19036e-09
0
7.17686e-09
0
-2.16214e-10
7.38463e-10
-1.27978e-08
-1.97467e-11
0
-6.61031e-08
1.39312e-08
-2.97976e-08
1.47585e-08
-7.4259e-09
-8.00673e-08
3.35737e-09
-8.84452e-07
9.99558e-09
-9.40595e-07
0
-9.89524e-08
3.64293e-09
-1.14762e-11
2.32887e-09
1.79143e-10
3.99851e-10
1.23773e-09
2.25922e-10
8.00356e-12
-2.80266e-10
6.106e-08
2.08611e-08
0
7.2942e-08
8.11517e-09
-9.3162e-08
8.12025e-09
-8.72903e-07
-1.79981e-08
-9.11623e-07
-1.95382e-11
-1.1658e-07
1.05778e-12
-5.21114e-11
1.80497e-10
-1.78877e-12
6.18712e-13
6.11399e-10
-4.51644e-10
2.68662e-10
-8.37205e-11
-1.48686e-08
2.86905e-09
0
5.80328e-08
5.10139e-09
-1.02948e-07
5.78428e-09
-8.72826e-07
1.80568e-08
-9.22987e-07
5.02979e-11
-1.01841e-07
2.64404e-12
-4.17737e-12
2.34518e-12
-1.31296e-12
4.97133e-12
4.86306e-11
6.86765e-11
1.02058e-10
-3.06492e-11
1.06981e-09
1.21962e-09
0
7.13751e-08
5.00912e-09
-1.09098e-07
9.56937e-09
-8.80054e-07
-6.22314e-09
-9.06214e-07
-8.2015e-13
-1.07035e-07
-7.64119e-13
-3.92883e-12
-7.389e-13
-1.13388e-12
1.08192e-13
6.42398e-12
4.18521e-11
1.01114e-10
-8.7322e-11
1.09813e-09
1.4618e-10
2.75632e-09
8.88244e-08
4.01385e-09
-1.11783e-07
-6.94666e-10
-8.77205e-07
-8.16429e-09
-8.96181e-07
-6.4177e-13
-1.12166e-07
-4.95612e-13
-3.75612e-12
-5.95504e-13
-7.2942e-13
-8.4048e-13
6.62252e-13
9.18789e-11
1.19264e-10
-9.55236e-11
1.39351e-10
1.02217e-10
0
1.23979e-07
6.92406e-09
-1.20212e-07
-9.94393e-10
-8.71243e-07
-1.34713e-08
-8.82038e-07
-1.14854e-12
-1.22908e-07
-9.64921e-13
-3.75353e-12
-3.85458e-13
-3.15215e-12
-1.49993e-12
-8.34148e-13
8.52248e-11
2.15187e-10
-1.0797e-10
1.81893e-10
1.32862e-10
7.0239e-09
1.37555e-07
1.00011e-08
-1.30135e-07
4.83546e-09
-8.63455e-07
-5.60745e-09
-8.74863e-07
-4.32351e-12
-1.32153e-07
-4.52226e-12
-3.46393e-12
-9.18233e-14
-1.1103e-11
-5.59764e-12
-6.01352e-12
9.33179e-11
2.35171e-10
-5.77425e-11
3.53716e-10
8.72629e-10
8.5435e-09
1.47286e-07
1.29877e-08
-1.4095e-07
1.1227e-08
-8.57704e-07
-3.25354e-09
-8.64843e-07
-3.83161e-12
-1.41833e-07
-4.40964e-12
-2.95153e-12
-4.88992e-12
-1.02842e-11
-3.47243e-12
-3.08911e-11
0
4.25342e-10
0
-2.04035e-09
1.7807e-09
4.41337e-09
1.25245e-08
1.24671e-08
-1.52184e-07
6.82775e-09
-8.49943e-07
-6.9276e-09
-8.52777e-07
-3.71142e-12
-1.51921e-07
-4.2942e-12
-2.52994e-12
-5.97738e-12
-7.32542e-12
1.23608e-12
-2.74366e-11
-2.24995e-10
2.903e-10
1.18636e-10
-2.25527e-11
3.37238e-10
3.07688e-09
1.94019e-10
1.22593e-08
-1.62127e-07
2.25517e-09
-8.39674e-07
-9.18973e-09
-8.41314e-07
-3.8826e-12
-1.61524e-07
-4.46821e-12
-2.12431e-12
-4.45279e-12
-4.78358e-12
6.5665e-12
-2.84853e-11
-1.74041e-10
1.40237e-11
1.81623e-10
0
0
2.00994e-10
-7.07835e-12
1.42782e-08
-1.77335e-07
7.66222e-11
-8.26149e-07
-1.35089e-08
-8.27049e-07
-5.29968e-12
-1.74825e-07
-5.98688e-12
-1.72259e-12
0
-4.55833e-12
1.08262e-11
-2.37978e-11
-1.72089e-11
4.62224e-12
3.74603e-11
0
-5.22869e-12
9.33772e-13
-8.68334e-12
4.88606e-09
-1.86623e-07
-9.13001e-09
-8.14697e-07
-1.7603e-08
-8.15407e-07
-7.23924e-12
-1.86907e-07
-7.76352e-12
-1.41558e-12
0
-3.43975e-12
8.33408e-12
-6.13467e-12
0
-8.45549e-12
5.47981e-11
1.69106e-12
-1.97513e-12
1.57058e-12
-8.66702e-12
7.65282e-09
-2.00656e-07
-9.82907e-09
-7.99546e-07
-2.43146e-08
-7.98262e-07
-5.41715e-12
-2.04402e-07
-6.22837e-12
-6.3813e-13
-3.01515e-12
-1.22372e-12
1.37085e-11
-2.63802e-12
6.19267e-14
-3.81667e-12
-4.0207e-12
1.48211e-12
-1.33646e-12
1.35442e-12
-8.657e-12
1.67538e-08
-2.14718e-07
3.66901e-09
-7.8509e-07
-9.4335e-09
-7.86219e-07
-5.29269e-13
-2.16275e-07
-6.25484e-13
-5.46563e-13
-3.39427e-12
-8.10669e-14
2.38948e-12
3.48835e-12
1.74675e-12
-9.43544e-14
-9.41743e-12
1.16302e-12
-8.98686e-13
1.25497e-12
-8.86434e-12
2.56711e-08
-2.35817e-07
7.83339e-09
-7.66059e-07
-1.26881e-08
-7.67072e-07
-4.50675e-14
-2.33813e-07
-4.46851e-14
-5.51898e-13
-2.28587e-14
-1.07541e-13
6.14508e-15
4.30523e-13
2.94056e-13
2.79304e-13
-9.4375e-13
1.67762e-12
-2.6436e-12
2.73242e-12
-1.00651e-11
1.20558e-08
-2.5041e-07
-3.28791e-09
-7.51932e-07
-1.79185e-08
-7.51391e-07
-8.84284e-14
-2.48487e-07
-1.0519e-13
-5.398e-13
-1.5709e-13
-6.05947e-14
1.00921e-13
0
1.78554e-12
5.69614e-13
-2.33927e-12
1.4787e-11
-9.61584e-12
1.74654e-11
-1.28919e-11
1.18345e-08
-2.69438e-07
-1.00873e-08
-7.31985e-07
-3.12558e-08
-7.28426e-07
-1.3446e-13
-2.71098e-07
-1.16856e-13
-5.62357e-13
-5.04937e-15
-1.97166e-13
2.79402e-13
-3.75998e-14
1.93909e-11
5.01678e-12
-1.0913e-12
3.9414e-11
-1.85617e-11
4.49915e-11
-1.81736e-11
1.32029e-08
-2.86759e-07
-6.72665e-09
-7.12698e-07
-2.42167e-08
-7.10519e-07
-2.16417e-13
-2.90427e-07
-2.50666e-13
-5.52873e-13
-4.50736e-13
-5.51604e-14
5.41117e-12
-4.84064e-11
6.08533e-11
5.73092e-12
-6.15391e-11
7.03413e-11
-2.19288e-11
7.42575e-11
-1.98149e-11
2.48575e-08
-3.10028e-07
2.78546e-10
-6.87728e-07
-2.38327e-08
-6.86745e-07
-3.59903e-13
-3.13907e-07
-9.09313e-14
-8.79909e-13
-6.84182e-14
-9.12865e-14
-2.49553e-14
2.03576e-12
7.18329e-11
-1.56685e-12
-6.45073e-11
5.82359e-11
-8.44415e-12
6.64024e-11
-2.37469e-11
2.79188e-08
-3.32839e-07
5.96832e-09
-6.64966e-07
-1.69105e-08
-6.64845e-07
-2.78024e-12
-3.35559e-07
-6.16846e-14
-3.61207e-12
-6.52464e-14
-1.01629e-13
-6.61724e-14
-2.21966e-14
9.24451e-11
3.79793e-12
-9.77815e-11
6.25115e-11
2.62384e-11
7.65023e-11
-3.37818e-11
3.26712e-08
-3.61448e-07
6.76163e-09
-6.37991e-07
-2.20377e-08
-6.37019e-07
-2.34387e-11
-3.62712e-07
-1.05107e-13
-2.69596e-11
-1.16552e-13
-1.03797e-13
-8.59431e-14
-1.10459e-13
-1.9388e-11
-2.10765e-13
3.21943e-11
1.44055e-11
-2.67316e-14
1.94287e-10
-2.13932e-10
3.27082e-08
-3.88944e-07
6.64465e-09
-6.11491e-07
-1.92201e-08
-6.11598e-07
-2.05417e-10
-3.88097e-07
-2.29504e-13
-2.32169e-10
-2.27188e-13
-1.20009e-13
-5.57915e-13
-8.46134e-13
-8.78654e-14
-2.92259e-13
1.66134e-13
5.08789e-14
-1.68971e-13
1.62052e-09
-1.8344e-09
3.17755e-08
-4.17374e-07
1.53049e-09
-5.81221e-07
-2.72084e-08
-5.8288e-07
-1.73744e-09
-4.15881e-07
-5.86577e-13
-1.96904e-09
-6.03869e-13
-1.1631e-13
-3.10008e-14
-3.34279e-12
0
-7.15909e-13
2.83039e-13
9.01883e-14
-2.62557e-13
8.95227e-09
-1.07866e-08
2.56472e-08
-4.35591e-07
-2.3982e-10
-5.55239e-07
-2.96516e-08
-5.53545e-07
-1.00331e-08
-4.34926e-07
-3.15883e-14
-1.20021e-08
-4.70715e-15
-1.56451e-13
-4.10319e-15
-4.4864e-14
5.21138e-13
-3.38363e-13
-4.12233e-13
7.375e-13
-4.8199e-13
1.9764e-08
-3.065e-08
3.03417e-08
-4.45368e-07
1.45119e-09
-5.26249e-07
-3.21626e-08
-5.20017e-07
-1.99958e-08
-4.47608e-07
-4.15017e-13
-3.21608e-08
-1.17139e-13
-4.67607e-13
-2.34801e-13
-1.37832e-14
5.23958e-13
-2.84225e-13
-2.23766e-15
4.4465e-12
-4.40242e-12
3.55679e-08
-6.60476e-08
4.20691e-08
-4.50702e-07
7.90878e-10
-4.84926e-07
-2.58411e-08
-4.93438e-07
-3.22349e-08
-4.41868e-07
-7.05193e-12
-6.37027e-08
-3.94243e-12
-3.59269e-12
-1.08874e-12
-3.07001e-12
4.58873e-13
-2.00306e-13
-5.7616e-13
6.73812e-11
-7.1294e-11
4.66008e-08
-1.13204e-07
2.82241e-08
-4.32525e-07
-5.61e-09
-4.51108e-07
-4.79636e-08
-4.51073e-07
-4.97424e-08
-4.39516e-07
-7.13396e-11
-1.1129e-07
-8.0539e-12
-6.69091e-11
-1.8384e-13
-7.65684e-12
1.07136e-12
-4.92191e-13
-9.00586e-13
1.2849e-09
-1.35517e-09
7.8476e-08
-1.90351e-07
5.01724e-08
-4.04741e-07
1.04119e-08
-4.11343e-07
-3.15559e-08
-4.09112e-07
-7.04307e-08
-4.00028e-07
-1.4009e-09
-1.78931e-07
-1.29743e-12
-1.46628e-09
-4.0397e-13
-5.67089e-13
1.44105e-11
-1.40854e-11
-9.46975e-13
1.45869e-08
-1.59276e-08
7.64281e-08
-2.46863e-07
2.5807e-08
-3.54117e-07
-2.14458e-08
-3.64089e-07
-6.26185e-08
-3.6794e-07
-9.88596e-08
-3.63794e-07
-1.69309e-08
-2.66798e-07
-1.79744e-11
-1.8379e-08
-1.7513e-11
-6.01657e-13
8.98167e-10
-9.11555e-10
-7.69021e-13
6.14346e-08
-7.58823e-08
1.10708e-07
-2.94636e-07
7.3162e-08
-3.16568e-07
2.58215e-08
-3.16749e-07
-2.75577e-08
-3.1456e-07
-8.12277e-08
-3.10125e-07
-5.56813e-08
-2.93583e-07
-1.20034e-09
-7.38244e-08
-1.21779e-09
-6.2705e-14
2.87178e-08
-2.9629e-08
-3.66317e-13
1.38443e-07
-1.86898e-07
9.61006e-08
-2.5235e-07
3.8525e-08
-2.58992e-07
-1.69977e-08
-2.61226e-07
-6.77656e-08
-2.63793e-07
-1.11901e-07
-2.65989e-07
-1.48158e-07
-2.57301e-07
-3.01557e-08
-1.91485e-07
-3.13731e-08
-3.1554e-13
9.23826e-08
-1.09827e-12
1.00422e-07
6.86482e-08
3.91912e-08
1.16488e-08
-1.82235e-08
-5.49283e-08