/*--------------------------------*- C++ -*----------------------------------*\
  =========                 |
  \\      /  F ield         | OpenFOAM: The Open Source CFD Toolbox
   \\    /   O peration     | Website:  https://openfoam.org
    \\  /    A nd           | Version:  8
     \\/     M anipulation  |
\*---------------------------------------------------------------------------*/
FoamFile
{
    version     2.0;
    format      ascii;
    class       volVectorField;
    location    "5.55";
    object      U;
}
// * * * * * * * * * * * * * * * * * * * * * * * * * * * * * * * * * * * * * //

dimensions      [0 1 -1 0 0 0 0];

internalField   nonuniform List<vector> 
9150
(
(0.00494196 -0.0782151 0)
(0.0130549 -0.097465 0)
(0.0108631 -0.104396 0)
(0.00835822 -0.108135 0)
(0.00184699 -0.109656 0)
(-0.00311874 -0.109215 0)
(-0.00914008 -0.107365 0)
(-0.010892 -0.10431 0)
(-0.0131108 -0.0973953 0)
(-0.00490872 -0.0781628 0)
(0.00593117 -0.0920261 0)
(0.0085574 -0.100497 0)
(0.00736913 -0.102217 0)
(0.00442977 -0.104275 0)
(0.00208014 -0.105373 0)
(-0.00189309 -0.105629 0)
(-0.00425943 -0.104769 0)
(-0.00733258 -0.102306 0)
(-0.00859387 -0.100504 0)
(-0.00593293 -0.0920149 0)
(0.00175593 -0.0954649 0)
(0.00457613 -0.0989812 0)
(0.00371786 -0.101009 0)
(0.00331315 -0.101679 0)
(0.000758138 -0.102475 0)
(-0.000851431 -0.102388 0)
(-0.00332227 -0.10167 0)
(-0.00371325 -0.100993 0)
(-0.00458471 -0.0989749 0)
(-0.00175491 -0.095461 0)
(0.00174974 -0.0984237 0)
(0.00247618 -0.1004 0)
(0.00219014 -0.100239 0)
(0.00129009 -0.100839 0)
(0.000735817 -0.100857 0)
(-0.000479712 -0.100874 0)
(-0.0012636 -0.100883 0)
(-0.00217473 -0.100239 0)
(-0.00247775 -0.100395 0)
(-0.00175124 -0.0984214 0)
(0.000186669 -0.0994906 0)
(0.000727071 -0.0995754 0)
(0.000459538 -0.100011 0)
(0.000667196 -0.0998664 0)
(0.000112959 -0.100123 0)
(-0.000165559 -0.100099 0)
(-0.000683709 -0.0998745 0)
(-0.000481063 -0.0999944 0)
(-0.000728824 -0.099572 0)
(-0.000187786 -0.0994909 0)
(0.0759557 -0.194981 2.08833e-26)
(0.0494957 -0.185135 0)
(0.0306379 -0.176769 0)
(0.0158842 -0.176067 0)
(0.00465177 -0.176404 0)
(-0.004473 -0.175696 0)
(-0.0158541 -0.173581 0)
(-0.0307129 -0.175988 0)
(-0.0494359 -0.184659 0)
(-0.075925 -0.194692 -2.0679e-26)
(0.0583527 -0.1464 5.45834e-27)
(0.0483003 -0.146433 0)
(0.0280874 -0.156559 0)
(0.0201288 -0.157232 0)
(0.00360795 -0.155896 0)
(-0.00570568 -0.155559 0)
(-0.0212163 -0.156585 0)
(-0.0287237 -0.15645 0)
(-0.0485074 -0.146633 0)
(-0.0585423 -0.146527 -5.324e-27)
(0.0475627 -0.121423 2.63081e-27)
(0.0422425 -0.131159 0)
(0.0294386 -0.133543 0)
(0.017185 -0.137142 0)
(0.00506147 -0.140117 0)
(-0.00711314 -0.140474 0)
(-0.0182291 -0.138016 0)
(-0.0300429 -0.134202 0)
(-0.0426033 -0.131573 0)
(-0.0477176 -0.121597 -2.66846e-27)
(0.0373026 -0.0994281 4.23808e-27)
(0.0393386 -0.110284 0)
(0.0227575 -0.120295 0)
(0.0179126 -0.124753 0)
(0.00493663 -0.124871 0)
(-0.00383663 -0.12546 0)
(-0.0168922 -0.125501 0)
(-0.0221052 -0.120308 0)
(-0.0389815 -0.110288 0)
(-0.0372504 -0.0995179 -4.22081e-27)
(0.0247812 -0.081528 -1.31388e-26)
(0.0280588 -0.101178 -1.55025e-26)
(0.0200743 -0.108292 -3.85169e-27)
(0.0112366 -0.113853 -3.40174e-27)
(0.00544722 -0.116858 -1.36097e-28)
(-0.00353977 -0.116968 -1.3501e-28)
(-0.0106213 -0.113935 -3.49438e-27)
(-0.019986 -0.108253 -3.86313e-27)
(-0.0279809 -0.101149 -1.5465e-26)
(-0.0247543 -0.0815092 -1.31322e-26)
(0.0185824 -0.145911 0)
(0.0134023 -0.204948 0)
(0.0220215 -0.217244 0)
(0.0070444 -0.224339 0)
(0.00550016 -0.226181 0)
(-0.00929925 -0.225814 0)
(-0.0124044 -0.223182 0)
(-0.0234164 -0.216073 0)
(-0.0131853 -0.205334 0)
(-0.01836 -0.146282 0)
(0.016493 -0.165728 0)
(0.00218856 -0.198987 0)
(0.0158746 -0.208524 0)
(0.00318457 -0.2129 0)
(0.00646339 -0.214417 0)
(-0.00484048 -0.214736 0)
(-0.000834178 -0.215131 0)
(-0.0143474 -0.209932 0)
(-0.00138917 -0.199854 0)
(-0.0161602 -0.166437 0)
(0.0148274 -0.172128 0)
(-0.00384264 -0.203506 0)
(0.011023 -0.208489 0)
(-0.000827229 -0.209832 0)
(0.00451836 -0.209972 0)
(-0.00281916 -0.210323 0)
(0.00178773 -0.209413 0)
(-0.0108173 -0.20855 0)
(0.00399789 -0.203547 0)
(-0.0145243 -0.172249 0)
(0.0178164 -0.194238 0)
(-0.00685607 -0.204237 0)
(0.00983424 -0.210278 0)
(-0.000764054 -0.206865 0)
(0.00114825 -0.207162 0)
(-0.00194608 -0.206891 0)
(0.000773273 -0.205914 0)
(-0.00951567 -0.210224 0)
(0.00678367 -0.204259 0)
(-0.0178612 -0.194249 0)
(0.0348972 -0.217581 0)
(0.00924255 -0.204333 0)
(0.0164261 -0.203606 0)
(0.0120015 -0.195927 0)
(0.00273781 -0.192829 0)
(-0.00113388 -0.192813 0)
(-0.0108199 -0.196422 0)
(-0.0161069 -0.202676 0)
(-0.00907242 -0.203602 0)
(-0.0347934 -0.217328 0)
(0.0524288 -0.0250203 0)
(0.0593039 -0.015344 0)
(0.0629461 -0.0033361 0)
(0.0589386 0.009609 0)
(0.0499049 0.0224124 0)
(0.0347275 0.0211516 0)
(0.0185157 0.0179432 0)
(0.00921208 0.0210087 0)
(0.0119557 -0.00844241 0)
(0.0197464 -0.0171982 0)
(0.0588513 -0.0188535 0)
(0.0411406 0.00294471 0)
(0.0187578 0.00496723 0)
(0.014137 0.0103032 0)
(0.00703039 0.0240843 0)
(-0.00123446 0.0430371 0)
(-0.0181 0.0304769 0)
(-0.00835894 -0.00183707 0)
(-0.00380758 -0.0152085 0)
(-0.000981529 -0.00430468 0)
(-0.00476484 0.0242989 0)
(0.00314956 0.054962 0)
(-0.0114193 0.0455333 0)
(-0.0186968 0.0429944 0)
(-0.0183469 0.0523811 0)
(-0.0131545 0.0583802 0)
(-0.0171532 0.0306952 0)
(-0.0150065 -0.0158753 0)
(-0.0162177 -0.0271794 0)
(-0.0104301 -0.0145905 0)
(-0.0335131 -0.0277899 0)
(-0.0156616 0.0321711 0)
(-0.0117933 0.0335945 0)
(-0.00966973 0.0253929 0)
(-0.0050453 0.030565 0)
(0.0108336 0.0428126 0)
(0.0195182 0.0385171 0)
(0.0288842 0.00599972 0)
(0.0223469 -0.0231804 0)
(0.0171871 -0.0187679 0)
(-0.00566532 -0.0489122 0)
(-0.00128193 0.0157358 0)
(0.0135312 0.0445732 0)
(0.0139146 0.0307097 0)
(0.0205469 0.00372562 0)
(0.0291892 -0.00455614 0)
(0.040674 0.00069903 0)
(0.0466873 -0.00826357 0)
(0.0437551 -0.0112281 0)
(0.0327454 -0.000698907 0)
(-0.0179251 -0.0272279 0)
(-0.0106912 -0.0256412 0)
(0.012944 -0.000194841 0)
(0.0332608 0.00436173 0)
(0.037025 0.00171016 0)
(0.0328578 0.000573148 0)
(0.0315383 0.000263479 0)
(0.0263636 -0.002856 0)
(0.0138045 0.00675253 0)
(0.00381283 0.0242172 0)
(0.0151721 -0.0173201 0)
(0.00629341 -0.0466057 0)
(-0.00136725 -0.0346398 0)
(-0.00485007 -0.00910387 0)
(-0.0045848 0.00293492 0)
(-0.01268 0.00658815 0)
(-0.019814 0.0151677 0)
(-0.0281698 0.0318291 0)
(-0.0351913 0.0356705 0)
(-0.0370439 0.0384423 0)
(-0.010963 -0.0123899 0)
(-0.0239682 0.00290953 0)
(-0.0364481 0.0111737 0)
(-0.0432476 0.012541 0)
(-0.0439777 0.0213342 0)
(-0.0490471 0.0230167 0)
(-0.0515469 0.0222917 0)
(-0.0527216 0.0258413 0)
(-0.052784 0.0277608 0)
(-0.0515311 0.0288437 0)
(-0.0541597 0.00654336 0)
(-0.0614533 0.00899512 0)
(-0.0632442 0.0080504 0)
(-0.0636957 0.0106322 0)
(-0.0618497 0.0163617 0)
(-0.0635334 0.0253961 0)
(-0.0723996 0.0328226 0)
(-0.0772572 0.0364559 0)
(-0.0820932 0.0342912 0)
(-0.0847708 0.028585 0)
(-0.0767402 0.0231949 0)
(-0.0808855 0.0227481 0)
(-0.0838507 0.0151296 0)
(-0.0814555 0.0113798 0)
(-0.0738766 0.0156804 0)
(-0.0671379 0.036001 0)
(-0.0690616 0.0440728 0)
(-0.0748594 0.0447576 0)
(-0.0811205 0.0390851 0)
(-0.087247 0.0313263 0)
(-0.0884989 0.0225378 0)
(-0.0832844 0.0196974 0)
(-0.0807081 0.0102592 0)
(-0.0791202 -0.00622474 0)
(-0.0763692 -0.0078911 0)
(-0.0650906 0.0195973 0)
(-0.0533471 0.0491367 0)
(-0.0460369 0.0556102 0)
(-0.0434824 0.0554889 0)
(-0.0412579 0.0500147 0)
(-0.0659462 -0.00417138 0)
(-0.0586414 0.00566758 0)
(-0.0529563 0.00880533 0)
(-0.0479167 0.000426299 0)
(-0.0454454 -0.011786 0)
(-0.0368343 -0.00918431 0)
(-0.0256101 0.00678294 0)
(-0.00710192 0.022094 0)
(0.00667919 0.0362229 0)
(0.0209962 0.0336586 0)
(0.0319532 -0.00484985 0)
(0.0304416 -0.0121318 0)
(0.0296431 -0.0106183 0)
(0.0317305 -0.0118723 0)
(0.0392024 -0.0215365 0)
(0.0441753 -0.0217129 0)
(0.0504548 -0.0147261 0)
(0.0612669 -0.00769283 0)
(0.0684658 -0.000375426 0)
(0.07641 0.000919429 0)
(0.0649802 0.00315139 0)
(0.0681404 0.00406488 0)
(0.0703944 -0.0016803 0)
(0.077263 -0.0157832 0)
(0.085855 -0.0339636 0)
(0.0965314 -0.0420284 0)
(0.108763 -0.0413702 0)
(0.127002 -0.0275799 0)
(0.149735 -0.00444294 0)
(0.168266 0.00886896 0)
(0.0514092 -0.0100408 0)
(0.0606197 -0.0168516 0)
(0.0743154 -0.0249884 0)
(0.0837361 -0.0397835 0)
(0.0878559 -0.0538991 0)
(0.0912411 -0.0623052 0)
(0.0938146 -0.068873 0)
(0.0991114 -0.0743326 0)
(0.107153 -0.0737086 0)
(0.120932 -0.0520244 0)
(0.0286864 -0.0282648 0)
(0.0474366 -0.046152 0)
(0.0668672 -0.0492089 0)
(0.0778419 -0.0477095 0)
(0.0818299 -0.0536442 0)
(0.0820493 -0.0589634 0)
(0.0783018 -0.0614705 0)
(0.0731898 -0.0615173 0)
(0.0663688 -0.0523705 0)
(0.0540552 -0.0350121 0)
(0.0354327 -0.0637089 0)
(0.0546555 -0.0886184 0)
(0.068984 -0.0827704 0)
(0.0810161 -0.0647601 0)
(0.0863885 -0.0548807 0)
(0.0862414 -0.0491834 0)
(0.0814655 -0.0469936 0)
(0.0753277 -0.0444011 0)
(0.0626141 -0.0360871 0)
(0.0549906 -0.034358 0)
(0.0530772 -0.0903366 0)
(0.0744123 -0.1108 0)
(0.0835149 -0.10417 0)
(0.095603 -0.0812075 0)
(0.107614 -0.0600247 0)
(0.111611 -0.0444538 0)
(0.118787 -0.0293662 0)
(0.111069 -0.0224786 0)
(0.0968614 -0.00592995 0)
(0.0770732 0.00560773 0)
(0.0551987 -0.135625 0)
(0.0764139 -0.146206 0)
(0.0980795 -0.13167 0)
(0.120093 -0.111884 0)
(0.138386 -0.0958622 0)
(0.151639 -0.0640975 0)
(0.148576 -0.029442 0)
(0.139546 -0.0121299 0)
(0.121986 0.0273113 0)
(0.0752482 0.0544513 0)
(0.0452733 -0.18035 0)
(0.0710455 -0.20099 0)
(0.104645 -0.20996 0)
(0.141038 -0.1981 0)
(0.164807 -0.160136 0)
(0.16858 -0.0918447 0)
(0.122614 -0.0408623 0)
(0.0117154 0.0233354 0)
(-0.0608458 0.15031 0)
(-0.135903 0.185327 0)
(0.0260288 -0.232035 0)
(0.0497552 -0.267146 0)
(0.0733941 -0.274321 0)
(0.0741969 -0.249102 0)
(0.0650648 -0.184191 0)
(-0.0426917 0.11333 0)
(-0.133254 0.255385 0)
(-0.253294 0.301071 0)
(-0.283611 0.315969 0)
(-0.299238 0.300975 0)
(0.00341825 -0.256954 0)
(0.00144911 -0.280651 0)
(-0.020962 -0.258761 0)
(-0.0511703 -0.144013 0)
(-0.114039 0.133072 0)
(-0.213839 0.391188 0)
(-0.239466 0.446945 0)
(-0.288543 0.363783 0)
(-0.295001 0.315094 0)
(-0.289163 0.297482 0)
(-0.0247678 -0.240291 0)
(-0.0426117 -0.238337 0)
(-0.0743686 -0.209968 0)
(-0.101358 -0.0455479 0)
(-0.135468 0.209502 0)
(-0.190088 0.375737 0)
(-0.191021 0.458823 0)
(-0.241828 0.393699 0)
(-0.26649 0.315489 0)
(-0.247626 0.254897 0)
(-0.0596162 -0.183534 0)
(-0.0893312 -0.187154 0)
(-0.127582 -0.150039 0)
(-0.130694 0.0524672 0)
(-0.115759 0.264994 0)
(-0.149114 0.362691 0)
(-0.115487 0.448562 0)
(-0.0946428 0.448062 0)
(-0.149246 0.341031 0)
(-0.156432 0.234544 0)
(-0.113359 -0.145752 0)
(-0.137564 -0.155637 0)
(-0.173187 -0.112139 0)
(-0.197491 0.0129882 0)
(-0.132985 0.260991 0)
(-0.129784 0.332604 0)
(-0.0976135 0.374844 0)
(-0.0693048 0.423144 0)
(-0.0666791 0.387054 0)
(-0.0872343 0.285151 0)
(-0.0931932 -0.0406504 0)
(-0.164446 -0.0870006 0)
(-0.214617 -0.0398502 0)
(-0.234107 0.0453291 0)
(-0.191734 0.140453 0)
(-0.133899 0.27211 0)
(-0.121703 0.349702 0)
(-0.0961524 0.384038 0)
(-0.0699227 0.374034 0)
(-0.0779047 0.339623 0)
(-0.038427 0.0871549 0)
(-0.110685 0.0454676 0)
(-0.180797 -0.0138798 0)
(-0.214755 0.0205173 0)
(-0.231766 0.129887 0)
(-0.217652 0.252756 0)
(-0.190985 0.297673 0)
(-0.165075 0.291576 0)
(-0.116586 0.340809 0)
(-0.110836 0.37974 0)
(0.0394911 0.134486 0)
(0.0163275 0.181948 0)
(-0.0307032 0.176173 0)
(-0.118828 0.117423 0)
(-0.187033 0.129628 0)
(-0.203993 0.195072 0)
(-0.188343 0.236648 0)
(-0.163342 0.240751 0)
(-0.164677 0.307475 0)
(-0.167855 0.312573 0)
(0.161135 0.165142 0)
(0.131393 0.192677 0)
(0.107343 0.247675 0)
(0.064876 0.288818 0)
(0.0137759 0.277328 0)
(-0.040538 0.259188 0)
(-0.0712134 0.256216 0)
(-0.0989276 0.258765 0)
(-0.12264 0.29397 0)
(-0.122245 0.308065 0)
(0.206951 0.247776 0)
(0.175076 0.265116 0)
(0.156241 0.288019 0)
(0.147323 0.318116 0)
(0.126818 0.339214 0)
(0.105621 0.343962 0)
(0.0996271 0.338012 0)
(0.102779 0.325934 0)
(0.100501 0.32417 0)
(0.11953 0.318418 0)
(0.295466 0.263076 0)
(0.268456 0.320142 0)
(0.226353 0.351511 0)
(0.186498 0.355727 0)
(0.168996 0.344339 0)
(0.166601 0.323709 0)
(0.154602 0.304267 0)
(0.160275 0.289306 0)
(0.171593 0.280777 0)
(0.200018 0.269575 0)
(0.312832 0.226671 0)
(0.32921 0.368461 0)
(0.310035 0.447248 0)
(0.268646 0.456474 0)
(0.227542 0.406995 0)
(0.199708 0.351484 0)
(0.190896 0.306344 0)
(0.196083 0.259988 0)
(0.189483 0.22225 0)
(0.202891 0.186003 0)
(0.28791 0.127554 0)
(0.314786 0.328469 0)
(0.315027 0.474247 0)
(0.313371 0.503872 0)
(0.310386 0.480992 0)
(0.28713 0.420435 0)
(0.264197 0.367909 0)
(0.239472 0.313239 0)
(0.244562 0.239597 0)
(0.24596 0.169097 0)
(0.198785 0.093575 0)
(0.226308 0.278717 0)
(0.262815 0.457928 0)
(0.289508 0.488099 0)
(0.30008 0.476533 0)
(0.310237 0.430731 0)
(0.321889 0.374544 0)
(0.327185 0.329777 0)
(0.334258 0.256974 0)
(0.336237 0.182067 0)
(0.167112 0.127639 0)
(0.145352 0.217817 0)
(0.173382 0.367703 0)
(0.211898 0.425623 0)
(0.246126 0.439488 0)
(0.276711 0.40191 0)
(0.320548 0.341272 0)
(0.350063 0.28936 0)
(0.364935 0.238444 0)
(0.365077 0.196994 0)
(0.158492 0.174728 0)
(0.145724 0.241959 0)
(0.150266 0.297371 0)
(0.181303 0.32088 0)
(0.224115 0.311807 0)
(0.266798 0.268746 0)
(0.300053 0.227089 0)
(0.3305 0.219785 0)
(0.34448 0.217062 0)
(0.342515 0.210552 0)
(0.158588 0.137027 0)
(0.168133 0.250598 0)
(0.17128 0.279278 0)
(0.180891 0.267542 0)
(0.210493 0.242737 0)
(0.237527 0.217991 0)
(0.249472 0.205125 0)
(0.254224 0.20664 0)
(0.26168 0.218811 0)
(0.255185 0.236924 0)
(0.192751 0.142847 0)
(0.186824 0.24561 0)
(0.185677 0.280924 0)
(0.18458 0.258554 0)
(0.185132 0.215147 0)
(0.190937 0.202952 0)
(0.190618 0.202495 0)
(0.18836 0.2081 0)
(0.19131 0.221243 0)
(0.19451 0.25081 0)
(0.158163 0.183889 0)
(0.152317 0.255954 0)
(0.152865 0.284114 0)
(0.159927 0.266187 0)
(0.155381 0.223912 0)
(0.145171 0.205683 0)
(0.146517 0.204823 0)
(0.14803 0.206502 0)
(0.15326 0.21498 0)
(0.16096 0.250087 0)
(0.0678707 0.223306 0)
(0.0663588 0.263256 0)
(0.0771963 0.263841 0)
(0.107104 0.256227 0)
(0.115793 0.234658 0)
(0.115365 0.217771 0)
(0.108682 0.196859 0)
(0.11563 0.19355 0)
(0.126299 0.207507 0)
(0.135592 0.279348 0)
(0.00560047 0.21655 0)
(0.0171713 0.238507 0)
(0.0210191 0.222632 0)
(0.0370798 0.213568 0)
(0.0589937 0.223111 0)
(0.0701522 0.214908 0)
(0.0732836 0.190837 0)
(0.0760102 0.168862 0)
(0.0844882 0.187201 0)
(0.098712 0.326072 0)
(-0.078363 0.225808 0)
(-0.0464228 0.214195 0)
(-0.018286 0.195624 0)
(0.00406046 0.184237 0)
(0.0238292 0.181268 0)
(0.0497151 0.19631 0)
(0.0548665 0.184445 0)
(0.045576 0.163837 0)
(0.0317109 0.181131 0)
(0.0381876 0.346246 0)
(-0.0939972 0.186029 0)
(-0.0760407 0.138684 0)
(-0.038743 0.116154 0)
(-0.00415971 0.116344 0)
(0.00970706 0.133914 0)
(0.0113949 0.166282 0)
(0.0161163 0.190763 0)
(0.00669119 0.190338 0)
(-0.000158683 0.197695 0)
(0.00489907 0.308913 0)
(-0.0606983 0.158608 0)
(-0.0462238 0.0965585 0)
(-0.0264508 0.0695338 0)
(-0.0150429 0.0740168 0)
(-0.0124449 0.123063 0)
(-0.0140082 0.183153 0)
(-0.0166551 0.197841 0)
(-0.00991822 0.187237 0)
(-0.00789298 0.192954 0)
(0.00827665 0.244487 0)
(-0.110338 0.0936668 0)
(-0.0655403 0.0688907 0)
(-0.0437292 0.0302421 0)
(-0.0468162 0.0679288 0)
(-0.0555991 0.141245 0)
(-0.0606881 0.176888 0)
(-0.0490637 0.188021 0)
(-0.0391681 0.186069 0)
(-0.0171309 0.178635 0)
(0.0073982 0.210869 0)
(-0.364144 -0.0313324 0)
(-0.284649 -0.0580902 0)
(-0.208065 0.0715177 0)
(-0.169481 0.159155 0)
(-0.174076 0.190913 0)
(-0.176422 0.191802 0)
(-0.143684 0.150538 0)
(-0.0837814 0.123199 0)
(-0.0446793 0.107978 0)
(-0.00070048 0.145401 0)
(-0.513158 -0.167798 0)
(-0.495546 -0.208308 0)
(-0.471666 -0.151103 0)
(-0.354162 0.0428305 0)
(-0.307728 0.0951291 0)
(-0.226949 0.0623669 0)
(-0.137219 -0.0193006 0)
(-0.104233 -0.0479786 0)
(-0.0621243 -0.0194447 0)
(-0.0359266 0.0602147 0)
(-0.247553 -0.123762 0)
(-0.25693 -0.162808 0)
(-0.273769 -0.172965 0)
(-0.26557 -0.161443 0)
(-0.191421 -0.107281 0)
(-0.130138 -0.0937617 0)
(-0.101462 -0.0806322 0)
(-0.0872764 -0.0479748 0)
(-0.08311 -0.0170058 0)
(-0.0598679 0.0359954 0)
(-0.235105 -0.127426 0)
(-0.224039 -0.132372 0)
(-0.218944 -0.1259 0)
(-0.209865 -0.129777 0)
(-0.203027 -0.141373 0)
(-0.193803 -0.140515 0)
(-0.159606 -0.1158 0)
(-0.129919 -0.089652 0)
(-0.100662 -0.065668 0)
(-0.069738 -0.00869959 0)
(-0.270711 -0.196888 0)
(-0.253103 -0.196305 0)
(-0.23061 -0.182834 0)
(-0.220802 -0.16911 0)
(-0.213183 -0.167985 0)
(-0.198391 -0.188549 0)
(-0.170599 -0.196045 0)
(-0.138696 -0.157071 0)
(-0.10763 -0.126521 0)
(-0.0854485 -0.0779706 0)
(-0.303058 -0.211095 0)
(-0.281431 -0.213793 0)
(-0.251053 -0.211365 0)
(-0.212579 -0.192816 0)
(-0.191802 -0.186084 0)
(-0.167153 -0.21257 0)
(-0.146632 -0.23873 0)
(-0.115151 -0.226319 0)
(-0.0833235 -0.182565 0)
(-0.0613558 -0.123333 0)
(-0.357995 -0.280327 0)
(-0.310332 -0.265517 0)
(-0.258596 -0.290348 0)
(-0.19684 -0.265734 0)
(-0.163296 -0.240614 0)
(-0.126092 -0.264573 0)
(-0.0866745 -0.300792 0)
(-0.0631652 -0.288124 0)
(-0.0484428 -0.238623 0)
(-0.044341 -0.152149 0)
(-0.407346 -0.392203 0)
(-0.373194 -0.406122 0)
(-0.333113 -0.453251 0)
(-0.279757 -0.443472 0)
(-0.193499 -0.36642 0)
(-0.11148 -0.3476 0)
(-0.0484652 -0.354119 0)
(-0.028485 -0.289551 0)
(-0.0237648 -0.244003 0)
(-0.0302185 -0.131321 0)
(-0.269265 -0.434273 0)
(-0.291068 -0.459888 0)
(-0.277306 -0.522732 0)
(-0.26987 -0.546139 0)
(-0.219038 -0.566029 0)
(-0.161981 -0.525332 0)
(-0.0644108 -0.468822 0)
(-0.0248285 -0.302092 0)
(0.00672622 -0.23751 0)
(-0.00557878 -0.130485 0)
(0.118446 -0.315467 0)
(0.0486663 -0.374111 0)
(0.0152065 -0.444721 0)
(-0.0621871 -0.523752 0)
(-0.11498 -0.615113 0)
(-0.112559 -0.686087 0)
(-0.0448337 -0.637739 0)
(0.00289539 -0.435437 0)
(0.0911655 -0.249967 0)
(0.0884145 -0.135937 0)
(0.242753 -0.257979 0)
(0.22779 -0.279633 0)
(0.225967 -0.299317 0)
(0.183539 -0.340883 0)
(0.12871 -0.452401 0)
(0.137972 -0.674941 0)
(0.105109 -0.703441 0)
(0.117906 -0.632615 0)
(0.18021 -0.407328 0)
(0.208916 -0.126826 0)
(0.240588 -0.247002 0)
(0.220429 -0.323631 0)
(0.216876 -0.291923 0)
(0.200683 -0.305076 0)
(0.178523 -0.416088 0)
(0.283415 -0.607568 0)
(0.326029 -0.642107 0)
(0.32332 -0.603099 0)
(0.254513 -0.469099 0)
(0.279782 -0.165409 0)
(0.243502 -0.132877 0)
(0.175282 -0.23359 0)
(0.121222 -0.232843 0)
(0.139873 -0.323195 0)
(0.223293 -0.644615 0)
(0.393426 -0.783765 0)
(0.413258 -0.726093 0)
(0.394854 -0.601033 0)
(0.314256 -0.391737 0)
(0.260817 -0.0920747 0)
(0.190711 -0.0742726 0)
(0.0774938 -0.0218477 0)
(0.0159254 -0.133203 0)
(0.0971399 -0.625498 0)
(0.255173 -1.02167 0)
(0.350615 -0.989411 0)
(0.379889 -0.795293 0)
(0.293761 -0.563493 0)
(0.186258 -0.251903 0)
(0.0988679 0.0290594 0)
(-0.0805129 0.128651 0)
(-0.0968576 -0.0172815 0)
(-0.0988633 -0.243693 0)
(0.0269236 -0.944224 0)
(0.0231745 -1.14279 0)
(0.0366547 -0.996312 0)
(0.0179528 -0.500482 0)
(-0.129706 -0.149126 0)
(-0.173138 0.107662 0)
(-0.217233 0.219095 0)
(-0.0414548 0.282264 0)
(-0.146635 0.102125 0)
(-0.105129 -0.371766 0)
(-0.161329 -0.964218 0)
(-0.143568 -1.10746 0)
(-0.110221 -0.856107 0)
(-0.132521 -0.227987 0)
(-0.250153 -0.0682911 0)
(-0.227301 0.0413762 0)
(-0.209218 0.127032 0)
(-0.077249 0.383176 0)
(-0.122307 0.175037 0)
(-0.136329 -0.470507 0)
(-0.20978 -0.970446 0)
(-0.191084 -1.11862 0)
(-0.200803 -0.952655 0)
(-0.154074 -0.213246 0)
(-0.145101 -0.0730278 0)
(-0.139443 -0.00327397 0)
(-0.143549 0.0519464 0)
(-0.0378568 0.401323 0)
(-0.00421211 0.332645 0)
(0.0020741 -0.289398 0)
(-0.17458 -0.890979 0)
(-0.128995 -1.14037 0)
(-0.116499 -1.11536 0)
(-0.155663 -0.233692 0)
(-0.0394321 -0.133148 0)
(-0.0303607 0.0277201 0)
(-0.0240599 0.0652844 0)
(0.0580181 0.36068 0)
(0.109686 0.267874 0)
(0.170634 -0.039332 0)
(0.00218444 -0.456952 0)
(-0.00171402 -1.10633 0)
(-0.0252098 -1.13571 0)
(0.0262901 -0.477918 0)
(0.109841 -0.18543 0)
(0.0787117 -0.0817652 0)
(0.0573027 0.0464961 0)
(0.0864539 0.244912 0)
(0.10621 0.120901 0)
(0.17833 -0.0562389 0)
(0.0566262 -0.355102 0)
(0.027476 -1.07323 0)
(0.00710624 -1.12372 0)
(0.0448555 -0.836525 0)
(0.13634 -0.0255066 0)
(0.0533943 0.0649027 0)
(0.0470867 0.116278 0)
(-0.0087739 0.125824 0)
(-0.00306827 0.0527223 0)
(0.0184771 -0.0794597 0)
(-0.0171326 -0.318056 0)
(0.0376098 -1.08378 0)
(0.0131897 -1.13199 0)
(0.0432838 -0.918857 0)
(0.0958248 -0.0663945 0)
(-0.00319056 0.0760517 0)
(0.0359193 0.0505949 0)
(-0.0260726 0.0803683 0)
(-0.0191125 0.0231938 0)
(0.045227 -0.0473812 0)
(0.0176952 -0.21523 0)
(0.0393051 -1.0872 0)
(0.0132108 -1.1327 0)
(0.0747615 -0.983491 0)
(0.0522091 0.0738341 0)
(-0.0907086 0.117645 0)
(0.0265986 0.0698989 0)
(-0.0165821 0.0331175 0)
(-0.00997917 -0.106769 0)
(0.0139123 -0.0479317 0)
(-0.00619502 -0.308343 0)
(0.0238463 -1.10188 0)
(-0.00846897 -1.11269 0)
(-0.0138436 -1.05603 0)
(0.0454436 0.440723 0)
(-0.0149045 0.148058 0)
(0.0262635 -0.0989441 0)
(-0.00148115 -0.120076 0)
(-0.0302678 -0.0501832 0)
(-0.139515 -0.0470924 0)
(-0.0375472 -0.547088 0)
(0.00686644 -1.08259 0)
(0.000777384 -1.08619 0)
(0.00305311 -1.10975 0)
(0.0374404 0.178119 0)
(0.342598 0.0789514 0)
(0.290285 0.0890703 0)
(0.169244 -0.0331026 0)
(0.104374 0.0850535 0)
(0.000378939 0.176885 0)
(0.0150928 -0.591085 0)
(0.0132546 -1.06179 0)
(-0.002682 -1.06692 0)
(-0.0225824 -1.10227 0)
(-0.0136294 -0.620242 0)
(0.349537 -0.048095 0)
(0.330257 0.269981 0)
(-0.0327108 0.11575 0)
(0.0109863 0.170676 0)
(-0.11688 0.283468 0)
(0.00414888 -0.802886 0)
(0.00365672 -1.04921 0)
(0.00453878 -1.05157 0)
(0.0108617 -1.08086 0)
(0.00610604 -0.741174 0)
(0.030109 -0.0620837 0)
(0.151966 0.350628 0)
(0.0125347 0.321541 0)
(0.047233 0.175222 0)
(-0.0711934 0.282155 0)
(0.0254046 -0.852302 0)
(0.0111911 -1.02998 0)
(-0.00349091 -1.04153 0)
(-0.0120006 -1.05738 0)
(-0.0242354 -0.742664 0)
(-0.069593 -0.212911 0)
(0.0440526 0.0915337 0)
(0.117346 0.481457 0)
(0.0979908 0.236647 0)
(-0.0227879 0.32569 0)
(0.021674 -0.859688 0)
(0.00493302 -1.01551 0)
(-0.006904 -1.01578 0)
(-0.0102952 -1.0369 0)
(-0.0238763 -0.728913 0)
(-0.0395875 -0.225956 0)
(-0.0131188 -0.08325 0)
(0.13371 0.48066 0)
(0.123511 0.368196 0)
(-0.0190106 0.442248 0)
(0.0175953 -0.917599 0)
(0.00735046 -0.994219 0)
(-0.00731767 -1.00053 0)
(-0.0178531 -1.02154 0)
(-0.0279821 -0.708986 0)
(-0.0297698 -0.203917 0)
(-0.0322702 -0.0819071 0)
(0.113506 0.447555 0)
(0.108247 0.426143 0)
(-0.00824954 0.558042 0)
(0.0219625 -0.900039 0)
(0.00882319 -0.979497 0)
(-0.00505628 -0.974583 0)
(-0.00569284 -1.00005 0)
(-0.020802 -0.701242 0)
(-0.0308565 -0.181456 0)
(-0.0496284 -0.0662219 0)
(0.0503474 0.390648 0)
(0.0506877 0.539694 0)
(-0.00537789 0.620445 0)
(0.0238077 -0.911592 0)
(0.0120792 -0.95436 0)
(-0.00187797 -0.960417 0)
(-0.00706072 -0.983458 0)
(-0.0133967 -0.677129 0)
(-0.0348719 -0.132849 0)
(-0.0551825 -0.0302715 0)
(-0.0974455 0.441835 0)
(-0.0551384 0.577087 0)
(-0.00337026 0.621796 0)
(0.0191749 -0.926212 0)
(0.010745 -0.938846 0)
(-0.00373366 -0.937285 0)
(-0.00793511 -0.961076 0)
(-0.0156533 -0.66303 0)
(-0.0281128 -0.0939054 0)
(-0.0470587 -0.0107195 0)
(-0.39309 0.360647 0)
(-0.298695 0.503309 0)
(-0.0148921 0.571792 0)
(0.0164826 -0.929412 0)
(0.00857788 -0.9158 0)
(-0.0052086 -0.921323 0)
(-0.0110631 -0.94333 0)
(-0.0192018 -0.655165 0)
(-0.02536 -0.0600018 0)
(-0.0437785 0.0205652 0)
(-0.445142 0.171838 0)
(-0.352429 0.0481003 0)
(-0.0101178 -0.478984 0)
(0.0166077 -0.921393 0)
(0.00942647 -0.89573 0)
(-0.00655351 -0.896275 0)
(-0.0129546 -0.920383 0)
(-0.0206349 -0.653317 0)
(-0.019054 -0.0450936 0)
(-0.028018 0.0641186 0)
(-0.15939 0.167777 0)
(-0.053635 -0.00275949 0)
(0.00610191 -0.548611 0)
(0.00991466 -0.900398 0)
(0.00425723 -0.874025 0)
(-0.00776317 -0.878982 0)
(-0.0132758 -0.901501 0)
(-0.0251729 -0.653133 0)
(-0.0220591 -0.0364543 0)
(-0.030285 0.105154 0)
(-0.0147323 -0.0219761 0)
(0.0155031 -0.0910872 0)
(0.0133166 -0.613172 0)
(0.00895142 -0.875511 0)
(0.00370368 -0.853386 0)
(-0.0132647 -0.852275 0)
(-0.021755 -0.877239 0)
(-0.0377242 -0.643333 0)
(-0.0357301 -0.0211755 0)
(-0.0222848 0.097896 0)
(0.0210307 -0.0462256 0)
(0.024162 -0.0926289 0)
(0.0211386 -0.614738 0)
(0.0124614 -0.855681 0)
(0.00559235 -0.832429 0)
(-0.00629114 -0.831087 0)
(-0.0137621 -0.857037 0)
(-0.0287204 -0.646395 0)
(-0.0320863 -0.0466646 0)
(-0.00903832 0.0291709 0)
(0.0387746 -0.020726 0)
(0.0300069 -0.0828626 0)
(0.0317896 -0.612232 0)
(0.022363 -0.831396 0)
(0.0127365 -0.808049 0)
(-0.00598417 -0.807293 0)
(-0.0153336 -0.832212 0)
(-0.0186887 -0.645398 0)
(-0.0164633 -0.0822298 0)
(0.00870801 -0.00344339 0)
(0.0267662 0.0118944 0)
(0.0377361 -0.0896323 0)
(0.0270068 -0.60895 0)
(0.0155178 -0.808793 0)
(0.00637346 -0.784058 0)
(-0.00537379 -0.785836 0)
(-0.0138932 -0.809011 0)
(-0.0226279 -0.626481 0)
(-0.0413399 -0.0735096 0)
(-0.0451057 0.00847866 0)
(0.0413333 0.0252021 0)
(0.047168 -0.0882658 0)
(0.0224446 -0.581696 0)
(0.0159301 -0.783163 0)
(0.00542272 -0.760126 0)
(-0.0119307 -0.76205 0)
(-0.0231988 -0.78353 0)
(-0.0332375 -0.619188 0)
(-0.0369632 -0.068031 0)
(-0.0376687 0.0155559 0)
(0.0352409 0.0467912 0)
(0.0386586 -0.0609946 0)
(0.0139553 -0.561186 0)
(0.0118786 -0.758204 0)
(0.000828581 -0.736732 0)
(-0.0113175 -0.733905 0)
(-0.0211824 -0.75809 0)
(-0.038071 -0.604457 0)
(-0.0482578 -0.039795 0)
(-0.0439228 0.0462534 0)
(0.0478457 0.00926751 0)
(0.0617332 -0.0580265 0)
(0.0275961 -0.512058 0)
(0.017326 -0.7312 0)
(0.00471987 -0.711431 0)
(-0.0114709 -0.710545 0)
(-0.023516 -0.731228 0)
(-0.0352235 -0.603851 0)
(-0.0335162 -0.0920034 0)
(0.0113509 0.0347316 0)
(0.0496912 0.013264 0)
(0.0507929 -0.0258307 0)
(0.0233576 -0.492049 0)
(0.018429 -0.703856 0)
(0.00540518 -0.686267 0)
(-0.0071732 -0.681835 0)
(-0.020093 -0.703375 0)
(-0.0308986 -0.580119 0)
(-0.0509223 -0.121122 0)
(-0.0208119 -0.0398771 0)
(0.0744009 -0.0216164 0)
(0.0481964 0.00640889 0)
(0.022523 -0.478055 0)
(0.0229721 -0.67506 0)
(0.00855064 -0.657067 0)
(-0.00849342 -0.656873 0)
(-0.0229487 -0.674715 0)
(-0.0319109 -0.55663 0)
(-0.0543665 -0.121183 0)
(-0.041642 -0.0497833 0)
(-0.0447785 0.0393375 0)
(-0.00126323 0.101015 0)
(0.0317915 -0.5041 0)
(0.0237471 -0.644738 0)
(0.00796449 -0.631024 0)
(-0.00525879 -0.628458 0)
(-0.0215294 -0.643408 0)
(-0.0325218 -0.522721 0)
(-0.0439636 -0.116228 0)
(-0.0415552 -0.0490143 0)
(-0.0788274 -0.0918447 0)
(-0.00486006 -0.150694 0)
(0.0487023 -0.514279 0)
(0.0255174 -0.613427 0)
(0.00935525 -0.601899 0)
(-0.00681244 -0.602074 0)
(-0.024056 -0.612514 0)
(-0.0405988 -0.507009 0)
(-0.0140938 -0.128375 0)
(-0.0335115 -0.037326 0)
(-0.0130149 -0.126529 0)
(-0.0193491 -0.231366 0)
(0.0474784 -0.540263 0)
(0.0242805 -0.580753 0)
(0.00652071 -0.572222 0)
(-0.00601456 -0.571901 0)
(-0.0253662 -0.579104 0)
(-0.0476805 -0.530384 0)
(0.0170021 -0.155834 0)
(-0.0161318 -0.0128768 0)
(0.0381786 -0.110713 0)
(0.0232737 -0.246724 0)
(0.0487209 -0.543573 0)
(0.0262693 -0.546344 0)
(0.00793695 -0.541359 0)
(-0.00852464 -0.542261 0)
(-0.0265291 -0.54491 0)
(-0.0506054 -0.535309 0)
(-0.0173033 -0.186301 0)
(-0.0203229 -0.0104794 0)
(0.0688507 -0.12248 0)
(0.0630968 -0.256604 0)
(0.0573066 -0.496187 0)
(0.0294708 -0.507936 0)
(0.00823767 -0.508214 0)
(-0.00711955 -0.507077 0)
(-0.0246 -0.506203 0)
(-0.0562357 -0.491864 0)
(-0.0517591 -0.199907 0)
(-0.0529862 -0.0198192 0)
(0.0834729 -0.107148 0)
(0.0607842 -0.24973 0)
(0.056682 -0.452298 0)
(0.0250909 -0.468147 0)
(0.00721481 -0.471327 0)
(-0.012744 -0.471271 0)
(-0.0323855 -0.468397 0)
(-0.0576569 -0.455132 0)
(-0.0581938 -0.207606 0)
(-0.0682948 -0.0349156 0)
(0.0642945 -0.0965329 0)
(0.0674622 -0.213548 0)
(0.0648717 -0.398858 0)
(0.0365379 -0.422341 0)
(0.0162483 -0.428427 0)
(-0.00612328 -0.430375 0)
(-0.0282718 -0.426398 0)
(-0.0641043 -0.405437 0)
(-0.0687464 -0.193185 0)
(-0.0479012 -0.0507263 0)
(0.00221992 -0.0701939 0)
(0.0687285 -0.264846 0)
(0.06237 -0.36301 0)
(0.0236327 -0.37905 0)
(0.0023652 -0.382585 0)
(-0.0228449 -0.384414 0)
(-0.0428153 -0.382535 0)
(-0.0654204 -0.359637 0)
(-0.070806 -0.263719 0)
(-0.00863167 -0.0559282 0)
(0.0794776 -0.0534426 0)
(0.0744303 -0.28167 0)
(0.0711238 -0.313758 0)
(0.0488766 -0.328341 0)
(0.0270832 -0.332771 0)
(-0.000582779 -0.332897 0)
(-0.0254077 -0.328344 0)
(-0.0643325 -0.315794 0)
(-0.0692917 -0.280409 0)
(-0.0736435 -0.0964491 0)
(0.0997037 -0.169306 0)
(0.0740555 -0.221898 0)
(0.067208 -0.262258 0)
(0.0322075 -0.283755 0)
(0.00689684 -0.285171 0)
(-0.0249688 -0.28552 0)
(-0.0447258 -0.282933 0)
(-0.0714698 -0.263913 0)
(-0.0766238 -0.223481 0)
(-0.0986097 -0.178128 0)
(0.0601496 -0.120077 0)
(0.0494929 -0.195302 0)
(0.0459983 -0.235282 0)
(0.0249284 -0.242376 0)
(0.0159331 -0.247353 0)
(-0.00386928 -0.249202 0)
(-0.0149852 -0.247022 0)
(-0.0417543 -0.235424 0)
(-0.0488848 -0.195494 0)
(-0.0585511 -0.124787 0)
(0.0241152 -0.0155981 0)
(0.0261995 -0.00351328 0)
(0.0196093 0.0108395 0)
(0.0125786 0.00993428 0)
(0.00553448 0.00714115 0)
(-0.00158879 0.00691198 0)
(-0.0104216 0.0083318 0)
(-0.0208041 0.010799 0)
(-0.0328537 0.00641672 0)
(-0.043282 0.00156041 0)
(-0.0561596 0.012365 0)
(-0.0773564 0.022267 0)
(-0.0964336 0.00888709 0)
(-0.107548 0.00520156 0)
(-0.119115 0.00878016 0)
(-0.127241 -0.000341847 0)
(-0.133597 -0.00433403 0)
(-0.139689 -0.00379672 0)
(-0.143238 -0.00909525 0)
(-0.147666 -0.00959165 0)
(-0.154495 -0.0086885 0)
(-0.163179 -0.000989801 0)
(-0.173237 0.00351779 0)
(-0.179908 -0.000732223 0)
(-0.185388 -0.000306579 0)
(-0.188885 0.000812373 0)
(-0.189528 -0.00610756 0)
(-0.179111 -0.0121405 0)
(-0.163249 -0.0141668 0)
(-0.143404 -0.0128705 0)
(-0.125584 -0.016299 0)
(-0.106498 -0.0194309 0)
(-0.0860759 -0.0264066 0)
(-0.0655587 -0.0248539 0)
(-0.0464396 -0.0235874 0)
(-0.0353549 -0.00854126 0)
(-0.0278046 -0.00931375 0)
(-0.0183637 0.00135351 0)
(-0.013053 0.00467077 0)
(-0.00334729 0.00293064 0)
(-0.00550765 0.00554547 0)
(-0.00671246 0.00856287 0)
(-0.00541131 0.0120534 0)
(-0.00616653 0.0141729 0)
(-0.0104532 0.0176186 0)
(-0.0182329 0.0212926 0)
(-0.0262605 0.0253972 0)
(-0.0332437 0.0274856 0)
(-0.0420182 0.0315317 0)
(-0.063982 0.041876 0)
(-0.083911 0.0465279 0)
(-0.093986 0.0426704 0)
(-0.106093 0.0395146 0)