/*--------------------------------*- C++ -*----------------------------------*\
  =========                 |
  \\      /  F ield         | OpenFOAM: The Open Source CFD Toolbox
   \\    /   O peration     | Website:  https://openfoam.org
    \\  /    A nd           | Version:  8
     \\/     M anipulation  |
\*---------------------------------------------------------------------------*/
FoamFile
{
    version     2.0;
    format      ascii;
    class       volScalarField;
    location    "1.95";
    object      alpha.water;
}
// * * * * * * * * * * * * * * * * * * * * * * * * * * * * * * * * * * * * * //

dimensions      [0 0 0 0 0 0 0];

internalField   nonuniform List<scalar> 
9150
(
1
1
1
1
1
1
1
1
1
1
1
1
1
1
1
1
1
1
1
1
1
1
1
1
1
1
1
1
1
1
1
1
1
1
1
1
1
1
1
1
1
1
1
1
1
1
1
1
1
1
1
1
1
1
1
1
1
1
1
1
1
1
1
1
1
1
1
1
1
1
1
1
1
1
1
1
1
1
1
1
1
1
1
1
1
1
1
1
1
1
1
1
1
1
1
1
1
1
1
1
1
1
1
1
1
1
1
1
1
1
1
1
1
1
1
1
1
1
1
1
1
1
1
1
1
1
1
1
1
1
1
1
1
1
1
1
0.999999
0.999999
1
1
1
1
1
1
1
1
1
1
1
1
1
1.00001
1
0.999999
0.999998
0.999998
1
1
1
1
1
1
1
0.999999
0.999999
0.999999
0.999999
0.999999
1
0.999999
1
1
1
1
1
1
1
1
1
0.999999
1
1
1
1
1
1
1
1
1
1
1
1
1
1
1
1
1
1
1
1
1
1
1
1
1
1
1
1
1
1
1
1
1
1
1
1
1
1
1
1
1
1
1
1
1
1
1
1
1
1
1
1
1
1
1
1
1
1
1
1
1
0.999999
0.999999
1
1
1
1
1
1
1
0.999999
0.999999
1
1
1
1
1
1
1
1
1
1
1
1
1
0.999999
0.999999
1
1
1
1
1
1
1
0.999999
0.999999
0.999999
0.999999
1
1
1
0.999999
0.999999
0.999999
0.999999
0.999999
0.999999
0.999999
1
1
0.999999
0.999998
0.999999
0.999999
0.999999
0.999999
0.999999
1
1
1
0.999999
0.999998
0.999999
1
0.999999
0.999999
0.999999
0.999999
0.999999
0.999999
0.999999
0.999999
1
1
1
1
1
0.999999
0.999999
0.999999
1
1
1
1
1
1
1
1
0.999999
1
1
1
1
1
1
1
1
1
1
1
1
1
0.999999
1
1
1
1
1
1
1
1
1
0.999999
1
1
1
1
1
1
0.999999
1
0.999999
0.999999
1
1
1
1
1
1
0.999999
0.999999
0.999998
0.999999
1
1
1
1
1
1
1
0.999998
0.999998
1
1
1
1
1
1
1
1
0.999998
0.999998
1
1
1
1
1
1
1
1
0.999998
0.999999
1
1
1
1
1
1
1
1
1
1
1
1
0.999998
0.999999
0.999999
1
1
1
1
1
0.999999
0.999997
0.999995
0.999996
0.999999
1
1
1
1
1
1
0.999995
0.999995
0.999995
0.999997
1
1
1
0.999999
1
0.999999
0.999996
0.999995
0.999995
0.999995
0.999999
1
1
0.999999
0.999999
0.999999
0.999999
0.999996
0.999995
0.999995
0.999999
1
1
0.999999
0.999999
1
1
0.999999
0.999995
0.999998
1
1
1
0.999999
0.999999
1
1
1
0.999999
0.999999
1
1
1
0.999999
0.999998
0.999999
1
1
1
0.999999
0.999998
0.999999
1
0.999999
0.999998
0.999998
1
1
1
0.999997
0.999997
0.999997
0.999999
0.999998
0.999998
0.999999
1
1
0.999998
0.999997
0.999997
0.999997
0.999999
0.999998
0.999998
0.999999
1
1
0.999999
0.999997
0.999997
0.999997
0.999999
1
0.999999
0.999999
0.999999
1
1
0.999998
0.999997
0.999999
1
1
0.999999
0.999999
0.999999
0.999999
1
1
1
1
1
1
0.999999
0.999999
0.999999
0.999999
1
1
1
1
1
1
1
0.999999
1
1
1
1
1
1
1
1
1
1
1
1
1
1
1
1
1
1
1
1
1
1
1
1
1
1
1
1
1
1
1
1
1
1
1
1
1
1
1
1
1
1
1
1
1
1
1
1
1
1
1
1
1
1
1
1
1
1
1
1
1
1
1
1
1
1
0.999999
1
1
1
1
1
1
1
0.999998
0.999994
0.999976
1
1
1
1
1
0.999999
0.999994
0.999962
0.999893
0.999695
1
1
1
0.999999
0.999996
0.999987
0.999907
0.999591
0.990965
0.841082
1
1
0.999999
0.999996
0.999962
0.999849
0.999133
0.84976
0.490289
0.0200255
1
0.999999
0.999989
0.999893
0.999535
0.987231
0.676308
0.0979889
0.00268458
0.00263228
0.999999
0.999991
0.999882
0.999011
0.899557
0.418021
0.0037615
0.00270052
0.00265344
0.0026452
0.999991
0.999932
0.998746
0.796875
0.224866
0.00416095
0.00318125
0.00270964
0.0026682
0.00265731
0.999273
0.986984
0.774242
0.14328
0.0151073
0.0144928
0.0337975
0.027572
0.00413146
0.00265143
0.994277
0.796112
0.171421
0.0162478
0.0157334
0.0186764
0.0358156
0.0358174
0.00469739
0.00265691
0.988921
0.562073
0.0197974
0.0163932
0.0162498
0.018389
0.0358178
0.0275729
0.00331801
0.00266791
0.991695
0.504366
0.0187815
0.0168682
0.0163932
0.0176152
0.035731
0.0154703
0.00361408
0.00833489
0.999254
0.810261
0.205119
0.0186801
0.0169468
0.0175986
0.0298807
0.0117864
0.00397528
0.212495
0.999873
0.999246
0.769174
0.213434
0.0249432
0.016489
0.0142317
0.0147678
0.00415093
0.371823
0.999998
0.999983
0.999825
0.876081
0.440761
0.0766981
0.0100534
0.00562647
0.00436886
0.219309
1
1
1
0.999955
0.999542
0.682896
0.236402
0.021114
0.00468125
0.0128118
1
1
1
1
0.999993
1.00004
0.925052
0.495175
0.0974859
0.0216508
1
1
1
1
1
0.999998
0.99998
0.999808
0.74247
0.276948
1
1
1
0.999995
0.999993
0.999994
0.999996
0.999996
1.00001
0.925148
1
1
0.999999
0.999984
0.999983
0.999988
0.999996
0.999998
1
1
1
1
1
0.999994
0.999983
0.999983
0.999985
0.999997
1
1
1
1
1
1
0.999997
0.999984
0.999984
0.999986
1
1
1
1
1
1
1
1
0.999989
0.999995
1
1
1
1
1
1
1
1
1
1
1
1
1
1
1
1
1
1
0.999999
0.999998
0.999999
1
1
1
1
1
1
1
0.999999
0.999991
0.999999
1
1
1
1
1
1
1
0.999999
0.999991
0.999999
1
1
1
1
1
1
1
0.999999
0.999991
0.999999
1
1
1
1
1
1
1
0.999999
0.999991
0.999999
0.999999
0.999996
1
1
1
1
1
0.999999
0.999991
0.999999
1.00002
1.00001
1
1
1
1
1
1
0.999991
1
1
1
1
1
1
1
1
0.999999
0.999996
1
1
1.00004
1
1
1
1
1
1
0.999999
1
0.999674
1
1
1
1
1
1
1
0.999996
1
0.925242
1
1
1
1
1
1
1
0.999995
1
0.88754
0.981575
1
1
1
1
1
1
0.999995
1
0.866842
0.92955
1
1
1
1
1
1
1
1
0.86047
0.915881
1
1
1
1
1
1
1
1
0.871457
0.914678
1
1
1
1
1
0.999999
0.999999
1
0.897986
0.92898
1
1
0.999999
1
1
0.999999
0.999998
1
0.915422
0.939648
1
1
0.999999
1
1
0.999999
0.999998
1
0.927784
0.941287
1
1
1
1
1
0.999999
0.999999
1
0.938372
0.939985
0.999955
1
1
1
1
1
1
1
0.949062
0.945049
1
1
1
1
1
1
1
1
0.954115
0.958436
1.00001
1
1
1
1
1
1
1
0.954013
0.966339
1
1
1
1
1
1
0.999999
1
0.944517
0.96633
1
1
1
1
1
1
0.999999
1
0.924563
0.949573
1
1
1
1
1
1
0.999999
1
0.899582
0.929059
1
1
1
1
1
1
1
1
0.879266
0.907072
1
1
1
1
1
1
1
1
0.869976
0.883633
1
1
1
1
1
1
1
1
0.868327
0.87693
1
1
1
1
1
1
1
1
0.881951
0.914219
1
1
1
1
1
1
1
1
0.908725
0.953917
1
1
1
1
1
1
1
1
0.953213
1
1
1
1
1
1
1
1
1
1
1
1
1
0.999999
0.999998
0.999998
0.999998
0.999998
1
1
1
1
1
1
1
1
1
1
1
1
1
1
1
1
1
0.995898
0.898491
0.85375
0.86053
0.825748
0.999998
0.999998
0.999999
0.999999
0.999999
0.999999
1
1
1
1
1
1
1
1
1
1
0.999999
0.999999
0.999999
0.999999
1
1
1
1
1
1
0.999999
0.999998
0.999998
0.999998
0.999998
0.999997
0.999997
0.999997
1
1
0.997379
0.853845
0.812984
0.812934
0.999999
0.999999
0.999999
1
1
1
1
1
1
1
1
1
1
0.999999
0.999999
0.999999
1
1
1
1
1
1
1
1
1
1
1
1
1
1
1
1
1
0.999999
0.999999
0.999999
1
0.975514
0.817746
0.812932
1
1
1
1
1
1
1
1
1
1
1
1
1
1
1
1
1
1
1
1
1
1
1
1
1
1
1
1
1
1
1
1
1
0.999997
0.999998
0.999999
1
1
0.923012
0.813574
1
1
1
1
1
1
1
1
1
1
1
1
1
1
1
1
0.999999
0.999999
1
1
1
1
1
1
1
1
1
1
1
1
0.999999
0.999999
0.999998
0.999996
0.999996
0.999999
1
1
0.999998
0.8712
1
1
1
1
1
1
1
1
1
1
1
1
1
1
1
0.999998
0.999997
0.999997
1
1
1
1
1
1
1
0.999999
1
1
1
1
0.999999
0.999999
0.999997
0.999996
0.999997
0.999999
1
1
1
0.936617
1
1
1
1
1
1
1
1
1
1
1
1
1
1
0.999997
0.999997
0.999998
0.999999
1
1
1
1
1
0.999995
0.999995
0.999999
1
1
1
1
0.999999
0.999997
0.999996
0.999996
0.999998
0.999999
1
1
1
0.997979
1
1
1
1
1
1
1
1
1
1
1
1
1
0.999998
0.999997
0.999999
1
1
1
1
1
0.999999
0.999994
0.999994
0.999995
1
1
1
1
1
0.999999
0.999998
0.999996
0.999998
0.999999
0.999999
1
1
1
1
1
1
1
1
1
1
1
1
1
1
0.999982
0.999977
0.99998
0.999999
1
1
1
0.999845
0.999879
0.999997
0.999999
0.999994
0.999994
0.999996
0.999999
1
1
1
1
1
0.999999
0.999999
0.999999
0.999999
1
1
1
1
1
1
1
1
1
1
1
1
1
1
0.99927
0.999669
0.999999
0.999999
1
1
0.994744
0.994906
0.999237
0.999638
0.999928
0.999999
0.999999
0.999997
0.999998
1
1
1
1
1
1
1
0.999998
0.999997
0.999999
0.999999
1
1
0.999998
0.999999
1
1
1
1
1
1
1
1
0.999998
0.993626
0.987753
0.999672
0.99936
0.999999
0.936845
0.925141
0.978558
0.995419
0.99907
0.999781
0.999994
1
1
1
1
1
1
1
0.999982
0.999998
1
0.999999
0.999997
0.999997
0.999999
1
1
0.999993
0.999991
1
1
1
1
1
1
1
1
0.999993
0.97285
0.834823
0.626708
0.67691
0.629806
0.76218
0.856023
0.94533
0.993006
0.998648
0.99971
0.999994
0.999996
0.999981
0.99998
1
0.999979
0.999925
0.999502
0.99953
0.999917
1
0.999998
0.999998
0.999998
0.999999
1
1
0.999996
0.999989
0.999991
1
1
1
1
1
1
1
1
0.934888
0.512049
0.0753279
0.0451352
0.162514
0.682311
0.898956
0.955158
0.996667
0.999799
0.99985
0.999847
0.999781
0.999683
0.999818
1
1
0.999988
0.99968
0.99919
0.999194
0.999925
1
0.999998
1
1
1
1
1
0.999989
0.999989
0.999996
1
1
1
1
1
1
1
0.987241
0.41627
0.007865
0.00613769
0.00826736
0.29497
0.949242
0.999924
0.999939
0.999946
0.999946
0.999864
0.999647
0.999648
0.99965
0.999902
1
1
1
0.999893
0.999191
0.999279
1
1
1
1
1
0.999988
0.999991
0.999989
0.99999
0.999994
1
1
1
1
0.999999
0.999999
1
1
0.738642
0.0673351
0.005967
0.00591713
0.0209283
0.573548
0.99993
0.999946
0.999947
0.999947
0.999947
0.999817
0.999646
0.999646
0.9999
0.999999
1
1
0.999048
0.999903
0.999905
0.999923
1
1
1
0.999926
0.999916
0.99997
0.999979
0.999988
0.999997
1
1
1
1
1
0.999999
0.999999
1
1
0.554932
0.0140332
0.00567333
0.00585909
0.0343653
0.697632
0.999946
0.999947
0.999947
0.999947
0.999947
0.999921
0.999854
0.999886
0.99996
0.999999
1
0.995035
0.995821
0.997428
0.999681
0.999941
0.999851
0.999329
0.999702
0.999832
0.999898
0.999979
0.99999
0.999997
0.999999
0.999999
1
1
1
1
0.999999
0.999999
1
1
0.513968
0.010021
0.00553869
0.0055745
0.005563
0.603784
0.999946
0.999947
0.999947
0.999947
0.999947
0.999947
0.999947
0.999948
0.999958
0.970649
0.952835
0.987864
0.997663
0.995292
0.99528
0.998601
0.99906
0.999067
0.999194
0.999898
0.99995
0.999992
0.999998
0.999998
0.999997
0.999994
0.999996
0.999998
0.999999
0.999999
1
1
1
1
0.739553
0.0290698
0.0055745
0.0055675
0.00556253
0.348481
0.975751
0.999946
0.999947
0.999947
0.999947
0.999947
0.999947
0.999947
0.988719
0.932518
0.932189
0.984521
0.999591
0.996035
0.994971
0.996309
0.999244
0.999134
0.999568
0.999966
0.999998
0.999998
0.999998
0.999997
0.999994
0.999994
0.999994
0.999996
0.999997
0.999997
1
1
1
0.999503
0.897869
0.0754524
0.0055675
0.00556254
0.00556237
0.0288203
0.758875
0.999895
0.999946
0.999947
0.999947
0.993449
0.748085
0.704702
0.875056
0.932126
0.956428
0.990612
0.999973
0.999406
0.99586
0.997705
0.999682
0.999863
0.999981
0.999997
1
0.999998
0.999995
0.999994
0.999994
0.999996
0.999999
0.999999
0.999998
0.999998
1
1
1
1
0.975289
0.488044
0.00558887
0.00556237
0.00556153
0.00554887
0.210402
0.901048
0.9999
0.999946
0.999947
0.855014
0.586686
0.585972
0.666202
0.942418
0.995263
0.998883
0.999991
0.999999
0.99977
0.999871
0.999972
1
1
1
1
0.999997
0.999994
0.999995
0.999998
1
1
1
0.999999
0.999999
1
1
1
1
0.999999
0.896559
0.13057
0.00557197
0.00556237
0.00556569
0.0055669
0.384058
0.975914
0.999899
0.989489
0.647996
0.585899
0.585877
0.585681
0.896374
0.999907
0.999996
0.999998
0.999999
0.999999
0.999999
0.999999
1
1
1
1
0.999999
0.999997
1
1
1
1
1
1
1
0.999999
0.999999
1
1
1
0.999997
0.720766
0.0295292
0.00556315
0.00556687
0.00556558
0.00574941
0.610498
0.999084
0.920998
0.591371
0.585909
0.585833
0.585791
0.860292
0.999869
0.999996
0.999999
0.999999
1
0.999999
0.999999
1
1
1
1
1
1
1
1
1
1
1
1
1
0.999999
0.999999
1
1
1
1
1
0.567982
0.0111312
0.00556825
0.00559592
0.00562109
0.175228
0.890582
0.891865
0.593634
0.585819
0.585834
0.585794
0.86211
0.999812
0.999993
0.999999
1
1
1
1
1
1
1
1
1
1
1
1
1
1
1
1
1
0.999999
0.999999
0.999999
1
1
1
1
1
0.490602
0.0126537
0.00562115
0.00571824
0.167319
0.85563
0.84162
0.587677
0.585839
0.585833
0.585831
0.873187
0.999775
0.99999
0.999999
1
1
1
1
1
1
1
1
1
1
1
1
1
1
0.999981
0.99999
1
1
0.999999
0.999999
0.999999
1
1
1
1
1
0.54025
0.00863404
0.00577171
0.515627
0.852837
0.817892
0.586187
0.58583
0.585332
0.585704
0.911966
0.999779
0.99999
0.999999
0.999999
1
1
1
1
1
1
1
1
1
1
1
1
1
0.999904
0.999947
0.999402
1
1
0.999999
0.999999
0.999999
1
1
1
1
1
0.551079
0.1467
0.346611
0.850172
0.846727
0.605427
0.585364
0.584898
0.672112
0.971302
0.999702
0.999986
0.999999
1
0.999996
1
1
1
1
1
1
0.999999
0.999996
0.999999
1
1
1
0.999921
0.999859
0.994298
1
1
1
0.999999
0.999999
1
0.999999
0.999999
1
1
0.996937
0.478727
0.357851
0.374353
0.508784
0.690341
0.68856
0.708613
0.914871
0.998134
0.999866
0.999993
1
1
0.999989
0.999965
0.999991
1
1
1
1
0.999997
0.99999
0.999996
1
1
1
1
0.999165
0.993355
1
1
1
1
1
1
0.999999
1
1
1
1
1
0.4788
0.375553
0.377609
0.574991
0.953802
0.986319
0.998967
0.999842
0.999984
0.999999
1
1
0.999985
0.999964
0.999963
0.999994
1
1
1
0.999992
0.99999
0.999992
0.999999
1
1
1
0.996878
0.993347
1
1
1
1
1
1
1
1
1
1
1
1
1
0.522494
0.377777
0.378785
0.84708
0.999626
0.999965
0.999995
0.999999
1
1
1
1
0.999964
0.999963
0.999963
0.999996
1
1
0.99999
0.99999
0.99999
0.999999
1
1
1
0.99376
0.993346
1
1
1
1
1
1
1
1
1
1
1
1
1
0.999999
0.568493
0.383218
0.453028
0.891178
0.999807
0.999984
0.999994
0.999978
0.999983
0.999999
1
0.999977
0.999963
0.999963
0.999979
1
1
0.999992
0.99999
0.999992
0.999999
1
1
1
0.993357
0.993346
1
1
1
1
1
1
1
1
1
1
1
1
1
1
0.999991
0.562368
0.458081
0.477256
0.898382
0.999821
0.999984
0.999972
0.999979
0.999999
1
0.999998
0.999963
0.999963
0.999963
0.999993
1
0.999998
0.99999
0.999995
0.999999
1
1
1
0.994948
0.993346
1
1
1
1
1
1
1
1
1
1
1
1
1
1
1
0.999975
0.552829
0.47842
0.510475
0.926907
0.999859
0.999975
0.999991
0.999999
0.999999
0.999999
0.99997
0.999963
0.999963
0.999993
1
0.999999
0.999998
0.999998
0.999999
1
1
1
0.998517
0.993349
1
1
1
1
1
1
1
1
1
1
1
1
1
1
1
1
0.983392
0.527576
0.495342
0.572954
0.967599
0.999892
0.99998
0.999986
0.999973
0.99998
0.999992
0.999976
0.999981
0.999996
0.999997
0.999999
0.999999
1
0.999999
1
1
0.999975
0.999952
0.998438
1
1
1
1
1
1
1
1
1
1
0.999999
1
1
1
1
1
0.999999
0.929039
0.498619
0.497693
0.694359
0.996539
0.99994
0.999958
0.99993
0.999972
0.999995
0.999996
0.999996
0.999994
0.999993
0.999994
0.999999
1
0.999999
0.999999
1
0.999958
0.999992
0.99999
1
1
1
1
1
1
1
1
1
1
0.999999
0.999998
0.999999
1
1
1
1
0.999996
0.795438
0.498275
0.504727
0.829276
0.999703
0.999932
0.999951
0.999982
0.999996
0.999996
0.999996
0.999994
0.999992
0.999993
0.999998
1
0.999999
0.999999
1
0.999961
0.999995
0.999994
1
1
1
1
1
1
1
1
1
1
1
0.999998
0.999997
0.999998
1
1
1
1
0.999974
0.66507
0.510381
0.524744
0.928103
0.999819
0.999985
0.999995
0.999996
0.999996
0.999996
0.999993
0.999992
0.999994
0.999998
0.999999
1
1
1
0.999998
0.999998
0.999937
1
1
1
1
1
1
1
1
1
1
1
0.999999
0.999997
0.999998
1
1
1
1
0.999999
0.9795
0.54104
0.526661
0.736867
0.997827
0.999972
0.999995
0.999995
0.999995
0.999993
0.999992
0.999992
0.999998
0.999999
0.999998
0.999999
1
1
1
0.998948
0.999729
1
1
1
1
1
1
1
1
1
1
1
1
0.999998
0.999998
1
1
1
1
1
0.999997
0.729188
0.529445
0.533166
0.91659
0.999857
0.999991
0.999997
0.999997
0.999992
0.999992
0.999993
0.999999
1
0.999998
0.999999
1
1
0.999919
0.99826
0.999655
1
1
1
1
1
1
1
1
1
1
1
1
1
0.999998
0.999999
1
1
1
1
1
0.970439
0.551491
0.536887
0.766546
0.999115
0.999986
0.999997
0.999997
0.999992
0.999992
0.999995
0.999999
1
0.999998
0.999999
1
1
0.999733
0.99826
0.99966
1
1
1
1
1
1
1
1
1
1
1
1
1
0.999998
1
1
1
1
1
1
0.999999
0.672042
0.536887
0.645969
0.976608
0.999967
0.999997
0.999998
0.999995
0.999992
0.999997
0.999999
1
1
0.999999
1
1
0.999698
0.998568
0.99966
1
1
1
1
1
1
1
1
1
1
1
1
1
1
1
1
1
1
1
1
1
0.794853
0.539171
0.578402
0.935442
0.999945
0.999998
0.999999
1
0.999998
0.999999
1
1
1
1
1
1
0.999757
0.999741
0.983885
1
1
1
1
1
1
1
1
1
1
1
1
1
1
1
1
1
1
1
1
1
0.86784
0.544706
0.549756
0.897185
0.999946
0.999998
1
1
1
1
1
1
1
1
1
1
0.999977
0.99999
0.970726
1
1
1
1
1
1
1
0.999999
0.999998
0.999994
0.999995
0.999999
1
1
1
1
1
1
1
1
1
0.923078
0.553525
0.541608
0.867828
0.999787
0.999991
1
1
1
1
1
1
1
1
1
1
1
0.999992
0.970726
1
1
1
1
1
1
0.999999
0.999984
0.999837
0.999801
0.999953
1
1
0.999984
0.99996
0.999965
0.999997
1
1
1
1
0.910455
0.543346
0.541572
0.885907
0.999488
0.999985
1
1
1
1
1
1
1
1
1
1
1
1
0.984938
1
1
1
1
1
0.999997
0.999953
0.996336
0.995067
0.998693
0.999998
1
1
0.999985
0.99996
0.999997
0.999997
0.999904
0.999882
1
1
0.85973
0.541536
0.541536
0.951923
0.999997
0.999993
1
1
1
1
1
1
1
0.999999
1
1
1
0.999918
0.980701
1
1
1
0.999998
0.999998
0.999952
0.814087
0.813984
0.970739
0.999974
1
1
1
0.999999
0.999999
0.987745
0.994207
0.998716
0.999882
1
0.983253
0.612319
0.541536
0.630613
0.999999
1
1
1
1
1
1
1
1
1
0.999999
0.999999
1
1
0.998868
0.934593
0.999998
1
0.999985
0.99996
0.999952
0.871775
0.246742
0.591075
0.995217
0.999997
1
1
1
1
0.999968
0.931376
0.975567
0.999843
0.999878
0.999906
0.903235
0.553423
0.550744
0.961333
1
1
1
1
0.999999
0.999999
1
1
1
1
0.999999
0.999999
1
1
0.998637
0.927212
0.999957
0.999882
0.990283
0.901567
0.802284
0.276034
0.192297
0.748478
0.994855
0.988797
0.885452
0.921817
0.860164
0.730732
0.780535
0.96141
0.997555
0.999796
0.999843
0.973496
0.611127
0.558564
0.732732
1.00003
1
1
1
1
1
1
1
1
1
1
1
0.999999
1
1
0.996855
0.927173
0.993839
0.86194
0.581996
0.122174
0.00371984
0.0118056
0.191447
0.454471
0.54304
0.514731
0.37569
0.378052
0.385027
0.634906
0.886333
0.999094
0.99926
0.999757
0.976905
0.670292
0.611873
0.626229
0.999895
1
1
1
1
1
1
1
0.999998
0.99999
0.999997
1
1
1
0.999999
0.993339
0.945267
0.927169
0.515373
0.0355951
0.00266979
0.00391017
0.00327142
0.00371984
0.0225422
0.121796
0.19489
0.208845
0.294868
0.498213
0.675937
0.894638
0.998281
0.998515
0.999094
0.960237
0.677935
0.635346
0.63543
0.960082
0.999993
1
1
1
1
1
1
0.999999
0.999988
0.999988
0.999992
1
0.999999
0.999999
0.999984
0.968103
0.927169
0.927169
0.00260832
0.00262318
0.00262661
0.00267093
0.00278853
0.0191406
0.191966
0.41939
0.579286
0.632972
0.802338
0.956686
0.991316
0.996633
0.997074
0.998281
0.95213
0.684214
0.66145
0.662553
0.957148
0.999967
1
1
1
1
1
1
0.999999
0.999988
0.999988
0.999988
0.999997
1
0.999999
0.999998
0.9998
0.971567
0.927223
0.927169
0.00263208
0.00263538
0.00263458
0.0026297
0.0282955
0.276582
0.501714
0.504468
0.478884
0.639236
0.934811
0.995384
0.995793
0.996213
0.996633
0.97855
0.728179
0.679854
0.68137
0.966246
0.999893
1
1
1
1
1
1
0.999998
0.999988
0.999988
0.999988
0.999993
1
1
0.999999
0.999986
0.999233
0.991488
0.98585
0.980389
0.00265173
0.00264335
0.00264237
0.0026437
0.0749613
0.518589
0.617387
0.370119
0.169058
0.233067
0.545738
0.848053
0.990166
0.995793
0.976313
0.885946
0.774229
0.774484
0.94555
0.999907
0.999993
1
1
1
1
1
0.999998
0.999988
0.999988
0.999988
0.999993
0.999999
0.999999
1
0.999995
0.999896
0.999604
0.999975
0.99996
0.999967
0.00265029
0.00264238
0.00263966
0.00264238
0.0958738
0.652268
0.647287
0.266278
0.00886162
0.00368293
0.0411888
0.175556
0.375998
0.56411
0.824139
0.985028
0.992087
0.991092
0.999875
0.999993
1
1
1
1
1
1
0.999996
0.999988
0.999988
0.999992
1
1
0.999999
0.999987
0.999943
0.999933
0.999998
0.999998
0.999997
0.999999
0.00264535
0.00263948
0.00263904
0.0690968
0.607635
0.674952
0.555596
0.0818944
0.00216052
0.000840228
0.000887447
0.00133323
0.00323701
0.0528414
0.578861
0.999433
0.999923
0.999967
1
1
1
1
1
0.999999
1
0.999999
0.999998
0.999994
0.999994
0.999999
1
1
0.999999
0.999978
0.999945
0.999984
0.999999
0.999999
0.999999
1
0.00264384
0.00263554
0.312346
0.820539
0.834034
0.621532
0.0947315
0.00224346
0.00094462
0.000464665
0.000303765
0.00026523
0.000406362
0.00283417
0.212578
0.902305
0.999967
0.999998
1
1
1
1
1
1
1
1
0.999999
0.999999
1
1
1
0.999999
0.999998
0.999991
0.999991
0.999999
0.999999
0.999999
0.999998
1
0.045154
0.578454
0.957864
0.955605
0.741876
0.266283
0.113957
0.0267643
0.000486724
0.000306901
0.000218894
0.000168106
0.000145492
0.000422844
0.0114043
0.338761
0.879018
1
1
1
1
1
1
1
1
1
1
1
1
1
1
0.999999
0.999999
1
1
1
0.999999
0.999999
0.999998
1
0.577199
0.983833
0.982742
0.795534
0.565015
0.690883
0.801826
0.352905
0.00096716
0.00021026
0.000171062
0.000143975
0.00011415
0.000132912
0.00038785
0.00791597
0.193387
0.506352
0.709601
0.844141
0.950387
1
1
1
1
1
1
1
1
1
1
1
1
1
1
1
0.999999
1
1
0.999999
0.926529
0.984716
0.918204
0.73727
0.805176
0.991123
0.999807
0.864287
0.200537
0.000430189
0.000138795
0.000114101
0.000109357
0.000103043
0.000126049
0.0003802
0.00132541
0.0136263
0.0574972
0.137057
0.276136
0.438477
0.574362
0.664671
0.732614
0.780822
0.814167
0.837535
0.85203
0.859365
0.862964
0.869121
0.890187
0.912334
0.996379
1
1
0.999999
1
1
0.972212
0.984716
0.857808
0.73727
0.929378
0.999786
0.999909
0.999948
0.791608
0.173765
0.000318717
0.000122531
0.000102243
9.80048e-05
9.11339e-05
9.80296e-05
0.000198521
0.00035996
0.000554964
0.000824757
0.00132244
0.00368875
0.0157178
0.0344909
0.0580605
0.0814664
0.102301
0.119464
0.131146
0.137156
0.139752
0.143636
0.165571
0.190511
0.484868
0.939192
1
1
1
1
0.923459
0.984716
0.874022
0.752835
0.955598
0.9999
0.99995
0.999986
0.999948
0.791502
0.210568
0.000268615
0.000110358
9.15798e-05
7.75461e-05
6.32972e-05
4.88989e-05
5.90209e-05
7.81928e-05
9.68248e-05
0.000120934
0.000145439
0.000174195
0.000214383
0.000256977
0.000284825
0.000293466
0.000287642
0.000272846
0.000250334
0.000222398
0.000201021
0.000173493
0.00019227
0.000557856
0.577983
0.999578
0.999999
1
1
0.611035
0.983737
0.950979
0.916178
0.974385
0.999945
0.999985
0.999987
0.999987
0.999906
0.823179
0.275208
0.000287745
8.11696e-05
6.34167e-05
4.84066e-05
3.0219e-05
2.37275e-05
2.27864e-05
2.3354e-05
2.43141e-05
2.55037e-05
2.75581e-05
2.98099e-05
3.3225e-05
3.593e-05
3.65749e-05
3.56592e-05
3.62596e-05
3.99192e-05
3.69185e-05
4.34503e-05
5.08841e-05
7.71275e-05
0.000192271
0.511696
0.99716
0.99999
1
1
0.162726
0.807394
0.997165
0.997931
0.997857
0.999502
0.999987
0.999987
0.999987
0.999985
0.999851
0.863078
0.374722
0.0529329
5.16114e-05
3.13822e-05
2.52293e-05
1.92009e-05
1.88766e-05
1.88526e-05
1.89745e-05
1.92448e-05
1.96155e-05
2.01202e-05
2.07404e-05
2.138e-05
2.20062e-05
2.27462e-05
2.30647e-05
2.32116e-05
2.64611e-05
3.37512e-05
4.34503e-05
5.08841e-05
0.191028
0.817578
0.997786
0.999955
0.999999
0.999999
0.167651
0.206175
0.812005
0.999627
0.999961
0.999977
0.999987
0.999987
0.999987
0.999987
0.999983
0.999786
0.924093
0.58406
0.233244
0.0523544
1.92943e-05
1.89341e-05
1.8959e-05
1.89345e-05
1.89617e-05
1.91229e-05
1.94546e-05
1.99159e-05
2.04939e-05
2.11428e-05
2.17814e-05
2.23391e-05
2.27753e-05
2.30647e-05
2.32116e-05
0.0050156
0.0969781
0.374691
0.843992
0.994039
0.999113
0.999975
1
1
0.403277
0.215463
0.239159
0.806068
0.999672
0.999969
0.999987
0.999987
0.999987
0.999985
0.999992
0.999972
0.999588
0.988238
0.870703
0.632698
0.373825
0.185294
0.0870858
0.0394189
0.01681
0.00689303
0.00435298
0.0061422
0.0170645
0.0295248
0.0547732
0.0948009
0.154597
0.2447
0.381813
0.577583
0.781516
0.95352
0.999196
0.999904
0.99999
1
1
1
0.999986
0.562892
0.24209
0.249901
0.786586
0.99964
0.99996
0.999986
0.999969
0.999985
0.999994
0.999997
0.999967
0.99978
0.999048
0.995693
0.957146
0.865934
0.763754
0.682077
0.62838
0.600714
0.594235
0.602145
0.63771
0.672241
0.726813
0.792063
0.85933
0.921683
0.970738
0.995472
0.998784
0.99957
0.999921
0.999985
0.999991
0.999996
0.999318
0.997974
1
1
0.600659
0.251228
0.288718
0.871869
0.999629
0.999956
0.999968
0.999979
0.999995
0.999999
0.999997
0.999979
0.999909
0.999746
0.999427
0.998825
0.998119
0.997538
0.997163
0.996998
0.996928
0.997134
0.997455
0.997768
0.998194
0.99865
0.999073
0.999428
0.999683
0.999823
0.999793
0.999853
0.999894
0.999935
0.999161
0.997454
0.996762
0.996758
1
1
0.999998
0.450075
0.10371
0.482858
0.988661
0.999906
0.99997
0.999971
0.999993
1
1
0.999998
0.99999
0.999974
0.999943
0.999885
0.999818
0.999764
0.999731
0.999719
0.999724
0.999741
0.999775
0.999806
0.999847
0.999888
0.999925
0.999955
0.999975
0.999979
0.999835
0.999628
0.998274
0.997223
0.996785
0.99676
0.996758
0.996758
1
0.999999
0.999986
0.707024
0.0876031
0.205926
0.877279
0.999767
0.999973
0.999978
0.999993
1
1
1
0.999998
0.999997
0.999993
0.999989
0.999982
0.999977
0.999974
0.999974
0.999975
0.999977
0.999981
0.999984
0.999988
0.999991
0.999993
0.999996
0.999997
0.999989
0.999602
0.997226
0.996866
0.99688
0.996929
0.997935
0.997855
0.997666
1
0.999998
0.999897
0.716981
0.0641766
0.0855713
0.750505
0.999776
0.999986
0.999991
0.999996
1
1
1
0.999999
0.999999
0.999999
0.999999
0.999998
0.999997
0.999997
0.999997
0.999997
0.999998
0.999999
0.999999
0.999999
0.999999
0.999999
0.999999
0.999999
0.999992
0.999178
0.996866
0.996866
0.997125
0.999017
0.999935
0.999959
0.999933
1
0.99999
0.999297
0.38427
0.0199311
0.0150365
0.644052
0.999566
0.999947
0.999998
0.999999
1
1
1
0.999999
0.999999
0.999999
1
1
0.999999
0.999999
0.999999
1
1
1
1
1
1
1
1
0.999999
0.999983
0.999316
0.997804
0.997607
0.999364
0.999987
0.999988
0.999995
0.999998
1.00001
0.99999
0.790399
0.124236
0.0143863
0.0142772
0.617675
0.999168
0.99997
1
1
1
1
1
1
0.999997
0.999997
1
1
1
0.999999
1
1
1
1
1
1
1
1
1
0.999998
0.999969
0.99985
0.999914
0.999879
0.999997
0.999993
0.999984
0.999996
0.999999
0.999998
0.999352
0.401626
0.0148421
0.0124474
0.0140267
0.625468
0.999998
1
1
1
1
1
1
1
0.999995
0.999995
1
1
0.999999
0.999999
1
1
1
1
0.999999
1
1
1
1
0.999997
0.999987
0.999999
0.999998
0.999999
0.999999
0.999995
0.999976
0.999989
1
1.00022
0.778556
0.0961346
0.0124012
0.0118129
0.0162974
0.571396
1
1
1
1
1
1
1
1
0.999996
0.999995
0.999999
1
0.999999
1
1
1
1
1
0.999999
1
1
1
1
0.999999
1
1
1
1
0.999999
0.999982
0.999976
0.999989
1
1.00016
0.364706
0.0139058
0.0118069
0.0116845
0.0151103
0.377117
0.996698
1
1
1
1
1
1
1
0.999998
0.999995
0.999996
1
1
1
0.999999
0.999994
0.999999
1
0.999999
1
1
1
0.999999
1
1
1
1
1
0.999988
0.999962
0.999989
0.999998
1
0.89311
0.122224
0.0121104
0.0116605
0.0115908
0.0133789
0.134302
0.866444
1
1
1
1
1
1
1
1
0.999995
0.999995
0.999999
1
1
0.999995
0.999992
0.999993
1
1
1
1
1
0.999999
1
1
1
0.999992
0.999895
0.999873
0.999966
0.999997
0.999996
1
0.594255
0.0317215
0.0116161
0.0116084
0.0114654
0.0115705
0.0184772
0.428405
0.897217
1
1
1
1
1
1
1
0.999999
0.999995
0.999998
1
0.999999
0.999995
0.999992
0.999993
1
1
0.999999
1
1
0.999999
1
1
0.999999
0.999874
0.999859
0.999859
0.999988
0.999997
0.999967
0.999678
0.386581
0.0221276
0.0114234
0.0113689
0.0115706
0.0115339
0.011609
0.0774883
0.388773
0.728521
0.924148
1
1
1
1
1
1
0.999999
0.999999
1
0.999999
0.999998
0.999992
0.999996
1
1
0.999997
0.999972
1
1
0.999999
1
0.999899
0.999858
0.999858
0.999933
0.999997
0.999997
0.99996
0.997541
0.240548
0.0670335
0.0112735
0.0114851
0.0116104
0.0113834
0.0115339
0.0231014
0.0292578
0.13351
0.356216
0.721049
0.977596
1
1
1
1
1
1
1
1
1
0.999998
1
1
1
1
0.999943
0.999681
1
0.999999
0.999966
0.999857
0.999857
0.999905
0.999999
0.999997
0.999976
0.999074
0.997398
0.163268
0.105733
0.0125901
0.0113841
0.0114899
0.0113265
0.0215609
0.0154484
0.0100165
0.0123492
0.0184888
0.110228
0.534323
0.93797
1
1
1
1
1
1
1
1
1
1
0.999999
0.999994
0.999999
0.999999
0.999621
0.999999
0.999997
0.999858
0.999857
0.999872
0.999994
1
0.999998
0.999915
0.997408
0.997398
0.125794
0.117678
0.0159347
0.0116755
0.0114756
0.0243122
0.0293797
0.0149908
0.00977948
0.0102463
0.0113147
0.0154732
0.0461743
0.455591
0.933845
1
1
1
0.999999
1
1
1
1
1
0.999999
0.999996
0.999363
0.997971
0.999947
0.999999
0.999925
0.999857
0.999857
0.999974
0.999999
1
0.999999
0.999416
0.997405
0.997398
0.110975
0.0975856
0.0136414
0.0120866
0.0283674
0.0301795
0.0297204
0.00979998
0.00939859
0.00978346
0.0103947
0.0122748
0.0270416
0.107693
0.457041
0.978366
1
1
1
1
1
1
1
1
0.999999
0.999999
0.999064
0.994463
0.999999
0.999984
0.999857
0.999857
0.999946
1
1
1
0.999804
0.997516
0.997409
0.999329
0.106874
0.0894663
0.0126079
0.0148629
0.0306162
0.0304275
0.0284644
0.00922858
0.00923013
0.0114447
0.0814846
0.459502
0.367891
0.115663
0.150729
0.708001
0.984286
1
1
0.999999
1
0.999999
0.999998
0.999999
0.999998
0.999959
0.999954
0.994454
0.999999
0.999981
0.99987
0.999917
0.999999
0.999999
1
1
0.999211
0.997438
0.997643
0.999737
0.106795
0.119224
0.0125709
0.0170718
0.0306162
0.0306162
0.01193
0.00898804
0.00918543
0.0268188
0.423564
0.896497
0.877832
0.303386
0.154342
0.235835
0.881676
0.999999
1
1
0.999995
0.999988
0.999998
1
1
0.999231
0.978391
0.997874
1
0.999984
0.999987
0.999997
0.999999
0.999999
1
0.999999
0.999095
0.997439
0.999341
0.999737
0.10779
0.154148
0.0115546
0.0135179
0.0306162
0.0217858
0.00868019
0.00908918
0.00899578
0.115375
0.799213
0.909523
0.909079
0.791006
0.220295
0.213569
0.73368
0.999986
0.999998
0.999999
0.999988
0.999988
0.999999
1
1
0.999997
0.948366
0.999868
1
0.999998
0.999999
0.999999
0.999999
0.999998
0.999999
0.999982
0.999345
0.999088
0.999955
0.999722
0.110896
0.161616
0.00986439
0.00918259
0.0294346
0.00874737
0.00908946
0.00904467
0.00909119
0.325736
0.905426
0.909429
0.909674
0.909076
0.371802
0.213482
0.696096
0.999661
0.999991
0.999989
0.999988
0.99999
0.999999
1
0.999997
0.866758
0.948551
1
1
1
0.999999
0.999999
0.999999
0.999997
0.999997
0.999964
0.999898
0.999988
0.999963
0.999717
0.125624
0.169654
0.0793125
0.009076
0.00913782
0.00905349
0.00904467
0.00901497
0.00904419
0.615494
0.909513
0.909678
0.909738
0.909674
0.393032
0.213491
0.731656
0.998978
0.999984
0.999992
0.999988
0.999995
0.999999
0.999998
0.912917
0.753623
0.970578
1
1
0.999999
0.999999
0.999999
1
0.999997
0.999996
0.999962
0.999988
0.999989
0.999954
0.999717
0.140697
0.170421
0.199464
0.00906361
0.00908434
0.00903726
0.00901497
0.00903862
0.160562
0.848882
0.909775
0.909763
0.909728
0.879481
0.340521
0.26159
0.844102
0.998611
0.999984
0.999997
0.999994
0.999995
0.999997
0.979434
0.624868
0.752488
0.999706
1
0.999999
0.999999
0.999998
1
0.999999
0.999999
0.999993
0.999962
0.999989
0.999989
0.999949
0.999882
0.149743
0.0830828
0.442492
0.00907513
0.00903198
0.00901774
0.00903117
0.117684
0.654738
0.909713
0.910041
0.909679
0.909728
0.503318
0.331575
0.614622
0.964062
0.998914
0.999987
0.999997
0.999997
0.999997
0.999984
0.673761
0.624116
0.87526
1
1
1
0.999998
0.999998
1
0.999999
0.999999
0.999992
0.999964
0.999988
0.999986
0.999949
0.999976
0.151113
0.0307395
0.585351
0.306661
0.00908735
0.0784661
0.29935
0.668331
0.907979
0.909859
0.910268
0.910049
0.652536
0.400834
0.390544
0.937166
0.997599
0.999682
0.999995
0.999997
0.999997
0.99999
0.839734
0.585392
0.675409
0.996122
1
1
1
0.999999
0.999999
0.999996
0.999995
0.999999
0.999994
0.999986
0.999968
0.999982
0.999954
0.999991
0.1378
0.0306196
0.485389
0.750008
0.543052
0.671721
0.852256
0.905818
0.908143
0.908348
0.882954
0.655643