/*--------------------------------*- C++ -*----------------------------------*\
  =========                 |
  \\      /  F ield         | OpenFOAM: The Open Source CFD Toolbox
   \\    /   O peration     | Website:  https://openfoam.org
    \\  /    A nd           | Version:  8
     \\/     M anipulation  |
\*---------------------------------------------------------------------------*/
FoamFile
{
    version     2.0;
    format      ascii;
    class       volScalarField;
    location    "1.95";
    object      epsilon;
}
// * * * * * * * * * * * * * * * * * * * * * * * * * * * * * * * * * * * * * //

dimensions      [0 2 -3 0 0 0 0];

internalField   nonuniform List<scalar> 
9150
(
0.0313123
0.0124615
0.00311715
0.000965959
0.000492753
0.000492787
0.000966085
0.00311756
0.0124622
0.031312
0.0302216
0.00876907
0.00174604
0.000624901
0.00037382
0.000373832
0.000624948
0.00174625
0.00876954
0.0302215
0.0284257
0.00696701
0.0011292
0.000514146
0.000335513
0.000335518
0.00051416
0.00112929
0.0069673
0.0284257
0.0264937
0.00602736
0.000847781
0.000480956
0.000323896
0.000323897
0.00048096
0.000847808
0.00602751
0.0264937
0.0244911
0.00562433
0.000707753
0.000473745
0.000322171
0.000322172
0.000473746
0.000707755
0.00562442
0.0244911
0.123744
0.0525855
0.0230427
0.0144059
0.0107649
0.01076
0.0143918
0.0230121
0.0525149
0.123716
0.0761312
0.0230532
0.0133319
0.00911894
0.00669347
0.00669164
0.00911343
0.0133207
0.0230447
0.0761311
0.0553429
0.0178897
0.00769206
0.00473052
0.00328258
0.00328209
0.00472889
0.00768924
0.017889
0.0553438
0.0424998
0.0152353
0.00481794
0.00237282
0.00148685
0.00148679
0.00237257
0.00481767
0.0152365
0.0425001
0.0356114
0.0137227
0.00353405
0.00133861
0.000749846
0.000749872
0.0013387
0.00353439
0.0137239
0.0356114
0.941867
0.154181
0.0480584
0.0216623
0.0135191
0.0135734
0.0218337
0.0485034
0.154855
0.865162
0.277033
0.120483
0.0465284
0.0214833
0.0136304
0.0136574
0.0215672
0.0468177
0.122161
0.275977
0.235426
0.104447
0.0456352
0.0212541
0.0137404
0.0137474
0.0212753
0.0457071
0.105023
0.235054
0.197201
0.0921504
0.0449445
0.0210146
0.0138459
0.0138437
0.0210126
0.044951
0.0921844
0.197052
0.156401
0.0868302
0.0412739
0.0198017
0.0134696
0.0134629
0.019785
0.041237
0.0867051
0.156344
4.4742
4.49928
4.51864
4.53034
4.53337
4.5273
4.51196
4.48724
4.4531
4.40924
2.00285
2.01149
2.01752
2.02076
2.02108
2.01836
2.01256
2.00364
1.99158
1.97633
1.55571
1.56186
1.56612
1.56846
1.56886
1.56727
1.56368
1.55806
1.55039
1.54068
1.39354
1.39896
1.40294
1.40545
1.40648
1.40598
1.40392
1.40027
1.395
1.38808
1.32232
1.32758
1.33178
1.33488
1.33683
1.33759
1.33708
1.33526
1.33205
1.3274
1.29317
1.29864
1.30341
1.30743
1.31063
1.31292
1.31422
1.31442
1.31342
1.3111
1.28772
1.29372
1.29942
1.30474
1.30958
1.31382
1.31734
1.31999
1.32161
1.32203
1.29715
1.30407
1.31111
1.31818
1.32516
1.33189
1.33821
1.34395
1.34887
1.35274
1.31643
1.32469
1.33355
1.34291
1.35261
1.36251
1.37241
1.38208
1.39125
1.39962
1.34213
1.35222
1.36343
1.37567
1.3888
1.40266
1.41705
1.43174
1.44641
1.46068
1.37166
1.38406
1.39816
1.4139
1.43117
1.44985
1.46979
1.49075
1.51243
1.53442
1.4028
1.41796
1.43544
1.45523
1.47731
1.50165
1.52816
1.55671
1.58706
1.61886
1.43365
1.45188
1.47306
1.49729
1.52467
1.5553
1.58923
1.6265
1.66706
1.71073
1.46251
1.48392
1.5089
1.53768
1.57051
1.60766
1.64942
1.69605
1.74781
1.80487
1.48798
1.5124
1.54094
1.57399
1.61197
1.65535
1.70466
1.76049
1.82348
1.89427
1.50897
1.53593
1.56746
1.60409
1.64639
1.69504
1.75084
1.81468
1.88761
1.97081
1.52479
1.55355
1.58718
1.6263
1.67162
1.72399
1.7844
1.85401
1.93422
2.02664
1.53521
1.56484
1.59944
1.6397
1.6864
1.74049
1.80306
1.87544
1.95918
2.05618
1.54046
1.56994
1.60431
1.64425
1.69057
1.74421
1.8063
1.87816
1.9614
2.05794
1.54121
1.56958
1.60256
1.64081
1.68508
1.73625
1.79535
1.86364
1.94256
2.03389
1.53848
1.5649
1.59552
1.63093
1.67178
1.71882
1.77294
1.83517
1.90671
1.989
1.53346
1.55731
1.58488
1.61664
1.65312
1.69492
1.74274
1.79735
1.85965
1.93066
1.52744
1.54836
1.57247
1.60014
1.63177
1.6678
1.70873
1.75509
1.80749
1.86657
1.52165
1.53951
1.56004
1.58352
1.61022
1.64045
1.67452
1.71278
1.75556
1.80323
1.5172
1.53205
1.54911
1.56856
1.59058
1.61536
1.64306
1.67386
1.70793
1.7454
1.51497
1.52703
1.5409
1.55668
1.57448
1.59439
1.61647
1.64078
1.66737
1.69621
1.51566
1.52525
1.53631
1.5489
1.56306
1.5788
1.59614
1.61505
1.63548
1.65735
1.5198
1.52728
1.53597
1.54588
1.55702
1.56934
1.58281
1.59737
1.61293
1.62935
1.52774
1.53351
1.54028
1.54803
1.55673
1.56633
1.57675
1.5879
1.59968
1.61196
1.53977
1.54422
1.5495
1.55557
1.56238
1.56986
1.57791
1.58645
1.59536
1.60449
1.55612
1.55962
1.5638
1.56863
1.57402
1.57989
1.58615
1.5927
1.59942
1.60618
1.57703
1.57992
1.58338
1.58733
1.59169
1.59638
1.60131
1.60635
1.6114
1.61634
1.6028
1.6054
1.60844
1.61184
1.61551
1.61936
1.62329
1.6272
1.63096
1.63446
1.6338
1.6364
1.63929
1.64241
1.64566
1.64894
1.65215
1.65519
1.65793
1.66027
1.67051
1.67335
1.67634
1.67942
1.68247
1.6854
1.6881
1.69047
1.69238
1.69374
1.71351
1.71681
1.72011
1.72334
1.72638
1.72914
1.73151
1.73336
1.7346
1.73509
1.76347
1.76742
1.77122
1.77479
1.77801
1.78077
1.78295
1.78443
1.7851
1.78482
1.82114
1.82593
1.83042
1.83452
1.8381
1.84104
1.8432
1.84445
1.84467
1.8437
1.88732
1.89316
1.89857
1.90343
1.90761
1.91094
1.91329
1.91449
1.9144
1.91286
1.96291
1.97006
1.97667
1.98259
1.98766
1.99169
1.99451
1.99593
1.99575
1.9938
2.04889
2.0577
2.06589
2.07328
2.07966
2.08483
2.08854
2.09055
2.09064
2.08855
2.14639
2.15732
2.16759
2.17701
2.18531
2.19221
2.19742
2.20063
2.20152
2.19976
2.25669
2.27033
2.28336
2.29554
2.30656
2.31607
2.32368
2.32898
2.33153
2.33088
2.38118
2.39827
2.41491
2.43083
2.44565
2.45894
2.47023
2.47895
2.4845
2.48625
2.52125
2.54269
2.564
2.58487
2.60489
2.62358
2.64031
2.65439
2.66499
2.6712
2.67822
2.70505
2.73225
2.75954
2.78652
2.81265
2.83724
2.8594
2.87805
2.89192
2.85324
2.88655
2.92097
2.95632
2.9923
3.02841
3.06392
3.09783
3.12884
3.15524
3.04716
3.08799
3.13094
3.17604
3.22319
3.27209
3.32216
3.37245
3.42154
3.46737
3.26052
3.30971
3.36225
3.41851
3.47878
3.54317
3.61149
3.68317
3.75696
3.83079
3.49363
3.55165
3.61436
3.68263
3.7573
3.83916
3.92882
4.02663
4.13269
4.24669
3.74686
3.81375
3.88661
3.96687
4.05607
4.15593
4.26834
4.39576
4.54169
4.71014
4.02131
4.09683
4.17929
4.27066
4.37324
4.4897
4.62318
4.77691
4.95825
5.12556
4.31953
4.40357
4.49496
4.59622
4.71051
4.84169
4.99391
5.15462
5.26031
5.26831
4.64619
4.73942
4.83953
4.94928
5.07223
5.21363
5.33207
5.38529
5.40467
5.37869
5.00861
5.11408
5.22477
5.34232
5.46721
5.55885
5.58571
5.60553
5.62404
5.58398
5.41558
5.54136
5.67092
5.80201
5.90755
5.94573
5.93954
5.92203
5.89791
5.81525
5.87061
6.02961
6.1947
6.34417
6.44015
6.46063
6.42174
6.356
6.26048
6.12223
6.36431
6.56753
6.78461
6.99065
7.12244
7.14566
7.08253
6.97311
6.79338
6.58807
6.87261
7.11888
7.3854
7.67385
7.93434
8.03755
7.99143
7.84966
7.58577
7.29565
7.38003
7.66397
7.97166
8.3076
8.67393
9.01665
9.16933
9.05257
8.70618
8.29674
7.8846
8.20021
8.54239
8.91675
9.33069
9.79361
10.3038
10.6679
10.3249
9.68713
8.39166
8.73093
9.09663
9.49369
9.9286
10.4097
10.9473
11.5493
11.9759
11.4299
8.91454
9.27116
9.65093
10.0563
10.4898
10.9536
11.4486
11.9716
12.5005
12.7556
9.47326
9.84642
10.2393
10.6522
11.0844
11.5338
11.9961
12.4633
12.9201
13.3182
10.0883
10.4833
10.897
11.3284
11.7752
12.2334
12.6965
13.1547
13.5937
13.9926
10.7737
11.2
11.6481
12.1168
12.6031
13.1019
13.6053
14.1024
14.5774
15.0096
11.5322
12.0002
12.4988
13.0272
13.5828
14.1598
14.7492
15.338
15.9085
16.438
12.3536
12.871
13.4345
14.0455
14.7026
15.4006
16.1298
16.8752
17.6159
18.3252
13.2154
13.7827
14.4197
15.1322
15.9221
16.7867
17.7173
18.6985
19.706
20.7067
14.0875
14.6921
15.4001
16.2238
17.1714
18.2459
19.4432
20.7508
22.1446
23.5855
14.9387
15.5504
16.3098
17.2391
18.3564
19.6747
21.2006
22.9313
24.8508
26.9032
15.7479
16.3137
17.0838
18.0931
19.3729
20.9517
22.8542
25.1
27.6728
30.5428
16.5156
16.9582
17.6756
18.7172
20.13
21.9615
24.2624
27.0867
30.4293
34.3202
17.2768
17.4927
18.0722
19.0784
20.5727
22.6233
25.3128
28.7223
32.9074
37.9722
18.1035
17.9614
18.2978
19.1847
20.6916
22.9014
25.9263
29.8803
34.895
41.1828
19.0853
18.4267
18.4003
19.0763
20.5187
22.8123
26.0865
30.4836
36.2051
43.5765
20.2935
18.9388
18.4256
18.8029
20.1099
22.4145
25.8417
30.5467
36.7828
45.0001
21.7452
19.5085
18.3943
18.401
19.5214
21.7846
25.2855
30.1596
36.6569
45.2641
23.3678
20.0937
18.2944
17.8852
18.7954
21.0006
24.546
29.5221
36.1175
44.7369
24.9722
20.6051
18.0906
17.2502
17.9509
20.115
23.7324
28.8461
35.5704
44.2089
26.3037
20.9481
17.7494
16.482
16.982
19.1337
22.8766
28.2091
35.1835
44.0354
27.2974
21.106
17.2689
15.5741
15.8719
18.0316
21.9485
27.5705
34.902
44.1575
28.0055
21.1089
16.6685
14.5298
14.6052
16.7783
20.9038
26.8564
34.5832
44.2735
28.5052
20.9933
15.9728
13.3594
13.1749
15.3538
19.7156
26.0383
34.1766
44.2553
28.8467
20.7916
15.214
12.0864
11.5876
13.7529
18.378
25.1218
33.7352
44.2152
28.9388
20.5081
14.4271
10.7515
9.87129
11.9864
16.8785
24.1052
33.3359
44.4014
28.7068
20.1443
13.6423
9.40798
8.07981
10.0892
15.1947
22.9379
32.9833
45.0345
28.7444
19.8686
12.9143
8.1184
6.29341
8.10843
13.3134
21.4951
32.5047
46.2158
29.1361
19.6879
12.2181
6.91602
4.60504
6.137
11.2468
19.5991
31.3891
47.0524
29.8665
19.5224
11.4473
5.75848
3.0977
4.30449
9.09498
17.2342
29.2317
46.106
30.8306
19.2029
10.4458
4.57683
1.8574
2.74517
7.01174
14.622
26.2637
43.2427
31.7765
18.5402
9.12438
3.36889
0.958058
1.55216
5.10642
11.9898
22.9553
39.2672
32.5036
17.4262
7.52637
2.2271
0.414357
0.75496
3.45065
9.50252
19.8005
35.6922
32.6196
15.6144
5.72727
1.27608
0.151407
0.307413
2.08982
7.15747
16.6981
32.0615
31.2795
12.9764
3.87015
0.620083
0.0531376
0.107744
1.08569
4.97546
13.5964
28.4535
27.5803
9.61514
2.23906
0.261286
0.0245606
0.0401206
0.470425
3.04255
10.3703
24.4467
21.3096
6.05311
1.08743
0.104835
0.0165644
0.0204755
0.17618
1.5545
7.08327
19.9132
12.8852
3.01094
0.450274
0.0490283
0.0142697
0.0151864
0.0651213
0.640199
3.97747
14.2738
4.60141
1.14089
0.180693
0.0300095
0.0136286
0.0138612
0.0321566
0.22026
1.6241
7.29885
1.11935
0.421996
0.0809839
0.0233771
0.0134752
0.0135692
0.0235881
0.08073
0.463058
1.40453
4.35094
4.27998
4.19764
4.10437
4.00078
3.88759
3.76557
3.6356
3.49854
3.35524
3.20667
3.05683
2.9146
2.77459
2.635
2.49557
2.35667
2.21892
2.08299
1.94951
1.81903
1.69202
1.56888
1.44992
1.3354
1.2255
1.12036
1.02008
0.924702
0.834221
0.748541
0.667414
0.590302
0.516133
0.443002
0.367986
0.287541
0.200062
0.108064
0.0451749
1.95673
1.93248
1.90453
1.87298
1.83798
1.79971
1.75836
1.71415
1.66734
1.61827
1.56746
1.51611
1.4656
1.41484
1.36324
1.31053
1.25668
1.20176
1.14598
1.08958
1.03283
0.976012
0.919399
0.863249
0.807799
0.753256
0.699797
0.64757
0.596688
0.547231
0.499246
0.452744
0.407693
0.36401
0.321545
0.28017
0.240229
0.203761
0.181116
0.258423
1.52819
1.51257
1.49448
1.47402
1.45124
1.42627
1.39923
1.37025
1.3395
1.3072
1.2736
1.23906
1.20395
1.16811
1.13139
1.09367
1.05493
1.01518
0.974502
0.933025
0.890901
0.848309
0.805442
0.762494
0.719659
0.677123
0.63506
0.593636
0.553002
0.513304
0.474688
0.437305
0.401324
0.366955
0.334497
0.304522
0.278553
0.261439
0.272601
0.483242
1.37897
1.36728
1.35351
1.33767
1.31981
1.3
1.27832
1.2549
1.22986
1.20334
1.17553
1.14661
1.11675
1.08593
1.05413
1.02136
0.987628
0.952992
0.917528
0.881343
0.844565
0.807339
0.769823
0.732181
0.694581
0.65719
0.620175
0.583704
0.547946
0.513081
0.479308
0.44686
0.416034
0.387248
0.361162
0.339004
0.323499
0.322196
0.365001
0.719165
1.32087
1.31203
1.30117
1.28828
1.27333
1.25635
1.2374
1.21657
1.19396
1.16972
1.14402
1.11701
1.08883
1.05953
1.02918
0.997855
0.96564
0.932631
0.898938
0.864683
0.829998
0.795021
0.759897
0.724775
0.689805
0.655139
0.620935
0.587355
0.554574
0.522788
0.492229
0.463191
0.436069
0.411453
0.390308
0.37442
0.367642
0.380342
0.453665
0.953299
1.30713
1.30099
1.29278
1.28237
1.26968
1.25467
1.23734
1.21776
1.19605
1.17235
1.14688
1.11983
1.09135
1.06161
1.03076
0.99895
0.96635
0.93311
0.899384
0.865319
0.831059
0.796743
0.762511
0.728497
0.694836
0.661665
0.629128
0.597378
0.566587
0.536961
0.508753
0.482301
0.458083
0.436828
0.419749
0.409097
0.40969
0.434405
0.534101
1.15799
1.32102
1.31796
1.31266
1.30487
1.29441
1.28111
1.26492
1.24587
1.22406
1.19973
1.17314
1.14456
1.11427
1.08255
1.04969
1.01596
0.981591
0.946818
0.911832
0.876805
0.841892
0.80723
0.772945
0.739157
0.705981
0.673534
0.641943
0.611347
0.581912
0.553842
0.527408
0.50298
0.481099
0.462604
0.448908
0.442632
0.449383
0.484085
0.605444
1.3292
1.35545
1.35628
1.35464
1.35011
1.34232
1.33094
1.31578
1.29679
1.2741
1.24802
1.21898
1.18738
1.15373
1.11852
1.08221
1.04521
1.00786
0.97045
0.933211
0.896325
0.859943
0.824188
0.789164
0.754966
0.721682
0.689405
0.658237
0.628301
0.59975
0.572785
0.547682
0.524834
0.50483
0.488595
0.477701
0.475075
0.486994
0.530172
0.670278
1.48217
1.40725
1.41328
1.41662
1.4166
1.41252
1.40378
1.38991
1.3707
1.34627
1.31712
1.28389
1.24737
1.20848
1.16801
1.12666
1.08501
1.04349
1.00241
0.962035
0.922518
0.883986
0.846529
0.810213
0.775097
0.741234
0.708685
0.677525
0.647854
0.619807
0.593577
0.569441
0.547807
0.529298
0.514909
0.506344
0.506795
0.523126
0.573634
0.730136
1.61903
1.47493
1.48815
1.4986
1.50521
1.50681
1.50225
1.49052
1.47095
1.44356
1.40922
1.36915
1.32502
1.27837
1.23048
1.18229
1.13451
1.0876
1.04189
0.99755
0.954709
0.913427
0.873737
0.835652
0.799182
0.764337
0.731138
0.69963
0.669884
0.642017
0.616209
0.592733
0.572005
0.554676
0.5418
0.535192
0.53828
0.55845
0.615404
0.786381
1.74301
1.55754
1.58079
1.60157
1.61832
1.62916
1.63192
1.62435
1.60456
1.57203
1.52842
1.47701
1.4211
1.36334
1.30545
1.24849
1.19311
1.1397
1.08843
1.03939
0.992592
0.948011
0.905601
0.86531
0.827086
0.79089
0.7567
0.724522
0.694399
0.666425
0.640764
0.617682
0.597602
0.581195
0.569567
0.564636
0.570039
0.593634
0.656389
0.840415
1.85814
1.65364
1.69063
1.72635
1.75871
1.7849
1.80113
1.80272
1.78459
1.74207
1.67988
1.60864
1.53514
1.4625
1.39215
1.32471
1.26047
1.19953
1.14188
1.08743
1.03607
0.987655
0.942054
0.899132
0.85877
0.820872
0.785368
0.752222
0.721444
0.693102
0.667343
0.644425
0.624774
0.609084
0.598508
0.595066
0.602599
0.629421
0.697719
0.894291
1.96995
1.7601
1.81508
1.87143
1.92693
1.97809
2.01972
2.04455
2.03956
1.96446
1.86202
1.76122
1.66541
1.57507
1.49022
1.41073
1.33637
1.2669
1.20202
1.14145
1.08491
1.03213
0.982875
0.936912
0.894049
0.854124
0.81701
0.782626
0.750946
0.722009
0.695941
0.672994
0.653597
0.638468
0.628816
0.626772
0.636406
0.666548
0.740787
0.95124
2.08897
1.8712
1.94799
2.03071
2.11785
2.20677
2.29342
2.37116
2.33206
2.19853
2.05824
1.9279
1.80854
1.69899
1.59826
1.50549
1.41998
1.34107
1.2682
1.20085
1.13858
1.08095
1.02762
0.978261
0.932583
0.890352
0.851379
0.815532
0.78274
0.753013
0.726457
0.703314
0.68402
0.669318
0.660479
0.659752
0.67145
0.704941
0.785241
1.00988
2.21201
1.97847
2.07908
2.1918
2.3167
2.45302
2.59778
2.70408
2.57029
2.42157
2.25344
2.09921
1.95841
1.83007
1.71312
1.60651
1.50921
1.42029
1.33892
1.26435
1.19595
1.13315
1.07546
1.02245
0.97375
0.929029
0.888031
0.850563
0.816513
0.785855
0.758675
0.735208
0.715896
0.701515
0.693399
0.693925
0.707662
0.744539
0.831068
1.07048
2.34209
2.07156
2.19491
2.33736
2.50141
2.68946
2.90195
2.9844
2.81605
2.64478
2.45283
2.27484
2.1123
1.96477
1.83124
1.71045
1.60111
1.50197
1.41191
1.32997
1.25531
1.18723
1.12511
1.0684
1.01663
0.969372
0.9263
0.88716
0.85179
0.820134
0.792257
0.768389
0.748985
0.734856
0.727407
0.729157
0.744948
0.785316
0.878385
1.13359
2.482
2.13992
2.28091
2.44715
2.64403
2.87893
3.16211
3.29435
3.08147
2.90039
2.66493
2.45519
2.26753
2.09935
1.94865
1.81351
1.69215
1.58293
1.48436
1.39523
1.3145
1.24132
1.17495
1.11472
1.06003
1.01038
0.965335
0.924595
0.887952
0.855322
0.826754
0.802477
0.782964
0.769068
0.762279
0.765268
0.78318
0.827214
0.927259
1.19959
2.63355
2.17571
2.32547
2.50307
2.71403
2.96451
3.25995
3.49144
3.29501
3.11661
2.86039
2.626
2.41547
2.22746
2.06001
1.91098
1.77819
1.65953
1.55307
1.45731
1.37106
1.29329
1.22316
1.15985
1.10264
1.0509
1.00415
0.962022
0.924272
0.890793
0.861628
0.837011
0.817443
0.803828
0.797746
0.802042
0.822192
0.870118
0.97764
1.26855
2.79739
2.17708
2.3267
2.50467
2.71685
2.97021
3.27214
3.5955
3.51545
3.30833
3.05459
2.78785
2.55145
2.34279
2.15895
1.99698
1.85401
1.72728
1.61417
1.51286
1.42212
1.3408
1.2678
1.20217
1.14305
1.08974
1.0417
0.99853
0.959958
0.925864
0.896292
0.871488
0.851994
0.838773
0.833509
0.839233
0.861781
0.913856
1.02936
1.34023
2.97292
2.14636
2.28731
2.45478
2.65477
2.89537
3.18815
3.55053
3.71525
3.4455
3.21592
2.92374
2.66254
2.4346
2.23644
2.06401
1.91337
1.78079
1.66309
1.55825
1.46479
1.38138
1.30677
1.23984
1.17967
1.12552
1.0768
1.0331
0.994127
0.959776
0.9301
0.905374
0.886175
0.873539
0.869267
0.876594
0.901741
0.958256
1.08223
1.41425
3.15834
2.08963
2.21454
2.36121
2.53367
2.73665
2.97549
3.25527
3.5669
3.53453
3.26804
3.01994
2.73156
2.48792
2.28069
2.10301
1.94926
1.81462
1.69566
1.59013
1.4963
1.41274
1.3381
1.2712
1.21109
1.15701
1.10837
1.06477
1.02594
0.99179
0.962395
0.938077
0.919467
0.907687
0.904671
0.913879
0.941949
1.0033
1.13643
1.4913
3.35586
2.01659
2.12177
2.24318
2.38292
2.54297
2.72474
2.92828
3.15043
3.31673
3.16925
2.95259
2.71806
2.47993
2.2778
2.10484
1.9553
1.82431
1.70862
1.60597
1.51465
1.43325
1.36045
1.2951
1.23629
1.18331
1.13562
1.09284
1.05475
1.02131
0.992627
0.96909
0.951398
0.940767
0.939283
0.950648
0.981955
1.04861
1.1917
1.57144
3.5627
1.93717
2.02222
2.11859
2.22716
2.34852
2.48263
2.62873
2.78522
2.94947
3.00217
2.80423
2.60969
2.40413
2.22373
2.06703
1.93003
1.80902
1.70142
1.6054
1.51952
1.4426
1.37349
1.3112
1.25492
1.20406
1.15816
1.11691
1.08016
1.04793
1.02041
0.998025
0.981574
0.972376
0.97267
0.986412
1.02116
1.09328
1.24651
1.65121
3.76911
1.85942
1.92593
1.9998
2.08115
2.16975
2.26486
2.36496
2.46779
2.57028
2.66647
2.6188
2.44748
2.28
2.12977
1.99692
1.8787
1.77258
1.6769
1.59052
1.51248
1.44194
1.37806
1.32007
1.26736
1.21948
1.17608
1.13698
1.1021
1.07153
1.04555
1.02465
1.00973
1.0022
1.00447
1.02074
1.05901
1.13662
1.29982
1.72895
3.97124
1.78893
1.83949
1.89444
1.95344
2.01583
2.08044
2.14538
2.20772
2.26331
2.30611
2.32563
2.24455
2.12276
2.00965
1.90556
1.80978
1.72146
1.64008
1.56525
1.49658
1.43365
1.37598
1.32311
1.27465
1.23033
1.18995
1.15343
1.1208
1.09223
1.06807
1.04892
1.03573
1.03005
1.03442
1.05329
1.09508
1.17805
1.35087
1.8035
4.16628
1.72921
1.76677
1.80665
1.84832
1.89097
1.93341
1.97393
2.01014
2.03873
2.05556
2.05514
2.02574
1.9627
1.88709
1.81105
1.73702
1.66607
1.59879
1.53547
1.47625
1.42109
1.36983
1.3223
1.27832
1.23778
1.20064
1.16691
1.13672
1.11034
1.08818
1.07092
1.0596
1.05586
1.06239
1.08386
1.12909
1.21717
1.39902
1.87342
4.34704
1.68198
1.70944
1.7379
1.76682
1.79545
1.82279
1.84755
1.86814
1.88264
1.88886
1.88469
1.86783
1.83506
1.78693
1.7311
1.67339
1.61612
1.56038
1.50683
1.45585
1.40765
1.36228
1.31973
1.28002
1.24314
1.20917
1.17822
1.15049
1.12633
1.10621
1.09088
1.08145
1.07967
1.08835
1.11235
1.16087
1.25376
1.44401
1.93854
4.51473
1.64756
1.66745
1.68758
1.70748
1.72653
1.744
1.75901
1.77055
1.77754
1.77887
1.77352
1.7608
1.74026
1.70977
1.66906
1.62286
1.57536
1.5283
1.48239
1.43808
1.39566
1.35529
1.31708
1.28114
1.24757
1.2165
1.18814
1.16273
1.14068
1.12253
1.10907
1.10149
1.1016
1.11234
1.13875
1.19036
1.28772
1.48569
1.99866
4.66871
1.62534
1.63966
1.65379
1.66736
1.67989
1.69084
1.69963
1.70561
1.7081
1.70648
1.70014
1.68863
1.67186
1.64963
1.62061
1.5842
1.54408
1.50346
1.46336
1.42423
1.3864
1.35008
1.31546
1.28269
1.25194
1.22341
1.19732
1.174
1.15386
1.13751
1.12578
1.11991
1.1218
1.13446
1.16312
1.21758
1.31905
1.52408
2.05385
4.80956
1.61427
1.62448
1.63427
1.64332
1.65128
1.65775
1.6623
1.66451
1.66393
1.66013
1.65275
1.6415
1.62619
1.60692
1.58366
1.55535
1.52182
1.48606
1.45021
1.41493
1.38058
1.34739
1.31558
1.28535
1.25691
1.23046
1.20629
1.18473
1.16625
1.15147
1.14128
1.13694
1.14042
1.15483
1.18552
1.24258
1.34777
1.55918
2.10414
4.93737
1.61325
1.62038
1.62694
1.63266
1.63727
1.64046
1.64192
1.64133
1.6384
1.63282
1.62434
1.61279
1.59805
1.5801
1.55909
1.53496
1.507
1.47552
1.44278
1.41024
1.37839
1.3475
1.31779
1.28949
1.26282
1.238
1.21535
1.19523
1.1781
1.16464
1.15574
1.15272
1.15759
1.17354
1.20604
1.26541
1.37393
1.59106
2.14963
5.05244
1.62132
1.62608
1.63014
1.63328
1.63528
1.6359
1.6349
1.63206
1.62715
1.61996
1.61032
1.59812
1.58329
1.56583
1.54576
1.52325
1.49832
1.47053
1.44042
1.40978
1.37963
1.35032
1.3221
1.29517
1.26978
1.24617
1.22465
1.20561
1.18955
1.17712
1.16927
1.16734
1.17337
1.19063
1.2247
1.28609
1.39755
1.61975
2.19044
5.15568
1.63778
1.64063
1.64266
1.64367
1.64349
1.64193
1.63881
1.63396
1.62721
1.61843
1.6075
1.59435
1.57896
1.56133
1.54151
1.51956
1.49571
1.46999
1.44216
1.413
1.38391
1.35558
1.3283
1.30226
1.2777
1.25489
1.23416
1.21588
1.20057
1.18891
1.18186
1.18079
1.18777
1.2061
1.24149
1.30461
1.41858
1.64516
2.22631
5.2457
1.66221
1.66344
1.6637
1.66283
1.66069
1.65713
1.65201
1.6452
1.63659
1.62611
1.61367
1.59926
1.58288
1.56456
1.54437
1.52241
1.49878
1.4737
1.4472
1.41925
1.3908
1.36293
1.33608
1.31048
1.28635
1.26397
1.24368
1.22586
1.21104
1.19991
1.19343
1.19299
1.20069
1.21989
1.25634
1.32089
1.43695
1.66718
2.25704
5.32148
1.69447
1.69424
1.69287
1.69024
1.68621
1.68066
1.67351
1.66466
1.65404
1.64162
1.62738
1.61132
1.59348
1.57393
1.55276
1.53008
1.50601
1.48074
1.45448
1.42725
1.39933
1.37161
1.34482
1.3193
1.29527
1.27303
1.25291
1.23531
1.22075
1.20993
1.20382
1.20381
1.21204
1.23187
1.26914
1.3348
1.45252
1.68562
2.28235
5.38252
1.73472
1.73311
1.73017
1.72577
1.71981
1.7122
1.70287
1.69179
1.67891
1.66425
1.64783
1.62969
1.60992
1.58862
1.56588
1.54186
1.51671
1.4906
1.46377
1.43643
1.40864
1.38085
1.35383
1.32811
1.30397
1.28165
1.26151
1.24393
1.22945
1.21876
1.21284
1.21309
1.22164
1.24191
1.27975
1.34619
1.46509
1.70024
2.30181
5.4272
1.78341
1.78046
1.77591
1.76968
1.76167
1.75182
1.7401
1.7265
1.71105
1.69377
1.67476
1.65411
1.63194
1.6084
1.58362
1.55778
1.53105
1.50364
1.47573
1.44756
1.41925
1.3909
1.36325
1.33698
1.31241
1.28976
1.26937
1.25161
1.23702
1.22629
1.22038
1.2207
1.22938
1.24986
1.288
1.35489
1.47446
1.71076
2.315
5.45466
1.84131
1.837
1.8308
1.8226
1.81236
1.80002
1.78559
1.76911
1.75064
1.73029
1.70818
1.68449
1.65939
1.63306
1.60568
1.57745
1.54858
1.51927
1.48971
1.46011
1.43066
1.40146
1.37299
1.34588
1.32055
1.2973
1.27642
1.25828
1.24339
1.23242
1.22634
1.22654
1.23516
1.25561
1.29377
1.36072
1.4804
1.71684
2.32128
5.46218
1.90953
1.90387
1.89592
1.8856
1.87286
1.85769
1.84013
1.82026
1.79822
1.77417
1.74833
1.72093
1.69222
1.66242
1.63178
1.60052
1.56889
1.5371
1.50535
1.47382
1.44273
1.41223
1.38256
1.35434
1.32808
1.30406
1.28253
1.26383
1.24847
1.2371
1.23067
1.23056
1.2389
1.25908
1.29696
1.36355
1.48272
1.71821
2.32023
5.4492
1.98966
1.98265
1.97286
1.9602
1.94464
1.92619
1.90493
1.88103
1.85467
1.82613
1.79571
1.76375
1.73058
1.69649
1.66179
1.62676
1.59168
1.55678
1.52228
1.48837
1.45524
1.42304
1.39195
1.36249
1.33512
1.31012
1.28774
1.2683
1.25228
1.24032
1.23336
1.23275
1.24059
1.26024
1.29749
1.36327
1.48122
1.71455
2.31133
5.41528
2.08379
2.07553
2.06383
2.04859
2.02979
2.00748
1.9818
1.95298
1.92133
1.88723
1.85114
1.81353
1.77482
1.73541
1.69568
1.65601
1.61669
1.57798
1.54012
1.50329
1.46768
1.43346
1.40079
1.36996
1.34136
1.31526
1.29189
1.27157
1.25475
1.24207
1.23441
1.23313
1.24025
1.2591
1.29537
1.35982
1.47573
1.70534
2.29286
5.35015
2.19478
2.18547
2.17187
2.15381
2.13127
2.10434
2.07325
2.03833
2.00004
1.95897
1.91576
1.8711
1.8255
1.77954
1.73371
1.68843
1.64405
1.60084
1.55903
1.51879
1.4803
1.44369
1.40909
1.37665
1.34667
1.31934
1.29489
1.27359
1.25589
1.24237
1.23391
1.23179
1.23801
1.25579
1.29072
1.3533
1.4663
1.69051
2.26437
5.24963
2.32636
2.3165
2.30116
2.28008
2.25319
2.22064
2.18277
2.1401
2.09331
2.04329
1.99106
1.93746
1.88332
1.82937
1.77622
1.72434
1.67408
1.62571
1.57942
1.53536
1.4936
1.45422
1.41724
1.38283
1.35121
1.32252
1.29689
1.27456
1.2559
1.24146
1.23207
1.22897
1.2341
1.25057
1.28379
1.34397
1.45318
1.67037
2.22654
5.11929
2.4834
2.47398
2.45746
2.43333
2.40141
2.36188
2.31526
2.26235
2.20427
2.1425
2.07852
2.0136
1.9489
1.88531
1.82349
1.7639
1.70687
1.65261
1.60125
1.55285
1.50743
1.46497
1.42544
1.38894
1.35558
1.32537
1.29842
1.27491
1.25517
1.2397
1.22927
1.22506
1.22892
1.24385
1.27504
1.33232
1.43694
1.64569
2.181
4.96883
2.6721
2.66501
2.64863
2.62194
2.58439
2.53607
2.47767
2.41049
2.33668
2.25893
2.17946
2.10026
2.02269
1.94768
1.87581
1.80743
1.74275
1.68188
1.62485
1.57162
1.52213
1.47629
1.43409
1.39545
1.36023
1.32833
1.2999
1.27507
1.25412
1.23751
1.22594
1.22052
1.223
1.23621
1.26514
1.31916
1.41863
1.61782
2.12932
4.80007
2.90005
2.89872
2.88522
2.85749
2.81403
2.75466
2.68012
2.59148
2.49412
2.39387
2.29442
2.19777
2.10507
2.01697
1.93381
1.85567
1.78254
1.71445
1.65128
1.59285
1.53897
1.48948
1.44423
1.40305
1.36562
1.33183
1.30174
1.27544
1.25317
1.2353
1.22248
1.21573
1.21669
1.22805
1.25453
1.30509
1.39918
1.58877
2.07724
4.60804
3.1762
3.18661
3.18135
3.15617
3.1074
3.03328
2.93359
2.80856
2.67563
2.54639
2.42313
2.3066
2.19705
2.09463
1.99916
1.91045
1.82826
1.75234
1.68242
1.6182
1.55941
1.50579
1.45702
1.41277
1.3727
1.33667
1.30464
1.27663
1.25282
1.23351
1.21927
1.21104
1.21032
1.21963
1.24344
1.2902
1.37838
1.55727
2.01921
4.39248
3.5096
3.54177
3.55565
3.54463
3.498
3.39706
3.23404
3.05053
2.87584
2.71457
2.56619
2.42912
2.30226
2.18488
2.07627
1.97602
1.88379
1.79909
1.72148
1.65056
1.58596
1.52733
1.47426
1.42623
1.38292
1.34411
1.30967
1.27956
1.25385
1.23279
1.21687
1.2069
1.20426
1.21129
1.23212
1.2747
1.35633
1.52331
1.95568
4.15944
3.9062
3.97757
4.0322
4.06354
4.06261
3.83701
3.55128
3.30542
3.09064
2.90046
2.72925
2.57293
2.42904
2.29617
2.17351
2.0604
1.95637
1.86099
1.77385
1.69453
1.62259
1.55756
1.49886
1.44596
1.39846
1.35604
1.31847
1.2856
1.25744
1.23415
1.2161
1.20402
1.19913
1.20355
1.22111
1.25915
1.33378
1.48821
1.8903
3.92483
4.37399
4.51385
4.63863
4.63901
4.38659
4.1132
3.81877
3.54551
3.31572
3.1137
2.92949
2.75825
2.5979
2.44769
2.30754
2.17752
2.05764
1.94781
1.84774
1.75705
1.6752
1.60151
1.53526
1.47583
1.42269
1.37538
1.33354
1.29693
1.26545
1.23916
1.21835
1.20359
1.19597
1.1974
1.21134
1.24459
1.31203
1.45376
1.82524
3.71147
4.90661
5.05255
4.98046
4.72283
4.4723
4.2256
3.98939
3.77841
3.58465
3.39721
3.21017
3.02419
2.84211
2.66686
2.50084
2.34579
2.20277
2.07214
1.95377
1.84718
1.75156
1.66595
1.58941
1.52109
1.46023
1.4062
1.35849
1.31672
1.28067
1.25029
1.22574
1.2075
1.19648
1.1944
1.2044
1.23271
1.29314
1.42295
1.76733
3.53352
5.18104
5.08401
4.90638
4.72458
4.55137
4.39312
4.25382
4.12792
3.9975
3.83798
3.64336
3.42889
3.20801
2.99044
2.78273
2.58897
2.41131
2.25039
2.10592
1.97696
1.86217
1.76012
1.66944
1.58892
1.51747
1.45422
1.39841
1.34951
1.30713
1.27109
1.24145
1.21856
1.2032
1.19691
1.20256
1.22592
1.27989
1.39967
1.72336
3.39914
5.20458
5.09904
4.99218
4.88446
4.77636
4.7064
4.67892
4.6826
4.6798
4.5831
4.34803
4.06234
3.76365
3.47048
3.1938
2.93949
2.70986
2.50486
2.32316
2.16272
2.02123
1.89645
1.78634
1.68908
1.60314
1.52723
1.46031
1.40157
1.35046
1.30663
1.27001
1.24083
1.2198
1.20829
1.20903
1.22747
1.27596
1.38847
1.69905
3.32679
5.30865
5.23845
5.21231
5.16434
5.10816
5.12672
5.23549
5.4353
5.69902
5.8374
5.47968
5.03933
4.59698
4.17425
3.78668
3.43985
3.1336
2.86515
2.63067
2.42609
2.24752
2.0914
1.95461
1.83448
1.72876
1.63561
1.55354
1.48139
1.41833
1.36382
1.31765
1.27996
1.25137
1.23325
1.22825
1.24179
1.28614
1.39516
1.70285
3.33182
5.49762
5.44818
5.40099
5.3691
5.4052
5.54373
5.81645
6.2633
6.88844
6.97987
6.93829
6.46226
5.80665
5.17565
4.621
4.14002
3.72497
3.36748
3.05959
2.79408
2.56463
2.36573
2.1927
2.0416
1.90917
1.79275
1.69023
1.59996
1.52073
1.45175
1.39261
1.34338
1.30468
1.27795
1.26598
1.27446
1.31617
1.42631
1.74392
3.4331
5.73008
5.63444
5.56851
5.5774
5.679
5.90209
6.28723
6.88881
7.5768
7.75756
7.79411
7.81131
7.34909
6.51871
5.74355
5.0866
4.52792
4.05192
3.64576
3.29854
3.00089
2.74477
2.52335
2.33096
2.16292
2.01549
1.88567
1.77118
1.67029
1.58185
1.50524
1.44043
1.3881
1.34989
1.329
1.33176
1.37221
1.48868
1.83153
3.65362
5.97845
5.86398
5.80588
5.82404
5.94118
6.18521
6.5894
7.196
8.03329
8.57182
8.52511
8.54027
8.60384
8.1351
7.18753
6.3286
5.59258
4.96478
4.43074
3.97663
3.58978
3.25889
2.97427
2.72783
2.51307
2.32478
2.15888
2.01225
1.88252
1.76808
1.66801
1.58213
1.51124
1.45735
1.42435
1.41968
1.45957
1.58773
1.97377
4.01986
6.39613
6.23964
6.14488
6.13026
6.21815
6.43742
6.82635
7.43546
8.33
9.31827
9.52173
9.35312
9.33895
9.49358
9.03078
7.96536
6.99309
6.16364
5.46236
4.87059
4.37001
3.94423
3.57923
3.26364
2.98853
2.74697
2.53364
2.34448
2.17642
2.02728
1.8957
1.78126
1.68476
1.60875
1.55824
1.54239
1.58074
1.72542
2.17729
4.58816
7.02121
6.783
6.61107
6.52234
6.538
6.68602
7.00358
7.54106
8.36888
9.5862
10.6838
10.5377
10.1269
10.0011
10.122
9.82846
8.79098
7.69317
6.78074
6.02089
5.38322
4.84346
4.38057
3.97904
3.62731
3.31686
3.04131
2.79579
2.5766
2.38096
2.20693
2.0535
1.92109
1.81273
1.73528
1.70058
1.73261
1.89425
2.42843
5.35185
7.89623
7.53168
7.23994
7.03488
6.93345
6.95799
7.13734
7.50907
8.12215
9.03891
10.33
11.3957
11.1411
10.584
10.2114
10.0948
9.91475
9.28743
8.36613
7.45541
6.67283
6.011
5.43512
4.92936
4.48144
4.08267
3.72616
3.40619
3.11845
2.85985
2.62799
2.42083
2.23736
2.07953
1.95831
1.89128
1.90791
2.08267
2.70703
6.27037
9.08103
8.53087
8.07297
7.71101
7.45304
7.31274
7.30854
7.46348
7.80566
8.36845
9.18968
10.3068
11.2706
11.2561
10.673
10.0456
9.55037
9.13894
8.68731
8.18315
7.6969
7.23167
6.71418
6.14926
5.60418
5.10403
4.65023
4.2356
3.8557
3.50936
3.19592
2.91162
2.65526
2.41529
2.22086
2.10046
2.08922
2.27165
2.99142
7.24184
10.5579
9.78436
9.13109
8.58619
8.14659
7.8171
7.60702
7.52814
7.59341
7.81533
8.20376
8.76045
9.46493
10.1932
10.479
10.2176
9.71846
9.117
8.49997
7.94594
7.483
7.0791
6.68677
6.28221
5.88018