/*--------------------------------*- C++ -*----------------------------------*\
  =========                 |
  \\      /  F ield         | OpenFOAM: The Open Source CFD Toolbox
   \\    /   O peration     | Website:  https://openfoam.org
    \\  /    A nd           | Version:  8
     \\/     M anipulation  |
\*---------------------------------------------------------------------------*/
FoamFile
{
    version     2.0;
    format      ascii;
    class       volScalarField;
    location    "1.95";
    object      nut;
}
// * * * * * * * * * * * * * * * * * * * * * * * * * * * * * * * * * * * * * //

dimensions      [0 2 -1 0 0 0 0];

internalField   nonuniform List<scalar> 
9150
(
9.60033e-06
6.41844e-06
6.68421e-06
9.18114e-06
8.47816e-06
8.47806e-06
9.18023e-06
6.6838e-06
6.41859e-06
9.6003e-06
9.48752e-06
5.75107e-06
8.43447e-06
1.03603e-05
7.905e-06
7.90509e-06
1.03599e-05
8.43386e-06
5.75116e-06
9.48751e-06
9.29574e-06
5.51324e-06
1.10076e-05
1.07468e-05
7.53758e-06
7.53764e-06
1.07467e-05
1.10071e-05
5.51329e-06
9.29573e-06
9.08016e-06
5.43425e-06
1.36507e-05
1.07484e-05
7.34384e-06
7.34387e-06
1.07485e-05
1.36504e-05
5.43428e-06
9.08015e-06
8.84535e-06
5.41648e-06
1.59236e-05
1.06577e-05
7.24617e-06
7.24619e-06
1.06577e-05
1.59237e-05
5.41651e-06
8.84535e-06
5.91622e-06
1.14346e-05
1.43801e-05
1.85321e-05
1.84949e-05
1.84941e-05
1.85273e-05
1.43715e-05
1.14291e-05
5.91583e-06
6.28072e-06
8.92228e-06
1.16987e-05
1.62231e-05
1.60284e-05
1.60282e-05
1.62201e-05
1.16935e-05
8.91994e-06
6.28072e-06
6.82992e-06
7.93878e-06
9.62119e-06
1.38144e-05
1.34969e-05
1.34966e-05
1.38121e-05
9.61829e-06
7.93823e-06
6.82995e-06
7.38705e-06
7.32289e-06
8.14955e-06
1.17696e-05
1.13621e-05
1.13618e-05
1.17677e-05
8.14807e-06
7.32293e-06
7.38706e-06
8.07493e-06
6.86576e-06
7.19077e-06
1.0162e-05
9.63856e-06
9.63835e-06
1.01607e-05
7.19004e-06
6.86593e-06
8.07494e-06
1.18086e-05
1.37543e-05
1.31332e-05
1.67551e-05
1.92547e-05
1.91994e-05
1.66294e-05
1.29411e-05
1.31367e-05
1.14223e-05
7.87954e-06
1.09218e-05
1.28906e-05
1.68819e-05
1.93477e-05
1.93116e-05
1.67946e-05
1.28122e-05
1.09076e-05
7.86979e-06
7.46408e-06
1.03181e-05
1.29644e-05
1.70474e-05
1.94482e-05
1.94262e-05
1.69905e-05
1.292e-05
1.03036e-05
7.46058e-06
7.03599e-06
9.92563e-06
1.3004e-05
1.71844e-05
1.95352e-05
1.95202e-05
1.71479e-05
1.29765e-05
9.9092e-06
7.03443e-06
6.5128e-06
1.01853e-05
1.30206e-05
1.73854e-05
1.94507e-05
1.94431e-05
1.73675e-05
1.30055e-05
1.01721e-05
6.51211e-06
4.97433e-05
4.98364e-05
4.991e-05
4.99547e-05
4.99674e-05
4.99466e-05
4.98915e-05
4.98015e-05
4.96761e-05
4.95136e-05
0.000475926
0.000476744
0.00047701
0.000476775
0.000476078
0.000474942
0.000473379
0.0004714
0.000469009
0.000466213
0.0009371
0.000939132
0.000940169
0.000940244
0.000939383
0.000937606
0.000934924
0.000931344
0.00092687
0.000921504
0.00132792
0.00133103
0.00133283
0.00133333
0.00133254
0.00133049
0.00132716
0.00132256
0.00131669
0.00130953
0.00165349
0.00165745
0.00165988
0.00166077
0.00166014
0.00165797
0.00165427
0.00164903
0.00164224
0.00163389
0.00192512
0.00192973
0.00193264
0.00193384
0.00193332
0.0019311
0.00192716
0.00192149
0.00191408
0.00190493
0.00215286
0.0021579
0.00216112
0.00216249
0.00216203
0.00215973
0.00215558
0.00214957
0.00214171
0.00213197
0.00234495
0.00235023
0.00235357
0.00235498
0.00235445
0.00235198
0.00234758
0.00234124
0.00233296
0.00232276
0.00250809
0.00251341
0.00251671
0.00251799
0.00251724
0.00251449
0.00250974
0.00250301
0.00249431
0.00248366
0.00264768
0.00265287
0.00265596
0.00265695
0.00265585
0.00265268
0.00264747
0.00264026
0.00263107
0.00261996
0.00276804
0.00277297
0.00277571
0.00277627
0.00277469
0.00277099
0.00276522
0.00275744
0.00274772
0.00273611
0.00287263
0.00287719
0.00287948
0.00287954
0.00287738
0.00287308
0.00286668
0.00285829
0.002848
0.00283592
0.00296417
0.00296832
0.00297014
0.00296965
0.00296689
0.00296195
0.00295492
0.00294592
0.0029351
0.00292262
0.00304486
0.00304863
0.00304999
0.00304898
0.00304566
0.00304012
0.00303249
0.00302293
0.00301165
0.00299887
0.00311649
0.00311995
0.00312094
0.0031195
0.0031157
0.00310965
0.00310152
0.0030915
0.00307985
0.00306689
0.00318051
0.00318378
0.00318455
0.00318282
0.0031787
0.00317229
0.00316378
0.00315342
0.0031415
0.00312844
0.00323811
0.00324139
0.00324211
0.0032403
0.00323604
0.00322946
0.00322075
0.00321018
0.0031981
0.00318496
0.00329027
0.00329375
0.00329464
0.00329298
0.00328883
0.0032823
0.0032736
0.003263
0.00325085
0.00323763
0.00333773
0.00334162
0.00334293
0.00334166
0.00333787
0.00333167
0.00332323
0.00331279
0.0033007
0.00328741
0.00338101
0.00338553
0.00338747
0.00338685
0.0033837
0.0033781
0.00337019
0.00336018
0.00334837
0.00333514
0.00342044
0.00342573
0.00342852
0.00342878
0.00342652
0.00342181
0.00341474
0.00340547
0.00339424
0.00338137
0.00345613
0.00346233
0.0034661
0.0034674
0.00346625
0.00346267
0.00345672
0.00344852
0.00343824
0.00342609
0.00348808
0.00349524
0.00350006
0.00350252
0.0035026
0.00350032
0.0034957
0.00348882
0.00347979
0.00346875
0.00351623
0.00352431
0.00353018
0.0035338
0.00353515
0.00353424
0.00353106
0.00352565
0.00351809
0.00350844
0.00354047
0.00354939
0.00355622
0.00356093
0.0035635
0.0035639
0.00356214
0.00355824
0.00355221
0.00354411
0.00356074
0.00357036
0.00357801
0.00358366
0.00358729
0.00358888
0.00358843
0.00358592
0.00358137
0.00357478
0.00357704
0.00358718
0.00359546
0.00360186
0.00360635
0.00360893
0.00360957
0.00360827
0.00360501
0.0035998
0.00358941
0.00359986
0.00360857
0.00361549
0.00362063
0.00362396
0.00362547
0.00362514
0.00362295
0.00361888
0.00359791
0.00360848
0.0036174
0.00362465
0.0036302
0.00363407
0.00363621
0.00363661
0.00363525
0.00363209
0.00360262
0.00361313
0.00362208
0.00362945
0.00363524
0.00363943
0.003642
0.00364293
0.00364218
0.00363973
0.00360361
0.0036139
0.00362272
0.00363005
0.00363591
0.00364026
0.0036431
0.00364439
0.0036441
0.00364218
0.00360092
0.00361085
0.00361941
0.00362659
0.00363239
0.00363679
0.00363977
0.0036413
0.00364135
0.00363986
0.00359454
0.00360403
0.00361224
0.00361918
0.00362483
0.0036292
0.00363225
0.00363395
0.00363426
0.00363312
0.00358447
0.00359346
0.00360127
0.00360792
0.00361339
0.00361768
0.00362076
0.00362259
0.00362313
0.00362231
0.00357071
0.00357918
0.00358658
0.00359292
0.0035982
0.0036024
0.0036055
0.00360746
0.00360822
0.00360772
0.00355333
0.00356129
0.00356829
0.00357434
0.00357944
0.00358357
0.00358671
0.0035888
0.0035898
0.00358964
0.00353244
0.00353992
0.00354657
0.00355237
0.00355734
0.00356144
0.00356464
0.00356691
0.00356818
0.00356838
0.00350825
0.00351533
0.00352169
0.00352731
0.00353219
0.00353631
0.00353964
0.00354213
0.00354371
0.00354432
0.00348108
0.00348784
0.00349399
0.0034995
0.00350438
0.0035086
0.00351211
0.00351488
0.00351683
0.00351788
0.00345131
0.00345787
0.00346391
0.00346942
0.00347438
0.00347878
0.00348256
0.00348567
0.00348804
0.0034896
0.00341942
0.0034259
0.00343196
0.00343758
0.00344275
0.00344743
0.00345158
0.00345513
0.003458
0.00346012
0.0033859
0.00339245
0.00339869
0.00340458
0.00341011
0.00341522
0.00341987
0.00342397
0.00342746
0.00343023
0.00335122
0.00335803
0.00336465
0.00337102
0.00337712
0.00338287
0.0033882
0.00339304
0.0033973
0.00340086
0.00331579
0.00332312
0.00333037
0.00333751
0.00334445
0.00335113
0.00335744
0.00336328
0.00336854
0.00337311
0.00327992
0.00328806
0.0032963
0.00330456
0.00331275
0.00332075
0.00332844
0.00333568
0.00334232
0.00334823
0.00324374
0.00325308
0.00326273
0.00327259
0.00328253
0.00329239
0.00330202
0.00331122
0.00331981
0.0033276
0.00320721
0.00321818
0.00322975
0.00324177
0.00325409
0.00326651
0.00327881
0.00329076
0.00330211
0.0033126
0.00317003
0.0031831
0.00319713
0.00321196
0.0032274
0.0032432
0.0032591
0.00327481
0.00329
0.00330437
0.00313166
0.00314728
0.00316431
0.0031826
0.00320193
0.00322202
0.00324255
0.0032632
0.00328358
0.00330332
0.00309133
0.00310983
0.00313032
0.00315265
0.00317659
0.00320186
0.00322811
0.00325499
0.00328215
0.00330925
0.00304805
0.00306961
0.00309384
0.00312061
0.0031497
0.00318087
0.00321381
0.00324822
0.00328386
0.00332064
0.00300081
0.00302536
0.00305332
0.00308462
0.00311909
0.00315652
0.00319666
0.00323922
0.00328386
0.00332712
0.00294871
0.00297586
0.0030072
0.00304274
0.00308241
0.00312608
0.00317357
0.00322288
0.00326967
0.00331063
0.0028912
0.0029202
0.00295409
0.00299305
0.00303713
0.00308622
0.00313716
0.00318625
0.00323366
0.00327783
0.00282842
0.00285812
0.00289323
0.00293403
0.00298054
0.00303017
0.00307986
0.00313049
0.00318144
0.00322972
0.00276147
0.00279063
0.00282534
0.00286593
0.00291121
0.00295849
0.0030072
0.00305786
0.00310996
0.00316073
0.00269239
0.00271996
0.00275277
0.00279067
0.0028322
0.00287588
0.00292139
0.00296961
0.00302014
0.00307132
0.0026235
0.00264907
0.00267925
0.00271371
0.00275075
0.0027893
0.00282974
0.00287355
0.00292036
0.00296994
0.00255635
0.00257997
0.00260737
0.00263883
0.00267314
0.00270709
0.00274166
0.00277936
0.00282026
0.0028652
0.00249178
0.00251394
0.00253906
0.00256732
0.00259882
0.00263231
0.00266421
0.00269469
0.0027274
0.00276433
0.00242984
0.00245127
0.00247504
0.00250121
0.00252991
0.00256132
0.00259543
0.00262842
0.00265142
0.00267562
0.00236961
0.00239101
0.00241423
0.00243925
0.00246608
0.00249481
0.00252552
0.00255817
0.00258817
0.00260558
0.00230957
0.00233139
0.00235462
0.00237912
0.00240478
0.00243149
0.0024591
0.00248738
0.00251567
0.00253957
0.00224819
0.00227067
0.00229421
0.00231861
0.00234364
0.00236909
0.0023947
0.00242018
0.00244508
0.00246841
0.00218461
0.00220789
0.00223194
0.0022565
0.0022813
0.0023061
0.00233064
0.00235463
0.00237768
0.00239933
0.00211874
0.00214304
0.00216785
0.00219286
0.00221782
0.00224245
0.00226652
0.00228977
0.00231188
0.0023325
0.00205091
0.00207661
0.00210261
0.00212857
0.00215417
0.00217915
0.0022033
0.00222638
0.00224818
0.00226843
0.0019814
0.00200907
0.00203692
0.0020645
0.00209147
0.00211753
0.00214248
0.00216612
0.0021883
0.00220886
0.00191
0.00194036
0.00197087
0.00200098
0.00203025
0.00205836
0.00208508
0.00211026
0.00213377
0.00215555
0.00183589
0.00186965
0.00190371
0.00193734
0.00197001
0.00200133
0.00203106
0.00205904
0.0020852
0.00210949
0.00175774
0.00179552
0.00183395
0.00187211
0.00190928
0.00194505
0.00197914
0.00201145
0.00204191
0.0020706
0.00167424
0.00171637
0.00175982
0.00180332
0.001846
0.00188737
0.0019272
0.00196544
0.0020022
0.00203747
0.00158474
0.00163111
0.00167988
0.00172927
0.0017782
0.00182612
0.00187291
0.00191864
0.00196362
0.00200785
0.00149009
0.00153992
0.00159373
0.00164912
0.00170462
0.00175967
0.00181429
0.00186881
0.00192364
0.00197886
0.0013931
0.00144456
0.00150235
0.00156316
0.00162501
0.00168724
0.0017501
0.0018142
0.00188008
0.00194798
0.00129811
0.00134819
0.00140788
0.00147274
0.00153997
0.00160876
0.00167961
0.00175336
0.0018307
0.00191195
0.00120967
0.00125439
0.00131298
0.00137973
0.00145073
0.0015248
0.00160266
0.00168537
0.00177366
0.00186787
0.00113097
0.001166
0.00121993
0.00128595
0.00135868
0.00143633
0.00151971
0.00161001
0.00170775
0.00181295
0.00106277
0.00108433
0.0011301
0.00119271
0.00126515
0.00134469
0.00143208
0.00152844
0.00163379
0.00174726
0.00100329
0.00100896
0.00104368
0.00110055
0.00117104
0.00125123
0.00134169
0.00144336
0.00155534
0.00167558
0.000948977
0.000938316
0.000960032
0.00100922
0.00107643
0.00115648
0.0012498
0.00135703
0.00147608
0.00160343
0.000897781
0.000871294
0.000878589
0.000918256
0.000980873
0.00106003
0.00115616
0.00126965
0.00139705
0.00153331
0.000848738
0.000807442
0.00079922
0.00082743
0.000883928
0.000961143
0.00105965
0.00117956
0.00131606
0.00146264
0.000801588
0.000746758
0.000722179
0.000736883
0.000785657
0.000859726
0.000959704
0.00108525
0.00123015
0.00138686
0.000756693
0.00068957
0.000648106
0.000647185
0.000686731
0.000756776
0.000857384
0.000987009
0.00113806
0.00130275
0.000713064
0.0006358
0.00057788
0.000559332
0.000588207
0.00065413
0.000755272
0.000887403
0.00104125
0.00120973
0.000668974
0.000584912
0.00051252
0.000474799
0.000491161
0.000553763
0.000656544
0.000790578
0.000944057
0.00111064
0.000626826
0.000538209
0.000453819
0.000395874
0.00039658
0.000456867
0.00056363
0.000700242
0.000852245
0.00101399
0.000588121
0.00049625
0.000402575
0.000324991
0.000305562
0.000364205
0.000477212
0.000617119
0.00076769
0.000924209
0.000553164
0.000458267
0.000357511
0.000263184
0.000220356
0.00027695
0.000397331
0.000540498
0.000689685
0.000840685
0.000521058
0.000422324
0.000315648
0.000209307
0.000144937
0.000197363
0.000323846
0.000469672
0.000618493
0.000766387
0.000490015
0.000386358
0.000274182
0.000161115
8.49241e-05
0.000128792
0.000255756
0.000402679
0.000551867
0.000698644
0.000459448
0.000349495
0.000231958
0.000117378
4.48568e-05
7.52967e-05
0.000192288
0.000338285
0.000488922
0.000637943
0.000428654
0.000310347
0.000188647
7.91453e-05
2.40684e-05
3.97881e-05
0.000133689
0.000274941
0.00042695
0.000579437
0.00039512
0.000268022
0.000145226
4.97306e-05
1.71333e-05
2.17186e-05
8.31989e-05
0.000211882
0.000363626
0.000518835
0.00035508
0.000222756
0.000105441
3.14538e-05
1.72137e-05
1.63481e-05
4.64427e-05
0.000150702
0.000298334
0.000454648
0.000307126
0.000178497
7.46191e-05
2.30821e-05
1.85798e-05
1.70798e-05
2.61115e-05
9.69186e-05
0.000231983
0.000386779
0.000254455
0.00014401
5.53325e-05
2.0401e-05
1.91312e-05
1.84574e-05
1.85985e-05
5.78835e-05
0.000168419
0.000313357
0.000239543
0.000133459
4.36293e-05
1.89989e-05
1.91936e-05
1.89548e-05
1.7344e-05
3.58283e-05
0.000119898
0.000245355
0.000385447
0.00012093
2.83977e-05
1.74447e-05
1.91961e-05
1.90991e-05
1.69374e-05
2.33322e-05
9.50787e-05
0.000320785
4.92955e-05
4.90271e-05
4.87116e-05
4.8349e-05
4.79396e-05
4.74838e-05
4.69825e-05
4.64362e-05
4.58458e-05
4.52116e-05
4.45347e-05
4.38306e-05
4.31406e-05
4.2439e-05
4.17154e-05
4.09667e-05
4.01926e-05
3.93942e-05
3.85732e-05
3.77316e-05
3.68709e-05
3.59926e-05
3.5098e-05
3.41883e-05
3.32641e-05
3.23261e-05
3.13748e-05
3.04103e-05
2.94325e-05
2.84407e-05
2.74332e-05
2.64058e-05
2.53493e-05
2.42428e-05
2.3043e-05
2.16668e-05
1.99643e-05
1.77009e-05
1.44404e-05
4.95536e-06
0.000462819
0.000458733
0.00045415
0.000449087
0.000443564
0.000437602
0.000431226
0.000424464
0.000417336
0.000409845
0.000401926
0.000393329
0.000383759
0.000373672
0.000363332
0.000352909
0.000342518
0.000332232
0.000322096
0.000312136
0.000302363
0.000292778
0.000283379
0.000274157
0.000265104
0.000256208
0.000247458
0.000238844
0.000230347
0.000221943
0.000213585
0.000205176
0.00019651
0.000187155
0.000176236
0.000162043
0.000141541
0.000111455
6.87763e-05
8.93684e-06
0.000914856
0.00090672
0.000897478
0.000887151
0.00087577
0.000863376
0.000850016
0.000835744
0.000820611
0.000804651
0.000787861
0.000770177
0.000751445
0.000731927
0.000711873
0.000691502
0.000670991
0.00065048
0.000630074
0.000609849
0.000589853
0.000570115
0.000550647
0.000531446
0.000512496
0.000493767
0.000475215
0.000456774
0.000438348
0.000419787
0.000400861
0.000381195
0.000360188
0.000336868
0.000309697
0.000276311
0.000233246
0.000175714
9.77447e-05
1.09898e-05
0.00130057
0.00128948
0.00127679
0.0012625
0.00124667
0.00122932
0.00121053
0.00119036
0.0011689
0.00114622
0.00112239
0.00109747
0.00107139
0.00104437
0.00101663
0.000988386
0.000959817
0.000931086
0.000902325
0.000873635
0.00084509
0.000816734
0.000788588
0.000760645
0.000732876
0.000705221
0.000677589
0.000649841
0.000621781
0.000593121
0.000563444
0.000532138
0.000498308
0.000460651
0.00041728
0.000365503
0.000301544
0.000220319
0.000116668
1.25482e-05
0.00162335
0.00161024
0.00159515
0.0015781
0.00155912
0.00153826
0.00151558
0.00149116
0.00146511
0.00143753
0.00140854
0.00137824
0.00134663
0.00131392
0.00128032
0.00124604
0.00121125
0.00117613
0.0011408
0.00110538
0.00106994
0.00103452
0.00099915
0.000963798
0.000928412
0.000892898
0.000857109
0.000820836
0.000783784
0.000745545
0.000705551
0.000663012
0.000616834
0.000565505
0.000506939
0.000438286
0.000355717
0.000254418
0.000130801
1.37928e-05
0.00189333
0.00187885
0.00186215
0.00184324
0.00182214
0.00179889
0.00177357
0.00174625
0.00171703
0.00168606
0.00165344
0.00161931
0.00158369
0.00154682
0.00150889
0.0014701
0.00143062
0.00139062
0.00135021
0.00130949
0.00126854
0.00122737
0.001186
0.00114438
0.00110242
0.00105999
0.00101689
0.000972835
0.000927455
0.000880241
0.000830509
0.000777345
0.000719522
0.000655405
0.000582814
0.000498878
0.000399911
0.000281619
0.000141941
1.4721e-05
0.00211964
0.00210424
0.00208647
0.00206635
0.00204388
0.00201912
0.0019921
0.00196292
0.00193166
0.00189847
0.00186347
0.0018267
0.00178831
0.00174852
0.00170751
0.00166546
0.00162255
0.00157889
0.0015346
0.00148977
0.00144442
0.00139858
0.00135222
0.00130527
0.00125761
0.00120905
0.00115936
0.0011082
0.00105511
0.000999526
0.000940669
0.000877541
0.000808841
0.000732872
0.000647448
0.000549776
0.000436427
0.000303703
0.000150868
1.54171e-05
0.00230988
0.00229383
0.00227536
0.00225447
0.0022312
0.00220555
0.00217757
0.00214731
0.00211486
0.00208033
0.00204386
0.00200544
0.00196529
0.00192359
0.00188052
0.00183625
0.00179091
0.0017446
0.00169742
0.0016494
0.00160058
0.00155093
0.0015004
0.00144889
0.00139624
0.00134223
0.00128658
0.0012289
0.00116869
0.00110532
0.00103795
0.000965539
0.000886751
0.000799884
0.000702802
0.000592857
0.000466924
0.000321878
0.000158105
1.59892e-05
0.0024703
0.00245375
0.00243481
0.00241349
0.0023898
0.00236375
0.00233536
0.00230464
0.00227166
0.00223651
0.00219922
0.00215991
0.00211877
0.00207598
0.00203168
0.001986
0.00193905
0.00189091
0.00184161
0.00179119
0.00173962
0.00168686
0.00163283
0.00157738
0.00152035
0.00146146
0.00140041
0.00133675
0.00126997
0.00119937
0.0011241
0.00104309
0.000955008
0.000858184
0.000750572
0.000629705
0.00049277
0.000337167
0.000164201
1.64692e-05
0.00260615
0.00258919
0.00256994
0.00254842
0.00252464
0.00249858
0.00247022
0.00243953
0.00240651
0.0023712
0.00233363
0.00229399
0.00225246
0.00220918
0.00216429
0.00211785
0.00206994
0.00202059
0.00196981
0.00191758
0.00186385
0.00180855
0.00175155
0.00169271
0.0016318
0.00156854
0.00150258
0.00143346
0.00136061
0.00128334
0.00120078
0.00111185
0.00101525
0.000909361
0.000792263
0.000661678
0.000515094
0.00035037
0.000169535
1.68816e-05
0.00272187
0.00270461
0.00268522
0.00266376
0.00264022
0.00261457
0.0025867
0.00255644
0.00252371
0.00248847
0.00245092
0.00241127
0.00236972
0.0023264
0.00228136
0.00223464
0.00218624
0.00213616
0.00208436
0.00203079
0.00197536
0.00191797
0.00185847
0.00179668
0.00173234
0.00166516
0.00159475
0.00152063
0.00144223
0.00135883
0.00126956
0.00117337
0.00106897
0.000954853
0.000829199
0.000689929
0.00053481
0.000362094
0.00017437
1.72478e-05
0.00282134
0.00280392
0.00278467
0.00276367
0.00274092
0.0027163
0.00268955
0.00266027
0.0026279
0.0025925
0.00255476
0.00251511
0.0024737
0.00243055
0.00238563
0.00233891
0.00229034
0.00223985
0.00218736
0.00213279
0.00207602
0.00201691
0.00195528
0.00189092
0.00182356
0.00175287
0.00167844
0.00159979
0.00151633
0.00142732
0.00133191
0.00122906
0.00111756
0.000995932
0.000862509
0.000715382
0.000552572
0.000372675
0.000178756
1.75911e-05
0.00290783
0.00289052
0.00287183
0.00285193
0.00283089
0.00280858
0.00278464
0.00275816
0.00272455
0.0026872
0.00264858
0.00260869
0.00256733
0.00252434
0.0024796
0.00243297
0.00238435
0.00233362
0.00228065
0.00222531
0.00216746
0.00210691
0.00204347
0.00197688
0.00190686
0.00183305
0.00175503
0.00167229
0.00158423
0.00149012
0.00138911
0.00128019
0.00116217
0.00103368
0.000893128
0.000738765
0.000568822
0.000382204
0.000182519
1.79415e-05
0.00298407
0.00296719
0.00294957
0.00293162
0.00291366
0.00289593
0.0028784
0.00285125
0.00281399
0.00277476
0.00273503
0.00269456
0.00265296
0.00260994
0.00256523
0.00251865
0.00246999
0.00241908
0.00236575
0.00230981
0.00225108
0.00218934
0.00212436
0.00205586
0.00198352
0.00190696
0.00182575
0.00173935
0.00164716
0.00154846
0.00144238
0.00132794
0.00120399
0.00106922
0.000922115
0.000761066
0.000584485
0.00039155
0.000186352
1.82901e-05
0.00305223
0.00303602
0.00301988
0.00300456
0.00299081
0.00297928
0.00296607
0.00293343
0.00289644
0.00285593
0.00281526
0.00277407
0.00273201
0.00268873
0.00264392
0.00259727
0.00254855
0.00249749
0.00244387
0.00238745
0.00232801
0.00226529
0.00219902
0.0021289
0.00205456
0.00197562
0.00189161
0.00180199
0.00170614
0.00160332
0.00149269
0.00137328
0.00124395
0.00110343
0.0009503
0.000783036
0.000600202
0.000401196
0.00019049
1.86452e-05
0.00311398
0.00309847
0.00308387
0.00307131
0.00306213
0.00305769
0.00304467
0.00301066
0.00297304
0.00293164
0.00288996
0.00284793
0.00280525
0.00276157
0.00271652
0.00266975
0.00262093
0.00256974
0.0025159
0.00245912
0.00239912
0.00233562
0.00226829
0.00219681
0.0021208
0.00203982
0.0019534
0.00186097
0.0017619
0.00165544
0.00154076
0.00141687
0.00128268
0.00113692
0.000978225
0.000805139
0.000616332
0.000411358
0.000194995
1.90128e-05
0.00317062
0.0031556
0.00314211
0.00313166
0.00312614
0.00312807
0.00312
0.00308475
0.00304746
0.00300323
0.00295981
0.00291658
0.0028731
0.00282891
0.00278357
0.00273665
0.00268774
0.00263647
0.00258249
0.00252545
0.00246504
0.00240093
0.00233278
0.0022602
0.0021828
0.0021001
0.00201162
0.00191678
0.00181491
0.00170527
0.001587
0.00145912
0.00132054
0.00116999
0.00100614
0.000827568
0.000632994
0.000422084
0.000199862
1.93957e-05
0.00322326
0.00320832
0.00319515
0.00318538
0.00318086
0.00318341
0.00318305
0.00315148
0.00311537
0.00306992
0.00302482
0.00298022
0.00293576
0.00289098
0.00284533
0.0027983
0.00274938
0.0026981
0.00264407
0.0025869
0.00252622
0.00246168
0.0023929
0.00231945
0.00224091
0.0021568
0.00206659
0.00196968
0.0018654
0.00175298
0.00163156
0.00150013
0.00135759
0.00120268
0.00103405
0.000850279
0.00065012
0.000433295
0.000205032
1.97934e-05
0.00327282
0.00325742
0.00324358
0.00323291
0.0032273
0.00322881
0.00323572
0.00321455
0.00317724
0.00313253
0.00308491
0.00303865
0.00299318
0.00294785
0.00290199
0.00285496
0.00280613
0.00275494
0.00270094
0.00264375
0.00258295
0.00251814
0.00244889
0.00237478
0.00229532
0.00221004
0.00211838
0.00201972
0.00191338
0.00179856
0.00167435
0.00153976
0.00139367
0.00123478
0.00106172
0.00087304
0.000667483
0.000444807
0.000210407
2.02024e-05
0.00332029
0.00330415
0.00328894
0.00327613
0.00326759
0.00326569
0.00327381
0.00326898
0.00323
0.00318871
0.00313957
0.00309176
0.00304536
0.00299963
0.00295374
0.00290685
0.00285823
0.00280724
0.0027534
0.00269629
0.00263547
0.00257049
0.0025009
0.00242624
0.00234604
0.00225977
0.00216687
0.00206672
0.00195859
0.00184167
0.00171506
0.0015777
0.00142842
0.00126592
0.00108877
0.000895481
0.00068472
0.000456329
0.000215838
2.06171e-05
0.00336651
0.0033498
0.0033332
0.00331792
0.00330537
0.00329723
0.00329525
0.00329965
0.00327951
0.00323589
0.00319057
0.00314006
0.00309255
0.00304657
0.00300084
0.00295427
0.00290598
0.0028553
0.0028017
0.00274474
0.00268395
0.00261886
0.00254899
0.00247388
0.00239303
0.00230591
0.00221195
0.00211048
0.00200079
0.00188202
0.00175325
0.00161338
0.0014612
0.00129537
0.0011144
0.000916785
0.000701184
0.000467367
0.000221037
2.10412e-05
0.00341164
0.00339479
0.00337723
0.00335982
0.00334358
0.00332965
0.00331916
0.00331303
0.00330456
0.00327157
0.00322864
0.0031825
0.00313461
0.00308889
0.00304366
0.00299763
0.0029498
0.0028995
0.00284618
0.00278936
0.00272859
0.00266337
0.00259323
0.00251769
0.00243625
0.00234837
0.00225345
0.00215083
0.00203974
0.00191932
0.00178861
0.00164647
0.00149164
0.00132274
0.00113823
0.00093653
0.000716282
0.000477265
0.000225482
2.14675e-05
0.00345519
0.00343882
0.00342101
0.00340234
0.0033835
0.00336523
0.00334835
0.00333366
0.00332196
0.00330169
0.00325949
0.00321654
0.00317124
0.00312708
0.00308295
0.00303768
0.00299038
0.00294041
0.00288727
0.0028305
0.00276963
0.00270419
0.00263371
0.00255771
0.00247568
0.00238707
0.00229127
0.00218758
0.00207524
0.00195334
0.00182087
0.00167668
0.00151946
0.00134776
0.00116
0.000954546
0.000730014
0.000486222
0.000229487
2.18762e-05
0.00349618
0.00348088
0.00346363
0.00344479
0.00342476
0.003404
0.00338295
0.00336207
0.00334176
0.00332233
0.00329135
0.00324849
0.00320566
0.00316321
0.00312018
0.00307555
0.00302856
0.00297868
0.00292545
0.00286847
0.0028073
0.00274147
0.00267053
0.00259398
0.00251132
0.00242197
0.00232532
0.00222065
0.00210716
0.00198391
0.00184986
0.00170383
0.00154445
0.00137023
0.00117954
0.000970715
0.00074233
0.000494251
0.000233079
2.22614e-05
0.0035334
0.00351961
0.00350355
0.00348544
0.00346551
0.00344399
0.00342113
0.00339707
0.00337192
0.00334565
0.00331795
0.00328169
0.00324059
0.00319926
0.00315666
0.00311205
0.00306484
0.00301459
0.00296093
0.00290344
0.00284171
0.0027753
0.00270375
0.00262656
0.00254321
0.00245311
0.00235563
0.00225003
0.00213546
0.00201099
0.00187552
0.00172782
0.00156652
0.00139006
0.00119678
0.000984966
0.000753181
0.000501323
0.000236239
2.26204e-05
0.00356569
0.00355355
0.00353902
0.00352219
0.00350318
0.00348211
0.0034591
0.00343423
0.0034075
0.00337885
0.00334805
0.00331406
0.00327601
0.00323519
0.00319231
0.00314707
0.00309911
0.00304809
0.00299363
0.00293537
0.00287288
0.00280572
0.00273343
0.00265551
0.00257143
0.00248057
0.00238227
0.00227578
0.00216022
0.00203462
0.00189786
0.00174869
0.00158568
0.00140725
0.0012117
0.000997292
0.000762564
0.000507447
0.000238994
2.29432e-05
0.00359219
0.00358166
0.00356868
0.0035533
0.00353555
0.00351548
0.00349315
0.00346858
0.0034418
0.00341275
0.00338133
0.00334728
0.00331007
0.00326945
0.0032259
0.00317971
0.00313074
0.00307871
0.00302329
0.0029641
0.00290072
0.00283273
0.00275964
0.00268095
0.00259611
0.00250448
0.00240539
0.00229805
0.00218156
0.00205494
0.00191703
0.00176654
0.00160203
0.00142189
0.00122438
0.00100775
0.000770511
0.00051263
0.000241329
2.32329e-05
0.00361255
0.00360342
0.00359186
0.00357785
0.00356139
0.00354248
0.00352112
0.00349731
0.00347102
0.00344221
0.00341081
0.00337669
0.00333964
0.00329935
0.00325557
0.00320862
0.00315873
0.00310577
0.00304942
0.00298933
0.00292509
0.00285627
0.0027824
0.00270295
0.00261737
0.00252501
0.00242517
0.00231703
0.0021997
0.00207214
0.0019332
0.00178156
0.00161574
0.00143412
0.00123495
0.00101643
0.000777102
0.000516924
0.000243268
2.34917e-05
0.0036268
0.00361884
0.00360849
0.00359569
0.00358041
0.00356261
0.00354225
0.00351929
0.00349369
0.00346538
0.00343428
0.00340029
0.00336328
0.00332319
0.00327975
0.00323269
0.00318228
0.00312866
0.0030716
0.00301079
0.00294582
0.0028763
0.00280173
0.00272161
0.00263536
0.00254232
0.00244179
0.00233293
0.00221484
0.00208645
0.0019466
0.00179395
0.00162701
0.00144414
0.00124356
0.00102349
0.000782438
0.000520391
0.000244835
2.37219e-05
0.00363526
0.00362825
0.0036189
0.00360713
0.00359289
0.00357609
0.00355669
0.00353461
0.00350977
0.0034821
0.00345151
0.00341791
0.00338119
0.0033413
0.00329815
0.00325149
0.00320111
0.00314718
0.0030897
0.0030284
0.00296292
0.00289284
0.00281772
0.00273704
0.00265021
0.0025566
0.00245546
0.00234597
0.00222719
0.00209808
0.00195744
0.00180393
0.00163604
0.00145213
0.0012504
0.00102907
0.000786636
0.00052311
0.000246066
2.39262e-05
0.00363836
0.00363213
0.00362362
0.00361275
0.00359943
0.00358356
0.00356506
0.00354384
0.00351982
0.00349288
0.00346296
0.00342994
0.00339374
0.00335426
0.00331144
0.00326518
0.00321522
0.00316142
0.0031038
0.00304225
0.00297645
0.00290601
0.00283049
0.00274938
0.00266209
0.00256799
0.00246634
0.00235631
0.00223696
0.00210723
0.00196591
0.00181168
0.00164301
0.00145825
0.00125561
0.00103329
0.000789798
0.000525152
0.000246995
2.4106e-05
0.00363658
0.003631
0.00362323
0.00361316
0.00360068
0.00358568
0.00356807
0.00354772
0.00352454
0.00349842
0.00346926
0.00343696
0.00340142
0.00336253
0.00332021
0.00327438
0.00322489
0.00317151
0.00311405
0.00305248
0.00298656
0.00291593
0.00284015
0.00275874
0.00267112
0.00257664
0.00247457
0.00236409
0.00224426
0.00211401
0.00197215
0.00181733
0.00164804
0.00146263
0.0012593
0.00103625
0.000792001
0.000526566
0.000247643
2.42637e-05
0.00363031
0.00362533
0.00361824
0.00360891
0.00359724
0.00358309
0.00356636
0.0035469
0.00352461
0.00349936
0.00347104
0.00343955
0.00340477
0.00336659
0.00332491
0.00327963
0.00323062
0.00317772
0.00312066
0.00305927
0.00299339
0.00292271
0.00284682
0.00276522
0.00267736
0.0025826
0.00248021
0.00236937
0.00224915
0.00211849
0.0019762
0.00182093
0.00165118
0.0014653
0.00126151
0.001038
0.000793281
0.000527388
0.000248035
2.44e-05
0.00361994
0.00361552
0.00360908
0.00360048
0.00358961
0.00357631
0.00356046
0.00354192
0.00352055
0.00349622
0.0034688
0.00343819
0.00340424
0.00336685
0.0033259
0.00328127
0.00323283
0.00318042
0.00312384
0.00306279
0.00299709
0.00292647
0.00285056
0.00276887
0.00268086
0.00258589
0.00248325
0.00237214
0.00225162
0.00212065
0.00197804
0.00182246
0.00165242
0.00146627
0.00126223
0.00103851
0.00079363
0.000527606
0.000248161
2.45121e-05
0.00360578
0.00360192
0.00359613
0.00358828
0.00357821
0.00356578
0.00355084
0.00353323
0.00351281
0.00348943
0.00346295
0.00343324
0.00340017
0.0033636
0.00332342
0.00327949
0.00323167
0.00317981
0.0031237
0.0030631
0.00299771
0.00292724
0.00285138
0.00276965
0.00268154
0.00258643
0.00248361
0.0023723
0.00225156
0.00212038
0.00197758
0.00182183
0.00165167
0.00146544
0.00126139
0.00103774
0.000793006
0.000527196
0.000248012
2.46009e-05
0.00358814
0.00358487
0.00357975
0.00357266
0.00356342
0.00355188
0.00353786
0.00352122
0.00350177
0.00347936
0.00345385
0.00342507
0.00339289
0.00335716
0.00331774
0.00327452
0.00322733
0.00317601
0.00312037
0.00306018
0.00299512
0.00292488
0.00284912
0.00276743
0.00267928
0.00258409
0.00248117
0.00236972
0.00224887
0.00211758
0.0019747
0.00181893
0.00164881
0.00146272
0.00125891
0.00103561
0.00079135
0.00052612
0.000247576
2.46646e-05
0.00356737
0.0035647
0.00356029
0.00355398
0.00354561
0.00353498
0.00352192
0.00350626
0.00348781
0.0034664
0.00344186
0.00341403
0.00338274
0.00334785
0.00330922
0.0032667
0.00322015
0.00316938
0.0031142
0.00305437
0.00298962
0.00291957
0.00284392
0.00276226
0.00267411
0.00257887
0.00247588
0.00236436
0.00224344
0.00211213
0.00196929
0.00181364
0.00164374
0.00145799
0.00125467
0.00103203
0.000788588
0.000524332