/*--------------------------------*- C++ -*----------------------------------*\
  =========                 |
  \\      /  F ield         | OpenFOAM: The Open Source CFD Toolbox
   \\    /   O peration     | Website:  https://openfoam.org
    \\  /    A nd           | Version:  8
     \\/     M anipulation  |
\*---------------------------------------------------------------------------*/
FoamFile
{
    version     2.0;
    format      ascii;
    class       volScalarField;
    location    "1.95";
    object      p;
}
// * * * * * * * * * * * * * * * * * * * * * * * * * * * * * * * * * * * * * //

dimensions      [1 -1 -2 0 0 0 0];

internalField   nonuniform List<scalar> 
9150
(
403.747
376.786
351.259
334.063
325.751
325.753
334.07
351.269
376.795
403.754
374.899
355.382
339.704
327.903
321.916
321.918
327.908
339.711
355.39
374.906
345.638
332.099
323.53
315.782
311.668
311.669
315.786
323.537
332.107
345.646
320.924
310.941
305.443
300.092
297.12
297.121
300.096
305.449
310.948
320.933
299.623
290.765
286.141
281.977
279.534
279.535
281.98
286.146
290.772
299.631
36.5777
32.4891
57.7246
72.0564
78.7016
78.7314
72.1415
57.8505
32.6714
36.8369
206.89
182.717
177.368
176.177
176.287
176.303
176.222
177.437
182.809
206.982
311.498
280.076
264.134
254.274
249.605
249.613
254.297
264.17
280.118
311.537
392.083
349.869
322.017
304.695
296.194
296.199
304.707
322.035
349.889
392.098
442.394
389.96
351.354
329.329
319.19
319.193
329.337
351.365
389.971
442.4
-48.0773
-14.352
-25.6446
-15.7377
-20.004
-19.4982
-15.8452
-24.9537
-13.5871
-45.7307
-39.7879
-23.6645
-43.1001
-35.338
-39.0645
-38.7382
-35.5446
-41.9812
-23.0037
-38.1053
-83.9895
-52.7056
-83.7647
-76.7817
-73.3859
-73.3518
-76.722
-82.9318
-52.0791
-82.7816
-262.977
-137.867
-119.699
-101.441
-85.2392
-85.1997
-101.189
-119.14
-137.507
-261.895
-405.457
-168.775
-71.8997
-41.7552
-26.1462
-26.0991
-41.5891
-71.6473
-168.494
-404.656
1769.64
1770.27
1770.62
1770.7
1770.53
1770.1
1769.45
1768.57
1767.5
1766.25
1740.72
1741.29
1741.66
1741.81
1741.76
1741.51
1741.08
1740.48
1739.73
1738.86
1711.92
1712.44
1712.81
1713.04
1713.13
1713.07
1712.9
1712.6
1712.22
1711.75
1686.45
1686.91
1687.26
1687.5
1687.65
1687.7
1687.67
1687.56
1687.39
1687.18
1663.24
1663.62
1663.93
1664.17
1664.33
1664.44
1664.48
1664.48
1664.45
1664.39
1641.67
1641.96
1642.22
1642.42
1642.58
1642.7
1642.78
1642.84
1642.88
1642.9
1621.37
1621.58
1621.76
1621.92
1622.05
1622.16
1622.25
1622.33
1622.4
1622.47
1602.05
1602.16
1602.27
1602.37
1602.46
1602.55
1602.64
1602.72
1602.81
1602.9
1583.44
1583.45
1583.49
1583.53
1583.59
1583.67
1583.75
1583.84
1583.95
1584.07
1565.3
1565.23
1565.21
1565.22
1565.26
1565.33
1565.42
1565.55
1565.71
1565.88
1547.42
1547.31
1547.25
1547.24
1547.29
1547.38
1547.51
1547.7
1547.95
1548.24
1529.65
1529.52
1529.46
1529.46
1529.53
1529.66
1529.86
1530.14
1530.5
1530.96
1511.87
1511.75
1511.71
1511.74
1511.84
1512.01
1512.25
1512.57
1512.98
1513.48
1494
1493.94
1493.94
1494.01
1494.15
1494.35
1494.63
1494.97
1495.39
1495.87
1476.06
1476.06
1476.12
1476.25
1476.44
1476.69
1477
1477.39
1477.83
1478.32
1458.03
1458.11
1458.25
1458.44
1458.69
1458.99
1459.36
1459.78
1460.25
1460.77
1439.92
1440.1
1440.32
1440.59
1440.9
1441.26
1441.66
1442.11
1442.6
1443.12
1421.81
1422.08
1422.39
1422.73
1423.11
1423.53
1424
1424.51
1425.06
1425.66
1403.72
1404.07
1404.45
1404.85
1405.3
1405.79
1406.32
1406.9
1407.53
1408.23
1385.68
1386.08
1386.51
1386.97
1387.46
1388
1388.57
1389.2
1389.88
1390.64
1367.67
1368.12
1368.58
1369.07
1369.59
1370.15
1370.75
1371.4
1372.09
1372.86
1349.72
1350.18
1350.65
1351.15
1351.68
1352.24
1352.83
1353.47
1354.16
1354.92
1331.81
1332.27
1332.74
1333.23
1333.73
1334.26
1334.82
1335.41
1336.03
1336.7
1313.97
1314.41
1314.86
1315.32
1315.78
1316.26
1316.74
1317.24
1317.76
1318.29
1296.2
1296.62
1297.03
1297.44
1297.86
1298.26
1298.66
1299.05
1299.43
1299.79
1278.5
1278.89
1279.27
1279.64
1280
1280.34
1280.66
1280.94
1281.19
1281.4
1260.9
1261.26
1261.6
1261.94
1262.25
1262.54
1262.8
1263.02
1263.19
1263.32
1243.4
1243.73
1244.04
1244.34
1244.62
1244.87
1245.09
1245.27
1245.39
1245.48
1226.01
1226.31
1226.59
1226.86
1227.11
1227.34
1227.53
1227.67
1227.78
1227.84
1208.7
1208.98
1209.24
1209.49
1209.72
1209.92
1210.08
1210.21
1210.3
1210.35
1191.48
1191.75
1191.99
1192.22
1192.42
1192.6
1192.74
1192.85
1192.91
1192.94
1174.35
1174.61
1174.84
1175.04
1175.22
1175.36
1175.47
1175.55
1175.58
1175.59
1157.33
1157.58
1157.78
1157.96
1158.1
1158.2
1158.27
1158.3
1158.29
1158.25
1140.43
1140.66
1140.83
1140.96
1141.06
1141.11
1141.12
1141.09
1141.01
1140.9
1123.66
1123.85
1123.98
1124.06
1124.09
1124.08
1124.01
1123.9
1123.74
1123.55
1107.03
1107.17
1107.23
1107.24
1107.2
1107.1
1106.94
1106.73
1106.47
1106.17
1090.55
1090.61
1090.59
1090.51
1090.37
1090.16
1089.9
1089.57
1089.19
1088.77
1074.24
1074.19
1074.05
1073.85
1073.59
1073.26
1072.87
1072.42
1071.91
1071.34
1058.1
1057.89
1057.61
1057.26
1056.85
1056.39
1055.86
1055.27
1054.61
1053.91
1042.11
1041.69
1041.22
1040.7
1040.13
1039.51
1038.83
1038.1
1037.31
1036.46
1026.18
1025.52
1024.82
1024.11
1023.36
1022.58
1021.76
1020.89
1019.97
1019
1010.16
1009.23
1008.31
1007.4
1006.48
1005.55
1004.6
1003.62
1002.6
1001.53
993.804
992.647
991.532
990.453
989.395
988.347
987.299
986.244
985.171
984.066
977.023
975.688
974.414
973.196
972.023
970.888
969.787
968.712
967.657
966.606
959.744
958.276
956.874
955.542
954.279
953.088
951.974
950.942
949.989
949.097
942.033
940.424
938.881
937.416
936.048
934.792
933.669
932.69
931.854
931.139
923.937
922.132
920.389
918.731
917.194
915.815
914.629
913.667
912.985
912.739
905.533
903.442
901.394
899.434
897.616
896.004
894.692
893.879
893.967
895.419
886.903
884.362
881.809
879.279
876.832
874.582
872.782
871.825
871.811
870.275
868.323
865.188
861.935
858.607
855.362
852.533
850.243
846.749
836.916
814.17
850.141
846.242
842.073
837.787
833.702
829.475
821.177
802.562
778.828
770.139
833.062
828.467
823.613
818.697
812.953
802.171
782.66
768.285
767.48
767.495
817.594
812.465
806.77
798.959
786.039
771.568
765.754
766.098
766.21
766.446
804.941
799.303
790.519
776.629
765.327
763.381
764.321
765.276
765.872
766.024
796.728
788.798
774.923
763.599
760.781
760.854
762.641
764.675
764.956
764.925
792.227
778.5
764.26
758.866
758.257
758.818
761.17
761.926
761.933
762.294
791.219
772.064
759.529
756.945
757.098
757.455
758.981
757.217
757.881
758.603
791.667
772.601
758.909
756.39
756.15
756.174
757.136
754.171
754.278
754.481
788.083
781.019
764.079
755.903
754.423
754.297
753.674
751.949
751.009
752.426
770.554
775.135
769.14
758.532
753.618
752.177
751.197
749.051
747.588
750.355
745.932
751.559
755.39
754.913
752.466
751.437
748.678
747.984
749.307
751.036
721.204
724.699
727.897
730.787
733.404
735.792
739.863
741.366
744.2
748.392
697.831
700.252
702.006
702.75
702.323
702.157
704.131
709.646
721.819
744.85
676.38
678.813
680.538
681.305
680.715
678.107
673.433
670.7
681.89
714.015
656.541
659.719
662.344
664.282
665.407
665.415
663.598
660.172
661.433
678.017
637.46
641.672
645.408
648.577
651.124
652.994
654.027
653.835
652.537
653.687
618.439
623.854
628.828
633.285
637.192
640.538
643.335
645.541
646.842
646.743
598.824
605.519
611.763
617.489
622.683
627.356
631.552
635.337
638.696
641.417
577.955
585.929
593.358
600.19
606.413
612.037
617.078
621.565
625.517
628.953
555.344
564.58
573.117
580.903
587.938
594.235
599.801
604.628
608.715
612.298
530.605
541.034
550.555
559.113
566.703
573.333
578.989
583.592
587.144
590.303
503.379
514.961
525.357
534.534
542.484
549.215
554.691
558.814
561.801
565.097
473.596
486.304
497.472
507.118
515.263
521.922
527.043
530.603
533.375
537.456
442.099
455.539
467.272
477.196
485.38
491.87
496.66
500.055
503.705
508.807
410.494
423.499
435.295
445.213
453.214
459.363
463.769
467.262
472.026
475.192
379.688
391.168
402.268
411.873
419.535
425.287
429.461
433.525
439.187
435.888
348.574
359.265
369.009
377.859
384.964
390.176
394.073
398.545
403.674
390.3
316.837
328.113
336.565
344.276
350.429
354.665
357.532
360.597
361.914
339.979
286.581
299.095
306.504
312.936
318.076
321.428
323.427
325.186
323.793
300.071
259.46
271.214
278.384
284.122
288.572
291.39
292.942
293.992
291.447
271.398
237.864
246.07
253.006
258.427
262.373
264.716
265.746
265.986
263.211
249.036
221.65
225.195
231.202
236.207
239.687
241.58
242.066
241.494
238.671
229.736
205.807
205.944
211.262
216.212
219.616
221.332
221.393
219.914
216.44
210.956
181.712
183.701
191.13
197.515
201.794
203.972
204.089
202.142
198.331
195.701
161.041
165.12
174.8
182.503
187.552
190.085
190.291
188.259
184.521
183.492
155.485
156.661
165.046
172.303
177.158
179.313
178.931
176.1
171.189
168.7
145.174
150.085
158.227
165.191
169.981
171.835
170.963
167.602
162.377
160.063
150.081
151.925
156.42
161.501
165.681
167.331
166.694
164.494
162.38
165.161
149.18
151.171
153.919
157.6
160.96
162.296
161.777
160.644
160.999
166.591
153.441
152.16
152.057
153.377
154.924
155.308
154.301
153.018
152.607
153.614
154.268
149.747
146.875
145.732
145.172
144.733
143.959
143.827
145.164
145.313
145.368
140.07
135.546
132.474
129.908
128.152
126.752
126.055
126.089
120.777
130.869
125.483
119.601
114.867
110.744
107.383
104.55
101.997
98.3377
85.5388
109.39
105.769
99.6275
93.8871
89.3462
85.0771
81.0218
77.2264
70.6742
54.9896
80.5549
80.6391
75.8169
70.1387
66.8746
63.0998
58.8428
55.4924
47.5935
33.764
38.9908
48.1431
49.015
45.769
44.7132
42.5658
39.4404
38.3032
30.6648
21.188
7.52444
18.9681
24.7338
24.3349
24.8375
24.3848
23.246
23.409
17.2818
13.3469
-4.46355
-0.141532
6.04075
8.28091
9.04252
9.41126
9.40041
8.402
4.29989
0.654121
-8.85113
-5.46131
-4.44168
-1.96873
-2.53482
-1.9248
-0.526703
-1.97155
-1.27653
-7.65771
-20.5936
0.371258
-10.473
-8.20941
-11.1671
-10.5961
-7.61574
-9.93167
1.12564
-18.5801
1764.76
1763.03
1761.21
1759.32
1757.41
1755.53
1753.72
1752.02
1750.46
1749.09
1747.92
1746.99
1746.26
1745.72
1745.35
1745.17
1745.17
1745.33
1745.63
1746.07
1746.62
1747.27
1747.99
1748.77
1749.59
1750.43
1751.28
1752.12
1752.93
1753.71
1754.42
1755.06
1755.61
1756.03
1756.33
1756.5
1757.34
1757.77
1757.7
1758.04
1737.82
1736.59
1735.29
1733.97
1732.67
1731.41
1730.23
1729.17
1728.23
1727.44
1726.81
1726.36
1726.14
1726.08
1726.19
1726.44
1726.83
1727.33
1727.93
1728.61
1729.36
1730.17
1731.01
1731.88
1732.75
1733.63
1734.48
1735.3
1736.08
1736.79
1737.42
1737.96
1738.39
1738.72
1738.96
1739.28
1740.02
1740.8
1741.69
1741.92
1711.18
1710.48
1709.76
1709.04
1708.37
1707.76
1707.24
1706.82
1706.52
1706.36
1706.33
1706.44
1706.69
1707.06
1707.53
1708.1
1708.76
1709.48
1710.25
1711.07
1711.92
1712.78
1713.66
1714.54
1715.4
1716.24
1717.05
1717.81
1718.51
1719.14
1719.69
1720.15
1720.54
1720.88
1721.23
1721.73
1722.58
1723.73
1725.19
1726.15
1686.88
1686.51
1686.15
1685.82
1685.54
1685.34
1685.22
1685.2
1685.3
1685.51
1685.83
1686.26
1686.8
1687.44
1688.16
1688.94
1689.78
1690.65
1691.56
1692.48
1693.41
1694.33
1695.25
1696.14
1697
1697.82
1698.6
1699.32
1699.98
1700.57
1701.09
1701.55
1701.97
1702.36
1702.81
1703.39
1704.24
1705.46
1706.79
1711.02
1664.27
1664.11
1663.96
1663.85
1663.81
1663.84
1663.95
1664.17
1664.49
1664.91
1665.45
1666.09
1666.82
1667.64
1668.52
1669.45
1670.42
1671.41
1672.41
1673.41
1674.4
1675.37
1676.31
1677.22
1678.09
1678.9
1679.67
1680.37
1681.02
1681.59
1682.11
1682.56
1682.99
1683.4
1683.86
1684.42
1685.17
1686.23
1687.56
1692.34
1642.89
1642.83
1642.8
1642.81
1642.87
1643.01
1643.23
1643.54
1643.95
1644.47
1645.11
1645.86
1646.71
1647.65
1648.65
1649.7
1650.78
1651.87
1652.96
1654.04
1655.09
1656.12
1657.1
1658.05
1658.94
1659.77
1660.54
1661.25
1661.9
1662.48
1663.01
1663.48
1663.92
1664.35
1664.81
1665.35
1666.04
1667.01
1668.3
1671.52
1622.5
1622.49
1622.51
1622.55
1622.64
1622.78
1622.98
1623.25
1623.62
1624.1
1624.73
1625.51
1626.42
1627.43
1628.53
1629.69
1630.88
1632.09
1633.28
1634.46
1635.6
1636.7
1637.76
1638.76
1639.69
1640.57
1641.38
1642.12
1642.8
1643.41
1643.96
1644.47
1644.94
1645.4
1645.89
1646.45
1647.15
1648.13
1649.45
1650.8
1602.96
1602.98
1603
1603.04
1603.09
1603.14
1603.19
1603.26
1603.39
1603.67
1604.16
1604.88
1605.8
1606.89
1608.1
1609.4
1610.74
1612.09
1613.43
1614.74
1616
1617.21
1618.36
1619.45
1620.46
1621.41
1622.28
1623.07
1623.8
1624.46
1625.06
1625.61
1626.12
1626.62
1627.13
1627.7
1628.38
1629.29
1630.47
1631.57
1584.17
1584.22
1584.27
1584.31
1584.29
1584.17
1583.93
1583.58
1583.2
1582.98
1583.14
1583.7
1584.63
1585.85
1587.23
1588.74
1590.3
1591.88
1593.42
1594.91
1596.35
1597.71
1598.99
1600.19
1601.31
1602.35
1603.3
1604.17
1604.97
1605.69
1606.35
1606.95
1607.5
1608.03
1608.55
1609.09
1609.7
1610.47
1611.42
1612.27
1566.06
1566.22
1566.36
1566.45
1566.44
1566.27
1565.92
1565.17
1563.72
1562.23
1561.55
1561.7
1562.52
1563.89
1565.86
1567.81
1569.53
1571.43
1573.27
1575.02
1576.68
1578.23
1579.68
1581.03
1582.28
1583.43
1584.48
1585.44
1586.32
1587.12
1587.84
1588.49
1589.08
1589.63
1590.14
1590.64
1591.15
1591.74
1592.41
1592.99
1548.59
1548.97
1549.41
1549.91
1550.62
1551.66
1552.32
1550.17
1543.67
1538.01
1535.83
1537.27
1540.14
1544.05
1543.48
1545.82
1548.33
1550.77
1553.04
1555.14
1557.07
1558.86
1560.5
1562.01
1563.39
1564.67
1565.83
1566.89
1567.85
1568.72
1569.51
1570.21
1570.83
1571.39
1571.89
1572.33
1572.73
1573.12
1573.5
1573.8
1531.54
1532.29
1533.31
1534.96
1537.83
1540.76
1537.66
1521.7
1504.34
1504.71
1513.49
1510.88
1512.46
1515.46
1519.31
1523.33
1526.96
1530.15
1532.94
1535.42
1537.65
1539.66
1541.49
1543.16
1544.7
1546.09
1547.35
1548.5
1549.54
1550.48
1551.33
1552.07
1552.73
1553.29
1553.76
1554.15
1554.44
1554.64
1554.75
1554.79
1514.09
1514.87
1516.1
1518.36
1520.43
1513.8
1493.41
1478.17
1485.44
1479.58
1467.13
1472.1
1481.77
1490.1
1496.81
1502.18
1506.58
1510.27
1513.43
1516.18
1518.6
1520.78
1522.75
1524.54
1526.2
1527.69
1529.02
1530.25
1531.36
1532.36
1533.25
1534.04
1534.71
1535.28
1535.74
1536.07
1536.26
1536.3
1536.16
1535.97
1496.41
1497.23
1498.77
1500.3
1494.63
1477.64
1465.9
1463.97
1463.45
1454.81
1450.01
1457.57
1466.76
1473.96
1479.66
1484.41
1488.47
1491.97
1495.01
1497.7
1500.11
1502.3
1504.32
1506.16
1507.87
1509.42
1510.81
1512.1
1513.26
1514.3
1515.23
1516.05
1516.75
1517.32
1517.76
1518.05
1518.17
1518.07
1517.75
1517.37
1478.91
1480.01
1481.86
1481.06
1468.55
1454.75
1451.72
1452.49
1451.9
1448.57
1446.47
1450.13
1455.66
1460.49
1464.67
1468.41
1471.77
1474.75
1477.41
1479.83
1482.05
1484.12
1486.1
1487.94
1489.67
1491.25
1492.7
1494.01
1495.2
1496.28
1497.23
1498.07
1498.78
1499.36
1499.79
1500.06
1500.13
1499.95
1499.51
1499
1461.43
1462.66
1464.37
1462.29
1451.13
1443.54
1442.35
1442.5
1442.64
1441.28
1438.71
1440.34
1443.93
1447.35
1450.47
1453.33
1455.91
1458.25
1460.41
1462.35
1464.15
1466.11
1468.09
1469.88
1471.6
1473.18
1474.63
1475.97
1477.16
1478.24
1479.21
1480.05
1480.78
1481.36
1481.8
1482.07
1482.14
1481.93
1481.44
1480.87
1443.76
1444.75
1445.82
1444
1438.23
1435.46
1435.15
1434.68
1434.71
1432.23
1429.25
1429.46
1432.07
1434.64
1436.98
1439.12
1440.91
1442.31
1443.69
1445.45
1448.08
1448.12
1450.07
1451.95
1453.68
1455.17
1456.61
1457.93
1459.12
1460.18
1461.14
1461.99
1462.71
1463.31
1463.77
1464.07
1464.16
1463.99
1463.53
1462.99
1426.36
1427.29
1428.28
1428.27
1426.38
1426.73
1427.39
1426.01
1423.77
1421.36
1419.82
1418.66
1420.33
1422.46
1424.51
1426.33
1426.63
1425.82
1425.99
1428.01
1430.82
1430.35
1432.44
1434.15
1435.93
1437.34
1438.68
1439.93
1441.07
1442.1
1443.03
1443.86
1444.59
1445.21
1445.7
1446.04
1446.21
1446.13
1445.78
1445.34
1409.07
1410.1
1411.28
1412.43
1413.11
1416.72
1417.69
1416.23
1414.4
1413.8
1411.23
1408.48
1408.59
1410.24
1411.96
1412.94
1416.86
1416.22
1407.98
1408.57
1411.16
1413.34
1415.25
1416.93
1418.41
1419.68
1420.87
1422.01
1423.05
1424.01
1424.89
1425.69
1426.41
1427.05
1427.58
1428
1428.28
1428.36
1428.2
1427.91
1391.55
1392.62
1393.72
1394.87
1397.15
1403.51
1407.91
1408.63
1407.1
1404.57
1402.9
1400.36
1398.11
1398.67
1400.08
1400.97
1404.34
1404.98
1397.94
1394.39
1395.51
1397.22
1398.7
1399.97
1401.1
1402.18
1403.19
1404.15
1405.05
1405.91
1406.72
1407.48
1408.19
1408.85
1409.44
1409.96
1410.38
1410.66
1410.75
1410.69
1373.78
1374.87
1375.95
1376.81
1378.43
1385.26
1396.86
1401.31
1399.55
1397.52
1395.58
1394.15
1389.41
1388.56
1387.21
1387.76
1388.36
1388.56
1386.58
1382.23
1380.96
1381.47
1382.4
1383.24
1384.01
1384.78
1385.55
1386.31
1387.06
1387.79
1388.52
1389.24
1389.94
1390.62
1391.29
1391.92
1392.51
1393.03
1393.43
1393.63
1355.83
1356.93
1358.13
1359.19
1360.16
1364.19
1377.9
1391.11
1392.94
1391.67
1390.35
1389.92
1382.04
1387.37
1377.85
1374.18
1374.42
1374.17
1372.66
1368.85
1366.18
1365.74
1366.11
1366.52
1366.93
1367.39
1367.9
1368.45
1369.04
1369.65
1370.3
1370.97
1371.66
1372.38
1373.12
1373.88
1374.66
1375.46
1376.2
1376.69
1337.5
1338.45
1339.53
1340.61
1341.33
1342.22
1349.39
1370
1386.11
1386.77
1385.8
1384.48
1380.88
1371.64
1370.2
1355.89
1358.04
1358.34
1357.11
1353.75
1350.72
1349.73
1349.65
1349.67
1349.75
1349.92
1350.19
1350.54
1350.97
1351.47
1352.04
1352.67
1353.36
1354.12
1354.94
1355.84
1356.82
1357.91
1359
1359.79
1318.9
1319.59
1320.34
1321.14
1321.78
1321.74
1322
1331.54
1358.99
1379
1378.53
1376.81
1375.58
1368.73
1360.99
1344.04
1344.27
1343.85
1342.31
1338.4
1335.01
1333.55
1333.01
1332.65
1332.41
1332.31
1332.36
1332.54
1332.83
1333.23
1333.72
1334.32
1335.02
1335.83
1336.75
1337.79
1338.97
1340.33
1341.77
1342.86
1300.17
1300.54
1300.86
1301.11
1301.23
1300.86
1299.34
1298.19
1307.79
1333.84
1363.64
1365.56
1355.25
1359.11
1348.13
1329.84
1329.09
1328.5
1326.92
1322.16
1318.76
1316.99
1316.03
1315.33
1314.81
1314.5
1314.36
1314.39
1314.57
1314.88
1315.33
1315.92
1316.64
1317.5
1318.51
1319.69
1321.07
1322.69
1324.44
1325.82
1281.57
1281.66
1281.59
1281.3
1280.68
1279.57
1277.43
1273.29
1267.37
1266.55
1281.79
1323.67
1319.02
1330.39
1325.22
1309.53
1310.67
1311.03
1308.62
1304.14
1301.39
1299.62
1298.41
1297.49
1296.81
1296.35
1296.1
1296.03
1296.14
1296.4
1296.83
1297.42
1298.17
1299.1
1300.22
1301.54
1303.11
1304.99
1307.04
1308.85
1263.4
1263.41
1263.28
1262.97
1262.45
1261.69
1260.62
1258.94
1255.9
1252.06
1255.13
1274.01
1292.9
1293.41
1287.06
1286.66
1287.97
1290.26
1287.83
1285.41
1283.18
1281.44
1280.14
1279.14
1278.38
1277.85
1277.54
1277.43
1277.5
1277.76
1278.19
1278.8
1279.6
1280.6
1281.82
1283.28
1285.03
1287.15
1289.46
1291.46
1245.52
1245.5
1245.38
1245.14
1244.76
1244.26
1243.68
1243.05
1242.23
1240.99
1241
1249.18
1262.46
1276.11
1274.21
1267.44
1272.89
1273.07
1270
1266.98
1264.58
1262.76
1261.37
1260.31
1259.53
1258.99
1258.67
1258.56
1258.64
1258.91
1259.37
1260.02
1260.88
1261.96
1263.28
1264.87
1266.78
1269.1
1271.62
1273.72
1227.87
1227.86
1227.77
1227.6
1227.35
1227.02
1226.66
1226.32
1226.03
1225.72
1225.28
1225.97
1232.69
1242.33
1255.14
1254.28
1251.58
1251.01
1248.14
1245.97
1244.23
1242.81
1241.67
1240.78
1240.13
1239.69
1239.45
1239.39
1239.53
1239.84
1240.35
1241.06
1241.99
1243.15
1244.57
1246.27
1248.32
1250.8
1253.53
1255.67
1210.37
1210.36
1210.3
1210.18
1210.01
1209.8
1209.56
1209.35
1209.18
1209.09
1208.94
1208.49
1208.64
1213.9
1222.57
1239.15
1233.24
1229.4
1225.7
1223.98
1223.03
1222.17
1221.4
1220.77
1220.32
1220.03
1219.91
1219.95
1220.17
1220.56
1221.13
1221.91
1222.91
1224.15
1225.65
1227.45
1229.61
1232.22
1235.1
1237.33
1192.96
1192.94
1192.88
1192.78
1192.64
1192.47
1192.3
1192.13
1192
1191.93
1191.92
1191.8
1191.32
1191.29
1196.04
1205.28
1216.5
1212.22
1206.23
1202.63
1201.6
1201.24
1200.86
1200.5
1200.24
1200.12
1200.13
1200.29
1200.59
1201.06
1201.71
1202.56
1203.63
1204.94
1206.51
1208.4
1210.65
1213.35
1216.31
1218.67
1175.57
1175.52
1175.43
1175.31
1175.16
1174.99
1174.81
1174.65
1174.5
1174.4
1174.36
1174.38
1174.3
1173.92
1174.21
1179.48
1187.55
1195.58
1189.72
1183.43
1180.47
1180.07
1180.12
1180.06
1180
1180.03
1180.18
1180.44
1180.84
1181.39
1182.12
1183.03
1184.15
1185.52
1187.15
1189.09
1191.4
1194.16
1197.17
1199.7
1158.17
1158.06
1157.92
1157.74
1157.54
1157.32
1157.1
1156.88
1156.68
1156.51
1156.4
1156.37
1156.41
1156.41
1156.23
1156.89
1162.51
1170.53
1175.11
1166.1
1160.46
1158.84
1159.13
1159.48
1159.66
1159.84
1160.11
1160.47
1160.96
1161.58
1162.37
1163.34
1164.51
1165.92
1167.58
1169.55
1171.88
1174.66
1177.67
1180.09
1140.75
1140.55
1140.32
1140.05
1139.76
1139.45
1139.13
1138.82
1138.52
1138.25
1138.03
1137.87
1137.82
1137.88
1137.93
1137.94
1139.23
1145.67
1153.8
1157.34
1142.05
1139.1
1138.23
1138.75
1139.24
1139.6
1139.96
1140.42
1140.98
1141.67
1142.51
1143.52
1144.72
1146.15
1147.84
1149.81
1152.14
1154.92
1157.93
1160.33
1123.29
1122.98
1122.62
1122.24
1121.82
1121.38
1120.94
1120.49
1120.04
1119.61
1119.2
1118.82
1118.47
1118.14
1117.77
1117.14
1116.17
1116.41
1120.28
1138.12
1133.15
1126.21
1120.77
1119.38
1119.47
1119.71
1120
1120.43
1121.01
1121.73
1122.59
1123.62
1124.84
1126.27
1127.94
1129.9
1132.2
1134.94
1137.92
1140.29
1105.79
1105.34
1104.84
1104.31
1103.74
1103.15
1102.55
1101.95
1101.35
1100.76
1100.19
1099.65
1099.14
1098.67
1098.22
1097.68
1096.8
1095.82
1097.64
1103.66
1115.78
1110.69
1101.89
1098.78
1098.74
1099.28
1099.78
1100.32
1100.97
1101.74
1102.64
1103.69
1104.9
1106.31
1107.95
1109.85
1112.09
1114.76
1117.66
1119.98
1088.25
1087.64
1086.98
1086.28
1085.54
1084.78
1084
1083.22
1082.45
1081.7
1080.99
1080.32
1079.72
1079.2
1078.78
1078.48
1078.22
1077.93
1078.59
1083.83
1091.51
1095.89
1079.18
1077.11
1077.11
1078.27
1079.28
1080.11
1080.91
1081.77
1082.71
1083.77
1084.97
1086.34
1087.91
1089.73
1091.86
1094.41
1097.23
1099.46
1070.67
1069.89
1069.05
1068.16
1067.23
1066.28
1065.3
1064.33
1063.36
1062.43
1061.55
1060.73
1059.99
1059.34
1058.79
1058.37
1058.03
1057.63
1057.23
1058.5
1063.29
1073.62
1069.05
1061.12
1058.61
1058.95
1059.79
1060.53
1061.27
1062.08
1062.98
1064
1065.13
1066.42
1067.9
1069.6
1071.58
1073.96
1076.68
1078.75
1053.07
1052.1
1051.08
1049.99
1048.86
1047.68
1046.49
1045.29
1044.12
1042.98
1041.92
1040.95
1040.09
1039.36
1038.77
1038.36
1038.13
1038.01
1037.92
1038.67
1043.67
1050.16
1053.9
1039.24
1037.91
1038.47
1039.72
1040.75
1041.63
1042.49
1043.39
1044.37
1045.44
1046.63
1047.98
1049.52
1051.31
1053.45
1055.96
1057.87
1035.46
1034.31
1033.09
1031.8
1030.45
1029.05
1027.6
1026.15
1024.71
1023.34
1022.07
1020.92
1019.91
1019.06
1018.38
1017.86
1017.53
1017.32
1017.11
1017.13
1019.28
1023.79
1034.53
1025.33
1021.52
1020.51
1021.1
1021.87
1022.58
1023.33
1024.14
1025.03
1025.99
1027.06
1028.25
1029.59
1031.14
1032.99
1035.1
1036.86
1017.86
1016.55
1015.15
1013.66
1012.09
1010.44
1008.7
1006.93
1005.17
1003.51
1001.99
1000.65
999.497
998.539
997.77
997.175
996.731
996.371
995.922
995.291
995.469
997.974
1014.87
1010.17
1005.17
1002.68
1002.55
1003.08
1003.7
1004.38
1005.14
1005.96
1006.83
1007.78
1008.8
1009.92
1011.19
1012.69
1014.39
1016.43
1000.29
998.856
997.325
995.682
993.913
991.994
989.909
987.696
985.494
983.447
981.639
980.102
978.838
977.839
977.085
976.548
976.19
975.935
975.614
975.069
974.89
976.14
994.935
992.953
986.5
983.59
983.44
984.092
984.826
985.59
986.389
987.205
988.029
988.864
989.727
990.639
991.643
992.814
994.157
996.536
982.795
981.319
979.737
978.014
976.109
973.963
971.465
968.582
965.636
963.017
960.859
959.151
957.856
956.94
956.377
956.147
956.241
956.653
957.343
958.339
960.517
965.973
972.871
977.576
959.155
960.511
962.464
964.261
965.692
966.873
967.9
968.813
969.636
970.389
971.092
971.774
972.473
973.255
974.14
975.999
965.413
964.03
962.536
960.894
959.121
957.188
954.483
950.118
945.453
941.872
939.316
937.489
936.242
935.489
935.175
935.251
935.67
936.44
937.541
939.025
941.72
947.123
954.021
958.763
940.249
942.189
944.43
946.374
947.911
949.164
950.218
951.111
951.861
952.479
952.979
953.375
953.688
953.966
954.289
954.921
948.111
946.987
945.82
944.681
943.97
943.887
940.886
931.264
923.044
918.552
916.129
914.609
913.715
913.348
913.414
913.838
914.461
915.277
916.162
917.02
918.37
919.875
937.53
937.01
930.511
929.061
929.609
930.596
931.587
932.531
933.398
934.151
934.757
935.197
935.46
935.533
935.407
935.091
934.695
935.093
930.435
929.807
929.405
929.215
929.636
930.881
928.65
914.788
896.654
891.087
890.268
890.228
890.379
890.886
891.628
892.805
893.903
895.208
896.771
898.541
901.957
908.264
918.305
914.243
911.547
911.875
912.996
914.158
915.221
916.188
917.04
917.743
918.263
918.573
918.651
918.474
918.012
917.246
916.326
918.247
913.227
914.727
916.462
915.816
911.377
906.228
929.495
896.616
870.134
862.181
863.311
864.813
865.732
866.858
869.27
875.255
873.613
874.86
876.6
878.694
880.796
899.454
900.441
895.649
895.005
895.945
897.19
898.364
899.442
900.417
901.256
901.918
902.369
902.571
902.491
902.1
901.35
900.182
898.679
899.881
898.278
900.475
895.54
875.915
851.207
848.703
865.86
835.105
831.863
831.079
831.802
834.132
839.822
850.548
851.657
848.999
851.895
855.846
859.896
864.919
871.416
881.496
874.358
875.595
877.544
879.497
881.192
882.653
883.925
885.014
885.904
886.569
886.979
887.097
886.882
886.295
885.265
883.687
881.608
881.668
859.906
833.795
802.737
789.134
787.98
790.204
783.225
782.276
788.542
798.747
811.563
822.249
828.755
822.738
822.424
826.551
832.419
837.94
843.136
848.101
856.562
858.301
858.14
859.766
862.036
864.099
865.891
867.468
868.842
870.003
870.932
871.603
871.984
872.035
871.715
870.978
869.703
867.726
865.381
863.964
784.72
774.358
773.72
775.36
776.767
777.179
775.269
773.352
778.674
788.754
794.63
796.339
799.946
802.393
806.807
812.388
818.075
823.493
828.66
835.87
838.683
840.19
841.935
844.367
846.721
848.837
850.733
852.422
853.889
855.12
856.091
856.774
857.138
857.141
856.743
855.885
854.396
852.196
849.843
847.219
769.479
769.741
770.071
770.747
771.91
772.263
768.461
768.001
777.668
784.94
791.959
796.617
797.904
798.141
799.012
801.321
805.503
811.711
817.131
819.649
821.788
823.771
826.364
828.958
831.35
833.539
835.527
837.297
838.831
840.11
841.11
841.799
842.141
842.089
841.598
840.598
838.906
836.488
834.195
831.002
767.506
767.846
768.355
768.84
769.491
771.461
781.74
800.773
807.687
802.137
801.059
797.182
791.857
787.761
785.569
786.6
793.537
800.917
802.266
803.16
805.276
807.984
810.741
813.346
815.774
818.016
820.055
821.867
823.434
824.736
825.747
826.433
826.75
826.644
826.051
824.888
822.974
820.234
816.558
813.091
766.773
767.078
767.339
767.918
770.477
785.088
811.513
809.065
807.379
773.563
768.533
771.722
771.102
767.306
765.641
768.171
778.425
781.258
781.548
784.693
788.143
791.4
794.399
797.156
799.683
801.983
804.052
805.881
807.459
808.77
809.791
810.487
810.81
810.696
810.069
808.836
806.836
803.763
799.711
795.911
766.183
766.414
766.858
768.7
779.476
801.453
792.985
755.033
751.062
735
727.935
728.721
727.889
727.858
728.952
739.983
749.329
756.515
761.896
766.741
770.944
774.579
777.772
780.607
783.145
785.417
787.44
789.224
790.765
792.057
793.08
793.802
794.172
794.116
793.545
792.339
790.301
787.128
782.892
778.967
765.015
765.234
766.346
776.298
797.929
796.267
750.273
724.564
722.02
722.043
721.068
719.721
718.34
716.234
709.161
717.093
728.827
738.381
745.249
750.511
754.804
758.402
761.468
764.122
766.458
768.529
770.367
771.99
773.405
774.613
775.602
776.347
776.799
776.879
776.476
775.43
773.517
770.397
766.146
762.214
762.808
763.755
767.957
787.424
792.305
753.942
729.418
720.477
719.317
718.955
718.598
718.356
718.163
717.907
714.222
714.191
719.555
726.958
732.622
736.823
740.314
743.319
745.863
748.043
749.954
751.647
753.145
754.466
755.624
756.631
757.495
758.213
758.755
759.049
758.955
758.251
756.646
753.76
749.662
745.866
760.313
764.736
775.088
778.817
756.436
743.511
729.986
720.716
718.681
718.068
717.767
717.584
717.426
716.981
716.004
714.346
717.047
721.252
722.924
724.436
726.426
728.424
730.131
731.652
733.066
734.347
735.459
736.404
737.207
737.902
738.536
739.162
739.826
740.509
741.014
740.939
739.894
737.48
733.772
730.329
759.431
765.887
766.869
750.732
757.635
744.326
737.887
722.213
716.827
717.019
716.778
716.488
716.24
715.941
715.444
714.495
714.008
714.266
715.14
715.671
716.154
716.017
715.326
715.277
715.839
716.511
717.021
717.351
717.535
717.626
717.728
717.981
718.6
720.007
721.967
723.265
723.254
721.697
718.796
716.088
759.348
761.728
750.545
749.851
739.512
738.421
731.608
718.533
715.402
716.096
715.829
715.456
715.102
714.745
714.352
713.997
713.277
711.278
710.867
710.474
709.962
709.247
708.78
708.598
708.404
707.975
707.208
706.272
705.215
703.995
702.618
700.967
698.203
697.758
701.019
704.86
706.502
706.347
705.04
703.84
759.056
759.132
746.362
750.201
731.491
726.205
716.322
704.817
701.277
709.783
714.533
714.325
713.993
713.643
713.218
712.789
712.443
711.976
711.074
709.822
709.043
708.741
708.462
708.027
707.544
707.091
706.649
706.198
705.718
705.182
704.578
703.867
702.126
698.508
693.555
689.33
690.536
691.759
692.958
694.316
760.251
760.743
746.645
748.723
730.038
721.078
710.086
697.383
686.655
689.54
705.427
713.081
713.021
712.792
712.349
711.895
711.421
710.933
710.482
710.125
709.903
709.739
709.388
708.71
707.969
707.381
706.957
706.631
706.355
706.107
705.864
705.558
705.131
704.636
702.673
687.177
678.178
678.959
683.314
687.525
764.998
767.187
751.253
738.407
727.276
716.349
705.168
693.662
681.535
673.11
680.077
700.949
712.619
711.869
711.564
711.29
710.921
710.557
710.185
709.814
709.46
709.11
708.725
708.31
707.903
707.528
707.19
706.885
706.614
706.378
706.181
705.999
705.802
705.624
705.494
685.459
667.615
668.182
675.421
681.901
754.778
766.702
750.538
732.508
719.228
707.705
696.929
686.942
677.36
667.986
662.671
671.361
693.784
709.637
711.599
710.553
710.305
710.184
709.934
709.594
709.242
708.911
708.595
708.277
707.937
707.584
707.245
706.938
706.676
706.472
706.323
706.174
705.813
704.404
692.547
665.83
655.046
659.051
667.245
674.239
742.696
747.693
739.635
719.996
703.208
691.828
682.43
674.151
667.117
661.272
656.697
656.176
666.392
687.212
703.709
709.829
711.091
710.697
710.002
709.364
708.932
708.699
708.57
708.44
708.185
707.757
707.258
706.741
706.28
705.889
705.467
704.799
699.895
685.873
662.908
647.542
645.683
650.028
656.938