/*--------------------------------*- C++ -*----------------------------------*\
  =========                 |
  \\      /  F ield         | OpenFOAM: The Open Source CFD Toolbox
   \\    /   O peration     | Website:  https://openfoam.org
    \\  /    A nd           | Version:  8
     \\/     M anipulation  |
\*---------------------------------------------------------------------------*/
FoamFile
{
    version     2.0;
    format      ascii;
    class       volScalarField;
    location    "1.95";
    object      p_rgh;
}
// * * * * * * * * * * * * * * * * * * * * * * * * * * * * * * * * * * * * * //

dimensions      [1 -1 -2 0 0 0 0];

internalField   nonuniform List<scalar> 
9150
(
2571.76
2544.8
2519.27
2502.07
2493.76
2493.76
2502.08
2519.28
2544.8
2571.76
2562.53
2543.01
2527.33
2515.53
2509.55
2509.55
2515.54
2527.34
2543.02
2562.54
2552.89
2539.35
2530.78
2523.03
2518.92
2518.92
2523.04
2530.79
2539.36
2552.9
2547.79
2537.81
2532.31
2526.96
2523.99
2523.99
2526.97
2532.32
2537.82
2547.8
2546.11
2537.26
2532.63
2528.47
2526.02
2526.03
2528.47
2532.64
2537.26
2546.12
2106.78
2102.7
2127.93
2142.26
2148.91
2148.94
2142.35
2128.06
2102.88
2107.04
2296.67
2272.5
2267.15
2265.96
2266.07
2266.08
2266
2267.22
2272.59
2296.76
2420.87
2389.44
2373.5
2363.64
2358.97
2358.98
2363.67
2373.54
2389.49
2420.91
2521.04
2478.83
2450.98
2433.66
2425.16
2425.16
2433.67
2451
2478.85
2521.06
2590.96
2538.52
2499.92
2477.89
2467.75
2467.76
2477.9
2499.93
2538.53
2590.96
1923.73
1957.46
1946.17
1956.07
1951.81
1952.31
1955.96
1946.86
1958.22
1926.08
1951.64
1967.77
1948.33
1956.09
1952.37
1952.69
1955.89
1949.45
1968.43
1953.32
1927.06
1958.34
1927.29
1934.27
1937.66
1937.7
1934.33
1928.12
1958.97
1928.27
1767.69
1892.8
1910.97
1929.23
1945.43
1945.47
1929.48
1911.53
1893.16
1768.78
1644.83
1881.52
1978.39
2008.53
2024.14
2024.19
2008.7
1978.64
1881.8
1645.63
1779.45
1780.08
1780.43
1780.51
1780.34
1779.91
1779.26
1778.38
1777.31
1776.06
1770.15
1770.72
1771.09
1771.24
1771.19
1770.94
1770.51
1769.91
1769.16
1768.29
1760.97
1761.49
1761.86
1762.09
1762.18
1762.12
1761.95
1761.65
1761.27
1760.8
1755.12
1755.58
1755.93
1756.17
1756.32
1756.37
1756.34
1756.23
1756.06
1755.85
1751.53
1751.91
1752.22
1752.46
1752.62
1752.73
1752.77
1752.77
1752.74
1752.68
1749.58
1749.87
1750.13
1750.33
1750.49
1750.61
1750.69
1750.75
1750.79
1750.81
1748.9
1749.11
1749.29
1749.45
1749.58
1749.69
1749.78
1749.86
1749.93
1750
1749.2
1749.31
1749.42
1749.52
1749.61
1749.7
1749.79
1749.87
1749.96
1750.05
1750.21
1750.22
1750.26
1750.3
1750.36
1750.44
1750.52
1750.61
1750.72
1750.84
1751.69
1751.62
1751.6
1751.61
1751.65
1751.72
1751.81
1751.94
1752.1
1752.27
1753.43
1753.32
1753.26
1753.25
1753.3
1753.39
1753.52
1753.71
1753.96
1754.25
1755.28
1755.15
1755.09
1755.09
1755.16
1755.29
1755.49
1755.77
1756.13
1756.59
1757.12
1757
1756.96
1756.99
1757.09
1757.26
1757.5
1757.82
1758.23
1758.73
1758.87
1758.81
1758.81
1758.88
1759.02
1759.22
1759.5
1759.84
1760.26
1760.74
1760.55
1760.55
1760.61
1760.74
1760.93
1761.18
1761.49
1761.88
1762.32
1762.81
1762.13
1762.22
1762.36
1762.55
1762.8
1763.1
1763.47
1763.89
1764.36
1764.88
1763.65
1763.83
1764.05
1764.32
1764.63
1764.99
1765.39
1765.84
1766.33
1766.85
1765.16
1765.43
1765.74
1766.08
1766.46
1766.88
1767.35
1767.86
1768.41
1769.01
1766.69
1767.04
1767.42
1767.82
1768.27
1768.76
1769.29
1769.87
1770.5
1771.2
1768.27
1768.67
1769.1
1769.56
1770.05
1770.59
1771.16
1771.79
1772.47
1773.23
1769.88
1770.33
1770.79
1771.28
1771.8
1772.36
1772.96
1773.61
1774.3
1775.07
1771.55
1772.01
1772.48
1772.98
1773.51
1774.07
1774.66
1775.3
1775.99
1776.75
1773.26
1773.72
1774.19
1774.68
1775.18
1775.71
1776.27
1776.86
1777.48
1778.15
1775.04
1775.48
1775.93
1776.39
1776.85
1777.33
1777.81
1778.31
1778.83
1779.36
1776.89
1777.3
1777.72
1778.13
1778.55
1778.95
1779.35
1779.74
1780.12
1780.48
1778.81
1779.2
1779.58
1779.95
1780.31
1780.65
1780.97
1781.25
1781.5
1781.71
1780.83
1781.19
1781.53
1781.87
1782.18
1782.47
1782.73
1782.95
1783.12
1783.25
1782.95
1783.28
1783.59
1783.89
1784.17
1784.42
1784.64
1784.81
1784.94
1785.03
1785.18
1785.48
1785.76
1786.03
1786.28
1786.5
1786.69
1786.84
1786.95
1787.01
1787.49
1787.77
1788.03
1788.28
1788.51
1788.7
1788.87
1789
1789.09
1789.14
1789.89
1790.16
1790.4
1790.63
1790.83
1791.01
1791.15
1791.26
1791.32
1791.35
1792.38
1792.64
1792.87
1793.07
1793.25
1793.39
1793.5
1793.58
1793.61
1793.62
1794.98
1795.23
1795.43
1795.61
1795.75
1795.85
1795.92
1795.95
1795.94
1795.9
1797.7
1797.93
1798.1
1798.23
1798.33
1798.38
1798.39
1798.36
1798.28
1798.17
1800.55
1800.74
1800.87
1800.95
1800.98
1800.97
1800.9
1800.79
1800.63
1800.44
1803.54
1803.68
1803.74
1803.75
1803.71
1803.61
1803.45
1803.24
1802.98
1802.68
1806.68
1806.74
1806.72
1806.64
1806.5
1806.29
1806.02
1805.7
1805.32
1804.9
1809.99
1809.94
1809.8
1809.6
1809.34
1809.01
1808.62
1808.17
1807.66
1807.09
1813.47
1813.26
1812.97
1812.63
1812.22
1811.76
1811.23
1810.64
1809.98
1809.28
1817.1
1816.68
1816.21
1815.69
1815.12
1814.5
1813.82
1813.09
1812.3
1811.45
1820.79
1820.13
1819.43
1818.72
1817.97
1817.19
1816.37
1815.5
1814.58
1813.61
1824.39
1823.46
1822.54
1821.63
1820.71
1819.78
1818.83
1817.85
1816.83
1815.76
1827.65
1826.5
1825.38
1824.3
1823.25
1822.2
1821.15
1820.09
1819.02
1817.92
1830.49
1829.16
1827.88
1826.67
1825.49
1824.36
1823.26
1822.18
1821.13
1820.08
1832.83
1831.37
1829.96
1828.63
1827.37
1826.18
1825.06
1824.03
1823.08
1822.19
1834.74
1833.13
1831.59
1830.13
1828.76
1827.5
1826.38
1825.4
1824.56
1823.85
1836.27
1834.46
1832.72
1831.06
1829.52
1828.15
1826.96
1826
1825.31
1825.07
1837.48
1835.39
1833.34
1831.38
1829.57
1827.95
1826.64
1825.83
1825.91
1827.35
1838.47
1835.93
1833.38
1830.85
1828.4
1826.15
1824.35
1823.36
1823.28
1821.55
1839.51
1836.38
1833.12
1829.8
1826.55
1823.71
1821.34
1817.54
1799.34
1631.17
1840.95
1837.05
1832.88
1828.59
1824.47
1820.14
1811.13
1644.66
1265.12
790.952
1843.49
1838.9
1834.03
1829.02
1822.91
1799.71
1466.35
868.208
771.201
771.162
1847.64
1842.51
1836.7
1827.99
1712.73
1202.75
770.655
769.907
769.971
770.198
1854.6
1848.9
1838.87
1613.3
1002.18
768.794
768.706
769.167
769.72
769.861
1865.24
1844.18
1603.05
917.723
777.989
777.404
799.813
795.197
770.439
768.827
1874.91
1645.62
951.824
777.63
776.461
780.223
801.219
801.978
768.132
766.273
1887.48
1395.63
782.561
776.207
776.202
778.928
799.755
788.86
762.664
762.667
1910.46
1342.16
781.204
776.529
775.754
777.155
798.534
772.735
759.479
765.003
1935
1711.23
1000.42
778.469
775.003
775.624
789.084
766.611
756.715
997.225
1937.8
1941.65
1667.34
1008.61
783.874
772.575
768.962
767.441
753.596
1185.15
1932.94
1938.55
1942.19
1794.98
1276.32
843.574
761.787
755.843
755.675
1012.28
1927.83
1931.33
1934.53
1937.36
1939.48
1560.18
1026.03
768.024
751.049
765.042
1924.08
1926.5
1928.26
1929
1928.56
1928.45
1838.57
1317.47
842.467
772.599
1922.25
1924.68
1926.41
1927.17
1926.59
1923.97
1919.28
1916.33
1607.23
1059.96
1922.03
1925.21
1927.83
1929.77
1930.89
1930.9
1929.08
1925.66
1926.93
1848.88
1922.57
1926.78
1930.52
1933.67
1936.21
1938.09
1939.13
1938.94
1937.65
1938.8
1923.17
1928.58
1933.56
1938.01
1941.9
1945.25
1948.05
1950.27
1951.57
1951.47
1923.17
1929.87
1936.11
1941.84
1947.03
1951.69
1955.88
1959.67
1963.05
1965.77
1921.93
1929.9
1937.33
1944.16
1950.38
1956.01
1961.03
1965.53
1969.49
1972.92
1918.93
1928.17
1936.71
1944.49
1951.53
1957.82
1963.39
1968.22
1972.3
1975.89
1913.82
1924.24
1933.77
1942.32
1949.91
1956.54
1962.2
1966.8
1970.35
1973.51
1906.21
1917.79
1928.19
1937.36
1945.31
1952.05
1957.52
1961.63
1964.63
1967.93
1896.05
1908.76
1919.92
1929.57
1937.71
1944.37
1949.49
1953.04
1955.82
1959.91
1884.17
1897.61
1909.34
1919.27
1927.45
1933.94
1938.73
1942.11
1945.77
1950.88
1872.18
1885.19
1896.99
1906.9
1914.9
1921.05
1925.46
1928.94
1933.71
1936.88
1860.99
1872.48
1883.58
1893.18
1900.85
1906.6
1910.77
1914.82
1920.5
1917.23
1849.51
1860.2
1869.94
1878.79
1885.89
1891.11
1895
1899.46
1904.6
1891.24
1837.39
1848.66
1857.12
1864.83
1870.98
1875.22
1878.08
1881.14
1882.46
1860.53
1826.82
1839.27
1846.67
1853.11
1858.25
1861.6
1863.6
1865.36
1863.96
1839.74
1819.25
1831
1838.17
1843.91
1848.36
1851.18
1852.73
1853.78
1851.24
1714.7
1817.28
1825.48
1832.42
1837.84
1841.78
1844.13
1845.16
1845.39
1842.62
1651
1791.25
1824.23
1830.23
1835.24
1838.72
1840.61
1841.1
1840.52
1837.7
1616.06
1710.54
1824.59
1829.91
1834.86
1838.27
1839.98
1840.04
1838.56
1835.09
1603.98
1682.31
1821.97
1829.4
1835.78
1840.06
1842.24
1842.36
1840.41
1836.6
1623.59
1677.62
1823.01
1832.69
1840.39
1845.44
1847.98
1848.18
1846.15
1842.41
1672.42
1713.98
1834.17
1842.56
1849.81
1854.67
1856.82
1856.44
1853.61
1848.7
1704.47
1739.98
1847.21
1855.36
1862.32
1867.11
1868.96
1868.09
1864.73
1859.51
1734.75
1766.14
1868.67
1873.17
1878.25
1882.43
1884.08
1883.44
1881.24
1879.13
1776.22
1781.45
1887.46
1890.29
1893.97
1897.33
1898.67
1898.15
1897.01
1897.37
1814.6
1813.03
1908.15
1908.05
1909.37
1910.91
1911.3
1910.29
1909.01
1908.6
1829.11
1856.15
1925.37
1922.49
1921.34
1920.78
1920.34
1919.57
1919.44
1920.77
1839.35
1880.23
1935.3
1930.78
1927.7
1925.14
1923.38
1921.98
1921.28
1921.32
1816.5
1884.67
1940.33
1934.45
1929.72
1925.59
1922.23
1919.4
1916.85
1913.19
1763.62
1851.45
1940.24
1934.1
1928.36
1923.82
1919.55
1915.49
1911.7
1905.14
1705.43
1803.25
1934.73
1929.91
1924.23
1920.97
1917.19
1912.93
1909.58
1901.68
1664.23
1738.76
1921.85
1922.73
1919.48
1918.42
1916.28
1913.15
1912.01
1904.37
1651.51
1680.75
1912.3
1918.06
1917.67
1918.17
1917.71
1916.58
1916.74
1910.61
1657.63
1673.3
1912.81
1918.99
1921.23
1921.99
1922.36
1922.35
1921.35
1917.25
1688.01
1758.11
1927.11
1928.13
1930.6
1930.04
1930.65
1932.04
1930.6
1931.29
1748.69
1841.72
1952.56
1941.72
1943.98
1941.02
1941.59
1944.57
1942.26
1953.32
1842.36
1774.57
1772.84
1771.02
1769.13
1767.22
1765.34
1763.53
1761.83
1760.27
1758.9
1757.73
1756.8
1756.07
1755.53
1755.16
1754.98
1754.98
1755.14
1755.44
1755.88
1756.43
1757.08
1757.8
1758.58
1759.4
1760.24
1761.09
1761.93
1762.74
1763.52
1764.23
1764.87
1765.42
1765.84
1766.14
1766.27
1766.15
1766.15
1766.14
1766.14
1767.25
1766.02
1764.72
1763.4
1762.1
1760.84
1759.66
1758.6
1757.66
1756.87
1756.24
1755.79
1755.57
1755.51
1755.62
1755.87
1756.26
1756.76
1757.36
1758.04
1758.79
1759.6
1760.44
1761.31
1762.18
1763.06
1763.91
1764.73
1765.51
1766.22
1766.85
1767.39
1767.82
1768.15
1768.39
1768.71
1769.37
1765.93
1765.62
1765.85
1760.23
1759.53
1758.81
1758.09
1757.42
1756.81
1756.29
1755.87
1755.57
1755.41
1755.38
1755.49
1755.74
1756.11
1756.58
1757.15
1757.81
1758.53
1759.3
1760.12
1760.97
1761.83
1762.71
1763.59
1764.45
1765.29
1766.1
1766.86
1767.56
1768.19
1768.74
1769.2
1769.59
1769.93
1770.28
1770.78
1771.63
1771.58
1765.31
1766.04
1755.55
1755.18
1754.82
1754.49
1754.21
1754.01
1753.89
1753.87
1753.97
1754.18
1754.5
1754.93
1755.47
1756.11
1756.83
1757.61
1758.45
1759.32
1760.23
1761.15
1762.08
1763
1763.92
1764.81
1765.67
1766.49
1767.27
1767.99
1768.65
1769.24
1769.76
1770.22
1770.64
1771.03
1771.48
1772.06
1772.91
1774.13
1770.18
1766.9
1752.56
1752.4
1752.25
1752.14
1752.1
1752.13
1752.24
1752.46
1752.78
1753.2
1753.74
1754.38
1755.11
1755.93
1756.81
1757.74
1758.71
1759.7
1760.7
1761.7
1762.69
1763.66
1764.6
1765.51
1766.38
1767.2
1767.96
1768.66
1769.31
1769.88
1770.4
1770.85
1771.28
1771.69
1772.15
1772.71
1773.46
1774.52
1775.85
1769.27
1750.8
1750.74
1750.71
1750.72
1750.78
1750.92
1751.14
1751.45
1751.86
1752.38
1753.02
1753.77
1754.62
1755.56
1756.56
1757.61
1758.69
1759.78
1760.87
1761.95
1763
1764.03
1765.01
1765.96
1766.85
1767.68
1768.45
1769.16
1769.81
1770.39
1770.92
1771.39
1771.83
1772.26
1772.72
1773.26
1773.95
1774.92
1776.21
1772.59
1750.03
1750.02
1750.04
1750.08
1750.17
1750.31
1750.51
1750.78
1751.15
1751.63
1752.26
1753.04
1753.95
1754.96
1756.06
1757.22
1758.41
1759.62
1760.81
1761.99
1763.13
1764.23
1765.29
1766.28
1767.22
1768.1
1768.91
1769.65
1770.33
1770.94
1771.49
1772
1772.47
1772.93
1773.42
1773.98
1774.68
1775.66
1776.98
1778.08
1750.11
1750.13
1750.15
1750.19
1750.24
1750.29
1750.34
1750.41
1750.54
1750.82
1751.31
1752.03
1752.95
1754.04
1755.25
1756.55
1757.89
1759.24
1760.58
1761.89
1763.15
1764.36
1765.51
1766.6
1767.61
1768.56
1769.43
1770.22
1770.95
1771.61
1772.21
1772.76
1773.27
1773.77
1774.28
1774.84
1775.53
1776.44
1777.62
1778.72
1750.94
1750.99
1751.04
1751.08
1751.06
1750.94
1750.7
1750.35
1749.97
1749.75
1749.91
1750.47
1751.4
1752.62
1754
1755.51
1757.07
1758.62
1760.17
1761.68
1763.12
1764.48
1765.76
1766.96
1768.08
1769.12
1770.07
1770.94
1771.74
1772.46
1773.12
1773.72
1774.27
1774.8
1775.32
1775.86
1776.47
1777.24
1778.19
1779.04
1752.45
1752.61
1752.75
1752.84
1752.83
1752.66
1752.31
1751.56
1749.97
1748.55
1747.94
1748.09
1748.91
1750.28
1751.28
1753.25
1755.78
1757.75
1759.64
1761.41
1763.07
1764.62
1766.07
1767.42
1768.67
1769.82
1770.87
1771.83
1772.71
1773.51
1774.23
1774.88
1775.47
1776.02
1776.53
1777.03
1777.54
1778.13
1778.8
1779.38
1754.6
1754.98
1755.42
1755.92
1756.63
1757.67
1758.33
1754.87
1747.16
1743.95
1741.71
1743.28
1733.15
1734.65
1745.08
1750.89
1754.15
1756.73
1759.05
1761.15
1763.08
1764.87
1766.51
1768.02
1769.4
1770.68
1771.84
1772.9
1773.86
1774.73
1775.52
1776.22
1776.84
1777.4
1777.9
1778.34
1778.74
1779.13
1779.51
1779.81
1757.17
1757.92
1758.94
1760.59
1763.46
1766.39
1757.17
1710.1
1645.83
1657.51
1655.68
1682.9
1705.64
1728.77
1743.36
1748.66
1752.53
1755.77
1758.57
1761.04
1763.27
1765.29
1767.12
1768.77
1770.22
1771.62
1772.96
1774.13
1775.17
1776.11
1776.95
1777.7
1778.36
1778.92
1779.39
1779.78
1780.07
1780.27
1780.38
1780.42
1759.34
1760.12
1761.35
1763.61
1765.68
1743.09
1619.11
1496.87
1496.74
1519.64
1634.54
1692.59
1716.03
1734.53
1742.01
1747.39
1751.8
1755.47
1758.61
1761.38
1763.85
1766.03
1768
1769.71
1771.26
1772.74
1774.25
1775.5
1776.61
1777.61
1778.5
1779.29
1779.96
1780.53
1780.98
1781.32
1781.51
1781.55
1781.41
1781.22
1761.28
1762.1
1763.64
1765.17
1756.12
1588.05
1468.25
1465.86
1465.9
1533.12
1701.45
1722.42
1731.61
1738.81
1744.52
1749.25
1753.25
1756.75
1759.79
1762.55
1764.98
1767.17
1769.19
1771
1772.53
1774.1
1775.68
1776.97
1778.13
1779.17
1780.1
1780.92
1781.61
1782.19
1782.63
1782.92
1783.04
1782.94
1782.62
1782.24
1763.4
1764.5
1766.35
1765.55
1678.76
1474.17
1453.7
1454.45
1458.13
1611.86
1730.94
1734.61
1740.14
1744.97
1749.15
1752.85
1756.16
1759.14
1761.88
1764.32
1766.54
1768.61
1770.31
1772.4
1774.13
1775.72
1777.19
1778.5
1779.69
1780.75
1781.7
1782.55
1783.26
1783.84
1784.28
1784.55
1784.62
1784.44
1784
1783.49
1765.54
1766.77
1768.48
1766.4
1620.03
1448.11
1444.38
1444.58
1453.39
1653.53
1742.81
1744.43
1748.02
1751.45
1754.56
1757.41
1759.98
1762.32
1764.51
1766.46
1768.26
1768.71
1770.93
1773.21
1775.61
1777.28
1778.7
1779.87
1781.18
1782.3
1783.29
1784.16
1784.88
1785.47
1785.91
1786.18
1786.25
1786.04
1785.55
1784.98
1767.49
1768.48
1769.55
1767.73
1604.77
1439.02
1437.27
1436.81
1436.83
1627.82
1752.96
1753.17
1755.78
1758.36
1760.69
1762.83
1764.62
1766.03
1767.41
1759.69
1756.56
1767.93
1773.05
1774.16
1775.89
1778.45
1780.04
1781.36
1782.59
1783.88
1784.86
1785.71
1786.44
1787.04
1787.5
1787.79
1787.89
1787.72
1787.26
1786.72
1769.71
1770.64
1771.63
1771.62
1680.4
1437.04
1429.64
1428.27
1426.03
1541.24
1754.85
1761.99
1763.67
1765.79
1767.84
1769.66
1769.96
1769.15
1765.47
1748.21
1750.91
1768.39
1775.65
1776.14
1777.55
1779.42
1781.77
1782.99
1784.27
1785.44
1786.38
1787.21
1787.94
1788.56
1789.04
1789.39
1789.56
1789.48
1789.13
1788.68
1772.04
1773.07
1774.25
1775.22
1739.05
1444.44
1420.08
1418.61
1416.78
1424.61
1686.77
1771.41
1771.54
1773.19
1774.91
1773.54
1688.48
1672.11
1725.64
1746.93
1758.33
1772.91
1778.21
1779.68
1779.88
1781.82
1783.73
1784.93
1786.01
1786.98
1787.86
1788.66
1789.38
1790.02
1790.55
1790.97
1791.25
1791.33
1791.17
1790.88
1774.14
1775.21
1776.31
1777.46
1770.3
1590.43
1410.43
1411.14
1409.61
1407.07
1483.7
1745.13
1780.67
1781.24
1782.65
1728.14
1628.96
1629.32
1652.95
1754.97
1776.29
1779.38
1781.29
1782.56
1783.6
1784.72
1785.77
1786.74
1787.64
1788.5
1789.31
1790.07
1790.78
1791.44
1792.03
1792.55
1792.97
1793.25
1793.34
1793.28
1775.99
1777.08
1778.16
1779.02
1780.64
1745.91
1449.73
1403.95
1402.19
1400.16
1398.22
1548.87
1781.94
1790.73
1785.2
1648.53
1624.19
1624.37
1622.32
1742.81
1783.13
1783.68
1784.61
1785.44
1786.22
1786.99
1787.76
1788.52
1789.27
1790
1790.73
1791.45
1792.15
1792.83
1793.5
1794.13
1794.72
1795.24
1795.64
1795.84
1777.66
1778.76
1779.96
1781.02
1781.99
1786.02
1682.06
1403.98
1395.7
1394.44
1393.12
1392.76
1639.73
1808.81
1766.39
1623.81
1621.75
1621.47
1619.94
1731.8
1787.95
1787.57
1787.94
1788.35
1788.76
1789.22
1789.73
1790.28
1790.87
1791.48
1792.13
1792.8
1793.49
1794.21
1794.95
1795.71
1796.49
1797.29
1798.03
1798.52
1778.95
1779.9
1780.98
1782.06
1782.78
1783.67
1790.84
1620.93
1391.46
1389.67
1388.71
1387.4
1458.6
1764.83
1763.96
1618.13
1616.83
1617.13
1615.89
1734.39
1792.09
1791.18
1791.1
1791.12
1791.2
1791.37
1791.64
1791.99
1792.42
1792.92
1793.49
1794.12
1794.81
1795.57
1796.39
1797.29
1798.27
1799.36
1800.45
1801.24
1779.97
1780.66
1781.41
1782.21
1782.85
1782.81
1783.07
1792.61
1585.43
1385.29
1381.58
1379.91
1453.11
1763.3
1749.11
1615.19
1614.57
1614.15
1612.61
1741.06
1795.97
1794.61
1794.08
1793.72
1793.48
1793.38
1793.43
1793.61
1793.9
1794.3
1794.79
1795.39
1796.09
1796.9
1797.82
1798.86
1800.04
1801.39
1802.83
1803.93
1780.86
1781.23
1781.55
1781.8
1781.92
1781.55
1780.03
1778.88
1788.48
1593.75
1368.27
1368.81
1603.34
1769.13
1741.37
1611.82
1610.9
1610.06
1608.66
1760.58
1799.34
1797.68
1796.72
1796.02
1795.5
1795.19
1795.05
1795.08
1795.26
1795.57
1796.02
1796.61
1797.33
1798.19
1799.2
1800.38
1801.76
1803.34
1805.11
1806.22
1781.88
1781.97
1781.9
1781.6
1780.99
1779.88
1777.74
1773.6
1767.68
1766.86
1557.73
1397.49
1492.76
1755.81
1748.93
1612.63
1603.74
1603.87
1645.05
1790.11
1801.55
1799.92
1798.72
1797.8
1797.12
1796.66
1796.41
1796.34
1796.45
1796.71
1797.14
1797.73
1798.48
1799.41
1800.53
1801.85
1803.42
1805.26
1807.28
1806.31
1783.33
1783.34
1783.21
1782.9
1782.38
1781.62
1780.55
1778.87
1775.83
1771.99
1773.47
1523.18
1479.29
1488.37
1551.84
1645.75
1646.14
1658.84
1763.55
1804.37
1803.04
1801.37
1800.07
1799.07
1798.3
1797.77
1797.47
1797.36
1797.43
1797.69
1798.12
1798.73
1799.53
1800.53
1801.75
1803.21
1804.97
1807.08
1808.95
1807.94
1785.07
1785.05
1784.93
1784.69
1784.31
1783.81
1783.23
1782.6
1781.78
1780.55
1780.55
1788.73
1521.08
1479.07
1478.29
1577.9
1787.54
1805.25
1809
1806.44
1804.13
1802.31
1800.92
1799.86
1799.07
1798.52
1798.2
1798.11
1798.19
1798.46
1798.92
1799.57
1800.43
1801.51
1802.83
1804.42
1806.33
1808.65
1809.49
1809.69
1787.04
1787.03
1786.94
1786.77
1786.52
1786.19
1785.83
1785.49
1785.2
1784.89
1784.45
1785.14
1791.86
1534.76
1466.73
1466.44
1725.33
1809.97
1807.29
1805.13
1803.4
1801.98
1800.84
1799.95
1799.3
1798.84
1798.6
1798.54
1798.69
1799.01
1799.52
1800.23
1801.15
1802.31
1803.74
1805.44
1807.49
1809.97
1809.22
1811.13
1789.16
1789.15
1789.09
1788.97
1788.8
1788.59
1788.35
1788.14
1787.97
1787.88
1787.73
1787.28
1787.43
1792.69
1551.85
1461.31
1495.76
1745.27
1804.38
1802.76
1801.81
1800.95
1800.18
1799.56
1799.11
1798.81
1798.68
1798.72
1798.94
1799.35
1799.92
1800.69
1801.69
1802.93
1804.44
1806.24
1808.41
1811.01
1810.05
1812.27
1791.37
1791.35
1791.29
1791.19
1791.05
1790.88
1790.71
1790.54
1790.41
1790.34
1790.33
1790.21
1789.73
1789.7
1794.44
1542.07
1490.95
1498.13
1743.89
1800.93
1800
1799.63
1799.26
1798.91
1798.65
1798.53
1798.52
1798.68
1798.98
1799.47
1800.12
1800.97
1802.03
1803.34
1804.92
1806.81
1809.06
1811.76
1811.7
1813.1
1793.6
1793.55
1793.46
1793.34
1793.19
1793.02
1792.85
1792.68
1792.53
1792.43
1792.39
1792.41
1792.33
1791.95
1792.24
1797.5
1529.49
1491.58
1505.51
1756.33
1798.42
1798.09
1798.14
1798.09
1798.03
1798.06
1798.19
1798.45
1798.85
1799.42
1800.14
1801.06
1802.18
1803.55
1805.18
1807.12
1809.43
1812.19
1814.28
1813.62
1795.82
1795.71
1795.57
1795.39
1795.19
1794.97
1794.75
1794.53
1794.33
1794.16
1794.05
1794.02
1794.06
1794.06
1793.88
1794.54
1789.58
1507.24
1491.29
1531.71
1777.47
1796.42
1796.77
1797.12
1797.3
1797.48
1797.75
1798.11
1798.6
1799.23
1800.02
1800.98
1802.16
1803.56
1805.23
1807.2
1809.53
1812.3
1815.29
1816.75
1798.02
1797.82
1797.59
1797.32
1797.03
1796.72
1796.4
1796.09
1795.79
1795.52
1795.3
1795.14
1795.09
1795.15
1795.2
1795.21
1796.5
1756.34
1481.85
1484.79
1598.63
1794.09
1795.46
1795.99
1796.47
1796.85
1797.23
1797.68
1798.25
1798.94
1799.77
1800.78
1801.99
1803.42
1805.11
1807.08
1809.41
1812.16
1815.2
1817.59
1800.18
1799.87
1799.51
1799.13
1798.71
1798.27
1797.83
1797.38
1796.93
1796.5
1796.09
1795.71
1795.36
1795.03
1794.66
1794.03
1793.06
1793.3
1658.84
1475.74
1475.13
1687.65
1797.46
1796.23
1796.33
1796.58
1796.89
1797.32
1797.9
1798.61
1799.48
1800.51
1801.73
1803.16
1804.83
1806.79
1809.09
1811.8
1814.8
1817.17
1802.3
1801.85
1801.35
1800.82
1800.25
1799.66
1799.06
1798.46
1797.86
1797.27
1796.7
1796.16
1795.65
1795.18
1794.73
1794.19
1793.31
1792.33
1794.13
1567.12
1471.61
1476.51
1748.37
1795.17
1795.24
1795.79
1796.28
1796.82
1797.48
1798.25
1799.15
1800.19
1801.41
1802.82
1804.46
1806.36
1808.6
1811.26
1814.17
1816.45
1804.38
1803.77
1803.11
1802.41
1801.67
1800.91
1800.13
1799.35
1798.58
1797.83
1797.12
1796.45
1795.85
1795.33
1794.91
1794.61
1794.35
1794.06
1794.72
1785.29
1479.29
1473.39
1607.06
1791.69
1793.22
1794.39
1795.4
1796.23
1797.04
1797.89
1798.84
1799.9
1801.1
1802.46
1804.04
1805.86
1807.99
1810.54
1812.61
1815.39
1806.42
1805.64
1804.8
1803.91
1802.98
1802.03
1801.05
1800.08
1799.11
1798.18
1797.3
1796.48
1795.74
1795.09
1794.54
1794.12
1793.78
1793.38
1792.98
1794.25
1599.99
1463.5
1461.67
1735.56
1794.25
1794.7
1795.53
1796.27
1797.01
1797.82
1798.73
1799.75
1800.88
1802.17
1803.65
1805.35
1807.33
1809.65
1811.15
1814.24
1808.44
1807.47
1806.45
1805.36
1804.23
1803.05
1801.86
1800.66
1799.49
1798.35
1797.29
1796.32
1795.46
1794.73
1794.14
1793.73
1793.5
1793.38
1793.29
1794.04
1776.74
1467.07
1459.8
1618.45
1792.62
1793.83
1795.09
1796.12
1796.99
1797.86
1798.76
1799.74
1800.81
1802
1803.35
1804.89
1806.68
1808.62
1810.01
1812.98
1810.45
1809.3
1808.08
1806.79
1805.44
1804.04
1802.59
1801.14
1799.7
1798.33
1797.06
1795.91
1794.9
1794.05
1793.37
1792.85
1792.52
1792.31
1792.1
1792.12
1794.26
1544.87
1450.97
1526.23
1778.4
1795.47
1796.09
1796.86
1797.57
1798.31
1799.13
1800.02
1800.98
1802.05
1803.24
1804.58
1806.13
1807.75
1808.98
1811.59
1812.47
1811.16
1809.76
1808.27
1806.7
1805.05
1803.31
1801.54
1799.78
1798.12
1796.6
1795.26
1794.11
1793.15
1792.38
1791.79
1791.34
1790.98
1790.53
1789.9
1790.08
1629.73
1443.66
1470.11
1748.53
1797.25
1797.15
1797.69
1798.31
1798.99
1799.75
1800.57
1801.44
1802.39
1803.41
1804.53
1805.8
1807.11
1808.79
1798.25
1814.52
1813.09
1811.55
1809.91
1808.14
1806.22
1804.14
1801.93
1799.72
1797.68
1795.87
1794.33
1793.07
1792.07
1791.31
1790.78
1790.42
1790.17
1789.84
1789.3
1789.12
1682.87
1438.82
1440.95
1717.1
1797.78
1797.67
1798.32
1799.06
1799.82
1800.62
1801.44
1802.26
1803.09
1803.96
1804.87
1805.87
1807.03
1808.38
1786.95
1816.64
1815.17
1813.59
1811.86
1809.96
1807.81
1805.32
1802.43
1799.48
1796.86
1794.7
1793
1791.71
1790.79
1790.23
1790
1790.09
1790.5
1791.19
1792.19
1794.37
1735.75
1434.8
1429.58
1682.9
1794.18
1796.31
1798.11
1799.54
1800.72
1801.75
1802.66
1803.49
1804.24
1804.94
1805.62
1806.32
1807.11
1807.98
1785.46
1818.88
1817.5
1816.01
1814.36
1812.59
1810.66
1807.95
1803.57
1798.78
1795.17
1792.75
1790.96
1789.71
1788.94
1788.61
1788.69
1789.14
1789.91
1791.01
1792.5
1795.19
1724.25
1418.14
1421.37
1696.44
1795.22
1797.89
1799.84
1801.38
1802.63
1803.69
1804.58
1805.33
1805.95
1806.45
1806.85
1807.16
1807.44
1807.76
1795.55
1821.2
1820.08
1818.91
1817.77
1817.06
1816.97
1813.94
1801.16
1791.83
1790.5
1789.22
1787.7
1786.81
1786.42
1786.47
1786.93
1787.55
1788.28
1789.15
1790.11
1791.46
1670.62
1410.74
1410.22
1761.67
1802.15
1802.69
1803.69
1804.68
1805.62
1806.49
1807.24
1807.85
1808.29
1808.55
1808.62
1808.5
1808.18
1807.71
1791.35
1823.15
1822.52
1822.12
1821.92
1822.34
1823.55
1655.56
1641.61
1763.27
1783.77
1782.98
1782.94
1783.09
1783.6
1784.34
1774.59
1781.45
1786.77
1789.38
1791.25
1779.73
1455.23
1402.15
1477.53
1804.26
1804.59
1805.71
1806.87
1807.93
1808.9
1809.75
1810.45
1810.97
1811.28
1811.36
1811.18
1810.72
1809.96
1808.03
1752.63
1825.55
1827.06
1828.78
1828.11
1823.66
1701.69
1155.29
1436.25
1778.11
1774.51
1775.64
1777.14
1778.06
1779.19
1781.57
1725.04
1763.67
1787.05
1788.82
1790.94
1704.93
1404.77
1403.31
1772.74
1807.33
1808.27
1809.52
1810.69
1811.77
1812.75
1813.59
1814.25
1814.7
1814.9
1814.82
1814.43
1813.68
1812.51
1809.77
1745.87
1830.19
1832.31
1818.44
1716.22
1599.08
1106.63
1045.82
1532.88
1759.02
1752.6
1657.11
1693.29
1641.58
1531.81
1579.28
1745.02
1781.57
1787.61
1791.7
1772.19
1441.32
1402.46
1557.48
1807.57
1809.49
1811.45
1813.14
1814.6
1815.87
1816.96
1817.85
1818.52
1818.93
1819.05
1818.83
1818.24
1817.22
1815.64
1810.63
1745.81
1805.62
1654.12
1356.94
906.227
792.468
802.378
966.17
1215.26
1305.72
1289.01
1169.65
1182.58
1195.72
1427.24
1665.94
1777.26
1783.29
1789.28
1772.75
1486.24
1439.17
1454.56
1809.61
1811.34
1813.61
1815.67
1817.46
1819.04
1820.41
1821.57
1822.5
1823.16
1823.55
1823.6
1823.29
1822.55
1821.27
1812.96
1764.92
1746.3
1285.72
809.865
777.281
780.125
780.912
781.759
798.111
892.492
968.732
992.35
1081.69
1280.69
1456.72
1671.36
1776.33
1782.14
1788.39
1756.1
1487.38
1453.27
1456.16
1772.65
1813.12
1815.56
1817.91
1820.03
1821.92
1823.61
1825.08
1826.31
1827.27
1827.95
1828.32
1828.33
1827.93
1827.07
1825.57
1792.44
1750.37
1747.75
773.051
773.328
773.662
774.382
775.661
792.199
959.463
1184.11
1352.05
1412.46
1587.12
1744.55
1780.12
1785.62
1786.93
1790.43
1748.93
1489.95
1472.84
1476.45
1770.18
1814.55
1817.17
1819.77
1822.16
1824.35
1826.34
1828.11
1829.64
1830.91
1831.91
1832.6
1832.95
1832.9
1832.41
1831.41
1829.52
1799.15
1752.97
1749.72
771.173
771.517
772.024
772.505
799.064
1051.66
1289.19
1311
1292.09
1448.4
1745.69
1802.95
1798.04
1794.37
1792.6
1775.38
1529.59
1488.19
1491.06
1779.52
1815.6
1818.42
1821.17
1823.78
1826.2
1828.45
1830.48
1832.3
1833.85
1835.15
1836.16
1836.86
1837.18
1837.07
1836.48
1835.3
1832.63
1822.07
1812.7
1803.73
770.531
770.828
771.088
771.669
848.643
1319.76
1447.85
1190.96
982.373
1014.42
1331.14
1645.41
1791.03
1793.03
1771.32
1680.86
1576.15
1579.25
1755.57
1814.65
1818.19
1821.45
1824.45
1827.21
1829.73
1832.03
1834.1
1835.92
1837.5
1838.81
1839.83
1840.54
1840.86
1840.75
1840.11
1838.78
1836.48
1833.79
1829.72
1825.93
770.012
770.234
770.676
772.52
881.061
1486.48
1472.79
1035.31
761.404
739.912
772.176
913.862
1123.22
1320.45
1594.21
1773.95
1790.7
1796.84
1811.44
1816.4
1820.61
1824.25
1827.44
1830.28
1832.81
1835.09
1837.11
1838.88
1840.42
1841.72
1842.75
1843.47
1843.84
1843.77
1843.16
1841.94
1839.97
1836.8
1832.56
1828.64
768.91
769.123
770.235
851.178
1448.09
1518.33
1344.84
813.114
725.398
724.01
723.085
722.215
722.867
773.75
1328.58
1785.78
1798.03
1807.64
1814.54
1819.8
1824.09
1827.69
1830.76
1833.41
1835.75
1837.82
1839.65
1841.27
1842.69
1843.9
1844.89
1845.64
1846.09
1846.15
1845.71
1844.7
1842.81
1839.69
1835.43
1831.5
766.772
767.71
1108.82
1681.11
1700.67
1431.15
833.558
724.007
721.434
720.55
720.017
719.734
719.694
722.079
946.558
1696.83
1808.43
1815.87
1821.53
1825.73
1829.22
1832.23
1834.77
1836.95
1838.86
1840.56
1842.05
1843.37
1844.53
1845.54
1846.4
1847.12
1847.66
1847.95
1847.85
1847.16
1845.55
1842.67
1838.57
1834.78
811.426
1406.44
1836.96
1838.18
1579.11
1039.51
857.293
751.464
720.329
719.516
719.118
718.879
718.696
718.558
729.741
1090.61
1691.6
1829.78
1831.45
1832.97
1834.96
1836.95
1838.66
1840.18
1841.6
1842.88
1843.99
1844.93
1845.74
1846.43
1847.07
1847.69
1848.36
1849.04
1849.54
1849.47
1848.42
1846.01
1842.3
1838.86
1411.08
1875.82
1875.57
1648.44
1395.55
1524.09
1642.69
1121.07
719.045
718.384
718.099
717.778
717.496
717.219
717.009
724.545
933.088
1286.06
1516
1668.16
1788.39
1844.17
1843.48
1843.43
1843.99
1844.66
1845.17
1845.5
1845.69
1845.78
1845.88
1846.13
1846.75
1848.16
1850.12
1851.42
1851.4
1849.85
1846.95
1844.24
1822.87
1891.97
1804.53
1596.37
1663.89
1876.01
1879.16
1710.69
946.489
717.737
717.136
716.734
716.375
716.011
715.644
715.581
715.945
728.05
777.942
868.774
1027.73
1213.16
1368.5
1471.87
1549.58
1604.43
1641.9
1667.76
1683.32
1690.51
1693.26
1698.67
1720.06
1745.01
1844.64
1852.63
1854.27
1854.12
1852.81
1851.61
1894.04
1908.7
1747.92
1611.19
1816.52
1893.35
1883.61
1872.15
1625.64
913.599
716.073
715.636
715.28
714.925
714.492
714.071
713.842
713.563
712.889
711.951
711.752
714.21
727.96
749.419
776.423
803.267
827.122
846.686
859.831
866.304
868.727
872.546
896.386
921.854
1260.19
1785.8
1857.93
1859.15
1860.35
1861.71
1856.5
1929.63
1784.27
1642.64
1864.4
1907.97
1897.04
1884.38
1873.6
1629.31
956.311
714.586
714.339
714.088
713.628
713.157
712.666
712.19
711.762
711.426
711.233
711.098
710.781
710.152
709.461
708.905
708.492
708.16
707.866
707.591
707.315
706.983
706.524
706.052
704.522
1373.75
1864.69
1865.97
1870.32
1874.54
1502.76
1954.21
1898.79
1844
1903.03
1922.91
1911.78
1900.28
1888.15
1879.63
1673.56
1033.9
714.173
713.173
712.847
712.555
712.164
711.793
711.419
711.049
710.696
710.347
709.965
709.553
709.15
708.778
708.441
708.135
707.865
707.633
707.433
707.258
707.07
706.924
706.932
1303.48
1870.82
1874.8
1882.05
1888.53
955.347
1757.01
1973.31
1956.22
1942.85
1933.34
1923.16
1913.18
1903.59
1894.22
1888.74
1729.88
1154.05
775.708
712.888
711.817
711.562
711.434
711.183
710.844
710.492
710.16
709.845
709.528
709.189
708.837
708.498
708.192
707.93
707.727
707.582
707.441
707.093
705.693
927.786
1668.61
1878.58
1885.25
1893.49
1900.49
952.604
1005.55
1751.52
1965.4
1949.03
1937.67
1928.28
1920.01
1912.97
1907.13
1902.55
1901.78
1817.79
1415.39
995.256
776.236
712.36
711.967
711.271
710.634
710.202
709.969
709.84
709.71
709.456
709.029
708.531
708.014
707.554
707.163
706.742
712.287
821.842
1153.47
1714.61
1885.99
1890.45
1895.87
1902.81
1909.04
1216.17
1010.53