/*--------------------------------*- C++ -*----------------------------------*\
  =========                 |
  \\      /  F ield         | OpenFOAM: The Open Source CFD Toolbox
   \\    /   O peration     | Website:  https://openfoam.org
    \\  /    A nd           | Version:  8
     \\/     M anipulation  |
\*---------------------------------------------------------------------------*/
FoamFile
{
    version     2.0;
    format      ascii;
    class       volScalarField;
    location    "3.8";
    object      alpha.water;
}
// * * * * * * * * * * * * * * * * * * * * * * * * * * * * * * * * * * * * * //

dimensions      [0 0 0 0 0 0 0];

internalField   nonuniform List<scalar> 
9150
(
1
1
1
1
1
1
1
1
1
1
1
1
1
1
1
1
1
1
1
1
1
1
1
1
1
1
1
1
1
1
1
1
1
1
1
1
1
1
1
1
1
1
1
1
1
1
1
1
1
1
1
1
1
1
1
1
1
1
1
1
1
1
1
1
1
1
1
1
1
1
1
1
1
1
1
1
1
1
1
1
1
1
1
1
1
1
1
1
1
1
1
1
1
1
1
1
1
1
1
1
1
1
1
1
1
1
1
1
1
1
1
1
1
1
1
1
1
1
1
1
1
1
1
1
1
1
1
1
1
1
1
1
1
1
1
1
1
1
1
1
1
1
1
1
1
1
1
1
1
1
1
0.999997
1
1
1
1
1
1
1
0.999999
1
1
1
1
1
1
1
1
1
1
1
1
1
1
1
0.999999
0.999995
0.999997
1
1
0.999999
0.999999
1
1
1
0.999997
0.999995
0.999997
1
0.999963
0.999996
0.999996
0.999999
1
1
1
1
0.999804
0.999765
0.999765
0.999996
0.999994
0.999996
1
1
1
0.999851
0.999766
0.999766
0.999915
0.999982
0.999961
0.999977
1
1
1
0.999947
0.999893
0.999961
0.999999
0.999108
0.999818
1
1
1
1
0.999999
0.999996
0.999996
0.999999
0.999305
0.999997
1
1
1
1
0.999998
0.999996
0.999999
1
0.999894
0.999998
0.999999
1
1
0.999999
0.999999
0.999999
0.999999
0.999729
0.999975
0.999971
0.999984
1
1
1
1
1
0.999894
0.999198
0.999875
0.999878
0.999956
0.999999
0.999965
0.999973
0.999996
1
1
0.999384
0.999142
0.999154
0.999864
0.999998
0.999997
0.99867
0.999999
1
1
0.999971
0.999142
0.999142
0.999656
1
1
1
0.905091
0.884492
0.987701
0.999995
0.999396
0.999973
1
1
1
0.883946
0.748962
0.748948
0.846169
0.99469
1
1
1
1
0.854216
0.748915
0.74894
0.748924
0.748948
0.93408
1
0.999998
1
0.980074
0.776609
0.748933
0.748924
0.748918
0.796436
0.983494
1
0.999999
0.999999
0.99593
0.872834
0.748916
0.756657
0.898792
0.984858
0.999934
1
1
0.999999
0.998979
0.980609
0.962437
0.978428
0.999957
0.999999
0.999998
1
1
0.999982
0.999954
0.999974
0.999999
0.999999
1
0.999999
0.999998
1
0.999999
0.999997
0.999998
0.999999
0.999999
1
1
1
1
1
1
1
0.999999
0.998399
0.996158
0.996177
0.998453
0.999774
0.996622
0.999815
0.997158
0.995733
0.997971
0.998669
0.998602
0.998184
0.908983
0.774477
0.774477
0.996307
0.994454
0.996229
0.996702
0.885495
0.775998
0.775556
0.775024
0.774479
0.812805
0.996413
0.996001
0.902834
0.780379
0.778697
0.776683
0.910283
0.996734
0.996254
0.996279
0.896117
0.90448
0.978915
0.844937
0.780252
0.857126
0.996755
0.996755
0.996755
0.996521
0.948002
0.991733
0.9906
0.930439
0.860555
0.987551
0.996492
0.99611
0.94441
0.897648
0.992279
0.99199
0.99176
0.976269
0.964057
0.970094
0.921357
0.800245
0.804278
0.930345
0.992572
0.992268
0.991992
0.991264
0.903224
0.79338
0.795039
0.795989
0.84836
0.999777
0.993171
0.992573
0.99123
0.896223
0.794552
0.794005
0.794579
0.801474
0.970683
0.999678
0.99073
0.984244
0.982698
0.879827
0.795093
0.794583
0.79533
0.876519
0.999808
0.999676
0.979397
0.979397
0.99318
0.98391
0.851902
0.79533
0.799983
0.970038
0.999906
0.999796
0.979389
0.984112
0.999676
0.999413
0.967893
0.903182
0.941829
0.999913
0.99994
0.999928
0.982299
0.999715
0.999726
0.999517
0.998865
0.999552
0.999883
0.99993
0.999946
0.999936
0.998669
0.999732
0.999729
0.999736
0.999762
0.999875
0.999942
0.999945
0.999947
0.999946
0.999737
0.999733
0.999732
0.999671
0.999608
0.999855
0.99989
0.999587
0.998008
0.998058
0.999726
0.999692
0.998733
0.998682
0.999187
0.999841
0.999854
0.999011
0.997992
0.997987
0.999709
0.998769
0.99867
0.998673
0.998692
0.999719
0.999826
0.999795
0.999468
0.999246
0.999445
0.998845
0.99867
0.99867
0.998673
0.999634
0.999814
0.99981
0.999769
0.999363
0.999859
0.99959
0.99867
0.99867
0.998705
0.999773
0.99981
0.999777
0.999501
0.997055
0.999864
0.999859
0.99901
0.998675
0.999028
0.999733
0.999777
0.999575
0.997673
0.747665
0.999865
0.999864
0.999783
0.999411
0.999598
0.999704
0.9996
0.998074
0.797149
0.208719
0.999865
0.999865
0.999864
0.999858
0.999832
0.999694
0.998476
0.839023
0.224429
0.149432
0.999865
0.999865
0.999864
0.999851
0.999715
0.998485
0.778724
0.219525
0.137225
0.142622
0.999865
0.999864
0.999851
0.999711
0.991975
0.504259
0.16223
0.128535
0.133166
0.136938
0.999864
0.999842
0.999604
0.955575
0.408896
0.12592
0.127006
0.126575
0.128342
0.160394
0.999832
0.999509
0.982134
0.490713
0.126451
0.126025
0.126315
0.126855
0.125205
0.416694
0.999569
0.997773
0.721266
0.126562
0.125689
0.126155
0.125852
0.126182
0.185698
0.850822
0.999171
0.987229
0.494023
0.143949
0.18894
0.156713
0.126247
0.127579
0.572177
0.999959
0.99822
0.799854
0.505552
0.688852
0.877067
0.566763
0.279048
0.484102
0.947159
0.999994
0.961962
0.603902
0.526301
0.97299
0.998467
0.974157
0.921322
0.945787
0.979715
0.995738
0.909472
0.477121
0.537341
0.998456
0.999824
0.999665
0.99923
0.997859
0.995514
0.99448
0.876919
0.427101
0.515693
0.996796
0.999981
0.999965
0.999916
0.999778
0.99927
0.995191
0.854507
0.396536
0.487592
0.972912
0.999998
0.999995
0.999969
0.99991
0.998454
0.985705
0.833448
0.36639
0.460812
0.932863
1
0.999999
0.999993
0.999909
0.990407
0.982929
0.788227
0.24231
0.460435
0.932781
1
1
0.999996
0.999775
0.988644
0.982947
0.718955
0.234715
0.42686
0.941754
1
1
0.999994
0.999838
0.994919
0.987303
0.579541
0.229765
0.42104
0.97005
1
1
0.999996
0.999929
0.999821
0.999361
0.275079
0.225357
0.410259
0.970574
1
1
0.999999
0.999999
0.999999
0.999999
0.221014
0.222213
0.380699
0.947999
1
1
1
1
1
1
0.220265
0.220774
0.304863
0.874969
1
0.999998
0.999995
0.999998
1
1
0.220369
0.220474
0.242821
0.849805
1
0.999982
0.999992
1
1
1
0.220395
0.220395
0.328057
0.90555
0.999987
0.999992
1
1
0.999981
0.878255
0.220424
0.257109
0.739155
0.988825
0.999983
0.999991
0.999999
0.818438
0.777505
0.777193
0.258562
0.728451
0.993103
0.996879
0.980428
0.823992
0.795792
0.791436
0.789211
0.945505
0.750989
0.934659
0.951287
0.872771
0.802982
0.803242
0.877071
0.996058
0.997573
0.99703
0.89643
0.904119
0.821044
0.821044
0.879839
0.994873
0.998023
0.998023
0.998029
0.997579
0.903046
0.845749
0.845598
0.949443
0.997725
0.997914
0.997969
0.998028
0.997592
0.942169
0.923552
0.924576
0.942292
0.9178
0.948443
0.997436
0.997921
0.997476
0.871162
0.467864
0.978365
0.917819
0.579566
0.581613
0.88955
0.995749
0.996867
0.844576
0.379591
0.384849
0.598564
0.398912
0.40473
0.614951
0.956215
0.988775
0.722363
0.368396
0.373425
0.378454
0.313847
0.381028
0.899943
0.98811
0.983542
0.643027
0.36101
0.364703
0.368396
0.452967
0.422774
0.973339
0.99189
0.991011
0.785438
0.354639
0.357825
0.36101
0.473737
0.907653
0.928147
0.994478
0.993184
0.965748
0.396415
0.348887
0.354639
0.475279
0.919743
0.997144
0.995533
0.994745
0.994478
0.491529
0.332091
0.339593
0.456293
0.917445
0.99737
0.99953
0.996047
0.995533
0.792472
0.301135
0.31241
0.414854
0.905813
0.997493
0.999592
0.999937
0.997187
0.97505
0.333723
0.274406
0.349238
0.893324
0.997427
0.999607
0.999937
0.999989
0.998907
0.471698
0.229704
0.26202
0.856057
0.997351
0.999591
0.999932
0.999991
0.999998
0.833877
0.192932
0.196134
0.712247
0.996554
0.99953
0.999927
0.99999
0.999998
1
0.273371
0.133364
0.377977
0.96009
0.999288
0.999902
0.99999
0.999999
1
1
0.102463
0.109081
0.845299
0.998704
0.999848
0.999988
0.999998
1
1
1
0.100459
0.327317
0.954968
0.999548
0.999969
0.999996
1
1
1
1
0.0884902
0.691569
0.998772
0.999893
0.999992
1
1
1
1
1
0.0815284
0.867253
0.999513
0.999964
0.999998
1
1
1
1
1
0.3147
0.970093
0.999892
0.999994
1
1
1
1
1
1
0.47394
0.991871
0.999976
0.999999
1
1
1
1
1
1
0.494961
0.989993
0.999973
1
1
1
1
1
1
1
0.463943
0.988979
0.999969
0.999999
1
1
1
1
1
1
0.446283
0.989747
0.99998
0.999999
1
1
1
1
1
1
0.483497
0.995677
0.999987
1
1
1
1
1
1
1
0.620117
0.999514
0.999993
1
1
1
1
1
1
1
0.738129
0.999872
0.999997
1
1
1
1
1
1
1.00001
0.81384
0.999949
0.999999
1
1
1
1
1
1
0.969676
0.865099
0.999982
1
1
1
1
1
1
1
0.925583
0.878642
0.999987
1
1
1
1
1
1
1
0.896239
0.882385
0.999992
1
1
1
1
1
1
1
0.876442
0.906884
0.999998
1
1
1
1
1
1
1
0.870298
0.922869
1
1
1
1
1
1
1
1
0.886606
0.937095
1
1
1
1
1
1
1
1
0.917131
0.952466
1
1
1
1
1
1
1
1
0.956199
0.999999
0.999999
1
1
1
1
0.999999
0.999995
0.999995
0.999997
0.999999
1
1
1
0.999324
0.999218
0.999551
0.999998
1
1
1
1
0.999998
0.999998
0.999998
0.999999
0.999999
0.999998
0.999996
0.999998
1
1
1
1
1
0.999999
0.999999
1
1
0.999895
1
1
0.999993
0.999978
0.999988
1
0.999998
0.999995
0.999996
0.999998
1
1
1
0.999662
0.999218
0.999218
0.999218
0.999866
1
1
0.999999
0.999999
1
1
0.999999
0.999999
0.999999
0.999971
0.999971
0.999998
0.9997
0.996736
0.999905
1
1
1
1
1
0.999979
0.999841
1
0.999863
0.999766
0.999952
0.999998
0.999999
0.999995
0.999995
0.999995
0.999999
1
1
0.999574
0.999349
0.999408
0.999906
0.99999
0.999947
0.999921
0.999921
0.999987
1
1
1
1
0.999998
0.999998
0.999999
1
0.997097
0.979884
0.977804
0.977804
0.991551
1
1
1
1
1
1
0.999769
0.999766
0.999766
0.99988
0.999999
0.999999
0.999996
0.999995
0.999998
1
1
0.999945
0.999509
0.999479
0.999923
0.999997
0.999997
0.999997
0.999992
0.999993
0.999996
0.98165
0.982484
0.999155
1
0.999998
0.999998
1
1
0.986731
0.977804
0.977804
0.977804
0.977804
0.981962
0.986405
0.994295
0.998841
0.996962
0.997808
0.999765
0.999839
0.99998
0.999995
0.999999
0.999998
0.999998
1
1
1
1
0.999965
0.999842
0.999928
0.999997
0.999979
0.999909
0.999959
0.999998
0.999998
0.98051
0.951308
0.951217
0.959431
0.996648
0.99997
1
1
1
0.997393
0.987899
0.985981
0.993773
0.989996
0.981372
0.981372
0.981372
0.981394
0.981407
0.981427
0.999994
0.999999
1
0.999999
0.999999
1
1
0.999364
1
1
1
1
0.999998
0.999997
0.999997
0.999888
0.999771
0.999846
0.999996
0.999998
0.983202
0.951217
0.951214
0.951212
0.958684
0.995952
0.999821
0.999702
0.999741
0.99974
0.999736
0.9997
0.999651
0.999635
0.990132
0.985819
0.986448
0.983946
0.981413
0.983099
1
1
1
1
1
1
1
1
0.916698
0.917538
0.990756
1
0.999997
0.999997
0.999985
0.999775
0.999771
0.99983
0.999995
0.999998
0.999998
0.977256
0.951212
0.951212
0.951212
0.983716
0.999651
0.999739
0.99974
0.99675
0.985527
0.991577
0.998186
0.999621
0.998213
0.993809
0.99685
0.996857
0.996845
0.998299
1
1
0.999984
0.999974
0.999996
1
1
0.922286
0.89504
0.894883
0.903064
0.984445
0.999993
0.999997
0.999914
0.999776
0.999842
0.999983
0.999998
0.999998
0.999998
0.999998
0.980512
0.951212
0.955526
0.99499
0.999808
0.990892
0.968025
0.96698
0.96698
0.967776
0.987744
0.972256
0.968486
0.968268
0.971344
0.986545
0.999152
0.999153
1
0.999999
0.999974
0.99997
0.999984
1
1
0.91026
0.894883
0.894883
0.894883
0.924073
0.997534
0.999954
0.999962
0.999965
0.999991
0.999996
0.999994
0.999982
0.99999
0.999997
0.999696
0.986404
0.990803
0.999478
0.999811
0.991301
0.969178
0.975971
0.981479
0.991701
0.99755
0.993561
0.989172
0.968109
0.967853
0.967853
0.996911
0.999155
0.999193
0.999628
0.99998
0.999989
0.999999
1
1
0.973847
0.894895
0.894883
0.894895
0.939667
0.999586
0.999984
0.999999
0.999997
0.999958
0.999996
0.999996
0.999945
0.99995
0.999996
0.999723
0.999468
0.999783
0.999811
0.99981
0.99981
0.997753
0.999231
0.999739
0.999823
0.999818
0.999842
0.999843
0.997697
0.98609
0.992571
0.999155
0.999154
0.999193
0.999503
0.999994
0.999999
0.999999
0.999992
1
1
0.966832
0.91097
0.953707
0.999654
0.999998
0.999999
0.999999
0.999999
0.999999
0.999422
0.997018
0.998771
0.999981
0.999993
0.999985
0.999992
0.999989
0.974353
0.935047
0.982926
0.99982
0.999823
0.999823
0.999823
0.999616
0.999843
0.999843
0.999843
0.997155
0.988218
0.967454
0.990719
0.999438
0.999939
0.999999
1
1
1
0.999969
0.999927
0.999948
0.998508
0.998119
0.945716
0.971733
0.999998
0.999999
0.999999
0.999999
0.998951
0.994271
0.998716
0.999992
0.999993
0.999992
0.999992
0.957269
0.83445
0.824572
0.828143
0.905061
0.989788
0.999823
0.999823
0.999598
0.999598
0.999841
0.999843
0.984299
0.877639
0.835505
0.843824
0.999983
0.999995
0.99999
1
1
1
0.999992
0.999997
0.999997
0.975566
0.84913
0.781924
0.781916
0.877754
0.993902
0.999999
0.999999
0.999382
0.994271
0.997942
0.999992
0.999992
0.999992
0.999992
0.866962
0.824576
0.824539
0.824515
0.824535
0.863683
0.980908
0.999808
0.999818
0.999607
0.999657
0.999843
0.958928
0.835505
0.83548
0.835481
0.999996
0.999996
0.999996
0.99848
0.999219
0.999998
0.999998
0.999998
0.91879
0.785947
0.781878
0.781882
0.781889
0.781916
0.913087
0.999976
0.999997
0.999983
0.999981
0.968863
0.952824
0.997774
0.999992
0.999992
0.949982
0.827371
0.824503
0.824487
0.824515
0.824535
0.955702
0.999911
0.999927
0.999901
0.999675
0.999777
0.98388
0.848246
0.835481
0.83548
0.999996
0.999996
0.998847
0.997909
0.998206
0.999841
0.999998
0.999998
0.957754
0.781826
0.781846
0.78188
0.781882
0.810804
0.973162
0.999952
0.999997
0.999997
0.999005
0.924274
0.915706
0.927293
0.990762
0.999992
0.999955
0.965113
0.900493
0.824461
0.824504
0.863493
0.987551
0.999926
0.999927
0.999391
0.998898
0.999268
0.999439
0.964155
0.867442
0.846507
0.999944
0.999862
0.997997
0.997909
0.997909
0.999207
0.99997
0.999727
0.999975
0.948351
0.855213
0.827194
0.881532
0.970797
0.99801
0.999997
0.999997
0.999997
0.982762
0.915706
0.915698
0.915698
0.916512
0.961284
0.985763
0.957032
0.935872
0.92776
0.934632
0.983214
0.999489
0.999927
0.999927
0.999331
0.998896
0.998895
0.999766
0.99927
0.986544
0.983348
0.999971
0.999638
0.997909
0.997909
0.998066
0.999764
0.999991
0.999987
1
0.999998
0.995345
0.992581
0.99418
0.993266
0.978618
0.980784
0.997479
0.999997
0.989266
0.935639
0.915695
0.915701
0.915698
0.915704
0.915984
0.941099
0.945289
0.953142
0.981365
0.999917
0.999927
0.999927
0.999927
0.999872
0.998895
0.998895
0.999766
0.999407
0.996542
0.996598
0.999976
0.999205
0.99791
0.998273
0.999887
0.999997
1
1
1
0.999994
0.999992
0.999248
0.995463
0.979435
0.978064
0.978064
0.983099
0.987785
0.993013
0.990593
0.970007
0.949254
0.927227
0.938119
0.967617
0.988697
0.96141
0.952457
0.966757
0.999345
0.999927
0.999927
0.999927
0.999927
0.998931
0.99897
0.999916
0.998769
0.994626
0.996598
0.999903
0.999458
0.999489
0.999944
1
1
1
1
0.998929
0.998168
0.999514
0.998803
0.996575
0.987805
0.988754
0.987072
0.976717
0.976713
0.986058
0.999736
0.999725
0.998979
0.99544
0.995912
0.997982
0.998241
0.994361
0.977955
0.98566
0.999007
0.999925
0.999902
0.999703
0.999645
0.999581
0.999745
0.999924
0.999402
0.994444
0.995762
0.999993
0.999993
0.999993
0.999745
0.992199
0.983801
0.985207
0.9945
0.998884
0.998291
0.995308
0.990131
0.993365
0.993319
0.993243
0.993145
0.983241
0.991274
0.997535
0.999735
0.999719
0.999718
0.999712
0.997889
0.997695
0.998252
0.999057
0.999627
0.999906
0.999661
0.999937
0.999681
0.999635
0.999635
0.999888
0.999974
0.999924
0.999927
0.994826
0.988616
0.999998
0.996553
0.977921
0.977405
0.981566
0.983883
0.980188
0.97431
0.983555
0.99082
0.98918
0.990187
0.989949
0.961486
0.924261
0.943592
0.990696
0.991188
0.980016
0.973237
0.973237
0.973416
0.99828
0.999767
0.997263
0.997698
0.999681
0.99996
0.999989
0.999989
0.999989
0.999889
0.99968
0.999777
0.999974
0.999974
0.999928
0.999928
0.993068
0.988615
0.983876
0.97289
0.97255
0.980914
0.963327
0.810411
0.790861
0.791394
0.792096
0.88262
0.989174
0.897567
0.854752
0.854541
0.854479
0.854541
0.854741
0.909608
0.99466
0.992296
0.976015
0.984308
0.999768
0.999768
0.9991
0.999494
0.999972
0.999989
0.999989
0.999989
0.999989
0.999989
0.999975
0.999986
0.999979
0.999807
0.999889
0.999922
0.988671
0.988615
0.774477
0.774619
0.829883
0.990273
0.909071
0.790884
0.790845
0.790884
0.879056
0.971449
0.972337
0.959389
0.954544
0.902842
0.854522
0.866854
0.99083
0.991251
0.997757
0.99776
0.996498
0.997582
0.998651
0.998424
0.998997
0.999989
0.999989
0.999989
0.999989
0.999989
0.999989
0.999989
0.999989
0.999989
0.999896
0.999693
0.999858
0.999647
0.988615
0.988615
0.99532
0.996375
0.996323
0.990945
0.962382
0.922882
0.898939
0.896388
0.911266
0.913813
0.856666
0.814809
0.860689
0.896971
0.885603
0.880367
0.770547
0.536739
0.46987
0.691181
0.849674
0.87036
0.865537
0.873551
0.871846
0.877497
0.887036
0.896508
0.916024
0.948981
0.982723
0.999989
0.999989
0.999989
0.999988
0.999916
0.999945
0.999715
0.992647
0.988615
0.996307
0.996375
0.904382
0.423861
0.330998
0.330667
0.33115
0.331534
0.33214
0.334622
0.583184
0.762911
0.360227
0.307106
0.307112
0.307156
0.307379
0.310097
0.436559
0.589364
0.662145
0.720564
0.782817
0.799951
0.769087
0.761598
0.757354
0.757348
0.757555
0.758198
0.829191
0.992358
0.905263
0.884498
0.99262
0.999945
0.999945
0.999909
0.999572
0.998001
0.995948
0.860276
0.387648
0.379777
0.443703
0.968333
0.999374
0.999309
0.998377
0.977534
0.565261
0.310132
0.308263
0.307112
0.30716
0.313004
0.5339
0.88634
0.930746
0.917176
0.879263
0.811528
0.857202
0.930069
0.96249
0.971489
0.971489
0.971254
0.967411
0.945586
0.978975
0.811511
0.753618
0.75083
0.765784
0.903971
0.999945
0.999943
0.999942
0.999938
0.957262
0.999777
0.994869
0.998506
0.999709
0.999692
0.999258
0.976238
0.946895
0.946784
0.940658
0.846886
0.536377
0.407593
0.66895
0.962204
0.999641
0.998006
0.898285
0.817789
0.81617
0.860003
0.857264
0.748199
0.740251
0.740027
0.7753
0.820489
0.934418
0.983413
0.983735
0.921078
0.82196
0.750421
0.744121
0.744121
0.828654
0.967108
0.999938
0.999641
0.999779
0.999779
0.999777
0.999769
0.999733
0.999529
0.997916
0.831888
0.690095
0.689964
0.690198
0.756924
0.998023
0.999976
0.999976
0.999976
0.999971
0.999633
0.915678
0.84375
0.965397
0.995349
0.995348
0.97283
0.852424
0.719905
0.609943
0.57712
0.670089
0.850203
0.986239
0.993691
0.984248
0.955636
0.914633
0.753134
0.654735
0.682329
0.877984
0.957254
0.999777
0.99978
0.999771
0.998604
0.993119
0.993507
0.999869
0.999976
0.956793
0.837687
0.853234
0.999976
0.999976
0.999976
0.999976
0.999977
0.999976
0.999969
0.999943
0.999812
0.99922
0.996345
0.969247
0.920062
0.897997
0.894441
0.857131
0.510276
0.368582
0.744741
0.988967
0.993723
0.993723
0.993723
0.993558
0.857253
0.654762
0.654722
0.655069
0.804019
0.999778
0.998837
0.98952
0.988323
0.988411
0.994708
0.999976
0.999976
0.999976
0.999976
0.999976
0.999976
0.999976
0.999976
0.999977
0.999978
0.999968
0.99991
0.999787
0.998876
0.953737
0.719751
0.398998
0.218297
0.191297
0.253777
0.287213
0.16778
0.098062
0.423106
0.835529
0.951534
0.988775
0.993558
0.992208
0.96825
0.695907
0.655069
0.684261
0.819003
0.997758
0.98824
0.98825
0.988277
0.988321
0.989449
0.999436
0.999976
0.999976
0.999976
0.999976
0.999976
0.999976
0.999976
0.999976
0.999966
0.999838
0.999006
0.994417
0.876231
0.302776
0.0682573
0.0683479
0.0681621
0.0686249
0.0708799
0.074644
0.0793546
0.082896
0.0866046
0.0908123
0.1074
0.523695
0.766501
0.85352
0.864381
0.840595
0.735786
0.819003
0.819042
0.992739
0.988241
0.988241
0.98825
0.988271
0.98831
0.996667
0.999976
0.999976
0.999974
0.999932
0.999941
0.999974
0.999974
0.999969
0.999913
0.999595
0.997755
0.980031
0.524328
0.0709987
0.0684117
0.0682627
0.105442
0.256105
0.314668
0.315725
0.279546
0.260075
0.255744
0.215096
0.185524
0.191431
0.203862
0.203862
0.29877
0.667544
0.723879
0.64375
0.603714
0.997518
0.995036
0.997284
0.998636
0.993069
0.989091
0.998925
0.999976
0.999976
0.999973
0.9998
0.999385
0.999679
0.999967
0.999957
0.999905
0.99961
0.998209
0.988165
0.58401
0.101955
0.0709987
0.225488
0.851525
0.998059
0.998046
0.987121
0.973157
0.969136
0.967992
0.937938
0.809339
0.605219
0.462143
0.329493
0.187036
0.0927077
0.067438
0.0570258
0.0570628
0.999935
0.999946
0.999947
0.999954
0.999966
0.999973
0.999974
0.999975
0.999974
0.999969
0.999569
0.998635
0.998987
0.999848
0.999936
0.99992
0.999884
0.999617
0.993748
0.948153
0.912304
0.916843
0.976065
0.997891
0.998049
0.998055
0.998045
0.997952
0.997834
0.997804
0.997794
0.997782
0.997781
0.997732
0.997683
0.922187
0.647638
0.288584
0.0599581
0.0570253
0.999947
0.999946
0.999946
0.999935
0.999822
0.999756
0.999801
0.999926
0.999969
0.999958
0.999565
0.993722
0.991568
0.997743
0.99992
0.999916
0.999869
0.997128
0.994889
0.997739
0.998082
0.998041
0.998044
0.998055
0.998113
0.998047
0.995668
0.993994
0.997779
0.997794
0.99778
0.997764
0.997741
0.997743
0.997712
0.997675
0.997509
0.995164
0.596681
0.224609
0.999476
0.999946
0.999945
0.999936
0.996064
0.991128
0.997054
0.999936
0.999958
0.999889
0.999375
0.98627
0.859822
0.735681
0.80384
0.987768
0.999772
0.999722
0.999664
0.999515
0.999202
0.993121
0.996711
0.998111
0.998178
0.99595
0.993882
0.993873
0.993819
0.99642
0.997782
0.99774
0.997745
0.997723
0.997724
0.997545
0.997193
0.995967
0.99545
0.984401
0.999088
0.999943
0.999942
0.999915
0.996627
0.991128
0.991128
0.99659
0.999903
0.999434
0.964289
0.58563
0.128527
0.0322454
0.101303
0.443766
0.710994
0.723188
0.421248
0.28574
0.549588
0.898544
0.966768
0.996165
0.998178
0.998177
0.99807
0.994595
0.993777
0.994803
0.997652
0.997592
0.997577
0.997584
0.997508
0.997221
0.996873
0.986032
0.984834
0.978768
0.999019
0.991919
0.736666
0.583486
0.953321
0.999199
0.999222
0.999057
0.998632
0.849617
0.207051
0.0166348
0.0165029
0.0165757
0.0166258
0.0230489
0.0362183
0.037078
0.0239643
0.0180267
0.0195395
0.0237956
0.304167
0.931341
0.998177
0.998178
0.998166
0.998089
0.997557
0.99246
0.99207
0.995012
0.992489
0.992201
0.993122
0.989449
0.990298
0.986497
0.985225
0.982248
0.992561
0.608449
0.254595
0.35035
0.884931
0.999254
0.999183
0.99854
0.979194
0.454832
0.0164766
0.01651
0.0166468
0.0165688
0.0164326
0.0166899
0.0169791
0.0172524
0.0176289
0.0178214
0.0180136
0.0185257
0.148089
0.8151
0.998177
0.998166
0.998089
0.997796
0.995662
0.945419
0.799275
0.671598
0.615857
0.617572
0.666974
0.763641
0.935175
0.995949
0.9968
0.995134
0.683309
0.205142
0.220894
0.591917
0.999362
0.999314
0.999194
0.998167
0.964326
0.38574
0.0165099
0.0166031
0.0165882
0.016655
0.0167238
0.0168742
0.0169039
0.0169867
0.0237101
0.0276944
0.023283
0.156246
0.642724
0.972024
0.998155
0.998044
0.997583
0.985138
0.82597
0.497078
0.269149
0.202322
0.20614
0.206365
0.246279
0.572356
0.81185
0.962839
0.996911
0.996909
0.207161
0.189381
0.29537
0.933262
0.999381
0.999362
0.999314
0.99905
0.996635
0.879481
0.237746
0.01649
0.0166525
0.0166565
0.0178309
0.023567
0.0271979
0.028313
0.062205
0.190178
0.472011
0.815014
0.985927
0.996186
0.997855
0.994998
0.907525
0.620939
0.297391
0.201269
0.201087
0.201306
0.202511
0.20696
0.392769
0.734002
0.787624
0.923345
0.996261
0.996911
0.165093
0.172567
0.621147
0.999628
0.999506
0.999373
0.996062
0.987854
0.987376
0.99782
0.999951
0.785278
0.295475
0.177944
0.224938
0.256444
0.271145
0.452293
0.748953
0.933347
0.985538
0.985557
0.987658
0.99179
0.916861
0.694428
0.373471
0.202668
0.201837
0.200912
0.20135
0.202387
0.231699
0.505241
0.916698
0.998224
0.992877
0.948075
0.990197
0.996909
0.154672
0.272237
0.933556
0.999719
0.999628
0.997284
0.973026
0.968209
0.971608
0.999538
0.999981
0.999982
0.999982
0.999982
0.999976
0.999933
0.999146
0.988541
0.982344
0.975751
0.984667
0.969807
0.8499
0.620959
0.371611
0.21089
0.207574
0.205134
0.202733
0.202326
0.240606
0.427884
0.749747
0.96395
0.998664
0.998481
0.998224
0.997086
0.990201
0.996798
0.152554
0.651811
0.999909
0.9999
0.999465
0.978574
0.968179
0.968181
0.968209
0.970647
0.997814
0.999982
0.999988
0.999982
0.999946
0.99966
0.976151
0.811192
0.740235
0.771811
0.770445
0.507766
0.281186
0.225546
0.225546
0.217541
0.207577
0.219466
0.318442
0.521934
0.798683
0.954763
0.998808
0.998723
0.998713
0.998664
0.997728
0.996462
0.994696
0.996786
0.34521
0.983047
0.999991
0.999988
0.999941
0.98726
0.968181
0.968176
0.968205
0.968237
0.97244
0.999988
0.999997
0.999992
0.999889
0.999055
0.931554
0.479551
0.305188
0.296609
0.288393
0.281242
0.263193
0.248411
0.282965
0.382796
0.559153
0.767746
0.918686
0.996144
0.999015
0.998975
0.998928
0.998808
0.998675
0.998009
0.927018
0.971677
0.996608
0.996769
0.751481
1
0.999995
0.999995
0.999957
0.999837
0.99947
0.985969
0.968196
0.968358
0.977886
0.999997
1
1
1
0.999973
0.982281
0.648931
0.412215
0.400445
0.522893
0.632641
0.693556
0.812639
0.919754
0.984084
0.999995
0.999995
0.999995
0.999948
0.999466
0.998993
0.998808
0.99867
0.998451
0.936025
0.57462
0.817003
0.993622
0.996724
0.999942
0.999996
0.999996
0.999995
0.999993
0.999991
0.999995
1
0.999694
0.998419
0.998415
0.999256
1
1
1
1
1
1
0.974001
0.904586
0.959137
0.999991
0.99999
0.999988
0.99999
0.999994
0.999995
0.999995
0.999992
0.992012
0.987944
0.99478
0.998019
0.997938
0.996712
0.683894
0.535439
0.696512
0.987395
0.995163
0.999997
0.999996
0.999996
0.999996
0.999986
0.99998
1
1
1
1
1
1
1
1
1
1
1
1
1
1
1
0.999996
0.99999
0.999984
0.999987
0.99999
0.999993
0.999994
0.999989
0.985061
0.967048
0.935038
0.946489
0.967327
0.892992
0.535361
0.535069
0.653959
0.979711
0.991055
0.999996
0.999997
0.999996
0.999983
0.999974
0.999974
0.999992
1
1
1
1
1
1
1
1
1
1
1
1
0.999999
0.999944
0.999585
0.999906
0.999926
0.999937
0.99996
0.999972
0.999984
0.999983
0.995956
0.988776
0.929192
0.697946
0.652497
0.593969
0.534942
0.534875
0.620708
0.966312
0.990114
0.999997
0.999997
0.999996
0.999976
0.999974
0.999974
0.999983
1
1
1
1
1
1
1
1
1
1
1
1
0.999997
0.999948
0.99893
0.993796
0.99025
0.991714
0.996716
0.998951
0.999801
0.999944
0.999761
0.999615
0.992014
0.681165
0.536046
0.534942
0.534879
0.534323
0.557567
0.937379
0.990138
0.999997
0.999997
0.999997
0.999995
0.999982
0.999981
0.999998
1
1
1
1
1
1
0.999999
0.999998
0.999998
0.999997
0.999997
0.999997
0.999994
0.999977
0.999615
0.987221
0.977922
0.977767
0.978068
0.982575
0.988698
0.996116
0.999502
0.999615
0.999514
0.957698
0.651329
0.535236
0.534316
0.533654
0.533597
0.876389
0.990012
0.999997
0.999426
0.999997
0.999997
0.999997
0.999996
1
1
1
1
1
0.999999
0.999996
0.999991
0.999985
0.999975
0.999962
0.999959
0.99997
0.999981
0.999974
0.999964
0.995762
0.984091
0.977421
0.976408
0.976317
0.976347
0.976692
0.987197
0.99764
0.999421
0.999305
0.974558
0.653822
0.534086
0.533855
0.533531
0.787173
0.989446
0.98429
0.983
0.993357
0.999714
0.999997
0.999997
0.999989
0.99998
0.999999
1
1
0.999994
0.999979
0.999949
0.999849
0.999667
0.999516
0.99953
0.999686
0.999853
0.99992
0.999956
0.99995
0.999945
0.997269
0.988053
0.977707
0.976024
0.975854
0.975971
0.980471
0.996953
0.999227
0.999177
0.96042
0.570702
0.53367
0.533382
0.700527
0.985673
0.982885
0.982914
0.982952
0.985796
0.998206
0.999997
0.999982
0.999958
0.999986
1
0.999999
0.999981
0.999859
0.999279
0.986774
0.956406
0.948808
0.971362
0.989777
0.991671
0.997941
0.999729
0.999942
0.999951
0.999952
0.999954
0.999887
0.98928
0.976186
0.975854
0.976037
0.98105
0.998428
0.999204
0.999189
0.832339
0.534407
0.533552
0.636042
0.975826
0.982892
0.982929
0.982951
0.993297
0.999497
0.999997
0.999997
0.999997
0.999988
0.999999
0.999991
0.999824
0.971989
0.787779
0.533949
0.373467
0.357049
0.46662
0.766787
0.970294
0.994591
0.998903
0.999827
0.999945
0.999952
0.999953
0.999954
0.999953
0.997959
0.978386
0.975953
0.976362
0.994897
0.999427
0.999192
0.986887
0.600828
0.534732
0.612305
0.965062
0.982929
0.982947
0.991103
0.999838
0.999995
0.999997
0.999997
0.999997
0.999997
0.999991
0.999777
0.883001
0.519021
0.183286
0.138153
0.139781
0.139255
0.139623
0.373502
0.915391
0.993338
0.998584
0.999687
0.999929
0.999956
0.999954
0.999954
0.999955
0.999953
0.998703
0.977931
0.978088
0.996687
0.999767
0.999469
0.999094
0.833221
0.538802
0.622865
0.957782
0.986011
0.990504
0.999182
0.999977
0.999991
0.999971
0.999993
0.999997
0.999992
0.999777
0.807384
0.296562
0.139085
0.138086
0.139751
0.139194
0.139808
0.139052
0.2993
0.873118
0.994885
0.998812
0.999702
0.999913
0.999957
0.999955
0.999955
0.999954
0.999955
0.999954
0.995458
0.995769
0.999514
0.999952
0.9945
0.989159
0.985568
0.614771
0.651172
0.951556
0.999303
0.999792
0.999985
0.999956
0.999011
0.99903
0.999835
0.999989
0.999756
0.807767
0.227815
0.140091
0.139085
0.140016
0.139156
0.138017
0.139346
0.177374
0.675782
0.988541
0.99683
0.999182
0.999774
0.999928
0.999956
0.999955
0.999957
0.999953
0.999953
0.999954
0.999954
0.999953
0.999953
0.999952
0.982764
0.958019
0.974025
0.857579
0.659628
0.93595
0.999999
0.999996
0.999993
0.999499
0.961681
0.961554
0.983971
0.999572
0.77422
0.198278
0.139902
0.137817
0.140282
0.140151
0.136361
0.136462
0.191715
0.674896
0.98981
0.996494
0.998913
0.999649
0.99987
0.999942
0.999956
0.999954
0.999955
0.999954
0.999954
0.999954
0.999954
0.999954
0.999953
0.999952
0.996237
0.958439
0.975229
0.892991
0.677115
0.921984
0.999999
0.999999
0.999997
0.996984
0.955353
0.936263
0.901197
0.626246
0.171434
0.138004
0.140396
0.139981
0.138215
0.135989
0.1359
0.27424
0.786504
0.994417
0.997874
0.999097
0.999534
0.999785
0.999885
0.999929
0.999948
0.999952
0.999954
0.999956
0.999955
0.999955
0.999954
0.999953
0.99978
0.999941
0.99993
0.97337
0.980267
0.897525
0.686848
0.912188
1
0.999997
0.987233
0.964436
0.981709
0.983622
0.936213
0.367355
0.145942
0.142836
0.138235
0.139847
0.140886
0.235243
0.520515
0.991204
0.996301
0.998335
0.999067
0.999446
0.999646
0.999747
0.999821
0.999885
0.999932
0.999946
0.99995
0.999946
0.999756
0.999727
0.999849
0.999789
0.999597
0.999809
0.999922
0.979714
0.981467
0.928357
0.702923
0.906379
0.98791
0.953548
0.792511
0.89
0.983626
0.983839
0.983622
0.656127
0.172697
0.146851
0.142813
0.206087
0.37018
0.919509
0.994907
0.996966
0.998203
0.998848
0.999158
0.999319
0.999422
0.999584
0.999739
0.999835
0.999889
0.999896
0.999883
0.9998
0.999683
0.998661
0.998461
0.998898
0.999733
0.99981
0.999876
0.987934
0.9855
0.979188
0.727439
0.91238
0.782804
0.786103
0.787587
0.935333
0.985517
0.983622
0.983039
0.760193
0.240545
0.160984
0.327654
0.84248
0.993425
0.995336
0.99676
0.997735
0.998189
0.998542
0.998694
0.998958
0.999246
0.999488
0.999591
0.999639
0.999582
0.999445
0.999186
0.997658
0.991528
0.998795
0.999097
0.999097
0.999429
0.999774
0.99981
0.995026
0.997296
0.997531
0.773176
0.919576
0.778492
0.90128
0.991139
0.988639
0.987881
0.985551
0.956128
0.688652
0.420149
0.686727
0.992157
0.994813
0.995144
0.994842
0.995323
0.996405
0.997284
0.99785
0.998309
0.998761
0.999113
0.999185
0.998968
0.998872
0.997913
0.93938
0.824442
0.767757
0.591704
0.589299
0.835179
0.999076
0.999361
0.999716
0.999346
0.996706
0.999266
0.998709
0.774602
0.920737
0.995859