/*--------------------------------*- C++ -*----------------------------------*\
  =========                 |
  \\      /  F ield         | OpenFOAM: The Open Source CFD Toolbox
   \\    /   O peration     | Website:  https://openfoam.org
    \\  /    A nd           | Version:  8
     \\/     M anipulation  |
\*---------------------------------------------------------------------------*/
FoamFile
{
    version     2.0;
    format      ascii;
    class       volScalarField;
    location    "3.8";
    object      epsilon;
}
// * * * * * * * * * * * * * * * * * * * * * * * * * * * * * * * * * * * * * //

dimensions      [0 2 -3 0 0 0 0];

internalField   nonuniform List<scalar> 
9150
(
0.0313112
0.0124349
0.00309427
0.000935355
0.000441288
0.000441059
0.000934878
0.00309318
0.0124328
0.0313113
0.0302223
0.00874007
0.00172765
0.000599883
0.00033181
0.000331657
0.000599593
0.00172698
0.00873845
0.0302221
0.0284249
0.00693713
0.00111344
0.000491036
0.00029648
0.000296352
0.000490823
0.00111302
0.00693573
0.0284246
0.0264924
0.00599609
0.000833647
0.000458306
0.000285561
0.000285443
0.00045812
0.000833381
0.00599486
0.0264921
0.0244898
0.00559065
0.000694697
0.000451064
0.000283738
0.000283623
0.000450885
0.000694508
0.00558947
0.0244894
0.123463
0.0522079
0.0222769
0.0135145
0.00961238
0.00961696
0.0135326
0.0223223
0.0523221
0.123498
0.0760989
0.0229631
0.0129969
0.00859613
0.00596633
0.0059671
0.00860185
0.0130122
0.0229754
0.0760956
0.0553484
0.0178533
0.00755907
0.00448537
0.00292365
0.00292331
0.00448633
0.00756204
0.0178531
0.0553451
0.0425001
0.0152066
0.00476149
0.00226589
0.00132526
0.00132484
0.00226548
0.00476107
0.0152036
0.0424984
0.0356064
0.0137011
0.00350314
0.00128816
0.00066986
0.000669556
0.00128762
0.00350205
0.0136982
0.0356055
1.26394
0.166996
0.0479969
0.0207804
0.0122902
0.0121573
0.0204153
0.0466313
0.155471
1.08614
0.27695
0.12025
0.0456281
0.0204831
0.0123358
0.0122698
0.0203313
0.0451696
0.11788
0.277442
0.234446
0.103973
0.0445408
0.0202066
0.0123968
0.0123735
0.0201564
0.0444126
0.10312
0.235031
0.19659
0.0913719
0.0437436
0.0199347
0.0124695
0.012467
0.0199315
0.0437281
0.0913176
0.196819
0.156052
0.0860785
0.0401309
0.0187462
0.0121122
0.0121184
0.0187678
0.0401857
0.0862832
0.156134
0.0180634
0.0181658
0.0182443
0.0182908
0.0182965
0.0182508
0.0181419
0.0179564
0.0176836
0.0173461
0.00841922
0.00848487
0.00854042
0.00858381
0.00861277
0.00862494
0.00861803
0.00859045
0.00854286
0.00848222
0.00703287
0.00709268
0.00714457
0.00718737
0.00721994
0.00724128
0.00725066
0.0072479
0.0072337
0.00721034
0.00682961
0.00688801
0.00693915
0.00698217
0.00701637
0.00704122
0.00705646
0.00706228
0.00705946
0.00704925
0.00703359
0.00709252
0.00714436
0.00718849
0.00722446
0.00725198
0.00727096
0.00728166
0.00728477
0.00728108
0.00746186
0.00752274
0.00757649
0.00762279
0.00766147
0.00769238
0.00771547
0.00773084
0.00773883
0.00773989
0.00805686
0.00812098
0.00817797
0.00822801
0.00827122
0.00830754
0.00833674
0.00835862
0.00837265
0.00837905
0.00880301
0.00887175
0.00893391
0.00899034
0.00904134
0.0090867
0.00912577
0.00915736
0.00918018
0.00919409
0.00970383
0.00977942
0.00985042
0.009918
0.00998235
0.0100427
0.0100975
0.0101434
0.0101789
0.0102033
0.010773
0.0108606
0.0109473
0.0110339
0.0111204
0.0112052
0.0112832
0.0113505
0.0114043
0.0114436
0.0120315
0.012141
0.0122534
0.0123705
0.0124926
0.0126143
0.0127292
0.0128297
0.0129107
0.0129715
0.013516
0.0136586
0.0138085
0.0139694
0.0141427
0.0143221
0.0144968
0.0146509
0.0147731
0.0148647
0.0152845
0.0154724
0.0156712
0.0158885
0.016129
0.0163908
0.0166589
0.0168981
0.0170801
0.0172126
0.0174275
0.0176761
0.017936
0.0182184
0.0185333
0.018885
0.0192582
0.0196176
0.0199077
0.0201073
0.0200753
0.0204118
0.0207583
0.0211285
0.0215275
0.0219502
0.022384
0.0228812
0.0233743
0.0237106
0.0234006
0.0238695
0.0243469
0.0248477
0.025375
0.0259326
0.026538
0.0272074
0.0278564
0.0283473
0.02763
0.0283016
0.0289859
0.0296936
0.0304385
0.031239
0.0320799
0.0329317
0.0337358
0.0343806
0.0330649
0.0340351
0.0350274
0.0360492
0.0371192
0.0382286
0.0393368
0.040423
0.041434
0.0422686
0.0401092
0.0415076
0.0429248
0.0443688
0.045839
0.0473108
0.0487582
0.0501532
0.0514146
0.0524544
0.0491858
0.0511367
0.053103
0.0550755
0.0570341
0.0589495
0.060789
0.0625052
0.0640312
0.0652983
0.0605482
0.0631936
0.0658418
0.0684643
0.0710224
0.0734688
0.0757541
0.0778341
0.079662
0.0811839
0.0742568
0.0777171
0.0811639
0.0845505
0.0878166
0.0908802
0.0936694
0.0961617
0.0983379
0.100146
0.0899481
0.0942399
0.0984981
0.102663
0.106658
0.110342
0.113651
0.116662
0.119366
0.121633
0.106627
0.11153
0.116348
0.121072
0.125682
0.130012
0.133914
0.137513
0.140835
0.143686
0.122776
0.127895
0.132944
0.137997
0.14295
0.147774
0.152331
0.15663
0.160659
0.164268
0.136827
0.141815
0.146804
0.152001
0.157269
0.162472
0.167571
0.172458
0.177019
0.181056
0.147444
0.152149
0.157133
0.162441
0.167875
0.173257
0.178598
0.183762
0.188604
0.192878
0.154701
0.159438
0.164469
0.169795
0.175294
0.180804
0.186202
0.191317
0.196051
0.200417
0.159533
0.164378
0.169454
0.174783
0.180274
0.185725
0.190964
0.196034
0.200934
0.20562
0.162563
0.167519
0.172673
0.17803
0.183487
0.188895
0.194267
0.199629
0.204884
0.209952
0.164501
0.169685
0.175017
0.180499
0.186098
0.19176
0.197523
0.203353
0.209102
0.214648
0.166147
0.171698
0.177405
0.183254
0.189275
0.195474
0.201819
0.208265
0.214684
0.220932
0.168129
0.174208
0.180508
0.187025
0.193792
0.200818
0.208019
0.215366
0.222788
0.230151
0.17096
0.177733
0.184831
0.192263
0.200053
0.208214
0.216718
0.225522
0.234537
0.243635
0.174853
0.18251
0.190643
0.199283
0.20847
0.218235
0.228586
0.239484
0.250826
0.26246
0.180025
0.188798
0.198254
0.20846
0.219489
0.231402
0.244231
0.257948
0.27245
0.287533
0.186862
0.197032
0.208154
0.220342
0.233713
0.248365
0.264354
0.281669
0.300192
0.319665
0.195866
0.207786
0.220989
0.235648
0.25193
0.269972
0.289854
0.311561
0.334933
0.359592
0.207498
0.221568
0.237319
0.254982
0.274767
0.296842
0.321282
0.348018
0.376733
0.406719
0.22193
0.238533
0.257248
0.278338
0.302029
0.328466
0.35765
0.389341
0.422912
0.45734
0.238951
0.258392
0.280347
0.305076
0.332767
0.363468
0.396989
0.432759
0.469771
0.506523
0.258013
0.280426
0.305727
0.334141
0.365772
0.400513
0.437903
0.477032
0.516434
0.552331
0.278182
0.303455
0.332003
0.364021
0.39952
0.438194
0.479291
0.521387
0.560529
0.586305
0.298238
0.325904
0.357276
0.39262
0.431957
0.474797
0.519606
0.561736
0.5879
0.606214
0.317121
0.346303
0.379596
0.417503
0.460335
0.507204
0.551669
0.578259
0.595529
0.615109
0.334165
0.363662
0.397391
0.43617
0.480135
0.523667
0.551715
0.570921
0.594844
0.601414
0.348445
0.376653
0.408604
0.444937
0.483301
0.512873
0.534796
0.560282
0.57874
0.571343
0.358983
0.384494
0.412694
0.443344
0.47141
0.495588
0.522068
0.546884
0.553174
0.542512
0.36527
0.387537
0.411068
0.434614
0.457019
0.482088
0.50846
0.522714
0.523811
0.519866
0.367643
0.386709
0.405332
0.42338
0.443052
0.464689
0.483986
0.495896
0.502044
0.505985
0.368998
0.385457
0.400992
0.417432
0.435566
0.454042
0.470437
0.48375
0.494831
0.505093
0.371677
0.387182
0.402795
0.419744
0.437614
0.455601
0.472674
0.48867
0.504259
0.520493
0.378904
0.395633
0.41362
0.432337
0.451328
0.470648
0.49007
0.509825
0.530622
0.553442
0.392786
0.412708
0.434595
0.456094
0.477379
0.499357
0.522365
0.546962
0.57398
0.604431
0.414349
0.439143
0.466202
0.491341
0.515913
0.541766
0.56966
0.600393
0.634953
0.674455
0.444589
0.476269
0.510072
0.539415
0.568144
0.599002
0.633083
0.671406
0.715128
0.765518
0.48695
0.528698
0.571306
0.605345
0.638682
0.675241
0.71649
0.763764
0.818469
0.882107
0.547178
0.603292
0.656581
0.695281
0.733458
0.776414
0.826009
0.884095
0.952589
1.0329
0.631149
0.705606
0.768773
0.812189
0.856173
0.907316
0.967981
1.04044
1.12659
1.22864
0.742607
0.837978
0.909183
0.957433
1.0093
1.0724
1.1489
1.24155
1.35304
1.4862
0.88907
1.00413
1.08305
1.13604
1.19881
1.27947
1.38
1.50315
1.6519
1.82956
1.07573
1.20587
1.29
1.35029
1.43136
1.54073
1.67886
1.84774
2.05067
2.29175
1.2952
1.42997
1.51498
1.59753
1.71504
1.87218
2.06828
2.30554
2.58788
2.91698
1.53409
1.65672
1.75712
1.89053
2.0718
2.30328
2.58573
2.92183
3.30408
3.71541
1.75721
1.88979
2.0523
2.26576
2.53778
2.87057
3.25983
3.69454
4.15951
4.65513
1.98757
2.18665
2.43975
2.75401
3.13159
3.56763
4.04826
4.57154
5.14646
5.77086
2.28769
2.57906
2.93569
3.35538
3.83583
4.36957
4.95791
5.60804
6.32419
7.10246
2.6939
3.0891
3.55068
4.07887
4.67252
5.32444
6.04477
6.84792
7.74366
8.72119
3.2502
3.75941
4.34295
5.00216
5.71099
6.48523
7.36453
8.37979
9.52839
10.7142
4.03278
4.69452
5.43533
6.18149
6.95947
7.87524
8.99285
10.3065
11.6764
12.665
5.16874
6.00265
6.75355
7.47947
8.3891
9.5824
11.0524
12.5879
13.6214
13.7309
6.58217
7.30929
7.96389
8.86671
10.1182
11.7277
13.4457
14.5578
14.5642
13.7352
7.76964
8.37002
9.23737
10.497
12.1937
14.1305
15.4345
15.3801
14.3387
13.1268
8.84044
9.58939
10.7676
12.4527
14.5574
16.1814
16.1984
14.9523
13.5013
12.4264
10.017
11.0388
12.6343
14.8143
16.8513
17.1347
15.6904
13.9279
12.6084
11.8659
11.303
12.7226
14.8616
17.3432
18.2125
16.6218
14.4835
12.8333
11.8557
11.5393
12.8629
14.9032
17.7074
19.4194
17.9168
15.319
13.2183
11.8863
11.3305
11.4987
14.7862
17.7681
20.6165
19.7019
16.6067
13.9131
12.0737
11.1358
11.059
11.7566
17.2253
21.2659
21.9904
18.5036
15.0867
12.5704
11.0763
10.5933
11.0417
12.3015
20.6864
24.2719
21.4794
17.1209
13.6732
11.377
10.2571
10.2602
11.2615
13.1051
25.3181
26.0075
20.5276
15.8319
12.4083
10.327
9.59553
10.1073
11.6828
14.1273
29.3761
25.8838
19.6515
14.6809
11.2341
9.36618
9.04637
10.0924
12.2624
15.3236
32.9033
25.6219
18.7527
13.5212
10.0563
8.43475
8.56551
10.1749
12.9572
16.6504
36.3086
26.0226
18.0139
12.3479
8.85024
7.50834
8.1246
10.3177
13.7213
18.0601
37.7776
25.4862
16.774
10.9398
7.5563
6.56744
7.70084
10.4824
14.5002
19.4893
36.2919
23.8161
15.207
9.48807
6.28632
5.64579
7.27665
10.6211
15.2301
20.8607
36.3302
22.9488
14.0707
8.29946
5.15789
4.76479
6.82144
10.6776
15.8461
22.0959
36.3916
22.3105
13.1602
7.30352
4.15368
3.90743
6.30019
10.6142
16.332
23.1952
35.9244
21.5404
12.2539
6.38604
3.24386
3.06726
5.69097
10.4134
16.7228
24.284
34.9292
20.4523
11.1965
5.45464
2.41607
2.26228
4.98544
10.0585
17.0592
25.5533
33.1689
18.8779
9.88971
4.46044
1.68143
1.53303
4.18459
9.50899
17.3296
27.1958
30.821
16.9301
8.3945
3.44288
1.07529
0.930695
3.30171
8.68666
17.3912
29.2298
28.3654
14.8377
6.83205
2.47895
0.6235
0.49336
2.37953
7.49441
16.8977
31.1599
25.444
12.5219
5.26301
1.64186
0.325944
0.225237
1.50987
5.90599
15.3902
31.8136
22.3986
10.2634
3.85781
1.00616
0.157829
0.0915781
0.8156
4.08984
12.6532
30.0182
19.0515
7.99786
2.61995
0.556286
0.0718597
0.0376553
0.37123
2.38705
8.89052
24.4845
14.9141
5.61802
1.55829
0.264622
0.0324933
0.0194414
0.150894
1.16399
5.12858
16.2368
9.97618
3.34932
0.77284
0.10845
0.0177266
0.0139493
0.0630217
0.497091
2.42168
8.31361
4.97518
1.60157
0.313532
0.0442784
0.0134068
0.0124485
0.0325483
0.204202
1.00488
3.12319
1.59621
0.597738
0.110067
0.0246492
0.0124215
0.012128
0.0225794
0.0867665
0.414416
0.970371
0.0169041
0.01637
0.0157417
0.0150242
0.0142342
0.0134011
0.0125695
0.011799
0.0111591
0.0107127
0.0104932
0.0104857
0.0106296
0.0108412
0.0110409
0.011169
0.0111701
0.0109879
0.0106242
0.0101138
0.00951259
0.00889692
0.00835047
0.00792549
0.00761324
0.00736442
0.00713573
0.00678404
0.00623413
0.00559296
0.00488328
0.00416266
0.0037461
0.000885174
0.000885971
0.000884672
0.000884856
0.000819227
0.000699207
0.00145024
0.00840444
0.00830933
0.00819641
0.00806448
0.00791409
0.00774783
0.00757002
0.00738739
0.00720922
0.00704623
0.0069076
0.00679691
0.00671049
0.00664006
0.00657641
0.00650951
0.0064294
0.00632976
0.00620903
0.006066
0.00589717
0.00569703
0.00546568
0.00521788
0.00497274
0.00473968
0.00451795
0.00428945
0.00404494
0.00379829
0.00353144
0.00321759
0.00283739
0.0024623
0.00214557
0.00187029
0.00158141
0.00140228
0.00137352
0.00203103
0.00717701
0.00713467
0.00708621
0.00703363
0.00697914
0.00692458
0.00687079
0.00681721
0.00676172
0.00670139
0.00663423
0.00655998
0.00647935
0.00639351
0.00630349
0.00620942
0.00611101
0.00600847
0.00590278
0.00579391
0.0056774
0.00554263
0.00538126
0.00519669
0.00499919
0.00479492
0.00458308
0.00435977
0.00412401
0.00387698
0.00361294
0.00333078
0.00304725
0.002786
0.00254696
0.00232415
0.00211573
0.00196895
0.00201733
0.00299485
0.00703187
0.00700864
0.00698326
0.00695908
0.00693931
0.00692624
0.0069204
0.00691957
0.00691802
0.00690727
0.00688073
0.00683632
0.00677476
0.00669836
0.00661012
0.00651301
0.00640956
0.00630261
0.00619542
0.00609096
0.00598749
0.00587169
0.00574111
0.00559694
0.00543339
0.00525316
0.00505395
0.00483194
0.00458561
0.00431713
0.00403495
0.00375211
0.00347779
0.00322515
0.00299917
0.00278691
0.00260188
0.00248616
0.00259981
0.00387058
0.00727135
0.00725701
0.00724207
0.00723069
0.0072271
0.00723461
0.00725441
0.00728386
0.00731473
0.00733309
0.00732962
0.00730435
0.0072598
0.00719858
0.00712335
0.00703653
0.00694029
0.0068369
0.00672907
0.00661941
0.00650649
0.00638071
0.00626333
0.00616721
0.00605594
0.00591054
0.00572997
0.00551463
0.0052642
0.00498344
0.00468494
0.00438347
0.00408978
0.00381345
0.00355827
0.00332514
0.00313421
0.0030226
0.00315789
0.00457398
0.00773493
0.00772518
0.00771468
0.00770808
0.0077103
0.00772557
0.00775593
0.00779909
0.00784493
0.00787934
0.0078916
0.00788301
0.00785793
0.0078179
0.00776385
0.00769674
0.00761765
0.00752776
0.00742834
0.0073206
0.00720459
0.00707962
0.00696642
0.00688254
0.00680524
0.00670158
0.00655501
0.00636356
0.00612496
0.00584375
0.00553367
0.00521814
0.00490917
0.00461406
0.00433001
0.00406164
0.00383482
0.00371723
0.00392387
0.0055475
0.00837878
0.00837257
0.00836421
0.00835837
0.00835997
0.00837308
0.00839923
0.00843367
0.00846252
0.00849987
0.00854388
0.00856853
0.00857396
0.00856172
0.00853336
0.00848965
0.00843153
0.00836038
0.00827739
0.00818301
0.00807722
0.007962
0.00785276
0.00776919
0.00770565
0.00763719
0.0075264
0.00735513
0.0071252
0.0068532
0.00655825
0.00625876
0.00597094
0.0056944
0.00541076
0.00512139
0.00486558
0.00475345
0.00505448
0.00701566
0.0092002
0.00919882
0.0091935
0.00918893
0.00918978
0.00919944
0.00921768
0.00923117
0.00922511
0.00924823
0.00932388
0.00939721
0.00944155
0.00945983
0.00945707
0.00943436
0.00939381
0.00933879
0.00927244
0.00919647
0.00911129
0.00901839
0.00892827
0.0088615
0.0088167
0.00877188
0.00868235
0.00851171
0.00827257
0.00800094
0.00773784
0.00749428
0.00726661
0.00703915
0.00680922
0.00655684
0.00634144
0.00630439
0.00671335
0.00867202
0.0102185
0.0102245
0.0102252
0.0102255
0.01023
0.0102412
0.0102567
0.0102589
0.0102383
0.0102408
0.0103044
0.0104054
0.0104918
0.0105459
0.0105691
0.0105625
0.0105318
0.0104845
0.0104273
0.0103641
0.0102977
0.0102309
0.0101717
0.0101331
0.0101097
0.0100796
0.0100005
0.00983638
0.0096107
0.009366
0.00913701
0.00893209
0.00874864
0.00858873
0.00844677
0.0083099
0.00826272
0.00859568
0.010469
0.0375719
0.0114715
0.0114887
0.0114993
0.0115091
0.0115226
0.0115413
0.0115611
0.011566
0.0115424
0.0115254
0.0115625
0.01167
0.011793
0.0118814
0.0119223
0.0119193
0.0118856
0.0118346
0.0117753
0.0117126
0.0116507
0.0115946
0.0115522
0.011531
0.0115271
0.0115167
0.0114556
0.0113038
0.0111014
0.0108961
0.0107042
0.0105376
0.0103955
0.0102764
0.0101922
0.010172
0.0103374
0.0109962
0.0136529
0.0377157
0.0130179
0.0130516
0.013077
0.0130997
0.0131233
0.0131483
0.0131699
0.0131761
0.0131538
0.0131258
0.0131464
0.0132587
0.0134124
0.0135196
0.0135573
0.013539
0.0134885
0.0134235
0.0133524
0.0132767
0.0131978
0.0131214
0.0130583
0.0130193
0.0130025
0.0129825
0.0129291
0.0128379
0.0126997
0.0125502
0.0124
0.0122555
0.0121189
0.0119999
0.0119301
0.0119853
0.012335
0.0133106
0.016456
0.0387587
0.0149371
0.014994
0.0150389
0.0150761
0.015107
0.01513
0.0151414
0.0151363
0.0151122
0.015081
0.0150902
0.0151947
0.0153535
0.0154532
0.0154724
0.0154327
0.0153628
0.0152812
0.0151947
0.0150993
0.0149877
0.014861
0.0147346
0.0146276
0.0145321
0.0144046
0.0142911
0.0143138
0.0143464
0.0143092
0.0142018
0.0140584
0.0139011
0.0137462
0.0136294
0.01366
0.014088
0.0151408
0.0180207
0.0428762
0.0173196
0.0174078
0.0174787
0.0175341
0.0175735
0.0175948
0.0175959
0.0175756
0.0175348
0.0174887
0.0174527
0.0174661
0.0175827
0.0176979
0.0177168
0.0176589
0.0175666
0.0174612
0.0173494
0.0172268
0.0170711
0.0168692
0.0166448
0.016431
0.016226
0.0159978
0.0158335
0.0158363
0.0159392
0.0160178
0.0159843
0.0158679
0.0157359
0.0156061
0.0154965
0.0154979
0.0158586
0.0167628
0.0192128
0.040032
0.0202693
0.0204061
0.0205159
0.0205982
0.0206508
0.0206726
0.0206648
0.0206314
0.0205737
0.0204897
0.0203984
0.0203542
0.0203864
0.0204563
0.0204508
0.0203501
0.0202031
0.0200348
0.0198564
0.0196671
0.0194382
0.0191464
0.0188137
0.0184842
0.0181743
0.0178615
0.0176161
0.017517
0.0175348
0.0176052
0.0176263
0.0175761
0.0175269
0.0174933
0.0174758
0.0175242
0.0178241
0.0186463
0.0210932
0.0383887
0.0239683
0.0241795
0.0243426
0.0244571
0.0245206
0.0245334
0.0245
0.024429
0.0243295
0.0241985
0.024063
0.0239596
0.0239002
0.0238707
0.0237784
0.0235929
0.0233422
0.0230476
0.0227251
0.0223791
0.022018
0.0216502
0.0212476
0.0208279
0.0204235
0.0200271
0.0196862
0.0194565
0.0193231
0.0192546
0.0192017
0.0191499
0.0191301
0.0191405
0.0191735
0.0192494
0.0194841
0.0202185
0.0228493
0.0405613
0.0287253
0.0290249
0.0292416
0.0293767
0.0294311
0.0294082
0.0293159
0.0291674
0.0289802
0.0287686
0.0285541
0.0283532
0.0281662
0.0279877
0.0277572
0.0274447
0.0270472
0.0265826
0.0260788
0.0255598
0.0250492
0.0245511
0.0240495
0.0235447
0.0230449
0.0225628
0.0221182
0.0217338
0.02141
0.021141
0.0209188
0.0207485
0.0206341
0.0205674
0.0205446
0.0205927
0.0208344
0.02169
0.0249524
0.0463371
0.0348986
0.0352943
0.0355516
0.0356795
0.0356879
0.0355883
0.0353949
0.0351265
0.0348063
0.0344583
0.0340984
0.0337347
0.0333674
0.0329898
0.0325705
0.0320884
0.0315213
0.0308813
0.0302023
0.0295237
0.0288668
0.0282251
0.0275796
0.0269301
0.0262922
0.0256708
0.0250743
0.0244981
0.0239349
0.0234096
0.0229407
0.0225397
0.0222103
0.0219563
0.0217945
0.021782
0.0220871
0.0232387
0.0274737
0.0545264
0.0429411
0.0434204
0.0436864
0.0437623
0.0436759
0.0434556
0.0431251
0.0427069
0.0422238
0.0416952
0.0411304
0.0405323
0.0399126
0.0392762
0.038618
0.0379251
0.0371737
0.0363647
0.0355291
0.0347015
0.0338995
0.0331075
0.0322922
0.031447
0.0305829
0.0297124
0.0288417
0.0279579
0.0270636
0.0261961
0.0253868
0.0246557
0.0240186
0.0234962
0.0231289
0.0230093
0.0233667
0.0248662
0.030222
0.0635113
0.0532832
0.0538364
0.0540845
0.0540668
0.053841
0.0534697
0.0529945
0.0524331
0.0517934
0.0510738
0.0502666
0.0493795
0.0484496
0.0475151
0.0465974
0.0456849
0.0447508
0.0437879
0.0428185
0.0418636
0.0409252
0.039962
0.0389192
0.0377931
0.036591
0.0353189
0.0339853
0.0326102
0.0312269
0.029875
0.0285892
0.0273993
0.026334
0.0254291
0.0247448
0.0244018
0.0246745
0.0263197
0.032363
0.0696075
0.0663133
0.0669698
0.0672109
0.067085
0.0666958
0.0661779
0.0656083
0.0649886
0.0642888
0.0634554
0.0624341
0.0612523
0.0600245
0.0588268
0.0577
0.0566274
0.0555656
0.0544955
0.0534331
0.0523975
0.0513584
0.0502176
0.0488889
0.0473444
0.045593
0.0436649
0.041599
0.0394586
0.0373101
0.0352037
0.0331865
0.0312999
0.0295829
0.0280828
0.026874
0.0260965
0.026051
0.0275344
0.0336842
0.0721378
0.0824175
0.0832337
0.0835407
0.083356
0.0828379
0.0822695
0.081761
0.0812755
0.0807414
0.0800072
0.078906
0.0775923
0.0762992
0.0750961
0.0739867
0.0729201
0.0718423
0.070754
0.0697288
0.0687801
0.0677729
0.0664777
0.0647406
0.0625254
0.059855
0.0568362
0.0535802
0.0502012
0.0468041
0.0434763
0.0402874
0.0372928
0.0345381
0.0320726
0.0299784
0.0284119
0.0276922
0.0286259
0.0343282
0.072096
0.10163
0.10267
0.103209
0.103163
0.102793
0.102562
0.102507
0.102505
0.102479
0.102108
0.101277
0.10037
0.0996807
0.0991934
0.0987529
0.0981234
0.0972582
0.0963326
0.0956499
0.0951921
0.0944918
0.093034
0.0905691
0.0871245
0.0828318
0.0779645
0.0727426
0.0673461
0.0619364
0.0566548
0.0516135
0.0468887
0.0425164
0.0385162
0.0349659
0.0320534
0.0301311
0.0300091
0.0347243
0.0704622
0.12342
0.124731
0.125756
0.126522
0.127123
0.127957
0.128934
0.129809
0.13065
0.131274
0.13162
0.13204
0.132803
0.134142
0.135471
0.136095
0.136175
0.136375
0.137006
0.137781
0.137453
0.135419
0.131296
0.12541
0.118155
0.110256
0.101971
0.0935179
0.0850937
0.0769118
0.0691639
0.0619642
0.0552913
0.0490276
0.0432388
0.0382165
0.0344296
0.0327268
0.0361501
0.0702058
0.146048
0.148207
0.150426
0.152933
0.155646
0.158392
0.161041
0.163557
0.166087
0.168684
0.171332
0.173766
0.176855
0.1815
0.186086
0.189394
0.192605
0.196801
0.200529
0.202236
0.199785
0.194458
0.186792
0.177304
0.166265
0.154307
0.141987
0.129552
0.117228
0.105309
0.094121
0.0838579
0.0743296
0.0650382
0.0561611
0.0483263
0.0421318
0.0384244
0.0403965
0.0749504
0.167514
0.170745
0.174491
0.179253
0.184727
0.189887
0.195132
0.200629
0.205358
0.209942
0.215305
0.221259
0.229335
0.239008
0.247166
0.25543
0.26506
0.272641
0.275642
0.272923
0.266802
0.258177
0.24732
0.234755
0.221201
0.20621
0.189749
0.172883
0.156297
0.140446
0.125508
0.111851
0.0988608
0.0859007
0.0737646
0.0632572
0.0548323
0.0494223
0.0509044
0.0915588
0.184869
0.189121
0.194265
0.199747
0.205351
0.211354
0.217787
0.224733
0.231941
0.240845
0.252444
0.265399
0.278979
0.292647
0.304893
0.315262
0.322611
0.326946
0.329705
0.328689
0.323041
0.314162
0.303923
0.291881
0.276933
0.259438
0.239691
0.219032
0.198843
0.17918
0.160599
0.14277
0.125808
0.109598
0.0951245
0.0828224
0.0730839
0.0671108
0.0706574
0.128452
0.196877
0.201408
0.206698
0.212459
0.218794
0.225855
0.233437
0.241726
0.251076
0.262287
0.275206
0.288766
0.303203
0.317553
0.329418
0.339453
0.349096
0.357918
0.364809
0.367619
0.365066
0.359039
0.351642
0.342274
0.328594
0.309704
0.287396
0.264277
0.242688
0.221694
0.200505
0.179212
0.158709
0.13934
0.12117
0.105405
0.093908
0.0884238
0.0972618
0.176481
0.204792
0.209742
0.215276
0.221308
0.227915
0.235344
0.243683
0.253162
0.263951
0.27595
0.288374
0.30067
0.313098
0.325484
0.337451
0.349181
0.360802
0.371372
0.379328
0.383551
0.384933
0.385208
0.38398
0.380066
0.372354
0.358571
0.33698
0.312777
0.294176
0.274982
0.2519
0.227002
0.201691
0.177228
0.153987
0.133031
0.116258
0.108762
0.122344
0.239056
0.210384
0.215584
0.221124
0.227082
0.233564
0.240741
0.248756
0.257728
0.267682
0.278433
0.289801
0.301859
0.314482
0.327246
0.339941
0.352638
0.365159
0.376795
0.386731
0.395061
0.402841
0.410752
0.4184
0.425291
0.429479
0.42556
0.409041
0.388479
0.378883
0.364228
0.33125
0.295397
0.258241
0.223069
0.191949
0.166383
0.14646
0.135182
0.146796
0.302907
0.215054
0.220413
0.225873
0.231556
0.237593
0.244128
0.251287
0.259165
0.26781
0.277257
0.287687
0.299338
0.312266
0.326332
0.341346
0.357054
0.373038
0.388814
0.404244
0.420068
0.43827
0.46095
0.488406
0.520682
0.550381
0.559732
0.565443
0.595127
0.631832
0.601938
0.50939
0.439502
0.363507
0.295626
0.242099
0.204606
0.179331
0.163437
0.164192
0.269123
0.22018
0.225847
0.231439
0.237086
0.242927
0.249116
0.255804
0.263134
0.271284
0.28049
0.291079
0.303423
0.31783
0.334422
0.35302
0.373124
0.394057
0.415335
0.43727
0.462526
0.497413
0.542935
0.580246
0.612607
0.65474
0.696918
0.753405
0.83515
0.896805
0.877124
0.837125
0.736948
0.584951
0.459369
0.355531
0.284152
0.228306
0.194412
0.186878
0.236176
0.227197
0.233594
0.23982
0.245986
0.252233
0.258752
0.265779
0.273554
0.282406
0.292752
0.305072
0.31983
0.337343
0.357607
0.380136
0.403966
0.427839
0.450439
0.471412
0.493603
0.517883
0.528855
0.533939
0.550818
0.575504
0.604109
0.638339
0.676768
0.711398
0.739389
0.764833
0.768721
0.769173
0.746619
0.672755
0.543665
0.405447
0.296974
0.249832
0.285652
0.237664
0.245403
0.25292
0.260288
0.267656
0.27528
0.283524
0.292791
0.303612
0.316593
0.332301
0.35108
0.372798
0.396615
0.420978
0.444008
0.46369
0.477507
0.483366
0.482081
0.474666
0.467806
0.472222
0.481457
0.491266
0.500374
0.508401
0.517051
0.528183
0.543634
0.565426
0.598913
0.651531
0.716702
0.77886
0.806293
0.788718
0.604505
0.445776
0.680051
0.253077
0.262907
0.272449
0.281693
0.290794
0.300115
0.310232
0.32182
0.335726
0.352799
0.37361
0.398
0.424495
0.450052
0.471152
0.485987
0.494372
0.495723
0.488126
0.471929
0.455128
0.447673
0.449426
0.454159
0.457156
0.456114
0.45145
0.446072
0.442884
0.4436
0.449221
0.461283
0.481408
0.508062
0.53581
0.55701
0.5717
0.577263
0.552905
0.484405
0.274701
0.287519
0.299863
0.311542
0.322683
0.333851
0.345978
0.360234
0.37801
0.400606
0.428639
0.461028
0.493543
0.51841
0.528559
0.526133
0.518319
0.509043
0.496641
0.479708
0.464417
0.457472
0.456948
0.456584
0.452281
0.44328
0.431469
0.419681
0.410189
0.404291
0.402707
0.406112
0.415173
0.43007
0.450314
0.475151
0.503959
0.528343
0.50922
0.34723
0.303581
0.32041
0.336353
0.350798
0.363736
0.376086
0.389476
0.405898
0.427633
0.456819
0.494528
0.539267
0.584825
0.613073
0.602958
0.575552
0.552377
0.53651
0.522991
0.508137
0.495957
0.489801
0.485329
0.477373
0.464333
0.447886
0.430866
0.41563
0.403615
0.395535
0.391811
0.392928
0.399631
0.413007
0.434497
0.465905
0.50926
0.562936
0.60561
0.470141
0.34056
0.362453
0.382748
0.39988
0.413315
0.424847
0.437447
0.454278
0.478804
0.514544
0.564384
0.629114
0.700655
0.728255
0.686222
0.639135
0.609393
0.591743
0.578272
0.564098
0.5537
0.543106
0.527387
0.506194
0.482176
0.458783
0.438239
0.421722
0.409652
0.402057
0.398948
0.400604
0.407697
0.421302
0.442795
0.473781
0.516797
0.578386
0.669356
0.633919
0.386041
0.413585
0.438721
0.457402
0.467744
0.474566
0.483283
0.497727
0.522182
0.561701
0.622093
0.707273
0.768737
0.743494
0.719167
0.694328
0.672624
0.664264
0.663067
0.656117
0.644783
0.616958
0.574785
0.532123
0.496327
0.467997
0.446337
0.430764
0.420788
0.415944
0.415915
0.420812
0.431209
0.447997
0.4721
0.504021
0.544754
0.604999
0.72671
0.863719
0.438318
0.470264
0.497493
0.513695
0.516104
0.51494
0.517336
0.526709
0.546766
0.581557
0.634321
0.693524
0.730304
0.737805
0.721876
0.703804
0.690501
0.682783
0.680525
0.679685
0.665846
0.633151
0.583175
0.537449
0.501657
0.474628
0.455126
0.442337
0.43576
0.435005
0.439735
0.449755
0.465184
0.486584
0.514073
0.545456
0.580357
0.63541
0.775456
1.13612
0.492752
0.525112
0.545717
0.55058
0.54353
0.535935
0.532661
0.537258
0.553366
0.584436
0.633344
0.691005
0.733844
0.75631
0.758116
0.74565
0.728631
0.711611
0.694163
0.673325
0.642139
0.603288
0.565395
0.531826
0.50434
0.483227
0.468431
0.459916
0.457681
0.46151
0.47087
0.485513
0.506181
0.533195
0.562345
0.585063
0.610328
0.663321
0.818851
1.42755
0.540965
0.566139
0.576519
0.566771
0.551373
0.537291
0.528558
0.528447
0.539737
0.564813
0.605489
0.662338
0.722168
0.762907
0.778602
0.774143
0.757899
0.732894
0.699853
0.660894
0.622097
0.587084
0.5569
0.531568
0.511241
0.49619
0.486871
0.483437
0.485876
0.493597
0.507488
0.529709
0.558437
0.58551
0.60076
0.612275
0.636807
0.69369
0.862891
1.70991
0.578705
0.596359
0.589815
0.567792
0.544613
0.524797
0.511272
0.506193
0.511134
0.52705
0.5541
0.591417
0.63591
0.676392
0.698446
0.702692
0.692523
0.671665
0.647204
0.621954
0.596405
0.572231
0.55095
0.533593
0.520633
0.512142
0.508817
0.510568
0.518295
0.534324
0.55887
0.587113
0.609256
0.619598
0.627361
0.642463
0.672056
0.733988
0.913718
1.96492
0.606553
0.609906
0.585557
0.556649
0.529388
0.506574
0.490119
0.481263
0.480654
0.488449
0.504012
0.525696
0.55083
0.575302
0.59446
0.605152
0.607349
0.603731
0.597016
0.587511
0.574366
0.560328
0.548755
0.54091
0.53671
0.535703
0.539698
0.550322
0.567737
0.590001
0.612148
0.628566
0.639963
0.650268
0.663089
0.683026
0.717333
0.785678
0.977779
2.18739
0.619997
0.601399
0.570218
0.539377
0.511909
0.489334
0.472693
0.462592
0.459211
0.462368
0.471413
0.485105
0.501691
0.519226
0.535726
0.549227
0.558884
0.565291
0.569106
0.57016
0.56825
0.566339
0.566428
0.568807
0.573893
0.582018
0.593932
0.609089
0.625036
0.639856
0.653539
0.666659
0.679393
0.692408
0.70792
0.730644
0.769577
0.846102
1.0564
2.36893
0.609313
0.57978
0.549016
0.52081
0.496489
0.476948
0.462754
0.454216
0.451366
0.453953
0.461453
0.473045
0.487676
0.504207
0.521501
0.53854
0.554904
0.57072
0.584788
0.594967
0.602338
0.61073
0.620546
0.630849
0.641095
0.651104
0.661382
0.671997
0.683078
0.694933
0.707474
0.720443
0.733389
0.746739
0.762776
0.787062
0.830557
0.915436
1.14131
2.52182
0.580993
0.553785
0.528156
0.505556
0.48673
0.472281
0.462661
0.458164
0.458893
0.464617
0.474934
0.489264
0.506897
0.527084
0.549128
0.572463
0.59676
0.621775
0.645901
0.665743
0.681154
0.694743
0.70725
0.718604
0.728216
0.736268
0.743683
0.751057
0.75888
0.767631
0.777608
0.788788
0.800995
0.814308
0.830645
0.856181
0.903717
0.997439
1.23989
2.69642
0.551918
0.531388
0.51299
0.497428
0.485395
0.47751
0.474287
0.476112
0.483271
0.495604
0.512787
0.53435
0.559688
0.588116
0.618903
0.65127
0.684312
0.716869
0.747488
0.774796
0.797892
0.816085
0.829597
0.839271
0.845808
0.84987
0.852318
0.854152
0.856372
0.859937
0.865619
0.873954
0.884925
0.898084
0.914884
0.941728
0.992355
1.09523
1.35975
2.92927
0.529584
0.51697
0.506319
0.498435
0.494155
0.494241
0.499343
0.50998
0.526535
0.54898
0.576978
0.610014
0.647394
0.688249
0.73153
0.775968
0.820027
0.861968
0.900168
0.933455
0.960903
0.981414
0.994501
1.00091
1.00195
0.999041
0.993722
0.987608
0.982243
0.978929
0.978667
0.982261
0.990226
1.00222
1.01904
1.04667
1.10002
1.21216
1.50687
3.23791
0.515181
0.511001
0.508677
0.509388
0.514207
0.524071
0.539786
0.562004
0.591211
0.627348
0.669987
0.718449
0.771804
0.828862
0.88816
0.947929
1.00608
1.06031
1.10838
1.14852
1.17943
1.2001
1.21025
1.21084
1.20379
1.19128
1.17573
1.15944
1.14436
1.1321
1.12388
1.12055
1.12288
1.13148
1.14676
1.17402
1.22973
1.35175
1.68503
3.64673
0.509584
0.514241
0.521243
0.531977
0.54769
0.569494
0.598354
0.63505
0.680137
0.733298
0.793959
0.861225
0.933891
1.01045
1.08905
1.16747
1.24301
1.31262
1.37316
1.42187
1.45677
1.47692
1.48252
1.47514
1.45755
1.43302
1.40469
1.37551
1.348
1.32417
1.30548
1.29287
1.28707
1.28921
1.30094
1.32759
1.3864
1.52025
1.89931
4.15316