/*--------------------------------*- C++ -*----------------------------------*\
  =========                 |
  \\      /  F ield         | OpenFOAM: The Open Source CFD Toolbox
   \\    /   O peration     | Website:  https://openfoam.org
    \\  /    A nd           | Version:  8
     \\/     M anipulation  |
\*---------------------------------------------------------------------------*/
FoamFile
{
    version     2.0;
    format      ascii;
    class       volScalarField;
    location    "3.8";
    object      nut;
}
// * * * * * * * * * * * * * * * * * * * * * * * * * * * * * * * * * * * * * //

dimensions      [0 2 -1 0 0 0 0];

internalField   nonuniform List<scalar> 
9150
(
9.60019e-06
6.40541e-06
6.56304e-06
8.72282e-06
7.5346e-06
7.53173e-06
8.72078e-06
6.56208e-06
6.40478e-06
9.60019e-06
9.48758e-06
5.73715e-06
8.26372e-06
9.86584e-06
7.01068e-06
7.00773e-06
9.86268e-06
8.26251e-06
5.7366e-06
9.48756e-06
9.29564e-06
5.49994e-06
1.07851e-05
1.02422e-05
6.66452e-06
6.66173e-06
1.02383e-05
1.07832e-05
5.49947e-06
9.2956e-06
9.08001e-06
5.42211e-06
1.3387e-05
1.02402e-05
6.47851e-06
6.47585e-06
1.02362e-05
1.3384e-05
5.4217e-06
9.07997e-06
8.84519e-06
5.40581e-06
1.56308e-05
1.01489e-05
6.38403e-06
6.38144e-06
1.01449e-05
1.56265e-05
5.40543e-06
8.84514e-06
5.91176e-06
1.12614e-05
1.38196e-05
1.73406e-05
1.65107e-05
1.6507e-05
1.73422e-05
1.38298e-05
1.12689e-05
5.91228e-06
6.27971e-06
8.85075e-06
1.13265e-05
1.52457e-05
1.42823e-05
1.4278e-05
1.52447e-05
1.13318e-05
8.85356e-06
6.27962e-06
6.83011e-06
7.89915e-06
9.36245e-06
1.30195e-05
1.20103e-05
1.20065e-05
1.30182e-05
9.36451e-06
7.89931e-06
6.82998e-06
7.38707e-06
7.29466e-06
7.95778e-06
1.1116e-05
1.01003e-05
1.0097e-05
1.11145e-05
7.95797e-06
7.29396e-06
7.38697e-06
8.07456e-06
6.84561e-06
7.04068e-06
9.62169e-06
8.56365e-06
8.56063e-06
9.61986e-06
7.03997e-06
6.84482e-06
8.07449e-06
1.31204e-05
1.49519e-05
1.27154e-05
1.5519e-05
1.72802e-05
1.73727e-05
1.57503e-05
1.29154e-05
1.47942e-05
1.23749e-05
7.88051e-06
1.07672e-05
1.2343e-05
1.56855e-05
1.7367e-05
1.74222e-05
1.58339e-05
1.24675e-05
1.07842e-05
7.88297e-06
7.45409e-06
1.01642e-05
1.24342e-05
1.58824e-05
1.74494e-05
1.74808e-05
1.59747e-05
1.25038e-05
1.01875e-05
7.45977e-06
7.02906e-06
9.77564e-06
1.24829e-05
1.60415e-05
1.75144e-05
1.75331e-05
1.60964e-05
1.25249e-05
9.80152e-06
7.03157e-06
6.50815e-06
1.00357e-05
1.25025e-05
1.62437e-05
1.74194e-05
1.74265e-05
1.62678e-05
1.25241e-05
1.00565e-05
6.5092e-06
7.98248e-06
7.99735e-06
8.00877e-06
8.01561e-06
8.01661e-06
8.01026e-06
7.99481e-06
7.96818e-06
7.92855e-06
7.87879e-06
6.90224e-05
6.88421e-05
6.86123e-05
6.83225e-05
6.79615e-05
6.75167e-05
6.69732e-05
6.63095e-05
6.54856e-05
6.44121e-05
0.000135836
0.000135323
0.000134707
0.000133969
0.000133088
0.000132042
0.000130806
0.000129347
0.00012763
0.000125581
0.000190936
0.000190169
0.000189256
0.000188174
0.000186901
0.00018541
0.000183675
0.000181666
0.000179351
0.000176676
0.0002356
0.000234685
0.000233591
0.000232297
0.000230781
0.00022902
0.000226991
0.000224668
0.000222024
0.000219024
0.000272125
0.00027115
0.000269973
0.000268576
0.000266942
0.000265052
0.000262888
0.000260431
0.000257655
0.000254542
0.000302391
0.00030142
0.000300232
0.000298813
0.000297151
0.000295232
0.000293043
0.000290571
0.000287792
0.000284697
0.000327817
0.000326893
0.000325743
0.000324358
0.000322728
0.000320846
0.000318701
0.000316279
0.000313568
0.000310565
0.000349461
0.000348611
0.000347533
0.000346219
0.000344663
0.000342856
0.000340788
0.000338447
0.000335831
0.000332941
0.000368114
0.00036736
0.00036638
0.000365165
0.000363704
0.000361988
0.000360003
0.000357745
0.000355218
0.000352427
0.000384365
0.000383727
0.000382865
0.000381764
0.000380409
0.000378784
0.000376879
0.000374689
0.000372217
0.000369479
0.000398657
0.00039814
0.000397398
0.000396415
0.000395167
0.000393639
0.000391812
0.000389667
0.000387205
0.000384455
0.000411332
0.000410912
0.000410268
0.000409383
0.000408234
0.000406806
0.000405067
0.000402956
0.000400449
0.000397612
0.000422692
0.000422309
0.0004217
0.00042085
0.000419743
0.000418372
0.000416685
0.000414594
0.000412044
0.000409095
0.000433075
0.000432653
0.000431992
0.000431078
0.000429907
0.000428451
0.000426659
0.000424555
0.000422087
0.000419142
0.000442876
0.000442349
0.000441563
0.000440518
0.000439228
0.000437672
0.000435853
0.00043377
0.000431338
0.000428457
0.000452562
0.000451908
0.000450983
0.000449825
0.000448469
0.000446908
0.000445116
0.000443058
0.000440668
0.000437882
0.000462694
0.000461979
0.000461001
0.000459825
0.000458491
0.000456981
0.000455258
0.000453288
0.000451
0.000448356
0.000473999
0.000473343
0.000472449
0.000471358
0.000470096
0.000468662
0.000467055
0.000465232
0.000463107
0.000460628
0.00048718
0.000486753
0.000486074
0.00048518
0.00048409
0.000482805
0.000481312
0.00047957
0.000477521
0.000475116
0.000502698
0.000502601
0.00050223
0.000501603
0.000500726
0.000499588
0.000498165
0.000496425
0.000494331
0.000491853
0.000520468
0.000520742
0.000520699
0.000520339
0.000519648
0.000518591
0.000517133
0.000515268
0.000512979
0.000510248
0.000539881
0.000540444
0.000540627
0.000540412
0.000539769
0.000538632
0.000536973
0.000534867
0.000532309
0.000529241
0.000559856
0.000560457
0.000560582
0.00056024
0.000559429
0.000558071
0.0005561
0.000553607
0.000550627
0.00054708
0.000579142
0.000579453
0.000579219
0.000578502
0.000577278
0.000575509
0.000573147
0.000570201
0.000566712
0.000562657
0.000596699
0.000596479
0.000595673
0.00059443
0.000592721
0.000590504
0.00058776
0.000584446
0.000580544
0.000576026
0.000611717
0.000610866
0.000609593
0.000607945
0.000605882
0.000603344
0.000600339
0.000596833
0.000592784
0.000588133
0.000624236
0.000623078
0.000621574
0.00061975
0.000617595
0.00061506
0.000612097
0.000608667
0.000604746
0.000600339
0.000635191
0.00063404
0.000632606
0.000630928
0.000629004
0.000626777
0.00062419
0.000621262
0.000617987
0.00061433
0.000645405
0.000644558
0.000643539
0.000642372
0.000641033
0.000639481
0.000637732
0.000635788
0.00063359
0.000631064
0.000655639
0.000655455
0.000655191
0.000654857
0.000654449
0.000653956
0.000653391
0.000652717
0.000651838
0.000650648
0.000666676
0.000667419
0.000668175
0.000668932
0.000669705
0.00067049
0.000671249
0.000671927
0.000672419
0.00067259
0.000678867
0.000680723
0.000682666
0.000684673
0.000686738
0.000688838
0.000690899
0.000692871
0.000694652
0.0006961
0.00069234
0.000695356
0.000698496
0.000701726
0.000705016
0.000708329
0.000711607
0.000714777
0.000717731
0.000720327
0.000706805
0.000710939
0.000715201
0.000719544
0.000723929
0.000728315
0.000732653
0.000736872
0.000740872
0.000744522
0.000721819
0.000726982
0.000732243
0.000737557
0.000742885
0.000748194
0.000753449
0.0007586
0.000763574
0.00076826
0.000736995
0.00074306
0.000749183
0.000755325
0.000761462
0.000767584
0.00077368
0.000779736
0.000785711
0.000791522
0.000752041
0.000758877
0.00076574
0.00077261
0.000779493
0.000786408
0.000793386
0.000800445
0.00080757
0.000814683
0.000766783
0.000774295
0.000781833
0.000789412
0.000797071
0.000804871
0.000812874
0.000821121
0.000829587
0.000838131
0.000781179
0.000789333
0.000797561
0.000805909
0.00081445
0.000823267
0.000832431
0.000841964
0.000851781
0.000861675
0.000795318
0.000804151
0.000813143
0.000822362
0.00083189
0.000841803
0.000852131
0.000862814
0.000873677
0.0008844
0.000809395
0.000818958
0.000828789
0.000838962
0.000849552
0.00086059
0.000872026
0.000883694
0.000895298
0.000906
0.000823545
0.000833839
0.000844515
0.000855656
0.000867318
0.000879482
0.000892002
0.000904563
0.000916271
0.000924879
0.000837732
0.00084865
0.00086006
0.000872069
0.00088475
0.000898046
0.000911617
0.000924368
0.000933336
0.000939747
0.00085178
0.00086311
0.000875016
0.000887669
0.000901233
0.000915581
0.000929236
0.000938636
0.000945001
0.000950396
0.000865389
0.000876843
0.000888881
0.000901767
0.000915656
0.000929258
0.000938983
0.000945909
0.00095268
0.000954753
0.000877985
0.000889148
0.000900751
0.000912993
0.000925334
0.000935111
0.000942575
0.000950025
0.000954768
0.000953344
0.000888783
0.000899179
0.000909702
0.000920257
0.000929459
0.000937125
0.000944763
0.000951088
0.000952312
0.000948727
0.000897143
0.000906386
0.000915313
0.000923506
0.000930623
0.000937685
0.000944221
0.000946871
0.000945231
0.000940397
0.000902837
0.0009107
0.000917688
0.000923687
0.000929205
0.000934222
0.000937428
0.000937406
0.000934112
0.000927675
0.000906222
0.000912588
0.000917844
0.000922347
0.000926088
0.00092849
0.000928692
0.000926136
0.000920547
0.000911773
0.000907696
0.000912742
0.000916783
0.000919873
0.000921681
0.000921686
0.000919305
0.000914133
0.000905961
0.000894746
0.000908341
0.00091233
0.000915345
0.000916977
0.000916871
0.000914641
0.000909881
0.000902331
0.000891912
0.000878725
0.000908739
0.000911856
0.000913919
0.000914167
0.000912335
0.00090816
0.000901397
0.000891945
0.000879869
0.000865415
0.000909125
0.000911561
0.000912854
0.000911952
0.000908707
0.000903004
0.00089475
0.000883986
0.000870911
0.00085589
0.000909996
0.000912165
0.000913082
0.000911337
0.000907004
0.000900141
0.000890811
0.000879195
0.000865609
0.000850515
0.000911912
0.000914443
0.000915534
0.000913367
0.000908231
0.000900425
0.000890202
0.000877909
0.000863993
0.000849017
0.000914876
0.000918506
0.000920265
0.000917917
0.000912137
0.000903479
0.000892399
0.000879438
0.000865174
0.000850457
0.000918667
0.000923939
0.000926328
0.000923727
0.000917252
0.000907689
0.000895703
0.000882153
0.000867975
0.000853976
0.000923139
0.00092997
0.000932434
0.00092915
0.000921683
0.000911043
0.000898354
0.000884677
0.000870975
0.000858119
0.000928272
0.000935994
0.000937819
0.000933124
0.000924114
0.000912414
0.000899308
0.000885953
0.000873359
0.000862365
0.000933741
0.000941177
0.000941234
0.000934304
0.000923561
0.00091101
0.000898038
0.000885813
0.000875272
0.000867114
0.000938136
0.000943416
0.000940201
0.000930814
0.00091885
0.000906338
0.000894654
0.000884818
0.000877522
0.000873304
0.000939328
0.000939833
0.000932696
0.000921826
0.000910077
0.000899246
0.000890452
0.000884295
0.000881112
0.000881284
0.00093319
0.000928558
0.000919516
0.000909064
0.000899419
0.000891801
0.000886527
0.000883991
0.000884444
0.000887572
0.000919323
0.000912469
0.000903774
0.000895568
0.000889041
0.000884313
0.000881895
0.000882173
0.000885278
0.000891301
0.000901684
0.000894935
0.000888277
0.000882746
0.000878467
0.000876112
0.000876281
0.00087919
0.000885147
0.000894366
0.000883783
0.000878814
0.000874581
0.000871133
0.000869011
0.000869052
0.00087151
0.000876955
0.000886085
0.000899262
0.000868165
0.000865839
0.000864262
0.000863092
0.000863267
0.000864987
0.000869283
0.000877557
0.000890788
0.000908344
0.000857077
0.000858434
0.000859967
0.000861135
0.000861813
0.000864031
0.000870274
0.000882226
0.000899289
0.000916111
0.000854785
0.00086012
0.000862504
0.000862011
0.000861505
0.000864619
0.000874022
0.000889178
0.000903911
0.000911875
0.00086172
0.000865088
0.000863051
0.000859723
0.000859333
0.000865231
0.000877436
0.000889605
0.000894853
0.000893849
0.000867223
0.000863982
0.000857509
0.000852582
0.000853604
0.000861984
0.000871508
0.000873997
0.000870527
0.000868643
0.000866195
0.000856467
0.000846009
0.000840248
0.00084269
0.000848794
0.00084861
0.000842224
0.00083878
0.000844124
0.000856817
0.000840838
0.000827309
0.000821834
0.000822964
0.00082003
0.000809913
0.000803461
0.000808382
0.000824498
0.000838956
0.000816766
0.000801275
0.000795677
0.000789909
0.000775274
0.000763974
0.000766451
0.000783568
0.000811568
0.000810491
0.000784243
0.000769557
0.00076022
0.000741562
0.000723368
0.000720373
0.000735729
0.000766064
0.000805634
0.000770567
0.000745039
0.000731174
0.000710791
0.000685113
0.000673514
0.000683036
0.000712467
0.000755538
0.000805674
0.000723078
0.000702444
0.000683099
0.000652048
0.0006302
0.000629356
0.000652771
0.000695872
0.000750289
0.000809965
0.000676129
0.00065796
0.000628861
0.000596837
0.000581642
0.000592054
0.000628749
0.000683793
0.000747955
0.000816602
0.000636303
0.000617329
0.000579168
0.00054928
0.000540261
0.000560606
0.000608613
0.000673356
0.000746189
0.00082385
0.000602301
0.000577146
0.000538131
0.000509042
0.000503809
0.000532018
0.00058897
0.000661656
0.000743039
0.000830248
0.000580601
0.000544953
0.00050405
0.00047341
0.000469404
0.000503218
0.00056679
0.000646552
0.000737151
0.000834618
0.000570746
0.000524543
0.000476689
0.000440312
0.000434362
0.000471319
0.000539634
0.000626633
0.000727452
0.000835782
0.000561083
0.000506509
0.000450569
0.000406444
0.000396209
0.000434153
0.000506185
0.000601215
0.000712853
0.000832174
0.000546683
0.000486133
0.00042302
0.000370198
0.00035331
0.000390454
0.000466301
0.000570014
0.000692021
0.000821737
0.000537214
0.000468273
0.000396733
0.000333591
0.000306788
0.000341329
0.000421366
0.000533133
0.000663469
0.000801827
0.000528072
0.000451922
0.000372641
0.000298856
0.000259107
0.000289169
0.000373577
0.000491608
0.000627001
0.000770858
0.000517264
0.00043556
0.000349883
0.000266525
0.000212229
0.00023624
0.000325221
0.000447524
0.000584548
0.000729898
0.000503618
0.000417623
0.000326946
0.000235914
0.000167675
0.000184585
0.000278186
0.000403424
0.000539813
0.000682993
0.000486408
0.000397062
0.000302477
0.000205821
0.000126819
0.000136309
0.000233432
0.000361084
0.000496799
0.000636609
0.000466911
0.000374262
0.000276165
0.000175563
9.12671e-05
9.39412e-05
0.00019084
0.000320418
0.000457344
0.000596298
0.00044672
0.000350206
0.000248383
0.000145156
6.25036e-05
6.02193e-05
0.000149943
0.000279505
0.000419377
0.000561835
0.000425348
0.000324896
0.000219369
0.000115304
4.1328e-05
3.70375e-05
0.000111431
0.000236386
0.000378372
0.000526533
0.000404503
0.00029964
0.000190026
8.7615e-05
2.75473e-05
2.42069e-05
7.81165e-05
0.000191728
0.000331899
0.000485076
0.000384593
0.000274318
0.000160056
6.31922e-05
1.98564e-05
1.92804e-05
5.33428e-05
0.000149414
0.000280835
0.000432657
0.000364808
0.000248231
0.000129254
4.33409e-05
1.69637e-05
1.84012e-05
3.7929e-05
0.000115339
0.000233201
0.000372116
0.000347209
0.000222513
9.87e-05
2.94281e-05
1.69709e-05
1.80912e-05
2.88468e-05
9.12582e-05
0.000202081
0.000320112
0.000351695
0.00019905
6.88965e-05
2.12748e-05
1.72501e-05
1.76268e-05
2.21028e-05
6.91445e-05
0.000193372
0.000327998
0.00044442
0.000155824
3.72505e-05
1.69168e-05
1.72378e-05
1.73887e-05
1.72307e-05
3.77304e-05
0.00015938
0.000465838
7.81244e-06
7.73059e-06
7.63184e-06
7.51565e-06
7.38309e-06
7.23748e-06
7.0853e-06
6.93714e-06
6.80754e-06
6.71207e-06
6.66144e-06
6.65548e-06
6.68251e-06
6.72474e-06
6.76511e-06
6.79117e-06
6.79215e-06
6.75713e-06
6.68422e-06
6.57765e-06
6.4462e-06
6.30458e-06
6.17216e-06
6.06424e-06
5.98207e-06
5.9148e-06
5.8514e-06
5.75425e-06
5.59577e-06
5.39776e-06
5.15938e-06
4.89266e-06
4.71599e-06
1.99733e-05
2.00156e-05
1.99264e-05
1.99028e-05
1.84164e-05
1.57094e-05
3.25984e-06
6.29631e-05
6.11586e-05
5.91058e-05
5.6892e-05
5.46303e-05
5.24574e-05
5.0541e-05
4.9061e-05
4.81763e-05
4.7979e-05
4.8454e-05
4.94655e-05
5.07819e-05
5.21211e-05
5.32082e-05
5.38618e-05
5.39676e-05
5.34268e-05
5.22247e-05
5.04893e-05
4.85107e-05
4.67183e-05
4.55143e-05
4.49844e-05
4.48242e-05
4.4543e-05
4.36743e-05
4.21468e-05
3.99349e-05
3.67241e-05
3.3047e-05
2.96873e-05
2.75982e-05
2.69005e-05
2.65742e-05
2.59851e-05
2.51701e-05
2.1702e-05
1.47667e-05
4.56401e-06
0.000123012
0.000119901
0.0001164
0.000112602
0.00010865
0.000104743
0.000101137
9.81158e-05
9.59386e-05
9.47616e-05
9.45751e-05
9.51898e-05
9.62838e-05
9.7483e-05
9.84363e-05
9.88702e-05
9.85878e-05
9.7492e-05
9.55746e-05
9.29714e-05
8.9974e-05
8.70135e-05
8.45064e-05
8.25633e-05
8.09096e-05
7.91119e-05
7.67935e-05
7.3719e-05
6.97615e-05
6.49131e-05
5.94929e-05
5.42049e-05
4.99384e-05
4.66682e-05
4.37045e-05
4.03106e-05
3.58389e-05
2.92759e-05
1.94516e-05
6.73306e-06
0.00017343
0.000169581
0.000165313
0.000160709
0.000155903
0.000151095
0.000146543
0.000142545
0.000139378
0.000137221
0.000136081
0.000135779
0.000136001
0.000136377
0.000136561
0.000136271
0.000135307
0.000133556
0.000131002
0.000127736
0.000123986
0.000120103
0.000116487
0.000113254
0.000110136
0.000106802
0.000102987
9.85166e-05
9.3314e-05
8.7419e-05
8.10991e-05
7.47834e-05
6.88363e-05
6.33275e-05
5.79754e-05
5.20785e-05
4.50698e-05
3.60288e-05
2.37258e-05
8.70326e-06
0.000215447
0.000211256
0.000206653
0.000201709
0.000196542
0.000191326
0.000186293
0.000181718
0.000177873
0.000174939
0.000172937
0.000171711
0.000170975
0.000170395
0.000169662
0.000168519
0.000166781
0.000164338
0.000161154
0.000157276
0.000152845
0.000148126
0.000143565
0.000139309
0.00013501
0.000130394
0.000125302
0.000119634
0.000113362
0.000106541
9.93455e-05
9.19858e-05
8.46187e-05
7.73e-05
6.98452e-05
6.17985e-05
5.25872e-05
4.12911e-05
2.68054e-05
1.02789e-05
0.000250869
0.000246598
0.000241938
0.000236946
0.000231716
0.00022639
0.000221163
0.000216275
0.000211979
0.000208468
0.000205778
0.000203761
0.000202158
0.00020068
0.00019906
0.000197083
0.00019459
0.000191483
0.000187718
0.000183316
0.000178369
0.000173073
0.000167731
0.000162471
0.000157136
0.000151496
0.000145389
0.000138741
0.000131533
0.000123806
0.000115668
0.000107276
9.87024e-05
8.99554e-05
8.0831e-05
7.09467e-05
5.97294e-05
4.63462e-05
3.00057e-05
1.24655e-05
0.000281074
0.000276884
0.000272333
0.000267468
0.000262361
0.000257122
0.000251902
0.000246889
0.000242279
0.000238354
0.000235194
0.000232566
0.000230235
0.000227968
0.000225558
0.000222833
0.000219665
0.00021597
0.000211709
0.000206885
0.000201553
0.000195827
0.000189887
0.000183849
0.000177666
0.000171204
0.000164289
0.000156834
0.000148831
0.000140335
0.000131426
0.000122179
0.000112647
0.000102768
9.23074e-05
8.09008e-05
6.79891e-05
5.29101e-05
3.50617e-05
1.5771e-05
0.000307067
0.000303039
0.000298685
0.000294042
0.000289169
0.000284147
0.000279083
0.000274083
0.000269289
0.00026508
0.000261606
0.000258538
0.000255626
0.000252702
0.000249624
0.000246264
0.000242526
0.000238344
0.000233683
0.000228539
0.000222937
0.000216935
0.000210626
0.000204097
0.000197313
0.000190198
0.000182635
0.000174516
0.000165859
0.000156728
0.000147239
0.000137427
0.000127197
0.000116326
0.000104696
9.19289e-05
7.73819e-05
6.02552e-05
4.01481e-05
1.95024e-05
0.00032959
0.000325746
0.000321612
0.000317224
0.000312632
0.000307897
0.00030309
0.000298262
0.000293532
0.000289163
0.000285315
0.00028185
0.000278498
0.000275072
0.000271471
0.000267608
0.000263416
0.000258853
0.000253891
0.000248522
0.000242753
0.000236607
0.000230121
0.000223328
0.000216189
0.000208659
0.000200652
0.00019209
0.000182996
0.00017343
0.000163447
0.000153021
0.000142044
0.000130351
0.000117583
0.000103148
8.60936e-05
6.47255e-05
3.64176e-05
4.65918e-06
0.000349198
0.00034551
0.000341569
0.000337416
0.000333095
0.000328656
0.000324143
0.000319576
0.000314999
0.000310577
0.000306472
0.000302685
0.000299004
0.000295209
0.000291208
0.000286953
0.000282412
0.000277563
0.000272388
0.000266873
0.000261013
0.000254808
0.000248261
0.000241366
0.000234095
0.000226392
0.000218165
0.000209331
0.00019994
0.000190055
0.000179639
0.000168644
0.000156918
0.00014422
0.000130151
0.000114045
9.47641e-05
7.01738e-05
3.7776e-05
4.72388e-06
0.000366315
0.000362716
0.0003589
0.000354912
0.000350796
0.000346592
0.000342326
0.000338004
0.000333621
0.000329253
0.000325043
0.000321082
0.000317203
0.00031315
0.000308846
0.00030429
0.000299491
0.000294444
0.000289134
0.000283537
0.000277634
0.00027141
0.000264854
0.000257949
0.000250661
0.000242915
0.000234611
0.000225708
0.000216191
0.000206058
0.00019523
0.000183576
0.000170905
0.000156938
0.000141279
0.000123324
0.000102041
7.54084e-05
4.01591e-05
4.77531e-06
0.000381274
0.000377673
0.000373885
0.000369961
0.000365943
0.000361859
0.000357728
0.000353556
0.000349342
0.000345102
0.000340941
0.000336933
0.000332957
0.000328754
0.000324275
0.000319552
0.000314616
0.000309476
0.000304115
0.000298498
0.000292587
0.00028635
0.000279774
0.000272844
0.000265503
0.000257627
0.000249243
0.00024055
0.000231223
0.000221008
0.000209747
0.0001973
0.000183436
0.000167844
0.000150129
0.000129785
0.000106116
7.74873e-05
4.0569e-05
4.95689e-06
0.000394332
0.000390641
0.000386796
0.000382851
0.000378845
0.000374803
0.000370741
0.000366664
0.000362567
0.000358451
0.000354336
0.000350253
0.000346244
0.00034209
0.000337618
0.000332871
0.000327916
0.000322775
0.000317434
0.000311852
0.000305957
0.000299699
0.000293078
0.000286101
0.00027872
0.00027083
0.000262492
0.000253798
0.000244535
0.000234304
0.00022274
0.00020959
0.000194583
0.000177344
0.000157429
0.000134389
0.000107852
7.69844e-05
3.96684e-05
4.84969e-06
0.000405688
0.000401883
0.000397957
0.000393963
0.00038994
0.000385912
0.000381899
0.000377911
0.000373939
0.000369946
0.000365913
0.000361883
0.00035786
0.000353735
0.00034932
0.000344601
0.000339664
0.000334546
0.000329237
0.000323691
0.000317814
0.000311534
0.000304868
0.000297848
0.000290458
0.000282608
0.000274302
0.000265548
0.000256168
0.000245847
0.000234126
0.000220564
0.000204807
0.000186376
0.00016462
0.000139043
0.000109505
7.57268e-05
3.72046e-05
4.77184e-06
0.000415692
0.000411835
0.00040787
0.000403853
0.000399822
0.000395803
0.000391818
0.000387881
0.000383993
0.000380111
0.000376199
0.000372262
0.000368267
0.000364142
0.000359742
0.000355038
0.000350092
0.000344939
0.000339578
0.000333973
0.000328066
0.000321819
0.000315182
0.000308161
0.000300771
0.000292944
0.000284649
0.000275836
0.000266315
0.000255809
0.000243914
0.000230171
0.000214147
0.000195301
0.000172914
0.000146259
0.000115083
7.91155e-05
3.87969e-05
4.84364e-06
0.00042505
0.000421221
0.000417274
0.000413271
0.00040925
0.000405239
0.000401256
0.000397319
0.000393434
0.000389582
0.000385721
0.000381814
0.000377808
0.000373634
0.000369203
0.000364474
0.000359465
0.000354206
0.000348717
0.000342985
0.000336983
0.000330676
0.000324025
0.00031701
0.000309612
0.000301796
0.000293491
0.000284595
0.00027493
0.000264239
0.000252177
0.000238335
0.000222257
0.00020339
0.000181059
0.000154412
0.000122612
8.52541e-05
4.24518e-05
5.05158e-06
0.000434591
0.000430859
0.000426976
0.000423007
0.000418996
0.00041497
0.000410947
0.000406944
0.000402971
0.000399025
0.000395074
0.000391067
0.000386956
0.000382664
0.000378126
0.000373296
0.000368156
0.00036273
0.000357047
0.000351119
0.000344929
0.000338444
0.000331638
0.000324502
0.000317014
0.000309121
0.000300734
0.000291724
0.000281904
0.000271037
0.000258816
0.000244865
0.000228724
0.00020984
0.000187543
0.000161021
0.000129289
9.12267e-05
4.62703e-05
5.32521e-06
0.000445221
0.000441602
0.000437777
0.000433821
0.000429785
0.0004257
0.000421581
0.000417442
0.000413293
0.000409136
0.000404952
0.000400697
0.000396327
0.000391781
0.000387002
0.000381939
0.000376558
0.000370866
0.000364887
0.000358643
0.000352132
0.00034533
0.00033822
0.000330802
0.000323056
0.000314927
0.000306314
0.000297075
0.000287031
0.000275959
0.00026357
0.000249496
0.000233276
0.000214342
0.000191999
0.00016538
0.00013338
9.4652e-05
4.83702e-05
5.60353e-06
0.00045764
0.000454106
0.000450293
0.000446286
0.000442153
0.000437935
0.000433644
0.000429284
0.000424859
0.000420368
0.000415801
0.000411131
0.000406329
0.000401351
0.00039615
0.000390675
0.000384884
0.000378767
0.000372335
0.000365612
0.000358605
0.000351298
0.000343695
0.000335827
0.000327679
0.000319186
0.000310231
0.000300685
0.000290391
0.000279127
0.0002666
0.000252434
0.000236157
0.000217178
0.00019476
0.000167975
0.000135643
9.63369e-05
4.92217e-05
5.7826e-06
0.000472193
0.000468662
0.000464768
0.000460603
0.000456256
0.00045179
0.000447225
0.000442555
0.000437762
0.000432825
0.000427726
0.00042246
0.000417036
0.000411432
0.000405611
0.000399525
0.000393121
0.000386372
0.000379283
0.000371878
0.000364182
0.000356208
0.000347981
0.000339522
0.000330833
0.000321868
0.000312523
0.000302674
0.000292163
0.000280764
0.000268176
0.00025401
0.000237774
0.000218842
0.000196422
0.000169517
0.000136895
9.71311e-05
4.95279e-05
5.85623e-06
0.000488837
0.000485161
0.000481052
0.00047658
0.000471851
0.000466988
0.000462029
0.000456963
0.000451745
0.000446294
0.000440541
0.00043455
0.000428385
0.000422023
0.000415428
0.000408547
0.000401347
0.000393788
0.000385883
0.00037768
0.000369214
0.000360497
0.000351581
0.000342477
0.000333174
0.000323662
0.00031386
0.000303657
0.0002929
0.000281365
0.000268749
0.000254661
0.000238594
0.000219884
0.000197658
0.00017081
0.000138009
9.78195e-05
4.97148e-05
5.85982e-06
0.000506938
0.000502911
0.000498417
0.000493473
0.000488238
0.00048291
0.00047752
0.000472049
0.000466418
0.00046041
0.000453962
0.000447314
0.000440518
0.000433525
0.00042624
0.000418596
0.000410552
0.000402119
0.000393406
0.000384507
0.000375412
0.000366067
0.000356495
0.000346729
0.000336762
0.000326593
0.000316171
0.000305413
0.000294196
0.000282321
0.000269509
0.000255385
0.000239463
0.000221064
0.000199227
0.00017268
0.000139877
9.91929e-05
5.01058e-05
5.82274e-06
0.00052548
0.000520906
0.000515873
0.000510422
0.000504723
0.000498983
0.000493199
0.000487305
0.000481238
0.000474826
0.000468017
0.000460954
0.000453754
0.000446414
0.000438749
0.000430622
0.000422108
0.000413318
0.00040435
0.000395243
0.000385752
0.000375786
0.000365519
0.000354982
0.000344202
0.00033316
0.000321853
0.000310238
0.000298228
0.000285672
0.00027233
0.000257868
0.000241844
0.000223582
0.000202051
0.000175777
0.000142987
0.000101617
5.08697e-05
5.82556e-06
0.00054275
0.000537634
0.000532179
0.00052651
0.000520684
0.000514732
0.000508663
0.000502514
0.000496227
0.000489707
0.000482747
0.000475411
0.000468077
0.000460701
0.000452993
0.000445065
0.00043718
0.000429205
0.000421095
0.000412003
0.000401872
0.000391054
0.000379708
0.000367912
0.000355887
0.000343709
0.000331307
0.000318668
0.000305713
0.000292321
0.000278299
0.000263346
0.000247059
0.000228677
0.000207127
0.000180998
0.000148381
0.000106547
5.36607e-05
5.9612e-06
0.000557838
0.000552177
0.000546322
0.000540547
0.000534845
0.000528937
0.00052298
0.000517026
0.000510753
0.000504132
0.000497271
0.000490185
0.000483484
0.000477003
0.000470044
0.000463095
0.000456337
0.000448903
0.000440423
0.000430552
0.0004194
0.000407306
0.000394595
0.000381518
0.000368249
0.000354971
0.000341692
0.000328228
0.000314583
0.000300616
0.000286126
0.000270844
0.00025439
0.000235934
0.0002145
0.000188693
0.000156345
0.000114036
5.84948e-05
6.36458e-06
0.000570784
0.000564856
0.00055896
0.000552979
0.000546868
0.000540765
0.00053462
0.00052835
0.000521815
0.000515449
0.000509592
0.000503977
0.000498564
0.000493153
0.000487213
0.000480589
0.000472957
0.000464223
0.000454447
0.000443265
0.000430753
0.000417371
0.000403653
0.000389845
0.000376015
0.000362257
0.00034866
0.000335086
0.000321366
0.000307346
0.000292742
0.000277376
0.000261024
0.00024302
0.000222446
0.00019779
0.000166391
0.000123767
6.50591e-05
7.09562e-06
0.000582784
0.000576779
0.00057072
0.000564544
0.00055838
0.000552278
0.000546103
0.000539859
0.000533648
0.000527745
0.000522158
0.000516514
0.000510799
0.000504688
0.000497433
0.00048906
0.000479725
0.000469403
0.000458017
0.000445355
0.000431532
0.000417205
0.000402981
0.00038906
0.000375396
0.00036199
0.000349002
0.000336369
0.000323702
0.000310472
0.000296395
0.000281439
0.000265564
0.000248166
0.000228255
0.000204497
0.000173953
0.000131198
6.96313e-05
7.85468e-06
0.000595369
0.000589752
0.00058396
0.00057801
0.000571958
0.000565887
0.000559769
0.00055364
0.000547544
0.000541472
0.000535058
0.000528002
0.000520228
0.000511499
0.000501547
0.000490403
0.000478191
0.000464939
0.000450638
0.000435424
0.000419866
0.000404739
0.000390389
0.000376906
0.000364276
0.000352414
0.000341352
0.00033119
0.000320828
0.000309128
0.000295932
0.000281542
0.000266063
0.000249064
0.000229551
0.000206284
0.000176106
0.000134134
7.40218e-05
8.63504e-06
0.000610191
0.000605382
0.000600246
0.000594816
0.000589109
0.000583163
0.00057693
0.000570357
0.000563351
0.000555718
0.000547262
0.000537839
0.000527225
0.000515149
0.00050149
0.000486366
0.00047
0.00045263
0.000434564
0.000416367
0.000398835
0.000382718
0.000368472
0.000356214
0.000345426
0.000335485
0.000326944
0.000320348
0.000312884
0.000302572
0.000289107
0.000274257
0.000258919
0.000242344
0.000223333
0.000200763
0.000172047
0.00013167
7.31176e-05
9.3774e-06
0.000628101
0.000624437
0.000620272
0.000615586
0.000610334
0.000604466
0.000597872
0.000590397
0.00058185
0.00057202
0.000560748
0.000547911
0.000533384
0.000517054
0.000498938
0.000479225
0.000458261
0.000436525
0.000414667
0.000393556
0.000374297
0.000357941
0.000345135
0.000335895
0.000327995
0.000319016
0.000311816
0.000309874
0.000308428
0.000295313
0.000278399
0.000260512
0.000243584
0.000226331
0.000207523
0.000185277
0.000157207
0.000119005
6.63421e-05
8.99086e-06
0.000649046
0.000646706
0.000643666
0.000639831
0.000635075
0.000629241
0.000622163
0.00061361
0.000603344
0.000591146
0.000576853
0.000560382
0.000541731
0.000520988
0.000498348
0.000474132
0.000448811
0.000423032
0.000397658
0.000373999
0.000353957
0.000338189
0.000323925
0.000311763
0.000302924
0.000295588
0.000291231
0.000290756
0.000288977
0.000280204
0.000268608
0.000252237
0.00023071
0.00020904
0.000187843
0.000163753
0.00013554
9.80058e-05
5.29496e-05
8.56941e-06
0.00067237
0.000671372
0.000669471
0.000666492
0.000662226
0.000656439
0.000648911
0.000639386
0.000627619
0.000613414
0.000596654
0.000577324
0.000555518
0.000531421
0.000505303
0.000477539
0.000448643
0.000419263
0.000390318
0.000363446
0.000340073
0.000318777
0.000301078
0.000288476
0.00027947
0.000272637
0.000267314
0.000262466
0.000256437
0.000248552
0.0002391
0.000226865
0.000213459
0.000198648
0.000180468
0.000157088
0.000129577
9.54977e-05
5.34964e-05
9.45989e-06
0.000697178
0.000697438
0.000696611
0.000694455
0.000690702
0.000685071
0.000677317
0.000667212
0.000654564
0.000639261
0.00062129
0.000600722
0.000577651
0.000552141
0.000524269
0.000494324
0.000462903
0.000430785
0.000398961
0.000368951
0.000342098
0.000320275
0.000304965
0.000294215
0.000285813
0.000278052
0.000269603
0.000259714
0.000248078
0.000234838
0.000220422
0.000205757
0.000192399
0.000180293
0.000168157