/*--------------------------------*- C++ -*----------------------------------*\
  =========                 |
  \\      /  F ield         | OpenFOAM: The Open Source CFD Toolbox
   \\    /   O peration     | Website:  https://openfoam.org
    \\  /    A nd           | Version:  8
     \\/     M anipulation  |
\*---------------------------------------------------------------------------*/
FoamFile
{
    version     2.0;
    format      ascii;
    class       volScalarField;
    location    "3.8";
    object      p;
}
// * * * * * * * * * * * * * * * * * * * * * * * * * * * * * * * * * * * * * //

dimensions      [1 -1 -2 0 0 0 0];

internalField   nonuniform List<scalar> 
9150
(
401.086
374.071
348.594
331.401
323.098
323.095
331.39
348.579
374.055
401.072
372.238
352.664
337.031
325.227
319.251
319.248
325.22
337.02
352.651
372.225
342.964
329.373
320.856
313.094
308.992
308.99
313.089
320.848
329.363
342.953
318.265
308.21
302.77
297.401
294.436
294.434
297.396
302.764
308.202
318.255
296.986
288.014
283.467
279.289
276.846
276.845
279.285
283.461
288.007
296.977
33.954
30.2034
55.3053
69.4971
76.1507
76.0975
69.3435
55.0778
29.8827
33.5016
204.147
180.117
174.754
173.534
173.676
173.648
173.454
174.631
179.954
203.983
308.523
277.334
261.477
251.606
246.972
246.956
251.562
261.411
277.256
308.452
389.107
347.1
319.384
302.045
293.56
293.551
302.02
319.348
347.06
389.077
440.252
387.324
348.723
326.685
316.552
316.546
326.669
348.701
387.302
440.239
-49.6683
-11.5074
-23.5277
-15.3844
-19.7909
-21.1863
-16.7187
-27.4159
-16.7551
-53.1275
-41.1334
-24.0251
-42.9267
-35.8537
-40.0373
-40.8807
-36.0193
-45.9029
-26.3085
-43.8298
-83.6858
-53.3609
-85.3848
-77.7918
-74.9717
-75.1939
-78.0413
-87.1198
-54.7874
-85.7242
-262.738
-138.291
-122.264
-103.546
-87.3347
-87.4345
-104.01
-123.351
-138.993
-264.609
-410.428
-170.214
-74.4962
-44.4045
-28.6061
-28.6898
-44.7041
-74.9675
-170.719
-411.835
1779.66
1779.44
1779.22
1779.01
1778.8
1778.59
1778.39
1778.2
1778.01
1777.83
1759.98
1759.76
1759.55
1759.34
1759.13
1758.92
1758.72
1758.52
1758.33
1758.15
1740.31
1740.1
1739.88
1739.68
1739.47
1739.27
1739.07
1738.89
1738.71
1738.54
1720.65
1720.44
1720.24
1720.03
1719.83
1719.63
1719.44
1719.25
1719.07
1718.91
1701
1700.8
1700.6
1700.4
1700.2
1700.01
1699.81
1699.63
1699.46
1699.29
1681.36
1681.16
1680.97
1680.77
1680.58
1680.39
1680.2
1680.03
1679.85
1679.67
1661.72
1661.53
1661.35
1661.16
1660.97
1660.79
1660.61
1660.43
1660.25
1660.07
1642.1
1641.92
1641.75
1641.57
1641.39
1641.2
1641.03
1640.85
1640.68
1640.52
1622.51
1622.36
1622.19
1622.01
1621.82
1621.63
1621.45
1621.28
1621.12
1620.97
1603.22
1602.98
1602.74
1602.51
1602.29
1602.07
1601.88
1601.7
1601.55
1601.43
1583.91
1583.59
1583.29
1583
1582.72
1582.46
1582.23
1582.05
1581.93
1581.85
1564.51
1564.16
1563.8
1563.44
1563.08
1562.72
1562.42
1562.24
1562.18
1562.19
1545.21
1544.8
1544.35
1543.89
1543.36
1542.83
1542.21
1542
1542.18
1542.44
1525.99
1525.55
1525.04
1524.47
1523.78
1522.74
1524.17
1524.99
1522.12
1522.82
1507.1
1506.79
1506.47
1506.13
1505.83
1505.96
1509.81
1510.29
1505.59
1504.54
1488.27
1488.05
1487.83
1487.6
1488.6
1489.73
1490.33
1490.39
1489.88
1487.13
1469.58
1469.51
1469.54
1469.74
1471.91
1473.13
1473.25
1472.93
1471.78
1468.58
1450.63
1450.56
1450.57
1450.73
1452.26
1458.02
1456.87
1452.43
1451.24
1449.75
1431.54
1431.39
1431.24
1431.07
1431.29
1431.48
1431.12
1430.73
1430.27
1429.6
1412.58
1412.39
1412.19
1411.96
1411.74
1411.49
1411.15
1410.73
1410.23
1409.66
1393.7
1393.49
1393.24
1392.96
1392.63
1392.23
1391.72
1391.09
1390.43
1389.78
1374.94
1374.72
1374.45
1374.13
1373.69
1373.25
1372.47
1371.39
1370.53
1369.83
1356.31
1356.14
1355.96
1355.56
1355.31
1355.66
1356.01
1354.44
1358.96
1359.53
1337.83
1337.78
1337.54
1337.9
1338.02
1340.24
1341.46
1343.68
1343.33
1340.47
1319.27
1320.07
1319.72
1323.76
1325.11
1324.91
1321.74
1321.77
1321.41
1320.78
1304.37
1303.29
1306.48
1303.71
1311.01
1303.71
1303.39
1303.49
1304.16
1305.02
1281.74
1283.85
1284.33
1283.9
1287.56
1283.33
1284.02
1284.16
1284.52
1289.16
1262.31
1262.93
1263.62
1264.13
1264.18
1264.1
1263.68
1268.84
1270.37
1264.95
1243.35
1243.46
1243.61
1243.91
1244.1
1246.37
1247.52
1248.33
1246.78
1245.45
1223.63
1223.54
1223.56
1224.62
1226.6
1227.3
1227.57
1227.28
1226.33
1225.5
1203.23
1203.5
1203.94
1205.57
1207.56
1208.08
1207.89
1206.7
1205.6
1204.8
1183.79
1183.9
1184.64
1184.97
1186.52
1190.42
1189.07
1185.4
1184.24
1183.63
1163.16
1162.82
1163.76
1163.74
1163.98
1166.31
1164.25
1162.46
1162.01
1161.57
1143.26
1142.59
1142.56
1142.46
1142.32
1142.09
1141.6
1141
1140.47
1139.94
1122.51
1122.16
1121.83
1121.47
1121.09
1120.63
1120.09
1119.49
1118.88
1118.28
1102.32
1101.78
1101.24
1100.67
1100.09
1099.46
1098.8
1098.09
1097.46
1096.77
1082.22
1081.49
1080.77
1080.03
1079.23
1078.46
1077.62
1076.75
1075.92
1074.92
1062.12
1061.2
1060.29
1059.37
1058.43
1057.44
1056.42
1055.31
1054.01
1052.29
1041.89
1040.8
1039.75
1038.72
1037.69
1036.66
1035.63
1034.49
1032.99
1031.2
1021.15
1020.01
1018.86
1017.8
1016.77
1015.81
1014.88
1013.83
1012.79
1014.02
999.834
998.681
997.485
996.351
995.186
994.038
992.764
991.365
991.646
997.112
978.662
977.229
975.844
974.461
973.024
971.421
969.505
968.534
971.883
979.498
957.502
955.722
954.077
952.464
950.787
948.821
946.989
948.332
953.443
962.611
935.835
933.816
931.922
930.044
928.049
925.996
925.93
929.274
934.81
939.07
913.532
911.029
908.309
905.388
902.959
903.701
907.256
910.671
913.636
916.57
891.331
888.375
885.3
883.705
886.111
889.072
891.137
893.245
895.541
896.188
869.851
867.164
866.294
869.711
873.327
875.309
876.697
878.137
879.581
877.048
849.153
847.994
850.853
861.213
863.557
864.112
864.486
864.987
863.222
857.32
829.81
830.886
835.89
852.771
852.349
851.926
852.343
849.607
841.269
832.724
809.818
811.058
828.741
826.926
842.748
831.581
835.772
818.226
805.567
801.645
787.692
798.62
808.875
798.584
802.289
797.063
788.848
781.378
777.112
775.229
757.274
785.768
782.296
779.255
775.565
771.023
765.769
760.745
756.775
753.504
735.198
765.997
759.764
757.597
753.412
748.78
744.178
739.828
735.745
731.875
713.45
743.718
737.602
735.601
731.919
727.494
723.169
719.038
715.07
711.335
692.187
721.59
716.29
713.959
710.898
706.846
702.85
699.007
695.313
691.803
672.894
710.723
696.007
694.728
691.594
687.655
683.864
680.263
676.823
673.539
654.146
687.15
674.784
675.204
672.69
669.08
665.625
662.394
659.275
656.37
639.268
662.23
652.45
655.341
654.391
651.365
648.31
645.48
642.746
640.086
627.925
636.068
627.614
634.848
636.721
634.588
631.979
629.563
627.257
625.052
611.242
613.618
608.275
618.088
621.808
619.739
617.041
614.7
612.575
610.598
594.88
595.661
594.905
603.858
608.272
606.021
602.82
600.17
597.832
595.695
581.535
581.976
585.009
589.677
593.596
591.252
587.839
585.011
582.668
580.929
570.167
571.507
572.06
572.966
575.554
573.96
571.681
570.525
570.353
568.691
557.578
557.708
555.096
555.312
556.605
557.295
557.523
557.419
558.581
558.211
541.903
538.798
537.594
538.963
538.605
541.366
543.121
543.293
540.712
535.55
521.55
518.497
521.092
518.25
524.888
525.505
521.502
520.528
518.203
514.94
499.115
500.571
499.545
503.725
501.273
502.464
501.474
499.62
497.665
496.594
479.268
479.448
478.685
481.528
485.142
485.844
485.157
483.241
481.438
484.642
459.068
457.059
459.367
466.34
472.761
474.592
473.532
471.414
470.826
474.38
446.076
449.927
464.498
472.742
463.877
470.061
467.548
464.61
465.448
467.51
446.377
467.581
471.62
457.518
459.866
463.113
452.295
455.422
457.18
456.61
460.831
457.393
450.983
449.115
439.01
439.234
444.046
446.741
445.575
441.795
441.698
438.692
434.635
430.565
426.201
430.235
432.369
432.442
429.148
420.169
428.448
422.939
419.431
415.374
416.826
422.081
420.812
416.962
407.452
391.233
393.745
397.797
397.954
401.565
408.843
411.516
402.401
393.914
378.754
360.199
383.693
383.007
385.142
394.057
398.412
390.432
382.577
368.334
350.899
330.933
361.513
363.255
374.322
388.804
382.751
373.99
360.267
343.822
324.831
303.503
341.55
350.611
380.902
377.067
368.339
354.478
338.589
320.576
300.283
278.113
335.25
356.977
371.815
345.43
340.187
329.471
314.712
296.884
276.698
254.773
316.487
350.586
337.483
331.576
324.174
311.345
295.144
276.692
256.49
234.961
332.171
333.21
331.054
321.091
307.319
292.372
276.101
258.238
239.017
218.857
325.65
306.032
297.762
294.02
284.468
271.904
257.568
241.623
224.389
206.667
303.738
276.907
275.825
271.63
264.173
254.133
242.02
228.377
213.758
199.557
290.478
278.022
270.474
261.79
252.095
241.418
229.828
217.789
206.016
196.451
288.687
272.198
257.912
246.538
236.061
225.545
214.8
204.266
194.999
189.685
247.481
241.065
231.386
222.072
213.585
205.04
195.977
186.846
178.661
172.826
198.343
202.478
199.626
193.947
188.376
182.397
175.478
168.301
162.044
157.001
166.029
171.303
170.875
167.461
164
159.96
154.743
149.125
144.156
138.809
142.791
145.246
145.809
144.003
141.757
138.704
134.404
129.657
125.354
119.652
129.85
127.9
126.534
124.35
121.846
118.602
114.294
109.471
104.766
97.5209
116.085
112.006
109
106.304
103.285
99.5456
94.9023
89.5306
83.8533
74.5917
93.8509
93.3874
92.057
89.7335
86.3509
82.2018
77.4113
71.948
66.1606
56.4677
83.8928
80.7659
77.8246
74.3692
70.2401
65.785
61.1134
56.3392
51.6164
43.0089
61.0203
62.2225
60.9111
57.8838
54.2008
50.0374
45.4241
40.8638
35.1373
24.3149
46.9044
47.9758
46.9299
43.7703
40.4921
36.5176
31.7585
27.1873
19.6711
8.73555
36.6261
36.7431
35.8864
32.095
28.8839
24.8925
20.0783
15.8411
7.3776
-0.215131
31.8551
28.8841
26.521
21.5782
18.1626
14.1623
9.59968
5.92308
-2.38236
-5.19722
21.6445
17.9092
14.7821
10.5531
7.62758
4.21544
0.584366
-2.60962
-9.75002
-8.50059
-0.95984
6.72064
3.54572
1.04906
-1.70119
-4.15979
-5.42558
-7.31622
-9.34585
-12.4488
-20.9385
7.76624
-4.817
-6.14201
-10.0029
-11.9026
-9.50374
-11.0782
0.0256671
-25.697
1777.66
1777.48
1777.32
1777.17
1777.03
1776.91
1776.79
1776.66
1776.54
1776.4
1776.27
1776.13
1776
1775.88
1775.77
1775.69
1775.58
1775.52
1775.47
1775.43
1775.4
1775.37
1775.34
1775.31
1775.28
1775.26
1775.25
1775.24
1775.25
1775.26
1775.29
1775.33
1775.36
1775.37
1775.39
1775.43
1775.47
1775.51
1775.54
1775.56
1757.98
1757.82
1757.67
1757.55
1757.44
1757.36
1757.28
1757.21
1757.12
1757.01
1756.87
1756.72
1756.56
1756.4
1756.27
1756.15
1756.04
1755.93
1755.88
1755.85
1755.84
1755.83
1755.82
1755.79
1755.74
1755.69
1755.66
1755.63
1755.62
1755.64
1755.67
1755.75
1755.78
1755.83
1755.86
1755.89
1755.92
1755.94
1755.97
1755.98
1738.37
1738.22
1738.09
1737.96
1737.86
1737.79
1737.72
1737.65
1737.57
1737.47
1737.34
1737.19
1737.04
1736.89
1736.73
1736.6
1736.48
1736.38
1736.31
1736.26
1736.22
1736.2
1736.19
1736.19
1736.18
1736.16
1736.14
1736.13
1736.14
1736.18
1736.59
1736.77
1736.72
1736.31
1736.37
1736.35
1736.35
1736.38
1736.4
1736.44
1718.74
1718.58
1718.44
1718.31
1718.21
1718.12
1718.05
1717.98
1717.9
1717.81
1717.7
1717.57
1717.45
1717.31
1717.17
1717.04
1716.93
1716.83
1716.74
1716.64
1716.5
1716.93
1716.82
1716.57
1716.65
1716.67
1716.68
1716.7
1716.73
1716.9
1717.28
1717.33
1717.27
1717.14
1716.86
1716.79
1716.78
1716.88
1716.86
1716.89
1699.11
1698.94
1698.78
1698.64
1698.51
1698.39
1698.29
1698.18
1698.08
1697.99
1697.92
1697.86
1697.77
1697.68
1697.58
1697.5
1697.42
1697.36
1697.32
1697.29
1697.44
1698.39
1698.33
1697.7
1697.36
1697.3
1697.29
1697.28
1697.29
1697.32
1697.55
1697.61
1697.66
1697.56
1697.62
1697.65
1697.66
1697.68
1697.75
1697.81
1679.49
1679.3
1679.13
1678.96
1678.79
1678.63
1678.46
1678.27
1677.97
1677.87
1677.99
1678.06
1678.06
1678.03
1677.99
1677.96
1677.94
1677.92
1677.94
1677.99
1678.21
1678.82
1678.75
1678.57
1678.35
1677.95
1677.9
1677.89
1677.91
1677.98
1678.12
1678.23
1678.35
1678.41
1678.14
1678.13
1678.23
1678.31
1678.56
1678.46
1659.89
1659.71
1659.52
1659.34
1659.15
1658.95
1658.71
1658.35
1660.42
1660.24
1658.21
1658.34
1658.4
1658.43
1658.44
1658.44
1658.45
1658.47
1658.53
1658.63
1658.8
1659.12
1659.3
1659.37
1659.28
1658.66
1658.52
1658.42
1658.36
1658.27
1658.48
1658.46
1658.7
1658.75
1658.68
1658.68
1658.86
1658.97
1658.96
1659.02
1640.35
1640.18
1640.01
1639.86
1639.71
1639.58
1639.45
1640.07
1640.87
1640.8
1639.86
1639.05
1638.96
1638.96
1638.94
1638.95
1638.95
1638.97
1639.02
1639.09
1639.21
1639.37
1639.5
1640.71
1640.29
1639.1
1639.27
1638.82
1639.59
1639.82
1639.9
1639.61
1639.71
1639.56
1639.97
1639.91
1639.63
1639.32
1639.46
1639.62
1620.82
1620.68
1620.54
1620.43
1620.33
1620.27
1620.27
1621.17
1621.43
1621.3
1621.05
1620.24
1619.55
1619.48
1619.45
1619.43
1619.42
1619.43
1619.44
1619.46
1619.49
1619.5
1619.45
1619.69
1619.44
1619.47
1619.54
1619.21
1620.31
1620.01
1619.89
1619.9
1620.1
1619.91
1619.87
1620.3
1620.33
1620.1
1619.93
1620.36
1601.33
1601.18
1601.07
1600.99
1600.92
1600.9
1600.95
1601.26
1601.95
1602.04
1601.63
1600.61
1600.17
1600.02
1599.96
1599.93
1599.92
1599.9
1599.89
1599.88
1599.87
1599.84
1599.78
1599.7
1599.57
1599.42
1599.43
1599.66
1599.89
1600.07
1600.24
1600.33
1600.37
1600.33
1600.23
1600.03
1599.98
1599.88
1600.24
1600.71
1581.77
1581.65
1581.56
1581.47
1581.38
1581.28
1581.19
1581.04
1580.9
1582.53
1580.76
1581.12
1580.6
1580.37
1580.38
1580.41
1580.41
1580.41
1580.5
1580.39
1580.34
1580.28
1580.16
1579.93
1579.5
1579.3
1580.06
1579.43
1580.06
1580.52
1580.72
1580.84
1580.89
1580.82
1580.65
1580.36
1579.88
1579.43
1579.83
1580.73
1562.19
1562.15
1562.11
1562.05
1561.98
1561.9
1561.81
1561.73
1561.78
1561.67
1560.23
1560.1
1559.5
1559.97
1560.54
1560.79
1560.91
1560.96
1561.37
1561.02
1561.04
1561.05
1561.05
1560.95
1561.04
1563.03
1563.67
1562.95
1561.59
1561.4
1561.58
1561.77
1561.84
1561.82
1561.7
1561.44
1561.08
1562.21
1563.29
1562.96
1542.61
1542.69
1542.72
1542.7
1542.66
1542.62
1542.57
1542.49
1542.33
1542.11
1542.01
1544.94
1544.97
1542.29
1541.36
1541.67
1541.79
1541.79
1541.94
1541.76
1541.83
1542.03
1542.29
1542.54
1543.8
1544.91
1544.96
1544.79
1544.45
1544
1542.84
1542.99
1543.15
1543.27
1543.37
1543.44
1543.6
1545.22
1545.35
1545.61
1523.22
1523.39
1523.45
1523.52
1523.46
1523.4
1523.35
1523.25
1523.62
1526.47
1526.7
1526.77
1526.64
1526.27
1523.84
1523.2
1523.03
1522.87
1522.65
1523.05
1523.77
1522.96
1523.68
1524.25
1524.78
1526.75
1526.96
1526.98
1526.89
1526.68
1524.76
1524.58
1524.69
1524.89
1525.17
1525.55
1526.05
1527.92
1528.24
1528.24
1504.68
1504.68
1504.56
1504.56
1504.49
1504.45
1504.5
1504.64
1505.17
1509.05
1509.28
1509.27
1508.96
1507.95
1505.09
1504.62
1504.34
1504.17
1504.11
1505.01
1505.63
1504.78
1504.93
1506.18
1506.93
1507.17
1507.44
1509.45
1509.58
1507.81
1505.97
1505.84
1505.96
1506.19
1506.59
1507.08
1507.72
1508.75
1510.23
1510.74
1486.5
1486.13
1485.75
1485.56
1485.43
1485.35
1485.39
1485.55
1485.92
1487.02
1488.84
1490.2
1488.01
1486.47
1485.84
1485.52
1485.31
1485.22
1485.17
1486.03
1486.14
1486.07
1485.79
1485.69
1487.42
1486.43
1487
1487.39
1487.35
1487
1486.69
1486.73
1486.87
1487.11
1487.46
1487.87
1488.38
1488.82
1489.31
1489.19
1467.81
1467.22
1466.71
1466.38
1466.13
1465.96
1465.92
1466
1466.21
1466.53
1466.83
1466.84
1466.98
1466.71
1466.41
1466.04
1465.83
1466.14
1465.79
1466.75
1467.31
1467.4
1467.6
1467.89
1467.91
1467.1
1467.3
1467.48
1467.7
1467.75
1467.56
1467.54
1467.64
1467.83
1468.09
1468.4
1468.74
1469.03
1469.28
1469.33
1448.81
1448.01
1447.47
1446.95
1446.6
1446.33
1446.2
1446.19
1446.28
1446.45
1446.62
1446.67
1446.51
1446.23
1446.32
1446.21
1445.99
1446.07
1446.52
1446.84
1447.25
1447.66
1448.5
1448.12
1447.73
1448.63
1447.98
1448.75
1447.99
1447.96
1447.98
1448.06
1448.19
1448.38
1448.63
1448.87
1449.15
1449.33
1449.61
1449.79
1428.91
1428.27
1427.69
1427.21
1426.74
1426.36
1426.19
1426.18
1426.23
1426.37
1426.45
1426.45
1426.33
1426.17
1426.17
1426.17
1426.48
1426.79
1426.44
1427.24
1427.5
1427.58
1427.61
1427.73
1427.96
1428.18
1428.07
1428.46
1428.28
1428.12
1428.31
1428.5
1428.71
1428.94
1429.19
1429.43
1429.67
1429.88
1430.19
1430.36
1409.05
1408.43
1407.88
1407.36
1406.74
1406.5
1406.13
1405.95
1406.19
1406.42
1406.44
1406.45
1406.15
1405.93
1405.81
1406.05
1406.21
1406.42
1406.85
1407.1
1407.34
1407.62
1407.74
1407.78
1407.89
1407.98
1408.08
1408.18
1408.28
1408.47
1408.71
1408.99
1409.29
1409.59
1409.89
1410.18
1410.45
1410.71
1410.96
1411.44
1389.19
1388.64
1388.29
1387.88
1386.93
1386.16
1385.76
1385.55
1385.81
1386.63
1387.59
1386.88
1386.26
1385.65
1386.43
1385.7
1386.09
1386.71
1386.89
1387.44
1387.68
1387.86
1387.66
1387.89
1387.89
1387.92
1387.98
1388.13
1388.36
1388.67
1389.04
1389.46
1389.89
1390.3
1390.71
1391.1
1391.45
1391.75
1392
1392.38
1368.98
1368.91
1369.07
1369.56
1368.24
1370.66
1371.05
1371.37
1372.02
1368.88
1374.36
1368.69
1369.75
1369.54
1369.21
1368.69
1367.78
1366.4
1368.19
1368.13
1367.77
1367.8
1367.98
1367.86
1367.69
1367.64
1367.71
1367.9
1368.23
1368.7
1369.29
1369.91
1370.52
1371.09
1371.67
1372.22
1372.7
1373.09
1373.41
1373.61
1359.72
1357.35
1352.18
1360.39
1352.55
1351.98
1352.35
1351.57
1351.38
1353.7
1354.04
1353.03
1352.09
1349.89
1350.65
1348.48
1351.15
1348.44
1346.07
1347.2
1348.32
1348.59
1348.16
1347.68
1347.25
1347.02
1347.01
1347.2
1347.67
1348.42
1349.36
1350.37
1351.22
1351.97
1352.76
1353.57
1354.26
1354.79
1355.18
1355.3
1337.31
1336.25
1334.29
1333.4
1333.59
1333.41
1333.01
1333.18
1332.29
1334.13
1335.38
1335.39
1332.27
1333.1
1335.14
1334.2
1331.76
1337.07
1343.6
1333.05
1331.65
1331.09
1330.08
1329.35
1328.09
1327.44
1327.34
1327.49
1327.59
1328.55
1329.37
1331.42
1332.11
1332.68
1333.91
1335.14
1336.14
1336.87
1337.32
1337.53
1320.26
1320.27
1320.84
1332.97
1339.89
1341.97
1341.9
1342
1341.31
1336.87
1325.92
1331
1325.61
1328.35
1329.55
1332.08
1335.03
1335.41
1330.86
1324.25
1320.92
1317.78
1314.06
1312.2
1313.02
1313.9
1313.99
1315.19
1316.99
1316.83
1313.97
1316.38
1314.07
1315.28
1315.19
1317.01
1318.33
1319.31
1319.84
1319.93
1306.05
1307.54
1323.66
1326.55
1320.27
1313.47
1313.87
1311.81
1311.2
1314.51
1309.82
1316.78
1318.95
1319.8
1320.13
1319.28
1311.83
1310.89
1309.44
1304.82
1299.21
1298.8
1294.22
1292.61
1292.54
1293.1
1295.02
1294.2
1293.76
1295.05
1297.61
1298.27
1302.57
1303.55
1301.94
1300.28
1301.36
1302.38
1303.18
1303.52
1286.21
1288.33
1288.54
1285.54
1286.51
1287.55
1288.46
1288.67
1289.14
1290.44
1291.44
1291.11
1296.83
1302.06
1292.01
1293.14
1293
1291.12
1285.39
1283.57
1281.72
1277.55
1274.98
1272.92
1272.31
1269.94
1267.52
1267.4
1270.8
1277.4
1279.8
1280.69
1284.36
1287.06
1287.65
1285.32
1284.12
1285.52
1287.24
1288.07
1265.16
1266.04
1266.53
1266.69
1267.28
1268.05
1268.55
1269.95
1274.44
1275.87
1274.48
1272.1
1277.33
1273.36
1270.42
1269.5
1269.01
1267.82
1266.4
1267.38
1260.47
1261.86
1260.85
1258.13
1253.32
1251.47
1253.23
1254.12
1252.29
1255.93
1262.11
1266.62
1269.02
1270.42
1270.09
1269.88
1275.14
1272.56
1270.94
1274.29
1245.34
1245.63
1245.89
1246.1
1246.6
1247.17
1247.98
1248.62
1248.72
1251.27
1251.57
1249.08
1249.63
1249.24
1248.6
1247.99
1247.14
1245.72
1243.42
1240.62
1237.62
1234.66
1231.96
1231.64
1236.82
1244.34
1241.99
1237.04
1246.19
1239.54
1247.78
1252.97
1256.61
1259.52
1261.21
1259.76
1261.08
1260.84
1259.8
1260.7
1225.15
1225
1225.05
1225.17
1225.32
1225.39
1225.74
1226.07
1226.24
1226.29
1226.39
1226.67
1227.1
1227.17
1226.91
1226.36
1225.41
1223.79
1221.25
1218.42
1216.7
1218.97
1221.36
1225.16
1227.91
1229.03
1232.4
1235.81
1242.27
1236.03
1239.95
1244.91
1248.08
1250.12
1252.07
1252.69
1249.45
1251.91
1249.21
1251.88
1204.19
1204.04
1203.83
1203.67
1203.59
1203.56
1203.61
1203.73
1203.86
1204.02
1204.27
1204.64
1205.02
1205.3
1205.45
1205.39
1204.86
1203.33
1201.07
1202.17
1213.48
1221.8
1225.1
1227.99
1230.38
1232.52
1234.6
1236.68
1237.84
1238.52
1243.06
1245.92
1239.39
1241.34
1240.35
1242.14
1242.39
1240.63
1241.63
1240.71
1182.8
1182.62
1182.23
1181.91
1181.72
1181.59
1181.37
1181.37
1181.46
1181.65
1181.97
1182.43
1183.02
1183.75
1184.65
1185.65
1186.32
1186.38
1189.06
1201.04
1215.76
1218.21
1219.12
1218.46
1218.95
1220.05
1222.79
1226.08
1228.93
1234.36
1237.02
1240.55
1242.72
1243.32
1244.34
1238.41
1233.92
1230.34
1226.24
1227.54
1161.12
1160.75
1160.34
1160.04
1159.68
1159.67
1159.03
1158.94
1158.96
1159.09
1159.37
1159.85
1160.53
1161.58
1163.09
1164.97
1166.81
1168.46
1173.11
1187.28
1209.52
1212.79
1206.63
1206.6
1208.43
1205.28
1203.59
1204.49
1208.39
1214.63
1219.13
1219.72
1223.28
1228.58
1230.84
1231.13
1231.63
1230.06
1228.75
1228.31
1139.39
1138.88
1138.44
1138.05
1137.66
1137.27
1136.92
1136.64
1136.44
1136.33
1136.38
1136.65
1137.15
1138.01
1139.45
1141.49
1143.87
1146.14
1149.13
1155.85
1164.3
1166.54
1165.99
1165.53
1166.31
1167.45
1169.32
1172.37
1176.8
1182.09
1187.35
1192.51
1198.4
1205.47
1212.43
1214.38
1212.68
1217.68
1224.06
1224.37
1117.67
1117.11
1116.69
1116.37
1116.04
1115.64
1115.16
1114.68
1114.19
1113.85
1113.93
1114.38
1113.64
1111.88
1112.54
1114.63
1116.54
1117.54
1117.97
1119.3
1121.31
1122.09
1123.08
1125.14
1128.02
1131.38
1135.32
1139.94
1145.31
1151.08
1157.06
1163.29
1169.97
1177.08
1184.05
1190.49
1197.08
1202.71
1203.31
1212
1095.96
1095.31
1095.08
1095.29
1095.19
1095.04
1093.99
1093.15
1092.24
1091.57
1091.39
1088.98
1079.59
1067.19
1071.23
1078.98
1085.78
1085.63
1078.39
1072.13
1074.51
1078.2
1081.88
1086.34
1091.25
1096.45
1101.95
1107.63
1113.51
1119.53
1125.76
1132.23
1139.1
1146.38
1153.94
1161.67
1169.27
1175.47
1177.76
1175.51
1073.59
1072.29
1072.41
1074.93
1076.45
1075.75
1074.43
1072.69
1071.15
1069.12
1065.08
1056.86
1054.07
1056.11
1052.45
1052.75
1063.37
1061.14
1048.12
1045.85
1041.14
1044.82
1049.94
1055.52
1061.73
1067.62
1073.42
1079.17
1084.89
1090.36
1095.94
1101.59
1107.62
1114.18
1121.52
1129.74
1138.38
1146.15
1150.08
1148.27
1050.05
1048.76
1055.63
1071.76
1057.87
1056.99
1055.42
1053.6
1050.92
1047.56
1049.21
1048.49
1047.69
1047.48
1047.06
1046.43
1046
1045.32
1044.84
1044.58
1044.27
1046.03
1043.39
1040.95
1045.66
1048.86
1052.56
1056.66
1060.72
1064.54
1067.91
1071.26
1075.26
1080.31
1086.91
1095.14
1104.29
1113.11
1119.23
1119.39
1031.43
1038.65
1063.03
1058.19
1043.14
1039.85
1039.02
1038.58
1037.94
1040.68
1046.1
1045.86
1045.94
1045.95
1045.68
1045.39
1045.19
1045.03
1044.97
1044.96
1044.95
1045.55
1042.67
1036.34
1036.03
1035.9
1037.03
1039.03
1041.12
1042.66
1044.04
1046.51
1049.99
1052.67
1058.41
1064.82
1070.19
1079.1
1086.63
1089.37
1021.12
1038.26
1044.37
1021.71
1016.56
1018.27
1021.47
1024.84
1029.34
1038.14
1044.87
1045.28
1045.42
1045.42
1045.29
1045.04
1044.77
1044.5
1044.09
1043.53
1042.62
1038.81
1030.81
1024.4
1022.95
1022.5
1023.16
1024.89
1027.23
1030.84
1036.19
1040.4
1043.25
1047.62
1050.52
1044.61
1046.15
1050.67
1056.64
1061.5
1007.14
1016.47
1009.46
1000.92
998.035
1000.76
1004.47
1008.79
1014.55
1022.85
1036.8
1042.77
1043.08
1043.24
1043.22
1043
1042.47
1041.7
1040.26
1036.11
1028.14
1019.25
1013.05
1010.19
1009.22
1009.43
1011.16
1014.7
1019.28
1023.93
1027.09
1029.77
1032.23
1034.55
1032.15
1028.1
1028.69
1028.56
1031.46
1036.88
988.589
990.67
984.558
978.206
978.172
980.735
984.051
988.185
993.394
1000.74
1011.11
1019.59
1027.42
1031.81
1031.75
1030.69
1028.03
1022.23
1016.95
1011.19
1003.76
998.326
995.966
995.311
996.559
999.575
1004.01
1009.65
1013.15
1015.53
1017.69
1018.97
1019.25
1016.7
1013.93
1012.05
1010.2
1011.86
1011.37
1016.12
966.5
963.265
957.106
954.611
955.956
958.145
961.128
964.53
967.737
971.949
975.569
978.855
982.614
986.805
991.153
991.479
988.736
986.348
983.777
983.182
983.676
981.114
980.167
983.155
990.261
996.837
1000.49
1002.71
1004.46
1005.61
1005.86
1004.48
1001.83
997.827
995.349
994.284
993.866
994.192
995.734
998.369
940.705
936.34
931.681
931.895
933.428
935.444
937.851
940.341
943.094
946.076
949.043
951.669
953.796
956.107
958.674
960.448
959.407
956.934
957.506
961.817
969.098
971.406
979.401
985.743
987.816
990.136
991.301
991.869
991.351
989.768
987.633
985.106
982.257
980.393
979.397
978.777
978.922
979.877
981.158
982.9
915.764
911.664
909.426
909.733
910.695
912.116
914.141
916.056
918.379
921.059
923.888
926.778
930.073
933.694
937.914
942.41
945.339
951.884
961.834
964.068
966.3
970.002
972.439
973.187
973.114
972.211
972.409
971.917
970.715
968.846
966.941
965.933
965.403
964.807
963.893
962.912
965.024
965.681
967.3
968.883
892.826
889.093
887.751
887.407
887.597
888.3
889.463
890.895
893.165
895.435
897.559
900.18
903.618
907.558
912.265
917.926
923.423
931.657
941.847
943.631
942.394
942.712
944.306
946.92
948.014
948.14
947.764
947.658
947.958
948.562
949.238
949.843
950.335
950.549
950.36
950.56
968.862
956.557
955.583
956.89
871.72
867.741
865.684
864.421
863.743
863.644
864.071
864.94
866.177
867.782
869.85
872.371
875.369
878.849
882.835
887.386
892.357
897.153
900.864
905.243
909.302
913.537
916.2
918.517
920.835
923.03
925.121
927.128
928.967
930.693
932.475
934.135
936.474
938.748
940.618
942.63
955.353
944.486
944.417
945.826
850.308
845.937
843.017
840.857
839.361
838.486
838.172
838.359
839.008
840.113
841.685
843.751
846.332
849.428
853.027
857.087
861.471
865.926
870.471
875.326
880.328
885.219
889.718
893.865
897.716
901.272
904.552
907.62
910.518
913.363
916.246
920.433
922.832
928.307
932.12
934.452
938.444
932.89
934.01
936.102
826.481
822.195
818.864
816.2
814.164
812.703
811.77
811.33
811.366
811.884
812.91
814.48
816.636
819.412
822.832
826.884
831.505
836.58
842.014
847.75
853.684
859.537
865.076
870.321
875.288
879.997
884.455
888.695
892.744
896.598
900.296
903.933
911.807
915.046
917.834
923.514
925.269
925.495
926.596
929.545
798.826
795.882
793.02
790.446
788.239
786.42
785.001
783.995
783.423
783.317
783.728
784.718
786.36
788.731
791.909
795.947
800.854
806.572
812.97
819.869
827.041
834.189
841.16
847.803
853.991
860.015
865.79
871.318
876.694
881.899
887.064
892.596
900.785
908.574
911.533
914.306
916.556
918.094
919.852
924.836
773.193
770.5
767.722
765.06
762.596
760.38
758.453
756.856
755.628
754.821
754.505
754.766
755.714
757.484
760.238
764.141
769.317
775.776
783.359
791.766
800.629
809.562
818.332
826.932
834.718
842.02
848.956
855.65
862.178
868.56
874.845
881.257
888.73
897.769
903.835
907.502
910.456
912.741
915.045
922.848
750.24
746.929
743.794
740.787
737.918
735.228
732.753
730.527
728.589
726.989
725.796
725.104
725.051
725.835
727.742
731.136
736.384
743.665
752.785
763.2
774.23
785.319
796.102
806.526
816.358
825.496
834.012
842.014
849.601
856.817
863.904
871.071
878.488
887.322
895.606
901.88
906.294
909.386
912.564
923.891
728.465
724.943
721.177
717.869
714.648
711.528
708.549
705.719
703.065
700.603
698.36
696.387
694.777
693.74
693.752
695.629
700.462
708.911
720.599
734.173
748.252
762.056
775.212
787.608
799.128
809.798
819.963
829.429
838.185
846.383
854.126
861.521
869.083
876.958
886.744
895.914
904.539
908.636
912.125
926.485
707.667
703.941
700.334
696.774
693.167
689.769
686.414
683.121
679.831
676.492
673.022
669.328
665.32
661.107
657.619
656.453
660.202
670.944
687.338
706.226
724.262
741.122
756.663
770.912
783.952
795.96
807.114
817.425
827.267
836.423
844.865
852.755
860.322
868.35
878.03
890.371
902.259
910.939
911.691
929.093
688.181
684.509
680.952
677.296
673.754
670.29
666.816
663.277
659.584
655.606
651.181
646.196
640.774
636.567
636.475
640.625
644.238
650.214
663.137
685.427
707.434
725.624
742.083
757.241
771.033
783.594
795.129
805.88
816.085
825.77
835.06
843.29
850.895
859.054
867.816
880.574
895.761
911.995
915.291
934.132
670.113
666.609
663.162
659.795
656.481
653.184
649.847
646.372
642.67
638.595
633.963
629.805
628.296
631.321
634.43
637.289
640.652
646.697
655.541
677.238
701.416
717.443
731.89
746.08
759.358
771.604
782.967
793.576
803.572
813.272
823.239
832.038
839.485
847.678
856.202
867.026
881.423
912.359
918.1
937.399
653.302
650.033
646.954
644.023
641.101
638.196
635.217
632.032
628.55
624.331
619.857
619.288
621.353
624.121
627.138
630.232
633.614
640.533
653.104
676.549
698.721
710.72
722.129
734.365
746.308
757.608
768.329
778.528
788.257
797.639
806.994
816.022
824.798
833.707
843.17
854.08
870.106
900.593
916.202
930.907
637.402
634.794
632.362
629.976
627.665
625.523
623.38
620.619
616.64
611.354
608.458
609.423
611.834
614.576
617.361
620.337
624.554
635.608
656.528
679.136
690.747
698.508
707.994
718.469
728.898
739.05
748.929
758.538
767.891
777.049
786.131
795.167
804.243
813.906
824.949
837.587
853.613
875.574
909.092
919.324
622.91
620.962
619.361
617.927
617.764
616.943
615.893
612.494
603.501
597.619
597.634
600.127
602.851
605.427
607.97
611.632
621.034
638.913
657.514
666.874
672.135
678.904
687.23
696.109
705.1
714.086
723.016
731.866
740.649
749.405
758.205
767.135
776.346
786.254
797.75
811.449
827.698
850.327
888.609
899.053
608.742
607.234
606.539
606.883
608.013
609.646
607.609
599.76
592.075
588.324
589.553
591.91
594.046
596.183
599.617
607.505
621.44
633.324
638.203
641.35
646.056
652.228
659.171
666.52
674.11
681.833
689.622
697.467
705.403
713.487
721.812
730.515
739.766
749.871
761.571
775.181
792.138
815.839
856.762
868.361
593.828
592.397
592.387
595.528
599.616
604.033
601.459
590.408
581.46
578.085
580.15
581.969
583.157
586.602
592.789
600.507
604.198
605.08
606.67
609.694
613.854
618.742
624.14
629.914
635.962
642.218
648.615
655.145
661.876
668.797
676.137
684.286
693.492
703.867
715.912
729.96
747.233
771.595
811.427
826.589
580.264
578.949
588.9
584.125
587.021
592.442
594.531
582.111
566.049
561.166
563.019
566.608
570.459
573.761
573.866
570.535
569.381
569.834
571.223
573.396
576.224
579.61
583.492
587.848
592.718
598.013
603.109
607.949
612.861
617.433
622.366
628.94
637.821
648.655
661.306
675.969
693.165
716.57
757.243
772.357
571.065
571.421
570.549
566.862
567.818
570.325
571.741
557.506
542.455
536.543
534.942
544.149
544.53
538.391
534.847
533.199
532.232
531.862
532.07
532.864
534.284
536.435
539.474
543.481
548.321
552.972
554.27
553.644
552.699
552.634
555.848
562.533
572.705
585.423
599.667
615.353
632.816
655.052
692.089
707.883
555.268
549.524
547.641
543.495
539.04
535.921
529.789
514.706
512.252
491.118
498.232
502.695
501.101
498.941
496.876
494.699
492.544
490.682
489.292
488.531
488.662
489.966
491.823
492.691
490.077
482.65
471.54
467.479
471.196
474.57
473.813
480.952
497.028
516.154
534.621
552.497
570.678