/*--------------------------------*- C++ -*----------------------------------*\
  =========                 |
  \\      /  F ield         | OpenFOAM: The Open Source CFD Toolbox
   \\    /   O peration     | Website:  https://openfoam.org
    \\  /    A nd           | Version:  8
     \\/     M anipulation  |
\*---------------------------------------------------------------------------*/
FoamFile
{
    version     2.0;
    format      ascii;
    class       volVectorField;
    location    "3.8";
    object      U;
}
// * * * * * * * * * * * * * * * * * * * * * * * * * * * * * * * * * * * * * //

dimensions      [0 1 -1 0 0 0 0];

internalField   nonuniform List<vector> 
9150
(
(0.053817 -0.428705 0)
(0.0879495 -0.622274 0)
(0.073089 -0.63146 0)
(0.0486475 -0.643712 0)
(0.0170528 -0.654422 0)
(-0.0170153 -0.654427 0)
(-0.0486169 -0.643726 0)
(-0.0730672 -0.631472 0)
(-0.0879368 -0.622287 0)
(-0.0538121 -0.428732 0)
(0.0408293 -0.522873 0)
(0.0574154 -0.625715 0)
(0.0420476 -0.61322 0)
(0.0294131 -0.622448 0)
(0.010496 -0.62885 0)
(-0.0104714 -0.628853 0)
(-0.0293922 -0.622455 0)
(-0.0420316 -0.613227 0)
(-0.0574036 -0.625718 0)
(-0.0408236 -0.522891 0)
(0.0252987 -0.558012 0)
(0.0324899 -0.613823 0)
(0.0229602 -0.604474 0)
(0.0172765 -0.609988 0)
(0.00624698 -0.613183 0)
(-0.0062317 -0.613184 0)
(-0.0172633 -0.609991 0)
(-0.0229502 -0.604478 0)
(-0.0324813 -0.613823 0)
(-0.0252939 -0.558021 0)
(0.0153975 -0.584765 0)
(0.017461 -0.607465 0)
(0.0116842 -0.601137 0)
(0.00888229 -0.603283 0)
(0.00324335 -0.604394 0)
(-0.0032351 -0.604394 0)
(-0.00887509 -0.603284 0)
(-0.0116787 -0.601138 0)
(-0.017456 -0.607464 0)
(-0.0153946 -0.584769 0)
(0.00627841 -0.597174 0)
(0.00555196 -0.60139 0)
(0.00356307 -0.600039 0)
(0.00268122 -0.600348 0)
(0.000993835 -0.600482 0)
(-0.000991363 -0.600482 0)
(-0.00267907 -0.600348 0)
(-0.00356144 -0.600039 0)
(-0.00555034 -0.60139 0)
(-0.00627743 -0.597174 0)
(0.469703 -1.16233 1.51738e-24)
(0.283026 -1.08587 0)
(0.163421 -1.06924 0)
(0.0924273 -1.05757 0)
(0.0306048 -1.05291 0)
(-0.030162 -1.05297 0)
(-0.0920347 -1.05775 0)
(-0.163098 -1.06952 0)
(-0.282799 -1.08624 0)
(-0.469791 -1.16286 -1.52297e-24)
(0.334113 -0.844183 4.16418e-25)
(0.287242 -0.936823 0)
(0.188353 -0.936786 0)
(0.108327 -0.936667 0)
(0.035864 -0.939042 0)
(-0.0356156 -0.939085 0)
(-0.108114 -0.936787 0)
(-0.188188 -0.936951 0)
(-0.287184 -0.937029 0)
(-0.334178 -0.844456 -4.17464e-25)
(0.279207 -0.702578 7.03027e-26)
(0.259113 -0.804766 0)
(0.178158 -0.81753 0)
(0.104686 -0.828303 0)
(0.0349212 -0.836412 0)
(-0.0347729 -0.836437 0)
(-0.104561 -0.828372 0)
(-0.178073 -0.817625 0)
(-0.259089 -0.804871 0)
(-0.279231 -0.702698 -7.05725e-26)
(0.200113 -0.554343 2.57351e-25)
(0.216777 -0.709482 0)
(0.154306 -0.725868 0)
(0.0914068 -0.741975 0)
(0.0305881 -0.753887 0)
(-0.0304974 -0.753902 0)
(-0.0913321 -0.742015 0)
(-0.154257 -0.725918 0)
(-0.216764 -0.709534 0)
(-0.200124 -0.554413 -2.5732e-25)
(0.118858 -0.445171 -4.23666e-25)
(0.156498 -0.644251 -6.07889e-25)
(0.116698 -0.663761 -2.05489e-25)
(0.0709485 -0.681168 -1.3472e-25)
(0.0239886 -0.69417 -7.73911e-27)
(-0.0239309 -0.694179 -7.69338e-27)
(-0.0709014 -0.681191 -1.34604e-25)
(-0.116667 -0.663786 -2.05446e-25)
(-0.156486 -0.644277 -6.07892e-25)
(-0.118857 -0.445211 -4.23712e-25)
(0.0246857 -0.90797 0)
(-0.0327247 -1.33909 0)
(0.0270506 -1.27175 0)
(-0.00127644 -1.22564 0)
(0.00605721 -1.22382 0)
(-0.00194571 -1.22502 0)
(0.00746497 -1.22663 0)
(-0.0221148 -1.27213 0)
(0.0363589 -1.34427 0)
(-0.0222919 -0.922111 0)
(0.0505588 -0.901525 0)
(-0.0196357 -1.33352 0)
(0.0253159 -1.27077 0)
(0.00233531 -1.22429 0)
(0.00236475 -1.2227 0)
(6.23266e-05 -1.22345 0)
(0.00173452 -1.22454 0)
(-0.022858 -1.27156 0)
(0.0223819 -1.33554 0)
(-0.048752 -0.91031 0)
(0.0778492 -0.940471 0)
(-0.0214258 -1.34822 0)
(0.0183149 -1.27553 0)
(0.00665682 -1.23124 0)
(0.000604414 -1.2265 0)
(0.00115832 -1.22682 0)
(-0.00430593 -1.2314 0)
(-0.0169344 -1.27629 0)
(0.0239814 -1.34915 0)
(-0.076761 -0.946422 0)
(0.144103 -1.07647 0)
(0.00317108 -1.36632 0)
(0.0159469 -1.27168 0)
(0.0223008 -1.22587 0)
(0.00635383 -1.21442 0)
(-0.00505009 -1.21454 0)
(-0.0210387 -1.22621 0)
(-0.0152296 -1.27219 0)
(-0.001366 -1.36679 0)
(-0.143423 -1.07966 0)
(0.298089 -1.21823 0)
(0.12666 -1.32197 0)
(0.0692507 -1.2104 0)
(0.0567086 -1.16886 0)
(0.0204405 -1.15639 0)
(-0.0196678 -1.15648 0)
(-0.056073 -1.16918 0)
(-0.0686315 -1.21084 0)
(-0.125763 -1.32236 0)
(-0.298 -1.21961 0)
(0.0589337 -0.000510018 0)
(0.0593443 -0.000520761 0)
(0.0597528 -0.000530512 0)
(0.0601545 -0.000533899 0)
(0.0605407 -0.000524326 0)
(0.0608979 -0.000493116 0)
(0.0612062 -0.000429085 0)
(0.061437 -0.00031629 0)
(0.061569 -0.000131561 0)
(0.0615296 0.000134064 0)
(0.0583231 -0.0012114 0)
(0.0586558 -0.0011945 0)
(0.0589707 -0.00116943 0)
(0.0592638 -0.00112512 0)
(0.0595283 -0.00104901 0)
(0.0597556 -0.000926225 0)
(0.0599345 -0.000739552 0)
(0.0600508 -0.000469618 0)
(0.060084 -9.32093e-05 0)
(0.0600348 0.000411723 0)
(0.0561757 -0.00180737 0)
(0.0564279 -0.00174705 0)
(0.056656 -0.00167302 0)
(0.0568561 -0.00157031 0)
(0.0570218 -0.00142261 0)
(0.0571454 -0.00121215 0)
(0.0572178 -0.000919702 0)
(0.0572288 -0.000524753 0)
(0.057169 -4.555e-06 0)
(0.0570266 0.000666472 0)
(0.0536706 -0.00225794 0)
(0.0538516 -0.00214974 0)
(0.0540098 -0.00202214 0)
(0.0541408 -0.00185603 0)
(0.0542389 -0.00163181 0)
(0.0542977 -0.0013292 0)
(0.0543104 -0.000926972 0)
(0.0542705 -0.000402564 0)
(0.0541709 0.000267942 0)
(0.0540041 0.00111077 0)
(0.0509182 -0.00257412 0)
(0.05104 -0.00242581 0)
(0.0511445 -0.00225182 0)
(0.0512252 -0.00202909 0)
(0.0512752 -0.00173671 0)
(0.0512888 -0.00135493 0)
(0.0512619 -0.000863452 0)
(0.0511926 -0.000241448 0)
(0.0510802 0.000534371 0)
(0.0509252 0.00149112 0)
(0.0479621 -0.00277521 0)
(0.0480452 -0.00260418 0)
(0.0481187 -0.00239456 0)
(0.0481687 -0.00211951 0)
(0.0481836 -0.00176068 0)
(0.048157 -0.00130451 0)
(0.0480885 -0.000737723 0)
(0.0479827 -4.42757e-05 0)
(0.0478449 0.000800568 0)
(0.0476817 0.00181875 0)
(0.0448559 -0.0029073 0)
(0.0449409 -0.00274286 0)
(0.0450215 -0.00250247 0)
(0.0450649 -0.00216103 0)
(0.045051 -0.00171438 0)
(0.044974 -0.00116434 0)
(0.0448377 -0.000511624 0)
(0.0446533 0.000250322 0)
(0.0444383 0.00113987 0)
(0.044212 0.00217868 0)
(0.0416985 -0.00309414 0)
(0.0418797 -0.00296 0)
(0.0420223 -0.00265014 0)
(0.0420729 -0.00217962 0)
(0.042015 -0.0015784 0)
(0.0418509 -0.000876065 0)
(0.0415956 -9.47958e-05 0)
(0.0412745 0.00075686 0)
(0.0409186 0.00168736 0)
(0.0405583 0.00272398 0)
(0.0388515 -0.00365229 0)
(0.039208 -0.00341659 0)
(0.039404 -0.00288604 0)
(0.0394198 -0.00214597 0)
(0.0392576 -0.00127044 0)
(0.0389334 -0.00032359 0)
(0.0384793 0.000645123 0)
(0.0379427 0.00160919 0)
(0.0373783 0.00257399 0)
(0.0368355 0.00357848 0)
(0.0369289 -0.00459638 0)
(0.037265 -0.00396727 0)
(0.0373644 -0.00301834 0)
(0.0372289 -0.00185796 0)
(0.0368595 -0.000587119 0)
(0.0362736 0.000695217 0)
(0.0355166 0.00190014 0)
(0.0346672 0.00296979 0)
(0.0338237 0.00390683 0)
(0.0330717 0.00478029 0)
(0.0352125 -0.00549564 0)
(0.0354819 -0.00431784 0)
(0.0354818 -0.00284059 0)
(0.0352 -0.00115192 0)
(0.0346156 0.00063349 0)
(0.0337249 0.00236483 0)
(0.0325762 0.00387032 0)
(0.0313033 0.00500836 0)
(0.0300996 0.00576849 0)
(0.0291248 0.00629063 0)
(0.0330113 -0.00624063 0)
(0.0332774 -0.00453627 0)
(0.0332847 -0.00248612 0)
(0.03298 -0.000150591 0)
(0.0322856 0.00234541 0)
(0.0311227 0.00477905 0)
(0.0294955 0.00679935 0)
(0.0276359 0.0079861 0)
(0.0259553 0.0082748 0)
(0.0247545 0.00807312 0)
(0.02986 -0.00699862 0)
(0.0301711 -0.00486168 0)
(0.0302912 -0.00225845 0)
(0.0301349 0.000811362 0)
(0.0295528 0.00426314 0)
(0.028306 0.00787669 0)
(0.0261304 0.0110734 0)
(0.0234095 0.0124004 0)
(0.0210868 0.0115242 0)
(0.0197991 0.00995303 0)
(0.025083 -0.00779976 0)
(0.0253372 -0.00545569 0)
(0.025501 -0.00251033 0)
(0.0255049 0.0011472 0)
(0.0252283 0.00562226 0)
(0.0243516 0.0110603 0)
(0.022023 0.0173289 0)
(0.0182955 0.0192677 0)
(0.0156395 0.0150867 0)
(0.0148462 0.0111898 0)
(0.0181012 -0.00799363 0)
(0.0179022 -0.00549608 0)
(0.0175986 -0.00225423 0)
(0.0170725 0.00196042 0)
(0.0161199 0.0074383 0)
(0.014828 0.0140253 0)
(0.0137711 0.0220699 0)
(0.0133965 0.0238643 0)
(0.0131316 0.0173654 0)
(0.0127477 0.0115568 0)
(0.00987626 -0.0072044 0)
(0.00928376 -0.00460143 0)
(0.0087134 -0.00117398 0)
(0.00815867 0.00342126 0)
(0.00744073 0.00972851 0)
(0.00687176 0.0157287 0)
(0.00756368 0.0210575 0)
(0.00923949 0.021815 0)
(0.0105696 0.0171131 0)
(0.0109613 0.0113604 0)
(0.00089742 -0.00549772 0)
(-8.82165e-05 -0.0029717 0)
(-0.000948822 0.000256736 0)
(-0.00155259 0.00446797 0)
(-0.00155492 0.0100786 0)
(-0.000362914 0.0139707 0)
(0.00182806 0.016922 0)
(0.00408197 0.0177278 0)
(0.00580838 0.0145068 0)
(0.0068038 0.0103794 0)
(-0.00784198 -0.00329447 0)
(-0.00883212 -0.00111056 0)
(-0.00951594 0.00145167 0)
(-0.00967047 0.00439642 0)
(-0.00884099 0.00742001 0)
(-0.00689313 0.00920759 0)
(-0.00443206 0.0116184 0)
(-0.00216457 0.0131302 0)
(-0.000515462 0.011813 0)
(0.000279276 0.009623 0)
(-0.0170419 -0.00121481 0)
(-0.017977 0.000330455 0)
(-0.0185028 0.00197147 0)
(-0.0185134 0.00361654 0)
(-0.0181005 0.00501068 0)
(-0.0174879 0.00622136 0)
(-0.0164266 0.00799009 0)
(-0.0147504 0.00927623 0)
(-0.0130354 0.00917898 0)
(-0.0118312 0.00835338 0)
(-0.0279232 0.00109339 0)
(-0.0291158 0.00195171 0)
(-0.0299431 0.00278762 0)
(-0.0303728 0.00359723 0)
(-0.0304023 0.00440487 0)
(-0.0300273 0.0052089 0)
(-0.0292703 0.00589395 0)
(-0.0282501 0.00636302 0)
(-0.0271839 0.00650406 0)
(-0.0262757 0.00640241 0)
(-0.0409098 0.00416008 0)
(-0.0425717 0.00434628 0)
(-0.0438716 0.00442831 0)
(-0.0447731 0.00444085 0)
(-0.0452516 0.00443641 0)
(-0.045307 0.00446388 0)
(-0.0450086 0.00458481 0)
(-0.0445185 0.00484138 0)
(-0.0440054 0.00504649 0)
(-0.0435725 0.00517194 0)
(-0.0563393 0.00838039 0)
(-0.0587191 0.00789009 0)
(-0.0607588 0.00720462 0)
(-0.0624188 0.00635642 0)
(-0.0636416 0.00543937 0)
(-0.0643458 0.0044573 0)
(-0.0645882 0.00381552 0)
(-0.0645676 0.003982 0)
(-0.0644171 0.00437531 0)
(-0.0642283 0.00489539 0)
(-0.0743494 0.0142968 0)
(-0.0777526 0.0131928 0)
(-0.0809111 0.0118119 0)
(-0.0838598 0.0101722 0)
(-0.0865627 0.00854214 0)
(-0.0888 0.00652434 0)
(-0.0903906 0.00543397 0)
(-0.0915353 0.00589192 0)
(-0.0920346 0.00498107 0)
(-0.0912003 0.00373129 0)
(-0.0947368 0.0225519 0)
(-0.0994169 0.0209225 0)
(-0.103973 0.0193658 0)
(-0.108391 0.0179117 0)
(-0.112715 0.0164654 0)
(-0.116617 0.0125821 0)
(-0.119592 0.0090843 0)
(-0.120785 0.00599321 0)
(-0.120593 0.00290282 0)
(-0.119939 -0.000673026 0)
(-0.116365 0.0336397 0)
(-0.122226 0.0314252 0)
(-0.127561 0.0298274 0)
(-0.132683 0.0276237 0)
(-0.136899 0.0235684 0)
(-0.140441 0.0187427 0)
(-0.14364 0.0134638 0)
(-0.146355 0.00843788 0)
(-0.148905 0.00474865 0)
(-0.151059 0.00111134 0)
(-0.13737 0.047028 0)
(-0.144146 0.0437008 0)
(-0.150333 0.0410746 0)
(-0.155508 0.0374392 0)
(-0.159923 0.0312385 0)
(-0.164436 0.0267416 0)
(-0.168729 0.0210946 0)
(-0.17324 0.0163583 0)
(-0.17801 0.0118162 0)
(-0.182686 0.00809874 0)
(-0.157954 0.0599937 0)
(-0.16362 0.0562098 0)
(-0.1687 0.0521514 0)
(-0.173667 0.0469313 0)
(-0.179366 0.0413365 0)
(-0.184844 0.0363173 0)
(-0.189869 0.0311504 0)
(-0.195573 0.0274587 0)
(-0.201846 0.0237293 0)
(-0.208139 0.0189972 0)
(-0.172676 0.0720443 0)
(-0.178075 0.0669936 0)
(-0.18344 0.0622106 0)
(-0.188869 0.057421 0)
(-0.194511 0.0527992 0)
(-0.200427 0.0478798 0)
(-0.207132 0.0442596 0)
(-0.214255 0.0409192 0)
(-0.22056 0.035668 0)
(-0.225209 0.0285471 0)
(-0.182643 0.0834465 0)
(-0.188321 0.0779751 0)
(-0.19397 0.0732407 0)
(-0.199641 0.0690892 0)
(-0.205636 0.0652514 0)
(-0.21241 0.0616102 0)
(-0.21908 0.0580661 0)
(-0.224834 0.0530499 0)
(-0.229734 0.0451641 0)
(-0.23373 0.0362333 0)
(-0.190866 0.0943248 0)
(-0.196218 0.0889421 0)
(-0.201571 0.0846032 0)
(-0.207097 0.0811642 0)
(-0.213179 0.0779763 0)
(-0.219166 0.074336 0)
(-0.224342 0.0694352 0)
(-0.229087 0.0624349 0)
(-0.233359 0.0534092 0)
(-0.23736 0.0443614 0)
(-0.196434 0.104372 0)
(-0.201487 0.0992673 0)
(-0.206549 0.0952493 0)
(-0.211603 0.092241 0)
(-0.216734 0.0890696 0)
(-0.221359 0.0840087 0)
(-0.225458 0.0781274 0)
(-0.229601 0.0706376 0)
(-0.233623 0.0617081 0)
(-0.237768 0.0527897 0)
(-0.197434 0.113989 0)
(-0.202276 0.109227 0)
(-0.207201 0.105184 0)
(-0.211817 0.101605 0)
(-0.216023 0.0977049 0)
(-0.21981 0.0915787 0)
(-0.223625 0.0857705 0)
(-0.227567 0.0786111 0)
(-0.231529 0.0700913 0)
(-0.23568 0.0610753 0)
(-0.193807 0.122879 0)
(-0.198101 0.118378 0)
(-0.20242 0.114242 0)
(-0.2066 0.11001 0)
(-0.21057 0.105426 0)
(-0.214828 0.0995935 0)
(-0.219195 0.0936496 0)
(-0.223081 0.0863997 0)
(-0.226927 0.0780417 0)
(-0.230834 0.0688417 0)
(-0.186021 0.131137 0)
(-0.190235 0.126753 0)
(-0.194414 0.122556 0)
(-0.198551 0.118191 0)
(-0.202651 0.113468 0)
(-0.206739 0.10812 0)
(-0.210841 0.101784 0)
(-0.21499 0.0943645 0)
(-0.219177 0.085982 0)
(-0.223309 0.0765587 0)
(-0.175551 0.139458 0)
(-0.179745 0.135114 0)
(-0.183949 0.130874 0)
(-0.188155 0.126498 0)
(-0.192359 0.121758 0)
(-0.196581 0.116404 0)
(-0.200866 0.110187 0)
(-0.205256 0.102946 0)
(-0.209735 0.0945638 0)
(-0.214221 0.0849058 0)
(-0.164058 0.147806 0)
(-0.168281 0.143546 0)
(-0.172535 0.139344 0)
(-0.176819 0.135012 0)
(-0.181142 0.13034 0)
(-0.185536 0.125115 0)
(-0.190047 0.119122 0)
(-0.194719 0.112141 0)
(-0.199563 0.103941 0)
(-0.204547 0.0942814 0)
(-0.152805 0.15625 0)
(-0.157113 0.152081 0)
(-0.161456 0.147953 0)
(-0.165841 0.143713 0)
(-0.17029 0.139189 0)
(-0.174851 0.134204 0)
(-0.17958 0.128553 0)
(-0.184524 0.121993 0)
(-0.189717 0.114235 0)
(-0.195186 0.104922 0)
(-0.142881 0.164932 0)
(-0.147368 0.160847 0)
(-0.151895 0.156795 0)
(-0.156479 0.152668 0)
(-0.161168 0.148338 0)
(-0.166022 0.143652 0)
(-0.171104 0.138408 0)
(-0.176478 0.13235 0)
(-0.18221 0.125146 0)
(-0.188413 0.116357 0)
(-0.135206 0.174132 0)
(-0.140005 0.170133 0)
(-0.14487 0.1662 0)
(-0.149864 0.162287 0)
(-0.155075 0.158314 0)
(-0.160603 0.154145 0)
(-0.16656 0.149599 0)
(-0.173088 0.144403 0)
(-0.180404 0.138172 0)
(-0.188808 0.130456 0)
(-0.130367 0.183978 0)
(-0.135471 0.180126 0)
(-0.140744 0.176484 0)
(-0.14628 0.17306 0)
(-0.152203 0.169828 0)
(-0.158657 0.166699 0)
(-0.165832 0.163528 0)
(-0.174021 0.16004 0)
(-0.183648 0.155813 0)
(-0.194183 0.150719 0)
(-0.127832 0.194335 0)
(-0.133242 0.190859 0)
(-0.138987 0.187782 0)
(-0.145132 0.185164 0)
(-0.151787 0.183033 0)
(-0.159112 0.18136 0)
(-0.167356 0.18004 0)
(-0.17693 0.178824 0)
(-0.187583 0.17761 0)
(-0.199207 0.177153 0)
(-0.126948 0.205287 0)
(-0.132778 0.202488 0)
(-0.139098 0.20025 0)
(-0.145918 0.198666 0)
(-0.153337 0.197809 0)
(-0.161523 0.197719 0)
(-0.170825 0.19835 0)
(-0.181177 0.19969 0)
(-0.192326 0.202773 0)
(-0.208528 0.211355 0)
(-0.127355 0.217067 0)
(-0.133626 0.215211 0)
(-0.140507 0.214073 0)
(-0.148001 0.213753 0)
(-0.156206 0.214351 0)
(-0.165356 0.215963 0)
(-0.175615 0.218704 0)
(-0.186795 0.223936 0)
(-0.202992 0.236904 0)
(-0.230332 0.257224 0)
(-0.128583 0.229489 0)
(-0.13503 0.22883 0)
(-0.142134 0.229065 0)
(-0.149946 0.230253 0)
(-0.158669 0.232391 0)
(-0.168753 0.235608 0)
(-0.180255 0.242275 0)
(-0.197654 0.25838 0)
(-0.227562 0.288349 0)
(-0.237613 0.278413 0)
(-0.130186 0.241792 0)
(-0.13648 0.242182 0)
(-0.143277 0.243594 0)
(-0.150706 0.246057 0)
(-0.158734 0.250105 0)
(-0.169537 0.25908 0)
(-0.189823 0.279833 0)
(-0.219048 0.315075 0)
(-0.2309 0.314408 0)
(-0.221298 0.262039 0)
(-0.133524 0.253889 0)
(-0.140013 0.254889 0)
(-0.146874 0.257112 0)
(-0.153759 0.261394 0)
(-0.162962 0.271731 0)
(-0.181803 0.299273 0)
(-0.206936 0.336776 0)
(-0.217744 0.341372 0)
(-0.211726 0.303957 0)
(-0.196148 0.228318 0)
(-0.139163 0.266953 0)
(-0.14653 0.268358 0)
(-0.153496 0.271714 0)
(-0.161312 0.280078 0)
(-0.174883 0.30422 0)
(-0.193534 0.343192 0)
(-0.201102 0.354542 0)
(-0.196817 0.33173 0)
(-0.180099 0.269892 0)
(-0.171866 0.210527 0)
(-0.145759 0.281907 0)
(-0.153827 0.283717 0)
(-0.161067 0.288706 0)
(-0.170919 0.302283 0)
(-0.184428 0.334615 0)
(-0.187054 0.354915 0)
(-0.181107 0.347058 0)
(-0.166697 0.308271 0)
(-0.154323 0.242207 0)
(-0.15125 0.205008 0)
(-0.14965 0.299165 0)
(-0.158182 0.301193 0)
(-0.16631 0.307473 0)
(-0.175644 0.325992 0)
(-0.183874 0.340035 0)
(-0.181021 0.340263 0)
(-0.164819 0.31192 0)
(-0.145193 0.271347 0)
(-0.141518 0.233429 0)
(-0.140188 0.205807 0)
(-0.14572 0.317177 0)
(-0.154398 0.319719 0)
(-0.164456 0.327214 0)
(-0.170366 0.335177 0)
(-0.169254 0.332091 0)
(-0.162934 0.316544 0)
(-0.152035 0.284007 0)
(-0.143513 0.254514 0)
(-0.139543 0.2295 0)
(-0.137316 0.205563 0)
(-0.139139 0.335218 0)
(-0.148548 0.337682 0)
(-0.156836 0.340269 0)
(-0.156886 0.333596 0)
(-0.151438 0.322111 0)
(-0.144342 0.301115 0)
(-0.138618 0.274343 0)
(-0.134651 0.248783 0)
(-0.131447 0.224299 0)
(-0.128651 0.200384 0)
(-0.126582 0.350855 0)
(-0.132897 0.352748 0)
(-0.13723 0.345163 0)
(-0.136684 0.328071 0)
(-0.132754 0.31117 0)
(-0.127763 0.290305 0)
(-0.12317 0.266489 0)
(-0.119381 0.241871 0)
(-0.116062 0.217559 0)
(-0.112791 0.193873 0)
(-0.113613 0.362148 0)
(-0.11805 0.362222 0)
(-0.120479 0.345944 0)
(-0.119447 0.323713 0)
(-0.116032 0.303314 0)
(-0.111759 0.281372 0)
(-0.107313 0.258091 0)
(-0.103003 0.234173 0)
(-0.0987931 0.210211 0)
(-0.0945333 0.186466 0)
(-0.101495 0.371381 0)
(-0.104836 0.368451 0)
(-0.106035 0.345179 0)
(-0.104283 0.318834 0)
(-0.100552 0.295921 0)
(-0.0958981 0.272657 0)
(-0.0908975 0.248902 0)
(-0.0857352 0.224856 0)
(-0.0804326 0.200729 0)
(-0.0749008 0.17657 0)
(-0.0889417 0.37909 0)
(-0.0917227 0.373399 0)
(-0.092434 0.342696 0)
(-0.0894519 0.311912 0)
(-0.0848864 0.286667 0)
(-0.079427 0.262227 0)
(-0.0735366 0.237759 0)
(-0.0673333 0.21321 0)
(-0.0607745 0.188549 0)
(-0.0538228 0.163698 0)
(-0.0732107 0.385153 0)
(-0.0745807 0.377589 0)
(-0.0740022 0.338171 0)
(-0.0709306 0.303926 0)
(-0.0663128 0.276586 0)
(-0.0606777 0.250613 0)
(-0.0543334 0.224964 0)
(-0.0473765 0.199414 0)
(-0.0397958 0.173779 0)
(-0.0316024 0.147948 0)
(-0.058848 0.388844 0)
(-0.0595284 0.378869 0)
(-0.0573102 0.332426 0)
(-0.0535276 0.295277 0)
(-0.0481927 0.266267 0)
(-0.0418281 0.238447 0)
(-0.0347195 0.211095 0)
(-0.0268767 0.184 0)
(-0.0183118 0.156958 0)
(-0.0090574 0.129853 0)
(-0.0516936 0.391473 0)
(-0.0518842 0.377641 0)
(-0.0460012 0.323919 0)
(-0.0402575 0.284132 0)
(-0.0332711 0.253691 0)
(-0.0250604 0.224153 0)
(-0.0164217 0.19516 0)
(-0.00726573 0.166531 0)
(0.00247239 0.138081 0)
(0.0127776 0.109718 0)
(-0.0547645 0.394792 0)
(-0.0535188 0.366486 0)
(-0.0407718 0.307847 0)
(-0.0312864 0.266769 0)
(-0.0217196 0.235642 0)
(-0.0108046 0.20541 0)
(-7.73033e-05 0.175651 0)
(0.01066 0.146175 0)
(0.0216469 0.116837 0)
(0.0329709 0.0875654 0)
(-0.0557859 0.394167 0)
(-0.0489366 0.348688 0)
(-0.0327221 0.284521 0)
(-0.0211767 0.243058 0)
(-0.00979079 0.212027 0)
(0.00308545 0.182219 0)
(0.0153441 0.152678 0)
(0.0272495 0.123141 0)
(0.0391863 0.0934942 0)
(0.0513172 0.0637119 0)
(-0.0533484 0.379708 0)
(-0.0419052 0.32615 0)
(-0.022247 0.25697 0)
(-0.00912276 0.21521 0)
(0.00298512 0.185368 0)
(0.0165305 0.156832 0)
(0.0295431 0.127911 0)
(0.0421699 0.0984913 0)
(0.0548918 0.0685794 0)
(0.0678952 0.0382512 0)
(-0.0510248 0.355291 0)
(-0.0354784 0.296795 0)
(-0.0127452 0.224615 0)
(0.00153527 0.185225 0)
(0.0133404 0.158018 0)
(0.0268782 0.13075 0)
(0.0403397 0.102007 0)
(0.053739 0.0721192 0)
(0.0675123 0.0414889 0)
(0.0821304 0.0109294 0)
(-0.0493041 0.322737 0)
(-0.0275401 0.255887 0)
(-0.00644969 0.189291 0)
(0.00785761 0.156402 0)
(0.0192584 0.131207 0)
(0.0327391 0.103924 0)
(0.046807 0.0745732 0)
(0.0619408 0.0443747 0)
(0.0778848 0.0127767 0)
(0.0959256 -0.0206182 0)
(-0.0400284 0.280106 0)
(-0.0150288 0.204725 0)
(0.000154219 0.160333 0)
(0.0111644 0.132388 0)
(0.022816 0.105808 0)
(0.0373038 0.0766745 0)
(0.053253 0.0454229 0)
(0.0723676 0.010891 0)
(0.0960013 -0.0281685 0)
(0.121576 -0.0703389 0)
(-0.0235782 0.223151 0)
(-0.00784528 0.173806 0)
(0.0027742 0.140269 0)
(0.0139187 0.110432 0)
(0.0273866 0.0800677 0)
(0.0449148 0.0438917 0)
(0.0674215 0.00286401 0)
(0.0926342 -0.0418009 0)
(0.121414 -0.0853982 0)
(0.149847 -0.128568 0)
(-0.0145819 0.193753 0)
(-0.00410496 0.156158 0)
(0.00629089 0.120237 0)
(0.019584 0.0830917 0)
(0.0384652 0.0424266 0)
(0.0621165 -0.00456472 0)
(0.0884176 -0.0509292 0)
(0.114293 -0.0966299 0)
(0.140919 -0.140485 0)
(0.169859 -0.184939 0)
(-0.00817938 0.175135 0)
(0.00154866 0.136023 0)
(0.0144225 0.0924563 0)
(0.0324872 0.0435649 0)
(0.0551236 -0.00614582 0)
(0.0792587 -0.0547905 0)
(0.104546 -0.101615 0)
(0.131472 -0.148866 0)
(0.15909 -0.196987 0)
(0.188311 -0.246036 0)
(0.0031159 0.155003 0)
(0.0159648 0.108728 0)
(0.0322516 0.0569905 0)
(0.0511084 0.00208456 0)
(0.0723686 -0.0511557 0)
(0.0967859 -0.103539 0)
(0.123005 -0.15472 0)
(0.149898 -0.204696 0)
(0.177094 -0.253695 0)
(0.207723 -0.304367 0)
(0.0160901 0.128079 0)
(0.0296503 0.0764141 0)
(0.0464645 0.0225815 0)
(0.0667626 -0.0356192 0)
(0.0903947 -0.0979875 0)
(0.116423 -0.156015 0)
(0.142664 -0.208604 0)
(0.168688 -0.258317 0)
(0.197338 -0.309203 0)
(0.237609 -0.378548 0)
(0.0241873 0.102928 0)
(0.0379253 0.0523901 0)
(0.0580072 -0.010328 0)
(0.0889731 -0.0860657 0)
(0.116156 -0.153838 0)
(0.139312 -0.207987 0)
(0.162582 -0.257523 0)
(0.188622 -0.312042 0)
(0.230226 -0.391497 0)
(0.301628 -0.514099 0)
(0.0190658 0.083725 0)
(0.0452642 0.00963111 0)
(0.0816429 -0.0843465 0)
(0.114181 -0.149319 0)
(0.134904 -0.201302 0)
(0.153024 -0.249177 0)
(0.177337 -0.305779 0)
(0.221358 -0.396499 0)
(0.29272 -0.534721 0)
(0.371634 -0.673079 0)
(0.0249 0.0228625 0)
(0.0702699 -0.0853327 0)
(0.0980428 -0.147892 0)
(0.117571 -0.190642 0)
(0.13688 -0.234782 0)
(0.160622 -0.292432 0)
(0.203699 -0.392909 0)
(0.274368 -0.541887 0)
(0.354181 -0.693341 0)
(0.428169 -0.821543 0)
(0.0495486 -0.0725209 0)
(0.0750442 -0.135785 0)
(0.0937605 -0.181034 0)
(0.111 -0.227552 0)
(0.132935 -0.281979 0)
(0.172149 -0.377678 0)
(0.245647 -0.538062 0)
(0.327459 -0.703563 0)
(0.401232 -0.841421 0)
(0.44853 -0.918301 0)
(0.0617063 -0.11629 0)
(0.0778482 -0.165766 0)
(0.0934788 -0.215467 0)
(0.111898 -0.268733 0)
(0.144541 -0.353169 0)
(0.213313 -0.518391 0)
(0.297261 -0.700452 0)
(0.37088 -0.852112 0)
(0.417491 -0.935777 0)
(0.449542 -0.982673 0)
(0.0493114 -0.15171 0)
(0.0674397 -0.201244 0)
(0.084795 -0.253785 0)
(0.112929 -0.327621 0)
(0.170005 -0.484336 0)
(0.257726 -0.685679 0)
(0.335434 -0.855339 0)
(0.383361 -0.947541 0)
(0.41527 -0.999274 0)
(0.44099 -1.0343 0)
(0.0556072 -0.185047 0)
(0.0688577 -0.237755 0)
(0.0885063 -0.302548 0)
(0.12826 -0.427216 0)
(0.219372 -0.654424 0)
(0.300234 -0.849611 0)
(0.348925 -0.952661 0)
(0.38015 -1.01011 0)
(0.40507 -1.04967 0)
(0.425242 -1.07529 0)
(0.0475941 -0.212498 0)
(0.0621606 -0.269676 0)
(0.0919934 -0.36618 0)
(0.172972 -0.594121 0)
(0.262543 -0.828299 0)
(0.312854 -0.947539 0)
(0.343463 -1.01288 0)
(0.367765 -1.05869 0)
(0.387476 -1.08926 0)
(0.402356 -1.10521 0)
(0.0327929 -0.241832 0)
(0.0556767 -0.319433 0)
(0.114745 -0.508711 0)
(0.217558 -0.786317 0)
(0.271502 -0.930829 0)
(0.303313 -1.00742 0)
(0.327823 -1.06107 0)
(0.347706 -1.09805 0)
(0.362787 -1.11889 0)
(0.372967 -1.12502 0)
(0.0217939 -0.270707 0)
(0.0431837 -0.397733 0)
(0.14917 -0.734175 0)
(0.216377 -0.91129 0)
(0.256338 -1.00011 0)
(0.283078 -1.05964 0)
(0.304576 -1.10268 0)
(0.320904 -1.1293 0)
(0.33214 -1.14 0)
(0.338613 -1.13665 0)
(0.0202264 -0.298092 0)
(0.0870106 -0.587752 0)
(0.17407 -0.873875 0)
(0.217967 -0.989386 0)
(0.241538 -1.05383 0)
(0.262073 -1.1023 0)
(0.278714 -1.13569 0)
(0.290882 -1.15263 0)
(0.298542 -1.15396 0)
(0.301904 -1.142 0)
(0.0364894 -0.345523 0)
(0.139642 -0.793783 0)
(0.178758 -0.958873 0)
(0.201755 -1.03613 0)
(0.220727 -1.09243 0)
(0.236896 -1.13462 0)
(0.249671 -1.16048 0)
(0.258655 -1.16909 0)
(0.26359 -1.16205 0)
(0.264484 -1.14246 0)
(0.0452133 -0.550054 0)
(0.129943 -0.881472 0)
(0.166647 -1.00736 0)
(0.181577 -1.07307 0)
(0.1965 -1.12357 0)
(0.209385 -1.16016 0)
(0.219381 -1.17941 0)
(0.226085 -1.18054 0)
(0.229022 -1.16578 0)
(0.227933 -1.13913 0)
(0.0636309 -0.774259 0)
(0.121674 -0.967228 0)
(0.14595 -1.04809 0)
(0.158981 -1.10247 0)
(0.170522 -1.14781 0)
(0.180669 -1.18007 0)
(0.188759 -1.19391 0)
(0.193996 -1.18842 0)
(0.195685 -1.16633 0)
(0.193395 -1.13236 0)
(0.102464 -0.86112 0)
(0.125145 -1.00518 0)
(0.131621 -1.06766 0)
(0.137741 -1.11916 0)
(0.145129 -1.16437 0)
(0.152836 -1.19523 0)
(0.15936 -1.20526 0)
(0.163545 -1.19416 0)
(0.164675 -1.16539 0)
(0.16238 -1.12361 0)
(0.0751338 -0.889345 0)
(0.0940855 -1.01401 0)
(0.100197 -1.07569 0)
(0.107019 -1.13129 0)
(0.115316 -1.17933 0)
(0.123674 -1.20962 0)
(0.130385 -1.21609 0)
(0.134724 -1.20011 0)
(0.136568 -1.16586 0)
(0.13639 -1.11764 0)
(0.0366063 -0.947769 0)
(0.0560318 -1.03432 0)
(0.0672233 -1.09461 0)
(0.0783946 -1.15137 0)
(0.0890122 -1.199 0)
(0.0982264 -1.22616 0)
(0.105036 -1.22778 0)
(0.109464 -1.2071 0)
(0.112191 -1.16873 0)
(0.114063 -1.11594 0)
(0.025298 -0.976561 0)
(0.037958 -1.06035 0)
(0.0497365 -1.11927 0)
(0.0616153 -1.17416 0)
(0.0718934 -1.21928 0)
(0.0802416 -1.24221 0)
(0.0862333 -1.23881 0)
(0.0903391 -1.21441 0)
(0.0937133 -1.17393 0)
(0.0970468 -1.1196 0)
(0.0310871 -1.00639 0)
(0.0372422 -1.08433 0)
(0.0457493 -1.14048 0)
(0.0549753 -1.1931 0)
(0.0629549 -1.23603 0)
(0.0692948 -1.25543 0)
(0.0739475 -1.24806 0)
(0.077549 -1.22149 0)
(0.0813733 -1.18083 0)
(0.0855404 -1.1275 0)
(0.0377898 -1.01661 0)
(0.0422131 -1.09895 0)
(0.0475575 -1.15491 0)
(0.0537403 -1.20617 0)
(0.0592664 -1.24776 0)
(0.0634078 -1.26495 0)
(0.0667522 -1.25526 0)
(0.0700159 -1.22813 0)
(0.0742153 -1.18871 0)
(0.0788056 -1.13809 0)
(0.0435078 -1.02196 0)
(0.047555 -1.10756 0)
(0.0502494 -1.16348 0)
(0.0538634 -1.21423 0)
(0.0575707 -1.25513 0)
(0.0598354 -1.27123 0)
(0.0622298 -1.26124 0)
(0.0656152 -1.23513 0)
(0.0705355 -1.1979 0)
(0.0756372 -1.15091 0)
(0.0421859 -1.03441 0)
(0.0460964 -1.11233 0)
(0.0481101 -1.1688 0)
(0.0514136 -1.2204 0)
(0.0549343 -1.26015 0)
(0.055954 -1.27516 0)
(0.0577222 -1.26689 0)
(0.0614418 -1.24329 0)
(0.0671997 -1.20912 0)
(0.0726834 -1.16622 0)
(0.0353088 -1.04633 0)
(0.0386895 -1.11636 0)
(0.041917 -1.17472 0)
(0.0468179 -1.22786 0)
(0.0508538 -1.26415 0)
(0.050549 -1.27687 0)
(0.0515368 -1.27201 0)
(0.0550344 -1.25185 0)
(0.0608053 -1.22122 0)
(0.0657755 -1.18191 0)
(0.0287538 -1.046 0)
(0.0309508 -1.11985 0)
(0.0353011 -1.18345 0)
(0.0414386 -1.23788 0)
(0.0453747 -1.26729 0)
(0.0434747 -1.27655 0)
(0.0438502 -1.27616 0)
(0.0466639 -1.25936 0)
(0.0513984 -1.23228 0)
(0.0542727 -1.19667 0)
(0.0132592 -1.05183 0)
(0.0187686 -1.13082 0)
(0.0273431 -1.19852 0)
(0.0351506 -1.25023 0)
(0.0389389 -1.26904 0)
(0.0355347 -1.27461 0)
(0.0359209 -1.27901 0)
(0.0381015 -1.26513 0)
(0.0414286 -1.24103 0)
(0.0407052 -1.21201 0)
(0.0102601 -1.06676 0)
(0.0160381 -1.14762 0)
(0.0255086 -1.21609 0)
(0.0313836 -1.25994 0)
(0.0336163 -1.26737 0)
(0.0278399 -1.27059 0)
(0.0281196 -1.27932 0)
(0.0286409 -1.26844 0)
(0.0295555 -1.24408 0)
(0.0249271 -1.22218 0)
(0.0112969 -1.08053 0)
(0.0157624 -1.16102 0)
(0.025242 -1.23059 0)
(0.0273046 -1.26317 0)
(0.0284365 -1.26198 0)
(0.0201732 -1.2646 0)
(0.0208729 -1.27641 0)
(0.0188104 -1.27018 0)
(0.0185626 -1.23988 0)
(0.0123722 -1.21899 0)
(0.00850689 -1.08826 0)
(0.0117693 -1.17203 0)
(0.0238129 -1.24407 0)
(0.0212898 -1.26119 0)
(0.0229129 -1.25488 0)
(0.0124125 -1.2576 0)
(0.0144763 -1.27065 0)
(0.0085366 -1.27258 0)
(0.0104942 -1.23235 0)
(0.00503465 -1.20072 0)
(0.00181323 -1.09228 0)
(0.00346898 -1.18702 0)
(0.0225055 -1.25819 0)
(0.0141828 -1.25543 0)
(0.0176688 -1.24728 0)
(0.00523286 -1.24987 0)
(0.00949379 -1.26208 0)
(-0.00223198 -1.27575 0)
(0.00707296 -1.22809 0)
(0.00396088 -1.16846 0)
(-0.0047138 -1.07893 0)
(-0.00724995 -1.21218 0)
(0.0240001 -1.26975 0)
(0.00789123 -1.24623 0)
(0.0135573 -1.2391 0)
(-0.00017997 -1.24118 0)
(0.00653196 -1.25043 0)
(-0.0131894 -1.27739 0)
(0.00887738 -1.23446 0)
(0.0045864 -1.12025 0)
(0.00780906 -1.02445 0)
(-0.0160574 -1.25771 0)
(0.0282398 -1.27385 0)
(0.00264754 -1.23482 0)
(0.0100805 -1.2306 0)
(-0.00259905 -1.23219 0)
(0.00662953 -1.23705 0)
(-0.0211162 -1.27581 0)
(0.0175179 -1.26647 0)
(-0.00679898 -1.04718 0)
(0.0612286 0.000506551 0)
(0.060565 0.00099104 0)
(0.0594806 0.00154927 0)
(0.057922 0.00215882 0)
(0.0558609 0.00278355 0)
(0.0532921 0.00336538 0)
(0.0502488 0.00382946 0)
(0.0468246 0.00409427 0)
(0.0431877 0.00408949 0)
(0.0395736 0.00378137 0)
(0.0362389 0.00319929 0)
(0.0333952 0.00243178 0)
(0.0311652 0.00159305 0)
(0.0295749 0.000811352 0)
(0.0285466 0.000239556 0)
(0.0279545 -0.000167742 0)
(0.0276721 -0.000445436 0)
(0.0275377 -0.000401225 0)
(0.027276 1.8559e-05 0)
(0.0266138 0.000774434 0)
(0.0253505 0.00168661 0)
(0.0234387 0.00239679 0)
(0.0212021 0.0024764 0)
(0.0192407 0.00184275 0)
(0.0179571 0.000853291 0)
(0.0173848 -6.54963e-05 0)
(0.0173312 -0.000655249 0)
(0.0175614 -0.000772822 0)
(0.0177777 -0.00027461 0)
(0.017316 0.00102273 0)
(0.0156618 0.00281561 0)
(0.0124252 0.00424725 0)
(0.00816918 0.00467898 0)
(0.00479596 0.00342687 0)
(0.00268187 0.00190734 0)
(0.00128853 0.00101133 0)
(0.000456198 0.000499617 0)
(1.76902e-06 0.000100484 0)
(-0.000180842 -0.000147957 0)
(-0.000116024 -0.000261327 0)
(0.059883 0.00109617 0)
(0.0595653 0.00199367 0)
(0.0590298 0.00305288 0)
(0.0582165 0.00424199 0)
(0.0570619 0.00551961 0)
(0.0555058 0.00680666 0)
(0.0535094 0.00797569 0)
(0.0510757 0.00885969 0)
(0.0482713 0.00928083 0)
(0.0452411 0.00911126 0)
(0.0421846 0.00834465 0)
(0.039296 0.0071124 0)
(0.0367155 0.0056335 0)
(0.0345194 0.00414187 0)
(0.032731 0.00283293 0)
(0.0313292 0.00180406 0)
(0.0302099 0.00120246 0)
(0.02925 0.00112644 0)
(0.0283412 0.00166632 0)
(0.0273388 0.00274088 0)
(0.0260782 0.00410088 0)
(0.0244234 0.0051972 0)
(0.022504 0.00529451 0)
(0.0207161 0.00426064 0)
(0.0193169 0.00269084 0)
(0.018306 0.00119597 0)
(0.0176035 0.000170509 0)
(0.0170935 -0.000102385 0)
(0.016647 0.000671724 0)
(0.0161033 0.00282493 0)
(0.015053 0.00617565 0)
(0.013031 0.0094122 0)