/*--------------------------------*- C++ -*----------------------------------*\
  =========                 |
  \\      /  F ield         | OpenFOAM: The Open Source CFD Toolbox
   \\    /   O peration     | Website:  https://openfoam.org
    \\  /    A nd           | Version:  8
     \\/     M anipulation  |
\*---------------------------------------------------------------------------*/
FoamFile
{
    version     2.0;
    format      ascii;
    class       surfaceScalarField;
    location    "4.15";
    object      alphaPhi0.water;
}
// * * * * * * * * * * * * * * * * * * * * * * * * * * * * * * * * * * * * * //

dimensions      [0 3 -1 0 0 0 0];

internalField   nonuniform List<scalar> 
18095
(
1.58424e-07
-9.65168e-07
8.06744e-07
1.65379e-07
-1.24843e-06
1.24148e-06
1.22188e-07
-1.24237e-06
1.28556e-06
6.53174e-08
-1.2635e-06
1.32037e-06
1.76291e-11
-1.2805e-06
1.3458e-06
-6.52855e-08
-1.2805e-06
1.34581e-06
-1.22165e-07
-1.26351e-06
1.32039e-06
-1.65365e-07
-1.24239e-06
1.28559e-06
-1.58421e-07
-1.24845e-06
1.2415e-06
-9.65186e-07
8.06766e-07
1.1108e-07
-1.07625e-06
9.94608e-08
-1.23681e-06
7.28663e-08
-1.21578e-06
4.00409e-08
-1.23067e-06
1.31457e-11
-1.24047e-06
-4.00165e-08
-1.24048e-06
-7.28469e-08
-1.23068e-06
-9.94475e-08
-1.21579e-06
-1.11074e-07
-1.23682e-06
-1.07626e-06
6.72821e-08
-1.14353e-06
5.28156e-08
-1.22235e-06
4.21544e-08
-1.20512e-06
2.38729e-08
-1.21239e-06
9.65806e-12
-1.21661e-06
-2.38549e-08
-1.21661e-06
-4.21397e-08
-1.21239e-06
-5.28049e-08
-1.20512e-06
-6.72763e-08
-1.22235e-06
-1.14354e-06
3.97528e-08
-1.18328e-06
2.66591e-08
-1.20925e-06
2.20177e-08
-1.20048e-06
1.25352e-08
-1.20291e-06
6.38496e-12
-1.20408e-06
-1.25232e-08
-1.20408e-06
-2.20078e-08
-1.20291e-06
-2.66518e-08
-1.20048e-06
-3.97481e-08
-1.20925e-06
-1.18328e-06
1.67175e-08
7.46618e-09
6.99067e-09
4.08335e-09
2.56115e-12
-4.07848e-09
-6.98662e-09
-7.46335e-09
-1.67151e-08
-1.7478e-07
-1.16383e-06
1.33861e-06
-2.18799e-07
-1.21638e-06
1.2604e-06
-1.64959e-07
-1.21288e-06
1.15904e-06
-8.69767e-08
-1.20408e-06
1.1261e-06
1.70687e-10
-1.20257e-06
1.11542e-06
8.73115e-08
-1.20259e-06
1.11545e-06
1.65265e-07
-1.20416e-06
1.1262e-06
2.19073e-07
-1.213e-06
1.15919e-06
1.75003e-07
-1.21653e-06
1.2606e-06
-1.16399e-06
1.33899e-06
-9.29726e-08
-1.07086e-06
-9.55351e-08
-1.21381e-06
-7.913e-08
-1.22929e-06
-4.41105e-08
-1.2391e-06
9.68842e-11
-1.24677e-06
4.42967e-08
-1.24679e-06
7.92945e-08
-1.23915e-06
9.56639e-08
-1.22937e-06
9.30447e-08
-1.21391e-06
-1.07095e-06
-5.79937e-08
-1.01286e-06
-5.51649e-08
-1.21664e-06
-4.64876e-08
-1.23796e-06
-2.70879e-08
-1.2585e-06
5.85709e-11
-1.27392e-06
2.71996e-08
-1.27394e-06
4.65831e-08
-1.25854e-06
5.52342e-08
-1.23802e-06
5.8028e-08
-1.2167e-06
-1.01292e-06
-7.49045e-08
-9.37959e-07
-6.20349e-08
-1.22951e-06
-4.86039e-08
-1.25139e-06
-2.77649e-08
-1.27934e-06
3.6967e-11
-1.30172e-06
2.78349e-08
-1.30173e-06
4.86622e-08
-1.27937e-06
6.20748e-08
-1.25143e-06
7.49241e-08
-1.22955e-06
-9.37993e-07
-1.31215e-07
-1.19252e-07
-8.50828e-08
-4.40529e-08
2.46224e-11
4.40992e-08
8.5121e-08
1.19277e-07
1.31228e-07
-3.84759e-08
-9.28952e-07
9.67428e-07
8.46409e-09
-1.34097e-06
1.29403e-06
1.2684e-08
-1.27533e-06
1.27111e-06
6.50669e-09
-1.22723e-06
1.2334e-06
1.20411e-09
-1.22448e-06
1.22979e-06
-3.9309e-09
-1.22461e-06
1.22975e-06
-1.03812e-08
-1.22702e-06
1.23347e-06
-4.15977e-09
-1.27452e-06
1.2683e-06
4.78944e-08
-1.34125e-06
1.28919e-06
-9.35634e-07
9.83528e-07
1.46091e-08
-9.43561e-07
2.1192e-08
-1.34755e-06
1.4179e-08
-1.26832e-06
7.85438e-09
-1.2209e-06
1.1512e-09
-1.21778e-06
-5.5039e-09
-1.21796e-06
-1.17425e-08
-1.22078e-06
-1.75692e-08
-1.2687e-06
-1.07692e-08
-1.34805e-06
-9.46403e-07
2.93612e-08
-9.72922e-07
2.06555e-08
-1.33885e-06
1.19845e-08
-1.25965e-06
7.10675e-09
-1.21602e-06
7.01858e-10
-1.21138e-06
-5.83748e-09
-1.21142e-06
-1.05097e-08
-1.21611e-06
-1.92872e-08
-1.25992e-06
-2.80271e-08
-1.33931e-06
-9.7443e-07
7.99475e-08
-1.05287e-06
5.34511e-08
-1.31235e-06
3.43307e-08
-1.24053e-06
2.13687e-08
-1.20306e-06
4.58425e-10
-1.19047e-06
-2.04541e-08
-1.19051e-06
-3.33332e-08
-1.20323e-06
-5.24921e-08
-1.24076e-06
-7.92003e-08
-1.3126e-06
-1.05363e-06
2.8574e-07
2.33785e-07
1.52298e-07
7.53329e-08
2.85988e-10
-7.47676e-08
-1.51792e-07
-2.33361e-07
-2.85363e-07
1.53099e-07
1.23547e-09
-1.54335e-07
1.51647e-07
1.45268e-09
1.49994e-07
1.6526e-09
1.4816e-07
1.83401e-09
1.46162e-07
1.99823e-09
1.4402e-07
2.14199e-09
1.41751e-07
2.26857e-09
1.39374e-07
2.3759e-09
1.36906e-07
2.46733e-09
2.54268e-09
1.34364e-07
1.54486e-07
1.92514e-09
-1.55176e-07
1.53641e-07
2.29776e-09
1.52638e-07
2.65504e-09
1.51475e-07
2.99469e-09
1.50161e-07
3.31268e-09
1.48693e-07
3.60903e-09
1.47081e-07
3.88103e-09
1.45328e-07
4.12844e-09
1.43449e-07
4.34845e-09
4.54208e-09
1.4145e-07
1.4813e-07
2.79681e-09
-1.49002e-07
1.4713e-07
3.29886e-09
1.46002e-07
3.78277e-09
1.44751e-07
4.24594e-09
1.43377e-07
4.68555e-09
1.41888e-07
5.09884e-09
1.40287e-07
5.48247e-09
1.38581e-07
5.83441e-09
1.36777e-07
6.15273e-09
6.43691e-09
1.34882e-07
1.41274e-07
3.80969e-09
-1.42286e-07
1.40143e-07
4.42932e-09
1.38899e-07
5.02655e-09
1.37546e-07
5.59889e-09
1.36089e-07
6.14291e-09
1.34533e-07
6.65488e-09
1.32884e-07
7.13104e-09
1.3115e-07
7.56813e-09
1.2934e-07
7.96319e-09
8.31619e-09
1.27461e-07
1.3394e-07
4.9389e-09
-1.35069e-07
1.32704e-07
5.66565e-09
1.31364e-07
6.36646e-09
1.29925e-07
7.03829e-09
1.28391e-07
7.67682e-09
1.26769e-07
8.27682e-09
1.25066e-07
8.83297e-09
1.23293e-07
9.34082e-09
1.2146e-07
9.7972e-09
1.02017e-08
1.19575e-07
1.26048e-07
6.17593e-09
-1.27285e-07
1.24714e-07
6.99906e-09
1.23286e-07
7.79468e-09
1.21766e-07
8.55893e-09
1.20157e-07
9.28551e-09
1.18466e-07
9.96621e-09
1.16707e-07
1.05927e-08
1.14889e-07
1.11587e-08
1.13025e-07
1.1662e-08
1.21015e-08
1.11125e-07
1.17507e-07
7.51502e-09
-1.18846e-07
1.16083e-07
8.42307e-09
1.14572e-07
9.30593e-09
1.1297e-07
1.01591e-08
1.11284e-07
1.0972e-08
1.09519e-07
1.17304e-08
1.07693e-07
1.24193e-08
1.05824e-07
1.30292e-08
1.03924e-07
1.35619e-08
1.40177e-08
1.02008e-07
1.08219e-07
8.95172e-09
-1.09656e-07
1.0671e-07
9.93096e-09
1.05122e-07
1.0894e-08
1.03444e-07
1.18371e-08
1.01669e-07
1.27464e-08
9.98106e-08
1.35906e-08
9.78962e-08
1.43338e-08
9.59656e-08
1.49597e-08
9.40344e-08
1.54931e-08
1.59423e-08
9.21097e-08
9.80686e-08
1.04854e-08
-9.96025e-08
9.64849e-08
1.15145e-08
9.48303e-08
1.25498e-08
9.3075e-08
1.35929e-08
9.11887e-08
1.46329e-08
8.91783e-08
1.56008e-08
8.71231e-08
1.6389e-08
8.51144e-08
1.69683e-08
8.31633e-08
1.74441e-08
1.78216e-08
8.1284e-08
8.69145e-08
1.21328e-08
-8.8562e-08
8.52471e-08
1.31807e-08
8.35316e-08
1.42658e-08
8.17086e-08
1.54165e-08
7.96712e-08
1.667e-08
7.73635e-08
1.79086e-08
7.50144e-08
1.87379e-08
7.29039e-08
1.90787e-08
7.10456e-08
1.93023e-08
1.97491e-08
6.91181e-08
7.45928e-08
1.39587e-08
-7.64199e-08
7.27588e-08
1.50178e-08
7.08954e-08
1.61292e-08
6.90453e-08
1.72664e-08
6.69786e-08
1.87367e-08
6.4383e-08
2.05041e-08
6.11576e-08
2.19632e-08
5.92137e-08
2.10224e-08
5.64044e-08
2.03142e-08
2.01632e-08
5.56631e-08
6.12331e-08
1.58844e-08
-6.31589e-08
5.88748e-08
1.73761e-08
5.62642e-08
1.87397e-08
5.40521e-08
1.94785e-08
4.91207e-08
2.02666e-08
4.57191e-08
2.10696e-08
4.62475e-08
2.13658e-08
4.7029e-08
2.09348e-08
4.71545e-08
2.08629e-08
2.09663e-08
4.65563e-08
4.74467e-08
1.75278e-08
-5.01634e-08
4.28929e-08
1.88918e-08
3.91906e-08
1.94411e-08
3.82567e-08
2.01189e-08
3.71581e-08
2.12955e-08
3.672e-08
2.14467e-08
3.63901e-08
2.16305e-08
3.86885e-08
2.23041e-08
3.79855e-08
2.20055e-08
2.17183e-08
3.73006e-08
3.38504e-08
1.9885e-08
-3.62936e-08
3.21862e-08
2.0493e-08
3.10972e-08
2.0477e-08
3.03587e-08
2.08047e-08
3.11816e-08
2.27903e-08
3.065e-08
2.39144e-08
3.00896e-08
2.39585e-08
2.90741e-08
2.36274e-08
2.77521e-08
2.33316e-08
2.31428e-08
2.63267e-08
2.68645e-08
2.27964e-08
-2.88467e-08
2.46744e-08
2.35097e-08
2.30219e-08
2.37594e-08
2.1454e-08
2.42389e-08
2.04055e-08
2.47553e-08
1.93232e-08
2.51462e-08
1.80138e-08
2.52611e-08
1.64338e-08
2.52038e-08
1.46539e-08
2.51053e-08
2.50772e-08
1.27186e-08
1.49413e-08
2.45679e-08
-1.6688e-08
1.30742e-08
2.53778e-08
1.08915e-08
2.59411e-08
8.74183e-09
2.63891e-08
6.71712e-09
2.67769e-08
4.80351e-09
2.70542e-08
2.86434e-09
2.71966e-08
8.06193e-10
2.72584e-08
-1.39835e-09
2.73096e-08
2.73792e-08
-3.70453e-09
-4.02253e-10
2.69922e-08
-2.02125e-09
-2.86724e-09
2.78438e-08
-5.40159e-09
2.84742e-08
-7.96064e-09
2.89418e-08
-1.04718e-08
2.92844e-08
-1.29196e-08
2.94985e-08
-1.53259e-08
2.95992e-08
-1.77438e-08
2.96867e-08
-2.0246e-08
2.97852e-08
2.99723e-08
-2.2848e-08
-1.88436e-08
3.0088e-08
1.57485e-08
-2.19359e-08
3.09308e-08
-2.49887e-08
3.15161e-08
-2.79783e-08
3.1928e-08
-3.09213e-08
3.22238e-08
-3.37761e-08
3.23498e-08
-3.64629e-08
3.227e-08
-3.91257e-08
3.22946e-08
-4.18466e-08
3.25152e-08
3.28321e-08
-4.47137e-08
-4.04353e-08
3.39989e-08
3.65221e-08
-4.4244e-08
3.47369e-08
-4.7817e-08
3.50765e-08
-5.10642e-08
3.51631e-08
-5.40027e-08
3.53721e-08
-5.67421e-08
3.49315e-08
-6.02825e-08
3.50194e-08
-6.31879e-08
3.52008e-08
-6.61957e-08
3.55234e-08
3.60487e-08
-6.94198e-08
-6.5309e-08
3.88755e-08
6.04317e-08
-6.96884e-08
3.91155e-08
-7.39307e-08
3.94346e-08
-7.63083e-08
3.78803e-08
-7.90084e-08
3.76327e-08
-8.24774e-08
3.7961e-08
-8.63205e-08
3.82409e-08
-8.97085e-08
3.85896e-08
-9.34429e-08
3.92584e-08
4.01637e-08
-9.75698e-08
-9.28793e-08
4.48971e-08
8.69287e-08
-9.4303e-08
4.07525e-08
-9.84543e-08
4.04866e-08
-1.03042e-07
4.10965e-08
-1.06899e-07
4.14873e-08
-1.10518e-07
4.15648e-08
-1.14318e-07
4.19309e-08
-1.18512e-07
4.27839e-08
-1.23242e-07
4.39895e-08
4.54774e-08
-1.28555e-07
-1.06232e-07
4.4006e-08
1.04024e-07
-1.19021e-07
4.34782e-08
-1.28336e-07
4.55548e-08
-1.31655e-07
4.49077e-08
-1.34977e-07
4.48064e-08
-1.38713e-07
4.52828e-08
-1.43191e-07
4.63807e-08
-1.47862e-07
4.74554e-08
-1.51993e-07
4.8667e-08
4.6412e-08
-1.43446e-07
-1.33383e-07
4.78357e-08
1.25068e-07
-1.50867e-07
5.0021e-08
-1.54346e-07
4.90417e-08
-1.57995e-07
4.85606e-08
-1.62002e-07
4.88058e-08
-1.65866e-07
4.91299e-08
-1.66628e-07
5.01016e-08
-1.57617e-07
4.79744e-08
-1.56226e-07
4.65734e-08
4.73038e-08
-1.57926e-07
-1.72912e-07
5.48175e-08
1.59731e-07
-1.76463e-07
5.35608e-08
-1.80283e-07
5.28487e-08
-1.84549e-07
5.28355e-08
-1.87794e-07
5.20546e-08
-1.72446e-07
4.98856e-08
-1.71261e-07
4.83814e-08
-1.73003e-07
4.908e-08
-1.74693e-07
4.76426e-08
5.02124e-08
-1.78304e-07
-2.00221e-07
5.78531e-08
1.97207e-07
-2.03699e-07
5.70729e-08
-2.07772e-07
5.69157e-08
-2.04928e-07
5.55488e-08
-1.90085e-07
5.1647e-08
-1.89215e-07
4.83592e-08
-1.91381e-07
4.99987e-08
-1.98306e-07
5.18258e-08
-2.19332e-07
5.7116e-08
5.70361e-08
-2.24486e-07
-2.29566e-07
6.19128e-08
2.25518e-07
-2.33857e-07
6.13842e-08
-2.34769e-07
6.11135e-08
-2.107e-07
5.50048e-08
-2.11392e-07
5.24394e-08
-2.16193e-07
5.27025e-08
-2.41233e-07
5.67227e-08
-2.47858e-07
5.84254e-08
-2.49188e-07
5.84303e-08
5.87572e-08
-2.50906e-07
-2.59764e-07
6.66974e-08
2.54992e-07
-2.64087e-07
6.57389e-08
-2.63144e-07
6.44357e-08
-2.32525e-07
5.82448e-08
-2.3495e-07
5.4559e-08
-2.46954e-07
5.59371e-08
-2.7383e-07
5.92144e-08
-2.75317e-07
5.98904e-08
-2.77286e-07
6.03793e-08
6.16625e-08
-2.80205e-07
-2.90399e-07
7.16352e-08
2.85482e-07
-2.94039e-07
6.97607e-08
-2.63372e-07
6.45291e-08
-2.60285e-07
5.86548e-08
-2.66345e-07
5.72343e-08
-2.99958e-07
6.06143e-08
-3.01039e-07
6.03032e-08
-3.02222e-07
6.10542e-08
-3.04219e-07
6.23533e-08
5.98339e-08
-3.0241e-07
-2.92277e-07
7.27731e-08
3.09508e-07
-2.90392e-07
6.65885e-08
-2.91074e-07
6.35855e-08
-3.15177e-07
6.39984e-08
-3.23962e-07
6.30759e-08
-3.23394e-07
6.06647e-08
-3.22504e-07
5.95555e-08
-3.21373e-07
5.99306e-08
-2.64132e-07
4.94823e-08
4.45046e-08
-2.16138e-07
-3.10642e-07
7.24639e-08
3.06555e-07
-3.16736e-07
6.97974e-08
-3.46663e-07
7.0445e-08
-3.49161e-07
6.64876e-08
-3.48949e-07
6.28777e-08
-3.48474e-07
6.02261e-08
-3.4697e-07
5.87227e-08
-2.8032e-07
5.48843e-08
-2.06248e-07
4.06049e-08
3.90002e-08
-2.01879e-07
-3.49e-07
7.64177e-08
3.29117e-07
-3.6644e-07
7.65165e-08
-3.67052e-07
7.10435e-08
-3.666e-07
6.60305e-08
-3.65553e-07
6.18301e-08
-3.63981e-07
5.86886e-08
-3.61721e-07
5.67603e-08
-3.50935e-07
5.59456e-08
-2.16645e-07
5.26523e-08
3.5049e-08
-2.13428e-07
-3.8043e-07
8.31058e-08
3.7356e-07
-3.80359e-07
7.64325e-08
-3.79246e-07
6.99254e-08
-3.77291e-07
6.4068e-08
-3.74476e-07
5.90012e-08
-3.70713e-07
5.49357e-08
-3.6588e-07
5.19869e-08
-3.5773e-07
5.0145e-08
-3.34965e-07
4.94244e-08
4.96761e-08
-3.22849e-07
-3.91275e-07
8.2916e-08
3.91425e-07
-3.89696e-07
7.50836e-08
-3.87781e-07
6.7481e-08
-3.84771e-07
6.07629e-08
-3.80462e-07
5.46921e-08
-3.75147e-07
4.96203e-08
-3.68794e-07
4.5706e-08
-3.61599e-07
4.30727e-08
-3.53918e-07
4.17956e-08
4.18681e-08
-3.46125e-07
-3.98691e-07
8.17948e-08
4.0057e-07
-3.96702e-07
7.28435e-08
-3.93932e-07
6.43372e-08
-3.90267e-07
5.65266e-08
-3.84965e-07
4.93896e-08
-3.78598e-07
4.32531e-08
-3.71225e-07
3.83365e-08
-3.63004e-07
3.48514e-08
-3.54219e-07
3.30107e-08
3.30061e-08
-3.45356e-07
-4.03939e-07
8.03063e-08
4.06242e-07
-4.01647e-07
7.03067e-08
-3.99036e-07
6.08164e-08
-3.94571e-07
5.20614e-08
-3.8901e-07
4.38294e-08
-3.8233e-07
3.65723e-08
-3.74516e-07
3.05202e-08
-3.65614e-07
2.59515e-08
-3.55837e-07
2.32347e-08
2.28789e-08
-3.4571e-07
-4.0701e-07
7.8901e-08
4.08646e-07
-4.038e-07
6.80173e-08
-4.01629e-07
5.75777e-08
-3.97997e-07
4.81207e-08
-3.93179e-07
3.90118e-08
-3.87424e-07
3.08174e-08
-3.80638e-07
2.37342e-08
-3.72696e-07
1.80087e-08
-3.63455e-07
1.4002e-08
1.23083e-08
-3.52795e-07
-4.05693e-07
7.76086e-08
4.07004e-07
-4.01644e-07
6.60877e-08
-3.99433e-07
5.49548e-08
-3.99084e-07
4.52055e-08
-3.9581e-07
3.57376e-08
-3.92126e-07
2.71333e-08
-3.88036e-07
1.96438e-08
-3.83486e-07
1.34604e-08
-3.78279e-07
8.80874e-09
5.86864e-09
-3.71746e-07
-3.9695e-07
7.60887e-08
4.0112e-07
-3.93872e-07
6.42406e-08
-3.92333e-07
5.306e-08
-3.9445e-07
4.26827e-08
-3.91687e-07
3.29743e-08
-3.88612e-07
2.40586e-08
-3.85253e-07
1.62846e-08
-3.81574e-07
9.78078e-09
-3.77401e-07
4.6468e-09
8.40064e-10
-3.72312e-07
-3.87673e-07
7.48489e-08
3.90154e-07
-3.85293e-07
6.24286e-08
-3.81929e-07
5.0937e-08
-3.8404e-07
3.95839e-08
-3.81008e-07
2.93372e-08
-3.76675e-07
1.97252e-08
-3.7158e-07
1.11902e-08
-3.6559e-07
3.78988e-09
-3.58493e-07
-2.4494e-09
-7.56395e-09
-3.50088e-07
-3.79997e-07
7.40231e-08
3.83164e-07
-3.76158e-07
5.9735e-08
-3.72477e-07
4.78344e-08
-3.69322e-07
3.58318e-08
-3.68288e-07
2.43642e-08
-3.62306e-07
1.3743e-08
-3.55147e-07
4.03035e-09
-3.46633e-07
-4.72363e-09
-3.36511e-07
-1.2572e-08
-1.9504e-08
-3.2457e-07
-3.70741e-07
7.28065e-08
3.7376e-07
-3.70242e-07
5.84162e-08
-3.67518e-07
4.50664e-08
-3.63123e-07
3.14209e-08
-3.57312e-07
1.84303e-08
-3.50152e-07
6.33944e-09
-3.41384e-07
-4.73754e-09
-3.31122e-07
-1.49848e-08
-3.18987e-07
-2.47038e-08
-3.38571e-08
-3.04619e-07
-3.61464e-07
7.14042e-08
3.63804e-07
-3.61564e-07
5.68474e-08
-3.63852e-07
4.19887e-08
-3.59121e-07
2.67092e-08
-3.52432e-07
1.17436e-08
-3.4401e-07
-2.08075e-09
-3.3399e-07
-1.45528e-08
-3.22307e-07
-2.61291e-08
-3.09014e-07
-3.6797e-08
-4.87733e-08
-2.93084e-07
-3.61054e-07
7.11628e-08
3.6328e-07
-3.59663e-07
5.58778e-08
-3.66529e-07
3.9931e-08
-3.63425e-07
2.29048e-08
-3.56795e-07
5.13239e-09
-3.4812e-07
-1.07481e-08
-3.31291e-07
-2.16084e-08
-3.00109e-07
-3.01573e-08
-2.72939e-07
-4.09012e-08
-5.73979e-08
-2.62818e-07
-3.70405e-07
7.31209e-08
3.71911e-07
-3.7302e-07
5.45277e-08
-3.75591e-07
4.12327e-08
-3.75277e-07
1.92674e-08
-3.71626e-07
-4.16808e-10
-3.50395e-07
-1.98228e-08
-2.74222e-07
-3.45111e-08
-2.62246e-07
-4.51158e-08
-2.47332e-07
-5.86513e-08
-8.05617e-08
-2.27326e-07
-3.5645e-07
7.43127e-08
3.81051e-07
-3.05686e-07
4.8925e-08
-2.99727e-07
3.11983e-08
-2.99877e-07
1.3283e-08
-3.73166e-07
-6.74405e-09
-3.63565e-07
-2.94375e-08
-3.31157e-07
-5.06383e-08
-2.80706e-07
-7.27931e-08
-2.68695e-07
-9.5136e-08
-1.15089e-07
-2.772e-07
-3.0848e-07
6.46655e-08
3.15077e-07
-3.09474e-07
4.6869e-08
-3.09722e-07
2.8396e-08
-3.0939e-07
8.8754e-09
-3.89879e-07
-1.6084e-08
-3.77574e-07
-4.17648e-08
-3.61532e-07
-6.67429e-08
-3.41992e-07
-9.23492e-08
-3.19442e-07
-1.17686e-07
-1.4163e-07
-2.92901e-07
-3.24349e-07
7.0572e-08
3.15637e-07
-3.99213e-07
5.78838e-08
-4.05201e-07
3.45734e-08
-4.02424e-07
6.63813e-09
-3.96028e-07
-2.2479e-08
-3.85313e-07
-5.19022e-08
-3.70784e-07
-8.16397e-08
-3.51885e-07
-1.11577e-07
-3.29404e-07
-1.41028e-07
-1.69343e-07
-3.01691e-07
-3.9975e-07
8.77817e-08
3.45129e-07
-4.05357e-07
6.34951e-08
-4.0659e-07
3.58059e-08
-4.06024e-07
6.07223e-09
-4.02877e-07
-2.56258e-08
-3.95793e-07
-5.89851e-08
-3.83783e-07
-9.36484e-08
-3.66374e-07
-1.29001e-07
-3.43241e-07
-1.64158e-07
-1.98176e-07
-3.14432e-07
-3.83162e-07
9.53816e-08
3.75545e-07
-3.89333e-07
6.96667e-08
-3.9506e-07
4.15334e-08
-3.99506e-07
1.05181e-08
-4.01408e-07
-2.3723e-08
-3.99159e-07
-6.12337e-08
-3.91225e-07
-1.01583e-07
-3.76489e-07
-1.43736e-07
-3.54439e-07
-1.86208e-07
-2.27449e-07
-3.25155e-07
-3.39646e-07
1.03386e-07
3.3164e-07
-3.49023e-07
7.90432e-08
-3.59345e-07
5.18571e-08
-3.69706e-07
2.08812e-08
-3.78539e-07
-1.48873e-08
-3.83528e-07
-5.62419e-08
-3.82055e-07
-1.03049e-07
-3.72123e-07
-1.53662e-07
-3.52882e-07
-2.05437e-07
-2.55759e-07
-3.24556e-07
-2.64229e-07
1.09305e-07
2.58305e-07
-2.72988e-07
8.78008e-08
-2.84676e-07
6.35008e-08
-2.99058e-07
3.52657e-08
-3.15099e-07
1.19782e-09
-3.29835e-07
-4.14364e-08
-3.38525e-07
-9.42506e-08
-3.36928e-07
-1.55198e-07
-3.23527e-07
-2.1878e-07
-2.80138e-07
-2.99041e-07
-1.51016e-07
1.06792e-07
1.53522e-07
-1.5124e-07
8.81258e-08
-1.55463e-07
6.77176e-08
-1.65238e-07
4.49556e-08
-1.80503e-07
1.73787e-08
-2.02576e-07
-1.31354e-08
-2.29045e-07
-5.51153e-08
-2.46057e-07
-1.21048e-07
-2.4538e-07
-2.10046e-07
-2.93724e-07
-2.30654e-07
-1.31334e-08
9.0395e-08
2.95182e-08
2.55954e-09
7.24515e-08
1.57828e-08
5.36175e-08
1.90892e-08
3.22933e-08
1.09124e-08
1.15141e-08
2.27613e-09
8.03369e-10
-1.78357e-08
-1.60197e-09
-3.66105e-08
-2.97031e-09
-6.1563e-08
-1.01474e-08
-9.73981e-08
-8.2123e-08
1.08678e-07
6.47223e-08
-8.30663e-08
1.34506e-07
4.66517e-08
1.59668e-07
2.84593e-08
1.38248e-07
1.01102e-08
4.24444e-08
-2.58607e-09
5.95233e-09
-1.31325e-09
3.94652e-09
-6.39075e-11
1.32169e-09
-4.23963e-10
1.2283e-09
-8.57882e-10
-2.191e-09
6.973e-09
1.92636e-07
3.82329e-08
-1.66158e-07
2.18211e-07
2.12041e-08
2.41642e-07
5.0299e-09
2.57403e-07
-9.88761e-09
4.91349e-08
-1.38786e-08
2.02928e-09
-1.87324e-09
1.85441e-09
-9.98656e-11
1.73721e-09
-1.0321e-10
1.55695e-09
-6.21126e-10
-1.6196e-09
1.27817e-09
2.49377e-07
1.39219e-08
-2.24999e-07
2.71917e-07
-1.23047e-09
2.91778e-07
-1.48297e-08
3.08412e-07
-2.65213e-08
6.55873e-08
-2.54704e-08
1.57845e-09
-3.47966e-09
1.19549e-09
-2.56706e-10
2.02521e-09
-7.44817e-11
1.97861e-09
-3.9166e-10
-9.90649e-10
1.57552e-09
2.8474e-07
-6.31428e-09
-2.64324e-07
3.02588e-07
-1.90671e-08
3.17592e-07
-2.98324e-08
3.29282e-07
-3.82114e-08
1.3642e-07
-3.84244e-08
2.79215e-09
-9.32139e-09
9.14619e-10
-6.61485e-10
1.9937e-09
-1.25142e-10
2.09438e-09
-3.75679e-10
-9.40148e-10
2.04863e-09
3.04342e-07
-2.11579e-08
-2.89457e-07
3.16709e-07
-3.14327e-08
3.26527e-07
-3.96498e-08
3.33716e-07
-4.53999e-08
2.06207e-07
-4.59338e-08
3.58701e-09
-1.51582e-08
9.96553e-10
-1.0292e-09
2.50656e-09
-2.86127e-10
2.57732e-09
-5.61372e-10
-1.1101e-09
2.87339e-09
3.12084e-07
-2.99601e-08
-3.03212e-07
3.18921e-07
-3.8269e-08
3.24125e-07
-4.48533e-08
3.28056e-07
-4.93302e-08
2.26137e-07
-4.90027e-08
4.00621e-09
-1.66241e-08
2.34383e-09
-1.24146e-09
2.10232e-09
-6.52577e-10
2.87732e-09
-8.51843e-10
-1.55531e-09
3.26618e-09
3.08551e-07
-3.24668e-08
-3.0597e-07
3.09975e-07
-3.96877e-08
3.11074e-07
-4.59512e-08
3.12721e-07
-5.09762e-08
1.97685e-07
-5.04389e-08
4.11811e-09
-1.06979e-08
2.71317e-09
-1.81965e-09
3.05197e-09
-9.78577e-10
3.44924e-09
-1.4279e-09
-2.40232e-09
4.57765e-09
2.93608e-07
-2.90302e-08
-2.97021e-07
2.89951e-07
-3.6031e-08
2.87191e-07
-4.31911e-08
2.8387e-07
-4.76562e-08
1.04232e-07
-3.38625e-08
6.95858e-09
-8.43347e-09
3.18077e-09
-2.17498e-09
4.75247e-09
-3.62583e-09
6.11256e-09
-3.00145e-09
-5.38872e-09
9.02241e-09
2.70441e-07
-2.16272e-08
-2.77843e-07
2.63632e-07
-2.92217e-08
2.5749e-07
-3.70493e-08
1.70721e-07
-2.99511e-08
2.50972e-08
-1.68361e-08
1.52523e-09
-7.83476e-09
1.88283e-08
-5.08806e-08
1.66043e-08
-4.13847e-08
1.44592e-08
-5.56689e-09
-2.08332e-08
2.96524e-08
2.44782e-07
-1.41157e-08
-2.52294e-07
2.39035e-07
-2.34747e-08
1.80753e-07
-2.20545e-08
2.82024e-08
-1.2604e-08
4.96331e-08
-2.36436e-08
1.16179e-07
-4.76274e-08
1.25981e-07
-1.34308e-07
4.81751e-08
-1.05053e-07
4.85149e-08
-1.40795e-08
-1.0446e-07
1.30303e-07
2.15734e-07
-8.54741e-09
-2.21302e-07
1.64037e-07
-1.37803e-08
5.63951e-08
-1.04949e-08
4.43588e-08
-2.13321e-08
5.84303e-08
-5.14011e-08
1.87855e-07
-1.14532e-07
2.12497e-07
-1.40755e-07
1.09954e-07
-8.33228e-08
1.88586e-07
-1.41454e-07
-5.68801e-07
6.13317e-07
1.32535e-07
-4.39652e-09
-1.84919e-07
4.90124e-08
-8.12377e-09
3.67199e-08
-1.89816e-08
5.61164e-08
-6.52446e-08
1.77734e-07
-9.61622e-08
2.92722e-07
-1.47486e-07
3.80259e-07
-1.97206e-07
4.1466e-07
-2.01094e-07
6.89686e-07
-5.48061e-07
-7.75307e-07
8.53808e-07
3.16801e-08
-4.57958e-09
-9.85226e-08
2.73462e-08
-1.89868e-08
8.55555e-08
-9.42885e-08
2.17871e-07
-1.69656e-07
3.19244e-07
-1.75627e-07
3.52042e-07
-1.33625e-07
4.45334e-07
-2.2861e-07
6.49071e-07
-4.2028e-07
8.27772e-07
-7.51263e-07
-8.39023e-07
8.90995e-07
2.95016e-08
-1.78745e-08
-2.92253e-08
1.11096e-07
-1.15446e-07
2.20985e-07
-2.06655e-07
2.24286e-07
-1.85998e-07
2.0872e-07
-1.86645e-07
3.10629e-07
-2.22597e-07
4.57415e-07
-3.64091e-07
7.54673e-07
-7.27938e-07
8.39121e-07
-8.35907e-07
-8.87718e-07
8.87737e-07
1.05572e-07
-1.12772e-07
-2.16241e-08
2.11209e-07
-2.21403e-07
2.33106e-07
-2.24001e-07
1.99562e-07
-1.68433e-07
2.20525e-07
-2.06571e-07
3.5678e-07
-3.56198e-07
6.53828e-07
-7.13182e-07
7.5969e-07
-8.3861e-07
8.15381e-07
-8.91761e-07
-9.31272e-07
8.58904e-07
1.9715e-07
-2.1571e-07
-9.69854e-08
2.19539e-07
-2.29984e-07
1.59572e-07
-1.54989e-07
1.76051e-07
-1.78617e-07
2.72278e-07
-2.96999e-07
5.61832e-07
-6.84041e-07
6.77629e-07
-8.3753e-07
7.34645e-07
-8.95782e-07
7.81344e-07
-9.38482e-07
-9.70879e-07
8.20948e-07
1.93335e-07
-2.25637e-07
-1.73242e-07
1.17672e-07
-1.41126e-07
8.66008e-08
-1.17984e-07
1.58905e-07
-2.47379e-07
4.54967e-07
-6.10919e-07
5.9621e-07
-8.31055e-07
6.54674e-07
-8.96123e-07
7.01784e-07
-9.42911e-07
7.42923e-07
-9.79622e-07
-1.00454e-06
7.76587e-07
1.06959e-07
-1.69238e-07
-1.47803e-07
6.61073e-08
-9.04877e-08
9.88285e-08
-1.52625e-07
3.19579e-07
-4.70649e-07
5.17882e-07
-8.12546e-07
5.76879e-07
-8.90141e-07
6.2285e-07
-9.4211e-07
6.64118e-07
-9.84182e-07
6.99285e-07
-1.01479e-06
-1.0306e-06
7.25345e-07
5.53557e-08
-9.13977e-08
-9.23235e-08
6.75402e-08
-1.08983e-07
1.69593e-07
-2.59555e-07
4.3746e-07
-7.39663e-07
4.99034e-07
-8.74195e-07
5.44163e-07
-9.35282e-07
5.85645e-07
-9.83595e-07
6.22325e-07
-1.02086e-06
6.51146e-07
-1.04361e-06
-1.04859e-06
6.69129e-07
3.80732e-08
-8.10033e-08
-5.63967e-08
6.89354e-08
-1.46917e-07
3.12424e-07
-4.99839e-07
4.21916e-07
-8.48938e-07
4.69648e-07
-9.21942e-07
5.10947e-07
-9.76584e-07
5.48506e-07
-1.02115e-06
5.7982e-07
-1.05218e-06
6.01795e-07
-1.06559e-06
-1.05902e-06
6.1223e-07
4.89945e-08
-9.91509e-08
-4.02481e-08
1.27764e-07
-2.34303e-07
3.62646e-07
-7.35423e-07
4.07842e-07
-8.94155e-07
4.45074e-07
-9.59177e-07
4.80947e-07
-1.01246e-06
5.13329e-07
-1.05354e-06
5.38761e-07
-1.07761e-06
5.54318e-07
-1.08114e-06
-1.06327e-06
5.58568e-07
4.8256e-08
-1.26597e-07
-3.02111e-08
2.29578e-07
-4.22018e-07
3.43673e-07
-8.50014e-07
3.81885e-07
-9.32372e-07
4.16816e-07
-9.94107e-07
4.50093e-07
-1.04573e-06
4.78876e-07
-1.08232e-06
4.99972e-07
-1.0987e-06
5.11367e-07
-1.09254e-06
-1.06489e-06
5.12985e-07
7.79933e-08
-1.71942e-07
-4.20495e-08
2.95163e-07
-6.58243e-07
3.3233e-07
-8.87234e-07
3.62194e-07
-9.62243e-07
3.92943e-07
-1.02486e-06
4.22362e-07
-1.07515e-06
4.46963e-07
-1.10692e-06
4.63674e-07
-1.11542e-06
4.70965e-07
-1.09983e-06
-1.06319e-06
4.69264e-07
1.32731e-07
-2.86947e-07
-4.47503e-08
2.77563e-07
-8.13736e-07
3.08289e-07
-9.17995e-07
3.37181e-07
-9.91138e-07
3.66769e-07
-1.05444e-06
3.94312e-07
-1.1027e-06
4.16375e-07
-1.12898e-06
4.30362e-07
-1.1294e-06
4.35439e-07
-1.10491e-06
-1.06035e-06
4.32598e-07
2.19927e-07
-5.26804e-07
-4.92842e-08
2.58717e-07
-8.57736e-07
2.85913e-07
-9.45224e-07
3.13955e-07
-1.01918e-06
3.42182e-07
-1.08267e-06
3.67817e-07
-1.12833e-06
3.87607e-07
-1.14877e-06
3.99478e-07
-1.14127e-06
4.0328e-07
-1.10871e-06
-1.05749e-06
4.00427e-07
2.21382e-07
-7.02347e-07
-8.39328e-08
2.43353e-07
-8.79797e-07
2.64964e-07
-9.66845e-07
2.90132e-07
-1.04435e-06
3.16477e-07
-1.10902e-06
3.40328e-07
-1.15218e-06
3.58225e-07
-1.16667e-06
3.68526e-07
-1.15157e-06
3.71539e-07
-1.11172e-06
-1.05446e-06
3.68502e-07
1.74584e-07
-7.86494e-07
-1.03424e-07
1.99649e-07
-9.0489e-07
2.26844e-07
-9.94042e-07
2.56026e-07
-1.07353e-06
2.84561e-07
-1.13755e-06
3.09057e-07
-1.17668e-06
3.26748e-07
-1.18436e-06
3.36952e-07
-1.16178e-06
3.40515e-07
-1.11528e-06
-1.05214e-06
3.38193e-07
1.19638e-07
-8.24245e-07
-7.54829e-08
1.5423e-07
-9.39434e-07
1.8892e-07
-1.02873e-06
2.2223e-07
-1.10684e-06
2.52534e-07
-1.16785e-06
2.77496e-07
-1.20164e-06
2.95369e-07
-1.20223e-06
3.0651e-07
-1.17292e-06
3.12194e-07
-1.12097e-06
-1.05233e-06
3.12388e-07
8.73498e-08
-8.57734e-07
-4.19272e-08
1.25926e-07
-9.77714e-07
1.6194e-07
-1.06474e-06
1.94766e-07
-1.13967e-06
2.23829e-07
-1.19692e-06
2.47544e-07
-1.22535e-06
2.64877e-07
-1.21956e-06
2.77082e-07
-1.18512e-06
2.86115e-07
-1.13e-06
-1.05892e-06
2.92703e-07
7.40407e-08
-8.76168e-07
-2.6069e-08
1.10792e-07
-1.01417e-06
1.4378e-07
-1.09772e-06
1.73042e-07
-1.16893e-06
1.98691e-07
-1.22257e-06
2.19517e-07
-1.24618e-06
2.34821e-07
-1.23487e-06
2.46166e-07
-1.19647e-06
2.55287e-07
-1.13912e-06
-1.06604e-06
2.62405e-07
7.51269e-08
-8.8761e-07
-2.56347e-08
1.05922e-07
-1.04489e-06
1.33065e-07
-1.12486e-06
1.5681e-07
-1.19268e-06
1.77627e-07
-1.24338e-06
1.94566e-07
-1.26312e-06
2.07314e-07
-1.24762e-06
2.17667e-07
-1.20682e-06
2.27159e-07
-1.14861e-06
-1.07481e-06
2.35934e-07
8.21963e-08
-9.0493e-07
-2.66287e-08
1.05365e-07
-1.06805e-06
1.25601e-07
-1.14509e-06
1.43187e-07
-1.21026e-06
1.5858e-07
-1.25878e-06
1.71103e-07
-1.27564e-06
1.81031e-07
-1.25754e-06
1.90324e-07
-1.21611e-06
2.00419e-07
-1.15871e-06
-1.08615e-06
2.11763e-07
8.52268e-08
-9.26322e-07
-2.90291e-08
1.01592e-07
-1.08437e-06
1.15912e-07
-1.15941e-06
1.2828e-07
-1.22263e-06
1.38589e-07
-1.26908e-06
1.4663e-07
-1.28368e-06
1.53512e-07
-1.26443e-06
1.61047e-07
-1.22365e-06
1.70292e-07
-1.16795e-06
-1.09715e-06
1.81285e-07
7.63451e-08
-9.49405e-07
-2.54532e-08
8.91429e-08
-1.09715e-06
1.00438e-07
-1.17071e-06
1.09873e-07
-1.23207e-06
1.16378e-07
-1.27559e-06
1.20665e-07
-1.28797e-06
1.24983e-07
-1.26874e-06
1.30697e-07
-1.22936e-06
1.38348e-07
-1.1756e-06
-1.1051e-06
1.46301e-07
5.72901e-08
-9.65467e-07
-1.74553e-08
6.96627e-08
-1.10952e-06
8.06617e-08
-1.18171e-06
8.92936e-08
-1.2407e-06
9.33688e-08
-1.27966e-06
9.5043e-08
-1.28965e-06
9.78872e-08
-1.27159e-06
1.02656e-07
-1.23413e-06
1.09291e-07
-1.18224e-06
-1.10669e-06
1.10877e-07
3.54131e-08
-9.77038e-07
-8.38021e-09
4.87966e-08
-1.1229e-06
6.07916e-08
-1.1937e-06
6.95917e-08
-1.2495e-06
7.20262e-08
-1.2821e-06
7.20511e-08
-1.28967e-06
7.44901e-08
-1.27403e-06
7.95417e-08
-1.23918e-06
8.68592e-08
-1.18956e-06
-1.09849e-06
7.86576e-08
1.49959e-08
-9.79727e-07
-9.54118e-10
2.93465e-08
-1.13725e-06
4.25574e-08
-1.20691e-06
5.17984e-08
-1.25874e-06
5.34549e-08
-1.28376e-06
5.31186e-08
-1.28933e-06
5.63732e-08
-1.27728e-06
6.29601e-08
-1.24577e-06
7.27823e-08
-1.19938e-06
-1.06226e-06
5.83252e-08
-1.03666e-08
-9.69799e-07
1.38785e-08
7.57912e-09
-1.15519e-06
2.38256e-08
-1.22316e-06
3.45662e-08
-1.26948e-06
3.69609e-08
-1.28615e-06
3.78171e-08
-1.29019e-06
4.31123e-08
-1.28258e-06
5.26989e-08
-1.25536e-06
6.7991e-08
-1.21467e-06
-1.01936e-06
4.99195e-08
-3.60287e-08
-9.49798e-07
3.68156e-08
-9.96067e-09
-1.18126e-06
9.32019e-09
-1.24243e-06
2.03219e-08
-1.28048e-06
2.26983e-08
-1.28853e-06
2.36938e-08
-1.29119e-06
2.90657e-08
-1.28795e-06
3.87015e-08
-1.26499e-06
5.53572e-08
-1.23133e-06
-9.81134e-07
3.95431e-08
-3.1985e-08
-9.27397e-07
2.71686e-08
-1.03241e-08
-1.20292e-06
5.07899e-09
-1.25784e-06
1.23673e-08
-1.28777e-06
1.25479e-08
-1.28871e-06
1.14561e-08
-1.29009e-06
1.36609e-08
-1.29015e-06
1.83971e-08
-1.26973e-06
2.78379e-08
-1.24077e-06
-9.54893e-07
2.02225e-08
-2.19176e-08
-9.14652e-07
2.18539e-08
-4.04529e-09
-1.22079e-06
7.74392e-09
-1.26962e-06
1.09906e-08
-1.29102e-06
8.43023e-09
-1.28615e-06
4.64671e-09
-1.28631e-06
3.31778e-09
-1.28883e-06
3.16035e-09
-1.26957e-06
3.21994e-09
-1.24071e-06
-9.43888e-07
4.50423e-09
7.21418e-09
-9.20908e-07
7.83307e-09
1.4814e-08
-1.2284e-06
1.87881e-08
-1.2736e-06
1.51308e-08
-1.28736e-06
8.24946e-09
-1.27927e-06
1.42477e-09
-1.27949e-06
-2.26371e-09
-1.28514e-06
-3.76308e-09
-1.26807e-06
-7.32933e-09
-1.23711e-06
-9.43769e-07
-3.59441e-12
3.57176e-08
-9.50611e-07
-4.41463e-14
2.71621e-08
-1.21989e-06
2.48185e-08
-1.27125e-06
1.60895e-08
-1.27863e-06
6.56612e-09
-1.26974e-06
-2.40085e-09
-1.27052e-06
-8.65538e-09
-1.27888e-06
-1.07147e-08
-1.26601e-06
-1.90063e-08
-1.22882e-06
-9.63151e-07
-2.08935e-11
2.25149e-08
-9.7156e-07
-2.94899e-13
2.00441e-08
-1.21742e-06
2.19939e-08
-1.2732e-06
1.32066e-08
-1.26984e-06
3.76897e-09
-1.2603e-06
-5.90859e-09
-1.26084e-06
-1.41812e-08
-1.27061e-06
-1.49295e-08
-1.26526e-06
-2.45501e-08
-1.2192e-06
-9.8954e-07
-6.06754e-12
1.56632e-08
-9.86904e-07
-1.68114e-12
1.97529e-08
-1.22151e-06
2.30321e-08
-1.27648e-06
1.2302e-08
-1.25911e-06
2.00063e-09
-1.25e-06
-8.51624e-09
-1.25032e-06
-1.87963e-08
-1.26033e-06
-1.54815e-08
-1.26858e-06
-1.77865e-08
-1.21689e-06
-1.00763e-06
-3.23695e-13
-4.22712e-10
-9.86531e-07
3.94562e-59
2.33837e-08
-1.24532e-06
2.54347e-08
-1.27853e-06
1.21016e-08
-1.24578e-06
8.73137e-10
-1.23878e-06
-1.0589e-08
-1.23886e-06
-2.43222e-08
-1.2466e-06
-1.93236e-08
-1.27358e-06
1.24282e-09
-1.23746e-06
-1.00788e-06
-8.39294e-13
-1.91511e-08