/*--------------------------------*- C++ -*----------------------------------*\
  =========                 |
  \\      /  F ield         | OpenFOAM: The Open Source CFD Toolbox
   \\    /   O peration     | Website:  https://openfoam.org
    \\  /    A nd           | Version:  8
     \\/     M anipulation  |
\*---------------------------------------------------------------------------*/
FoamFile
{
    version     2.0;
    format      ascii;
    class       volScalarField;
    location    "4.15";
    object      nut;
}
// * * * * * * * * * * * * * * * * * * * * * * * * * * * * * * * * * * * * * //

dimensions      [0 2 -1 0 0 0 0];

internalField   nonuniform List<scalar> 
9150
(
9.59971e-06
6.41051e-06
6.56904e-06
8.72458e-06
7.5231e-06
7.52231e-06
8.7241e-06
6.56915e-06
6.4106e-06
9.59973e-06
9.48716e-06
5.74257e-06
8.27027e-06
9.8674e-06
6.99975e-06
6.99897e-06
9.86678e-06
8.27048e-06
5.74267e-06
9.48717e-06
9.29533e-06
5.50527e-06
1.0793e-05
1.02441e-05
6.65362e-06
6.65287e-06
1.02434e-05
1.07933e-05
5.50537e-06
9.29534e-06
9.07978e-06
5.4272e-06
1.34003e-05
1.02424e-05
6.46746e-06
6.46673e-06
1.02416e-05
1.34005e-05
5.42728e-06
9.07979e-06
8.845e-06
5.41056e-06
1.56521e-05
1.01509e-05
6.37286e-06
6.37216e-06
1.015e-05
1.56521e-05
5.41063e-06
8.84501e-06
5.91005e-06
1.12722e-05
1.38337e-05
1.73389e-05
1.64871e-05
1.64868e-05
1.73398e-05
1.38367e-05
1.12752e-05
5.91026e-06
6.27799e-06
8.84991e-06
1.13365e-05
1.52458e-05
1.4261e-05
1.42602e-05
1.52454e-05
1.13377e-05
8.8509e-06
6.27799e-06
6.8285e-06
7.89854e-06
9.36946e-06
1.30204e-05
1.19918e-05
1.19908e-05
1.30195e-05
9.36985e-06
7.89892e-06
6.8285e-06
7.38596e-06
7.29608e-06
7.96297e-06
1.11175e-05
1.00845e-05
1.00835e-05
1.11166e-05
7.96307e-06
7.29623e-06
7.38596e-06
8.07397e-06
6.849e-06
7.04575e-06
9.62328e-06
8.55026e-06
8.54937e-06
9.62255e-06
7.04581e-06
6.84909e-06
8.07398e-06
1.26292e-05
1.50916e-05
1.28309e-05
1.55775e-05
1.7286e-05
1.73039e-05
1.56389e-05
1.32436e-05
1.74183e-05
1.37188e-05
7.87546e-06
1.07796e-05
1.24067e-05
1.57161e-05
1.73569e-05
1.73692e-05
1.57502e-05
1.24477e-05
1.08019e-05
7.89007e-06
7.45275e-06
1.01738e-05
1.24789e-05
1.58968e-05
1.7431e-05
1.74384e-05
1.592e-05
1.24978e-05
1.01781e-05
7.45455e-06
7.02679e-06
9.78538e-06
1.25174e-05
1.6049e-05
1.74919e-05
1.74972e-05
1.60638e-05
1.2529e-05
9.79207e-06
7.02758e-06
6.5061e-06
1.00447e-05
1.253e-05
1.62482e-05
1.73951e-05
1.73978e-05
1.62555e-05
1.25363e-05
1.0051e-05
6.50647e-06
7.06682e-06
7.03834e-06
7.00927e-06
6.97967e-06
6.94964e-06
6.91929e-06
6.88875e-06
6.85807e-06
6.82731e-06
6.79635e-06
5.39825e-05
5.34074e-05
5.28435e-05
5.22976e-05
5.17741e-05
5.12768e-05
5.08064e-05
5.03631e-05
4.99445e-05
4.9547e-05
0.000110531
0.000109559
0.000108565
0.000107561
0.000106554
0.00010555
0.000104555
0.000103571
0.000102598
0.000101633
0.000159369
0.000158252
0.000157078
0.000155857
0.000154597
0.000153304
0.000151985
0.000150643
0.00014928
0.000147895
0.000199678
0.000198572
0.000197378
0.000196104
0.000194757
0.000193344
0.000191869
0.000190337
0.000188751
0.000187108
0.00023276
0.000231746
0.000230617
0.000229381
0.000228044
0.000226611
0.000225088
0.000223477
0.000221782
0.000220003
0.000260057
0.000259158
0.000258124
0.000256962
0.000255676
0.000254273
0.000252757
0.000251129
0.000249392
0.000247548
0.000282807
0.000282008
0.00028106
0.000279968
0.000278739
0.000277377
0.000275884
0.000274262
0.000272512
0.000270636
0.000301993
0.000301255
0.000300357
0.000299307
0.000298113
0.000296778
0.000295302
0.000293681
0.000291915
0.00029001
0.000318365
0.000317634
0.000316736
0.000315681
0.000314481
0.000313142
0.000311657
0.000310009
0.0003082
0.000306244
0.000332474
0.000331688
0.000330729
0.000329607
0.000328339
0.000326939
0.000325402
0.000323692
0.000321807
0.00031978
0.000344692
0.000343782
0.000342699
0.000341444
0.000340038
0.000338503
0.000336856
0.00033507
0.000333114
0.000331018
0.000355288
0.000354186
0.000352918
0.00035149
0.000349925
0.000348247
0.00034647
0.000344572
0.000342526
0.000340341
0.000364533
0.000363223
0.000361745
0.000360124
0.000358387
0.000356552
0.00035462
0.000352576
0.000350401
0.000348091
0.000372745
0.000371211
0.000369515
0.000367675
0.000365726
0.000363687
0.000361557
0.000359321
0.000356961
0.000354467
0.000380155
0.000378351
0.000376398
0.000374309
0.000372105
0.000369806
0.000367412
0.000364913
0.000362291
0.000359534
0.000386872
0.000384741
0.000382474
0.000380078
0.000377566
0.000374946
0.000372219
0.000369378
0.000366415
0.000363313
0.000392934
0.000390434
0.000387797
0.00038503
0.000382142
0.000379134
0.000375999
0.000372738
0.000369349
0.000365823
0.000398401
0.00039548
0.000392407
0.000389194
0.000385852
0.000382384
0.000378777
0.000375033
0.000371162
0.000367162
0.000403317
0.000399925
0.000396344
0.00039261
0.000388742
0.000384758
0.000380648
0.000376406
0.000372046
0.000367569
0.000407693
0.000403807
0.000399669
0.000395377
0.000390976
0.000386481
0.000381891
0.000377198
0.000372401
0.00036749
0.00041157
0.00040726
0.000402636
0.000397866
0.000393026
0.000388128
0.000383177
0.000378155
0.000373041
0.000367817
0.00041529
0.000410677
0.000405828
0.000400853
0.000395821
0.000390753
0.00038566
0.000380527
0.000375321
0.000370058
0.000419812
0.000415151
0.000410372
0.00040551
0.000400601
0.000395657
0.000390699
0.000385752
0.000380809
0.000375898
0.000426339
0.000421939
0.000417505
0.000413042
0.000408555
0.000404048
0.000399563
0.000395148
0.000390792
0.000386523
0.00043583
0.000431982
0.000428153
0.000424347
0.000420559
0.000416789
0.000413046
0.000409368
0.000405787
0.000402323
0.000448914
0.00044589
0.00044291
0.000439982
0.00043709
0.000434209
0.000431327
0.000428474
0.000425709
0.000423066
0.000465834
0.000463865
0.000461938
0.000460047
0.00045815
0.000456204
0.000454214
0.000452227
0.000450299
0.000448471
0.000486565
0.000485842
0.000485126
0.000484392
0.000483606
0.000482705
0.000481696
0.000480636
0.000479597
0.000478623
0.000510958
0.000511624
0.00051226
0.00051281
0.000513246
0.000513521
0.000513647
0.000513679
0.000513688
0.000513722
0.000538814
0.000540946
0.000543026
0.00054498
0.00054677
0.000548382
0.000549833
0.000551167
0.000552427
0.000553623
0.000569917
0.000573571
0.00057715
0.000580576
0.00058381
0.000586837
0.000589662
0.000592292
0.000594724
0.000596946
0.000603663
0.000608814
0.000613867
0.000618742
0.000623396
0.000627805
0.000631953
0.000635829
0.000639419
0.000642713
0.000638886
0.000645386
0.000651764
0.000657945
0.000663885
0.000669556
0.00067494
0.00068002
0.000684782
0.000689215
0.000673877
0.00068143
0.000688849
0.000696074
0.000703069
0.000709815
0.0007163
0.000722515
0.000728447
0.00073408
0.000706435
0.000714615
0.00072268
0.000730592
0.000738332
0.0007459
0.000753305
0.000760554
0.000767657
0.000774612
0.000734144
0.000742457
0.000750723
0.000758928
0.000767081
0.000775207
0.000783342
0.000791524
0.0007998
0.000808222
0.00075491
0.000762924
0.000771016
0.000779198
0.000787509
0.000796001
0.000804732
0.000813763
0.000823153
0.000832948
0.000767682
0.000775164
0.000782882
0.00079087
0.000799178
0.000807865
0.000816991
0.000826608
0.000836753
0.000847461
0.000773142
0.000780129
0.000787503
0.000795288
0.000803517
0.000812228
0.000821456
0.000831225
0.000841641
0.000852755
0.000773759
0.000780551
0.000787813
0.000795534
0.000803711
0.000812346
0.000821443
0.000831131
0.000841533
0.000852609
0.000772818
0.000779813
0.000787256
0.000795087
0.000803262
0.000811752
0.000820614
0.000830102
0.000840223
0.000850946
0.000772845
0.000780268
0.000788013
0.000795963
0.000804028
0.000812173
0.000820718
0.000829783
0.000839402
0.000849546
0.000774476
0.00078216
0.000789975
0.000797763
0.000805407
0.000812931
0.000820807
0.000829147
0.000837979
0.000847317
0.000776368
0.000783861
0.000791291
0.00079842
0.000805107
0.000811655
0.000818471
0.000825735
0.000833459
0.000841682
0.00077637
0.000783002
0.000789397
0.000795361
0.000800771
0.000806069
0.000811637
0.000817638
0.000824168
0.000831335
0.000772469
0.000777729
0.000782659
0.000787212
0.000791354
0.000795515
0.00080003
0.000805081
0.00081078
0.000817205
0.000763927
0.000767611
0.00077118
0.000774634
0.000777976
0.000781532
0.0007856
0.000790335
0.000795794
0.000801974
0.000752141
0.000754418
0.000756983
0.000759911
0.000763228
0.000767041
0.000771565
0.000776843
0.000782808
0.000789325
0.000740082
0.000741343
0.000743453
0.00074656
0.000750695
0.000755679
0.00076156
0.000768189
0.000775307
0.00078261
0.000731399
0.000732194
0.000734412
0.000738257
0.000743756
0.000750563
0.000758415
0.000766912
0.000775547
0.000783815
0.000728942
0.000729925
0.000732756
0.000737648
0.000744639
0.00075352
0.000763545
0.000774033
0.000784262
0.000793488
0.000732361
0.000734203
0.000738246
0.000744689
0.00075343
0.000764218
0.000776596
0.000789419
0.000801392
0.000811481
0.000736828
0.00073995
0.000745807
0.000754448
0.000765734
0.000779273
0.000794401
0.00081086
0.000826554
0.000838013
0.000741966
0.000746914
0.000755096
0.000766407
0.000780564
0.000797073
0.00081506
0.000833505
0.00085215
0.000867785
0.000749167
0.000756823
0.000768119
0.000782671
0.000799851
0.000818858
0.000838733
0.000858527
0.000877696
0.000894246
0.000759306
0.000770154
0.000784662
0.000802143
0.000821778
0.000842689
0.000863999
0.000884807
0.000904687
0.000921771
0.000772979
0.000787211
0.000804828
0.000824974
0.000846746
0.000869265
0.000891741
0.000913449
0.000933753
0.000950647
0.000791089
0.000808863
0.000829603
0.000852367
0.000876227
0.000900328
0.000923907
0.000946228
0.000965839
0.00098067
0.000814428
0.00083579
0.000859601
0.000884929
0.000910913
0.00093677
0.000961696
0.000983478
0.000998903
0.00100815
0.000842701
0.000867234
0.000893572
0.00092091
0.000948616
0.000976232
0.00100237
0.00101953
0.00102712
0.00102883
0.000874356
0.000901064
0.000928746
0.000956754
0.00098462
0.0010113
0.00103014
0.00103856
0.00104088
0.00103535
0.00090747
0.000935177
0.000962929
0.000990139
0.00101554
0.00103337
0.00104005
0.00103994
0.00103431
0.00101313
0.000939788
0.000967301
0.000993898
0.00101828
0.00103525
0.00104032
0.00103652
0.00102553
0.00100446
0.000969148
0.000968819
0.000995209
0.00101916
0.00103499
0.00103833
0.00103163
0.0010173
0.000994183
0.000960159
0.000918431
0.000993031
0.00101679
0.00103084
0.00103176
0.00102366
0.00100775
0.000983173
0.000948414
0.000905659
0.000859984
0.00101125
0.00102345
0.00102217
0.00101308
0.000996015
0.000970141
0.000933843
0.000888909
0.00084087
0.000793652
0.00101383
0.0010115
0.00100139
0.000983411
0.000956476
0.000918009
0.000869768
0.000818365
0.000768225
0.000722039
0.000999564
0.000988873
0.000970148
0.000942637
0.000902713
0.00085071
0.000795022
0.000741032
0.000691627
0.000649208
0.000974903
0.000955784
0.0009281
0.000887957
0.000832993
0.000772788
0.000714388
0.000661121
0.000615489
0.000579783
0.000938495
0.000910918
0.000872364
0.000816993
0.00075273
0.000689887
0.000632531
0.000583284
0.000544512
0.00051806
0.000888454
0.000851941
0.000800034
0.000734283
0.000668085
0.000607083
0.000554288
0.000512204
0.000482743
0.000467018
0.000825183
0.000778524
0.000716447
0.000649001
0.000585474
0.000529757
0.000484476
0.000451721
0.000432641
0.000427743
0.000753802
0.000699511
0.000633779
0.000569238
0.000511322
0.000462994
0.000426616
0.000403607
0.000394375
0.000399251
0.000676644
0.000620021
0.000557788
0.000499457
0.000448847
0.000408648
0.000381038
0.000366803
0.00036598
0.000379033
0.000603962
0.000549551
0.000493888
0.000442577
0.000398881
0.000365889
0.000345732
0.000338677
0.000344757
0.000364457
0.000542618
0.000493109
0.000443474
0.000397773
0.000359317
0.000331925
0.0003177
0.000316484
0.000328441
0.000353532
0.000493188
0.00044954
0.000404551
0.000362202
0.000326959
0.000303686
0.000294303
0.000298274
0.000315658
0.00034521
0.000459456
0.000417933
0.000374303
0.000332679
0.000298865
0.000278788
0.000273833
0.000283051
0.00030583
0.000339229
0.000434945
0.000392712
0.000348186
0.00030579
0.000272644
0.000255688
0.00025545
0.000270472
0.000298714
0.000335481
0.000413382
0.000369651
0.000323632
0.000280105
0.000247469
0.000233911
0.000238995
0.000260431
0.000294028
0.000333714
0.000394153
0.000348827
0.000301361
0.000256412
0.000223728
0.000213543
0.000224501
0.000252723
0.000291367
0.000333594
0.000378305
0.000331634
0.000282619
0.000235512
0.00020159
0.000194445
0.000211812
0.00024699
0.000290318
0.00033489
0.000366662
0.000318593
0.000267503
0.000217243
0.000180605
0.000176167
0.000200611
0.000242795
0.000290426
0.000337086
0.000358613
0.000308681
0.000254916
0.000200696
0.000160016
0.000158219
0.000190608
0.000239796
0.000291441
0.000339957
0.000351974
0.000300051
0.000243381
0.000184835
0.000139197
0.000140298
0.000181569
0.000237721
0.000293344
0.000343888
0.000345782
0.000291609
0.000231947
0.000169029
0.000118
0.000122357
0.000173132
0.000236098
0.000295922
0.000349076
0.000339441
0.000283068
0.000220376
0.000153158
9.68799e-05
0.000104555
0.000164684
0.000234182
0.000298649
0.00035529
0.000333577
0.000274905
0.000208846
0.000137321
7.67502e-05
8.72073e-05
0.000155452
0.00023113
0.000300901
0.000362313
0.000329798
0.000267617
0.000197324
0.000121466
5.86867e-05
7.07837e-05
0.000144732
0.000226126
0.000301876
0.000369705
0.000327722
0.000260609
0.000185302
0.000105502
4.36949e-05
5.59541e-05
0.000132194
0.000218584
0.000300577
0.000376135
0.000325619
0.000252831
0.000172542
8.98045e-05
3.24669e-05
4.34881e-05
0.000118095
0.000208438
0.00029633
0.000380333
0.000323939
0.000244195
0.000158698
7.48825e-05
2.49366e-05
3.39827e-05
0.000103207
0.000195937
0.000288443
0.00038039
0.00032069
0.00023361
0.000143392
6.11208e-05
2.04082e-05
2.76262e-05
8.88595e-05
0.000182044
0.000276681
0.000374026
0.000314753
0.00022022
0.000126916
4.90426e-05
1.81063e-05
2.4014e-05
7.66239e-05
0.000169347
0.00026363
0.000360954
0.000303268
0.000203767
0.000109933
3.91468e-05
1.74979e-05
2.212e-05
6.68568e-05
0.000161102
0.000256974
0.000348578
0.000285184
0.000187714
9.5278e-05
3.21833e-05
1.77503e-05
2.07752e-05
5.77263e-05
0.000156999
0.00026525
0.000355188
0.000275045
0.000183817
8.45592e-05
2.721e-05
1.77663e-05
1.93416e-05
4.62852e-05
0.000148798
0.000288289
0.000399955
0.00033162
0.000197763
7.06672e-05
2.21811e-05
1.74982e-05
1.80421e-05
3.17209e-05
0.000120231
0.000304939
0.000504145
0.000499002
0.000171081
4.05156e-05
1.73353e-05
1.72902e-05
1.73823e-05
1.93231e-05
6.03796e-05
0.000236954
0.000625422
6.76208e-06
6.72718e-06
6.69149e-06
6.65452e-06
6.61566e-06
6.57415e-06
6.52922e-06
6.48003e-06
6.42582e-06
6.36594e-06
6.29997e-06
6.22776e-06
6.1496e-06
6.06625e-06
5.97907e-06
5.88988e-06
5.80089e-06
5.71423e-06
5.63148e-06
5.55304e-06
5.4778e-06
5.40342e-06
5.32719e-06
5.24714e-06
5.16202e-06
5.07079e-06
4.97264e-06
4.8668e-06
4.75661e-06
2.00401e-05
4.70816e-06
4.71413e-06
4.70904e-06
1.99843e-05
1.99549e-05
1.90438e-05
1.71461e-05
1.45863e-05
1.15687e-05
2.15824e-06
4.91411e-05
4.87381e-05
4.83392e-05
4.79343e-05
4.75121e-05
4.70611e-05
4.65716e-05
4.60366e-05
4.54531e-05
4.48231e-05
4.41537e-05
4.34567e-05
4.27492e-05
4.20524e-05
4.13887e-05
4.07783e-05
4.02345e-05
3.97599e-05
3.93438e-05
3.89598e-05
3.85664e-05
3.81175e-05
3.75893e-05
3.70063e-05
3.63927e-05
3.5744e-05
3.50524e-05
3.42936e-05
3.34303e-05
3.2718e-05
3.16152e-05
3.05716e-05
2.97866e-05
2.95945e-05
3.00716e-05
2.95114e-05
2.68469e-05
2.15848e-05
1.31162e-05
3.14907e-06
0.000100608
9.95497e-05
9.84816e-05
9.73908e-05
9.62626e-05
9.50829e-05
9.38387e-05
9.25208e-05
9.11245e-05
8.96517e-05
8.81112e-05
8.65193e-05
8.48992e-05
8.32799e-05
8.16922e-05
8.01646e-05
7.87175e-05
7.73583e-05
7.60787e-05
7.48539e-05
7.36468e-05
7.24178e-05
7.1138e-05
6.98018e-05
6.84073e-05
6.69436e-05
6.53752e-05
6.36587e-05
6.17477e-05
5.9621e-05
5.7221e-05
5.45613e-05
5.17505e-05
4.89208e-05
4.60408e-05
4.24392e-05
3.71666e-05
2.92632e-05
1.79405e-05
4.87533e-06
0.000146393
0.000144803
0.000143173
0.000141492
0.00013975
0.000137932
0.000136028
0.00013403
0.000131935
0.000129745
0.000127469
0.000125122
0.000122727
0.000120313
0.000117909
0.000115544
0.00011324
0.000111007
0.000108843
0.000106732
0.00010465
0.000102568
0.000100459
9.83012e-05
9.60772e-05
9.37591e-05
9.12994e-05
8.86406e-05
8.57212e-05
8.24832e-05
7.88714e-05
7.48548e-05
7.04448e-05
6.56707e-05
6.04761e-05
5.44899e-05
4.68565e-05
3.65095e-05
2.26034e-05
6.92036e-06
0.000185303
0.000183352
0.000181328
0.000179223
0.000177027
0.000174732
0.00017233
0.000169817
0.000167189
0.00016445
0.000161609
0.00015868
0.000155683
0.000152643
0.000149587
0.00014654
0.000143523
0.000140547
0.000137613
0.000134712
0.000131829
0.000128943
0.000126031
0.00012307
0.000120033
0.000116886
0.000113575
0.000110028
0.000106175
0.000101946
9.72714e-05
9.20792e-05
8.63093e-05
7.9911e-05
7.28255e-05
6.4881e-05
5.51995e-05
4.2737e-05
2.64936e-05
8.48382e-06
0.000218022
0.00021585
0.000213572
0.000211182
0.000208676
0.000206048
0.000203294
0.000200411
0.000197398
0.000194259
0.000191001
0.000187638
0.000184186
0.000180667
0.000177103
0.000173517
0.000169927
0.000166343
0.000162767
0.000159196
0.000155616
0.000152011
0.00014836
0.000144644
0.000140837
0.000136908
0.0001328
0.000128425
0.000123698
0.000118551
0.000112904
0.000106654
9.96965e-05
9.1936e-05
8.32456e-05
7.3318e-05
6.15307e-05
4.69977e-05
2.88736e-05
9.5376e-06
0.000245474
0.000243172
0.000240735
0.000238162
0.000235451
0.000232598
0.000229603
0.000226463
0.00022318
0.000219755
0.000216197
0.000212516
0.000208725
0.000204843
0.000200888
0.00019688
0.000192833
0.000188757
0.000184655
0.000180523
0.000176349
0.000172116
0.000167804
0.000163394
0.000158867
0.000154202
0.000149356
0.000144225
0.000138708
0.000132731
0.000126206
0.000119004
0.00011097
0.000101954
9.1759e-05
8.00354e-05
6.62835e-05
4.98511e-05
3.04051e-05
1.06908e-05
0.000268511
0.000266128
0.00026359
0.000260895
0.000258045
0.000255039
0.000251878
0.000248562
0.000245089
0.000241464
0.000237691
0.000233779
0.000229737
0.000225581
0.000221325
0.000216985
0.000212576
0.000208105
0.000203576
0.000198983
0.000194312
0.000189543
0.000184654
0.000179622
0.000174432
0.000169072
0.000163513
0.000157725
0.000151569
0.000144883
0.000137591
0.000129551
0.000120559
0.000110424
9.89186e-05
8.57068e-05
7.03707e-05
5.24672e-05
3.168e-05
1.19652e-05
0.000287842
0.000285397
0.000282781
0.000279995
0.000277042
0.000273927
0.000270647
0.000267204
0.000263597
0.000259828
0.0002559
0.000251819
0.000247591
0.000243227
0.000238739
0.000234138
0.000229438
0.000224649
0.000219773
0.000214806
0.000209729
0.000204519
0.000199147
0.000193587
0.00018782
0.000181839
0.000175641
0.000169287
0.000162589
0.000155284
0.000147308
0.000138532
0.000128753
0.000117776
0.000105385
9.12058e-05
7.47406e-05
5.55158e-05
3.40659e-05
1.3724e-05
0.000304018
0.000301508
0.000298822
0.000295958
0.000292923
0.000289718
0.000286344
0.0002828
0.000279087
0.000275207
0.000271161
0.000266951
0.000262582
0.000258057
0.000253385
0.000248574
0.000243637
0.000238585
0.000233426
0.000228153
0.00022275
0.000217188
0.000211432
0.00020545
0.000199221
0.000192742
0.000186041
0.000179152
0.000171894
0.000164003
0.000155387
0.000145969
0.000135627
0.000124108
0.000111076
9.62356e-05
7.9193e-05
5.9628e-05
3.76343e-05
1.58116e-05
0.000317486
0.000314905
0.000312151
0.000309211
0.000306094
0.000302799
0.000299329
0.000295685
0.000291869
0.000287885
0.000283732
0.000279412
0.000274925
0.000270271
0.000265447
0.000260458
0.000255316
0.000250039
0.000244639
0.000239114
0.000233448
0.000227608
0.000221554
0.000215247
0.000208659
0.00020179
0.000194669
0.000187281
0.000179483
0.000171057
0.000161918
0.000152027
0.000141235
0.000129289
0.000115856
0.000100604
8.31789e-05
6.31926e-05
4.06587e-05
1.78175e-05
0.000328651
0.000325984
0.000323139
0.000320109
0.00031689
0.000313483
0.000309892
0.000306122
0.00030218
0.000298071
0.000293798
0.000289361
0.00028476
0.000279989
0.000275032
0.000269877
0.000264542
0.000259059
0.000253451
0.000247721
0.00024185
0.000235802
0.000229532
0.000222988
0.000216136
0.000208963
0.000201477
0.000193665
0.000185449
0.000176651
0.000167197
0.000157004
0.000145889
0.000133605
0.000119847
0.00010423
8.63469e-05
6.58409e-05
4.26756e-05
1.92009e-05
0.000337879
0.000335101
0.000332136
0.000328972
0.000325604
0.000322033
0.000318266
0.000314314
0.000310191
0.000305908
0.000301472
0.000296881
0.000292137
0.000287234
0.000282138
0.000276811
0.00027128
0.000265602
0.000259813
0.000253922
0.000247907
0.000241726
0.00023532
0.000228631
0.000221613
0.000214243
0.000206515
0.000198426
0.000189953
0.00018098
0.000171383
0.000161054
0.000149808
0.000137353
0.000123313
0.000107216
8.85038e-05
6.65961e-05
4.14615e-05
1.96973e-05
0.000345489
0.000342551
0.000339408
0.000336044
0.000332453
0.000328633
0.0003246
0.000320376
0.000315983
0.000311444
0.000306768
0.000301952
0.000296992
0.000291893
0.000286634
0.00028113
0.000275388
0.000269512
0.00026356
0.000257547
0.00025145
0.000245215
0.000238773
0.000232048
0.000224979
0.000217534
0.00020972
0.000201559
0.000193038
0.000184067
0.000174528
0.000164283
0.000153107
0.000140661
0.000126484
0.000109965
9.0345e-05
6.67957e-05
3.8221e-05
4.62999e-06
0.000351663
0.000348492
0.000345094
0.000341446
0.000337535
0.000333363
0.000328952
0.00032434
0.000319564
0.000314659
0.000309647
0.000304531
0.000299309
0.000293993
0.000288514
0.000282727
0.00027671
0.000270599
0.000264475
0.000258357
0.000252224
0.000246016
0.000239651
0.000233038
0.000226089
0.000218742
0.000211033
0.00020301
0.000194663
0.000185909
0.000176617
0.000166623
0.000155716
0.000143504
0.000129447
0.000112808
9.26083e-05
6.76494e-05
3.66648e-05
4.65532e-06
0.000356447
0.000352959
0.00034922
0.000345201
0.000340883
0.00033627
0.00033139
0.000326291
0.000321031
0.000315668
0.000310248
0.000304783
0.00029924
0.000293576
0.000287707
0.00028155
0.000275205
0.00026881
0.000262461
0.000256202
0.000250026
0.000243886
0.000237693
0.000231339
0.000224717
0.000217734
0.000210349
0.000202625
0.000194577
0.000186143
0.000177203
0.000167585
0.000157112
0.000145364
0.000131737
0.000115389
9.51511e-05
6.94546e-05
3.66631e-05
4.69222e-06
0.00035986
0.000355978
0.00035183
0.000347379
0.000342596
0.000337481
0.000332072
0.00032643
0.000320636
0.000314764
0.000308858
0.000302926
0.000296913
0.000290798
0.000284459
0.000277877
0.000271135
0.000264369
0.000257703
0.000251223
0.000244956
0.000238869
0.000232868
0.000226843
0.000220672
0.000214156
0.000207225
0.000199857
0.000192073
0.000183881
0.000175226
0.000166025
0.000156098
0.000145022
0.000132161
0.000116593
9.70052e-05
7.15126e-05
3.78966e-05
4.71788e-06
0.000361932
0.000357592
0.000352992
0.000348086
0.000342826
0.000337185
0.000331206
0.000324974
0.000318581
0.000312104
0.000305622
0.000299162
0.00029266
0.000286057
0.000279284
0.000272319
0.000265183
0.000258007
0.000250969
0.000244213
0.000237821
0.000231767
0.000225913
0.000220138
0.000214326
0.000208286
0.000201694
0.000194394
0.0001865
0.000178206
0.000169601
0.000160655
0.00015119
0.000140849
0.000129001
0.000114678
9.64639e-05
7.21939e-05
3.88338e-05
4.75723e-06
0.000362793
0.000357966
0.000352897
0.000347543
0.000341824
0.000335656
0.000329075
0.000322208
0.000315165
0.000308076
0.000301013
0.000294003
0.000287066
0.000280173
0.000273233
0.000266042
0.000258598
0.000251133
0.00024387
0.00023697
0.000230492
0.000224391
0.000218488
0.000212708
0.000206912
0.000200824
0.000194134
0.000186588
0.000178362
0.00016972
0.000160777
0.000151558
0.00014199
0.00013194
0.000120839
0.000107783
9.13643e-05
6.92144e-05
3.75652e-05
4.81633e-06
0.000362716
0.000357384
0.000351809
0.000345984
0.000339852
0.000333237
0.000326136
0.000318753
0.000311262
0.0003038
0.000296445
0.000289226
0.000282208
0.000275249
0.000268169
0.000260798
0.000253235
0.000245731
0.000238528
0.000231779
0.000225354
0.000219047
0.000212739
0.000206449
0.000200117
0.000193465
0.000186253
0.000178303
0.00016966
0.000160465
0.000150823
0.000140798
0.000130402
0.000119642
0.000108353
9.58493e-05
8.09843e-05
6.13545e-05
3.34805e-05
4.76596e-06
0.00036219
0.000356384
0.000350353
0.000344172
0.000337785
0.000330978
0.000323751
0.00031632
0.000308911
0.000301665
0.000294576
0.000287634
0.000280847
0.000274075
0.00026708
0.000259768
0.000252328
0.000244961
0.000237818
0.000230936
0.000224272
0.000217631
0.000210791
0.000203591
0.000196118
0.000188405
0.000180303
0.000171612
0.000162173
0.000152043
0.000141312
0.00013006
0.000118376
0.000106267
9.38243e-05
8.10638e-05
6.737e-05
5.08214e-05
2.94429e-05
4.69937e-06
0.000362217
0.000356176
0.000350051
0.00034388
0.000337607
0.000331119
0.000324428
0.000317646
0.000310986
0.000304502
0.00029813
0.000291858
0.000285687
0.000279425
0.000272934
0.00026622
0.000259311
0.000252307
0.000245242
0.000238092
0.000230782
0.000223188
0.000215112
0.000206332
0.000197075
0.000187561
0.000177832
0.000167627
0.000156653
0.000144855
0.000132325
0.000119176
0.000105531
9.16006e-05
7.77953e-05
6.47037e-05
5.25424e-05
4.02517e-05
2.7145e-05
2.00222e-05
0.000364529
0.000358693
0.000352924
0.000347247
0.000341666
0.000336114
0.000330559
0.000325014
0.000319559
0.000314204
0.000308885
0.000303572
0.000298258
0.000292837
0.000287185
0.000281263
0.00027509
0.000268687
0.000261919
0.000254713
0.000246888
0.000238243
0.000228573
0.000217778
0.000206085
0.000193921
0.000181491
0.000168602
0.000154836
0.00014006
0.000124428
0.000108138
9.14982e-05
7.50512e-05
5.9697e-05
4.64425e-05
3.58073e-05
2.70966e-05
1.87208e-05
1.98645e-05
0.000370852
0.000365633
0.000360642
0.000355932
0.000351534
0.00034738
0.000343332
0.000339272
0.0003352
0.000331107
0.000326939
0.000322705
0.000318403
0.000313877
0.000308991
0.000303694
0.00029806
0.000292093
0.00028581
0.000279031
0.000271368
0.000262514
0.000252089
0.000239893
0.000225921
0.000210755
0.000194897
0.000178405
0.000160737
0.000141625
0.000121267
0.000100107
7.89449e-05
5.91097e-05
4.22653e-05
2.98662e-05
2.15533e-05
1.60004e-05
1.19385e-05
6.77411e-06
0.00038224
0.000377925
0.000373966
0.000370477
0.000367501
0.000364892
0.000362402
0.000359825
0.00035709
0.000354194
0.000351128
0.000347892
0.000344388
0.00034051
0.000336186
0.000331452
0.000326396
0.000321092
0.000315545
0.000309479
0.000302354
0.000293754
0.000283388
0.000270896
0.000255954
0.000238607
0.000219869
0.000200026
0.000179073
0.000156848
0.000133582
0.000110028
8.7418e-05
6.58421e-05
4.6944e-05
3.33403e-05
2.51435e-05
2.04634e-05
1.61291e-05
9.33582e-06
0.000398931
0.000395625
0.000392741
0.000390454
0.000388837
0.000387679
0.000386584
0.000385257
0.00038367
0.000381852
0.000379787
0.000377432
0.000374671
0.000371435
0.000367701
0.000363532
0.000359073
0.000354513
0.000349915
0.000344835
0.000338449
0.000330267
0.000320282
0.000308532
0.000295074
0.000279817
0.000262213
0.000242794
0.00022217
0.000201246
0.000180698
0.000160492
0.000140648
0.000120519
0.000100301
8.193e-05
6.56874e-05
4.64357e-05
2.73383e-05
1.09527e-05
0.000420555
0.000418194
0.000416225
0.000414855
0.000414291
0.000414359
0.000414378
0.000414129
0.000413639
0.000412901
0.000411854
0.000410408
0.00040849
0.000406041
0.000403047
0.000399578
0.000395827
0.000392053
0.000388393
0.000384302
0.000378328
0.000370304
0.000360801
0.000350472
0.000340076
0.000329595
0.00031734
0.000301875
0.000283682
0.000263939
0.000244843
0.000226862
0.000209005
0.000189784
0.000168402
0.000144774
0.000118796
8.91802e-05
5.90198e-05
1.24456e-05
0.000446775
0.000445228
0.000444036
0.000443452
0.000443803
0.000444743
0.000445644
0.000446382
0.000446965
0.000447319
0.000447329
0.000446852
0.00044584
0.000444259
0.000442082
0.000439405
0.000436509
0.000433796
0.000431317
0.000427696
0.000421471
0.000413189
0.000403468
0.000393021
0.000382707
0.000372724
0.000362049
0.000349715
0.000335641
0.000318475
0.000298858
0.000279369
0.00025863
0.000235209
0.000208769
0.000179463
0.000147295
0.000111568
7.26732e-05
1.35232e-05
0.000477755
0.000477031
0.000476757
0.000477112
0.000478066
0.000479429
0.000480965
0.000482544
0.000484083
0.000485473
0.000486569
0.000487206
0.000487225
0.0004866
0.000485353
0.000483677
0.000482124
0.000480693
0.000478587
0.000474697
0.000468409
0.00045976
0.000449049
0.000436701
0.000423213
0.000409113
0.000394891
0.000380798
0.00036644
0.000351375
0.00033421
0.000312674
0.000286031
0.000254996
0.000219558
0.000180826
0.000143518
0.000111099
7.14781e-05
1.44352e-05
0.000513882
0.000514149
0.000514673
0.000515566
0.000516848
0.000518527
0.000520501
0.000522678
0.000524961
0.000527223
0.000529299
0.000531005
0.000532189
0.000532792
0.000532879
0.000532811
0.000532678
0.000532051
0.000530143
0.000526251
0.00051989
0.000510866
0.000499208
0.000485096
0.000468839
0.000450873
0.000431722
0.000411832
0.00039134
0.000370472
0.000349704
0.00032681
0.000298319
0.000264747
0.000228059
0.0001905
0.000155804
0.000123749
7.67559e-05
1.43738e-05
0.00055482
0.00055591
0.000557028
0.000558342
0.000559947
0.000561878
0.000564136
0.000566688
0.000569466
0.000572353
0.000575188
0.000577769
0.0005799
0.000581726
0.000583647
0.000585403
0.000586599
0.000586777
0.000585334
0.000581737
0.00057557
0.000566589
0.000554689
0.000539895
0.000522345
0.000502274
0.000479975
0.00045574
0.000429875
0.000402753
0.000374753
0.000345873
0.000315473
0.000283403
0.00024978
0.000214087
0.000174303
0.000127181
7.45326e-05
1.1256e-05
0.000599117
0.00060114
0.00060303
0.000604939
0.000606989
0.000609263
0.000611813
0.000614661
0.000617782
0.000621102
0.00062447
0.000627696
0.000630913
0.000634288
0.000637691
0.000640729
0.000642889
0.000643725
0.000642765
0.000639579
0.000633813
0.000625221
0.000613648
0.00059903
0.000581377
0.000560771
0.000537345
0.000511266
0.000482743
0.000452028
0.000419424
0.000385217
0.000349662
0.000312799
0.000273451
0.00023015
0.000181218
0.000125047
6.28828e-05
9.88421e-06
0.000645932
0.000648998
0.000651839
0.000654594
0.000657375
0.000660257
0.000663296
0.000666529
0.000669958
0.000673539
0.000677206
0.000681079
0.000685312
0.000689736
0.00069397
0.000697631
0.000700255
0.000701434
0.000700774
0.000697907
0.000692526
0.000684388
0.000673315
0.000659178
0.000641893
0.000621424
0.000597777
0.000570997
0.000541171
0.000508422
0.000472892
0.000434727
0.000394145
0.000351117
0.000305131
0.000255138
0.000199474
0.000136589