/*--------------------------------*- C++ -*----------------------------------*\
  =========                 |
  \\      /  F ield         | OpenFOAM: The Open Source CFD Toolbox
   \\    /   O peration     | Website:  https://openfoam.org
    \\  /    A nd           | Version:  8
     \\/     M anipulation  |
\*---------------------------------------------------------------------------*/
FoamFile
{
    version     2.0;
    format      ascii;
    class       surfaceScalarField;
    location    "4.15";
    object      phi;
}
// * * * * * * * * * * * * * * * * * * * * * * * * * * * * * * * * * * * * * //

dimensions      [0 3 -1 0 0 0 0];

internalField   nonuniform List<scalar> 
18095
(
1.58401e-07
-9.65188e-07
8.06787e-07
1.65371e-07
-1.24842e-06
1.24146e-06
1.22185e-07
-1.24237e-06
1.28555e-06
6.53175e-08
-1.26349e-06
1.32036e-06
1.89975e-11
-1.28049e-06
1.34579e-06
-6.52831e-08
-1.2805e-06
1.3458e-06
-1.2216e-07
-1.2635e-06
1.32038e-06
-1.65356e-07
-1.24238e-06
1.28558e-06
-1.58397e-07
-1.24844e-06
1.24148e-06
-9.65208e-07
8.06811e-07
1.11081e-07
-1.07627e-06
9.946e-08
-1.2368e-06
7.28645e-08
-1.21577e-06
4.00414e-08
-1.23067e-06
1.41201e-11
-1.24047e-06
-4.00152e-08
-1.24047e-06
-7.28437e-08
-1.23067e-06
-9.94457e-08
-1.21578e-06
-1.11075e-07
-1.23681e-06
-1.07628e-06
6.72807e-08
-1.14355e-06
5.28112e-08
-1.22233e-06
4.215e-08
-1.20511e-06
2.38718e-08
-1.21239e-06
1.02714e-11
-1.21661e-06
-2.38526e-08
-1.21661e-06
-4.21343e-08
-1.21239e-06
-5.27998e-08
-1.20512e-06
-6.72745e-08
-1.22234e-06
-1.14356e-06
3.97457e-08
-1.1833e-06
2.66531e-08
-1.20924e-06
2.2014e-08
-1.20047e-06
1.25333e-08
-1.20291e-06
6.65348e-12
-1.20408e-06
-1.25208e-08
-1.20408e-06
-2.20037e-08
-1.20291e-06
-2.66456e-08
-1.20047e-06
-3.97408e-08
-1.20924e-06
-1.1833e-06
1.67039e-08
7.46321e-09
6.99027e-09
4.08194e-09
2.64701e-12
-4.07694e-09
-6.98617e-09
-7.46034e-09
-1.67014e-08
-1.74757e-07
-1.16385e-06
1.33861e-06
-2.18763e-07
-1.21637e-06
1.26038e-06
-1.64935e-07
-1.21286e-06
1.15904e-06
-8.69645e-08
-1.20407e-06
1.12609e-06
1.84684e-10
-1.20256e-06
1.11541e-06
8.73268e-08
-1.20259e-06
1.11545e-06
1.65267e-07
-1.20415e-06
1.12621e-06
2.19059e-07
-1.21299e-06
1.1592e-06
1.75002e-07
-1.21653e-06
1.26059e-06
-1.16403e-06
1.33903e-06
-9.29996e-08
-1.07085e-06
-9.5556e-08
-1.21382e-06
-7.91367e-08
-1.22928e-06
-4.41079e-08
-1.23909e-06
1.04965e-10
-1.24677e-06
4.43095e-08
-1.24679e-06
7.93151e-08
-1.23915e-06
9.56965e-08
-1.22937e-06
9.30784e-08
-1.21392e-06
-1.07095e-06
-5.79982e-08
-1.01286e-06
-5.51652e-08
-1.21665e-06
-4.64847e-08
-1.23796e-06
-2.70829e-08
-1.2585e-06
6.34363e-11
-1.27392e-06
2.72039e-08
-1.27393e-06
4.65883e-08
-1.25854e-06
5.52404e-08
-1.23802e-06
5.80356e-08
-1.21671e-06
-1.01291e-06
-7.48823e-08
-9.37973e-07
-6.20131e-08
-1.22952e-06
-4.85925e-08
-1.25138e-06
-2.77591e-08
-1.27933e-06
3.99555e-11
-1.30172e-06
2.78348e-08
-1.30173e-06
4.86554e-08
-1.27936e-06
6.20561e-08
-1.25142e-06
7.49034e-08
-1.22956e-06
-9.3801e-07
-1.31186e-07
-1.19248e-07
-8.50784e-08
-4.40494e-08
2.66148e-11
4.40995e-08
8.51196e-08
1.19276e-07
1.31199e-07
-3.86765e-08
-9.28947e-07
9.67624e-07
8.41356e-09
-1.34096e-06
1.29387e-06
1.27218e-08
-1.27526e-06
1.27095e-06
6.59404e-09
-1.22713e-06
1.23326e-06
1.31888e-09
-1.2244e-06
1.22968e-06
-3.78683e-09
-1.22455e-06
1.22966e-06
-1.02018e-08
-1.22692e-06
1.23334e-06
-3.79022e-09
-1.2744e-06
1.26799e-06
4.85744e-08
-1.3413e-06
1.28893e-06
-9.36117e-07
9.84692e-07
1.46287e-08
-9.43576e-07
2.12304e-08
-1.34756e-06
1.42186e-08
-1.26825e-06
7.90643e-09
-1.22082e-06
1.25176e-09
-1.21775e-06
-5.35116e-09
-1.21795e-06
-1.15929e-08
-1.22068e-06
-1.73453e-08
-1.26865e-06
-1.05591e-08
-1.34808e-06
-9.46676e-07
2.93725e-08
-9.72948e-07
2.06617e-08
-1.33885e-06
1.20187e-08
-1.2596e-06
7.16533e-09
-1.21597e-06
7.65427e-10
-1.21135e-06
-5.78579e-09
-1.2114e-06
-1.04169e-08
-1.21605e-06
-1.91817e-08
-1.25989e-06
-2.79301e-08
-1.33933e-06
-9.74607e-07
7.99139e-08
-1.05286e-06
5.33945e-08
-1.31233e-06
3.43099e-08
-1.24052e-06
2.13929e-08
-1.20305e-06
4.95214e-10
-1.19045e-06
-2.04066e-08
-1.19049e-06
-3.32287e-08
-1.20323e-06
-5.23488e-08
-1.24077e-06
-7.90906e-08
-1.31259e-06
-1.0537e-06
2.85747e-07
2.33791e-07
1.5231e-07
7.53514e-08
3.08855e-10
-7.47398e-08
-1.51761e-07
-2.33331e-07
-2.85331e-07
1.52884e-07
1.23536e-09
-1.54119e-07
1.51432e-07
1.45223e-09
1.4978e-07
1.65186e-09
1.47947e-07
1.8331e-09
1.4595e-07
1.99721e-09
1.43809e-07
2.14099e-09
1.41541e-07
2.26752e-09
1.39166e-07
2.37484e-09
1.367e-07
2.46626e-09
2.54144e-09
1.34158e-07
1.54264e-07
1.92615e-09
-1.54955e-07
1.53418e-07
2.29789e-09
1.52416e-07
2.65445e-09
1.51255e-07
2.99359e-09
1.49941e-07
3.31108e-09
1.48475e-07
3.60695e-09
1.46864e-07
3.87857e-09
1.45112e-07
4.12567e-09
1.43233e-07
4.34545e-09
4.53879e-09
1.41235e-07
1.47906e-07
2.79889e-09
-1.48779e-07
1.46904e-07
3.29978e-09
1.45776e-07
3.78257e-09
1.44525e-07
4.24471e-09
1.43153e-07
4.68338e-09
1.41664e-07
5.09589e-09
1.40064e-07
5.47874e-09
1.3836e-07
5.83005e-09
1.36558e-07
6.14782e-09
6.43151e-09
1.34665e-07
1.41042e-07
3.8129e-09
-1.42056e-07
1.39911e-07
4.43089e-09
1.38667e-07
5.02656e-09
1.37315e-07
5.59743e-09
1.35858e-07
6.1401e-09
1.34303e-07
6.65086e-09
1.32656e-07
7.12594e-09
1.30924e-07
7.56214e-09
1.29115e-07
7.95632e-09
8.3085e-09
1.27238e-07
1.33701e-07
4.94321e-09
-1.34831e-07
1.32464e-07
5.66786e-09
1.31124e-07
6.36662e-09
1.29685e-07
7.03653e-09
1.28152e-07
7.67329e-09
1.26531e-07
8.27169e-09
1.24831e-07
8.8265e-09
1.2306e-07
9.33313e-09
1.21228e-07
9.78833e-09
1.01917e-08
1.19345e-07
1.25798e-07
6.18116e-09
-1.27036e-07
1.24464e-07
7.0016e-09
1.23036e-07
7.79465e-09
1.21516e-07
8.55652e-09
1.19909e-07
9.28095e-09
1.1822e-07
9.95986e-09
1.16463e-07
1.05846e-08
1.14647e-07
1.11491e-08
1.12784e-07
1.16508e-08
1.20889e-08
1.10887e-07
1.17245e-07
7.52096e-09
-1.18585e-07
1.15821e-07
8.42567e-09
1.1431e-07
9.30533e-09
1.12711e-07
1.01557e-08
1.11026e-07
1.09662e-08
1.09263e-07
1.17226e-08
1.07438e-07
1.24097e-08
1.0557e-07
1.30175e-08
1.03672e-07
1.35482e-08
1.40023e-08
1.01759e-07
1.07943e-07
8.95827e-09
-1.09381e-07
1.06435e-07
9.93337e-09
1.04848e-07
1.08926e-08
1.03172e-07
1.18321e-08
1.01399e-07
1.27387e-08
9.95407e-08
1.35809e-08
9.76276e-08
1.43228e-08
9.56986e-08
1.49465e-08
9.37702e-08
1.54765e-08
1.59233e-08
9.18491e-08
9.77775e-08
1.04928e-08
-9.93122e-08
9.61943e-08
1.15165e-08
9.45406e-08
1.25463e-08
9.27878e-08
1.35848e-08
9.09046e-08
1.46217e-08
8.88962e-08
1.55893e-08
8.68408e-08
1.63781e-08
8.4832e-08
1.69551e-08
8.2886e-08
1.74225e-08
1.77983e-08
8.1011e-08
8.66042e-08
1.21412e-08
-8.82526e-08
8.4939e-08
1.31814e-08
8.32255e-08
1.42598e-08
8.1407e-08
1.54032e-08
7.93762e-08
1.66525e-08
7.70725e-08
1.78929e-08
7.47222e-08
1.87283e-08
7.26071e-08
1.90701e-08
7.07478e-08
1.92816e-08
1.96834e-08
6.88627e-08
7.42659e-08
1.39693e-08
-7.6094e-08
7.24313e-08
1.50157e-08
7.05717e-08
1.61192e-08
6.87206e-08
1.72542e-08
6.66728e-08
1.87002e-08
6.40854e-08
2.04801e-08
6.0856e-08
2.19576e-08
5.89026e-08
2.10234e-08
5.73814e-08
2.08029e-08
2.0546e-08
5.65188e-08
6.08765e-08
1.58974e-08
-6.28047e-08
5.85414e-08
1.73505e-08
5.59351e-08
1.87254e-08
5.37169e-08
1.94724e-08
5.13818e-08
2.10353e-08
4.94203e-08
2.24415e-08
4.83993e-08
2.29786e-08
4.7245e-08
2.21777e-08
4.67738e-08
2.12741e-08
2.10182e-08
4.63017e-08
4.76325e-08
1.82324e-08
-4.99676e-08
4.53211e-08
1.9662e-08
4.33817e-08
2.06648e-08
4.12345e-08
2.16197e-08
3.95843e-08
2.26855e-08
3.89839e-08
2.3042e-08
3.86991e-08
2.32635e-08
3.83009e-08
2.25761e-08
3.75813e-08
2.19938e-08
2.16895e-08
3.69101e-08
3.61307e-08
2.07902e-08
-3.86884e-08
3.42028e-08
2.15901e-08
3.29535e-08
2.19142e-08
3.21878e-08
2.23855e-08
3.13667e-08
2.35066e-08
3.0364e-08
2.40447e-08
2.96798e-08
2.39477e-08
2.86504e-08
2.36056e-08
2.73413e-08
2.33029e-08
2.3102e-08
2.59287e-08
2.68279e-08
2.2829e-08
-2.88666e-08
2.48801e-08
2.35382e-08
2.30293e-08
2.37651e-08
2.11809e-08
2.42339e-08
1.99488e-08
2.47387e-08
1.887e-08
2.51237e-08
1.75778e-08
2.52399e-08
1.60078e-08
2.51756e-08
1.42348e-08
2.50759e-08
2.50263e-08
1.23105e-08
1.44471e-08
2.45947e-08
-1.62127e-08
1.25907e-08
2.53947e-08
1.04135e-08
2.59422e-08
8.27069e-09
2.63767e-08
6.25069e-09
2.67587e-08
4.34479e-09
2.70295e-08
2.41599e-09
2.71687e-08
3.67695e-10
2.72238e-08
-1.82868e-09
2.72722e-08
2.73243e-08
-4.12677e-09
-9.1033e-10
2.70116e-08
-1.50656e-09
-3.36531e-09
2.78496e-08
-5.88969e-09
2.84666e-08
-8.439e-09
2.8926e-08
-1.09447e-08
2.92643e-08
-1.33834e-08
2.94682e-08
-1.57819e-08
2.95671e-08
-1.82067e-08
2.96485e-08
-2.06921e-08
2.97576e-08
2.99171e-08
-2.32849e-08
-1.937e-08
3.00993e-08
1.62822e-08
-2.24472e-08
3.09268e-08
-2.54837e-08
3.15031e-08
-2.84643e-08
3.19066e-08
-3.1397e-08
3.21969e-08
-3.42577e-08
3.23288e-08
-3.69625e-08
3.22718e-08
-3.95969e-08
3.22828e-08
-4.23091e-08
3.24697e-08
3.27723e-08
-4.51644e-08
-4.09844e-08
3.40031e-08
3.70806e-08
-4.47709e-08
3.47135e-08
-4.8315e-08
3.50472e-08
-5.15989e-08
3.51905e-08
-5.48612e-08
3.54593e-08
-5.79577e-08
3.54252e-08
-6.07834e-08
3.50974e-08
-6.36533e-08
3.51525e-08
-6.66578e-08
3.54741e-08
3.60058e-08
-6.98913e-08
-6.58812e-08
3.88734e-08
6.10109e-08
-7.02817e-08
3.91141e-08
-7.46016e-08
3.93671e-08
-7.79854e-08
3.85744e-08
-8.0686e-08
3.81598e-08
-8.36264e-08
3.83655e-08
-8.67852e-08
3.82561e-08
-9.0187e-08
3.85544e-08
-9.39345e-08
3.92216e-08
4.01288e-08
-9.80574e-08
-9.43275e-08
4.56675e-08
8.75335e-08
-9.87945e-08
4.35813e-08
-1.01438e-07
4.20107e-08
-1.04738e-07
4.18743e-08
-1.0801e-07
4.14319e-08
-1.11186e-07
4.15417e-08
-1.14858e-07
4.19285e-08
-1.19084e-07
4.278e-08
-1.23848e-07
4.3986e-08
4.56985e-08
-1.29418e-07
-1.21635e-07
5.07094e-08
1.16593e-07
-1.25506e-07
4.74516e-08
-1.29115e-07
4.56204e-08
-1.32153e-07
4.49122e-08
-1.35538e-07
4.48175e-08
-1.39326e-07
4.53297e-08
-1.43842e-07
4.64444e-08
-1.49045e-07
4.79835e-08
-1.55155e-07
5.00958e-08
5.14497e-08
-1.60906e-07
-1.48461e-07
5.27909e-08
1.4638e-07
-1.51503e-07
5.0494e-08
-1.54935e-07
4.90518e-08
-1.58631e-07
4.8608e-08
-1.62714e-07
4.89007e-08
-1.67209e-07
4.98249e-08
-1.72445e-07
5.16808e-08
-1.78387e-07
5.39264e-08
-1.83076e-07
5.47847e-08
5.51621e-08
-1.86789e-07
-1.74091e-07
5.49064e-08
1.71975e-07
-1.77168e-07
5.35707e-08
-1.81032e-07
5.29156e-08
-1.85459e-07
5.30353e-08
-1.90428e-07
5.38699e-08
-1.95539e-07
5.4936e-08
-2.00702e-07
5.68441e-08
-2.04259e-07
5.74833e-08
-2.05452e-07
5.59783e-08
5.64931e-08
-2.06783e-07
-2.00963e-07
5.78164e-08
1.98053e-07
-2.04512e-07
5.71191e-08
-2.08697e-07
5.7101e-08
-2.13562e-07
5.79001e-08
-2.18522e-07
5.88297e-08
-2.22277e-07
5.86908e-08
-2.23752e-07
5.832e-08
-2.24615e-07
5.83462e-08
-2.26447e-07
5.78101e-08
5.73563e-08
-2.2731e-07
-2.30189e-07
6.18748e-08
2.26131e-07
-2.34487e-07
6.14168e-08
-2.38915e-07
6.1528e-08
-2.43343e-07
6.23286e-08
-2.46081e-07
6.1568e-08
-2.48235e-07
6.08451e-08
-2.49145e-07
5.92299e-08
-2.49471e-07
5.86713e-08
-2.50301e-07
5.86408e-08
5.90369e-08
-2.51982e-07
-2.60372e-07
6.66415e-08
2.55605e-07
-2.64777e-07
6.58222e-08
-2.68597e-07
6.53482e-08
-2.70652e-07
6.43829e-08
-2.7245e-07
6.33662e-08
-2.73481e-07
6.18764e-08
-2.74616e-07
6.03644e-08
-2.7608e-07
6.01355e-08
-2.78148e-07
6.07093e-08
6.20681e-08
-2.81179e-07
-2.91619e-07
7.20918e-08
2.86168e-07
-2.96553e-07
7.07568e-08
-2.99776e-07
6.85711e-08
-3.01786e-07
6.63926e-08
-3.01887e-07
6.34677e-08
-3.01506e-07
6.14956e-08
-3.01801e-07
6.06589e-08
-3.0324e-07
6.15752e-08
-3.06413e-07
6.38825e-08
6.61618e-08
-3.10507e-07
-3.2107e-07
7.76744e-08
3.15487e-07
-3.24368e-07
7.40543e-08
-3.25269e-07
6.94724e-08
-3.25317e-07
6.64405e-08
-3.24939e-07
6.30905e-08
-3.24214e-07
6.07704e-08
-3.2358e-07
6.00244e-08
-3.23539e-07
6.15345e-08
-3.2542e-07
6.5764e-08
7.07565e-08
-3.30015e-07
-3.47071e-07
8.06495e-08
3.44096e-07
-3.48646e-07
7.56289e-08
-3.49873e-07
7.06998e-08
-3.49706e-07
6.62735e-08
-3.49408e-07
6.27923e-08
-3.48993e-07
6.03552e-08
-3.48378e-07
5.94099e-08
-3.4721e-07
6.03665e-08
-3.45016e-07
6.35702e-08
6.60922e-08
-3.40352e-07
-3.66854e-07
8.21497e-08
3.65353e-07
-3.67476e-07
7.62508e-08
-3.67493e-07
7.0717e-08
-3.67025e-07
6.58053e-08
-3.6599e-07
6.17576e-08
-3.6443e-07
5.87955e-08
-3.62111e-07
5.70904e-08
-3.58402e-07
5.66582e-08
-3.51665e-07
5.68324e-08
5.75289e-08
-3.43101e-07
-3.81155e-07
8.25964e-08
3.80708e-07
-3.80825e-07
7.59216e-08
-3.79663e-07
6.95549e-08
-3.77671e-07
6.38135e-08
-3.74813e-07
5.88991e-08
-3.71014e-07
5.49958e-08
-3.66132e-07
5.2209e-08
-3.59988e-07
5.05138e-08
-3.53056e-07
4.99007e-08
5.02873e-08
-3.45815e-07
-3.92023e-07
8.24046e-08
3.92215e-07
-3.90748e-07
7.46466e-08
-3.88458e-07
6.7264e-08
-3.85123e-07
6.04785e-08
-3.80775e-07
5.45512e-08
-3.75417e-07
4.96379e-08
-3.69097e-07
4.58887e-08
-3.62002e-07
4.34188e-08
-3.54396e-07
4.22947e-08
4.25001e-08
-3.46609e-07
-4.00275e-07
8.1326e-08
4.01354e-07
-3.98133e-07
7.2504e-08
-3.94939e-07
6.40706e-08
-3.90679e-07
5.62175e-08
-3.85336e-07
4.92087e-08
-3.78927e-07
4.32285e-08
-3.71523e-07
3.84845e-08
-3.6329e-07
3.51862e-08
-3.54538e-07
3.35424e-08
3.37269e-08
-3.45765e-07
-4.05694e-07
7.98235e-08
4.07196e-07
-4.03202e-07
7.00118e-08
-3.997e-07
6.05682e-08
-3.95183e-07
5.17007e-08
-3.89572e-07
4.35976e-08
-3.82832e-07
3.64886e-08
-3.74955e-07
3.06073e-08
-3.66008e-07
2.62382e-08
-3.56224e-07
2.3759e-08
2.36924e-08
-3.4619e-07
-4.08193e-07
7.83267e-08
4.09689e-07
-4.05934e-07
6.77529e-08
-4.02903e-07
5.75367e-08
-3.98951e-07
4.77484e-08
-3.94099e-07
3.8746e-08
-3.88289e-07
3.06784e-08
-3.81422e-07
2.37409e-08
-3.73373e-07
1.8189e-08
-3.64019e-07
1.44051e-08
1.30319e-08
-3.53359e-07
-4.07255e-07
7.72271e-08
4.08355e-07
-4.05577e-07
6.60747e-08
-4.0334e-07
5.52992e-08
-4.00548e-07
4.49565e-08
-3.973e-07
3.54975e-08
-3.93633e-07
2.70113e-08
-3.89543e-07
1.96517e-08
-3.84969e-07
1.36151e-08
-3.79696e-07
9.13191e-09
6.42017e-09
-3.73084e-07
-4.0208e-07
7.6276e-08
4.03031e-07
-4.00612e-07
6.46068e-08
-3.98638e-07
5.3325e-08
-3.96325e-07
4.26437e-08
-3.93647e-07
3.28197e-08
-3.90656e-07
2.40197e-08
-3.87373e-07
1.63692e-08
-3.83752e-07
9.99356e-09
-3.79607e-07
4.98734e-09
1.31422e-09
-3.74501e-07
-3.93672e-07
7.52657e-08
3.94682e-07
-3.91996e-07
6.29309e-08
-3.89691e-07
5.10198e-08
-3.86785e-07
3.97378e-08
-3.83215e-07
2.92498e-08
-3.78931e-07
1.97356e-08
-3.73861e-07
1.12987e-08
-3.67858e-07
3.99073e-09
-3.60702e-07
-2.16891e-09
-7.22942e-09
-3.52158e-07
-3.84166e-07
7.42275e-08
3.85204e-07
-3.82211e-07
6.0976e-08
-3.7935e-07
4.81589e-08
-3.7556e-07
3.5948e-08
-3.70689e-07
2.43794e-08
-3.64732e-07
1.37784e-08
-3.57564e-07
4.13076e-09
-3.48994e-07
-4.57928e-09
-3.38758e-07
-1.24048e-08
-1.93242e-08
-3.26663e-07
-3.75614e-07
7.3345e-08
3.76497e-07
-3.73841e-07
5.92024e-08
-3.70671e-07
4.49888e-08
-3.66106e-07
3.13831e-08
-3.60181e-07
1.8455e-08
-3.52826e-07
6.42259e-09
-3.44077e-07
-4.61776e-09
-3.33787e-07
-1.48694e-08
-3.21553e-07
-2.46387e-08
-3.38252e-08
-3.07052e-07
-3.70792e-07
7.30266e-08
3.7111e-07
-3.69375e-07
5.77867e-08
-3.66618e-07
4.22316e-08
-3.61969e-07
2.67339e-08
-3.55366e-07
1.18524e-08
-3.4707e-07
-1.87312e-09
-3.37367e-07
-1.43207e-08
-3.26176e-07
-2.60607e-08
-3.12987e-07
-3.78275e-08
-5.00272e-08
-2.96785e-07
-3.71505e-07
7.38808e-08
3.70651e-07
-3.71617e-07
5.78991e-08
-3.70327e-07
4.09415e-08
-3.66661e-07
2.30684e-08
-3.60184e-07
5.37456e-09
-3.51569e-07
-1.04876e-08
-3.41392e-07
-2.44982e-08
-3.29103e-07
-3.83489e-08
-3.14423e-07
-5.25075e-08
-6.77764e-08
-2.96674e-07
-3.78057e-07
7.6131e-08
3.75807e-07
-3.80157e-07
5.99989e-08
-3.82056e-07
4.28409e-08
-3.8008e-07
2.10921e-08
-3.74608e-07
-9.70253e-11
-3.6589e-07
-1.92065e-08
-3.5418e-07
-3.62082e-08
-3.38451e-07
-5.40775e-08
-3.18487e-07
-7.24718e-08
-8.95133e-08
-2.9675e-07
-3.93317e-07
8.06866e-08
3.88761e-07
-3.95362e-07
6.20438e-08
-3.93744e-07
4.12226e-08
-3.9013e-07
1.74783e-08
-3.83122e-07
-7.10459e-09
-3.73526e-07
-2.88033e-08
-3.59352e-07
-5.03819e-08
-3.40762e-07
-7.26673e-08
-3.18343e-07
-9.48916e-08
-1.14762e-07
-2.93094e-07
-4.08745e-07
8.55332e-08
4.03898e-07
-4.09521e-07
6.28198e-08
-4.06317e-07
3.80193e-08
-4.0048e-07
1.16405e-08
-3.92222e-07
-1.53626e-08
-3.80247e-07
-4.07778e-08
-3.64563e-07
-6.60667e-08
-3.45386e-07
-9.18435e-08
-3.23107e-07
-1.17172e-07
-1.40991e-07
-2.96878e-07
-4.0967e-07
8.76617e-08
4.07542e-07
-4.09338e-07
6.24876e-08
-4.07292e-07
3.59726e-08
-4.03624e-07
7.97321e-09
-3.97936e-07
-2.10517e-08
-3.88289e-07
-5.0424e-08
-3.74171e-07
-8.01852e-08
-3.55801e-07
-1.10213e-07
-3.33182e-07
-1.3979e-07
-1.6826e-07
-3.05913e-07
-4.01549e-07
9.12591e-08
3.97951e-07
-4.04401e-07
6.53396e-08
-4.06057e-07
3.76289e-08
-4.06053e-07
7.9699e-09
-4.03483e-07
-2.36226e-08
-3.97015e-07
-5.68918e-08
-3.85685e-07
-9.15151e-08
-3.69002e-07
-1.26896e-07
-3.46632e-07
-1.62161e-07
-1.96357e-07
-3.18535e-07
-3.80953e-07
9.7127e-08
3.75085e-07
-3.87152e-07
7.15394e-08
-3.93105e-07
4.35817e-08
-3.97909e-07
1.2774e-08
-4.00303e-07
-2.12286e-08
-3.987e-07
-5.84948e-08
-3.91575e-07
-9.864e-08
-3.7779e-07
-1.40681e-07
-3.56783e-07
-1.83168e-07
-2.24565e-07
-3.28575e-07
-3.35668e-07
1.04886e-07
3.27909e-07
-3.44865e-07
8.07367e-08
-3.55089e-07
5.38052e-08
-3.65489e-07
2.31737e-08
-3.74569e-07
-1.21482e-08
-3.80114e-07
-5.29501e-08
-3.79556e-07
-9.91977e-08
-3.70856e-07
-1.4938e-07
-3.53085e-07
-2.00939e-07
-2.51305e-07
-3.26345e-07
-2.58351e-07
1.10253e-07
2.52984e-07
-2.66488e-07
8.88736e-08
-2.77575e-07
6.48924e-08
-2.91457e-07
3.70554e-08
-3.07145e-07
3.53953e-09
-3.22029e-07
-3.8066e-08
-3.31644e-07
-8.95822e-08
-3.31629e-07
-1.49395e-07
-3.20259e-07
-2.12309e-07
-2.73536e-07
-2.98028e-07
-1.43966e-07
1.06885e-07
1.47334e-07
-1.43327e-07
8.82347e-08
-1.46484e-07
6.80487e-08
-1.5525e-07
4.58219e-08
-1.71726e-07
2.0015e-08
-1.96152e-07
-1.36392e-08
-2.23268e-07
-6.24668e-08
-2.39646e-07
-1.33017e-07
-2.40183e-07
-2.11772e-07
-2.86037e-07
-2.27682e-07
-6.63269e-09
8.9768e-08
2.37495e-08
1e-08
7.16018e-08
2.53531e-08
5.26954e-08
3.75849e-08
3.35899e-08
4.08094e-08
1.67905e-08
2.46686e-08
2.50178e-09
-2.62249e-08
-1.15733e-08
-7.61042e-08
-8.31384e-08
-9.99488e-08
-1.87928e-07
-2.78645e-07
-1.07341e-07
1.13371e-07
6.38368e-08
-8.74397e-08
1.39559e-07
4.5413e-08
1.65365e-07
2.68899e-08
1.90215e-07
8.73943e-09
2.14167e-07
-7.16193e-09
2.36308e-07
-1.96394e-08
2.39588e-07
-1.48524e-08
1.99047e-07
-4.2597e-08
1.23256e-07
-1.12139e-07
-2.25721e-07
7.03316e-08
1.96002e-07
3.72183e-08
-1.69384e-07
2.21577e-07
1.98382e-08
2.45139e-07
3.32757e-09
2.658e-07
-1.19216e-08
2.83777e-07
-2.51391e-08
2.98004e-07
-3.38664e-08
3.06095e-07
-2.29457e-08
2.83589e-07
-2.00851e-08
2.54423e-07
-8.29708e-08
-1.86397e-07
2.151e-07
2.51669e-07
1.27958e-08
-2.27247e-07
2.74211e-07
-2.70331e-09
2.94187e-07
-1.66484e-08
3.10944e-07
-2.86787e-08
3.24157e-07
-3.83525e-08
3.33107e-07
-4.28165e-08
3.41574e-07
-3.14158e-08
3.36627e-07
-1.51407e-08
3.10346e-07
-5.66943e-08
-1.42012e-07
2.65955e-07
2.86012e-07
-7.59089e-09
-2.65626e-07
3.04025e-07
-2.07154e-08
3.19246e-07
-3.18702e-08
3.31215e-07
-4.06472e-08
3.39448e-07
-4.65857e-08
3.44303e-07
-4.76714e-08
3.52048e-07
-3.91595e-08
3.54084e-07
-1.71739e-08
3.51829e-07
-5.44274e-08
-1.39911e-07
3.49734e-07
3.0473e-07
-2.26346e-08
-2.89687e-07
3.1733e-07
-3.33157e-08
3.27429e-07
-4.19692e-08
3.34969e-07
-4.81867e-08
3.39867e-07
-5.1484e-08
3.4311e-07
-5.09143e-08
3.48338e-07
-4.43875e-08
3.67909e-07
-3.67516e-08
3.95575e-07
-8.20947e-08
-1.73447e-07
4.29112e-07
3.1164e-07
-3.16311e-08
-3.02643e-07
3.18675e-07
-4.03503e-08
3.24098e-07
-4.73919e-08
3.28307e-07
-5.2396e-08
3.31731e-07
-5.49078e-08
3.35489e-07
-5.46718e-08
3.43959e-07
-5.28556e-08
3.89482e-07
-8.22747e-08
4.46424e-07
-1.39036e-07
-2.36199e-07
5.09175e-07
3.07476e-07
-3.42471e-08
-3.0486e-07
3.08958e-07
-4.18326e-08
3.10069e-07
-4.85025e-08
3.11757e-07
-5.40841e-08
3.1556e-07
-5.8711e-08
3.25121e-07
-6.42331e-08
3.70457e-07
-9.81912e-08
4.64642e-07
-1.7646e-07
5.4125e-07
-2.15645e-07
-3.06464e-07
6.11515e-07
2.92535e-07
-3.08951e-08
-2.95887e-07
2.88903e-07
-3.82004e-08
2.86052e-07
-4.56515e-08
2.85954e-07
-5.39858e-08
2.94022e-07
-6.67797e-08
3.37152e-07
-1.07362e-07
4.66042e-07
-2.27083e-07
5.87754e-07
-2.98171e-07
6.52058e-07
-2.79952e-07
-3.8001e-07
7.25607e-07
2.70476e-07
-2.38111e-08
-2.7756e-07
2.64036e-07
-3.17601e-08
2.59437e-07
-4.10527e-08
2.60154e-07
-5.47028e-08
2.85403e-07
-9.20292e-08
3.74185e-07
-1.96144e-07
4.7866e-07
-3.31559e-07
5.46306e-07
-3.65819e-07
6.5355e-07
-3.87194e-07
-5.41612e-07
8.15149e-07
2.46652e-07
-1.7068e-08
-2.53395e-07
2.42569e-07
-2.76774e-08
2.45044e-07
-4.35275e-08
2.74883e-07
-8.45416e-08
3.63853e-07
-1.81e-07
4.66369e-07
-2.98659e-07
5.10341e-07
-3.75532e-07
5.83116e-07
-4.38594e-07
7.2718e-07
-5.31258e-07
-7.03255e-07
8.88824e-07
2.1833e-07
-1.24099e-08
-2.22988e-07
2.20917e-07
-3.02641e-08
2.54453e-07
-7.70635e-08
3.40726e-07
-1.70814e-07
4.50463e-07
-2.90738e-07
5.32075e-07
-3.80271e-07
6.01663e-07
-4.45119e-07
6.96369e-07
-5.333e-07
8.29063e-07
-6.63952e-07
-7.67675e-07
8.93483e-07
1.87038e-07
-1.28859e-08
-1.86562e-07
2.22137e-07
-6.53623e-08
3.22534e-07
-1.77462e-07
4.44598e-07
-2.92877e-07
5.33638e-07
-3.79777e-07
5.99984e-07
-4.46617e-07
6.82409e-07
-5.27543e-07
7.83245e-07
-6.34136e-07
8.57025e-07
-7.37731e-07
-8.06134e-07
8.95483e-07
1.79581e-07
-4.21996e-08
-1.50267e-07
2.90902e-07
-1.76682e-07
4.1493e-07
-3.01491e-07
4.86856e-07
-3.64803e-07
5.44675e-07
-4.37596e-07
6.18576e-07
-5.20518e-07
7.16095e-07
-6.25063e-07
8.0526e-07
-7.23302e-07
8.62014e-07
-7.94486e-07
-8.45922e-07
9.01803e-07
2.74561e-07
-1.62531e-07
-1.5423e-07
3.87126e-07
-2.89246e-07
4.334e-07
-3.47764e-07
4.77612e-07
-4.09015e-07
5.37492e-07
-4.97476e-07
6.29208e-07
-6.12235e-07
7.25451e-07
-7.21305e-07
7.96603e-07
-7.94454e-07
8.47304e-07
-8.45187e-07
-8.87457e-07
8.88839e-07
3.35665e-07
-2.68503e-07
-2.29693e-07
3.69609e-07
-3.23189e-07
3.9778e-07
-3.75935e-07
4.49769e-07
-4.61004e-07
5.40604e-07
-5.88311e-07
6.40911e-07
-7.12542e-07
7.14394e-07
-7.94788e-07
7.68461e-07
-8.4852e-07
8.15253e-07
-8.9198e-07
-9.29118e-07
8.56913e-07
3.12667e-07
-2.90551e-07
-2.90619e-07
3.26614e-07
-3.37135e-07
3.63207e-07
-4.12529e-07
4.50124e-07
-5.47921e-07
5.55472e-07
-6.93659e-07
6.3296e-07
-7.90031e-07
6.87307e-07
-8.49134e-07
7.34717e-07
-8.95931e-07
7.79065e-07
-9.36327e-07
-9.68165e-07
8.18112e-07
2.63623e-07
-2.95796e-07
-2.58379e-07
2.79722e-07
-3.53234e-07
3.48956e-07
-4.81762e-07
4.63023e-07
-6.61988e-07
5.50401e-07
-7.81037e-07
6.06821e-07
-8.46451e-07
6.54307e-07
-8.9662e-07
6.99177e-07
-9.40801e-07
7.39847e-07
-9.76998e-07
-1.00178e-06
7.73465e-07
2.09969e-07
-3.07696e-07
-1.98068e-07
2.63606e-07
-4.06871e-07
3.82096e-07
-6.00253e-07
4.76891e-07
-7.56784e-07
5.31853e-07
-8.35999e-07
5.7671e-07
-8.91308e-07
6.20245e-07
-9.40156e-07
6.61112e-07
-9.81667e-07
6.96282e-07
-1.01217e-06
-1.02797e-06
7.22467e-07
1.76047e-07
-3.48442e-07
-1.353e-07
2.87868e-07
-5.18691e-07
3.96845e-07
-7.09229e-07
4.55913e-07
-8.15852e-07
4.99498e-07
-8.79584e-07
5.4203e-07
-9.3384e-07
5.83106e-07
-9.81232e-07
6.19823e-07
-1.01839e-06
6.48807e-07
-1.04115e-06
-1.04617e-06
6.67008e-07
1.91659e-07
-4.12177e-07
-1.27924e-07
3.02175e-07
-6.29207e-07
3.78938e-07
-7.85993e-07
4.26681e-07
-8.63596e-07
4.68769e-07
-9.21672e-07
5.09378e-07
-9.74449e-07
5.47015e-07
-1.01887e-06
5.78615e-07
-1.04999e-06
6.00985e-07
-1.06352e-06
-1.05706e-06
6.11873e-07
2.46949e-07
-5.06178e-07
-1.52948e-07
3.31339e-07
-7.13595e-07
3.74264e-07
-8.28916e-07
4.08704e-07
-8.98035e-07
4.44692e-07
-9.5766e-07
4.80674e-07
-1.01043e-06
5.13475e-07
-1.05167e-06
5.39522e-07
-1.07603e-06
5.55862e-07
-1.07986e-06
-1.06221e-06
5.61009e-07
2.46319e-07
-6.02728e-07
-1.49769e-07
3.10987e-07
-7.78266e-07
3.48945e-07
-8.66873e-07
3.82967e-07
-9.32057e-07
4.17629e-07
-9.92322e-07
4.51277e-07
-1.04408e-06
4.80699e-07
-1.08109e-06
5.0266e-07
-1.09799e-06
5.15121e-07
-1.09232e-06
-1.06503e-06
5.17948e-07
2.76085e-07
-6.76945e-07
-2.01868e-07
3.09527e-07
-8.1171e-07
3.34829e-07
-8.92174e-07
3.63704e-07
-9.60932e-07
3.94684e-07
-1.0233e-06
4.24662e-07
-1.07406e-06
4.50039e-07
-1.10647e-06
4.67709e-07
-1.11566e-06
4.76109e-07
-1.10072e-06
-1.06456e-06
4.75639e-07
2.56562e-07
-7.22536e-07
-2.1097e-07
2.84512e-07
-8.3966e-07
3.10242e-07
-9.17904e-07
3.39002e-07
-9.89693e-07
3.69073e-07
-1.05337e-06
3.97317e-07
-1.1023e-06
4.20235e-07
-1.12939e-06
4.35187e-07
-1.13061e-06
4.41316e-07
-1.10685e-06
-1.06289e-06
4.39639e-07
2.36208e-07
-7.64861e-07
-1.93882e-07
2.60946e-07
-8.64398e-07
2.87283e-07
-9.44241e-07
3.15737e-07
-1.01815e-06
3.44611e-07
-1.08225e-06
3.71012e-07
-1.1287e-06
3.91645e-07
-1.15002e-06
4.04388e-07
-1.14336e-06
4.09065e-07
-1.11153e-06
-1.06094e-06
4.07118e-07
2.26926e-07
-7.8404e-07
-2.07747e-07
2.43421e-07
-8.80894e-07
2.65313e-07
-9.66133e-07
2.91276e-07
-1.04411e-06
3.18454e-07
-1.10942e-06
3.43133e-07
-1.15338e-06
3.61839e-07
-1.16872e-06
3.729e-07
-1.15442e-06
3.76614e-07
-1.11524e-06
-1.05862e-06
3.74293e-07
1.72413e-07
-8.08219e-07
-1.48234e-07
1.97544e-07
-9.06025e-07
2.26255e-07
-9.94844e-07
2.56677e-07
-1.07453e-06
2.86167e-07
-1.13891e-06
3.1145e-07
-1.17866e-06
3.29807e-07
-1.18708e-06
3.40548e-07
-1.16516e-06
3.4451e-07
-1.1192e-06
-1.05663e-06
3.42526e-07
1.18263e-07
-8.42726e-07
-8.37562e-08
1.5412e-07
-9.41883e-07
1.89844e-07
-1.03057e-06
2.23869e-07
-1.10856e-06
2.54709e-07
-1.16975e-06
2.80147e-07
-1.2041e-06
2.98443e-07
-1.20538e-06
3.09907e-07
-1.17662e-06
3.15778e-07
-1.12508e-06
-1.0569e-06
3.16045e-07
8.89368e-08
-8.8395e-07
-4.77123e-08
1.28221e-07
-9.81167e-07
1.64608e-07
-1.06695e-06
1.97626e-07
-1.14158e-06
2.26847e-07
-1.19897e-06
2.50781e-07
-1.22804e-06
2.68363e-07
-1.22296e-06
2.80752e-07
-1.18901e-06
2.8976e-07
-1.13408e-06
-1.06287e-06
2.95725e-07
7.87852e-08
-9.23399e-07
-3.93362e-08
1.15311e-07
-1.01769e-06
1.48039e-07
-1.09968e-06
1.77063e-07
-1.1706e-06
2.0257e-07
-1.22448e-06
2.23428e-07
-1.24889e-06
2.38918e-07
-1.23845e-06
2.50605e-07
-1.2007e-06
2.60302e-07
-1.14378e-06
-1.07093e-06
2.68366e-07
8.11975e-08
-9.55759e-07
-4.88381e-08
1.11462e-07
-1.04796e-06
1.38101e-07
-1.12632e-06
1.61412e-07
-1.19391e-06
1.81909e-07
-1.24498e-06
1.98686e-07
-1.26567e-06
2.11408e-07
-1.25117e-06
2.21875e-07
-1.21117e-06
2.31656e-07
-1.15356e-06
-1.08022e-06
2.40951e-07
8.85921e-08
-9.80061e-07
-6.42899e-08
1.11022e-07
-1.07039e-06
1.30636e-07
-1.14594e-06
1.47717e-07
-1.21099e-06
1.62688e-07
-1.25995e-06
1.74866e-07
-1.27785e-06
1.84528e-07
-1.26083e-06
1.93669e-07
-1.22031e-06
2.03774e-07
-1.16367e-06
-1.09195e-06
2.15499e-07
9.05785e-08
-9.98345e-07
-7.2294e-08
1.06319e-07
-1.08613e-06
1.20197e-07
-1.15981e-06
1.32185e-07
-1.22298e-06
1.42091e-07
-1.26986e-06
1.49663e-07
-1.28542e-06
1.56067e-07
-1.26724e-06
1.63193e-07
-1.22744e-06
1.72188e-07
-1.17266e-06
-1.10372e-06
1.83956e-07
8.09076e-08
-1.01232e-06
-6.69358e-08
9.2928e-08
-1.09815e-06
1.03887e-07
-1.17077e-06
1.13054e-07
-1.23215e-06
1.1921e-07
-1.27601e-06
1.22974e-07
-1.28918e-06
1.26682e-07
-1.27094e-06
1.31796e-07
-1.23255e-06
1.38902e-07
-1.17977e-06
-1.11367e-06
1.48855e-07
6.09107e-08
-1.02547e-06
-4.77601e-08
7.26232e-08
-1.10986e-06
8.34066e-08
-1.18156e-06
9.18671e-08
-1.24061e-06
9.56699e-08
-1.27981e-06
9.68512e-08
-1.29037e-06
9.90797e-08
-1.27317e-06
1.03219e-07
-1.23669e-06
1.09211e-07
-1.18576e-06
-1.12165e-06
1.17187e-07
3.8175e-08
-1.0389e-06
-2.47402e-08
5.1024e-08
-1.12271e-06
6.29034e-08
-1.19344e-06
7.16301e-08
-1.24934e-06
7.39326e-08
-1.28212e-06
7.36326e-08
-1.29007e-06
7.55993e-08
-1.27514e-06
8.01676e-08
-1.24126e-06
8.70428e-08
-1.19264e-06
-1.12971e-06
9.51062e-08
1.59642e-08
-1.05018e-06
-4.68471e-09
3.00914e-08
-1.13684e-06
4.35575e-08
-1.2069e-06
5.30638e-08
-1.25884e-06
5.49529e-08
-1.28401e-06
5.4693e-08
-1.28981e-06
5.78299e-08
-1.27828e-06
6.42659e-08
-1.24769e-06
7.39741e-08
-1.20234e-06
-1.13975e-06
8.40108e-08
-1.38223e-08
-1.06777e-06
3.14134e-08
6.45953e-09
-1.15712e-06
2.38465e-08
-1.22429e-06
3.52274e-08
-1.27022e-06
3.80902e-08
-1.28687e-06
3.92636e-08
-1.29098e-06
4.46734e-08
-1.28369e-06
5.44394e-08
-1.25746e-06
7.03508e-08
-1.21826e-06
-1.16145e-06
9.20547e-08
-3.41935e-08
-1.09829e-06
6.47098e-08
-8.55255e-09
-1.18276e-06
1.04049e-08
-1.24325e-06
2.12703e-08
-1.28109e-06
2.36429e-08
-1.28924e-06
2.46123e-08
-1.29195e-06
2.9678e-08
-1.28875e-06
3.87814e-08
-1.26656e-06
5.4887e-08
-1.23436e-06
-1.18803e-06
8.14692e-08
-3.05788e-08
-1.12506e-06
5.73471e-08
-8.88211e-09
-1.20446e-06
6.16171e-09
-1.25829e-06
1.32369e-08
-1.28816e-06
1.3268e-08
-1.28927e-06
1.20065e-08
-1.29069e-06
1.37773e-08
-1.29052e-06
1.7757e-08
-1.27054e-06
2.65218e-08
-1.24313e-06
-1.20844e-06
4.69259e-08
-2.10285e-08
-1.15508e-06
5.1051e-08
-2.66799e-09
-1.22282e-06
8.70212e-09
-1.26966e-06
1.17289e-08
-1.29119e-06
8.97714e-09
-1.28652e-06
5.01465e-09
-1.28672e-06
3.37186e-09
-1.28888e-06
2.57636e-09
-1.26975e-06
2.20404e-09
-1.24275e-06
-1.21591e-06
9.67361e-09
8.42881e-09
-1.1827e-06
1.91893e-08
1.57244e-08
-1.23011e-06
1.9427e-08
-1.27336e-06
1.56419e-08
-1.28741e-06
8.58748e-09
-1.27947e-06
1.59745e-09
-1.27973e-06
-2.27717e-09
-1.28501e-06
-4.24661e-09
-1.26778e-06
-8.24263e-09
-1.23876e-06
-1.21955e-06
-4.59938e-09
3.70416e-08
-1.17426e-06
-4.5483e-08
2.77216e-08
-1.22079e-06
2.52238e-08
-1.27086e-06
1.64338e-08
-1.27861e-06
6.76076e-09
-1.26979e-06
-2.37918e-09
-1.27059e-06
-8.71958e-09
-1.27867e-06
-1.11937e-08
-1.2653e-06
-1.99458e-08
-1.23001e-06
-1.20852e-06
-3.09737e-08
2.35053e-08
-1.16347e-06
-3.42971e-08
2.04105e-08
-1.2177e-06
2.23006e-08
-1.27275e-06
1.34787e-08
-1.26979e-06
3.93625e-09
-1.26025e-06
-5.85526e-09
-1.2608e-06
-1.4075e-08
-1.27045e-06
-1.50038e-08
-1.26437e-06
-2.52352e-08
-1.21977e-06
-1.1861e-06
-4.76552e-08
1.64261e-08
-1.13119e-06
-4.86969e-08
1.99397e-08
-1.22121e-06
2.32782e-08
-1.27609e-06
1.25186e-08
-1.25903e-06
2.15907e-09
-1.24989e-06
-8.42126e-09
-1.25022e-06
-1.86288e-08
-1.26024e-06
-1.52621e-08
-1.26774e-06
-1.83363e-08
-1.2167e-06
-1.15239e-06
-5.20515e-08
-3.48187e-10
-1.07422e-06
-5.66238e-08
2.34663e-08
-1.24503e-06
2.56465e-08
-1.27827e-06
1.2271e-08
-1.24566e-06
1.02142e-09
-1.23864e-06
-1.04555e-08
-1.23875e-06
-2.4198e-08
-1.2465e-06
-1.89352e-08
-1.273e-06
1.42686e-09
-1.23706e-06
-1.09598e-06
-5.49842e-08