/*--------------------------------*- C++ -*----------------------------------*\
  =========                 |
  \\      /  F ield         | OpenFOAM: The Open Source CFD Toolbox
   \\    /   O peration     | Website:  https://openfoam.org
    \\  /    A nd           | Version:  8
     \\/     M anipulation  |
\*---------------------------------------------------------------------------*/
FoamFile
{
    version     2.0;
    format      ascii;
    class       volVectorField;
    location    "4.15";
    object      U;
}
// * * * * * * * * * * * * * * * * * * * * * * * * * * * * * * * * * * * * * //

dimensions      [0 1 -1 0 0 0 0];

internalField   nonuniform List<vector> 
9150
(
(0.0537541 -0.428521 0)
(0.0879485 -0.622372 0)
(0.0731649 -0.631538 0)
(0.0486177 -0.643735 0)
(0.0170579 -0.654448 0)
(-0.0170394 -0.654451 0)
(-0.0486026 -0.643744 0)
(-0.0731546 -0.631548 0)
(-0.0879443 -0.622383 0)
(-0.0537535 -0.428531 0)
(0.0407404 -0.52268 0)
(0.0574353 -0.625819 0)
(0.0421199 -0.613271 0)
(0.0293875 -0.622456 0)
(0.0105038 -0.628871 0)
(-0.01049 -0.628873 0)
(-0.0293757 -0.622461 0)
(-0.0421109 -0.613277 0)
(-0.0574303 -0.625824 0)
(-0.0407391 -0.522689 0)
(0.0252832 -0.557886 0)
(0.0325435 -0.613931 0)
(0.023011 -0.604502 0)
(0.0172643 -0.609987 0)
(0.00625208 -0.613195 0)
(-0.006242 -0.613196 0)
(-0.0172555 -0.60999 0)
(-0.0230042 -0.604505 0)
(-0.0325391 -0.613934 0)
(-0.0252817 -0.557891 0)
(0.0154163 -0.584696 0)
(0.0175041 -0.607522 0)
(0.0117033 -0.601143 0)
(0.00887908 -0.60328 0)
(0.00324486 -0.604397 0)
(-0.00323833 -0.604398 0)
(-0.00887336 -0.603281 0)
(-0.0116988 -0.601145 0)
(-0.0175009 -0.607522 0)
(-0.015415 -0.584699 0)
(0.00629564 -0.597162 0)
(0.005569 -0.601405 0)
(0.00356318 -0.600039 0)
(0.00268138 -0.600348 0)
(0.000994022 -0.600482 0)
(-0.000991491 -0.600482 0)
(-0.00267916 -0.600348 0)
(-0.00356142 -0.600039 0)
(-0.00556763 -0.601405 0)
(-0.00629502 -0.597163 0)
(0.469338 -1.16221 1.53426e-24)
(0.283095 -1.086 0)
(0.163299 -1.06938 0)
(0.0922596 -1.05764 0)
(0.0305107 -1.05294 0)
(-0.0303271 -1.05297 0)
(-0.0920957 -1.05772 0)
(-0.16317 -1.06951 0)
(-0.283014 -1.08617 0)
(-0.469385 -1.16244 -1.53669e-24)
(0.333782 -0.844107 4.20472e-25)
(0.28742 -0.93685 0)
(0.188373 -0.936861 0)
(0.108213 -0.936704 0)
(0.0358256 -0.939053 0)
(-0.0357219 -0.939073 0)
(-0.108125 -0.93676 0)
(-0.188312 -0.936943 0)
(-0.287401 -0.93695 0)
(-0.333809 -0.844215 -4.21019e-25)
(0.27872 -0.702388 6.77718e-26)
(0.259198 -0.804805 0)
(0.1782 -0.817582 0)
(0.104587 -0.828325 0)
(0.0348972 -0.836423 0)
(-0.0348347 -0.836435 0)
(-0.104535 -0.828359 0)
(-0.178167 -0.81763 0)
(-0.259188 -0.804859 0)
(-0.278733 -0.702439 -6.79622e-26)
(0.199673 -0.554254 2.64245e-25)
(0.21676 -0.709567 0)
(0.154359 -0.725944 0)
(0.0913324 -0.742008 0)
(0.0305767 -0.753909 0)
(-0.0305375 -0.753917 0)
(-0.0913004 -0.742029 0)
(-0.154339 -0.725973 0)
(-0.216754 -0.709597 0)
(-0.199679 -0.554282 -2.64167e-25)
(0.118602 -0.445151 -4.29675e-25)
(0.156431 -0.644378 -6.15873e-25)
(0.11676 -0.663847 -2.08133e-25)
(0.0709022 -0.681201 -1.36451e-25)
(0.0239889 -0.694196 -7.84697e-27)
(-0.0239628 -0.694201 -7.80226e-27)
(-0.0708811 -0.681215 -1.36337e-25)
(-0.116746 -0.663864 -2.08087e-25)
(-0.156427 -0.644395 -6.15833e-25)
(-0.118604 -0.445166 -4.29679e-25)
(0.0229535 -0.912892 0)
(-0.034286 -1.34017 0)
(0.0255017 -1.27179 0)
(-0.00293598 -1.22632 0)
(0.00447163 -1.22437 0)
(-0.00360402 -1.22447 0)
(0.00453591 -1.22611 0)
(-0.0238065 -1.2706 0)
(0.037648 -1.33986 0)
(-0.0198818 -0.923859 0)
(0.0493814 -0.904466 0)
(-0.020637 -1.3335 0)
(0.0242508 -1.27099 0)
(0.00120295 -1.22455 0)
(0.00152545 -1.22296 0)
(-0.000709296 -1.22315 0)
(0.000359827 -1.22441 0)
(-0.0229456 -1.27085 0)
(0.0225602 -1.33403 0)
(-0.0479828 -0.908288 0)
(0.0773662 -0.942539 0)
(-0.0221384 -1.34831 0)
(0.0175339 -1.27581 0)
(0.00597518 -1.23139 0)
(0.000141817 -1.22659 0)
(0.000564215 -1.2267 0)
(-0.00504778 -1.23142 0)
(-0.0168111 -1.27619 0)
(0.0231941 -1.3488 0)
(-0.0767205 -0.944831 0)
(0.143979 -1.07739 0)
(0.00294969 -1.36637 0)
(0.0155077 -1.27184 0)
(0.0218873 -1.22599 0)
(0.0060411 -1.21447 0)
(-0.00550761 -1.21451 0)
(-0.0213508 -1.22613 0)
(-0.0151384 -1.27208 0)
(-0.00232545 -1.36671 0)
(-0.143718 -1.07856 0)
(0.298059 -1.21835 0)
(0.126745 -1.32203 0)
(0.0690164 -1.21054 0)
(0.0564454 -1.16897 0)
(0.0202467 -1.15644 0)
(-0.0199277 -1.15648 0)
(-0.0561689 -1.16911 0)
(-0.0687634 -1.21075 0)
(-0.126442 -1.32226 0)
(-0.298026 -1.21889 0)
(0.0767817 0.00082709 0)
(0.0761061 0.000979467 0)
(0.0753273 0.00111677 0)
(0.0744542 0.00123741 0)
(0.0734946 0.00134073 0)
(0.0724578 0.00142478 0)
(0.0713534 0.001492 0)
(0.0701906 0.00154271 0)
(0.0689782 0.0015801 0)
(0.0677246 0.00160626 0)
(0.0773259 0.00159272 0)
(0.0769411 0.00189316 0)
(0.0764788 0.00217801 0)
(0.075938 0.00244512 0)
(0.0753191 0.00269186 0)
(0.0746234 0.00291733 0)
(0.0738532 0.00312143 0)
(0.0730115 0.00330351 0)
(0.0721025 0.0034632 0)
(0.0711321 0.00360106 0)
(0.0741884 0.00230713 0)
(0.0737189 0.00274748 0)
(0.0731862 0.0031724 0)
(0.0725912 0.00357921 0)
(0.071935 0.00396438 0)
(0.0712192 0.00432614 0)
(0.0704462 0.00466142 0)
(0.0696192 0.00496866 0)
(0.0687416 0.00524553 0)
(0.067817 0.00549183 0)
(0.0707903 0.0032779 0)
(0.0702531 0.00383979 0)
(0.0696588 0.0043813 0)
(0.0690091 0.00490012 0)
(0.0683062 0.00539324 0)
(0.0675525 0.00585759 0)
(0.0667511 0.0062896 0)
(0.0659053 0.00668671 0)
(0.0650192 0.00704637 0)
(0.064097 0.00736839 0)
(0.0671472 0.00434905 0)
(0.0665546 0.005023 0)
(0.0659098 0.00567256 0)
(0.0652146 0.00629509 0)
(0.0644709 0.00688692 0)
(0.0636816 0.00744381 0)
(0.0628502 0.00796144 0)
(0.0619812 0.00843599 0)
(0.0610794 0.00886433 0)
(0.0601495 0.00924627 0)
(0.0632213 0.00553505 0)
(0.0625778 0.00631032 0)
(0.0618869 0.00705831 0)
(0.0611495 0.00777575 0)
(0.060367 0.00845761 0)
(0.059542 0.00909776 0)
(0.0586791 0.00968972 0)
(0.0577841 0.0102283 0)
(0.0568631 0.0107106 0)
(0.0559217 0.0111358 0)
(0.0589685 0.00682503 0)
(0.0582774 0.00769058 0)
(0.0575438 0.00852873 0)
(0.0567663 0.00933541 0)
(0.0559447 0.0101027 0)
(0.0550812 0.0108206 0)
(0.0541821 0.0114786 0)
(0.0532567 0.012069 0)
(0.0523136 0.0125903 0)
(0.0513591 0.0130413 0)
(0.0543399 0.00821416 0)
(0.0536042 0.00915801 0)
(0.0528316 0.0100792 0)
(0.0520166 0.0109733 0)
(0.0511542 0.0118285 0)
(0.050244 0.0126249 0)
(0.0492968 0.0133412 0)
(0.0483328 0.0139663 0)
(0.0473669 0.0145056 0)
(0.0464026 0.0149621 0)
(0.049278 0.00969862 0)
(0.0485006 0.0107039 0)
(0.0476944 0.011701 0)
(0.0468463 0.0126873 0)
(0.0459389 0.0136472 0)
(0.0449616 0.0145379 0)
(0.0439345 0.0153022 0)
(0.0429109 0.0159169 0)
(0.0419242 0.0164343 0)
(0.0409663 0.0168728 0)
(0.0437148 0.0112823 0)
(0.0428906 0.0123222 0)
(0.0420508 0.0133807 0)
(0.0411763 0.0144656 0)
(0.0402218 0.0155845 0)
(0.039134 0.0166551 0)
(0.0379416 0.017492 0)
(0.0368045 0.0179581 0)
(0.0358106 0.0184023 0)
(0.0348787 0.0188594 0)
(0.0375856 0.0129654 0)
(0.0366792 0.0140162 0)
(0.035757 0.0151043 0)
(0.0348422 0.0162409 0)
(0.0338803 0.017645 0)
(0.0326973 0.0192233 0)
(0.0312182 0.0204323 0)
(0.0298865 0.0202354 0)
(0.0289956 0.0202358 0)
(0.0284276 0.0203042 0)
(0.030913 0.0148472 0)
(0.0298543 0.0161199 0)
(0.0286272 0.0173671 0)
(0.0274023 0.0183866 0)
(0.0262456 0.0199964 0)
(0.0251689 0.021707 0)
(0.0244013 0.0227603 0)
(0.023858 0.0218522 0)
(0.0234775 0.0211515 0)
(0.023251 0.0208067 0)
(0.0243781 0.0171058 0)
(0.0232287 0.0185766 0)
(0.0221504 0.0198508 0)
(0.0211097 0.0207472 0)
(0.0201618 0.0220425 0)
(0.019585 0.0228861 0)
(0.019384 0.0231914 0)
(0.0192506 0.0223363 0)
(0.0189894 0.0215532 0)
(0.0186422 0.021219 0)
(0.0187019 0.0196119 0)
(0.017545 0.0206724 0)
(0.0167427 0.0213322 0)
(0.0162521 0.0220317 0)
(0.0158585 0.0230845 0)
(0.0154272 0.0234855 0)
(0.015025 0.0234785 0)
(0.0146049 0.0229452 0)
(0.0140248 0.0224906 0)
(0.0133359 0.0222447 0)
(0.0139293 0.0218286 0)
(0.0129308 0.0225535 0)
(0.0119534 0.0227474 0)
(0.0110233 0.0231631 0)
(0.0102666 0.0239604 0)
(0.009699 0.0244195 0)
(0.00912727 0.0244587 0)
(0.00842621 0.0242583 0)
(0.0075847 0.0240718 0)
(0.00665233 0.0239546 0)
(0.00768558 0.0236245 0)
(0.00676608 0.0243924 0)
(0.00575559 0.0247692 0)
(0.00466502 0.0251849 0)
(0.00361749 0.0256154 0)
(0.00264636 0.0259257 0)
(0.00169915 0.0260623 0)
(0.000710796 0.0260837 0)
(-0.00034954 0.0260803 0)
(-0.00147436 0.0260891 0)
(0.000155832 0.0256555 0)
(-0.00106042 0.0264806 0)
(-0.00230901 0.0270739 0)
(-0.00358497 0.0275375 0)
(-0.00485246 0.0278969 0)
(-0.006088 0.02814 0)
(-0.00729285 0.0282731 0)
(-0.00849123 0.0283599 0)
(-0.00971341 0.0284486 0)
(-0.0109794 0.0285529 0)
(-0.00890939 0.0283739 0)
(-0.010456 0.0292247 0)
(-0.0119892 0.0298486 0)
(-0.0134959 0.0303009 0)
(-0.014976 0.0306385 0)
(-0.0164252 0.0308253 0)
(-0.0178143 0.0308591 0)
(-0.0191395 0.0309147 0)
(-0.0204649 0.0310574 0)
(-0.0218471 0.0312774 0)
(-0.0195225 0.0318265 0)
(-0.0214564 0.0326233 0)
(-0.0232976 0.0331594 0)
(-0.0250096 0.0334808 0)
(-0.0266335 0.033802 0)
(-0.0282155 0.0338703 0)
(-0.0296951 0.0336435 0)
(-0.0311027 0.0336388 0)
(-0.0325547 0.0338564 0)
(-0.0341051 0.0342379 0)
(-0.0317475 0.0362447 0)
(-0.0341114 0.0367918 0)
(-0.0362801 0.0371729 0)
(-0.0381837 0.0369451 0)
(-0.0397007 0.0368316 0)
(-0.0410854 0.0368533 0)
(-0.0425774 0.036584 0)
(-0.0442021 0.0366848 0)
(-0.0459826 0.0370976 0)
(-0.0479448 0.0377651 0)
(-0.0455442 0.0421616 0)
(-0.0483589 0.0414664 0)
(-0.0501683 0.0408133 0)
(-0.051603 0.040245 0)
(-0.0531708 0.0397697 0)
(-0.0547587 0.0398503 0)
(-0.0564558 0.0399144 0)
(-0.0584111 0.0404089 0)
(-0.0606688 0.0413166 0)
(-0.0632677 0.0426549 0)
(-0.0596198 0.0485625 0)
(-0.0619686 0.0456965 0)
(-0.0637262 0.0438442 0)
(-0.0652949 0.0433359 0)
(-0.0668809 0.0430169 0)
(-0.0686491 0.0432568 0)
(-0.0707125 0.0439409 0)
(-0.0731721 0.0452096 0)
(-0.0760105 0.0470737 0)
(-0.0790324 0.0489207 0)
(-0.0738343 0.0521098 0)
(-0.0750178 0.0491027 0)
(-0.0765398 0.0472867 0)
(-0.0783359 0.0465877 0)
(-0.0802858 0.0466161 0)
(-0.0824266 0.0473601 0)
(-0.0848569 0.0490851 0)
(-0.0877161 0.051289 0)
(-0.0904777 0.052921 0)
(-0.0925974 0.0539258 0)
(-0.0865109 0.0538325 0)
(-0.0877077 0.0519601 0)
(-0.0894593 0.0508425 0)
(-0.0915777 0.0506504 0)
(-0.093921 0.0513257 0)
(-0.0964836 0.0525911 0)
(-0.0991592 0.0546813 0)
(-0.101375 0.0562231 0)
(-0.102569 0.0559178 0)
(-0.103149 0.0560364 0)
(-0.0996796 0.056169 0)
(-0.101287 0.0551686 0)
(-0.10326 0.0549096 0)
(-0.105529 0.0555929 0)
(-0.108057 0.0566436 0)
(-0.110328 0.057313 0)
(-0.111632 0.0580882 0)
(-0.112214 0.058188 0)
(-0.112783 0.0569712 0)
(-0.113393 0.056835 0)
(-0.114046 0.0596203 0)
(-0.116167 0.0591725 0)
(-0.118378 0.0594392 0)
(-0.120593 0.0603589 0)
(-0.122481 0.0605293 0)
(-0.123737 0.0600196 0)
(-0.124447 0.0588631 0)
(-0.124648 0.0584948 0)
(-0.124865 0.0580858 0)
(-0.125469 0.0579625 0)
(-0.129029 0.0640565 0)
(-0.131379 0.0635281 0)
(-0.133417 0.0635257 0)
(-0.134912 0.0636399 0)
(-0.135888 0.0628535 0)
(-0.136563 0.0615545 0)
(-0.137036 0.0598073 0)
(-0.137588 0.0592771 0)
(-0.138428 0.059421 0)
(-0.13966 0.0601562 0)
(-0.144528 0.0693268 0)
(-0.147167 0.0685 0)
(-0.149228 0.0673553 0)
(-0.150574 0.0658326 0)
(-0.151069 0.0636335 0)
(-0.150878 0.0618542 0)
(-0.150724 0.0606967 0)
(-0.151116 0.0608882 0)
(-0.152252 0.0621574 0)
(-0.154071 0.0640506 0)
(-0.159309 0.0752482 0)
(-0.161548 0.0728197 0)
(-0.162594 0.0693066 0)
(-0.162806 0.066451 0)
(-0.162645 0.063324 0)
(-0.162282 0.0611966 0)
(-0.161887 0.0604819 0)
(-0.161651 0.0619601 0)
(-0.16205 0.0655627 0)
(-0.163751 0.0695439 0)
(-0.172968 0.0795744 0)
(-0.17416 0.0750779 0)
(-0.174762 0.0701789 0)
(-0.174943 0.0664179 0)
(-0.174811 0.0630156 0)
(-0.174629 0.0606984 0)
(-0.174362 0.0600513 0)
(-0.173976 0.0617396 0)
(-0.173261 0.0661474 0)
(-0.171507 0.0703761 0)
(-0.183254 0.0816936 0)
(-0.18369 0.0761999 0)
(-0.183809 0.0709879 0)
(-0.183695 0.0663691 0)
(-0.183324 0.06265 0)
(-0.182694 0.060043 0)
(-0.181733 0.0587845 0)
(-0.180273 0.059003 0)
(-0.177901 0.0604414 0)
(-0.174057 0.0618643 0)
(-0.190602 0.0826023 0)
(-0.190586 0.0763758 0)
(-0.19022 0.0704608 0)
(-0.18944 0.0651826 0)
(-0.188236 0.0607656 0)
(-0.186583 0.0573773 0)
(-0.184405 0.0551057 0)
(-0.181646 0.0538823 0)
(-0.178375 0.0534214 0)
(-0.174834 0.0536443 0)
(-0.196178 0.0827474 0)
(-0.195814 0.075525 0)
(-0.194928 0.0686767 0)
(-0.193523 0.062439 0)
(-0.191601 0.0570376 0)
(-0.18917 0.0526346 0)
(-0.186238 0.0493559 0)
(-0.182858 0.0472597 0)
(-0.179145 0.0463874 0)
(-0.175249 0.0466813 0)
(-0.200533 0.0820332 0)
(-0.199734 0.0737357 0)
(-0.1984 0.0658245 0)
(-0.196538 0.0585116 0)
(-0.194137 0.0520541 0)
(-0.191194 0.0466266 0)
(-0.187726 0.0424083 0)
(-0.183787 0.0395599 0)
(-0.179491 0.0382106 0)
(-0.175039 0.0384061 0)
(-0.203347 0.0806195 0)
(-0.202347 0.0712669 0)
(-0.20085 0.0623038 0)
(-0.198851 0.0539223 0)
(-0.196324 0.0463563 0)
(-0.193239 0.0398155 0)
(-0.189581 0.0345309 0)
(-0.185357 0.0307551 0)
(-0.180625 0.0287648 0)
(-0.175555 0.0288477 0)
(-0.20457 0.0790039 0)
(-0.203632 0.0687552 0)
(-0.20231 0.0588654 0)
(-0.200571 0.0494601 0)
(-0.198376 0.0408167 0)
(-0.195716 0.0331279 0)
(-0.192563 0.0266235 0)
(-0.18886 0.0216088 0)
(-0.184492 0.0185535 0)
(-0.179322 0.0182048 0)
(-0.203976 0.0776915 0)
(-0.20328 0.0667966 0)
(-0.202298 0.0562388 0)
(-0.201034 0.0461035 0)
(-0.19952 0.0367845 0)
(-0.197789 0.028402 0)
(-0.195866 0.0211294 0)
(-0.193735 0.0152029 0)
(-0.191242 0.0109671 0)
(-0.188081 0.00897621 0)
(-0.20134 0.0767576 0)
(-0.200737 0.0653482 0)
(-0.199871 0.0543282 0)
(-0.19879 0.0438406 0)
(-0.197537 0.0342335 0)
(-0.196118 0.0256393 0)
(-0.194556 0.0181937 0)
(-0.192865 0.0120399 0)
(-0.190964 0.00728012 0)
(-0.188587 0.00388673 0)
(-0.197163 0.0758097 0)
(-0.196496 0.0638461 0)
(-0.195503 0.0523191 0)
(-0.194198 0.0414169 0)
(-0.192584 0.0313552 0)
(-0.19063 0.0223133 0)
(-0.188305 0.0144037 0)
(-0.185558 0.00772226 0)
(-0.182297 0.00232145 0)
(-0.178402 -0.00187023 0)
(-0.192434 0.0747478 0)
(-0.191701 0.0620221 0)
(-0.190515 0.0497283 0)
(-0.188854 0.038064 0)
(-0.18669 0.0271282 0)
(-0.183998 0.0171577 0)
(-0.180736 0.008199 0)
(-0.176828 0.000273091 0)
(-0.172147 -0.00662429 0)
(-0.166568 -0.0124955 0)
(-0.188136 0.0737267 0)
(-0.187503 0.0600536 0)
(-0.186287 0.0466099 0)
(-0.184373 0.0338048 0)
(-0.181746 0.0216635 0)
(-0.178423 0.0104153 0)
(-0.174413 9.34977e-05 0)
(-0.169684 -0.00939462 0)
(-0.164084 -0.0181627 0)
(-0.157403 -0.0261758 0)
(-0.185585 0.0729962 0)
(-0.185201 0.05829 0)
(-0.184196 0.0434623 0)
(-0.182377 0.0290227 0)
(-0.179556 0.0152222 0)
(-0.175809 0.00237454 0)
(-0.17132 -0.00943482 0)
(-0.166131 -0.0204484 0)
(-0.160063 -0.0310807 0)
(-0.152695 -0.0416378 0)
(-0.185629 0.0731255 0)
(-0.185929 0.0574284 0)
(-0.18572 0.0411353 0)
(-0.18454 0.0244675 0)
(-0.181999 0.00832849 0)
(-0.178205 -0.00632184 0)
(-0.173465 -0.0191566 0)
(-0.167971 -0.0314616 0)
(-0.161209 -0.0442341 0)
(-0.152993 -0.0577568 0)
(-0.188593 0.0742541 0)
(-0.189678 0.0581483 0)
(-0.190793 0.0413476 0)
(-0.190784 0.022139 0)
(-0.189021 0.0030377 0)
(-0.185547 -0.0141119 0)
(-0.180643 -0.0294321 0)
(-0.173592 -0.0450986 0)
(-0.164511 -0.0610767 0)
(-0.154189 -0.0773886 0)
(-0.195697 0.0785031 0)
(-0.197481 0.0619331 0)
(-0.197745 0.0430051 0)
(-0.196314 0.0199045 0)
(-0.193571 -0.00320335 0)
(-0.189469 -0.0235788 0)
(-0.183858 -0.0427463 0)
(-0.175945 -0.0629014 0)
(-0.165033 -0.083776 0)
(-0.152921 -0.102353 0)
(-0.203425 0.0836272 0)
(-0.205104 0.0631421 0)
(-0.204535 0.0402659 0)
(-0.202235 0.0146494 0)
(-0.19841 -0.011559 0)
(-0.193382 -0.0351793 0)
(-0.186641 -0.0585513 0)
(-0.178037 -0.0826132 0)
(-0.167648 -0.105941 0)
(-0.155367 -0.127299 0)
(-0.204753 0.0866492 0)
(-0.205037 0.0616103 0)
(-0.204392 0.0357466 0)
(-0.203093 0.00893232 0)
(-0.200773 -0.0187025 0)
(-0.19697 -0.0459723 0)
(-0.191137 -0.0734379 0)
(-0.183044 -0.101082 0)
(-0.172803 -0.128283 0)
(-0.16032 -0.154268 0)
(-0.200142 0.0886034 0)
(-0.201589 0.0631957 0)
(-0.202731 0.0359775 0)
(-0.203302 0.00702096 0)
(-0.2028 -0.0233337 0)
(-0.200668 -0.0546093 0)
(-0.196316 -0.0866312 0)
(-0.189361 -0.119031 0)
(-0.179609 -0.151102 0)
(-0.166975 -0.182103 0)
(-0.188939 0.0935827 0)
(-0.192015 0.0674976 0)
(-0.195161 0.0393806 0)
(-0.197993 0.00894813 0)
(-0.199971 -0.0239387 0)
(-0.200361 -0.0591621 0)
(-0.19834 -0.0963292 0)
(-0.193209 -0.134672 0)
(-0.184532 -0.173107 0)
(-0.172195 -0.210482 0)
(-0.165696 0.100795 0)
(-0.169985 0.0755396 0)
(-0.174933 0.0476494 0)
(-0.180242 0.0164408 0)
(-0.185346 -0.0186559 0)
(-0.189299 -0.0579119 0)
(-0.190828 -0.10101 0)
(-0.188687 -0.146771 0)
(-0.182104 -0.19332 0)
(-0.170915 -0.238712 0)
(-0.12753 0.108631 0)
(-0.130878 0.0855804 0)
(-0.135684 0.0596113 0)
(-0.142013 0.0296459 0)
(-0.149662 -0.00562339 0)
(-0.157732 -0.0475511 0)
(-0.16435 -0.0966748 0)
(-0.16712 -0.151528 0)
(-0.164376 -0.208561 0)
(-0.155857 -0.264173 0)
(-0.0725558 0.111507 0)
(-0.0714198 0.0917422 0)
(-0.0718266 0.0697235 0)
(-0.0746288 0.0441145 0)
(-0.0811036 0.012279 0)
(-0.0918471 -0.029534 0)
(-0.105261 -0.0833753 0)
(-0.116921 -0.147452 0)
(-0.1216 -0.215625 0)
(-0.118578 -0.282234 0)
(-0.00754446 0.101701 0)
(0.00102179 0.0838328 0)
(0.00912072 0.0648661 0)
(0.0161964 0.0449448 0)
(0.0209923 0.024619 0)
(0.0186279 -0.00123701 0)
(0.00163987 -0.0496057 0)
(-0.0260253 -0.128653 0)
(-0.0459582 -0.2155 0)
(-0.0536522 -0.294396 0)
(0.0501645 0.0781649 0)
(0.0634087 0.0598529 0)
(0.0766165 0.0411903 0)
(0.088431 0.0227351 0)
(0.098313 0.00719801 0)
(0.108322 -0.000875965 0)
(0.123618 -0.00417088 0)
(0.122382 -0.0781611 0)
(0.0786485 -0.181856 0)
(0.0442589 -0.276646 0)
(0.0914223 0.0502187 0)
(0.104709 0.031975 0)
(0.117399 0.0141224 0)
(0.127574 -0.00281037 0)
(0.134424 -0.0177832 0)
(0.140412 -0.0275248 0)
(0.15794 -0.00152993 0)
(0.153571 0.0126228 0)
(0.128643 -0.0512001 0)
(0.117343 -0.188955 0)
(0.11992 0.0242493 0)
(0.131845 0.00763985 0)
(0.142762 -0.00770542 0)
(0.15125 -0.021414 0)
(0.156772 -0.0332509 0)
(0.161408 -0.0404905 0)
(0.172305 -0.0296754 0)
(0.174658 -0.0244171 0)
(0.163766 -0.0690386 0)
(0.143422 -0.14913 0)
(0.138182 0.00142335 0)
(0.147884 -0.0129707 0)
(0.156353 -0.025514 0)
(0.162867 -0.0357949 0)
(0.166749 -0.0433038 0)
(0.169717 -0.0457451 0)
(0.173968 -0.0365223 0)
(0.179549 -0.0129252 0)
(0.177552 -0.0499474 0)
(0.175006 -0.134406 0)
(0.148905 -0.0165453 0)
(0.155847 -0.028392 0)
(0.161578 -0.0381465 0)
(0.165898 -0.045394 0)
(0.168347 -0.0495112 0)
(0.169932 -0.049261 0)
(0.171708 -0.0425453 0)
(0.179018 -0.0233853 0)
(0.190605 -0.0614166 0)
(0.205255 -0.148312 0)
(0.153834 -0.0286785 0)
(0.157813 -0.0381953 0)
(0.160913 -0.0457618 0)
(0.163279 -0.0510072 0)
(0.164755 -0.053342 0)
(0.165744 -0.0521656 0)
(0.167269 -0.0472762 0)
(0.181516 -0.0544718 0)
(0.207905 -0.105002 0)
(0.237435 -0.200749 0)
(0.15326 -0.0344927 0)
(0.154201 -0.0424021 0)
(0.154772 -0.0489165 0)
(0.15546 -0.0537474 0)
(0.156441 -0.0563106 0)
(0.157947 -0.0569643 0)
(0.162845 -0.0609931 0)
(0.211678 -0.113081 0)
(0.252985 -0.171822 0)
(0.285982 -0.270672 0)
(0.147181 -0.0338368 0)
(0.145277 -0.0410495 0)
(0.14349 -0.0478496 0)
(0.142833 -0.0541811 0)
(0.144282 -0.0602723 0)
(0.149551 -0.0719947 0)
(0.179646 -0.14021 0)
(0.276577 -0.232555 0)
(0.316037 -0.238178 0)
(0.342067 -0.318428 0)
(0.136943 -0.0278218 0)
(0.13326 -0.0352589 0)
(0.130239 -0.043433 0)
(0.130024 -0.052531 0)
(0.13426 -0.0696314 0)
(0.154988 -0.134078 0)
(0.212221 -0.307252 0)
(0.253104 -0.350925 0)
(0.290802 -0.34067 0)
(0.37366 -0.426434 0)
(0.124608 -0.0202154 0)
(0.121423 -0.0291777 0)
(0.121035 -0.0391997 0)
(0.126077 -0.0573957 0)
(0.151557 -0.119215 0)
(0.214183 -0.262037 0)
(0.247121 -0.347431 0)
(0.264863 -0.394435 0)
(0.30347 -0.434993 0)
(0.431205 -0.674741 0)
(0.10935 -0.014476 0)
(0.109018 -0.0257789 0)
(0.114114 -0.0460505 0)
(0.138431 -0.110704 0)
(0.202503 -0.23959 0)
(0.250231 -0.341777 0)
(0.284537 -0.408045 0)
(0.31659 -0.48233 0)
(0.381202 -0.623974 0)
(0.438991 -0.749282 0)
(0.0927288 -0.00945321 0)
(0.0977057 -0.031257 0)
(0.128152 -0.105049 0)
(0.19115 -0.23249 0)
(0.248957 -0.34523 0)
(0.286045 -0.416382 0)
(0.317641 -0.483481 0)
(0.36679 -0.585787 0)
(0.412617 -0.707935 0)
(0.440355 -0.784942 0)
(0.0787596 -0.0114752 0)
(0.108927 -0.0955766 0)
(0.17804 -0.257373 0)
(0.229813 -0.34654 0)
(0.256643 -0.413687 0)
(0.287954 -0.479748 0)
(0.334191 -0.572334 0)
(0.382847 -0.681908 0)
(0.418981 -0.766185 0)
(0.442277 -0.824393 0)
(0.0962195 -0.074775 0)
(0.175517 -0.26252 0)
(0.205717 -0.338171 0)
(0.224995 -0.39188 0)
(0.252118 -0.462946 0)
(0.288655 -0.558554 0)
(0.341364 -0.67684 0)
(0.38349 -0.764242 0)
(0.4122 -0.821518 0)
(0.434657 -0.866977 0)
(0.151377 -0.250791 0)
(0.176195 -0.317252 0)
(0.189931 -0.363866 0)
(0.209078 -0.428085 0)
(0.244139 -0.529666 0)
(0.297738 -0.665909 0)
(0.341465 -0.764854 0)
(0.371945 -0.824259 0)
(0.396373 -0.869254 0)
(0.418687 -0.908591 0)
(0.149491 -0.288768 0)
(0.158549 -0.332143 0)
(0.170088 -0.38895 0)
(0.197195 -0.486597 0)
(0.254027 -0.64443 0)
(0.300135 -0.759143 0)
(0.331089 -0.824954 0)
(0.355857 -0.872897 0)
(0.378959 -0.914901 0)
(0.400104 -0.949775 0)
(0.129435 -0.293765 0)
(0.134482 -0.340763 0)
(0.149659 -0.428133 0)
(0.204177 -0.60894 0)
(0.256576 -0.74752 0)
(0.290826 -0.82228 0)
(0.315605 -0.873804 0)
(0.338732 -0.919225 0)
(0.36042 -0.957884 0)
(0.379384 -0.986705 0)
(0.100823 -0.296563 0)
(0.112212 -0.361795 0)
(0.159805 -0.535392 0)
(0.218533 -0.720264 0)
(0.254458 -0.813412 0)
(0.277401 -0.869833 0)
(0.29937 -0.919031 0)
(0.320817 -0.962193 0)
(0.340243 -0.996047 0)
(0.355993 -1.01687 0)
(0.0743253 -0.320882 0)
(0.106842 -0.454895 0)
(0.179011 -0.669525 0)
(0.21555 -0.791568 0)
(0.239174 -0.858013 0)
(0.260442 -0.912747 0)
(0.281625 -0.961378 0)
(0.301459 -1.00123 0)
(0.318286 -1.02835 0)
(0.330418 -1.03911 0)
(0.069228 -0.371106 0)
(0.126779 -0.579539 0)
(0.17249 -0.754327 0)
(0.203979 -0.842416 0)
(0.223718 -0.901971 0)
(0.244537 -0.955274 0)
(0.26461 -1.00127 0)
(0.282331 -1.03566 0)
(0.296169 -1.05402 0)
(0.304681 -1.0533 0)
(0.0926806 -0.456002 0)
(0.150739 -0.681762 0)
(0.178195 -0.810982 0)
(0.19582 -0.881786 0)
(0.213069 -0.94048 0)
(0.23148 -0.993318 0)
(0.249133 -1.03635 0)
(0.264237 -1.0643 0)
(0.275117 -1.07302 0)
(0.28053 -1.06071 0)
(0.101412 -0.556353 0)
(0.140683 -0.751417 0)
(0.167668 -0.850736 0)
(0.182752 -0.916124 0)
(0.199889 -0.97572 0)
(0.217486 -1.02805 0)
(0.233694 -1.06736 0)
(0.246869 -1.08811 0)
(0.255642 -1.08714 0)
(0.259353 -1.06441 0)
(0.126941 -0.649385 0)
(0.146153 -0.79692 0)
(0.161251 -0.879538 0)
(0.174281 -0.946691 0)
(0.189468 -1.00823 0)
(0.205151 -1.05968 0)
(0.219408 -1.09456 0)
(0.230469 -1.10766 0)
(0.237088 -1.09723 0)
(0.238848 -1.06522 0)
(0.117494 -0.705435 0)
(0.137571 -0.829272 0)
(0.148379 -0.905886 0)
(0.161819 -0.975751 0)
(0.176998 -1.03882 0)
(0.192027 -1.08877 0)
(0.205178 -1.11859 0)
(0.214864 -1.12378 0)
(0.220149 -1.10425 0)
(0.220943 -1.06387 0)
(0.106009 -0.745189 0)
(0.125873 -0.852136 0)
(0.137063 -0.931582 0)
(0.15038 -1.00445 0)
(0.165081 -1.06824 0)
(0.179362 -1.11593 0)
(0.191465 -1.14018 0)
(0.199961 -1.13744 0)
(0.204268 -1.1095 0)
(0.20457 -1.06206 0)
(0.106821 -0.774751 0)
(0.117458 -0.871868 0)
(0.126829 -0.954191 0)
(0.138797 -1.03024 0)
(0.152461 -1.09525 0)
(0.165893 -1.14081 0)
(0.177053 -1.15939 0)
(0.184585 -1.14894 0)
(0.188197 -1.1133 0)
(0.188153 -1.05965 0)
(0.0799688 -0.79483 0)
(0.0920054 -0.890614 0)
(0.105647 -0.978183 0)
(0.120675 -1.05789 0)
(0.136006 -1.12346 0)
(0.150055 -1.16578 0)
(0.161153 -1.17783 0)
(0.168423 -1.15959 0)
(0.171997 -1.11673 0)
(0.172156 -1.05694 0)
(0.0504941 -0.822546 0)
(0.0675346 -0.92211 0)
(0.0860549 -1.01193 0)
(0.103734 -1.09143 0)
(0.120153 -1.15455 0)
(0.134431 -1.1917 0)
(0.145413 -1.19646 0)
(0.152753 -1.17081 0)
(0.156959 -1.12164 0)
(0.158286 -1.05593 0)
(0.0336274 -0.862794 0)
(0.0534671 -0.961779 0)
(0.0735497 -1.0495 0)
(0.091059 -1.126 0)
(0.106681 -1.18527 0)
(0.120073 -1.21684 0)
(0.13041 -1.2147 0)
(0.137746 -1.18301 0)
(0.142984 -1.12941 0)
(0.146584 -1.05942 0)
(0.0287416 -0.905765 0)
(0.0475399 -1.00113 0)
(0.0662307 -1.08496 0)
(0.0818129 -1.15764 0)
(0.0954357 -1.21308 0)
(0.107059 -1.23954 0)
(0.116049 -1.23142 0)
(0.122676 -1.19513 0)
(0.127983 -1.1388 0)
(0.13234 -1.06631 0)
(0.0319455 -0.942373 0)
(0.0473436 -1.0351 0)
(0.0627063 -1.115 0)
(0.0753309 -1.18402 0)
(0.0862815 -1.23625 0)
(0.0955453 -1.2585 0)
(0.10277 -1.24561 0)
(0.108403 -1.20627 0)
(0.113507 -1.14855 0)
(0.118289 -1.07496 0)
(0.0373201 -0.969172 0)
(0.0494025 -1.06093 0)
(0.0607037 -1.13771 0)
(0.0699263 -1.20383 0)
(0.0779945 -1.25375 0)
(0.0846048 -1.2729 0)
(0.0898747 -1.25682 0)
(0.0944446 -1.21622 0)
(0.0993556 -1.15883 0)
(0.104634 -1.08599 0)
(0.039008 -0.989696 0)
(0.0488506 -1.07908 0)
(0.0569447 -1.15357 0)
(0.0634163 -1.21766 0)
(0.0689951 -1.26576 0)
(0.0730007 -1.28254 0)
(0.0762897 -1.26471 0)
(0.0796086 -1.22436 0)
(0.083766 -1.16857 0)
(0.0886813 -1.09815 0)
(0.0346106 -1.00545 0)
(0.0429804 -1.09217 0)
(0.0495137 -1.16533 0)
(0.0546553 -1.22776 0)
(0.0586415 -1.27353 0)
(0.0604875 -1.288 0)
(0.0621511 -1.26953 0)
(0.0643581 -1.2303 0)
(0.0675335 -1.17653 0)
(0.0717924 -1.109 0)
(0.0250471 -1.01939 0)
(0.0328275 -1.10409 0)
(0.0392741 -1.17612 0)
(0.0443828 -1.23642 0)
(0.0476567 -1.27833 0)
(0.0479612 -1.29017 0)
(0.0486085 -1.27214 0)
(0.0502194 -1.23459 0)
(0.0529081 -1.1828 0)
(0.0571319 -1.11802 0)
(0.0136369 -1.03291 0)
(0.0218193 -1.1162 0)
(0.0287568 -1.18712 0)
(0.0343074 -1.24464 0)
(0.0372882 -1.28095 0)
(0.0366016 -1.29007 0)
(0.0368126 -1.27366 0)
(0.0384144 -1.23826 0)
(0.0415788 -1.18825 0)
(0.0469718 -1.12472 0)
(0.00169185 -1.0429 0)
(0.0110976 -1.12823 0)
(0.0188472 -1.19903 0)
(0.0249346 -1.25344 0)
(0.0279365 -1.28279 0)
(0.0269881 -1.28958 0)
(0.0275029 -1.27606 0)
(0.0297894 -1.24347 0)
(0.0345079 -1.19571 0)
(0.0418446 -1.13204 0)
(-0.0145208 -1.05626 0)
(-0.00225697 -1.14525 0)
(0.00842994 -1.21487 0)
(0.0157619 -1.26449 0)
(0.0193328 -1.28562 0)
(0.0187873 -1.29058 0)
(0.0203113 -1.28114 0)
(0.0239836 -1.25267 0)
(0.0312035 -1.20999 0)
(0.0408574 -1.14935 0)
(-0.025207 -1.08239 0)
(-0.0113418 -1.17004 0)
(0.00147882 -1.23443 0)
(0.00895411 -1.27665 0)
(0.0123345 -1.2889 0)
(0.0114063 -1.29226 0)
(0.0130764 -1.28719 0)
(0.0164864 -1.26338 0)
(0.0233334 -1.22804 0)
(0.0318077 -1.17619 0)
(-0.0210876 -1.11233 0)
(-0.0105007 -1.1953 0)
(0.00026468 -1.2526 0)
(0.00569956 -1.28642 0)
(0.00789719 -1.29048 0)
(0.00554247 -1.29224 0)
(0.00623739 -1.29056 0)
(0.00755181 -1.26979 0)
(0.0111087 -1.24064 0)
(0.0146607 -1.19982 0)
(-0.0128225 -1.14409 0)
(-0.0058812 -1.21713 0)
(0.00244636 -1.26634 0)
(0.00551988 -1.29143 0)
(0.00656483 -1.28885 0)
(0.00240925 -1.28935 0)
(0.00203846 -1.2903 0)
(0.00137461 -1.27072 0)
(0.00169584 -1.24428 0)
(-0.000103797 -1.21389 0)
(0.00495389 -1.16873 0)
(0.0058821 -1.22858 0)
(0.00968862 -1.27217 0)
(0.00836073 -1.28986 0)
(0.0075965 -1.28322 0)
(0.00107993 -1.28351 0)
(-4.17051e-05 -1.28737 0)
(-0.00161877 -1.269 0)
(-0.00263954 -1.24218 0)
(-0.00740608 -1.22133 0)
(0.0196217 -1.18262 0)
(0.0147076 -1.22566 0)
(0.0147992 -1.27126 0)
(0.00928256 -1.28314 0)
(0.00787002 -1.27476 0)
(-0.000706877 -1.27545 0)
(-0.00226171 -1.28225 0)
(-0.00532876 -1.26628 0)
(-0.00754271 -1.2351 0)
(-0.0127696 -1.21681 0)
(0.0123451 -1.17423 0)
(0.00921688 -1.21901 0)
(0.0138498 -1.27191 0)
(0.00684651 -1.27506 0)
(0.00709739 -1.2655 0)
(-0.00272215 -1.2662 0)
(-0.00394286 -1.27539 0)
(-0.00880601 -1.26442 0)
(-0.00941947 -1.22474 0)
(-0.0132439 -1.19934 0)
(0.00700071 -1.15141 0)
(0.00634559 -1.2182 0)
(0.0172541 -1.27503 0)
(0.00541545 -1.26527 0)
(0.00702775 -1.25526 0)
(-0.00448096 -1.25568 0)
(-0.00480029 -1.26631 0)
(-0.0125883 -1.26562 0)
(-0.0068596 -1.21654 0)
(-0.00795197 -1.17234 0)
(0.00217395 -1.10849 0)
(-0.000268984 -1.22457 0)
(0.0227317 -1.27621 0)
(0.00409403 -1.252 0)
(0.00723886 -1.2436 0)
(-0.00598999 -1.24376 0)
(-0.00470544 -1.25321 0)
(-0.0186377 -1.26878 0)
(-0.000229048 -1.21728 0)
(-0.00173019 -1.13125 0)
(0.0108079 -1.03893 0)
(-0.0123324 -1.25668 0)
(0.0272176 -1.27483 0)
(0.000896545 -1.23721 0)
(0.00669032 -1.23231 0)
(-0.00583049 -1.23232 0)
(-0.000925548 -1.23761 0)
(-0.0244849 -1.2712 0)
(0.0124258 -1.24804 0)
(-0.0081282 -1.0603 0)
(0.0663564 0.00162581 0)
(0.0648745 0.00163912 0)
(0.0633632 0.00164771 0)
(0.0618266 0.00165462 0)
(0.0602671 0.00166432 0)
(0.0586832 0.00168142 0)
(0.0570702 0.00170917 0)
(0.0554209 0.00174986 0)
(0.0537267 0.00180417 0)
(0.0519791 0.00186847 0)
(0.0501717 0.00193848 0)
(0.0483004 0.00201061 0)
(0.0463644 0.00207716 0)
(0.0443685 0.00212894 0)
(0.0423243 0.00215571 0)
(0.0402501 0.00214879 0)
(0.0381702 0.00210365 0)
(0.0361108 0.00202067 0)
(0.0340972 0.00190443 0)
(0.0321506 0.00176653 0)
(0.0302772 0.0016437 0)
(0.028454 0.00159573 0)
(0.0266282 0.0016473 0)
(0.0247706 0.00170688 0)
(0.0228952 0.00171813 0)
(0.0210205 0.00172116 0)
(0.0191611 0.00169924 0)
(0.017365 0.00162787 0)
(0.0155586 0.00177822 0)
(0.0136939 0.00217113 0)
(0.0117594 0.00245781 0)
(0.00963384 0.00271177 0)
(0.00726499 0.00291861 0)
(0.00460645 0.00294603 0)
(0.00201443 0.00261207 0)
(-0.000130837 0.0018474 0)
(-0.00161876 0.000878769 0)
(-0.00221133 -0.000145866 0)
(-0.00195707 -0.00101716 0)
(-0.00105612 -0.00154271 0)
(0.0700393 0.00372723 0)
(0.0688193 0.00384024 0)
(0.0675429 0.00393608 0)
(0.0662182 0.00401967 0)
(0.0648509 0.00409883 0)
(0.0634444 0.00418114 0)
(0.0620002 0.00427358 0)
(0.0605178 0.00438141 0)
(0.0589949 0.00450829 0)
(0.0574272 0.00465363 0)
(0.055809 0.00481397 0)
(0.054135 0.00498417 0)
(0.0524007 0.00515395 0)
(0.0506033 0.00531044 0)
(0.0487421 0.0054386 0)
(0.0468197 0.00552299 0)
(0.0448426 0.00555268 0)
(0.04282 0.00552475 0)
(0.0407607 0.00544602 0)
(0.0386716 0.00533534 0)
(0.0365593 0.00522803 0)
(0.0344371 0.00517466 0)
(0.0323178 0.00519601 0)
(0.0301971 0.00523251 0)
(0.0280662 0.00524669 0)
(0.025936 0.00520432 0)
(0.023816 0.00513869 0)
(0.0217054 0.00505984 0)
(0.0196275 0.00501568 0)
(0.0176073 0.00506853 0)
(0.0156346 0.00531172 0)
(0.0136146 0.00578824 0)
(0.0114165 0.00639498 0)