/*--------------------------------*- C++ -*----------------------------------*\
  =========                 |
  \\      /  F ield         | OpenFOAM: The Open Source CFD Toolbox
   \\    /   O peration     | Website:  https://openfoam.org
    \\  /    A nd           | Version:  8
     \\/     M anipulation  |
\*---------------------------------------------------------------------------*/
FoamFile
{
    version     2.0;
    format      ascii;
    class       surfaceScalarField;
    location    "4.95";
    object      alphaPhi0.water;
}
// * * * * * * * * * * * * * * * * * * * * * * * * * * * * * * * * * * * * * //

dimensions      [0 3 -1 0 0 0 0];

internalField   nonuniform List<scalar> 
18095
(
1.58477e-07
-9.65385e-07
8.06908e-07
1.65392e-07
-1.24831e-06
1.24139e-06
1.22201e-07
-1.24229e-06
1.28548e-06
6.53325e-08
-1.26349e-06
1.32036e-06
3.04971e-11
-1.28049e-06
1.34579e-06
-6.52768e-08
-1.28049e-06
1.3458e-06
-1.22159e-07
-1.2635e-06
1.32039e-06
-1.65364e-07
-1.24231e-06
1.28551e-06
-1.58466e-07
-1.24832e-06
1.24142e-06
-9.65419e-07
8.06953e-07
1.11055e-07
-1.07644e-06
9.94356e-08
-1.23669e-06
7.28646e-08
-1.21572e-06
4.00456e-08
-1.23067e-06
2.06241e-11
-1.24046e-06
-4.00074e-08
-1.24046e-06
-7.28341e-08
-1.23068e-06
-9.94129e-08
-1.21573e-06
-1.11043e-07
-1.23669e-06
-1.07646e-06
6.72077e-08
-1.14365e-06
5.27766e-08
-1.22226e-06
4.21468e-08
-1.20509e-06
2.38696e-08
-1.21239e-06
1.34599e-11
-1.2166e-06
-2.38444e-08
-1.21661e-06
-4.21264e-08
-1.2124e-06
-5.27611e-08
-1.2051e-06
-6.71968e-08
-1.22226e-06
-1.14366e-06
3.96648e-08
-1.18331e-06
2.66324e-08
-1.20922e-06
2.20148e-08
-1.20047e-06
1.2531e-08
-1.20291e-06
7.89683e-12
-1.20408e-06
-1.25162e-08
-1.20408e-06
-2.20026e-08
-1.20291e-06
-2.66233e-08
-1.20047e-06
-3.96573e-08
-1.20922e-06
-1.18332e-06
1.66875e-08
7.46476e-09
6.99179e-09
4.08368e-09
2.79423e-12
-4.07841e-09
-6.98753e-09
-7.46183e-09
-1.66843e-08
-1.74817e-07
-1.16378e-06
1.33859e-06
-2.18916e-07
-1.21637e-06
1.26047e-06
-1.64961e-07
-1.21283e-06
1.15887e-06
-8.68559e-08
-1.20401e-06
1.12591e-06
3.37255e-10
-1.20251e-06
1.11532e-06
8.75147e-08
-1.20256e-06
1.11538e-06
1.65554e-07
-1.20415e-06
1.12611e-06
2.19455e-07
-1.21303e-06
1.15913e-06
1.753e-07
-1.21665e-06
1.26081e-06
-1.1641e-06
1.3394e-06
-9.29259e-08
-1.07085e-06
-9.55269e-08
-1.21377e-06
-7.91186e-08
-1.22924e-06
-4.40513e-08
-1.23908e-06
1.8999e-10
-1.24675e-06
4.44157e-08
-1.24679e-06
7.94432e-08
-1.23918e-06
9.57909e-08
-1.22938e-06
9.30757e-08
-1.21394e-06
-1.07102e-06
-5.79517e-08
-1.0129e-06
-5.51219e-08
-1.2166e-06
-4.64482e-08
-1.23791e-06
-2.70399e-08
-1.25849e-06
1.14222e-10
-1.27391e-06
2.72574e-08
-1.27393e-06
4.66343e-08
-1.25856e-06
5.52573e-08
-1.238e-06
5.80176e-08
-1.2167e-06
-1.01301e-06
-7.48082e-08
-9.38092e-07
-6.19643e-08
-1.22945e-06
-4.85606e-08
-1.25132e-06
-2.77304e-08
-1.27932e-06
7.07814e-11
-1.30171e-06
2.78642e-08
-1.30172e-06
4.86718e-08
-1.27936e-06
6.20395e-08
-1.25137e-06
7.48434e-08
-1.2295e-06
-9.38162e-07
-1.31184e-07
-1.1924e-07
-8.50729e-08
-4.40343e-08
4.58355e-11
4.41204e-08
8.51435e-08
1.19288e-07
1.31209e-07
-3.20187e-08
-9.24524e-07
9.56543e-07
1.12939e-08
-1.34104e-06
1.29772e-06
1.41828e-08
-1.27615e-06
1.27327e-06
8.54421e-09
-1.22759e-06
1.23323e-06
3.25954e-09
-1.22459e-06
1.22987e-06
-2.10897e-09
-1.22511e-06
1.23048e-06
-8.38278e-09
-1.22764e-06
1.23392e-06
-4.21878e-09
-1.27556e-06
1.27139e-06
4.28866e-08
-1.34299e-06
1.29589e-06
-9.34809e-07
9.77696e-07
1.67535e-08
-9.41278e-07
2.33525e-08
-1.34763e-06
1.56001e-08
-1.2684e-06
9.19848e-09
-1.22119e-06
2.43295e-09
-1.21782e-06
-4.42254e-09
-1.21826e-06
-1.10881e-08
-1.22098e-06
-1.75982e-08
-1.26905e-06
-1.21877e-08
-1.34841e-06
-9.46997e-07
3.04373e-08
-9.71715e-07
2.1568e-08
-1.33877e-06
1.26747e-08
-1.25951e-06
7.71915e-09
-1.21623e-06
1.40419e-09
-1.21151e-06
-5.28276e-09
-1.21157e-06
-9.91326e-09
-1.21635e-06
-1.90427e-08
-1.25992e-06
-2.80411e-08
-1.33941e-06
-9.75038e-07
8.07087e-08
-1.05242e-06
5.43949e-08
-1.31245e-06
3.51785e-08
-1.24029e-06
2.19254e-08
-1.20298e-06
8.85373e-10
-1.19047e-06
-2.01531e-08
-1.19053e-06
-3.31997e-08
-1.2033e-06
-5.24165e-08
-1.2407e-06
-7.90626e-08
-1.31276e-06
-1.0541e-06
2.86171e-07
2.34193e-07
1.52776e-07
7.57057e-08
5.55865e-10
-7.45918e-08
-1.51778e-07
-2.33346e-07
-2.85298e-07
1.31227e-08
4.48232e-09
-1.7605e-08
8.61828e-09
4.5047e-09
4.0911e-09
4.5272e-09
-4.5942e-10
4.55055e-09
-5.03474e-09
4.57536e-09
-9.63748e-09
4.6028e-09
-1.42686e-08
4.63133e-09
-1.89268e-08
4.65816e-09
-2.36125e-08
4.68563e-09
4.70667e-09
-2.83192e-08
1.07921e-08
9.49891e-09
-1.58086e-08
5.699e-09
9.59803e-09
5.40141e-10
9.68612e-09
-4.67471e-09
9.76547e-09
-9.93571e-09
9.83645e-09
-1.52349e-08
9.90222e-09
-2.05658e-08
9.96227e-09
-2.59242e-08
1.00166e-08
-3.13019e-08
1.00634e-08
1.01032e-08
-3.66983e-08
4.50452e-09
1.42848e-08
-9.2904e-09
-3.69035e-10
1.44717e-08
-5.32053e-09
1.46377e-08
-1.0341e-08
1.47859e-08
-1.54231e-08
1.49186e-08
-2.05592e-08
1.50385e-08
-2.57441e-08
1.5147e-08
-3.09719e-08
1.52443e-08
-3.62391e-08
1.53307e-08
1.5406e-08
-4.15419e-08
-1.95542e-09
1.88041e-08
-2.56384e-09
-6.56443e-09
1.9081e-08
-1.12582e-08
1.93315e-08
-1.60318e-08
1.95595e-08
-2.08815e-08
1.97684e-08
-2.58042e-08
1.99613e-08
-3.07973e-08
2.014e-08
-3.58592e-08
2.03059e-08
-4.09888e-08
2.04603e-08
2.06022e-08
-4.6185e-08
-8.26264e-09
2.30821e-08
3.98473e-09
-1.26336e-08
2.34522e-08
-1.70976e-08
2.37956e-08
-2.16548e-08
2.41168e-08
-2.63065e-08
2.44201e-08
-3.10542e-08
2.4709e-08
-3.59006e-08
2.49862e-08
-4.08486e-08
2.52539e-08
-4.59011e-08
2.55128e-08
2.57618e-08
-5.10607e-08
-1.44991e-08
2.71536e-08
1.04277e-08
-1.86713e-08
2.76246e-08
-2.2949e-08
2.80733e-08
-2.73374e-08
2.85053e-08
-3.18429e-08
2.89256e-08
-3.64723e-08
2.93384e-08
-4.1233e-08
2.9747e-08
-4.61327e-08
3.01537e-08
-5.11789e-08
3.05591e-08
3.09617e-08
-5.63788e-08
-2.07971e-08
3.10588e-08
1.68919e-08
-2.48151e-08
3.16427e-08
-2.89548e-08
3.22131e-08
-3.32265e-08
3.2777e-08
-3.76411e-08
3.33403e-08
-4.22101e-08
3.39075e-08
-4.69452e-08
3.44823e-08
-5.18585e-08
3.50672e-08
-5.69619e-08
3.56626e-08
3.62663e-08
-6.22665e-08
-2.7291e-08
3.48408e-08
2.3509e-08
-3.11999e-08
3.55518e-08
-3.52492e-08
3.62626e-08
-3.9453e-08
3.69811e-08
-4.38258e-08
3.77133e-08
-4.83829e-08
3.84646e-08
-5.31398e-08
3.92393e-08
-5.81118e-08
4.00393e-08
-6.33137e-08
4.08643e-08
4.17122e-08
-6.87597e-08
-3.41005e-08
3.85403e-08
3.0401e-08
-3.79412e-08
3.93932e-08
-4.19403e-08
4.0262e-08
-4.61138e-08
4.11547e-08
-5.04796e-08
4.20792e-08
-5.50559e-08
4.30409e-08
-5.98605e-08
4.40438e-08
-6.49104e-08
4.5089e-08
-7.02216e-08
4.61754e-08
4.72994e-08
-7.58089e-08
-4.13201e-08
4.21914e-08
3.76691e-08
-4.51238e-08
4.31976e-08
-4.90987e-08
4.4237e-08
-5.32635e-08
4.53195e-08
-5.76378e-08
4.64534e-08
-6.22416e-08
4.76446e-08
-6.7094e-08
4.8896e-08
-7.22127e-08
5.02075e-08
-7.76126e-08
5.15753e-08
5.29923e-08
-8.33055e-08
-4.90134e-08
4.58184e-08
4.53866e-08
-5.27979e-08
4.69825e-08
-5.67591e-08
4.81982e-08
-6.09171e-08
4.94774e-08
-6.5293e-08
5.08292e-08
-6.99083e-08
5.22599e-08
-7.4784e-08
5.37716e-08
-7.99375e-08
5.5361e-08
-8.53814e-08
5.70192e-08
5.87319e-08
-9.1121e-08
-5.72136e-08
4.94349e-08
5.35973e-08
-6.09836e-08
5.07524e-08
-6.49255e-08
5.21401e-08
-6.90602e-08
5.3612e-08
-7.34103e-08
5.51792e-08
-7.79992e-08
5.68489e-08
-8.28502e-08
5.86226e-08
-8.7983e-08
6.0494e-08
-9.34085e-08
6.24449e-08
6.44446e-08
-9.9121e-08
-6.59334e-08
5.30487e-08
6.23195e-08
-6.96861e-08
5.45051e-08
-7.35947e-08
5.60487e-08
-7.76797e-08
5.7697e-08
-8.1964e-08
5.94637e-08
-8.64722e-08
6.13572e-08
-9.12316e-08
6.33823e-08
-9.62702e-08
6.55327e-08
-1.01603e-07
6.77777e-08
7.0058e-08
-1.07216e-07
-7.51812e-08
5.66735e-08
7.15564e-08
-7.89219e-08
5.82459e-08
-8.27928e-08
5.99197e-08
-8.68119e-08
6.17156e-08
-9.09991e-08
6.36512e-08
-9.53771e-08
6.57354e-08
-9.99694e-08
6.79749e-08
-1.04825e-07
7.0385e-08
-1.09989e-07
7.29364e-08
7.55385e-08
-1.15469e-07
-8.49683e-08
6.03447e-08
8.12971e-08
-8.87319e-08
6.20096e-08
-9.2598e-08
6.37859e-08
-9.65637e-08
6.56969e-08
-1.00669e-07
6.77485e-08
-1.04925e-07
6.99654e-08
-1.09354e-07
7.23801e-08
-1.13998e-07
7.50239e-08
-1.18928e-07
7.78621e-08
8.08173e-08
-1.24207e-07
-9.52931e-08
6.41324e-08
9.15055e-08
-9.91624e-08
6.58789e-08
-1.03078e-07
6.77435e-08
-1.07141e-07
6.97312e-08
-1.11329e-07
7.1907e-08
-1.15655e-07
7.42538e-08
-1.20113e-07
7.68341e-08
-1.24712e-07
7.96177e-08
-1.29245e-07
8.23896e-08
8.38908e-08
-1.31844e-07
-1.0602e-07
6.81091e-08
1.02043e-07
-1.10078e-07
6.99365e-08
-1.14217e-07
7.19053e-08
-1.18479e-07
7.40239e-08
-1.22915e-07
7.63175e-08
-1.27517e-07
7.8837e-08
-1.31967e-07
8.12789e-08
-1.35225e-07
8.28628e-08
-1.37514e-07
8.39365e-08
8.34297e-08
-1.37174e-07
-1.16905e-07
7.23314e-08
1.12683e-07
-1.21201e-07
7.42321e-08
-1.25603e-07
7.63072e-08
-1.30109e-07
7.85301e-08
-1.34352e-07
8.05615e-08
-1.37749e-07
8.18433e-08
-1.39239e-07
8.23079e-08
-1.39307e-07
8.25807e-08
-1.39955e-07
8.42336e-08
8.51064e-08
-1.41985e-07
-1.277e-07
7.68604e-08
1.23171e-07
-1.32288e-07
7.88207e-08
-1.36913e-07
8.09328e-08
-1.40807e-07
8.24245e-08
-1.41416e-07
8.24791e-08
-1.42685e-07
8.28251e-08
-1.44796e-07
8.40874e-08
-1.47181e-07
8.46115e-08
-1.49458e-07
8.61689e-08
9.04617e-08
-1.56421e-07
-1.37976e-07
8.17242e-08
1.33113e-07
-1.42781e-07
8.36261e-08
-1.46074e-07
8.49394e-08
-1.44769e-07
8.4081e-08
-1.47257e-07
8.46813e-08
-1.50481e-07
8.57629e-08
-1.53231e-07
8.65493e-08
-1.59474e-07
8.87974e-08
-1.64139e-07
9.08063e-08
9.05378e-08
-1.64187e-07
-1.47076e-07
8.689e-08
1.41911e-07
-1.51622e-07
8.83876e-08
-1.47948e-07
8.6298e-08
-1.50543e-07
8.63802e-08
-1.53496e-07
8.73472e-08
-1.56805e-07
8.87865e-08
-1.64849e-07
9.10473e-08
-1.68505e-07
9.2453e-08
-1.69461e-07
9.1763e-08
9.09048e-08
-1.69819e-07
-1.54442e-07
9.24055e-08
1.48929e-07
-1.57955e-07
9.32457e-08
-1.53977e-07
9.11091e-08
-1.56692e-07
8.90938e-08
-1.59382e-07
8.97602e-08
-1.67918e-07
9.30432e-08
-1.71573e-07
9.47001e-08
-1.73084e-07
9.39631e-08
-1.74355e-07
9.30346e-08
9.19406e-08
-1.75389e-07
-1.58118e-07
9.74088e-08
1.53114e-07
-1.63699e-07
9.75746e-08
-1.60225e-07
9.7763e-08
-1.58932e-07
9.31825e-08
-1.67666e-07
9.42756e-08
-1.73835e-07
9.68699e-08
-1.75597e-07
9.64618e-08
-1.77362e-07
9.57277e-08
-1.79203e-07
9.48761e-08
9.38612e-08
-1.81124e-07
-1.59598e-07
9.77286e-08
1.4858e-07
-1.65153e-07
1.02277e-07
-1.67439e-07
1.01269e-07
-1.69829e-07
1.00323e-07
-1.73664e-07
9.95954e-08
-1.75792e-07
9.89984e-08
-1.77803e-07
9.84721e-08
-1.80016e-07
9.79404e-08
-1.82515e-07
9.73753e-08
9.67213e-08
-1.85374e-07
-1.57625e-07
1.0351e-07
1.36932e-07
-1.62248e-07
1.06867e-07
-1.65897e-07
1.04934e-07
-1.69077e-07
1.03506e-07
-1.71925e-07
1.02448e-07
-1.74608e-07
1.01681e-07
-1.77278e-07
1.01142e-07
-1.80118e-07
1.00781e-07
-1.83288e-07
1.00545e-07
1.00378e-07
-1.86945e-07
-1.53774e-07
1.08111e-07
1.37386e-07
-1.57973e-07
1.11065e-07
-1.61859e-07
1.0882e-07
-1.65432e-07
1.07078e-07
-1.68773e-07
1.05789e-07
-1.7199e-07
1.04898e-07
-1.75207e-07
1.04359e-07
-1.78559e-07
1.04133e-07
-1.82205e-07
1.04191e-07
1.04512e-07
-1.86339e-07
-1.51588e-07
1.13094e-07
1.36151e-07
-1.55012e-07
1.14488e-07
-1.58579e-07
1.12387e-07
-1.62184e-07
1.10683e-07
-1.65792e-07
1.09397e-07
-1.69419e-07
1.08525e-07
-1.73113e-07
1.08053e-07
-1.76952e-07
1.0797e-07
-1.81038e-07
1.08277e-07
1.08986e-07
-1.8551e-07
-1.49098e-07
1.17058e-07
1.33021e-07
-1.52122e-07
1.17512e-07
-1.55524e-07
1.15789e-07
-1.59225e-07
1.14384e-07
-1.63155e-07
1.13327e-07
-1.67279e-07
1.12648e-07
-1.71595e-07
1.12368e-07
-1.76123e-07
1.12498e-07
-1.80915e-07
1.13069e-07
1.14176e-07
-1.86104e-07
-1.4209e-07
1.23704e-07
1.35443e-07
-1.4639e-07
1.21812e-07
-1.50792e-07
1.20191e-07
-1.55362e-07
1.18954e-07
-1.60134e-07
1.18099e-07
-1.65141e-07
1.17654e-07
-1.70418e-07
1.17644e-07
-1.75932e-07
1.18012e-07
-1.81894e-07
1.18888e-07
1.20483e-07
-1.88181e-07
-1.36219e-07
1.28116e-07
1.31807e-07
-1.40896e-07
1.2649e-07
-1.45891e-07
1.25185e-07
-1.51169e-07
1.24231e-07
-1.56724e-07
1.23654e-07
-1.6253e-07
1.23459e-07
-1.6785e-07
1.22979e-07
-1.74543e-07
1.2337e-07
-1.82131e-07
1.25609e-07
1.27662e-07
-1.89303e-07
-1.2996e-07
1.32428e-07
1.25648e-07
-1.3494e-07
1.31471e-07
-1.40437e-07
1.30682e-07
-1.46347e-07
1.30141e-07
-1.52601e-07
1.29909e-07
-1.5856e-07
1.29662e-07
-1.64791e-07
1.29454e-07
-1.71931e-07
1.30459e-07
-1.80561e-07
1.32047e-07
1.35344e-07
-1.88235e-07
-1.21935e-07
1.37477e-07
1.16886e-07
-1.27621e-07
1.37157e-07
-1.33795e-07
1.36856e-07
-1.40348e-07
1.36694e-07
-1.47144e-07
1.36751e-07
-1.52943e-07
1.36227e-07
-1.60117e-07
1.3663e-07
-1.67468e-07
1.37796e-07
-1.76007e-07
1.39418e-07
1.43087e-07
-1.84611e-07
-1.13352e-07
1.31918e-07
9.62828e-08
-1.19644e-07
1.43449e-07
-1.26353e-07
1.43566e-07
-1.33403e-07
1.43745e-07
-1.40548e-07
1.44045e-07
-1.46691e-07
1.43846e-07
-1.54172e-07
1.4411e-07
-1.61694e-07
1.45317e-07
-1.69326e-07
1.47036e-07
1.49993e-07
-1.78572e-07
-9.67219e-08
1.32249e-07
8.8427e-08
-1.10895e-07
1.47187e-07
-1.18029e-07
1.50698e-07
-1.25517e-07
1.51233e-07
-1.33187e-07
1.51738e-07
-1.39488e-07
1.52097e-07
-1.47089e-07
1.51714e-07
-1.54579e-07
1.52808e-07
-1.62088e-07
1.54544e-07
1.57423e-07
-1.70876e-07
-8.69544e-08
1.40678e-07
7.83041e-08
-1.01194e-07
1.52987e-07
-1.08989e-07
1.58493e-07
-1.1697e-07
1.59214e-07
-1.24973e-07
1.59753e-07
-1.32683e-07
1.60278e-07
-1.39168e-07
1.6043e-07
-1.466e-07
1.60239e-07
-1.5416e-07
1.621e-07
1.65055e-07
-1.62474e-07
-7.9393e-08
1.56452e-07
7.07534e-08
-9.24178e-08
1.64123e-07
-1.00411e-07
1.66485e-07
-1.0856e-07
1.67363e-07
-1.16641e-07
1.67836e-07
-1.2452e-07
1.68162e-07
-1.31634e-07
1.68535e-07
-1.3826e-07
1.68962e-07
-1.46353e-07
1.70232e-07
1.72083e-07
-1.53381e-07
-7.38376e-08
1.69819e-07
6.55724e-08
-8.26442e-08
1.73352e-07
-9.13028e-08
1.75143e-07
-9.97723e-08
1.75832e-07
-1.07902e-07
1.75966e-07
-1.15605e-07
1.75883e-07
-1.22882e-07
1.75875e-07
-1.29712e-07
1.76083e-07
-1.36066e-07
1.76687e-07
1.7783e-07
-1.41812e-07
-6.30309e-08
1.78999e-07
5.38193e-08
-7.29065e-08
1.83227e-07
-8.22248e-08
1.8446e-07
-9.07727e-08
1.8438e-07
-9.86992e-08
1.83896e-07
-1.06085e-07
1.83285e-07
-1.12953e-07
1.82737e-07
-1.19257e-07
1.82387e-07
-1.24941e-07
1.82372e-07
1.82809e-07
-1.2992e-07
-5.17464e-08
1.91409e-07
3.93361e-08
-6.30374e-08
1.94518e-07
-7.22223e-08
1.93645e-07
-8.03622e-08
1.9252e-07
-8.78767e-08
1.91412e-07
-9.49415e-08
1.90355e-07
-1.01522e-07
1.89318e-07
-1.0757e-07
1.88435e-07
-1.13032e-07
1.87835e-07
1.87627e-07
-1.17849e-07
-2.22679e-08
1.19609e-07
1.63068e-08
-4.59342e-08
1.34007e-07
-5.54331e-08
2.03144e-07
-6.37842e-08
2.00871e-07
-7.20499e-08
1.99678e-07
-7.97702e-08
1.98075e-07
-8.68049e-08
1.96353e-07
-9.31296e-08
1.9476e-07
-9.87889e-08
1.93494e-07
1.92662e-07
-1.03825e-07
-5.93131e-09
1.17932e-07
6.77295e-09
-1.05729e-08
1.2358e-07
-2.57261e-08
1.27599e-07
-4.23149e-08
1.70068e-07
-5.28224e-08
2.08022e-07
-6.17298e-08
2.06982e-07
-6.9339e-08
2.03962e-07
-7.58435e-08
2.01264e-07
-8.14945e-08
1.99145e-07
1.97675e-07
-8.65076e-08
-5.38417e-09
1.1425e-07
8.4105e-09
-4.83254e-09
1.22591e-07
-7.07075e-09
1.27595e-07
-1.31891e-08
1.2834e-07
-2.99718e-08
1.29182e-07
-4.40069e-08
1.85174e-07
-5.07457e-08
2.10701e-07
-5.63678e-08
2.06886e-07
-6.13005e-08
2.04078e-07
2.02141e-07
-6.5766e-08
-6.34571e-09
1.38584e-07
1.44107e-08
-3.85364e-09
1.1996e-07
-3.63102e-09
1.26857e-07
-5.29413e-09
1.29488e-07
-7.51094e-09
1.30894e-07
-1.73216e-08
1.34503e-07
-2.91061e-08
1.88164e-07
-3.39219e-08
2.11702e-07
-3.8416e-08
2.08572e-07
2.06412e-07
-4.26872e-08
-1.04253e-08
1.75783e-07
1.75897e-08
-3.90514e-09
1.3828e-07
-1.09156e-09
1.23529e-07
2.90079e-10
1.27744e-07
2.09342e-10
1.30783e-07
-1.32646e-09
1.35533e-07
-5.46169e-09
1.71652e-07
-1.05791e-08
2.15172e-07
-1.51888e-08
2.1318e-07
2.10985e-07
-1.97617e-08
-4.32291e-09
1.71769e-07
7.49799e-09
5.45229e-10
1.74155e-07
3.37593e-09
1.63307e-07
5.6665e-09
1.25188e-07
7.37074e-09
1.28858e-07
1.049e-08
1.65662e-07
1.1184e-08
1.85594e-07
7.50068e-09
2.16566e-07
2.848e-09
2.17736e-07
2.15977e-07
-2.15103e-09
6.75669e-09
1.64189e-07
-5.68372e-09
9.73925e-09
1.90854e-07
1.30425e-08
2.07949e-07
1.50149e-08
2.14005e-07
1.78773e-08
2.14098e-07
2.1721e-08
2.23372e-07
2.07284e-08
2.23596e-07
1.78338e-08
2.19842e-07
1.32224e-08
2.2212e-07
2.2143e-07
7.74089e-09
1.67088e-08
1.68718e-07
-1.65548e-08
2.0407e-08
1.91226e-07
2.4385e-08
1.94407e-07
2.72715e-08
2.06493e-07
2.93556e-08
2.16842e-07
2.93523e-08
2.23893e-07
2.71219e-08
2.26038e-07
2.30135e-08
2.27159e-07
1.80177e-08
2.27215e-07
2.2732e-07
1.21075e-08
2.107e-08
1.79225e-07
-2.19821e-08
2.06224e-08
1.84838e-07
2.44665e-08
1.81071e-07
2.72725e-08
1.8958e-07
2.85122e-08
2.01689e-07
2.77215e-08
2.24188e-07
2.52344e-08
2.2855e-07
2.14033e-08
2.3101e-07
1.6497e-08
2.32432e-07
2.32962e-07
1.08701e-08
2.29324e-08
1.80318e-07
-2.4017e-08
2.19557e-08
1.90077e-07
2.04986e-08
1.80358e-07
2.11657e-08
1.86742e-07
2.27639e-08
2.03649e-07
2.15276e-08
2.25959e-07
1.86073e-08
2.3148e-07
1.47521e-08
2.34871e-07
1.02577e-08
2.36931e-07
2.37932e-07
5.32333e-09
2.11912e-08
1.81934e-07
-2.28064e-08
1.94185e-08
1.9309e-07
1.67877e-08
2.02274e-07
1.61453e-08
2.08203e-07
1.47107e-08
2.18656e-07
1.19125e-08
2.29073e-07
8.25436e-09
2.35144e-07
4.16357e-09
2.38967e-07
1.45185e-10
2.40954e-07
2.41787e-07
-3.70557e-09
1.1388e-08
1.84862e-07
-1.43166e-08
8.79552e-09
1.95684e-07
6.4282e-09
2.0594e-07
4.08702e-09
2.1563e-07
1.6139e-09
2.24215e-07
-1.78471e-09
2.31435e-07
-6.65664e-09
2.22219e-07
-1.11447e-08
2.26134e-07
-1.38935e-08
2.43708e-07
2.43913e-07
-1.60798e-08
-7.10651e-09
1.89358e-07
2.61024e-09
-1.09304e-08
1.99508e-07
-1.41109e-08
2.09126e-07
-1.67899e-08
2.183e-07
-1.91758e-08
2.26881e-07
-1.97795e-08
2.25591e-07
-2.07392e-08
1.90342e-07
-2.9042e-08
1.86065e-07
-3.01259e-08
2.44795e-07
2.43924e-07
-3.03898e-08
-3.41824e-08
1.95446e-07
2.80943e-08
-3.91746e-08
2.045e-07
-4.30725e-08
2.13025e-07
-4.59784e-08
2.21211e-07
-4.81019e-08
2.27356e-07
-4.03706e-08
1.91081e-07
-3.72424e-08
1.8743e-07
-3.96737e-08
1.88452e-07
-4.98263e-08
2.1609e-07
2.43247e-07
-4.91489e-08
-6.92754e-08
2.02905e-07
6.1817e-08
-7.51605e-08
2.10385e-07
-7.95444e-08
2.17408e-07
-8.23583e-08
2.24021e-07
-7.39367e-08
2.12201e-07
-6.54434e-08
1.82872e-07
-6.23669e-08
1.84596e-07
-6.38012e-08
1.90102e-07
-7.69748e-08
2.12291e-07
2.41408e-07
-7.51367e-08
-1.11125e-07
2.10997e-07
1.03033e-07
-1.17008e-07
2.16268e-07
-1.20827e-07
2.2123e-07
-1.22021e-07
2.25555e-07
-9.53798e-08
2.04293e-07
-9.22834e-08
1.80237e-07
-8.91221e-08
1.81884e-07
-9.33143e-08
1.94771e-07
-1.09773e-07
2.34522e-07
2.39406e-07
-1.07771e-07
-1.5842e-07
2.18591e-07
1.50826e-07
-1.6307e-07
2.20918e-07
-1.65135e-07
2.23297e-07
-1.64722e-07
2.25376e-07
-1.25171e-07
2.09599e-07
-1.22089e-07
1.77525e-07
-1.29559e-07
1.9196e-07
-1.46688e-07
2.31558e-07
-1.49381e-07
2.37184e-07
2.37591e-07
-1.47567e-07
-2.10372e-07
2.2427e-07
2.04693e-07
-2.1284e-07
2.23387e-07
-2.12647e-07
2.23112e-07
-2.10217e-07
2.23428e-07
-1.95141e-07
2.2485e-07
-1.84017e-07
2.26289e-07
-1.9554e-07
2.28673e-07
-1.96586e-07
2.32617e-07
-1.94499e-07
2.35097e-07
2.35913e-07
-1.92821e-07
-2.65237e-07
2.26518e-07
2.62988e-07
-2.6535e-07
2.235e-07
-2.63392e-07
2.21158e-07
-2.59868e-07
2.20156e-07
-2.54467e-07
2.20065e-07
-2.49911e-07
2.2146e-07
-2.46838e-07
2.25623e-07
-2.44402e-07
2.30173e-07
-2.42128e-07
2.32819e-07
2.33814e-07
-2.40028e-07
-2.97256e-07
1.42055e-07
2.55288e-07
-3.15984e-07
1.68461e-07
-3.16435e-07
2.03556e-07
-3.13491e-07
2.17155e-07
-3.09955e-07
2.15006e-07
-3.06661e-07
2.16652e-07
-3.04928e-07
2.23442e-07
-3.02705e-07
2.27972e-07
-2.82525e-07
2.0523e-07
1.33429e-07
-2.73773e-07
-7.99738e-08
0
4.58383e-08
-1.32102e-07
3.83909e-09
-1.95767e-07
2.43335e-08
-2.48894e-07
4.76309e-08
-2.85637e-07
6.30909e-08
-3.12573e-07
6.89597e-08
-2.92424e-07
6.02909e-08
-1.9399e-07
1.98828e-08
-1.11521e-07
3.05478e-08
2.58795e-08
-5.48482e-08
-8.15212e-09
0
5.57446e-09
-1.25822e-08
3.38475e-10
-2.31149e-08
3.09524e-10
-3.64568e-08
1.10857e-09
-4.22753e-08
1.14465e-09
-4.24155e-08
7.2552e-09
-2.7811e-08
7.95933e-09
-3.03104e-08
6.45061e-09
-2.37643e-08
1.22906e-08
8.18586e-09
-1.83992e-08
-3.07963e-09
4.89112e-10
2.21151e-09
-4.51414e-09
1.37886e-09
-5.92132e-09
1.30496e-09
-6.58055e-09
1.32888e-09
-7.39682e-09
1.41288e-09
-4.83057e-09
2.35211e-09
-6.10709e-09
2.40612e-09
-8.91393e-09
1.49318e-09
-3.97578e-09
4.08217e-09
2.63717e-10
2.57912e-09
-7.21849e-10
4.51624e-10
6.53386e-10
-6.00789e-10
9.72595e-10
-4.77566e-10
7.8817e-10
-4.28903e-10
8.68472e-10
-1.45852e-09
1.95554e-09
-2.60971e-10
7.39903e-09
6.86861e-09
5.47697e-09
3.1798e-08
-2.28715e-09
7.82681e-08
-1.59697e-08
-3.10775e-08
1.14091e-07
-1.16865e-09
1.46986e-09
1.36393e-10
2.60238e-11
3.69273e-08
4.56336e-09
4.75738e-08
1.49812e-08
4.20522e-08
3.27338e-08
2.88625e-08
5.86711e-08
1.26834e-08
8.45935e-08
-5.19671e-09
1.06282e-07
-2.2649e-08
1.30017e-07
-3.97004e-08
-5.66057e-08
1.55549e-07
2.73777e-08
6.41128e-08
-4.35827e-09
5.39999e-08
8.52907e-08
6.61023e-08
6.7006e-08
7.6794e-08
4.4398e-08
8.85085e-08
2.10541e-08
1.02686e-07
-1.36058e-09
1.20482e-07
-2.3158e-08
1.42185e-07
-4.43824e-08
1.67797e-07
-6.53069e-08
-8.62878e-08
1.97483e-07
4.81433e-08
9.19363e-08
-3.3733e-08
6.21135e-08
7.25208e-08
7.80378e-08
5.10754e-08
9.48751e-08
2.75799e-08
1.12894e-07
2.93024e-09
1.33466e-07
-2.21207e-08
1.57668e-07
-4.72709e-08
1.85802e-07
-7.24575e-08
2.18345e-07
-9.7846e-08
-1.23519e-07
2.55581e-07
4.48447e-08
7.6306e-08
-2.91164e-08
6.411e-08
5.32588e-08
8.61416e-08
2.90238e-08
1.10358e-07
3.35187e-09
1.36875e-07
-2.35852e-08
1.66241e-07
-5.14849e-08
1.99051e-07
-8.00789e-08
2.35851e-07
-1.09255e-07
2.7708e-07
-1.39074e-07
-1.69371e-07
3.22935e-07
4.8496e-08
5.36472e-08
-2.70841e-08
7.34539e-08
2.85062e-08
1.01236e-07
1.23541e-09
1.32078e-07
-2.74853e-08
1.66025e-07
-5.75305e-08
2.03167e-07
-8.86242e-08
2.43535e-07
-1.20445e-07
2.87114e-07
-1.52832e-07
3.33379e-07
-1.85349e-07
-2.06098e-07
3.70036e-07
6.0069e-08
2.64633e-08
-3.2626e-08
9.02286e-08
-1.57166e-09
1.23507e-07
-3.20571e-08
1.60009e-07
-6.39845e-08
1.99624e-07
-9.71436e-08
2.42105e-07
-1.31103e-07
2.86927e-07
-1.65266e-07
3.31321e-07
-1.97233e-07
3.27098e-07
-1.86661e-07
-1.58141e-07
2.74905e-07
8.15254e-08
-2.25984e-09
-4.5819e-08
1.15382e-07
-3.49211e-08
1.51894e-07
-6.8563e-08
1.91439e-07
-1.03526e-07
2.33916e-07
-1.39617e-07
2.78757e-07
-1.75942e-07
3.20643e-07
-2.07159e-07
2.85194e-07
-1.67479e-07
2.42513e-07
-1.58906e-07
-2.10243e-07
2.85571e-07
1.03546e-07
-3.23943e-08
-6.30687e-08
1.4188e-07
-7.01536e-08
1.79505e-07
-1.0617e-07
2.20031e-07
-1.44045e-07
2.63212e-07
-1.82795e-07
3.02184e-07
-2.14918e-07
2.50723e-07
-1.61187e-07
2.26732e-07
-1.5898e-07
2.80324e-07
-2.20575e-07
-3.15801e-07
3.76444e-07
1.29958e-07
-6.68429e-08
-8.58641e-08
1.64011e-07
-1.04184e-07
2.00929e-07
-1.43006e-07
2.40663e-07
-1.83767e-07
2.7582e-07
-2.17931e-07
2.19062e-07
-1.63069e-07
2.10914e-07
-1.6313e-07
2.74223e-07
-2.28586e-07
3.95311e-07
-3.48818e-07
-5.84701e-07
6.58148e-07
1.45639e-07
-9.61067e-08
-1.16274e-07
1.76957e-07
-1.35482e-07
2.11119e-07
-1.77144e-07
2.40814e-07
-2.13401e-07
1.87986e-07
-1.60031e-07
1.81944e-07
-1.60837e-07
2.52397e-07
-2.38865e-07
4.08956e-07
-3.90585e-07
7.25681e-07
-6.79079e-07
-8.2519e-07
9.55588e-07
1.48474e-07
-1.20625e-07
-1.23952e-07
1.7564e-07
-1.62643e-07
1.98188e-07
-1.99677e-07
1.51258e-07
-1.52982e-07
1.41728e-07
-1.43207e-07
2.22481e-07
-2.48314e-07
4.22325e-07
-4.43832e-07
7.41488e-07
-7.45833e-07
9.24059e-07
-8.70295e-07
-9.20091e-07
1.01871e-06
1.38806e-07
-1.40385e-07
-1.19046e-07
1.58157e-07
-1.81991e-07
1.21591e-07
-1.43865e-07
1.02376e-07
-1.07826e-07
1.75219e-07
-2.28505e-07
4.2034e-07
-5.22506e-07
6.99435e-07
-8.01688e-07
8.5428e-07
-9.01739e-07
9.39694e-07
-9.55948e-07
-9.91799e-07
1.01138e-06
1.21645e-07
-1.53527e-07
-1.08502e-07
1.09503e-07
-1.64672e-07
6.57756e-08
-7.22181e-08
1.20279e-07
-1.48338e-07
3.76381e-07
-5.01963e-07
6.42406e-07
-8.31686e-07
7.65639e-07
-9.25265e-07
8.4676e-07
-9.82926e-07
9.14866e-07
-1.0241e-06
-1.05199e-06
9.75054e-07
8.96443e-08
-1.47958e-07
-9.52154e-08
4.93708e-08
-5.77625e-08
7.75601e-08
-8.9738e-08
2.60392e-07
-3.28213e-07
5.66895e-07
-8.25504e-07
6.72284e-07
-9.37464e-07
7.47464e-07
-1.00051e-06
8.12144e-07
-1.04762e-06
8.69713e-07
-1.08167e-06
-1.10104e-06
9.18767e-07
2.56783e-08
-6.94527e-08
-6.80224e-08
1.9187e-08
-4.0643e-08
1.11828e-07
-1.71733e-07
4.62474e-07
-6.99805e-07
5.73315e-07
-9.36582e-07
6.46065e-07
-1.01021e-06
7.08145e-07
-1.0626e-06
7.63471e-07
-1.10295e-06
8.10995e-07
-1.12919e-06
-1.13871e-06
8.48667e-07
1.68522e-08
-2.33557e-08
-5.43394e-08
3.97109e-08
-6.41158e-08
2.75859e-07
-4.05542e-07
4.90719e-07
-9.11326e-07
5.59424e-07
-1.00519e-06
6.13667e-07
-1.06446e-06
6.63479e-07
-1.11241e-06
7.08079e-07
-1.14755e-06
7.4475e-07
-1.16586e-06
-1.16525e-06
7.71288e-07
3.02451e-08
-2.12206e-08
-3.30315e-08
8.4503e-08
-1.19144e-07
4.02433e-07
-7.13834e-07
4.71719e-07
-9.80562e-07
5.20409e-07
-1.05387e-06
5.65641e-07
-1.10968e-06
6.07826e-07
-1.1546e-06
6.44213e-07
-1.18393e-06
6.71923e-07
-1.19357e-06
-1.18279e-06
6.89458e-07
1.65353e-08
-3.89805e-08
8.14615e-10
1.62939e-07
-2.59258e-07
3.7437e-07
-9.21989e-07
4.27871e-07
-1.03405e-06
4.70595e-07
-1.09659e-06
5.10605e-07
-1.14969e-06
5.46859e-07
-1.19085e-06
5.76143e-07
-1.21322e-06
5.96061e-07
-1.21349e-06
-1.19291e-06
6.06186e-07
1.77048e-08
-5.60451e-08
-1.05032e-09
2.63506e-07
-5.0854e-07
3.40601e-07
-9.99444e-07
3.83533e-07
-1.07698e-06
4.2086e-07
-1.13392e-06
4.55598e-07
-1.18443e-06
4.85698e-07
-1.22095e-06
5.07798e-07
-1.23532e-06
5.20236e-07
-1.22593e-06
-1.19617e-06
5.23489e-07
3.39686e-08
-8.66303e-08
-5.04095e-09
2.7896e-07
-7.56713e-07
3.21944e-07
-1.04246e-06
3.50672e-07
-1.10571e-06
3.78334e-07
-1.16158e-06
4.05372e-07
-1.21147e-06
4.2782e-07
-1.2434e-06
4.42086e-07
-1.24958e-06
4.47384e-07
-1.23123e-06
-1.19332e-06
4.44535e-07
1.14977e-07
-1.87413e-07
-1.61193e-08
2.83101e-07
-9.24652e-07
2.98011e-07
-1.05737e-06
3.13583e-07
-1.12128e-06
3.33775e-07
-1.18178e-06
3.5482e-07
-1.23251e-06
3.70825e-07
-1.25941e-06
3.78635e-07
-1.25739e-06
3.7862e-07
-1.23121e-06
-1.18661e-06
3.71911e-07
1.55337e-07
-3.38596e-07
-8.92877e-10
2.18149e-07
-9.86614e-07
2.39289e-07
-1.0785e-06
2.61239e-07
-1.14323e-06
2.83855e-07
-1.20439e-06
3.03571e-07
-1.25223e-06
3.15713e-07
-1.27155e-06
3.19433e-07
-1.26111e-06
3.16731e-07
-1.22851e-06
-1.17914e-06
3.09267e-07
1.44336e-07
-4.75646e-07
-2.20253e-09
1.81389e-07
-1.02322e-06
2.03249e-07
-1.10036e-06
2.24579e-07
-1.16456e-06
2.44755e-07
-1.22457e-06
2.6017e-07
-1.26764e-06
2.67485e-07
-1.27886e-06
2.67665e-07
-1.26129e-06
2.63202e-07
-1.22404e-06
-1.17132e-06
2.55375e-07
1.4318e-07
-6.09218e-07
-7.29176e-09
1.6264e-07
-1.04258e-06
1.78879e-07
-1.1166e-06
1.96403e-07
-1.18209e-06
2.12498e-07
-1.24066e-06
2.23067e-07
-1.27821e-06
2.26657e-07
-1.28245e-06
2.25336e-07
-1.25997e-06
2.21031e-07
-1.21974e-06
-1.16345e-06
2.13163e-07
1.25079e-07
-7.25941e-07
-1.0068e-08
1.38723e-07
-1.05621e-06
1.53871e-07
-1.13174e-06
1.70201e-07
-1.19842e-06
1.83252e-07
-1.25371e-06
1.89815e-07
-1.28478e-06
1.91611e-07
-1.28425e-06
1.91262e-07
-1.25962e-06
1.90342e-07
-1.21882e-06
-1.15926e-06
1.86155e-07
9.79404e-08
-8.04422e-07
-1.43143e-08
1.12662e-07
-1.07092e-06
1.29457e-07
-1.14854e-06
1.45469e-07
-1.21443e-06
1.55531e-07
-1.26377e-06
1.58485e-07
-1.28773e-06
1.59194e-07
-1.28496e-06
1.59479e-07
-1.25991e-06
1.60127e-07
-1.21947e-06
-1.15074e-06
1.516e-07
6.90576e-08
-8.56387e-07
-1.47968e-08
8.84842e-08
-1.09034e-06
1.06817e-07
-1.16687e-06
1.21983e-07
-1.2296e-06
1.28775e-07
-1.27057e-06
1.28823e-07
-1.28778e-06
1.29336e-07
-1.28547e-06
1.30794e-07
-1.26137e-06
1.33706e-07
-1.22238e-06
-1.12985e-06
1.12818e-07
4.60348e-08
-8.92945e-07
-6.36087e-09
6.70116e-08
-1.11132e-06
8.52317e-08
-1.18509e-06
9.89112e-08
-1.24328e-06
1.02478e-07
-1.27414e-06
1.0027e-07
-1.28557e-06
1.00332e-07
-1.28553e-06
1.01798e-07
-1.26283e-06
1.04663e-07
-1.22525e-06
-1.10117e-06
7.40288e-08
2.69855e-08
-9.14626e-07
-1.0838e-09
4.77975e-08
-1.13212e-06
6.55696e-08
-1.20286e-06
7.73187e-08
-1.25503e-06
7.80852e-08
-1.2749e-06
7.44549e-08
-1.28194e-06
7.38877e-08
-1.28497e-06
7.49622e-08
-1.26391e-06
7.65884e-08
-1.22687e-06
-1.07213e-06
4.72975e-08
1.21314e-08
-9.28103e-07
7.07517e-09
3.26764e-08
-1.15261e-06
4.98469e-08
-1.22003e-06
5.90245e-08
-1.2642e-06
5.76064e-08
-1.27348e-06
5.31454e-08
-1.27748e-06
5.16569e-08
-1.28348e-06
5.26169e-08
-1.26487e-06
5.37771e-08
-1.22803e-06
-1.05014e-06
3.16785e-08
6.68937e-09
-9.37952e-07
7.99505e-09
2.46635e-08
-1.17059e-06
4.02353e-08
-1.23561e-06
4.60218e-08
-1.26999e-06
4.30596e-08
-1.27052e-06
3.81767e-08
-1.2726e-06
3.54643e-08
-1.28077e-06
3.59922e-08
-1.2654e-06
3.49076e-08
-1.22695e-06
-1.03409e-06
1.90825e-08
9.19052e-09
-9.48085e-07
4.90426e-09
2.32253e-08
-1.18463e-06
3.64786e-08
-1.24886e-06
3.80921e-08
-1.2716e-06
3.37264e-08
-1.26616e-06
2.86682e-08
-1.26754e-06
2.55018e-08
-1.2776e-06
2.76511e-08
-1.26754e-06
2.70303e-08
-1.22633e-06
-1.0228e-06
1.57361e-08
1.74605e-08
-9.6297e-07
-2.80676e-13
2.56526e-08
-1.19282e-06
3.54006e-08
-1.25861e-06
3.21244e-08
-1.26833e-06
2.6041e-08
-1.26007e-06
2.01035e-08
-1.2616e-06
1.55232e-08
-1.27302e-06
1.86062e-08
-1.27063e-06
1.80551e-08
-1.22578e-06
-1.01564e-06
1.05794e-08
1.5645e-08
-9.84384e-07
-9.4793e-13
2.30492e-08
-1.20023e-06
3.11831e-08
-1.26674e-06
2.49033e-08
-1.26205e-06
1.8174e-08
-1.25334e-06
1.1517e-08
-1.25494e-06
4.81533e-09
-1.26632e-06
6.80557e-09
-1.27262e-06
2.99932e-09
-1.22197e-06
-1.01354e-06
-6.01893e-13
2.05037e-09
-9.87249e-07
-3.48128e-11
1.81233e-08
-1.2163e-06
2.66263e-08
-1.27524e-06
1.8781e-08
-1.2542e-06
1.13995e-08
-1.24596e-06
3.6915e-09
-1.24724e-06
-5.27858e-09
-1.25735e-06
-2.30595e-09
-1.27559e-06
8.56666e-11
-1.22436e-06
-1.0151e-06
5.32951e-33
-9.39904e-09
-9.78294e-07
-2.5581e-10
2.22412e-08
-1.24794e-06
2.62497e-08
-1.27925e-06
1.55408e-08
-1.24349e-06
6.79684e-09
-1.23722e-06
-2.30046e-09
-1.23814e-06
-1.41139e-08
-1.24553e-06
-1.14514e-08
-1.27825e-06
1.1078e-08
-1.24689e-06
-1.00462e-06
7.59801e-120
-2.18657e-08
3.91958e-79
2.79164e-08
2.1929e-08
1.16617e-08
4.31621e-09