/*--------------------------------*- C++ -*----------------------------------*\
  =========                 |
  \\      /  F ield         | OpenFOAM: The Open Source CFD Toolbox
   \\    /   O peration     | Website:  https://openfoam.org
    \\  /    A nd           | Version:  8
     \\/     M anipulation  |
\*---------------------------------------------------------------------------*/
FoamFile
{
    version     2.0;
    format      ascii;
    class       volScalarField;
    location    "6.15";
    object      alpha.water;
}
// * * * * * * * * * * * * * * * * * * * * * * * * * * * * * * * * * * * * * //

dimensions      [0 0 0 0 0 0 0];

internalField   nonuniform List<scalar> 
9150
(
1
1
1
1
1
1
1
1
1
1
1
1
1
1
1
1
1
1
1
1
1
1
1
1
1
1
1
1
1
1
1
1
1
1
1
1
1
1
1
1
1
1
1
1
1
1
1
1
1
1
1
1
1
1
1
1
1
1
1
1
1
1
1
1
1
1
1
1
1
1
1
1
1
1
1
1
1
1
1
1
1
1
1
1
1
1
1
1
1
1
1
1
1
1
1
1
1
1
1
1
1
1
1
1
1
1
1
1
1
1
1
1
1
1
1
1
1
1
1
1
1
1
1
1
1
1
1
1
1
1
1
1
1
1
1
1
1
1
1
1
1
1
1
1
1
1
1
1
1
1
0.995236
0.994678
0.991081
0.995051
0.995089
0.982184
0.980164
0.983023
0.995273
0.995274
0.995236
0.994905
0.991008
0.994852
0.995091
0.990335
0.980152
0.980152
0.984611
0.995275
0.995236
0.995012
0.990957
0.990954
0.995086
0.995226
0.982825
0.980152
0.98657
0.995275
0.995236
0.995226
0.99187
0.990954
0.995045
0.995232
0.98654
0.980165
0.99122
0.995275
0.992246
0.99522
0.993597
0.990954
0.992652
0.995268
0.99194
0.980202
0.995012
0.995274
0.990425
0.995257
0.992617
0.990971
0.992253
0.995296
0.995298
0.980691
0.992558
0.99491
0.992483
0.995296
0.99291
0.990987
0.995005
0.995299
0.995299
0.982001
0.981563
0.993565
0.995296
0.995299
0.995299
0.995065
0.995299
0.995299
0.995299
0.9833
0.981563
0.993667
0.995299
0.9953
0.995299
0.995299
0.995299
0.995299
0.995299
0.994394
0.991691
0.995217
0.9953
0.9953
0.9953
0.995299
0.995299
0.995299
0.995299
0.995299
0.995293
0.995289
0.9953
0.9953
0.989977
0.98496
0.986823
0.988469
0.993096
0.989007
0.995287
0.995288
0.9953
0.978049
0.961234
0.960863
0.960569
0.960161
0.959855
0.960161
0.961435
0.968276
0.995291
0.976955
0.961468
0.967451
0.974023
0.964536
0.959509
0.97016
0.963458
0.957833
0.995297
0.991197
0.989188
0.991808
0.991631
0.991448
0.989713
0.992329
0.992375
0.992289
0.93576
0.987456
0.992788
0.992788
0.985184
0.984097
0.991168
0.992375
0.992375
0.992375
0.829905
0.927743
0.992847
0.991386
0.95619
0.955968
0.957361
0.992255
0.992375
0.927465
0.855457
0.983504
0.993565
0.993155
0.960874
0.955968
0.956222
0.988105
0.992322
0.884242
0.985415
0.993595
0.993608
0.992609
0.986571
0.991067
0.993598
0.993488
0.928152
0.875094
0.993595
0.993608
0.993609
0.993609
0.993609
0.993609
0.993609
0.911051
0.881688
0.913832
0.993606
0.993609
0.993609
0.993609
0.993609
0.955578
0.901005
0.893949
0.898632
0.930526
0.993598
0.993608
0.993609
0.928798
0.843124
0.843742
0.896753
0.934078
0.96405
0.907285
0.993493
0.988844
0.859663
0.825558
0.826184
0.844046
0.954565
0.989413
0.964696
0.842416
0.993399
0.866202
0.825558
0.825558
0.825558
0.937688
0.976516
0.99077
0.95743
0.833132
0.890284
0.826229
0.826239
0.83799
0.921439
0.966599
0.989778
0.991111
0.977116
0.841578
0.836642
0.83491
0.917787
0.970711
0.980172
0.964369
0.991454
0.991451
0.980667
0.843568
0.867161
0.966648
0.992656
0.992803
0.981848
0.964369
0.991625
0.991616
0.958322
0.83685
0.980566
0.99283
0.992891
0.992916
0.987048
0.987261
0.992048
0.989182
0.876789
0.838536
0.992829
0.992881
0.992878
0.992932
0.992959
0.99289
0.992645
0.944633
0.879699
0.894743
0.992751
0.992802
0.991435
0.992915
0.992973
0.992959
0.992911
0.952989
0.918798
0.981485
0.988216
0.992986
0.992915
0.992975
0.992975
0.992973
0.992961
0.990253
0.989408
0.958826
0.949449
0.992979
0.992981
0.992978
0.992975
0.992975
0.992972
0.992934
0.970183
0.814944
0.796536
0.961875
0.992978
0.992975
0.992975
0.992975
0.992958
0.966633
0.831504
0.814119
0.659261
0.784688
0.988478
0.990972
0.992975
0.992975
0.992774
0.978577
0.815013
0.814305
0.659261
0.659261
0.801447
0.919218
0.951839
0.942784
0.98205
0.985695
0.966677
0.901
0.726468
0.661556
0.658688
0.652973
0.651246
0.82249
0.985588
0.985811
0.986737
0.987647
0.987482
0.953548
0.699574
0.651246
0.651246
0.651246
0.817826
0.985755
0.987664
0.98789
0.99457
0.99457
0.99457
0.986816
0.699401
0.654395
0.65819
0.66116
0.851694
0.987241
0.965512
0.984465
0.994325
0.994324
0.994165
0.980216
0.719332
0.668057
0.674301
0.679323
0.882725
0.883708
0.947128
0.994084
0.993691
0.993191
0.989003
0.969735
0.853929
0.855005
0.964575
0.961455
0.946842
0.946338
0.946476
0.975268
0.994437
0.994614
0.994634
0.994624
0.926622
0.984697
0.98678
0.982428
0.984808
0.993898
0.994612
0.994647
0.994651
0.994652
0.763816
0.983702
0.991175
0.993354
0.994447
0.994612
0.994647
0.994651
0.994652
0.994651
0.756552
0.925443
0.942759
0.97511
0.992857
0.994445
0.994612
0.852797
0.872617
0.98648
0.677086
0.416293
0.375992
0.623827
0.865148
0.840887
0.624447
0.425152
0.535693
0.917073
0.280287
0.2746
0.274586
0.274817
0.340312
0.343017
0.347682
0.366434
0.680709
0.983873
0.274573
0.274571
0.274574
0.479449
0.565132
0.563214
0.372005
0.470334
0.834328
0.985198
0.274571
0.274571
0.274571
0.274574
0.274655
0.51401
0.383973
0.282391
0.614345
0.914298
0.274573
0.274612
0.276061
0.274656
0.274737
0.289203
0.275932
0.27836
0.340772
0.808208
0.274684
0.277012
0.277015
0.277013
0.275335
0.275008
0.275517
0.275905
0.306
0.863202
0.274379
0.274361
0.274359
0.274359
0.274361
0.274447
0.274954
0.277112
0.666292
0.95654
0.274442
0.274379
0.274359
0.274361
0.274447
0.275008
0.41531
0.884477
0.95654
0.956749
0.275697
0.275195
0.289325
0.649216
0.874857
0.900052
0.919047
0.956501
0.956749
0.956749
0.714001
0.412503
0.777246
0.871919
0.880789
0.888144
0.925517
0.955958
0.956501
0.956749
0.954179
0.860225
0.508602
0.502452
0.501754
0.500713
0.499879
0.640419
0.894659
0.883328
0.964326
0.979753
0.973068
0.615611
0.500713
0.499879
0.499388
0.499555
0.500987
0.508867
0.727067
0.980034
0.990741
0.991931
0.987824
0.716744
0.499555
0.499388
0.499555
0.500987
0.574068
0.681565
0.991931
0.991977
0.992024
0.991506
0.918625
0.628655
0.500987
0.502204
0.574933
0.575781
0.943139
0.992024
0.992024
0.992074
0.992354
0.964426
0.816582
0.737054
0.575771
0.576048
0.932666
0.991903
0.982988
0.969051
0.992621
0.992593
0.99241
0.991226
0.576048
0.583269
0.902924
0.990793
0.965036
0.93184
0.992657
0.99266
0.992644
0.992498
0.581369
0.596348
0.69498
0.986274
0.964114
0.927791
0.99266
0.992664
0.992663
0.99265
0.886943
0.61217
0.60743
0.894537
0.960172
0.923434
0.840123
0.992663
0.992664
0.992663
0.970901
0.771342
0.60126
0.594333
0.957193
0.953118
0.651996
0.669698
0.648021
0.665641
0.971596
0.97231
0.722938
0.401307
0.952987
0.950818
0.684175
0.518545
0.514932
0.518545
0.97231
0.972454
0.852977
0.304672
0.847225
0.848218
0.920857
0.530114
0.516208
0.549757
0.972454
0.972524
0.892006
0.259026
0.800845
0.805983
0.969765
0.877067
0.831944
0.934095
0.972572
0.972502
0.93156
0.24977
0.793489
0.801205
0.897098
0.984662
0.986506
0.987223
0.972532
0.972562
0.955697
0.218668
0.79392
0.828984
0.216341
0.426486
0.946192
0.987581
0.972469
0.96568
0.873695
0.200434
0.849505
0.857613
0.215706
0.184465
0.237616
0.369306
0.835006
0.742598
0.205793
0.203499
0.880956
0.873459
0.223395
0.184154
0.184109
0.185952
0.449382
0.680425
0.209277
0.236246
0.887543
0.874167
0.210947
0.18411
0.184154
0.461672
0.148654
0.24307
0.218319
0.26728
0.900335
0.870375
0.21203
0.199518
0.554727
0.740808
0.0702301
0.225749
0.22445
0.198824
0.900335
0.871737
0.2183
0.249508
0.740825
0.740544
0.104053
0.1577
0.196286
0.172773
0.888906
0.865052
0.191382
0.196604
0.550617
0.205408
0.228214
0.228353
0.228214
0.160915
0.877013
0.867086
0.175598
0.194581
0.183344
0.100843
0.179173
0.227753
0.227623
0.154228
0.884663
0.868708
0.168948
0.215667
0.265476
0.0991316
0.00611466
0.0523477
0.164976
0.152997
0.901582
0.890315
0.169174
0.268105
0.267684
0.0319512
0.00748908
0.034354
0.0550872
0.151649
0.916533
0.898455
0.167784
0.239215
0.0501572
0.00063409
0.00171385
0.00104574
5.08831e-05
0.170417
0.923256
0.926372
0.166576
0.0658876
0.00299199
0.00284817
0.0015545
0.00100041
4.69146e-05
0.198375
0.935756
0.937095
0.200311
1.54021e-05
0.00416757
0.00165114
0.000493142
0.00062421
4.71672e-05
0.230885
0.947221
0.949603
0.237064
1.4974e-05
0.00146558
0.000537308
0.000500926
0.000736219
4.6911e-05
0.259312
0.95571
0.957733
0.265386
1.42885e-05
1.4974e-05
0.000225899
0.000282803
0.00142666
4.59586e-05
0.292181
0.96426
0.964095
0.294322
1.35783e-05
4.70141e-05
0.000567409
0.000580773
0.00146044
2.89583e-05
0.326125
0.970392
0.970214
0.32685
1.29516e-05
5.26127e-05
0.000564211
0.00128728
0.00146441
1.59405e-05
0.356256
0.974699
0.975368
0.361035
1.26086e-05
2.92593e-05
0.000326562
0.00126647
0.00146044
1.63522e-05
0.387467
0.97971
0.979312
0.394324
1.25493e-05
1.5606e-05
5.0625e-05
0.000318656
0.000641317
1.61423e-05
0.427793
0.984214
0.982833
0.423287
1.25566e-05
1.25493e-05
1.262e-05
7.73376e-06
1.47261e-05
1.68786e-05
0.471243
0.987358
0.986922
0.465386
1.25493e-05
3.69907e-05
1.31866e-05
6.77086e-06
4.05811e-05
1.72797e-05
0.517057
0.99066
0.990466
0.51914
1.36017e-05
5.6883e-05
2.01418e-05
5.83868e-05
5.16068e-05
1.49278e-05
0.586529
0.994021
0.99277
0.588951
8.11986e-06
1.40971e-05
8.75557e-05
9.54029e-05
1.95461e-06
2.09761e-06
0.670634
0.995612
0.995422
0.666084
4.99715e-07
4.98387e-07
2.81453e-05
9.26463e-05
1.97283e-06
1.97283e-06
0.752972
0.997177
0.99686
0.754181
4.98387e-07
4.97709e-07
4.98387e-07
2.24231e-05
1.9546e-06
0.0286582
0.827144
0.998516
0.997858
0.82598
0.0290239
3.11417e-07
3.3242e-06
1.66956e-06
1.47066e-06
0.110733
0.891214
0.99865
0.999453
0.892807
0.120167
7.59095e-08
1.7145e-08
5.49175e-07
7.61841e-07
0.191166
0.927085
0.999667
0.999547
0.959867
0.252174
1.44955e-08
1.15632e-09
5.93296e-09
3.49398e-07
0.400146
0.986222
0.999847
0.999901
0.983945
0.410315
5.17698e-07
1.4897e-11
4.76921e-14
1.36259e-05
0.649769
0.999886
0.999969
0.999931
0.999909
0.685912
1.55273e-05
1.21404e-11
-3.24628e-12
0.0819652
0.881717
0.99997
0.999992
0.999999
0.999944
0.877543
0.120132
-1.56627e-11
-1.98159e-09
0.558369
0.998836
0.999991
1
1
0.999998
0.999839
0.618507
-6.63285e-09
0.33199
0.972511
1
1
1
1
1
1
0.968589
0.33958
0.995067
0.995274
0.995274
0.990765
0.989045
0.989045
0.989045
0.9912
0.995216
0.994601
0.960751
0.952116
0.98082
0.994602
0.994602
0.994602
0.994602
0.994602
0.994601
0.994588
0.991434
0.985811
0.995142
0.995143
0.995143
0.995143
0.995143
0.99514
0.990466
0.946402
0.927913
0.918939
0.917232
0.917331
0.917263
0.834504
0.868041
0.964864
0.968097
0.968097
0.995275
0.995275
0.995275
0.990115
0.989045
0.989045
0.989046
0.99452
0.995253
0.994266
0.95974
0.950945
0.988716
0.994602
0.994602
0.994602
0.98518
0.983694
0.983687
0.983009
0.982407
0.982407
0.989132
0.995143
0.995143
0.995143
0.995141
0.995118
0.982341
0.880116
0.834467
0.832935
0.832715
0.832687
0.832687
0.832687
0.832698
0.832712
0.926705
0.968097
0.995275
0.995275
0.994072
0.989045
0.989045
0.989045
0.995229
0.995278
0.995277
0.99321
0.954902
0.950353
0.986451
0.994601
0.9946
0.993499
0.983747
0.983717
0.983687
0.986172
0.993508
0.983418
0.980858
0.987814
0.995143
0.995142
0.99514
0.994893
0.990251
0.994614
0.99489
0.978348
0.886852
0.841451
0.832695
0.832698
0.832712
0.832717
0.832716
0.88895
0.995275
0.995275
0.995275
0.991827
0.989045
0.995122
0.995278
0.995278
0.995278
0.994981
0.96303
0.950353
0.959662
0.994598
0.99083
0.994281
0.994341
0.993825
0.993478
0.993663
0.993655
0.989657
0.980437
0.991146
0.995142
0.99514
0.995131
0.987542
0.983029
0.992536
0.994987
0.994988
0.994988
0.994988
0.994988
0.939472
0.89143
0.865931
0.883982
0.903429
0.995275
0.993571
0.995268
0.995282
0.994956
0.995277
0.995277
0.995278
0.995278
0.995279
0.987387
0.950353
0.950405
0.981207
0.96374
0.95358
0.977725
0.993822
0.993877
0.993776
0.963002
0.927479
0.959748
0.987034
0.995132
0.995131
0.995138
0.993252
0.982882
0.982798
0.986762
0.994988
0.994988
0.994988
0.994988
0.994988
0.994988
0.994988
0.987898
0.986799
0.99525
0.993327
0.994299
0.995282
0.995282
0.994426
0.993328
0.99333
0.994007
0.995279
0.995279
0.983193
0.951404
0.951534
0.9568
0.89803
0.89015
0.901622
0.901787
0.898455
0.885963
0.884446
0.884446
0.884447
0.968719
0.995137
0.99514
0.995141
0.995141
0.983768
0.975271
0.989456
0.994988
0.994988
0.994988
0.994988
0.994988
0.994989
0.994988
0.97929
0.995281
0.993327
0.993329
0.995282
0.995282
0.995282
0.995279
0.994322
0.995279
0.995279
0.995279
0.995277
0.990015
0.971869
0.961573
0.944126
0.885286
0.884905
0.884616
0.884473
0.884457
0.884446
0.884447
0.884447
0.894756
0.989474
0.995141
0.995142
0.995141
0.993085
0.975118
0.975271
0.994576
0.994988
0.994988
0.994988
0.994989
0.994988
0.994721
0.977051
0.995289
0.994373
0.994497
0.995282
0.995282
0.995282
0.995282
0.995282
0.995279
0.995279
0.995279
0.995278
0.995277
0.995254
0.992217
0.991931
0.92743
0.884861
0.884804
0.892173
0.895707
0.89363
0.884447
0.884448
0.940027
0.995084
0.995138
0.995141
0.995141
0.983687
0.974984
0.983204
0.994989
0.994986
0.994988
0.994988
0.994988
0.994989
0.994988
0.987284
0.995289
0.995289
0.995285
0.995281
0.987304
0.980377
0.95959
0.940947
0.958681
0.990759
0.995278
0.995277
0.995238
0.995239
0.995236
0.995201
0.907644
0.885654
0.884772
0.884633
0.88458
0.88449
0.884485
0.895904
0.989255
0.995139
0.995139
0.995138
0.995136
0.971402
0.974967
0.994426
0.994974
0.994986
0.994984
0.993867
0.994988
0.994988
0.994988
0.994755
0.995289
0.995289
0.995281
0.995281
0.973025
0.942111
0.938974
0.938974
0.938974
0.973805
0.981637
0.981498
0.984783
0.992658
0.995201
0.995168
0.916781
0.886425
0.935803
0.884623
0.884554
0.884508
0.884506
0.935615
0.995154
0.995161
0.99515
0.99514
0.978696
0.970128
0.984545
0.994943
0.994952
0.994974
0.973089
0.797651
0.927175
0.994988
0.963596
0.950062
0.995289
0.995138
0.992048
0.994915
0.989796
0.954832
0.945317
0.978916
0.988426
0.989611
0.975179
0.975159
0.975159
0.975159
0.992535
0.995168
0.977842
0.941746
0.976278
0.904949
0.884624
0.902779
0.987885
0.995166
0.995167
0.995164
0.995162
0.981558
0.969684
0.969905
0.994515
0.994942
0.994943
0.959365
0.765938
0.764625
0.764679
0.843979
0.794466
0.764567
0.991263
0.99511
0.995001
0.983067
0.871025
0.832015
0.831171
0.934732
0.984133
0.989611
0.98603
0.97516
0.975159
0.975185
0.992543
0.993875
0.993785
0.993584
0.992297
0.986556
0.988578
0.994596
0.995167
0.995167
0.995167
0.995167
0.979616
0.969689
0.969698
0.979369
0.994878
0.994941
0.994942
0.869736
0.764625
0.764625
0.764625
0.764643
0.764558
0.764557
0.968426
0.995034
0.994941
0.994872
0.980594
0.843847
0.830056
0.829847
0.829887
0.899921
0.985829
0.986938
0.988333
0.99513
0.99513
0.990009
0.956429
0.955785
0.975001
0.995154
0.995167
0.995167
0.995167
0.995167
0.995167
0.983954
0.969795
0.96975
0.982193
0.986693
0.984673
0.993723
0.994941
0.861011
0.764635
0.764625
0.772668
0.798406
0.764557
0.764557
0.956939
0.95994
0.992695
0.994656
0.994493
0.994306
0.895103
0.829887
0.829842
0.841223
0.981183
0.99512
0.99513
0.99513
0.99513
0.96597
0.955782
0.955818
0.970079
0.99516
0.995167
0.995167
0.995167
0.995167
0.995167
0.981439
0.979247
0.993772
0.994748
0.986854
0.984627
0.989207
0.994921
0.823859
0.764862
0.793397
0.874376
0.872978
0.823598
0.764818
0.943189
0.852961
0.859913
0.962986
0.994306
0.994061
0.993959
0.861896
0.829887
0.89097
0.994001
0.995126
0.99513
0.99513
0.99513
0.982674
0.955864
0.962654
0.993652
0.995167
0.995167
0.995167
0.995162
0.99442
0.994659
0.995168
0.995167
0.995167
0.995166
0.974188
0.989309
0.991493
0.991525
0.910417
0.90603
0.901218
0.874794
0.859208
0.861142
0.861422
0.852961
0.85286
0.852961
0.883139
0.990562
0.99399
0.993955
0.955092
0.920145
0.975439
0.995114
0.995129
0.99513
0.99513
0.99513
0.995124
0.962056
0.983576
0.995166
0.995167
0.995167
0.995167
0.995167
0.995146
0.995168
0.995168
0.995168
0.995167
0.980849
0.973818
0.96878
0.991386
0.991493
0.898075
0.771803
0.751168
0.826242
0.839843
0.81576
0.793479
0.85286
0.85296
0.888033
0.950141
0.952825
0.960762
0.993579
0.995081
0.995095
0.995111
0.995116
0.995115
0.98544
0.982644
0.992107
0.995142
0.992485
0.992944
0.995166
0.995167
0.995137
0.995133
0.995157
0.995168
0.995168
0.995168
0.99515
0.97091
0.887537
0.838085
0.659281
0.558121
0.614111
0.608975
0.570462
0.570476
0.570445
0.571298
0.572794
0.577544
0.880208
0.901294
0.901086
0.852417
0.887821
0.976462
0.995084
0.995096
0.995107
0.99511
0.995108
0.982672
0.978281
0.98312
0.995145
0.995145
0.995144
0.995141
0.994942
0.995156
0.995167
0.995167
0.995167
0.995168
0.995168
0.995168
0.963729
0.929883
0.655692
0.555036
0.554917
0.555856
0.558353
0.837976
0.872534
0.916096
0.951724
0.899539
0.825579
0.794565
0.923355
0.862376
0.838514
0.850726
0.978528
0.99507
0.995086
0.995084
0.995096
0.990853
0.983686
0.986848
0.994109
0.995147
0.995146
0.995145
0.995145
0.995144
0.994951
0.995167
0.995167
0.995167
0.995168
0.995168
0.959554
0.932823
0.935452
0.952376
0.843883
0.554925
0.555036
0.800036
0.957509
0.974712
0.974704
0.97437
0.974074
0.822691
0.745787
0.791153
0.883386
0.835537
0.836735
0.976155
0.995064
0.995072
0.995084
0.990344
0.963643
0.963531
0.98894
0.995145
0.995146
0.995147
0.995146
0.995145
0.995144
0.995144
0.995143
0.976378
0.885147
0.856095
0.956447
0.984176
0.9459
0.904237
0.962688
0.978982
0.97526
0.804425
0.834117
0.974455
0.974747
0.974704
0.974741
0.974704
0.969651
0.861828
0.745114
0.734518
0.833213
0.833889
0.912023
0.994982
0.995023
0.994734
0.956296
0.940312
0.940697
0.970335
0.995145
0.995145
0.995145
0.995146
0.995145
0.992249
0.967741
0.921912
0.875692
0.843935
0.843924
0.843921
0.844053
0.847973
0.848496
0.853318
0.947073
0.984884
0.876568
0.956243
0.969042
0.971304
0.867634
0.785753
0.81385
0.755488
0.968962
0.978583
0.939146
0.734314
0.833132
0.83696
0.980961
0.994655
0.978635
0.940262
0.940262
0.940262
0.955049
0.995108
0.995136
0.995145
0.995145
0.995145
0.995143
0.961616
0.845105
0.844185
0.843935
0.843924
0.843921
0.843921
0.843921
0.843934
0.853345
0.986746
0.992269
0.986694
0.784447
0.790593
0.691366
0.604984
0.406204
0.350215
0.350143
0.415184
0.931329
0.97877
0.978727
0.746759
0.833132
0.833132
0.91125
0.994198
0.989067
0.954789
0.963988
0.990665
0.991842
0.99053
0.992587
0.995136
0.995144
0.995143
0.994791
0.994638
0.975792
0.954953
0.917928
0.860487
0.853377
0.853771
0.844329
0.869081
0.963447
0.992267
0.992271
0.988001
0.885962
0.399637
0.359889
0.351125
0.350201
0.350142
0.350179
0.563873
0.969909
0.978673
0.978745
0.830183
0.833132
0.833141
0.908562
0.994003
0.993789
0.991318
0.989146
0.95769
0.89321
0.859113
0.811237
0.760395
0.834719
0.845444
0.862866
0.938753
0.987398
0.987392
0.987395
0.986459
0.983565
0.983052
0.981656
0.986517
0.991479
0.992205
0.992267
0.990228
0.964125
0.550914
0.388554
0.350209
0.350183
0.350201
0.572512
0.974949
0.978576
0.978538
0.937522
0.928723
0.833141
0.840463
0.990639
0.993978
0.99358
0.85476
0.600601
0.598863
0.629666
0.906165
0.610024
0.394043
0.384307
0.379477
0.379477
0.379818
0.398545
0.560998
0.964667
0.994436
0.994617
0.994749
0.994816
0.99482
0.994802
0.965295
0.980074
0.992914
0.993025
0.961046
0.830066
0.732536
0.70997
0.768086
0.946621
0.97805
0.978435
0.972814
0.871132
0.929778
0.833411
0.948631
0.99155
0.99358
0.799761
0.446593
0.766634
0.905991
0.906441
0.907516
0.907797
0.763261
0.667478
0.566913
0.388357
0.330607
0.329093
0.327581
0.336379
0.653591
0.992212
0.994816
0.99482
0.994818
0.991298
0.960294
0.960292
0.978842
0.993218
0.9897
0.974734
0.985449
0.993149
0.993183
0.993163
0.966666
0.925945
0.876174
0.871099
0.929696
0.915267
0.986612
0.989604
0.847009
0.439079
0.399591
0.844374
0.906445
0.907297
0.907579
0.907797
0.907584
0.907537
0.907413
0.906579
0.627105
0.362961
0.327107
0.326722
0.327084
0.73258
0.994785
0.994816
0.992069
0.960743
0.960347
0.966169
0.992956
0.993223
0.991833
0.993219
0.993218
0.99322
0.993221
0.993183
0.987349
0.90725
0.87126
0.871099
0.930134
0.982791
0.983427
0.974468
0.61163
0.391541
0.391665
0.483161
0.747265
0.870627
0.906681
0.907579
0.907537
0.907406
0.907297
0.907047
0.906362
0.808693
0.32858
0.326722
0.326714
0.429316
0.9414
0.994785
0.993221
0.974927
0.980824
0.993223
0.993223
0.993223
0.993223
0.993222
0.993222
0.993222
0.993221
0.989801
0.971879
0.934783
0.87061
0.901041
0.931829
0.981809
0.982713
0.947708
0.541147
0.390978
0.390987
0.391195
0.392038
0.391013
0.721624
0.907529
0.907406
0.907313
0.907227
0.906458
0.90414
0.8981
0.618047
0.326714
0.326707
0.32672
0.559426
0.967186
0.99315
0.99315
0.993211
0.993222
0.993223
0.993223
0.993222
0.993222
0.993222
0.993222
0.993222
0.967325
0.939624
0.869761
0.87005
0.930824
0.931829
0.935087
0.979313
0.901576
0.468757
0.390924
0.390925
0.390937
0.390928
0.391008
0.664189
0.907341
0.907355
0.907271
0.895085
0.785708
0.76659
0.763399
0.733885
0.378085
0.32672
0.326707
0.326827
0.414766
0.772675
0.979831
0.977596
0.993211
0.993222
0.985249
0.937547
0.949758
0.99009
0.993222
0.993221
0.993221
0.933164
0.869502
0.914489
0.86167
0.858229
0.840169
0.977889
0.861361
0.406767
0.390924
0.390924
0.390925
0.390937
0.390936
0.819493
0.907341
0.907623
0.907335
0.623003
0.465358
0.465363
0.465384
0.509071
0.617135
0.569499
0.326827
0.377231
0.383253
0.357377
0.355252
0.496487
0.881639
0.991977
0.93889
0.923081
0.922744
0.922706
0.956981
0.993221
0.993127
0.934787
0.87478
0.885702
0.69198
0.691162
0.825692
0.974256
0.924092
0.519899
0.390924
0.390925
0.444764
0.5378
0.580767
0.841166
0.907109
0.907326
0.795522
0.465358
0.465358
0.465357
0.465363
0.465476
0.559349
0.719383
0.72355
0.725468
0.72301
0.52996
0.351813
0.350471
0.350549
0.707014
0.943451
0.947439
0.922604
0.922604
0.922604
0.964847
0.993108
0.962816
0.942796
0.807879
0.691162
0.846129
0.814136
0.847681
0.930323
0.877103
0.56372
0.476559
0.595335
0.575021
0.575718
0.693149
0.905512
0.907083
0.544693
0.465358
0.465357
0.465358
0.465388
0.465844
0.473364
0.477707
0.480915
0.644519
0.722257
0.717257
0.536789
0.363382
0.350471
0.350549
0.731615
0.956048
0.968706
0.922604
0.943206
0.977066
0.980732
0.978003
0.974201
0.736873
0.734475
0.926448
0.814441
0.816104
0.819161
0.820802
0.83952
0.911393
0.97886
0.990263
0.821038
0.699161
0.89829
0.879456
0.48248
0.465362
0.465358
0.465362
0.465646
0.68948
0.796959
0.776505
0.674625
0.513643
0.508555
0.573143
0.712739
0.711694
0.491638
0.351144
0.35535
0.682996
0.988696
0.991288
0.993178
0.993524
0.990467
0.982124
0.965796
0.666887
0.888526
0.926509
0.962655
0.95061
0.872734
0.822083
0.8861
0.988964
0.990324
0.990399
0.975515
0.964044
0.976727
0.734029
0.465873
0.465386
0.465362
0.465386
0.589987
0.940309
0.94248
0.942557
0.942559
0.942557
0.917472
0.548148
0.514066
0.514931
0.669936
0.720074
0.657325
0.765719
0.983128
0.993456
0.993524
0.993531
0.993529
0.989838
0.751847
0.662785
0.80247
0.926265
0.988899
0.98983
0.988088
0.976772
0.983649
0.990385
0.990405
0.99041
0.990411
0.990411
0.990411
0.684225
0.466306
0.465503
0.465386
0.465399
0.64966
0.938918
0.942136
0.942492
0.942557
0.94256
0.942546
0.942996
0.943454
0.84424
0.674738
0.694511
0.885352
0.992301
0.993422
0.993521
0.993531
0.993531
0.993531
0.993529
0.741105
0.661078
0.661261
0.837485
0.98983
0.989955
0.990074
0.990281
0.990384
0.990405
0.990408
0.990408
0.99041
0.990411
0.990409
0.61721
0.46718
0.465731
0.465503
0.465458
0.755497
0.940086
0.941538
0.942136
0.942492
0.942515
0.942867
0.943076
0.944349
0.945194
0.9196
0.935237
0.95056
0.891433
0.948747
0.993428
0.993525
0.993531
0.99353
0.993531
0.957008
0.676924
0.660989
0.777437
0.691366
0.893375
0.873321
0.794915
0.915657
0.990388
0.98972
0.99028
0.990406
0.990409
0.836651
0.474865
0.466882
0.466111
0.465747
0.492698
0.884648
0.937588
0.939604
0.941538
0.942095
0.857411
0.815022
0.845288
0.922986
0.949967
0.950545
0.950661
0.95059
0.882995
0.847437
0.922982
0.993422
0.993517
0.99353
0.993532
0.99353
0.812566
0.661261
0.783098
0.894279
0.779314
0.777592
0.777592
0.777592
0.779916
0.78006
0.780975
0.91873
0.990274
0.934875
0.5276
0.47069
0.466882
0.466106
0.589289
0.912523
0.93201
0.937341
0.905026
0.695975
0.300789
0.300516
0.300668
0.349183
0.604399
0.89823
0.950545
0.950657
0.877589
0.847619
0.925852
0.993341
0.99352
0.993532
0.993533
0.993532
0.93477
0.663868
0.837941
0.994614
0.966947
0.961454
0.978741
0.830963
0.78006
0.780161
0.816308
0.979603
0.986236
0.977671
0.616532
0.478906
0.642475
0.649111
0.673002
0.841451
0.924625
0.836121
0.330378
0.300769
0.30044
0.300413
0.300516
0.300668
0.479106
0.617661
0.772567
0.83506
0.848457
0.952166
0.993052
0.993495
0.99353
0.993533
0.993533
0.993533
0.893826
0.712403
0.894159
0.994648
0.994633
0.994401
0.994013
0.987231
0.97414
0.981021
0.988125
0.987878
0.924363
0.675252
0.604398
0.73988
0.748557
0.683225
0.72047
0.899259
0.916834
0.530721
0.301158
0.300411
0.300368
0.300389
0.300413
0.4057
0.698092
0.698523
0.747259
0.795916
0.789351
0.760082
0.864714
0.982858
0.993529
0.993533
0.993533
0.993533
0.703723
0.933064
0.927122
0.994652
0.994648
0.968878
0.902626
0.92866
0.977235
0.987604
0.987777
0.741594
0.609024
0.677434
0.752296
0.752677
0.720276
0.7159
0.845287
0.872013
0.732012
0.31179
0.300248
0.300311
0.30033
0.300368
0.330847
0.82489
0.926327
0.91787
0.73688
0.380337
0.247613
0.206361
0.316571
0.671016
0.949377
0.993529
0.993533
0.959383
0.703662
0.955642
0.946611
0.994648
0.994633
0.749413
0.513068
0.507528
0.698175
0.687757
0.530817
0.523846
0.678984
0.751683
0.717107
0.708907
0.716623
0.829984
0.828632
0.69756
0.301991
0.30017
0.300232
0.300289
0.300311
0.300612
0.583766
0.977021
0.975028
0.707285
0.192849
0.181622
0.18178
0.182053
0.183177
0.205772
0.582568
0.921976
0.953562
0.704262
0.74919
0.9585
0.920904
0.993782
0.992526
0.619519
0.507385
0.506666
0.506212
0.506142
0.506112
0.519863
0.935699
0.731848
0.656411
0.743574
0.835637
0.833701
0.468007
0.300299
0.30017
0.300202
0.300201
0.300232
0.300402
0.318392
0.827236
0.984423
0.878544
0.261704
0.181519
0.181526
0.181622
0.18178
0.182053
0.183177
0.187848
0.282243
0.523829
0.693831
0.941611
0.958546
0.870311
0.989749
0.988429
0.699138
0.506523
0.506211
0.506142
0.506089
0.506085
0.785123
0.945105
0.668535
0.657287
0.838725
0.808345
0.338563
0.300677
0.300565
0.301067
0.300202
0.300224
0.300325
0.30083
0.394503
0.943588
0.991478
0.889617
0.270968
0.181526
0.181516
0.181526
0.181783
0.205911
0.336334
0.514378
0.626477
0.60915
0.714766
0.933974
0.934069
0.861588
0.986189
0.938612
0.788516
0.820408
0.627705
0.506089
0.506084
0.506089
0.901419
0.945422
0.755052
0.801184
0.783887
0.319082
0.302431
0.301987
0.31303
0.312438
0.30022
0.300324
0.300537
0.302118
0.613453
0.993898
0.993513
0.985642
0.676905
0.282743
0.232935
0.585164
0.720697
0.797045
0.842961
0.871135
0.887006
0.891506
0.87459
0.885599
0.875034
0.874647
0.958495
0.929453
0.938367
0.919315
0.532817
0.506668
0.506089
0.81486
0.945421
0.945411
0.831029
0.84544
0.387418
0.302176
0.302216
0.306436
0.313031
0.307268
0.300431
0.300551
0.301096
0.368564
0.918204
0.993974
0.993899
0.993519
0.975916
0.793442
0.676838
0.672032
0.835632
0.844987
0.844035
0.838519
0.838319
0.919354
0.928474
0.875008
0.875113
0.922269
0.957292
0.954987
0.952488
0.670563
0.509524
0.507085
0.807324
0.853599
0.766392
0.772525
0.927151
0.844599
0.329812
0.302171
0.302174
0.30452
0.302353
0.301304
0.300686
0.301131
0.460983
0.949477
0.994188
0.994079
0.993974
0.993482
0.912497
0.76186
0.681851
0.737084
0.813075
0.803259
0.80263
0.899092
0.918552
0.947139
0.92955
0.875008
0.884811
0.922368
0.955703
0.954641
0.756288
0.520881
0.51212
0.752588
0.805435
0.756001
0.734663
0.839861
0.993024
0.978354
0.549024
0.302174
0.302167
0.302174
0.302113
0.30191
0.30254
0.562863
0.991514
0.994248
0.994264
0.994227
0.99412
0.990204
0.830421
0.724711
0.720012
0.883749
0.968804
0.96103
0.961056
0.987703
0.991851
0.983768
0.949734
0.904631
0.921449
0.921765
0.955821
0.946082
0.616977
0.530945
0.583403
0.779289
0.788632
0.695642
0.746344
0.994087
0.993919
0.993024
0.913783
0.415957
0.302174
0.302192
0.302331
0.30311
0.37666
0.918335
0.99427
0.994277
0.994271
0.994271
0.994265
0.991554
0.950679
0.932435
0.957823
0.989781
0.993537
0.993399
0.993266
0.993153
0.992199
0.991919
0.979922
0.962681
0.925355
0.939202
0.95654
0.955821
0.875602
0.785844
0.733155
0.685596
0.68657
0.690947
0.933243
0.994136
0.994112
0.993919
0.992504
0.890719
0.421183
0.302331
0.303385
0.4524
0.903418
0.994273
0.994273
0.994273
0.994272
0.994274
0.994276
0.994245
0.994159
0.993681
0.993515
0.993537
0.993537
0.993537
0.988059
0.938786
0.950408
0.982087
0.981911
0.981268
0.976803
0.979353
0.956749
0.956425
0.916641
0.685596
0.685582
0.685596
0.685596
0.898527
0.994136
0.994136
0.99414
0.994112
0.993863
0.990721
0.895199
0.783793
0.803127
0.946093
0.994199
0.994273
0.994272
0.994275
0.994274
0.994276
0.994276
0.994276
0.994269
0.992018
0.985085
0.987225
0.993537
0.993414
0.976566
0.764188
0.708686
0.947156
0.981513
0.980696
0.980514
0.980221
0.956425
0.813931
0.691477
0.689266
0.685595
0.841826
0.946315
0.976532
0.988292
0.994141
0.994136
0.993841
0.983159
0.973174
0.990099
0.991223
0.992625
0.994092
0.994269
0.994272
0.994275
0.994272
0.994272
0.994274
0.994227
0.994268
0.994173
0.986093
0.901906
0.865588
0.990693
0.992604
0.977778
0.779255
0.705204
0.703964
0.704211
0.632558
0.556351
0.54976
0.759763
0.756841
0.755827
0.920208
0.94588
0.993848
0.994225
0.994244
0.99277
0.992889
0.972874
0.964705
0.964786
0.966733
0.991217
0.991346
0.991248
0.990621
0.979492
0.994272
0.994275
0.909584
0.748043
0.716283
0.78734
0.784182
0.775112
0.780799
0.781121
0.835107
0.944229
0.9764
0.982248
0.984218
0.984123
0.819022
0.660192
0.652764
0.520574
0.520574
0.619868
0.947479
0.992893
0.994217
0.994262
0.994289
0.994293
0.994293
0.994278
0.994183
0.974062
0.964716
0.96469
0.966085
0.99134
0.991335
0.991336
0.991241
0.986576
0.693931
0.452053
0.444065
0.440535
0.438841
0.4388
0.4388
0.4388
0.43889
0.439177
0.604409
0.781923
0.851631
0.918519
0.984492
0.984539
0.984552
0.984553
0.984552
0.521189
0.581572
0.582729
0.991523
0.994299
0.994299
0.994295
0.994296
0.994297
0.994297
0.994296
0.994289
0.993848
0.981823
0.97269
0.984457
0.990851
0.991335
0.737071
0.451932
0.431276
0.434229
0.438269
0.448958
0.466641
0.457172
0.477001
0.447991
0.450708
0.43972
0.446264