/*--------------------------------*- C++ -*----------------------------------*\
  =========                 |
  \\      /  F ield         | OpenFOAM: The Open Source CFD Toolbox
   \\    /   O peration     | Website:  https://openfoam.org
    \\  /    A nd           | Version:  8
     \\/     M anipulation  |
\*---------------------------------------------------------------------------*/
FoamFile
{
    version     2.0;
    format      ascii;
    class       surfaceScalarField;
    location    "6.15";
    object      alphaPhi0.water;
}
// * * * * * * * * * * * * * * * * * * * * * * * * * * * * * * * * * * * * * //

dimensions      [0 3 -1 0 0 0 0];

internalField   nonuniform List<scalar> 
18095
(
1.99136e-08
-1.72019e-07
1.52105e-07
2.32767e-08
-1.97488e-07
1.94125e-07
2.06912e-08
-2.0613e-07
2.08716e-07
1.20708e-08
-2.11182e-07
2.19802e-07
3.20575e-10
-2.13097e-07
2.24847e-07
-1.09909e-08
-2.1334e-07
2.24651e-07
-1.97298e-08
-2.10992e-07
2.19731e-07
-2.31018e-08
-2.061e-07
2.09472e-07
-1.99071e-08
-1.97552e-07
1.94358e-07
-1.72101e-07
1.52194e-07
1.5571e-08
-1.8759e-07
1.62365e-08
-1.98153e-07
1.20373e-08
-2.01931e-07
6.35688e-09
-2.05501e-07
1.69451e-10
-2.06909e-07
-6.15706e-09
-2.07013e-07
-1.19527e-08
-2.05197e-07
-1.61089e-08
-2.01944e-07
-1.55158e-08
-1.98145e-07
-1.87617e-07
6.80948e-09
-1.94399e-07
8.39435e-09
-1.99738e-07
7.39636e-09
-2.00933e-07
4.36457e-09
-2.02469e-07
1.41497e-10
-2.02686e-07
-4.32676e-09
-2.02545e-07
-7.39467e-09
-2.02129e-07
-8.40672e-09
-2.00932e-07
-6.79837e-09
-1.99754e-07
-1.94415e-07
4.52573e-09
-1.98925e-07
4.7289e-09
-1.99941e-07
3.64963e-09
-1.99854e-07
1.58813e-09
-2.00408e-07
-3.31026e-10
-2.00767e-07
-2.02291e-09
-2.00853e-07
-3.68814e-09
-2.00463e-07
-4.73105e-09
-1.99889e-07
-4.51577e-09
-1.99969e-07
-1.98931e-07
1.07508e-09
1.13382e-09
1.27994e-09
8.72037e-10
1.04957e-10
-7.47901e-10
-1.21128e-09
-1.10024e-09
-1.06934e-09
-2.82487e-08
-1.95911e-07
2.24159e-07
-3.06926e-08
-1.98856e-07
2.013e-07
-2.56796e-08
-2.00602e-07
1.95589e-07
-1.53427e-08
-2.00759e-07
1.90422e-07
-1.29698e-09
-2.01773e-07
1.87727e-07
1.34517e-08
-2.02498e-07
1.87749e-07
2.53571e-08
-2.02507e-07
1.90602e-07
3.08789e-08
-2.0162e-07
1.96098e-07
2.84267e-08
-1.99272e-07
2.01724e-07
-1.96201e-07
2.24628e-07
-9.51742e-09
-1.86393e-07
-1.5041e-08
-1.93333e-07
-1.1941e-08
-2.03702e-07
-4.73455e-09
-2.07965e-07
1.60922e-09
-2.08117e-07
7.31859e-09
-2.08208e-07
1.32047e-08
-2.08393e-07
1.5223e-08
-2.03638e-07
9.51357e-09
-1.93562e-07
-1.86688e-07
-9.68739e-09
-1.76706e-07
-7.68424e-09
-1.95336e-07
-6.71556e-09
-2.04671e-07
-5.33553e-09
-2.09345e-07
-2.06406e-10
-2.13246e-07
4.97815e-09
-2.13392e-07
7.15379e-09
-2.10569e-07
8.38033e-09
-2.04865e-07
1.01162e-08
-1.95298e-07
-1.76572e-07
-6.41855e-09
-1.70287e-07
-7.99673e-09
-1.93758e-07
-6.96127e-09
-2.05707e-07
-9.75826e-10
-2.15331e-07
2.5476e-09
-2.16769e-07
5.27434e-09
-2.16119e-07
8.71771e-09
-2.14012e-07
8.71322e-09
-2.0486e-07
6.60426e-09
-1.93189e-07
-1.69967e-07
-1.81823e-08
-1.78152e-08
-1.48059e-08
-1.03349e-08
-2.25735e-09
6.27485e-09
1.19934e-08
1.66052e-08
1.77736e-08
3.11031e-08
-1.58337e-07
1.27234e-07
4.00303e-08
-1.99072e-07
1.90145e-07
3.65277e-08
-2.10632e-07
2.14135e-07
2.53131e-08
-2.1602e-07
2.27235e-07
8.72339e-09
-2.16566e-07
2.33156e-07
-8.73616e-09
-2.16527e-07
2.33987e-07
-2.46231e-08
-2.14795e-07
2.30682e-07
-3.35695e-08
-2.1015e-07
2.19097e-07
-2.8989e-08
-1.98818e-07
1.94237e-07
-1.59083e-07
1.30094e-07
1.58898e-08
-1.74227e-07
1.81811e-08
-2.01363e-07
1.49808e-08
-2.07432e-07
7.80406e-09
-2.08843e-07
-9.33157e-10
-2.07829e-07
-9.83513e-09
-2.07625e-07
-1.65396e-08
-2.08091e-07
-1.91449e-08
-2.07545e-07
-1.59074e-08
-2.02055e-07
-1.7499e-07
8.6786e-09
-1.82906e-07
9.01092e-09
-2.01696e-07
7.70948e-09
-2.0613e-07
2.94908e-09
-2.04083e-07
-3.47619e-10
-2.04532e-07
-3.39898e-09
-2.04574e-07
-7.02986e-09
-2.0446e-07
-8.3312e-09
-2.06244e-07
-8.4063e-09
-2.0198e-07
-1.83396e-07
8.03017e-09
-1.90936e-07
5.72504e-09
-1.9939e-07
6.56028e-09
-2.06965e-07
2.34982e-09
-1.99872e-07
8.21005e-10
-2.03003e-07
-8.74056e-10
-2.02879e-07
-6.12676e-09
-1.99207e-07
-5.28268e-09
-2.07088e-07
-7.73223e-09
-1.9953e-07
-1.91129e-07
3.32237e-08
3.51334e-08
2.37573e-08
1.4307e-08
-9.68726e-10
-1.60982e-08
-2.47034e-08
-3.5693e-08
-3.34995e-08
9.4499e-08
1.03145e-08
-1.04811e-07
8.29427e-08
1.1387e-08
7.16296e-08
1.123e-08
5.87292e-08
1.29046e-08
4.98122e-08
8.92996e-09
3.89574e-08
1.03925e-08
2.51579e-08
1.37593e-08
1.76679e-08
7.76001e-09
1.59732e-08
1.69498e-09
-1.67479e-09
1.76482e-08
1.21643e-07
2.35671e-08
-1.34893e-07
1.08428e-07
2.43884e-08
9.55077e-08
2.40717e-08
8.56358e-08
2.29006e-08
7.55716e-08
1.90077e-08
6.40534e-08
2.1175e-08
5.23289e-08
2.54492e-08
4.0925e-08
1.91292e-08
3.18584e-08
1.12698e-08
5.88009e-09
2.43037e-08
1.193e-07
3.83314e-08
-1.34062e-07
1.06604e-07
3.67246e-08
9.55341e-08
3.50658e-08
8.33773e-08
3.498e-08
6.9306e-08
3.31232e-08
5.68999e-08
3.35883e-08
4.40939e-08
3.80477e-08
3.20732e-08
3.11153e-08
2.48878e-08
1.89542e-08
1.4388e-08
1.638e-08
1.03553e-07
5.21118e-08
-1.17331e-07
9.23164e-08
4.79536e-08
8.09685e-08
4.6232e-08
7.10917e-08
4.47794e-08
6.04223e-08
4.37498e-08
5.08812e-08
4.31381e-08
3.84088e-08
5.041e-08
2.53713e-08
4.41164e-08
1.39326e-08
3.07739e-08
2.91819e-08
-8.61177e-10
9.8589e-08
6.144e-08
-1.07621e-07
9.02301e-08
5.63171e-08
8.21366e-08
5.42103e-08
7.38319e-08
5.30068e-08
6.29683e-08
5.472e-08
4.6897e-08
5.92165e-08
3.0683e-08
6.65401e-08
8.79345e-09
6.59671e-08
-1.03228e-08
4.99553e-08
4.61977e-08
-2.73386e-08
9.0195e-08
7.01269e-08
-9.81146e-08
8.17824e-08
6.47433e-08
7.66068e-08
5.93046e-08
7.08695e-08
5.86692e-08
6.33432e-08
6.25648e-08
5.29192e-08
6.9643e-08
4.32824e-08
7.61765e-08
2.84186e-08
8.07726e-08
6.50109e-09
7.15124e-08
6.58359e-08
-1.32021e-08
9.3104e-08
7.62016e-08
-9.82634e-08
8.5828e-08
7.20199e-08
7.59695e-08
6.91549e-08
6.53352e-08
6.92311e-08
5.56803e-08
7.25459e-08
4.67046e-08
7.86187e-08
3.87387e-08
8.41422e-08
3.33588e-08
8.57999e-08
2.50714e-08
7.97201e-08
7.32108e-08
1.78071e-08
8.52977e-08
8.17383e-08
-9.08337e-08
7.97085e-08
7.76088e-08
7.21243e-08
7.67392e-08
6.19453e-08
7.96801e-08
5.00154e-08
8.44761e-08
4.13058e-08
8.73283e-08
3.84432e-08
8.70047e-08
3.43441e-08
8.97925e-08
3.04686e-08
8.35159e-08
7.84044e-08
2.5745e-08
6.21938e-08
8.7767e-08
-6.82229e-08
5.62986e-08
8.35037e-08
4.79373e-08
8.51005e-08
3.82003e-08
8.94174e-08
3.19208e-08
9.07558e-08
3.0919e-08
8.83302e-08
3.08827e-08
8.7041e-08
3.11746e-08
8.97386e-08
2.75208e-08
8.83124e-08
8.48625e-08
2.11394e-08
4.36904e-08
9.69051e-08
-5.28287e-08
3.24305e-08
9.47635e-08
2.06088e-08
9.69219e-08
1.31741e-08
9.6852e-08
1.12203e-08
9.27097e-08
1.22303e-08
8.73203e-08
1.20287e-08
8.72427e-08
8.36548e-09
9.34018e-08
5.61236e-09
9.10669e-08
8.80435e-08
2.43199e-09
1.49384e-08
1.0845e-07
-2.6483e-08
1.6011e-09
1.08101e-07
-4.99427e-09
1.0136e-07
-5.09115e-09
9.49056e-08
1.6544e-09
8.41627e-08
7.80488e-09
7.91882e-08
1.00927e-08
8.2598e-08
4.80008e-09
9.68721e-08
1.74738e-09
9.39158e-08
8.8052e-08
1.74047e-09
-6.77031e-08
1.20795e-07
5.53576e-08
-7.05792e-08
1.09888e-07
-5.95065e-08
8.99063e-08
-3.59628e-08
7.09407e-08
-1.7473e-08
6.51975e-08
-1.9415e-09
6.31156e-08
8.95549e-09
7.11205e-08
2.13195e-08
8.39669e-08
3.02503e-08
8.24932e-08
7.98019e-08
3.63872e-08
-1.22322e-07
1.32828e-07
1.10291e-07
-1.08752e-07
1.00299e-07
-9.20792e-08
7.28372e-08
-7.00595e-08
5.02738e-08
-4.54883e-08
4.0317e-08
-1.13332e-08
3.04728e-08
2.26763e-08
3.70391e-08
5.62883e-08
5.12589e-08
8.87453e-08
5.13799e-08
5.41076e-08
1.13019e-07
-1.15021e-07
1.46564e-07
1.01284e-07
-1.03987e-07
8.97843e-08
-7.5639e-08
4.66568e-08
-4.52195e-08
1.994e-08
-1.11062e-08
6.31723e-09
2.49566e-08
-5.47313e-09
7.12482e-08
-8.05194e-09
1.307e-07
-8.13644e-09
1.88851e-07
-6.75917e-09
1.85937e-08
2.24408e-07
-2.3346e-08
1.24407e-07
2.8317e-08
1.37726e-09
6.36958e-08
3.08853e-08
1.73233e-08
5.53107e-08
-4.67169e-09
7.02838e-08
-8.95508e-09
8.046e-08
-1.46726e-08
1.02786e-07
-2.95555e-08
1.35893e-07
-4.12315e-08
1.64702e-07
-3.55561e-08
-6.12112e-10
1.8392e-07
1.45688e-07
9.2198e-08
-1.14787e-07
1.81283e-07
4.41012e-08
1.91825e-07
7.03518e-09
1.95198e-07
-1.52214e-08
2.03783e-07
-1.86877e-08
2.06697e-07
-1.7973e-08
2.05085e-07
-2.16834e-08
1.94733e-07
-3.05751e-08
1.85006e-07
-2.58171e-08
6.52853e-09
1.51308e-07
2.42376e-07
6.35513e-08
-1.77794e-07
2.68552e-07
3.0244e-08
2.74736e-07
8.82814e-10
2.77456e-07
-1.81302e-08
2.75066e-07
-2.51779e-08
2.80057e-07
-2.33507e-08
2.73762e-07
-1.5937e-08
2.60508e-07
-1.07708e-08
2.29109e-07
5.60758e-09
2.75932e-08
1.81594e-07
2.81746e-07
4.23764e-08
-2.51785e-07
2.95952e-07
1.60482e-08
2.99087e-07
-2.25107e-09
2.91797e-07
-1.26733e-08
2.86967e-07
-2.06066e-08
2.84679e-07
-2.01912e-08
2.68572e-07
1.40705e-10
2.27311e-07
3.0115e-08
1.73093e-07
4.5392e-08
4.6033e-08
1.35438e-07
2.78291e-07
3.54042e-08
-2.71309e-07
2.82606e-07
1.17345e-08
2.78684e-07
1.67112e-09
2.68428e-07
-2.41737e-09
2.481e-07
-2.78226e-10
2.06259e-07
2.16502e-08
1.48275e-07
5.8124e-08
9.53689e-08
6.82764e-08
7.55326e-08
5.98684e-08
5.28717e-08
7.36215e-08
2.67787e-07
3.00431e-08
-2.62425e-07
2.65758e-07
1.3764e-08
2.52328e-07
1.51007e-08
2.20001e-07
2.99099e-08
1.51462e-07
6.82609e-08
6.31392e-08
9.37439e-08
3.78905e-08
7.47048e-08
3.76617e-08
6.69197e-08
3.8234e-08
6.39802e-08
7.07029e-08
2.2684e-08
2.35849e-07
3.79802e-08
-2.43781e-07
2.14886e-07
3.47272e-08
1.70833e-07
5.91541e-08
8.23858e-08
8.55247e-08
3.16509e-08
1.11028e-07
4.16112e-09
1.13628e-07
2.74259e-09
8.27201e-08
-1.48004e-08
9.17296e-08
-3.97119e-08
9.03717e-08
9.14843e-08
-6.22815e-08
1.66859e-07
6.98973e-08
-1.98772e-07
9.63678e-08
9.35094e-08
3.15191e-08
1.04815e-07
1.99002e-09
1.14578e-07
-1.2423e-08
1.24737e-07
-8.93935e-09
1.15494e-07
-2.1298e-08
9.96903e-08
-3.82242e-08
1.0859e-07
-5.42788e-08
1.08739e-07
1.20895e-07
-7.89094e-08
1.00338e-07
1.31539e-07
-1.61979e-07
2.34148e-08
1.46469e-07
-7.60389e-09
1.35359e-07
-2.54146e-08
1.31914e-07
-2.77591e-08
1.30387e-07
-3.0066e-08
1.27958e-07
-5.01336e-08
1.19068e-07
-7.30565e-08
1.31906e-07
-8.34709e-08
1.31549e-07
1.46433e-07
-1.09445e-07
2.27793e-08
1.71296e-07
-9.49045e-08
-9.13807e-09
1.77601e-07
-2.71094e-08
1.52453e-07
-3.9496e-08
1.6074e-07
-4.98177e-08
1.56254e-07
-6.47463e-08
1.38984e-07
-8.91087e-08
1.42416e-07
-1.03742e-07
1.46624e-07
-1.21036e-07
1.58086e-07
1.69928e-07
-1.28876e-07
-3.77806e-08
2.00162e-07
2.01965e-08
-4.19784e-08
1.9254e-07
-5.86548e-08
1.90428e-07
-6.75775e-08
1.80715e-07
-7.76581e-08
1.68679e-07
-9.35226e-08
1.51929e-07
-1.03105e-07
1.51817e-07
-1.2064e-07
1.64147e-07
-1.44119e-07
1.88138e-07
1.88653e-07
-1.47876e-07
-7.43831e-08
2.12403e-07
7.31024e-08
-7.28277e-08
2.02977e-07
-7.65378e-08
1.94526e-07
-8.26861e-08
1.86899e-07
-8.93531e-08
1.76587e-07
-1.07823e-07
1.67476e-07
-1.41717e-07
1.8595e-07
-1.87419e-07
2.10042e-07
-2.03691e-07
2.17821e-07
2.08475e-07
-2.23631e-07
-8.23613e-08
2.11997e-07
9.07205e-08
-8.16075e-08
2.02231e-07
-8.55873e-08
1.98508e-07
-9.35704e-08
1.94894e-07
-1.16444e-07
2.00622e-07
-1.54839e-07
2.10153e-07
-1.96259e-07
2.27581e-07
-2.26348e-07
2.41979e-07
-2.16592e-07
2.21543e-07
2.17871e-07
-2.25704e-07
-9.61904e-08
2.03484e-07
1.04713e-07
-9.91905e-08
2.0523e-07
-1.11704e-07
2.11024e-07
-1.37371e-07
2.20571e-07
-1.68071e-07
2.31322e-07
-1.97226e-07
2.39359e-07
-2.16388e-07
2.46944e-07
-2.06434e-07
2.43504e-07
-2.06918e-07
2.35278e-07
2.44233e-07
-2.2944e-07
-1.45999e-07
2.112e-07
1.38216e-07
-1.65798e-07
2.2475e-07
-1.87153e-07
2.31794e-07
-1.99668e-07
2.33096e-07
-2.04468e-07
2.3612e-07
-2.06597e-07
2.41488e-07
-2.09597e-07
2.50077e-07
-2.05631e-07
2.55469e-07
-2.12463e-07
2.59884e-07
2.43761e-07
-2.12415e-07
-2.43693e-07
2.12376e-07
2.33562e-07
-2.3969e-07
2.20759e-07
-2.30824e-07
2.22937e-07
-2.20248e-07
2.22521e-07
-2.09302e-07
2.25173e-07
-1.99656e-07
2.31841e-07
-1.92485e-07
2.429e-07
-1.83598e-07
2.50669e-07
-1.68511e-07
2.47708e-07
2.14853e-07
-1.52704e-07
-2.43035e-07
1.80881e-07
2.09805e-07
-2.38312e-07
2.16051e-07
-2.31511e-07
2.16117e-07
-2.18087e-07
2.09087e-07
-1.98568e-07
2.05655e-07
-1.77167e-07
2.10439e-07
-1.59274e-07
2.25005e-07
-1.47945e-07
2.39325e-07
-1.3196e-07
2.27141e-07
2.06114e-07
-1.24886e-07
-1.85893e-07
1.3877e-07
1.94455e-07
-2.00135e-07
1.73463e-07
-1.84347e-07
2.00317e-07
-1.68297e-07
1.93038e-07
-1.51901e-07
1.89257e-07
-1.3558e-07
1.94117e-07
-1.13772e-07
2.03192e-07
-9.44341e-08
2.19726e-07
-8.47241e-08
2.04911e-07
2.11637e-07
-9.11992e-08
-1.10657e-07
1.18676e-07
1.28596e-07
-1.39306e-07
1.44912e-07
-1.19222e-07
1.55565e-07
-8.61648e-08
1.51638e-07
-6.38672e-08
1.66957e-07
-4.24171e-08
1.72663e-07
-1.87498e-08
1.78727e-07
4.60157e-09
1.99147e-07
2.06587e-08
2.00834e-07
2.06257e-07
2.50255e-08
1.98677e-08
7.93988e-08
1.72543e-08
4.61958e-08
1.16429e-07
5.9156e-08
1.26332e-07
6.50737e-08
1.26601e-07
7.45139e-08
1.2855e-07
8.6685e-08
1.37374e-07
1.14779e-07
1.49185e-07
1.51174e-07
1.64388e-07
1.88082e-07
1.70643e-07
1.90652e-07
2.24316e-07
7.975e-08
3.94835e-08
-4.15563e-08
1.26878e-07
6.44418e-08
1.75982e-07
7.16485e-08
2.06673e-07
9.18816e-08
2.29045e-07
1.02949e-07
2.78534e-07
1.30811e-07
2.85573e-07
1.44012e-07
3.02937e-07
1.48865e-07
3.24742e-07
1.50208e-07
1.54452e-07
3.61743e-07
9.09593e-08
-2.39703e-08
-2.43058e-08
1.51773e-07
-8.16507e-09
1.87054e-07
5.46089e-09
2.58516e-07
1.71906e-08
2.89792e-07
6.84446e-08
3.14061e-07
1.03313e-07
4.20434e-07
1.32718e-07
4.25238e-07
1.48795e-07
4.28362e-07
1.47829e-07
1.43086e-07
4.40324e-07
1.26937e-07
-5.35067e-08
-9.67229e-08
1.74071e-07
-5.4621e-08
2.34082e-07
-5.38725e-08
2.52655e-07
-3.40688e-08
2.49552e-07
1.58789e-08
3.04214e-07
4.64658e-08
3.45077e-07
8.49033e-08
3.95432e-07
9.42945e-08
5.09815e-07
1.20374e-07
1.40286e-07
5.13736e-07
2.5442e-07
-5.34423e-08
-2.47636e-07
2.60977e-07
-5.48695e-08
2.58442e-07
-5.03364e-08
2.65482e-07
-4.05843e-08
3.07683e-07
-2.59767e-08
3.12147e-07
1.02162e-08
2.84004e-07
5.61106e-08
3.32565e-07
5.16279e-08
3.99975e-07
5.96572e-08
7.38855e-08
4.71211e-07
3.6504e-07
-9.72876e-08
-3.2435e-07
3.92221e-07
-8.5155e-08
4.45733e-07
-6.2775e-08
4.48571e-07
-4.29177e-08
4.48761e-07
-2.55747e-08
4.61776e-07
-2.28327e-09
4.8059e-07
3.62775e-08
4.65596e-07
4.65195e-08
4.54226e-07
5.05947e-08
6.5647e-08
4.935e-07
4.50462e-07
-1.4564e-07
-3.93608e-07
4.92455e-07
-1.37419e-07
5.34604e-07
-1.08108e-07
5.63187e-07
-7.35275e-08
5.77618e-07
-4.24744e-08
6.11783e-07
-7.54408e-09
6.18994e-07
2.92523e-08
6.10628e-07
5.49052e-08
5.95889e-07
6.53993e-08
6.8098e-08
5.93417e-07
5.30102e-07
-2.02746e-07
-4.09313e-07
6.19363e-07
-2.24688e-07
6.77548e-07
-1.65273e-07
6.99313e-07
-9.51211e-08
7.16865e-07
-5.60108e-08
7.18023e-07
-7.1054e-09
6.97977e-07
4.93234e-08
6.56147e-07
9.67484e-08
6.07964e-07
1.13608e-07
9.42822e-08
5.81748e-07
7.11632e-07
-2.67876e-07
-4.4897e-07
7.82169e-07
-2.85659e-07
8.12178e-07
-1.94477e-07
8.17318e-07
-1.02271e-07
8.1471e-07
-5.45615e-08
8.12472e-07
-4.94463e-09
7.45126e-07
1.16682e-07
6.38053e-07
2.03844e-07
5.41817e-07
2.0985e-07
1.34045e-07
5.02062e-07
8.33873e-07
-3.47489e-07
-6.22716e-07
8.20982e-07
-2.19005e-07
8.02854e-07
-1.23842e-07
8.21978e-07
-9.14681e-08
8.09214e-07
-4.15828e-08
7.59705e-07
4.41121e-08
6.62956e-07
1.94463e-07
4.6824e-07
1.72162e-07
4.34461e-07
2.04252e-07
1.52758e-07
4.36374e-07
3.97615e-07
-1.86087e-07
-5.39419e-07
2.82578e-07
-6.31594e-08
3.56514e-07
-1.65669e-08
4.64784e-07
-3.55232e-09
3.90521e-07
1.2216e-08
2.67561e-07
5.34005e-08
1.34431e-07
1.03647e-07
2.40166e-07
7.92425e-08
3.2282e-07
1.58641e-07
1.22882e-07
4.03453e-07
1.24026e-07
-9.13824e-08
-1.84425e-07
8.21439e-08
-2.11805e-08
4.87208e-08
1.68826e-08
3.5159e-08
1.02893e-08
3.24959e-08
9.78249e-09
5.82218e-08
1.29333e-08
1.33871e-07
1.97572e-08
2.54695e-07
8.14637e-08
4.38839e-07
1.71819e-07
1.37531e-07
4.33933e-07
8.81318e-08
-7.09448e-08
-1.08561e-07
8.05637e-08
-1.36337e-08
7.81444e-08
1.93371e-08
1.38865e-07
3.31793e-08
1.64785e-07
4.3752e-09
2.18141e-07
-1.91482e-08
2.52417e-07
1.81382e-08
3.65342e-07
8.30729e-08
4.49887e-07
1.7525e-07
1.91234e-07
3.99764e-07
7.61944e-08
-6.94726e-08
-7.7688e-08
9.63912e-08
-3.38519e-08
1.24172e-07
-8.4653e-09
1.55296e-07
2.0908e-09
1.58691e-07
1.0912e-09
1.85426e-07
2.37991e-09
1.35116e-07
4.97909e-08
1.39192e-07
7.63908e-08
1.89587e-07
1.26245e-07
2.30724e-07
1.29305e-07
2.91846e-08
-6.81653e-08
-3.04827e-08
3.5007e-08
-3.95667e-08
4.12123e-08
-1.51415e-08
4.55942e-08
-2.20752e-09
3.762e-08
9.04552e-09
2.8647e-09
3.84128e-08
-2.55248e-08
7.74822e-08
-4.81583e-08
9.81535e-08
-9.24354e-08
1.06943e-07
1.94865e-07
-1.53273e-07
-8.13969e-08
-7.04156e-08
8.35167e-08
-7.7976e-08
-4.28205e-08
-7.76116e-08
-1.53367e-08
-8.46667e-08
5.01916e-09
-1.00394e-07
2.55565e-08
-1.12943e-07
5.05561e-08
-1.15099e-07
7.90956e-08
-1.12833e-07
9.52441e-08
-1.74829e-07
1.12451e-07
1.85927e-07
-2.8949e-07
-1.95744e-07
-7.81072e-08
2.03319e-07
-1.86842e-07
-5.18578e-08
-1.80083e-07
-2.22343e-08
-1.80899e-07
5.69275e-09
-1.82903e-07
2.74096e-08
-1.7953e-07
4.70034e-08
-1.69356e-07
6.86134e-08
-1.76082e-07
1.01405e-07
-3.96481e-07
1.62366e-07
1.94613e-07
-4.04931e-07
-2.52611e-07
-8.63595e-08
2.60871e-07
-2.45395e-07
-5.91916e-08
-2.41802e-07
-2.59635e-08
-2.37976e-07
1.71656e-09
-2.30926e-07
2.01799e-08
-2.19513e-07
3.5181e-08
-3.80817e-07
8.03741e-08
-4.88812e-07
1.31653e-07
-4.66581e-07
1.4037e-07
1.67271e-07
-4.38846e-07
-3.05173e-07
-1.68918e-07
3.88039e-07
-2.5398e-07
-1.10597e-07
-2.18295e-07
-1.10424e-07
-4.86848e-07
-4.35545e-08
-5.45691e-07
5.6998e-11
-5.42198e-07
3.87408e-08
-5.28967e-07
6.34422e-08
-4.96017e-07
9.89044e-08
-4.82385e-07
1.27132e-07
1.57871e-07
-4.72592e-07
-5.44815e-07
-2.82058e-07
7.99653e-07
-4.78716e-07
-1.56153e-07
-6.76849e-07
-5.97898e-08
-6.35156e-07
-8.62817e-08
-5.801e-07
-5.78578e-08
-5.43789e-07
-1.00423e-08
-5.52082e-07
3.15279e-08
-5.59867e-07
8.85925e-08
-5.58569e-07
1.26036e-07
1.59797e-07
-5.60103e-07
-8.0053e-07
-3.56936e-07
8.7825e-07
-5.98857e-07
-2.77167e-07
-4.3225e-07
-1.9857e-07
-3.98062e-07
-1.23446e-07
-3.87003e-07
-6.98322e-08
-3.73101e-07
-2.42924e-08
-3.64433e-07
2.12217e-08
-5.37504e-07
5.52551e-08
-6.16211e-07
8.77861e-08
1.23677e-07
-6.18911e-07
-7.34381e-07
-4.71238e-07
8.42606e-07
-5.88172e-07
-4.23287e-07
-4.70654e-07
-2.87537e-07
-3.37487e-07
-1.42658e-07
-3.27941e-07
-7.97266e-08
-3.35572e-07
-1.82994e-08
-3.50528e-07
3.47444e-08
-3.53561e-07
5.74596e-08
-3.39641e-07
7.17516e-08
9.21926e-08
-3.18363e-07
-6.48885e-07
-4.34474e-07
6.23861e-07
-5.52656e-07
-5.34733e-07
-3.80136e-07
-4.59153e-07
-3.52252e-07
-1.70419e-07
-4.37566e-07
1.34697e-08
-2.69089e-07
4.29399e-08
-2.80932e-07
4.57603e-08
-2.89979e-07
6.55458e-08
-2.96207e-07
7.71518e-08
8.93502e-08
-2.9548e-07
-4.66484e-07
-4.35484e-07
4.51269e-07
-5.6127e-07
-5.02592e-07
-3.9804e-07
-6.22261e-07
-2.18151e-07
-3.50257e-07
-2.48532e-07
4.40274e-08
-3.21221e-07
1.16751e-07
-3.20375e-07
1.31525e-07
-2.0259e-07
1.34881e-07
-2.12723e-07
8.51645e-08
9.36721e-08
-2.20022e-07
-3.45127e-07
-4.45633e-07
3.36652e-07
-3.58255e-07
-5.10449e-07
-3.97809e-07
-7.2315e-07
-2.18916e-07
-5.28973e-07
-2.0687e-07
3.21584e-08
-2.63462e-07
1.73349e-07
-2.94657e-07
1.62452e-07
-2.8431e-07
1.676e-07
-2.50582e-07
1.70826e-07
1.7453e-07
-2.33881e-07
-3.26225e-07
-4.34061e-07
2.93684e-07
-3.45516e-07
-5.12512e-07
-4.23201e-07
-7.84639e-07
-3.38641e-07
-6.13439e-07
-2.93821e-07
-1.38006e-08
-3.12139e-07
1.75832e-07
-3.15149e-07
1.65335e-07
-3.01937e-07
1.5445e-07
-2.9315e-07
1.62191e-07
1.7235e-07
-2.88804e-07
-3.42861e-07
-3.99408e-07
2.86855e-07
-3.87086e-07
-5.05448e-07
-5.32951e-07
-6.99219e-07
-4.20505e-07
-7.26005e-07
-2.77402e-07
-1.60569e-07
-2.73287e-07
1.61066e-07
-2.84622e-07
1.76512e-07
-2.83303e-07
1.53138e-07
-2.7305e-07
1.51954e-07
1.57664e-07
-2.58222e-07
-3.73968e-07
-3.70061e-07
3.19874e-07
-4.35574e-07
-4.65634e-07
-5.62804e-07
-5.8684e-07
-5.05678e-07
-7.83586e-07
-2.15706e-07
-4.60742e-07
-1.88754e-07
1.27623e-07
-2.16801e-07
2.04565e-07
-2.45089e-07
1.81429e-07
-2.48692e-07
1.55562e-07
1.4422e-07
-2.35237e-07
-2.49663e-07
-3.75793e-07
2.21252e-07
-3.76483e-07
-3.63842e-07
-4.73316e-07
-5.11135e-07
-5.12231e-07
-7.45644e-07
-2.21205e-07
-7.55924e-07
-2.08944e-08
-6.83187e-08
-9.00606e-08
2.29273e-07
-1.49182e-07
2.40554e-07
-1.86195e-07
1.92579e-07
1.42892e-07
-1.84863e-07
-1.51557e-07
-3.23138e-07
1.0062e-07
-2.23527e-07
-3.46944e-07
-3.03842e-07
-4.47588e-07
-4.74413e-07
-5.88388e-07
-3.41568e-07
-8.91678e-07
6.89361e-09
-4.1583e-07
2.77292e-08
1.45489e-07
2.15671e-08
1.49017e-07
-1.2942e-08
1.46702e-07
9.66706e-08
-2.19998e-08
1.00301e-08
-3.25606e-07
-6.46274e-09
-4.45011e-08
-2.91903e-07
-2.09806e-07
-3.10016e-07
-3.08862e-07
-4.27569e-07
-2.8683e-07
-9.12605e-07
-1.85487e-08
-6.81566e-07
2.50754e-08
1.23425e-07
2.38981e-08
1.41925e-07
4.40348e-08
1.20427e-07
5.59107e-08
7.65252e-08
1.05877e-07
-2.78042e-07
-1.52931e-07
6.92892e-08
-2.54857e-07
-4.64013e-08
-2.05374e-07
-1.31866e-07
-2.68799e-07
-1.36963e-07
-8.67192e-07
-4.32584e-08
-7.68066e-07
5.7896e-09
9.97286e-08
2.20392e-08
1.50625e-07
6.35572e-08
7.20302e-08
6.98608e-08
9.644e-08
1.7431e-07
-2.17526e-07
-2.34368e-07
1.27245e-07
-2.07384e-07
2.76701e-08
-1.33705e-07
-1.19191e-07
-1.5573e-07
-1.21981e-07
-8.43875e-07
-9.215e-08
-7.99948e-07
-3.38973e-08
5.10442e-08
5.3788e-08
1.13576e-07
1.01583e-07
7.90165e-08
6.92669e-08
1.33241e-07
1.90705e-07
-1.78637e-07
-2.29194e-07
1.50648e-07
-1.66941e-07
7.73071e-08
-1.0703e-07
-3.91045e-08
-7.92971e-08
-5.1559e-08
-8.28164e-07
-3.53396e-08
-8.20934e-07
1.11562e-07
-3.60021e-08
1.17024e-07
1.10132e-07
1.10857e-07
8.64069e-08
7.71578e-08
1.03827e-07
1.87412e-07
-1.32903e-07
-2.32816e-07
1.40542e-07
-1.19708e-07
6.65963e-08
-6.17438e-08
2.75385e-08
-5.03745e-08
2.23464e-08
-8.32578e-07
2.53161e-08
-8.65786e-07
7.72236e-08
-1.01589e-07
1.57922e-07
7.0484e-08
1.52146e-07
9.57402e-08
8.01024e-08
1.49896e-07
4.23969e-08
-9.9966e-08
-7.50303e-08
-1.94186e-09
-6.50139e-08
-1.06125e-08
-3.1112e-09
1.11569e-08
-7.48606e-08
3.60794e-08
-8.68639e-07
1.08947e-08
-8.75474e-07
4.33071e-08
-1.47532e-07
9.88418e-08
1.38716e-08
1.42852e-07
4.64562e-08
4.39283e-08
1.72629e-07
-1.55778e-07
-8.68338e-08
1.32995e-07
-5.83252e-08
-1.68457e-08
-6.06372e-08
1.63887e-08
1.03874e-08
-1.49871e-07
4.51713e-08
-9.00729e-07
3.16162e-08
-8.83173e-07
8.57006e-09
-1.39527e-07
2.49812e-08
-3.67369e-09
1.8413e-08
5.20668e-08
8.87305e-09
5.24186e-08
-2.12833e-08
-5.10048e-08
1.59273e-08
-1.42205e-08
5.17583e-10
-1.71512e-08
2.46681e-08
3.90958e-08
-2.25225e-07
3.45488e-08
-8.9304e-07
3.07214e-08
-8.84771e-07
8.60509e-09
-1.35173e-07
3.29221e-09
6.79652e-10
2.38255e-09
5.18487e-08
-5.50342e-08
8.11938e-08
-5.61622e-08
-1.07085e-08
1.87001e-08
-4.45653e-08
-1.10085e-08
-3.62513e-09
-2.66518e-08
-2.3302e-08
-2.11858e-07
-1.32058e-08
-9.00425e-07
-1.17861e-08
-8.70422e-07
-2.18426e-08
-1.34483e-07
-3.96608e-08
3.21754e-08
1.91329e-08
2.58184e-08
-1.43325e-07
1.34476e-07
-2.88157e-08
-1.19281e-08
5.15299e-09
-2.16475e-08
-2.63744e-08
-5.79766e-10
-5.81132e-08
-2.42391e-08
-1.73817e-07
-2.53888e-08
-8.96564e-07
-1.30165e-08
-8.63796e-07
1.43513e-09
-1.39222e-07
-3.6827e-08
5.61807e-08
1.15399e-07
-9.8816e-08
-1.13438e-07
1.16958e-07
2.57683e-08
-2.74644e-08
-9.6626e-09
1.74256e-08
-2.09375e-08
5.80071e-09
-3.8276e-08
3.80414e-09
-1.5459e-07
-5.58184e-09
-8.69673e-07
-9.22276e-09
-8.51894e-07
2.14585e-09
-1.3882e-07
1.52842e-08
4.67374e-08
1.26342e-08
-6.66066e-08
-4.62298e-08
5.2244e-09
1.89129e-08
-2.25779e-08
-2.30168e-08
2.84879e-08
-2.98077e-08
2.08175e-08
-2.9823e-08
1.62642e-08
-1.405e-07
9.90755e-09
-8.4465e-07
-1.86448e-09
-8.39336e-07
2.12558e-09
-1.44975e-07
2.63768e-08
2.84613e-08
1.1523e-08
-2.55846e-08
-3.1441e-08
8.25002e-10
1.90155e-08
-6.28702e-09
-3.88188e-09
1.47581e-08
-2.31883e-08
-7.38194e-13
-1.67312e-08
-7.0565e-09
-1.36634e-07
-2.33284e-08
-8.42743e-07
-1.6671e-08
-8.25122e-07
-1.39778e-08
-1.47876e-07
-6.60501e-10
1.56147e-08
-4.91496e-09
-1.50058e-08
-1.67869e-08
-3.76647e-10
4.87424e-09
-6.71461e-10
-5.7862e-10
-2.70457e-10
-8.69505e-10
-5.67631e-10
-3.20937e-09
5.99001e-09
-1.44608e-07
1.24214e-09
-8.40664e-07
-4.91282e-11
-8.30174e-07
0
-1.48846e-07
-2.44405e-09
2.39722e-08
1.05265e-08
-2.06222e-08
-1.07297e-09
2.27555e-10
-3.28787e-10
-9.05229e-12
2.26126e-13
-5.49978e-10
1.24468e-09
2.96105e-09
-1.9078e-11
6.46527e-09
-1.48181e-07
-5.66739e-09
-8.29837e-07
-9.04428e-09
-8.30446e-07
-7.40646e-09
-1.523e-07
-2.01403e-09
1.09023e-08
2.77554e-11
-2.72993e-09
-9.2517e-10
-9.18795e-11
-5.99193e-10
-2.65601e-10
6.28587e-10
0
-4.96022e-11
8.93363e-12
-3.56504e-11
9.38268e-09
-1.65478e-07
-8.00544e-10
-8.22937e-07
-1.17777e-08
-8.21469e-07
0
-1.67151e-07
1.97932e-09
-4.18855e-12
2.62141e-12
-3.34397e-10
-5.2392e-10
4.60778e-11
8.08891e-11
-1.8971e-10
-2.38742e-12
1.50284e-10
-3.97701e-11
1.25388e-10
-1.94227e-11
1.37075e-08
-1.87087e-07
-3.18703e-09
-8.09289e-07
-1.84835e-08
-8.08633e-07
-4.74349e-12
-1.91607e-07
0
-6.58536e-12
1.8876e-10
6.69376e-11
-1.3081e-10
-6.83597e-12
-9.55624e-12
1.50206e-12
-1.29855e-11
0
-1.15204e-11
3.38753e-12
-3.15577e-11
1.80587e-08
-2.06489e-07
5.68746e-09
-7.9579e-07
-1.01389e-08
-7.976e-07
-4.76937e-12
-2.11661e-07
0
-9.37698e-12
1.06207e-10
2.66064e-12
-1.96241e-11
1.37643e-13
1.31468e-10
5.60537e-11
-7.70144e-11
1.03328e-10
2.96683e-11
9.33526e-11
-3.02736e-11
2.8469e-08
-2.27607e-07
1.74916e-08
-7.81056e-07
-1.99051e-09
-7.8369e-07
-3.9053e-12
-2.29364e-07
-2.85957e-12
-8.7749e-12
1.52982e-12
5.17024e-13
2.40142e-13
-1.64635e-11
1.71421e-10
6.28187e-11
-4.64434e-11
1.07754e-10
1.80884e-10
1.02403e-10
-2.43144e-11
2.9326e-08
-2.48403e-07
1.52296e-08
-7.64768e-07
-3.04487e-09
-7.68724e-07
-4.12426e-12
-2.47976e-07
-3.54906e-12
-7.84629e-12
-1.44609e-11
4.37656e-12
1.8642e-11
-5.77971e-11
2.10313e-10
2.08567e-10
-7.57335e-11
1.20622e-10
3.03653e-10
1.15775e-10
-2.00228e-11
1.57283e-08
-2.65095e-07
9.90199e-10
-7.49792e-07
-1.85479e-08
-7.48957e-07
-3.98673e-12
-2.67143e-07
-2.81089e-12
-7.45609e-12
-1.30877e-11
5.15529e-12
2.29151e-11
-4.95794e-11
3.29962e-10
2.58158e-10
-1.62398e-11
1.68298e-10
4.84607e-10
1.48428e-10
-7.12779e-12
1.67682e-08
-2.79519e-07
1.32535e-09
-7.3245e-07
-2.01503e-08
-7.27892e-07
-3.01922e-12
-2.84607e-07
-1.72909e-12
-7.17709e-12
-6.68365e-13
1.78877e-12
9.94018e-12
-3.54716e-11
8.38258e-11
1.92106e-10
-9.12667e-11
8.95747e-12
5.92556e-10
2.62141e-12
-9.17722e-12
3.7333e-08
-2.96184e-07
1.58073e-08
-7.08395e-07
-2.57144e-09
-7.11449e-07
-1.32263e-12
-2.95679e-07
-1.48464e-12
-6.81144e-12
0
2.20072e-12
3.34702e-12
0
-5.088e-11
2.72107e-12
2.51173e-12
2.23839e-11
1.01799e-11
1.50791e-11
-9.53864e-12
3.12229e-08
-3.14127e-07
7.73171e-09
-6.84792e-07
-1.58838e-08
-6.8785e-07
-5.88643e-13
-3.09916e-07
-7.86862e-13
-7.76118e-12
-2.18654e-12
2.16115e-12
6.0304e-12
-6.75941e-12
-3.46672e-12
3.9946e-12
1.12929e-12
5.33765e-12
0
4.08717e-12
-1.49685e-11
1.54522e-08
-3.28322e-07
-8.48273e-09
-6.61866e-07
-3.07478e-08
-6.6431e-07
-9.70465e-12
-3.2848e-07
-3.86648e-12
-1.33957e-11
0
3.97374e-12
3.97485e-12
-1.77496e-12
-5.12303e-13
3.82872e-12
2.5436e-13
5.61052e-12
2.60273e-12
3.9214e-11
-5.22354e-11
2.06206e-08
-3.51114e-07
-5.87456e-09
-6.35858e-07
-3.4333e-08
-6.35654e-07
-4.44074e-11
-3.54755e-07
-7.1981e-12
-4.89586e-11
-7.25443e-14
2.1294e-12
1.1189e-11
1.72696e-12
2.23313e-12
9.8496e-12
1.12515e-12
1.00899e-11
1.13275e-12
2.9869e-10
-3.41895e-10
3.45352e-08
-3.8276e-07
1.6672e-09
-6.04531e-07
-2.14835e-08
-6.11099e-07
-2.96566e-10
-3.83151e-07
-6.24322e-12
-3.37455e-10
-5.19108e-13
-1.87553e-14
6.534e-12
8.0379e-12
0
1.2548e-11
7.9826e-12
1.18082e-12
-1.35604e-13
1.99237e-09
-2.33307e-09
1.57109e-08
-4.13081e-07
-8.51634e-09
-5.80502e-07
-4.1916e-08
-5.77668e-07
-2.20628e-09
-4.14861e-07
-5.09967e-14
-2.54367e-09
1.82729e-15
-6.46302e-14
1.82911e-13
1.04293e-11
-6.07042e-14
5.71234e-12
1.63119e-11
7.14541e-14
-3.56131e-13
1.0207e-08
-1.254e-08
2.61359e-08
-4.33358e-07
-5.3173e-10
-5.53817e-07
-2.99175e-08
-5.4832e-07
-1.01678e-08
-4.38125e-07
-3.12912e-14
-1.27114e-08
6.26632e-15
-9.72765e-14
-9.90752e-14
2.95201e-13
3.80109e-13
1.16487e-13
2.065e-12
6.5585e-13
-7.19442e-13
2.21932e-08
-3.66983e-08
3.92477e-08
-4.51507e-07
-3.28881e-09
-5.11284e-07
-2.35505e-08
-5.28018e-07
-2.08608e-08
-4.41705e-07
-6.70205e-13
-3.48079e-08
-1.71651e-13
-5.94325e-13
-1.37451e-14
0
7.16973e-13
-1.86556e-14
-1.42595e-12
6.89593e-12
-7.00687e-12
2.18744e-08
-5.76531e-08
3.04827e-09
-4.31762e-07
-2.2788e-08
-4.85452e-07
-6.72992e-08
-4.83497e-07
-4.60822e-08
-4.61958e-07
-9.9477e-12
-8.021e-08
-1.52867e-13
-1.03889e-11
-1.22127e-15
-1.64542e-13
4.50515e-13
-2.24938e-14
-4.50932e-13
1.05201e-10
-1.11819e-10
5.51412e-08
-1.1069e-07
5.96529e-08
-4.35068e-07
2.94549e-08
-4.5526e-07
-8.46203e-09
-4.45574e-07
-3.92719e-08
-4.30918e-07
-1.57548e-10
-1.1929e-07
-8.43224e-14
-1.6785e-10
-8.43872e-14
-3.95837e-16
2.25806e-12
-2.26167e-12
-1.89982e-14
1.72382e-09
-1.83339e-09
7.28402e-08
-1.81792e-07
3.21846e-08
-3.94436e-07
-1.88902e-08
-4.04186e-07
-5.65233e-08
-4.07941e-07
-8.35892e-08
-4.03813e-07
-2.44647e-09
-2.0108e-07
-3.42307e-12
-2.61088e-09
-3.50745e-12
-4.02947e-18
7.61628e-11
-7.84245e-11
-3.72103e-19
1.66812e-08
-1.84386e-08
9.54293e-08
-2.59929e-07
6.27064e-08
-3.61715e-07
2.54554e-08
-3.66935e-07
-1.94332e-08
-3.63052e-07
-7.42651e-08
-3.48981e-07
-1.95259e-08
-2.56813e-07
-8.61902e-11
-2.20503e-08
-8.96977e-11
-1.93207e-17
1.96437e-09
-2.04279e-09
-2.07623e-24
5.63529e-08
-7.30533e-08
8.52274e-08
-2.88288e-07
3.08251e-08
-3.07312e-07
-2.32111e-08
-3.12899e-07
-7.13267e-08
-3.14937e-07
-1.06755e-07
-3.13552e-07
-7.24688e-08
-2.91331e-07
-2.37437e-09
-9.19172e-08
-2.46407e-09
-5.94919e-17
3.31513e-08
-3.51941e-08
-7.9294e-23
1.45908e-07
-1.87082e-07
1.11809e-07
-2.54241e-07
7.02173e-08
-2.6572e-07
2.42041e-08
-2.66886e-07
-2.66888e-08
-2.64044e-07
-8.37382e-08
-2.56503e-07
-1.29866e-07
-2.45202e-07
-3.44167e-08
-1.87765e-07
-3.68807e-08
8.71104e-31
9.20538e-08
8.34023e-29
9.53e-08
5.51936e-08
1.67078e-08
-1.70224e-08
-4.70791e-08
-7.28998e-08
-9.90051e-08
-9.29442e-08
5.33758e-37
1.72007e-08
4.43876e-10
1.3316e-08
3.88492e-09
5.45357e-09