/*--------------------------------*- C++ -*----------------------------------*\
  =========                 |
  \\      /  F ield         | OpenFOAM: The Open Source CFD Toolbox
   \\    /   O peration     | Website:  https://openfoam.org
    \\  /    A nd           | Version:  8
     \\/     M anipulation  |
\*---------------------------------------------------------------------------*/
FoamFile
{
    version     2.0;
    format      ascii;
    class       volScalarField;
    location    "6.15";
    object      p_rgh;
}
// * * * * * * * * * * * * * * * * * * * * * * * * * * * * * * * * * * * * * //

dimensions      [1 -1 -2 0 0 0 0];

internalField   nonuniform List<scalar> 
9150
(
1962.46
1961.45
1960.81
1960.35
1960.12
1960.12
1960.36
1960.83
1961.45
1962.46
1962.02
1961.51
1961.08
1960.75
1960.58
1960.58
1960.76
1961.08
1961.51
1962.02
1961.75
1961.47
1961.21
1960.99
1960.88
1960.88
1961
1961.21
1961.47
1961.75
1961.63
1961.45
1961.28
1961.13
1961.05
1961.05
1961.13
1961.29
1961.46
1961.63
1961.63
1961.45
1961.31
1961.18
1961.12
1961.13
1961.19
1961.31
1961.45
1961.63
1950.62
1949.87
1950.19
1950.56
1950.74
1950.73
1950.53
1950.15
1949.81
1950.56
1954.73
1954.01
1953.88
1953.81
1953.91
1953.9
1953.8
1953.87
1954
1954.72
1957.84
1957.08
1956.8
1956.41
1956.36
1956.38
1956.46
1956.82
1957.12
1957.88
1960.59
1959.43
1958.97
1958.35
1958.16
1958.18
1958.36
1958.98
1959.45
1960.61
1963.14
1961.1
1960.33
1959.67
1959.38
1959.37
1959.63
1960.32
1961.08
1963.13
1945.64
1944.65
1942.65
1941.65
1941.23
1941.3
1941.9
1942.91
1944.59
1945.41
1945.28
1945.04
1944.05
1943.63
1943.14
1943.11
1943.52
1943.82
1944.79
1945.02
1944.69
1944.86
1943.83
1944.16
1943.68
1943.65
1944.12
1943.7
1944.73
1944.54
1941.51
1944.35
1943.38
1944.87
1944.72
1944.71
1944.82
1943.31
1944.28
1941.41
1935.71
1945.07
1945.61
1946.93
1947.34
1947.32
1946.88
1945.54
1944.99
1935.6
1193.96
1193.92
1194.04
1193.99
1193.81
1193.52
1193.34
1192.84
1192.8
1192.55
1193.92
1193.9
1194.01
1193.94
1193.87
1193.5
1193.06
1192.87
1192.48
1192.5
1193.84
1193.83
1193.73
1193.65
1193.87
1193.75
1192.93
1192.76
1192.34
1192.37
1193.6
1193.66
1193.34
1193.28
1193.51
1193.41
1192.64
1192.49
1192.27
1192.18
1192.78
1193.25
1192.93
1192.79
1192.75
1193.08
1192.46
1192.14
1192.1
1191.68
1192.08
1192.87
1192.31
1192.12
1191.98
1192.3
1192.05
1190.84
1191.15
1190.98
1191.86
1192.31
1191.8
1191.58
1191.69
1191.55
1191.35
1189.69
1189.37
1189.84
1191.68
1191.6
1191.47
1191.28
1191.13
1190.96
1190.74
1189.04
1188.62
1189.31
1191
1190.93
1190.76
1190.61
1190.47
1190.3
1190.09
1189.71
1189.04
1189.16
1190.16
1190.14
1190.03
1189.93
1189.85
1189.72
1189.53
1189.33
1189.15
1188.87
1189.33
1189.44
1188.58
1187.32
1187.65
1187.97
1188.81
1187.64
1188.69
1188.38
1188.79
1185.13
1182.15
1182.32
1182.38
1182.31
1182.25
1182.34
1182.12
1182.66
1186.67
1182.35
1180.05
1181.73
1183.97
1182.42
1182.26
1184.86
1183.12
1181.65
1182.07
1180.97
1181.5
1183.84
1185.64
1187.39
1188.59
1190.27
1189.96
1189.14
1158.65
1170.75
1176.04
1178.66
1179.03
1180.65
1184.56
1186.84
1187.9
1187.95
1129.88
1155.63
1176.88
1179.58
1170.19
1172.32
1174.01
1187.68
1188.94
1169.99
1140.89
1179.1
1182.83
1183.51
1174.79
1174.42
1174.86
1187.21
1189.76
1155.06
1185.6
1187.32
1186.96
1186.69
1185.3
1187.02
1188.11
1188.29
1166.88
1150.91
1191.22
1190.94
1190.66
1190.47
1190.8
1190.64
1190.7
1161.03
1153.17
1163.69
1193.23
1193.13
1192.79
1192.67
1193.17
1178.23
1156.88
1155.08
1156.71
1170.86
1195.14
1194.78
1194.16
1168.31
1136.24
1137.27
1155.51
1170.46
1185.14
1158.81
1197.08
1194.76
1140.59
1126.83
1127.34
1134.38
1179.51
1196.06
1183.53
1131.27
1197.41
1141.98
1125.38
1124.77
1124.53
1172.98
1189.33
1196.29
1178.6
1123.81
1149.03
1122.4
1123.05
1127.48
1164.66
1184.66
1194.67
1194.48
1186.06
1122.87
1122.89
1122.09
1161.02
1186.54
1190.41
1182.19
1193.35
1192.2
1185.01
1118.08
1132.45
1182.79
1196.17
1195.73
1188.81
1180.07
1191.84
1189.89
1170.88
1109.46
1188.94
1195.61
1195.43
1194.7
1190.52
1189.11
1189.9
1185.62
1124.71
1104.61
1197.18
1196.8
1195.95
1195.01
1193.78
1191.6
1188.37
1159.02
1124.25
1126.19
1199.09
1199.07
1198.14
1197.53
1195.45
1192.64
1189.17
1163.73
1142.18
1171.12
1201.42
1203.79
1202.73
1201.25
1199.07
1196.29
1192.83
1187.21
1181.79
1157.75
1187.29
1211.94
1210.37
1208.54
1206.11
1203.02
1199.08
1194.24
1174.81
1081.41
1104.02
1203.53
1220.34
1217.55
1214.45
1211.04
1207.02
1185.55
1097.7
1082.84
1033.74
1100.97
1227.37
1226
1223.99
1220.41
1216.63
1202.71
1095.52
1088.43
1033.17
1028.1
1112.91
1186.87
1205.6
1196.11
1217.55
1216.25
1197.55
1147.81
1075.46
1030.8
1026.18
1019.46
1014.46
1122.47
1227.64
1223.3
1219.28
1214.37
1254.62
1231.01
1053.37
1017.91
1013.37
1007.88
1116.41
1230.41
1226.97
1221.9
1257.52
1258.52
1258.83
1251.9
1042.72
1009.17
1008.33
1005.42
1133.58
1227.83
1232.72
1248.81
1257.61
1257.85
1257.21
1245.15
1050.27
1012.65
1014.41
1013.26
1170.36
1172.69
1219.92
1256.42
1257.18
1256.1
1249.98
1230.8
1140.58
1138.37
1227.88
1227.56
1217.39
1217.09
1216.03
1236.89
1250.2
1247.13
1243.96
1241.72
1186.32
1236.55
1240.71
1235.66
1235.62
1241.45
1240.52
1239.29
1238.9
1238.81
1036.42
1217.58
1222.98
1221.65
1221.82
1222.05
1223.21
1225.98
1229.79
1231.05
993.771
1127.01
1132.65
1158.87
1174.37
1176.13
1181.81
1077.35
1105.46
1206.58
889.55
661.661
627.623
835.553
1049.23
1030.75
853.297
708.445
804.626
1134.94
542.623
534.136
535.162
536.75
596.282
605.107
619.003
645.028
924.076
1198.37
530.657
529.749
530.075
712.313
795.439
799.159
646.508
729.2
1063.45
1210
519.351
516.54
515.219
513.748
513.049
743.64
621.5
540.744
846.984
1141.29
507.39
504.126
505.43
505.951
507.703
521.02
513.818
525.633
592.921
1036.94
502.672
501.088
500.46
501.35
502.022
506.217
514.237
523.15
559.404
1093.29
508.158
505.72
505.281
506.96
509.934
514.515
520.548
528.856
909.032
1197.47
520.464
520.225
519.774
519.966
522.56
527.486
667.508
1136.04
1212.85
1217.25
533.244
534.187
546.146
911.196
1145.93
1171.27
1191.79
1230.93
1232.53
1233.92
988.665
694.757
1053.5
1158.05
1169.95
1178.19
1216.33
1246.4
1247.26
1248.32
1262.61
1171.96
803.636
800.922
799.335
794.447
790.433
934.376
1203.7
1188.71
1286.85
1321.08
1316.99
937.86
817.944
812.014
805.756
800.625
798.254
804.272
1023.04
1321.99
1351.42
1357.81
1351.58
1048.87
810.258
805.929
801.778
800.119
840.406
977.104
1337.02
1345.87
1348.07
1347.96
1264.74
939.925
801.603
801.49
825.666
836.553
1256.88
1315.51
1319.46
1328.75
1332.93
1302.92
1137.69
1050.35
821.793
826.573
1233.74
1300.45
1296.52
1294.49
1328.47
1332.31
1333.51
1331.79
821.438
831.735
1203.52
1319.23
1302.02
1272.82
1340.99
1340.04
1338.68
1336.97
819.499
846.478
968.833
1337.69
1341.16
1295.61
1358.7
1351.78
1347.72
1343.88
1180.24
863.271
872.197
1233.28
1350.58
1310.68
1188.65
1359.38
1350.94
1345.79
1289.48
1042.37
855.369
866.857
1336.5
1360.3
953.878
970.676
935.187
952.076
1300.04
1305.02
991.199
632.326
1316.88
1343.99
982.603
785.28
776.461
777.922
1310.16
1316.07
1160.25
512.327
1175.01
1186.47
1284.21
797.549
779.081
816.95
1322.59
1323.66
1219.91
450.099
1115.43
1138.51
1363.39
1236.73
1173.91
1300.9
1333.3
1334.41
1280.25
432.499
1121.4
1156.01
1293.86
1388.94
1381.57
1376.32
1345.16
1347.62
1328.61
403.701
1136.55
1192
393.538
640.13
1319.6
1372.4
1357.69
1343.54
1230.35
378.562
1213.93
1231.25
342.168
297.454
364.82
541.344
1168.43
1043.1
334.922
342.54
1264.35
1254.78
337.829
289.095
290.491
299.138
622.526
955.057
314.692
351.193
1288.84
1248.77
323.738
287.729
286.9
674.984
210.085
343.204
311.903
378.484
1310.33
1258.91
338.865
318.731
801.511
1061.17
99.138
317.928
317.311
279.699
1318.64
1273.54
346.472
378.389
1079.47
1067.04
149.658
226.814
282.332
249.029
1313.33
1278.62
293.237
296.604
809.833
296.498
336.307
338.201
339.368
248.404
1301.78
1306.12
254.123
284.273
267.698
146.918
267.934
341.563
340.786
234.931
1340.02
1312.29
252.498
322.75
396.083
146.485
9.25656
78.2971
246.186
229.383
1375.92
1364.52
254.959
404.363
404.523
47.9469
11.5103
52.1289
83.6566
229.203
1419.01
1388.68
254.996
361.548
76.3192
0.853389
2.80745
1.80418
0.34061
261.409
1446.28
1450.57
255.072
101.258
4.54277
4.33052
2.61667
1.77352
0.350397
309.124
1481.33
1487.13
310.941
0.145152
6.48089
2.53017
0.956437
1.1736
0.298927
364.543
1514.12
1528.11
373.642
-0.0435355
2.18104
0.773393
0.979881
1.37007
0.292237
414.474
1545.35
1560.03
423.834
-0.0551068
-0.0255227
0.303148
0.626394
2.49283
0.269174
472.664
1581.17
1585.1
475.856
-0.026861
0.0355699
0.841497
1.11385
2.57858
0.246216
533.948
1610.31
1611.43
534.874
-0.0284694
0.0384778
0.850311
2.29775
2.61279
0.283501
590.314
1631.21
1642.05
597.874
-0.0431265
-0.00714711
0.473366
2.24983
2.5672
0.228128
649.513
1657.6
1668.49
660.72
-0.0391783
-0.0244287
0.0354224
0.59244
1.1459
0.0965204
725.301
1693.01
1681.2
717.584
-0.0132372
-0.0172926
-0.0217189
0.0560365
0.0763523
0.0652565
808.146
1716.48
1705.82
798.034
-0.0198887
0.0170095
-0.0273881
0.0496142
0.113634
0.0691214
896.82
1733.58
1736.1
900.347
-0.0333047
0.0478947
-0.0186898
0.135337
0.127233
0.0623183
1028.85
1756.78
1756.94
1033.04
-0.0238466
-0.0082429
0.115016
0.205026
0.0432484
0.0352121
1189.54
1781.21
1774.44
1181.41
-0.0265109
-0.0256275
0.0206277
0.191465
0.0346537
0.0411979
1350.27
1797.06
1797.14
1352.3
-0.0288972
-0.0334967
-0.0324166
0.0550649
0.0204395
51.9667
1499.3
1817.3
1815.09
1497.27
52.5832
-0.0301434
-0.0260947
0.0219417
0.018837
202.87
1633.32
1834.27
1836.4
1635.69
220.132
-0.0280471
-0.0267935
0.0212116
0.0194729
353.919
1717.28
1853.87
1854.53
1778.14
466.913
-0.0254066
-0.0240933
0.0194695
0.0182396
748.676
1846.47
1873.39
1873.5
1842.21
767.498
-0.0276239
-0.022817
0.0192295
0.0532847
1227.67
1891.12
1892.31
1892.36
1891.56
1295.9
0.0322283
-0.0159967
0.0208235
156.205
1682.54
1910.59
1911.3
1910.83
1909.53
1674.17
228.958
-0.0115255
0.0107439
1075.7
1924.25
1926.4
1926.48
1926.62
1927.01
1926.9
1191.88
-0.0211813
646.677
1888.8
1939.25
1937.34
1936.5
1936.39
1936.94
1938.67
1880.6
661.344
1192.31
1192.06
1191.84
1191.59
1191.4
1191.21
1191.01
1190.77
1190.75
1190.3
1188.93
1188.02
1184.92
1183.09
1181.27
1179.44
1177.46
1175.78
1174.62
1173.81
1173.48
1174.39
1175.49
1177.06
1178.71
1180.29
1181.51
1181.81
1180.87
1179
1178.3
1178.1
1177.61
1177.5
1176.76
1178.23
1177.19
1180.81
1181.11
1181.64
1192.24
1191.97
1191.7
1191.35
1191.16
1191.01
1190.87
1190.83
1190.63
1190.08
1188.15
1187.05
1184.47
1182.64
1180.42
1178.46
1176.14
1173.96
1172.33
1171.37
1171.11
1171.41
1172.39
1173.96
1175.64
1177.22
1178.5
1179.14
1178.8
1176.99
1177.6
1177.33
1176.74
1176.45
1175.85
1176.36
1176.89
1176.91
1179.01
1181.49
1192.02
1191.69
1191.25
1190.77
1190.54
1190.3
1190.42
1190.23
1189.98
1189.38
1186.44
1184.72
1182.83
1181.49
1179.3
1176.9
1173.75
1170.88
1169.02
1168.19
1168.54
1167.06
1167.98
1169.67
1172.05
1174.09
1175.93
1177.41
1178.54
1180
1181.08
1180.57
1176.77
1175.72
1175.58
1176.14
1176.14
1176.17
1176.09
1178.24
1191.75
1191.26
1190.8
1190.23
1189.84
1189.67
1189.34
1188.96
1188.48
1187.7
1184.45
1182.3
1180
1181.4
1177.84
1174.04
1170.83
1167.23
1164.48
1163.29
1162.57
1162.08
1162.44
1164.72
1167.79
1170.7
1173.41
1175.51
1177.67
1179.51
1181.16
1182.3
1183.29
1184.34
1185.43
1181.44
1178.58
1177.33
1178.06
1178.69
1191.19
1190.61
1190.2
1189.74
1189.24
1188.83
1188.33
1187.8
1187.29
1186.6
1184.88
1180.68
1178.41
1178.31
1174
1169.06
1165.38
1163.15
1160.56
1159.53
1156.62
1154.74
1156.47
1159.97
1163.65
1167.19
1170.83
1174.22
1176.45
1178.61
1180.18
1182.3
1183.44
1184.46
1185.26
1185.67
1185.73
1185.56
1184.92
1184.81
1190.45
1189.64
1189.13
1188.82
1188.45
1187.87
1187.26
1186.82
1186.4
1185.98
1185.18
1182.58
1177.1
1174.77
1172.29
1163.83
1158.26
1155.02
1152.77
1150.77
1148.59
1148.07
1147.25
1147.38
1157.94
1164.88
1169.39
1173.6
1177.22
1178.64
1179.73
1181.56
1183.23
1184.19
1185.04
1185.65
1185.89
1185.71
1185.66
1183.84
1189.62
1188.79
1188.29
1188.05
1187.85
1187.51
1187.05
1186.48
1186.26
1185.91
1185.33
1184.3
1182.1
1177.74
1174.29
1169.52
1159.64
1156.83
1154.08
1151.78
1150.21
1149.22
1148.43
1148.3
1151.27
1166
1170.72
1174.49
1177.75
1180.01
1179.43
1180.09
1182.79
1183.71
1184.56
1185.34
1185.53
1185.04
1184.73
1183
1189.12
1188.42
1187.88
1187.5
1187.13
1186.85
1186.34
1185.67
1185.46
1185.53
1185.41
1184.84
1183.87
1182.5
1180.68
1179.15
1167.06
1159.22
1157.66
1156.61
1156.29
1154.77
1153.17
1153.02
1162
1171.78
1174.16
1176.57
1178.66
1178.61
1178.92
1180.1
1182.17
1182.9
1183.79
1184.53
1184.87
1184.71
1184.33
1182.81
1188.84
1188.33
1187.57
1186.6
1184.45
1183.07
1179.51
1176.89
1178.69
1183.77
1184.76
1184.56
1184.04
1183.45
1182.62
1181.45
1165.6
1161.51
1160.18
1158.68
1157.88
1157.51
1157.22
1158.9
1174.7
1176.32
1177.36
1178.49
1179.41
1177.28
1178.14
1181.18
1181.19
1181.4
1182.1
1182.87
1183.27
1182.61
1182.47
1181.92
1188.53
1188.25
1187.61
1186.56
1181.2
1175.04
1174.85
1175.21
1174.79
1180.55
1181.89
1181.75
1182.23
1183.52
1183.62
1182.92
1168.64
1163.63
1172.19
1160.7
1160.48
1160.14
1159.97
1168.9
1179.7
1179.84
1180.22
1180.6
1177.88
1177.08
1178.83
1180.36
1179.6
1178.21
1172.28
1146.57
1166.94
1180.57
1173.67
1171.1
1188.02
1187.59
1186
1185.36
1183.28
1175.06
1173.12
1180.24
1183.68
1184.23
1181.08
1181.38
1181.62
1181.63
1184.91
1185.75
1181.66
1174.59
1182.43
1166.98
1163.11
1165.43
1182.19
1183.34
1182.97
1182.75
1182.5
1179.42
1177.55
1177.05
1181.56
1181.02
1179.92
1171.16
1130.85
1130.89
1131.57
1149.47
1138.59
1133.55
1186.82
1187.25
1186.59
1183.32
1158.75
1151.12
1148.18
1168.5
1181.68
1183.69
1183.56
1181.77
1182.3
1182.56
1186.65
1187.82
1188.03
1187.83
1187.2
1185.62
1185.22
1186.06
1185.9
1185.53
1185.07
1184.55
1180.44
1178.16
1177.95
1179.38
1182.58
1182.36
1181.94
1153.62
1129.82
1130.34
1131.32
1131.93
1131.88
1132.38
1182.3
1188.14
1187.44
1187.03
1183.11
1151.3
1147.4
1146.55
1147.16
1163.59
1184.52
1185.43
1186.07
1187.93
1188.03
1186.62
1179.21
1179.33
1183.37
1188.28
1187.79
1187.46
1187.06
1186.63
1186.16
1182.89
1179.48
1178.76
1180.91
1181.55
1180.64
1183.14
1183.57
1151.57
1130.16
1130.29
1132.22
1139.02
1129.94
1130.13
1179.11
1178.71
1186.88
1188
1188.83
1189.74
1163.31
1147.06
1147.46
1149.57
1185.56
1189.69
1189.66
1189.41
1189.24
1181.42
1179.3
1179.16
1182.47
1188.76
1188.42
1188.08
1187.75
1187.33
1186.86
1183.17
1182.06
1185.02
1184.94
1182.04
1181.16
1182.43
1184.87
1140.88
1129.33
1135.72
1158.85
1159.1
1143.87
1129.65
1173.45
1151.2
1152.7
1179.04
1189.08
1190.2
1191.23
1155.22
1148.78
1162.77
1190.92
1191.31
1191.23
1190.69
1190.33
1186.42
1180.11
1181.19
1189.34
1189.41
1189.1
1188.83
1188.51
1187.97
1187.56
1187.05
1186.2
1185.2
1183.99
1177.67
1181.44
1182.89
1183.39
1162.3
1163.31
1163.53
1156
1152.06
1153.08
1154.21
1148.01
1148.3
1148.05
1156.18
1189.5
1191.45
1191.88
1180.79
1171.78
1186.96
1192.7
1192.64
1192.36
1191.75
1191.27
1190.85
1182.07
1187.04
1190.1
1189.8
1189.56
1189.34
1189.13
1188.85
1188.45
1187.88
1186.81
1185.11
1177.61
1170.38
1164.67
1174.09
1178.54
1153.82
1118.63
1114.97
1137.83
1143.68
1137.35
1132.19
1146.94
1146.72
1157.13
1178
1178.64
1181.89
1192.7
1193.57
1194.01
1194.2
1194.08
1193.87
1190.56
1189.38
1191.01
1191.46
1190.07
1189.94
1190.3
1190.1
1189.98
1189.97
1190
1190.05
1190.17
1190.26
1190.78
1181.03
1151.35
1132.73
1072.14
1040.08
1058.03
1060.92
1059.75
1063.94
1064.77
1066.33
1068.52
1069.46
1152.71
1160.83
1159.73
1146.83
1158.56
1187.96
1194.29
1194.6
1194.85
1194.94
1195.01
1190.76
1189.25
1189.63
1192.48
1191.66
1191.01
1190.59
1190.21
1190.06
1189.99
1190.17
1190.55
1191.01
1191.8
1193
1182.3
1170.52
1079.25
1046.36
1044.61
1043.37
1043.26
1134.37
1147.49
1164.96
1180.26
1162.72
1137.47
1129.56
1168.22
1143.75
1138.4
1143.55
1189.7
1195.34
1195.4
1195.49
1195.67
1194.41
1192.4
1192.87
1194.87
1193.91
1192.59
1191.45
1190.7
1190.22
1189.75
1189.49
1189.63
1190.32
1190.92
1191.03
1177.87
1169.78
1172.08
1180.67
1144.9
1048.85
1043.5
1119.43
1174.39
1178.42
1176.73
1176.17
1177.34
1122
1098.17
1116.62
1149.81
1134.27
1135.75
1189.82
1196.75
1196.4
1196.18
1194.19
1184.69
1185.14
1193.91
1195.8
1194.19
1193.01
1191.77
1190.64
1189.74
1189.48
1189.22
1181.49
1147.85
1138.85
1175.38
1187.96
1172.16
1160.36
1181.52
1191.8
1192.13
1126.38
1128.92
1177.57
1172.71
1168.28
1165.72
1166.24
1166.28
1127.68
1087.01
1085.57
1130.82
1131.63
1162.19
1196.68
1196.62
1196.37
1181.1
1175.88
1176.11
1186.7
1195.68
1194.36
1193.04
1191.79
1190.39
1187.69
1177.01
1159.13
1141.15
1129.02
1129.72
1130.02
1129.57
1131.45
1133.17
1136.09
1173.97
1193.49
1150.3
1180.62
1178.65
1164.17
1118.96
1085.65
1092.19
1073.32
1160.45
1172.59
1159.71
1084.44
1127.93
1129.35
1190.92
1196.85
1189.2
1174.17
1174.88
1175.4
1181.59
1198.1
1195.8
1193.76
1192.15
1191.13
1190.18
1174.69
1127.19
1127.38
1127.22
1127.3
1127.54
1127.69
1127.65
1127.88
1132.28
1188.52
1190.99
1186.03
1101.04
1097.48
1051.14
1011.93
931.759
912.693
913.387
939.723
1152.03
1179.72
1182.55
1093.84
1123.9
1124.25
1158.98
1196.02
1194.08
1178.56
1183.25
1197.46
1200.18
1197.62
1193.78
1191.38
1189.32
1190.03
1189.93
1190.58
1181.57
1171.3
1154.61
1130.58
1128.73
1129.58
1126.45
1136.91
1178.21
1192.04
1192.3
1188.55
1140.01
933.634
919.096
914.73
914.237
915.492
916.57
1006.7
1183.26
1189.77
1191.23
1130.88
1119.25
1119.38
1153.8
1192.81
1192.74
1191.78
1193.41
1183.53
1159.36
1139.94
1110.76
1083.78
1116.06
1120.63
1125.72
1160.34
1182.15
1182.46
1184.98
1185.82
1184.16
1185.14
1185.73
1189.29
1192.9
1194.96
1196.66
1197.07
1186.19
1003.1
935.081
919.732
918.771
917.709
1015.87
1198.98
1199.57
1198.81
1179.16
1175.28
1113.59
1116.16
1186.74
1188.22
1187.74
1121.38
1010.75
1019.67
1030.68
1166.72
1013.24
917.482
914.251
908.483
903.426
899.379
903.94
976.647
1170.31
1186.57
1188.82
1190.8
1192.73
1194.7
1196.88
1186.22
1195.02
1204.39
1207.89
1196.65
1138.3
1093.44
1081.15
1106.99
1190.04
1204.88
1204.47
1201.16
1154.83
1182.18
1106.43
1157.24
1178.13
1174.48
1069.74
909.197
1055.48
1125.74
1127.51
1133.77
1138.49
1073.49
1029.99
982.499
895.771
865.629
860.672
856.455
857.462
1012.79
1185.38
1191.26
1194.52
1197.11
1197.89
1185.6
1188.31
1199.03
1209.77
1211.18
1206.38
1212.8
1216.94
1217.22
1217.27
1203.19
1182.99
1160.4
1158.72
1187.1
1135.08
1170.27
1165.06
1080.43
869.368
839.771
1041.17
1074.18
1083.55
1093.06
1105.56
1119.25
1130.92
1140.68
1145.57
999.747
861.951
839.419
838.39
839.017
1050.61
1192.89
1196.4
1197.72
1184.74
1187.46
1192.61
1208.48
1211.09
1212.7
1215.47
1217.24
1218.85
1220.27
1221.37
1218.78
1177.2
1161.4
1161.35
1192.87
1167.8
1161.35
1148.61
945.303
817.925
803.059
826.873
961.026
1032.48
1060.27
1078.91
1100.3
1117.46
1131.23
1140.42
1145.35
1093
829.578
827.668
828.577
885.113
1164.77
1197.62
1199.87
1192.91
1198.76
1208.14
1210.52
1212.69
1214.6
1216.61
1219.01
1221.28
1223.37
1223.18
1214.32
1194.71
1165.15
1180.3
1197.35
1167
1160.92
1132.36
898.027
806.053
795.545
782.073
777.356
775.955
957.926
1075.83
1096.55
1113.1
1126.08
1135.14
1140.76
1141.41
982.142
819.458
821.353
822.526
951.815
1184.41
1201.18
1204.62
1207.35
1210.1
1212.61
1214.7
1216.63
1219.08
1221.67
1224.02
1226.44
1214.84
1200.63
1161.9
1163.49
1196.66
1196.72
1139.85
1162.13
1107.04
851.83
804.153
799.733
793.569
789.455
787.298
943.099
1090.27
1104.13
1115.42
1116.61
1059.02
1053.15
1058.49
1047.74
843.326
817.83
819.805
821.497
869.288
1073.71
1199.23
1198.05
1211.81
1215.5
1212.8
1189.01
1197.66
1222.81
1226.6
1228.36
1229.59
1196.98
1160.86
1185.64
1155.86
1152.34
1089.36
1169.67
1086.73
815.633
805.789
803.793
801.179
798.919
797.009
1050.86
1106.41
1114.5
1123.58
961.386
873.993
877.47
880.351
910.381
985.948
959.081
819.498
850.272
853.415
840.732
838.175
919.439
1150.45
1222.33
1190.76
1184.54
1186.44
1187.56
1208.59
1232.87
1234.23
1199.66
1164.02
1169.61
1058.61
1059.42
1082.19
1176.31
1136.75
886.832
807.147
804.559
832.023
885.381
909.93
1069.34
1118.47
1127.26
1066.93
868.169
871.836
875.604
879.949
885.585
947.643
1053.93
1061.98
1064.15
1065.06
942.471
835.46
834.794
834.537
1052.75
1199.87
1205.3
1190.3
1191.75
1192.95
1219.16
1239.29
1218.09
1205.16
1120.07
1055.87
1144.89
1079.22
1090.29
1144.75
1105.37
905.496
848.574
916.009
899.418
903.773
978.038
1128.65
1138.62
914.882
867.971
869.839
872.946
877.946
885.336
897.313
905.52
909.458
1013.16
1067.69
1064.35
945.979
839.739
833.201
833.144
1073.29
1216.87
1226.72
1197.03
1210.21
1231.66
1234.16
1230.53
1225.37
1071.23
1069.5
1191.46
1083.73
1077.55
1074.79
1072.66
1080.98
1125.78
1170.36
1177.94
1066.66
998.894
1133.21
1127.29
871.597
861.968
861.849
863.05
867.463
1026.1
1110.61
1102.74
1037.2
935.157
934.641
971.158
1065.53
1061.01
916.3
833.609
836.525
1042.81
1243.77
1245.88
1247.07
1247.39
1244.21
1235.23
1218.69
1030.3
1164.78
1195.29
1191.05
1176.58
1120.07
1085.34
1123.86
1191.93
1191.03
1190.51
1181.94
1178.1
1193.79
1030.64
852.024
851.164
849.934
849.778
938.371
1188.91
1205.74
1214.85
1217.71
1218.52
1198.56
947.232
924.561
925.202
1029.12
1063.4
1024.34
1097.39
1242.89
1251.21
1251.41
1251.46
1250.48
1245.87
1084.75
1030.77
1115.48
1206.01
1218.03
1214.62
1209.03
1196.93
1199.14
1202.26
1201.64
1201.83
1202.18
1203.55
1204.22
991.382
840.544
838.508
836.845
836.929
968.689
1179.73
1193.58
1202.35
1207.68
1209.66
1208.58
1207.89
1208.13
1138.5
1025.55
1038.31
1168.55
1246.67
1250.7
1252.87
1254.16
1254.97
1255.46
1255.12
1080.74
1029.14
1028.27
1154.23
1224.9
1219.83
1215.81
1211.98
1210.14
1208.67
1207.33
1206.49
1206.91
1208.31
1208.88
941.689
834.456
831.954
829.823
829.384
1038.08
1174.32
1179.77
1183.09
1184.49
1184.94
1185.72
1186.46
1187.76
1191.18
1177.08
1192.58
1208
1170.5
1214.67
1250.53
1252.48
1254.42
1257.1
1259.96
1236.71
1039.77
1032.34
1112.35
1014.77
1156.82
1137.95
1080.74
1161.48
1214.5
1210.71
1208.59
1209.43
1212.58
1101.16
837.424
831.732
830.331
827.73
844.738
1130.44
1167.7
1165.32
1161.68
1156.41
1089
1057.54
1083.55
1145.5
1172.43
1181.94
1189.6
1194.78
1150.76
1134.88
1191.54
1246.12
1250.12
1255.15
1260.48
1265.53
1136.66
1037.24
1124.17
1165.32
1077.13
1073.52
1070.36
1067.23
1066.06
1064.2
1064.1
1164.9
1226.45
1182.4
876.029
835.182
830.969
827.95
914.99
1154.11
1163.38
1155.53
1121.9
959.253
663.07
663.246
667.025
706.392
897.306
1124.24
1174.02
1180.97
1132.66
1121.02
1181
1237.5
1244.58
1251.74
1258.89
1266.96
1228.97
1042.64
1167.45
1240.7
1216.94
1210.4
1224.97
1110.69
1073.64
1073.65
1099.57
1224.87
1230.74
1224.64
946.202
845.933
962.209
963.337
976.707
1101.48
1162.79
1076.94
683.043
657.356
656.605
658.357
661.348
666.281
802.398
908.035
1029.16
1080.16
1094.75
1182.78
1223.33
1231.18
1238.18
1246.99
1257.22
1266.49
1197.75
1072.49
1204.96
1238.67
1238.3
1238.23
1239.31
1235.45
1227.34
1233.14
1238.39
1236.64
1187.92
993.026
942.876
1041.71
1044.33
986.303
1007.82
1152.86
1157.02
840.014
656.066
655.07
654.734
655.75
658.31
744.661
975.534
974.399
1011.76
1049.16
1041.64
1020.16
1109.85
1214.99
1234.28
1242
1249.36
1260.41
1054.84
1232.21
1224.8
1232.68
1233.51
1213.68
1161.91
1185.94
1230.41
1241.39
1240.99
1039.86
945.418
997.609
1054.91
1050.08
1016.84
1006.57
1110.29
1128.77
1003.47
658.316
649.036
649.422
650.353
652.935
681.545
1087.73
1172.96
1161.8
1004.79
711.251
607.202
580.21
671.665
963.027
1195.3
1237.03
1242.6
1225.19
1043.67
1235.99
1229.97
1223.63
1229.24
1031.36
845.573
843.522
1003.46
995.665
866.478
865.451
993.394
1058.65
1024.32
1010.85
1007.99
1099.8
1090.59
973.351
641.571
640.795
642.04
644.058
646.674
650.901
891.756
1225.86
1227.59
989.568
563.892
554.374
554.979
557.081
560.401
581.725
897.061
1187.6
1218.09
1018.88
1057.2
1231.14
1204.18
1217.75
1227.66
919.44
833.219
836.676
838.323
841.482
844.225
857.417
1226.96
1039.54
974.188
1033.88
1109.53
1095.72
776.951
631.658
631.366
632.863
635.528
639.023
643.614
663.077
1099.35
1241.79
1146.57
625.132
558.122
558.367
559.337
561.18
562.993
566.196
573.912
658.137
863.6
1006.37
1220.56
1237.17
1161.86
1216.55
1227.42
986.617
829.49
834.217
837.582
839.978
842.245
1087.65
1238.63
980.532
969.795
1121.93
1083.39
668.944
633.804
631.487
630.541
630.456
632.996
636.488
640.586
725.547
1207.26
1256.7
1164.85
634.442
559.996
560.986
561.231
562.382
583.815
696.11
853.713
956.064
945.474
1031.15
1220.69
1223.11
1159.23
1222.59
1187.94
1066.61
1106.23
938.191
834.823
839.496
842.99
1197.11
1239.63
1059.21
1096.04
1073.68
656.153
638.216
635.955
644.232
643.316
633.124
634.881
636.768
640.145
917.784
1260.19
1263.25
1259.21
990.088
649.053
609.571
915.831
1038.74
1106.61
1147.52
1173.44
1190.55
1195.71
1179.66
1186.89
1176.72
1175.81
1197.74
1179.69
1200.74
1195.97
848.511
833.823
839.24
1123.12
1250.26
1252.76
1142.52
1144.75
720.717
641.254
638.83
639.948
644.277
638.177
633.243
635.191
637.868
700.752
1199.24
1269.6
1272.22
1274.41
1261.31
1096.47
993.813
993.321
1141.6
1151.68
1151.11
1146.53
1146.08
1221.57
1231.86
1181.4
1181.28
1222.53
1191.01
1200.56
1211.62
960.145
827.34
831.538
1116.41
1167.19
1084.44
1089.17
1233.26
1145.04
666.767
638.658
637.212
637.425
633.068
631.005
631.167
634.307
785.388
1238.72
1278.18
1278.73
1280.6
1282.25
1209.15
1070.33
1001.03
1051.11
1122.72
1114.25
1114.51
1203.36
1221.65
1249.58
1232.8
1183.1
1190.89
1225.23
1198.4
1208.64
1031.05
823.728
824.195
1054.08
1114.21
1067.96
1052.11
1147.82
1298.62
1278.65
869.469
633.717
633.033
632.288
630.524
629.166
629.955
878.127
1286.75
1286.06
1284.15
1284.68
1285.7
1283.03
1133.99
1040.27
1036.14
1189.2
1272.46
1265.73
1266.29
1291.93
1295.59
1286.84
1253.07
1210.17
1224.58
1225.01
1207.62
1210.03
904.317
832.801
883.857
1079.22
1093.48
1008.76
1057.21
1298.79
1298.67
1296.44
1219.99
738.21
626.944
627.11
626.572
625.664
693.859
1213.2
1285.16
1284.24
1284.02
1285.31
1286.48
1284.4
1246.3
1229.79
1256.23
1289.38
1295.8
1297.41
1297.68
1296.99
1294.85
1293.92
1281.81
1265.11
1228.63
1241.79
1223.32
1231.1
1159.94
1076.42
1028.61
987.989
992.85
999.156
1238.98
1300
1299.4
1298.92
1298.04
1198.52
736.976
623.324
623.346
764.28
1203.33
1287.88
1284.75
1283.47
1282.79
1283
1283.73
1284.55
1285.48
1286.03
1287.15
1289.41
1291.9
1292.04
1284.7
1234.52
1245.87
1280.36
1282.65
1283.08
1278.8
1281.72
1237.33
1242.71
1208.6
979.346
984.249
987.405
990.054
1203.75
1300.46
1300.35
1299.61
1298.85
1297.57
1293.72
1198.3
1086.05
1104.77
1245.44
1289.78
1286
1282.59
1280.25
1278.96
1279.14
1280.02
1280.79
1281.61
1280.07
1274.06
1278.26
1287.96
1288.41
1269.83
1061.8
1012.62
1245.23
1282.49
1282.16
1282.53
1282.84
1250.46
1106.07
987.273
988.183
985.528
1145.1
1252.91
1283.6
1295.03
1300.23
1299.1
1297.38
1284.72
1273.4
1289.96
1289.81
1290.27
1289.59
1286.37
1282.64
1278.74
1275.66
1273.64
1273.74
1274.85
1275.68
1276.43
1268.97
1183.85
1150.63
1279.16
1285.83
1273.45
1076.73
1006.21
1005.93
1004.6
932.733
855.162
847.787
1055.22
1054.3
1053.82
1226.11
1254.13
1304.67
1303.9
1303.05
1300.29
1298.76
1276.21
1265.98
1264.03
1263.75
1287.31
1284.99
1283.06
1280.56
1266.04
1277.22
1273.47
1179.42
1009.62
976.332
1050.41
1047.64
1038.87
1046.14
1048.96
1106.58
1223.58
1263.97
1277.47
1287.88
1294.52
1123.28
960.288
952.213
815.451
815.765
916.416
1262.02
1310.85
1311.03
1309.62
1308.08
1306.33
1304.59
1302.95
1301.09
1277.71
1265.37
1262.34
1260.92
1285.72
1283.25
1279.56
1276.99
1270.97
954.228
699.776
692.962
689.425
687.54
687.808
689.229
690.943
692.589
692.661
860.886
1047.99
1128.34
1207.1
1285.97
1293.83
1299.34
1301.98
1302.5
810.972
873.209
882.313
1320.53
1319.29
1316.32
1314.15
1312.02
1309.88
1307.58
1305.5
1303.56
1300.81
1285.14
1272.18
1281.26
1285.26
1282.6
1001.51
692.364
669.767
673.59
679.828
693.356
714.294
705.41
727.61
696.893
701.04
691.156
698.28
807.16
1006.37
1133.77
1183.22
1275.54
1285.66
1290.39
1293.64
1295.83
1191.72
1194.4
962.393
1328.46
1323.88
1320.46
1317.74
1315.28
1312.89
1310.56
1308.45
1306.6
1304.64
1302.25
1298.81
1293.68
1167.24
792.11
664.616
663.098
662.152
662.278
772.028
1233.8
1223.13
1172.22
1245.05
1177.06
1180.14
1121.15
1155.13
1284.75
1280.21
1275.2
1271.48
1264.7
1237.73
1237.67
1267.51
1276.54
1281.96
1267.87
1170.84
1315.6
1322.29
1322.15
1319.71
1317.29
1315.11
1312.97
1311.16
1309.56
1307.93
1306.13
1303.72
1109.23
784.174
663.805
661.78
659.424
658.644
658.43
883.638
1293.62
1295.52
1294.82
1295.42
1294.74
1292.79
1291.39
1288.29
1282.36
1273.19
1260.28
1177.6
967.867
752.461
726.883
987.171
1242.98
1260.35
1263.69
1318.73
1293.14
1293.22
1322.07
1321.66
1319.11
1317
1315.3
1314.02
1313.03
1311.93
1310.53
1308.79
1159.33
758.346
661.617
660.15
658.822
658.23
663.155
1224.75
1294.79
1295.24
1294.96
1277.52
1293.33
1291.76
1272.26
1286.68
1281.18
1271.74
1146.36
593.877
452.5
451.891
456.698
788.314
1160.94
1250.1
1197.03
1321.84
1293.95
1290.62
1321.03
1324.08
1320.95
1318.41
1316.46
1315.12
1314.28
1313.57
1312.42
1310.9
1136.4
742.114
660.294
750.451
806.587
1043.26
1122.43
1290.12
1295.88
1295.97
1296.69
1222
1135.6
1218.86
1245.05
1284.67
1281.91
1275.43
857.01
490.222
460.141
773.258
1121.03
1191.56
1204.98
1255.65
1196.68
1336.13
1297.54
1293.95
1290.49
1319.31
1324.07
1321.21
1319.19
1317.78
1317.05
1316.64
1316.07
1306.26
1032.58
824.497
1179.23
1236.33
1268.06
1298.21
1295.37
1297.87
1297.36
1298.25
1299.61
1296.13
863.031
910.336
1252.72
1286.74
1283.33
1278.25
864.877
692.867
1016.55
1019.38
1143.47
1257.5
1258.04
1259.39
1240.84
1343.48
1337.01
1314.11
1297.03
1294.72
1301.47
1316.93
1323.39
1321.71
1320.4
1319.36
1318.25
1316.92
1187.53
1031.13
1045.6
1133.65
1227.58
1284.96
1277.94
1276.23
1297.8
1301.07
1302.49
1302.52
885.162
722.367
1158.95
1288.98
1285.8
1280.39
908.616
390.457
367.226
237.227
520.128
1038.54
1167.99
1255.96
1255.84
1187.35
1342.88
1341.46
1336.09
1321.56
1313.97
1322.27
1328.46
1326.55
1324.96
1323.52
1321.93
1320.06
1282.57
1291.71
1292.82
1217.86
1216.14
1215.71
1214.71
1213.37
1296.2
1304.91
1304.12
1118.62
617.903
591.177
963.982
1290.44
1294.08
1289.75
1062.7
260.426
235.241
232.464
229.389
228.263
227.714
477.569
601.156
778.782
1194.42
1350.61
1346.28
1342.43
1339.04
1335.94
1332.16
1330.66
1329.61
1327.29
1324.61
1321.66
1318.85
1313.75
1303.84
1293.52
1293.53
1294.67
1282.92
1292.63
1306.06
1306.61
1169.77
611.49
577.933
577.801