/*--------------------------------*- C++ -*----------------------------------*\
  =========                 |
  \\      /  F ield         | OpenFOAM: The Open Source CFD Toolbox
   \\    /   O peration     | Website:  https://openfoam.org
    \\  /    A nd           | Version:  8
     \\/     M anipulation  |
\*---------------------------------------------------------------------------*/
FoamFile
{
    version     2.0;
    format      ascii;
    class       volScalarField;
    location    "4.4";
    object      epsilon;
}
// * * * * * * * * * * * * * * * * * * * * * * * * * * * * * * * * * * * * * //

dimensions      [0 2 -3 0 0 0 0];

internalField   nonuniform List<scalar> 
9150
(
0.0313118
0.0124391
0.00309718
0.000936299
0.000440769
0.000440519
0.000935599
0.00309507
0.0124353
0.0313129
0.030222
0.00874541
0.00172971
0.000600427
0.000331305
0.000331177
0.000600099
0.00172847
0.00874251
0.0302224
0.0284248
0.0069423
0.00111494
0.000491401
0.000295973
0.000295889
0.00049124
0.00111429
0.00694006
0.0284249
0.0264923
0.00600165
0.000834837
0.000458596
0.000285046
0.000284981
0.0004585
0.000834553
0.00599996
0.0264922
0.0244896
0.00559687
0.000695686
0.000451327
0.000283214
0.000283157
0.000451253
0.000695593
0.00559551
0.0244895
0.123425
0.0520485
0.0222509
0.0134935
0.00958909
0.00960984
0.0135566
0.0223942
0.052408
0.123542
0.0761132
0.022959
0.0129939
0.00859205
0.00595417
0.00596154
0.0086159
0.013045
0.0230027
0.0761104
0.0553529
0.017856
0.00756076
0.00448585
0.0029183
0.00292002
0.00449251
0.00757354
0.0178614
0.0553477
0.042502
0.01521
0.00476344
0.00226698
0.00132313
0.00132321
0.0022678
0.00476478
0.0152054
0.0424998
0.0356081
0.0137024
0.00350549
0.00128916
0.000668957
0.000668733
0.00128865
0.00350391
0.013697
0.0356074
0.695713
0.154842
0.0486818
0.0211852
0.0124035
0.0121198
0.0201665
0.0476211
0.170194
1.54297
0.273436
0.124516
0.0464126
0.0207004
0.0123986
0.0122262
0.0201608
0.0447712
0.114906
0.280422
0.233945
0.105428
0.0448272
0.0202783
0.0124194
0.0123465
0.0201
0.0443459
0.102118
0.23565
0.19641
0.0915892
0.0438813
0.0199575
0.0124675
0.0124601
0.0199388
0.0438173
0.0913566
0.197069
0.155966
0.0859105
0.0401615
0.0187363
0.012092
0.0121154
0.0188039
0.0403308
0.0865371
0.156215
0.00851802
0.00840489
0.00828986
0.00817288
0.00805373
0.00793233
0.00780864
0.00768271
0.00755457
0.00742402
0.00438201
0.00435114
0.00431863
0.00428443
0.00424851
0.00421081
0.00417125
0.0041298
0.00408635
0.00404071
0.00372022
0.00370462
0.00368786
0.00366979
0.00365029
0.00362924
0.00360653
0.00358207
0.00355574
0.00352744
0.00360077
0.00359022
0.00357873
0.00356612
0.00355223
0.00353689
0.00351995
0.00350129
0.00348077
0.00345829
0.00367816
0.00366957
0.00366011
0.00364957
0.00363772
0.00362437
0.00360934
0.00359246
0.00357358
0.00355258
0.00386871
0.00386096
0.00385227
0.00384238
0.00383102
0.00381795
0.00380292
0.00378572
0.00376619
0.00374422
0.00414722
0.00414009
0.00413183
0.00412212
0.00411062
0.00409698
0.00408087
0.00406201
0.00404025
0.00401552
0.00451032
0.00450431
0.00449687
0.0044876
0.004476
0.00446156
0.0044438
0.00442235
0.00439706
0.00436801
0.00496804
0.00496447
0.00495909
0.00495132
0.00494044
0.00492567
0.00490624
0.0048816
0.00485164
0.00481673
0.00554329
0.00554464
0.00554375
0.00553974
0.00553147
0.00551777
0.00549748
0.00546958
0.00543405
0.00539195
0.00627507
0.00628565
0.0062937
0.00629768
0.00629541
0.00628545
0.00626662
0.00623663
0.00619529
0.00614531
0.00722438
0.00725136
0.00727612
0.00729593
0.00730535
0.0073027
0.00728891
0.00726097
0.0072171
0.00716226
0.00848159
0.00853559
0.00858791
0.00863627
0.00866986
0.00868435
0.00868275
0.00866652
0.00863427
0.00858668
0.0101792
0.0102812
0.010381
0.01048
0.0105657
0.0106254
0.0106609
0.0106757
0.0106741
0.0106526
0.0125227
0.0127198
0.0129144
0.0131068
0.013284
0.0134283
0.0135394
0.013621
0.0136758
0.0137032
0.0158212
0.0161944
0.0165546
0.0169021
0.0172284
0.0175128
0.0177492
0.0179394
0.0180871
0.018197
0.020506
0.0211531
0.0217748
0.0223669
0.0229182
0.0234104
0.0238321
0.0241804
0.0244616
0.0246924
0.0270474
0.0280751
0.0290693
0.0300148
0.0308943
0.0316848
0.0323704
0.0329422
0.0334102
0.0338108
0.0358458
0.0373772
0.0388625
0.0402801
0.0416062
0.0428036
0.0438554
0.0447551
0.0455053
0.0461522
0.0471083
0.0492713
0.0513758
0.0533938
0.0552986
0.0570387
0.0585599
0.0598746
0.0609936
0.0619662
0.0607179
0.0636272
0.0664919
0.0692489
0.0718408
0.0742283
0.0763072
0.0780504
0.0795371
0.0808419
0.0762509
0.0799429
0.0836144
0.0871903
0.0905233
0.0935077
0.096046
0.0980802
0.0997697
0.101327
0.0929575
0.0973827
0.101808
0.106126
0.110108
0.113525
0.11621
0.118227
0.119895
0.121528
0.109785
0.114658
0.119536
0.124267
0.128592
0.132184
0.134792
0.136653
0.138297
0.140068
0.125277
0.13007
0.134826
0.139387
0.143548
0.14705
0.149786
0.152092
0.154352
0.156852
0.138151
0.142465
0.146724
0.151093
0.155314
0.159071
0.162412
0.165588
0.16883
0.172353
0.14817
0.152255
0.156701
0.161349
0.165928
0.170329
0.174546
0.178702
0.18296
0.187458
0.156655
0.161077
0.166007
0.171166
0.176389
0.181571
0.186695
0.19183
0.197069
0.202494
0.164628
0.169512
0.174969
0.180742
0.186665
0.192653
0.198685
0.204788
0.211004
0.217383
0.172329
0.177802
0.183812
0.190191
0.196811
0.2036
0.210525
0.217582
0.224796
0.232197
0.179898
0.186068
0.192698
0.199705
0.207012
0.214567
0.222343
0.230336
0.238567
0.247072
0.187354
0.19424
0.201525
0.209173
0.217153
0.225447
0.234052
0.242988
0.252291
0.262014
0.194471
0.202022
0.209936
0.218214
0.226864
0.235905
0.24537
0.255308
0.265786
0.276885
0.200938
0.209075
0.217573
0.226465
0.235794
0.245616
0.256
0.267033
0.278819
0.29148
0.206483
0.215141
0.224189
0.23369
0.243719
0.254366
0.265738
0.277963
0.29119
0.305593
0.210974
0.220113
0.229698
0.239813
0.250565
0.262076
0.274494
0.287991
0.302768
0.319059
0.214428
0.224031
0.234146
0.244883
0.256371
0.26877
0.282268
0.297085
0.313483
0.331765
0.216975
0.227018
0.237653
0.249005
0.261231
0.274521
0.289106
0.305263
0.323319
0.343665
0.218743
0.229204
0.240344
0.252301
0.265255
0.279428
0.295097
0.312597
0.332339
0.354815
0.219853
0.230729
0.242373
0.254935
0.268615
0.283671
0.300429
0.319295
0.340772
0.36548
0.22048
0.231805
0.243985
0.257182
0.27162
0.287594
0.305488
0.32579
0.349118
0.376246
0.220929
0.232789
0.245589
0.259501
0.274775
0.291752
0.310885
0.332762
0.358139
0.387977
0.221675
0.234227
0.247791
0.262552
0.278791
0.296905
0.317433
0.341088
0.368789
0.401718
0.223351
0.236834
0.251374
0.267169
0.284545
0.30397
0.326095
0.351781
0.382147
0.418637
0.22673
0.241464
0.257237
0.274283
0.292991
0.313928
0.337879
0.36588
0.39927
0.439807
0.232711
0.249082
0.266361
0.284861
0.305079
0.327712
0.353693
0.384237
0.420934
0.465901
0.242277
0.260732
0.279845
0.300009
0.321842
0.346207
0.374216
0.407311
0.447417
0.496923
0.256154
0.277482
0.298742
0.320638
0.344003
0.369889
0.399623
0.434956
0.478205
0.532198
0.273727
0.299202
0.32328
0.346785
0.371278
0.398129
0.428977
0.465969
0.511811
0.569737
0.295551
0.325692
0.353122
0.378002
0.402748
0.429464
0.460384
0.498082
0.545669
0.607147
0.323092
0.358447
0.388813
0.413836
0.436942
0.461673
0.491147
0.528422
0.57702
0.641587
0.356304
0.397699
0.42925
0.450879
0.469053
0.489804
0.516793
0.553015
0.602159
0.669335
0.389862
0.437649
0.467991
0.480216
0.491312
0.508027
0.532795
0.56813
0.617645
0.686698
0.41656
0.462106
0.484307
0.490052
0.497999
0.513064
0.536985
0.572028
0.621512
0.690403
0.433116
0.466003
0.476218
0.481352
0.490541
0.506508
0.530972
0.565998
0.614477
0.680375
0.433807
0.450015
0.456678
0.464189
0.476018
0.493992
0.51966
0.554698
0.601266
0.662293
0.413883
0.423629
0.432435
0.443599
0.458886
0.479731
0.50742
0.543289
0.588912
0.646259
0.385919
0.39695
0.40919
0.424149
0.443138
0.467356
0.497953
0.53613
0.583222
0.640789
0.360643
0.374322
0.389826
0.40833
0.431
0.458999
0.493531
0.535884
0.587486
0.649941
0.340569
0.35665
0.375061
0.396923
0.423435
0.45589
0.495712
0.544493
0.604037
0.676401
0.325223
0.343588
0.36492
0.390412
0.421446
0.459607
0.506733
0.564963
0.636824
0.725031
0.314149
0.335206
0.360044
0.390102
0.427154
0.473367
0.53137
0.604354
0.696223
0.809989
0.308324
0.332967
0.362581
0.399101
0.445101
0.503961
0.580037
0.678927
0.805697
0.964756
0.310152
0.340246
0.377337
0.424277
0.485239
0.566112
0.674955
0.821048
1.01128
1.25128
0.323695
0.363147
0.413505
0.479737
0.569208
0.692845
0.865893
1.09862
1.39886
1.76872
0.354029
0.410455
0.485801
0.590221
0.738844
0.953596
1.2521
1.63996
2.10918
2.64989
0.407413
0.493656
0.616171
0.795262
1.0599
1.44473
1.9617
2.58741
3.28454
4.02019
0.499028
0.638286
0.845563
1.15776
1.62469
2.27756
3.10599
4.04997
5.02424
5.93015
0.660262
0.893723
1.24902
1.78578
2.57126
3.61221
4.86684
6.21364
7.44363
8.29477
0.932905
1.32444
1.91882
2.79953
4.02115
5.59172
7.44428
9.27879
10.4786
10.5725
1.3578
1.98667
2.92024
4.27116
6.1162
8.51868
11.3429
13.4755
13.2388
11.8078
1.9645
2.92795
4.35163
6.4055
9.27768
13.1281
17.0825
17.1396
14.5202
12.173
2.79729
4.23549
6.38364
9.53925
14.0576
19.7395
21.5143
18.0785
14.6081
11.9309
3.9332
6.04531
9.22465
13.9326
20.4794
25.2842
22.4886
17.7127
14.0052
11.2704
5.49828
8.53829
13.1442
19.9633
27.255
26.8172
21.3894
16.5585
12.9585
10.3576
7.6325
11.915
18.404
27.0435
30.8063
25.78
19.6451
15.002
11.6602
9.3391
10.5837
16.6092
25.7066
33.5336
30.0918
23.0243
17.3275
13.1541
10.2438
8.34464
14.5621
22.863
33.4874
34.4247
26.9302
20.0126
14.8709
11.2614
8.89364
7.51906
20.146
31.5416
38.8721
31.6688
23.1912
16.8834
12.4447
9.50168
7.76344
6.983
27.2075
40.4932
37.4864
27.0639
19.3512
13.9245
10.2684
8.03928
6.96987
6.81951
36.1765
42.3729
31.5683
22.4734
15.9104
11.3771
8.48226
6.95924
6.56581
7.06817
41.9328
39.6154
27.5364
19.0395
13.2129
9.35499
7.12074
6.26725
6.55087
7.73696
43.7945
33.6088
23.4769
16.0946
10.9789
7.72061
6.10619
5.91355
6.89575
8.82031
45.4481
31.1874
20.9673
13.9239
9.19506
6.40903
5.37684
5.84575
7.56237
10.3062
43.8929
29.0209
18.8365
12.0507
7.64577
5.31308
4.86334
6.00492
8.50196
12.1672
41.4145
26.7514
16.9288
10.4061
6.28053
4.38816
4.50923
6.32248
9.65332
14.3814
40.8815
25.3393
15.4445
8.99057
5.06513
3.59534
4.25161
6.71263
10.9374
16.9367
40.7226
24.2127
14.15
7.69946
3.96312
2.90505
4.02207
7.06278
12.226
19.7998
38.7472
22.905
12.9183
6.48884
2.97726
2.30235
3.75284
7.23044
13.2752
22.6635
37.5645
21.8625
11.7602
5.33547
2.11787
1.77531
3.39298
7.08567
13.7772
24.8769
36.6039
20.9837
10.6094
4.22895
1.4044
1.31977
2.92664
6.55627
13.4728
25.8327
37.4415
20.4991
9.42289
3.16946
0.849426
0.937005
2.37936
5.65308
12.161
24.4046
38.7826
19.6719
7.93109
2.14971
0.45361
0.630262
1.81227
4.52151
10.093
21.023
40.1028
18.1628
6.14864
1.28162
0.213256
0.398597
1.28838
3.345
7.64758
16.2603
39.9734
15.6257
4.24604
0.65986
0.0918308
0.234064
0.854332
2.30119
5.32748
11.4088
36.3014
11.9376
2.51222
0.296786
0.0403184
0.125181
0.526562
1.48425
3.449
7.29554
29.2561
7.892
1.26838
0.126652
0.0212815
0.0600474
0.297284
0.903028
2.10279
4.34436
20.4356
4.26538
0.536611
0.0565065
0.014897
0.02714
0.148488
0.514332
1.21866
2.39303
9.60514
1.57024
0.186518
0.0306377
0.0130045
0.014874
0.0631939
0.265937
0.69257
1.22906
1.42868
0.421126
0.074499
0.0230545
0.0125126
0.0122664
0.0266183
0.114384
0.407029
0.769972
0.00727965
0.00713185
0.00698239
0.00683161
0.00667974
0.00652691
0.00637301
0.00621784
0.00606117
0.00590253
0.00574134
0.00557704
0.00540919
0.00523757
0.00506225
0.00488365
0.0047025
0.00451989
0.00433703
0.00415518
0.00397543
0.00380137
0.00374611
0.00374245
0.00374782
0.000885944
0.000885327
0.00374142
0.0037442
0.00374848
0.000884313
0.000886231
0.000884292
0.000885695
0.00085165
0.000786321
0.000693806
0.000579504
0.000449535
0.000795966
0.00398947
0.00393462
0.00387762
0.00381849
0.00375727
0.00369398
0.00362868
0.00356139
0.00349201
0.00342052
0.00334686
0.00327096
0.00319276
0.00311223
0.0030294
0.00294438
0.00285736
0.00276864
0.00267858
0.00258748
0.0024951
0.00239876
0.00228592
0.00217789
0.00207226
0.00196744
0.00186764
0.00177356
0.00167092
0.00156182
0.00144843
0.00132547
0.00120619
0.00106386
0.000956552
0.000864622
0.000785512
0.000732789
0.000761994
0.00122363
0.00349515
0.00345921
0.00342088
0.00338011
0.00333691
0.00329129
0.00324328
0.00319291
0.0031402
0.00308518
0.00302786
0.00296826
0.00290641
0.00284236
0.00277618
0.00270799
0.00263795
0.00256625
0.00249312
0.00241871
0.00234298
0.00226542
0.00218484
0.00210231
0.00201868
0.00193406
0.00184797
0.00176032
0.00167051
0.00157859
0.00148485
0.00138931
0.00129286
0.00119726
0.00111115
0.00103913
0.000988891
0.000981815
0.00109399
0.00183705
0.00343223
0.00340244
0.00337003
0.00333497
0.00329724
0.00325684
0.00321383
0.00316827
0.00312022
0.00306974
0.00301688
0.00296169
0.00290421
0.00284454
0.00278274
0.00271893
0.00265326
0.0025859
0.00251705
0.00244686
0.00237541
0.00230269
0.00222856
0.00215301
0.00207603
0.00199747
0.00191707
0.00183462
0.00174994
0.00166324
0.00157529
0.00148761
0.00140261
0.00132407
0.00125791
0.00121168
0.00119608
0.0012361
0.00143861
0.00246412
0.00352794
0.00349926
0.0034677
0.00343324
0.00339587
0.00335565
0.00331266
0.00326702
0.00321884
0.0031682
0.00311516
0.00305978
0.00300209
0.00294215
0.00288001
0.00281577
0.00274956
0.00268155
0.00261198
0.00254107
0.00246904
0.00239605
0.0023223
0.00224788
0.00217273
0.0020966
0.00201907
0.00193955
0.00185759
0.00177322
0.00168742
0.00160228
0.00152112
0.00144896
0.00139331
0.00136452
0.00137898
0.00146972
0.00175336
0.00306558
0.00371822
0.00368766
0.00365388
0.00361688
0.00357672
0.00353354
0.00348751
0.00343882
0.00338763
0.00333404
0.0032781
0.00321984
0.00315922
0.00309625
0.00303092
0.00296328
0.00289345
0.00282163
0.00274809
0.00267319
0.00259728
0.0025208
0.00244424
0.00236802
0.00229229
0.00221684
0.00214095
0.0020635
0.00198325
0.00189977
0.00181395
0.00172816
0.0016463
0.00157433
0.0015205
0.00149579
0.0015251
0.00165436
0.00199765
0.00344409
0.0039861
0.00395137
0.00391299
0.00387102
0.0038256
0.00377702
0.00372559
0.0036716
0.00361525
0.00355664
0.00349579
0.0034326
0.00336697
0.0032988
0.003228
0.00315456
0.00307857
0.00300023
0.0029199
0.00283802
0.00275515
0.00267204
0.00258963
0.00250885
0.00243035
0.00235417
0.00227927
0.00220333
0.0021237
0.00203924
0.00195112
0.00186241
0.00177787
0.00170447
0.00165119
0.00163012
0.00166556
0.00179668
0.00215545
0.00364872
0.00433333
0.0042924
0.00424733
0.0041982
0.00414531
0.00408916
0.00403027
0.00396905
0.00390569
0.00384028
0.0037727
0.00370273
0.00363011
0.00355463
0.00347611
0.0033945
0.00330983
0.00322232
0.00313236
0.00304046
0.00294741
0.00285433
0.00276267
0.00267407
0.00259007
0.00251149
0.0024371
0.00236245
0.00228203
0.00219395
0.00210111
0.00200845
0.00192156
0.00184773
0.0017959
0.00177878
0.00182214
0.0019607
0.00232052
0.00381313
0.00477497
0.00472592
0.00467225
0.00461393
0.00455144
0.00448572
0.00441756
0.00434748
0.0042756
0.00420178
0.00412566
0.00404682
0.00396489
0.00387955
0.00379063
0.00369804
0.00360181
0.00350217
0.00339952
0.00329447
0.00318799
0.00308154
0.00297707
0.00287698
0.00278406
0.00270081
0.00262681
0.00255399
0.00247051
0.00237382
0.00227236
0.00217492
0.00208704
0.00201512
0.00196802
0.00195799
0.00201481
0.00218525
0.0026013
0.00402155
0.00534164
0.00528297
0.00521925
0.00515004
0.00507618
0.00499935
0.00492061
0.00484036
0.00475844
0.00467434
0.00458737
0.0044969
0.00440251
0.00430393
0.00420108
0.00409401
0.00398279
0.00386763
0.00374894
0.00362738
0.00350408
0.00338082
0.00326001
0.00314473
0.00303897
0.0029474
0.00287219
0.00280304
0.00271507
0.00260324
0.00248838
0.00238546
0.00229886
0.00223301
0.00219331
0.00218686
0.00225285
0.00245523
0.00294699
0.00449306
0.00608572
0.00601673
0.00594234
0.00586164
0.00577591
0.00568769
0.005598
0.00550691
0.00541369
0.00531721
0.00521638
0.00511047
0.00499929
0.00488298
0.00476181
0.0046361
0.00450602
0.00437167
0.00423325
0.0040913
0.00394707
0.00380277
0.00366163
0.00352783
0.00340685
0.00330406
0.00322322
0.00315574
0.00305856
0.00292626
0.00279596
0.00268315
0.00259205
0.00252704
0.00249723
0.00249243
0.00254695
0.00275387
0.00333125
0.00518965
0.0070964
0.00701962
0.00693672
0.00684657
0.00675075
0.00665225
0.00655232
0.00645051
0.00634508
0.006234
0.00611566
0.00598951
0.00585627
0.00571722
0.00557348
0.00542581
0.00527438
0.00511885
0.00495877
0.00479419
0.00462622
0.0044577
0.00429342
0.00413916
0.00400123
0.00388438
0.00378702
0.00369225
0.00356531
0.00341399
0.00327193
0.00313941
0.00301688
0.00291745
0.00286533
0.0028566
0.00290956
0.0031065
0.00370222
0.00587503
0.00852422
0.00844731
0.00836148
0.00826631
0.00816437
0.00805923
0.00795283
0.00784392
0.00772828
0.00760243
0.00746429
0.00731398
0.00715468
0.00699011
0.00682299
0.00665478
0.0064854
0.0063134
0.00613707
0.00595549
0.00576904
0.00558053
0.00539577
0.00521864
0.00505262
0.00490159
0.00475698
0.00460247
0.00442021
0.00421655
0.0040141
0.00381457
0.00362658
0.00346612
0.00334985
0.00329265
0.00332085
0.00350821
0.00409337
0.00638182
0.0106102
0.0105465
0.0104683
0.0103771
0.010277
0.0101743
0.010073
0.00997121
0.00985705
0.00972374
0.00957073
0.00939947
0.00921734
0.00903258
0.00885086
0.00867484
0.00850365
0.00833365
0.00816101
0.00798412
0.00780008
0.00760798
0.00741009
0.00719787
0.00696989
0.00674528
0.00651332
0.00625333
0.00594441
0.00559708
0.00524288
0.00489934
0.004575
0.004286
0.00404721
0.00388081
0.00381695
0.00394043
0.00452516
0.00679758
0.0137045
0.0136775
0.0136285
0.0135618
0.0134843
0.0134061
0.013338
0.0132817
0.013209
0.0130976
0.0129564
0.0127892
0.0126058
0.0124219
0.0122505
0.012098
0.0119625
0.0118362
0.0117118
0.0115658
0.0113826
0.0111606
0.0108996
0.0106092
0.0103078
0.00997352
0.00957727
0.00909877
0.00853967
0.00793262
0.00730753
0.00668941
0.0060998
0.00556388
0.00510529
0.00474995
0.00453544
0.00455457
0.00509819
0.00746821
0.0182748
0.0183173
0.018334
0.0183321
0.018323
0.018326
0.0183632
0.0184415
0.0185083
0.0185091
0.0184567
0.0183591
0.0182236
0.0180771
0.0179499
0.0178618
0.0178104
0.0177787
0.0177141
0.017565
0.0173166
0.0169791
0.0165782
0.0161401
0.0156691
0.0151271
0.0144719
0.0136777
0.0127514
0.0117294
0.0106497
0.00955698
0.00850154
0.0075348
0.00669994
0.00603121
0.00556762
0.00539786
0.0058166
0.00823973
0.0248878
0.0250474
0.0251905
0.0253395
0.0254948
0.0257026
0.0259973
0.0263784
0.0267583
0.0270548
0.0272529
0.0273432
0.0273314
0.0272528
0.0271738
0.0271496
0.0271859
0.027226
0.0271478
0.0268725
0.0263958
0.0257756
0.0250922
0.0243966
0.0236754
0.0228606
0.0218732
0.0206654
0.0192356
0.0176112
0.0158375
0.0139881
0.0121673
0.0104894
0.0090447
0.00788256
0.00703406
0.0065689
0.00675023
0.00883581
0.0341885
0.0345611
0.0349475
0.0353935
0.0358831
0.0364488
0.0371988
0.0381255
0.0391035
0.0399612
0.0406298
0.0410892
0.0413231
0.0413394
0.0412513
0.0411714
0.0411527
0.0410567
0.040789
0.040182
0.0392534
0.038143
0.0370511
0.0360777
0.035153
0.0340988
0.0327431
0.0310084
0.0289121
0.0264763
0.0237228
0.0207388
0.0177156
0.0149033
0.0125045
0.0106049
0.00922008
0.00841693
0.00854956
0.00880909
0.046792
0.0475
0.0482881
0.0491872
0.0501767
0.0512664
0.0526544
0.0543902
0.056254
0.0579517
0.0593315
0.0604492
0.0612283
0.0614946
0.0613355
0.0607834
0.0601621
0.0597204
0.0591938
0.0582098
0.056695
0.0549598
0.0534879
0.0524372
0.0515427
0.0503707
0.0485902
0.0461359
0.0431801
0.0397553
0.035761
0.0312089
0.026381
0.021793
0.0179114
0.0149135
0.0127543
0.0114203
0.0115602
0.0373832
0.0629305
0.0640374
0.0653225
0.0668042
0.0683896
0.0701165
0.0723077
0.0750647
0.078079
0.0809534
0.083426
0.0853942
0.0863229
0.0862203
0.0853653
0.0842023
0.0833544
0.0831831
0.0830452
0.0819636
0.0798769
0.0775997
0.0761192
0.0755158
0.0749862
0.0737414
0.0713444
0.0678427
0.0638329
0.0593752
0.0540916
0.0477422
0.0405175
0.0332954
0.0271453
0.0225058
0.0192356
0.0171718
0.0168022
0.00884297
0.0821575
0.0837035
0.0855376
0.0876268
0.0898998
0.0924643
0.0956147
0.0994412
0.103577
0.107586
0.111005
0.113126
0.113943
0.113733
0.112699
0.111459
0.110848
0.111395
0.112001
0.11089
0.108865
0.107299
0.107184
0.107764
0.107415
0.105556
0.102208
0.0975564
0.0924635
0.0869812
0.0805959
0.0728919
0.0633744
0.0528176
0.0434121
0.0362392
0.0310824
0.027697
0.0272462
0.0412882
0.103053
0.105192
0.107685
0.110396
0.113332
0.116849
0.121071
0.125729
0.130426
0.135035
0.138639
0.140416
0.141283
0.141531
0.141407
0.141605
0.142751
0.144528
0.145101
0.14395
0.143004
0.14413
0.147052
0.148519
0.146787
0.143487
0.139055
0.134438
0.128964
0.12245
0.115305
0.107512
0.0975444
0.0842686
0.0706333
0.0591535
0.0504229
0.0441926
0.0427708
0.0696942
0.123546
0.126246
0.129391
0.132751
0.136536
0.141195
0.146536
0.151579
0.155727
0.159533
0.162552
0.164651
0.166538
0.168117
0.169625
0.171761
0.174805
0.177778
0.179629
0.18094
0.182658
0.18516
0.186936
0.186516
0.184722
0.181943
0.177994
0.173375
0.16815
0.162566
0.156996
0.150605
0.142512
0.129488
0.111093
0.0928077
0.0783273
0.0681166
0.0662692
0.121913
0.142436
0.145815
0.14979
0.153978
0.158541
0.163782
0.169118
0.173577
0.177322
0.181035
0.184486
0.187723
0.190988
0.194067
0.197045
0.200573
0.204987
0.210009
0.215106
0.219431
0.222499
0.224728
0.226018
0.225958
0.224536
0.22167
0.217536
0.212913
0.208382
0.203627
0.198323
0.192367
0.185742
0.176722
0.160271
0.136447
0.113558
0.0972431
0.0952744
0.183374
0.160013
0.164258
0.169116
0.174157
0.179351
0.18467
0.189888
0.194589
0.198789
0.202897
0.207166
0.211734
0.216591
0.221411
0.226058
0.231042
0.23667
0.242713
0.248633
0.254055
0.259098
0.2634
0.266331
0.267564
0.267193
0.265537
0.262635
0.258734
0.254046
0.2482
0.240869
0.23238
0.222736
0.211131
0.197087
0.179406
0.154752
0.130454
0.123939
0.246792
0.176482
0.181538
0.187118
0.192965
0.19896
0.204927
0.210633
0.215919
0.220947
0.226114
0.231744
0.237941
0.244545
0.251247
0.257805
0.264255
0.270896
0.277847
0.284935
0.292006
0.298913
0.305086
0.309866
0.313043
0.315073
0.316238
0.315883
0.314113
0.310855
0.305526
0.297754
0.28793
0.275664
0.260093
0.241107
0.218874
0.193271
0.166795
0.145179
0.191403
0.192482
0.198309
0.204543
0.211027
0.21764
0.224267
0.230797
0.237201
0.243625
0.250393
0.257805
0.265886
0.274359
0.282899
0.291325
0.299633
0.308055
0.316847
0.325963
0.335246
0.344495
0.353257
0.361042
0.367785
0.37374
0.378615
0.38201
0.383836
0.383463
0.380348
0.374603
0.365952
0.353621
0.337214
0.316232
0.290446
0.260215
0.227104
0.194356
0.206689
0.208383
0.215002
0.221949
0.229139
0.23651
0.244022
0.251664
0.259483
0.267629
0.276299
0.285691
0.295814
0.306437
0.317225
0.328097
0.339217
0.350726
0.362747
0.37529
0.388224
0.401319
0.414246
0.426749
0.438726
0.450058
0.460268
0.468857
0.475334
0.479083
0.479798
0.477359
0.47113
0.460785
0.446366
0.427186
0.402828
0.372131
0.332491
0.287999
0.310631
0.224218
0.231793
0.239686
0.247877
0.256359
0.265152
0.274305
0.283907
0.294105
0.305034
0.316805
0.329415
0.342745
0.356698
0.371281
0.386559
0.402624
0.419558
0.437375
0.455984
0.475188
0.494706
0.514245
0.533526
0.552184
0.569649
0.585229
0.598212
0.607936
0.613944
0.615884
0.613354
0.606192
0.5942
0.576507
0.551909
0.518758
0.473156
0.417261
0.433329
0.240119
0.248893
0.258068
0.26767
0.277742
0.288346
0.299571
0.311528
0.324361
0.338186
0.353104
0.369177
0.386432
0.404896
0.424626
0.445711
0.468247
0.492297
0.517864
0.544858
0.573071
0.602179
0.631759
0.661286
0.690094
0.717346
0.742078
0.763316
0.780194
0.792061
0.798499
0.799287
0.794359
0.783517
0.765959
0.73989
0.702566
0.650775
0.585019
0.581254
0.256244
0.266489
0.277314
0.288785
0.300988
0.314025
0.328019
0.343112
0.359467
0.377236
0.396559
0.417581
0.440445
0.465294
0.492274
0.521532
0.553194
0.58734
0.623971
0.662968
0.704052
0.746758
0.790407
0.834093
0.876668
0.916765
0.952887
0.983571
1.00757
1.02401
1.03248
1.03305
1.02614
1.01236
0.992098
0.965131
0.93011
0.884356
0.826779
0.820808
0.272633
0.284653
0.297537
0.311396
0.326362
0.342589
0.360247
0.379532
0.400659
0.42385
0.449321
0.477315
0.508088
0.541904
0.579023
0.619686
0.664096
0.712375
0.764526
0.820372
0.87949
0.941148
1.00425
1.06728
1.12831
1.18506
1.23507
1.27601
1.306
1.32389
1.32941
1.32321
1.30673
1.28209
1.25186
1.21889
1.18614
1.15697
1.13878
1.16777
0.28919
0.303335
0.31874
0.335576
0.354044
0.374368
0.396801
0.42162
0.449135
0.479659
0.513524
0.551093
0.592753
0.638907
0.689956
0.746276
0.808182
0.875869
0.949343
1.02833
1.11217
1.19973
1.28927
1.37839
1.46398
1.54229
1.60929
1.66121
1.69526
1.71001
1.70563
1.68381
1.64762
1.6013
1.55024
1.50112
1.46281
1.44933
1.49233
1.65845
0.305734
0.322381
0.340801
0.361254
0.384038
0.409489
0.437979
0.469919
0.50576
0.545936
0.590939
0.641288
0.697525
0.760213
0.82992
0.907191
0.992491
1.08611
1.18807
1.29793
1.41471
1.53668
1.66125
1.78482
1.90261
2.00871
2.09656
2.16015
2.19537
2.20074
2.17744
2.12894
2.06061
1.97942
1.894
1.81515
1.75811
1.75024
1.864
2.31017
0.322053
0.341563
0.363481
0.388189
0.416125
0.447785
0.483724
0.524553
0.570897
0.623393
0.682749
0.749671
0.82487
0.909073
1.00302
1.10743
1.22298
1.35009
1.48879
1.63846
1.7976
1.96372
2.13316
2.30085
2.45992
2.60137
2.71462
2.78998
2.82174
2.80907
2.75525
2.66663
2.55176
2.42103
2.28677
2.16415
2.07479
2.05989
2.24196
3.12902
0.337939
0.360629
0.386482
0.416044
0.449943
0.488896
0.533714
0.58531
0.644503
0.712306
0.789684
0.877545
0.976756
1.08816
1.21259
1.35093
1.50408
1.67274
1.85704
2.05609
2.26779
2.48862
2.71361
2.93609
3.14692
3.3329
3.47642
3.56169
3.58182
3.53861
3.43937
3.29465
3.1171
2.92118
2.72338
2.54357
2.40977
2.37661
2.61878
4.0812
0.353235
0.379372
0.409559
0.444552
0.485232
0.532604
0.587818
0.652068
0.726694
0.813159
0.912753
1.02657
1.15555
1.30053
1.46224
1.6415
1.83949
2.05749
2.29604
2.5541
2.82885
3.11562
3.40795
3.6973
3.97237
4.21477
4.39304
4.48109
4.47469
4.3829
4.2195
4.00035
3.74268
3.46529
3.18921
2.93934
2.75021
2.68931
2.98193
5.0916
0.367865
0.397705
0.43264
0.473714
0.52214
0.579303
0.646621
0.725709
0.818701
0.927694
1.05438
1.19996
1.36537
1.55136
1.75802
1.98537
2.23477
2.50875
2.80897
3.13473
3.48273
3.84748
4.22156
4.59463
4.95169
5.26658
5.47894
5.54947
5.49159
5.32721
5.07778
4.76442
4.40864
4.03341
3.66457
3.33245
3.07811
2.98082
3.31209
6.06841
0.381895
0.415729
0.455917
0.503896
0.561364
0.630073
0.71191
0.80901
0.924084
1.0601
1.21943
1.4034
1.61265
1.84786
2.10864
2.393
2.70032
3.03444
3.40124
3.80092
4.23134
4.68734
5.16283
5.64629
6.10874
6.52919
6.75627
6.76162
6.61677
6.35206
5.99314
5.56531
5.09338
4.60408
4.12853
3.70314
3.37524
3.23386
3.5892
6.92984
0.395647
0.433865
0.479958
0.535884
0.603797
0.686205
0.786006
0.905964
1.04873
1.21754
1.41595
1.64587
1.90716
2.19948
2.52208
2.87265
3.24838
3.64877
4.08233
4.55594
5.07217
5.62966
6.2273
6.85408
7.42835
7.98592
8.22548
8.10308
7.83184
7.43626
6.94297
6.3805
5.77473
5.15501
4.55948
4.03185
3.62482
3.43396
3.79757
7.61625
0.409825
0.452985
0.50586
0.570894
0.650977
0.749588
0.870569
1.01788
1.1954
1.40665
1.65432
1.94091
2.2641
2.62289
3.01529
3.43759
3.88838
4.36924
4.88333
5.43539
6.03238
6.6792
7.37832
8.12265
8.83118
9.60273
9.78564
9.53114
9.10705
8.55027
7.8975
7.18352
6.42842
5.66175
4.93422
4.29901
3.81203
3.57069
3.92906
8.09438
0.425429
0.474285
0.534974
0.610624
0.705171
0.823199
0.969773
1.15016
1.36934
1.63213
1.93834
2.28976
2.68526
3.12241
3.59843
4.109
4.65047
5.22358
5.83163
6.4784
7.16813
7.90664
8.69849
9.54658
10.4487
11.364
11.4715
11.0413
10.4104
9.64912
8.81398
7.94431
7.02676
6.09413
5.226
4.48487
3.92445
3.63838
3.98525
8.35986
0.443624
0.499067
0.568776
0.656956
0.768727
0.910102
1.08766
1.3083
1.57531
1.89325
2.2645
2.68975
3.16736
3.69402
4.26562
4.87727
5.52477
6.20707
6.92599
7.6843
8.48613
9.3377
10.2464
11.2227
12.2876
13.3379
13.3812
12.6305
11.6887
10.6541
9.60066
8.58482
7.5327
6.4144
5.40553
4.57182
3.95338
3.63304
3.96642
8.4098
0.46571
0.52862
0.608828
0.71167
0.843665
1.01273
1.22491
1.48733
1.80582
2.18468
2.62615
3.13033
3.69519
4.31703
4.99114
5.71242
6.47654
7.28133
8.12724
9.01731
9.95819
10.9611
12.0409
13.2191
14.5219
15.6592
15.3316
14.1558
12.8085
11.4375
10.1331
8.95264
7.82966
6.57417
5.44749
4.54598
3.89189
3.55197
3.86634
8.2359
0.492638
0.564102
0.656357
0.776109
0.930783
1.12828
1.37711
1.68509
2.05844
2.50128
3.0154
3.60032
4.25365
4.97155
5.74943
6.58254
7.46698
8.40089
9.38558
10.4269
11.5372
12.7366
14.052
15.5037
17.0956
18.254
17.2988
15.4887
13.6313
11.8889
10.3327
8.99203
7.80816
6.51686
5.33131
4.40598
3.74851
3.40965
3.70771
7.90718
0.525051
0.605991
0.711764
0.84925
1.02754
1.25633
1.54518
1.90243
2.33431
2.84438
3.43345
4.10002
4.84093
5.65212
6.52943
7.46929
8.4695
9.53049
10.6572
11.8618
13.168
14.6123
16.2311
18.0635
20.1339
20.9913
18.9834
16.4064
14.0207
11.9427
10.1881
8.73073
7.50702
6.2474
5.07477
4.17512
3.54772
3.23142
3.52204
7.51072
0.562839
0.653923
0.773364
0.930226
1.13507
1.39916
1.73328
2.14637
2.64437
3.22955
3.90067
4.65373
5.48341
6.38454
7.35328
8.3877
9.48822
10.659
11.9117
13.2725
14.7847
16.4998
18.4602
20.6854
23.2191
23.7325
20.163
16.7231
13.8704
11.5589
9.69682
8.19753
6.97947
5.80516
4.7173
3.88833
3.32007
3.04525
3.34085
7.12649
0.604775
0.70607
0.84067
1.01952
1.25534
1.56172
1.95142
2.43454
3.01661
3.6975
4.47158
5.32921
6.25962
7.25444
8.30956
9.42485
10.6038
11.8543
13.194
14.6676
16.3644
18.3456
20.6917
22.8991
24.9857
25.6056
20.2312
16.1195
13.0486
10.7051
8.8827
7.44628
6.29816
5.2558
4.30656
3.582
3.09436
2.87539
3.18954
6.81069
0.648841
0.761173
0.912947
1.11783
1.39207
1.75335
2.21855
2.80071
3.50558
4.32902
5.25684
6.26759
7.33846
8.45513
9.61471
10.8196
12.0774
13.3858
14.7258
16.0797
17.4958
19.0362
20.693
22.5412
24.6613
22.8761
18.0847
14.3573
11.6003
9.50239
7.87063
6.58733
5.56448
4.6797
3.89364
3.29105
2.89521
2.74034
3.08449
6.59778
0.692848
0.81721
0.988866
1.22573
1.55012
1.98753
2.56369
3.29938
4.20334
5.26561
6.45671
7.73293
9.04425
10.3713
11.729
13.1109
14.5083
15.5785
16.246
16.9306
17.8075
18.9474
20.2423
21.2055
20.9421
18.3529
14.9693
12.1543
9.96111
8.2332
6.8539
5.75577
4.88161
4.15097
3.52344
3.04507
2.74184
2.65308
3.03724
6.50956
0.733786
0.871015
1.06549
1.34176
1.7325
2.27787
3.02206
4.00528
5.24894
6.73584
8.41084
10.1965
11.9681
13.716
15.5149
16.5092
16.4122
16.2982