/*--------------------------------*- C++ -*----------------------------------*\
  =========                 |
  \\      /  F ield         | OpenFOAM: The Open Source CFD Toolbox
   \\    /   O peration     | Website:  https://openfoam.org
    \\  /    A nd           | Version:  8
     \\/     M anipulation  |
\*---------------------------------------------------------------------------*/
FoamFile
{
    version     2.0;
    format      ascii;
    class       volScalarField;
    location    "4.4";
    object      nut;
}
// * * * * * * * * * * * * * * * * * * * * * * * * * * * * * * * * * * * * * //

dimensions      [0 2 -1 0 0 0 0];

internalField   nonuniform List<scalar> 
9150
(
9.60026e-06
6.40755e-06
6.57102e-06
8.72782e-06
7.52324e-06
7.52211e-06
8.7308e-06
6.57236e-06
6.40661e-06
9.60037e-06
9.48754e-06
5.73961e-06
8.27441e-06
9.87163e-06
6.99962e-06
6.99773e-06
9.87224e-06
8.27679e-06
5.73886e-06
9.48759e-06
9.29562e-06
5.50225e-06
1.07994e-05
1.02484e-05
6.65326e-06
6.65152e-06
1.02472e-05
1.08017e-05
5.50167e-06
9.29563e-06
9.07999e-06
5.42427e-06
1.34052e-05
1.02464e-05
6.46699e-06
6.46551e-06
1.02447e-05
1.34057e-05
5.42378e-06
9.07998e-06
8.84517e-06
5.4078e-06
1.5653e-05
1.01549e-05
6.37233e-06
6.37102e-06
1.01532e-05
1.56508e-05
5.40735e-06
8.84515e-06
5.91101e-06
1.12578e-05
1.38191e-05
1.7334e-05
1.64827e-05
1.6487e-05
1.73553e-05
1.38592e-05
1.12856e-05
5.91291e-06
6.28002e-06
8.85216e-06
1.13315e-05
1.52468e-05
1.42593e-05
1.42599e-05
1.52579e-05
1.13542e-05
8.86283e-06
6.27994e-06
6.83018e-06
7.90181e-06
9.36941e-06
1.30231e-05
1.19912e-05
1.19908e-05
1.30304e-05
9.38087e-06
7.90419e-06
6.82996e-06
7.38709e-06
7.29739e-06
7.96522e-06
1.11202e-05
1.00845e-05
1.00839e-05
1.11254e-05
7.97057e-06
7.29693e-06
7.38695e-06
8.07465e-06
6.84768e-06
7.04836e-06
9.62619e-06
8.5505e-06
8.54966e-06
9.63e-06
7.05075e-06
6.84665e-06
8.0746e-06
1.05946e-05
1.23668e-05
1.21819e-05
1.52999e-05
1.71815e-05
1.74039e-05
1.59911e-05
1.4268e-05
2.01061e-05
1.39778e-05
7.84431e-06
1.07517e-05
1.22066e-05
1.55333e-05
1.72939e-05
1.74475e-05
1.59515e-05
1.2605e-05
1.08555e-05
7.91244e-06
7.44804e-06
1.01498e-05
1.23655e-05
1.57793e-05
1.73954e-05
1.74969e-05
1.60543e-05
1.25866e-05
1.02121e-05
7.4665e-06
7.02642e-06
9.75377e-06
1.24487e-05
1.59707e-05
1.74687e-05
1.75367e-05
1.61462e-05
1.25821e-05
9.83391e-06
7.03444e-06
6.50668e-06
1.00175e-05
1.24917e-05
1.62091e-05
1.73813e-05
1.74178e-05
1.62966e-05
1.25648e-05
1.00842e-05
6.51022e-06
6.20966e-06
6.18208e-06
6.15379e-06
6.12474e-06
6.09487e-06
6.06413e-06
6.03248e-06
5.99989e-06
5.96636e-06
5.93179e-06
4.78983e-05
4.76631e-05
4.74297e-05
4.71953e-05
4.69578e-05
4.67158e-05
4.64683e-05
4.62149e-05
4.59554e-05
4.56902e-05
9.66892e-05
9.62521e-05
9.57897e-05
9.53004e-05
9.47828e-05
9.42359e-05
9.36594e-05
9.30534e-05
9.24185e-05
9.17559e-05
0.00013999
0.000139449
0.000138844
0.000138175
0.000137443
0.000136647
0.000135789
0.00013487
0.000133894
0.000132863
0.000177367
0.000176781
0.00017609
0.000175297
0.000174403
0.000173412
0.000172326
0.00017115
0.000169887
0.000168543
0.00020959
0.000208965
0.000208201
0.000207299
0.000206266
0.000205104
0.00020382
0.00020242
0.000200909
0.000199296
0.000237444
0.00023675
0.000235886
0.00023486
0.000233675
0.000232339
0.00023086
0.000229245
0.000227505
0.000225648
0.000261548
0.000260726
0.000259714
0.000258519
0.00025715
0.000255615
0.000253924
0.000252088
0.000250117
0.000248025
0.000282333
0.000281308
0.000280082
0.000278664
0.000277064
0.000275293
0.000273363
0.000271285
0.000269074
0.000266743
0.00030006
0.000298756
0.000297248
0.00029555
0.000293671
0.000291625
0.000289425
0.000287084
0.000284617
0.000282041
0.000314888
0.00031324
0.000311399
0.000309377
0.000307183
0.000304832
0.000302339
0.000299714
0.000296974
0.000294139
0.00032698
0.000324943
0.000322736
0.000320368
0.000317836
0.000315155
0.000312352
0.000309436
0.000306415
0.00030332
0.000336584
0.000334143
0.000331565
0.000328858
0.000326002
0.000323006
0.000319906
0.000316715
0.000313453
0.000310137
0.000344183
0.000341384
0.000338486
0.000335508
0.000332418
0.000329203
0.000325888
0.00032251
0.000319089
0.000315629
0.000350669
0.000347676
0.000344626
0.00034153
0.000338362
0.000335094
0.000331742
0.000328328
0.000324874
0.000321386
0.000357401
0.000354507
0.00035157
0.000348606
0.000345589
0.000342483
0.000339285
0.000336009
0.000332672
0.000329288
0.000366122
0.000363654
0.000361139
0.00035857
0.000355922
0.000353163
0.000350279
0.000347279
0.000344182
0.000341018
0.000378304
0.000376525
0.000374666
0.000372698
0.000370592
0.00036832
0.000365872
0.000363255
0.000360504
0.000357674
0.000394655
0.000393701
0.000392613
0.000391352
0.000389891
0.000388206
0.000386301
0.000384195
0.000381924
0.000379558
0.000414911
0.000414818
0.000414533
0.000414021
0.000413266
0.000412252
0.000410972
0.000409462
0.000407767
0.000405949
0.000438084
0.000438828
0.000439354
0.000439614
0.000439578
0.000439253
0.000438619
0.000437691
0.000436542
0.000435239
0.000462973
0.000464462
0.000465723
0.000466711
0.000467349
0.000467619
0.000467497
0.000466979
0.000466175
0.000465212
0.000488326
0.000490403
0.000492252
0.000493814
0.000494975
0.000495655
0.000495786
0.000495413
0.000494718
0.000493875
0.000512893
0.000515262
0.000517403
0.000519237
0.000520634
0.000521472
0.000521641
0.000521242
0.000520535
0.000519711
0.000535367
0.000537608
0.000539604
0.000541288
0.000542548
0.000543264
0.000543416
0.00054314
0.000542625
0.000542037
0.000554703
0.000556444
0.000557943
0.000559312
0.000560421
0.000561115
0.000561416
0.000561437
0.000561301
0.000561137
0.000570496
0.000571752
0.000573011
0.000574231
0.000575292
0.000576129
0.000576732
0.000577158
0.000577493
0.000577815
0.000583328
0.000584349
0.000585526
0.000586747
0.000587942
0.000589051
0.000590055
0.000590977
0.000591854
0.00059272
0.000593912
0.000594827
0.000596026
0.000597396
0.000598857
0.000600353
0.000601855
0.000603352
0.000604842
0.000606322
0.000602662
0.000603674
0.000605037
0.000606677
0.000608518
0.000610502
0.000612581
0.000614717
0.000616878
0.000619031
0.000610036
0.000611353
0.000613055
0.000615095
0.000617417
0.000619957
0.000622659
0.000625466
0.000628325
0.000631183
0.00061646
0.000618226
0.000620405
0.000622958
0.000625835
0.000628981
0.000632331
0.000635821
0.000639382
0.000642944
0.000622195
0.000624491
0.000627223
0.000630356
0.000633844
0.000637629
0.000641646
0.000645821
0.000650076
0.000654323
0.000627375
0.000630236
0.000633561
0.000637312
0.00064144
0.000645884
0.000650573
0.000655425
0.000660346
0.000665236
0.000632082
0.000635525
0.000639463
0.00064385
0.00064863
0.000653736
0.000659084
0.00066458
0.000670116
0.000675577
0.00063643
0.000640466
0.000645024
0.000650051
0.000655477
0.000661222
0.000667188
0.000673263
0.000679326
0.000685242
0.000640601
0.000645235
0.000650412
0.000656062
0.000662101
0.00066843
0.000674931
0.000681475
0.00068792
0.000694116
0.000644864
0.00065008
0.000655848
0.000662077
0.000668661
0.000675476
0.000682381
0.000689224
0.000695839
0.000702065
0.00064949
0.000655254
0.000661563
0.000668299
0.000675324
0.000682486
0.000689613
0.000696524
0.000703033
0.000708959
0.00065471
0.000660987
0.000667776
0.000674925
0.000682261
0.000689594
0.00069672
0.000703424
0.000709496
0.000714745
0.000660723
0.000667477
0.000674678
0.000682134
0.000689632
0.000696939
0.000703814
0.000710012
0.000715305
0.000719497
0.000667685
0.000674882
0.000682423
0.000690071
0.000697567
0.000704637
0.000711004
0.0007164
0.000720585
0.000723376
0.000675681
0.000683283
0.000691087
0.000698804
0.000706129
0.000712751
0.000718366
0.000722689
0.000725489
0.000726616
0.000684685
0.000692646
0.000700626
0.000708286
0.000715279
0.000721264
0.00072592
0.000728967
0.000730198
0.000729522
0.000694528
0.000702791
0.000710858
0.000718342
0.000724866
0.000730071
0.000733637
0.000735304
0.000734911
0.000732447
0.000704914
0.000713419
0.00072149
0.000728706
0.000734673
0.00073903
0.000741471
0.000741766
0.000739816
0.000735709
0.000715441
0.000724144
0.000732183
0.000739111
0.000744518
0.000748047
0.000749408
0.000748409
0.00074502
0.000739472
0.000725596
0.000734569
0.000742622
0.000749316
0.000754228
0.000757003
0.000757368
0.000755178
0.000750486
0.000743646
0.000734597
0.000744092
0.000752386
0.000758974
0.000763492
0.000765596
0.00076504
0.000761738
0.000755844
0.000747875
0.00074209
0.000752184
0.000760941
0.000767605
0.000771807
0.000773255
0.000771779
0.000767397
0.000760354
0.000751216
0.000748198
0.000759038
0.000768337
0.00077503
0.000778735
0.000779319
0.000776761
0.000771176
0.000762891
0.000752527
0.000753294
0.000765017
0.000774552
0.000780703
0.000783295
0.000782549
0.00077862
0.000771699
0.000762155
0.000750626
0.000756781
0.000769472
0.000778708
0.000783049
0.000783722
0.000781261
0.000775813
0.000767598
0.000756987
0.000744583
0.000757794
0.000769803
0.000777129
0.000779244
0.000777984
0.00077385
0.000767043
0.000757854
0.000746708
0.000734234
0.000755748
0.000764776
0.000768573
0.000768525
0.00076554
0.000759942
0.000752065
0.000742353
0.00073133
0.000719669
0.000749376
0.000753928
0.000754552
0.000752262
0.00074739
0.000740268
0.000731359
0.00072125
0.0007106
0.000700029
0.000736845
0.000737564
0.000735556
0.000731037
0.000724216
0.000715476
0.000705361
0.000694531
0.000683714
0.000673626
0.000719472
0.000717394
0.000712951
0.000706192
0.000697341
0.000686808
0.000675155
0.000663054
0.000651232
0.000640424
0.000699615
0.000695077
0.000688276
0.000679278
0.000668333
0.000655861
0.000642425
0.000628687
0.000615355
0.000603132
0.000678753
0.000671876
0.000662788
0.000651597
0.000638582
0.000624189
0.000608999
0.000593685
0.000578957
0.00056551
0.000657679
0.000648577
0.000637309
0.000624034
0.000609088
0.000592974
0.000576332
0.000559885
0.000544376
0.000530642
0.000636815
0.000625592
0.000612241
0.000596994
0.000580276
0.000562693
0.000544992
0.000527997
0.000512519
0.000499844
0.000616261
0.000602889
0.00058742
0.000570185
0.000551737
0.000532839
0.000514404
0.000497392
0.000483303
0.000473314
0.000595177
0.000579411
0.000561593
0.000542204
0.000522008
0.000502028
0.000483467
0.000467925
0.000457366
0.000452714
0.000571167
0.000552497
0.000531946
0.000510332
0.000488859
0.000469067
0.000452647
0.000442376
0.000439364
0.000443538
0.000540992
0.000518969
0.00049568
0.000472689
0.000452092
0.00043617
0.000427824
0.000428144
0.000436364
0.000450729
0.000503065
0.000478264
0.000454252
0.000433687
0.000419372
0.000413773
0.000418268
0.000431216
0.000450053
0.000472306
0.000460292
0.000435986
0.000416288
0.000404122
0.000401438
0.000409454
0.000426505
0.000449222
0.000474895
0.000500909
0.000419071
0.00040039
0.000390419
0.000390956
0.000401819
0.000421784
0.000447577
0.000476061
0.000504379
0.00052849
0.000387065
0.000378787
0.000381531
0.000394755
0.000416612
0.000444305
0.000474964
0.000505839
0.000531633
0.000544789
0.000369171
0.000372994
0.000387399
0.000410079
0.000438938
0.000471684
0.00050611
0.000535873
0.000545983
0.000540883
0.000364095
0.000378404
0.00040164
0.000431394
0.000466106
0.000504322
0.000540868
0.000553432
0.00054071
0.000525285
0.000367436
0.000390403
0.000420944
0.000457106
0.00049785
0.000539772
0.000560819
0.000546805
0.000525191
0.000506247
0.000376724
0.000407297
0.00044458
0.000486758
0.000531599
0.000564351
0.000558447
0.000531678
0.000506984
0.000487715
0.000391772
0.000429289
0.000472638
0.000519864
0.00056073
0.000568339
0.000542759
0.000513133
0.000488765
0.000471467
0.000412768
0.000456188
0.000504258
0.000551332
0.000575374
0.000557337
0.00052363
0.000493864
0.000471813
0.000458307
0.000438819
0.000487121
0.000538473
0.000575346
0.000569216
0.000535633
0.000501651
0.000474447
0.000456726
0.000448327
0.000468872
0.000520598
0.000567378
0.000579038
0.000549349
0.000511638
0.000478942
0.000455912
0.000443978
0.000440966
0.000501524
0.000554795
0.000584402
0.000563662
0.00052322
0.000485192
0.000455926
0.000438879
0.000433447
0.000435011
0.000533936
0.000580221
0.00057906
0.000537215
0.000494347
0.00045801
0.000433705
0.000423723
0.000424356
0.000429472
0.00056615
0.000586902
0.000552857
0.000507388
0.000464021
0.000430371
0.00041244
0.00041003
0.000415924
0.00042487
0.000577981
0.000575441
0.000526627
0.000476545
0.000432461
0.00040244
0.000392274
0.000397494
0.000408559
0.000423191
0.0005786
0.000547846
0.000496746
0.000444224
0.000399825
0.000374691
0.000373557
0.000386357
0.000403776
0.000426342
0.000577132
0.000525273
0.000467329
0.000410789
0.000365945
0.000347252
0.000356409
0.000377269
0.000403074
0.000435029
0.000562123
0.000502066
0.000437657
0.000376319
0.000331037
0.00032065
0.000341159
0.000371133
0.000406993
0.000448397
0.000539984
0.000475747
0.000406765
0.000340639
0.000295016
0.000295062
0.000327916
0.000368405
0.000415044
0.000465126
0.000523252
0.000452119
0.000376951
0.000304553
0.000258019
0.000270695
0.00031671
0.000368828
0.000426243
0.000484297
0.000510924
0.000430838
0.00034782
0.000267852
0.000220012
0.000247628
0.000307185
0.000371295
0.000439301
0.000505794
0.000493672
0.000407646
0.000317653
0.000230319
0.000181526
0.000226064
0.000298615
0.000373941
0.000451996
0.000527993
0.000472887
0.000381758
0.000286108
0.000192415
0.000143883
0.000206332
0.000290208
0.00037507
0.000462082
0.000547822
0.000447344
0.000353533
0.000253794
0.000155115
0.000108988
0.000188525
0.000281352
0.00037378
0.000468387
0.000563948
0.000422597
0.000326016
0.000221551
0.000119297
7.88462e-05
0.000172306
0.00027177
0.000369989
0.00047025
0.000573271
0.000400198
0.000298149
0.000187624
8.55047e-05
5.51153e-05
0.000156663
0.000261415
0.000364596
0.000469009
0.000577646
0.000380033
0.000268144
0.00015128
5.61528e-05
3.84577e-05
0.000139608
0.000249884
0.000358832
0.000466804
0.000578785
0.000357046
0.000233095
0.000113434
3.40598e-05
2.79894e-05
0.00011902
0.000235745
0.000353466
0.00046626
0.00057959
0.000323535
0.000191081
7.75384e-05
2.05032e-05
2.18641e-05
9.38139e-05
0.000215759
0.000347938
0.000471211
0.000586728
0.000277553
0.00014514
4.89289e-05
1.4373e-05
1.85406e-05
6.53845e-05
0.000184133
0.0003372
0.000484071
0.000611382
0.000221487
0.000101861
3.06026e-05
1.3296e-05
1.72244e-05
3.90198e-05
0.00013462
0.000306444
0.000499636
0.000670194
0.000164875
7.27167e-05
2.21906e-05
1.46195e-05
1.69989e-05
2.25283e-05
7.10393e-05
0.000225837
0.000476524
0.000773658
0.000243986
6.6182e-05
1.81096e-05
1.52898e-05
1.70726e-05
1.77628e-05
2.44898e-05
8.80967e-05
0.000290804
0.000699079
5.89308e-06
5.8529e-06
5.81167e-06
5.76947e-06
5.72632e-06
5.68222e-06
5.63711e-06
5.59088e-06
5.54343e-06
5.49455e-06
5.444e-06
5.39151e-06
5.33684e-06
5.27979e-06
5.22023e-06
5.15813e-06
5.09361e-06
5.02686e-06
4.9582e-06
4.88797e-06
4.81651e-06
4.7457e-06
4.7184e-06
4.71281e-06
4.7251e-06
2.00176e-05
1.99917e-05
4.71035e-06
4.70716e-06
4.70483e-06
1.99245e-05
1.99845e-05
1.99307e-05
1.9926e-05
1.91529e-05
1.76796e-05
1.55979e-05
1.30275e-05
1.01049e-05
1.79064e-06
4.5404e-05
4.50971e-05
4.47817e-05
4.44577e-05
4.41249e-05
4.37823e-05
4.34272e-05
4.30578e-05
4.26743e-05
4.22734e-05
4.18514e-05
4.14058e-05
4.09351e-05
4.04389e-05
3.99182e-05
3.93752e-05
3.88133e-05
3.82366e-05
3.76486e-05
3.70522e-05
3.64499e-05
3.58551e-05
3.53844e-05
3.48698e-05
3.4321e-05
3.3822e-05
3.32092e-05
3.24707e-05
3.19272e-05
3.15265e-05
3.12685e-05
3.122e-05
3.11571e-05
3.17272e-05
3.10048e-05
2.90132e-05
2.55352e-05
2.005e-05
1.19537e-05
2.75247e-06
9.10235e-05
9.02244e-05
8.93945e-05
8.85348e-05
8.76462e-05
8.67291e-05
8.57827e-05
8.4806e-05
8.37976e-05
8.27552e-05
8.1676e-05
8.05574e-05
7.93976e-05
7.81959e-05
7.69529e-05
7.56704e-05
7.43512e-05
7.29984e-05
7.16146e-05
7.02019e-05
6.8762e-05
6.73018e-05
6.58412e-05
6.43602e-05
6.28359e-05
6.12579e-05
5.96277e-05
5.79564e-05
5.62593e-05
5.45191e-05
5.27133e-05
5.08344e-05
4.88432e-05
4.66356e-05
4.37745e-05
3.98472e-05
3.43264e-05
2.65334e-05
1.58662e-05
4.13133e-06
0.000131711
0.00013044
0.000129112
0.00012773
0.000126297
0.000124817
0.00012329
0.000121716
0.000120096
0.000118428
0.000116711
0.000114941
0.000113117
0.000111239
0.000109306
0.000107319
0.00010528
0.000103189
0.00010105
9.88631e-05
9.66308e-05
9.43547e-05
9.20376e-05
8.96768e-05
8.72647e-05
8.47925e-05
8.2252e-05
7.96348e-05
7.69249e-05
7.40884e-05
7.10795e-05
6.78424e-05
6.42911e-05
6.02744e-05
5.55218e-05
4.96383e-05
4.20675e-05
3.21056e-05
1.92726e-05
5.54026e-06
0.000167034
0.000165356
0.000163597
0.000161762
0.000159858
0.000157888
0.000155855
0.000153762
0.000151608
0.000149394
0.000147118
0.000144777
0.000142371
0.000139898
0.000137356
0.000134747
0.000132069
0.000129324
0.000126515
0.000123641
0.000120704
0.000117707
0.000114648
0.000111528
0.00010834
0.000105078
0.000101727
9.8263e-05
9.46532e-05
9.08461e-05
8.67756e-05
8.23568e-05
7.7473e-05
7.19539e-05
6.55483e-05
5.78963e-05
4.84879e-05
3.66909e-05
2.21121e-05
6.89091e-06
0.000197481
0.000195457
0.000193331
0.000191114
0.000188812
0.000186431
0.000183974
0.000181445
0.000178843
0.000176168
0.000173419
0.000170594
0.000167691
0.000164708
0.000161643
0.000158495
0.000155265
0.000151951
0.000148556
0.000145079
0.000141523
0.000137887
0.000134172
0.000130376
0.000126496
0.000122519
0.000118426
0.000114183
0.00010974
0.00010503
9.99691e-05
9.44518e-05
8.83397e-05
8.14484e-05
7.35306e-05
6.42565e-05
5.32914e-05
4.02217e-05
2.43751e-05
7.73938e-06
0.000223561
0.000221233
0.000218794
0.000216253
0.000213617
0.000210894
0.000208085
0.000205195
0.000202222
0.000199165
0.000196022
0.000192792
0.000189472
0.000186058
0.000182551
0.000178946
0.000175243
0.000171441
0.000167539
0.000163537
0.000159434
0.00015523
0.000150925
0.000146518
0.000142005
0.000137371
0.00013259
0.000127617
0.000122388
0.000116819
0.000110813
0.00010425
9.69781e-05
8.88118e-05
7.95183e-05
6.8823e-05
5.64655e-05
4.20998e-05
2.52763e-05
8.1965e-06
0.000245684
0.000243082
0.000240366
0.000237545
0.000234628
0.000231618
0.00022852
0.000225332
0.000222053
0.000218682
0.000215217
0.000211653
0.000207989
0.000204221
0.000200346
0.000196361
0.000192263
0.000188049
0.000183715
0.00017926
0.000174679
0.000169973
0.00016514
0.000160179
0.000155086
0.000149847
0.000144435
0.000138795
0.00013284
0.000126471
0.00011958
0.000112037
0.000103688
9.43462e-05
8.3792e-05
7.17552e-05
5.80375e-05
4.26301e-05
2.54691e-05
8.56365e-06
0.000264153
0.000261293
0.000258327
0.000255261
0.000252102
0.000248853
0.000245516
0.000242088
0.000238565
0.000234943
0.000231219
0.000227388
0.000223447
0.000219392
0.00021522
0.000210925
0.000206501
0.000201944
0.000197247
0.000192405
0.000187415
0.000182273
0.00017698
0.000171532
0.00016593
0.000160166
0.000154216
0.000148011
0.000141431
0.00013435
0.000126661
0.00011824
0.000108926
9.85182e-05
8.67869e-05
7.35388e-05
5.86729e-05
4.21691e-05
2.46145e-05
9.03357e-06
0.000279206
0.000276102
0.000272905
0.00026962
0.000266251
0.0002628
0.000259267
0.000255644
0.000251926
0.000248104
0.000244173
0.00024013
0.000235969
0.000231686
0.000227275
0.000222728
0.000218037
0.000213193
0.000208189
0.000203018
0.000197678
0.000192168
0.000186488
0.00018064
0.000174628
0.000168454
0.000162105
0.000155506
0.000148474
0.000140842
0.000132541
0.000123479
0.000113513
0.000102457
9.00515e-05
7.59955e-05
6.02687e-05
4.31693e-05
2.56083e-05
1.00943e-05
0.000291053
0.000287708
0.000284293
0.000280808
0.000277255
0.000273635
0.000269941
0.000266162
0.000262284
0.000258298
0.000254197
0.000249975
0.000245629
0.000241151
0.000236534
0.000231765
0.000226834
0.000221731
0.000216446
0.000210979
0.000205329
0.000199505
0.000193515
0.000187371
0.000181087
0.000174674
0.000168123
0.00016134
0.000154036
0.000146066
0.000137452
0.000128098
0.000117875
0.000106636
9.42243e-05
8.03217e-05
6.46432e-05
4.71129e-05
2.85493e-05
1.1661e-05
0.000299988
0.000296414
0.000292797
0.000289134
0.000285421
0.000281656
0.000277824
0.000273905
0.00026988
0.000265736
0.000261463
0.000257058
0.000252517
0.000247833
0.000242995
0.000237987
0.000232797
0.000227415
0.000221838
0.000216072
0.000210131
0.000204043
0.000197837
0.000191544
0.000185185
0.000178753
0.000172181
0.000165292
0.000157829
0.000149772
0.000141218
0.000131999
0.000121872
0.000110689
9.83655e-05
8.46306e-05
6.91442e-05
5.16491e-05
3.22106e-05
1.32017e-05
0.000306595
0.000302822
0.000299029
0.00029521
0.000291358
0.000287459
0.000283492
0.000279425
0.00027523
0.00027089
0.000266397
0.000261752
0.000256956
0.000252003
0.000246881
0.000241575
0.00023607
0.000230362
0.000224458
0.000218381
0.000212172
0.000205892
0.000199598
0.000193326
0.00018707
0.000180755
0.000174241
0.000167326
0.000159852
0.000151932
0.000143569
0.000134593
0.000124757
0.000113867
0.000101677
8.79279e-05
7.23017e-05
5.45312e-05
3.42819e-05
1.43452e-05
0.00031195
0.000308038
0.000304113
0.000300166
0.000296188
0.00029216
0.000288051
0.000283817
0.000279413
0.000274817
0.000270033
0.000265072
0.000259947
0.000254662
0.000249208
0.00024357
0.000237733
0.000231696
0.000225474
0.000219106
0.000212677
0.000206296
0.000200012
0.000193818
0.00018768
0.000181426
0.000174934
0.000168055
0.000160733
0.000153025
0.000144909
0.000136263
0.000126843
0.000116365
0.00010448
9.08169e-05
7.49325e-05
5.64152e-05
3.55816e-05
1.52914e-05
0.00031768
0.000313723
0.000309738
0.000305717
0.000301651
0.000297518
0.000293286
0.000288911
0.000284318
0.000279469
0.000274393
0.000269128
0.000263701
0.000258134
0.000252432
0.000246579
0.000240558
0.000234351
0.000227962
0.000221491
0.000215047
0.000208683
0.000202399
0.000196172
0.000189961
0.000183625
0.000177003
0.000169987
0.000162562
0.000154792
0.000146684
0.000138139
0.000128938
0.000118766
0.000107206
9.37741e-05
7.79299e-05
5.92281e-05
3.78878e-05
1.68102e-05
0.000325682
0.000321798
0.000317861
0.000313862
0.000309802
0.000305675
0.00030146
0.000297117
0.000292516
0.000287607
0.000282448
0.000277089
0.00027157
0.000265942
0.000260238
0.000254453
0.000248546
0.000242464
0.000236234
0.000229939
0.000223622
0.000217293
0.000210933
0.000204504
0.000197943
0.000191118
0.000183911
0.000176254
0.000168165
0.000159723
0.000150972
0.000141879
0.000132291
0.000121911
0.000110304
9.6924e-05
8.1156e-05
6.2435e-05
4.07234e-05
1.85559e-05
0.000337637
0.000333967
0.000330241
0.000326469
0.000322644
0.000318781
0.000314889
0.000310893
0.000306649
0.000302088
0.000297234
0.000292126
0.000286815
0.000281383
0.000275917
0.000270442
0.000264886
0.000259149
0.000253211
0.000247057
0.0002407
0.000234155
0.000227408
0.000220414
0.000213101
0.000205374
0.00019715
0.000188381
0.000179079
0.000169317
0.000159182
0.000148732
0.00013791
0.000126487
0.000114041
9.99955e-05
8.36828e-05
6.44619e-05
4.22494e-05
1.99107e-05
0.000354664
0.000351417
0.000348146
0.000344884
0.000341598
0.000338307
0.00033506
0.000331776
0.000328284
0.000324452
0.000320239
0.000315675
0.000310811
0.000305726
0.000300579
0.00029543
0.00029018
0.000284663
0.000278743
0.000272365
0.000265558
0.000258385
0.000250879
0.000243008
0.000234696
0.000225854
0.000216389
0.000206234
0.000195373
0.000183851
0.000171775
0.000159276
0.000146415
0.000133054
0.000118796
0.000103044
8.50471e-05
6.38831e-05
3.90689e-05
1.99267e-05
0.000377062
0.000374428
0.000371832
0.000369286
0.000366739
0.000364178
0.00036171
0.0003593
0.000356745
0.00035382
0.000350414
0.000346611
0.000342415
0.000337842
0.00033299
0.000327846
0.000322495
0.000316788
0.000310506
0.000303528
0.000295909
0.000287811
0.000279364
0.000270548
0.000261257
0.000251353
0.000240673
0.000229099
0.000216609
0.000203221
0.000188993
0.00017406
0.000158583
0.000142541
0.000125575
0.000107105
8.64937e-05
6.29842e-05
3.52836e-05
4.63866e-06
0.000404032
0.000402035
0.000400127
0.000398291
0.000396431
0.000394546
0.000392824
0.000391289
0.000389704
0.000387805
0.000385416
0.000382478
0.000378754
0.000374264
0.000369178
0.000363688
0.000357977
0.000352032
0.000345453
0.000337849
0.000329328
0.000320287
0.000311039
0.000301531
0.000291527
0.000280791
0.000269052
0.000256156
0.000242201
0.000227215
0.000211129
0.00019395
0.000175815
0.000156826
0.000136702
0.000114902
9.08827e-05
6.40232e-05
3.40214e-05
2.01453e-05
0.000433836
0.000432371
0.000431003
0.0004297
0.000428385
0.000427112
0.000426061
0.000425273
0.000424513
0.000423488
0.000421875
0.000419265
0.00041564
0.000411082
0.000405679
0.000399744
0.000393621
0.000387426
0.00038055
0.000372332
0.000363209
0.000353816
0.000344479
0.000334834
0.000324329
0.000312787
0.000300007
0.000285938
0.000270788
0.000254629
0.000237332
0.000218767
0.000198811
0.000177541
0.000154928
0.000130556
0.000103641
7.28766e-05
3.71913e-05
4.93843e-06
0.000464204
0.000463179
0.000462227
0.000461281
0.000460354
0.000459637
0.000459183
0.000458871
0.000458467
0.000457816
0.000456356
0.000453587
0.000449795
0.00044504
0.000439464
0.000433456
0.000427356
0.000421058
0.000413676
0.000404872
0.000395468
0.000386415
0.000377712
0.000368021
0.00035666
0.000343958
0.000329991
0.000315121
0.000299207
0.000282201
0.000264286
0.000245437
0.000225188
0.000203093
0.000179414
0.000153933
0.000125594
9.18718e-05
4.90737e-05
5.91183e-06
0.000493063
0.000492314
0.000491632
0.00049094
0.000490373
0.000490173
0.000490258
0.000490138
0.000489489
0.000488389
0.000486402
0.000483301
0.000479315
0.000474409
0.000468754
0.000462776
0.000456707
0.000450182
0.000442674
0.000434251
0.000425386
0.000416417
0.000406724
0.000395596
0.000383204
0.000369597
0.000354723
0.000338865
0.000322208
0.00030496
0.000287342
0.000269044
0.000249542
0.000227695
0.000203398
0.000177115
0.000147838
0.000112254
6.31772e-05
7.15086e-06
0.000518992
0.000518486
0.000518137
0.000517792
0.000517571
0.000517634
0.00051766
0.000517139
0.000515994
0.000514312
0.000511826
0.000508458
0.000504288
0.000499265
0.000493502
0.000487375
0.000481093
0.000474546
0.000467465
0.000459508
0.000450558
0.000440748
0.000429838
0.000417566
0.000403978
0.00038903
0.000372756
0.000355559
0.000337874
0.000319813
0.000301331
0.000282448
0.000262997
0.00024214
0.000218144
0.000191208
0.000161023
0.000124529
7.1683e-05
8.13854e-06
0.000541589
0.000541393
0.000541398
0.000541425
0.000541443
0.000541393
0.000541087
0.000540219
0.000538667
0.000536472
0.000533625
0.000530114
0.000525939
0.000521001
0.000515304
0.00050911
0.000502579
0.000495622
0.000487987
0.000479451
0.000470006
0.000459465
0.000447549
0.000434161
0.000419346
0.000403179
0.000385744
0.000367293
0.000348093
0.000328215
0.000307605
0.000286387
0.000264545
0.000241708
0.000217379
0.00019087
0.000159938
0.000123014
7.17283e-05
8.88155e-06
0.000561112
0.000561249
0.000561519
0.000561798
0.000561984
0.00056193
0.000561444
0.000560343
0.000558573
0.00055619
0.000553254
0.000549771
0.000545684
0.000540883
0.000535288
0.000528922
0.000521887
0.000514175
0.000505666
0.000496258
0.000485874
0.000474306
0.000461323
0.000446855
0.000431032
0.000413981
0.000395685
0.000376289
0.000355914
0.000334559
0.000312184
0.000288871
0.000264591
0.000239101
0.000212048
0.000182926
0.000150695
0.000113746
6.657e-05
8.23447e-06
0.000578263
0.000578791
0.000579351
0.000579841
0.000580141
0.000580114
0.00057961
0.00057851
0.00057678
0.000574476
0.00057166
0.00056831
0.000564303
0.000559493
0.000553768
0.000547073
0.000539457
0.000530963
0.000521547
0.000511148
0.000499695
0.000487054
0.00047311
0.000457877
0.000441469
0.000423882
0.000405125
0.000385289
0.00036433
0.00034218
0.000318904
0.00029446
0.000268711
0.000241517
0.000212563
0.000181375
0.000147119
0.000108208
6.10915e-05
8.39226e-06
0.000593699
0.000594695
0.000595624
0.000596398
0.000596908
0.000597037
0.000596676
0.000595742
0.000594206
0.000592084
0.000589398
0.000586092
0.000582023
0.000577012
0.000570956
0.00056383
0.00055565
0.00054645
0.000536244
0.000525018
0.000512739
0.000499359
0.000484876
0.000469343
0.000452824
0.000435298
0.000416727
0.000397062
0.000376193
0.000354049
0.00033059
0.000305662
0.000279147
0.000251003
0.000221042
0.000188967
0.000154033
0.000114231
6.55586e-05
9.61061e-06
0.000607912
0.000609484
0.000610908
0.000612104
0.000612975
0.000613419
0.000613343
0.000612674
0.000611366
0.000609399
0.000606737
0.000603295
0.000598943
0.000593561
0.000587075
0.000579464
0.000570748
0.000560976
0.000550202
0.000538471
0.000525817
0.000512273
0.000497882
0.000482704
0.000466768
0.000450036
0.000432411
0.000413743
0.000393844
0.000372522
0.000349575
0.000324769
0.000297915
0.000268863
0.00023741
0.000203285
0.000165979
0.000123994
7.39585e-05
1.08235e-05
0.000621308
0.000623554
0.000625591
0.000627335
0.000628689
0.000629553
0.000629833
0.000629444
0.000628313
0.00062639
0.000623609
0.00061989
0.000615144
0.0006093
0.000602324
0.000594229
0.00058507
0.000574931
0.000563912
0.000552117
0.000539646
0.000526588
0.000513014
0.000498972
0.000484452
0.000469365
0.000453537
0.000436717
0.000418591
0.0003988
0.000376957
0.000352661
0.00032553
0.000295217
0.000261388
0.000223706
0.000181752
0.000134685
7.95834e-05
1.2066e-05
0.000634187
0.000637164
0.000639877
0.00064223
0.000644117
0.000645426
0.00064605
0.000645888
0.000644847
0.000642862
0.00063987
0.000635811
0.000630642
0.000624345
0.000616942
0.000608498
0.000599115
0.00058893
0.000578098
0.000566779
0.000555121
0.000543246
0.000531233
0.000519101
0.000506782
0.000494112
0.000480816
0.000466518
0.000450751
0.000432971
0.000412582
0.000388953
0.000361457
0.000329503
0.000292581
0.000250311
0.000202441
0.000148617
8.72729e-05
1.36325e-05
0.000646679
0.000650391
0.00065378
0.000656734
0.000659129
0.000660839
0.000661745
0.000661736
0.000660714
0.000658618
0.000655407
0.000651056
0.00064557
0.000638989
0.000631393
0.000622904
0.000613683
0.00060392
0.000593818
0.000583582
0.000573387
0.000563363
0.000553572
0.000543982
0.000534457
0.000524736
0.000514435
0.000503047
0.000489952
0.000474436
0.000455699
0.000432878
0.000405064
0.000371351
0.00033091
0.000283125
0.000227755
0.000165008
9.49969e-05
1.53943e-05
0.00065876
0.000663165
0.000667177
0.000670665
0.00067349
0.000675518
0.000676628
0.000676713
0.00067569
0.000673523
0.000670206
0.00066576
0.00066024
0.000653737
0.000646383
0.000638351
0.000629847
0.000621103
0.000612357
0.000603833
0.000595711
0.000588101
0.000581024
0.000574385
0.000567966
0.000561413
0.000554236
0.000545813
0.000535406
0.000522168
0.00050515
0.000483294
0.000455426