/*--------------------------------*- C++ -*----------------------------------*\
  =========                 |
  \\      /  F ield         | OpenFOAM: The Open Source CFD Toolbox
   \\    /   O peration     | Website:  https://openfoam.org
    \\  /    A nd           | Version:  8
     \\/     M anipulation  |
\*---------------------------------------------------------------------------*/
FoamFile
{
    version     2.0;
    format      ascii;
    class       volScalarField;
    location    "4.4";
    object      p;
}
// * * * * * * * * * * * * * * * * * * * * * * * * * * * * * * * * * * * * * //

dimensions      [1 -1 -2 0 0 0 0];

internalField   nonuniform List<scalar> 
9150
(
395.528
368.53
343.031
325.831
317.518
317.5
325.783
342.963
368.454
395.46
366.671
347.115
331.463
319.656
313.67
313.657
319.622
331.413
347.055
366.61
337.396
323.822
315.285
307.523
303.411
303.402
307.497
315.245
323.774
337.342
312.688
302.659
297.196
291.829
288.856
288.849
291.807
297.163
302.618
312.64
291.4
282.47
277.892
273.716
271.268
271.261
273.696
277.862
282.432
291.354
29.0285
25
49.9992
64.1366
70.6433
70.4373
63.542
49.1038
23.7569
27.3614
198.817
174.755
169.336
168.076
168.141
168.027
167.752
168.839
174.116
198.178
303.136
271.891
255.986
246.096
241.417
241.352
245.911
255.712
271.57
302.843
383.679
341.609
313.841
296.497
287.989
287.95
296.388
313.686
341.44
383.539
434.525
381.763
343.158
321.119
310.972
310.946
321.048
343.061
381.662
434.45
-45.0686
-17.3495
-29.5495
-23.0426
-26.3798
-28.2701
-23.8234
-33.3136
-24.1583
-65.411
-40.6566
-27.9335
-46.7161
-42.345
-45.7624
-47.2664
-43.0854
-53.387
-34.4014
-54.4834
-86.2436
-57.5764
-88.8332
-83.6479
-80.9088
-81.5172
-84.7458
-94.1696
-62.6888
-95.0286
-266.2
-143.365
-126.248
-108.597
-93.0006
-93.3922
-110.331
-129.98
-146.214
-273.302
-413.068
-175.318
-79.3375
-49.503
-34.098
-34.4213
-50.6078
-81.0841
-177.344
-418.057
1816.89
1816.95
1817.02
1817.09
1817.16
1817.23
1817.31
1817.39
1817.47
1817.55
1797.32
1797.39
1797.46
1797.53
1797.61
1797.68
1797.76
1797.84
1797.92
1798.01
1777.76
1777.83
1777.9
1777.97
1778.05
1778.13
1778.21
1778.29
1778.37
1778.45
1758.17
1758.24
1758.31
1758.39
1758.47
1758.55
1758.63
1758.71
1758.8
1758.88
1738.55
1738.62
1738.7
1738.78
1738.86
1738.94
1739.03
1739.11
1739.2
1739.28
1718.91
1718.99
1719.07
1719.15
1719.23
1719.32
1719.4
1719.49
1719.58
1719.66
1699.25
1699.33
1699.41
1699.5
1699.58
1699.67
1699.76
1699.84
1699.93
1700.03
1679.57
1679.66
1679.74
1679.82
1679.91
1680
1680.09
1680.18
1680.27
1680.37
1659.88
1659.96
1660.05
1660.13
1660.22
1660.31
1660.4
1660.5
1660.59
1660.69
1640.18
1640.26
1640.34
1640.42
1640.51
1640.6
1640.7
1640.8
1640.9
1641
1620.47
1620.54
1620.61
1620.7
1620.78
1620.87
1620.97
1621.08
1621.19
1621.3
1600.76
1600.81
1600.86
1600.95
1601.04
1601.1
1601.15
1601.37
1601.55
1601.71
1581.09
1581.11
1581.1
1581.15
1581.47
1581.73
1582.2
1581.74
1582.16
1582.09
1561.58
1561.63
1562.19
1562.91
1563.01
1562.03
1562.09
1562.15
1562.27
1562.43
1542.5
1543.11
1543.4
1543.46
1542.66
1542.47
1542.5
1542.52
1542.54
1542.56
1523.11
1523.69
1522.96
1523.07
1523.02
1522.94
1522.89
1522.86
1522.83
1522.81
1503.74
1503.56
1503.48
1503.44
1503.39
1503.31
1503.24
1503.16
1503.06
1502.98
1484.05
1484.01
1483.95
1483.87
1483.79
1483.69
1483.58
1483.55
1483.45
1483.79
1464.54
1464.48
1464.4
1464.29
1464.17
1464.17
1463.94
1464.71
1464.97
1465.03
1444.96
1444.91
1444.93
1444.86
1445.2
1445.56
1445.8
1445.69
1444.82
1444.7
1425.29
1425.28
1425.84
1426.13
1426.33
1425.99
1425.3
1425.26
1424.89
1424.59
1405.62
1406.38
1406.53
1406.33
1406.21
1406.44
1406.11
1405.83
1405.6
1405.39
1385.32
1387.37
1385.99
1386.52
1386.31
1386.02
1386.05
1385.73
1385.18
1385.99
1365.38
1365.19
1364.81
1364.83
1365.51
1370.46
1366.35
1366.88
1367.16
1366.89
1345.28
1345.84
1346.14
1352.14
1353.87
1347.72
1347.12
1347.72
1348.76
1350.23
1325.73
1328.87
1330.7
1331.7
1330.55
1326.68
1326.53
1326.98
1327.66
1328.59
1308.21
1309.24
1309.84
1308.66
1307.32
1306.14
1305.79
1305.76
1305.9
1306.24
1289.27
1288.81
1287.87
1286.52
1285.17
1284.38
1283.85
1283.52
1283.35
1283.35
1273.69
1265.52
1263.98
1262.91
1262.07
1261.52
1260.84
1260.4
1260.08
1259.87
1242.71
1240.05
1239.6
1239.07
1238.51
1237.92
1237.31
1236.81
1236.38
1236.03
1218.17
1217.33
1216.53
1215.86
1215.13
1214.4
1213.7
1213.07
1212.51
1212
1195.47
1194.52
1193.58
1192.77
1191.79
1190.9
1190.07
1189.3
1188.58
1187.93
1173.15
1171.92
1170.74
1169.62
1168.54
1167.5
1166.53
1165.61
1164.74
1163.95
1150.96
1149.48
1148.08
1146.75
1145.48
1144.29
1143.16
1142.1
1141.1
1140.17
1128.79
1127.11
1125.52
1124.02
1122.61
1121.27
1120.02
1118.85
1117.75
1116.72
1106.7
1104.84
1103.11
1101.48
1099.95
1098.52
1097.18
1095.94
1094.77
1093.69
1084.46
1082.56
1080.78
1079.1
1077.53
1076.06
1074.7
1073.44
1072.27
1071.18
1062.33
1060.43
1058.65
1056.97
1055.42
1053.98
1052.65
1051.42
1050.3
1049.27
1040.34
1038.5
1036.78
1035.17
1033.68
1032.31
1031.07
1029.93
1028.91
1027.98
1018.58
1016.85
1015.23
1013.73
1012.36
1011.12
1009.99
1008.99
1008.1
1007.32
997.108
995.528
994.061
992.716
991.498
990.406
989.437
988.585
987.843
987.203
976.078
974.658
973.357
972.183
971.139
970.222
969.424
968.738
968.155
967.665
955.495
954.258
953.146
952.178
951.378
950.582
949.969
949.458
949.043
948.708
935.336
934.337
933.449
932.725
932.088
931.491
931.078
930.739
930.509
930.349
915.583
914.9
914.323
913.855
913.437
913.076
912.807
912.775
912.753
912.843
896.27
896.167
895.968
895.766
895.629
895.537
895.706
896.177
896.299
896.397
877.238
878.628
878.8
878.653
878.569
878.619
878.908
879.629
879.493
879.546
865.706
862.971
862.608
862.382
862.148
862.079
862.304
862.442
862.679
862.976
852.944
849.016
845.768
845.352
845.42
845.586
845.831
846.136
846.496
846.891
831.055
829.992
826.935
827.982
828.596
829.103
829.555
830.022
830.521
831.039
809.219
808.8
813.044
813.75
813.931
813.833
813.961
814.31
814.79
815.343
789.849
786.42
795.02
798.986
797.261
797.25
797.501
798.021
798.658
799.349
783.151
790.525
788.822
781.607
780.791
780.696
781.024
781.601
782.303
783.077
770.682
774.656
763.751
759.313
760.348
761.811
763.011
764.081
765.132
766.195
752.88
752.636
747.501
744.042
744.354
745.314
746.201
747.109
748.113
749.23
734.388
732.662
728.976
727.6
727.831
728.33
728.875
729.53
730.315
731.228
716.362
713.264
711.362
710.984
710.991
711.092
711.307
711.656
712.132
712.729
698.786
696.227
695.195
694.66
694.243
693.954
693.808
693.781
693.856
694.018
682.235
680.455
679.364
678.482
677.748
677.166
676.711
676.351
676.054
675.793
666.072
664.661
663.489
662.48
661.638
660.936
660.336
659.806
659.308
658.8
650.017
648.831
647.769
646.864
646.109
645.476
644.942
644.474
644.025
643.54
633.932
633.076
632.34
631.727
631.238
630.872
630.629
630.489
630.405
630.294
617.934
617.553
617.255
617.047
616.943
616.977
617.214
617.675
618.326
619.066
602.092
602.509
602.727
602.865
603.005
603.373
604.162
605.478
607.34
609.729
587.584
587.519
588.434
589.328
589.327
590.222
591.522
593.883
597.462
601.77
573.345
574.083
573.507
576.706
578.062
579.867
586.148
588.925
591.992
592.537
557.504
557.158
557.377
560.502
563.651
565.811
571.866
574.776
575.692
576.806
536.496
535.757
537.063
539.156
542.421
543.467
554.061
549.768
555.321
560.599
514.826
514.752
514.776
516.101
520.243
520.082
522.166
526.488
536.14
546.309
494.414
493.512
493.131
494.38
492.447
486.307
488.631
500.033
530.37
538.599
474.249
472.69
474.236
468.847
464.086
456.269
466.448
506.493
509.797
519.581
456.688
457.748
453.223
451.176
443.473
450.936
472.268
483.762
494.031
497.985
440.861
438.149
435.091
431.682
432.767
449.492
458.593
459.581
467.64
462.157
426.106
423.582
420.841
421.459
427.955
432.683
435.776
441.963
441.462
425.994
412.751
410.131
408.519
411.707
417.228
419.85
419.152
416.519
405.903
387.27
399.966
398.967
401.74
407.219
408.34
405.175
399.365
388.9
372.043
351.983
388.007
389.5
395.319
399.866
399.408
390.935
375.679
359.115
340.599
320.023
375.363
378.613
394.4
393.532
384.484
368.144
351.713
333.478
313.173
291.247
368.125
376.407
386.465
378.313
362.728
343.727
326.456
307.641
286.709
264.236
354.353
375.246
370.299
357.487
337.397
319.751
302.28
282.848
261.631
239.197
342.27
356.194
331.44
318.713
306.949
293.259
276.676
257.739
237.121
215.318
341.895
323.536
304.883
296.389
284.647
269.689
252.447
233.316
212.872
191.805
330.709
296.907
281.074
271.646
260.673
246.262
228.958
209.372
188.023
165
289.873
285.261
272.049
256.884
241.973
226.271
208.857
189.898
169.822
148.862
258.711
249.123
241.581
230.051
217.123
203.049
187.438
170.809
153.91
137.545
223.743
221.982
214.284
203.283
191.521
178.443
163.889
148.704
133.976
120.99
191.583
193.05
185.452
175.397
164.828
152.658
138.732
123.594
107.548
90.1451
160.604
162.086
156.394
148.194
139.119
128.511
116.438
103.392
89.7823
75.4933
133.944
133.796
129.48
122.496
114.462
105.321
95.228
84.807
74.9529
65.1001
109.368
107.439
102.828
96.6459
89.8623
82.3772
73.9911
65.2322
56.3356
44.0181
61.3514
72.0023
74.2129
71.9036
67.4824
61.8769
55.0603
47.8076
39.8774
27.0763
50.9376
56.8363
57.4249
55.0235
50.7711
45.5949
39.2387
32.3888
24.3251
11.8753
46.2614
47.147
45.3558
41.989
37.5646
32.6045
26.5537
20.0055
12.3065
2.87215
36.1266
36.4403
34.5131
30.4534
26.1714
21.7399
16.2511
10.3514
3.88297
-1.27985
28.2573
26.5895
23.3733
18.4854
14.8759
11.7226
7.39154
2.63228
-2.27491
-3.81217
0.307799
5.20689
7.13059
5.03088
3.52588
2.39178
-0.417588
-3.75172
-7.32253
-5.57155
-25.4115
-12.336
-5.05496
-4.16202
-4.74144
-5.09401
-7.39024
-9.755
-13.5218
-8.15022
-11.4137
-10.2799
-8.56868
-8.07006
-9.68466
-10.702
-13.3303
-14.5163
-20.3979
-13.5726
-5.12479
-7.82648
-12.2658
-11.5075
-13.8697
-15.0844
-15.6864
-13.3591
-16.847
-24.4149
-13.0212
-3.15516
-16.7188
-15.5415
-18.7451
-20.1233
-17.302
-13.0364
-1.92499
-39.4151
1817.63
1817.73
1817.83
1817.92
1818.02
1818.12
1818.21
1818.31
1818.4
1818.5
1818.59
1818.68
1818.77
1818.85
1818.93
1819.02
1819.09
1819.17
1819.24
1819.3
1819.36
1819.42
1819.48
1819.52
1819.57
1819.63
1819.66
1819.69
1819.72
1819.76
1819.78
1819.8
1819.81
1819.83
1819.84
1819.86
1819.87
1819.88
1819.89
1819.88
1798.1
1798.19
1798.29
1798.38
1798.48
1798.58
1798.67
1798.77
1798.86
1798.95
1799.04
1799.13
1799.22
1799.3
1799.38
1799.46
1799.54
1799.61
1799.68
1799.74
1799.81
1799.87
1799.93
1799.98
1800.02
1800.06
1800.11
1800.15
1800.17
1800.19
1800.22
1800.24
1800.25
1800.26
1800.26
1800.26
1800.26
1800.26
1800.26
1800.27
1778.54
1778.64
1778.74
1778.83
1778.93
1779.03
1779.12
1779.22
1779.31
1779.4
1779.49
1779.58
1779.66
1779.74
1779.82
1779.9
1779.98
1780.05
1780.12
1780.18
1780.24
1780.3
1780.35
1780.4
1780.45
1780.49
1780.53
1780.57
1780.59
1780.6
1780.62
1780.64
1780.64
1780.65
1780.64
1780.64
1780.64
1780.64
1780.65
1780.66
1758.97
1759.07
1759.17
1759.26
1759.36
1759.46
1759.56
1759.65
1759.74
1759.84
1759.93
1760.01
1760.1
1760.18
1760.27
1760.34
1760.42
1760.49
1760.56
1760.62
1760.68
1760.74
1760.8
1760.85
1760.89
1760.93
1760.97
1761
1761.02
1761.04
1761.05
1761.05
1761.05
1761.04
1761.02
1761.01
1761.01
1761.03
1761.05
1761.07
1739.38
1739.48
1739.58
1739.68
1739.78
1739.87
1739.97
1740.07
1740.17
1740.26
1740.36
1740.45
1740.54
1740.62
1740.71
1740.79
1740.86
1740.94
1741
1741.07
1741.13
1741.19
1741.25
1741.3
1741.34
1741.38
1741.43
1741.46
1741.47
1741.49
1741.49
1741.49
1741.47
1741.45
1741.41
1741.35
1741.37
1741.41
1741.46
1741.48
1719.76
1719.86
1719.97
1720.07
1720.17
1720.28
1720.38
1720.48
1720.59
1720.69
1720.78
1720.88
1720.97
1721.06
1721.15
1721.24
1721.31
1721.39
1721.46
1721.54
1721.6
1721.65
1721.71
1721.76
1721.81
1721.86
1721.91
1721.93
1721.96
1721.98
1721.99
1721.99
1721.98
1721.96
1721.94
1722.1
1722.35
1721.96
1721.98
1722.01
1700.12
1700.23
1700.34
1700.45
1700.56
1700.67
1700.78
1700.89
1700.99
1701.1
1701.21
1701.31
1701.41
1701.51
1701.6
1701.69
1701.78
1701.86
1701.94
1702.01
1702.07
1702.13
1702.19
1702.24
1702.3
1702.35
1702.39
1702.43
1702.47
1702.51
1702.53
1702.54
1702.55
1702.54
1702.76
1702.89
1702.92
1702.87
1702.87
1702.92
1680.47
1680.58
1680.69
1680.81
1680.92
1681.04
1681.16
1681.28
1681.4
1681.51
1681.63
1681.74
1681.85
1681.96
1682.06
1682.16
1682.25
1682.34
1682.43
1682.5
1682.57
1682.63
1682.69
1682.74
1682.8
1682.83
1682.89
1682.95
1683.02
1683.08
1683.11
1683.14
1683.17
1683.22
1683.68
1683.62
1683.55
1683.66
1683.67
1683.61
1660.79
1660.91
1661.03
1661.15
1661.27
1661.4
1661.53
1661.66
1661.79
1661.92
1662.05
1662.17
1662.29
1662.41
1662.53
1662.64
1662.75
1662.84
1662.94
1663.02
1663.09
1663.16
1663.22
1663.27
1663.29
1663.33
1663.38
1663.47
1663.6
1663.68
1663.74
1663.79
1663.83
1663.92
1664.09
1664.21
1664.39
1664.31
1664.31
1664.37
1641.1
1641.21
1641.33
1641.47
1641.62
1641.74
1641.89
1642.03
1642.17
1642.31
1642.46
1642.6
1642.74
1642.87
1643.01
1643.13
1643.25
1643.37
1643.47
1643.57
1643.65
1643.73
1643.79
1643.83
1643.85
1643.82
1643.83
1644.28
1644.18
1644.34
1644.37
1644.42
1644.53
1644.6
1644.58
1644.73
1644.72
1644.92
1644.97
1644.91
1621.4
1621.59
1621.75
1621.76
1621.92
1622.07
1622.22
1622.37
1622.53
1622.69
1622.85
1623.01
1623.18
1623.33
1623.48
1623.63
1623.77
1623.91
1624.04
1624.16
1624.27
1624.38
1624.48
1624.57
1624.65
1624.75
1626.07
1625.65
1625.28
1625.45
1625.18
1625.87
1625.31
1625.59
1625.15
1625.81
1625.72
1625.3
1625.32
1625.39
1601.91
1602.06
1602.04
1602.11
1602.24
1602.38
1602.54
1602.7
1602.88
1603.06
1603.24
1603.42
1603.6
1603.78
1603.95
1604.13
1604.3
1604.46
1604.62
1604.78
1604.93
1605.07
1605.22
1605.36
1605.71
1606.17
1606.51
1606.46
1606.67
1606.56
1606.36
1606.63
1606.05
1606.86
1606.13
1606.45
1606.42
1606.33
1606.18
1606.13
1582.32
1582.24
1582.28
1582.39
1582.51
1582.65
1582.81
1582.98
1583.18
1583.38
1583.59
1583.8
1584
1584.21
1584.41
1584.61
1584.81
1585.01
1585.21
1585.4
1585.59
1585.74
1586.13
1586.73
1586.96
1587.2
1587.33
1586.84
1587.47
1587.09
1587.64
1587.13
1587.01
1587.11
1586.98
1587.14
1587.31
1587.29
1587.15
1587.04
1562.4
1562.42
1562.51
1562.61
1562.72
1562.85
1563.01
1563.21
1563.43
1563.65
1563.92
1564.17
1564.4
1564.61
1564.84
1565.07
1565.31
1565.56
1565.81
1566.07
1566.34
1566.68
1567.72
1567.98
1567.97
1567.74
1568.35
1567.96
1568.2
1568.01
1567.75
1567.77
1567.73
1567.7
1567.69
1567.69
1567.67
1567.78
1567.59
1567.58
1542.59
1542.64
1542.7
1542.78
1542.89
1542.98
1543.13
1543.32
1543.76
1544.54
1544.44
1544.56
1544.77
1544.98
1545.2
1545.45
1545.74
1546.02
1546.3
1546.58
1546.83
1547.08
1548.01
1548.12
1548.23
1548.46
1548.55
1548.53
1548.43
1548.43
1548.41
1548.36
1548.32
1548.28
1548.25
1548.22
1548.18
1548.15
1548.11
1548.08
1522.83
1522.85
1522.87
1523.02
1523.14
1523.52
1524.85
1525.43
1524.59
1524.49
1524.75
1524.93
1525.09
1525.26
1525.46
1525.73
1526.06
1526.43
1526.78
1527.11
1527.41
1527.7
1528
1528.33
1528.62
1528.86
1529.01
1529.07
1529.07
1529.05
1529.01
1528.96
1528.9
1528.84
1528.79
1528.73
1528.68
1528.63
1528.58
1528.53
1503.08
1503.24
1503.31
1504.48
1505.18
1505.08
1505.36
1504.96
1504.74
1504.97
1505.14
1505.25
1505.31
1505.34
1505.45
1505.73
1506.15
1506.64
1507.12
1507.52
1507.86
1508.16
1508.46
1508.78
1509.1
1509.36
1509.54
1509.65
1509.68
1509.67
1509.62
1509.55
1509.46
1509.39
1509.32
1509.25
1509.18
1509.11
1509.05
1508.98
1484.23
1484.38
1484.65
1484.61
1484.26
1484.67
1484.66
1485.22
1485.29
1485.46
1485.57
1485.59
1485.51
1485.33
1485.1
1485.45
1486.26
1487.24
1487.54
1487.97
1488.27
1488.5
1488.79
1489.16
1489.54
1489.88
1490.12
1490.25
1490.31
1490.31
1490.24
1490.14
1490.01
1489.92
1489.86
1489.8
1489.73
1489.64
1489.54
1489.42
1464.97
1464.34
1465.03
1465.12
1465.06
1464.92
1464.6
1464.67
1465.28
1466.12
1466.83
1466.91
1467.16
1469.2
1470.41
1469.72
1468.87
1468.22
1468.84
1468.9
1468.85
1468.75
1468.9
1469.35
1469.91
1470.39
1470.71
1470.86
1470.95
1470.97
1470.89
1470.72
1470.54
1470.43
1470.39
1470.39
1470.36
1470.27
1470.15
1469.88
1444.19
1444.08
1444.08
1444.31
1445.29
1445.7
1445.62
1447.59
1448.17
1448.92
1450.27
1452.26
1451.87
1448.8
1448.34
1448.08
1447.52
1447.73
1448.69
1449.57
1449.31
1448.25
1447.98
1449.02
1450.18
1451.08
1451.47
1451.47
1451.58
1451.69
1451.56
1451.25
1450.92
1450.77
1450.82
1450.96
1451.03
1450.98
1450.8
1450.41
1424.23
1423.48
1425.47
1425.65
1425.03
1424.93
1426.42
1427.45
1427.94
1428.23
1430.46
1429.89
1429.67
1429.24
1428.11
1425.96
1426.24
1427.09
1429.9
1433.09
1433.58
1431.98
1433.78
1432.19
1432.49
1433.42
1434.35
1433.55
1432.69
1433.15
1433
1432.05
1431.05
1430.51
1430.6
1431.11
1431.38
1431.42
1431.23
1430.89
1405.35
1404.03
1405.45
1405.72
1405.41
1405.85
1406.76
1407.58
1408.69
1416.06
1410.29
1411.71
1411.97
1412.12
1411.82
1413.59
1422.53
1422.63
1420.98
1420.4
1421.61
1425.36
1428.63
1429.88
1428.8
1421.16
1420.21
1420.47
1419.19
1416.5
1414.83
1413.91
1412.91
1412.47
1410.91
1411.35
1411.55
1411.54
1411.37
1411.13
1385.32
1385.16
1386.46
1389.16
1389.17
1397.77
1400.02
1402.88
1402.41
1395.81
1393.51
1393.58
1394.21
1395.75
1397.51
1401.04
1410.63
1409.26
1408.54
1408.66
1409.5
1409.89
1407.65
1408.58
1410.22
1405.85
1407.71
1407.31
1405.75
1405.05
1405.26
1404.03
1402.17
1399.3
1394.58
1391.79
1392.19
1392.18
1391.57
1391.31
1369.91
1378.01
1378.5
1378.84
1380.3
1381.84
1381.35
1373.88
1375.63
1375.34
1373.19
1373.1
1375.36
1376.64
1380.52
1384.46
1388.34
1389.52
1389.89
1394.12
1389.86
1390.31
1391.44
1391.04
1391.1
1390.2
1387.98
1387.9
1388.56
1388.12
1387.06
1386.57
1385.38
1383.72
1384.58
1381.1
1376.74
1374.5
1374.23
1374.6
1353.62
1363.38
1363.25
1362.75
1356.35
1357.73
1355.87
1354.48
1354.22
1354.11
1353.55
1356.59
1358.17
1358.13
1359.37
1362.25
1364.66
1366.8
1367.85
1367.12
1366.3
1368.26
1369.06
1371.63
1371.95
1371.31
1371.88
1371.93
1372.1
1372.28
1372.36
1372.74
1373.25
1372.67
1368.93
1370.67
1371.64
1370.14
1369.24
1369.7
1330.39
1331.83
1331.91
1331.62
1331.57
1332.05
1332.26
1332.32
1332.1
1335.78
1336.67
1337.46
1338.25
1339.13
1340.3
1339.18
1341.18
1343.06
1344.69
1344.75
1345.57
1347.49
1348.89
1348.85
1353.69
1352.12
1353.45
1354.04
1354.92
1355.86
1356
1356.3
1357.12
1356.76
1355.74
1356.01
1357.57
1359.14
1360.01
1360.25
1306.79
1307.37
1307.72
1307.97
1308.33
1308.81
1309.34
1309.96
1310.72
1313.42
1316.58
1316.95
1317.97
1318.8
1318.38
1315.97
1317.3
1318.92
1320.61
1322.14
1324.6
1328.31
1327.41
1327
1329.62
1331.12
1332.82
1334.57
1335.46
1337
1338.44
1339.16
1340.09
1341.15
1342.34
1343.91
1344.4
1345.51
1344.57
1344.42
1283.47
1283.67
1283.89
1284.16
1284.52
1284.98
1285.58
1286.39
1287.56
1289.18
1290.96
1291.26
1294.59
1294.09
1291.04
1291.52
1292.54
1293.86
1295.37
1297
1298.54
1299.74
1301.25
1303.1
1305.36
1307.59
1309.83
1312.05
1314.09
1316.21
1318.59
1320.71
1322.71
1324.78
1326.58
1328.41
1328.3
1327.83
1327.88
1326.62
1259.76
1259.73
1259.77
1259.88
1260.07
1260.36
1260.75
1261.28
1261.99
1262.88
1263.82
1264.51
1264.73
1264.82
1265.08
1265.8
1266.76
1267.9
1269.23
1270.7
1272.28
1273.96
1275.84
1277.99
1280.35
1282.84
1285.44
1288.11
1290.82
1293.62
1296.48
1299.3
1302.09
1304.87
1307.64
1309.85
1310.48
1312.02
1311.19
1309.36
1235.74
1235.53
1235.39
1235.31
1235.33
1235.42
1235.61
1235.88
1236.24
1236.68
1237.14
1237.53
1237.85
1238.18
1238.63
1239.26
1240.07
1241.06
1242.26
1243.62
1245.16
1246.9
1248.88
1251.11
1253.59
1256.29
1259.2
1262.28
1265.52
1268.88
1272.33
1275.8
1279.22
1282.5
1285.45
1287.78
1289.2
1289.65
1289.48
1289
1211.54
1211.15
1210.83
1210.58
1210.4
1210.29
1210.25
1210.28
1210.37
1210.5
1210.67
1210.84
1211.01
1211.24
1211.55
1212
1212.59
1213.36
1214.31
1215.48
1216.84
1218.43
1220.31
1222.49
1224.97
1227.75
1230.83
1234.18
1237.79
1241.6
1245.58
1249.65
1253.69
1257.56
1261.02
1263.7
1265.36
1265.42
1263.72
1260.6
1187.31
1186.74
1186.25
1185.82
1185.45
1185.14
1184.89
1184.68
1184.51
1184.38
1184.27
1184.18
1184.12
1184.1
1184.15
1184.29
1184.56
1184.97
1185.56
1186.35
1187.37
1188.66
1190.26
1192.2
1194.52
1197.23
1200.33
1203.8
1207.61
1211.74
1216.11
1220.66
1225.26
1229.75
1233.87
1237.29
1239.6
1240.13
1237.69
1234.07
1163.18
1162.45
1161.79
1161.19
1160.65
1160.15
1159.69
1159.26
1158.85
1158.46
1158.08
1157.7
1157.33
1156.98
1156.66
1156.39
1156.21
1156.14
1156.22
1156.5
1157
1157.79
1158.93
1160.46
1162.46
1164.95
1167.94
1171.39
1175.29
1179.57
1184.19
1189.04
1194.03
1198.99
1203.66
1207.74
1210.77
1211.95
1210.03
1206.79
1139.27
1138.41
1137.61
1136.86
1136.16
1135.49
1134.84
1134.21
1133.57
1132.94
1132.28
1131.59
1130.87
1130.13
1129.36
1128.59
1127.86
1127.19
1126.64
1126.25
1126.08
1126.19
1126.66
1127.6
1129.13
1131.31
1134.13
1137.53
1141.44
1145.79
1150.52
1155.53
1160.71
1165.92
1170.95
1175.49
1179.15
1181.08
1179.76
1175.39
1115.72
1114.76
1113.85
1112.99
1112.16
1111.34
1110.52
1109.7
1108.87
1108
1107.08
1106.09
1105.02
1103.84
1102.57
1101.23
1099.86
1098.51
1097.23
1096.05
1095.05
1094.29
1093.88
1094.01
1094.91
1096.76
1099.5
1102.94
1106.9
1111.31
1116.09
1121.14
1126.35
1131.59
1136.65
1141.33
1145.25
1147.67
1147.1
1143.25
1092.64
1091.62
1090.66
1089.72
1088.8
1087.85
1086.88
1085.89
1084.89
1083.86
1082.77
1081.49
1080.07
1078.46
1076.65
1074.66
1072.6
1070.52
1068.46
1066.44
1064.5
1062.71
1061.21
1060.28
1060.46
1062.25
1065.21
1068.78
1072.85
1077.33
1082.1
1087.12
1092.24
1097.31
1102.17
1106.6
1110.31
1112.63
1112.42
1110
1070.13
1069.11
1068.14
1067.18
1066.2
1065.15
1064.01
1062.84
1061.72
1060.65
1059.47
1058.14
1056.52
1054.46
1051.98
1049.23
1046.32
1043.49
1040.75
1037.96
1035.06
1032.07
1029.06
1025.74
1023.84
1027.53
1033.01
1037.04
1040.89
1045.23
1050.02
1054.73
1059.67
1064.48
1068.99
1073.01
1076.23
1078.1
1077.91
1076.96
1048.27
1047.32
1046.41
1045.51
1044.59
1043.51
1042.05
1040.5
1039.33
1038.39
1037.41
1036.12
1034.47
1032.33
1030.13
1025.63
1021.2
1017.54
1014.36
1011.23
1007.58
1003.08
997.234
990.017
989.56
997.33
1001.8
1009.28
1012.84
1016.32
1020.74
1025.06
1029.72
1034.24
1038.39
1041.97
1044.72
1046.18
1046
1046.08
1027.1
1026.28
1025.52
1024.79
1024.06
1023.16
1022.75
1022.64
1019.36
1018.46
1018
1016.53
1014.48
1012.86
1009.46
1008.02
1004.86
996.395
993.049
989.831
986.029
979.114
972.599
969.181
984.671
991.531
981.225
987.487
990.573
992.32
995.261
998.828
1003.06
1007.27
1011.1
1014.32
1016.72
1018
1018.03
1018.79
1006.61
1005.98
1005.44
1005
1004.65
1004.33
1004.06
1006.72
1006.26
1003.79
1001.07
999.228
997.406
994.643
992.036
989.59
993.446
989.411
981.881
973.212
967.155
959.064
958.134
964.984
971.426
973.861
967.605
970.528
972.188
971.801
972.871
975.853
980.086
984.165
987.598
990.448
992.568
993.807
994.205
995.481
986.638
986.15
985.743
985.396
985.098
984.857
984.723
984.548
983.611
984.564
987.145
985.739
983.663
981.695
978.884
975.238
972.626
970.399
969.589
963.39
952.711
945.298
946.87
956.512
963.414
963.914
963.266
960.462
955.901
951.586
949.584
952.624
960.821
966.157
968.596
970.517
972.206
973.392
974.187
975.752
967.242
966.883
966.579
966.3
966.011
965.672
965.217
964.55
963.712
962.66
961.412
960.66
960.1
958.5
957.631
957.133
956.565
953.312
956.832
951.773
946.026
943.636
943.411
950.869
954.587
955.35
950.47
944.816
937.129
929.002
920.379
933.959
948.278
951.107
953.173
953.952
955.053
956.172
957.324
958.935
948.43
948.209
948.04
947.888
947.708
947.463
947.116
946.615
945.922
945.073
944.172
943.293
942.349
941.309
940.346
939.363
937.927
935.86
934.375
934.442
934.211
932.59
933.368
938.611
937.508
950.783
939.247
929.128
922.501
909.502
908.776
936.96
941.217
936.32
939.589
939.894
940.377
941.39
942.791
944.251
930.195
930.096
930.073
930.071
929.99
929.838
929.592
929.236
928.747
928.128
927.394
926.569
925.639
924.592
923.493
922.346
921.035
919.557
918.241
917.437
916.698
915.817
915.544
921.069
926.051
949.134
930.055
918.625
911.475
901.834
906.668
917.853
918.866
920.264
925.25
926.492
926.987
928.057
929.559
930.892
912.809
913.048
913.1
912.87
912.864
912.75
912.543
912.23
911.789
911.205
910.474
909.609
908.609
907.474
906.235
904.907
903.491
902.053
900.736
899.685
898.715
897.068
894.795
898.671
909.847
938.645
916.007
910.196
910.116
897.947
901.658
904.075
903.604
905.482
909.598
912.674
914.11
915.617
917.221
918.359
896.583
896.702
896.647
896.289
896.262
896.156
895.951
895.626
895.155
894.516
893.707
892.727
891.58
890.28
888.87
887.439
886.08
884.908
883.799
882.503
880.653
877.192
871.699
864.61
872.387
902.556
885.971
896.625
907.002
893.698
894.041
893.444
893.244
893.305
895.522
899.69
902.148
904.176
905.862
906.824
879.64
879.739
879.828
879.901
879.949
879.897
879.709
879.356
878.815
878.068
877.113
875.99
874.613
873.123
871.589
870.199
868.838
866.792
862.084
853.333
845.157
840.303
837.147
833.626
838.015
852.278
862.123
883.663
901.543
888.349
885.538
884.367
884.122
883.655
884.702
888.673
891.51
893.907
895.675
896.547
863.24
863.5
863.75
863.963
864.081
864.059
863.86
863.447
862.797
861.895
860.745
859.382
857.856
856.248
854.486
852.227
847.8
839.596
832.318
830.609
829.512
829.273
829.759
829.928
831.107
832.368
837.051
858.335
890.623
880.595
877.174
876.326
876.142
875.395
876.041
879.13
882.148
884.871
886.838
887.775
847.308
847.722
848.097
848.398
848.58
848.596
848.382
847.885
847.063
845.95
844.641
843.229
841.721
839.896
836.286
831.125
828.24
827.883
828.015
828.336
828.512
828.646
828.785
828.91
829.051
828.917
829.418
836.433
881.028
870.494
869.838
869.873
869.895
869.387
869.741
871.248
874.222
877.303
879.604
880.778
831.587
832.132
832.629
833.044
833.325
833.401
833.105
832.365
831.248
830.037
829.331
829.101
827.791
826.379
826.152
826.365
827.598
827.793
827.847
827.98
828.174
828.374
828.551
828.676
828.713
828.601
828.53
827.999
874.066
858.369
863.464
865.049
865.456
865.37
865.269
865.311
867.883
871.311
874.14
875.708
815.961
816.609
817.223
817.754
818.124
818.161
817.62
816.805
816.754
817.191
818.369
822.225
823.863
824.522
826.415
826.793
826.99
827.294
827.581
827.846
828.089
828.295
828.457
828.565
828.621
828.616
828.478
827.345
856.263
848.566
859.035
861.542
862.524
862.863
862.499
861.454
862.952
866.855
870.569
872.821
800.102
800.882
801.591
802.121
802.47
802.936
804.1
807.271
813.794
818.912
820.271
822.209
824.519
825.166
825.527
826.055
826.56
827.035
827.449
827.799
828.072
828.278
828.424
828.529
828.624
828.72
828.819
828.609
822.763
845.577
850.509
858.443
860.725
861.953
862.099
860.491
859.768
864.247
869.34
872.665
783.928
784.78
785.404
785.598
786.265
790.759
800.212
810.443
817.164
820.63
822.069
822.796
823.452
824.129
824.593
825.01
825.529
826.228
827.049
827.782
828.207
828.355
828.433
828.605
828.934
829.415
830.519
831.745
823.683
851
850.627
856.61
862.043
865.015
865.935
862.794
858.685
863.683
870.778
875.678
767.317
768.371
769.086
770.018
775.039
790.769
808.663
816.161
817.06
817.8
818.958
820.578
822.162
823.551
824.503
824.762
824.447
824.086
823.955
824.199
824.602
824.858
825.687
826.707
828.532
830.375
829.59
839.32
833.462
839.704
846.761
851.208
862.528
871.803
876.297
863.424
857.46
864.657
875.323
882.859
750.511
751.882
753.268
756.282
765.591
787.344
801.951
807.618
813.609
815.391
816.149
815.663
814.056
811.748
809.345
807.158
804.379
802.564
803.476
806.388
808.426
807.962
808.027
813.074
823.125
828.947
827.158
831.892
836.821
840.894
844.779
848.956
857.801
870.507
892.539
881.723
867.705
873.041
886.335
897.293
732.314
733.573
735.004
737.275
746.225
759.581
767.277
783.549
788.261
786.585
783.888
778.901
773.412
769.959
768.764
770.329
773.849
778.558
783.977
789.479
794.349
798.375
802.667
808.547
815.34
821.004
825.461
830.321
835.45
840.773
846.277
851.821
858.713
869.552
900.107
889.062
876.857
886.654
903.673
919.141
713.503
714.51
715.704
717.398
720.947
726.436
732.958
736.124
735.099
732.752
730.972
730.247
731.537
734.924
740.899
748.632
756.827
764.531
772.012
779.329
786.501
792.134
797.166
802.12
807.866
813.693
819.647
825.928
832.75
840.003
847.637
855.556
863.956
873.123
883.051
886.978
892.088
905.66
925.188
944.461
694.283
694.69
695.229
695.995
697.196
698.442
699.023
698.151
695.791
693.042
691.229
691.355
694.065
700.621
711.08
723.864
736.317
748.057
758.584
767.601
775.714
782.347
788.638
794.808
801.164
807.524
813.654
820.902
828.743
837.111
846.121
856.751
865.29
873.647
884.39
892.958
903.589
920.204
942.917
965.138
675.536
675.267
674.96
674.572
673.988
672.907
670.83
667.218
661.767
655.766
651.212
649.977
652.674
660.016
673.758
693.181
712.178
728.094
741.369
752.673
762.469
770.845
778.188
784.859
791.597
798.854
805.686
813.594
821.765
830.882
841.471
851.245
860.866
870.444
880.787
892.731
907.205
927.095
952.676
976.746
658.211
657.475
656.549
655.358
653.772
651.568
648.313
643.324
637.406
635.04
637.882
641.032
643.98
647.369
654.634
671.228
693.535
710.749
724.189
735.605
745.395
753.89
761.883
769.939
776.674
784.525
792.448
800.667
809.27
818.582
829.803
841.375
852.172
863.162
874.723
886.998
902.772
924.76
952.574
977.944
642.908
642.023
640.814
639.237
637.318
634.592
630.811
627.21
628.56
629.489
632.374
636.174
640.407
645.825
653.406
664.221
684.237
696.11
705.185
714.124
722.341
729.807
737.165
744.927
752.893
760.997
769.61
778.87
788.957
799.196
810.198
822.002
834.295
847.783
861.062
873.746
889.485
912.198
941.539
967.976
630.004
629.65
628.23
626.377
623.828
619.364
616.206
616.693
618.509
620.79
623.236
626.22
629.916
637.718
649.355
661.657
670.059
672.746
676.518
681.973
687.838
693.866
700.324
707.464
715.363
724.1
733.738
744.267
755.436
767.179
779.223
791.445
804.142
818.177
836.089
849.365
864.895
887.911
918.191
945.619
619.71
619.742
618.277
613.955
609.327
607.439
607.157
608.716
610.312
611.226
612.544
613.551
616.994
625.507
633.887
635.81
632.611
630.688
631.564
634.016
637.302
641.461
646.675
653.144
660.996
670.302
681.016
692.913
705.685
719.113
732.855
746.665
760.701
776.06
794.24
810.667
826.161
849.749
880.67
908.926
612.503
614.444
612.157
605.043
601.202
599.941
600.94
601.642
601.967
600.709
600.109
601.957
602.172
600.334
592.088
584.036
578.084
574.266
572.093
571.34
571.966
573.974
577.477
582.553
589.493
598.448
609.473
622.754
637.445
653.415
669.807
686.229
702.562
719.581
738.287
757.965