/*--------------------------------*- C++ -*----------------------------------*\
  =========                 |
  \\      /  F ield         | OpenFOAM: The Open Source CFD Toolbox
   \\    /   O peration     | Website:  https://openfoam.org
    \\  /    A nd           | Version:  8
     \\/     M anipulation  |
\*---------------------------------------------------------------------------*/
FoamFile
{
    version     2.0;
    format      ascii;
    class       volScalarField;
    location    "4.4";
    object      p_rgh;
}
// * * * * * * * * * * * * * * * * * * * * * * * * * * * * * * * * * * * * * //

dimensions      [1 -1 -2 0 0 0 0];

internalField   nonuniform List<scalar> 
9150
(
2563.54
2536.54
2511.04
2493.84
2485.53
2485.51
2493.79
2510.97
2536.46
2563.47
2554.3
2534.75
2519.09
2507.29
2501.3
2501.29
2507.25
2519.04
2534.69
2554.24
2544.65
2531.07
2522.53
2514.77
2510.66
2510.65
2514.75
2522.5
2531.02
2544.59
2539.56
2529.53
2524.07
2518.7
2515.73
2515.72
2518.68
2524.03
2529.49
2539.51
2537.89
2528.96
2524.38
2520.21
2517.76
2517.75
2520.19
2524.35
2528.92
2537.84
2099.24
2095.21
2120.21
2134.34
2140.85
2140.64
2133.75
2119.31
2093.96
2097.57
2288.6
2264.54
2259.12
2257.86
2257.92
2257.81
2257.53
2258.62
2263.9
2287.96
2412.5
2381.26
2365.35
2355.46
2350.78
2350.72
2355.28
2365.08
2380.94
2412.21
2512.64
2470.57
2442.8
2425.46
2416.95
2416.91
2425.35
2442.65
2470.4
2512.5
2583.09
2530.33
2491.72
2469.68
2459.53
2459.51
2469.61
2491.62
2530.22
2583.01
1926.74
1954.46
1942.26
1948.77
1945.43
1943.54
1947.99
1938.5
1947.65
1906.4
1950.77
1963.5
1944.71
1949.08
1945.67
1944.16
1948.34
1938.04
1957.03
1936.95
1924.81
1953.47
1922.22
1927.4
1930.14
1929.53
1926.3
1916.88
1948.36
1916.02
1764.47
1887.31
1904.42
1922.07
1937.67
1937.28
1920.34
1900.69
1884.46
1757.37
1637.22
1874.97
1970.95
2000.79
2016.19
2015.87
1999.68
1969.21
1872.95
1632.23
1826.7
1826.76
1826.83
1826.9
1826.97
1827.04
1827.12
1827.2
1827.28
1827.36
1826.75
1826.82
1826.89
1826.96
1827.04
1827.11
1827.19
1827.27
1827.35
1827.44
1826.81
1826.88
1826.95
1827.02
1827.1
1827.18
1827.26
1827.34
1827.42
1827.5
1826.83
1826.91
1826.98
1827.06
1827.14
1827.22
1827.3
1827.38
1827.47
1827.55
1826.84
1826.91
1826.99
1827.07
1827.15
1827.23
1827.32
1827.4
1827.49
1827.57
1826.82
1826.9
1826.98
1827.06
1827.14
1827.23
1827.31
1827.4
1827.49
1827.57
1826.78
1826.86
1826.94
1827.03
1827.11
1827.2
1827.29
1827.37
1827.46
1827.56
1826.72
1826.81
1826.89
1826.97
1827.06
1827.15
1827.24
1827.33
1827.42
1827.52
1826.65
1826.73
1826.82
1826.9
1826.99
1827.08
1827.17
1827.27
1827.36
1827.46
1826.57
1826.65
1826.73
1826.81
1826.9
1826.99
1827.09
1827.19
1827.29
1827.38
1826.48
1826.55
1826.62
1826.7
1826.79
1826.88
1826.98
1827.09
1827.2
1827.31
1826.39
1826.44
1826.49
1826.58
1826.67
1826.73
1826.56
1826.85
1826.8
1825.65
1826.34
1826.36
1826.35
1826.4
1826.47
1822.92
1823.2
1823.82
1827.03
1825.5
1826.45
1824.64
1815.95
1815.25
1815.45
1822.14
1826.91
1826.42
1826.73
1825.94
1814.75
1814.01
1814.3
1814.36
1821.92
1826.96
1826.95
1826.99
1826.97
1827
1821.12
1814.9
1820.85
1826.57
1827.08
1827.05
1827
1826.97
1826.93
1826.9
1827.45
1826.72
1826.96
1827.17
1827.12
1827.04
1826.96
1826.89
1826.79
1826.71
1827.4
1827.36
1827.3
1827.22
1827.14
1827.04
1826.93
1826.89
1825.37
1811.67
1827.51
1827.45
1827.37
1827.26
1827.14
1827.07
1823.69
1808.27
1807.76
1807.81
1827.54
1827.5
1827.51
1825.87
1810.91
1809.05
1809.01
1808.23
1814.16
1826.3
1827.4
1824.67
1808.83
1808.3
1808.49
1808.39
1825.28
1826.58
1826.06
1825.89
1820.86
1807.38
1807.53
1807.54
1825.63
1827.51
1827.24
1826.98
1826.73
1826.44
1822.06
1807.32
1812.12
1827.14
1826.96
1826.69
1826.79
1826.65
1816.29
1794.02
1823.52
1823.24
1822.35
1823.38
1806.49
1784.67
1815.66
1827.68
1827.68
1822.57
1822.91
1818.8
1724.58
1690.87
1694.81
1770.45
1827.77
1828.34
1829.19
1828.87
1722.43
1676.57
1679.88
1682.36
1701.64
1822.4
1826.82
1827.26
1827.92
1827.79
1669.55
1670.58
1671.18
1723.49
1827.12
1826.05
1825.7
1825.67
1825.79
1826.01
1664.77
1663.78
1745.99
1825.92
1824.65
1823.88
1823.34
1823.04
1822.9
1822.89
1663.49
1739.4
1822.12
1821.31
1820.22
1818.79
1819.49
1819.57
1819.25
1819.03
1770.26
1814.12
1817.19
1816.64
1815.26
1814.67
1815.26
1815.6
1815.17
1814.81
1816.42
1815.5
1813.16
1812.15
1811.42
1811.25
1812.11
1811.48
1810.92
1810.41
1813.47
1812.51
1810.39
1808.61
1808.35
1808.93
1808.1
1807.33
1806.61
1805.96
1810.78
1809.55
1808.18
1806.91
1806.08
1805.15
1804.18
1803.26
1802.39
1801.6
1808.22
1806.75
1805.34
1804.01
1802.75
1801.56
1800.43
1799.37
1798.37
1797.44
1805.68
1804
1802.41
1800.91
1799.49
1798.16
1796.91
1795.74
1794.63
1793.61
1803.21
1801.35
1799.62
1797.98
1796.45
1795.03
1793.69
1792.45
1791.28
1790.2
1800.59
1798.69
1796.91
1795.23
1793.66
1792.19
1790.83
1789.57
1788.4
1787.31
1798.08
1796.18
1794.38
1792.7
1791.17
1789.73
1788.4
1787.17
1786.05
1785.02
1795.71
1793.84
1792.08
1790.48
1789.03
1787.68
1786.44
1785.3
1784.28
1783.35
1793.57
1791.8
1790.15
1788.66
1787.29
1786.09
1784.98
1783.98
1783.09
1782.31
1791.72
1790.13
1788.63
1787.28
1786.08
1785.01
1784.05
1783.2
1782.45
1781.81
1790.31
1788.89
1787.59
1786.41
1785.37
1784.45
1783.65
1782.97
1782.39
1781.9
1789.34
1788.11
1786.99
1785.5
1784.06
1784.43
1783.82
1783.31
1782.89
1782.56
1788.79
1787.8
1786.62
1784.77
1784.14
1784.11
1784.55
1784.21
1783.98
1783.23
1788.62
1787.98
1787.3
1785.92
1785.2
1784.81
1783.52
1778.01
1776.39
1780.07
1788.97
1788.87
1788.66
1788.37
1788.11
1787.34
1772.22
1764.58
1764.68
1764.78
1767.08
1790.95
1791.12
1790.95
1790.86
1790.7
1777.99
1767.47
1770.39
1772.42
1489.85
1670.69
1765.81
1794.3
1794.05
1793.76
1790.46
1790.88
1793.39
1794.92
1420.61
1446.3
1686.6
1796.88
1796.93
1797.03
1797.33
1797.63
1798.07
1798.44
1493.47
1483.86
1713.01
1799.13
1799.68
1800.24
1800.73
1801.21
1801.71
1802.2
1623.46
1653.73
1791.78
1801.46
1804.55
1804.62
1804.77
1805.12
1805.6
1806.15
1438.03
1533.04
1597.56
1670.3
1807.41
1807.67
1807.93
1808.45
1809.09
1809.78
1092.98
1061.33
1134.39
1625.02
1810.16
1810.73
1811.07
1811.65
1812.35
1813.12
1015.43
1022.85
1160.06
1702.11
1809.38
1811.47
1812.68
1813.75
1814.79
1815.82
1001.99
1015.49
1511.76
1799.6
1813.46
1814.6
1815.49
1816.4
1817.37
1818.46
988.242
1325.33
1793.58
1816.39
1816.73
1817.24
1817.79
1818.44
1819.2
1820.09
1195.99
1745.71
1819.81
1819.51
1819.52
1819.62
1819.84
1820.18
1820.66
1821.26
1689.38
1823.96
1823.33
1822.81
1822.39
1822.1
1821.95
1821.93
1822.01
1822.17
1828.79
1828.18
1827.13
1826.25
1825.52
1824.93
1824.46
1824.11
1823.82
1823.56
1833.23
1831.92
1830.88
1829.87
1829.03
1828.31
1827.71
1827.18
1826.69
1826.19
1836.99
1835.7
1834.74
1833.87
1833.12
1832.48
1831.94
1831.47
1831.03
1830.55
1840.56
1839.69
1838.94
1838.35
1837.87
1837.5
1837.26
1837.1
1837.03
1836.92
1844.18
1843.8
1843.5
1843.3
1843.19
1843.23
1843.46
1843.93
1844.57
1845.31
1847.96
1848.38
1848.6
1848.73
1848.87
1849.24
1850.03
1851.35
1853.2
1855.57
1642.32
1792.75
1853.91
1854.82
1844.6
1825.44
1818.87
1810.07
1813.28
1843.65
1606.57
1616.42
1820.73
1861.61
1862.38
1763.87
1532.87
1535.04
1538.71
1670.97
1606.52
1691.08
1855.08
1864.14
1867.18
1724.57
1537.66
1535.95
1540.32
1593.35
1739.46
1844.08
1860.17
1862.21
1865.27
1804.42
1565.07
1724.02
1734.85
1740.12
1856.95
1857.61
1857.54
1712.69
1609.84
1654.16
1703.58
1714.04
1727.63
1589.61
1856.95
1855.98
1709.37
1599.89
1597.95
1648.62
1685.44
1558.83
1221.63
1299.73
1856.36
1725.29
1607.26
1594.29
1698.67
1636.81
1053.44
756.862
1113.89
1772.11
1858.2
1713.62
1708.66
1811.58
1717.89
849.806
630.335
658.876
1600.22
1891.65
1859.45
1844.38
1853.61
1849.87
887.54
591.845
608.102
992.032
1805.73
1880.38
1864.78
1862.3
1859.52
1194.24
570.101
575.914
579.756
1464.16
1871.52
1865.66
1871.11
1868.38
1625.81
596.403
561.308
563.93
901.882
1770.39
1862.37
1847.81
1861.59
1827.35
908.76
558.535
554.354
557.833
1535.72
1860.51
1851.43
1832.88
1837.16
1400.95
548.582
554.876
552.727
1311.46
1863.46
1857.43
1841.01
1820.83
1646.99
768.792
538.654
543.14
870.985
1748.67
1867.99
1853.33
1833.61
1811.78
1277.73
512.015
512.96
647.55
1679.81
1879.16
1865.89
1847.71
1826.87
1804.4
720.296
476.564
480.231
1587.21
1892.08
1878.8
1861.96
1842.62
1821.42
1798.98
433.411
448.796
1084.14
1862.05
1885.3
1872.53
1856.07
1837.15
1816.53
1794.73
434.026
476.911
1730.81
1893.77
1883.49
1868.7
1851.47
1832.35
1811.9
1790.83
409.976
1256.76
1891.7
1889.96
1879.31
1864.91
1847.61
1828.02
1806.67
1783.65
352.733
1679.59
1909.25
1895.06
1880.24
1864.54
1847.13
1828.17
1808.09
1787.13
670.089
1831.01
1899.17
1887.92
1875.01
1860.94
1845.33
1828.7
1811.8
1795.45
968.353
1883.2
1891.69
1880.79
1869.03
1855.95
1841.4
1826.21
1811.49
1798.53
1120.51
1886.17
1882.54
1872.52
1861.96
1849.79
1835.86
1820.72
1804.68
1787.28
1242.65
1878.43
1873.13
1864.94
1855.87
1845.26
1833.19
1820.14
1806.53
1792.24
1325.89
1870
1865.84
1858.86
1850.83
1841.69
1831.6
1821.18
1811.32
1801.48
1376.67
1862.8
1858.81
1852.64
1845.85
1838.37
1829.98
1821.22
1812.33
1797.74
1364.08
1846.72
1849.81
1847.51
1843.09
1837.49
1830.67
1823.42
1815.49
1660.19
1357.81
1851.8
1852.65
1850.25
1846
1840.82
1834.47
1827.62
1819.56
1588.26
1390.56
1861.36
1860.2
1856.84
1852.41
1847.45
1841.4
1834.86
1827.16
1542.44
1403.99
1869.98
1868.98
1864.92
1860.64
1856.21
1850.72
1844.82
1838.35
1520.82
1410.27
1879.84
1877.46
1872.58
1868.97
1865.81
1861.48
1856.72
1851.72
1524.87
1401.47
1878.22
1880.83
1878.74
1877.24
1876.1
1873.29
1869.96
1866.39
1564.78
1419.03
1880.58
1888.27
1889.17
1888.59
1888.24
1885.94
1883.57
1879.84
1619.36
1522.28
1902.65
1904.38
1904.88
1903.27
1902.25
1899.62
1898.43
1892.6
1680.16
1682.73
1924.74
1920.3
1921.06
1918.7
1917.48
1916.88
1919.21
1915.72
1750.51
1832.96
1949.04
1935.47
1936.65
1933.44
1932.07
1934.89
1939.15
1950.26
1827.52
1827.44
1827.54
1827.64
1827.73
1827.83
1827.93
1828.02
1828.12
1828.21
1828.31
1828.4
1828.49
1828.58
1828.66
1828.74
1828.83
1828.9
1828.98
1829.05
1829.11
1829.17
1829.23
1829.29
1829.33
1829.38
1829.43
1829.46
1829.5
1829.53
1829.57
1829.59
1829.61
1829.62
1829.64
1829.65
1829.67
1829.68
1829.69
1829.69
1829.69
1827.53
1827.62
1827.72
1827.81
1827.91
1828.01
1828.1
1828.2
1828.29
1828.38
1828.47
1828.56
1828.65
1828.73
1828.81
1828.89
1828.97
1829.04
1829.11
1829.17
1829.24
1829.3
1829.36
1829.41
1829.45
1829.49
1829.53
1829.57
1829.59
1829.62
1829.65
1829.67
1829.68
1829.69
1829.69
1829.69
1829.69
1829.69
1829.69
1829.69
1827.59
1827.69
1827.79
1827.88
1827.98
1828.08
1828.17
1828.27
1828.36
1828.45
1828.54
1828.63
1828.71
1828.79
1828.87
1828.95
1829.03
1829.1
1829.17
1829.23
1829.29
1829.35
1829.4
1829.45
1829.5
1829.54
1829.56
1829.6
1829.62
1829.65
1829.67
1829.69
1829.69
1829.7
1829.69
1829.69
1829.69
1829.69
1829.7
1829.71
1827.64
1827.74
1827.84
1827.93
1828.03
1828.13
1828.23
1828.32
1828.41
1828.51
1828.6
1828.68
1828.77
1828.85
1828.94
1829.01
1829.09
1829.16
1829.23
1829.29
1829.35
1829.41
1829.47
1829.52
1829.56
1829.6
1829.61
1829.64
1829.67
1829.7
1829.72
1829.72
1829.72
1829.71
1829.69
1829.68
1829.68
1829.7
1829.72
1829.74
1827.67
1827.77
1827.87
1827.96
1828.06
1828.16
1828.26
1828.36
1828.46
1828.55
1828.65
1828.74
1828.83
1828.91
1829
1829.08
1829.15
1829.23
1829.29
1829.36
1829.42
1829.48
1829.54
1829.59
1829.63
1829.66
1829.68
1829.71
1829.75
1829.78
1829.78
1829.78
1829.76
1829.74
1829.7
1829.56
1829.37
1829.7
1829.75
1829.77
1827.67
1827.77
1827.87
1827.98
1828.08
1828.19
1828.29
1828.39
1828.49
1828.59
1828.69
1828.79
1828.88
1828.97
1829.06
1829.15
1829.22
1829.3
1829.36
1829.43
1829.5
1829.56
1829.62
1829.67
1829.72
1829.73
1829.77
1829.82
1829.87
1829.89
1829.9
1829.9
1829.89
1829.87
1829.83
1828.24
1827.95
1828.66
1828.84
1828.41
1827.65
1827.76
1827.87
1827.98
1828.09
1828.2
1828.31
1828.41
1828.52
1828.63
1828.74
1828.84
1828.94
1829.04
1829.13
1829.22
1829.31
1829.37
1829.45
1829.52
1829.59
1829.66
1829.72
1829.77
1829.8
1829.83
1829.89
1829.96
1830
1830.04
1830.06
1830.07
1830.08
1829.87
1827.96
1827.69
1827.72
1827.67
1827.68
1827.73
1827.62
1827.73
1827.84
1827.96
1828.07
1828.19
1828.31
1828.43
1828.55
1828.66
1828.78
1828.89
1829
1829.11
1829.21
1829.31
1829.38
1829.47
1829.55
1829.64
1829.72
1829.78
1829.84
1829.87
1829.91
1829.96
1830.04
1830.1
1830.17
1830.22
1830.26
1830.29
1830.32
1829.41
1827.68
1827.63
1828.13
1827.66
1827.67
1827.75
1827.56
1827.68
1827.8
1827.92
1828.04
1828.17
1828.3
1828.43
1828.56
1828.68
1828.82
1828.94
1829.06
1829.18
1829.28
1829.38
1829.49
1829.59
1829.7
1829.79
1829.86
1829.93
1829.96
1830.01
1830.05
1830.1
1830.15
1830.24
1830.31
1830.45
1830.51
1830.56
1830.6
1830.07
1829.51
1829.81
1830.28
1829.68
1829.69
1830.68
1827.49
1827.6
1827.72
1827.85
1827.97
1828.13
1828.27
1828.41
1828.56
1828.7
1828.85
1828.99
1829.12
1829.23
1829.37
1829.49
1829.63
1829.75
1829.86
1829.96
1830.04
1830.09
1830.15
1830.21
1830.24
1830.21
1829.37
1828.6
1830.57
1830.73
1830.76
1830.81
1830.92
1830.9
1830.36
1829.46
1830.31
1831.01
1831.06
1831.01
1827.31
1826.72
1826.91
1827.72
1827.93
1828.07
1828.23
1828.38
1828.54
1828.7
1828.86
1829.02
1829.16
1829.31
1829.49
1829.64
1829.78
1829.92
1830.05
1830.15
1830.26
1830.36
1830.48
1830.58
1830.65
1825.48
1822.14
1824.17
1831.29
1831.46
1829.77
1828.1
1830.95
1831.56
1828.44
1826.38
1826.3
1828.33
1829.77
1830.65
1825.65
1825.8
1826.51
1827.74
1827.87
1828.01
1828.17
1828.33
1828.51
1828.69
1828.86
1829.04
1829.22
1829.41
1829.58
1829.75
1829.93
1830.09
1830.24
1830.38
1830.53
1830.68
1830.84
1829.33
1821.16
1820.9
1821.24
1821.96
1831.8
1830.66
1826.63
1826.9
1828.12
1832.48
1827.9
1826.12
1826.09
1826
1825.85
1829.09
1825.52
1825.96
1827.53
1827.64
1827.76
1827.9
1828.05
1828.23
1828.43
1828.63
1828.84
1829.05
1829.24
1829.43
1829.64
1829.86
1830.06
1830.26
1830.45
1830.64
1830.82
1830.98
1826.27
1820.13
1820.36
1820.6
1820.73
1825.26
1830.78
1828.07
1827.07
1828.44
1832.26
1832.35
1831.41
1828.57
1826.08
1826.07
1825.93
1829.58
1826.22
1827.29
1827.38
1827.46
1827.57
1827.7
1827.88
1828.08
1828.3
1828.52
1828.79
1828.97
1829.17
1829.38
1829.71
1829.94
1830.18
1830.43
1830.68
1830.94
1831.2
1828.91
1819.81
1820.06
1820.04
1825.09
1833.13
1830.66
1828.92
1828.76
1831.53
1832.63
1832.59
1832.55
1832.53
1832.54
1831.32
1829.4
1830.55
1831.78
1827.05
1827.09
1827.17
1827.26
1827.38
1827.47
1827.62
1827.74
1826.36
1825.83
1826.81
1829.03
1829.24
1829.45
1829.67
1829.85
1830.11
1830.45
1830.79
1831.07
1831.32
1830.56
1826.02
1826.12
1832.65
1832.92
1832.94
1832.64
1832.54
1832.92
1832.89
1832.85
1832.8
1832.75
1832.7
1832.67
1832.65
1832.62
1832.58
1832.53
1826.89
1826.94
1826.96
1827.1
1827.19
1820.46
1812.88
1813.58
1818.36
1828.57
1828.8
1829.02
1829.16
1829.2
1829.41
1829.67
1830.07
1830.54
1830.89
1831.22
1831.5
1831.78
1832.1
1832.43
1832.72
1832.94
1833.12
1833.17
1833.18
1833.16
1833.12
1833.06
1832.98
1832.82
1832.66
1832.61
1832.73
1832.71
1832.67
1832.6
1826.8
1826.86
1817.83
1810.92
1811.63
1811.56
1811.87
1816.57
1828.43
1828.66
1828.84
1828.83
1828.85
1828.89
1829.05
1829.44
1829.86
1830.33
1830.75
1831.22
1831.58
1831.88
1832.16
1832.47
1832.79
1833.07
1833.27
1833.37
1833.41
1833.39
1833.34
1833.26
1833.08
1832.87
1832.8
1832.73
1832.66
1832.77
1832.77
1832.68
1808.55
1808.8
1809.14
1809.65
1823.43
1823.96
1822.64
1827.89
1828.61
1828.77
1828.88
1828.84
1828.75
1828.5
1827.89
1827.3
1826.05
1826.37
1829.97
1831.32
1831.61
1831.85
1832.13
1832.47
1832.87
1833.22
1833.46
1833.6
1833.65
1833.63
1833.56
1833.47
1833.29
1833.05
1832.95
1832.91
1832.92
1832.96
1832.89
1832.77
1807.75
1809.42
1827.72
1827.63
1827.91
1827.81
1827.53
1827.6
1828.21
1829.06
1829.73
1829.74
1813.13
1787.19
1788.37
1787.74
1787.12
1819.75
1831.8
1831.87
1831.81
1831.71
1831.86
1832.3
1832.86
1833.36
1833.67
1833.83
1833.91
1833.91
1833.74
1833.61
1833.5
1833.4
1833.36
1833.35
1833.32
1833.24
1833.11
1832.85
1824.02
1825.04
1826.45
1826.71
1827.73
1827.18
1787.11
1769.6
1770.42
1772.73
1773.06
1775.05
1774.88
1803.86
1829.46
1828.44
1826.64
1828.22
1831.22
1832.14
1831.73
1830.36
1829.66
1831.4
1832.75
1833.65
1834.04
1834.05
1834.15
1834.24
1833.9
1833.22
1833.14
1833.35
1833.41
1833.54
1833.62
1833.57
1833.38
1832.99
1825.44
1813.39
1772.52
1771.66
1775.72
1768.62
1765
1766.01
1766.53
1789.46
1831.35
1830.8
1830.59
1830.17
1828.99
1815.63
1774.04
1756.97
1775.49
1801.62
1798.63
1734.86
1711.68
1743.49
1786.26
1806.13
1812.85
1800.44
1820.37
1832.74
1834.89
1830.66
1825.93
1826.32
1832.8
1833.32
1833.59
1833.62
1833.44
1833.09
1818.44
1767.7
1767.94
1768.04
1783.15
1794.41
1795.34
1796.05
1785.7
1740.1
1783.03
1831.26
1832.46
1832.56
1831.39
1730.1
1634.83
1634.95
1633.27
1632.68
1646.04
1638.04
1641.27
1643.11
1644.5
1703.39
1736.41
1719.39
1723.92
1761.25
1772.46
1777.21
1767.96
1759.51
1795.71
1833.16
1832.45
1832.23
1831.54
1830.69
1787.71
1792.78
1794.24
1796.31
1709.62
1642.96
1645.67
1648.64
1648.56
1707.49
1833.08
1833.34
1834.19
1835.45
1836.4
1744.18
1632.8
1631.44
1630.75
1631.08
1632.11
1632.44
1693.8
1785.34
1805.23
1759.08
1721
1719.37
1717.09
1703.12
1698.4
1694.56
1690.64
1686.62
1694.02
1740.16
1790.29
1807.99
1805.96
1801.52
1708.44
1632.98
1633.78
1634.21
1635.67
1637.2
1641.04
1793.15
1835.08
1834.79
1830.82
1807.6
1794.2
1815.64
1840.51
1844.97
1848.91
1819.16
1663.88
1626.7
1659.83
1818.28
1831.42
1831.4
1832.19
1829.95
1811.77
1794.98
1805.36
1798.92
1748.48
1740.31
1719.96
1665.69
1615
1605.03
1610.01
1614.01
1621.61
1617.43
1738.03
1629.08
1628.66
1628.8
1736.44
1838.21
1834.64
1833.68
1833.22
1826.62
1746.98
1721.88
1723.56
1737.84
1834.5
1842.64
1845.14
1847.23
1848.06
1838.52
1793.51
1776.27
1822.8
1832.94
1834.39
1805.79
1794.42
1794.27
1807.08
1807.97
1808.55
1809.18
1809.69
1809.11
1692.98
1571.42
1542.69
1541
1540.09
1540.55
1814.85
1801.67
1801.14
1819.66
1830.38
1832.26
1832.43
1832
1807.11
1716.11
1716.95
1717.7
1718.54
1719.37
1724.25
1824.72
1841.48
1843.32
1844.65
1811.71
1770.24
1772.16
1773.56
1799.89
1847.18
1807.23
1796.98
1793.6
1790.36
1791.31
1791.45
1807.12
1811.38
1810.06
1773.59
1708.65
1610.58
1557.12
1537.84
1538.07
1826.58
1827.2
1827.51
1827.78
1828.14
1828.66
1829.27
1829.88
1829.77
1766.49
1711.81
1712.15
1713.12
1713.45
1728.59
1822.67
1837.23
1838.85
1840.54
1840.19
1794.5
1769.62
1787.55
1840.16
1849.55
1851.05
1852.75
1854.5
1823.57
1810.71
1825.33
1810.92
1792.44
1787.44
1766.04
1739.35
1749.7
1745.61
1708.27
1667.96
1823.01
1823.2
1823.25
1823.47
1823.83
1824.47
1825.13
1825.94
1827.09
1828.73
1830.33
1811.41
1739.93
1746.55
1830.59
1831.07
1832.09
1833.41
1834.91
1836.53
1838.07
1838.52
1839.73
1842.65
1844.91
1847.14
1849.38
1851.6
1853.64
1855.76
1858.14
1860.26
1862.26
1864.2
1849.88
1827.96
1769.3
1724.24
1716.35
1723.82
1818.75
1818.68
1818.72
1818.85
1819.24
1819.53
1819.92
1820.45
1821.16
1822.05
1822.99
1823.68
1823.9
1823.99
1824.25
1824.97
1825.93
1826.99
1828.18
1829.74
1831.44
1833.13
1835.01
1837.16
1839.52
1842.01
1844.61
1847.28
1849.99
1852.79
1855.65
1858.47
1861.26
1864.04
1866.8
1868.93
1811.46
1713.98
1705.09
1703.85
1814.42
1814.09
1813.95
1814.02
1814.12
1814.21
1814.4
1814.67
1815.03
1815.47
1815.93
1816.32
1816.64
1816.97
1817.42
1818.05
1818.85
1819.64
1820.65
1822.01
1823.55
1825.56
1827.67
1829.9
1832.38
1835.08
1837.99
1841.07
1844.31
1847.67
1851.12
1854.59
1858.01
1861.29
1864.24
1866.56
1867.89
1842.45
1754.61
1726.02
1809.94
1809.53
1809.21
1808.98
1808.81
1808.7
1808.66
1808.69
1808.78
1808.91
1809.08
1809.25
1809.42
1809.65
1809.96
1810.41
1811
1811.77
1812.49
1813.48
1814.85
1816.62
1818.72
1820.9
1823.38
1826.16
1829.24
1832.59
1836.2
1840.01
1843.99
1848.06
1852.1
1855.97
1859.43
1861.8
1859.67
1860.5
1854.8
1837.11
1805.34
1804.77
1804.28
1803.85
1803.48
1803.17
1802.92
1802.71
1802.54
1802.41
1802.3
1802.21
1802.15
1802.13
1802.18
1802.32
1802.59
1803
1803.59
1804.37
1805.37
1806.67
1808.28
1810.23
1812.55
1815.26
1818.36
1821.83
1825.64
1829.77
1834.14
1838.69
1843.29
1847.77
1851.9
1855.32
1857.6
1857.87
1842.54
1825.05
1800.83
1800.1
1799.44
1798.84
1798.3
1797.8
1797.34
1796.91
1796.5
1796.11
1795.73
1795.35
1794.98
1794.63
1794.31
1794.04
1793.86
1793.79
1793.87
1794.15
1794.65
1795.44
1796.58
1798.11
1800.11
1802.6
1805.59
1809.04
1812.94
1817.22
1821.84
1826.69
1831.68
1836.64
1841.31
1845.39
1848.42
1849.57
1841.85
1816.04
1796.54
1795.68
1794.88
1794.13
1793.43
1792.76
1792.11
1791.47
1790.84
1790.21
1789.55
1788.86
1788.14
1787.4
1786.63
1785.86
1785.13
1784.46
1783.91
1783.52
1783.35
1783.46
1783.93
1784.87
1786.4
1788.57
1791.4
1794.8
1798.71
1803.06
1807.79
1812.8
1817.98
1823.19
1828.22
1832.76
1836.42
1838.2
1835.67
1823.74
1792.61
1791.65
1790.74
1789.88
1789.05
1788.23
1787.41
1786.55
1785.69
1784.83
1783.96
1782.98
1781.91
1780.73
1779.46
1778.12
1776.75
1775.4
1774.12
1772.94
1771.93
1771.15
1770.75
1770.87
1771.78
1773.64
1776.39
1779.82
1783.76
1788.2
1792.97
1798.03
1803.24
1808.48
1813.54
1818.22
1822.14
1824.37
1823.69
1819.82
1789.15
1788.13
1787.17
1786.23
1785.31
1784.36
1783.39
1782.4
1781.39
1780
1778.37
1777.52
1776.46
1774.97
1773.16
1771.17
1769.11
1767.03
1764.97
1762.95
1761
1759.06
1757.24
1756.45
1756.79
1758.68
1761.7
1765.29
1769.21
1773.34
1778.38
1783.62
1788.75
1793.82
1798.68
1803.11
1806.82
1809.14
1808.59
1805.34
1786.26
1785.24
1784.27
1783.31
1782.33
1781.28
1780.14
1778.96
1777.85
1776.74
1774.01
1771.82
1770.19
1768.14
1767.91
1765.36
1762.45
1759.62
1756.88
1754.09
1751.17
1748.14
1742.4
1737.06
1736.48
1741.5
1749.05
1753.14
1756.9
1759.65
1763.06
1770.44
1775.79
1780.61
1785.12
1789.13
1792.35
1794.19
1793.46
1791.22
1784.02
1783.07
1782.16
1781.08
1779.53
1778.16
1776.81
1776.23
1775.06
1773.98
1772.88
1771.56
1769.82
1755.16
1742.67
1749.77
1753.77
1753.26
1750.08
1746.96
1743.27
1738.45
1731.29
1617.15
1425.84
1422.97
1699.94
1744.95
1748.39
1750.43
1752.66
1758.96
1765.45
1769.98
1774.14
1777.72
1780.46
1781.87
1781.55
1779.9
1782.47
1781.65
1780.89
1780.14
1779.39
1776.11
1738.93
1710.25
1727.59
1756
1771.95
1769.81
1763.63
1759.96
1726.7
1613.84
1579.13
1660.65
1692.05
1735.5
1736.46
1711.72
1667
1340.51
1022.58
1005.65
1363.48
1742.63
1745.66
1747.09
1746.83
1752.21
1758.32
1762.61
1766.45
1769.68
1772.07
1773.32
1773.31
1772.35
1781.6
1780.97
1780.43
1779.99
1779.64
1779.32
1754.15
1638.42
1635.14
1632.69
1645.85
1655.53
1625.17
1616.42
1617.33
1579
1466
1456
1448.79
1525.1
1569.53
1492.38
1383.47
1099.62
983.902
985.81
1088.25
1687.39
1746.85
1743.75
1744.67
1747.64
1754.22
1758.91
1762.51
1765.34
1767.53
1768.78
1769.14
1768.55
1781.25
1780.76
1780.35
1780.01
1779.71
1779.47
1779.33
1779.16
1712.25
1639.02
1594.08
1591.5
1588.07
1585.52
1582.71
1579.08
1596.35
1485.83
1448.05
1443.36
1462.85
1456.83
1319.45
1028.25
976.058
976.166
1043.17
1629.99
1747.73
1735.05
1739.33
1734.47
1748.71
1759.03
1761.23
1764.83
1766.79
1767.98
1768.76
1768.37
1781.47
1781.11
1780.81
1780.53
1780.24
1779.9
1779.45
1778.78
1777.94
1776.89
1775.64
1774.89
1774.26
1759.84
1735.79
1755.8
1770.77
1767.23
1523.29
1558.22
1752.76
1757.09
1757.58
1267.54
974.178
967.905
1023.97
1614.83
1742.62
1732.3
1654.38
1393.46
1485.63
1726.95
1759.55
1767.55
1769.24
1770.38
1771.54
1771.13
1782.28
1782.06
1781.89
1781.74
1781.56
1781.31
1780.97
1780.46
1779.77
1778.92
1778.02
1777.14
1776.19
1775.14
1774.16
1773.18
1771.75
1769.68
1768.2
1739.1
1739.57
1765.46
1767.19
1752.52
1168.55
963.768
1076.52
1635.02
1745.95
1731.24
1357.55
1009.92
1072.03
1573.86
1756.56
1772.48
1774.16
1775.22
1776.62
1776.34
1783.49
1783.36
1783.25
1783.17
1783.45
1783.31
1783.06
1782.7
1782.22
1781.6
1780.86
1779.87
1778.7
1777.16
1775.93
1775.25
1774.47
1773
1771.68
1770.88
1770.14
1769.26
1768.99
1774.51
1187.57
961.457
1186.24
1708.53
1752.5
1694.67
1069.68
981.73
982.631
1298.36
1736.61
1777.72
1780.35
1781.51
1783.01
1782.57
1772.91
1770.07
1772.57
1783.76
1785.92
1785.84
1785.63
1785.32
1784.88
1784.29
1783.46
1781.77
1780.48
1779.36
1778.13
1777
1776.45
1775.11
1773.8
1772.75
1771.77
1770.13
1767.86
1766.11
1151.15
949.492
1287.96
1743.27
1770.36
1563
988.63
969.297
968.743
1070.62
1678.95
1782.05
1787.03
1788.69
1790.29
1789.57
1764.97
1765.13
1766.92
1785.85
1788.96
1788.86
1788.66
1788.34
1787.86
1787.15
1785.69
1784.16
1783.03
1781.76
1780.73
1779.94
1778.64
1777.57
1776.46
1775.17
1773.3
1769.87
1757.31
1516.46
974.247
911.161
1326.42
1752.34
1786.57
1516.74
981.566
959.939
959.574
975.603
1581.16
1786.03
1794.53
1796.86
1798.55
1797.61
1775.53
1781.29
1790.73
1792.07
1792.26
1792.23
1792.04
1791.69
1791.14
1790.09
1788.47
1786.79
1785.87
1784.44
1783.08
1782.26
1780.96
1778.98
1756.74
1687.4
1539.95
1243.3
1048.81
919.391
860.453
856.692
1218.67
1731.75
1800.44
1536.82
995.324
952.359
951.666
951.425
1433.29
1787.61
1803.15
1806.2
1807.98
1807.38
1795.18
1795.45
1795.69
1795.91
1796.01
1796
1795.81
1795.4
1794.71
1793.51
1791.99
1789.92
1788.72
1787.11
1785.39
1783.37
1743.92
1580.03
1281.54
895.206
849.559
837.556
832.092
831.702
832.757
834.1
969.011
1607.15
1808.37
1573.13
995.381
945.546
945.137
944.384
1242.7
1774.66
1812.59
1816.76
1818.77
1819.61
1798.84
1799.25
1799.65
1799.96
1800.12
1800.1
1799.94
1799.45
1798.58
1797.32
1795.45
1793.14
1791.74
1784.13
1696.59
1455.88
1134.3
829.43
829.566
830.615
830.776
830.215
830.362
830.48
830.638
830.52
847.1
1330.88
1816.97
1521.83
976.177
940.913
940.254
939.875
1074.21
1729.08
1822.81
1828.76
1831.15
1832.06
1802.72
1803.27
1803.8
1804.23
1804.51
1804.36
1804.2
1803.52
1802.21
1800.41
1796.19
1742
1597.63
1333.44
1024.3
827.946
829.18
829.373
829.43
829.562
829.758
829.966
830.15
830.286
830.325
830.222
830.166
1020.67
1783.22
1372.47
946.133
937.201
937.131
937.284
972.247
1631.51
1833.75
1842.29
1845.3
1845.84
1806.74
1807.38
1808.03
1808.56
1808.93
1808.73
1808.24
1807.03
1787.57
1652.37
1408.57
1121.1
926.135
826.136
828.029
828.406
828.603
828.908
829.194
829.459
829.704
829.913
830.078
830.186
830.269
830.284
830.179
863.946
1595.17
1322.41
937.508
934.576
934.491
935.696
936.891
1468.11
1843.05
1857.26
1861.35
1862.55
1810.53
1811.29
1811.98
1812.53
1812.85
1812.8
1806.79
1666.12
1301.05
984.291
839.21
823.857
826.166
826.813
827.173
827.7
828.206
828.678
829.1
829.569
829.722
829.936
830.082
830.214
830.367
830.592
830.781
832.37
1361.52
1554.79
1144.34
937.645
934.796
937.049
938.088
1284.89
1840.29
1874.02
1879.73
1882
1813.94
1814.76
1815.38
1815
1802.4
1718.41
1428.72
1000.95
818.851
822.316
823.753
824.477
825.132
825.805
826.428
827.005
827.232
827.923
828.832
829.855
830.451
830.616
830.686
831.057
832.172
832.856
834.335
838.73
1291.35
1851.69
1702.92
1229.97
947.841
942.557
943.146
1171.83
1825.64
1892.96
1900.78
1904.78
1816.93
1817.99
1818.69
1817.26
1656.51
1192.56
868.754
817.892
818.786
819.519
820.677
822.403
824.052
825.331
826.967
834.793
850.946
879.095
926.241
982.034
999.746
976.277
926.706
937.195
1049.19
1129.89
1026.51
1035.47
1560.85
1882.8
1891.45
1800.34
1329.29
956.26
956.404
1125.43
1818.75
1913.74
1924.91
1932.4
1819.75
1821.17
1822.55
1822.23
1490.79
958.19
828.308
829.122
831.9
840.698
872.237
922.523
1002.8
1111.22
1262.36
1395.78
1494.52
1580.3
1669.49
1743.22
1755.21
1717.25
1638.56
1661.57
1789.13
1845.6
1781.89
1777.44
1864.42
1906.13
1909.71
1913.18
1859.17
1297.82
981.974
1148.74
1842.92
1942.12
1955.51
1966.46
1821.22
1822.48
1823.91
1817.63
1533.49
1347.24
1455.98
1480.75
1477.05
1532.27
1611.04
1699.86
1781.07
1849.11
1856.48
1857.99
1861.52
1866.01
1870.67
1874.94
1878.69
1881.91
1885.28
1890.68
1898.75
1905.25
1910.15
1915.21
1920.46
1925.65
1931.06
1936.28
1942.18
1829.39
1225.39
1469.14
1931.81
1975.34
1992.44
2007.93
1822.03
1823.04
1824.23
1819.93
1802.77
1834.94
1841.46
1844.62
1843.6
1841.25
1839.44
1838.62
1839.71
1842.79
1848.43
1855.95
1860.56
1857.4
1856.45
1871.51
1889.56
1893.53
1893.54
1881.77
1887.65
1906.85
1923.43
1930.48
1937.64
1944.57
1951.56
1944.95
1957.14
1950.28
1909.44
1931.88
1992.69
2013.99
2033.58
2052.7
1822.43
1822.84
1823.35
1824.12
1825.32
1826.56
1827.14
1826.27
1823.91
1821.14
1819.25
1819.18
1821.62
1827.77
1837.98
1850.72
1834.45
1841.7
1851.9
1861.02
1886.67
1869.57
1873.06
1879
1885.46
1891.81
1922.97
1945.66
1953.64
1961.58
1943.07
1898.68
1905.9
1977.94
2010.7
2019.95
2030.74
2047.82
2070.94
2092.99
1823.31
1823.04
1822.64
1822.28
1821.73
1820.65
1818.56
1814.91
1809.26
1788.12
1737.05
1702.53
1704.99
1739.83
1797.07
1828.79
1843.12
1856.83
1870.3
1875.59
1871.58
1876.23
1882.15
1888.21
1894.75
1903.74
1945.64
1958.48
1966.53
1964.2
1901.53
1909.95
1919.54
1929.09
1994.52
2039.64
2054.79
2074.74
2100.32
2124.21
1825.6
1824.86
1823.8
1822.58
1821.13
1818.92
1815.56
1796.78
1594.83
1278.5
1055.7
986.514
995.494
1088.37
1365.18
1744.65
1850.41
1873.01
1888
1899.92
1909.9
1915.35
1897.12
1894.55
1933.32
1949.45
1957.33
1965.26
1973.7
1980.28
1936.85
1919.29
1928.91
1939.9
1951.46
2018.6
2069.65
2092.01
2119.84
2145.03
1829.91
1828
1826.56
1825.95
1824.27
1821.39
1708.72
1321.58
853.867
855.669
856.14
862.962
867.185
873.427
943.411
1577.34
1853.2
1877.12
1888.53
1898.39
1906.69
1914.29
1921.58
1929.35
1937.3
1945.46
1954.06
1962.57
1968.45
1978.93
1995.1
2006.95
1960.6
1942.62
1956.04
1983.1
2070.97
2099.02
2128.41
2154.69
1836.22
1827.17
1827.44
1832.32
1826.03
1650.92
986.991
846.656
848.566
851.516
854.092
852.722
860.678
868.606
1111.58
1653.88
1859.75
1873.18
1880.41
1885.94
1891.9
1898
1904.35
1911.4
1919.33
1928.08
1937.44
1946.55
1959.32
1971.67
1983.76
1995.99
2008.7
2018.31
1949.52
1987.18
2066.42
2094.3
2124.63
2151.96
1845.95
1842.84
1833.84
1778.98
1378.5
846.281
844.077
841.998
843.666
845.108
841.292
843.736
902.132
1152.12
1783.59
1850.92
1850.17
1853.05
1854.67
1857.84
1860.8
1865.09
1870.28
1876.7
1884.52
1894.14
1902.71
1914.27
1930.11
1943.31
1956.93
1970.81
1984.84
2000.2
1953.34
1970.46
2045.47
2075.75
2106.71
2134.88
1858.29
1860.09
1857.72
1327.56
847.977
840.974
842.003
841.586
834.14
832.508
895.744
995.886
1656.91
1837.31
1830.37
1820.74
1817.95
1815.5
1814.17
1813.92
1815.21
1817.05
1820.76
1825.65
1832.65
1841.55
1850.76
1861.29
1880.7
1897.59
1913.53
1929.95
1946.29
1963.31
1949.58
1941.52
2010.87
2043.72
2074.57
2102.79
1873.23
1876.95
1700.91
962.084
853.151
842.109
838.527
835.251