/*--------------------------------*- C++ -*----------------------------------*\
  =========                 |
  \\      /  F ield         | OpenFOAM: The Open Source CFD Toolbox
   \\    /   O peration     | Website:  https://openfoam.org
    \\  /    A nd           | Version:  8
     \\/     M anipulation  |
\*---------------------------------------------------------------------------*/
FoamFile
{
    version     2.0;
    format      ascii;
    class       surfaceScalarField;
    location    "7";
    object      phi;
}
// * * * * * * * * * * * * * * * * * * * * * * * * * * * * * * * * * * * * * //

dimensions      [0 3 -1 0 0 0 0];

internalField   nonuniform List<scalar> 
18095
(
1.98653e-08
-1.72087e-07
1.52221e-07
2.31535e-08
-1.97609e-07
1.94321e-07
1.98673e-08
-2.0603e-07
2.09316e-07
1.0627e-08
-2.10501e-07
2.19742e-07
-1.18554e-09
-2.13077e-07
2.24889e-07
-1.25083e-08
-2.13445e-07
2.24767e-07
-2.06629e-08
-2.11583e-07
2.19738e-07
-2.32254e-08
-2.06162e-07
2.08725e-07
-1.98729e-08
-1.975e-07
1.94148e-07
-1.72005e-07
1.52132e-07
1.55251e-08
-1.87612e-07
1.61083e-08
-1.98192e-07
1.21464e-08
-2.02068e-07
6.91721e-09
-2.05272e-07
9.11189e-10
-2.07071e-07
-5.77526e-09
-2.06758e-07
-1.19134e-08
-2.05445e-07
-1.62071e-08
-2.01868e-07
-1.55688e-08
-1.98139e-07
-1.87574e-07
6.80194e-09
-1.94414e-07
8.35557e-09
-1.99746e-07
7.20638e-09
-2.00919e-07
4.05454e-09
-2.0212e-07
-3.4669e-10
-2.02669e-07
-4.45909e-09
-2.02646e-07
-7.5228e-09
-2.02381e-07
-8.43515e-09
-2.00956e-07
-6.8177e-09
-1.99756e-07
-1.94392e-07
4.51616e-09
-1.9893e-07
4.72409e-09
-1.99954e-07
3.67339e-09
-1.99868e-07
1.92503e-09
-2.00372e-07
8.89364e-12
-2.00753e-07
-1.78598e-09
-2.00851e-07
-3.65661e-09
-2.00511e-07
-4.73002e-09
-1.99883e-07
-4.53309e-09
-1.99953e-07
-1.98925e-07
1.06998e-09
1.1163e-09
1.24807e-09
8.75993e-10
1.22703e-10
-7.28282e-10
-1.23916e-09
-1.12185e-09
-1.07504e-09
-2.7967e-08
-1.96071e-07
2.24038e-07
-3.03946e-08
-1.99044e-07
2.01472e-07
-2.51624e-08
-2.01336e-07
1.96104e-07
-1.38845e-08
-2.0197e-07
1.90692e-07
5.60188e-10
-2.02267e-07
1.87822e-07
1.47277e-08
-2.01981e-07
1.87813e-07
2.53359e-08
-2.01086e-07
1.90478e-07
3.05383e-08
-2.01106e-07
1.95903e-07
2.81712e-08
-1.99051e-07
2.01418e-07
-1.96089e-07
2.2426e-07
-9.37154e-09
-1.867e-07
-1.48255e-08
-1.9359e-07
-1.25049e-08
-2.03657e-07
-6.21107e-09
-2.08264e-07
-4.1442e-10
-2.08063e-07
5.70202e-09
-2.08097e-07
1.25899e-08
-2.07974e-07
1.51527e-08
-2.03668e-07
9.56095e-09
-1.93459e-07
-1.86528e-07
-1.0065e-08
-1.76635e-07
-8.37106e-09
-1.95284e-07
-7.1063e-09
-2.04921e-07
-4.48051e-09
-2.1089e-07
6.96652e-10
-2.1324e-07
5.70329e-09
-2.13104e-07
7.20242e-09
-2.09473e-07
8.04236e-09
-2.04508e-07
9.83772e-09
-1.95254e-07
-1.7669e-07
-6.61656e-09
-1.70018e-07
-8.62965e-09
-1.93271e-07
-8.66992e-09
-2.04881e-07
-5.21808e-09
-2.14342e-07
-2.1629e-09
-2.16296e-07
1.35701e-09
-2.16624e-07
7.1927e-09
-2.15308e-07
8.29363e-09
-2.05609e-07
6.5729e-09
-1.93533e-07
-1.70117e-07
-1.77967e-08
-1.6747e-08
-1.2312e-08
-6.91208e-09
1.68161e-09
9.8253e-09
1.42549e-08
1.73702e-08
1.79847e-08
3.78574e-08
-1.56715e-07
1.18858e-07
4.2683e-08
-1.97931e-07
1.93105e-07
3.6353e-08
-2.10464e-07
2.16794e-07
2.46052e-08
-2.1625e-07
2.27998e-07
7.29098e-09
-2.17674e-07
2.34988e-07
-1.19168e-08
-2.17932e-07
2.37139e-07
-2.76149e-08
-2.14754e-07
2.30452e-07
-3.68923e-08
-2.10508e-07
2.19785e-07
-3.39902e-08
-1.99308e-07
1.96406e-07
-1.58464e-07
1.24474e-07
1.75007e-08
-1.74216e-07
2.00267e-08
-2.00457e-07
1.5927e-08
-2.06364e-07
7.43121e-09
-2.07754e-07
-2.46327e-09
-2.07779e-07
-1.13845e-08
-2.0901e-07
-1.65607e-08
-2.09578e-07
-1.91087e-08
-2.0796e-07
-1.64721e-08
-2.01945e-07
-1.74936e-07
8.6723e-09
-1.82888e-07
9.54367e-09
-2.01328e-07
8.92347e-09
-2.05744e-07
5.83689e-09
-2.04668e-07
2.58932e-09
-2.04532e-07
-1.63968e-09
-2.04781e-07
-6.95091e-09
-2.04266e-07
-8.49171e-09
-2.06419e-07
-8.3917e-09
-2.02045e-07
-1.83328e-07
7.90451e-09
-1.90793e-07
5.64649e-09
-1.9907e-07
6.41421e-09
-2.06512e-07
7.15348e-10
-1.98969e-07
-9.15408e-10
-2.02901e-07
-2.35304e-09
-2.03344e-07
-6.3038e-09
-2.00316e-07
-5.44501e-09
-2.07278e-07
-7.96026e-09
-1.9953e-07
-1.91288e-07
3.32454e-08
3.56472e-08
2.52391e-08
1.69629e-08
1.8837e-09
-1.36468e-08
-2.3485e-08
-3.48594e-08
-3.29715e-08
4.30939e-07
-2.49799e-08
-4.0596e-07
4.50992e-07
-2.00519e-08
4.68353e-07
-1.73612e-08
4.85719e-07
-1.73655e-08
5.02716e-07
-1.69974e-08
5.14005e-07
-1.12887e-08
5.12647e-07
1.35778e-09
4.97016e-07
1.56314e-08
4.74551e-07
2.2465e-08
2.90576e-08
4.45493e-07
3.84837e-07
-5.107e-08
-3.58746e-07
4.06942e-07
-4.21565e-08
4.23024e-07
-3.34434e-08
4.3068e-07
-2.5021e-08
4.30025e-07
-1.63423e-08
4.24746e-07
-6.0096e-09
4.20473e-07
5.63079e-09
4.20547e-07
1.5557e-08
4.23148e-07
1.98645e-08
2.23003e-08
4.29905e-07
3.85877e-07
-7.91006e-08
-3.57846e-07
4.08028e-07
-6.43081e-08
4.24937e-07
-5.03523e-08
4.34896e-07
-3.498e-08
4.39959e-07
-2.14044e-08
4.43901e-07
-9.95202e-09
4.49161e-07
3.70745e-10
4.51674e-07
1.30437e-08
4.47189e-07
2.43491e-08
3.35039e-08
4.35986e-07
3.49488e-07
-1.03212e-07
-3.25376e-07
3.65341e-07
-8.01612e-08
3.81155e-07
-6.61663e-08
3.93265e-07
-4.70894e-08
3.98164e-07
-2.6304e-08
4.07769e-07
-1.95568e-08
4.19886e-07
-1.17458e-08
4.28974e-07
3.9558e-09
4.26776e-07
2.65474e-08
4.27212e-08
4.17559e-07
2.87757e-07
-1.13589e-07
-2.77381e-07
2.9684e-07
-8.92435e-08
3.08322e-07
-7.7649e-08
3.04259e-07
-4.30267e-08
3.05515e-07
-2.75601e-08
3.28521e-07
-4.25622e-08
3.50897e-07
-3.41216e-08
3.55144e-07
-2.9159e-10
3.41095e-07
4.05966e-08
6.43273e-08
3.19489e-07
1.58905e-07
-9.45326e-08
-1.77961e-07
1.47542e-07
-7.78806e-08
1.42446e-07
-7.25528e-08
1.43588e-07
-4.41686e-08
1.58234e-07
-4.22062e-08
1.69886e-07
-5.42143e-08
1.73084e-07
-3.73191e-08
1.75242e-07
-2.44999e-09
1.72432e-07
4.34065e-08
6.43619e-08
1.72398e-07
1.03581e-08
-7.67506e-08
-2.81402e-08
1.0899e-08
-7.84218e-08
1.37687e-08
-7.54225e-08
2.6817e-08
-5.72169e-08
3.97978e-08
-5.51869e-08
3.93861e-08
-5.38026e-08
3.19218e-08
-2.98548e-08
2.90991e-08
3.72647e-10
4.27121e-08
2.97935e-08
4.43914e-08
6.26826e-08
-1.3065e-07
-6.19126e-08
1.15812e-07
-1.46392e-07
-6.268e-08
-1.68158e-07
-5.36557e-08
-1.82301e-07
-4.30747e-08
-2.0334e-07
-3.4148e-08
-2.30105e-07
-2.7037e-08
-2.49255e-07
-1.07055e-08
-2.54261e-07
5.37889e-09
-2.43706e-07
1.92384e-08
3.392e-08
-2.33235e-07
-1.9769e-07
-4.01462e-08
1.75924e-07
-2.25562e-07
-3.48083e-08
-2.5378e-07
-2.54372e-08
-2.80484e-07
-1.63716e-08
-3.08831e-07
-5.80093e-09
-3.34329e-07
-1.53852e-09
-3.48515e-07
3.47979e-09
-3.46282e-07
3.14549e-09
-3.32192e-07
5.14809e-09
1.63537e-08
-3.14626e-07
-2.03592e-07
-2.71405e-08
1.90586e-07
-2.17904e-07
-2.04965e-08
-2.30405e-07
-1.29366e-08
-2.43494e-07
-3.28226e-09
-2.49387e-07
9.12987e-11
-2.52871e-07
1.94534e-09
-2.59547e-07
1.01561e-08
-2.63895e-07
7.49316e-09
-2.62602e-07
3.85522e-09
6.48701e-09
-2.52736e-07
-1.52056e-07
-3.12349e-08
1.5615e-07
-1.48794e-07
-2.37592e-08
-1.47615e-07
-1.41156e-08
-1.51037e-07
1.39352e-10
-1.46882e-07
-4.06329e-09
-1.36931e-07
-8.00656e-09
-1.29533e-07
2.75861e-09
-1.29802e-07
7.76183e-09
-1.34384e-07
8.43735e-09
1.30237e-08
-1.40921e-07
-1.08969e-07
-5.6535e-08
1.34269e-07
-9.37776e-08
-3.89507e-08
-8.46426e-08
-2.32507e-08
-7.53955e-08
-9.10786e-09
-7.59775e-08
-3.4814e-09
-8.22174e-08
-1.76672e-09
-8.49865e-08
5.52773e-09
-8.88166e-08
1.15919e-08
-1.00406e-07
2.00269e-08
3.24544e-08
-1.19837e-07
-1.8345e-07
-8.22502e-08
2.09165e-07
-1.59093e-07
-6.33071e-08
-1.41198e-07
-4.11465e-08
-1.27899e-07
-2.24069e-08
-1.24022e-07
-7.35845e-09
-1.29805e-07
4.01609e-09
-1.36036e-07
1.17597e-08
-1.45195e-07
2.07505e-08
-1.61015e-07
3.58466e-08
5.37932e-08
-1.82354e-07
-2.41254e-07
-8.67384e-08
2.45742e-07
-2.34814e-07
-6.97466e-08
-2.28559e-07
-4.74021e-08
-2.3017e-07
-2.07952e-08
-2.39869e-07
2.3399e-09
-2.46045e-07
1.01922e-08
-2.50031e-07
1.57462e-08
-2.55202e-07
2.59212e-08
-2.62666e-07
4.33112e-08
6.20601e-08
-2.70933e-07
-2.65727e-07
-8.28102e-08
2.61799e-07
-2.69926e-07
-6.55476e-08
-2.73276e-07
-4.4052e-08
-2.76859e-07
-1.72124e-08
-2.84491e-07
9.97229e-09
-2.90044e-07
1.5745e-08
-2.90901e-07
1.66035e-08
-2.89848e-07
2.48677e-08
-2.89001e-07
4.24648e-08
5.98908e-08
-2.86832e-07
-2.70095e-07
-6.88321e-08
2.56117e-07
-2.79502e-07
-5.61409e-08
-2.86065e-07
-3.74885e-08
-2.85601e-07
-1.76762e-08
-2.7559e-07
-3.87237e-11
-2.69274e-07
9.42939e-09
-2.71904e-07
1.92336e-08
-2.76791e-07
2.97547e-08
-2.75938e-07
4.1611e-08
5.5515e-08
-2.71562e-07
-2.44242e-07
-6.58843e-08
2.41294e-07
-2.48135e-07
-5.22479e-08
-2.4795e-07
-3.76726e-08
-2.4609e-07
-1.95361e-08
-2.30774e-07
-1.53556e-08
-2.08933e-07
-1.24114e-08
-2.01405e-07
1.17055e-08
-2.13185e-07
4.15348e-08
-2.1982e-07
4.82464e-08
5.42461e-08
-2.18552e-07
-2.28982e-07
-6.59279e-08
2.29025e-07
-2.24601e-07
-5.66285e-08
-2.13019e-07
-4.92551e-08
-1.94521e-07
-3.80335e-08
-1.75607e-07
-3.42694e-08
-1.59244e-07
-2.87748e-08
-1.42664e-07
-4.87545e-09
-1.27326e-07
2.61971e-08
-1.20431e-07
4.13511e-08
4.72789e-08
-1.13464e-07
-2.09416e-07
-6.52128e-08
2.08701e-07
-2.06431e-07
-5.96138e-08
-1.97841e-07
-5.78451e-08
-1.82823e-07
-5.30512e-08
-1.71125e-07
-4.59673e-08
-1.611e-07
-3.88003e-08
-1.42137e-07
-2.38388e-08
-1.10349e-07
-5.59123e-09
-7.77459e-08
8.74806e-09
2.67095e-08
-5.71765e-08
-1.67686e-07
-6.34147e-08
1.65888e-07
-1.67323e-07
-5.99771e-08
-1.66054e-07
-5.91151e-08
-1.63919e-07
-5.51863e-08
-1.6255e-07
-4.73364e-08
-1.59679e-07
-4.1671e-08
-1.48751e-07
-3.47667e-08
-1.32391e-07
-2.19519e-08
-1.11624e-07
-1.20181e-08
-8.11689e-10
-8.4103e-08
-1.15994e-07
-6.32238e-08
1.15803e-07
-1.20396e-07
-5.55766e-08
-1.18839e-07
-6.0672e-08
-1.12865e-07
-6.11603e-08
-1.09986e-07
-5.02151e-08
-1.06303e-07
-4.53542e-08
-1.00036e-07
-4.10334e-08
-9.22583e-08
-2.97293e-08
-8.88951e-08
-1.5381e-08
-9.45676e-09
-8.02498e-08
-6.3305e-08
-8.96098e-08
8.96908e-08
-6.00941e-08
-5.87883e-08
-6.83093e-08
-5.24569e-08
-7.34012e-08
-5.60685e-08
-8.01397e-08
-4.34765e-08
-8.67805e-08
-3.87132e-08
-8.54108e-08
-4.24028e-08
-7.59284e-08
-3.92115e-08
-6.88541e-08
-2.24551e-08
-1.29914e-08
-6.53192e-08
-6.20718e-08
-1.28162e-07
1.00624e-07
-3.82108e-08
-8.265e-08
-2.95653e-08
-6.11025e-08
-3.38718e-08
-5.17621e-08
-4.55921e-08
-3.17562e-08
-6.15554e-08
-2.27497e-08
-7.31918e-08
-3.07662e-08
-7.7445e-08
-3.49582e-08
-7.1411e-08
-2.84889e-08
-1.83214e-08
-6.6081e-08
-7.65277e-08
-1.44106e-07
9.24717e-08
-5.35803e-08
-1.05598e-07
-3.57095e-08
-7.89734e-08
-2.56523e-08
-6.18192e-08
-1.93665e-08
-3.8042e-08
-2.30246e-08
-1.90916e-08
-3.50482e-08
-1.87426e-08
-4.45491e-08
-2.54573e-08
-4.37329e-08
-2.93053e-08
-1.73802e-08
-4.46743e-08
-7.92296e-08
-1.43529e-07
7.86523e-08
-7.0941e-08
-1.13887e-07
-5.31663e-08
-9.67482e-08
-3.31183e-08
-8.18672e-08
-1.37343e-08
-5.74261e-08
-5.68343e-09
-2.71426e-08
-8.2809e-09
-1.61453e-08
-1.33285e-08
-2.04099e-08
-1.78195e-08
-2.48146e-08
-1.61507e-08
-1.90493e-08
-1.01641e-07
-1.24458e-07
8.25698e-08
-9.89657e-08
-1.16562e-07
-8.08526e-08
-1.14861e-07
-5.91362e-08
-1.03584e-07
-3.6346e-08
-8.02163e-08
-1.68626e-08
-4.66262e-08
-6.92746e-09
-2.60807e-08
-6.196e-09
-2.11416e-08
-1.41498e-08
-1.68611e-08
-8.58446e-09
-2.17164e-08
-1.17954e-07
-1.18832e-07
1.12328e-07
-1.20639e-07
-1.13877e-07
-1.11593e-07
-1.23907e-07
-9.40259e-08
-1.21151e-07
-6.90416e-08
-1.05201e-07
-4.63607e-08
-6.93074e-08
-3.20688e-08
-4.03729e-08
-2.71675e-08
-2.60433e-08
-3.13788e-08
-1.26501e-08
-2.38455e-09
-3.7579e-08
-1.13595e-07
-1.26183e-07
1.20946e-07
-1.10324e-07
-1.17147e-07
-1.09985e-07
-1.24246e-07
-1.00375e-07
-1.30762e-07
-8.40182e-08
-1.21558e-07
-7.45036e-08
-7.88222e-08
-7.02522e-08
-4.46245e-08
-6.75153e-08
-2.87805e-08
-6.51429e-08
-1.50226e-08
-2.225e-09
-6.53026e-08
-1.05788e-07
-1.43096e-07
1.22701e-07
-9.92882e-08
-1.23646e-07
-9.70387e-08
-1.26495e-07
-9.63334e-08
-1.31467e-07
-9.52968e-08
-1.22594e-07
-1.04454e-07
-6.96649e-08
-1.06534e-07
-4.25444e-08
-1.04155e-07
-3.11599e-08
-1.00997e-07
-1.81812e-08
4.01729e-09
-1.07239e-07
-9.16684e-08
-1.53458e-07
1.0203e-07
-8.61128e-08
-1.29202e-07
-8.78613e-08
-1.24747e-07
-1.01711e-07
-1.17618e-07
-1.17381e-07
-1.06924e-07
-1.37253e-07
-4.97931e-08
-1.46715e-07
-3.30823e-08
-1.47194e-07
-3.06813e-08
-1.51228e-07
-1.41476e-08
1.48015e-08
-1.62012e-07
-9.80775e-08
-1.50245e-07
9.48651e-08
-1.14323e-07
-1.12957e-07
-1.36308e-07
-1.02762e-07
-1.68845e-07
-8.50809e-08
-2.04132e-07
-7.16373e-08
-2.13287e-07
-4.06379e-08
-2.1317e-07
-3.31997e-08
-2.18982e-07
-2.48688e-08
-2.21559e-07
-1.15702e-08
8.3168e-09
-2.15074e-07
-1.12264e-07
-1.14593e-07
7.66107e-08
-1.51029e-07
-7.41922e-08
-1.89004e-07
-6.47876e-08
-2.19427e-07
-5.46583e-08
-2.44046e-07
-4.7018e-08
-2.40433e-07
-4.42505e-08
-2.34311e-07
-3.9322e-08
-2.24115e-07
-3.50641e-08
-2.15976e-07
-1.97091e-08
-6.88854e-09
-2.00771e-07
-5.5102e-08
-7.45589e-08
1.50679e-08
-9.41448e-08
-3.51501e-08
-1.4494e-07
-1.39924e-08
-1.8203e-07
-1.75688e-08
-2.00552e-07
-2.84956e-08
-2.06852e-07
-3.79499e-08
-2.03741e-07
-4.24329e-08
-2.00862e-07
-3.79431e-08
-1.90489e-07
-3.00816e-08
-2.07066e-08
-1.76671e-07
-5.35703e-09
-6.38891e-08
-5.31317e-09
-3.25868e-08
-7.9206e-09
-7.39458e-08
2.73666e-08
-1.142e-07
2.26858e-08
-1.34305e-07
-8.3904e-09
-1.49653e-07
-2.26014e-08
-1.62659e-07
-2.94272e-08
-1.66617e-07
-3.39846e-08
-1.63536e-07
-3.3163e-08
-2.56849e-08
-1.58558e-07
2.70059e-08
-5.34433e-08
-3.74518e-08
4.48929e-09
1.45961e-08
-2.52461e-08
5.71022e-08
-6.70167e-08
6.44566e-08
-7.92273e-08
3.82022e-09
-8.78967e-08
-1.39319e-08
-9.84517e-08
-1.88722e-08
-1.06877e-07
-2.55592e-08
-1.12997e-07
-2.70433e-08
-2.6787e-08
-1.11895e-07
-4.12538e-09
-4.03543e-08
-8.96355e-09
-1.8878e-08
2.93487e-08
-9.97358e-09
4.8198e-08
-1.95793e-09
5.6441e-08
7.81796e-09
-5.9557e-09
1.29433e-08
-1.90573e-08
-3.38016e-09
-2.54886e-09
-2.66766e-08
-2.26289e-09
-4.82143e-08
-5.50578e-09
-7.41719e-09
-6.75845e-08
-4.04339e-08
-3.44265e-08
3.45061e-08
-7.70445e-09
-3.38068e-09
1.18499e-08
2.86436e-08
4.56797e-08
2.26111e-08
6.31139e-08
-2.33899e-08
6.26568e-08
-1.86003e-08
4.75178e-08
1.25901e-08
2.58268e-08
1.94281e-08
-4.92053e-09
2.52416e-08
3.51234e-08
-4.74612e-08
-6.27852e-08
-2.00723e-08
4.84312e-08
-5.28842e-08
-1.32816e-08
-2.34073e-08
-8.33314e-10
1.47648e-09
-2.27263e-09
-1.25794e-08
-9.33399e-09
-3.02901e-08
-8.89651e-10
-3.69505e-08
1.92506e-08
-5.08174e-08
3.32951e-08
-7.2486e-08
4.69101e-08
6.76786e-08
-1.05041e-07
-2.48208e-07
-8.57953e-09
2.36716e-07
-2.52763e-07
-8.72734e-09
-2.45225e-07
-8.3709e-09
-2.39159e-07
-8.33866e-09
-2.41551e-07
-6.94128e-09
-2.45209e-07
2.76873e-09
-2.44069e-07
1.81105e-08
-2.46343e-07
3.55691e-08
-2.52343e-07
5.29106e-08
7.29809e-08
-2.57646e-07
-4.1986e-07
-5.20762e-09
4.16489e-07
-4.22018e-07
-6.57013e-09
-4.20579e-07
-9.80982e-09
-4.16991e-07
-1.1926e-08
-4.13416e-07
-1.05162e-08
-4.06366e-07
-4.28056e-09
-3.95011e-07
6.75562e-09
-3.80743e-07
2.13014e-08
-3.6624e-07
3.84079e-08
5.86715e-08
-3.51931e-07
-4.74169e-07
6.76319e-09
4.62199e-07
-4.84425e-07
3.68591e-09
-4.89478e-07
-4.7567e-09
-4.9048e-07
-1.0924e-08
-4.89415e-07
-1.15814e-08
-4.85442e-07
-8.25336e-09
-4.78065e-07
-6.20832e-10
-4.69074e-07
1.231e-08
-4.59446e-07
2.87808e-08
4.63417e-08
-4.47116e-07
-5.03753e-07
2.25078e-08
4.88009e-07
-5.145e-07
1.4432e-08
-5.22369e-07
3.1126e-09
-5.31359e-07
-1.93407e-09
-5.40916e-07
-2.02376e-09
-5.53719e-07
4.54966e-09
-5.73295e-07
1.89548e-08
-5.95365e-07
3.43806e-08
-6.09364e-07
4.27795e-08
4.90923e-08
-6.12114e-07
-5.06844e-07
4.03481e-08
4.89004e-07
-5.2611e-07
3.36983e-08
-5.44579e-07
2.15813e-08
-5.51184e-07
4.67109e-09
-5.5408e-07
8.71822e-10
-5.59219e-07
9.6891e-09
-5.76036e-07
3.57712e-08
-5.97934e-07
5.62786e-08
-6.09695e-07
5.45411e-08
4.65493e-08
-6.07153e-07
-4.3766e-07
6.60863e-08
4.11922e-07
-4.61829e-07
5.78674e-08
-4.74976e-07
3.4728e-08
-4.68225e-07
-2.07939e-09
-4.57938e-07
-9.415e-09
-4.4889e-07
6.41306e-10
-4.62423e-07
4.93037e-08
-5.1612e-07
1.09976e-07
-5.73285e-07
1.11706e-07
7.06105e-08
-5.97346e-07
-1.89448e-07
6.20549e-08
1.93479e-07
-2.12962e-07
8.13818e-08
-2.50611e-07
7.23776e-08
-3.00319e-07
4.76281e-08
-3.32963e-07
2.32291e-08
-3.58181e-07
2.58597e-08
-3.5974e-07
5.08625e-08
-3.52168e-07
1.02404e-07
-3.79586e-07
1.39124e-07
1.33231e-07
-4.42206e-07
4.56944e-09
7.43373e-09
5.00517e-08
5.72641e-08
2.8687e-08
5.93843e-08
7.02575e-08
1.33589e-09
1.05676e-07
-7.41174e-08
9.86821e-08
-1.60301e-07
1.12043e-07
-2.02399e-07
9.29603e-08
-1.65321e-07
6.53256e-08
-9.35887e-08
6.73919e-08
1.35178e-07
-9.55349e-08
3.05407e-08
1.21557e-08
-3.52627e-08
3.9771e-08
1.94559e-08
5.4843e-08
5.51854e-08
4.06641e-08
1.19855e-07
-6.77351e-09
1.4612e-07
-4.19261e-08
1.47196e-07
-6.27735e-08
1.13808e-07
-1.00929e-07
1.0348e-07
-1.45522e-07
1.11985e-07
1.03633e-07
-1.13978e-07
-9.65779e-08
9.61854e-08
1.25483e-08
-1.18356e-07
4.12338e-08
-8.20082e-08
1.88369e-08
-7.84989e-08
1.16346e-07
-1.42482e-07
2.10103e-07
-1.93583e-07
1.98296e-07
-1.84461e-07
1.04686e-07
-1.59214e-07
7.82329e-08
-1.22982e-07
7.5753e-08
5.4609e-08
-7.3958e-08
-1.13891e-08
9.02867e-08
1.72876e-08
-3.31726e-08
6.30158e-08
-3.60191e-08
2.16829e-08
-2.38111e-08
1.04137e-07
-7.16741e-08
2.57965e-07
-1.46207e-07
2.72828e-07
-1.46871e-07
1.05351e-07
-7.8691e-08
1.0053e-08
-2.20952e-08
1.91573e-08
4.10532e-08
-8.53947e-09
1.1457e-07
1.36382e-08
-3.79219e-08
1.92994e-07
-1.54082e-08
1.56208e-07
5.84686e-08
1.24603e-07
1.35742e-07
9.34843e-08
2.89084e-07
8.3123e-08
2.83189e-07
3.11113e-08
1.57363e-07
3.24604e-08
8.70409e-09
7.63224e-08
-2.47044e-08
2.08047e-08
9.6571e-08
2.66917e-07
-5.75945e-08
-1.95684e-07
2.91256e-07
-3.97486e-08
3.17352e-07
3.23729e-08
3.33124e-07
1.19969e-07
3.76719e-07
2.45489e-07
3.93537e-07
2.66371e-07
3.29802e-07
2.21097e-07
2.57209e-07
8.1297e-08
2.17128e-07
1.53773e-08
9.84376e-09
2.28089e-07
3.0634e-07
-6.53497e-08
-2.98585e-07
2.9909e-07
-3.24985e-08
2.88646e-07
4.2816e-08
2.92204e-07
1.16412e-07
3.41082e-07
1.96611e-07
4.02359e-07
2.05095e-07
4.39221e-07
1.84235e-07
3.91492e-07
1.29026e-07
3.67774e-07
3.90961e-08
-1.89095e-08
3.96527e-07
1.99674e-07
-3.3083e-08
-2.31941e-07
1.75383e-07
-8.20823e-09
1.72347e-07
4.58521e-08
1.93223e-07
9.55353e-08
2.60685e-07
1.29149e-07
3.3182e-07
1.33959e-07
3.91728e-07
1.24327e-07
4.20915e-07
9.98404e-08
4.39403e-07
2.06079e-08
-6.9242e-08
4.89735e-07
1.02857e-07
-2.62029e-08
-1.09737e-07
1.02467e-07
-7.81849e-09
1.34627e-07
1.3692e-08
1.93891e-07
3.62709e-08
2.67887e-07
5.51529e-08
3.19327e-07
8.25195e-08
3.63596e-07
8.0058e-08
4.32463e-07
3.09737e-08
5.01973e-07
-4.89026e-08
-1.17409e-07
5.50141e-07
-3.94891e-09
-1.98571e-08
-2.39667e-09
9.08609e-09
-2.08537e-08
5.01056e-08
-2.73278e-08
9.31447e-08
-6.76797e-09
1.45432e-07
2.86637e-09
2.36596e-07
-8.64488e-09
3.63556e-07
-4.69026e-08
4.83034e-07
-8.85047e-08
5.5224e-07
-1.18108e-07
-1.4446e-07
5.7929e-07
6.43586e-08
-2.52077e-08
-5.9008e-08
8.88962e-08
-4.5391e-08
1.32695e-07
-7.11265e-08
2.07234e-07
-8.1308e-08
2.79362e-07
-6.92612e-08
3.70738e-07
-1.0002e-07
4.591e-07
-1.35265e-07
5.17872e-07
-1.47277e-07
5.47933e-07
-1.48169e-07
-1.58667e-07
5.62141e-07
1.85464e-07
-3.36558e-08
-1.77016e-07
1.9829e-07
-5.82165e-08
2.42815e-07
-1.15651e-07
3.11821e-07
-1.50315e-07
3.75238e-07
-1.32679e-07
4.20941e-07
-1.45723e-07
4.53512e-07
-1.67835e-07
4.7553e-07
-1.69295e-07
4.99132e-07
-1.71771e-07
-1.8239e-07
5.22855e-07
3.89868e-07
-3.31589e-08
-3.90365e-07
3.94031e-07
-6.23782e-08
3.80095e-07
-1.01715e-07
3.68327e-07
-1.38547e-07
3.93599e-07
-1.5795e-07
4.16864e-07
-1.68989e-07
4.34173e-07
-1.85144e-07
4.56079e-07
-1.91201e-07
4.7518e-07
-1.90872e-07
-1.93244e-07
4.86035e-07
4.50026e-07
-1.48879e-08
-4.68296e-07
4.30452e-07
-4.2805e-08
4.19117e-07
-9.03802e-08
4.06514e-07
-1.25945e-07
3.96e-07
-1.47436e-07
3.9907e-07
-1.7206e-07
4.09891e-07
-1.95965e-07
4.15367e-07
-1.96676e-07
4.22705e-07
-1.9821e-07
-2.12886e-07
4.42346e-07
4.46281e-07
9.3206e-09
-4.7049e-07
4.29151e-07
-2.56749e-08
3.94661e-07
-5.58898e-08
3.49988e-07
-8.12723e-08
3.30194e-07
-1.27642e-07
3.45652e-07
-1.87517e-07
3.53727e-07
-2.04039e-07
3.7897e-07
-2.21919e-07
4.13315e-07
-2.32554e-07
-2.59058e-07
4.59487e-07
4.21425e-07
2.43355e-08
-4.3644e-07
3.93157e-07
2.59341e-09
3.2851e-07
8.75714e-09
2.66765e-07
-1.95269e-08
2.76845e-07
-1.37721e-07
3.09204e-07
-2.19876e-07
3.54619e-07
-2.49454e-07
3.98668e-07
-2.65968e-07
4.47901e-07
-2.81787e-07
-3.34287e-07
5.23132e-07
3.94124e-07
2.99702e-08
-3.99758e-07
3.45943e-07
5.07734e-08
2.66221e-07
8.8479e-08
2.41894e-07
4.80083e-09
2.82593e-07
-1.7842e-07
3.39264e-07
-2.76546e-07
3.97234e-07
-3.07423e-07
4.6373e-07
-3.32464e-07
5.55162e-07
-3.7322e-07
-4.29397e-07
6.50273e-07
2.3341e-07
7.54213e-08
-2.78861e-07
2.01156e-07
8.30268e-08
2.43174e-07
4.64607e-08
3.14054e-07
-6.60791e-08
3.51613e-07
-2.15978e-07
3.90882e-07
-3.15815e-07
4.80982e-07
-3.97524e-07
6.27188e-07
-4.7867e-07
7.49381e-07
-4.95412e-07
-4.82e-07
8.01984e-07
1.00497e-07
1.1572e-07
-1.40796e-07
1.05924e-07
7.76009e-08
1.84914e-07
-3.25279e-08
2.91017e-07
-1.72182e-07
3.61814e-07
-2.86775e-07
5.18686e-07
-4.72687e-07
7.00786e-07
-5.79623e-07
8.2432e-07
-6.02205e-07
8.67761e-07
-5.38851e-07
-4.71717e-07
8.57478e-07
1.52507e-08
1.35305e-07
-3.48363e-08
6.67697e-08
2.60808e-08
1.19986e-07
-8.57438e-08
1.88015e-07
-2.40211e-07
4.44089e-07
-5.4285e-07
6.89877e-07
-7.18476e-07
8.37762e-07
-7.27507e-07
8.69514e-07
-6.33957e-07
8.5146e-07
-5.20798e-07
-4.07209e-07
7.86952e-07
-3.55442e-08
1.39659e-07
3.11909e-08
-5.84039e-09
-3.62266e-09
-3.38752e-08
-5.77095e-08
1.60046e-07
-4.34132e-07
4.5296e-07
-8.35763e-07
6.2664e-07
-8.92156e-07
6.48267e-07
-7.49135e-07
6.38808e-07
-6.24498e-07
5.30437e-07
-4.12427e-07
-2.17137e-07
3.40364e-07
2.48906e-08
1.03055e-07
1.17136e-08
2.99286e-09
1.82765e-08
-6.3847e-08
9.13006e-09
9.99536e-08
-5.97933e-07
2.14593e-07
-9.50403e-07
2.5718e-07
-9.34741e-07
1.42875e-07
-6.34831e-07
7.19642e-08
-5.53587e-07
-1.42158e-07
-1.98303e-07
1.13837e-09
-3.60433e-07
1.09268e-07
8.26038e-08
-8.88171e-08
2.24075e-08
1.05137e-07
-5.34511e-08
8.4988e-08
-3.14772e-09
-6.48237e-07
3.09422e-08
-9.84494e-07
5.35202e-08
-9.57319e-07
-4.44343e-08
-5.36877e-07
-1.58454e-07
-4.39567e-07
-3.75934e-07
1.91778e-08
5.24542e-08
-4.2725e-07
1.19451e-07
1.28347e-07
-1.65194e-07
5.14682e-08
1.73121e-07
3.675e-10
1.36089e-07
-3.38626e-08
-6.14005e-07
-3.41441e-08
-9.84211e-07
-5.12563e-08
-9.40207e-07
-1.12227e-07
-4.75905e-07
-1.39341e-07
-4.12453e-07
-1.18274e-07
-1.88832e-09
1.71349e-07
-2.37168e-07
1.66726e-07
1.59588e-07
-1.97967e-07
9.9373e-08
2.40473e-07
6.64361e-08
1.69024e-07
-3.8897e-08
-5.08674e-07
-6.28044e-08
-9.60304e-07
-1.0717e-07
-8.95841e-07
-1.54592e-07
-4.28483e-07
-2.24149e-07
-3.42896e-07
-3.99815e-08
-1.86054e-07
-1.68101e-08
1.48177e-07
1.51412e-07
1.95826e-07
-1.8765e-07
1.32146e-07
2.59742e-07
5.02131e-08
2.50956e-07
1.72779e-08
-4.75737e-07
-2.21986e-08
-9.20827e-07
-2.93359e-08
-8.88703e-07
-1.12319e-07
-3.45499e-07
-1.99858e-07
-2.55357e-07
-1.29144e-07
-2.56769e-07
-2.54524e-07
1.08571e-07
1.55954e-07
2.37408e-07
-1.97536e-07
5.49618e-08
3.60735e-07
-1.92668e-08
3.25185e-07
-3.6112e-08
-4.58891e-07
-5.98772e-08
-8.97062e-07
-8.96847e-08
-8.58896e-07
-1.62421e-07
-2.72763e-07
-1.60758e-07
-2.5702e-07
-1.52819e-07
-2.64708e-07
-2.70591e-07
-1.36753e-07
7.2131e-08
3.43514e-07
-1.78237e-07
-6.37212e-08
4.96588e-07
-6.13123e-08
3.22775e-07
6.49167e-09
-5.26695e-07
-9.74131e-09
-8.8083e-07
-2.49737e-09
-8.66139e-07
1.03552e-08
-2.85615e-07
-5.71915e-08
-1.89473e-07
-1.09638e-07
-2.12262e-07
-2.14945e-07
-1.65285e-07
1.02876e-08
4.1981e-07
-8.65839e-08
4.22566e-09
5.02649e-07
-3.15207e-08
3.58522e-07
6.79904e-09
-5.65015e-07
-1.61267e-09
-8.72418e-07
3.02264e-09
-8.70774e-07
-7.51879e-09
-2.75073e-07
-1.30842e-07
-6.61491e-08
-2.09288e-07
-1.33815e-07
-1.62819e-07
-2.61413e-07
-1.60858e-07
4.31173e-07
1.49493e-07
-1.21208e-07
4.63e-07
-4.94423e-08
2.86756e-07
1.42498e-08
-6.28708e-07
2.77362e-09
-8.60942e-07
-9.01969e-09
-8.58981e-07
6.09008e-08
-3.44994e-07
-4.68346e-08
4.15864e-08
-1.72538e-07
-8.11181e-09
-8.40075e-08
-2.5135e-07
-3.13525e-07
3.9278e-07
3.5192e-07
-2.60677e-07
4.10152e-07
-7.83188e-08
1.04399e-07
-5.71985e-09
-7.01306e-07
1.06822e-08
-8.77344e-07
3.46174e-08
-8.82916e-07
2.3819e-07
-5.48566e-07
1.07514e-07
1.72263e-07
-5.5734e-08
1.55136e-07
3.14985e-08
-1.7124e-07
-2.17284e-07
3.48131e-07
2.61932e-07
-1.55809e-07
3.48676e-07
-7.24744e-08
2.10648e-08
-1.00042e-08
-7.63777e-07
-8.46756e-09
-8.78881e-07
-2.56084e-08
-8.65775e-07
6.08406e-08
-6.35014e-07
3.19373e-08
2.01167e-07
2.90235e-08
1.5805e-07
9.11529e-08
-3.0631e-08
-8.88471e-08
2.47537e-07
1.89442e-07
6.24449e-08
1.97383e-07
9.22571e-09
7.42842e-08
7.73365e-09
-7.62285e-07
8.04105e-10
-8.71951e-07
-3.40561e-10
-8.64631e-07
6.68053e-08
-7.0216e-07
1.93009e-07
7.49624e-08
1.83571e-07
1.67488e-07
1.18215e-07
1.56509e-07
-1.97375e-08
1.48634e-07
1.1864e-07
1.12737e-07
6.49087e-08
4.68936e-08
1.40127e-07
2.83588e-08
-7.43749e-07
3.84982e-08
-8.8209e-07
5.04587e-08
-8.76591e-07
2.39479e-08
-6.75649e-07
8.47598e-08
1.41506e-08
1.40013e-07
1.12236e-07
8.81149e-08
1.70113e-07
-1.16292e-08
1.40277e-07
1.99862e-08
-2.59092e-08
7.9188e-08
-4.63758e-08
1.60594e-07
6.38967e-08
-8.54021e-07
2.12476e-08
-8.39442e-07
-3.01288e-09
-8.5233e-07
-3.42647e-09
-6.75235e-07
-1.99903e-08
3.07154e-08
-2.85063e-09
9.50978e-08
3.28087e-08
5.24561e-08
-8.99648e-08
1.23246e-07
1.06996e-07
-2.42031e-07
2.31255e-07
-4.5946e-08
-3.54852e-08
-1.13334e-09
-8.98833e-07
-1.11082e-08
-8.29466e-07
-2.21503e-08
-8.41289e-07
-1.24441e-08
-6.8494e-07
-2.75293e-08
4.5801e-08
-6.97262e-08
1.37296e-07
1.09433e-07
-1.46351e-07
-6.01815e-07
1.2391e-07
6.01153e-07
-4.56887e-07
8.63204e-08
3.44161e-08
-5.26796e-07
-1.9053e-08
-8.45363e-07
-2.34091e-08
-8.25109e-07
-5.07815e-08
-8.13916e-07
-4.80414e-08
-6.8768e-07
-1.32698e-07
1.30457e-07
-1.37917e-07
1.42515e-07
1.17631e-07
-1.46115e-07
-1.39482e-07
7.56007e-08
1.87796e-07
-6.60329e-08
1.28618e-08
2.99551e-08
-6.22792e-07
-7.91705e-10
-8.14607e-07
-1.93428e-08
-8.06558e-07
-3.58696e-08
-7.9739e-07
-3.6316e-09
-7.19918e-07
-5.51428e-08
1.81969e-07
-8.29796e-08
1.70352e-07
1.61875e-07
-1.27223e-07
-4.07719e-08
1.75625e-08
9.88104e-08
3.51254e-08
-6.30411e-08
3.38571e-08
-6.21535e-07
1.04971e-08
-7.91246e-07
-9.07218e-09
-7.86989e-07
-2.61973e-08
-7.80264e-07
-3.97736e-09
-7.42138e-07
-6.45822e-09
1.8445e-07
7.74271e-08
8.64664e-08
3.04042e-07
-6.47422e-08
-2.76865e-08
-4.23301e-08
8.7581e-08
5.43289e-08
-1.4505e-07
4.93592e-08
-6.16571e-07
2.96528e-08
-7.71538e-07
-6.21698e-09
-7.51119e-07
-3.53783e-08
-7.51103e-07
-2.54156e-08
-7.52102e-07
5.09273e-08
1.08106e-07
3.58521e-09
1.33808e-07
3.43062e-07
-3.54348e-08
5.98788e-08
-6.49741e-08
-3.72317e-08
7.00575e-08
-1.55231e-07
5.38237e-08
-6.00359e-07
2.82051e-08
-7.45934e-07
5.56401e-09
-7.28478e-07
-1.86739e-08
-7.26865e-07
-2.51633e-08
-7.45613e-07
2.55618e-07
-1.72674e-07
2.84224e-07
1.05203e-07
3.57211e-07
2.7008e-07
9.10483e-08
-6.99457e-08
-8.60797e-08
7.66778e-08
-1.40826e-07
6.09395e-08
-5.84582e-07
3.53744e-08
-7.20356e-07
-2.45843e-09
-6.90645e-07
-3.68862e-08
-6.92437e-07
-6.56658e-08
-7.16835e-07
2.54082e-07
-4.92423e-07
2.6142e-07
9.78691e-08
3.94033e-07
2.24601e-07
8.08429e-08
-6.66133e-08
-8.41881e-08
6.41181e-08
-1.24171e-07
3.34607e-08
-5.5394e-07
3.04329e-09
-6.89935e-07
-1.23557e-08
-6.75246e-07
-3.64666e-08
-6.68326e-07
-6.64869e-08
-6.86815e-07
1.66614e-09
-5.60574e-07
-6.73988e-08
1.66948e-07
3.80989e-07
-5.43323e-08
7.99303e-08
-6.56148e-08
-8.09308e-08
8.15391e-08
-1.25756e-07
5.89458e-08
-5.31319e-07
2.89694e-08
-6.59946e-07
-7.75358e-09
-6.38523e-07
-4.27543e-08
-6.33325e-07
-7.33797e-08
-6.56189e-07
-1.24874e-07
-5.09071e-07
-2.11938e-07
2.54025e-07
3.47571e-07
-1.78516e-07
6.70808e-08
-5.87079e-08
-7.39877e-08
6.52644e-08
-1.23935e-07
4.29443e-08
-5.09009e-07
1.15106e-08
-6.2852e-07
-1.03184e-08
-6.16694e-07
-2.20312e-08
-6.21613e-07
-5.08797e-08
-6.27338e-07
-9.57715e-08
-4.6417e-07
-1.35798e-07
2.94064e-07
3.67779e-07
-1.55995e-07
4.80122e-08
-4.36583e-08
-6.30486e-08
6.28571e-08
-1.38688e-07
6.79948e-08
-5.14141e-07
3.07781e-08
-5.91308e-07
-3.97974e-09
-5.81936e-07
-4.28441e-08
-5.82748e-07
-7.4118e-08
-5.96062e-07
-6.12545e-08
-4.77026e-07
3.97449e-08
1.93077e-07
4.18576e-07
-1.10417e-08
3.36438e-08
-1.48464e-08
-6.24403e-08
3.48481e-08
-1.39854e-07
5.66002e-08
-5.35895e-07
2.62588e-08
-5.60967e-07
3.84338e-09
-5.59521e-07
-2.4357e-08
-5.54548e-07
-5.90688e-08
-5.61351e-07
-1.8913e-08
-5.17179e-07
2.18061e-07
-4.38852e-08
3.71484e-07
2.65157e-07
6.35527e-08
1.20312e-08
-9.04219e-08
6.92941e-08
-1.45572e-07
6.63301e-08
-5.32925e-07
3.71679e-08
-5.31805e-07
-1.30896e-09
-5.21044e-07
-2.97276e-08
-5.26129e-07
-7.00031e-08
-5.21076e-07
-5.49188e-08
-5.32264e-07
9.72807e-08
-1.96076e-07
2.15655e-07
2.53121e-07
9.87894e-08
3.79666e-08
-1.24717e-07
1.06819e-07
-1.53601e-07
6.05662e-08
-4.86673e-07
1.91091e-08
-4.90348e-07
-1.06321e-08
-4.91303e-07
-5.38553e-08
-4.82906e-07
-8.36032e-08
-4.91328e-07
-1.3596e-07
-4.7991e-07
-7.38221e-08
-2.5821e-07
5.88902e-08
8.29522e-08
1.09739e-07
5.82878e-08
-1.30055e-07
1.20873e-07
-1.64709e-07
7.43401e-08
-4.40152e-07
3.72601e-08
-4.53268e-07
-7.5079e-09
-4.46535e-07
-3.90747e-08
-4.51339e-07
-8.13166e-08
-4.49086e-07
-1.23161e-07
-4.38067e-07
-1.42707e-07
-2.38658e-07
-1.13354e-08
-7.249e-08
1.15187e-07
5.23131e-08
-1.09208e-07
1.53769e-07
-2.03225e-07
9.65574e-08
-3.82944e-07
4.0274e-08
-3.96985e-07
2.36939e-09
-4.0863e-07
-3.85046e-08
-4.10465e-07
-7.99067e-08
-4.07684e-07
-1.28137e-07
-3.89838e-07
-1.3454e-07
-2.3226e-07
-4.71704e-08
-9.87151e-08
5.97327e-08
1.0873e-08
-1.82913e-08
1.28639e-07
-2.72123e-07
8.90755e-08
-3.43382e-07
5.25727e-08
-3.60482e-07
9.46184e-09
-3.65519e-07
-3.73083e-08
-3.63695e-07
-8.93382e-08
-3.55654e-07
-1.36121e-07
-3.43056e-07
-7.55226e-08
-2.92862e-07
-7.2599e-08
-5.00934e-08
1.2107e-07
-5.47442e-08
-5.54506e-08
1.29872e-07
-2.80908e-07
8.7228e-08
-3.00738e-07
3.53773e-08
-3.08631e-07
-1.65191e-08
-3.13623e-07
-6.29711e-08
-3.17243e-07
-9.99456e-08
-3.18679e-07
-1.38349e-07
-3.04652e-07
-1.49905e-07
-2.81307e-07
-1.02149e-07
-1.20353e-07
2.16645e-07