/*--------------------------------*- C++ -*----------------------------------*\
  =========                 |
  \\      /  F ield         | OpenFOAM: The Open Source CFD Toolbox
   \\    /   O peration     | Website:  https://openfoam.org
    \\  /    A nd           | Version:  8
     \\/     M anipulation  |
\*---------------------------------------------------------------------------*/
FoamFile
{
    version     2.0;
    format      ascii;
    class       volScalarField;
    location    "4.25";
    object      alpha.water;
}
// * * * * * * * * * * * * * * * * * * * * * * * * * * * * * * * * * * * * * //

dimensions      [0 0 0 0 0 0 0];

internalField   nonuniform List<scalar> 
9150
(
1
1
1
1
1
1
1
1
1
1
1
1
1
1
1
1
1
1
1
1
1
1
1
1
1
1
1
1
1
1
1
1
1
1
1
1
1
1
1
1
1
1
1
1
1
1
1
1
1
1
1
1
1
1
1
1
1
1
1
1
1
1
1
1
1
1
1
1
1
1
1
1
1
1
1
1
1
1
1
1
1
1
1
1
1
1
1
1
1
1
1
1
1
1
1
1
1
1
1
1
1
1
1
1
1
1
1
1
1
1
1
1
1
1
1
1
1
1
1
1
1
1
1
1
1
1
1
1
1
1
1
1
1
1
1
1
1
1
1
1
1
1
1
1
1
1
1
1
1
1
0.999996
0.999996
0.999998
1
1
1
1
1
1
1
1
1
0.999998
0.999992
0.999992
0.999997
1
1
1
0.999996
1
1
1
0.999999
0.999991
0.999991
0.999991
0.999995
1
0.999995
1
1
0.999993
0.999991
0.999991
0.999991
0.999996
1
1
1
1
0.999998
0.999997
0.999998
0.999999
0.999999
0.999999
0.999999
1
1
1
1
1
1
1
1
1
1
1
0.999999
1
1
1
1
1
1
1
1
0.999995
0.999986
1
1
1
1
1
1
0.999998
0.999987
0.999986
0.999986
1
1
1
1
0.999998
0.999988
0.999988
0.999988
0.999994
0.999998
1
1
1
1
0.99999
0.999988
0.999988
0.999998
1
1
0.999994
0.999975
0.999975
0.999976
0.999994
0.999997
0.999999
1
1
1
0.999998
0.999988
0.999988
1
1
1
1
0.963167
0.976775
0.98962
1
1
1
1
0.979521
0.964833
0.950965
0.942601
0.95887
0.992778
0.979864
0.982867
0.96215
0.941409
0.936713
0.936937
0.93706
0.949211
0.990164
0.999999
0.932182
0.941414
0.936558
0.936558
0.936558
0.961319
0.984394
0.995997
0.999999
1
0.984421
0.975658
0.952412
0.972881
0.991002
0.998941
0.999822
0.999853
0.999998
1
0.999988
0.999715
0.99904
0.999819
0.999609
0.999529
0.999643
0.999942
1
1
0.99999
0.999988
0.999984
0.999943
0.999605
0.999532
0.99957
0.999947
1
1
0.999996
0.999849
0.999279
0.999271
0.999666
0.999899
0.999879
1
1
1
0.995833
0.995862
0.998275
0.999978
0.999981
0.999982
0.999982
0.999946
1
0.995716
0.994785
0.997056
0.999966
0.999972
0.999979
0.999216
0.976386
0.958126
0.958148
0.985825
0.999447
0.999591
0.999936
0.986122
0.909072
0.901786
0.919933
0.982505
0.983493
0.983935
0.999222
0.966689
0.897432
0.897748
0.898691
0.899292
0.968791
0.982435
0.982536
0.973469
0.89792
0.897424
0.897424
0.897424
0.899043
0.979886
0.98211
0.982435
0.95804
0.933132
0.898415
0.89792
0.932223
0.987737
0.97309
0.965266
0.965246
0.975936
0.997076
0.966083
0.928563
0.990947
0.991069
0.990219
0.973407
0.965185
0.968108
0.997143
0.997368
0.997271
0.991202
0.991182
0.99116
0.991069
0.971399
0.966891
0.997301
0.997572
0.997467
0.997316
0.991202
0.990898
0.987902
0.989105
0.99284
0.997063
0.997987
0.997679
0.997421
0.952919
0.987417
0.98727
0.987503
0.999266
0.999021
0.998806
0.998644
0.997709
0.884693
0.71504
0.988354
0.999113
0.997207
0.999315
0.999267
0.999036
0.994733
0.814833
0.696889
0.702798
0.99982
0.999848
0.999809
0.99969
0.999373
0.994902
0.81449
0.688337
0.691161
0.745991
0.999892
0.99987
0.999849
0.999691
0.998513
0.874656
0.682895
0.685818
0.688006
0.896096
0.999913
0.999883
0.999817
0.999265
0.960277
0.69966
0.683248
0.68325
0.712432
0.986161
0.999923
0.999892
0.999631
0.99336
0.794181
0.68172
0.682548
0.683181
0.785041
0.99821
0.999923
0.999837
0.998854
0.889281
0.681847
0.681847
0.681847
0.683139
0.907544
0.998235
0.999931
0.999842
0.998848
0.890856
0.682692
0.681847
0.683268
0.910626
0.998235
0.998235
0.999937
0.999907
0.999344
0.986845
0.882866
0.784388
0.937673
0.996177
0.997207
0.998235
0.999922
0.99991
0.999855
0.999456
0.9966
0.73638
0.46767
0.779233
0.929309
0.66564
0.999911
0.999853
0.999423
0.854001
0.468721
0.269968
0.243226
0.262611
0.295946
0.303585
0.888661
0.560407
0.371845
0.248294
0.230461
0.236238
0.240842
0.243226
0.438324
0.807839
0.241746
0.221705
0.221935
0.226005
0.229347
0.230197
0.352289
0.777362
0.939601
0.980396
0.221394
0.222477
0.22228
0.222954
0.369569
0.727187
0.91867
0.997666
0.997328
0.98062
0.221394
0.221394
0.222178
0.642278
0.957072
0.999093
0.999467
0.998048
0.997574
0.99422
0.221394
0.22233
0.679161
0.999022
0.999631
0.99995
0.999838
0.998132
0.997788
0.999403
0.625672
0.748843
0.992494
0.999601
0.999567
0.999976
0.999989
0.999801
0.999709
0.999807
0.998768
0.999524
0.999924
0.999614
0.999304
0.99972
0.999993
0.999993
0.999993
0.999993
0.999978
0.999983
0.999994
0.99993
0.999777
0.999809
0.999993
0.999993
0.999993
0.999993
0.999997
0.999997
0.999997
0.99997
0.999949
0.999947
0.999972
0.999993
0.999993
0.999885
0.999997
0.999997
0.999997
0.999987
0.999981
0.999966
0.999939
0.999993
0.999318
0.998264
0.999997
0.999997
0.999995
0.999991
0.999989
0.999988
0.999988
0.99869
0.998264
0.998264
0.999991
0.999991
0.999995
0.999995
0.999845
0.999894
0.999525
0.998286
0.998275
0.998515
0.99999
0.999991
0.999995
0.999995
0.999813
0.998831
0.99883
0.998968
0.999892
0.999987
0.99999
0.999991
0.999995
0.999995
0.999995
0.999475
0.998829
0.998912
0.999874
0.999988
0.99999
0.999995
0.999995
0.999995
0.999995
0.999943
0.998854
0.999203
0.999956
0.999992
0.999991
0.999995
0.999995
0.999995
0.999995
0.999708
0.99971
0.999913
0.999992
0.999992
0.999952
0.999995
0.999995
0.999963
0.999826
0.999825
0.999982
0.999992
0.999992
0.999992
0.999985
0.999995
0.999995
0.999955
0.999829
0.999826
0.999945
0.999992
0.999993
0.999993
0.999995
0.999995
0.999995
0.99998
0.999836
0.999912
0.999992
0.999993
0.999993
0.999993
0.999995
0.999995
0.999994
0.999967
0.999979
0.999993
0.999992
0.999993
0.999993
0.999993
0.999995
0.999995
0.999986
0.999988
0.999993
0.999993
0.999993
0.999993
0.999993
0.999993
0.999995
0.999986
0.999986
0.999986
0.999992
0.999993
0.999993
0.999993
0.999993
0.999993
0.999932
0.999973
0.999991
0.999989
0.999992
0.999993
0.999993
0.999993
0.999993
0.999993
0.999545
0.999987
0.999992
0.999992
0.999992
0.999993
0.999993
0.999993
0.999993
0.999991
0.99935
0.99999
0.999991
0.999992
0.999991
0.99999
0.999992
0.999992
0.999991
0.999972
0.99997
0.99999
0.999991
0.99999
0.999963
0.999942
0.999654
0.999981
0.999975
0.999705
0.999974
0.999983
0.99999
0.999978
0.989866
0.983749
0.994997
0.999941
0.99972
0.998889
0.999949
0.999978
0.999978
0.961507
0.826497
0.865728
0.99062
0.999088
0.947509
0.835235
0.999822
0.999962
0.991691
0.804265
0.747327
0.831672
0.962408
0.888078
0.707033
0.725405
0.999807
0.985764
0.844991
0.753452
0.754731
0.697932
0.632641
0.65114
0.694106
0.752878
0.990348
0.80621
0.768357
0.765802
0.524154
0.524987
0.545957
0.718345
0.946916
0.999768
0.833233
0.731649
0.715295
0.474208
0.31808
0.549014
0.935722
0.998583
0.999741
0.999936
0.756011
0.741011
0.526414
0.0716676
0.294441
0.933991
0.998423
0.999666
0.999938
0.999968
0.70377
0.680529
0.140542
0.0477387
0.394855
0.96358
0.998696
0.999747
0.999926
0.999971
0.695861
0.331467
0.0419702
0.0464619
0.357002
0.951688
0.998203
0.99979
0.999946
0.999969
0.606413
0.130376
0.039942
0.041945
0.385503
0.964757
0.998337
0.999703
0.999948
0.999977
0.431888
0.0414375
0.0399183
0.0399119
0.656134
0.99446
0.999069
0.999858
0.999968
0.999984
0.583991
0.0660159
0.0390693
0.127498
0.878304
0.997261
0.999596
0.999932
0.999985
0.999992
0.179021
0.0296562
0.0338844
0.439941
0.973397
0.99878
0.999829
0.999972
0.999992
0.999996
0.0385972
0.0296142
0.0296045
0.768373
0.996842
0.999555
0.999936
0.99999
0.999997
0.999997
0.0216409
0.0256474
0.264598
0.942771
0.998836
0.999846
0.999979
0.999997
0.999999
0.999997
0.0216398
0.0216398
0.653521
0.996948
0.999616
0.999952
0.999994
0.999999
1
0.999999
0.0216409
0.0687545
0.878281
0.998822
0.999865
0.999984
0.999998
1
1
1
0.022392
0.411117
0.979166
0.999518
0.999955
0.999995
0.999999
1
1
1
0.0269622
0.665929
0.998098
0.999832
0.999984
0.999998
1
1
1
1.00002
0.0553254
0.878061
0.999419
0.999954
0.999996
1
1
1
1
1.00005
0.346003
0.976318
0.999865
0.999991
0.999999
1
1
1
1
1
0.567008
0.997499
0.999968
0.999998
1
1
1
1
1
1
0.691638
0.999752
0.999992
1
1
1
1
1
1
1.00003
0.747691
0.999897
0.999998
1
1
1
1
1
1
0.924105
0.771915
0.999951
0.999999
1
1
1
1
1
1
0.855174
0.781326
0.999973
0.999999
1
1
1
1
1
1
0.810095
0.784757
0.999954
1
1
1
1
1
1
1
0.763742
0.789708
0.999946
1
1
1
1
1
1
1
0.730004
0.797871
0.999986
1
1
1
1
1
1
1
0.71907
0.817797
0.999989
1
1
1
1
1
1
0.999808
0.730462
0.829916
0.999991
1
1
1
1
1
1
1.00004
0.762367
0.841122
0.999996
1
1
1
1
1
1
1.00006
0.800999
0.878188
1
1
1
1
1
1
1
1
0.846278
0.904577
1
1
1
1
1
1
1
1
0.897931
0.953768
1
1
1
1
1
1
1
1
0.951189
1
1
1
0.999992
0.999988
0.99999
0.999996
1
1
1
1
1
1
1
1
1
1
1
1
1
1
1
0.999942
0.999637
0.999635
0.999831
1
1
1
1
1
0.999996
0.999999
1
1
1
0.999999
0.999998
0.999938
0.999884
0.999984
0.999984
0.999984
0.999984
0.999988
0.999994
0.999999
1
1
1
1
0.999998
0.999993
0.999992
0.999994
0.999999
1
1
1
1
1
0.999999
0.999996
1
0.999794
0.999531
0.99956
0.999946
1
1
1
0.999995
0.999995
0.999999
1
1
1
0.999999
0.999979
0.999917
0.999984
0.999987
0.999998
1
1
0.999994
0.999991
0.999998
1
1
1
0.999999
0.999993
0.999992
0.999995
0.999999
1
1
1
1
0.999998
0.999998
0.999999
1
0.999813
0.999529
0.99953
0.999841
1
1
1
0.999995
0.999995
0.999999
1
1
1
1
1
1
0.999997
0.999996
0.999999
1
1
0.999995
0.999988
0.99999
0.999999
1
1
1
0.999993
0.999995
1
1
0.999999
1
0.999995
0.999993
0.999999
1
1
1
0.999724
0.999528
0.999543
0.999942
1
1
1
0.999999
0.999999
1
0.999627
1
1
1
1
1
0.999995
0.999991
0.999999
1
0.999999
0.999988
0.999988
0.999988
0.999999
1
0.999999
0.999996
0.999994
0.999998
1
1
1
0.999856
0.999887
0.999995
1
1
1
0.999981
0.999557
0.999528
0.999812
0.999999
1
1
1
1
1
1
0.991651
0.978949
0.98812
1
1
0.998627
0.999987
0.999987
0.999998
0.999997
0.999988
0.999988
0.999988
0.999995
0.999999
0.999997
0.999996
0.999997
0.999999
1
1
1
0.99991
0.999809
0.99981
0.999972
1
1
1
0.999814
0.999558
0.999706
0.999994
1
1
1
1
1
1
0.992523
0.978538
0.97854
0.978542
0.985031
0.982753
0.979634
0.999986
0.99999
0.999999
0.999989
0.999988
0.99999
0.999998
0.999999
0.999999
0.999993
0.999997
1
1
1
1
0.999906
0.999809
0.999809
0.999842
0.999989
1
1
0.999944
0.999718
0.999711
0.999964
1
1
1
0.999993
0.999993
1
1
0.988709
0.97854
0.978541
0.979076
0.979089
0.979093
0.979093
0.999992
1
0.999999
0.999995
0.999996
0.999998
0.999998
0.999983
0.999975
0.999983
0.999999
1
1
1
0.999858
0.999809
0.999809
0.999842
0.99998
1
1
0.999996
0.99984
0.999779
0.999961
1
1
1
0.999988
0.99982
0.999992
1
1
0.995864
0.986572
0.986229
0.994847
0.985658
0.980467
0.989654
1
1
1
1
0.999999
0.999961
0.999953
0.999953
0.999974
0.999998
1
1
0.999982
0.999826
0.999809
0.999809
0.99989
0.999991
1
1
1
0.999919
0.999815
0.999921
1
1
1
0.973389
0.99158
0.999964
1
1
1
0.999642
0.999264
0.998342
0.997125
0.997612
0.997638
0.998718
1
1
0.997686
0.99776
0.999678
0.999968
0.999975
0.999985
0.999998
1
1
1
0.999878
0.999817
0.999844
0.999947
0.999998
1
1
1
0.999999
0.999833
0.999815
0.999972
1
1
0.977406
0.951317
0.96752
0.99864
1
0.996745
0.994871
0.998982
0.997109
0.982399
0.976042
0.990757
0.998718
0.998718
0.996856
0.987722
0.987567
0.992572
0.999934
0.999996
1
1
1
1
1
0.999985
0.999926
0.999938
0.999988
1
1
1
1
1
0.999861
0.999826
0.999879
0.999998
1
0.987773
0.951311
0.951314
0.953043
0.998638
0.996974
0.975171
0.975122
0.995763
0.992837
0.973567
0.973558
0.973559
0.983067
0.996593
0.986405
0.986405
0.989418
0.998024
0.999993
1
1
1
1
0.999995
0.999994
0.999993
0.999999
1
1
1
0.999994
0.999974
0.999994
0.999975
0.999918
0.999894
0.999986
0.999998
0.997523
0.951731
0.951311
0.951311
0.967327
0.991401
0.975583
0.974149
0.974426
0.996786
0.994372
0.979555
0.973559
0.973558
0.973559
0.991318
0.99511
0.995205
0.999202
1
1
1
0.999999
0.999816
0.999903
0.999994
0.999998
1
1
1
1
0.999151
0.999806
0.999975
0.999978
0.999986
0.999995
0.999995
0.999996
0.999996
0.99068
0.951327
0.951311
0.959072
0.992869
0.974389
0.974389
0.975373
0.991877
0.998926
0.999095
0.997768
0.986248
0.973559
0.973928
0.99423
0.999999
0.999999
1
1
1
0.999871
0.999713
0.999713
0.999915
1
1
1
1
0.991304
0.992789
0.999105
0.999976
0.999976
0.999976
0.999975
0.999774
0.999936
1
0.999998
0.994929
0.961435
0.961552
0.995008
0.997344
0.983479
0.987901
0.996132
0.999969
0.999916
0.999914
0.999913
0.999626
0.991524
0.994437
0.998449
0.999999
0.999999
0.999999
0.999944
0.999712
0.999712
0.999712
0.999854
0.999999
1
1
0.987152
0.936318
0.923212
0.970344
0.999975
0.999975
0.999975
0.999894
0.999183
0.999188
0.999892
1
0.999997
0.999396
0.997462
0.997196
0.999646
0.998771
0.9996
0.999842
0.999969
0.999969
0.999969
0.999915
0.999915
0.999914
0.999915
0.999849
0.999837
1
0.999999
0.999867
0.999713
0.999713
0.999761
0.999976
0.999976
0.999973
0.976939
0.923561
0.920716
0.920964
0.922873
0.996285
0.999975
0.999975
0.999848
0.999115
0.999115
0.999185
0.999997
1
1
1
0.999998
0.999979
0.99996
0.999826
0.999969
0.999969
0.999969
0.999969
0.999969
0.999472
0.999241
0.99977
0.999915
0.999915
0.999872
1
0.999989
0.999838
0.999734
0.999901
0.999906
0.999976
0.977606
0.919849
0.919736
0.919739
0.920484
0.983829
0.992195
0.999974
0.999975
0.999974
0.999442
0.999119
0.999476
0.999912
1
1
1
1
1
0.999932
0.999689
0.999969
0.999969
0.999969
0.999969
0.999969
0.999708
0.99922
0.99922
0.999224
0.999848
0.999977
0.999903
0.999976
0.999886
0.999881
0.999896
0.999901
0.999898
0.979932
0.921443
0.920043
0.969307
0.992986
0.993263
0.999065
0.999087
0.998325
0.998326
0.999107
0.999919
0.999922
1
1
1
1
1
0.996677
0.999566
0.999869
0.99963
0.999967
0.999969
0.999969
0.999954
0.999815
0.999228
0.99922
0.99922
0.999383
0.999895
0.999988
0.999982
0.999999
0.999998
0.998644
0.993824
0.99481
0.997343
0.997179
0.988264
0.964044
0.946289
0.946235
0.951201
0.993293
0.999668
0.999669
0.999614
0.999761
0.999916
0.999919
0.980876
0.964489
0.940043
0.87237
0.821507
0.8266
0.946751
0.999985
0.999969
0.999967
0.999954
0.999948
0.999881
0.999717
0.999553
0.999638
0.999793
0.999941
0.999979
0.999988
0.999989
0.98622
0.989045
0.996272
0.99458
0.965072
0.945327
0.945326
0.945329
0.945348
0.948349
0.993998
0.999216
0.999239
0.999481
0.999668
0.999654
0.975049
0.851491
0.821487
0.821479
0.822431
0.821422
0.821349
0.821349
0.821349
0.871786
0.999985
0.999972
0.999947
0.99989
0.99989
0.999983
0.999988
0.999988
0.999988
0.999988
0.999989
0.999989
0.999989
0.999989
0.986684
0.97082
0.945561
0.945534
0.945441
0.945459
0.985508
0.995952
0.995951
0.995892
0.989191
0.967874
0.970958
0.997614
0.999654
0.999632
0.986002
0.845137
0.821479
0.821479
0.821479
0.82147
0.8214
0.847148
0.989872
0.998579
0.999986
0.99995
0.999984
0.99998
0.999984
0.999985
0.999988
0.999988
0.999951
0.99998
0.999989
0.999989
0.999989
0.999989
0.96755
0.956643
0.964146
0.994684
0.994685
0.994686
0.994594
0.983654
0.960149
0.960132
0.960202
0.960374
0.976746
0.999642
0.999642
0.999642
0.999438
0.987011
0.960926
0.923092
0.914511
0.957872
0.97067
0.996472
0.999986
0.999986
0.999986
0.999986
0.999985
0.999975
0.999984
0.999984
0.999984
0.997843
0.990141
0.95911
0.914934
0.910184
0.938225
0.989065
0.944363
0.994248
0.994418
0.994652
0.986763
0.962477
0.962177
0.961591
0.9615
0.985893
0.999585
0.999563
0.999256
0.999281
0.999619
0.999538
0.999098
0.971853
0.827603
0.80602
0.996138
0.999611
0.99962
0.999626
0.999697
0.999986
0.999986
0.999985
0.99997
0.999554
0.999404
0.997062
0.980706
0.980441
0.961282
0.868784
0.865428
0.865363
0.865458
0.886895
0.933132
0.933132
0.93337
0.95265
0.999947
0.999947
0.999947
0.999945
0.999942
0.999926
0.999586
0.981297
0.920807
0.865974
0.845054
0.83707
0.801347
0.790196
0.790066
0.790196
0.914332
0.999566
0.999611
0.999555
0.999676
0.999973
0.999967
0.999959
0.999929
0.996103
0.907433
0.840209
0.928246
0.980178
0.979692
0.93036
0.884698
0.874208
0.897244
0.886027
0.933132
0.945672
0.998172
0.998297
0.998451
0.999682
0.99995
0.999945
0.999926
0.999723
0.978159
0.683038
0.553023
0.548039
0.546684
0.550331
0.641147
0.932936
0.952016
0.952496
0.945767
0.95654
0.992582
0.9782
0.952202
0.947728
0.945446
0.932455
0.925832
0.90617
0.736986
0.677547
0.934606
0.965901
0.967377
0.924066
0.851371
0.876082
0.89709
0.897296
0.996349
0.987898
0.942307
0.946537
0.997173
0.999954
0.999953
0.999947
0.999895
0.999513
0.936769
0.627844
0.54581
0.536952
0.522119
0.582212
0.617631
0.474567
0.274857
0.27422
0.276254
0.503049
0.696401
0.534953
0.424944
0.439651
0.441777
0.382006
0.359312
0.393661
0.461289
0.494737
0.46831
0.520684
0.600128
0.666774
0.638827
0.701881
0.816147
0.836964
0.982593
0.902737
0.903631
0.954332
0.999954
0.999954
0.999954
0.999953
0.999951
0.999691
0.997851
0.996694
0.988363
0.851708
0.368649
0.259623
0.259623
0.259623
0.286651
0.423362
0.469292
0.38519
0.319767
0.311618
0.304451
0.290113
0.274645
0.267225
0.26105
0.254585
0.247844
0.241682
0.238072
0.237219
0.237281
0.2982
0.641436
0.66599
0.640076
0.525834
0.843034
0.847476
0.955843
0.999953
0.999953
0.999954
0.999953
0.999884
0.999103
0.997941
0.996075
0.990466
0.99354
0.999855
0.914356
0.444537
0.26271
0.614495
0.994533
0.999812
0.999685
0.977345
0.845813
0.81627
0.927327
0.961153
0.868495
0.689355
0.625346
0.626816
0.635037
0.618416
0.516199
0.383904
0.268768
0.214981
0.204135
0.202579
0.202579
0.202579
0.767276
0.971571
0.999947
0.99995
0.999953
0.999952
0.99994
0.99888
0.987728
0.986311
0.986303
0.986372
0.99547
0.999855
0.999855
0.999855
0.999855
0.999855
0.999854
0.99982
0.999633
0.999647
0.99967
0.999673
0.999673
0.999673
0.999674
0.999675
0.999668
0.999625
0.999459
0.999247
0.999186
0.999193
0.932038
0.738946
0.556069
0.388049
0.279393
0.281749
0.884823
0.999937
0.999945
0.999947
0.99995
0.999796
0.999555
0.999684
0.997536
0.986761
0.986372
0.986511
0.991908
0.999855
0.999855
0.999855
0.999855
0.999854
0.999848
0.998531
0.995954
0.995953
0.998668
0.99967
0.999673
0.999673
0.999673
0.999668
0.998818
0.993452
0.992443
0.99749
0.999188
0.99919
0.999188
0.999187
0.999186
0.999136
0.904743
0.798921
0.999234
0.999534
0.998554
0.97852
0.976225
0.999974
0.999975
0.999975
0.999975
0.999975
0.99982
0.998458
0.996807
0.997763
0.999869
0.99981
0.999848
0.999839
0.999756
0.998346
0.995965
0.99594
0.995906
0.995972
0.999452
0.999672
0.999667
0.999657
0.997866
0.986007
0.986007
0.986645
0.999183
0.999187
0.999187
0.999183
0.999176
0.998555
0.998415
0.997493
0.998293
0.999226
0.972636
0.957311
0.960611
0.999188
0.999975
0.999975
0.999975
0.999975
0.999975
0.999975
0.999974
0.999968
0.999913
0.995595
0.988494
0.989198
0.997786
0.998762
0.998771
0.99877
0.998765
0.988673
0.984837
0.999627
0.999654
0.999588
0.999478
0.998199
0.989121
0.993732
0.99908
0.999179
0.999179
0.999175
0.99915
0.9924
0.964985
0.961056
0.997916
0.986244
0.957311
0.957311
0.957311
0.982009
0.999975
0.999975
0.999975
0.999967
0.999975
0.999975
0.999973
0.999963
0.999861
0.992231
0.961825
0.961589
0.968606
0.996384
0.997369
0.99877
0.99866
0.98857
0.981196
0.983812
0.99946
0.999344
0.99698
0.995934
0.993309
0.995331
0.998876
0.99904
0.999065
0.999115
0.99894
0.991152
0.945889
0.944302
0.998182
0.996217
0.963543
0.957311
0.973083
0.999672
0.999975
0.999364
0.99687
0.999751
0.999975
0.999973
0.999956
0.999901
0.999764
0.995677
0.965403
0.961322
0.961322
0.961322
0.967752
0.99592
0.997991
0.996905
0.982616
0.970179
0.967538
0.965794
0.936455
0.914076
0.923755
0.941777
0.935987
0.931762
0.958014
0.986361
0.998013
0.992786
0.983452
0.944266
0.99821
0.998182
0.997373
0.992609
0.992404
0.988697
0.837889
0.725646
0.904654
0.999961
0.999973
0.999733
0.997579
0.996678
0.998962
0.999714
0.999703
0.976258
0.961322
0.961659
0.96232
0.96261
0.995115
0.999986
0.999987
0.991743
0.95999
0.92829
0.910059
0.870359
0.726145
0.590159
0.574871
0.55554
0.595356
0.694995
0.857174
0.988083
0.987239
0.952121
0.998235
0.998186
0.997692
0.967632
0.49473
0.318058
0.322779
0.332796
0.757028
0.999954
0.999853
0.995847
0.991065
0.991055
0.995362
0.999717
0.999714
0.999793
0.999928
0.981583
0.963389
0.97612
0.997816
0.999987
0.999993
1
0.998792
0.991514
0.992607
0.984414
0.860986
0.586377
0.520028
0.514955
0.513947
0.513533
0.52171
0.752735
0.986353
0.983658
0.974913
0.563073
0.359773
0.319477
0.318051
0.318058
0.318058
0.724578
0.999789
0.999839
0.993322
0.991067
0.991055
0.991067
0.993746
0.999714
0.999722
0.999728
0.999984
0.999986
0.999987
0.999989
0.999964
0.999983
0.99999
1
1
1
1
0.999999
0.999985
0.985048
0.807253
0.639087
0.525938
0.511102
0.510383
0.509683
0.914647
0.974208
0.394793
0.341715
0.337923
0.326197
0.667404
0.984681
0.97957
0.998258
0.999655
0.999958
0.999999
0.997364
0.991205
0.99413
0.99993
0.999713
0.998959
0.998949
0.999324
0.999987
0.999989
0.999991
0.999993
0.999983
0.999976
0.999997
1
1
1
1
0.999996
0.99997
0.999701
0.99913
0.886023
0.627157
0.509711
0.509711
0.731425
0.949064
0.321447
0.654045
0.758131
0.900378
0.985338
0.987971
0.988056
0.981179
0.99079
0.999999
0.999999
0.999999
0.999998
0.999997
0.999997
0.999673
0.998976
0.998949
0.999502
0.999986
0.999965
0.999947
0.999994
1
0.999994
0.999997
1
1
1
1
0.999639
0.994006
0.991264
0.992616
0.991711
0.971734
0.664155
0.509669
0.609314
0.93143
0.903304
0.983517
0.990401
0.992834
0.987186
0.976389
0.976386
0.976389
0.987559
0.999999
0.999998
0.99998
0.999971
0.999996
0.999998
0.999989
0.999848
0.999803
0.999999
0.999979
0.999947
0.999947
0.99997
1
1
1
1
1
1
1
0.99993
0.99082
0.980261
0.979904
0.988407
0.987635
0.972442
0.513625
0.580287
0.922395
0.970009
0.948765
0.972279
0.999675
0.999934
0.995404
0.980827
0.985275
1
1
0.999986
0.99997
0.99997
0.999981
0.999998
0.999998
0.999998
0.999999
0.999999
0.999999
0.999994
0.999988
0.999996
0.999999
0.999999
1
1
1
1
1
1
0.9992
0.98614
0.96955
0.969368
0.986944
0.9918
0.758893
0.582405
0.911285
0.948765
0.948765
0.948814
0.993093
1
0.999828
0.999664
0.999979
1
1
1
0.999999
0.999998
0.999995
0.999997
0.999998
0.999998
0.999998
0.999999
0.999999
1
1
1
0.999999
0.999999
1
1
1
1
1
1
1
1
0.986389
0.968825
0.968866
0.991655
0.983571
0.586552
0.897261
0.962922
0.948765
0.979942
0.999474
1
1
1
0.999999
0.999998
0.999994
0.99999
0.999985
0.999972
0.999966
0.999987
0.999991
0.999995
0.999997
0.999997
0.999998
0.999996
0.999999
1
1
1
1
1
1
0.999999
1
1
1
1
1
0.978784
0.968825
0.989276
0.999939
0.665543
0.891762
0.997952
0.994962
0.999614
1
1
1
1
1
0.999981
0.999897
0.999792
0.999681
0.999492
0.9994
0.999839
0.999865
0.999928
0.999927
0.999664
0.999914
0.999966
0.99999
0.999996
0.999999
1
1
1
1
0.999999
0.999999
1
1
1
1
1
0.970654
0.99156
0.999988
0.888148
0.897556
0.999992
0.999994
0.999999
1
1
0.999994
0.999954
0.999953
0.999726
0.999036
0.999002
0.997378
0.988532
0.965221
0.946673
0.980835
0.997549
0.999732
0.999337
0.999468
0.999953
0.999982
0.999994
0.999998
1
1
1
1
0.999999
0.999999
0.999999
1
1
1
1
0.999119
0.998308
1
0.936516
0.895331
0.999994
0.999997
0.999998
0.999963
0.999987
0.999933
0.999843
0.998867
0.998869
0.999042
0.978079
0.897599
0.712047
0.44399
0.289374
0.492916
0.854453
0.996178
0.999366
0.999268
0.999903
0.99998
0.999993
0.999998
1
1
1
1
1
0.999999
0.999999
1
1
1
1
1
1
1
0.921198
0.876488
0.999992
0.999961
0.999898
0.999962
0.999452
0.999193
0.999195
0.99959
0.999917
0.999424
0.898683
0.555838
0.214974
0.0379666
0.0311232
0.0360036
0.613194
0.942927
0.999394
0.999407
0.999921
0.999992
0.999998
0.999999
1
1
1
1
1
0.999999
0.999999
1
1
1
1
1
1
1
0.906624
0.876487
0.999827
0.999492
0.999358
0.999354
0.999356
0.999533
0.999865
0.999946
0.999936
0.938116
0.393996
0.0552683
0.023356
0.0260839
0.0282324
0.141161
0.617077
0.912327
0.997167
0.999935
0.999998
0.999999
0.999999
1
1
1
1
1
1
1
1
1
1
1
1
0.999999
0.999997
1
0.919043
0.876488
0.998266
0.998275
0.999469
0.999944
0.99993
0.999971
0.999979
0.999977
0.794261
0.270575
0.0254242
0.0182565
0.0209657
0.0232882
0.163369
0.659067
0.942423
0.990069
0.999972
0.999995
0.999999
0.999999
1
1
1
1
1
1
1
1
1
1
0.999999
0.999999
1
0.999997
0.999996
1
0.943897
0.876583
0.998264
0.998915
0.999962
0.999983
0.999981
0.999981
0.99998
0.809838
0.185343
0.01713
0.0106425
0.0153649
0.0201202
0.227707
0.718013
0.992441
0.999889
0.999983
0.999992
0.999998
0.999999
0.999999
0.999999
1
1
1
1
0.999998
0.999999
1
1
1
0.999999
1
1
0.999999
0.999997
1
0.957873
0.876903
0.999854
0.999987
0.999984
0.999983
0.999982
0.999982
0.971784
0.348231
0.0133957
0.00481608
0.00822485
0.0332836
0.245809
0.810294
0.998772
0.999742
0.999925
0.999976
0.999991
0.999996
0.999998
0.999999
0.999999
1
1
1
0.999991
0.999994
1
1
1
1
0.999999
0.999999
1
1
1
1
0.969042
0.87744
0.999988
0.999987
0.99998
0.99998
0.999982
0.999981
0.606511
0.0478546
0.00581205
0.00362767
0.00500644
0.109172
0.747862
0.993202
0.997694
0.999218
0.99975
0.999911
0.999961
0.999985
0.999994
0.999999
0.999999
0.999999
1
0.999979
0.999962
0.999994
1
1
1
1
0.999999
0.999997
0.999997
0.999999
1
1
0.98029
0.878539
0.999988
0.999988
0.999985
0.999984
0.97015
0.577805
0.0818739
0.00721259
0.00333166
0.00312017
0.00324375
0.169469
0.836025
0.977463
0.993133
0.99502
0.99818
0.999454
0.999844
0.999959
0.999991
0.999998
0.999999
0.999999
0.999999
0.999933
0.999956
0.999998
1
1
1
1
0.999997
0.999989
0.999985
0.999996
1
1
0.989805
0.880393
0.999989
0.999988
0.999985
0.859981
0.353206
0.0342362
0.00433367
0.00300943
0.00293201
0.00296419
0.00315158
0.0708534
0.356714
0.70103
0.904294
0.978349
0.995008
0.998789
0.999704
0.999931
0.999985
0.999996
0.999999
0.999999
0.999977
0.999907
0.999959
0.999999
1
1
1
0.999999
0.999954
0.999807
0.999877
0.999998
1
1
0.996701
0.883525
0.999992
0.999969
0.769212
0.16837
0.00550993
0.00314164
0.00273985
0.00273985
0.0028437
0.00291993
0.00362314
0.00892406
0.0134757
0.0979601
0.550407
0.959428
0.993287
0.998334
0.99958
0.999898
0.999974
0.999993
0.999998
0.999999
0.999936
0.999888
0.999973
0.999998
0.999999
1
1
0.999784
0.997893
0.998111
0.999856
0.999999
1
1
1
0.887535
0.999992
0.779274
0.122846
0.00456693
0.00296993
0.00283738
0.00280389
0.00279965
0.00284722
0.00301856
0.00379158
0.00299203
0.00307752
0.00324381
0.304623
0.916416
0.992609
0.99803
0.999469
0.999858
0.99996
0.99999
0.999996
0.999998
0.999929
0.999873
0.99998
0.999998
0.999999
0.999999
0.999577
0.981844
0.980774
0.997256
0.999966
0.999997
1
1
1
0.893216
0.919833
0.235345
0.00438226
0.00301728
0.00287923
0.00285547
0.00289014
0.00290763
0.00287212
0.002847
0.00290991
0.00289677
0.00294585
0.00359024
0.291294
0.903646
0.992261
0.997889
0.999413
0.999832
0.999947
0.999983
0.999992
0.999996
0.999946
0.999834
0.999963
0.999997
0.999998
0.999999
0.969189
0.88123
0.966722
0.99951
0.999956
0.999996
1
1
1
0.89942
0.717146
0.05594
0.00337456
0.00289946
0.00288068
0.00286359
0.0028998
0.00284844
0.00284636
0.00280522
0.00284802
0.00287471
0.00329387
0.0155449
0.600816
0.980616
0.99448
0.998375
0.999486
0.999819
0.999927
0.999965
0.999984
0.999992
0.999969
0.999743
0.999901
0.999994
0.999997
0.999998
0.894156
0.857042
0.953958
0.999478
0.999955
0.999997
0.999999
1
1
0.906678
0.650483
0.0341918
0.00332858
0.00300811
0.0028601
0.00286456
0.00287023
0.00286765
0.00280262
0.00276158
0.00278811
0.00318014
0.00697844
0.348161
0.901283
0.989977
0.99696
0.998903
0.999543
0.999762
0.999869
0.999936
0.999969
0.999983
0.99995
0.999683
0.99973
0.999956
0.999994
0.973014
0.827019
0.856915
0.975412
0.999677
0.999972
0.999998
1
1
1
0.912633
0.665965
0.0376884
0.00329015
0.00309041
0.00290843
0.00286866
0.00284429
0.00283608
0.0028305
0.00283654
0.00320973
0.00716461
0.201716
0.796477
0.986088
0.995316
0.998212
0.999069
0.999389
0.999598
0.999775
0.999887
0.999906
0.999888
0.999826
0.999665
0.999103
0.999605
0.999985
0.91621
0.802467
0.900889
0.997989
0.999798
0.999923
0.99993
0.999995
1
1
0.91179
0.668637
0.0365165
0.0031688
0.00302381
0.00302977
0.00290403
0.00291228
0.00287386
0.00299733
0.0044189
0.0105546
0.227026
0.822664
0.99125
0.99577
0.997627
0.998497
0.998841
0.999087
0.999427
0.999652
0.999586
0.999447
0.999203
0.995189
0.961659
0.963835
0.998196
0.958663
0.642715
0.796945
0.991117
0.99857
0.999107
0.998368
0.999481
0.999999
1
1
0.90277
0.587834
0.0185174
0.00307625
0.00303153
0.00300963
0.00296322
0.00295585
0.00351035
0.00607324
0.0959327
0.394302
0.972075
0.995304
0.997234
0.997096
0.997334
0.998016
0.998482
0.998852
0.999013
0.998963
0.99815
0.961056
0.86279
0.733336
0.656088
0.442752
0.402498
0.40261
0.49315
0.872684
0.975562
0.946609
0.950821
0.991967
0.9999
0.999998
0.999999
0.997482
0.896233
0.487958
0.00813437
0.003192
0.00310205
0.00302525
0.00313429
0.00458105
0.0506191
0.202852
0.787742
0.996188
0.9979
0.99803
0.997787
0.997216
0.996982
0.99704
0.998105
0.998213
0.995143
0.955748
0.868626
0.449369
0.404496
0.404866
0.451085
0.403211
0.400333
0.402033
0.471756
0.880646
0.963218
0.513335
0.696335
0.986721
0.999959
0.999998
0.999998
0.982633
0.89603
0.445809
0.0105811
0.00484016
0.00320709
0.00394761
0.0248416
0.167409
0.624901
0.997697
0.998643
0.998825
0.998637
0.99829
0.997851
0.997638
0.99727
0.996407
0.996618
0.970723
0.883724
0.434133
0.405934
0.404489
0.404609
0.404443
0.402802
0.403972
0.403433
0.392723
0.497007
0.926942
0.795083
0.373477
0.494875
0.957183
0.999946
0.999997
0.999997
0.957841
0.896169
0.603889
0.0512295
0.00760098
0.0248592
0.181725
0.550721
0.998797
0.999851
0.999365
0.999282
0.999002
0.998648
0.998465
0.998286
0.997747
0.996544
0.987772
0.943373
0.555579
0.420941
0.419075
0.413598
0.450785
0.458337
0.45828
0.451032
0.401938
0.403551
0.403257
0.558435
0.968804
0.56382
0.365853
0.402069
0.918582
0.999922
0.999996
0.999997
0.955956
0.932114
0.782389
0.22023
0.296145
0.594963
0.998725
1.00054
0.999648
0.999599
0.999473
0.999279
0.99916
0.998997
0.998598
0.9979
0.996542
0.961705
0.774114
0.413145
0.421932
0.424965
0.420915
0.589029
0.465448
0.404942
0.403738
0.402841
0.402531
0.402768
0.403212
0.760657
0.981932
0.573066
0.355561
0.354433
0.879428
0.999878
0.999994
0.999996
0.977303
0.978389
0.700788
0.785003
0.993859
0.999221
0.999614
0.999733
0.999675
0.99961
0.999553
0.999472
0.999182
0.998697
0.9976
0.987001
0.920369
0.512119
0.402879
0.408579
0.418675
0.43416
0.811939
0.744029
0.408153
0.402119
0.402118
0.40218
0.402227
0.402227
0.623625
0.969263
0.986492
0.663779
0.341317
0.340411
0.822116
0.999797
0.999992
0.999994
0.99735
0.956828
0.745356
0.979382
0.998865