/*--------------------------------*- C++ -*----------------------------------*\
  =========                 |
  \\      /  F ield         | OpenFOAM: The Open Source CFD Toolbox
   \\    /   O peration     | Website:  https://openfoam.org
    \\  /    A nd           | Version:  8
     \\/     M anipulation  |
\*---------------------------------------------------------------------------*/
FoamFile
{
    version     2.0;
    format      ascii;
    class       surfaceScalarField;
    location    "4.25";
    object      alphaPhi0.water;
}
// * * * * * * * * * * * * * * * * * * * * * * * * * * * * * * * * * * * * * //

dimensions      [0 3 -1 0 0 0 0];

internalField   nonuniform List<scalar> 
18095
(
1.58167e-07
-9.65722e-07
8.07555e-07
1.65227e-07
-1.2482e-06
1.24114e-06
1.22105e-07
-1.24223e-06
1.28535e-06
6.52751e-08
-1.26344e-06
1.32027e-06
-1.04606e-11
-1.28042e-06
1.34571e-06
-6.52941e-08
-1.28042e-06
1.3457e-06
-1.22119e-07
-1.26344e-06
1.32026e-06
-1.65236e-07
-1.24222e-06
1.28534e-06
-1.58171e-07
-1.2482e-06
1.24113e-06
-9.65711e-07
8.0754e-07
1.11005e-07
-1.07673e-06
9.93401e-08
-1.23653e-06
7.2795e-08
-1.21568e-06
4.00029e-08
-1.23065e-06
-6.76002e-12
-1.24041e-06
-4.00153e-08
-1.24041e-06
-7.28048e-08
-1.23065e-06
-9.93477e-08
-1.21568e-06
-1.1101e-07
-1.23653e-06
-1.07672e-06
6.71144e-08
-1.14384e-06
5.26921e-08
-1.22211e-06
4.20836e-08
-1.20507e-06
2.38309e-08
-1.2124e-06
-3.92934e-12
-1.21658e-06
-2.38382e-08
-1.21658e-06
-4.20895e-08
-1.2124e-06
-5.26968e-08
-1.20507e-06
-6.71182e-08
-1.22211e-06
-1.14384e-06
3.95884e-08
-1.18343e-06
2.65917e-08
-1.20911e-06
2.19833e-08
-1.20047e-06
1.2506e-08
-1.20292e-06
-1.84993e-12
-1.20407e-06
-1.25095e-08
-1.20407e-06
-2.19861e-08
-1.20292e-06
-2.65939e-08
-1.20047e-06
-3.95907e-08
-1.20911e-06
-1.18343e-06
1.657e-08
7.45541e-09
6.98983e-09
4.06871e-09
-4.77291e-13
-4.06962e-09
-6.99057e-09
-7.45589e-09
-1.65708e-08
-1.74517e-07
-1.16436e-06
1.33888e-06
-2.18473e-07
-1.21634e-06
1.2603e-06
-1.64923e-07
-1.21277e-06
1.15922e-06
-8.71907e-08
-1.20409e-06
1.12636e-06
-1.11809e-10
-1.2026e-06
1.11552e-06
8.69697e-08
-1.20258e-06
1.1155e-06
1.64724e-07
-1.20404e-06
1.12629e-06
2.18287e-07
-1.21271e-06
1.15915e-06
1.74336e-07
-1.21625e-06
1.2602e-06
-1.16425e-06
1.33859e-06
-9.32762e-08
-1.07109e-06
-9.5806e-08
-1.21381e-06
-7.9299e-08
-1.22928e-06
-4.42605e-08
-1.23913e-06
-6.41319e-11
-1.24679e-06
4.41371e-08
-1.24678e-06
7.91876e-08
-1.23909e-06
9.57121e-08
-1.22924e-06
9.32217e-08
-1.21376e-06
-1.07103e-06
-5.79699e-08
-1.01312e-06
-5.52084e-08
-1.21658e-06
-4.65349e-08
-1.23796e-06
-2.71517e-08
-1.25851e-06
-3.91208e-11
-1.2739e-06
2.70771e-08
-1.2739e-06
4.64704e-08
-1.25849e-06
5.51607e-08
-1.23793e-06
5.79468e-08
-1.21655e-06
-1.01308e-06
-7.46261e-08
-9.38491e-07
-6.18213e-08
-1.22938e-06
-4.85419e-08
-1.25124e-06
-2.77813e-08
-1.27927e-06
-2.44156e-11
-1.30166e-06
2.77351e-08
-1.30166e-06
4.85034e-08
-1.27926e-06
6.17953e-08
-1.25122e-06
7.46141e-08
-1.22936e-06
-9.38468e-07
-1.30936e-07
-1.19179e-07
-8.50642e-08
-4.40615e-08
-1.59151e-11
4.40317e-08
8.50399e-08
1.19162e-07
1.30928e-07
-3.27874e-08
-9.27701e-07
9.60488e-07
9.15877e-09
-1.34297e-06
1.30102e-06
1.19207e-08
-1.27678e-06
1.27402e-06
5.42474e-09
-1.22828e-06
1.23477e-06
-3.65684e-10
-1.22591e-06
1.2317e-06
-6.37845e-09
-1.22581e-06
1.23182e-06
-1.2926e-08
-1.22862e-06
1.23516e-06
-1.14277e-08
-1.27761e-06
1.27611e-06
2.77409e-08
-1.34277e-06
1.3036e-06
-9.23561e-07
9.51302e-07
1.63656e-08
-9.44067e-07
2.21752e-08
-1.34877e-06
1.39373e-08
-1.26854e-06
6.79157e-09
-1.22113e-06
-5.28623e-10
-1.21859e-06
-7.88041e-09
-1.21846e-06
-1.52016e-08
-1.22129e-06
-2.42249e-08
-1.26859e-06
-1.81911e-08
-1.3488e-06
-9.41752e-07
2.97604e-08
-9.73827e-07
2.05286e-08
-1.33954e-06
1.18756e-08
-1.25989e-06
6.60937e-09
-1.21586e-06
-3.81518e-10
-1.2116e-06
-7.2529e-09
-1.21159e-06
-1.26207e-08
-1.21593e-06
-2.1394e-08
-1.25981e-06
-3.07526e-08
-1.33944e-06
-9.72505e-07
7.95139e-08
-1.05334e-06
5.23819e-08
-1.31241e-06
3.34109e-08
-1.24091e-06
2.07877e-08
-1.20324e-06
-2.69036e-10
-1.19054e-06
-2.13245e-08
-1.19053e-06
-3.40949e-08
-1.20316e-06
-5.31169e-08
-1.24079e-06
-8.01923e-08
-1.31237e-06
-1.0527e-06
2.8554e-07
2.33429e-07
1.51739e-07
7.48539e-08
-1.74976e-10
-7.52119e-08
-1.5208e-07
-2.33725e-07
-2.85889e-07
1.23344e-07
1.44059e-09
-1.24785e-07
1.2176e-07
1.58412e-09
1.20041e-07
1.71941e-09
1.18195e-07
1.8459e-09
1.16234e-07
1.96155e-09
1.14166e-07
2.0673e-09
1.12004e-07
2.16216e-09
1.09759e-07
2.24527e-09
1.07442e-07
2.3168e-09
2.37623e-09
1.05066e-07
1.24004e-07
2.51932e-09
-1.25083e-07
1.22819e-07
2.76906e-09
1.21531e-07
3.0067e-09
1.20144e-07
3.23203e-09
1.18662e-07
3.44486e-09
1.17086e-07
3.6439e-09
1.15421e-07
3.82697e-09
1.13672e-07
3.99384e-09
1.11846e-07
4.14361e-09
4.27641e-09
1.09944e-07
1.17033e-07
3.7481e-09
-1.18262e-07
1.15728e-07
4.07485e-09
1.14349e-07
4.38511e-09
1.12901e-07
4.67965e-09
1.11388e-07
4.95728e-09
1.09815e-07
5.21729e-09
1.08183e-07
5.45824e-09
1.06499e-07
5.67882e-09
1.04765e-07
5.87811e-09
6.05427e-09
1.02986e-07
1.09356e-07
5.10825e-09
-1.10717e-07
1.07937e-07
5.49484e-09
1.06461e-07
5.86009e-09
1.04935e-07
6.205e-09
1.03363e-07
6.52921e-09
1.01749e-07
6.83163e-09
1.00098e-07
7.1106e-09
9.8412e-08
7.3646e-09
9.66984e-08
7.59182e-09
7.79125e-09
9.49616e-08
1.00983e-07
6.57873e-09
-1.02453e-07
9.94678e-08
7.00955e-09
9.79131e-08
7.41501e-09
9.63221e-08
7.79614e-09
9.46988e-08
8.15266e-09
9.30473e-08
8.48324e-09
9.13722e-08
8.78579e-09
8.96792e-08
9.0577e-09
8.79744e-08
9.29671e-09
9.5014e-09
8.62643e-08
9.18114e-08
8.15062e-09
-9.33833e-08
9.02116e-08
8.60938e-09
8.8587e-08
9.0397e-09
8.694e-08
9.4431e-09
8.52734e-08
9.81921e-09
8.35908e-08
1.01659e-08
8.18969e-08
1.04796e-08
8.01988e-08
1.07559e-08
7.85046e-08
1.09909e-08
1.11828e-08
7.68227e-08
8.17514e-08
9.8195e-09
-8.34203e-08
8.00731e-08
1.02877e-08
7.83863e-08
1.07265e-08
7.66913e-08
1.11382e-08
7.49884e-08
1.15221e-08
7.32798e-08
1.18745e-08
7.15705e-08
1.21888e-08
6.98697e-08
1.24566e-08
6.81892e-08
1.26701e-08
1.28268e-08
6.65451e-08
7.07125e-08
1.15851e-08
-7.24781e-08
6.89599e-08
1.20403e-08
6.72181e-08
1.24683e-08
6.54826e-08
1.28735e-08
6.37497e-08
1.32549e-08
6.20185e-08
1.36056e-08
6.02921e-08
1.39145e-08
5.85856e-08
1.41626e-08
5.6925e-08
1.43307e-08
1.44185e-08
5.53332e-08
5.85962e-08
1.34539e-08
-6.0465e-08
5.6771e-08
1.38653e-08
5.49807e-08
1.42585e-08
5.32129e-08
1.46413e-08
5.14555e-08
1.50116e-08
4.97018e-08
1.53588e-08
4.79481e-08
1.56681e-08
4.62141e-08
1.58969e-08
4.45618e-08
1.59833e-08
1.59351e-08
4.30455e-08
4.52906e-08
1.54448e-08
-4.72816e-08
4.33907e-08
1.57652e-08
4.15552e-08
1.60939e-08
3.97569e-08
1.64394e-08
3.79761e-08
1.67917e-08
3.61963e-08
1.71385e-08
3.43735e-08
1.74908e-08
3.2538e-08
1.77329e-08
3.08422e-08
1.76794e-08
1.73418e-08
2.94357e-08
3.06785e-08
1.76e-08
-3.28346e-08
2.86941e-08
1.77493e-08
2.68061e-08
1.79815e-08
2.49369e-08
1.83086e-08
2.309e-08
1.86388e-08
2.12539e-08
1.89746e-08
1.93748e-08
1.93701e-08
1.72838e-08
1.98239e-08
1.53562e-08
1.9607e-08
1.85781e-08
1.412e-08
1.46844e-08
1.99868e-08
-1.70713e-08
1.25974e-08
1.98364e-08
1.06087e-08
1.99704e-08
8.58093e-09
2.03361e-08
6.31514e-09
2.09046e-08
4.38633e-09
2.09035e-08
2.44062e-09
2.13159e-08
5.81693e-11
2.13865e-08
-1.12254e-09
2.00085e-08
1.86009e-08
-1.33045e-09
-2.49243e-09
2.25453e-08
-6.59983e-11
-4.5224e-09
2.18668e-08
-6.73136e-09
2.21794e-08
-8.89445e-09
2.24994e-08
-1.12008e-08
2.22499e-08
-1.34526e-08
2.22977e-08
-1.42803e-08
2.13904e-08
-1.43896e-08
2.07908e-08
-1.39708e-08
1.95585e-08
1.84232e-08
-1.40179e-08
-1.93233e-08
2.50117e-08
1.58154e-08
-2.18508e-08
2.26621e-08
-2.39367e-08
2.34702e-08
-2.5156e-08
2.3267e-08
-2.62891e-08
2.32423e-08
-2.65303e-08
2.23954e-08
-2.6794e-08
2.15092e-08
-2.68974e-08
2.10458e-08
-2.76719e-08
1.98256e-08
1.82703e-08
-2.75192e-08
-3.12238e-08
2.69021e-08
2.87244e-08
-3.52362e-08
2.72404e-08
-3.69445e-08
2.50397e-08
-3.77888e-08
2.39727e-08
-3.88877e-08
2.42025e-08
-4.02015e-08
2.43456e-08
-4.2015e-08
2.33368e-08
-4.26764e-08
2.17915e-08
-4.2985e-08
2.01339e-08
1.84726e-08
-4.31872e-08
-4.81791e-08
3.1739e-08
4.41075e-08
-4.98166e-08
3.05822e-08
-5.09868e-08
2.86862e-08
-5.4754e-08
2.79504e-08
-5.7461e-08
2.70042e-08
-5.89409e-08
2.58388e-08
-6.00226e-08
2.44057e-08
-6.10004e-08
2.27561e-08
-6.18367e-08
2.09691e-08
1.9143e-08
-6.25071e-08
-6.64944e-08
3.41706e-08
6.40622e-08
-6.91114e-08
3.32771e-08
-7.22155e-08
3.2063e-08
-7.49892e-08
3.07714e-08
-7.74361e-08
2.94678e-08
-7.95686e-08
2.79994e-08
-8.15207e-08
2.63106e-08
-8.32384e-08
2.44462e-08
-8.46757e-08
2.24064e-08
2.02701e-08
-8.58027e-08
-8.76918e-08
3.7625e-08
8.42366e-08
-9.11318e-08
3.67163e-08
-9.46098e-08
3.55407e-08
-9.80488e-08
3.4218e-08
-1.01291e-07
3.27221e-08
-1.04282e-07
3.10175e-08
-1.07082e-07
2.90859e-08
-1.09566e-07
2.68927e-08
-1.1162e-07
2.44599e-08
2.18748e-08
-1.13224e-07
-1.12173e-07
4.19233e-08
1.07875e-07
-1.16448e-07
4.09814e-08
-1.20708e-07
3.97829e-08
-1.2496e-07
3.83969e-08
-1.29082e-07
3.68386e-08
-1.33031e-07
3.49587e-08
-1.36704e-07
3.27391e-08
-1.39945e-07
3.01344e-08
-1.4258e-07
2.70953e-08
2.38389e-08
-1.44544e-07
-1.39492e-07
4.69601e-08
1.3445e-07
-1.44559e-07
4.60359e-08
-1.50275e-07
4.49027e-08
-1.55552e-07
4.36713e-08
-1.60836e-07
4.21207e-08
-1.65834e-07
3.99598e-08
-1.70363e-07
3.72716e-08
-1.74586e-07
3.43786e-08
-1.77508e-07
3.00174e-08
2.55925e-08
-1.788e-07
-1.69775e-07
5.3162e-08
1.63343e-07
-1.76664e-07
5.23294e-08
-1.83217e-07
5.14535e-08
-1.89761e-07
5.02122e-08
-1.96308e-07
4.86646e-08
-2.02701e-07
4.67077e-08
-2.00335e-07
3.90981e-08
-2.04216e-07
3.64652e-08
-2.08498e-07
3.24886e-08
2.78339e-08
-2.15065e-07
-2.0364e-07
6.11088e-08
1.95649e-07
-2.11643e-07
6.02341e-08
-2.18435e-07
5.82819e-08
-2.18863e-07
5.70347e-08
-2.1608e-07
5.13997e-08
-2.18314e-07
4.73849e-08
-2.41021e-07
4.43026e-08
-2.4569e-07
4.14425e-08
-2.51846e-07
3.65886e-08
3.13246e-08
-2.5701e-07
-2.36196e-07
6.88812e-08
2.28503e-07
-2.30517e-07
6.70328e-08
-2.34101e-07
6.1659e-08
-2.37359e-07
5.98576e-08
-2.43559e-07
5.70856e-08
-2.51031e-07
5.41892e-08
-2.77048e-07
5.13871e-08
-2.81785e-07
4.66914e-08
-2.86011e-07
4.13811e-08
3.61698e-08
-2.86229e-07
-2.47489e-07
7.26291e-08
2.43112e-07
-2.52641e-07
7.186e-08
-2.60494e-07
6.91873e-08
-2.66946e-07
6.59853e-08
-2.80181e-07
6.71048e-08
-3.03972e-07
6.39096e-08
-3.10672e-07
5.84173e-08
-3.17333e-07
5.38652e-08
-3.09013e-07
4.77251e-08
4.10734e-08
-3.14475e-07
-2.71385e-07
8.11327e-08
2.61946e-07
-2.80487e-07
8.03321e-08
-3.04406e-07
8.21423e-08
-3.17715e-07
8.11837e-08
-3.22245e-07
7.68105e-08
-3.29502e-07
6.99946e-08
-3.37949e-07
6.53942e-08
-3.52733e-07
6.13363e-08
-3.64361e-07
5.74518e-08
5.1409e-08
-3.51312e-07
-3.13573e-07
9.56307e-08
2.85907e-07
-3.28771e-07
9.57265e-08
-3.39222e-07
9.29236e-08
-3.47079e-07
8.94452e-08
-3.47173e-07
8.44951e-08
-3.57784e-07
7.92731e-08
-3.71564e-07
7.61332e-08
-3.88451e-07
7.27939e-08
-3.98794e-07
6.80251e-08
6.22508e-08
-4.0928e-07
-3.40304e-07
1.07801e-07
3.28411e-07
-3.49529e-07
1.05222e-07
-3.58471e-07
1.02141e-07
-3.67963e-07
9.92681e-08
-3.69026e-07
9.5316e-08
-3.85076e-07
9.14002e-08
-4.03088e-07
8.8928e-08
-4.15348e-07
8.50515e-08
-4.27717e-07
8.05172e-08
7.40003e-08
-4.39178e-07
-3.5655e-07
1.1773e-07
3.469e-07
-3.65834e-07
1.15651e-07
-3.74985e-07
1.11736e-07
-3.84015e-07
1.09115e-07
-3.97942e-07
1.06919e-07
-4.10664e-07
1.04286e-07
-4.23496e-07
1.01464e-07
-4.36636e-07
9.8244e-08
-4.47856e-07
9.20097e-08
7.96327e-08
-4.25109e-07
-3.69516e-07
1.27683e-07
3.60395e-07
-3.79452e-07
1.23982e-07
-3.91832e-07
1.21866e-07
-4.03214e-07
1.20056e-07
-4.14171e-07
1.17957e-07
-4.25849e-07
1.16147e-07
-4.38399e-07
1.14242e-07
-4.46997e-07
1.07369e-07
-3.79461e-07
9.59113e-08
6.65441e-08
-3.3933e-07
-3.83273e-07
1.37248e-07
3.72501e-07
-3.93474e-07
1.34599e-07
-4.03561e-07
1.31627e-07
-4.13078e-07
1.29558e-07
-4.23452e-07
1.28339e-07
-4.34618e-07
1.27354e-07
-4.33441e-07
1.2031e-07
-3.40826e-07
1.01541e-07
-3.36134e-07
8.64529e-08
8.74653e-08
-3.62717e-07
-3.9366e-07
1.45398e-07
3.85566e-07
-4.00738e-07
1.41714e-07
-4.08423e-07
1.39363e-07
-4.16997e-07
1.38194e-07
-4.2625e-07
1.3778e-07
-4.2499e-07
1.32973e-07
-3.32491e-07
1.12499e-07
-3.33232e-07
9.77449e-08
-3.44302e-07
9.4846e-08
1.0142e-07
-4.32354e-07
-3.90852e-07
1.519e-07
3.84316e-07
-3.9772e-07
1.48594e-07
-4.05284e-07
1.46961e-07
-4.13443e-07
1.46523e-07
-4.19872e-07
1.44941e-07
-3.15531e-07
1.12964e-07
-3.10305e-07
1.05458e-07
-3.2004e-07
1.03445e-07
-3.30279e-07
1.01728e-07
1.21677e-07
-4.60986e-07
-3.825e-07
1.57923e-07
3.76439e-07
-3.89534e-07
1.55619e-07
-3.97385e-07
1.54897e-07
-4.0506e-07
1.54614e-07
-3.61524e-07
1.40076e-07
-2.92044e-07
1.16298e-07
-3.00213e-07
1.10422e-07
-3.07441e-07
1.07838e-07
-3.70107e-07
1.11776e-07
1.25951e-07
-4.45137e-07
-3.71387e-07
1.64152e-07
3.65158e-07
-3.78769e-07
1.62982e-07
-3.86732e-07
1.63036e-07
-3.82416e-07
1.59895e-07
-2.83665e-07
1.33191e-07
-2.86228e-07
1.16825e-07
-2.9312e-07
1.152e-07
-3.03668e-07
1.14606e-07
-4.24946e-07
1.26999e-07
1.32901e-07
-4.32172e-07
-3.61735e-07
1.70531e-07
3.55378e-07
-3.68949e-07
1.70271e-07
-3.75882e-07
1.70665e-07
-2.79042e-07
1.56306e-07
-2.70913e-07
1.23647e-07
-2.78119e-07
1.22673e-07
-2.85567e-07
1.21289e-07
-2.98918e-07
1.25073e-07
-4.18661e-07
1.37102e-07
1.36148e-07
-4.21857e-07
-3.57095e-07
1.77033e-07
3.5061e-07
-3.64161e-07
1.77441e-07
-3.71207e-07
1.78511e-07
-2.61563e-07
1.67307e-07
-2.69417e-07
1.29235e-07
-2.77024e-07
1.28922e-07
-2.89569e-07
1.29919e-07
-3.96197e-07
1.54154e-07
-4.11988e-07
1.52945e-07
1.40788e-07
-4.16577e-07
-3.59323e-07
1.83852e-07
3.52514e-07
-3.66774e-07
1.84936e-07
-3.746e-07
1.87009e-07
-3.76881e-07
1.88169e-07
-3.4256e-07
1.82928e-07
-3.08721e-07
1.42237e-07
-4.0198e-07
1.42496e-07
-4.16975e-07
1.69099e-07
-4.19524e-07
1.55497e-07
1.36804e-07
-4.15489e-07
-3.64708e-07
1.90759e-07
3.57815e-07
-3.72163e-07
1.92404e-07
-3.79098e-07
1.93999e-07
-3.81916e-07
1.9128e-07
-3.74557e-07
1.7719e-07
-2.58072e-07
1.15665e-07
-2.29498e-07
7.08692e-08
-3.74355e-07
7.83007e-08
-4.03941e-07
1.00396e-07
7.80465e-08
-2.96143e-07
-3.71489e-07
1.98968e-07
3.63291e-07
-3.7718e-07
1.98149e-07
-3.61714e-07
1.78833e-07
-3.23304e-07
1.12302e-07
-2.09355e-07
7.30421e-08
-1.38791e-07
6.23759e-08
-1.21513e-07
5.15783e-08
-1.1743e-07
5.38375e-08
-1.03652e-07
5.6476e-08
5.80815e-08
-1.09236e-07
-3.09161e-07
1.22868e-07
3.34423e-07
-2.48373e-07
7.44989e-08
-1.63383e-07
6.12087e-08
-1.23497e-07
5.86124e-08
-1.06763e-07
5.37307e-08
-1.0323e-07
5.70187e-08
-1.04881e-07
5.16795e-08
-1.1343e-07
6.03418e-08
-1.98572e-07
1.03122e-07
1.22973e-07
-2.76935e-07
-1.13528e-07
5.87544e-08
1.61067e-07
-9.79043e-08
5.70051e-08
-9.24064e-08
5.28141e-08
-9.26205e-08
5.63725e-08
-9.18802e-08
5.01199e-08
-9.74652e-08
5.98253e-08
-1.46291e-07
1.0517e-07
-2.48963e-07
1.48115e-07
-2.90054e-07
1.3856e-07
1.25243e-07
-2.86001e-07
-7.78124e-08
5.33015e-08
8.18232e-08
-7.55592e-08
5.29479e-08
-7.63265e-08
5.15662e-08
-8.4464e-08
6.15883e-08
-1.14529e-07
1.19779e-07
-1.98158e-07
1.66266e-07
-2.45328e-07
1.57708e-07
-2.43143e-07
1.45518e-07
-2.37577e-07
1.3284e-07
1.18702e-07
-2.24568e-07
-6.58471e-08
4.83079e-08
6.93988e-08
-6.34444e-08
4.91032e-08
-8.23183e-08
6.86865e-08
-1.73324e-07
1.60131e-07
-2.05565e-07
1.71838e-07
-2.00177e-07
1.61322e-07
-1.91978e-07
1.49541e-07
-1.84535e-07
1.37674e-07
-1.78196e-07
1.2622e-07
1.15138e-07
-1.71644e-07
-6.12139e-08
4.2585e-08
6.54948e-08
-8.33208e-08
6.99399e-08
-1.72825e-07
1.63815e-07
-1.80797e-07
1.68214e-07
-1.68516e-07
1.59464e-07
-1.55956e-07
1.48749e-07
-1.44239e-07
1.37885e-07
-1.33582e-07
1.2709e-07
-1.24317e-07
1.16892e-07
1.07376e-07
-1.16442e-07
-1.37815e-07
1.61795e-07
1.78546e-07
-1.81627e-07
1.57234e-07
-1.80841e-07
1.53392e-07
-1.59685e-07
1.47125e-07
-1.39397e-07
1.38931e-07
-1.20517e-07
1.29875e-07
-1.03191e-07
1.20562e-07
-8.74317e-08
1.11449e-07
-7.33053e-08
1.02848e-07
9.49663e-08
-6.09154e-08
-1.88557e-07
1.47004e-07
2.05797e-07
-1.69934e-07
1.38803e-07
-1.48094e-07
1.31548e-07
-1.24832e-07
1.23925e-07
-1.01887e-07
1.15808e-07
-7.96567e-08
1.07597e-07
-5.85373e-08
9.9442e-08
-3.8735e-08
9.16469e-08
-2.03978e-08
8.45109e-08
7.82516e-08
-3.68201e-09
-1.45341e-07
1.2825e-07
1.64104e-07
-1.25201e-07
1.18669e-07
-1.0327e-07
1.09617e-07
-8.01814e-08
1.00857e-07
-5.66051e-08
9.232e-08
-3.30791e-08
8.40806e-08
-9.95971e-09
7.63227e-08
1.2449e-08
6.92383e-08
3.38995e-08
6.30607e-08
5.80115e-08
5.41398e-08
-9.90306e-08
1.08913e-07
1.18368e-07
-7.84113e-08
9.80503e-08
-5.65006e-08
8.77065e-08
-3.35242e-08
7.78813e-08
-9.80299e-09
6.85984e-08
1.43475e-08
5.99345e-08
3.8643e-08
5.20261e-08
6.28151e-08
4.50663e-08
8.65807e-08
3.92953e-08
3.49659e-08
1.09576e-07
-5.50612e-08
8.93847e-08
7.45895e-08
-3.43611e-08
7.73503e-08
-1.25364e-08
6.58821e-08
1.03117e-08
5.50332e-08
3.40436e-08
4.48641e-08
5.85001e-08
3.54765e-08
8.34893e-08
2.70314e-08
1.08777e-07
1.97784e-08
1.33758e-07
1.4042e-08
1.02964e-08
1.58419e-07
-1.49962e-08
7.00925e-08
3.42886e-08
5.34541e-09
5.70088e-08
2.67263e-08
4.4501e-08
4.91224e-08
3.26369e-08
7.24813e-08
2.15044e-08
9.66971e-08
1.126e-08
1.21557e-07
2.17118e-09
1.46439e-07
-5.33966e-09
1.71203e-07
-1.07304e-08
-1.33768e-08
1.94867e-07
2.09363e-08
5.18074e-08
-2.65166e-09
4.02335e-08
3.7712e-08
6.05422e-08
2.41923e-08
8.18413e-08
1.13381e-08
1.04004e-07
-6.80023e-10
1.26803e-07
-1.15512e-08
1.49604e-07
-2.07969e-08
1.72025e-07
-2.77812e-08
1.932e-07
-3.1922e-08
-3.24178e-08
2.1243e-07
5.20516e-08
3.51292e-08
-3.53734e-08
6.97008e-08
2.00634e-08
8.82895e-08
5.60381e-09
1.077e-07
-8.0723e-09
1.27512e-07
-2.06249e-08
1.47431e-07
-3.14848e-08
1.66656e-07
-4.00315e-08
1.84512e-07
-4.5512e-08
2.00051e-07
-4.74003e-08
-4.517e-08
2.12803e-07
7.76666e-08
2.04414e-08
-6.29785e-08
9.32595e-08
4.47098e-09
1.0965e-07
-1.07862e-08
1.26579e-07
-2.50023e-08
1.43588e-07
-3.76336e-08
1.59912e-07
-4.79534e-08
1.75043e-07
-5.51732e-08
1.88407e-07
-5.87745e-08
1.99456e-07
-5.83826e-08
-5.36644e-08
2.07951e-07
9.72411e-08
7.80415e-09
-8.46023e-08
1.10701e-07
-8.98891e-09
1.24822e-07
-2.49074e-08
1.39295e-07
-3.94758e-08
1.53668e-07
-5.20066e-08
1.67326e-07
-6.17071e-08
1.8e-07
-6.7882e-08
1.91491e-07
-7.01938e-08
2.01444e-07
-6.83106e-08
-6.21518e-08
2.09931e-07
1.10763e-07
-2.93972e-09
-1.00019e-07
1.22278e-07
-2.05043e-08
1.34422e-07
-3.70515e-08
1.46964e-07
-5.20177e-08
1.59612e-07
-6.46654e-08
1.72131e-07
-7.42679e-08
1.84467e-07
-8.02549e-08
1.96572e-07
-8.22889e-08
2.08454e-07
-8.01923e-08
-7.38676e-08
2.20169e-07
1.18674e-07
-1.2093e-08
-1.09516e-07
1.28554e-07
-3.03849e-08
1.39114e-07
-4.76111e-08
1.50268e-07
-6.31904e-08
1.62021e-07
-7.64129e-08
1.74371e-07
-8.66111e-08
1.87442e-07
-9.33196e-08
2.01367e-07
-9.62139e-08
2.16272e-07
-9.50979e-08
-8.96536e-08
2.32058e-07
1.22285e-07
-1.96336e-08
-1.14744e-07
1.3059e-07
-3.86895e-08
1.39702e-07
-5.67232e-08
1.49682e-07
-7.31943e-08
1.60714e-07
-8.74429e-08
1.73004e-07
-9.88955e-08
1.86782e-07
-1.07085e-07
2.02274e-07
-1.11707e-07
2.19702e-07
-1.12527e-07
-1.09165e-07
2.39213e-07
1.22576e-07
-2.54709e-08
-1.16739e-07
1.29257e-07
-4.537e-08
1.36879e-07
-6.43455e-08
1.4559e-07
-8.19197e-08
1.5565e-07
-9.75109e-08
1.67333e-07
-1.10574e-07
1.80883e-07
-1.20635e-07
1.96565e-07
-1.27389e-07
2.14663e-07
-1.30625e-07
-1.30157e-07
2.35656e-07
1.20228e-07
-2.96687e-08
-1.1603e-07
1.25356e-07
-5.04986e-08
1.31517e-07
-7.05061e-08
1.38871e-07
-8.9279e-08
1.47654e-07
-1.06301e-07
1.58115e-07
-1.21036e-07
1.70485e-07
-1.33005e-07
1.84936e-07
-1.41841e-07
2.01588e-07
-1.47277e-07
-1.49061e-07
2.20491e-07
1.15817e-07
-3.26386e-08
-1.12847e-07
1.19761e-07
-5.4443e-08
1.24759e-07
-7.55051e-08
1.30944e-07
-9.5462e-08
1.38499e-07
-1.13856e-07
1.47632e-07
-1.3017e-07
1.58522e-07
-1.43895e-07
1.71251e-07
-1.54571e-07
1.85753e-07
-1.61779e-07
-1.65007e-07
2.01699e-07
1.10357e-07
-3.49449e-08
-1.0805e-07
1.13615e-07
-5.77008e-08
1.17895e-07
-7.97849e-08
1.23305e-07
-1.00872e-07
1.30009e-07
-1.2056e-07
1.38202e-07
-1.38363e-07
1.48055e-07
-1.53748e-07
1.59644e-07
-1.6616e-07
1.72856e-07
-1.74992e-07
-1.79446e-07
1.87295e-07
1.05442e-07
-3.6698e-08
-1.03685e-07
1.082e-07
-6.04534e-08
1.1196e-07
-8.35442e-08
1.16821e-07
-1.05734e-07
1.22971e-07
-1.2671e-07
1.30665e-07
-1.46057e-07
1.4017e-07
-1.63254e-07
1.5169e-07
-1.7768e-07
1.65262e-07
-1.88564e-07
-1.94735e-07
1.80551e-07
1.0213e-07
-3.78858e-08
-1.00867e-07
1.0441e-07
-6.27273e-08
1.07671e-07
-8.68054e-08
1.12002e-07
-1.10065e-07
1.17662e-07
-1.32371e-07
1.25064e-07
-1.53459e-07
1.34684e-07
-1.72873e-07
1.47015e-07
-1.90011e-07
1.62581e-07
-2.04131e-07
-2.12485e-07
1.80331e-07
1.00822e-07
-3.92944e-08
-9.88118e-08
1.03249e-07
-6.51541e-08
1.06557e-07
-9.01127e-08
1.10848e-07
-1.14357e-07
1.1656e-07
-1.38082e-07
1.24438e-07
-1.61337e-07
1.35208e-07
-1.83642e-07
1.49479e-07
-2.04283e-07
1.68361e-07
-2.23012e-07
-2.39958e-07
1.71716e-07
1.02115e-07
-4.32768e-08
-9.81319e-08
1.0685e-07
-6.98899e-08
1.12394e-07
-9.56557e-08
1.19074e-07
-1.21037e-07
1.27944e-07
-1.4694e-07
1.4088e-07
-1.74245e-07
1.58903e-07
-2.01423e-07
1.8184e-07
-2.27212e-07
2.10094e-07
-2.51266e-07
-2.73916e-07
2.44134e-07
1.10062e-07
-4.9992e-08
-1.03347e-07
1.18458e-07
-7.82841e-08
1.28979e-07
-1.06177e-07
1.41918e-07
-1.33982e-07
1.58586e-07
-1.58312e-07
1.86938e-07
-1.91026e-07
2.28952e-07
-2.3988e-07
2.77285e-07
-2.75578e-07
3.31382e-07
-3.05324e-07
-3.22048e-07
3.7322e-07
1.19418e-07
-5.68012e-08
-1.12611e-07
1.30006e-07
-8.88713e-08
1.44383e-07
-1.20559e-07
1.44071e-07
-1.39879e-07
1.76646e-07
-1.82463e-07
2.42485e-07
-2.29589e-07
3.15688e-07
-3.05871e-07
3.8384e-07
-3.43241e-07
4.02925e-07
-3.17356e-07
-3.38845e-07
5.19139e-07
1.131e-07
-6.55616e-08
-1.04327e-07
1.24669e-07
-1.00441e-07
1.28667e-07
-1.30086e-07
1.11166e-07
-1.55666e-07
2.0414e-07
-2.36537e-07
2.758e-07
-2.98478e-07
3.41229e-07
-3.40233e-07
3.71809e-07
-3.43837e-07
4.34492e-07
-3.92044e-07
-4.61244e-07
5.33128e-07
1.06059e-07
-6.97107e-08
-1.019e-07
1.0327e-07
-9.91691e-08
8.57107e-08
-1.41598e-07
1.04016e-07
-1.88331e-07
1.4625e-07
-2.43702e-07
1.81842e-07
-2.27997e-07
2.8273e-07
-3.16169e-07
4.323e-07
-4.00406e-07
5.67669e-07
-5.35642e-07
-6.83442e-07
7.18556e-07
9.45991e-08
-6.22174e-08
-1.07779e-07
6.8359e-08
-8.9987e-08
7.1415e-08
-1.45672e-07
8.03697e-08
-1.96935e-07
1.10296e-07
-1.86367e-07
1.92926e-07
-2.9685e-07
3.51782e-07
-4.96349e-07
5.64109e-07
-6.77067e-07
6.68249e-07
-7.62707e-07
-8.17586e-07
8.0231e-07
7.24595e-08
-5.26697e-08
-1.22385e-07
6.09183e-08
-8.28153e-08
5.64279e-08
-1.25851e-07
5.03974e-08
-7.29807e-08
1.3204e-07
-1.67889e-07
3.5398e-07
-5.43679e-07
4.88715e-07
-7.30598e-07
6.20192e-07
-8.08644e-07
7.21453e-07
-8.63952e-07
-9.06957e-07
8.10811e-07
7.98548e-08
-3.98631e-08
-1.06477e-07
6.49111e-08
-7.31616e-08
2.28348e-08
-4.79626e-08
4.95953e-08
-2.46902e-08
2.48736e-07
-2.63815e-07
4.44911e-07
-7.18918e-07
5.51871e-07
-8.37088e-07
6.45532e-07
-9.02203e-07
7.31446e-07
-9.49846e-07
-9.86084e-07
8.10591e-07
8.2608e-08
-2.41899e-08
-9.77813e-08
6.09511e-08
-3.63918e-08
1.37368e-08
-8.99869e-09
2.18415e-08
-2.5085e-08
3.31866e-07
-2.98826e-07
4.8889e-07
-8.15056e-07
5.81311e-07
-9.28559e-07
6.63616e-07
-9.84299e-07
7.38197e-07
-1.02438e-06
-1.05335e-06
8.05475e-07
8.65998e-08
-1.46737e-08
-1.03045e-07
2.36017e-08
-1.44464e-08
1.66722e-08
-7.10838e-09
2.46506e-08
-3.26096e-08
3.83403e-07
-3.29153e-07
5.44648e-07
-8.95401e-07
6.17848e-07
-1.00012e-06
6.82792e-07
-1.04909e-06
7.4162e-07
-1.08318e-06
-1.1061e-06
7.94381e-07
5.85208e-08
-1.25853e-09
-8.32612e-08
1.67495e-08
-2.22127e-09
1.69001e-08
-1.13713e-08
3.83034e-08
-5.91217e-08
4.38352e-07
-4.76477e-07
5.75834e-07
-9.83461e-07
6.35668e-07
-1.05877e-06
6.8676e-07
-1.10003e-06
7.32645e-07
-1.12904e-06
-1.14667e-06
7.73223e-07
1.76438e-08
4.93644e-09
-8.05459e-08
1.00695e-08
-2.09367e-09
1.54143e-08
-2.09023e-08
1.08307e-07
-1.56216e-07
5.28956e-07
-7.71303e-07
5.94893e-07
-1.04805e-06
6.40128e-07
-1.10366e-06
6.79422e-07
-1.13927e-06
7.14883e-07
-1.16449e-06
-1.17743e-06
7.45644e-07
3.96436e-08
1.14522e-08
-8.43608e-08
1.69608e-08
-3.59898e-09
2.2853e-08
-3.34809e-08
2.84852e-07
-2.54477e-07
5.58161e-07
-9.78749e-07
6.0239e-07
-1.09133e-06
6.35124e-07
-1.13624e-06
6.65098e-07
-1.16922e-06
6.92396e-07
-1.19178e-06
-1.20029e-06
7.15256e-07
2.05478e-08
1.28457e-09
-9.30475e-08
2.0902e-08
-7.91036e-09
5.40311e-08
-7.32806e-08
4.87351e-07
-5.79034e-07
5.76256e-07
-1.0468e-06
6.00995e-07
-1.11567e-06
6.23375e-07
-1.15856e-06
6.4613e-07
-1.19196e-06
6.67034e-07
-1.21268e-06
-1.21673e-06
6.83479e-07
7.74856e-09
1.44766e-10
-2.35078e-08
1.32902e-08
-1.7471e-08
1.46676e-07
-2.10692e-07
5.24414e-07
-9.03791e-07
5.58517e-07
-1.08022e-06
5.78471e-07
-1.1355e-06
5.99112e-07
-1.17918e-06
6.19701e-07
-1.21255e-06
6.37237e-07
-1.23021e-06
-1.22886e-06
6.49368e-07
1.22284e-08
-2.01629e-09
-1.31464e-08
2.77202e-08
-3.64819e-08
3.6462e-07
-4.37229e-07
5.08409e-07
-1.01918e-06
5.30532e-07
-1.10211e-06
5.50102e-07
-1.15503e-06
5.70893e-07
-1.19997e-06
5.90088e-07
-1.23174e-06
6.04715e-07
-1.24484e-06
-1.23744e-06
6.13291e-07
7.76545e-09
-8.02975e-09
-4.83207e-09
7.14721e-08
-1.03269e-07
4.40295e-07
-7.54897e-07
4.76419e-07
-1.05481e-06
4.96454e-07
-1.12207e-06
5.18053e-07
-1.17661e-06
5.39752e-07
-1.22167e-06
5.5786e-07
-1.24985e-06
5.69798e-07
-1.25678e-06
-1.24242e-06
5.74779e-07
1.19128e-08
-1.79733e-08
-5.04831e-09
1.7597e-07
-2.24247e-07
4.09845e-07
-9.62853e-07
4.38135e-07
-1.08297e-06
4.61326e-07
-1.14523e-06
4.85186e-07
-1.20047e-06
5.06975e-07
-1.24345e-06
5.23507e-07
-1.26638e-06
5.33313e-07
-1.26658e-06
-1.24584e-06
5.36733e-07
2.51968e-08
-3.32597e-08
-1.28823e-08
3.17057e-07
-4.77546e-07
3.85779e-07
-1.02532e-06
4.09238e-07
-1.10637e-06
4.31681e-07
-1.16767e-06
4.53848e-07
-1.22264e-06
4.72536e-07
-1.26214e-06
4.85138e-07
-1.27899e-06
4.90918e-07
-1.27236e-06
-1.24477e-06
4.89851e-07
5.90882e-08
-7.0378e-08
-2.49245e-08
3.45661e-07
-7.49275e-07
3.68213e-07
-1.04784e-06
3.83067e-07
-1.12121e-06
4.01132e-07
-1.18573e-06
4.19672e-07
-1.24118e-06
4.34592e-07
-1.27706e-06
4.43764e-07
-1.28816e-06
4.47217e-07
-1.27582e-06
-1.24199e-06
4.44433e-07
1.18831e-07
-1.72366e-07
-9.15258e-09
2.96048e-07
-9.30706e-07
3.17085e-07
-1.0689e-06
3.36737e-07
-1.14086e-06
3.57361e-07
-1.20635e-06
3.76026e-07
-1.25984e-06
3.89763e-07
-1.2908e-06
3.98213e-07
-1.29661e-06
4.02781e-07
-1.28039e-06
-1.24091e-06
4.01695e-07
1.77167e-07
-3.88384e-07
-6.4463e-11
2.39483e-07
-9.99416e-07
2.63846e-07
-1.09329e-06
2.86967e-07
-1.16398e-06
3.08095e-07
-1.22748e-06
3.2523e-07
-1.27698e-06
3.36849e-07
-1.30242e-06
3.44542e-07
-1.3043e-06
3.51536e-07
-1.28738e-06
-1.24394e-06
3.54567e-07
1.4686e-07
-5.8057e-07
-3.47735e-11
1.84228e-07
-1.03861e-06
2.11298e-07
-1.12037e-06
2.34944e-07
-1.18763e-06
2.54395e-07
-1.24693e-06
2.67931e-07
-1.29051e-06
2.75059e-07
-1.30955e-06
2.78248e-07
-1.30749e-06
2.80507e-07
-1.28964e-06
-1.22815e-06
2.64716e-07
9.84841e-08
-7.04662e-07
-1.70534e-11
1.34569e-07
-1.07475e-06
1.62402e-07
-1.1482e-06
1.85201e-07
-1.21043e-06
2.01994e-07
-1.26372e-06
2.11207e-07
-1.29973e-06
2.13855e-07
-1.31219e-06
2.12808e-07
-1.30644e-06
2.10111e-07
-1.28694e-06
-1.17399e-06
1.55948e-07
6.39905e-08
-7.79113e-07
-7.64043e-12
9.65982e-08
-1.10737e-06
1.22567e-07
-1.17417e-06
1.43246e-07
-1.23111e-06
1.56654e-07
-1.27713e-06
1.61642e-07
-1.30471e-06
1.61029e-07
-1.31158e-06
1.57356e-07
-1.30277e-06
1.51841e-07
-1.28143e-06
-1.09745e-06
8.35945e-08
4.22893e-08
-8.23542e-07
-3.26651e-12
7.01688e-08
-1.13526e-06
9.30897e-08
-1.19709e-06
1.11245e-07
-1.24926e-06
1.21334e-07
-1.28722e-06
1.23479e-07
-1.30686e-06
1.22281e-07
-1.31038e-06
1.19286e-07
-1.29978e-06
1.16043e-07
-1.27818e-06
-1.03343e-06
5.26038e-08
2.95708e-08
-8.51472e-07
-1.13901e-12
5.28691e-08
-1.15856e-06
7.23915e-08
-1.21662e-06
8.76306e-08
-1.2645e-06
9.42289e-08
-1.29382e-06
9.4465e-08
-1.3071e-06
9.42454e-08
-1.31016e-06
9.36698e-08
-1.2992e-06
9.58864e-08
-1.2804e-06
-9.81416e-07
4.31033e-08
2.4247e-08
-8.73192e-07
-4.73644e-12
4.20127e-08
-1.17633e-06
5.76742e-08
-1.23228e-06
6.93417e-08
-1.27617e-06
7.19043e-08
-1.29638e-06
6.97707e-08
-1.30496e-06
6.92086e-08
-1.3096e-06
6.83821e-08
-1.29838e-06
7.01971e-08
-1.28222e-06
-9.40986e-07
2.9208e-08
1.9744e-08
-8.92395e-07
-2.02057e-11
3.41364e-08
-1.19073e-06
4.71071e-08
-1.24525e-06
5.48893e-08
-1.28395e-06
5.33063e-08
-1.2948e-06
4.83818e-08
-1.30004e-06
4.59525e-08
-1.30717e-06
4.26799e-08
-1.2951e-06
3.71418e-08
-1.27668e-06
-9.14722e-07
1.11687e-08
2.24729e-08
-9.17061e-07
-5.22516e-10
3.17053e-08
-1.19997e-06
4.10848e-08
-1.25463e-06
4.38089e-08
-1.28668e-06
3.82849e-08
-1.28927e-06
3.08301e-08
-1.29258e-06
2.6194e-08
-1.30254e-06
2.18796e-08
-1.29079e-06
1.013e-08
-1.26493e-06
-9.04162e-07
-4.63984e-17
2.20139e-08
-9.39565e-07
-9.34789e-10
2.85332e-08
-1.20649e-06
3.60968e-08
-1.26219e-06
3.44148e-08
-1.28499e-06
2.62175e-08
-1.28108e-06
1.68235e-08
-1.28319e-06
9.4626e-09
-1.29517e-06
5.89458e-09
-1.28722e-06
-8.0962e-09
-1.25094e-06
-9.12407e-07
-3.03884e-14
2.09957e-08
-9.59337e-07
-3.29756e-15
2.66528e-08
-1.21214e-06
3.31906e-08
-1.26873e-06
2.71532e-08
-1.27896e-06
1.71468e-08
-1.27107e-06
6.63057e-09
-1.27267e-06
-3.11897e-09
-1.28542e-06
-5.20755e-09
-1.28513e-06
-1.87611e-08
-1.23739e-06
-9.31815e-07
-1.25522e-13
2.64628e-08
-9.82243e-07
-4.25732e-14
2.65057e-08
-1.21219e-06
3.03107e-08
-1.27254e-06
2.03989e-08
-1.26904e-06
9.74796e-09
-1.26042e-06
-1.11509e-09
-1.26181e-06
-1.29609e-08
-1.27358e-06
-1.24609e-08
-1.28563e-06
-2.05954e-08
-1.22926e-06
-9.53215e-07
-4.19874e-13
6.958e-09
-9.88808e-07
-4.61717e-13
1.87681e-08
-1.224e-06
2.50689e-08
-1.27884e-06
1.45296e-08
-1.25851e-06
4.38299e-09
-1.25027e-06
-6.38367e-09
-1.25104e-06
-1.94111e-08
-1.26055e-06
-1.80567e-08
-1.28699e-06
-1.35411e-08
-1.23377e-06
-9.67452e-07
-6.69914e-13
-6.61064e-09
-9.81806e-07
-3.35216e-12
2.25705e-08
-1.25318e-06
2.47645e-08
-1.28103e-06
1.20893e-08
-1.24583e-06
1.7172e-09
-1.2399e-06
-9.07869e-09
-1.24025e-06
-2.2937e-08
-1.24669e-06
-2.48211e-08
-1.2851e-06
6.71332e-10
-1.25926e-06
-9.671e-07
-3.65201e-13
-2.12552e-08
7.54651e-85
2.65869e-08
1.95722e-08
8.51306e-09
3.15479e-10