/*--------------------------------*- C++ -*----------------------------------*\
  =========                 |
  \\      /  F ield         | OpenFOAM: The Open Source CFD Toolbox
   \\    /   O peration     | Website:  https://openfoam.org
    \\  /    A nd           | Version:  8
     \\/     M anipulation  |
\*---------------------------------------------------------------------------*/
FoamFile
{
    version     2.0;
    format      ascii;
    class       volScalarField;
    location    "4.25";
    object      p;
}
// * * * * * * * * * * * * * * * * * * * * * * * * * * * * * * * * * * * * * //

dimensions      [1 -1 -2 0 0 0 0];

internalField   nonuniform List<scalar> 
9150
(
398.39
371.367
345.904
328.71
320.413
320.413
328.711
345.906
371.368
398.391
369.547
349.958
334.34
322.533
316.563
316.563
322.534
334.341
349.96
369.548
340.272
326.662
318.165
310.396
306.301
306.301
310.397
318.166
326.662
340.273
315.578
305.496
300.08
294.703
291.742
291.742
294.703
300.08
305.496
315.578
294.307
285.293
280.776
276.593
274.151
274.151
276.593
280.775
285.293
294.307
30.974
27.4264
52.5035
66.6656
73.3758
73.3845
66.6913
52.5413
27.4855
31.0712
201.328
177.357
171.991
170.771
170.944
170.948
170.783
172.011
177.386
201.358
305.666
274.583
258.75
248.878
244.264
244.267
248.884
258.76
274.595
305.676
386.271
344.364
316.693
299.345
290.868
290.87
299.349
316.698
344.368
386.274
437.762
384.652
346.046
323.998
313.868
313.868
324
346.048
384.654
437.762
-53.2099
-17.3871
-29.5271
-20.1744
-25.0823
-25.0017
-20.6424
-30.1312
-17.8707
-52.8589
-44.6307
-28.2754
-47.3938
-39.1605
-44.1095
-43.99
-39.4555
-47.2487
-28.3893
-44.1753
-86.5598
-56.6921
-89.4353
-80.6216
-78.1199
-78.111
-80.7489
-89.205
-56.6234
-86.187
-265.631
-140.883
-126.003
-106.67
-90.2499
-90.2488
-106.627
-125.807
-140.828
-265.222
-415.141
-172.937
-77.6857
-47.4909
-31.4808
-31.47
-47.4431
-77.6063
-172.866
-414.817
1863.57
1863.88
1864.19
1864.51
1864.83
1865.16
1865.49
1865.82
1866.15
1866.49
1843.96
1844.28
1844.6
1844.93
1845.26
1845.59
1845.93
1846.27
1846.61
1846.94
1824.36
1824.69
1825.02
1825.35
1825.69
1826.03
1826.37
1826.71
1827.05
1827.4
1804.73
1805.07
1805.4
1805.75
1806.09
1806.44
1806.79
1807.14
1807.49
1807.84
1785.08
1785.42
1785.77
1786.12
1786.48
1786.83
1787.19
1787.55
1787.9
1788.26
1765.4
1765.76
1766.12
1766.48
1766.84
1767.21
1767.58
1767.94
1768.31
1768.67
1745.71
1746.08
1746.45
1746.82
1747.2
1747.57
1747.95
1748.33
1748.7
1749.08
1726
1726.38
1726.77
1727.15
1727.54
1727.93
1728.32
1728.7
1729.09
1729.48
1706.28
1706.68
1707.08
1707.48
1707.88
1708.28
1708.67
1709.07
1709.47
1709.87
1686.55
1686.98
1687.4
1687.81
1688.22
1688.62
1689.02
1689.43
1689.84
1690.27
1666.84
1667.29
1667.73
1668.15
1668.57
1668.98
1669.37
1669.74
1670.19
1670.73
1647.14
1647.64
1648.11
1648.55
1648.98
1649.49
1649.93
1651.17
1651.11
1651.2
1627.51
1628.14
1628.61
1629.1
1629.4
1630.02
1631.04
1632.62
1632.03
1632.14
1608.06
1609.03
1609.15
1610.19
1611.22
1612.05
1612.69
1612.72
1612.68
1613.04
1589.6
1589.82
1590.79
1591.62
1592.12
1592.01
1592.5
1593.03
1593.38
1593.78
1570.5
1570.74
1571.85
1571.44
1572.01
1572.62
1573.12
1573.59
1574.04
1574.49
1550.37
1550.9
1551.33
1551.88
1552.47
1553.05
1553.61
1554.16
1554.69
1555.2
1530.39
1531.03
1531.64
1532.24
1532.86
1533.49
1534.11
1534.72
1535.32
1535.91
1510.43
1511.11
1511.81
1512.5
1513.16
1513.84
1514.52
1515.23
1515.93
1516.58
1490.54
1491.32
1491.91
1492.65
1493.35
1494.09
1494.81
1495.53
1496.52
1497.35
1470.49
1471.23
1472.09
1472.79
1473.46
1474.24
1475.26
1477.5
1478.16
1478.4
1450.52
1451.35
1452.3
1453.06
1455.01
1457.33
1457.09
1457.04
1458.28
1459.1
1430.28
1430.9
1433.18
1434.72
1435.93
1436.92
1436.55
1437.73
1438.78
1439.45
1410.9
1412.44
1413.8
1415.09
1415.86
1415.88
1417.08
1417.9
1419.23
1420.9
1391.15
1392.35
1392.56
1394.62
1395.13
1395.92
1396.87
1397.68
1400.03
1400.02
1369.71
1371.14
1372.32
1373.35
1373.88
1375.52
1376.21
1377.04
1378.31
1379.59
1348.62
1349.44
1350.33
1351.19
1352.96
1354.09
1354
1354.91
1355.96
1357.27
1326.47
1327.23
1328.26
1328.95
1329.74
1330.48
1331.16
1331.78
1332.56
1334.06
1304.14
1304.98
1305.67
1306.3
1306.94
1307.46
1307.9
1308.48
1309.86
1320.38
1281.15
1281.96
1282.66
1283.3
1283.89
1284.38
1285.12
1286.98
1294.45
1295.64
1257.51
1258.59
1259.5
1260.25
1260.93
1261.82
1263.58
1266.78
1269.18
1266.75
1235.86
1236.49
1237.06
1237.55
1238.17
1239.21
1241.34
1242.91
1243.78
1243.71
1214.39
1214.52
1214.67
1214.92
1215.43
1216.63
1218.91
1219.8
1220.02
1219.86
1192.68
1192.35
1192.12
1192.23
1193.32
1194.85
1196.02
1196.74
1196.2
1195.61
1170.3
1169.52
1168.97
1169.45
1172.49
1173.08
1173.7
1174.04
1172.33
1171.5
1147.34
1146.32
1145.57
1146.15
1150.3
1150.93
1149.45
1149.97
1149.09
1147.93
1123.91
1122.93
1122.21
1122.05
1121.22
1122.29
1121.52
1125.19
1125.18
1124.24
1099.67
1098.48
1097.25
1095.88
1093.81
1089.22
1099.13
1093.11
1105.56
1100.86
1075.28
1073.39
1072.53
1069.81
1069.85
1074.64
1079.26
1080.6
1083.39
1088.44
1048.59
1046.82
1049.5
1052.99
1056.14
1059.19
1061.86
1064.58
1061.14
1060.45
1032.82
1034.08
1035.68
1037.99
1040.72
1043.33
1043.81
1044.11
1044.04
1043.11
1020.77
1021.48
1022.72
1024.43
1025.55
1027.2
1027.27
1025.16
1022.48
1019.2
1009.41
1009.51
1010.43
1012.83
1013.58
1009.77
1004.85
1000.83
997.646
994.965
997.41
997.361
994.237
993.024
988.256
983.199
978.987
975.471
972.419
969.706
964.4
962.403
960.075
959.431
957.005
954.244
951.453
948.694
946.053
943.586
932.78
932.107
931.728
930.802
929.196
927.089
924.763
922.307
919.821
917.378
908.159
907.075
906.086
904.756
903.044
901.013
898.744
896.311
893.764
891.151
883.812
882.502
881.105
879.5
877.641
875.525
873.166
870.583
867.794
864.829
859.512
858.13
856.589
854.835
852.827
850.541
847.963
845.084
841.902
838.463
835.756
834.346
832.707
830.805
828.606
826.081
823.199
819.951
816.336
812.347
812.971
811.45
809.666
807.586
805.18
802.407
799.242
795.696
791.685
787.188
791.186
789.546
787.632
785.41
782.846
779.927
776.583
772.777
768.511
763.726
770.545
768.814
766.817
764.52
761.886
758.877
755.507
751.64
747.331
742.605
751.072
749.324
747.32
745.03
742.421
739.46
736.182
732.416
728.246
723.791
732.747
731.072
729.155
726.978
724.521
721.768
718.669
715.185
711.346
707.339
715.415
713.951
712.258
710.342
708.213
705.831
703.162
700.192
697.018
693.442
699.13
697.953
696.591
695.068
693.401
691.561
689.519
687.346
685.046
680.884
683.683
682.891
681.973
680.968
679.909
678.764
677.559
676.4
675.025
670.147
668.786
668.49
668.133
667.766
667.427
667.132
666.902
666.838
666.606
663.03
654.048
654.346
654.667
655.06
655.577
656.25
657.106
658.226
659.36
658.049
638.776
639.84
641.006
642.326
643.866
645.673
647.794
650.337
653.158
654.103
622.693
624.579
626.668
629.022
631.718
634.819
638.407
642.673
647.548
650.475
605.667
608.246
611.181
614.537
618.407
622.884
628.105
634.404
641.859
647.031
587.613
590.578
594.077
598.182
603.04
608.858
615.882
624.689
635.886
645.247
567.77
570.896
574.59
578.888
584.185
590.942
599.262
609.657
623.388
636.841
547.3
550.165
553.282
556.741
561.856
569.038
576.527
583.934
591.366
596.205
527.517
530.325
533.18
536.517
546.941
552.241
559.968
566.373
565.015
560.713
505.253
509.332
513.896
519.516
529.397
534.444
553.163
554.86
556.358
552.428
483.084
487.477
493.008
499.547
508.296
521.508
537.302
545.681
543.759
537.416
456.977
460.994
465.639
474.166
492.352
510.548
518.751
519.648
518.655
511.046
428.216
427.869
427.409
441.929
479.686
482.645
493.121
491.885
484.488
474.823
402.06
398.305
398.941
442.215
447.193
464.158
467.048
459.549
450.245
439.078
380.151
377.227
387.256
414.431
403.081
426.396
432.533
424.282
413.427
400.894
358.589
356.723
375.68
384.072
388.508
404.936
404.733
392.364
378.904
364.547
348.924
351.665
361.183
364.674
371.959
379.392
373.499
359.494
345.007
329.67
342.591
344.37
347.575
348.007
352.182
352.299
342.183
328.182
313.55
297.727
330.675
332.932
339.725
332.257
329.823
325.347
314.361
300.753
285.858
269.576
317.807
330.998
333.577
332.661
321.785
308.036
293.58
278.383
262.157
244.933
318.745
324.985
321.866
315.366
302.942
288.312
273.076
256.99
239.902
221.967
314.837
318.107
313.011
298.314
283.875
269.69
254.164
237.343
219.547
200.998
302.584
301.815
298.944
283.748
267.401
251.599
235.072
217.587
199.491
181.274
292.05
284.189
273.227
260.285
246.215
231.032
214.536
196.703
177.893
158.575
282.977
256.255
247.814
238.739
227.114
212.875
196.491
178.349
158.981
138.725
268.758
261.827
246.946
230.728
215.04
198.631
180.962
162.297
143.386
124.707
261.716
247.306
231.022
214.965
198.419
181.002
162.355
142.98
124.063
106.229
244.223
226.075
211.288
196.093
179.438
161.399
141.619
120.49
98.4119
74.1663
217.338
206.052
191.199
175.6
159.381
141.927
122.639
101.705
78.9458
54.1489
185.354
179.373
166.701
152.912
138.802
123.645
106.93
88.7127
69.3193
52.0658
153.254
150.282
140.489
129.503
118.288
106.361
93.5089
79.9158
67.1192
60.5108
123.108
121.716
114.483
106.157
97.5217
88.3878
78.8953
69.5893
62.7222
61.4395
95.6868
95.2795
90.0827
83.7841
76.895
69.4182
61.6111
53.9876
47.5691
40.2108
73.0245
72.4198
68.2245
63.2547
57.6587
51.3285
44.3514
36.815
27.8639
13.5169
48.6767
50.2875
48.593
45.2326
41.0532
35.899
29.7267
22.6307
13.5299
2.93947
33.0294
34.1902
33.5392
30.8695
27.8434
23.734
18.3126
12.1762
3.73372
-2.06671
19.7584
21.2756
21.6686
19.5264
17.6526
14.5607
10.0917
5.81352
-2.20179
-4.29003
7.36
11.331
13.4046
11.2731
9.81165
7.24817
3.69289
1.96944
-6.11831
-5.79164
11.8148
8.03294
7.49833
4.29291
2.63629
0.520711
-1.92055
-2.98344
-9.90918
-7.54519
-1.83852
-3.62942
-2.37119
-3.54067
-4.56522
-5.82251
-6.96601
-8.50955
-13.1167
-9.54622
-9.10231
-6.48882
-8.25312
-8.93558
-10.5932
-11.2385
-10.5318
-11.383
-10.2811
-11.6751
-23.6672
-0.543074
-13.1016
-13.2902
-16.6214
-16.8507
-13.9536
-14.8834
-2.37194
-23.5732
1866.84
1867.22
1867.6
1867.97
1868.34
1868.72
1869.09
1869.45
1869.81
1870.17
1870.53
1870.88
1871.22
1871.56
1871.89
1872.21
1872.53
1872.83
1873.13
1873.41
1873.69
1873.95
1874.2
1874.46
1874.68
1874.89
1875.09
1875.28
1875.46
1875.63
1875.8
1875.93
1876.03
1876.14
1876.24
1876.32
1876.4
1876.46
1876.49
1876.5
1847.31
1847.69
1848.07
1848.45
1848.82
1849.2
1849.57
1849.93
1850.3
1850.66
1851.01
1851.36
1851.71
1852.05
1852.38
1852.7
1853.02
1853.33
1853.62
1853.91
1854.19
1854.45
1854.71
1854.95
1855.18
1855.42
1855.63
1855.81
1855.98
1856.15
1856.3
1856.44
1856.56
1856.65
1856.73
1856.79
1856.85
1856.89
1856.92
1856.94
1827.76
1828.15
1828.53
1828.92
1829.3
1829.67
1830.04
1830.41
1830.78
1831.14
1831.5
1831.85
1832.2
1832.54
1832.87
1833.2
1833.52
1833.83
1834.13
1834.42
1834.69
1834.96
1835.22
1835.46
1835.69
1835.92
1836.12
1836.3
1836.47
1836.63
1836.77
1836.9
1837.02
1837.11
1837.19
1837.25
1837.31
1837.36
1837.41
1837.45
1808.21
1808.6
1808.99
1809.38
1809.76
1810.14
1810.52
1810.89
1811.26
1811.63
1811.99
1812.34
1812.69
1813.04
1813.37
1813.7
1814.03
1814.34
1814.64
1814.93
1815.21
1815.48
1815.74
1815.99
1816.22
1816.45
1816.66
1816.84
1817.01
1817.16
1817.3
1817.42
1817.52
1817.6
1817.66
1817.69
1817.79
1817.9
1817.96
1818.01
1788.64
1789.04
1789.43
1789.83
1790.22
1790.6
1790.99
1791.36
1791.74
1792.11
1792.47
1792.83
1793.19
1793.54
1793.88
1794.22
1794.54
1794.87
1795.17
1795.46
1795.75
1796.03
1796.29
1796.54
1796.78
1797.01
1797.21
1797.41
1797.58
1797.74
1797.88
1798
1798.1
1798.17
1798.29
1798.92
1798.48
1798.6
1798.64
1798.68
1769.06
1769.47
1769.87
1770.27
1770.67
1771.06
1771.45
1771.84
1772.22
1772.59
1772.97
1773.33
1773.7
1774.05
1774.4
1774.75
1775.08
1775.41
1775.72
1776.02
1776.31
1776.59
1776.86
1777.12
1777.38
1777.6
1777.81
1778.02
1778.21
1778.39
1778.55
1778.69
1778.81
1778.96
1779.27
1779.38
1779.34
1779.33
1779.34
1779.52
1749.48
1749.89
1750.3
1750.71
1751.12
1751.52
1751.92
1752.31
1752.7
1753.09
1753.47
1753.84
1754.21
1754.58
1754.94
1755.29
1755.64
1755.98
1756.3
1756.61
1756.91
1757.2
1757.47
1757.74
1757.99
1758.22
1758.44
1758.65
1758.87
1759.08
1759.27
1759.44
1759.6
1759.82
1760.24
1760.3
1760.29
1760.38
1760.47
1760.53
1729.88
1730.31
1730.73
1731.15
1731.57
1731.99
1732.39
1732.8
1733.19
1733.59
1733.98
1734.36
1734.74
1735.12
1735.5
1735.87
1736.23
1736.57
1736.91
1737.24
1737.55
1737.85
1738.13
1738.4
1738.64
1738.87
1739.07
1739.28
1739.54
1739.82
1740.05
1740.24
1740.42
1740.58
1740.98
1741.1
1741.55
1741.23
1741.51
1741.37
1710.29
1710.73
1711.16
1711.59
1712.03
1712.46
1712.88
1713.29
1713.7
1714.1
1714.5
1714.89
1715.29
1715.68
1716.07
1716.46
1716.83
1717.2
1717.56
1717.91
1718.24
1718.56
1718.86
1719.13
1719.38
1719.59
1719.72
1720.87
1720.37
1720.63
1720.92
1721.11
1721.33
1721.57
1721.8
1721.94
1722.08
1722.22
1722.3
1722.33
1690.71
1691.15
1691.6
1692.09
1692.5
1692.95
1693.38
1693.8
1694.21
1694.62
1695.02
1695.43
1695.84
1696.25
1696.66
1697.06
1697.47
1697.87
1698.25
1698.63
1699
1699.35
1699.69
1700
1700.31
1700.59
1700.92
1702.62
1701.87
1701.86
1702.1
1701.96
1702.1
1702.56
1702.64
1702.91
1703.37
1702.96
1703.21
1703.23
1671.23
1671.97
1672.56
1672.73
1673.09
1673.52
1673.94
1674.35
1674.76
1675.16
1675.56
1675.97
1676.38
1676.8
1677.24
1677.68
1678.12
1678.55
1678.98
1679.4
1679.8
1680.21
1680.59
1680.98
1681.36
1681.78
1682.32
1682.91
1683.09
1683.52
1683.64
1683.46
1683.67
1683.83
1683.83
1684.14
1684.24
1684.11
1684.01
1684.33
1651.88
1652.6
1652.96
1653.28
1653.7
1654.12
1654.53
1654.93
1655.32
1655.71
1656.1
1656.49
1656.9
1657.33
1657.8
1658.29
1658.78
1659.26
1659.73
1660.18
1660.64
1661.08
1661.52
1661.96
1662.39
1663.17
1663.6
1663.92
1664
1665.02
1664.25
1664.72
1664.96
1665.17
1665.24
1665.15
1665.34
1665.38
1665.34
1665.56
1632.65
1633.11
1633.54
1633.97
1634.38
1634.78
1635.17
1635.56
1635.92
1636.28
1636.64
1636.99
1637.36
1637.8
1638.31
1638.92
1639.44
1639.98
1640.5
1641
1641.5
1642
1642.49
1642.99
1643.55
1644.7
1645.17
1644.95
1645.89
1645.65
1645.97
1646.05
1646.09
1646.25
1646.42
1646.44
1646.52
1647.04
1646.97
1646.89
1613.48
1613.9
1614.31
1614.72
1615.11
1615.5
1615.87
1616.23
1616.57
1616.9
1617.22
1617.51
1617.72
1618.17
1618.9
1619.49
1620.15
1620.73
1621.29
1621.83
1622.36
1622.88
1623.4
1623.91
1624.44
1626.18
1626.55
1626.2
1626.75
1626.81
1626.78
1626.97
1627.17
1627.33
1627.46
1627.55
1627.59
1627.78
1627.74
1627.81
1594.21
1594.66
1595.08
1595.5
1595.9
1596.28
1596.65
1597.01
1597.36
1597.69
1598.1
1598.45
1600.06
1602.09
1600.06
1600.48
1601.05
1601.62
1602.18
1602.75
1603.3
1603.81
1604.35
1604.89
1605.44
1606.06
1606.62
1607.08
1607.5
1607.72
1607.96
1608.18
1608.37
1608.51
1608.62
1608.71
1608.78
1608.85
1608.9
1608.94
1574.96
1575.43
1575.89
1576.32
1576.74
1577.12
1577.5
1577.91
1578.35
1578.39
1579.93
1580.91
1581.9
1582.38
1581.23
1581.62
1582.08
1582.58
1583.13
1583.69
1584.24
1584.77
1585.32
1585.89
1586.5
1587.13
1587.73
1588.25
1588.67
1589
1589.25
1589.46
1589.63
1589.75
1589.84
1589.93
1589.97
1590.04
1590.1
1590.18
1555.72
1556.24
1556.73
1557.2
1557.64
1558.06
1558.39
1559.01
1560
1560.74
1561.34
1561.71
1561.44
1561.98
1562.17
1562.53
1562.95
1563.44
1564.03
1564.61
1565.21
1565.73
1566.24
1566.8
1567.49
1568.26
1568.98
1569.59
1570.04
1570.39
1570.65
1570.83
1570.96
1571.04
1571.1
1571.14
1571.18
1571.24
1571.32
1571.49
1536.5
1537.09
1537.64
1538.16
1538.73
1539.31
1539.6
1541.87
1542.62
1539.88
1540.87
1541.66
1542.23
1542.6
1542.92
1543.27
1543.64
1544.2
1544.87
1545.6
1546.26
1546.78
1547.11
1547.42
1548.33
1549.44
1550.45
1551.16
1551.62
1551.95
1552.16
1552.29
1552.35
1552.37
1552.36
1552.33
1552.34
1552.4
1552.53
1552.8
1517.23
1517.93
1518.52
1519.11
1519.5
1520.13
1520.83
1520.91
1521.24
1521.81
1522.49
1522.23
1522.82
1523.26
1523.58
1523.92
1524.26
1524.76
1525.75
1527.19
1528.38
1529.02
1530.45
1534.02
1535.11
1531.85
1532.39
1533.05
1533.45
1533.69
1533.81
1533.84
1533.8
1533.71
1533.57
1533.45
1533.4
1533.47
1533.68
1534.05
1498.29
1498.77
1499.58
1500.13
1500.74
1501.94
1502.34
1502.48
1502.58
1502.65
1502.63
1503.17
1503.47
1503.77
1504.2
1504.68
1505.26
1508.68
1510.71
1511.31
1512.38
1514.13
1515.58
1517.03
1518.2
1516.62
1515.26
1515.54
1515.65
1515.67
1515.6
1515.48
1515.3
1515.06
1514.76
1514.47
1514.32
1514.42
1514.75
1515.28
1479.54
1479.85
1481.7
1482.71
1483.18
1483.34
1482.98
1483.73
1483.95
1483.78
1483.52
1484.12
1484.37
1484.22
1485.1
1486.01
1487.15
1490.95
1493.44
1494.88
1496.28
1497.39
1498.59
1498.59
1498.78
1498.74
1498.36
1498.17
1497.97
1497.73
1497.44
1497.16
1496.85
1496.45
1495.91
1495.37
1495.06
1495.19
1495.8
1496.59
1460.06
1461.67
1461.92
1463.02
1463.6
1464.12
1464.07
1463.98
1464.57
1464.77
1464.59
1464.63
1464.27
1465.16
1466.12
1467.54
1469.47
1471.62
1472.55
1473.65
1476.01
1477.92
1479.36
1480.14
1480.58
1480.78
1480.74
1480.54
1480.21
1479.79
1479.34
1479
1478.73
1478.22
1477.39
1476.97
1477.56
1477.98
1477.77
1479.16
1441.9
1441.55
1443.11
1443.97
1444.3
1444.77
1445.55
1445.63
1445.23
1444.51
1444.32
1444.06
1444.04
1444.67
1445.92
1447.82
1450.23
1451.57
1455.4
1459.39
1457.05
1460.26
1461.7
1462.46
1462.92
1463.19
1463.22
1463.03
1462.65
1462.05
1461.34
1461.12
1461.29
1461.36
1460.8
1461.47
1461.54
1461.66
1461.56
1461.13
1422.13
1422.92
1423.49
1423.66
1424.8
1425.37
1425.38
1425.43
1425.38
1424.88
1423.82
1422.68
1423.16
1425.17
1426.97
1428.43
1430.71
1433.16
1435.24
1436.25
1439.29
1443.6
1444.86
1445.12
1445.28
1445.66
1445.87
1445.89
1445.9
1445.21
1444.41
1447.11
1444.77
1446.39
1447.03
1444.86
1444.71
1446.05
1446.52
1446.32
1402.4
1402.49
1403.23
1404.29
1405.02
1405.72
1406.34
1406.83
1407.18
1407.23
1406.7
1411.33
1417.17
1416.7
1416.12
1416.11
1414.31
1418.94
1417.6
1417.31
1420.7
1426.66
1430.54
1429.15
1428.2
1429.97
1430.93
1430.73
1430.94
1430.97
1430.67
1433.02
1430.13
1430.74
1430.62
1429.74
1430.27
1430.7
1431.3
1431.35
1380.93
1381.58
1383.34
1384.53
1384.34
1385.69
1387.04
1388.42
1389.95
1391.78
1393.96
1401.95
1405.48
1404.87
1403.8
1403.74
1406.4
1407.56
1419.78
1423.71
1426.03
1418
1422.49
1420.01
1423.06
1422.5
1422.3
1422.34
1421.93
1420.72
1420.4
1419.75
1416.89
1414.21
1412.87
1414.21
1416.95
1416.23
1416.67
1415.94
1358.77
1361.44
1363.99
1362.04
1363.1
1364.87
1366.85
1369.03
1371.59
1374.78
1378.78
1383.47
1388.26
1390.54
1394.33
1402.34
1405.14
1407.63
1409.15
1409.72
1410.73
1412.3
1418.61
1420.81
1421.01
1421.2
1421.3
1421.02
1420.86
1420.59
1420.25
1419.7
1418.76
1417.79
1416.69
1411.65
1407.4
1407.22
1401.34
1401.34
1339.39
1341.96
1337.98
1339.21
1340.94
1342.96
1345.12
1347.48
1350.15
1353.23
1356.78
1360.83
1365.74
1371.5
1375.47
1384.3
1396.84
1383.66
1391.25
1393.5
1393.6
1390.79
1388.05
1389.38
1392.12
1394.74
1394.14
1395.25
1397.2
1398.86
1400.8
1402.41
1403.36
1404.91
1406.44
1407.49
1407.58
1405.95
1405.76
1406.02
1318.29
1314.12
1314.99
1316.45
1318.28
1320.32
1322.55
1325.01
1327.93
1330.97
1334.2
1337.68
1341.22
1345.3
1348.87
1351.45
1352.85
1357.07
1361.4
1364.57
1366.55
1367.49
1368.07
1369.38
1371.61
1373.9
1375.69
1377.21
1379.08
1381.72
1384.63
1387.32
1389.88
1392.55
1393.27
1391.3
1391.02
1393.64
1396.2
1396.34
1290.39
1290.6
1291.6
1293.11
1294.92
1296.98
1299.24
1301.75
1304.53
1307.77
1310.93
1314.25
1317.52
1320.94
1324.24
1327.17
1330.25
1333.96
1337.75
1340.97
1343.65
1345.69
1347.58
1349.64
1351.83
1354.03
1356.1
1358.12
1360.26
1362.55
1364.94
1367.47
1369.76
1371.76
1373.22
1374.15
1375.39
1376.67
1376.16
1376.41
1266.76
1267.14
1268.01
1269.89
1271.79
1273.03
1275.3
1277.85
1280.66
1283.71
1286.92
1290.27
1293.81
1297.32
1300.8
1304.21
1307.65
1311.25
1314.85
1318.16
1321.24
1323.97
1326.5
1328.93
1331.38
1333.81
1336.13
1338.38
1340.6
1342.96
1345.26
1347.38
1349.44
1351.43
1353.14
1354.62
1355.9
1356.66
1356.36
1354.53
1243.68
1244.35
1244.32
1246.6
1247.76
1248.84
1250.98
1253.54
1256.47
1259.66
1263.05
1266.59
1270.24
1273.97
1277.69
1281.36
1285.14
1288.72
1292.37
1296.05
1299.49
1302.66
1305.58
1308.6
1311.44
1313.59
1316.04
1318.27
1320.37
1322.36
1324.26
1326.16
1328.16
1330.03
1331.85
1333.55
1334.94
1335.61
1335.24
1333.28
1220.14
1219.91
1221.08
1222.05
1222.98
1223.98
1226.07
1228.74
1232.06
1235.64
1239.35
1243.18
1247.13
1251.18
1255.27
1259.3
1264.01
1267.78
1271.08
1274.87
1278.46
1281.99
1285.28
1288.33
1291.6
1293.89
1296.5
1298.6
1300.25
1301.72
1303.23
1304.69
1306.21
1307.8
1309.61
1311.59
1313.31
1314.13
1314.42
1313.27
1195.63
1195.78
1196.81
1197.47
1197.11
1198.54
1199.57
1202.75
1207.48
1211.88
1215.99
1220.12
1224.37
1228.75
1233.2
1237.57
1242.37
1246.63
1250.59
1254.43
1258.1
1261.7
1265.51
1268.89
1272.17
1275.41
1277.98
1280.11
1282.5
1284.67
1284.57
1284.44
1285.12
1285.94
1287
1289.03
1291.45
1292.92
1292.9
1293.39
1171.36
1171.56
1171.92
1171.33
1170.22
1170.23
1171.99
1184.13
1184.23
1188.46
1193.1
1197.47
1202
1206.65
1211.31
1216.15
1220.87
1225.43
1230.09
1234.42
1238.52
1242.52
1246
1250.01
1253.6
1256.8
1260.13
1263.59
1266.29
1268.6
1271.7
1276.36
1275.13
1274.5
1272.72
1271.48
1271.61
1273.08
1274
1273.72
1146.71
1146.07
1149.14
1153.04
1156.93
1168.84
1173.74
1176.83
1167.76
1169.2
1172.71
1176.45
1180.87
1185.42
1189.95
1194.8
1199.71
1204.65
1209.46
1213.87
1219.15
1222.87
1226.73
1230.91
1234.82
1238.49
1241.98
1245.55
1249.11
1251.99
1254.39
1260.9
1263.84
1262.64
1261.31
1259.65
1258.54
1256.51
1256.55
1257.89
1125.17
1127.59
1136.98
1143.35
1148.38
1152.37
1154.58
1144.35
1143.04
1146.32
1150.05
1154.39
1158.91
1163.62
1168.43
1173.41
1178.53
1183.65
1188.73
1193.66
1198.44
1203.15
1207.75
1212.18
1216.39
1220.36
1224.12
1227.75
1231.23
1234.51
1237.75
1240.68
1242.11
1244.38
1245.45
1245.26
1244.23
1243.17
1241.54
1244.9
1106.69
1115.52
1120
1123.56
1117.45
1122.29
1120.87
1119.06
1120.71
1124.14
1128
1132.2
1136.99
1141.66
1146.67
1151.97
1157.39
1162.87
1168.29
1173.65
1178.89
1184.01
1188.96
1193.71
1198.22
1202.49
1206.52
1210.32
1213.9
1217.24
1220.34
1223.28
1226.4
1229.39
1229.36
1227.52
1231.62
1230.2
1226.22
1232.73
1091.5
1084.79
1086.82
1089.01
1090.13
1092.02
1093.43
1095.2
1097.69
1100.93
1104.82
1109.16
1113.91
1119.02
1124.45
1130.13
1135.99
1141.91
1147.8
1153.65
1159.38
1164.94
1170.29
1175.4
1180.23
1184.78
1189.05
1193.03
1196.74
1200.17
1203.31
1206.18
1208.67
1211.01
1212.8
1213.3
1211.26
1219.8
1213.06
1221.3
1061.83
1063.64
1064.42
1064.61
1065.23
1066.74
1068.87
1071.04
1073.44
1076.67
1080.64
1085.16
1090.18
1095.64
1101.5
1107.68
1114.07
1120.57
1127.07
1133.51
1139.8
1145.88
1151.7
1157.22
1162.42
1167.28
1171.79
1175.96
1179.79
1183.29
1186.42
1189.2
1191.92
1193.73
1195.61
1196.48
1196.29
1209.63
1205.05
1206.02
1041.22
1039.71
1039.03
1039.89
1040.65
1041.55
1043.71
1045.59
1047.93
1051.31
1055.37
1060.06
1065.35
1071.22
1077.62
1084.46
1091.58
1098.82
1106.07
1113.21
1120.16
1126.85
1133.22
1139.23
1144.85
1150.06
1154.87
1159.27
1163.27
1166.9
1170.14
1173.02
1175.59
1178.54
1180.11
1182.25
1183.8
1186.55
1199.83
1191.14
1016.95
1015.88
1015.11
1014.5
1014.93
1015.76
1017.13
1019.08
1021.65
1024.94
1028.94
1033.67
1039.17
1045.47
1052.56
1060.31
1068.43
1076.65
1084.81
1092.8
1100.53
1107.92
1114.92
1121.47
1127.56
1133.17
1138.3
1142.97
1147.18
1150.96
1154.33
1157.3
1159.89
1162.07
1165.03
1166.26
1168.38
1168.66
1191.22
1181.3
993.38
992.554
989.95
989.043
988.918
989.358
990.38
992.005
994.286
997.286
1001.08
1005.74
1011.4
1018.21
1026.2
1035.15
1044.63
1054.15
1063.44
1072.42
1081.03
1089.21
1096.9
1104.05
1110.65
1116.68
1122.16
1127.12
1131.59
1135.59
1139.18
1142.38
1145.22
1147.78
1150.19
1152.95
1154.24
1156.21
1173.34
1167.51
967.323
965.387
963.823
962.779
962.23
962.217
962.767
963.914
965.715
968.275
971.76
976.347
982.173
989.555
999.049
1010.37
1021.81
1032.52
1042.76
1052.64
1062.08
1071
1079.34
1087.07
1094.17
1100.62
1106.47
1111.73
1116.48
1120.74
1124.59
1128.08
1131.25
1134.18
1136.96
1140.93
1143.43
1146.74
1151.41
1154.43
941.224
939.065
937.248
935.807
934.782
934.214
934.147
934.625
935.72
937.574
940.214
943.419
946.624
951.353
963.929
987.158
1005.07
1015.8
1025
1034.59
1044.27
1053.61
1062.41
1070.59
1078.1
1084.95
1091.14
1096.73
1101.77
1106.33
1110.48
1114.31
1117.89
1121.31
1124.69
1128.25
1132.14
1136.39
1140.04
1143.72
914.892
912.431
910.186
908.202
906.54
905.277
904.497
904.28
904.608
905.501
906.662
907.42
908.537
916.809
937.388
967.029
990.013
1003.23
1010.73
1018.38
1027.38
1036.73
1045.78
1054.3
1062.19
1069.4
1075.96
1081.88
1087.24
1092.11
1096.56
1100.7
1104.62
1108.42
1112.22
1116.18
1120.46
1125.29
1130.09
1135.29
888.36
885.427
882.579
879.91
877.552
875.7
874.521
874.192
874.614
875.211
875.697
880.052
892.886
912.388
927.723
942.336
960.755
986.684
996.292
1001.87
1009.76
1019.08
1028.5
1037.48
1045.85
1053.54
1060.54
1066.87
1072.6
1077.81
1082.6
1087.06
1091.3
1095.45
1099.64
1104.02
1108.85
1114.55
1120.94
1126.91
861.542
857.957
854.357
850.889
847.739
845.166
843.483
842.729
841.542
839.61
844.834
861.813
878.699
889.855
897.293
904.51
928.705
958.393
971.092
978.856
988.165
998.74
1009.29
1019.26
1028.47
1036.87
1044.48
1051.34
1057.53
1063.15
1068.3
1073.11
1077.7
1082.23
1086.83
1091.72
1097.25
1104.01
1111.8
1119.33
834.558
830.176
825.608
821.036
816.513
812.132
808.169
804.689
801.263
803.293
818.291
833.417
843.955
853.49
864.11
881.674
906.233
925.148
938.171
950.377
963.187
976.047
988.289
999.61
1009.92
1019.23
1027.58
1035.05
1041.76
1047.82
1053.37
1058.55
1063.51
1068.43
1073.5
1078.96
1085.26
1093.16
1102.34
1111.88
807.755
802.431
796.662
790.419
783.462
775.432
767.263
762.565
764.851
766.22
780.478
791.575
800.893
814.518
830.371
850.464
870.655
888.621
905.591
921.967
937.739
952.664
966.508
979.144
990.543
1000.74
1009.82
1017.9
1025.11
1031.6
1037.52
1043.05
1048.36
1053.67
1059.2
1065.25
1072.37
1081.46
1092.24
1103.66
781.935
775.764
768.95
761.469
752.935
741.964
727.936
717.481
717.417
721.07
734.431
750.442
763.675
777.025
796.066
817.074
838.054
858.284
877.671
896.117
913.532
929.797
944.787
958.415
970.659
981.563
991.225
999.777
1007.38
1014.2
1020.41
1026.21
1031.81
1037.46
1043.42
1050.04
1057.95
1068.23
1080.66
1093.9
758.176
751.865
745.33
738.826
731.227
716.927
691.935
676.69
676.455
681.636
691.328
708.537
740.549
761.093
775.096
793.107
813.232
833.543
853.411
872.546
890.707
907.701
923.369
937.606
950.371
961.702
971.7
980.51
988.31
995.288
1001.64
1007.58
1013.35
1019.24
1025.54
1032.68
1041.36
1052.78
1066.77
1081.69
737.354
731.922
726.921
720.901
707.28
681.02
657.987
653.339
655.106
656.474
656.469
669.056
710.125
739.047
753.734
770.356
789.934
810.34
830.513
850.06
868.666
886.071
902.085
916.582
929.522
940.949
950.97
959.757
967.506
974.423
980.722
986.625
992.392
998.356
1004.89
1012.46
1021.83
1034.32
1049.81
1066.38
719.091
714.107
706.282
689.109
665.115
650.362
646.808
646.07
646.973
646.763
643.8
645.677
663.058
692.823
720.904
744.489
765.959
787.112
807.995
828.098
847.048
864.621
880.651
895.034
907.756
918.892
928.58
937.025
944.447
951.081
957.142
962.801
968.285
974.084
980.71
988.601
998.564
1011.96
1028.72
1046.6
702.666
693.477
674.282
654.529
646.661
645.054
644.396
644.77
645.2
644.734
643.187
643.624
647.243
658.46
681.407
715.455
743.239
765.235
786.474
806.911
825.863
843.149
858.702
872.477
884.511
894.927
903.904
911.692
918.553
924.777
930.53
935.597
940.17
945.576
952.212
960.412
970.872
985.015
1002.8
1021.71
686.183
668.531
651.213
645.097
644.317
644.226
644.425
644.677
644.784
644.619
644.357
644.589
645.348
647.155
657.342
693.504
726.122
747.389
767.382
786.955
804.976
821.17
835.546
848.108
858.935
868.192
876.091
882.925
889.03
894.803
900.068
903.978
907.323
911.762
918.687
927.298
938.215
952.922
971.414
990.908
668.423
651.72
645.379
644.242
644.154
644.257
644.337
644.396
644.418
644.41
644.45
644.585
644.804
645.848
655.307
686.855
714.549
732.459
749.934
767.291
783.253
797.485
809.981
820.751
829.884
837.564
844.005
849.504
854.481
859.723
864.945
872.449
869.356
873.065
880.172
889.218
900.456
915.448
934.246
953.918
656.024
646.265
644.385
643.936
643.93
643.96
643.991
644.037
644.09
644.137
644.191
644.299
644.682
646.316
660.252
685.32
702.516
716.435
731.104
745.506
758.681
770.375
780.515
789.083
796.171
801.976
806.672
810.546
814.135
818.868
824.958
831.312
826.938
830.432
837.398
846.537
857.812
872.719
891.336
910.682
651.973
644.85
643.677
643.419
643.436
643.489
643.566
643.67
643.773
643.856
643.9
644.091
645.026
651.701
665.705
677.404
686.748
697.29
708.614
719.593
729.668
738.596
746.238
752.547
757.578
761.431
764.166
766.072
768.048
771.107
781.287
781.907
781.319
784.429
791.141
799.961
810.918
825.331
843.21
861.758
650.463
643.86
642.925
642.743
642.81
642.939
643.107
643.299
643.455
643.567
643.641
644.21
647.3
653.104
657.101
660.34
665.707
672.89
680.693
688.423
695.732
702.395
708.242
712.89
716.3
718.419
719.426
719.584
720.045
720.152
729.063
726.802
729.494
733.977
741.112
749.967
760.768
774.515
791.129
808.607
648.938
642.666
641.8
641.814
642.014
642.277
642.571
642.844
642.982
643.098
643.393
643.037
640.862
637.561
635.216
635.299
637.752
641.684
646.453
651.705
657.167
662.427
666.69
667.769
665.971
663.408
659.337
655.314
652.815
665.92
664.877
668.081
674.577
681.18
688.996
698.567
709.651
722.69
737.519
753.57
646.507
641.143
640.456
640.697
641.105
641.509
641.803
641.884
641.851
640.996
634.757
625.517
616.27
609.166
604.737
602.573
602.259
603.41
605.757
608.8
611.47
611.938
608.295
601.221
596.318
595.957
600.274
602.956
604.688
603.78
601.325
614.842
622.529
628.67
636.31
647.742
660.048
672.667
685.383
699.163
643.912
639.501
639.078
639.489
640.022
640.158
640.078
639.33
632.702
618.854
604.686
591.326
581.458
573.489
567.252
562.866
560.147
558.898
558.108
556.16
550.414
543.46
545.44
547.957
545.413
545.852
550.336
558.062
563.801
565.392
568.485
586.667
597.83
592.163
589.393
600.888
614.604
626.937
637.494
648.473
642.974
637.274
636.837
636.948
637.062
636.44
629.869
612.905
595.493
578.021
564.407
552.675
541.841
532.299
524.331
517.963
512.682
507.951
501.205
494.608
496.265
497.421
498.876
504.121
509.674
515.346
520.992
526.921
531.37
529.229
545.307
542.981
574.727
566.347
557.507
563.721
575.647
586.538
595.245
603.754
634.853
626.938