/*--------------------------------*- C++ -*----------------------------------*\
  =========                 |
  \\      /  F ield         | OpenFOAM: The Open Source CFD Toolbox
   \\    /   O peration     | Website:  https://openfoam.org
    \\  /    A nd           | Version:  8
     \\/     M anipulation  |
\*---------------------------------------------------------------------------*/
FoamFile
{
    version     2.0;
    format      ascii;
    class       surfaceScalarField;
    location    "4.25";
    object      phi;
}
// * * * * * * * * * * * * * * * * * * * * * * * * * * * * * * * * * * * * * //

dimensions      [0 3 -1 0 0 0 0];

internalField   nonuniform List<scalar> 
18095
(
1.58167e-07
-9.65736e-07
8.0757e-07
1.65224e-07
-1.24819e-06
1.24113e-06
1.22104e-07
-1.24222e-06
1.28534e-06
6.5275e-08
-1.26344e-06
1.32027e-06
-9.89601e-12
-1.28042e-06
1.3457e-06
-6.52929e-08
-1.28042e-06
1.3457e-06
-1.22117e-07
-1.26344e-06
1.32026e-06
-1.65233e-07
-1.24222e-06
1.28533e-06
-1.5817e-07
-1.24819e-06
1.24112e-06
-9.65726e-07
8.07555e-07
1.11001e-07
-1.07674e-06
9.93365e-08
-1.23653e-06
7.27941e-08
-1.21568e-06
4.00026e-08
-1.23065e-06
-6.28854e-12
-1.24041e-06
-4.00142e-08
-1.24041e-06
-7.28033e-08
-1.23065e-06
-9.93438e-08
-1.21568e-06
-1.11006e-07
-1.23653e-06
-1.07673e-06
6.71087e-08
-1.14385e-06
5.26898e-08
-1.22211e-06
4.20834e-08
-1.20507e-06
2.38308e-08
-1.2124e-06
-3.52406e-12
-1.21658e-06
-2.38374e-08
-1.21658e-06
-4.20887e-08
-1.2124e-06
-5.2694e-08
-1.20507e-06
-6.71123e-08
-1.22211e-06
-1.14384e-06
3.95846e-08
-1.18343e-06
2.65912e-08
-1.20911e-06
2.19835e-08
-1.20047e-06
1.25061e-08
-1.20292e-06
-1.53487e-12
-1.20407e-06
-1.2509e-08
-1.20407e-06
-2.19858e-08
-1.20292e-06
-2.65931e-08
-1.20047e-06
-3.95868e-08
-1.20911e-06
-1.18343e-06
1.65688e-08
7.45557e-09
6.9899e-09
4.06884e-09
-2.75914e-13
-4.06935e-09
-6.9903e-09
-7.45583e-09
-1.65695e-08
-1.74515e-07
-1.16437e-06
1.33888e-06
-2.1847e-07
-1.21634e-06
1.2603e-06
-1.64919e-07
-1.21277e-06
1.15922e-06
-8.71856e-08
-1.20409e-06
1.12635e-06
-1.05817e-10
-1.20259e-06
1.11551e-06
8.69763e-08
-1.20258e-06
1.1155e-06
1.6473e-07
-1.20404e-06
1.12629e-06
2.18294e-07
-1.21271e-06
1.15915e-06
1.74341e-07
-1.21625e-06
1.26021e-06
-1.16426e-06
1.3386e-06
-9.32752e-08
-1.07109e-06
-9.58052e-08
-1.21381e-06
-7.92968e-08
-1.22928e-06
-4.42574e-08
-1.23912e-06
-6.07621e-11
-1.24679e-06
4.41405e-08
-1.24678e-06
7.91911e-08
-1.23909e-06
9.57156e-08
-1.22924e-06
9.32231e-08
-1.21376e-06
-1.07103e-06
-5.79657e-08
-1.01312e-06
-5.52057e-08
-1.21657e-06
-4.65328e-08
-1.23795e-06
-2.71495e-08
-1.25851e-06
-3.7157e-11
-1.2739e-06
2.70786e-08
-1.27389e-06
4.64716e-08
-1.25849e-06
5.51604e-08
-1.23792e-06
5.79438e-08
-1.21654e-06
-1.01309e-06
-7.46205e-08
-9.38503e-07
-6.18171e-08
-1.22938e-06
-4.85401e-08
-1.25123e-06
-2.77798e-08
-1.27927e-06
-2.32493e-11
-1.30166e-06
2.77359e-08
-1.30165e-06
4.85035e-08
-1.27925e-06
6.17925e-08
-1.25121e-06
7.46092e-08
-1.22936e-06
-9.38481e-07
-1.30934e-07
-1.19177e-07
-8.50637e-08
-4.40607e-08
-1.51292e-11
4.40324e-08
8.50406e-08
1.19161e-07
1.30926e-07
-3.27645e-08
-9.27689e-07
9.60453e-07
9.17911e-09
-1.34294e-06
1.301e-06
1.1948e-08
-1.27675e-06
1.27399e-06
5.46164e-09
-1.22825e-06
1.23474e-06
-3.24743e-10
-1.22589e-06
1.23168e-06
-6.32602e-09
-1.22579e-06
1.23179e-06
-1.28754e-08
-1.22859e-06
1.23513e-06
-1.13085e-08
-1.27756e-06
1.276e-06
2.8099e-08
-1.34276e-06
1.30335e-06
-9.23763e-07
9.51862e-07
1.63741e-08
-9.44063e-07
2.21912e-08
-1.34876e-06
1.3959e-08
-1.26852e-06
6.82069e-09
-1.22112e-06
-4.91082e-10
-1.21858e-06
-7.83258e-09
-1.21845e-06
-1.51384e-08
-1.22128e-06
-2.41211e-08
-1.26858e-06
-1.80839e-08
-1.3488e-06
-9.41847e-07
2.97608e-08
-9.73824e-07
2.05348e-08
-1.33953e-06
1.18881e-08
-1.25988e-06
6.6268e-09
-1.21585e-06
-3.57988e-10
-1.21159e-06
-7.22724e-09
-1.21158e-06
-1.25877e-08
-1.21592e-06
-2.13541e-08
-1.25981e-06
-3.07053e-08
-1.33945e-06
-9.72553e-07
7.95145e-08
-1.05334e-06
5.23862e-08
-1.31241e-06
3.34192e-08
-1.24091e-06
2.07996e-08
-1.20323e-06
-2.53319e-10
-1.19054e-06
-2.13051e-08
-1.19053e-06
-3.40681e-08
-1.20316e-06
-5.30879e-08
-1.2408e-06
-8.0167e-08
-1.31237e-06
-1.05272e-06
2.85542e-07
2.33433e-07
1.51744e-07
7.48618e-08
-1.65133e-10
-7.52004e-08
-1.52068e-07
-2.33714e-07
-2.85879e-07
1.22898e-07
1.44375e-09
-1.24341e-07
1.21311e-07
1.58645e-09
1.1959e-07
1.72102e-09
1.17743e-07
1.84676e-09
1.15781e-07
1.96184e-09
1.13714e-07
2.06695e-09
1.11553e-07
2.16126e-09
1.09309e-07
2.24386e-09
1.06994e-07
2.31493e-09
2.37397e-09
1.0462e-07
1.23552e-07
2.52701e-09
-1.24635e-07
1.22363e-07
2.77543e-09
1.21072e-07
3.01174e-09
1.19683e-07
3.23576e-09
1.18198e-07
3.44735e-09
1.16619e-07
3.6451e-09
1.14953e-07
3.82701e-09
1.13204e-07
3.99277e-09
1.11378e-07
4.14145e-09
4.27328e-09
1.09478e-07
1.16576e-07
3.75972e-09
-1.17809e-07
1.15267e-07
4.08461e-09
1.13885e-07
4.39299e-09
1.12435e-07
4.68565e-09
1.10921e-07
4.96148e-09
1.09347e-07
5.21973e-09
1.07714e-07
5.45894e-09
1.06029e-07
5.67782e-09
1.04295e-07
5.87551e-09
6.05019e-09
1.02518e-07
1.08892e-07
5.12349e-09
-1.10256e-07
1.07469e-07
5.50765e-09
1.05992e-07
5.87051e-09
1.04464e-07
6.21304e-09
1.02891e-07
6.53485e-09
1.01275e-07
6.83494e-09
9.96228e-08
7.11157e-09
9.79371e-08
7.36336e-09
9.62241e-08
7.58847e-09
7.78591e-09
9.44884e-08
1.0051e-07
6.59742e-09
-1.01984e-07
9.89923e-08
7.02525e-09
9.74351e-08
7.4277e-09
9.58423e-08
7.80582e-09
9.42177e-08
8.15936e-09
9.25656e-08
8.48703e-09
9.08904e-08
8.78672e-09
8.91978e-08
9.0559e-09
8.7494e-08
9.29231e-09
9.49455e-09
8.57854e-08
9.13276e-08
8.17252e-09
-9.29027e-08
8.97252e-08
8.62765e-09
8.80986e-08
9.05436e-09
8.64502e-08
9.45415e-09
8.47829e-08
9.8267e-09
8.31e-08
1.01699e-08
8.14066e-08
1.04801e-08
7.97093e-08
1.07531e-08
7.80166e-08
1.0985e-08
1.11741e-08
7.63372e-08
8.12547e-08
9.84425e-09
-8.29264e-08
7.95742e-08
1.03082e-08
7.78859e-08
1.07427e-08
7.61899e-08
1.11502e-08
7.44867e-08
1.15299e-08
7.27783e-08
1.18782e-08
7.107e-08
1.21886e-08
6.93707e-08
1.24524e-08
6.76934e-08
1.26623e-08
1.28157e-08
6.60518e-08
7.02012e-08
1.16122e-08
-7.19691e-08
6.84469e-08
1.20625e-08
6.6704e-08
1.24857e-08
6.49681e-08
1.28861e-08
6.32354e-08
1.32627e-08
6.1505e-08
1.36087e-08
5.97807e-08
1.39129e-08
5.80766e-08
1.41565e-08
5.64187e-08
1.43202e-08
1.44039e-08
5.48304e-08
5.80687e-08
1.34827e-08
-5.99391e-08
5.62425e-08
1.38887e-08
5.44518e-08
1.42765e-08
5.2684e-08
1.46539e-08
5.09276e-08
1.50191e-08
4.91752e-08
1.53611e-08
4.7423e-08
1.56651e-08
4.56915e-08
1.58881e-08
4.4043e-08
1.59688e-08
1.59155e-08
4.25314e-08
4.47461e-08
1.54744e-08
-4.67378e-08
4.2846e-08
1.57889e-08
4.10106e-08
1.61119e-08
3.92128e-08
1.64518e-08
3.74332e-08
1.67987e-08
3.56541e-08
1.71402e-08
3.38328e-08
1.74864e-08
3.19999e-08
1.77211e-08
3.03092e-08
1.76595e-08
1.73156e-08
2.89091e-08
3.01177e-08
1.76292e-08
-3.22725e-08
2.81343e-08
1.77725e-08
2.62471e-08
1.79991e-08
2.43785e-08
1.83205e-08
2.25323e-08
1.8645e-08
2.0697e-08
1.89756e-08
1.8817e-08
1.93665e-08
1.67252e-08
1.9813e-08
1.481e-08
1.95747e-08
1.85444e-08
1.35812e-08
1.41072e-08
2.00098e-08
-1.64877e-08
1.20228e-08
1.9857e-08
1.00355e-08
1.99864e-08
8.00924e-09
2.03468e-08
5.74926e-09
2.0905e-08
3.8243e-09
2.09006e-08
1.88741e-09
2.13034e-08
-4.791e-10
2.21796e-08
-1.69764e-09
2.07933e-08
1.87561e-08
-1.90927e-09
-3.07726e-09
2.25891e-08
4.97947e-10
-5.1123e-09
2.18919e-08
-7.32571e-09
2.21998e-08
-9.636e-09
2.26571e-08
-1.18971e-08
2.31662e-08
-1.43045e-08
2.3308e-08
-1.57429e-08
2.27418e-08
-1.55987e-08
2.20355e-08
-1.503e-08
2.02246e-08
1.84794e-08
-1.47533e-08
-2.03637e-08
2.58332e-08
1.71196e-08
-2.27124e-08
2.42404e-08
-2.51147e-08
2.4602e-08
-2.71814e-08
2.47238e-08
-2.86572e-08
2.46419e-08
-2.91366e-08
2.37874e-08
-2.9191e-08
2.27963e-08
-2.87868e-08
2.16312e-08
-2.83878e-08
1.98257e-08
1.82176e-08
-2.81259e-08
-3.43975e-08
2.86843e-08
3.15463e-08
-3.82745e-08
2.8117e-08
-4.01918e-08
2.65192e-08
-4.10823e-08
2.56142e-08
-4.19927e-08
2.55523e-08
-4.27933e-08
2.45879e-08
-4.32983e-08
2.33013e-08
-4.34037e-08
2.17367e-08
-4.36447e-08
2.00667e-08
1.83966e-08
-4.38237e-08
-4.96442e-08
3.18325e-08
4.64958e-08
-5.21636e-08
3.06361e-08
-5.46775e-08
2.9033e-08
-5.70565e-08
2.79931e-08
-5.8505e-08
2.70008e-08
-5.97179e-08
2.58008e-08
-6.07643e-08
2.43477e-08
-6.1708e-08
2.26804e-08
-6.25199e-08
2.08786e-08
1.90415e-08
-6.31648e-08
-6.73499e-08
3.42216e-08
6.49606e-08
-7.00235e-08
3.33096e-08
-7.30754e-08
3.20848e-08
-7.58443e-08
3.07619e-08
-7.82801e-08
2.94365e-08
-8.04239e-08
2.79445e-08
-8.23186e-08
2.62424e-08
-8.3985e-08
2.43467e-08
-8.5393e-08
2.22866e-08
2.0137e-08
-8.64885e-08
-8.85729e-08
3.76745e-08
8.51199e-08
-9.2012e-08
3.67485e-08
-9.54836e-08
3.55563e-08
-9.89288e-08
3.42071e-08
-1.02179e-07
3.26866e-08
-1.05195e-07
3.09603e-08
-1.07949e-07
2.89959e-08
-1.10366e-07
2.67645e-08
-1.12382e-07
2.43023e-08
2.17006e-08
-1.13946e-07
-1.13111e-07
4.19966e-08
1.08789e-07
-1.17433e-07
4.10706e-08
-1.21723e-07
3.98468e-08
-1.2593e-07
3.84135e-08
-1.30049e-07
3.68057e-08
-1.33977e-07
3.48886e-08
-1.37614e-07
3.26328e-08
-1.40821e-07
2.99709e-08
-1.43402e-07
2.68833e-08
2.36035e-08
-1.45305e-07
-1.40958e-07
4.72567e-08
1.35698e-07
-1.46148e-07
4.62608e-08
-1.51307e-07
4.50056e-08
-1.56563e-07
4.36692e-08
-1.61846e-07
4.20889e-08
-1.6683e-07
3.98725e-08
-1.71355e-07
3.71571e-08
-1.75635e-07
3.4251e-08
-1.78763e-07
3.0012e-08
2.56263e-08
-1.80786e-07
-1.71441e-07
5.35225e-08
1.65175e-07
-1.77773e-07
5.25928e-08
-1.84282e-07
5.15139e-08
-1.90882e-07
5.02697e-08
-1.97717e-07
4.89242e-08
-2.05008e-07
4.71634e-08
-2.10055e-07
4.22033e-08
-2.13565e-07
3.77618e-08
-2.17253e-07
3.36994e-08
2.83101e-08
-2.19937e-07
-2.04869e-07
6.13221e-08
1.97069e-07
-2.12938e-07
6.06617e-08
-2.21134e-07
5.97104e-08
-2.29779e-07
5.89143e-08
-2.37462e-07
5.66075e-08
-2.43328e-07
5.30302e-08
-2.48529e-07
4.74041e-08
-2.52691e-07
4.19239e-08
-2.5595e-07
3.69584e-08
3.19729e-08
-2.59613e-07
-2.39428e-07
7.06148e-08
2.30135e-07
-2.49147e-07
7.03814e-08
-2.581e-07
6.86634e-08
-2.65726e-07
6.65399e-08
-2.72357e-07
6.32391e-08
-2.77857e-07
5.85297e-08
-2.83476e-07
5.30236e-08
-2.88901e-07
4.73484e-08
-2.93873e-07
4.19303e-08
3.68994e-08
-2.98799e-07
-2.73691e-07
8.08913e-08
2.63414e-07
-2.82834e-07
7.95247e-08
-2.91318e-07
7.71478e-08
-2.98097e-07
7.33187e-08
-3.05397e-07
7.05393e-08
-3.11517e-07
6.46494e-08
-3.17735e-07
5.92418e-08
-3.24547e-07
5.4161e-08
-3.31752e-07
4.91345e-08
4.36269e-08
-3.38479e-07
-3.02531e-07
9.04403e-08
2.92982e-07
-3.11101e-07
8.80954e-08
-3.19528e-07
8.55752e-08
-3.27909e-07
8.16996e-08
-3.34882e-07
7.75123e-08
-3.42748e-07
7.25153e-08
-3.51042e-07
6.75354e-08
-3.59448e-07
6.2567e-08
-3.67965e-07
5.76517e-08
5.17432e-08
-3.76081e-07
-3.26216e-07
9.98735e-08
3.16783e-07
-3.35144e-07
9.70233e-08
-3.43568e-07
9.39999e-08
-3.52396e-07
9.05275e-08
-3.6125e-07
8.63661e-08
-3.70911e-07
8.21761e-08
-3.81209e-07
7.78341e-08
-3.91798e-07
7.31554e-08
-4.02279e-07
6.81333e-08
6.22757e-08
-4.12812e-07
-3.44795e-07
1.09194e-07
3.35474e-07
-3.54191e-07
1.0642e-07
-3.63555e-07
1.03363e-07
-3.73196e-07
1.00169e-07
-3.83658e-07
9.68281e-08
-3.94771e-07
9.32892e-08
-4.06398e-07
8.94611e-08
-4.18747e-07
8.55038e-08
-4.3163e-07
8.10168e-08
7.5318e-08
-4.44673e-07
-3.61235e-07
1.19031e-07
3.51399e-07
-3.71086e-07
1.16272e-07
-3.81067e-07
1.13344e-07
-3.91334e-07
1.10436e-07
-4.02198e-07
1.07692e-07
-4.13809e-07
1.04901e-07
-4.26495e-07
1.02147e-07
-4.4022e-07
9.92292e-08
-4.55036e-07
9.58323e-08
9.11853e-08
-4.70903e-07
-3.75701e-07
1.29347e-07
3.65385e-07
-3.8542e-07
1.25992e-07
-3.95288e-07
1.23211e-07
-4.05526e-07
1.20674e-07
-4.16442e-07
1.18608e-07
-4.28468e-07
1.16927e-07
-4.41757e-07
1.15435e-07
-4.56647e-07
1.1412e-07
-4.73114e-07
1.12299e-07
1.06306e-07
-4.88235e-07
-3.87209e-07
1.38852e-07
3.77704e-07
-3.96359e-07
1.35141e-07
-4.05466e-07
1.32318e-07
-4.15153e-07
1.30361e-07
-4.25818e-07
1.29273e-07
-4.37754e-07
1.28862e-07
-4.51436e-07
1.29118e-07
-4.66609e-07
1.29293e-07
-4.8121e-07
1.269e-07
1.16878e-07
-4.91782e-07
-3.95049e-07
1.4587e-07
3.88031e-07
-4.02275e-07
1.42368e-07
-4.10151e-07
1.40194e-07
-4.19029e-07
1.3924e-07
-4.29162e-07
1.39406e-07
-4.4096e-07
1.4066e-07
-4.54671e-07
1.42829e-07
-4.67705e-07
1.42327e-07
-4.76378e-07
1.35572e-07
1.21665e-07
-4.81164e-07
-3.92396e-07
1.52436e-07
3.8583e-07
-3.99411e-07
1.49383e-07
-4.07201e-07
1.47983e-07
-4.15951e-07
1.4799e-07
-4.25834e-07
1.49289e-07
-4.37502e-07
1.52327e-07
-4.4865e-07
1.53977e-07
-4.56851e-07
1.50528e-07
-4.61986e-07
1.40707e-07
1.26379e-07
-4.667e-07
-3.84022e-07
1.58686e-07
3.77771e-07
-3.91228e-07
1.5659e-07
-3.99401e-07
1.56156e-07
-4.08482e-07
1.57071e-07
-4.18613e-07
1.5942e-07
-4.291e-07
1.62815e-07
-4.37606e-07
1.62483e-07
-4.43229e-07
1.5615e-07
-4.46763e-07
1.44241e-07
1.29968e-07
-4.50353e-07
-3.72895e-07
1.6512e-07
3.66461e-07
-3.80475e-07
1.6417e-07
-3.89099e-07
1.64779e-07
-3.9894e-07
1.66912e-07
-4.09813e-07
1.70293e-07
-4.19086e-07
1.72087e-07
-4.25673e-07
1.69071e-07
-4.29774e-07
1.60251e-07
-4.32314e-07
1.46781e-07
1.33094e-07
-4.3544e-07
-3.62923e-07
1.71691e-07
3.56352e-07
-3.70471e-07
1.71717e-07
-3.78998e-07
1.73307e-07
-3.88746e-07
1.76661e-07
-3.99048e-07
1.80596e-07
-4.07914e-07
1.80953e-07
-4.14458e-07
1.75615e-07
-4.18189e-07
1.63982e-07
-4.21007e-07
1.49599e-07
1.364e-07
-4.24313e-07
-3.57782e-07
1.78381e-07
3.51091e-07
-3.65162e-07
1.79098e-07
-3.7319e-07
1.81335e-07
-3.81772e-07
1.85243e-07
-3.91343e-07
1.90166e-07
-3.97925e-07
1.87536e-07
-4.05665e-07
1.83355e-07
-4.10101e-07
1.68418e-07
-4.14318e-07
1.53817e-07
1.41301e-07
-4.1922e-07
-3.59395e-07
1.85353e-07
3.52423e-07
-3.66957e-07
1.8666e-07
-3.74886e-07
1.89264e-07
-3.82857e-07
1.93214e-07
-3.90264e-07
1.97573e-07
-4.03661e-07
2.00933e-07
-4.12583e-07
1.92276e-07
-4.19044e-07
1.74879e-07
-4.23403e-07
1.58176e-07
1.47888e-07
-4.29989e-07
-3.64396e-07
1.92435e-07
3.57314e-07
-3.72046e-07
1.94311e-07
-3.79782e-07
1.96999e-07
-3.87245e-07
2.00677e-07
-3.95479e-07
2.05807e-07
-4.07192e-07
2.12645e-07
-4.31e-07
2.16085e-07
-4.43775e-07
1.87654e-07
-4.52647e-07
1.67047e-07
1.57668e-07
-4.62428e-07
-3.72122e-07
2.0164e-07
3.62917e-07
-3.84059e-07
2.06248e-07
-3.96441e-07
2.09381e-07
-4.10979e-07
2.15215e-07
-4.29036e-07
2.23864e-07
-4.45275e-07
2.28884e-07
-4.47041e-07
2.17851e-07
-4.53188e-07
1.93802e-07
-4.5432e-07
1.68179e-07
1.4402e-07
-4.40671e-07
-3.75657e-07
2.15046e-07
3.62251e-07
-3.94531e-07
2.25122e-07
-4.17363e-07
2.32212e-07
-4.37505e-07
2.35356e-07
-4.45736e-07
2.32094e-07
-4.37734e-07
2.20882e-07
-4.18575e-07
1.98692e-07
-3.95818e-07
1.71045e-07
-3.77541e-07
1.49902e-07
1.32961e-07
-3.66482e-07
-3.8498e-07
2.34358e-07
3.65668e-07
-4.02056e-07
2.42199e-07
-4.11235e-07
2.4139e-07
-4.0675e-07
2.30871e-07
-3.84954e-07
2.10298e-07
-3.5498e-07
1.90907e-07
-3.29004e-07
1.72716e-07
-3.13872e-07
1.55913e-07
-3.04654e-07
1.40685e-07
1.26108e-07
-2.97802e-07
-3.50268e-07
2.40156e-07
3.44469e-07
-3.47603e-07
2.39534e-07
-3.33177e-07
2.26964e-07
-3.08251e-07
2.05945e-07
-2.86016e-07
1.88062e-07
-2.68686e-07
1.73577e-07
-2.5549e-07
1.5952e-07
-2.46084e-07
1.46506e-07
-2.392e-07
1.33802e-07
1.21336e-07
-2.34428e-07
-2.94356e-07
2.2213e-07
3.12382e-07
-2.69804e-07
2.14981e-07
-2.44117e-07
2.01277e-07
-2.25091e-07
1.86918e-07
-2.11834e-07
1.74805e-07
-2.00987e-07
1.62731e-07
-1.92175e-07
1.50708e-07
-1.84583e-07
1.38914e-07
-1.78254e-07
1.27473e-07
1.16454e-07
-1.73372e-07
-2.46132e-07
1.83534e-07
2.84728e-07
-2.17407e-07
1.86255e-07
-1.95918e-07
1.79789e-07
-1.80087e-07
1.71087e-07
-1.66465e-07
1.61182e-07
-1.54139e-07
1.50406e-07
-1.42887e-07
1.39455e-07
-1.32723e-07
1.28751e-07
-1.2379e-07
1.1854e-07
1.0896e-07
-1.16297e-07
-2.27361e-07
1.67018e-07
2.43877e-07
-2.02255e-07
1.61148e-07
-1.78454e-07
1.55988e-07
-1.56788e-07
1.4942e-07
-1.36708e-07
1.41103e-07
-1.18256e-07
1.31954e-07
-1.01395e-07
1.22594e-07
-8.61104e-08
1.13466e-07
-7.24431e-08
1.04873e-07
9.70155e-08
-6.04985e-08
-1.88289e-07
1.48945e-07
2.06362e-07
-1.68106e-07
1.40964e-07
-1.45918e-07
1.33801e-07
-1.22745e-07
1.26247e-07
-9.98603e-08
1.18218e-07
-7.78664e-08
1.0996e-07
-5.70657e-08
1.01794e-07
-3.76271e-08
9.40275e-08
-1.9687e-08
8.69327e-08
8.07241e-08
-3.3955e-09
-1.44158e-07
1.30142e-07
1.6296e-07
-1.2389e-07
1.20696e-07
-1.01872e-07
1.11782e-07
-7.87631e-08
1.03139e-07
-5.52423e-08
9.46972e-08
-3.18305e-08
8.65478e-08
-8.90393e-09
7.8867e-08
1.32584e-08
7.18651e-08
3.44164e-08
6.57747e-08
6.08194e-08
5.4321e-08
-9.80929e-08
1.10762e-07
1.17474e-07
-7.74273e-08
1.0003e-07
-5.54723e-08
8.98275e-08
-3.24737e-08
8.01403e-08
-8.7638e-09
7.09873e-08
1.53369e-08
6.24472e-08
3.95437e-08
5.46602e-08
6.35882e-08
4.78205e-08
8.71846e-08
4.21781e-08
3.80233e-08
1.09981e-07
-5.42514e-08
9.11821e-08
7.38309e-08
-3.34988e-08
7.92778e-08
-1.1618e-08
6.79467e-08
1.12868e-08
5.72356e-08
3.5072e-08
4.72022e-08
5.95722e-08
3.7947e-08
8.45944e-08
2.96379e-08
1.09883e-07
2.2532e-08
1.3508e-07
1.69814e-08
1.34493e-08
1.59654e-07
-1.42556e-08
7.17884e-08
3.36494e-08
6.19556e-09
5.88267e-08
2.77002e-08
4.64422e-08
5.02359e-08
3.46998e-08
7.37486e-08
2.36895e-08
9.81253e-08
1.35702e-08
1.23138e-07
4.62526e-09
1.48387e-07
-2.71729e-09
1.73271e-07
-7.90173e-09
-1.02748e-08
1.96995e-07
2.17e-08
5.334e-08
-3.2517e-09
4.11812e-08
3.93456e-08
6.17006e-08
2.59228e-08
8.32369e-08
1.31635e-08
1.05682e-07
1.24471e-09
1.28769e-07
-9.51703e-09
1.52019e-07
-1.86243e-08
1.7475e-07
-2.54486e-08
1.9616e-07
-2.93112e-08
-2.95526e-08
2.15438e-07
5.29153e-08
3.64368e-08
-3.60121e-08
7.08208e-08
2.144e-08
8.97002e-08
7.04343e-09
1.09432e-07
-6.56839e-09
1.2972e-07
-1.90429e-08
1.50029e-07
-2.98263e-08
1.69653e-07
-3.82478e-08
1.87792e-07
-4.35883e-08
2.03742e-07
-4.52609e-08
-4.28625e-08
2.17052e-07
7.86764e-08
2.14819e-08
-6.37214e-08
9.45753e-08
5.54109e-09
1.1131e-07
-9.6917e-09
1.28619e-07
-2.38772e-08
1.46037e-07
-3.64605e-08
1.6293e-07
-4.67196e-08
1.78599e-07
-5.39172e-08
1.92462e-07
-5.7451e-08
2.04129e-07
-5.6928e-08
-5.21552e-08
2.13422e-07
9.83746e-08
8.56156e-09
-8.54542e-08
1.12162e-07
-8.2461e-09
1.26653e-07
-2.41829e-08
1.41538e-07
-3.87621e-08
1.56369e-07
-5.12916e-08
1.70651e-07
-6.10022e-08
1.83962e-07
-6.72279e-08
1.96021e-07
-6.95106e-08
2.06717e-07
-6.76236e-08
-6.14863e-08
2.16048e-07
1.11925e-07
-2.4644e-09
-1.00899e-07
1.23767e-07
-2.00885e-08
1.36284e-07
-3.67e-08
1.49249e-07
-5.17275e-08
1.62396e-07
-6.44391e-08
1.755e-07
-7.41067e-08
1.88435e-07
-8.01626e-08
2.01191e-07
-8.22658e-08
2.13812e-07
-8.02445e-08
-7.39811e-08
2.26307e-07
1.19715e-07
-1.18861e-08
-1.10293e-07
1.29904e-07
-3.02779e-08
1.40817e-07
-4.76128e-08
1.52394e-07
-6.33049e-08
1.64601e-07
-7.66463e-08
1.77468e-07
-8.69737e-08
1.91098e-07
-9.37929e-08
2.05636e-07
-9.68033e-08
2.21183e-07
-9.57912e-08
-9.04282e-08
2.3763e-07
1.23078e-07
-1.96468e-08
-1.15318e-07
1.3164e-07
-3.88395e-08
1.4105e-07
-5.70233e-08
1.51397e-07
-7.36519e-08
1.62829e-07
-8.80786e-08
1.75549e-07
-9.9693e-08
1.89792e-07
-1.08037e-07
2.05798e-07
-1.12808e-07
2.23749e-07
-1.13742e-07
-1.10435e-07
2.43755e-07
1.22977e-07
-2.56344e-08
-1.16989e-07
1.29838e-07
-4.57016e-08
1.37677e-07
-6.48618e-08
1.46658e-07
-8.26331e-08
1.57013e-07
-9.84341e-08
1.69015e-07
-1.11696e-07
1.82936e-07
-1.21957e-07
1.99019e-07
-1.28892e-07
2.17527e-07
-1.32251e-07
-1.31804e-07
2.38897e-07
1.20109e-07
-2.99042e-08
-1.15839e-07
1.25326e-07
-5.09193e-08
1.316e-07
-7.11355e-08
1.39099e-07
-9.01333e-08
1.48057e-07
-1.07392e-07
1.58731e-07
-1.2237e-07
1.71351e-07
-1.34577e-07
1.86084e-07
-1.43625e-07
2.03039e-07
-1.49206e-07
-1.5101e-07
2.22245e-07
1.15118e-07
-3.28237e-08
-1.12199e-07
1.19024e-07
-5.48252e-08
1.24003e-07
-7.61142e-08
1.30193e-07
-9.63234e-08
1.37788e-07
-1.14988e-07
1.47008e-07
-1.31589e-07
1.58036e-07
-1.45605e-07
1.70963e-07
-1.56553e-07
1.85722e-07
-1.63966e-07
-1.67263e-07
2.01975e-07
1.08978e-07
-3.49622e-08
-1.0684e-07
1.12064e-07
-5.79116e-08
1.16174e-07
-8.02236e-08
1.21426e-07
-1.01576e-07
1.27999e-07
-1.21562e-07
1.36108e-07
-1.39698e-07
1.45945e-07
-1.55443e-07
1.57617e-07
-1.68224e-07
1.71042e-07
-1.77391e-07
-1.82049e-07
1.85828e-07
1.03394e-07
-3.64339e-08
-1.01922e-07
1.05838e-07
-6.0356e-08
1.09271e-07
-8.36569e-08
1.13796e-07
-1.06101e-07
1.19615e-07
-1.27381e-07
1.27006e-07
-1.47089e-07
1.36273e-07
-1.6471e-07
1.47677e-07
-1.79627e-07
1.61343e-07
-1.91058e-07
-1.9782e-07
1.77115e-07
9.95487e-08
-3.72617e-08
-9.87211e-08
1.01422e-07
-6.22289e-08
1.04251e-07
-8.64865e-08
1.0812e-07
-1.09969e-07
1.13295e-07
-1.32556e-07
1.20208e-07
-1.54003e-07
1.29369e-07
-1.7387e-07
1.41328e-07
-1.91586e-07
1.56754e-07
-2.06484e-07
-2.17458e-07
1.76392e-07
9.79914e-08
-3.82742e-08
-9.69789e-08
1.00044e-07
-6.4281e-08
1.02971e-07
-8.94137e-08
1.06868e-07
-1.13867e-07
1.12174e-07
-1.37862e-07
1.19654e-07
-1.61482e-07
1.3005e-07
-1.84266e-07
1.43949e-07
-2.05486e-07
1.62534e-07
-2.25069e-07
-2.43577e-07
1.88653e-07
9.9337e-08
-4.20117e-08
-9.55994e-08
1.03904e-07
-6.88482e-08
1.09368e-07
-9.48772e-08
1.1607e-07
-1.20569e-07
1.25129e-07
-1.46921e-07
1.38426e-07
-1.74779e-07
1.57037e-07
-2.02877e-07
1.80788e-07
-2.29237e-07
2.10047e-07
-2.54328e-07
-2.81745e-07
2.48215e-07
1.07648e-07
-4.84206e-08
-1.01239e-07
1.15936e-07
-7.71363e-08
1.26608e-07
-1.05549e-07
1.40408e-07
-1.34369e-07
1.59989e-07
-1.66502e-07
1.8932e-07
-2.0411e-07
2.30583e-07
-2.44139e-07
2.81753e-07
-2.80406e-07
3.43058e-07
-3.15633e-07
-3.57893e-07
4.19206e-07
1.16415e-07
-5.51101e-08
-1.09725e-07
1.26874e-07
-8.75953e-08
1.42416e-07
-1.21091e-07
1.65736e-07
-1.57689e-07
1.9999e-07
-2.00756e-07
2.50132e-07
-2.54251e-07
3.15413e-07
-3.09421e-07
3.94508e-07
-3.59501e-07
4.90094e-07
-4.11219e-07
-4.72766e-07
6.04967e-07
1.09693e-07
-6.34635e-08
-1.0134e-07
1.21326e-07
-9.92275e-08
1.40019e-07
-1.39784e-07
1.71394e-07
-1.89064e-07
2.20488e-07
-2.49851e-07
2.86206e-07
-3.19969e-07
3.6858e-07
-3.91794e-07
4.69254e-07
-4.60175e-07
5.92126e-07
-5.34091e-07
-6.05463e-07
7.24823e-07
1.04074e-07
-6.72178e-08
-1.0032e-07
1.11132e-07
-1.06286e-07
1.28115e-07
-1.56766e-07
1.59461e-07
-2.20411e-07
2.11559e-07
-3.01949e-07
2.91989e-07
-4.00398e-07
4.03329e-07
-5.03135e-07
5.33136e-07
-5.89983e-07
6.62242e-07
-6.63197e-07
-7.24486e-07
7.81266e-07
1.0594e-07
-6.44986e-08
-1.08659e-07
1.05888e-07
-1.06233e-07
1.12247e-07
-1.63126e-07
1.33905e-07
-2.42069e-07
2.04501e-07
-3.72544e-07
3.28231e-07
-5.24127e-07
4.63533e-07
-6.38438e-07
5.89876e-07
-7.16325e-07
7.01351e-07
-7.74672e-07
-8.23169e-07
8.00035e-07
1.22663e-07
-5.81904e-08
-1.28971e-07
1.181e-07
-1.01671e-07
1.14239e-07
-1.59265e-07
1.38375e-07
-2.66204e-07
2.61624e-07
-4.95793e-07
4.01396e-07
-6.63899e-07
5.1768e-07
-7.54722e-07
6.20085e-07
-8.1873e-07
7.15282e-07
-8.6987e-07
-9.11862e-07
8.03975e-07
1.48832e-07
-4.68697e-08
-1.60153e-07
1.34753e-07
-8.75916e-08
1.21256e-07
-1.45768e-07
2.06254e-07
-3.51201e-07
3.44868e-07
-6.34408e-07
4.55277e-07
-7.74308e-07
5.52227e-07
-8.51671e-07
6.42741e-07
-9.09245e-07
7.27835e-07
-9.54963e-07
-9.90696e-07
8.06669e-07
1.7444e-07
-2.90487e-08
-1.92261e-07
1.46536e-07
-5.96873e-08
1.09825e-07
-1.09057e-07
2.554e-07
-4.96774e-07
3.8959e-07
-7.68599e-07
4.93595e-07
-8.78313e-07
5.83573e-07
-9.41648e-07
6.64418e-07
-9.90089e-07
7.37934e-07
-1.02848e-06
-1.0571e-06
8.04334e-07
2.06839e-07
-1.79719e-08
-2.17916e-07
1.95341e-07
-4.81874e-08
2.21322e-07
-1.35038e-07
3.69799e-07
-6.45247e-07
4.69691e-07
-8.6849e-07
5.51675e-07
-9.60297e-07
6.2245e-07
-1.01242e-06
6.8581e-07
-1.05345e-06
7.43346e-07
-1.08602e-06
-1.1088e-06
7.9505e-07
1.94146e-07
-2.08269e-09
-2.10035e-07
1.75159e-07
-2.92006e-08
2.94428e-07
-2.54309e-07
4.32528e-07
-7.83343e-07
5.21778e-07
-9.57743e-07
5.86729e-07
-1.02525e-06
6.41553e-07
-1.06725e-06
6.90719e-07
-1.10262e-06
7.35396e-07
-1.13069e-06
-1.1485e-06
7.75097e-07
1.79797e-07
1.16343e-08
-1.93514e-07
1.77914e-07
-2.7314e-08
3.85151e-07
-4.61547e-07
4.98336e-07
-8.96526e-07
5.60581e-07
-1.01999e-06
6.05983e-07
-1.07065e-06
6.46492e-07
-1.10776e-06
6.84104e-07
-1.14023e-06
7.18625e-07
-1.16521e-06
-1.17864e-06
7.48765e-07
1.61988e-07
2.09765e-08
-1.7133e-07
2.28022e-07
-9.33447e-08
4.56037e-07
-6.89563e-07
5.40657e-07
-9.81143e-07
5.81757e-07
-1.06109e-06
6.12679e-07
-1.10157e-06
6.42015e-07
-1.13709e-06
6.70642e-07
-1.16885e-06
6.97197e-07
-1.19177e-06
-1.20104e-06
7.19593e-07
2.04075e-07
1.85557e-08
-2.01654e-07
3.59459e-07
-2.48728e-07
5.34834e-07
-8.64937e-07
5.74545e-07
-1.02085e-06
5.91861e-07
-1.0784e-06
6.09204e-07
-1.11891e-06
6.29782e-07
-1.15767e-06
6.5184e-07
-1.19091e-06
6.72373e-07
-1.2123e-06
-1.21725e-06
6.88583e-07
1.37158e-07
2.75956e-09
-1.21361e-07
4.42594e-07
-5.54161e-07
5.30639e-07
-9.52982e-07
5.55321e-07
-1.04554e-06
5.68484e-07
-1.09157e-06
5.84867e-07
-1.1353e-06
6.04824e-07
-1.17763e-06
6.25288e-07
-1.21138e-06
6.42827e-07
-1.22984e-06
-1.22937e-06
6.54953e-07
2.4423e-07
-8.61539e-08
-1.55316e-07
4.77225e-07
-7.87155e-07
5.1107e-07
-9.86826e-07
5.22665e-07
-1.05713e-06
5.36477e-07
-1.10538e-06
5.55109e-07
-1.15393e-06
5.76044e-07
-1.19856e-06
5.95528e-07
-1.23086e-06
6.1041e-07
-1.24472e-06
-1.2381e-06
6.1914e-07
3.48177e-07
-3.24066e-07
-1.10265e-07
4.48063e-07
-8.87038e-07
4.71732e-07
-1.01049e-06
4.84301e-07
-1.0697e-06
5.01491e-07
-1.12257e-06
5.22911e-07
-1.17535e-06
5.44809e-07
-1.22046e-06
5.63137e-07
-1.24919e-06
5.75188e-07
-1.25678e-06
-1.24301e-06
5.80094e-07
3.76357e-07
-5.77237e-07
-1.23183e-07
4.08045e-07
-9.1873e-07
4.26413e-07
-1.02886e-06
4.44446e-07
-1.08773e-06
4.66317e-07
-1.14444e-06
4.90056e-07
-1.19909e-06
5.11952e-07
-1.24236e-06
5.28586e-07
-1.26582e-06
5.38282e-07
-1.26647e-06
-1.24588e-06
5.41159e-07
3.16966e-07
-7.45745e-07
-1.48453e-07
3.7268e-07
-9.74443e-07
3.94393e-07
-1.05058e-06
4.14273e-07
-1.10761e-06
4.36172e-07
-1.16634e-06
4.58325e-07
-1.22124e-06
4.77201e-07
-1.26123e-06
4.90062e-07
-1.27868e-06
4.96086e-07
-1.2725e-06
-1.24513e-06
4.95336e-07
3.53435e-07
-8.49739e-07
-2.49444e-07
3.66844e-07
-9.87848e-07
3.73397e-07
-1.05713e-06
3.86372e-07
-1.12059e-06
4.04247e-07
-1.18422e-06
4.2292e-07
-1.23991e-06
4.38064e-07
-1.27638e-06
4.47444e-07
-1.28806e-06
4.51066e-07
-1.27612e-06
-1.24291e-06
4.48843e-07
2.95587e-07
-8.65999e-07
-2.79327e-07
3.05333e-07
-9.97591e-07
3.18824e-07
-1.07062e-06
3.37858e-07
-1.13962e-06
3.58687e-07
-1.20505e-06
3.77673e-07
-1.2589e-06
3.91657e-07
-1.29036e-06
4.00209e-07
-1.29661e-06
4.04771e-07
-1.28068e-06
-1.24391e-06
4.05767e-07
2.21582e-07
-8.88557e-07
-1.99024e-07
2.39883e-07
-1.01589e-06
2.62679e-07
-1.09342e-06
2.86267e-07
-1.16321e-06
3.07944e-07
-1.22672e-06
3.25512e-07
-1.27647e-06
3.3738e-07
-1.30223e-06
3.45122e-07
-1.30436e-06
3.5202e-07
-1.28758e-06
-1.25347e-06
3.61585e-07
1.5253e-07
-9.36484e-07
-1.04603e-07
1.82156e-07
-1.04552e-06
2.09277e-07
-1.12054e-06
2.33427e-07
-1.18736e-06
2.53313e-07
-1.24661e-06
2.67157e-07
-1.29031e-06
2.74439e-07
-1.30951e-06
2.77661e-07
-1.30758e-06
2.79921e-07
-1.28984e-06
-1.25756e-06
2.84012e-07
9.86112e-08
-9.85273e-07
-4.98215e-08
1.32061e-07
-1.07897e-06
1.60149e-07
-1.14863e-06
1.83282e-07
-1.21049e-06
2.00313e-07
-1.26364e-06
2.09618e-07
-1.29962e-06
2.12177e-07
-1.31207e-06
2.10844e-07
-1.30625e-06
2.07591e-07
-1.28658e-06
-1.25236e-06
2.02384e-07
6.31934e-08
-1.02702e-06
-2.14517e-08
9.45816e-08
-1.11036e-06
1.20665e-07
-1.17471e-06
1.41474e-07
-1.2313e-06
1.54951e-07
-1.27712e-06
1.59909e-07
-1.30457e-06
1.59153e-07
-1.31131e-06
1.552e-07
-1.30229e-06
1.49184e-07
-1.28057e-06
-1.24145e-06
1.38279e-07
4.18175e-08
-1.06081e-06
-8.01821e-09
6.89295e-08
-1.13747e-06
9.17994e-08
-1.19758e-06
1.09931e-07
-1.24943e-06
1.20001e-07
-1.28719e-06
1.22109e-07
-1.30668e-06
1.20861e-07
-1.31007e-06
1.17799e-07
-1.29923e-06
1.14481e-07
-1.27725e-06
-1.2361e-06
1.09128e-07
2.94198e-08
-1.08878e-06
-1.44955e-09
5.22665e-08
-1.16032e-06
7.1653e-08
-1.21697e-06
8.6801e-08
-1.26458e-06
9.33691e-08
-1.29375e-06
9.3614e-08
-1.30693e-06
9.3448e-08
-1.3099e-06
9.29849e-08
-1.29877e-06
9.54409e-08
-1.27971e-06
-1.24703e-06
1.06377e-07
2.44215e-08
-1.11008e-06
-3.12892e-09
4.18017e-08
-1.1777e-06
5.73027e-08
-1.23247e-06
6.88738e-08
-1.27615e-06
7.14196e-08
-1.2963e-06
6.93202e-08
-1.30483e-06
6.88457e-08
-1.30943e-06
6.81935e-08
-1.29812e-06
7.0458e-08
-1.28197e-06
-1.26326e-06
8.66782e-08
1.9891e-08
-1.128e-06
-1.9699e-09
3.40699e-08
-1.19187e-06
4.68917e-08
-1.24529e-06
5.46072e-08
-1.28387e-06
5.30162e-08
-1.29471e-06
4.81168e-08
-1.29993e-06
4.57315e-08
-1.30704e-06
4.25422e-08
-1.29493e-06
3.74441e-08
-1.27687e-06
-1.26325e-06
3.74439e-08
2.24258e-08
-1.13529e-06
-1.51357e-08
3.14725e-08
-1.20092e-06
4.08004e-08
-1.25462e-06
4.35379e-08
-1.28661e-06
3.80437e-08
-1.28922e-06
3.0632e-08
-1.29252e-06
2.60324e-08
-1.30244e-06
2.17576e-08
-1.29065e-06
1.08618e-08
-1.26598e-06
-1.25097e-06
-1.42369e-09
2.15812e-08
-1.14162e-06
-1.52518e-08
2.80918e-08
-1.20743e-06
3.57411e-08
-1.26226e-06
3.41462e-08
-1.28501e-06
2.60099e-08
-1.28108e-06
1.66666e-08
-1.28317e-06
9.33592e-09
-1.29511e-06
5.74317e-09
-1.28706e-06
-8.22188e-09
-1.25201e-06
-1.23068e-06
-2.85156e-08
2.07822e-08
-1.15421e-06
-8.19088e-09
2.64578e-08
-1.21311e-06
3.30334e-08
-1.26884e-06
2.70309e-08
-1.27901e-06
1.70462e-08
-1.27109e-06
6.54597e-09
-1.27267e-06
-3.18265e-09
-1.28538e-06
-5.30732e-09
-1.28493e-06
-1.90554e-08
-1.23826e-06
-1.20351e-06
-4.6219e-08
2.72608e-08
-1.14101e-06
-4.04626e-08
2.66274e-08
-1.21247e-06
3.0352e-08
-1.27256e-06
2.04033e-08
-1.26906e-06
9.73768e-09
-1.26043e-06
-1.1287e-09
-1.26181e-06
-1.29477e-08
-1.27356e-06
-1.24968e-08
-1.28538e-06
-2.12241e-08
-1.22953e-06
-1.16757e-06
-5.71678e-08
7.29971e-09
-1.11847e-06
-2.98366e-08
1.88489e-08
-1.22402e-06
2.51164e-08
-1.27883e-06
1.45561e-08
-1.2585e-06
4.39978e-09
-1.25027e-06
-6.36936e-09
-1.25104e-06
-1.93735e-08
-1.26056e-06
-1.80027e-08
-1.28676e-06
-1.41258e-08
-1.23341e-06
-1.12002e-06
-6.16738e-08
-6.50868e-09
-1.06287e-06
-4.90967e-08
2.26396e-08
-1.25317e-06
2.48139e-08
-1.28101e-06
1.21206e-08
-1.24581e-06
1.73288e-09
-1.23988e-06
-9.07596e-09
-1.24023e-06
-2.29404e-08
-1.24669e-06
-2.47271e-08
-1.28497e-06
7.05936e-10
-1.25884e-06
-1.0544e-06
-6.49175e-08
-2.12026e-08
-8.12092e-08
2.66261e-08
1.96058e-08
8.54037e-09
3.33126e-10