/*--------------------------------*- C++ -*----------------------------------*\
  =========                 |
  \\      /  F ield         | OpenFOAM: The Open Source CFD Toolbox
   \\    /   O peration     | Website:  https://openfoam.org
    \\  /    A nd           | Version:  8
     \\/     M anipulation  |
\*---------------------------------------------------------------------------*/
FoamFile
{
    version     2.0;
    format      ascii;
    class       volVectorField;
    location    "4.25";
    object      U;
}
// * * * * * * * * * * * * * * * * * * * * * * * * * * * * * * * * * * * * * //

dimensions      [0 1 -1 0 0 0 0];

internalField   nonuniform List<vector> 
9150
(
(0.0538832 -0.428642 0)
(0.087973 -0.622225 0)
(0.0730249 -0.631445 0)
(0.0486336 -0.643704 0)
(0.0170212 -0.654408 0)
(-0.0170309 -0.654407 0)
(-0.0486415 -0.643701 0)
(-0.0730305 -0.631442 0)
(-0.0879761 -0.622223 0)
(-0.0538842 -0.428636 0)
(0.0409365 -0.522964 0)
(0.0574539 -0.625696 0)
(0.0419914 -0.613214 0)
(0.0294106 -0.622445 0)
(0.0104725 -0.628839 0)
(-0.0104787 -0.628838 0)
(-0.0294158 -0.622443 0)
(-0.0419955 -0.613212 0)
(-0.0574569 -0.625695 0)
(-0.0409379 -0.52296 0)
(0.025368 -0.558061 0)
(0.032501 -0.613781 0)
(0.0229141 -0.604469 0)
(0.0172775 -0.60999 0)
(0.00623222 -0.613175 0)
(-0.0062357 -0.613175 0)
(-0.0172805 -0.609989 0)
(-0.0229163 -0.604468 0)
(-0.032503 -0.613782 0)
(-0.0253692 -0.558059 0)
(0.0154404 -0.584802 0)
(0.0174694 -0.607437 0)
(0.0116566 -0.601136 0)
(0.00888477 -0.603286 0)
(0.00323692 -0.60439 0)
(-0.00323842 -0.60439 0)
(-0.00888608 -0.603285 0)
(-0.0116575 -0.601136 0)
(-0.0174705 -0.607437 0)
(-0.0154411 -0.584801 0)
(0.00629546 -0.597183 0)
(0.00555646 -0.601379 0)
(0.00355253 -0.600039 0)
(0.00268266 -0.600349 0)
(0.000992731 -0.600481 0)
(-0.000992981 -0.600481 0)
(-0.00268287 -0.600349 0)
(-0.00355269 -0.600039 0)
(-0.00555673 -0.601379 0)
(-0.00629567 -0.597183 0)
(0.470125 -1.16314 1.46918e-24)
(0.2829 -1.08606 0)
(0.163327 -1.06945 0)
(0.0922973 -1.05775 0)
(0.0303454 -1.05301 0)
(-0.0304508 -1.05299 0)
(-0.0923926 -1.05771 0)
(-0.163407 -1.06938 0)
(-0.282961 -1.08597 0)
(-0.470104 -1.16301 -1.46778e-24)
(0.334254 -0.84437 4.01229e-25)
(0.287079 -0.936946 0)
(0.188214 -0.936879 0)
(0.108243 -0.936757 0)
(0.0357123 -0.939098 0)
(-0.0357726 -0.939087 0)
(-0.108295 -0.936728 0)
(-0.188256 -0.936838 0)
(-0.287094 -0.936894 0)
(-0.334237 -0.844301 -4.00994e-25)
(0.279511 -0.702815 6.95332e-26)
(0.259059 -0.804832 0)
(0.178056 -0.817602 0)
(0.104644 -0.828354 0)
(0.0348314 -0.836439 0)
(-0.0348682 -0.836433 0)
(-0.104676 -0.828337 0)
(-0.178078 -0.817578 0)
(-0.259065 -0.804806 0)
(-0.279505 -0.702785 -6.94852e-26)
(0.200482 -0.554489 2.43288e-25)
(0.216849 -0.709485 0)
(0.15423 -0.725888 0)
(0.0913864 -0.74199 0)
(0.0305321 -0.753892 0)
(-0.0305551 -0.753888 0)
(-0.0914055 -0.741979 0)
(-0.154243 -0.725876 0)
(-0.216853 -0.709472 0)
(-0.200479 -0.554472 -2.43282e-25)
(0.119161 -0.445055 -4.06109e-25)
(0.15667 -0.644191 -5.83597e-25)
(0.116646 -0.663749 -1.96861e-25)
(0.0709329 -0.681162 -1.2906e-25)
(0.0239479 -0.69416 -7.39119e-27)
(-0.0239628 -0.694158 -7.39676e-27)
(-0.0709451 -0.681156 -1.29073e-25)
(-0.116654 -0.663743 -1.96864e-25)
(-0.156673 -0.644185 -5.83587e-25)
(-0.119161 -0.445045 -4.06096e-25)
(0.0242459 -0.910547 0)
(-0.0325517 -1.34254 0)
(0.0255166 -1.27345 0)
(-0.00385315 -1.22758 0)
(0.00439778 -1.2261 0)
(-0.00449682 -1.22607 0)
(0.00321726 -1.228 0)
(-0.0260833 -1.2746 0)
(0.0309004 -1.34226 0)
(-0.025554 -0.904979 0)
(0.0502228 -0.90474 0)
(-0.0198777 -1.33519 0)
(0.0247624 -1.27176 0)
(0.000345724 -1.225 0)
(0.00127411 -1.22399 0)
(-0.00151828 -1.22388 0)
(-0.00110232 -1.22524 0)
(-0.0252825 -1.27214 0)
(0.0187762 -1.33537 0)
(-0.0511901 -0.902134 0)
(0.0770988 -0.942676 0)
(-0.022254 -1.34904 0)
(0.0183292 -1.27612 0)
(0.00513534 -1.23147 0)
(-0.000327739 -1.22703 0)
(5.19916e-05 -1.22699 0)
(-0.00566025 -1.23155 0)
(-0.0186345 -1.27607 0)
(0.0215037 -1.34896 0)
(-0.0774934 -0.940944 0)
(0.142977 -1.07771 0)
(0.00175428 -1.36663 0)
(0.0161759 -1.2722 0)
(0.0215443 -1.22614 0)
(0.00549471 -1.21464 0)
(-0.00577488 -1.21463 0)
(-0.0218391 -1.22611 0)
(-0.0163413 -1.27213 0)
(-0.0022731 -1.36659 0)
(-0.143188 -1.07685 0)
(0.297366 -1.21948 0)
(0.125257 -1.32224 0)
(0.0690873 -1.21079 0)
(0.0564501 -1.16919 0)
(0.0199395 -1.15655 0)
(-0.020116 -1.15653 0)
(-0.0565974 -1.16913 0)
(-0.0692388 -1.21069 0)
(-0.125502 -1.32216 0)
(-0.297393 -1.21912 0)
(0.0618313 0.000896577 0)
(0.0610711 0.000998163 0)
(0.0602426 0.00109265 0)
(0.0593497 0.00117923 0)
(0.0583966 0.0012561 0)
(0.057388 0.00132377 0)
(0.0563294 0.001382 0)
(0.0552266 0.00143025 0)
(0.0540854 0.00146878 0)
(0.0529117 0.00149772 0)
(0.0620617 0.00199264 0)
(0.0614925 0.00219473 0)
(0.0608721 0.00238643 0)
(0.0602018 0.00256725 0)
(0.0594828 0.00273651 0)
(0.0587164 0.0028936 0)
(0.0579047 0.00303703 0)
(0.0570503 0.00316621 0)
(0.0561558 0.00328077 0)
(0.0552239 0.00338091 0)
(0.0586069 0.0030982 0)
(0.0579704 0.00339027 0)
(0.0572972 0.00366852 0)
(0.056589 0.00393315 0)
(0.0558475 0.00418342 0)
(0.0550748 0.00441818 0)
(0.0542726 0.00463572 0)
(0.0534428 0.00483511 0)
(0.0525875 0.00501543 0)
(0.0517093 0.0051757 0)
(0.0547956 0.00441366 0)
(0.0540979 0.00477185 0)
(0.0533721 0.00511103 0)
(0.0526203 0.00543208 0)
(0.0518446 0.00573438 0)
(0.0510469 0.00601706 0)
(0.0502293 0.0062786 0)
(0.0493941 0.00651777 0)
(0.0485439 0.00673318 0)
(0.0476812 0.00692352 0)
(0.0506299 0.0058333 0)
(0.0498812 0.00624321 0)
(0.0491118 0.00662957 0)
(0.0483238 0.00699339 0)
(0.047519 0.00733439 0)
(0.0466993 0.00765153 0)
(0.0458668 0.00794304 0)
(0.0450241 0.00820707 0)
(0.0441744 0.00844173 0)
(0.0433206 0.00864582 0)
(0.0460618 0.00735953 0)
(0.0452668 0.00780528 0)
(0.044459 0.00822375 0)
(0.0436399 0.0086162 0)
(0.0428107 0.00898236 0)
(0.0419726 0.0093207 0)
(0.0411278 0.00962865 0)
(0.0402792 0.00990311 0)
(0.0394308 0.0101413 0)
(0.0385869 0.0103417 0)
(0.0410472 0.00898358 0)
(0.0402086 0.00944803 0)
(0.0393662 0.00988296 0)
(0.03852 0.0102902 0)
(0.0376701 0.0106693 0)
(0.0368169 0.0110175 0)
(0.0359618 0.0113303 0)
(0.0351085 0.0116021 0)
(0.0342628 0.0118278 0)
(0.0334319 0.0120054 0)
(0.0355416 0.0107029 0)
(0.0346608 0.0111661 0)
(0.0337867 0.0116002 0)
(0.0329175 0.012008 0)
(0.0320507 0.0123887 0)
(0.0311848 0.0127375 0)
(0.03032 0.0130462 0)
(0.0294605 0.0133026 0)
(0.0286171 0.0134961 0)
(0.0278035 0.0136252 0)
(0.0294971 0.0125193 0)
(0.0285731 0.012956 0)
(0.02767 0.0133682 0)
(0.0267818 0.0137614 0)
(0.0259021 0.0141342 0)
(0.0250256 0.0144785 0)
(0.0241484 0.0147799 0)
(0.0232727 0.015012 0)
(0.0224206 0.0151448 0)
(0.0216266 0.0151796 0)
(0.0228604 0.0144438 0)
(0.0218885 0.0148178 0)
(0.0209577 0.0151812 0)
(0.0200527 0.0155433 0)
(0.0191608 0.0159001 0)
(0.0182731 0.0162387 0)
(0.0173742 0.0165462 0)
(0.0164517 0.0167716 0)
(0.0155521 0.0168001 0)
(0.0147708 0.0166334 0)
(0.0155774 0.0165004 0)
(0.0145471 0.0167512 0)
(0.013587 0.0170295 0)
(0.0126547 0.0173468 0)
(0.0117273 0.0176849 0)
(0.0108112 0.0179997 0)
(0.00988633 0.0183612 0)
(0.00887303 0.0187624 0)
(0.00783506 0.018661 0)
(0.00704057 0.0180346 0)
(0.00761065 0.0187461 0)
(0.00651046 0.0187648 0)
(0.00551267 0.018952 0)
(0.00451004 0.0192657 0)
(0.00344366 0.0196922 0)
(0.00239239 0.0199222 0)
(0.00140264 0.0204452 0)
(0.000273581 0.0212158 0)
(-0.000644908 0.0204489 0)
(-0.000987417 0.0189007 0)
(-0.000971475 0.0212369 0)
(-0.00208926 0.0207852 0)
(-0.00311454 0.021061 0)
(-0.00422913 0.0215378 0)
(-0.00540863 0.0221536 0)
(-0.00661862 0.0223137 0)
(-0.00758607 0.0223233 0)
(-0.00792072 0.0223937 0)
(-0.00772406 0.0207321 0)
(-0.00745938 0.0187421 0)
(-0.00939454 0.0241675 0)
(-0.0108075 0.0230616 0)
(-0.0120127 0.0234164 0)
(-0.0131253 0.0238276 0)
(-0.0140146 0.0241216 0)
(-0.0145193 0.0237263 0)
(-0.0146603 0.0228608 0)
(-0.0145386 0.0218156 0)
(-0.0142973 0.0199445 0)
(-0.0141189 0.0182461 0)
(-0.0165133 0.0273192 0)
(-0.0182087 0.0261732 0)
(-0.0196699 0.0255235 0)
(-0.0204039 0.025149 0)
(-0.0208309 0.0250306 0)
(-0.02123 0.0240914 0)
(-0.0215452 0.0228925 0)
(-0.0216935 0.021518 0)
(-0.0217667 0.0197942 0)
(-0.0218725 0.0181759 0)
(-0.0240141 0.0302898 0)
(-0.0254488 0.0293687 0)
(-0.0267764 0.0277193 0)
(-0.0279902 0.0266213 0)
(-0.0289306 0.0260558 0)
(-0.0295899 0.0250011 0)
(-0.0301428 0.0236437 0)
(-0.030634 0.0220469 0)
(-0.0310726 0.0203242 0)
(-0.0314452 0.0186068 0)
(-0.0330731 0.0329138 0)
(-0.0343446 0.0318873 0)
(-0.035782 0.0304405 0)
(-0.0372541 0.0292139 0)
(-0.0385687 0.0280388 0)
(-0.0397074 0.0266626 0)
(-0.0407143 0.02509 0)
(-0.0416061 0.0233286 0)
(-0.0423791 0.021432 0)
(-0.0430113 0.0194739 0)
(-0.0434266 0.0357549 0)
(-0.0451412 0.0348302 0)
(-0.046877 0.0336289 0)
(-0.0486193 0.0323039 0)
(-0.050301 0.0308644 0)
(-0.0518739 0.0292424 0)
(-0.0533222 0.0274154 0)
(-0.0546228 0.0253737 0)
(-0.0557398 0.0231479 0)
(-0.0566406 0.020811 0)
(-0.0554762 0.0396165 0)
(-0.0576371 0.0386974 0)
(-0.0597924 0.0374957 0)
(-0.0619229 0.0360955 0)
(-0.0640135 0.0345155 0)
(-0.0660379 0.0326879 0)
(-0.067942 0.0305856 0)
(-0.0696688 0.0281871 0)
(-0.0711323 0.0254554 0)
(-0.0722636 0.0225702 0)
(-0.0691633 0.0443976 0)
(-0.0717761 0.0434213 0)
(-0.0743626 0.0421574 0)
(-0.0769672 0.0407225 0)
(-0.0796105 0.0390866 0)
(-0.0822135 0.0370823 0)
(-0.0846242 0.0346434 0)
(-0.0868327 0.0319587 0)
(-0.0886901 0.0284145 0)
(-0.0899937 0.0246027 0)
(-0.084147 0.0500735 0)
(-0.087292 0.0490616 0)
(-0.0904903 0.0478434 0)
(-0.0937765 0.0465432 0)
(-0.097189 0.0451496 0)
(-0.100763 0.0433447 0)
(-0.103861 0.0397627 0)
(-0.106048 0.0360776 0)
(-0.107818 0.0317717 0)
(-0.109381 0.026809 0)
(-0.100459 0.057 0)
(-0.104435 0.0562088 0)
(-0.108529 0.055299 0)
(-0.112745 0.0545479 0)
(-0.116879 0.052944 0)
(-0.120331 0.050182 0)
(-0.123152 0.0447281 0)
(-0.125384 0.0396526 0)
(-0.127209 0.0350772 0)
(-0.128954 0.0298444 0)
(-0.117384 0.0656743 0)
(-0.122136 0.0654287 0)
(-0.126894 0.0642828 0)
(-0.131079 0.0627517 0)
(-0.134622 0.0600569 0)
(-0.137683 0.0557793 0)
(-0.140408 0.0500013 0)
(-0.143088 0.0442893 0)
(-0.145675 0.0390337 0)
(-0.148195 0.0340238 0)
(-0.13433 0.0757746 0)
(-0.139245 0.0749832 0)
(-0.143649 0.0730046 0)
(-0.147456 0.0699949 0)
(-0.15098 0.0666742 0)
(-0.154249 0.0613067 0)
(-0.157268 0.0558307 0)
(-0.16054 0.0504293 0)
(-0.164091 0.045215 0)
(-0.167594 0.0398626 0)
(-0.148964 0.0858111 0)
(-0.153491 0.083917 0)
(-0.15778 0.0812148 0)
(-0.161896 0.0773643 0)
(-0.165678 0.0737233 0)
(-0.169366 0.0682267 0)
(-0.173395 0.0629261 0)
(-0.177622 0.0578797 0)
(-0.181836 0.0529293 0)
(-0.186002 0.0472774 0)
(-0.160872 0.0951173 0)
(-0.165383 0.0924861 0)
(-0.169672 0.089663 0)
(-0.173957 0.0858237 0)
(-0.178338 0.0815846 0)
(-0.182962 0.076911 0)
(-0.188007 0.0722174 0)
(-0.193234 0.0673627 0)
(-0.1985 0.0623104 0)
(-0.203778 0.0563545 0)
(-0.170073 0.104465 0)
(-0.174747 0.101576 0)
(-0.179413 0.0985133 0)
(-0.184118 0.0951371 0)
(-0.189119 0.0913855 0)
(-0.194544 0.0874665 0)
(-0.200225 0.0833326 0)
(-0.206206 0.078911 0)
(-0.212563 0.0740015 0)
(-0.219089 0.0681291 0)
(-0.178175 0.113997 0)
(-0.183077 0.111244 0)
(-0.188009 0.108281 0)
(-0.193039 0.105235 0)
(-0.198294 0.102165 0)
(-0.203892 0.0989604 0)
(-0.209943 0.095565 0)
(-0.216589 0.0919822 0)
(-0.223768 0.0879629 0)
(-0.231404 0.0830443 0)
(-0.185329 0.124181 0)
(-0.190299 0.121207 0)
(-0.195162 0.118356 0)
(-0.200132 0.115615 0)
(-0.205368 0.113154 0)
(-0.211079 0.110834 0)
(-0.217458 0.10864 0)
(-0.22449 0.106519 0)
(-0.232216 0.104258 0)
(-0.240489 0.0995435 0)
(-0.19135 0.134472 0)
(-0.195911 0.13092 0)
(-0.200406 0.12804 0)
(-0.205053 0.125708 0)
(-0.210105 0.124048 0)
(-0.215795 0.122951 0)
(-0.222099 0.12239 0)
(-0.229307 0.122112 0)
(-0.237161 0.120583 0)
(-0.24375 0.112605 0)
(-0.195802 0.142779 0)
(-0.199271 0.13904 0)
(-0.203005 0.136455 0)
(-0.207164 0.134939 0)
(-0.211938 0.134459 0)
(-0.217329 0.134957 0)
(-0.223736 0.136305 0)
(-0.23083 0.136706 0)
(-0.236355 0.132282 0)
(-0.239774 0.119817 0)
(-0.194423 0.149313 0)
(-0.197852 0.145891 0)
(-0.201549 0.144049 0)
(-0.2057 0.143588 0)
(-0.210321 0.144413 0)
(-0.215634 0.146658 0)
(-0.221669 0.149014 0)
(-0.226717 0.147202 0)
(-0.229963 0.138682 0)
(-0.23237 0.124319 0)
(-0.190275 0.155589 0)
(-0.193682 0.152915 0)
(-0.197563 0.151955 0)
(-0.20191 0.152439 0)
(-0.206602 0.154335 0)
(-0.211947 0.157798 0)
(-0.217018 0.158783 0)
(-0.220454 0.153876 0)
(-0.222696 0.142807 0)
(-0.224327 0.128445 0)
(-0.184655 0.161851 0)
(-0.188208 0.160323 0)
(-0.192321 0.160403 0)
(-0.196873 0.161873 0)
(-0.202106 0.164752 0)
(-0.20745 0.167632 0)
(-0.211533 0.166018 0)
(-0.214069 0.158412 0)
(-0.215731 0.145587 0)
(-0.216889 0.131633 0)
(-0.179673 0.168375 0)
(-0.183274 0.16798 0)
(-0.187288 0.169114 0)
(-0.191703 0.171869 0)
(-0.196966 0.175697 0)
(-0.202032 0.176596 0)
(-0.205798 0.172545 0)
(-0.208469 0.162091 0)
(-0.209942 0.147972 0)
(-0.211215 0.134511 0)
(-0.177116 0.174985 0)
(-0.180702 0.175423 0)
(-0.184574 0.177447 0)
(-0.188581 0.181273 0)
(-0.19314 0.185782 0)
(-0.197423 0.184606 0)
(-0.201252 0.179619 0)
(-0.20424 0.166014 0)
(-0.206062 0.151468 0)
(-0.208192 0.138401 0)
(-0.177868 0.181822 0)
(-0.181555 0.182884 0)
(-0.185483 0.185437 0)
(-0.189292 0.189507 0)
(-0.193033 0.193767 0)
(-0.198579 0.193138 0)
(-0.204251 0.185899 0)
(-0.208126 0.170675 0)
(-0.210799 0.155112 0)
(-0.213368 0.143852 0)
(-0.180313 0.188804 0)
(-0.184061 0.190389 0)
(-0.187962 0.192859 0)
(-0.191771 0.196205 0)
(-0.195429 0.200509 0)
(-0.2001 0.20486 0)
(-0.209763 0.200203 0)
(-0.219173 0.179099 0)
(-0.224175 0.163376 0)
(-0.228764 0.154494 0)
(-0.18348 0.196492 0)
(-0.18893 0.198701 0)
(-0.195118 0.201145 0)
(-0.201639 0.205882 0)
(-0.209547 0.213594 0)
(-0.218989 0.223638 0)
(-0.224577 0.224821 0)
(-0.22542 0.197742 0)
(-0.227327 0.172665 0)
(-0.224975 0.154597 0)
(-0.184014 0.206195 0)
(-0.191817 0.212974 0)
(-0.202691 0.219046 0)
(-0.214578 0.226844 0)
(-0.222657 0.233988 0)
(-0.22248 0.23244 0)
(-0.215276 0.214599 0)
(-0.203236 0.184543 0)
(-0.192243 0.158696 0)
(-0.185771 0.137651 0)
(-0.187641 0.22431 0)
(-0.197623 0.237328 0)
(-0.204676 0.243493 0)
(-0.206211 0.24054 0)
(-0.1997 0.225642 0)
(-0.185258 0.205948 0)
(-0.169202 0.183236 0)
(-0.160023 0.16174 0)
(-0.154448 0.144 0)
(-0.150372 0.12855 0)
(-0.174414 0.243605 0)
(-0.175789 0.247079 0)
(-0.171844 0.239528 0)
(-0.160772 0.219559 0)
(-0.14742 0.197491 0)
(-0.138086 0.179777 0)
(-0.130791 0.163971 0)
(-0.125144 0.15004 0)
(-0.121078 0.136705 0)
(-0.118191 0.123453 0)
(-0.152719 0.237421 0)
(-0.142456 0.232133 0)
(-0.126715 0.214596 0)
(-0.11627 0.19522 0)
(-0.109218 0.180225 0)
(-0.103203 0.167522 0)
(-0.0981295 0.155072 0)
(-0.093992 0.142906 0)
(-0.0905206 0.130971 0)
(-0.0877333 0.119241 0)
(-0.134041 0.200601 0)
(-0.11343 0.199332 0)
(-0.102012 0.189482 0)
(-0.0941097 0.179307 0)
(-0.0867304 0.169045 0)
(-0.0800031 0.157832 0)
(-0.0740898 0.146298 0)
(-0.0687488 0.134955 0)
(-0.063961 0.124047 0)
(-0.059837 0.113682 0)
(-0.118307 0.174127 0)
(-0.106629 0.171242 0)
(-0.0949345 0.167577 0)
(-0.0838813 0.161135 0)
(-0.0732452 0.152388 0)
(-0.0635482 0.142491 0)
(-0.0547243 0.132313 0)
(-0.0466887 0.122348 0)
(-0.0394388 0.112902 0)
(-0.0330204 0.104151 0)
(-0.0988065 0.158111 0)
(-0.089253 0.151206 0)
(-0.0786556 0.145057 0)
(-0.0672107 0.138039 0)
(-0.055592 0.130037 0)
(-0.044313 0.12151 0)
(-0.0335848 0.112902 0)
(-0.0235046 0.104579 0)
(-0.0141403 0.0968316 0)
(-0.00556223 0.089873 0)
(-0.0769146 0.13981 0)
(-0.0671851 0.131027 0)
(-0.0566017 0.122788 0)
(-0.0452543 0.114671 0)
(-0.0335251 0.106524 0)
(-0.0217348 0.09847 0)
(-0.0101105 0.090714 0)
(0.00119309 0.0834919 0)
(0.0120531 0.0770445 0)
(0.0223506 0.0715846 0)
(-0.054037 0.120486 0)
(-0.0440327 0.110382 0)
(-0.0333649 0.10079 0)
(-0.0220939 0.0916258 0)
(-0.0103778 0.0828826 0)
(0.00161168 0.0746356 0)
(0.0137217 0.0670267 0)
(0.0258174 0.0602427 0)
(0.0377642 0.0545079 0)
(0.0494087 0.0500558 0)
(-0.0321623 0.10097 0)
(-0.0220756 0.0896264 0)
(-0.0114083 0.0788404 0)
(-0.000198104 0.0686455 0)
(0.0114925 0.0590874 0)
(0.0235848 0.0502528 0)
(0.0359918 0.0422834 0)
(0.0486036 0.0353816 0)
(0.0612737 0.0298173 0)
(0.0737928 0.0259401 0)
(-0.0121053 0.0813367 0)
(-0.00214256 0.068888 0)
(0.00834843 0.0570227 0)
(0.0193622 0.0457991 0)
(0.0308838 0.0352875 0)
(0.0428761 0.0256011 0)
(0.0552566 0.0169369 0)
(0.0678818 0.00960543 0)
(0.0805029 0.00404783 0)
(0.0927613 0.000848166 0)
(0.0061118 0.0622314 0)
(0.0155958 0.0487467 0)
(0.0255965 0.0358343 0)
(0.036116 0.0235629 0)
(0.0471319 0.0120423 0)
(0.0585601 0.00147983 0)
(0.070217 -0.00775331 0)
(0.0818097 -0.0151169 0)
(0.0929464 -0.0199377 0)
(0.103208 -0.0214916 0)
(0.0221095 0.0444259 0)
(0.0308145 0.0299159 0)
(0.040018 0.0159764 0)
(0.0496947 0.00272387 0)
(0.0597491 -0.00959814 0)
(0.0699797 -0.0205586 0)
(0.0800631 -0.0295458 0)
(0.089598 -0.0358312 0)
(0.0981871 -0.0387269 0)
(0.105535 -0.0376814 0)
(0.035483 0.0284424 0)
(0.0432039 0.012951 0)
(0.0513834 -0.00190719 0)
(0.0599399 -0.0158795 0)
(0.0686915 -0.0285045 0)
(0.0773544 -0.0391155 0)
(0.085578 -0.0469611 0)
(0.0930207 -0.0513509 0)
(0.0994247 -0.0517952 0)
(0.10465 -0.0480172 0)
(0.045848 0.0145224 0)
(0.0525372 -0.00187061 0)
(0.0596353 -0.0174799 0)
(0.067028 -0.031881 0)
(0.0745182 -0.0444246 0)
(0.0818546 -0.0543318 0)
(0.088798 -0.0608832 0)
(0.095159 -0.0635542 0)
(0.100829 -0.0620602 0)
(0.105809 -0.0562851 0)
(0.0531011 0.00262286 0)
(0.0588302 -0.0146059 0)
(0.0649431 -0.0308762 0)
(0.0713463 -0.0456388 0)
(0.0779076 -0.0581585 0)
(0.0844946 -0.0676745 0)
(0.0910105 -0.073576 0)
(0.0974129 -0.075484 0)
(0.10373 -0.0732214 0)
(0.110133 -0.0666938 0)
(0.0574023 -0.00755937 0)
(0.0623098 -0.0255693 0)
(0.0675928 -0.0425168 0)
(0.0732235 -0.0578064 0)
(0.0791741 -0.0707067 0)
(0.0854348 -0.0805229 0)
(0.0920315 -0.0867357 0)
(0.0990393 -0.0890373 0)
(0.106647 -0.0872412 0)
(0.115123 -0.0811452 0)
(0.059497 -0.0161795 0)
(0.0635735 -0.034957 0)
(0.0680587 -0.0526804 0)
(0.0729867 -0.0687744 0)
(0.0784141 -0.0825577 0)
(0.0844188 -0.0933979 0)
(0.0911102 -0.100825 0)
(0.0986837 -0.104538 0)
(0.107511 -0.104298 0)
(0.117397 -0.0997722 0)
(0.0598821 -0.0230714 0)
(0.0630839 -0.04268 0)
(0.0667425 -0.0613239 0)
(0.0709258 -0.0784871 0)
(0.075732 -0.093556 0)
(0.0812768 -0.105945 0)
(0.0877085 -0.115201 0)
(0.0953007 -0.121018 0)
(0.104462 -0.12315 0)
(0.114149 -0.121294 0)
(0.0588703 -0.0281336 0)
(0.0612284 -0.0486597 0)
(0.0640829 -0.0683374 0)
(0.0675037 -0.0867193 0)
(0.0715907 -0.103256 0)
(0.0764589 -0.117392 0)
(0.0822465 -0.128661 0)
(0.0891993 -0.13672 0)
(0.0976201 -0.141313 0)
(0.106225 -0.142165 0)
(0.0567123 -0.0315762 0)
(0.0584026 -0.0530906 0)
(0.0606071 -0.0738513 0)
(0.0633798 -0.0934715 0)
(0.0668036 -0.111461 0)
(0.0709765 -0.127287 0)
(0.0760116 -0.140445 0)
(0.0820975 -0.150504 0)
(0.0894524 -0.157084 0)
(0.0969895 -0.159722 0)
(0.0538421 -0.0340323 0)
(0.0551329 -0.0565054 0)
(0.0569165 -0.0783104 0)
(0.0592389 -0.0991009 0)
(0.0621736 -0.118439 0)
(0.0658133 -0.135817 0)
(0.0702685 -0.150696 0)
(0.0757228 -0.162544 0)
(0.0824161 -0.170799 0)
(0.0894518 -0.174717 0)
(0.0512022 -0.0358731 0)
(0.0521807 -0.0592779 0)
(0.0536399 -0.0820758 0)
(0.055611 -0.103971 0)
(0.0581686 -0.124592 0)
(0.0614259 -0.143479 0)
(0.0655358 -0.16009 0)
(0.0707677 -0.173813 0)
(0.0775293 -0.183918 0)
(0.0848976 -0.189372 0)
(0.0494106 -0.0369871 0)
(0.0501132 -0.0613978 0)
(0.0512876 -0.0851755 0)
(0.0529401 -0.108141 0)
(0.0551569 -0.130055 0)
(0.0581046 -0.150573 0)
(0.0620256 -0.169209 0)
(0.067348 -0.185349 0)
(0.0748285 -0.198191 0)
(0.0834707 -0.206461 0)
(0.0485465 -0.0374302 0)
(0.0493915 -0.0629673 0)
(0.0506344 -0.0876921 0)
(0.0522983 -0.111653 0)
(0.0545183 -0.134867 0)
(0.0575946 -0.1572 0)
(0.0619172 -0.178225 0)
(0.0680266 -0.197374 0)
(0.0770355 -0.214107 0)
(0.088153 -0.227547 0)
(0.0485281 -0.0392541 0)
(0.0507206 -0.0657027 0)
(0.0531731 -0.0911853 0)
(0.0560896 -0.116061 0)
(0.05986 -0.140796 0)
(0.0652374 -0.165641 0)
(0.073039 -0.189985 0)
(0.0837197 -0.212821 0)
(0.0981746 -0.234318 0)
(0.115576 -0.256175 0)
(0.0520793 -0.0449854 0)
(0.0556688 -0.0722689 0)
(0.0602304 -0.0989798 0)
(0.0660711 -0.125554 0)
(0.0741615 -0.153283 0)
(0.0861242 -0.184317 0)
(0.103582 -0.217289 0)
(0.126784 -0.247812 0)
(0.155875 -0.277206 0)
(0.189947 -0.311562 0)
(0.056242 -0.05133 0)
(0.0603041 -0.08171 0)
(0.0664988 -0.112099 0)
(0.0755976 -0.143189 0)
(0.0894428 -0.179138 0)
(0.11128 -0.224477 0)
(0.140087 -0.271954 0)
(0.175523 -0.31384 0)
(0.219345 -0.354945 0)
(0.270794 -0.406286 0)
(0.0524694 -0.0593596 0)
(0.0571591 -0.0935414 0)
(0.0641648 -0.129556 0)
(0.0755599 -0.171374 0)
(0.0954526 -0.224056 0)
(0.125335 -0.284552 0)
(0.162699 -0.344341 0)
(0.206137 -0.40137 0)
(0.26259 -0.46583 0)
(0.329759 -0.537469 0)
(0.0507189 -0.0669368 0)
(0.0532818 -0.103919 0)
(0.0583578 -0.148849 0)
(0.0689055 -0.20657 0)
(0.0899689 -0.274689 0)
(0.122442 -0.351584 0)
(0.171743 -0.436892 0)
(0.23334 -0.519788 0)
(0.298413 -0.601152 0)
(0.362804 -0.671527 0)
(0.05355 -0.0672364 0)
(0.0524614 -0.107846 0)
(0.0524405 -0.163583 0)
(0.0577361 -0.233204 0)
(0.0792658 -0.326266 0)
(0.129483 -0.451198 0)
(0.197348 -0.572845 0)
(0.265598 -0.661093 0)
(0.324423 -0.72582 0)
(0.376084 -0.778101 0)
(0.0633359 -0.0624655 0)
(0.0589246 -0.106939 0)
(0.0536836 -0.166271 0)
(0.0582512 -0.252566 0)
(0.0926391 -0.418497 0)
(0.16818 -0.599911 0)
(0.231508 -0.703536 0)
(0.284748 -0.771687 0)
(0.334535 -0.824582 0)
(0.38073 -0.869175 0)
(0.0774862 -0.0546216 0)
(0.0683398 -0.0978787 0)
(0.0577783 -0.15434 0)
(0.0679672 -0.271899 0)
(0.144096 -0.572928 0)
(0.202305 -0.723864 0)
(0.251069 -0.805115 0)
(0.29923 -0.865711 0)
(0.343573 -0.91482 0)
(0.384517 -0.954215 0)
(0.0906595 -0.0389529 0)
(0.0772843 -0.0753808 0)
(0.0547527 -0.129166 0)
(0.0758251 -0.437689 0)
(0.171283 -0.707446 0)
(0.224036 -0.82951 0)
(0.268325 -0.900188 0)
(0.312611 -0.953587 0)
(0.351653 -0.99568 0)
(0.386503 -1.0277 0)
(0.103999 -0.0222211 0)
(0.098053 -0.049476 0)
(0.0809511 -0.0976953 0)
(0.153272 -0.571183 0)
(0.220211 -0.819968 0)
(0.257024 -0.923482 0)
(0.292285 -0.981498 0)
(0.327638 -1.02592 0)
(0.358243 -1.06102 0)
(0.385402 -1.08643 0)
(0.0996143 -0.0101869 0)
(0.0938928 -0.0367382 0)
(0.0823059 -0.17217 0)
(0.199454 -0.707667 0)
(0.248016 -0.918649 0)
(0.278062 -0.997931 0)
(0.306106 -1.04391 0)
(0.333586 -1.08136 0)
(0.357306 -1.11127 0)
(0.378325 -1.13137 0)
(0.0908387 0.00816673 0)
(0.0828355 -0.0187042 0)
(0.119928 -0.347213 0)
(0.238881 -0.856764 0)
(0.27045 -0.996899 0)
(0.2914 -1.05286 0)
(0.312608 -1.09108 0)
(0.333033 -1.12419 0)
(0.351241 -1.1503 0)
(0.367477 -1.16575 0)
(0.0817858 0.0128445 0)
(0.077632 -0.0492045 0)
(0.176868 -0.56143 0)
(0.256434 -0.943289 0)
(0.284112 -1.04548 0)
(0.298304 -1.08972 0)
(0.313366 -1.12498 0)
(0.328313 -1.15647 0)
(0.342353 -1.18019 0)
(0.354805 -1.19151 0)
(0.100401 0.0239106 0)
(0.111583 -0.125682 0)
(0.252908 -0.81061 0)
(0.278658 -1.00607 0)
(0.291365 -1.07237 0)
(0.299728 -1.11164 0)
(0.30946 -1.14821 0)
(0.320422 -1.18067 0)
(0.331416 -1.20301 0)
(0.340894 -1.21033 0)
(0.0575081 0.0259846 0)
(0.135039 -0.369829 0)
(0.254553 -0.929505 0)
(0.273129 -1.04015 0)
(0.280391 -1.08607 0)
(0.287746 -1.12679 0)
(0.297167 -1.16735 0)
(0.307694 -1.20128 0)
(0.317549 -1.22166 0)
(0.325184 -1.22421 0)
(0.0706776 -0.0129652 0)
(0.216006 -0.723663 0)
(0.244086 -0.971018 0)
(0.258061 -1.05029 0)
(0.264529 -1.09721 0)
(0.272432 -1.14362 0)
(0.282676 -1.18759 0)
(0.293276 -1.22117 0)
(0.302185 -1.23776 0)
(0.308193 -1.23437 0)
(0.104464 -0.187763 0)
(0.218169 -0.866873 0)
(0.228545 -1.00222 0)
(0.238033 -1.06233 0)
(0.245982 -1.11264 0)
(0.255858 -1.16386 0)
(0.267116 -1.20939 0)
(0.277588 -1.24044 0)
(0.285399 -1.25147 0)
(0.289626 -1.24128 0)
(0.151446 -0.454846 0)
(0.191793 -0.904681 0)
(0.208506 -1.02063 0)
(0.217276 -1.07856 0)
(0.227289 -1.13351 0)
(0.239093 -1.18757 0)
(0.250963 -1.23214 0)
(0.260882 -1.25852 0)
(0.26758 -1.26278 0)
(0.270548 -1.24577 0)
(0.132986 -0.688177 0)
(0.174358 -0.947244 0)
(0.192883 -1.04042 0)
(0.202 -1.09853 0)
(0.212287 -1.15609 0)
(0.223752 -1.21081 0)
(0.234447 -1.25255 0)
(0.24258 -1.27302 0)
(0.247373 -1.27012 0)
(0.248312 -1.24617 0)
(0.171326 -0.818255 0)
(0.178296 -0.985025 0)
(0.183639 -1.05438 0)
(0.189364 -1.1135 0)
(0.197409 -1.17478 0)
(0.207018 -1.23051 0)
(0.215811 -1.26904 0)
(0.222008 -1.28348 0)
(0.225289 -1.27383 0)
(0.225231 -1.24265 0)
(0.141897 -0.86831 0)
(0.14887 -0.994407 0)
(0.15529 -1.06177 0)
(0.163772 -1.12849 0)
(0.174211 -1.19405 0)
(0.184596 -1.24957 0)
(0.192895 -1.28389 0)
(0.198374 -1.29268 0)
(0.201654 -1.27807 0)
(0.202391 -1.24194 0)
(0.0955784 -0.867207 0)
(0.115344 -1.00134 0)
(0.125721 -1.07976 0)
(0.137278 -1.15087 0)
(0.148994 -1.21619 0)
(0.159095 -1.26855 0)
(0.166268 -1.29747 0)
(0.17097 -1.30164 0)
(0.174519 -1.28517 0)
(0.176116 -1.24969 0)
(0.0612498 -0.911695 0)
(0.0834489 -1.0291 0)
(0.0980621 -1.10648 0)
(0.111172 -1.17547 0)
(0.122498 -1.23735 0)
(0.13105 -1.28456 0)
(0.136005 -1.30722 0)
(0.13845 -1.30733 0)
(0.139251 -1.29036 0)
(0.137711 -1.25782 0)
(0.0371814 -0.962371 0)
(0.0570589 -1.06259 0)
(0.0732969 -1.13503 0)
(0.086579 -1.19951 0)
(0.0970053 -1.25598 0)
(0.103524 -1.29605 0)
(0.106038 -1.31168 0)
(0.106002 -1.30764 0)
(0.103879 -1.28908 0)
(0.101423 -1.25642 0)
(0.0221744 -1.00842 0)
(0.0386946 -1.09585 0)
(0.0540107 -1.16257 0)
(0.0663061 -1.22164 0)
(0.0753923 -1.27124 0)
(0.0796573 -1.30284 0)
(0.0801529 -1.31181 0)
(0.0784583 -1.30391 0)
(0.0751543 -1.28268 0)
(0.0741353 -1.24528 0)
(0.013644 -1.04569 0)
(0.0269638 -1.12518 0)
(0.0403123 -1.18713 0)
(0.0511947 -1.24117 0)
(0.058837 -1.28309 0)
(0.0610974 -1.30624 0)
(0.0607657 -1.31051 0)
(0.0593003 -1.30001 0)
(0.0576014 -1.27712 0)
(0.0587269 -1.23489 0)
(0.00897383 -1.07635 0)
(0.0198586 -1.15003 0)
(0.0310858 -1.20821 0)
(0.040381 -1.2579 0)
(0.0464321 -1.2916 0)
(0.0468026 -1.30759 0)
(0.0465706 -1.31018 0)
(0.0465151 -1.29909 0)
(0.0472021 -1.27832 0)
(0.0479219 -1.24029 0)
(0.00781376 -1.09967 0)
(0.0158532 -1.17007 0)
(0.0249031 -1.22565 0)
(0.0323607 -1.27144 0)
(0.0365859 -1.29627 0)
(0.0347849 -1.30676 0)
(0.034473 -1.31021 0)
(0.0346777 -1.29927 0)
(0.0347647 -1.28261 0)
(0.0313915 -1.25784 0)
(0.0073035 -1.12295 0)
(0.01303 -1.18635 0)
(0.0204318 -1.23982 0)
(0.0261055 -1.28122 0)
(0.0286141 -1.29661 0)
(0.0244308 -1.30312 0)
(0.0235998 -1.30882 0)
(0.0225312 -1.29714 0)
(0.0197711 -1.28124 0)
(0.0140415 -1.26679 0)
(0.0101374 -1.13171 0)
(0.0131058 -1.19691 0)
(0.018489 -1.25049 0)
(0.0215424 -1.28639 0)
(0.0224382 -1.29271 0)
(0.0157532 -1.29667 0)
(0.0144915 -1.30527 0)
(0.0122048 -1.29281 0)
(0.00780064 -1.27241 0)
(0.00116896 -1.25925 0)
(0.0104949 -1.13838 0)
(0.0117914 -1.20483 0)
(0.016966 -1.2588 0)
(0.0174236 -1.28681 0)
(0.0176278 -1.28547 0)
(0.00849568 -1.28798 0)
(0.0072444 -1.29924 0)
(0.00366836 -1.28819 0)
(-0.000538171 -1.25923 0)
(-0.00780538 -1.24232 0)
(0.0112598 -1.14851 0)
(0.0107823 -1.21076 0)
(0.0167916 -1.26542 0)
(0.013876 -1.28267 0)
(0.0142541 -1.27611 0)
(0.00271721 -1.27794 0)
(0.00246643 -1.29069 0)
(-0.00350668 -1.28505 0)
(-0.00533671 -1.24444 0)
(-0.0122942 -1.21886 0)
(0.0140778 -1.15175 0)
(0.0110312 -1.21232 0)
(0.0180989 -1.27067 0)
(0.0100504 -1.27471 0)
(0.0115779 -1.26585 0)
(-0.00194941 -1.26734 0)
(0.000241327 -1.28 0)
(-0.0101444 -1.28497 0)
(-0.00712153 -1.23219 0)
(-0.0120227 -1.1882 0)
(0.00408621 -1.13631 0)
(0.0028703 -1.2165 0)
(0.0183316 -1.27666 0)
(0.0053688 -1.26451 0)
(0.00944462 -1.25544 0)
(-0.00529258 -1.25646 0)
(-0.000714263 -1.26742 0)
(-0.0172348 -1.2867 0)
(-0.00501775 -1.22813 0)
(-0.00762806 -1.147 0)
(0.00096125 -1.09724 0)
(-0.00336541 -1.23159 0)
(0.0235483 -1.28016 0)
(0.00249753 -1.25202 0)
(0.00842462 -1.24469 0)
(-0.00690583 -1.24522 0)
(-0.000586562 -1.25323 0)
(-0.0244069 -1.28583 0)
(0.00189571 -1.23846 0)
(-0.00405757 -1.09056 0)
(0.0105433 -1.02703 0)
(-0.0145577 -1.26725 0)
(0.027159 -1.27789 0)
(-0.00115157 -1.2383 0)
(0.0069414 -1.23418 0)
(-0.00662768 -1.23438 0)
(0.00145902 -1.23894 0)
(-0.0280917 -1.28063 0)
(0.0138571 -1.27229 0)
(-0.0130815 -1.01666 0)
(0.0516369 0.00151819 0)
(0.0502634 0.00153048 0)
(0.0488714 0.00153255 0)
(0.0474675 0.00152629 0)
(0.0460576 0.00151626 0)
(0.0446454 0.00150508 0)
(0.0432327 0.00149447 0)
(0.0418197 0.00148664 0)
(0.0404049 0.00148398 0)
(0.0389848 0.00148822 0)
(0.037555 0.0015007 0)
(0.0361102 0.00152047 0)
(0.034646 0.00154565 0)
(0.0331592 0.00157298 0)
(0.031649 0.00159782 0)
(0.0301173 0.00161527 0)
(0.0285693 0.00162005 0)
(0.0270134 0.00160766 0)
(0.025461 0.00157405 0)
(0.0239255 0.00151836 0)
(0.0224196 0.00144261 0)
(0.0209546 0.0013547 0)
(0.0195254 0.00129321 0)
(0.0181207 0.0012585 0)
(0.016696 0.00132594 0)
(0.0152536 0.00136754 0)
(0.0137431 0.00152154 0)
(0.0122119 0.00175112 0)
(0.0106852 0.00179122 0)
(0.00917067 0.00177204 0)
(0.0076199 0.00178791 0)
(0.00599134 0.00191904 0)
(0.00427767 0.00202949 0)
(0.00237708 0.00210346 0)
(0.000538901 0.00197409 0)
(-0.0010968 0.00150556 0)
(-0.00233428 0.000760187 0)
(-0.00279839 -0.00023269 0)
(-0.00241233 -0.00123514 0)
(-0.00126721 -0.00191316 0)
(0.0541947 0.00347005 0)
(0.0530659 0.00354606 0)
(0.0519022 0.0036039 0)
(0.050709 0.0036461 0)
(0.0494914 0.00367479 0)
(0.0482546 0.00369399 0)
(0.0470023 0.00370804 0)
(0.0457371 0.00372108 0)
(0.0444603 0.00373754 0)
(0.0431723 0.0037612 0)
(0.0418724 0.00379481 0)
(0.0405587 0.00383917 0)
(0.039229 0.00389288 0)
(0.0378809 0.0039526 0)
(0.0365121 0.00401332 0)
(0.0351204 0.00406889 0)
(0.0337041 0.00411266 0)
(0.0322624 0.004138 0)
(0.0307953 0.00413936 0)
(0.029303 0.0041155 0)
(0.027785 0.00407113 0)
(0.0262398 0.00401913 0)
(0.0246666 0.00398255 0)
(0.0230699 0.0039848 0)
(0.0214565 0.00405089 0)
(0.019823 0.00410305 0)
(0.0181821 0.00410112 0)
(0.0165553 0.00404523 0)
(0.0149706 0.00401797 0)
(0.0133774 0.00404371 0)
(0.0117624 0.00417442 0)
(0.0100933 0.00439465 0)
(0.00835163 0.00466839 0)
(0.00648712 0.00484892 0)
(0.00452916 0.00465643 0)
(0.0026191 0.00390428 0)
(0.000968322 0.00244559 0)