/*--------------------------------*- C++ -*----------------------------------*\
  =========                 |
  \\      /  F ield         | OpenFOAM: The Open Source CFD Toolbox
   \\    /   O peration     | Website:  https://openfoam.org
    \\  /    A nd           | Version:  8
     \\/     M anipulation  |
\*---------------------------------------------------------------------------*/
FoamFile
{
    version     2.0;
    format      ascii;
    class       volScalarField;
    location    "4";
    object      alpha.water;
}
// * * * * * * * * * * * * * * * * * * * * * * * * * * * * * * * * * * * * * //

dimensions      [0 0 0 0 0 0 0];

internalField   nonuniform List<scalar> 
9150
(
1
1
1
1
1
1
1
1
1
1
1
1
1
1
1
1
1
1
1
1
1
1
1
1
1
1
1
1
1
1
1
1
1
1
1
1
1
1
1
1
1
1
1
1
1
1
1
1
1
1
1
1
1
1
1
1
1
1
1
1
1
1
1
1
1
1
1
1
1
1
1
1
1
1
1
1
1
1
1
1
1
1
1
1
1
1
1
1
1
1
1
1
1
1
1
1
1
1
1
1
1
1
1
1
1
1
1
1
1
1
1
1
1
1
1
1
1
1
1
1
1
1
1
1
1
1
1
1
1
1
1
1
1
1
1
1
1
1
1
1
1
1
1
1
1
1
1
1
1
1
0.999999
0.999999
0.999996
0.999996
0.999998
1
1
1
1
1
1
1
1
1
1
1
1
0.999995
0.999993
0.999993
1
0.999997
0.999992
0.999993
0.999999
1
1
1
1
1
1
1
0.999993
0.99999
0.99999
0.999991
0.999999
1
1
0.999997
0.999992
1
0.999996
0.99999
0.99999
0.999996
1
1
1
0.999997
0.999999
1
1
0.999994
0.99999
0.999992
1
1
1
0.999998
1
1
0.999999
0.999992
0.999992
0.999998
1
1
0.999998
0.99999
1
0.999999
0.999997
0.999998
1
1
1
0.999881
0.999778
0.999778
1
1
1
1
0.998359
0.987308
0.99341
0.999835
0.999938
0.999965
1
1
1
0.993601
0.971927
0.971763
0.971763
0.994622
0.999997
0.999999
0.963339
0.938778
0.939019
0.939313
0.967734
0.987101
0.993084
0.999491
0.999995
0.999999
0.926075
0.931549
0.972301
0.988977
0.99736
0.999746
0.999813
0.99991
0.999998
0.999999
0.981947
0.991395
0.999421
0.999951
0.999883
0.999876
0.999437
0.999777
0.999999
1
0.999995
0.99998
0.999955
0.999953
0.999751
0.999191
0.999176
0.999432
0.999989
1
0.999995
0.999995
0.99986
0.999293
0.999176
0.999176
0.999176
0.999749
1
1
0.999979
0.999432
0.999185
0.999183
0.999181
0.999531
0.999857
0.999978
0.999978
0.998718
0.99944
0.999265
0.99936
0.999638
0.999891
0.999975
0.999975
0.999977
0.983635
0.99975
0.999611
0.999716
0.999934
0.999967
0.999969
0.999973
0.897819
0.863398
0.99685
0.99991
0.999985
0.999984
0.999983
0.999981
0.933094
0.800669
0.773356
0.831966
0.999907
0.999911
0.999996
0.999996
0.992611
0.841844
0.771325
0.771673
0.772022
0.946452
0.999904
0.99984
0.999996
0.982918
0.816231
0.771325
0.771325
0.772033
0.964422
0.999898
0.999904
0.999228
0.998709
0.867454
0.771904
0.771747
0.807497
0.981997
0.999873
0.999881
0.999889
0.999343
0.995796
0.842048
0.772145
0.872666
0.992633
0.999843
0.999853
0.999859
0.999751
0.999658
0.988864
0.931866
0.922753
0.988822
0.99953
0.999546
0.999664
0.99984
0.999837
0.99982
0.991522
0.99169
0.991151
0.983882
0.982568
0.996263
0.999824
0.999831
0.999774
0.999811
0.996453
0.99141
0.980997
0.981028
0.98117
0.998072
0.999815
0.997845
0.996054
0.998407
0.991355
0.980995
0.980997
0.981824
0.999228
0.999711
0.999744
0.999575
0.997912
0.972321
0.993722
0.981066
0.990829
0.998945
0.99953
0.999664
0.999717
0.999581
0.959955
0.900705
0.998144
0.995978
0.998002
0.998045
0.996117
0.999133
0.999572
0.990762
0.909364
0.900769
0.999424
0.970295
0.92846
0.987547
0.998917
0.999082
0.998964
0.966797
0.901997
0.900834
0.98993
0.84744
0.824204
0.988331
0.998804
0.998919
0.998639
0.949369
0.902127
0.918425
0.892794
0.771947
0.825001
0.999099
0.998884
0.998791
0.997966
0.939522
0.902886
0.989644
0.801988
0.769097
0.849209
0.999176
0.999073
0.998743
0.971137
0.940129
0.965659
0.999436
0.812016
0.765414
0.862318
0.999209
0.999208
0.99424
0.956261
0.945025
0.994835
0.999471
0.829957
0.763127
0.83894
0.999226
0.99936
0.993977
0.956325
0.961224
0.99952
0.999491
0.842691
0.762788
0.770259
0.976701
0.999448
0.997174
0.986412
0.990748
0.99953
0.99952
0.907611
0.763127
0.762788
0.861477
0.999457
0.999501
0.999521
0.999543
0.999535
0.999533
0.976094
0.871893
0.765293
0.82267
0.984136
0.999521
0.999534
0.999535
0.999536
0.999534
0.976283
0.975913
0.93448
0.791663
0.699802
0.999538
0.999536
0.999533
0.999532
0.999535
0.976299
0.976277
0.975993
0.75226
0.617581
0.856706
0.999534
0.999533
0.999533
0.999532
0.976299
0.97626
0.835426
0.61744
0.617156
0.624582
0.929744
0.999533
0.999532
0.999532
0.818074
0.848027
0.716074
0.61729
0.616818
0.616329
0.641577
0.823724
0.952577
0.988289
0.509754
0.718977
0.90145
0.845483
0.633341
0.616282
0.616213
0.617151
0.642387
0.811431
0.793794
0.832897
0.994137
0.997828
0.887156
0.709716
0.627841
0.620163
0.621071
0.753951
0.999022
0.993996
0.999649
0.999659
0.999504
0.96983
0.920186
0.863619
0.869587
0.904503
0.999295
0.999653
0.999665
0.999667
0.999667
0.999651
0.999595
0.999557
0.999569
0.999616
0.999652
0.999665
0.999666
0.999669
0.999671
0.999672
0.999674
0.999677
0.999679
0.99968
0.798048
0.995882
0.999669
0.999671
0.999672
0.999674
0.999676
0.999678
0.999679
0.999679
0.27571
0.444
0.669156
0.821015
0.918841
0.980763
0.999678
0.999679
0.999679
0.999679
0.247753
0.248969
0.252164
0.262453
0.296946
0.488974
0.915634
0.999676
0.999679
0.999679
0.386315
0.35507
0.340893
0.30551
0.29057
0.415138
0.906652
0.999573
0.99968
0.99968
0.957576
0.943082
0.920358
0.870827
0.840961
0.884184
0.984204
0.999661
0.99968
0.999681
0.62225
0.593339
0.5882
0.683703
0.842797
0.91864
0.938714
0.945194
0.945345
0.944354
0.252172
0.251889
0.251793
0.251793
0.251793
0.256426
0.257741
0.259985
0.270538
0.314725
0.298937
0.343098
0.307463
0.286121
0.275679
0.283858
0.375797
0.482062
0.37168
0.308998
0.876614
0.889287
0.904224
0.882911
0.864904
0.902503
0.979007
1
0.934431
0.706439
1
1
1
1
1
1
1
1
0.997599
0.925588
1
1
1
1
1
1
1
1
1
1
1
1
1
1
1
0.999999
0.999999
1
1
1
1
1
1
0.999999
0.999999
0.999999
0.999999
0.999999
1
1
1
1
1
1
1
1
1
0.999999
0.999999
1
1
1
1
1
1
1
1
0.999999
1
1
0.999998
1
1
1
1
1
1
1
1
1
0.999981
0.999998
1
1
1
1
1
1
1
1
0.999874
0.999981
0.999997
0.999998
0.999999
1
1
1
1
1
0.8917
0.999869
0.999921
0.999983
0.999998
1
1
0.999999
1
1
0.597365
0.999303
0.998846
0.999955
0.999998
1
1
0.999999
1
1
0.455406
0.959144
0.997827
0.999912
0.999997
1
1
0.999999
1
1
0.411431
0.888258
0.997218
0.999907
0.999997
1
1
1
1
1
0.393798
0.841038
0.997418
0.999921
0.999998
1
1
1
1
1
0.353695
0.789626
0.998532
0.999956
0.999999
1
1
1
1
1
0.304023
0.758515
0.99955
0.999984
0.999999
1
1
1
1
1
0.294351
0.755952
0.999787
0.999993
1
1
1
1
1
1
0.30603
0.830946
0.999834
0.999995
1
1
1
0.999999
0.999999
1
0.325858
0.909735
0.99991
0.999997
1
1
1
0.999999
0.999999
1
0.402472
0.956937
0.999956
0.999998
1
1
0.999999
0.999999
1
1
0.464557
0.983487
0.999979
0.999999
1
1
1
1
1
1
0.568661
0.996978
0.999992
1
1
1
1
1
1
1
0.678293
0.99989
0.999998
1
1
1
1
1
1
1
0.758978
0.999959
0.999999
1
1
1
1
1
1
1
0.799123
0.999954
0.999998
1
1
1
1
0.999999
1
1
0.817129
0.99974
0.999994
1
1
1
1
0.999999
1
1
0.826058
0.999691
0.999996
1
1
1
1
0.999999
1
1
0.834591
0.999934
0.999999
1
1
1
1
0.999999
1
1
0.874722
0.999994
1
1
1
1
1
1
1
1
0.909581
0.999995
1
1
1
1
1
1
1
1
0.92822
0.999996
1
1
1
1
1
1
1
1
0.939938
0.999997
1
1
1
1
1
1
1
1
0.953938
0.999999
1
1
1
1
1
1
1
1
0.961291
1
1
1
1
1
1
1
1
0.999999
0.958884
1
1
1
1
1
1
0.999996
0.999999
0.997901
0.935205
1
1
1
1
1
1
0.999995
0.999997
0.895364
0.907113
1
1
1
1
1
1
0.999995
0.999995
0.820356
0.879271
1
1
1
1
1
1
0.999997
0.999581
0.78257
0.860083
1
1
1
1
1
1
1
0.999828
0.772713
0.854165
1
1
1
1
1
1
1
0.999996
0.779621
0.844202
1
1
1
1
1
1
1
0.999998
0.826117
0.871563
1
1
1
1
1
1
1
0.999999
0.848351
0.909702
1
1
1
1
1
1
1
1
0.900161
0.952061
1
1
1
1
1
1
1
1
0.948255
1.00001
1.00001
1
1
1
1
1
1
1
1
1
1
1
0.999994
0.999996
1
1
0.99997
0.999411
0.999346
0.999751
0.999999
0.999999
0.999999
0.999997
0.999997
0.999997
0.999999
0.999998
0.999995
0.999996
0.999999
1
1
1
0.999999
0.999998
0.999998
0.999983
0.999877
0.999993
0.999993
0.999993
0.999993
0.999998
0.999994
0.999994
0.999994
0.999998
1
1
1
0.999999
0.999993
0.999993
0.999999
1
1
0.999832
0.999346
0.999346
0.999482
0.999979
0.999999
0.999999
0.999999
1
1
0.99999
0.999987
0.999992
1
1
1
1
1
1
1
0.999975
0.999883
1
1
1
1
1
0.999996
0.999996
0.999999
0.999999
0.999962
0.999949
0.999983
0.999997
0.999994
0.999993
0.999996
1
1
0.999653
0.999348
0.999369
0.999873
0.999999
1
1
1
1
0.999998
0.999996
0.999996
0.999999
1
0.990808
0.99285
1
1
1
1
0.999999
1
0.999994
0.999995
0.999999
0.999998
0.999997
0.999998
1
1
0.999995
0.999807
0.999788
0.999916
0.999998
0.999997
0.999997
0.999999
1
0.999872
0.999491
0.999488
0.9999
0.999994
0.999974
0.999989
1
1
1
1
1
1
1
0.987717
0.978198
0.978195
0.980793
0.99383
1
1
1
1
0.999994
0.999996
0.999999
0.999999
0.999999
1
1
0.999943
0.999788
0.999788
0.999788
0.999904
0.999999
1
1
1
0.999975
0.99968
0.999551
0.9999
0.999998
0.999999
0.999997
1
0.998653
0.999532
1
0.999999
1
1
1
0.980803
0.978195
0.978195
0.978195
0.978198
0.98234
0.990411
0.985816
0.985104
0.999994
0.999998
1
1
1
0.999997
0.999831
0.999788
0.999788
0.999788
0.999914
0.999992
1
1
1
1
0.99995
0.99972
0.999834
0.999965
0.999992
0.999999
1
1
0.962029
0.962174
0.99614
0.999999
0.999993
0.999974
1
0.994791
0.987069
0.992774
0.98753
0.979397
0.979408
0.979428
0.97945
0.979653
0.999988
0.999998
1
1
1
0.999817
0.999794
0.999813
0.999938
0.999982
0.999982
0.999969
0.999973
0.999997
1
0.999997
0.999971
0.999984
0.999949
0.999809
0.999903
0.999999
1
0.977624
0.951353
0.951335
0.970096
0.999106
0.999989
0.999984
1
1
0.999957
0.999932
0.999891
0.999378
0.996945
0.991839
0.986953
0.993206
0.999942
0.999999
1
1
0.999981
0.999893
0.99992
0.999983
0.999996
0.999996
0.999974
0.999969
0.999978
0.999999
1
0.999998
1
1
0.999852
0.999809
0.99988
0.999999
1
0.971344
0.951333
0.951334
0.951335
0.989798
0.999987
0.999985
0.989345
0.982499
0.995089
0.996029
0.992123
0.977524
0.984719
0.994459
0.999089
0.999091
0.999995
0.999999
1
0.999998
0.999994
0.999996
0.999996
0.999996
0.999996
0.999992
0.999979
0.999987
1
1
1
1
1
0.999906
0.999809
0.999809
0.999943
1
1
0.987371
0.95133
0.951332
0.951333
0.993958
0.997505
0.981072
0.972101
0.972133
0.987912
0.993301
0.975922
0.971935
0.971915
0.973395
0.992187
0.999091
0.999999
0.999999
1
1
1
1
0.999992
0.999988
0.99999
0.999997
0.999999
1
0.994936
0.997284
0.999411
1
1
0.999827
0.999809
0.99993
0.999998
1
1
1
0.961638
0.951334
0.97234
0.999807
0.986818
0.972101
0.972101
0.97672
0.993488
0.997045
0.991882
0.983655
0.971912
0.971912
0.980693
0.999091
1
1
1
1
0.999713
0.999709
0.999961
0.999993
0.999997
1
1
1
0.922232
0.90006
0.97873
0.999997
0.999991
0.999932
0.99995
1
1
0.999995
0.999997
1
0.992501
0.977091
0.997801
0.999921
0.988512
0.978481
0.988777
0.997246
0.999386
0.999777
0.999811
0.999709
0.99216
0.974957
0.98701
0.999347
1
1
1
0.999748
0.999478
0.999509
0.999957
0.999999
1
1
0.998689
0.930322
0.895618
0.895615
0.949528
0.999995
0.999995
0.999998
0.999998
0.999339
0.999441
0.999893
0.999989
0.999995
0.999995
0.999994
0.999994
0.999921
0.998457
0.999251
0.999879
0.999894
0.999771
0.999724
0.999811
0.999811
0.999811
0.998401
0.998748
0.999648
1
1
0.999809
0.999478
0.999479
0.999725
0.999993
1
1
1
0.961391
0.895618
0.895615
0.895611
0.966253
0.999998
0.999998
0.999998
0.999502
0.998515
0.998677
0.999963
0.999991
0.999995
0.999995
0.999995
0.999994
0.999994
0.999994
0.99999
0.999853
0.999916
0.999817
0.999697
0.999755
0.999811
0.999811
0.999811
0.999811
0.999811
1
0.999986
0.999659
0.999637
0.999817
0.99998
0.999995
0.999999
1
0.999976
0.954399
0.901472
0.908119
0.942492
0.996451
0.999998
0.999998
0.999711
0.998684
0.998683
0.999697
0.999995
0.999995
0.999995
0.999995
0.999995
0.983721
0.987024
0.99999
0.997896
0.998624
0.999959
0.999951
0.999722
0.999783
0.999811
0.999811
0.999811
0.999811
0.999811
0.99996
0.999964
0.999883
0.999991
0.999992
0.999992
0.999998
0.999999
1
0.999846
0.993636
0.993386
0.988356
0.998696
0.99999
0.99999
0.99996
0.999755
0.999795
0.999994
0.999995
0.999995
0.999995
0.999995
0.972184
0.86928
0.815084
0.827044
0.935661
0.99463
0.999959
0.999959
0.99991
0.999243
0.999135
0.999811
0.991082
0.964878
0.93263
0.965523
0.999949
0.999964
0.999964
0.999314
0.999724
0.999999
0.999999
0.999999
1
0.999999
0.970543
0.940475
0.99998
0.999989
0.999989
0.999989
0.999989
0.999989
0.999988
0.996024
0.999736
0.999995
0.999804
0.90782
0.814956
0.81499
0.815027
0.815084
0.823373
0.98275
0.999959
0.999959
0.999938
0.999204
0.998603
0.997722
0.900536
0.83615
0.835823
0.83624
0.999949
0.99988
0.998713
0.998618
0.999434
0.999999
0.999999
0.999999
0.999999
0.874772
0.790954
0.822079
0.996315
0.999988
0.999988
0.999989
0.999989
0.967425
0.914927
0.98774
0.999973
0.999991
0.912276
0.814829
0.8149
0.814923
0.81499
0.815027
0.937739
0.999959
0.999959
0.999959
0.999743
0.999155
0.998945
0.997889
0.893483
0.835823
0.835819
0.835819
0.999869
0.998616
0.998547
0.998613
0.999973
0.999999
0.999999
0.92034
0.79775
0.789685
0.790364
0.84361
0.999988
0.999988
0.999988
0.998024
0.932969
0.909067
0.909101
0.913324
0.988882
0.999493
0.915165
0.814814
0.814836
0.814877
0.850079
0.989165
0.999311
0.999959
0.999959
0.999924
0.999253
0.999155
0.99977
0.999976
0.99368
0.872871
0.835819
0.835819
0.999314
0.99855
0.998552
0.999609
0.999969
0.982384
0.834205
0.789223
0.789305
0.789386
0.822702
0.994537
0.999984
0.999988
0.989383
0.918959
0.909067
0.909067
0.909067
0.912241
0.992749
0.999524
0.992747
0.897408
0.836181
0.944552
0.996138
0.999957
0.999957
0.999958
0.999948
0.999855
0.999359
0.999425
0.999982
0.999982
0.9996
0.989708
0.952272
0.93639
0.998635
0.998552
0.99955
0.999573
0.984056
0.829301
0.789223
0.789223
0.789223
0.883922
0.991844
0.999949
0.999973
0.998748
0.938887
0.909077
0.909072
0.909067
0.927101
0.999869
0.99913
0.999552
0.996819
0.992289
0.99058
0.997621
0.999835
0.999956
0.999895
0.999724
0.999724
0.999845
0.999982
0.999982
0.999982
0.999953
0.999387
0.995477
0.992762
0.992678
0.998639
0.99942
0.999555
0.999561
0.973488
0.794466
0.789472
0.806479
0.984489
0.997981
0.999921
0.999923
0.999924
0.999811
0.962183
0.909115
0.916475
0.993962
0.997342
0.999872
0.999874
0.999832
0.999846
0.999943
0.999963
0.999957
0.999876
0.999724
0.999724
0.999724
0.999913
0.999982
0.999982
0.999982
0.999982
0.998474
0.99102
0.988943
0.988942
0.988944
0.998984
0.999559
0.99956
0.999555
0.985493
0.900381
0.881977
0.978919
0.999914
0.999849
0.999919
0.999921
0.99992
0.999903
0.996311
0.990602
0.99329
0.999862
0.99987
0.999871
0.999875
0.999909
0.999926
0.999974
0.999974
0.999974
0.999974
0.999937
0.999829
0.999932
0.999978
0.999982
0.999982
0.999982
0.999977
0.996822
0.990004
0.988942
0.990889
0.99085
0.998997
0.996753
0.996647
0.99712
0.996913
0.997749
0.999064
0.999914
0.999916
0.999917
0.999917
0.99992
0.999917
0.998548
0.987142
0.98159
0.994818
0.999836
0.99914
0.997547
0.99754
0.998845
0.999973
0.999973
0.999971
0.999939
0.999901
0.999882
0.999832
0.999881
0.999974
0.999977
0.999978
0.999979
0.999904
0.999281
0.996513
0.994181
0.993986
0.993813
0.99971
0.999326
0.996578
0.994809
0.996815
0.997123
0.972495
0.894117
0.893922
0.945642
0.999917
0.999918
0.999909
0.996009
0.928795
0.912195
0.998894
0.999813
0.999396
0.998641
0.998632
0.998641
0.994532
0.986578
0.988879
0.986161
0.945619
0.939251
0.953835
0.951876
0.901604
0.894734
0.918674
0.945021
0.948251
0.957857
0.960968
0.964847
0.965153
0.967879
0.999605
0.99955
0.999451
0.977599
0.90215
0.8917
0.891308
0.891347
0.891336
0.979183
0.999917
0.999909
0.998005
0.929009
0.821081
0.945435
0.999769
0.999799
0.999713
0.961209
0.655918
0.538378
0.538419
0.573848
0.787313
0.736227
0.654081
0.656721
0.888377
0.888964
0.636689
0.632416
0.628814
0.625603
0.616643
0.628923
0.618502
0.622488
0.625212
0.631641
0.999592
0.97234
0.894875
0.893096
0.89299
0.892489
0.964168
0.977492
0.987377
0.99321
0.991425
0.784177
0.661362
0.66106
0.6905
0.976115
0.999865
0.942992
0.573401
0.53855
0.538393
0.538385
0.538392
0.538327
0.538256
0.554816
0.816375
0.979169
0.992658
0.975297
0.841401
0.737784
0.714075
0.682926
0.601675
0.531518
0.529762
0.529733
0.529733
0.529733
0.90619
0.897493
0.895858
0.914342
0.971046
0.97305
0.974816
0.976747
0.918792
0.608062
0.57807
0.57807
0.717218
0.999842
0.994942
0.997191
0.999978
0.999966
0.9303
0.59231
0.53855
0.538393
0.538427
0.695499
0.997771
0.999988
0.999988
0.999988
0.999988
0.999988
0.999988
0.999988
0.999988
0.999987
0.99998
0.9049
0.687372
0.52976
0.529733
0.529733
0.900109
0.89867
0.950686
0.969578
0.970444
0.972351
0.90289
0.565467
0.505411
0.515504
0.634572
0.983862
0.997908
0.999978
0.999978
0.999978
0.99998
0.99998
0.999948
0.996428
0.971468
0.948252
0.956246
0.995323
0.999988
0.999988
0.999988
0.999988
0.999988
0.999988
0.999988
0.999988
0.999988
0.999987
0.999986
0.99998
0.999925
0.873182
0.571166
0.529733
0.900705
0.949315
0.967993
0.968828
0.916894
0.563207
0.48265
0.488926
0.494224
0.766938
0.99989
0.999961
0.999978
0.999978
0.999978
0.999978
0.999985
0.999988
0.999988
0.999988
0.999988
0.999988
0.999988
0.999988
0.999988
0.999988
0.999988
0.999988
0.999988
0.999988
0.999988
0.999988
0.999987
0.999986
0.999973
0.999941
0.999918
0.999888
0.979902
0.772005
0.932769
0.966794
0.966887
0.655632
0.47686
0.479369
0.481028
0.482407
0.780415
0.999877
0.999914
0.999922
0.99991
0.999786
0.999753
0.999909
0.999987
0.999988
0.999966
0.99996
0.99996
0.999987
0.999988
0.999988
0.999988
0.999988
0.999988
0.999988
0.999977
0.999938
0.999877
0.999805
0.999775
0.999812
0.999911
0.999905
0.999873
0.999554
0.996445
0.973873
0.995115
0.952641
0.614714
0.478969
0.478156
0.479231
0.480389
0.721115
0.999834
0.999869
0.999879
0.999873
0.998278
0.99739
0.997394
0.999245
0.999987
0.999987
0.99997
0.99996
0.99996
0.999965
0.999988
0.999988
0.999988
0.999988
0.999988
0.999987
0.999804
0.999383
0.998481
0.997364
0.996895
0.997553
0.999134
0.999294
0.99954
0.999414
0.999332
0.999308
0.998205
0.948647
0.554092
0.48038
0.479231
0.480444
0.761179
0.999772
0.999809
0.999828
0.999491
0.997394
0.99739
0.997386
0.99739
0.997394
0.998191
0.999986
0.999984
0.999983
0.999982
0.999984
0.999988
0.999988
0.999988
0.999988
0.999959
0.999755
0.9988
0.996368
0.989992
0.931361
0.801558
0.691006
0.647407
0.800187
0.955618
0.999346
0.99931
0.9993
0.99917
0.995292
0.809997
0.529357
0.538932
0.902918
0.999753
0.999812
0.99981
0.99981
0.99981
0.999786
0.998551
0.997382
0.99739
0.9974
0.997421
0.998653
0.999982
0.999973
0.999983
0.999984
0.999967
0.999925
0.999868
0.999687
0.999042
0.997851
0.987704
0.902921
0.682173
0.382947
0.169622
0.0820776
0.049018
0.121972
0.399107
0.965229
0.999292
0.999272
0.999436
0.996123
0.964742
0.942608
0.963461
0.999777
0.999811
0.999811
0.99981
0.99981
0.99981
0.99981
0.999809
0.99981
0.999823
0.999834
0.999823
0.999274
0.999244
0.99971
0.999983
0.999982
0.999711
0.998804
0.996496
0.970334
0.904112
0.761305
0.515949
0.255479
0.0906704
0.0472332
0.0472312
0.0472302
0.0472312
0.0472311
0.0472264
0.659516
0.998424
0.996008
0.999471
0.998724
0.98636
0.984282
0.999774
0.999809
0.999811
0.999811
0.999811
0.99981
0.999737
0.999603
0.999591
0.998877
0.998522
0.999879
0.99989
0.999872
0.99982
0.99982
0.999971
0.999822
0.989421
0.865217
0.614952
0.383687
0.214577
0.0853398
0.0474454
0.0474912
0.0474407
0.047234
0.0472334
0.0472312
0.0472302
0.0472325
0.0472503
0.489267
0.990165
0.989515
0.999438
0.988134
0.979707
0.980467
0.99443
0.997813
0.998992
0.998439
0.988912
0.98678
0.986781
0.992659
0.996797
0.991387
0.99634
0.999893
0.999899
0.999859
0.999686
0.999678
0.996067
0.877023
0.51959
0.16149
0.0466554
0.0466881
0.0466835
0.0467398
0.0469967
0.0474469
0.0476777
0.0474403
0.0474573
0.0474298
0.0473329
0.0472504
0.0472585
0.477947
0.992375
0.998765
0.99853
0.981998
0.979722
0.979725
0.97976
0.990975
0.998606
0.988528
0.986779
0.986779
0.986779
0.986784
0.986843
0.990653
0.999415
0.999896
0.999909
0.999824
0.998635
0.965991
0.639018
0.171207
0.0465368
0.0466172
0.0466429
0.0467099
0.0467382
0.0478138
0.101746
0.203007
0.296836
0.353163
0.363776
0.326494
0.172627
0.0475669
0.0473759
0.59439
0.998926
0.999046
0.999465
0.990901
0.979701
0.97972
0.979743
0.997228
0.999931
0.995441
0.993505
0.999019
0.999999
1
1
1
0.99964
0.999479
0.999942
0.999845
0.998464
0.732848
0.093684
0.0466535
0.0466015
0.0466447
0.0467105
0.0468357
0.128264
0.433821
0.733869
0.889467
0.957905
0.985233
0.989231
0.964541
0.811722
0.215197
0.132078
0.657718
0.999046
0.999048
0.999537
0.999327
0.992459
0.980155
0.986973
0.999954
0.999955
0.999947
0.999957
0.999958
0.999958
0.999893
1
1
1
0.999995
0.999995
0.999965
0.999305
0.648471
0.0472574
0.0467198
0.0466553
0.0467806
0.0700949
0.310687
0.740229
0.968182
0.999341
0.999342
0.999343
0.999343
0.999343
0.999343
0.999343
0.523123
0.183464
0.667745
0.998996
0.999048
0.999535
0.999532
0.999339
0.99599
0.995469
0.999955
0.999956
0.999956
0.999956
0.999957
0.999958
0.996571
1
1
1
1
1
0.999999
0.999956
0.923553
0.367091
0.0742055
0.0992039
0.309626
0.63194
0.913831
0.999367
0.999314
0.999337
0.999341
0.999342
0.999343
0.999343
0.999343
0.999343
0.580397
0.22156
0.648846
0.998423
0.999048
0.999529
0.999528
0.999523
0.999515
0.999379
0.998553
0.99782
0.999956
0.999956
0.920278
0.875227
1
1
1
0.999999
1
1
1
1
1
0.960627
0.79853
0.787454
0.959408
0.999993
0.999989
0.999459
0.998172
0.997731
0.999318
0.999341
0.999342
0.999343
0.999343
0.999343
0.463714
0.235467
0.651903
0.996248
0.999045
0.99952
0.999513
0.999542
0.999555
0.999522
0.9995
0.992014
0.937755
0.867745
0.465501
0.308843
0.87939
1
1
0.999997
1
1
1
1
1
1
1
1
1
0.999999
0.997008
0.984954
0.95688
0.9558
0.980552
0.998962
0.999162
0.999276
0.999343
0.999343
0.415694
0.235492
0.6164
0.987698
0.998969
0.996526
0.999517
0.999552
0.999558
0.999581
0.999547
0.999541
0.71477
0.312634
0.109671
0.106721
0.401882
0.937715
1
0.999992
1
1
1
1
1
0.999997
0.999996
0.999999
0.999997
0.999997
0.987861
0.944308
0.940312
0.940325
0.940293
0.978628
0.997589
0.999299
0.999343
0.999343
0.707014
0.235697
0.509813
0.96596
0.998832
0.98793
0.999508
0.999525
0.99945
0.999659
0.999662
0.994462
0.409745
0.105309
0.105475
0.105475
0.150312
0.711028
0.99947
0.999968
1
1
1
1
1
0.999978
0.999949
0.999973
0.999989
0.999989
0.987875
0.944227
0.940312
0.940292
0.940293
0.944661
0.995091
0.999314
0.999339
0.99934
0.983527
0.284824
0.469515
0.93953
0.998671
0.984722
0.999217
0.998952
0.999365
0.999669
0.999664
0.844042
0.182676
0.104981
0.105333
0.105688
0.105721
0.591403
0.998748
0.999963
0.999998
1
1
1
1
0.999976
0.999949
0.999949
0.999986
0.999989
0.998138
0.991889
0.973599
0.946168
0.940293
0.940596
0.993941
0.999161
0.99923
0.999292
0.999222
0.626603
0.478879
0.923033
0.99835
0.995146
0.998556
0.999525
0.999678
0.99967
0.95534
0.400462
0.10338
0.104924
0.105736
0.10576
0.105377
0.549274
0.99672
0.999968
0.999996
0.999999
0.999999
1
1
0.999999
0.999962
0.999957
0.999986
0.999989
0.999988
0.999983
0.99998
0.996357
0.94975
0.976232
0.998662
0.991161
0.940108
0.976827
0.999202
0.896146
0.480313
0.916737
0.998105
0.999678
0.999484
0.999678
0.999679
0.950686
0.478734
0.104887
0.10466
0.105744
0.105703
0.105714
0.105715
0.602763
0.998834
0.999977
0.999999
1
1
1
1
1
1
1
0.999993
0.999988
0.999978
0.999979
0.999982
0.999989
0.99999
0.999991
0.999991
0.97436
0.859021
0.875977
0.996936
0.959993
0.487085
0.907612
0.997927
0.999679
0.999679
0.999679
0.999679
0.952166
0.285945
0.105262
0.105467
0.10564
0.105681
0.105681
0.450921
0.962795
0.999848
0.999991
0.999999
1
1
1
1
1
1
1
1
0.998727
0.994784
0.996822
0.9998
0.999987
0.99999
0.999991
0.999991
0.97113
0.857433
0.857437
0.975447
0.961858
0.679655
0.895892
0.997512
0.999679
0.999678
0.999679
0.999683
0.999684
0.800839
0.199122
0.105892
0.105683
0.12712
0.604934
0.986137
0.9998
0.999958
0.999979
0.999989
0.999993
0.999998
1
1
1
1
1
1
0.996171
0.985238
0.984954
0.99302
0.999404
0.999986
0.99999
0.999991
0.998459
0.888576
0.857434
0.935271
0.884546
0.76141
0.859768
0.996029
0.999678
0.999671
0.999677
0.99968
0.999684
0.999657
0.947643
0.699432
0.180907
0.0621928
0.404437
0.962742
0.999521
0.999833
0.999623
0.999403
0.999648
0.999972
1
1
1
1
1
1
0.997591
0.985283
0.984916
0.984931
0.989168
0.998695
0.999952
0.99999
0.99999
0.991725
0.886029
0.898877
0.742097
0.752425
0.803831
0.993127
0.999681
0.99968
0.999681
0.99968
0.99968
0.99968
0.999651
0.92623
0.291085
0.0223598
0.0481423
0.127197
0.117629
0.24581
0.734279
0.980339
0.9993
0.999778
0.999974
0.999998
1
1
1
1
1
0.997066
0.985205
0.984912
0.984929
0.98929
0.999495
0.999988
0.999989
0.999988
0.991183
0.983209
0.731171
0.681785
0.771182
0.991723
0.99968
0.999681
0.999681
0.999681
0.999682
0.972935
0.752763
0.314912
0.0341081
0.0202665
0.0202477
0.0202781
0.0204648
0.0197857
0.0197058
0.12675
0.748665
0.996304
0.999424
0.999905
0.999984
0.999998
1
1
1
1
0.997695
0.98514
0.984912
0.98504
0.998306
0.999953
0.999988
0.999986
0.99997
0.999952
0.891615
0.681212
0.793376
0.990686
0.946227
0.940912
0.886347
0.688605
0.383585
0.168062
0.0696072
0.0270878
0.0202606
0.0202483
0.0202383
0.0202322
0.0201587
0.0197447
0.0197211
0.0197411
0.134957
0.798128
0.997206
0.99963
0.999944
0.999991
0.999999
1
1
1
1
0.995337
0.98495
0.988773
0.998727
0.998771
0.999864
0.999638
0.999523
0.999951
0.974308
0.682476
0.854401
0.989852
0.292129
0.158767
0.152795
0.151055
0.147299
0.14496
0.138473
0.11917
0.0842701
0.0348829
0.0199856
0.0183662
0.0199965
0.0198836
0.0197449
0.0197365
0.0240348
0.56844
0.992153
0.999141
0.999888
0.999986
0.999998
1
1
1
1
0.999675
0.993572
0.997849
0.999864
0.991082
0.97058
0.987203
0.998684
0.99994
0.995114
0.686191
0.887738
0.989266
0.316906
0.450757
0.578931
0.671677
0.784051
0.882933
0.918743
0.915924
0.745491
0.212652
0.0221263
0.0200431
0.0201316
0.0199792
0.0197746
0.0574883
0.581515
0.98795
0.998973
0.999828
0.999972
0.999996
0.999999
1
1
1
0.999974
0.999968
0.999959
0.99992
0.999885
0.996935
0.846046
0.886176
0.994697
0.99988
0.999807
0.699633
0.90751
0.988796
0.857985
0.998934
0.999803
0.999914
0.99993
0.999933
0.999931
0.999929
0.851387
0.735897
0.766949
0.771092
0.740527
0.669855
0.682772
0.807014
0.978556
0.999251
0.999879
0.999978
0.999993
0.999995
0.999996
0.999994
0.999996
0.999998
0.999961
0.999511
0.997558
0.99763
0.999859
0.994412
0.851993
0.765837
0.953451
0.999636
0.99976
0.731954
0.921648
0.988396
0.91589
0.988801
0.999811
0.999935
0.999936
0.999935
0.999933
0.984418
0.785071
0.741382
0.747657
0.747964
0.840112
0.97701
0.97472
0.95374
0.874596
0.889761
0.974423
0.999877
0.999978
0.999993
0.999996
0.999998
0.999998
0.999998
0.996174
0.742306
0.739234
0.930199
0.999725
0.999115
0.878927
0.720399
0.873823
0.99866
0.999688
0.752101
0.92558
0.988057
1
0.99319
0.998155
0.999976
0.999954
0.999936
0.999933
0.999932
0.996255
0.797228
0.747964
0.747778
0.890141
0.991599
0.977425
0.721707
0.644455
0.642254
0.63986
0.638926
0.623351
0.620218
0.75346
0.990594
0.999998
0.999998
0.982233
0.422588
0.222887
0.432684
0.956221
0.998643
0.885948
0.715268
0.794745
0.989713
0.991242
0.753151
0.916091
0.987754
1
1
0.999999
0.999995
0.99998
0.999949
0.999933
0.999916
0.999864
0.999839
0.938997
0.76182
0.910394
0.998463
0.990521
0.951553
0.957087
0.990563
0.83889
0.623519
0.620889
0.620262
0.620889
0.748182
0.993961
0.999714
0.569163
0.22258
0.220053
0.218487
0.395255
0.936472
0.901922
0.709202
0.725917
0.955051
0.983654
0.754648
0.897879
0.987393
1
1
0.999995
0.999975
0.999946
0.999914
0.999884
0.999856
0.999774
0.999429
0.999087
0.998822
0.998509
0.998483
0.998504
0.998634
0.998818
0.998839
0.998561
0.994883
0.715256
0.620889
0.622136
0.629431
0.945385
0.993859
0.731035
0.226755
0.2187
0.218688
0.218614
0.628695
0.886209
0.705545
0.706484
0.895273
0.981066
0.755573
0.881028
0.986932
1
1
0.99989
0.999617
0.999299
0.99726
0.977437
0.951946
0.962321
0.986925
0.986956
0.979756
0.984034
0.991083
0.997532
0.99882
0.998839
0.99884
0.99884
0.998842
0.998738
0.829962
0.623865
0.700594
0.968458
0.994373
0.995194
0.583393
0.220283
0.2187
0.219561
0.327428
0.790949
0.782492
0.705578
0.812161
0.977112
0.756785
0.876005
0.986366
1
0.999998
0.997864
0.931044
0.808939
0.7212
0.599536
0.469604
0.533479
0.706762
0.672672
0.454907
0.513132
0.804324
0.997743
0.998674
0.998818
0.99884
0.99884
0.998841
0.99884
0.993379
0.926483
0.931445
0.982452
0.995465
0.995577
0.995241
0.511371
0.219863
0.219194
0.220124
0.716654
0.831163
0.704114
0.710986
0.954518
0.75867
0.867956
0.985763
1
0.999982
0.79164
0.506393
0.449045
0.448414
0.446885
0.445662
0.444892
0.44162
0.436743
0.434861
0.435249
0.443712
0.689957
0.560073
0.429301
0.520594
0.931459
0.998843
0.998733
0.997997
0.997371
0.995675
0.995353
0.995617
0.995596
0.995626
0.977314
0.375055
0.22022
0.228463
0.724
0.865163
0.700563
0.700336
0.84594
0.788292
0.883799
0.985049
1
0.820014
0.461843
0.459625
0.452949
0.449039
0.499176
0.491389
0.490875
0.598046
0.78174
0.686681
0.434248
0.42997
0.428891
0.428268
0.428268
0.428268
0.429343
0.524691
0.618882
0.742432
0.98683
0.995289
0.995584
0.995597
0.995625
0.995675
0.995936
0.836201
0.241319
0.264964
0.810905
0.892509
0.700422
0.700336
0.753521
0.845234
0.903312
0.984272
1
0.598979
0.468993
0.462738
0.531762
0.764734
0.964588
0.995553
0.998068
0.997737
0.9975
0.997456
0.898718
0.554017
0.761226
0.898289
0.57184
0.429343
0.432746
0.435074
0.436982
0.441866
0.457024
0.612574
0.972984
0.995636
0.995575
0.995938
0.996179
0.996316
0.683947
0.659492
0.941565
0.929911
0.702654
0.700336
0.753155
0.893747
0.920948
0.983483
0.991602
0.525809
0.477523
0.584091
0.976846
0.998035
0.998195
0.998166
0.998153
0.998068
0.997737
0.997255
0.997094
0.996891
0.99685
0.996125
0.983713
0.893667
0.617861
0.590938
0.651
0.467116
0.459206
0.464738
0.502321
0.855443
0.995637
0.996179
0.996513
0.99683
0.996243
0.995586
0.998253
0.99418
0.734016
0.700433
0.775069
0.888927
0.919886
0.982792
0.955515
0.502473
0.480554
0.853572
0.997878
0.998192
0.998195
0.998193
0.998112
0.997753
0.996926
0.993696
0.993959
0.993242
0.995421
0.99537
0.995364
0.994801
0.977656
0.977707
0.986962
0.938044
0.795941
0.47396
0.481847
0.49282
0.787097
0.996086
0.99683
0.997145
0.998706
0.999121
0.999235
0.998903
0.747139
0.70125
0.82429
0.870898
0.908362
0.982069
0.938832
0.490848
0.480212
0.883919
0.998011
0.998199
0.998196
0.998217
0.981759
0.809092
0.592676
0.497001
0.578395
0.755418
0.956337
0.99537
0.995099
0.994761
0.994944
0.99501
0.995075
0.995001