/*--------------------------------*- C++ -*----------------------------------*\
  =========                 |
  \\      /  F ield         | OpenFOAM: The Open Source CFD Toolbox
   \\    /   O peration     | Website:  https://openfoam.org
    \\  /    A nd           | Version:  8
     \\/     M anipulation  |
\*---------------------------------------------------------------------------*/
FoamFile
{
    version     2.0;
    format      ascii;
    class       volScalarField;
    location    "7.45";
    object      p;
}
// * * * * * * * * * * * * * * * * * * * * * * * * * * * * * * * * * * * * * //

dimensions      [1 -1 -2 0 0 0 0];

internalField   nonuniform List<scalar> 
9150
(
-204.297
-205.307
-205.943
-206.403
-206.635
-206.642
-206.413
-205.943
-205.3
-204.293
-224.357
-224.869
-225.298
-225.63
-225.805
-225.782
-225.609
-225.293
-224.865
-224.354
-244.248
-244.527
-244.783
-244.996
-245.115
-245.12
-245.011
-244.784
-244.526
-244.247
-263.986
-264.159
-264.328
-264.483
-264.57
-264.568
-264.489
-264.329
-264.159
-263.986
-283.609
-283.785
-283.921
-284.048
-284.109
-284.11
-284.054
-283.925
-283.786
-283.61
-118.452
-119.141
-118.773
-118.411
-118.206
-118.189
-118.368
-118.724
-119.115
-118.436
-133.819
-134.531
-134.653
-134.71
-134.619
-134.62
-134.72
-134.647
-134.533
-133.815
-150.239
-151.002
-151.305
-151.661
-151.736
-151.752
-151.683
-151.309
-151.009
-150.248
-167.084
-168.253
-168.733
-169.344
-169.529
-169.549
-169.349
-168.748
-168.263
-167.09
-184.212
-186.232
-187.007
-187.677
-187.939
-187.947
-187.648
-186.996
-186.221
-184.205
-24.4127
-26.0214
-27.9025
-28.9651
-29.5677
-29.6305
-29.1415
-28.1068
-25.9949
-24.2614
-44.9298
-45.2773
-46.3216
-46.685
-47.1321
-47.1054
-46.5908
-46.2108
-45.1643
-44.8043
-65.2303
-65.0349
-66.081
-65.634
-66.133
-66.1323
-65.7131
-66.0361
-64.9556
-65.1503
-88.0517
-85.1167
-86.0739
-84.5965
-84.6763
-84.6587
-84.5481
-86.0013
-85.0773
-87.9786
-113.166
-103.986
-103.356
-102.096
-101.638
-101.658
-102.117
-103.346
-103.961
-113.122
1437.18
1438.54
1440.41
1444.43
1445.46
1447
1447.88
1448.13
1448.11
1447.99
1414.33
1415.22
1417.72
1423.16
1423.24
1425.37
1426.53
1426.96
1427.1
1427.25
1393.13
1394.18
1398.02
1398.34
1400.04
1401.95
1403.42
1404.46
1405.15
1405.58
1371.69
1372.53
1375.95
1375.33
1377.6
1379.49
1380.95
1382.19
1383.17
1383.89
1348.12
1348.36
1352.34
1353.19
1355.69
1357.45
1358.93
1360.24
1362.43
1362.69
1325.77
1329.07
1329.89
1332.06
1334.23
1335.95
1337.47
1338.87
1341.88
1342.56
1307.6
1309.56
1310.85
1312.37
1314.34
1315.72
1317.01
1317.95
1321.26
1321.41
1287.91
1290.52
1293.06
1293.27
1295.17
1295.01
1296.19
1298.74
1299.64
1300.43
1273
1272.32
1274.11
1274.56
1275.58
1278.62
1279.22
1278.15
1279.77
1280.9
1256.33
1257
1256.02
1257.81
1259.11
1259.84
1260.46
1260.08
1261.76
1262.32
1239.55
1239.31
1239.2
1240.78
1241.74
1243.32
1244.14
1244.24
1243.03
1242.46
1226.29
1223.55
1226.58
1224.47
1226.81
1228.52
1229.33
1229.41
1228.96
1228.9
1210.44
1211.28
1211.49
1211.76
1214.16
1213.9
1213.75
1213.24
1212.43
1212.93
1195.26
1194.86
1194.08
1193.65
1193.73
1194.26
1194.6
1194.3
1193.55
1192.91
1175.05
1175.21
1175.06
1174.73
1174.54
1174.33
1173.99
1173.53
1173.05
1172.61
1154.5
1154.64
1154.38
1154
1153.65
1153.24
1152.76
1152.31
1151.81
1151.25
1133.48
1133.44
1133.32
1132.96
1132.45
1131.79
1131.09
1130.36
1129.62
1128.88
1112.53
1112.38
1111.6
1110.87
1110.19
1109.45
1108.54
1107.62
1106.68
1105.73
1093.54
1092.95
1091.28
1090.02
1088.86
1087.57
1086.23
1084.76
1083.32
1081.94
1073.04
1072.03
1070.49
1068.95
1067.24
1065.36
1063.3
1061.1
1058.81
1056.6
1053.07
1051.75
1050.14
1048.25
1045.99
1043.25
1040.01
1036.46
1032.84
1029.58
1033.38
1032.04
1030.43
1028.39
1025.65
1021.97
1017.23
1011.51
1005.23
999.862
1014.43
1013.44
1012.06
1010.09
1007.23
1003.17
997.717
991.829
987.559
984.985
996.201
995.662
994.729
993.646
991.643
988.367
983.54
981.122
978.277
975.76
978.038
977.707
977.592
977.122
975.759
974.316
972.084
970.334
970.051
968.192
959.868
959.986
960.355
960.719
960.533
960.251
960.585
961.534
960.142
958.758
942.035
942.554
943.262
943.796
943.945
945.645
945.618
947.692
945.503
949.285
924.142
925.064
926.012
926.795
927.546
928.375
929.497
930.721
931.457
932.674
906.233
907.107
908.237
909.384
910.489
911.63
912.889
914.202
915.339
916.587
887.33
888.765
890.345
892.048
893.467
894.664
895.491
896.556
897.965
899.178
875.352
876.341
876.762
875.346
876.953
878.356
878.559
878.611
880.834
880.911
860.408
859.696
859.147
860.334
861.035
860.885
860.735
861.276
861.593
862.09
837.514
838.785
838.983
846.03
842.14
840.347
841.222
841.658
842.119
843.804
817.691
818.222
818.43
818.729
819.94
821.126
821.926
822.414
822.964
823.667
796.876
797.674
798.458
799.421
800.446
801.362
802.163
802.89
803.641
804.331
776.003
776.799
777.615
778.538
779.785
781.018
781.875
782.336
782.43
783.306
754.771
755.307
756.116
757.159
758.246
758.977
759.61
760.485
760.963
761.449
733.417
733.059
733.324
734.534
735.819
736.524
736.784
737.5
740.579
736.642
715.469
713.821
714.148
715.461
715.544
716.025
717.071
715.939
714.472
714.77
702.81
699.31
698.892
698.835
697.794
695.707
694.579
693.377
692.173
691.912
684.898
684.18
680.82
679.076
675.897
673.604
671.038
668.746
667.166
667.506
669.042
666.696
663.944
660.742
656.252
652.169
648.51
645.882
644.316
644.16
649.919
649.062
645.57
641.885
637.487
632.953
628.678
625.087
623.112
622.511
632.493
630.015
627.485
624.319
619.907
614.873
610.412
606.571
604.605
604.088
615.112
613.148
610.382
607.089
603.587
599.681
595.665
591.893
588.46
585.417
597.538
596.109
594.113
590.852
587.553
583.531
578.7
573.462
567.529
561.836
579.98
578.983
577.328
574.437
570.698
567.017
561.317
552.863
543.573
536.171
563.777
562.902
561.28
559.337
560.959
553.103
546.999
536.063
524.565
520.951
551.125
550.902
551.549
550.998
543.323
536.824
531.103
518.583
517.68
514
537.344
538.417
530.449
529.05
525.724
520.227
513.904
507.308
505.372
506.749
510.113
510.394
511.062
508.436
504.569
500.596
496.738
493.491
491.673
491.07
485.951
485.235
484.233
485.381
477.102
479.256
479.291
478.786
478.642
478.39
465.226
463.552
460.308
468.373
464.903
466.722
464.23
462.978
463.208
463.064
447.557
448.369
446.52
441.106
437.551
448.948
460.125
440.557
443.652
446.391
429.359
428.584
428.537
433.532
424.061
435.48
440.911
433.267
428.3
435.188
433.436
432.703
430.947
429.64
429.994
429.965
431.323
430.515
422.192
423.54
417.334
420.24
423.651
428.003
429.322
427.973
420.954
415.072
411.385
411.436
405.119
406.959
407.969
408.217
409.449
407.573
402.75
399.14
396.774
394.899
384.462
386.508
387.645
387.574
387.131
385.653
383.788
381.693
379.281
377.196
359.752
363.577
367.778
369.862
370.048
368.679
366.326
363.902
361.134
358.196
345.086
347.313
348.369
349.995
351.487
351.104
348.702
346.018
343.024
340.039
325.726
327.095
329.179
331.468
331.879
331.151
329.517
327.886
325.963
323.458
308.508
307.593
307.708
310.572
313.849
314.248
310.331
308.104
307.238
305.881
287.17
285.819
285.174
283.661
285.146
283.031
285.202
283.544
282.153
281.819
254.525
252.311
250.462
247.68
257.818
257.711
244.991
255.466
256.573
257.65
222.669
211.967
205.498
202.181
204.633
206.433
204.926
222.074
226.655
232.883
204.728
192.011
186.453
180.865
175.492
177.668
182.133
192.476
199.494
211.851
194.792
190.254
188.441
182.661
188.969
189.446
189.441
192.175
192.482
201.338
191.931
190.498
190.912
191.219
196.574
197.481
197.029
196.877
197.663
196.904
194.73
191.959
191.96
193.1
194.611
193.527
197.257
189.047
195.567
198.112
187.771
184.206
183.201
184.731
185.573
188.005
210.529
179.18
187.517
192.331
173.344
168.823
167.744
171.31
173.104
175.579
175.583
175.643
168.164
169.175
161.858
153.841
155.174
159.608
162.321
165.064
168.356
168.7
166.421
163.549
143.898
144.954
152.04
157.045
153.671
155.354
156.226
154.463
152.23
151.569
116.299
122.058
137.43
145.885
151.322
144.849
142.448
140.102
137.685
134.078
88.5498
86.0113
95.9855
112.066
125.013
126.328
124.166
122.406
120.13
117.079
47.8844
55.492
60.5733
69.3366
93.9663
109.654
107.769
102.024
103.388
99.7647
33.6445
20.8596
32.8122
14.7043
75.0711
90.1006
120.237
97.3073
91.8731
88.7246
2.62716
-1.53626
13.6827
3.56924
51.6866
68.5844
95.158
85.1381
75.2127
75.5718
-0.59237
0.4032
4.05472
-1.61224
35.8904
36.4562
62.5005
59.245
59.7933
60.1317
-1.47112
-2.48381
-0.875756
-4.20317
30.6186
23.2867
37.4296
36.5707
39.8285
41.2221
-1.38126
-1.31381
-1.25509
-1.98709
29.7491
27.944
22.0576
23.5184
4.85798
5.33125
-1.46789
-1.4565
-1.46089
-1.75398
26.8554
23.8333
8.76684
7.7902
1.14093
-0.665827
-1.52061
-1.51209
-1.52464
-1.5328
23.0182
20.6431
-0.548134
0.26109
-0.325277
-2.91564
-1.57036
-1.5625
-1.56414
-1.6241
17.7749
20.1572
-5.00554
-3.58538
-2.86325
-1.6146
-1.60104
-1.598
-1.5948
-1.6916
15.2657
21.152
-5.21977
-1.33658
-1.4054
-1.41878
-1.63241
-1.63229
-1.63501
-1.7529
19.487
15.9598
-3.24872
-1.50949
-1.51235
-1.52723
-1.65699
-1.65775
-1.66534
-1.71302
20.4178
12.0011
-1.63506
-1.58199
-1.56405
-1.57833
-1.67542
-1.67102
-1.66758
-1.67392
10.5331
17.9945
-1.59945
-1.5645
-1.5487
-1.61685
-1.69597
-1.69134
-1.68949
-1.72416
7.59114
17.4772
-1.57678
-1.56964
-1.64876
-1.57685
-1.72033
-1.71834
-1.714
-1.72769
7.7001
11.1872
-1.76193
-1.66384
-1.6961
-1.7138
-1.74694
-1.74758
-1.74057
-2.01007
7.334
6.90416
-1.96853
-1.73026
-1.75827
-1.73705
-1.77353
-1.77263
-1.78115
-2.0933
3.51297
5.57322
-2.11415
-1.81779
-1.76999
-1.78368
-1.80124
-1.80058
-1.86719
-2.33198
4.18246
2.86072
-1.79085
-1.92737
-1.8119
-1.84227
-1.82667
-1.82646
-1.94143
-1.37995
1.03636
0.00722454
-2.10967
-2.0594
-1.87165
-1.88666
-1.85391
-1.85869
-2.35918
-1.6693
-0.066008
-0.38452
-1.15847
-2.15041
-1.90537
-1.89712
-1.87526
-1.8644
-3.17504
-1.52016
-0.456231
-0.556502
-1.73821
-3.27185
-1.90136
-1.89057
-1.89708
-2.467
-4.18534
-2.42764
-1.6667
-1.72294
-2.59361
-4.55071
-2.17951
-1.90476
-1.92199
-4.12791
-5.62264
-5.67706
-5.6942
-5.86314
-5.80331
-5.51541
-3.87657
-1.92885
-2.79093
-9.6847
-13.1314
-15.0012
-15.5323
-15.3063
-14.5021
-12.6831
-9.42905
-2.69457
1447.82
1447.58
1447.34
1447.14
1447.39
1447.02
1446.85
1446.74
1446.6
1446.56
1446.46
1446.26
1445.94
1445.43
1444.86
1444.27
1444.12
1443.77
1443.35
1443.17
1443.45
1443.9
1444.59
1445.53
1446.63
1447.84
1449
1449.93
1450.57
1451.01
1451.29
1451.47
1451.65
1451.78
1451.75
1451.53
1451.21
1451.17
1451.41
1451.89
1427.31
1427.41
1427.37
1427.31
1427.68
1427.15
1427.1
1427.03
1426.9
1426.75
1426.51
1426.16
1425.73
1425.33
1424.84
1424.32
1423.88
1423.56
1423.03
1423.78
1422.84
1423.17
1423.94
1424.83
1425.75
1426.82
1428.01
1429
1429.74
1430.23
1430.51
1430.72
1431.05
1431.32
1431.34
1431
1430.53
1430.7
1431.73
1432.01
1406.13
1406.57
1406.85
1407
1407.36
1406.99
1406.95
1406.85
1406.72
1406.54
1406.26
1405.82
1405.29
1404.77
1404.14
1403.34
1402.73
1402.61
1402.1
1403.24
1401.02
1401.71
1402.61
1403.55
1404.34
1405.22
1406.36
1407.35
1408.14
1408.68
1409.01
1409.52
1410.26
1410.84
1411.35
1411.27
1411.35
1412.17
1412.95
1413.14
1384.74
1385.46
1386.04
1386.38
1386.81
1386.63
1386.41
1386.28
1386.18
1386
1385.69
1385.08
1384.36
1383.81
1383.3
1382.67
1382.57
1382.3
1382.34
1382.36
1382.15
1382.02
1382.63
1383.07
1383.32
1383.8
1384.51
1385.37
1386.4
1387.27
1388.01
1388.92
1391.52
1392.08
1391.91
1392.84
1393.79
1394.95
1395.74
1395.57
1363.36
1364.31
1365.11
1365.62
1365.81
1365.91
1365.39
1365.38
1365.36
1365.28
1365.12
1364.78
1364.31
1363.54
1363.2
1362.56
1362.79
1362.68
1362.33
1363.13
1362.79
1363.09
1363.3
1362.69
1362.84
1365.07
1363.79
1363.94
1365.12
1366.23
1367.46
1368.93
1370.76
1372.43
1372.03
1373.35
1374.87
1375.78
1376.41
1376.38
1342.45
1343.41
1344.09
1344.5
1344.65
1344.46
1344.72
1344.37
1344.6
1344.7
1344.63
1344.42
1344.02
1343.66
1343.12
1342.91
1343.14
1342.66
1343.16
1343.35
1343.43
1343.5
1343.52
1343.5
1343.32
1343.81
1343.79
1343.04
1344.04
1345.1
1346.21
1347.49
1348.77
1351.77
1351.87
1352.32
1353.76
1354.92
1355.58
1356.27
1321.69
1322.76
1323.26
1323.46
1323.56
1323.5
1323.86
1323.78
1323.97
1324.28
1324.55
1324.63
1324.53
1324.61
1324.31
1324.1
1323.97
1323.76
1323.96
1324.16
1324.29
1324.33
1324.31
1324.21
1323.94
1323.42
1324.44
1323.83
1323.37
1323.99
1324.81
1326.05
1327.72
1329.4
1331.16
1331.63
1331.39
1332.59
1333.95
1335.06
1301.39
1302.36
1302.9
1303.11
1303.25
1303.39
1303.59
1303.83
1304.03
1304.4
1304.71
1304.98
1305.21
1305.32
1305.45
1305.14
1305.05
1304.97
1304.76
1304.89
1305.12
1305.29
1305.45
1305.26
1305.16
1304.41
1305.24
1304.55
1303.31
1303.57
1304.31
1305.43
1307.25
1309.21
1310.63
1311.54
1311.85
1312.65
1313.02
1314.38
1281.76
1282.53
1283.07
1283.45
1283.57
1283.72
1283.99
1284.18
1284.42
1284.87
1285.22
1285.53
1285.82
1286.08
1286.24
1286.01
1286.61
1286.51
1285.97
1285.99
1286.19
1286.27
1286.49
1286.47
1286.09
1285.61
1286.57
1285.31
1284.29
1284.43
1285.07
1285.95
1287.33
1289.33
1290.85
1291.84
1292.64
1292.83
1292.15
1293.8
1262.82
1263.47
1263.77
1264.11
1264.09
1264.29
1264.57
1264.87
1265.11
1265.62
1265.81
1266.03
1266.38
1266.69
1266.99
1267.06
1268.05
1267.41
1267.16
1267.32
1267.55
1267.87
1268.07
1268.5
1268.27
1268.25
1267.91
1267.45
1266.91
1266.59
1266.79
1267.22
1267.83
1269.85
1271.18
1272.25
1273.31
1273.87
1272.52
1273.89
1243.52
1244.21
1244.58
1244.89
1244.23
1244.76
1245.13
1245.68
1246.06
1246.54
1246.36
1246.67
1247.01
1247.37
1247.72
1248.24
1248.31
1248.33
1248.48
1248.74
1249.11
1249.54
1249.91
1250.27
1250.34
1250.74
1250.56
1249.91
1249.49
1249.08
1248.94
1249.29
1250.14
1251.3
1252.2
1252.64
1255.19
1254.68
1253.72
1254.12
1228.54
1226.19
1226.05
1225.99
1226.58
1225.91
1225.8
1226.29
1226.76
1227.01
1227.16
1227.46
1227.82
1228.25
1228.81
1229.2
1229.45
1229.8
1230.17
1230.61
1231.1
1231.54
1231.89
1232.16
1232.37
1232.51
1232.58
1232.43
1232.3
1232
1231.71
1233.29
1232.4
1232.89
1233.84
1233.94
1235.29
1234.1
1234.08
1234.26
1212.92
1211.53
1209.3
1209.23
1208.73
1207.07
1207.25
1207.57
1207.77
1207.74
1207.94
1208.22
1208.58
1209.02
1209.52
1210.08
1210.67
1211.4
1212.2
1212.89
1213.49
1214.01
1214.5
1214.93
1215.24
1215.5
1215.63
1215.41
1215.07
1214.86
1215.45
1215.67
1214.18
1214.54
1214.81
1214.68
1214.49
1214.58
1214.71
1214.76
1192.04
1191.31
1190.5
1190.04
1189.16
1188.32
1188.36
1188.08
1188.12
1188.27
1188.54
1188.84
1189.11
1189.43
1189.73
1190.19
1191.32
1192.49
1193.81
1194.82
1195.71
1196.21
1196.87
1197.44
1197.8
1198.1
1197.82
1198.24
1199.06
1199.68
1198.59
1197.34
1196.98
1196.27
1195.79
1195.51
1195.25
1195.13
1195.22
1195.33
1172.03
1171.33
1170.45
1169.65
1168.91
1168.44
1168.29
1168.32
1168.43
1168.68
1168.99
1169.28
1169.56
1169.71
1169.81
1171.31
1173.31
1173.77
1175.25
1176.59
1177.59
1178.4
1179.54
1180.34
1181
1182.11
1182.1
1181.93
1181.32
1180.87
1180.14
1178.93
1177.54
1176.87
1176.38
1175.41
1175.17
1175.2
1175.7
1176.15
1150.56
1149.76
1148.92
1148.24
1147.77
1147.56
1148.29
1148.07
1148.16
1148.66
1149.17
1149.71
1150.18
1150.49
1151.01
1152.08
1153.65
1155.27
1156.75
1158.16
1159.35
1159.94
1162.18
1164.23
1164.79
1165.05
1164.89
1164.06
1163.65
1162.34
1160.73
1159.46
1158.85
1157.82
1156.78
1156.07
1155.77
1155.57
1156.58
1157.12
1128.1
1127.42
1126.88
1126.52
1126.49
1126.77
1127.63
1128.32
1128.08
1128.4
1129.05
1129.74
1130.39
1130.93
1131.89
1132.81
1133.91
1135.29
1136.55
1138.13
1139.49
1140.91
1142.57
1144
1144.49
1144.95
1145.4
1144.4
1143.61
1141.8
1140.49
1139.12
1137.94
1136.7
1135.37
1134.27
1134.56
1133.72
1136.03
1137.09
1104.85
1104.13
1103.65
1103.48
1103.72
1104.38
1105.39
1106.6
1107.43
1107.57
1108.17
1109.09
1109.92
1110.66
1111.67
1113.17
1113.3
1114.61
1115.7
1117.51
1118.38
1120.28
1122.38
1124.33
1125.35
1125.79
1125.51
1123.86
1121.94
1120.25
1118.31
1116.31
1114.4
1112.42
1110.36
1108.64
1107.3
1108.5
1110.18
1113.08
1080.67
1079.67
1079.01
1078.8
1079.2
1080.21
1081.56
1083.14
1085.23
1086.38
1087.16
1088.15
1088.99
1089.59
1090.03
1090.69
1091.07
1091.93
1092.72
1094.44
1095.66
1096.5
1095.99
1097.87
1099.87
1101.02
1100.86
1099.3
1097.47
1095.98
1093.8
1091.31
1088.35
1085.03
1081.58
1077.53
1075.89
1077.19
1079.13
1083.62
1054.45
1052.75
1051.82
1051.81
1052.31
1053.94
1056.17
1058.89
1062.86
1064.23
1065.42
1066.34
1067.12
1067.66
1067.86
1067.75
1067.79
1068.02
1068.27
1068.01
1067.98
1066.93
1065.05
1064.99
1067.38
1069.66
1070.82
1071.33
1071.2
1071
1068.77
1066.73
1064.06
1060.56
1055.23
1049.44
1050.44
1056.51
1051.96
1059.99
1026.7
1024.2
1022.59
1021.65
1022.66
1025.52
1029.33
1033.54
1037.27
1040.24
1042.05
1043.11
1043.72
1044.21
1044.94
1044.88
1044.28
1043.52
1042.28
1041.38
1040.12
1037.35
1037.5
1041.16
1034.41
1039.42
1043.29
1045.28
1046.18
1046.75
1045.9
1045.23
1044.16
1041.31
1036.79
1036.46
1036.1
1037.34
1035.83
1039.28
996.014
993.023
989.224
986.442
989.156
994.656
1002.41
1008.1
1012.63
1016.26
1018.39
1019.44
1020.04
1020.84
1021.22
1020.74
1020.19
1019.39
1017.77
1016.04
1014.52
1011.84
1020.89
1017.62
1014.98
1017.38
1020.3
1022.59
1024.1
1024.8
1025.23
1025.72
1025.13
1025.27
1024.87
1026.4
1028.92
1029.81
1030.5
1030.83
981.677
977.955
973.649
973.126
976.814
979.963
982.025
986.619
990.355
992.972
994.649
995.796
996.459
996.56
996.734
996.402
995.834
995.423
994.184
992.091
989.369
990.884
996.948
992.514
994.185
997.427
1000.52
1002.35
1003.3
1003.57
1004.84
1007.18
1008.05
1010.49
1012.41
1015.09
1017.09
1019.96
1021.16
1021.58
973.399
970.743
969.149
969.661
971.67
968.947
970.059
972.047
973.521
974.193
974.641
974.111
973.866
973.2
972.122
971.241
970.639
970.898
969.771
970.343
973.624
965.52
966.825
971.883
975.153
978.308
980.616
981.914
983.286
986.318
988.981
987.27
989.805
992.793
995.367
998.685
1002.67
1004.76
1004.45
1008.7
966.209
963.845
963.061
961.701
962.216
961.174
960.361
959.642
958.617
956.978
955.479
953.929
952.919
952.004
951.979
953.941
957.509
961.424
963.213
963.205
960.858
954.413
952.008
954.703
956.68
958.575
960.282
961.681
964.456
965.809
966.783
967.365
970.947
975.296
976.516
979.919
982.617
984.332
985.073
985.397
961.536
952.597
954.374
953.008
952.199
951.153
949.544
947.944
945.813
942.365
938.3
934.362
935.312
935.817
937.088
937.762
938.027
938.236
940.453
941.556
940.154
937.048
935.456
936.43
936.542
937.824
940.066
941.736
944.047
945.832
946.872
948.273
950.429
953.093
957.466
961.122
964.819
966.338
966.995
971.402
951.648
940.491
943.542
942.331
941.224
940.302
938.764
936.943
934.478
930.289
924.352
917.4
912.426
913.249
909.05
914.814
921.833
923.132
921.677
920.479
919.396
919.231
918.013
920.062
920.883
919.013
921.05
923.936
925.693
927.386
929.276
931.784
935.209
938.123
940.972
945.798
947.665
949.945
952.335
953.223
933.022
933.861
931.404
929.206
929.517
928.934
928.599
927.479
924.564
918.639
907.985
895.317
887.208
891.591
881.721
888.831
892.479
893.346
895.756
897.21
897.906
898.896
899.989
902.75
903.985
904.121
905.318
906.592
910.039
913.162
915.291
916.631
918.097
922.685
927.37
928.218
932.856
935.173
936.587
937.477
917.681
916.964
919.946
925.779
926.604
924.296
921.834
918.562
913.446
905.814
895.389
884.995
875.613
871.04
867.348
866.953
869.691
871.632
869.66
872.887
875.11
878.281
881.641
885.001
887.249
889.242
890.268
891.614
893.416
896.428
899.043
901.57
904.018
906.523
908.848
912.695
915.808
919.121
920.013
922.837
900.449
901.228
901.657
902.363
904.03
904.321
903.416
902.86
900.879
902.154
895.23
884.373
875.569
870.054
866.77
865.922
867.249
869.257
870.695
869.497
862.122
864.504
867.25
870.708
873.821
875.85
876.206
878.137
878.869
880.927
883.483
886.025
888.52
891.003
893.646
896.445
899.588
901.785
903.474
907.479
881.897
883.297
884.095
885.063
885.213
885.173
884.083
882.221
880.017
877.371
873.419
870.218
869.046
867.66
865.343
864.169
863.631
863.961
865.029
858.541
853.191
854.66
856.108
857.965
860.155
861.867
861.859
865.027
865.737
866.72
868.694
871.034
873.404
875.801
878.337
881.023
883.511
885.546
886.784
888.596
862.998
864.616
865.933
866.338
866.125
866.091
866.044
865.6
864.76
863.996
862.691
861
859.301
857.425
855.206
855.892
854.466
850.141
847.129
845.619
844.695
844.586
844.658
845.417
846.801
847.992
848.222
850.027
851.067
851.972
853.948
856.115
858.433
860.725
863.194
865.885
868.424
870.625
872.11
874.611
845.22
846.241
846.539
847.135
847.228
846.824
846.407
846.036
845.37
844.562
843.932
843.094
841.498
840.636
841.426
838.528
836.891
836.033
835.463
833.962
832.587
831.767
831.489
831.835
832.613
832.359
834.316
834.692
835.876
836.876
838.717
840.723
842.968
845.427
848.048
850.934
853.847
856.358
858.769
863.017
824.504
825.701
826.524
826.852
826.572
826.768
826.322
825.463
825.512
824.807
823.986
823.728
823.25
822.87
822.34
820.676
818.947
817.882
817.913
818.517
818.177
816.287
817.592
817.671
817.488
817.936
818.785
819.191
819.329
820.723
822.237
824.138
826.476
829.327
832.653
836.354
840.178
843.639
846.865
851.106
804.801
805.34
805.906
806.123
805.812
805.249
806.974
805.747
805.439
804.927
804.444
803.797
803.299
803.55
803.139
801.855
800.89
800.489
801.317
801.337
801.077
800.854
800.75
800.565
800.61
799.556
801.053
801.912
802.829
803.969
806.725
807.889
810.082
813.149
816.915
821.631
826.824
831.844
836.077
841.83
783.391
783.647
783.894
783.997
783.612
782.91
783.223
784.207
784.103
784.732
785.016
784.377
785.213
783.486
783.52
783.589
783.476
783.368
783.458
782.151
784.261
781.3
781.798
781.449
781.167
781.112
782.132
783.559
785.019
786.695
788.683
792.358
793.095
795.299
799.85
805.585
811.874
818.722
825.315
832.407
761.142
761.229
761.263
761.262
760.308
759.999
760.811
762.258
763.915
765.223
765.433
764.773
765.647
764.818
764.816
765.421
765.489
765.199
764.28
764.448
763.267
761.776
762.143
761.127
760.036
760.196
761.514
763.461
765.66
767.924
769.748
771.564
777.283
776.79
779.86
786.222
792.777
800.179
807.348
813.254
737.875
738.936
739.591
740.526
739.41
741.194
740.337
741.783
744.22
745.923
746.156
746.112
747.611
750.016
752.487
752.774
754.064
754.67
754.294
750.717
748.097
747.358
744.988
743.916
747.847
742.92
741.745
743.377
745.905
748.206
750.001
752.134
754.864
757.844
755.744
763.531
768.785
778.872
781.275
784.44
715.669
716.521
717.796
719.663
720.725
722.668
725.183
729.545
732.858
735.37
736.085
735.66
735.733
736.657
737.404
734.97
733.523
733.133
731.959
730.671
728.316
725.645
725.909
727.957
729.428
730.406
731.131
728.754
729.095
729.832
730.516
731.214
731.784
733.326
731.973
738.838
740.049
758.116
751.347
753.334
692.392
693.625
695.708
698.169
701.554
705.829
709.576
713.408
719.687
723.241
723.112
721.195
718.43
718.287
717.661
716.773
715.407
713.475
711.273
708.913
706.326
704.043
704.52
708.148
713.142
716.397
717.981
713.648
711.881
710.728
709.433
707.594
709.129
708.03
710.474
711.985
712.147
722.947
724.287
726.264
668.793
671.164
675.769
679.409
681.75
686.7
691.804
696.009
698.646
699.981
700.736
700.349
699.611
699.038
698.556
697.667
696.251
694.423
692.44
689.923
687.774
686.323
684.701
690.374
694.751
697.573
700.819
698.306
695.432
692.143
689.282
688.064
685.326
681.678
682.409
680.218
679.144
686.155
689.667
698.283
646.609
649.501
654.638
659.334
663.894
667.85
671.168
675.135
677.543
678.986
680.007
680.35
679.762
679.031
678.974
678.915
678.184
676.348
674.43
672.825
674.506
674.786
675.367
677.56
679.786
681.643
682.524
681.426
677.867
674.171
671.597
665.867
660.738
655.731
649.416
647.676
648.681
653.305
658.325
669.732
624.271
628.031
632.524
637.351
641.749
646.639
651.201
654.687
657.682
659.091
659.807
660.818
660.077
659.597
660.103
659.973
660.439
660.18
659.234
660.626
661.953
661.957
662.549
663.62
664.493
664.795
665.547
665.807
661.212
661.692
652.049
648.434
641.492
632.569
631.448
629.891
629.937
632.741
635.949
638.445
604.902
607.157
610.19
613.759
617.916
621.705
624.741
627.862
632.084
635.086
637.645
638.979
642.341
643.698
643.699
644.883
646.149
645.645
644.283
645.045
648.25
648.222
648.776
650.143
649.96
650.412
650.738
642.725
647.177
636.944
635.936
633.065
628.089
621.361
621.957
620.858
620.939
622.608
624.312
624.938
583.93
583.346
583.846
585.42
588.816
591.884
595.647
599.821
602.912
609.605
614.154
614.823
619.473
622.363
626.457
630.283
630.244
631.157
628.724
628.883
628.382
629.342
630.554
634.162
631.517
630.08
629.571
628.196
628.15
628.468
622.243
619.983
617.001
612.947
613.255
612.994
613.628
615.053
616.635
615.838
558.085
554.875
553.722
553.527
554.01
556.171
563.985
571.612
574.562
582.165
586.275
590.284
594.472
597.915
604.528
611.342
611.401
612.714
612.026
610.825
612.467
613.216
612.195
613.428
611.479
611.47
610.939
609.216
608.245
617.594
611.166
607.456
606.348
604.612
604.412
605.832
608.265
608.223
607.511
611.569
530.676
528.841
525.225
525.2
522.153
533.725
529.075
535.299
546.621
555.345
562.958
566.278
569.817
572.606
581.099
600.244
589.318
590.864
591.711
592.696
593.797
593.881
595.638
594.25
594.19
593.644
593.028
592.087
591.851
592.455
596.893
589.278
592.848
591.46
590.863
594.277
591.761
593.895
594.547
595.272
519.685
516.184
511.454
507.636
507.57
513.159
518.678
522.614
525.419
533.438
536.694
540.341
544.87
550.22
565.866
571.117
568.33
569.645
571.468
573.459
575.558
576.799
579.174
575.659
575.69
575.445
574.938
574.386
574.124
573.908
577.177
573.53
576.327
576.467
577.622
583.118
576.045
577.031
577.725
577.36
511.581
508.597
504.972
503.628
503.818
504.925
503.804
506.145
514.753
514.034
516.345
521.024
526.811
535.847
545.676
548.195
546.594
548.574
550.983
553.348
555.251
556.919
560.357
556.637
556.245
555.708
555.215
554.927
555.012
555.365
556.465
559.519
556.799
559.806
557.967
563.987
558.016
559.915
557.818
558.666
504.437
502.411
499.974
496.505
497.326
498.967
501.842
502.853
503.322
506.576
510.881
515.869
521.576
526.482
528.212
528.352
528.391
528.709
529.718
531.226
532.747
534.134
536.121
535.331
535.333
535.069
534.598
534.333
534.754
535.765
536.926
537.851
539.89
540.109
540.627
540.991
542.982
543.066
543.944
544.155
490.371
490.531
490.622
490.361
490.718
492.85
494.443
496.476
499.244
501.065
504.236
507.555
509.301
510.894
511.407
509.2
506.785
506.439
507.813
508.652
509.752
511.134
512.329
513.116
513.638
513.37
511.76
510.887
512.619
515.383
518.039
520.406
522.376
524.061
525.242
526.074
526.758
528.729
529.229
529.53
478.644
479.558
480.996
482.371
481.528
483.879
485.392
485.169
486.221
488.844
491.32
492.768
493.793
493.988
491.536
487.054
491.518
491.189
488.226
488.7
489.311
490.312
492.021
493.573
493.769
491.8
495.878
490.25
488.322
494.217
499.342
503.399
506.449
509.012
510.741
512.018
513.107
513.889
514.661
514.282
463.531
465.171
465.879
466.64
466.986
467.081
467.74
468.801
469.719
470.671
471.458
471.854
473.042
472.918
471.33
471.603
475.537
475.858
475.677
475.867
476.497
476.708
474.811
476.74
475.296
474.263
475.395
474.492
475.123
477.802
483.817
488.656
491.93
494.032
495.682
496.94
497.936
498.563
502.347
501.548
448.839
449.904
450.332
451.143
451.402
451.277
451.522
451.744
452.035
452.557
452.839
453.08
453.25
453.296
453.218
453.382
453.874
454.492
455.87
458.082
460.529
460.944
459.331
460.929
461.871
461.452
461.288
461.176
461.217
463.331
468.557
472.829
475.731
477.817
479.845
481.161
482.254
483.683
487.673
488.593
434.572
437.108
436.344
436.04
435.8
435.507
435.434
434.835
434.737
434.467
434.098
433.679
433.285
433.132
433.489
434.098
434.861
435.787
437.029
438.49
440.111
441.446
444.081
442.71
442.267
447.442
445.832
444.567
446.445
448.185
451.1
454.674
457.747
460.305
462.684
464.365
465.415
466.44
474.995
470.018
424.183
424.152
422.809
421.042
420.28
419.311
418.751
417.452
416.367
415.206
413.959
412.736
411.666
410.861
410.394
410.193
410.701
412.256
415.575
419.309
422.205
423.843
423.719
424.672
425.086
424.127
428.622
429.184
428.553
429.41
431.224
433.378
436.052
438.604
441.412
443.875
445.17
447.274
448.325
449.064
410.578
411.62
406.872
405.617
404.322
402.799
401.136
399.178
396.947
394.588
391.695
388.957
386.352
384.857
385.34
383.532
378.76
383.765
394.042
399.638
400.324
400.013
400.17
395.476
395.085
396.166
401.927
405.946
408.356
408.533
408.7
410.384
412.945
415.18
416.666
419.39
421.61
421.876
418.703
419.742
393.46
392.384
391.194
389.333
387.489
385.505
383.086
380.385
377.653
374.908
370.237
363.978
359.125
364.865
367.279
367.334
363.374
376.6
383.734
390.337
394.466
396.415
396.335
394.862
396.809
403.994
408.028
408.607
398.652
392.515
390.266
390.448
391.053
392.846
393.724
395.06
396.827
397.681
398.733
399.779
375.159
373.281
371.772
370.132
368.173
365.808
363.313
361.724
361.385
361.997
361.01
357.957
360.632
363.823
365.154
364.093
367.968
371.967
376.803
379.904
382.735
385.385
387.367
389.07
389.337
384.007
386.243
384.907
378.971
377.249
372.993
371.072
369.307
370.893
372.399
374.838
376.736
377.004
394.361
388.039
355.226
353.109
350.546
349.042
346.985
344.153
341.176
338.717
338.21
341.572
343.349
343.303
345.07
347.479
348.901
348.52
348.551
356.255
355.405
356.116
361.179
367.677
365.122
369.256
373.14
373.887
372.446
367.474
367.557
361.952
358.256
356.859
356.294
356.2
357.198
358.916
360.806
362.033
382.014
372.087
337.354
334.889
332.61
330.609
328.226
325.16
321.49
318.33
317.395
317.327
318.927
321.748
324.53
323.822
326.687
329.218
332.143
335.334
337.358
339.034
340.764
343.178
347.263
350.135
352.496
353.672
353.656
352.861
351.026
349.529
351.72
351.916
346.881
349.33
351.112
348.407
350.397
359.354
360.398
363.482
320.987
319.294
317.638
315.988
314.037
311.029
306.362
302.801
301.681
300.383
300.206
300.645
301.391
304.215
306.984
309.672
312.4
314.838
316.858
319.622
321.718
324.303
327.408
330.462
332.88
334.329
334.953
335.311
335.724
336.635
338.084
337.256
344.477
344.732
343.891
346.194
348.533
348.046
344.278
349.45
304.732
304.802
304.678
302.621
302.64
299.74
296.428
294.845
290.456
285.077
279.857
277.817
280.3
282.815
286.637
290.161
293.097
295.502
299.026
300.1
299.46
302.374
306.36
309.926
312.644
314.405
315.525
317.045
319.135
321.572
324.357
326.385
331.928
337.865
336.904
333.502
331.59
335.509
330.477
333.297
286.164
288.466
291.439
289.668
288.057
284.309