/*--------------------------------*- C++ -*----------------------------------*\
  =========                 |
  \\      /  F ield         | OpenFOAM: The Open Source CFD Toolbox
   \\    /   O peration     | Website:  https://openfoam.org
    \\  /    A nd           | Version:  8
     \\/     M anipulation  |
\*---------------------------------------------------------------------------*/
FoamFile
{
    version     2.0;
    format      ascii;
    class       volScalarField;
    location    "8.1";
    object      p_rgh;
}
// * * * * * * * * * * * * * * * * * * * * * * * * * * * * * * * * * * * * * //

dimensions      [1 -1 -2 0 0 0 0];

internalField   nonuniform List<scalar> 
9150
(
1963.39
1962.39
1961.74
1961.28
1961.04
1961.03
1961.27
1961.73
1962.39
1963.39
1962.95
1962.45
1962.01
1961.69
1961.52
1961.52
1961.69
1962.01
1962.44
1962.95
1962.68
1962.41
1962.15
1961.93
1961.81
1961.81
1961.93
1962.14
1962.4
1962.68
1962.56
1962.39
1962.22
1962.07
1961.98
1961.98
1962.06
1962.22
1962.39
1962.56
1962.56
1962.39
1962.25
1962.12
1962.06
1962.06
1962.12
1962.24
1962.38
1962.55
1951.33
1950.74
1951.2
1951.55
1951.73
1951.71
1951.51
1951.14
1950.7
1951.29
1955.63
1954.91
1954.8
1954.76
1954.85
1954.85
1954.76
1954.79
1954.89
1955.6
1958.82
1958.06
1957.74
1957.39
1957.31
1957.29
1957.36
1957.71
1958.02
1958.79
1961.57
1960.38
1959.87
1959.27
1959.09
1959.08
1959.28
1959.88
1960.38
1961.56
1963.97
1962
1961.2
1960.56
1960.26
1960.26
1960.55
1961.2
1961.99
1963.97
1947.68
1945.87
1943.69
1942.43
1941.76
1941.7
1942.27
1943.26
1945.01
1945.88
1946.61
1946.15
1945.05
1944.56
1944.04
1943.91
1944.32
1944.61
1945.51
1945.75
1945.68
1945.89
1944.81
1945.08
1944.67
1944.54
1945.05
1944.5
1945.51
1945.21
1942.41
1945.33
1944.51
1945.82
1945.83
1945.71
1945.78
1944.23
1945.16
1942.16
1937.3
1946.1
1946.87
1947.94
1948.42
1948.42
1947.95
1946.77
1946.01
1937.14
1583.02
1582.99
1582.86
1582.81
1582.87
1582.89
1582.86
1582.84
1582.81
1582.75
1583.07
1582.8
1582.78
1582.79
1582.8
1582.77
1582.84
1582.93
1582.96
1582.93
1582.9
1583.26
1583.02
1582.84
1582.83
1582.72
1582.86
1582.83
1582.86
1582.75
1583.14
1583.16
1583.03
1582.88
1582.64
1582.55
1582.63
1582.54
1582.39
1582.22
1583.38
1583.24
1582.78
1582.58
1582.44
1582.47
1582.44
1582.26
1582.06
1581.73
1583.4
1583.19
1582.67
1582.47
1582.29
1582.46
1582.32
1582.14
1581.91
1581.17
1583.39
1583.17
1582.95
1582.49
1582.47
1582.42
1582.28
1582.15
1582.03
1581.51
1583.32
1583.09
1582.87
1582.68
1582.54
1582.42
1582.32
1582.22
1582.14
1582.14
1583.22
1582.99
1582.81
1582.68
1582.55
1582.41
1582.28
1582.24
1581.84
1579.77
1583.2
1582.98
1582.81
1582.7
1582.56
1582.37
1581.52
1579.38
1579.37
1578.95
1583.3
1583.17
1582.98
1582.81
1582.62
1579.4
1576.89
1576.95
1581.27
1581.69
1583.46
1582.76
1582.23
1579.6
1576.82
1576.18
1576.04
1580.81
1581.75
1581.14
1583.28
1583.02
1579
1576.29
1576.23
1576.14
1576.77
1582.81
1582.06
1581.2
1583.27
1583.61
1578.86
1576.21
1576.36
1576.44
1578.79
1583.92
1583.31
1582.26
1583.61
1583.87
1578.91
1576.06
1576.39
1576.67
1581.6
1584.98
1584.56
1583.87
1582.67
1584.5
1575.33
1575.74
1576.18
1580.36
1585.8
1585.82
1584.01
1581.37
1580.64
1575.51
1574.83
1575.47
1577.15
1585.98
1586.28
1586.21
1583.3
1572.91
1577.96
1574.67
1575.14
1575.53
1584.7
1586.54
1584.48
1586.48
1583.56
1570.65
1584.08
1578.25
1575.87
1577.29
1583.97
1581.27
1581.14
1586.78
1586.71
1575.33
1587.83
1585.14
1579.79
1577.92
1578
1578.14
1580.54
1586.64
1587.34
1587.13
1589.19
1587.16
1581.1
1579.04
1578.35
1579.2
1582.57
1586.84
1587.04
1587.23
1589.79
1589.27
1585.9
1582.92
1581.76
1585.4
1586.49
1586.64
1586.56
1586.7
1588.93
1588.33
1584.36
1582.37
1581.78
1585.34
1586.6
1586.02
1585.62
1585.64
1573.2
1586.61
1584.65
1581.28
1580.81
1585.05
1586.21
1581.74
1576.59
1577.43
1571.53
1581.38
1586.61
1585.76
1585.28
1585.63
1585.73
1585.67
1580.29
1563.59
1579.41
1583.38
1585.18
1584.97
1584.77
1584.53
1584.65
1585.24
1585.56
1569.59
1566.15
1583.49
1583.16
1580.9
1521.51
1541.13
1581.89
1584.72
1585.66
1584.62
1488.69
1559.54
1546.69
1498.31
1491.26
1492.15
1524.44
1584.09
1586.49
1586.97
1483.49
1483.15
1483.95
1486.16
1488.67
1490.28
1562.87
1587.03
1587.45
1587.72
1486
1485.74
1486.01
1486.8
1506.29
1561.12
1580.07
1580.77
1580.18
1586.76
1494.17
1525.16
1564.96
1570.17
1570.33
1573.28
1575.31
1577.17
1582.83
1586.27
1583.93
1586.03
1588.72
1588.55
1587.79
1586.64
1584.38
1585.53
1587.66
1578.27
1570.9
1577.43
1585.67
1585.66
1585.71
1586.08
1586.74
1587.39
1587.74
1587.33
1558.23
1549.2
1550.72
1577.12
1582.87
1583.88
1585.02
1586.17
1587.22
1588.22
1568.77
1542.15
1543.88
1563.78
1580.45
1582.02
1583.26
1584.36
1585.38
1586.23
1533.09
1533.62
1550.4
1574.77
1578.38
1581.21
1582.93
1584.13
1584.89
1582.04
1389.1
1408.69
1400.63
1452.5
1536.16
1539.54
1532.83
1567.42
1579.05
1515.89
1304.21
1348.96
1324.42
1329.27
1381.79
1505.74
1430.17
1429.09
1536.37
1592.08
1306.43
1308.57
1343.6
1550.86
1588.61
1573.91
1549.86
1563.84
1588.74
1594.37
1351.48
1570.52
1587.65
1588.32
1590.06
1591.02
1591.78
1592.79
1593.94
1592.63
1587.54
1587.32
1587.75
1588.25
1589.17
1590.09
1591.59
1592.76
1590.71
1580.51
1561.6
1561.51
1569.93
1588.06
1589.51
1590.11
1590.47
1590.93
1591.48
1593.04
1419.28
1435.14
1575.89
1588.32
1589.38
1585.17
1582.39
1588.95
1587.95
1589.3
1419.78
1423.25
1426.56
1495.22
1583.68
1586.09
1581.35
1469.57
1427.91
1570.98
1415.27
1426.97
1455.76
1451.81
1414.88
1412.3
1413.61
1410.9
1413.25
1423.2
1415.91
1448.61
1450.47
1451.89
1452.32
1401.82
1403.47
1407.8
1432.06
1595.52
1571.16
1568.74
1407.98
1268.78
1457.41
1458.84
1453.47
1407.68
1421.55
1565.6
1574.33
1575.73
1485.98
1225.61
1232.79
1465.82
1468.07
1412.61
1531.38
1595.48
1577.41
1580.12
1536.15
1205.56
1193.19
1193.76
1493.2
1579.91
1593.25
1594.52
1577.3
1578.24
1550.06
1250.88
1185.4
1186.55
1186.96
1404.56
1577.16
1573.43
1535.63
1560.2
1556.01
1512.86
1255.61
1183.48
1185.48
1186.35
1480.06
1412.87
1174.43
1364.06
1545.83
1594.34
1604.06
1528.69
1288.04
1324.33
1295.27
1367.28
1154.11
1154.44
1324.61
1589.61
1599.62
1606.23
1609.74
1608.95
1606.83
1370.05
1154.48
1154.86
1382.39
1591.63
1596.64
1600.17
1601.89
1601.71
1600.8
1599.15
1155.92
1376.63
1597.75
1596.34
1595.91
1597.77
1596.75
1594.03
1590.05
1571.61
1574.72
1609.36
1606.42
1603.08
1600.71
1582.74
1532.54
1496.02
1432.72
1069.1
1617.77
1616.71
1615.01
1612.08
1543.37
1217.79
983.613
988.132
869.991
830.834
1626.46
1624.85
1621.88
1528.51
978.884
828.36
830.09
1005.45
1010.48
934.267
1635.1
1632.21
1451.75
840.297
818.098
818.578
820.124
948.189
850.836
821.738
1643.61
1465.81
837.546
819.057
818.449
818.619
822.169
822.852
823.145
824.736
1565.51
1029.73
877.887
819.803
820.381
821.305
824.448
830.455
828.945
831.227
1327.46
1436.57
1478.37
916.337
1185.54
1199.01
1026.55
954.448
1225.02
1585.84
1389.97
1577.71
1552.83
1381.73
1430.8
1417.82
1419.21
1404.92
1377.68
1578.63
1583.44
1549.29
1118.44
1111.17
1109.59
1138.37
1462.55
1508.09
1486.54
1514.17
1576.79
1288.71
1103.55
1100.52
1439.37
1533.15
1527.51
1522.76
1556
1566.82
1444.87
1360.26
1440.24
1454.86
1474.53
1479.02
1289.43
1250.07
1463.23
1568.46
1631.79
1642.75
1384.64
1194.24
1181.53
1168.58
1169.5
1168.64
1300.94
1597.34
1671.16
1667.69
1577.77
1193.36
1190.29
1186.64
1182.66
1182.56
1348.23
1629.32
1688.78
1630.45
1217.37
1208.07
1203.69
1198.54
1403.58
1469.59
1503.87
1647.07
1441.47
1243.69
1230.22
1216.34
1249.99
1569.4
1558.43
1548.06
1626.48
1659.35
1228.8
1335.17
1435.12
1450.74
1612.72
1615.92
1546.77
1547.14
1668.32
1662.32
1474.84
1596.97
1641.42
1636.95
1621.19
1615.64
1620.75
1669.43
1668.79
1659.86
1667.52
1692.04
1678.2
1624.78
1574.19
1650.74
1679.05
1678
1657.47
1652.36
1687.37
1680.11
1595.89
1572.21
1574.45
1676.8
1682.45
1678.44
1661.92
1662.17
1669.72
1665.92
1582.02
1572.99
1676.8
1684.02
1688.48
1687.19
1672.75
1673.81
1653.65
1655.52
1642.89
1644.59
1683.65
1691.67
1699.3
1705.4
1696.7
1687.57
1641
1642.82
1648.54
1658.61
1667.68
1699.91
1713.47
1722.57
1727.6
1704.17
1450.6
1630.76
1645.31
1610.26
1467.03
1692.31
1722.46
1738.21
1744.84
1696.88
1000.22
1417.12
1652
1635.13
1446.5
1487.31
1721.91
1695.26
1604.94
1704.34
1011.48
1233.29
1648.78
1644.96
1441.66
1451.82
1688.75
1584.52
1240.77
1489.84
1021.14
1513.27
1652.3
1479.64
1432.03
1454.88
1662.31
1464.56
1156.07
1153.25
1653.81
1629.47
1389.87
1382.66
1393.58
1551.08
1551.99
1197.08
1075.93
1079.16
1703.88
1239.91
1236.35
1515.9
1473.29
1420.5
1205.82
998.198
995.609
1009.58
1385.17
1204.44
1593.41
1648.56
1424.37
1236.72
1224.37
1138.01
994.597
1361.08
1227.11
1219.08
1681.09
1668.28
1403.13
1297.25
1557.1
1552.88
1549.05
1548.04
1413.06
1218.15
1641.11
1693.29
1670.99
1418.48
1623.88
1620.56
1616.04
1551.16
1706.52
1244.9
1056.24
1714.12
1733.01
1655.62
1468.24
1595.06
1037.68
978.717
1711.07
1450.54
769.408
1526.47
1748.68
1701.46
1188.23
1663.86
1560.94
1144.26
1709.49
1681.3
738.019
1181.57
1759.5
1735.92
1163.95
1252.09
1554.47
1556.58
867.589
1069.93
661.678
1180.65
1766.18
1755.73
1162.82
397.862
1202.45
1529.17
248.912
722.731
360.414
1205.31
1778.11
1771.19
1167.83
314.463
357.57
518.883
259.302
197.325
216.99
1192.9
1791.04
1797.84
1443.8
299.957
294.515
293.502
112.215
196.43
178.222
1242.47
1810.75
1820.2
1601.13
421.365
298.236
296.621
-0.0413262
120.344
120.546
1318.73
1831.78
1834.81
1726.87
540.78
368.449
294.394
3.60021
18.8466
156.846
1691.72
1851.18
1852.39
1782.57
582.126
161.337
117.785
4.4299
4.12155
557.011
1814.96
1872.28
1872.83
1846.47
800.463
2.20614
0.0327669
3.33813
3.52992
1073.15
1888.83
1892.02
1892.19
1891.03
1383.54
0.121496
0.0207597
0.875444
73.1838
1633.91
1910.23
1911.09
1911.11
1909.95
1711.12
266.712
0.00483335
0.138044
960.876
1918.94
1926.66
1926.59
1926.47
1926.53
1926.29
1231.95
0.00382731
505.858
1839.21
1938.98
1937.14
1936.52
1936.46
1937.02
1938.87
1903.24
695.963
1582.72
1582.47
1582.26
1581.97
1581.63
1581.35
1581.13
1580.91
1580.96
1580.98
1580.98
1581.09
1581.16
1581.16
1581.17
1581.21
1581.23
1581.29
1581.27
1581.28
1581.38
1581.46
1581.76
1582
1582.32
1582.55
1582.79
1582.81
1582.88
1582.85
1582.78
1582.69
1582.63
1582.65
1582.73
1582.85
1583.08
1583.31
1583.4
1583.32
1582.81
1582.59
1582.26
1581.83
1581.4
1580.98
1580.19
1580.45
1580.32
1579.97
1579.99
1580.24
1581.11
1581.04
1581.11
1581.17
1581.18
1581.22
1581.24
1581.23
1581.2
1581.19
1581.42
1581.69
1582.23
1582.61
1582.61
1582.91
1583.12
1583.05
1582.93
1582.65
1582
1581.68
1581.75
1581.77
1581.93
1582.38
1582.87
1582.97
1582.46
1582
1581.54
1581.15
1580.9
1580.73
1580.6
1580.6
1579.63
1579.32
1579.46
1579.52
1579.42
1580.36
1581.28
1581.19
1581.06
1581.09
1581.09
1581.16
1581.25
1580.93
1581.18
1581.32
1582.15
1582.5
1582.94
1583.25
1583.02
1582.69
1582.52
1580.93
1580.41
1580.36
1580.32
1580.3
1580.23
1581.63
1582.8
1583.1
1581.82
1581.17
1580.56
1580.06
1579.79
1579.81
1579.69
1579.76
1580.28
1580.6
1579.31
1579.4
1580.94
1580.88
1581.07
1580.35
1580.13
1581.15
1581.3
1580.52
1580.27
1580.54
1580.57
1580.66
1581.69
1582.1
1582.47
1582.86
1583.16
1583.44
1583.57
1582.99
1580.18
1580.3
1580.05
1580
1579.85
1580.64
1583.17
1583.09
1581.04
1580.22
1579.85
1579.13
1578.98
1579.16
1579.6
1580.2
1580.79
1580.5
1579.68
1579.42
1580.68
1581.66
1581.6
1579.77
1579.15
1578.69
1579.3
1580.63
1580.8
1581.01
1580.95
1579.29
1578.98
1579.33
1581.49
1582.41
1582.89
1583.24
1583.45
1583.54
1582.3
1581.27
1580.87
1580.35
1581.16
1583.25
1583.52
1583.03
1580.46
1579.83
1579.12
1578.42
1577.86
1577.85
1578.82
1579.57
1580.36
1580.82
1581.05
1580.93
1580.42
1580.58
1582.1
1582.01
1579.23
1578.54
1578.28
1578.26
1578.54
1582.34
1577.83
1578.05
1578.18
1578.11
1579.05
1582.31
1582.67
1582.95
1583.07
1583.13
1583.38
1583.41
1583.41
1583.34
1583.33
1583.33
1583.42
1583.07
1580.92
1580.12
1579.54
1578.78
1578.05
1577.52
1577.65
1578.78
1579.37
1579.77
1580.32
1580.76
1580.64
1581.58
1582
1581.13
1581.37
1580.74
1579.76
1580.47
1581.31
1582.12
1578.24
1578.25
1578.24
1579.66
1581.78
1582.31
1582.33
1581.81
1581.49
1582.22
1582.93
1582.99
1582.89
1582.79
1582.67
1582.36
1582.53
1581.57
1581.98
1581.69
1579.8
1578.79
1577.9
1577.08
1575.22
1574.67
1576.82
1577.69
1575.65
1576.85
1580.19
1581.23
1581.38
1580.88
1581.84
1583.19
1583.22
1583.12
1583.27
1582.79
1578.93
1578.68
1582.01
1582.67
1582.61
1582.35
1582.11
1576.89
1574.13
1575.81
1581.04
1583.13
1583.12
1582.59
1580.38
1578.86
1578.94
1579.2
1579.57
1578.89
1578.55
1578.32
1575.8
1574.77
1562.54
1561.1
1569.83
1573.92
1571.02
1573.52
1576.45
1579.85
1579.65
1580.36
1582.64
1583.34
1583.5
1580.22
1578.14
1578.66
1579.03
1582.19
1582.36
1581.53
1581.82
1584.28
1582.97
1573.29
1571.73
1572.11
1572.18
1580.13
1580.68
1581.12
1578.86
1579.23
1580.86
1580.52
1580.43
1580.47
1579.45
1577.87
1558.63
1547.35
1549
1574.44
1574.57
1572.38
1570.83
1572.37
1573.82
1575.24
1579.78
1581.23
1582.17
1581.76
1581.75
1581.92
1582.5
1582.88
1582.61
1578.52
1578.93
1579.14
1584.61
1584.93
1584.45
1581.39
1572.96
1572.33
1572.66
1572.84
1572.47
1578.43
1577.04
1579.91
1582.29
1582.45
1581.13
1580.55
1580
1575.06
1543.85
1544.41
1552.73
1576.13
1575.91
1575.87
1573.8
1572.38
1573.7
1576.34
1581.25
1581.94
1582.08
1581.86
1579.61
1573.57
1573.41
1573.52
1573.64
1577.39
1583.86
1583.93
1583.74
1583.81
1584.02
1584.41
1585.07
1583.3
1578.87
1578.11
1579.87
1578.9
1576.72
1576.39
1579.17
1582.14
1580.37
1579.75
1579.74
1568.2
1540.42
1541.28
1559.72
1576.41
1576.59
1576.62
1575.38
1572.24
1573.75
1579.3
1579.98
1580.35
1580.43
1580.46
1580.14
1573.75
1571.42
1576.35
1580.56
1580.63
1580.78
1580.86
1580.96
1581.24
1581.86
1582.66
1583.49
1584.06
1584.35
1584.58
1584.74
1584.49
1583.98
1581.73
1579.12
1579.6
1579.97
1578.65
1577.31
1549.15
1538.03
1539.06
1578.76
1578.09
1577.46
1576.08
1573.22
1571.77
1577.6
1577.91
1578.09
1578.18
1578.19
1578.15
1577.97
1577.3
1576.7
1577.2
1577.27
1577.22
1577.02
1576.76
1576.44
1576.6
1577.49
1578.63
1579.78
1580.84
1581.4
1582.27
1582.36
1581.92
1581.16
1580.69
1580.34
1581.06
1580.94
1579.75
1576.94
1543.26
1536.34
1559.2
1579.14
1578.47
1575.55
1573.33
1572.7
1575.07
1576.53
1576.45
1576.26
1576.11
1575.89
1575.66
1575.37
1575.05
1574.75
1574.34
1574.19
1574.23
1574.14
1573.34
1565.24
1557.89
1562.62
1572.66
1575.39
1576.84
1576.58
1578.23
1579.45
1578.72
1577.13
1570.13
1566.71
1564.38
1583.17
1582.29
1581.16
1554.61
1537.26
1577.91
1577.79
1577.17
1574.9
1572.49
1573.2
1575.29
1573.87
1570.84
1570.78
1570.57
1570.47
1570.26
1569.81
1570.4
1565.3
1559.5
1563.82
1569.6
1572.4
1571.41
1549.22
1536.28
1536.07
1547.46
1565.48
1574.27
1574.34
1575.23
1578.34
1578.1
1576.94
1560.35
1545.91
1547.76
1583.22
1584
1583.43
1563.13
1539.59
1578.49
1577.56
1576.48
1575.29
1573.87
1573.43
1573.01
1572.4
1570.3
1571.25
1573.47
1573.59
1573.12
1571.88
1556.51
1543.12
1533.61
1533.46
1533.11
1558.37
1558.56
1536.77
1535.68
1535.53
1536.47
1539.29
1571.12
1576.04
1575.46
1577.01
1579.98
1580.16
1565.71
1550.33
1550.94
1575.67
1585.72
1585.44
1566.42
1539.67
1578.5
1577.5
1575.85
1574.25
1572.75
1571.4
1570.47
1570.21
1570.37
1570.76
1571.44
1571.51
1570.78
1567.67
1540.76
1530.14
1531.28
1531.64
1531.86
1532.47
1532.59
1535.36
1535.81
1536.13
1537.07
1539.21
1560.99
1577.03
1576.42
1577.1
1581.64
1582.93
1584.03
1561.25
1552.9
1570.43
1576.11
1586.05
1576.25
1550.01
1569.74
1577.98
1575.77
1573.36
1571.02
1568.07
1565.42
1565.74
1565.17
1563.29
1563.43
1567.75
1569.06
1548.79
1527.46
1528.48
1529.03
1528.83
1528.82
1552.6
1564.22
1561.74
1558.01
1560.05
1569.14
1558.41
1560.82
1578.31
1579.54
1578.06
1579.54
1584.5
1585.87
1586.67
1559.86
1569.49
1569.14
1573.75
1567.61
1552.22
1560.03
1578.72
1576.08
1573.24
1570.51
1568.14
1564.51
1544.48
1526.96
1522.92
1526.78
1556.27
1559.77
1561.8
1535.28
1528.23
1528.68
1528.26
1531.23
1568.72
1575.78
1576.19
1576.7
1577.13
1577.72
1578.42
1573.69
1579.43
1580.61
1579.44
1580.29
1584.05
1586.66
1587.54
1587.81
1577.69
1569.11
1568.8
1567.91
1565.71
1563.49
1565.07
1567.72
1570.36
1571.4
1568.68
1566.63
1561.27
1532.45
1521.23
1521.13
1522.31
1524.6
1532.36
1556.26
1560.98
1554.27
1537.16
1532.63
1532.76
1543
1547.77
1565.94
1575.14
1577.29
1579.09
1580.74
1575.83
1580.84
1584.79
1581.23
1582.22
1587.35
1588.18
1586.83
1587.28
1584.07
1579.54
1583.22
1584.13
1583.57
1573.52
1568.02
1565.4
1564.22
1566.29
1562.43
1563.48
1563.52
1564.32
1562.7
1526.84
1526.03
1527.19
1528.28
1532.76
1576.09
1579.92
1579.74
1568.66
1487.65
1484.68
1488.37
1536.1
1573.48
1581
1580.77
1568.83
1578.76
1586.6
1583.87
1583.15
1587.49
1588.69
1587.01
1587
1587.42
1587.84
1587.62
1586.73
1585.3
1583.49
1579.72
1575.96
1574.08
1570.04
1565.33
1564.49
1564.64
1569.08
1575.63
1576.85
1534.46
1529.69
1530.23
1530.64
1570.6
1581.32
1581.69
1581.8
1581.48
1501.31
1477.39
1477.05
1540.84
1584.31
1579.3
1566.85
1579.01
1588.15
1588.91
1586.46
1588.29
1584.14
1588.31
1585.71
1586.44
1586.7
1584.92
1584.39
1583.09
1582.2
1579.69
1576.23
1575.6
1578.91
1575.39
1568.81
1569.14
1569.62
1579.44
1581.62
1557.26
1532.6
1532.9
1553.25
1582.84
1583.52
1583.71
1570.05
1478.9
1474.75
1475.75
1476.32
1528.78
1586.43
1584.2
1567.43
1582.29
1590.46
1590.82
1591.06
1590.8
1584.13
1589.28
1583.66
1583.95
1584.17
1578.21
1531.43
1518.23
1518.8
1550.59
1578.29
1580.83
1580.93
1581.25
1579.33
1573
1577.1
1584.11
1584.74
1571.9
1537.37
1565.24
1585.9
1586.03
1586.21
1586.43
1552.48
1475.08
1475.49
1475.53
1495.56
1582.19
1589.8
1586.95
1567.88
1588.02
1592.75
1592.71
1592.64
1592.58
1584.35
1582.19
1562.92
1577.11
1584.49
1524.37
1517.65
1517.14
1516.64
1523.37
1578.25
1582.43
1582.52
1583.22
1584.08
1583.99
1585.49
1586.56
1587.19
1584.35
1583.95
1587
1587.84
1586.97
1587.91
1588.31
1574.22
1493.96
1501.29
1575.09
1592.39
1591.06
1590.3
1580.36
1565.67
1588.74
1593.52
1593.5
1593.55
1593.67
1585.34
1579.06
1562.43
1562.55
1573.58
1584.71
1565.95
1546.16
1535.95
1545.35
1577
1583.84
1584.26
1585.04
1585.87
1586.67
1587.38
1588.03
1588.6
1589.12
1589.4
1589.61
1588.29
1586.41
1586.21
1589.36
1590.24
1590.73
1591.27
1592.1
1592.46
1586.27
1576.13
1547.38
1555.5
1588.42
1593
1593.52
1594.11
1594.69
1590.36
1580.02
1562.11
1562.22
1562.61
1585.08
1585.78
1584.79
1573.89
1559.72
1559.9
1566.08
1570.56
1576.5
1581.52
1588.32
1588.87
1589.25
1589.58
1589.85
1590.07
1590.37
1590.54
1590.62
1590.66
1590.74
1591.01
1591.38
1591.84
1592.25
1572.27
1546.19
1546.31
1546.35
1546.09
1550.93
1584.86
1594.13
1595.26
1596.4
1595.87
1581.77
1564.89
1562.26
1562.8
1586.09
1588.79
1588.75
1587.41
1581.18
1573.45
1574.54
1576.56
1574.11
1574.77
1575.72
1588.47
1590.16
1590.29
1590.51
1590.74
1590.97
1591.07
1591.06
1591.05
1591.18
1591.51
1591.92
1592.44
1590.42
1555.45
1546.55
1546.89
1547.04
1546.41
1545.77
1545.53
1580.53
1596.94
1598.89
1600.17
1584.72
1570.48
1562.61
1572.23
1588.45
1588.71
1588.78
1587.65
1588.63
1589.19
1589.46
1589.95
1587.04
1585.02
1585.76
1589.72
1591.03
1590.97
1591.06
1591.42
1591.66
1591.67
1591.31
1591.09
1591.13
1591.67
1592.14
1592.7
1592.88
1593.34
1586.49
1560.72
1546.63
1546.32
1546.01
1545.92
1552.11
1596.42
1602.31
1604.05
1593.98
1582.81
1576.32
1585.97
1588.51
1588.59
1588.65
1588.25
1588.86
1589.14
1589.55
1590.16
1590.85
1591.39
1591.51
1591.25
1591.08
1591.1
1591.73
1592.39
1592.65
1592.75
1592.65
1592.17
1591.96
1592.09
1591.99
1590.41
1587.8
1593.19
1594.4
1595.23
1595.83
1570.3
1543.68
1549.58
1589.9
1600.33
1604.08
1607.05
1600.56
1579.38
1588.58
1588.53
1588.45
1588.33
1588.27
1588
1588.23
1588.49
1588.75
1589.42
1590
1590.28
1589.96
1588.91
1588.3
1589.86
1592.02
1593.49
1594.14
1594.32
1594.3
1593.94
1593.44
1592.67
1586.92
1558.37
1577.2
1590.42
1589.57
1588.94
1588.39
1587.88
1587.94
1588.86
1592.01
1596.48
1601.1
1604.23
1598.89
1573.86
1577.83
1586.08
1588.54
1574.41
1566.19
1580.03
1587.54
1587.28
1586.83
1586.4
1586.44
1588.13
1588.96
1577.81
1559.95
1587.53
1592.33
1594.05
1595.18
1595.6
1595.48
1595.01
1594.18
1589.21
1541.2
1542.29
1580.41
1584.4
1582.21
1578.64
1577.71
1576.5
1576.03
1577.78
1581.59
1587.08
1592.65
1596.85
1593.99
1583.15
1559.75
1559.12
1558.92
1557.53
1557.77
1557.23
1585.29
1588.94
1559.21
1543.32
1549.73
1565.58
1590.43
1553.43
1518.88
1532.34
1587.61
1596.04
1596.72
1596.8
1594.93
1592.35
1585.85
1538.67
1536.19
1555.07
1575.74
1558.36
1554.5
1565.13
1566.76
1563.33
1551.38
1548.75
1558.44
1575.49
1581.74
1586.17
1581.8
1588.86
1579.32
1564.09
1556.32
1556.9
1557.68
1558.52
1585.88
1590.71
1590.67
1588.46
1502.09
1496.33
1533.18
1592.47
1519.95
1517.36
1550.21
1598.63
1599.61
1591.19
1588.71
1588.26
1540.8
1536.01
1534.1
1557.23
1532.46
1480.84
1534.06
1567.86
1560.79
1542.55
1540.64
1542.29
1550.64
1568.85
1574.63
1578.64
1571.02
1561.16
1555
1582.72
1585.16
1578.73
1573.6
1582.46
1591.46
1592.54
1593.06
1593.91
1508.88
1495.15
1496.3
1595.37
1548.64
1518.58
1560.26
1596.75
1589.96
1590.86
1583.95
1552.35
1537.83
1536.22
1535.25
1549.63
1480.03
1478
1545.58
1572.27
1565.83
1560.26
1547.39
1546.67
1562.44
1569.94
1574.16
1576.85
1568.97
1517.07
1543.71
1589.55
1590.8
1591.3
1591.55
1592.83
1593.82
1594.35
1594.77
1543.57
1491.16
1493.19
1502.65
1599.97
1577.43
1516.41
1552.71
1590
1596.61
1596.41
1577.04
1539.81
1538.61
1537.58
1584.93
1513.83
1480.28
1476.93
1512
1577.89
1572.75
1568.23
1565.16
1568.15
1573.06
1576.4
1579.28
1581.22
1575
1516.52
1519.07
1519.91
1564.76
1595.83
1595.19
1594.67
1594.84
1561.37
1493.47
1491.62
1492.42
1502.99
1590.34
1600.59
1578.49
1511.18
1511.58
1579.28
1596.65
1596.83
1581.97
1561.17
1540.66
1546.61
1601.88
1527.87
1480.09
1477.5
1474.56
1555.21
1580.66
1579.13
1578.85
1580.03
1582.54
1584.9
1586.99
1588.49
1587.25
1552.59
1544.41
1550.75
1577.95
1557.32
1552.49
1552.02
1504.32
1491.05
1491.78
1495.86
1546.13
1597.58
1601.23
1600.85
1522.39
1507.95
1508.34
1516.05
1589.65
1598.76
1584.53
1597.38
1577.71
1550.27
1602.47
1588.47
1501.51
1478.73
1477.13
1476.32
1546.73
1584.39
1585.14
1586.36
1588.62
1592.18
1594.34
1594.73
1591.96
1595.95
1596.79
1594.73
1586.55
1586.21
1585.7
1581.65
1568.79
1562.05
1567.68
1591.72
1603.04
1604.16
1593.88
1521.46
1507.39
1507.93
1508.2
1508.05
1584.37
1602.05
1587.42
1600.91
1590.56
1568.83
1603.28
1601.21
1598.37
1572.79
1550.02
1510.83
1488.82
1488.31
1524.25
1590.6
1593.69
1596.94
1599.91
1601.52
1598.91
1581.78
1582.7
1583.35
1594.8
1597.68
1597.21
1597.16
1598.46
1600.6
1602.8
1604.24
1605.35
1606
1544.53
1508.81
1509.21
1509.95
1509.8
1524.28
1601
1605.03
1588.49
1601.83
1600.92
1584.72
1598.66
1603.15
1600.98
1598.38
1595.96
1578.5
1490.86
1490.04
1490.65
1551.07
1595.55
1599.18
1603.35
1607.86
1608.1
1581.77
1582.4
1582.78
1596.54
1598.44
1596.27
1574.33
1568.66
1591.89
1604.98
1606.45
1607.92
1604.03
1568.36
1559.47
1564.61
1534.89
1537.55
1590.3
1605.91
1605.7
1600.47
1602.47
1602.02
1594.45
1586.27
1585.35
1601.33
1601.48
1598.04
1594.77
1592.36
1557.73
1496.2
1501.16
1528.69
1601.33
1609.2
1607.07
1592.89
1595.1
1595.25
1571.11
1566.95
1567.62
1568.76
1569.35
1570.51
1571.74
1575.99
1605.77
1609.94
1605.79
1590.87
1595.81
1599.91
1606.36
1604.14
1596.44
1595.09
1594.17
1602.41
1601.04
1549.87
1591.97
1592.23
1585.32
1573.68
1599.84
1596.5
1593.21
1590.57
1590.36
1591.97
1593.52
1580.39
1565.14
1558.61
1568.93
1575.09
1591.89
1595.21
1597.41
1585.89
1573.95
1589.45
1596.65
1597.75
1597.6
1600.37
1607.07
1610.04
1611.25
1612.28
1613.43
1613.61
1613.14
1612.02
1603.98
1594.53
1602.25
1603.69
1538.69
1508.85
1515.42
1587.33
1588.58
1568.77
1575.81
1591.51
1586.99
1584.28
1584.7
1586.45
1571.08
1442.95
1366.25
1331.78
1420.14
1560.34
1589.58
1593.68
1586.3
1528.06
1523.36
1524.42
1559.56
1588.82
1596.1
1602.84
1607.67
1610.82
1611.34
1606.11
1587.32
1586.46
1589.61
1599.35
1605.27
1605.81
1605.15
1603.79
1527.73
1502.83
1500.04
1559.77
1586.32
1574.98
1557.62
1580.46
1582.27
1579.87
1579.4
1581.29
1547.25
1318.29
1311.5
1311.68
1308.23
1557.08
1577.44
1595.9
1547.95
1519.75
1521.07
1522.3
1523.8
1526.11
1530.91
1570.48
1578.16
1554.04
1525.25
1495.53
1497.89
1501.1
1500.93
1500.91
1568.7
1605.25
1603.97
1602.94
1578.38
1498.11
1496.11
1493.63
1581.41
1581.56
1552.79
1551.84
1576.43
1571.61
1570.54
1571.32
1556.05
1410.44
1303.29
1306.24
1423.45
1547.92
1597.32
1596.73
1542.43
1519.92
1520.22
1554.93
1588.51
1591.73
1594.11
1583.85
1467.96
1456.63
1456.83
1469.49
1578.59
1601.37
1598.7
1585.07
1543.05
1539.63
1582.53
1602.37
1601.12
1541.03
1493.48
1491.5
1521.61
1578.59
1562.42
1546.88
1546.83
1567.12
1563.02
1537.6
1514.86
1534.21
1537.82
1522.94
1497.43
1399.7
1598.47
1597.47
1572.57
1551.71
1593.33
1591.6
1589.4
1585.93
1573.72
1495.27
1435.62
1565.79
1577.53
1587.45
1595.78
1599.01
1596.87
1594.35
1582.41
1529.43
1529.9
1560.94
1601.12
1602.95
1525.95
1490.41
1487.6
1553.76
1589.4
1547.5
1541.07
1544.91
1560.98
1523.8
1499.1
1528.53
1558.42
1568.22
1417.28
1278.65
1595.37
1594.8
1594.23
1593.88
1593.1
1590.95
1584.81
1401.85
1156.54
1137.16
1248.86
1468.62
1382.8
1340.4
1366.57
1540.9
1599.88
1598.79
1581.34
1530.66
1531.43
1530.94
1565.85
1606.87
1605.18
1537.55
1491.82
1562.17
1592.76
1570.23
1545.81
1540.3
1555.24
1559.18
1508.84
1500.34
1522.86
1575.48
1347.37
1279.28
1592.82
1591.2
1589.55
1588.01
1587.93
1587.85
1535.46
1195.38
1138.39
1143.03
1143.69
1143.06
1148.44
1155.48
1158.46
1190.37
1474.49
1608.28
1596.58
1576.85
1538.02
1546.77
1591.07
1608.92
1607.81
1601.56
1590.32
1588.59
1595.36
1592.6
1561.22
1550.74
1564.38
1581.17
1523
1517.45
1530.53
1591.78
1395.15
1285.95
1580.9
1580.28
1581.33
1530.99
1488.91
1513.12
1523.76
1461.89
1316.91
1253.28
1258.42
1292.64
1273.13
1279.49
1276.35
1184.87
1180.83
1348.21
1490.62
1609.02
1621.77
1617.54
1617.62
1614.73
1610.86
1607.26
1604.12
1600.91
1598.65
1597.31
1595.68
1575.61
1585.99
1599.03
1599.99
1541.13
1578.93
1611.88
1431.22
1290.09
1335.31
1337.08
1409.84
1343.72
1345.86
1391.65
1411.72
1521.38
1570.18
1584.25
1594.24
1601.32
1606.25
1610.05
1613.31
1612.78
1398.12
1136.79
1139.47
1306.19
1620.81
1627.14
1620.84
1615.71
1610.67
1606.57
1602.67
1599.26
1598.13
1599.4
1601.8
1604.48
1606.94
1609.71
1612.59
1608.96
1614.37
1620.39
1397.03
1290.14
1365.8
1233.69
1086.97
1077.39
1300.67
1222.64
1324.07
1478.3
1549.8
1564.4
1574.88
1581.65
1584.9
1585.48
1588.24
1591.16
1592.89
1595.29
1593.57
1249.8
1218.82
1267.12
1621.36
1614.93
1605.6
1603.04
1596.71
1593.15
1594.51
1599.08
1603.83
1607.96
1611.52
1615.15
1617.28
1620.89
1623.37
1625.2
1372.48
1289.34
1281.98
1314.23
1229.61
946.329
900.858
901.041
913.605
1244.25
1512.29
1546.43
1552.24
1554.48
1553.52
1550.22
1546.27
1501.47
1515.7
1553.86
1560.6
1565.78
1298.04
1117.09
1100.19
1238.93
1484.34
1599.18
1562.26
1545.36
1567.65
1575.86
1584.82
1599.27
1609.65
1614.89
1618.34
1621.49
1624.93
1628.03
1408.39
1288.03
1593.63
1590.55
1271.15
904.709
905.045
905.564
907.014
1173.06
1440.36
1447.4
1508.78
1537.8
1530.51
1447.47
1314.86
938.306
913.565
1267.97
1536.13
1538.55
1540.31
1195.05
1034.78
1021.88
1010.11
1102.47
1372.83
1465
1395.49
1462.69
1501.01
1489.06
1494.61
1521.4
1576.25
1618.13
1625.39
1629.66
1513.32
1363.01
1576.89
1413.03
915.426
904.432
910.052
923.822
1365.49
1490.79
1433.57
1427.94
1457.63
1533.09
1503.93
954.248
890.696
890.15
892.663
895.749
1077.29
1509.77
1524.43
1488.06
1043.27
997.965
992.49
978.001
958.513
951.385
1235.5
1518.23
1528.37
1501.31
1416.62
1425.83
1441.36
1602.98
1628.64
1633.76
1543.81
1371.54
948.187
897.443
889.418
897.314
1017.39
1518.22
1524.01
1528.82
1441.09
1485.1
1539.75
1530.75
1382.32
891.39
886.64
885.143
886.239
888.615
891.145
1090.7
1502.27
1507.25
1394.73
1282.4
1168.53
957.433
946.941
937.234
926.654
1122.76
1526.83
1539.11
1547.9
1448.06
1470.64
1604.23
1635.22
1641.25
1554.84
1377.92
827.418
829.47
965.075
1360.45
1529.82
1529.27
1539.85
1546.22
1565.16
1558.38
1551.57
1409.2
1163.84
890.098
884.543
882.841
882.775
883.772
885.015
886.038
1115.79
1438.11
1443.85
1438.91
1430.94
1407.69
1210.31
927.927
916.351
903.231
1019.11
1484.48
1553.45
1499.19
1536.68
1619.65
1644.94
1652.14
1595.77
1387.67
826.253
824.122
1226.11
1528.49
1531.12
1531.15
1447.54
1521.1
1568.66
1563.11
1467.13
985.348
888.671
884.316
881.477
880.129
879.965
880.61
880.946
881.356
880.121
966.179
1385.14
1424.45
1412.75
1405.47
1401.84
1111.81
899.45
899.473
901.691
903.625
1129.45
1455.01
1590.25
1642.97
1652.94
1661.7
1578.25
1518.24
822.691
821.357
1271.41
1534.54
1537.55
1489.77
999.032
1431.61
1578.85
1565.32
995.72
906.015
892.282
881.025
877.569
875.848
874.885
874.028
873.307
981.114
1082.15
1073.41
893.78
978.763
1306.7
1337.13
1140.28
891.303
893.311
898.012
902.504
907.338
912.446
921.911
1274.94
1638.92
1656.14
1664.56
1438.18
1647.43
825.381
933.677
1495.94
1543.09
1546.2
1157.99
965.69
1248.76
1598.08
1322.58
932.753
919.443
975.751
1075.23
1052.8
895.419
873.951
871.693
871.418
870.988
869.563
869.794
870.832
872.483
876.556
889.712
885.314
889.01
893.82
898.272
902.022
905.322
909.062
1059.64
1558.26
1648.49
1657.76
1644.18
1421.28
1643.4
1047.89
1564.24
1565.21
1559.29
1349.31
953.732
951.816
1023.56
1601.41
1235.09
957.589
1095.12
1573.31
1642.71
1628.99
1315.68
940.126
891.361
941.291
920.686
884.088
876.456
880.107
981.465
1027.08
1049.65
1025.8
1005.39
1019.12
995.972
1053.44
1224.92
1398.87
1615.38
1642.73
1648.21
1656.28
1630.15
1412.21
1641.61
1584.42
1579.41
1574.59
1544.75
1002.88
950.705
949.408
951.316
1429.69
1490.49
977.11
1575.16
1662.29
1656.34
1649.11
1626.55
1586.26
1587.65
1607.34
1596.09
1559.1
1534.88
1526.6
1564.44
1582.4
1592.23
1585.96
1579.17
1570.19
1485
1171.72
995.006
1095.44
1291.38
1560.77
1640.47
1647
1654.88
1596.27
1630.38
1585.14
1578.7
1573.71
1499.28
1011.13
944.313
944.799
947.439
1210.95
1564.44
1121.89
1642.42
1672.02
1665.9
1659.55
1644.01
1628.71
1628.98
1634.09
1639.72
1638.24
1637.37
1637.09
1635.56
1635.87
1636.06
1635.87
1633.91
1320.04
908.492
878.882
878.784
878.567
880.704
1038.72
1271.29
1267.47
1394.66
1508.14
1611.98
1574.76
1568.73
1562.87
1559.75
1489.03
980.919
932.517
934.722
1043.52
1566.11
1286.41
1487.25
1677.78
1670.5
1663.92
1640.38
1627.01
1624.9
1624.37
1623.61
1636.25
1646.49
1641.67
1636.84
1636.67
1643.99
1642.77
1545.42
963.705
881.434
881.224
880.98
881.138
882.363
886.484
895.206
923.922
960.984
1384.79
1619.25
1560.67
1547.46
1497.51