/*--------------------------------*- C++ -*----------------------------------*\
  =========                 |
  \\      /  F ield         | OpenFOAM: The Open Source CFD Toolbox
   \\    /   O peration     | Website:  https://openfoam.org
    \\  /    A nd           | Version:  8
     \\/     M anipulation  |
\*---------------------------------------------------------------------------*/
FoamFile
{
    version     2.0;
    format      ascii;
    class       volVectorField;
    location    "8.1";
    object      U;
}
// * * * * * * * * * * * * * * * * * * * * * * * * * * * * * * * * * * * * * //

dimensions      [0 1 -1 0 0 0 0];

internalField   nonuniform List<vector> 
9150
(
(0.00479536 -0.0787831 0)
(0.0130886 -0.097427 0)
(0.0109081 -0.104744 0)
(0.00874431 -0.107917 0)
(0.00223824 -0.109493 0)
(-0.00276057 -0.109384 0)
(-0.00915868 -0.107536 0)
(-0.0108917 -0.104703 0)
(-0.0131111 -0.0973953 0)
(-0.00476367 -0.0787651 0)
(0.00579015 -0.0919995 0)
(0.0084846 -0.100461 0)
(0.00744776 -0.102229 0)
(0.00428367 -0.104664 0)
(0.00217738 -0.105417 0)
(-0.00175484 -0.105673 0)
(-0.00423752 -0.105007 0)
(-0.00742874 -0.10224 0)
(-0.00849326 -0.100452 0)
(-0.00579127 -0.0919938 0)
(0.00167002 -0.0954698 0)
(0.00452112 -0.0989599 0)
(0.00372584 -0.101093 0)
(0.00339273 -0.101701 0)
(0.000615814 -0.102607 0)
(-0.000798731 -0.102397 0)
(-0.00341089 -0.101705 0)
(-0.00373672 -0.101081 0)
(-0.00452444 -0.0989466 0)
(-0.00167182 -0.095469 0)
(0.00169243 -0.0984044 0)
(0.00242854 -0.100382 0)
(0.00221113 -0.100178 0)
(0.00128963 -0.100864 0)
(0.000773519 -0.100895 0)
(-0.000500914 -0.100864 0)
(-0.00126339 -0.100874 0)
(-0.00221695 -0.100188 0)
(-0.00242731 -0.100377 0)
(-0.00169633 -0.0984043 0)
(0.000161114 -0.0994793 0)
(0.000702618 -0.0995856 0)
(0.000453484 -0.10005 0)
(0.000680489 -0.0998688 0)
(9.00333e-05 -0.100136 0)
(-0.000218054 -0.100089 0)
(-0.000677817 -0.0998743 0)
(-0.000479553 -0.100021 0)
(-0.000700199 -0.0995858 0)
(-0.000162361 -0.0994802 0)
(0.0741767 -0.193382 4.10193e-26)
(0.0492973 -0.183998 0)
(0.0296105 -0.175323 0)
(0.0151316 -0.175422 0)
(0.00416567 -0.176006 0)
(-0.00502785 -0.175378 0)
(-0.0153914 -0.173684 0)
(-0.0295095 -0.175586 0)
(-0.0490668 -0.184275 0)
(-0.0742219 -0.193783 -4.14563e-26)
(0.058517 -0.146778 1.00091e-26)
(0.0488766 -0.14666 0)
(0.0290249 -0.156363 0)
(0.0214012 -0.15546 0)
(0.00567093 -0.154665 0)
(-0.0045387 -0.155197 0)
(-0.0206299 -0.157296 0)
(-0.0286727 -0.156555 0)
(-0.0487618 -0.146771 0)
(-0.058543 -0.14694 -1.02603e-26)
(0.0473066 -0.121179 4.48384e-27)
(0.0430429 -0.131122 0)
(0.0291837 -0.133291 0)
(0.0168098 -0.138342 0)
(0.00575947 -0.14042 0)
(-0.00600488 -0.140167 0)
(-0.0171014 -0.136755 0)
(-0.0295629 -0.133202 0)
(-0.0431718 -0.131295 0)
(-0.0473991 -0.121298 -4.38947e-27)
(0.0368271 -0.0991045 9.14257e-27)
(0.0394742 -0.11012 0)
(0.0229736 -0.120519 0)
(0.0174442 -0.124581 0)
(0.00447009 -0.125353 0)
(-0.00547181 -0.125335 0)
(-0.017514 -0.125257 0)
(-0.0228574 -0.120722 0)
(-0.0394506 -0.110193 0)
(-0.0368164 -0.0991952 -8.9963e-27)
(0.0239356 -0.0818561 -2.0859e-26)
(0.0275606 -0.101447 -2.55232e-26)
(0.0198292 -0.108515 -6.41955e-27)
(0.0108027 -0.114023 -5.51326e-27)
(0.00487172 -0.117014 -3.08368e-28)
(-0.00378681 -0.11739 -3.03591e-28)
(-0.0102698 -0.11432 -5.48464e-27)
(-0.01959 -0.108448 -6.43967e-27)
(-0.0274797 -0.101449 -2.55137e-26)
(-0.0239019 -0.081887 -2.08474e-26)
(0.0209065 -0.144699 0)
(0.0158982 -0.203728 0)
(0.0248126 -0.216318 0)
(0.0133831 -0.221855 0)
(0.00888877 -0.225239 0)
(-0.00163161 -0.227942 0)
(-0.00594284 -0.224833 0)
(-0.0200679 -0.217902 0)
(-0.00949102 -0.207387 0)
(-0.0193195 -0.145243 0)
(0.0168837 -0.163753 0)
(0.00243887 -0.197224 0)
(0.0165349 -0.208141 0)
(0.00383141 -0.213639 0)
(0.00575967 -0.214772 0)
(-0.0047804 -0.216008 0)
(-0.00252963 -0.214235 0)
(-0.0134799 -0.210503 0)
(-0.000499425 -0.201578 0)
(-0.0153474 -0.168887 0)
(0.0146726 -0.171568 0)
(-0.00451553 -0.20295 0)
(0.011068 -0.208643 0)
(0.000852305 -0.209223 0)
(0.00434903 -0.21007 0)
(-0.00057044 -0.210979 0)
(0.00213484 -0.211301 0)
(-0.00927985 -0.210415 0)
(0.00526778 -0.205072 0)
(-0.0141004 -0.173776 0)
(0.0194295 -0.195496 0)
(-0.0074279 -0.204074 0)
(0.00959818 -0.210362 0)
(0.000305278 -0.207135 0)
(0.000639932 -0.206654 0)
(-0.000659848 -0.207027 0)
(0.000463848 -0.20586 0)
(-0.00844643 -0.211665 0)
(0.00759366 -0.205632 0)
(-0.0189943 -0.196861 0)
(0.0381121 -0.215921 0)
(0.011471 -0.203613 0)
(0.0157239 -0.201264 0)
(0.0133665 -0.194905 0)
(0.00337071 -0.191403 0)
(-0.000982916 -0.19188 0)
(-0.0118941 -0.196165 0)
(-0.0153059 -0.201413 0)
(-0.0111178 -0.203637 0)
(-0.0383503 -0.216927 0)
(0.00730065 -0.0114069 0)
(0.0106562 -0.0121864 0)
(0.0161699 -0.00766273 0)
(0.0177318 0.00418122 0)
(0.012272 0.00750581 0)
(0.00822195 0.00157651 0)
(0.00738624 -0.00267215 0)
(0.00782405 -0.00355979 0)
(0.00826885 -0.00390036 0)
(0.00877374 -0.00310022 0)
(0.0179515 -0.000893177 0)
(0.0108742 -0.00739015 0)
(0.00892262 -0.00569682 0)
(0.0110763 0.00377643 0)
(0.0146549 0.00931005 0)
(0.0159139 0.00913776 0)
(0.0147 0.0044945 0)
(0.0118851 0.00141118 0)
(0.0076508 0.00291836 0)
(-0.000477073 0.00763524 0)
(0.023248 0.00594919 0)
(0.021428 0.00491319 0)
(0.0185675 -0.00436114 0)
(0.0180323 -0.0069542 0)
(0.0189575 -0.00323145 0)
(0.0199409 0.0034112 0)
(0.0188103 0.0059695 0)
(0.0142845 0.00997808 0)
(0.00571644 0.020531 0)
(-0.00914759 0.0362086 0)
(0.0187302 0.00796117 0)
(0.0204567 0.00222424 0)
(0.0211457 -0.00121792 0)
(0.0206245 0.000786213 0)
(0.017708 0.00545985 0)
(0.0147522 0.0089383 0)
(0.0132555 0.0152655 0)
(0.00900186 0.0271135 0)
(0.00169105 0.0458851 0)
(-0.00440063 0.0584014 0)
(0.0161424 0.00682427 0)
(0.0162537 -0.00111616 0)
(0.0153643 -0.00254591 0)
(0.014798 0.000962219 0)
(0.0145649 0.0093416 0)
(0.0122375 0.0124035 0)
(0.0101294 0.0196677 0)
(0.00634305 0.0354108 0)
(0.00544066 0.0507849 0)
(0.00471205 0.0642593 0)
(0.0152656 0.00629018 0)
(0.0152326 0.00161165 0)
(0.0146862 0.00131979 0)
(0.0136396 0.00266086 0)
(0.0131742 0.0104678 0)
(0.0105134 0.0166561 0)
(0.0077756 0.0265354 0)
(0.00513632 0.0369093 0)
(0.00701017 0.0481231 0)
(0.00993002 0.0597246 0)
(0.0113846 0.00219656 0)
(0.0120473 -0.000429865 0)
(0.0123015 0.0010306 0)
(0.00983161 0.005184 0)
(0.00754137 0.0157655 0)
(0.00386293 0.0235049 0)
(0.00212766 0.0305901 0)
(0.00177326 0.0369463 0)
(0.00350159 0.0436576 0)
(0.0101091 0.0495414 0)
(0.00617823 -0.000981344 0)
(0.00785417 -0.000251381 0)
(0.00749764 0.00449588 0)
(0.00395958 0.0120888 0)
(-0.00112244 0.022364 0)
(-0.0033478 0.0292901 0)
(-0.0047992 0.0322931 0)
(-0.00176803 0.0343356 0)
(0.00130482 0.0319464 0)
(0.0067233 0.0289205 0)
(0.00239695 -0.00643489 0)
(0.00372316 -0.00342906 0)
(0.000376906 0.00920472 0)
(-0.00732293 0.0244603 0)
(-0.0100268 0.0301315 0)
(-0.011072 0.030371 0)
(-0.00748903 0.0255114 0)
(-0.00574809 0.0239307 0)
(-0.00456153 0.0294494 0)
(-0.00544491 0.0152934 0)
(-0.00281821 -0.00715139 0)
(-0.00610205 0.00439157 0)
(-0.0113005 0.0268496 0)
(-0.0177894 0.0319902 0)
(-0.0194694 0.0272308 0)
(-0.0165394 0.0237517 0)
(-0.0154509 0.0263272 0)
(-0.0159159 0.0266787 0)
(-0.00854131 0.0287647 0)
(0.0063092 -0.00342915 0)
(-0.00653399 0.00270702 0)
(-0.0123597 0.0143946 0)
(-0.0133865 0.0381107 0)
(-0.0182883 0.0406154 0)
(-0.0231861 0.0267459 0)
(-0.0236863 0.0217944 0)
(-0.0237702 0.0221489 0)
(-0.0183348 0.0121211 0)
(-0.00290321 -0.0154414 0)
(0.0105873 -0.0350669 0)
(0.00802392 0.0249842 0)
(-0.00561941 0.0177532 0)
(-0.00824969 0.0395204 0)
(-0.00852944 0.0501804 0)
(-0.0155634 0.0384878 0)
(-0.0163639 0.0232616 0)
(-0.0136527 0.0149566 0)
(-0.0040021 -0.0107715 0)
(0.00661501 -0.0386532 0)
(0.0131108 -0.0472293 0)
(0.0113586 0.0480492 0)
(0.00253558 0.0422551 0)
(-0.00743613 0.0436833 0)
(-0.00825841 0.0534477 0)
(-0.00991809 0.0446466 0)
(-0.0115966 0.0215164 0)
(-0.00731536 0.000625503 0)
(-0.00129561 -0.0280994 0)
(0.0026282 -0.0483983 0)
(-0.00284497 -0.0530412 0)
(0.00576464 0.0530416 0)
(0.0064534 0.0543958 0)
(-0.00160891 0.0582731 0)
(-0.00973462 0.0581538 0)
(-0.0126991 0.0466015 0)
(-0.0157824 0.0210578 0)
(-0.0175759 -0.00925095 0)
(-0.0188708 -0.030268 0)
(-0.0259143 -0.0308362 0)
(-0.0446413 -0.0128424 0)
(0.00769631 0.0544049 0)
(0.00709525 0.0572742 0)
(0.00258175 0.0773737 0)
(-0.0100285 0.0745046 0)
(-0.0131664 0.0574555 0)
(-0.0178767 0.0338149 0)
(-0.024857 0.00270449 0)
(-0.0308244 -0.0087502 0)
(-0.0481741 -0.00297241 0)
(-0.0642127 0.0119694 0)
(-0.0012636 0.05128 0)
(-0.00591612 0.0696306 0)
(-0.0155497 0.093256 0)
(-0.0182499 0.0857904 0)
(-0.0204186 0.0663562 0)
(-0.0260288 0.0409589 0)
(-0.0321459 0.0176232 0)
(-0.0438631 0.0154194 0)
(-0.054747 0.0296547 0)
(-0.071661 0.0446901 0)
(-0.0185953 0.0698192 0)
(-0.027542 0.0853664 0)
(-0.0241698 0.0936187 0)
(-0.0201633 0.0855214 0)
(-0.0209875 0.0734553 0)
(-0.0226701 0.0533239 0)
(-0.0318433 0.0390226 0)
(-0.0454515 0.0382024 0)
(-0.0516882 0.0524009 0)
(-0.0591638 0.0729884 0)
(-0.0329746 0.0767471 0)
(-0.0299753 0.0814066 0)
(-0.0256904 0.081388 0)
(-0.02311 0.0821802 0)
(-0.0235422 0.0768303 0)
(-0.0281228 0.066067 0)
(-0.0392691 0.0618997 0)
(-0.047848 0.053315 0)
(-0.0501809 0.0600596 0)
(-0.0510186 0.0905503 0)
(-0.0410525 0.0668046 0)
(-0.0364711 0.0736279 0)
(-0.031871 0.0800904 0)
(-0.030366 0.084656 0)
(-0.0321745 0.0835238 0)
(-0.0364213 0.0799134 0)
(-0.042192 0.0756906 0)
(-0.0478197 0.0629025 0)
(-0.0503052 0.0648823 0)
(-0.0493451 0.0847639 0)
(-0.0450203 0.0527613 0)
(-0.0420341 0.0602202 0)
(-0.0390704 0.0715693 0)
(-0.0365773 0.0817865 0)
(-0.0344386 0.0859305 0)
(-0.0351302 0.0875178 0)
(-0.0388541 0.0845914 0)
(-0.043174 0.0722038 0)
(-0.0436672 0.0704135 0)
(-0.0428612 0.0749758 0)
(-0.0403418 0.0484021 0)
(-0.0381023 0.0602675 0)
(-0.0371481 0.0699424 0)
(-0.0341835 0.0769816 0)
(-0.0294168 0.0835046 0)
(-0.0261648 0.0897554 0)
(-0.0270519 0.0900464 0)
(-0.0278258 0.077044 0)
(-0.0279588 0.0651091 0)
(-0.0261334 0.0630668 0)
(-0.0259712 0.0387122 0)
(-0.0249407 0.050817 0)
(-0.0250032 0.0616057 0)
(-0.0237436 0.0647744 0)
(-0.0221139 0.067821 0)
(-0.0207666 0.0806604 0)
(-0.0169731 0.0834254 0)
(-0.0135528 0.0788205 0)
(-0.0114581 0.0686332 0)
(-0.0104612 0.0602463 0)
(0.00504525 0.0387376 0)
(-0.00230644 0.0537267 0)
(-0.00354319 0.0699921 0)
(-0.00398208 0.0750106 0)
(-0.00595531 0.0722813 0)
(-0.00404265 0.0718798 0)
(-0.000218885 0.0709136 0)
(0.00461583 0.065675 0)
(0.00805663 0.0550579 0)
(0.00872325 0.0383157 0)
(0.054911 0.0831777 0)
(0.037312 0.0678248 0)
(0.0283605 0.0662721 0)
(0.0265372 0.068328 0)
(0.0276685 0.0716991 0)
(0.0298734 0.0718013 0)
(0.0351609 0.0659231 0)
(0.0470764 0.0615716 0)
(0.0499092 0.0654466 0)
(0.0493842 0.0601197 0)
(0.0929361 0.0835133 0)
(0.0891723 0.102845 0)
(0.0811333 0.100559 0)
(0.0602502 0.0833463 0)
(0.0480475 0.0732882 0)
(0.0415128 0.0583583 0)
(0.0468923 0.042838 0)
(0.0537976 0.0390567 0)
(0.0626566 0.0483749 0)
(0.0732774 0.0563007 0)
(0.0918682 0.0549414 0)
(0.105986 0.0797167 0)
(0.115508 0.119851 0)
(0.101703 0.129403 0)
(0.0752288 0.110152 0)
(0.0495642 0.0698062 0)
(0.0443606 0.0355174 0)
(0.0477845 0.0211641 0)
(0.0527582 0.0218735 0)
(0.0635817 0.0409961 0)
(0.100781 0.042017 0)
(0.104949 0.0487319 0)
(0.111964 0.105754 0)
(0.102432 0.16023 0)
(0.0812676 0.173683 0)
(0.0613604 0.124255 0)
(0.0509838 0.0479262 0)
(0.052117 0.0170913 0)
(0.0542142 0.0135271 0)
(0.0563545 0.0252607 0)
(0.0935171 0.0435188 0)
(0.0842707 0.069884 0)
(0.0693129 0.143431 0)
(0.0558071 0.185457 0)
(0.0572283 0.187822 0)
(0.0651064 0.135805 0)
(0.0723401 0.0509227 0)
(0.0686918 0.0188604 0)
(0.0640261 0.0171417 0)
(0.058753 0.0318269 0)
(0.0165131 0.0765944 0)
(0.00842466 0.109323 0)
(0.0139758 0.155466 0)
(0.0312247 0.174221 0)
(0.0521103 0.168071 0)
(0.0710382 0.11067 0)
(0.0807821 0.0481128 0)
(0.076481 0.0315307 0)
(0.0692025 0.0320971 0)
(0.0650455 0.0413393 0)
(0.00430332 0.0729571 0)
(0.00649787 0.0987144 0)
(0.0136006 0.11743 0)
(0.025768 0.108534 0)
(0.0485172 0.0985767 0)
(0.0678111 0.0731566 0)
(0.0740416 0.0488246 0)
(0.06994 0.0431222 0)
(0.0660527 0.0438364 0)
(0.0606654 0.0501166 0)
(0.017466 0.0457808 0)
(0.0277834 0.0850674 0)
(0.0382674 0.0957906 0)
(0.0463508 0.0864164 0)
(0.056604 0.0668137 0)
(0.0597474 0.0550471 0)
(0.0597299 0.0443666 0)
(0.0593053 0.0431544 0)
(0.0594368 0.0451288 0)
(0.060737 0.0602152 0)
(0.0663625 0.0399783 0)
(0.0670363 0.069494 0)
(0.0728573 0.0864413 0)
(0.075308 0.0845173 0)
(0.0725677 0.0746934 0)
(0.0685816 0.0616538 0)
(0.0617674 0.0479776 0)
(0.0552295 0.043504 0)
(0.0497461 0.0457781 0)
(0.0509051 0.05951 0)
(0.108794 0.0461146 0)
(0.109354 0.066169 0)
(0.107329 0.080207 0)
(0.107423 0.087911 0)
(0.106874 0.0883904 0)
(0.103881 0.0854996 0)
(0.0967687 0.0789182 0)
(0.0841331 0.0765775 0)
(0.0682923 0.0602111 0)
(0.059345 0.0623998 0)
(0.112485 0.0228545 0)
(0.119398 0.0712942 0)
(0.11608 0.0866832 0)
(0.114319 0.0853987 0)
(0.116082 0.0803929 0)
(0.120633 0.0749482 0)
(0.122533 0.0743211 0)
(0.123665 0.0788223 0)
(0.122636 0.0918632 0)
(0.11154 0.0945572 0)
(0.121647 0.0254035 0)
(0.121607 0.070712 0)
(0.12237 0.0921855 0)
(0.121618 0.0909516 0)
(0.12015 0.0834021 0)
(0.121943 0.0741937 0)
(0.124936 0.0716231 0)
(0.1267 0.07443 0)
(0.127713 0.0890386 0)
(0.12709 0.117291 0)
(0.0794751 0.0248815 0)
(0.0861228 0.0555439 0)
(0.0917282 0.0859044 0)
(0.0923617 0.0841477 0)
(0.0912783 0.0744311 0)
(0.0933867 0.0710122 0)
(0.0925146 0.075692 0)
(0.0977839 0.0801057 0)
(0.108928 0.0930508 0)
(0.115308 0.119946 0)
(-0.0157853 0.0393653 0)
(-0.00586891 0.0412788 0)
(0.00584775 0.071541 0)
(0.0150355 0.0942532 0)
(0.0181255 0.0828467 0)
(0.0254188 0.0463408 0)
(0.0346645 0.0384688 0)
(0.0392691 0.0493667 0)
(0.0464233 0.0621485 0)
(0.060517 0.107602 0)
(-0.169585 -0.000418483 0)
(-0.176888 0.0347463 0)
(-0.162776 0.0666319 0)
(-0.142842 0.0621992 0)
(-0.135225 0.0602004 0)
(-0.137145 0.0608682 0)
(-0.115769 0.0505601 0)
(-0.0950782 0.0479131 0)
(-0.083482 0.0723316 0)
(-0.0541095 0.0864341 0)
(-0.281435 0.0289147 0)
(-0.274657 0.0339247 0)
(-0.259148 0.039095 0)
(-0.237283 0.0195242 0)
(-0.21124 0.0150286 0)
(-0.181457 0.00783594 0)
(-0.170192 -0.0269486 0)
(-0.156143 -0.015663 0)
(-0.135945 0.00148048 0)
(-0.115149 -0.0022507 0)
(-0.200244 0.0136133 0)
(-0.190044 -0.00222508 0)
(-0.178751 -0.0154195 0)
(-0.162647 -0.0294752 0)
(-0.148136 -0.0265737 0)
(-0.139547 -0.0178962 0)
(-0.134721 -0.0210099 0)
(-0.134686 -0.0197299 0)
(-0.130835 -0.0102995 0)
(-0.130445 -0.00399839 0)
(-0.106505 0.00381824 0)
(-0.103777 -0.00744271 0)
(-0.110961 -0.0230159 0)
(-0.118378 -0.035006 0)
(-0.120334 -0.0387448 0)
(-0.126661 -0.0359715 0)
(-0.136903 -0.025348 0)
(-0.155176 -0.0113914 0)
(-0.170319 -0.00856249 0)
(-0.17521 -0.0108247 0)
(-0.124669 -0.00265666 0)
(-0.126099 0.012402 0)
(-0.135516 0.00753107 0)
(-0.148602 -0.00842526 0)
(-0.160573 -0.00536048 0)
(-0.182692 0.0203196 0)
(-0.203187 0.040643 0)
(-0.219173 0.0388115 0)
(-0.228778 0.0251282 0)
(-0.223388 0.00354518 0)
(-0.226804 -0.0390789 0)
(-0.189892 0.013522 0)
(-0.17405 0.0169849 0)
(-0.17021 0.0147715 0)
(-0.173042 0.025653 0)
(-0.174329 0.0412464 0)
(-0.174751 0.0435202 0)
(-0.186487 0.0349405 0)
(-0.20207 0.00615302 0)
(-0.197714 -0.0431708 0)
(-0.320735 -0.157548 0)
(-0.257092 -0.0839222 0)
(-0.194957 -0.0263845 0)
(-0.155519 0.000148261 0)
(-0.130999 0.0230663 0)
(-0.121593 0.0321207 0)
(-0.118905 0.0579148 0)
(-0.125879 0.0729073 0)
(-0.150404 0.0484258 0)
(-0.159116 -0.0556072 0)
(-0.327923 -0.25112 0)
(-0.291986 -0.232071 0)
(-0.244399 -0.199236 0)
(-0.189128 -0.137691 0)
(-0.137821 -0.0431435 0)
(-0.103226 0.0148275 0)
(-0.100983 0.0650174 0)
(-0.105808 0.0830803 0)
(-0.108006 0.0711859 0)
(-0.111842 -0.0296707 0)
(-0.270738 -0.277155 0)
(-0.272825 -0.279214 0)
(-0.250722 -0.259118 0)
(-0.218794 -0.23054 0)
(-0.196918 -0.169612 0)
(-0.160415 -0.0555918 0)
(-0.129624 0.0604625 0)
(-0.121866 0.0755124 0)
(-0.11734 0.0577292 0)
(-0.113199 -0.0229111 0)
(-0.175753 -0.233632 0)
(-0.200077 -0.262386 0)
(-0.209203 -0.266683 0)
(-0.237233 -0.227185 0)
(-0.240125 -0.185834 0)
(-0.231225 -0.105575 0)
(-0.202038 0.0176032 0)
(-0.189051 0.0477961 0)
(-0.181254 0.0420323 0)
(-0.178638 -0.0169782 0)
(-0.145344 -0.194339 0)
(-0.164972 -0.201376 0)
(-0.175884 -0.208142 0)
(-0.206254 -0.166171 0)
(-0.252535 -0.14856 0)
(-0.260512 -0.114983 0)
(-0.249231 0.0118018 0)
(-0.241646 0.0378483 0)
(-0.230524 0.0320302 0)
(-0.217862 -0.0213621 0)
(-0.140584 -0.175274 0)
(-0.155846 -0.17638 0)
(-0.166797 -0.169706 0)
(-0.177592 -0.125534 0)
(-0.202656 -0.0893855 0)
(-0.221507 -0.0927784 0)
(-0.224127 -0.0229985 0)
(-0.213848 0.0166413 0)
(-0.206894 0.00884905 0)
(-0.200578 -0.0430145 0)
(-0.144154 -0.138882 0)
(-0.162316 -0.147646 0)
(-0.167742 -0.149576 0)
(-0.171418 -0.120303 0)
(-0.166244 -0.0737178 0)
(-0.166662 -0.0659057 0)
(-0.158684 -0.0528149 0)
(-0.140026 -0.00103478 0)
(-0.130285 0.00249471 0)
(-0.122724 -0.0166104 0)
(-0.132945 -0.105815 0)
(-0.150046 -0.133343 0)
(-0.151968 -0.142078 0)
(-0.146332 -0.137527 0)
(-0.123299 -0.0923998 0)
(-0.115235 -0.0685858 0)
(-0.11002 -0.0705845 0)
(-0.0888124 -0.0712047 0)
(-0.0726074 -0.0358788 0)
(-0.054312 -0.00441959 0)
(-0.0722278 -0.0643696 0)
(-0.0820998 -0.131233 0)
(-0.070705 -0.165196 0)
(-0.0665482 -0.175439 0)
(-0.0479588 -0.173192 0)
(-0.0139899 -0.125385 0)
(0.0021312 -0.0548448 0)
(0.0300011 -0.0616867 0)
(0.0523406 -0.058809 0)
(0.043616 -0.0410224 0)
(0.0561228 -0.058029 0)
(0.0554616 -0.0793758 0)
(0.0662448 -0.157332 0)
(0.0679834 -0.186342 0)
(0.0750071 -0.190023 0)
(0.09949 -0.199137 0)
(0.11002 -0.179201 0)
(0.143984 -0.164283 0)
(0.181103 -0.131841 0)
(0.195875 -0.0203576 0)
(0.143308 -0.0788529 0)
(0.134843 -0.0997211 0)
(0.133109 -0.147389 0)
(0.13725 -0.197543 0)
(0.150704 -0.223437 0)
(0.167604 -0.220744 0)
(0.178593 -0.199508 0)
(0.191598 -0.169441 0)
(0.189863 -0.14988 0)
(0.188838 -0.116465 0)
(0.182392 -0.0725282 0)
(0.171564 -0.0874869 0)
(0.175604 -0.133651 0)
(0.191511 -0.217248 0)
(0.195608 -0.246857 0)
(0.200274 -0.244135 0)
(0.198875 -0.225631 0)
(0.203587 -0.18996 0)
(0.193316 -0.16081 0)
(0.189357 -0.128935 0)
(0.164895 -0.0824123 0)
(0.171047 -0.102127 0)
(0.193138 -0.169337 0)
(0.210999 -0.239058 0)
(0.211064 -0.254678 0)
(0.218093 -0.242006 0)
(0.202425 -0.210626 0)
(0.153966 -0.169241 0)
(0.11062 -0.140122 0)
(0.0573315 -0.0145967 0)
(0.165781 -0.0888045 0)
(0.18186 -0.125806 0)
(0.205091 -0.200461 0)
(0.211871 -0.247891 0)
(0.20731 -0.248819 0)
(0.209711 -0.190552 0)
(0.0558443 -0.0601636 0)
(-0.0149665 0.0132167 0)
(-0.0717375 0.0837156 0)
(-0.106426 0.0883688 0)
(0.164898 -0.115732 0)
(0.179515 -0.184501 0)
(0.198455 -0.226025 0)
(0.187729 -0.245947 0)
(0.16083 -0.222315 0)
(0.138219 -0.0258372 0)
(0.00594146 0.196839 0)
(-0.0379392 -0.0234535 0)
(-0.011299 0.0237864 0)
(0.0460411 0.0662324 0)
(0.163383 -0.147337 0)
(0.166746 -0.206588 0)
(0.160468 -0.218435 0)
(0.147232 -0.202841 0)
(0.084814 -0.118352 0)
(0.0750547 0.107489 0)
(0.0627344 0.215846 0)
(0.0772753 0.126845 0)
(0.0263433 -0.0588674 0)
(0.0300131 0.0183368 0)
(0.136798 -0.167711 0)
(0.11329 -0.182456 0)
(0.0987143 -0.169998 0)
(0.0682804 -0.087802 0)
(-0.0110552 -0.014596 0)
(-0.00971746 0.103895 0)
(0.0354198 0.161244 0)
(0.0692089 0.123736 0)
(0.0916442 0.0448953 0)
(0.0843936 0.00423856 0)
(0.0634469 -0.114894 0)
(0.0357466 -0.13794 0)
(0.0218661 -0.107139 0)
(-0.00793131 -0.00286022 0)
(-0.0621954 0.0297173 0)
(-0.058739 0.0571905 0)
(-0.0257669 -0.0155564 0)
(0.0419806 0.03049 0)
(0.0719917 0.00754225 0)
(0.0870156 -0.0481824 0)
(0.0266614 -0.0590726 0)
(-0.00779508 -0.0774008 0)
(-0.0245429 -0.0349084 0)
(-0.0463267 0.130718 0)
(-0.0362481 0.0367953 0)
(-0.0242516 0.0292353 0)
(-0.0139021 -0.0988378 0)
(0.00121755 -0.0998364 0)
(0.06022 -0.0775067 0)
(0.102148 -0.125993 0)
(-0.0406907 -0.0324493 0)
(-0.0448121 -0.0733395 0)
(-0.0453947 -0.0855249 0)
(-0.0127753 -0.00392701 0)
(0.00177793 -0.00824386 0)
(-0.00886908 0.00344608 0)
(-0.0269302 -0.0301775 0)
(-0.0366947 -0.0607749 0)
(0.00211152 -0.151809 0)
(0.087204 -0.283436 0)
(-0.0197905 -0.0222452 0)
(-0.0378721 -0.0417681 0)
(-0.100302 -0.0336325 0)
(-0.124611 0.0362898 0)
(-0.118545 0.0552731 0)
(-0.100403 0.0548979 0)
(-0.0549146 -0.0592166 0)
(-0.000226562 -0.179231 0)
(0.0965695 -0.391025 0)
(0.159761 -0.449808 0)
(-0.0857381 0.0290336 0)
(-0.113028 0.0655304 0)
(-0.111536 0.0831648 0)
(-0.0944803 0.0329028 0)
(-0.0523798 -0.0625929 0)
(-0.0139644 -0.0956139 0)
(0.0656072 -0.245546 0)
(0.141425 -0.398604 0)
(0.201763 -0.500025 0)
(0.239926 -0.524542 0)
(0.0113348 0.0420716 0)
(-0.0189066 0.0151927 0)
(0.00367328 -0.0524815 0)
(0.0293149 -0.106139 0)
(0.0673472 -0.190264 0)
(0.0995632 -0.239395 0)
(0.162218 -0.318758 0)
(0.215853 -0.492918 0)
(0.238645 -0.564652 0)
(0.250815 -0.565666 0)
(0.161889 0.0851339 0)
(0.167655 0.0457155 0)
(0.176349 0.0158823 0)
(0.200036 -0.0511035 0)
(0.184878 -0.186066 0)
(0.195287 -0.262617 0)
(0.240833 -0.388069 0)
(0.263846 -0.525142 0)
(0.264755 -0.576803 0)
(0.256957 -0.569286 0)
(0.147902 0.0318863 0)
(0.159437 -0.0226625 0)
(0.180335 -0.0538957 0)
(0.221964 -0.0989352 0)
(0.212677 -0.158013 0)
(0.24651 -0.287128 0)
(0.25883 -0.441451 0)
(0.265184 -0.53822 0)
(0.245539 -0.551253 0)
(0.194745 -0.498934 0)
(0.116617 0.00112755 0)
(0.114773 -0.039887 0)
(0.129701 -0.0963612 0)
(0.160155 -0.164895 0)
(0.197526 -0.222047 0)
(0.230537 -0.361132 0)
(0.249877 -0.459434 0)
(0.213548 -0.481864 0)
(0.165287 -0.433253 0)
(0.0711397 -0.327806 0)
(0.0475468 0.0155217 0)
(0.0545835 -0.0812112 0)
(0.0946609 -0.196217 0)
(0.149893 -0.228045 0)
(0.1715 -0.316403 0)
(0.210136 -0.406536 0)
(0.175016 -0.419769 0)
(0.144719 -0.380262 0)
(0.057239 -0.281014 0)
(0.0232623 -0.266498 0)
(0.0291898 0.0122913 0)
(0.0627632 -0.146219 0)
(0.0882131 -0.209551 0)
(0.116527 -0.312544 0)
(0.164563 -0.376688 0)
(0.141884 -0.379658 0)
(0.100142 -0.336261 0)
(0.0480716 -0.221802 0)
(0.00421032 -0.221761 0)
(-0.0150917 -0.229794 0)
(-0.0652029 -0.118003 0)
(-0.00208963 -0.254724 0)
(0.0488744 -0.298301 0)
(0.0948497 -0.394386 0)
(0.0677417 -0.366411 0)
(0.0373079 -0.278452 0)
(-0.036127 -0.189482 0)
(-0.0492995 -0.182062 0)
(-0.0591496 -0.202023 0)
(-0.0899132 -0.172434 0)
(-0.135771 -0.310019 0)
(-0.0935344 -0.390569 0)
(-0.0633152 -0.415337 0)
(-0.0755413 -0.393744 0)
(-0.0765575 -0.249304 0)
(-0.0911523 -0.183741 0)
(-0.107811 -0.176089 0)
(-0.110483 -0.180694 0)
(-0.126792 -0.151957 0)
(-0.161186 -0.0978568 0)
(-0.180086 -0.343314 0)
(-0.187256 -0.38908 0)
(-0.184678 -0.395909 0)
(-0.176613 -0.36255 0)
(-0.1381 -0.243997 0)
(-0.12739 -0.190002 0)
(-0.145306 -0.165951 0)
(-0.152049 -0.142017 0)
(-0.164806 -0.0913748 0)
(-0.188952 -0.0590164 0)
(-0.208653 -0.337117 0)
(-0.226651 -0.399271 0)
(-0.227872 -0.419995 0)
(-0.230941 -0.411891 0)
(-0.202484 -0.311875 0)
(-0.156959 -0.19598 0)
(-0.162454 -0.156242 0)
(-0.169991 -0.127317 0)
(-0.171915 -0.0688738 0)
(-0.18434 -0.0425954 0)
(-0.187655 -0.299336 0)
(-0.23435 -0.381909 0)
(-0.242292 -0.416951 0)
(-0.253902 -0.418734 0)
(-0.251439 -0.378601 0)
(-0.199106 -0.242096 0)
(-0.16777 -0.166875 0)
(-0.163509 -0.124612 0)
(-0.145271 -0.06179 0)
(-0.153066 -0.03357 0)
(-0.123759 -0.20212 0)
(-0.174314 -0.289856 0)
(-0.214588 -0.379934 0)
(-0.246115 -0.405286 0)
(-0.255686 -0.404742 0)
(-0.230739 -0.353564 0)
(-0.165855 -0.218601 0)
(-0.141449 -0.148158 0)
(-0.0997407 -0.0919823 0)
(-0.10131 -0.0318524 0)
(-0.0814574 -0.18123 0)
(-0.0837473 -0.229878 0)
(-0.0797129 -0.264471 0)
(-0.117593 -0.335444 0)
(-0.173848 -0.384656 0)
(-0.183219 -0.419579 0)
(-0.147357 -0.377751 0)
(-0.113532 -0.21718 0)
(-0.0453858 -0.158733 0)
(-0.0134332 -0.0267719 0)
(0.0330002 -0.168109 0)
(0.03127 -0.28372 0)
(0.0408656 -0.28267 0)
(0.0326517 -0.254405 0)
(0.0273518 -0.268255 0)
(0.0064562 -0.373828 0)
(0.00535824 -0.446734 0)
(-0.00944803 -0.342768 0)
(0.0478395 -0.224064 0)
(0.0446947 -0.119382 0)
(0.125453 -0.0938726 0)
(0.109363 -0.244851 0)
(0.106647 -0.295166 0)
(0.115153 -0.304732 0)
(0.125591 -0.293693 0)
(0.159722 -0.317017 0)
(0.215015 -0.374955 0)
(0.219516 -0.363781 0)
(0.186576 -0.289515 0)
(0.16125 -0.103458 0)
(0.132637 -0.145282 0)
(0.124737 -0.241097 0)
(0.140654 -0.289755 0)
(0.172261 -0.313651 0)
(0.203001 -0.373488 0)
(0.293412 -0.465715 0)
(0.313468 -0.44593 0)
(0.322734 -0.367904 0)
(0.283191 -0.226254 0)
(0.270002 -0.0125598 0)
(0.0755266 -0.169406 0)
(0.0963115 -0.285579 0)
(0.16246 -0.363136 0)
(0.225604 -0.480243 0)
(0.30338 -0.559728 0)
(0.348238 -0.529983 0)
(0.347141 -0.467225 0)
(0.347994 -0.343041 0)
(0.288073 -0.217662 0)
(0.283753 0.0432354 0)
(0.0327556 -0.218117 0)
(0.0623722 -0.3978 0)
(0.115888 -0.572239 0)
(0.182558 -0.661385 0)
(0.228244 -0.674966 0)
(0.256286 -0.624745 0)
(0.246135 -0.500171 0)
(0.233017 -0.337305 0)
(0.173695 -0.163068 0)
(0.166456 0.0862238 0)
(-0.013934 -0.257858 0)
(-0.00224317 -0.442213 0)
(0.00158442 -0.646934 0)
(-0.00403437 -0.689151 0)
(-0.0207254 -0.681822 0)
(-0.0158552 -0.506867 0)
(-0.0659318 -0.308538 0)
(-0.09512 -0.160613 0)
(-0.114097 0.046633 0)
(-0.0927022 0.153773 0)
(-0.0377606 -0.252299 0)
(-0.0537408 -0.475262 0)
(-0.108819 -0.603025 0)
(-0.103437 -0.637537 0)
(-0.128662 -0.621861 0)
(-0.103826 -0.407009 0)
(-0.157237 -0.246732 0)
(-0.181777 -0.133505 0)
(-0.177016 0.00544721 0)
(-0.164277 0.0846225 0)
(-0.0179452 -0.173833 0)
(-0.0927243 -0.38955 0)
(-0.152586 -0.566636 0)
(-0.145643 -0.631754 0)
(-0.159449 -0.610533 0)
(-0.131042 -0.398864 0)
(-0.147004 -0.225382 0)
(-0.170211 -0.13108 0)
(-0.150963 7.61802e-05 0)
(-0.173316 0.0743251 0)
(0.0182537 -0.150006 0)
(0.0129199 -0.146367 0)
(-0.130441 -0.479095 0)
(-0.150588 -0.626214 0)
(-0.156386 -0.630211 0)
(-0.106431 -0.524864 0)
(-0.0461552 -0.233921 0)
(-0.0699372 -0.10011 0)
(-0.111178 -0.0187063 0)
(-0.123864 0.0616927 0)
(0.0460917 -0.169474 0)
(0.0650994 -0.0705177 0)
(-0.0385576 -0.296499 0)
(-0.0775529 -0.637871 0)
(-0.0623305 -0.664474 0)
(-0.051887 -0.616628 0)
(-0.0223326 -0.465797 0)
(0.0504708 0.109422 0)
(-0.0445882 0.0692631 0)
(-0.0688353 0.113241 0)
(0.0907479 -0.17023 0)
(0.127038 -0.107743 0)
(0.0855196 0.0141461 0)
(-0.00652393 -0.59206 0)
(-0.0159084 -0.642751 0)
(-0.0144511 -0.623354 0)
(-0.0139397 -0.549741 0)
(0.0755848 -0.0447723 0)
(0.0638503 0.156947 0)
(-0.0660035 0.18601 0)
(0.0610543 -0.176496 0)
(0.0880586 -0.111087 0)
(-0.0185063 0.0636943 0)
(-0.00427378 -0.585564 0)
(-0.0159215 -0.622959 0)
(-0.0119116 -0.633024 0)
(-0.0053977 -0.597166 0)
(0.0444591 -0.0942344 0)
(0.128919 0.248509 0)
(0.0529358 0.317421 0)
(-0.0249759 -0.160036 0)
(0.0114111 0.00176992 0)
(-0.0534077 0.257289 0)
(0.0145433 -0.586214 0)
(-0.0240685 -0.61315 0)
(-0.028645 -0.62404 0)
(-0.0350077 -0.611638 0)
(-0.0576422 -0.253309 0)
(0.136873 0.295109 0)
(0.126341 0.30344 0)
(-0.146543 -0.114105 0)
(-0.153495 0.0183237 0)
(-0.0100114 0.0472413 0)
(0.0150443 -0.559087 0)
(-0.0136925 -0.579573 0)
(-0.0310908 -0.571833 0)
(-0.0475919 -0.573793 0)
(-0.0905192 -0.325412 0)
(-0.00130961 0.0384854 0)
(0.0766884 0.171719 0)
(-0.0736972 -0.123247 0)
(-0.118595 -0.0531305 0)
(-0.00558271 -0.31779 0)
(0.0177071 -0.548917 0)
(-0.00974105 -0.541154 0)
(-0.0293787 -0.53839 0)
(-0.0391504 -0.530793 0)
(-0.0576055 -0.358293 0)
(-0.0473937 -0.0570241 0)
(-0.0418118 0.0223316 0)
(0.0848566 -0.298243 0)
(-0.0224833 0.0134281 0)
(0.0504328 -0.397855 0)
(0.0410493 -0.501868 0)
(0.022753 -0.51962 0)
(0.00257044 -0.510867 0)
(-0.00912145 -0.508661 0)
(-0.033695 -0.436118 0)
(0.0193051 -0.0523971 0)
(-0.0134006 0.0124192 0)
(-0.0237292 -0.0790227 0)
(-0.0375445 0.0546627 0)
(0.0508165 -0.440901 0)
(0.0349484 -0.473191 0)
(0.0118673 -0.476735 0)
(-0.00624036 -0.476432 0)
(-0.022039 -0.466222 0)
(-0.0436722 -0.44977 0)
(0.0221625 -0.062853 0)
(0.145384 0.0358618 0)
(0.00882117 -0.0254658 0)
(0.0649377 -0.117622 0)
(0.0784545 -0.396458 0)
(0.0404634 -0.41732 0)
(0.0127509 -0.427096 0)
(-0.0120119 -0.426978 0)
(-0.0358777 -0.434745 0)
(-0.0638503 -0.420166 0)
(-0.0893118 -0.352355 0)
(-0.0125883 0.104127 0)
(0.0138 0.0532866 0)
(0.07554 -0.196758 0)
(0.0699007 -0.346897 0)
(0.0477881 -0.380182 0)
(0.0222946 -0.38696 0)
(0.00159774 -0.387988 0)
(-0.022117 -0.382092 0)
(-0.0596898 -0.354357 0)
(-0.0671811 -0.293176 0)
(-0.00180558 -0.137335 0)
(-0.00861214 -0.0318071 0)
(0.0679431 -0.258391 0)
(0.0715889 -0.31474 0)
(0.0409734 -0.326651 0)
(0.0153636 -0.329699 0)
(-0.0136192 -0.332569 0)
(-0.0434425 -0.331939 0)
(-0.0671629 -0.321533 0)
(-0.0740495 -0.283517 0)
(-0.0980322 -0.161088 0)
(0.109424 -0.144295 0)
(0.0779183 -0.216011 0)
(0.0740678 -0.258686 0)
(0.0387217 -0.276407 0)
(0.0175952 -0.286527 0)
(-0.00525285 -0.287255 0)
(-0.0291868 -0.278649 0)
(-0.0655479 -0.263068 0)
(-0.0696133 -0.227591 0)
(-0.095688 -0.218626 0)
(0.0603265 -0.109466 0)
(0.0514292 -0.191555 0)
(0.0477542 -0.233283 0)
(0.0278113 -0.247169 0)
(0.0156621 -0.247877 0)
(-0.0128138 -0.248575 0)
(-0.0193799 -0.247884 0)
(-0.0387115 -0.237396 0)
(-0.0502078 -0.196088 0)
(-0.0498457 -0.14772 0)
(0.00569963 -0.000833662 0)
(-0.000597426 0.00279729 0)
(-0.00791761 0.00858217 0)
(-0.0148758 0.00374877 0)
(-0.0165875 0.000498538 0)
(-0.0192026 0.000433236 0)
(-0.0214961 0.00442951 0)
(-0.0283482 0.0177208 0)
(-0.0388459 0.0242808 0)
(-0.0518367 0.00751344 0)
(-0.0530907 -0.0031996 0)
(-0.0538998 -0.00608686 0)
(-0.0575388 -0.00619884 0)
(-0.0612436 -0.00286222 0)
(-0.0637531 0.0040777 0)
(-0.0675226 0.00713472 0)
(-0.072373 0.00536304 0)
(-0.0760334 0.00255401 0)
(-0.078601 0.0027551 0)
(-0.0811861 0.00474626 0)
(-0.082342 0.00430463 0)
(-0.0823765 0.00108119 0)
(-0.079737 -0.0028553 0)
(-0.0762911 -0.0042374 0)
(-0.0709008 -0.00445391 0)
(-0.0633935 -0.00482583 0)
(-0.0603763 -0.00323172 0)
(-0.0588264 -0.00410804 0)
(-0.0572619 -0.00369651 0)
(-0.0550696 -0.0057183 0)
(-0.0518785 -0.00332016 0)
(-0.0517849 -0.00188989 0)
(-0.0512063 -0.00124906 0)
(-0.0477529 -0.00348061 0)
(-0.0446529 -0.00419454 0)
(-0.0394131 -0.00619478 0)
(-0.0325253 -0.00978774 0)
(-0.0215832 -0.0149799 0)
(-0.00588514 -0.00754974 0)
(0.00200341 0.00461235 0)
(-0.0133447 0.0198291 0)
(-0.0275754 0.0235454 0)