/*--------------------------------*- C++ -*----------------------------------*\
  =========                 |
  \\      /  F ield         | OpenFOAM: The Open Source CFD Toolbox
   \\    /   O peration     | Website:  https://openfoam.org
    \\  /    A nd           | Version:  8
     \\/     M anipulation  |
\*---------------------------------------------------------------------------*/
FoamFile
{
    version     2.0;
    format      ascii;
    class       surfaceScalarField;
    location    "5.1";
    object      alphaPhi0.water;
}
// * * * * * * * * * * * * * * * * * * * * * * * * * * * * * * * * * * * * * //

dimensions      [0 3 -1 0 0 0 0];

internalField   nonuniform List<scalar> 
18095
(
1.9843e-08
-1.72045e-07
1.52202e-07
2.32523e-08
-1.97876e-07
1.94466e-07
2.0186e-08
-2.06115e-07
2.09181e-07
1.1648e-08
-2.10759e-07
2.19297e-07
7.04466e-10
-2.13189e-07
2.24133e-07
-1.0607e-08
-2.13481e-07
2.24792e-07
-1.98598e-08
-2.10745e-07
2.19998e-07
-2.31666e-08
-2.05903e-07
2.0921e-07
-1.98268e-08
-1.97826e-07
1.94486e-07
-1.72062e-07
1.52235e-07
1.55446e-08
-1.87589e-07
1.5919e-08
-1.9825e-07
1.19454e-08
-2.02141e-07
6.46708e-09
-2.05281e-07
4.04141e-10
-2.07126e-07
-6.29347e-09
-2.06783e-07
-1.20679e-08
-2.04971e-07
-1.5931e-08
-2.0204e-07
-1.55186e-08
-1.98238e-07
-1.87581e-07
6.81901e-09
-1.94408e-07
8.36713e-09
-1.99798e-07
7.1927e-09
-2.00967e-07
3.75394e-09
-2.01842e-07
-5.70276e-10
-2.02802e-07
-4.6082e-09
-2.02745e-07
-7.29137e-09
-2.02287e-07
-8.33373e-09
-2.00998e-07
-6.81251e-09
-1.9976e-07
-1.94393e-07
4.51949e-09
-1.98928e-07
4.69318e-09
-1.99972e-07
3.71208e-09
-1.99986e-07
2.22471e-09
-2.00354e-07
3.25001e-10
-2.00902e-07
-1.68682e-09
-2.00733e-07
-3.58812e-09
-2.00386e-07
-4.69989e-09
-1.99886e-07
-4.52931e-09
-1.9993e-07
-1.98923e-07
1.07226e-09
1.1007e-09
1.11512e-09
7.6064e-10
-1.41709e-10
-8.74983e-10
-1.26095e-09
-1.14711e-09
-1.07731e-09
-2.78147e-08
-1.96543e-07
2.24358e-07
-3.04373e-08
-1.99194e-07
2.01817e-07
-2.60903e-08
-2.00817e-07
1.9647e-07
-1.58735e-08
-2.01084e-07
1.90867e-07
-1.94089e-09
-2.0176e-07
1.87827e-07
1.25815e-08
-2.02048e-07
1.87526e-07
2.45475e-08
-2.01767e-07
1.89801e-07
3.01255e-08
-2.01473e-07
1.95895e-07
2.77049e-08
-1.99052e-07
2.01473e-07
-1.96261e-07
2.23966e-07
-9.65969e-09
-1.86883e-07
-1.53812e-08
-1.93473e-07
-1.33947e-08
-2.02803e-07
-6.46438e-09
-2.08014e-07
2.70695e-10
-2.08495e-07
7.11685e-09
-2.08894e-07
1.41874e-08
-2.08838e-07
1.55633e-08
-2.02849e-07
9.67987e-09
-1.93169e-07
-1.86582e-07
-1.0555e-08
-1.76328e-07
-8.45544e-09
-1.95572e-07
-6.01146e-09
-2.05247e-07
-3.2135e-09
-2.10812e-07
1.57829e-09
-2.13287e-07
5.49661e-09
-2.12812e-07
6.27754e-09
-2.09619e-07
8.20647e-09
-2.04778e-07
1.03851e-08
-1.95348e-07
-1.76196e-07
-6.50099e-09
-1.69827e-07
-8.66441e-09
-1.93409e-07
-8.7657e-09
-2.05146e-07
-4.50875e-09
-2.15069e-07
-1.00021e-09
-2.16795e-07
2.54035e-09
-2.16353e-07
7.69763e-09
-2.14776e-07
8.21583e-09
-2.05296e-07
6.32369e-09
-1.93456e-07
-1.69873e-07
-1.76255e-08
-1.65683e-08
-1.25333e-08
-8.30558e-09
-9.67896e-10
7.4712e-09
1.26927e-08
1.66066e-08
1.76373e-08
3.38881e-08
-1.57876e-07
1.23988e-07
3.61701e-08
-1.98733e-07
1.96451e-07
2.57372e-08
-2.10952e-07
2.21385e-07
1.06412e-08
-2.16141e-07
2.31237e-07
-6.10995e-09
-2.17256e-07
2.34007e-07
-2.34716e-08
-2.16985e-07
2.34346e-07
-3.57156e-08
-2.15687e-07
2.27931e-07
-4.23342e-08
-2.10486e-07
2.17105e-07
-3.66177e-08
-1.9859e-07
1.92873e-07
-1.57294e-07
1.20677e-07
1.70555e-08
-1.74931e-07
1.97545e-08
-2.01432e-07
1.6153e-08
-2.0735e-07
8.00632e-09
-2.07994e-07
-1.22942e-09
-2.0802e-07
-9.80364e-09
-2.08411e-07
-1.61493e-08
-2.09341e-07
-1.9467e-08
-2.07169e-07
-1.71083e-08
-2.00948e-07
-1.74403e-07
8.92654e-09
-1.83858e-07
8.8821e-09
-2.01388e-07
7.64034e-09
-2.06109e-07
4.69524e-09
-2.05049e-07
1.34771e-09
-2.04672e-07
-2.46719e-09
-2.04596e-07
-7.65604e-09
-2.04153e-07
-9.19636e-09
-2.05628e-07
-8.96111e-09
-2.01184e-07
-1.83364e-07
7.26549e-09
-1.91123e-07
5.54218e-09
-1.99665e-07
6.08017e-09
-2.06647e-07
5.12444e-10
-1.99482e-07
-1.05637e-09
-2.03104e-07
-2.50474e-09
-2.03147e-07
-6.76822e-09
-1.99889e-07
-5.90047e-09
-2.06496e-07
-7.54625e-09
-1.99538e-07
-1.9091e-07
3.32343e-08
3.53866e-08
2.52097e-08
1.65952e-08
1.31862e-09
-1.4303e-08
-2.43908e-08
-3.49917e-08
-3.30563e-08
-1.03725e-07
1.1414e-08
9.26213e-08
-1.2424e-07
2.05117e-08
-1.53443e-07
2.92007e-08
-1.83655e-07
3.02088e-08
-2.1277e-07
2.85353e-08
-2.46609e-07
3.38395e-08
-2.85159e-07
3.85501e-08
-3.15089e-07
2.99298e-08
-3.37105e-07
2.20163e-08
2.15369e-08
-3.58643e-07
-1.54568e-07
2.94868e-08
1.36501e-07
-1.75699e-07
4.1647e-08
-2.06779e-07
6.08925e-08
-2.48141e-07
7.15541e-08
-2.88714e-07
6.86199e-08
-3.21457e-07
6.65828e-08
-3.52575e-07
6.96679e-08
-3.88849e-07
6.62042e-08
-4.20293e-07
5.3482e-08
3.74224e-08
-4.3594e-07
-2.60407e-07
6.69622e-08
2.22937e-07
-2.9811e-07
7.93509e-08
-3.2952e-07
9.2307e-08
-3.568e-07
9.90272e-08
-3.84974e-07
9.68122e-08
-4.08806e-07
9.04153e-08
-4.16823e-07
8.27515e-08
-4.20973e-07
7.0027e-08
-4.19604e-07
5.18591e-08
3.11414e-08
-4.14449e-07
-3.36231e-07
9.74363e-08
3.05757e-07
-3.70189e-07
1.13309e-07
-3.95885e-07
1.17959e-07
-4.12201e-07
1.15351e-07
-4.21552e-07
1.06207e-07
-4.25693e-07
9.96212e-08
-4.30817e-07
8.75189e-08
-4.27974e-07
6.68264e-08
-4.1712e-07
4.0649e-08
1.44235e-08
-4.06553e-07
-3.57372e-07
1.31279e-07
3.23529e-07
-3.82403e-07
1.38299e-07
-3.9708e-07
1.32566e-07
-4.07871e-07
1.26108e-07
-4.11998e-07
1.16501e-07
-4.1964e-07
1.06875e-07
-4.20021e-07
8.75278e-08
-4.13531e-07
5.99793e-08
-4.09836e-07
3.14759e-08
5.99679e-09
-4.01408e-07
-3.30509e-07
1.68039e-07
2.93729e-07
-3.64104e-07
1.71861e-07
-3.84046e-07
1.52467e-07
-3.89139e-07
1.31196e-07
-3.87943e-07
1.23298e-07
-3.92639e-07
1.11237e-07
-3.95336e-07
8.98366e-08
-4.00298e-07
5.97508e-08
-4.00408e-07
3.15826e-08
8.23251e-09
-4.02644e-07
-2.40407e-07
1.69307e-07
2.31353e-07
-2.92985e-07
1.84723e-07
-3.17352e-07
1.76828e-07
-3.32331e-07
1.46167e-07
-3.43651e-07
1.34599e-07
-3.521e-07
1.23221e-07
-3.5558e-07
9.28322e-08
-3.55299e-07
5.94679e-08
-3.58843e-07
3.5123e-08
1.22822e-08
-3.62894e-07
-1.57516e-07
1.67265e-07
1.72457e-07
-1.58248e-07
1.82459e-07
-2.02096e-07
1.80115e-07
-2.38959e-07
1.8301e-07
-2.60842e-07
1.5645e-07
-2.60169e-07
1.22496e-07
-2.48011e-07
8.06282e-08
-2.35489e-07
4.69337e-08
-2.27283e-07
2.69136e-08
1.27747e-08
-2.27776e-07
-1.23029e-07
1.62316e-07
1.6288e-07
-1.14323e-07
1.70983e-07
-1.19512e-07
1.82308e-07
-1.45429e-07
1.82368e-07
-1.83952e-07
1.74585e-07
-1.96505e-07
1.34995e-07
-1.77361e-07
6.14332e-08
-1.38206e-07
7.78346e-09
-9.64018e-08
-1.41339e-08
-1.48794e-08
-6.88994e-08
-1.37013e-07
1.46994e-07
1.5263e-07
-1.04136e-07
1.62866e-07
-6.21401e-08
1.64262e-07
-5.06537e-08
1.51912e-07
-5.3341e-08
1.56154e-07
-7.21292e-08
1.20474e-07
-8.49629e-08
6.13996e-08
-4.91722e-08
-2.35759e-08
-6.75541e-09
-5.37124e-08
-4.44166e-08
2.11963e-08
-1.31014e-07
1.51096e-07
1.27135e-07
-1.11986e-07
1.44025e-07
-8.30882e-08
1.48447e-07
-5.43444e-08
1.39003e-07
-2.79747e-08
1.29603e-07
-1.57613e-08
1.08123e-07
-2.59681e-09
4.61896e-08
-1.81317e-08
-9.72432e-09
-4.0999e-08
-3.25541e-08
-2.21713e-08
-3.73824e-08
-8.2042e-08
1.76373e-07
5.07267e-08
-9.19597e-08
1.54058e-07
-8.21143e-08
1.41641e-07
-5.05423e-08
1.18757e-07
-3.05888e-08
1.09468e-07
-3.12003e-08
1.08553e-07
-5.33594e-08
7.06119e-08
-9.9378e-08
3.25581e-08
-1.07709e-07
-7.23425e-09
-2.57984e-08
-8.92926e-08
3.04204e-08
2.07246e-07
-6.12703e-08
-1.10415e-08
1.90388e-07
-4.27216e-08
1.67113e-07
-4.89739e-08
1.36069e-07
-4.60277e-08
1.0634e-07
-3.88254e-08
1.11508e-07
-6.41151e-08
9.73284e-08
-9.02232e-08
5.86464e-08
-1.03344e-07
9.19699e-09
-1.09683e-08
-1.21361e-07
1.31573e-07
2.25059e-07
-1.46463e-07
1.05074e-07
2.18189e-07
7.05793e-08
2.02218e-07
3.93668e-08
1.84804e-07
1.42045e-08
1.31413e-07
9.37708e-09
1.20981e-07
-8.44598e-09
1.148e-07
-3.50178e-08
8.51863e-08
-7.04625e-08
4.48359e-08
1.57863e-08
-9.64832e-08
1.79878e-07
2.26563e-07
-1.81385e-07
1.755e-07
2.24157e-07
1.67502e-07
2.16631e-07
1.53971e-07
2.05369e-07
1.24699e-07
1.83129e-07
1.05044e-07
1.54083e-07
8.49758e-08
1.35973e-07
5.79552e-08
1.12178e-07
2.36989e-08
7.90802e-08
5.03909e-08
-1.09101e-08
1.83075e-07
2.29633e-07
-1.8615e-07
1.82478e-07
2.24757e-07
1.82775e-07
2.16337e-07
1.79997e-07
2.08162e-07
1.7156e-07
1.91582e-07
1.57837e-07
1.71178e-07
1.39607e-07
1.56401e-07
1.13158e-07
1.38238e-07
7.19115e-08
1.19388e-07
9.21953e-08
3.01085e-08
1.73815e-07
2.40218e-07
-1.844e-07
1.70116e-07
2.28454e-07
1.69731e-07
2.16723e-07
1.70872e-07
2.07018e-07
1.69186e-07
1.93265e-07
1.61872e-07
1.78496e-07
1.51904e-07
1.66365e-07
1.30525e-07
1.59195e-07
9.41008e-08
1.55547e-07
1.41127e-07
4.49085e-08
1.60696e-07
2.70561e-07
-1.9104e-07
1.42302e-07
2.46844e-07
1.35138e-07
2.23883e-07
1.36638e-07
2.05519e-07
1.43971e-07
1.85933e-07
1.48976e-07
1.73493e-07
1.49206e-07
1.66135e-07
1.42835e-07
1.64593e-07
1.2577e-07
1.72402e-07
1.80117e-07
8.65808e-08
1.65327e-07
2.61389e-07
-1.82141e-07
1.4166e-07
2.5686e-07
1.22791e-07
2.42755e-07
1.16812e-07
2.115e-07
1.19795e-07
1.82952e-07
1.30289e-07
1.62998e-07
1.40662e-07
1.55763e-07
1.47677e-07
1.57578e-07
1.49397e-07
1.7024e-07
1.90433e-07
1.38904e-07
1.6817e-07
2.63936e-07
-1.71178e-07
1.68632e-07
2.55537e-07
1.4554e-07
2.43824e-07
1.25233e-07
2.27793e-07
1.1654e-07
1.91646e-07
1.22329e-07
1.5721e-07
1.35587e-07
1.42506e-07
1.50775e-07
1.42391e-07
1.63823e-07
1.56312e-07
1.79233e-07
1.74875e-07
1.64766e-07
2.61575e-07
-1.5938e-07
1.68179e-07
2.52674e-07
1.69442e-07
2.42308e-07
1.55524e-07
2.29096e-07
1.30882e-07
1.99918e-07
1.26251e-07
1.61837e-07
1.35308e-07
1.33449e-07
1.484e-07
1.29289e-07
1.64593e-07
1.3908e-07
1.61769e-07
1.81938e-07
1.5859e-07
2.70219e-07
-1.61906e-07
1.65333e-07
2.53305e-07
1.6632e-07
2.40969e-07
1.65496e-07
2.29807e-07
1.54121e-07
2.11164e-07
1.42381e-07
1.70405e-07
1.40773e-07
1.34751e-07
1.4727e-07
1.2279e-07
1.59092e-07
1.27273e-07
1.42808e-07
1.77977e-07
1.48479e-07
2.58414e-07
-1.36649e-07
1.53506e-07
2.53301e-07
1.58633e-07
2.38106e-07
1.60822e-07
2.27489e-07
1.55325e-07
2.16551e-07
1.38968e-07
1.86856e-07
1.36953e-07
1.47222e-07
1.32929e-07
1.26795e-07
1.35843e-07
1.24369e-07
1.31721e-07
1.46917e-07
1.29121e-07
2.44773e-07
-1.15505e-07
1.36129e-07
2.46196e-07
1.32949e-07
2.28071e-07
1.3649e-07
2.23838e-07
1.32668e-07
2.20269e-07
1.26167e-07
1.93247e-07
1.22083e-07
1.70424e-07
1.03993e-07
1.44895e-07
9.1582e-08
1.36783e-07
1.44193e-07
7.91104e-08
9.00165e-08
2.41953e-07
-8.73083e-08
8.13875e-08
2.45778e-07
8.55583e-08
2.15313e-07
9.30789e-08
2.16212e-07
1.03287e-07
2.0995e-07
1.29608e-07
2.01561e-07
1.23707e-07
1.79279e-07
1.05891e-07
1.62712e-07
8.83658e-08
1.54308e-07
1.60518e-07
7.20413e-08
1.772e-08
2.39736e-07
-1.56747e-08
3.00975e-08
2.24691e-07
4.92254e-08
1.96027e-07
6.93194e-08
1.95942e-07
1.07082e-07
2.03425e-07
1.28021e-07
1.87335e-07
1.33295e-07
1.74013e-07
1.24239e-07
1.71769e-07
1.01388e-07
1.7716e-07
1.86661e-07
7.52451e-08
-5.45518e-08
2.18331e-07
7.58737e-08
-9.4639e-09
1.87046e-07
3.65713e-08
1.68157e-07
7.22845e-08
1.81679e-07
9.4574e-08
1.8642e-07
1.13264e-07
1.68658e-07
1.14715e-07
1.72563e-07
9.3308e-08
1.93176e-07
5.28858e-08
2.17582e-07
2.17169e-07
1.69042e-08
-6.15799e-08
1.64466e-07
1.14261e-07
-1.04037e-08
1.36255e-07
2.5491e-08
1.32406e-07
3.84571e-08
1.68848e-07
3.7218e-08
1.87704e-07
3.64155e-08
1.69528e-07
1.35296e-08
1.54723e-07
-1.58074e-08
1.45385e-07
-2.99805e-08
1.57245e-07
1.41859e-07
-2.99199e-08
-5.59216e-08
1.36321e-07
8.39639e-08
-3.44547e-08
1.14869e-07
-3.25271e-08
1.03188e-07
-4.62629e-08
1.35151e-07
-5.1936e-08
1.30626e-07
-7.25534e-08
1.32897e-07
-7.5347e-08
1.26015e-07
-6.55206e-08
1.30179e-07
-5.37143e-08
1.384e-07
1.10684e-07
-2.90522e-08
-1.39839e-07
1.27449e-07
1.48023e-07
-1.10995e-07
9.01846e-08
-9.53097e-08
8.0569e-08
-8.93335e-08
1.22301e-07
-1.00224e-07
1.36083e-07
-8.97443e-08
1.18622e-07
-7.8742e-08
1.14479e-07
-6.04231e-08
1.14691e-07
-3.69499e-08
1.09547e-07
1.19965e-07
-9.87425e-09
-1.9516e-07
1.18824e-07
2.50574e-07
-1.52273e-07
8.35944e-08
-1.48522e-07
7.37649e-08
-1.26346e-07
1.44228e-07
-1.195e-07
1.59119e-07
-1.15442e-07
1.52877e-07
-1.03731e-07
1.53796e-07
-8.06439e-08
1.47568e-07
-5.36703e-08
1.31635e-07
1.14574e-07
-3.20028e-08
-3.44642e-07
1.16453e-07
3.86086e-07
-3.33507e-07
1.19613e-07
-3.51551e-07
1.2114e-07
-3.1736e-07
1.31701e-07
-2.84419e-07
1.35008e-07
-2.62632e-07
1.34418e-07
-2.32249e-07
1.24983e-07
-2.00298e-07
1.15631e-07
-1.69285e-07
1.0064e-07
7.93371e-08
-1.34006e-07
-5.61573e-07
1.1697e-07
5.61019e-07
-5.4472e-07
1.03035e-07
-5.08581e-07
8.58103e-08
-4.34559e-07
7.28868e-08
-3.41987e-07
6.4977e-08
-3.04265e-07
6.31959e-08
-3.18107e-07
7.44696e-08
-2.7913e-07
7.66729e-08
-2.2231e-07
4.38624e-08
1.94618e-08
-1.62374e-07
-7.56549e-07
1.14553e-07
7.58991e-07
-7.2909e-07
7.55385e-08
-6.62021e-07
1.90161e-08
-5.7983e-07
-8.49455e-09
-4.81262e-07
-6.43191e-09
-3.20759e-07
8.26094e-09
-1.79194e-07
1.29721e-08
-1.96199e-07
-8.72823e-10
-1.4147e-07
-4.13158e-08
-6.83218e-08
-5.01006e-08
-7.25917e-07
9.55015e-08
7.48688e-07
-6.76398e-07
4.13243e-08
-6.44264e-07
-3.5535e-09
-6.21908e-07
-1.32723e-08
-5.46415e-07
-2.02036e-08
-2.88807e-07
-4.98775e-08
-2.1575e-07
-7.41199e-08
-1.0992e-07
-9.74731e-08
-1.96704e-08
-9.29932e-08
-1.00838e-07
7.49222e-08
-6.39365e-07
7.3187e-08
6.33465e-07
-5.00351e-07
8.01806e-08
-3.03869e-07
-2.26998e-09
-2.90645e-07
-4.58473e-08
-2.30415e-07
-1.02357e-07
-1.40635e-07
-1.7069e-07
-1.18376e-07
-2.82374e-07
-2.10905e-08
-3.07484e-07
1.13956e-07
-3.30422e-07
-3.59897e-07
2.46975e-07
-3.39188e-07
5.22536e-08
4.0443e-07
-2.53994e-07
1.74334e-08
-1.68485e-07
-1.58505e-07
-1.74722e-07
-2.70361e-07
-1.44065e-07
-2.7729e-07
-8.03304e-08
-3.18389e-07
4.80831e-08
-4.22499e-07
1.99658e-07
-5.03126e-07
3.44927e-07
-5.52618e-07
-5.46909e-07
4.75358e-07
-1.76722e-07
4.80901e-08
1.62278e-07
-2.8083e-07
-1.7778e-07
-2.03145e-07
-3.70649e-07
-1.0893e-07
-3.8142e-07
-1.54795e-08
-3.88322e-07
4.73318e-08
-3.54526e-07
1.1726e-07
-2.47037e-07
2.32236e-07
-3.50794e-07
3.80623e-07
-5.51727e-07
-6.25503e-07
4.90502e-07
-1.5619e-07
-2.12673e-08
7.39529e-08
-1.06401e-07
-3.68492e-07
-6.24244e-08
-4.17987e-07
-3.16814e-08
-4.06079e-07
7.59346e-09
-2.75844e-07
3.94213e-08
-2.23591e-07
6.02964e-08
-2.59882e-07
1.31718e-07
-3.16378e-07
2.89935e-07
-4.10169e-07
-6.68259e-07
4.18504e-07
1.68365e-08
-1.20557e-07
5.86381e-09
4.63429e-08
-3.79881e-07
1.55557e-08
-3.8192e-07
-2.33819e-09
-2.4041e-07
8.26567e-09
-2.18144e-07
5.12005e-08
-2.69132e-07
1.15412e-07
-3.26482e-07
1.55695e-07
-3.59263e-07
3.0525e-07
-4.13714e-07
-7.45592e-07
4.44938e-07
2.14248e-07
-1.55354e-07
-6.1183e-08
1.93441e-07
-3.39268e-07
1.08795e-07
-3.29864e-07
5.27179e-08
-1.79387e-07
6.96079e-08
-2.37997e-07
1.30768e-07
-3.3268e-07
1.81342e-07
-3.79658e-07
2.33036e-07
-4.14236e-07
4.34558e-07
-6.41213e-07
-7.54001e-07
4.42688e-07
3.09397e-07
-1.72056e-07
-3.30976e-08
2.86157e-07
-3.06767e-07
1.7851e-07
-3.35447e-07
1.21215e-07
-1.96191e-07
1.67895e-07
-2.88971e-07
2.18305e-07
-3.86053e-07
2.94928e-07
-4.60338e-07
3.92364e-07
-5.33285e-07
4.83885e-07
-7.31305e-07
-6.78629e-07
4.08546e-07
3.60168e-07
-2.63608e-07
-1.56752e-07
3.57327e-07
-3.01301e-07
3.32156e-07
-3.55831e-07
2.2927e-07
-3.44339e-07
2.72281e-07
-3.40832e-07
3.75439e-07
-5.15135e-07
5.1727e-07
-7.03136e-07
5.15147e-07
-5.78161e-07
4.31482e-07
-6.40907e-07
-5.15776e-07
2.68665e-07
2.93882e-07
-2.98863e-07
-2.5845e-07
3.30645e-07
-3.36078e-07
3.53035e-07
-3.75596e-07
2.66247e-07
-4.5508e-07
3.91306e-07
-5.45595e-07
5.33762e-07
-7.82007e-07
5.2715e-07
-6.97914e-07
4.33189e-07
-5.5061e-07
1.94249e-07
-4.24681e-07
-3.20811e-07
-4.05827e-10
1.91103e-07
-3.36505e-07
-1.53632e-07
2.16147e-07
-3.50351e-07
3.61223e-07
-3.11352e-07
4.45026e-07
-7.23643e-07
5.0744e-07
-7.94947e-07
5.00191e-07
-7.42745e-07
3.68512e-07
-5.56226e-07
9.6742e-08
-3.40101e-07
-1.72344e-07
-2.13903e-07
-2.00593e-07
-2.92549e-07
6.41923e-08
-3.25529e-07
-7.48498e-08
9.3045e-08
-1.79339e-07
1.97987e-07
-4.85102e-07
4.31617e-07
-8.64401e-07
4.50787e-07
-8.13496e-07
2.69603e-07
-5.079e-07
-1.44582e-09
-2.84116e-07
-2.87377e-07
-1.1794e-07
-4.09901e-07
-9.52569e-08
-1.52238e-07
-4.58245e-07
-1.14666e-08
-1.95751e-07
1.57173e-08
5.81509e-08
-2.67579e-07
2.46854e-07
-8.06344e-07
2.85495e-07
-9.23072e-07
1.14082e-07
-6.33902e-07
-8.89341e-08
-3.23736e-07
-2.73225e-07
-1.12704e-07
-4.1292e-07
-5.35418e-08
-4.6423e-07
-4.36967e-08
-1.00548e-07
-5.15898e-07
-2.6597e-08
-1.23722e-07
5.33552e-08
5.02575e-08
-3.67102e-07
1.41004e-07
-9.6329e-07
1.07115e-07
-8.86155e-07
-4.85905e-08
-4.67839e-07
-1.75873e-07
-2.17572e-07
-2.97959e-07
-4.39213e-08
-3.69169e-07
1.8067e-08
-4.28842e-07
1.62161e-08
-3.91357e-08
-4.7874e-07
6.46246e-09
-1.48764e-07
1.31561e-08
6.58356e-08
-6.10415e-07
4.66946e-08
-9.44694e-07
1.23761e-08
-8.48808e-07
-5.84321e-08
-3.93803e-07
-1.28239e-07
-1.68884e-07
-1.60154e-07
-3.04813e-08
-2.22529e-07
8.07328e-08
-2.81116e-07
7.52023e-08
9.64938e-09
-2.62746e-07
-4.05375e-08
-1.55819e-07
4.21683e-08
-5.61434e-08
-6.85353e-07
-8.46423e-08
-9.11996e-07
-7.91503e-08
-8.51273e-07
-8.76261e-08
-3.79878e-07
-1.10879e-07
-1.43199e-07
-7.94462e-08
-6.17954e-08
-9.24104e-08
9.37993e-08
-1.24986e-07
1.07896e-07
4.69521e-08
-8.78682e-08
-7.11917e-08
-1.27033e-07
4.50958e-08
-1.9637e-07
-3.97949e-07
-2.335e-07
-8.66138e-07
-1.62878e-07
-9.17696e-07
-2.76541e-08
-5.17218e-07
-4.37579e-08
-1.40861e-07
-2.31865e-08
-8.06913e-08
2.75834e-09
6.7927e-08
-3.90865e-09
1.14601e-07
9.09919e-08
-3.80575e-08
-1.12103e-07
-4.52604e-08
5.14255e-08
-1.38829e-07
-1.48369e-07
-2.85603e-07
-4.29457e-07
-2.26926e-07
-9.67442e-07
4.0496e-08
-8.09262e-07
1.0557e-07
-2.19701e-07
7.35914e-08
-2.19759e-08
9.68627e-08
4.53812e-08
1.20183e-07
9.12216e-08
1.20377e-07
9.07878e-08
-3.97596e-08
9.73994e-09
1.86602e-08
-1.1489e-07
-9.69992e-08
-1.27996e-07
-2.49097e-07
-2.10322e-07
-6.52954e-07
6.33552e-09
-1.02016e-06
1.94834e-07
-4.87764e-07
2.63601e-07
-1.26917e-07
2.42241e-07
2.7231e-08
2.42822e-07
1.20733e-07
2.14802e-07
1.48304e-07
3.21346e-08
7.62686e-08
-1.63011e-07
-4.622e-08
-4.36262e-08
-9.34072e-08
-2.25008e-07
-1.4998e-07
-5.08723e-07
-5.37273e-08
-1.11066e-06
1.57913e-07
-6.95446e-07
2.83864e-07
-2.50123e-07
2.57762e-07
-3.89694e-09
8.45207e-08
6.36599e-08
5.28923e-08
6.43449e-08
9.68593e-08
1.2543e-07
-2.95761e-07
1.12931e-08
1.69584e-08
-7.40613e-08
-1.55635e-07
-1.50299e-07
-4.47816e-07
-1.63342e-07
-1.08677e-06
-3.97557e-08
-8.15517e-07
-5.11594e-08
-1.98394e-07
-4.9562e-10
-1.19967e-08
8.52314e-09
2.27247e-08
2.89215e-08
3.09101e-08
2.71294e-07
1.4592e-07
-3.82314e-07
7.05888e-08
8.43947e-08
-2.08455e-08
-7.36093e-08
-8.73162e-08
-3.84208e-07
-1.0365e-07
-1.06619e-06
-2.82277e-08
-9.03395e-07
-3.80711e-08
-1.6814e-07
-1.10489e-08
-2.45952e-08
5.05108e-09
5.04096e-09
9.00875e-09
2.38908e-08
4.34922e-07
1.3148e-07
-4.20536e-07
2.34716e-07
1.26388e-07
2.77518e-08
2.32186e-08
-9.21194e-09
-3.09989e-07
-2.62691e-08
-1.04939e-06
4.16561e-08
-9.76002e-07
-1.21684e-08
-1.08965e-07
-1.29078e-08
-6.32446e-08
2.5329e-09
-1.96586e-08
-8.12536e-09
1.88137e-08
3.09958e-07
1.49771e-07
-3.28228e-07
2.18105e-07
2.18181e-07
8.66424e-09
1.27396e-07
-3.07722e-08
-2.42568e-07
-4.28101e-08
-1.0378e-06
-1.24973e-08
-1.00136e-06
-7.74449e-08
-4.39767e-08
-1.06081e-07
-3.46066e-08
-9.11358e-08
-3.56087e-08
-2.95226e-08
-5.53191e-08
2.36337e-07
2.03188e-07
-2.89796e-07
1.6182e-07
2.92682e-07
4.59035e-09
1.94308e-07
-1.70645e-08
-1.81325e-07
-2.06707e-08
-1.02488e-06
-1.84923e-08
-8.57919e-07
-5.08257e-08
-1.16417e-08
-8.96489e-08
4.21844e-09
-1.13836e-07
-1.14193e-08
-2.61998e-08
-1.17157e-07
2.14949e-07
2.48333e-07
-2.6011e-07
1.67838e-07
3.39836e-07
-9.87199e-09
2.39707e-07
-3.28e-08
-1.23879e-07
-2.09098e-08
-1.02614e-06
-8.72547e-09
-8.09491e-07
3.52969e-08
-4.06926e-08
4.573e-09
3.49443e-08
-1.43992e-08
7.55486e-09
-5.01705e-08
9.57341e-09
1.84091e-07
1.53118e-07
-2.32609e-07
6.16917e-08
1.22348e-07
-3.7717e-08
1.56499e-07
-4.54962e-08
-6.92913e-08
-3.79375e-08
-1.01846e-06
-2.98699e-08
-8.07441e-07
6.75721e-08
-8.11835e-08
1.26807e-07
1.70606e-08
1.26259e-07
8.10509e-09
-5.16513e-08
1.31584e-07
2.66802e-08
0
-8.93727e-08
-7.23764e-09
7.18508e-09
0
8.12633e-09
-1.56345e-10
-6.92385e-08
-4.09009e-08
-9.70469e-07
-2.67682e-08
-7.85303e-07
1.04121e-08
-9.10979e-08
9.38375e-08
-6.14853e-08
1.55976e-07
-1.04696e-08
-8.83272e-09
2.11049e-07
-6.66345e-09
4.03364e-10
2.97014e-09
-5.46244e-09
2.57437e-09
-1.94182e-10
3.70251e-10
-1.15719e-08
-5.36187e-08
-3.60957e-08
-9.21688e-07
-2.41199e-08
-7.69273e-07
0
-8.90982e-08
2.871e-08
-1.15926e-07
2.56885e-08
-4.28291e-08
-3.37692e-09
1.65802e-08
-2.35625e-09
1.935e-10
2.22012e-09
-3.95221e-10
3.23864e-10
-1.31139e-11
-2.07923e-13
-2.26216e-08
-2.51322e-08
-5.47309e-08
-8.82519e-07
-2.51631e-08
-7.73041e-07
-9.30611e-09
-5.46409e-08
-4.93199e-09
-1.12496e-07
2.82538e-10
-3.8658e-08
-3.03555e-12
5.76855e-12
-3.24167e-10
6.21614e-12
5.15904e-10
-5.33198e-14
0
5.05613e-13
-6.16916e-13
6.10665e-09
-2.57511e-08
-1.18667e-08
-8.60938e-07
-8.68254e-09
-7.92038e-07
0
-4.65773e-08
-1.15296e-08
-9.28837e-08
-1.14575e-11
-5.34885e-08
-5.93557e-12
-7.81948e-12
-3.88713e-11
1.47235e-12
1.14122e-10
0
-1.96468e-12
1.14022e-13
-6.46182e-13
2.01086e-09
-3.01113e-08
-5.50049e-09
-8.84891e-07
-3.78709e-09
-8.26479e-07
0
-5.28462e-08
8.84335e-10
-8.21176e-08
-3.7527e-11
-4.84677e-08
-4.93703e-12
-3.41413e-11
-6.93288e-12
6.49956e-15
9.48774e-12
1.43962e-13
-3.23625e-13
1.53373e-13
-6.56947e-13
6.41108e-09
-5.17946e-08
-5.8325e-09
-9.08463e-07
-6.70579e-09
-8.75943e-07
0
-6.16031e-08
-3.80326e-09
-6.60206e-08
-9.2424e-12
-1.14542e-08
-6.24773e-12
-3.61659e-12
-2.65573e-14
-4.67655e-14
2.099e-13
2.16877e-15
-3.53661e-13
3.6096e-14
-6.92229e-13
8.56576e-09
-8.64775e-08
8.37317e-10
-9.29254e-07
-7.26779e-09
-9.14346e-07
0
-7.83652e-08
-1.24245e-08
-1.98989e-08
-1.21002e-10
-6.40524e-09
-3.92375e-12
-1.1894e-10
1.96974e-14
-5.09317e-14
-1.65402e-14
2.22337e-14
-3.5743e-13
8.46982e-14
-7.56004e-13
1.03102e-08
-1.32739e-07
7.9372e-09
-9.52385e-07
-1.48174e-09
-9.32777e-07
0
-1.26075e-07
-3.11674e-09
-1.32666e-09
-2.54645e-10
-2.02637e-09
9.89541e-12
-2.62544e-10
4.38039e-14
-3.69386e-14
-5.93246e-14
6.25709e-14
0
2.17342e-13
-9.12068e-13
9.15239e-10
-1.63408e-07
-3.12205e-09
-9.59358e-07
-3.22468e-09
-9.43555e-07
3.23374e-10
-1.63328e-07
1.80651e-09
2.74206e-09
-1.1203e-10
2.86887e-10
2.43713e-11
-1.2231e-10
0
5.97281e-14
-1.41574e-12
4.12142e-13
-2.83891e-12
9.26245e-13
-1.42705e-12
4.18417e-09
-1.78452e-07
-6.41938e-09
-9.48439e-07
-6.80581e-09
-9.41033e-07
-4.7e-09
-1.7361e-07
-2.86285e-10
1.02838e-08
-2.07265e-11
2.05068e-11
2.37565e-11
-2.00888e-11
0
2.15271e-13
0
3.06183e-12
-2.05583e-11
3.80503e-12
-2.14766e-12
-3.35513e-09
-1.76435e-07
-1.49385e-08
-9.35911e-07
-1.42821e-08
-9.3145e-07
-8.84366e-09
-1.73831e-07
-1.8394e-11
1.04353e-08
-1.99471e-11
2.12391e-11
1.15278e-11
-8.53918e-12
0
3.85567e-13
-4.30029e-13
5.61691e-12
-2.04536e-11
6.62462e-12
-2.88492e-12
-7.25649e-09
-1.63866e-07
-1.80479e-08
-9.24174e-07
-1.62205e-08
-9.19858e-07
-4.49437e-09
-1.64443e-07
0
2.44409e-09
0
2.25518e-10
1.06367e-10
1.07356e-10
2.03128e-13
5.4026e-14
-4.7849e-14
6.92245e-12
-1.97588e-11
8.25686e-12
-3.4836e-12
5.8153e-09
-1.48296e-07
-5.61008e-09
-9.04251e-07
-1.16e-08
-9.04368e-07
-2.247e-09
-1.50139e-07
1.15038e-12
-8.44849e-12
2.81078e-10
2.03259e-11
3.82183e-11
5.39833e-10
4.60765e-12
-4.00122e-12
-9.59669e-13
5.10223e-12
-9.23208e-12
5.51222e-12
-3.81306e-12
1.09584e-08
-1.3648e-07
1.30998e-09
-8.82666e-07
-7.81076e-09
-8.85073e-07
-1.3618e-11
-1.37826e-07
0
-2.06234e-11
7.69003e-11
-6.21046e-11
1.12274e-12
1.2284e-10
7.93357e-12
-6.04081e-12
3.40615e-12
3.87153e-12
-2.90115e-12
4.86516e-12
-5.16055e-12
1.07268e-08
-1.32365e-07
-1.72012e-09
-8.62392e-07
-1.0346e-08
-8.64244e-07
-7.35858e-12
-1.29708e-07
0
-2.87222e-11
-2.78116e-11
-3.35745e-11
8.36033e-11
-3.49867e-11
-1.80245e-12
-1.27881e-11
3.06466e-12
9.55223e-12
0
1.40084e-11
-9.56453e-12
-1.3716e-10
-1.28833e-07
-1.67711e-08
-8.46059e-07
-2.27548e-08
-8.41133e-07
-9.6997e-11
-1.27451e-07
-1.09144e-10
-1.85272e-11
-8.03729e-11
-1.13088e-11
1.05717e-10
-9.9448e-11
-1.21191e-11
0
3.43384e-11
4.12999e-11
-1.14864e-10
4.79535e-11
-1.59387e-11
1.39669e-08
-1.30646e-07
1.98801e-09
-8.27405e-07
-1.01232e-08
-8.27097e-07
-5.4845e-11
-1.29593e-07
-6.03924e-11
-1.39458e-11
-8.32983e-11
2.39401e-11
1.0921e-10
-8.65554e-11
-6.0976e-11
-3.96356e-10
2.03056e-10
9.34675e-11
-6.64122e-10
9.13718e-11
-1.45813e-11
1.29096e-08
-1.40258e-07
1.3208e-09
-8.15197e-07
-1.25152e-08
-8.1254e-07
-2.79885e-11
-1.39339e-07
-3.08752e-11
-1.21483e-11
-4.70117e-11
2.6708e-11
8.74463e-11
-2.50991e-11
3.35716e-11
-6.41626e-10
2.35577e-10
9.10432e-11
-7.28157e-10
9.24672e-11
-8.30653e-12
1.32362e-08
-1.52431e-07
2.83333e-10
-8.02417e-07
-1.32409e-08
-7.99097e-07
-1.54941e-11
-1.51857e-07
-1.66682e-11
-1.09151e-11
-4.30087e-12
7.94711e-12
6.08187e-11
2.24874e-11
4.14142e-11
-7.87924e-10
9.83182e-11
7.55208e-11
-8.04455e-10
7.3057e-11
-2.04685e-12
1.50561e-08
-1.73513e-07
-6.07057e-10
-7.89216e-07
-1.48503e-08
-7.873e-07
-8.58528e-12
-1.72571e-07
-7.94842e-12
-1.05164e-11
3.28202e-11
-9.75932e-12
4.50288e-11
2.22632e-11
4.83335e-11
-5.96682e-11
-2.69622e-11
2.05976e-11
-2.22059e-10
1.87984e-11
-8.02495e-14
1.6489e-08
-2.09517e-07
-8.59304e-11
-7.77188e-07
-1.50393e-08
-7.77256e-07
-1.24768e-11
-2.07019e-07
-9.57417e-12
-1.16316e-11
0
-1.13877e-11
3.27627e-11
-3.26618e-11
7.25185e-14
-4.93838e-14
-6.79254e-15
4.46647e-13
-2.79587e-14
4.07327e-13
-4.09904e-14
1.82683e-08
-2.54448e-07
2.15722e-09
-7.64982e-07
-1.61918e-08
-7.63897e-07
-4.4637e-11
-2.50901e-07
-4.7187e-11
-7.61977e-12
-5.48144e-11
2.23025e-11
6.37343e-11
-7.86173e-11
8.33184e-16
-3.90626e-14
-1.12394e-14
1.78815e-15
-2.90148e-14
5.05738e-15
-4.43447e-14
2.13263e-08
-2.90759e-07
3.29804e-09
-7.47491e-07
-1.47468e-08
-7.48965e-07
-3.24713e-11
-2.88391e-07
-3.49756e-11
-4.60141e-12
-7.58115e-11
5.12683e-11
3.63475e-11
-4.1286e-11
4.00539e-15
-2.78291e-14
-1.53462e-14
3.72049e-15
-2.8815e-14
1.60839e-14
-5.68154e-14
2.26639e-08
-3.06297e-07
6.52286e-09
-7.2927e-07
-9.38035e-09
-7.33749e-07
-1.83833e-12
-3.05128e-07
-1.67407e-12
-4.63668e-12
2.7747e-11
0
0
2.36067e-11
5.76444e-15
-2.42929e-14
-9.42378e-15
4.62231e-15
-2.77802e-14
8.78226e-14
-1.40139e-13
2.43661e-08
-3.10223e-07
6.90687e-09
-7.10741e-07
-1.17786e-08
-7.14432e-07
-8.00961e-13
-3.05985e-07
-7.34814e-13
-4.56434e-12
4.60016e-13
-1.20173e-12
0
7.27859e-13
8.5212e-15
-2.47235e-14
-8.22534e-15
7.13315e-15
-2.65153e-14
5.73871e-13
-7.07011e-13
1.51458e-08
-3.06145e-07
-3.0215e-09
-6.92784e-07
-2.49147e-08
-6.91249e-07
-3.13102e-12
-3.05046e-07
-1.16275e-12
-6.31557e-12
-2.82465e-13
-1.76873e-12
9.76018e-14
-8.59561e-14
2.06061e-14
-3.52981e-14
-1.03734e-14
2.31557e-14
-2.91996e-14
4.05428e-12
-4.73848e-12
2.30424e-08
-3.15601e-07
-1.32824e-09
-6.68591e-07
-2.92714e-08
-6.63479e-07
-1.84121e-11
-3.14415e-07
-1.40151e-11
-1.05742e-11
-6.18208e-13
-1.18944e-11
3.3894e-14
-5.55951e-13
1.13844e-13
-1.60019e-13
-2.01995e-14
1.2586e-13
-4.15576e-14
3.08122e-11
-3.54271e-11
4.18793e-08
-3.505e-07
1.00781e-08
-6.37483e-07
-1.59663e-08
-6.3857e-07
-4.73245e-11
-3.4425e-07
-2.27779e-11
-3.50607e-11
-7.01545e-12
-2.06321e-11
-3.07333e-12
-4.34337e-13
3.0427e-13
-2.79615e-13
-6.03084e-14
2.97005e-13
-3.83978e-14
2.45816e-10
-2.80951e-10
2.18583e-08
-3.8698e-07
-5.84697e-09
-6.09902e-07
-3.51582e-08
-6.09504e-07
-2.17923e-10
-3.85567e-07
-2.78241e-11
-2.23991e-10
-3.78207e-11
-4.37623e-12
-1.66231e-11
-1.62991e-11
1.74989e-13
-3.16315e-13
-2.4375e-15
1.65729e-13
-3.00706e-14
1.9301e-09
-2.21089e-09
2.81894e-08
-4.17786e-07
-2.06059e-10
-5.81621e-07
-2.50139e-08
-5.84667e-07
-1.61098e-09
-4.14387e-07
-1.29982e-11
-1.82132e-09
-1.67931e-11
-1.20961e-13
-5.99622e-12
-1.95215e-11
6.9493e-14
-6.37434e-15
-3.19356e-14
4.81644e-14
-1.92794e-14
1.0123e-08
-1.23339e-08
2.78487e-08
-4.36324e-07
1.62629e-10
-5.54077e-07
-3.03186e-08
-5.54172e-07
-9.24621e-09
-4.35559e-07
-9.29651e-14
-1.10674e-08
9.03754e-15
-2.33381e-13
0
-1.73807e-12
5.23521e-15
-4.36614e-15
-1.6961e-14
2.2985e-13
-2.53612e-13
2.17154e-08
-3.62752e-08
3.09362e-08
-4.47706e-07
5.11367e-09
-5.28204e-07
-3.20381e-08
-5.17138e-07
-2.0589e-08
-4.47788e-07
-3.08397e-13
-3.37885e-08
-1.36261e-13
-4.10105e-13
1.2369e-13
-1.17341e-13
2.81942e-14
-2.08666e-15
-4.01928e-14
4.77007e-12
-5.00599e-12
5.13134e-08
-8.52732e-08
6.7925e-08
-4.6285e-07
2.69179e-08
-4.8719e-07
1.05481e-09
-4.91406e-07
-1.59892e-08
-4.34023e-07
-2.31856e-12
-5.48339e-08
-2.09767e-13
-2.52347e-12
5.76006e-14
-1.48547e-13
9.34228e-15
-1.47384e-16
-2.23444e-14
9.15939e-11
-9.6603e-11
3.89218e-08
-1.17549e-07
1.60937e-08
-4.38256e-07
-2.04565e-08
-4.50606e-07
-5.68717e-08
-4.55013e-07
-5.75428e-08
-4.34197e-07
-4.71909e-11
-1.1692e-07
-2.4705e-13
-4.94725e-11
4.56165e-14
-2.40388e-13
4.6304e-14
6.33666e-16
-5.94916e-14
1.88627e-09
-1.98284e-09
7.52461e-08
-1.8348e-07
3.95872e-08
-4.00134e-07
1.86764e-09
-4.12908e-07
-4.07263e-08
-4.12402e-07
-7.42067e-08
-4.02121e-07
-9.83513e-10
-1.90279e-07
-4.74982e-13
-1.03251e-09
2.46447e-14
-4.57594e-13
9.14443e-12
-9.13292e-12
-2.36851e-14
2.03306e-08
-2.23041e-08
9.74216e-08
-2.78086e-07
6.29674e-08
-3.65703e-07
1.94933e-08
-3.69434e-07
-2.92865e-08
-3.63618e-07
-7.7309e-08
-3.54087e-07
-1.23074e-08
-2.37507e-07
-1.19008e-12
-1.3339e-08
-9.46404e-13
-1.25175e-13
1.12241e-09
-1.13148e-09
-6.77158e-14
5.98007e-08
-8.05503e-08
7.29206e-08
-2.93025e-07
1.80896e-08
-3.10873e-07
-3.61674e-08
-3.15176e-07
-8.30789e-08
-3.16707e-07
-1.18331e-07
-3.18824e-07
-5.79897e-08
-2.93848e-07
-7.45263e-10
-7.05636e-08
-7.45726e-10
-6.68749e-13
2.96518e-08
-3.07833e-08
-3.16848e-15
1.47395e-07
-1.90898e-07
1.07033e-07
-2.52426e-07
5.45364e-08
-2.58375e-07
7.77015e-10
-2.61417e-07
-4.96785e-08
-2.66251e-07
-1.02641e-07
-2.65863e-07
-1.40724e-07
-2.56021e-07
-2.88399e-08
-1.87735e-07
-2.95843e-08
-1.43553e-12
9.27603e-08
-3.03008e-16
9.78917e-08
6.68511e-08
3.97131e-08
1.23032e-08
-1.96018e-08
-5.75333e-08
-9.64497e-08
-9.08456e-08