/*--------------------------------*- C++ -*----------------------------------*\
  =========                 |
  \\      /  F ield         | OpenFOAM: The Open Source CFD Toolbox
   \\    /   O peration     | Website:  https://openfoam.org
    \\  /    A nd           | Version:  8
     \\/     M anipulation  |
\*---------------------------------------------------------------------------*/
FoamFile
{
    version     2.0;
    format      ascii;
    class       volScalarField;
    location    "5.1";
    object      p_rgh;
}
// * * * * * * * * * * * * * * * * * * * * * * * * * * * * * * * * * * * * * //

dimensions      [1 -1 -2 0 0 0 0];

internalField   nonuniform List<scalar> 
9150
(
1963.66
1962.65
1962.03
1961.56
1961.32
1961.33
1961.56
1962.03
1962.65
1963.66
1963.23
1962.71
1962.29
1961.96
1961.8
1961.78
1961.96
1962.29
1962.71
1963.23
1962.95
1962.67
1962.42
1962.19
1962.09
1962.08
1962.2
1962.42
1962.67
1962.95
1962.84
1962.66
1962.49
1962.34
1962.25
1962.25
1962.34
1962.49
1962.66
1962.83
1962.84
1962.65
1962.52
1962.39
1962.32
1962.33
1962.39
1962.52
1962.65
1962.83
1951.85
1951.05
1951.35
1951.74
1951.91
1951.9
1951.73
1951.33
1951.07
1951.88
1955.91
1955.2
1955.02
1954.97
1955.07
1955.08
1954.99
1955.04
1955.22
1955.93
1959.04
1958.28
1957.97
1957.62
1957.55
1957.56
1957.62
1957.97
1958.28
1959.03
1961.77
1960.63
1960.18
1959.55
1959.38
1959.37
1959.54
1960.17
1960.62
1961.76
1964.37
1962.29
1961.54
1960.85
1960.58
1960.58
1960.84
1961.54
1962.29
1964.37
1947.16
1945.63
1943.77
1942.66
1942.07
1942.04
1942.52
1943.56
1945.67
1947.37
1946.26
1946
1945.01
1944.7
1944.29
1944.28
1944.78
1945.2
1946.23
1946.48
1945.9
1946.02
1944.97
1945.39
1944.94
1944.98
1945.48
1945.1
1946.13
1946.02
1942.69
1945.53
1944.48
1946.09
1945.89
1945.92
1946.11
1944.56
1945.59
1942.77
1936.52
1946.19
1946.59
1948.07
1948.46
1948.5
1948.12
1946.67
1946.25
1936.6
1016.71
1017.15
1017.71
1018.21
1018.41
1018.35
1017.91
1017.3
1016.62
1015.57
1016.26
1016.35
1016.77
1017.36
1017.18
1016.93
1016.77
1016.23
1015.09
1013.93
1015.91
1015.5
1015.5
1015.9
1015.58
1014.45
1013.48
1012.43
1011.64
1010.76
1015.84
1014.86
1013.85
1013.26
1012.38
1010.45
1009.29
1008.49
1007.9
1007.78
1016.04
1014.37
1012.66
1010.92
1007.99
1006.36
1005.15
1004
1004.59
1004.43
1016.27
1013.34
1010.74
1008.29
1005.21
1002.49
1000.56
1000.11
999.826
999.483
1009.35
1004.51
1007.66
1004.41
1001.68
998.56
996.262
995.189
994.193
993.733
999.871
996.334
994.318
1002.92
999.166
995.968
993.843
992.272
990.782
989.337
1006.73
992.951
988.351
990.132
998.195
994.91
992.726
991.717
990.698
990.263
1016.97
1006.92
989.441
974.559
969.916
983.222
986.267
977.055
969.765
968.99
1018.48
1015.68
1008.19
974.302
967.586
964.54
963.356
961.503
967.675
950.7
1017.71
1015.66
1011.13
973.988
969.015
967.541
980.112
1014.76
992.124
934.603
1005.49
1002.46
997.005
969.671
968.33
981.021
1007.54
1010.25
1000.78
995.08
1012.89
1004.76
996.697
978.325
966.064
983.335
1007.65
1007.78
1007.6
1004.13
1016.2
1013.97
1009.93
1007.51
993.436
988.277
1003.47
1008.89
1009.32
1010.11
1016.41
1015.46
1014.61
1013.76
1012.99
1011.35
1010.62
1010.52
1011.6
1014.02
1016.46
1016
1015.77
1015.59
1015.28
1014.95
1014.89
1012.85
1011.99
1015.52
1015.9
1015.91
1015.93
1015.97
1016.06
1016.08
1015.88
1013.68
1011.44
1011
990.468
1010.78
1015.81
1016.12
1016.19
1016.06
1015.78
1015.39
1010.5
1009.58
974.448
973.057
993.178
1016.59
1016.53
1016.45
1016.27
1015.87
1011.27
1009.24
971.979
970.587
969.874
972.795
996.916
1017.19
1017.41
1017.37
1016.37
1010.77
1010.74
971.769
970.153
969.718
969.345
990.482
1020.02
1020.11
1019.62
1015.41
1023.2
1017.78
975.808
971.572
971.652
971.678
1013.03
1024.16
1023.2
1022.25
1026.72
1028.15
990.938
973.605
974.428
974.636
1019.92
1028.81
1027.84
1026.57
1030.53
1030.19
978.029
976.487
976.66
997.765
1033.64
1033.46
1032.63
1031.67
1035.25
1016.37
980.272
980.353
997.394
1037.89
1039.1
1038.03
1037.02
1035.84
1040.37
1025.38
1022.15
1026.76
1044.56
1045.78
1044.6
1042.97
1042.6
1042.7
1044.31
1047.07
1049.03
1049.33
1049.86
1050.57
1035.24
975.281
911.01
863.73
1050.95
1051.3
999.837
925.862
907.542
887.064
843.982
828.884
828.779
829.201
1057.4
951.643
832.662
832.158
831.978
833.194
833.864
834.797
835.099
874.75
1028.03
836.049
837.623
843.022
891.589
915.801
947.152
981.552
1025.61
1065.41
994.826
990.868
1015.15
1048.06
1068.22
1086.28
1094.1
1099.7
1100.86
1100.45
1072.93
1077.95
1083.87
1072.35
1002.03
998.695
1084.07
1110.61
1114.51
1115.66
1071.15
1078.05
1084.97
1092.63
1086.56
940.545
845.951
943.329
1055.87
1065.55
1054.3
1022.85
1010.79
1016.14
979.434
879.779
830.028
840.259
885.727
870.592
926.703
831.692
658.798
659.225
670.848
687.591
819.428
883.005
885.988
888.931
521.57
537.214
575.678
716.142
850.238
958.307
1038.06
1065.63
1083.32
1101.78
440.849
604.321
959.423
985.448
992.966
973.159
903.966
933.27
1008.86
1053.11
444.549
903.881
968.83
975.05
851.912
671.911
609.814
614.288
717.15
953.966
573.923
957.99
976.129
771.617
573.193
577.02
582.527
586.04
603.771
932.223
709.237
993.336
949.107
590.372
559.868
563.813
569.485
573.471
745.743
1010.34
675.013
1037.79
958.205
585.287
560.976
561.839
569.918
623.072
916.181
1025.98
848.05
1063.45
1051.31
755.264
582.181
583.935
776.675
857.919
964.774
1042.05
1085.09
1086.04
1083.59
903.967
633.997
892.675
969.54
915.573
953.48
1060.05
1110.66
1112.39
1006.96
902.352
994.32
986.002
978.784
964.794
1014.6
1074.26
1122.23
839.387
736.218
989.173
1036.52
977.856
867.194
914.245
1076.4
1079.03
981.792
609.11
731.446
1069.77
1044.4
860.943
858.477
1028.77
1077.28
1074.57
615.528
587.852
1069.35
1080.03
1005.09
883.809
964.059
1088.02
1080.4
1060.58
564.521
695.911
1098.23
1076.7
1007.27
888.812
1069.44
1094.12
1080.98
960.183
570.567
957.79
1106.32
1089.81
1027.9
913.519
1111.41
1101.91
1088.5
876.777
618.051
881.188
1111.86
1116.45
1054.24
893.352
1129.36
1117.16
1105.62
1070.32
603.859
426.305
828.205
1105.82
1109.08
892.243
1008.36
1134.24
1119.28
1105.85
479.455
329.37
358.799
859.173
1074.46
1002.93
775.246
771.966
1052.17
1113.34
565.798
297.615
298.248
460.814
1031
1029.18
1012.13
967.919
661.687
442.811
777.055
291.546
289.638
393.472
1038.48
1058.59
944.881
376.815
181.624
171.371
1096.42
423.204
308.342
398.466
990.521
1051.29
895.129
179.04
176.791
176.873
1160.57
1029.09
404.499
394.633
986.547
989.215
1130.72
638.588
185.146
178.147
1189.01
1198.57
676.611
382.6
1018.22
1058.12
1155.96
1158.72
933.141
578.821
1202.03
1209.77
742.767
336.914
1014.44
917.048
1173.19
1172.58
1169.59
1168.53
1205.74
1214.2
690.289
262.549
1001.57
783.075
1157.94
1174.99
1172.16
1171.54
1059.33
846.493
461.382
164.349
980.781
786.757
462.656
1002.32
1179.57
1172.81
292.122
120.136
118.204
77.0522
1015.12
845.938
225.626
232.145
276.925
608.981
2.44609
2.40369
2.69382
63.2085
998.389
841.218
213.495
349.376
244.749
121.793
-0.449307
-0.257766
-0.234798
40.8672
991.761
845.827
156.682
376.518
188.227
19.7704
-0.494904
-0.498246
-0.392729
24.733
967.434
907.149
98.6154
380.341
157.574
1.12506
-0.485565
-0.514695
-0.541019
29.8876
1026.27
959.852
93.3253
377.973
252.486
1.04408
-0.540822
-0.530333
-0.560158
39.7253
1087.99
1049.34
92.5927
383.415
170.785
0.982569
-0.580383
-0.577967
-0.56867
81.5922
1160.36
1135.11
96.004
335.747
40.9981
0.956823
-0.56151
-0.561575
-0.552351
132.721
1215.45
1205.01
145.403
228.693
47.4913
0.935883
-0.540749
-0.541145
-0.544092
190.739
1264.77
1245.25
203.053
245.781
31.5496
0.890805
-0.5248
-0.51896
-0.542844
223.695
1289.19
1274.7
234.761
233.788
0.831698
0.834109
-0.515199
-0.430645
-0.553379
238.803
1315.62
1290.85
246.417
165.748
0.851438
0.839454
-0.488823
-0.377583
-0.542505
236.932
1337.93
1307.43
241.118
89.0356
1.82911
2.71167
-0.448017
-0.326007
-0.471533
218.8
1338.18
1333.81
220.902
1.72444
1.59071
2.76347
-0.208117
-0.333626
-0.398329
206.14
1340.63
1355.56
208.706
0.692059
0.672659
0.784859
-0.132001
-0.329533
-0.391532
201.732
1365.94
1356.95
201.458
0.613689
1.45134
1.17547
-0.25438
-0.231583
-0.39968
203.965
1395.11
1360.9
198.506
0.67897
1.52473
1.86321
-0.193565
0.124016
-0.329309
204.233
1396.23
1405.42
206.488
0.616543
1.66926
1.85808
0.213092
1.41652
-0.324982
226.117
1433.76
1432.11
225.023
0.579936
1.51623
1.83559
1.79725
1.77245
-0.326961
256.133
1466.62
1467.32
256.8
0.530072
1.16054
1.8048
1.77192
1.76012
-0.36106
295.635
1502.09
1502.42
296.139
0.467815
1.05372
1.44461
1.20717
1.0257
-0.39302
364.188
1542.92
1541.4
362.514
0.414389
0.967615
0.785661
-0.437513
-0.383213
-0.417498
462.952
1582.86
1580
459.384
0.414391
1.13135
1.48807
-0.409065
-0.405906
-0.41054
568.237
1615.55
1614.58
565.441
0.387508
1.36687
1.481
-0.376943
-0.37617
-0.378219
647.359
1640.22
1643.06
647.392
0.322468
0.573019
0.783165
-0.345994
-0.346704
-0.350065
694.121
1665.09
1663.29
692.527
0.287101
0.29117
0.279803
-0.311367
-0.312462
-0.318402
727.217
1690.21
1683.99
719.119
0.270202
0.265577
0.258091
-0.272176
-0.269749
-0.266539
758.325
1707.94
1715.27
763.619
0.243885
0.412024
0.24533
-0.237836
-0.240309
-0.246458
871.567
1738.42
1734.25
866.945
0.251805
0.59045
0.274716
-0.202167
-0.209841
-0.223348
1035.45
1762.2
1754.75
1021.52
0.26856
0.584336
0.750324
-0.16707
-0.175498
-0.18568
1198.3
1778.83
1777.73
1196.17
0.236444
0.227704
0.741651
-0.135612
-0.142076
-0.134255
1348.01
1797.2
1797.54
1346.33
0.199523
0.189217
0.352127
-0.111725
-0.111624
57.003
1489.38
1814.88
1818.36
1492.95
43.6448
0.159296
0.162854
-0.0942126
-0.093048
230.827
1641.52
1836.71
1835.5
1620.35
193.92
0.134153
0.133888
-0.0800792
-0.0794531
473.591
1783.38
1855.05
1854.04
1705
344.09
0.116587
0.117425
-0.0692612
-0.0738429
720.396
1841.51
1873.4
1873.62
1849.55
781.532
0.107931
0.105555
-0.0520592
-0.0460949
1254.97
1891.23
1892.69
1892.79
1891.79
1207.39
0.0954023
0.0886341
-0.0412323
239.741
1742.18
1911.54
1911.82
1911.13
1909.25
1573.81
95.9958
0.0728564
-0.0399147
1112.43
1925.63
1926.75
1926.88
1926.74
1927.05
1925.9
1057.05
0.0444352
621.679
1871.13
1938.95
1937.09
1936.46
1936.68
1937.7
1939.67
1877.25
606.368
1014.79
1014.18
1013.67
1013.41
1013.28
1013.18
1013.06
1012.92
1012.74
1012.52
1012.3
1012.03
1011.62
1011.02
1010.29
1009.47
1008.54
1007.38
1006.3
1005.01
1003.4
1001.59
999.246
996.467
993.523
991.648
991.562
992.231
992.44
991.748
989.87
990.118
991.257
993.971
995.318
995.703
995.653
995.593
995.938
996.133
1013.15
1012.71
1012.42
1012.41
1012.47
1012.53
1012.56
1012.51
1012.35
1012.11
1012.01
1011.84
1011.36
1011.02
1010.42
1009.69
1009.05
1008.01
1006.35
1004.76
1003.38
1001.76
999.303
995.747
990.915
986.006
983.897
985.356
987.401
986.097
985.281
987.596
989.681
993.058
995.863
994.773
993.843
993.755
994.191
994.201
1010.56
1010.29
1010.31
1010.45
1010.77
1011.13
1011.44
1011.72
1010.93
1010.82
1010.59
1011.1
1010.82
1010.81
1010.55
1009.97
1009.15
1007.21
1006.2
1004.94
1004.21
1003.46
1000.73
995.476
984.828
981.14
976.965
973.96
975.314
976.595
983.135
987.891
991.166
989.573
991.403
992.287
992.097
991.493
990.748
990.415
1007.78
1007.6
1007.85
1008.24
1008.72
1009.3
1009.77
1008.23
1009.03
1009.7
1009.44
1008.42
1007.94
1009.49
1008.46
1008.1
1007.38
1006.28
1005.89
1004.81
1002.49
1000.85
998.439
996.095
992.929
987.068
972.822
971.306
971.384
970.833
968.793
982.628
986.762
993.077
995.427
991.922
990.26
989.637
989.456
989.528
1004.23
1004.19
1004.39
1004.92
1005.7
1006.88
1006.59
1005.81
1007.35
1007.94
1008.68
1009.3
1007.51
1005
1003.6
1002.25
1001.16
1000.55
999.781
1001.78
1001.66
999.597
997.492
996.28
995.267
996.38
995.231
989.356
967.594
966.261
966.848
970.094
972.411
996.334
999.661
1000.97
1002
991.108
987.884
988.19
999.398
999.401
999.614
1000.17
1001.33
1003.01
1004.49
1004.55
1003.14
1005.53
1006.92
1005.54
1003.76
1001.69
1000.4
999.516
998.804
997.793
995.108
996.469
998.368
998.45
998.054
997.294
996.361
995.42
994.43
994.261
993.988
967.349
967.323
969.687
970.503
985.155
1001.39
1002.36
1003.28
999.587
987.86
988.478
993.503
993.567
993.218
994.113
995.258
997.308
999.217
1000.22
1000.39
1000.23
999.061
996.814
994.245
991.599
988.803
987.551
987.389
988.142
990.536
993.677
996.175
996.965
996.822
996.223
995.196
993.914
992.358
992.807
988.171
959.718
962.826
965.531
966.818
976.661
1002.19
1003.65
1004.39
1003.05
987.864
988.911
988.408
988.95
989.404
989.02
990.503
991.222
993.678
995.241
996.256
996.782
995.609
992.175
983.942
976.135
974.168
973.776
974.093
975.377
981.123
994.458
996.471
997.174
997.23
996.55
995.22
994.347
992.823
971.019
957.125
959.067
961.53
963.059
963.814
987.797
1004.78
1004.81
1004.57
1005.18
1003.01
994.316
989.989
989.803
989.802
981.754
972.864
974.592
990.591
994.218
991.446
993.453
995.664
985.401
975.272
975.704
975.605
975.233
975.443
978.781
995.078
997.465
998.931
999.959
1000.12
999.429
998.933
997.946
966.901
959.18
960.399
961.232
962.389
963.002
977.189
1007.15
1007.2
1006.03
1005.6
1006.89
1008.02
1008.21
958.93
951.793
951.607
941.788
936.665
954.066
994.679
999.968
979.779
967.642
995.035
996.022
976.09
976.691
976.289
975.557
981.951
997.637
998.651
999.696
1000.54
1001.13
1001.43
1001.61
1002.13
1003.12
994.808
983.98
988.115
996.227
986.198
991.914
1008.51
1009.95
1009.71
1009.14
1009.37
1010.2
1010.71
1011.99
932.358
932.474
932.554
933.279
934.901
942.428
999.336
1004.94
975.1
959.25
975.351
1001.14
995.892
977.887
977.277
992.634
997.567
995.983
999.003
1000.38
1001.21
1001.65
1002.01
1002.6
1002.97
1002.58
1001.53
999.873
1001.68
1006.52
1008.76
1011.35
1011.2
1011.57
1012.28
1012.41
1013.5
1013.88
1007.28
1007.5
931.981
931.552
931.059
974.107
998.679
994.936
1006.15
1005.28
981.93
954.13
953.085
1000.45
999.526
995.563
983.787
993.429
997.109
997.538
999.215
1000.91
1002.66
1003.86
1004.28
1002.47
995.469
996.332
997.385
1001.46
1003.6
1003.42
1005.16
1005.82
1007.21
1011.73
1013.62
1014.3
1014.97
1015.43
1003.18
1003.99
998.103
1002.79
1004.22
1001.41
1002.84
1008.05
1007.53
1007.05
997.258
947.4
944.081
956.396
996.963
996.686
995.899
984.846
984.46
993.064
999.77
1003.26
1005.03
1005.67
1000.45
993.789
994.853
998.026
1006.67
1007.42
1007.23
1005.8
996.36
978.443
988.534
1004.84
1006.66
1001.6
1013.35
999.378
1004.26
1015.58
1003.59
1009.62
1009.24
1003.18
1005.07
1008.64
1007.8
1006.32
1006.59
983.528
937.113
928.989
952.587
994.992
995.094
991.82
983.997
984.9
986.269
1005.13
1006.61
996.108
991.324
992.179
1003.34
1003.76
1004.37
1004.87
1005.01
1004.17
983.283
962.629
966.401
970.193
975.384
973.22
977.47
989.024
1017.33
1018.27
1010.88
1011.21
1011.08
1010.05
1006.88
1002.35
986.27
979.201
988.666
1001.42
981.599
922.833
921.082
930.85
989.604
998.016
998.874
988.004
979.42
982.743
1000.22
987.493
986.559
997.58
1000.18
1000.66
1001.17
1002.02
1002.76
1003.47
1005.09
987.783
966.261
968.675
970.732
972.574
975.193
998.422
1021.59
1021.16
1014.66
1014.68
1013.82
1011.3
984.372
977.312
976.67
976.191
988.016
1003.07
972.85
919.084
918.159
915.297
950.301
997.745
995.94
993.578
972.875
965.964
965.261
992.251
996.959
994.807
994.753
995.357
996.687
998.295
999.535
1001.02
1003.55
1006.96
1010.29
1005.85
978.841
988.165
1018.03
1017.94
1016.97
1017.62
1015.84
1015.05
1013.25
995.944
974.875
973.509
972.724
985.713
1001.05
999.905
954.738
918.209
916.754
945.846
982.807
991.964
942.846
917.691
942.127
981.429
985.732
985.722
981.066
951.61
944.097
983.317
991.369
994.599
996.437
997.23
999.414
1002.66
1006.17
1009.02
1011.27
1013.15
1013.23
987.71
974.271
1008.28
1014.33
1012.39
1009.33
1006.03
995.01
973.644
971.988
995.215
995.743
995.768
990.717
954.849
975.916
1002.84
997.38
921.929
850.846
851.245
857.307
965.72
983.839
982.193
969.492
906.062
906.496
956.788
992.419
992.286
969.673
961.117
982.665
997.363
1000.93
1004.22
1007.04
1008.71
1006.57
951.65
945.053
997.522
1009.84
1009.96
1006.63
1003.28
1001
1000.31
1001.85
989.772
984.463
993.679
1001.91
1002.58
1002.97
1002.1
988.847
869.138
850.743
851.196
850.631
850.61
908.646
926.982
874.817
875.228
902.232
987.194
994.126
963.458
943.145
943.54
943.261
962.392
990.391
1000.16
1003.32
1005.42
1005.92
970.379
941.018
986.552
1007.48
1008.14
1006.59
1003.57
1001.16
999.911
1001
1002.56
984.351
985.474
1000.36
1003.49
1004.24
1004.35
1003.62
932.899
853.693
853.546
853.085
852.324
850.843
849.278
850.785
908.966
993.903
993.086
992.601
953.032
941.56
942.544
943.931
944.548
946.674
997.414
1001.93
1003.94
1005.16
1003.34
939.35
985.315
1009.42
1007.87
1010.21
1007.55
1005.02
1002.27
1001.64
1004.44
990.806
986.878
1001.57
997.606
1002.64
1007.78
1007.15
1008.29
1001.33
894.54
851.894
858.609
931.791
985.158
1003.87
1002.18
999.496
975.315
966.601
966.03
948.016
940.318
953.186
944.069
948.06
992.225
1000.71
1002.76
1004.78
1003.59
961.986
980.815
1013.04
1014.7
1015.37
1013.59
1006.06
965.901
973.435
1005.14
999.657
1000.37
1009.43
1008.2
1007.56
1007.18
1008.42
1006.49
1010.88
1010.81
1007.9
1006.71
1005.01
1003.09
1001.98
1001.17
1000.23
946.297
859.815
880.09
934.716
976.947
989.097
987.887
987.795
998.382
1001.34
1002.78
1002.91
960.42
894.506
977.078
1020.02
1020.2
1020.04
1009.23
972.032
969.393
975.451
1010.3
1011.03
1007.65
1009.84
1007.44
1005.98
1006.34
1007.27
1008.11
1008.16
1002.95
1001.3
1004.71
1004.42
1003.25
1002.5
1001.41
1000.54
996.978
845.941
797.372
796.131
893.817
989.896
994.661
997.125
975.412
999.943
1006.09
990.471
877.27
848.474
914.94
1025.39
1025.06
1020.42
996.731
981.167
999.826
1019.88
1015.57
1010.94
1007.52
949.02
947.006
980.967
1000.3
1003.93
1006.03
1007.03
1006.37
1006.73
1006.6
1005.96
1004.66
1003.12
994.622
928.636
906.823
804.759
797.549
797.625
855.728
994.883
1002.12
960.84
963.47
1006.42
1005.27
875.203
839.937
843.535
867.931
1030.59
1029.26
1027.31
1000.97
1014.94
1023.44
1018.3
1011.72
946.063
883.08
868.914
867.054
883.465
989.45
1003.9
1004.59
1000.49
1005.17
1004.99
1005.21
1003.81
1002.75
1004.13
919.697
797.842
797.875
798.775
799.456
799.37
956.814
1006.28
1003.22
952.326
968.976
1011.22
912.565
841.376
840.605
842.099
922.315
1034.56
1032.63
908.188
872.966
915.692
916.87
915.81
874.424
868.241
868.868
870.856
869.897
942.4
1006.22
1002.95
991.806
988.077
867.26
902.299
999.631
986.1
964.122
1006.8
879.124
795.152
797.357
799.01
799.459
943.037
1017.05
1014.55
963.534
952.739
977.028
997.224
848.928
844.241
843.74
924.954
985.348
1012.35
891.332
821.086
823.717
824.752
828.35
846.75
886.301
901.468
928.595
975.51
991.338
1000.46
991.242
960.451
793.372
779.199
780.7
784.2
796.429
800.018
896.509
1011.91
997.674
884.577
799.72
833.11
991.475
1026.33
1025.03
982.952
953.577
954.34
958.003
981.86
890.834
962.884
887.7
1011.99
988.16
832.751
822.092
820.013
879.04
911.288
926.178
965.824
995.344
1015.75
1026.3
1024.21
1020.25
997.723
890.441
785.396
778.852
779.41
781.819
784.446
786.258
806.783
981.71
1013.26
1016.1
1018.04
985.728
1018.41
1026.45
1028.25
1000.71
957.357
955.981
957.767
991.873
1004.56
1015.66
1027.8
1030.78
1019.37
926.422
829.968
828.058
942.18
1044.27
1046.95
1043.61
1038.02
1030.91
1023.79
1013.05
938.019
863.142
841.765
840.782
889.248
887.945
842.301
832.174
831.253
866.75
986.965
1014.87
1017.01
1019.57
1022.03
1024.37
1026.05
1027.76
1028.89
965.367
958.668
960.717
1014.01
1030.11
1029.98
1029.9
1028.62
1028.79
970.703
922.24
942.622
1011.14
1063.78
1060.88
1054.42
1045.57
1036
1026.92
1010.59
873.18
838.324
834.489
832.33
833.257
885.44
902.16
909.598
899.014
894.685
924.995
990.831
978.818
971.121
978.394
1013.57
1025.3
1027.36
1028.32
1028.51
996.227
960.947
1021.94
1030.83
1030.87
1030.36
1029.55
1026.25
1000.64
918.687
919.015
1082.35
1079.88
1074.16
1066.7
1057.97
1047.32
1033.84
1018.26
1007.92
988.231
937.037
896.955
919.111
941.589
989.815
1004.57
1007.11
1009.42
1011.85
1005.36
1003.4
911.128
786.098
790.212
830.572
1012.56
1029.01
1027.14
1029.27
1030.53
1020.83
1029.71
1029.63
1030.05
1030.57
1029.77
1025.76
975.551
918.36
918.784
1098.25
1093.98
1086.93
1078.08
1066.5
1052.4
1035.64
1012.71
984.921
979.024
972.514
967.923
952.558
957.836
973.728
989.531
995
998.558
1002.54
1006.64
1009.91
1013.33
1019.32
957.069
743.903
742.801
740.46
902.235
1030.39
1029.75
1028.64
1028.48
1026.29
1028.01
1028.29
1029.22
1028.96
996.291
963.486
932.691
1114.85
1113.88
1104.7
1092.5
1078.44
1064.18
1041.54
977.06
947.062
933.439
891.499
784.523
651.449
649.434
719.824
824.589
905.999
960.736
990.042
996.82
999.767
1003.37
1009.12
1016.22
1024.31
872.152
733.785
735.163
780.02
1009.4
1031.64
1030.1
1020.35
1004.94
1003.04
1024.14
1025.08
1027.42
1029.6
1030.79
1035.74
1066.8
1048.35
1003.15
971.932
982.188
982.289
943.739
897.089
828.237
608.835
590.272
586.996
586.448
586.617
590.981
595.15
598.419
838.747
982.063
975.742
983.258
992.655
1002.88
1013.4
1023.62
895.433
734.544
736.713
797.843
1016.24
1029.71
1027.41
990.574
932.254
980.469
1016.77
1018.67
1024.48
1020.86
863.679
887.191
875.079
858.827
838.56
819.139
800.591
908.96
963.608
816.264
630.746
578.565
567.76
563.972
625.347
825.528
683.291
558.957
555.432
538.901
592.403
873.649
976.649
988.934
1003.01
1016.74
1029.45
853.961
728.149
728.192
847.394
1029.26
1034.31
1028.06
994.489
748.377
853.606
947.748
990.94
965.26
877.791
882.866
912.148
1001.89
965.674
836.944
878.358
999.833
971.206
942.753
927.189
888.506
682.08
762.047
849.685
848.264
847.084
853.133
829.899
516.876
454.293
452.467
679.606
963.408
990.587
1008.57
1022.45
1032.71
823.288
728.721
731.964
988.865
1045.56
1041.83
1018.02
654.755
594.622
835.977
969.442
970.879
1107.52
1093.56
1078.09
1062.83
1041.62
1013.26
982.341
948.496
911.9
872.817
832.82
800.531
778.687
735.156
736.031
768.944
791.456
809.47
817.378
647.334
392.758
383.629
468.037
843.707
971.484
998.076
1019.91
1033.28
991.473
728.596
731.291
932.973
1047.08
1032.27
721.572
565.156
567.629
815.71
1020.92
1023.77
1057.92
1044.43
1034.81
1017.8
992.152
957.655
913.644
779.409
628.609
464.963
317.644
257.098
247.633
232.36
203.151
191.935
275.374
609.374
792.389
780.328
498.527
338.744
375.986
758.229
958.338
985.264
1006.97
1020.95
1034.07
806.229
715.101
962.971
967.199
687.914
545.265
549.939
553.242
836.126
1038.51
1038.12
982.941
988.263
995.195
981.66
950.891
907.974
653.047
195.017
159.427
154.801
151.829
149.174
147.236
146.852
147.797
149.404
151.752
156.854
179.502
313.129
305.163
301.721
317.378
507.002
909.348
966.552
989.322
1004.17
1019.3
807.197
660.713
936.196
718.333
531.583
532.917
535.626
538.038
855.38
1039.39
1039.55
999.841
1001.78
982.829
958.138
923.958
548.048
163.59
155.705
152.396
149.156
146.015
143.024
140.681
139.463
139.378
141.691
145.888
150.137
155.238
163.201
199.758
304.936
522.63
818.822
927.792
946.432
963.814
979.336
993.306
654.515
516.758
557.129
609.265
584.848
519.822
522.251
523.846
881.741
1038.9
1039.67
1008.98
993.39
973.52
947.951
882.714
253.878
156.129
151.95
148.076
143.908
139.819
136.68
135.27
134.499
134.023
135.967
139.914
144.667
148.59
286.219
580.377
811.431
902.425
922.489
924.373
930.866
941.498
938.044
678.86
469.866
487.68
497.947
501.402
505.213
507.885
510.582
512.209
902.564
1040.87
1042.13
1017.66
1003.58
983.537
953.902
646.662
167.62
154.67
151.592
147.704
143.212
139.075
135.507
133.073
132.142
131.955
133.437
136.784
139.791
243.194
776.882
921.521
926.858
895.26
717.467
714.334
834.592
817.469
561.023
432.788
453.123
469.398
480.127
487.417
493.124
497.631
500.861
503.29
828.484
1045.11
1046.09
1038.93
1028.89
1008.66
975.095
575.421
171.471
155.01
152.579
149.547
146.25
142.719
139.114
136.195
134.985
134.576
135.582
138.062
147.21
597.411
932.098
943.184
949.364
758.68
399.282
393.585
427.503
432.772
417.111
429.097
443.002
453.692
464.722
475.409
483.176
488.391
492.861
494.546
818.309
1048.73
1050.57
1065.78
1055.37
1036.58
1005.89
866.721
422.513
157.538
152.688
149.412
147.1
144.872
142.723
141.5
141.314
141.982
143.035
143.984
149.777
685.287
958.523
965.306
974.815
770.529
406.328
407.814
412.174
419.247
426.91
432.926
438.103
450.57
648.94
834.987
564.217
481.55
486.306
487.956
918.54
1052.34
1044.93
1075.17
1065.15
1049.82
1026.61
999.199
888.066
418.816
186.782
150.202
148.105
146.908
145.649
145.011
145.068
145.595
146.399
147.174
167.222
612.453
957.748
985.285
997.81
947.618
492.19
421.038
425.779
431.044
434.944
438.927
444.432
732.264
983.337
1011.37
962.296
545.343
485.562
485.89
945.345
1061.12
956.128
1073.32
1065.35
1053.65
1037.9
1021.21
1006.13
993.084
787.327
303.366
167.309
149.352
148.565
148.026
147.679
147.241
146.666
145.546
145.927
348.764
758.929
968.959
1011.82
1025.69
927.351
509.683
435.539
438.115
441.765
445.119
524.235
963.231
1009.73
1016.79
1023.24
744.007
493.581
756.705
996.087
966.077
958.421
1067.96
1060.14
1051.89
1043.6
1033.88
1024.52
1015.69
1007.37
1000.31
740.185
292.905
185.688
151.195
150.188
150.574
150.82
150.533
150.086
150.744
244.622
505.425
746.461
887.89
928.839
741.972
542.009
508.829
550.3
624.119
793.436
1010.26
1016.64
1022.06
1027
710.128
573.351
1093.68
1018.44
961.25
959.933
1030.62
1026.77
1047.9
1046.31
1041.81
1035.71
1029.79
1025.77
1022.11
1019.05
1016.23
865.456
429.496
287.211
208.306
158.307
158.023
159.374
162.083
165.714
175.546
211.022
324.392
584.294
861.021
953.258
972.982
983.588
1003.89
1017.53
1020.44
1022.47
1023.87
1007.86
708.168
849.35
1090.71
1074.65
1063.7
1068.04
692.665
696.021
960.222
1026.67
1049.31
1046.66
1043.74
1042.72
1041.31
1039.22
1036.82
1032.95
1032.05
1035.97
1008.59
505.599
242.356
198.711
197.19
210.579
201.827
285.586
501.482
671.12
871.963
1021.14
1028.24
1029.56
1030.13
1030.6
1030.56
1029.81
1029.32
894.609
701.364
1090.62
1089.81
1093.59
1093.82
1095.07
602.366
596.668
594.192
670.391
962.038
1019.65
988.469
1001.31
1054.01
1057.17
1055.86
1054.45
1055.93
1057.6
1058.49
1059.07
1061.35
1068.92
996.366
687.408
353.587
289.199
307.673
649.779
1021.06
1035.19
1038.43
1040.84
1041.06
1040.32
1038.39
1036.16
997.454
691.165
858.6
1098.36
1073.35
1079.67
1099.21
1101.27
854.376
641.183
642.454
629.662
628.862
686.259
542.077
529.809
736.363
897.733
1021
1071.71
1072.03
1073.22
1075.63
1078.31
1081.25
852.977
522.545
430.757
334.349
299.715
333.604
611.013
1010.81
1035.74
1040.22
1044.82
1046.09
1046.52
1033.79
892.147
706.456
686.952
900.728
871.37
763.352
1015.92
1108.25
1112.72
1088.56
1011.51
989.697
666.882
661.977
730.006
472.704
432.958
429.162
424.785
457.26
930.664
1063.56
1082
1082.93
1082.52
1064.08
653.114
417.638
409.368
402.34
654.743
848.327
777.636
702.902
701.037
838.29
1003.45
899.8
764.519
701.804
694.102
692.895
691.135
809.979
733.673
741.989
958.32
1124.49
1102.26
967.961
999.165
877.826
798.635
1063.24
1095.87
1013.76
803.233
607.046
410.718
408.772
406.785
462.403
959.181
1040.62
1078.52
1083.91
1059.84
659.095
439.969
576.017
960.834
1085.4
1088.1
959.223
707.825
708.305
705.789
705.244
705.598
705.583
705.122
704.302
703.48
701.154
740.887
1039.47
1076.34
1074.83
910.047
425.727
842.332
798.158
1091.25
1093.81
1097.19
1099.18
1100.88
1101.66
799.987
447.672
400.726
399.498
397.832
401.344
910.403
1093.94
1105.8
1112.29
1079.82
1033.99
1087.13
1093.47
1094.26
1095.29
1090.83
1065.36
1038.06
980.279
946.154
933.448
861.162
826.419
902.333
933.811
934.439
877.456
868.164
862.428
862.493
172.017
348.755
712.367
1042.2
1094.61
1102.29
1104.9
1105.93
1104.78
1104.25
983.46
449.875
400.006
400.311
400.781
400.891
936.624
1115.18
1122.38
1128.37
1133.12
1069.22
972.53
974.278
974.687
1123.15
1129.03
1131.49
1133.97
1086.69
920.981
878.603
917.834
923.706
898.953
874.421
869.85
866.056
865.168
865.094
175.114
172.788
188.093
484.029
1040.64
1030.6
903.663
916.385
958.735
1009.53
1008.47
978.955
663.14
650.589
420.482
561.43
904.918
955.936
1061.06
1110.29
1129.94
1131.53
1132.6
1108.88
900.414
899.904
899.742
988.658
1134.19
1138.76
1020.73
917.015
1081.6
1121.04
1062.98
1037.14
1082.47
1093.38
1058.03
1069.98
176.64
175.606
222.532
580.056
805.918
534.692
272.785
147.861
167.562
345.38
363.98
602.484
763.471
854.99
848.771
751.346
700.99
703.626
784.357
1112.6
1131.15
1131.76
1132.32
1133.06
1134.79
1110.5
1101
1070.73
1132.97
1135.43
1136.74
1139.15
1140.35
1141.88
1142.25
1141.54
1141.08
1140.48
1090.29
1086.06
369.867
617.523
676.903
674.694
625.87
344.49
140.115
64.8212
70.9585
77.7496
94.5306
493.278
855.628
854.01
852.634
746.729
721.441
1006.09
1135.3
1134.54
1133.04
1130.29
1126.14
1119.51
1086.34
1061.55
1056.18
1118.91
1125.74
1125.16
1125.79
1127.41
1130.73
1133.35
1134.74
1135.2
1134.85
1133.22
1132.28
1130.74
1131.27
1076.16
747.512
591.989
582.649
561.866
324.148
42.5006
27.3777
34.2903
210.636
683.649
770.892
812.411
818.095
732.838
852.393
1018.76
1077.15
1087.81
1068.18
1029.2
970.244
728.875
491.975
482.681
732.433
1042.18
1081.08
948.553
875.717
868.049
910.716
962.445
990.226
1019.34
1020.72
1025.97
1025.88
1031.48
1173.06
1176.05
1031.86
1006.26
832.206
531.613
77.3231
29.0179
15.8005
41.9472
82.9011
0.649599
0.202654
0.0916629
7.95654
20.3087
26.5905
117.374
260.917
321.587
254.536
144.72
102.238
160.862
401.349
512.702
447.224
373.715
362.197
348.858
272.418
122.398
115.217
170.464
199.468
214.664
222.585
229.457
219.637
216.031
1174.13
1078.31
975.09
648.115
213.696
33.5801
7.89933
15.0559
10.9297
29.0232
25.6573
11.4256
-0.0327097
-0.0318228
0.0541277
0.116947
0.159418
0.174623
0.225647
0.29582
0.381188
0.455291
0.523602
0.528441
0.444816
0.509977
108.042
161.041
129.419
115.935
1.24035
0.512116
0.525573
0.560749
0.557766
0.564811
0.562109
0.562279
0.567235
0.56334
659.507
486.237
227.028
1.42686
1.21259
1.33736
6.1323
8.0963
8.96179
14.3683
15.2265
15.6346
9.21079
3.86285
0.124543
0.277096
0.332396
0.206774
0.275548
0.600036
0.702137
0.666723
0.721451
0.57444
0.488441
0.519237
0.517068
0.52055
0.515931
0.519592
0.562212
0.547314
0.546786
0.552937
0.555323
0.551256
0.554136
0.555024
0.594911
0.715212
19.0717
2.23874
1.45462
1.2084
1.14624
1.13358
2.90208
9.29364
8.41894
12.3339
9.19226
7.2407
4.38242
2.38784
0.721235
0.182585
0.208971
0.240657
0.273081
0.438861
0.714205
0.738652
0.754858
0.808423
0.84144
0.683885
0.483983
0.493403
0.507636
0.519872
0.541023
0.560235
0.57826
0.670748
0.727351
0.59999
0.549232
0.553249
0.646478
1.12483
17.5426
14.8225
14.524
5.9115
1.00138
1.02537