/*--------------------------------*- C++ -*----------------------------------*\
  =========                 |
  \\      /  F ield         | OpenFOAM: The Open Source CFD Toolbox
   \\    /   O peration     | Website:  https://openfoam.org
    \\  /    A nd           | Version:  8
     \\/     M anipulation  |
\*---------------------------------------------------------------------------*/
FoamFile
{
    version     2.0;
    format      ascii;
    class       volVectorField;
    location    "5.1";
    object      U;
}
// * * * * * * * * * * * * * * * * * * * * * * * * * * * * * * * * * * * * * //

dimensions      [0 1 -1 0 0 0 0];

internalField   nonuniform List<vector> 
9150
(
(0.00491681 -0.078276 0)
(0.0131076 -0.0974443 0)
(0.0108948 -0.10441 0)
(0.0088784 -0.107739 0)
(0.00274151 -0.10913 0)
(-0.00199151 -0.109492 0)
(-0.00855863 -0.108016 0)
(-0.0108734 -0.1044 0)
(-0.013075 -0.0974616 0)
(-0.0049266 -0.0782971 0)
(0.00592273 -0.0920272 0)
(0.0085712 -0.100494 0)
(0.00734208 -0.102337 0)
(0.00430854 -0.104593 0)
(0.00208927 -0.105422 0)
(-0.0017522 -0.105537 0)
(-0.00439946 -0.10437 0)
(-0.00737964 -0.102208 0)
(-0.0085512 -0.100481 0)
(-0.00591602 -0.0920273 0)
(0.00174938 -0.095484 0)
(0.00456844 -0.0989869 0)
(0.00374074 -0.100995 0)
(0.00319264 -0.10184 0)
(0.000573114 -0.102556 0)
(-0.0011794 -0.10234 0)
(-0.0033133 -0.10167 0)
(-0.00372784 -0.100982 0)
(-0.00456631 -0.0989735 0)
(-0.00174517 -0.0954766 0)
(0.00173936 -0.0984311 0)
(0.00246301 -0.100406 0)
(0.00217894 -0.10026 0)
(0.00136789 -0.100665 0)
(0.000770991 -0.100877 0)
(-0.000413377 -0.100889 0)
(-0.00126625 -0.100865 0)
(-0.00216499 -0.10026 0)
(-0.00246955 -0.100391 0)
(-0.00174249 -0.0984276 0)
(0.000181723 -0.0994884 0)
(0.000722132 -0.0995787 0)
(0.000439853 -0.100019 0)
(0.000605273 -0.0999213 0)
(0.000108671 -0.100126 0)
(-0.000229754 -0.100092 0)
(-0.000685588 -0.0998657 0)
(-0.000485833 -0.0999709 0)
(-0.000724997 -0.0995726 0)
(-0.000183352 -0.0994892 0)
(0.0758041 -0.19487 2.30448e-26)
(0.0493809 -0.185002 0)
(0.030502 -0.176078 0)
(0.0150675 -0.175448 0)
(0.00353459 -0.175686 0)
(-0.00554504 -0.175363 0)
(-0.0162375 -0.17382 0)
(-0.0306629 -0.176297 0)
(-0.0493942 -0.184811 0)
(-0.0757446 -0.194569 -2.2664e-26)
(0.0585621 -0.146729 5.97399e-27)
(0.0485161 -0.146759 0)
(0.0281881 -0.156228 0)
(0.0206031 -0.155759 0)
(0.00467883 -0.155534 0)
(-0.00434038 -0.156207 0)
(-0.0204769 -0.158141 0)
(-0.028169 -0.156567 0)
(-0.0483818 -0.146502 0)
(-0.0584756 -0.146493 -5.90839e-27)
(0.0476401 -0.121535 2.82094e-27)
(0.0422993 -0.131441 0)
(0.0297594 -0.134073 0)
(0.018085 -0.138171 0)
(0.00688703 -0.140531 0)
(-0.00525201 -0.140289 0)
(-0.0174797 -0.136982 0)
(-0.0297608 -0.133652 0)
(-0.0423866 -0.131271 0)
(-0.0476056 -0.121419 -2.75297e-27)
(0.0372455 -0.0993879 4.69398e-27)
(0.0391581 -0.11029 0)
(0.022394 -0.120244 0)
(0.0169974 -0.125269 0)
(0.00396864 -0.125441 0)
(-0.00501288 -0.125039 0)
(-0.0177899 -0.124838 0)
(-0.0226548 -0.12027 0)
(-0.0393167 -0.110283 0)
(-0.0372691 -0.0993783 -4.68714e-27)
(0.0246655 -0.0815256 -1.3958e-26)
(0.0279645 -0.10118 -1.65007e-26)
(0.0200692 -0.108301 -4.06382e-27)
(0.0110666 -0.113785 -3.63643e-27)
(0.00414547 -0.116865 -1.58001e-28)
(-0.00508497 -0.116942 -1.48291e-28)
(-0.0109408 -0.114006 -3.60909e-27)
(-0.0200294 -0.108272 -4.07777e-27)
(-0.0279575 -0.10119 -1.64874e-26)
(-0.0246711 -0.0815511 -1.39587e-26)
(0.0183882 -0.146641 0)
(0.0126311 -0.205786 0)
(0.0209174 -0.218743 0)
(0.00561815 -0.225555 0)
(0.0046782 -0.226721 0)
(-0.0109548 -0.2264 0)
(-0.0130376 -0.222552 0)
(-0.024461 -0.215438 0)
(-0.0142978 -0.204387 0)
(-0.019139 -0.145854 0)
(0.0164315 -0.166159 0)
(0.00194656 -0.199269 0)
(0.0154331 -0.208955 0)
(0.00239703 -0.213143 0)
(0.00482254 -0.214752 0)
(-0.00608429 -0.214744 0)
(-0.00238193 -0.214379 0)
(-0.0152186 -0.209221 0)
(-0.00177359 -0.198955 0)
(-0.0167062 -0.165613 0)
(0.0147147 -0.172227 0)
(-0.00413848 -0.203528 0)
(0.0107351 -0.208778 0)
(-0.00106625 -0.209729 0)
(0.00444197 -0.210025 0)
(-0.00295564 -0.210446 0)
(0.00137694 -0.210191 0)
(-0.0110523 -0.208449 0)
(0.00410378 -0.203265 0)
(-0.0146779 -0.171861 0)
(0.0177446 -0.1943 0)
(-0.00701039 -0.204289 0)
(0.00960748 -0.210672 0)
(-0.000933765 -0.207176 0)
(0.000919481 -0.207189 0)
(-0.00184382 -0.207041 0)
(0.000415249 -0.205884 0)
(-0.00986859 -0.210164 0)
(0.00698291 -0.204134 0)
(-0.0180442 -0.194151 0)
(0.0357319 -0.217539 0)
(0.00949138 -0.204307 0)
(0.0165869 -0.203511 0)
(0.0122318 -0.196042 0)
(0.00261023 -0.192756 0)
(-0.00119757 -0.192769 0)
(-0.0116179 -0.196146 0)
(-0.0163008 -0.202752 0)
(-0.00948832 -0.203974 0)
(-0.0355105 -0.217142 0)
(-0.0494035 0.013828 0)
(-0.0571358 0.0158645 0)
(-0.0698622 0.0121224 0)
(-0.0853217 0.00209008 0)
(-0.0998651 0.00084538 0)
(-0.114569 0.0123019 0)
(-0.134465 0.0138316 0)
(-0.154092 0.00113508 0)
(-0.164164 0.000972285 0)
(-0.177002 0.0126128 0)
(-0.0734321 0.00876382 0)
(-0.0840982 0.0246896 0)
(-0.0947205 0.0459604 0)
(-0.1123 0.0580699 0)
(-0.137323 0.0552316 0)
(-0.156329 0.0541586 0)
(-0.168747 0.062364 0)
(-0.186242 0.0595277 0)
(-0.206688 0.045283 0)
(-0.220056 0.0321984 0)
(-0.120368 0.0503535 0)
(-0.143383 0.0596819 0)
(-0.161432 0.0762608 0)
(-0.170041 0.0856665 0)
(-0.184664 0.086131 0)
(-0.203779 0.0839759 0)
(-0.211337 0.0787612 0)
(-0.213875 0.069996 0)
(-0.21587 0.0561203 0)
(-0.214352 0.0373707 0)
(-0.157263 0.0835221 0)
(-0.181012 0.101396 0)
(-0.195683 0.111292 0)
(-0.203472 0.11251 0)
(-0.210726 0.103411 0)
(-0.215615 0.0935776 0)
(-0.220871 0.085536 0)
(-0.220574 0.0698976 0)
(-0.21577 0.0466683 0)
(-0.2079 0.0224284 0)
(-0.173334 0.117535 0)
(-0.1882 0.130329 0)
(-0.198102 0.130556 0)
(-0.20296 0.123982 0)
(-0.208425 0.114195 0)
(-0.213518 0.107325 0)
(-0.215139 0.0900222 0)
(-0.213379 0.0634629 0)
(-0.209552 0.0329751 0)
(-0.203456 0.0049553 0)
(-0.159661 0.149619 0)
(-0.179192 0.152075 0)
(-0.19084 0.138427 0)
(-0.193674 0.126017 0)
(-0.196576 0.120383 0)
(-0.200982 0.111003 0)
(-0.203251 0.0875572 0)
(-0.202119 0.0550729 0)
(-0.202176 0.0267332 0)
(-0.200924 0.00422578 0)
(-0.126056 0.18683 0)
(-0.139339 0.18873 0)
(-0.158693 0.157469 0)
(-0.165463 0.133352 0)
(-0.172035 0.125708 0)
(-0.17761 0.112039 0)
(-0.178921 0.0871035 0)
(-0.178177 0.056066 0)
(-0.18003 0.0291827 0)
(-0.181597 0.00868257 0)
(-0.0886802 0.200113 0)
(-0.0873985 0.21219 0)
(-0.0954228 0.192224 0)
(-0.113583 0.162485 0)
(-0.13132 0.147542 0)
(-0.135801 0.133522 0)
(-0.126406 0.100443 0)
(-0.117944 0.0643541 0)
(-0.115372 0.0376395 0)
(-0.115576 0.0102002 0)
(-0.0743117 0.183051 0)
(-0.0635979 0.209637 0)
(-0.0620537 0.21088 0)
(-0.0694332 0.197513 0)
(-0.0892786 0.165825 0)
(-0.103513 0.110317 0)
(-0.095148 0.0516855 0)
(-0.080467 0.0239813 0)
(-0.0529584 0.0186041 0)
(-0.0398252 0.0193263 0)
(-0.0726922 0.156579 0)
(-0.0590801 0.189607 0)
(-0.0418481 0.200578 0)
(-0.0288595 0.202416 0)
(-0.0273059 0.198234 0)
(-0.0393595 0.148629 0)
(-0.0485513 0.0724752 0)
(-0.0325615 -0.011757 0)
(-0.0146069 -0.0536731 0)
(0.00540867 -0.054062 0)
(-0.0654813 0.142236 0)
(-0.0604928 0.147886 0)
(-0.0505532 0.164377 0)
(-0.0350003 0.189892 0)
(-0.0229713 0.191341 0)
(-0.0115054 0.151926 0)
(-0.00616752 0.0663831 0)
(0.001154 -0.0362314 0)
(-0.016946 -0.0595837 0)
(-0.0273938 -0.0376712 0)
(-0.0398073 0.157236 0)
(-0.0462412 0.139141 0)
(-0.045183 0.137947 0)
(-0.0371828 0.146252 0)
(-0.0228123 0.142934 0)
(-0.0161848 0.130634 0)
(-0.0172358 0.0552279 0)
(-0.0386057 0.0119217 0)
(-0.0636228 -0.0147378 0)
(-0.065074 -0.0353268 0)
(0.025635 0.208061 0)
(0.00349371 0.17696 0)
(-0.0193654 0.151778 0)
(-0.0290724 0.138183 0)
(-0.026906 0.12395 0)
(-0.0225724 0.123607 0)
(-0.0235993 0.0820552 0)
(-0.0410274 0.0451329 0)
(-0.050953 -0.00607098 0)
(-0.058957 -0.0236684 0)
(0.071638 0.227012 0)
(0.0648955 0.220253 0)
(0.0518177 0.205555 0)
(0.0272789 0.179644 0)
(0.0133771 0.137663 0)
(0.00453391 0.120924 0)
(0.000778468 0.105301 0)
(-0.00915448 0.074206 0)
(-0.0270789 0.024085 0)
(-0.0452347 -0.00482287 0)
(0.0912686 0.228178 0)
(0.0903841 0.226418 0)
(0.0890199 0.220537 0)
(0.081875 0.209547 0)
(0.0762035 0.181509 0)
(0.0616767 0.150144 0)
(0.0457955 0.132546 0)
(0.0385376 0.10373 0)
(0.0203424 0.0670346 0)
(0.00289587 0.0363674 0)
(0.0927996 0.229022 0)
(0.0922649 0.226586 0)
(0.0929488 0.219506 0)
(0.0916416 0.210658 0)
(0.0889943 0.192685 0)
(0.0849343 0.169617 0)
(0.0735265 0.15255 0)
(0.0677358 0.128428 0)
(0.0486672 0.0996924 0)
(0.0258797 0.0706131 0)
(0.089285 0.234211 0)
(0.0864682 0.226199 0)
(0.0866217 0.216354 0)
(0.0869102 0.209595 0)
(0.0858993 0.195382 0)
(0.0845555 0.177822 0)
(0.0786636 0.163842 0)
(0.0749049 0.15042 0)
(0.0591136 0.138162 0)
(0.0403263 0.110944 0)
(0.0900752 0.251503 0)
(0.0750001 0.235257 0)
(0.0698419 0.219237 0)
(0.068598 0.204745 0)
(0.0706484 0.190399 0)
(0.0759127 0.178325 0)
(0.0752823 0.167531 0)
(0.0753798 0.165453 0)
(0.0708912 0.170204 0)
(0.0595039 0.16425 0)
(0.09378 0.286505 0)
(0.0793831 0.261873 0)
(0.0643187 0.231289 0)
(0.0603259 0.208466 0)
(0.0592764 0.182956 0)
(0.0623537 0.168291 0)
(0.0692541 0.163524 0)
(0.0734317 0.164405 0)
(0.0767316 0.175133 0)
(0.0779439 0.194605 0)
(0.0962976 0.299846 0)
(0.0943219 0.290924 0)
(0.0820057 0.26128 0)
(0.0664151 0.218748 0)
(0.0601813 0.18543 0)
(0.0592983 0.158457 0)
(0.0651379 0.149816 0)
(0.0724939 0.152463 0)
(0.0784583 0.168495 0)
(0.0895089 0.190833 0)
(0.0928328 0.295772 0)
(0.0949037 0.292249 0)
(0.0954584 0.280689 0)
(0.0895642 0.253702 0)
(0.0719019 0.20338 0)
(0.0632363 0.160243 0)
(0.0644741 0.136951 0)
(0.071769 0.13525 0)
(0.077085 0.147982 0)
(0.0891186 0.178157 0)
(0.0867533 0.282582 0)
(0.0927943 0.285651 0)
(0.0954725 0.280024 0)
(0.0955411 0.267007 0)
(0.0925583 0.238381 0)
(0.0763552 0.174862 0)
(0.0687373 0.134582 0)
(0.0723018 0.125381 0)
(0.0750592 0.131837 0)
(0.0844735 0.150224 0)
(0.0717702 0.269521 0)
(0.0804495 0.269895 0)
(0.0902978 0.271416 0)
(0.0920332 0.264457 0)
(0.0924737 0.247075 0)
(0.0855309 0.205562 0)
(0.0699963 0.140768 0)
(0.0676819 0.122997 0)
(0.0677036 0.123995 0)
(0.0690104 0.132643 0)
(0.0613938 0.25151 0)
(0.0687748 0.249309 0)
(0.0744433 0.257414 0)
(0.0791152 0.25721 0)
(0.0795725 0.250896 0)
(0.0743039 0.223261 0)
(0.068665 0.162458 0)
(0.0571768 0.132951 0)
(0.0505734 0.128847 0)
(0.043945 0.13642 0)
(0.0474841 0.241709 0)
(0.0473 0.246613 0)
(0.0451983 0.251768 0)
(0.0515548 0.254534 0)
(0.0564224 0.250886 0)
(0.064148 0.219148 0)
(0.06557 0.18162 0)
(0.0597884 0.153448 0)
(0.0480811 0.140903 0)
(0.0428305 0.146301 0)
(0.0111324 0.244698 0)
(0.0114074 0.250549 0)
(0.0207017 0.240557 0)
(0.0345498 0.244788 0)
(0.0474102 0.235152 0)
(0.0627023 0.202982 0)
(0.0658664 0.179636 0)
(0.0666768 0.171347 0)
(0.0603034 0.162888 0)
(0.0436424 0.170325 0)
(-0.0345653 0.23679 0)
(-0.0167258 0.223903 0)
(0.00641629 0.198457 0)
(0.0308393 0.20473 0)
(0.0421716 0.19213 0)
(0.0553353 0.174079 0)
(0.0589779 0.170984 0)
(0.0568902 0.175993 0)
(0.0447207 0.195504 0)
(0.0152682 0.210371 0)
(-0.0463465 0.194038 0)
(-0.0172143 0.155501 0)
(0.00543363 0.143085 0)
(0.0178686 0.172086 0)
(0.0237565 0.182716 0)
(0.0200789 0.165362 0)
(0.0185562 0.176803 0)
(0.00414315 0.209525 0)
(-0.0124199 0.230962 0)
(-0.0212225 0.225594 0)
(-0.0339631 0.146946 0)
(-0.0231302 0.125379 0)
(-0.0161425 0.134581 0)
(-0.0208489 0.178763 0)
(-0.0235601 0.189603 0)
(-0.040042 0.18398 0)
(-0.0543421 0.204953 0)
(-0.0563529 0.228422 0)
(-0.0520239 0.233502 0)
(-0.0366817 0.217303 0)
(-0.0679966 0.128098 0)
(-0.0726904 0.119331 0)
(-0.076683 0.129703 0)
(-0.0714772 0.197443 0)
(-0.0766795 0.212456 0)
(-0.0843538 0.203835 0)
(-0.0730139 0.205541 0)
(-0.0606615 0.21662 0)
(-0.0438101 0.204929 0)
(-0.0182546 0.15874 0)
(-0.128246 0.131513 0)
(-0.130879 0.125187 0)
(-0.127004 0.137589 0)
(-0.115942 0.201952 0)
(-0.107105 0.207739 0)
(-0.0906459 0.187453 0)
(-0.080017 0.177203 0)
(-0.0616894 0.166328 0)
(-0.0392826 0.146478 0)
(-0.0200136 0.124208 0)
(-0.195455 0.125752 0)
(-0.198345 0.122289 0)
(-0.200799 0.126042 0)
(-0.179878 0.158688 0)
(-0.154532 0.158089 0)
(-0.137837 0.153715 0)
(-0.126905 0.14336 0)
(-0.110778 0.129378 0)
(-0.0897687 0.115813 0)
(-0.0711424 0.0982865 0)
(-0.289261 0.134587 0)
(-0.282503 0.130281 0)
(-0.266636 0.124374 0)
(-0.238573 0.122373 0)
(-0.209922 0.122308 0)
(-0.187044 0.12745 0)
(-0.169139 0.120008 0)
(-0.14952 0.104315 0)
(-0.123218 0.0761553 0)
(-0.0958342 0.0540704 0)
(-0.386757 0.111745 0)
(-0.379648 0.0915183 0)
(-0.352544 0.0640424 0)
(-0.311449 0.0400848 0)
(-0.268832 0.0473303 0)
(-0.225759 0.0766609 0)
(-0.189752 0.0903438 0)
(-0.154487 0.0597087 0)
(-0.108735 0.015033 0)
(-0.0593249 -0.0123991 0)
(-0.377881 0.101305 0)
(-0.372943 0.0329835 0)
(-0.361435 -0.0409463 0)
(-0.354632 -0.0569472 0)
(-0.334637 -0.0482467 0)
(-0.294014 -0.0345645 0)
(-0.222479 -0.0336689 0)
(-0.140307 -0.0689312 0)
(-0.0601024 -0.117628 0)
(0.0237307 -0.154519 0)
(-0.351839 0.113372 0)
(-0.392572 0.085358 0)
(-0.414127 0.0472798 0)
(-0.399304 0.0175529 0)
(-0.357026 -0.0486878 0)
(-0.256798 -0.172348 0)
(-0.164629 -0.252404 0)
(-0.052409 -0.308963 0)
(0.0366139 -0.35114 0)
(0.142027 -0.381836 0)
(-0.473275 0.220941 0)
(-0.478766 0.187029 0)
(-0.360979 -0.0974836 0)
(-0.231384 -0.241349 0)
(-0.160326 -0.302493 0)
(-0.07038 -0.393463 0)
(-0.0131609 -0.464344 0)
(0.0688104 -0.509532 0)
(0.144938 -0.556157 0)
(0.206264 -0.565083 0)
(-0.42321 0.274338 0)
(-0.239464 -0.160726 0)
(-0.126441 -0.353704 0)
(-0.0760621 -0.405083 0)
(-0.0349213 -0.420953 0)
(0.011061 -0.455154 0)
(0.0524671 -0.525585 0)
(0.0944711 -0.605647 0)
(0.158302 -0.667753 0)
(0.209868 -0.672336 0)
(-0.202352 -0.0144891 0)
(-0.0445251 -0.348403 0)
(-0.0434822 -0.426388 0)
(-0.0303377 -0.448896 0)
(-0.0100753 -0.472793 0)
(0.0143961 -0.507434 0)
(0.0508911 -0.589231 0)
(0.094925 -0.72198 0)
(0.147542 -0.785322 0)
(0.192536 -0.767968 0)
(0.0121298 -0.132258 0)
(0.0427024 -0.403278 0)
(0.017839 -0.431645 0)
(-0.0022043 -0.453974 0)
(-0.00806127 -0.49974 0)
(0.0295835 -0.58473 0)
(0.108983 -0.724869 0)
(0.175284 -0.809964 0)
(0.218911 -0.845204 0)
(0.22445 -0.809199 0)
(0.141931 -0.24326 0)
(0.139475 -0.374727 0)
(0.110832 -0.391753 0)
(0.0736801 -0.409668 0)
(0.0615306 -0.534373 0)
(0.150236 -0.762893 0)
(0.195437 -0.871266 0)
(0.230573 -0.888244 0)
(0.246497 -0.876287 0)
(0.238957 -0.813466 0)
(0.184369 -0.291177 0)
(0.185141 -0.327744 0)
(0.1619 -0.353172 0)
(0.135411 -0.39366 0)
(0.197507 -0.629528 0)
(0.254654 -0.861849 0)
(0.266672 -0.901516 0)
(0.271102 -0.900002 0)
(0.259517 -0.877828 0)
(0.23998 -0.760149 0)
(0.192518 -0.283699 0)
(0.192694 -0.312749 0)
(0.182339 -0.357438 0)
(0.194668 -0.445145 0)
(0.294315 -0.742121 0)
(0.313256 -0.87789 0)
(0.302595 -0.892765 0)
(0.291704 -0.886951 0)
(0.254416 -0.82432 0)
(0.176223 -0.622163 0)
(0.140948 -0.28743 0)
(0.146551 -0.320472 0)
(0.165907 -0.384565 0)
(0.215655 -0.535469 0)
(0.326464 -0.823378 0)
(0.318034 -0.882527 0)
(0.308199 -0.87172 0)
(0.273753 -0.822126 0)
(0.162779 -0.65494 0)
(0.0246701 -0.393204 0)
(0.0787148 -0.331138 0)
(0.0902142 -0.365596 0)
(0.146856 -0.45299 0)
(0.244361 -0.749935 0)
(0.314718 -0.872081 0)
(0.298014 -0.865862 0)
(0.257504 -0.799347 0)
(0.131889 -0.617488 0)
(-0.0738072 -0.281722 0)
(-0.127953 -0.223356 0)
(0.0176747 -0.349669 0)
(0.0410389 -0.398842 0)
(0.113758 -0.73195 0)
(0.216248 -0.950409 0)
(0.23864 -0.915663 0)
(0.208474 -0.823809 0)
(0.0862734 -0.552323 0)
(-0.127301 -0.197817 0)
(-0.185122 -0.131654 0)
(-0.2227 -0.187006 0)
(-0.0404067 -0.328251 0)
(0.0218155 -0.51227 0)
(0.112682 -0.975363 0)
(0.127403 -0.985616 0)
(0.121183 -0.816575 0)
(-0.0281806 -0.486922 0)
(-0.131815 -0.166136 0)
(-0.201956 -0.0769344 0)
(-0.21028 -0.0738306 0)
(-0.253223 -0.136644 0)
(-0.0792629 -0.332682 0)
(0.0300475 -0.78742 0)
(0.0586774 -1.02932 0)
(0.0501872 -0.951185 0)
(0.0265407 -0.573091 0)
(-0.0895819 -0.304484 0)
(-0.125586 -0.0678512 0)
(-0.175818 -0.0170217 0)
(-0.19093 -0.0160827 0)
(-0.234606 -0.0834565 0)
(-0.0357074 -0.385175 0)
(0.053211 -0.842205 0)
(0.00422823 -1.01622 0)
(0.0060616 -0.913848 0)
(0.00116597 -0.464593 0)
(-0.0675797 -0.242759 0)
(-0.0678132 -0.0241996 0)
(-0.098218 0.04676 0)
(-0.123305 0.0400533 0)
(-0.158182 -0.0193109 0)
(-0.0568499 -0.415972 0)
(-0.0379567 -0.874967 0)
(-0.0702736 -0.967342 0)
(-0.0671358 -0.88439 0)
(-0.0173139 -0.42257 0)
(-0.0692775 -0.21275 0)
(-0.0372631 -0.0449569 0)
(-0.0352088 0.0939848 0)
(-0.0493139 0.0897323 0)
(-0.0855433 0.0319194 0)
(-0.051995 -0.334188 0)
(-0.13404 -0.812267 0)
(-0.162087 -0.938095 0)
(-0.144079 -0.90662 0)
(-0.0125769 -0.443917 0)
(-0.00999604 -0.174223 0)
(-0.0271271 -0.0775008 0)
(0.0101787 0.0875498 0)
(0.00828943 0.116516 0)
(-0.00578662 0.0726255 0)
(-0.0519505 -0.180734 0)
(-0.214254 -0.697539 0)
(-0.200194 -0.967827 0)
(-0.192033 -1.00958 0)
(-0.0253314 -0.711691 0)
(0.0720115 -0.17164 0)
(0.0508754 -0.0564828 0)
(0.0464059 0.0687417 0)
(0.0618519 0.132767 0)
(0.0628333 0.12854 0)
(-0.0153995 -0.0462844 0)
(-0.161273 -0.567993 0)
(-0.173588 -1.04988 0)
(-0.145935 -1.2104 0)
(-0.0446694 -1.09552 0)
(0.0395566 -0.462759 0)
(0.192587 -0.0319272 0)
(0.18248 0.0545849 0)
(0.164092 0.0833807 0)
(0.0989334 0.138456 0)
(0.0840573 0.103125 0)
(-0.00257008 -0.312341 0)
(-0.111973 -1.03596 0)
(-0.120554 -1.28134 0)
(-0.060933 -1.19585 0)
(0.00315867 -0.731352 0)
(0.112011 -0.33278 0)
(0.208247 0.00440874 0)
(0.189045 0.196427 0)
(0.0987538 0.258766 0)
(0.145673 0.139931 0)
(0.13562 -0.00984292 0)
(-0.0562783 -0.885751 0)
(-0.140948 -1.31462 0)
(-0.0779143 -1.22939 0)
(-0.0838015 -0.810088 0)
(0.0185482 -0.256153 0)
(-0.0746471 -0.0281444 0)
(0.0565664 0.254396 0)
(0.0480404 0.367114 0)
(0.182526 0.157259 0)
(0.203671 0.149295 0)
(0.0771017 -0.409074 0)
(-0.099162 -1.28462 0)
(-0.0418931 -1.25908 0)
(-0.0371779 -0.957084 0)
(0.00704125 -0.207675 0)
(-0.0973061 -0.123987 0)
(0.0159488 0.16115 0)
(0.0549227 0.230066 0)
(0.205806 0.144002 0)
(0.222328 0.152291 0)
(0.186263 0.0137794 0)
(-0.008728 -1.0852 0)
(-0.00943798 -1.2489 0)
(0.00093656 -1.07456 0)
(0.0420596 -0.164594 0)
(-0.0485798 -0.106012 0)
(0.0178354 -0.0819775 0)
(0.0343165 -0.0966558 0)
(0.15742 0.13029 0)
(0.153232 0.167484 0)
(0.1177 0.125176 0)
(-0.0474537 -0.996085 0)
(-0.00258726 -1.23991 0)
(-0.0303836 -1.12204 0)
(0.0115464 -0.0723432 0)
(-0.0669419 -0.0438186 0)
(-0.0524075 -0.0227145 0)
(-0.0768252 -0.0119081 0)
(0.136705 0.146634 0)
(0.116759 0.248682 0)
(0.0764331 0.280398 0)
(-0.0360865 -0.915464 0)
(0.00444445 -1.24055 0)
(-0.0290948 -1.15838 0)
(0.0101405 -0.0146248 0)
(-0.049292 -0.0205943 0)
(-0.0489137 -0.0401653 0)
(-0.0703951 -0.0435114 0)
(0.120447 0.24374 0)
(0.109264 0.305658 0)
(0.0492879 0.341533 0)
(-0.0540967 -0.895337 0)
(-0.00788911 -1.24838 0)
(-0.0413592 -1.17554 0)
(0.0393234 -0.0154193 0)
(-0.00560888 0.0223144 0)
(0.0117577 0.00717541 0)
(-0.0220376 -0.0227903 0)
(0.119388 0.269217 0)
(0.133196 0.365798 0)
(-0.00512792 0.482243 0)
(-0.118265 -0.947866 0)
(-0.0181729 -1.2531 0)
(-0.0506265 -1.17836 0)
(-0.00141247 -0.0972174 0)
(0.0795498 0.0525571 0)
(0.0704393 0.000854656 0)
(0.0522987 -0.0988775 0)
(0.159039 0.287963 0)
(0.103029 0.489375 0)
(-0.103965 0.893954 0)
(5.85206e-05 -1.01979 0)
(0.0060039 -1.23365 0)
(-0.0234809 -1.19038 0)
(-0.00443797 -0.449397 0)
(0.170558 -0.00675955 0)
(0.203187 0.0276356 0)
(0.188464 0.0127282 0)
(-0.259403 0.60659 0)
(-0.140046 0.966477 0)
(-0.161459 1.24777 0)
(-0.010089 -1.18448 0)
(-0.00965008 -1.20545 0)
(-0.0302108 -1.15737 0)
(-0.0109355 -0.54284 0)
(0.0468509 -0.351046 0)
(0.198076 -0.131199 0)
(0.287748 -0.0770519 0)
(-0.512166 0.658987 0)
(-0.355693 0.800799 0)
(-0.0918606 0.247697 0)
(0.000480582 -1.19758 0)
(0.00194543 -1.18525 0)
(-0.0264184 -1.14939 0)
(0.00634877 -0.578908 0)
(-0.00196659 -0.394527 0)
(-0.0136054 -0.298467 0)
(0.0674535 -0.00446106 0)
(-0.494118 0.491716 0)
(-0.390615 0.411571 0)
(-0.00627353 -0.624667 0)
(-0.00101564 -1.17056 0)
(0.00877648 -1.14321 0)
(-0.0226596 -1.13979 0)
(0.0126691 -0.616673 0)
(-0.00627502 -0.346471 0)
(-0.0400633 -0.296668 0)
(0.00471386 -0.115816 0)
(-0.24677 0.27379 0)
(-0.0564816 0.112208 0)
(0.0160652 -0.635521 0)
(-0.00162759 -1.15705 0)
(0.010772 -1.12498 0)
(-0.0197589 -1.12058 0)
(0.00990176 -0.73473 0)
(0.0312626 -0.288923 0)
(-0.0184008 -0.269736 0)
(0.0113496 -0.168285 0)
(-0.134915 0.0595361 0)
(-0.0167531 -0.180377 0)
(0.0117048 -0.733906 0)
(0.00963973 -1.14884 0)
(0.00617492 -1.10564 0)
(-0.0138757 -1.09702 0)
(0.00474226 -0.822767 0)
(0.0258755 -0.205999 0)
(-0.0372004 -0.234112 0)
(-0.0178679 -0.126092 0)
(-0.0240883 -0.0379232 0)
(-0.011376 -0.220642 0)
(0.0202155 -0.770338 0)
(0.0128926 -1.13016 0)
(0.00837567 -1.0868 0)
(-0.00639327 -1.07893 0)
(0.00167371 -0.938196 0)
(0.0114351 -0.13877 0)
(-0.0745206 -0.227513 0)
(-0.0663876 -0.0912453 0)
(0.0170856 -0.0712555 0)
(-0.00290682 -0.230202 0)
(0.021427 -0.805165 0)
(0.00733249 -1.10893 0)
(0.00655984 -1.06671 0)
(-0.00106074 -1.06353 0)
(-0.0095788 -0.978459 0)
(0.0582037 -0.0195023 0)
(-0.0798508 -0.109687 0)
(-0.0693519 0.0351283 0)
(0.0323582 -0.04497 0)
(-2.98775e-05 -0.2064 0)
(0.0180744 -0.832693 0)
(-0.000842874 -1.0868 0)
(0.00296382 -1.05428 0)
(-0.00587052 -1.05161 0)
(-0.0102532 -0.991563 0)
(0.0565824 -0.00514648 0)
(-0.0467297 -0.00530918 0)
(-0.0406921 0.193386 0)
(0.0237833 -0.00968955 0)
(0.00372306 -0.200885 0)
(0.0199319 -0.840339 0)
(0.00664944 -1.06775 0)
(0.00400168 -1.04591 0)
(-0.00694401 -1.04212 0)
(-0.0137663 -0.987287 0)
(0.00753867 0.0322311 0)
(-0.0839702 0.0402618 0)
(-0.0986556 0.288189 0)
(0.0162816 0.0379862 0)
(0.0199167 -0.206583 0)
(0.0308282 -0.836276 0)
(0.0082028 -1.04756 0)
(0.00622793 -1.03456 0)
(-0.00469951 -1.03303 0)
(-0.00147406 -1.00173 0)
(-0.0128132 0.121444 0)
(-0.0866054 0.18075 0)
(-0.0759687 0.20349 0)
(0.0188675 0.0462706 0)
(0.0327944 -0.221234 0)
(0.0326907 -0.828906 0)
(0.0118332 -1.02802 0)
(0.00660577 -1.0219 0)
(-0.000605544 -1.02297 0)
(-0.000480438 -1.01117 0)
(0.00998434 0.168689 0)
(0.0280631 0.226806 0)
(0.0695265 0.00334112 0)
(0.0130541 0.0118254 0)
(0.0314749 -0.225959 0)
(0.0216326 -0.797063 0)
(0.00636101 -1.01216 0)
(0.00469138 -1.00612 0)
(-0.0080348 -1.00813 0)
(-0.0113484 -1.00444 0)
(0.00644495 0.103886 0)
(0.226233 0.264788 0)
(0.235535 0.171687 0)
(0.0429848 -0.00423686 0)
(0.049664 -0.200989 0)
(0.0244419 -0.736951 0)
(0.00573409 -0.992233 0)
(0.00304055 -0.990275 0)
(-0.00947936 -0.990042 0)
(-0.0158877 -1.00097 0)
(-0.0164277 -0.625511 0)
(0.218957 -0.138735 0)
(0.295448 -0.0822549 0)
(0.0166617 -0.0580263 0)
(0.0437656 -0.246702 0)
(0.0428005 -0.707045 0)
(0.0174978 -0.974567 0)
(0.0114883 -0.970717 0)
(-0.00419907 -0.967537 0)
(-0.00663274 -0.970824 0)
(-0.00179584 -0.582903 0)
(0.0119595 -0.0735939 0)
(-0.0379019 0.147541 0)
(-0.01664 -0.117175 0)
(0.0213617 -0.303147 0)
(0.0472965 -0.670677 0)
(0.0182506 -0.959114 0)
(0.0129317 -0.945437 0)
(-0.00300154 -0.948338 0)
(-0.00453375 -0.958885 0)
(-0.018737 -0.527706 0)
(-0.0725473 -0.0381592 0)
(-0.0916225 0.110291 0)
(-0.0447736 -0.111627 0)
(0.0214469 -0.358134 0)
(0.0299427 -0.631314 0)
(0.00840935 -0.942168 0)
(0.00686272 -0.924136 0)
(-0.0107436 -0.923962 0)
(-0.0191849 -0.938538 0)
(-0.0293767 -0.520066 0)
(-0.0374669 0.0171218 0)
(-0.0627116 0.127315 0)
(-0.0606141 -0.261625 0)
(0.0270793 -0.517925 0)
(0.0270978 -0.621588 0)
(0.0175427 -0.921869 0)
(0.0104174 -0.898088 0)
(-0.00802738 -0.896977 0)
(-0.0131388 -0.921482 0)
(-0.0195376 -0.519654 0)
(-0.0191378 0.0530637 0)
(-0.0250386 0.123538 0)
(-0.00738342 -0.509167 0)
(0.0330849 -0.536746 0)
(0.0220511 -0.623125 0)
(0.0162392 -0.902571 0)
(0.00816365 -0.876837 0)
(-0.00877288 -0.875883 0)
(-0.0160109 -0.897292 0)
(-0.0238011 -0.530451 0)
(-0.0147903 0.0606046 0)
(0.0112999 0.0844987 0)
(0.00507875 -0.65429 0)
(0.0207646 -0.534281 0)
(0.0214276 -0.618535 0)
(0.0172901 -0.880856 0)
(0.00826302 -0.850717 0)
(-0.008957 -0.848381 0)
(-0.0180989 -0.880099 0)
(-0.0216143 -0.577727 0)
(0.0069808 -0.0112232 0)
(0.0216325 0.0513747 0)
(0.0252492 -0.684606 0)
(0.0148927 -0.505879 0)
(0.0107204 -0.642645 0)
(0.0180052 -0.860204 0)
(0.00851969 -0.826192 0)
(-0.00746322 -0.824619 0)
(-0.0159692 -0.857074 0)
(-0.0189801 -0.592384 0)
(0.00159878 -0.0495958 0)
(-0.0108518 0.106256 0)
(0.015171 -0.656736 0)
(-0.0107339 -0.481674 0)
(0.0204837 -0.703155 0)
(0.0190516 -0.835503 0)
(0.00908141 -0.80203 0)
(-0.00548298 -0.800531 0)
(-0.0156732 -0.832982 0)
(-0.0203648 -0.561683 0)
(-0.0668466 0.00889745 0)
(-0.0708248 0.121067 0)
(0.0216579 -0.54781 0)
(0.00273695 -0.499273 0)
(0.0316879 -0.729778 0)
(0.0185894 -0.808408 0)
(0.00872727 -0.779293 0)
(-0.00487546 -0.777686 0)
(-0.0134386 -0.805579 0)
(-0.0157447 -0.581238 0)
(-0.0378298 0.0863063 0)
(-0.0525166 0.0759101 0)
(0.0430278 -0.481192 0)
(0.0353378 -0.508801 0)
(0.0312985 -0.730085 0)
(0.0169377 -0.780093 0)
(0.00709534 -0.758777 0)
(-0.00242603 -0.757544 0)
(-0.0128242 -0.777418 0)
(-0.0217483 -0.607314 0)
(0.0162256 0.108673 0)
(0.050865 0.0534439 0)
(0.0539054 -0.447958 0)
(0.0534769 -0.491844 0)
(0.0311077 -0.710325 0)
(0.0190703 -0.75218 0)
(0.00949246 -0.738836 0)
(-0.00186454 -0.73899 0)
(-0.0133568 -0.750375 0)
(-0.0214486 -0.607229 0)
(-0.00910626 -0.058174 0)
(0.0504878 0.0386084 0)
(0.067163 -0.413362 0)
(0.0596326 -0.464928 0)
(0.0272343 -0.681125 0)
(0.0186499 -0.728063 0)
(0.00716768 -0.713314 0)
(-0.00476606 -0.716839 0)
(-0.0162959 -0.726966 0)
(-0.0218856 -0.591119 0)
(-0.0399406 -0.0992147 0)
(-0.0071049 0.0306761 0)
(0.0867494 -0.366517 0)
(0.0685146 -0.416453 0)
(0.0224491 -0.637071 0)
(0.018264 -0.703927 0)
(0.00518285 -0.690525 0)
(-0.0114504 -0.689952 0)
(-0.0250017 -0.703933 0)
(-0.0368727 -0.56674 0)
(-0.0589723 -0.105557 0)
(-0.0446627 0.0107278 0)
(0.0995313 -0.322229 0)
(0.0772222 -0.369126 0)
(0.0477821 -0.592987 0)
(0.028786 -0.678148 0)
(0.0149729 -0.658603 0)
(-0.0008542 -0.657519 0)
(-0.0161222 -0.676621 0)
(-0.0180364 -0.545097 0)
(-0.0483275 -0.0881967 0)
(-0.0372072 0.0123912 0)
(0.0987758 -0.275476 0)
(0.0634752 -0.328993 0)
(0.0446446 -0.538762 0)
(0.024239 -0.646072 0)
(0.00725303 -0.627367 0)
(-0.00671259 -0.627813 0)
(-0.022557 -0.644353 0)
(-0.0311485 -0.5019 0)
(-0.0633335 -0.0746156 0)
(-0.0510635 -0.0339448 0)
(0.0828554 -0.224021 0)
(0.0216659 -0.295325 0)
(0.0448284 -0.5033 0)
(0.0253994 -0.611882 0)
(0.00682517 -0.599351 0)
(-0.00476601 -0.598023 0)
(-0.0223185 -0.609849 0)
(-0.0368688 -0.489142 0)
(-0.0178222 -0.0500258 0)
(-0.0318008 -0.0611814 0)
(0.0712964 -0.15914 0)
(-0.0136295 -0.266378 0)
(0.0482808 -0.514501 0)
(0.026938 -0.580504 0)
(0.00640851 -0.573542 0)
(-0.00572053 -0.57393 0)
(-0.0226651 -0.579332 0)
(-0.0476706 -0.525791 0)
(0.0205297 -0.0731656 0)
(0.00945313 -0.00368425 0)
(0.0685066 -0.0914317 0)
(0.0100282 -0.21639 0)
(0.054056 -0.519904 0)
(0.0296991 -0.54564 0)
(0.00805475 -0.543005 0)
(-0.00546549 -0.538266 0)
(-0.0222102 -0.545351 0)
(-0.0459776 -0.535415 0)
(-0.0243876 -0.146677 0)
(0.0047734 0.0311463 0)
(0.0749567 -0.0550002 0)
(0.0596043 -0.217932 0)
(0.0753009 -0.489331 0)
(0.0369779 -0.506779 0)
(0.0230314 -0.50589 0)
(0.010902 -0.506154 0)
(-0.0120309 -0.505888 0)
(-0.0286159 -0.495881 0)
(-0.0513628 -0.182086 0)
(-0.0349726 0.0379171 0)
(0.0711755 -0.0215705 0)
(0.0507039 -0.22247 0)
(0.0460515 -0.455453 0)
(0.0173316 -0.467947 0)
(0.000290137 -0.472232 0)
(-0.0221747 -0.472787 0)
(-0.0417735 -0.467256 0)
(-0.0679697 -0.4449 0)
(-0.0571548 -0.186473 0)
(-0.0638533 0.0297696 0)
(0.0604495 0.00744794 0)
(0.0719684 -0.182467 0)
(0.0660865 -0.41065 0)
(0.0333893 -0.428027 0)
(0.0119121 -0.430936 0)
(-0.00912068 -0.431548 0)
(-0.0295178 -0.420845 0)
(-0.0650531 -0.394903 0)
(-0.0583619 -0.189677 0)
(-0.0565197 0.0325861 0)
(-0.00539496 0.00817334 0)
(0.0685236 -0.270275 0)
(0.0638833 -0.360669 0)
(0.0428338 -0.384085 0)
(0.0224861 -0.387645 0)
(-0.00595343 -0.382377 0)
(-0.0239387 -0.374507 0)
(-0.0635305 -0.365131 0)
(-0.0730001 -0.253407 0)
(0.0115524 0.0176597 0)
(0.0726685 -0.0728053 0)
(0.0665573 -0.28182 0)
(0.0611113 -0.311801 0)
(0.0196416 -0.330558 0)
(-0.0033935 -0.333335 0)
(-0.0322127 -0.331371 0)
(-0.0543931 -0.333717 0)
(-0.0738666 -0.314637 0)
(-0.0786124 -0.279676 0)
(-0.066327 -0.0225736 0)
(0.0972953 -0.175145 0)
(0.0761091 -0.225708 0)
(0.0711843 -0.263357 0)
(0.0412492 -0.276624 0)
(0.0157276 -0.283117 0)
(-0.0135496 -0.289787 0)
(-0.0356644 -0.28662 0)
(-0.0694057 -0.262641 0)
(-0.0746104 -0.219932 0)
(-0.105532 -0.163789 0)
(0.0599285 -0.123663 0)
(0.0483664 -0.19754 0)
(0.0442618 -0.234899 0)
(0.0248786 -0.245055 0)
(0.0158822 -0.248149 0)
(-0.00399867 -0.249095 0)
(-0.0170506 -0.244795 0)
(-0.0427224 -0.235212 0)
(-0.0491114 -0.19438 0)
(-0.0589663 -0.117692 0)
(-0.187493 0.0176046 0)
(-0.194231 0.014015 0)
(-0.194731 0.00680014 0)
(-0.189022 0.000291759 0)
(-0.179714 -0.00394969 0)
(-0.169154 -0.00557776 0)
(-0.158889 -0.00527044 0)
(-0.1491 -0.00488293 0)
(-0.139624 -0.00527256 0)
(-0.130888 -0.00588757 0)
(-0.122595 -0.0073676 0)
(-0.113457 -0.00982339 0)
(-0.103297 -0.0113223 0)
(-0.0936656 -0.010547 0)
(-0.086724 -0.00800497 0)
(-0.083154 -0.00331151 0)
(-0.082618 0.0045591 0)
(-0.0859262 0.0147231 0)
(-0.0966459 0.0198011 0)
(-0.107391 0.0168993 0)
(-0.114102 0.0170721 0)
(-0.127801 0.0189568 0)
(-0.141537 0.0154399 0)
(-0.154028 0.0155423 0)
(-0.170774 0.00985778 0)
(-0.175161 -0.00746441 0)
(-0.164303 -0.023855 0)
(-0.143766 -0.0404732 0)
(-0.116836 -0.0548098 0)
(-0.0837418 -0.0571516 0)
(-0.0595156 -0.0498877 0)
(-0.032694 -0.0208756 0)
(-0.031461 -0.00217346 0)
(-0.0393717 -0.00295457 0)
(-0.0362296 -0.000166461 0)
(-0.0260884 0.0017052 0)
(-0.0119879 0.000123838 0)
(-0.00119685 0.00216569 0)
(-0.000676273 0.00379801 0)
(-0.00334469 -0.000884554 0)
(-0.222583 0.0167951 0)
(-0.217356 -0.00148634 0)
(-0.206949 -0.015978 0)
(-0.194515 -0.0260181 0)
(-0.183539 -0.031029 0)
(-0.172685 -0.031737 0)
(-0.161808 -0.0299887 0)
(-0.152305 -0.0285149 0)
(-0.143592 -0.0268991 0)
(-0.136159 -0.0233865 0)
(-0.129401 -0.0224351 0)
(-0.121211 -0.0237799 0)
(-0.108995 -0.0231916 0)
(-0.0954476 -0.0189916 0)
(-0.0837453 -0.00963109 0)
(-0.0767447 -0.00222075 0)
(-0.0751263 0.00243813 0)