/*--------------------------------*- C++ -*----------------------------------*\
  =========                 |
  \\      /  F ield         | OpenFOAM: The Open Source CFD Toolbox
   \\    /   O peration     | Website:  https://openfoam.org
    \\  /    A nd           | Version:  8
     \\/     M anipulation  |
\*---------------------------------------------------------------------------*/
FoamFile
{
    version     2.0;
    format      ascii;
    class       surfaceScalarField;
    location    "1.15";
    object      alphaPhi0.water;
}
// * * * * * * * * * * * * * * * * * * * * * * * * * * * * * * * * * * * * * //

dimensions      [0 3 -1 0 0 0 0];

internalField   nonuniform List<scalar> 
18095
(
1.93601e-08
-1.71956e-07
1.52596e-07
2.30374e-08
-1.98401e-07
1.94723e-07
1.95611e-08
-2.05524e-07
2.09e-07
9.9193e-09
-2.1009e-07
2.19731e-07
-1.04278e-09
-2.13243e-07
2.24205e-07
-1.09485e-08
-2.13536e-07
2.23442e-07
-1.95012e-08
-2.1115e-07
2.19703e-07
-2.30584e-08
-2.05825e-07
2.09382e-07
-1.93987e-08
-1.98321e-07
1.94661e-07
-1.71955e-07
1.52556e-07
1.55141e-08
-1.8747e-07
1.56193e-08
-1.98506e-07
1.25188e-08
-2.02423e-07
7.66816e-09
-2.05239e-07
1.24524e-09
-2.0682e-07
-5.59e-09
-2.06701e-07
-1.19103e-08
-2.0483e-07
-1.56618e-08
-2.02073e-07
-1.55217e-08
-1.98461e-07
-1.87477e-07
6.85961e-09
-1.94329e-07
8.20597e-09
-1.99852e-07
6.57498e-09
-2.00792e-07
3.278e-09
-2.01942e-07
-4.65051e-10
-2.03077e-07
-4.41117e-09
-2.02755e-07
-7.35799e-09
-2.01883e-07
-8.28283e-09
-2.01148e-07
-6.85961e-09
-1.99885e-07
-1.94336e-07
4.57567e-09
-1.98905e-07
4.68152e-09
-1.99958e-07
3.97142e-09
-2.00082e-07
2.38494e-09
-2.00356e-07
-8.66281e-12
-2.00683e-07
-2.10307e-09
-2.00661e-07
-3.55146e-09
-2.00435e-07
-4.60205e-09
-2.00098e-07
-4.56358e-09
-1.99923e-07
-1.989e-07
1.09492e-09
1.13704e-09
1.05479e-09
6.99206e-10
1.60479e-11
-6.44609e-10
-1.07953e-09
-1.17715e-09
-1.10013e-09
-2.50673e-08
-1.97308e-07
2.22376e-07
-2.76827e-08
-1.9844e-07
2.01055e-07
-2.31675e-08
-2.01687e-07
1.97172e-07
-1.21099e-08
-2.01007e-07
1.8995e-07
8.14631e-10
-2.01499e-07
1.88575e-07
1.35514e-08
-2.01701e-07
1.88964e-07
2.34956e-08
-2.00534e-07
1.90589e-07
2.77875e-08
-2.01557e-07
1.97265e-07
2.51018e-08
-1.98737e-07
2.01423e-07
-1.97529e-07
2.22631e-07
-1.00698e-08
-1.87238e-07
-1.53308e-08
-1.93179e-07
-1.45001e-08
-2.02518e-07
-7.13058e-09
-2.08377e-07
2.52446e-12
-2.08632e-07
7.13508e-09
-2.08833e-07
1.48618e-08
-2.0826e-07
1.56957e-08
-2.02391e-07
1.02428e-08
-1.93284e-07
-1.87286e-07
-1.08508e-08
-1.76388e-07
-8.47863e-09
-1.95551e-07
-5.69055e-09
-2.05306e-07
-4.12673e-09
-2.09941e-07
-3.95512e-10
-2.12363e-07
3.46331e-09
-2.12692e-07
5.87258e-09
-2.1067e-07
8.94549e-09
-2.05464e-07
1.11049e-08
-1.95443e-07
-1.76182e-07
-7.07162e-09
-1.69316e-07
-9.23031e-09
-1.93393e-07
-8.6924e-09
-2.05844e-07
-3.08261e-09
-2.1555e-07
1.53552e-09
-2.16982e-07
5.32416e-09
-2.16481e-07
9.6229e-09
-2.14968e-07
9.73292e-09
-2.05574e-07
7.24359e-09
-1.92954e-07
-1.68938e-07
-1.67205e-08
-1.53898e-08
-1.22338e-08
-8.0528e-09
-8.29598e-10
6.13158e-09
1.08664e-08
1.46744e-08
1.63818e-08
3.22912e-08
-1.56968e-07
1.24677e-07
3.64445e-08
-1.99076e-07
1.94923e-07
2.80959e-08
-2.11002e-07
2.1935e-07
1.72404e-08
-2.16722e-07
2.27578e-07
4.05637e-09
-2.17769e-07
2.30953e-07
-1.16309e-08
-2.18058e-07
2.33746e-07
-2.63123e-08
-2.15377e-07
2.30058e-07
-3.63853e-08
-2.09627e-07
2.197e-07
-3.18525e-08
-1.98463e-07
1.93931e-07
-1.56938e-07
1.25085e-07
1.65897e-08
-1.73558e-07
1.88177e-08
-2.01304e-07
1.45466e-08
-2.06731e-07
6.40678e-09
-2.08582e-07
-2.46333e-09
-2.08898e-07
-1.15188e-08
-2.09003e-07
-1.73049e-08
-2.09591e-07
-1.97201e-08
-2.07212e-07
-1.67494e-08
-2.01434e-07
-1.73687e-07
1.0902e-08
-1.8446e-07
1.03743e-08
-2.00777e-07
8.91083e-09
-2.05267e-07
5.46083e-09
-2.05132e-07
1.39831e-09
-2.04836e-07
-3.06868e-09
-2.04536e-07
-8.20393e-09
-2.04456e-07
-1.02101e-08
-2.05206e-07
-1.08109e-08
-2.00833e-07
-1.84498e-07
7.91472e-09
-1.92374e-07
6.49039e-09
-1.99352e-07
6.1913e-09
-2.04968e-07
3.4389e-10
-1.99285e-07
-1.73348e-09
-2.02759e-07
-3.4183e-09
-2.02851e-07
-7.42786e-09
-2.00446e-07
-7.14581e-09
-2.05488e-07
-8.2022e-09
-1.99777e-07
-1.927e-07
3.00013e-08
3.17042e-08
2.39086e-08
1.45735e-08
3.89559e-10
-1.34975e-08
-2.33541e-08
-3.15766e-08
-2.9931e-08
-1.15513e-06
7.69522e-08
1.09661e-06
-8.76974e-07
6.81771e-08
-1.30564e-06
4.7771e-08
-1.24767e-06
-1.08866e-08
-1.12081e-06
-8.49966e-08
-8.98834e-07
-1.73706e-07
-6.12199e-07
-2.57586e-07
-2.924e-07
-3.07779e-07
2.66435e-08
-3.23721e-07
-3.21168e-07
3.42993e-07
-1.64961e-07
8.79289e-08
7.01307e-07
-1.29588e-07
1.92281e-08
-1.03809e-07
1.63762e-08
-2.59101e-07
-2.93141e-09
-3.77739e-07
-6.80217e-08
-3.92358e-07
-1.98438e-07
-8.08498e-08
-3.64208e-07
9.46852e-08
-1.24777e-07
2.391e-07
-5.43067e-08
-3.47802e-08
3.2079e-07
-5.5515e-08
1.35009e-07
2.35225e-07
-1.48735e-08
6.89562e-08
-1.39083e-08
9.40234e-09
-2.26243e-08
-2.06491e-10
-1.29849e-08
-8.3681e-08
7.48803e-09
-3.73796e-07
6.3937e-08
-4.10314e-07
5.24326e-08
-1.11907e-07
6.28051e-08
-6.46225e-08
-3.80211e-08
6.59677e-08
5.26195e-08
6.65897e-08
-9.88241e-08
2.82781e-08
7.7774e-08
2.92271e-08
2.56668e-08
1.42807e-08
8.75183e-09
4.13876e-08
-2.99935e-07
1.22979e-07
-3.78917e-07
6.12342e-08
-2.5559e-07
4.91224e-08
-9.90703e-08
5.28198e-08
-6.82988e-08
-3.5993e-08
5.06958e-08
3.2811e-08
1.00929e-07
-7.80384e-08
5.19483e-08
9.9258e-08
4.69514e-08
5.24627e-08
5.78863e-09
3.0712e-08
4.36878e-08
-2.88867e-07
5.50112e-08
-2.12664e-07
4.59892e-08
-1.50238e-07
4.98057e-08
-1.02507e-07
3.55307e-08
-5.4166e-08
-1.69155e-08
1.63055e-08
5.38007e-08
1.23029e-07
-6.69609e-08
6.55231e-08
9.41945e-08
7.02328e-08
7.15463e-08
5.07657e-08
4.75891e-08
7.5151e-08
-2.6296e-07
2.91491e-08
-1.57302e-07
3.54381e-08
-1.60316e-07
1.99332e-08
-8.75763e-08
-1.48405e-09
-3.23545e-08
-1.02294e-08
-8.31642e-09
4.84447e-08
8.84838e-08
-3.85224e-08
4.46206e-08
1.01267e-07
1.26357e-08
5.09397e-08
4.16168e-08
3.68858e-08
4.02126e-08
-1.14101e-07
1.28377e-08
-1.60418e-07
9.38548e-09
-1.64831e-07
-1.43089e-08
-6.75109e-08
-6.83186e-09
-4.03512e-08
-1.07919e-07
-1.10268e-07
1.02547e-08
5.1244e-08
-2.16323e-08
4.67086e-08
5.15738e-08
3.72678e-08
5.54368e-08
9.83489e-08
7.5886e-08
3.83987e-08
-1.20603e-07
1.40473e-08
-1.73739e-07
-7.57824e-09
-1.93964e-07
-2.01283e-08
-1.99125e-07
-1.7088e-07
-2.89122e-07
-1.97914e-07
-3.26607e-07
-6.11309e-09
3.14568e-08
2.28415e-08
2.262e-09
3.91978e-08
1.45187e-08
3.8327e-08
1.48202e-07
3.03911e-08
8.25778e-08
-2.16468e-07
7.85036e-09
-4.04942e-07
-4.09212e-08
-1.00294e-06
-2.5087e-07
-2.12175e-07
-3.55196e-07
-2.73317e-07
-1.92754e-07
-3.60419e-07
-3.08212e-08
2.27013e-08
3.6518e-08
-2.7627e-08
3.29449e-08
-2.02921e-08
7.23714e-08
7.6416e-08
-5.34608e-08
8.3133e-08
-3.62298e-07
-2.54285e-08
-1.07109e-06
-1.45091e-07
-1.08245e-06
-2.76417e-07
-1.4638e-07
-2.98435e-07
-2.51334e-07
-1.88809e-07
-3.02367e-07
-4.85094e-08
2.73426e-08
4.08093e-08
-7.36422e-08
4.49057e-08
-5.35033e-08
4.89282e-08
-2.50897e-08
-6.61905e-08
3.53089e-08
-2.63534e-07
-4.6951e-08
-9.87526e-07
-1.67621e-07
-9.62606e-07
-1.97678e-07
-3.49973e-07
-2.13197e-07
-2.35801e-07
-1.67901e-07
-2.34093e-07
-7.90026e-08
3.53924e-08
6.61103e-08
-2.38533e-07
3.14836e-08
-1.82986e-07
3.84182e-09
-1.85725e-07
-5.01155e-08
-1.24043e-07
-5.24762e-07
-1.45415e-07
-9.64606e-07
-2.11617e-07
-8.95434e-07
-9.65997e-08
-6.64765e-07
-7.95467e-08
-2.57412e-07
-1.20526e-07
-1.26966e-07
-6.06807e-08
3.92482e-08
4.41397e-08
-1.32542e-07
2.97988e-08
-2.00695e-07
5.8454e-08
-9.51852e-08
-4.58329e-08
-1.40837e-07
-8.36413e-07
-7.84858e-08
-1.02612e-06
-1.41535e-08
-9.58953e-07
1.02276e-07
-7.74449e-07
1.48771e-07
-3.03672e-07
-5.69237e-08
8.48809e-08
-5.13642e-08
6.7289e-08
6.05865e-08
-7.99358e-08
4.22385e-08
-6.32387e-08
3.91399e-08
-1.96852e-07
-8.46514e-08
6.35766e-08
-1.09598e-06
2.29163e-07
-1.19084e-06
3.01342e-07
-1.02846e-06
2.65168e-07
-2.06953e-07
3.33015e-07
-1.54719e-07
-1.01432e-08
2.86451e-07
-1.0376e-08
3.86339e-08
6.32613e-08
5.52645e-09
2.36688e-08
1.16533e-08
3.0344e-08
1.40949e-08
-1.34459e-07
1.9766e-07
-1.27886e-06
3.32389e-07
-1.32468e-06
7.86889e-08
-2.50531e-07
5.08748e-08
-5.47687e-09
1.77852e-07
-4.87796e-11
2.34117e-09
2.67964e-07
-3.63507e-08
2.72156e-08
4.86567e-08
-3.21993e-08
5.12717e-08
-1.29786e-08
4.96322e-08
5.98824e-08
-8.22807e-08
9.3177e-08
-1.30982e-06
1.2732e-07
-1.35772e-06
6.46737e-09
-4.50148e-08
1.19017e-09
-4.42955e-10
8.95193e-10
5.17717e-11
1.63405e-08
1.73884e-07
-6.14759e-08
3.75013e-08
5.1281e-08
-6.91056e-08
5.89966e-08
-1.65416e-08
3.78296e-08
3.44941e-09
-1.01419e-08
2.7501e-08
-1.32612e-06
2.82369e-08
-1.36267e-06
-1.66928e-10
-2.32341e-08
-4.25829e-10
-2.71213e-10
-5.0427e-10
-3.43124e-12
-3.19464e-10
8.50359e-08
-3.70664e-08
3.68206e-08
3.781e-08
-6.71344e-09
2.02036e-08
1.9305e-09
2.4352e-09
1.53935e-09
-8.67052e-09
3.03876e-09
-1.20135e-06
-5.42259e-09
-1.36667e-06
-4.72886e-11
-2.90457e-08
-1.1909e-10
-2.81077e-10
9.36782e-11
-3.00536e-10
-2.63629e-09
2.31122e-09
-7.81903e-09
-9.26712e-09
5.52453e-08
3.39546e-08
-4.05329e-08
1.48654e-08
1.0466e-10
1.19694e-08
-3.05595e-09
1.22878e-08
-6.39262e-07
-8.08028e-10
-1.19395e-06
-1.12054e-10
-3.3288e-08
-2.46805e-10
-2.28261e-10
-5.2076e-10
-4.25668e-11
-3.74888e-11
0
-2.38086e-08
-1.00876e-08
6.05332e-08
0
-4.83635e-09
8.72192e-09
-5.39802e-09
1.1881e-08
-1.3306e-09
2.30854e-08
-1.31676e-07
8.27844e-09
-2.86475e-07
0
-2.61758e-08
8.08536e-12
-6.92857e-10
3.71458e-11
-7.50444e-11
-6.03951e-11
5.66394e-11
7.07845e-10
1.41381e-09
-6.45585e-09
-1.86708e-09
-4.05325e-09
2.89104e-09
-5.45537e-09
2.35311e-09
-2.16804e-09
5.57776e-09
-3.09889e-08
2.36244e-09
-7.39508e-08
1.47654e-10
-1.94696e-08
0
-3.9886e-09
1.23468e-11
-1.2475e-10
-5.55338e-11
5.10265e-12
4.18137e-09
0
-4.56077e-09
2.77049e-09
-4.46396e-09
2.32984e-09
-6.23544e-09
2.10951e-09
-3.99708e-10
6.52255e-09
-3.35708e-08
6.28336e-09
-9.09397e-08
6.89111e-10
-5.2806e-08
3.08322e-11
-6.40393e-09
-6.97921e-12
-2.72676e-10
-5.79243e-11
-1.96286e-11
5.58704e-09
-1.34561e-11
-2.4222e-09
4.27722e-09
-9.2182e-11
2.02685e-09
-2.29508e-11
8.23864e-10
-3.39604e-10
1.91134e-08
-4.03861e-07
1.44957e-08
-5.81001e-07
0
-5.65755e-08
0
-6.4372e-09
0
-3.22427e-10
-1.00555e-10
-2.78037e-11
-9.02062e-11
0
6.3528e-11
-1.80837e-10
-1.16097e-11
-1.81841e-10
-4.44235e-11
1.12261e-10
-2.6654e-09
2.37454e-08
-1.12609e-06
2.00877e-08
-1.11307e-06
0
-3.48011e-08
0
-4.28018e-09
0
-2.39681e-10
-3.69749e-11
-1.14292e-10
-1.25471e-10
-1.57443e-11
3.20721e-10
0
-6.84889e-11
-3.70869e-11
-1.42311e-10
-3.11459e-09
-1.74892e-08
-7.69773e-09
-1.14925e-06
-3.96845e-10
-1.11529e-06
-5.16258e-11
-1.94404e-08
0
-1.53659e-09
0
-2.16335e-10
7.35615e-12
-9.11301e-11
-1.33832e-10
-1.47404e-10
2.67788e-10
0
-1.77305e-10
0
-1.43375e-10
-2.19827e-08
-2.46549e-08
-3.19263e-08
-1.13887e-06
-1.44979e-08
-1.12516e-06
-6.03631e-10
-2.23173e-08
-1.12697e-10
-1.58164e-09
-1.6427e-12
-2.42271e-10
-1.23687e-12
4.22008e-12
3.5142e-11
-1.70883e-10
-9.36547e-12
1.77996e-11
-1.57666e-10
0
-1.19822e-11
-1.38745e-08
-2.55519e-08
-2.12898e-08
-1.13067e-06
-8.94003e-09
-1.12426e-06
-5.67317e-10
-2.82392e-08
-1.96847e-10
-2.93859e-09
-2.83396e-11
-1.35419e-10
-2.62876e-11
-4.19506e-12
2.12483e-11
-1.69714e-10
-1.87392e-11
0
-8.31498e-11
0
-4.47968e-12
-3.20861e-09
-2.61637e-08
-7.34098e-09
-1.12641e-06
-3.77072e-09
-1.12247e-06
-5.23948e-10
-2.81635e-08
-2.55236e-10
-3.14895e-09
-1.1675e-10
-1.87285e-10
-3.19092e-11
-1.50655e-11
3.48545e-12
-7.37836e-11
-1.02549e-11
0
-3.52622e-11
-7.81731e-12
-2.13549e-12
-3.84206e-09
-2.46747e-08
-7.96555e-09
-1.12188e-06
-3.39661e-09
-1.11821e-06
-4.18045e-10
-2.51341e-08
-4.32864e-10
-2.78096e-09
-5.82713e-11
-7.04282e-10
-5.45078e-11
9.21394e-14
6.25141e-11
1.879e-11
-7.42579e-11
3.37712e-11
3.06087e-12
3.21004e-11
-1.29695e-12
5.31336e-09
-2.56238e-08
6.20728e-09
-1.10666e-06
1.64265e-09
-1.11066e-06
-9.03281e-11
-2.17528e-08
0
-9.3896e-10
-7.65632e-12
-8.40989e-10
-3.16776e-10
1.85305e-13
1.1616e-10
1.35665e-10
-1.61891e-10
3.70639e-11
9.70926e-11
3.78147e-11
-4.5372e-14
1.43109e-09
-2.55105e-08
-6.1674e-10
-1.09182e-06
-3.12593e-09
-1.09465e-06
-1.0273e-10
-2.2187e-08
0
-9.17897e-13
4.0623e-10
-2.59859e-13
-1.54251e-13
1.43589e-10
1.88444e-11
2.27045e-10
-2.48634e-10
0
1.55986e-10
1.27583e-12
3.2736e-20
2.14421e-09
-2.39889e-08
1.10919e-09
-1.08329e-06
-1.4888e-09
-1.08611e-06
-9.512e-13
-2.15331e-08
2.20695e-13
-2.11906e-12
2.91201e-13
-3.38455e-13
-1.91765e-13
3.02336e-13
1.08326e-11
2.66358e-10
-9.94875e-11
1.19996e-20
9.26378e-11
-3.22671e-21
8.81871e-19
5.28567e-09
-1.34137e-08
9.23141e-09
-1.07664e-06
3.433e-09
-1.08154e-06
1.63788e-12
-1.16444e-08
1.15854e-13
-6.01853e-13
9.27801e-14
-3.18132e-13
-3.40521e-13
2.33446e-13
-5.41986e-11
2.93589e-10
1.02333e-10
1.89615e-19
8.73651e-12
-7.80478e-20
4.84973e-18
5.10017e-10
-1.72725e-09
-2.15168e-09
-1.06546e-06
-3.21726e-09
-1.07275e-06
-2.56672e-14
-1.93988e-09
-1.49754e-14
-6.14766e-13
1.53981e-15
-3.37398e-13
-7.16285e-13
2.08109e-13
-8.66171e-12
1.17581e-11
2.4559e-10
4.5723e-19
7.48479e-14
-6.35473e-19
8.35219e-18
3.74289e-09
3.12208e-19
3.44556e-09
-1.04021e-06
-1.05509e-09
-1.04372e-06
-7.85458e-14
-1.17801e-12
-2.80723e-14
-6.67153e-13
-1.98399e-14
-3.46409e-13
-8.10312e-13
5.89223e-14
-7.79465e-14
4.26839e-13
1.1397e-11
3.28819e-19
-3.08956e-15
-6.7557e-19
-2.14207e-20
-2.79102e-21
-2.20234e-20
7.14444e-10
-9.7987e-07
-3.28786e-13
-9.82005e-07
-1.84644e-14
-1.54763e-12
-1.15707e-14
-6.82105e-13
-2.17738e-14
-3.34903e-13
-4.7438e-13
-2.57226e-13
-2.72772e-14
-7.21785e-14
5.57185e-13
-2.09334e-19
-2.79515e-19
6.28753e-22
-2.31384e-19
1.04441e-19
-1.25836e-19
-1.36208e-10
-9.34784e-07
-1.77089e-12
-9.36392e-07
-4.31744e-14
-2.095e-12
-3.6868e-14
-7.47714e-13
-6.67641e-15
-3.77892e-13
-4.25389e-13
-2.004e-13
-4.10968e-18
-3.15936e-12
1.27798e-12
-1.55629e-20
-4.73574e-18
7.51793e-21
-3.0523e-19
5.48501e-19
-5.90247e-19
1.75637e-09
-9.13818e-07
-3.4128e-12
-9.13393e-07
-2.1822e-13
-3.17466e-12
-2.32223e-13
-9.79252e-12
-1.49059e-13
-8.3799e-13
-4.70881e-13
-4.56466e-14
-7.32597e-17
-6.16954e-12
3.43615e-12
0
-7.86685e-17
5.0539e-20
-3.07921e-18
2.46574e-18
-2.48831e-18
9.93375e-10
-8.98792e-07
-6.22964e-12
-8.99508e-07
-3.95299e-13
-3.93645e-12
-4.25643e-12
-1.15816e-11
-4.90328e-12
-7.61231e-11
-3.70474e-11
-1.24427e-12
-1.11192e-15
-1.30022e-15
1.98326e-12
0
-1.19539e-15
3.86597e-19
-3.31867e-17
1.01321e-17
-9.95244e-18
-2.48225e-09
-8.93754e-07
-6.16261e-12
-8.92409e-07
-6.73705e-13
-3.8205e-12
-7.4026e-12
-5.90622e-12
-8.89616e-12
-1.28141e-10
-1.2731e-10
-3.02209e-11
-2.1076e-16
-5.48777e-15
1.89111e-15
1.60729e-17
-3.98659e-15
2.8871e-18
-1.64124e-16
4.03383e-17
-3.90617e-17
-1.44284e-09
-9.11491e-07
-1.73119e-12
-9.11923e-07
-3.3398e-13
-3.76667e-12
-1.94442e-12
-2.82871e-12
-2.0727e-11
-5.41887e-11
-1.3316e-10
-1.49897e-11
-6.19484e-16
-8.32353e-14
7.59696e-14
9.12645e-17
-5.77487e-15
1.01402e-17
-6.32429e-16
1.58877e-16
-1.62959e-16
2.10297e-09
-9.47239e-07
-1.53815e-13
-9.47519e-07
-1.67283e-13
-3.96783e-12
0
-9.96692e-13
-4.18645e-12
-4.74815e-12
-1.3437e-10
-2.87637e-12
3.702e-17
-6.54985e-14
2.3136e-14
0
-4.46401e-15
3.10762e-17
-1.62608e-15
6.68355e-16
-7.51213e-16
7.48034e-10
-9.75443e-07
-1.39587e-12
-9.75452e-07
-3.49739e-13
-5.2489e-12
-8.15205e-16
-1.69693e-12
2.81584e-13
-4.22718e-12
-1.9724e-11
5.87897e-13
0
-2.82371e-14
0
0
-3.28838e-15
9.24887e-17
-2.151e-15
3.16736e-15
-3.79467e-15
-2.91219e-10
-9.90944e-07
-7.88334e-12
-9.90991e-07
-2.75229e-12
-1.07313e-11
-2.98598e-13
-5.04337e-12
-1.01417e-14
-2.96718e-12
-4.49784e-12
-3.11853e-12
3.18652e-16
-2.67038e-14
-1.1754e-14
7.55077e-17
-4.13313e-15
2.47979e-16
-1.66645e-15
1.65033e-14
-2.0237e-14
1.13491e-09
-9.97696e-07
-4.30314e-11
-9.98905e-07
-3.53476e-11
-1.93078e-11
-1.455e-11
-1.06934e-09
-1.44234e-12
-3.47646e-11
-1.78247e-12
-2.91977e-12
9.83598e-16
-6.85741e-14
-6.12454e-15
5.95777e-16
-1.41345e-14
1.30772e-15
-7.04039e-15
9.03439e-14
-1.10582e-13
2.06681e-09
-1.0005e-06
-8.42029e-11
-1.00145e-06
-7.91428e-11
-2.73503e-11
-7.17371e-11
-1.0001e-09
-2.04193e-11
-4.75507e-10
-6.16182e-12
-1.52337e-13
9.5284e-14
-4.11332e-13
-9.02078e-14
6.43287e-15
-3.99332e-14
7.26513e-15
-1.08904e-13
5.05131e-13
-6.15774e-13
1.94081e-09
-1.00098e-06
-9.61744e-11
-1.00099e-06
-9.25715e-11
-3.29823e-11
-1.98761e-10
-8.16735e-10
-8.91657e-11
-8.23388e-10
-1.05945e-10
-5.59211e-15
7.07786e-13
-6.96219e-11
9.52294e-13
1.12911e-14
-1.04724e-11
4.03919e-14
-5.6102e-13
2.88288e-12
-3.49918e-12
1.03459e-09
-1.00018e-06
-7.44943e-11
-1.00046e-06
-7.11103e-11
-3.50911e-11
-1.58826e-10
-5.32813e-10
-8.23414e-11
-8.93272e-10
-7.59609e-10
-1.02237e-13
-4.86624e-12
-2.80319e-10
2.53808e-11
0
-1.8661e-10
1.45006e-13
-1.87138e-12
1.66865e-11
-2.02721e-11
9.53705e-10
-1.00157e-06
-3.00603e-11
-1.00205e-06
-8.09814e-13
-6.00644e-11
1.73876e-12
-2.43958e-10
1.76351e-11
-9.02567e-10
-7.43138e-10
-7.69906e-14
-8.06391e-12
-3.18051e-10
4.74248e-11
4.12579e-12
-2.90368e-10
3.15955e-13
-9.05052e-13
9.69344e-11
-1.18223e-10
1.28195e-09
-1.00561e-06
-1.32795e-10
-1.0059e-06
-5.03424e-12
-1.8451e-10
1.46046e-12
-1.93955e-10
4.52713e-12
-8.99033e-10
-2.76177e-10
-4.47836e-14
-1.49414e-11
-3.46546e-10
4.47976e-11
-1.38565e-14
-3.02474e-10
5.9525e-15
-1.45549e-12
5.63603e-10
-6.82351e-10
1.00333e-09
-1.00998e-06
-6.0793e-10
-1.01082e-06
-7.73137e-12
-7.91513e-10
-4.31826e-11
-1.13964e-10
-7.56631e-11
-8.58825e-10
-3.81324e-13
-2.52106e-14
-3.10707e-11
-3.66083e-10
5.22158e-11
-2.49856e-12
-5.39049e-11
-2.66094e-12
-1.55856e-12
2.36763e-09
-3.05258e-09
1.4761e-09
-1.01269e-06
-2.12034e-09
-1.01271e-06
-2.43734e-12
-2.89595e-09
-9.69735e-12
-6.64697e-12
-5.64097e-13
-1.68552e-12
-9.33762e-13
-1.24977e-14
-1.70654e-11
-3.79747e-10
3.40278e-11
0
-2.60812e-11
-1.34976e-12
-2.08774e-13
3.85242e-09
-9.58465e-09
1.04716e-09
-1.01356e-06
-3.2582e-09
-1.01364e-06
0
-9.82984e-09
8.72768e-13
-1.88261e-12
2.48607e-14
-1.93208e-12
-2.00048e-12
-6.44429e-15
-1.24576e-11
-4.04021e-10
4.12577e-11
0
-6.27743e-11
1.25659e-14
-2.21308e-13
3.7439e-09
-1.51139e-08
6.50037e-10
-1.01655e-06
-3.07022e-09
-1.01748e-06
-6.62961e-13
-1.53512e-08
0
-2.21833e-12
6.37667e-14
-2.11261e-12
-5.62635e-13
-1.15783e-15
-2.30305e-11
-4.24906e-10
4.90523e-11
0
-1.58844e-10
1.34508e-14
-2.35019e-13
4.20946e-09
-2.1025e-08
1.50231e-09
-1.02048e-06
-3.42113e-09
-1.02042e-06
-1.72259e-12
-2.1244e-08
-8.51738e-13
-2.35094e-12
-9.72168e-13
-8.39207e-12
-8.22027e-13
-1.16627e-13
-3.64746e-11
-2.38317e-10
1.80508e-11
0
-2.16718e-10
1.35512e-14
-2.48538e-13
4.10857e-09
-2.68879e-08
9.56081e-10
-1.0206e-06
-3.36553e-09
-1.02128e-06
-2.56665e-12
-2.68995e-08
-1.62227e-12
-2.41267e-12
-5.24577e-13
-3.42156e-12
-2.43748e-12
-8.62198e-13
-1.48017e-11
-7.04096e-11
0
0
-2.10259e-10
2.61976e-14
-2.73025e-13
4.29723e-09
-3.20185e-08
7.39279e-10
-1.01539e-06
-3.26059e-09
-1.01674e-06
-2.00298e-12
-3.24084e-08
-8.12539e-13
-2.48442e-12
-9.11957e-13
-6.438e-13
-1.25057e-12
-6.95953e-13
-9.90552e-12
-9.06561e-11
1.29495e-12
0
-1.98904e-10
8.62837e-14
-3.44522e-13
3.00533e-09
-3.62567e-08
-2.91821e-09
-1.00662e-06
-4.54228e-09
-1.00634e-06
-1.92981e-12
-3.67736e-08
-3.61178e-13
-2.77891e-12
-3.56047e-13
0
-2.09868e-13
-1.83023e-12
-3.31969e-12
-1.19477e-10
2.47454e-12
0
-4.34982e-11
3.79458e-13
-6.0402e-13
-2.54201e-09
-3.82401e-08
-1.2732e-08
-9.96351e-07
-8.93474e-09
-9.94881e-07
-5.7439e-12
-3.67843e-08
-3.67557e-12
-3.53184e-12
-1.76747e-12
-2.99865e-12
2.48352e-14
-6.6566e-15
2.43405e-12
-1.14487e-10
-2.6551e-14
3.26067e-13
-4.10898e-11
1.66723e-12
-1.17105e-12
-3.22182e-09
-3.77929e-08
-1.51145e-08
-9.84626e-07
-1.03143e-08
-9.82522e-07
-1.62665e-11
-3.70076e-08
-1.5367e-11
-3.92047e-12
-4.91647e-13
-4.95969e-12
1.59758e-13
-2.61481e-12
3.73864e-12
-1.09931e-10
-3.68772e-13
3.19353e-12
-1.23602e-10
4.68368e-12
-2.07396e-12
-2.45586e-09
-3.70495e-08
-1.45875e-08
-9.72419e-07
-1.0152e-08
-9.70119e-07
-1.5365e-11
-3.64202e-08
-1.70161e-11
-4.42101e-12
-3.37871e-12
-9.46569e-12
5.24751e-12
-1.04433e-11
1.0168e-11
-6.98273e-11
-2.2154e-12
9.07625e-12
-1.18626e-10
1.04327e-11
-3.20751e-12
-2.42438e-09
-3.52699e-08
-1.48814e-08
-9.60293e-07
-1.05141e-08
-9.56908e-07
-1.39822e-11
-3.51867e-08
-1.73475e-11
-5.11616e-12
-5.22341e-12
-1.14785e-11
3.38303e-11
0
1.26076e-11
-5.83816e-11
-6.45016e-12
1.23232e-11
-1.14106e-10
1.48945e-11
-4.58829e-12
2.82065e-09
-3.51529e-08
-6.81752e-09
-9.46373e-07
-7.74788e-09
-9.44427e-07
-1.54275e-11
-3.50074e-08
-1.86642e-11
-5.03058e-12
-9.23314e-12
-9.37846e-12
2.2623e-11
1.42008e-12
1.51046e-11
-1.26156e-10
-2.15588e-11
1.81796e-11
-1.03755e-10
2.01167e-11
-5.81719e-12
6.21225e-09
-3.66086e-08
1.71079e-09
-9.34403e-07
-4.25699e-09
-9.34745e-07
-5.19714e-12
-3.65658e-08
-6.46432e-12
-5.2967e-12
-4.39315e-12
-7.66216e-12
7.29603e-12
1.12219e-11
3.10938e-11
-1.12813e-10
-4.51445e-11
2.00873e-11
-1.01413e-10
1.97312e-11
-6.49149e-12
6.16546e-09
-4.1335e-08
1.14208e-09
-9.27325e-07
-5.41034e-09
-9.27529e-07
-4.08161e-12
-4.14511e-08
-3.74747e-12
-5.34669e-12
-1.86472e-12
-6.90775e-12
2.11572e-12
-3.88464e-12
3.23804e-11
-1.01438e-10
-5.68547e-11
1.96642e-11
-7.84914e-11
1.88637e-11
-6.66079e-12
6.3199e-09
-4.89353e-08
8.14224e-10
-9.24795e-07
-5.69788e-09
-9.24906e-07
-4.18417e-12
-4.9155e-08
-3.36866e-12
-5.73182e-12
-7.65281e-13
0
7.56608e-13
-8.71692e-13
7.45391e-12
-3.57295e-11
-9.6856e-11
1.3295e-11
-5.61564e-11
1.31148e-11
-6.52643e-12
6.70472e-09
-5.86511e-08
1.00806e-09
-9.24401e-07
-5.98398e-09
-9.2407e-07
-7.51089e-12
-5.89151e-08
-7.62663e-12
-6.23752e-12
-1.18836e-12
-8.94946e-15
7.66017e-13
-1.254e-12
8.82039e-12
-6.2243e-11
-3.94107e-11
9.31774e-12
-5.15885e-11
8.7239e-12
-6.01563e-12
6.6999e-09
-6.95581e-08
7.39482e-10
-9.24132e-07
-5.96304e-09
-9.23962e-07
-1.31471e-11
-6.99538e-08
-1.21788e-11
-7.26858e-12
-5.09577e-13
-9.39942e-12
1.1013e-12
-9.05791e-13
1.92231e-11
-9.57865e-11
-7.06242e-11
8.28331e-12
-3.74327e-11
5.37327e-12
-5.33025e-12
7.19552e-09
-8.14718e-08
7.65126e-10
-9.23025e-07
-6.60192e-09
-9.22538e-07
-3.07677e-11
-8.19432e-08
-3.46584e-11
-5.30526e-12
-4.41444e-11
-7.68765e-13
7.18963e-11
-4.24021e-11
1.28275e-11
-1.01614e-10
-7.25012e-11
6.55953e-12
-2.31362e-11
3.72828e-12
-4.75462e-12
7.11353e-09
-9.22632e-08
4.7737e-10
-9.19989e-07
-6.59253e-09
-9.19701e-07
-2.03075e-11
-9.29398e-08
-2.28504e-11
-4.55765e-12
-4.24407e-11
1.84954e-11
6.20094e-11
-3.16455e-11
2.13997e-11
-8.36638e-11
-6.31289e-11
5.94581e-12
-1.70817e-11
3.38595e-12
-4.346e-12
7.48743e-09
-1.01562e-07
3.84112e-10
-9.14438e-07
-7.13211e-09
-9.14138e-07
-2.3141e-11
-1.02379e-07
-2.54089e-11
-3.70545e-12
-5.3073e-11
3.8151e-11
5.59393e-11
-4.60944e-11
3.19861e-11
-5.76588e-11
-6.43159e-11
7.32011e-12
-1.17702e-11
4.55105e-12
-3.61871e-12
7.6515e-09
-1.08806e-07
1.46076e-10
-9.06544e-07
-7.40415e-09
-9.06443e-07
-2.40398e-11
-1.09677e-07
-2.59977e-11
-2.66112e-12
-5.93239e-11
5.54561e-11
6.3281e-11
-6.57572e-11
4.31107e-11
-2.06115e-11
-7.82832e-11
9.21519e-12
-1.59423e-11
7.4401e-12
-3.48074e-12
8.25888e-09
-1.14715e-07
1.37199e-10
-8.96553e-07
-8.03243e-09
-8.96673e-07
-2.1272e-11
-1.15635e-07
-2.28571e-11
-1.64725e-12
-6.14362e-11
6.58369e-11
1.04056e-10
-1.00867e-10
9.13973e-11
2.87363e-11
-1.38872e-10
2.22998e-11
1.36476e-11
1.98737e-11
-2.04618e-12
8.93742e-09
-1.19979e-07
3.6553e-10
-8.85261e-07
-8.57899e-09
-8.8541e-07
-1.57457e-11
-1.20973e-07
-1.70572e-11
-5.71151e-13
-8.60908e-11
7.46912e-11
1.24319e-10
-1.03841e-10
8.26629e-11
8.25311e-11
-1.34583e-10
7.45879e-12
1.41069e-11
6.37786e-12
-1.63557e-12
9.44343e-09
-1.25251e-07
2.81481e-10
-8.73166e-07
-8.85863e-09
-8.7382e-07
-5.15536e-12
-1.26203e-07
-5.57427e-12
-1.54742e-13
-6.56831e-11
3.63704e-11
1.52881e-10
-8.98682e-11
2.46627e-11
9.64562e-11
-1.12755e-10
1.80896e-12
4.78617e-12
1.14629e-12
-1.56298e-12
1.04142e-08
-1.32244e-07
4.1679e-10
-8.60888e-07
-1.00781e-08
-8.61386e-07
-1.06257e-14
-1.33253e-07
0
-1.67869e-13
-4.21168e-12
5.16007e-13
9.46379e-14
-3.51662e-11
9.17411e-12
9.44285e-11
-9.6191e-11
7.38188e-13
5.5383e-12
1.58002e-13
-1.57288e-12
1.05989e-08
-1.41e-07
9.75269e-11
-8.49134e-07
-1.04618e-08
-8.49875e-07
-3.71941e-14
-1.42136e-07
-3.1788e-14
-1.75637e-13
-1.14138e-13
0
3.36286e-13
-2.08603e-12
7.44454e-13
9.72103e-11
-7.79033e-11
6.61248e-13
1.08578e-11
1.88349e-13
-1.69006e-12
1.22695e-08
-1.53172e-07
5.71995e-10
-8.37103e-07
-1.1476e-08
-8.38078e-07
-2.84842e-14
-1.54178e-07
-2.58732e-14
-1.84431e-13
0
3.95305e-13
6.98116e-13
-3.89664e-14
0
9.27585e-11
-5.03344e-11
1.62792e-12
3.6025e-11
1.26025e-12
-1.87632e-12
1.25445e-08
-1.67472e-07
6.71477e-10
-8.25743e-07
-1.17002e-08
-8.26769e-07
-5.87928e-14
-1.68352e-07
-6.43837e-14
-1.91639e-13
4.19663e-14
6.99291e-13
7.50052e-13
0
6.74705e-12
2.94074e-11
-4.57515e-11
3.13943e-12
4.86251e-11
2.75641e-12
-1.95981e-12
1.38057e-08
-1.8414e-07
1.93275e-10
-8.13049e-07
-1.34589e-08
-8.14354e-07
-5.78094e-14
-1.85035e-07
-5.46566e-14
-2.10837e-13
9.27819e-14
4.6915e-13
2.50818e-13
5.79696e-13
7.77441e-12
1.34416e-11
-1.32185e-11
2.52598e-12
3.79145e-11
2.21354e-12
-2.01989e-12
1.37251e-08
-2.00479e-07
3.62158e-10
-8.00467e-07
-1.33222e-08
-8.0174e-07
-1.60109e-13
-2.01323e-07
-1.23422e-14
-3.78384e-13
2.35833e-14
4.15118e-13
1.86078e-13
7.41491e-14
7.19285e-13
5.56286e-12
-1.89085e-12
5.74684e-13
7.62689e-13
4.62093e-13
-2.17546e-12
1.60521e-08
-2.18259e-07
3.94245e-10
-7.85361e-07
-1.54057e-08
-7.868e-07
-2.44267e-12
-2.19011e-07
-2.27914e-12
-5.60022e-13
1.20902e-12
2.98366e-12
1.61188e-12
5.23543e-13
-3.45856e-13
8.97988e-12
-9.17823e-15
2.75774e-13
1.36734e-11
2.57854e-13
-2.45418e-12
1.57558e-08
-2.34459e-07
3.56658e-10
-7.70224e-07
-1.50429e-08
-7.71901e-07
-3.72945e-12
-2.35089e-07
-3.55955e-12
-7.20543e-13
3.56097e-13
1.20501e-12
1.45621e-12
1.61178e-13
-8.74251e-13
1.31116e-11
4.84491e-13
1.64351e-12
1.16594e-10
2.7857e-12
-3.85554e-12
1.86924e-08
-2.52443e-07
6.3801e-10
-7.52196e-07
-1.80778e-08
-7.5335e-07
-3.7016e-12
-2.52948e-07
-3.67604e-12
-7.08479e-13
-6.0007e-13
-2.39546e-13
1.88722e-13
2.50676e-14
4.10932e-13
1.66401e-10
1.38251e-12
2.39072e-11
1.64223e-10
2.62084e-11
-6.13931e-12
1.83362e-08
-2.69215e-07
7.28123e-10
-7.34461e-07
-1.77884e-08
-7.34763e-07
-1.20498e-12
-2.69566e-07
-9.72601e-13
-8.91287e-13
-1.4449e-13
-4.0795e-14
4.13543e-14
1.10425e-15
3.27495e-11
4.06111e-10
8.1358e-12
6.00208e-11
2.63717e-10
5.75085e-11
-4.33609e-12
2.20608e-08
-2.89243e-07
5.98299e-10
-7.12857e-07
-2.16483e-08
-7.12399e-07
-3.16394e-12
-2.89507e-07
-2.92301e-12
-1.07372e-12
-1.7454e-14
0
2.78442e-14
-5.54571e-15
4.05639e-11
3.91824e-10
6.42589e-12
4.80898e-11
1.79208e-10
4.48547e-11
-2.31118e-12
2.1196e-08
-3.08252e-07
3.57843e-10
-6.91975e-07
-2.07495e-08
-6.91291e-07
-4.80436e-12
-3.08523e-07
-4.30539e-12
-1.49608e-12
-1.00692e-14
-5.39821e-13
2.80407e-14
-1.20394e-14
2.37751e-11
3.49282e-10
5.76284e-11
1.77246e-11
2.27689e-11
1.60993e-11
-1.04452e-12
2.64476e-08
-3.3299e-07
4.45106e-10
-6.66001e-07
-2.56688e-08
-6.6529e-07
-8.86663e-12
-3.3329e-07
-7.88964e-12
-2.36906e-12
-3.43225e-12
-3.91148e-12
1.86061e-11
-4.85202e-14
-1.63505e-11
2.53469e-11
1.68885e-10
7.63997e-13
5.74967e-13
5.49934e-12
-6.20675e-12
2.51042e-08
-3.57463e-07
8.14495e-10
-6.41677e-07
-2.43782e-08
-6.40211e-07
-1.32129e-11
-3.57955e-07
-6.47212e-12
-8.98866e-12
-6.84653e-12
-3.44153e-12
1.80647e-11
-3.64225e-14
-2.01275e-13
1.77385e-13
9.5058e-12
3.29197e-13
3.97973e-14
8.18473e-11
-8.79771e-11
3.01136e-08
-3.87636e-07
6.84325e-10
-6.12212e-07
-2.91549e-08
-6.10456e-07
-9.3402e-11
-3.87997e-07
-4.17658e-12
-9.82657e-11
-1.37879e-11
-2.59531e-13
1.07982e-11
-2.71642e-12
-1.46891e-17
2.83216e-15
1.68772e-13
3.9742e-14
-5.29447e-18
1.10525e-09
-1.19319e-09
2.71264e-08
-4.14175e-07
-1.68099e-10
-5.84923e-07
-2.64352e-08
-5.84197e-07
-1.15949e-09
-4.14402e-07
-2.54211e-12
-1.25526e-09
-2.80293e-12
-1.80065e-15
2.74516e-12
-1.404e-12
-1.69961e-18
1.39095e-16
2.20188e-15
1.54142e-17
-1.39564e-16
9.43221e-09
-1.06254e-08
3.06645e-08
-4.35927e-07
-9.30923e-10
-5.53309e-07
-3.10769e-08
-5.54063e-07
-9.6123e-09
-4.36e-07
-6.05319e-16
-1.08676e-08
1.30654e-16
-5.62565e-15
9.06478e-14
-9.94877e-13
4.99459e-17
8.29606e-17
-4.36111e-18
1.33068e-14
-1.37523e-14
1.94026e-08
-3.00204e-08
2.89677e-08
-4.45233e-07
3.24774e-10
-5.24661e-07
-2.90637e-08
-5.24678e-07
-1.93348e-08
-4.4572e-07
-1.3296e-13
-3.04626e-08
-1.05388e-13
-3.62944e-14
1.96483e-14
-1.42099e-12
9.8127e-17
2.14137e-18
-1.76228e-17
7.81721e-13
-7.95386e-13
3.37128e-08
-6.37937e-08
3.71541e-08
-4.4858e-07
-3.27004e-11
-4.87471e-07
-3.5792e-08
-4.88924e-07
-3.38867e-08
-4.4752e-07
-1.14858e-12
-6.4363e-08
-2.9834e-14
-1.16704e-12
1.10523e-14
-2.68094e-14
3.10206e-18
6.08584e-20
-1.0311e-18
3.1165e-11
-3.19604e-11
4.71957e-08
-1.11442e-07
3.32875e-08
-4.34704e-07
-3.03287e-09
-4.51153e-07
-3.87358e-08
-4.53222e-07
-5.0547e-08
-4.35878e-07
-3.39417e-11
-1.15011e-07
-4.93854e-14
-3.5065e-11
2.58828e-16
-4.39562e-14
9.64004e-20
1.63943e-21
-3.77362e-20
1.07695e-09
-1.10891e-09
7.87108e-08
-1.91195e-07
4.55016e-08
-4.01729e-07
8.84156e-10
-4.06536e-07
-4.78463e-08
-4.04491e-07
-7.88567e-08
-4.04798e-07
-9.80509e-10
-1.91309e-07
-5.88111e-16
-1.01558e-09
-3.05874e-15
-5.81255e-16
9.18599e-22
1.95993e-22
1.07882e-22
1.76907e-08
-1.87996e-08
8.63696e-08
-2.61837e-07
4.39554e-08
-3.59315e-07
3.77342e-09
-3.66354e-07
-3.55056e-08
-3.65211e-07
-8.36044e-08
-3.56699e-07
-1.58016e-08
-2.56048e-07
-7.06883e-12
-1.68105e-08
-7.0712e-12
-6.9117e-16
6.4078e-10
-6.4078e-10
-4.7177e-21
6.54937e-08
-8.32799e-08
9.62441e-08
-2.92932e-07
4.82616e-08
-3.11333e-07
-5.59751e-09
-3.12495e-07
-5.75269e-08
-3.13282e-07
-1.00866e-07
-3.13359e-07
-6.22838e-08
-2.93521e-07
-8.28858e-10
-7.73461e-08
-8.35929e-10
-8.5103e-18
3.00357e-08
-3.06765e-08
-9.2092e-22
1.39678e-07
-1.91052e-07
9.86499e-08
-2.51904e-07
4.93528e-08
-2.62036e-07
2.69087e-09
-2.65833e-07
-4.6619e-08
-2.63972e-07
-1.00338e-07
-2.5964e-07
-1.40907e-07
-2.52969e-07
-2.98083e-08
-1.8903e-07
-3.06442e-08
-1.13872e-19
9.38725e-08
-1.6287e-19
9.78151e-08
6.52617e-08
3.08034e-08
-4.07682e-09
-3.4303e-08
-6.38849e-08
-9.71535e-08
-9.26443e-08
-1.03028e-18
5.77232e-07