/*--------------------------------*- C++ -*----------------------------------*\
  =========                 |
  \\      /  F ield         | OpenFOAM: The Open Source CFD Toolbox
   \\    /   O peration     | Website:  https://openfoam.org
    \\  /    A nd           | Version:  8
     \\/     M anipulation  |
\*---------------------------------------------------------------------------*/
FoamFile
{
    version     2.0;
    format      ascii;
    class       volScalarField;
    location    "1.15";
    object      p;
}
// * * * * * * * * * * * * * * * * * * * * * * * * * * * * * * * * * * * * * //

dimensions      [1 -1 -2 0 0 0 0];

internalField   nonuniform List<scalar> 
9150
(
-204.606
-205.601
-206.183
-206.671
-206.9
-206.905
-206.666
-206.167
-205.599
-204.608
-224.629
-225.16
-225.561
-225.894
-226.059
-226.054
-225.893
-225.557
-225.16
-224.631
-244.523
-244.82
-245.059
-245.28
-245.396
-245.398
-245.284
-245.064
-244.819
-244.523
-264.263
-264.447
-264.615
-264.775
-264.855
-264.852
-264.769
-264.612
-264.446
-264.263
-283.879
-284.072
-284.204
-284.336
-284.408
-284.401
-284.337
-284.205
-284.072
-283.88
-118.127
-119.27
-119.265
-118.71
-118.621
-118.616
-118.745
-119.282
-119.297
-118.155
-134.033
-134.724
-134.999
-135.075
-134.987
-135.001
-135.086
-135.016
-134.731
-134.041
-150.611
-151.351
-151.653
-152.004
-152.052
-152.054
-151.997
-151.661
-151.334
-150.596
-167.52
-168.607
-168.994
-169.654
-169.809
-169.804
-169.65
-168.991
-168.594
-167.507
-184.277
-186.441
-187.166
-187.924
-188.173
-188.183
-187.944
-187.177
-186.452
-184.291
-24.8742
-26.3841
-28.2694
-29.354
-29.965
-29.8748
-29.1798
-28.2538
-26.4766
-25.1991
-45.44
-45.5585
-46.4772
-46.7533
-47.1547
-47.2044
-46.8165
-46.5821
-45.6432
-45.5676
-65.1453
-65.0876
-66.0834
-65.7078
-66.1397
-66.1238
-65.6655
-66.0969
-65.1514
-65.2114
-87.8657
-85.2715
-86.3702
-84.7343
-85.1194
-85.1084
-84.8506
-86.4397
-85.3386
-87.9484
-115.076
-104.501
-104.403
-102.561
-102.346
-102.33
-102.556
-104.386
-104.504
-115.101
223.642
176.461
161.926
183.857
256.01
354.541
450.765
505.516
527.83
519.834
135.715
125.269
114.472
107.286
124.539
175.235
257.503
288.212
278.079
255.15
122.982
109.188
106.75
103.233
112.276
136.52
187.284
203.952
201.886
192.844
135.08
117.064
112.44
114.649
110.258
137.651
153.405
159.836
160.116
158.484
124.898
114.945
115.394
117.373
138.661
132.545
126.314
123.944
122.784
126.499
119.919
112.137
115.05
117.344
136.819
113.575
106.547
100.147
101.921
106.744
125.421
126.368
123.106
127.04
117.037
113.43
107.297
97.1177
98.2691
100.823
132.249
134.737
137.298
142.994
128.42
129.892
123.765
117.265
112.403
111.182
144.969
149.84
155.222
172.925
186.154
184.133
164.152
158.583
154.031
149.17
154.285
159.23
170.622
200.671
244.667
255.89
239.331
238.666
209.387
191.486
154.644
159.277
187.183
254.142
307.963
303.589
301.467
289.243
253.442
228.104
138.975
140.81
181.24
233.261
277.809
269.55
293.731
312.619
286.196
253.048
112.791
113.418
130.483
151.597
159.11
197.834
229.229
284.117
280.588
242.831
82.4539
74.9039
55.231
40.6636
57.1549
87.1632
96.3975
105.559
143.349
151.257
52.5925
41.7711
35.9103
-11.3905
21.6733
6.27216
-9.58258
10.979
2.05883
14.6464
40.6245
31.2674
21.9823
20.2243
20.0973
-2.32523
-3.73615
-0.707974
-1.20168
-2.55207
14.6283
4.74069
-16.0904
8.4806
14.6332
7.6588
-1.93395
-0.966788
-0.746632
-0.989237
8.23627
-8.25368
-1.46033
2.75642
15.3863
29.18
-0.343151
-0.303696
-0.269034
-0.794847
19.7858
-7.98782
6.15943
5.48393
16.3881
38.4464
0.275121
0.165012
0.170108
-0.224184
9.622
0.136566
2.26054
3.70233
6.03447
13.531
-0.165133
-0.177269
-0.210822
-0.317928
0.225208
0.690072
2.39338
2.16236
1.39782
0.705512
0.308016
-0.177366
-0.303018
-0.369744
1.48247
1.69127
3.07952
3.56761
3.90422
1.79785
0.417507
-0.322937
-0.408025
-0.398734
1.98091
1.7739
2.39477
3.99436
6.27066
4.72403
-0.1883
-0.556606
-0.478865
-0.449432
1.57625
1.58634
1.77584
2.2168
19.0065
29.7101
-0.579542
-0.537089
-0.458296
-0.45197
0.843988
0.862145
0.855099
0.740891
25.3669
27.3384
-0.663296
-0.45527
-0.415032
-0.422757
0.500888
0.429979
0.353497
0.126983
45.9817
2.53346
0.158972
-0.189208
-0.322117
-0.372277
0.338665
0.294334
0.27785
0.0162513
43.8154
3.62392
0.40999
-0.200795
-0.351326
-0.401673
0.304043
0.316075
0.38212
0.426542
4.38211
41.4864
-0.97329
-0.556514
-0.49619
-0.494104
0.274952
0.309731
0.325108
0.299187
18.7379
28.1056
-0.554908
-0.529264
-0.535779
-0.535598
0.287341
0.32185
0.359614
0.378827
20.0273
26.5055
-0.75703
-0.562253
-0.613499
-0.607434
0.341717
0.361228
0.407121
0.397511
23.859
21.978
-0.749336
-0.615921
-0.721648
-0.668328
0.318376
0.331484
0.410567
0.38052
19.9748
25.5838
-0.825416
-0.779097
-0.797341
-0.803644
0.217969
0.256606
0.32883
0.421096
8.48406
37.3872
-1.04553
-0.926491
-0.900147
-0.884267
0.0786478
0.136874
0.133602
0.101068
22.9285
23.0204
-0.937723
-0.93105
-0.923949
-0.914552
-0.0238913
0.035481
0.028153
0.0245015
23.4195
22.3749
-0.938725
-0.937432
-0.935207
-0.931194
-0.112025
-0.0639069
-0.0522107
-0.042748
20.9449
22.3507
-0.958743
-0.957644
-0.95378
-0.949047
-0.194716
-0.168913
-0.151613
-0.14562
20.2385
20.4259
-0.983794
-0.979709
-0.973021
-0.965381
-0.251432
-0.22978
-0.212411
-0.208676
19.2446
20.5382
-1.00814
-1.00348
-0.991459
-0.978802
-0.290964
-0.271477
-0.242841
-0.192141
1.02408
38.7415
-1.07516
-1.02859
-1.00167
-0.984516
-0.358349
-0.351922
-0.346456
-0.349708
21.5619
18.127
-0.96953
-0.963547
-0.967428
-0.957355
-0.43377
-0.42807
-0.423186
-0.419832
19.3139
21.3293
-0.939864
-0.932985
-0.94465
-0.937247
-0.506237
-0.49867
-0.492764
-0.489948
20.9895
21.8878
-0.927905
-0.923349
-0.928744
-0.924533
-0.564903
-0.55506
-0.546797
-0.542919
22.6162
22.4361
-0.927949
-0.924753
-0.927055
-0.923072
-0.603818
-0.592655
-0.583621
-0.577859
22.0396
24.2586
-0.931594
-0.927901
-0.92441
-0.918297
-0.623257
-0.614237
-0.606277
-0.60032
22.1379
24.9007
-0.922867
-0.929163
-0.91906
-0.909671
-0.632184
-0.628529
-0.623614
-0.617614
22.2222
25.3477
-0.883389
-0.893055
-0.895621
-0.893825
-0.64706
-0.647712
-0.645633
-0.64182
23.0693
25.0041
-0.793926
-0.84246
-0.835295
-0.877778
-0.674613
-0.679468
-0.679636
-0.677592
23.4764
24.9491
-0.734962
-0.833453
-0.814192
-0.857941
-0.714966
-0.732319
-0.726414
-0.725892
23.6475
25.2331
-0.749348
-0.786348
-0.800504
-0.817698
-0.803015
-0.81492
-0.795435
-0.795874
23.9347
25.5441
-0.74763
-0.762474
-0.769723
-0.811229
-0.908881
-0.914251
-0.887559
-0.88569
24.2812
25.9458
-0.722975
-0.734166
-0.719637
-0.816841
-1.00696
-1.01099
-0.988651
-0.984305
24.6223
26.1629
-0.736207
-0.728249
-0.758557
-0.782055
-1.09913
-1.09299
-1.08693
-1.08186
24.6761
26.3092
-0.772674
-0.748423
-0.755302
-0.75739
-1.20011
-1.19513
-1.18985
-1.17995
24.7038
26.4982
-0.757654
-0.75036
-0.748417
-0.741111
-1.31987
-1.31827
-1.30666
-1.30304
24.9248
26.7054
-0.725894
-0.719231
-0.71734
-0.715902
-1.44911
-1.4476
-1.43041
-1.42906
25.1143
26.8288
-0.685142
-0.679318
-0.678835
-0.681721
-1.57965
-1.57808
-1.56893
-1.56761
24.7759
27.1949
-0.642793
-0.632969
-0.635143
-0.640759
-1.70219
-1.71595
-1.72059
-1.73478
28.7807
22.9371
-0.554223
-0.561958
-0.576184
-0.592498
-1.8082
-1.84415
-1.88667
-2.05
48.072
3.65523
-0.316851
-0.452108
-0.506957
-0.544919
-1.86347
-1.8996
-1.94814
-2.09009
47.9255
3.38712
-0.287453
-0.417056
-0.478622
-0.517839
-1.87369
-1.91367
-1.96125
-2.09441
47.9813
3.40013
-0.297452
-0.426707
-0.486968
-0.518947
-1.83632
-1.86965
-1.91846
-2.06155
47.5225
3.897
-0.344898
-0.483191
-0.548698
-0.584635
-1.75475
-1.76598
-1.78114
-1.80464
28.7873
22.4113
-0.594438
-0.613668
-0.649409
-0.670168
-1.65943
-1.65911
-1.65493
-1.64856
25.1366
26.1508
-0.732186
-0.723298
-0.740744
-0.750436
-1.56381
-1.55948
-1.5494
-1.54162
24.7752
26.6479
-0.815172
-0.805232
-0.81213
-0.822238
-1.48219
-1.47696
-1.46565
-1.45998
25.2611
26.4986
-0.877163
-0.869946
-0.875988
-0.88153
-1.41656
-1.4093
-1.39912
-1.39577
25.6425
26.5057
-0.927627
-0.918766
-0.922976
-0.924442
-1.36893
-1.35972
-1.35069
-1.34884
26.0007
26.4563
-0.962927
-0.954127
-0.961639
-0.963515
-1.33283
-1.32259
-1.31447
-1.31216
26.0845
26.5718
-0.963665
-0.959662
-0.982294
-0.98315
-1.31505
-1.29646
-1.29097
-1.28672
26.1234
26.5877
-0.991965
-0.985921
-1.03022
-1.02456
-1.31168
-1.28321
-1.27821
-1.27268
25.9554
26.6968
-1.02751
-1.02259
-1.069
-1.0628
-1.31135
-1.27805
-1.27245
-1.26671
25.7876
26.6869
-1.0598
-1.0564
-1.09776
-1.09235
-1.31753
-1.28216
-1.27313
-1.26991
25.6833
26.6116
-1.09213
-1.08639
-1.12126
-1.11743
-1.32798
-1.29587
-1.27384
-1.27171
25.5499
26.4893
-1.13346
-1.12192
-1.15802
-1.14945
-1.34887
-1.31351
-1.29755
-1.3023
25.5098
26.2732
-1.19773
-1.18245
-1.20912
-1.20009
-1.38399
-1.34563
-1.33975
-1.34827
25.4412
25.9359
-1.28671
-1.27356
-1.28277
-1.29244
-1.42734
-1.39464
-1.39005
-1.40184
25.1684
25.7927
-1.37175
-1.35898
-1.36054
-1.36499
-1.47591
-1.45199
-1.44708
-1.4611
24.8548
25.5161
-1.43849
-1.42438
-1.42383
-1.42673
-1.5283
-1.51623
-1.50738
-1.52456
24.8027
24.9027
-1.48961
-1.47777
-1.47597
-1.48004
-1.58365
-1.58095
-1.5662
-1.58264
24.4392
24.3267
-1.53315
-1.52312
-1.51926
-1.52353
-1.64506
-1.64192
-1.63031
-1.64349
23.8006
23.9137
-1.57266
-1.56236
-1.55584
-1.56151
-1.71718
-1.71187
-1.70834
-1.71745
23.0727
23.2927
-1.60877
-1.59784
-1.5953
-1.59624
-1.78505
-1.77991
-1.78124
-1.79056
22.3263
22.6207
-1.63656
-1.62402
-1.62267
-1.62185
-1.83237
-1.82654
-1.83383
-1.84953
21.4577
21.7888
-1.65276
-1.63713
-1.63611
-1.63437
-1.85856
-1.85462
-1.85375
-1.87676
20.5532
20.8178
-1.66837
-1.6443
-1.64247
-1.64212
-1.83464
-1.83653
-1.82209
-1.85468
19.5275
19.6476
-1.68487
-1.65119
-1.64931
-1.64911
-1.78626
-1.7945
-1.76454
-1.81199
18.2712
18.4182
-1.70951
-1.6602
-1.65822
-1.65721
-1.77077
-1.73733
-1.72908
-1.79325
16.6207
17.0138
-1.73331
-1.66982
-1.66893
-1.66925
-1.76246
-1.72836
-1.7365
-1.80679
14.5417
15.2016
-1.74404
-1.67451
-1.67531
-1.67304
-1.77735
-1.76474
-1.7708
-1.82822
12.3704
12.8425
-1.74645
-1.68962
-1.68885
-1.68686
-1.80595
-1.80008
-1.80423
-1.89543
10.0793
9.86335
-1.80763
-1.71434
-1.70692
-1.71458
-1.82799
-1.8266
-1.82551
-2.10469
7.40329
7.26309
-2.00935
-1.71315
-1.7324
-1.73762
-1.84859
-1.84427
-1.86945
-2.28073
4.85361
4.93344
-2.22914
-1.79013
-1.76836
-1.76984
-1.85928
-1.85697
-1.93167
-2.02878
3.03029
2.85807
-1.88536
-1.87637
-1.80022
-1.79995
-1.86904
-1.87034
-2.04779
-1.60981
1.28026
1.29216
-1.48759
-1.98851
-1.82677
-1.82458
-1.8807
-1.88314
-2.33701
-1.30567
-0.0985672
0.169825
-1.17553
-2.20518
-1.84657
-1.84415
-1.89434
-1.88974
-3.29691
-1.56288
-0.800469
-0.726088
-1.56222
-3.26862
-1.85664
-1.86789
-1.91568
-2.52043
-4.45713
-2.45564
-1.40583
-1.50121
-2.7421
-4.72565
-2.42033
-1.89759
-1.93425
-3.98339
-5.43516
-5.54214
-5.69802
-5.74289
-5.62263
-5.53852
-3.96281
-1.91492
-2.77229
-9.50178
-12.7659
-14.6364
-15.2702
-15.358
-14.7435
-12.7097
-9.41531
-2.73417
488.207
458.628
434.354
391.384
331.51
264.62
205.148
164.225
141.128
143.9
156.506
167.002
158.475
126.413
99.9987
91.9872
78.473
111.556
114.534
105.906
99.9917
103.978
109.177
112.783
115.127
114.983
115.451
124.706
134.421
145.07
162.423
167.595
171.662
178.194
201.258
227.047
252.201
276.049
304.301
317.498
224.608
213.08
228.079
209.052
154.231
91.0784
66.9519
63.9735
65.9128
64.1155
68.5893
78.6941
68.9516
68.7074
86.7792
88.9448
89.0106
90.6553
91.4133
91.4487
91.5101
85.5196
93.6424
98.6984
95.705
93.443
94.4519
100.118
109.636
120.116
128.49
137.387
144.895
162.989
194.39
218.772
234.541
232.648
255.396
269.588
186.275
185.251
175.141
137.721
84.7175
74.502
66.5904
59.8344
54.2135
51.8854
55.0553
60.4173
74.485
81.07
84.415
87.9913
89.9191
90.7034
91.1903
91.2184
91.5199
92.0539
89.9304
80.53
73.8383
70.2571
59.1951
70.4939
79.4136
84.8245
85.1641
85.564
100.243
122.95
158.945
184.822
187.844
189.21
201.787
214.969
161.684
167.586
154.34
119.856
67.8475
69.69
67.7551
64.3513
59.5537
58.3201
59.7172
62.9464
67.8103
74.1409
80.7443
85.5175
88.1561
89.4876
89.6183
89.0595
87.5776
82.7305
89.947
77.5131
65.8208
69.5441
69.237
72.0093
76.1858
74.3498
78.1613
77.9508
88.6138
101.224
116.848
143.126
158.601
160.254
166.462
178.227
134.609
143.029
134.17
116.407
77.5427
70.6412
69.2823
66.8609
64.2174
63.4217
64.4419
66.4589
69.6643
73.8303
78.2837
82.7065
86.4365
88.303
88.9879
84.6457
80.0081
79.1768
75.0494
67.9126
57.3331
46.7105
41.4712
45.8286
51.0424
53.888
60.8537
68.9212
77.6515
82.5526
102.9
125.363
145.655
144.766
148.387
154.772
114.457
109.036
110.961
100.797
87.7494
74.8694
69.0615
66.7304
67.0704
64.692
67.2599
67.9586
69.1845
71.4755
77.2847
83.3126
84.1039
84.4311
84.6768
82.0833
80.5
79.3087
68.9412
61.3433
48.5133
37.2
32.1865
34.5132
36.5041
43.5819
42.0071
52.7694
56.7456
65.3616
77.9163
90.2493
112.198
118.457
119.168
124.106
104.188
105.77
103.998
99.5839
96.5719
94.7569
82.2071
75.3324
72.3844
67.7046
66.6498
64.7523
68.1775
77.5024
80.6405
81.4318
89.8331
91.7404
89.4705
84.5846
75.6666
68.4022
64.4797
58.1013
50.7366
43.0074
33.0258
28.3226
29.6113
29.3466
30.0996
34.1854
36.1722
39.4531
42.7764
46.2948
62.0927
77.3721
80.8456
86.4792
113.386
111.018
103.278
102.547
101.726
97.3077
92.7557
88.0219
82.174
81.9601
74.1193
70.7818
75.4482
83.7973
91.0186
94.5149
102.767
100.943
95.7772
83.6248
76.6342
60.9347
51.195
47.5083
41.0412
33.521
29.4778
26.2617
23.9185
21.4968
19.3073
20.6664
19.2294
15.9068
22.4088
27.2401
29.9519
38.5644
49.7166
55.4953
139.761
126.647
113.732
112.03
108.102
103.495
99.2646
94.2152
88.3872
79.3087
68.8647
61.0538
60.7089
70.1295
76.5423
82.3929
91.0673
91.2299
93.2562
74.4301
70.1185
60.1958
47.5738
50.3898
29.9748
32.1744
31.0801
29.8156
21.3659
15.8379
12.5156
12.5683
10.2591
9.43649
8.82992
15.1906
20.9537
25.0926
35.8245
37.5428
171.248
149.116
126.865
119.913
114.979
110.37
105.018
96.6315
82.0924
62.4285
39.3413
13.9134
-2.02427
8.17349
24.0801
42.8075
57.2515
61.1327
57.9083
50.9118
43.4858
31.4665
27.5494
20.6285
23.5884
29.2592
31.878
33.1791
28.9523
29.0282
22.5495
14.8845
13.4057
12.45
12.4127
17.6001
21.8425
24.183
30.774
31.4284
200.834
172.684
143.128
123.683
117.491
112.519
104.838
92.4207
69.3484
44.2097
14.3749
-9.26946
0.451461
1.11197
-2.95728
-0.629799
17.6003
25.3517
23.4372
18.0264
7.10107
-5.99817
-11.0527
0.320181
16.1137
18.9995
15.7254
34.1119
22.1892
24.7097
20.2008
15.7656
15.6305
23.4397
20.9645
19.7229
23.5787
30.1132
37.2494
40.648
220.991
189.14
159.53
130.653
117.591
119.711
93.1908
74.7917
53.0188
29.3715
2.65594
-4.23338
-3.39824
-3.31485
-2.93944
-3.1365
-1.23866
2.40264
1.4684
-4.64325
-16.6528
-6.88615
-3.82756
-5.82937
-6.45177
-6.00012
1.70003
10.5406
12.2566
15.4136
15.3817
15.1491
12.6152
15.2681
17.9489
23.8925
31.565
40.5006
46.898
50.9185
214.338
184.915
159.169
135.647
114.267
98.3128
80.1798
60.7793
42.6687
23.1667
1.14788
-2.6483
-2.45396
-2.61847
-2.57288
-2.90279
-3.78726
-3.24205
-4.40918
-9.1162
-12.2876
-4.80625
-4.85354
-5.44278
-5.91145
-5.72538
-7.00025
-4.1366
0.231625
4.69728
8.46087
18.4993
23.8812
29.98
31.2985
34.7466
40.61
46.7393
49.837
51.2281
148.24
141.451
129.656
118.646
100.195
84.7406
67.9515
51.8586
36.9543
21.6259
5.34653
-2.42907
-2.46924
-2.45767
-2.44799
-2.55068
-2.67161
-3.51458
-5.26384
-8.24467
-10.1681
-7.07296
-6.11025
-6.89311
-7.53725
-8.07867
-8.76621
-8.71989
-7.94032
-6.34241
-4.50479
14.5683
27.2031
30.5991
28.5469
35.7725
41.5651
46.4934
48.006
47.675
48.7817
69.142
76.9808
77.9936
76.1564
60.2207
47.3151
37.4024
27.4197
16.0293
3.13397
-2.30015
-2.12588
-2.14438
-2.30152
-2.42195
-2.34015
-1.94717
-3.98756
-5.49958
-6.47977
-7.46062
-8.49321
-9.06284
-9.48396
-9.91098
-10.6237
-10.5408
-8.93958
-8.35895
-10.7785
15.2178
21.6965
35.6506
27.9981
31.1045
36.522
41.0104
42.2587
42.2416
12.4321
28.6809
37.5387
41.9417
40.388
37.4559
31.7609
22.8076
13.8231
7.21099
-2.57399
-1.85985
-1.92454
-1.8849
-1.99674
-1.95538
-1.654
-0.431009
-1.68727
-2.2205
-2.58853
-3.49615
-4.97066
-7.48364
-9.47462
-10.0436
-10.9113
-10.387
-8.98569
-8.03215
-8.04188
11.4932
17.0462
26.0016
31.7451
29.0956
32.0921
34.9218
35.1327
35.5297
3.68771
14.2205
20.7726
22.7994
20.5687
15.5636
11.1514
9.31304
5.3046
6.00376
5.88608
-0.24879
-2.08105
-1.77937
-1.58145
-1.55127
-1.50945
-1.64555
-1.16136
-0.890832
-0.73698
-1.62619
-2.30176
-0.611681
-4.49407
-6.66589
-7.81721
-8.14616
-7.63165
-5.99795
-2.37709
1.80342
12.4496
22.2312
27.3398
29.9497
30.9142
30.7159
30.4487
30.9898
0.366648
13.0874
15.604
9.42366
4.03364
-0.097122
-0.39861
2.83734
-2.05623
-1.86674
13.4697
10.8563
-1.20733
-1.21359
-1.14675
-1.15421
-1.15547
-1.21477
-0.862398
-1.39533
-2.47827
-3.64143
-4.56216
-4.05026
-3.58556
-6.06144
-6.60483
-6.91822
-6.20167
-4.51707
-2.87777
1.87843
18.781
26.5239
27.7929
28.0327
26.5633
25.4641
25.8437
25.7033
4.34841
19.9263
13.088
3.58025
0.0109135
-0.219322
-0.160317
-0.342011
0.73819
1.24603
3.82815
13.4036
0.668193
-0.710383
-0.790087
-0.935264
-0.927741
-0.762788
-0.764399
-1.1218
-2.47126
-8.2232
-9.26187
-8.59809
-8.26131
-8.38589
-8.47626
-9.08096
-9.38918
-6.2955
5.81341
16.7377
21.8133
20.082
17.1043
16.3961
18.1505
14.6319
17.2395
17.4964
-0.472695
0.736635
-0.0262779
-0.327946
-0.330021
-0.362904
-0.353505
-0.403093
-0.400989
-0.173191
-0.327693
-0.354735
-0.104055
-0.529606
-0.563163
-0.729746
-0.576345
-0.495135
-0.580752
-0.694126
12.1517
-11.4178
-8.97648
-8.82971
-8.4726
-8.2907
-8.84337
-9.32484
-5.48217
-2.59447
-3.54248
-3.79619
-6.05465
-7.4339
-6.61559
-4.5902
2.59764
6.42503
8.14289
9.46198
-0.506426
-0.454532
-0.450242
-0.437506
-0.405858
-0.392016
-0.397057
-0.433544
-0.48746
-0.140363
-0.439738
-0.382189
-0.395951
-0.426458
-0.449825
-0.509863
-0.311053
-0.347626
-0.433162
-0.609153
14.6399
-8.26058
-8.04251
-8.35955
-7.81561
-6.89807
-6.70511
-7.81467
-11.1137
-19.0289
-25.3556
-30.7502
-29.3888
-23.5889
-20.8184
-14.2691
-5.21039
2.53527
4.42442
8.95897
-0.405413
-0.402563
-0.40338
-0.395898
-0.395717
-0.398383
-0.402575
-0.414125
-0.382922
-0.301653
-0.400646
-0.406448
-0.425452
-0.435469
-0.465861
-0.349505
-0.447078
-0.284662
-0.33747
-0.505292
-2.95991
10.5476
-6.47237
-5.91282
-5.2664
-4.78728
-4.34454
-4.89421
-12.9989
-19.7439
-27.7042
-33.7913
-31.2356
-26.4842
-22.7822
-11.3267
-1.83942
3.75278
13.2815
18.7154
-0.43654
-0.424937
-0.415453
-0.404812
-0.405779
-0.418516
-0.431513
-0.430179
-0.42302
-0.441036
-0.438425
-0.452937
-0.492322
-0.500123
-0.490265
-0.27305
-0.432328
-0.337588
-0.349481
-0.375975
-1.00256
16.2399
-4.55562
-4.58938
-4.36444
-4.33837
-5.1097
-5.03071
-8.21019
-15.961
-17.2336
-16.631
-18.4634
-10.4679
-2.1282
8.17727
17.8673
25.9518
32.157
35.5224
-0.444842
-0.439344
-0.435785
-0.434003
-0.435259
-0.450648
-0.465668
-0.484045
-0.501202
-0.511475
-0.510492
-0.517117
-0.547148
-0.555397
-0.553454
-0.382082
-0.49064
-0.438301
-0.40334
-0.472123
-0.402877
17.3897
-3.00014
-4.82049
-4.57568
-4.82236
-5.61022
-4.50807
-4.38367
-13.1114
-9.17019
-14.5131
-3.71231
8.58564
18.2568
25.194
30.5688
35.2175
37.6743
38.439
-0.428924
-0.441117
-0.4468
-0.453938
-0.464269
-0.476404
-0.499081
-0.531823
-0.52708
-0.596426
-0.580537
-0.570082
-0.583304
-0.594748
-0.592412
-0.513517
-0.483143
-0.526233
-0.363294
-0.357364
-0.368598
2.79439
8.89386
-10.2284
0.636896
-6.02852
-12.1151
-7.99676
-13.9725
-9.06885
-13.1713
-13.1472
-3.95978
6.52667
8.88833
17.8212
24.1394
27.023
27.7227
26.7162
-0.410923
-0.438237
-0.439832
-0.465682
-0.487996
-0.498422
-0.527151
-0.52719
-0.569025
-0.61491
-0.59858
-0.583625
-0.580726
-0.587007
-0.575951
-0.547747
-0.457793
-0.252793
-0.142177
-0.19977
-0.305116
0.333348
3.98919
-4.0008
-11.1353
-8.85606
-11.0365
-10.2367
-17.9012
-16.8547
-22.5748
-30.918
-20.6364
-18.4293
-4.81683
-5.61745
8.008
8.82883
3.79667
7.83329
-0.430791
-0.456657
-0.462434
-0.469532
-0.478344
-0.485123
-0.482743
-0.475563
-0.482966
-0.519495
-0.516244
-0.515216
-0.523095
-0.530563
-0.510901
-0.47577
-0.363395
0.0289566
-0.210651
-0.226327
-0.335574
1.07716
3.40142
4.51869
6.42067
4.26836
1.38641
-3.32563
-8.26715
-13.4453
-17.3178
-19.7389
-13.8826
-3.78018
-0.156685
-0.184332
-0.481127
-0.42965
-0.319457
0.00553441
-0.495564
-0.505301
-0.514475
-0.510005
-0.507431
-0.516412
-0.500248
-0.481501
-0.462464
-0.463976
-0.474776
-0.487496
-0.491966
-0.503948
-0.491249
-0.467173
-0.477676
-0.140677
-0.346748
-0.360414
-0.398711
-0.423167
-0.414444
1.81455
4.62532
3.45483
4.43376
3.97103
1.05803
-1.69106
-2.92565
-1.96317
0.711805
-0.265925
-0.315169
-0.309607
-0.412915
-0.372842
-0.365066
-0.368381
-0.530534
-0.534353
-0.540103
-0.542352
-0.542841
-0.539287
-0.53687
-0.530456
-0.522761
-0.53145
-0.553522
-0.555649
-0.562109
-0.566004
-0.572876
-0.531071
-0.53664
-0.472931
-0.487053
-0.53666
-0.572113
-0.606739
-0.701079
-0.971903
-0.651779
0.112585
5.46996
10.6126
11.4384
7.05488
3.19268
0.718101
-0.437806
-0.543001
-0.523511
-0.49015
-0.451665
-0.43451
-0.441516
-0.444588
-0.60742
-0.595043
-0.589306
-0.582137
-0.581006
-0.578614
-0.574299
-0.571621
-0.572222
-0.583066
-0.599505
-0.619276
-0.626796
-0.623117
-0.622357
-0.625135
-0.621014
-0.627588
-0.631977
-0.665492
-0.694294
-0.725597
-0.77
-0.809372
-0.843798
-0.92372
-0.978352
-0.98897
-0.964653
-0.92168
-0.877105
-0.848854
-0.803567
-0.751649
-0.646826
-0.564831
-0.520821
-0.501922
-0.496534
-0.49371
-0.671118
-0.639263
-0.650805
-0.631162
-0.634073
-0.59756
-0.59106
-0.616814
-0.624067
-0.64135
-0.659278
-0.674984
-0.683736
-0.683554
-0.680121
-0.700326
-0.708558
-0.715506
-0.725187
-0.73745
-0.755144
-0.785702
-0.856549
-0.939103
-1.00617
-1.0614
-1.0824
-1.06886
-1.03728
-0.999976
-0.963875
-0.915619
-0.847387
-0.780255
-0.708377
-0.647346
-0.597503
-0.558144
-0.534896
-0.522082
-0.803215
-0.767844
-0.765348
-0.75745
-0.692327
-0.689302
-0.683419
-0.678228
-0.688172
-0.721631
-0.741533
-0.752081
-0.755972
-0.754719
-0.746106
-0.747632
-0.789091
-0.794619
-0.809023
-0.832377
-0.868442
-0.922111
-0.998304
-1.08819
-1.14173
-1.16161
-1.16277
-1.14337
-1.1088
-1.06951
-1.0312
-0.991425
-0.943106
-0.882963
-0.813843
-0.742945
-0.677397
-0.612959
-0.583014
-0.561603
-0.873797
-0.867098
-0.865128
-0.858956
-0.848915
-0.839358
-0.853502
-0.770651
-0.781415
-0.833897
-0.840103
-0.831907
-0.824907
-0.824293
-0.828308
-0.811674
-0.864583
-0.876506
-0.903763
-0.943848
-0.995716
-1.07076
-1.15652
-1.2356
-1.27861
-1.28946
-1.28235
-1.24837
-1.19886
-1.1494
-1.10688
-1.08148
-1.06416
-1.0125
-0.874492
-0.761655
-0.690883
-0.657978
-0.627104
-0.601024
-0.905694
-0.899692
-0.894988
-0.888567
-0.882658
-0.880593
-0.881944
-0.845387
-0.862616
-0.906228
-0.893767
-0.885174
-0.878174
-0.876048
-0.878943
-0.874349
-0.888481
-0.953205
-0.98835
-1.03287
-1.08905
-1.16493
-1.25123
-1.32476
-1.3719
-1.38445
-1.36982
-1.32759
-1.268
-1.20714
-1.16255
-1.14144
-1.10115
-0.99369
-0.643929
-0.56021
-0.675893
-0.679954
-0.62834
-0.596229
-0.925737
-0.919007
-0.915028
-0.911437
-0.909703
-0.909895
-0.910794
-0.91637
-0.858437
-0.916252
-0.908626
-0.905616
-0.90372
-0.905249
-0.909921
-0.918435
-0.922913
-0.993115
-1.02994
-1.07039
-1.12018
-1.18487
-1.25892
-1.32684
-1.3724
-1.39008
-1.38104
-1.34485
-1.28967
-1.23545
-1.19601
-1.16175
-1.11164
-0.92583
-0.728197
-0.62888
-0.600783
-0.625102
-0.5839
-0.560067
-0.943721
-0.937522
-0.934781
-0.934734
-0.933038
-0.931576
-0.928007
-0.92415
-0.893978
-0.916935
-0.91538
-0.913198
-0.913222
-0.917261
-0.926271
-0.944272
-0.923495
-0.998533
-1.03489
-1.06499
-1.09921
-1.14196
-1.19099
-1.24007
-1.27926
-1.29979
-1.30255
-1.28272
-1.2419
-1.20822
-1.19066
-1.17721
-1.05338
-0.851088
-0.691125
-0.547177
-0.509914
-0.543498
-0.525996
-0.523121
-0.957785
-0.950663
-0.945757
-0.944378
-0.941255
-0.937235
-0.932569
-0.922185
-0.916048
-0.901704
-0.906853
-0.913076
-0.91305
-0.916662
-0.925665
-0.93835
-0.915381
-0.979406
-1.01728
-1.034
-1.05321
-1.0771
-1.1035
-1.13228
-1.15866
-1.17743
-1.18575
-1.17589
-1.16289
-1.14846
-1.11819
-1.05344
-0.876519
-0.718737
-0.578712
-0.478363
-0.518653
-0.513707
-0.509668
-0.511524
-0.96715
-0.957237
-0.948986
-0.942383
-0.938765
-0.932169
-0.926391
-0.923949
-0.918465
-0.916086
-0.909976
-0.911552
-0.911286
-0.910452
-0.914922
-0.924942
-0.924893
-0.939984
-0.992695
-0.996196
-1.00312
-1.01333
-1.02423
-1.03469
-1.04631
-1.05836
-1.06561
-1.06363
-1.06679
-1.05519
-0.955799
-0.817285
-0.695121
-0.593266
-0.529982
-0.515193
-0.507449
-0.509303
-0.510432
-0.506405
-0.967642
-0.954984
-0.946127
-0.937819
-0.931309
-0.92744
-0.921177
-0.917304
-0.914614
-0.912862
-0.913593
-0.915758
-0.8958
-0.913804
-0.915314
-0.938693
-0.932694
-0.940954
-0.953014
-0.957298
-0.961659
-0.965464
-0.967663
-0.968687
-0.970185
-0.96903
-0.966688
-0.972044
-0.962244
-0.863986
-0.801104
-0.714432
-0.644254
-0.546467
-0.520197
-0.515831
-0.515808
-0.515689
-0.515828
-0.514411
-0.955008
-0.946342
-0.936615
-0.930096
-0.925079
-0.919904
-0.916102
-0.91351
-0.910426
-0.909046
-0.908974
-0.908126
-0.905789
-0.897421
-0.907399
-0.910574
-0.913181
-0.920289
-0.923693
-0.929364
-0.934734
-0.938944
-0.939628
-0.936077
-0.93136
-0.925177
-0.920229
-0.920232
-0.852581
-0.737796
-0.691879
-0.619195
-0.531125
-0.514333
-0.521017
-0.525031
-0.526655
-0.522863
-0.524
-0.525677
-0.933859
-0.930767
-0.927132
-0.919992
-0.915258
-0.913295
-0.909503
-0.906512
-0.905443
-0.904798
-0.901959
-0.899489
-0.898333
-0.888309
-0.883013
-0.882594
-0.884361
-0.892398
-0.89949
-0.909287
-0.91699
-0.923463
-0.926553
-0.925152
-0.91723
-0.904372
-0.894062
-0.884814
-0.737286
-0.563231
-0.524285
-0.539791
-0.56155
-0.536251
-0.543133
-0.544846
-0.543893
-0.540725
-0.536142
-0.539211
-0.924033
-0.919745
-0.915881
-0.914571
-0.909509
-0.905611
-0.903146
-0.900148
-0.897184
-0.894356
-0.891972
-0.886497
-0.881063
-0.873961
-0.86151
-0.852157
-0.848721
-0.854531
-0.869928
-0.881338
-0.892109
-0.901658
-0.910581
-0.91767
-0.916409
-0.900689
-0.880423
-0.863787
-0.796825
-0.159957
-0.617266
-0.634597
-0.610993
-0.597102
-0.585716
-0.575862
-0.563647
-0.557985
-0.552465
-0.550961
-0.920266
-0.91503
-0.910932
-0.909001
-0.904057
-0.899656
-0.895311
-0.890841
-0.887011
-0.882783
-0.877087
-0.871565
-0.86428
-0.855665
-0.845197
-0.832257
-0.814958
-0.809624
-0.820584
-0.852165
-0.865269
-0.874282
-0.884796
-0.892818
-0.893416
-0.878356
-0.854277
-0.830551
-0.79817
-0.769187
-0.732649
-0.702066
-0.664568
-0.639323
-0.620572
-0.597271
-0.581071
-0.569236
-0.561471
-0.554203
-0.912393
-0.906334
-0.907283
-0.902907
-0.897428
-0.892359
-0.887654
-0.882941
-0.877947
-0.872137
-0.8662
-0.859559
-0.85197
-0.843939
-0.834369
-0.825767
-0.819348
-0.80742
-0.798985
-0.836546
-0.844045
-0.848892
-0.856018
-0.860414
-0.858358
-0.846555
-0.830937
-0.814121
-0.788571
-0.749517
-0.715332
-0.690999
-0.673438
-0.653104
-0.632223
-0.608843
-0.587976
-0.572706
-0.562403
-0.551479
-0.908519
-0.895457
-0.899106
-0.893335
-0.889039
-0.885153
-0.881292
-0.877116
-0.872618
-0.867709
-0.862262
-0.856135
-0.850148
-0.844113
-0.838559
-0.834581
-0.832283
-0.833023
-0.835943
-0.835529
-0.834243
-0.834475
-0.836414
-0.835271
-0.830546
-0.821495
-0.808106
-0.791136
-0.767189
-0.738452
-0.713892
-0.693667
-0.673059
-0.651937
-0.629096
-0.607078
-0.586487
-0.569585
-0.559266
-0.551335
-0.891249
-0.889779
-0.886319
-0.883105
-0.880374
-0.8781
-0.875823
-0.873561
-0.871198
-0.868568
-0.86548
-0.862034
-0.858645
-0.855335
-0.853363
-0.851935
-0.850492
-0.849363
-0.848233
-0.846013
-0.843692
-0.841108
-0.838174
-0.832331
-0.822675
-0.809482
-0.794601
-0.778094
-0.758292
-0.736169
-0.715564
-0.694417
-0.673603
-0.652358
-0.630218
-0.608279
-0.588175
-0.571374
-0.55941
-0.55309
-0.87453
-0.873291
-0.872387
-0.871496
-0.870384
-0.869805
-0.869236
-0.868524
-0.868151
-0.867363
-0.867258
-0.86778
-0.869261
-0.870219
-0.873351
-0.873422
-0.873457
-0.873222
-0.871628
-0.867882
-0.863425
-0.858041
-0.850902
-0.841597
-0.83061
-0.819402
-0.802626
-0.783078
-0.762637
-0.740878
-0.72077
-0.699591
-0.679008
-0.658587
-0.637808
-0.617643
-0.599754
-0.584676
-0.572621
-0.567044
-0.855106
-0.856497
-0.85724
-0.857966
-0.85884
-0.860114
-0.861472
-0.861984
-0.863785
-0.868416
-0.873184
-0.878337
-0.884437
-0.891021
-0.896689
-0.899268
-0.901017
-0.900656
-0.897891
-0.893337
-0.887562
-0.879418
-0.869501
-0.858513
-0.847307
-0.83612
-0.821103
-0.804247
-0.784745
-0.762284
-0.73814
-0.71588
-0.695031
-0.675252
-0.657046
-0.639921
-0.62274
-0.60864
-0.599764
-0.573698
-0.841375
-0.842411
-0.843335
-0.844917
-0.847168
-0.849931
-0.853371
-0.852323
-0.862509
-0.870058
-0.880206
-0.891723
-0.905221
-0.918121
-0.9269
-0.931595
-0.933086
-0.931194
-0.927205
-0.91962
-0.910838
-0.899946
-0.887968
-0.876409
-0.864514
-0.852356
-0.838983
-0.823356
-0.804486
-0.784073
-0.763798
-0.743706
-0.724527
-0.706156
-0.688224
-0.670643
-0.653725
-0.639663
-0.631001
-0.594082
-0.830567
-0.829929
-0.830027
-0.831475
-0.834079
-0.838311
-0.843927
-0.845197
-0.858461
-0.870971
-0.884497
-0.901782
-0.921598
-0.940623
-0.9526
-0.958546
-0.961287
-0.959808
-0.954488
-0.944844
-0.933048
-0.918968
-0.90508
-0.891451
-0.877768
-0.864133
-0.850617
-0.835992
-0.820564
-0.804848
-0.786909
-0.769702
-0.754407
-0.736919
-0.721088
-0.703406
-0.686292
-0.672361
-0.664933
-0.63928
-0.814501
-0.812349
-0.812771
-0.814811
-0.818167
-0.822876
-0.829195
-0.836953
-0.833458
-0.866724
-0.887581
-0.904641
-0.922811
-0.940954
-0.954128
-0.963374
-0.969659
-0.970059
-0.965447
-0.957095
-0.94506
-0.931411
-0.916846
-0.902186
-0.887956
-0.874567
-0.861791
-0.849174
-0.836251
-0.821996
-0.80795
-0.794521
-0.778351
-0.763108
-0.745978
-0.728614
-0.711947
-0.700577
-0.691223
-0.687654
-0.785776
-0.78856
-0.791564
-0.794955
-0.798842
-0.802886
-0.80804
-0.814526
-0.789263
-0.73615
-0.891088
-0.896988
-0.908999
-0.924449
-0.937991
-0.949291
-0.959937
-0.961734
-0.959602
-0.954832
-0.944983
-0.932352
-0.91897
-0.905792
-0.892745
-0.879813
-0.867319
-0.855381
-0.843934
-0.83219
-0.820194
-0.806075
-0.791965
-0.775728
-0.759047
-0.741392
-0.724902
-0.712335
-0.69397
-0.691239
-0.761521
-0.765586
-0.769776
-0.773984
-0.778003
-0.78122
-0.784391
-0.788192
-0.780488
-0.714222
-0.870891
-0.876705
-0.885762
-0.900232
-0.914086
-0.925759
-0.936751
-0.942278
-0.943312
-0.941321
-0.934645