/*--------------------------------*- C++ -*----------------------------------*\
  =========                 |
  \\      /  F ield         | OpenFOAM: The Open Source CFD Toolbox
   \\    /   O peration     | Website:  https://openfoam.org
    \\  /    A nd           | Version:  8
     \\/     M anipulation  |
\*---------------------------------------------------------------------------*/
FoamFile
{
    version     2.0;
    format      ascii;
    class       volScalarField;
    location    "1.15";
    object      p_rgh;
}
// * * * * * * * * * * * * * * * * * * * * * * * * * * * * * * * * * * * * * //

dimensions      [1 -1 -2 0 0 0 0];

internalField   nonuniform List<scalar> 
9150
(
1963.4
1962.41
1961.83
1961.34
1961.11
1961.11
1961.34
1961.84
1962.41
1963.4
1963
1962.47
1962.07
1961.74
1961.57
1961.58
1961.74
1962.07
1962.47
1963
1962.73
1962.43
1962.19
1961.97
1961.85
1961.85
1961.97
1962.19
1962.43
1962.73
1962.61
1962.42
1962.26
1962.1
1962.01
1962.02
1962.1
1962.26
1962.42
1962.61
1962.61
1962.42
1962.29
1962.15
1962.08
1962.09
1962.15
1962.28
1962.42
1962.61
1952.08
1950.94
1950.94
1951.5
1951.59
1951.59
1951.46
1950.92
1950.91
1952.05
1955.75
1955.06
1954.78
1954.71
1954.79
1954.78
1954.7
1954.77
1955.05
1955.74
1958.76
1958.02
1957.72
1957.36
1957.32
1957.31
1957.37
1957.71
1958.03
1958.77
1961.44
1960.36
1959.97
1959.31
1959.15
1959.16
1959.31
1959.97
1960.37
1961.46
1964.28
1962.12
1961.4
1960.64
1960.39
1960.38
1960.62
1961.38
1962.11
1964.27
1946.94
1945.43
1943.54
1942.46
1941.84
1941.94
1942.63
1943.56
1945.33
1946.61
1945.99
1945.87
1944.95
1944.68
1944.28
1944.23
1944.61
1944.85
1945.79
1945.86
1945.9
1945.96
1944.97
1945.34
1944.91
1944.93
1945.38
1944.95
1945.9
1945.84
1942.8
1945.4
1944.3
1945.94
1945.55
1945.56
1945.82
1944.23
1945.33
1942.72
1935.21
1945.79
1945.89
1947.73
1947.94
1947.96
1947.73
1945.9
1945.79
1935.19
229.825
180.712
164.902
189.488
261.652
360.191
456.503
511.398
533.861
525.967
144.554
126.837
115.646
111.201
134.556
187.247
268.157
296.422
286.865
265.156
144.252
115.79
108.703
105.186
114.229
140.483
193.481
206.322
204.227
195.181
160.149
135.347
117.413
117.384
122.67
161.168
167.19
163.163
163.393
161.755
146.289
138.81
125.992
122.612
174.367
162.467
133.555
128.212
127
130.704
152.847
144.182
129.651
125.163
180.532
121.222
112.129
105.5
107.138
111.897
158.66
164.326
139.39
136.476
153.156
122.274
114.403
103.701
104.595
120.352
151.631
151.624
147.888
193.565
156.27
141.115
134.178
132.846
158.352
206.071
156.872
161.792
167.229
242.624
260.834
207.421
230.077
217.891
275.858
270.998
167.589
172.534
194.406
317.422
358.714
370.329
375.438
319.667
345.547
327.648
169.348
186.203
303.245
385.128
401.159
455.222
452.882
394.808
403.937
378.599
155.51
190.078
320.724
374.381
370.084
435.61
459.839
478.276
451.174
417.877
132.883
225.267
281.747
236.031
301.896
378.405
409.796
463.503
459.723
422.002
127.265
182.378
107.968
116.458
252.171
282.179
291.343
233.871
314.479
344.723
132.284
98.407
92.5671
109.717
231.084
215.734
100.897
13.4059
38.7431
207.364
196.836
163.746
169.341
189.977
243.571
221.509
9.42992
-0.319029
-0.779732
109.783
183.86
173.951
120.334
23.8553
251.43
245.364
3.37387
-0.560417
-0.337794
63.2069
187.723
135.635
29.1429
8.32755
252.001
275.087
4.3973
0.127304
0.151379
-0.359899
209.124
132.297
18.1758
11.1132
185.307
286.27
7.34802
0.606254
0.590999
2.13991
136.056
22.0231
15.0803
8.08178
63.7837
133.626
7.7009
0.344285
0.231368
0.124262
10.2154
5.40388
16.2232
4.80541
6.2086
7.67755
6.38295
1.82738
0.166087
0.0950446
6.42597
6.63265
12.0922
4.97451
5.38276
7.34396
10.5933
4.9885
0.196127
0.0896557
11.5914
11.3585
9.46164
4.69652
41.1638
66.8407
16.4009
6.25091
0.43392
0.234125
2.0968
2.10637
2.29775
2.88418
256.515
312.632
14.9894
5.57531
0.652611
0.401547
1.44126
1.41389
1.42299
3.68645
354.629
355.817
7.92146
2.89572
0.683831
0.36652
1.55184
1.46697
1.04648
7.32606
388.683
344.756
6.22029
1.57269
0.778305
0.348166
1.43084
1.3865
0.964743
8.74967
399.957
358.788
8.76885
2.90338
0.71582
0.347025
1.43732
1.36803
0.931146
9.64128
373.541
410.554
9.03294
4.19837
0.399
0.398526
1.19991
1.12978
0.887462
9.93847
401.047
410.23
9.61144
4.7345
0.646257
0.201906
1.24717
1.10936
0.939746
9.77315
413.966
421.472
8.37123
3.11315
2.03839
0.454384
1.33027
1.24872
1.00559
10.6856
427.623
427.154
7.97479
0.557635
1.27845
1.14
1.32447
1.2421
1.0286
11.0114
434.227
441.64
8.49566
-0.160641
-0.178886
-0.185187
1.24149
1.10148
0.96648
9.19918
435.208
465.914
7.20358
-0.288403
-0.262059
-0.246179
1.11065
0.799443
0.790872
4.13436
462.898
463.625
2.56936
-0.27333
-0.266228
-0.2565
0.727932
0.712371
0.705043
0.958185
472.056
470.849
0.124373
-0.260077
-0.257853
-0.252909
0.584492
0.632603
0.644299
0.653762
460.581
464.06
-0.261729
-0.260653
-0.25679
-0.251086
0.52142
0.547222
0.564517
0.57051
451.788
452.666
-0.267118
-0.263061
-0.256383
-0.248451
0.489061
0.50597
0.523339
0.527074
454.201
455.977
-0.271735
-0.263389
-0.254902
-0.242147
0.483286
0.483893
0.512529
0.563229
446.386
484.285
-0.318885
-0.263134
-0.167539
-0.2126
0.429797
0.423068
0.428534
0.425282
480.445
476.189
-0.193189
-0.177934
0.0165916
0.0496869
0.360842
0.366542
0.371424
0.374778
499.215
503.151
-0.143384
-0.134536
0.0319913
0.143204
0.307995
0.315568
0.321466
0.324282
535.99
538.2
-0.111561
-0.10658
-0.079996
0.182634
0.269092
0.278798
0.287054
0.290931
574.043
574.043
-0.0919299
-0.0886571
-0.0872555
0.0713113
0.249725
0.26082
0.269852
0.275611
601.604
605.212
-0.0758254
-0.0716636
-0.0646789
-0.0567438
0.249845
0.258857
0.266816
0.27277
625.786
629.676
-0.0469459
0.515747
-0.0335247
-0.0297359
0.260599
0.264192
0.269103
0.275097
647.011
651.076
0.0143909
1.34568
0.434876
-0.000303934
0.265526
0.264692
0.26675
0.270518
668.147
670.553
0.128332
1.44445
1.43561
0.0360096
0.282939
0.254982
0.252605
0.254403
687.661
689.499
0.213062
1.44428
1.64277
0.78345
0.582806
0.362498
0.225965
0.225939
709.081
711.157
0.223877
0.713686
1.70818
1.69082
0.576628
0.541267
0.177897
0.17686
732.366
734.553
0.248944
0.549845
1.79069
1.42475
0.498738
0.492978
0.104471
0.10634
758.149
760.388
0.304164
0.564815
1.88927
0.314716
0.428425
0.206776
0.022523
0.0277272
783.362
785.279
0.361626
0.402591
0.770777
0.228399
0.362755
-0.0357602
-0.0566353
3.00571
807.052
808.747
3.73732
0.285771
0.277121
0.275035
0.286087
-0.11133
-0.13993
9.83897
831.717
833.917
10.4372
0.302782
0.304669
0.314898
0.189758
-0.112955
-0.237117
14.0967
858.249
860.36
14.8854
0.353668
0.380105
0.355768
0.035218
-0.134142
-0.341235
19.4464
884.203
886.045
20.4285
0.413371
0.443958
0.415717
-0.401002
-0.228213
-0.460134
24.5806
905.788
908.266
25.763
0.479615
0.4895
0.484236
-0.520559
-0.342194
-0.592162
29.2505
928.083
921.728
30.5972
0.5705
0.556686
0.548699
-0.539362
-0.590212
-0.738618
32.7852
963.476
917.807
33.8162
0.700225
0.69434
0.605464
-0.566516
-0.719918
-0.780428
34.5563
978.978
932.843
34.5959
0.755389
0.907068
0.652243
-0.555359
-0.638679
-0.773748
35.0765
994.665
948.496
35.6514
0.766536
1.00542
0.67085
-0.526888
-0.516298
-0.710896
35.0493
1009.84
964.516
35.8088
0.730987
0.96813
0.763511
-0.447398
-0.39047
-0.553132
34.6654
1006.5
999.857
35.6673
0.621162
0.887737
0.932976
-0.267675
-0.263862
-0.406034
36.3631
1020.9
1021.91
37.3571
0.532462
0.724396
0.878405
-0.0841416
-0.138796
-0.279203
40.8811
1042.48
1044.56
41.9212
0.471053
0.572424
0.78543
0.0234391
-0.027519
-0.173865
49.7525
1071.36
1072.85
50.5784
0.426507
0.507145
0.427135
0.114833
0.0241104
-0.0857627
61.369
1104.16
1105.11
62.1702
0.397902
0.551785
0.393702
0.188377
0.0866157
-0.0160823
75.8128
1138.49
1138.81
76.5358
0.382827
0.755305
0.37446
0.462839
0.162935
0.0402617
92.1307
1172.14
1172.42
92.9199
0.396138
0.982274
1.29848
0.596567
0.178418
0.0831506
109.703
1205.15
1205.29
110.575
0.387639
1.20318
1.47042
0.699701
0.195844
0.11515
126.117
1235.17
1235.63
127.015
0.368375
1.22401
1.46809
0.787692
0.229394
0.140232
141.239
1263.13
1263.73
142.16
0.35176
1.16807
1.47443
0.882173
0.297732
0.157809
154.638
1289.18
1289.77
155.524
0.338857
1.02339
1.4837
0.902159
0.478755
0.174713
167.591
1314.46
1315.09
168.421
0.321077
0.864471
1.47953
0.911515
0.353792
0.169997
180.958
1339.84
1340.31
181.697
0.279636
0.577687
1.44796
0.847194
0.188655
0.147392
195.942
1366.02
1366.16
196.62
0.208155
0.263121
0.653374
0.668359
0.127426
0.116791
215.674
1394.29
1394.71
216.341
0.142361
0.14107
0.140057
0.486239
0.0983156
0.0794571
240.187
1424.06
1424.69
240.8
0.0965853
0.0983427
0.0956106
0.376714
0.108029
0.0388525
272.322
1456.7
1456.7
272.559
0.0628231
0.0672804
0.0621103
0.330087
0.135569
-0.000147172
309.747
1489.26
1489.15
309.741
0.0371038
0.0425123
0.0367543
0.149709
0.0940726
-0.0442299
353.015
1521.97
1522.31
352.97
0.0174927
0.0240282
0.0183821
-0.0654292
-0.0475215
-0.102371
398.484
1553.21
1553.76
398.435
0.00165922
0.0635527
0.00643442
-0.149391
-0.150646
-0.155553
449.867
1584.46
1585.1
449.861
-0.00469454
0.0751476
0.00284162
-0.175157
-0.157655
-0.18845
502.82
1613.68
1614.31
502.931
0.00221352
0.0644166
0.00565454
-0.160566
0.450404
-0.188426
564.813
1642.67
1643.12
565.001
0.0150712
0.0298071
0.0159806
0.821241
0.867058
-0.135013
631.051
1669.61
1669.78
631.229
0.0280135
0.0710769
0.0286045
1.13901
0.89104
-0.0619758
712.221
1695.83
1695.94
712.399
0.038914
0.104253
0.040133
1.18004
0.390979
-0.00883059
801.069
1719.6
1719.94
801.379
0.0494728
0.156287
0.0805368
0.598449
0.00993704
0.00203615
914.699
1741.64
1742.29
915.14
0.0653363
0.181366
0.376295
-0.0130368
-0.00874194
-0.0144041
1038.58
1761.87
1762.29
1038.95
0.0703373
0.137405
0.387595
-0.030331
-0.0244643
-0.0286109
1189.68
1781.11
1780.82
1189.73
0.061827
0.0687219
0.282153
-0.032756
-0.0313669
-0.0302804
1341.34
1799.72
1799.53
1341.37
0.0821117
0.0628635
0.0862923
-0.0337388
-0.0294236
50.0294
1486.33
1817.94
1817.98
1486.5
51.0065
0.0465223
0.0465853
-0.0248149
-0.0225028
190.806
1617.88
1836.74
1836.5
1617.99
194.182
0.034296
0.0345372
-0.014952
-0.0162487
397.924
1748.86
1855.07
1855.09
1748.92
404.162
0.0273376
0.0295172
-0.006993
-0.00943352
749.752
1841.45
1873.55
1873.82
1844.78
763.256
0.0271448
0.0295685
-0.00100627
0.00359174
1261.15
1891.72
1892.51
1892.57
1891.72
1246.6
0.0377089
0.0254367
-0.00272831
209.77
1680.75
1910.48
1911.54
1911.45
1910.19
1654.51
172.014
0.0153607
-0.00168318
1148
1927.02
1927.03
1926.87
1926.83
1926.95
1926.78
1109.01
0.0176476
673.105
1883.1
1939.42
1937.55
1936.92
1936.83
1937.45
1939.48
1880.71
661.735
494.46
465.202
440.954
397.988
338.114
271.224
211.748
170.802
147.707
150.483
163.089
173.585
165.058
132.994
104.184
93.9393
82.9325
118.427
121.615
113.021
107.111
111.098
116.296
119.67
121.445
121.301
122.016
131.546
141.265
149.98
164.7
169.849
173.919
181.164
206.228
231.963
255.292
280.333
311.358
324.557
233.44
222.605
246.533
228.851
174.043
110.68
79.6088
74.3195
81.6831
79.3955
83.2239
98.0161
88.697
88.2591
97.7076
89.8817
89.4274
91.0235
91.772
91.8057
91.8672
94.4974
114.886
119.622
114.97
112.396
114.87
120.652
130.174
140.656
148.991
157.82
165.212
183.215
210.861
222.34
237.31
243.598
276.574
290.767
188.611
187.587
195.554
170.437
112.491
77.688
67.2211
60.4408
54.8154
52.8494
56.5359
66.6176
89.8349
93.5507
87.8687
88.6084
90.5221
91.2996
91.7854
91.8134
92.1149
92.6488
91.2509
103.506
107.837
104.435
93.4142
104.724
113.646
119.056
119.068
103.345
109.44
132.219
165.376
189.428
192.471
201.167
236.731
250.275
164.954
170.857
191.751
165.84
89.6606
70.5729
68.6041
65.1939
60.3955
59.1619
60.559
63.8163
68.7262
75.0794
81.6327
86.3613
88.992
90.3257
90.4529
89.8926
88.5262
115.349
129.934
117.356
89.7052
73.8184
73.297
76.0471
80.2485
90.1247
101.157
86.4972
96.4627
109.233
128.583
155.302
165.051
169.852
212.103
227.69
138.814
176.446
198.416
180.631
136.231
82.8709
70.4174
67.9524
65.3375
64.5078
65.5514
67.5956
70.8179
75.0105
79.5873
85.2205
90.6067
97.7865
108.498
108.67
103.034
105.188
113.72
116.4
105.304
94.0302
88.2226
74.8839
74.0882
86.7708
93.3529
80.7158
87.7429
98.2263
135.19
157.729
154.38
158.406
206.442
218.426
123.75
186.019
189.494
179.325
166.245
139.13
84.3679
79.4758
91.8452
74.8318
68.6734
69.9612
73.9895
83.4748
102.041
122.719
130.458
130.135
132.551
124.843
117.846
112.902
115.769
123.156
105.719
83.4781
62.8589
61.6879
74.3294
83.772
70.8628
66.1493
69.9956
104.168
117.494
129.794
133.71
143.794
192.786
201.944
182.258
198.643
196.819
192.023
180.441
172.453
130.974
107.102
102.955
102.44
82.4609
86.1287
130.026
152.224
141.432
157.498
179.631
181.538
179.276
174.383
151.716
148.462
154.609
148.224
140.872
133.13
113.773
60.6012
54.9378
61.5659
48.8101
50.0024
51.8235
82.5274
89.4169
85.061
99.7931
131.909
172.81
178.485
220.806
218.37
208.455
146.241
123.839
119.42
114.876
110.259
131.996
163.181
180.538
177.2
181.864
190.207
197.366
193.82
182.759
204.449
199.39
183.955
148.079
141.096
152.13
151.51
145.029
116.439
92.5739
76.6263
53.1028
50.6446
44.5309
38.8775
37.4591
47.5574
71.8927
51.5952
58.4662
127.395
155.883
161.666
261.582
248.39
198.416
137.091
133.162
128.557
124.362
121.963
187.98
199.976
189.5
181.661
181.31
190.655
194.27
173.044
181.718
181.928
210.536
150.401
124.021
114.009
101.416
158.725
107.957
61.8545
60.769
59.496
60.6742
48.9135
52.2227
52.3901
33.7729
33.2231
34.1715
41.5176
48.4519
144.504
156.162
157.879
307.408
285.252
248.485
150.452
142.989
138.388
133.134
152.368
217.243
197.429
174.205
148.728
122.035
118.854
143.262
163.07
165.968
173.774
175.525
172.575
162.441
123.279
131.023
111.092
76.2937
62.7041
65.0483
66.3715
121.477
160.854
154.539
108.107
40.0914
39.981
40.7175
47.7684
106.426
158.678
165.274
165.928
351.329
323.174
293.078
190.647
148.458
143.503
139.199
220.471
218.823
193.589
163.47
73.7827
1.22834
1.93908
29.621
125.93
165.614
173.366
171.451
166.044
155.05
122.732
111.774
126.479
147.574
150.313
103.302
71.4755
107.3
170.952
166.528
161.872
87.2152
54.724
63.1132
136.087
172.238
178.773
185.908
189.307
385.819
353.968
324.352
294.874
197.933
158.64
229.849
238.878
216.913
193.153
144.058
10.9826
-2.55268
-2.46399
-2.03354
25.6077
160.872
164.514
163.594
157.453
114.271
11.8765
5.71571
15.7112
51.9743
83.3028
107.757
116.332
101.69
175.676
175.745
175.613
168.624
132.926
161.883
186.417
194.38
203.311
209.715
210.851
393.498
364.075
338.282
314.498
285.033
264.682
258.688
239.208
220.981
201.34
156.824
14.8708
-1.53488
-1.69939
-1.64427
9.28606
145.493
172.981
171.832
167.068
102.259
0.792647
0.636775
0.039741
-0.431968
-0.247643
20.1734
87.5379
82.4669
135.644
182.879
192.917
198.41
205.507
207.816
211.367
217.385
220.653
221.618
222.857
341.732
334.743
316.593
291.278
282.063
277.528
260.829
244.661
229.657
214.209
184.458
30.0205
-1.47662
-1.46506
-1.45264
3.16301
123.859
186.832
185.078
182.101
180.082
71.111
0.12168
-0.975269
-1.62135
-2.16271
-2.85026
11.9164
38.0949
38.3906
125.143
202.939
215.561
165.901
219.266
226.522
232.32
232.006
233.357
233.024
256.565
276.808
284.575
275.318
259.66
252.604
254.513
244.57
234.504
222.993
194.85
32.8251
-1.05974
-1.09367
-0.932903
-0.790738
84.0891
202.505
200.461
198.947
197.965
196.893
102.788
2.16626
-3.12964
-3.55685
-4.26952
-4.18299
-2.41306
-0.172303
72.5727
217.528
184.623
149.141
181.538
235.987
241.414
245.813
241.337
241.32
234.33
250.592
259.359
263.661
261.188
258.951
253.253
244.296
235.278
228.567
186.203
13.7808
-0.805455
-0.786658
0.351716
0.444462
28.4259
204.718
216.863
216.327
215.959
215.046
213.499
128.211
-2.68186
-3.25104
-4.1187
-3.59214
-2.16722
-1.01819
63.8509
191.446
138.487
147.765
153.159
216.69
251.115
253.944
250.962
248.337
238.667
250.351
256.796
258.769
256.472
251.395
246.934
245.095
241.082
241.725
241.415
112.214
2.61012
-0.705011
-0.675666
0.0864495
-0.0487115
91.899
231.47
231.756
231.905
231
230.239
230.94
55.7034
0.565118
-0.585994
-0.912492
-0.377395
1.39557
14.3109
116.977
199.082
227.489
246.41
250.197
264.068
263.87
263.599
257.527
215.704
263.417
265.875
250.815
203.134
159.983
135.246
167.028
146.24
150.401
262.536
231.858
41.3408
-0.542573
-0.459076
-0.457395
-0.360019
19.7654
197.114
245.315
244.246
242.993
241.442
216.081
109.037
1.60803
1.06616
0.768185
1.60383
7.04412
59.1393
171.974
265.722
273.556
274.967
275.315
273.847
272.747
273.126
266.029
88.7584
241.62
201.431
101.843
31.7636
8.10219
2.60697
9.16196
10.1802
17.0856
78.0269
128.108
33.9169
-0.278696
-0.0787556
0.773513
0.863767
0.00687742
44.2005
259.355
258.241
245.135
101.262
31.114
11.3976
-0.276806
-0.359251
-0.873944
19.6921
162.27
240.132
264.471
282.961
281.3
278.355
277.694
242.85
276.044
278.642
271.542
-0.0305364
24.8483
14.9517
1.25083
0.278371
0.14593
0.121588
0.0699115
1.30164
4.95766
3.45963
1.75982
4.50627
-0.0762839
0.172997
1.57636
2.16906
0.205889
0.440165
138.322
286.075
132.77
-0.116677
-0.0738542
0.185466
0.265069
-0.232312
27.0808
205.523
269.583
268.704
270.047
268.548
262.989
268.722
218.046
211.584
221.682
280.346
277.241
0.00611843
0.0285496
0.0504617
0.0491472
0.0772286
0.0897389
0.0836287
0.0469324
0.665641
4.06494
0.936632
0.0805523
0.054291
0.0317161
0.0538732
1.175
2.58093
0.361282
0.293141
42.9894
256.329
78.595
1.23384
0.859748
1.33228
2.15462
2.44273
16.4033
133.318
246.548
260.78
254.847
188.378
185.506
198.842
251.849
214.515
222.312
292.406
296.217
0.0813579
0.0839026
0.0834163
0.0907751
0.101028
0.105748
0.101365
0.0898826
0.943133
1.65488
0.271699
0.0606625
0.0408224
0.0384751
0.394626
2.20183
1.70404
0.455166
0.402358
6.35987
108.559
171.812
3.32537
3.81604
4.40269
4.80685
5.38331
23.3498
191.414
266.134
258.255
183.476
186.031
190.987
262.023
290.708
260.455
301.693
315.369
320.787
0.0725518
0.083912
0.0931529
0.103806
0.121552
0.11309
0.168349
0.390589
0.549867
0.22081
0.0762244
0.0347551
-0.00486293
-0.0121569
1.03274
2.47203
0.934916
0.43665
0.427174
1.1166
108.044
233.421
5.84766
5.66941
5.82302
5.84201
33.9426
247.717
293.062
266.982
211.633
210.841
243.133
305.609
313.969
324.287
333.966
342.078
348.284
351.649
0.209654
0.0918668
0.0954262
0.0972177
0.147297
0.094191
0.0768583
0.089749
0.158939
0.00437332
-0.00112191
-0.0079838
-0.0380611
-0.0462802
0.929347
2.485
1.80715
0.372882
0.421207
0.661102
108.791
279.764
176.069
6.04702
6.26142
6.53152
120.255
317.329
315.244
249.438
229.679
283.247
326.41
338.73
348.408
355.358
360.745
365.395
367.852
368.616
0.45472
0.416221
0.107034
0.0998972
0.0920786
0.0788593
0.0561818
0.183156
0.578712
0.00360765
-0.0496997
-0.0393317
-0.0525592
-0.0637844
0.0325776
2.29022
2.45189
0.741693
0.576294
0.721694
41.1626
280.37
338.467
114.334
12.612
52.2375
283.514
329.353
294.744
247.153
254.488
330.475
339.929
350.696
341.266
361.959
368.367
371.25
371.95
370.944
0.309544
0.334922
0.471452
0.379664
0.172014
0.0868067
0.146347
0.623736
0.582095
0.00817799
-0.0461577
-0.0312172
-0.0283181
-0.034599
-0.0234998
0.0333814
2.61203
2.81767
0.781485
0.728894
19.197
254.638
347.747
339.924
209.334
250.828
341.187
341.963
310.538
249.836
244.112
317.666
337.012
276.428
59.3188
137.138
265.287
277.967
258.306
276.787
0.317875
0.292271
0.431355
0.458969
0.450186
0.424418
0.443399
0.720716
0.713296
0.590301
0.0809737
0.0588642
0.0509759
0.0435171
0.0631974
0.0985273
2.50072
3.22097
0.713639
0.308619
0.429621
113.417
342.343
369.956
372.13
370.305
367.423
362.711
357.745
349.265
347.608
346.57
351.918
107.632
0.496547
1.25347
7.14038
0.560381
3.55762
14.1827
0.413755
0.40689
0.324869
0.118142
0.0800655
0.302215
0.531683
0.611746
0.73525
0.739974
0.726721
0.581202
0.731656
0.628098
0.146299
0.129511
0.650072
3.17123
0.696021
0.182974
0.144089
0.128587
14.4953
251.41
379.049
382.964
384.283
383.795
380.768
377.723
375.527
363.06
198.549
30.3171
0.232673
0.553654
0.615693
0.651937
0.796543
1.10792
0.0548421
0.048629
0.0410492
0.0387975
0.0383093
0.0469956
0.0909174
0.39134
0.295462
0.286787
0.388606
0.755314
0.751297
0.749846
0.692804
0.1091
0.0820055
1.15969
0.59205
0.0254875
-0.0111018
-0.0455359
-0.139756
-0.410601
-0.0903505
86.8722
229.863
295.787
310.886
258.051
174.426
79.0095
8.55735
0.0184318
0.0382987
0.220082
0.60713
0.603646
0.452102
0.399926
0.591201
0.193394
0.0794374
0.0194068
0.0205358
0.0316461
0.0488674
0.050917
0.0398753
0.0189444
0.00162116
0.107316
0.735223
0.738902
0.739662
0.183296
0.0112194
-0.0299796
0.154342
-0.0718913
-0.113665
-0.144901
-0.188983
-0.228349
-0.262761
-0.342594
-0.397333
-0.408015
-0.383702
-0.340728
-0.296154
-0.267902
-0.222609
-0.17066
-0.0644166
0.0197614
0.0636531
0.0823581
0.0878133
0.090569
1.12629
1.13969
0.626149
0.204175
0.383168
1.11568
1.18247
0.494482
-0.00164978
-0.0198459
-0.038996
-0.0558515
-0.000895947
0.639715
0.726763
0.562848
-0.0499268
-0.105522
-0.122606
-0.126338
-0.154846
-0.1854
-0.254787
-0.315612
-0.38516
-0.460382
-0.476536
-0.462787
-0.436628
-0.399332
-0.36323
-0.314967
-0.246704
-0.179423
-0.10649
-0.0432178
0.00694573
0.0461421
0.0692938
0.102269
-0.0748838
0.703469
0.274805
0.428948
1.62525
1.63197
1.64026
1.64311
0.951758
-0.0738105
-0.102115
-0.113572
-0.118589
-0.0976797
0.64813
0.641071
0.0109376
-0.171766
-0.188407
-0.21198
-0.248483
-0.302096
-0.360589
-0.440344
-0.493888
-0.513761
-0.515005
-0.495763
-0.471703
-0.449164
-0.410842
-0.370971
-0.315559
-0.250885
-0.187958
-0.114273
-0.0230864
0.199017
0.0575726
0.0834457
-0.235701
-0.228896
-0.226671
-0.218812
-0.194148
-0.201155
0.967291
1.62679
1.59783
0.476422
-0.18125
-0.174397
-0.167646
-0.166859
0.26396
0.60413
0.19781
-0.235807
-0.264052
-0.304208
-0.356076
-0.430815
-0.492071
-0.567261
-0.620729
-0.649702
-0.621738
-0.580996
-0.532191
-0.496118
-0.466695
-0.42917
-0.365089
0.164148
1.34742
1.37904
1.23901
0.618315
0.161433
0.0707535
-0.242768
-0.228848
-0.225497
-0.220736
-0.223496
-0.222798
-0.224123
0.958501
0.821898
-0.0843626
-0.215714
-0.20769
-0.200727
-0.19861
-0.163028
0.559108
0.552683
-0.194828
-0.328882
-0.373543
-0.429723
-0.505611
-0.578099
-0.636161
-0.705194
-0.725199
-0.710566
-0.668335
-0.6078
-0.547775
-0.498807
-0.43467
0.2904
5.05349
9.42004
9.39337
5.11417
0.651477
0.435387
0.164859
-0.212699
-0.190104
-0.198569
-0.232398
-0.232273
-0.232465
-0.233364
-0.103133
0.744339
0.0229912
-0.210788
-0.207947
-0.206064
-0.207605
-0.21226
0.364631
0.568219
0.015623
-0.350137
-0.391362
-0.441183
-0.505865
-0.579773
-0.638495
-0.69175
-0.711143
-0.702108
-0.66592
-0.610739
-0.556516
-0.516969
-0.480965
5.46317
9.44188
9.63609
9.7356
8.05864
0.48719
0.314879
0.265007
-0.207335
-0.187436
-0.184709
-0.214213
-0.235971
-0.23451
-0.160784
0.246925
0.626357
0.338735
-0.111943
-0.195278
-0.195357
-0.199396
-0.208406
0.00353635
0.634432
0.292587
-0.319987
-0.366193
-0.400533
-0.443294
-0.492338
-0.541406
-0.580636
-0.60118
-0.603944
-0.584109
-0.543289
-0.509573
-0.490217
2.99564
9.62975
9.81803
9.97607
10.1181
5.79864
0.189779
0.1824
0.3282
-0.234222
-0.181132
-0.174542
-0.177359
-0.223073
-0.220532
-0.162186
0.0955162
0.246702
0.387298
0.29414
-0.131647
-0.174923
-0.178575
-0.187538
-0.196122
0.71502
0.461726
-0.2469
-0.315431
-0.33486
-0.358773
-0.385182
-0.413965
-0.440345
-0.459065
-0.466057
-0.457603
-0.444565
-0.429421
0.907884
9.90264
10.1236
10.2647
10.3922
7.64987
0.517949
0.214492
0.218552
0.346252
-0.229727
-0.206354
-0.157885
-0.151151
-0.172409
-0.195815
-0.18997
-0.171448
0.00777892
0.0329439
0.106867
0.0795346
-0.131572
-0.152102
-0.156526
-0.0889226
0.782593
0.778138
-0.0902833
-0.257652
-0.265088
-0.275328
-0.286232
-0.296697
-0.308318
-0.302371
-0.322896
-0.325577
-0.32842
1.99681
10.34
10.4973
10.6129
10.7082
5.27419
0.226766
0.23247
0.237082
0.237718
0.389412
-0.209919
-0.192861
-0.169586
-0.125488
-0.119435
-0.147187
-0.159039
-0.157538
-0.154835
-0.142183
-0.103756
0.065275
0.460342
0.262053
0.150729
0.730786
0.841529
0.826367
0.0447653
-0.198949
-0.203948
-0.207788
-0.20999
-0.211013
-0.196723
-0.191102
-0.202565
-0.213934
0.979077
10.5424
10.8152
10.9019
10.9721
2.52338
0.241547
0.243819
0.243802
0.295214
0.264836
0.425663
-0.0458769
-0.127256
-0.141565
-0.135476
-0.0975934
-0.0900689
-0.0894608
-0.113459
-0.127034
-0.126461
-0.11012
-0.12439
0.468327
0.894247
0.908503
0.910023
0.907937
0.83515
-0.0140569
-0.151462
-0.157335
-0.161586
-0.162273
-0.143596
-0.130117
-0.131926
-0.141895
-0.141949
6.97345
11.1491
11.2106
11.2989
3.78144
0.268146
0.258535
0.254316
0.252697
0.472327
0.477323
0.439008
0.14663
0.128147
-0.0730282
-0.11265
-0.111074
-0.073078
-0.0610398
-0.0580488
-0.0628595
-0.0978888
-0.0983842
-0.0958967
-0.0697271
0.819918
0.983676
0.984663
0.982862
0.968225
0.00560958
-0.111659
-0.119851
-0.126384
-0.113941
-0.103625
-0.0958729
-0.0992121
-0.0953801
-0.0865233
10.2491
11.583
11.6635
8.79363
0.600934
0.289965
0.283222
0.265439
0.255178
0.471988
0.510596
0.44183
0.183138
0.187423
0.175084
-0.0562448
-0.088957
-0.0849746
-0.0584058
-0.0506372
-0.044307
-0.0326178
-0.0476664
-0.0630599
-0.0574958
0.018934
0.896072
1.06117
1.06481
1.0588
0.414841
-0.0622605
-0.0751056
-0.0848365
-0.0851313
-0.0763647
-0.0859008
-0.0816775
-0.0615252
-0.0453533
2.78435
12.1402
4.85357
0.209422
0.220651
0.270927
0.287089
0.294632
0.258073
0.286137
0.520118
0.467958
0.21358
0.21882
0.222848
0.0129059
-0.0637871
-0.0569655
-0.0592421
-0.056767
-0.0529597
-0.0206152
-0.00854759
-0.00295186
-0.0145545
-0.00578097
0.0738378
0.632215
1.14468
1.1478
1.13455
0.106354
-0.0273463
-0.0375925
-0.0465081
-0.0531884
-0.0545526
-0.0395307
-0.015424
0.0312435
0.0413623
0.0706072
0.289363
0.198612
0.174744
0.199233
0.234789
0.293122
0.26527
0.27269
0.431099
0.50055
0.24795
0.254123
0.162184
0.000189762
-0.0382978
-0.0337122
-0.0338856
-0.0283027
-0.0242709
-0.0184605
-0.0125215
0.0150026
0.025329
0.0329612
0.030699
0.0407486
0.319524
0.824562
0.953862
0.374495
0.0586389
0.00912176
0.00273304
0.0322493
0.0392099
0.0120779
0.0276461
0.0447581
0.0706674
0.110574
0.15191
0.201047
0.205682
0.203864
0.222876
0.271513
0.274853
0.288908
0.325966
0.495098
0.166944
0.247755
-0.0229182
-0.0166194
-0.0106953
-0.0103775
-0.00785553
-0.003807
0.000682431
0.00559424
0.0110451
0.017379
0.0252648
0.0315561
0.0403967
0.0492307
0.0528144
0.0630508
0.0807284
0.145557
0.151444
0.153197
0.152417
0.172163
0.18087
0.191587
0.20426
0.202645
0.132823
0.138836
0.163303
0.183182
0.22081
0.230104
0.245403
0.286329
0.297938
0.311279
0.332005
0.43695
0.00149843
0.014456
0.00951149
0.0126679
0.0182306
0.0181576
0.0177044
0.0193734
0.0217316
0.0337159
0.0439424
0.0477201
0.0425889
0.0401388
0.0423192
0.0535997
0.0573686
0.0570441
0.0559361
0.0556382
0.0699414
0.111879
0.109341
0.18149
0.213237
0.226724
0.241841
0.258644
0.278494
0.265568
0.18488
0.201196
0.222078
0.244333
0.263847
0.286027
0.311232
0.329129
0.364654
0.384505
0.0378368
0.039077
0.0441082
0.0439615
0.046214
0.0432229
0.0442034
0.0444283
0.0526695
0.0917003
0.0918516
0.0913295
0.0894384
0.0563188
0.0921109
0.100068
0.100392
0.0966113
0.0520798
0.0533034
0.0570707
0.0605387
0.0671762
0.0811054
0.0937122
0.226127
0.256897
0.276507
0.296936
0.318699
0.215909
0.214257
0.234652
0.255043
0.275818
0.29599
0.319484
0.343921
0.386045
0.390949
0.0768767
0.0768923
0.0801056
0.0747214
0.0732403
0.0719663
0.0772169
0.119853
0.127313
0.0857809
0.087667
0.0827547
0.0776111
0.0715575
0.0572216
0.0919987
0.0938224
0.0941829
0.096948
0.0980777
0.0580425
0.0584041
0.0682199
0.0791818
0.0905712
0.120671
0.260836
0.278061
0.282421
0.205906
0.196199
0.217429
0.238246
0.258023
0.27623
0.295882
0.344054
0.339072
0.352914
0.927269
0.110222
0.110905
0.113747
0.107002
0.104527
0.101773
0.115353
0.21476
0.144477
0.0819369
0.0717839
0.0602669
0.0467691
0.0338836
0.025092
0.0203968
0.0239564
0.0226537
0.0731365
0.0918654
0.0959359
0.0595568
0.0694161
0.0810238
0.0997224
0.119488
0.153884
0.170292
0.159304
0.172457
0.191843
0.220106
0.233893
0.246769
0.2647
0.314345
0.334445
0.327957
0.351238
1.22585
0.140648
0.141876
0.146348
0.139881
0.137227
0.133004
0.144437
0.266463
0.193648
0.100743
0.0871219
0.0698364
0.0500211
0.0309978
0.0190202
0.0130738
0.0103356
0.0118163
0.025578
0.0690669
0.0641863
0.0580335
0.0720606
0.0883828
0.101918
0.110848
0.124695
0.139689
0.155146
0.178053
0.24619
0.261927
0.229274
0.237389
0.28208
0.305144
0.307285
0.315151
0.419725
1.157
0.176332
0.178652
0.178483
0.177294
0.17276
0.168027
0.161831
0.308102
0.781786
0.360295
0.103669
0.0866061
0.0684373
0.0507967
0.0390761
0.0279298
0.0215949
0.0212194
0.0258369
0.0343044
0.0467842
0.065151
0.0992281
0.0954046
0.106672
0.120117
0.139531
0.165912
0.200095
0.234961
0.249165
0.241379
0.223062
0.259059
0.281149
0.280491
0.296181
0.315847
0.742245
0.76155
0.224674
0.222277
0.219977
0.216592
0.211619
0.207575
0.202586
0.204894
2.04178
3.58454
0.119817
0.11389
0.101895
0.086496
0.092741
0.110159
0.0733093
0.0541302
0.0591669
0.106713
0.145444
0.165821
0.17919
0.180497
0.169634
0.179051
0.210097
0.222377
0.233812
0.24505
0.219536
0.209439
0.229243
0.266592
0.271879
0.287646
0.303793
0.412751
0.852411
0.920404
0.26855
0.264526
0.260504
0.256084
0.252075
0.248861
0.246795
0.331851
3.15793
4.45234
2.01229
0.153829
0.1448
0.130395
0.148456
0.192237
0.181754
0.176634
0.175922
0.178115
0.184852
0.193758
0.203878
0.21551
0.227411
0.238887
0.225538
0.222961
0.214416
0.206418
0.206657
0.220199
0.23868
0.259709
0.310776
0.361416
0.403099
0.429619
1.17975
5.00309
0.307175
0.304523
0.300643
0.295707
0.290926
0.286852
0.284375
0.698034
4.32479
4.51367
3.84141
0.205878
0.19533
0.17991
0.166163
0.188393
0.193449
0.133503
0.131909
0.190785
0.220678
0.20805
0.180995
0.18944
0.189889
0.187721
0.191663
0.206544
0.224543
0.214079
0.226353
0.239513
0.253626
0.277515
0.329756
0.349316
0.381466
1.01509
5.13258
5.22942
0.351577
0.347901
0.342591
0.335822
0.32921
0.323493
0.318979
1.12653
4.62314
4.60212
4.54338
0.660053
0.241129
0.227307
0.213757
0.200726
0.189018
0.18003
0.174638
0.173508
0.174657
0.174947
0.17811
0.184021
0.191278
0.201207
0.222134
0.239787
0.248737
0.243351
0.254008
0.264301
0.285898
0.309372
0.327534
0.341148
0.392943
4.4125
5.25905
5.27282
0.403938
0.39467
0.385651
0.375719
0.366086
0.357866
0.350044
0.39087
3.28456
4.7343
4.68295
1.30762
0.275468
0.265072
0.256508
0.245139
0.233855
0.224846
0.218513
0.214443
0.213761
0.216551
0.219822
0.221132
0.226538