/*--------------------------------*- C++ -*----------------------------------*\
  =========                 |
  \\      /  F ield         | OpenFOAM: The Open Source CFD Toolbox
   \\    /   O peration     | Website:  https://openfoam.org
    \\  /    A nd           | Version:  8
     \\/     M anipulation  |
\*---------------------------------------------------------------------------*/
FoamFile
{
    version     2.0;
    format      ascii;
    class       surfaceScalarField;
    location    "1.15";
    object      phi;
}
// * * * * * * * * * * * * * * * * * * * * * * * * * * * * * * * * * * * * * //

dimensions      [0 3 -1 0 0 0 0];

internalField   nonuniform List<scalar> 
18095
(
1.9358e-08
-1.71954e-07
1.52596e-07
2.3038e-08
-1.98402e-07
1.94722e-07
1.95686e-08
-2.05528e-07
2.08997e-07
9.93412e-09
-2.10092e-07
2.19727e-07
-1.02514e-09
-2.13239e-07
2.24198e-07
-1.09327e-08
-2.13538e-07
2.23445e-07
-1.94969e-08
-2.11148e-07
2.19712e-07
-2.30571e-08
-2.05821e-07
2.09381e-07
-1.93961e-08
-1.98324e-07
1.94663e-07
-1.71954e-07
1.52558e-07
1.55149e-08
-1.87469e-07
1.56189e-08
-1.98506e-07
1.25139e-08
-2.02423e-07
7.66212e-09
-2.0524e-07
1.24645e-09
-2.06823e-07
-5.59077e-09
-2.067e-07
-1.19131e-08
-2.04826e-07
-1.56609e-08
-2.02073e-07
-1.55218e-08
-1.98463e-07
-1.87476e-07
6.86025e-09
-1.94329e-07
8.2063e-09
-1.99852e-07
6.57435e-09
-2.00791e-07
3.27499e-09
-2.01941e-07
-4.70633e-10
-2.03078e-07
-4.41711e-09
-2.02754e-07
-7.35719e-09
-2.01886e-07
-8.28162e-09
-2.01149e-07
-6.85982e-09
-1.99885e-07
-1.94336e-07
4.57612e-09
-1.98905e-07
4.68182e-09
-1.99958e-07
3.97447e-09
-2.00083e-07
2.38889e-09
-2.00355e-07
-6.16685e-12
-2.00683e-07
-2.09951e-09
-2.00661e-07
-3.54968e-09
-2.00436e-07
-4.60199e-09
-2.00097e-07
-4.5639e-09
-1.99923e-07
-1.989e-07
1.09505e-09
1.13699e-09
1.05373e-09
6.98374e-10
1.55821e-11
-6.45089e-10
-1.08079e-09
-1.17756e-09
-1.10029e-09
-2.50527e-08
-1.97315e-07
2.22368e-07
-2.76689e-08
-1.98438e-07
2.01055e-07
-2.31598e-08
-2.01689e-07
1.9718e-07
-1.21073e-08
-2.01009e-07
1.89957e-07
8.14688e-10
-2.01501e-07
1.88579e-07
1.35419e-08
-2.01697e-07
1.8897e-07
2.34856e-08
-2.00526e-07
1.90583e-07
2.77774e-08
-2.01557e-07
1.97266e-07
2.50896e-08
-1.98733e-07
2.01421e-07
-1.97533e-07
2.22622e-07
-1.00707e-08
-1.87244e-07
-1.53272e-08
-1.93182e-07
-1.45007e-08
-2.02516e-07
-7.14245e-09
-2.08368e-07
-1.28954e-11
-2.08631e-07
7.12423e-09
-2.08834e-07
1.48618e-08
-2.08264e-07
1.56973e-08
-2.02393e-07
1.02456e-08
-1.93281e-07
-1.87287e-07
-1.0854e-08
-1.7639e-07
-8.48249e-09
-1.95553e-07
-5.69115e-09
-2.05307e-07
-4.11635e-09
-2.09942e-07
-3.81406e-10
-2.12366e-07
3.47486e-09
-2.1269e-07
5.87853e-09
-2.10668e-07
8.9481e-09
-2.05462e-07
1.11067e-08
-1.9544e-07
-1.76181e-07
-7.07823e-09
-1.69312e-07
-9.24024e-09
-1.93391e-07
-8.70122e-09
-2.05846e-07
-3.08828e-09
-2.15555e-07
1.53178e-09
-2.16986e-07
5.31982e-09
-2.16478e-07
9.61775e-09
-2.14966e-07
9.73018e-09
-2.05575e-07
7.24494e-09
-1.92955e-07
-1.68936e-07
-1.67163e-08
-1.53854e-08
-1.22348e-08
-8.06345e-09
-8.51064e-10
6.11589e-09
1.08627e-08
1.46694e-08
1.63776e-08
3.22921e-08
-1.56962e-07
1.2467e-07
3.64382e-08
-1.99073e-07
1.94927e-07
2.80616e-08
-2.10989e-07
2.19366e-07
1.71673e-08
-2.16715e-07
2.2761e-07
3.99291e-09
-2.17766e-07
2.30941e-07
-1.1664e-08
-2.18059e-07
2.33716e-07
-2.63235e-08
-2.15362e-07
2.30022e-07
-3.63644e-08
-2.09629e-07
2.1967e-07
-3.17671e-08
-1.98479e-07
1.93882e-07
-1.56964e-07
1.25197e-07
1.65937e-08
-1.73556e-07
1.88275e-08
-2.01307e-07
1.45666e-08
-2.06729e-07
6.42212e-09
-2.08571e-07
-2.45279e-09
-2.08891e-07
-1.15071e-08
-2.09005e-07
-1.72798e-08
-2.0959e-07
-1.96946e-08
-2.07214e-07
-1.67306e-08
-2.01443e-07
-1.73695e-07
1.09078e-08
-1.84464e-07
1.03727e-08
-2.00772e-07
8.90484e-09
-2.05261e-07
5.45491e-09
-2.05121e-07
1.39421e-09
-2.04831e-07
-3.07259e-09
-2.04538e-07
-8.20159e-09
-2.04461e-07
-1.02092e-08
-2.05206e-07
-1.08154e-08
-2.00837e-07
-1.8451e-07
7.91672e-09
-1.92381e-07
6.49327e-09
-1.99349e-07
6.19336e-09
-2.04961e-07
3.48211e-10
-1.99276e-07
-1.73062e-09
-2.02752e-07
-3.4139e-09
-2.02854e-07
-7.42103e-09
-2.00454e-07
-7.14252e-09
-2.05485e-07
-8.20073e-09
-1.99779e-07
-1.92711e-07
2.9987e-08
3.1693e-08
2.39125e-08
1.45937e-08
4.21175e-10
-1.34636e-08
-2.33346e-08
-3.15538e-08
-2.99117e-08
-1.94436e-06
1.34122e-07
1.81024e-06
-2.11534e-06
1.70977e-07
-2.30321e-06
1.87869e-07
-2.21604e-06
-8.71691e-08
-1.95193e-06
-2.64108e-07
-1.57261e-06
-3.79321e-07
-1.03925e-06
-5.33358e-07
-4.59076e-07
-5.80177e-07
8.50162e-08
-5.44092e-07
-4.50166e-07
5.35182e-07
-1.48523e-06
3.06197e-07
1.31315e-06
-1.66194e-06
3.47692e-07
-1.70457e-06
2.30501e-07
-1.67306e-06
-1.18681e-07
-1.33964e-06
-5.97534e-07
-8.98547e-07
-8.2041e-07
-1.56562e-07
-1.27534e-06
3.81894e-07
-1.11863e-06
7.18881e-07
-8.81079e-07
-6.78453e-07
9.47168e-07
-4.09516e-07
3.05906e-07
4.09807e-07
-3.75862e-07
3.14039e-07
-3.68087e-07
2.22727e-07
-4.46112e-07
-4.06576e-08
-2.67213e-07
-7.76433e-07
2.98966e-08
-1.11752e-06
4.8066e-07
-1.72611e-06
9.75823e-07
-1.6138e-06
1.32532e-06
-1.23057e-06
-7.86695e-07
1.43356e-06
3.72725e-07
3.58655e-07
-4.25475e-07
4.37256e-07
2.49507e-07
4.47702e-07
2.12282e-07
2.14584e-07
1.92461e-07
1.96886e-07
-7.58736e-07
3.19852e-07
-1.24049e-06
6.28804e-07
-2.03506e-06
8.97781e-07
-1.88277e-06
1.07104e-06
-1.40384e-06
-7.27017e-07
1.01137e-06
5.60359e-07
4.9426e-07
-6.95964e-07
4.79348e-07
3.30517e-07
3.48006e-07
3.43623e-07
1.30116e-07
4.10351e-07
1.15801e-07
-7.44421e-07
4.71099e-07
-1.59578e-06
8.44609e-07
-2.40857e-06
9.66e-07
-2.00417e-06
6.75574e-07
-1.11341e-06
-3.00398e-07
2.48956e-07
6.24873e-07
5.51415e-07
-6.82028e-07
5.82669e-07
3.72721e-07
4.21773e-07
5.04518e-07
3.79523e-07
4.52602e-07
2.5203e-07
-6.16929e-07
5.34596e-07
-1.87835e-06
6.8724e-07
-2.56121e-06
3.58481e-07
-1.67541e-06
-1.35206e-07
-6.19723e-07
-1.37428e-07
-2.98177e-07
4.54892e-07
5.95021e-07
-4.98498e-07
3.10524e-07
5.17089e-07
1.68528e-07
6.46514e-07
3.32466e-07
2.88664e-07
2.27581e-07
-5.12044e-07
2.9782e-07
-1.94859e-06
1.0063e-07
-2.36402e-06
-3.76518e-07
-1.19826e-06
-4.9126e-07
-5.04981e-07
-2.64913e-07
-3.63775e-07
3.33756e-07
5.17232e-07
-2.55967e-07
2.72805e-07
5.78041e-07
2.4924e-07
6.70078e-07
3.83644e-07
1.5426e-07
3.67367e-07
-4.95768e-07
2.13279e-07
-1.7945e-06
-1.55101e-07
-1.99564e-06
-4.11821e-07
-9.41542e-07
-4.76741e-07
-4.40061e-07
-2.77033e-07
-4.64621e-07
-6.90787e-08
4.12235e-07
1.74074e-07
1.07116e-08
4.98252e-07
1.63467e-07
5.17322e-07
2.61075e-07
5.6653e-08
2.33105e-07
-4.67797e-07
2.68893e-08
-1.58828e-06
-2.33833e-07
-1.73492e-06
-4.15841e-07
-7.59534e-07
-4.80072e-07
-3.7583e-07
-2.71197e-07
-4.85908e-07
-4.59684e-07
3.3104e-07
5.40881e-07
-3.74044e-07
4.12613e-07
-1.12807e-07
2.56084e-07
4.00747e-08
-9.62278e-08
9.96881e-08
-5.27411e-07
-3.55191e-08
-1.45308e-06
-2.87852e-07
-1.48259e-06
-3.62922e-07
-6.84464e-07
-3.89953e-07
-3.48799e-07
-2.6498e-07
-3.9617e-07
-5.08162e-07
3.71113e-07
4.68088e-07
-3.20623e-07
2.25073e-07
-1.42704e-07
7.81656e-08
-1.23946e-07
-1.14986e-07
3.33747e-08
-6.84731e-07
-9.01456e-08
-1.32956e-06
-2.87105e-07
-1.28563e-06
-2.45226e-07
-7.26343e-07
-2.66143e-07
-3.27882e-07
-2.33829e-07
-2.97294e-07
-6.65147e-07
4.17815e-07
6.18445e-07
-5.34471e-07
9.43968e-08
-4.70172e-07
1.38662e-08
-4.95384e-07
-8.97731e-08
-1.96619e-07
-9.83497e-07
-2.11188e-07
-1.31499e-06
-2.78303e-07
-1.21851e-06
-1.00018e-07
-9.04628e-07
-7.59516e-08
-3.51949e-07
-1.638e-07
-1.4598e-07
-3.73705e-07
3.38074e-07
4.53447e-07
-3.5784e-07
7.85309e-08
-4.81219e-07
1.37246e-07
-4.07329e-07
-1.63664e-07
-1.93875e-07
-1.19695e-06
-8.87828e-08
-1.42008e-06
3.3276e-08
-1.34057e-06
1.82167e-07
-1.05352e-06
2.36996e-07
-4.06778e-07
-6.99345e-08
1.43131e-07
-2.28069e-07
1.98453e-07
3.67689e-07
-3.0426e-07
1.54722e-07
-3.56911e-07
1.89898e-07
-2.30853e-07
-2.89722e-07
1.16082e-07
-1.54388e-06
3.49284e-07
-1.65328e-06
5.84795e-07
-1.57608e-06
4.70415e-07
-9.39138e-07
4.52346e-07
-3.8871e-07
-1.57925e-08
3.98204e-07
-8.66002e-09
7.69888e-08
1.30125e-07
6.27035e-08
8.33581e-08
9.72684e-08
1.55332e-07
4.58075e-08
-2.38262e-07
2.71921e-07
-1.77e-06
4.43061e-07
-1.82442e-06
6.98738e-07
-1.83176e-06
6.92436e-07
-9.32836e-07
3.64589e-07
-6.08613e-08
3.89257e-09
3.44903e-07
-5.57568e-08
5.62463e-08
7.64993e-08
-7.32928e-08
1.00895e-07
-3.92183e-08
1.21258e-07
8.48745e-08
-3.62354e-07
1.26905e-07
-1.81203e-06
1.70449e-07
-1.86797e-06
1.93291e-07
-1.8546e-06
5.33363e-07
-1.2729e-06
3.04216e-07
1.68281e-07
7.87593e-08
2.29349e-07
-1.0445e-07
7.14692e-08
8.92269e-08
-1.20037e-07
1.16481e-07
-1.28088e-07
1.29309e-07
1.03814e-08
-5.00823e-07
3.38227e-08
-1.83547e-06
4.34437e-08
-1.87759e-06
-6.95683e-08
-1.74159e-06
-3.14327e-07
-1.02815e-06
-8.45797e-08
-6.1465e-08
-1.49107e-07
1.43287e-07
-6.13327e-08
6.74529e-08
6.5349e-08
-1.87678e-09
5.70254e-08
4.89323e-08
7.84993e-08
1.71582e-08
-4.69048e-07
-2.06992e-09
-1.81624e-06
-3.01606e-08
-1.8495e-06
-8.92878e-08
-1.68246e-06
-1.92199e-07
-9.25239e-07
1.41927e-07
-3.95583e-07
-1.2763e-07
1.20442e-07
2.47729e-09
-2.31764e-08
8.81519e-08
3.14788e-07
-2.55284e-07
3.90801e-07
2.48688e-09
8.25525e-08
-1.60801e-07
2.55073e-08
-1.7592e-06
2.39758e-09
-1.82639e-06
-9.89063e-09
-1.67017e-06
-3.92185e-07
-5.42943e-07
-5.71768e-07
-2.16002e-07
-2.29782e-07
-4.69618e-07
-1.10645e-07
-7.13035e-08
1.58772e-07
5.66821e-08
-4.22611e-07
2.02488e-07
-1.43318e-07
2.01259e-07
-1.59572e-07
1.05417e-07
-1.66336e-06
3.79987e-08
-1.75897e-06
4.42048e-08
-1.67638e-06
8.6315e-08
-5.85051e-07
2.68966e-07
-3.98655e-07
-3.64066e-07
4.03242e-07
2.88745e-08
6.15347e-08
-1.61713e-07
-6.12669e-08
-3.32471e-07
8.05127e-08
-2.85098e-07
3.29617e-07
-4.08675e-07
2.60803e-07
-1.59454e-06
1.51132e-07
-1.6493e-06
1.13159e-07
-1.63841e-06
8.18926e-08
-5.53787e-07
9.30335e-08
-4.09793e-07
-3.30298e-07
5.92639e-08
3.59794e-07
4.47467e-08
-3.43005e-07
2.20512e-07
-1.9319e-07
1.45489e-07
-2.10077e-07
1.70768e-07
-4.33954e-07
2.3062e-07
-1.6544e-06
2.24967e-07
-1.64365e-06
1.74265e-07
-1.58771e-06
1.05894e-07
-4.85418e-07
-1.10638e-08
-2.92834e-07
-2.31697e-07
-1.09661e-07
2.66394e-07
-9.83839e-08
-1.23265e-07
3.00319e-07
-2.27116e-07
2.95061e-08
6.07381e-08
1.27523e-07
-5.3197e-07
1.20429e-07
-1.6473e-06
1.19457e-07
-1.64267e-06
1.07664e-07
-1.57591e-06
6.25047e-08
-4.40259e-07
-1.38163e-09
-2.28942e-07
-1.42114e-07
-9.09671e-08
-7.15323e-07
1.07099e-07
5.09845e-07
-9.51588e-07
9.15478e-09
-8.35039e-07
-5.58049e-08
-2.03223e-08
-1.34669e-06
2.12299e-08
-1.68886e-06
3.74497e-08
-1.65889e-06
4.64599e-08
-1.58492e-06
4.08304e-08
-4.3463e-07
-5.31686e-09
-1.82797e-07
-5.03055e-08
-9.71254e-08
-6.24079e-07
1.83937e-08
7.12785e-07
-5.10135e-07
-1.04782e-07
-2.53336e-07
-3.12608e-07
-8.71538e-09
-1.59131e-06
-1.50853e-08
-1.68249e-06
-1.59614e-08
-1.65802e-06
-1.05309e-08
-1.59035e-06
6.25392e-09
-4.51416e-07
-5.66484e-10
-1.75974e-07
8.87507e-09
-5.97467e-08
-9.88665e-08
-1.25588e-07
2.42847e-07
-3.6223e-08
-1.67428e-07
-2.25719e-09
-3.46579e-07
1.57695e-08
-1.60934e-06
-3.03648e-09
-1.66368e-06
-7.71416e-09
-1.65334e-06
-1.18286e-08
-1.58624e-06
-1.17738e-09
-4.62066e-07
1.83617e-08
-1.95514e-07
-3.28452e-09
3.05186e-08
4.49347e-08
-1.57751e-07
-1.27712e-08
3.23429e-08
-1.54832e-07
2.93341e-08
-3.43576e-07
2.22781e-08
-1.60228e-06
6.63571e-09
-1.64804e-06
9.10681e-09
-1.65581e-06
2.7582e-09
-1.57989e-06
-1.57003e-08
-4.43608e-07
-2.6691e-08
-1.84523e-07
-3.59751e-08
6.00194e-09
3.24413e-08
-1.73834e-07
-1.63566e-08
-1.78417e-08
-1.04538e-07
-3.22692e-08
-3.29147e-07
-4.20407e-08
-1.59251e-06
-3.80537e-08
-1.65203e-06
-5.11329e-08
-1.64273e-06
-4.19497e-08
-1.58907e-06
-1.04249e-07
-3.8131e-07
-8.93526e-08
-1.9942e-07
-1.00054e-07
-2.52738e-08
6.41409e-09
-8.6919e-08
-9.33287e-08
-1.72908e-08
-8.08275e-08
5.61772e-10
-3.47e-07
-4.51296e-09
-1.58743e-06
-1.20147e-08
-1.64453e-06
-1.54026e-08
-1.63934e-06
-1.74145e-08
-1.58706e-06
-6.38211e-08
-3.34903e-07
-4.47498e-08
-2.18493e-07
-1.60764e-07
1.59579e-08
1.62833e-07
2.79081e-08
-2.7766e-07
8.10348e-08
9.67499e-10
2.4659e-08
-2.90632e-07
1.39786e-08
-1.57675e-06
1.91484e-09
-1.63246e-06
-4.15581e-09
-1.63327e-06
-9.18251e-09
-1.58203e-06
1.72404e-08
-3.61326e-07
8.69955e-11
-2.01341e-07
-1.71901e-07
1.12212e-08
2.52707e-07
2.20264e-07
-4.45064e-07
5.83958e-08
1.95285e-07
1.74409e-08
-2.49681e-07
7.82569e-09
-1.56714e-06
-3.006e-11
-1.62461e-06
-9.96065e-09
-1.62334e-06
-1.12261e-08
-1.58077e-06
1.76243e-07
-5.48795e-07
1.40268e-07
-1.65366e-07
-1.80748e-07
1.49115e-07
2.06315e-07
4.25133e-07
-4.11183e-07
-1.67962e-08
4.18405e-07
5.86683e-09
-2.7234e-07
3.88331e-09
-1.56516e-06
-4.24725e-09
-1.61648e-06
-9.94633e-09
-1.61764e-06
-1.49019e-08
-1.57581e-06
2.34615e-07
-7.98313e-07
4.10641e-07
-3.4139e-07
-2.0005e-07
4.29944e-07
2.78602e-08
6.36012e-07
-2.38739e-07
-1.08939e-07
5.55197e-07
-1.54644e-09
-3.79731e-07
-1.31484e-08
-1.55356e-06
-1.70697e-08
-1.61256e-06
-2.71654e-08
-1.60755e-06
-3.14526e-08
-1.57153e-06
5.20148e-08
-8.81779e-07
1.78131e-07
-4.67505e-07
-3.26798e-07
3.0488e-07
-1.77837e-07
7.00333e-07
1.13515e-07
-7.97574e-08
4.57106e-07
4.85125e-08
-5.08002e-07
9.07086e-09
-1.51411e-06
-1.57674e-09
-1.60191e-06
-9.28049e-09
-1.59984e-06
-3.14069e-08
-1.5494e-06
-2.76071e-08
-8.85578e-07
-5.18916e-09
-4.89922e-07
-3.64124e-07
3.21382e-08
-4.18196e-07
5.64584e-07
5.53944e-07
-4.89467e-08
8.78562e-08
6.79106e-08
-6.24859e-07
1.73854e-08
-1.46359e-06
5.12913e-09
-1.58965e-06
-4.70183e-09
-1.59001e-06
-2.73289e-08
-1.52677e-06
-3.02898e-08
-8.82619e-07
-1.80152e-08
-5.02197e-07
-3.80634e-07
-1.50619e-09
-3.669e-07
2.42277e-07
6.89208e-07
-3.29698e-08
-2.46069e-07
3.97721e-08
-6.97599e-07
1.15604e-08
-1.43537e-06
-6.61212e-10
-1.57743e-06
-1.3394e-08
-1.57728e-06
-1.93955e-08
-1.52077e-06
-2.74718e-08
-8.74543e-07
-2.65001e-08
-5.0317e-07
-3.85259e-07
-2.18755e-08
-1.71381e-07
-6.73559e-08
4.81014e-07
-5.30025e-08
-3.64448e-07
1.52903e-08
-7.65893e-07
1.47762e-08
-1.43486e-06
-1.02315e-09
-1.56163e-06
-1.71151e-08
-1.56119e-06
-2.31912e-08
-1.51469e-06
-4.07445e-08
-8.56991e-07
-4.83052e-08
-4.9561e-07
-3.77338e-07
-5.62259e-08
-8.42896e-08
-1.9178e-07
2.08715e-07
-2.50728e-08
-4.23665e-07
1.40897e-08
-8.05051e-07
1.99113e-08
-1.44068e-06
-9.61196e-10
-1.54076e-06
-1.47932e-08
-1.54736e-06
-3.28535e-08
-1.49664e-06
-6.17044e-08
-8.2814e-07
-7.40119e-08
-4.83303e-07
-3.69452e-07
-8.18989e-08
-4.70789e-08
-2.502e-07
1.05497e-07
-8.10154e-09
-4.62641e-07
-8.16419e-09
-8.04986e-07
-2.76955e-08
-1.42115e-06
-3.75817e-08
-1.53087e-06
-6.30384e-08
-1.5219e-06
-5.69964e-08
-1.50268e-06
-8.1205e-08
-8.03933e-07
-9.42605e-08
-4.70249e-07
-3.66905e-07
-9.68085e-08
-3.8451e-08
-3.30822e-07
1.19076e-07
5.72853e-09
-5.06809e-07
2.02741e-08
-8.19534e-07
2.11917e-08
-1.42207e-06
1.3491e-09
-1.51103e-06
-1.13677e-08
-1.50918e-06
-4.43379e-08
-1.46971e-06
-7.66253e-08
-7.71645e-07
-8.05107e-08
-4.66364e-07
-3.66279e-07
-8.11372e-08
-4.52951e-08
-4.08445e-07
1.22923e-07
5.54309e-09
-5.5764e-07
1.97794e-08
-8.33769e-07
1.05078e-08
-1.41279e-06
-3.60993e-09
-1.49691e-06
-2.03677e-08
-1.49243e-06
-4.67201e-08
-1.44336e-06
-6.26125e-08
-7.55753e-07
-5.78479e-08
-4.71129e-07
-3.82896e-07
-4.12328e-08
-2.96515e-08
-4.74371e-07
9.55773e-08
1.32101e-08
-6.00513e-07
1.9754e-08
-8.40316e-07
1.96975e-08
-1.41274e-06
2.21161e-09
-1.47943e-06
-1.08377e-08
-1.47938e-06
-2.74748e-08
-1.42672e-06
-1.584e-08
-7.67389e-07
-1.99023e-08
-4.67068e-07
-3.95058e-07
-7.74108e-09
-2.80775e-09
-5.22051e-07
5.04848e-08
2.34657e-08
-6.26783e-07
2.02702e-08
-8.37114e-07
1.14406e-08
-1.4039e-06
-5.39685e-10
-1.46745e-06
-1.50658e-08
-1.46485e-06
-2.52657e-08
-1.41652e-06
-6.04308e-09
-7.8661e-07
2.67879e-09
-4.7579e-07
-3.92886e-07
5.06221e-10
3.59011e-08
-5.33638e-07
-2.43152e-08
3.91967e-08
-6.30092e-07
2.71749e-08
-8.25095e-07
1.17658e-08
-1.3885e-06
-2.12452e-09
-1.45356e-06
-1.61105e-08
-1.45086e-06
-3.04939e-08
-1.40214e-06
-3.17742e-08
-7.8533e-07
-1.69476e-08
-4.90617e-07
-3.92642e-07
-1.71911e-08
7.02643e-08
-5.28383e-07
-7.55184e-08
5.78111e-08
-6.17645e-07
3.19067e-08
-7.99193e-07
1.25827e-08
-1.36917e-06
-6.13245e-10
-1.44036e-06
-1.20249e-08
-1.43945e-06
-4.0182e-08
-1.37398e-06
-7.5076e-08
-7.50434e-07
-6.68629e-08
-4.9883e-07
-4.1166e-07
-4.78455e-08
8.1803e-08
-5.18856e-07
-9.13327e-08
7.21624e-08
-6.08006e-07
4.01233e-08
-7.67153e-07
1.36735e-08
-1.34273e-06
1.85435e-13
-1.42669e-06
-1.31768e-08
-1.42628e-06
-3.65563e-08
-1.3506e-06
-1.26141e-07
-6.6085e-07
-1.15239e-07
-5.09731e-07
-4.61165e-07
-6.57326e-08
5.84584e-08
-5.35277e-07
-4.20399e-08
6.42374e-08
-6.13782e-07
4.01088e-08
-7.43023e-07
1.17587e-08
-1.31438e-06
4.45349e-10
-1.41537e-06
-1.14396e-08
-1.41439e-06
-4.25951e-08
-1.31945e-06
-1.36595e-07
-5.66851e-07
-1.16755e-07
-5.29572e-07
-4.98783e-07
-7.91392e-08
2.19851e-08
-5.88189e-07
3.09283e-08
5.29255e-08
-6.4472e-07
4.10664e-08
-7.31165e-07
1.38727e-08
-1.28718e-06
-4.51364e-10
-1.40105e-06
-1.41992e-08
-1.40064e-06
-3.46488e-08
-1.299e-06
-1.04016e-07
-4.97483e-07
-8.33295e-08
-5.50258e-07
-5.24712e-07
-5.73996e-08
-1.03024e-08
-6.69831e-07
9.19463e-08
3.90824e-08
-6.94102e-07
3.58147e-08
-7.27895e-07
1.29987e-08
-1.26436e-06
-2.75443e-10
-1.38777e-06
-1.34661e-08
-1.38745e-06
-3.43525e-09
-1.30903e-06
5.91179e-09
-5.06828e-07
1.32125e-08
-5.57558e-07
-5.05069e-07
-6.43025e-09
-1.97224e-08
-7.60002e-07
1.09893e-07
2.37897e-08
-7.3762e-07
2.31507e-08
-7.2726e-07
1.45597e-08
-1.25578e-06
7.62428e-11
-1.37329e-06
-1.48672e-08
-1.37251e-06
-1.64332e-08
-1.30746e-06
1.18496e-09
-5.24443e-07
-8.89385e-10
-5.55483e-07
-4.67259e-07
-3.86988e-08
-4.01522e-08
-8.26022e-07
1.06172e-07
-1.63723e-08
-7.61398e-07
1.5939e-09
-7.45223e-07
1.39592e-08
-1.26814e-06
-3.15073e-10
-1.35901e-06
-1.37447e-08
-1.35908e-06
-2.16149e-08
-1.29959e-06
-5.22115e-08
-4.93843e-07
-9.61146e-08
-5.11579e-07
-4.36618e-07
-1.26755e-07
-8.35072e-08
-8.67562e-07
1.25047e-07
-7.06589e-08
-7.74248e-07
-1.64365e-08
-7.9945e-07
1.32965e-08
-1.29788e-06
4.01232e-10
-1.34612e-06
-1.27326e-08
-1.34594e-06
-4.5283e-09
-1.30779e-06
-1.00697e-08
-4.88301e-07
-1.08762e-07
-4.12885e-07
-4.12143e-07
-1.33236e-07
-1.00177e-07
-8.94537e-07
1.27153e-07
-6.78409e-08
-8.06576e-07
-5.20774e-09
-8.62073e-07
1.4134e-08
-1.31721e-06
-4.22335e-10
-1.33156e-06
-1.52508e-08
-1.33112e-06
4.28893e-09
-1.32733e-06
8.62117e-08
-5.70223e-07
1.46921e-08
-3.41365e-07
-3.31752e-07
-6.56987e-08
-1.01089e-07
-9.26535e-07
1.33086e-07
-3.57233e-08
-8.71957e-07
1.43942e-08
-9.12198e-07
1.29076e-08
-1.31572e-06
-7.51438e-10
-1.3179e-06
-1.35016e-08
-1.31837e-06
-1.8922e-08
-1.32191e-06
4.19146e-08
-6.31058e-07
1.36642e-08
-3.13114e-07
-2.59178e-07
-5.891e-08
-1.06955e-07
-9.63295e-07
1.43716e-07
-3.24552e-08
-9.46446e-07
2.21822e-08
-9.66829e-07
1.41298e-08
-1.30767e-06
3.41629e-10
-1.30412e-06
-1.43227e-08
-1.3037e-06
-2.812e-08
-1.30811e-06
-2.37286e-08
-6.3545e-07
-6.08244e-08
-2.76018e-07
-2.10944e-07
-1.09059e-07
-6.59147e-08
-9.95557e-07
9.81767e-08
-2.49761e-08
-9.87384e-07
2.29661e-08
-1.01477e-06
1.29271e-08
-1.29763e-06
-5.82053e-10
-1.29061e-06
-1.37829e-08
-1.2905e-06
-2.76406e-08
-1.29425e-06
-3.36478e-08
-6.29443e-07
-6.77073e-08
-2.4196e-07
-1.71433e-07
-1.07219e-07
-6.88873e-08
-1.01618e-06
8.95105e-08
-3.3591e-08
-1.02268e-06
2.28774e-08
-1.07124e-06
1.21126e-08
-1.28687e-06
-1.0771e-09
-1.27742e-06
-1.41919e-08
-1.27739e-06
-2.85811e-08
-1.27986e-06
-3.35195e-08
-6.24505e-07
-5.83819e-08
-2.17098e-07
-1.18928e-07
-1.10887e-07
-5.98814e-08
-1.04461e-06
8.83099e-08
-2.38537e-08
-1.05871e-06
2.78229e-08
-1.12292e-06
1.40016e-08
-1.27305e-06
2.90525e-09
-1.26632e-06
-1.30028e-08
-1.26148e-06
-2.78157e-08
-1.26505e-06
-3.12714e-08
-6.2105e-07
-5.14831e-08
-1.96887e-07
-6.02046e-08
-1.10206e-07
4.4921e-10
-1.07152e-06
2.64636e-08
2.38707e-08
-1.08213e-06
5.2798e-08
-1.15184e-06
3.87099e-08
-1.25896e-06
2.21329e-08
-1.24974e-06
1.18208e-08
-1.25117e-06
-2.65044e-09
-1.25058e-06
-2.08883e-08
-6.02812e-07
-8.31621e-08
-1.34614e-07
4.61286e-09
-1.4798e-07
5.05245e-08
-1.06315e-06
-5.88933e-08
5.04512e-08
-1.08205e-06
4.92822e-08
-1.15067e-06
3.36274e-08
-1.2433e-06
1.88495e-08
-1.23497e-06
3.21204e-09
-1.23553e-06
-1.25888e-08
-1.23478e-06
-2.34482e-08
-5.91951e-07
-8.75763e-08
-7.04864e-08
6.55642e-08
-1.48527e-07
9.1254e-08
-1.03078e-06
-1.23628e-07
6.93741e-08
-1.06017e-06
5.01861e-08
-1.13149e-06
3.49383e-08
-1.22806e-06
1.96361e-08
-1.21966e-06
4.24643e-09
-1.22014e-06
-1.09399e-08
-1.21959e-06
-1.35622e-08
-5.89329e-07
-4.56577e-08
-3.83917e-08
1.35255e-07
-1.1535e-07
1.19173e-07
-9.88222e-07
-1.61726e-07
7.62822e-08
-1.01728e-06
4.94148e-08
-1.10462e-06
3.64203e-08
-1.21506e-06
1.82637e-08
-1.20151e-06
4.28805e-09
-1.20616e-06
-9.3607e-09
-1.20595e-06
-1.67788e-08
-5.81912e-07
-2.27939e-08
-3.23784e-08
1.47948e-07
-3.54878e-08
1.42216e-07
-9.25053e-07
-2.05385e-07
7.70197e-08
-9.52082e-07
2.74904e-08
-1.05509e-06
1.35597e-08
-1.20113e-06
-1.4346e-09
-1.18651e-06
-2.19016e-08
-1.18569e-06
-3.33136e-08
-1.19453e-06
-4.39602e-08
-5.71266e-07
-4.90193e-08
-2.73207e-08
8.18087e-08
1.71187e-08
1.84721e-07
-8.42249e-07
-2.67525e-07
1.03289e-07
-8.7065e-07
3.63158e-08
-9.88113e-07
1.88587e-08
-1.18367e-06
8.83894e-10
-1.16854e-06
-1.59426e-08
-1.16887e-06
-3.18174e-08
-1.17866e-06
-2.98418e-08
-5.73243e-07
-8.31006e-09
-4.88535e-08
2.89115e-08
4.45858e-08
2.26257e-07
-7.49761e-07
-3.18745e-07
1.29407e-07
-7.73795e-07
3.93817e-08
-8.98085e-07
1.83124e-08
-1.1626e-06
-2.83095e-10
-1.14994e-06
-1.94403e-08
-1.14971e-06
-3.74854e-08
-1.16061e-06
-3.76783e-08
-5.7305e-07
-1.19217e-08
-7.4611e-08
2.57834e-08
-8.79542e-09
2.18554e-07
-6.52985e-07
-3.15327e-07
1.17201e-07
-6.72436e-07
3.40501e-08
-8.14933e-07
1.85246e-08
-1.14708e-06
-8.57254e-11
-1.13133e-06
-1.87094e-08
-1.13109e-06
-3.24238e-08
-1.1469e-06
-2.58303e-08
-5.79645e-07
-1.49408e-08
-8.55024e-08
5.05439e-08
-3.97033e-08
2.0733e-07
-5.56247e-07
-3.04066e-07
1.07564e-07
-5.72668e-07
3.45511e-08
-7.41921e-07
1.88475e-08
-1.13137e-06
3.61429e-10
-1.11285e-06
-1.83833e-08
-1.11234e-06
-3.31394e-08
-1.13214e-06
-3.70259e-08
-5.7576e-07
-5.81047e-08
-6.44257e-08
6.93135e-08
-7.68764e-08
1.78669e-07
-4.53189e-07
-2.81726e-07
8.57141e-08
-4.79717e-07
3.56891e-08
-6.91897e-07
1.79184e-08
-1.1136e-06
1.67422e-10
-1.0951e-06
-1.71785e-08
-1.095e-06
-3.37301e-08
-1.11559e-06
-2.69847e-08
-5.82507e-07
-4.68128e-08
-4.45986e-08
9.84425e-08
-7.59432e-08
1.65237e-07
-3.52621e-07
-2.65806e-07
7.53981e-08
-3.89885e-07
3.51986e-08
-6.517e-07
1.81977e-08
-1.0966e-06
3.28514e-10
-1.07723e-06
-1.77615e-08
-1.07691e-06
-3.55094e-08
-1.09784e-06
-6.27078e-08
-5.55309e-07
-1.05616e-07
-1.69066e-09
9.41543e-08
-1.01328e-07
1.53956e-07
-2.6879e-07
-2.3779e-07
7.42675e-08
-3.102e-07
3.5033e-08
-6.12466e-07
1.6928e-08
-1.0785e-06
-8.72865e-11
-1.06021e-06
-1.68289e-08
-1.06017e-06
-3.35141e-08
-1.08116e-06
-2.89775e-08
-5.59847e-07
-5.69158e-08
2.62478e-08
7.47258e-08
-3.74874e-08
1.51405e-07
-1.95619e-07
-2.24577e-07
7.81239e-08
-2.36918e-07
3.50059e-08
-5.69347e-07
1.70012e-08
-1.06049e-06
-1.95609e-10
-1.04301e-06
-1.7409e-08
-1.04295e-06
-3.48706e-08
-1.0637e-06
-3.10304e-08
-5.63687e-07
-6.41213e-08
5.93384e-08
6.64424e-08
-5.5838e-08
1.72321e-07
-1.12464e-07
-2.55475e-07
8.83451e-08
-1.52939e-07
3.47503e-08
-5.15751e-07
1.6671e-08
-1.04241e-06
-5.30211e-10
-1.02581e-06
-1.74843e-08
-1.026e-06
-3.52882e-08
-1.04589e-06
-3.54107e-08
-5.63564e-07
-7.94001e-08
1.03327e-07
7.71746e-08
-9.01328e-08
1.57105e-07
-3.86898e-08
-2.30878e-07
7.88574e-08
-7.46889e-08
3.61743e-08
-4.73068e-07
1.75519e-08
-1.02379e-06
-5.01182e-10
-1.00776e-06
-1.83417e-08
-1.00816e-06
-3.66337e-08
-1.0276e-06
-4.11092e-08
-5.59089e-07
-1.04773e-07
1.66989e-07
1.30056e-07
-1.57655e-07
2.28709e-07
5.16973e-08
-3.19096e-07
9.38596e-08
6.0161e-08
3.75662e-08
-4.16775e-07
1.84527e-08
-1.00468e-06
-2.70482e-10
-9.89037e-07
-1.9031e-08
-9.89397e-07
-3.71973e-08
-1.00943e-06
-4.26891e-08
-5.53598e-07
-1.43709e-07
2.68008e-07
2.12794e-07
-2.26449e-07
1.69358e-07
1.51362e-07
-2.69023e-07
5.25632e-08
1.76957e-07
3.71818e-08
-4.01391e-07
1.91038e-08
-9.86597e-07
-2.68626e-10
-9.69665e-07
-1.90619e-08
-9.70604e-07
-3.75076e-08
-9.90989e-07
-2.6024e-08
-5.65083e-07
-1.20915e-07
3.62899e-07
3.03303e-07
-2.11424e-07
1.23875e-07
2.42126e-07
-2.14639e-07
4.27704e-08
2.58064e-07
3.90613e-08
-3.97681e-07
2.06735e-08
-9.68209e-07
5.53372e-11
-9.49047e-07
-2.0721e-08
-9.49827e-07
-3.90683e-08
-9.72642e-07
1.59779e-09
-6.0575e-07
-2.23267e-08
3.86823e-07
4.28164e-07
-1.47188e-07
1.03732e-07
3.33223e-07
-1.94826e-07
3.72759e-08
3.24524e-07
3.96869e-08
-4.0009e-07
2.01492e-08
-9.48671e-07
-3.40831e-10
-9.28557e-07
-2.07549e-08
-9.29413e-07
-3.9752e-08
-9.53645e-07
-9.98567e-09
-6.35517e-07
-1.41205e-08
3.90959e-07
5.12501e-07
-9.84567e-08
6.97001e-08
4.29248e-07
-1.65724e-07
2.82695e-08
3.65955e-07
4.16536e-08
-4.13475e-07
2.22991e-08
-9.29318e-07
1.86395e-10
-9.06444e-07
-2.17812e-08
-9.07446e-07
-4.12544e-08
-9.34172e-07
-1.71079e-08
-6.59663e-07
-6.38618e-09
3.80237e-07
5.67703e-07
-6.15886e-08
7.60107e-08
5.08911e-07
-1.55673e-07
2.73023e-08
4.14661e-07
4.26824e-08
-4.28856e-07
2.19002e-08
-9.08536e-07
5.55917e-10
-8.851e-07
-2.06745e-08
-8.86215e-07
-4.16591e-08
-9.13187e-07
-2.0296e-08
-6.81026e-07
1.10431e-08
3.48898e-07
6.00827e-07
-2.20811e-08
1.09424e-07
6.06143e-07
-2.06657e-07
3.02104e-08
4.93869e-07
4.39107e-08
-4.42558e-07
2.27851e-08
-8.87411e-07
8.09704e-11
-8.62396e-07
-2.2396e-08
-8.63738e-07
-4.3613e-08
-8.9197e-07
-2.61565e-08
-6.98482e-07
4.26375e-08
2.80104e-07
6.05678e-07
3.77868e-08
9.20218e-08
7.14319e-07
-2.002e-07
2.07265e-08
5.65161e-07
4.35489e-08
-4.65382e-07
2.13387e-08
-8.65201e-07
2.7013e-10
-8.41327e-07
-2.09755e-08
-8.42492e-07
-4.37091e-08
-8.69237e-07
-3.43548e-08
-7.07837e-07
6.62668e-08
1.79483e-07
5.74373e-07
9.75728e-08
2.17372e-08
7.8772e-07
-9.514e-08
9.00831e-09
5.7789e-07
4.58587e-08
-5.02232e-07
2.36009e-08
-8.42942e-07
2.46066e-10
-8.17972e-07
-2.29828e-08
-8.19264e-07
-4.59495e-08
-8.4627e-07
-4.05487e-08
-7.13237e-07
5.68174e-08
8.21176e-08
5.04718e-07
1.26472e-07
-2.1438e-08
8.11823e-07
-2.6647e-09
1.61088e-08
5.40346e-07
4.54634e-08
-5.31586e-07
2.191e-08
-8.19389e-07
1.93503e-10
-7.96256e-07
-2.12986e-08
-7.97772e-07
-4.57058e-08
-8.21862e-07
-4.80894e-08
-7.10853e-07
8.02007e-09
2.60084e-08
4.0459e-07
1.08149e-07
-3.23764e-08
8.03014e-07
4.11865e-08
3.16953e-08
4.76278e-07
4.84502e-08
-5.4834e-07
2.47462e-08
-7.95684e-07
4.66098e-10
-7.71976e-07
-2.4351e-08
-7.72954e-07
-4.88399e-08
-7.97374e-07
-6.37949e-08
-6.95898e-07
-3.11623e-08
-6.62434e-09
3.09373e-07
6.40547e-08
-2.11581e-09
7.57208e-07
4.7923e-08
4.02495e-08
4.33913e-07
4.82471e-08
-5.56338e-07
2.30805e-08
-7.70518e-07
5.67585e-10
-7.49463e-07
-2.27564e-08
-7.49631e-07
-4.86027e-08
-7.71527e-07
-7.08303e-08
-6.7367e-07
-5.18209e-08
-2.56341e-08
2.47374e-07
1.01777e-08
5.42295e-08
6.78806e-07
2.41725e-08
6.32311e-08
4.24911e-07
5.2064e-08
-5.4517e-07
2.65542e-08
-7.45009e-07
4.96521e-10
-7.23405e-07
-2.62761e-08
-7.22858e-07
-5.21374e-08
-7.45666e-07
-7.43465e-08
-6.51461e-07
-6.71615e-08
-3.28195e-08
2.20475e-07
-4.02624e-08
6.31992e-08
6.0763e-07
7.97567e-09
6.46566e-08
4.2345e-07
5.17256e-08
-5.32242e-07
2.42913e-08
-7.17576e-07
2.63336e-10
-6.99377e-07
-2.3928e-08
-6.98667e-07
-5.15058e-08
-7.18088e-07
-7.30963e-08
-6.29871e-07
-6.29795e-08
-4.2937e-08
1.98451e-07
-4.09563e-08
4.38822e-08
5.25442e-07
3.83052e-08
7.44141e-08
3.92918e-07
5.64812e-08
-5.14308e-07
2.88019e-08
-6.89896e-07
2.22322e-10
-6.70798e-07
-2.83458e-08
-6.70098e-07
-5.61494e-08
-6.90285e-07
-8.22725e-08
-6.03749e-07
-6.91396e-08
-5.60704e-08
1.56894e-07
-2.75839e-08
-8.75532e-08
4.15256e-07
1.97739e-07
5.81039e-08
2.47255e-07
5.55219e-08
-5.11729e-07
2.61474e-08
-6.60522e-07
4.16706e-10
-6.45067e-07
-2.60826e-08
-6.43599e-07
-5.51578e-08
-6.61209e-07
-9.23079e-08
-5.66599e-07
-9.61419e-08
-5.22367e-08
1.03084e-07
-4.2332e-08
-9.44818e-08
2.77615e-07
2.32122e-07
6.16419e-08
9.11337e-08
6.11769e-08
-5.11263e-07
3.08575e-08
-6.30203e-07
3.52134e-10
-6.14562e-07
-3.04783e-08
-6.12769e-07
-6.09117e-08
-6.30776e-07
-8.81899e-08
-5.39321e-07
-7.55546e-08
-6.48716e-08
6.03888e-08
-3.28588e-08
-4.32322e-08
1.83658e-07
1.37189e-07
5.6825e-08
-8.927e-09
6.22866e-08
-5.16727e-07
2.80037e-08
-5.9592e-07
-1.13555e-10
-5.86444e-07
-2.70786e-08
-5.85804e-07
-6.15399e-08
-5.96315e-07
-7.32094e-08
-5.27651e-07
-3.34158e-08
-1.04664e-07
4.29358e-08
-1.5962e-08
-3.14864e-08
1.65085e-07
5.00592e-08
2.67158e-08
-6.71287e-08
6.37224e-08
-5.53733e-07
3.13939e-08
-5.63592e-07
-8.19403e-10
-5.54231e-07
-3.15333e-08
-5.5509e-07
-6.42465e-08
-5.63601e-07
-3.05631e-08
-5.61334e-07
1.77684e-08
-1.52995e-07
6.45169e-08
-3.81167e-09
2.67741e-08
1.52256e-07
-1.39465e-08
8.33849e-08
-1.2374e-07
6.37991e-08
-5.34147e-07
2.93341e-08
-5.29127e-07
2.85975e-10
-5.25183e-07
-2.95945e-08
-5.25209e-07
-6.35357e-08
-5.2966e-07
-9.15881e-08
-5.33282e-07
-5.22654e-08
-1.92317e-07
7.73129e-08
-6.50605e-08
6.79031e-08
1.43495e-07
-5.91423e-08
1.22814e-07
-1.7865e-07
7.48708e-08
-4.86203e-07
3.74251e-08
-4.91681e-07
-6.79244e-11
-4.8769e-07
-3.61523e-08
-4.89125e-07
-7.47985e-08
-4.91014e-07
-1.23973e-07
-4.84107e-07
-8.01976e-08
-2.36091e-07
6.57023e-08
-6.85858e-08
1.02415e-07
1.28834e-07
-8.77532e-08
1.23323e-07
-1.99556e-07
7.50785e-08
-4.37959e-07
3.34339e-08
-4.50036e-07
-3.03033e-09
-4.51226e-07
-3.89086e-08
-4.53247e-07
-7.98103e-08
-4.50112e-07
-1.26217e-07
-4.37701e-07
-1.2505e-07
-2.37257e-07
3.81508e-08
-9.74978e-08
1.19806e-07
8.95112e-08
-8.04814e-08
1.42625e-07
-2.22374e-07
9.24097e-08
-3.87744e-07
4.55377e-08
-4.03164e-07
8.93867e-10
-4.06582e-07
-4.78459e-08
-4.04507e-07
-9.18274e-08
-4.06131e-07
-1.40985e-07
-3.88543e-07
-1.40753e-07
-2.37488e-07
-4.59193e-09
-9.80096e-08
5.46723e-08
1.63681e-08
1.84709e-08
1.31635e-07
-2.99339e-07
8.72353e-08
-3.43345e-07
4.38592e-08
-3.59788e-07
3.62331e-09
-3.66346e-07
-3.56642e-08
-3.65219e-07
-8.45029e-08
-3.57292e-07
-1.29264e-07
-3.43783e-07
-6.89914e-08
-2.9776e-07
-5.48163e-08
-1.87662e-08
1.6578e-07
-7.23878e-08
-7.70246e-08
1.41875e-07
-2.75436e-07
9.6667e-08
-2.98136e-07
4.82114e-08
-3.11333e-07