/*--------------------------------*- C++ -*----------------------------------*\
  =========                 |
  \\      /  F ield         | OpenFOAM: The Open Source CFD Toolbox
   \\    /   O peration     | Website:  https://openfoam.org
    \\  /    A nd           | Version:  8
     \\/     M anipulation  |
\*---------------------------------------------------------------------------*/
FoamFile
{
    version     2.0;
    format      ascii;
    class       volScalarField;
    location    "4.25";
    object      alpha.water;
}
// * * * * * * * * * * * * * * * * * * * * * * * * * * * * * * * * * * * * * //

dimensions      [0 0 0 0 0 0 0];

internalField   nonuniform List<scalar> 
9150
(
1
1
1
1
1
1
1
1
1
1
1
1
1
1
1
1
1
1
1
1
1
1
1
1
1
1
1
1
1
1
1
1
1
1
1
1
1
1
1
1
1
1
1
1
1
1
1
1
1
1
1
1
1
1
1
1
1
1
1
1
1
1
1
1
1
1
1
1
1
1
1
1
1
1
1
1
1
1
1
1
1
1
1
1
1
1
1
1
1
1
1
1
1
1
1
1
1
1
1
1
1
1
1
1
1
1
1
1
1
1
1
1
1
1
1
1
1
1
1
1
1
1
1
1
1
1
1
1
1
1
1
1
1
1
1
1
1
1
1
1
1
1
1
1
1
1
1
1
1
1
0.943219
0.949264
0.984123
0.98416
0.984162
0.984162
0.984162
0.984162
0.984162
0.984162
0.9432
0.94321
0.963931
0.984137
0.98416
0.983821
0.935511
0.932061
0.944112
0.984162
0.943219
0.968791
0.978742
0.962884
0.933347
0.930633
0.931145
0.931733
0.965702
0.971015
0.964769
0.970564
0.970148
0.969755
0.952965
0.927355
0.962333
0.983223
0.984002
0.972228
0.959234
0.945556
0.812394
0.812512
0.812789
0.81544
0.942713
0.984003
0.984022
0.971491
0.806896
0.778803
0.778803
0.946031
0.968471
0.948208
0.96324
0.984023
0.984025
0.957
0.900014
0.778803
0.779202
0.797025
0.968607
0.978429
0.984023
0.984025
0.984025
0.946409
0.983141
0.97001
0.850576
0.862232
0.829516
0.848008
0.984025
0.984025
0.984025
0.982009
0.983202
0.983203
0.983203
0.983203
0.928789
0.848524
0.858789
0.953683
0.984025
0.984025
0.983203
0.983203
0.983203
0.983203
0.983203
0.970211
0.882474
0.882413
0.88477
0.890985
0.816935
0.81048
0.921795
0.983018
0.983203
0.983176
0.981606
0.961865
0.909705
0.889206
0.811305
0.810479
0.810458
0.810653
0.811139
0.811751
0.824381
0.964483
0.974092
0.974246
0.985542
0.977936
0.950665
0.958313
0.986858
0.869533
0.824795
0.824176
0.823218
0.843748
0.987214
0.987299
0.987462
0.987558
0.987556
0.987565
0.987248
0.848615
0.822378
0.82254
0.976749
0.987459
0.987545
0.987556
0.987566
0.987602
0.987626
0.987602
0.892671
0.822406
0.975005
0.926283
0.939968
0.98683
0.987602
0.987626
0.987633
0.987639
0.982481
0.961668
0.698182
0.319143
0.332304
0.705466
0.987309
0.987608
0.98764
0.987647
0.987663
0.987678
0.253143
0.250202
0.2502
0.250538
0.444967
0.898246
0.987598
0.987663
0.987678
0.987688
0.250202
0.250029
0.249999
0.250015
0.250156
0.346654
0.647643
0.849019
0.937813
0.987131
0.250029
0.249999
0.249994
0.249994
0.250001
0.250075
0.251265
0.299298
0.371285
0.431534
0.553149
0.425591
0.249995
0.249994
0.249994
0.250001
0.250075
0.250402
0.251708
0.254497
0.296743
0.753864
0.80034
0.777198
0.75668
0.664418
0.530093
0.547615
0.647866
0.671712
0.951192
0.756833
0.450292
0.332146
0.26683
0.358754
0.665128
0.928533
0.934652
0.939301
0.951192
0.951192
0.548493
0.219676
0.213862
0.209695
0.225986
0.283742
0.42091
0.452965
0.951192
0.951191
0.805045
0.254255
0.209161
0.209246
0.208352
0.207833
0.20779
0.207775
0.951191
0.951191
0.95119
0.799024
0.245226
0.208342
0.207837
0.207794
0.207776
0.207792
0.917172
0.948714
0.951057
0.944328
0.36921
0.209004
0.20788
0.207837
0.207794
0.546587
0.780523
0.781054
0.873971
0.855511
0.670199
0.290575
0.209006
0.381446
0.783753
0.985552
0.908816
0.926656
0.934643
0.964886
0.969248
0.916091
0.893578
0.930234
0.982064
0.989454
0.681311
0.919396
0.985149
0.985411
0.985727
0.987111
0.989061
0.98925
0.989394
0.989482
0.192214
0.357974
0.682022
0.952021
0.973621
0.981158
0.989218
0.989217
0.987929
0.986564
0.0727399
0.0726911
0.164841
0.403681
0.590681
0.911244
0.989217
0.989218
0.987895
0.989371
0.0726626
0.0727635
0.0733321
0.0737956
0.0797929
0.307089
0.850485
0.96998
0.989487
0.989495
0.0785228
0.103472
0.0887378
0.075182
0.0763994
0.0762461
0.222287
0.429116
0.657774
0.937477
0.676524
0.757467
0.651086
0.293687
0.0937166
0.0762461
0.0762461
0.077993
0.11022
0.192463
0.968037
0.968112
0.967941
0.965014
0.52409
0.0818631
0.0769658
0.077239
0.0777439
0.0816255
0.968074
0.967941
0.967509
0.963032
0.678907
0.138966
0.0774262
0.0775824
0.0780699
0.0788899
0.915848
0.968786
0.966154
0.772875
0.15622
0.0780866
0.0775824
0.0780699
0.0785704
0.0792495
0.96293
0.970583
0.967959
0.698439
0.112554
0.0785498
0.0780866
0.0785705
0.0792502
0.0800773
0.9706
0.970877
0.970583
0.966967
0.611419
0.123418
0.0788413
0.0793967
0.0801168
0.081176
0.969143
0.970877
0.970877
0.969704
0.889196
0.695846
0.489107
0.333773
0.26961
0.278407
0.969951
0.970877
0.969951
0.875566
0.770189
0.715843
0.83084
0.834378
0.83586
0.879471
0.96685
0.969951
0.968773
0.971187
0.911545
0.822842
0.817037
0.825131
0.833104
0.807292
0.639134
0.902603
0.97245
0.975865
0.975864
0.975864
0.926256
0.735288
0.479805
0.293929
0.00133937
0.20606
0.696207
0.974588
0.975888
0.975749
0.975403
0.709293
0.187989
0.104456
0.000427211
0.00133937
0.0287789
0.609731
0.974586
0.975571
0.951983
0.333197
0.0650984
0.0644209
0.000219966
0.0004355
0.00190531
0.143059
0.843965
0.974804
0.975801
0.511457
0.064422
0.064422
7.81801e-05
0.000226692
0.00162508
0.101497
0.640043
0.963352
0.980125
0.979946
0.573987
0.0851948
5.33018e-05
4.93653e-05
0.000864106
0.168881
0.618793
0.768639
0.980066
0.98021
0.979946
0.978848
4.45483e-06
4.2545e-06
4.69375e-05
0.181014
0.855139
0.696015
0.946287
0.889851
0.862464
0.964728
4.4468e-06
8.84126e-06
3.44584e-05
0.140115
0.876804
0.740204
0.242846
0.248796
0.283903
0.545416
4.58046e-06
6.33271e-06
6.01785e-05
0.159849
0.876928
0.847091
0.133699
0.287625
0.438444
0.429905
5.78878e-06
9.10283e-06
3.68334e-05
0.156639
0.876928
0.864768
0.173881
0.157448
0.101276
0.000885899
0.000131415
3.60841e-06
5.32183e-06
0.158626
0.876928
0.871944
0.159138
0.00856683
3.55632e-05
7.0661e-05
4.94754e-06
2.48572e-06
2.38863e-06
0.124835
0.876685
0.874065
0.122858
2.67087e-05
2.83748e-05
3.98226e-05
2.39632e-06
2.38688e-06
2.38628e-06
0.0977666
0.872014
0.871448
0.0985588
2.61458e-05
0.000121756
6.23012e-05
2.38688e-06
2.38627e-06
2.38644e-06
0.0446871
0.835225
0.837615
0.045901
2.67087e-05
0.00111381
6.29271e-05
2.39632e-06
2.38688e-06
2.38639e-06
0.0119684
0.729641
0.731466
0.0128627
3.4434e-05
0.00132465
0.00120215
2.44005e-06
2.85365e-06
2.38863e-06
0.000344202
0.617011
0.619402
0.000959545
4.86606e-05
0.00134069
0.00164392
9.96337e-05
4.36857e-06
2.40873e-06
2.49937e-06
0.556381
0.557411
5.19492e-05
5.19492e-05
0.000182442
0.000173602
0.000473302
3.04705e-06
2.49369e-06
2.62478e-06
0.544385
0.544708
6.46407e-05
7.51225e-05
0.000438181
0.000169632
0.000611293
9.26796e-06
2.51973e-06
2.54032e-06
0.605275
0.605848
9.24674e-05
0.000110115
0.000479983
0.000280187
0.000180947
2.51973e-06
2.51973e-06
3.70127e-05
0.731189
0.734669
8.36793e-05
2.58928e-05
0.000481196
0.000235835
4.8632e-06
2.51975e-06
2.51973e-06
0.0195407
0.82393
0.824351
0.0205791
4.05627e-06
0.000133714
0.000182865
1.06293e-05
2.51992e-06
2.51975e-06
0.0753424
0.868952
0.86891
0.0751217
4.0561e-06
4.05627e-06
8.3326e-06
1.93705e-05
2.52141e-06
2.51992e-06
0.117895
0.885199
0.885798
0.117991
4.05627e-06
7.17972e-05
6.59103e-05
4.38575e-05
9.35682e-06
2.52141e-06
0.133786
0.88784
0.888456
0.135397
4.06043e-06
0.000272229
0.000367095
2.79278e-05
4.79477e-05
2.53366e-06
0.135556
0.8863
0.888456
0.137194
4.09558e-06
0.000281525
0.000367394
8.34434e-06
0.000101174
2.6285e-06
0.117188
0.882313
0.881977
0.117977
4.36848e-06
6.36504e-05
0.000367372
4.54764e-06
0.000214973
3.05492e-06
0.088357
0.862021
0.862369
0.0882318
4.61964e-06
2.34125e-05
0.000329071
4.51097e-06
0.000232855
4.44323e-06
0.0685038
0.843748
0.844793
0.0692515
4.32814e-06
3.16931e-05
0.000354623
6.48861e-06
0.000237191
6.89294e-06
0.062211
0.837847
0.838044
0.0628578
4.00703e-06
3.45755e-05
0.000602945
4.04964e-05
0.00025187
9.53454e-06
0.0617885
0.838726
0.839358
0.0629998
3.99365e-06
4.00986e-06
0.000188173
0.000387216
0.000318319
1.19269e-05
0.080528
0.862588
0.859089
0.0765051
3.97449e-06
3.99365e-06
0.000337418
0.000454704
0.000361848
1.43863e-05
0.114494
0.892655
0.894244
0.115481
3.97506e-06
4.2661e-06
7.77561e-05
0.000452389
0.000243397
1.45178e-05
0.153256
0.916894
0.917605
0.153849
3.9558e-06
2.2345e-05
8.15317e-06
0.000416696
0.000167761
1.38272e-05
0.178505
0.929473
0.92952
0.179019
3.89063e-06
2.24118e-05
8.15317e-06
0.000144492
0.000181499
1.33913e-05
0.19026
0.934816
0.934525
0.190603
3.84416e-06
1.70326e-05
7.33145e-05
2.36854e-05
0.000136944
1.26194e-05
0.194583
0.937064
0.936516
0.194956
3.84541e-06
3.83886e-06
5.35914e-06
2.25082e-05
0.000179616
1.17064e-05
0.197655
0.938941
0.938313
0.198245
3.83886e-06
3.82208e-06
3.81277e-06
2.27521e-05
0.000180002
1.08018e-05
0.205159
0.942936
0.942225
0.205931
3.83072e-06
3.80979e-06
3.8084e-06
4.77281e-05
0.000163982
9.84044e-06
0.22188
0.949964
0.949055
0.222413
3.89231e-06
3.43555e-05
3.80576e-06
0.000151557
0.000114561
8.93927e-06
0.255256
0.96034
0.959365
0.255251
4.30656e-06
0.000276986
3.80561e-06
0.000153169
0.000108607
8.14989e-06
0.302537
0.971088
0.97024
0.302215
6.08044e-06
0.0003552
0.000383358
0.000154262
0.000120831
7.25919e-06
0.353202
0.979426
0.978686
0.352844
9.45878e-06
0.000250789
0.000383372
0.000154711
0.000142048
6.28232e-06
0.402962
0.985347
0.984696
0.403065
1.15757e-05
0.000199207
0.000364953
0.000154711
0.000141929
5.24386e-06
0.448093
0.989083
0.988313
0.447987
1.01053e-05
0.000280335
0.000361643
0.000154697
0.000106788
4.67848e-06
0.489264
0.991595
0.990597
0.488848
8.20137e-06
0.000176145
0.000358246
0.0001161
5.50242e-06
2.89972e-06
0.536091
0.993832
0.992848
0.536009
6.42363e-06
6.41834e-06
3.07048e-05
3.66968e-06
1.07256e-06
1.07256e-06
0.595225
0.995724
0.994902
0.596342
6.00033e-06
6.00033e-06
6.00066e-06
1.15112e-06
1.07223e-06
1.07514e-06
0.666554
0.99725
0.996148
0.668106
6.03653e-06
6.00033e-06
3.52519e-05
2.623e-05
1.07514e-06
1.16701e-06
0.738789
0.998659
0.997197
0.738961
6.09298e-06
6.03653e-06
5.49677e-05
2.62328e-05
1.16701e-06
0.0182475
0.809918
0.998719
0.999003
0.809668
0.0312959
6.07819e-06
4.56134e-05
1.903e-05
8.14144e-07
0.0699312
0.843368
0.999219
0.999497
0.908444
0.134665
4.24633e-06
4.52902e-05
1.06063e-07
1.39096e-07
0.17486
0.930132
0.999661
0.999878
0.953735
0.252881
1.29818e-06
1.21895e-06
7.76006e-16
6.25586e-08
0.328552
0.975618
0.99989
0.999963
0.992899
0.487493
1.08609e-07
1.36849e-11
2.26732e-15
3.95911e-06
0.590961
0.999757
0.999982
0.999972
0.999965
0.728323
5.19909e-06
1.3987e-11
-5.00182e-14
0.0641272
0.869174
0.999982
0.999997
1
0.999976
0.88946
0.162475
9.02069e-12
-1.02655e-10
0.54207
0.998842
0.999996
1
1
0.999999
0.999938
0.663479
-5.56346e-10
0.345008
0.973717
1
1
1
1
1
1
0.976652
0.376605
0.984162
0.984162
0.983545
0.980069
0.980335
0.780622
0.622248
0.725219
0.902652
0.90265
0.902616
0.902264
0.851416
0.707224
0.889748
0.890123
0.890123
0.886171
0.88321
0.891062
0.924341
0.924344
0.922758
0.931489
0.959036
0.963561
0.963899
0.963974
0.966551
0.967368
0.966993
0.964408
0.969372
0.972034
0.972044
0.972058
0.972058
0.972058
0.971244
0.970726
0.984162
0.984162
0.984162
0.984159
0.982819
0.756492
0.619302
0.787891
0.902655
0.902653
0.902616
0.902278
0.700222
0.462039
0.461121
0.451504
0.577946
0.886637
0.888969
0.891155
0.745991
0.615965
0.615238
0.614307
0.768449
0.862796
0.688427
0.703844
0.880164
0.967368
0.934546
0.795951
0.804956
0.960573
0.972034
0.963553
0.971351
0.972032
0.971805
0.971836
0.979588
0.984162
0.984162
0.984162
0.984152
0.849428
0.619862
0.692304
0.902653
0.902656
0.902653
0.902616
0.902278
0.897097
0.778824
0.440802
0.412602
0.444839
0.82443
0.879811
0.877861
0.877402
0.625028
0.614093
0.614093
0.614093
0.614787
0.720952
0.859801
0.880629
0.847703
0.795902
0.795951
0.810111
0.832892
0.868839
0.965054
0.950014
0.969681
0.971656
0.944012
0.979173
0.984162
0.984152
0.963874
0.947801
0.762802
0.669699
0.730453
0.884957
0.902616
0.749878
0.544588
0.481388
0.445579
0.412602
0.412602
0.412602
0.412732
0.414027
0.73519
0.971078
0.939988
0.687701
0.636413
0.707395
0.737465
0.613061
0.533523
0.534716
0.70571
0.774506
0.843755
0.971481
0.974989
0.97495
0.960836
0.929831
0.929417
0.794133
0.943697
0.943589
0.981189
0.984152
0.946845
0.926547
0.920523
0.805763
0.57422
0.491085
0.490014
0.435666
0.43435
0.434327
0.43459
0.602619
0.539857
0.490807
0.557477
0.667081
0.909225
0.971192
0.966443
0.98282
0.988165
0.973699
0.973537
0.973317
0.945727
0.539209
0.369828
0.368956
0.368968
0.680498
0.958992
0.974989
0.969554
0.939888
0.936102
0.461099
0.943589
0.943579
0.970586
0.984132
0.976167
0.940053
0.98262
0.9768
0.830997
0.515307
0.434565
0.43435
0.434339
0.43435
0.527849
0.762369
0.869151
0.967303
0.98814
0.988161
0.988165
0.988165
0.988165
0.988165
0.988165
0.930945
0.864734
0.944608
0.98176
0.982002
0.576503
0.368968
0.368763
0.368831
0.558211
0.958287
0.975212
0.975226
0.933301
0.453502
0.943578
0.943589
0.98028
0.984078
0.984045
0.984011
0.983544
0.983115
0.967676
0.856989
0.693315
0.524981
0.569087
0.748204
0.946531
0.984811
0.987321
0.987357
0.987421
0.987856
0.988161
0.988165
0.988165
0.988165
0.988165
0.952219
0.811621
0.811621
0.940978
0.983082
0.952316
0.440137
0.368968
0.368763
0.374267
0.836739
0.975226
0.975322
0.931486
0.451747
0.97065
0.979394
0.984047
0.984048
0.984048
0.984045
0.963969
0.928913
0.924337
0.939768
0.943231
0.94554
0.963404
0.984945
0.98666
0.986714
0.986953
0.987189
0.947133
0.932715
0.981308
0.988143
0.988162
0.98816
0.988155
0.987794
0.841867
0.811621
0.959544
0.983712
0.983735
0.969139
0.795189
0.558367
0.789988
0.975194
0.975322
0.975325
0.9167
0.447351
0.983199
0.984046
0.984048
0.984048
0.984048
0.98073
0.923713
0.923254
0.923219
0.923217
0.939434
0.985942
0.986488
0.986556
0.986556
0.962222
0.931404
0.931369
0.931368
0.931453
0.962051
0.987742
0.988088
0.980936
0.965065
0.855532
0.738029
0.932403
0.983629
0.983735
0.983735
0.983735
0.98366
0.916746
0.935506
0.975299
0.975325
0.975326
0.925316
0.444335
0.925719
0.984045
0.984048
0.984048
0.984048
0.984048
0.948576
0.923219
0.923216
0.923219
0.947453
0.986196
0.98631
0.967455
0.932295
0.932149
0.931741
0.931391
0.945685
0.988072
0.988473
0.979734
0.900585
0.691756
0.500496
0.500385
0.534038
0.858597
0.976586
0.978674
0.983729
0.897314
0.781531
0.803445
0.913842
0.975294
0.975326
0.975326
0.839724
0.437256
0.916669
0.979501
0.951107
0.936183
0.937081
0.949459
0.963543
0.963779
0.949724
0.961069
0.983325
0.986201
0.986196
0.97781
0.933561
0.935767
0.984636
0.988452
0.988474
0.988474
0.988473
0.902584
0.512086
0.500496
0.500385
0.500385
0.500385
0.500583
0.700457
0.77049
0.717914
0.71808
0.757929
0.940563
0.97528
0.975325
0.975326
0.975326
0.562542
0.437264
0.979816
0.984326
0.984326
0.941874
0.904896
0.905886
0.912233
0.974955
0.983173
0.983288
0.983295
0.97055
0.892336
0.936566
0.988171
0.988443
0.988472
0.988474
0.988474
0.988474
0.988474
0.967583
0.604558
0.500932
0.500496
0.715165
0.764216
0.671793
0.690291
0.817752
0.927464
0.934357
0.963789
0.975149
0.975193
0.97528
0.955675
0.477198
0.414011
0.577838
0.97901
0.984326
0.950197
0.895595
0.894645
0.953492
0.981168
0.98311
0.983188
0.983251
0.983272
0.925037
0.890549
0.890331
0.890326
0.955154
0.988443
0.988472
0.988474
0.988474
0.988464
0.985884
0.803042
0.673221
0.619134
0.739583
0.766067
0.786275
0.823493
0.926154
0.974045
0.974671
0.974816
0.974837
0.974663
0.975192
0.763548
0.47954
0.868084
0.975304
0.859736
0.983037
0.959927
0.894645
0.894512
0.89438
0.964925
0.98301
0.983122
0.98319
0.983251
0.942784
0.890396
0.890323
0.890331
0.906987
0.983845
0.988457
0.98847
0.988464
0.988144
0.572591
0.0630482
0.163083
0.300167
0.443942
0.337544
0.292557
0.40802
0.428709
0.393715
0.380087
0.365663
0.382387
0.372091
0.387715
0.298377
0.82104
0.975217
0.975396
0.901264
0.987368
0.987664
0.926576
0.89438
0.89438
0.909801
0.980895
0.983025
0.983123
0.98319
0.910089
0.890357
0.890342
0.890931
0.970478
0.987958
0.988427
0.988455
0.973335
0.481589
0.0606428
0.0606566
0.0607472
0.0607988
0.0611384
0.0609355
0.0610954
0.0613847
0.0638212
0.066572
0.0706352
0.0752076
0.0802982
0.0875679
0.0965324
0.13464
0.80081
0.975237
0.943552
0.979438
0.987679
0.987691
0.985309
0.896086
0.89438
0.894465
0.974875
0.982926
0.983025
0.915436
0.890522
0.890469
0.896132
0.96564
0.984547
0.988403
0.988406
0.988427
0.744596
0.0669143
0.0606424
0.0606426
0.0606475
0.0606575
0.0607132
0.0608192
0.0609392
0.0611117
0.0614062
0.0851423
0.124514
0.178228
0.200591
0.254226
0.20438
0.568192
0.973683
0.975003
0.843656
0.987688
0.987691
0.987692
0.987691
0.92948
0.894465
0.909107
0.980383
0.98267
0.906554
0.890732
0.890791
0.92976
0.985358
0.974312
0.978095
0.988357
0.988403
0.988314
0.816672
0.137402
0.0606426
0.0606423
0.0606426
0.0606475
0.0606575
0.0607086
0.198683
0.483683
0.544615
0.797668
0.839922
0.900651
0.906932
0.946327
0.943777
0.968608
0.974455
0.974763
0.739746
0.987691
0.987692
0.987692
0.987692
0.976542
0.9543
0.982756
0.973769
0.896
0.890894
0.890914
0.959314
0.988801
0.988853
0.974588
0.977107
0.988372
0.988387
0.988372
0.988296
0.876837
0.436676
0.257576
0.193292
0.226037
0.391171
0.602613
0.75889
0.948449
0.968649
0.969898
0.980802
0.981081
0.981101
0.981108
0.981104
0.945193
0.954739
0.918001
0.650393
0.987689
0.987692
0.987692
0.987692
0.987692
0.987675
0.987664
0.92438
0.891078
0.890978
0.900209
0.985799
0.988853
0.988856
0.987231
0.965231
0.97191
0.988372
0.988297
0.988264
0.988196
0.975824
0.741659
0.58426
0.63089
0.678959
0.678959
0.663382
0.552786
0.548266
0.568173
0.803791
0.975098
0.981081
0.981101
0.921047
0.685878
0.739773
0.650496
0.650688
0.632446
0.917504
0.986731
0.987692
0.987675
0.987668
0.987667
0.987664
0.911872
0.891078
0.891436
0.981308
0.988856
0.988859
0.988862
0.983269
0.894527
0.89304
0.972383
0.988222
0.988126
0.988185
0.988235
0.988144
0.801542
0.554058
0.550016
0.548381
0.548266
0.548253
0.548255
0.548255
0.833259
0.98058
0.806136
0.635174
0.635174
0.669197
0.762462
0.813286
0.267332
0.438769
0.430618
0.469149
0.539731
0.743185
0.985601
0.986839
0.986031
0.946742
0.936676
0.985444
0.988859
0.988862
0.988862
0.963641
0.887099
0.886907
0.886785
0.94275
0.988185
0.98829
0.988265
0.988235
0.815367
0.549354
0.548456
0.548358
0.548319
0.548266
0.548255
0.675362
0.911787
0.919631
0.639372
0.637273
0.725247
0.934163
0.959801
0.959871
0.825634
0.871071
0.888055
0.55045
0.502101
0.502074
0.502298
0.50415
0.555363
0.885796
0.988015
0.988848
0.988861
0.988862
0.988862
0.988862
0.892659
0.886785
0.886785
0.886785
0.977384
0.988447
0.98829
0.962808
0.609227
0.548719
0.548507
0.548438
0.548363
0.782975
0.803173
0.783217
0.680642
0.809255
0.803706
0.755729
0.731547
0.870453
0.959871
0.959871
0.944956
0.947875
0.954867
0.971218
0.972443
0.97266
0.954623
0.530489
0.503376
0.503016
0.504936
0.710047
0.987752
0.988861
0.988862
0.988828
0.954729
0.886825
0.886785
0.913532
0.988448
0.988518
0.912948
0.570133
0.549374
0.549339
0.549394
0.904541
0.954539
0.815686
0.315796
0.239562
0.189313
0.592513
0.830027
0.956074
0.940538
0.792739
0.823135
0.956199
0.36435
0.291235
0.417052
0.642551
0.846278
0.963971
0.966018
0.94861
0.954303
0.699509
0.508813
0.51275
0.517448
0.849049
0.988828
0.988816
0.988833
0.90531
0.886825
0.959528
0.988843
0.988553
0.739837
0.570963
0.57008
0.875102
0.983183
0.983161
0.717153
0.201149
0.168643
0.168732
0.168948
0.192561
0.484161
0.956608
0.973744
0.909668
0.819413
0.938126
0.210998
0.214684
0.215145
0.215145
0.223846
0.762062
0.94378
0.965758
0.967495
0.968203
0.982527
0.66785
0.524267
0.749515
0.987609
0.988833
0.988885
0.912104
0.90514
0.985572
0.988989
0.910475
0.669723
0.87273
0.962629
0.984346
0.983732
0.926562
0.299958
0.168667
0.168732
0.168674
0.168732
0.168948
0.685461
0.973739
0.973734
0.898739
0.81955
0.95494
0.410834
0.894836
0.886675
0.37317
0.410841
0.878348
0.987599
0.95883
0.944873
0.953362
0.987684
0.974121
0.824302
0.853706
0.983333
0.988885
0.988915
0.912086
0.948916
0.988989
0.98905
0.849903
0.779061
0.984222
0.984346
0.984387
0.984346
0.944516
0.529342
0.356406
0.350904
0.360101
0.436593
0.611149
0.863018
0.806116
0.762738
0.79755
0.955394
0.955472
0.965634
0.988953
0.984532
0.953498
0.942573
0.963227
0.989482
0.989513
0.951638
0.977493
0.988297
0.988542
0.988598
0.979061
0.984736
0.988915
0.988925
0.945588
0.98674
0.98905
0.989078
0.915285
0.97617
0.959434
0.943592
0.984363
0.984386
0.984203
0.956019
0.930762
0.924916
0.914814
0.903201
0.819486
0.761201
0.760834
0.760839
0.765063
0.919458
0.941188
0.989272
0.989469
0.989509
0.989519
0.989514
0.989164
0.989518
0.989518
0.98854
0.976364
0.988273
0.988594
0.988666
0.988823
0.988914
0.988925
0.988925
0.982842
0.971165
0.989078
0.98916
0.989371
0.989515
0.974235
0.929371
0.850855
0.763109
0.758889
0.860066
0.94548
0.945577
0.933646
0.84984
0.829707
0.901707
0.936913
0.942637
0.943959
0.900035
0.899854
0.989484
0.989512
0.989519
0.989519
0.98952
0.989519
0.989519
0.989518
0.989519
0.98951
0.906362
0.908829
0.987185
0.988912
0.988925
0.988925
0.988925
0.988478
0.914385
0.953409
0.98937
0.989515
0.989583
0.989626
0.970977
0.910833
0.806973
0.72167
0.720405
0.723449
0.521894
0.396792
0.391188
0.38707
0.581455
0.696202
0.83486
0.969466
0.970314
0.941162
0.989496
0.989495
0.989515
0.98952
0.989515
0.98948
0.989433
0.989508
0.989518
0.989517
0.830194
0.777469
0.839904
0.988687
0.988914
0.988925
0.988925
0.97643
0.910314
0.909022
0.944647
0.989585
0.989634
0.989695
0.989874
0.988595
0.977075
0.946718
0.886054
0.892699
0.879352
0.846904
0.692797
0.172802
0.0488413
0.0474307
0.100766
0.627553
0.970843
0.970843
0.986564
0.986564
0.989344
0.989515
0.989394
0.989375
0.98947
0.989517
0.989517
0.916325
0.777469
0.776999
0.777068
0.793522
0.963756
0.988914
0.988925
0.970747
0.909022
0.908881
0.90874
0.945433
0.989718
0.989896
0.989843
0.989914
0.989945
0.989932
0.989874
0.98983
0.989818
0.9898
0.989741
0.75267
0.104878
0.0451538
0.0443477
0.135858
0.925802
0.970994
0.988649
0.989428
0.989507
0.989509
0.989507
0.989394
0.989514
0.989515
0.916677
0.777424
0.776999
0.776968
0.776999
0.777068
0.777533
0.940811
0.988883
0.987736
0.924259
0.90874
0.90874
0.91596
0.98731
0.989901
0.98992
0.989879
0.989956
0.989948
0.989921
0.98988
0.98988
0.989879
0.98987
0.98978
0.451974
0.0443477
0.0430108
0.128648
0.864497
0.971132
0.989502
0.989505
0.989505
0.988908
0.989506
0.989497
0.984924
0.839014
0.777425
0.777
0.776982
0.776999
0.889527
0.86078
0.781059
0.784963
0.886294
0.986669
0.983789
0.922593
0.90874
0.962329
0.989916
0.989941
0.989881
0.989938
0.989996
0.989898
0.989881
0.98988
0.989881
0.989881
0.989879
0.989869
0.546766
0.0439605
0.0419551
0.322322
0.952066
0.985339
0.988974
0.989502
0.943195
0.962073
0.980784
0.989493
0.967131
0.896899
0.811338
0.789091
0.839952
0.937198
0.98367
0.983751
0.958106
0.82271
0.823271
0.827093
0.946191
0.984202
0.985781
0.989858
0.989941
0.989944
0.989941
0.989919
0.989942
0.989893
0.989881
0.989881
0.989881
0.989881
0.989881
0.962328
0.348234
0.0423575
0.0416964
0.483812
0.982419
0.985344
0.542045
0.74548
0.551811
0.450477
0.651941
0.980521
0.96421
0.971524
0.974784
0.978386
0.982578
0.98367
0.983751
0.983803
0.983854
0.981121
0.827703
0.826146
0.826146
0.939138
0.989734
0.989941
0.989943
0.989942
0.989944
0.989933
0.989911
0.989938
0.989884
0.98988
0.989881
0.989881
0.89825
0.434279
0.0758071
0.0416967
0.0416611
0.538355
0.9848
0.985348
0.117338
0.146706
0.188017
0.180848
0.180921
0.535058
0.661322
0.68894
0.713601
0.722293
0.856464
0.944195
0.954725
0.982686
0.983854
0.983854
0.929619
0.826146
0.826684
0.945885
0.987717
0.968161
0.741309
0.631438
0.727624
0.866789
0.924977
0.949071
0.943377
0.821059
0.644783
0.507156
0.211289
0.0462668
0.0418558
0.0416611
0.0416599
0.571217
0.98531
0.985348
0.0795699
0.0807553
0.188906
0.334139
0.362289
0.321448
0.321958
0.288544
0.288449
0.288983
0.291609
0.325833
0.449652
0.892229
0.983854
0.98373
0.983884
0.921115
0.954568
0.962009
0.787514
0.231621
0.0775758
0.0615224
0.109525
0.192624
0.246848
0.294954
0.271088
0.138728
0.0669225
0.0462122
0.0424277
0.0418653
0.0416797
0.0416574
0.0416611
0.540577
0.98432
0.985348
0.080074
0.150666
0.632609
0.77736
0.77736
0.73664
0.775989
0.674317
0.582246
0.712604
0.711583
0.70809
0.492079
0.65705
0.88868
0.983884
0.983992
0.983888
0.982767
0.83197
0.0880855
0.0420597
0.0419304
0.0418972
0.041934
0.0420063
0.0418711
0.0421115
0.0424663
0.0423313
0.0420517
0.0418404
0.0417284
0.0416727
0.0416583
0.0416569
0.0416574
0.516533
0.979138
0.982816
0.0808169
0.243634
0.688098
0.77736
0.77736
0.776901
0.77621
0.775996
0.774938
0.71374
0.565364
0.292926
0.237534
0.277402
0.724118
0.983992
0.983992
0.983992
0.977066
0.42729
0.0418977
0.0418096
0.0417986
0.0417956
0.041801
0.0418195
0.0418388
0.0417797
0.0418919
0.0419438
0.0418468
0.0417271
0.0416733
0.0416589
0.0416575
0.0416583
0.124646
0.804733
0.979162
0.956201
0.0925973
0.172151
0.452044
0.769153
0.776901
0.737726
0.775989
0.753185
0.35266
0.23656
0.23656
0.23656
0.236877
0.237534
0.541588
0.983992
0.983992
0.983992
0.97102
0.386041
0.0418096
0.04179
0.0417888
0.0417887
0.0417906
0.041801
0.0418195
0.0417794
0.0418417
0.0419114
0.0419411
0.0418452
0.0557904
0.10364
0.0755117
0.273948
0.888237
0.979089
0.979087
0.933505
0.530677
0.825651
0.887147
0.771752
0.394834
0.273957
0.349392
0.478787
0.239246
0.237013
0.237611
0.236773
0.236761
0.236979
0.312983
0.845637
0.960797
0.983616
0.975201
0.689949
0.0953471
0.0417888
0.0417888
0.0417888
0.0417888
0.0417906
0.0418196
0.0642223
0.0789763
0.0692597
0.052042
0.0425114
0.0765945
0.426346
0.744521
0.941076
0.954727
0.904087
0.882077
0.935629
0.948403
0.953826
0.95595
0.740501
0.273957
0.273957
0.273957
0.27438
0.435428
0.547613
0.547767
0.54727
0.544068
0.409176
0.161409
0.69693
0.971201
0.97608
0.973501
0.95796
0.637454
0.179063
0.110563
0.0718753
0.109031
0.19665
0.382979
0.643749
0.734614
0.723579
0.696715
0.623118
0.509299
0.698869
0.948015
0.946812
0.814235
0.797427
0.797468
0.935629
0.819201
0.95595
0.959364
0.962778
0.673134
0.273957
0.271008
0.305206
0.524945
0.535289
0.494821
0.475867
0.31803
0.193111
0.147024
0.365797
0.748683
0.908845
0.968578
0.964881
0.960043
0.818486
0.71949
0.656148
0.727566
0.831522
0.943448
0.977615
0.977822
0.977842
0.977796
0.977781
0.974835
0.977718
0.97504
0.812662
0.797427
0.797427
0.797427
0.925364
0.192198
0.792483
0.962778
0.964273
0.965767
0.893818
0.272934
0.0690221
0.0676432
0.0675635
0.0675684
0.0675551
0.0675684
0.067602
0.0676196
0.0722137
0.125857
0.289627
0.589267
0.929748
0.957804
0.954965
0.906373
0.953286
0.967931
0.976201
0.978169
0.978251
0.978259
0.97823
0.978216
0.978188
0.978134
0.977987
0.896073
0.797472
0.797476
0.797427
0.85284
0.919961
0.0649627
0.122528
0.719622
0.965767
0.96618
0.966593
0.96643
0.562072
0.12672
0.0676432
0.0675522
0.0675684
0.067602
0.0676196
0.0676485
0.0676771
0.0678607
0.0692224
0.0854363
0.339715
0.612804
0.768147
0.840907
0.887165
0.903427
0.954406
0.978286
0.978288
0.978285
0.978259
0.978228
0.978206
0.978188
0.978134
0.870383
0.831259
0.928768
0.949029
0.971322
0.937314
0.0644259
0.06459
0.128885
0.75489
0.966593
0.96666
0.966705
0.966516
0.91698
0.367488
0.154687
0.170827
0.23701
0.206031
0.0739958
0.0677942
0.0678014
0.0678999
0.069293
0.275103
0.725649
0.901538
0.933024
0.863872
0.863537
0.896746
0.978291
0.97829
0.978288
0.978285
0.978179
0.904551
0.891782
0.960842
0.979423
0.979144
0.979403
0.979197
0.978859
0.97873
0.0644203
0.0644243
0.0645634
0.127619
0.76387
0.966695
0.966663
0.966697
0.966516
0.929103
0.839849
0.834493
0.897075
0.952945
0.74587
0.403465
0.335885
0.609868
0.781412
0.880617
0.969966
0.983269
0.958888
0.863805
0.864295
0.91597
0.97829
0.978292
0.97829
0.97823
0.942202
0.887309
0.887309
0.969618
0.979432
0.979425
0.979417
0.979403
0.950457
0.948721
0.0662799
0.0644625
0.0644285
0.0645634
0.100273
0.67447
0.966683
0.96663
0.896592
0.737084
0.816984
0.964023
0.96791
0.971717
0.953429
0.949176
0.970114
0.982955
0.983595
0.983762
0.983844
0.983893
0.982477
0.921778
0.904514
0.977539
0.978292
0.97829
0.889341
0.830248
0.936972
0.955716
0.970258
0.979434
0.979432
0.979192
0.978956
0.979077
0.955606
0.631209
0.958719
0.428833
0.076614
0.0662572
0.0847125
0.278731
0.720199
0.967172
0.937247
0.737253
0.736954
0.737197
0.774935
0.983179
0.983179
0.983326
0.983492
0.983595
0.983762
0.983844
0.983897
0.983951
0.983954
0.983915
0.983859
0.983022
0.95532
0.821219
0.804695
0.804689
0.843483
0.955097
0.934766
0.930884
0.859707
0.836914
0.855526
0.965422
0.96143
0.518471
0.98273
0.982762
0.983383
0.957503
0.942649
0.984725
0.984789
0.984789
0.984789
0.984789
0.984558
0.983534
0.954664
0.779347
0.803869
0.973241
0.983468
0.983492
0.983596
0.973902
0.974901
0.983954
0.983969
0.983968
0.983962
0.983896
0.957428
0.804695
0.804687
0.804695
0.804688
0.806032
0.808041
0.831912
0.914824
0.87632
0.81166
0.680833
0.841162
0.501307
0.965387
0.983383
0.984349
0.984684
0.984762
0.984782
0.984789
0.984789
0.984789
0.984787
0.98478
0.984634
0.901947
0.773246
0.769343
0.787109
0.903739
0.980491
0.983199
0.949591
0.904297
0.940578
0.983968
0.983968
0.983968
0.983962
0.983901
0.954921
0.890254
0.859512
0.89244
0.946599
0.946655
0.946483
0.946284
0.744808
0.443314
0.535142
0.679518
0.509908
0.498212
0.666532
0.843763
0.929897
0.96598
0.980065
0.984545
0.984784
0.984787
0.984785
0.984784
0.984751
0.886051
0.773045
0.766068
0.827406
0.876946
0.910327
0.968059
0.958601
0.90442
0.904267
0.907974
0.932066
0.975894
0.983935
0.983938
0.98258
0.982065
0.981199
0.97007
0.945561
0.917755
0.905284
0.827901
0.324682
0.0659641
0.278601
0.515158
0.363942
0.000774301
0.0351107
0.166057
0.332972
0.401179
0.45581
0.548564
0.672416
0.792856
0.875765
0.933623
0.943462
0.906946
0.874563
0.765543
0.580582
0.772509
0.869189
0.941416
0.965034
0.956322
0.927044
0.917809
0.934075
0.955405
0.983937
0.98255
0.960038
0.911571
0.698326
0.479171
0.348244
0.257453
0.112406
0.067881
0.064129
0.063624
0.0637356
0.374714
0.120437
6.14501e-05
3.78545e-05
3.00307e-05
3.78545e-05
0.000647806
4.188e-05
1.30533e-05
0.0131309
0.0501455
0.124945
0.3813
0.551335
0.757907
0.873614
0.697756
0.362598
0.411236
0.933757