/*--------------------------------*- C++ -*----------------------------------*\
  =========                 |
  \\      /  F ield         | OpenFOAM: The Open Source CFD Toolbox
   \\    /   O peration     | Website:  https://openfoam.org
    \\  /    A nd           | Version:  8
     \\/     M anipulation  |
\*---------------------------------------------------------------------------*/
FoamFile
{
    version     2.0;
    format      ascii;
    class       surfaceScalarField;
    location    "4.25";
    object      alphaPhi0.water;
}
// * * * * * * * * * * * * * * * * * * * * * * * * * * * * * * * * * * * * * //

dimensions      [0 3 -1 0 0 0 0];

internalField   nonuniform List<scalar> 
18095
(
1.95959e-08
-1.71892e-07
1.52296e-07
2.32228e-08
-1.98159e-07
1.94532e-07
2.03871e-08
-2.05932e-07
2.08768e-07
1.13148e-08
-2.10554e-07
2.19626e-07
2.39267e-10
-2.13348e-07
2.24423e-07
-1.03173e-08
-2.13432e-07
2.23988e-07
-1.95396e-08
-2.10673e-07
2.19896e-07
-2.31328e-08
-2.05845e-07
2.09439e-07
-1.9584e-08
-1.98193e-07
1.94644e-07
-1.71972e-07
1.52388e-07
1.55841e-08
-1.87476e-07
1.57916e-08
-1.98366e-07
1.1942e-08
-2.02082e-07
6.52795e-09
-2.0514e-07
7.20356e-11
-2.06892e-07
-6.39697e-09
-2.06963e-07
-1.20051e-08
-2.05065e-07
-1.57196e-08
-2.02131e-07
-1.55356e-08
-1.98377e-07
-1.87507e-07
6.86332e-09
-1.9434e-07
8.28782e-09
-1.99791e-07
7.23977e-09
-2.01034e-07
4.26898e-09
-2.02169e-07
1.56577e-10
-2.02779e-07
-4.07295e-09
-2.02733e-07
-7.17805e-09
-2.0196e-07
-8.28202e-09
-2.01027e-07
-6.84827e-09
-1.99811e-07
-1.94355e-07
4.56826e-09
-1.98908e-07
4.70629e-09
-1.99929e-07
3.59032e-09
-1.99918e-07
1.86856e-09
-2.00448e-07
-1.44806e-10
-2.00766e-07
-2.06084e-09
-2.00817e-07
-3.60963e-09
-2.00411e-07
-4.6912e-09
-1.99945e-07
-4.55653e-09
-1.99946e-07
-1.98912e-07
1.09199e-09
1.16301e-09
1.24474e-09
7.97132e-10
3.11509e-11
-7.85821e-10
-1.19707e-09
-1.14246e-09
-1.08806e-09
-2.62571e-08
-1.96857e-07
2.23114e-07
-2.89081e-08
-1.98772e-07
2.01423e-07
-2.48777e-08
-2.00875e-07
1.96844e-07
-1.51348e-08
-2.0044e-07
1.90697e-07
-2.02077e-09
-2.01424e-07
1.8831e-07
1.17975e-08
-2.01941e-07
1.88123e-07
2.35931e-08
-2.01628e-07
1.89833e-07
2.88991e-08
-2.01994e-07
1.96688e-07
2.65551e-08
-1.99004e-07
2.01348e-07
-1.97064e-07
2.23619e-07
-9.97085e-09
-1.86886e-07
-1.56126e-08
-1.9313e-07
-1.40302e-08
-2.02457e-07
-6.45627e-09
-2.08014e-07
5.77806e-10
-2.08458e-07
7.75015e-09
-2.09114e-07
1.48608e-08
-2.08739e-07
1.54732e-08
-2.02607e-07
9.90336e-09
-1.93434e-07
-1.87161e-07
-1.07854e-08
-1.76101e-07
-8.6602e-09
-1.95256e-07
-6.26939e-09
-2.04848e-07
-4.59479e-09
-2.09689e-07
-1.89776e-10
-2.12863e-07
3.97478e-09
-2.13278e-07
6.10135e-09
-2.10865e-07
8.77243e-09
-2.05278e-07
1.09229e-08
-1.95585e-07
-1.76238e-07
-6.6459e-09
-1.69455e-07
-8.38146e-09
-1.9352e-07
-7.26344e-09
-2.05966e-07
-1.35397e-09
-2.15598e-07
2.69893e-09
-2.16916e-07
5.87944e-09
-2.16459e-07
9.67287e-09
-2.14659e-07
9.55182e-09
-2.05157e-07
7.02553e-09
-1.93058e-07
-1.69212e-07
-1.71585e-08
-1.61465e-08
-1.3345e-08
-9.31652e-09
-1.80938e-09
5.72012e-09
1.09568e-08
1.52388e-08
1.68248e-08
2.99412e-08
-1.57123e-07
1.27182e-07
3.84864e-08
-1.98218e-07
1.89673e-07
3.27313e-08
-2.09609e-07
2.15364e-07
2.08688e-08
-2.14743e-07
2.26605e-07
6.34496e-09
-2.16052e-07
2.30576e-07
-8.63905e-09
-2.16937e-07
2.31921e-07
-2.21993e-08
-2.15764e-07
2.29325e-07
-3.1002e-08
-2.11231e-07
2.20034e-07
-2.65386e-08
-2.00358e-07
1.95895e-07
-1.59964e-07
1.33425e-07
1.66014e-08
-1.73724e-07
1.94781e-08
-2.01095e-07
1.67293e-08
-2.0686e-07
1.1004e-08
-2.09017e-07
3.02583e-09
-2.08074e-07
-5.71294e-09
-2.08198e-07
-1.33404e-08
-2.08137e-07
-1.69928e-08
-2.07579e-07
-1.4858e-08
-2.02493e-07
-1.74822e-07
1.03e-08
-1.84024e-07
9.88648e-09
-2.00681e-07
8.4286e-09
-2.05403e-07
4.48303e-09
-2.05072e-07
9.05497e-10
-2.04497e-07
-2.77686e-09
-2.04516e-07
-6.88585e-09
-2.04028e-07
-8.82377e-09
-2.05641e-07
-1.00829e-08
-2.01234e-07
-1.84905e-07
7.72554e-09
-1.9175e-07
6.60315e-09
-1.99559e-07
7.02643e-09
-2.05826e-07
2.10653e-09
-2.00152e-07
3.74446e-10
-2.02765e-07
-1.26271e-09
-2.02879e-07
-5.87723e-09
-1.99413e-07
-5.65673e-09
-2.05861e-07
-7.24088e-09
-1.9965e-07
-1.92146e-07
3.13643e-08
3.32289e-08
2.42475e-08
1.47927e-08
3.38232e-10
-1.44176e-08
-2.39983e-08
-3.31716e-08
-3.14736e-08
2.2043e-07
7.21721e-09
-2.27932e-07
2.3215e-07
-1.9456e-09
2.42607e-07
-1.0446e-08
2.53315e-07
-1.07071e-08
2.59066e-07
-5.75106e-09
2.52935e-07
6.13171e-09
2.29312e-07
2.36227e-08
1.95228e-07
3.40836e-08
1.68426e-07
2.68025e-08
2.83927e-08
1.40033e-07
2.38717e-07
1.79979e-09
-2.33556e-07
2.44555e-07
-8.05382e-09
2.56464e-07
-1.19991e-08
2.49718e-07
-3.9487e-09
2.32146e-07
1.18214e-08
1.97658e-07
3.2074e-08
1.66358e-07
4.93054e-08
1.46515e-07
5.49336e-08
1.29662e-07
4.77532e-08
5.39406e-08
1.04114e-07
1.53836e-07
-1.57437e-08
-1.36577e-07
1.75069e-07
-2.5538e-08
1.88301e-07
-2.31899e-08
1.74594e-07
-4.83788e-09
1.6394e-07
1.93968e-08
1.61216e-07
3.79584e-08
1.56672e-07
5.70245e-08
1.47073e-07
6.71158e-08
1.33344e-07
6.87029e-08
8.68928e-08
9.75666e-08
1.53584e-07
-5.38166e-08
-1.15237e-07
1.80769e-07
-5.01146e-08
2.00105e-07
-4.1384e-08
2.01438e-07
-5.7669e-09
1.80687e-07
3.38833e-08
1.67124e-07
5.8733e-08
1.67156e-07
6.3792e-08
1.61195e-07
7.3109e-08
1.46981e-07
8.29226e-08
1.12428e-07
1.17224e-07
1.45613e-07
-6.16795e-08
-1.37305e-07
9.68307e-08
-6.94549e-09
6.80769e-08
-1.36891e-08
7.52946e-08
-1.38735e-08
8.87194e-08
1.97031e-08
1.20541e-07
3.54008e-08
1.40429e-07
5.04026e-08
1.40729e-07
7.28143e-08
1.28986e-07
9.46666e-08
1.1922e-07
1.18309e-07
-1.27819e-08
-6.69411e-08
2.23492e-08
-2.19331e-08
2.16024e-09
-4.19234e-08
6.25569e-09
-4.36536e-08
-1.61864e-08
-1.1138e-08
-9.58866e-09
3.50394e-08
-7.48229e-09
6.8151e-08
1.95213e-08
8.10372e-08
5.99288e-08
8.50467e-08
9.06571e-08
1.07153e-07
9.3637e-08
-7.14752e-08
-8.22334e-08
8.64572e-08
-3.21853e-08
-3.71751e-08
-4.15762e-09
-2.18375e-08
1.2038e-08
-3.00565e-08
1.68403e-08
-1.12534e-08
3.14595e-08
-2.05372e-08
2.89555e-08
2.20258e-08
4.22353e-08
4.66491e-08
5.92284e-08
7.3664e-08
9.66306e-08
6.85707e-08
-3.60908e-08
-7.44377e-08
2.83216e-08
-1.58708e-08
-5.91549e-08
9.41281e-10
-4.46321e-08
2.15894e-08
-6.13982e-08
3.87087e-08
-3.26616e-08
1.87953e-08
2.7393e-09
-8.28662e-09
4.91078e-08
1.28313e-09
3.70794e-08
1.96026e-08
5.53446e-08
7.25194e-08
4.39788e-08
9.50593e-08
-3.5557e-08
-1.33939e-07
6.56276e-08
-2.97231e-08
5.17624e-08
-3.07669e-08
2.77966e-08
-3.74322e-08
7.64989e-09
-1.60205e-08
2.49828e-09
9.04777e-09
-9.50962e-10
5.03651e-08
-5.93125e-10
3.50828e-08
1.17289e-08
4.30226e-08
5.73399e-08
2.69085e-08
1.7541e-07
9.99004e-09
-2.20958e-07
1.26159e-07
1.9528e-08
8.93778e-08
6.01472e-09
5.68391e-08
-4.89348e-09
2.83878e-08
1.24313e-08
2.17365e-08
1.44029e-08
2.81431e-08
4.2793e-08
3.31288e-08
2.89366e-08
3.72651e-08
3.68414e-08
4.48345e-08
4.72959e-08
2.01792e-07
2.24592e-08
-2.25556e-07
1.79909e-07
3.77365e-08
1.70227e-07
4.77309e-08
1.32547e-07
3.28935e-08
9.84248e-08
4.6554e-08
7.16872e-08
4.11569e-08
7.6487e-08
3.61769e-08
6.21205e-08
4.13639e-08
6.05141e-08
4.03359e-08
3.53151e-08
6.84982e-08
3.10594e-07
1.82867e-08
-3.14361e-07
3.19726e-07
2.49067e-08
3.2979e-07
3.3994e-08
3.06906e-07
5.23169e-08
2.90174e-07
6.01054e-08
2.44459e-07
8.3866e-08
2.10874e-07
8.41938e-08
1.68038e-07
9.44323e-08
1.43665e-07
6.75487e-08
5.24533e-08
1.29211e-07
4.16101e-07
5.20096e-08
-4.50081e-07
3.93084e-07
4.58215e-08
3.84441e-07
4.66808e-08
3.95709e-07
5.08108e-08
3.87567e-07
6.91e-08
3.41841e-07
9.91559e-08
3.20192e-07
1.02405e-07
3.04313e-07
1.04928e-07
2.69328e-07
9.75765e-08
7.7104e-08
2.66032e-07
5.37382e-07
1.23473e-07
-6.08793e-07
4.67998e-07
1.15262e-07
4.30284e-07
8.44039e-08
4.14418e-07
6.66398e-08
4.14254e-07
6.92305e-08
4.1718e-07
9.53656e-08
3.94835e-07
1.2302e-07
3.53179e-07
1.15825e-07
3.4606e-07
1.00611e-07
8.42297e-08
3.35127e-07
7.17103e-07
1.73904e-07
-7.62474e-07
6.0986e-07
2.22519e-07
5.01466e-07
1.9278e-07
4.52685e-07
1.15388e-07
4.33294e-07
8.85852e-08
4.28736e-07
9.98985e-08
4.25367e-07
1.2638e-07
4.0697e-07
1.34224e-07
3.58079e-07
1.28385e-07
9.68945e-08
3.41347e-07
7.86828e-07
1.79249e-07
-8.13054e-07
6.43834e-07
2.28506e-07
5.49425e-07
2.20361e-07
4.88343e-07
1.77755e-07
4.4372e-07
1.33184e-07
4.15776e-07
1.27834e-07
4.02288e-07
1.39868e-07
3.96627e-07
1.39893e-07
3.8482e-07
1.36276e-07
1.27414e-07
3.68392e-07
2.25938e-07
6.11928e-08
-3.90272e-07
1.89303e-07
9.274e-08
2.74465e-07
1.0777e-07
3.92164e-07
1.15862e-07
3.73351e-07
1.51804e-07
3.62616e-07
1.38552e-07
3.58947e-07
1.43545e-07
3.46598e-07
1.52251e-07
3.33818e-07
1.49066e-07
1.46351e-07
3.14892e-07
3.40435e-08
3.7577e-08
-2.18404e-08
6.49279e-08
6.15587e-08
1.03001e-07
6.95815e-08
1.49925e-07
6.8781e-08
2.56534e-07
6.72128e-08
3.13356e-07
9.75542e-08
3.21592e-07
1.3532e-07
2.85646e-07
1.88209e-07
2.39435e-07
1.95286e-07
1.74213e-07
2.11577e-07
-2.23653e-08
9.49642e-09
5.01491e-08
1.5996e-08
2.31256e-08
4.78471e-08
3.77202e-08
7.0841e-08
4.57758e-08
9.19962e-08
4.60635e-08
1.57683e-07
5.22773e-08
1.90775e-07
5.34666e-08
1.82083e-07
1.10793e-07
1.4686e-07
1.59509e-07
1.4973e-07
1.34672e-07
-8.78322e-08
-1.20271e-08
1.09284e-07
-6.42755e-08
-4.41005e-10
-4.67203e-08
2.01582e-08
-3.24601e-08
3.15092e-08
-2.13221e-08
3.49196e-08
-1.54058e-08
4.63535e-08
-9.19782e-09
4.39851e-08
-6.0619e-09
5.39469e-08
1.19699e-08
5.78566e-08
4.9099e-08
4.3135e-08
-2.63199e-07
-1.3344e-08
3.70205e-07
-7.42029e-08
-3.46358e-08
-6.69895e-08
1.29374e-08
-6.83606e-08
3.28737e-08
-7.27987e-08
3.93513e-08
-7.84233e-08
5.19722e-08
-7.67776e-08
4.23317e-08
-7.02045e-08
4.72705e-08
-4.99524e-08
3.64969e-08
2.44541e-08
-2.83285e-08
2.40697e-08
-2.24002e-08
-4.47724e-08
-5.41703e-08
4.54064e-08
-9.67117e-08
8.77398e-08
-9.01137e-08
6.11762e-08
-1.13745e-07
9.42001e-08
-1.08888e-07
9.80313e-08
-7.5817e-08
9.90667e-08
-4.20404e-08
8.0388e-08
-1.07663e-08
5.31437e-08
5.12891e-08
-3.09709e-10
5.28524e-07
-2.21113e-08
-5.28811e-07
2.019e-07
5.08147e-08
7.90804e-08
8.9268e-08
7.1375e-08
5.389e-08
7.50396e-08
6.88663e-08
6.75314e-08
7.86847e-08
6.45695e-08
1.00062e-07
6.68801e-08
7.41394e-08
9.57485e-08
1.61726e-08
2.85761e-08
1.08981e-07
5.00136e-07
-3.72887e-08
-4.84958e-07
5.58333e-07
-7.38054e-09
1.7795e-07
4.50659e-08
1.60305e-07
6.09763e-08
1.55317e-07
6.82509e-08
1.64282e-07
6.86335e-08
1.88417e-07
6.6986e-08
1.97255e-07
4.98603e-08
1.63488e-07
3.42295e-08
2.99961e-08
9.79044e-08
5.26413e-07
2.63415e-10
-5.63962e-07
5.31866e-07
-1.28298e-08
2.66067e-07
6.35817e-09
1.53717e-07
4.48563e-08
1.63977e-07
5.95893e-08
1.62311e-07
6.77904e-08
1.60665e-07
6.65659e-08
1.4466e-07
6.44502e-08
1.22359e-07
5.52921e-08
4.2323e-08
1.14524e-07
7.53034e-07
5.91692e-08
-8.11936e-07
6.87242e-07
5.29635e-08
6.45052e-07
4.85508e-08
2.90716e-07
8.3826e-08
1.65015e-07
7.47276e-08
1.60534e-07
7.02555e-08
1.57494e-07
6.81703e-08
1.55748e-07
6.49331e-08
1.5795e-07
5.1919e-08
2.96068e-08
1.69413e-07
8.30532e-07
1.12277e-07
-8.69657e-07
7.76096e-07
1.14491e-07
7.09034e-07
1.15059e-07
4.68146e-07
1.51268e-07
1.6193e-07
1.20309e-07
1.5953e-07
6.97418e-08
1.6758e-07
5.85301e-08
1.78166e-07
5.29119e-08
2.53364e-07
5.15222e-08
1.10885e-07
8.35501e-07
5.61992e-07
5.83491e-08
-5.3109e-07
5.59213e-07
9.36972e-08
5.06693e-07
1.41742e-07
4.43019e-07
1.53781e-07
2.25595e-07
1.83937e-07
1.33685e-07
1.17065e-07
2.8798e-07
9.3069e-08
6.20291e-07
1.28236e-07
8.95109e-07
1.55235e-07
1.31902e-07
8.88295e-07
4.4402e-07
5.71787e-09
-3.6808e-07
5.03006e-07
3.65895e-08
5.66479e-07
8.68017e-08
6.06693e-07
1.25898e-07
6.47617e-07
1.47629e-07
6.46034e-07
1.58062e-07
6.89184e-07
1.59957e-07
7.58147e-07
1.57011e-07
7.8272e-07
1.50655e-07
1.37562e-07
7.77878e-07
3.131e-07
-2.30783e-09
-2.49134e-07
3.5889e-07
1.28451e-08
4.03718e-07
4.4661e-08
4.47738e-07
8.44622e-08
4.78813e-07
1.19342e-07
5.05399e-07
1.34163e-07
5.36224e-07
1.29153e-07
5.70038e-07
1.2333e-07
5.93802e-07
1.26958e-07
1.30912e-07
6.00306e-07
1.94695e-08
-5.13182e-09
-6.25172e-10
5.58548e-08
-1.89821e-09
1.08952e-07
5.95622e-09
9.88474e-08
7.69106e-08
9.59064e-08
1.02339e-07
1.48316e-07
7.87053e-08
2.1029e-07
6.72104e-08
2.57441e-07
7.62085e-08
2.95956e-07
8.66292e-08
1.02783e-07
3.23691e-07
-4.11317e-09
-1.24709e-08
1.06851e-08
-1.29769e-09
-5.4222e-09
-6.82759e-10
6.88577e-10
-2.53685e-08
1.54971e-08
-7.57161e-08
3.089e-08
-6.37501e-08
2.87134e-08
-4.45756e-08
4.8066e-08
-2.87491e-08
6.04126e-08
1.27858e-09
5.58183e-08
6.50203e-08
3.88874e-08
-1.23503e-08
-2.893e-08
2.79871e-08
-1.23729e-10
-1.7804e-08
4.91255e-09
-4.19075e-09
1.38716e-08
6.2704e-09
1.46322e-08
1.75644e-08
-3.01336e-10
1.69401e-08
-3.14937e-08
4.87848e-08
-7.92365e-08
8.25738e-08
-1.0418e-07
8.07106e-08
5.01305e-08
-8.93234e-08
-4.47216e-08
-1.06996e-07
9.80811e-08
-2.16021e-08
-1.16897e-07
-8.34873e-09
-3.86568e-08
6.59664e-09
-1.03112e-08
1.47584e-08
7.35683e-09
1.62999e-08
1.41399e-08
1.50265e-08
1.41909e-08
-2.16155e-08
1.42718e-08
-1.03236e-07
4.05344e-08
2.85806e-08
-1.1841e-07
-5.2366e-07
-4.14159e-07
4.78388e-07
-5.47758e-07
-3.8844e-07
-3.17978e-07
-2.89483e-07
-8.92614e-08
-1.64381e-07
-1.29656e-08
-3.38656e-08
-2.72866e-09
2.90621e-09
1.92112e-09
8.56071e-09
-3.58325e-10
1.84222e-08
-2.92728e-09
1.35476e-08
5.63154e-10
-1.79448e-08
-7.77904e-07
-4.15212e-07
7.8198e-07
-7.65143e-07
-3.98627e-07
-7.01072e-07
-3.50081e-07
-5.75324e-07
-2.84232e-07
-1.63324e-07
-1.44707e-07
-3.26501e-08
-1.50928e-08
-2.58839e-08
2.48382e-09
-1.47398e-08
9.1723e-09
-7.79718e-09
9.07381e-09
2.7893e-09
-9.66754e-09
-8.20772e-07
-3.87349e-07
7.95317e-07
-8.09184e-07
-4.0669e-07
-7.82735e-07
-3.71222e-07
-7.60119e-07
-2.92146e-07
-3.37764e-07
-7.75019e-08
-5.92128e-08
-9.6795e-09
-5.30789e-08
-1.25723e-09
-4.34368e-08
2.33431e-09
-3.45586e-08
4.14241e-09
3.99975e-09
-2.9854e-08
-8.24373e-07
-3.95917e-07
6.27968e-07
-8.26415e-07
-4.00125e-07
-8.15486e-07
-3.737e-07
-4.27784e-07
-2.57401e-07
-7.13341e-08
-3.9371e-08
-6.54593e-08
-1.15763e-08
-5.67464e-08
-7.16606e-09
-4.5739e-08
-4.72627e-09
-3.35514e-08
-3.46274e-09
-3.47717e-09
-2.12165e-08
-8.05342e-07
-3.7381e-07
6.62654e-07
-8.28632e-07
-3.74181e-07
-8.22199e-07
-3.7426e-07
-3.67888e-07
-3.28816e-07
-8.89939e-08
-1.09619e-07
-7.01518e-08
-2.57566e-08
-6.04745e-08
-1.28651e-08
-5.06402e-08
-9.97808e-09
-3.96775e-08
-9.48045e-09
-9.78515e-09
-2.88999e-08
-7.5821e-07
-3.50746e-07
7.37712e-07
-7.99642e-07
-3.30459e-07
-8.39247e-07
-3.32001e-07
-8.33032e-07
-3.29297e-07
-3.5106e-07
-2.49219e-07
-1.24791e-07
-1.34479e-07
-7.57098e-08
-5.7319e-08
-5.89769e-08
-2.18083e-08
-4.79918e-08
-1.59442e-08
-1.72572e-08
-3.69861e-08
-6.82536e-07
-4.07614e-07
7.14878e-07
-6.82761e-07
-3.27943e-07
-7.22874e-07
-2.89598e-07
-7.88796e-07
-2.60846e-07
-7.66746e-07
-2.14056e-07
-5.97759e-07
-1.58009e-07
-4.02904e-07
-1.75712e-07
-2.50886e-07
-1.66137e-07
-1.58038e-07
-1.55958e-07
-1.89735e-07
-1.46253e-07
-6.76645e-07
-6.49031e-07
9.20782e-07
-5.68226e-07
-4.34071e-07
-5.15899e-07
-3.39205e-07
-5.06426e-07
-2.88574e-07
-4.95053e-07
-2.07439e-07
-4.51653e-07
-1.44214e-07
-5.09492e-07
-1.59656e-07
-5.35776e-07
-1.67742e-07
-5.40425e-07
-1.7967e-07
-2.39312e-07
-6.17448e-07
-9.39816e-07
-8.26063e-07
1.12073e-06
-6.34638e-07
-7.36507e-07
-4.32358e-07
-5.37963e-07
-3.03662e-07
-4.11377e-07
-2.33049e-07
-3.06552e-07
-1.93367e-07
-2.50609e-07
-2.02184e-07
-2.10773e-07
-2.59052e-07
-1.35915e-07
-3.55597e-07
-1.06711e-07
-7.69519e-08
-4.59266e-07
-8.58577e-07
-1.52248e-07
3.48835e-07
-8.59047e-07
-6.07649e-07
-5.7004e-07
-8.23832e-07
-3.0022e-07
-6.79526e-07
-1.76366e-07
-4.28732e-07
-1.18046e-07
-3.06981e-07
-7.85365e-08
-2.64378e-07
-5.00657e-09
-1.90485e-07
-1.98335e-08
-3.87296e-08
2.90457e-09
-4.21543e-08
-1.68622e-07
-7.02143e-09
2.42979e-08
-3.42038e-07
-5.77116e-08
-6.7018e-07
-2.57424e-07
-4.70182e-07
-8.78275e-07
-2.45023e-07
-6.52e-07
-2.0938e-07
-3.40163e-07
-1.76027e-07
-2.93683e-07
-5.15044e-08
-1.26003e-07
-2.88552e-08
-5.88979e-09
1.56959e-08
-2.15354e-08
-7.77442e-09
-6.83132e-10
1.02268e-09
-5.64859e-08
-8.09766e-09
-1.68594e-07
-3.217e-08
-5.37261e-07
-3.46211e-07
-3.59671e-07
-8.27091e-07
-3.41875e-07
-3.54777e-07
-3.17565e-07
-2.51098e-07
-3.49364e-08
-9.65953e-08
-3.67034e-08
-4.53226e-09
7.0556e-09
-2.82343e-08
-9.46106e-10
-2.56934e-10
2.95648e-10
-6.12372e-09
-3.37605e-09
-2.07196e-08
-1.90554e-08
-2.98519e-07
-1.8273e-07
-4.4488e-07
-7.5677e-07
-4.09045e-07
-3.85441e-07
-4.70553e-07
-1.74977e-07
-8.23266e-08
-1.53916e-07
-3.57002e-08
-5.13166e-08
2.29964e-10
-2.90334e-08
-2.54981e-10
-5.72591e-11
4.53187e-11
-2.42883e-09
-1.47189e-09
-8.95052e-09
-1.48679e-08
-1.54244e-07
-2.28978e-07
-4.8866e-07
-7.71623e-07
-4.16246e-07
-5.25204e-07
-4.74844e-07
-1.15313e-07
-5.11748e-07
-1.16065e-07
-1.67275e-07
-9.9712e-08
-4.98564e-08
-5.47185e-08
0
-6.8458e-13
-4.65761e-11
-1.39156e-09
-8.42013e-11
-1.05617e-08
-6.54312e-09
-1.73781e-07
-2.46099e-07
-2.68389e-07
-1.03739e-06
-2.74314e-07
-6.34628e-07
-4.13025e-07
2.43565e-08
-5.0181e-07
-2.62923e-08
-5.2704e-07
-7.35361e-08
-8.92511e-08
-4.86663e-07
1.48374e-13
-8.71278e-13
-8.53627e-14
-7.36152e-11
-9.86765e-12
-5.42141e-09
-1.48595e-09
-1.7625e-07
-1.8745e-07
-1.37191e-07
-1.17179e-06
-4.97734e-10
-8.8869e-07
-6.38386e-08
6.5695e-08
-1.95642e-07
7.02958e-08
-2.90395e-07
5.43681e-09
-7.7589e-08
-2.97826e-07
-7.44579e-13
-9.21388e-13
6.5809e-13
0
-1.29443e-11
-1.45876e-10
-1.28231e-09
-8.02304e-08
-2.11192e-07
-1.09522e-07
-1.14096e-06
-3.36999e-08
-1.02895e-06
2.48024e-08
-1.82806e-08
6.37499e-08
1.4318e-08
7.11033e-08
7.29776e-09
-3.64091e-08
7.26035e-08
-4.62866e-12
-2.68709e-12
6.14923e-12
-2.89254e-12
-1.38888e-11
-1.51186e-10
-1.16241e-09
-8.74999e-08
-2.04357e-07
-7.97584e-08
-1.14708e-06
-8.24307e-09
-1.10102e-06
0
-8.17547e-08
3.9354e-08
4.87848e-08
1.06158e-07
-7.06803e-10
-1.21759e-08
1.06368e-07
-4.45268e-12
-4.6851e-11
4.82138e-11
0
-2.81191e-12
-5.50799e-10
-6.23171e-10
-6.29444e-08
-2.09223e-07
-5.1204e-08
-1.15719e-06
-1.6831e-08
-1.14136e-06
1.30702e-08
-1.76123e-07
4.1466e-08
1.28511e-08
1.43515e-08
6.93988e-11
0
1.41487e-10
5.41364e-13
-1.42577e-11
-6.06735e-11
-1.71853e-12
-1.43815e-12
-6.0761e-10
-2.21803e-12
-3.06702e-08
-1.88465e-07
-2.20616e-08
-1.16417e-06
-1.08532e-08
-1.15054e-06
0
-1.88966e-07
1.31784e-10
-7.14185e-12
2.10156e-10
0
0
1.8697e-10
5.5803e-14
-4.60326e-12
-1.48175e-11
3.66365e-13
-1.04806e-12
2.47569e-13
-2.11105e-12
4.19291e-09
-1.56644e-07
2.80306e-09
-1.16072e-06
6.0377e-09
-1.15473e-06
-4.76078e-12
-1.56469e-07
0
-1.54305e-11
2.62769e-11
-2.59923e-11
-9.25042e-12
4.92781e-11
6.98019e-13
-3.22626e-13
-4.99873e-12
2.90433e-13
-6.45551e-13
1.69502e-13
-1.99391e-12
2.07166e-09
-9.06419e-08
4.26981e-09
-1.14823e-06
4.85634e-09
-1.14918e-06
-6.69238e-12
-9.22781e-08
0
-2.4951e-11
7.5307e-12
-6.94339e-11
-3.60374e-12
1.31133e-12
2.05113e-13
-2.90523e-13
-2.42149e-13
1.81443e-13
-6.26198e-13
3.95159e-14
-1.85661e-12
-6.72706e-10
-3.01362e-08
-2.87092e-09
-1.06398e-06
-2.32413e-09
-1.06531e-06
-1.17502e-10
-3.15685e-08
-1.16449e-10
-2.95324e-11
-7.53576e-11
-8.84855e-11
-3.03185e-11
-4.87221e-11
2.26702e-13
-4.3893e-13
-9.83674e-14
2.93227e-13
-6.97655e-13
1.47796e-13
-1.71574e-12
2.48835e-09
-1.90612e-09
-1.89952e-09
-9.05512e-07
-4.11333e-09
-9.0819e-07
-1.58008e-10
-3.39427e-09
-1.62972e-10
-3.31978e-11
-2.24438e-11
-9.04071e-11
-1.01521e-10
-1.7414e-10
4.9664e-13
-3.09607e-13
-6.88884e-13
7.13822e-13
-1.2259e-12
5.56901e-13
-1.56421e-12
5.65466e-09
-1.81108e-11
-1.2078e-10
-7.63938e-07
-5.72845e-09
-7.65784e-07
-2.92392e-11
-7.91288e-11
-6.25625e-11
-2.57272e-11
-9.3126e-11
-3.02758e-11
-4.22471e-11
-3.34792e-11
8.67972e-13
-4.89901e-11
-2.24551e-11
7.48948e-13
-2.15041e-12
6.63121e-13
-1.49051e-12
1.42052e-10
-1.5953e-10
-1.87341e-10
-6.92409e-07
-1.44943e-10
-6.92429e-07
-4.01349e-12
-2.38873e-10
-4.46511e-12
-4.40904e-11
4.21188e-11
-1.50309e-10
-6.51248e-11
4.3276e-11
8.39885e-13
-1.26043e-10
-4.09475e-11
8.14414e-13
-2.79172e-12
6.44877e-13
-1.32203e-12
6.71089e-10
-8.29907e-10
4.17708e-10
-6.59896e-07
-6.84664e-10
-6.60402e-07
-1.18513e-11
-9.50621e-10
-1.57392e-11
-5.6945e-11
5.33437e-12
-1.57822e-10
-6.82717e-11
1.49512e-11
2.95944e-12
-9.42785e-11
-1.56858e-11
2.81045e-13
-5.92536e-13
2.46772e-13
-1.28777e-12
2.7793e-09
-3.6089e-09
1.78822e-11
-7.54357e-07
-2.84872e-09
-7.57997e-07
-1.41384e-11
-3.87035e-09
-4.3027e-11
-2.63951e-11
-2.76381e-11
-1.41447e-10
-6.46613e-11
-5.40731e-13
-1.71307e-13
-1.05487e-11
6.34404e-11
-7.90571e-14
-6.84791e-13
1.3416e-14
-1.38024e-12
6.40326e-09
-1.01893e-08
-4.85918e-10
-8.82727e-07
-6.66743e-09
-8.83975e-07
-4.96661e-11
-1.07228e-08
-3.14547e-11
-1.9305e-12
-6.15897e-11
-8.57789e-11
-5.8088e-11
-9.06491e-13
-2.3854e-13
-2.84725e-12
1.276e-11
-1.14058e-13
-8.09342e-13
1.62042e-14
-1.51051e-12
5.18774e-09
-5.69418e-08
-6.47768e-10
-9.55644e-07
-5.79385e-09
-9.5412e-07
-2.03498e-13
-5.70504e-08
0
-2.13652e-12
-2.31565e-12
-6.23468e-12
-1.36039e-11
-5.041e-12
-1.59422e-13
-4.17319e-12
3.21254e-12
-6.18819e-14
-9.0735e-13
6.2595e-14
-1.63506e-12
3.76846e-09
-1.19435e-07
-1.61322e-09
-9.82889e-07
-5.55829e-09
-9.81507e-07
-2.12985e-13
-1.18459e-07
1.32867e-13
-2.48401e-12
7.9406e-13
-6.8984e-12
0
1.65676e-12
6.10401e-14
-1.16196e-11
0
-4.42381e-15
-8.45694e-13
1.13315e-13
-1.75327e-12
2.42708e-09
-1.51025e-07
2.28536e-11
-9.86236e-07
-3.18161e-09
-9.85379e-07
-3.52871e-13
-1.52176e-07
0
-2.8394e-12
6.13292e-12
-3.40716e-11
-1.16126e-11
1.63459e-12
0
-6.60363e-12
-4.01455e-11
0
-1.59925e-12
2.26209e-13
-1.98329e-12
6.36003e-09
-1.54654e-07
7.73237e-09
-9.82937e-07
5.59566e-09
-9.81734e-07
-4.70916e-13
-1.55961e-07
0
-3.31609e-12
-1.10422e-11
-3.74822e-11
-1.11773e-11
-8.78367e-12
0
-1.06383e-12
-1.12965e-11
6.91757e-13
0
1.25901e-12
-2.58171e-12
9.0867e-09
-1.46722e-07
1.12526e-08
-9.7652e-07
7.17543e-09
-9.76506e-07
-3.44437e-12
-1.47763e-07
-3.44967e-12
-3.34119e-12
-1.75278e-11
-1.38631e-11
-1.74203e-11
-8.67052e-12
0
-2.41157e-13
0
4.04921e-12
-8.685e-12
5.4385e-12
-4.21352e-12
3.68883e-09
-1.14335e-07
-6.81802e-12
-9.56534e-07
-4.39239e-09
-9.56717e-07
-1.49875e-12
-1.13902e-07
-1.75732e-12
-3.44268e-12
-1.62503e-12
-3.82451e-12
-1.54764e-11
-9.59049e-13
1.68133e-12
-2.65235e-13
-1.96872e-13
1.68439e-11
-1.31329e-12
1.83884e-11
-6.22808e-12
5.55891e-09
-8.22191e-08
-1.2809e-10
-9.19794e-07
-6.85841e-09
-9.19501e-07
-6.84711e-13
-8.29988e-08
-1.45785e-12
-3.38608e-12
-6.61447e-12
-4.12074e-12
-6.03716e-12
-1.7253e-11
4.84448e-12
-6.16411e-13
-1.74746e-13
2.96185e-11
-1.19063e-12
3.02173e-11
-7.62385e-12
9.5559e-09
-6.80843e-08
1.2951e-09
-8.87293e-07
-6.96036e-09
-8.88648e-07
-2.57531e-12
-6.84549e-08
-3.20376e-12
-3.06427e-12
-3.82304e-12
-4.38694e-12
-2.25796e-11
-1.38877e-11
1.0502e-11
-1.22262e-13
-4.19681e-13
3.09221e-11
-7.27757e-12
3.09818e-11
-8.68665e-12
8.90009e-09
-6.57553e-08
-4.80575e-10
-8.64515e-07
-1.04458e-08
-8.63725e-07
-3.50978e-12
-6.66146e-08
-4.11597e-12
-2.45933e-12
-2.50976e-11
-3.97196e-13
-1.1122e-11
-9.21446e-11
1.45972e-11
-2.14252e-11
-1.6671e-12
2.72538e-11
-4.92358e-11
2.83851e-11
-1.03811e-11
1.1225e-08
-7.10212e-08
2.70069e-09
-8.50783e-07
-8.37542e-09
-8.48304e-07
-3.05818e-13
-6.89161e-08
-2.77308e-13
-2.48811e-12
-3.28457e-13
-3.4019e-13
2.6678e-12
-8.59753e-11
3.35438e-11
-3.65289e-11
-2.62395e-11
3.22859e-11
-6.12085e-11
3.183e-11
-1.03102e-11
1.08438e-08
-9.5371e-08
1.71029e-09
-8.57734e-07
-9.44436e-09
-8.57602e-07
-4.25966e-13
-9.48373e-08
-4.82462e-13
-2.44498e-12
-8.12608e-13
-1.03147e-14
2.47926e-11
-9.37792e-11
3.79566e-11
-3.23734e-11
-2.39102e-11
1.91235e-11
-4.38761e-11
1.82978e-11
-9.66696e-12
1.14149e-08
-1.3234e-07
1.26727e-09
-8.66876e-07
-9.50274e-09
-8.67981e-07
-1.69047e-13
-1.32902e-07
-1.30139e-14
-2.61793e-12
1.26868e-12
-6.48538e-13
1.5904e-12
-4.61025e-13
3.0957e-11
-4.38109e-12
-4.10048e-11
7.43716e-12
-1.23046e-11
7.25819e-12
-9.42763e-12
8.52545e-09
-1.61698e-07
-1.63964e-09
-8.6821e-07
-1.06601e-08
-8.68471e-07
-5.40536e-13
-1.61979e-07
-4.70492e-13
-2.72122e-12
6.48661e-13
-1.42068e-12
1.18163e-12
8.43368e-13
1.42229e-11
5.50125e-12
-4.71624e-12
7.52e-12
-5.41663e-13
6.99665e-12
-8.68274e-12
9.51158e-09
-1.75466e-07
6.78991e-10
-8.61343e-07
-8.74021e-09
-8.61084e-07
-9.56981e-13
-1.75718e-07
-9.72532e-13
-2.73159e-12
2.20828e-14
-2.01436e-12
5.19867e-13
4.49233e-13
2.87901e-12
2.52735e-12
-2.14433e-12
4.55438e-12
4.69018e-12
5.04288e-12
-8.79947e-12
9.5754e-09
-1.78281e-07
3.88055e-10
-8.49446e-07
-9.56755e-09
-8.48042e-07
-6.25771e-13
-1.78398e-07
-7.2178e-13
-2.64948e-12
-2.86999e-12
-4.66911e-13
1.18623e-12
1.21602e-12
0
3.57433e-12
-4.0361e-12
9.38483e-12
8.22352e-12
9.36772e-12
-8.35038e-12
1.0721e-08
-1.77239e-07
-3.0961e-10
-8.33771e-07
-1.17222e-08
-8.31329e-07
-1.85521e-13
-1.77514e-07
-2.11992e-13
-2.63599e-12
-1.78168e-13
-4.80082e-13
6.61757e-15
0
0
7.16011e-12
-7.21866e-12
1.19146e-11
4.19944e-12
1.18155e-11
-7.73434e-12
1.28349e-08
-1.76953e-07
-1.11597e-09
-8.14858e-07
-1.36006e-08
-8.1349e-07
-2.57301e-13
-1.77433e-07
-2.50153e-13
-2.62248e-12
-2.5382e-13
-4.50271e-13
1.0219e-13
-2.8679e-13
4.99006e-13
5.04529e-12
-2.6541e-12
1.14206e-11
7.77736e-13
1.14221e-11
-7.20389e-12
1.46345e-08
-1.81016e-07
4.95119e-11
-7.96779e-07
-1.39152e-08
-7.96301e-07
-9.09091e-13
-1.81566e-07
-5.13359e-13
-3.02371e-12
-2.33823e-13
-7.30449e-13
1.63278e-13
-2.95595e-13
4.20558e-12
1.90907e-11
8.66548e-13
1.22289e-11
-3.20039e-12
1.20892e-11
-6.58524e-12
1.56776e-08
-1.95149e-07
-9.28397e-10
-7.7996e-07
-1.64729e-08
-7.80062e-07
-5.73035e-12
-1.95489e-07
-4.07227e-12
-4.68178e-12
-3.84211e-13
-7.92686e-12
2.03018e-13
-1.54094e-13
2.49635e-12
2.24096e-11
-1.37081e-12
1.07923e-11
-2.89899e-12
1.03999e-11
-5.76096e-12
1.75895e-08
-2.21601e-07
-1.33552e-09
-7.63123e-07
-1.82892e-08
-7.64899e-07
-2.39549e-11
-2.21911e-07
-2.14992e-11
-7.13314e-12
-2.28383e-13
-3.20316e-11
5.42219e-14
-7.97191e-14
7.38115e-12
1.88763e-11
-5.26206e-13
8.67791e-12
-1.07419e-12
8.42341e-12
-5.14045e-12
1.64749e-08
-2.52726e-07
-1.9081e-09
-7.47302e-07
-1.97953e-08
-7.48677e-07
-4.03546e-11
-2.5287e-07
-3.99465e-11
-7.46457e-12
-3.05747e-11
-3.9348e-11
-1.97768e-11
-8.3684e-12
5.37875e-12
1.78792e-11
-9.73012e-13
9.74862e-12
7.57592e-13
9.44684e-12
-4.59577e-12
1.79679e-08
-2.82963e-07
-1.35941e-09
-7.29515e-07
-2.11997e-08
-7.29855e-07
-1.91051e-11
-2.83575e-07
-1.78439e-11
-8.5834e-12
-1.65451e-11
-3.07694e-11
-3.37625e-11
-1.99144e-13
1.10564e-11
1.74502e-11
-7.24376e-12
1.24001e-11
2.34975e-12
1.18421e-11
-3.93303e-12
1.91946e-08
-3.08185e-07
-4.99222e-10
-7.10331e-07
-2.12434e-08
-7.0936e-07
-1.78208e-11
-3.08482e-07
-1.78351e-11
-7.68998e-12
-8.05727e-12
-3.23593e-11
-2.92048e-11
-6.38828e-12
1.07089e-11
1.64463e-11
-6.32086e-12
1.24437e-11
2.80948e-12
1.19261e-11
-3.31558e-12
1.97453e-08
-3.26572e-07
-3.47048e-10
-6.90201e-07
-2.14706e-08
-6.87956e-07
-2.43402e-11
-3.26274e-07
-2.48365e-11
-5.87814e-12
-3.59134e-11
-1.7443e-11
-2.7275e-11
-3.20663e-11
7.97763e-12
1.38408e-11
-2.07377e-12
8.15928e-12
1.16916e-12
7.62333e-12
-2.62318e-12
2.27491e-08
-3.42588e-07
-3.84684e-10
-6.67279e-07
-2.26534e-08
-6.64977e-07
-1.37605e-11
-3.41806e-07
-1.30835e-11
-5.11691e-12
-2.90826e-11
-1.21817e-12
-3.89123e-12
-4.65873e-11
1.85728e-13
2.35584e-12
8.84951e-13
5.99348e-13
-4.07996e-14
9.61309e-12
-1.15563e-11
2.35973e-08
-3.62693e-07
-4.35285e-09
-6.39879e-07
-2.9161e-08
-6.39607e-07
-1.71219e-11
-3.61754e-07
-9.00168e-13
-2.04293e-11
0
-3.75092e-13
-6.49402e-14
-3.05211e-12
-8.48297e-15
0
4.65079e-13
7.51665e-14
-1.26851e-13
1.02636e-10
-1.1412e-10
2.56921e-08
-3.87096e-07
-2.97642e-09
-6.11356e-07
-3.14704e-08
-6.11024e-07
-1.65877e-10
-3.87713e-07
-4.8737e-13
-1.85833e-10
-1.17917e-13
-7.58656e-13
-1.96593e-13
0
2.53765e-14
-1.31124e-13
1.09945e-13
1.12283e-13
-2.16115e-13
1.02225e-09
-1.13626e-09
2.73708e-08
-4.11467e-07
6.86723e-09
-5.90935e-07
-2.4932e-08
-5.79201e-07
-1.65205e-09
-4.09276e-07
-9.86795e-13
-1.83691e-09
-7.21273e-13
-1.03829e-12
-1.68739e-12
1.13971e-12
1.37688e-12
-5.2866e-13
-4.53025e-13
1.45577e-12
-2.84993e-13
7.86527e-09
-9.00008e-09
3.62353e-08
-4.38406e-07
-1.44723e-09
-5.53289e-07
-2.36868e-08
-5.57059e-07
-1.00152e-08
-4.20552e-07
-5.12288e-13
-1.18516e-08
-2.74086e-13
-1.29354e-12
-1.85215e-12
-1.2625e-13
2.76738e-12
-9.36543e-13
-1.84975e-12
2.73202e-12
-2.54431e-13
1.08195e-08
-1.85117e-08
-2.3523e-09
-4.24855e-07
-3.8081e-08
-5.17602e-07
-6.82913e-08
-5.26872e-07
-3.09479e-08
-4.57349e-07
-4.38234e-12
-4.04094e-08
-4.32766e-12
-1.30723e-12
-2.09707e-12
-7.29725e-12
2.34659e-12
-1.47568e-13
-2.79171e-12
3.56769e-12
-1.45917e-12
2.91506e-08
-4.91184e-08
3.24457e-08
-4.2963e-07
5.17962e-09
-4.90352e-07
-3.31115e-08
-4.88584e-07
-3.46954e-08
-4.56105e-07
-1.03112e-11
-7.53876e-08
-4.56951e-12
-6.49197e-12
-4.2074e-13
-9.76296e-12
1.16749e-13
-4.69981e-15
-2.68176e-13
3.65324e-11
-3.78793e-11
4.12249e-08
-8.93301e-08
3.65706e-08
-4.25595e-07
-4.3419e-09
-4.49399e-07
-4.49356e-08
-4.48016e-07
-6.01571e-08
-4.42036e-07
-1.38024e-10
-1.40696e-07
-2.02441e-12
-1.42172e-10
-1.54752e-14
-1.89003e-12
6.25385e-13
-6.30085e-13
-7.46406e-23
9.32632e-10
-9.69893e-10
7.39106e-08
-1.5328e-07
4.48495e-08
-3.94036e-07
8.225e-10
-4.05376e-07
-3.74681e-08
-4.09723e-07
-7.54548e-08
-4.0572e-07
-2.5996e-09
-2.25403e-07
-1.10058e-12
-2.74065e-09
-1.11606e-12
-9.79378e-19
3.46209e-11
-3.5251e-11
-1.86552e-20
1.4125e-08
-1.50605e-08
1.06372e-07
-2.47567e-07
7.11241e-08
-3.58814e-07
3.103e-08
-3.65283e-07
-1.54712e-08
-3.63221e-07
-6.90088e-08
-3.5218e-07
-2.19179e-08
-2.69485e-07
-4.55032e-11
-2.46123e-08
-4.66192e-11
-5.17018e-18
1.39531e-09
-1.43056e-09
-5.39453e-21
5.2879e-08
-6.72716e-08
8.9615e-08
-2.8489e-07
3.71073e-08
-3.06307e-07
-1.68614e-08
-3.11314e-07
-6.7892e-08
-3.1219e-07
-1.07243e-07
-3.12827e-07
-8.34675e-08
-2.92854e-07
-2.07882e-09
-1.06035e-07
-2.12544e-09
-1.13094e-16
3.27855e-08
-3.4216e-08
-7.77798e-24
1.48764e-07
-1.8564e-07
1.16128e-07
-2.52463e-07
7.34487e-08
-2.63628e-07
2.43847e-08
-2.6225e-07
-2.61742e-08
-2.61632e-07
-8.14494e-08
-2.57552e-07
-1.25303e-07
-2.49001e-07
-3.53974e-08
-1.96059e-07
-3.75228e-08
-1.71984e-17
9.14996e-08
-1.58517e-27
9.48112e-08
5.77123e-08
2.06894e-08
-1.09845e-08
-4.06949e-08
-6.89222e-08