/*--------------------------------*- C++ -*----------------------------------*\
  =========                 |
  \\      /  F ield         | OpenFOAM: The Open Source CFD Toolbox
   \\    /   O peration     | Website:  https://openfoam.org
    \\  /    A nd           | Version:  8
     \\/     M anipulation  |
\*---------------------------------------------------------------------------*/
FoamFile
{
    version     2.0;
    format      ascii;
    class       surfaceScalarField;
    location    "4.8";
    object      alphaPhi0.water;
}
// * * * * * * * * * * * * * * * * * * * * * * * * * * * * * * * * * * * * * //

dimensions      [0 3 -1 0 0 0 0];

internalField   nonuniform List<scalar> 
18095
(
1.96952e-08
-1.72017e-07
1.52322e-07
2.31436e-08
-1.98044e-07
1.94595e-07
1.95137e-08
-2.05584e-07
2.09214e-07
9.52654e-09
-2.10168e-07
2.20156e-07
-2.16749e-09
-2.13376e-07
2.2507e-07
-1.2707e-08
-2.13553e-07
2.24092e-07
-2.04476e-08
-2.11216e-07
2.18957e-07
-2.32591e-08
-2.0619e-07
2.09002e-07
-1.97234e-08
-1.97951e-07
1.94416e-07
-1.719e-07
1.52177e-07
1.55335e-08
-1.8755e-07
1.58123e-08
-1.98322e-07
1.24242e-08
-2.02196e-07
7.34762e-09
-2.05092e-07
7.88547e-10
-2.06817e-07
-5.83505e-09
-2.06929e-07
-1.16842e-08
-2.05367e-07
-1.58772e-08
-2.01997e-07
-1.55934e-08
-1.98235e-07
-1.87494e-07
6.82908e-09
-1.9438e-07
8.28392e-09
-1.99777e-07
7.07044e-09
-2.00983e-07
4.13347e-09
-2.02155e-07
4.04377e-11
-2.02724e-07
-4.1881e-09
-2.027e-07
-7.39779e-09
-2.02158e-07
-8.40554e-09
-2.00989e-07
-6.85775e-09
-1.99783e-07
-1.94351e-07
4.5423e-09
-1.98922e-07
4.71073e-09
-1.99946e-07
3.64755e-09
-1.9992e-07
1.8376e-09
-2.00345e-07
-1.66865e-10
-2.0072e-07
-1.98101e-09
-2.00886e-07
-3.65215e-09
-2.00486e-07
-4.72082e-09
-1.99921e-07
-4.56297e-09
-1.99941e-07
-1.98914e-07
1.07819e-09
1.13258e-09
1.21296e-09
8.68183e-10
1.48374e-10
-7.37894e-10
-1.22434e-09
-1.14502e-09
-1.08568e-09
-2.71575e-08
-1.9657e-07
2.23728e-07
-2.96963e-08
-1.98999e-07
2.01538e-07
-2.46564e-08
-2.0139e-07
1.9635e-07
-1.35225e-08
-2.01296e-07
1.90162e-07
1.92229e-10
-2.01844e-07
1.88129e-07
1.38927e-08
-2.01787e-07
1.88086e-07
2.47798e-08
-2.01101e-07
1.90213e-07
2.96047e-08
-2.01151e-07
1.96326e-07
2.71818e-08
-1.99067e-07
2.0149e-07
-1.96796e-07
2.23977e-07
-9.87988e-09
-1.86691e-07
-1.58928e-08
-1.92986e-07
-1.47454e-08
-2.02537e-07
-7.38406e-09
-2.08657e-07
-4.95432e-10
-2.08733e-07
6.44294e-09
-2.08725e-07
1.36282e-08
-2.08286e-07
1.52808e-08
-2.02803e-07
9.72781e-09
-1.93514e-07
-1.87068e-07
-1.06341e-08
-1.76056e-07
-8.45454e-09
-1.95166e-07
-6.09194e-09
-2.049e-07
-4.75522e-09
-2.09994e-07
-8.51317e-10
-2.12636e-07
3.53434e-09
-2.13111e-07
5.94914e-09
-2.10701e-07
8.55204e-09
-2.05406e-07
1.07311e-08
-1.95693e-07
-1.76337e-07
-6.41522e-09
-1.69641e-07
-8.13813e-09
-1.93443e-07
-7.71754e-09
-2.05321e-07
-2.94937e-09
-2.14762e-07
7.29499e-10
-2.16315e-07
4.33033e-09
-2.16712e-07
8.95074e-09
-2.15321e-07
9.20858e-09
-2.05664e-07
6.84829e-09
-1.93333e-07
-1.69488e-07
-1.73196e-08
-1.61671e-08
-1.22735e-08
-6.88016e-09
1.87495e-09
9.25546e-09
1.28914e-08
1.62291e-08
1.73115e-08
2.9068e-08
-1.58401e-07
1.29333e-07
3.71631e-08
-1.9897e-07
1.90875e-07
3.15794e-08
-2.10052e-07
2.15636e-07
1.97329e-08
-2.1491e-07
2.26756e-07
3.8205e-09
-2.16472e-07
2.32384e-07
-1.21682e-08
-2.16927e-07
2.32915e-07
-2.61366e-08
-2.15874e-07
2.29842e-07
-3.4123e-08
-2.11118e-07
2.19105e-07
-3.07258e-08
-1.99051e-07
1.95654e-07
-1.58226e-07
1.27501e-07
1.58532e-08
-1.74254e-07
1.86462e-08
-2.01763e-07
1.59539e-08
-2.0736e-07
1.04891e-08
-2.09445e-07
2.17234e-09
-2.08155e-07
-6.89419e-09
-2.0786e-07
-1.4911e-08
-2.07857e-07
-1.87705e-08
-2.07259e-07
-1.60935e-08
-2.01728e-07
-1.7432e-07
9.84156e-09
-1.84095e-07
9.17602e-09
-2.01097e-07
7.58749e-09
-2.05771e-07
2.94951e-09
-2.04807e-07
-6.7104e-10
-2.04534e-07
-3.99621e-09
-2.04535e-07
-7.608e-09
-2.04245e-07
-9.22603e-09
-2.05641e-07
-9.98046e-09
-2.00974e-07
-1.843e-07
7.39626e-09
-1.91492e-07
6.02294e-09
-1.99724e-07
6.59513e-09
-2.06343e-07
2.11136e-09
-2.00323e-07
7.60535e-10
-2.03183e-07
-9.70955e-10
-2.02803e-07
-6.11528e-09
-1.99101e-07
-5.77042e-09
-2.05986e-07
-7.22604e-09
-1.99518e-07
-1.91526e-07
3.22363e-08
3.405e-08
2.40569e-08
1.38958e-08
-1.15844e-09
-1.58755e-08
-2.47633e-08
-3.44231e-08
-3.2451e-08
7.63574e-08
7.2351e-08
-1.48683e-07
3.05164e-08
4.58666e-08
-2.64188e-09
3.30026e-08
-4.17812e-08
3.89531e-08
-8.6306e-08
4.10311e-08
-1.21685e-07
3.5372e-08
-1.63967e-07
4.22697e-08
-2.17753e-07
5.37672e-08
-2.66812e-07
4.9038e-08
2.30634e-08
-2.8989e-07
7.13254e-08
1.30596e-07
-1.31068e-07
2.05261e-08
9.66916e-08
-2.11175e-08
7.45394e-08
-6.8556e-08
8.62055e-08
-1.17148e-07
8.61573e-08
-1.63139e-07
8.13623e-08
-2.11026e-07
9.01481e-08
-2.48937e-07
9.16657e-08
-2.67054e-07
6.70665e-08
3.69499e-08
-2.80974e-07
1.69537e-08
1.60434e-07
-5.05683e-08
-3.36278e-08
1.47272e-07
-7.31612e-08
1.16245e-07
-1.05269e-07
1.18122e-07
-1.4975e-07
1.25381e-07
-1.96485e-07
1.28097e-07
-2.42066e-07
1.35729e-07
-2.89005e-07
1.3851e-07
-3.40093e-07
1.18189e-07
8.84885e-08
-3.91705e-07
-8.93678e-09
1.82977e-07
-1.43522e-08
-4.23465e-08
1.80791e-07
-7.15669e-08
1.49114e-07
-8.75162e-08
1.33828e-07
-1.16463e-07
1.49103e-07
-1.47192e-07
1.58825e-07
-1.83239e-07
1.71778e-07
-2.25851e-07
1.81132e-07
-2.83152e-07
1.75675e-07
1.53149e-07
-3.47825e-07
1.89094e-08
2.06898e-07
-4.36319e-08
-3.10144e-09
2.00709e-07
-3.91847e-08
1.86201e-07
-6.4213e-08
1.65872e-07
-7.54071e-08
1.57882e-07
-8.62926e-08
1.64166e-07
-9.83723e-08
1.8386e-07
-1.09805e-07
1.92567e-07
-1.26124e-07
1.92163e-07
1.79025e-07
-1.52022e-07
3.70352e-08
2.20534e-07
-5.02899e-08
2.83356e-08
2.088e-07
1.81178e-08
1.96154e-07
-4.70347e-09
1.88792e-07
-1.57865e-08
1.74193e-07
-2.47185e-08
1.7194e-07
-2.5387e-08
1.8453e-07
-2.61159e-08
1.93291e-07
-2.89448e-08
1.95074e-07
1.84195e-07
-3.41324e-08
6.0923e-08
2.25977e-07
-6.97862e-08
6.55398e-08
2.03574e-07
6.46776e-08
1.98146e-07
5.52981e-08
1.98264e-07
3.92673e-08
1.90369e-07
2.51026e-08
1.84987e-07
2.40953e-08
1.8126e-07
2.72634e-08
1.9011e-07
3.25586e-08
1.89775e-07
1.85589e-07
3.12926e-08
1.09985e-07
1.94995e-07
-1.00876e-07
1.1617e-07
1.98134e-07
1.16017e-07
1.98393e-07
1.05091e-07
2.09286e-07
8.41196e-08
2.11434e-07
6.70623e-08
2.01053e-07
5.21226e-08
1.95363e-07
5.06805e-08
1.91078e-07
5.48865e-08
1.85563e-07
1.83123e-07
5.73343e-08
1.54168e-07
1.74245e-07
-1.07782e-07
1.54899e-07
2.02473e-07
1.48557e-07
2.04826e-07
1.34752e-07
2.17561e-07
1.19708e-07
2.26574e-07
1.03379e-07
2.21729e-07
8.63265e-08
2.12086e-07
7.49786e-08
2.0142e-07
6.85249e-08
1.92002e-07
1.82165e-07
6.94756e-08
1.6054e-07
2.04805e-07
-1.2372e-07
1.4946e-07
2.15455e-07
1.31071e-07
2.17274e-07
1.16375e-07
2.32103e-07
1.06288e-07
2.35945e-07
9.21032e-08
2.35997e-07
8.77355e-08
2.18282e-07
8.41626e-08
2.06623e-07
8.10041e-08
1.93524e-07
1.85378e-07
7.77836e-08
8.30074e-08
2.09262e-07
-7.08395e-08
7.97451e-08
2.18686e-07
7.67803e-08
2.20084e-07
7.98808e-08
2.28866e-07
8.34088e-08
2.34839e-07
8.50951e-08
2.34354e-07
8.43347e-08
2.19939e-07
8.48987e-08
2.07295e-07
8.64283e-08
1.9238e-07
1.83473e-07
8.68296e-08
4.29787e-09
1.93667e-07
1.12933e-08
2.00707e-08
2.02917e-07
3.38031e-08
2.08687e-07
4.73479e-08
2.1518e-07
6.23169e-08
2.23739e-07
7.28519e-08
2.2382e-07
8.18222e-08
2.10948e-07
8.95638e-08
2.00372e-07
9.6215e-08
1.86482e-07
1.79498e-07
1.00735e-07
-5.37873e-08
1.74711e-07
7.27124e-08
-3.51442e-08
1.84274e-07
-1.98854e-08
1.94679e-07
-3.77011e-09
2.05149e-07
1.54454e-08
2.05519e-07
3.51483e-08
2.04018e-07
5.50424e-08
1.91035e-07
7.71112e-08
1.78288e-07
9.29682e-08
1.72537e-07
1.71095e-07
1.05439e-07
-1.17383e-07
1.51965e-07
1.40082e-07
-9.52197e-08
1.62085e-07
-7.17078e-08
1.71117e-07
-4.62427e-08
1.79661e-07
-1.81348e-08
1.76522e-07
1.59694e-08
1.69753e-07
4.97488e-08
1.5725e-07
7.77068e-08
1.50318e-07
9.88004e-08
1.51435e-07
1.59691e-07
1.10202e-07
-1.70863e-07
1.22111e-07
2.00665e-07
-1.37936e-07
1.29343e-07
-9.83832e-08
1.31626e-07
-5.26452e-08
1.32514e-07
-6.64531e-09
1.30504e-07
3.85785e-08
1.24518e-07
6.93065e-08
1.26507e-07
8.19436e-08
1.37667e-07
9.15306e-08
1.41831e-07
1.5262e-07
9.85873e-08
-2.09735e-07
8.8049e-08
2.43758e-07
-1.67707e-07
8.76661e-08
-1.18562e-07
8.25023e-08
-6.668e-08
8.04881e-08
-1.74749e-08
8.12681e-08
1.94487e-08
8.73207e-08
3.78632e-08
1.04918e-07
4.24552e-08
1.23592e-07
4.40771e-08
1.30116e-07
1.4891e-07
4.06277e-08
-1.98814e-07
6.05913e-08
2.26265e-07
-1.70335e-07
5.91897e-08
-1.43026e-07
5.52257e-08
-1.16854e-07
5.42492e-08
-9.16394e-08
5.60057e-08
-7.18457e-08
6.89848e-08
-6.5304e-08
9.39136e-08
-4.88444e-08
1.06864e-07
-3.27225e-08
1.1378e-07
1.34093e-07
-2.11831e-08
-1.62673e-07
5.03807e-08
1.72884e-07
-1.66726e-07
6.32419e-08
-1.73375e-07
6.18775e-08
-1.71159e-07
5.19925e-08
-1.62676e-07
4.74488e-08
-1.37549e-07
5.27291e-08
-1.09846e-07
7.15762e-08
-8.46935e-08
8.14423e-08
-6.21169e-08
9.0935e-08
1.10892e-07
-3.30116e-08
-1.37597e-07
4.32999e-08
1.41531e-07
-1.59774e-07
6.76267e-08
-1.74042e-07
7.61044e-08
-1.75444e-07
5.32883e-08
-1.71631e-07
4.35502e-08
-1.55869e-07
3.69253e-08
-1.20231e-07
4.17691e-08
-8.39185e-08
5.1266e-08
-4.7815e-08
5.92351e-08
7.90419e-08
-1.58381e-08
-8.37536e-08
4.50013e-08
8.20376e-08
-7.33835e-08
5.72318e-08
-7.48071e-08
5.63798e-08
-9.26389e-08
4.73643e-08
-1.01006e-07
3.35133e-08
-8.93887e-08
2.00761e-08
-7.71782e-08
2.77327e-08
-7.0594e-08
4.08089e-08
-4.98736e-08
3.86413e-08
4.95789e-08
-2.02843e-08
-1.0708e-07
4.35453e-08
1.08518e-07
-1.05095e-07
5.52363e-08
-1.01933e-07
5.31929e-08
-1.01718e-07
4.68746e-08
-1.00216e-07
3.09737e-08
-1.01293e-07
1.82954e-08
-8.01629e-08
3.83145e-09
-4.92598e-08
7.21439e-09
-3.51157e-08
1.06933e-08
2.54332e-08
-2.09633e-08
-1.84735e-07
1.63874e-08
2.11882e-07
-1.53123e-07
2.36099e-08
-1.29273e-07
2.9599e-08
-1.09851e-07
2.76531e-08
-8.97096e-08
1.06049e-08
-7.63424e-08
2.29066e-09
-5.45846e-08
-1.91649e-08
-3.10806e-08
-1.74558e-08
-1.24826e-08
-6.53904e-09
-1.01561e-08
2.44059e-08
-3.34902e-07
2.70595e-09
3.58408e-07
-3.05325e-07
-9.06062e-10
-2.61333e-07
-8.49375e-09
-2.10885e-07
-1.74191e-08
-1.67346e-07
-2.74117e-08
-1.25254e-07
-4.00398e-08
-9.83606e-08
-4.76768e-08
-7.03341e-08
-4.69102e-08
-4.63123e-08
-3.91183e-08
-5.47285e-08
-3.39842e-09
-4.88188e-07
6.02331e-09
4.84916e-07
-4.75717e-07
-7.65558e-09
-4.18051e-07
-4.6134e-08
-3.47838e-07
-8.36293e-08
-2.78808e-07
-9.68753e-08
-2.34878e-07
-9.51012e-08
-2.08554e-07
-7.581e-08
-1.91358e-07
-5.96573e-08
-1.75469e-07
-5.47799e-08
-6.69193e-08
-1.73989e-07
-5.3742e-07
5.93068e-08
4.83817e-07
-5.53496e-07
8.47245e-09
-5.2857e-07
-8.65777e-08
-4.68982e-07
-1.38091e-07
-3.76997e-07
-1.25338e-07
-3.28651e-07
-6.35639e-08
-3.04201e-07
-3.66946e-08
-2.7102e-07
-3.70702e-08
-2.50647e-07
-4.44782e-08
-4.21295e-08
-3.04863e-07
-3.32415e-07
3.428e-08
3.36256e-07
-6.57667e-07
3.9346e-09
-7.55868e-07
-1.1991e-07
-7.23898e-07
-1.65563e-07
-4.36494e-07
-1.71738e-07
-3.75059e-07
-1.247e-07
-3.3981e-07
-7.19787e-08
-2.95215e-07
-8.16419e-08
-2.56965e-07
-8.27089e-08
-6.75922e-08
-2.32109e-07
-3.18712e-07
2.09756e-08
3.22483e-07
-4.76847e-07
-1.88299e-08
-8.64583e-07
-1.35376e-07
-8.30542e-07
-1.8766e-07
-7.5262e-07
-2.38384e-07
-4.69141e-07
-2.17779e-07
-3.67695e-07
-1.73227e-07
-2.83029e-07
-1.66293e-07
-2.40129e-07
-1.25565e-07
-8.38009e-08
-2.1921e-07
-2.69895e-07
-6.55596e-09
2.92675e-07
-2.64256e-07
-3.72247e-08
-5.33762e-07
-7.52007e-08
-5.97443e-07
-1.08203e-07
-5.93396e-07
-2.19187e-07
-5.02236e-07
-2.83495e-07
-3.94047e-07
-1.85894e-07
-2.80794e-07
-1.61445e-07
-1.46764e-07
-1.4097e-07
-1.37512e-07
-8.8242e-08
-1.50424e-07
-6.11493e-08
1.95701e-07
-9.09517e-08
-1.09772e-07
-6.55562e-08
-1.20324e-07
-5.27756e-08
-1.46826e-07
-4.24756e-08
-2.13617e-07
-1.7855e-08
-2.70969e-07
3.66119e-08
-2.90641e-07
1.06084e-07
-2.75179e-07
1.67547e-07
-2.37371e-07
-1.12641e-07
1.91548e-07
-7.48984e-08
-1.9767e-07
1.23124e-07
-3.10932e-08
-2.8244e-07
1.06426e-08
-2.89028e-07
7.09777e-08
-3.40353e-07
1.51105e-07
-2.77352e-07
2.60113e-07
-3.62839e-07
4.07738e-07
-4.77652e-07
4.22711e-07
-5.08673e-07
3.37016e-07
-4.60334e-07
-2.92126e-07
4.24287e-07
-4.09497e-08
-2.05682e-07
4.31043e-08
-3.70417e-08
-2.87626e-07
2.41028e-08
-3.739e-07
1.19877e-07
-4.4179e-07
2.1973e-07
-3.81304e-07
4.09699e-07
-4.65753e-07
5.57979e-07
-6.24956e-07
6.31992e-07
-5.79097e-07
6.68057e-07
-4.94482e-07
-4.15076e-07
4.92625e-07
-2.83569e-07
-1.84507e-07
3.33967e-07
-2.30684e-07
-2.41583e-07
-1.53858e-07
-3.37682e-07
-4.92213e-08
-4.45627e-07
1.4091e-07
-5.15578e-07
3.1252e-07
-5.86997e-07
3.9288e-07
-6.65499e-07
4.07946e-07
-5.92246e-07
4.41914e-07
-5.40866e-07
-4.80728e-07
4.77853e-07
-2.76119e-07
-2.02692e-07
4.09961e-07
-2.16666e-07
-3.22903e-07
-1.66691e-07
-4.07174e-07
-1.26273e-07
-5.06333e-07
-3.24192e-08
-6.29719e-07
5.64725e-08
-6.96176e-07
1.00092e-07
-6.84118e-07
1.03851e-07
-5.90739e-07
1.19912e-07
-5.56519e-07
-5.0942e-07
1.54274e-07
-2.45844e-07
-2.04157e-07
2.78635e-07
-2.12592e-07
-4.75914e-07
-1.88263e-07
-5.78415e-07
-1.77222e-07
-5.3689e-07
-1.42665e-07
-6.84564e-07
-6.39475e-08
-7.97949e-07
1.25841e-08
-4.9391e-07
6.19333e-08
-4.79177e-07
1.00545e-07
-5.73871e-07
-5.50955e-07
1.46181e-07
-3.89788e-08
-2.36625e-07
1.578e-08
-7.26706e-08
-4.43562e-07
-8.32197e-08
-5.67793e-07
-1.33661e-07
-7.17521e-07
-2.23485e-07
-9.03846e-07
-1.01139e-07
-1.21408e-06
-8.48085e-09
-5.93186e-07
1.04811e-07
-4.29393e-07
2.03583e-07
-5.01364e-07
-6.04847e-07
2.30704e-07
2.89459e-07
-3.07012e-07
-2.38205e-07
3.00087e-07
-4.54125e-07
2.70435e-07
-5.37982e-07
1.86133e-07
-6.33135e-07
5.21102e-08
-8.27573e-07
3.24754e-09
-1.17329e-06
4.45783e-08
-6.44094e-07
1.27274e-07
-5.19932e-07
2.55414e-07
-3.85837e-07
-5.75987e-07
3.27293e-07
4.15393e-07
-3.75939e-07
-3.75593e-07
4.21726e-07
-4.6039e-07
4.10284e-07
-5.2639e-07
3.77225e-07
-5.99891e-07
3.01155e-07
-7.51418e-07
2.07864e-07
-1.07946e-06
1.2498e-07
-6.4565e-07
1.45045e-07
-5.47843e-07
1.6084e-07
-4.11826e-07
-6.04534e-07
3.2363e-07
3.98646e-07
-4.1672e-07
-3.5785e-07
4.09554e-07
-4.7128e-07
4.01715e-07
-5.18511e-07
3.81538e-07
-5.79538e-07
3.65208e-07
-7.34449e-07
2.74436e-07
-9.6027e-07
1.69649e-07
-5.95265e-07
1.44704e-07
-5.33093e-07
1.72348e-07
-4.5121e-07
-6.92892e-07
2.41243e-07
2.64064e-07
-4.56702e-07
-2.24069e-07
2.8859e-07
-4.95765e-07
3.02034e-07
-5.31782e-07
3.14566e-07
-5.91397e-07
3.31494e-07
-6.97382e-07
1.8332e-07
-6.49599e-07
1.66683e-07
-8.22798e-07
1.04111e-07
-4.88879e-07
1.05573e-07
-6.70281e-07
-6.97181e-07
9.59342e-08
3.29837e-08
-5.11084e-07
2.14569e-08
8.23665e-08
-5.44854e-07
1.32277e-07
-5.80439e-07
1.80725e-07
-6.01213e-07
2.40791e-07
-5.37532e-07
1.64419e-07
-6.44912e-07
1.23419e-07
-8.86061e-07
-2.23042e-08
-7.40172e-07
-4.44902e-08
-6.82267e-07
-6.80433e-07
-6.0384e-08
-1.32622e-07
-5.41268e-07
1.6326e-07
-9.60868e-08
-5.78726e-07
-1.7166e-08
-5.01142e-07
8.98059e-08
-4.89783e-07
9.84843e-08
-6.5093e-07
2.51357e-08
-7.23882e-07
-1.26427e-07
-7.35522e-07
-1.87013e-07
-6.79001e-07
-1.99779e-07
-6.74396e-07
-6.26058e-07
-2.17953e-07
-2.23048e-07
-5.15408e-07
2.14896e-07
-1.54091e-07
-2.77574e-07
-9.61942e-08
-1.69322e-07
-4.98087e-08
-4.88569e-07
-1.04439e-07
-8.82519e-07
-2.24788e-07
-7.65449e-07
-2.85523e-07
-6.746e-07
-3.07698e-07
-6.56615e-07
-3.48116e-07
-6.33394e-07
-5.28051e-07
-3.00422e-07
-1.60332e-07
-2.09779e-07
2.51121e-07
-8.83709e-08
-5.69158e-08
-1.74254e-07
-1.72326e-07
-2.32601e-07
-8.15811e-07
-2.97189e-07
-9.67793e-07
-3.27471e-07
-7.35018e-07
-3.50829e-07
-6.51094e-07
-3.77819e-07
-6.29438e-07
-4.24157e-07
-5.86245e-07
-4.59911e-07
-3.16765e-07
-5.34291e-08
-3.20435e-08
1.52611e-07
-6.85547e-08
-4.4177e-08
-1.88991e-07
-1.64244e-07
-3.84022e-07
-8.6303e-07
-3.77457e-07
-9.74232e-07
-3.72968e-07
-7.39359e-07
-3.87175e-07
-6.367e-07
-4.09671e-07
-6.0666e-07
-4.36967e-07
-5.57994e-07
-4.24479e-07
-3.22136e-07
-4.96305e-08
-1.53128e-08
2.95601e-08
-6.08262e-08
-3.26835e-08
-1.96889e-07
-1.04899e-07
-4.65733e-07
-6.91086e-07
-4.73868e-07
-9.65999e-07
-4.15802e-07
-7.97299e-07
-4.18698e-07
-6.33522e-07
-4.3902e-07
-5.85789e-07
-4.62946e-07
-5.32662e-07
-4.14313e-07
-3.13552e-07
-2.42877e-08
-1.05199e-08
1.61432e-08
-3.8332e-08
-2.31666e-08
-7.04315e-08
-7.71766e-08
-4.70854e-07
-3.80009e-07
-5.51847e-07
-8.84984e-07
-4.65172e-07
-8.83875e-07
-4.23721e-07
-6.74424e-07
-4.28979e-07
-5.79123e-07
-4.45541e-07
-5.13478e-07
-4.23088e-07
-3.42145e-07
-1.05963e-08
-7.72173e-08
2.2272e-08
-1.23106e-08
-2.58298e-08
-4.51022e-08
-5.00642e-08
-2.94528e-07
-2.54961e-07
-5.2832e-07
-7.48835e-07
-4.98494e-07
-9.11619e-07
-3.75032e-07
-7.9578e-07
-3.73281e-07
-5.78329e-07
-3.81933e-07
-4.98755e-07
-4.23658e-07
-3.59805e-07
3.42741e-08
-1.54419e-07
-3.8996e-08
2.2519e-08
-7.73029e-08
-3.32493e-09
-1.45623e-07
-1.15181e-07
-3.47798e-07
-3.61328e-07
-5.73349e-07
-3.99305e-07
-8.86807e-07
-2.69822e-07
-7.54028e-07
-2.52179e-07
-3.58644e-07
-2.61232e-07
-4.81325e-07
-4.20289e-07
-2.51906e-07
2.32786e-07
-2.05201e-08
-9.5512e-08
3.07562e-07
-1.50157e-07
2.58941e-07
-2.38061e-07
1.28025e-07
-3.19886e-07
-1.0886e-07
-4.11142e-07
-3.08652e-07
-7.28803e-07
-1.43513e-07
-9.07854e-07
-7.83092e-08
-3.33709e-07
-7.05712e-08
-3.61349e-07
-3.95152e-07
-7.97684e-08
5.13004e-08
-9.32443e-09
-1.54295e-08
3.40613e-07
-6.69741e-08
3.41942e-07
-2.35122e-07
3.19186e-07
-2.94576e-07
1.84751e-07
-3.4858e-07
3.42465e-08
-5.78119e-07
-1.16129e-08
-9.15499e-07
2.23829e-08
-4.35809e-07
1.27161e-07
-2.6604e-07
-3.1105e-07
1.03597e-07
1.70692e-08
-6.90113e-09
-1.94651e-08
1.5694e-07
-1.40283e-08
3.29828e-07
-1.88052e-07
2.98761e-07
-2.62822e-07
2.34845e-07
-2.84485e-07
1.22735e-07
-4.6587e-07
7.1018e-08
-8.6364e-07
5.73264e-08
-5.44969e-07
8.76266e-08
-3.20906e-07
-2.61405e-07
1.67425e-07
2.16632e-08
-1.8619e-09
-2.67218e-08
8.71888e-08
-4.87934e-09
3.54248e-07
-9.68141e-08
3.12299e-07
-2.19251e-07
2.73524e-07
-2.45421e-07
2.12001e-07
-4.04168e-07
2.09385e-07
-8.60873e-07
1.15111e-07
-7.48528e-07
1.54853e-07
-4.34299e-07
-2.37427e-07
2.00564e-07
2.57313e-08
-1.95936e-11
-2.77876e-08
2.29992e-08
-2.68341e-09
3.84915e-07
-6.40949e-08
4.10954e-07
-1.77164e-07
3.86122e-07
-2.20021e-07
3.60739e-07
-3.78495e-07
3.40856e-07
-8.40886e-07
1.75367e-07
-8.21704e-07
1.66379e-07
-4.02136e-07
-8.87413e-08
6.89884e-08
2.55303e-08
1.92722e-09
-2.81399e-08
4.02019e-08
-1.81228e-08
4.64729e-07
-1.07163e-07
4.83079e-07
-1.44898e-07
4.53437e-07
-1.89608e-07
4.97351e-07
-4.2184e-07
4.78815e-07
-8.22421e-07
1.75174e-07
-7.24784e-07
9.48391e-08
-1.29689e-07
8.83434e-08
-3.38021e-08
5.66376e-08
3.37783e-09
-3.06997e-08
5.83423e-07
3.0074e-08
5.38281e-07
-2.27082e-08
4.60611e-07
-6.60085e-08
4.74762e-07
-2.02713e-07
7.0407e-07
-6.50378e-07
7.07829e-07
-8.26635e-07
2.66143e-07
-4.17536e-07
1.4499e-07
-2.96526e-09
2.25046e-07
1.04542e-07
3.63089e-07
1.05779e-07
-2.71192e-07
5.96168e-07
1.09151e-07
4.84923e-07
9.09467e-08
3.4206e-07
7.78168e-08
5.73134e-07
-4.32578e-07
8.046e-07
-8.81829e-07
5.404e-07
-6.51381e-07
9.72208e-08
-7.52721e-08
7.08349e-08
2.13978e-08
2.17631e-07
1.34581e-07
6.91122e-07
2.12217e-07
-5.83619e-07
5.92143e-07
2.19427e-07
4.35261e-07
2.4879e-07
1.94066e-07
3.1985e-07
4.63417e-07
-7.09127e-07
5.12822e-07
-9.83326e-07
9.7938e-08
-3.32158e-07
3.45435e-08
-1.52098e-08
4.44478e-08
1.02367e-08
7.50451e-08
2.80729e-07
3.91472e-07
1.7512e-07
-3.99111e-07
3.27712e-07
2.84029e-07
1.9222e-07
3.8512e-07
4.4347e-08
4.68521e-07
1.8448e-07
-8.60087e-07
2.02565e-07
-1.00965e-06
1.65328e-08
-1.73349e-07
4.75122e-09
-4.86572e-09
9.22146e-09
4.26373e-09
3.13955e-08
1.15984e-07
-7.78562e-08
1.92492e-08
4.64081e-08
-1.10618e-07
1.12593e-07
-1.35731e-07
2.67698e-07
-6.16408e-09
2.15431e-07
8.06811e-08
-9.58418e-07
9.25968e-08
-1.02365e-06
3.29654e-09
-1.12109e-07
-3.54146e-10
-1.40014e-09
9.97621e-10
1.91767e-09
2.98679e-09
2.96681e-08
-1.05211e-07
2.94965e-10
9.61122e-08
-1.40368e-07
1.66454e-08
-5.99015e-08
2.41761e-08
6.70323e-08
-2.8142e-08
7.00965e-08
-9.5695e-07
5.15301e-08
-1.00196e-06
0
-8.00289e-08
-1.10033e-09
-8.64708e-12
0
4.02087e-10
2.87585e-10
2.44636e-09
-5.14288e-08
5.40323e-09
5.93098e-08
-4.92118e-08
0
-3.42598e-08
-4.54331e-09
2.21192e-09
-7.89099e-08
1.6435e-08
-9.60367e-07
-6.04048e-09
-9.70513e-07
-3.92729e-12
-8.9052e-08
0
-9.70129e-12
2.38365e-10
1.01222e-11
7.83707e-11
6.2428e-11
-1.54842e-10
6.4518e-09
1.60888e-09
2.753e-09
7.021e-09
-3.92506e-10
1.43628e-08
-7.04683e-09
-8.09072e-08
-1.07791e-08
-9.53197e-07
-4.21485e-09
-9.57922e-07
-1.35061e-12
-7.96793e-08
-2.33181e-12
-1.00699e-11
2.90387e-12
2.15082e-11
2.30455e-11
-2.31154e-11
-5.79593e-10
4.38579e-10
-4.79046e-09
-1.44494e-09
3.15235e-09
0
1.69753e-08
-2.06366e-08
-6.17118e-08
-4.19399e-08
-9.47519e-07
-2.03713e-08
-9.46752e-07
-2.40816e-12
-5.03984e-08
-3.89036e-12
-1.02897e-11
-6.97094e-13
1.58276e-11
2.03676e-11
-4.17484e-12
2.15359e-10
1.21421e-10
1.27176e-11
1.37203e-09
1.77657e-10
0
2.22095e-08
-1.08737e-08
-4.63952e-08
-3.47836e-08
-9.27328e-07
-1.90643e-08
-9.32309e-07
-3.5971e-12
-4.88168e-08
-3.05975e-12
-1.33644e-11
-1.76456e-12
1.24472e-11
1.79324e-11
-4.63071e-12
9.31802e-11
2.53316e-11
6.4917e-12
1.44351e-09
1.40648e-10
8.85717e-10
1.27074e-08
5.58832e-09
-4.28616e-08
-1.63257e-09
-9.1546e-07
-5.62161e-09
-9.21858e-07
-4.22044e-11
-4.02162e-08
-1.4042e-11
-1.64045e-11
-2.2756e-12
5.37759e-10
1.79999e-11
-5.97088e-12
0
2.55481e-12
8.66324e-11
-2.19997e-09
-1.47096e-12
0
-1.97292e-12
9.2382e-09
-4.39996e-08
7.25573e-09
-9.09777e-07
-3.49146e-09
-9.1311e-07
-9.38868e-11
-4.04914e-08
-7.50797e-11
-1.50416e-11
-1.78896e-12
1.13115e-09
1.75425e-11
-2.64664e-12
-2.47621e-11
-4.41807e-12
1.75071e-10
0
-4.75435e-11
2.27276e-12
-4.20368e-12
6.17124e-09
-4.82301e-08
1.7021e-10
-9.10478e-07
-7.02472e-09
-9.09999e-07
-1.75603e-10
-4.74191e-08
-1.86207e-10
-6.09312e-12
-1.16177e-10
1.27977e-09
1.53e-09
4.43823e-12
-1.7424e-11
-4.01227e-13
1.99859e-11
0
-4.47208e-11
1.15219e-12
-5.37822e-12
7.23748e-09
-6.00026e-08
1.43854e-09
-9.12315e-07
-5.92677e-09
-9.11213e-07
-8.23602e-11
-6.08112e-08
-8.79498e-11
-5.03503e-13
-4.09188e-11
1.08471e-09
1.24239e-09
2.32128e-10
1.92769e-12
1.5656e-12
-6.22361e-12
0
-1.73472e-11
5.78432e-13
-6.06097e-12
6.87663e-09
-7.52616e-08
-5.72803e-10
-9.14492e-07
-7.06843e-09
-9.13583e-07
-4.30727e-14
-7.56578e-08
0
-5.46577e-13
3.01311e-10
1.43523e-11
1.00282e-10
9.05786e-10
4.09581e-13
1.0414e-13
-4.769e-15
3.73771e-12
-1.72285e-11
3.45001e-12
-6.04441e-12
7.19733e-09
-9.00436e-08
7.8412e-10
-9.15395e-07
-6.67625e-09
-9.14556e-07
-6.78915e-14
-9.03597e-08
2.12982e-15
-6.16599e-13
1.61869e-11
1.28329e-12
0
7.84088e-11
-2.69739e-12
-1.25399e-12
2.98838e-12
3.9003e-13
-5.93354e-12
4.59523e-13
-6.35524e-12
7.81093e-09
-1.03909e-07
1.09956e-09
-9.13573e-07
-6.85152e-09
-9.12357e-07
-4.51914e-14
-1.03913e-07
1.92787e-15
-6.6372e-13
1.25802e-12
2.71901e-14
5.56248e-13
1.14507e-11
-1.31241e-12
-5.7471e-12
1.58764e-11
6.2106e-13
-2.15676e-12
5.23772e-13
-6.53588e-12
7.35247e-09
-1.1504e-07
-6.05104e-10
-9.08147e-07
-7.78386e-09
-9.07406e-07
-3.86804e-14
-1.15273e-07
-1.20978e-14
-6.90313e-13
6.89044e-14
-5.38347e-14
3.15001e-13
3.659e-12
1.37613e-13
-2.30118e-11
-6.45909e-13
8.82932e-13
-4.42662e-12
1.09795e-12
-6.97758e-12
8.14894e-09
-1.23037e-07
-3.93185e-10
-8.9924e-07
-8.22022e-09
-8.98852e-07
-4.17369e-14
-1.23395e-07
-3.33299e-14
-6.98743e-13
-2.35195e-14
-6.36568e-14
8.58691e-14
5.58791e-14
7.67286e-12
-4.29915e-11
-1.06783e-11
3.10368e-12
-1.76793e-11
3.56388e-12
-7.61913e-12
7.68383e-09
-1.27622e-07
-1.12297e-09
-8.88327e-07
-8.54082e-09
-8.8845e-07
-4.25177e-14
-1.28191e-07
-4.57476e-14
-6.95525e-13
-7.20506e-14
-3.73866e-14
8.97014e-14
-7.59435e-14
3.42029e-11
-3.31617e-11
-3.94099e-11
7.0661e-12
-7.7803e-12
6.97701e-12
-7.79066e-12
8.93485e-09
-1.31821e-07
-5.13582e-10
-8.75878e-07
-9.75025e-09
-8.75646e-07
-6.80236e-14
-1.32655e-07
-5.13433e-14
-7.12238e-13
-8.94186e-14
6.21688e-16
1.25143e-13
-1.2493e-13
1.38992e-11
1.25654e-11
-5.45421e-11
4.01521e-12
-2.58813e-13
5.43021e-12
-9.5292e-12
9.98551e-09
-1.36507e-07
8.67032e-10
-8.6343e-07
-9.55362e-09
-8.62247e-07
-3.17925e-13
-1.37274e-07
-1.98831e-13
-8.30884e-13
-8.20232e-14
4.38824e-13
1.71229e-13
-1.28172e-13
-1.00562e-11
1.63155e-11
-1.48485e-11
1.38428e-11
-9.43801e-11
1.98909e-11
-1.60499e-11
1.10834e-08
-1.42787e-07
-1.08023e-10
-8.49286e-07
-1.08831e-08
-8.48932e-07
-1.42198e-12
-1.43595e-07
-1.20998e-12
-1.03837e-12
-1.53925e-13
2.0575e-12
2.09233e-13
-1.93811e-13
4.65088e-12
4.09748e-11
4.88203e-13
6.58156e-11
-2.33131e-10
7.78035e-11
-2.91134e-11
1.20148e-08
-1.5143e-07
-8.6808e-11
-8.35418e-07
-1.15843e-08
-8.35987e-07
-2.70798e-12
-1.52224e-07
-2.396e-12
-1.33077e-12
-3.46966e-14
1.1419e-12
2.10483e-13
-3.89477e-14
1.34665e-10
-4.13606e-11
-6.83557e-12
1.82201e-10
-2.26462e-10
1.7901e-10
-2.72909e-11
1.25612e-08
-1.62574e-07
1.90381e-10
-8.22578e-07
-1.21179e-08
-8.23491e-07
-3.90481e-12
-1.63751e-07
-3.52691e-12
-1.66094e-12
-1.99968e-14
-3.17843e-13
1.93819e-13
-5.656e-15
1.19406e-10
-1.11215e-10
-4.05677e-12
8.47705e-11
-1.24636e-10
7.99587e-11
-2.27342e-11
1.38627e-08
-1.77485e-07
2.88551e-10
-8.09369e-07
-1.28342e-08
-8.11181e-07
-4.74868e-12
-1.78171e-07
-4.36044e-12
-1.96151e-12
-1.26264e-12
-2.63873e-12
1.2297e-11
1.84572e-13
1.91876e-11
-2.5629e-12
-6.88387e-11
5.74099e-11
-1.21124e-10
5.22759e-11
-1.78885e-11
1.62268e-08
-1.95052e-07
2.25237e-09
-7.95788e-07
-1.30135e-08
-7.974e-07
-4.6911e-12
-1.94627e-07
-5.04093e-12
-1.51612e-12
-2.37803e-12
-3.52433e-12
1.03115e-11
-1.78803e-13
1.07889e-12
-2.65462e-13
-1.56292e-12
0
-2.93504e-11
4.61337e-12
-2.27589e-11
1.50894e-08
-2.1199e-07
9.57926e-10
-7.82638e-07
-1.49415e-08
-7.81761e-07
-2.96176e-12
-2.10366e-07
-3.17293e-12
-1.26876e-12
-3.59386e-12
-3.78429e-12
6.54956e-12
3.81836e-13
1.19557e-12
1.27076e-13
-1.64e-12
1.02423e-10
-7.89547e-11
9.66295e-11
-1.85685e-11
1.27546e-08
-2.28133e-07
-5.0864e-09
-7.66292e-07
-2.05294e-08
-7.65284e-07
-2.18261e-12
-2.27415e-07
-2.44958e-12
-9.8778e-13
-6.50719e-12
-1.25241e-12
3.95657e-12
-3.70047e-12
2.48805e-10
2.84096e-11
-5.68997e-11
1.39274e-10
1.35706e-11
1.31543e-10
-1.06048e-11
1.4349e-08
-2.45304e-07
-4.18767e-09
-7.48574e-07
-2.12601e-08
-7.47699e-07
-5.4902e-13
-2.46552e-07
-5.99645e-13
-9.13871e-13
-2.10833e-12
-1.13839e-13
4.22616e-14
-1.56237e-12
1.02327e-10
2.61637e-12
-3.78812e-11
7.4582e-11
7.77336e-11
7.24133e-11
-5.10661e-12
1.90268e-08
-2.66721e-07
-1.46995e-09
-7.2836e-07
-1.9892e-08
-7.29354e-07
-1.41063e-13
-2.68237e-07
-1.25783e-13
-9.00834e-13
-1.25554e-13
-7.87532e-14
7.42778e-14
-1.17837e-13
6.53096e-12
2.08179e-14
-5.17058e-12
0
1.26956e-10
3.62382e-12
-6.36393e-12
2.04461e-08
-2.90371e-07
3.12058e-10
-7.08408e-07
-2.04509e-08
-7.08635e-07
-1.82925e-13
-2.91061e-07
-1.3496e-13
-9.08059e-13
-1.15317e-13
-4.07152e-14
9.21889e-14
-7.87658e-14
-1.29941e-11
0
9.06305e-14
2.23245e-11
-4.33502e-13
2.11048e-11
-4.75007e-12
2.13735e-08
-3.14589e-07
5.1438e-10
-6.87555e-07
-2.31829e-08
-6.85054e-07
-3.43498e-13
-3.14779e-07
-1.26178e-13
-1.10683e-12
-6.77506e-14
-5.84031e-14
1.53328e-13
-7.12088e-14
-3.6363e-14
2.56141e-13
1.33206e-13
6.00689e-13
-9.61046e-13
2.32901e-12
-6.2637e-12
2.35974e-08
-3.38649e-07
-2.97866e-10
-6.63663e-07
-2.4679e-08
-6.61032e-07
-2.0047e-12
-3.38402e-07
-2.51074e-13
-2.85432e-12
-5.96233e-14
-2.40138e-13
1.36127e-13
-1.73212e-14
1.12335e-12
1.54791e-12
-2.36271e-12
8.53184e-13
-6.54842e-13
1.46537e-11
-2.0002e-11
2.60778e-08
-3.64321e-07
-4.14111e-09
-6.33362e-07
-2.54917e-08
-6.40156e-07
-1.75355e-11
-3.62218e-07
-6.33415e-13
-1.97412e-11
-6.79516e-13
-5.9005e-14
-2.69772e-13
-1.5985e-14
1.71461e-12
1.04115e-12
-1.59408e-12
1.7496e-12
-7.14861e-13
1.25589e-10
-1.43858e-10
1.56374e-08
-3.80559e-07
-9.39017e-10
-6.16642e-07
-3.31486e-08
-6.08237e-07
-1.619e-10
-3.95126e-07
-9.58873e-13
-1.80699e-10
-1.01625e-12
-1.53791e-14
-1.32904e-12
-4.814e-14
2.50021e-13
-1.47799e-13
3.72413e-12
6.63889e-13
-1.15334e-12
1.10579e-09
-1.24901e-09
5.3676e-08
-4.29728e-07
2.83742e-08
-5.91213e-07
1.29001e-09
-5.81289e-07
-1.30905e-09
-3.87794e-07
-2.39927e-13
-1.48952e-09
-2.51614e-13
-1.08998e-14
-4.29588e-13
-5.05203e-13
-6.37509e-14
-3.36398e-13
2.27732e-13
1.67029e-13
-1.40873e-12
6.45005e-09
-7.69892e-09
1.6528e-08
-4.33636e-07
-2.49722e-08
-5.49807e-07
-3.74165e-08
-5.68691e-07
-8.91676e-09
-4.07662e-07
-3.05302e-14
-1.04063e-08
-3.72706e-14
-5.74175e-15
-2.83256e-17
-6.32153e-13
6.05863e-13
-7.91311e-13
-1.74986e-13
1.17124e-12
-1.99872e-12
9.5164e-09
-1.73187e-08
-1.01413e-08
-4.15778e-07
-3.72476e-08
-5.22935e-07
-8.66088e-08
-5.19395e-07
-3.38498e-08
-4.55468e-07
-2.62388e-13
-3.8576e-08
-8.44679e-17
-2.6806e-13
-2.20274e-17
-1.05166e-16
4.89664e-12
-1.45079e-12
-1.39209e-12
1.05992e-11
-7.71776e-12
2.54155e-08
-5.11204e-08
3.09237e-08
-4.33268e-07
-1.60738e-09
-4.90417e-07
-3.51912e-08
-4.85877e-07
-4.07459e-08
-4.49998e-07
-5.87555e-12
-7.8761e-08
-2.74714e-16
-6.14341e-12
-6.66188e-17
-2.4451e-16
2.32517e-11
-6.37726e-12
-1.32783e-11
1.09448e-10
-9.38367e-11
3.99781e-08
-9.74149e-08
2.38335e-08
-4.18722e-07
-1.82611e-08
-4.48363e-07
-5.46334e-08
-4.49496e-07
-5.99703e-08
-4.47266e-07
-1.19558e-10
-1.42202e-07
-7.15826e-15
-1.25694e-10
-6.82528e-15
-4.84605e-16
6.85949e-11
-1.26296e-11
-5.77787e-11
1.62354e-09
-1.64782e-09
9.62112e-08
-2.02089e-07
7.38727e-08
-3.98829e-07
3.08129e-08
-4.05301e-07
-6.80946e-09
-4.11867e-07
-5.18693e-08
-4.01698e-07
-2.22517e-09
-1.85319e-07
-7.53469e-13
-2.35011e-09
-7.58235e-13
-2.078e-15
2.73332e-11
-2.86502e-11
-7.22014e-12
1.54311e-08
-1.70482e-08
7.1172e-08
-2.55947e-07
2.63158e-08
-3.53968e-07
-1.6435e-08
-3.62544e-07
-6.44262e-08
-3.6388e-07
-1.08703e-07
-3.57415e-07
-2.37251e-08
-2.70857e-07
-4.27609e-11
-2.60325e-08
-4.3519e-11
-1.46145e-16
1.89968e-09
-1.92833e-09
-6.22793e-17
6.31181e-08
-7.48455e-08
1.03258e-07
-2.87641e-07
5.75609e-08
-3.08268e-07
7.28598e-09
-3.12269e-07
-4.37903e-08
-3.12804e-07
-8.89494e-08
-3.12261e-07
-7.19712e-08
-2.94948e-07
-1.74956e-09
-9.91171e-08
-1.79308e-09
-6.5849e-20
3.44429e-08
-3.63712e-08
-3.94819e-19
1.45024e-07
-1.90298e-07
1.11448e-07
-2.54248e-07
6.88686e-08
-2.65688e-07
2.27532e-08
-2.66154e-07
-2.76395e-08
-2.62411e-07
-8.39127e-08
-2.55988e-07