/*--------------------------------*- C++ -*----------------------------------*\
  =========                 |
  \\      /  F ield         | OpenFOAM: The Open Source CFD Toolbox
   \\    /   O peration     | Website:  https://openfoam.org
    \\  /    A nd           | Version:  8
     \\/     M anipulation  |
\*---------------------------------------------------------------------------*/
FoamFile
{
    version     2.0;
    format      ascii;
    class       volScalarField;
    location    "4.55";
    object      p;
}
// * * * * * * * * * * * * * * * * * * * * * * * * * * * * * * * * * * * * * //

dimensions      [1 -1 -2 0 0 0 0];

internalField   nonuniform List<scalar> 
9150
(
385.763
358.704
333.276
316.079
307.785
307.787
316.084
333.282
358.711
385.77
356.92
337.291
321.705
309.892
303.929
303.93
309.896
321.71
337.297
356.926
327.632
313.986
305.528
297.747
293.661
293.662
297.75
305.533
313.991
327.638
302.949
292.814
287.443
282.05
279.097
279.098
282.052
287.447
292.819
302.955
281.694
272.594
268.138
263.942
261.502
261.502
263.944
268.142
272.599
281.699
18.0765
14.908
39.9222
53.9903
60.738
60.7609
54.0574
40.0302
15.0518
18.2422
188.558
164.7
159.348
158.098
158.289
158.303
158.136
159.407
164.771
188.628
292.775
261.867
246.109
236.219
231.619
231.627
236.24
246.14
261.901
292.807
373.386
331.647
304.086
286.717
278.239
278.244
286.729
304.103
331.664
373.401
425.554
372.057
333.449
311.381
301.246
301.249
311.389
333.458
372.066
425.562
-69.1502
-27.8058
-37.5343
-28.8073
-34.0917
-33.9132
-28.7347
-37.6891
-26.5664
-66.117
-60.1897
-39.4973
-59.2642
-48.6371
-54.7839
-54.5607
-48.7344
-58.32
-39.0109
-57.8998
-99.1849
-68.5708
-102.182
-91.3107
-89.5593
-89.4623
-91.1638
-101.673
-67.9101
-97.9321
-277.685
-152.227
-139.372
-118.886
-102.372
-102.316
-118.706
-139.01
-151.805
-276.917
-430.825
-185.009
-90.7084
-60.3387
-44.056
-44.0202
-60.2251
-90.5187
-184.731
-430.375
1784.91
1785.11
1785.32
1785.53
1785.74
1785.96
1786.18
1786.4
1786.62
1786.85
1765.38
1765.58
1765.79
1766
1766.22
1766.44
1766.65
1766.87
1767.1
1767.32
1745.82
1746.03
1746.24
1746.45
1746.67
1746.88
1747.1
1747.32
1747.54
1747.76
1726.22
1726.43
1726.64
1726.86
1727.08
1727.3
1727.52
1727.74
1727.96
1728.18
1706.57
1706.78
1707
1707.22
1707.45
1707.67
1707.89
1708.12
1708.34
1708.57
1686.88
1687.1
1687.32
1687.55
1687.78
1688.01
1688.23
1688.46
1688.69
1688.92
1667.14
1667.37
1667.6
1667.84
1668.07
1668.3
1668.54
1668.78
1669.01
1669.25
1647.37
1647.6
1647.84
1648.08
1648.32
1648.57
1648.81
1649.05
1649.3
1649.54
1627.54
1627.79
1628.03
1628.28
1628.53
1628.79
1629.04
1629.29
1629.54
1629.8
1607.67
1607.92
1608.18
1608.44
1608.7
1608.96
1609.22
1609.49
1609.75
1610.02
1587.75
1588.01
1588.27
1588.54
1588.81
1589.08
1589.35
1589.63
1589.91
1590.19
1567.76
1568.03
1568.29
1568.58
1568.88
1569.16
1569.46
1569.95
1570.04
1570.32
1547.72
1547.99
1548.28
1548.64
1548.94
1549.23
1549.59
1549.93
1550.1
1550.39
1527.65
1527.94
1528.3
1528.64
1528.93
1529.14
1529.46
1529.76
1530.07
1530.39
1507.75
1507.82
1508.2
1508.5
1508.73
1509.03
1509.33
1509.65
1509.95
1510.25
1487.55
1487.61
1488.08
1488.16
1488.54
1488.78
1489.02
1489.37
1489.72
1490.09
1467.18
1467.38
1467.59
1467.81
1468.01
1468.59
1469.02
1469.01
1469.25
1469.54
1446.79
1446.96
1447.12
1447.3
1447.74
1448.07
1448.35
1448.27
1448.58
1448.84
1426.2
1426.46
1427.13
1426.53
1426.82
1427.1
1427.34
1427.51
1427.78
1427.95
1405.61
1405.45
1406.02
1406.12
1405.98
1406.16
1406.32
1406.51
1406.76
1406.99
1385.51
1386.27
1384.56
1384.78
1384.75
1384.71
1384.77
1384.82
1384.94
1386.27
1365.51
1364.52
1364.04
1363.76
1363.44
1363.02
1362.6
1364.12
1367.24
1364.78
1344.24
1343.6
1343.46
1342.97
1342.58
1342.63
1350.25
1344.26
1343.24
1344.48
1323.95
1323.96
1322.98
1322.07
1327.42
1330.39
1322.49
1321.64
1321.89
1322.28
1303.83
1302.75
1302.25
1306.9
1308.19
1304.38
1302.82
1302.05
1301.67
1301.39
1281.7
1284.12
1285.46
1286.48
1286.36
1285.15
1283.91
1282.69
1281.71
1280.88
1265.78
1266.59
1267.38
1267.97
1267.42
1266.17
1264.5
1262.96
1261.64
1260.48
1250.32
1250.37
1250.6
1250.17
1248.87
1246.8
1244.8
1243.06
1241.53
1240.15
1235.01
1234.75
1233.55
1231.1
1228.96
1226.7
1224.66
1222.86
1221.24
1219.75
1221.52
1218.58
1210.84
1209.02
1207.08
1205.26
1203.59
1202.03
1200.55
1199.15
1186.34
1186.75
1185.74
1185.31
1184.43
1183.34
1182.16
1180.95
1179.72
1178.5
1164.91
1164.58
1164.16
1163.61
1162.88
1162.03
1161.08
1160.08
1159.05
1158
1144.29
1143.76
1143.22
1142.58
1141.89
1141.14
1140.33
1139.49
1138.61
1137.72
1123.86
1123.22
1122.59
1121.94
1121.27
1120.59
1119.88
1119.16
1118.43
1117.68
1103.57
1102.87
1102.21
1101.56
1100.92
1100.3
1099.68
1099.07
1098.46
1097.86
1083.3
1082.6
1081.95
1081.34
1080.75
1080.2
1079.66
1079.14
1078.64
1078.17
1063.03
1062.38
1061.78
1061.23
1060.71
1060.23
1059.77
1059.32
1058.88
1058.5
1042.78
1042.2
1041.66
1041.18
1040.75
1040.35
1039.98
1039.66
1039.17
1038.73
1022.56
1022.06
1021.63
1021.27
1020.98
1020.79
1020.68
1020.71
1022.13
1024.21
1002.32
1001.88
1001.5
1001.19
1000.95
1000.79
1000.7
1000.7
1004.08
1002.84
982.112
981.723
981.403
981.157
980.989
980.903
980.894
981.266
981.474
981.946
961.932
961.572
961.283
961.068
960.933
960.879
960.928
961.07
961.346
961.708
941.791
941.433
941.145
940.931
940.794
940.737
940.766
940.884
941.074
941.318
921.702
921.317
921
920.755
920.585
920.497
920.493
920.57
920.716
921.12
901.678
901.229
900.844
900.527
900.283
900.118
900.044
900.023
900.063
900.407
881.728
881.168
880.663
880.217
879.828
879.498
879.35
879.385
879.348
879.401
861.895
861.199
860.497
859.874
859.3
858.813
858.738
858.443
858.102
857.81
842.192
841.257
840.31
839.365
838.482
837.597
837.083
836.412
835.708
835.302
822.667
821.446
820.164
818.868
817.571
816.276
815.034
813.869
812.814
811.917
803.364
801.763
800.101
798.358
796.551
794.693
792.817
790.967
789.221
787.698
784.347
782.362
780.248
778.151
775.64
773.023
770.272
767.377
764.432
761.674
765.645
763.386
762.465
758.263
754.935
751.258
747.271
742.775
737.496
732.852
749.09
753.677
742.965
739.071
734.596
730.084
726.986
725.448
724.353
727.789
740.37
733.556
726.754
720.16
714.595
714.923
721.414
727.005
727.763
728.042
723.907
712.171
708.809
701.2
702.371
721.284
727.433
727.615
727.651
727.717
707.427
701.99
696.118
693.765
707.406
727.37
727.532
727.544
727.559
727.623
693.097
690.435
687.504
687.315
699.791
722.418
726.852
727.161
727.229
727.293
681.818
679.727
678.84
678.83
683.631
699.442
717.071
724.643
725.548
725.021
665.171
663.058
661.991
661.085
660.419
661.719
668.5
678.245
685.111
685.061
647.442
644.83
643.333
642.116
640.917
639.68
638.798
638.477
637.974
636.56
626.377
624.588
623.07
621.755
620.512
619.287
617.956
616.377
614.458
612.025
613.859
605.095
603.053
601.693
600.304
598.885
597.403
595.711
593.612
590.89
598.574
601.531
586.098
583.873
581.964
580.353
578.899
577.343
575.422
572.848
574.444
584.683
576.738
569.753
566.575
564.487
563.263
562.063
560.123
558.093
564.387
562.39
565.436
551.589
550.132
550.624
551.481
550.832
547.587
546.561
556.742
552.251
544.457
546.279
550.749
540.327
541.787
547.071
544.21
541.073
550.765
551.691
545.743
540.622
541.194
539.765
539.877
541.219
535.496
536.745
546.658
550.752
546.028
539.171
537.395
536.875
536.789
538.168
534.526
532.342
544.207
547.258
541.759
536.713
534.815
534.026
534.259
534.527
532.995
526.155
540.802
542.458
540.631
538.261
536.545
535.479
535.028
534.216
529.852
519.468
539.954
541.986
542.451
541.326
539.304
537.114
534.131
530.347
521.962
510.5
539.778
544.806
544.855
541.792
536.866
531.447
527.078
520.171
510.765
499.454
542.565
542.228
536.655
530.436
526.702
521.416
515.981
508.905
498.938
486.333
524.604
520.433
520.471
517.088
514.254
511.783
505.683
497.051
486.173
470.807
502.173
503.815
505.587
507.113
505
502.178
493.662
481.626
465.365
444.947
485.227
490.995
495.226
497.308
494.436
485.109
471.517
453.986
433.408
407.853
471.3
480.155
481.6
477.396
469.403
458.091
440.199
417.277
390.725
360.593
450.79
452.596
452.219
447.341
436.459
420.589
399.501
373.15
342.062
306.824
415.206
417.435
415.109
408.66
396.519
377.986
353.174
322.647
287.118
247.439
366.517
371.098
369.991
362.635
348.456
327.458
300.182
267.364
229.85
188.246
307.282
313.2
312.514
305.367
291.32
270.533
243.789
212.069
176.248
135.259
240.8
246.742
246.902
241.781
230.226
212.305
189.075
161.839
130.795
91.103
175.814
183.627
182.895
179.976
172.049
158.546
140.619
119.649
94.5398
59.0331
110.226
128.314
128.158
126.221
121.839
113.137
100.926
86.301
66.5401
37.7591
53.2612
78.4484
84.1913
84.1737
82.4997
77.742
70.2962
60.8152
46.9319
29.1118
31.3805
45.9414
53.3764
55.0169
54.6945
52.1945
47.7455
41.7516
33.4859
25.6168
23.9353
29.0357
34.2978
36.3412
36.3025
34.5297
31.352
26.9976
21.3645
16.6978
19.9538
20.2251
23.1636
24.8271
24.5324
22.7164
19.869
16.0898
11.4602
7.56718
16.8055
15.201
16.574
17.6382
16.985
14.8881
11.9302
8.15751
4.33208
2.98749
13.4886
11.5285
12.0551
12.6746
11.8288
9.54097
6.37755
2.43709
-0.887531
-0.0228911
9.55112
8.09721
8.34344
8.72996
7.92645
5.71338
2.48501
-1.48404
-4.40321
-2.03119
5.48909
4.75127
4.87803
5.13151
4.55254
2.69016
-0.404728
-4.26709
-6.88223
-3.56049
0.800236
0.47121
1.02097
1.5343
1.41759
0.103492
-2.66763
-6.34555
-8.7443
-4.74248
-0.883622
-2.94922
-2.5213
-1.69737
-1.28768
-2.07228
-4.41416
-7.90203
-10.2401
-5.69373
-2.17058
-5.43138
-5.3935
-4.48929
-3.72157
-4.13806
-5.94992
-9.06
-11.5488
-6.55419
-3.5924
-8.37391
-8.49967
-7.70973
-6.80636
-7.04849
-8.29889
-10.4499
-13.2741
-7.6315
-6.2507
-13.576
-13.0601
-12.328
-11.0383
-11.2338
-12.3567
-13.262
-16.7616
-9.62184
-11.825
-19.9745
-17.2957
-16.9316
-14.9846
-15.1846
-16.5447
-16.5645
-20.9531
-13.2609
-22.4993
-15.8772
-15.0444
-18.6139
-18.1595
-18.3783
-18.2323
-15.8409
-16.4317
-19.6742
-38.9283
-3.20802
-15.288
-21.0885
-23.7484
-23.7788
-20.8945
-16.7931
-4.14285
-34.1065
1787.09
1787.35
1787.61
1787.87
1788.13
1788.39
1788.65
1788.92
1789.18
1789.45
1789.71
1789.98
1790.25
1790.52
1790.78
1791.05
1791.32
1791.58
1791.85
1792.11
1792.37
1792.62
1792.87
1793.12
1793.35
1793.58
1793.8
1794
1794.2
1794.38
1794.54
1794.69
1794.83
1794.95
1795.06
1795.15
1795.23
1795.28
1795.32
1795.33
1767.56
1767.81
1768.06
1768.32
1768.58
1768.83
1769.09
1769.35
1769.61
1769.87
1770.13
1770.39
1770.66
1770.92
1771.19
1771.45
1771.72
1771.99
1772.25
1772.52
1772.78
1773.04
1773.29
1773.53
1773.78
1774.01
1774.23
1774.45
1774.64
1774.82
1774.99
1775.14
1775.28
1775.4
1775.51
1775.6
1775.66
1775.72
1775.75
1775.77
1748
1748.25
1748.5
1748.76
1749.01
1749.26
1749.51
1749.77
1750.02
1750.28
1750.54
1750.8
1751.06
1751.32
1751.58
1751.85
1752.12
1752.38
1752.65
1752.92
1753.18
1753.45
1753.71
1753.96
1754.21
1754.45
1754.68
1754.89
1755.1
1755.28
1755.45
1755.61
1755.75
1755.88
1755.98
1756.07
1756.14
1756.19
1756.24
1756.27
1728.42
1728.67
1728.92
1729.17
1729.42
1729.67
1729.92
1730.17
1730.42
1730.68
1730.93
1731.19
1731.45
1731.71
1731.98
1732.24
1732.51
1732.78
1733.06
1733.33
1733.61
1733.88
1734.15
1734.42
1734.67
1734.93
1735.17
1735.4
1735.61
1735.8
1735.98
1736.14
1736.28
1736.4
1736.51
1736.59
1736.67
1736.73
1736.79
1736.84
1708.81
1709.06
1709.31
1709.56
1709.81
1710.06
1710.31
1710.56
1710.81
1711.06
1711.31
1711.57
1711.83
1712.09
1712.36
1712.63
1712.9
1713.18
1713.46
1713.75
1714.04
1714.32
1714.61
1714.89
1715.17
1715.44
1715.7
1715.95
1716.17
1716.37
1716.56
1716.72
1716.87
1716.99
1717.09
1717.17
1717.23
1717.32
1717.42
1717.46
1689.16
1689.42
1689.67
1689.92
1690.17
1690.43
1690.67
1690.92
1691.17
1691.43
1691.68
1691.93
1692.19
1692.46
1692.73
1693
1693.28
1693.57
1693.87
1694.17
1694.47
1694.78
1695.09
1695.39
1695.7
1696
1696.29
1696.55
1696.8
1697.03
1697.23
1697.4
1697.55
1697.67
1697.76
1697.82
1698.14
1698.05
1698.17
1698.19
1669.49
1669.75
1670.01
1670.27
1670.52
1670.77
1671.02
1671.27
1671.52
1671.78
1672.03
1672.28
1672.54
1672.81
1673.08
1673.36
1673.65
1673.95
1674.26
1674.58
1674.9
1675.23
1675.57
1675.91
1676.25
1676.6
1676.91
1677.22
1677.51
1677.77
1678
1678.21
1678.38
1678.51
1678.69
1678.94
1679.19
1679.16
1679.15
1679.21
1649.79
1650.06
1650.32
1650.59
1650.85
1651.1
1651.35
1651.61
1651.86
1652.11
1652.36
1652.61
1652.87
1653.14
1653.41
1653.7
1654
1654.31
1654.63
1654.97
1655.32
1655.68
1656.05
1656.43
1656.82
1657.22
1657.61
1657.97
1658.31
1658.61
1658.9
1659.16
1659.38
1659.69
1660.08
1660.24
1660.34
1660.4
1660.43
1660.45
1630.06
1630.34
1630.61
1630.88
1631.15
1631.41
1631.67
1631.92
1632.17
1632.42
1632.67
1632.92
1633.18
1633.45
1633.72
1634.01
1634.31
1634.64
1634.98
1635.34
1635.72
1636.11
1636.5
1636.92
1637.38
1637.86
1638.35
1638.79
1639.17
1639.53
1639.87
1640.2
1640.45
1640.74
1641.16
1641.31
1641.39
1641.56
1641.45
1641.45
1610.29
1610.58
1610.87
1611.15
1611.43
1611.69
1611.96
1612.22
1612.47
1612.72
1612.97
1613.21
1613.46
1613.72
1613.99
1614.28
1614.59
1614.92
1615.27
1615.66
1616.09
1616.53
1616.92
1617.32
1617.94
1618.7
1619.2
1619.75
1620.14
1620.53
1620.96
1621.44
1621.74
1621.93
1622.19
1622.48
1622.78
1622.95
1622.96
1622.9
1590.49
1590.8
1591.09
1591.39
1591.68
1591.96
1592.23
1592.49
1592.75
1593
1593.24
1593.47
1593.71
1593.96
1594.21
1594.49
1594.8
1595.16
1595.55
1595.96
1596.51
1597.2
1597.74
1599.74
1600.33
1599.51
1600.54
1600.98
1601.63
1602.61
1602.78
1602.95
1603.4
1603.09
1603.92
1604.09
1603.91
1604.09
1604.09
1604.1
1570.63
1570.96
1571.28
1571.59
1571.89
1572.19
1572.48
1572.75
1573.01
1573.25
1573.48
1573.7
1573.92
1574.14
1574.37
1574.62
1574.93
1575.37
1575.87
1576.79
1578.02
1578.7
1579.54
1580.47
1580.92
1580.78
1581.69
1582.05
1583.23
1583.89
1584.06
1584.4
1584.91
1584.79
1585.55
1585.77
1585.86
1585.92
1585.9
1585.6
1550.72
1551.06
1551.4
1551.73
1552.06
1552.37
1552.67
1552.96
1553.21
1553.45
1553.66
1553.85
1554.04
1554.22
1554.42
1554.64
1555.35
1556.54
1557.06
1557.7
1558.67
1559.5
1559.54
1560.44
1561.2
1561.81
1562.49
1563.54
1564.59
1564.75
1565.35
1565.84
1566.28
1566.63
1566.97
1567.28
1567.68
1567.77
1567.49
1567.37
1530.72
1531.08
1531.43
1531.78
1532.13
1532.46
1532.79
1533.07
1533.33
1533.55
1533.74
1533.9
1534.05
1534.21
1534.4
1534.66
1535.91
1536.67
1536.39
1537.76
1538.3
1538.94
1539.78
1540.71
1541.63
1542.6
1543.55
1544.44
1545.34
1546.13
1546.81
1547.39
1547.88
1548.29
1548.63
1548.86
1548.98
1549.01
1548.98
1548.88
1510.6
1510.99
1511.36
1511.7
1512.05
1512.4
1512.73
1513.04
1513.3
1513.51
1513.66
1513.77
1513.87
1513.98
1514.09
1514.35
1514.92
1515.51
1516.16
1516.83
1517.65
1518.54
1519.6
1520.76
1521.97
1523.21
1524.48
1525.7
1526.81
1527.77
1528.57
1529.22
1529.74
1530.14
1530.44
1530.65
1530.75
1530.76
1530.69
1530.4
1490.32
1490.67
1491.03
1491.38
1491.73
1492.09
1492.43
1492.76
1493.04
1493.25
1493.35
1493.38
1493.38
1493.4
1493.38
1493.25
1493.28
1493.77
1494.86
1495.71
1496.21
1497.52
1499.06
1500.65
1502.19
1503.85
1505.57
1507.22
1508.66
1509.82
1510.72
1511.39
1511.87
1512.23
1512.47
1512.62
1512.67
1512.63
1512.49
1512.06
1469.84
1470.15
1470.44
1470.75
1471.06
1471.39
1471.74
1472.14
1472.52
1472.79
1472.92
1472.93
1473.09
1473.19
1473.74
1475.08
1477.88
1477.9
1477.99
1478.45
1479.36
1479.41
1478.87
1480.63
1482.4
1484.48
1486.88
1489.14
1491.01
1492.36
1493.25
1493.81
1494.18
1494.41
1494.56
1494.62
1494.6
1494.49
1494.24
1493.8
1449.1
1449.33
1449.48
1449.65
1449.85
1450.13
1450.41
1450.87
1451.62
1452.31
1452.65
1453.12
1456.44
1457.43
1457.47
1456.56
1458.32
1457.37
1458.55
1459
1459.26
1458.71
1458.62
1461.06
1461.86
1464.23
1468.23
1471.57
1473.92
1475.22
1475.8
1476.11
1476.27
1476.35
1476.35
1476.26
1476.15
1476
1475.69
1475.3
1428.03
1428.23
1428.17
1427.95
1428.28
1428.92
1432.15
1433.77
1430.31
1432.1
1432.39
1434.03
1438.03
1436.97
1435.38
1436.23
1436.9
1436.97
1436.62
1439.95
1436.84
1439.31
1439.93
1441.7
1446.38
1455.89
1451.83
1454.58
1457.32
1458.98
1458.58
1458.62
1458.57
1458.32
1457.98
1457.51
1457.14
1456.92
1456.56
1456.39
1406.89
1407.58
1408.08
1410.2
1413.31
1414.84
1410.23
1409.38
1409.63
1410.14
1410.69
1411.32
1411.46
1412.17
1412.84
1413.61
1414.35
1414.97
1415.43
1415.95
1415.79
1419.5
1429.42
1433.8
1439.54
1444.76
1447.59
1444.6
1439.68
1442.63
1443.32
1444.67
1445.15
1444.64
1442.15
1439.59
1438.65
1438.29
1437.34
1437.26
1385.83
1391.98
1392.9
1393.74
1394.91
1394.22
1388.48
1388.08
1388.04
1388.15
1388.34
1388.66
1389.05
1389.56
1390.2
1390.96
1391.83
1392.81
1393.96
1395.95
1399.86
1409.68
1413.89
1416.89
1418.32
1415.77
1419.81
1422.47
1421.92
1425.93
1432.49
1435.13
1435.96
1436.16
1435.45
1433.62
1428.85
1423.09
1418.77
1418.74
1368.11
1370.2
1374.98
1373.69
1369.56
1369.08
1367.4
1366.42
1365.95
1365.7
1365.61
1365.66
1365.85
1366.16
1366.6
1367.16
1367.84
1368.63
1369.52
1370.79
1372.98
1378.41
1392.03
1382.8
1384.68
1385.14
1387.05
1390.06
1393.15
1396.05
1399.29
1402.84
1406.6
1410.21
1412.43
1412.63
1413.68
1416.22
1414.15
1412.52
1344.82
1345.06
1345.67
1345.52
1344.91
1344.55
1343.93
1343.32
1342.82
1342.45
1342.19
1342.03
1341.98
1342.04
1342.18
1342.41
1342.71
1343.06
1343.45
1343.95
1344.8
1345.93
1346.48
1346.51
1347.28
1349.08
1351.74
1355.01
1358.73
1362.88
1367.53
1372.63
1377.87
1383.03
1387.87
1391.87
1394.44
1393.91
1395.36
1400.88
1322.46
1322.46
1322.41
1322.18
1321.8
1321.32
1320.73
1320.11
1319.51
1318.97
1318.49
1318.08
1317.72
1317.4
1317.13
1316.85
1316.53
1316.12
1315.55
1314.78
1313.85
1312.74
1311.37
1310.28
1310.72
1312.95
1316.06
1319.81
1324.26
1329.32
1334.84
1340.67
1346.78
1352.51
1357.78
1362.82
1367.16
1370.51
1370.51
1368.94
1301.06
1300.64
1300.21
1299.71
1299.17
1298.51
1297.79
1297.03
1296.27
1295.51
1294.78
1294.06
1293.38
1292.73
1291.83
1290.86
1289.83
1288.58
1286.98
1284.96
1282.45
1279.27
1275.23
1271.28
1272.78
1278.96
1283.11
1286.68
1291.09
1296.38
1302.23
1308.35
1314.72
1321.09
1326.96
1332.34
1337.08
1340.76
1342.12
1339.46
1280.09
1279.3
1278.54
1277.76
1276.95
1276.09
1275.19
1274.24
1273.26
1272.26
1271.24
1270.17
1269.05
1267.86
1266.76
1265.51
1263.01
1260.88
1258.27
1255.05
1250.85
1245
1237.31
1235.99
1255.53
1253.34
1254.77
1257.71
1261.22
1266.03
1271.57
1277.45
1283.47
1289.41
1294.96
1300.23
1305.13
1308.87
1310.32
1309.33
1259.36
1258.27
1257.23
1256.2
1255.16
1254.09
1252.98
1251.83
1250.61
1249.34
1248
1246.57
1245.03
1243.33
1241.47
1239.67
1238.84
1235.42
1231.3
1227.81
1222.79
1215.67
1211.74
1225.95
1240.72
1227.6
1228.68
1231.78
1234.54
1238.75
1243.47
1248.72
1254.09
1259.36
1264.37
1268.92
1272.8
1275.65
1277.19
1277.13
1238.8
1237.49
1236.23
1235
1233.77
1232.51
1231.21
1229.84
1228.39
1226.85
1225.19
1223.39
1221.4
1219.21
1216.77
1214.06
1211.12
1208.2
1208.72
1201.82
1197.32
1189.1
1191.98
1202.59
1207.02
1204.66
1205.28
1207.65
1209.73
1213.7
1217.64
1222.01
1226.7
1231.27
1235.56
1239.34
1242.4
1244.43
1245.19
1245.66
1218.29
1216.85
1215.47
1214.11
1212.74
1211.34
1209.88
1208.33
1206.68
1204.89
1202.93
1200.76
1198.47
1195.73
1192.55
1188.99
1184.88
1180.2
1173.97
1166.64
1164.36
1165.75
1172.52
1178.34
1179.09
1179.81
1181.88
1183.92
1185.91
1189.33
1192.98
1196.83
1200.92
1204.85
1208.47
1211.55
1213.85
1215.06
1215.13
1214.88
1197.73
1196.3
1194.9
1193.5
1192.07
1190.59
1189.04
1187.38
1185.59
1183.64
1181.49
1179.12
1176.53
1173.85
1170.3
1166.53
1162.24
1157.02
1150.3
1147.52
1148.92
1150.53
1153.3
1156.68
1156.87
1157.18
1159.41
1160.7
1163.46
1166.34
1169.42
1172.91
1176.46
1179.84
1182.87
1185.34
1187.04
1187.65
1187.26
1186.35
1177.22
1175.88
1174.54
1173.18
1171.76
1170.28
1168.71
1167.01
1165.17
1163.15
1160.93
1158.49
1155.82
1152.88
1150.35
1146.37
1142.29
1136.62
1132.37
1132.87
1134.93
1136.87
1138.89
1138.36
1135.56
1134.88
1136.51
1138.11
1141.14
1143.63
1146.65
1149.89
1153.04
1155.96
1158.5
1160.5
1161.77
1162.02
1161.32
1160.19
1156.87
1155.68
1154.45
1153.18
1151.85
1150.43
1148.9
1147.24
1145.41
1143.39
1141.16
1138.74
1136.1
1133.17
1129.59
1125.04
1118.55
1115.68
1120.02
1121.86
1123.42
1124.82
1126.02
1121.64
1114.06
1112.58
1114.12
1115.99
1118.99
1121.26
1124.46
1127.61
1130.5
1133.07
1135.21
1136.84
1137.81
1137.89
1137.08
1136.06
1136.76
1135.73
1134.66
1133.53
1132.33
1131.04
1129.63
1128.1
1126.38
1124.45
1122.29
1120.09
1118.19
1116.3
1113
1108.29
1100.92
1104.7
1112.07
1114.23
1114.57
1114.46
1111.23
1101.51
1092.97
1091.79
1092.73
1094.14
1096.45
1099.87
1103.54
1106.55
1109.11
1111.32
1113.11
1114.43
1115.19
1115.22
1114.45
1113.72
1116.89
1116.04
1115.15
1114.21
1113.19
1112.08
1110.87
1109.58
1108.14
1106.17
1103.95
1102.5
1101.66
1104.98
1101.78
1102.24
1102.14
1104.98
1097.12
1102.72
1102.07
1097.33
1085.02
1076.2
1072.16
1071.47
1070.86
1070.52
1072.75
1080
1086.1
1088.39
1089.85
1091.35
1092.66
1093.62
1094.16
1094.15
1093.5
1093.17
1097.24
1096.59
1095.93
1095.23
1094.48
1093.69
1092.85
1092.1
1091.15
1089.38
1092.02
1091.98
1088.81
1097.25
1089.72
1092.47
1084.82
1071.61
1082.96
1072.32
1069.78
1057.73
1060.78
1061.62
1059.86
1055.45
1050.23
1045.65
1050.33
1070.21
1072.36
1074.07
1073.45
1073.6
1074.15
1074.62
1074.88
1074.79
1074.26
1074.19
1077.71
1077.29
1076.87
1076.43
1075.94
1075.41
1074.86
1076.51
1076.76
1076.93
1077.36
1077.38
1076.21
1088.38
1074.09
1073.64
1074.37
1052.85
1062.08
1060.3
1042.89
1038.54
1049.86
1053
1049.25
1042.55
1034.85
1031.46
1051.02
1082.84
1058.17
1058.86
1057.43
1056.81
1056.85
1056.99
1057.05
1056.94
1056.57
1056.95
1058.23
1058.11
1058.03
1057.92
1057.73
1057.99
1062.18
1062.78
1063.14
1061.38
1061.86
1063.64
1062.62
1069.45
1057.12
1052.1
1054.45
1047.3
1045.1
1043.78
1043.17
1046.86
1050.56
1046.38
1037.88
1030.32
1024.81
1026.8
1044.47
1057.94
1034.44
1037.66
1038.9
1039.41
1039.85
1040.17
1040.33
1040.37
1040.27
1041.15
1038.38
1038.9
1039.42
1039.75
1039.94
1044.67
1048.8
1047.3
1045.66
1048.52
1048.51
1046.33
1053.6
1052.64
1051.19
1045.77
1043.91
1042.07
1041.56
1042.04
1043.01
1044.11
1043.6
1035.7
1023.42
1015.05
1010.05
1015.42
1026.45
1032.52
1014.39
1019.73
1022.38
1023.5
1024.2
1024.69
1025.02
1025.26
1025.49
1026.68
1024.55
1024.08
1024.08
1024.32
1024.1
1024.12
1024.92
1026.44
1027.7
1028.95
1029.94
1030.75
1032.62
1036.79
1039.36
1039.45
1039.77
1039.93
1039.69
1039.78
1040.39
1039.9
1034.3
1020.13
1008.19
999.358
994.95
998.45
1004.73
1006.2
993.768
1004.45
1010.03
1010.92
1011
1011.25
1011.55
1011.92
1012.46
1013.52
1003.72
1003.05
1007.65
1005.89
1004.64
1005.56
1006.42
1007.5
1008.8
1010.2
1011.69
1013.38
1015.64
1018.61
1022.26
1026.23
1032.01
1035.91
1034.79
1034.29
1032.78
1025.8
1011.9
1000.31
991.971
984.351
980.344
981.569
984.536
983.166
976.49
987.496
999.541
1001.7
1000.63
999.925
999.855
1000.17
1000.79
1001.66
982.572
982.91
983.328
984.171
985.027
985.977
987.026
988.224
989.576
991.087
992.765
994.68
996.961
999.648
1002.76
1006.89
1013.8
1016.06
1015.7
1018.21
999.21
993.039
986.349
982.154
977.149
971.792
968.825
969.89
970.734
968.613
966.387
970.365
981.923
989.688
990.434
989.281
988.95
989.232
989.775
990.437
962.165
962.71
963.367
964.163
965.078
966.098
967.225
968.48
969.862
971.376
973.033
974.862
976.755
978.809
980.895
982.924
984.279
976.634
990.608
983.885
974.082
974.725
973.879
971.216
967.655
964.968
963.265
963.554
963.237
961.996
960.72
961.11
964.822
972.594
977.744
977.969
978.021
978.465
978.957
979.412
941.67
942.245
942.985
943.848
944.813
945.884
947.065
948.364
949.783
951.33
953.013
954.841
956.754
958.795
960.841
962.163
963.418
971.7
972.954
961.227
960.181
962.55
963.732
962.485
960.817
960.964
960.864
959.998
959.03
957.799
956.425
955.378
955.567
959.326
964.608
966.365
967.16
967.848
968.348
968.704
921.842
922.002
922.38
923.243
924.219
925.307
926.514
927.843
929.299
930.889
932.625
934.531
936.551
938.736
941.11
943.816
948.716
962.328
948.457
945.347
947.455
952.682
957.778
959.833
961.615
964.189
961.065
958.357
955.982
953.775
951.869
950.325
949.368
949.931
952.516
955.961
956.911
957.606
958.112
958.467
900.837
901.361
901.679
902.347
903.254
904.316
905.525
906.882
908.388
910.053
911.9
913.955
916.251
918.79
922.038
927.132
935.346
948.711
922.203
924.647
931.935
941.276
952.135
961.043
969.528
967.783
958.966
953.803
949.745
946.983
945.067
943.525
942.233
940.719
941.952
945.73
946.902
947.631
948.242
948.784
879.569
879.856
880.283
880.901
881.724
882.74
883.936
885.301
886.825
888.503
890.339
892.337
894.51
896.752
899.589
904.391
913.224
924.097
899.569
904.051
912.401
921.886
932.531
942.632
949.737
947.398
950.718
950.239
946.468
941.16
937.088
935.167
933.926
932.706
933.328
935.225
937.055
937.969
938.831
939.706
857.734
857.837
858.12
858.645
859.412
860.407
861.611
863.006
864.566
866.267
868.086
869.989
871.922
873.759
875.812
879.403
886.526
896.461
876.311
881.968
890.521
899.933
909.043
917.215
923.092
927.712
934.083
940.901
944.397
940.851
933.245
928.462
926.386
925.605
925.096
925.41
927.525
928.725
929.982
931.275
834.957
834.813
834.952
835.403
836.149
837.167
838.439
839.937
841.615
843.428
845.32
847.201
848.92
850.27
851.187
852.223
853.018
865.43
851.95
853.506
863.439
877.647
890.052
897.972
903.85
909.393
915.183
921.117
926.97
931.217
929.847
923.959
920.442
919.139
918.335
918.117
918.582
919.997
921.793
923.569
811.184
810.733
810.703
811.125
811.938
813.096
814.59
816.379
818.39
820.57
822.862
825.12
827.033
828.208
828.381
827.777
826.613
825.314
820.658
831.323
838.196
854.016
871.902
883.057
888.85
893.488
898.546
903.761
908.968
914.069
917.932
917.916
914.967
914.573
913.806
911.07
910.447
912.106
914.55
916.851
786.426
785.567
785.397
786.065
787.08
788.309
790.153
792.454
794.91
797.544
800.519
803.686
806.356
807.723
808.252
811.064
816.974
820.719
827.205
833.582
838.703
846.105
854.443
870.5
877.507
880.183
883.869
888.402
893.192
898.107
903.057
907.245
908.967
908.048
911.169
907.388
904.939
905.473
908.227
911.031
759.15
756.199
753.725
754.32
755.708
756.818
758.746
761.186
763.391
765.746
769.677
776.523
786.062
796.077
802.913
807.538
819.002
826.342
830.24
831.842
833.071
835.264
841.848
857.109
864.678
866.895
870.019
874.245
878.88
883.669
888.576
893.644
898.64
901.068
911.205
909.771
893.533
896.77
901.862
906.03
731.644
731.703
730.768
731.37
732.599
734.017
735.807
738.131
741.316
745.706
751.682
760.924
773.055
787.27
801.142
811.744
817.16
820.367
823.185
826.88
830.485
833.623
840.696
847.384
850.75
853.314
856.958
861.385
866.186
871.181
876.293
881.475
886.753
892.031
895.241
917.764
896.751
896.191
900.25
905.121
727.789
727.757
727.944
728.239
728.687
729.588
731.205
733.95
738.425
744.71
752.048
759.131
765.647
772.878
782.179
792.821
803.855
812.961
817.671
817.77
819.668
824.277
829.118
832.715
836.082
840.026
844.575
849.519
854.7
860.015
865.362
870.619
875.701
880.777
885.91
915.231
904.316
894.894
899.357
905.842
728.144
728.201
728.281
728.432
728.674
729.059
729.746
730.816
732.363
735.453
741.177
749.407
759.328
768.788
775.19
781.827
786.24
790.702
793.962
797.673
802.266
807.501
812.399
817.342
822.419
827.705
833.203
838.889
844.733
850.709
856.791
862.939
869.221
875.98
884.676
896.526
915.306
891.841
899.159
907.975
727.813
727.919
728.048
728.242
728.417
728.512
728.753
729.836
732.903
736.269
738.259
739.659
744.433
750.932
754.861
757.429
760.248
765.453
772.6
779.699
786.291
792.394
798.275
804.279
810.452
816.687
822.981
829.37
835.873
842.477
849.178
855.981
863.191
870.024
878.09
887.162
909.371
896.781
904.309
914.622
727.7
727.737
727.708
727.721
727.998
728.366
727.743
724.526
722.883
722.647
720.207
717.69
717.998
722.865
730.278
738.55
746.843
754.882
762.008
768.898
776.37
781.911
787.522
793.309
799.874
806.785
813.715
820.712
827.867
835.058
842.395
849.857
857.735
865.307
873.848
883.047
890.858
899.453
910.347
922.77
727.409
727.485
727.338
726.001
721.08
714.228
705.374
696.979
689.734
687.124
688.731
693.277
700.162
708.731
718.094
727.474
736.257
745.318
753.631
761.227
767.968
774.022
779.735
784.549
790.67
797.798
805.017
812.415
820.07
827.815
835.74
843.764
852.128
860.665
869.698
879.442
889.569
900.881
915.178
929.566
722.818
718.128
710.207
699.098
685.066
671.995
663.309
660.056
659.926
661.874
665.413
672.214
680.494
690.526
700.967
711.994
722.101
731.113
739.9
747.68
755.698
763.095
769.465
775
781.252
788.236
795.493
803.156
811.15
819.368
827.759
836.313
845.104
854.325
864.37
876.162
885.813
899.436
916.134
932.381
678.794
668.991
658.701
649.906
642.928
637.2
633.289
630.062
629.397
631.357
635.927
642.489
651.969
664.194
677.602
690.309
702.148
713.06
722.841
731.635
739.306
748.106
754.968
761.123
768.4
775.394
782.865
790.871
799.255
807.91
816.774
825.818
835.043
844.695
855.371
868.479
881.185
894.034
912.325
930.033
633.774
629.381
624.205
618.846
612.377
606.184
600.977
596.351
592.854
591.173
593.365
600.527
612.691
629.058
646.734
663.433
678.389
691.455
702.655
712.136
720.242
727.912
735.764
743.233
750.258
757.49
765.275
773.595
782.348
791.438
800.79
810.357
820.132
830.284
841.569
854.515
869.461
883.569
902.735
921.469
608.708
604.197
598.023
591.439
585.538
578.454
569.363
560.341
550.965
542.662
538.028
541.742
559.964
585.916
611.247
632.543
650.725
666.053
678.777
689.25
697.986
705.599
712.7
719.54
726.359
733.539
741.318
749.719
758.648
768.062
777.899
788.051
798.454
809.192
820.789
833.907
850.322
866.554
885.754
905.342
587.125
582.142
576.545
572.524
564.377
554.514
543.108
529.681
517.51
511.254
513.476
518.344
527.793
548.66
579.376
604.706
623.219
638.73
651.755
662.294
670.838
678.005
684.358
690.392
696.515
703.068
710.409
718.447
726.954
736.33
746.681
757.665
769.009
780.733
793.147
807.274
823.412
841.6
859.729
880.337
569.431
566.252
562.504
556.898
550.388
540.524
523.485
512.513
510.424
511.608
512.969
515.086
519.843
528.688
554.702
582.048
598.148
611.066
622.633
632.109
639.648
645.848
651.221
656.217
660.929
665.482
670.857
676.356
683.092
693.156
705.512
718.251
731.067
744
757.42
772.168
788.673
807.979
826.509
847.246
555.535
552.821
550.192
547.022
541.467
525.054
513.286
509.287
508.39
508.706
509.136
509.785
512.644
518.245
534.504
558.889
572.022
582.092
591.529
599.447
605.859
611.231
615.095
616.945
617.348
617.756
622.073
634.378
639.794
643.282
656.266