/*--------------------------------*- C++ -*----------------------------------*\
  =========                 |
  \\      /  F ield         | OpenFOAM: The Open Source CFD Toolbox
   \\    /   O peration     | Website:  https://openfoam.org
    \\  /    A nd           | Version:  8
     \\/     M anipulation  |
\*---------------------------------------------------------------------------*/
FoamFile
{
    version     2.0;
    format      ascii;
    class       surfaceScalarField;
    location    "4.75";
    object      alphaPhi0.water;
}
// * * * * * * * * * * * * * * * * * * * * * * * * * * * * * * * * * * * * * //

dimensions      [0 3 -1 0 0 0 0];

internalField   nonuniform List<scalar> 
18095
(
1.5856e-07
-9.65455e-07
8.06895e-07
1.65431e-07
-1.24823e-06
1.24135e-06
1.22246e-07
-1.24223e-06
1.28542e-06
6.53862e-08
-1.26348e-06
1.32034e-06
8.86304e-11
-1.28048e-06
1.34578e-06
-6.52249e-08
-1.2805e-06
1.34581e-06
-1.22124e-07
-1.26353e-06
1.32042e-06
-1.65352e-07
-1.24228e-06
1.28551e-06
-1.58529e-07
-1.24827e-06
1.24145e-06
-9.65553e-07
8.07024e-07
1.11041e-07
-1.0765e-06
9.94378e-08
-1.23662e-06
7.28925e-08
-1.21569e-06
4.00801e-08
-1.23067e-06
5.96557e-11
-1.24046e-06
-3.99698e-08
-1.24047e-06
-7.28049e-08
-1.23069e-06
-9.93723e-08
-1.21571e-06
-1.11004e-07
-1.23664e-06
-1.07656e-06
6.7172e-08
-1.14367e-06
5.27749e-08
-1.22223e-06
4.21687e-08
-1.20508e-06
2.38917e-08
-1.21239e-06
3.81673e-11
-1.21661e-06
-2.38203e-08
-1.21661e-06
-4.21109e-08
-1.2124e-06
-5.27309e-08
-1.20509e-06
-6.71405e-08
-1.22223e-06
-1.1437e-06
3.96319e-08
-1.1833e-06
2.66355e-08
-1.20923e-06
2.20301e-08
-1.20048e-06
1.25446e-08
-1.20291e-06
2.15109e-11
-1.20408e-06
-1.25041e-08
-1.20408e-06
-2.19967e-08
-1.20291e-06
-2.66105e-08
-1.20048e-06
-3.96106e-08
-1.20923e-06
-1.18331e-06
1.67005e-08
7.47132e-09
6.99595e-09
4.09075e-09
7.14511e-12
-4.07719e-09
-6.98486e-09
-7.46372e-09
-1.66917e-08
-1.7458e-07
-1.16346e-06
1.33804e-06
-2.18684e-07
-1.21618e-06
1.26028e-06
-1.64569e-07
-1.21266e-06
1.15854e-06
-8.62932e-08
-1.20386e-06
1.12559e-06
9.65394e-10
-1.20242e-06
1.11516e-06
8.81802e-08
-1.20257e-06
1.11535e-06
1.6627e-07
-1.20426e-06
1.12617e-06
2.20237e-07
-1.21324e-06
1.15927e-06
1.75988e-07
-1.21698e-06
1.26123e-06
-1.16438e-06
1.34037e-06
-9.27333e-08
-1.07072e-06
-9.52887e-08
-1.21362e-06
-7.88526e-08
-1.22909e-06
-4.37319e-08
-1.23898e-06
5.44577e-10
-1.2467e-06
4.47766e-08
-1.2468e-06
7.97858e-08
-1.23927e-06
9.60501e-08
-1.2295e-06
9.3165e-08
-1.2141e-06
-1.07122e-06
-5.78646e-08
-1.01286e-06
-5.49894e-08
-1.2165e-06
-4.62849e-08
-1.2378e-06
-2.68458e-08
-1.25842e-06
3.27971e-10
-1.27387e-06
2.74702e-08
-1.27394e-06
4.68199e-08
-1.25862e-06
5.53789e-08
-1.23806e-06
5.80542e-08
-1.21677e-06
-1.01316e-06
-7.47635e-08
-9.38096e-07
-6.19045e-08
-1.22936e-06
-4.84695e-08
-1.25123e-06
-2.7612e-08
-1.27928e-06
2.03988e-10
-1.30169e-06
2.79973e-08
-1.30173e-06
4.87895e-08
-1.27941e-06
6.21204e-08
-1.25139e-06
7.48644e-08
-1.22952e-06
-9.38297e-07
-1.31201e-07
-1.19204e-07
-8.50211e-08
-4.39597e-08
1.32754e-10
4.4209e-08
8.5225e-08
1.19343e-07
1.31272e-07
-2.6043e-08
-9.1774e-07
9.43783e-07
1.59135e-08
-1.33903e-06
1.29707e-06
1.83263e-08
-1.27591e-06
1.2735e-06
1.32458e-08
-1.22699e-06
1.23207e-06
8.2128e-09
-1.22361e-06
1.22864e-06
3.30755e-09
-1.22467e-06
1.22958e-06
-2.66461e-09
-1.22691e-06
1.23288e-06
5.46094e-09
-1.27352e-06
1.26539e-06
5.89905e-08
-1.34311e-06
1.28958e-06
-9.48511e-07
1.0075e-06
1.93582e-08
-9.37098e-07
2.69524e-08
-1.34662e-06
1.88992e-08
-1.26786e-06
1.2762e-08
-1.22085e-06
6.27083e-09
-1.21712e-06
-4.56316e-10
-1.21795e-06
-6.515e-09
-1.22085e-06
-1.14095e-08
-1.26862e-06
-5.51942e-09
-1.349e-06
-9.5403e-07
3.20316e-08
-9.6913e-07
2.3412e-08
-1.338e-06
1.45138e-08
-1.25896e-06
9.73635e-09
-1.21607e-06
3.93246e-09
-1.21131e-06
-2.48502e-09
-1.21153e-06
-6.86054e-09
-1.21647e-06
-1.56338e-08
-1.25985e-06
-2.48234e-08
-1.33981e-06
-9.78854e-07
8.20254e-08
-1.05116e-06
5.62196e-08
-1.3122e-06
3.70171e-08
-1.23976e-06
2.35361e-08
-1.20259e-06
2.53691e-09
-1.19031e-06
-1.84767e-08
-1.19051e-06
-3.14576e-08
-1.20349e-06
-5.04039e-08
-1.24091e-06
-7.7194e-08
-1.31302e-06
-1.05605e-06
2.86882e-07
2.34968e-07
1.53753e-07
7.67468e-08
1.59457e-09
-7.35678e-08
-1.50892e-07
-2.32528e-07
-2.84321e-07
5.25261e-08
2.99412e-09
-5.55201e-08
4.95539e-08
2.97169e-09
4.66149e-08
2.93903e-09
4.37182e-08
2.89666e-09
4.08712e-08
2.8469e-09
3.80796e-08
2.79108e-09
3.5355e-08
2.72452e-09
3.27024e-08
2.65289e-09
3.01309e-08
2.5715e-09
2.48298e-09
2.76479e-08
4.96889e-08
6.26996e-09
-5.29651e-08
4.64138e-08
6.24661e-09
4.31565e-08
6.19625e-09
3.99333e-08
6.11998e-09
3.67599e-08
6.0202e-09
3.36528e-08
5.89784e-09
3.0624e-08
5.75339e-09
2.76902e-08
5.58666e-09
2.48609e-08
5.40079e-09
5.19677e-09
2.21471e-08
4.10462e-08
9.42281e-09
-4.41993e-08
3.79021e-08
9.39056e-09
3.47825e-08
9.31601e-09
3.17024e-08
9.20022e-09
2.86772e-08
9.04534e-09
2.57216e-08
8.85329e-09
2.28481e-08
8.62673e-09
2.00695e-08
8.36527e-09
1.73974e-08
8.07276e-09
7.75268e-09
1.48415e-08
3.22718e-08
1.24483e-08
-3.52974e-08
2.92649e-08
1.23977e-08
2.62903e-08
1.22906e-08
2.33615e-08
1.21291e-08
2.04908e-08
1.19159e-08
1.76918e-08
1.16521e-08
1.49772e-08
1.13412e-08
1.23567e-08
1.09858e-08
9.83923e-09
1.05901e-08
1.01583e-08
7.43341e-09
2.34009e-08
1.5374e-08
-2.63265e-08
2.05013e-08
1.52974e-08
1.76383e-08
1.51536e-08
1.48236e-08
1.49437e-08
1.20694e-08
1.467e-08
9.38643e-09
1.4335e-08
6.78425e-09
1.39435e-08
4.27177e-09
1.34983e-08
1.85732e-09
1.30045e-08
1.24674e-08
-4.51791e-10
1.43137e-08
1.82351e-08
-1.71747e-08
1.14793e-08
1.81316e-08
8.68243e-09
1.79505e-08
5.93273e-09
1.76934e-08
3.23906e-09
1.73638e-08
6.10306e-10
1.69639e-08
-1.94436e-09
1.64981e-08
-4.4174e-09
1.59712e-08
-6.80171e-09
1.53887e-08
1.47567e-08
-9.09107e-09
4.90475e-09
2.10774e-08
-7.74712e-09
2.0845e-09
2.09517e-08
-7.05719e-10
2.07408e-08
-3.45815e-09
2.0446e-08
-6.16461e-09
2.00703e-08
-8.81819e-09
1.96175e-08
-1.1412e-08
1.90919e-08
-1.39398e-08
1.84989e-08
-1.63959e-08
1.78448e-08
1.71365e-08
-1.87756e-08
-4.93439e-09
2.396e-08
2.0519e-09
-7.80845e-09
2.38258e-08
-1.06678e-08
2.36003e-08
-1.35074e-08
2.32856e-08
-1.63219e-08
2.28849e-08
-1.91065e-08
2.24021e-08
-2.18568e-08
2.18422e-08
-2.45691e-08
2.12112e-08
-2.72401e-08
2.05159e-08
1.97638e-08
-2.98672e-08
-1.53221e-08
2.69561e-08
1.2326e-08
-1.83336e-08
2.68372e-08
-2.13582e-08
2.66248e-08
-2.4394e-08
2.63214e-08
-2.74395e-08
2.59305e-08
-3.0494e-08
2.54566e-08
-3.35569e-08
2.49052e-08
-3.66284e-08
2.42829e-08
-3.97091e-08
2.35968e-08
2.28542e-08
-4.27993e-08
-2.63798e-08
3.01545e-08
2.31812e-08
-2.96313e-08
3.00886e-08
-3.29382e-08
2.99318e-08
-3.63044e-08
2.96876e-08
-3.97339e-08
2.936e-08
-4.32315e-08
2.89542e-08
-4.68023e-08
2.84763e-08
-5.04525e-08
2.7933e-08
-5.41866e-08
2.73309e-08
2.66763e-08
-5.80087e-08
-3.82193e-08
3.36577e-08
3.47161e-08
-4.18279e-08
3.36971e-08
-4.55512e-08
3.36551e-08
-4.94002e-08
3.35365e-08
-5.33868e-08
3.33465e-08
-5.75227e-08
3.30897e-08
-6.18198e-08
3.27734e-08
-6.62895e-08
3.2403e-08
-7.09406e-08
3.19823e-08
3.15123e-08
-7.57769e-08
-5.09177e-08
3.75731e-08
4.70023e-08
-5.50044e-08
3.77838e-08
-5.92797e-08
3.79306e-08
-6.37617e-08
3.80188e-08
-6.84704e-08
3.80546e-08
-7.34263e-08
3.80436e-08
-7.86426e-08
3.79896e-08
-8.41346e-08
3.7895e-08
-8.99098e-08
3.77575e-08
3.75673e-08
-9.59644e-08
-6.44786e-08
4.19937e-08
6.00575e-08
-6.91485e-08
4.24513e-08
-7.40846e-08
4.28686e-08
-7.93156e-08
4.32493e-08
-8.48606e-08
4.3599e-08
-9.07395e-08
4.39208e-08
-9.69644e-08
4.42144e-08
-1.03544e-07
4.44748e-08
-1.10476e-07
4.46896e-08
4.48315e-08
-1.1774e-07
-7.88036e-08
4.6978e-08
7.37947e-08
-8.41132e-08
4.77607e-08
-8.97659e-08
4.85224e-08
-9.57787e-08
4.92649e-08
-1.02173e-07
4.99903e-08
-1.08947e-07
5.06947e-08
-1.16102e-07
5.13697e-08
-1.23631e-07
5.20031e-08
-1.31514e-07
5.25732e-08
5.30295e-08
-1.39714e-07
-9.36582e-08
5.25347e-08
8.80628e-08
-9.96073e-08
5.37096e-08
-1.05951e-07
5.48658e-08
-1.12691e-07
5.60059e-08
-1.19819e-07
5.71172e-08
-1.27311e-07
5.81869e-08
-1.35142e-07
5.92007e-08
-1.43279e-07
6.01396e-08
-1.51682e-07
6.09748e-08
6.16375e-08
-1.60291e-07
-1.08703e-07
5.86303e-08
1.02579e-07
-1.15218e-07
6.02238e-08
-1.22143e-07
6.17907e-08
-1.29449e-07
6.33115e-08
-1.37094e-07
6.47593e-08
-1.45012e-07
6.6105e-08
-1.53136e-07
6.73238e-08
-1.61388e-07
6.83915e-08
-1.69685e-07
6.92732e-08
6.95978e-08
-1.76774e-07
-1.23459e-07
6.51526e-08
1.16922e-07
-1.30415e-07
6.71793e-08
-1.37765e-07
6.91415e-08
-1.45449e-07
7.0994e-08
-1.53384e-07
7.26913e-08
-1.61471e-07
7.41924e-08
-1.69609e-07
7.54621e-08
-1.77694e-07
7.6476e-08
-1.85625e-07
7.72118e-08
7.75963e-08
-1.92894e-07
-1.37352e-07
7.193e-08
1.30575e-07
-1.44546e-07
7.43752e-08
-1.52092e-07
7.66866e-08
-1.59886e-07
7.87867e-08
-1.67812e-07
8.06145e-08
-1.75742e-07
8.21223e-08
-1.83548e-07
8.32683e-08
-1.91113e-07
8.40409e-08
-1.98336e-07
8.44375e-08
8.4407e-08
-2.0511e-07
-1.49782e-07
7.87143e-08
1.42998e-07
-1.5696e-07
8.1554e-08
-1.64418e-07
8.41433e-08
-1.71994e-07
8.63598e-08
-1.79524e-07
8.81449e-08
-1.86873e-07
8.94713e-08
-1.93917e-07
9.03124e-08
-2.00492e-07
9.06157e-08
-2.06566e-07
9.05113e-08
8.96351e-08
-2.11793e-07
-1.60284e-07
8.51941e-08
1.53804e-07
-1.67162e-07
8.84319e-08
-1.74249e-07
9.12298e-08
-1.81243e-07
9.33538e-08
-1.87792e-07
9.47708e-08
-1.93896e-07
9.55991e-08
-1.99717e-07
9.58003e-08
-2.05006e-07
9.56795e-08
-2.09305e-07
9.48286e-08
9.06227e-08
-2.06429e-07
-1.68547e-07
9.10408e-08
1.627e-07
-1.74907e-07
9.47917e-08
-1.81469e-07
9.77921e-08
-1.87482e-07
9.93672e-08
-1.9266e-07
1.00141e-07
-1.97411e-07
1.0006e-07
-2.0162e-07
9.98303e-08
-2.05146e-07
9.89736e-08
-2.04798e-07
9.60701e-08
8.83309e-08
-1.91852e-07
-1.74583e-07
9.5761e-08
1.69863e-07
-1.78718e-07
9.89267e-08
-1.83143e-07
1.0011e-07
-1.91129e-07
1.00708e-07
-1.94615e-07
1.03586e-07
-1.97466e-07
1.02921e-07
-1.99475e-07
1.01875e-07
-2.00542e-07
9.98967e-08
-1.84173e-07
9.21768e-08
8.51618e-08
-1.81247e-07
-1.7677e-07
9.71479e-08
1.75788e-07
-1.74387e-07
9.79031e-08
-1.71839e-07
9.72647e-08
-1.88274e-07
1.02315e-07
-1.90126e-07
1.0541e-07
-1.9142e-07
1.04172e-07
-1.921e-07
1.02472e-07
-1.78507e-07
9.71964e-08
-1.72308e-07
8.78928e-08
8.27282e-08
-1.69991e-07
-1.68437e-07
9.3335e-08
1.7243e-07
-1.66401e-07
9.59781e-08
-1.68457e-07
9.93725e-08
-1.80852e-07
1.03312e-07
-1.81224e-07
1.05748e-07
-1.81705e-07
1.04625e-07
-1.81758e-07
1.0255e-07
-1.63497e-07
9.56434e-08
-1.61723e-07
8.60153e-08
7.95879e-08
-1.5868e-07
-1.62622e-07
9.15371e-08
1.64613e-07
-1.60842e-07
9.44432e-08
-1.63886e-07
9.86078e-08
-1.69482e-07
1.04331e-07
-1.69046e-07
1.05272e-07
-1.69498e-07
1.05044e-07
-1.70173e-07
1.03215e-07
-1.63101e-07
9.86109e-08
-1.51757e-07
8.79219e-08
7.61789e-08
-1.48452e-07
-1.56042e-07
8.71154e-08
1.60708e-07
-1.53977e-07
9.15e-08
-1.58691e-07
9.85388e-08
-1.55682e-07
1.01281e-07
-1.54014e-07
1.0356e-07
-1.54301e-07
1.05298e-07
-1.56057e-07
1.04942e-07
-1.56266e-07
9.883e-08
-1.50683e-07
9.21883e-08
8.07005e-08
-1.4363e-07
-1.5588e-07
8.2729e-08
1.57686e-07
-1.55412e-07
8.89623e-08
-1.48863e-07
9.19813e-08
-1.42964e-07
9.53479e-08
-1.38707e-07
9.92616e-08
-1.35945e-07
1.0249e-07
-1.34368e-07
9.39953e-08
-1.43826e-07
8.25813e-08
-1.43689e-07
8.91647e-08
7.70517e-08
-1.39241e-07
-1.64289e-07
7.85023e-08
1.668e-07
-1.56247e-07
8.09321e-08
-1.4802e-07
8.3751e-08
-1.40317e-07
8.76435e-08
-1.32454e-07
9.1362e-08
-1.09549e-07
7.72316e-08
-8.24952e-08
6.43358e-08
-8.41604e-08
6.01097e-08
-1.2248e-07
6.31388e-08
7.41029e-08
-1.19526e-07
-1.70135e-07
7.12805e-08
1.77357e-07
-1.62157e-07
7.29653e-08
-1.53715e-07
7.53174e-08
-1.4436e-07
7.83243e-08
-1.08229e-07
6.86868e-08
-7.89849e-08
5.42311e-08
-6.72197e-08
5.3734e-08
-5.84475e-08
5.22551e-08
-4.77436e-08
4.81149e-08
4.67583e-08
-7.21947e-08
-1.75513e-07
6.55988e-08
1.81195e-07
-1.69333e-07
6.67859e-08
-1.62584e-07
6.85818e-08
-1.53556e-07
7.07036e-08
-8.57881e-08
6.057e-08
-7.65108e-08
4.61173e-08
-6.9348e-08
4.74887e-08
-6.41706e-08
4.77641e-08
-6.17365e-08
4.66135e-08
4.63026e-08
-6.0185e-08
-1.77054e-07
6.11792e-08
1.81474e-07
-1.723e-07
6.20326e-08
-1.67135e-07
6.34409e-08
-1.61374e-07
6.53499e-08
-1.49501e-07
6.79224e-08
-1.13497e-07
6.66322e-08
-7.76395e-08
5.4337e-08
-7.20915e-08
4.24959e-08
-6.83208e-08
4.35291e-08
4.50441e-08
-6.62556e-08
-1.73665e-07
5.71389e-08
1.77705e-07
-1.69344e-07
5.77113e-08
-1.64675e-07
5.87856e-08
-1.59557e-07
6.03147e-08
-1.53783e-07
6.22075e-08
-1.44935e-07
6.41681e-08
-1.3013e-07
6.57478e-08
-1.14806e-07
6.6439e-08
-9.96043e-08
6.4332e-08
5.99773e-08
-8.47502e-08
-1.67015e-07
5.2854e-08
1.713e-07
-1.62437e-07
5.31338e-08
-1.57522e-07
5.387e-08
-1.52195e-07
5.4988e-08
-1.46336e-07
5.63647e-08
-1.3986e-07
5.77942e-08
-1.32929e-07
5.89653e-08
-1.25894e-07
5.95448e-08
-1.19342e-07
5.92258e-08
5.78053e-08
-1.14669e-07
-1.59649e-07
4.81782e-08
1.64325e-07
-1.54717e-07
4.8202e-08
-1.49514e-07
4.86668e-08
-1.4404e-07
4.95139e-08
-1.38326e-07
5.06511e-08
-1.32462e-07
5.19329e-08
-1.26655e-07
5.31616e-08
-1.21245e-07
5.41376e-08
-1.16728e-07
5.47107e-08
5.47885e-08
-1.13712e-07
-1.53383e-07
4.32103e-08
1.5835e-07
-1.48212e-07
4.30312e-08
-1.42837e-07
4.32916e-08
-1.37314e-07
4.39909e-08
-1.31773e-07
4.51102e-08
-1.26392e-07
4.65517e-08
-1.2137e-07
4.81399e-08
-1.1697e-07
4.97374e-08
-1.13582e-07
5.13228e-08
5.28638e-08
-1.11657e-07
-1.49347e-07
3.81944e-08
1.54363e-07
-1.44142e-07
3.78265e-08
-1.38695e-07
3.78447e-08
-1.33084e-07
3.83797e-08
-1.2756e-07
3.9586e-08
-1.22414e-07
4.14056e-08
-1.17787e-07
4.3513e-08
-1.13753e-07
4.57037e-08
-1.10681e-07
4.82502e-08
5.13229e-08
-1.0914e-07
-1.48247e-07
3.35144e-08
1.52927e-07
-1.43352e-07
3.29313e-08
-1.38015e-07
3.25081e-08
-1.32226e-07
3.25902e-08
-1.2641e-07
3.377e-08
-1.21222e-07
3.6218e-08
-1.16836e-07
3.91271e-08
-1.12638e-07
4.15056e-08
-1.08558e-07
4.41701e-08
4.76026e-08
-1.04838e-07
-1.50306e-07
2.94013e-08
1.54419e-07
-1.46354e-07
2.89792e-08
-1.41555e-07
2.77095e-08
-1.35588e-07
2.66232e-08
-1.29297e-07
2.74784e-08
-1.1633e-07
2.75114e-08
-1.05849e-07
2.90152e-08
-1.001e-07
3.16152e-08
-9.59495e-08
3.52365e-08
3.54018e-08
-8.90209e-08
-1.42751e-07
2.29807e-08
1.48774e-07
-1.35988e-07
2.1784e-08
-1.39269e-07
2.11062e-08
-1.4214e-07
2.25805e-08
-1.37028e-07
2.3185e-08
-1.07074e-07
2.25363e-08
-1.01613e-07
2.18051e-08
-9.53604e-08
2.36131e-08
-8.95685e-08
2.76952e-08
3.44974e-08
-9.04248e-08
-1.45765e-07
1.93732e-08
1.48957e-07
-1.42715e-07
1.83174e-08
-1.51702e-07
1.79912e-08
-1.47262e-07
1.80933e-08
-1.42505e-07
1.84184e-08
-1.34463e-07
1.94641e-08
-1.23078e-07
2.14774e-08
-1.12673e-07
2.44955e-08
-1.1507e-07
2.91644e-08
3.50702e-08
-1.16384e-07
-1.61952e-07
1.8754e-08
1.5507e-07
-1.59305e-07
1.69579e-08
-1.56947e-07
1.55676e-08
-1.54429e-07
1.47719e-08
-1.50876e-07
1.4851e-08
-1.47104e-07
1.57153e-08
-1.43129e-07
1.75274e-08
-1.39005e-07
2.04552e-08
-1.34446e-07
2.46062e-08
2.98614e-08
-1.29237e-07
-1.70164e-07
1.74687e-08
1.71449e-07
-1.68688e-07
1.54855e-08
-1.66998e-07
1.38986e-08
-1.65089e-07
1.28764e-08
-1.62796e-07
1.2543e-08
-1.60099e-07
1.30186e-08
-1.56995e-07
1.44234e-08
-1.53423e-07
1.68838e-08
-1.49316e-07
2.04986e-08
2.5265e-08
-1.44719e-07
-1.79071e-07
1.76273e-08
1.78913e-07
-1.79096e-07
1.55107e-08
-1.78929e-07
1.37322e-08
-1.7848e-07
1.24271e-08
-1.77659e-07
1.17223e-08
-1.76381e-07
1.17402e-08
-1.74577e-07
1.26195e-08
-1.72205e-07
1.45127e-08
-1.69286e-07
1.75796e-08
2.19549e-08
-1.65976e-07
-1.87994e-07
1.96272e-08
1.85995e-07
-1.89881e-07
1.73981e-08
-1.91603e-07
1.54472e-08
-1.93106e-07
1.39212e-08
-1.94294e-07
1.29097e-08
-1.95069e-07
1.25158e-08
-1.95318e-07
1.28682e-08
-1.94933e-07
1.41284e-08
-1.93855e-07
1.6501e-08
2.02303e-08
-1.9213e-07
-1.91938e-07
2.28239e-08
1.89748e-07
-1.99423e-07
2.10505e-08
-2.03207e-07
1.92308e-08
-2.06977e-07
1.76912e-08
-2.10686e-07
1.66187e-08
-2.14254e-07
1.60838e-08
-2.1757e-07
1.61852e-08
-2.20501e-07
1.70585e-08
-2.22893e-07
1.88932e-08
2.19341e-08
-2.24596e-07
-1.95801e-07
2.79266e-08
1.90347e-07
-2.05352e-07
2.62479e-08
-2.10914e-07
2.47928e-08
-2.16749e-07
2.35261e-08
-2.22863e-07
2.27328e-08
-2.2925e-07
2.24704e-08
-2.35892e-07
2.28278e-08
-2.42762e-07
2.39289e-08
-2.49807e-07
2.59412e-08
2.90844e-08
-2.56928e-07
-1.9469e-07
3.35202e-08
1.89064e-07
-2.05414e-07
3.20823e-08
-2.11903e-07
3.12812e-08
-2.18746e-07
3.03695e-08
-2.25965e-07
2.99514e-08
-2.33569e-07
3.0075e-08
-2.41554e-07
3.08126e-08
-2.49889e-07
3.2264e-08
-2.58505e-07
3.45575e-08
3.78506e-08
-2.67261e-07
-1.88687e-07
3.89155e-08
1.83262e-07
-1.97967e-07
3.76292e-08
-2.05191e-07
3.74046e-08
-2.11587e-07
3.67659e-08
-2.18227e-07
3.65915e-08
-2.25075e-07
3.69232e-08
-2.32066e-07
3.78033e-08
-2.39086e-07
3.92837e-08
-2.45951e-07
4.14222e-08
4.42681e-08
-2.52367e-07
-1.77309e-07
4.33287e-08
1.72866e-07
-1.83543e-07
4.24007e-08
-1.90795e-07
4.21246e-08
-1.95598e-07
4.15683e-08
-2.00372e-07
4.13661e-08
-2.05049e-07
4.16e-08
-2.09526e-07
4.22809e-08
-2.13654e-07
4.34119e-08
-2.17211e-07
4.49791e-08
4.69451e-08
-2.19887e-07
-1.61307e-07
4.6447e-08
1.58124e-07
-1.67292e-07
4.57282e-08
-1.70015e-07
4.48475e-08
-1.72399e-07
4.39517e-08
-1.74444e-07
4.34113e-08
-1.76086e-07
4.32423e-08
-1.77235e-07
4.34303e-08
-1.77765e-07
4.39431e-08
-1.77487e-07
4.4701e-08
4.5627e-08
-1.7617e-07
-1.434e-07
4.86609e-08
1.42225e-07
-1.44586e-07
4.67156e-08
-1.44696e-07
4.49579e-08
-1.44206e-07
4.34617e-08
-1.43094e-07
4.22994e-08
-1.41342e-07
4.14912e-08
-1.38908e-07
4.09965e-08
-1.35725e-07
4.07587e-08
-1.31656e-07
4.06325e-08
4.04036e-08
-1.26432e-07
-1.21001e-07
4.79456e-08
1.21702e-07
-1.19512e-07
4.52102e-08
-1.17132e-07
4.25781e-08
-1.13811e-07
4.01406e-08
-1.09634e-07
3.81223e-08
-1.04686e-07
3.65438e-08
-9.88557e-08
3.5166e-08
-9.21765e-08
3.40796e-08
-8.44185e-08
3.28744e-08
2.98125e-08
-7.38273e-08
-9.82022e-08
4.56215e-08
1.00473e-07
-9.49988e-08
4.19982e-08
-9.06887e-08
3.8268e-08
-8.4947e-08
3.43988e-08
-7.79154e-08
3.10908e-08
-7.00442e-08
2.86726e-08
-5.89904e-08
2.41124e-08
-4.72761e-08
2.00399e-08
-3.26789e-08
1.60955e-08
1.13081e-08
-1.80917e-08
-7.73544e-08
4.2312e-08
8.06695e-08
-7.31323e-08
3.7775e-08
-6.78945e-08
3.30301e-08
-5.90807e-08
2.5585e-08
-4.46656e-08
1.78829e-08
-2.99354e-08
1.18654e-08
-1.52077e-08
7.38206e-09
-1.80073e-09
4.61847e-09
1.06299e-08
1.64206e-09
-1.22512e-09
2.90151e-08
-5.97156e-08
3.82892e-08
6.37408e-08
-5.09973e-08
2.90557e-08
-4.01881e-08
2.20561e-08
-2.64213e-08
1.03141e-08
-1.44495e-08
3.91372e-09
9.01211e-11
-4.67159e-09
1.41841e-08
-8.70923e-09
3.43702e-08
-1.18267e-08
5.33906e-08
-1.36462e-08
-1.46397e-08
6.66106e-08
-4.17246e-08
2.67932e-08
4.92564e-08
-2.60801e-08
1.1006e-08
-1.15541e-08
4.60896e-09
2.51711e-10
-4.42388e-09
1.70334e-08
-1.23521e-08
3.22348e-08
-1.85195e-08
4.5177e-08
-2.1963e-08
5.66795e-08
-2.3324e-08
6.599e-08
-2.29525e-08
-2.124e-08
7.25931e-08
-1.46683e-08
9.38746e-09
2.87216e-08
-6.99532e-09
-7.0422e-11
6.05242e-09
-1.10077e-08
2.1161e-08
-1.95699e-08
3.40606e-08
-2.52478e-08
4.41832e-08
-2.86373e-08
5.20924e-08
-2.98674e-08
5.75351e-08
-2.87619e-08
5.99044e-08
-2.53166e-08
-1.94588e-08
5.81267e-08
-1.07022e-08
-3.27806e-09
2.02236e-08
-2.95619e-09
-1.63757e-08
1.0194e-08
-2.51098e-08
2.16338e-08
-3.1005e-08
3.10107e-08
-3.46236e-08
3.81137e-08
-3.57364e-08
4.2794e-08
-3.45429e-08
4.52376e-08
-3.12004e-08
4.36076e-08
-2.31745e-08
-4.43125e-09
2.69062e-08
-2.29758e-08
-1.76904e-08
2.80265e-08
-1.17873e-08
-2.75584e-08
-2.33126e-09
-3.45597e-08
5.52067e-09
-3.88495e-08
1.12506e-08
-4.03488e-08
1.42628e-08
-3.87431e-08
1.37227e-08
-3.08027e-08
9.45674e-09
-1.15293e-08
3.02937e-09
-2.36571e-10
4.35411e-10
-1.8571e-10
-3.83458e-08
-2.51407e-08
4.58002e-08
-3.20851e-08
-3.38148e-08
-2.74384e-08
-3.92001e-08
-2.47788e-08
-4.14972e-08
-2.3356e-08
-3.25748e-08
-2.00773e-08
-1.1356e-08
-1.28925e-08
-5.96161e-10
-3.16331e-10
-1.47788e-09
1.44675e-11
-1.97277e-09
-1.7174e-09
7.6139e-10
-5.96564e-08
-2.85556e-08
6.30757e-08
-5.68634e-08
-3.58883e-08
-5.48043e-08
-2.9467e-08
-4.48113e-08
-1.37576e-08
-2.01915e-08
-4.4869e-09
-1.1105e-09
-6.99695e-09
-6.69105e-11
-8.53625e-09
1.71309e-09
-9.08856e-09
3.85354e-09
-5.51862e-09
-1.8241e-08
1.16616e-08
-7.14485e-08
-3.16692e-08
7.45911e-08
-5.9884e-08
-3.66467e-08
-2.62064e-08
-2.18857e-08
-3.39931e-09
-1.11074e-08
1.57498e-09
-3.4808e-08
1.11446e-08
-4.67516e-08
2.97021e-08
-6.23764e-08
9.22297e-08
-1.24067e-07
1.7849e-07
-1.91006e-07
-2.09871e-07
2.56339e-07
-4.73849e-08
-4.20998e-08
5.78206e-08
-1.94807e-08
-5.96322e-08
1.54153e-09
-6.59421e-08
2.44613e-08
-7.63135e-08
6.51805e-08
-1.33289e-07
1.2871e-07
-1.6923e-07
2.01931e-07
-1.97094e-07
2.47562e-07
-2.21194e-07
3.00132e-07
-2.45872e-07
-2.56912e-07
3.41494e-07
1.06165e-08
-6.25198e-08
9.80377e-09
3.52588e-08
-8.74231e-08
6.15393e-08
-1.14009e-07
8.84624e-08
-1.41935e-07
1.33996e-07
-1.7796e-07
1.76316e-07
-2.10717e-07
2.20341e-07
-2.40219e-07
2.64573e-07
-2.64593e-07
2.9517e-07
-2.75156e-07
-2.03466e-07
2.44628e-07
5.66873e-08
-8.4184e-08
-3.5023e-08
8.0477e-08
-1.11212e-07
1.05403e-07
-1.38936e-07
1.33001e-07
-1.68997e-07
1.65591e-07
-2.08388e-07
2.04592e-07
-2.48816e-07
2.45027e-07
-2.79821e-07
2.51742e-07
-2.65846e-07
2.18391e-07
-2.01978e-07
-2.17232e-07
2.29677e-07
9.44756e-08
-1.05442e-07
-7.32173e-08
1.16717e-07
-1.33455e-07
1.26562e-07
-1.49404e-07
1.48522e-07
-1.78626e-07
1.97853e-07
-2.40485e-07
2.33935e-07
-2.83854e-07
2.3115e-07
-2.65088e-07
1.87238e-07
-2.05746e-07
2.19786e-07
-2.27958e-07
-2.81453e-07
2.84421e-07
1.19586e-07
-1.23904e-07
-1.01123e-07
1.3042e-07
-1.44299e-07
1.1192e-07
-1.5645e-07
1.69127e-07
-2.12828e-07
1.95298e-07
-2.72216e-07
1.98174e-07
-2.26139e-07
1.64661e-07
-1.91958e-07
2.03917e-07
-2.34276e-07
2.78129e-07
-2.92935e-07
-4.1159e-07
4.14834e-07
1.2598e-07
-1.3278e-07
-1.17112e-07
1.01462e-07
-1.44068e-07
1.01515e-07
-1.74564e-07
1.24289e-07
-2.01802e-07
1.36697e-07
-2.31171e-07
1.51025e-07
-1.8305e-07
1.9233e-07
-2.35901e-07
2.66289e-07
-3.00965e-07
4.2915e-07
-4.44457e-07
-7.04967e-07
6.79529e-07
9.54738e-08
-1.14645e-07
-1.17322e-07
9.39924e-08
-1.45935e-07
1.0667e-07
-1.91972e-07
1.42609e-07
-2.3939e-07
1.32538e-07
-1.98715e-07
1.68171e-07
-2.21984e-07
2.42619e-07
-3.18206e-07
4.23541e-07
-5.03881e-07
6.59026e-07
-7.51513e-07
-8.39939e-07
7.92485e-07
1.08105e-07
-1.22781e-07
-1.09581e-07
1.2422e-07
-1.6876e-07
1.48562e-07
-2.08687e-07
1.2985e-07
-2.13096e-07
1.21922e-07
-1.76483e-07
2.14242e-07
-3.06013e-07
4.16037e-07
-5.62403e-07
6.26192e-07
-7.90827e-07
7.42491e-07
-8.68618e-07
-9.11552e-07
8.13883e-07
1.16631e-07
-1.41878e-07
-1.07146e-07
1.32226e-07
-1.82588e-07
1.29103e-07
-1.99078e-07
1.01504e-07
-1.20577e-07
1.62433e-07
-2.27376e-07
3.93891e-07
-5.71083e-07
5.89637e-07
-8.15789e-07
6.89136e-07
-8.90703e-07
7.571e-07
-9.36662e-07
-9.68115e-07
8.13656e-07
1.01653e-07
-1.48435e-07
-1.17169e-07
1.02156e-07
-1.99457e-07
8.01923e-08
-8.74221e-08
1.06254e-07
-1.10518e-07
3.22817e-07
-4.33246e-07
5.43423e-07
-8.16806e-07
6.31804e-07
-9.04592e-07
6.9685e-07
-9.55794e-07
7.5213e-07
-9.91955e-07
-1.01604e-06
8.00056e-07
1.16682e-07
-1.58659e-07
-1.1477e-07
5.83244e-08
-1.09408e-07
5.23225e-08
-4.79235e-08
1.61443e-07
-1.87734e-07
4.73965e-07
-7.46637e-07
5.66107e-07
-9.08899e-07
6.31489e-07
-9.69902e-07
6.86943e-07
-1.01125e-06
7.35173e-07
-1.04018e-06
-1.05681e-06
7.75944e-07
9.16889e-08
-1.41407e-07
-1.15943e-07
2.5538e-08
-2.79102e-08
4.24389e-08
-5.95162e-08
3.38775e-07
-4.31918e-07
4.99796e-07
-8.94893e-07
5.677e-07
-9.76487e-07
6.22137e-07
-1.0243e-06
6.69656e-07
-1.05875e-06
7.10623e-07
-1.08115e-06
-1.09046e-06
7.44267e-07
4.34582e-08
-7.27411e-08
-1.1713e-07
2.85535e-08
-1.66204e-08
8.42709e-08
-1.1709e-07
4.33357e-07
-6.99388e-07
5.04401e-07
-9.65073e-07
5.56577e-07
-1.0285e-06
6.02443e-07
-1.07014e-06
6.42994e-07
-1.0993e-06
6.77497e-07
-1.11565e-06
-1.118e-06
7.05041e-07
1.05078e-08
-2.26739e-08
-7.07634e-08
1.78627e-08
-2.51922e-08
1.83831e-07
-2.02678e-07
4.25064e-07
-8.94983e-07
4.84582e-07
-1.02413e-06
5.31188e-07
-1.07503e-06
5.71778e-07
-1.11071e-06
6.0692e-07
-1.13444e-06
6.35993e-07
-1.14472e-06
-1.14038e-06
6.5837e-07
5.78711e-09
-6.21098e-09
-2.71948e-08
1.88377e-08
-4.13492e-08
3.09398e-07
-4.53623e-07
4.19384e-07
-9.96022e-07
4.65918e-07
-1.07054e-06
5.03573e-07
-1.11266e-06
5.36473e-07
-1.14361e-06
5.64652e-07
-1.16262e-06
5.87278e-07
-1.16735e-06
-1.15675e-06
6.03655e-07
1.49057e-08
-5.71761e-09
-1.51901e-08
5.75189e-08
-8.64485e-08
3.66882e-07
-7.38459e-07
4.12787e-07
-1.04192e-06
4.42376e-07
-1.1001e-06
4.69386e-07
-1.13967e-06
4.94172e-07
-1.1684e-06
5.15195e-07
-1.18364e-06
5.30921e-07
-1.18307e-06
-1.16628e-06
5.40448e-07
1.04425e-08
-1.03051e-08
-5.48005e-09
1.29237e-07
-1.82507e-07
3.4397e-07
-9.39272e-07
3.77703e-07
-1.07558e-06
4.02495e-07
-1.12488e-06
4.25197e-07
-1.16237e-06
4.45223e-07
-1.18842e-06
4.60717e-07
-1.19913e-06
4.70107e-07
-1.19246e-06
-1.16894e-06
4.72766e-07
9.46883e-09
-1.33508e-08
-6.06777e-09
2.35287e-07
-3.95031e-07
3.20527e-07
-1.02202e-06
3.44618e-07
-1.09964e-06
3.64155e-07
-1.14441e-06
3.82251e-07
-1.18046e-06
3.97545e-07
-1.20372e-06
4.07825e-07
-1.20941e-06
4.11475e-07
-1.19611e-06
-1.16554e-06
4.08077e-07
1.61615e-08
-2.57345e-08
-4.01386e-09
2.64321e-07
-6.3506e-07
2.98661e-07
-1.0556e-06
3.13026e-07
-1.114e-06
3.26982e-07
-1.15837e-06
3.41103e-07
-1.19458e-06
3.52725e-07
-1.21534e-06
3.59238e-07
-1.21593e-06
3.5915e-07
-1.19602e-06
-1.15858e-06
3.52187e-07
5.98302e-08
-8.50661e-08
-9.38214e-10
2.58263e-07
-8.32073e-07
2.68212e-07
-1.06553e-06
2.75891e-07
-1.12168e-06
2.87604e-07
-1.17008e-06
3.00425e-07
-1.2074e-06
3.10591e-07
-1.2255e-06
3.15549e-07
-1.22089e-06
3.14284e-07
-1.19476e-06
-1.15106e-06
3.06766e-07
9.59622e-08
-1.79707e-07
-2.07251e-10
2.0238e-07
-9.38996e-07
2.15879e-07
-1.07903e-06
2.30119e-07
-1.13592e-06
2.46137e-07
-1.1861e-06
2.61042e-07
-1.22231e-06
2.71911e-07
-1.23637e-06
2.77256e-07
-1.22623e-06
2.76877e-07
-1.19438e-06
-1.14518e-06
2.70993e-07
1.08315e-07
-2.89338e-07
-3.85062e-10
1.64294e-07
-9.95358e-07
1.79352e-07
-1.09408e-06
1.95732e-07
-1.1523e-06
2.12911e-07
-1.20328e-06
2.28118e-07
-1.23752e-06
2.39016e-07
-1.24727e-06
2.44981e-07
-1.23219e-06
2.46376e-07
-1.19577e-06
-1.14203e-06
2.43232e-07
9.95556e-08
-3.86623e-07
-1.17185e-09
1.34216e-07
-1.02978e-06
1.50257e-07
-1.11012e-06
1.67866e-07
-1.16991e-06
1.85514e-07
-1.22092e-06
2.00463e-07
-1.25247e-06
2.11069e-07
-1.25788e-06
2.17683e-07
-1.23881e-06
2.21177e-07
-1.19927e-06
-1.14216e-06
2.21307e-07
9.06596e-08
-4.72041e-07
-3.12609e-09
1.13221e-07
-1.05217e-06
1.29865e-07
-1.12677e-06
1.47748e-07
-1.18779e-06
1.6471e-07
-1.23789e-06
1.78406e-07
-1.26616e-06
1.88226e-07
-1.2677e-06
1.95559e-07
-1.24614e-06
2.01683e-07
-1.20539e-06
-1.14639e-06
2.05907e-07
8.48132e-08
-5.49442e-07
-7.11829e-09
1.00415e-07
-1.06773e-06
1.16795e-07
-1.14314e-06
1.33372e-07
-1.20437e-06
1.48104e-07
-1.25262e-06
1.59267e-07
-1.27732e-06
1.67509e-07
-1.27594e-06
1.75247e-07
-1.25388e-06
1.84451e-07
-1.21459e-06
-1.1575e-06
1.95566e-07
7.47427e-08
-6.17512e-07
-8.29741e-09
9.09949e-08
-1.084e-06
1.0684e-07
-1.15899e-06
1.21129e-07
-1.21866e-06
1.32511e-07
-1.264e-06
1.39832e-07
-1.28464e-06
1.44869e-07
-1.28098e-06
1.50394e-07
-1.25941e-06
1.58053e-07
-1.22225e-06
-1.16608e-06
1.66632e-07
6.65462e-08
-6.82393e-07
-4.90071e-09
8.34047e-08
-1.10087e-06
9.76185e-08
-1.1732e-06
1.09323e-07
-1.23036e-06
1.17121e-07
-1.2718e-06
1.2035e-07
-1.28787e-06
1.21918e-07
-1.28254e-06
1.24741e-07
-1.26223e-06
1.29933e-07
-1.22745e-06
-1.16724e-06
1.31088e-07
5.87783e-08
-7.4309e-07
-1.44163e-09
7.51211e-08
-1.11722e-06
8.82306e-08
-1.18631e-06
9.84027e-08
-1.24053e-06
1.03153e-07
-1.27655e-06
1.02903e-07
-1.28762e-06
1.01582e-07
-1.28122e-06
1.0206e-07
-1.26271e-06
1.05052e-07
-1.23044e-06
-1.15539e-06
9.31992e-08
5.37882e-08
-7.9699e-07
-1.07599e-09
6.87689e-08
-1.13221e-06
8.07589e-08
-1.1983e-06
8.97465e-08
-1.24952e-06
9.18418e-08
-1.27864e-06
8.96812e-08
-1.28546e-06
8.76061e-08
-1.27915e-06
8.82587e-08
-1.26336e-06
9.33009e-08
-1.23548e-06
-1.13296e-06
7.28013e-08
4.91249e-08
-8.41548e-07
-2.20124e-09
5.99494e-08
-1.14302e-06
7.09285e-08
-1.20928e-06
7.93572e-08
-1.25795e-06
7.98987e-08
-1.27919e-06
7.79447e-08
-1.28351e-06
7.72404e-08
-1.27844e-06
7.97536e-08
-1.26587e-06
8.89618e-08
-1.24469e-06
-1.10927e-06
6.72013e-08
2.19059e-08
-8.5918e-07
-1.40792e-10
3.94972e-08
-1.16059e-06
5.53541e-08
-1.22514e-06
6.51781e-08
-1.26777e-06
6.52669e-08
-1.27927e-06
6.39304e-08
-1.28217e-06
6.41524e-08
-1.27866e-06
6.69221e-08
-1.26864e-06
7.70772e-08
-1.25484e-06
-1.08825e-06
5.84425e-08
9.52158e-09
-8.70225e-07
7.22022e-09
2.93853e-08
-1.18044e-06
4.59202e-08
-1.24167e-06
5.32476e-08
-1.2751e-06
5.1151e-08
-1.27718e-06
4.8518e-08
-1.27954e-06
4.72621e-08
-1.27741e-06
4.60498e-08
-1.26743e-06
4.73516e-08
-1.25615e-06
-1.06912e-06
2.95168e-08
1.52248e-08
-8.83307e-07
1.51091e-09
2.84384e-08
-1.19367e-06
4.20183e-08
-1.25525e-06
4.44261e-08
-1.27751e-06
3.97363e-08
-1.27249e-06
3.50414e-08
-1.27484e-06
3.23916e-08
-1.27476e-06
2.84637e-08
-1.2635e-06
2.25151e-08
-1.2502e-06
-1.05505e-06
9.0741e-09
2.05399e-08
-9.01149e-07
-1.60314e-10
3.09729e-08
-1.2041e-06
4.22501e-08
-1.26653e-06
3.89098e-08
-1.27417e-06
3.13656e-08
-1.26494e-06
2.39242e-08
-1.2674e-06
1.98096e-08
-1.27064e-06
1.48686e-08
-1.25856e-06
4.24898e-09
-1.23958e-06
-1.05054e-06
5.5285e-43
3.74149e-08
-9.38166e-07
-1.38252e-09
3.79956e-08
-1.20468e-06
4.29602e-08
-1.2715e-06
3.36115e-08
-1.26482e-06
2.42074e-08
-1.25554e-06
1.48823e-08
-1.25808e-06
9.52082e-09
-1.26528e-06
6.87001e-09
-1.25591e-06
-4.74335e-09
-1.22796e-06
-1.05572e-06
6.68852e-46
1.58869e-08
-9.5487e-07
-3.99513e-11
2.987e-08
-1.21867e-06
3.6527e-08
-1.27815e-06
2.64242e-08
-1.25472e-06
1.71214e-08
-1.24624e-06
7.22609e-09
-1.24818e-06
-9.41044e-11
-1.25796e-06
2.85561e-09
-1.25886e-06
-2.82268e-09
-1.22229e-06
-1.05875e-06
2.57858e-81
1.32401e-09
-9.57127e-07
-3.06275e-10
3.18044e-08
-1.24915e-06
3.40257e-08
-1.28037e-06
2.19269e-08
-1.24262e-06
1.18721e-08
-1.23618e-06
1.18605e-09
-1.2375e-06
-1.10603e-08
-1.24572e-06
-3.27341e-09
-1.26665e-06
1.3478e-08
-1.23904e-06
-1.04543e-06
1.64375e-95
-1.35282e-08