/*--------------------------------*- C++ -*----------------------------------*\
  =========                 |
  \\      /  F ield         | OpenFOAM: The Open Source CFD Toolbox
   \\    /   O peration     | Website:  https://openfoam.org
    \\  /    A nd           | Version:  8
     \\/     M anipulation  |
\*---------------------------------------------------------------------------*/
FoamFile
{
    version     2.0;
    format      ascii;
    class       volScalarField;
    location    "4.75";
    object      nut;
}
// * * * * * * * * * * * * * * * * * * * * * * * * * * * * * * * * * * * * * //

dimensions      [0 2 -1 0 0 0 0];

internalField   nonuniform List<scalar> 
9150
(
9.6004e-06
6.40667e-06
6.57063e-06
8.72943e-06
7.52393e-06
7.52078e-06
8.72818e-06
6.57002e-06
6.40584e-06
9.60043e-06
9.48749e-06
5.73933e-06
8.2742e-06
9.87266e-06
7.00015e-06
6.9967e-06
9.86962e-06
8.27366e-06
5.73863e-06
9.48748e-06
9.29559e-06
5.50211e-06
1.07988e-05
1.02488e-05
6.65379e-06
6.65056e-06
1.02446e-05
1.07975e-05
5.50152e-06
9.29555e-06
9.07996e-06
5.42432e-06
1.34043e-05
1.02467e-05
6.46754e-06
6.46454e-06
1.02421e-05
1.34013e-05
5.42381e-06
9.07991e-06
8.84515e-06
5.40799e-06
1.5652e-05
1.01551e-05
6.37291e-06
6.37004e-06
1.01505e-05
1.56469e-05
5.40753e-06
8.84509e-06
5.9103e-06
1.12603e-05
1.38279e-05
1.73376e-05
1.64796e-05
1.64781e-05
1.73458e-05
1.38505e-05
1.12773e-05
5.91147e-06
6.27968e-06
8.85142e-06
1.13358e-05
1.52506e-05
1.42581e-05
1.42544e-05
1.52525e-05
1.13477e-05
8.85771e-06
6.27958e-06
6.82962e-06
7.89961e-06
9.37041e-06
1.3026e-05
1.19908e-05
1.1987e-05
1.30261e-05
9.37548e-06
7.90066e-06
6.82942e-06
7.38664e-06
7.29513e-06
7.96464e-06
1.11225e-05
1.00847e-05
1.00812e-05
1.11219e-05
7.96613e-06
7.29441e-06
7.38651e-06
8.0745e-06
6.84554e-06
7.04755e-06
9.62809e-06
8.55108e-06
8.54783e-06
9.62703e-06
7.04741e-06
6.84454e-06
8.07442e-06
1.20883e-05
1.36697e-05
1.24845e-05
1.54273e-05
1.72225e-05
1.73748e-05
1.58966e-05
1.40752e-05
1.96633e-05
1.39034e-05
7.86516e-06
1.07619e-05
1.23004e-05
1.56126e-05
1.73169e-05
1.74192e-05
1.58834e-05
1.25651e-05
1.08439e-05
7.90781e-06
7.45202e-06
1.01602e-05
1.24169e-05
1.58234e-05
1.7406e-05
1.74696e-05
1.6e-05
1.25593e-05
1.02008e-05
7.46407e-06
7.02737e-06
9.76982e-06
1.24792e-05
1.59933e-05
1.74727e-05
1.75141e-05
1.61038e-05
1.25646e-05
9.82214e-06
7.03255e-06
6.50613e-06
1.00289e-05
1.25117e-05
1.62186e-05
1.73802e-05
1.74001e-05
1.6271e-05
1.25567e-05
1.00722e-05
6.50838e-06
5.28612e-06
5.27217e-06
5.25786e-06
5.24302e-06
5.22749e-06
5.21112e-06
5.19383e-06
5.17555e-06
5.15628e-06
5.13601e-06
4.20788e-05
4.22526e-05
4.24393e-05
4.2636e-05
4.28397e-05
4.30485e-05
4.32619e-05
4.34775e-05
4.36944e-05
4.39103e-05
8.3138e-05
8.32975e-05
8.34842e-05
8.36948e-05
8.39257e-05
8.41734e-05
8.44342e-05
8.47039e-05
8.49774e-05
8.52489e-05
0.000119155
0.000119197
0.000119263
0.000119347
0.000119447
0.000119556
0.000119668
0.000119776
0.000119872
0.000119948
0.000149979
0.000149809
0.00014964
0.000149467
0.000149284
0.000149084
0.000148858
0.000148597
0.000148291
0.000147927
0.000175793
0.00017529
0.000174752
0.000174174
0.000173547
0.000172862
0.000172107
0.000171274
0.000170351
0.000169325
0.000196716
0.000195744
0.000194693
0.000193555
0.000192328
0.000190997
0.000189551
0.00018798
0.000186273
0.00018442
0.000212901
0.000211338
0.000209656
0.000207848
0.000205904
0.000203817
0.000201579
0.000199186
0.000196636
0.00019393
0.000224697
0.000222465
0.000220083
0.000217547
0.000214857
0.000212012
0.000209019
0.000205889
0.000202639
0.000199293
0.000232661
0.000229762
0.00022671
0.000223516
0.000220193
0.000216762
0.000213254
0.000209706
0.000206166
0.000202687
0.000237617
0.00023417
0.000230618
0.000226993
0.000223334
0.000219692
0.000216129
0.000212714
0.000209521
0.000206627
0.000240627
0.000236882
0.000233143
0.000229469
0.000225932
0.000222612
0.000219596
0.000216972
0.000214825
0.000213228
0.00024287
0.000239187
0.000235678
0.000232431
0.000229541
0.000227106
0.000225217
0.00022396
0.0002234
0.000223585
0.000245472
0.00024225
0.000239409
0.00023705
0.000235272
0.000234166
0.000233811
0.000234264
0.00023556
0.000237709
0.000249318
0.000246923
0.000245112
0.000243982
0.000243617
0.000244088
0.000245442
0.000247706
0.000250885
0.000254959
0.000254951
0.000253642
0.000253087
0.000253365
0.000254537
0.000256644
0.000259707
0.000263726
0.000268683
0.000274543
0.000262564
0.000262469
0.000263255
0.000264975
0.00026767
0.000271356
0.000276034
0.000281687
0.000288279
0.000295761
0.000272089
0.000273226
0.000275326
0.000278428
0.000282551
0.000287702
0.000293866
0.000301013
0.000309092
0.00031803
0.000283334
0.000285643
0.00028897
0.00029334
0.000298768
0.000305251
0.000312767
0.000321272
0.000330696
0.000340936
0.000296118
0.000299505
0.000303946
0.000309462
0.000316067
0.000323757
0.000332503
0.000342244
0.000352879
0.000364274
0.000310366
0.00031473
0.000320178
0.000326726
0.000334395
0.000343187
0.00035306
0.000363924
0.000375644
0.000388048
0.000326132
0.000331372
0.000337718
0.000345204
0.000353859
0.000363671
0.00037457
0.000386435
0.0003991
0.000412351
0.000343608
0.000349615
0.000356747
0.000365095
0.000374672
0.000385412
0.000397218
0.000409947
0.000423401
0.000437323
0.000363068
0.000369798
0.000377677
0.000386787
0.000397125
0.000408623
0.000421168
0.00043459
0.000448658
0.00046305
0.000384789
0.000392218
0.000400756
0.000410472
0.00042138
0.000433432
0.000446513
0.000460434
0.000474918
0.000489561
0.00040889
0.000416934
0.000426003
0.000436162
0.000447447
0.000459839
0.000473244
0.000487459
0.000502148
0.000516817
0.000435176
0.000443746
0.000453239
0.000463715
0.000475218
0.000487756
0.000501273
0.000515596
0.000530299
0.000544756
0.000463185
0.000472243
0.000482121
0.000492861
0.000504496
0.000517039
0.000530429
0.000544607
0.000559151
0.00057322
0.000492388
0.000501878
0.000512096
0.000523076
0.000534841
0.000547378
0.000560619
0.000574482
0.000588548
0.000602075
0.00052223
0.000532029
0.000542472
0.000553592
0.000565397
0.000577828
0.00059079
0.000604141
0.000617558
0.000630541
0.000552215
0.000562187
0.000572702
0.000583774
0.000595401
0.000607529
0.000620053
0.000632803
0.000645557
0.000657957
0.000581803
0.000591828
0.000602288
0.000613187
0.000624512
0.000636221
0.000648228
0.000660406
0.000672562
0.000684427
0.000610426
0.000620395
0.000630703
0.000641349
0.000652317
0.000663573
0.000675059
0.000686688
0.000698331
0.000709806
0.000637551
0.000647375
0.000657463
0.000667811
0.000678407
0.000689234
0.000700258
0.000711433
0.000722692
0.000733935
0.000662731
0.000672359
0.000682202
0.000692257
0.000702522
0.000712991
0.000723658
0.000734515
0.000745539
0.000756693
0.000685628
0.000695054
0.000704677
0.000714498
0.000724517
0.000734743
0.00074519
0.000755879
0.00076682
0.000778008
0.000706015
0.000715278
0.00072475
0.000734436
0.000744333
0.000754456
0.000764835
0.000775507
0.000786502
0.00079783
0.000723764
0.000732938
0.000742352
0.000752008
0.000761916
0.000772094
0.000782563
0.000793358
0.00080452
0.000816071
0.000738799
0.000747973
0.000757404
0.000767109
0.000777127
0.000787485
0.000798191
0.000809248
0.000820671
0.000832485
0.000750959
0.000760187
0.000769721
0.000779582
0.000789794
0.000800376
0.000811337
0.000822687
0.000834449
0.000846627
0.000760001
0.000769311
0.000778989
0.000789049
0.000799504
0.000810365
0.000821642
0.000833345
0.000845483
0.000858048
0.000765598
0.000775025
0.000784881
0.000795171
0.0008059
0.000817075
0.000828697
0.000840769
0.000853282
0.00086622
0.000767448
0.00077702
0.000787084
0.000797633
0.000808662
0.000820166
0.000832138
0.00084457
0.000857447
0.000870743
0.000765435
0.000775194
0.000785506
0.000796351
0.000807711
0.000819565
0.000831897
0.000844689
0.000857922
0.000871571
0.000759722
0.000769741
0.000780371
0.000791577
0.000803323
0.000815572
0.000828292
0.000841454
0.000855033
0.000869005
0.000750776
0.000761159
0.000772204
0.000783857
0.000796063
0.000808767
0.000821919
0.000835472
0.000849388
0.000863632
0.000739379
0.000750231
0.000761776
0.000773942
0.000786654
0.000799839
0.000813426
0.000827353
0.00084156
0.000855996
0.000726623
0.00073802
0.00075011
0.000762803
0.000776006
0.000789628
0.000803582
0.000817783
0.000832155
0.000846621
0.000713865
0.000725855
0.000738504
0.000751704
0.000765348
0.00077933
0.000793549
0.000807906
0.000822307
0.000836658
0.00070253
0.000715151
0.000728363
0.000742045
0.000756081
0.000770356
0.000784762
0.000799191
0.000813543
0.000827721
0.000693826
0.000707089
0.000720849
0.000734977
0.000749354
0.000763863
0.000778392
0.000792838
0.000807102
0.000821101
0.000688435
0.000702298
0.00071654
0.000731035
0.000745667
0.000760321
0.000774897
0.000789294
0.000803431
0.000817241
0.000686376
0.000700701
0.000715272
0.000729982
0.000744727
0.000759403
0.00077392
0.000788193
0.000802156
0.000815748
0.000687027
0.000701584
0.000716253
0.000730964
0.000745652
0.000760228
0.000774583
0.000788646
0.000802329
0.000815686
0.000689364
0.000703913
0.000718464
0.000732965
0.000747357
0.000761606
0.000775673
0.000789666
0.000803611
0.000817588
0.000692374
0.000706797
0.000721128
0.000735199
0.000749138
0.000763305
0.000777878
0.000792929
0.000808507
0.000824651
0.000695405
0.000709421
0.000723081
0.000736865
0.000751222
0.000766403
0.000782634
0.000800045
0.000818664
0.000838432
0.000697048
0.000710363
0.000723938
0.000738312
0.000753899
0.000771017
0.000789887
0.000810607
0.000833143
0.000857298
0.000696087
0.000709451
0.000723639
0.000739163
0.000756474
0.000775875
0.000797538
0.00082151
0.000847789
0.000876188
0.000692677
0.000706411
0.000721424
0.000738175
0.000757017
0.000778166
0.000801695
0.000827515
0.000855898
0.000884797
0.000686277
0.000700344
0.000715978
0.000733553
0.000753298
0.000775328
0.000799356
0.000824648
0.000849601
0.000872465
0.000675951
0.000689823
0.000705359
0.000722796
0.000741936
0.000761969
0.000781783
0.000799395
0.000814659
0.000828277
0.000660051
0.000672245
0.000685661
0.00069992
0.000714408
0.00072811
0.000740751
0.000752058
0.000762011
0.000770802
0.000636291
0.000644412
0.000652783
0.000661175
0.000669434
0.000677431
0.000685129
0.000692619
0.000700082
0.000707674
0.000603351
0.000606414
0.000609389
0.000612519
0.000616182
0.000620742
0.000626529
0.000633813
0.00064258
0.000651907
0.000563612
0.000562307
0.000561698
0.000562474
0.000565038
0.000570042
0.000577907
0.000588377
0.000599555
0.000608016
0.000521235
0.000518008
0.000517229
0.000519587
0.000525172
0.000534257
0.000546619
0.000559705
0.000569104
0.000572121
0.000481288
0.000479603
0.000482255
0.000489442
0.000500829
0.000515583
0.000530678
0.000541018
0.000543863
0.000541026
0.000448123
0.000451034
0.000459522
0.000473177
0.000490992
0.00050923
0.000521283
0.000523808
0.000520115
0.000515355
0.000424273
0.000433548
0.000448803
0.000468963
0.00049121
0.000506781
0.000509383
0.000504662
0.000498966
0.000495408
0.000410626
0.000427055
0.00044924
0.000475102
0.000496073
0.000500243
0.000494088
0.000486726
0.000481549
0.000480302
0.000407271
0.000431235
0.000460147
0.000488551
0.000497617
0.000489435
0.000479187
0.000471221
0.00046744
0.000469247
0.000413309
0.000445055
0.000480687
0.000499924
0.000490899
0.000476981
0.000465046
0.00045751
0.00045601
0.000461659
0.000427294
0.000466676
0.000498632
0.000498828
0.000481408
0.000464271
0.000451605
0.000445398
0.000447023
0.00045706
0.000448
0.000493118
0.000514417
0.000494589
0.000471217
0.000451791
0.000439084
0.000434975
0.000440296
0.000454827
0.000474738
0.000515521
0.000516634
0.000487133
0.000459744
0.000438936
0.000427138
0.000425934
0.000435222
0.000453965
0.000501758
0.000529579
0.000508307
0.0004757
0.000446599
0.000425589
0.00041568
0.00041792
0.000430962
0.000453402
0.000522516
0.000538232
0.000501554
0.000464479
0.000433366
0.000412449
0.000404872
0.000410464
0.000426558
0.000452271
0.000538406
0.000535768
0.000492452
0.000452056
0.000419337
0.000399012
0.000394066
0.00040252
0.000420975
0.000450024
0.00054702
0.000523715
0.000479954
0.000437691
0.000403826
0.000384566
0.000382333
0.000393022
0.0004137
0.000446589
0.000558465
0.000516963
0.000467924
0.000422406
0.000387009
0.000368859
0.000369041
0.000381545
0.000405053
0.000442295
0.000572019
0.000510877
0.000455148
0.000405646
0.000368313
0.000351215
0.000353589
0.000368351
0.000395927
0.000437669
0.000553816
0.000496641
0.000438963
0.000385953
0.000346558
0.000330819
0.000335906
0.000354464
0.000387438
0.000433386
0.000541949
0.00048141
0.000419824
0.000362719
0.000321249
0.000307691
0.000316852
0.000341232
0.000380514
0.000430189
0.000531271
0.000465397
0.000399004
0.000337228
0.000293378
0.000282796
0.000297641
0.000329634
0.000375668
0.000428775
0.000517625
0.000447405
0.000376486
0.000309982
0.00026349
0.000256852
0.000279136
0.000320049
0.000372954
0.000429491
0.000500084
0.000427001
0.000352449
0.000281563
0.000232106
0.0002305
0.000261866
0.000312442
0.000372206
0.000432353
0.000479036
0.000404615
0.000327603
0.000252724
0.000199767
0.00020432
0.000245991
0.000306436
0.000373226
0.000437634
0.00045597
0.000381756
0.000303058
0.000224135
0.000167047
0.000178886
0.000231226
0.000301043
0.000375235
0.000445387
0.000435325
0.000360794
0.000279607
0.000195982
0.000134662
0.000154889
0.000217008
0.000294774
0.000376634
0.000455004
0.000419416
0.000342314
0.000256816
0.000167859
0.000103697
0.000133233
0.000202998
0.000286196
0.000374901
0.000463328
0.00040781
0.000324882
0.000233194
0.000139164
7.5716e-05
0.000114881
0.00018971
0.000275157
0.000368082
0.000466021
0.000396847
0.000305714
0.000207242
0.00011018
5.26212e-05
0.000100162
0.000178404
0.000263534
0.000356524
0.00045992
0.000384122
0.000283862
0.000179088
8.2707e-05
3.57648e-05
8.80969e-05
0.000170181
0.000255103
0.000344238
0.000446632
0.000367144
0.00025834
0.000148953
5.8649e-05
2.50842e-05
7.66189e-05
0.00016461
0.000254687
0.000340872
0.000434946
0.000343342
0.000228487
0.000117877
3.97931e-05
1.95181e-05
6.33918e-05
0.00015737
0.000261997
0.000354315
0.000440925
0.000314013
0.000195929
8.84259e-05
2.71294e-05
1.7568e-05
4.76813e-05
0.00014112
0.000269617
0.000386624
0.000479714
0.00028035
0.000164219
6.37962e-05
2.04907e-05
1.73031e-05
3.18739e-05
0.000108406
0.000260012
0.000429234
0.000567754
0.000262716
0.000141113
4.52434e-05
1.77173e-05
1.7187e-05
2.11416e-05
6.09511e-05
0.000201651
0.000437471
0.000712916
0.000387237
0.000121735
2.83227e-05
1.6143e-05
1.71614e-05
1.7677e-05
2.34287e-05
8.30437e-05
0.000282098
0.000690674
5.11327e-06
5.08899e-06
5.06399e-06
5.03855e-06
5.0127e-06
4.98631e-06
4.95925e-06
4.93139e-06
4.90263e-06
4.87294e-06
4.84235e-06
4.81097e-06
4.7796e-06
4.75146e-06
4.73479e-06
4.73247e-06
4.72584e-06
4.72218e-06
4.72961e-06
4.74117e-06
2.00793e-05
4.71422e-06
4.7285e-06
4.70884e-06
2.00343e-05
4.71648e-06
1.99585e-05
4.70539e-06
1.99271e-05
1.99499e-05
1.99798e-05
1.9924e-05
1.94001e-05
1.83632e-05
1.69269e-05
1.51672e-05
1.31144e-05
1.07598e-05
8.05951e-06
1.23488e-06
4.41365e-05
4.43589e-05
4.45653e-05
4.47527e-05
4.49194e-05
4.50649e-05
4.51887e-05
4.52909e-05
4.53718e-05
4.54322e-05
4.54738e-05
4.54874e-05
4.54624e-05
4.53737e-05
4.51869e-05
4.49152e-05
4.45592e-05
4.41418e-05
4.37332e-05
4.31862e-05
4.2708e-05
4.17953e-05
4.11147e-05
4.02898e-05
3.9728e-05
3.87924e-05
3.83871e-05
3.74264e-05
3.70435e-05
3.68305e-05
3.69168e-05
3.71696e-05
3.65022e-05
3.46161e-05
3.18013e-05
2.82241e-05
2.38219e-05
1.82261e-05
1.06524e-05
1.89731e-06
8.55287e-05
8.58008e-05
8.60434e-05
8.62486e-05
8.64101e-05
8.65223e-05
8.65804e-05
8.65792e-05
8.65119e-05
8.63732e-05
8.61539e-05
8.58393e-05
8.54103e-05
8.48444e-05
8.41224e-05
8.32407e-05
8.21979e-05
8.10068e-05
7.96829e-05
7.82401e-05
7.67056e-05
7.50919e-05
7.34192e-05
7.16908e-05
6.99194e-05
6.81045e-05
6.62555e-05
6.43226e-05
6.2338e-05
6.02554e-05
5.80152e-05
5.55045e-05
5.2475e-05
4.87456e-05
4.4204e-05
3.87232e-05
3.20649e-05
2.38017e-05
1.34231e-05
2.692e-06
0.000119997
0.000119997
0.000119934
0.000119796
0.000119571
0.000119248
0.000118818
0.000118269
0.000117589
0.000116763
0.000115772
0.000114597
0.000113214
0.000111608
0.000109771
0.000107714
0.000105463
0.000103058
0.000100546
9.79822e-05
9.54087e-05
9.28528e-05
9.03259e-05
8.78244e-05
8.53361e-05
8.2849e-05
8.03575e-05
7.78516e-05
7.53113e-05
7.26823e-05
6.98659e-05
6.67037e-05
6.29768e-05
5.84649e-05
5.29848e-05
4.62974e-05
3.80864e-05
2.79481e-05
1.5612e-05
3.40651e-06
0.000147469
0.000146884
0.000146183
0.000145351
0.000144374
0.000143239
0.000141933
0.000140442
0.000138752
0.000136844
0.0001347
0.000132298
0.000129625
0.000126677
0.000123473
0.000120054
0.000116486
0.00011285
0.000109229
0.000105698
0.000102293
9.90284e-05
9.58885e-05
9.28419e-05
8.98518e-05
8.69016e-05
8.40128e-05
8.12152e-05
7.85311e-05
7.59422e-05
7.33632e-05
7.06054e-05
6.73526e-05
6.32039e-05
5.78014e-05
5.08222e-05
4.18947e-05
3.0686e-05
1.71755e-05
4.03068e-06
0.000168118
0.00016668
0.000165067
0.000163266
0.000161267
0.000159062
0.000156644
0.00015401
0.000151155
0.000148071
0.000144751
0.000141189
0.00013739
0.000133375
0.000129188
0.000124899
0.000120592
0.00011636
0.000112283
0.000108391
0.000104673
0.000101098
9.76164e-05
9.4172e-05
9.07116e-05
8.72238e-05
8.37607e-05
8.04044e-05
7.72348e-05
7.43149e-05
7.16629e-05
6.91879e-05
6.65842e-05
6.32773e-05
5.86674e-05
5.22424e-05
4.35143e-05
3.21579e-05
1.8279e-05
4.63017e-06
0.000182303
0.000179857
0.000177205
0.000174349
0.000171293
0.000168052
0.000164641
0.000161082
0.000157392
0.000153586
0.000149676
0.000145673
0.000141599
0.000137486
0.000133378
0.000129325
0.00012537
0.000121552
0.000117876
0.000114289
0.000110723
0.000107113
0.00010341
9.95702e-05
9.55515e-05
9.13471e-05
8.70155e-05
8.2644e-05
7.83265e-05
7.41785e-05
7.03351e-05
6.69051e-05
6.38338e-05
6.06386e-05
5.66536e-05
5.11534e-05
4.34879e-05
3.29228e-05
1.92281e-05
5.2399e-06
0.000190928
0.000187562
0.000184041
0.000180397
0.000176667
0.000172898
0.000169137
0.000165427
0.000161803
0.000158287
0.000154892
0.00015162
0.000148472
0.00014545
0.000142548
0.000139739
0.000136963
0.000134151
0.000131227
0.000128099
0.000124699
0.000120984
0.000116935
0.00011256
0.000107845
0.000102782
9.74032e-05
9.17687e-05
8.59526e-05
8.00642e-05
7.42686e-05
6.87742e-05
6.37355e-05
5.90175e-05
5.42599e-05
4.88492e-05
4.20046e-05
3.26509e-05
2.00715e-05
6.28106e-06
0.000195726
0.000191892
0.000188081
0.000184362
0.000180803
0.000177467
0.000174407
0.000171655
0.000169222
0.000167099
0.000165262
0.000163669
0.000162253
0.000160954
0.000159702
0.000158374
0.000156794
0.000154799
0.000152283
0.000149203
0.000145573
0.0001414
0.00013669
0.00013149
0.000125832
0.000119694
0.000113124
0.000106174
9.89034e-05
9.13946e-05
8.37824e-05
7.62374e-05
6.8896e-05
6.17885e-05
5.48538e-05
4.8069e-05
4.1131e-05
3.32128e-05
2.27327e-05
8.817e-06
0.000199202
0.000195702
0.000192512
0.000189714
0.000187369
0.000185517
0.000184161
0.000183271
0.000182796
0.00018267
0.000182817
0.000183156
0.000183556
0.000183881
0.000184005
0.000183734
0.000182822
0.000181053
0.000178349
0.00017475
0.000170367
0.000165251
0.000159415
0.000152916
0.000145848
0.000138256
0.000130196
0.000121706
0.000112818
0.000103584
9.41045e-05
8.4507e-05
7.49173e-05
6.5465e-05
5.63136e-05
4.77004e-05
3.967e-05
3.20725e-05
2.40829e-05
1.36487e-05
0.000204047
0.000201803
0.000200167
0.000199181
0.000198856
0.000199167
0.000200038
0.000201367
0.000203043
0.000204949
0.000206966
0.000208964
0.000210805
0.000212286
0.00021323
0.0002134
0.000212527
0.000210396
0.000206968
0.000202344
0.000196677
0.000190105
0.000182655
0.000174351
0.000165297
0.000155606
0.000145336
0.000134482
0.000123039
0.000111119
9.9046e-05
8.73089e-05
7.6378e-05
6.64757e-05
5.74491e-05
4.88486e-05
4.01984e-05
3.13072e-05
2.24271e-05
1.98481e-05
0.000212277
0.000212003
0.000212533
0.000213843
0.000215865
0.000218516
0.000221668
0.000225158
0.000228831
0.000232539
0.0002361
0.000239331
0.000242034
0.00024408
0.000245273
0.00024538
0.000244093
0.000241184
0.000236693
0.00023074
0.000223455
0.000214991
0.000205392
0.000194684
0.000182918
0.00017014
0.00015641
0.000141865
0.000126839
0.000112092
9.8915e-05
8.83253e-05
8.04339e-05
7.43178e-05
6.84669e-05
6.14017e-05
5.22115e-05
4.02405e-05
2.52736e-05
5.23894e-06
0.000224675
0.000226695
0.00022959
0.000233274
0.00023762
0.000242498
0.000247763
0.000253202
0.000258601
0.000263741
0.000268439
0.000272482
0.000275677
0.000277866
0.000278888
0.000278545
0.000276561
0.000272704
0.000267053
0.000259647
0.000250531
0.000239809
0.000227486
0.000213574
0.00019808
0.000181072
0.000162829
0.000144305
0.000127098
0.000113106
0.00010391
9.95324e-05
9.81592e-05
9.72481e-05
9.44071e-05
8.78667e-05
7.65095e-05
5.98517e-05
3.76508e-05
7.37674e-06
0.000240929
0.000245246
0.000250429
0.000256361
0.000262882
0.000269803
0.000276923
0.000283996
0.000290784
0.000297044
0.000302533
0.000307068
0.000310477
0.000312585
0.000313233
0.000312225
0.000309386
0.000304544
0.000297662
0.000288734
0.000277746
0.000264717
0.000249606
0.000232394
0.000213121
0.000192022
0.000170245
0.000150161
0.00013456
0.000125378
0.000122811
0.000125139
0.000129003
0.000131132
0.000128741
0.000119854
0.000103548
7.98414e-05
4.91839e-05
9.99677e-06
0.000260209
0.000266673
0.000273968
0.00028196
0.000290443
0.000299144
0.000307823
0.000316203
0.00032401
0.000331001
0.000336951
0.000341657
0.000344959
0.000346703
0.000346768
0.000345031
0.000341363
0.000335624
0.000327725
0.000317601
0.00030518
0.000290431
0.00027334
0.00025397
0.000232557
0.000209673
0.00018711
0.000168421
0.000156513
0.000152503
0.00015516
0.00016194
0.000169018
0.000172765
0.000169493
0.000156692
0.000133306
9.94578e-05
5.73483e-05
1.2092e-05
0.000281655
0.00029008
0.000299276
0.000309055
0.000319184
0.000329337
0.000339181
0.000348457
0.000356867
0.000364153
0.000370072
0.000374486
0.000377281
0.000378377
0.000377719
0.000375264
0.00037095
0.000364669
0.000356287
0.000345676
0.000332763
0.000317559
0.000300151
0.000280756
0.000259848
0.000238368
0.000218178
0.000202517
0.000194348
0.000194276
0.00020022
0.000209156
0.000217762
0.000222203
0.000217458
0.000200894
0.000170971
0.000126346
6.90514e-05
1.35844e-05
0.000304541
0.000314697
0.00032553
0.000336784
0.000348157
0.000359335
0.000369923
0.000379579
0.000388014
0.000394978
0.000400306
0.000403913
0.000405778
0.000405932
0.000404441
0.000401359
0.000396692
0.000390342
0.000382125
0.000371857
0.000359473
0.00034511
0.000328977
0.000311439
0.000293174
0.000275396
0.000260018
0.000249443
0.000245649
0.000248746
0.000256352
0.000265668
0.000273974
0.000275374
0.000266025
0.000245259
0.000210372
0.000157424
8.47633e-05
1.45643e-05
0.000328273
0.000339883
0.00035204
0.000364425
0.000376705
0.000388441
0.000399193
0.000408606
0.000416411
0.00042242
0.000426549
0.00042882
0.000429344
0.000428305
0.000425908
0.00042234
0.00041767
0.000411788
0.000404434
0.00039529
0.000384341
0.000371839
0.000358107
0.000343618
0.000329195
0.000316167
0.000306292
0.000301263
0.00030201
0.000308069
0.000317591
0.000326333
0.000328856
0.000322184
0.00030695
0.000281645
0.000242373
0.000183394
9.94655e-05
1.50985e-05
0.000352468
0.000365304
0.00037851
0.00039171
0.000404423
0.000416145
0.000426438
0.000434973
0.000441523
0.000445985
0.000448389
0.000448903
0.000447815
0.000445488
0.000442301
0.000438547
0.00043431
0.000429436
0.000423612
0.000416438
0.000407974
0.000398409
0.000388081
0.000377571
0.000367798
0.000360035
0.000355625
0.000355517
0.000359858
0.00036764
0.000375193
0.000376532
0.000370364
0.000357591
0.000337604
0.000308046
0.000264579
0.000200559
0.000109003
1.52567e-05
0.000376928
0.000390796
0.000404775
0.000418361
0.000430992
0.000442154
0.000451435
0.000458543
0.000463325
0.000465798
0.000466158
0.00046477
0.000462141
0.000458836
0.000455372
0.000452077
0.000448959
0.0004458
0.00044222
0.000437788
0.000432553
0.000426707
0.000420458
0.000414397
0.000409427
0.000406593
0.000406735
0.000410172
0.000416154
0.000420836
0.000419573
0.000412635
0.000400691
0.000383429
0.000359509
0.000326222
0.0002789
0.000210477
0.000113627
1.51545e-05
0.000401654
0.0004163
0.000430699
0.000444237
0.000456327
0.000466469
0.000474282
0.000479538
0.000482203
0.000482468
0.000480749
0.000477675
0.000473994
0.000470454
0.00046764
0.000465812
0.000464824
0.000464337
0.000463807
0.000462754
0.000461115
0.000459003
0.000456663
0.000454637
0.000453619
0.000454336
0.000457174
0.000461381
0.000462943
0.00045875
0.000450484
0.000438522
0.000422604
0.000401988
0.000375016
0.000338603
0.000287746
0.000215333
0.000114766
1.49077e-05
0.000426703
0.000441832
0.000456284
0.000469386
0.000480548
0.000489286
0.000495267
0.000498372
0.000498743
0.000496812
0.000493296
0.000489118
0.000485275
0.000482641
0.000481769
0.000482715
0.000485101
0.00048828
0.000491406
0.000493865
0.000495543
0.000496618
0.000497458
0.000498336
0.000499656
0.000501967
0.000504167
0.000502342
0.000495094
0.000484766
0.000472092
0.000456852
0.000438467
0.000415776
0.00038662
0.00034747
0.000293131
0.000216852
0.000113575
1.46099e-05
0.000452187
0.000467486
0.00048165
0.000493974
0.000503865
0.000510862
0.000514723
0.00051549
0.000513556
0.000509673
0.000504925
0.000500568
0.000497817
0.000497581
0.000500238
0.000505485
0.000512538
0.000520158
0.000527071
0.000532614
0.000536806
0.000540003
0.000542573
0.000544605
0.000546253
0.000546082
0.000540013
0.000529302
0.000516492
0.000502523
0.00048742
0.000470719
0.000451379
0.000427598
0.000396627
0.000354613
0.000296515
0.000216478
0.000111412
1.43338e-05
0.000478174
0.000493345
0.000506912
0.000518145
0.000526451
0.000531422
0.000532948
0.000531303
0.000527204
0.000521828
0.000516681
0.000513374
0.000513271
0.000517169
0.000525065
0.000536063
0.000548748
0.000561281
0.00057189
0.000579662
0.000584944
0.000588355
0.000590215
0.000590698
0.000588298
0.000576875
0.000561563
0.00054571
0.000530252
0.000515204
0.000500079
0.000483772
0.000464507
0.000439817
0.000406547
0.000360889
0.000298471
0.000214818
0.000108855
1.41201e-05
0.000504693
0.000519451
0.000532136
0.000541998
0.000548452
0.00055117
0.000550223
0.000546192
0.000540227
0.000534016
0.000529573
0.000528849
0.000533263
0.00054331
0.000558352
0.000576722
0.000596298
0.000614358
0.000627873
0.000635397
0.000638944
0.000639107
0.000637761
0.000634892
0.000615762
0.000593171
0.000572974
0.000555702
0.000540868
0.000527586
0.00051443
0.000499419
0.000480068
0.000453498
0.000416591
0.000366128
0.000298901
0.000212055
0.000106145
1.39908e-05
0.000531701
0.00054578
0.000557349
0.000565637
0.000570071
0.00057042
0.000566982
0.000560706
0.000553299
0.000547096
0.000544712
0.000548477
0.000559823
0.000578846
0.000604191
0.00063326
0.000662176
0.000683171
0.000690588
0.00068978
0.00068504
0.000683009
0.000682399
0.00065743
0.000625375
0.000599765
0.0005803
0.000565725
0.000554507
0.000544698
0.000533911
0.000519431
0.000498397
0.000468021
0.000425787
0.000369559
0.000297552
0.000208392
0.000103561
1.39601e-05
0.000559156
0.000572371
0.000582705
0.000589369
0.00059179
0.000589832
0.000584032
0.000575778
0.000567413
0.000562064
0.000563126
0.000573477
0.000594679
0.000626566
0.000667244
0.000712708
0.000741043
0.000742006
0.000733598
0.000726412
0.000723552
0.000722102
0.000694711
0.000656256
0.00062651
0.000605355
0.00059132
0.000582356
0.000575974
0.000569322
0.000559359
0.0005431
0.00051788
0.000481581
0.000432752
0.000370551
0.000294499
0.000204226
0.000101341
1.40363e-05
0.000587009
0.000599353
0.000608579
0.000613841
0.000614542
0.000610612
0.000602801
0.000592934
0.000584032
0.000580127
0.000585582
0.000604019
0.000637344
0.000685386
0.0007457
0.000791454
0.000795054
0.000782264
0.000772702
0.00076808
0.000756304
0.000722858
0.000682539
0.000651725
0.000630839
0.000618459
0.000612308
0.000609504
0.000606821
0.000600955
0.00058881
0.000567781
0.000535981
0.000492359
0.000436664
0.000369197
0.000290349
0.000200144
9.96848e-05
1.42245e-05
0.000615238
0.000626856
0.000635301
0.000639662
0.000639297
0.000634157
0.000625094
0.000614255
0.000605215
0.000602848
0.000612496
0.000638624
0.00068363
0.000746701
0.000819539
0.000849067
0.000837648
0.000826278
0.000814276
0.000787915
0.000746522
0.000707004
0.000677803
0.000659118
0.000649468
0.000646472
0.00064706
0.000647808
0.000645301
0.000636449
0.000618743
0.000590451
0.00055073
0.000499615
0.000437836
0.000366418
0.000286096
0.00019677
9.87497e-05
1.45288e-05
0.000643198
0.000654351
0.000662488
0.000666701
0.000666342
0.000661334
0.000652472
0.000641868
0.000633366
0.000632327
0.000644751
0.00067579
0.000728493
0.0008026
0.00087664
0.000886659
0.000881007
0.000866854
0.0008238
0.000776777
0.000740047
0.000713638
0.000697227
0.000689654
0.000688709
0.00069135
0.000694115
0.000693614
0.000686866
0.000671505
0.000645913
0.000609311
0.000561768
0.000504112
0.000437649
0.000363678
0.000282822
0.00019454
9.84246e-05
1.49583e-05
0.000670196
0.000681256
0.00068969
0.000694654
0.000695523
0.000692128
0.000685076
0.000676246
0.000669209
0.000669187
0.000682252
0.000713899
0.000767655
0.000842906
0.000902163
0.000902598
0.000908022
0.000867311
0.000824327
0.000788947
0.000764003
0.00074841
0.000741293
0.000740613
0.000743455
0.000746474
0.0007464
0.000740434
0.000726412
0.000702835
0.000668911
0.000624575
0.000570471
0.00050784
0.00043821
0.000362834
0.000281925
0.000194223
9.87786e-05
1.55346e-05
0.000696361
0.000707554
0.000716693
0.000723053
0.000726001
0.000725215
0.000721003
0.000714783
0.000709576
0.000710133
0.00072235
0.000751995
0.000803176
0.000875905
0.000919755
0.000926022
0.000926528
0.000880293
0.000841524
0.000815904
0.000802079
0.000796619
0.000796838
0.000799834
0.000802573
0.000802184
0.00079624
0.000782893
0.000760878
0.00072945
0.000688393
0.00063803
0.000579225
0.000513339
0.000441915
0.000366043
0.000285363
0.000197536
0.000100796
1.62844e-05
0.000721601
0.00073315
0.000743274
0.000751362
0.000756801
0.000759123
0.00075829
0.000755156
0.000752019
0.000752977
0.000763663
0.000790274
0.000837867
0.000907753
0.000937552
0.000953838
0.000942055
0.000892717
0.000861185
0.000847428
0.000845404
0.000848966
0.000854101
0.000857798
0.000857688
0.000851945
0.000839224
0.000818634
0.000789658
0.000752084
0.000706018
0.000651896
0.000590461
0.000522999