/*--------------------------------*- C++ -*----------------------------------*\
  =========                 |
  \\      /  F ield         | OpenFOAM: The Open Source CFD Toolbox
   \\    /   O peration     | Website:  https://openfoam.org
    \\  /    A nd           | Version:  8
     \\/     M anipulation  |
\*---------------------------------------------------------------------------*/
FoamFile
{
    version     2.0;
    format      ascii;
    class       volScalarField;
    location    "4.75";
    object      p;
}
// * * * * * * * * * * * * * * * * * * * * * * * * * * * * * * * * * * * * * //

dimensions      [1 -1 -2 0 0 0 0];

internalField   nonuniform List<scalar> 
9150
(
393.517
366.528
341.01
323.817
315.508
315.497
323.787
340.968
366.481
393.476
364.653
345.116
329.449
317.649
311.663
311.656
317.628
329.418
345.079
364.616
335.379
321.83
313.273
305.521
301.408
301.402
305.506
313.249
321.801
335.346
310.666
300.671
295.185
289.829
286.856
286.851
289.816
295.165
300.646
310.636
289.37
280.49
275.883
271.715
269.27
269.266
271.703
275.865
280.468
289.342
26.7891
22.6976
47.8249
62.097
68.6798
68.5477
61.7165
47.2514
21.8967
25.7124
196.754
172.631
167.252
166.051
166.155
166.083
165.845
166.935
172.222
196.345
301.223
269.861
253.937
244.078
239.418
239.377
243.962
253.764
269.658
301.038
381.796
339.613
311.795
294.473
285.98
285.955
294.405
311.697
339.506
381.709
432.307
379.723
341.117
319.094
308.959
308.943
319.049
341.057
379.661
432.261
-53.0188
-17.9126
-30.5416
-22.9676
-26.6748
-28.1433
-23.7503
-33.0784
-23.8461
-65.0095
-46.2234
-30.495
-49.3514
-43.7567
-47.0792
-48.1301
-44.1235
-53.7797
-34.869
-54.8708
-90.9531
-60.4527
-91.5183
-85.6632
-82.5701
-82.9111
-86.4492
-94.8567
-63.9359
-96.5229
-270.371
-146.393
-128.484
-110.643
-94.8233
-95.0697
-111.791
-130.864
-148.253
-274.961
-414.707
-177.954
-81.4295
-51.437
-35.9764
-36.1858
-52.1524
-82.5468
-179.268
-417.949
1792.34
1792.3
1792.26
1792.22
1792.19
1792.15
1792.12
1792.1
1792.07
1792.05
1772.83
1772.79
1772.75
1772.71
1772.67
1772.64
1772.6
1772.57
1772.54
1772.51
1753.28
1753.24
1753.2
1753.16
1753.12
1753.08
1753.04
1753.01
1752.97
1752.94
1733.7
1733.66
1733.62
1733.57
1733.53
1733.48
1733.44
1733.4
1733.35
1733.31
1714.08
1714.03
1713.98
1713.94
1713.89
1713.84
1713.79
1713.73
1713.69
1713.64
1694.42
1694.37
1694.32
1694.26
1694.21
1694.15
1694.09
1694.04
1693.98
1693.92
1674.74
1674.68
1674.62
1674.56
1674.5
1674.43
1674.37
1674.3
1674.24
1674.17
1655.03
1654.97
1654.9
1654.83
1654.76
1654.69
1654.62
1654.54
1654.47
1654.39
1635.3
1635.23
1635.16
1635.09
1635.01
1634.93
1634.85
1634.76
1634.68
1634.59
1615.57
1615.49
1615.41
1615.32
1615.24
1615.15
1615.05
1614.96
1614.87
1614.77
1595.82
1595.73
1595.64
1595.54
1595.45
1595.34
1595.24
1595.13
1595.02
1594.9
1576.06
1575.96
1575.86
1575.75
1575.64
1575.52
1575.39
1575.26
1575.13
1574.99
1556.3
1556.18
1556.06
1555.93
1555.8
1555.65
1555.5
1555.34
1555.17
1554.99
1536.54
1536.4
1536.25
1536.09
1535.92
1535.74
1535.55
1535.35
1535.13
1534.9
1516.77
1516.6
1516.42
1516.22
1516.01
1515.79
1515.55
1515.28
1515
1514.69
1497
1496.79
1496.57
1496.33
1496.07
1495.78
1495.47
1495.13
1494.76
1494.38
1477.23
1476.98
1476.72
1476.43
1476.11
1475.77
1475.4
1474.99
1474.55
1474.09
1457.49
1457.19
1456.87
1456.52
1456.15
1455.74
1455.31
1454.84
1454.34
1453.82
1437.77
1437.41
1437.03
1436.62
1436.18
1435.71
1435.2
1434.67
1434.09
1433.47
1418.09
1417.66
1417.2
1416.72
1416.22
1415.72
1415.14
1414.53
1413.8
1413.05
1398.46
1397.93
1397.39
1396.87
1396.32
1395.89
1395.2
1394.61
1393.8
1393.17
1378.97
1378.24
1377.58
1377.58
1376.46
1375.99
1375.37
1374.66
1374.02
1373.49
1360.01
1359.76
1361.16
1358.45
1357.41
1356.74
1355.99
1355.22
1355
1354.29
1341.5
1341.38
1341.06
1339.68
1338.71
1337.86
1337
1336.36
1336.22
1335.45
1323.05
1322.7
1322.11
1321.05
1320.05
1319.04
1318.11
1317.27
1317.3
1316.92
1304.9
1304.4
1303.5
1302.43
1301.2
1299.87
1298.68
1297.94
1296.89
1297.22
1286.86
1286.09
1285.05
1283.75
1282.21
1280.17
1277.77
1277.14
1277.39
1278.41
1268.71
1267.99
1267.08
1265.94
1264.32
1262.43
1267.85
1271.42
1260
1261.7
1250.45
1250.17
1249.78
1249.03
1248.22
1250.97
1250.97
1249.93
1247.1
1245.02
1233.03
1233.1
1233.26
1233.29
1234.31
1237.83
1237.26
1236.55
1235.61
1234.93
1215.45
1215.7
1216.09
1216.63
1217.58
1220.05
1223.08
1223.24
1222.76
1222.57
1197.56
1197.85
1198.26
1198.82
1199.61
1200.79
1201.99
1202.73
1203.61
1203.63
1179.35
1179.62
1179.96
1180.37
1180.87
1181.41
1181.99
1182.5
1182.66
1182.27
1160.92
1161.15
1161.42
1161.73
1162.07
1162.4
1162.7
1162.92
1163.01
1162.94
1142.31
1142.5
1142.72
1142.97
1143.21
1143.43
1143.64
1143.82
1143.94
1144
1123.54
1123.7
1123.91
1124.12
1124.29
1124.42
1124.55
1124.72
1124.85
1124.91
1104.58
1104.74
1105.02
1105.32
1105.49
1105.41
1105.38
1105.76
1106.11
1105.63
1085.38
1085.42
1086.05
1087.05
1087.35
1087.9
1090.39
1090.08
1089.91
1090.87
1069.37
1069.7
1068.28
1071.1
1071.17
1072.11
1075.14
1075.75
1075.47
1074.52
1051.69
1052.25
1051.16
1051.26
1051.84
1051.64
1053.14
1054.3
1053.81
1055.36
1032.36
1032.69
1032.65
1032.66
1032.93
1033.16
1033.47
1033.89
1034.58
1035.42
1013.49
1013.59
1013.69
1013.83
1014.01
1014.23
1014.45
1014.73
1015.08
1015.47
994.275
994.477
994.668
994.856
995.042
995.227
995.406
995.579
995.749
995.904
975.192
975.437
975.679
975.891
976.083
976.248
976.373
976.434
976.399
976.24
956.937
956.56
956.748
957.008
957.258
957.491
957.695
957.842
957.883
957.762
937.973
937.578
937.864
938.2
938.588
939.033
939.559
940.197
940.958
941.86
918.501
918.604
918.829
919.158
919.581
920.103
920.753
921.577
922.623
923.936
899.167
899.292
899.404
899.691
900.07
900.54
901.119
901.842
902.749
903.884
879.841
879.846
879.802
879.977
880.23
880.544
880.926
881.39
881.954
882.648
860.815
860.308
860.081
860.133
860.219
860.32
860.429
860.54
860.658
860.788
840.423
840.407
840.338
840.312
840.246
840.125
839.931
839.65
839.303
838.927
820.991
820.944
820.879
820.78
820.599
820.333
819.976
819.392
818.648
817.966
801.826
801.791
801.816
801.907
801.879
801.702
801.737
799.892
800.455
801.429
782.859
782.896
783.152
784.156
784.326
785.723
787.293
787.767
787.839
787.125
764.262
764.69
763.325
766.967
768.983
771.847
772.716
770.118
768.257
768.653
744.199
747.982
753.072
754.164
751.944
751.895
752.272
751.958
751.358
750.47
739.184
740.645
736.401
737.768
738.003
737.089
736.377
735.865
735.454
734.685
721.915
720.128
720.944
721.019
720.805
720.419
719.883
719.272
718.21
715.358
702.448
703.154
703.727
704.299
704.58
704.601
704.899
705.488
704.683
706.628
685.412
686.598
687.959
689.607
691.786
693.291
694.564
702.379
705.772
705.84
669.118
671.615
674.95
679.288
684.504
692.441
696.729
697.04
698.437
699.1
653.183
657.725
665.01
673.908
678.18
678.384
678.93
677.92
674.212
673.238
630.698
633.986
645.877
648.126
645.01
642.764
645.753
645.834
641.825
639.733
601.607
603.248
604.195
603.84
606.369
608.255
609.929
612.248
614.906
613.364
576.592
577.591
578.628
580.916
583.895
587.786
590.761
592.517
593.677
596.912
554.146
554.77
554.997
563.117
564.073
571.539
572.898
573.425
576.274
579.153
534.392
535.622
538.07
546.134
548.038
552.41
553.082
556.67
558.518
559.577
515.797
518.223
521.146
523.753
525.174
532.818
538.166
540.872
541.061
539.407
496.348
499.831
503.258
505.844
509.483
515.478
519.374
519.271
517.851
511.724
476.053
478.435
480.698
485.367
491.477
497.305
494.663
494.766
488.619
478.387
453.565
452.313
452.507
462.2
480.469
475.865
475.766
469.016
458.721
446.755
429.276
425.728
428.539
468.1
463.992
463.049
454.697
442.836
429.808
415.582
414.028
404.835
442.588
452.088
443.805
438.85
427.067
413.54
399.134
383.539
390.164
399.891
428.945
416.697
416
410.82
398.76
384.342
368.753
351.992
365.875
399.624
407.805
402.076
399.624
387.2
371.889
355.921
338.962
320.976
367.516
388.491
381.702
380.085
374.466
359.911
343.569
326.871
309.181
290.463
350.856
369.808
353.047
350.668
343.992
331.212
316.019
299.378
281.345
262.231
343.006
345.404
347.984
339.458
324.793
309.007
292.656
275.268
256.811
237.606
337.24
328.489
321.414
313.035
299.859
285.079
269.401
252.634
234.907
216.576
333.167
306.745
295.93
287.46
276.437
263.298
248.662
232.811
216.109
198.953
314.471
286.037
279.77
269.894
258.488
245.516
231.141
215.774
199.832
183.662
296.548
290.191
272.454
257.073
243.395
229.483
214.952
199.998
184.884
169.854
272.158
259.575
246.148
234.833
223.273
210.817
197.563
183.877
170.158
156.718
240.079
232.866
223.097
213.205
202.971
191.983
180.19
167.981
155.826
144.189
206.403
204.388
197.823
189.843
181.504
172.451
162.563
152.323
142.371
133.386
175.168
175.921
172.453
166.674
160.164
152.765
144.418
135.792
127.868
121.569
151.164
152.334
150.353
145.824
140.395
133.863
126.158
117.912
109.857
101.739
132.928
134.229
132.316
128.096
123.16
117.119
109.922
102.118
94.2095
85.9364
118.595
119.485
116.782
112.694
108.298
102.981
96.6436
89.6292
82.4501
76.0079
102.431
103.407
101.568
98.7374
95.4324
91.3376
86.497
81.381
77.1933
75.7173
90.7051
91.3466
89.7421
87.239
83.9662
80.2772
76.3859
73.2036
72.5159
73.8639
94.722
87.2285
80.8141
75.9354
71.2095
66.8266
62.6517
59.7618
59.1256
55.1028
76.0997
71.0713
65.2571
60.2896
55.4446
50.8915
46.1409
41.9358
37.3438
24.0734
48.7836
49.3948
46.7357
43.0084
39.192
35.3195
30.7143
25.9961
19.9398
8.05466
27.3853
29.6395
29.5668
27.1346
24.7249
21.9068
17.7708
13.0354
7.00124
-0.057006
4.68374
12.2142
16.5155
15.1861
13.4696
11.3179
7.62513
3.45632
-1.51347
-3.61615
13.4664
10.1379
9.91881
6.75719
4.27569
2.10689
-1.53188
-4.93799
-9.31304
-6.44655
1.53501
-0.661113
-0.637192
-2.09886
-4.12681
-6.06431
-9.60604
-11.4613
-17.578
-11.659
-6.4081
-4.69467
-7.77174
-8.34162
-10.6603
-12.1769
-13.4859
-12.0298
-15.3815
-22.3634
-21.4074
-0.575054
-13.5442
-13.8146
-17.3437
-18.6583
-16.1452
-12.3769
-1.33173
-38.1847
1792.03
1792.02
1792.01
1792.01
1792.02
1792.03
1792.06
1792.1
1792.15
1792.22
1792.3
1792.39
1792.5
1792.62
1792.77
1792.93
1793.1
1793.29
1793.5
1793.72
1793.96
1794.21
1794.47
1794.74
1795.02
1795.31
1795.59
1795.86
1796.14
1796.41
1796.66
1796.91
1797.13
1797.33
1797.52
1797.68
1797.81
1797.91
1797.98
1798.02
1772.49
1772.47
1772.45
1772.44
1772.44
1772.45
1772.47
1772.5
1772.54
1772.6
1772.67
1772.76
1772.86
1772.97
1773.11
1773.26
1773.43
1773.62
1773.83
1774.05
1774.29
1774.54
1774.81
1775.09
1775.37
1775.67
1775.96
1776.26
1776.55
1776.82
1777.09
1777.35
1777.58
1777.8
1777.99
1778.15
1778.29
1778.39
1778.47
1778.51
1752.91
1752.88
1752.85
1752.83
1752.82
1752.82
1752.83
1752.85
1752.88
1752.93
1752.99
1753.06
1753.16
1753.27
1753.4
1753.54
1753.71
1753.9
1754.11
1754.33
1754.58
1754.84
1755.12
1755.41
1755.72
1756.03
1756.34
1756.66
1756.97
1757.27
1757.56
1757.83
1758.09
1758.32
1758.53
1758.71
1758.85
1758.97
1759.05
1759.09
1733.27
1733.23
1733.2
1733.17
1733.15
1733.13
1733.13
1733.14
1733.16
1733.19
1733.24
1733.31
1733.39
1733.5
1733.62
1733.76
1733.93
1734.12
1734.33
1734.56
1734.82
1735.1
1735.4
1735.72
1736.05
1736.39
1736.75
1737.1
1737.44
1737.77
1738.09
1738.39
1738.67
1738.93
1739.16
1739.36
1739.53
1739.67
1739.76
1739.82
1713.59
1713.54
1713.49
1713.45
1713.42
1713.39
1713.38
1713.37
1713.38
1713.4
1713.44
1713.49
1713.57
1713.66
1713.78
1713.92
1714.08
1714.27
1714.49
1714.73
1715.01
1715.31
1715.64
1715.99
1716.37
1716.76
1717.16
1717.56
1717.95
1718.33
1718.69
1719.03
1719.35
1719.64
1719.9
1720.14
1720.34
1720.51
1720.64
1720.7
1693.86
1693.8
1693.74
1693.69
1693.64
1693.61
1693.58
1693.55
1693.55
1693.55
1693.58
1693.62
1693.68
1693.76
1693.87
1694
1694.16
1694.35
1694.57
1694.82
1695.11
1695.44
1695.81
1696.21
1696.64
1697.11
1697.58
1698.04
1698.5
1698.95
1699.37
1699.77
1700.12
1700.46
1700.78
1701.06
1701.38
1701.49
1701.6
1701.6
1674.1
1674.03
1673.96
1673.89
1673.83
1673.78
1673.73
1673.69
1673.67
1673.65
1673.66
1673.68
1673.73
1673.8
1673.88
1674.01
1674.16
1674.33
1674.55
1674.8
1675.11
1675.48
1675.89
1676.35
1676.86
1677.42
1677.98
1678.55
1679.11
1679.65
1680.16
1680.64
1681.12
1681.64
1682.19
1682.5
1682.8
1682.96
1682.99
1682.98
1654.31
1654.23
1654.15
1654.06
1653.99
1653.91
1653.84
1653.78
1653.73
1653.69
1653.67
1653.67
1653.69
1653.74
1653.8
1653.88
1654.04
1654.22
1654.4
1654.65
1654.99
1655.41
1655.87
1656.55
1657.29
1657.71
1658.4
1659.1
1659.79
1660.48
1661.15
1661.81
1662.61
1663.27
1663.84
1664.34
1664.62
1664.83
1664.88
1664.84
1634.5
1634.4
1634.3
1634.2
1634.1
1634
1633.91
1633.81
1633.72
1633.64
1633.58
1633.56
1633.56
1633.57
1633.59
1633.99
1633.84
1633.92
1634.08
1634.29
1634.67
1635.22
1636.03
1636.74
1637.32
1637.99
1638.81
1639.67
1640.54
1641.39
1642.24
1643.16
1644.17
1644.89
1645.29
1646.08
1646.31
1646.42
1646.39
1646.33
1614.66
1614.54
1614.42
1614.3
1614.17
1614.03
1613.9
1613.77
1613.64
1613.49
1613.36
1613.24
1613.31
1613.65
1613.81
1613.52
1613.61
1613.6
1613.64
1613.74
1614.64
1614.85
1615.41
1616.32
1617.19
1618.13
1619.15
1620.23
1621.33
1622.45
1623.72
1624.93
1625.93
1626.8
1627.47
1628.03
1628.29
1628.36
1628.26
1628.09
1594.78
1594.63
1594.49
1594.33
1594.16
1593.97
1593.81
1593.65
1593.5
1593.41
1593.81
1593.88
1593.34
1593.32
1593.38
1593.24
1593.28
1593.26
1593.14
1593.24
1593.93
1594.5
1594.78
1595.73
1596.85
1597.99
1599.24
1600.61
1602.03
1603.47
1604.93
1606.44
1607.94
1608.97
1609.82
1610.29
1610.39
1610.37
1610.1
1609.76
1574.83
1574.66
1574.47
1574.29
1574.12
1573.87
1573.91
1573.8
1573.68
1573.27
1573.59
1573.22
1572.96
1572.62
1572.81
1574.79
1573
1573.39
1572.86
1574.24
1575.05
1575.66
1576
1575.5
1576.43
1577.61
1579.07
1580.7
1582.4
1584.12
1585.87
1587.61
1589.31
1590.83
1591.63
1592.31
1592.44
1592.32
1591.86
1590.94
1554.79
1554.56
1554.32
1554.08
1554.04
1554.04
1553.85
1553.29
1553.26
1553.25
1553.01
1552.51
1553.26
1553.58
1553.92
1553.65
1554.34
1552.31
1553.04
1553.84
1554.17
1554.05
1554.47
1555.54
1555.26
1555.9
1557.67
1559.68
1561.59
1563.34
1565.03
1566.72
1568.47
1570.14
1571.87
1573.43
1573.96
1573.46
1572.51
1571.35
1534.64
1534.35
1534.19
1534.11
1533.84
1533.3
1533.21
1532.99
1532.52
1532.29
1532.77
1533.01
1533.14
1532.93
1533.11
1533.43
1532.27
1532.89
1532.18
1532.69
1533.1
1533.36
1533.6
1533.49
1533.28
1542.59
1541.18
1537.48
1538.98
1540.11
1540.92
1541.74
1543.08
1544.9
1547.82
1550.54
1552.66
1553.69
1552.94
1550.72
1514.39
1514.04
1513.82
1513.23
1513.29
1513.05
1512.54
1511.97
1513.04
1513.32
1513.03
1511.49
1511.49
1511.32
1511.26
1510.93
1511.35
1511.65
1510.75
1511.14
1511.6
1512.12
1512.63
1513.29
1514.41
1518.29
1520.32
1515.19
1515.05
1515.03
1514.19
1513.02
1513.34
1515.57
1518.79
1522.63
1526.59
1529.69
1530.83
1529.05
1494.19
1493.76
1492.98
1492.75
1491.94
1491.72
1492.17
1491.18
1490.82
1490.58
1489.99
1489.75
1489.63
1489.47
1489.3
1489.1
1488.96
1489
1489.13
1489.5
1490.1
1490.86
1491.71
1492.69
1494.05
1496.23
1497.51
1496.79
1492.39
1491.81
1489.84
1484.91
1484.27
1487.65
1489.21
1493.76
1498.09
1501.97
1504.05
1503.9
1473.6
1473.06
1472.27
1471.31
1473.25
1472.52
1470.27
1470.03
1469.53
1469.03
1468.59
1468.25
1467.96
1467.71
1467.48
1467.27
1467.12
1466.99
1466.75
1467
1467.93
1469.1
1470.24
1471.38
1472.73
1474.11
1476.31
1476.72
1474.1
1470.69
1470.81
1471.63
1487.26
1468.05
1468.08
1470.27
1472.55
1474.78
1477.46
1478.13
1453.25
1452.52
1452.79
1452.64
1452.33
1450.55
1449.56
1448.89
1448.26
1447.67
1447.14
1446.68
1446.28
1445.92
1445.58
1445.28
1445.01
1444.67
1446.37
1451.47
1445.81
1447.33
1448.86
1450.3
1451.94
1453.93
1456.03
1456.99
1454.77
1454.61
1462.47
1465.73
1464.96
1455.46
1451.92
1451.55
1451.43
1452.36
1453.06
1453.7
1432.82
1432.48
1432.23
1431.84
1430.74
1429.71
1428.72
1427.84
1427.05
1426.33
1425.69
1425.11
1424.62
1424.2
1423.87
1423.6
1423.45
1423.78
1426.71
1431.88
1429.66
1427.11
1427.66
1428.92
1430.62
1432.05
1434.34
1437.07
1438.67
1440.67
1450.03
1444.54
1440.27
1435.91
1433.19
1431.89
1431.29
1431.26
1431.21
1431.17
1412.38
1412.53
1411.81
1411.04
1410.04
1408.88
1407.78
1406.77
1405.83
1404.96
1404.17
1403.45
1402.83
1402.31
1401.92
1401.66
1401.56
1402.02
1404.51
1408.34
1409.5
1408.53
1405.5
1406.61
1407.93
1408.37
1410.09
1412.13
1418.86
1426.76
1421.66
1418.65
1416.41
1414.42
1413.06
1412.04
1411.23
1410.9
1410.37
1409.97
1392.85
1392.49
1391.08
1390.43
1389.26
1388.07
1386.9
1385.76
1384.64
1383.58
1382.58
1381.65
1380.81
1380.07
1379.47
1379.01
1378.66
1378.62
1379.67
1382.26
1389.49
1389.13
1381.73
1383.45
1384.8
1386.78
1389.91
1407.29
1405.5
1399.89
1398.82
1396.02
1394.61
1393.62
1392.7
1391.86
1391.11
1390.43
1389.78
1389.23
1372.89
1372.14
1371.39
1370.24
1368.92
1367.58
1366.23
1364.88
1363.58
1362.24
1360.98
1359.75
1358.57
1357.49
1356.55
1355.71
1355.04
1354.57
1354.57
1355.44
1357.82
1358.21
1358.53
1360.85
1365.29
1375.88
1383.69
1382.48
1380.1
1377.37
1374.72
1373.84
1373.2
1372.54
1371.89
1371.28
1370.69
1370.07
1369.41
1368.8
1353.49
1352.54
1351.64
1350.28
1348.83
1347.34
1345.81
1344.24
1342.66
1341.07
1339.48
1337.84
1336.27
1334.73
1333.53
1332.54
1331.84
1331.1
1330.23
1330.44
1329.64
1324.65
1323.21
1329.32
1345.66
1357.33
1347.81
1350
1350.12
1350.27
1350.68
1350.94
1350.97
1350.85
1350.64
1350.36
1350
1349.48
1348.81
1348.47
1334.57
1333.46
1332.01
1330.62
1329.1
1327.5
1325.89
1324.29
1322.43
1320.45
1318.3
1316.22
1314.39
1312.3
1310.68
1309.55
1307.12
1301.4
1294.78
1292.49
1288.4
1281.55
1284.63
1308.19
1318.18
1315.26
1319.83
1321.89
1324.27
1326.09
1327.39
1328.29
1328.88
1329.25
1329.44
1329.48
1329.34
1328.94
1328.29
1328.09
1316.07
1314.32
1312.67
1311.3
1309.78
1308.12
1306.33
1304.6
1302.47
1299.97
1297.6
1294.6
1291.91
1289.24
1286.6
1281.54
1270.77
1261.14
1258.51
1257.46
1257.68
1261.42
1269.65
1279.29
1285.21
1296.24
1299.57
1301.03
1302.67
1304.26
1305.62
1306.71
1307.56
1308.2
1308.66
1308.92
1308.95
1308.63
1307.99
1307.87
1296.94
1294.45
1293.55
1292.37
1290.95
1289.3
1287.41
1285.28
1282.84
1280.09
1276.96
1273.32
1269.28
1264.56
1257.86
1250.83
1246.95
1247.75
1248.14
1248.42
1249.32
1251.06
1254.7
1258.88
1269.21
1279.04
1280.99
1281.5
1282.54
1283.82
1285.04
1286.12
1287.04
1287.8
1288.4
1288.8
1288.91
1288.63
1287.99
1287.98
1277.9
1276.85
1275.75
1274.54
1273.12
1271.46
1269.54
1267.33
1264.77
1261.79
1258.22
1253.88
1248.86
1244.07
1243.22
1242.76
1242.76
1242.95
1243.51
1244.21
1245.09
1246.18
1247.6
1250.44
1256.4
1260.03
1261.06
1261.91
1263
1264.15
1265.24
1266.26
1267.19
1268.01
1268.68
1269.13
1269.26
1268.97
1268.26
1268.17
1261.3
1260.3
1259.1
1257.78
1256.33
1254.71
1252.86
1250.75
1248.31
1245.39
1241.62
1236.83
1233.05
1235.52
1240.3
1239.9
1240.21
1241.1
1242.11
1242.89
1243.13
1243.26
1241.86
1238.94
1239.74
1241.2
1242.29
1243.26
1244.22
1245.17
1246.12
1247.06
1247.96
1248.77
1249.45
1249.88
1249.97
1249.62
1248.89
1248.11
1245.18
1244.64
1243.34
1242.14
1240.59
1239.03
1237.36
1235.54
1233.49
1230.96
1227.41
1223.41
1223.75
1231.73
1235.64
1236.63
1237.41
1238.68
1239.42
1239.62
1239.44
1232.56
1222.6
1220.74
1222.02
1223.43
1224.45
1225.26
1226.02
1226.8
1227.61
1228.45
1229.29
1230.09
1230.74
1231.13
1231.09
1230.57
1229.83
1228.97
1234.31
1234.65
1230.31
1225.93
1224.78
1223.66
1222.52
1221.33
1219.96
1218.22
1215.71
1213.8
1218.28
1226.69
1228.36
1229.81
1231.46
1232.52
1232.72
1228.64
1218.87
1209.85
1205.76
1206.14
1207.04
1207.63
1208.03
1208.37
1208.76
1209.23
1209.8
1210.47
1211.21
1211.98
1212.67
1213.16
1213.24
1212.88
1212.99
1211.98
1222.92
1222.45
1216.75
1210.71
1209.63
1208.94
1208.3
1207.69
1207.25
1206.67
1205.37
1205.49
1211
1216.11
1216.46
1217.59
1220.98
1225.92
1225.35
1215.55
1205.29
1200.22
1197.6
1195.66
1194.58
1193.96
1193.24
1192.86
1192.59
1192.53
1192.66
1192.99
1193.5
1194.17
1194.94
1195.67
1196.08
1196.05
1195.76
1194.53
1202.42
1199.51
1196.31
1194.6
1194.26
1194.11
1194.06
1194.2
1194.58
1194.78
1194.89
1196.98
1202.04
1204.5
1204.39
1204.91
1206.42
1211.51
1216.07
1212.05
1202.19
1194.91
1189.53
1185.71
1185.35
1183.73
1179.8
1178.39
1177.28
1176.48
1175.98
1175.77
1175.88
1176.34
1177.2
1178.28
1179.14
1179.33
1178.93
1177.49
1181.46
1180.51
1179.55
1179.03
1178.93
1179.05
1179.42
1180.06
1180.95
1181.75
1182.84
1186.32
1191.51
1194.34
1195.17
1195.72
1196.43
1199.07
1201.48
1197.5
1189.91
1183.15
1177.91
1174.2
1172.54
1169.79
1166.63
1164.34
1162.46
1160.85
1159.58
1158.69
1158.11
1158.33
1159.44
1161.53
1163.28
1162.99
1162.51
1161.15
1162.75
1162.51
1162.35
1162.37
1162.63
1163.15
1163.94
1165
1166.28
1167.53
1169.33
1174.24
1181.12
1184.67
1186.96
1188.36
1187.66
1185.95
1182.77
1178.37
1173.22
1168.31
1164.38
1161.37
1158.56
1155.84
1153.04
1150.38
1147.91
1145.51
1143.14
1140.88
1139.15
1136.67
1135.87
1139.41
1145.97
1147.43
1145.66
1145.43
1144.06
1144.18
1144.44
1144.87
1145.52
1146.43
1147.61
1149.1
1150.82
1152.69
1155.72
1162.69
1170.47
1173.73
1176.84
1178.42
1174.85
1167.65
1163.16
1159.98
1156.46
1152.82
1150.2
1147.54
1144.85
1142.35
1139.76
1137.12
1134.37
1131.39
1127.99
1123.88
1119.05
1117.63
1122.48
1121.51
1125.2
1129.88
1131.22
1130.42
1125.02
1125.36
1125.92
1126.65
1127.59
1128.79
1130.25
1131.97
1133.92
1136.12
1139.58
1145.55
1149.75
1158.29
1162.65
1161.83
1154.66
1148.07
1144.99
1142.55
1139.96
1137.39
1135.73
1133.35
1131.24
1129.24
1126.92
1124.97
1122.83
1120.47
1117.72
1114.22
1109.84
1112.02
1118.8
1118.76
1115.98
1116.76
1118.52
1119.81
1105.09
1105.94
1106.81
1107.63
1108.76
1110.17
1111.84
1113.77
1115.99
1118.79
1123.22
1129.03
1132.29
1141.1
1139.81
1137.57
1132.21
1128.7
1126.52
1124.72
1123.06
1121.49
1120.37
1118.7
1117.85
1115.45
1114.02
1113.28
1112.37
1111.29
1110.05
1108.44
1106.2
1108.5
1109.98
1109.33
1108.67
1108.61
1108.69
1112.49
1091.89
1089.03
1088.29
1088.64
1089.42
1090.73
1092.41
1094.34
1096.54
1099.39
1103.62
1107.92
1112.57
1122.87
1106.44
1107.94
1107.34
1106.45
1106.55
1105.6
1105.02
1104.38
1103.58
1102.14
1102.77
1100.91
1101.34
1101.82
1102.15
1102.34
1102.5
1102.64
1102.56
1104.24
1104.53
1103.93
1103.3
1103.24
1101.36
1107.88
1074.63
1073.34
1076.08
1075.13
1072.88
1071.7
1072
1072.71
1073.19
1073.05
1071.47
1066.43
1091.37
1093.32
1090.97
1091.11
1089.72
1089.55
1087.15
1087.28
1087.15
1086.95
1086.7
1086.23
1086.04
1086.95
1088.97
1090.71
1092.04
1093.31
1094.63
1096.1
1097.72
1099.02
1098.85
1099.1
1098.71
1098.36
1096.34
1105.39
1057.67
1055.67
1057.14
1057.97
1058.05
1057.14
1054.05
1053.44
1053.32
1052.66
1051.32
1049.1
1069.18
1063.35
1065.4
1071.8
1068.68
1072.36
1068.18
1069.12
1069.63
1070.04
1070.33
1069.57
1070.53
1072.98
1076.26
1080.05
1082.17
1084.08
1086.23
1088.63
1091.39
1093.8
1094.01
1094.32
1094.05
1093.39
1091.6
1102.46
1036.21
1036.74
1037.5
1039.01
1040.74
1041.14
1037.8
1035.58
1034.48
1032.54
1029.19
1030.57
1043.39
1030.85
1041.91
1047.7
1050.33
1052.44
1049.94
1051.56
1052.73
1054.7
1057.34
1058.8
1059.82
1082.66
1069.61
1069.88
1072.65
1074.84
1077.39
1080.29
1083.62
1087.19
1088.98
1089.55
1089.39
1088.6
1086.6
1098.06
1015.83
1016.14
1016.46
1016.91
1018.28
1018.51
1016.95
1015.8
1012.45
1005.49
990.891
1012.22
1012.22
1017.16
1031.74
1036.47
1035.24
1035.24
1035.29
1034.51
1034.36
1038.98
1047.11
1053.5
1054.12
1065.48
1069.71
1056.78
1061.8
1064.94
1068.02
1071.42
1075.27
1079.88
1083.84
1085.02
1085.14
1084.29
1081.44
1091.98
996.015
996.029
996.162
997.224
999.781
1002.89
1004.15
1002.47
1000.27
995.133
988.938
994.589
994.002
999.95
1017.82
1027.44
1029.45
1029.54
1027.23
1022.83
1021.49
1037.29
1037.29
1051.19
1050.88
1047.84
1061.38
1048.52
1051.11
1054.77
1058.29
1062.24
1066.79
1072.64
1078.75
1081.27
1081.89
1080.3
1076.1
1082.97
975.855
974.75
972.184
970.736
975.042
984.363
993.47
989.933
987.038
989.193
990.286
991.069
991.362
993.561
999.522
1008.37
1013.9
1025.67
1029.24
1032.76
1045.35
1049.5
1039.2
1044.57
1053.04
1038.51
1046.43
1047.26
1038.39
1042.5
1047.03
1052.08
1057.76
1064.94
1073.56
1078.33
1081.36
1071.29
1067.72
1070.74
957.363
956.416
962.146
976.003
977.259
977.413
978.993
982.352
985.974
988.389
989.864
991.012
992.309
994.479
998.227
1002.89
1009.62
1017.19
1023.51
1027.25
1028.34
1027.53
1017.65
1032.6
1034.22
1034.29
1037.23
1036.8
1035.4
1035.16
1036.46
1040.61
1046.48
1053.55
1062.28
1069.63
1084.86
1055.88
1056.4
1058.46
943.328
947.057
960.25
974.882
976.221
976.791
977.859
979.26
981.028
982.675
984.04
984.673
984.102
981.937
979.764
980.171
981.985
986.966
991.031
992.503
995.773
996.079
1000.24
1009.35
1016.65
1022.06
1028.09
1029.05
1029.31
1028.94
1027.64
1028.56
1032.72
1038.45
1044.72
1050.62
1090.1
1048.14
1047.66
1049.31
925.802
929.181
936.803
947.545
955.387
963.068
966.492
968.233
967.505
968.498
966.683
962.055
957.946
955.26
953.905
953.746
955.468
959.119
963.564
968.295
973.898
980.151
986.381
993.219
1000.55
1006.37
1012.96
1019.61
1023.32
1024.47
1022.71
1020.06
1020.6
1024.66
1029.49
1034.08
1061.25
1038.18
1037.93
1041.59
905.38
907.523
910.833
915.695
921.275
926.606
929.594
930.144
929.214
926.81
923.552
921.422
921.324
922.755
925.461
929.247
933.942
939.477
945.656
952.299
959.26
966.039
973.388
979.941
984.789
990.877
996.495
1003.32
1010.55
1018.61
1021.84
1015.61
1012.02
1013.13
1017.56
1021.97
1026.35
1028.76
1032.64
1038.55
883.553
884.764
886.22
887.769
889.201
890.068
890.46
890.267
889.314
887.297
886.719
887.771
890.15
893.96
898.687
904.631
911.519
919.005
926.804
934.701
942.524
950.058
957.683
965.205
972.03
977.666
982.732
988.975
995.553
1003.23
1013.61
1020.28
1006.62
1003.86
1006.22
1011.45
1017.05
1022.65
1029.76
1037.12
860.942
861.148
861.368
861.443
861.163
860.754
859.768
856.934
855.328
854.471
853.965
853.924
855.431
860.152
866.869
875.649
885.563
895.797
905.893
915.632
924.865
933.536
941.794
949.659
956.636
963.976
970.482
975.214
981.107
986.404
995.165
1007.54
1014.92
997.553
997.427
1002.25
1009.47
1017.77
1027.33
1036.28
838.389
837.65
836.855
835.534
833.546
831.611
829.611
827.648
824.74
821.062
818.083
816.195
815.993
819.991
830.082
843.798
858.206
872.045
884.952
896.851
907.704
917.542
926.456
934.555
942.06
949.227
955.751
962.764
968.167
972.796
978.777
988.043
1000.97
1006.53
991.232
994.819
1002.61
1013.08
1025.16
1036.35
816.611
815.381
814.614
813.639
812.086
809.908
806.379
800.51
796.023
789.084
780.389
771.752
765.013
768.03
787.633
811.844
833.064
850.783
866.13
879.746
891.796
902.414
911.81
920.186
927.718
934.583
941.03
947.262
953.314
958.989
963.775
969.958
979.521
992.987
997.32
990.151
996.815
1008.12
1022.41
1035.43
801.301
801.355
799.927
794.466
790.839
787.942
784.382
778.132
770.557
762.117
755.453
754.631
756.835
757.177
767.499
791.133
819.705
839.286
853.487
866.38
878.064
888.326
897.358
905.404
912.651
919.253
925.352
931.091
936.674
942.163
947.376
952.315
958.512
967.777
984.822
988.921
992.187
1001.98
1017.67
1032.09
783.598
780.857
779.517
777.621
773.391
768.567
764.644
760.662
757.153
756.728
758.186
758.812
759.966
761.613
765.51
782.381
819.044
838.424
846.877
855.917
865.375
874.041
881.831
888.923
895.434
901.468
907.132
912.532
917.789
923.009
928.193
933.304
938.701
946.493
957.661
977.651
985.755
993.096
1008.67
1024.76
766.883
764.405
761.17
757.48
754.242
753.145
755.347
756.215
757.28
758.102
758.518
758.809
759.24
759.951
762.177
783.559
821.606
834.71
837.524
842.887
849.766
856.471
862.754
868.688
874.3
879.632
884.758
889.767
894.757
899.832
905.093
910.632
916.573
923.693
935.181
950.572
971.137
978.888
994.939
1012.6
748.84
745.903
744.45
750.626
756.471
761.883
759.079
758.151
757.68
757.659
757.859
758.112
758.545
760.345
772.86
801.946
817.827
818.529
819.262
823.039
827.93
832.933
837.894
842.772
847.527
852.163
856.73
861.302
865.965
870.816
875.972
881.567
887.723
894.692
904.257
918.936
946.68
959.042
974.869
994.493
732.4
728.756
732.273
749.725
758.232
758.638
757.967
757.313
757.1
757.067
757.163
757.535
758.955
766.213
781.42
791.564
791.472
790.336
791.691
794.613
798.137
801.932
805.871
809.86
813.846
817.829
821.853
825.992
830.341
835.019
840.183
846.018
852.746
860.705
870.466
886.959
910.023
932.94
943.401
966.438
711.658
715.503
721.554
723.903
734.906
748.417
748.963
753.582
753.465
752.66
753.63
752.714
751.302
757.314
759.357
757.238
755.349
755.216
756.362
758.25
760.636
763.375
766.344
769.445
772.625
775.887
779.283
782.9
786.856
791.298
796.384
802.293
809.271
817.682
827.553
842.668
864.762
894.636
906.762
930.86
708.767
709.648
711.92
715.893
732.634
734.647
726.706
717.168
727.85
721.802
716.648
718.671
718.275
716.602
715.434
714.428
713.765
713.586
713.874
714.631
715.847
717.465
719.386
721.501
723.741
726.114
728.695
731.618
735.059
739.203
744.199
750.199
757.383
765.929
776.08
789.74
810.542
846.202
860.795
885.291
706.068
706.713
708.959
715.622
724.607
714.16
692.156
686.038
672.445
674.236
676.546
676.762
676.562
675.367
673.415
671.238
669.096
667.191
665.681
664.683
664.295
664.522
665.247
666.274
667.434
668.743
670.318
672.252
674.906
678.667
683.696
689.997
697.609
706.617
717.104
730.141
749.719
787.711
803.944
828.464
699.558
696.68
691.505
690.409
693.604
683.382
680.322
672.127
663.554
660.689
655.483
649.024
642.767
636.832
631.108
625.682
620.698
616.227
612.217
608.807
606.509
605.683
605.909
606.58
606.859
606.859
607.123
607.024
607.629
610.519
615.783
622.9
631.489
641.408
652.593
665.789
684.597
721.638
738.357
761.983
667.649
663.56
663.891
661.044
660.928
661.661
659.155
653.258
644.515
635.177
623.926
612.688
602.366
592.776
583.719
575.356
567.829
560.818
553.393
546.182
543.25
544.846
548.748
551.766
551.269
548.318
542.997
537.944
535.126
536.722
542.746
551.678
562.196
573.752
586.127
599.832
617.831
653.383
668.162
689.832
640.779
641.413
635.507
642.257
643.289
641.173
636.14
627.015
613.736
598.904
584.389
570.422
556.996
544.137
531.923
520.373
509.369
497.502
486.619
482.562
475.94
480.263
482.154
473.16
449.158
436.626
431.6
441.039
446.308
452.482
464.292
478.862
493.565
508.004
522.235
536.772
553.842
586.192
597.744
616.658
613.311
620.07
624.77
625.775
622.743
618.519
606.106
589.55
573.309
556.998
540.489
524.062
507.966
492.31
476.806
460.853
444.811
432.282
432.944
415.875
408.763
393.48
370.915
354.7
343.629
335.182
336.413
352.162
349.448
361.67
387.452
412.089
432.455