/*--------------------------------*- C++ -*----------------------------------*\
  =========                 |
  \\      /  F ield         | OpenFOAM: The Open Source CFD Toolbox
   \\    /   O peration     | Website:  https://openfoam.org
    \\  /    A nd           | Version:  8
     \\/     M anipulation  |
\*---------------------------------------------------------------------------*/
FoamFile
{
    version     2.0;
    format      ascii;
    class       volScalarField;
    location    "8.4";
    object      alpha.water;
}
// * * * * * * * * * * * * * * * * * * * * * * * * * * * * * * * * * * * * * //

dimensions      [0 0 0 0 0 0 0];

internalField   nonuniform List<scalar> 
9150
(
1
1
1
1
1
1
1
1
1
1
1
1
1
1
1
1
1
1
1
1
1
1
1
1
1
1
1
1
1
1
1
1
1
1
1
1
1
1
1
1
1
1
1
1
1
1
1
1
1
1
1
1
1
1
1
1
1
1
1
1
1
1
1
1
1
1
1
1
1
1
1
1
1
1
1
1
1
1
1
1
1
1
1
1
1
1
1
1
1
1
1
1
1
1
1
1
1
1
1
1
1
1
1
1
1
1
1
1
1
1
1
1
1
1
1
1
1
1
1
1
1
1
1
1
1
1
1
1
1
1
1
1
1
1
1
1
1
1
1
1
1
1
1
1
1
1
1
1
1
1
0.996283
0.995176
0.991081
0.991081
0.998512
0.998718
0.998719
0.998719
0.998665
0.997889
0.996203
0.993777
0.991081
0.991081
0.991081
0.995086
0.998719
0.998719
0.998719
0.998001
0.996872
0.996868
0.993305
0.991565
0.991083
0.991083
0.991308
0.997023
0.998719
0.998719
0.996827
0.996483
0.99317
0.994325
0.996418
0.993215
0.991354
0.998719
0.998719
0.998719
0.996762
0.997668
0.99317
0.995327
0.99872
0.996657
0.992276
0.998719
0.998719
0.998719
0.998542
0.998721
0.993359
0.99765
0.998721
0.996571
0.996636
0.998719
0.998719
0.998719
0.998721
0.998721
0.998626
0.998721
0.998721
0.995539
0.99664
0.998719
0.998719
0.998695
0.998721
0.998721
0.998721
0.998721
0.998721
0.995534
0.995531
0.998719
0.998719
0.998679
0.998721
0.996015
0.997653
0.998722
0.998722
0.996732
0.995525
0.996864
0.998719
0.998714
0.997982
0.99401
0.994049
0.998523
0.998722
0.99872
0.995525
0.995534
0.998428
0.998652
0.994125
0.99401
0.994578
0.998701
0.998722
0.998722
0.998382
0.996499
0.998722
0.998722
0.994015
0.994535
0.998389
0.998722
0.998722
0.998722
0.998722
0.998722
0.998722
0.998722
0.995712
0.99856
0.998722
0.998722
0.998722
0.998722
0.998722
0.998722
0.998722
0.998722
0.9987
0.998723
0.998723
0.998723
0.998722
0.998722
0.998722
0.998722
0.998722
0.998722
0.998723
0.998723
0.998723
0.998723
0.998663
0.998722
0.998722
0.998183
0.998722
0.998722
0.998521
0.992925
0.984694
0.98345
0.976049
0.987723
0.994356
0.998115
0.998722
0.998722
0.987899
0.985749
0.981201
0.975999
0.975999
0.976301
0.984244
0.997467
0.997299
0.998722
0.99503
0.997069
0.996151
0.99235
0.989651
0.967809
0.967865
0.968737
0.968909
0.969403
0.998203
0.998193
0.990814
0.968966
0.967722
0.967809
0.967809
0.977059
0.98791
0.986164
0.99731
0.973604
0.96763
0.967635
0.967638
0.974399
0.998128
0.998034
0.99824
0.998241
0.997165
0.971595
0.96763
0.96763
0.974299
0.99824
0.99824
0.99824
0.998241
0.99824
0.998188
0.995023
0.97026
0.967737
0.979198
0.99824
0.99824
0.99824
0.99824
0.998241
0.998194
0.998228
0.995052
0.983857
0.989515
0.99824
0.99824
0.99824
0.998241
0.998241
0.963376
0.998229
0.998238
0.99824
0.99824
0.99824
0.99824
0.998241
0.998241
0.99824
0.939847
0.979047
0.998239
0.998239
0.99824
0.99824
0.99824
0.995496
0.932807
0.890873
0.939847
0.942336
0.99791
0.998239
0.998239
0.998237
0.997957
0.932521
0.885162
0.885103
0.952281
0.941414
0.970897
0.998238
0.998238
0.998237
0.998226
0.988066
0.903335
0.885162
0.993129
0.970141
0.962332
0.9978
0.998237
0.998237
0.998233
0.992193
0.964866
0.966639
0.997365
0.997634
0.982634
0.998122
0.998237
0.998236
0.998235
0.997016
0.995801
0.998739
0.997541
0.998099
0.998154
0.998173
0.998236
0.958786
0.996416
0.998723
0.99874
0.99874
0.994986
0.984117
0.976796
0.982099
0.926419
0.883368
0.899898
0.965718
0.99874
0.998741
0.941548
0.88848
0.883434
0.885639
0.883314
0.883307
0.883368
0.920146
0.995956
0.99874
0.883438
0.883284
0.883282
0.883278
0.883273
0.883314
0.883694
0.961831
0.997963
0.99874
0.906073
0.883283
0.883278
0.883275
0.883278
0.893795
0.9568
0.997637
0.998738
0.998738
0.984217
0.914961
0.890018
0.907033
0.933774
0.971598
0.996871
0.998738
0.998738
0.998738
0.987218
0.982452
0.982482
0.987194
0.991007
0.991485
0.992242
0.992349
0.998738
0.998738
0.959876
0.960577
0.970813
0.991123
0.991197
0.991373
0.987424
0.985823
0.987314
0.997968
0.976127
0.947392
0.947299
0.947218
0.959064
0.987047
0.987066
0.985823
0.985823
0.99134
0.993552
0.990228
0.952924
0.945377
0.945106
0.944835
0.955887
0.990971
0.994318
0.994712
0.993235
0.993118
0.992826
0.969232
0.944835
0.944835
0.944835
0.982538
0.997334
0.997413
0.94295
0.993445
0.993709
0.994135
0.988977
0.952827
0.965723
0.995512
0.997345
0.997381
0.756228
0.88982
0.994577
0.996133
0.996346
0.996553
0.997196
0.997328
0.997339
0.99735
0.756161
0.7562
0.901809
0.995562
0.953158
0.981799
0.997303
0.997331
0.997333
0.99734
0.756161
0.756161
0.764341
0.957319
0.946709
0.856084
0.915797
0.994717
0.997332
0.997333
0.812004
0.772937
0.773093
0.80893
0.847391
0.848171
0.849362
0.85602
0.893762
0.966214
0.986567
0.981898
0.96948
0.975802
0.950161
0.87003
0.851487
0.85354
0.854681
0.936647
0.997168
0.997167
0.997167
0.997132
0.996927
0.984585
0.932233
0.918085
0.964846
0.995849
0.997167
0.997169
0.995702
0.996584
0.996666
0.996644
0.996537
0.995842
0.971219
0.974104
0.995163
0.997143
0.906104
0.920723
0.908578
0.865984
0.826686
0.764624
0.718169
0.730226
0.872331
0.966846
0.827795
0.706785
0.706773
0.706745
0.706825
0.708375
0.710248
0.710847
0.740337
0.811508
0.921697
0.706773
0.706745
0.706723
0.706726
0.706793
0.813338
0.917762
0.740337
0.768989
0.990304
0.99375
0.862932
0.706726
0.706724
0.706726
0.706793
0.886619
0.740337
0.854907
0.996063
0.99708
0.997085
0.917794
0.815011
0.717327
0.709158
0.710083
0.960385
0.972027
0.996404
0.997085
0.997086
0.997086
0.990855
0.971384
0.894925
0.864785
0.997004
0.997082
0.997084
0.997085
0.997085
0.997086
0.997082
0.997012
0.996595
0.994926
0.997082
0.997085
0.997085
0.997085
0.997085
0.997085
0.9961
0.985896
0.994174
0.994541
0.977522
0.997077
0.997072
0.997085
0.997085
0.997085
0.989662
0.974116
0.974006
0.973953
0.959304
0.958994
0.959028
0.979723
0.997085
0.997085
0.997035
0.996985
0.97521
0.973945
0.995297
0.995297
0.974127
0.98375
0.996966
0.997031
0.996985
0.996982
0.996919
0.996842
0.995297
0.995297
0.995297
0.995247
0.972944
0.908101
0.978465
0.996979
0.996893
0.996803
0.983421
0.995297
0.995259
0.995219
0.966841
0.881848
0.881259
0.977863
0.996704
0.97039
0.995215
0.995255
0.995225
0.995222
0.99522
0.994943
0.892283
0.714296
0.697815
0.718773
0.995071
0.995223
0.995222
0.995221
0.995215
0.967059
0.722868
0.69442
0.69413
0.69411
0.954561
0.986919
0.994951
0.96632
0.756336
0.695931
0.69442
0.69413
0.694097
0.69413
0.768128
0.768662
0.769419
0.867189
0.792871
0.696561
0.694439
0.694156
0.69413
0.783773
0.965944
0.993644
0.995365
0.995614
0.995615
0.995614
0.994204
0.991544
0.987081
0.987258
0.995787
0.995619
0.995554
0.995604
0.995614
0.995615
0.995594
0.993869
0.986797
0.98139
0.995621
0.995354
0.995363
0.995554
0.995604
0.995594
0.936659
0.847362
0.699742
0.593933
0.90797
0.849466
0.893245
0.985171
0.995427
0.994974
0.791192
0.523216
0.487528
0.487137
0.678045
0.678104
0.678534
0.806442
0.962194
0.987211
0.971073
0.869259
0.623965
0.487528
0.678014
0.678045
0.678104
0.677727
0.724937
0.967264
0.986175
0.987901
0.989694
0.921529
0.678045
0.678104
0.67825
0.678404
0.677919
0.693453
0.954251
0.989694
0.989694
0.989694
0.678192
0.678198
0.678324
0.678253
0.678054
0.678987
0.686636
0.938555
0.989694
0.98969
0.757216
0.703381
0.70439
0.68207
0.679052
0.681066
0.683909
0.745675
0.989632
0.989684
0.972904
0.968848
0.967542
0.930645
0.833232
0.707642
0.68812
0.694028
0.912252
0.989625
0.906015
0.938209
0.971563
0.972633
0.972653
0.972633
0.803058
0.701948
0.855026
0.990004
0.772567
0.769523
0.864336
0.96542
0.972653
0.972653
0.968732
0.867022
0.821615
0.918542
0.874711
0.768957
0.768974
0.864054
0.972653
0.926443
0.792966
0.909517
0.830396
0.845352
0.997501
0.791333
0.768957
0.862062
0.972157
0.734821
0.637476
0.822532
0.920216
0.830409
0.957493
0.813285
0.769007
0.948887
0.970475
0.648866
0.637355
0.641357
0.900918
0.839026
0.785543
0.776444
0.876992
0.961052
0.899481
0.637036
0.637193
0.637355
0.783471
0.905783
0.767194
0.804641
0.978088
0.963149
0.680105
0.637036
0.637032
0.637206
0.749776
0.945887
0.773959
0.97541
0.979654
0.899113
0.637036
0.637031
0.637036
0.637279
0.759037
0.960325
0.940331
0.986784
0.981053
0.86278
0.637055
0.637036
0.637055
0.637264
0.701723
0.960923
0.99546
0.991817
0.978305
0.882294
0.637298
0.637055
0.637264
0.637826
0.704003
0.960875
0.992186
0.980895
0.975281
0.962966
0.703866
0.637298
0.670171
0.889598
0.931071
0.960875
0.740662
0.82157
0.980511
0.984601
0.929808
0.788829
0.96866
0.969936
0.970719
0.953233
0.264061
0.507587
0.984601
0.987349
0.993395
0.889801
0.763215
0.970719
0.970719
0.969823
0.119311
0.0905552
0.578626
0.993395
0.99697
0.923174
0.716808
0.714593
0.953815
0.969607
0.0277637
0.0557455
0.0655034
0.874915
0.997227
0.997602
0.852304
0.707902
0.706998
0.837154
7.33923e-05
0.0155085
0.00860589
0.615182
0.997845
0.998293
0.91969
0.884101
0.821336
0.889802
0.000306505
3.57334e-05
0.000553408
0.545356
0.998134
0.998661
0.911906
0.79166
0.859559
0.868076
1.30452e-05
1.33766e-05
3.55236e-05
0.754394
0.998864
0.99897
0.908978
0.35292
0.647409
0.627263
1.30391e-05
1.30391e-05
0.0761835
0.880168
0.999306
0.999203
0.867943
0.184906
0.427605
0.108602
1.97107e-05
1.33766e-05
0.27585
0.968194
0.999584
0.999453
0.88584
0.150702
0.0746604
0.00259514
1.18696e-05
1.40533e-05
0.454512
0.991463
0.999868
0.999699
0.981513
0.360713
0.000252566
6.57717e-05
1.02473e-05
1.0796e-05
0.709019
0.99988
0.999897
0.999958
0.999099
0.568209
0.000468938
0.000394533
2.25996e-06
0.101426
0.870854
0.999929
0.999999
0.999991
0.999959
0.87326
0.0544079
3.45331e-05
4.84635e-07
0.585712
0.999824
0.999997
1
1
0.999989
0.996602
0.517185
4.05566e-07
0.297208
0.959245
1
1
1
1
1
1
0.953416
0.274316
0.99789
0.998325
0.998324
0.997197
0.996112
0.998699
0.998699
0.998699
0.998699
0.997837
0.982712
0.981023
0.981023
0.990108
0.998683
0.998683
0.998683
0.998683
0.998683
0.998684
0.998685
0.998685
0.998685
0.998685
0.998685
0.99525
0.989333
0.989333
0.989333
0.995349
0.997657
0.998458
0.997665
0.997667
0.997543
0.997541
0.997383
0.997379
0.997156
0.997159
0.998273
0.997982
0.995761
0.995766
0.995916
0.998699
0.998699
0.998624
0.998435
0.998579
0.998576
0.998457
0.992911
0.973292
0.973408
0.976077
0.995922
0.998683
0.998683
0.998329
0.99842
0.998685
0.998685
0.998685
0.998685
0.99744
0.992824
0.989856
0.991558
0.997992
0.998458
0.998458
0.994525
0.982419
0.982313
0.988065
0.997381
0.997378
0.997374
0.97987
0.998717
0.996795
0.995761
0.995761
0.997236
0.998699
0.998699
0.998699
0.998699
0.998697
0.99694
0.977193
0.962758
0.96802
0.982065
0.975438
0.976198
0.995582
0.990511
0.970154
0.994991
0.998685
0.998685
0.998684
0.998625
0.998301
0.998026
0.9982
0.998382
0.99844
0.998458
0.998458
0.993451
0.982313
0.982313
0.982313
0.9895
0.997374
0.997372
0.948236
0.998719
0.997382
0.995761
0.995889
0.9987
0.9987
0.998699
0.998699
0.994009
0.966544
0.962389
0.962518
0.962585
0.975148
0.987713
0.987763
0.987918
0.989152
0.970591
0.963942
0.983905
0.998684
0.99711
0.986775
0.979034
0.980806
0.981495
0.976868
0.977471
0.983041
0.992611
0.998458
0.99198
0.982406
0.982996
0.992785
0.997323
0.997331
0.972654
0.937347
0.998719
0.998715
0.997529
0.997926
0.998705
0.9987
0.989695
0.962235
0.962236
0.962277
0.962308
0.969845
0.985893
0.985878
0.985542
0.9402
0.935009
0.935008
0.940473
0.997118
0.996835
0.994485
0.984237
0.971942
0.966158
0.958686
0.955855
0.95583
0.955828
0.955828
0.95664
0.989527
0.997605
0.997566
0.997344
0.997331
0.997302
0.978022
0.93735
0.937365
0.998719
0.998719
0.998719
0.998718
0.998714
0.998323
0.973046
0.96223
0.962227
0.962555
0.989604
0.987261
0.956491
0.933868
0.933786
0.935064
0.986153
0.998715
0.998698
0.998674
0.990509
0.981528
0.983736
0.998712
0.998714
0.998715
0.993815
0.958146
0.95583
0.955828
0.967304
0.99084
0.998076
0.997752
0.99772
0.978603
0.948302
0.937795
0.937797
0.957772
0.998719
0.998719
0.998719
0.998719
0.998718
0.993458
0.96223
0.962227
0.96223
0.983755
0.995519
0.944857
0.933892
0.933804
0.946908
0.998732
0.998726
0.998721
0.998715
0.998703
0.993696
0.982809
0.998282
0.998714
0.998715
0.998726
0.998735
0.995264
0.985084
0.996765
0.998723
0.998719
0.997701
0.975825
0.93922
0.939029
0.938921
0.938869
0.987517
0.997795
0.998719
0.998719
0.998719
0.998719
0.998595
0.975434
0.962259
0.96223
0.976024
0.998432
0.998189
0.959342
0.933998
0.935797
0.995523
0.998737
0.998732
0.998726
0.998551
0.998141
0.998086
0.998403
0.998666
0.998713
0.998726
0.998735
0.998736
0.998736
0.998736
0.998736
0.998735
0.998656
0.967493
0.939554
0.939449
0.944643
0.98939
0.990068
0.998316
0.998315
0.996262
0.998719
0.998719
0.998718
0.998644
0.975441
0.962284
0.962397
0.994661
0.998439
0.998432
0.98678
0.95444
0.980396
0.998754
0.998744
0.998737
0.998731
0.996711
0.980244
0.964703
0.963299
0.987053
0.997124
0.998701
0.998725
0.998736
0.998736
0.998736
0.998735
0.998731
0.995238
0.971875
0.939616
0.941519
0.991583
0.9983
0.998316
0.998316
0.998316
0.988518
0.99703
0.998549
0.998713
0.998711
0.993916
0.970361
0.976626
0.998439
0.998439
0.998439
0.998069
0.998445
0.998811
0.998761
0.998745
0.998743
0.998712
0.972009
0.883028
0.882931
0.882817
0.882105
0.915056
0.952416
0.984599
0.998735
0.998736
0.998735
0.998733
0.998726
0.994799
0.983911
0.967948
0.949336
0.966309
0.985075
0.991674
0.998316
0.994993
0.989342
0.96052
0.955517
0.968711
0.996529
0.997416
0.997265
0.995328
0.997664
0.998439
0.997002
0.997205
0.998811
0.998816
0.99881
0.997507
0.997866
0.98621
0.899859
0.883484
0.884008
0.888099
0.88149
0.881445
0.881419
0.881474
0.987238
0.998735
0.998733
0.998726
0.998652
0.998663
0.998751
0.99875
0.998748
0.993249
0.974116
0.972499
0.979312
0.977606
0.996483
0.953787
0.95327
0.953181
0.95629
0.97615
0.997182
0.997937
0.997961
0.995038
0.995008
0.995025
0.998724
0.998817
0.998821
0.998539
0.972415
0.937848
0.916931
0.953518
0.996007
0.992274
0.964961
0.886597
0.881419
0.881419
0.93514
0.99873
0.997093
0.995391
0.998179
0.998755
0.998753
0.998751
0.99875
0.998696
0.989433
0.972561
0.972576
0.977109
0.998722
0.985024
0.953199
0.953199
0.953177
0.953208
0.967219
0.995505
0.998591
0.995008
0.995008
0.995008
0.995405
0.998301
0.998825
0.998826
0.993806
0.979866
0.962388
0.976089
0.997155
0.998873
0.998863
0.975748
0.881419
0.88569
0.991189
0.995304
0.995088
0.994686
0.996138
0.998755
0.998786
0.998751
0.998748
0.998744
0.998742
0.984895
0.976305
0.977122
0.998722
0.998722
0.988358
0.968516
0.953208
0.953279
0.953282
0.994231
0.99871
0.998069
0.995008
0.995009
0.995586
0.998808
0.998826
0.998826
0.998826
0.998608
0.998287
0.998873
0.998873
0.998873
0.986902
0.983135
0.882276
0.940852
0.998751
0.998806
0.998874
0.995445
0.997127
0.998847
0.998833
0.998759
0.998285
0.998742
0.997379
0.964225
0.944753
0.977121
0.998722
0.998722
0.998717
0.997735
0.987952
0.978529
0.985792
0.998704
0.998724
0.998745
0.99761
0.996418
0.99858
0.998826
0.998826
0.998826
0.994231
0.987393
0.989155
0.998268
0.998873
0.998873
0.939393
0.897023
0.896997
0.964984
0.988036
0.998489
0.998882
0.998892
0.998892
0.998891
0.968419
0.982859
0.991157
0.99874
0.994275
0.951715
0.944041
0.946655
0.998722
0.998722
0.996729
0.992359
0.995238
0.995477
0.995297
0.984206
0.992922
0.998773
0.998797
0.998818
0.998821
0.998822
0.998826
0.990613
0.987391
0.987389
0.987389
0.991168
0.99887
0.998873
0.950369
0.924447
0.920685
0.888273
0.924627
0.995162
0.998892
0.998893
0.998893
0.998892
0.894347
0.909147
0.992807
0.998715
0.998597
0.989149
0.943901
0.936887
0.995291
0.987284
0.976575
0.977857
0.995296
0.995477
0.981858
0.967066
0.967065
0.990379
0.998813
0.998818
0.998818
0.998087
0.988471
0.987391
0.987389
0.987389
0.987389
0.99547
0.998866
0.99887
0.99433
0.883835
0.873426
0.873426
0.881991
0.991283
0.998892
0.998894
0.998893
0.97906
0.890964
0.890972
0.983742
0.998548
0.998446
0.998307
0.993675
0.942202
0.975354
0.975789
0.976225
0.99012
0.995078
0.982658
0.967028
0.967046
0.967065
0.986592
0.998806
0.998813
0.997927
0.991335
0.987392
0.987391
0.987391
0.98794
0.997331
0.998858
0.998862
0.998866
0.987004
0.876453
0.873514
0.873426
0.933481
0.998728
0.998895
0.998895
0.998894
0.962829
0.891121
0.902803
0.99257
0.998367
0.997899
0.904515
0.876712
0.875366
0.994654
0.995482
0.994822
0.995098
0.983367
0.967028
0.967028
0.967737
0.984576
0.997231
0.998517
0.994561
0.994458
0.997632
0.99577
0.992514
0.993732
0.998584
0.998779
0.998402
0.998765
0.960646
0.873786
0.87365
0.873602
0.910318
0.997925
0.998896
0.998896
0.998896
0.998895
0.964219
0.891282
0.920753
0.986981
0.997049
0.949317
0.76295
0.76289
0.762851
0.998235
0.998214
0.99624
0.975781
0.967028
0.967028
0.967028
0.995706
0.998897
0.9989
0.998312
0.995721
0.997241
0.9988
0.998779
0.998755
0.998715
0.982128
0.941899
0.884347
0.880882
0.875627
0.874376
0.889647
0.973766
0.998897
0.998897
0.998896
0.998896
0.998894
0.998861
0.997112
0.940257
0.920825
0.963462
0.995298
0.870305
0.76289
0.762851
0.762835
0.998241
0.998235
0.982067
0.967045
0.967036
0.967028
0.981275
0.9989
0.998901
0.998901
0.998864
0.998883
0.998846
0.998823
0.985656
0.949177
0.92727
0.926449
0.925301
0.925127
0.951594
0.993519
0.998584
0.998892
0.998896
0.998897
0.998896
0.998896
0.998893
0.998822
0.998822
0.998895
0.998895
0.987693
0.995092
0.998895
0.998876
0.791379
0.762835
0.762834
0.998241
0.99824
0.99769
0.991411
0.976296
0.974964
0.9989
0.998901
0.998901
0.998901
0.998901
0.9989
0.996756
0.964612
0.952843
0.952875
0.985446
0.959704
0.975158
0.975157
0.974245
0.948815
0.954701
0.99153
0.998893
0.998897
0.998896
0.998897
0.998841
0.998823
0.998858
0.998896
0.998895
0.998895
0.998895
0.998895
0.998448
0.786522
0.762834
0.762834
0.998241
0.99824
0.998231
0.985825
0.993475
0.998681
0.998901
0.998901
0.998901
0.998901
0.9989
0.979057
0.931525
0.930111
0.967377
0.979664
0.985467
0.981203
0.979985
0.92473
0.919634
0.919629
0.919694
0.984447
0.998898
0.998897
0.998897
0.998896
0.998896
0.998896
0.998896
0.998896
0.998896
0.998895
0.998895
0.998895
0.998891
0.910989
0.762834
0.762834
0.998241
0.950552
0.892112
0.88525
0.89907
0.971435
0.993469
0.99639
0.988777
0.959917
0.938931
0.930111
0.930105
0.930111
0.930105
0.930186
0.969106
0.927078
0.924402
0.923977
0.923615
0.943229
0.989301
0.998908
0.998907
0.998896
0.998896
0.998896
0.998896
0.998896
0.998896
0.998896
0.998895
0.998895
0.998831
0.998585
0.998807
0.95334
0.812445
0.805052
0.885799
0.885079
0.88507
0.88516
0.88525
0.905893
0.993148
0.992468
0.989363
0.984554
0.96577
0.96513
0.965218
0.934913
0.934413
0.952998
0.939999
0.975018
0.964759
0.982066
0.998842
0.998843
0.998847
0.9985
0.998705
0.998896
0.998896
0.998896
0.998896
0.998896
0.998064
0.998251
0.998185
0.998838
0.998891
0.998828
0.998798
0.994207
0.919532
0.921466
0.885079
0.885075
0.885079
0.885079
0.914874
0.976518
0.989845
0.987318
0.977974
0.936398
0.888069
0.887942
0.889143
0.898346
0.915556
0.993741
0.984912
0.998772
0.998816
0.998824
0.998831
0.998847
0.99887
0.998887
0.998895
0.998898
0.998896
0.998896
0.998896
0.998897
0.996796
0.950683
0.982488
0.998889
0.998892
0.998892
0.998892
0.998892
0.973374
0.928576
0.910152
0.967289
0.95637
0.974664
0.989304
0.991032
0.987675
0.9654
0.907101
0.906922
0.90687
0.989517
0.986977
0.984517
0.996586
0.99786
0.998034
0.998271
0.995469
0.998638
0.998824
0.998831
0.998845
0.998871
0.998894
0.998899
0.998898
0.998896
0.998897
0.998898
0.952211
0.944701
0.944704
0.990202
0.998892
0.998892
0.998892
0.998892
0.970439
0.906878
0.995528
0.998737
0.998606
0.995339
0.97556
0.975122
0.975121
0.99336
0.998749
0.998322
0.996812
0.993215
0.980124
0.967063
0.981405
0.977013
0.972677
0.971305
0.985635
0.998369
0.998149
0.982729
0.970003
0.975836
0.988852
0.993808
0.997222
0.998895
0.998896
0.968287
0.944699
0.944698
0.944701
0.969696
0.99888
0.998892
0.998892
0.988239
0.919504
0.906473
0.99874
0.99874
0.998737
0.988193
0.975135
0.975122
0.988586
0.998754
0.998754
0.998754
0.998754
0.998754
0.99847
0.969634
0.941932
0.941932
0.941932
0.959956
0.976014
0.940431
0.906843
0.83075
0.814296
0.894861
0.958921
0.973831
0.995251
0.99888
0.998779
0.94886
0.944698
0.9447
0.944698
0.957686
0.998099
0.998892
0.998266
0.941845
0.906473
0.906473
0.998741
0.998741
0.998741
0.994521
0.977881
0.989598
0.998755
0.998755
0.998754
0.998754
0.998754
0.998753
0.994342
0.94505
0.94195
0.951249
0.965184
0.953504
0.849919
0.811617
0.811836
0.811836
0.81355
0.9129
0.955431
0.975922
0.99887
0.998871
0.998836
0.969341
0.945172
0.949162
0.946215
0.974732
0.998875
0.998889
0.993896
0.919359
0.906473
0.906473
0.998741
0.998741
0.998741
0.998742
0.99825
0.998714
0.998755
0.998755
0.998743
0.998754
0.998754
0.998753
0.997184
0.966382
0.945297
0.974805
0.951453
0.826759
0.811154
0.811397
0.811617
0.846401
0.956386
0.99885
0.998855
0.998866
0.998871
0.998868
0.998864
0.998303
0.964439
0.945372
0.94541
0.962414
0.998866
0.998876
0.998866
0.981019
0.911442
0.906473
0.998691
0.985949
0.979601
0.998752
0.998755
0.998755
0.998755
0.998755
0.998755
0.998755
0.998755
0.997907
0.983328
0.98144
0.981066
0.959184
0.818247
0.808724
0.810795
0.829609
0.948587
0.998673
0.998737
0.998798
0.998652
0.997195
0.997356
0.998462
0.971745
0.945467
0.945362
0.945362
0.945362
0.954948
0.998865
0.998866
0.998802
0.998683
0.991798
0.934781
0.997453
0.96292
0.95302
0.966241
0.989409
0.997357
0.998755
0.998755
0.998755
0.998755
0.998755
0.997527
0.971165
0.96494
0.979864
0.901343
0.803261
0.805269
0.884098
0.998627
0.99865
0.998678
0.998487
0.996321
0.984892
0.94811
0.946123
0.945877
0.945705
0.945613
0.945467
0.947454
0.992727
0.996043
0.996149
0.991027
0.983895
0.987394
0.984157
0.977119
0.997164
0.95956
0.953015
0.953016
0.953252
0.957314
0.982963
0.998755
0.998755
0.998755
0.998755
0.998121
0.973106
0.964993
0.979878
0.893749
0.798988
0.905344
0.989176
0.989699
0.998626
0.998648
0.986061
0.959455
0.959121
0.959138
0.989275
0.99752
0.997526
0.997489
0.98946
0.944371
0.940418
0.983661
0.985116
0.914211
0.901904
0.901294
0.937682
0.950123
0.998738
0.97784
0.953016
0.953015
0.953016
0.953019
0.986301
0.998755
0.998755
0.998755
0.998303
0.986702
0.96465
0.964941
0.981072
0.929288
0.79603
0.874397
0.979076
0.955531
0.955071
0.997994
0.997367
0.991824
0.989805
0.996156
0.997495
0.997526
0.997499
0.990469
0.940494
0.940418
0.940418
0.940418
0.982109
0.928092
0.906244
0.899008
0.897426
0.897426
0.998739
0.998187
0.975972
0.958103
0.970115
0.98876
0.998215
0.998755
0.998755
0.998754
0.977632
0.957874
0.957873
0.97589
0.983443
0.901162
0.793237
0.853566
0.971977
0.936807
0.896398
0.896474
0.964203
0.991672
0.98747
0.99737
0.997487
0.99518
0.996777
0.996752
0.996712
0.992311
0.961508
0.972795
0.998189
0.998188
0.998182
0.993226
0.9351
0.897497
0.998743
0.99875
0.998559
0.996473
0.998254
0.998754
0.998755
0.998755
0.998755
0.99864
0.97252
0.957873
0.957874
0.980319
0.985979
0.900159
0.791421
0.869692
0.969869
0.969447
0.938136
0.898135
0.899076
0.901919
0.958691
0.993065
0.988683
0.959514
0.964372
0.986788
0.994994
0.998187
0.998189
0.998189
0.998189
0.998189
0.998187
0.998181
0.998166
0.988504
0.99875
0.998752
0.998754
0.998754
0.998754
0.998755
0.998755
0.998755
0.998754
0.995368
0.970097
0.957874
0.986741
0.989188
0.989176
0.878809
0.791357
0.791367
0.824876
0.970439
0.972041
0.973664
0.973966
0.975265
0.973199
0.986974
0.986024
0.963071
0.948464
0.948676
0.949096
0.987135
0.998187
0.998147
0.998173
0.998187
0.998181
0.998166
0.998105
0.998054
0.997553
0.998754
0.998754
0.998754
0.998754
0.998754
0.998755
0.998755
0.998754
0.98884
0.960438
0.958309
0.987967
0.989188
0.989188
0.897723
0.791367
0.791333
0.791318
0.791468
0.810337
0.946601
0.973855
0.976652
0.977461
0.986709
0.985883
0.982245
0.975498
0.963161
0.958303
0.953535
0.895159
0.895147
0.949381
0.994545
0.984782
0.987017
0.997692
0.960609
0.997487
0.987666
0.988726
0.998754
0.998754
0.998754
0.998754
0.998754
0.998448
0.991918
0.96072
0.958671
0.958888
0.985673
0.989136
0.989117
0.916395
0.791318
0.791318
0.791318
0.808447
0.906376
0.928725
0.928818
0.965598
0.985881
0.954687
0.83766
0.76702
0.624883
0.570929
0.722695
0.899043
0.898703
0.898119
0.892268
0.892438
0.940827
0.997476
0.824921
0.997413
0.967793
0.962641
0.974567
0.998754
0.998754
0.998754
0.998754
0.996913
0.988918
0.973785
0.959431
0.960626
0.961858
0.981617
0.989117
0.988368
0.867858
0.791318
0.805103
0.970467
0.985225
0.928956
0.931787
0.977024
0.93383
0.566374
0.385709
0.385548
0.385545
0.385545
0.385545
0.467827
0.831598
0.960895
0.969782
0.977987
0.978132
0.962229
0.775736
0.997381
0.97365
0.9625
0.962385
0.968781
0.99756
0.998754
0.998752
0.998569
0.998416
0.993805
0.991279
0.992937
0.990524
0.969786
0.969921
0.955206
0.796633
0.796558
0.975709
0.985408
0.985396
0.930065
0.975406
0.977955
0.808401
0.385972
0.385699
0.385592
0.385548
0.385545
0.386779
0.422465
0.788586
0.965278
0.978255
0.978255
0.975251
0.797803
0.77389
0.99735
0.99734
0.969253
0.962341
0.962356
0.979545
0.998726
0.99875
0.998739
0.990335
0.977896
0.992057
0.993674
0.993692
0.984132
0.970847
0.926584
0.796728
0.929936
0.985429
0.985436
0.98539
0.957918
0.978866
0.978866
0.916567
0.498149
0.385972
0.385699
0.385592
0.597249
0.850155
0.849725
0.95869
0.964825
0.926856
0.902105
0.880707
0.773905
0.773905
0.99734
0.997333
0.997326
0.963891
0.962344
0.990414
0.998718
0.998739
0.998731
0.917678
0.896137
0.983006
0.993692
0.993699
0.993707
0.993694
0.899904
0.83651
0.985423
0.985436
0.985423
0.981458
0.975336
0.978866
0.978038
0.97722
0.936656
0.660236
0.598821
0.671625
0.934451
0.969682
0.969692
0.969692
0.936031
0.885895
0.893377
0.861941
0.774049
0.854944
0.997333
0.997324
0.99726
0.991771
0.994226
0.998685
0.998716
0.99872
0.998731
0.854781
0.800283
0.932304
0.993675
0.993707
0.993709
0.993707
0.858868
0.794454
0.965377
0.985423
0.931287
0.799868
0.81281
0.928886
0.977158
0.976361
0.975026
0.974558
0.956638
0.883337
0.954849
0.969664
0.969692
0.969692
0.959351
0.885972
0.890017
0.849401
0.774486
0.899689
0.997141
0.997258
0.997231
0.997219
0.996565
0.922347
0.897641
0.952835
0.98861
0.893915
0.796867
0.889619
0.99367
0.993709
0.993707
0.952129
0.793306
0.793596
0.923192
0.980914
0.738863
0.602562
0.602498
0.633108
0.816665
0.964368
0.974558
0.970946
0.85352
0.767972
0.799235
0.948821
0.969687
0.969692
0.969687
0.929834
0.832557
0.832846
0.838056
0.914066
0.997063
0.997108
0.993461
0.930299
0.841525
0.822655
0.825615
0.840522
0.979399
0.933766
0.792674
0.790974
0.955678
0.992332
0.895795
0.792112
0.792077
0.808856
0.925228
0.877511
0.603874
0.602498
0.602498
0.602498
0.602572
0.719816
0.931081
0.873332
0.8516
0.767035
0.762056
0.761039
0.89529
0.969687
0.969525
0.930395
0.832557
0.833395
0.940432
0.870157
0.996871
0.988766
0.855868
0.823079
0.822649
0.823079
0.830677
0.936668
0.985029
0.903586
0.790974
0.790857
0.807377
0.811153
0.790591
0.790582
0.802625
0.91467
0.902593
0.618681
0.602577
0.602527
0.602498
0.602527
0.602764
0.606677
0.715107
0.824934
0.955394
0.944438
0.844927
0.73935
0.739009
0.849427
0.911816
0.89135
0.941153
0.961297
0.940141
0.870149
0.766129
0.786565
0.809927
0.865518
0.919441
0.955738
0.975261
0.994848
0.985954
0.846187
0.790889
0.7909
0.790708
0.790544
0.790529
0.790591
0.887805
0.915119
0.853317
0.603093
0.602645
0.602577
0.602527
0.70855
0.793277
0.622655
0.660748
0.87867
0.956626
0.986669
0.986784
0.943189
0.739482
0.714877
0.713672
0.720993
0.910404
0.979243
0.987296
0.878089
0.832327
0.905799
0.942977
0.977475
0.994861
0.99489
0.9949
0.994899
0.984698
0.939663
0.86266
0.825775
0.790544
0.790536
0.790544
0.861802
0.915117
0.915067
0.865925
0.604683
0.603116
0.602641
0.670578
0.975325
0.994483
0.937904
0.671052
0.849711
0.954163
0.977384
0.987215
0.987367
0.98734
0.739705
0.713657
0.713657
0.713657
0.907631
0.987377
0.906411
0.987897
0.994744
0.994838
0.99489
0.994904
0.994905
0.994906
0.994906
0.994338
0.992234
0.990449
0.979088
0.911372
0.875646
0.922798
0.929416
0.797944
0.636127
0.611942
0.608021
0.605238
0.757409
0.993338
0.994696
0.994585
0.994483
0.770255
0.848361
0.974218
0.975944
0.953549
0.974727
0.987367
0.97138
0.845711
0.713657
0.784298
0.98303
0.987377
0.899753
0.994744
0.994838
0.99489
0.994904
0.994905
0.994906
0.994906
0.994906
0.994906
0.994901
0.994872
0.994789
0.994573
0.993005
0.991352
0.988085
0.938002
0.951207
0.960887
0.99299
0.994704
0.994705
0.994705
0.994705
0.994696
0.994553
0.869609
0.888932
0.974209
0.975189
0.850774
0.874509
0.966446
0.97888
0.977889
0.965334
0.982487
0.987931
0.979829
0.885652
0.734236
0.843815
0.942651
0.994891
0.994905
0.994906
0.994906
0.994906
0.994906
0.963584
0.793552
0.774571
0.901746
0.949398
0.920564
0.888093
0.940966
0.994276
0.994693
0.994707
0.994705
0.994705
0.994705
0.994705
0.982481
0.961029
0.943865
0.894573
0.942845
0.923321
0.826899
0.830782
0.917729
0.943472
0.975822
0.97415
0.979678
0.984987
0.962039
0.901126
0.789603
0.791862
0.796031
0.812663
0.874687
0.986528
0.994906
0.994906
0.881998
0.740409
0.738868
0.738312
0.738195
0.738173
0.73817
0.73817
0.73817
0.933913
0.994593
0.994697
0.994704
0.994705
0.994705
0.972748
0.923727
0.932301
0.939044
0.926675
0.942781
0.942644
0.839189
0.991063
0.941913
0.89749
0.895509
0.895805
0.837426
0.83809
0.83797
0.841858
0.987917
0.975464
0.935481
0.814454
0.825496
0.969439
0.994209
0.993728
0.892388
0.739233
0.738308
0.738193
0.738173
0.73817
0.73817
0.73817
0.73817
0.89888
0.994475
0.994687
0.994703
0.994705
0.994705
0.950636
0.924112
0.934331
0.782051
0.602135
0.930524
0.896001
0.851405
0.996071
0.996574
0.979823
0.963807
0.838692
0.83588
0.835837
0.835849
0.83586
0.994541
0.994644
0.994891
0.980437
0.974269
0.986993
0.99303
0.992705
0.985217
0.860187
0.872014
0.947627
0.810724
0.738173
0.73817
0.73817
0.816493
0.989079
0.994433
0.994538
0.994686
0.994704
0.994705
0.888191
0.934268
0.882364
0.467584
0.413845
0.506497
0.446177
0.487943
0.843258
0.997414
0.997418
0.997433
0.995871
0.898391
0.835848
0.835837
0.855243
0.976586
0.994891
0.994891
0.994891
0.994859
0.99154
0.940456
0.963134
0.987558
0.989855
0.992931
0.993166
0.993053
0.784414