/*--------------------------------*- C++ -*----------------------------------*\
  =========                 |
  \\      /  F ield         | OpenFOAM: The Open Source CFD Toolbox
   \\    /   O peration     | Website:  https://openfoam.org
    \\  /    A nd           | Version:  8
     \\/     M anipulation  |
\*---------------------------------------------------------------------------*/
FoamFile
{
    version     2.0;
    format      ascii;
    class       volScalarField;
    location    "6.9";
    object      alpha.water;
}
// * * * * * * * * * * * * * * * * * * * * * * * * * * * * * * * * * * * * * //

dimensions      [0 0 0 0 0 0 0];

internalField   nonuniform List<scalar> 
9150
(
1
1
1
1
1
1
1
1
1
1
1
1
1
1
1
1
1
1
1
1
1
1
1
1
1
1
1
1
1
1
1
1
1
1
1
1
1
1
1
1
1
1
1
1
1
1
1
1
1
1
1
1
1
1
1
1
1
1
1
1
1
1
1
1
1
1
1
1
1
1
1
1
1
1
1
1
1
1
1
1
1
1
1
1
1
1
1
1
1
1
1
1
1
1
1
1
1
1
1
1
1
1
1
1
1
1
1
1
1
1
1
1
1
1
1
1
1
1
1
1
1
1
1
1
1
1
1
1
1
1
1
1
1
1
1
1
1
1
1
1
1
1
1
1
1
1
1
1
1
1
0.946855
0.946932
0.978641
0.994137
0.994278
0.994776
0.993061
0.989939
0.990001
0.967282
0.947118
0.947829
0.947938
0.948087
0.974416
0.995847
0.994818
0.983534
0.939521
0.960358
0.99809
0.998133
0.998131
0.99813
0.998125
0.997872
0.909129
0.806103
0.805737
0.805605
0.998133
0.998133
0.998133
0.998132
0.906032
0.807562
0.80597
0.805737
0.805597
0.805534
0.998133
0.998133
0.998132
0.998131
0.850336
0.806003
0.805957
0.806006
0.805668
0.805534
0.998133
0.998132
0.99813
0.985538
0.816075
0.806771
0.823209
0.825772
0.825769
0.809874
0.998135
0.998129
0.97857
0.964127
0.952607
0.881664
0.816251
0.808751
0.808835
0.805481
0.997011
0.946389
0.814447
0.805417
0.820101
0.805551
0.8054
0.8054
0.805451
0.805524
0.984059
0.825834
0.805417
0.805413
0.805404
0.8054
0.8054
0.8054
0.8054
0.817404
0.998095
0.936731
0.805419
0.805417
0.824092
0.882768
0.876609
0.879581
0.900921
0.951394
0.98994
0.978459
0.993986
0.989506
0.982713
0.99208
0.993308
0.994786
0.996065
0.996847
0.978324
0.993335
0.994321
0.994327
0.99431
0.990974
0.990055
0.989869
0.989171
0.996201
0.898699
0.978939
0.994327
0.99431
0.971694
0.879989
0.870945
0.871152
0.950336
0.996886
0.899752
0.97562
0.994277
0.972367
0.870926
0.870925
0.870926
0.870945
0.871152
0.910336
0.992938
0.993444
0.993835
0.966035
0.870925
0.870925
0.870925
0.870926
0.870949
0.87121
0.992253
0.992084
0.988914
0.988759
0.978466
0.883172
0.870926
0.870927
0.87094
0.874209
0.854651
0.854593
0.854833
0.93988
0.997448
0.997447
0.995831
0.962511
0.911901
0.905961
0.933369
0.919217
0.997448
0.997448
0.997448
0.997448
0.997447
0.997447
0.962243
0.925765
0.997367
0.997396
0.997435
0.997448
0.997448
0.997448
0.997447
0.997448
0.997449
0.997427
0.977146
0.995449
0.993371
0.995751
0.997323
0.997447
0.997448
0.997449
0.997449
0.997449
0.97162
0.971601
0.97159
0.971543
0.979963
0.989985
0.995037
0.996963
0.997449
0.997449
0.992022
0.973216
0.971543
0.971507
0.971507
0.971507
0.971517
0.986815
0.997449
0.997449
0.997069
0.997047
0.994994
0.975514
0.971537
0.971517
0.981296
0.990498
0.99574
0.997448
0.997047
0.996992
0.996836
0.996735
0.996684
0.996154
0.997339
0.997338
0.997353
0.991356
0.967789
0.988055
0.99379
0.99327
0.986125
0.993146
0.996939
0.997354
0.997353
0.992414
0.917511
0.945851
0.951438
0.955269
0.955705
0.959975
0.974192
0.995294
0.997353
0.997351
0.985534
0.945758
0.946458
0.953887
0.973233
0.9638
0.962331
0.977738
0.997351
0.997355
0.99436
0.950562
0.976657
0.997321
0.997337
0.997338
0.964979
0.975154
0.997308
0.997363
0.971879
0.95156
0.960239
0.9919
0.997338
0.997344
0.997346
0.993034
0.996897
0.997368
0.965573
0.963773
0.979602
0.991811
0.997335
0.997358
0.997366
0.997368
0.997368
0.997368
0.99056
0.994534
0.994534
0.994534
0.994358
0.997226
0.997357
0.997367
0.997368
0.997368
0.994513
0.994534
0.994534
0.994521
0.975932
0.939161
0.951439
0.984263
0.997366
0.997368
0.994332
0.994513
0.994521
0.994423
0.940448
0.898646
0.898635
0.898797
0.983753
0.997362
0.864454
0.964376
0.994423
0.993432
0.957451
0.89864
0.898646
0.89875
0.898833
0.96965
0.738434
0.747923
0.956245
0.986894
0.990745
0.982587
0.906931
0.898833
0.89917
0.907779
0.738427
0.738437
0.745443
0.97384
0.990731
0.990744
0.990728
0.969985
0.900855
0.901412
0.738435
0.738487
0.767787
0.978026
0.990743
0.990728
0.990567
0.990053
0.971777
0.938573
0.885441
0.871069
0.937891
0.987708
0.990652
0.989284
0.978762
0.90013
0.766324
0.765648
0.876013
0.929152
0.934147
0.918284
0.801881
0.73075
0.618337
0.596965
0.834552
0.89628
0.561507
0.607918
0.719404
0.577597
0.560382
0.560374
0.560399
0.569579
0.90009
0.965211
0.561462
0.561462
0.560926
0.560382
0.560374
0.560374
0.560374
0.560399
0.560766
0.768256
0.561507
0.561462
0.60365
0.654426
0.560382
0.560374
0.56039
0.560405
0.560471
0.56115
0.562007
0.690142
0.889219
0.888705
0.695252
0.560405
0.560405
0.560471
0.561243
0.64505
0.596093
0.834069
0.888705
0.889254
0.888705
0.851474
0.574079
0.561372
0.735534
0.984182
0.938386
0.900738
0.868876
0.807221
0.852797
0.914181
0.965067
0.969799
0.980964
0.982522
0.974767
0.971073
0.953525
0.687926
0.652851
0.652851
0.751957
0.898081
0.910808
0.978095
0.921126
0.956305
0.947523
0.872028
0.652865
0.656709
0.656835
0.656328
0.65632
0.75705
0.506131
0.611388
0.720382
0.756269
0.827168
0.830479
0.840521
0.738465
0.787505
0.615172
0.505815
0.510786
0.522541
0.537292
0.632986
0.799358
0.848097
0.868696
0.872806
0.873417
0.712026
0.871152
0.897869
0.682746
0.388345
0.384602
0.466895
0.665386
0.768375
0.872806
0.975881
0.975882
0.975881
0.975881
0.665295
0.383682
0.383637
0.383682
0.451839
0.697768
0.923098
0.975881
0.975882
0.975727
0.862699
0.474734
0.383637
0.394093
0.565204
0.514206
0.483723
0.894936
0.975727
0.974975
0.923293
0.571293
0.380391
0.49012
0.462182
0.370396
0.362067
0.431069
0.851096
0.974219
0.96952
0.730843
0.372222
0.371083
0.370076
0.370321
0.362065
0.362067
0.376332
0.816505
0.965574
0.934358
0.507971
0.371937
0.370629
0.370396
0.362067
0.362066
0.362145
0.379504
0.84653
0.922484
0.862169
0.449066
0.371331
0.370861
0.362458
0.362151
0.362115
0.362266
0.423814
0.878651
0.951848
0.825236
0.419706
0.372896
0.364332
0.362572
0.36228
0.362236
0.362341
0.783259
0.971554
0.976511
0.783188
0.384537
0.363656
0.363051
0.362676
0.362341
0.39883
0.861273
0.979007
0.978764
0.936672
0.453986
0.365559
0.363656
0.363021
0.496322
0.924538
0.97972
0.979927
0.979007
0.879035
0.451146
0.72085
0.732154
0.938225
0.978446
0.97972
0.979897
0.979837
0.979843
0.61451
0.455755
0.99277
0.992392
0.976937
0.912709
0.931632
0.97972
0.979944
0.936361
0.514998
0.482377
0.983257
0.844372
0.768219
0.768219
0.786631
0.946839
0.979034
0.952786
0.661098
0.604954
0.782431
0.781387
0.777887
0.837197
0.769502
0.785722
0.942402
0.942882
0.852373
0.553088
0.993428
0.993451
0.993452
0.921787
0.719209
0.734936
0.93143
0.900291
0.495028
0.413622
0.99345
0.993452
0.993451
0.913875
0.718945
0.842023
0.917001
0.805816
0.413622
0.413622
0.993427
0.99345
0.993451
0.88654
0.719125
0.871082
0.807699
0.738804
0.526959
0.413622
0.991459
0.993427
0.923547
0.37441
0.717625
0.884846
0.542773
0.653992
0.658096
0.416906
0.980755
0.990665
0.401318
0.30535
0.846209
0.885268
0.464431
0.660355
0.530891
0.426292
0.9797
0.886777
0.251828
0.352027
0.880293
0.885268
0.457821
0.587395
0.438734
0.582344
0.97679
0.537566
0.247063
0.487066
0.884852
0.885268
0.451647
0.429431
0.430081
0.76142
0.530373
0.245974
0.245942
0.460205
0.882707
0.879079
0.428728
0.42861
0.429431
0.745272
0.245569
0.244964
0.2457
0.428457
0.875452
0.881546
0.42861
0.472079
0.439362
0.603866
0.24497
0.245007
0.245007
0.458754
0.864118
0.913104
0.434786
0.470839
0.489648
0.827868
0.245569
0.245007
0.460664
0.489357
0.875348
0.914157
0.457746
0.463073
0.570811
0.746631
0.579411
0.449848
0.821687
0.463396
0.902505
0.914157
0.452018
0.369966
0.396387
0.453927
0.963601
0.893521
0.822363
0.387865
0.920087
0.914741
0.424847
0.366811
0.366448
0.366645
0.963601
0.963143
0.600273
0.382809
0.923655
0.921319
0.440034
0.376485
0.366645
0.366453
0.963617
0.942966
0.55391
0.376074
0.932609
0.92402
0.403532
0.502074
0.77889
0.389883
0.963426
0.940859
0.611001
0.371863
0.934096
0.928412
0.388396
0.518175
0.893275
0.883122
0.962504
0.923135
0.799184
0.37175
0.937982
0.931501
0.387411
0.465327
0.875999
0.768997
0.548482
0.365633
0.592263
0.361777
0.952746
0.925972
0.380573
0.530225
0.530627
0.144678
0.0331725
0.00873959
0.124934
0.343828
0.968184
0.929599
0.371272
0.516697
0.117784
0.022283
9.75042e-05
0.00155466
2.96242e-05
0.324602
0.976215
0.930116
0.366877
0.335115
0.000119774
9.47319e-05
9.6107e-05
0.000793865
2.79433e-05
0.356645
0.978693
0.962048
0.368556
0.182363
9.47319e-05
7.05375e-05
0.00354099
0.00329212
2.796e-05
0.406025
0.982056
0.976587
0.411173
0.188678
0.00148423
6.99861e-05
2.95356e-05
2.81129e-05
2.79437e-05
0.433189
0.984839
0.986499
0.436551
0.00982667
0.00545524
0.00046476
2.87908e-05
2.83933e-05
2.81129e-05
0.481365
0.988924
0.990226
0.484347
1.7277e-05
1.72398e-05
0.000201078
9.05822e-05
0.000103148
2.97536e-05
0.555284
0.992104
0.992674
0.554153
1.72397e-05
1.72073e-05
1.94414e-05
0.00123723
0.000661882
4.04954e-05
0.624541
0.99469
0.994863
0.622523
1.72072e-05
1.72036e-05
1.72073e-05
0.00141773
0.000924027
0.000106567
0.689969
0.995002
0.997228
0.687432
1.72035e-05
1.72035e-05
1.72036e-05
0.000927086
0.000216657
0.000195915
0.722399
0.997259
0.998342
0.75726
1.72035e-05
1.72035e-05
1.72035e-05
0.0001087
8.46545e-06
0.0403062
0.826568
0.999022
0.99862
0.787201
0.0240385
1.72035e-05
1.72035e-05
5.45738e-05
4.39933e-06
0.167015
0.930527
0.999314
0.999044
0.79125
0.0382308
1.72035e-05
1.72036e-05
4.09715e-07
4.09715e-07
0.283211
0.963226
0.999857
0.999306
0.921287
0.14551
1.57564e-05
4.01176e-05
4.05988e-07
9.0142e-07
0.528596
0.99745
0.999917
0.99986
0.959824
0.263835
1.02266e-05
7.80691e-06
6.99598e-07
1.33747e-05
0.73103
0.999919
0.999934
0.999957
0.999044
0.563441
6.39906e-06
6.22627e-06
1.0659e-09
0.139526
0.877545
0.999938
0.999999
0.999986
0.999958
0.859189
0.0369206
1.28092e-06
-2.82845e-09
0.644663
0.999856
0.999998
1
1
0.999985
0.992354
0.490752
3.21321e-08
0.362875
0.978802
1
1
1
1
1
1
0.951966
0.277379
0.956967
0.957085
0.986478
0.997842
0.997855
0.997857
0.997857
0.997857
0.99347
0.959895
0.959689
0.976453
0.996054
0.995407
0.98513
0.989803
0.997277
0.997277
0.997277
0.997277
0.997277
0.997277
0.997277
0.997277
0.997277
0.996257
0.947055
0.93907
0.992381
0.992386
0.992084
0.984455
0.984455
0.984455
0.984455
0.984754
0.995417
0.995686
0.993347
0.988863
0.993586
0.99742
0.997818
0.997849
0.997849
0.996513
0.995018
0.997857
0.987991
0.959689
0.959689
0.967593
0.996417
0.99585
0.985063
0.988326
0.997277
0.997277
0.997277
0.997277
0.99286
0.993867
0.997277
0.997277
0.977977
0.917389
0.917729
0.918276
0.976167
0.992386
0.992386
0.992385
0.987138
0.986412
0.995685
0.995686
0.995686
0.995686
0.995686
0.994614
0.923036
0.997485
0.997819
0.997847
0.997848
0.99534
0.987274
0.993667
0.996575
0.964483
0.959689
0.96876
0.997036
0.997287
0.984992
0.985804
0.997277
0.997277
0.997277
0.99616
0.989544
0.992907
0.980883
0.921599
0.91738
0.917385
0.917389
0.970469
0.992386
0.992386
0.992361
0.992377
0.992319
0.98663
0.985531
0.995397
0.995686
0.995686
0.995686
0.995686
0.805561
0.912615
0.997603
0.997832
0.997847
0.994382
0.987151
0.992719
0.996666
0.977563
0.959751
0.973799
0.998042
0.998118
0.984946
0.984709
0.991536
0.997277
0.997276
0.98931
0.986209
0.991278
0.986245
0.926695
0.91738
0.91738
0.952117
0.989904
0.989939
0.992386
0.989441
0.971393
0.971367
0.971392
0.988925
0.995686
0.995686
0.995686
0.995686
0.995686
0.805508
0.841528
0.989516
0.997805
0.997826
0.989941
0.987171
0.995003
0.996696
0.983924
0.960019
0.982062
0.998118
0.998118
0.988162
0.984711
0.984709
0.990659
0.997243
0.996437
0.988667
0.987658
0.992759
0.996283
0.964314
0.919926
0.920837
0.925046
0.925047
0.987154
0.9903
0.97734
0.971392
0.986795
0.995686
0.995686
0.995686
0.995686
0.995686
0.995686
0.805481
0.805549
0.936225
0.983461
0.982629
0.984866
0.99502
0.996712
0.996687
0.977035
0.967224
0.99534
0.998118
0.998118
0.997484
0.986693
0.984734
0.984734
0.985786
0.989426
0.99562
0.997131
0.997265
0.997268
0.997262
0.995247
0.980152
0.973173
0.976736
0.9898
0.990271
0.942999
0.977413
0.981747
0.993445
0.995686
0.995686
0.995686
0.995682
0.995685
0.805494
0.843232
0.97304
0.99071
0.989204
0.993377
0.996756
0.996714
0.984403
0.976873
0.995316
0.998109
0.998107
0.998118
0.994184
0.993764
0.992738
0.992174
0.992456
0.99277
0.987106
0.987101
0.991431
0.997268
0.997268
0.997268
0.997268
0.993109
0.982938
0.989386
0.948893
0.870515
0.870485
0.880475
0.926716
0.992448
0.995686
0.993518
0.977182
0.977306
0.827748
0.969424
0.996231
0.996944
0.996942
0.996872
0.996777
0.982615
0.972326
0.988643
0.997293
0.997573
0.989742
0.98356
0.982882
0.98546
0.995607
0.997233
0.997259
0.99726
0.991761
0.983835
0.983817
0.989767
0.997249
0.997268
0.994897
0.992518
0.919368
0.874603
0.870487
0.870477
0.870476
0.870476
0.870489
0.969488
0.993894
0.973832
0.941146
0.941151
0.953742
0.996931
0.996949
0.996947
0.996944
0.996942
0.98825
0.972219
0.972217
0.98269
0.986076
0.977566
0.976132
0.976571
0.985277
0.987598
0.987097
0.993821
0.99726
0.99726
0.997238
0.987874
0.983812
0.983805
0.992068
0.997268
0.98922
0.981567
0.896892
0.870487
0.870477
0.870476
0.870476
0.870476
0.872218
0.968361
0.963661
0.969585
0.967706
0.941144
0.993482
0.996949
0.996949
0.996949
0.992108
0.977335
0.972219
0.972218
0.972219
0.972218
0.972452
0.972842
0.975969
0.991822
0.997928
0.997649
0.986506
0.986502
0.99618
0.99726
0.99726
0.996971
0.984196
0.983797
0.989371
0.997211
0.997307
0.997307
0.99525
0.953152
0.936201
0.959173
0.948872
0.958522
0.959268
0.917942
0.964421
0.997344
0.997344
0.96867
0.996916
0.996932
0.996624
0.97976
0.970244
0.970577
0.97282
0.995389
0.973363
0.972392
0.973506
0.984306
0.993272
0.99836
0.998348
0.998339
0.995424
0.988291
0.99726
0.99726
0.99726
0.99726
0.988884
0.983793
0.989153
0.997307
0.997307
0.997307
0.997307
0.997306
0.993692
0.97057
0.904968
0.894008
0.897366
0.968798
0.997344
0.997345
0.997344
0.99734
0.996901
0.996916
0.985417
0.970244
0.970244
0.970244
0.991531
0.997894
0.991048
0.982573
0.995394
0.998327
0.998361
0.998362
0.997698
0.997946
0.997961
0.998006
0.99439
0.997078
0.99726
0.99726
0.99332
0.983787
0.989325
0.997307
0.997307
0.997307
0.997307
0.990412
0.941177
0.89395
0.893951
0.893981
0.894247
0.990959
0.997345
0.997344
0.996902
0.997302
0.996887
0.9969
0.993815
0.984898
0.986119
0.992778
0.997894
0.997894
0.99808
0.99831
0.998356
0.998361
0.998362
0.998362
0.995538
0.993459
0.997806
0.998016
0.979503
0.96405
0.988598
0.99726
0.995213
0.983751
0.992991
0.997307
0.997307
0.997307
0.996109
0.923685
0.89395
0.89395
0.89395
0.893951
0.923757
0.997344
0.997345
0.997323
0.9955
0.9955
0.993484
0.996812
0.9959
0.974587
0.957577
0.996767
0.997795
0.995239
0.979489
0.974163
0.993695
0.998361
0.998362
0.998362
0.993872
0.993459
0.996767
0.998029
0.968223
0.96405
0.981706
0.997219
0.993921
0.983715
0.993052
0.997307
0.997307
0.997307
0.997307
0.989762
0.90546
0.89395
0.893951
0.95141
0.996234
0.997345
0.997345
0.997185
0.9955
0.9955
0.948293
0.996728
0.983656
0.951574
0.951574
0.951574
0.952949
0.951037
0.950819
0.950841
0.960362
0.997346
0.998361
0.993964
0.993743
0.997384
0.998029
0.998029
0.987592
0.96405
0.990921
0.997133
0.988541
0.98371
0.991295
0.997307
0.997307
0.997307
0.997307
0.996921
0.979197
0.99162
0.991189
0.993171
0.997344
0.997345
0.997345
0.997284
0.9955
0.9955
0.981651
0.995977
0.993073
0.97689
0.96455
0.969411
0.975066
0.964743
0.951037
0.96827
0.996334
0.99834
0.997241
0.99307
0.998023
0.998029
0.998029
0.998029
0.998029
0.991597
0.997078
0.997088
0.983715
0.98371
0.985932
0.997225
0.997308
0.994598
0.988345
0.982999
0.98738
0.989644
0.981067
0.98719
0.997344
0.997345
0.997345
0.997345
0.997037
0.9955
0.982093
0.990816
0.989885
0.997742
0.998077
0.998246
0.998401
0.997545
0.996128
0.998115
0.998353
0.998353
0.99834
0.971357
0.952494
0.970467
0.994758
0.995693
0.990853
0.997045
0.997039
0.997078
0.984778
0.98371
0.989822
0.997308
0.997308
0.984135
0.954472
0.954413
0.986216
0.990079
0.981053
0.993726
0.997344
0.997344
0.997344
0.997344
0.997338
0.9955
0.926114
0.940001
0.966599
0.997114
0.9984
0.998406
0.998406
0.998405
0.998394
0.998376
0.997973
0.993378
0.995544
0.950166
0.887875
0.887465
0.887168
0.881203
0.884717
0.948937
0.932967
0.941778
0.981917
0.984627
0.991781
0.997308
0.997308
0.992162
0.954393
0.954393
0.980664
0.990189
0.990604
0.997343
0.997344
0.997087
0.997344
0.997344
0.997337
0.995501
0.96452
0.939675
0.939645
0.946066
0.991313
0.998406
0.998406
0.998406
0.998405
0.982588
0.946737
0.952038
0.996935
0.997287
0.980246
0.924276
0.87832
0.878192
0.878065
0.878061
0.878003
0.877977
0.904712
0.984398
0.994119
0.997307
0.997308
0.997307
0.983115
0.954413
0.954565
0.959051
0.992854
0.997342
0.997343
0.996394
0.995866
0.997034
0.997338
0.997249
0.997449
0.997385
0.97513
0.94464
0.944524
0.961754
0.98218
0.980243
0.969481
0.946737
0.946737
0.946737
0.980785
0.997341
0.997341
0.997341
0.951619
0.878083
0.878061
0.878003
0.877977
0.877968
0.877977
0.978023
0.997301
0.997307
0.997307
0.997307
0.997307
0.993121
0.983866
0.959281
0.966915
0.995682
0.997341
0.997333
0.990424
0.995705
0.997346
0.997346
0.997449
0.997449
0.997447
0.994507
0.984761
0.979783
0.980302
0.98394
0.980942
0.972103
0.979161
0.99463
0.997342
0.997342
0.997341
0.997341
0.997341
0.972261
0.94302
0.877988
0.877971
0.877977
0.919812
0.995923
0.997305
0.997307
0.997307
0.993948
0.996986
0.997251
0.99732
0.994897
0.982758
0.992944
0.997333
0.99733
0.99027
0.995874
0.997346
0.997346
0.997449
0.997204
0.995586
0.996587
0.996872
0.996873
0.996783
0.996954
0.997059
0.997177
0.997342
0.997342
0.997342
0.997342
0.997328
0.997341
0.997342
0.99734
0.997329
0.978639
0.92902
0.941014
0.99093
0.997296
0.997304
0.997305
0.994551
0.992831
0.993234
0.997322
0.997325
0.997326
0.997327
0.997053
0.997329
0.99733
0.990169
0.996908
0.997346
0.997346
0.995127
0.987375
0.983892
0.983892
0.983894
0.988499
0.989614
0.98954
0.989536
0.991349
0.997341
0.997342
0.997342
0.997342
0.997342
0.997342
0.997342
0.997342
0.997339
0.995116
0.99537
0.997113
0.997247
0.997253
0.989028
0.960178
0.984199
0.997309
0.997322
0.997324
0.997326
0.997327
0.997328
0.997329
0.997329
0.997329
0.989032
0.997002
0.997346
0.997346
0.983892
0.983892
0.983892
0.983892
0.984239
0.993234
0.997166
0.997333
0.997333
0.996952
0.997339
0.997341
0.997342
0.997342
0.997342
0.997211
0.993968
0.988547
0.990931
0.99467
0.996354
0.996863
0.959299
0.928093
0.928644
0.948297
0.995853
0.997322
0.997325
0.997326
0.997327
0.997327
0.997328
0.997328
0.997329
0.966861
0.985613
0.997346
0.997346
0.997346
0.98409
0.983892
0.983892
0.98904
0.997332
0.997333
0.997333
0.997333
0.997333
0.99668
0.994609
0.997115
0.997073
0.997318
0.995604
0.977247
0.971601
0.979526
0.974148
0.908277
0.903831
0.894783
0.93539
0.923105
0.9334
0.983261
0.997321
0.997325
0.997324
0.997325
0.997326
0.997327
0.994222
0.982434
0.936449
0.90408
0.976167
0.997345
0.997346
0.997346
0.995915
0.991562
0.984105
0.983911
0.984559
0.99693
0.997333
0.997333
0.997333
0.9943
0.987955
0.986591
0.984331
0.973006
0.993123
0.977279
0.971592
0.955296
0.885046
0.881542
0.881702
0.881969
0.990355
0.922997
0.913392
0.913273
0.913606
0.920936
0.930756
0.931591
0.924924
0.915595
0.904127
0.900495
0.901092
0.903058
0.987508
0.997344
0.997345
0.996239
0.99735
0.997347
0.997347
0.990077
0.984385
0.984393
0.994302
0.997333
0.997332
0.997332
0.994062
0.987844
0.98017
0.962443
0.983208
0.995294
0.989188
0.910066
0.881542
0.881542
0.881542
0.918637
0.997385
0.97572
0.954208
0.942425
0.938855
0.932515
0.914643
0.89961
0.899468
0.899391
0.899377
0.899377
0.901854
0.976015
0.997321
0.997331
0.995807
0.992762
0.995159
0.99456
0.997344
0.997319
0.997297
0.985031
0.992968
0.997332
0.997332
0.997332
0.997332
0.997332
0.990853
0.962441
0.972922
0.997125
0.997123
0.93317
0.881554
0.881542
0.884601
0.993605
0.997388
0.997388
0.997383
0.996999
0.995957
0.9933
0.988795
0.98436
0.980269
0.973147
0.967765
0.9604
0.98062
0.992958
0.99304
0.987779
0.974945
0.991616
0.996491
0.99107
0.997209
0.9973
0.9973
0.993412
0.990945
0.992058
0.997317
0.99733
0.997332
0.99733
0.997094
0.97179
0.965674
0.985483
0.997364
0.993056
0.94096
0.914394
0.962998
0.997389
0.997389
0.997388
0.997388
0.997388
0.997386
0.997382
0.997387
0.997388
0.99734
0.997287
0.993708
0.984658
0.981452
0.977138
0.974898
0.974901
0.974909
0.993097
0.997368
0.996246
0.972373
0.98082
0.996212
0.995584
0.993793
0.991939
0.991939
0.991939
0.996548
0.997328
0.997322
0.997307
0.993778
0.986527
0.997365
0.997365
0.997036
0.996265
0.997388
0.997389
0.997388
0.997388
0.997388
0.997388
0.997143
0.994926
0.997388
0.997389
0.997389
0.98937
0.975001
0.974992
0.974991
0.974898
0.974898
0.974898
0.987153
0.996411
0.997368
0.996458
0.941951
0.931293
0.931292
0.944901
0.993646
0.997327
0.997329
0.997329
0.997329
0.996981
0.992053
0.995487
0.993637
0.995704
0.997365
0.997365
0.997373
0.997385
0.997388
0.997388
0.997388
0.997388
0.997388
0.997388
0.996118
0.994894
0.995482
0.99739
0.997391
0.995001
0.982865
0.984008
0.992613
0.990645
0.989342
0.990221
0.997366
0.996412
0.997365
0.992544
0.948131
0.931291
0.931292
0.931292
0.973103
0.99674
0.997273
0.997299
0.990154
0.950019
0.918613
0.918573
0.924602
0.93032
0.946009
0.975244
0.984345
0.990504
0.996767
0.997388
0.997388
0.997388
0.997388
0.997389
0.996485
0.994897
0.994894
0.996072
0.997391
0.997391
0.997391
0.997391
0.997257
0.99708
0.997388
0.997389
0.997384
0.996365
0.996166
0.948388
0.931291
0.931291
0.931291
0.9313
0.956211
0.976422
0.923256
0.922933
0.922589
0.922411
0.921253
0.918573
0.918573
0.918604
0.918686
0.918854
0.919384
0.955974
0.971065
0.984384
0.995553
0.997388
0.997388
0.997388
0.997388
0.995158
0.994894
0.99525
0.997391
0.997391
0.997391
0.997391
0.99739
0.99712
0.997389
0.99739
0.997391
0.996681
0.995528
0.95115
0.931297
0.931291
0.931435
0.95707
0.992203
0.994012
0.988614
0.988289
0.992369
0.993204
0.989167
0.978237
0.964918
0.940143
0.953524
0.977456
0.919991
0.926645
0.97782
0.986925
0.987618
0.989547
0.997388
0.997388
0.997388
0.997349
0.994894
0.997197
0.997391
0.997391
0.997391
0.997069
0.996974
0.996974
0.996974
0.997151
0.997391
0.997391
0.995181
0.995181
0.995178
0.995009
0.995212
0.995212
0.995236
0.995268
0.995277
0.995276
0.995277
0.995273
0.985429
0.973329
0.987787
0.987912
0.988425
0.990498
0.990238
0.9602
0.976916
0.996425
0.990636
0.973833
0.973916
0.995951
0.997387
0.997386
0.996745
0.997391
0.997391
0.997377
0.997391
0.997391
0.997004
0.996974
0.996974
0.997061
0.997391
0.997391
0.954721
0.995181
0.994191
0.993546
0.995212
0.995212
0.993742
0.984973
0.994472
0.995277
0.995275
0.985266
0.971355
0.971355
0.971393
0.986074
0.988077
0.990615
0.991549
0.990549
0.993431
0.996486
0.996543
0.983092
0.960687
0.960448
0.992342
0.997388
0.997391
0.997391
0.99739
0.997373
0.997374
0.997391
0.997388
0.996974
0.997115
0.997391
0.997391
0.997375
0.873081
0.780371
0.860061
0.974245
0.983338
0.982566
0.966048
0.9706
0.989076
0.995275
0.995185
0.98411
0.984102
0.972628
0.992171
0.992171
0.992171
0.992171
0.992145
0.988822
0.988195
0.995653
0.996554
0.996556
0.967708
0.958071
0.957906
0.987797
0.997391
0.997393
0.99739
0.997373
0.997373
0.997391
0.997391
0.997282
0.997391
0.997391
0.997376
0.997362
0.765648
0.765648
0.765803
0.895224
0.897155
0.91773
0.933305
0.972024
0.975475
0.99432
0.995154
0.977938
0.955537
0.983687
0.985148
0.992171
0.992171
0.980133
0.992126
0.988788
0.988189
0.995056
0.996559
0.996558
0.983617
0.957846
0.957834
0.957839
0.979785
0.997393
0.997393
0.997387
0.997391
0.997391
0.997391
0.997391
0.997391
0.997391
0.997362
0.997362
0.775173
0.765803
0.833511
0.910895
0.94027
0.942813
0.947839
0.948223
0.947313
0.964749
0.995123
0.984107
0.95543
0.95543
0.95543
0.990059
0.992171
0.954367
0.946142
0.986439
0.993388
0.996559
0.996559
0.996559
0.996514
0.958179
0.957838
0.957834
0.957839
0.977223
0.997389
0.997391
0.997391
0.997391
0.997391
0.997391
0.997391
0.997391
0.997391
0.997367
0.968029
0.944179
0.984651
0.984651
0.984651
0.98465
0.984646
0.984608
0.957728
0.952828
0.967644
0.984062
0.979674
0.955994
0.981915
0.991727
0.992084
0.970437
0.904648
0.964012
0.996559
0.996559
0.996559
0.996559
0.996558
0.987526
0.963333
0.957839
0.957864
0.967906
0.997121
0.997391
0.997391
0.997391
0.997391
0.996522
0.997383
0.997391
0.997391
0.997391
0.975662
0.984651
0.984651
0.984651
0.98465
0.984646
0.984613
0.984542
0.98404
0.974668
0.909298
0.969334
0.988855
0.988871
0.98848
0.976808
0.984533
0.985015
0.90432
0.910315
0.974017
0.981181
0.987298
0.979228
0.988448
0.991832
0.976034
0.957875
0.971757
0.992619
0.997389
0.997391
0.997391
0.989635
0.971401
0.990418
0.99739
0.997391
0.993989
0.997391
0.82947
0.984651
0.984651
0.98465
0.984644
0.984613
0.984464
0.966921
0.920672
0.875636
0.856727
0.944478
0.981199
0.955267
0.919158
0.869763
0.968527
0.909127
0.894162
0.894223
0.92938
0.97676
0.966933
0.965248
0.975768
0.991832
0.968365
0.9682
0.995523
0.99736
0.997361
0.993062
0.969048
0.937483
0.938088
0.978964
0.997387
0.997388
0.992289
0.997376
0.944228
0.984651
0.98465
0.98464
0.984568
0.980533
0.899953
0.758072
0.738639
0.740289
0.742429
0.874688
0.894065
0.857401
0.85731
0.878195
0.993225
0.95876
0.894168
0.894172
0.968451
0.984332
0.963282
0.971184
0.99181
0.991823
0.990553
0.961264
0.943418
0.94329
0.943142
0.937897
0.937452
0.937503
0.953523
0.996509
0.997387
0.997387
0.997387
0.988661
0.984628
0.984649
0.984638
0.984553
0.983342
0.845185
0.73256
0.732366
0.735249
0.754474
0.894635
0.974717
0.980567
0.961361
0.983072
0.995257
0.995251
0.989903
0.974549
0.980642
0.991867
0.987565
0.966275
0.990777
0.9911
0.980823
0.980127
0.990414
0.963339
0.952257
0.956279
0.950086
0.948064
0.967381
0.996419
0.997386
0.997387
0.997387
0.990886
0.891561
0.984608
0.984628
0.98455
0.984113
0.970556
0.768948
0.730609
0.724628
0.862607
0.995263
0.995295
0.995297
0.995297
0.995297
0.995297
0.995292
0.99525
0.990782
0.982402
0.98529
0.991867
0.986943
0.905816
0.89012
0.890336
0.954793
0.996913
0.996917
0.996908
0.994008
0.986707
0.990908
0.996885
0.997378
0.997382
0.997384
0.997386
0.961064
0.879794
0.880028
0.984061
0.984394
0.984096
0.982316
0.97556
0.849511
0.724628
0.719679
0.792693
0.99373
0.995263
0.995295
0.995297
0.995297
0.995292
0.99525
0.990806
0.948831
0.89089
0.890433
0.890135
0.890067
0.890067
0.890067
0.890128
0.932316
0.996915
0.996924
0.996931
0.974583
0.956372
0.956372
0.961829
0.993539
0.997379
0.997382
0.967653
0.946876
0.879611
0.914674
0.746816
0.817079
0.837875
0.834922
0.88673
0.882401
0.87454
0.72296
0.701124
0.802522
0.94691
0.995187
0.995238
0.995244
0.995177
0.977116
0.94072
0.940367
0.948808
0.950735
0.950735
0.898392
0.890067
0.927863
0.996233
0.996724
0.996924
0.996931
0.996936
0.996939
0.996881
0.979987
0.915686
0.904676
0.904696
0.904295
0.879962
0.879611
0.879669
0.943918
0.583097
0.578216
0.412336
0.387717
0.398484
0.501025
0.54061
0.660989
0.714471
0.668728
0.648229
0.843372
0.919839
0.937223
0.933262
0.940893
0.946502
0.94326
0.874869
0.937609
0.943371
0.942968
0.938425
0.956563
0.954799
0.942846
0.979386
0.996924
0.996939
0.996952
0.996952
0.996952
0.993676
0.956576
0.921745
0.884001
0.8801
0.880779
0.90024
0.959128
0.873467
0.873417
0.794956
0.474003
0.284778
0.272601
0.270441
0.270791
0.376731
0.416862
0.504089
0.536891
0.574202
0.695739
0.81482
0.904846
0.946772
0.944395
0.849681
0.830391
0.830391
0.846579
0.903381
0.835866
0.784864
0.756047
0.895211
0.978077
0.95732
0.995306
0.996952
0.996924
0.996658
0.996479
0.992683
0.97965
0.971994
0.979276
0.978933
0.978711
0.873417
0.874513
0.876488
0.877697
0.879068
0.731552
0.427627
0.269513
0.259833
0.258268
0.257822
0.257686
0.25774
0.276963
0.479915
0.616855
0.759678
0.911845
0.921007
0.872073
0.830391
0.83304
0.945247
0.867647
0.754774
0.754644
0.754722
0.886685
0.924065
0.940584
0.993489
0.96606
0.972742
0.996488
0.996488
0.996488
0.995776
0.989823
0.932941
0.911201
0.749432
0.737974
0.798162
0.900414
0.919145
0.921459
0.907899
0.817899
0.540374
0.273836
0.281951
0.340068
0.315049
0.25651
0.2554
0.255255
0.2554
0.396216
0.880522
0.93609
0.945724
0.927827
0.970618
0.982828
0.982714
0.916906
0.754741
0.757377
0.908705
0.960673
0.88398
0.860948
0.930044
0.970788
0.929599
0.929674
0.938431
0.882992
0.878415
0.878415
0.472456
0.607835
0.764589
0.913945
0.921459
0.922011
0.864364
0.738386
0.731083
0.869604
0.936636
0.958848
0.970438
0.75153
0.280743
0.2554
0.255255
0.256124
0.256993
0.673834
0.981239
0.983245
0.983245
0.972454
0.98255
0.98761
0.987546
0.872733
0.931084
0.960673
0.870735
0.86083
0.860803
0.94575
0.982178
0.963747
0.990831
0.977596
0.893872
0.878415
0.37034
0.434344
0.623482
0.867469
0.922011
0.923056
0.920589
0.755331
0.739735
0.756245
0.891759
0.973255
0.983222
0.985662
0.986002
0.953595
0.415415
0.256993
0.260404
0.563027
0.967016
0.981239
0.977774
0.952308
0.952348
0.976544
0.987959
0.80051
0.879946
0.960673
0.922044
0.860784
0.86083
0.952992
0.990874
0.990863
0.99084
0.990831
0.990634
0.964247
0.370339
0.37034
0.370282
0.502757
0.887153
0.924729
0.925358
0.925237
0.889973
0.721934
0.720325
0.720636
0.751557
0.962816
0.987047
0.98787
0.97468
0.919695
0.801561
0.8346
0.969618
0.981235
0.98162
0.983352
0.984799
0.988258
0.988312
0.785801
0.753894
0.957269
0.980478
0.880028
0.860794
0.978124
0.990878
0.990879
0.987978
0.956745
0.941975
0.964214
0.37034
0.370335
0.370419
0.37195
0.784305
0.920451
0.924729
0.925352
0.917353
0.856316
0.721934
0.830119
0.979642
0.987086
0.987969
0.988095
0.988199
0.988206
0.988217
0.988222
0.964026
0.894119
0.951465
0.987823
0.988258
0.988312
0.988314
0.84792
0.584341
0.929945
0.983844
0.954141
0.939748
0.988143
0.990892
0.990877
0.928499
0.844376
0.844051
0.844949
0.370458
0.370419
0.370884
0.519136
0.847006
0.906642
0.82454
0.759709
0.802
0.75598
0.769739
0.896039
0.985336
0.988085
0.988095
0.988235
0.988206
0.988248
0.988283
0.988285
0.986398
0.891492
0.909582
0.985623
0.988224
0.988317
0.988312
0.816542
0.510284
0.856492
0.987972
0.989616
0.990805
0.990892
0.990894
0.990892
0.949153
0.844051
0.927727
0.949693
0.371167
0.370697
0.408927