/*--------------------------------*- C++ -*----------------------------------*\
  =========                 |
  \\      /  F ield         | OpenFOAM: The Open Source CFD Toolbox
   \\    /   O peration     | Website:  https://openfoam.org
    \\  /    A nd           | Version:  8
     \\/     M anipulation  |
\*---------------------------------------------------------------------------*/
FoamFile
{
    version     2.0;
    format      ascii;
    class       surfaceScalarField;
    location    "6.9";
    object      alphaPhi0.water;
}
// * * * * * * * * * * * * * * * * * * * * * * * * * * * * * * * * * * * * * //

dimensions      [0 3 -1 0 0 0 0];

internalField   nonuniform List<scalar> 
18095
(
1.98775e-08
-1.72034e-07
1.52156e-07
2.31787e-08
-1.97523e-07
1.94222e-07
2.04079e-08
-2.0626e-07
2.0903e-07
1.25278e-08
-2.11574e-07
2.19454e-07
1.27462e-09
-2.13434e-07
2.24687e-07
-1.10713e-08
-2.12994e-07
2.2534e-07
-2.04448e-08
-2.10426e-07
2.19799e-07
-2.32181e-08
-2.06121e-07
2.08895e-07
-1.9886e-08
-1.97581e-07
1.94249e-07
-1.72053e-07
1.52167e-07
1.55526e-08
-1.87586e-07
1.61508e-08
-1.98122e-07
1.17788e-08
-2.01888e-07
5.64008e-09
-2.05435e-07
-1.03795e-09
-2.06756e-07
-6.94948e-09
-2.07082e-07
-1.20924e-08
-2.05283e-07
-1.61726e-08
-2.02041e-07
-1.55566e-08
-1.98197e-07
-1.8761e-07
6.81338e-09
-1.944e-07
8.42526e-09
-1.99734e-07
7.44093e-09
-2.00903e-07
4.45596e-09
-2.0245e-07
3.61819e-10
-2.02661e-07
-4.06693e-09
-2.02653e-07
-7.26749e-09
-2.02082e-07
-8.36705e-09
-2.00942e-07
-6.80461e-09
-1.9976e-07
-1.94414e-07
4.5274e-09
-1.98927e-07
4.73725e-09
-1.99943e-07
3.69021e-09
-1.99856e-07
1.63358e-09
-2.00394e-07
-2.88358e-10
-2.00739e-07
-2.04501e-09
-2.00897e-07
-3.65474e-09
-2.00473e-07
-4.72067e-09
-1.99876e-07
-4.5143e-09
-1.99966e-07
-1.98929e-07
1.07304e-09
1.12968e-09
1.27342e-09
8.79641e-10
1.40178e-10
-7.56653e-10
-1.22936e-09
-1.10514e-09
-1.07128e-09
-2.84034e-08
-1.9632e-07
2.24724e-07
-3.06749e-08
-1.99366e-07
2.01637e-07
-2.49389e-08
-2.01804e-07
1.96068e-07
-1.33893e-08
-2.02068e-07
1.90519e-07
1.16335e-09
-2.02216e-07
1.87664e-07
1.53233e-08
-2.01861e-07
1.87701e-07
2.56231e-08
-2.01128e-07
1.90828e-07
3.03764e-08
-2.00649e-07
1.95896e-07
2.79244e-08
-1.98762e-07
2.01214e-07
-1.95824e-07
2.23749e-07
-9.56203e-09
-1.86758e-07
-1.524e-08
-1.93688e-07
-1.31236e-08
-2.03921e-07
-6.81012e-09
-2.08382e-07
-7.24666e-10
-2.08302e-07
5.21723e-09
-2.07803e-07
1.16692e-08
-2.0758e-07
1.47716e-08
-2.03752e-07
9.40834e-09
-1.93399e-07
-1.86416e-07
-9.98087e-09
-1.76778e-07
-8.34074e-09
-1.95328e-07
-7.6134e-09
-2.04648e-07
-5.5606e-09
-2.10434e-07
-5.14876e-10
-2.13347e-07
4.69986e-09
-2.13018e-07
7.08516e-09
-2.09965e-07
7.86834e-09
-2.04535e-07
9.67851e-09
-1.95209e-07
-1.76738e-07
-6.77036e-09
-1.70007e-07
-8.8728e-09
-1.93226e-07
-8.31338e-09
-2.05208e-07
-4.14759e-09
-2.146e-07
-1.22822e-09
-2.16267e-07
2.19081e-09
-2.16437e-07
7.075e-09
-2.14849e-07
8.06123e-09
-2.05521e-07
6.48678e-09
-1.93635e-07
-1.70251e-07
-1.78511e-08
-1.68544e-08
-1.30316e-08
-8.17758e-09
2.42339e-10
9.14542e-09
1.40955e-08
1.74691e-08
1.80836e-08
3.01202e-08
-1.60923e-07
1.30803e-07
3.4551e-08
-2.01157e-07
1.96726e-07
2.58817e-08
-2.11508e-07
2.20177e-07
1.10036e-08
-2.146e-07
2.29478e-07
-6.49363e-09
-2.16921e-07
2.34419e-07
-2.32149e-08
-2.16301e-07
2.33023e-07
-3.59287e-08
-2.15369e-07
2.28083e-07
-4.38876e-08
-2.09918e-07
2.17877e-07
-3.9135e-08
-1.97304e-07
1.92552e-07
-1.55998e-07
1.16863e-07
1.49227e-08
-1.75846e-07
1.66391e-08
-2.02873e-07
1.35519e-08
-2.0842e-07
8.13049e-09
-2.09178e-07
-3.75784e-10
-2.08415e-07
-9.45688e-09
-2.0722e-07
-1.71622e-08
-2.07664e-07
-2.08271e-08
-2.06253e-07
-1.79012e-08
-2.0023e-07
-1.73899e-07
8.00756e-09
-1.83853e-07
7.58368e-09
-2.02449e-07
5.70328e-09
-2.0654e-07
5.55739e-11
-2.03531e-07
-3.54923e-09
-2.0481e-07
-6.23793e-09
-2.04532e-07
-9.10114e-09
-2.04801e-07
-9.65114e-09
-2.05703e-07
-8.70653e-09
-2.01175e-07
-1.82606e-07
7.6948e-09
-1.91548e-07
4.92702e-09
-1.99681e-07
5.88838e-09
-2.07501e-07
2.37624e-09
-2.00019e-07
8.01246e-10
-2.03235e-07
-9.9844e-10
-2.02732e-07
-6.54483e-09
-1.99254e-07
-5.81781e-09
-2.0643e-07
-8.02357e-09
-1.98969e-07
-1.90629e-07
3.31755e-08
3.51317e-08
2.36985e-08
1.41985e-08
-1.37314e-09
-1.6404e-08
-2.48304e-08
-3.53645e-08
-3.31193e-08
5.25572e-07
-1.41164e-08
-5.11649e-07
5.42039e-07
-1.69332e-08
5.85229e-07
-1.5765e-08
5.96117e-07
-1.05153e-08
5.99859e-07
-3.47872e-09
5.89397e-07
8.85614e-09
5.64813e-07
2.06415e-08
5.29766e-07
3.3966e-08
4.85936e-07
4.25519e-08
4.20971e-08
4.32828e-07
5.03996e-07
-4.62708e-08
-4.72967e-07
5.3789e-07
-5.24788e-08
5.69262e-07
-4.88172e-08
5.8936e-07
-3.24574e-08
6.31064e-07
-1.423e-08
6.271e-07
9.47222e-09
6.00453e-07
4.40597e-08
5.32593e-07
7.90455e-08
4.69032e-07
9.56325e-08
8.86254e-08
4.39057e-07
4.72619e-07
-8.53044e-08
-4.33499e-07
5.05031e-07
-8.48902e-08
5.3515e-07
-7.89382e-08
5.60192e-07
-5.75212e-08
5.64684e-07
-1.87411e-08
5.46771e-07
2.69752e-08
4.08874e-07
6.49463e-08
3.96643e-07
9.08226e-08
3.92198e-07
9.9893e-08
9.58029e-08
3.84953e-07
3.9039e-07
-1.03308e-07
-3.72386e-07
4.02976e-07
-9.74764e-08
4.12483e-07
-8.84457e-08
4.14393e-07
-5.94311e-08
3.20074e-07
-9.58129e-09
3.22304e-07
2.24298e-08
3.30579e-07
5.62972e-08
3.35853e-07
8.53636e-08
3.36401e-07
9.92405e-08
1.03956e-07
3.28193e-07
3.30041e-07
-1.03865e-07
-3.29484e-07
3.24048e-07
-9.14835e-08
3.14803e-07
-7.92008e-08
2.99799e-07
-4.44313e-08
2.3552e-07
-1.30411e-11
2.29772e-07
2.78113e-08
2.28388e-07
5.73615e-08
2.31443e-07
8.20676e-08
2.34599e-07
9.59459e-08
1.08923e-07
2.29578e-07
2.44504e-07
-1.01794e-07
-2.46575e-07
2.27276e-07
-7.42555e-08
1.98381e-07
-5.03067e-08
1.57706e-07
-2.47952e-08
1.41377e-07
4.29986e-09
1.33188e-07
3.51017e-08
1.32044e-07
6.09351e-08
1.35923e-07
8.05979e-08
1.32429e-07
1.0185e-07
1.18644e-07
1.20348e-07
7.28361e-08
-7.00515e-08
-1.0458e-07
4.34256e-08
-4.48452e-08
1.16788e-08
-1.73556e-08
1.67088e-09
-1.19262e-08
3.86553e-09
2.18806e-09
6.34201e-09
3.3108e-08
7.75871e-09
5.85854e-08
4.4639e-09
8.32795e-08
-1.87228e-10
1.04677e-07
1.17124e-07
1.26655e-09
-2.47678e-08
-4.27177e-08
-2.01461e-09
-3.7035e-08
-2.51401e-08
-3.31369e-08
-1.54753e-08
-3.13253e-08
-1.37502e-08
-5.12591e-08
2.14285e-08
-6.32741e-08
4.47337e-08
-6.54055e-08
6.07007e-08
-5.84403e-08
7.62982e-08
-4.2288e-08
8.85016e-08
9.11327e-08
-1.63712e-08
-7.14945e-08
-2.63574e-08
5.95808e-08
-7.06326e-08
-1.64568e-08
-6.94106e-08
-1.67098e-08
-6.9023e-08
-1.41522e-08
-7.90617e-08
3.14509e-08
-8.2061e-08
4.77169e-08
-7.46337e-08
5.32574e-08
-5.14622e-08
5.31107e-08
-2.50206e-08
6.20439e-08
6.614e-08
6.57179e-09
-1.06586e-07
-3.12721e-08
1.11497e-07
-8.30682e-08
-2.72998e-08
-7.85026e-08
-2.12808e-08
-7.85476e-08
-1.41197e-08
-7.39861e-08
2.98426e-08
-6.1261e-08
3.88567e-08
-4.22743e-08
4.1552e-08
-2.2321e-08
4.24143e-08
-4.46306e-09
5.46726e-08
5.53521e-08
1.39681e-08
-1.91882e-07
-4.05135e-08
2.02794e-07
-1.80343e-07
-4.04148e-08
-1.62152e-07
-4.04789e-08
-1.48321e-07
-2.70318e-08
-1.11111e-07
-6.09594e-09
-6.93606e-08
-2.52856e-09
-3.79198e-08
1.03424e-08
-2.45033e-08
2.9435e-08
-2.06488e-08
5.1199e-08
6.29826e-08
-2.82699e-08
-2.1015e-07
-4.1373e-08
2.10643e-07
-1.99339e-07
-5.35124e-08
-1.76526e-07
-6.32592e-08
-1.44495e-07
-5.90308e-08
-1.05284e-07
-4.52671e-08
-7.74706e-08
-2.85195e-08
-7.99832e-08
1.2892e-08
-1.00251e-07
4.73057e-08
-1.21489e-07
6.98973e-08
8.40404e-08
-1.43628e-07
-1.8187e-07
-3.8072e-08
1.77801e-07
-2.02305e-07
-4.84841e-08
-2.00288e-07
-6.52453e-08
-1.94729e-07
-6.4549e-08
-1.81216e-07
-4.34884e-08
-1.78403e-07
-1.57766e-08
-1.86569e-07
2.10446e-08
-1.86911e-07
4.75218e-08
-2.12157e-07
6.1356e-08
7.39076e-08
-2.02003e-07
-1.63909e-07
-3.23248e-08
1.55096e-07
-1.99334e-07
-2.86797e-08
-2.31227e-07
-3.32939e-08
-2.30174e-07
-3.49598e-08
-2.52159e-07
-2.1506e-08
-2.68936e-07
9.9772e-10
-2.67892e-07
1.99978e-08
-2.54391e-07
3.4007e-08
-2.3961e-07
4.64495e-08
5.65521e-08
-2.53731e-07
-2.52899e-07
-2.34114e-08
2.349e-07
-2.68991e-07
-1.21423e-08
-2.88224e-07
-1.37955e-08
-2.68738e-07
-2.01888e-08
-2.73563e-07
-1.66825e-08
-2.76796e-07
4.22972e-09
-2.74022e-07
1.72216e-08
-2.65122e-07
2.51033e-08
-2.51597e-07
3.29109e-08
4.24955e-08
-2.37664e-07
-3.10901e-07
-2.38268e-08
3.10911e-07
-3.06121e-07
-1.55352e-08
-3.00734e-07
-1.74851e-08
-2.88439e-07
-3.0686e-08
-2.62553e-07
-3.26996e-08
-2.25964e-07
-1.11006e-08
-2.13903e-07
5.1573e-09
-2.05057e-07
1.62528e-08
-1.8784e-07
1.5683e-08
1.54673e-08
-1.65411e-07
-2.59269e-07
-4.59914e-08
2.77142e-07
-2.21521e-07
-5.75434e-08
-1.95139e-07
-4.84922e-08
-2.22294e-07
-3.83899e-08
-2.17756e-07
-3.72373e-08
-1.96403e-07
-3.24529e-08
-1.68972e-07
-2.16145e-08
-1.35042e-07
-1.08345e-08
-1.03339e-07
-6.27294e-09
-1.61093e-09
-8.8243e-08
-1.9194e-07
-4.82923e-08
2.02495e-07
-2.07275e-07
-6.02457e-08
-2.00809e-07
-5.77053e-08
-1.89408e-07
-4.97906e-08
-1.83856e-07
-4.27883e-08
-1.78723e-07
-3.75858e-08
-1.66915e-07
-3.34219e-08
-1.48156e-07
-2.95921e-08
-1.26977e-07
-2.41251e-08
-1.54847e-08
-1.10731e-07
-1.77025e-07
-5.15185e-08
1.80275e-07
-1.76815e-07
-6.04366e-08
-1.74209e-07
-6.03052e-08
-1.68548e-07
-5.54502e-08
-1.64194e-07
-4.71415e-08
-1.61087e-07
-4.06927e-08
-1.57589e-07
-3.69198e-08
-1.52478e-07
-3.47024e-08
-1.45924e-07
-3.06785e-08
-2.72884e-08
-1.34044e-07
-1.52952e-07
-5.5708e-08
1.55838e-07
-1.53035e-07
-5.998e-08
-1.49448e-07
-6.28631e-08
-1.46971e-07
-5.70923e-08
-1.42734e-07
-5.13427e-08
-1.40136e-07
-4.3291e-08
-1.3878e-07
-3.8275e-08
-1.37606e-07
-3.58766e-08
-1.35008e-07
-3.32758e-08
-2.99538e-08
-1.32343e-07
-1.4945e-07
-7.16803e-08
1.65435e-07
-1.41024e-07
-6.8413e-08
-1.3829e-07
-6.56233e-08
-1.33402e-07
-6.20259e-08
-1.24784e-07
-5.89612e-08
-1.18767e-07
-4.98645e-08
-1.15517e-07
-4.14347e-08
-1.13291e-07
-3.81185e-08
-1.0908e-07
-3.74866e-08
-3.62139e-08
-1.02819e-07
-1.69473e-07
-9.95995e-08
1.97648e-07
-1.52982e-07
-8.48538e-08
-1.40067e-07
-7.8584e-08
-1.31863e-07
-7.02744e-08
-1.22777e-07
-6.80912e-08
-1.09537e-07
-6.31496e-08
-9.74239e-08
-5.35946e-08
-9.15355e-08
-4.62703e-08
-8.47748e-08
-4.42473e-08
-4.41972e-08
-7.67914e-08
-1.85901e-07
-1.20052e-07
2.06418e-07
-1.62868e-07
-1.07812e-07
-1.47476e-07
-9.39574e-08
-1.35526e-07
-8.22671e-08
-1.204e-07
-8.32655e-08
-1.04323e-07
-7.92737e-08
-9.15137e-08
-6.92993e-08
-8.02137e-08
-5.93417e-08
-6.96202e-08
-5.54717e-08
-4.97289e-08
-6.40881e-08
-1.56828e-07
-1.30782e-07
1.67632e-07
-1.37106e-07
-1.27459e-07
-1.18028e-07
-1.12923e-07
-9.99206e-08
-1.00222e-07
-8.81118e-08
-9.48995e-08
-7.8768e-08
-9.00544e-08
-6.60439e-08
-8.20127e-08
-5.38835e-08
-7.14904e-08
-4.6498e-08
-6.28534e-08
-5.32413e-08
-4.23661e-08
-8.75636e-08
-1.19493e-07
7.97931e-08
-8.14646e-08
-1.31904e-07
-6.48702e-08
-1.2812e-07
-5.37477e-08
-1.0972e-07
-4.70054e-08
-1.00244e-07
-3.12714e-08
-1.03927e-07
-1.61391e-08
-9.66592e-08
-2.24354e-09
-8.53819e-08
4.89529e-09
-6.99884e-08
-5.12706e-08
2.56664e-09
2.9889e-08
-1.42122e-07
-1.71587e-08
2.8964e-08
-1.30183e-07
2.20261e-08
-1.18546e-07
1.98766e-08
-1.04227e-07
2.34228e-08
-1.00486e-07
2.70001e-08
-1.03579e-07
3.59805e-08
-1.02377e-07
4.55827e-08
-9.37919e-08
5.4188e-08
-7.85894e-08
-5.6574e-08
5.94958e-08
7.64369e-08
-1.57349e-07
-6.44077e-08
8.50621e-08
-1.38042e-07
9.01403e-08
-1.22945e-07
9.5786e-08
-1.11412e-07
9.46364e-08
-1.05412e-07
8.97555e-08
-1.04054e-07
8.27523e-08
-9.69013e-08
7.55335e-08
-8.29447e-08
6.89486e-08
-7.20002e-08
-6.04169e-08
7.27949e-08
1.05331e-07
-1.70343e-07
-9.23387e-08
1.01222e-07
-1.31395e-07
1.07612e-07
-1.26421e-07
1.15808e-07
-1.19607e-07
1.18848e-07
-1.08451e-07
1.14273e-07
-9.9478e-08
1.04788e-07
-9.15543e-08
9.68344e-08
-7.34476e-08
8.26871e-08
-5.77265e-08
-5.13101e-08
7.35815e-08
9.00203e-08
-1.67903e-07
-9.4725e-08
1.02325e-07
-1.41255e-07
1.08229e-07
-1.31161e-07
1.14598e-07
-1.25577e-07
1.17036e-07
-1.10888e-07
1.13156e-07
-9.55966e-08
9.94814e-08
-7.93008e-08
8.57388e-08
-6.09945e-08
7.53222e-08
-4.71251e-08
-4.23549e-08
6.6367e-08
5.95403e-08
-1.57953e-07
-7.18049e-08
6.20184e-08
-1.49743e-07
6.5187e-08
-1.37566e-07
6.87026e-08
-1.29516e-07
7.06532e-08
-1.12834e-07
6.41592e-08
-8.91022e-08
5.151e-08
-6.66516e-08
4.15981e-08
-5.10826e-08
3.73814e-08
-4.29085e-08
-4.18985e-08
3.6925e-08
-3.97881e-08
-1.3774e-07
1.62083e-08
-4.89181e-08
-1.40607e-07
-4.44398e-08
-1.42039e-07
-3.59524e-08
-1.37991e-07
-2.79818e-08
-1.20737e-07
-2.90992e-08
-8.77246e-08
-3.18393e-08
-6.39068e-08
-3.105e-08
-5.18718e-08
-2.78182e-08
-4.61403e-08
-4.59661e-08
-2.37507e-08
-1.28665e-07
-1.19444e-07
1.10356e-07
-1.38751e-07
-1.30537e-07
-1.35949e-07
-1.44818e-07
-1.2557e-07
-1.48338e-07
-1.04029e-07
-1.33143e-07
-9.31719e-08
-8.61218e-08
-9.84527e-08
-5.4531e-08
-9.39188e-08
-5.66531e-08
-7.93357e-08
-6.07237e-08
-6.03006e-08
-6.50012e-08
-1.61434e-07
-9.29541e-08
1.3526e-07
-1.80685e-07
-1.11298e-07
-1.82902e-07
-1.42569e-07
-1.80791e-07
-1.50395e-07
-1.5945e-07
-1.36319e-07
-1.42963e-07
-1.02956e-07
-1.26781e-07
-7.10541e-08
-1.25625e-07
-5.85124e-08
-1.33495e-07
-5.82504e-08
-5.63976e-08
-1.37405e-07
-1.58952e-07
-4.29589e-08
1.19187e-07
-2.0053e-07
-7.26916e-08
-2.09335e-07
-1.3371e-07
-2.1273e-07
-1.46869e-07
-2.01529e-07
-1.41554e-07
-1.8427e-07
-1.20559e-07
-1.64091e-07
-9.15808e-08
-1.52277e-07
-7.07128e-08
-1.60486e-07
-5.04522e-08
-3.9406e-08
-1.88263e-07
-9.38265e-08
-1.65635e-08
6.74278e-08
-1.33736e-07
-3.66577e-08
-1.88077e-07
-8.35785e-08
-2.0658e-07
-1.30912e-07
-2.09001e-07
-1.3903e-07
-1.95551e-07
-1.33208e-07
-1.74688e-07
-1.11909e-07
-1.60159e-07
-8.56519e-08
-1.66204e-07
-4.50515e-08
-2.43367e-08
-1.94086e-07
-9.19912e-08
2.29351e-08
5.24908e-08
-1.10215e-07
-1.84427e-08
-1.40363e-07
-6.35995e-08
-1.8111e-07
-1.16609e-07
-1.86119e-07
-1.33923e-07
-1.85944e-07
-1.33284e-07
-1.72571e-07
-1.25182e-07
-1.52445e-07
-1.04676e-07
-1.35003e-07
-6.20688e-08
-3.37107e-08
-1.25247e-07
-1.35575e-07
6.40085e-08
9.4497e-08
-1.53138e-07
-9.30711e-10
-1.6344e-07
-8.82127e-08
-1.81352e-07
-1.26327e-07
-1.86265e-07
-1.28911e-07
-1.93934e-07
-1.25513e-07
-1.95676e-07
-1.23269e-07
-1.86862e-07
-1.12985e-07
-1.63764e-07
-6.85549e-08
-2.58105e-08
-1.62663e-07
-2.38161e-07
5.77964e-08
2.60809e-07
-2.23795e-07
-1.69189e-08
-2.496e-07
-1.00985e-07
-2.53896e-07
-1.2146e-07
-2.76236e-07
-1.06456e-07
-3.11987e-07
-8.67619e-08
-3.35931e-07
-8.21757e-08
-2.92649e-07
-7.67494e-08
-2.86935e-07
-6.54198e-08
-4.8514e-08
-2.65083e-07
-3.73997e-07
6.36465e-08
2.99453e-07
-3.46403e-07
-3.06247e-08
-3.08519e-07
-1.41502e-07
-2.82359e-07
-1.10484e-07
-3.05527e-07
-4.09484e-08
-3.04042e-07
-2.49991e-08
-2.53169e-07
-2.65149e-08
-2.7046e-07
-4.70879e-08
-3.5397e-07
-8.81333e-08
-7.78214e-08
-3.6694e-07
-9.20825e-08
3.62367e-08
1.19254e-07
-1.39694e-07
-1.04736e-08
-1.93259e-07
-5.76802e-08
-1.77531e-07
-6.05372e-08
-1.87467e-07
-3.09493e-08
-1.99167e-07
-1.33118e-08
-2.12642e-07
-1.30587e-08
-2.49508e-07
-3.29813e-08
-3.40761e-07
-6.88589e-08
-1.15884e-07
-3.12201e-07
-8.17307e-08
-5.13516e-09
1.22837e-07
-6.89883e-08
-2.34815e-08
-9.38989e-08
-3.28327e-08
-1.19163e-07
-3.521e-08
-1.28842e-07
-2.12828e-08
-1.29418e-07
-1.27492e-08
-1.28512e-07
-1.39771e-08
-1.34039e-07
-2.74731e-08
-1.49224e-07
-5.36266e-08
-7.60598e-08
-2.24419e-07
-2.08257e-07
-5.6496e-08
2.59379e-07
-1.70989e-07
-6.10147e-08
-1.81261e-07
-6.56391e-08
-1.77667e-07
-3.41381e-08
-1.6581e-07
-3.30757e-08
-1.49688e-07
-2.88848e-08
-1.40075e-07
-2.3599e-08
-1.37841e-07
-2.97113e-08
-1.45368e-07
-4.61443e-08
-6.65897e-08
-1.55168e-07
-3.31977e-07
-7.44381e-08
3.49304e-07
-4.4546e-07
-8.88338e-08
-4.19376e-07
-8.69716e-08
-3.82433e-07
-6.56342e-08
-2.60182e-07
-5.87515e-08
-2.35353e-07
-5.37095e-08
-2.18169e-07
-4.07874e-08
-1.96697e-07
-5.12285e-08
-1.73652e-07
-6.96229e-08
-1.25547e-07
-2.23868e-07
-3.6713e-07
-1.01616e-07
4.38189e-07
-4.84409e-07
-1.10831e-07
-4.55934e-07
-1.1e-07
-4.30028e-07
-8.66134e-08
-4.07923e-07
-7.54098e-08
-3.43618e-07
-7.33844e-08
-2.76141e-07
-6.99266e-08
-2.24904e-07
-1.03184e-07
-3.26823e-07
-1.31149e-07
-1.55272e-07
-3.47138e-07
-4.78598e-07
-1.74568e-07
5.33171e-07
-4.53814e-07
-1.67532e-07
-3.9152e-07
-1.69699e-07
-3.21422e-07
-8.67976e-08
-3.45417e-07
-4.62685e-08
-3.94626e-07
-5.0802e-08
-3.7385e-07
-1.05232e-07
-3.59756e-07
-1.35509e-07
-3.55674e-07
-1.47243e-07
-1.56311e-07
-3.61236e-07
-5.5942e-07
-1.94993e-07
5.82429e-07
-5.01915e-07
-2.21227e-07
-4.16866e-07
-2.20443e-07
-2.64915e-07
-1.58209e-07
-2.36458e-07
-7.87958e-08
-2.27417e-07
-6.39138e-08
-2.60568e-07
-8.44637e-08
-2.90841e-07
-9.04023e-08
-3.11966e-07
-1.13024e-07
-1.45445e-07
-3.23955e-07
-5.63408e-07
-1.26381e-07
5.03982e-07
-5.69544e-07
-2.03262e-07
-5.4251e-07
-2.3091e-07
-3.74996e-07
-2.1844e-07
-2.99712e-07
-1.51792e-07
-2.48291e-07
-1.27982e-07
-2.07845e-07
-1.44567e-07
-1.75069e-07
-1.41017e-07
-1.72065e-07
-1.33897e-07
-1.28527e-07
-1.55061e-07
-2.4534e-07
-1.02282e-07
2.21003e-07
-2.76415e-07
-1.23845e-07
-3.30479e-07
-1.42776e-07
-3.9155e-07
-1.56454e-07
-3.77067e-07
-1.82139e-07
-3.31841e-07
-1.82189e-07
-2.69289e-07
-2.17739e-07
-2.53773e-07
-1.96169e-07
-1.85252e-07
-2.08711e-07
-2.05185e-07
-1.01042e-07
-1.46119e-07
-9.37048e-08
1.36987e-07
-1.40084e-07
-1.33248e-07
-1.0609e-07
-1.83468e-07
-1.30167e-07
-1.41984e-07
-1.87013e-07
-1.08942e-07
-2.68949e-07
-7.66646e-08
-2.98452e-07
-1.73319e-07
-2.77948e-07
-2.13801e-07
-2.48131e-07
-2.35197e-07
-2.66571e-07
-1.82179e-07
-1.25827e-07
-1.60571e-07
8.50114e-08
-1.50874e-07
-2.08095e-07
-1.85805e-07
-2.2077e-07
-9.09299e-08
-2.53485e-07
-6.78113e-08
-1.24301e-07
-9.15206e-08
-5.10938e-08
-1.21122e-07
-5.92678e-08
-1.97471e-07
-9.61063e-08
-2.62691e-07
-1.69565e-07
-3.31404e-07
-2.35774e-07
-9.67183e-08
-1.71894e-07
1.09044e-07
-1.03193e-07
-2.00684e-07
-1.00001e-07
-2.22988e-07
-9.60599e-08
-2.56485e-07
-4.78677e-08
-1.61836e-07
-6.35883e-08
-3.60871e-08
-1.00936e-07
-2.34798e-08
-1.30237e-07
-6.7519e-08
-1.22709e-07
-2.07193e-07
-3.78414e-07
-1.22397e-07
-1.1301e-08
-1.31785e-07
1.25901e-08
-1.66858e-08
-1.94295e-07
-2.56892e-08
-2.13049e-07
-4.50044e-08
-2.36078e-07
-4.54841e-08
-1.77877e-07
-2.78647e-08
-2.91235e-08
-4.48534e-08
-8.05035e-09
-6.80487e-08
-6.9344e-08
-2.32751e-08
-1.82691e-07
-1.98398e-07
-1.02032e-09
6.97441e-08
-5.18661e-08
-5.16698e-08
7.6513e-08
-1.17163e-07
7.59819e-08
-2.11426e-07
7.4654e-08
-2.33276e-07
6.27526e-08
-2.09387e-07
3.95619e-08
-6.14883e-08
3.13321e-08
-3.42009e-10
4.75584e-08
-4.51666e-08
3.5715e-08
-1.45963e-07
-1.89085e-07
2.62054e-08
1.18764e-07
-4.01769e-08
-1.30479e-07
2.0021e-07
-5.25913e-08
2.35951e-07
-9.6821e-08
2.19578e-07
-2.14688e-07
2.25107e-07
-2.18375e-07
1.15537e-07
-1.5231e-07
1.43319e-07
-3.02337e-08
1.4097e-07
-4.29455e-08
9.68641e-08
-1.01069e-07
-1.67647e-07
7.53572e-08
1.94617e-07
-4.81459e-08
-1.86773e-07
1.90491e-07
-4.84979e-08
3.06289e-07
-5.23271e-08
4.18857e-07
-9.90209e-08
3.91597e-07
-1.99949e-07
3.27203e-07
-1.87287e-07
2.00747e-07
-1.09816e-07
2.15613e-07
-5.7762e-08
1.89255e-07
-7.48831e-08
-1.34739e-07
1.5615e-07
2.57688e-07
-4.65536e-08
-2.59307e-07
2.55633e-07
-4.65137e-08
2.50425e-07
-4.73616e-08
4.15153e-07
-5.36301e-08
5.36392e-07
-1.08921e-07
5.35562e-07
-1.71666e-07
3.82984e-07
-1.80086e-07
2.48002e-07
-1.11702e-07
2.61567e-07
-8.62271e-08
-1.24111e-07
2.50259e-07
3.24184e-07
-4.03345e-08
-3.30818e-07
3.16396e-07
-3.8938e-08
3.08644e-07
-3.98411e-08
2.97329e-07
-4.2655e-08
5.62781e-07
-5.70499e-08
6.51654e-07
-1.28086e-07
6.59481e-07
-1.71895e-07
3.73788e-07
-2.00835e-07
2.88155e-07
-1.35435e-07
-1.42287e-07
3.04929e-07
3.31254e-07
-2.93183e-08
-3.44189e-07
3.20765e-07
-2.89641e-08
3.11179e-07
-3.06419e-08
3.01887e-07
-3.33581e-08
4.10396e-07
-4.28551e-08
7.32293e-07
-1.10647e-07
7.2273e-07
-1.66367e-07
7.1794e-07
-2.18459e-07
3.44285e-07
-2.41326e-07
-1.72056e-07
3.53101e-07
2.61642e-07
-3.29233e-08
-2.57032e-07
2.70668e-07
-3.79402e-08
2.78148e-07
-3.87302e-08
2.93951e-07
-4.88774e-08
5.22182e-07
-7.75993e-08
7.25495e-07
-1.24727e-07
7.319e-07
-1.7098e-07
7.38874e-07
-2.27833e-07
5.19124e-07
-2.7867e-07
-2.04332e-07
3.77258e-07
2.20213e-07
-6.49996e-08
-1.87382e-07
2.52158e-07
-6.88828e-08
3.0519e-07
-9.16245e-08
5.05035e-07
-9.53356e-08
6.28788e-07
-1.13544e-07
6.5625e-07
-1.50933e-07
6.8659e-07
-2.00199e-07
7.23956e-07
-2.63408e-07
4.51319e-07
-2.85461e-07
-2.46427e-07
3.8943e-07
3.90679e-07
-1.08879e-07
-4.85004e-07
4.42542e-07
-1.0385e-07
5.13556e-07
-1.06249e-07
5.23932e-07
-1.03684e-07
5.39424e-07
-1.27778e-07
5.73984e-07
-1.84388e-07
6.39113e-07
-2.64187e-07
7.15083e-07
-3.43854e-07
4.88664e-07
-2.88837e-07
-2.58832e-07
4.62028e-07
4.68114e-07
-1.03643e-07
-4.73077e-07
4.62024e-07
-9.73046e-08
4.23698e-07
-7.47268e-08
4.04031e-07
-7.64314e-08
4.31327e-07
-1.25139e-07
4.9431e-07
-2.46114e-07
6.47484e-07
-4.16333e-07
5.62506e-07
-5.19769e-07
4.6206e-07
-3.01972e-07
-3.35406e-07
4.90382e-07
2.71111e-07
-9.6743e-08
-2.70891e-07
2.28046e-07
-7.7921e-08
2.10458e-07
-6.3977e-08
1.99362e-07
-7.21745e-08
2.75549e-07
-1.66379e-07
4.67119e-07
-3.85178e-07
6.57675e-07
-6.05517e-07
6.08715e-07
-6.22645e-07
4.36724e-07
-4.68989e-07
-3.33807e-07
5.67877e-07
1.36267e-07
-1.03482e-07
-1.41556e-07
1.3839e-07
-9.40976e-08
1.04838e-07
-4.39885e-08
3.68512e-08
-8.09216e-09
1.65726e-07
-2.30845e-07
3.89999e-07
-5.28535e-07
5.32948e-07
-7.22953e-07
5.02379e-07
-6.31663e-07
2.98228e-07
-3.22373e-07
-1.30249e-07
2.45748e-07
1.44092e-07
-1.28845e-07
-1.18732e-07
1.30976e-07
-8.09798e-08
8.41965e-08
2.79274e-09
2.62029e-08
4.34728e-08
1.28047e-07
-3.40939e-07
2.87516e-07
-6.539e-07
3.30389e-07
-7.85213e-07
2.40869e-07
-5.72775e-07
1.3734e-07
-2.00733e-07
-1.26102e-07
1.24423e-07
1.18858e-07
-1.60724e-07
-8.69761e-08
1.38535e-07
-1.00655e-07
1.3088e-07
1.04495e-08
1.06372e-07
4.98493e-08
1.42922e-07
-3.88674e-07
2.51687e-07
-7.44173e-07
2.3009e-07
-8.03856e-07
1.30279e-07
-5.01667e-07
1.00609e-07
-1.79832e-07
-1.43434e-07
1.0917e-07
9.654e-08
-2.09765e-07
-4.74816e-08
1.54588e-07
-1.58699e-07
2.093e-07
-4.42613e-08
1.3851e-07
7.59873e-08
1.96905e-07
-4.69945e-07
2.44903e-07
-7.97935e-07
1.72931e-07
-6.42381e-07
9.37203e-08
-4.26369e-07
9.96677e-08
-2.45077e-07
-1.48498e-07
9.59623e-08
1.05583e-07
-2.25981e-07
-8.61339e-08
1.303e-07
-1.83399e-07
9.68857e-08
-3.65198e-08
6.46697e-08
5.78746e-08
2.06154e-07
-6.37703e-07
2.27418e-07
-8.18356e-07
8.89332e-08
-4.38695e-07
4.97768e-08
-3.44179e-07
6.54286e-08
-2.31923e-07
-1.1803e-07
2.49667e-08
1.25416e-07
-1.3904e-07
-1.9721e-07
-5.58337e-09
-4.69964e-08
-5.26337e-08
2.80174e-08
1.11935e-08
-2.18086e-08
1.03213e-07
-7.65061e-07
1.24228e-07
-8.37612e-07
1.41975e-08
-3.37099e-07
-1.1924e-08
-2.87396e-07
-9.14807e-09
-1.75861e-07
-1.17177e-07
-3.39625e-08
8.27828e-08
-1.95541e-08
-1.95056e-07
-4.88356e-08
1.08283e-07
-3.55978e-08
6.45429e-08
4.20533e-08
-1.75599e-07
6.46116e-08
-7.88876e-07
4.24413e-08
-8.13682e-07
-8.62902e-09
-2.95105e-07
-4.48504e-08
-1.29841e-07
-7.59639e-08
-1.44937e-07
-1.9873e-07
-1.36148e-07
6.44292e-08
1.83835e-07
-2.64223e-07
-4.05847e-08
1.19438e-07
-3.79485e-08
6.1104e-08
5.94427e-08
-2.69842e-07
5.33877e-08
-7.80658e-07
5.07153e-08
-8.09249e-07
-6.78377e-09
-2.36826e-07
-6.42964e-08
-7.4135e-08
-1.14214e-07
-8.38386e-08
-1.75761e-07
-2.9845e-07
-8.31898e-08
1.1429e-07
6.76024e-08
-6.42458e-08
9.94615e-08
-1.30537e-08
8.94569e-09
-1.16681e-09
-2.65277e-07
-5.85786e-09
-7.7258e-07
-5.02223e-09
-8.02891e-07
-1.54831e-08
-2.27311e-07
-5.1832e-08
-3.81461e-08
-1.12095e-07
-2.53823e-08
-8.10285e-08
-3.34457e-07
-9.2305e-08
7.30347e-08
1.32653e-07
-3.84153e-08
4.47995e-08
1.14564e-08
-4.18632e-08
-2.02723e-08
-2.34901e-07
-2.83748e-08
-7.59133e-07
-2.98504e-08
-8.06023e-07
-7.49664e-09
-2.50058e-07
-2.09412e-08
3.8068e-09
-8.72009e-08
2.44617e-08
-2.63074e-08
-2.8955e-07
-5.0065e-08
3.29058e-08
8.94177e-08
3.55856e-09
-9.61903e-09
1.8337e-08
-5.74366e-08
2.64333e-08
-2.49689e-07
1.48289e-08
-7.43379e-07
1.11432e-09
-7.99735e-07
-3.80407e-09
-2.56922e-07
-2.30096e-08
4.08324e-08
-1.09486e-07
8.39785e-08
6.93321e-08
-2.66215e-07
1.21874e-08
-1.6013e-08
3.5825e-08
2.37613e-08
-2.19879e-08
3.83323e-08
-1.48078e-07
4.25876e-08
-2.63447e-07
4.6915e-08
-7.57033e-07
3.29187e-08
-7.83247e-07
7.96894e-09
-2.61764e-07
-1.91396e-09
3.69944e-08
-2.66985e-08
1.00068e-07
1.20434e-07
-1.42423e-07
5.2847e-08
-1.11338e-07
-2.24926e-09
1.97819e-08
-2.54578e-08
1.27471e-08
-1.22449e-07
3.64501e-08
-2.66564e-07
2.42769e-08
-7.56296e-07
2.86285e-08
-7.84384e-07
6.41225e-09
-2.52339e-07
3.63268e-08
3.99754e-08
5.15393e-08
8.38478e-08
1.10622e-07
2.92607e-10
-7.67262e-08
-1.25722e-07
9.20053e-08
-1.79232e-08
-1.004e-07
-1.46323e-09
-1.15527e-07
-5.64645e-08
-2.04476e-07
-4.10726e-08
-7.84441e-07
-4.12741e-08
-7.79975e-07
-1.18764e-08
-2.72154e-07
3.80787e-09
2.37011e-08
5.15727e-09
8.16315e-08
1.12109e-07
2.52772e-09
-9.85864e-08
-1.37971e-07
1.1173e-07
-6.42403e-08
-1.32451e-07
-3.44666e-08
-1.04907e-07
-3.46806e-08
-1.96713e-07
-4.4979e-08
-7.89028e-07
-4.17939e-08
-7.78229e-07
-1.90492e-08
-2.7209e-07
-1.2008e-08
3.23388e-08
-2.09497e-08
8.94312e-08
9.43854e-08
-4.09905e-09
-7.48004e-08
-1.36322e-07
7.40412e-08
-5.98233e-08
-1.41809e-07
-4.94268e-08
-9.23127e-08
-3.22464e-08
-2.03831e-07
-3.55175e-08
-7.96558e-07
-2.33879e-08
-7.86021e-07
-2.0724e-08
-2.55465e-07
-2.94444e-08
4.15948e-08
1.94931e-08
1.26106e-07
1.22541e-07
5.2134e-08
-8.58014e-08
-1.50233e-07
1.00668e-07
-5.87739e-08
-1.71066e-07
-4.33602e-08
-1.19619e-07
-7.5269e-09
-2.31195e-07
-3.49782e-09
-8.03735e-07
-2.7495e-09
-7.892e-07
-4.68862e-09
-2.49744e-07
-2.62982e-08
4.79184e-08
6.58967e-08
5.92831e-08
1.63239e-08
2.09408e-07
-1.02664e-07
-1.71604e-07
1.25673e-07
-5.4058e-08
-1.86767e-07
-1.96366e-09
-1.73493e-07
1.5616e-08
-2.40561e-07
1.58514e-08
-8.01179e-07
1.34929e-08
-7.88131e-07
1.56726e-08
-2.48411e-07
1.42846e-08
4.64812e-08
1.03673e-07
-2.40827e-08
-4.0464e-08
1.5786e-07
-3.04595e-08
-3.94609e-08
2.35024e-08
-6.84744e-08
-3.65566e-08
-1.39367e-08
-1.09569e-07
3.30783e-08
-2.76143e-07
2.37345e-08
-7.87067e-07
-5.53581e-09
-7.58906e-07
3.62917e-09
-2.56502e-07
4.09354e-08
1.90314e-08
6.06728e-08
-3.45013e-08
0
2.28617e-09
-3.10743e-10
-1.51514e-10
-2.3326e-12
-2.90659e-09
0
-6.50505e-10
-1.71483e-11
1.43719e-08
-2.78565e-07
7.76435e-09
-7.86621e-07
-2.77796e-09
-7.45914e-07
1.37771e-10
-2.5246e-07
3.6675e-08
-3.78698e-08
0
-4.99842e-10
5.05208e-10
2.73983e-10
-1.95441e-10
0
2.37387e-12
0
-1.16184e-10
2.82132e-12
-1.657e-11
1.00077e-09
-2.71234e-07
-2.87687e-08
-7.59241e-07
-3.07915e-08
-7.42158e-07
-2.5574e-08
-2.51335e-07
-3.66419e-12
-2.83743e-08
-4.98392e-10
-2.4627e-11
4.53733e-11
-4.30203e-11
-4.99964e-11
2.40122e-12
2.96214e-12
2.74038e-11
-4.59682e-10
2.55772e-11
-1.54463e-11
1.32979e-08
-2.93009e-07
-1.39364e-08
-7.32161e-07
-3.99105e-08
-7.19072e-07
-1.6291e-08
-2.75036e-07
-1.21744e-10
-1.65293e-08
-4.70246e-11
-1.0381e-10
1.42665e-11
-1.79001e-11
1.20292e-10
-3.19554e-12
3.55012e-10
0
-8.34135e-12
1.40493e-12
-1.71168e-11
7.92777e-09
-3.00799e-07
-1.23847e-08
-7.09481e-07
-2.98868e-08
-7.0506e-07
-1.41846e-08
-2.9625e-07
1.62223e-11
-4.34908e-09
-4.66141e-12
-1.32306e-10
9.1111e-12
-1.7255e-12
-4.85018e-12
-5.18947e-12
4.6124e-12
2.85393e-13
-1.42272e-11
2.66447e-12
-2.02039e-11
2.55973e-08
-3.16703e-07
2.17406e-09
-6.84627e-07
-1.73444e-08
-6.87536e-07
-3.27284e-09
-3.21699e-07
0
-6.6125e-12
2.56557e-11
-1.22953e-12
4.45716e-11
5.53782e-12
2.23312e-12
-3.10636e-12
-5.78085e-12
5.51134e-12
-1.83627e-11
1.4788e-11
-3.02308e-11
3.66784e-08
-3.47723e-07
1.17675e-08
-6.58917e-07
-1.65238e-08
-6.60346e-07
-4.41478e-12
-3.5007e-07
2.66683e-12
-1.36701e-11
3.47263e-12
-2.02335e-12
8.41268e-13
4.68591e-11
1.79047e-11
-5.46762e-11
-2.38168e-11
3.37304e-11
-6.85676e-11
8.7629e-11
-8.51102e-11
2.69402e-08
-3.73272e-07
5.86608e-09
-6.37695e-07
-1.68991e-08
-6.3771e-07
-2.8761e-11
-3.75002e-07
-7.37446e-13
-4.16817e-11
-7.93058e-13
-1.96979e-12
8.05961e-13
-5.33149e-13
5.20121e-11
-1.81242e-10
-9.47965e-11
9.2679e-11
-1.42768e-10
4.51629e-10
-4.46306e-10
3.5683e-08
-4.08743e-07
5.62314e-09
-6.07592e-07
-2.48443e-08
-6.07031e-07
-2.01123e-10
-3.99306e-07
-2.25327e-12
-2.40553e-10
-2.24982e-12
-1.97415e-12
6.0229e-13
-2.0482e-12
2.43804e-10
-1.61803e-10
-2.15457e-10
9.84065e-11
-1.53151e-11
2.35092e-09
-2.7043e-09
4.59177e-09
-4.06085e-07
-2.0852e-08
-5.82115e-07
-3.65939e-08
-5.91249e-07
-1.48731e-09
-4.27357e-07
-1.43505e-12
-1.72643e-09
-1.3471e-12
-2.0628e-12
9.20757e-13
-1.66647e-12
-1.50987e-12
-3.9102e-11
-4.20677e-11
3.47001e-11
-3.59917e-13
1.22917e-08
-1.49411e-08
3.21366e-08
-4.22863e-07
1.59296e-08
-5.65862e-07
-2.57033e-08
-5.49607e-07
-8.74372e-09
-4.37906e-07
-5.52409e-13
-1.04696e-08
-4.9327e-13
-2.12287e-12
1.48351e-12
-1.05679e-12
0
-3.50446e-12
2.09974e-12
1.06575e-12
-1.75483e-12
3.91786e-08
-5.42003e-08
8.90078e-08
-4.76097e-07
4.49698e-08
-5.21792e-07
2.1741e-08
-5.26357e-07
-5.02501e-09
-4.0855e-07
-1.00078e-12
-1.34478e-08
-8.70883e-13
-2.25354e-12
1.72246e-12
-1.11068e-12
3.43468e-12
-4.60126e-14
7.65553e-13
1.76345e-11
-1.62015e-11
3.47455e-08
-8.91532e-08
2.0428e-08
-4.614e-07
-1.12356e-08
-4.90108e-07
-4.39296e-08
-4.93632e-07
-2.64621e-08
-4.29059e-07
-2.56467e-12
-4.12411e-08
-1.3709e-12
-3.44808e-12
1.72212e-12
-1.37148e-12
6.56613e-14
-2.05468e-13
-7.7505e-14
2.12562e-10
-2.28869e-10
6.87822e-08
-1.62154e-07
5.40027e-08
-4.46793e-07
1.4393e-08
-4.50519e-07
-2.45222e-08
-4.54693e-07
-3.36539e-08
-4.17319e-07
-3.24711e-11
-7.02431e-08
-6.98411e-12
-2.83764e-11
2.75319e-12
-4.62077e-12
3.54808e-12
-3.55979e-12
-3.63126e-13
2.84193e-09
-3.06745e-09
6.82448e-08
-2.35686e-07
2.61439e-08
-4.05483e-07
-1.32676e-08
-4.11099e-07
-5.84178e-08
-4.09566e-07
-7.49081e-08
-3.96355e-07
-6.92982e-10
-1.36763e-07
-1.59969e-11
-7.04899e-10
8.44276e-13
-1.43364e-11
6.76758e-11
-7.02617e-11
-1.0829e-12
2.03418e-08
-2.33417e-08
6.44512e-08
-2.69324e-07
1.59319e-08
-3.56959e-07
-2.84248e-08
-3.66743e-07
-6.91857e-08
-3.68804e-07
-1.04254e-07
-3.61627e-07
-1.08149e-08
-2.41281e-07
-7.14537e-13
-1.15192e-08
7.48653e-14
-1.19301e-13
2.32331e-09
-2.39356e-09
-8.713e-15
7.87539e-08
-1.00605e-07
1.08902e-07
-2.98889e-07
7.1041e-08
-3.19094e-07
2.06203e-08
-3.16322e-07
-3.5424e-08
-3.12759e-07
-8.89568e-08