/*--------------------------------*- C++ -*----------------------------------*\
  =========                 |
  \\      /  F ield         | OpenFOAM: The Open Source CFD Toolbox
   \\    /   O peration     | Website:  https://openfoam.org
    \\  /    A nd           | Version:  8
     \\/     M anipulation  |
\*---------------------------------------------------------------------------*/
FoamFile
{
    version     2.0;
    format      ascii;
    class       volScalarField;
    location    "6.9";
    object      p;
}
// * * * * * * * * * * * * * * * * * * * * * * * * * * * * * * * * * * * * * //

dimensions      [1 -1 -2 0 0 0 0];

internalField   nonuniform List<scalar> 
9150
(
-204.438
-205.45
-206.074
-206.542
-206.786
-206.784
-206.55
-206.084
-205.455
-204.438
-224.495
-225.011
-225.432
-225.744
-225.921
-225.936
-225.76
-225.435
-225.013
-224.495
-244.388
-244.671
-244.926
-245.145
-245.256
-245.255
-245.144
-244.927
-244.671
-244.388
-264.127
-264.302
-264.471
-264.63
-264.708
-264.713
-264.629
-264.471
-264.302
-264.127
-283.75
-283.93
-284.067
-284.198
-284.254
-284.254
-284.194
-284.065
-283.929
-283.75
-118.51
-119.285
-118.976
-118.572
-118.363
-118.346
-118.527
-118.902
-119.229
-118.461
-133.951
-134.661
-134.791
-134.864
-134.766
-134.76
-134.855
-134.778
-134.65
-133.931
-150.384
-151.14
-151.439
-151.81
-151.872
-151.874
-151.815
-151.437
-151.157
-150.403
-167.24
-168.4
-168.867
-169.486
-169.665
-169.674
-169.507
-168.882
-168.42
-167.258
-184.31
-186.36
-187.119
-187.825
-188.098
-188.086
-187.811
-187.117
-186.356
-184.305
-25.3888
-26.5445
-28.4023
-29.3942
-29.9624
-29.9758
-29.3906
-28.1964
-25.9959
-24.2098
-45.4426
-45.6797
-46.6278
-46.9546
-47.3876
-47.2607
-46.7647
-46.327
-45.2636
-44.886
-65.4929
-65.2732
-66.278
-65.7516
-66.3243
-66.2226
-65.8015
-66.104
-65.0357
-65.1881
-88.1904
-85.2999
-86.3066
-84.7221
-84.8751
-84.8173
-84.6736
-86.1384
-85.1849
-88.0335
-113.661
-104.19
-103.657
-102.27
-101.858
-101.861
-102.292
-103.606
-104.134
-113.519
1326.52
1324.34
1322.24
1321.24
1320.56
1320.96
1321.86
1323.45
1325.79
1327.28
1305.39
1303.23
1301.25
1299.02
1296.97
1297.35
1297.93
1299.44
1302.94
1305.31
1282.33
1278.93
1275.02
1271.89
1269.92
1269.51
1270.88
1276.31
1280.54
1282.69
1257.76
1254.17
1249.92
1245.99
1243.82
1245.71
1247.55
1251.06
1255.64
1260.08
1233.29
1230.28
1226.94
1223.89
1223.21
1224.71
1226.66
1229.97
1234.11
1238.55
1210.04
1207.46
1205.08
1203.36
1203.6
1205.3
1206.53
1210.28
1214.16
1218.44
1190.33
1188.38
1187.59
1187.27
1187.16
1186.85
1189.08
1192.41
1196.28
1200.86
1173.28
1172.74
1174.59
1174.52
1174.51
1175.03
1176.55
1178.75
1181.53
1184.44
1158.19
1159.66
1160.37
1160.4
1160.96
1162.11
1163.49
1165.52
1167.46
1168.69
1141.7
1142.86
1146.48
1146.68
1146.34
1146.97
1147.68
1148.88
1149.84
1150.35
1126.9
1127.71
1127.83
1128.25
1129.42
1130.88
1131.38
1131.33
1131.48
1131.61
1111.28
1111.46
1111.58
1111.52
1111.29
1110.51
1109.77
1110.66
1112.19
1113.71
1097.94
1095.42
1095.76
1095.01
1093.81
1093.8
1094.24
1095.15
1095.43
1097.35
1081.82
1080.34
1082.04
1080.39
1081.22
1081.06
1081.53
1082.27
1083.21
1084.04
1064.53
1065.45
1066.17
1066.07
1068.03
1068.38
1069.01
1069.73
1070.63
1071.38
1050.13
1050.27
1050.81
1051.52
1052.3
1055.08
1056.28
1056.62
1057.39
1058
1035.92
1037.63
1038.09
1036.05
1037.71
1038.84
1039.48
1039.45
1040.81
1041.89
1016.81
1018.42
1016.85
1017.71
1018.63
1019.66
1020.42
1020.94
1021.41
1022.22
997.51
998.294
999.077
999.763
1000.48
1001.15
1001.74
1002.29
1002.88
1003.36
978.841
980.034
980.366
981.03
981.766
982.435
983.034
983.573
984.122
984.595
960.551
961.294
961.98
962.642
963.131
963.705
964.289
964.806
965.305
965.78
941.492
942.689
943.578
944.315
945.003
945.668
946.227
946.222
946.543
946.93
922.747
924.008
924.927
925.604
926.478
927.183
927.362
927.588
927.844
928.182
903.645
905.198
906.314
907.075
907.615
908.188
908.707
909.02
909.206
909.292
884.79
886.263
887.503
887.908
888.091
888.566
889.213
889.693
890.05
890.313
867.887
866.756
867.664
868.447
869.051
869.181
869.266
869.538
869.84
870.079
845.877
846.894
847.48
847.082
847.411
847.963
848.748
848.553
848.801
848.907
823.862
826.484
825.102
826.125
826.436
826.476
827.782
827.34
827.044
827.384
803.21
805.078
804.192
804.102
804.141
804.141
804.349
804.788
805.153
805.69
785.041
784.654
783.38
782.572
782.06
781.887
782.221
782.922
783.71
784.34
767.277
765.725
764.356
762.873
761.553
760.921
761.42
762.417
763.398
764.214
751.055
749.303
747.189
744.879
742.936
743.48
743.11
743.312
744.041
744.759
732.203
730.771
729.051
727.344
726.014
726.693
726.477
726.359
725.954
726.817
712.755
709.66
709.838
709.419
708.155
709.239
708.87
708.519
708.398
708.192
695.248
694.2
692.205
691.302
691.427
690.966
691.069
691.005
690.814
690.654
677.265
678.186
677.074
673.622
672.938
672.239
671.709
670.939
670.463
670.481
659.376
660.858
659.104
655.201
653.806
652.296
650.675
649.182
647.777
647.814
640.991
642.504
639.988
636.967
633.844
632.207
630.038
627.51
628.498
632.077
607.593
610.178
611.541
610.778
610.654
610.744
613.686
616.628
612.459
619.869
587.198
584.486
591.544
591.757
593.424
594.205
594.645
594.791
597.167
601.799
578.682
577.512
577.965
578.751
578.916
578.737
578.674
578.577
579.201
579.531
563.951
562.1
560.499
562.464
560.728
562.2
563.868
565.247
566.502
567.682
548.964
540.76
549.501
550.731
544.597
546.659
548.368
550.073
550.728
550.798
529.959
517.3
520.026
522.256
524.093
525.032
530.902
533.911
528.481
529.521
488.736
490.545
491.726
493.893
492.65
496.583
503.755
505.675
507.469
508.137
456.127
459.729
462.535
466.951
472.127
474.015
473.361
478.562
481.608
486.991
413.883
422.422
431.998
438.986
447.051
451.765
456.763
463.271
468.346
470.001
390.228
392.936
397.83
407.344
418.444
426.555
434.077
437.777
445.595
455.201
372.795
377.658
383.329
386.485
388.727
393.368
399.337
408.523
419.17
429.469
350.692
358.498
364.445
364.363
374.234
375.22
372.144
375.516
384.648
401.194
333.036
336.611
341.219
346.389
348.997
351.826
349.9
348.06
349.552
361.274
305.203
311.515
316.484
321.788
326.124
323.827
323.199
316.371
321.236
325.671
288.34
290.386
295.614
301.449
304.126
302.602
302.548
292.157
287.95
296.836
278.91
278.429
278.492
286.532
289.675
287.17
283.508
274.637
269.704
273.498
273.648
272.584
271.426
270.133
279.608
274.888
271.015
265.709
258.622
253.726
271.65
271.261
270.008
268.944
267.611
268.551
258.567
255.033
250.541
244.589
271.646
271.781
270.936
269.698
268.598
263.919
263.186
250.361
246.88
243.464
273.908
273.957
273.335
272.586
272.573
265.785
266.6
261.27
250.48
244.667
275.926
275.668
275.084
274.917
275.178
269.642
267.892
266.198
260.522
252.59
276.189
276.8
276.814
274.057
273.281
274.14
272.775
269.78
265.157
261.615
267.78
267.998
268.684
273.559
277.773
279.207
278.331
273.795
263.096
263.911
266.106
269.36
271.871
276.365
283.928
288.52
286.261
273.603
265.084
257.551
260.361
259.396
267.943
276.695
286.123
291.727
278.981
253.016
235.933
223.845
243.256
244.565
247.554
253.558
264.516
259.809
238.735
212.69
184.91
184.995
220.911
218.998
216.284
206.923
213.808
204.871
199.236
169.064
156.735
161.265
198.411
197.161
194.546
185.881
189.44
174.609
172.86
150.515
145.6
144.618
178.345
179.193
182.89
185.198
196.354
175.199
154.371
139.419
131.924
136.603
164.928
167.482
164.71
200.871
187.597
171.237
134.45
124.158
121.351
134.135
171.803
174.976
180.88
199.694
161.989
159.858
124.404
117.979
119.577
123.922
159.324
150.137
180.951
179.29
170.545
161.125
129.789
122.525
130.95
124.369
138.597
138.453
152.763
135.929
158.212
143.293
135.226
135.243
132.89
127.635
113.227
121.65
127.131
112.73
143.507
131.177
126.179
127.332
126.27
121.977
101.726
105.946
110.446
108.476
119.961
129.08
111.575
109.695
113.703
111.3
101.141
102.132
101.569
100.494
107.802
123.094
100.363
97.4549
95.7928
94.563
101.307
101.797
98.3953
98.5706
104.803
102.722
78.2529
76.4856
72.1166
68.422
91.1753
92.1323
97.0298
101.677
98.6127
81.6667
52.2856
56.6434
52.7374
47.6414
84.4285
84.4525
84.7563
110.118
75.9474
72.5545
38.1468
40.6702
40.6077
39.8359
68.2041
71.6152
73.3446
91.5179
57.4288
62.5435
31.7086
33.9691
32.1047
32.8727
51.9284
53.7484
56.3814
72.2943
39.9425
51.7586
30.1146
27.5991
29.8717
26.3616
35.3681
36.3261
33.78
54.1472
21.4266
28.6885
33.1192
24.0282
32.5211
28.6685
19.2422
20.6022
13.6915
38.2695
9.67183
13.7356
17.8332
10.7968
22.9126
13.0664
1.38395
-3.27768
-8.07257
1.99784
18.454
11.9264
1.13703
-1.4297
-3.97851
-2.03345
-1.58416
-1.06126
-4.06292
-9.95874
21.2173
9.92693
-4.93264
-5.39983
-2.9497
-2.19664
-1.65579
-1.73838
-1.71977
-4.26961
21.2846
14.2568
-3.01604
-3.6787
-1.79727
-1.64688
-1.64099
-1.6788
-1.67507
-2.3684
20.7815
16.882
-1.21694
-2.36267
-1.64667
-1.63487
-1.50116
-1.82006
-1.65173
-1.65207
18.5312
17.9767
-1.36357
-1.55501
-1.62963
-1.62852
-1.73721
-1.71185
-1.70293
-1.77262
13.8797
20.898
-3.05174
-1.71541
-1.70006
-1.69191
-1.72256
-1.71496
-1.70784
-1.81616
11.6869
19.0203
-2.80425
-1.77109
-1.7794
-1.77928
-1.71769
-1.71323
-1.71239
-1.72309
14.3181
13.2375
-1.88935
-1.82018
-1.82214
-1.81904
-1.75486
-1.7394
-1.70733
-1.57193
13.4884
8.89773
-1.76732
-1.81336
-1.81261
-1.81335
-1.79276
-1.78796
-1.69671
-1.81866
8.91564
8.46445
-1.79723
-1.81753
-1.812
-1.81331
-1.82113
-1.78627
-1.76986
-2.39878
4.64511
10.0803
-1.71875
-1.81909
-1.81947
-1.81991
-1.84346
-1.82481
-1.86691
-2.79069
5.78103
3.62441
-2.08585
-1.84825
-1.83535
-1.83476
-1.85239
-1.85512
-1.94973
-1.8705
2.57163
0.626488
-2.69711
-1.86963
-1.84666
-1.84687
-1.86101
-1.87065
-2.02176
-2.10652
0.642883
-0.125709
-1.71743
-1.99799
-1.85911
-1.85963
-1.87138
-1.87505
-2.06402
-0.510431
-0.103853
-0.665533
-2.13165
-2.26063
-1.86832
-1.86436
-1.88099
-1.85096
-3.51575
-1.36224
-0.461801
-0.762052
-1.91555
-3.04053
-1.87686
-1.88244
-1.90523
-2.61649
-5.04928
-3.0617
-1.49279
-0.967821
-1.6947
-3.94004
-2.11514
-1.908
-1.91844
-3.93107
-5.07353
-5.55119
-5.85077
-5.98022
-6.08565
-6.00529
-3.96154
-1.94223
-2.88876
-9.89814
-13.2356
-15.0953
-15.8852
-15.8433
-14.8896
-12.8325
-9.36684
-2.6237
1330.06
1332.47
1334.05
1336.53
1339.04
1341.39
1343.66
1345.84
1347.63
1349.29
1350.72
1350.6
1351.13
1351.36
1351.47
1351.18
1351.04
1350.81
1350.53
1350.19
1349.86
1349.55
1349.29
1349.1
1349.14
1349.21
1348.13
1348.36
1346.46
1347.18
1347.64
1347.89
1348.03
1348.22
1348.61
1349.2
1349.69
1350.24
1350.31
1350.41
1307.3
1310.77
1313.54
1316.27
1318.88
1321.38
1323.88
1326.29
1327.93
1329.64
1330.95
1331.23
1331.74
1332.01
1332.06
1331.82
1331.65
1331.36
1331.02
1330.62
1330.31
1329.81
1329.34
1329
1328.61
1328.49
1328.29
1327.54
1327.08
1327.72
1328.07
1328.21
1328.16
1328.27
1328.65
1329.09
1329.58
1330.03
1330.23
1330.23
1284.45
1289.04
1292.6
1295.64
1298.47
1301.01
1303.75
1305.71
1307.54
1309.11
1310.76
1311.13
1311.8
1312.26
1312.25
1312.24
1311.89
1311.67
1311.39
1311
1310.55
1309.95
1309.36
1310.31
1310.18
1309.76
1309.06
1308.6
1308.72
1308.68
1308.41
1308.35
1308.33
1308.49
1308.8
1308.89
1309.34
1309.76
1310.01
1310.1
1264.62
1268.32
1271.95
1275.16
1277.67
1279.91
1282.77
1284.67
1286.73
1288.33
1290.77
1290.91
1291.7
1292.26
1291.89
1292.1
1291.69
1291.76
1291.52
1291.03
1290.97
1290.54
1290.22
1291.5
1292.06
1291.42
1289.85
1290.24
1289.39
1289.37
1288.96
1288.81
1288.75
1288.73
1288.45
1288.65
1289.13
1289.56
1289.85
1290.01
1243.56
1247.52
1250.31
1253.45
1255.98
1258.19
1261.02
1263.48
1265.76
1267.55
1270.62
1270.54
1271.45
1271.93
1271.67
1271.95
1271.8
1271.52
1271.58
1271.33
1271.04
1271.25
1271.45
1271.95
1271.98
1272.62
1272.38
1271.09
1271.76
1270.92
1270.37
1268.93
1268.81
1268.26
1268.61
1268.88
1269.22
1269.66
1270.02
1270.16
1223.8
1228.42
1230.28
1232.24
1234.45
1236.62
1239.08
1241.85
1244.34
1246.94
1249.59
1250.04
1251.06
1251.52
1251.75
1251.86
1251.91
1251.86
1251.62
1251.42
1251.49
1251.6
1251.79
1251.97
1252.15
1252.42
1251.54
1251.06
1250.28
1250.27
1250.09
1250.59
1248.18
1247.95
1248.05
1248.74
1249.3
1249.83
1250.16
1250.4
1205.22
1208.98
1210.3
1212.07
1213.82
1215.59
1218.12
1220.64
1223.21
1226.08
1227.66
1229.35
1230.32
1230.93
1231.2
1231.5
1231.66
1231.72
1231.8
1231.84
1232.01
1231.97
1231.95
1232.04
1232.13
1232.33
1232
1231.26
1230.44
1230.18
1229.83
1230.29
1229.51
1228.46
1227.97
1228.6
1229.92
1230.33
1230.77
1231
1187.24
1189.47
1190.9
1192.35
1193.86
1195.7
1197.79
1200.34
1203.38
1204.86
1207.26
1208.55
1209.22
1210.01
1210.67
1211
1211.4
1211.8
1212.09
1212.28
1212.36
1212.72
1212.77
1212.59
1212.6
1212.61
1212.04
1211.2
1211.25
1212.39
1212.27
1212.24
1211.6
1211.11
1211.54
1211.56
1213.45
1212.6
1213.33
1213.64
1169.35
1170.39
1171.39
1172.54
1174.15
1176.43
1178.65
1181.19
1183.43
1184.97
1186.62
1187.66
1188.83
1189.59
1189.99
1190.59
1191.13
1191.55
1192.02
1192.41
1192.7
1192.97
1193.4
1193.53
1193.59
1193.84
1193.08
1192.49
1193.32
1194.67
1195.32
1195.57
1195.74
1196.04
1196.69
1195.86
1196.22
1195.43
1195.08
1196.32
1150.49
1151
1152.09
1153.68
1155.53
1157.78
1160.32
1162.55
1164.36
1165.95
1167.28
1168.33
1169.09
1169.6
1170.36
1170.98
1171.82
1172.51
1172.4
1172.81
1173.29
1173.73
1174.1
1174.48
1174.41
1174.58
1174.49
1174.31
1174.41
1175.02
1176.1
1176.95
1177.04
1178.91
1180.08
1182.14
1177.98
1178.23
1177.86
1177.61
1132.05
1133.02
1134.25
1136.16
1138.46
1140.6
1142.43
1145.16
1145.95
1147.7
1148.9
1149.72
1150.37
1150.86
1151.4
1151.9
1152.46
1153.42
1153.37
1153.66
1154
1154.42
1154.8
1155.39
1155.34
1155.58
1155.76
1155.98
1156.44
1157.13
1157.57
1157.25
1156.88
1157.58
1157.56
1157.39
1157.5
1157.92
1158.07
1158.09
1114.83
1116.13
1117.88
1120.12
1122.12
1123.73
1125.12
1127.04
1127.74
1129.27
1130.32
1131.35
1131.99
1132.4
1132.75
1133.13
1133.61
1134.08
1134.4
1134.45
1134.55
1135.05
1135.5
1136.27
1136.17
1136.41
1136.68
1136.98
1137.23
1137.39
1137.62
1137.94
1138.28
1138.55
1138.33
1137.81
1138.23
1138.55
1138.71
1138.76
1099.13
1100.8
1102.49
1104.26
1105.75
1107.11
1108.19
1108.79
1109.22
1109.86
1110.93
1112.13
1112.84
1113.47
1113.97
1114.48
1114.83
1115.2
1115.81
1116.98
1115.54
1116.35
1116.57
1117.49
1117.22
1117.5
1117.78
1118.02
1118.27
1119.06
1119.93
1120.14
1120.3
1120.3
1119.95
1119.16
1119.48
1119.49
1119.57
1119.55
1084.82
1086.92
1088.43
1090.23
1092.14
1091.74
1091.85
1091.55
1091.01
1090.63
1091.02
1092.55
1093.65
1094.45
1095.08
1095.58
1096.01
1096.59
1097.33
1098.26
1097.06
1097.74
1097.66
1098.28
1098.04
1098.33
1098.65
1099
1099.37
1099.75
1101.41
1102.2
1102.32
1101.44
1101.4
1100.95
1100.83
1100.58
1100.49
1100.43
1071.41
1075.17
1075.6
1077
1077.58
1077.44
1076.87
1076.54
1076.3
1075.28
1074.61
1074.79
1075.46
1075.61
1075.96
1076.39
1076.97
1077.44
1078.12
1079.92
1078.72
1078.94
1078.45
1078.91
1078.68
1078.93
1079.28
1079.54
1079.91
1080.1
1080.54
1080.46
1080.86
1081.25
1081.47
1081.46
1081.38
1081.28
1081.18
1081.16
1057.66
1059.25
1059.64
1060.03
1060.58
1060.48
1060.29
1060.08
1060.59
1059.33
1058.31
1057.95
1057.17
1056.66
1056.37
1056.86
1057.36
1057.99
1058.67
1059.09
1059.53
1059.21
1058.94
1059.13
1059.15
1059.39
1059.62
1059.67
1059.87
1060.17
1060.26
1060.47
1060.6
1060.66
1060.97
1061.21
1061.36
1061.52
1061.57
1061.65
1039.74
1040.38
1040.96
1041.5
1041.47
1041.54
1041.63
1041.53
1041.64
1041.65
1041.1
1039.89
1038.16
1037.18
1037.51
1037.08
1037.67
1037.95
1038.02
1038.46
1038.4
1038.67
1038.6
1039.17
1039.27
1039.95
1040.3
1040.52
1041.93
1041.73
1040.39
1040.42
1040.48
1039.89
1040.07
1040.37
1040.73
1041.12
1041.45
1041.67
1022.62
1021.58
1021.28
1021.73
1022.06
1022.3
1022.54
1022.71
1022.64
1022.3
1021.43
1020.89
1020.26
1018.91
1021
1021.29
1020.1
1019.57
1019.34
1018.64
1017.51
1017.3
1017.36
1018.81
1019.73
1020.67
1021.35
1021.47
1022.79
1022.07
1019.86
1019.17
1018.59
1018.22
1018.17
1018.84
1019.76
1020.67
1021.45
1021.84
1003.15
1003.83
1004.1
1003.76
1003.43
1003.58
1003.57
1003.43
1003.03
1002.25
1003.34
1002.92
1001.73
1002.44
1002.54
1002.29
1002.71
1001.8
1001.41
1000.4
999.93
999.907
999.63
999.934
1001.11
1002.04
1002.75
1003.19
1003.53
1002.91
1001.89
1000.39
999.053
998.698
999.079
1000.13
1001.25
1002.25
1003.13
1003.54
985.032
985.436
985.539
986.629
987.166
985.721
985.385
984.952
984.61
984.641
984.216
984.178
984.032
984.998
985.638
985.655
985.459
985.955
985.948
985.146
984.32
983.751
983.611
982.85
983.415
983.913
984.371
984.724
984.859
984.615
983.72
984.581
983.727
983.256
983.633
984.307
985.414
985.735
986.256
986.549
966.238
966.632
966.918
967.152
967.215
967.315
967.276
966.992
966.788
966.646
966.052
965.99
966.222
966.713
967.295
967.872
968.325
968.857
968.961
968.989
968.527
967.787
966.479
965.44
965.387
965.452
965.773
966.262
966.408
966.519
966.358
966.238
966.989
966.826
967.54
968.249
969.285
969.196
969.365
969.446
947.263
947.519
947.715
947.896
948.019
948.146
948.268
948.381
948.331
948.119
947.768
947.647
947.698
947.865
948.134
948.477
948.896
949.36
949.461
948.952
949.249
948.588
947.523
947.193
946.941
947.052
947.318
947.801
948.002
948.174
948.384
948.54
948.971
949.646
950.437
951.271
952.048
951.884
951.895
951.899
928.29
928.466
928.621
928.733
928.842
928.825
928.949
929.069
929.081
928.986
928.926
928.785
928.703
928.646
928.67
928.808
929.073
929.485
929.787
929.804
929.896
929.804
929.389
928.857
928.573
930.238
929.134
929.277
929.539
929.668
929.868
930.267
930.851
931.566
932.349
933.235
934.56
933.861
933.76
933.71
909.603
909.671
909.589
909.537
909.541
909.432
909.536
909.608
909.608
909.551
909.495
909.524
909.398
909.159
909.006
909.076
909.377
909.819
909.918
910.053
910.36
910.785
910.767
911.597
911.736
910.938
911.199
911.07
911.092
911.268
911.473
911.838
912.218
912.465
912.994
914.641
914.819
914.583
914.864
914.926
890.587
890.568
890.25
889.883
889.869
889.781
889.74
889.748
889.762
889.805
889.948
889.849
889.733
889.515
889.338
889.667
890.464
890.492
890.259
891.047
891.992
893.299
892.068
892.513
892.394
892.906
893.391
893.193
893.223
893.268
893.329
893.53
893.806
893.948
894.464
897.633
894.278
895.41
896.15
896.394
870.29
870.425
870.404
870.183
870.003
869.949
869.86
869.811
869.805
869.9
870.212
870.149
870.002
869.966
870.291
870.456
871.386
871.264
872.539
873.449
874.164
875.175
878.961
875.323
875.599
875.924
876.093
875.768
875.636
875.806
876.039
876.382
876.786
877.175
878.123
878.362
877.15
877.949
878.465
878.681
849.029
849.182
849.403
849.361
849.707
849.802
849.869
849.969
850.021
850.234
850.618
850.858
850.994
852.246
850.953
852.738
853.23
853.991
855.211
855.972
856.5
856.759
858.732
857.841
857.568
857.89
857.98
858.236
859.062
860.344
860.516
860.648
861.034
861.674
861.733
860.954
860.47
860.54
860.636
860.804
827.568
827.999
828.441
828.846
829.155
830.334
830.076
830.218
830.369
830.751
831.265
831.763
832.13
834.018
833.422
835.25
835.639
836.606
838.15
838.857
838.804
838.696
839.096
839.119
839.172
839.405
839.709
839.875
839.945
840.143
840.484
840.876
841.297
841.776
842.318
842.727
842.369
841.886
842.736
842.247
806.03
806.997
807.384
808.305
809.255
809.785
810.481
810.911
811.385
812.009
812.898
814.116
814.929
815.956
817.215
816.38
817.435
817.72
819.049
820.718
819.301
819.398
819.75
820.018
820.324
820.626
820.95
821.273
821.588
821.961
822.411
822.927
823.155
823.206
823.622
823.722
823.787
823.859
824.073
824.227
784.706
785.189
786.885
787.856
789.226
790.416
791.416
792.288
793.063
793.826
794.577
795.439
796.365
797.587
797.963
798.096
798.518
799.034
799.478
799.852
800.293
800.468
800.732
801.094
801.484
801.862
802.206
802.648
802.934
803.296
803.684
803.971
804.458
804.864
805.17
805.414
805.671
805.759
805.636
805.78
764.825
765.203
767.224
769.346
770.726
771.504
772.104
773.093
773.535
774.214
775.016
775.492
776.256
777.235
777.811
778.58
779.123
779.752
780.429
780.984
781.492
781.796
782.089
782.439
782.816
783.184
783.526
783.924
784.173
784.559
784.876
785.178
786.011
786.242
786.482
786.664
786.838
786.995
786.95
787.001
745.12
745.786
747.99
750.487
752.387
753.363
753.628
754.729
755.452
756.599
756.838
757.354
759.097
759.527
759.777
760.189
760.497
760.9
761.534
762.101
762.701
763.156
763.496
763.861
764.188
764.521
764.848
765.177
765.482
765.7
765.995
766.314
766.68
767.12
767.575
767.91
768.11
768.276
768.349
768.382
726.669
727.431
729.882
732.269
734.148
735.356
735.676
737.046
737.773
739.235
740.044
740.576
741.26
742.059
742.67
743.177
743.585
744.392
744.751
744.358
744.668
744.857
744.997
745.234
745.519
745.814
746.116
746.436
746.761
747.008
747.259
747.547
747.884
748.305
748.754
749.131
749.43
749.663
749.769
749.832
710.215
709.706
712.214
714.119
715.535
716.054
717.042
718.071
718.81
719.384
719.895
720.739
721.425
721.82
722.671
724.114
724.378
725.535
727.09
727.394
725.73
726.129
726.401
726.515
726.725
727.008
727.371
727.773
728.235
728.426
728.718
729.031
729.375
729.75
730.161
730.556
730.881
731.146
731.291
731.349
691.113
692.365
693.541
694.802
696.204
697.185
698.114
699.027
699.721
700.385
701.176
701.925
702.272
703.121
704.232
705.094
705.666
706.021
706.024
707.119
706.303
707.07
707.004
707.937
708.039
708.275
708.874
709.314
709.664
709.986
710.319
710.656
711.011
711.381
711.762
712.159
712.505
712.785
712.962
713.037
670.297
672.693
674.047
675.521
676.936
678.193
678.897
679.771
680.336
681.392
682.335
683.023
683.393
684.012
684.666
685.455
686.002
686.396
686.387
686.099
686.069
686.833
687.444
687.964
689.597
689.982
690.23
690.862
691.31
691.628
691.905
692.277
692.676
693.084
693.462
693.889
694.284
694.597
694.833
694.921
650.913
658.069
656.538
657.042
658.636
659.325
660.326
660.917
661.078
662.256
663.052
663.738
663.796
664.489
664.508
665.206
665.823
666.227
666.528
666.396
666.465
667.458
668.341
669.106
670.006
671.317
671.984
672.495
673
673.398
673.727
673.975
674.249
674.718
675.208
675.711
676.231
676.629
676.962
677.081
636.362
641.438
643.902
642.713
643.173
642.778
642.513
641.861
641.972
642.63
643.423
643.113
644.937
643.783
644.413
645.464
646.506
646.816
646.9
646.933
647.142
648.688
649.53
650.397
651.465
652.932
654.037
654.662
655.095
655.534
655.951
656.275
656.575
656.88
657.299
657.884
658.513
658.997
659.424
659.524
620.694
626.314
626.172
625.29
624.833
624.214
623.323
622.491
622.092
621.782
623.362
623.363
624.412
625.205
626.297
626.884
628.268
628.458
629.657
628.64
629.493
630.609
631.63
632.714
634.051
635.634
636.576
637.444
638.198
638.515
638.893
639.317
639.638
639.974
640.304
640.737
641.376
641.877
642.252
642.366
603.348
603.078
604.151
604.333
603.709
602.301
600.544
598.785
597.377
597.989
598.955
602.317
603.655
606.29
606.484
608.01
608.918
609.206
614.327
611.329
612.481
613.72
615.037
616.32
617.823
619.016
619.824
620.928
621.754
622.176
622.496
622.955
623.3
623.646
623.907
624.274
624.746
625.242
625.495
625.595
581.45
582.977
582.794
581.213
578.746
575.663
572.058
569.494
568.012
568.675
576.315
579.614
583.147
585.282
586.025
587.005
588.452
587.778
593.914
595.231
594.654
596.234
597.831
599.138
600.556
602.174
602.298
604.053
604.531
605.752
606.347
606.74
607.01
607.4
608.452
608.013
608.43
608.946
609.15
609.062
564.192
563.912
562.031
558.783
554.481
549.213
544.089
540.842
540.008
544.37
555.158
559.372
564.978
566.307
568.827
573.296
571.975
570.625
575.544
577.805
578.253
579.222
580.589
582.284
582.952
585.023
585.519
586.76
588.234
589.485
590.3
590.777
591.12
592.995
593.591
592.265
592.592
592.996
593.39
593.372
546.88
545.863
543.276
539.873
535.813
531.491
528.522
528.27
531.064
538.086
545.626
547.271
549.963
553.828
555.911
554.585
556.267
556.191
559.79
561.51
560.608
563.192
564.476
565.698
567.285
568.572
569.892
571.349
573.362
574.488
575.348
576.093
576.906
577.515
577.517
576.833
576.835
576.742
576.266
576.278
529.737
528.385
525.659
523.134
519.919
517.861
519.492
521.822
524.878
527.719
529.358
532.225
534.561
535.055
535.193
535.478
536.312
537.895
540.13
542.322
545.07
546.258
548.061
549.129
551.159
553.211
555.127
556.579
557.903
559.37
559.805
560.216
560.837
561.13
561.194
560.583
559.935
559.312
559.007
561.775
509.256
509.383
509.323
508.668
505.794
504.938
507.952
508.592
509.827
515.447
515.972
516.321
517.203
518.139
519.249
520.122
520.921
521.971
523.564
525.856
529.218
531.57
533.351
536.065
538.125
537.921
539.788
541.526
542.873
543.716
544.166
544.717
545.577
545.575
545.351
545.141
545.081
544.401
544.555
545.712
490.757
491.47
493.018
494.24
495.037
494.206
495.041
496.044
493.86
498.575
499.536
500.267
501.331
502.477
503.857
505.424
507.159
508.845
511.347
513.967
515.993
518.005
519.836
521.261
522.705
523.164
524.716
525.976
527.152
527.781
528.516
529.007
528.564
528.868
529.127
529.071
528.434
527.945
530.343
529.553
473.59
475.668
477.035
475.203
479.248
485.472
487.358
482.568
483.88
480.909
482.48
483.851
484.684
486.222
488.766
491.232
493.304
495.152
497.239
500.228
503.359
505.86
507.881
506.347
508.224
508.573
509.104
510.053
511.122
511.93
512.541
512.645
513.972
514.85
513.932
513.723
514.193
514.102
513.416
515.387
463.481
467.215
476.345
478.607
478.199
474.702
470.926
467.46
470.517
470.898
470.145
466.647
465.936
466.621
469.462
473.347
477.229
479.688
485.023
484.351
488.315
492.167
493.789
492.101
490.077
489.866
490.583
493.143
494.962
496.101
496.753
497.132
497.236
497.279
497.648
499.332
499.641
499.397
498.975
499.684
440.07
450.599
456.83
464.188
473.364
473.252
471.246
470.779
467.426
463.443
456.875
448.845
443.511
443.519
448.944
454.413
460
463.206
465.224
469.192
472.939
476.67
480.14
478.092
480.841
482.36
474.479
477.849
481.02
481.407
482.043
482.271
482.445
482.523
482.216
481.873
481.997
482.355
482.74
482.605
416.796
430.267
442.393
451.893
456.796
456.852
457.667
458.377
455.834
454.178
450.793
447.877
446.351
444.496
439.468
433.35
428.943
434.69
443.929
447.197
454.821
459.54
465.302
462.184
466.582
466.489
465.519
464.576
466.649
468.166
469.735
467.548
467.469
468.003
467.472
466.53
466.343
465.716
464.377
464.883
378.987
397.499
413.184
429.058
441.91
449.067
450.485
447.036
442.542
446.419
442.086
435.575
429.745
427.173
425.83
424.092
423.63
423.754
422.636
426.996
435.706
441.5
444.605
446.377
448.681
449.095
454.086
456.523
453.343
458.565
455.474
456.327
452.868
452.522
451.752
449.474
448.516
449.919
449.866
450.087
338.167
352.938
371.906
392.634
410.469
422.77
427.353
429.849
426.98
425.172
425.105
423.453
420.818
412.83
416.312
415.582
414.598
412.195
413.249
408.935
415.757
424.185
429.91
432.572
433.334
434.774
436.398
442.696
442.22
444.627
439.451
439.149
437.664
435.194
434.499
432.883
432.528
431.633
431.594
432.496
307.968
317.4
332.606
352.578
373.626
388.762
394.466
396.533
391.773
382.397
383.073
386.408
386.055
387.872
390.234
392.319
391.481
399.847
401.458
386.881
389.876
398.35
401.384
405.138
409.088
413.714
418.654
428.198
424.173
425.791
421.919
423.331
421.847
419.199
417.97
416.589
415.212
414.358
413.422
412.834
280.738
290.208
301.891
313.606
326.319
344.026
350.298
348.4
341.676
336.419
333.48
333.123
333.3
333.747
339.011
344.081
347.177
350.435
353.856
356.4
360.09
367.918
374.879
380.118
384.789
390.491
393.964
402.639
406.761
400.96
404.832
402.879
404.253
398.177
397.176
396.155
394.723
394.311
394.215
394.222
255.791
262.33
271.37
281.817
286.457
290.678
288.531
283.535
278.642
272.502
276.834
272.655
276.458
278.48
281.974
286.832
292.068
297.441
304.424
313.116
322.229
336.942
342.556
348.906
355.661
362.166
366.018
372.113
389.852
373.189
378.811
377.496
377.209
374.908
375.094
375.047
375.567
378.285
378.679
378.494
241.059
245.593
251.428
252.772
246.8
236.718
223.111
212.632
205.926
201.565
201.766
206.703
213.28
216.792
221.386
227.338
234.824
243.647
254.615
265.936
278.022
294.732
304.163
313.944
324.451
331.291
333.874
338.019
359.849
343.45
347.584
348.409
348.633
349.709
351.527
353.709
353.523
359.812
354.965
356.022
239.344
240.067
242.087
236.326
225.41
205.37
201.085
192.082
182.223
175.677
170.486
160.987
160.653
159.581
160.829
167.457
175.731
188.518
204.672
218.791
232.829
250.642
266.044
277.575
290.893
299.54
301.937
302.697
319.933
317.252
317.383
319.867
321.95
324.497
326.994
328.964
328.691
331.05
332.026
333.213
243.313
242.578
241.067
233.944
215.28
207.846
196.505
185.013
169.506
154.74
148.354
136.756
134.543
132.842
132.763
131.972
132.449
138.745
153.744
169.943
187.977
211.287
229.784
245.858
261.641
270.6
273.653
280.013
289.182
291.884
292.617
297.37
301.541
305.062
306.735
306.229
328.231
308.841
311.369
312.345
253.027
247.356
253.84
243.43
224.776
223.851
208.621
194.693
183.19
165.041
138.495
133.792
130.82
128.004
125.452
123.703
124.299
127.495
131.392
136.31
147.146
168.867
191.142
212.333
230.291
243.747
255.66
263.977
267.53
270.398
274.533
283.484
288.447
289.028
295.743
304.073
308.928
297.347
299.149
297.884
265.269
247.392
259.432
250.399
259.463
251.881
226.134
201.588
182.538
161.455
132.53
130.34
128.601
125.323
121.856
120.894
122.262
124.811
122.822
119.748
125.737
143.931
167.969
189.326
207.635
220.637
236.047
234.318
240.52
249.079
256.239
257.398
264.966
274.362
280.617
287.566
291.141
287.507
286.444
284.342
258.136
250.328
251.526
248.401
278.951
260.792
234.77
215.111
188.193
155.894
132.795
129.771
127.105
124.643
122.821
122.136
122.76
121.001
120.618
125.133
132.191
144.867
160.379
175.895
193.397
203.445
207.82
215.996
206.37
216.848
227.835
236.344
242.723
248.328
253.385
258.618
266.238
266.4
264.28
262.939
238.596
236.153
233.632
232.495
237.877
253.928
235.325
216.898
187.207
155.682
131.288
128.341
125.742
123.569
121.862
121.356
123.995
125.96
128.978
132.128
138.086
146.918
158.161
171.272
182.833
183.194
196.029
191.226
195.088
201.532
206.675
211.438
215.559
216.854
217.539
218.731
220.548
223.218
226.462
227.977
211.077
203.658
194.632
188.871
182.411
197.453
184.431
167.042
147.243
137.247
124.254
119.52
122.646
123.036
121.551
122.468
125.587
128.029
132.008
135.752
140.947
147.765
155.82
166.88
176.856
181.295
183.768
184.897
187.315
189.825
192.032
193.974
192.671
188.776
186.256
178.302
183.438
176.929
183.839
190.272
173.921
167.924
156.318
140.084
119.738
105.834
106.813