/*--------------------------------*- C++ -*----------------------------------*\
  =========                 |
  \\      /  F ield         | OpenFOAM: The Open Source CFD Toolbox
   \\    /   O peration     | Website:  https://openfoam.org
    \\  /    A nd           | Version:  8
     \\/     M anipulation  |
\*---------------------------------------------------------------------------*/
FoamFile
{
    version     2.0;
    format      ascii;
    class       surfaceScalarField;
    location    "6.9";
    object      phi;
}
// * * * * * * * * * * * * * * * * * * * * * * * * * * * * * * * * * * * * * //

dimensions      [0 3 -1 0 0 0 0];

internalField   nonuniform List<scalar> 
18095
(
1.9876e-08
-1.72033e-07
1.52157e-07
2.31771e-08
-1.97526e-07
1.94225e-07
2.04011e-08
-2.06258e-07
2.09034e-07
1.2511e-08
-2.11573e-07
2.19463e-07
1.25332e-09
-2.13434e-07
2.24692e-07
-1.10899e-08
-2.12988e-07
2.25332e-07
-2.04535e-08
-2.10427e-07
2.1979e-07
-2.32195e-08
-2.06125e-07
2.08891e-07
-1.98843e-08
-1.97585e-07
1.9425e-07
-1.72051e-07
1.52167e-07
1.55529e-08
-1.87585e-07
1.6149e-08
-1.98123e-07
1.17777e-08
-2.01887e-07
5.63569e-09
-2.05431e-07
-1.04578e-09
-2.06753e-07
-6.94894e-09
-2.07085e-07
-1.20875e-08
-2.05288e-07
-1.61708e-08
-2.02042e-07
-1.55576e-08
-1.98198e-07
-1.87609e-07
6.81376e-09
-1.94399e-07
8.42517e-09
-1.99734e-07
7.44194e-09
-2.00904e-07
4.46162e-09
-2.0245e-07
3.69614e-10
-2.02661e-07
-4.06094e-09
-2.02655e-07
-7.26652e-09
-2.02082e-07
-8.367e-09
-2.00941e-07
-6.80519e-09
-1.9976e-07
-1.94414e-07
4.52768e-09
-1.98927e-07
4.73704e-09
-1.99943e-07
3.69009e-09
-1.99857e-07
1.63343e-09
-2.00394e-07
-2.88516e-10
-2.00739e-07
-2.04569e-09
-2.00898e-07
-3.65544e-09
-2.00473e-07
-4.72078e-09
-1.99876e-07
-4.51465e-09
-1.99966e-07
-1.98929e-07
1.07309e-09
1.12978e-09
1.2732e-09
8.79499e-10
1.4055e-10
-7.56994e-10
-1.22962e-09
-1.10539e-09
-1.07136e-09
-2.83967e-08
-1.96324e-07
2.24721e-07
-3.0669e-08
-1.99368e-07
2.0164e-07
-2.49349e-08
-2.01811e-07
1.96077e-07
-1.33836e-08
-2.02073e-07
1.90522e-07
1.16493e-09
-2.02219e-07
1.87671e-07
1.53185e-08
-2.01856e-07
1.87703e-07
2.56108e-08
-2.01107e-07
1.90815e-07
3.03629e-08
-2.00645e-07
1.95893e-07
2.79145e-08
-1.98764e-07
2.01213e-07
-1.95831e-07
2.23745e-07
-9.5654e-09
-1.86759e-07
-1.52521e-08
-1.93681e-07
-1.31578e-08
-2.03906e-07
-6.85252e-09
-2.08378e-07
-7.71556e-10
-2.083e-07
5.17842e-09
-2.07806e-07
1.16601e-08
-2.07589e-07
1.47676e-08
-2.03753e-07
9.40683e-09
-1.93404e-07
-1.86424e-07
-9.98872e-09
-1.7677e-07
-8.35049e-09
-1.9532e-07
-7.61381e-09
-2.04642e-07
-5.56422e-09
-2.10428e-07
-5.24411e-10
-2.1334e-07
4.69389e-09
-2.13024e-07
7.08797e-09
-2.09983e-07
7.8757e-09
-2.04541e-07
9.68493e-09
-1.95213e-07
-1.76739e-07
-6.76988e-09
-1.7e-07
-8.86525e-09
-1.93224e-07
-8.29843e-09
-2.05209e-07
-4.1353e-09
-2.14591e-07
-1.20997e-09
-2.16265e-07
2.21205e-09
-2.16446e-07
7.08602e-09
-2.14857e-07
8.07156e-09
-2.05526e-07
6.49383e-09
-1.93635e-07
-1.70245e-07
-1.78435e-08
-1.68424e-08
-1.30177e-08
-8.14609e-09
2.80591e-10
9.16571e-09
1.40989e-08
1.74636e-08
1.80782e-08
3.01332e-08
-1.60909e-07
1.30775e-07
3.45372e-08
-2.0115e-07
1.96746e-07
2.58532e-08
-2.11519e-07
2.20203e-07
1.10086e-08
-2.14599e-07
2.29444e-07
-6.50715e-09
-2.16913e-07
2.34429e-07
-2.32714e-08
-2.16303e-07
2.33067e-07
-3.59701e-08
-2.15375e-07
2.28073e-07
-4.39044e-08
-2.09921e-07
2.17856e-07
-3.91326e-08
-1.97311e-07
1.92539e-07
-1.56001e-07
1.16868e-07
1.49399e-08
-1.75848e-07
1.66572e-08
-2.02867e-07
1.35568e-08
-2.08418e-07
8.11989e-09
-2.09162e-07
-3.86206e-10
-2.08407e-07
-9.46212e-09
-2.07227e-07
-1.71627e-08
-2.07674e-07
-2.08244e-08
-2.0626e-07
-1.7902e-08
-2.00234e-07
-1.73903e-07
8.01962e-09
-1.83868e-07
7.59425e-09
-2.02441e-07
5.71309e-09
-2.06537e-07
7.67973e-11
-2.03526e-07
-3.52102e-09
-2.04809e-07
-6.21796e-09
-2.0453e-07
-9.08963e-09
-2.04802e-07
-9.64868e-09
-2.05701e-07
-8.71398e-09
-2.01168e-07
-1.82617e-07
7.68498e-09
-1.91553e-07
4.92633e-09
-1.99683e-07
5.89163e-09
-2.07502e-07
2.39434e-09
-2.00029e-07
8.17082e-10
-2.03232e-07
-9.84555e-10
-2.02728e-07
-6.53654e-09
-1.9925e-07
-5.81265e-09
-2.06425e-07
-8.01523e-09
-1.98966e-07
-1.90632e-07
3.31675e-08
3.51252e-08
2.37001e-08
1.41933e-08
-1.36757e-09
-1.63931e-08
-2.48286e-08
-3.53601e-08
-3.31132e-08
5.54086e-07
-1.46158e-08
-5.3947e-07
5.71427e-07
-1.73418e-08
5.87883e-07
-1.64555e-08
5.99212e-07
-1.13291e-08
6.03103e-07
-3.89105e-09
5.95281e-07
7.82169e-09
5.75623e-07
1.96583e-08
5.4186e-07
3.37632e-08
4.98582e-07
4.32786e-08
4.56262e-08
4.52956e-07
5.2869e-07
-4.60696e-08
-4.97236e-07
5.6311e-07
-5.17623e-08
5.96285e-07
-4.96303e-08
6.1878e-07
-3.38239e-08
6.30487e-07
-1.55982e-08
6.31202e-07
7.10666e-09
6.10329e-07
4.05316e-08
5.61585e-07
8.25073e-08
4.99346e-07
1.05518e-07
9.82709e-08
4.46702e-07
4.71418e-07
-8.48715e-08
-4.32616e-07
5.03902e-07
-8.42463e-08
5.33591e-07
-7.93199e-08
5.59674e-07
-5.99062e-08
5.6756e-07
-2.34842e-08
5.51717e-07
2.29501e-08
5.21343e-07
7.09052e-08
4.93324e-07
1.10527e-07
4.73748e-07
1.25094e-07
1.21476e-07
4.50543e-07
3.91764e-07
-1.03286e-07
-3.7335e-07
4.0477e-07
-9.72519e-08
4.14329e-07
-8.88791e-08
4.1688e-07
-6.24571e-08
4.07393e-07
-1.3997e-08
4.04582e-07
2.57618e-08
4.07705e-07
6.77823e-08
4.13709e-07
1.04522e-07
4.14725e-07
1.24078e-07
1.30731e-07
4.0547e-07
3.32336e-07
-1.04367e-07
-3.31255e-07
3.26728e-07
-9.16438e-08
3.17697e-07
-7.98477e-08
3.03206e-07
-4.79668e-08
2.91263e-07
-2.05406e-09
2.84573e-07
3.24521e-08
2.82707e-07
6.96485e-08
2.85312e-07
1.01918e-07
2.90036e-07
1.19354e-07
1.35511e-07
2.85256e-07
2.44931e-07
-1.02393e-07
-2.46905e-07
2.28033e-07
-7.47457e-08
1.99846e-07
-5.16605e-08
1.78936e-07
-2.70573e-08
1.73396e-07
3.48674e-09
1.63776e-07
4.2071e-08
1.58979e-07
7.4446e-08
1.63636e-07
9.726e-08
1.59893e-07
1.23098e-07
1.46744e-07
1.48659e-07
7.29618e-08
-7.06452e-08
-1.0471e-07
4.38832e-08
-4.5667e-08
1.21358e-08
-1.9913e-08
8.89615e-10
-1.58112e-08
2.88513e-09
1.49111e-09
6.97295e-09
3.79831e-08
1.00735e-08
7.13453e-08
4.70608e-09
1.02627e-07
-1.62587e-09
1.29429e-07
1.45339e-07
-2.20593e-10
-2.4768e-08
-4.39037e-08
-1.97341e-09
-4.03427e-08
-3.00918e-08
-4.04798e-08
-1.97758e-08
-3.88027e-08
-1.74883e-08
-6.29224e-08
2.56107e-08
-7.97095e-08
5.47701e-08
-8.28854e-08
7.4521e-08
-7.47283e-08
9.447e-08
-5.53742e-08
1.10075e-07
1.13331e-07
-2.33659e-08
-7.73795e-08
-2.71619e-08
6.06378e-08
-8.79956e-08
-1.94752e-08
-8.63942e-08
-2.13772e-08
-8.65557e-08
-1.73268e-08
-9.9712e-08
3.87669e-08
-1.0354e-07
5.85978e-08
-9.48543e-08
6.58355e-08
-6.66532e-08
6.62689e-08
-3.35469e-08
7.69687e-08
7.52356e-08
4.54815e-09
-1.07772e-07
-3.24706e-08
1.13081e-07
-9.7184e-08
-3.00631e-08
-9.56795e-08
-2.28817e-08
-9.83088e-08
-1.46973e-08
-9.15842e-08
3.20424e-08
-7.3308e-08
4.03217e-08
-5.0758e-08
4.32855e-08
-2.85632e-08
4.40742e-08
-6.61491e-09
5.50205e-08
5.53778e-08
1.3243e-08
-1.94505e-07
-4.14107e-08
2.03446e-07
-1.82131e-07
-4.24373e-08
-1.63402e-07
-4.16101e-08
-1.50598e-07
-2.75015e-08
-1.123e-07
-6.25572e-09
-6.98027e-08
-2.17518e-09
-3.80739e-08
1.15569e-08
-2.45421e-08
3.05425e-08
-2.08528e-08
5.13313e-08
6.25515e-08
-2.80265e-08
-2.13526e-07
-4.5146e-08
2.17262e-07
-1.99713e-07
-5.62501e-08
-1.76504e-07
-6.48197e-08
-1.43922e-07
-6.00836e-08
-1.048e-07
-4.53771e-08
-7.77239e-08
-2.92512e-08
-8.16683e-08
1.55015e-08
-1.01964e-07
5.08388e-08
-1.22248e-07
7.16151e-08
8.37484e-08
-1.43445e-07
-1.98417e-07
-4.29939e-08
1.96265e-07
-2.03165e-07
-5.1502e-08
-2.00967e-07
-6.70179e-08
-1.94849e-07
-6.62016e-08
-1.91017e-07
-4.92084e-08
-2.03796e-07
-1.64727e-08
-2.1408e-07
2.57858e-08
-2.17908e-07
5.46669e-08
-2.12833e-07
6.65403e-08
7.36364e-08
-2.02721e-07
-1.8304e-07
-3.35488e-08
1.73594e-07
-2.04832e-07
-2.97102e-08
-2.37165e-07
-3.46848e-08
-2.66488e-07
-3.68787e-08
-2.91505e-07
-2.41906e-08
-3.09764e-07
1.7855e-09
-3.0712e-07
2.31424e-08
-2.91509e-07
3.90557e-08
-2.78066e-07
5.30972e-08
6.46042e-08
-2.69034e-07
-2.57023e-07
-2.37289e-08
2.47203e-07
-2.73739e-07
-1.29945e-08
-2.92842e-07
-1.55822e-08
-3.08237e-07
-2.14837e-08
-3.14925e-07
-1.75025e-08
-3.18482e-07
5.34261e-09
-3.14872e-07
1.95326e-08
-3.04338e-07
2.85213e-08
-2.88447e-07
3.72057e-08
4.84783e-08
-2.72321e-07
-3.14828e-07
-2.83669e-08
3.19466e-07
-3.09253e-07
-1.85708e-08
-3.03185e-07
-2.16499e-08
-2.90776e-07
-3.38934e-08
-2.75127e-07
-3.31518e-08
-2.59588e-07
-1.01957e-08
-2.46013e-07
5.95671e-09
-2.36121e-07
1.86292e-08
-2.16011e-07
1.70957e-08
1.73232e-08
-1.84856e-07
-3.00043e-07
-5.1379e-08
3.23055e-07
-2.5532e-07
-6.32945e-08
-2.28118e-07
-4.88514e-08
-2.23024e-07
-3.89876e-08
-2.18613e-07
-3.75629e-08
-1.96525e-07
-3.22841e-08
-1.69203e-07
-2.13653e-08
-1.39667e-07
-1.09069e-08
-1.15492e-07
-7.07962e-09
-1.84681e-09
-9.63224e-08
-2.08199e-07
-5.05261e-08
2.07346e-07
-2.10535e-07
-6.09587e-08
-2.01414e-07
-5.79729e-08
-1.90295e-07
-5.01061e-08
-1.84924e-07
-4.29338e-08
-1.79437e-07
-3.77713e-08
-1.67211e-07
-3.35917e-08
-1.48362e-07
-2.97559e-08
-1.31308e-07
-2.41344e-08
-1.59219e-08
-1.17233e-07
-1.77847e-07
-5.35524e-08
1.80874e-07
-1.77567e-07
-6.12386e-08
-1.74784e-07
-6.07563e-08
-1.69234e-07
-5.56564e-08
-1.6495e-07
-4.72178e-08
-1.61856e-07
-4.08661e-08
-1.58294e-07
-3.71533e-08
-1.53116e-07
-3.49339e-08
-1.46426e-07
-3.08245e-08
-2.74552e-08
-1.34893e-07
-1.55631e-07
-5.7777e-08
1.59856e-07
-1.54714e-07
-6.21556e-08
-1.5074e-07
-6.47308e-08
-1.47972e-07
-5.84246e-08
-1.43508e-07
-5.16824e-08
-1.40865e-07
-4.35089e-08
-1.39498e-07
-3.85208e-08
-1.38306e-07
-3.61258e-08
-1.3564e-07
-3.34902e-08
-3.01469e-08
-1.32948e-07
-1.54308e-07
-7.29479e-08
1.69479e-07
-1.45903e-07
-7.05612e-08
-1.42869e-07
-6.77647e-08
-1.37404e-07
-6.38903e-08
-1.28257e-07
-6.08295e-08
-1.20429e-07
-5.13368e-08
-1.16442e-07
-4.25081e-08
-1.13833e-07
-3.87347e-08
-1.09471e-07
-3.78523e-08
-3.65509e-08
-1.03067e-07
-1.71672e-07
-1.00023e-07
1.98746e-07
-1.56628e-07
-8.56055e-08
-1.44638e-07
-7.97551e-08
-1.36189e-07
-7.23389e-08
-1.26669e-07
-7.03494e-08
-1.12872e-07
-6.51343e-08
-1.00316e-07
-5.50637e-08
-9.19265e-08
-4.71244e-08
-8.50089e-08
-4.477e-08
-4.46e-08
-7.69599e-08
-1.86448e-07
-1.20639e-07
2.07064e-07
-1.6349e-07
-1.08564e-07
-1.48678e-07
-9.45665e-08
-1.38015e-07
-8.30018e-08
-1.24071e-07
-8.42942e-08
-1.08382e-07
-8.08229e-08
-9.37393e-08
-6.97064e-08
-8.10526e-08
-5.98112e-08
-6.98454e-08
-5.59774e-08
-5.0308e-08
-6.41376e-08
-1.56814e-07
-1.32375e-07
1.6855e-07
-1.36694e-07
-1.28684e-07
-1.1748e-07
-1.13781e-07
-9.94588e-08
-1.01023e-07
-8.78857e-08
-9.58672e-08
-7.83184e-08
-9.03902e-08
-6.55522e-08
-8.24727e-08
-5.33703e-08
-7.19933e-08
-4.61334e-08
-6.32144e-08
-5.375e-08
-4.26915e-08
-8.81296e-08
-1.30182e-07
8.59358e-08
-8.00471e-08
-1.36767e-07
-6.32518e-08
-1.30576e-07
-5.27617e-08
-1.11513e-07
-4.64124e-08
-1.02216e-07
-3.06355e-08
-1.06167e-07
-1.53655e-08
-9.77428e-08
-1.44471e-09
-8.59142e-08
5.66869e-09
-7.0328e-08
-5.14762e-08
3.39474e-09
3.52568e-08
-1.45126e-07
-2.03122e-08
3.20538e-08
-1.33564e-07
2.52074e-08
-1.2373e-07
2.26924e-08
-1.08998e-07
2.60061e-08
-1.0553e-07
2.8801e-08
-1.08962e-07
3.69514e-08
-1.05893e-07
4.60053e-08
-9.49682e-08
5.43542e-08
-7.8677e-08
-5.68256e-08
5.97034e-08
7.94189e-08
-1.59537e-07
-6.50078e-08
9.14679e-08
-1.45613e-07
9.4387e-08
-1.26649e-07
9.82847e-08
-1.12895e-07
9.79438e-08
-1.05189e-07
9.26676e-08
-1.03686e-07
8.65507e-08
-9.97764e-08
7.62087e-08
-8.46263e-08
6.92558e-08
-7.17243e-08
-6.02921e-08
7.27223e-08
1.0769e-07
-1.7491e-07
-9.23173e-08
1.02426e-07
-1.40349e-07
1.0778e-07
-1.32002e-07
1.15717e-07
-1.20833e-07
1.1911e-07
-1.08582e-07
1.14613e-07
-9.91892e-08
1.07341e-07
-9.25045e-08
9.71988e-08
-7.44845e-08
8.28806e-08
-5.74061e-08
-5.09629e-08
7.35516e-08
9.36475e-08
-1.73891e-07
-9.46658e-08
1.04184e-07
-1.50886e-07
1.08416e-07
-1.36234e-07
1.14187e-07
-1.26603e-07
1.16622e-07
-1.11018e-07
1.12817e-07
-9.53843e-08
9.92987e-08
-7.89863e-08
8.54798e-08
-6.06657e-08
7.48959e-08
-4.68222e-08
-4.20408e-08
6.59739e-08
6.03751e-08
-1.6226e-07
-7.20066e-08
6.03693e-08
-1.50881e-07
6.28288e-08
-1.38694e-07
6.67816e-08
-1.30556e-07
6.88543e-08
-1.13091e-07
6.24398e-08
-8.89699e-08
4.98798e-08
-6.64264e-08
4.01467e-08
-5.09326e-08
3.61735e-08
-4.2849e-08
-4.18621e-08
3.59949e-08
-4.27381e-08
-1.38826e-07
1.93046e-08
-5.17141e-08
-1.41905e-07
-4.6894e-08
-1.43515e-07
-3.81128e-08
-1.39338e-07
-3.00073e-08
-1.21196e-07
-3.15393e-08
-8.74381e-08
-3.42502e-08
-6.37157e-08
-3.31317e-08
-5.2051e-08
-2.95073e-08
-4.64732e-08
-4.62926e-08
-2.50765e-08
-1.29796e-07
-1.20364e-07
1.11334e-07
-1.39771e-07
-1.3193e-07
-1.36938e-07
-1.46348e-07
-1.26358e-07
-1.49918e-07
-1.08004e-07
-1.39551e-07
-1.01392e-07
-9.40506e-08
-1.04888e-07
-6.02199e-08
-9.59971e-08
-6.09419e-08
-8.08248e-08
-6.16453e-08
-6.07915e-08
-6.63256e-08
-1.62651e-07
-9.32139e-08
1.355e-07
-1.81624e-07
-1.12957e-07
-1.83842e-07
-1.44131e-07
-1.82101e-07
-1.51659e-07
-1.77874e-07
-1.43778e-07
-1.59219e-07
-1.12706e-07
-1.41059e-07
-7.83803e-08
-1.3699e-07
-6.5011e-08
-1.35687e-07
-6.29486e-08
-5.72899e-08
-1.39188e-07
-1.79189e-07
-5.58234e-08
1.41799e-07
-2.03733e-07
-8.84138e-08
-2.10337e-07
-1.37526e-07
-2.1471e-07
-1.47286e-07
-2.15691e-07
-1.42797e-07
-2.03499e-07
-1.24898e-07
-1.81802e-07
-1.00077e-07
-1.69232e-07
-7.75811e-08
-1.77248e-07
-5.49321e-08
-4.12842e-08
-1.93254e-07
-1.26047e-07
-2.20513e-08
9.22749e-08
-1.64421e-07
-5.00403e-08
-1.96253e-07
-1.05694e-07
-2.08453e-07
-1.35086e-07
-2.11053e-07
-1.40198e-07
-2.01957e-07
-1.33994e-07
-1.88408e-07
-1.13627e-07
-1.77624e-07
-8.83644e-08
-1.84672e-07
-4.7884e-08
-2.53917e-08
-2.00565e-07
-1.26623e-07
3.06745e-08
7.38969e-08
-1.48945e-07
-2.77187e-08
-1.68033e-07
-8.66061e-08
-1.82001e-07
-1.21119e-07
-1.87175e-07
-1.35023e-07
-1.87052e-07
-1.34118e-07
-1.74857e-07
-1.25822e-07
-1.59153e-07
-1.04069e-07
-1.46605e-07
-6.04312e-08
-3.12579e-08
-1.40739e-07
-1.85766e-07
8.50228e-08
1.31417e-07
-2.07506e-07
-5.97858e-09
-1.90953e-07
-1.0316e-07
-1.83423e-07
-1.28648e-07
-1.88681e-07
-1.29765e-07
-1.96583e-07
-1.26216e-07
-1.98613e-07
-1.23792e-07
-1.89984e-07
-1.12699e-07
-1.67312e-07
-8.31041e-08
-2.93473e-08
-1.69223e-07
-2.8081e-07
6.63079e-08
2.99525e-07
-2.61457e-07
-2.53315e-08
-2.56049e-07
-1.08568e-07
-2.58344e-07
-1.26354e-07
-2.8283e-07
-1.05279e-07
-3.19706e-07
-8.93393e-08
-3.48203e-07
-9.5295e-08
-3.70538e-07
-9.03639e-08
-3.76025e-07
-7.76173e-08
-5.53203e-08
-3.50052e-07
-4.04455e-07
8.41377e-08
3.86625e-07
-3.7127e-07
-5.85165e-08
-3.23782e-07
-1.56057e-07
-3.11337e-07
-1.38799e-07
-3.50958e-07
-6.56586e-08
-3.98934e-07
-4.13627e-08
-4.51914e-07
-4.23149e-08
-4.73256e-07
-6.90224e-08
-4.52761e-07
-9.81129e-08
-8.41322e-08
-4.23949e-07
-1.88202e-07
6.18556e-08
2.10484e-07
-2.21413e-07
-2.53055e-08
-2.7884e-07
-9.86297e-08
-3.19627e-07
-9.80117e-08
-3.36004e-07
-4.92822e-08
-3.56359e-07
-2.10072e-08
-3.76211e-07
-2.24628e-08
-3.84263e-07
-6.09701e-08
-3.72735e-07
-1.09641e-07
-1.29757e-07
-3.27111e-07
-1.42295e-07
-9.69015e-09
2.13841e-07
-1.26374e-07
-4.1227e-08
-1.71409e-07
-5.35952e-08
-2.14614e-07
-5.48066e-08
-2.30425e-07
-3.34713e-08
-2.31018e-07
-2.04142e-08
-2.29828e-07
-2.36524e-08
-2.41025e-07
-4.97722e-08
-2.55789e-07
-9.48766e-08
-1.2129e-07
-2.64255e-07
-3.62811e-07
-9.73055e-08
4.50426e-07
-3.11477e-07
-9.25622e-08
-2.97338e-07
-6.77346e-08
-3.11625e-07
-4.05203e-08
-2.98421e-07
-4.66748e-08
-2.70298e-07
-4.85375e-08
-2.53333e-07
-4.06177e-08
-2.4972e-07
-5.33859e-08
-2.61463e-07
-8.31329e-08
-1.20792e-07
-2.61961e-07
-5.3355e-07
-1.25889e-07
5.62134e-07
-5.05264e-07
-1.2085e-07
-4.81072e-07
-9.19265e-08
-4.51552e-07
-7.00406e-08
-4.32943e-07
-6.52838e-08
-4.18093e-07
-6.33877e-08
-3.90862e-07
-6.78483e-08
-3.52921e-07
-9.13279e-08
-3.26005e-07
-1.10049e-07
-1.43313e-07
-3.03484e-07
-5.69687e-07
-1.35677e-07
5.79476e-07
-5.51356e-07
-1.39182e-07
-5.10835e-07
-1.32447e-07
-4.83609e-07
-9.72672e-08
-4.68695e-07
-8.01973e-08
-4.50851e-07
-8.1232e-08
-4.37227e-07
-8.14721e-08
-4.06557e-07
-1.21997e-07
-3.72987e-07
-1.43619e-07
-1.62276e-07
-3.54023e-07
-5.00959e-07
-1.81224e-07
5.46505e-07
-4.64452e-07
-1.75688e-07
-4.2033e-07
-1.76569e-07
-4.12484e-07
-1.05113e-07
-4.274e-07
-6.52819e-08
-4.36732e-07
-7.18999e-08
-3.90226e-07
-1.27979e-07
-3.69609e-07
-1.42614e-07
-3.64415e-07
-1.48813e-07
-1.56594e-07
-3.70097e-07
-5.75734e-07
-2.06906e-07
6.01417e-07
-5.24648e-07
-2.26774e-07
-4.75973e-07
-2.25244e-07
-4.07339e-07
-1.73747e-07
-3.60635e-07
-1.11986e-07
-3.37107e-07
-9.54279e-08
-3.39435e-07
-1.2565e-07
-3.42808e-07
-1.39241e-07
-3.31679e-07
-1.59943e-07
-1.53494e-07
-3.34778e-07
-6.12889e-07
-2.07371e-07
6.13354e-07
-6.01341e-07
-2.38321e-07
-5.71788e-07
-2.54797e-07
-5.15341e-07
-2.30193e-07
-4.40459e-07
-1.86868e-07
-3.79633e-07
-1.56253e-07
-3.23479e-07
-1.81804e-07
-2.70262e-07
-1.92459e-07
-2.42328e-07
-1.87877e-07
-1.6605e-07
-2.29772e-07
-4.64805e-07
-1.78604e-07
4.36037e-07
-4.96159e-07
-2.06967e-07
-5.2638e-07
-2.24576e-07
-5.17756e-07
-2.38817e-07
-4.64336e-07
-2.40287e-07
-3.98924e-07
-2.21666e-07
-3.46096e-07
-2.34633e-07
-2.92334e-07
-2.46222e-07
-2.33258e-07
-2.46953e-07
-2.4449e-07
-1.54817e-07
-2.93409e-07
-1.57833e-07
2.72638e-07
-2.93046e-07
-2.07329e-07
-2.64439e-07
-2.53183e-07
-2.6082e-07
-2.42436e-07
-3.0417e-07
-1.96938e-07
-3.63155e-07
-1.6268e-07
-3.66909e-07
-2.30879e-07
-3.42008e-07
-2.71123e-07
-2.98858e-07
-2.90104e-07
-3.20606e-07
-2.22742e-07
-1.76329e-07
-1.69186e-07
1.87683e-07
-1.71405e-07
-2.12252e-07
-1.98724e-07
-2.25863e-07
-1.69507e-07
-2.71653e-07
-1.58665e-07
-2.07781e-07
-2.08839e-07
-1.12505e-07
-2.98722e-07
-1.40995e-07
-3.63564e-07
-2.06281e-07
-3.65127e-07
-2.88541e-07
-3.9155e-07
-2.94182e-07
-9.8761e-08
-1.83379e-07
1.12955e-07
-1.05762e-07
-2.05251e-07
-1.03941e-07
-2.27684e-07
-1.14212e-07
-2.61382e-07
-1.13967e-07
-2.08025e-07
-1.63048e-07
-6.34245e-08
-2.5579e-07
-4.82509e-08
-3.25189e-07
-1.36884e-07
-2.79676e-07
-3.34051e-07
-4.70151e-07
-2.01076e-07
-1.30401e-08
-1.87214e-07
1.68748e-08
-1.76385e-08
-2.00653e-07
-2.62967e-08
-2.19026e-07
-4.66547e-08
-2.41024e-07
-5.26222e-08
-2.02057e-07
-5.55195e-08
-6.05281e-08
-9.33727e-08
-1.03971e-08
-9.94229e-08
-1.30835e-07
-4.46792e-08
-3.88794e-07
-5.0488e-07
-9.9502e-09
9.66565e-08
-1.37391e-07
-1.4648e-07
8.13232e-08
-1.8532e-07
8.09047e-08
-2.18607e-07
8.13661e-08
-2.41486e-07
1.00011e-07
-2.20701e-07
1.54953e-07
-1.15471e-07
1.43745e-07
8.10975e-10
1.17648e-07
-1.04738e-07
7.93042e-08
-3.5045e-07
-4.84497e-07
5.89213e-08
3.39291e-07
-1.10029e-07
-3.66651e-07
2.96081e-07
-1.42112e-07
2.56567e-07
-1.79093e-07
2.42776e-07
-2.27694e-07
2.53947e-07
-2.31872e-07
3.20962e-07
-1.82486e-07
4.13955e-07
-9.21824e-08
4.12554e-07
-1.03336e-07
2.90333e-07
-2.28229e-07
-4.12088e-07
2.17924e-07
5.45574e-07
-1.34911e-07
-5.20693e-07
5.40549e-07
-1.37087e-07
5.05651e-07
-1.44196e-07
4.6111e-07
-1.83152e-07
4.46807e-07
-2.1757e-07
4.76496e-07
-2.12174e-07
5.54578e-07
-1.70267e-07
5.9874e-07
-1.47497e-07
5.53747e-07
-1.83237e-07
-3.21144e-07
4.62804e-07
7.22099e-07
-1.28497e-07
-7.28516e-07
7.17292e-07
-1.32279e-07
7.08436e-07
-1.35339e-07
6.72947e-07
-1.47661e-07
6.35074e-07
-1.79697e-07
6.23078e-07
-2.00177e-07
6.53705e-07
-2.00894e-07
6.99604e-07
-1.93397e-07
7.29153e-07
-2.12785e-07
-2.97885e-07
7.05892e-07
8.97753e-07
-1.1183e-07
-9.1442e-07
8.77942e-07
-1.12473e-07
8.57933e-07
-1.15331e-07
8.32237e-07
-1.21963e-07
7.88805e-07
-1.36268e-07
7.49221e-07
-1.60592e-07
7.34387e-07
-1.86061e-07
7.54806e-07
-2.13816e-07
7.90145e-07
-2.48124e-07
-3.19299e-07
8.11561e-07
9.11696e-07
-8.62887e-08
-9.37238e-07
8.86205e-07
-8.69817e-08
8.61587e-07
-9.07143e-08
8.36146e-07
-9.65195e-08
8.09573e-07
-1.09697e-07
7.86908e-07
-1.37927e-07
7.72413e-07
-1.71565e-07
7.79928e-07
-2.21332e-07
8.04388e-07
-2.72585e-07
-3.60954e-07
8.46044e-07
7.15624e-07
-9.51286e-08
-7.06786e-07
7.3697e-07
-1.08325e-07
7.56138e-07
-1.09885e-07
7.62774e-07
-1.03155e-07
7.63187e-07
-1.10109e-07
7.57404e-07
-1.32145e-07
7.58924e-07
-1.73084e-07
7.65689e-07
-2.28097e-07
7.93831e-07
-3.00727e-07
-4.27411e-07
8.60288e-07
5.88234e-07
-1.27755e-07
-5.55607e-07
6.08979e-07
-1.29067e-07
6.20582e-07
-1.21489e-07
6.31851e-07
-1.14425e-07
6.44108e-07
-1.22365e-07
6.67202e-07
-1.55241e-07
6.98027e-07
-2.03908e-07
7.37899e-07
-2.67967e-07
8.19906e-07
-3.82734e-07
-5.0297e-07
8.95464e-07
5.41041e-07
-1.1324e-07
-5.55556e-07
5.26013e-07
-1.1404e-07
5.22654e-07
-1.18129e-07
5.27484e-07
-1.19255e-07
5.4056e-07
-1.3544e-07
5.74192e-07
-1.88874e-07
6.42085e-07
-2.71801e-07
7.63233e-07
-3.89114e-07
8.77805e-07
-4.97306e-07
-5.42152e-07
9.16986e-07
4.6494e-07
-1.08453e-07
-4.69726e-07
4.6555e-07
-1.14651e-07
4.44625e-07
-9.7205e-08
4.26218e-07
-1.00848e-07
4.33175e-07
-1.42397e-07
4.96245e-07
-2.51942e-07
6.57999e-07
-4.33555e-07
8.28067e-07
-5.59183e-07
9.03217e-07
-5.72456e-07
-5.2863e-07
8.89696e-07
2.87244e-07
-1.1327e-07
-2.82428e-07
2.70109e-07
-9.75155e-08
2.55794e-07
-8.28897e-08
2.37993e-07
-8.30474e-08
2.78013e-07
-1.82417e-07
4.67162e-07
-4.41091e-07
6.79833e-07
-6.46226e-07
7.95387e-07
-6.74738e-07
8.01169e-07
-5.78239e-07
-4.21264e-07
6.93803e-07
1.66813e-07
-1.07171e-07
-1.72912e-07
1.63442e-07
-9.41473e-08
1.22091e-07
-4.1538e-08
4.39793e-08
-4.93543e-09
1.69825e-07
-3.08263e-07
4.10842e-07
-6.82109e-07
5.41736e-07
-7.77119e-07
5.68761e-07
-7.01763e-07
5.03259e-07
-5.12737e-07
-2.91786e-07
3.73781e-07
1.45435e-07
-1.31053e-07
-1.21554e-07
1.35525e-07
-8.42362e-08
9.26355e-08
1.35047e-09
4.15565e-08
4.61444e-08
1.83318e-07
-4.50024e-07
3.30402e-07
-8.29193e-07
3.86861e-07
-8.33578e-07
3.62017e-07
-6.76919e-07
2.78155e-07
-4.28874e-07
-3.07627e-07
2.93995e-07
1.1827e-07
-1.65169e-07
-8.41536e-08
1.4214e-07
-1.08106e-07
1.399e-07
3.58963e-09
1.34643e-07
5.14022e-08
2.06022e-07
-5.21403e-07
2.71947e-07
-8.95118e-07
2.99203e-07
-8.60833e-07
2.54029e-07
-6.31746e-07
2.2813e-07
-4.02976e-07
-3.46209e-07
2.66711e-07
9.286e-08
-2.14294e-07
-4.37351e-08
1.51042e-07
-1.66287e-07
2.08808e-07
-5.41772e-08
1.5846e-07
1.01751e-07
2.84928e-07
-6.47871e-07
3.08408e-07
-9.18599e-07
2.89623e-07
-8.42049e-07
2.11041e-07
-5.53163e-07
2.02236e-07
-3.94171e-07
-3.57393e-07
2.13418e-07
1.04429e-07
-2.3413e-07
-8.45928e-08
1.28691e-07
-1.90549e-07
1.36884e-07
-6.23708e-08
9.91559e-08
1.39478e-07
2.61344e-07
-8.10059e-07
2.70885e-07
-9.28139e-07
2.03964e-07
-7.75129e-07
1.05928e-07
-4.55126e-07
1.02636e-07
-3.90878e-07
-2.9245e-07
3.76931e-08
1.31011e-07
-1.41616e-07
-2.23525e-07
-1.31294e-08
-4.64076e-08
-1.82876e-07
1.07376e-07
2.90149e-08
-7.24133e-08
1.13129e-07
-8.94172e-07
1.33713e-07
-9.48723e-07
5.03178e-08
-6.91735e-07
-2.28609e-08
-3.81948e-07
-5.19412e-08
-3.61799e-07
-2.83991e-07
-6.04003e-08
9.2589e-08
-2.34505e-08
-2.10755e-07
-9.19578e-08
1.38138e-07
-2.36354e-07
2.51772e-07
8.0222e-08
-3.8899e-07
8.0688e-08
-8.94638e-07
4.90603e-08
-9.17096e-07
-1.07589e-08
-6.31915e-07
-1.01841e-07
-2.90866e-07
-1.64821e-07
-2.9882e-07
-2.91829e-07
-1.56984e-07
8.15581e-08
1.79928e-07
-2.84937e-07
-1.07385e-07
3.27081e-07
-1.0494e-07
2.49329e-07
7.95234e-08
-5.73453e-07
6.8075e-08
-8.8319e-07
6.84772e-08
-9.17498e-07
-1.42256e-08
-5.49212e-07
-1.43325e-07
-1.61766e-07
-2.58277e-07
-1.83868e-07
-2.37378e-07
-3.12728e-07
-1.90986e-07
3.0406e-07
6.68535e-08
-2.43852e-07
3.79949e-07
-3.45468e-08
4.00234e-08
-2.30448e-09
-6.05695e-07
-7.84926e-09
-8.77646e-07
-1.22059e-08
-9.13141e-07
-3.73566e-08
-5.24061e-07
-1.2045e-07
-7.8673e-08
-2.47141e-07
-5.71765e-08
-1.36921e-07
-3.47597e-07
-3.62823e-07
2.82046e-07
3.84837e-07
-1.66871e-07
1.83999e-07
3.98127e-08
-1.6666e-07
-3.44497e-08
-5.31432e-07
-3.74773e-08
-8.74618e-07
-6.5001e-08
-8.85618e-07
-1.44653e-08
-5.74597e-07
-1.0306e-07
9.92228e-09
-2.12948e-07
5.27107e-08
-3.78467e-08
-3.12024e-07
-2.09957e-07
1.27199e-07
3.64803e-07
1.00646e-08
-3.60223e-08
4.44135e-08
-2.01009e-07
3.14956e-08
-5.18515e-07
1.56505e-08
-8.58774e-07
1.36964e-09
-8.71337e-07
-4.40736e-09
-5.68819e-07
-1.02894e-07
1.08409e-07
-2.11071e-07
1.60888e-07
7.99211e-08
-3.28839e-07
3.2781e-08
-5.52194e-08
1.49638e-07
6.80448e-08
-7.12879e-08
5.03841e-08
-1.8335e-07
5.97828e-08
-5.27915e-07
5.52349e-08
-8.54227e-07
3.88962e-08
-8.54999e-07
4.0519e-08
-5.70443e-07
-8.81125e-09
1.57738e-07
-6.22524e-08
2.1433e-07
2.06512e-07
-1.88842e-07
6.7417e-08
-1.217e-07
-9.37051e-10
3.89868e-08
-4.28588e-08
1.03029e-08
-1.54665e-07
5.16585e-08
-5.69269e-07
2.62081e-08
-8.28776e-07
3.2503e-08
-8.61294e-07
4.50626e-08
-5.83003e-07
9.07354e-08
1.12065e-07
8.64947e-08
2.18569e-07
2.89663e-07
3.34271e-09
-8.90069e-08
-1.31191e-07
9.84978e-08
-2.16034e-08
-1.10262e-07
-4.6764e-09
-1.71592e-07
-7.25201e-08
-5.01425e-07
-4.65346e-08
-8.5476e-07
-5.60316e-08
-8.51796e-07
-3.00627e-08
-6.08971e-07
1.54242e-08
6.65776e-08
1.9908e-08
2.14084e-07
3.01622e-07
7.94698e-09
-1.0567e-07
-1.43884e-07
1.18363e-07
-7.44507e-08
-1.41482e-07
-6.54832e-08
-1.8056e-07
-5.1521e-08
-5.15387e-07
-5.58355e-08
-8.50446e-07
-6.02846e-08
-8.47347e-07
-3.20515e-08
-6.37204e-07
-2.89232e-08
6.34485e-08
-5.27768e-08
2.37938e-07
2.57053e-07
-8.20726e-09
-8.28259e-08
-1.43129e-07
8.20705e-08
-7.19693e-08
-1.52339e-07
-8.32596e-08
-1.69269e-07
-5.16692e-08
-5.46977e-07
-4.7509e-08
-8.54607e-07
-4.73363e-08
-8.4752e-07
-3.87596e-08
-6.45782e-07
-5.15425e-08
7.62312e-08
2.41026e-08
1.62293e-07
1.89546e-07
9.16103e-08
-9.07503e-08
-1.5863e-07
1.06251e-07
-6.40988e-08
-1.78991e-07
-7.79965e-08
-1.55371e-07
-8.78945e-09
-6.16185e-07
-2.38814e-09
-8.61008e-07
-1.53337e-09
-8.48375e-07
-1.37534e-08
-6.33563e-07
-2.87141e-08
9.11911e-08
6.68195e-08
6.67587e-08
2.4258e-08
2.32107e-07
-1.0768e-07
-1.82009e-07
1.31059e-07
-5.58195e-08
-2.30851e-07
-4.26029e-09
-2.0693e-07
2.06346e-08
-6.41079e-07
1.34241e-08
-8.53797e-07
1.73598e-08
-8.5231e-07
2.54088e-08
-6.41611e-07
2.10934e-08
9.55062e-08
1.12346e-07
-2.44953e-08
-8.43114e-08
2.20916e-07
-7.45633e-08
-1.44364e-07
3.69182e-08
-1.20077e-07
-1.85338e-07
-7.50677e-08
-2.51939e-07
6.49817e-08
-7.81129e-07
3.02572e-08
-8.19072e-07
-6.10336e-09
-8.1595e-07
3.03426e-08
-6.78057e-07
9.04993e-08
3.53501e-08
1.67409e-07
-1.01406e-07
4.93177e-08
3.37819e-08
-6.51284e-08
-6.72051e-08
-1.20195e-08
-2.89795e-07
3.93319e-08
-4.86853e-08
-4.93042e-07
2.21526e-08
-8.51965e-07
1.02994e-08
-8.07219e-07
-1.64584e-09
-8.04005e-07
3.35558e-09
-6.8306e-07
1.18266e-07
-7.95606e-08
4.39877e-07
-4.23021e-07
1.75011e-07
3.14185e-07
-1.12353e-07
2.79604e-08
1.71832e-08
-2.92715e-08
-4.37839e-08
4.20771e-08
-5.64395e-07
3.85214e-09
-8.13743e-07
-2.60101e-08
-7.77357e-07
-4.71307e-08
-7.82884e-07
-4.04093e-08
-6.89781e-07
2.37053e-09
-1.22341e-07
-2.08989e-07
-2.11659e-07
1.19702e-07
-1.53651e-07
-7.55967e-08
1.60623e-08
8.74718e-08
4.20267e-08
-1.61389e-07
6.44297e-08
-5.86821e-07
2.21604e-08
-7.71476e-07
-9.11214e-09
-7.46085e-07
-4.86775e-08
-7.43319e-07
-2.75032e-08
-7.10956e-07
-6.89695e-08
-8.08736e-08
-2.24781e-07
-5.58685e-08
1.26043e-07
-2.31115e-07
6.95384e-08
-1.24276e-07
7.08023e-08
2.32401e-08
-1.1509e-07
4.80232e-08
-6.11607e-07
1.2099e-08
-7.35553e-07
-1.22674e-08
-7.21719e-07
-3.64872e-08
-7.19099e-07
-2.67646e-08
-7.20678e-07
1.86823e-08
-1.26319e-07
-1.48878e-08
-2.22922e-08
1.27729e-07
-1.6562e-08
-1.6683e-07
-1.04407e-07
1.4696e-07
7.8766e-09
-2.89885e-07
4.35995e-08
-6.47305e-07
2.26821e-08
-7.14626e-07
-3.93253e-09
-6.95104e-07
-2.68174e-08
-6.96214e-07
-2.58194e-08
-7.21676e-07
2.17053e-07
-3.69189e-07
2.49864e-07
-5.51143e-08
7.55335e-08
3.02092e-07
1.13924e-07
-1.1855e-07
-9.97965e-08
1.03952e-07
-2.80019e-07
5.82159e-08
-6.01578e-07
3.19966e-08
-6.88419e-07
4.36935e-09
-6.67477e-07
-2.61737e-08
-6.65671e-07
-5.41737e-08
-6.93674e-07
1.30139e-07
-5.53483e-07
1.88565e-07
-1.13555e-07
7.52687e-08
1.88851e-07
1.97678e-07
-1.12763e-07
-2.03475e-07
1.53099e-07
-2.35433e-07
7.05212e-08
-5.18983e-07
3.14959e-08
-6.49383e-07
7.29267e-09
-6.43274e-07
-1.61271e-08
-6.42251e-07
-5.66217e-08
-6.53181e-07
-4.09615e-08
-5.6913e-07
-3.7264e-08
-1.17272e-07
4.35282e-08
-5.51173e-09
1.80876e-07
-1.37683e-07
-1.55962e-07
1.09529e-07
-1.64113e-07
6.59115e-08
-4.754e-07
4.06543e-08
-6.24146e-07
8.36725e-09
-6.10987e-07
-2.31737e-08
-6.1071e-07
-5.17053e-08
-6.24653e-07
-9.56403e-08
-5.25195e-07
-9.58221e-08
-1.1708e-07
3.25417e-08
-8.48473e-08
1.88226e-07
-1.58917e-07
-1.66991e-07
5.11869e-08
-2.7056e-08
3.93503e-08
-4.63532e-07
6.9889e-09
-5.91783e-07
-1.95297e-08
-5.84468e-07
-3.69504e-08
-5.93289e-07
-6.97851e-08
-5.9182e-07
-8.08844e-08
-5.141e-07
-7.62029e-08
-1.21742e-07
5.12725e-08
-9.49466e-08
-1.0454e-08
-6.66591e-08
-8.18125e-08
8.38813e-09
-4.59378e-08
6.56899e-08
-5.2084e-07
3.29403e-08
-5.59032e-07
1.63948e-08
-5.67922e-07
-2.66132e-08
-5.50281e-07
-5.49346e-08
-5.63498e-07
-3.21664e-08
-5.36871e-07
-2.93828e-08
-1.2452e-07
8.41147e-08
-6.22475e-08
-6.19262e-08
-2.75176e-08
2.27907e-08
9.74525e-08
-2.05344e-07
1.15736e-07
-5.39141e-07
9.08446e-08
-5.3414e-07
4.51746e-08
-5.22252e-07
2.27774e-08
-5.27884e-07
-1.69103e-08
-5.2381e-07
-5.65756e-08
-4.97216e-07
-5.11874e-08
-1.29903e-07
9.8586e-08
-6.56631e-08
4.48184e-08
-8.76199e-08
1.52859e-08
1.16348e-07
-2.76818e-07
6.25715e-08
-4.85366e-07
2.09084e-08
-4.92477e-07
-1.08642e-08
-4.9048e-07
-4.43439e-08
-4.94404e-07
-7.96588e-08
-4.88495e-07
-9.45564e-08
-4.82318e-07
-7.82854e-08
-1.46173e-07
9.98568e-08
-7.95597e-08
1.62157e-07
-1.49752e-07
-1.00034e-07
1.46089e-07
-2.6079e-07
9.56405e-08
-4.34909e-07
5.51966e-08
-4.52033e-07
1.52272e-08
-4.5051e-07
-2.42345e-08
-4.54943e-07
-6.38378e-08
-4.48892e-07
-1.05794e-07
-4.40364e-07
-1.08541e-07
-1.43437e-07
1.02404e-07
-1.11072e-07
1.21775e-07
-1.49161e-07
-1.22374e-07
1.11459e-07
-2.50488e-07
6.94003e-08
-3.9284e-07
2.38595e-08
-4.06493e-07
-1.54624e-08
-4.11188e-07
-6.06103e-08
-4.09795e-07
-1.08257e-07
-4.01245e-07
-1.67329e-07
-3.81291e-07
-1.42175e-07
-1.68587e-07
8.46833e-08
-1.24459e-07
4.60241e-08
-1.23752e-07
-7.14341e-08
1.12314e-07
-3.16831e-07
6.61725e-08
-3.46697e-07
1.7704e-08
-3.58024e-07
-2.66021e-08
-3.66882e-07
-6.76557e-08
-3.68741e-07
-1.06438e-07
-3.62462e-07
-1.46955e-07
-3.40774e-07
-7.3628e-08
-2.41905e-07
1.23487e-08
-1.28561e-09
1.83226e-07
-1.37115e-07
-1.69858e-07
1.51009e-07