/*--------------------------------*- C++ -*----------------------------------*\
  =========                 |
  \\      /  F ield         | OpenFOAM: The Open Source CFD Toolbox
   \\    /   O peration     | Website:  https://openfoam.org
    \\  /    A nd           | Version:  8
     \\/     M anipulation  |
\*---------------------------------------------------------------------------*/
FoamFile
{
    version     2.0;
    format      ascii;
    class       volScalarField;
    location    "6.25";
    object      p;
}
// * * * * * * * * * * * * * * * * * * * * * * * * * * * * * * * * * * * * * //

dimensions      [1 -1 -2 0 0 0 0];

internalField   nonuniform List<scalar> 
9150
(
-205.2
-206.208
-206.843
-207.303
-207.546
-207.55
-207.312
-206.848
-206.206
-205.198
-225.259
-225.77
-226.196
-226.511
-226.687
-226.688
-226.522
-226.199
-225.77
-225.259
-245.151
-245.428
-245.682
-245.903
-246.012
-246.012
-245.906
-245.688
-245.43
-245.15
-264.889
-265.062
-265.231
-265.388
-265.466
-265.476
-265.387
-265.23
-265.061
-264.888
-284.513
-284.689
-284.828
-284.958
-285.019
-285.02
-284.949
-284.823
-284.687
-284.511
-119.343
-120.033
-119.666
-119.294
-119.107
-119.113
-119.311
-119.683
-120.047
-119.347
-134.721
-135.443
-135.572
-135.633
-135.535
-135.524
-135.609
-135.552
-135.425
-134.715
-151.163
-151.917
-152.216
-152.574
-152.64
-152.649
-152.578
-152.22
-151.913
-151.152
-168.017
-169.185
-169.666
-170.281
-170.444
-170.446
-170.253
-169.641
-169.16
-167.997
-185.115
-187.134
-187.91
-188.588
-188.871
-188.857
-188.58
-187.907
-187.129
-185.112
-26.0485
-26.98
-28.9105
-29.8793
-30.3271
-30.2539
-29.5916
-28.5473
-26.7585
-25.6789
-45.9487
-46.1746
-47.1357
-47.4733
-47.9445
-47.9294
-47.4684
-47.1228
-46.1221
-45.861
-66.1003
-65.897
-66.9354
-66.5818
-67.0005
-66.9594
-66.4952
-66.9218
-65.879
-66.075
-88.8486
-85.9862
-86.9094
-85.4194
-85.5492
-85.5523
-85.4899
-86.9254
-86.0038
-88.8763
-114.063
-104.859
-104.269
-103.006
-102.559
-102.541
-103
-104.257
-104.88
-114.095
1209.66
1209.94
1210.22
1210.45
1210.59
1210.77
1210.94
1210.99
1211.49
1211.55
1190.31
1190.54
1190.8
1191.05
1191.12
1191.28
1191.52
1191.71
1191.91
1191.94
1170.22
1170.59
1171.19
1171.26
1171.5
1171.74
1171.92
1172.12
1172.32
1172.37
1150.88
1151.2
1151.54
1151.86
1152.12
1152.3
1152.46
1152.57
1152.64
1152.67
1132.09
1132.01
1132.06
1132.36
1132.7
1132.85
1132.95
1133.05
1133.1
1133.15
1112.88
1113.14
1113.2
1113.11
1113.3
1113.39
1113.37
1113.33
1113.27
1113.64
1093.65
1093.81
1093.63
1093.55
1093.55
1093.59
1093.54
1093.46
1093.37
1094
1072.94
1073.56
1072.56
1073.29
1073.55
1073.76
1073.46
1073.48
1073.33
1073.9
1052.38
1053.11
1052.24
1052.89
1053.19
1053.5
1053.5
1053.37
1053.31
1053.12
1031.79
1032.19
1031.91
1032.47
1032.61
1032.95
1033.04
1033.08
1033.08
1032.99
1010.31
1011.08
1011.67
1011.87
1012.21
1012.45
1012.66
1012.77
1012.77
1012.78
989.97
990.385
990.905
991.364
991.749
992.084
992.392
992.515
992.606
992.704
970.635
971.016
971.114
971.488
971.761
972.016
972.222
972.399
972.543
972.7
951.351
951.305
951.465
951.582
951.709
951.934
952.141
952.297
952.468
952.689
931.773
931.759
931.656
931.56
931.674
931.921
932.071
932.166
932.357
932.787
912.167
911.971
911.92
912.282
912.275
912.108
912.015
912.125
912.44
912.865
892.827
892.601
892.58
892.234
891.953
891.721
891.363
890.671
890.847
891.413
873.688
873.495
873.082
871.9
870.982
869.972
869.052
867.76
866.598
866.271
854.814
855.041
853.385
852.127
850.694
849.279
847.909
846.384
846.909
847.27
834.911
834.215
833.566
832.816
831.695
830.598
829.722
828.763
830.643
829.883
815.206
814.88
814.604
814.342
813.793
813.098
812.288
815.164
815.357
812.831
796.477
795.624
796.103
796.116
795.251
794.663
800.747
798.523
799.117
799.777
779.514
776.504
779.883
780.416
777.458
782.073
781.946
781.883
782.736
781.536
758.793
759.41
758.88
759.334
761.238
762.21
762.08
764.708
763.875
761.449
739.618
740.874
741.833
742.616
743.489
744.058
745.453
746.636
744.407
743.745
721.87
722.89
724.271
725.114
725.584
726.137
730.086
726.414
726.642
721.973
704.437
706.019
707.118
707.884
708.344
709.76
710.169
711.007
710.464
709.795
687.786
690.472
691.78
691.057
693.672
693.68
695.332
694.905
694.384
696.618
671.477
672.952
673.766
675.331
676.673
678.11
679.131
679.335
683.082
680.397
655.504
655.431
656.827
658.743
660.564
662.058
663.191
664.445
661.876
665.929
638.285
639.878
641.495
642.872
644.027
645.222
646.663
649.55
649.963
650.866
625.047
626.002
626.847
627.86
628.822
629.72
630.679
632.855
630.418
630.711
608.176
608.964
610.522
612.462
612.663
611.704
612.848
612.58
611.53
617.608
591.405
591.826
592.264
592.736
593.279
593.29
593.435
593.26
592.624
600.526
573.44
573.859
574.129
574.352
574.505
574.477
574.37
574.039
573.98
578.301
554.123
554.613
555.165
555.582
555.826
555.685
555.406
555.238
556.322
557.3
535.372
536.306
536.852
537.546
538.327
538.844
538.914
538.723
539.606
541.016
517.102
517.898
518.16
519.708
521.597
522.787
523.53
524.576
525.97
527.06
496.158
497.794
499.463
500.898
504.454
506.967
506.426
508.424
509.557
511.893
474.215
477.403
479.892
481.972
483.745
492.094
488.858
491.488
493.394
494.891
453.305
457.405
460.637
463.71
466.218
468.62
471.894
474.036
476.63
478.435
432.589
437.429
441.984
445.754
448.902
451.741
454.447
458.561
460.247
463.779
413.824
418.951
424.011
428.858
432.914
436.404
439.344
441.542
444.685
446.533
396.595
402.04
407.318
412.405
417.404
422.067
426.601
428.995
430.348
432.915
380.853
386.52
392.164
397.781
403.157
407.638
412.771
414.592
417.665
420.406
364.412
371.293
378.76
385.436
390.878
395.798
399.926
403.508
406.724
409.297
350.532
357.593
365.731
372.827
376.83
380.893
385.791
391.216
396.3
400.561
344.017
351.922
359.287
364.986
370.979
377.339
382.819
386.835
388.337
390.279
328.094
340.824
348.754
356.296
362.105
368.697
378.463
380.549
383.418
384.109
308.435
321.989
335.38
347.565
359.694
366.81
370.452
377.905
380.353
380.279
279.681
297.735
314.239
332.285
346.945
362.01
373.061
379.242
380.725
379.946
265.156
269.085
275.245
297.43
328.895
347.72
373.465
386.241
386.447
384.825
240.743
239.562
238.72
249.948
279.614
317.697
352.985
381.231
395.979
390.94
214.928
214.624
207.297
210.354
227.896
263.87
311.67
364.088
375.812
386.739
211.166
207.263
201.776
198.93
210.727
232.967
260.952
298.476
315.635
321.226
208.36
205.568
209.149
210.221
203.294
196.99
196.865
204.447
215.085
229.551
203.497
210.199
208.519
214.398
173.377
129.542
101.564
92.0461
93.1334
106.379
202.257
202.456
195.863
190.322
151.013
97.9249
62.4558
34.0012
22.3353
29.7845
185.207
185.193
198.384
174.138
134.612
109.525
95.2012
72.3989
55.2904
51.9188
169.51
175.027
177.657
167.936
145.613
141.623
138.979
129.521
130.604
134.678
147.434
150.689
153.591
156.677
158.792
175.663
181.903
171.308
169.593
174.673
123.81
125.354
127.024
136.736
146.013
172.933
201.955
205.777
197.472
185.662
107.316
107.203
113.068
110.683
115.753
147.524
196.951
223.755
215.286
207.843
101.895
104.872
107.957
110.896
95.6177
116.783
154.536
207.862
177.896
175.128
97.2138
100.257
102.866
105.489
95.4593
103.015
91.8187
112.596
115.608
103.764
92.829
92.3405
104.749
103.127
99.1897
83.2938
24.9646
24.0281
30.2729
41.9579
83.9734
79.8777
75.6625
100.215
90.9437
67.6535
8.76996
-6.07846
0.154132
11.4335
77.901
76.8995
71.5068
98.7443
58.6048
50.4319
35.054
18.2624
24.5324
31.2491
68.459
71.3387
73.3503
91.8129
51.1832
59.1228
54.079
46.8663
48.5095
43.4246
52.7141
53.077
56.8238
95.4634
59.1235
77.3528
41.9261
47.5493
32.255
27.9902
42.9077
46.4761
71.3048
77.3523
57.468
64.7445
15.206
16.2071
12.4891
9.85204
23.3502
24.6294
60.2772
63.5934
52.9275
54.784
3.52367
-0.554272
2.40833
3.74892
6.48261
11.6256
46.4419
49.075
46.0554
47.0299
-0.924465
-1.31479
-0.414743
-0.506845
-3.59584
34.5483
36.3633
36.6882
35.8193
46.1699
-4.865
-2.10163
-2.02205
-1.51014
-2.46594
22.6277
26.0987
29.3863
31.8141
41.9313
-2.56066
-1.37401
-1.44769
-1.49526
-1.32464
1.03089
3.79054
12.5686
29.7058
30.9175
-1.90225
-1.5107
-1.52216
-1.53826
-1.34533
-1.05984
-2.84127
-1.90031
30.7926
18.743
-1.56241
-1.57434
-1.58127
-1.58179
-1.44595
-1.40005
-2.34381
-4.27188
30.0276
16.0669
-1.58995
-1.59976
-1.61193
-1.61603
-1.43148
-1.426
-1.81899
-2.10444
17.7727
29.8254
-1.68701
-1.65443
-1.65069
-1.64507
-1.29454
-1.22701
-1.11987
-2.11477
15.1911
31.5966
-1.71994
-1.68786
-1.67776
-1.67026
-1.25149
-1.1816
-1.06937
-1.51682
15.0623
31.2429
-1.75846
-1.71119
-1.69848
-1.68954
-1.30309
-1.28313
-1.24604
-1.23983
14.579
30.6068
-1.77246
-1.72357
-1.71008
-1.70102
-1.35415
-1.34115
-1.32274
-1.31105
16.2236
28.1808
-1.76483
-1.72306
-1.71269
-1.70541
-1.40655
-1.38768
-1.37855
-1.37331
17.4874
25.2922
-1.75733
-1.71756
-1.71218
-1.70786
-1.45703
-1.43425
-1.42512
-1.43274
15.6952
24.7656
-1.75611
-1.7214
-1.71711
-1.71458
-1.51634
-1.49521
-1.48177
-1.50283
14.8272
24.556
-1.77958
-1.73035
-1.72393
-1.72573
-1.58632
-1.57026
-1.57564
-1.64814
23.9108
11.2597
-1.7669
-1.72457
-1.72886
-1.7357
-1.65035
-1.63883
-1.64919
-1.71705
22.5601
9.65844
-1.79502
-1.74485
-1.75305
-1.75207
-1.70112
-1.68762
-1.70022
-1.7682
18.7245
9.53552
-1.76308
-1.74266
-1.75847
-1.76481
-1.72247
-1.7114
-1.7166
-1.78625
16.1453
8.82983
-1.78116
-1.74927
-1.75836
-1.77025
-1.7289
-1.71451
-1.71695
-1.81552
9.16101
10.5239
-1.90012
-1.80195
-1.79981
-1.80605
-1.75754
-1.75415
-1.74915
-1.9875
6.44525
7.52042
-2.09643
-1.8315
-1.83385
-1.83511
-1.79482
-1.79004
-1.79963
-2.17176
4.79095
4.52687
-2.17712
-1.85983
-1.8501
-1.85235
-1.816
-1.81506
-1.87477
-1.9754
2.86913
2.239
-1.86395
-1.94968
-1.86547
-1.86509
-1.83862
-1.8397
-2.01907
-1.35396
1.12584
1.32747
-1.85893
-2.02731
-1.8827
-1.88051
-1.86338
-1.86856
-2.30486
-1.7694
-0.301955
0.311863
-1.04666
-2.23974
-1.89811
-1.89586
-1.88133
-1.86403
-3.1741
-1.5607
-0.830027
-0.81012
-1.90653
-3.41545
-1.901
-1.90934
-1.89999
-2.37829
-4.60602
-2.65459
-1.64035
-1.87867
-2.84692
-4.47206
-2.45798
-1.92016
-1.92585
-4.13933
-5.80149
-6.08846
-6.16812
-5.87388
-5.63929
-5.48275
-4.12228
-1.93816
-2.78774
-9.87578
-12.9546
-14.8191
-15.6693
-15.8651
-15.2917
-13.4294
-10.0403
-2.82207
1211.19
1211.34
1211.41
1211.46
1211.47
1211.52
1211.44
1211.23
1210.91
1210.27
1209.32
1208.37
1207.18
1205.78
1204.3
1202.87
1201.48
1200.21
1199.14
1198.35
1198.01
1198.13
1198.56
1199.27
1200.18
1200.93
1201.13
1200.97
1200.5
1199.33
1198.95
1199.72
1199.54
1198.3
1198.89
1200.28
1202.32
1202.9
1203.1
1203.22
1192.08
1191.82
1191.93
1192.03
1191.87
1191.97
1191.83
1191.41
1192.01
1190.53
1189.76
1188.72
1187.07
1185.64
1184.1
1182.55
1181.03
1179.58
1178.32
1177.25
1176.49
1176.32
1176.69
1177.34
1178.19
1179.01
1179.66
1180.06
1180.13
1181.17
1182.05
1182.29
1182.47
1182.31
1183.27
1184.58
1184.41
1183.61
1184.38
1183.74
1172.67
1172.36
1172.45
1172.5
1172.31
1172.33
1172.3
1171.61
1171.96
1170.17
1169.45
1168.29
1166.81
1165.13
1163.35
1161.58
1160.01
1158.46
1156.95
1155.33
1153.8
1153.29
1153.59
1154.16
1155.01
1156.31
1157.8
1159.24
1160.64
1162.17
1163.64
1164.21
1166.1
1166.77
1167.4
1168.06
1168.46
1168.69
1169.18
1169.45
1152.89
1152.5
1152.77
1152.47
1152.52
1152.32
1152.27
1151.53
1151.61
1150.18
1148.94
1147.57
1145.93
1144.15
1142.13
1140.07
1138.23
1136.39
1134.26
1132.01
1131.63
1131.46
1129.56
1130.44
1132
1133.21
1135.59
1138.07
1140.69
1142.9
1144.8
1146.36
1147.72
1148.73
1149.49
1150.04
1150.11
1149.84
1150.09
1149.74
1133.23
1132.68
1132.71
1132.47
1132.4
1132.17
1131.94
1131.55
1131.16
1130.2
1128.5
1126.92
1125.06
1122.9
1120.53
1118.31
1116.68
1115.36
1113.63
1113
1111.84
1110.46
1110.29
1110.97
1112.18
1113.75
1115.72
1117.5
1119.81
1122.59
1125.13
1127.06
1128.76
1129.76
1130.34
1130.78
1131.16
1131.29
1131.24
1131.31
1113.3
1113
1112.73
1112.44
1112.24
1112.1
1111.56
1111.18
1110.49
1109.53
1108.39
1107.16
1105.24
1102.9
1100.46
1098.33
1096.87
1095.7
1094.12
1092.56
1091.3
1090.7
1092.02
1093.46
1094.48
1096.43
1098.64
1100.66
1102.18
1103.43
1105.6
1107.84
1109.29
1110.06
1110.9
1111.5
1111.99
1112.35
1112.52
1112.64
1093.3
1093.07
1092.71
1092.34
1092.01
1091.71
1091.32
1090.89
1090.35
1089.67
1088.7
1087.4
1086.31
1084.61
1082.51
1080.61
1079.68
1078.08
1077.37
1075.91
1075.81
1075.99
1076.95
1078.59
1080.42
1081.3
1082.24
1083.59
1084.44
1085.39
1086.82
1088.88
1090.33
1090.99
1091.57
1092.25
1092.9
1093.47
1093.8
1094.2
1073.22
1072.96
1072.57
1072.19
1071.87
1071.6
1071.26
1070.83
1070.34
1069.85
1069.38
1068.73
1067.82
1066.83
1065.87
1065.25
1064.28
1063.12
1062.13
1061.13
1060.36
1060.13
1060.46
1061.78
1063.01
1064.4
1065.37
1066.16
1066.85
1067.42
1068.25
1069.64
1071.12
1071.99
1072.6
1073.29
1074.01
1074.72
1075.12
1075.55
1053.19
1052.76
1052.38
1052.08
1051.77
1051.5
1051.27
1051.06
1050.76
1050.36
1050.04
1049.75
1049.27
1048.86
1048.55
1048.4
1048.15
1047.4
1046.55
1045.22
1044.1
1043.26
1043.4
1043.88
1044.75
1046.07
1046.8
1047.64
1048.32
1048.89
1049.87
1051
1052.21
1053.02
1053.52
1054.18
1055.16
1056.18
1056.77
1057.18
1032.97
1032.77
1032.35
1032.08
1031.87
1031.72
1031.52
1031.27
1030.87
1030.27
1030.03
1029.82
1029.36
1029.62
1029.69
1029.98
1029.85
1029.22
1028
1026.52
1025.19
1024.39
1024.18
1024.65
1025.72
1026.65
1027.51
1028.69
1029.51
1030.4
1030.89
1031.73
1032.47
1033.39
1034.19
1034.91
1036.02
1037.32
1038.12
1038.28
1012.86
1012.82
1012.69
1012.41
1012.21
1011.96
1011.73
1011.42
1010.83
1010.23
1010.1
1009.74
1008.94
1008.84
1008.92
1009.39
1009.29
1008.78
1007.82
1006.75
1005.97
1005.41
1005.19
1005.3
1007.33
1009.12
1009.82
1010.56
1011.28
1011.3
1011.35
1012.06
1012.04
1013.12
1014.08
1015.05
1016.24
1017.59
1018.37
1018.65
992.893
993.131
992.852
992.75
992.578
992.378
992.172
991.907
991.727
990.953
989.652
989.098
988.133
986.529
985.822
986.366
987.079
987.58
987.365
988.559
987.291
987.919
988.044
988.257
991.396
992.062
992.155
991.544
992.202
992.112
991.896
991.591
992.041
992.379
992.919
994.135
995.599
996.666
997.587
998.167
972.85
973.001
973.076
973.086
972.998
972.91
972.808
972.818
972.278
971.092
971.199
969.982
970.113
970.986
965.68
965.709
966.471
967.905
968.315
969.095
969.548
969.795
970.211
970.542
971.118
971.392
971.918
972.147
972.132
971.788
971.371
971.22
971.449
971.282
971.918
972.56
974.76
975.986
976.215
976.887
952.983
953.239
953.279
953.358
953.461
953.613
953.734
954.082
954.211
952.736
952.686
952.131
951.9
952.508
951.341
950.561
950.921
949.545
950.595
951.174
951.612
952.26
952.324
952.133
952.27
952.235
952.293
952.245
951.971
951.401
950.303
948.087
945.228
943.478
944.617
949.207
954.687
954.622
955.197
955.996
933.313
933.516
934.346
934.237
934.098
934.339
934.709
934.963
934.945
934.607
934.619
934.648
934.608
934.545
935.177
935.064
934.667
934.114
933.039
933.966
933.693
933.438
933.334
933.255
933.135
933.036
932.978
932.907
932.66
932.052
930.988
928.077
924.636
923.349
930.248
928.624
934.886
936.018
937.628
938.595
913.462
914.574
915.206
915.356
915.306
915.32
915.29
915.712
916.035
916.063
916.325
916.712
916.944
917.215
918.122
918.284
918.018
917.372
915.953
915.64
915.127
914.657
914.34
914.051
913.815
913.704
913.721
914.006
914.448
914.778
915.459
913.486
912.553
912.791
914.93
918.287
919.754
923.18
925.704
927.156
893.028
894.413
895.431
895.893
895.143
894.639
894.73
895.102
895.698
896.344
897.379
898.064
898.409
898.579
899.321
904.298
899.754
898.789
897.914
897.053
896.194
895.445
894.877
894.481
894.273
894.239
894.381
894.987
895.845
896.851
897.416
896.963
897.18
898.454
899.278
899.613
905.981
905.887
909.691
909.747
868.125
870.143
871.745
872.394
872.407
872.123
872.109
872.147
872.728
874.717
877.118
878.477
879.203
879.594
879.96
880.073
880.33
879.837
878.926
877.929
876.835
875.692
874.587
873.586
872.624
871.719
871.59
872.247
874.184
874.385
874.763
875.781
876.595
876.574
878.277
879.647
879.669
879.768
883.078
885.083
843.856
847.068
849.144
849.639
849.205
848.79
848.908
850.005
851.888
856.956
859.517
858.746
859.888
860.642
861.227
861.809
861.694
861.127
860.318
859.061
857.573
855.959
854.494
853.58
854.229
851.885
849.531
849.668
850.453
851.822
853.424
852.222
853.865
854.454
855.021
854.863
853.252
853.383
859.303
858.369
827.375
829.554
830.473
830.457
830.064
831.982
831.46
832.013
834.24
838.18
841.168
841.143
841.849
842.713
843.4
843.687
843.703
843.172
842.048
840.383
838.094
835.301
833.148
835.525
835.812
835.541
831.778
832.641
833.764
832.75
829.355
828.441
828.165
828.734
830.763
833.412
836.23
840.006
840.817
838.122
814.274
813.619
813.816
816.165
816.193
816.475
817.002
817.792
819.737
821.626
822.748
823.194
824.033
824.719
825.378
825.964
826.258
826.121
825.451
823.327
820.262
816.753
821.648
826.054
819.503
826.293
823.753
818.093
816.808
808.817
807.277
803.131
801.986
802.84
806.198
811.208
814.314
823.281
820.116
821.35
798.778
798.449
799.27
799.339
799.395
800.119
800.21
800.062
800.98
802.555
803.759
804.625
805.342
806.072
806.916
807.751
808.853
809.376
808.876
807.465
804.834
802.862
808.833
809.196
807.203
805.381
805.057
803.684
797.648
789.449
784.718
780.369
779.895
778.874
780.725
790.1
792.995
797.284
797.373
798.952
781.162
783.249
780.035
780.588
780.911
780.771
781.046
781.905
782.343
783.161
784.262
785.377
786.08
786.696
787.347
788.039
788.767
789.112
788.281
787.326
787.147
787.822
790.406
792.355
794.672
793.81
792.621
788.966
784.181
778.017
769.581
768.614
766.258
764.76
767.708
775.762
778.18
787.427
776.073
778.258
762.509
758.891
759.733
759.305
759.844
760.659
760.657
759.939
760.608
762.665
764.824
766.269
766.931
767.201
767.167
767.61
767.807
767.178
770.014
766.639
764.249
767.782
771.249
773.841
773.422
770.675
769.297
768.787
765.361
763.231
759.759
758.607
757.666
756.258
756.759
756.228
758.093
756.642
755.496
757.984
739.447
738.842
737.106
735.641
736.353
738.769
738.335
741.901
739.256
742.762
745.682
747.405
747.926
748.04
747.652
747.963
748.173
748.464
748.507
747.657
746.603
748.226
749.092
748.861
748.524
747.16
746.361
747.042
747.581
746.089
743.366
744.428
747.119
747.103
749.967
747.711
748.739
737.03
744.117
743.788
722.58
718.125
714.175
716.37
717.568
717.945
717.082
717.174
719.936
723.559
726.318
727.988
729.36
729.972
729.414
729.802
730.81
731.409
731.857
731.232
729.891
729.741
729.233
727.839
725.91
723.017
723.981
725.801
727.568
727.132
731.675
741.327
744.488
744.544
743.767
743.435
744.796
735.588
733.76
733.361
710.576
702.488
704.2
705.25
705.467
706.33
707.79
705.076
706.762
708.566
709.568
712.501
712.993
713.015
713.32
713.604
713.994
714.653
714.771
714.162
713.127
712.358
710.832
710.222
709.005
708.975
717.203
722.821
723.878
725.253
727.549
729.456
730.525
731.043
731.021
735.196
729.524
732.916
724.345
724.019
692.812
691.424
692.859
692.74
692.949
693.713
694.009
690.867
694.104
695.043
695.921
698.877
696.388
696.973
696.617
696.411
696.277
696.872
697.493
696.066
694.259
692.516
691.392
690.523
689.982
691.209
700.503
702.14
701.254
703.146
707.972
714.102
717.869
719.251
719.143
718.302
715.677
714.078
713.025
713.402
677.496
679.935
680.439
679.496
678.125
682.367
678.375
681.473
675.113
676.9
680.92
680.447
679.249
680.498
679.802
677.828
677.413
677.131
676.422
675.08
673.797
672.527
671.195
670.385
670.552
671.875
674.251
677.535
681.302
685.303
689.727
693.821
697.123
697.992
700.039
702.751
703.439
702.862
700.586
703.72
664.096
667.954
669.083
668.581
668.675
670.126
663.633
663.741
661.364
661.022
661.002
660.342
658.409
659.675
657.91
655.44
654.27
650.994
651.785
648.665
647.762
648.117
649.298
649.668
649.984
651.303
653.056
655.509
658.494
661.638
665.053
668.532
671.749
675.703
680.909
686.141
685.669
685.985
684.619
684.857
649.572
654.042
660.425
655.826
666.265
654.252
655.132
653.374
650.631
646.685
643.549
641.217
639.625
638.61
637.1
634.568
631.486
632.459
630.489
626.833
623.87
625.846
627.625
626.754
625.854
626.856
629.336
631.947
634.082
635.82
637.622
639.806
643.464
648.451
654.729
659.774
662.086
663.007
661.928
660.266
634.069
634.295
657.483
640.715
654.934
644.511
642.192
643.823
641.584
630.9
626.684
624.455
622.611
620.371
618.741
616.193
611.947
608.782
609.253
604.638
599.031
603.544
605.622
607.427
608.831
605.835
607.066
609.235
611.035
611.788
612.378
613.295
610.57
613.418
621.835
629.557
634.791
637.992
637.022
642.075
616.513
617.336
637.383
621.502
621.628
621.429
621.292
620.173
629.707
622.117
611.553
605.894
603.198
602.523
600.428
595.042
589.787
587.841
586.252
582.236
585.634
596.908
602.094
604.414
605.008
605.288
606.051
607.52
608.196
607.848
604.894
606.409
607.257
605.114
605.201
608.725
615.387
620.758
618.473
626.809
597.059
597.875
598.467
595.247
594.958
595.966
596.36
596.836
592.067
604.844
589.519
582.205
576.876
576.805
577.878
570.652
562.459
565.844
546.912
549.566
560.633
564.392
571.396
577.252
581.695
584.488
586.216
591.295
589.565
591.724
593.611
598.295
593.766
599.101
601.601
606.405
598.97
609.986
607.91
614.432
576.388
575.653
576.01
574.596
574.738
575.699
577.042
577.706
576.74
574.499
570.755
564.206
555.98
552.581
560.018
549.393
543.139
537.357
531.512
522.932
518.276
532.594
544.247
555.428
562.607
568.361
571.729
573.458
577.066
578.565
578.531
581.039
586.621
590.922
590.716
598.695
605.034
592.841
603.133
601.774
557.623
556.928
557.146
556.306
556.161
557.336
559.024
559.957
560.639
559.487
556.055
552.562
548.464
543.565
551.577
532.372
530.997
525.773
520.1
515.169
509.875
519.352
528.208
536.135
543.216
548.745
552.563
555.784
558.801
562.375
566.683
570.413
574.055
578.439
582.399
584.847
595.068
593.506
592.474
592.222
541.733
541.778
541.097
539.944
539.875
540.605
542.485
543.745
543.497
543.677
543.375
544.134
541.641
537.379
529.383
524.181
518.118
517.528
509.139
510.064
512.063
509.944
511.1
516.166
523.344
530.095
535.104
539.494
543.906
548.269
552.611
556.323
559.535
564.977
570.019
575.695
585.681
590.934
576.754
583.513
527.987
528.681
528.802
526.476
527.275
526.785
528.219
530.625
530.124
532.988
533.913
533.163
529.131
522.351
526.136
512.162
510.335
508.526
502.85
497.881
499.224
501.038
503.089
501.734
505.625
513.999
519.506
524.593
529.689
533.793
540.808
545.422
546.264
554.343
557.02
556.934
573.92
573.016
569.599
573.202
512.472
513.462
513.943
514.504
515.063
513.821
516.545
518.417
517.622
519.817
522.06
522.654
521.388
514.672
514.318
510.88
500.623
504.684
494.59
493.05
492.068
492.936
495.607
498.518
497.041
501.113
506.094
510.313
514.758
519.276
524.971
529.313
532.396
535.812
549.009
547.813
553.594
557.339
546.325
555.096
495.975
497.761
499.064
499.403
499.7
500.71
502.246
503.288
503.833
503.397
505.325
504.922
503.967
505.291
505.793
504.684
501.299
497.225
494.911
493.118
492.213
491.733
492.318
490.185
487.275
491.015
494.058
496.356
498.616
501.281
503.519
509.393
514.318
516.207
526.998
526.16
531.188
537.272
526.651
535.232
479.894
480.639
482.035
482.785
483.607
484.808
487.035
488.316
488.579
488.627
489.995
489.564
495.574
501.046
502.812
503.606
502.822
500.291
496.782
494.444
492.488
487.065
486.8
484.351
481.782
481.605
481.976
482.222
483.559
484.885
486.743
489.348
490.472
495.114
496.292
497.181
509.436
511.828
510.937
516.902
465.345
464.065
465.315
466.401
467.643
468.561
468.938
469.32
472.877
475.919
478.453
479.633
482.971
489.685
496.508
499.592
499.157
495.792
491.094
487.682
484.764
481.626
477.744
472.817
468.259
465.935
465.176
463.636
464.714
472.706
469.304
471.398
473.066
473.834
475.394
480.595
486.638
491.055
490.411
496.96
448.273
448.897
449.765
449.987
450.227
450.31
450.667
449.4
454.38
460.145
464.857
468.243
471.667
474.939
478.814
481.763
483.41
482.814
482.598
478.933
473.28
467.564
461.891
456.487
452.221
455.512
460.699
459.115
456.641
454.005
453.638
449.137
451.853
456.721
462.574
466.992
470.977
473.834
475.532
477.604
434.359
435.3
435.938
436.227
436.245
436.562
439.003
450.877
442.108
444.945
451
452.384
450.759
452.042
457.211
461.105
461.658
460.633
459.344
458.234
459.397
456.231
451.022
449.112
449.993
451.64
444.121
444.317
438.282
440.773
444.321
445.012
446.851
450.001
453.753
457.59
457.487
458.875
460.439
457.534
422.367
423.62
424.348
424.64
424.98
430.347
433.527
434.046
432.963
432.358
434.93
437.941
442.082
436.247
441.185
444.223
443.23
442.119
441.461
447.344
445.071
444.916
445.392
443.938
441.293
438.108
436.839
435.544
433.339
432.942
438.925
438.831
439.777
439.457
440.991
445.348
447.443
445.029
445.429
445.783
411.139
412.776
414.852
415.44
421.54
426.055
426.254
427.3
428.704
430.851
433.559
436.342
432.142
437.865
438.539
430.417
437.354
439.627
439.603
438.744
438.233
437.762
436.509
434.851
428.81
426.019
423.818
421.614
419.279
419.041
419.507
421.744
423.248
426.956
431.369
433.137
430.354
433.334
434.526
435.245
401.893
401.355
401.886
408.014
409.549
413.187
414.784
417.368
422.179
425.217
428.182
426.843
442.818
431.964
434.93
432.756
431.255
429.56
426.125
424.115
422.994
423.23
419.648
417.169
413.619
411.55
409.711
408.224
407.904
406.562
407.164
408.656
410.655
412.684
413.116
412.877
416.505
416.388
421.875
424.054
390.386
390.119
393.739
389.673
392.522
396.148
396.845
403.337
408.026
410.954
417.875
428.852
430.088
427.587
422.491
415.184
412.15
411.413
411.426
409.805
405.082
402.063
399.557
397.209
396.017
395.395
394.583
393.842
393.48
393.351
393.802
394.497
394.842
394.293
395.702
395.659
396.12
399.162
404.21
406.814
382.387
380.836
382.968
377.608
374.185
370.431
377.565
381.107
388.451
397.548
409.032
417.384
409.121
401.412
397.104
393.921
391.053
388.639
386.641
384.012
383.553
382
377.908
377.579
377.64
377.868
378.094
378.348
378.643
378.766
378.453
378.657
378.771
378.883
378.65
375.762
373.48
373.538
375.657
380.865
378.861
376.727
373.464
365.36
359.538
353.026
348.088
348.105
348.837
352.146
368.056
367.901
367.664
365.586
364.553
363.166
362.465
360.474
358.95
358.16
358.233
357.377
356.749
357.546
359.073
360.876
362.276
363.151
363.689
363.958
364.091
363.76
363.889
361.956
361.433
357.984
356.129
356.697
357.699
361.733
376.317
369.067
362.728
352.038
340.201
326.558
319.43
316.005
316.562
328.311
316.12
322.683
318.476
320.18
325.898
327.191
329.198
330.32
331.36
332.547
333.003
333.131
334.174
337.214
340.978
344.331
347.172
349.555
350.988
350.22
349.554
348.313
346.442
344.957
345.321
341.657
344.105
344.551
343.25
345.81
377.214
364.57
350.604
333.654
315.994
312.551
311.204
308.297
306.284
302.842
293.157
296.048
285.265
288.468
283.437
294.328
301.471
303.266
304.944
305.029
304.644
305.332
307.533
311.925
317.855
322.94
326.082
328.381
329.879
326.923
323.808
323.095
321.171
320.074
320.458
320.592
324.48
325.257
325.072
325.607
378.751
360.956
341.848
319.941
308.175
305.856
303.589
300.724
297.574
292.258
284.211
278.793
278.636
278.993
275.736
275.316
285.355
287.284
283.851
276.553
272.883
273.879
279.38
283.416
289.526
294.918
298.475
299.849
297.911
292.395
286.917
284.522
286.262
288.061
294.023
297.857
302.456
305.895
304.42
306.78
366.918
350.522
335.19
315.429
300.433
298.771
296.864
294.966
293.047
289.527
284.691
279.478
277.216
276.166
275.274
269.406
271.817
273.408
261.891
259.676
252.546
247.833
249.753
257.448
263.579
268.445
271.87
272.145
268.673
266.544
266.131
271.478
275.11
271.667
276.1
280.476
282.466
284.798
286.355
286.278
334.013
340.325
319.07
312.536
295.157
292.029
290.51
289.676
288.676
287.06
284.571
281.012
278.119
276.24
271.93
262.386
259.483
257.456
245.449
239.88
233.402
229.831
229.961
236.295
241.441
246.043
249.288
249.856
248.964
251.632
253.985
257.713
260.55
261.442
265.321
269.016
268.579
267.644
268.892
268.025
247.097
264.896
278.268
283.324
284.054
275.622
278.915
282.074
281.964
281.338
279.782
276.064
270.691
264.014
256.549
248.877
244.994
240.567
232.298
226.971
221.223
216.975
215.461
219.845
223.3
225.955
227.742
229.599
233.018
238.144
246.89
250.45
252.262
249.267
248.274
249.461
248.98
248.056
248.502
249.181
127.312
164.985
207.109
233.207
239.147
242.735
245.467
249.733
254.258
257.431
257.703
255.694
251.452
245.962
240.36
234.583
229.083
223.552
217.492
216.798
210.025
205.178
203.302
203.276
203.244
203.908
204.741
206.311
209.93
216.302
223.406
230.942
239.345
226.538
226.322
222.759
219.658
222.061
226.39
228.921
39.6822
95.4893
143.397
172.43
181.968
199.017
204.306
205.183
208.824
213.934
219.146
221.492
222.541
221.979
219.812
216.548
212.621
208.319
204.755
205.514
195.63
190.396
185.336
182.718
182.233
183.106
185.139
181.775
176.978
186.366
196.247
202.881
206.338
207.497
205.817
206.425
208.572
204.87
210.173
213.829
59.4048
82.234
109.007
141.935
154.07
168.1
170.249
170.583
166.083
163.446
173.353
184.112
191.122
195.691
197.851
198.839
198.091
195.847
192.904
191.819
185.648
175.252
166.407
163.921
163.047
162.041
167.24
173.174
172.242
169.681
173.726
182.094
188.425
193.405
196.639
202.514
207.376
207.309
204.844
209.106
121.839
121.72
128.885
144.684
156.184
162.183
158.382
158.546
158.806
155.6
150.947
155.168
164.906
171.392
175.914
179.686
181.693
181.57
180.972
178.671
171.253
165.863
159.584
151.175
155.054
160.151
163.973
165.994
161.991
161.468
163.772
165.719
173.257
180.775
186.117
192.33
197.328
201.066
201.328
201.753
172.533
164.603
162.772
157.568
158.141
158.879
157.742
156.047
153.975
151.789
147.169
145.662
149.977
153.602
156.504
159.31
161.916
162.948
162.867
162.64
159.68
153.342
147.366
150.499
144.692
152.464
156.665
155.793
154.228
154.631
156.225
158.044
160.644
167.343
175.604
178.443
182.259
182.315
187.181
185.895
187.444
182.84
178.716
174.055
168.884
164.36
160.313
156.909
153.933
150.312
141.641
137.974
137.243
137.275
137.61
138.187
138.832
139.247
138.758
137.597
134.013
129.647
125.741
131.235
132.197
139.894
145.297
144.903
143.583
145.082
147.599
149.406
150.591
153.282
164.244
165.719
171.708
172.571
173.362
173.933
192.536
181.852
181.765
176.638
170.853
165.127
159.219
152.367
145.264
138.306
130.787
125.733
122.347
120.026
118.448
117.587
117.32
117.13
116.679
116.519
115.115
110.151
109.386
113.144
117.207
120.186
126.147
130.574
132.94
135.78
138.932
141.433
143.174
143.306
150.02
156.201
162.887