/*--------------------------------*- C++ -*----------------------------------*\
  =========                 |
  \\      /  F ield         | OpenFOAM: The Open Source CFD Toolbox
   \\    /   O peration     | Website:  https://openfoam.org
    \\  /    A nd           | Version:  8
     \\/     M anipulation  |
\*---------------------------------------------------------------------------*/
FoamFile
{
    version     2.0;
    format      ascii;
    class       volVectorField;
    location    "6.25";
    object      U;
}
// * * * * * * * * * * * * * * * * * * * * * * * * * * * * * * * * * * * * * //

dimensions      [0 1 -1 0 0 0 0];

internalField   nonuniform List<vector> 
9150
(
(0.00483651 -0.0785171 0)
(0.0130953 -0.0974087 0)
(0.0108302 -0.1046 0)
(0.00894974 -0.107722 0)
(0.00250044 -0.109236 0)
(-0.00240307 -0.109272 0)
(-0.0090019 -0.107726 0)
(-0.0108913 -0.10462 0)
(-0.0131227 -0.0974135 0)
(-0.0048337 -0.0785105 0)
(0.00585055 -0.091983 0)
(0.00852311 -0.100466 0)
(0.00738821 -0.102217 0)
(0.00425135 -0.104756 0)
(0.0011632 -0.10554 0)
(-0.0021829 -0.105372 0)
(-0.00424197 -0.104775 0)
(-0.00740768 -0.102327 0)
(-0.00854582 -0.100505 0)
(-0.00585675 -0.0919952 0)
(0.00170397 -0.0954493 0)
(0.00454868 -0.0989563 0)
(0.0037721 -0.100953 0)
(0.003436 -0.101663 0)
(0.00143365 -0.102372 0)
(-0.00049684 -0.102666 0)
(-0.0032619 -0.101729 0)
(-0.00372321 -0.10108 0)
(-0.00454306 -0.0989845 0)
(-0.00170779 -0.0954669 0)
(0.001721 -0.0984045 0)
(0.00245574 -0.100379 0)
(0.00219592 -0.100254 0)
(0.00128671 -0.100861 0)
(0.000316288 -0.100923 0)
(-0.000827283 -0.100894 0)
(-0.00133346 -0.10076 0)
(-0.00219924 -0.100198 0)
(-0.0024369 -0.100399 0)
(-0.00171495 -0.0984118 0)
(0.000173513 -0.0994847 0)
(0.000715575 -0.0995762 0)
(0.000497829 -0.0999834 0)
(0.000706301 -0.0998585 0)
(0.000269962 -0.1001 0)
(-0.000124964 -0.10012 0)
(-0.000634464 -0.0998653 0)
(-0.000436926 -0.100076 0)
(-0.000710797 -0.0995852 0)
(-0.000170935 -0.0994836 0)
(0.0747547 -0.193971 3.11835e-26)
(0.0492286 -0.184271 0)
(0.0298295 -0.17557 0)
(0.0154008 -0.175064 0)
(0.0042045 -0.175832 0)
(-0.00509829 -0.175551 0)
(-0.0158239 -0.174303 0)
(-0.0303368 -0.176169 0)
(-0.0493633 -0.184662 0)
(-0.0749332 -0.194233 -3.10206e-26)
(0.0583961 -0.146561 7.61587e-27)
(0.0486089 -0.14645 0)
(0.0288192 -0.156376 0)
(0.021495 -0.155868 0)
(0.00603564 -0.154851 0)
(-0.00369949 -0.155276 0)
(-0.0201728 -0.157252 0)
(-0.028167 -0.156245 0)
(-0.048692 -0.146669 0)
(-0.0584547 -0.14678 -7.97911e-27)
(0.0473843 -0.121271 3.60457e-27)
(0.0428725 -0.131065 0)
(0.0291656 -0.133412 0)
(0.0166925 -0.13868 0)
(0.00539825 -0.140633 0)
(-0.00644193 -0.140095 0)
(-0.0173126 -0.13658 0)
(-0.0295237 -0.133361 0)
(-0.042905 -0.131242 0)
(-0.0474555 -0.121374 -3.48791e-27)
(0.0370174 -0.0992591 6.76151e-27)
(0.0394241 -0.110157 0)
(0.0231472 -0.120516 0)
(0.0179234 -0.124229 0)
(0.00458078 -0.125223 0)
(-0.00473759 -0.125544 0)
(-0.0175013 -0.125566 0)
(-0.0226863 -0.120646 0)
(-0.0392248 -0.110177 0)
(-0.0369775 -0.0992848 -6.68794e-27)
(0.0242453 -0.0817297 -1.71311e-26)
(0.0277544 -0.101348 -2.05978e-26)
(0.0197067 -0.108328 -5.18372e-27)
(0.0105648 -0.114335 -4.55793e-27)
(0.00500826 -0.117228 -1.96149e-28)
(-0.00427531 -0.117049 -2.48126e-28)
(-0.010706 -0.11404 -4.50419e-27)
(-0.0198299 -0.108414 -5.18786e-27)
(-0.0277636 -0.101338 -2.06816e-26)
(-0.0242563 -0.081713 -1.7149e-26)
(0.0195997 -0.140814 0)
(0.0113201 -0.20451 0)
(0.0226489 -0.215378 0)
(0.0129376 -0.222117 0)
(0.0105131 -0.22593 0)
(-0.00383675 -0.226747 0)
(-0.00670545 -0.224628 0)
(-0.0212192 -0.216791 0)
(-0.0115557 -0.204388 0)
(-0.018502 -0.141696 0)
(0.0161641 -0.167083 0)
(0.00116496 -0.199746 0)
(0.0144281 -0.209571 0)
(0.00163429 -0.214842 0)
(0.00354855 -0.215089 0)
(-0.00673903 -0.214923 0)
(-0.00424068 -0.212547 0)
(-0.0155792 -0.208393 0)
(-0.00176364 -0.198924 0)
(-0.0162732 -0.166312 0)
(0.0146643 -0.172304 0)
(-0.00439569 -0.203933 0)
(0.0105629 -0.209061 0)
(-0.0004796 -0.209686 0)
(0.00383632 -0.210065 0)
(-0.00213678 -0.210358 0)
(0.00076835 -0.210204 0)
(-0.0104658 -0.208971 0)
(0.00437591 -0.203547 0)
(-0.0145812 -0.172171 0)
(0.0185515 -0.195497 0)
(-0.00719885 -0.204655 0)
(0.0091758 -0.21069 0)
(-0.00091462 -0.207385 0)
(-0.000128636 -0.207211 0)
(-0.0019213 -0.206532 0)
(-0.000234021 -0.205561 0)
(-0.00952758 -0.21057 0)
(0.00712549 -0.204444 0)
(-0.0187956 -0.195411 0)
(0.036796 -0.216792 0)
(0.0103138 -0.203571 0)
(0.0157871 -0.201756 0)
(0.0122904 -0.194778 0)
(0.00241349 -0.191824 0)
(-0.001695 -0.192526 0)
(-0.012146 -0.197037 0)
(-0.0160064 -0.202297 0)
(-0.0104484 -0.203819 0)
(-0.0367988 -0.216902 0)
(0.0699774 0.00356875 0)
(0.0688317 0.00604499 0)
(0.0649647 0.00752685 0)
(0.0601165 0.00514291 0)
(0.0560451 0.00409045 0)
(0.0510732 0.00212522 0)
(0.047563 0.000307653 0)
(0.0467833 0.000716079 0)
(0.0446985 0.00373104 0)
(0.0399658 0.00392947 0)
(0.0698561 -0.00141208 0)
(0.074009 0.00349268 0)
(0.076016 0.00868715 0)
(0.0764907 0.0128326 0)
(0.0746988 0.0146747 0)
(0.070611 0.0142057 0)
(0.0650473 0.00923249 0)
(0.0597824 0.00579038 0)
(0.0567143 0.0083109 0)
(0.0513025 0.0147556 0)
(0.0598526 -0.0150969 0)
(0.0661924 -0.00870066 0)
(0.0717872 0.00299871 0)
(0.0753267 0.010285 0)
(0.0774811 0.0146072 0)
(0.0762387 0.0194873 0)
(0.0739102 0.0205279 0)
(0.0690145 0.0177766 0)
(0.0634487 0.0202251 0)
(0.0571611 0.026766 0)
(0.0741599 -0.0179833 0)
(0.0704637 -0.0181813 0)
(0.07137 -0.0112745 0)
(0.0755947 0.00329329 0)
(0.0767982 0.0140345 0)
(0.0750491 0.0224659 0)
(0.0711176 0.0251618 0)
(0.0672806 0.0252328 0)
(0.0635381 0.0283657 0)
(0.0585723 0.0344452 0)
(0.101546 0.0111388 0)
(0.0863767 -0.00551122 0)
(0.0802772 -0.00848301 0)
(0.0786019 -0.00247197 0)
(0.0769347 0.0163598 0)
(0.0753686 0.029858 0)
(0.070192 0.0368678 0)
(0.0636862 0.0372185 0)
(0.0562306 0.0403966 0)
(0.0507572 0.0430752 0)
(0.120211 0.0271679 0)
(0.110749 0.0193566 0)
(0.0996403 0.00818032 0)
(0.0926794 0.00876022 0)
(0.0849751 0.0227407 0)
(0.0782351 0.0391692 0)
(0.0729207 0.0459521 0)
(0.0675271 0.049959 0)
(0.0613075 0.0531443 0)
(0.054459 0.0517706 0)
(0.133143 0.0442078 0)
(0.119182 0.0372884 0)
(0.105423 0.0266099 0)
(0.096648 0.0271661 0)
(0.0861492 0.0414491 0)
(0.0780129 0.0550225 0)
(0.0726617 0.0592609 0)
(0.0682416 0.0601011 0)
(0.0645013 0.0653338 0)
(0.0582432 0.067715 0)
(0.135953 0.066921 0)
(0.129246 0.0672767 0)
(0.116363 0.0555327 0)
(0.103938 0.0495737 0)
(0.0943574 0.0589979 0)
(0.0848751 0.0675066 0)
(0.0771582 0.0685371 0)
(0.0700475 0.0677677 0)
(0.0669758 0.0715403 0)
(0.0628999 0.0817371 0)
(0.133614 0.0797409 0)
(0.129495 0.0808337 0)
(0.122812 0.0718935 0)
(0.11372 0.0679319 0)
(0.102816 0.0777258 0)
(0.0915105 0.0873368 0)
(0.0828889 0.0864218 0)
(0.0745508 0.0818318 0)
(0.068766 0.0818579 0)
(0.065645 0.0899243 0)
(0.126533 0.0880116 0)
(0.122932 0.0874345 0)
(0.11641 0.083938 0)
(0.106677 0.0900606 0)
(0.094182 0.102232 0)
(0.0861807 0.106986 0)
(0.0817811 0.102801 0)
(0.0757897 0.0934158 0)
(0.0713389 0.0911211 0)
(0.0679322 0.0961093 0)
(0.098789 0.0989682 0)
(0.0944294 0.101001 0)
(0.0867927 0.106048 0)
(0.0792252 0.113473 0)
(0.0743989 0.11695 0)
(0.0730173 0.116436 0)
(0.0729151 0.108809 0)
(0.070881 0.101085 0)
(0.068041 0.0997464 0)
(0.0642708 0.104328 0)
(0.0598773 0.105088 0)
(0.0603396 0.112059 0)
(0.0587024 0.115759 0)
(0.0575021 0.117936 0)
(0.0570317 0.116742 0)
(0.0585817 0.111184 0)
(0.0601565 0.106325 0)
(0.0594675 0.105289 0)
(0.0577325 0.107251 0)
(0.0559343 0.110219 0)
(0.0478407 0.094923 0)
(0.0509604 0.106824 0)
(0.0519554 0.114634 0)
(0.0522771 0.116755 0)
(0.052581 0.11556 0)
(0.0514726 0.110336 0)
(0.049143 0.107069 0)
(0.0473994 0.106848 0)
(0.0469739 0.10755 0)
(0.0472098 0.108057 0)
(0.050264 0.0889248 0)
(0.0510986 0.101524 0)
(0.0520378 0.111219 0)
(0.052605 0.117447 0)
(0.0519759 0.118195 0)
(0.0477963 0.118484 0)
(0.042334 0.117244 0)
(0.0411134 0.111325 0)
(0.0404467 0.109339 0)
(0.0400184 0.109004 0)
(0.0540865 0.0894134 0)
(0.0531097 0.1014 0)
(0.0514961 0.110403 0)
(0.04906 0.119857 0)
(0.0446508 0.12478 0)
(0.0380111 0.127152 0)
(0.0343446 0.121393 0)
(0.0316761 0.115127 0)
(0.027206 0.11466 0)
(0.0246553 0.112883 0)
(0.0517505 0.0925694 0)
(0.0463655 0.106297 0)
(0.0386794 0.119418 0)
(0.0289815 0.134515 0)
(0.0197976 0.139691 0)
(0.0135355 0.134775 0)
(0.0116885 0.128001 0)
(0.0085607 0.1269 0)
(0.00623248 0.122336 0)
(0.0080862 0.113294 0)
(0.0394473 0.107743 0)
(0.0311443 0.124321 0)
(0.0230417 0.139733 0)
(0.015703 0.150939 0)
(0.0102278 0.151982 0)
(0.0062061 0.140878 0)
(0.000311262 0.134132 0)
(-0.00515995 0.129608 0)
(-0.00489165 0.118816 0)
(0.00324351 0.102553 0)
(0.0391563 0.137697 0)
(0.0305086 0.143186 0)
(0.0247134 0.152968 0)
(0.0200735 0.159448 0)
(0.0165594 0.157949 0)
(0.0148486 0.146899 0)
(0.0110892 0.137458 0)
(0.0105155 0.120974 0)
(0.0124849 0.0917398 0)
(0.015695 0.0470815 0)
(0.0515853 0.146153 0)
(0.0495063 0.158405 0)
(0.0451234 0.164051 0)
(0.044526 0.167385 0)
(0.0471637 0.165213 0)
(0.0544967 0.151738 0)
(0.0604327 0.140497 0)
(0.067365 0.13043 0)
(0.0652467 0.112896 0)
(0.0732751 0.0584852 0)
(0.0823746 0.143592 0)
(0.0813717 0.156326 0)
(0.0821929 0.161843 0)
(0.0857725 0.16101 0)
(0.0946814 0.150795 0)
(0.101935 0.134812 0)
(0.104607 0.125609 0)
(0.103955 0.119358 0)
(0.104911 0.105347 0)
(0.121954 0.0437001 0)
(0.0983156 0.165653 0)
(0.0915156 0.159068 0)
(0.0918739 0.14741 0)
(0.0995114 0.138665 0)
(0.107455 0.132504 0)
(0.109946 0.128844 0)
(0.107948 0.125244 0)
(0.107082 0.115214 0)
(0.114406 0.087918 0)
(0.143714 0.00854727 0)
(0.113777 0.193504 0)
(0.100046 0.17836 0)
(0.0938014 0.135805 0)
(0.0999514 0.124075 0)
(0.104011 0.128439 0)
(0.10065 0.134055 0)
(0.0931694 0.131809 0)
(0.0935544 0.10255 0)
(0.123237 0.0346863 0)
(0.135513 -0.0181127 0)
(0.115246 0.212033 0)
(0.111793 0.203643 0)
(0.0989434 0.146428 0)
(0.0889387 0.125877 0)
(0.0844999 0.137915 0)
(0.0736407 0.148149 0)
(0.0772833 0.127186 0)
(0.103816 0.0446829 0)
(0.119281 0.00128456 0)
(0.117716 0.00113404 0)
(0.110211 0.212653 0)
(0.111013 0.212029 0)
(0.106166 0.173753 0)
(0.0846552 0.147495 0)
(0.0685029 0.156993 0)
(0.0668723 0.149366 0)
(0.082141 0.067449 0)
(0.0948607 0.0138217 0)
(0.0916399 0.0219928 0)
(0.0631087 0.0593683 0)
(0.101759 0.1975 0)
(0.103699 0.209935 0)
(0.102122 0.199857 0)
(0.0876659 0.188345 0)
(0.0718252 0.178321 0)
(0.0774052 0.13869 0)
(0.0801302 0.047794 0)
(0.0728946 0.0383387 0)
(0.0534513 0.0719376 0)
(0.0359289 0.0829978 0)
(0.0761525 0.185033 0)
(0.0788322 0.210371 0)
(0.077204 0.210949 0)
(0.0743805 0.206084 0)
(0.0697597 0.188387 0)
(0.0769794 0.120644 0)
(0.0709946 0.0697327 0)
(0.0520172 0.071752 0)
(0.040584 0.100097 0)
(0.0358637 0.0781548 0)
(0.0519866 0.186283 0)
(0.0564225 0.206329 0)
(0.0643079 0.209262 0)
(0.0653275 0.206662 0)
(0.0675535 0.185887 0)
(0.0719723 0.120604 0)
(0.0621386 0.10183 0)
(0.0448826 0.0902709 0)
(0.0461598 0.106694 0)
(0.0448647 0.0745767 0)
(0.0481017 0.180317 0)
(0.0542299 0.192322 0)
(0.0577006 0.198415 0)
(0.0619871 0.1989 0)
(0.0677971 0.171199 0)
(0.070088 0.139175 0)
(0.0490957 0.132248 0)
(0.0318745 0.108341 0)
(0.020589 0.110131 0)
(0.0195043 0.0795842 0)
(0.0342539 0.159361 0)
(0.0435491 0.175034 0)
(0.0495217 0.187991 0)
(0.051539 0.183923 0)
(0.0536134 0.16432 0)
(0.0378056 0.172875 0)
(0.0241497 0.158519 0)
(0.0188021 0.139861 0)
(0.000216717 0.125119 0)
(-0.00334944 0.0911137 0)
(0.00660354 0.148518 0)
(0.0133892 0.164141 0)
(0.0228115 0.183507 0)
(0.0275185 0.183586 0)
(0.0255672 0.187818 0)
(0.0174304 0.197275 0)
(0.0143792 0.174296 0)
(0.0108087 0.171717 0)
(-0.0197196 0.159931 0)
(-0.0406516 0.116628 0)
(0.00159645 0.141702 0)
(0.000622565 0.157172 0)
(0.00195328 0.173696 0)
(0.0110319 0.18382 0)
(0.0110209 0.194972 0)
(0.0149609 0.196993 0)
(0.019045 0.178425 0)
(0.0215778 0.189461 0)
(0.00928796 0.215597 0)
(-0.0260888 0.160304 0)
(-0.0168788 0.140073 0)
(-0.0189002 0.151546 0)
(-0.015038 0.155132 0)
(-0.00397628 0.167341 0)
(0.00708937 0.186954 0)
(0.0180771 0.180576 0)
(0.0267349 0.174541 0)
(0.0310241 0.189249 0)
(0.0342918 0.247379 0)
(0.0128019 0.232405 0)
(-0.0251934 0.130254 0)
(-0.0158163 0.147924 0)
(-0.00644808 0.141368 0)
(0.00327218 0.138495 0)
(0.0131644 0.150918 0)
(0.0310343 0.144203 0)
(0.0386992 0.153903 0)
(0.0497856 0.171999 0)
(0.0576445 0.237067 0)
(0.0557235 0.269176 0)
(-0.0155199 0.0946278 0)
(-0.00487189 0.122325 0)
(0.00998191 0.120351 0)
(0.0178853 0.123282 0)
(0.0301768 0.127317 0)
(0.0413689 0.128081 0)
(0.0489516 0.138764 0)
(0.054148 0.159571 0)
(0.0580848 0.230076 0)
(0.0492201 0.293526 0)
(-0.0058911 0.0797595 0)
(0.00141827 0.0918098 0)
(0.0101516 0.0922441 0)
(0.0193363 0.0968732 0)
(0.0302248 0.102255 0)
(0.0400817 0.107489 0)
(0.0503105 0.122119 0)
(0.0534365 0.155033 0)
(0.053041 0.23511 0)
(0.0493981 0.306031 0)
(0.00682139 0.0872093 0)
(0.0118382 0.0918357 0)
(0.0154738 0.0858209 0)
(0.0199423 0.083338 0)
(0.0217911 0.0868576 0)
(0.0249928 0.0922485 0)
(0.0327906 0.106552 0)
(0.0422514 0.155872 0)
(0.042825 0.244303 0)
(0.0490847 0.300869 0)
(0.0372051 0.0770008 0)
(0.0332222 0.0781643 0)
(0.0309363 0.0868981 0)
(0.0256241 0.090358 0)
(0.0210397 0.088984 0)
(0.0165781 0.0912915 0)
(0.0104678 0.100182 0)
(0.0137368 0.143221 0)
(0.024958 0.238697 0)
(0.0413712 0.280854 0)
(0.0827087 0.110784 0)
(0.054206 0.0954841 0)
(0.0432939 0.0972402 0)
(0.0326415 0.0984186 0)
(0.0314992 0.0952559 0)
(0.028466 0.108482 0)
(0.0140768 0.111998 0)
(0.00373453 0.137099 0)
(0.00701312 0.19638 0)
(0.0238221 0.226904 0)
(0.123936 0.15802 0)
(0.11014 0.154225 0)
(0.0932445 0.136904 0)
(0.0636291 0.113645 0)
(0.0552338 0.100374 0)
(0.0487378 0.107822 0)
(0.0451301 0.140583 0)
(0.0302542 0.150145 0)
(0.032696 0.176331 0)
(0.0436079 0.191702 0)
(0.122253 0.164259 0)
(0.120019 0.172102 0)
(0.112217 0.175193 0)
(0.100593 0.167885 0)
(0.0795026 0.136815 0)
(0.059977 0.127688 0)
(0.0542653 0.148937 0)
(0.0522376 0.162781 0)
(0.0542694 0.170471 0)
(0.0614852 0.174926 0)
(0.113837 0.166532 0)
(0.115432 0.169637 0)
(0.11265 0.181134 0)
(0.110498 0.181542 0)
(0.105798 0.173256 0)
(0.0887672 0.157149 0)
(0.073377 0.161651 0)
(0.0655954 0.164884 0)
(0.0663223 0.163332 0)
(0.0700639 0.149578 0)
(0.113406 0.171895 0)
(0.111599 0.171602 0)
(0.110078 0.179446 0)
(0.107767 0.18884 0)
(0.106413 0.191067 0)
(0.102835 0.186084 0)
(0.0979389 0.176663 0)
(0.0976091 0.174453 0)
(0.0958273 0.172104 0)
(0.0893295 0.150469 0)
(0.0966403 0.184789 0)
(0.0998046 0.180145 0)
(0.101189 0.180979 0)
(0.102399 0.186667 0)
(0.102419 0.191237 0)
(0.101268 0.186672 0)
(0.104316 0.170608 0)
(0.108799 0.167283 0)
(0.115319 0.168279 0)
(0.1166 0.161057 0)
(0.0810107 0.168262 0)
(0.0847684 0.16938 0)
(0.0866901 0.175788 0)
(0.0897697 0.185644 0)
(0.093489 0.187782 0)
(0.0943682 0.182889 0)
(0.0977483 0.162104 0)
(0.101361 0.161554 0)
(0.108735 0.162432 0)
(0.115429 0.155379 0)
(0.0225639 0.168555 0)
(0.0318866 0.175651 0)
(0.0445114 0.180723 0)
(0.0580724 0.18196 0)
(0.06722 0.183643 0)
(0.0740532 0.177942 0)
(0.079193 0.161538 0)
(0.0893818 0.153737 0)
(0.100213 0.142857 0)
(0.110854 0.132588 0)
(-0.0192503 0.0938158 0)
(-0.009401 0.11933 0)
(0.00181192 0.135354 0)
(0.0173269 0.145001 0)
(0.0396061 0.145384 0)
(0.056564 0.141185 0)
(0.0676143 0.135796 0)
(0.0761852 0.126364 0)
(0.080838 0.115129 0)
(0.0881114 0.0973215 0)
(-0.126533 0.104555 0)
(-0.106715 0.114496 0)
(-0.0878953 0.110913 0)
(-0.0590151 0.0943999 0)
(-0.0376424 0.0984878 0)
(-0.0112443 0.120873 0)
(0.00645005 0.132652 0)
(0.0127134 0.133444 0)
(0.0210876 0.127107 0)
(0.0174567 0.10011 0)
(-0.264466 0.0591456 0)
(-0.240656 0.0617916 0)
(-0.215431 0.0512783 0)
(-0.19366 0.0436102 0)
(-0.170406 0.057075 0)
(-0.136429 0.0611031 0)
(-0.113157 0.0884552 0)
(-0.0838283 0.0905226 0)
(-0.0512545 0.0936802 0)
(-0.0242896 0.0420835 0)
(-0.305399 0.00105723 0)
(-0.282425 0.00606126 0)
(-0.256461 -0.0131625 0)
(-0.228106 -0.0238778 0)
(-0.1975 -0.00263573 0)
(-0.169284 0.00954744 0)
(-0.148031 0.00412316 0)
(-0.113079 0.00678244 0)
(-0.0800154 0.0194814 0)
(-0.0592699 0.00638571 0)
(-0.394977 -0.0517711 0)
(-0.362527 -0.0662844 0)
(-0.332675 -0.0723094 0)
(-0.306417 -0.0723631 0)
(-0.269572 -0.0589846 0)
(-0.224216 -0.0390491 0)
(-0.193706 -0.0384695 0)
(-0.177644 -0.0242952 0)
(-0.153503 -0.0153915 0)
(-0.136935 -0.0149313 0)
(-0.525232 -0.106125 0)
(-0.494322 -0.114366 0)
(-0.475612 -0.107341 0)
(-0.448254 -0.132121 0)
(-0.403949 -0.156111 0)
(-0.368174 -0.136419 0)
(-0.317957 -0.0908537 0)
(-0.264147 -0.0730583 0)
(-0.216528 -0.070965 0)
(-0.179917 -0.0548928 0)
(-0.65698 -0.117519 0)
(-0.662844 -0.120058 0)
(-0.642267 -0.155324 0)
(-0.568196 -0.209019 0)
(-0.482364 -0.236987 0)
(-0.399723 -0.215212 0)
(-0.332759 -0.213114 0)
(-0.259801 -0.246913 0)
(-0.203746 -0.196092 0)
(-0.160179 -0.12967 0)
(-0.547659 -0.132511 0)
(-0.548168 -0.192137 0)
(-0.546346 -0.274901 0)
(-0.50469 -0.39573 0)
(-0.440154 -0.464999 0)
(-0.362918 -0.456812 0)
(-0.258189 -0.390486 0)
(-0.156857 -0.319536 0)
(-0.127887 -0.195078 0)
(-0.0637193 -0.152581 0)
(-0.21146 -0.169629 0)
(-0.188137 -0.183828 0)
(-0.181845 -0.268472 0)
(-0.215809 -0.395 0)
(-0.152905 -0.548997 0)
(-0.0869774 -0.64079 0)
(-0.0233907 -0.657425 0)
(0.0413631 -0.593169 0)
(0.0695208 -0.422332 0)
(0.128312 -0.221567 0)
(0.0192439 -0.204866 0)
(0.0511287 -0.168339 0)
(0.0846879 -0.237686 0)
(0.0599599 -0.374158 0)
(0.104042 -0.597993 0)
(0.17799 -0.733636 0)
(0.208198 -0.70935 0)
(0.21149 -0.607077 0)
(0.183861 -0.439301 0)
(0.17242 -0.23574 0)
(0.053449 -0.316817 0)
(0.0977742 -0.257783 0)
(0.113117 -0.270903 0)
(0.146693 -0.377017 0)
(0.270566 -0.673712 0)
(0.281054 -0.761235 0)
(0.287956 -0.713727 0)
(0.259348 -0.599771 0)
(0.212928 -0.40945 0)
(0.219108 -0.15727 0)
(0.00265559 -0.354659 0)
(0.0327665 -0.328536 0)
(0.0680151 -0.396245 0)
(0.189174 -0.667074 0)
(0.26015 -0.860716 0)
(0.272819 -0.823975 0)
(0.281463 -0.723932 0)
(0.217209 -0.569109 0)
(0.188884 -0.369157 0)
(0.18647 -0.173946 0)
(-0.0478579 -0.347504 0)
(-0.0448961 -0.384951 0)
(0.0169447 -0.582373 0)
(0.128748 -0.852991 0)
(0.0564018 -0.895 0)
(0.0459064 -0.761909 0)
(0.0137106 -0.56242 0)
(-0.0525252 -0.460949 0)
(0.00480827 -0.307052 0)
(-0.0470268 -0.133871 0)
(-0.0734272 -0.361462 0)
(-0.0729179 -0.435865 0)
(-0.0180694 -0.662367 0)
(-0.0793436 -0.838639 0)
(-0.134785 -0.780064 0)
(-0.101772 -0.583142 0)
(-0.16315 -0.459248 0)
(-0.209763 -0.396049 0)
(-0.207403 -0.254183 0)
(-0.209017 -0.137944 0)
(-0.0942067 -0.357911 0)
(-0.100591 -0.430117 0)
(-0.132994 -0.634599 0)
(-0.209895 -0.737062 0)
(-0.221313 -0.746496 0)
(-0.181446 -0.584815 0)
(-0.208961 -0.430113 0)
(-0.264743 -0.37886 0)
(-0.262992 -0.247182 0)
(-0.266628 -0.17871 0)
(-0.0902334 -0.326684 0)
(-0.103623 -0.366232 0)
(-0.144235 -0.484975 0)
(-0.252374 -0.693379 0)
(-0.255997 -0.736164 0)
(-0.203924 -0.606171 0)
(-0.182988 -0.384515 0)
(-0.208132 -0.319706 0)
(-0.232773 -0.32199 0)
(-0.241001 -0.322134 0)
(-0.0420859 -0.294198 0)
(-0.0589206 -0.337148 0)
(-0.0314502 -0.355209 0)
(-0.177938 -0.545681 0)
(-0.230679 -0.739313 0)
(-0.19741 -0.813589 0)
(-0.100337 -0.499968 0)
(-0.0249968 -0.247104 0)
(-0.0699894 -0.132115 0)
(-0.126379 -0.100467 0)
(0.0612208 -0.232843 0)
(0.0175075 -0.336677 0)
(0.0397702 -0.352143 0)
(-0.00519079 -0.314087 0)
(-0.0736497 -0.621189 0)
(-0.0486457 -0.894634 0)
(-0.0682898 -0.819829 0)
(0.0656256 -0.284495 0)
(0.0631631 -0.119957 0)
(0.0295433 -0.04558 0)
(0.131404 -0.214627 0)
(0.142367 -0.245865 0)
(0.0999663 -0.356142 0)
(0.0924605 -0.295361 0)
(0.025837 -0.488619 0)
(0.11382 -0.878119 0)
(0.143894 -0.870467 0)
(0.136353 -0.618016 0)
(0.164278 -0.0153871 0)
(0.0991598 0.0887413 0)
(0.14401 -0.227197 0)
(0.148107 -0.217576 0)
(0.129069 -0.275102 0)
(0.0759516 -0.239413 0)
(0.108934 -0.574247 0)
(0.179919 -0.973949 0)
(0.221755 -0.926303 0)
(0.227364 -0.65529 0)
(0.235307 0.0221967 0)
(0.171263 0.241052 0)
(0.159376 -0.216482 0)
(0.153438 -0.205912 0)
(0.139139 -0.221877 0)
(0.0804704 -0.166508 0)
(0.123452 -0.771632 0)
(0.14227 -1.05457 0)
(0.209242 -1.0268 0)
(0.211148 -0.702043 0)
(0.144607 0.0944282 0)
(0.102694 0.361879 0)
(0.140566 -0.193755 0)
(0.147029 -0.219587 0)
(0.144616 -0.211151 0)
(0.108752 -0.115366 0)
(0.0626875 -0.916037 0)
(0.0579171 -1.07198 0)
(0.131701 -1.05455 0)
(0.0266809 -0.352383 0)
(-0.0973141 0.367923 0)
(-0.0189487 0.379559 0)
(0.085939 -0.156993 0)
(0.0581586 -0.195936 0)
(0.00544421 -0.183904 0)
(0.000948648 0.184772 0)
(0.0382215 -0.981546 0)
(0.0177967 -1.06779 0)
(0.0454821 -0.919048 0)
(-0.105124 0.108099 0)
(-0.139836 0.283429 0)
(-0.0911535 0.270878 0)
(0.0563433 -0.114154 0)
(0.0398995 -0.0964475 0)
(-0.0396646 -0.087684 0)
(-0.0319107 -0.0808375 0)
(0.03182 -0.994814 0)
(-0.00335926 -1.0561 0)
(0.00190176 -0.833608 0)
(-0.0873887 0.118358 0)
(-0.0894108 0.198696 0)
(-0.0622265 0.201836 0)
(0.0604868 -0.096428 0)
(0.0687732 -0.0741894 0)
(0.0447421 -0.0178691 0)
(0.0092821 0.0293821 0)
(0.0294852 -0.984625 0)
(0.00422361 -1.02027 0)
(-0.000574101 -0.911759 0)
(0.04879 0.190109 0)
(0.0696581 0.187686 0)
(0.00658583 0.218109 0)
(0.0194498 -0.0818386 0)
(-0.0246283 0.00822114 0)
(-0.156817 0.0427237 0)
(-0.0259614 -0.186684 0)
(0.0402319 -1.00183 0)
(0.0195872 -1.01008 0)
(0.0603336 -0.940534 0)
(0.100419 -0.183718 0)
(0.188798 0.273153 0)
(0.144398 0.279729 0)
(0.0170297 0.00570467 0)
(0.0541261 0.138001 0)
(-0.0669714 0.203276 0)
(0.0156296 -0.471356 0)
(0.0347248 -0.987757 0)
(0.0190326 -1.00786 0)
(0.040072 -0.997073 0)
(0.00297968 0.0376464 0)
(0.0310011 0.277173 0)
(0.110112 0.303654 0)
(-0.0695728 -0.0166032 0)
(0.0458142 0.11331 0)
(-0.022147 0.32829 0)
(-0.00821687 -0.621231 0)
(0.014806 -0.988613 0)
(0.00251692 -1.00075 0)
(0.00479487 -1.0099 0)
(-0.00840933 -0.0556553 0)
(-0.0311919 -0.0250577 0)
(0.052616 0.0617658 0)
(-0.0192271 -0.106754 0)
(0.0117849 0.0263619 0)
(-0.0352951 0.413228 0)
(-0.0123298 -0.670712 0)
(0.00759871 -0.985118 0)
(-0.00664501 -0.986649 0)
(-0.0124662 -1.02167 0)
(0.0451909 0.0883177 0)
(0.187137 0.0953852 0)
(0.115743 0.0616776 0)
(0.182057 0.110321 0)
(0.0773551 0.0739012 0)
(0.0252555 0.395431 0)
(0.0233795 -0.655934 0)
(0.0196956 -0.961972 0)
(0.0026049 -0.96014 0)
(-0.00442452 -1.00953 0)
(-0.0155064 -0.640753 0)
(0.264886 0.0348191 0)
(0.297218 -0.0337484 0)
(0.13661 0.325955 0)
(0.00994934 0.215712 0)
(-0.04245 0.53585 0)
(-0.0051451 -0.808094 0)
(0.0143067 -0.948951 0)
(0.00851741 -0.953077 0)
(0.0149154 -0.980493 0)
(-0.00210965 -0.67816 0)
(0.044515 -0.182878 0)
(0.0718202 -0.151643 0)
(0.0591555 0.229085 0)
(0.00491234 0.376563 0)
(-0.0282186 0.59874 0)
(0.0273199 -0.846192 0)
(0.0150084 -0.932489 0)
(0.00186081 -0.943435 0)
(-0.00042845 -0.958821 0)
(-0.00379589 -0.673049 0)
(-0.001997 -0.191565 0)
(-0.00685462 -0.159318 0)
(-0.0673514 0.157003 0)
(-0.0398379 0.430797 0)
(-0.0143088 0.567253 0)
(0.00640425 -0.869048 0)
(-0.00139089 -0.913091 0)
(-0.0154643 -0.918976 0)
(-0.0230469 -0.941238 0)
(-0.0355404 -0.685218 0)
(-0.012244 -0.216466 0)
(-0.0146224 -0.14337 0)
(-0.33134 0.0444227 0)
(-0.144686 0.370031 0)
(-0.0242072 0.466016 0)
(-0.00599045 -0.904352 0)
(-0.00527411 -0.894631 0)
(-0.01853 -0.89619 0)
(-0.0303502 -0.918581 0)
(-0.0592115 -0.689559 0)
(-0.0476923 -0.209897 0)
(-0.0523867 -0.117439 0)
(-0.387819 -0.152821 0)
(-0.332951 -0.0654301 0)
(-0.0302065 0.194904 0)
(0.000336276 -0.901262 0)
(-0.00450619 -0.875001 0)
(-0.0156302 -0.872906 0)
(-0.0221934 -0.896057 0)
(-0.0480647 -0.688687 0)
(-0.0460962 -0.19948 0)
(-0.0566279 -0.120489 0)
(-0.138927 0.0500412 0)
(-0.193592 -0.0706643 0)
(-0.0289741 -0.598113 0)
(0.00534126 -0.874308 0)
(-0.000945473 -0.852691 0)
(-0.013792 -0.850432 0)
(-0.0238514 -0.877376 0)
(-0.0447319 -0.67722 0)
(-0.0496478 -0.188588 0)
(-0.0567614 -0.111804 0)
(-0.0074193 0.0229804 0)
(-0.000744433 -0.0372977 0)
(0.00354463 -0.544626 0)
(0.00948612 -0.852526 0)
(0.000660061 -0.831099 0)
(-0.0106719 -0.829158 0)
(-0.0189057 -0.852056 0)
(-0.0386237 -0.65104 0)
(-0.0582104 -0.149395 0)
(-0.0662669 -0.0837607 0)
(0.0294925 0.0194576 0)
(0.0276891 -0.0360702 0)
(0.0158255 -0.573852 0)
(0.0119922 -0.828491 0)
(0.00435009 -0.805932 0)
(-0.00844984 -0.805279 0)
(-0.0171914 -0.830614 0)
(-0.0306792 -0.630191 0)
(-0.0594175 -0.112445 0)
(-0.0802404 -0.0487399 0)
(0.0520235 0.0391112 0)
(0.0448912 -0.00176073 0)
(0.0188635 -0.557629 0)
(0.0157056 -0.805404 0)
(0.00392187 -0.783316 0)
(-0.00837865 -0.782892 0)
(-0.0197521 -0.805236 0)
(-0.0283834 -0.591848 0)
(-0.0664242 -0.035637 0)
(-0.102261 0.0184065 0)
(0.0709723 0.0671626 0)
(0.0474516 0.0299007 0)
(0.017441 -0.541681 0)
(0.0137175 -0.779791 0)
(0.00427447 -0.759968 0)
(-0.00992674 -0.758839 0)
(-0.0203973 -0.781539 0)
(-0.0302713 -0.575529 0)
(-0.0549459 0.0446758 0)
(-0.0876223 0.100396 0)
(0.0955735 0.137009 0)
(0.0605286 0.11014 0)
(0.0269074 -0.513937 0)
(0.0212733 -0.754935 0)
(0.00864104 -0.736459 0)
(-0.0022621 -0.732441 0)
(-0.0141512 -0.754747 0)
(-0.0223052 -0.563631 0)
(-0.0385397 0.107511 0)
(-0.0682495 0.157918 0)
(0.0869988 0.196643 0)
(0.0440849 0.17709 0)
(0.042684 -0.514749 0)
(0.0244718 -0.72803 0)
(0.014776 -0.708948 0)
(0.0026178 -0.709684 0)
(-0.0092671 -0.730047 0)
(-0.0120884 -0.550828 0)
(-0.0222126 0.127183 0)
(-0.0172788 0.250887 0)
(0.0343637 0.29443 0)
(0.0274377 0.218748 0)
(0.0371253 -0.519051 0)
(0.0236696 -0.70101 0)
(0.0100918 -0.681102 0)
(-0.00339452 -0.682889 0)
(-0.0185894 -0.700425 0)
(-0.0211256 -0.544032 0)
(-0.020634 0.0949721 0)
(0.00624005 0.260384 0)
(-0.0256483 0.28391 0)
(0.0169351 0.170292 0)
(0.0365447 -0.523729 0)
(0.0232905 -0.671536 0)
(0.00817338 -0.655312 0)
(-0.00463856 -0.657387 0)
(-0.020771 -0.67289 0)
(-0.0281178 -0.501847 0)
(-0.0569786 0.0671251 0)
(-0.00639117 0.216268 0)
(-0.0245694 0.235817 0)
(0.0344115 0.10366 0)
(0.0330348 -0.493253 0)
(0.0205544 -0.641525 0)
(0.00443221 -0.62785 0)
(-0.00822526 -0.629202 0)
(-0.024212 -0.641851 0)
(-0.0370537 -0.47762 0)
(-0.0396641 0.059262 0)
(0.00897435 0.0850245 0)
(-0.0560532 0.132852 0)
(0.00498374 0.0225549 0)
(0.0405003 -0.483533 0)
(0.0247899 -0.610137 0)
(0.00569136 -0.599511 0)
(-0.00859921 -0.599224 0)
(-0.0268279 -0.611113 0)
(-0.0465165 -0.499404 0)
(0.0174016 -0.0769017 0)
(0.0696343 0.0137788 0)
(-0.067072 -0.0435931 0)
(-0.0294197 -0.153632 0)
(0.0474126 -0.52251 0)
(0.0256221 -0.577222 0)
(0.00562566 -0.570876 0)
(-0.00741737 -0.571054 0)
(-0.0256344 -0.578695 0)
(-0.0468739 -0.531324 0)
(0.0198339 -0.189623 0)
(0.0186639 -0.0511962 0)
(0.00749554 -0.0601148 0)
(0.0106918 -0.213037 0)
(0.0511627 -0.530224 0)
(0.0286349 -0.54273 0)
(0.00806588 -0.53987 0)
(-0.00672191 -0.538737 0)
(-0.0274821 -0.544381 0)
(-0.0488413 -0.535672 0)
(-0.0199694 -0.203519 0)
(-0.032673 -0.0269778 0)
(0.0645266 -0.0942789 0)
(0.0583329 -0.221881 0)
(0.0554464 -0.489074 0)
(0.0276175 -0.504279 0)
(0.00859454 -0.505379 0)
(-0.00954706 -0.507288 0)
(-0.0298398 -0.506178 0)
(-0.0545303 -0.491304 0)
(-0.0545194 -0.216783 0)
(-0.0635036 -0.038175 0)
(0.0606021 -0.106095 0)
(0.053872 -0.226269 0)
(0.0511775 -0.450814 0)
(0.024253 -0.463847 0)
(0.000835757 -0.467814 0)
(-0.0150618 -0.468684 0)
(-0.0343961 -0.466909 0)
(-0.0688266 -0.448717 0)
(-0.0633063 -0.214404 0)
(-0.0710422 -0.0537908 0)
(0.0523261 -0.12561 0)
(0.0725289 -0.212022 0)
(0.0688528 -0.397871 0)
(0.0402288 -0.421949 0)
(0.016822 -0.428896 0)
(-0.00770688 -0.427321 0)
(-0.0275085 -0.422649 0)
(-0.060903 -0.399821 0)
(-0.0662706 -0.202847 0)
(-0.0414866 -0.0814004 0)
(0.011606 -0.141059 0)
(0.0695583 -0.27129 0)
(0.0591422 -0.35922 0)
(0.0314803 -0.377552 0)
(0.0119601 -0.382575 0)
(-0.00872731 -0.383928 0)
(-0.032787 -0.380001 0)
(-0.066991 -0.360805 0)
(-0.0699184 -0.268847 0)
(-0.00866813 -0.103194 0)
(0.0893415 -0.156611 0)
(0.0713815 -0.283713 0)
(0.0692794 -0.310578 0)
(0.0375819 -0.324667 0)
(0.0106724 -0.331415 0)
(-0.0209039 -0.330719 0)
(-0.0400191 -0.327752 0)
(-0.0645729 -0.311823 0)
(-0.0721561 -0.280787 0)
(-0.0868496 -0.139614 0)
(0.101341 -0.211817 0)
(0.0743684 -0.220868 0)
(0.0687723 -0.258163 0)
(0.0406278 -0.27965 0)
(0.0221155 -0.282658 0)
(-0.00276182 -0.283814 0)
(-0.0308531 -0.280707 0)
(-0.0689309 -0.260443 0)
(-0.0730815 -0.220467 0)
(-0.0978657 -0.202912 0)
(0.0518045 -0.140884 0)
(0.0509481 -0.190088 0)
(0.0423218 -0.233491 0)
(0.015901 -0.244575 0)
(0.0026198 -0.24983 0)
(-0.018068 -0.249655 0)
(-0.0268206 -0.241787 0)
(-0.042584 -0.233023 0)
(-0.0509833 -0.192624 0)
(-0.0537719 -0.135942 0)
(0.0355015 0.000416054 0)
(0.033 -0.00170379 0)
(0.0316762 -0.00177547 0)
(0.0307643 0.00169369 0)
(0.0248159 0.00521245 0)
(0.0174289 0.00639468 0)
(0.0107803 0.00469163 0)
(0.00460018 0.00694842 0)
(-0.0128261 0.0179327 0)
(-0.0293309 0.0156026 0)
(-0.0344844 0.00705061 0)
(-0.0465092 0.00877792 0)
(-0.0631898 0.00514782 0)
(-0.0736319 0.00228322 0)
(-0.0840553 0.00481709 0)
(-0.0914877 0.00471759 0)
(-0.10202 0.00749656 0)
(-0.10914 0.00476999 0)
(-0.113804 -0.000252713 0)
(-0.117429 -0.00191744 0)
(-0.11936 -0.00259651 0)
(-0.118975 -0.0051793 0)
(-0.113655 -0.0114088 0)
(-0.103241 -0.0165197 0)
(-0.0888372 -0.0211565 0)
(-0.0703146 -0.0284372 0)
(-0.0475267 -0.0327242 0)
(-0.0248668 -0.0351861 0)
(0.00127947 -0.0282127 0)
(0.0167962 -0.0236325 0)
(0.0346578 -0.0176133 0)
(0.0338503 0.0149997 0)
(0.0268448 0.0173879 0)
(0.0310497 0.00699676 0)
(0.0282007 0.00992214 0)
(0.0104965 0.0229567 0)
(-0.0119754 0.0159749 0)
(-0.00944503 -0.000355468 0)
(-0.0139914 -0.00290605 0)
(-0.00756364 -0.0100914 0)
(0.0459038 0.0125699 0)
(0.0392563 0.00817192 0)
(0.0337042 0.00652958 0)
(0.0301666 0.0111952 0)
(0.0238505 0.0183332 0)
(0.0146813 0.0182682 0)
(0.00739055 0.0189927 0)
(-0.00283107 0.0337852 0)
(-0.01623 0.0399931 0)
(-0.0297614 0.0274347 0)
(-0.0394007 0.0252701 0)
(-0.0618477 0.0411996 0)
(-0.0754743 0.0418576 0)
(-0.0876897 0.0306025 0)
(-0.0988582 0.0280017 0)
(-0.109713 0.0260455 0)
(-0.120589 0.0227296 0)
(-0.128889 0.0160746 0)
(-0.136225 0.013819 0)
(-0.14382 0.0133192 0)
(-0.15043 0.0062086 0)
(-0.152263 -0.00427608 0)
(-0.146527 -0.0182541 0)
(-0.14114 -0.0279995 0)
(-0.132875 -0.0394121 0)
(-0.123033 -0.0522066 0)
(-0.110086 -0.0573266 0)
(-0.0975282 -0.0580166 0)