/*--------------------------------*- C++ -*----------------------------------*\
  =========                 |
  \\      /  F ield         | OpenFOAM: The Open Source CFD Toolbox
   \\    /   O peration     | Website:  https://openfoam.org
    \\  /    A nd           | Version:  8
     \\/     M anipulation  |
\*---------------------------------------------------------------------------*/
FoamFile
{
    version     2.0;
    format      ascii;
    class       surfaceScalarField;
    location    "7.25";
    object      alphaPhi0.water;
}
// * * * * * * * * * * * * * * * * * * * * * * * * * * * * * * * * * * * * * //

dimensions      [0 3 -1 0 0 0 0];

internalField   nonuniform List<scalar> 
18095
(
1.96916e-08
-1.71897e-07
1.52205e-07
2.31483e-08
-1.97632e-07
1.94175e-07
2.06519e-08
-2.06091e-07
2.08587e-07
1.25806e-08
-2.11726e-07
2.19798e-07
1.44724e-09
-2.13369e-07
2.24502e-07
-1.0141e-08
-2.13126e-07
2.24714e-07
-1.96428e-08
-2.10411e-07
2.19913e-07
-2.30655e-08
-2.05911e-07
2.09334e-07
-1.96971e-08
-1.97802e-07
1.94434e-07
-1.72035e-07
1.52338e-07
1.55876e-08
-1.87484e-07
1.61228e-08
-1.98167e-07
1.18548e-08
-2.01823e-07
5.44793e-09
-2.05319e-07
-1.1761e-09
-2.06745e-07
-6.94685e-09
-2.07355e-07
-1.22258e-08
-2.05132e-07
-1.60301e-08
-2.02107e-07
-1.55377e-08
-1.98295e-07
-1.87573e-07
6.85589e-09
-1.9434e-07
8.42174e-09
-1.99733e-07
7.48318e-09
-2.00884e-07
4.68428e-09
-2.0252e-07
7.99773e-10
-2.0286e-07
-3.80226e-09
-2.02753e-07
-7.1837e-09
-2.01751e-07
-8.33221e-09
-2.00958e-07
-6.82061e-09
-1.99806e-07
-1.94393e-07
4.5714e-09
-1.98912e-07
4.75309e-09
-1.99915e-07
3.70836e-09
-1.99839e-07
1.54679e-09
-2.00359e-07
-5.24364e-10
-2.00789e-07
-2.32266e-09
-2.00955e-07
-3.71773e-09
-2.00356e-07
-4.70054e-09
-1.99976e-07
-4.52854e-09
-1.99978e-07
-1.98922e-07
1.08828e-09
1.17368e-09
1.33433e-09
9.75439e-10
1.86158e-10
-7.68377e-10
-1.1239e-09
-1.09954e-09
-1.078e-09
-2.71531e-08
-1.96611e-07
2.23764e-07
-2.95863e-08
-1.9887e-07
2.01303e-07
-2.49888e-08
-2.01127e-07
1.9653e-07
-1.4463e-08
-2.01226e-07
1.907e-07
-9.92787e-10
-2.01933e-07
1.88462e-07
1.30604e-08
-2.02065e-07
1.88012e-07
2.44003e-08
-2.01707e-07
1.90367e-07
2.93922e-08
-2.01333e-07
1.96342e-07
2.6984e-08
-1.98722e-07
2.0113e-07
-1.96405e-07
2.23389e-07
-9.67144e-09
-1.8694e-07
-1.48422e-08
-1.93699e-07
-1.20808e-08
-2.03889e-07
-4.9845e-09
-2.08322e-07
1.17441e-09
-2.08092e-07
6.99103e-09
-2.07882e-07
1.30781e-08
-2.07794e-07
1.50052e-08
-2.03261e-07
9.63864e-09
-1.93356e-07
-1.86766e-07
-1.02624e-08
-1.76677e-07
-8.86648e-09
-1.95095e-07
-8.24958e-09
-2.04506e-07
-6.72165e-09
-2.0985e-07
-1.67596e-09
-2.13137e-07
3.64311e-09
-2.13201e-07
6.56006e-09
-2.10711e-07
8.22551e-09
-2.04926e-07
1.01182e-08
-1.95248e-07
-1.76648e-07
-6.74283e-09
-1.69934e-07
-8.29492e-09
-1.93543e-07
-7.07314e-09
-2.05728e-07
-1.55609e-09
-2.15367e-07
1.72241e-09
-2.16416e-07
4.62985e-09
-2.16108e-07
8.42754e-09
-2.14509e-07
8.70895e-09
-2.05208e-07
6.78744e-09
-1.93327e-07
-1.69861e-07
-1.7729e-08
-1.70968e-08
-1.42372e-08
-9.8071e-09
-1.72069e-09
6.88495e-09
1.22886e-08
1.64151e-08
1.75223e-08
3.25642e-08
-1.58989e-07
1.26425e-07
3.70898e-08
-2.00555e-07
1.9603e-07
3.02975e-08
-2.12053e-07
2.18845e-07
1.89109e-08
-2.16217e-07
2.27604e-07
1.44309e-09
-2.17193e-07
2.34661e-07
-1.84624e-08
-2.15657e-07
2.35563e-07
-3.3136e-08
-2.14282e-07
2.28956e-07
-4.17489e-08
-2.09986e-07
2.18599e-07
-3.69673e-08
-1.98305e-07
1.93523e-07
-1.56761e-07
1.19794e-07
1.60454e-08
-1.75034e-07
1.73891e-08
-2.01899e-07
1.29152e-08
-2.07579e-07
4.85899e-09
-2.08161e-07
-3.65741e-09
-2.08677e-07
-1.10469e-08
-2.08268e-07
-1.70925e-08
-2.08237e-07
-2.01797e-08
-2.06899e-07
-1.74378e-08
-2.01047e-07
-1.74199e-07
8.84032e-09
-1.83875e-07
9.03459e-09
-2.02093e-07
7.62142e-09
-2.06166e-07
3.76301e-09
-2.04303e-07
-4.03105e-10
-2.04511e-07
-4.47499e-09
-2.04196e-07
-8.32039e-09
-2.04391e-07
-9.60544e-09
-2.05614e-07
-9.26662e-09
-2.01385e-07
-1.83466e-07
8.18664e-09
-1.92061e-07
5.45566e-09
-1.99362e-07
6.01612e-09
-2.06727e-07
8.86624e-10
-1.99173e-07
-5.08731e-10
-2.03115e-07
-1.77535e-09
-2.02929e-07
-6.69506e-09
-1.99471e-07
-5.97267e-09
-2.06336e-07
-8.19823e-09
-1.9916e-07
-1.91664e-07
3.17029e-08
3.36435e-08
2.34469e-08
1.4974e-08
3.21e-10
-1.45965e-08
-2.37006e-08
-3.3695e-08
-3.17245e-08
2.20004e-07
1.61501e-08
-2.36153e-07
1.98842e-07
2.11626e-08
1.77663e-07
2.11782e-08
1.60401e-07
1.72623e-08
1.44184e-07
1.43597e-08
1.4166e-07
1.60206e-09
1.56143e-07
-1.28706e-08
1.81074e-07
-2.27542e-08
1.99453e-07
-1.87909e-08
3.87007e-09
1.95594e-07
2.60135e-07
2.03863e-08
-2.64372e-07
2.47573e-07
3.3725e-08
2.30032e-07
3.87194e-08
1.91057e-07
3.20252e-08
1.81943e-07
2.33696e-08
1.76575e-07
6.79153e-09
1.84e-07
-8.25241e-09
1.85795e-07
-1.65639e-08
1.73924e-07
-1.33232e-08
3.34695e-09
1.73951e-07
1.80299e-07
2.49617e-08
-1.99294e-07
1.68797e-07
3.30184e-08
1.71464e-07
3.574e-08
1.74095e-07
2.929e-08
1.87839e-07
9.52183e-09
2.04083e-07
-9.55719e-09
2.08727e-07
-1.2942e-08
2.23872e-07
-1.29597e-08
2.14918e-07
-4.45508e-09
7.66442e-09
2.05733e-07
7.23717e-08
2.58163e-08
-7.36996e-08
9.22269e-08
1.26899e-08
1.344e-07
-6.90695e-09
1.85411e-07
-2.19977e-08
2.47894e-07
-3.37047e-08
2.79845e-07
-4.13301e-08
3.03177e-07
-3.62453e-08
2.98367e-07
-8.18448e-09
2.85838e-07
7.99627e-09
1.96188e-08
2.73815e-07
8.27208e-08
-1.5567e-08
-3.64104e-08
1.43327e-07
-4.35145e-08
2.08475e-07
-7.15827e-08
2.57083e-07
-7.01439e-08
2.93345e-07
-6.93274e-08
3.17255e-07
-6.43387e-08
3.16152e-07
-3.43633e-08
3.00329e-07
8.31562e-09
2.89423e-07
1.85251e-08
3.26471e-08
2.76435e-07
1.16335e-07
-8.48108e-08
-4.56121e-08
1.72935e-07
-9.90376e-08
2.0454e-07
-1.01043e-07
1.90826e-07
-5.54294e-08
1.7122e-07
-4.64337e-08
1.48771e-07
-4.18122e-08
1.3928e-07
-2.51151e-08
1.38067e-07
9.50914e-09
1.52316e-07
2.1245e-08
4.30684e-08
1.41222e-07
7.40853e-08
-9.40399e-08
-6.22171e-08
4.11517e-08
-6.11496e-08
-5.51804e-09
-4.28358e-08
-3.59366e-08
-2.50219e-08
-5.87993e-08
-2.35812e-08
-7.74847e-08
-2.31378e-08
-8.25773e-08
-2.00534e-08
-6.32832e-08
-9.8166e-09
-4.54558e-08
3.39277e-09
2.98412e-08
-3.2209e-08
-5.41535e-08
-5.53631e-08
2.33045e-08
-8.04358e-08
-2.23373e-08
-1.12189e-07
-1.10984e-08
-1.2537e-07
-1.18509e-08
-1.30356e-07
-1.86065e-08
-1.39205e-07
-2.06278e-08
-1.47791e-07
-1.8781e-08
-1.32132e-07
-2.62117e-08
-1.12694e-07
-1.60263e-08
1.92131e-08
-1.02055e-07
-9.89878e-08
-2.49246e-08
9.29844e-08
-1.02465e-07
-1.89036e-08
-1.07186e-07
-6.39256e-09
-1.17993e-07
-1.06213e-09
-1.64471e-07
-7.36789e-09
-1.70469e-07
-1.46351e-08
-1.74799e-07
-1.44615e-08
-1.88544e-07
-1.24832e-08
-2.0741e-07
2.02872e-09
2.95952e-08
-2.03834e-07
-1.24059e-07
-2.28514e-08
1.44161e-07
-1.26269e-07
-1.67426e-08
-1.49633e-07
-2.74418e-10
-1.71788e-07
3.74927e-09
-1.77342e-07
-1.81092e-09
-1.86245e-07
-5.72919e-09
-1.99208e-07
-1.99175e-09
-2.19026e-07
7.26006e-09
-2.33676e-07
1.67437e-08
2.88285e-08
-2.32816e-07
-2.72827e-07
-1.73495e-08
2.60159e-07
-2.75424e-07
-1.46257e-08
-2.63828e-07
-1.18448e-08
-2.50343e-07
-9.98857e-09
-2.41782e-07
-1.03685e-08
-2.41224e-07
-6.28435e-09
-2.51214e-07
8.00275e-09
-2.69849e-07
2.59035e-08
-2.81613e-07
2.85358e-08
2.74174e-08
-2.65371e-07
-3.34735e-07
-2.13553e-08
3.38758e-07
-3.28375e-07
-2.09662e-08
-3.18547e-07
-2.16512e-08
-3.06731e-07
-2.17841e-08
-2.96242e-07
-2.08536e-08
-2.87379e-07
-1.51428e-08
-2.4788e-07
1.12037e-09
-2.39225e-07
1.72406e-08
-2.35067e-07
2.4359e-08
3.08764e-08
-2.39336e-07
-3.45078e-07
-2.11167e-08
3.45735e-07
-3.48034e-07
-1.79351e-08
-3.46254e-07
-2.39347e-08
-3.37841e-07
-3.01756e-08
-3.28928e-07
-2.97568e-08
-3.2022e-07
-2.26268e-08
-2.63279e-07
-1.29682e-08
-2.4667e-07
6.12532e-10
-2.33161e-07
1.08283e-08
2.32353e-08
-2.25539e-07
-3.11019e-07
-2.84034e-08
3.18295e-07
-3.01357e-07
-2.76142e-08
-2.98527e-07
-3.19676e-08
-2.95516e-07
-3.52418e-08
-2.89605e-07
-3.48807e-08
-2.83673e-07
-2.80457e-08
-2.72663e-07
-2.3376e-08
-2.52364e-07
-1.85316e-08
-2.28332e-07
-2.01629e-09
1.76683e-08
-2.08505e-07
-2.80446e-07
-3.74867e-08
2.89521e-07
-2.67655e-07
-4.0437e-08
-2.5508e-07
-4.45968e-08
-2.45453e-07
-4.49359e-08
-2.39715e-07
-4.06734e-08
-2.33752e-07
-3.40784e-08
-2.3572e-07
-2.97559e-08
-2.26568e-07
-2.71724e-08
-2.10699e-07
-1.735e-08
-7.10593e-10
-1.91708e-07
-2.09266e-07
-4.10188e-08
2.12833e-07
-2.06188e-07
-4.24892e-08
-1.99317e-07
-4.78277e-08
-1.93768e-07
-5.05384e-08
-1.92545e-07
-4.49438e-08
-2.00323e-07
-3.00022e-08
-2.02059e-07
-2.48808e-08
-2.03152e-07
-2.66112e-08
-1.94486e-07
-2.6549e-08
-1.81766e-08
-1.77552e-07
-1.69399e-07
-4.59701e-08
1.74367e-07
-1.65636e-07
-4.62224e-08
-1.64534e-07
-4.8977e-08
-1.65729e-07
-4.97307e-08
-1.66074e-07
-4.58699e-08
-1.58907e-07
-3.71686e-08
-1.50975e-07
-3.28132e-08
-1.48371e-07
-2.92121e-08
-1.46624e-07
-2.58682e-08
-1.86209e-08
-1.46759e-07
-1.32087e-07
-3.84235e-08
1.26559e-07
-1.43589e-07
-3.58172e-08
-1.46298e-07
-4.62679e-08
-1.43523e-07
-5.25055e-08
-1.36825e-07
-5.25683e-08
-1.25678e-07
-4.83149e-08
-1.16431e-07
-4.20606e-08
-1.09057e-07
-3.6586e-08
-1.03936e-07
-3.09888e-08
-2.19616e-08
-1.00595e-07
-9.16509e-08
-3.22673e-08
8.54883e-08
-1.01475e-07
-2.8878e-08
-1.05873e-07
-4.18703e-08
-1.02859e-07
-5.55196e-08
-9.61342e-08
-5.92927e-08
-8.69763e-08
-5.74547e-08
-7.74095e-08
-5.16442e-08
-6.92475e-08
-4.47789e-08
-6.43065e-08
-3.59297e-08
-2.47702e-08
-6.14978e-08
-6.41697e-08
-2.60981e-08
5.79997e-08
-6.29595e-08
-3.09536e-08
-5.87641e-08
-4.80444e-08
-5.08372e-08
-6.34464e-08
-4.11177e-08
-6.9012e-08
-3.04064e-08
-6.81659e-08
-2.06353e-08
-6.14152e-08
-1.49156e-08
-5.04983e-08
-1.37875e-08
-3.70577e-08
-2.30803e-08
-1.54773e-08
-6.19122e-08
-3.08286e-08
6.66416e-08
-5.26121e-08
-4.34577e-08
-3.65734e-08
-6.4083e-08
-2.28159e-08
-7.72038e-08
-1.10245e-08
-8.08034e-08
-2.51834e-09
-7.6672e-08
2.22815e-09
-6.61613e-08
3.49739e-09
-5.1767e-08
1.17285e-09
-3.47332e-08
-1.68059e-08
-5.10159e-09
-6.13041e-08
-3.96105e-08
6.77158e-08
-4.84031e-08
-5.63569e-08
-3.2351e-08
-8.01349e-08
-1.96278e-08
-8.99269e-08
-1.03182e-08
-9.01125e-08
-4.76104e-09
-8.21189e-08
-2.68579e-09
-6.58567e-08
-4.39514e-09
-4.61854e-08
-8.43526e-09
-2.8208e-08
-7.38688e-09
-1.68835e-08
-8.04587e-08
-4.61009e-08
8.49802e-08
-7.48717e-08
-6.16544e-08
-7.10346e-08
-8.38285e-08
-6.90374e-08
-9.19235e-08
-7.37089e-08
-8.35313e-08
-8.37896e-08
-6.48192e-08
-9.26492e-08
-4.94575e-08
-1.03358e-07
-3.54821e-08
-1.10648e-07
-2.09209e-08
-6.35735e-09
-1.11682e-07
-1.16761e-07
-5.06637e-08
1.21137e-07
-1.1614e-07
-6.24745e-08
-1.28605e-07
-7.32604e-08
-1.41564e-07
-7.8408e-08
-1.4224e-07
-6.95181e-08
-1.55387e-07
-5.16736e-08
-1.67575e-07
-3.72719e-08
-1.75326e-07
-2.77347e-08
-1.75053e-07
-2.11977e-08
-1.32083e-08
-1.68214e-07
-1.41431e-07
-4.81143e-08
1.38905e-07
-1.53026e-07
-5.1056e-08
-1.71825e-07
-5.71377e-08
-1.88042e-07
-6.03743e-08
-1.87116e-07
-5.92112e-08
-1.93678e-07
-4.51133e-08
-1.97614e-07
-3.33372e-08
-1.96978e-07
-2.83776e-08
-2.0834e-07
-2.26808e-08
-1.89932e-08
-2.02985e-07
-1.73483e-07
-4.43621e-08
1.71411e-07
-1.83236e-07
-4.155e-08
-1.96949e-07
-4.54885e-08
-2.07625e-07
-4.95595e-08
-2.12578e-07
-5.01944e-08
-2.07943e-07
-4.29404e-08
-2.06063e-07
-3.52315e-08
-2.00442e-07
-3.40412e-08
-1.94134e-07
-2.90639e-08
-2.10682e-08
-2.10342e-07
-1.88778e-07
-4.86023e-08
1.9302e-07
-1.91579e-07
-3.81117e-08
-2.01635e-07
-3.6833e-08
-2.10106e-07
-4.09136e-08
-2.1484e-07
-4.54395e-08
-2.10604e-07
-4.718e-08
-1.93095e-07
-4.57624e-08
-1.84229e-07
-4.30903e-08
-1.91591e-07
-3.41775e-08
-2.427e-08
-1.88422e-07
-1.96627e-07
-6.29821e-08
2.11009e-07
-1.93651e-07
-4.10851e-08
-1.94256e-07
-3.59755e-08
-1.99965e-07
-3.53833e-08
-2.0699e-07
-3.86118e-08
-2.11354e-07
-4.28262e-08
-2.1168e-07
-4.54582e-08
-2.11405e-07
-4.33961e-08
-2.1092e-07
-3.46958e-08
-2.76118e-08
-2.07619e-07
-2.10223e-07
-7.80917e-08
2.25335e-07
-1.98189e-07
-5.31181e-08
-1.93279e-07
-4.08933e-08
-1.92211e-07
-3.64601e-08
-1.94974e-07
-3.58559e-08
-2.01246e-07
-3.66316e-08
-2.071e-07
-3.96057e-08
-2.11338e-07
-3.91795e-08
-2.12775e-07
-3.32901e-08
-2.8436e-08
-2.11858e-07
-2.18413e-07
-7.84394e-08
2.18763e-07
-1.99062e-07
-7.24681e-08
-1.83719e-07
-5.61359e-08
-1.74909e-07
-4.52941e-08
-1.67513e-07
-4.32499e-08
-1.71877e-07
-3.22667e-08
-1.80372e-07
-3.11107e-08
-1.89283e-07
-3.02087e-08
-1.94399e-07
-2.81178e-08
-2.10114e-08
-2.01693e-07
-1.92727e-07
-7.84379e-08
1.91818e-07
-1.92229e-07
-7.26485e-08
-1.7962e-07
-6.86101e-08
-1.64721e-07
-6.1715e-08
-1.44069e-07
-6.38996e-08
-1.28454e-07
-4.78798e-08
-1.20515e-07
-3.90489e-08
-1.34622e-07
-1.61013e-08
-1.57065e-07
-5.67575e-09
-1.4839e-08
-1.63096e-07
-1.05138e-07
-8.53145e-08
1.14219e-07
-1.12197e-07
-6.33595e-08
-1.15985e-07
-6.4351e-08
-1.10351e-07
-6.89824e-08
-1.06121e-07
-7.0924e-08
-8.88183e-08
-6.5233e-08
-6.19949e-08
-6.58305e-08
-4.63982e-08
-3.16975e-08
-6.8643e-08
1.65695e-08
1.32018e-08
-9.66834e-08
1.27131e-09
-8.35949e-08
-5.36858e-09
-7.6675e-09
-5.675e-08
-2.52479e-08
-4.4638e-08
-4.37146e-08
-4.66927e-08
-4.87716e-08
-6.56606e-08
-4.60245e-08
-6.80573e-08
-4.91269e-08
-6.3281e-08
-2.55315e-08
-5.59158e-08
1.20272e-08
-2.14691e-08
1.82572e-09
2.33812e-08
1.40067e-07
-6.42268e-08
-1.59448e-07
1.30322e-07
-5.74299e-08
1.26201e-07
-4.03476e-08
9.35843e-08
-1.61473e-08
4.4743e-08
-8.7529e-09
1.25132e-08
-3.28886e-08
7.0895e-09
-5.73773e-08
1.45645e-08
-6.36017e-08
5.26151e-08
-5.99588e-08
-4.70979e-08
1.01239e-07
2.58591e-07
-5.30243e-08
-2.69764e-07
2.5983e-07
-5.86423e-08
2.73109e-07
-5.35962e-08
2.6362e-07
-2.6917e-08
1.86318e-07
2.87434e-08
1.43399e-07
2.81491e-08
8.57078e-08
1.35418e-08
4.78854e-08
-1.72031e-08
5.47676e-08
-6.51943e-08
-6.46918e-08
7.20189e-08
3.03592e-07
-3.72528e-08
-3.11137e-07
2.92326e-07
-4.73462e-08
2.86841e-07
-4.80845e-08
2.9634e-07
-3.63825e-08
2.26821e-07
7.83208e-09
2.34711e-07
1.9086e-08
2.25709e-07
2.06178e-08
1.73736e-07
3.31732e-08
1.60533e-07
2.18614e-08
-1.43671e-08
1.12115e-07
4.50925e-07
-4.0585e-08
-4.08818e-07
4.45083e-07
-4.09618e-08
4.29739e-07
-3.42421e-08
4.14007e-07
-2.21232e-08
4.2697e-07
-5.14721e-09
4.41916e-07
3.59873e-09
3.50823e-07
1.96288e-08
3.12041e-07
4.49079e-08
2.67751e-07
6.7653e-08
6.18618e-08
2.18533e-07
5.29913e-07
-3.64543e-08
-5.33649e-07
5.25904e-07
-3.65828e-08
5.02748e-07
-3.43303e-08
5.09436e-07
-3.13514e-08
5.20388e-07
-1.86439e-08
5.36765e-07
6.22962e-09
5.30483e-07
2.79272e-08
4.57383e-07
5.88279e-08
3.58029e-07
1.00093e-07
1.11375e-07
3.04346e-07
5.28115e-07
-3.18796e-08
-5.32472e-07
5.25729e-07
-3.39801e-08
5.21757e-07
-3.07568e-08
5.14315e-07
-2.51862e-08
5.06384e-07
-1.07992e-08
5.00948e-07
1.25708e-08
4.95535e-07
3.33426e-08
4.88516e-07
6.58423e-08
3.44008e-07
1.21518e-07
1.31008e-07
3.10546e-07
3.87468e-07
-3.94466e-08
-3.79696e-07
3.9215e-07
-3.84456e-08
3.95374e-07
-3.44149e-08
3.97023e-07
-2.69016e-08
3.93255e-07
-7.03025e-09
3.91065e-07
1.47624e-08
3.88594e-07
3.58158e-08
3.84271e-07
7.01677e-08
2.63729e-07
1.14119e-07
1.26398e-07
2.66911e-07
3.36997e-07
-5.60218e-08
-3.1742e-07
3.40153e-07
-4.15767e-08
3.31443e-07
-2.6455e-08
3.26754e-07
-2.09654e-08
3.30109e-07
-1.03801e-08
3.31372e-07
1.35014e-08
3.23581e-07
4.36082e-08
3.16093e-07
7.76578e-08
2.26836e-07
1.04457e-07
1.13869e-07
2.38387e-07
2.44103e-07
-5.33185e-08
-2.19082e-07
2.57298e-07
-3.30134e-08
2.57278e-07
-1.25705e-08
2.43534e-07
-5.47165e-09
2.29641e-07
3.44777e-09
2.34397e-07
8.67375e-09
2.49687e-07
2.83199e-08
2.69687e-07
5.75651e-08
2.61221e-07
9.64114e-08
1.05221e-07
2.21452e-07
1.24591e-07
-6.34737e-08
-1.14713e-07
1.26156e-07
-3.47147e-08
1.28016e-07
-1.45527e-08
1.48095e-07
-6.84776e-10
1.70152e-07
7.31727e-09
1.83386e-07
-3.98019e-09
2.05495e-07
6.11957e-09
2.35024e-07
2.78585e-08
2.78078e-07
5.32628e-08
7.79719e-08
2.93678e-07
1.50523e-07
-5.90367e-08
-1.96956e-07
1.36575e-07
-4.37184e-08
1.44263e-07
-2.23631e-08
1.47087e-07
-2.80128e-09
1.67192e-07
-1.24845e-08
1.75628e-07
-1.21431e-08
2.32644e-07
-9.53604e-09
2.68261e-07
1.17244e-08
2.90358e-07
3.11196e-08
4.8004e-08
3.20257e-07
2.83672e-07
-8.4823e-08
-2.56171e-07
3.04843e-07
-6.0323e-08
3.27971e-07
-3.98339e-08
3.50656e-07
-2.29295e-08
3.53846e-07
-1.45969e-08
3.12974e-07
-2.65057e-09
2.99393e-07
4.55513e-09
3.22231e-07
1.67204e-08
3.21942e-07
3.14323e-08
4.13579e-08
3.28422e-07
2.94088e-07
-1.25167e-07
-2.80879e-07
3.20037e-07
-8.77272e-08
3.44784e-07
-6.16671e-08
3.82438e-07
-4.47776e-08
4.07618e-07
-3.47697e-08
4.27174e-07
-2.17998e-08
4.32358e-07
-7.68219e-10
4.2233e-07
2.75361e-08
4.07467e-07
4.75925e-08
5.87735e-08
3.90015e-07
2.70189e-07
-1.42869e-07
-2.68331e-07
2.74261e-07
-9.48064e-08
2.82282e-07
-6.61125e-08
2.94863e-07
-5.44441e-08
3.30524e-07
-5.54906e-08
3.59503e-07
-5.04827e-08
3.87543e-07
-2.87988e-08
4.04061e-07
1.10213e-08
4.08418e-07
4.32389e-08
5.97497e-08
4.07442e-07
2.59494e-07
-1.44042e-07
-2.72694e-07
2.5636e-07
-9.47563e-08
2.63415e-07
-6.98289e-08
2.79824e-07
-6.72782e-08
3.05625e-07
-7.05974e-08
3.21863e-07
-6.66909e-08
3.4474e-07
-5.16722e-08
3.68152e-07
-1.23882e-08
3.86526e-07
2.4867e-08
4.54514e-08
4.00825e-07
2.60226e-07
-1.16812e-07
-2.98434e-07
2.64998e-07
-8.80493e-08
2.7782e-07
-8.08613e-08
2.98409e-07
-8.293e-08
3.12222e-07
-8.44027e-08
3.26182e-07
-8.06435e-08
3.42625e-07
-6.81171e-08
3.55959e-07
-2.57196e-08
3.68381e-07
1.24474e-08
3.16061e-08
3.82228e-07
2.76427e-07
-8.52412e-08
-3.13746e-07
2.78691e-07
-7.66502e-08
2.79791e-07
-8.21716e-08
2.88733e-07
-9.18613e-08
3.00542e-07
-9.62041e-08
3.1315e-07
-9.32447e-08
3.23332e-07
-7.8292e-08
3.18099e-07
-2.1556e-08
3.11621e-07
1.95739e-08
3.23453e-08
3.10884e-07
2.89375e-07
-5.80594e-08
-3.22305e-07
2.98897e-07
-5.46645e-08
2.85523e-07
-6.87096e-08
2.86091e-07
-9.24137e-08
2.90091e-07
-1.00194e-07
2.93219e-07
-9.6365e-08
2.87998e-07
-7.33604e-08
2.6991e-07
-1.12895e-08
2.58845e-07
3.03268e-08
4.70334e-08
2.49949e-07
3.33253e-07
-5.50913e-08
-3.41969e-07
3.32665e-07
-3.45288e-08
3.19535e-07
-4.05481e-08
2.96691e-07
-6.94811e-08
2.83832e-07
-8.73201e-08
2.67671e-07
-8.01939e-08
2.39978e-07
-5.25646e-08
2.28086e-07
2.9087e-10
2.12549e-07
4.55513e-08
7.10561e-08
1.92393e-07
3.52477e-07
-8.67078e-08
-3.61838e-07
3.52944e-07
-3.62383e-08
3.48137e-07
-1.96827e-08
3.3078e-07
-2.78279e-08
2.90619e-07
-4.7574e-08
2.5864e-07
-4.80174e-08
2.29502e-07
-2.42333e-08
2.07332e-07
2.02007e-08
1.93221e-07
6.21441e-08
9.63449e-08
1.68671e-07
3.53754e-07
-1.28077e-07
-3.12384e-07
3.3519e-07
-6.65739e-08
3.31084e-07
-1.74419e-08
3.03048e-07
-1.3429e-09
3.01902e-07
-5.84337e-09
2.68744e-07
-1.02878e-08
2.40857e-07
2.78651e-09
2.17881e-07
4.17158e-08
1.80284e-07
9.81232e-08
1.24106e-07
1.50813e-07
3.18116e-07
-1.70757e-07
-2.7544e-07
3.61878e-07
-1.10316e-07
3.46331e-07
-4.30507e-08
3.33268e-07
9.82424e-09
2.91708e-07
3.25451e-08
2.82217e-07
3.17434e-08
2.63587e-07
2.06102e-08
2.42408e-07
4.9044e-08
2.01118e-07
1.39203e-07
1.62798e-07
1.61839e-07
2.87181e-07
-1.98914e-07
-2.59004e-07
3.22727e-07
-1.45837e-07
3.56022e-07
-7.6319e-08
3.39636e-07
-7.68765e-09
3.37336e-07
3.18038e-08
3.08361e-07
5.74548e-08
2.73703e-07
6.25178e-08
2.54547e-07
6.63625e-08
2.55875e-07
1.137e-07
1.38656e-07
2.47128e-07
2.75372e-07
-1.60329e-07
-2.78627e-07
2.86041e-07
-1.56433e-07
3.14465e-07
-1.04923e-07
3.63225e-07
-5.65811e-08
3.62511e-07
-2.6238e-09
3.74188e-07
4.38379e-08
3.72365e-07
9.03366e-08
3.11293e-07
1.19759e-07
2.4161e-07
1.4202e-07
1.34485e-07
2.25476e-07
3.05552e-07
-4.04014e-08
-2.89676e-07
2.87107e-07
-6.21291e-08
2.78947e-07
-9.6831e-08
3.06367e-07
-8.40869e-08
3.54726e-07
-5.11472e-08
4.07634e-07
-9.16196e-09
4.31997e-07
7.17379e-08
4.13258e-07
1.30368e-07
3.37671e-07
1.66275e-07
1.76609e-07
2.87302e-07
2.38834e-07
-4.02195e-08
-2.61056e-07
2.99453e-07
1.91213e-08
3.19935e-07
1.06542e-08
2.86009e-07
-4.9964e-08
3.14663e-07
-7.98728e-08
3.71292e-07
-6.59498e-08
4.29775e-07
1.30936e-08
4.58781e-07
1.0121e-07
4.20027e-07
1.55298e-07
2.13451e-07
3.82592e-07
2.74657e-07
-1.38241e-07
-2.71902e-07
2.07944e-07
8.02085e-09
2.83614e-07
1.63544e-08
3.1047e-07
3.22592e-08
2.97768e-07
-6.32128e-08
3.18596e-07
-8.69382e-08
3.78958e-07
-4.742e-08
4.25992e-07
5.40595e-08
4.37974e-07
1.41532e-07
2.02718e-07
4.50306e-07
1.58304e-07
-3.87497e-08
-7.05941e-08
4.63831e-08
9.72639e-09
5.40064e-08
2.70378e-08
1.3493e-07
5.2935e-09
2.28545e-07
-3.89666e-08
2.66629e-07
-9.44312e-08
2.94148e-07
-7.50563e-08
3.34369e-07
1.37578e-08
3.7478e-07
1.01115e-07
1.72033e-07
4.05426e-07
-2.67345e-08
-2.60261e-08
1.31598e-08
-2.33754e-08
6.12151e-09
-1.1753e-08
1.47581e-08
2.64179e-09
-7.82753e-09
4.2475e-08
-2.55483e-08
1.12492e-07
-8.72175e-08
1.22426e-07
-8.32498e-08
1.54515e-07
-1.83369e-08
2.14796e-07
4.0851e-08
1.0581e-07
2.80982e-07
-5.35218e-08
-2.14611e-08
4.87492e-08
-3.94101e-08
-8.19785e-09
-1.78565e-08
-7.05114e-09
-4.3628e-09
-2.19785e-08
-4.16326e-09
-6.03652e-08
-1.79547e-08
-1.33073e-07
-1.43897e-08
-9.45077e-08
1.67394e-08
-4.97799e-08
7.43037e-08
-1.68709e-08
4.49631e-08
1.35059e-07
-5.65504e-08
-2.51276e-08
6.00093e-08
-4.41143e-08
-2.08895e-08
-1.70672e-08
-3.47555e-08
-9.31299e-08
-1.59122e-07
-2.56097e-07
-2.00946e-07
-3.17324e-07
-1.78639e-07
-2.71745e-07
-1.39916e-07
-2.13906e-07
-1.07832e-07
-1.67322e-07
-5.9682e-08
3.57957e-09
-1.26037e-07
-7.35842e-08
-2.91417e-08
7.70449e-08
-7.325e-08
-5.34138e-08
-4.61537e-07
-1.36308e-07
-5.86995e-07
-1.69028e-07
-6.1964e-07
-1.67008e-07
-6.35698e-07
-1.6175e-07
-6.07068e-07
-1.68245e-07
-5.25058e-07
-1.89672e-07
-3.40739e-07
-1.56186e-07
-9.57181e-08
-2.47545e-07
-1.171e-07
-1.86201e-08
1.02385e-07
-4.28557e-07
-1.99225e-08
-6.19411e-07
-9.63363e-08
-6.43935e-07
-1.39898e-07
-6.51965e-07
-1.55739e-07
-6.7223e-07
-1.24162e-07
-6.66684e-07
-1.51616e-07
-6.10918e-07
-2.28501e-07
-4.95157e-07
-2.58313e-07
-2.45591e-07
-3.49794e-07
-7.82652e-08
-1.21178e-07
1.90044e-07
-8.96978e-08
-1.18733e-08
-2.40536e-07
-1.17479e-08
-3.00851e-07
-1.77494e-08
-2.74212e-07
-1.87702e-08
-2.30866e-07
-1.15969e-08
-1.98023e-07
-1.26307e-08
-3.06713e-07
-2.72244e-08
-4.36675e-07
-7.78747e-08
-2.57597e-07
-4.10613e-07
-1.29752e-07
-3.95077e-07
4.52419e-07
-1.4e-08
-1.32748e-07
4.83755e-09
-3.06096e-08
1.58544e-09
-1.4487e-08
-1.29631e-08
-4.21977e-09
-2.44695e-08
-9.10453e-11
-3.16868e-08
-5.41361e-09
-3.72966e-08
-2.16116e-08
-8.16776e-08
-3.34198e-08
-6.35378e-08
-1.66201e-07
-4.31926e-07
-5.39847e-07
5.89823e-07
-1.32757e-07
-4.52431e-07
-1.45622e-08
-1.56449e-07
4.00572e-09
-3.30609e-08
1.79902e-09
-2.01348e-09
-2.08485e-09
3.79255e-09
-5.15958e-09
-2.33907e-09
-1.20495e-08
-1.47218e-08
-1.82712e-08
-2.71954e-08
-3.92912e-08
-4.24441e-08
-5.77308e-07
-5.8931e-07
6.39866e-07
-4.30392e-07
-5.88158e-07
-1.49115e-07
-5.10378e-07
-2.61404e-08
-1.58476e-07
-9.17438e-09
-1.89814e-08
7.9363e-10
-6.17566e-09
3.41926e-09
-4.96489e-09
-9.90756e-10
-1.0312e-08
-8.30784e-09
-1.98784e-08
-3.07618e-08
-1.68356e-08
-5.88519e-07
-5.21376e-07
5.31775e-07
-5.36899e-07
-6.29247e-07
-4.02334e-07
-6.42229e-07
-1.12056e-07
-5.37296e-07
-1.64405e-08
-1.14655e-07
-6.25448e-09
-1.63621e-08
1.38069e-10
-1.13576e-08
8.38354e-10
-1.10124e-08
-3.91683e-09
-1.51233e-08
-2.19204e-08
-1.27599e-08
-3.4211e-07
-3.74609e-07
2.31981e-07
-4.77073e-07
-4.66787e-07
-4.68709e-07
-6.48775e-07
-3.21295e-07
-6.82521e-07
-4.72148e-08
-4.89667e-07
-1.03587e-08
-5.32244e-08
-5.703e-09
-1.60138e-08
-1.96699e-09
-1.47485e-08
-1.12297e-09
-1.5969e-08
-1.49978e-08
-8.04846e-09
-8.45647e-08
-2.46574e-07
-4.33162e-08
-2.26403e-07
-3.2486e-07
-3.39098e-07
-4.56164e-07
-3.34924e-07
-6.87329e-07
-1.49662e-07
-6.7496e-07
-2.01326e-08
-2.48184e-07
-1.02126e-08
-2.59406e-08
-7.59534e-09
-1.7367e-08
-5.25143e-09
-1.83177e-08
-8.21687e-09
-1.20386e-08
6.58358e-08
-2.24005e-07
-2.24208e-07
-6.53826e-08
-1.947e-07
-1.72334e-07
-3.4868e-07
-2.59544e-07
-5.34989e-07
-1.92679e-07
-7.39613e-07
-5.23493e-08
-3.93359e-07
-1.87841e-08
-7.01274e-08
-1.11362e-08
-2.50493e-08
-8.98621e-09
-2.04527e-08
-7.89581e-09
-9.42051e-09
7.6275e-08
-1.46236e-07
-1.53964e-07
-2.50574e-08
-1.76369e-07
-9.96452e-08
-2.72696e-07
-1.97934e-07
-4.32782e-07
-1.88786e-07
-7.46907e-07
-1.23873e-07
-4.55945e-07
-8.32e-08
-1.00689e-07
-7.29189e-08
-1.24697e-07
-6.35001e-08
-1.30372e-07
-4.65608e-08
-2.31803e-08
-3.59837e-08
-8.26708e-08
-2.75053e-08
-1.03627e-07
-1.04993e-07
-1.71021e-07
-2.20859e-07
-2.19209e-07
-3.86936e-07
-1.66092e-07
-7.98529e-07
-1.18818e-07
-4.98943e-07
-1.71267e-07
-6.62231e-08
-2.06803e-07
-9.25671e-08
-2.6401e-07
-7.47865e-08
-7.85367e-08
-2.31922e-07
-7.5371e-08
-1.93668e-08
1.24153e-08
-1.22973e-07
-4.79298e-08
-1.56217e-07
-1.72111e-07
-1.93117e-07
-3.52295e-07
-2.04689e-07
-7.87035e-07
-1.13227e-07
-5.84301e-07
-1.49456e-07
-2.52194e-08
-2.36673e-07
-5.70255e-09
-2.58922e-07
-5.24738e-08
-5.09845e-08
-2.86478e-07
1.37085e-08
1.71299e-08
-5.34365e-08
-2.46593e-08
-6.02578e-09
-1.22199e-07
-5.35241e-08
-1.78365e-07
-2.81912e-07
-1.30972e-07
-8.34773e-07
-1.101e-08
-7.00798e-07
6.56882e-08
-1.01685e-07
3.01946e-08
5.97075e-08
-8.19866e-08
5.74001e-08
7.99356e-09
-1.56298e-07
1.33803e-07
1.60741e-08
-1.77675e-07
8.60068e-08
1.49798e-08
-2.25875e-08
5.50818e-08
-4.8623e-08
-2.45712e-07
-8.04541e-08
-8.03285e-07
-4.06501e-08
-7.39038e-07
2.40233e-08
-1.66248e-07
5.00813e-08
3.35208e-08
-8.66549e-09
9.24692e-08
9.83831e-08
-1.02209e-07
6.55748e-08
1.02426e-09
-5.24548e-08
4.35582e-09
2.79289e-08
-1.05125e-08
1.31001e-08
-3.10826e-08
-2.22519e-07
-2.15781e-08
-8.1311e-07
-3.82018e-09
-7.55379e-07
2.76254e-08
-1.97225e-07
6.35994e-08
-2.59822e-09
5.22645e-08
1.03675e-07
1.35321e-07
6.61142e-09
-1.18127e-08
-7.22331e-11
4.21226e-09
-1.01288e-08
4.92104e-10
0
-2.40754e-14
1.49693e-09
-2.2667e-07
-4.69572e-09
-8.07281e-07
3.8094e-09
-7.61118e-07
1.77089e-08
-2.12516e-07
2.43527e-09
1.25303e-08
-5.55554e-09
1.11521e-07
1.64167e-07
-5.3075e-08
-4.79224e-10
0
5.03089e-10
-1.61939e-13
1.30259e-11
2.93078e-12
-3.13224e-12
3.32637e-09
-2.31258e-07
-2.44269e-08
-7.81856e-07
-1.91366e-08
-7.63068e-07
-1.36925e-08
-2.18148e-07
-3.14838e-08
3.01765e-08
-7.7504e-09
1.21254e-07
1.15536e-07
-2.60634e-09
-1.30081e-11
0
9.40304e-12
-2.5657e-14
2.80524e-14
8.62446e-13
-4.03578e-12
2.40455e-09
-2.38141e-07
-1.16121e-08
-7.69265e-07
-1.67807e-08
-7.59714e-07
-9.25342e-09
-2.26286e-07
-2.69057e-08
2.98493e-08
-2.304e-08
6.88586e-08
2.19507e-08
2.13001e-08
-2.52162e-12
-1.64045e-13
3.7844e-12
7.50191e-13
-2.05611e-12
7.89003e-13
-4.09003e-12
1.17532e-08
-2.52068e-07
-3.60432e-09
-7.53802e-07
-1.26856e-08
-7.52766e-07
3.50122e-10
-2.52784e-07
-2.73993e-08
2.17881e-08
-2.19665e-08
5.93147e-09
-3.8601e-09
6.38459e-09
1.79212e-13
0
2.90703e-13
9.2228e-13
-1.28173e-12
9.46699e-13
-4.12608e-12
2.30795e-08
-2.69364e-07
4.01066e-09
-7.3314e-07
-1.64449e-08
-7.34508e-07
-3.99875e-09
-2.74375e-07
3.67193e-12
3.1643e-09
4.59433e-09
2.18396e-11
-1.10183e-09
3.13912e-09
1.68724e-12
-1.46666e-12
-2.25008e-12
1.15149e-12
-2.09716e-12
1.41708e-12
-4.40442e-12
3.09124e-08
-2.90741e-07
1.17033e-08
-7.12279e-07
-1.30106e-08
-7.11812e-07
-3.16503e-09
-2.93372e-07
0
-1.60822e-12
2.79356e-09
4.01116e-10
-1.74835e-10
8.22706e-11
3.64237e-12
-1.00209e-11
-1.07227e-11
3.04158e-12
-1.03884e-11
3.70581e-12
-5.12421e-12
3.75361e-08
-3.19008e-07
1.15255e-08
-6.85546e-07
-1.09089e-08
-6.90523e-07
-1.79903e-11
-3.15701e-07
0
-2.0518e-11
2.90002e-10
2.92808e-10
-2.53654e-11
0
1.1794e-11
-1.21329e-11
-7.6105e-12
7.0283e-12
-1.10841e-11
9.41244e-12
-7.72415e-12
2.59289e-08
-3.37996e-07
4.65033e-09
-6.64283e-07
-1.94781e-08
-6.66264e-07
-9.35152e-12
-3.36669e-07
0
-3.07428e-11
-2.19049e-11
0
1.18361e-11
-1.33715e-12
1.21604e-11
-1.16214e-11
-1.06144e-11
6.95906e-12
-6.82049e-12
2.81287e-11
-2.92953e-11
2.32686e-08
-3.5762e-07
-2.58586e-09
-6.38392e-07
-2.97506e-08
-6.39199e-07
-4.17166e-11
-3.57418e-07
-4.28616e-11
-3.05173e-11
-6.17569e-11
6.44569e-12
6.76244e-11
-4.79365e-12
8.47857e-12
-8.67402e-12
-9.35441e-12
6.64315e-12
-3.52231e-12
2.03539e-10
-2.26767e-10
2.85034e-08
-3.81845e-07
4.34707e-09
-6.13592e-07
-2.63507e-08
-6.09295e-07
-1.13706e-10
-3.81125e-07
-5.60204e-12
-1.4062e-10
-1.86124e-11
1.54176e-11
1.47544e-10
-1.34277e-11
8.28108e-12
-7.25629e-12
-7.48816e-12
8.44048e-12
-3.46505e-12
1.80079e-09
-2.01948e-09
3.30232e-08
-4.08403e-07
1.20229e-09
-5.81677e-07
-2.22697e-08
-5.86195e-07
-1.24027e-09
-4.07451e-07
-3.76757e-12
-1.3779e-09
5.6205e-12
5.55132e-12
7.08892e-12
4.09421e-11
3.04349e-12
-2.61179e-12
-6.03437e-12
3.53494e-12
-3.60202e-12
1.02443e-08
-1.226e-08
3.32334e-08
-4.35508e-07
-1.44131e-09
-5.47034e-07
-3.20712e-08
-5.55685e-07
-8.80572e-09
-4.34992e-07
-3.92238e-12
-1.01802e-08
6.41655e-13
5.29488e-13
1.04664e-13
7.14775e-12
6.59668e-12
2.14849e-13
-6.87776e-12
7.09107e-12
-3.68623e-12
2.03371e-08
-3.50285e-08
2.25469e-08
-4.40003e-07
5.96344e-09
-5.30465e-07
-3.50089e-08
-5.14818e-07
-1.97345e-08
-4.52878e-07
-1.84466e-12
-3.17666e-08
0
-1.79333e-12
2.67005e-12
7.30511e-12
1.06351e-11
5.32072e-13
-9.59566e-12
1.44853e-11
-7.05732e-12
5.2742e-08
-8.9758e-08
7.82291e-08
-4.67098e-07
3.37761e-08
-4.86005e-07
4.93185e-09
-4.86104e-07
-1.78666e-08
-4.29043e-07
-5.65975e-12
-4.85e-08
-4.71229e-12
-3.19853e-12
4.15675e-12
-4.61678e-12
4.79017e-12
3.81186e-13
-4.01324e-12
7.73402e-11
-7.8556e-11
4.32106e-08
-1.31826e-07
1.09625e-08
-4.3466e-07
-2.26092e-08
-4.52424e-07
-5.01694e-08
-4.58543e-07
-4.45889e-08
-4.30105e-07
-3.21546e-11
-8.73877e-08
-6.48214e-12
-2.92733e-11
2.46261e-12
-6.28242e-12
5.21766e-12
-2.78363e-13
-3.12417e-12
1.57783e-09
-1.64973e-09
8.51042e-08
-2.09203e-07
5.84111e-08
-4.07299e-07
1.60367e-08
-4.10051e-07
-3.3695e-08
-4.08815e-07
-6.67482e-08
-3.9691e-07
-7.84415e-10
-1.5442e-07
-6.59387e-12
-8.07451e-10
1.69201e-12
-5.82244e-12
1.04354e-11
-9.53244e-12
2.44573e-13
1.64139e-08
-1.80517e-08
6.4032e-08
-2.52612e-07
1.52122e-08
-3.58481e-07
-2.73079e-08
-3.67532e-07
-7.01969e-08
-3.65926e-07
-1.06333e-07
-3.60836e-07
-1.30321e-08
-2.52126e-07
-3.14959e-12
-1.38366e-08
7.9162e-13
-2.22803e-12
1.30841e-09
-1.31355e-09
-4.401e-12
7.06208e-08
-9.12867e-08
1.13868e-07
-2.98253e-07
7.60839e-08
-3.20699e-07
2.4233e-08
-3.15682e-07
-3.09517e-08
-3.1074e-07
-8.29727e-08
-3.08815e-07
-4.76238e-08
-2.87682e-07
-5.33377e-10
-6.10866e-08
-5.28121e-10
-3.86187e-12
3.0894e-08