/*--------------------------------*- C++ -*----------------------------------*\
  =========                 |
  \\      /  F ield         | OpenFOAM: The Open Source CFD Toolbox
   \\    /   O peration     | Website:  https://openfoam.org
    \\  /    A nd           | Version:  8
     \\/     M anipulation  |
\*---------------------------------------------------------------------------*/
FoamFile
{
    version     2.0;
    format      ascii;
    class       volScalarField;
    location    "0.7";
    object      p_rgh;
}
// * * * * * * * * * * * * * * * * * * * * * * * * * * * * * * * * * * * * * //

dimensions      [1 -1 -2 0 0 0 0];

internalField   nonuniform List<scalar> 
9150
(
1963.41
1962.42
1961.84
1961.34
1961.1
1961.11
1961.34
1961.83
1962.42
1963.41
1963
1962.48
1962.07
1961.74
1961.58
1961.58
1961.74
1962.07
1962.47
1963
1962.73
1962.44
1962.19
1961.97
1961.85
1961.85
1961.97
1962.19
1962.43
1962.73
1962.61
1962.43
1962.26
1962.1
1962.02
1962.02
1962.1
1962.26
1962.43
1962.61
1962.61
1962.42
1962.29
1962.16
1962.09
1962.08
1962.16
1962.29
1962.42
1962.61
1951.95
1950.89
1950.96
1951.48
1951.61
1951.61
1951.48
1950.96
1950.89
1951.96
1955.73
1955.03
1954.77
1954.7
1954.79
1954.79
1954.71
1954.77
1955.04
1955.74
1958.77
1958.03
1957.7
1957.37
1957.31
1957.32
1957.37
1957.71
1958.02
1958.76
1961.48
1960.39
1959.98
1959.33
1959.16
1959.15
1959.3
1959.95
1960.36
1961.45
1964.23
1962.1
1961.37
1960.62
1960.38
1960.38
1960.63
1961.37
1962.11
1964.24
1946.81
1945.36
1943.49
1942.52
1941.85
1941.84
1942.6
1943.62
1945.45
1946.92
1945.97
1945.85
1944.91
1944.6
1944.25
1944.24
1944.59
1944.9
1945.86
1945.99
1945.87
1945.92
1944.97
1945.37
1944.85
1944.85
1945.36
1944.97
1945.93
1945.87
1942.72
1945.36
1944.28
1945.87
1945.61
1945.61
1945.88
1944.29
1945.36
1942.72
1935.49
1945.85
1946.04
1947.78
1948.02
1948.02
1947.78
1946.04
1945.85
1935.51
277.331
261.379
236.029
318.249
525.003
688.852
596
415.879
218.945
86.2358
157.866
149.551
131.605
122.684
190.569
267.569
167.873
60.5027
28.7861
21.7798
167.034
179.436
155.935
147.985
158.536
130.463
39.6836
26.0075
23.3213
23.374
105.879
101.555
84.5268
82.0874
126.683
83.1423
29.1512
22.6425
22.4272
22.0376
47.7295
30.9434
21.5253
25.1906
94.1653
80.3362
30.6305
23.9652
23.9499
23.9188
1.5814
1.39696
4.44838
5.31601
84.0832
83.5812
27.9983
23.5606
23.3962
24.1576
-1.9011
-1.13613
0.165259
9.07865
98.3231
89.7013
27.2575
24.3487
31.3268
70.2785
-2.60909
-2.21209
0.316382
42.8801
105.348
100.613
25.384
23.2047
44.8689
75.4336
-2.26228
-2.34193
-0.408677
2.99567
121.105
106.664
18.5655
18.1877
22.9243
70.9291
-1.40653
-2.70316
-3.78032
-3.90539
123.731
115.763
11.7741
11.1681
7.82823
19.7141
0.543521
-3.91996
-4.57586
-3.21711
127.619
127.813
6.89537
6.18245
3.14427
1.30224
1.31155
-0.0643153
-2.26134
-0.673386
125.948
148.694
3.19003
3.85526
0.700344
0.604201
3.18688
3.34189
2.90371
1.96433
154.039
144.761
2.66464
3.40146
0.539459
0.569334
1.01172
5.03611
2.36373
1.99362
153.641
165.753
1.87965
3.4129
0.417925
0.46949
-0.572997
3.93763
1.28634
0.863931
174.223
164.606
1.07131
3.92757
0.408152
0.429942
-0.625543
-0.0837791
1.32049
0.158254
189.401
169.403
0.812467
4.68117
0.509049
0.495892
-0.622695
1.04162
1.4929
-0.0137461
192.073
194.048
1.19864
5.4442
0.673507
0.591008
0.37793
0.463929
-0.0434813
-0.00227965
211.456
208.907
1.05065
5.30184
0.639264
0.609093
0.23662
-0.226762
-0.218428
-0.14423
227.73
228.811
0.795498
1.6558
0.571103
0.527553
-0.129648
-0.123305
-0.104187
-0.107808
242.46
244.099
0.726945
1.90906
0.598999
0.390793
-0.023006
0.00138942
0.100872
0.113592
234.415
275.534
0.759502
3.62169
1.02077
0.239589
0.108452
0.196821
0.263406
0.35212
245.485
285.309
0.945117
3.29421
2.31378
0.652762
0.671769
0.755241
0.391996
0.389333
288.861
268.083
-0.125017
3.54686
2.68935
1.418
0.803516
0.811588
0.363819
0.337135
292.907
291.795
0.201596
2.23733
0.77412
1.62928
0.308528
0.350204
0.253055
0.25636
308.677
305.135
0.269421
0.342624
0.328029
1.02321
0.216053
0.208227
0.209709
0.208027
322.901
319.552
0.280847
0.328904
0.342061
0.295
0.200358
0.197658
0.241012
0.19535
336.7
333.892
0.287784
0.388271
0.310748
0.348943
0.187878
0.186135
0.254478
0.183771
351.118
348.492
0.358114
0.551411
0.394927
0.720867
0.169539
0.16879
0.243837
0.167106
365.232
362.873
0.516218
0.710203
0.642474
0.833548
0.150565
0.151931
0.224465
0.153498
379.017
377.601
0.600702
0.814407
0.590501
0.590571
0.132526
0.135228
0.196308
0.138701
391.667
391.274
0.635516
0.89158
0.624273
0.609034
0.118311
0.121237
0.144557
0.123966
405.358
404.702
0.646458
0.916058
0.633087
0.617334
0.10817
0.110593
0.132576
0.112782
420.651
418.049
0.651003
0.903103
0.634259
0.616515
0.0916023
0.0968422
0.1377
0.100023
436.896
433.883
0.638292
0.666423
0.626605
0.609716
0.057449
0.0649473
0.112954
0.0686764
453.277
450.505
0.618023
0.79446
0.607922
0.593381
0.000976516
0.00982013
0.0613714
0.0159807
469.222
466.955
0.617777
0.931886
0.784349
0.577011
-0.0690031
-0.0571937
-0.00220459
-0.0478386
484.707
483.236
0.646863
0.975182
0.951644
0.595279
-0.141774
-0.125936
-0.0683476
-0.115876
499.078
498.481
0.654829
0.768224
0.977216
0.720857
-0.211271
-0.191193
-0.130453
-0.185504
513.101
513.329
0.591351
0.600817
0.88904
0.854873
-0.274516
-0.251476
-0.230535
-0.24973
527.433
527.08
0.427019
0.446217
0.461592
0.744072
-0.324735
-0.292725
-0.265925
-0.291135
543.609
541.832
0.215856
0.248834
0.241819
0.287562
-0.359438
-0.304072
0.171459
-0.312602
560.895
558.43
-0.0354315
-0.0222704
-0.0640208
0.0355725
-0.383875
-0.232276
0.39049
-0.323567
580.653
578.717
-0.254479
-0.253598
-0.16142
-0.0223391
-0.403622
0.0107082
0.425293
-0.316043
604.332
602.733
-0.293595
-0.278885
-0.0850089
-0.154066
-0.422449
-0.0807155
-0.397584
-0.404859
626.952
625.055
-0.110143
-0.129727
0.0181755
0.131571
-0.396771
-0.390826
-0.577057
-0.544642
647.468
645.774
0.133128
0.114628
0.272811
0.498764
-0.421318
-0.585193
-0.611395
-0.590401
669.281
667.484
0.353962
0.348023
0.450934
0.800939
-0.373752
-0.548761
-0.542586
-0.530622
686.958
685.19
0.491298
0.495483
0.519669
0.793792
-0.365616
-0.421359
-0.404281
-0.413435
712.887
710.329
0.573468
0.578259
0.579919
0.657245
-0.272062
-0.282166
-0.230272
-0.281388
731.916
728.879
0.593527
0.609282
0.600598
0.612895
-0.14855
-0.153921
0.0864198
-0.149651
760.465
758.764
0.570263
0.57412
0.573207
0.600632
-0.0614955
-0.0707635
0.565136
0.00692519
777.412
776.191
0.491268
0.494374
0.546841
0.682416
0.00141383
-0.010368
0.707892
3.94158
802.072
801.523
3.49662
0.379213
0.520389
0.576373
0.0432947
0.032167
0.877537
5.2666
817.155
816.299
4.55954
0.248854
0.412437
0.432551
0.0701666
0.0652366
2.02548
9.98295
840.874
840.929
8.81187
0.114915
0.281006
0.291672
0.0860132
0.0852298
2.12441
10.8235
856.883
856.957
9.4808
0.00077198
0.125951
0.179664
0.102446
0.100146
8.52847
15.6318
881.051
880.825
14.435
-0.0685474
-0.00644765
0.113398
3.66731
11.1116
18.4852
17.6055
899.681
899.39
16.4622
-0.104004
-0.0555904
0.0872499
16.4082
17.4557
18.0328
21.7669
924.263
923.123
21.6539
-0.106854
-0.0703672
0.0922332
3.10483
1.95161
0.244293
24.5089
944.785
943.273
24.8001
-0.091146
-0.0716567
0.00262869
-0.0498797
-0.0156958
0.0342678
31.2295
969.973
968.963
31.2811
-0.0562103
-0.0328092
-0.047285
-0.075215
-0.066889
-0.0565391
34.8974
991.487
989.962
35.0855
-0.00896242
0.0479798
-0.00951136
-0.0756507
-0.0760759
-0.0747009
43.6987
1019.45
1017.69
43.6882
0.0399719
0.0986289
0.0757526
-0.076423
-0.0780893
-0.0788103
48.1694
1040.96
1039.3
48.2285
0.0851357
0.137378
0.164085
-0.0776632
-0.0793473
-0.0796455
58.6014
1069.96
1068.28
58.6909
0.126066
0.164879
0.211453
-0.0794594
-0.0812547
-0.0821857
64.1126
1091.9
1090.26
64.1994
0.167141
0.21016
0.255286
-0.0808944
-0.0825876
-0.0826621
76.0118
1121.28
1119.55
76.1557
0.204105
0.273065
0.310457
-0.081937
-0.0835812
-0.0848007
82.4163
1143.39
1141.72
82.5458
0.231351
0.312334
0.343902
-0.0822255
-0.0837267
-0.0838793
96.1386
1173.41
1171.78
96.2596
0.256304
0.312562
0.358506
-0.0819137
-0.0833344
-0.0846605
103.616
1195.84
1194.29
103.698
0.274392
0.34282
0.473307
-0.0807211
-0.081877
-0.0819604
120.023
1227.09
1225.62
120.222
0.259877
0.374732
0.462114
-0.0790202
-0.0800426
-0.0811975
129.132
1250.1
1248.95
129.288
0.221396
0.425354
0.636326
-0.0765955
-0.0772264
-0.0769154
148.716
1282.31
1281.73
148.983
0.157861
0.360327
0.759951
-0.0739715
-0.0744573
-0.0750837
159.819
1305.9
1305.89
159.943
0.0786981
0.111977
0.681012
-0.0709946
-0.0711513
-0.0704847
183.521
1339.37
1339.51
183.642
-0.00591891
0.0179755
0.111575
-0.0680387
-0.0681457
-0.0685454
197.217
1363.57
1363.93
197.261
-0.112406
-0.130208
-0.146082
-0.0648878
-0.064652
-0.0637494
225.884
1397.67
1398.4
225.914
-0.18844
-0.214147
-0.213103
-0.0619412
-0.0617064
-0.0618132
243.127
1422.48
1423.39
243.16
-0.204829
-0.210776
-0.227342
-0.0589991
-0.0585321
-0.0576023
280.1
1458.11
1458.95
280.271
-0.159842
-0.164787
-0.178754
-0.0563788
-0.0560007
-0.0561001
303.6
1484.01
1484.78
303.821
-0.0995899
-0.100615
-0.102673
-0.0537677
-0.0532595
-0.0527893
352.258
1520.48
1521.03
352.426
-0.0477213
-0.0474
-0.0468363
-0.0514933
-0.0511139
-0.0515089
384.933
1547.04
1547.61
385.106
-0.0126034
-0.0118787
-0.0110671
-0.0491149
-0.0486225
-0.0486857
447.38
1582.41
1582.92
447.494
0.00901094
0.00975124
0.0105377
-0.0470716
-0.0467188
-0.0475626
490.717
1608.6
1609.15
490.849
0.0191677
0.0201114
0.0204495
-0.0448179
-0.0444149
-0.0451465
569.329
1641.39
1641.63
569.324
0.0258048
0.0265542
0.0265759
-0.0429164
-0.0426974
-0.0443612
625.015
1666.41
1666.37
624.865
0.0280155
0.0293054
0.0291159
-0.0404687
-0.040041
-0.0415766
726.094
1694.88
1694.76
725.98
0.0296878
0.0309222
0.0302899
-0.0381507
-0.0378401
-0.0404379
799.866
1717.51
1717.23
799.762
0.0285746
0.0306742
0.0300913
-0.035349
-0.0348533
-0.0375746
932.971
1740.39
1740.26
933
0.0279879
0.0303351
0.0294354
-0.0326311
-0.0325538
-0.0367618
1032.57
1761.67
1761.68
1032.63
0.0247107
0.0286634
0.0280506
-0.0292468
-0.0301033
-0.0330435
1204.37
1779.7
1779.84
1204.52
0.0237767
0.0261115
0.026504
-0.0267646
-0.0273013
-0.0235719
1331.15
1799.79
1799.46
1331.03
0.0289299
0.0229765
0.0231908
-0.0246168
-0.0230859
57.2971
1497.03
1817.39
1817.37
1497.06
58.1198
0.0200505
0.0185551
-0.0223003
-0.0215843
194.676
1612.15
1836.61
1836.88
1612.22
192.35
0.0165968
0.0163442
-0.0195717
-0.0210287
419.661
1756.32
1854.67
1854.73
1756.43
410.853
0.0138776
0.0150043
-0.0176396
-0.0223089
765.362
1842.82
1873.97
1873.81
1837.02
727.011
0.00896264
0.0125192
-0.0136431
0.00318941
1268.6
1891.67
1892.12
1892.13
1891.72
1250.42
0.0259378
0.0111637
-0.0119105
194.394
1653.05
1909.95
1911.58
1911.71
1910.32
1668.05
186.842
0.0070834
0.000346439
1158.48
1927.22
1927.08
1926.72
1926.71
1926.94
1926.92
1119.9
0.0116245
683.372
1889
1939.43
1937.54
1937.05
1937.03
1937.43
1939.31
1876.2
653.159
37.1529
44.7598
67.8417
95.1607
125.358
150.957
172.066
191.316
214.506
236.544
243.053
231.918
201.329
156.72
103.833
60.2421
39.3605
40.1809
40.647
33.7738
22.9239
27.5425
26.0528
33.9994
32.9837
31.1609
29.3751
23.8538
17.9785
15.3857
18.5862
22.6351
24.6978
34.2827
67.0732
126.056
204.913
301.841
385.794
453.378
20.6373
20.0124
18.7706
20.3621
30.1396
51.8886
88.9213
131.285
164.175
181.656
182.167
145.849
104.5
59.3403
26.6924
20.9136
21.9114
20.408
31.072
28.6211
6.40159
8.37339
29.141
33.0748
27.4356
19.6795
25.7709
19.4048
5.5104
2.99554
2.91653
3.13092
3.14917
3.5397
5.77472
14.5018
50.1577
144.815
261.899
340.81
23.1702
22.9063
22.9806
24.327
27.3333
35.5739
66.6432
115.804
169.504
204.541
191.48
134.498
63.9966
11.5148
4.27026
3.19567
3.31063
3.30098
2.90545
2.84975
2.93444
3.6132
8.65574
10.6178
7.40073
3.30689
2.622
2.69848
2.76583
2.79585
2.79571
2.80157
2.80321
2.78153
2.99846
4.27531
8.09704
31.7946
98.1812
148.536
21.5114
20.7761
20.849
21.9207
29.5225
46.061
47.7759
23.3514
21.043
51.7609
85.2586
50.7398
13.4784
3.47019
3.00384
3.05445
3.03123
2.99174
2.92627
2.85467
2.85238
2.9102
2.89753
2.89107
2.85166
2.8004
2.78362
2.75605
2.76721
2.79063
2.76855
2.73022
2.66365
2.58131
2.5352
2.74934
3.87413
14.1428
45.0309
66.5234
23.9076
23.8811
23.1693
32.4975
53.7485
48.3644
14.4337
2.83624
3.19011
4.72727
32.479
40.8299
29.8193
3.49031
3.07972
3.04676
3.02801
2.99145
2.95261
2.92729
2.94305
2.94793
2.91813
2.86437
2.80618
2.80375
2.77186
2.78005
2.82718
2.87602
2.90578
2.90086
2.83907
2.72272
2.60116
2.85012
3.96558
26.5539
71.7903
80.9886
43.2357
49.827
49.9952
60.6358
51.6503
34.3869
1.07639
1.00148
1.10557
1.59978
24.6315
44.0039
42.7706
25.1651
2.96554
2.96617
2.9645
2.95108
2.93634
2.92452
2.92847
2.91375
2.85201
2.84369
2.78195
2.68604
2.62104
2.67573
2.76287
2.85792
2.93747
2.98783
3.0053
2.99097
3.04625
5.05166
11.3604
58.1116
94.347
99.845
78.1561
76.8381
72.7034
65.3096
57.1148
26.1339
0.863633
0.810655
0.818633
0.852426
15.4085
47.4385
49.4109
44.1752
2.96939
2.93641
2.92934
2.91691
2.92023
3.0113
3.02656
2.9912
2.92736
2.81049
2.62268
2.4988
2.4889
2.54979
2.66757
2.77214
2.85648
3.01392
3.04741
3.00543
2.89818
12.4738
32.9142
97.269
107.685
108.522
77.9132
78.3758
76.0911
70.8018
62.0058
7.03949
0.75167
0.745064
0.728726
0.738887
4.133
48.1488
55.5018
55.6412
14.3626
2.89949
2.89234
2.88733
2.93073
3.0718
3.0261
2.96704
2.87783
2.66002
2.5614
2.5028
2.44894
2.47625
2.58398
2.6789
2.7915
2.89585
2.91075
2.9168
2.92886
10.4654
29.2619
96.8251
109.943
110.937
81.3104
81.3653
80.1553
73.032
27.2973
0.677929
0.68169
0.679287
0.667899
0.665149
0.671624
17.824
61.7853
66.1715
36.5371
2.84702
2.86718
2.87405
2.93531
3.09827
3.06325
2.90625
2.7865
2.79993
2.84471
2.60337
2.54001
2.56215
2.62947
2.7399
2.81239
2.8779
2.91503
2.88263
2.84552
3.72508
20.8199
51.1744
101.643
112.624
33.9934
40.7623
48.8098
18.6417
0.718959
0.620505
0.627144
0.622355
0.629136
0.62448
0.641982
6.03221
61.8839
70.635
52.2658
2.87454
2.87546
2.88035
2.88898
3.08675
3.14099
2.92957
2.90609
3.32515
3.99874
3.85477
3.11295
2.80016
2.81141
2.8812
2.96097
2.99583
2.99596
3.00554
2.96979
2.91221
13.0811
20.0587
57.3344
125.196
1.06822
1.26348
1.36633
0.912296
0.729653
0.625045
0.59054
0.587601
0.616925
0.588355
0.574472
0.584672
27.3869
79.6267
67.0318
5.55056
2.89614
2.89265
2.89085
2.97213
3.20478
3.09023
2.95029
2.96047
2.96278
2.97562
3.84808
5.37413
3.50445
3.01973
3.06094
3.11489
3.03263
3.18417
2.96835
2.91406
39.6376
36.4803
66.7157
133.369
0.70456
0.719442
0.668685
0.644793
0.666514
0.655744
0.606816
0.619189
0.607084
0.560283
0.555777
0.564714
8.06616
73.3077
78.7886
34.4357
2.86583
2.90641
2.92345
2.9455
3.18723
3.2062
3.17005
2.95185
2.94603
2.93441
2.92807
3.67272
30.0923
77.8942
82.1388
28.692
2.77278
2.80621
3.07479
16.3633
131.399
127.635
127.232
138.153
0.60081
0.57889
0.549119
0.5697
0.598194
0.641518
0.652379
0.61501
0.569593
0.523757
0.500471
0.47446
0.465176
20.0993
82.084
55.6015
3.18302
2.9823
2.96914
2.96226
3.03954
3.2753
3.26504
3.02129
3.00694
3.00183
2.98951
3.1309
63.6062
146.837
147.513
140.68
27.7643
4.74917
28.4684
119.165
153.232
150.818
150.225
151.586
0.449931
0.426189
0.468427
0.517806
0.555668
0.618732
0.628179
0.579695
0.50564
0.481957
0.46051
0.445172
0.429754
2.51461
51.8408
79.8508
60.3591
2.98506
2.99475
2.99913
3.00744
3.05822
3.03637
3.02437
3.0255
3.02216
3.01686
3.00879
2.96053
31.4754
135.033
156.047
123.919
14.1133
39.031
148.512
163.537
163.338
164.941
164.379
0.435604
0.407188
0.426356
0.441963
0.467185
0.521703
0.51221
0.465734
0.405508
0.389395
0.369703
0.347969
0.327161
0.321687
5.83142
82.8765
108.838
27.8543
3.01898
3.05581
3.07044
3.07565
3.07788
3.08069
3.08432
3.08474
3.08214
3.08546
3.11782
3.16088
9.19175
130.985
172.038
139.939
90.4732
157.605
144.772
121.792
173.14
173.976
0.483692
0.467168
0.446172
0.397698
0.376904
0.361327
0.330564
0.302722
0.239609
0.237472
0.229104
0.223051
0.216822
0.207719
0.194277
32.671
117.367
113.849
15.2953
3.12577
3.09968
3.10497
3.10428
3.10413
3.11219
3.11191
3.10121
3.14065
3.11816
3.18093
3.23987
15.2889
125.355
199.037
205.128
196.568
123.444
87.2156
156.453
188.85
0.583534
0.528082
0.463356
0.355386
0.255945
0.169045
0.0719591
0.00981894
0.0285961
0.0562385
0.0772929
0.0935218
0.121709
0.138213
0.204894
11.4614
102.863
125.455
123.019
22.3128
3.18585
3.14693
3.09398
3.07766
3.07828
3.01635
2.99753
2.95842
3.00936
4.92879
3.24133
3.26581
120.588
201.087
204.324
201.586
123.552
88.0437
88.8897
200.999
0.606021
0.528063
0.442887
0.3025
0.141409
-0.0171922
-0.160072
-0.216499
-0.210848
-0.120818
-0.0424674
0.00349363
0.0613262
0.096331
0.122094
0.13772
12.8777
119.289
162.985
162.512
64.1725
19.7097
6.76446
3.12675
3.11607
3.11521
3.87462
10.5487
2.76638
81.9143
157.133
155.691
201.064
204.415
206.522
193.701
90.5627
87.3157
87.6749
189.625
0.52673
0.486185
0.373095
0.247534
0.105925
-0.0361394
-0.13907
-0.19041
-0.192599
-0.147919
-0.0723038
0.095948
0.0970959
0.132416
0.176862
0.207598
0.235029
3.77037
126.978
189.797
190.556
182.398
126.787
71.2735
45.3074
22.2052
8.36711
120.82
238.522
238.287
233.595
227.795
222.136
218.346
201.037
92.2902
90.1662
90.2015
90.6979
216.838
0.365449
0.434536
0.331928
0.202178
0.147055
0.0966038
0.0487095
0.0121671
-0.00257482
0.0103993
0.0463523
0.204322
0.238019
0.200864
0.238061
0.268626
0.294572
0.304789
0.252977
79.1817
188.276
238.892
241.053
241.676
238.663
185.31
105.33
92.7893
136.923
265.47
257.577
250.011
243.216
238.708
231.948
125.195
110.234
151.386
200.769
239.187
0.224946
0.303763
0.232117
0.144872
0.159118
0.192405
0.210942
0.203682
0.19637
0.190428
0.201381
0.31583
0.442129
0.302496
0.302951
0.328291
0.34521
0.36416
0.374241
0.345679
0.382614
95.5583
209.522
254.978
256.837
259.894
263.543
102.147
77.4493
73.1657
234.44
271.535
266.414
263.654
261.609
258.561
256.298
261.478
265.886
269.284
0.177819
0.23664
0.192919
0.159871
0.209399
0.274252
0.326524
0.357079
0.366885
0.36255
0.361059
0.516021
0.703561
0.476914
0.364353
0.374151
0.389462
0.408091
0.421556
0.458143
0.479482
0.451188
1.57219
159.656
262.114
266.071
270.356
273.079
211.18
42.0185
38.7199
152.152
284.11
284.973
286.404
288.791
291.225
294.168
297.452
299.189
0.927425
0.275286
0.285864
0.243451
0.292563
0.349396
0.412933
0.457764
0.475786
0.486384
0.558359
0.792468
0.772196
0.758195
0.464054
0.40752
0.416617
0.426238
0.437307
0.449702
0.46182
0.486154
0.499469
0.585452
104.058
274.615
278.818
281.94
285.155
164.986
25.6809
24.0637
60.6312
229.589
303.298
306.808
309.746
311.63
308.352
313.239
1.66607
0.48077
0.449071
0.325868
0.361799
0.412246
0.466819
0.507631
0.533163
0.562654
0.861283
0.837447
0.813902
0.787365
0.481702
0.439279
0.446946
0.445291
0.445135
0.463408
0.484546
0.504178
0.52449
0.548236
0.689794
156.389
288.014
292.489
296.36
286.319
59.2277
22.0516
21.7135
23.9062
130.197
294.361
319.147
321.644
321.608
322.157
1.75036
1.18613
0.505673
0.41196
0.410643
0.450804
0.493007
0.536299
0.585182
0.905698
0.904063
0.873937
0.796105
0.517032
0.483061
0.534863
0.543871
0.496387
0.433186
0.453225
0.485467
0.524965
0.543393
0.559856
0.600017
39.4151
290.441
302.151
306.046
311.132
194.584
21.3606
21.2037
21.1885
21.3786
58.2666
231.263
330.232
331.134
331.171
0.303906
0.872421
0.540944
0.515142
0.440654
0.486575
0.51305
0.649987
0.932737
0.950107
0.915063
0.629331
0.56514
0.540136
0.554682
0.536286
0.483361
0.403434
0.414769
0.441667
0.475963
0.506181
0.524166
0.546094
0.566345
18.3417
246.25
312.149
315.784
320.271
324.188
129.931
21.1612
21.0878
21.0771
21.1364
30.6365
170.24
327.976
338.796
0.370466
0.87274
0.639537
0.679896
0.595966
0.554939
0.551064
0.802706
0.824542
0.683806
0.575291
0.589097
0.571409
0.451629
0.426237
0.408945
0.401334
0.400948
0.408145
0.432062
0.456101
0.473871
0.494702
0.517885
0.556023
15.419
245.527
324.018
327.097
331.101
334.002
335.302
130.518
21.046
21.0856
21.1186
21.3979
23.2748
256.977
349.552
0.836456
0.865663
0.553833
0.648983
0.664414
0.541148
0.568761
0.6819
0.780467
0.674446
0.528202
0.511749
0.488196
0.481029
0.468055
0.453885
0.436378
0.420661
0.410951
0.413136
0.424507
0.439053
0.453893
0.466471
0.505411
5.59473
199.296
337.056
339.783
342.154
343.734
345.225
346.678
197.14
68.4064
41.0361
47.8321
45.9964
323.342
358.622
0.663177
0.498648
0.495827
0.557031
0.588689
0.576514
0.63184
0.678001
0.57533
0.538508
0.517482
0.556879
0.598124
0.575862
0.555853
0.538461
0.524308
0.431559
0.392395
0.395274
0.400635
0.407659
0.413978
0.420221
0.430014
0.630273
59.4747
334.392
351.388
353.241
354.26
354.523
354.474
354.142
337.974
303.679
243.293
225.661
363.657
369.662
0.561096
0.539767
0.535852
0.540519
0.672539
0.698426
0.645118
0.536886
0.527116
0.524884
0.616778
0.600595
0.577585
0.555263
0.488574
0.394797
0.384619
0.37801
0.375426
0.375487
0.37797
0.381399
0.383425
0.382874
0.381805
0.383478
0.549758
123.094
361.753
365.716
366.836
329.308
366.622
366.9
368.034
370.013
370.605
372.483
348.204
337.859
0.588593
0.567982
0.554906
0.673982
0.731157
0.680351
0.517602
0.507553
0.494509
0.480239
0.473367
0.516417
0.560772
0.448629
0.385529
0.373477
0.364164
0.357537
0.353818
0.352996
0.354596
0.359121
0.364973
0.37331
0.378668
0.376954
0.391785
0.597903
152.052
373.884
378.4
317.534
376.555
379.163
381.213
383.568
386.123
388.659
366.147
341.17
0.594714
0.573181
0.630243
0.753493
0.724543
0.529679
0.487932
0.474347
0.460368
0.446923
0.43313
0.438179
0.542799
0.424905
0.358264
0.346941
0.337918
0.331176
0.327044
0.325621
0.327304
0.332497
0.343231
0.358427
0.377316
0.386889
0.395168
0.418154
34.359
311.291
386.239
222.004
211.367
332.052
396.275
394.948
396.793
397.33
376.05
341.755
0.594028
0.609933
0.779225
0.747617
0.621088
0.468367
0.450363
0.433841
0.419705
0.406759
0.404284
0.531216
0.561409
0.386536
0.322429
0.31169
0.303244
0.297405
0.320836
0.368836
0.372248
0.310738
0.302868
0.318584
0.334303
0.348803
0.367326
0.501582
52.9363
293.161
264.989
35.5642
34.0955
34.3852
34.9854
72.4627
197.812
300.82
191.26
123.666
0.587077
0.711815
0.766469
0.712814
0.467329
0.4296
0.404309
0.383744
0.366982
0.351999
0.382987
0.526383
0.512165
0.449272
0.27412
0.264157
0.2584
0.274773
0.53373
0.726819
0.71774
0.366684
0.239767
0.254672
0.268965
0.278746
0.294012
0.439199
19.4593
231.006
285.881
70.3304
33.8133
34.1813
35.3614
36.5337
38.0121
42.2963
44.785
47.5299
0.570265
0.709377
0.741192
0.686239
0.421948
0.382585
0.350536
0.324017
0.302748
0.282686
0.293541
0.457213
0.448519
0.438291
0.355212
0.243029
0.371283
0.669549
0.653705
0.642556
0.630592
0.29108
0.142766
0.156949
0.171801
0.21266
0.31482
0.315093
0.156539
59.6106
235.01
248.652
246.014
175.786
153.505
185.367
211.605
217.714
321.907
232.765
0.54709
0.61082
0.71135
0.66336
0.448254
0.329778
0.295257
0.264623
0.23825
0.211996
0.194554
0.187223
0.171418
0.384034
0.624584
0.608221
0.588704
0.57416
0.563834
0.545896
0.221251
0.0214594
0.0206446
0.027178
0.143412
0.564032
0.707766
0.574365
-0.0717233
-0.0935584
0.109341
143.754
313.122
380.739
406.902
408.157
407.785
406.68
408.342
410.528
0.52796
0.482171
0.600878
0.625884
0.565582
0.278148
0.240079
0.206535
0.175299
0.142989
0.109463
0.0765669
0.0439343
0.0271047
0.321091
0.4887
0.479518
0.472004
0.465345
0.421276
-0.0365798
-0.0812444
-0.103099
-0.0458786
0.507111
0.567252
0.581204
0.409393
-0.0953703
-0.0869627
-0.0765558
-0.107378
-0.0215702
2.08937
192.262
320.739
372.925
407.032
414.576
414.886
0.511034
0.444985
0.387331
0.471484
0.530723
0.333458
0.184662
0.148959
0.111604
0.0735195
0.0340426
-0.00439199
-0.042653
-0.080295
-0.11021
-0.0792538
0.282212
0.369695
0.367601
0.362708
0.0666639
-0.180614
-0.21212
-0.239241
-0.13266
0.349435
0.457886
0.440516
0.0789644
-0.172297
-0.157587
-0.124875
-0.0781506
-0.0607624
-0.114153
0.0219328
2.84307
84.5595
161.086
202.044
0.4995
0.385018
0.319625
0.266886
0.384346
0.323651
0.143313
0.0930889
0.0850416
0.00706468
-0.035078
-0.0748208
-0.11134
-0.153417
-0.188326
-0.218438
-0.237686
-0.15574
0.251873
0.271219
0.268985
0.10748
-0.274471
-0.294273
-0.31471
-0.323738
-0.308506
-0.0383697
0.163331
0.0177465
-0.186355
-0.162994
-0.137727
-0.0915885
-0.0112681
0.0961654
0.227829
0.41348
0.766009
0.959305
0.405544
0.270249
0.223128
0.183675
0.149571
0.191759
0.0926446
0.0457976
0.0712694
-0.0554307
-0.100021
-0.135713
-0.170741
-0.220057
-0.261199
-0.29301
-0.321066
-0.344389
-0.357908
-0.162859
0.164992
0.173147
0.169278
-0.114392
-0.35008
-0.351512
-0.348629
-0.338002
-0.312388
-0.266879
-0.216997
-0.210152
-0.166882
-0.106937
-0.0257209
0.0737886
0.277915
1.02412
1.73159
1.67537
0.514807
0.154912
0.0844564
0.0781324
0.0662679
0.195009
0.0444577
7.08452e-05
0.0076479
-0.114285
-0.16883
-0.207951
-0.248703
-0.291213
-0.329844
-0.369374
-0.403131
-0.424454
-0.441014
-0.45308
-0.455491
-0.350713
-0.0269644
-0.0112523
-0.01343
-0.3205
-0.396403
-0.384266
-0.363834
-0.334118
-0.294602
-0.253052
-0.207246
-0.125559
-0.0193369
-0.0240669
0.00590592
0.448746
1.80492
1.86067
0.252203
0.0636025
-0.072241
-0.0389031
-0.0276033
0.153154
-0.0140679
-0.0614239
-0.0571923
-0.109477
-0.234515
-0.283959
-0.323619
-0.368868
-0.413096
-0.449182
-0.47512
-0.488605
-0.499466
-0.510907
-0.515712
-0.513627
-0.504791
-0.483088
-0.357675
-0.276291
-0.368798
-0.412016
-0.388738
-0.310517
-0.26291
-0.283433
-0.238755
-0.16796
-0.0699853
-0.0479213
-0.0665125
0.198524
1.64786
1.1782
-0.00994624
0.0945591
-0.151486
-0.120166
-0.0912094
0.10873
-0.00655601
-0.0952218
-0.132196
-0.153616
-0.256467
-0.341296
-0.393064
-0.438544
-0.479859
-0.51149
-0.53386
-0.546814
-0.552276
-0.544826
-0.536787
-0.531192
-0.520658
-0.506839
-0.48875
-0.467698
-0.446034
-0.397497
-0.370877
-0.262691
-0.229284
-0.22708
-0.248886
-0.203721
-0.10193
-0.0693258
-0.116263
0.327275
1.83817
1.01244
-0.0359758
0.0940983
-0.141452
-0.115882
-0.0770194
0.125126
0.124887
-0.02035
-0.135976
-0.194515
-0.282033
-0.361182
-0.415544
-0.462751
-0.495493
-0.536007
-0.560557
-0.574686
-0.576922
-0.569088
-0.552906
-0.531801
-0.51064
-0.491805
-0.47301
-0.454227
-0.435074
-0.415333
-0.346576
-0.253489
-0.225299
-0.193605
-0.174493
-0.1989
-0.144027
-0.0929742
-0.138348
0.297575
1.8583
0.999314
0.185487
0.251838
-0.029004
-0.008851
0.0870067
0.228979
0.203531
0.15677
0.0642677
-0.163818
-0.255327
-0.318471
-0.376773
-0.429187
-0.474792
-0.478747
-0.375578
-0.372092
-0.492219
-0.559626
-0.539712
-0.515126
-0.487455
-0.46107
-0.438548
-0.417767
-0.398362
-0.379189
-0.332089
-0.224239
-0.197999
-0.169832
-0.138042
-0.114832
-0.163681
-0.142179
-0.118443
0.0131878
1.86179
1.00304
0.533491
0.568642
0.205533
0.18234
0.19651
0.371877
0.326858
0.267973
0.201525
0.129157
-0.0544862
-0.244953
-0.308812
-0.36495
-0.414884
-0.33443
-0.306197
-0.332186
-0.339342
-0.328062
-0.347144
-0.463573
-0.441161
-0.410504
-0.383702
-0.361084
-0.341838
-0.322718
-0.30239
-0.249168
-0.13955
-0.109983
-0.0819145
-0.051358
-0.0541913
-0.0981418
-0.075249
-0.0563974
1.93385
1.2272
0.819979
0.79476
0.387918
0.362889
0.326171
0.311636
0.371674
0.381516
0.309928
0.234533
0.156064
0.072839
-0.0932404
-0.260059
-0.296562
-0.306622
-0.293275
-0.252912
-0.255015
-0.243234
-0.219662
-0.330353
-0.365514
-0.337755
-0.311352
-0.287066
-0.264397
-0.242275
-0.220349
-0.197198
-0.160479
-0.0358908
0.000568141
0.0276803
0.0559123
0.00892148
-0.0114088
0.00294742
0.89847
1.54829
0.931505
0.955201
0.810466
0.620112
0.439259
0.387461
0.32662
0.283569
0.236083
0.268039
0.241926
0.156603
0.085093
0.00303455
-0.0773301
-0.141382
-0.207646
-0.225531
-0.204728
-0.172477
-0.230963
-0.295428
-0.276619
-0.253317
-0.229085
-0.205914
-0.182949
-0.160262
-0.137309
-0.112948
-0.0875538
-0.0476939
0.0860486
0.113531
0.139042
0.12595
0.0614549
0.0753711
0.0859934
1.51668
0.944924
0.930052
0.974886
0.946201
0.906024
0.805538
0.508023
0.345049
0.28086
0.207631
0.148694
0.0907919
0.00775705
-0.0537511
-0.0578214
-0.0235189
-0.043361
-0.0541372
-0.104264
-0.229538
-0.226495
-0.209554
-0.189978
-0.169335
-0.146759
-0.104116
-0.0919458
-0.0814384
-0.0585145
-0.0331036
-0.00689086
0.0186214
0.126621
0.192874
0.217858
0.209836
0.134425
0.147002
0.152002
0.762149
0.625462
0.650183
0.648224
0.970621
0.95425
0.882599
0.801527
0.71289
0.614736
0.480332
0.162914
0.0858943
0.0246044
-0.0200781
-0.0555585
-0.0703833
0.017989
0.0158858
0.0201311
-0.0765849
-0.154846
-0.137972
-0.11895
-0.099372
-0.0763376
-0.022648
0.00049269
0.0250474
0.0201046
0.0370317
0.0620568
0.0866273
0.15612
0.26432
0.290285
0.265343
0.205562
0.21834
0.423438
0.651296
0.660931
0.689194
0.644594
0.6157
0.581734
0.606288
0.48532
0.46435
0.56441
0.480966
0.414587
0.360895
0.319074
0.102476
-0.0401246
-0.0489986
-0.0127027
0.0566271
0.0673859
0.0198409
-0.104207
-0.089615
-0.0686592
-0.0465612
-0.0245479
0.0264065
0.0612315
0.0860936
0.111366
0.119312
0.123175
0.148527
0.174753
0.315931
0.363032
0.303279
0.274653
0.287853
0.864986
2.47508
0.711655
0.699822
0.671812
0.628761
0.471985
0.306854
0.234175
0.163714
0.104633
0.033201
0.294678
0.307557
0.272746
0.249949
0.231727
0.224459
0.00353863
-0.0462034
-0.0258436
0.177191
0.147859
-0.0448937
-0.0260504
-0.00199209
0.0224765
0.0528335
0.111252
0.139288
0.16636
0.193449
0.212711
0.20878
0.234225
0.319937
0.414409
0.329774
0.33506
0.34796
1.12998
3.23704
0.562952
0.535743
0.496048
0.40416
0.208302
0.14058
0.0817295
0.0151822
-0.0516022
-0.115145
-0.161794
-0.205242
0.0398815
0.158337
0.161145
0.174579
0.199167
-0.0445014
-0.108163
-0.0877985
0.673444
1.91698
0.663754
0.0508833
0.0745509
0.103316
0.152171
0.188096
0.215708
0.24366
0.271452
0.277876
0.286636
0.35387
0.38757
0.369143
0.381579
0.394609
1.21987
3.34145
0.409333
0.371081
0.182523
0.0676808
0.0215061
-0.0332995
-0.0996061
-0.170181
-0.237352
-0.300555
-0.347589
-0.370601
-0.379213
-0.296319
0.0566425
0.0949232
0.137962
-0.0467431
-0.138547
-0.0966614
1.01634
2.05981
2.17941
1.5541
0.175501
0.154871
0.193633
0.227253
0.254093
0.281117
0.309319
0.321882
0.324577
0.355436
0.387876
0.401484
0.414739
0.426333
1.26985
3.43605
0.261885
0.189706
-0.0451443
-0.0963917
-0.151947
-0.216167
-0.286735
-0.359629
-0.42598
-0.481909
-0.529319
-0.552656
-0.538811
-0.504231
-0.273716
0.0106202
0.0418532
-0.205614
-0.192504
-0.13211
1.11486
2.1372
2.22754
2.28565
1.96593
0.332355
0.22999
0.246954
0.27557
0.300226
0.306918
0.317174
0.344057