/*--------------------------------*- C++ -*----------------------------------*\
  =========                 |
  \\      /  F ield         | OpenFOAM: The Open Source CFD Toolbox
   \\    /   O peration     | Website:  https://openfoam.org
    \\  /    A nd           | Version:  8
     \\/     M anipulation  |
\*---------------------------------------------------------------------------*/
FoamFile
{
    version     2.0;
    format      ascii;
    class       volScalarField;
    location    "9.9";
    object      alpha.water;
}
// * * * * * * * * * * * * * * * * * * * * * * * * * * * * * * * * * * * * * //

dimensions      [0 0 0 0 0 0 0];

internalField   nonuniform List<scalar> 
9150
(
0.999997
0.999992
0.999997
0.999998
0.999998
0.999998
0.999998
0.999997
0.999994
0.999994
0.999995
0.999996
0.999998
0.999998
0.999998
0.999998
0.999998
0.999997
0.999998
0.999999
0.999997
0.999999
0.999999
0.999999
0.999999
0.999998
0.999998
0.999998
0.999999
1
1
1
1
1
0.999999
0.999998
0.999999
0.999999
0.999999
1
1
1
1
1
1
1
1
1
1
1
0.999996
0.999995
0.999998
0.999997
0.999995
0.999998
0.999999
1
0.999999
0.999996
0.999998
0.999998
0.999996
0.999991
0.999996
0.999997
0.999995
0.999997
0.999999
0.999996
0.999998
0.999998
0.999992
0.999991
0.999992
0.999992
0.999992
0.999993
0.999998
0.999997
0.999998
0.999993
0.999992
0.999991
0.999992
0.999992
0.999992
0.999992
0.999995
0.999997
0.999994
0.999992
0.999992
0.999996
0.999995
0.999995
0.999997
0.999993
0.999993
0.999996
0.999997
0.999999
0.999998
1
1
0.999997
0.999994
0.999999
0.996666
0.945977
0.999991
0.999998
0.999999
1
0.999999
0.999995
0.999995
0.999999
1
1
0.999993
0.999995
0.999999
0.999999
0.999997
0.999996
0.999999
0.999997
1
0.999999
0.999995
0.999997
0.999998
0.999994
0.999994
0.999998
1
0.999997
1
0.999999
0.999994
0.999996
0.999998
0.999995
0.999994
0.999997
0.999999
1
1
0.999997
0.994689
0.997691
0.999445
0.999183
0.999116
0.999321
0.999321
0.999321
0.999321
0.998686
0.994688
0.995435
0.999445
0.999625
0.999229
0.999321
0.999321
0.999321
0.999321
0.999321
0.996618
0.995165
0.99749
0.999626
0.999627
0.997895
0.99768
0.999321
0.999321
0.998365
0.999263
0.995165
0.996051
0.999594
0.999627
0.996667
0.995553
0.999038
0.996645
0.998853
0.999445
0.995302
0.994827
0.998671
0.999627
0.999065
0.996072
0.991124
0.990936
0.990977
0.996192
0.994827
0.994827
0.996192
0.999465
0.999453
0.998983
0.995096
0.990921
0.99092
0.994831
0.994832
0.995542
0.995787
0.997021
0.999052
0.999538
0.999539
0.994988
0.99092
0.996144
0.998356
0.999491
0.99732
0.99694
0.999111
0.999539
0.999539
0.99828
0.990922
0.999531
0.999537
0.999538
0.999474
0.999231
0.999514
0.999539
0.999539
0.999539
0.992641
0.997607
0.999019
0.999538
0.999538
0.999539
0.999539
0.999539
0.99928
0.999242
0.99882
0.989678
0.991749
0.998983
0.999539
0.999539
0.999539
0.993284
0.993858
0.999258
0.999416
0.992142
0.995274
0.999539
0.999539
0.999539
0.994293
0.989266
0.992332
0.999368
0.999416
0.998211
0.997552
0.996483
0.994529
0.990053
0.989266
0.989266
0.992146
0.999314
0.999416
0.999206
0.999206
0.999197
0.999018
0.991389
0.989266
0.989266
0.993263
0.99939
0.998801
0.999206
0.999206
0.999194
0.999196
0.999165
0.995852
0.991149
0.997423
0.999424
0.997352
0.998934
0.999204
0.996427
0.997866
0.999422
0.999422
0.999232
0.999425
0.999424
0.996651
0.996533
0.994769
0.996424
0.999332
0.999422
0.999422
0.99942
0.999425
0.999425
0.997047
0.994562
0.994759
0.999015
0.999017
0.999422
0.999422
0.999336
0.999425
0.999425
0.997154
0.994561
0.995713
0.998988
0.996223
0.996221
0.997156
0.999425
0.999425
0.999425
0.994906
0.994562
0.994574
0.99802
0.998007
0.996227
0.996963
0.999425
0.999425
0.997374
0.990446
0.994562
0.997465
0.998896
0.998004
0.996234
0.999089
0.999426
0.999425
0.993803
0.990446
0.997541
0.997141
0.99889
0.999427
0.999307
0.999427
0.999427
0.999426
0.996918
0.990446
0.997927
0.998958
0.999427
0.999427
0.999427
0.999427
0.999427
0.999427
0.999427
0.997054
0.999086
0.999425
0.999426
0.999359
0.999427
0.999427
0.999427
0.999427
0.999427
0.999427
0.970617
0.99008
0.998277
0.999427
0.999427
0.999384
0.999427
0.999427
0.999427
0.999427
0.964684
0.964677
0.966123
0.975486
0.990697
0.999427
0.999427
0.999427
0.999427
0.999427
0.964677
0.964677
0.964677
0.964684
0.96474
0.993635
0.999427
0.999427
0.999427
0.999427
0.979364
0.973339
0.964684
0.964716
0.97609
0.998301
0.999424
0.999423
0.999427
0.999427
0.999181
0.998292
0.994165
0.994697
0.998281
0.999423
0.999423
0.998837
0.997298
0.998799
0.999423
0.999421
0.999413
0.99942
0.999423
0.999423
0.999423
0.999423
0.997115
0.998033
0.999421
0.99942
0.99865
0.992373
0.98584
0.98496
0.986231
0.994148
0.997111
0.99024
0.940841
0.957891
0.980708
0.994914
0.987072
0.952807
0.952773
0.952812
0.952886
0.944112
0.994193
0.998282
0.998774
0.998775
0.998774
0.998774
0.995919
0.995871
0.989937
0.970829
0.98937
0.984604
0.99117
0.998263
0.998787
0.998789
0.998789
0.998789
0.998789
0.998789
0.991561
0.963621
0.963381
0.968702
0.994512
0.998787
0.998789
0.998789
0.998789
0.998789
0.999415
0.999415
0.982603
0.954743
0.954075
0.984468
0.998303
0.998788
0.998789
0.998789
0.999415
0.999415
0.998785
0.95565
0.952456
0.95252
0.985151
0.998781
0.998788
0.998774
0.999414
0.999414
0.998916
0.956593
0.952406
0.952456
0.988857
0.998754
0.998781
0.998774
0.992027
0.994497
0.968362
0.952246
0.952392
0.985165
0.998521
0.998607
0.995267
0.983784
0.952419
0.952279
0.952246
0.952255
0.957091
0.996456
0.998502
0.992716
0.954036
0.953334
0.979797
0.975241
0.960589
0.952584
0.969847
0.995966
0.99848
0.95894
0.954114
0.967593
0.99914
0.99914
0.99914
0.998331
0.99288
0.993257
0.987521
0.965678
0.954233
0.99604
0.99914
0.99914
0.99914
0.99914
0.99914
0.99914
0.976495
0.965753
0.968017
0.995945
0.999119
0.99914
0.99914
0.99914
0.99914
0.99914
0.992284
0.965855
0.971492
0.996386
0.994698
0.999139
0.99914
0.99914
0.99914
0.997344
0.995194
0.996905
0.968875
0.996082
0.989652
0.999135
0.999139
0.99914
0.99914
0.99914
0.99702
0.996989
0.950768
0.982001
0.991533
0.998934
0.999135
0.999138
0.99914
0.99914
0.997837
0.996492
0.950693
0.950683
0.98677
0.998899
0.988319
0.991221
0.998332
0.99914
0.996204
0.994577
0.962184
0.950769
0.927023
0.998526
0.942748
0.938356
0.995378
0.999135
0.995803
0.994589
0.993746
0.960143
0.890464
0.990917
0.93537
0.925581
0.9949
0.999127
0.999029
0.998931
0.998257
0.958738
0.910019
0.994934
0.981732
0.925581
0.961663
0.998741
0.999084
0.999084
0.99261
0.915258
0.957905
0.999133
0.999137
0.95125
0.926619
0.930108
0.999084
0.999083
0.976297
0.892129
0.998118
0.999142
0.999139
0.999137
0.929397
0.927
0.993277
0.998967
0.978054
0.892122
0.999143
0.999143
0.999018
0.999137
0.97876
0.94822
0.977537
0.996934
0.992931
0.923359
0.999144
0.999143
0.996876
0.997203
0.997517
0.996675
0.984778
0.989404
0.996269
0.985221
0.999145
0.999006
0.996631
0.997517
0.997516
0.997517
0.99745
0.994062
0.996488
0.997381
0.999144
0.998906
0.998907
0.980591
0.945982
0.987366
0.997441
0.997437
0.997428
0.997403
0.991398
0.905921
0.808697
0.799991
0.800159
0.859386
0.993021
0.997428
0.997423
0.997421
0.83321
0.79996
0.799949
0.79995
0.799978
0.800112
0.823598
0.968658
0.997421
0.960048
0.79996
0.799949
0.799949
0.799949
0.799935
0.79976
0.826481
0.936407
0.821061
0.790648
0.799988
0.79996
0.799949
0.79995
0.804697
0.965021
0.983488
0.847703
0.790681
0.790446
0.890032
0.799988
0.799966
0.853497
0.995466
0.998866
0.998732
0.946002
0.797325
0.790498
0.984508
0.904523
0.896388
0.988929
0.998895
0.998893
0.998884
0.998622
0.969486
0.890409
0.999024
0.998805
0.998507
0.998916
0.998905
0.998895
0.998893
0.998884
0.998799
0.997787
0.999034
0.999028
0.998985
0.998948
0.998916
0.993665
0.932352
0.961559
0.998702
0.998694
0.999033
0.999028
0.998972
0.971562
0.864909
0.815224
0.815646
0.819097
0.863244
0.894715
0.998867
0.998838
0.992464
0.86648
0.815224
0.815224
0.815224
0.856593
0.832292
0.832323
0.998794
0.998703
0.978791
0.828505
0.81578
0.891494
0.923981
0.915197
0.874015
0.885863
0.991199
0.99798
0.945722
0.81786
0.817125
0.843315
0.926013
0.856321
0.856193
0.8561
0.77229
0.805292
0.841889
0.87956
0.863987
0.974986
0.988193
0.950466
0.884873
0.856193
0.763771
0.763943
0.784973
0.975724
0.982908
0.996344
0.996344
0.996344
0.996344
0.990516
0.763764
0.763774
0.86906
0.995152
0.996337
0.996341
0.996344
0.996344
0.996344
0.996334
0.763763
0.788414
0.975533
0.996294
0.99633
0.996337
0.996341
0.996343
0.994749
0.989231
0.763763
0.934297
0.996052
0.996157
0.993814
0.963188
0.966049
0.971993
0.930732
0.928198
0.972821
0.988685
0.989985
0.99462
0.938527
0.917421
0.917427
0.917529
0.917613
0.923858
0.911636
0.896047
0.924818
0.901848
0.83664
0.91842
0.94656
0.94643
0.946637
0.944471
0.843722
0.891368
0.867011
0.780924
0.778664
0.795552
0.875642
0.930019
0.894414
0.83283
0.798264
0.785638
0.783525
0.780649
0.778664
0.780649
0.78361
0.78691
0.79115
0.832759
0.925576
0.907769
0.911846
0.910868
0.903356
0.913137
0.946528
0.960001
0.992519
0.993204
0.99957
0.999571
0.999571
0.999571
0.999571
0.99957
0.999569
0.999568
0.99953
0.992375
0.999569
0.99957
0.999571
0.999571
0.99957
0.999569
0.999568
0.998375
0.988114
0.770731
0.999542
0.999561
0.999569
0.99957
0.999552
0.999554
0.999546
0.997971
0.960175
0.620063
0.968252
0.995187
0.999523
0.99956
0.99638
0.993382
0.999059
0.998654
0.977576
0.740431
0.854391
0.902848
0.978373
0.999062
0.992803
0.971898
0.988005
0.998864
0.999193
0.971589
0.85439
0.854391
0.900665
0.989849
0.993086
0.971878
0.971855
0.99551
0.999204
0.999224
0.854391
0.85439
0.883106
0.984624
0.990768
0.971855
0.971855
0.981517
0.999107
0.999233
0.854425
0.854396
0.945983
0.984676
0.978805
0.971901
0.971855
0.977331
0.998413
0.999224
0.854505
0.854444
0.977656
0.984665
0.972455
0.972001
0.971901
0.989047
0.998299
0.999063
0.857174
0.908164
0.982863
0.984665
0.979998
0.974558
0.991695
0.996659
0.993905
0.915325
0.97314
0.834422
0.900546
0.980708
0.998563
0.999933
0.999728
0.996617
0.882894
0.787078
0.914893
0.833241
0.855982
0.976608
0.999953
0.999953
0.999536
0.862259
0.785663
0.786507
0.832147
0.832517
0.925984
0.999632
0.999999
0.999975
0.931489
0.785469
0.78539
0.798787
0.825558
0.922053
0.99657
0.999999
1
0.999999
0.89723
0.78539
0.799614
0.963795
0.94816
0.978197
0.999071
1
1
1
0.976188
0.785521
0.979966
0.996817
0.985417
0.995292
0.999891
1
1.00001
1
1
0.87767
0.983681
0.996892
0.987291
1
1
1.00001
1.00001
1
1
0.999999
0.875342
0.972534
0.999665
0.999821
1
1.00001
1.00001
1
1
0.961331
0.778221
0.953448
0.896115
0.998899
1
1.00001
1.00001
0.999999
0.999998
0.934846
0.685041
0.843525
0.911128
1
0.999999
1
1
1
0.999991
0.999977
0.874724
0.554809
1
1
1
1
1
1
0.999998
0.999956
0.858606
0.290126
0.993993
0.993993
0.993993
0.993993
0.993993
0.995124
0.998493
0.998494
0.998559
0.99884
0.999132
0.998963
0.998914
0.998972
0.999021
0.999061
0.99906
0.998889
0.998889
0.998889
0.998914
0.999096
0.998898
0.995383
0.995382
0.998343
0.999123
0.999123
0.997699
0.996662
0.996576
0.996434
0.996597
0.997725
0.998181
0.998943
0.998959
0.998959
0.998538
0.998028
0.999225
0.995426
0.993993
0.993993
0.99499
0.995144
0.994434
0.994434
0.996202
0.999237
0.999237
0.996463
0.995111
0.995112
0.997924
0.999062
0.999066
0.999095
0.999095
0.999095
0.999096
0.999096
0.999096
0.99562
0.995384
0.998794
0.999123
0.999123
0.999123
0.997927
0.992838
0.992838
0.992839
0.992843
0.992849
0.992854
0.992855
0.997309
0.99875
0.998749
0.998246
0.998653
0.999248
0.999298
0.999421
0.999421
0.997974
0.994437
0.997634
0.999274
0.999238
0.995213
0.995112
0.995111
0.995112
0.99561
0.998295
0.999096
0.999096
0.999096
0.999096
0.999096
0.999096
0.995621
0.99648
0.999123
0.999123
0.999096
0.995245
0.993579
0.99357
0.995164
0.996817
0.996908
0.995788
0.995599
0.998277
0.998406
0.998602
0.979882
0.998854
0.99919
0.999421
0.999421
0.999421
0.999421
0.999421
0.999421
0.999418
0.999279
0.99815
0.995112
0.995112
0.998732
0.998923
0.991545
0.989006
0.989505
0.994137
0.99882
0.998834
0.999096
0.998862
0.996057
0.999091
0.999095
0.990973
0.989776
0.992874
0.999115
0.999115
0.999115
0.999115
0.999115
0.999115
0.999115
0.999115
0.982726
0.96843
0.966175
0.991326
0.99344
0.997262
0.999421
0.999421
0.999421
0.999421
0.998109
0.996455
0.996461
0.997055
0.998086
0.999083
0.999083
0.998282
0.989009
0.989006
0.991528
0.989995
0.993192
0.999096
0.999096
0.999096
0.999095
0.997486
0.989244
0.987741
0.989779
0.998764
0.999115
0.999115
0.999115
0.999115
0.999115
0.999115
0.999115
0.998201
0.974637
0.966175
0.966175
0.99092
0.99092
0.992606
0.999303
0.999421
0.999416
0.996203
0.991023
0.994175
0.998737
0.999082
0.999083
0.999083
0.998831
0.998018
0.990857
0.989706
0.991894
0.989991
0.992338
0.999095
0.999096
0.999095
0.999089
0.99066
0.987741
0.987733
0.99359
0.999115
0.999115
0.999115
0.999078
0.998484
0.998436
0.998356
0.999111
0.999077
0.996049
0.974024
0.966175
0.99092
0.99092
0.995579
0.999411
0.99942
0.994026
0.991023
0.991024
0.998532
0.999093
0.998714
0.996933
0.998023
0.999064
0.999074
0.997279
0.990713
0.98998
0.98998
0.998705
0.999095
0.999082
0.991902
0.984064
0.990206
0.988607
0.984873
0.988782
0.999018
0.999115
0.999115
0.999112
0.998342
0.977643
0.972654
0.989351
0.994828
0.997985
0.997806
0.99598
0.99092
0.992319
0.999227
0.999397
0.997032
0.991037
0.991029
0.997602
0.999128
0.998763
0.990866
0.989914
0.990113
0.998105
0.999098
0.999096
0.995659
0.992765
0.997793
0.997069
0.987193
0.984071
0.984064
0.984064
0.984064
0.984096
0.985039
0.993119
0.999108
0.999114
0.998045
0.998048
0.998153
0.990985
0.97255
0.972524
0.972536
0.991613
0.988492
0.996508
0.99392
0.999398
0.999416
0.998762
0.992953
0.99228
0.999129
0.99913
0.99913
0.994522
0.989914
0.989914
0.989914
0.992681
0.999099
0.999098
0.999096
0.999084
0.998132
0.985473
0.983968
0.984193
0.992109
0.993569
0.995783
0.99912
0.999116
0.999116
0.99658
0.998304
0.983221
0.980591
0.984879
0.996238
0.996247
0.973049
0.983155
0.993044
0.987571
0.95894
0.999269
0.999416
0.999416
0.996368
0.994494
0.994085
0.995465
0.99913
0.99913
0.99913
0.999128
0.995281
0.989935
0.996777
0.9991
0.999099
0.999098
0.999096
0.99585
0.985672
0.986935
0.998656
0.999109
0.999121
0.99912
0.999121
0.99912
0.997156
0.976771
0.976823
0.976952
0.981354
0.996071
0.996248
0.996244
0.97433
0.987488
0.993012
0.964443
0.920249
0.999416
0.999416
0.999416
0.996792
0.991656
0.965645
0.963529
0.991808
0.99913
0.99913
0.99913
0.99913
0.999127
0.999112
0.999101
0.99138
0.961075
0.965129
0.997455
0.999037
0.999038
0.996989
0.993862
0.997334
0.999121
0.99912
0.996744
0.975797
0.975712
0.994344
0.997635
0.997635
0.996169
0.976356
0.973113
0.973144
0.979679
0.992083
0.93934
0.920239
0.999416
0.999163
0.998927
0.988147
0.962975
0.962975
0.96299
0.963272
0.991697
0.99913
0.99913
0.990383
0.961595
0.954987
0.958941
0.956315
0.956315
0.956315
0.979864
0.999038
0.995736
0.989934
0.989934
0.992137
0.998903
0.989673
0.976745
0.981719
0.997136
0.99742
0.997635
0.997635
0.980523
0.973099
0.973099
0.974181
0.992836
0.99583
0.945316
0.920239
0.999416
0.999216
0.996902
0.973494
0.962975
0.962975
0.962975
0.975509
0.999137
0.997993
0.965872
0.954888
0.954916
0.954944
0.956697
0.993154
0.99236
0.997113
0.999083
0.997925
0.989934
0.989934
0.989934
0.994254
0.997379
0.962962
0.963342
0.981697
0.949793
0.938114
0.982861
0.997208
0.996769
0.995611
0.992631
0.995763
0.999121
0.998903
0.97638
0.920239
0.999416
0.999416
0.996603
0.977209
0.962975
0.962975
0.982568
0.999143
0.999144
0.998529
0.966964
0.954888
0.95531
0.992611
0.996332
0.99909
0.99909
0.99909
0.99909
0.998686
0.991573
0.989934
0.991287
0.99845
0.99847
0.953325
0.884662
0.884334
0.883511
0.88349
0.883441
0.940619
0.990178
0.999118
0.99912
0.999122
0.999122
0.999122
0.997677
0.977751
0.992788
0.998268
0.999156
0.992576
0.974497
0.984412
0.999143
0.999144
0.999145
0.999144
0.992604
0.985001
0.99295
0.99908
0.999088
0.999089
0.99909
0.998774
0.998067
0.997469
0.995201
0.991348
0.994305
0.99847
0.998508
0.995665
0.949169
0.931161
0.980229
0.891322
0.88341
0.883408
0.889123
0.997372
0.999122
0.999122
0.999122
0.999122
0.999122
0.999121
0.990449
0.994826
0.999421
0.99942
0.999097
0.998849
0.998587
0.999142
0.999145
0.999145
0.999144
0.999111
0.999018
0.998262
0.997744
0.997599
0.99833
0.996189
0.990991
0.98546
0.984781
0.985663
0.993386
0.997383
0.998533
0.998544
0.998546
0.998546
0.998549
0.958102
0.883408
0.883408
0.883408
0.883435
0.97319
0.999122
0.999122
0.999122
0.999122
0.999122
0.990446
0.991442
0.999421
0.999421
0.999421
0.99942
0.998611
0.993776
0.991665
0.991623
0.991615
0.991606
0.991597
0.991597
0.991597
0.991622
0.996697
0.999144
0.99637
0.988591
0.984781
0.984786
0.984795
0.986909
0.995563
0.996867
0.997997
0.998549
0.998587
0.998628
0.934655
0.883408
0.883408
0.883408
0.883465
0.906907
0.979983
0.977313
0.965161
0.946245
0.990446
0.99047
0.999421
0.999421
0.999421
0.999421
0.999398
0.995938
0.991684
0.991464
0.993144
0.994273
0.993512
0.996667
0.999447
0.999451
0.999451
0.999451
0.999451
0.999451
0.999447
0.988343
0.984776
0.984776
0.985838
0.996189
0.997324
0.997469
0.99509
0.998628
0.998628
0.993244
0.969422
0.933728
0.883513
0.901229
0.955425
0.958032
0.930193
0.930193
0.990446
0.990446
0.996162
0.999421
0.999421
0.999421
0.999421
0.99934
0.998913
0.998572
0.999136
0.999423
0.99945
0.99945
0.999451
0.999451
0.999451
0.999451
0.999451
0.999451
0.999451
0.999451
0.992061
0.984776
0.984821
0.992585
0.999
0.998569
0.991526
0.998211
0.998619
0.99861
0.995791
0.992484
0.992965
0.994865
0.986397
0.987284
0.973991
0.964166
0.990446
0.990446
0.990484
0.997817
0.999421
0.999421
0.999421
0.999421
0.999421
0.99942
0.999418
0.998702
0.998324
0.999402
0.999451
0.999451
0.999451
0.999451
0.999451
0.999451
0.999451
0.999451
0.999451
0.987134
0.98482
0.994619
0.999041
0.999041
0.999041
0.98572
0.995793
0.997498
0.990986
0.990985
0.992565
0.996671
0.996691
0.996714
0.996753
0.996753
0.990446
0.990446
0.990446
0.995984
0.999421
0.999421
0.999421
0.999421
0.999421
0.999421
0.998536
0.993507
0.994787
0.999386
0.99945
0.999451
0.999451
0.999451
0.999451
0.999451
0.999451
0.999451
0.999451
0.988036
0.993538
0.999041
0.999041
0.999041
0.985609
0.979054
0.989578
0.994947
0.994935
0.992287
0.988987
0.988977
0.988966
0.994225
0.996753
0.996753
0.990446
0.990446
0.992701
0.998937
0.999421
0.999421
0.999421
0.999421
0.999345
0.996422
0.993501
0.993501
0.998178
0.999449
0.99945
0.99945
0.999107
0.999347
0.999451
0.999451
0.999451
0.999393
0.998974
0.998579
0.985789
0.993791
0.999041
0.992264
0.94455
0.970923
0.986873
0.987272
0.990503
0.998292
0.998124
0.989475
0.988927
0.996631
0.996635
0.996753
0.993443
0.99479
0.999194
0.999422
0.999421
0.999421
0.999421
0.992027
0.991043
0.991261
0.994981
0.9985
0.999055
0.99944
0.999449
0.99945
0.998049
0.987986
0.993689
0.99944
0.999451
0.998158
0.985969
0.985789
0.985803
0.990601
0.999006
0.961966
0.94455
0.970206
0.993544
0.988611
0.988611
0.994212
0.998587
0.998192
0.988505
0.986509
0.986509
0.988443
0.999412
0.999426
0.999427
0.999425
0.996522
0.987516
0.985668
0.992871
0.995296
0.995808
0.989917
0.972723
0.958558
0.980001
0.998068
0.999448
0.997317
0.980519
0.977594
0.992702
0.997403
0.990974
0.988899
0.996326
0.998263
0.998281
0.998958
0.968347
0.94455
0.969251
0.995952
0.995976
0.992846
0.995961
0.998587
0.998582
0.997152
0.99319
0.986797
0.985884
0.999427
0.999427
0.999427
0.994618
0.984608
0.984244
0.984252
0.992514
0.998083
0.998075
0.977746
0.901476
0.901455
0.902729
0.947736
0.995053
0.999391
0.992338
0.977764
0.976736
0.988453
0.995606
0.995605
0.988415
0.967187
0.992716
0.998954
0.996882
0.983405
0.986343
0.995975
0.995974
0.99353
0.983294
0.981343
0.990137
0.998707
0.998806
0.998806
0.987656
0.999427
0.999427
0.99634
0.987712
0.984244
0.984246
0.985937
0.99629
0.998101
0.998083
0.987529
0.902929
0.901427
0.901427
0.901427
0.97499
0.999413
0.999419
0.999419
0.979555
0.981441
0.995598
0.982998
0.956252
0.956252
0.956252
0.984322
0.996796
0.959025
0.995119
0.995959
0.985642
0.972639
0.969626
0.969626
0.969626
0.994572
0.998806
0.998806
0.996685
0.999427
0.993137
0.982085
0.983005
0.992104
0.995606
0.996273
0.997362
0.998109
0.998101
0.953949
0.90145
0.901431
0.901427
0.901431
0.973167
0.999411
0.999419
0.99942
0.99942
0.99942
0.980051
0.974331
0.975297
0.98747
0.986973
0.950356
0.932135
0.931329
0.965035
0.994044
0.99525
0.995284
0.991703
0.969626
0.983395
0.998801
0.998806
0.998806
0.995179
0.992935
0.982602
0.982047
0.982046
0.993881
0.997643
0.998109
0.998109
0.998109
0.959561
0.901568
0.901518
0.901449
0.901431
0.95948
0.999397
0.999419
0.999419
0.99942
0.99942
0.99942
0.99942
0.993007
0.975485
0.990309
0.99584
0.937061
0.931325
0.93132
0.931313
0.952024
0.993035
0.995267
0.992995
0.997733
0.998882
0.997291
0.996185
0.994822
0.994822
0.992787
0.984441
0.984545
0.983069
0.982066
0.988057
0.997514
0.998109
0.998109
0.935929
0.902222
0.901568
0.915719
0.98201
0.999239
0.999328
0.999371
0.999401
0.999419
0.99942
0.99942
0.99942
0.999419
0.986834
0.984567
0.997218
0.979619
0.931314
0.931313
0.931303
0.931304
0.982881
0.992183
0.993766
0.998663
0.998884
0.997927
0.996939
0.997418
0.997418
0.995989
0.984517
0.949954
0.939644
0.939644
0.940021
0.988084
0.998104
0.998109
0.995587
0.957963
0.984303
0.988651
0.988653
0.98665
0.989472
0.99213
0.994829
0.999251
0.999419
0.99942
0.999419
0.999419
0.998275
0.992175
0.998181
0.999417
0.952077
0.931303
0.931302
0.931301
0.977691
0.996356
0.996359
0.998884
0.998884
0.998884
0.998884
0.998545
0.991864
0.948382
0.939932
0.939841
0.939697
0.939644
0.940326
0.980225
0.997848
0.99788
0.997959
0.99796
0.997908
0.986912
0.968903
0.91139
0.910066
0.939052
0.990975
0.998692
0.999071
0.999419
0.999419
0.999419
0.999419
0.999419
0.999419
0.999419
0.998616
0.933437
0.931301
0.931304
0.937594
0.995246
0.998884
0.998884
0.998884
0.998884
0.998884
0.997737
0.976504
0.944112
0.955118
0.951754
0.96241
0.989418
0.998128
0.997921
0.967154
0.984761
0.99796
0.992415
0.959368
0.909692
0.909692
0.909692
0.909843
0.934249
0.990453
0.998831
0.985168
0.991707
0.999388
0.999419
0.999419
0.999419
0.999419
0.999419
0.999419
0.981999
0.931307
0.931301
0.931307
0.941269
0.994894
0.998884
0.998884
0.998884
0.998884
0.987371
0.974188
0.974651
0.994596
0.998218
0.998223
0.998223
0.998223
0.961551
0.951343
0.979326
0.997837
0.939507
0.910415
0.910017
0.915749
0.95213
0.993315
0.999027
0.999013
0.999004
0.984888
0.976338
0.976311
0.996203
0.999419
0.999419
0.999419
0.999419
0.999419
0.999418
0.986696
0.931307
0.931334
0.931354
0.934363
0.984599
0.998884
0.998884
0.996951
0.974533
0.974189
0.981799
0.97873
0.982762
0.998164
0.998223
0.981116
0.919385
0.961395
0.99359
0.993565
0.933908
0.936617
0.962638
0.999025
0.999027
0.999027
0.999027
0.999027
0.999012
0.998819
0.981469
0.976311
0.976557
0.984926
0.981825
0.983019
0.994811
0.999418
0.999415
0.999411
0.987333
0.932214
0.931385
0.931417
0.9353
0.99064
0.994608
0.975132
0.974228
0.98031
0.990759
0.978711
0.978872
0.997608
0.992848
0.922337
0.919385
0.976874
0.99345
0.992918
0.942031
0.998996
0.998996
0.999009
0.999025
0.999027
0.999027
0.996467
0.956812
0.962474
0.980214
0.979975
0.976506
0.976501
0.976532
0.976562
0.98774
0.998878
0.999411
0.999408
0.999405
0.945269
0.931417
0.931423
0.931429
0.977106
0.979424
0.976211
0.981657
0.997668
0.998789
0.980779
0.994462
0.997515
0.943909
0.918838
0.924015
0.99024
0.990599
0.971982
0.998995
0.998996
0.998996
0.994261
0.986699
0.998917
0.999023
0.981448
0.892774
0.892679
0.904849
0.98087
0.990104
0.991323
0.991705
0.993161
0.991954
0.994673
0.999152
0.999405
0.991923
0.93167
0.931426
0.931429
0.967004
0.986307
0.9925
0.996643
0.997765
0.998843
0.997497
0.998629
0.998627
0.98866
0.91985
0.918834
0.922093
0.990073
0.989044
0.967005
0.998995
0.998995
0.990179
0.948559
0.936708
0.97285
0.997891
0.991016
0.92136
0.892554
0.892495
0.897145
0.979886
0.99869
0.998706
0.998706
0.99785
0.997357
0.997959
0.988021
0.937535
0.931847
0.95047
0.98577
0.997989
0.998307
0.99834
0.998349
0.998581
0.998841
0.99864
0.998634
0.998629
0.978906
0.918834
0.918833
0.918834
0.984891
0.996757
0.966639
0.980629
0.993713
0.942715
0.936613
0.936596
0.936708
0.9541
0.982825
0.982414
0.952101
0.892464
0.892464
0.892515
0.954987
0.998706
0.998706
0.998706
0.998701
0.989838
0.937286
0.93723
0.954258
0.997613
0.998242
0.99674
0.981497
0.986143
0.99834
0.996001
0.994894
0.985679
0.997912
0.987059
0.920573
0.918833
0.918834
0.943152
0.996339
0.996757
0.959948
0.959911
0.962738
0.93922
0.941803
0.96004
0.939793
0.935636
0.935447
0.98199
0.981506
0.979992
0.937799
0.892613
0.907965
0.993759
0.998706
0.998706
0.998705
0.991773
0.94208
0.93723
0.997047
0.998415
0.998349
0.986352
0.971987
0.9735
0.99808
0.990366
0.973638
0.953626
0.953649
0.953904
0.934841
0.920822
0.942778
0.995482
0.996118
0.973518
0.960258
0.991329
0.953567
0.956607
0.994692
0.994776
0.989512
0.948841
0.93124
0.926081
0.932317
0.892433
0.90628
0.969125
0.969976
0.989686
0.998706
0.998706
0.998706
0.997816
0.986479
0.976362
0.9906
0.998436
0.99846
0.982103
0.971987
0.978403
0.986368
0.947168
0.938256
0.998649
0.987847
0.991189
0.994495
0.991558
0.99565
0.999013
0.991298
0.954539
0.974813
0.993617
0.993631
0.990953
0.994776
0.994859
0.994858
0.994859
0.973038
0.873363
0.873363
0.873363
0.873503
0.973059
0.998361
0.998379
0.998706
0.998706
0.998706
0.998706
0.998702
0.995006
0.98603
0.989746
0.998538
0.984885
0.971987
0.99244
0.97422
0.938256
0.938256
0.998648
0.998649
0.998122
0.999009
0.999038
0.999027
0.999013
0.982038
0.954546
0.954561
0.980646
0.945547
0.867519
0.956086
0.986915
0.994859
0.994858
0.994521
0.917996
0.873363
0.873395
0.873494
0.873556
0.940408
0.998706
0.998706
0.998706
0.998706
0.998706
0.998706
0.998702
0.993254
0.994524
0.998566
0.991067
0.972034
0.992471
0.99326
0.953113
0.938256
0.998649
0.99265
0.997278
0.999038
0.999038
0.99902
0.999019
0.990796
0.975734
0.982895
0.982791
0.860257
0.837548
0.837572
0.913423
0.994858
0.994829
0.994783
0.992723
0.942366
0.904382
0.879819
0.874662
0.877535
0.920188
0.959837
0.976283
0.976872
0.980091
0.998702
0.998683
0.998681
0.998628
0.998566
0.998565
0.988627
0.996316
0.997746
0.991295
0.946298
0.997149
0.921272
0.924675
0.999038
0.998286
0.995401
0.999001
0.998997
0.972394
0.98346
0.977703
0.837548
0.837546
0.837548
0.895721
0.971518
0.990003
0.994676
0.977481
0.919676
0.976695
0.997824
0.997825
0.997825
0.997825
0.997825
0.954605
0.905667
0.905667
0.912294
0.933468
0.94754
0.96529
0.988688
0.998499
0.998373
0.998265
0.998229
0.991679
0.973753
0.936645
0.880409
0.88059
0.924459
0.996116
0.996591
0.913519
0.868204
0.854394
0.957194
0.864147
0.837546
0.837546
0.837546
0.961714
0.961118
0.97711
0.966343
0.91293
0.912925
0.912935
0.965504
0.997825
0.997825
0.997825
0.997825
0.997825
0.997772
0.985199
0.92933
0.907317
0.907301
0.907392
0.907678
0.90843
0.956783
0.940383
0.876879
0.881315
0.932142
0.936953
0.880426
0.880384
0.930804
0.998543
0.998542
0.974002
0.887812
0.838448
0.837752
0.837546
0.837546
0.837546
0.964784
0.971583
0.961454
0.977219
0.987
0.920021
0.912935
0.923014
0.991935
0.997825
0.997825
0.997825
0.997825
0.997218
0.997168
0.997488
0.995001
0.978135
0.965048
0.953416
0.929788
0.936692
0.872116
0.871484
0.871416
0.871382
0.902489
0.985472
0.92049
0.916173
0.995135
0.998542
0.998543
0.998542
0.996465
0.944692
0.869184
0.837752
0.885948
0.948959
0.96118
0.974393
0.994134
0.997757
0.993702
0.983818
0.989469
0.997785
0.997794
0.997664
0.997824
0.997825
0.997821
0.983506
0.961282
0.969361
0.986311
0.989048
0.992129
0.992301
0.992746
0.994467
0.977101
0.875426
0.871382
0.871381
0.906702
0.995552
0.996226
0.997689
0.998292
0.998543
0.998204
0.997279
0.997457
0.997211
0.921482
0.871622
0.989578
0.973301
0.961339
0.989653
0.99776
0.997759
0.997757
0.997757
0.99776
0.9978
0.997818
0.99782
0.997824
0.997822
0.997809
0.981464
0.95664
0.95493
0.954911
0.953982
0.954022
0.980169
0.994829
0.99483
0.994829
0.954215
0.871381
0.871382
0.960477
0.990265
0.995904
0.976946
0.997784
0.998541
0.99854
0.99833
0.9554
0.922762
0.922651
0.975584
0.997757
0.994624
0.991299
0.99776
0.99776
0.99776
0.997759
0.995718
0.991178
0.989107
0.992932
0.997818
0.997821
0.997809
0.997779
0.997778
0.997772
0.993371
0.984364
0.98071
0.951495
0.951452
0.969524
0.99483
0.99483
0.939307
0.871713
0.957067
0.971289
0.898469
0.900924
0.894915
0.966805
0.99854
0.998523
0.964853
0.922934
0.922744
0.952681
0.997757
0.99776
0.99776
0.99776
0.997759
0.99776
0.997759
0.992665
0.951134
0.90713
0.906875
0.92758
0.989778
0.990846
0.997785
0.997607
0.997773
0.997766
0.987413
0.95558
0.953657
0.953209
0.951495
0.959239
0.99483
0.98409
0.897864
0.880849
0.974773
0.973166
0.892129
0.892142
0.892317
0.910541
0.998523
0.998496
0.961247
0.922745
0.947373
0.997757
0.99776
0.99776
0.99776
0.99776
0.99776
0.997755
0.995174
0.933361
0.90713
0.906875
0.906574
0.906386
0.90191
0.901757
0.972283
0.997694
0.997766
0.997096
0.933876
0.893267
0.893194
0.929922
0.983324
0.98187
0.989429
0.977744
0.963982
0.976943
0.974783
0.982841
0.892122
0.892129
0.892142
0.919097
0.998496
0.998422
0.973585
0.956158
0.995806
0.997405
0.990628
0.985613
0.99776
0.99776
0.997757
0.997255
0.995738
0.98545
0.922593
0.907436
0.910718
0.949151
0.958152
0.852832
0.822781
0.997643
0.997694
0.995609
0.923383
0.893192
0.921044
0.993308
0.993308
0.993308
0.991212
0.990926
0.993506
0.993566
0.993581
0.993581
0.892122
0.892122
0.892131
0.963486
0.998479
0.998473
0.989862
0.997499
0.996668
0.985414
0.982063
0.98212
0.988574
0.997758
0.973645
0.854165
0.815698
0.950832
0.967118
0.967117
0.967119
0.967117
0.966816
0.803214
0.708322
0.985056
0.997467
0.997227
0.994061
0.920623
0.902853
0.993304
0.993308
0.993304
0.992978
0.992601
0.993342
0.993504
0.993566
0.993581
0.892122
0.892125
0.922911
0.997369
0.997528
0.986605
0.997594
0.997882
0.988275
0.982056
0.982059
0.983076
0.989554
0.986434
0.780468
0.703466
0.702842
0.751987
0.95852
0.967119
0.967117
0.966922
0.839176
0.700313
0.700437
0.78303
0.997227
0.997186
0.99233
0.867645
0.834594
0.862099
0.983686
0.94589
0.935634
0.878727
0.858276
0.929802
0.965184
0.968279
0.935854
0.936245
0.991366
0.997097
0.996951
0.985296
0.997084
0.998097
0.988996
0.982057
0.982582
0.995011
0.989106
0.858679
0.703466
0.702803
0.702202
0.701765
0.701438
0.91912
0.966922
0.792842
0.700313
0.700282
0.700287