/*--------------------------------*- C++ -*----------------------------------*\
  =========                 |
  \\      /  F ield         | OpenFOAM: The Open Source CFD Toolbox
   \\    /   O peration     | Website:  https://openfoam.org
    \\  /    A nd           | Version:  8
     \\/     M anipulation  |
\*---------------------------------------------------------------------------*/
FoamFile
{
    version     2.0;
    format      ascii;
    class       surfaceScalarField;
    location    "9.9";
    object      alphaPhi0.water;
}
// * * * * * * * * * * * * * * * * * * * * * * * * * * * * * * * * * * * * * //

dimensions      [0 3 -1 0 0 0 0];

internalField   nonuniform List<scalar> 
18095
(
1.97831e-08
-1.72246e-07
1.52463e-07
2.30402e-08
-1.97866e-07
1.94608e-07
1.98106e-08
-2.06184e-07
2.09412e-07
1.05712e-08
-2.1063e-07
2.19868e-07
-8.62293e-10
-2.13395e-07
2.24827e-07
-1.19779e-08
-2.1339e-07
2.24504e-07
-2.04907e-08
-2.10766e-07
2.19278e-07
-2.33309e-08
-2.06133e-07
2.08972e-07
-1.99402e-08
-1.97488e-07
1.94096e-07
-1.71842e-07
1.51901e-07
1.54663e-08
-1.87714e-07
1.59294e-08
-1.98333e-07
1.19515e-08
-2.02208e-07
6.5302e-09
-2.05211e-07
-4.50634e-12
-2.06863e-07
-6.46519e-09
-2.06932e-07
-1.21255e-08
-2.05108e-07
-1.62064e-08
-2.02054e-07
-1.56216e-08
-1.98075e-07
-1.87466e-07
6.76177e-09
-1.94477e-07
8.2589e-09
-1.99832e-07
7.02656e-09
-2.00978e-07
4.01918e-09
-2.02205e-07
-1.11045e-10
-2.02734e-07
-4.32011e-09
-2.02724e-07
-7.40261e-09
-2.02027e-07
-8.49366e-09
-2.00965e-07
-6.86671e-09
-1.99704e-07
-1.94333e-07
4.46661e-09
-1.98944e-07
4.62248e-09
-1.9999e-07
3.55204e-09
-1.99909e-07
1.74468e-09
-2.00399e-07
-2.6406e-10
-2.00727e-07
-2.157e-09
-2.00832e-07
-3.73635e-09
-2.00449e-07
-4.79784e-09
-1.99905e-07
-4.57045e-09
-1.99933e-07
-1.98905e-07
1.05454e-09
1.06432e-09
1.15508e-09
7.55305e-10
2.77835e-11
-8.05596e-10
-1.25562e-09
-1.1617e-09
-1.0954e-09
-2.93355e-08
-1.9779e-07
2.27126e-07
-3.28345e-08
-2.00121e-07
2.03622e-07
-2.88614e-08
-2.02122e-07
1.98151e-07
-1.79088e-08
-2.02432e-07
1.91482e-07
-4.29342e-09
-2.02167e-07
1.88552e-07
9.73902e-09
-2.0194e-07
1.87908e-07
2.1008e-08
-2.00995e-07
1.89727e-07
2.70749e-08
-2.00284e-07
1.94218e-07
2.51448e-08
-1.97586e-07
1.99518e-07
-1.94493e-07
2.19639e-07
-1.03832e-08
-1.87407e-07
-1.62908e-08
-1.94212e-07
-1.42662e-08
-2.04145e-07
-8.10598e-09
-2.08591e-07
-1.97007e-09
-2.08302e-07
4.12512e-09
-2.08034e-07
1.10956e-08
-2.07963e-07
1.37544e-08
-2.02941e-07
8.79432e-09
-1.92626e-07
-1.85698e-07
-1.03008e-08
-1.77106e-07
-8.60909e-09
-1.95904e-07
-7.28305e-09
-2.0547e-07
-4.92656e-09
-2.10947e-07
1.846e-11
-2.13246e-07
4.41545e-09
-2.12429e-07
6.17771e-09
-2.09725e-07
7.62187e-09
-2.04384e-07
9.77517e-09
-1.94778e-07
-1.75924e-07
-6.74203e-09
-1.70363e-07
-8.91868e-09
-1.93727e-07
-8.76063e-09
-2.05628e-07
-4.35487e-09
-2.15353e-07
-1.01147e-09
-2.1659e-07
2.96982e-09
-2.16411e-07
7.86016e-09
-2.14615e-07
8.21217e-09
-2.04736e-07
6.36964e-09
-1.92935e-07
-1.69555e-07
-1.79014e-08
-1.70214e-08
-1.32395e-08
-8.72715e-09
-4.91414e-10
7.6e-09
1.22597e-08
1.6494e-08
1.76536e-08
2.1428e-08
-1.85337e-07
1.6391e-07
-2.22977e-08
-2.28843e-07
2.7257e-07
-2.85191e-08
-2.29575e-07
2.35797e-07
-4.69472e-08
-2.25753e-07
2.44183e-07
-5.5605e-08
-2.23175e-07
2.31834e-07
-7.16879e-08
-2.15227e-07
2.3131e-07
-9.44448e-08
-2.0775e-07
2.30506e-07
-1.17098e-07
-2.03614e-07
2.26266e-07
-1.47119e-07
-1.82615e-07
2.15817e-07
-9.80838e-08
-2.48516e-08
5.64735e-09
-1.90986e-07
-6.72014e-09
-2.16474e-07
-1.67607e-08
-2.19535e-07
-2.8293e-08
-2.1422e-07
-4.0265e-08
-2.11203e-07
-4.78763e-08
-2.07615e-07
-5.15479e-08
-2.04079e-07
-5.72117e-08
-1.97952e-07
-5.38226e-08
-1.86004e-07
-1.51905e-07
-9.7582e-11
-1.90887e-07
-5.85221e-09
-2.10719e-07
-1.29547e-08
-2.12431e-07
-1.88957e-08
-2.08277e-07
-2.24586e-08
-2.07638e-07
-2.6009e-08
-2.04064e-07
-2.79323e-08
-2.02155e-07
-2.6897e-08
-1.98987e-07
-2.15255e-08
-1.91375e-07
-1.7343e-07
3.96578e-09
-1.94854e-07
-3.13366e-09
-2.03619e-07
-3.74861e-09
-2.11815e-07
-1.03318e-08
-2.01692e-07
-1.41103e-08
-2.03858e-07
-1.62573e-08
-2.01916e-07
-1.93236e-08
-1.99088e-07
-1.57713e-08
-2.02538e-07
-1.17922e-08
-1.95354e-07
-1.85222e-07
3.22735e-08
3.22788e-08
1.86156e-08
8.40574e-09
-6.89819e-09
-2.0905e-08
-3.02642e-08
-3.85836e-08
-3.44181e-08
1.31505e-08
8.08166e-09
-2.12368e-08
8.30245e-09
4.88381e-09
4.39719e-09
3.91844e-09
1.10581e-10
4.28381e-09
-4.67585e-09
4.78548e-09
-1.11977e-08
6.52112e-09
-1.88387e-08
7.64065e-09
-2.45131e-08
5.67409e-09
-2.72769e-08
2.7628e-09
1.81736e-09
-2.8939e-08
3.11025e-08
2.50363e-08
-4.80618e-08
1.8059e-08
1.79567e-08
9.07695e-09
1.29132e-08
3.34409e-09
1.00163e-08
-4.07798e-09
1.22061e-08
-1.68946e-08
1.93374e-08
-2.75954e-08
1.83411e-08
-3.24194e-08
1.04977e-08
-3.50656e-08
5.40866e-09
2.79402e-09
-3.60455e-08
5.25103e-08
3.8754e-08
-6.62444e-08
3.80511e-08
3.2332e-08
2.50333e-08
2.60048e-08
1.58313e-08
1.92186e-08
9.74202e-09
1.82961e-08
1.93573e-10
2.88172e-08
-1.47982e-08
3.32811e-08
-2.58367e-08
2.15359e-08
-2.87935e-08
8.36334e-09
2.04968e-09
-2.80347e-08
6.02321e-08
4.69355e-08
-6.84869e-08
4.65481e-08
4.59319e-08
3.17671e-08
4.08412e-08
1.74427e-08
3.35565e-08
1.03754e-08
2.53641e-08
1.22486e-08
2.69208e-08
7.8813e-09
3.75634e-08
-2.72639e-09
3.20333e-08
-1.39272e-08
1.94588e-08
6.4651e-09
-1.83364e-08
4.39652e-08
5.58132e-08
-5.28432e-08
3.49206e-08
5.47739e-08
2.66305e-08
4.91287e-08
1.96088e-08
4.05929e-08
1.39499e-08
3.10237e-08
1.54787e-08
2.54044e-08
2.26867e-08
3.02165e-08
2.57393e-08
2.89081e-08
2.11209e-08
2.40767e-08
1.35201e-08
1.40533e-08
1.73617e-08
5.90627e-08
-2.08984e-08
1.59921e-08
5.61407e-08
1.66381e-08
4.84812e-08
1.80948e-08
3.91376e-08
1.79072e-08
3.11939e-08
1.92246e-08
2.4069e-08
2.71536e-08
2.22676e-08
3.5599e-08
2.04539e-08
4.11426e-08
1.85327e-08
1.37703e-08
4.0892e-08
5.67098e-09
5.67888e-08
-3.40261e-09
7.30195e-09
5.45053e-08
1.04052e-08
4.55879e-08
1.53111e-08
3.43882e-08
1.8696e-08
2.77691e-08
1.99811e-08
2.27728e-08
2.41978e-08
1.80508e-08
3.00586e-08
1.4593e-08
3.41276e-08
1.43388e-08
1.09591e-08
3.69383e-08
-1.20514e-09
5.3384e-08
4.77471e-09
2.94566e-09
5.05644e-08
7.1312e-09
4.14332e-08
1.12191e-08
3.02987e-08
1.48582e-08
2.41232e-08
1.77933e-08
1.98786e-08
1.97993e-08
1.60446e-08
2.07958e-08
1.35964e-08
2.21452e-08
1.28308e-08
7.64782e-09
2.54531e-08
-6.18987e-09
4.70688e-08
1.25061e-08
-1.70144e-10
4.45446e-08
6.30976e-09
3.49532e-08
1.25256e-08
2.40855e-08
1.79417e-08
1.87693e-08
2.11801e-08
1.66479e-08
2.15476e-08
1.56769e-08
2.07244e-08
1.44194e-08
2.07084e-08
1.28467e-08
8.95731e-09
1.92987e-08
-4.79087e-09
4.10685e-08
1.05302e-08
2.34632e-09
3.72988e-08
1.19574e-08
2.53421e-08
2.0707e-08
1.53356e-08
2.72052e-08
1.22709e-08
3.01139e-08
1.37391e-08
2.61012e-08
1.96895e-08
2.06043e-08
1.98454e-08
1.92012e-08
1.42458e-08
8.96843e-09
1.92034e-08
8.29953e-09
2.86778e-08
4.02892e-09
2.14964e-08
2.40397e-08
3.15674e-08
1.52933e-08
3.61401e-08
1.07627e-08
3.71794e-08
1.12313e-08
3.45933e-08
1.6325e-08
2.66206e-08
2.72374e-08
2.13244e-08
2.51057e-08
2.10667e-08
1.45426e-08
8.34395e-09
2.1691e-08
7.83826e-09
1.43612e-08
6.60507e-09
2.46479e-08
7.41637e-09
3.4137e-08
5.80388e-09
3.56838e-08
9.21557e-09
3.09188e-08
1.59961e-08
2.27334e-08
2.41295e-08
1.87904e-08
3.11793e-08
1.80777e-08
2.59534e-08
1.65665e-08
1.6069e-08
1.22049e-08
1.27054e-08
3.78055e-09
-2.72813e-09
1.33036e-08
1.48606e-08
-3.72777e-09
2.03205e-08
2.60883e-10
2.09907e-08
8.38811e-09
1.92107e-08
1.76788e-08
2.03555e-08
2.29837e-08
2.40181e-08
2.75156e-08
2.40698e-08
2.61416e-08
2.06958e-08
1.94627e-08
1.97598e-08
1.31407e-08
5.29424e-09
-1.50265e-08
7.00379e-09
1.33099e-08
-1.17437e-08
1.73722e-08
-3.81594e-09
1.90719e-08
6.64448e-09
2.03382e-08
1.6405e-08
2.44676e-08
1.88532e-08
2.83494e-08
2.36327e-08
2.69832e-08
2.78384e-08
1.92238e-08
2.72375e-08
3.32928e-08
5.6222e-09
1.98715e-08
-2.0109e-08
-1.47892e-08
2.53903e-08
-1.72629e-08
2.81623e-08
-6.58169e-09
3.26332e-08
2.17556e-09
3.59095e-08
1.31309e-08
3.36737e-08
2.10358e-08
3.01942e-08
2.74809e-08
2.32923e-08
3.49536e-08
1.04753e-08
4.00532e-08
4.79199e-08
-4.20694e-09
2.40673e-08
-2.3489e-08
-2.06675e-08
2.41799e-08
-1.73737e-08
2.41975e-08
-6.58165e-09
2.68734e-08
-4.70158e-10
3.07899e-08
9.21422e-09
3.11423e-08
2.06834e-08
2.74353e-08
3.12557e-08
1.96136e-08
4.27742e-08
9.08304e-09
5.05825e-08
6.11334e-08
-4.12499e-09
1.11963e-08
-2.28889e-08
-1.17526e-08
1.2108e-08
-1.82679e-08
1.95381e-08
-1.40003e-08
2.58888e-08
-6.82452e-09
2.7495e-08
7.60791e-09
2.55251e-08
2.26531e-08
2.00768e-08
3.6707e-08
1.35897e-08
4.92605e-08
5.25165e-09
5.89194e-08
7.17062e-08
-5.28105e-09
9.12208e-10
-2.68694e-08
3.06624e-09
7.30922e-09
-2.46269e-08
1.59708e-08
-2.26409e-08
1.65296e-08
-7.37542e-09
1.14295e-08
1.27059e-08
6.61552e-09
2.7467e-08
1.75013e-09
4.1547e-08
-1.97002e-09
5.29801e-08
-7.43184e-09
6.43805e-08
7.79425e-08
-1.3628e-08
-1.75183e-08
-2.60547e-08
1.67015e-08
-1.81954e-08
-2.39371e-08
-2.4478e-08
-1.63385e-08
-3.18983e-08
3.29109e-11
-3.28717e-08
1.36673e-08
-3.15402e-08
2.59652e-08
-2.86025e-08
3.86094e-08
-2.59135e-08
5.02907e-08
-2.66242e-08
6.50906e-08
7.93737e-08
-2.81137e-08
-5.08227e-08
-2.08066e-08
4.55726e-08
-5.67746e-08
-1.80143e-08
-6.24976e-08
-1.08083e-08
-6.42613e-08
1.87779e-09
-6.07023e-08
1.00994e-08
-5.78283e-08
2.297e-08
-5.58824e-08
3.66634e-08
-5.2993e-08
4.74013e-08
-4.69797e-08
5.90954e-08
7.27357e-08
-4.03419e-08
-6.05936e-08
-8.56842e-09
4.83532e-08
-7.21921e-08
-6.64801e-09
-8.04552e-08
-2.56341e-09
-8.50287e-08
6.56004e-09
-8.71501e-08
1.22053e-08
-8.59332e-08
2.16399e-08
-8.35076e-08
3.42378e-08
-7.86369e-08
4.25344e-08
-6.93781e-08
5.04445e-08
6.16996e-08
-5.83421e-08
-6.7006e-08
5.2844e-09
5.3128e-08
-8.024e-08
6.37519e-09
-9.04926e-08
7.6709e-09
-9.57863e-08
1.18533e-08
-1.0022e-07
1.66404e-08
-1.00803e-07
2.22224e-08
-9.83006e-08
3.17355e-08
-9.43569e-08
3.85906e-08
-8.66082e-08
4.3704e-08
5.12889e-08
-7.61975e-08
-6.84573e-08
1.75532e-08
5.60973e-08
-7.70567e-08
1.48399e-08
-8.7449e-08
1.80627e-08
-9.45861e-08
1.899e-08
-9.82898e-08
2.03437e-08
-9.87474e-08
2.26799e-08
-9.49507e-08
2.79387e-08
-8.97137e-08
3.33535e-08
-8.33425e-08
3.73329e-08
4.2013e-08
-7.33628e-08
-3.79979e-08
4.70047e-08
8.08435e-09
-5.71855e-08
3.40269e-08
-7.13415e-08
3.22184e-08
-8.09991e-08
2.8623e-08
-8.30852e-08
2.24293e-08
-8.12988e-08
2.08933e-08
-7.5326e-08
2.19657e-08
-6.76548e-08
2.56821e-08
-5.90372e-08
2.87151e-08
3.11938e-08
-4.82181e-08
1.20874e-08
6.57083e-08
-3.16496e-08
-1.01923e-08
5.4843e-08
-2.88583e-08
4.99371e-08
-4.155e-08
4.13142e-08
-4.61693e-08
2.70482e-08
-4.44185e-08
1.91359e-08
-4.0042e-08
1.75889e-08
-3.38849e-08
1.95249e-08
-2.69155e-08
2.17455e-08
2.43062e-08
-2.0028e-08
3.38446e-08
6.84648e-08
-3.66176e-08
2.55823e-08
6.30855e-08
1.84185e-08
5.64119e-08
1.1007e-08
4.75596e-08
4.62195e-09
3.286e-08
2.42217e-09
2.13354e-08
2.58264e-09
1.74282e-08
4.43996e-09
1.76674e-08
7.23613e-09
1.89491e-08
2.306e-08
8.48205e-09
3.63926e-08
6.66866e-08
-3.46341e-08
3.6042e-08
6.34164e-08
3.94631e-08
5.29711e-08
4.62329e-08
4.07664e-08
4.60362e-08
3.30259e-08
4.36961e-08
2.4565e-08
4.00258e-08
2.10984e-08
3.61647e-08
2.15282e-08
3.21821e-08
2.29315e-08
2.7953e-08
2.7289e-08
2.98835e-08
5.95085e-08
-2.14105e-08
3.61109e-08
5.91527e-08
4.25014e-08
4.65571e-08
4.75825e-08
3.56607e-08
5.19445e-08
3.09295e-08
5.26363e-08
2.42274e-08
5.03764e-08
2.33585e-08
4.48952e-08
2.69776e-08
3.40645e-08
3.3762e-08
4.11622e-08
2.08551e-08
1.5199e-08
4.78327e-08
-3.36662e-09
2.56196e-08
4.91185e-08
3.27047e-08
4.08567e-08
3.61165e-08
3.35177e-08
3.90099e-08
2.83832e-08
3.73189e-08
2.59182e-08
3.58991e-08
2.47782e-08
3.26831e-08
3.00777e-08
2.5515e-08
4.07502e-08
5.06671e-08
1.59296e-08
-5.508e-08
5.24755e-08
5.04372e-08
-5.06091e-08
4.46485e-08
-3.92988e-08
2.95496e-08
-2.50296e-08
1.92494e-08
-1.08332e-08
1.41867e-08
5.97626e-10
1.44873e-08
1.53079e-08
1.00678e-08
2.70196e-08
1.83659e-08
3.68632e-08
3.07994e-08
4.84169e-08
3.89797e-08
-1.08858e-07
5.07081e-08
1.10625e-07
-8.74217e-08
2.32131e-08
-6.39099e-08
5.97654e-09
-4.11512e-08
-3.35212e-09
-2.2602e-08
-4.14678e-09
-7.85409e-09
-3.49082e-10
6.866e-09
-4.64026e-09
2.82864e-08
-2.99795e-09
4.56034e-08
1.33749e-08
2.99202e-08
6.12029e-08
-1.05257e-07
2.93753e-08
1.25733e-07
-8.93149e-08
1.15716e-09
-7.65998e-08
-1.08576e-08
-6.93599e-08
-1.19655e-08
-6.1742e-08
-8.88803e-09
-4.70597e-08
-1.59313e-08
-2.12071e-08
-3.1378e-08
6.27008e-09
-3.15024e-08
3.41338e-08
-1.58644e-08
-4.73822e-09
6.85328e-08
-8.33435e-08
3.99016e-09
1.08645e-07
-7.14937e-08
-1.07991e-08
-6.1676e-08
-2.06699e-08
-4.93385e-08
-2.42959e-08
-3.09627e-08
-2.7258e-08
-9.85353e-09
-3.70249e-08
3.95782e-09
-4.54359e-08
1.6179e-08
-4.45225e-08
3.9269e-08
-4.03591e-08
-3.19354e-08
6.54971e-08
7.5555e-09
-1.7105e-08
1.33813e-08
1.75054e-08
-2.03184e-08
2.25178e-08
-2.46784e-08
2.94384e-08
-3.08934e-08
4.09854e-08
-3.88048e-08
5.34667e-08
-4.95063e-08
6.29796e-08
-5.49491e-08
7.35235e-08
-5.50666e-08
8.71061e-08
-5.39418e-08
-4.80734e-08
1.03244e-07
9.52022e-08
-3.28774e-08
-8.3118e-08
1.08797e-07
-3.49257e-08
1.11676e-07
-2.8174e-08
1.08345e-07
-2.46173e-08
1.03006e-07
-3.13607e-08
1.00134e-07
-4.66337e-08
1.02709e-07
-5.75238e-08
1.08688e-07
-6.10464e-08
1.15937e-07
-6.11901e-08
-5.74531e-08
1.25316e-07
1.29325e-07
-4.69559e-08
-1.15246e-07
1.40775e-07
-4.6376e-08
1.41696e-07
-3.72259e-08
1.44196e-07
-2.50834e-08
1.44243e-07
-2.74272e-08
1.42145e-07
-3.97295e-08
1.4034e-07
-5.5227e-08
1.38518e-07
-5.92239e-08
1.36261e-07
-5.8933e-08
-5.72817e-08
1.36089e-07
1.35222e-07
-5.59589e-08
-1.26219e-07
1.44909e-07
-5.60626e-08
1.51783e-07
-4.79595e-08
1.5533e-07
-3.18211e-08
1.57726e-07
-2.98985e-08
1.52717e-07
-3.48056e-08
1.56486e-07
-5.17724e-08
1.53803e-07
-5.65365e-08
1.50442e-07
-5.55721e-08
-5.11821e-08
1.44347e-07
1.38126e-07
-6.47773e-08
-1.29308e-07
1.45512e-07
-6.34477e-08
1.46053e-07
-5.11792e-08
1.46375e-07
-3.5166e-08
1.47191e-07
-3.07962e-08
1.51057e-07
-3.87463e-08
1.57927e-07
-5.31983e-08
1.55924e-07
-5.45241e-08
1.50627e-07
-5.0271e-08
-3.82609e-08
1.37711e-07
1.0962e-07
-6.23353e-08
-1.10622e-07
1.03276e-07
-5.59643e-08
9.38312e-08
-4.20917e-08
8.92934e-08
-3.07064e-08
8.98473e-08
-3.14626e-08
1.02798e-07
-4.86205e-08
1.13855e-07
-6.4238e-08
1.21594e-07
-6.22485e-08
1.18451e-07
-4.69766e-08
-1.04304e-08
9.11326e-08
2.90955e-08
-5.29074e-08
-3.55255e-08
2.57039e-08
-5.26594e-08
2.86176e-08
-4.5083e-08
3.63962e-08
-3.85655e-08
4.22783e-08
-3.58862e-08
5.20705e-08
-5.79647e-08
5.05069e-08
-6.26532e-08
3.41796e-08
-4.57679e-08
9.98339e-09
-2.25659e-08
2.9478e-09
-3.43324e-09
-1.91959e-08
-5.78886e-08
2.08816e-08
-1.16692e-08
-6.21571e-08
4.91605e-09
-6.4049e-08
2.2849e-08
-5.69884e-08
4.01996e-08
-5.34662e-08
3.83008e-08
-5.59382e-08
2.58952e-08
-5.02248e-08
1.27869e-09
-2.16905e-08
-2.53158e-08
4.23749e-09
6.38001e-10
-2.39611e-08
-3.17617e-08
-6.28134e-08
3.66854e-08
-2.13457e-08
-7.2574e-08
-8.17686e-09
-7.72181e-08
5.77517e-09
-7.24751e-08
1.98084e-08
-6.89539e-08
2.75119e-08
-6.41956e-08
2.92595e-08
-5.20009e-08
1.84621e-08
-1.08232e-08
5.27757e-09
1.76219e-08
-2.19676e-09
8.26596e-09
-1.04275e-08
-6.25014e-08
1.01147e-08
-7.67995e-09
-7.53219e-08
-3.05712e-10
-8.45927e-08
1.38684e-08
-8.66495e-08
2.80863e-08
-8.3172e-08
3.94581e-08
-7.55674e-08
4.33394e-08
-5.75317e-08
4.71702e-08
-1.45848e-08
5.22586e-08
1.36544e-08
-8.56252e-09
5.9185e-08
5.53147e-08
-5.67426e-08
-6.10402e-08
5.44007e-08
-7.44086e-08
5.39861e-08
-8.41784e-08
5.37631e-08
-8.64266e-08
5.51789e-08
-8.45878e-08
5.33601e-08
-7.37488e-08
5.09305e-08
-5.68218e-08
6.77485e-08
-3.13368e-08
7.47031e-08
7.48107e-09
-5.18516e-09
7.15024e-08
7.80882e-08
-4.70912e-08
-8.64397e-08
8.18049e-08
-7.81255e-08
8.80021e-08
-9.03759e-08
8.94038e-08
-8.78284e-08
8.53223e-08
-8.05064e-08
7.18374e-08
-6.08336e-08
4.87051e-08
-3.3815e-08
3.26485e-08
-1.57811e-08
3.06573e-09
3.54192e-08
2.49363e-08
-2.6858e-08
6.99941e-08
-5.1946e-08
-6.34591e-08
8.90473e-08
-9.71778e-08
1.01316e-07
-1.02645e-07
1.03695e-07
-9.02068e-08
9.78208e-08
-7.46324e-08
8.40897e-08
-4.71024e-08
5.97133e-08
-9.93221e-09
3.20787e-08
1.13467e-08
-7.50801e-09
7.43197e-08
7.87817e-08
-6.51307e-08
4.38564e-08
-7.53558e-08
-2.02592e-08
7.57799e-08
-1.29091e-07
9.41209e-08
-1.20985e-07
9.53923e-08
-9.14776e-08
8.79462e-08
-6.7186e-08
7.25563e-08
-3.17123e-08
4.65657e-08
1.58174e-08
1.25245e-08
4.54303e-08
-1.25961e-08
9.8631e-08
1.30082e-07
-6.47073e-08
4.86546e-08
-8.94136e-08
-3.16437e-08
7.09329e-08
-1.5136e-07
7.36363e-08
-1.20855e-07
5.76874e-08
-7.29887e-08
5.09029e-08
-6.00628e-08
4.40327e-08
-2.48416e-08
3.49287e-08
2.45963e-08
1.69146e-08
6.315e-08
1.19939e-08
1.06398e-07
1.67462e-07
-2.62467e-08
7.08213e-08
-7.38022e-08
-7.31659e-08
5.67367e-08
-1.36587e-07
3.5968e-08
-9.84922e-08
1.67079e-08
-4.96619e-08
1.47842e-08
-5.76524e-08
1.29955e-08
-2.3051e-08
1.40911e-08
2.34291e-08
1.14762e-08
6.59231e-08
1.12771e-08
1.08352e-07
1.73121e-07
5.59993e-09
8.10511e-08
-6.43966e-08
-9.04584e-08
3.84092e-08
-8.69075e-08
1.2264e-08
-7.45977e-08
-8.20871e-10
-3.67901e-08
-1.30511e-08
-4.49681e-08
-1.57163e-08
-2.04065e-08
-1.5496e-08
2.32348e-08
-1.42882e-08
6.48335e-08
-1.51708e-08
1.09148e-07
1.70992e-07
-1.45963e-08
7.6789e-08
-5.44846e-08
-8.12459e-08
4.76481e-08
-5.62265e-08
3.16093e-08
-6.34458e-08
1.86561e-08
-2.40499e-08
-1.17771e-08
-1.30682e-08
-2.37833e-08
-8.18955e-09
-2.76246e-08
2.70795e-08
-3.44652e-08
7.16776e-08
-5.1681e-08
1.26147e-07
1.73737e-07
-5.74491e-08
8.72303e-08
-4.71569e-08
-9.09048e-08
7.42755e-08
-4.32716e-08
5.12722e-08
-4.04437e-08
4.3299e-08
-2.01503e-08
2.69518e-08
2.16423e-09
-9.46768e-10
1.99444e-08
-2.66089e-08
5.2745e-08
-4.9955e-08
9.50272e-08
-6.91795e-08
1.49749e-07
1.79461e-07
-7.4913e-08
8.41216e-08
-3.85462e-08
-9.20784e-08
7.92817e-08
-3.84345e-08
6.72721e-08
-2.84352e-08
5.17852e-08
-4.66466e-09
2.23646e-08
2.86469e-08
-1.23577e-08
5.37146e-08
-4.38362e-08
8.32923e-08
-7.31233e-08
1.2434e-07
-8.27328e-08
1.69127e-07
1.7877e-07
-8.20449e-08
8.46361e-08
-3.0646e-08
-9.25379e-08
7.14577e-08
-2.52593e-08
5.21757e-08
-9.20675e-09
2.67724e-08
2.07092e-08
-2.0764e-09
5.88034e-08
-3.49477e-08
9.21727e-08
-6.10273e-08
1.0688e-07
-8.544e-08
1.47203e-07
-9.28029e-08
1.80558e-07
1.89844e-07
-8.0898e-08
6.29078e-08
-2.66068e-08
-6.69495e-08
5.13124e-08
-1.36655e-08
3.24448e-08
9.50999e-09
1.11301e-08
4.19377e-08
-1.05178e-08
8.04736e-08
-3.22849e-08
1.14792e-07
-6.28901e-08
1.40109e-07
-8.38193e-08
1.67365e-07
-8.6239e-08
1.82644e-07
1.90995e-07
-7.83377e-08
2.64285e-08
-3.02913e-08
-2.27464e-08
2.42188e-08
-1.14698e-08
1.61024e-08
1.75232e-08
-4.35834e-10
5.84981e-08
-2.97856e-08
1.09845e-07
-6.06105e-08
1.45639e-07
-8.59039e-08
1.65567e-07
-9.13641e-08
1.73755e-07
-8.50771e-08
1.7566e-07
1.8276e-07
-7.68677e-08
5.36448e-10
-2.91486e-08
-1.68014e-09
-1.09874e-08
6.16792e-11
-2.95281e-08
3.60598e-08
-5.52191e-08
7.9533e-08
-9.62933e-08
1.2745e-07
-1.27659e-07
1.63415e-07
-1.27384e-07
1.65347e-07
-1.11362e-07
1.57742e-07
-9.56784e-08
1.5997e-07
1.75583e-07
-8.85307e-08
-6.181e-08
-1.1451e-08
4.57947e-08
-8.72061e-08
2.90256e-08
-1.16215e-07
6.35418e-08
-1.29403e-07
9.2787e-08
-1.26355e-07
1.24322e-07
-1.48137e-07
1.37635e-07
-1.54131e-07
1.5146e-07
-1.43906e-07
1.4751e-07
-1.21244e-07
1.37295e-07
1.91431e-07
-1.3711e-07
-1.2452e-07
1.82405e-08
1.09949e-07
-1.52349e-07
5.70764e-08
-1.67052e-07
7.83116e-08
-1.68639e-07
9.43534e-08
-1.60011e-07
1.15778e-07
-1.49369e-07
1.27136e-07
-1.50542e-07
1.21891e-07
-1.67105e-07
1.30053e-07
-1.88533e-07
1.58706e-07
1.89898e-07
-2.17134e-07
-1.61091e-07
4.2321e-08
1.37225e-07
-1.74804e-07
7.0857e-08
-1.79775e-07
8.32655e-08
-1.8037e-07
9.49336e-08
-1.72358e-07
1.07817e-07
-1.58587e-07
1.14488e-07
-1.71755e-07
1.42045e-07
-2.149e-07
1.47945e-07
-2.13992e-07
1.41278e-07
1.71734e-07
-1.95875e-07
-1.93045e-07
5.60032e-08
1.79626e-07
-1.92671e-07
7.07067e-08
-1.86406e-07
7.70685e-08
-1.86777e-07
9.52836e-08
-2.01743e-07
1.17602e-07
-2.37705e-07
1.47816e-07
-2.45133e-07
1.63536e-07
-1.9984e-07
1.40643e-07
-1.98156e-07
1.39756e-07
1.66295e-07
-1.92262e-07
-2.07076e-07
7.93661e-08
2.40773e-07
-2.0871e-07
7.2564e-08
-2.06557e-07
7.51323e-08
-2.4353e-07
1.20399e-07
-2.67981e-07
1.42096e-07
-2.6779e-07
1.47629e-07
-2.58192e-07
1.54079e-07
-2.34764e-07
1.59057e-07
-2.0097e-07
1.4876e-07
1.50324e-07
-1.84876e-07
-2.42709e-07
8.67183e-08
2.4983e-07
-2.36852e-07
9.76636e-08
-2.66574e-07
1.11534e-07
-2.8155e-07
1.27383e-07
-2.76919e-07
1.3746e-07
-2.73611e-07
1.44318e-07
-2.67562e-07
1.48033e-07
-2.56837e-07
1.49053e-07
-2.32095e-07
1.51319e-07
1.57501e-07
-1.95543e-07
-2.5638e-07
8.86791e-08
2.54444e-07
-2.60096e-07
1.01897e-07
-2.61386e-07
1.13563e-07
-2.54811e-07
1.20779e-07
-2.49173e-07
1.31806e-07
-2.49144e-07
1.44284e-07
-2.52974e-07
1.51859e-07
-2.55284e-07
1.51366e-07
-2.3993e-07
1.36034e-07
1.27767e-07
-2.07826e-07
-2.22866e-07
9.532e-08
2.16216e-07
-2.27626e-07
1.06633e-07
-2.24923e-07
1.10806e-07
-2.19632e-07
1.15451e-07
-2.154e-07
1.27546e-07
-2.05256e-07
1.3305e-07
-2.12064e-07
1.41387e-07
-2.31122e-07
1.34933e-07
-2.16696e-07
1.21739e-07
1.12451e-07
-2.01243e-07
-2.12493e-07
1.21103e-07
1.86682e-07
-2.22887e-07
1.16974e-07
-2.2451e-07
1.12322e-07
-2.16562e-07
1.0598e-07
-2.02163e-07
1.09378e-07
-1.74623e-07
1.04732e-07
-1.3636e-07
1.02464e-07
-1.09369e-07
1.03633e-07
-1.13707e-07
1.04997e-07
9.75241e-08
-1.23823e-07
-2.60095e-07
1.56364e-07
2.24217e-07
-2.6378e-07
1.20567e-07
-2.58974e-07
1.14312e-07
-2.28745e-07
9.7887e-08
-1.95115e-07
7.49701e-08
-1.41325e-07
5.01643e-08
-8.77133e-08
4.80753e-08
-3.13068e-08
5.87053e-08
1.83905e-09
6.80919e-08
7.65057e-08
1.9167e-08
-2.76632e-07
1.65324e-07
2.67058e-07
-2.70026e-07
1.1363e-07
-2.46647e-07
1.06469e-07
-2.24865e-07
1.01347e-07
-2.195e-07
6.87879e-08
-1.74312e-07
6.36812e-09
-1.24349e-07
-8.18505e-09
-5.68618e-08
-1.07972e-08
3.49471e-09
1.74449e-08
4.38653e-08
4.13896e-08
-2.2088e-07
1.37929e-07
2.13599e-07
-2.05932e-07
9.86394e-08
-1.74624e-07
9.3163e-08
-1.54634e-07
8.05288e-08
-1.19586e-07
3.29086e-08
-1.04477e-07
-1.08123e-08
-1.14572e-07
-4.74412e-09
-8.24489e-08
-4.38245e-08
-2.21107e-08
-4.37147e-08
-1.2644e-08
3.36386e-08
-1.46091e-07
1.02033e-07
1.68251e-07
-1.40321e-07
6.982e-08
-1.12986e-07
5.37159e-08
-7.11314e-08
3.58433e-08
-4.02977e-08
-4.24775e-09
-2.37462e-08
-3.17812e-08
-7.21112e-09
-2.20629e-08
4.48733e-09
-5.9771e-08
1.66439e-08
-6.53726e-08
-5.46047e-08
5.77833e-08
-1.18038e-07
7.95306e-08
1.40552e-07
-9.51752e-08
4.65657e-08
-5.99554e-08
1.03039e-08
-6.34517e-09
-2.49762e-08
3.28778e-08
-4.41953e-08
5.59505e-08
-5.48532e-08
8.54488e-08
-5.15606e-08
7.94001e-08
-5.37218e-08
6.66514e-08
-5.26233e-08
-4.83325e-08
5.59659e-08
-4.84189e-08
5.76009e-08
7.03528e-08
-2.65708e-08
2.47168e-08
6.01276e-09
-2.53491e-08
3.73196e-08
-5.63409e-08
5.84625e-08
-6.53355e-08
6.92642e-08
-6.56529e-08
7.61444e-08
-5.84401e-08
7.50241e-08
-5.26008e-08
7.24229e-08
-5.00216e-08
-5.55765e-08
7.9673e-08
1.93418e-08
3.67672e-08
1.49961e-09
5.13155e-08
3.26047e-10
8.19317e-08
-5.24615e-08
9.68382e-08
-7.12663e-08
1.06919e-07
-7.54168e-08
1.10804e-07
-6.95351e-08
1.07855e-07
-5.54888e-08
1.01917e-07
-4.66603e-08
9.62054e-08
-4.35743e-08
-6.25824e-08
1.04655e-07
8.22684e-08
1.80249e-08
-6.35203e-08
1.27065e-07
-1.92253e-08
1.27097e-07
-5.25602e-08
1.25327e-07
-6.95492e-08
1.26609e-07
-7.9224e-08
1.263e-07
-6.89412e-08
1.41003e-07
-6.7279e-08
1.54978e-07
-6.05642e-08
1.69719e-07
-5.8417e-08
-7.60746e-08
1.92635e-07
1.08045e-07
6.47451e-09
-8.8607e-08
1.10584e-07
-2.18106e-08
1.13461e-07
-5.62103e-08
1.14122e-07
-7.18275e-08
1.09869e-07
-8.27453e-08
1.24437e-07
-8.55837e-08
1.62724e-07
-1.07775e-07
2.07216e-07
-1.07647e-07
2.48172e-07
-1.02007e-07
-9.55047e-08
2.68265e-07
3.41801e-08
1.10111e-08
-4.27008e-08
5.2558e-08
-4.17139e-08
8.89815e-08
-9.61126e-08
1.14483e-07
-9.45631e-08
1.33131e-07
-7.49616e-08
1.61783e-07
-9.56883e-08
1.82139e-07
-1.2317e-07
2.14903e-07
-1.3545e-07
2.43756e-07
-1.26015e-07
-9.75225e-08
2.45675e-07
3.36037e-08
-2.47104e-08
4.69417e-09
8.10446e-08
-8.52593e-08
9.83276e-08
-1.10343e-07
1.19169e-07
-9.63959e-08
1.34176e-07
-9.17091e-08
1.79011e-07
-1.02787e-07
2.11687e-07
-1.29033e-07
2.09016e-07
-1.35325e-07
2.22758e-07
-1.33063e-07
-1.23134e-07
2.43986e-07
-6.25664e-09
-7.58785e-08
7.31309e-08
2.2542e-08
-1.19325e-07
4.49594e-08
-1.37012e-07
7.96681e-08
-1.33887e-07
1.25433e-07
-1.39215e-07
1.61699e-07
-1.41837e-07
2.06296e-07
-1.77786e-07
2.5881e-07
-1.92886e-07
3.19625e-07
-1.99977e-07
-2.00283e-07
3.9121e-07
-1.04949e-07
-1.29231e-07
1.2569e-07
-7.10517e-08
-1.78891e-07
-2.24109e-08
-2.17239e-07
3.44036e-08
-2.30538e-07
1.06653e-07
-2.52216e-07
1.90355e-07
-2.58643e-07
2.60021e-07
-2.73044e-07
3.10541e-07
-2.65807e-07
3.5816e-07
-2.59977e-07
-2.42756e-07
4.05062e-07
-1.44724e-07
-1.79908e-07
1.95401e-07
-1.08443e-07
-2.15172e-07
-6.90601e-08
-2.56621e-07
-2.10341e-08
-2.78564e-07
2.90218e-08
-3.02272e-07
8.62968e-08
-3.15917e-07
1.28799e-07
-3.15543e-07
1.74626e-07
-3.11631e-07
2.21556e-07
-3.06902e-07
-2.60552e-07
2.46047e-07
-2.26662e-07
-2.01283e-07
2.48037e-07
-2.02026e-07
-2.39806e-07
-1.78708e-07
-2.79939e-07
-1.53239e-07
-3.04032e-07
-1.25486e-07
-3.30023e-07
-9.09348e-08
-3.50466e-07
-4.34305e-08
-3.63045e-07
4.49345e-09
-3.5948e-07
2.77264e-08
-3.22744e-07
-1.77766e-07
6.59404e-09
-2.60715e-07
-2.15349e-07
2.74794e-07
-2.44134e-07
-2.56387e-07
-2.17523e-07
-3.06551e-07
-1.89626e-07
-3.31931e-07
-1.64479e-07
-3.55111e-07
-1.42892e-07
-3.72034e-07
-1.17039e-07
-3.89118e-07
-8.50094e-08
-3.91631e-07
-5.34153e-08
-3.42216e-07
-1.51809e-07
-4.99029e-08
-2.41763e-07
-1.92411e-07
2.35135e-07
-2.29535e-07
-2.64372e-07
-2.06385e-07
-3.29683e-07
-1.81128e-07
-3.57181e-07
-1.66166e-07
-3.67186e-07
-1.59956e-07
-3.69798e-07
-1.51821e-07
-3.969e-07
-1.39471e-07
-4.0378e-07
-1.08928e-07
-3.77189e-07
-2.50958e-07
-5.23521e-08
-1.22961e-07
-1.70492e-07
1.01027e-07
-1.30951e-07
-2.30468e-07
-1.34981e-07
-3.16242e-07
-1.26008e-07
-3.65772e-07
-1.18415e-07
-3.71769e-07
-1.28353e-07
-3.59783e-07
-1.34525e-07
-3.82528e-07
-1.32764e-07
-4.0537e-07
-1.13854e-07
-3.96054e-07
-3.34e-07
-5.07766e-08
2.32892e-08
-1.47554e-07
-4.62384e-08
1.01593e-09
-2.08211e-07
-8.615e-09
-2.92428e-07
-9.84458e-09
-3.61653e-07
-9.38627e-09
-3.70432e-07
-1.80175e-08
-3.51122e-07
-4.06062e-08
-3.59981e-07
-6.21335e-08
-3.80845e-07
-6.78843e-08
-3.90263e-07
-3.64618e-07
-3.72377e-08
1.21111e-07
-1.29961e-07
-1.38735e-07
9.74812e-08
-1.84547e-07
8.76371e-08
-2.74978e-07
7.21765e-08
-3.43638e-07
5.5846e-08
-3.56302e-07
4.96338e-08
-3.44952e-07
4.00421e-08
-3.50431e-07
2.49846e-08
-3.61739e-07
6.74241e-09
-3.71826e-07
-3.57311e-07
-5.40323e-10
1.65828e-07
-1.15995e-07
-1.79853e-07
1.44968e-07
-1.63637e-07
1.43423e-07
-2.70451e-07
1.24395e-07
-3.2233e-07
1.02408e-07
-3.325e-07
9.83296e-08
-3.40931e-07
1.05427e-07
-3.57571e-07
1.09874e-07
-3.64279e-07
1.00058e-07
-3.614e-07
-3.3042e-07
7.31956e-08
2.00624e-07
-1.00941e-07
-2.15786e-07
1.87005e-07
-1.48904e-07
1.80518e-07
-2.55541e-07
1.67534e-07
-3.0736e-07
1.58994e-07
-3.24137e-07
1.6785e-07
-3.49847e-07
1.79447e-07
-3.69225e-07
1.84845e-07
-3.7246e-07
1.79226e-07
-3.55219e-07
-2.94233e-07
1.43139e-07
2.17379e-07
-8.96377e-08
-2.36078e-07
2.18385e-07
-1.37918e-07
1.98833e-07
-2.30138e-07
1.93478e-07
-3.00019e-07
2.00352e-07
-3.36971e-07
2.21643e-07
-3.78233e-07
2.31873e-07
-3.84392e-07
2.32078e-07
-3.73237e-07
2.12914e-07
-3.31451e-07
-2.00697e-07
1.59279e-07
1.93843e-07
-8.74421e-08
-2.22049e-07
1.85893e-07
-1.18286e-07
2.01562e-07
-2.08353e-07
2.10343e-07
-3.05529e-07
2.23503e-07
-3.54931e-07
2.35709e-07
-3.90996e-07
2.41258e-07
-3.91402e-07
2.23295e-07
-3.51307e-07
1.72755e-07
-2.46725e-07
-1.36998e-07
1.05166e-07
1.93757e-07
-5.83764e-08
-2.3862e-07
1.73296e-07
-1.03389e-07
1.90527e-07
-2.03172e-07
2.03454e-07
-3.16533e-07
2.10151e-07
-3.61623e-07
2.09628e-07
-3.90481e-07
1.84134e-07
-3.6486e-07
1.1687e-07
-2.48199e-07
2.14748e-08
-1.53637e-07
-6.4718e-08
-5.40824e-08
1.57346e-07
-2.40314e-08
-2.00454e-07
1.51467e-07
-1.0523e-07
1.72802e-07
-2.22123e-07
1.53375e-07
-2.98457e-07
1.18052e-07
-3.26301e-07
7.07993e-08
-3.43233e-07
1.14417e-08
-2.89378e-07
-6.80438e-08
-1.71019e-07
-1.43033e-07
-8.05973e-08
-3.33651e-08
-1.80892e-07
9.07825e-08
-1.97977e-08
-1.01045e-07
1.05609e-07
-1.04284e-07
1.05101e-07
-2.26214e-07
7.55274e-08
-2.68885e-07
3.28492e-08
-2.83622e-07
-1.66858e-08
-2.937e-07
-5.49698e-08
-2.53256e-07
-1.18186e-07
-1.09754e-07
-1.71278e-07
-4.53975e-08
-2.47877e-08
-2.03393e-07
2.73652e-08
-2.7987e-08
-1.56474e-08
5.40311e-08
-1.34879e-07
6.34907e-08
-2.36252e-07
4.75546e-08
-2.52949e-07
2.55258e-08
-2.61595e-07
-4.07323e-09
-2.64101e-07
-2.09568e-08
-2.46741e-07
-4.32637e-08
-9.00011e-08
-6.22972e-08
-3.23119e-08
-2.15529e-08
-6.55742e-08
4.59689e-09
-2.34584e-08
-9.14687e-09
2.93215e-08
-1.61777e-07
3.62234e-08
-2.43228e-07
3.23631e-08
-2.49089e-07
2.41592e-08
-2.53392e-07
1.43722e-08
-2.54313e-07
1.50934e-08
-2.47462e-07
5.42755e-08
-1.56315e-07
4.20933e-08
-1.67297e-08
8.08078e-09
1.23817e-08
6.19547e-09
-8.0672e-09
-2.15015e-08
2.24601e-08
-1.78042e-07
2.66856e-08
-2.47452e-07
2.67409e-08
-2.49143e-07
2.72045e-08
-2.53855e-07
2.64471e-08
-2.53554e-07
3.30517e-08
-2.54066e-07
8.98453e-08
-2.13108e-07
7.98605e-08
-1.09746e-08
5.95505e-08
3.27382e-08
1.75985e-08
3.25709e-08
-5.81052e-08
2.56257e-08
-1.85891e-07
2.06374e-08
-2.42464e-07
1.00493e-08
-2.38555e-07
6.06211e-09
-2.49866e-07
1.46722e-08
-2.62162e-07
2.12715e-08
-2.60666e-07
4.04882e-08
-2.31752e-07
2.75513e-08
4.49906e-09
1.43183e-07
-6.38205e-08
8.40245e-09
-4.84893e-09
2.40007e-08
6.19232e-09
-1.82902e-07
-1.42622e-08
-2.22009e-07
-1.48653e-08
-2.37955e-07
-2.39706e-08
-2.40761e-07
-3.07615e-08
-2.55371e-07
-3.07404e-08
-2.60687e-07
-2.18497e-08
-2.45356e-07
3.34298e-08
-6.55429e-08
1.13513e-07
1.35626e-08
-1.03961e-07
-1.2966e-07
2.05885e-07
-6.29082e-08
-2.23954e-07
-5.79607e-08
-2.26951e-07
-5.13932e-08
-2.4452e-07
-5.20033e-08
-2.4015e-07
-5.78496e-08
-2.49524e-07
-6.30463e-08
-2.55488e-07
-6.36838e-08
-2.44712e-07
2.22212e-08
-1.48286e-07
8.06905e-08
1.52384e-08
-1.20299e-07