/*--------------------------------*- C++ -*----------------------------------*\
  =========                 |
  \\      /  F ield         | OpenFOAM: The Open Source CFD Toolbox
   \\    /   O peration     | Website:  https://openfoam.org
    \\  /    A nd           | Version:  8
     \\/     M anipulation  |
\*---------------------------------------------------------------------------*/
FoamFile
{
    version     2.0;
    format      ascii;
    class       volVectorField;
    location    "9.9";
    object      U;
}
// * * * * * * * * * * * * * * * * * * * * * * * * * * * * * * * * * * * * * //

dimensions      [0 1 -1 0 0 0 0];

internalField   nonuniform List<vector> 
9150
(
(0.00489841 -0.0783851 0)
(0.0130657 -0.0975264 0)
(0.0108048 -0.10457 0)
(0.00856393 -0.107984 0)
(0.00193284 -0.10954 0)
(-0.00281026 -0.109271 0)
(-0.00905491 -0.107728 0)
(-0.010998 -0.104397 0)
(-0.0131819 -0.0972676 0)
(-0.00494513 -0.0781291 0)
(0.00589792 -0.0920735 0)
(0.00851091 -0.100591 0)
(0.00732735 -0.102346 0)
(0.00430055 -0.104423 0)
(0.00209336 -0.105518 0)
(-0.00209866 -0.105521 0)
(-0.00436633 -0.104615 0)
(-0.00745882 -0.102315 0)
(-0.0086413 -0.10044 0)
(-0.0059283 -0.0919119 0)
(0.00173556 -0.0955036 0)
(0.00452359 -0.0990367 0)
(0.00364239 -0.101133 0)
(0.0031462 -0.10181 0)
(0.000752211 -0.10245 0)
(-0.000867049 -0.10244 0)
(-0.00340979 -0.101673 0)
(-0.00375983 -0.101105 0)
(-0.00461595 -0.0989253 0)
(-0.0017528 -0.095398 0)
(0.00172795 -0.0984332 0)
(0.00241903 -0.10042 0)
(0.00215937 -0.100182 0)
(0.00121789 -0.100833 0)
(0.000513008 -0.100863 0)
(-0.000794209 -0.100862 0)
(-0.00130861 -0.100893 0)
(-0.00225695 -0.100173 0)
(-0.00249542 -0.100374 0)
(-0.00175641 -0.0983857 0)
(0.000181411 -0.0994882 0)
(0.000710101 -0.0995922 0)
(0.000425897 -0.100062 0)
(0.000637835 -0.0998825 0)
(0.000147113 -0.100098 0)
(-0.00012877 -0.100131 0)
(-0.000669319 -0.099884 0)
(-0.000500605 -0.100008 0)
(-0.000737789 -0.0995733 0)
(-0.000192812 -0.0994842 0)
(0.0760341 -0.196998 2.07162e-26)
(0.0492341 -0.186535 0)
(0.0291661 -0.177886 0)
(0.0141147 -0.175568 0)
(0.002659 -0.176652 0)
(-0.00714569 -0.175209 0)
(-0.0178478 -0.173629 0)
(-0.0319607 -0.175108 0)
(-0.0504738 -0.182802 0)
(-0.075284 -0.192392 -1.33035e-26)
(0.0585315 -0.147285 6.10806e-27)
(0.0482121 -0.147356 0)
(0.0281446 -0.157256 0)
(0.019995 -0.157382 0)
(0.00372284 -0.155018 0)
(-0.00575629 -0.15593 0)
(-0.0218729 -0.156904 0)
(-0.0291251 -0.155791 0)
(-0.0487944 -0.145639 0)
(-0.0581902 -0.145487 -3.56801e-27)
(0.0476049 -0.121864 2.79512e-27)
(0.0427885 -0.131729 0)
(0.029203 -0.134002 0)
(0.0170659 -0.137387 0)
(0.00619633 -0.140803 0)
(-0.00620017 -0.139458 0)
(-0.0174862 -0.136748 0)
(-0.0296498 -0.133168 0)
(-0.0428032 -0.130748 0)
(-0.0473535 -0.120883 -1.52013e-27)
(0.0372139 -0.0996988 3.94799e-27)
(0.0391114 -0.110454 0)
(0.0224456 -0.120937 0)
(0.0172224 -0.12595 0)
(0.00389586 -0.12522 0)
(-0.00487866 -0.125303 0)
(-0.0176126 -0.1251 0)
(-0.0226777 -0.120168 0)
(-0.0391894 -0.109847 0)
(-0.0370733 -0.09912 -4.57516e-27)
(0.0246114 -0.0817677 -1.24535e-26)
(0.0279801 -0.101394 -1.41322e-26)
(0.0197929 -0.108505 -3.17561e-27)
(0.0106795 -0.114113 -2.79079e-27)
(0.00416927 -0.117127 2.31034e-30)
(-0.00470351 -0.117007 -2.66207e-28)
(-0.0112241 -0.11381 -3.5976e-27)
(-0.0201299 -0.108222 -3.52634e-27)
(-0.028002 -0.101058 -1.45401e-26)
(-0.0245811 -0.0813993 -1.25677e-26)
(0.0298345 -0.170755 0)
(-0.0126847 -0.252744 0)
(-0.00827391 -0.233971 0)
(-0.0244489 -0.232701 0)
(-0.0220362 -0.225177 0)
(-0.0348552 -0.219608 0)
(-0.0402852 -0.21449 0)
(-0.0611561 -0.214779 0)
(-0.0632593 -0.208724 0)
(-0.0718285 -0.0880802 0)
(0.010707 -0.190557 0)
(-0.00644682 -0.222156 0)
(-0.00098496 -0.222756 0)
(-0.0158633 -0.221137 0)
(-0.0151523 -0.218123 0)
(-0.0251617 -0.213104 0)
(-0.022676 -0.206687 0)
(-0.0323852 -0.199078 0)
(-0.0233936 -0.17914 0)
(-0.0257091 -0.122936 0)
(0.0103269 -0.187687 0)
(-0.0103824 -0.215518 0)
(0.00246877 -0.218652 0)
(-0.0136647 -0.214906 0)
(-0.00828166 -0.213415 0)
(-0.0132953 -0.210048 0)
(-0.0115515 -0.205833 0)
(-0.0200821 -0.2012 0)
(-0.00371679 -0.193085 0)
(-0.0196831 -0.165843 0)
(0.0166121 -0.19809 0)
(-0.0102992 -0.211964 0)
(0.00485918 -0.216791 0)
(-0.00707493 -0.209841 0)
(-0.00563943 -0.208526 0)
(-0.00756032 -0.205219 0)
(-0.00754577 -0.20432 0)
(-0.0155846 -0.204109 0)
(0.0036752 -0.196145 0)
(-0.019493 -0.184725 0)
(0.0343849 -0.22141 0)
(0.00913564 -0.206288 0)
(0.0139634 -0.204921 0)
(0.00812251 -0.197494 0)
(-0.00143362 -0.193269 0)
(-0.00508853 -0.19305 0)
(-0.0150558 -0.195344 0)
(-0.0184598 -0.200294 0)
(-0.0111947 -0.201895 0)
(-0.0344098 -0.211985 0)
(0.0081074 -8.81881e-05 0)
(0.00511449 -3.43073e-05 0)
(0.00320914 0.00132946 0)
(0.00113122 0.00131272 0)
(-0.00100411 0.00129303 0)
(-0.00354463 0.00196113 0)
(-0.00765804 0.00372923 0)
(-0.011527 0.00332615 0)
(-0.0131471 0.0012841 0)
(-0.0142166 0.000989957 0)
(0.0192651 0.0168741 0)
(0.0116755 0.0100522 0)
(0.00626747 0.00688518 0)
(0.00287909 0.00723806 0)
(0.000677124 0.00865407 0)
(-0.00485032 0.0115567 0)
(-0.012439 0.0119348 0)
(-0.0155187 0.00832615 0)
(-0.0168798 0.00445293 0)
(-0.0181991 0.00276494 0)
(0.0299169 0.0333486 0)
(0.0231852 0.0264139 0)
(0.0152144 0.0185343 0)
(0.00942097 0.0130704 0)
(0.00608555 0.0153785 0)
(0.00416667 0.0273078 0)
(-0.0040451 0.025587 0)
(-0.0114646 0.0122868 0)
(-0.0138866 0.00618166 0)
(-0.0144833 0.00309995 0)
(0.0330596 0.042868 0)
(0.026954 0.0389729 0)
(0.0198178 0.0339755 0)
(0.0115892 0.0257051 0)
(0.00542525 0.0208881 0)
(0.00542098 0.0286299 0)
(0.00657404 0.0390354 0)
(0.00120659 0.0297717 0)
(-0.00430523 0.0103315 0)
(-0.00910662 0.000656325 0)
(0.0248483 0.050595 0)
(0.0192516 0.0516465 0)
(0.0153153 0.0469561 0)
(0.0116575 0.0399236 0)
(0.00752957 0.0292391 0)
(0.00654238 0.0263183 0)
(0.00948552 0.0360514 0)
(0.0127873 0.0335619 0)
(0.0126223 0.0274925 0)
(0.00914211 0.0121766 0)
(0.0094816 0.059656 0)
(0.00821272 0.0577329 0)
(0.00785404 0.0505972 0)
(0.00851003 0.0411799 0)
(0.00913522 0.0323863 0)
(0.00884572 0.0248923 0)
(0.0108814 0.0258051 0)
(0.0158289 0.0258653 0)
(0.019473 0.0224936 0)
(0.0214959 0.0157197 0)
(0.00231181 0.0595867 0)
(0.00304647 0.0564077 0)
(0.00405844 0.0480095 0)
(0.00636087 0.0379927 0)
(0.00872035 0.0306435 0)
(0.00952505 0.023961 0)
(0.010754 0.019543 0)
(0.0132921 0.0160502 0)
(0.0166321 0.015754 0)
(0.0181157 0.0129954 0)
(-0.00140559 0.0560069 0)
(0.000202026 0.0535121 0)
(0.00243755 0.0440221 0)
(0.00446435 0.0319933 0)
(0.00649562 0.0257373 0)
(0.00826948 0.0213989 0)
(0.00952838 0.0163607 0)
(0.0100048 0.0132322 0)
(0.0110197 0.0127405 0)
(0.0114407 0.00841377 0)
(-0.00477763 0.0499623 0)
(-0.00150328 0.0473825 0)
(0.00125449 0.0384507 0)
(0.00471921 0.0279965 0)
(0.00775214 0.0223464 0)
(0.00990959 0.0185468 0)
(0.0111249 0.0153263 0)
(0.010529 0.013326 0)
(0.0103378 0.0123182 0)
(0.0100785 0.00765194 0)
(-0.00384882 0.0452098 0)
(-0.00106304 0.0415156 0)
(0.00314143 0.0303319 0)
(0.00845964 0.0192429 0)
(0.0123442 0.0144573 0)
(0.0150114 0.0147813 0)
(0.0145983 0.0166057 0)
(0.0115322 0.0160602 0)
(0.00951554 0.0132919 0)
(0.0094542 0.00951034 0)
(0.00139101 0.0370406 0)
(0.00690771 0.0343412 0)
(0.0138047 0.0217283 0)
(0.0176822 0.0123372 0)
(0.0185473 0.0106184 0)
(0.0185319 0.0129223 0)
(0.015655 0.0228443 0)
(0.0115332 0.0235238 0)
(0.0102618 0.0151788 0)
(0.0104014 0.00841528 0)
(-0.000103999 0.0223496 0)
(0.00785872 0.0148579 0)
(0.0159014 0.00943943 0)
(0.0181149 0.00952774 0)
(0.0174915 0.0125754 0)
(0.0136987 0.0205283 0)
(0.00978246 0.0310196 0)
(0.00898389 0.0263702 0)
(0.00905921 0.0147203 0)
(0.00774796 0.00898107 0)
(-0.00143351 0.00704434 0)
(0.00522226 0.00039704 0)
(0.0091754 0.00165094 0)
(0.0111428 0.00852952 0)
(0.0102249 0.0183631 0)
(0.00964349 0.0265143 0)
(0.0113413 0.0315507 0)
(0.0122307 0.0270486 0)
(0.011688 0.0171393 0)
(0.00905345 0.0149136 0)
(-0.000369895 -0.0127698 0)
(0.00533468 -0.00776681 0)
(0.00789035 -0.0010293 0)
(0.00920703 0.00897933 0)
(0.00991546 0.0182677 0)
(0.0107434 0.0208361 0)
(0.0136697 0.0249426 0)
(0.0145455 0.0262868 0)
(0.012359 0.0225033 0)
(0.00691152 0.0254811 0)
(0.00894854 -0.0182884 0)
(0.0110096 -0.0164672 0)
(0.0136236 -0.00698814 0)
(0.0148911 0.00376868 0)
(0.0172423 0.0140572 0)
(0.0181173 0.0185154 0)
(0.0160334 0.0240184 0)
(0.014382 0.0292697 0)
(0.00904963 0.0322565 0)
(0.00171884 0.0405248 0)
(0.0115232 -0.0223451 0)
(0.0120361 -0.0187683 0)
(0.0122733 -0.00679743 0)
(0.0118492 0.000209149 0)
(0.014679 0.0115312 0)
(0.0156929 0.022117 0)
(0.0152382 0.0298445 0)
(0.0125409 0.0397577 0)
(0.00755857 0.0460482 0)
(0.00130553 0.0542275 0)
(0.00569449 -0.0236809 0)
(0.00538247 -0.0151979 0)
(0.00721689 -0.00648086 0)
(0.0117259 -0.000850448 0)
(0.0136736 0.00770777 0)
(0.0136641 0.0199348 0)
(0.011537 0.0318359 0)
(0.00895934 0.0444054 0)
(0.00516719 0.0537994 0)
(0.000124711 0.0665544 0)
(-0.000874009 -0.0240164 0)
(0.0018401 -0.0230417 0)
(0.00579257 -0.0230865 0)
(0.00942178 -0.0139709 0)
(0.00694461 0.00645741 0)
(0.0050008 0.0236392 0)
(0.00191999 0.0396161 0)
(4.69913e-05 0.0522204 0)
(-0.00204559 0.0617751 0)
(-0.00542411 0.0748325 0)
(-0.00897331 -0.0291449 0)
(-0.00783135 -0.0260687 0)
(-0.0109514 -0.0205909 0)
(-0.0149166 -0.000500421 0)
(-0.0158189 0.0178602 0)
(-0.0162575 0.0301879 0)
(-0.0145938 0.0422187 0)
(-0.0133839 0.0531901 0)
(-0.012618 0.0673521 0)
(-0.0138272 0.081971 0)
(-0.0241855 -0.0240333 0)
(-0.0265387 -0.0215337 0)
(-0.0318112 -0.0132203 0)
(-0.0318641 0.000613996 0)
(-0.0313707 0.0110859 0)
(-0.0293969 0.0236711 0)
(-0.028373 0.0369697 0)
(-0.0274836 0.0493734 0)
(-0.0249063 0.0642304 0)
(-0.0213858 0.079415 0)
(-0.0276785 -0.0165289 0)
(-0.0332681 -0.0135248 0)
(-0.0399864 -0.00705968 0)
(-0.0414917 0.0035609 0)
(-0.0436187 0.0100341 0)
(-0.0441226 0.0234322 0)
(-0.0419881 0.0379047 0)
(-0.040707 0.0471465 0)
(-0.0372443 0.0570138 0)
(-0.0315731 0.0698765 0)
(-0.0302311 0.000113121 0)
(-0.0370772 0.000604391 0)
(-0.0438589 0.0015717 0)
(-0.0469071 0.00911164 0)
(-0.0495475 0.014897 0)
(-0.0507068 0.0213331 0)
(-0.0495872 0.0323154 0)
(-0.048169 0.039956 0)
(-0.0458083 0.0465072 0)
(-0.0407622 0.0567701 0)
(-0.0313099 0.00917531 0)
(-0.0362828 0.0112966 0)
(-0.0422606 0.0142059 0)
(-0.0462433 0.015279 0)
(-0.0483048 0.0189994 0)
(-0.0496891 0.0233913 0)
(-0.0483167 0.0310851 0)
(-0.0461428 0.0369454 0)
(-0.0434269 0.0406641 0)
(-0.039082 0.0465872 0)
(-0.0146434 0.0275873 0)
(-0.0240244 0.0189615 0)
(-0.033824 0.0213777 0)
(-0.0391538 0.0221615 0)
(-0.0411181 0.0216663 0)
(-0.0415641 0.0218895 0)
(-0.0391471 0.0244179 0)
(-0.0356787 0.0289988 0)
(-0.0319957 0.0328842 0)
(-0.0269709 0.0362551 0)
(0.0121257 0.0636612 0)
(0.00070063 0.0471609 0)
(-0.0109328 0.0412152 0)
(-0.0197273 0.0329392 0)
(-0.0222544 0.0214044 0)
(-0.0228937 0.0182113 0)
(-0.0210239 0.0180106 0)
(-0.0187054 0.0211649 0)
(-0.0154811 0.0237915 0)
(-0.0112693 0.0259233 0)
(0.0193321 0.0724342 0)
(0.0155115 0.0645753 0)
(0.0109514 0.0578316 0)
(0.0063345 0.0489556 0)
(0.00405169 0.0320797 0)
(0.000930768 0.0194692 0)
(0.00121784 0.0167353 0)
(0.00140527 0.0175811 0)
(0.00259234 0.0189873 0)
(0.00482431 0.0220709 0)
(0.0187913 0.0702679 0)
(0.0186427 0.0669839 0)
(0.0188804 0.0592242 0)
(0.0219224 0.0483889 0)
(0.0245639 0.0362394 0)
(0.0230731 0.0247054 0)
(0.0211135 0.0191177 0)
(0.0190911 0.0183287 0)
(0.0173834 0.0192617 0)
(0.0152896 0.0239597 0)
(0.0139514 0.0684078 0)
(0.0173753 0.0653134 0)
(0.0203035 0.0523022 0)
(0.0234083 0.0374068 0)
(0.0259013 0.0313287 0)
(0.0266183 0.023446 0)
(0.0255152 0.0217532 0)
(0.0246577 0.0237683 0)
(0.0211944 0.0267013 0)
(0.0135538 0.0326402 0)
(0.00478984 0.0496704 0)
(0.011359 0.0524999 0)
(0.0149025 0.0448584 0)
(0.017265 0.0376853 0)
(0.0191731 0.0318752 0)
(0.0194949 0.0261005 0)
(0.0184972 0.0259362 0)
(0.0177786 0.030297 0)
(0.0151148 0.040064 0)
(0.0107489 0.0481613 0)
(-0.0263691 0.0475504 0)
(-0.0263074 0.0482935 0)
(-0.0240756 0.037379 0)
(-0.0149741 0.0301958 0)
(-0.00913483 0.0270031 0)
(-0.0025213 0.0268671 0)
(0.00361636 0.0224054 0)
(0.0113942 0.0269849 0)
(0.0167611 0.0389963 0)
(0.021037 0.052534 0)
(-0.0572856 0.058412 0)
(-0.0489087 0.0408241 0)
(-0.0379507 0.0220913 0)
(-0.0256235 0.00660666 0)
(-0.0155583 -0.000569183 0)
(-0.00816196 0.00297493 0)
(-2.55526e-06 -3.14828e-05 0)
(0.00783604 0.0118887 0)
(0.0190236 0.0247508 0)
(0.0276982 0.0440456 0)
(-0.0642526 0.0423695 0)
(-0.0504779 0.00672758 0)
(-0.0427095 -0.00956022 0)
(-0.0371539 -0.0120013 0)
(-0.0328611 -0.00663117 0)
(-0.0303423 -0.00386961 0)
(-0.0189001 -0.0120368 0)
(-0.00314569 -0.0174894 0)
(0.0105691 0.00318321 0)
(0.0272679 0.0156746 0)
(-0.0477197 0.0160141 0)
(-0.0364837 -0.00524941 0)
(-0.0334764 -0.0134282 0)
(-0.0283675 -0.0144527 0)
(-0.0203297 -0.0124823 0)
(-0.0103165 -0.0263135 0)
(3.52873e-05 -0.0462172 0)
(0.00461722 -0.046172 0)
(0.0123285 -0.0365228 0)
(0.0263116 -0.0243705 0)
(-0.000265438 -0.00878783 0)
(0.00797458 -0.0171304 0)
(0.0103165 -0.0285248 0)
(0.0127521 -0.0352822 0)
(0.0172595 -0.0416583 0)
(0.0237987 -0.0504232 0)
(0.0291749 -0.0496966 0)
(0.0350201 -0.0460686 0)
(0.0403703 -0.0474345 0)
(0.0464528 -0.0430455 0)
(0.0454723 -0.0241425 0)
(0.053447 -0.0252576 0)
(0.0581492 -0.0226087 0)
(0.0576182 -0.0245991 0)
(0.0537472 -0.034348 0)
(0.0510998 -0.046982 0)
(0.0508547 -0.0581358 0)
(0.0528359 -0.0624562 0)
(0.055781 -0.0618101 0)
(0.0598749 -0.0557648 0)
(0.0607632 -0.0421857 0)
(0.0678176 -0.0425888 0)
(0.0724918 -0.0333531 0)
(0.0757624 -0.0243475 0)
(0.0753986 -0.0277715 0)
(0.0733481 -0.0444364 0)
(0.0706415 -0.0573777 0)
(0.0698264 -0.0601509 0)
(0.0692246 -0.0600927 0)
(0.0676317 -0.0585572 0)
(0.0657541 -0.0496493 0)
(0.069582 -0.0504224 0)
(0.0740717 -0.042647 0)
(0.0806928 -0.0290514 0)
(0.0825046 -0.0289584 0)
(0.0824934 -0.0364508 0)
(0.078957 -0.0526016 0)
(0.0772051 -0.0571111 0)
(0.0764158 -0.0565844 0)
(0.0740229 -0.0541132 0)
(0.067762 -0.0628485 0)
(0.0711744 -0.0618785 0)
(0.0730115 -0.0528184 0)
(0.0760771 -0.0377905 0)
(0.0773569 -0.0335838 0)
(0.0778729 -0.0366335 0)
(0.0781552 -0.0503654 0)
(0.0781111 -0.0542035 0)
(0.0773473 -0.05249 0)
(0.0740043 -0.0455623 0)
(0.0548477 -0.0682935 0)
(0.0534295 -0.0669954 0)
(0.0516735 -0.0543404 0)
(0.0475593 -0.0362209 0)
(0.0470359 -0.0325639 0)
(0.047097 -0.0428367 0)
(0.0523644 -0.059431 0)
(0.0588294 -0.0597108 0)
(0.060611 -0.0532687 0)
(0.0553538 -0.0345119 0)
(0.0161382 -0.05752 0)
(0.01225 -0.0508504 0)
(0.0148833 -0.0357713 0)
(0.0168957 -0.0300143 0)
(0.0206825 -0.0317865 0)
(0.0238699 -0.0559469 0)
(0.0260809 -0.0671336 0)
(0.0240674 -0.0615592 0)
(0.0108092 -0.0404974 0)
(-0.00264782 0.00990521 0)
(-0.0104262 -0.0539019 0)
(-0.00974382 -0.0554808 0)
(-0.00176015 -0.0553915 0)
(0.0067293 -0.0505589 0)
(0.0179353 -0.0462661 0)
(0.0200557 -0.0562748 0)
(0.0172521 -0.0546061 0)
(0.0113319 -0.0305096 0)
(-0.0105328 -0.00463025 0)
(-0.0138943 -0.00206992 0)
(-0.0175602 -0.0618174 0)
(-0.0136155 -0.0700261 0)
(-0.00745621 -0.0719695 0)
(-0.00122959 -0.0632771 0)
(0.00712526 -0.0598904 0)
(0.0122447 -0.0580525 0)
(0.0164306 -0.0493816 0)
(0.0154722 -0.0156277 0)
(0.00306743 0.0141798 0)
(0.00168044 0.00241391 0)
(-0.00445649 -0.0670088 0)
(-0.00473761 -0.0765451 0)
(-0.00249789 -0.0840051 0)
(0.0025023 -0.0836477 0)
(0.0114782 -0.0791749 0)
(0.017003 -0.0731087 0)
(0.0220006 -0.0581497 0)
(0.0244373 -0.008412 0)
(0.0236478 0.0198251 0)
(0.0276403 -0.00630184 0)
(0.0284086 -0.0602797 0)
(0.0277785 -0.0759568 0)
(0.0275356 -0.0855842 0)
(0.0282193 -0.089256 0)
(0.0265839 -0.0869202 0)
(0.0293251 -0.0772899 0)
(0.0240429 -0.0621614 0)
(0.029371 -0.0257151 0)
(0.0379533 0.00523931 0)
(0.0407704 -0.0101424 0)
(0.0387673 -0.0506368 0)
(0.0382901 -0.073266 0)
(0.0438435 -0.0842616 0)
(0.0451324 -0.0840548 0)
(0.0440553 -0.080216 0)
(0.0432088 -0.065912 0)
(0.0274746 -0.0466806 0)
(0.021439 -0.033304 0)
(0.0094339 0.0122978 0)
(-0.00468916 0.00091904 0)
(0.030518 -0.0393232 0)
(0.0372054 -0.0763593 0)
(0.0501435 -0.0907305 0)
(0.0515322 -0.0876524 0)
(0.0508477 -0.07829 0)
(0.0467582 -0.0556861 0)
(0.0401719 -0.0223132 0)
(0.0184365 -0.00126286 0)
(0.0149807 0.0585848 0)
(-0.0221125 0.0499955 0)
(0.0121249 -0.0666131 0)
(0.0298026 -0.122056 0)
(0.0434372 -0.118662 0)
(0.0476407 -0.0967867 0)
(0.0479886 -0.0747214 0)
(0.0370117 -0.0412747 0)
(0.0373568 0.00204789 0)
(0.00946144 0.0256599 0)
(0.00399896 0.0941998 0)
(-0.0186983 0.107554 0)
(0.0219903 -0.0917291 0)
(0.0296513 -0.147536 0)
(0.0378393 -0.129598 0)
(0.0332171 -0.09184 0)
(0.0261456 -0.0658987 0)
(0.0218368 -0.0260425 0)
(0.0234515 0.026667 0)
(0.0115679 0.060242 0)
(0.00698119 0.107594 0)
(0.00215853 0.160579 0)
(0.0455475 -0.0857449 0)
(0.0307246 -0.150742 0)
(0.0247211 -0.119853 0)
(0.0129787 -0.0602623 0)
(0.00535063 -0.057464 0)
(0.00662293 -0.0268679 0)
(0.00777372 0.0197486 0)
(0.00677625 0.0622923 0)
(0.00397659 0.105065 0)
(0.00793404 0.181341 0)
(0.0574497 -0.0724636 0)
(0.0305879 -0.111227 0)
(0.0107534 -0.0872782 0)
(0.00394374 -0.0436743 0)
(-0.00501912 -0.0564368 0)
(-0.00805459 -0.0178532 0)
(-0.00884339 0.0280655 0)
(-0.00525454 0.0689651 0)
(-0.0109128 0.109848 0)
(-0.00199579 0.183296 0)
(0.0450308 -0.0655722 0)
(0.0332709 -0.0649409 0)
(0.0163157 -0.0700608 0)
(0.0167025 -0.031365 0)
(0.00209913 -0.0273356 0)
(-0.0124024 -0.0194013 0)
(-0.0122378 0.0225006 0)
(-0.013384 0.0677987 0)
(-0.0241657 0.11861 0)
(-0.0267941 0.189365 0)
(0.0471176 -0.0520585 0)
(0.0420422 -0.0487176 0)
(0.0309457 -0.0497362 0)
(0.0228058 -0.0231323 0)
(0.0213378 -0.00399197 0)
(0.0086445 0.00194028 0)
(-0.00964195 0.0345914 0)
(-0.0177569 0.0783968 0)
(-0.0338377 0.140277 0)
(-0.039585 0.198896 0)
(0.0437099 -0.0436415 0)
(0.0408202 -0.0413056 0)
(0.0374691 -0.0354761 0)
(0.0303107 -0.0194344 0)
(0.020929 0.0093092 0)
(0.00375823 0.0379047 0)
(-0.0168285 0.0657571 0)
(-0.0285157 0.108624 0)
(-0.0454412 0.165352 0)
(-0.0459114 0.20163 0)
(0.0453533 -0.0338987 0)
(0.0391475 -0.0325228 0)
(0.0322474 -0.0205022 0)
(0.0197087 0.0108272 0)
(0.00727799 0.048832 0)
(-0.00906958 0.0796211 0)
(-0.0273962 0.100855 0)
(-0.0371485 0.138639 0)
(-0.047055 0.179668 0)
(-0.0464663 0.199336 0)
(0.0330675 -0.0271033 0)
(0.0295743 -0.0169909 0)
(0.0212803 0.00392292 0)
(0.0115669 0.0333837 0)
(-0.000545912 0.0724105 0)
(-0.00887347 0.10454 0)
(-0.0249378 0.120914 0)
(-0.0382583 0.161088 0)
(-0.0452223 0.182523 0)
(-0.0420058 0.193866 0)
(0.0135608 -0.0283366 0)
(0.013115 -0.0117233 0)
(0.0115383 0.0148801 0)
(0.00607668 0.0491096 0)
(-0.00635068 0.0869377 0)
(-0.0208568 0.122062 0)
(-0.0375618 0.152593 0)
(-0.0457954 0.170895 0)
(-0.0451441 0.179846 0)
(-0.0394894 0.186267 0)
(0.0029949 -0.0332572 0)
(-0.000929074 -0.0117438 0)
(-0.00961314 0.0180499 0)
(-0.0214565 0.0635233 0)
(-0.0380913 0.130119 0)
(-0.0571272 0.165506 0)
(-0.0650213 0.17237 0)
(-0.0608209 0.172365 0)
(-0.051202 0.171651 0)
(-0.0458431 0.175712 0)
(-0.0258658 -0.025967 0)
(-0.0385886 0.0125622 0)
(-0.056662 0.060841 0)
(-0.0797062 0.117133 0)
(-0.0824254 0.169026 0)
(-0.0812817 0.177834 0)
(-0.0796523 0.167477 0)
(-0.0722055 0.149852 0)
(-0.065554 0.144141 0)
(-0.0610534 0.18136 0)
(-0.0691616 0.00446126 0)
(-0.0850282 0.0592169 0)
(-0.0994823 0.0973125 0)
(-0.105829 0.121447 0)
(-0.102224 0.153142 0)
(-0.0970465 0.160267 0)
(-0.0864612 0.150117 0)
(-0.0843578 0.138882 0)
(-0.091236 0.146434 0)
(-0.104364 0.215818 0)
(-0.0951807 0.041902 0)
(-0.105768 0.0870046 0)
(-0.110515 0.104253 0)
(-0.111704 0.116574 0)
(-0.109796 0.134926 0)
(-0.102519 0.14294 0)
(-0.0998542 0.148812 0)
(-0.109911 0.153473 0)
(-0.121073 0.171827 0)
(-0.121508 0.221374 0)
(-0.119244 0.0666282 0)
(-0.120398 0.0886171 0)
(-0.115571 0.0983556 0)
(-0.115547 0.116121 0)
(-0.116326 0.133885 0)
(-0.119962 0.144746 0)
(-0.123785 0.161774 0)
(-0.125076 0.165266 0)
(-0.125972 0.177665 0)
(-0.123369 0.217412 0)
(-0.125552 0.0760072 0)
(-0.126892 0.0855797 0)
(-0.126734 0.0911375 0)
(-0.12855 0.127588 0)
(-0.13309 0.141616 0)
(-0.133631 0.149805 0)
(-0.131183 0.161337 0)
(-0.129795 0.164729 0)
(-0.128461 0.176092 0)
(-0.122614 0.203813 0)
(-0.123895 0.0849074 0)
(-0.129291 0.0937412 0)
(-0.139019 0.103728 0)
(-0.14249 0.130828 0)
(-0.139717 0.141516 0)
(-0.13798 0.14619 0)
(-0.13607 0.15144 0)
(-0.133464 0.157836 0)
(-0.124829 0.166867 0)
(-0.110682 0.178799 0)
(-0.125892 0.0871391 0)
(-0.129946 0.101424 0)
(-0.13268 0.115061 0)
(-0.130353 0.125096 0)
(-0.126646 0.135337 0)
(-0.12472 0.143071 0)
(-0.127549 0.147114 0)
(-0.128464 0.145871 0)
(-0.127116 0.141307 0)
(-0.111846 0.143749 0)
(-0.107595 0.0897157 0)
(-0.116533 0.102529 0)
(-0.114119 0.111425 0)
(-0.112127 0.115871 0)
(-0.109674 0.129885 0)
(-0.107482 0.147706 0)
(-0.110545 0.158281 0)
(-0.117916 0.150021 0)
(-0.115696 0.119948 0)
(-0.106388 0.109137 0)
(-0.102453 0.106486 0)
(-0.111246 0.114774 0)
(-0.113264 0.111898 0)
(-0.113035 0.117848 0)
(-0.114259 0.133666 0)
(-0.110115 0.143926 0)
(-0.0907852 0.160006 0)
(-0.0764235 0.157944 0)
(-0.0742876 0.132599 0)
(-0.0760391 0.11491 0)
(-0.126866 0.138825 0)
(-0.13242 0.118196 0)
(-0.133144 0.114855 0)
(-0.136903 0.120893 0)
(-0.131578 0.124075 0)
(-0.103124 0.113512 0)
(-0.0654805 0.108017 0)
(-0.0367177 0.109407 0)
(-0.00289639 0.110362 0)
(0.00409114 0.112394 0)
(-0.142169 0.157161 0)
(-0.135877 0.115077 0)
(-0.134091 0.112784 0)
(-0.137333 0.116557 0)
(-0.135477 0.0757845 0)
(-0.111324 0.0134574 0)
(-0.0793217 0.00159223 0)
(-0.0498085 0.0101558 0)
(-0.0109856 0.0600216 0)
(0.016727 0.0758124 0)
(-0.118263 0.163086 0)
(-0.107133 0.116621 0)
(-0.105974 0.117091 0)
(-0.10498 0.119539 0)
(-0.0888612 0.0666356 0)
(-0.057909 -0.00343409 0)
(-0.0664312 -0.0145516 0)
(-0.060559 -0.0357235 0)
(-0.0295402 -0.0266408 0)
(0.00388199 0.0222507 0)
(-0.1065 0.145574 0)
(-0.098736 0.101444 0)
(-0.0851472 0.0985613 0)
(-0.0640237 0.0804995 0)
(-0.0314477 0.0218513 0)
(-0.0120835 -0.0167498 0)
(-0.0136635 0.00110093 0)
(0.00442886 -0.063754 0)
(0.00220752 -0.0713967 0)
(0.0157433 -0.0572745 0)
(-0.0822602 0.108291 0)
(-0.0728205 0.0675168 0)
(-0.0504861 0.0349049 0)
(-0.0173883 -0.0066821 0)
(0.00890652 -0.0333489 0)
(0.0220278 -0.046914 0)
(0.0368647 -0.0395189 0)
(0.0439927 -0.0503118 0)
(0.037286 -0.0572676 0)
(0.0277788 -0.0532831 0)
(-0.0377728 0.0954749 0)
(-0.0269116 0.0487313 0)
(-0.00656432 -0.0119029 0)
(0.012783 -0.0461627 0)
(0.024658 -0.0601783 0)
(0.031937 -0.0658112 0)
(0.0367604 -0.0624897 0)
(0.0390252 -0.0584221 0)
(0.0358687 -0.0500059 0)
(0.0370297 -0.0495774 0)
(0.00664833 0.0552436 0)
(0.0187508 0.011626 0)
(0.0384931 -0.0438303 0)
(0.0458271 -0.0674395 0)
(0.0519024 -0.0715797 0)
(0.0550226 -0.0668947 0)
(0.0561162 -0.0565289 0)
(0.0514506 -0.0493667 0)
(0.0487848 -0.0483519 0)
(0.0487968 -0.0579335 0)
(0.0463462 0.0432277 0)
(0.0617967 -0.0105445 0)
(0.065378 -0.0591996 0)
(0.0624404 -0.0774412 0)
(0.0634919 -0.0789444 0)
(0.0656128 -0.0716964 0)
(0.0680321 -0.0533921 0)
(0.0765821 -0.0416297 0)
(0.0852196 -0.0427931 0)
(0.097816 -0.0732565 0)
(0.0505129 0.00790253 0)
(0.057528 -0.0261164 0)
(0.0552933 -0.0416228 0)
(0.0565064 -0.0552568 0)
(0.0615459 -0.0758454 0)
(0.0659994 -0.0753971 0)
(0.0758148 -0.091985 0)
(0.096479 -0.0927248 0)
(0.122042 -0.0826818 0)
(0.135181 -0.0820375 0)
(0.0192883 0.00592917 0)
(0.0181728 -0.0223935 0)
(0.0381683 -0.0794736 0)
(0.0642993 -0.0998626 0)
(0.071273 -0.0976828 0)
(0.0770706 -0.106086 0)
(0.0899144 -0.125737 0)
(0.104503 -0.132117 0)
(0.120256 -0.124944 0)
(0.135447 -0.108807 0)
(0.0105248 0.0191112 0)
(0.0279518 -0.0631371 0)
(0.0623551 -0.115394 0)
(0.0728508 -0.113469 0)
(0.0834299 -0.102143 0)
(0.0898303 -0.113727 0)
(0.101734 -0.138765 0)
(0.114102 -0.14476 0)
(0.123539 -0.139268 0)
(0.138716 -0.11944 0)
(-0.0147105 -0.0732442 0)
(0.00421844 -0.137555 0)
(0.0216795 -0.154722 0)
(0.0380087 -0.141837 0)
(0.0648706 -0.131437 0)
(0.0903408 -0.136095 0)
(0.111831 -0.17222 0)
(0.142965 -0.179186 0)
(0.168489 -0.183327 0)
(0.195165 -0.180465 0)
(-0.0655444 -0.116524 0)
(-0.0488802 -0.149906 0)
(-0.0316995 -0.180525 0)
(0.00455629 -0.188109 0)
(0.0360057 -0.210835 0)
(0.0761846 -0.214901 0)
(0.116549 -0.247067 0)
(0.145709 -0.252816 0)
(0.168689 -0.245699 0)
(0.189527 -0.230196 0)
(-0.088335 -0.156282 0)
(-0.0622773 -0.200846 0)
(-0.0464407 -0.248314 0)
(-0.0243643 -0.270529 0)
(-0.000945348 -0.297316 0)
(0.0228626 -0.31137 0)
(0.0526764 -0.305046 0)
(0.0741764 -0.300242 0)
(0.0969119 -0.302065 0)
(0.111817 -0.288989 0)
(-0.119804 -0.201186 0)
(-0.108725 -0.240456 0)
(-0.0951644 -0.275863 0)
(-0.0854227 -0.297034 0)
(-0.0695607 -0.317286 0)
(-0.0576 -0.335319 0)
(-0.0373397 -0.345796 0)
(-0.00934812 -0.341409 0)
(0.0107405 -0.330284 0)
(0.0127825 -0.276736 0)
(-0.132253 -0.207369 0)
(-0.128174 -0.244485 0)
(-0.112739 -0.290057 0)
(-0.104913 -0.317288 0)
(-0.0868456 -0.348925 0)
(-0.0767432 -0.369994 0)
(-0.0654374 -0.385491 0)
(-0.0531203 -0.385153 0)
(-0.0425377 -0.340097 0)
(-0.0281013 -0.237423 0)
(-0.119811 -0.230416 0)
(-0.121505 -0.275119 0)
(-0.102906 -0.331795 0)
(-0.0996068 -0.356119 0)
(-0.0846334 -0.368834 0)
(-0.081431 -0.37763 0)
(-0.0776639 -0.393634 0)
(-0.0752438 -0.396744 0)
(-0.0701618 -0.356211 0)
(-0.041959 -0.246404 0)
(-0.0568274 -0.227379 0)
(-0.0733056 -0.288491 0)
(-0.0619447 -0.345383 0)
(-0.0646246 -0.371469 0)
(-0.0591387 -0.378565 0)
(-0.0627759 -0.380814 0)
(-0.065394 -0.402314 0)
(-0.0681277 -0.409694 0)
(-0.0646378 -0.391872 0)
(-0.0440074 -0.314527 0)
(0.0287036 -0.182088 0)
(0.00452167 -0.260555 0)
(0.000844986 -0.341543 0)
(-0.0032846 -0.37566 0)
(-0.00283528 -0.379157 0)
(-0.0055901 -0.365647 0)
(-0.0117755 -0.383958 0)
(-0.0237293 -0.403588 0)
(-0.0333126 -0.405205 0)
(-0.0305681 -0.365421 0)
(0.0793125 -0.151992 0)
(0.0650848 -0.220788 0)
(0.0535084 -0.310148 0)
(0.0450455 -0.357506 0)
(0.0320006 -0.365476 0)
(0.0249411 -0.35423 0)
(0.0231776 -0.355879 0)
(0.0205319 -0.368006 0)
(0.00878804 -0.380867 0)
(0.00326748 -0.368845 0)
(0.103095 -0.143697 0)
(0.0919537 -0.2002 0)
(0.081963 -0.284967 0)
(0.0723217 -0.329523 0)
(0.0568987 -0.343288 0)
(0.0479593 -0.350625 0)
(0.051112 -0.361263 0)
(0.059457 -0.365958 0)
(0.0576594 -0.359809 0)
(0.0511035 -0.340816 0)
(0.125554 -0.120907 0)
(0.108977 -0.169428 0)
(0.0995387 -0.260199 0)
(0.0918759 -0.314298 0)
(0.0815412 -0.329897 0)
(0.0816338 -0.345722 0)
(0.0898324 -0.369811 0)
(0.0959093 -0.372997 0)
(0.0957785 -0.358153 0)
(0.0913009 -0.306958 0)
(0.12476 -0.102101 0)
(0.113568 -0.154316 0)
(0.106851 -0.248332 0)
(0.09904 -0.309055 0)
(0.0990726 -0.336806 0)
(0.107211 -0.372798 0)
(0.11642 -0.383279 0)
(0.120534 -0.375347 0)
(0.113306 -0.352243 0)
(0.107949 -0.272204 0)
(0.10941 -0.0996797 0)
(0.108916 -0.147835 0)
(0.102808 -0.242476 0)
(0.101159 -0.312357 0)
(0.108908 -0.355229 0)
(0.115546 -0.393267 0)
(0.120063 -0.394503 0)
(0.123093 -0.381464 0)
(0.108154 -0.343128 0)
(0.0944477 -0.224551 0)
(0.111934 -0.0864678 0)
(0.109269 -0.137121 0)
(0.098204 -0.234325 0)
(0.099682 -0.315806 0)
(0.105468 -0.361632 0)
(0.104363 -0.399463 0)
(0.0971644 -0.400874 0)
(0.089518 -0.374456 0)
(0.0360223 -0.2856 0)
(-0.0109433 -0.133371 0)
(0.102296 -0.0397401 0)
(0.0909635 -0.105489 0)
(0.0851979 -0.214298 0)
(0.0829017 -0.301448 0)
(0.0726497 -0.344804 0)
(0.0421697 -0.366653 0)
(0.0192988 -0.347217 0)
(-0.0167765 -0.258645 0)
(-0.0759858 -0.112395 0)
(-0.102243 -0.0330541 0)
(0.0555094 -0.0155418 0)
(0.0488281 -0.104269 0)
(0.0499474 -0.22163 0)
(0.049778 -0.279788 0)
(0.0272659 -0.294631 0)
(0.00177501 -0.306659 0)
(-0.0156264 -0.275371 0)
(-0.0534777 -0.151708 0)
(-0.092247 -0.0622081 0)
(-0.102968 -0.0348637 0)
(0.0129052 -0.0305406 0)
(0.0162555 -0.122944 0)
(0.0299262 -0.238797 0)
(0.030512 -0.257544 0)
(0.0172032 -0.267639 0)
(0.00682499 -0.270248 0)
(-0.009356 -0.250616 0)
(-0.0109548 -0.109813 0)
(-0.0353293 -0.0411207 0)
(-0.0288003 -0.0192803 0)
(-0.00235505 -0.0301776 0)
(0.00945723 -0.159493 0)
(0.014085 -0.245078 0)
(0.0210372 -0.253722 0)
(0.0120925 -0.258599 0)
(0.0114319 -0.257925 0)
(0.00256461 -0.247043 0)
(0.0177785 -0.12618 0)
(0.034441 -0.0225215 0)
(0.00943804 -0.0240769 0)
(-0.00717894 -0.0147844 0)
(0.0149728 -0.171443 0)
(0.00503899 -0.247244 0)
(0.0192514 -0.249986 0)
(0.01047 -0.255716 0)
(0.0130928 -0.256181 0)
(0.0162197 -0.253845 0)
(0.0192116 -0.217344 0)
(0.0613814 -0.0147957 0)
(0.0360877 0.0376132 0)
(0.00176872 -0.00516773 0)
(0.0213354 -0.172452 0)
(-0.000261539 -0.242139 0)
(0.017175 -0.245686 0)
(-0.00362217 -0.254377 0)
(0.00614964 -0.260179 0)
(0.0137431 -0.259802 0)
(0.000161061 -0.23943 0)
(0.0499201 -0.0115943 0)
(-0.0128274 0.0821301 0)
(-0.0345522 0.0864186 0)
(0.0401162 -0.174172 0)
(-0.031306 -0.230765 0)
(0.0114622 -0.240599 0)
(-0.0211772 -0.24604 0)
(-0.009011 -0.257542 0)
(-0.0172598 -0.261264 0)
(-0.0202134 -0.242961 0)
(-0.000788177 0.0199747 0)
(0.0348736 0.228073 0)
(-0.147473 -0.105471 0)
(0.00833531 -0.217241 0)
(-0.0579061 -0.225622 0)
(-0.0142219 -0.242333 0)
(-0.0317142 -0.237773 0)
(-0.0280053 -0.248216 0)
(-0.0321059 -0.256479 0)
(-0.0253149 -0.2532 0)
(-0.0471048 -0.173786 0)
(0.0840698 0.152887 0)
(-0.178125 -0.157442 0)
(-0.000401101 -0.254537 0)
(-0.0538642 -0.228962 0)
(-0.0250576 -0.241639 0)
(-0.0355722 -0.23443 0)
(-0.0424761 -0.241062 0)
(-0.0500601 -0.239807 0)
(-0.0527172 -0.227831 0)
(-0.117996 -0.188511 0)
(0.0780691 0.230609 0)
(-0.0149967 0.00124734 0)
(-0.0152531 0.00146201 0)
(-0.0146802 0.00111412 0)
(-0.0135771 0.000230438 0)
(-0.0118048 -0.00082869 0)
(-0.00910085 -0.00127432 0)
(-0.00605562 -0.000892301 0)
(-0.00214072 -0.00255222 0)
(0.00115845 -0.00239102 0)
(0.00485374 -0.003764 0)
(0.00845468 -0.00176584 0)
(0.00971841 -0.000942719 0)
(0.00936305 -0.000607278 0)
(0.00896547 -0.00133856 0)
(0.00984342 -0.00217988 0)
(0.0118183 -0.00187155 0)
(0.013711 -0.00056685 0)
(0.0142981 0.00107749 0)
(0.0132337 0.00230517 0)
(0.0107652 0.00335126 0)
(0.00732281 0.0029795 0)
(0.00428373 0.00211628 0)
(0.000641626 0.00287792 0)
(-0.00309429 0.00248322 0)
(-0.0053633 0.000173494 0)
(-0.0050746 -0.00215418 0)
(-0.00345831 -0.00197861 0)
(-0.00247842 -0.000928187 0)
(-0.00170223 -2.07437e-05 0)
(-0.000160032 -0.000402633 0)