/*--------------------------------*- C++ -*----------------------------------*\
  =========                 |
  \\      /  F ield         | OpenFOAM: The Open Source CFD Toolbox
   \\    /   O peration     | Website:  https://openfoam.org
    \\  /    A nd           | Version:  8
     \\/     M anipulation  |
\*---------------------------------------------------------------------------*/
FoamFile
{
    version     2.0;
    format      ascii;
    class       volScalarField;
    location    "7.55";
    object      alpha.water;
}
// * * * * * * * * * * * * * * * * * * * * * * * * * * * * * * * * * * * * * //

dimensions      [0 0 0 0 0 0 0];

internalField   nonuniform List<scalar> 
9150
(
1
1
1
1
1
1
1
1
1
1
1
1
1
1
1
1
1
1
1
1
1
1
1
1
1
1
1
1
1
1
1
1
1
1
1
1
1
1
1
1
1
1
1
1
1
1
1
1
1
1
1
1
1
1
1
1
1
1
1
1
1
1
1
1
1
1
1
1
1
1
1
1
1
1
1
1
1
1
1
1
1
1
1
1
1
1
1
1
1
1
1
1
1
1
1
1
1
1
1
1
1
1
1
1
1
1
1
1
1
1
1
1
1
1
1
1
1
1
1
1
1
1
1
1
1
1
1
1
1
1
1
1
1
1
1
1
1
1
1
1
1
1
1
1
1
1
1
1
1
1
0.997992
0.997992
0.997973
0.996879
0.996719
0.997497
0.997492
0.993367
0.994791
0.998226
0.982898
0.990791
0.994737
0.993004
0.988109
0.988109
0.988684
0.993244
0.996263
0.998226
0.866667
0.867523
0.927903
0.997404
0.997255
0.991402
0.984136
0.99191
0.997806
0.998225
0.866674
0.921987
0.997021
0.998031
0.998055
0.99803
0.98395
0.98702
0.997883
0.998129
0.968101
0.993394
0.998045
0.998057
0.998057
0.997655
0.979623
0.987092
0.998142
0.997603
0.997938
0.998045
0.998057
0.998057
0.998057
0.984738
0.979766
0.995093
0.998266
0.99825
0.997635
0.998045
0.998046
0.99192
0.983728
0.980237
0.989917
0.998273
0.998269
0.998257
0.997449
0.991358
0.975895
0.974526
0.975152
0.990826
0.998273
0.998277
0.998282
0.998248
0.994068
0.974038
0.974038
0.974038
0.993123
0.998266
0.998277
0.998282
0.998291
0.99829
0.996112
0.975157
0.974038
0.991545
0.996841
0.99704
0.986033
0.988865
0.998291
0.998306
0.998026
0.995065
0.993083
0.998031
0.996717
0.984005
0.983892
0.983892
0.997263
0.998307
0.99805
0.998048
0.998047
0.998047
0.997867
0.986098
0.983892
0.991368
0.998307
0.998307
0.998048
0.99805
0.998049
0.998047
0.998047
0.997589
0.995342
0.998306
0.998307
0.998307
0.885701
0.904627
0.910634
0.945048
0.996548
0.998071
0.998136
0.998191
0.995716
0.998307
0.857978
0.841249
0.839057
0.837002
0.853052
0.890895
0.883444
0.878562
0.846189
0.864433
0.977235
0.935094
0.864252
0.837038
0.836951
0.837171
0.837923
0.837429
0.837429
0.837429
0.998447
0.998052
0.983723
0.947821
0.886993
0.857525
0.837946
0.837881
0.84196
0.853966
0.982347
0.988826
0.989114
0.989068
0.984867
0.977413
0.959649
0.967163
0.978558
0.984916
0.948319
0.948364
0.948678
0.949018
0.960234
0.992431
0.996939
0.997765
0.998506
0.998556
0.979952
0.985653
0.988527
0.961545
0.959474
0.959432
0.982169
0.998506
0.998555
0.998568
0.996845
0.996826
0.996805
0.996778
0.995543
0.982661
0.99083
0.998552
0.998568
0.99857
0.911873
0.925017
0.945814
0.958922
0.965024
0.988982
0.998523
0.998566
0.99857
0.99857
0.702006
0.716085
0.76666
0.768412
0.748914
0.74203
0.775297
0.857511
0.971069
0.99857
0.928588
0.996666
0.996934
0.869722
0.743476
0.741334
0.741302
0.741302
0.742687
0.781797
0.996666
0.996934
0.997001
0.996996
0.997017
0.997037
0.983483
0.858103
0.758531
0.754631
0.971948
0.963236
0.991025
0.997017
0.997037
0.997045
0.997084
0.997161
0.979366
0.884481
0.875126
0.872357
0.8965
0.984314
0.986443
0.997077
0.997161
0.997195
0.997225
0.997089
0.969032
0.870906
0.863402
0.861443
0.860442
0.964873
0.975425
0.99508
0.997326
0.997409
0.948616
0.958083
0.959062
0.926538
0.845892
0.84469
0.842529
0.917329
0.99032
0.990734
0.87527
0.917377
0.95908
0.971944
0.973853
0.904632
0.84148
0.84148
0.84148
0.914035
0.916942
0.820187
0.819598
0.849267
0.975232
0.98683
0.978812
0.856423
0.843006
0.844839
0.998493
0.998494
0.854111
0.820559
0.822166
0.981837
0.998074
0.998473
0.960591
0.937613
0.998494
0.998494
0.998494
0.836117
0.918488
0.997218
0.998473
0.998474
0.998475
0.998475
0.998494
0.998494
0.998494
0.980568
0.947821
0.985232
0.998474
0.998475
0.998475
0.998475
0.998493
0.998494
0.998493
0.998228
0.997636
0.996548
0.99822
0.998475
0.998475
0.998475
0.998492
0.998493
0.997693
0.996427
0.998468
0.998474
0.998475
0.998475
0.998475
0.998475
0.952887
0.948276
0.959834
0.993124
0.998471
0.998475
0.998475
0.998475
0.998475
0.998475
0.943907
0.943873
0.953338
0.99294
0.998467
0.998474
0.998475
0.998475
0.998475
0.998475
0.935917
0.956243
0.984919
0.998255
0.99845
0.998474
0.998475
0.998475
0.998475
0.998475
0.924681
0.924664
0.940555
0.966123
0.966829
0.9754
0.9924
0.993782
0.994196
0.997286
0.939811
0.935915
0.941561
0.922402
0.921475
0.918932
0.918932
0.918932
0.921322
0.983589
0.98362
0.986631
0.992087
0.993636
0.993621
0.980265
0.924747
0.968126
0.99831
0.99839
0.922614
0.922548
0.922614
0.9491
0.987498
0.99768
0.997917
0.998036
0.99781
0.998326
0.989671
0.925959
0.922593
0.922819
0.92309
0.982292
0.997647
0.998205
0.998248
0.998293
0.995823
0.978847
0.922956
0.931014
0.974396
0.983081
0.990334
0.997899
0.998205
0.998226
0.988075
0.968057
0.980762
0.981707
0.975945
0.979103
0.989648
0.998029
0.995079
0.988915
0.986482
0.972199
0.980735
0.98098
0.981495
0.989923
0.998029
0.99803
0.99803
0.998029
0.986969
0.964025
0.964025
0.98754
0.998024
0.998026
0.998028
0.998029
0.99803
0.99803
0.968415
0.967944
0.997843
0.998019
0.998024
0.998024
0.998026
0.998028
0.998029
0.998029
0.976281
0.995557
0.997968
0.997994
0.997247
0.993573
0.993803
0.998002
0.998018
0.998025
0.976936
0.995202
0.994124
0.99406
0.980895
0.957763
0.928499
0.961414
0.990575
0.997947
0.971588
0.995093
0.994705
0.923353
0.910913
0.938073
0.901106
0.901405
0.90841
0.955357
0.905821
0.994236
0.994487
0.982974
0.970491
0.971086
0.971063
0.970271
0.935778
0.857036
0.951831
0.993453
0.994068
0.993453
0.987218
0.960676
0.930499
0.736399
0.628049
0.726339
0.951569
0.936159
0.626448
0.458911
0.437373
0.432481
0.42988
0.42988
0.42988
0.435415
0.778227
0.879853
0.92525
0.954082
0.972952
0.969118
0.745373
0.42988
0.563368
0.935878
0.984003
0.983593
0.983001
0.982338
0.98085
0.863984
0.77782
0.915487
0.972128
0.976677
0.985501
0.96386
0.832347
0.73106
0.92735
0.972934
0.972934
0.972934
0.972691
0.970728
0.752331
0.422019
0.373774
0.375575
0.601784
0.951916
0.972934
0.972642
0.970599
0.802815
0.373602
0.373607
0.373546
0.373774
0.374361
0.406567
0.850226
0.97055
0.962835
0.736933
0.557003
0.373607
0.373774
0.374094
0.374186
0.374435
0.461928
0.948019
0.965195
0.867956
0.962645
0.962036
0.708065
0.404631
0.374448
0.384304
0.765347
0.966133
0.966468
0.960578
0.96425
0.964929
0.966674
0.969474
0.916358
0.712682
0.894414
0.965959
0.965195
0.963203
0.962646
0.966411
0.969474
0.970243
0.97092
0.948335
0.774768
0.773042
0.876226
0.959631
0.869165
0.9128
0.949229
0.97092
0.97092
0.970926
0.970529
0.8595
0.751365
0.751541
0.58032
0.674398
0.764571
0.926656
0.970922
0.970817
0.964379
0.959545
0.954175
0.932479
0.841951
0.665903
0.680957
0.680957
0.933746
0.961223
0.807997
0.884341
0.873364
0.940271
0.946738
0.872869
0.695717
0.691275
0.74812
0.842155
0.780784
0.782631
0.581483
0.554348
0.949817
0.953491
0.956348
0.852619
0.821449
0.821589
0.920248
0.909435
0.586335
0.504743
0.787804
0.959067
0.960954
0.960716
0.960967
0.960058
0.954665
0.839142
0.536197
0.50345
0.357497
0.884772
0.96021
0.960969
0.96021
0.954818
0.854785
0.51522
0.509064
0.506126
0.252055
0.772606
0.955187
0.96021
0.762831
0.842623
0.737522
0.509057
0.508832
0.712416
0.252345
0.740229
0.950695
0.898643
0.534706
0.732386
0.820585
0.515127
0.585356
0.94227
0.377645
0.906791
0.95887
0.879084
0.516373
0.72406
0.855408
0.515627
0.488842
0.654596
0.629801
0.960724
0.961761
0.817222
0.501026
0.635229
0.857278
0.606486
0.420616
0.421745
0.938367
0.964989
0.962251
0.679747
0.49445
0.57492
0.866938
0.830417
0.423054
0.420616
0.964989
0.965496
0.956017
0.533542
0.49445
0.593273
0.882514
0.880122
0.486426
0.421745
0.965496
0.965636
0.965573
0.925901
0.49445
0.69506
0.898137
0.892449
0.612631
0.426227
0.963421
0.965496
0.965579
0.667409
0.506682
0.722462
0.906283
0.898137
0.702134
0.439121
0.749519
0.895242
0.965473
0.774213
0.518393
0.872889
0.918967
0.906283
0.548249
0.806897
0.713189
0.846554
0.954576
0.444388
0.681497
0.967925
0.947843
0.771656
0.299767
0.545104
0.713445
0.87881
0.938814
0.412492
0.877882
0.972445
0.743104
0.352688
0.167639
0.28209
0.809035
0.904807
0.742113
0.412173
0.954472
0.972506
0.476615
0.336693
0.155466
0.262852
0.974607
0.870841
0.432823
0.431766
0.964392
0.973057
0.424598
0.395484
0.126198
0.219538
0.990112
0.932705
0.590864
0.472968
0.952211
0.975317
0.45067
0.324274
0.0674969
0.0500047
0.99029
0.990113
0.805001
0.476195
0.934993
0.984001
0.453139
0.194448
0.0106436
0.0046834
0.990169
0.990143
0.986059
0.496228
0.930622
0.989198
0.514605
0.118207
0.003811
0.00207279
0.990143
0.989949
0.989536
0.673447
0.966173
0.990361
0.56156
0.00339803
0.00375633
0.00646443
0.416564
0.646949
0.654451
0.583818
0.978459
0.990794
0.556216
0.00283068
0.00540845
0.00658162
0.0151095
0.0522439
0.0599828
0.603967
0.991686
0.992417
0.60211
0.00283079
0.00891567
0.00656477
0.00214587
0.00129043
0.00446638
0.673176
0.994239
0.99442
0.674422
0.00283068
0.00893065
0.00788646
2.55408e-05
1.87454e-06
0.000859105
0.750053
0.996235
0.996285
0.748901
0.00311483
0.00891567
0.00893065
1.20545e-06
1.72694e-06
0.0247304
0.821841
0.997468
0.997974
0.821022
0.0237014
0.00553326
0.0088192
5.23095e-07
1.08232e-06
0.107003
0.886375
0.99876
0.998846
0.886978
0.104085
0.00045414
0.00705651
4.24389e-07
5.23095e-07
0.225229
0.948778
0.999626
0.999249
0.940614
0.201676
0.000379949
0.000666377
4.07404e-07
4.32114e-07
0.435468
0.990649
0.999803
0.999825
0.979701
0.377584
0.000156128
2.72485e-05
2.00659e-07
5.08267e-06
0.659987
0.99983
0.99991
0.999916
0.999849
0.665071
2.72437e-05
1.1058e-05
1.10143e-07
0.0911
0.877751
0.999915
0.999995
0.99999
0.999935
0.86828
0.0687226
1.12046e-05
1.01431e-07
0.575016
0.999304
0.999994
1
1
0.999985
0.998321
0.553778
1.10297e-05
0.297594
0.961256
1
1
1
1
1
1
0.962816
0.295527
0.998226
0.998226
0.99531
0.994551
0.997932
0.998414
0.99759
0.988735
0.988725
0.994762
0.998416
0.998416
0.998221
0.998216
0.998216
0.998219
0.99822
0.99822
0.99822
0.998219
0.998219
0.998218
0.998216
0.997429
0.996321
0.998073
0.998073
0.998073
0.998073
0.998073
0.998072
0.998061
0.998039
0.998026
0.998025
0.997899
0.998039
0.998058
0.998058
0.993963
0.998226
0.998226
0.996106
0.994551
0.998441
0.998451
0.994576
0.988725
0.988846
0.998382
0.998416
0.998416
0.998416
0.998415
0.998319
0.997592
0.998027
0.99822
0.998219
0.998219
0.997712
0.994884
0.98482
0.98124
0.995738
0.998073
0.998073
0.998073
0.998073
0.99807
0.996633
0.994633
0.994462
0.997884
0.993929
0.992285
0.995641
0.997497
0.991961
0.990029
0.998226
0.997579
0.993125
0.997167
0.998477
0.998472
0.997987
0.991058
0.991248
0.998416
0.998416
0.998416
0.998416
0.998412
0.998188
0.989077
0.98712
0.997927
0.998214
0.996931
0.966368
0.961214
0.961199
0.96122
0.961265
0.961749
0.991654
0.998072
0.998075
0.998019
0.974082
0.931011
0.929637
0.972665
0.986289
0.994842
0.995631
0.993968
0.990029
0.990029
0.998225
0.997152
0.993123
0.998345
0.998483
0.998339
0.997912
0.998395
0.998041
0.983825
0.973077
0.998416
0.998415
0.998411
0.998377
0.983328
0.959874
0.975215
0.998052
0.99789
0.991187
0.961213
0.961211
0.961207
0.961242
0.961411
0.974075
0.998075
0.998086
0.997525
0.950713
0.929637
0.929624
0.929624
0.929467
0.965038
0.971354
0.991403
0.995472
0.991578
0.99773
0.99165
0.993787
0.998485
0.998485
0.998477
0.998484
0.998472
0.997482
0.969568
0.962183
0.964704
0.992218
0.998409
0.998435
0.990561
0.959897
0.959874
0.959936
0.988569
0.997079
0.997094
0.994775
0.995297
0.997311
0.997312
0.997364
0.997425
0.998101
0.998135
0.998152
0.971995
0.932755
0.929467
0.929309
0.929309
0.929309
0.954043
0.995988
0.997801
0.994488
0.988048
0.994745
0.998486
0.998486
0.998487
0.998486
0.998484
0.998404
0.9774
0.962157
0.962092
0.962279
0.989663
0.998438
0.998463
0.997565
0.995674
0.995424
0.992874
0.964347
0.959469
0.959469
0.980382
0.996995
0.992215
0.990196
0.995888
0.998121
0.998152
0.998152
0.998152
0.998138
0.980574
0.946389
0.929309
0.929595
0.942502
0.988438
0.997801
0.990433
0.987919
0.994547
0.998486
0.998487
0.998487
0.998487
0.998484
0.998482
0.99725
0.980176
0.962092
0.962068
0.962309
0.991239
0.99847
0.99847
0.998471
0.998471
0.998384
0.997193
0.995409
0.99415
0.993801
0.94987
0.946127
0.946135
0.956375
0.974032
0.997016
0.998153
0.998151
0.993864
0.988103
0.991617
0.993095
0.986524
0.996379
0.995765
0.997801
0.990011
0.987849
0.992248
0.998487
0.998487
0.998487
0.998463
0.998433
0.998477
0.998493
0.998322
0.986185
0.962068
0.962056
0.962049
0.98122
0.99847
0.998471
0.998471
0.998471
0.998098
0.995429
0.993769
0.991843
0.975376
0.948331
0.946101
0.946101
0.946101
0.991678
0.998151
0.998144
0.973727
0.955956
0.977647
0.99763
0.997806
0.997806
0.997806
0.997801
0.99321
0.987839
0.987809
0.996432
0.998487
0.998487
0.998487
0.998433
0.998488
0.998494
0.998493
0.997874
0.966772
0.962049
0.962046
0.962046
0.963562
0.993719
0.998471
0.998471
0.998471
0.996921
0.985006
0.98347
0.986635
0.993275
0.954952
0.946101
0.966958
0.997747
0.998116
0.998134
0.962017
0.955886
0.955903
0.971452
0.997418
0.997806
0.997806
0.997806
0.998044
0.989292
0.987797
0.987785
0.993642
0.998487
0.998487
0.998483
0.998494
0.998494
0.998494
0.998494
0.981686
0.962046
0.962046
0.962045
0.962045
0.965211
0.998471
0.998471
0.998471
0.998471
0.997367
0.989478
0.995466
0.993693
0.99076
0.987928
0.997663
0.997995
0.998083
0.985636
0.955983
0.955903
0.955886
0.955895
0.981227
0.997802
0.997806
0.997806
0.998306
0.997243
0.988081
0.987785
0.987785
0.989614
0.99756
0.998494
0.998494
0.998494
0.998494
0.998494
0.997419
0.97791
0.964377
0.962045
0.962045
0.970315
0.997264
0.997454
0.998286
0.998477
0.998471
0.998433
0.998268
0.997993
0.997792
0.997494
0.985399
0.985507
0.993208
0.980351
0.96512
0.961649
0.957489
0.955891
0.966841
0.995025
0.997804
0.997806
0.998307
0.998305
0.996677
0.988594
0.987814
0.987982
0.998493
0.998494
0.998494
0.998494
0.997829
0.998493
0.9985
0.998207
0.993651
0.985232
0.967363
0.989928
0.998495
0.998491
0.998491
0.998487
0.995835
0.988392
0.984384
0.985564
0.982397
0.975286
0.974253
0.974253
0.974488
0.996047
0.997818
0.997822
0.997822
0.982572
0.967121
0.971808
0.9885
0.997804
0.998307
0.998307
0.998305
0.99723
0.993723
0.997167
0.996323
0.985119
0.982191
0.990085
0.997977
0.9985
0.998501
0.9985
0.9985
0.997502
0.996975
0.998495
0.998496
0.998495
0.99842
0.987376
0.968838
0.96551
0.965501
0.965828
0.967278
0.96856
0.977925
0.992017
0.997676
0.997797
0.99782
0.997822
0.997822
0.997822
0.988271
0.965902
0.965959
0.992013
0.998307
0.998307
0.998307
0.998305
0.998302
0.998226
0.991125
0.980505
0.980503
0.980505
0.99728
0.998501
0.998501
0.998501
0.9985
0.9985
0.998499
0.998497
0.998496
0.998492
0.983179
0.965323
0.965258
0.97103
0.988098
0.992473
0.996988
0.996902
0.996766
0.993171
0.992415
0.995198
0.997429
0.997818
0.997822
0.997822
0.997822
0.976777
0.965902
0.97889
0.951686
0.998307
0.998305
0.998306
0.998305
0.990793
0.96546
0.993281
0.980505
0.983816
0.997021
0.998404
0.998501
0.998501
0.998501
0.9985
0.9985
0.998499
0.99828
0.980221
0.965526
0.969436
0.986904
0.986938
0.981453
0.997572
0.997221
0.994788
0.94379
0.852057
0.789447
0.825318
0.910905
0.975563
0.997021
0.997822
0.997822
0.997149
0.96874
0.968743
0.837615
0.933546
0.992513
0.998305
0.998302
0.96074
0.959036
0.995054
0.994652
0.997179
0.99757
0.997933
0.998501
0.998501
0.998501
0.9985
0.995548
0.955471
0.950198
0.950205
0.980596
0.993005
0.983306
0.923999
0.943537
0.997731
0.997335
0.958879
0.721942
0.696609
0.696615
0.696615
0.715901
0.904271
0.979384
0.997822
0.997822
0.997822
0.975153
0.968788
0.864569
0.892953
0.949991
0.965604
0.96507
0.957785
0.959024
0.996019
0.998495
0.998501
0.998501
0.998501
0.998501
0.998501
0.998501
0.998495
0.988642
0.95593
0.971892
0.996237
0.996237
0.980063
0.878826
0.882535
0.967758
0.997955
0.997738
0.940468
0.703687
0.696615
0.696603
0.697078
0.796504
0.997805
0.99782
0.997822
0.997822
0.997756
0.978597
0.969748
0.989306
0.975221
0.971379
0.982185
0.957789
0.957821
0.973954
0.998386
0.998501
0.998501
0.998501
0.998501
0.998501
0.991963
0.997553
0.998416
0.993439
0.984552
0.995476
0.996237
0.984116
0.869425
0.867482
0.925598
0.997997
0.997996
0.997989
0.997964
0.943274
0.717553
0.697078
0.700833
0.879999
0.997768
0.997805
0.99782
0.997821
0.997806
0.983128
0.970055
0.998561
0.998555
0.998548
0.998564
0.988434
0.977974
0.994506
0.9985
0.998501
0.998501
0.998501
0.995917
0.967244
0.963653
0.998343
0.998343
0.998343
0.998285
0.998081
0.950936
0.850908
0.851419
0.868413
0.997736
0.997995
0.997998
0.998013
0.998043
0.998047
0.99802
0.858548
0.730064
0.851097
0.953143
0.965479
0.995701
0.997806
0.9961
0.976931
0.96347
0.99857
0.99857
0.998573
0.998574
0.998579
0.99856
0.998567
0.99676
0.984413
0.998501
0.998498
0.981512
0.956908
0.959974
0.998343
0.998343
0.998343
0.997993
0.907496
0.850861
0.850828
0.850911
0.859346
0.987728
0.997997
0.998017
0.998041
0.998045
0.998047
0.998047
0.998039
0.99797
0.961301
0.81918
0.81918
0.827198
0.909995
0.897655
0.931999
0.944387
0.99857
0.99857
0.998571
0.998572
0.998572
0.998575
0.998571
0.994064
0.982976
0.997552
0.99734
0.964013
0.95674
0.965223
0.998339
0.998343
0.993722
0.892279
0.850837
0.850805
0.850813
0.850828
0.851014
0.958404
0.997988
0.997693
0.99551
0.998047
0.998047
0.998047
0.998048
0.998051
0.998055
0.997247
0.838637
0.720908
0.681947
0.679174
0.678149
0.681383
0.99857
0.99857
0.99857
0.99857
0.998572
0.998572
0.998574
0.996334
0.982972
0.997472
0.995276
0.956471
0.95642
0.972711
0.998327
0.998277
0.964325
0.850837
0.850805
0.850805
0.850805
0.850813
0.853506
0.977134
0.99782
0.965526
0.951361
0.99805
0.998047
0.998048
0.998051
0.998054
0.998065
0.998077
0.998077
0.998061
0.939772
0.789603
0.675544
0.675544
0.99857
0.99857
0.99857
0.99857
0.998569
0.998569
0.99857
0.99857
0.98318
0.987157
0.994458
0.956386
0.956243
0.969804
0.998265
0.991699
0.955713
0.922173
0.856327
0.850805
0.850806
0.850873
0.902607
0.994469
0.987201
0.943523
0.94333
0.970046
0.998046
0.998045
0.998048
0.998062
0.998077
0.998077
0.998077
0.998077
0.998062
0.997848
0.837851
0.680708
0.893864
0.99857
0.998571
0.998571
0.998571
0.99857
0.99857
0.99857
0.988629
0.967539
0.994466
0.963829
0.955899
0.957658
0.989641
0.974986
0.953491
0.985599
0.975731
0.875393
0.850873
0.851646
0.973053
0.994527
0.993949
0.953663
0.943864
0.953396
0.997922
0.998003
0.998013
0.99801
0.998065
0.998077
0.998077
0.998076
0.998055
0.994552
0.955879
0.921862
0.754631
0.798901
0.965159
0.998573
0.998573
0.998573
0.99857
0.99857
0.995318
0.967132
0.991169
0.991677
0.955712
0.955062
0.95504
0.953491
0.953257
0.988774
0.989141
0.96652
0.85914
0.919185
0.994541
0.994552
0.994527
0.994419
0.9679
0.864864
0.900642
0.991698
0.997074
0.987276
0.970943
0.998068
0.998076
0.998067
0.99698
0.987088
0.937445
0.920995
0.822778
0.801885
0.921038
0.979314
0.998392
0.998571
0.99857
0.99857
0.998569
0.966715
0.989408
0.993499
0.961861
0.95532
0.955044
0.965818
0.95074
0.971902
0.989133
0.989133
0.975293
0.986616
0.994541
0.994508
0.99393
0.990051
0.876119
0.65814
0.501782
0.627716
0.763657
0.887445
0.94895
0.998011
0.998067
0.997271
0.990414
0.990462
0.951926
0.894311
0.990886
0.971275
0.958129
0.962845
0.991154
0.998567
0.998569
0.998569
0.998544
0.966005
0.98674
0.993499
0.98987
0.955719
0.956528
0.995612
0.95074
0.951289
0.982527
0.984563
0.933428
0.923699
0.903463
0.933628
0.885389
0.793056
0.595562
0.41681
0.365157
0.365114
0.364998
0.571493
0.868627
0.968207
0.997812
0.996452
0.989881
0.990318
0.990004
0.915134
0.997455
0.997455
0.996559
0.982207
0.986865
0.997337
0.998568
0.998569
0.978856
0.965885
0.966534
0.99314
0.99711
0.977123
0.986227
0.997369
0.975329
0.951983
0.952703
0.990425
0.997005
0.915638
0.805642
0.778671
0.729432
0.42768
0.364882
0.365058
0.365149
0.365019
0.364963
0.36497
0.466044
0.883143
0.994198
0.996436
0.992804
0.984456
0.988078
0.988368
0.997455
0.997464
0.997475
0.997464
0.991255
0.991392
0.995504
0.99846
0.972183
0.965867
0.965875
0.9884
0.997352
0.997408
0.997423
0.997448
0.997393
0.973974
0.965956
0.994813
0.997322
0.957996
0.866006
0.921556
0.820885
0.381965
0.363149
0.365209
0.365022
0.364996
0.36497
0.364963
0.36497
0.714934
0.995309
0.996458
0.996456
0.926044
0.949327
0.988417
0.997457
0.997475
0.997475
0.997475
0.997473
0.996047
0.996412
0.997962
0.99212
0.969459
0.973228
0.994385
0.997447
0.997455
0.997456
0.997455
0.997452
0.997406
0.997141
0.997344
0.997344
0.988086
0.968843
0.967395
0.676725
0.366737
0.365274
0.364845
0.365259
0.365126
0.364996
0.36497
0.365129
0.691221
0.995388
0.996456
0.996466
0.926064
0.930987
0.98803
0.84546
0.892846
0.997475
0.997475
0.997475
0.997446
0.997632
0.997831
0.997746
0.996659
0.997144
0.99745
0.997457
0.997458
0.997458
0.997456
0.997456
0.997423
0.997407
0.997355
0.997344
0.997346
0.997266
0.668756
0.373529
0.370065
0.366831
0.436036
0.480619
0.389144
0.36535
0.365138
0.43808
0.920132
0.996224
0.996402
0.996456
0.926721
0.95025
0.987753
0.926697
0.878521
0.878221
0.886795
0.945844
0.987354
0.986684
0.989832
0.997515
0.997423
0.99745
0.997457
0.997458
0.997458
0.997458
0.997458
0.971954
0.971692
0.997329
0.995946
0.98424
0.927838
0.793396
0.531765
0.401394
0.376429
0.563814
0.961582
0.966281
0.83264
0.402289
0.449187
0.84211
0.995705
0.996067
0.996213
0.996402
0.898847
0.962278
0.987531
0.98437
0.953985
0.952663
0.953481
0.945447
0.948753
0.949072
0.95284
0.966888
0.964499
0.954211
0.924016
0.926691
0.948125
0.931827
0.908811
0.957625
0.974735
0.85161
0.805619
0.805196
0.805415
0.928847
0.993697
0.993011
0.992403
0.992401
0.992403
0.967013
0.906024
0.956774
0.986393
0.982479
0.988304
0.995706
0.994764
0.980362
0.877097
0.947325
0.987483
0.998475
0.998475
0.997769
0.997682
0.997417
0.995831
0.988631
0.9912
0.989447
0.910751
0.889942
0.888943
0.888262
0.888943
0.890218
0.891151
0.960126
0.989445
0.941694
0.951119
0.981248
0.992875
0.993927
0.993792
0.991242
0.991435
0.991742
0.961745
0.95029
0.963716
0.975487
0.987094
0.995219
0.99532
0.995359
0.995053
0.972552
0.877075
0.881486
0.966637
0.998475
0.997017
0.992189
0.996989
0.99773
0.99773
0.997729
0.997705
0.997728
0.989799
0.921005
0.888349
0.888449
0.904512
0.943546
0.972175
0.993739
0.994012
0.994004
0.988927
0.991266
0.994288
0.994105
0.993927
0.893611
0.864404
0.864404
0.864404
0.864782
0.885755
0.971324
0.991581
0.994875
0.991179
0.993575
0.994993
0.994942
0.881036
0.864336
0.935399
0.998475
0.978591
0.976409
0.990726
0.99773
0.993524
0.996424
0.997728
0.997728
0.997728
0.992924
0.93406
0.946229
0.988081
0.997937
0.998062
0.997692
0.990746
0.990492
0.991073
0.995188
0.994422
0.976569
0.874782
0.866606
0.866556
0.896004
0.936221
0.934368
0.91357
0.9258
0.988594
0.959504
0.919272
0.976779
0.994942
0.995015
0.92243
0.864273
0.928508
0.984246
0.977067
0.981474
0.99136
0.980204
0.920514
0.919553
0.93775
0.994293
0.997698
0.99773
0.983402
0.984773
0.997506
0.998074
0.998081
0.991934
0.990009
0.990634
0.99519
0.99517
0.992209
0.843424
0.825121
0.894168
0.996748
0.996791
0.996793
0.996791
0.996791
0.996771
0.996442
0.907001
0.906526
0.975759
0.995015
0.99507
0.939815
0.865131
0.936193
0.990948
0.992394
0.996641
0.98267
0.919556
0.919553
0.919551
0.928637
0.995286
0.99773
0.99773
0.99773
0.995556
0.997881
0.998082
0.998082
0.997457
0.994404
0.995192
0.995174
0.994189
0.854954
0.824726
0.824969
0.882863
0.994852
0.996748
0.996791
0.996794
0.996788
0.994251
0.885922
0.825049
0.967363
0.994973
0.995072
0.995042
0.962458
0.866754
0.950911
0.998474
0.998455
0.998434
0.982314
0.932658
0.919551
0.919551
0.919551
0.957355
0.994165
0.993962
0.992621
0.997791
0.998082
0.998082
0.998082
0.998082
0.998071
0.968121
0.887626
0.824848
0.824698
0.824683
0.824726
0.877367
0.985808
0.99134
0.996737
0.996788
0.991537
0.794407
0.793306
0.794499
0.923306
0.994794
0.994973
0.949979
0.851457
0.895117
0.953947
0.998455
0.998435
0.997765
0.997737
0.993301
0.941416
0.948356
0.951908
0.942985
0.967893
0.969557
0.974118
0.989173
0.998078
0.998082
0.998026
0.92812
0.836052
0.825784
0.824848
0.824698
0.824687
0.824698
0.898022
0.993436
0.974985
0.966888
0.98546
0.996718
0.841478
0.758397
0.791631
0.88031
0.839778
0.88392
0.880704
0.851275
0.85153
0.908982
0.953947
0.998414
0.998435
0.996681
0.953412
0.941606
0.94192
0.959642
0.982021
0.982155
0.982004
0.968518
0.972638
0.989001
0.997999
0.998078
0.998054
0.97765
0.971527
0.964074
0.944829
0.946219
0.96766
0.991572
0.99469
0.994699
0.975539
0.966875
0.980188
0.996245
0.841177
0.758397
0.825668
0.880596
0.8326
0.832528
0.87045
0.90506
0.862227
0.884041
0.953639
0.998397
0.998411
0.99794
0.980909
0.978237
0.985027
0.979236
0.955992
0.95559
0.955474
0.955474
0.955474
0.955493
0.955727
0.956085
0.956555
0.986668
0.994447
0.994648
0.994857
0.989977
0.990658
0.994661
0.994697
0.994708
0.994699
0.970489
0.971185
0.994823
0.994007
0.786215
0.747433
0.860432
0.907315
0.901795
0.964523
0.97978
0.882256
0.880663
0.913071
0.99839
0.998392
0.99257
0.945756
0.965886
0.986573
0.986924
0.987169
0.987518
0.986592
0.973976
0.983891
0.992106
0.983679
0.956445
0.957059
0.977109
0.994839
0.99496
0.994993
0.995001
0.995002
0.991615
0.989639
0.993655
0.994699
0.985297
0.962161
0.982695
0.993827
0.896792
0.743478
0.74211
0.817912
0.979665
0.979783
0.979766
0.918877
0.880657
0.90487
0.998247
0.985747
0.945756
0.945337
0.945615
0.951086
0.9826
0.987599
0.987786
0.988641
0.990694
0.992274
0.992259
0.992259
0.991833
0.993672
0.994839
0.99496
0.994993
0.995001
0.995003
0.995002
0.993096
0.989636
0.993783
0.994632
0.983698
0.960523
0.979155
0.995474
0.957815
0.743673
0.741237
0.740365
0.760515
0.962927
0.979782
0.979031
0.880826
0.940759
0.973531
0.970563
0.980578
0.98041
0.979673
0.912212
0.870981
0.867865
0.874269
0.887364
0.904288
0.929034
0.955355
0.963531
0.966136
0.970533
0.973605
0.985416
0.99496
0.994993
0.995001
0.993297
0.990954
0.991339
0.994585
0.994602
0.987205
0.958686
0.977607
0.996627
0.997333
0.795509
0.740365
0.740249
0.740159
0.752089
0.964041
0.978711
0.950147
0.984259
0.994969
0.99657
0.991814
0.975003
0.909599
0.546365
0.453995
0.453459
0.453388
0.453203
0.453142
0.453136
0.474788
0.516684
0.512213
0.512476
0.513404
0.467094
0.459425
0.537161
0.860164
0.993549
0.994226
0.994578
0.994613
0.9946
0.979547
0.957659
0.965623
0.99659
0.997453
0.969558
0.74364
0.740163
0.740296
0.740197
0.791225
0.975328
0.98426
0.984259
0.99803
0.997591
0.969006
0.91055
0.666027
0.456727
0.454059
0.453389
0.453206
0.453149
0.453144
0.45314
0.453138
0.45314
0.453158
0.453656
0.454493
0.455283
0.455783
0.578365
0.942681
0.994181
0.99457
0.99461
0.99461
0.994611
0.961547
0.957458
0.957659
0.986986
0.997765
0.997824
0.944998
0.881962
0.887821
0.78032
0.785034
0.830105
0.970758
0.984259
0.998029
0.998021
0.998023
0.998004
0.985855
0.778215
0.58322
0.492442
0.465086
0.453202
0.453144
0.453138
0.453138
0.453138
0.45314
0.476772
0.602299
0.706668
0.829
0.957542
0.99279
0.993416
0.980548
0.977591
0.994613
0.981978
0.957458
0.957427
0.957458
0.992263
0.997926
0.997879
0.997824
0.982582
0.977636
0.971904
0.815277
0.813879
0.915894
0.98419
0.998029
0.998025
0.998004
0.997997
0.998043
0.998093
0.998107
0.971991
0.881154
0.743704
0.518144
0.478488
0.453138
0.45314
0.453158
0.761517
0.986954
0.996189
0.993639
0.991052
0.96809
0.965116
0.965689
0.974578
0.99096
0.958241
0.957427
0.957452
0.98033
0.997927
0.997956
0.997946
0.976098
0.970195
0.971676
0.994046
0.943105
0.816141
0.91977
0.983671
0.998022
0.998004
0.997979
0.998026
0.998093
0.998107
0.998108
0.998109
0.998108
0.998106
0.982757
0.946232
0.670697
0.598578
0.809403
0.992975
0.996413
0.996325
0.980838
0.962248
0.962248
0.962248
0.976619
0.98441
0.963249
0.957463
0.957487
0.982214
0.99792
0.997957
0.997959
0.997958
0.995546
0.983287
0.98075
0.997083
0.996993
0.954038
0.968926
0.982998
0.997944
0.997751
0.997711
0.997833
0.997831
0.997624
0.998107
0.998108
0.998107
0.998107
0.998106
0.993023
0.852973
0.731366
0.932685
0.996413
0.996429
0.993125
0.966986
0.965225
0.9856
0.992204
0.996563
0.981454
0.958127
0.957817
0.987577
0.99795
0.997959
0.997959
0.997959
0.997959
0.997959
0.997928
0.997725
0.997281
0.997149
0.996993
0.994735
0.981909
0.98515
0.939648
0.950676
0.955293
0.975871
0.997599
0.998108
0.998107
0.998107
0.998107
0.998106
0.998104
0.926691
0.793543
0.818599
0.957915
0.99642
0.996429
0.983332
0.994069
0.996767
0.996864
0.996726
0.962269
0.95856
0.98679
0.997956
0.99796
0.99796
0.997959
0.997961
0.997962
0.997928
0.997725
0.978437
0.956616
0.977589
0.994735
0.95537
0.980636
0.714657
0.544479
0.607231
0.817129
0.951597
0.996109
0.998109
0.998108
0.998107
0.998107
0.998107
0.998104
0.998102
0.998096
0.972396
0.909673
0.909789
0.940012
0.9878
0.996136
0.980787
0.996853
0.996864
0.973889
0.95877
0.99719
0.99796
0.99796
0.99796
0.99796
0.99796
0.997943
0.887577
0.66307
0.608593
0.621302
0.674363
0.805686
0.938369
0.983848
0.503702
0.503702
0.503702
0.794968
0.959903
0.995343
0.998109
0.998109
0.998108
0.998107
0.998106
0.998105
0.998096
0.998084
0.998076
0.988103
0.963056
0.937723
0.983866
0.996357
0.983051
0.825035
0.95612
0.97446
0.958847
0.993081
0.99796
0.99796
0.99796
0.99796
0.997837
0.923148
0.604481
0.604164
0.604422
0.605422
0.607918
0.700992
0.977549
0.985444
0.522466
0.577236
0.845709
0.953124
0.995983
0.998018
0.998109
0.998108
0.998107
0.996234
0.996413
0.996996
0.998084
0.998076
0.998035
0.997983
0.997968
0.991722
0.996355
0.996296
0.891665
0.774702
0.809625
0.963376
0.977342
0.994306
0.99796
0.99796
0.99796
0.99796
0.997914
0.908696
0.604164
0.604164
0.604164
0.604422
0.683183
0.889979
0.985444
0.985455
0.982796
0.987865
0.991792
0.997987
0.998104
0.998106
0.998108
0.998107
0.998091
0.996022
0.99421
0.990489
0.964634
0.954325
0.97383
0.997968
0.99775
0.997491
0.932909
0.858987
0.77454
0.774408
0.774702
0.954488
0.99745
0.997958
0.99796
0.99796
0.997961
0.997961
0.997955
0.987301
0.715564
0.604164
0.604205
0.646884
0.955834
0.985352
0.98546
0.985447
0.979198
0.87555
0.739512
0.89197
0.998078
0.998103
0.998106
0.998091
0.997976
0.997495
0.996364
0.984831
0.905408
0.901365
0.901156
0.940434