/*--------------------------------*- C++ -*----------------------------------*\
  =========                 |
  \\      /  F ield         | OpenFOAM: The Open Source CFD Toolbox
   \\    /   O peration     | Website:  https://openfoam.org
    \\  /    A nd           | Version:  8
     \\/     M anipulation  |
\*---------------------------------------------------------------------------*/
FoamFile
{
    version     2.0;
    format      ascii;
    class       surfaceScalarField;
    location    "7.55";
    object      alphaPhi0.water;
}
// * * * * * * * * * * * * * * * * * * * * * * * * * * * * * * * * * * * * * //

dimensions      [0 3 -1 0 0 0 0];

internalField   nonuniform List<scalar> 
18095
(
2.01031e-08
-1.72173e-07
1.5207e-07
2.32829e-08
-1.97499e-07
1.94319e-07
1.97572e-08
-2.0604e-07
2.09565e-07
1.03294e-08
-2.10415e-07
2.19843e-07
-1.41702e-09
-2.13139e-07
2.24885e-07
-1.26449e-08
-2.13373e-07
2.24601e-07
-2.07068e-08
-2.1185e-07
2.19912e-07
-2.33457e-08
-2.06151e-07
2.0879e-07
-2.00996e-08
-1.97321e-07
1.94075e-07
-1.72039e-07
1.51939e-07
1.55183e-08
-1.87691e-07
1.61534e-08
-1.98134e-07
1.21866e-08
-2.02073e-07
6.95762e-09
-2.05186e-07
1.26773e-09
-2.07449e-07
-5.33961e-09
-2.06766e-07
-1.18663e-08
-2.05323e-07
-1.62572e-08
-2.0176e-07
-1.55644e-08
-1.98014e-07
-1.87603e-07
6.76791e-09
-1.94459e-07
8.38485e-09
-1.99751e-07
7.23923e-09
-2.00927e-07
3.81755e-09
-2.01765e-07
-8.87852e-10
-2.02744e-07
-4.76991e-09
-2.02884e-07
-7.58052e-09
-2.02513e-07
-8.46986e-09
-2.00871e-07
-6.80064e-09
-1.99683e-07
-1.94404e-07
4.4815e-09
-1.9894e-07
4.70652e-09
-1.99976e-07
3.71538e-09
-1.99936e-07
2.29435e-09
-2.00344e-07
5.25074e-10
-2.00975e-07
-1.55051e-09
-2.00808e-07
-3.71187e-09
-2.00351e-07
-4.75191e-09
-1.99831e-07
-4.52527e-09
-1.99909e-07
-1.98929e-07
1.05962e-09
1.08364e-09
1.14739e-09
8.03606e-10
-1.70926e-10
-9.79398e-10
-1.33074e-09
-1.16146e-09
-1.07094e-09
-2.92222e-08
-1.9575e-07
2.24972e-07
-3.1756e-08
-1.99488e-07
2.02022e-07
-2.55374e-08
-2.0146e-07
1.95241e-07
-1.39508e-08
-2.01986e-07
1.904e-07
1.02422e-09
-2.02235e-07
1.8726e-07
1.56776e-08
-2.02057e-07
1.87403e-07
2.64793e-08
-2.01415e-07
1.90613e-07
3.18914e-08
-2.00689e-07
1.95276e-07
2.91902e-08
-1.99249e-07
2.01951e-07
-1.95671e-07
2.24861e-07
-9.4397e-09
-1.8631e-07
-1.56632e-08
-1.93265e-07
-1.36634e-08
-2.03459e-07
-7.24948e-09
-2.084e-07
-1.42192e-09
-2.08063e-07
4.85381e-09
-2.08332e-07
1.20365e-08
-2.08598e-07
1.52868e-08
-2.03939e-07
9.42019e-09
-1.93383e-07
-1.86251e-07
-9.80788e-09
-1.76502e-07
-7.53661e-09
-1.95536e-07
-5.88671e-09
-2.05109e-07
-3.6487e-09
-2.10638e-07
1.30584e-09
-2.13017e-07
6.06395e-09
-2.1309e-07
7.27777e-09
-2.09811e-07
7.95646e-09
-2.04618e-07
9.80982e-09
-1.95236e-07
-1.76441e-07
-6.33345e-09
-1.70169e-07
-8.54782e-09
-1.93322e-07
-8.75581e-09
-2.04901e-07
-4.92834e-09
-2.14466e-07
-1.76098e-09
-2.16185e-07
1.59215e-09
-2.16444e-07
7.00624e-09
-2.15226e-07
7.86057e-09
-2.05472e-07
6.20434e-09
-1.9358e-07
-1.70237e-07
-1.80993e-08
-1.71018e-08
-1.24377e-08
-7.05993e-09
1.64089e-09
9.79868e-09
1.44849e-08
1.78029e-08
1.82978e-08
3.61686e-08
-1.5763e-07
1.21462e-07
3.83411e-08
-1.97544e-07
1.95372e-07
2.77638e-08
-2.09757e-07
2.20334e-07
1.109e-08
-2.15902e-07
2.32576e-07
-8.04959e-09
-2.18314e-07
2.37453e-07
-2.49926e-08
-2.18094e-07
2.35037e-07
-3.61963e-08
-2.16772e-07
2.27976e-07
-4.20677e-08
-2.10796e-07
2.16667e-07
-3.78499e-08
-1.97785e-07
1.93567e-07
-1.57407e-07
1.19557e-07
1.74982e-08
-1.75128e-07
2.08735e-08
-2.00919e-07
1.87207e-08
-2.07604e-07
1.25581e-08
-2.09739e-07
3.08076e-09
-2.08836e-07
-7.20386e-09
-2.0781e-07
-1.58901e-08
-2.08086e-07
-2.00571e-08
-2.06629e-07
-1.73599e-08
-2.00482e-07
-1.74767e-07
7.51669e-09
-1.82645e-07
8.30563e-09
-2.01708e-07
7.1328e-09
-2.06431e-07
1.79471e-09
-2.04401e-07
-2.34298e-09
-2.04699e-07
-5.45121e-09
-2.04702e-07
-8.42432e-09
-2.05113e-07
-8.86971e-09
-2.06184e-07
-7.87304e-09
-2.01478e-07
-1.8264e-07
7.40668e-09
-1.90052e-07
5.28649e-09
-1.99588e-07
6.48732e-09
-2.07632e-07
2.70757e-09
-2.00622e-07
1.39682e-09
-2.03388e-07
-2.26275e-10
-2.03078e-07
-6.08365e-09
-1.99255e-07
-5.21284e-09
-2.07054e-07
-7.22687e-09
-1.99464e-07
-1.89867e-07
3.49202e-08
3.73543e-08
2.49636e-08
1.47416e-08
-1.38611e-09
-1.70614e-08
-2.57032e-08
-3.7481e-08
-3.49949e-08
2.32982e-08
1.89581e-10
-2.3488e-08
3.57454e-08
-1.24515e-08
5.45085e-08
-1.87719e-08
7.22323e-08
-1.77369e-08
8.02237e-08
-7.90488e-09
8.2014e-08
-1.76745e-09
8.1218e-08
8.18591e-10
7.27169e-08
8.58235e-09
4.80729e-08
2.45178e-08
2.8838e-08
1.92359e-08
7.89843e-08
3.85837e-08
-1.13452e-07
5.99095e-08
6.38827e-09
5.86286e-08
-1.64793e-08
6.50331e-08
-2.45736e-08
7.2501e-08
-1.53987e-08
7.52966e-08
-4.58891e-09
7.43516e-08
2.39932e-09
6.92711e-08
1.38304e-08
5.84461e-08
3.52528e-08
4.8934e-08
3.83509e-08
1.63849e-07
4.58253e-08
-1.71209e-07
1.48103e-07
2.19411e-08
1.46919e-07
9.99324e-10
1.33034e-07
-1.00865e-08
1.19645e-07
-3.07293e-09
1.06284e-07
7.36495e-09
9.10217e-08
1.8982e-08
7.07788e-08
3.43824e-08
4.74444e-08
5.84599e-08
7.67395e-08
1.96399e-08
2.47851e-07
3.56393e-08
-2.3778e-07
2.74755e-07
3.22515e-08
2.53807e-07
2.37143e-08
2.20158e-07
2.35802e-08
1.79357e-07
3.77321e-08
1.43652e-07
4.30875e-08
1.05557e-07
5.59478e-08
6.35806e-08
7.6541e-08
2.64095e-08
9.57541e-08
1.03493e-07
-3.93715e-10
2.83266e-07
3.94414e-08
-2.76696e-07
2.72369e-07
4.73774e-08
2.44773e-07
5.13203e-08
2.07107e-07
6.12493e-08
1.67166e-07
7.76762e-08
1.2247e-07
8.68312e-08
6.95232e-08
1.08262e-07
2.525e-08
1.21441e-07
-4.84307e-09
1.2586e-07
1.24439e-07
-2.59163e-08
2.21593e-07
4.40497e-08
-2.26111e-07
2.0792e-07
6.10615e-08
1.76873e-07
8.23709e-08
1.3864e-07
9.94845e-08
9.57095e-08
1.2061e-07
4.17746e-08
1.38573e-07
-3.30895e-10
1.49701e-07
-2.3786e-08
1.4575e-07
-3.82101e-08
1.40292e-07
1.35949e-07
-4.97071e-08
8.259e-08
4.822e-08
-8.66912e-08
6.77454e-08
7.59182e-08
4.02786e-08
1.09847e-07
2.62213e-10
1.37976e-07
-3.8074e-08
1.55511e-07
-6.6597e-08
1.65784e-07
-7.57006e-08
1.60524e-07
-7.66693e-08
1.46725e-07
-7.5727e-08
1.39358e-07
1.35137e-07
-7.4894e-08
-8.15066e-08
6.33297e-08
6.64511e-08
-1.0606e-07
9.9846e-08
-1.25304e-07
1.27871e-07
-1.36024e-07
1.48254e-07
-1.39644e-07
1.58692e-07
-1.3628e-07
1.62802e-07
-1.23214e-07
1.47464e-07
-1.12001e-07
1.35518e-07
-1.03326e-07
1.30672e-07
1.28666e-07
-9.67982e-08
-1.82657e-07
7.17095e-08
1.76122e-07
-1.81385e-07
9.81061e-08
-1.71835e-07
1.17853e-07
-1.65608e-07
1.41558e-07
-1.56279e-07
1.49622e-07
-1.42923e-07
1.49453e-07
-1.31794e-07
1.36341e-07
-1.25256e-07
1.28968e-07
-1.14425e-07
1.19812e-07
1.19252e-07
-1.05003e-07
-1.91446e-07
7.69301e-08
1.88303e-07
-1.81215e-07
9.14465e-08
-1.68398e-07
1.04567e-07
-1.51094e-07
1.2486e-07
-1.36404e-07
1.34873e-07
-1.23593e-07
1.36477e-07
-1.20406e-07
1.3276e-07
-1.15779e-07
1.20972e-07
-1.07349e-07
1.11387e-07
1.1197e-07
-1.00066e-07
-1.64881e-07
7.84197e-08
1.6344e-07
-1.55434e-07
8.37234e-08
-1.39526e-07
8.99705e-08
-1.24036e-07
1.09384e-07
-1.12413e-07
1.23669e-07
-1.02293e-07
1.26621e-07
-9.53708e-08
1.25429e-07
-8.93485e-08
1.1454e-07
-8.22315e-08
1.03491e-07
1.06222e-07
-7.64837e-08
-1.21841e-07
8.22156e-08
1.18046e-07
-1.1793e-07
7.98184e-08
-1.14722e-07
8.67717e-08
-1.09422e-07
1.04094e-07
-9.96961e-08
1.14223e-07
-8.81708e-08
1.17178e-07
-7.88495e-08
1.15698e-07
-7.05518e-08
1.06876e-07
-6.44182e-08
9.73577e-08
9.8175e-08
-5.63709e-08
-5.62627e-08
9.91884e-08
3.92949e-08
-6.55749e-08
8.91323e-08
-7.9695e-08
1.00898e-07
-8.5347e-08
1.09756e-07
-7.82488e-08
1.07135e-07
-6.01007e-08
9.94902e-08
-4.61561e-08
1.02849e-07
-5.33088e-08
1.14029e-07
-6.16041e-08
1.05653e-07
9.31876e-08
-5.66167e-08
3.25002e-09
6.30089e-08
1.43834e-08
8.03239e-09
7.28868e-08
3.91845e-09
9.2293e-08
-3.67161e-09
1.02446e-07
-8.19722e-09
1.04669e-07
-5.50906e-09
9.67639e-08
-3.00165e-09
1.00281e-07
-1.59147e-08
1.26912e-07
-4.23381e-08
1.21269e-07
9.85229e-08
-4.76733e-08
4.96893e-09
4.86933e-08
1.87509e-08
2.11671e-08
5.50651e-08
3.86518e-08
7.35018e-08
4.86186e-08
9.13852e-08
4.27633e-08
1.02613e-07
2.09072e-08
1.0436e-07
3.46312e-09
1.03936e-07
5.39893e-10
1.13105e-07
5.99356e-09
1.07325e-07
8.43815e-08
6.84001e-09
-2.73174e-08
3.95248e-08
4.10625e-08
-1.36135e-08
5.05572e-08
2.71442e-09
6.39332e-08
2.0387e-08
7.294e-08
2.96623e-08
9.22826e-08
2.69587e-08
1.05948e-07
1.85252e-08
1.10916e-07
1.62525e-08
1.13744e-07
1.57863e-08
1.06158e-07
7.47106e-08
2.38239e-08
-2.47938e-08
3.46475e-08
2.96788e-08
-1.38152e-08
3.98639e-08
-1.62352e-09
5.54182e-08
1.06464e-08
7.08355e-08
1.7874e-08
9.60047e-08
2.57502e-08
1.09393e-07
3.01617e-08
1.07014e-07
3.56546e-08
1.07547e-07
4.16551e-08
1.13385e-07
9.50262e-08
3.18096e-08
2.46317e-08
3.83907e-08
-2.837e-08
2.32445e-08
4.05105e-08
2.214e-08
5.69335e-08
2.04492e-08
7.2972e-08
3.2401e-08
8.69596e-08
4.21377e-08
1.05523e-07
5.12959e-08
1.14004e-07
6.2311e-08
1.16374e-07
7.06224e-08
1.13837e-07
1.05567e-07
6.58204e-08
7.46596e-08
3.27287e-08
-7.00879e-08
7.23275e-08
4.17575e-08
7.87138e-08
4.94934e-08
7.90091e-08
7.16729e-08
7.92548e-08
8.55913e-08
8.55056e-08
9.8692e-08
9.43462e-08
1.05857e-07
1.02882e-07
1.08071e-07
1.09949e-07
1.06791e-07
1.05453e-07
1.10066e-07
1.11343e-07
2.75242e-08
-1.04107e-07
1.11648e-07
4.2099e-08
1.08668e-07
5.25804e-08
1.09413e-07
7.11248e-08
1.19334e-07
7.50471e-08
1.30531e-07
8.68753e-08
1.39479e-07
9.87296e-08
1.45883e-07
1.01686e-07
1.49145e-07
1.03534e-07
1.05411e-07
1.49191e-07
1.22882e-07
1.92812e-08
-1.14232e-07
1.27027e-07
3.83618e-08
1.33378e-07
4.66066e-08
1.52981e-07
5.18699e-08
1.66843e-07
6.16078e-08
1.70503e-07
8.42678e-08
1.75262e-07
9.60686e-08
1.75251e-07
1.01703e-07
1.72352e-07
1.06439e-07
1.09495e-07
1.68269e-07
7.01031e-08
8.34109e-09
-6.0241e-08
9.49074e-08
1.06696e-08
1.09401e-07
2.71815e-08
1.45543e-07
1.31341e-08
1.62434e-07
3.78504e-08
1.63015e-07
7.78822e-08
1.66139e-07
9.29393e-08
1.65059e-07
1.02781e-07
1.63147e-07
1.08349e-07
1.09388e-07
1.63255e-07
-7.01569e-08
-2.75843e-08
1.05985e-07
-3.88679e-08
-2.92877e-08
-9.41286e-09
-1.50036e-08
7.16927e-09
-6.99681e-09
4.50868e-08
-2.68209e-09
9.09383e-08
2.96445e-08
1.25796e-07
5.27609e-08
1.47072e-07
7.2028e-08
1.56803e-07
8.75776e-08
1.08718e-07
1.57469e-07
-1.83221e-07
-3.57568e-08
1.41016e-07
-1.78677e-07
-3.37765e-08
-1.60347e-07
-3.32913e-08
-1.06231e-07
-4.88856e-08
-5.74195e-08
-5.34225e-08
-9.98618e-09
-2.02488e-08
2.96067e-08
1.05522e-08
7.56504e-08
2.33685e-08
1.05012e-07
5.55118e-08
7.63712e-08
1.3059e-07
-1.90054e-07
-3.66397e-08
1.90993e-07
-1.83434e-07
-4.0355e-08
-1.6375e-07
-5.29237e-08
-1.50223e-07
-6.23645e-08
-1.41619e-07
-6.19974e-08
-1.12471e-07
-4.93894e-08
-6.62355e-08
-3.1439e-08
-2.15658e-08
-1.28656e-08
1.56448e-08
2.30294e-08
3.44081e-08
5.44021e-08
-2.02803e-07
-6.0777e-08
2.32903e-07
-1.98886e-07
-4.27767e-08
-1.91422e-07
-6.17783e-08
-1.80332e-07
-7.3425e-08
-1.70949e-07
-7.13733e-08
-1.56155e-07
-6.41743e-08
-1.29709e-07
-5.78815e-08
-1.01043e-07
-4.15143e-08
-5.94939e-08
-1.32643e-08
1.14061e-08
-2.53464e-08
-1.81858e-07
-8.08651e-08
2.0653e-07
-1.56844e-07
-6.3321e-08
-1.61609e-07
-6.27849e-08
-1.8037e-07
-5.39023e-08
-1.86374e-07
-6.4751e-08
-1.86107e-07
-6.44388e-08
-1.77378e-07
-6.65935e-08
-1.58758e-07
-6.01011e-08
-1.25084e-07
-4.69054e-08
-1.99588e-08
-9.35468e-08
-1.82477e-07
-9.19736e-08
1.9938e-07
-1.63356e-07
-7.80527e-08
-1.54889e-07
-7.25485e-08
-1.25082e-07
-8.50535e-08
-1.34444e-07
-5.66649e-08
-1.56589e-07
-4.33537e-08
-1.79326e-07
-4.41588e-08
-1.88574e-07
-5.19443e-08
-1.7437e-07
-6.10875e-08
-4.47171e-08
-1.49584e-07
-1.71958e-07
-6.65599e-08
1.48723e-07
-1.68111e-07
-8.08289e-08
-1.57406e-07
-8.22394e-08
-1.53525e-07
-8.29886e-08
-1.36344e-07
-7.5169e-08
-1.0922e-07
-7.19088e-08
-1.18775e-07
-3.59526e-08
-1.43617e-07
-3.36563e-08
-1.60175e-07
-4.29754e-08
-3.78126e-08
-1.68661e-07
-1.27923e-08
-3.14632e-08
-2.59753e-08
-5.323e-08
-3.96077e-08
-1.15313e-07
-1.9026e-08
-1.32999e-07
-6.43594e-08
-1.36122e-07
-7.12165e-08
-1.43392e-07
-5.53783e-08
-1.2915e-07
-5.15619e-08
-1.17031e-07
-4.7143e-08
-1.16316e-07
-4.50578e-08
-2.60991e-08
-1.4131e-07
2.92249e-08
-2.4602e-08
-4.76318e-08
2.85279e-08
-3.93313e-08
8.07936e-09
1.26955e-09
-3.83711e-08
-1.55833e-08
-7.38639e-08
-3.4981e-08
-8.84746e-08
-3.93686e-08
-9.76281e-08
-3.96713e-08
-9.87325e-08
-4.51358e-08
-8.77472e-08
-5.76647e-08
-4.13809e-08
-7.4271e-08
5.82144e-08
-1.77704e-08
-6.50464e-08
4.02823e-08
-2.14005e-08
2.89274e-08
6.96625e-09
1.8003e-08
-5.91909e-09
8.95786e-09
-2.55131e-08
-5.48185e-09
-2.48203e-08
-3.18957e-08
-1.36631e-08
-5.46539e-08
-2.23777e-08
-8.42756e-08
-3.13352e-08
-2.03094e-08
-1.0758e-07
9.68349e-08
-2.26606e-10
-1.1438e-07
7.40272e-08
1.40607e-09
6.47342e-08
1.62579e-08
3.60267e-08
1.67756e-08
1.06853e-08
8.62675e-10
-1.50199e-08
8.55664e-10
-2.09037e-08
-7.77932e-09
-2.76085e-08
-1.56729e-08
-3.74809e-08
-2.14627e-08
-1.88198e-08
-3.89705e-08
1.24479e-07
1.13804e-08
-1.36088e-07
1.11221e-07
1.46632e-08
1.07417e-07
2.00596e-08
9.28498e-08
2.88174e-08
6.76813e-08
2.83495e-08
4.74787e-08
2.24245e-08
3.67119e-08
2.9874e-09
3.17959e-08
-1.07568e-08
2.55356e-08
-1.52024e-08
-9.54248e-09
1.62583e-08
1.35703e-07
9.75989e-09
-1.34083e-07
1.26361e-07
2.40032e-08
1.13619e-07
3.27997e-08
1.0723e-07
3.51319e-08
1.04342e-07
3.13401e-08
1.02378e-07
2.47037e-08
9.12717e-08
1.41894e-08
7.77985e-08
2.71641e-09
6.56772e-08
-3.08104e-09
8.03498e-10
5.53311e-08
1.15269e-07
1.30492e-08
-1.18558e-07
1.01252e-07
3.80193e-08
9.09829e-08
4.22219e-08
9.24865e-08
3.35746e-08
9.90102e-08
2.48204e-08
1.0334e-07
2.03738e-08
1.02961e-07
1.45685e-08
9.73253e-08
8.35256e-09
8.94239e-08
4.82032e-09
6.68596e-09
8.35415e-08
4.68047e-08
-1.20272e-10
-3.42474e-08
5.8684e-08
2.59868e-08
7.21084e-08
2.85789e-08
8.78621e-08
1.84134e-08
1.00835e-07
1.18482e-08
1.1079e-07
1.04192e-08
1.15269e-07
1.00898e-08
1.11869e-07
1.17526e-08
1.01041e-07
1.56479e-08
1.77166e-08
9.00106e-08
3.13694e-08
-3.36577e-08
2.3286e-09
6.51224e-08
-7.47331e-09
1.01328e-07
-4.98847e-09
1.2705e-07
-6.06629e-09
1.36819e-07
2.07885e-09
1.40205e-07
7.03298e-09
1.39916e-07
1.03788e-08
1.37316e-07
1.43525e-08
1.30102e-07
2.28624e-08
2.91803e-08
1.18638e-07
1.96366e-09
-3.41987e-08
7.73175e-10
2.30127e-08
-2.67217e-08
5.36418e-08
-3.3963e-08
8.10938e-08
-3.34536e-08
1.00482e-07
-1.72953e-08
1.12115e-07
-4.59892e-09
1.16629e-07
5.8647e-09
1.22219e-07
8.76191e-09
1.30702e-07
1.43795e-08
2.47771e-08
1.35106e-07
-4.00835e-08
-3.9671e-08
4.48555e-08
-3.05084e-08
-3.69957e-08
-2.21841e-08
-4.14098e-08
-1.17468e-08
-4.33196e-08
1.08355e-08
-3.9684e-08
3.60621e-08
-2.85204e-08
6.0872e-08
-1.72851e-08
8.64814e-08
-1.58251e-08
1.21421e-07
-1.94312e-08
-1.76274e-08
1.64441e-07
-2.36473e-08
-3.50518e-08
1.83027e-08
-1.95325e-08
-4.14394e-08
-2.07163e-08
-4.1502e-08
-2.0386e-08
-4.4722e-08
-4.45001e-09
-5.67147e-08
1.78314e-08
-5.14044e-08
5.34488e-08
-5.35051e-08
9.86584e-08
-6.16373e-08
1.41142e-07
-5.96922e-08
-5.47714e-08
1.82117e-07
1.21286e-07
-2.85477e-08
-1.27236e-07
1.22136e-07
-4.12943e-08
1.29082e-07
-4.64209e-08
1.35928e-07
-5.09371e-08
1.36716e-07
-5.68768e-08
1.36207e-07
-6.14333e-08
1.52398e-07
-7.04391e-08
1.71841e-07
-7.72132e-08
1.95717e-07
-8.3559e-08
-8.28123e-08
2.23744e-07
2.31502e-07
-2.97098e-08
-2.30609e-07
2.24693e-07
-3.45501e-08
2.18451e-07
-4.04151e-08
2.34296e-07
-4.85277e-08
2.40812e-07
-5.84416e-08
2.51393e-07
-7.19668e-08
2.6645e-07
-8.57078e-08
2.86166e-07
-9.71265e-08
3.14387e-07
-1.11958e-07
-1.1696e-07
3.48526e-07
2.42666e-07
-2.30637e-08
-2.63137e-07
2.36283e-07
-3.46789e-08
2.38495e-07
-4.26438e-08
2.38077e-07
-4.80535e-08
2.44985e-07
-6.04569e-08
2.65193e-07
-7.97904e-08
2.84249e-07
-1.04834e-07
3.09056e-07
-1.22042e-07
3.38143e-07
-1.41121e-07
-1.47919e-07
3.69063e-07
2.41376e-07
-2.37866e-08
-2.40653e-07
2.23602e-07
-3.30479e-08
2.1585e-07
-3.51338e-08
2.20007e-07
-4.35752e-08
2.24895e-07
-6.00551e-08
2.32864e-07
-8.70546e-08
2.4308e-07
-1.14686e-07
2.56829e-07
-1.36054e-07
2.7224e-07
-1.56641e-07
-1.67042e-07
2.9128e-07
2.11093e-07
-1.83251e-08
-2.17553e-07
1.86536e-07
-1.32426e-08
1.65537e-07
-1.29521e-08
1.4944e-07
-2.666e-08
1.41473e-07
-5.03561e-08
1.31327e-07
-7.68882e-08
1.18846e-07
-1.03211e-07
1.12747e-07
-1.29955e-07
1.14751e-07
-1.59095e-07
-1.78763e-07
1.24116e-07
1.44688e-07
2.09192e-08
-1.89977e-07
1.12641e-07
2.11208e-08
8.2869e-08
1.86182e-08
5.64226e-08
-1.64634e-09
3.54515e-08
-3.10463e-08
1.95569e-08
-6.23466e-08
9.83883e-09
-9.34929e-08
6.12757e-09
-1.26244e-07
-1.31158e-10
-1.52836e-07
-1.73238e-07
-5.65553e-09
3.44444e-08
9.8887e-08
-1.13035e-07
-1.89435e-08
7.34938e-08
-3.95759e-08
3.82367e-08
-5.30501e-08
1.11134e-08
-5.96391e-08
-2.44578e-08
-6.23808e-08
-5.96058e-08
-6.84627e-08
-8.74116e-08
-7.55922e-08
-1.19114e-07
-8.18887e-08
-1.46539e-07
-1.65632e-07
-8.94944e-08
-6.19593e-08
1.1684e-07
4.37923e-08
-8.14293e-08
9.25782e-08
-9.17505e-08
4.8631e-08
-1.0077e-07
2.01328e-08
-1.05903e-07
-1.93251e-08
-1.16267e-07
-4.92417e-08
-1.34333e-07
-6.93462e-08
-1.45057e-07
-1.08391e-07
-1.51151e-07
-1.40445e-07
-1.61029e-07
-1.55754e-07
-8.38873e-08
1.11907e-07
9.00181e-08
-8.25079e-08
9.11693e-08
-9.59499e-08
6.20893e-08
-1.06169e-07
3.03583e-08
-1.09837e-07
-1.54087e-08
-1.20839e-07
-3.76269e-08
-1.42902e-07
-4.70812e-08
-1.59515e-07
-9.17691e-08
-1.69525e-07
-1.30431e-07
-1.54883e-07
-1.7567e-07
-3.18893e-08
1.02268e-07
3.81604e-08
-2.27475e-08
8.18651e-08
-2.80815e-08
6.70038e-08
-4.51506e-08
4.63696e-08
-7.41696e-08
1.36213e-08
-7.55552e-08
-3.24139e-08
-7.76077e-08
-3.84052e-08
-9.81921e-08
-6.78924e-08
-1.11244e-07
-1.13086e-07
-1.49259e-07
-1.16856e-07
1.50978e-07
1.03476e-07
-1.48214e-07
1.39351e-07
9.33492e-08
1.33914e-07
7.20506e-08
1.17817e-07
5.22783e-08
1.13923e-07
1.48364e-08
1.11683e-07
-2.8853e-08
1.32646e-07
-6.63874e-08
1.49679e-07
-9.18518e-08
1.49514e-07
-1.10079e-07
-1.17284e-07
1.2234e-07
2.56717e-07
1.09158e-07
-2.21601e-07
2.43264e-07
1.06546e-07
2.22845e-07
9.18744e-08
2.03081e-07
6.91961e-08
1.99469e-07
1.87809e-08
2.02094e-07
-3.11324e-08
2.04189e-07
-6.80778e-08
2.19315e-07
-1.07042e-07
2.13027e-07
-1.23673e-07
-1.17996e-07
1.77386e-07
1.87827e-07
1.10831e-07
-1.80947e-07
2.08613e-07
8.43568e-08
2.05339e-07
9.37577e-08
1.99755e-07
7.25301e-08
1.98157e-07
1.55279e-08
1.64446e-07
-4.37547e-09
1.20523e-07
-2.52835e-08
9.53842e-08
-5.73447e-08
1.02e-07
-6.79217e-08
-7.73053e-08
1.10259e-07
-1.15893e-07
1.15586e-07
1.16453e-07
-1.32934e-07
9.47107e-08
-1.17121e-07
7.59512e-08
-8.77154e-08
4.10542e-08
-6.72916e-08
-1.18289e-08
-3.69408e-08
-4.00609e-08
-2.69564e-08
-4.04519e-08
-3.40983e-08
-5.60179e-08
-3.38506e-08
-7.39845e-08
-1.02744e-07
-2.3917e-08
-4.74733e-07
3.01392e-09
3.54608e-07
-4.8294e-07
-3.28177e-09
-4.35393e-07
-2.68411e-09
-3.64863e-07
-3.06564e-08
-3.29359e-07
-4.57845e-08
-3.2879e-07
-3.75485e-08
-2.092e-07
-4.32192e-08
-1.47912e-07
-7.93986e-08
-2.50106e-07
-1.21793e-07
-1.20755e-07
-3.49301e-07
-4.72008e-07
-8.09092e-08
5.5703e-07
-4.20122e-07
-5.5305e-08
-4.02836e-07
-1.89625e-08
-4.44122e-07
1.16871e-08
-4.97243e-07
9.7142e-09
-4.7769e-07
-2.72492e-08
-4.14627e-07
-7.38197e-08
-4.94608e-07
-1.21645e-07
-4.75954e-07
-1.38575e-07
-1.46748e-07
-4.53268e-07
-4.09207e-07
-7.84066e-08
4.09666e-07
-4.19145e-07
-1.85958e-08
-4.21369e-07
5.89751e-08
-5.39743e-07
7.55201e-08
-7.25091e-07
6.24321e-08
-6.80025e-07
-7.0591e-08
-5.97472e-07
-1.54648e-07
-5.41892e-07
-1.75502e-07
-5.03877e-07
-1.74499e-07
-1.55294e-07
-4.91655e-07
-3.56178e-07
-3.17538e-08
5.08887e-07
-2.51009e-07
1.01779e-08
-2.42047e-07
4.73166e-08
-2.21515e-07
5.16462e-08
-4.27651e-07
2.55416e-08
-5.17643e-07
-5.44292e-08
-5.23742e-07
-1.46827e-07
-5.17506e-07
-1.7952e-07
-5.09361e-07
-1.78648e-07
-1.30634e-07
-3.52972e-07
-2.47491e-07
-6.27236e-08
3.01384e-07
-2.33154e-07
-6.87929e-09
-2.07766e-07
1.88873e-08
-1.81377e-07
2.24982e-08
-1.60825e-07
2.09115e-09
-2.40849e-07
-3.15006e-08
-4.68697e-07
-6.68637e-08
-4.96644e-07
-1.4745e-07
-4.942e-07
-1.6796e-07
-1.28093e-07
-3.58586e-07
-3.24492e-07
-1.76495e-07
6.62193e-07
-2.2902e-07
-1.05071e-07
-1.69034e-07
-4.38578e-08
-1.32217e-07
-1.66141e-08
-1.01613e-07
-3.14243e-08
-9.86658e-08
-3.75374e-08
-2.11696e-07
-4.74263e-08
-3.28755e-07
-9.99537e-08
-3.76793e-07
-1.17607e-07
-1.04704e-07
-3.11248e-07
-6.13479e-07
-3.09745e-07
7.46557e-07
-4.41862e-07
-2.76026e-07
-2.21229e-07
-2.00093e-07
-1.25619e-07
-9.87338e-08
-7.92759e-08
-8.08903e-08
-9.22563e-08
-4.3843e-08
-2.31513e-07
-5.58431e-08
-2.74841e-07
-5.47477e-08
-3.11043e-07
-7.9695e-08
-7.82532e-08
-3.27123e-07
-6.47062e-07
-4.19027e-07
7.55138e-07
-5.17873e-07
-4.06751e-07
-3.63093e-07
-3.57676e-07
-2.13337e-07
-2.51581e-07
-1.75253e-07
-1.05091e-07
-2.20123e-07
-2.89637e-08
-3.09956e-07
-2.23156e-08
-3.2133e-07
-4.16993e-08
-3.23039e-07
-7.56718e-08
-7.54464e-08
-3.23242e-07
-6.98312e-07
-4.50203e-07
7.29314e-07
-6.46036e-07
-4.61986e-07
-5.60744e-07
-4.4606e-07
-4.12767e-07
-3.98664e-07
-2.75629e-07
-2.39355e-07
-1.92907e-07
-7.75345e-08
-1.86254e-07
-4.31704e-08
-1.78207e-07
-6.44631e-08
-2.2811e-07
-3.69072e-08
-3.21886e-08
-2.65231e-07
-6.13907e-07
-3.40132e-07
5.60844e-07
-6.51035e-07
-3.92317e-07
-6.72316e-07
-4.36988e-07
-6.28698e-07
-4.39408e-07
-4.76182e-07
-3.88971e-07
-2.89404e-07
-2.61429e-07
-1.75327e-07
-1.53335e-07
-1.01845e-07
-1.1703e-07
-8.73742e-08
-6.56473e-08
-4.68241e-08
-8.70492e-08
-3.06318e-07
-2.86152e-07
2.78934e-07
-3.46191e-07
-3.59933e-07
-5.16016e-07
-3.20253e-07
-6.32279e-07
-3.615e-07
-5.58202e-07
-4.60179e-07
-3.71769e-07
-4.44696e-07
-1.65041e-07
-3.47985e-07
-1.11193e-08
-2.62422e-07
1.02229e-07
-1.67371e-07
-1.01432e-07
1.2438e-07
-1.24059e-07
-3.87943e-07
1.20633e-07
-1.46915e-07
-3.3849e-07
-1.78217e-07
-3.10343e-07
-2.51096e-07
-3.0375e-07
-3.23054e-07
-3.5706e-07
-2.79175e-07
-4.72654e-07
-1.36186e-07
-4.37056e-07
3.48281e-08
-4.02967e-07
1.96568e-07
-2.70872e-07
-1.58642e-07
3.00997e-07
1.59371e-07
-3.6301e-07
-1.78846e-07
9.5472e-08
-3.70247e-07
8.33573e-08
-3.50257e-07
7.92656e-08
-3.25474e-07
7.10419e-08
-2.98095e-07
3.02155e-08
-3.88143e-07
4.62921e-08
-4.88615e-07
1.24536e-07
-5.30659e-07
2.14239e-07
-3.45555e-07
-1.67202e-07
3.27811e-07
2.74485e-07
-3.32136e-07
-2.97807e-07
2.53818e-07
-3.43473e-07
2.10133e-07
-3.58551e-07
1.53965e-07
-3.68788e-07
1.67415e-07
-3.78348e-07
2.04093e-07
-4.70705e-07
2.77721e-07
-6.01955e-07
2.9212e-07
-5.90582e-07
2.51376e-07
-3.41455e-07
-1.82593e-07
2.7215e-07
3.36552e-07
-1.78544e-07
-2.63248e-07
3.07876e-07
-3.11022e-07
2.80896e-07
-3.29284e-07
2.5841e-07
-3.43986e-07
2.42624e-07
-3.60296e-07
3.17128e-07
-5.56837e-07
3.59517e-07
-6.83262e-07
2.60385e-07
-4.55842e-07
2.5737e-07
-2.96489e-07
-1.49564e-07
2.18809e-07
2.59086e-07
-7.99714e-08
-1.10136e-07
3.10668e-07
-2.41687e-07
2.90069e-07
-3.06373e-07
2.48789e-07
-3.0044e-07
2.17803e-07
-3.26998e-07
2.721e-07
-6.37671e-07
2.30477e-07
-6.27208e-07
2.14434e-07
-3.9365e-07
1.18711e-07
-2.22679e-07
-1.33505e-07
9.19468e-08
2.07976e-07
-3.79979e-08
-1.38512e-07
3.3513e-07
-1.57294e-07
2.83681e-07
-2.51111e-07
2.13262e-07
-2.33183e-07
1.33808e-07
-2.04428e-07
1.51803e-07
-6.02745e-07
1.42505e-07
-6.24407e-07
7.78864e-08
-3.5101e-07
7.3765e-09
-1.73481e-07
-1.87727e-07
5.60023e-09
1.97254e-07
-1.49471e-08
-1.62376e-07
3.86325e-07
-1.06435e-07
3.13887e-07
-1.7082e-07
2.15376e-07
-1.64924e-07
1.36176e-07
-1.49355e-07
1.57096e-07
-5.06227e-07
1.21054e-07
-6.91311e-07
5.635e-08
-3.10041e-07
2.54147e-08
-1.36355e-07
-1.72526e-07
2.70649e-08
3.60852e-07
1.10015e-09
-1.54029e-07
4.07542e-07
-7.21093e-08
3.63025e-07
-1.22855e-07
2.35712e-07
-9.40719e-08
1.2747e-07
-6.96699e-08
7.47559e-08
-3.96417e-07
3.92133e-08
-6.37246e-07
1.32024e-08
-2.93501e-07
5.75368e-08
-1.26945e-07
-9.44871e-08
8.97624e-08
4.33633e-07
2.30588e-08
-1.68858e-07
4.01236e-07
-3.57383e-08
3.4549e-07
-6.57057e-08
2.09688e-07
-3.89524e-08
1.46456e-07
-2.99971e-08
1.06954e-07
-2.91044e-07
6.94074e-08
-5.81749e-07
8.2572e-08
-4.67412e-07
1.37671e-07
-1.89146e-07
-7.54151e-08
1.11761e-07
3.61803e-07
2.79242e-08
-3.18036e-07
3.56524e-07
-2.93854e-08
3.31578e-07
-3.8988e-08
1.97505e-07
-1.04839e-08
1.68549e-07
-2.07947e-08
1.92287e-07
-2.50297e-07
1.94727e-07
-5.68611e-07
1.34988e-07
-5.56327e-07
1.45216e-07
-2.096e-07
-6.66148e-08
1.29314e-07
2.80078e-07
4.73177e-08
-2.98398e-07
2.60212e-07
-9.13144e-09
1.96415e-07
-3.38972e-08
1.49521e-07
-2.17381e-08
1.58203e-07
-4.92128e-08
2.4505e-07
-2.81138e-07
2.52223e-07
-5.68937e-07
1.98958e-07
-5.86175e-07
1.50146e-07
-2.56889e-07
-6.04578e-08
1.37152e-07
2.85601e-07
3.71323e-08
-2.75027e-07
2.75012e-07
1.61693e-09
2.85693e-07
-4.43171e-08
2.56139e-07
-4.95804e-08
2.34691e-07
-4.75173e-08
3.18183e-07
-3.18142e-07
3.29888e-07
-5.78118e-07
3.22028e-07
-5.82003e-07
1.71581e-07
-3.11576e-07
-3.8031e-08
1.55097e-07
2.4223e-07
4.4263e-08
-2.65913e-07
2.25645e-07
1.85909e-08
2.26033e-07
-4.44465e-08
1.56839e-07
-7.61686e-08
2.11442e-07
-1.18967e-07
3.97822e-07
-4.45958e-07
4.27561e-07
-6.02928e-07
4.07253e-07
-5.56531e-07
1.85426e-07
-2.80621e-07
-1.48615e-08
1.93809e-07
2.63518e-07
2.87876e-08
-2.6929e-07
2.77334e-07
2.02265e-08
2.50341e-07
-3.11509e-08
1.93955e-07
-7.37142e-08
2.93749e-07
-2.34795e-07
4.9122e-07
-6.25553e-07
5.23405e-07
-6.31704e-07
4.30084e-07
-4.58281e-07
2.12207e-07
-8.22188e-08
5.57082e-08
1.47374e-07
2.46433e-07
2.65244e-08
-2.45842e-07
2.2509e-07
2.09363e-08
2.09865e-07
-3.00233e-08
2.24692e-07
-7.06194e-08
4.64134e-07
-4.40848e-07
5.40146e-07
-7.01693e-07
4.92415e-07
-5.84117e-07
2.15798e-07
-2.29041e-07
9.52744e-08
1.64978e-08
6.72127e-08
5.73114e-08
1.00639e-07
3.51585e-08
-1.10855e-07
9.06618e-08
4.43395e-08
4.50497e-08
2.55698e-08
8.30022e-08
-1.21018e-07
2.56298e-07
-6.3078e-07
2.80147e-07
-7.24428e-07
1.10556e-07
-4.31556e-07
7.17519e-09
-1.09524e-07
9.98445e-09
1.98035e-08
4.96548e-08
8.74739e-09
-3.62511e-08
1.17531e-07
-2.71887e-08
-9.43675e-08
1.24929e-07
-4.75345e-08
1.19994e-08
1.71134e-08
-1.98461e-07
8.94493e-08
-7.01144e-07
1.07641e-07
-7.40862e-07
1.93079e-08
-3.5384e-07
3.25185e-09
-6.78518e-08
7.98566e-09
2.89212e-08
4.23703e-08
2.02345e-08
-5.37104e-08
1.97017e-07
-1.85442e-08
-4.57522e-08
1.64686e-07
-3.19862e-08
-7.62448e-09
2.61843e-08
-2.56273e-07
3.9213e-08
-7.00413e-07
3.67501e-08
-7.37317e-07
3.35995e-10
-3.27225e-07
-3.38613e-08
-2.68606e-08
-1.71971e-08
2.0584e-08
3.25268e-08
-3.14018e-08
2.2618e-08
2.42323e-07
-6.79164e-08
-7.95592e-09
2.12002e-07
-3.27647e-08
2.59318e-08
-3.38769e-08
-2.62783e-07
-3.46062e-08
-6.97967e-07
-3.27345e-08
-7.34948e-07
-2.77657e-08
-3.24572e-07
-1.88636e-08
-9.03429e-09
-2.47899e-09
9.08388e-09
2.9158e-09
-8.56875e-09
7.86421e-08
2.53518e-07
-8.98653e-08
6.38361e-08
2.26783e-07
6.15177e-09
8.86941e-08
-2.99171e-08
-2.34378e-07
-3.73998e-08
-6.85573e-07
-5.04335e-08
-7.22127e-07
-2.963e-08
-3.45736e-07
-3.57286e-09
-5.51846e-09
4.78754e-11
5.63871e-10
1.1212e-09
9.71088e-10
1.36285e-07
2.506e-07
-1.33514e-07
1.4536e-07
2.17631e-07
7.20656e-08
1.48133e-07
5.15212e-08
-2.32236e-07
4.17629e-08
-6.72043e-07
3.36695e-09
-6.84991e-07
-4.90641e-09
-3.91244e-07
7.38436e-10
-6.77586e-09
1.16056e-09
-1.66961e-10
1.38898e-09
5.32801e-10
2.20358e-07
2.15205e-07
-2.10999e-07
1.96306e-07
2.4168e-07
8.58164e-08
2.31257e-07
1.08603e-07
-3.16592e-07
8.53098e-08
-6.42497e-07
7.39028e-08
-6.75764e-07
7.49677e-09
-3.78607e-07
2.74628e-10
-1.08441e-09
1.8796e-10
-3.68658e-10
1.57136e-09
4.34604e-10
1.66241e-07
4.57901e-09
-1.35442e-07
1.2563e-07
6.83367e-08
4.63536e-09
9.64955e-08
4.09088e-08
-3.80556e-07
4.4101e-08
-6.28572e-07
7.80637e-09
-6.41627e-07
-7.01097e-10
-3.70371e-07
-1.23389e-09
-7.2161e-10
-1.84637e-09
2.03831e-10
1.39472e-09
-1.18833e-09
-1.0436e-09
0
-1.41935e-09
-7.39739e-10
2.54183e-09
8.14892e-09
1.42269e-08
3.65103e-08
-3.93505e-07
1.70181e-08
-6.09182e-07
-1.1136e-08
-6.13677e-07
-1.13357e-10
-3.89929e-07
0
-1.00291e-09
-8.56773e-10
1.16149e-09
1.11923e-09
-1.24416e-10
-2.56513e-09
7.12503e-11
1.23375e-09
-4.26028e-10
5.38188e-11
1.35286e-08
-2.40377e-10
3.57998e-08
-4.14005e-07
8.40801e-09
-5.81429e-07
-2.16361e-08
-5.83944e-07
-1.60759e-09
-4.12703e-07
-2.62252e-10
-2.51821e-09
-1.81399e-09
2.90868e-09
1.56301e-09
-6.07752e-10
-1.09298e-10
6.31465e-12
1.62909e-10
-5.57091e-11
-9.13907e-14
1.09393e-08
-1.15343e-08
3.48247e-08
-4.35226e-07
3.05782e-09
-5.49893e-07
-2.58779e-08
-5.54816e-07
-8.06955e-09
-4.32476e-07
0
-1.07956e-08
-1.2916e-09
4.30117e-09
2.5561e-09
-2.08924e-09
-9.72709e-15
3.27387e-13
5.79656e-12
5.25998e-13
-9.56881e-13
1.86696e-08
-3.24182e-08
2.44892e-08
-4.43844e-07
-2.23034e-09
-5.23168e-07
-3.65499e-08
-5.20524e-07
-2.02748e-08
-4.48107e-07
0
-3.09844e-08
-9.37239e-10
2.88074e-09
4.46158e-09
-2.55087e-09
4.59304e-13
3.65595e-14
-2.0364e-13
1.13911e-11
-1.20705e-11
3.46644e-08
-6.74065e-08
3.82077e-08
-4.47641e-07
6.56057e-09
-4.91536e-07
-3.03275e-08
-4.83626e-07
-3.05095e-08
-4.48501e-07
-2.06947e-09
-6.14502e-08
0
5.8977e-10
1.36316e-09
-8.99302e-11
6.13923e-13
1.18451e-14
-6.19682e-13
1.58692e-10
-1.70184e-10
5.96192e-08
-1.28788e-07
5.29572e-08
-4.41639e-07
9.85353e-09
-4.48439e-07
-2.01177e-08
-4.53655e-07
-4.18154e-08
-4.26918e-07
-3.1915e-10
-1.04907e-07
0
5.12072e-11
1.03512e-10
2.85774e-10
7.31194e-14
6.23294e-15
-9.66385e-14
2.18563e-09
-2.35577e-09
6.87683e-08
-1.94701e-07
3.14941e-08
-4.04482e-07
-1.03455e-08
-4.06592e-07
-5.8035e-08
-4.05968e-07
-8.45947e-08
-4.00761e-07
-1.58412e-09
-1.90778e-07
1.43726e-11
-1.65927e-09
8.27796e-11
1.42398e-11
2.41555e-11
-2.40456e-11
-7.88542e-14
1.8251e-08
-2.05832e-08
8.7552e-08
-2.59664e-07
3.68613e-08
-3.53786e-07
-1.4714e-09
-3.68265e-07
-3.72005e-08
-3.70234e-07
-7.74105e-08
-3.60551e-07
-1.54779e-08
-2.54931e-07
-6.40167e-11
-1.7094e-08
1.01842e-11
5.64475e-13
1.40781e-09
-1.43183e-09
-2.61646e-14
6.09033e-08
-8.00263e-08
9.68021e-08
-2.97555e-07
6.1055e-08
-3.18044e-07
9.60293e-09
-3.16813e-07
-4.90068e-08
-3.11625e-07
-9.82602e-08
-3.11294e-07
-5.69588e-08
-2.94321e-07
-1.77226e-12
-7.33512e-08
2.84089e-13
0
2.91269e-08
-3.05586e-08
-6.7738e-14
1.3985e-07
-1.88679e-07
9.31124e-08
-2.50724e-07
3.21649e-08
-2.57096e-07
-1.84698e-08
-2.66178e-07
-6.16207e-08
-2.68474e-07
-1.0513e-07
-2.67785e-07
-1.43907e-07
-2.55547e-07
-2.94507e-08