/*--------------------------------*- C++ -*----------------------------------*\
  =========                 |
  \\      /  F ield         | OpenFOAM: The Open Source CFD Toolbox
   \\    /   O peration     | Website:  https://openfoam.org
    \\  /    A nd           | Version:  8
     \\/     M anipulation  |
\*---------------------------------------------------------------------------*/
FoamFile
{
    version     2.0;
    format      ascii;
    class       volVectorField;
    location    "7.55";
    object      U;
}
// * * * * * * * * * * * * * * * * * * * * * * * * * * * * * * * * * * * * * //

dimensions      [0 1 -1 0 0 0 0];

internalField   nonuniform List<vector> 
9150
(
(0.00484056 -0.078738 0)
(0.0130882 -0.0974799 0)
(0.0109371 -0.104676 0)
(0.00848148 -0.108136 0)
(0.00172779 -0.109666 0)
(-0.00316932 -0.109172 0)
(-0.00939126 -0.107543 0)
(-0.0109444 -0.104509 0)
(-0.0131393 -0.0973461 0)
(-0.00479414 -0.0786468 0)
(0.00581951 -0.0920177 0)
(0.00848489 -0.100475 0)
(0.00742193 -0.102278 0)
(0.00444055 -0.104342 0)
(0.00236364 -0.105193 0)
(-0.0010192 -0.105519 0)
(-0.0042409 -0.104964 0)
(-0.00741962 -0.102255 0)
(-0.00852775 -0.100407 0)
(-0.00582361 -0.0919661 0)
(0.00168332 -0.0954885 0)
(0.00451102 -0.0989778 0)
(0.00371264 -0.101096 0)
(0.00323467 -0.101841 0)
(0.000562821 -0.10269 0)
(-0.00142186 -0.102378 0)
(-0.00344803 -0.101668 0)
(-0.00380864 -0.100911 0)
(-0.00454149 -0.098923 0)
(-0.00168454 -0.0954562 0)
(0.00169436 -0.098417 0)
(0.00242306 -0.100391 0)
(0.00219644 -0.100198 0)
(0.00132392 -0.100741 0)
(0.000873148 -0.10089 0)
(-0.000300768 -0.100936 0)
(-0.00129923 -0.100858 0)
(-0.00220358 -0.10027 0)
(-0.00245317 -0.100366 0)
(-0.00170703 -0.0984043 0)
(0.000161683 -0.0994793 0)
(0.000703638 -0.0995864 0)
(0.000435623 -0.100077 0)
(0.000630169 -0.0998619 0)
(0.000129617 -0.10012 0)
(-0.000288199 -0.100107 0)
(-0.00071254 -0.0998554 0)
(-0.000510773 -0.099958 0)
(-0.000709525 -0.0995756 0)
(-0.000165935 -0.0994811 0)
(0.074422 -0.193783 3.92224e-26)
(0.0492274 -0.184342 0)
(0.0295752 -0.175411 0)
(0.0155718 -0.173758 0)
(0.00511666 -0.175288 0)
(-0.00407159 -0.175653 0)
(-0.0149683 -0.175071 0)
(-0.0294315 -0.175104 0)
(-0.0491532 -0.184126 0)
(-0.0743743 -0.193662 -3.93052e-26)
(0.0584981 -0.14683 9.70111e-27)
(0.0486681 -0.146718 0)
(0.0282117 -0.156434 0)
(0.0204799 -0.15753 0)
(0.0042465 -0.1556 0)
(-0.00561971 -0.155202 0)
(-0.0212406 -0.156035 0)
(-0.0286281 -0.156294 0)
(-0.0486054 -0.146669 0)
(-0.0585201 -0.1468 -9.43649e-27)
(0.0473721 -0.121181 4.21108e-27)
(0.0429874 -0.131213 0)
(0.0299003 -0.133623 0)
(0.0176386 -0.136747 0)
(0.00677067 -0.139856 0)
(-0.00551429 -0.140474 0)
(-0.0168271 -0.138358 0)
(-0.0295386 -0.133669 0)
(-0.042991 -0.131218 0)
(-0.0473771 -0.121207 -4.23165e-27)
(0.036842 -0.0990759 8.3483e-27)
(0.0393286 -0.110134 0)
(0.0224824 -0.120437 0)
(0.0169856 -0.125708 0)
(0.00366957 -0.125279 0)
(-0.00556078 -0.125176 0)
(-0.0179771 -0.123921 0)
(-0.023002 -0.120424 0)
(-0.0394423 -0.110147 0)
(-0.0368718 -0.0990932 -8.44007e-27)
(0.0240468 -0.0817658 -2.00011e-26)
(0.027723 -0.101355 -2.44044e-26)
(0.0201094 -0.108557 -6.14516e-27)
(0.0111975 -0.113803 -5.17437e-27)
(0.00524479 -0.116898 -2.7434e-28)
(-0.00372672 -0.117207 -3.02792e-28)
(-0.00996402 -0.114846 -5.29972e-27)
(-0.0194891 -0.108278 -6.08134e-27)
(-0.0275824 -0.101324 -2.42973e-26)
(-0.0239567 -0.0817507 -1.99385e-26)
(0.0191368 -0.146679 0)
(0.0131996 -0.204988 0)
(0.0219826 -0.217932 0)
(0.00703264 -0.225904 0)
(0.00354396 -0.228021 0)
(-0.0112485 -0.227153 0)
(-0.0143244 -0.222894 0)
(-0.0236393 -0.21653 0)
(-0.0142839 -0.204729 0)
(-0.0197155 -0.146431 0)
(0.0167643 -0.165655 0)
(0.00197024 -0.198717 0)
(0.0160289 -0.208891 0)
(0.0045281 -0.21336 0)
(0.00667298 -0.215646 0)
(-0.00367577 -0.215604 0)
(-0.00231163 -0.214841 0)
(-0.015442 -0.209253 0)
(-0.00177801 -0.198547 0)
(-0.0167549 -0.165256 0)
(0.0142166 -0.172436 0)
(-0.00476842 -0.203743 0)
(0.01035 -0.209473 0)
(-0.000827399 -0.210855 0)
(0.00167214 -0.210787 0)
(-0.00386193 -0.210211 0)
(-5.81537e-05 -0.209701 0)
(-0.0107981 -0.209084 0)
(0.0047123 -0.203543 0)
(-0.0145625 -0.17216 0)
(0.0191968 -0.195862 0)
(-0.00747392 -0.204751 0)
(0.00931929 -0.211027 0)
(0.000177954 -0.205887 0)
(0.00127604 -0.206848 0)
(4.60303e-05 -0.207288 0)
(0.000325447 -0.207528 0)
(-0.00932684 -0.210922 0)
(0.0075141 -0.204582 0)
(-0.0189849 -0.195663 0)
(0.0379959 -0.216557 0)
(0.0111503 -0.204021 0)
(0.0156709 -0.201716 0)
(0.0124218 -0.196367 0)
(0.00130757 -0.192148 0)
(-0.00284452 -0.191589 0)
(-0.0130632 -0.194848 0)
(-0.0157998 -0.201656 0)
(-0.0111272 -0.203983 0)
(-0.0381061 -0.21644 0)
(0.0100372 -0.00759591 0)
(0.01329 -0.0111939 0)
(0.0222554 -0.0138174 0)
(0.0307252 -0.0121303 0)
(0.0385998 -0.00391049 0)
(0.0412282 -0.000159963 0)
(0.0397752 0.000948923 0)
(0.0402133 0.00669259 0)
(0.0334636 0.02053 0)
(0.0154588 0.0215763 0)
(0.0482008 0.0100787 0)
(0.0339824 -0.0148546 0)
(0.028561 -0.0262917 0)
(0.0296666 -0.0267106 0)
(0.0334481 -0.0144071 0)
(0.0371762 -0.00442731 0)
(0.037233 -6.65433e-05 0)
(0.037144 0.00863347 0)
(0.0320594 0.0272682 0)
(0.0253527 0.0368498 0)
(0.0961286 0.0665257 0)
(0.0905933 0.0311567 0)
(0.0797848 -0.00543946 0)
(0.0679781 -0.019039 0)
(0.0616284 -0.0150909 0)
(0.0564004 -0.00484731 0)
(0.0504043 0.00502489 0)
(0.0405902 0.0192186 0)
(0.029733 0.0415991 0)
(0.0180299 0.0597665 0)
(0.140425 0.0513712 0)
(0.144422 0.0293416 0)
(0.136276 0.0118342 0)
(0.122305 0.0019482 0)
(0.0992723 0.00846123 0)
(0.0810669 0.0205175 0)
(0.0647848 0.0354996 0)
(0.0417654 0.0520398 0)
(0.0213141 0.0767486 0)
(0.00551285 0.091574 0)
(0.144853 0.0370167 0)
(0.142378 0.0398725 0)
(0.133003 0.0361089 0)
(0.116669 0.0440534 0)
(0.0923109 0.0649409 0)
(0.0751975 0.061563 0)
(0.0529014 0.0722581 0)
(0.0218483 0.0981046 0)
(0.00349725 0.111153 0)
(-0.0069426 0.113347 0)
(0.116836 0.0359746 0)
(0.108492 0.0516192 0)
(0.0988567 0.0636072 0)
(0.082036 0.070822 0)
(0.0615798 0.0819785 0)
(0.0388102 0.10373 0)
(0.00930965 0.135387 0)
(-0.00798571 0.1381 0)
(-0.0163327 0.134789 0)
(-0.0215774 0.131319 0)
(0.0422846 0.0449495 0)
(0.0384508 0.058623 0)
(0.0322349 0.0869923 0)
(0.0124419 0.116894 0)
(-0.00797294 0.147741 0)
(-0.0257735 0.166206 0)
(-0.0388908 0.164493 0)
(-0.0382405 0.150165 0)
(-0.039299 0.142705 0)
(-0.0371249 0.137694 0)
(-0.0397973 0.0577108 0)
(-0.0452989 0.101582 0)
(-0.0558383 0.138849 0)
(-0.0666959 0.160839 0)
(-0.0699228 0.17062 0)
(-0.0705477 0.172018 0)
(-0.0657058 0.158956 0)
(-0.0585798 0.144371 0)
(-0.0548535 0.137099 0)
(-0.0490043 0.133061 0)
(-0.0936096 0.0732344 0)
(-0.0926359 0.107845 0)
(-0.090616 0.133669 0)
(-0.0859162 0.153424 0)
(-0.0824401 0.161034 0)
(-0.0752493 0.160886 0)
(-0.0696887 0.141634 0)
(-0.0639883 0.131981 0)
(-0.0610105 0.125975 0)
(-0.0539089 0.125328 0)
(-0.09659 0.0768203 0)
(-0.0950012 0.099332 0)
(-0.0901524 0.117523 0)
(-0.0798016 0.138774 0)
(-0.0725302 0.144821 0)
(-0.0655559 0.14407 0)
(-0.062318 0.13641 0)
(-0.0600378 0.125691 0)
(-0.0564958 0.116321 0)
(-0.0517239 0.116987 0)
(-0.0851481 0.0749084 0)
(-0.0822733 0.0853008 0)
(-0.0729548 0.0929683 0)
(-0.0644156 0.112977 0)
(-0.0594173 0.126003 0)
(-0.0545367 0.130203 0)
(-0.0514057 0.130588 0)
(-0.0472813 0.122419 0)
(-0.0427932 0.109882 0)
(-0.0393778 0.11097 0)
(-0.0621305 0.0769517 0)
(-0.061146 0.0774047 0)
(-0.0579117 0.0865431 0)
(-0.0564489 0.107051 0)
(-0.0517139 0.120285 0)
(-0.0473581 0.123647 0)
(-0.0443326 0.121029 0)
(-0.0363742 0.107437 0)
(-0.0336087 0.0999366 0)
(-0.0310248 0.103501 0)
(-0.0247028 0.0920899 0)
(-0.0306722 0.0865597 0)
(-0.0377487 0.0944805 0)
(-0.0434612 0.105696 0)
(-0.0423049 0.109078 0)
(-0.0347514 0.110248 0)
(-0.0251111 0.112036 0)
(-0.0248618 0.106666 0)
(-0.0296208 0.0974338 0)
(-0.0302059 0.0939354 0)
(-0.00225321 0.0977315 0)
(0.00560214 0.0901244 0)
(0.00386528 0.10528 0)
(-0.00117706 0.113128 0)
(-0.0058529 0.107029 0)
(-0.00345772 0.0924471 0)
(-0.00204281 0.0994942 0)
(-0.00163549 0.122589 0)
(-0.0173474 0.115636 0)
(-0.0242251 0.0932227 0)
(-0.00219034 0.0625958 0)
(0.00996044 0.0741779 0)
(0.0191563 0.0979465 0)
(0.02714 0.114689 0)
(0.0263609 0.116545 0)
(0.0206542 0.10712 0)
(0.00490276 0.105427 0)
(-0.000575578 0.131081 0)
(0.00150306 0.135421 0)
(0.00278959 0.101512 0)
(-0.0160221 0.0455425 0)
(-0.0104305 0.0568887 0)
(-0.00248252 0.0806947 0)
(0.00839836 0.10477 0)
(0.0182128 0.118702 0)
(0.0181659 0.124297 0)
(0.0144017 0.126792 0)
(0.0080385 0.131612 0)
(0.00880342 0.12817 0)
(0.0119508 0.0943312 0)
(-0.0142276 0.0325391 0)
(-0.00954173 0.0444908 0)
(-0.00413894 0.0586755 0)
(0.00302856 0.0748667 0)
(0.00862113 0.107534 0)
(0.0141635 0.124428 0)
(0.01809 0.130873 0)
(0.0182817 0.13231 0)
(0.0231176 0.123697 0)
(0.02101 0.091764 0)
(0.0126665 0.0397029 0)
(0.0127017 0.0395766 0)
(0.0109894 0.0580744 0)
(0.00816374 0.0722118 0)
(0.0143641 0.0876331 0)
(0.0176442 0.109481 0)
(0.0229839 0.123436 0)
(0.0292681 0.12654 0)
(0.0350993 0.123261 0)
(0.0356543 0.106564 0)
(0.0404811 0.0419123 0)
(0.0394993 0.0431869 0)
(0.0379529 0.0546186 0)
(0.0397123 0.0800679 0)
(0.0401975 0.0895207 0)
(0.0399864 0.101705 0)
(0.0434421 0.108335 0)
(0.0482273 0.112069 0)
(0.0530328 0.111013 0)
(0.0553979 0.108586 0)
(0.0565746 0.030067 0)
(0.0566691 0.0445038 0)
(0.0572829 0.0520779 0)
(0.0553051 0.0733148 0)
(0.0578901 0.0874949 0)
(0.0623493 0.100687 0)
(0.0680456 0.106586 0)
(0.0706091 0.106012 0)
(0.0738334 0.104704 0)
(0.0742285 0.103837 0)
(0.0595192 0.0284532 0)
(0.0631187 0.0434943 0)
(0.0658806 0.0503876 0)
(0.0699346 0.0635366 0)
(0.0794458 0.0703344 0)
(0.0849391 0.0862449 0)
(0.0876019 0.0967193 0)
(0.0881017 0.100508 0)
(0.0874391 0.103951 0)
(0.0855775 0.107279 0)
(0.0356018 0.0134962 0)
(0.0439283 0.0341374 0)
(0.0537798 0.0505408 0)
(0.0650315 0.0401524 0)
(0.0784013 0.0537555 0)
(0.0838544 0.0851095 0)
(0.0840686 0.0957064 0)
(0.0837637 0.101383 0)
(0.0830093 0.107252 0)
(0.0817426 0.108801 0)
(-0.0653458 -0.00133211 0)
(-0.0444267 -0.0082363 0)
(-0.0180225 0.00574664 0)
(-0.00031896 0.00108719 0)
(0.0138285 0.0293662 0)
(0.0462764 0.0783718 0)
(0.0653135 0.089707 0)
(0.0740462 0.101063 0)
(0.0785312 0.106128 0)
(0.0803034 0.111673 0)
(-0.0923787 -0.0474535 0)
(-0.0920088 -0.0409399 0)
(-0.0868148 -0.0290936 0)
(-0.0721299 -0.0272436 0)
(-0.0496558 -0.0346477 0)
(-0.021413 0.00990175 0)
(0.00956703 0.054546 0)
(0.0377454 0.0749829 0)
(0.0581175 0.0999383 0)
(0.0708225 0.113712 0)
(-0.0959503 -0.0289904 0)
(-0.0942742 -0.0311659 0)
(-0.0855857 -0.0452831 0)
(-0.0774649 -0.0639055 0)
(-0.0752262 -0.0648491 0)
(-0.0644495 -0.0467729 0)
(-0.0440836 -0.0239403 0)
(-0.0227838 -0.00721302 0)
(-0.00072209 0.0418704 0)
(0.0266425 0.0718389 0)
(-0.109901 -0.0500561 0)
(-0.10351 -0.0463814 0)
(-0.0967504 -0.0646268 0)
(-0.092116 -0.0694166 0)
(-0.0883294 -0.0685354 0)
(-0.0825893 -0.0570449 0)
(-0.0724698 -0.0428352 0)
(-0.0591104 -0.0215115 0)
(-0.0398891 0.0121671 0)
(-0.0232371 0.0261081 0)
(-0.103556 -0.0772167 0)
(-0.0936253 -0.0578697 0)
(-0.0874884 -0.0640201 0)
(-0.0897449 -0.066498 0)
(-0.0916343 -0.0734749 0)
(-0.0931047 -0.068845 0)
(-0.0916714 -0.0680916 0)
(-0.0838239 -0.0555425 0)
(-0.073037 -0.0350711 0)
(-0.0545653 -0.0054302 0)
(-0.0984632 -0.0939711 0)
(-0.094098 -0.0792077 0)
(-0.0888999 -0.0757109 0)
(-0.0782509 -0.0756528 0)
(-0.0726025 -0.0604721 0)
(-0.0778924 -0.0511341 0)
(-0.0877945 -0.0601273 0)
(-0.0924037 -0.0615134 0)
(-0.092317 -0.0603876 0)
(-0.0807956 -0.0339502 0)
(-0.0835866 -0.0945535 0)
(-0.0880789 -0.0925434 0)
(-0.084941 -0.0868812 0)
(-0.0862106 -0.0915366 0)
(-0.0824885 -0.0741351 0)
(-0.0694011 -0.0658516 0)
(-0.0649269 -0.0446619 0)
(-0.073028 -0.0456894 0)
(-0.0774817 -0.0568333 0)
(-0.082919 -0.0485533 0)
(0.00924 -0.0491711 0)
(-0.015245 -0.0655667 0)
(-0.0503448 -0.065977 0)
(-0.0625535 -0.0908031 0)
(-0.0664501 -0.0845171 0)
(-0.0788878 -0.0720223 0)
(-0.0800404 -0.0450975 0)
(-0.0707138 -0.0423017 0)
(-0.0666418 -0.0460591 0)
(-0.0685561 -0.0264475 0)
(0.0182877 -0.0268058 0)
(0.01894 -0.0315105 0)
(0.0171069 0.00932018 0)
(-0.0100481 -0.037619 0)
(-0.0273852 -0.0557028 0)
(-0.0432294 -0.0475034 0)
(-0.0503136 -0.0575748 0)
(-0.0552535 -0.0615201 0)
(-0.0534109 -0.0661356 0)
(-0.0464682 -0.0440895 0)
(0.0297702 -0.0225073 0)
(0.025837 -0.0387314 0)
(0.0174102 -0.00290025 0)
(0.0147063 -0.0112745 0)
(0.00896678 -0.0303275 0)
(0.00128174 -0.0309436 0)
(-0.00737287 -0.0238857 0)
(-0.0232528 -0.0359843 0)
(-0.0343756 -0.0488862 0)
(-0.0520839 -0.0304077 0)
(0.0548366 -0.0110743 0)
(0.0433169 -0.00763064 0)
(0.0327342 0.0181691 0)
(0.0293221 0.00189633 0)
(0.0141791 -0.0260256 0)
(-0.00471485 -0.0211712 0)
(-0.00984175 -0.00581283 0)
(-0.011842 -0.00888166 0)
(-0.0162649 -0.0190606 0)
(-0.0186492 -0.0170517 0)
(0.0664137 0.010195 0)
(0.0603662 0.00990743 0)
(0.0525715 0.0153293 0)
(0.050447 0.027104 0)
(0.0449794 0.0270996 0)
(0.0281386 0.022904 0)
(0.0181293 -0.00869809 0)
(0.0168306 -0.0237832 0)
(0.0148073 -0.025956 0)
(0.012572 -0.0198 0)
(0.0686854 0.0124319 0)
(0.0683207 0.019241 0)
(0.0594279 0.0252759 0)
(0.0532108 0.0308597 0)
(0.0530088 0.0300081 0)
(0.0509787 0.0236734 0)
(0.050044 0.0147006 0)
(0.0433027 0.00170615 0)
(0.0358683 -0.00466286 0)
(0.0310527 6.82682e-05 0)
(0.0619836 0.00353649 0)
(0.0559028 0.0286957 0)
(0.0459157 0.0393713 0)
(0.0441388 0.0373365 0)
(0.0470154 0.0310358 0)
(0.0505922 0.0254579 0)
(0.0536961 0.0153178 0)
(0.0503919 0.00414111 0)
(0.0463487 -0.00228703 0)
(0.0431429 5.91887e-05 0)
(0.0235278 0.0200303 0)
(0.0277276 0.0414985 0)
(0.0314893 0.0418336 0)
(0.0389544 0.0286811 0)
(0.0471928 0.0172398 0)
(0.0530593 0.0139392 0)
(0.0573311 0.0119931 0)
(0.0578047 0.0109853 0)
(0.0553686 0.0112624 0)
(0.0452175 0.0125774 0)
(0.00573409 -0.0213885 0)
(0.0236794 0.0185773 0)
(0.040709 0.0226442 0)
(0.0585201 0.0120523 0)
(0.0674074 0.00873361 0)
(0.0698692 0.00820183 0)
(0.0701768 0.00865254 0)
(0.070519 0.0122388 0)
(0.0690219 0.019303 0)
(0.0604483 0.0219272 0)
(-0.000474124 -0.0477993 0)
(0.00256532 -0.035636 0)
(0.0175457 -0.0345337 0)
(0.0332065 -0.0273423 0)
(0.0456158 -0.00762613 0)
(0.0547152 0.00253154 0)
(0.0568153 0.00810333 0)
(0.0597734 0.0116373 0)
(0.0646686 0.021202 0)
(0.0663023 0.0332397 0)
(-0.0246175 -0.0304353 0)
(-0.019364 -0.0252099 0)
(-0.0137264 -0.0356761 0)
(-0.012031 -0.0373666 0)
(-0.00134783 -0.027327 0)
(0.0120802 -0.0129987 0)
(0.0223239 0.00362054 0)
(0.0380532 0.00743764 0)
(0.0505985 0.00735469 0)
(0.0681178 0.0113367 0)
(-0.013064 -0.0482525 0)
(-0.00967657 -0.048749 0)
(-0.0101304 -0.0475355 0)
(-0.0135223 -0.0501302 0)
(-0.00568272 -0.0565244 0)
(0.000780541 -0.046538 0)
(0.017338 -0.0413999 0)
(0.0407952 -0.0449567 0)
(0.0633388 -0.0479876 0)
(0.0806445 -0.0477223 0)
(0.0623201 -0.0288632 0)
(0.0628516 -0.0439883 0)
(0.06303 -0.0470434 0)
(0.0661724 -0.0483231 0)
(0.0705889 -0.0556998 0)
(0.071969 -0.0628275 0)
(0.0758439 -0.0737285 0)
(0.0853598 -0.0812317 0)
(0.0928169 -0.0769098 0)
(0.103097 -0.0663445 0)
(0.12537 -0.0307574 0)
(0.125098 -0.0404554 0)
(0.120886 -0.0485938 0)
(0.117477 -0.0567168 0)
(0.117977 -0.064317 0)
(0.122299 -0.0696151 0)
(0.129052 -0.0761894 0)
(0.137691 -0.0823478 0)
(0.151738 -0.096561 0)
(0.163468 -0.105271 0)
(0.130303 -0.0249341 0)
(0.12758 -0.0329085 0)
(0.127594 -0.0402037 0)
(0.128809 -0.0481721 0)
(0.128251 -0.0607521 0)
(0.129103 -0.0755299 0)
(0.135983 -0.0966437 0)
(0.146275 -0.113854 0)
(0.160512 -0.132199 0)
(0.173879 -0.137465 0)
(0.120451 -0.0215697 0)
(0.121291 -0.0368585 0)
(0.118082 -0.0466185 0)
(0.11294 -0.0506568 0)
(0.111862 -0.0588442 0)
(0.111834 -0.0786306 0)
(0.115326 -0.109379 0)
(0.123603 -0.1305 0)
(0.130458 -0.152144 0)
(0.137894 -0.163887 0)
(0.107763 -0.0251621 0)
(0.102793 -0.0306464 0)
(0.0892152 -0.0294813 0)
(0.078563 -0.0363053 0)
(0.0735108 -0.0591206 0)
(0.0656343 -0.0899441 0)
(0.062243 -0.112102 0)
(0.0581124 -0.129236 0)
(0.0518247 -0.155035 0)
(0.0549365 -0.172654 0)
(0.0875123 -0.0101989 0)
(0.0596345 0.00556848 0)
(0.0513046 0.00682483 0)
(0.0354576 -0.00935201 0)
(0.0185998 -0.0340118 0)
(0.0113617 -0.0568976 0)
(0.0076073 -0.087207 0)
(0.00192142 -0.128543 0)
(0.00085015 -0.159043 0)
(-0.00247267 -0.177297 0)
(0.033252 0.0607219 0)
(-0.00258907 0.0453571 0)
(-0.0182443 0.0375331 0)
(-0.0229488 0.00769198 0)
(-0.0304813 -0.0307554 0)
(-0.030534 -0.0703698 0)
(-0.0320987 -0.099729 0)
(-0.0388036 -0.119026 0)
(-0.0407134 -0.141283 0)
(-0.042953 -0.162989 0)
(-0.0277923 0.123633 0)
(-0.039283 0.0945377 0)
(-0.0445847 0.0370905 0)
(-0.047737 0.0149257 0)
(-0.0524823 -0.020384 0)
(-0.0545554 -0.0500673 0)
(-0.0624363 -0.0744808 0)
(-0.0732077 -0.113829 0)
(-0.0719758 -0.145608 0)
(-0.0822889 -0.163416 0)
(-0.0459382 0.117054 0)
(-0.0413395 0.0927693 0)
(-0.0457125 0.0581783 0)
(-0.0519347 0.0272672 0)
(-0.0537261 -0.0118664 0)
(-0.0554485 -0.0415071 0)
(-0.0671911 -0.0604225 0)
(-0.0786134 -0.103091 0)
(-0.0795982 -0.138376 0)
(-0.0908925 -0.160721 0)
(-0.0235489 0.113624 0)
(-0.0142968 0.0865451 0)
(-0.0120727 0.0598484 0)
(-0.0177237 0.0280141 0)
(-0.0345949 -0.0230187 0)
(-0.0313421 -0.0462472 0)
(-0.0417483 -0.0461434 0)
(-0.0472124 -0.0970376 0)
(-0.0421503 -0.142806 0)
(-0.0581923 -0.170794 0)
(0.0736271 0.107118 0)
(0.0703408 0.0835542 0)
(0.0694205 0.0652884 0)
(0.0583018 0.0557166 0)
(0.0615088 0.0412232 0)
(0.0638234 -0.0124745 0)
(0.0694925 -0.0477285 0)
(0.0731213 -0.0682197 0)
(0.0884836 -0.101932 0)
(0.0827529 -0.128164 0)
(0.129891 0.117728 0)
(0.125338 0.108439 0)
(0.116283 0.0906917 0)
(0.104748 0.0654221 0)
(0.101118 0.000164582 0)
(0.10412 -0.0491699 0)
(0.106717 -0.0869233 0)
(0.106219 -0.106739 0)
(0.120007 -0.118948 0)
(0.133793 -0.121216 0)
(0.0954032 0.108465 0)
(0.0951596 0.0957068 0)
(0.0974213 0.0869903 0)
(0.097678 0.0714696 0)
(0.102593 0.0363679 0)
(0.0992701 -0.00123226 0)
(0.0844637 -0.0412586 0)
(0.0678123 -0.113911 0)
(0.0825582 -0.139152 0)
(0.0849012 -0.124936 0)
(-0.0577068 0.134267 0)
(-0.0774672 0.101578 0)
(-0.0767916 0.128383 0)
(-0.0606824 0.101507 0)
(-0.0881328 0.0122697 0)
(-0.0471104 -0.0267549 0)
(-0.0231726 -0.050826 0)
(-0.0429961 -0.135651 0)
(-0.042811 -0.14561 0)
(-0.0517488 -0.129763 0)
(-0.373096 0.0846287 0)
(-0.353581 0.0670189 0)
(-0.238534 0.0438303 0)
(-0.195825 -0.0211304 0)
(-0.189706 -0.0590225 0)
(-0.170692 -0.0741381 0)
(-0.167512 -0.0856701 0)
(-0.168615 -0.122947 0)
(-0.184568 -0.129359 0)
(-0.179883 -0.128091 0)
(-0.252357 -0.0811366 0)
(-0.218664 -0.0656148 0)
(-0.210981 -0.0464815 0)
(-0.221902 -0.0353531 0)
(-0.252859 -0.0162288 0)
(-0.265362 -0.00861247 0)
(-0.265852 -0.0470439 0)
(-0.26396 -0.110907 0)
(-0.251679 -0.131219 0)
(-0.233045 -0.140528 0)
(-0.208798 -0.0818363 0)
(-0.214904 -0.0483523 0)
(-0.249116 0.02185 0)
(-0.331674 0.0747224 0)
(-0.37978 0.0266111 0)
(-0.364987 -0.0825689 0)
(-0.314226 -0.150579 0)
(-0.283067 -0.170651 0)
(-0.262479 -0.175462 0)
(-0.251828 -0.169107 0)
(-0.255689 -0.0709572 0)
(-0.283129 0.0444248 0)
(-0.305858 0.158468 0)
(-0.301506 0.166694 0)
(-0.297799 0.0391704 0)
(-0.279661 -0.112004 0)
(-0.272015 -0.170397 0)
(-0.271821 -0.187444 0)
(-0.26906 -0.18803 0)
(-0.266087 -0.170321 0)
(-0.341145 -0.0553954 0)
(-0.319416 0.0526359 0)
(-0.284769 0.105064 0)
(-0.255751 0.10537 0)
(-0.228891 0.029792 0)
(-0.223464 -0.111841 0)
(-0.242802 -0.170755 0)
(-0.257356 -0.19117 0)
(-0.262191 -0.191279 0)
(-0.26716 -0.156185 0)
(-0.35083 -0.120617 0)
(-0.293593 -0.0470697 0)
(-0.242284 0.00741714 0)
(-0.201801 0.017942 0)
(-0.139928 -0.0419193 0)
(-0.126363 -0.0733286 0)
(-0.142498 -0.0918956 0)
(-0.162885 -0.124702 0)
(-0.192147 -0.143492 0)
(-0.216677 -0.128598 0)
(-0.348581 -0.232579 0)
(-0.265779 -0.174901 0)
(-0.191103 -0.114013 0)
(-0.149166 -0.0844275 0)
(-0.117615 -0.12428 0)
(-0.120724 -0.138585 0)
(-0.119203 -0.075313 0)
(-0.134263 -0.0723168 0)
(-0.161972 -0.0960436 0)
(-0.170217 -0.0946385 0)
(-0.359067 -0.412325 0)
(-0.299664 -0.379468 0)
(-0.228091 -0.294667 0)
(-0.138465 -0.142006 0)
(-0.109237 -0.0777518 0)
(-0.138044 -0.0546112 0)
(-0.16697 -0.0496887 0)
(-0.166464 -0.0600361 0)
(-0.168763 -0.0860236 0)
(-0.169084 -0.0813168 0)
(-0.381195 -0.472767 0)
(-0.353518 -0.476383 0)
(-0.326158 -0.453605 0)
(-0.2782 -0.36965 0)
(-0.172746 -0.14345 0)
(-0.127321 -0.0393683 0)
(-0.126898 -0.0350425 0)
(-0.108484 -0.0750648 0)
(-0.122265 -0.0809916 0)
(-0.135286 -0.0687782 0)
(-0.375916 -0.486641 0)
(-0.373662 -0.492057 0)
(-0.3704 -0.480327 0)
(-0.362636 -0.439335 0)
(-0.300447 -0.324777 0)
(-0.174477 -0.133753 0)
(-0.121621 -0.0755091 0)
(-0.0769781 -0.0756894 0)
(-0.0589257 -0.0332636 0)
(-0.0490616 -0.036694 0)
(-0.302453 -0.478662 0)
(-0.310563 -0.494144 0)
(-0.344531 -0.488456 0)
(-0.345138 -0.482534 0)
(-0.313129 -0.45404 0)
(-0.231634 -0.398821 0)
(-0.135705 -0.236488 0)
(-0.0478318 -0.177612 0)
(0.0337689 -0.120417 0)
(0.069999 -0.0760244 0)
(-0.0561927 -0.424843 0)
(-0.0717272 -0.437298 0)
(-0.106403 -0.445 0)
(-0.122004 -0.467257 0)
(-0.147129 -0.50099 0)
(-0.154941 -0.521486 0)
(-0.114824 -0.512779 0)
(-0.020768 -0.394883 0)
(0.0609727 -0.254556 0)
(0.139845 -0.127543 0)
(0.0943528 -0.379863 0)
(0.0832068 -0.393663 0)
(0.0722288 -0.410545 0)
(0.0503134 -0.397889 0)
(0.0466757 -0.399818 0)
(0.0327746 -0.476633 0)
(0.0361334 -0.596232 0)
(0.0781662 -0.603826 0)
(0.131479 -0.51711 0)
(0.196732 -0.299451 0)
(0.151328 -0.370535 0)
(0.138839 -0.370996 0)
(0.131538 -0.381163 0)
(0.107431 -0.404934 0)
(0.097186 -0.405287 0)
(0.0781137 -0.461063 0)
(0.154783 -0.594331 0)
(0.203434 -0.633874 0)
(0.215408 -0.577134 0)
(0.225473 -0.383463 0)
(0.187661 -0.330061 0)
(0.16584 -0.348661 0)
(0.154509 -0.362845 0)
(0.136461 -0.366942 0)
(0.122273 -0.386162 0)
(0.127018 -0.539378 0)
(0.200617 -0.730583 0)
(0.225028 -0.717519 0)
(0.233999 -0.614258 0)
(0.209218 -0.39916 0)
(0.204473 -0.276567 0)
(0.176113 -0.309849 0)
(0.159527 -0.339516 0)
(0.132172 -0.339435 0)
(0.126436 -0.363485 0)
(0.118689 -0.648085 0)
(0.15892 -0.805198 0)
(0.188501 -0.760208 0)
(0.167922 -0.568066 0)
(0.0650089 -0.249105 0)
(0.257386 -0.178838 0)
(0.20851 -0.256514 0)
(0.17408 -0.287171 0)
(0.129772 -0.280783 0)
(0.116393 -0.329513 0)
(0.098515 -0.683662 0)
(0.0949211 -0.823723 0)
(0.0927586 -0.709316 0)
(0.0330521 -0.325255 0)
(-0.0139395 -0.186754 0)
(0.300228 -0.0320569 0)
(0.248254 -0.141689 0)
(0.210862 -0.215251 0)
(0.156594 -0.209079 0)
(0.143296 -0.26437 0)
(0.0879625 -0.651965 0)
(0.0631255 -0.798698 0)
(0.0698729 -0.611958 0)
(0.0302342 -0.245567 0)
(0.0129262 -0.196006 0)
(0.253599 0.000155494 0)
(0.253247 -0.0977307 0)
(0.203074 -0.150329 0)
(0.188212 -0.14215 0)
(0.149788 -0.168313 0)
(0.0667504 -0.562859 0)
(0.0297993 -0.759873 0)
(0.0234606 -0.596053 0)
(0.0293547 -0.227409 0)
(0.0587252 -0.22237 0)
(0.237525 0.0477711 0)
(0.24231 -0.0345547 0)
(0.191383 -0.0884385 0)
(0.173373 -0.0775383 0)
(0.148762 -0.0783177 0)
(0.107977 -0.453469 0)
(0.0789643 -0.689702 0)
(0.0465551 -0.674576 0)
(0.124585 -0.406966 0)
(0.16427 -0.217619 0)
(0.207445 0.0317561 0)
(0.187356 -0.0319592 0)
(0.181519 -0.0474423 0)
(0.176124 -0.0248168 0)
(0.159495 -0.027268 0)
(0.147544 -0.380497 0)
(0.148516 -0.651125 0)
(0.131343 -0.675606 0)
(0.131675 -0.521254 0)
(0.16903 -0.192646 0)
(0.1529 0.0460183 0)
(0.136447 -0.0250529 0)
(0.130222 -0.0390357 0)
(0.13347 -0.022117 0)
(0.144453 -0.0611621 0)
(0.168544 -0.388855 0)
(0.175333 -0.637767 0)
(0.170938 -0.658205 0)
(0.1527 -0.53937 0)
(0.161397 -0.180982 0)
(0.14509 0.0482875 0)
(0.146502 0.00470949 0)
(0.139243 -0.0327698 0)
(0.157436 -0.0404637 0)
(0.17306 -0.0667088 0)
(0.190516 -0.381568 0)
(0.217346 -0.625332 0)
(0.218153 -0.640086 0)
(0.194109 -0.527684 0)
(0.159242 -0.14568 0)
(0.129626 0.0410743 0)
(0.123055 0.00312169 0)
(0.109039 -0.0672364 0)
(0.12433 -0.105564 0)
(0.143629 -0.165403 0)
(0.219754 -0.510553 0)
(0.263116 -0.648732 0)
(0.270504 -0.627289 0)
(0.233645 -0.47088 0)
(0.171885 -0.080079 0)
(0.141604 0.0428235 0)
(0.149861 0.0274428 0)
(0.132338 -0.025092 0)
(0.145608 -0.0962766 0)
(0.179169 -0.238547 0)
(0.259263 -0.616831 0)
(0.293221 -0.674971 0)
(0.301464 -0.619767 0)
(0.24652 -0.3251 0)
(0.100246 0.00518801 0)
(0.134835 0.0417799 0)
(0.146314 0.0247234 0)
(0.131706 -0.0356611 0)
(0.165033 -0.104832 0)
(0.194229 -0.442618 0)
(0.257962 -0.706021 0)
(0.283675 -0.715115 0)
(0.290214 -0.601097 0)
(0.215668 -0.118242 0)
(0.0537938 0.122101 0)
(0.0655339 0.0296394 0)
(0.0741513 0.0181661 0)
(0.0240641 -0.00990019 0)
(0.0409368 -0.162658 0)
(0.11539 -0.677792 0)
(0.117515 -0.763214 0)
(0.127278 -0.751298 0)
(0.132028 -0.369569 0)
(0.00264667 0.35676 0)
(-0.0010936 0.299191 0)
(-0.00344773 0.0749521 0)
(-0.038336 0.0928907 0)
(-0.0907485 0.054994 0)
(0.000891261 -0.451363 0)
(0.0332999 -0.721003 0)
(0.0437605 -0.755209 0)
(0.0545616 -0.750628 0)
(0.0662901 -0.22843 0)
(-0.0114652 0.232116 0)
(0.00961575 0.20858 0)
(-0.0074251 0.145613 0)
(-0.0467195 0.150658 0)
(-0.0496305 -0.0266544 0)
(0.0141821 -0.543399 0)
(0.0170926 -0.738922 0)
(0.0114397 -0.767473 0)
(0.00920288 -0.742564 0)
(-0.014699 -0.0730365 0)
(-0.0629106 0.246312 0)
(-0.064531 0.227258 0)
(0.0271912 0.219322 0)
(-0.00332539 0.196435 0)
(-0.00917012 -0.00216699 0)
(-0.0269482 -0.584804 0)
(-0.0108405 -0.739793 0)
(-0.0187664 -0.760859 0)
(-0.0259857 -0.723164 0)
(-0.0101182 -0.0467956 0)
(-0.0498211 0.261121 0)
(-0.00297371 0.386353 0)
(0.0370114 0.250266 0)
(0.0454025 0.222131 0)
(0.0136323 0.0670353 0)
(-0.0108115 -0.543981 0)
(-0.0127159 -0.74172 0)
(-0.0257619 -0.738015 0)
(-0.0354353 -0.721926 0)
(-0.0285559 -0.0128175 0)
(-0.036226 0.196406 0)
(0.104984 0.707587 0)
(0.0548906 0.267886 0)
(0.0733859 0.237329 0)
(0.0621482 0.139014 0)
(0.0269714 -0.455825 0)
(0.0448569 -0.701841 0)
(0.0216431 -0.698383 0)
(-0.00592807 -0.73573 0)
(0.00256135 -0.0599454 0)
(0.266567 0.00248474 0)
(0.261635 0.361001 0)
(0.0984173 0.274163 0)
(0.110284 0.231515 0)
(0.0752185 0.186435 0)
(0.0472419 -0.519946 0)
(0.0623065 -0.681848 0)
(0.0432525 -0.687442 0)
(0.0259796 -0.701783 0)
(0.0504715 -0.638587 0)
(-0.00238958 -0.134103 0)
(0.101003 0.263804 0)
(0.137275 0.234777 0)
(0.137631 0.229283 0)
(0.0231264 0.232362 0)
(0.0193901 -0.606812 0)
(0.0285047 -0.649764 0)
(0.0152023 -0.663412 0)
(-0.00930637 -0.665784 0)
(0.00055776 -0.212417 0)
(-0.14717 0.0296747 0)
(-0.0919393 0.247742 0)
(-0.0298406 0.236171 0)
(0.0732724 0.293351 0)
(-0.0422499 0.374792 0)
(0.0245824 -0.61183 0)
(0.00888713 -0.629354 0)
(-0.00320167 -0.635995 0)
(-0.0215543 -0.645287 0)
(0.00398592 -0.311601 0)
(-0.0373609 0.0511825 0)
(-0.0706741 0.15379 0)
(-0.308673 0.397642 0)
(-0.227885 0.540062 0)
(-0.0141201 0.493794 0)
(0.0248369 -0.614851 0)
(0.00846315 -0.600169 0)
(-0.00655321 -0.601205 0)
(-0.0244962 -0.606676 0)
(0.00573456 -0.286714 0)
(-0.0638949 0.159023 0)
(-0.126517 0.154039 0)
(-0.40755 0.135602 0)
(-0.349467 -0.017241 0)
(0.0295455 -0.483688 0)
(0.0278735 -0.579391 0)
(0.0103125 -0.575097 0)
(-0.00543303 -0.57515 0)
(-0.0244715 -0.578017 0)
(-0.023731 -0.432694 0)
(0.00883163 0.351537 0)
(-0.136058 0.217654 0)
(-0.124277 0.0980434 0)
(-0.0213436 -0.0974543 0)
(0.0494604 -0.524687 0)
(0.025878 -0.546954 0)
(0.00611622 -0.537809 0)
(-0.00850698 -0.540265 0)
(-0.0277893 -0.546595 0)
(-0.0479478 -0.469849 0)
(0.0612373 0.510526 0)
(-0.140382 0.361768 0)
(0.0475204 0.0334987 0)
(0.056993 -0.199976 0)
(0.0577487 -0.49513 0)
(0.0312835 -0.507858 0)
(0.0129226 -0.509763 0)
(-0.00655837 -0.506963 0)
(-0.0254781 -0.505784 0)
(-0.0539635 -0.46666 0)
(-0.00218707 0.555131 0)
(-0.0372956 0.572866 0)
(0.0775147 0.0207224 0)
(0.0617525 -0.203782 0)
(0.0704071 -0.447809 0)
(0.0343298 -0.469114 0)
(0.0142737 -0.46759 0)
(-0.00150039 -0.470149 0)
(-0.0244622 -0.470256 0)
(-0.0555931 -0.451154 0)
(0.0114358 0.402001 0)
(0.138012 0.633824 0)
(0.049085 0.0259637 0)
(0.0641252 -0.179472 0)
(0.0602722 -0.403559 0)
(0.027073 -0.424257 0)
(0.0069119 -0.430598 0)
(-0.0195113 -0.430978 0)
(-0.0423752 -0.420939 0)
(-0.0704489 -0.402361 0)
(-0.0438773 -0.117126 0)
(0.153401 0.520469 0)
(-0.00177464 -0.0062627 0)
(0.0706162 -0.260299 0)
(0.0662379 -0.36341 0)
(0.032844 -0.382967 0)
(0.00796337 -0.38246 0)
(-0.00870671 -0.383858 0)
(-0.0267274 -0.382686 0)
(-0.0618156 -0.358078 0)
(-0.0710234 -0.247787 0)
(0.0519346 0.360636 0)
(0.072799 -0.0717457 0)
(0.0708657 -0.278052 0)
(0.0647728 -0.315001 0)
(0.0414611 -0.329037 0)
(0.0222416 -0.33389 0)
(-0.0124024 -0.334392 0)
(-0.0404294 -0.326089 0)
(-0.069995 -0.315069 0)
(-0.0741402 -0.275721 0)
(-0.00454742 0.16229 0)
(0.101011 -0.168099 0)
(0.0735073 -0.222756 0)
(0.0694925 -0.263657 0)
(0.0292168 -0.282768 0)
(0.00187813 -0.286677 0)
(-0.0211699 -0.282935 0)
(-0.0396985 -0.281689 0)
(-0.0696295 -0.261462 0)
(-0.0763171 -0.220568 0)
(-0.104554 -0.160097 0)
(0.058166 -0.121815 0)
(0.0493345 -0.196927 0)
(0.0427282 -0.234572 0)
(0.0279483 -0.244087 0)
(0.0182803 -0.251764 0)
(-0.00299981 -0.251435 0)
(-0.0168163 -0.245816 0)
(-0.0444289 -0.234525 0)
(-0.0468435 -0.195452 0)
(-0.0602631 -0.117894 0)
(0.000967779 0.00704403 0)
(-0.00446642 0.00241768 0)
(-0.0108226 0.00328003 0)
(-0.0177485 0.00473842 0)
(-0.0261715 0.00242041 0)
(-0.0304286 -0.000332747 0)
(-0.0415214 0.00662063 0)
(-0.0588043 0.0141583 0)
(-0.0792827 0.0177455 0)
(-0.0994042 0.0171695 0)
(-0.113874 0.0120783 0)
(-0.125478 0.00632604 0)
(-0.131182 0.00307313 0)
(-0.134197 0.00131964 0)
(-0.135043 -0.001895 0)
(-0.13237 -0.00464553 0)
(-0.127854 -0.00645629 0)
(-0.12039 -0.00978018 0)
(-0.111475 -0.010084 0)
(-0.103614 -0.00628868 0)
(-0.0983671 -0.00129137 0)
(-0.0981697 0.00158252 0)
(-0.101118 0.00335172 0)
(-0.106827 0.00432085 0)
(-0.11249 0.00411822 0)
(-0.113894 0.00328826 0)
(-0.111913 0.000109259 0)
(-0.102184 -0.00546495 0)
(-0.0867094 -0.0109092 0)
(-0.0695995 -0.0155699 0)
(-0.0530018 -0.0181726 0)
(-0.0387978 -0.017278 0)
(-0.0250886 -0.0152595 0)
(-0.0115133 -0.0127177 0)
(-0.000300963 -0.00892915 0)
(0.00741845 -0.00269494 0)
(0.00931125 -0.00271481 0)
(0.0116603 -0.00102369 0)
(0.0106962 0.00499917 0)
(0.00442905 0.0139794 0)
(0.0113818 0.0335976 0)
(-0.00478975 0.0217463 0)
(-0.0166874 0.0222795 0)
(-0.0307335 0.0234994 0)
(-0.04383 0.020316 0)
(-0.0596397 0.0327741 0)