/*--------------------------------*- C++ -*----------------------------------*\
  =========                 |
  \\      /  F ield         | OpenFOAM: The Open Source CFD Toolbox
   \\    /   O peration     | Website:  https://openfoam.org
    \\  /    A nd           | Version:  8
     \\/     M anipulation  |
\*---------------------------------------------------------------------------*/
FoamFile
{
    version     2.0;
    format      ascii;
    class       volScalarField;
    location    "7.95";
    object      p;
}
// * * * * * * * * * * * * * * * * * * * * * * * * * * * * * * * * * * * * * //

dimensions      [1 -1 -2 0 0 0 0];

internalField   nonuniform List<scalar> 
9150
(
-204.643
-205.647
-206.271
-206.736
-206.971
-206.975
-206.742
-206.268
-205.641
-204.638
-224.696
-225.211
-225.631
-225.955
-226.136
-226.125
-225.943
-225.627
-225.207
-224.693
-244.588
-244.871
-245.123
-245.341
-245.458
-245.457
-245.344
-245.123
-244.869
-244.586
-264.327
-264.502
-264.67
-264.827
-264.907
-264.909
-264.831
-264.67
-264.501
-264.326
-283.949
-284.129
-284.266
-284.395
-284.452
-284.451
-284.396
-284.266
-284.128
-283.948
-118.633
-119.432
-119.148
-118.765
-118.575
-118.583
-118.775
-119.175
-119.468
-118.66
-134.135
-134.852
-135.021
-135.085
-134.997
-134.996
-135.08
-135.012
-134.851
-134.137
-150.623
-151.378
-151.679
-152.034
-152.086
-152.089
-152.04
-151.671
-151.366
-150.613
-167.477
-168.621
-169.084
-169.712
-169.879
-169.884
-169.706
-169.089
-168.619
-167.473
-184.509
-186.553
-187.316
-188.019
-188.284
-188.286
-188.004
-187.308
-186.547
-184.503
-24.9843
-26.3499
-28.324
-29.4705
-30.0016
-30.0659
-29.6114
-28.4664
-26.5348
-25.2521
-45.3293
-45.5749
-46.5824
-46.985
-47.4575
-47.4312
-46.9786
-46.6085
-45.6893
-45.4742
-65.3812
-65.2549
-66.2691
-65.8517
-66.394
-66.4139
-65.974
-66.367
-65.3418
-65.4816
-88.2166
-85.4015
-86.3961
-84.8701
-85.0437
-85.0468
-84.9056
-86.4247
-85.4512
-88.2622
-113.883
-104.339
-103.874
-102.455
-102.085
-102.098
-102.494
-103.911
-104.388
-113.963
1561.66
1561.49
1561.37
1561.27
1561.18
1561.08
1561.05
1561
1560.93
1560.88
1542.33
1542.04
1541.94
1541.9
1541.7
1541.53
1541.46
1541.37
1541.26
1541.19
1523.02
1522.65
1522.79
1522.39
1522.19
1522.05
1521.88
1521.83
1521.62
1521.47
1503.49
1503.25
1503.05
1502.83
1502.67
1502.51
1502.31
1502.18
1502
1501.77
1483.79
1483.59
1483.45
1483.32
1483.2
1483.06
1482.9
1482.74
1482.57
1482.3
1464.11
1463.99
1463.85
1463.81
1463.69
1463.52
1463.4
1463.28
1463.1
1462.88
1444.58
1444.47
1444.37
1444.24
1444.14
1444.03
1443.95
1443.85
1443.78
1443.67
1425.08
1424.98
1424.84
1424.69
1424.54
1424.41
1424.43
1424.48
1424.58
1424.58
1405.86
1405.72
1405.51
1405.23
1404.93
1404.94
1406.12
1405.22
1405.74
1405.95
1386.52
1386.43
1386.02
1386.03
1386.08
1386.07
1386.65
1386.81
1386.65
1386.87
1367.19
1367.39
1367.22
1367
1367.03
1367.46
1367.75
1367.78
1368.21
1368.47
1347.66
1347.45
1347.29
1347.47
1347.87
1348.34
1348.57
1348.63
1348.58
1348.68
1326.99
1327.32
1327.18
1327.8
1328.24
1328.39
1328.88
1329.34
1329.13
1329.7
1305.37
1305.87
1306.41
1307.16
1307.88
1308.55
1309.07
1309.9
1310.39
1310.16
1284.15
1284.59
1285.29
1286.31
1287.3
1288.22
1289.02
1289.98
1290.69
1290.53
1263.9
1264.2
1264.9
1266.02
1267.12
1268.26
1269.56
1270.31
1270.65
1270.63
1245.53
1245.94
1246.77
1247.67
1248.53
1249.26
1249.87
1250.39
1250.71
1250.79
1228.23
1228.56
1228.94
1229.51
1229.93
1230.41
1230.86
1231.13
1231.2
1231.02
1210.09
1210.28
1210.5
1210.75
1211.01
1211.23
1211.37
1211.37
1211.19
1210.74
1191.31
1191.39
1191.53
1191.63
1191.67
1191.7
1191.65
1191.5
1191.2
1190.6
1173
1172.67
1172.28
1172.12
1172.12
1172.15
1172.08
1171.9
1171.66
1171.26
1155.06
1154.12
1153.28
1153.07
1152.99
1153.01
1152.99
1153.12
1153.11
1153.03
1137.77
1137.07
1136.29
1135.68
1134.39
1134.23
1134.35
1134.51
1134.74
1135.04
1117.02
1116.5
1116.8
1117.31
1117.04
1115.93
1116.07
1116.44
1116.71
1116.94
1095.9
1095.88
1095.9
1096.09
1099.18
1097.84
1097.5
1097.89
1098.16
1098.33
1072.77
1073.72
1074.68
1075.09
1076.19
1078.43
1078.93
1079.29
1079.5
1079.57
1052.65
1052.55
1053.08
1055.02
1057.84
1059.42
1060.44
1061.08
1061.26
1061.38
1034.72
1035.51
1036.64
1037.51
1039.14
1040.94
1042.77
1043.22
1042.96
1043.46
1019.07
1020.22
1022.12
1024.89
1026.74
1025.05
1027.8
1025.91
1027.06
1026.93
1004.13
1005
1004.65
1007.55
1007.68
1008.44
1008.91
1008.35
1008.42
1007.64
984.153
983.946
984.515
985.657
986.811
987.317
987.297
987.609
987.229
987.542
961.442
960.113
960.276
961.275
962.507
963.457
964.341
965.48
966.072
966.306
943.198
936.506
933.303
932.517
933.486
936.376
939.862
942.041
943.662
944.142
921.883
918.571
915.997
915.101
915.016
914.976
917.149
919.468
920.158
920.456
907.452
905.337
904.304
901.734
899.418
897.262
895.346
895.704
895.932
895.678
891.699
891.194
889.054
886.538
883.261
879.367
876.316
873.812
871.883
870.245
873.502
872.379
869.376
866.644
863.025
858.604
854.008
849.664
845.65
841.909
855.277
852.687
849.157
845.086
840.514
834.948
828.826
822.892
818.627
815.798
835.364
832.395
828.27
822.824
817.119
812.31
808.581
807.99
803.959
799.025
816.608
813.03
808.521
804.818
804.157
800.311
794.506
791.184
787.244
784.89
799.137
795.89
793.301
791.326
788.464
784.096
783.213
781.407
776.269
771.007
781.832
781.027
778.663
773.256
770.825
767.839
764.743
761.654
758.507
755.358
762.586
768.713
754.845
752.889
750.17
747.449
745.123
743.024
740.647
737.965
740.589
734.781
732.305
730.276
727.836
725.472
723.566
722.386
721.389
720.649
713.44
709.909
708.196
704.972
703.57
702.121
700.529
700.365
700.211
701.982
683.994
681.37
679.545
678.293
677.672
677.939
676.841
677.964
678.994
680.069
650.918
650.053
649.013
648.871
649.208
650.216
651.293
653.091
655.458
657.846
610.961
611.242
612.301
614.048
616.453
619.102
622.578
625.482
628.076
631.156
570.088
567.379
570.331
575.454
581.418
587.232
591.736
595.226
597.863
601.012
542.478
547.719
552.531
554.03
551.732
555.908
561.909
566.2
569.073
571.521
522.434
526.302
532.433
535.661
538.621
539.844
538.668
541.456
543.75
545.511
505.685
511.608
516.807
518.652
517.631
522.931
522.672
521.177
522.53
523.978
487.527
492.104
495.298
497.162
500.248
498.48
504.266
498.337
498.999
499.707
483.877
481.698
480.501
478.101
480.571
480.324
480.794
481.826
477.795
480.12
477.047
478.872
481.195
482.233
480.735
480.288
473.491
488.899
474.745
480.555
460.847
460.478
462.125
465.65
467.014
465.302
468.304
473.305
478.022
478.601
452.11
452.542
451.874
451.546
451.198
451.423
451.545
453.004
456.123
456.81
436.494
434.341
433.243
433.016
432.886
432.682
432.557
432.684
433.217
435.486
407.459
407.563
408.815
411.47
412.524
413.063
411.123
409.939
409.446
409.912
368.785
373.61
380.247
387.577
392.863
396.174
395.048
389.413
385.937
384.445
357.239
357.76
358.8
365.011
374.164
378.576
377.876
375.347
375.694
382.299
351.128
352.144
353.161
352.52
360.053
366.792
368.586
368.244
371.642
370.13
348.026
349.084
349.648
347.017
351.072
355.456
359.12
360.856
361.327
360.976
344.292
344.023
342.925
342.828
345.575
348.756
351.547
354.027
354.563
353.294
340.859
337.35
338.017
338.224
339.161
340.807
343.225
345.6
345.687
345.935
336.955
336.091
332.622
332.451
332.11
332.188
333.445
334.755
335.795
337.711
333.983
328.426
323.03
322.648
320.829
320.112
321.775
326.817
328.892
330.15
318.717
315.027
311.384
307.971
308.75
314.329
315.461
317.142
316.807
318.432
300.153
297.723
295.4
294.139
299.208
301.998
296.564
297.62
304.457
307.18
278.153
277.818
277.094
276.863
275.445
275.414
278.269
278.178
278.43
279.47
260.632
259.586
259.654
258.605
257.662
254.434
251.15
252.715
242.236
240.623
240.41
240.531
236.229
235.127
235.214
240.738
234.516
215.284
202.442
188.103
219.038
219.251
222.899
224.26
227.516
221.802
204.067
186.939
163.217
157.231
204.524
205.204
208.656
209.509
209.598
203.033
188.568
168.855
155.144
157.385
193.296
192.109
191.753
190.777
189.516
183.714
170.791
159.307
158.996
159.079
181.071
184.324
173.44
173.153
171.776
167.604
153.01
147.808
149.769
147.238
177.455
172.017
170.771
167.542
164.275
161.581
143.187
139.091
137.968
136.954
169.204
165.615
162.744
161.472
156.649
156.066
137.486
134.452
132.623
131.868
168.512
167.907
162.372
160.765
153.434
149.4
130.918
127.602
126.439
125.476
171.986
158.888
159.605
163.047
144.637
140.385
121.226
118.776
118.76
118.583
147.536
150.236
145.478
156.645
134.025
131.823
112.197
112.393
113.29
113.793
132.261
131.019
129.765
134.013
126.739
111.569
103.401
105.114
107.393
107.283
109.901
108.551
112.745
112.697
115.755
100.8
96.3041
95.1046
99.5957
99.8615
85.2521
85.4208
86.8085
100.313
98.7775
92.913
95.3613
95.211
93.5879
91.5681
57.9059
59.207
59.3587
75.5584
73.6612
76.2668
80.3763
80.3726
77.1369
73.9336
30.5781
35.2738
32.1943
50.5512
50.3309
52.7518
72.7985
59.3836
69.9114
58.3771
15.7139
20.7998
13.518
31.721
35.6787
37.3729
67.1227
47.4494
48.0832
43.9987
3.98179
6.29847
9.78743
11.479
27.7325
23.3783
42.9033
25.3717
29.0835
26.3653
8.3008
5.17255
-1.14216
-4.64155
18.1492
13.3991
9.49775
3.77349
5.73793
3.63916
-1.47942
-4.51818
-1.06983
-9.21357
12.7179
7.88414
-6.71458
-6.43345
-5.14787
-2.46921
-1.755
-2.03821
-1.37544
-4.63265
8.35367
8.1764
-9.21405
-0.480302
-1.96367
-1.87707
-1.77278
-1.73486
-1.72241
-2.59166
5.19969
6.22164
-4.49429
-1.49578
-1.70216
-1.82686
-1.79211
-1.77029
-1.8898
-2.16145
4.34247
4.07715
-2.29651
-2.09227
-1.71211
-1.73082
-1.81191
-1.80761
-1.8706
-1.67217
2.66087
1.88426
-1.5549
-1.67328
-1.55884
-1.75025
-1.83632
-1.83254
-1.98854
-1.14493
0.897146
1.3595
-1.79919
-1.90327
-1.70707
-1.76238
-1.85907
-1.85601
-2.27142
-1.23927
-0.19935
0.151558
-1.05733
-2.24316
-1.82604
-1.85941
-1.88479
-1.87416
-3.32758
-1.41542
-0.180124
-0.142221
-1.53036
-3.39937
-1.88414
-1.90729
-1.9056
-2.34329
-4.53943
-2.62208
-1.6941
-1.67024
-2.59235
-4.44942
-2.55918
-1.88522
-1.92783
-4.05449
-5.70968
-5.93892
-5.65842
-5.75122
-5.73575
-5.44117
-4.10096
-1.91849
-2.72331
-9.55833
-12.9654
-14.8632
-15.7822
-15.7212
-14.8044
-13.0256
-9.73415
-2.82057
1561.02
1560.91
1560.97
1560.72
1560.31
1559.92
1559.66
1559.46
1559.29
1559.09
1558.85
1558.75
1558.84
1559.06
1559.26
1559.33
1559.43
1559.53
1559.67
1559.88
1560.01
1560.17
1560.27
1560.33
1560.37
1560.42
1560.5
1560.7
1560.83
1560.93
1561.04
1561.22
1561.56
1562.04
1562.5
1562.96
1563.43
1563.78
1563.89
1563.93
1541.28
1541.07
1540.77
1540.46
1540.08
1539.69
1539.42
1539.31
1539.34
1539.42
1539.51
1539.64
1540.66
1541.02
1540.89
1540.62
1540.75
1540.66
1540.2
1540.46
1540.55
1540.62
1540.65
1540.66
1540.72
1540.79
1540.85
1540.93
1541.19
1541.32
1541.28
1541.15
1541.22
1541.6
1542.2
1542.78
1543.38
1543.88
1544.18
1544.32
1521.23
1520.96
1520.68
1520.18
1519.65
1519.15
1518.88
1519.01
1519.31
1519.88
1520.49
1520.5
1520.5
1520.62
1520.78
1520.85
1521.83
1522.03
1522.17
1521.98
1521.38
1521.08
1521.2
1520.99
1520.94
1520.96
1521.06
1521.25
1521.59
1522.1
1522.17
1523.51
1522.84
1522.12
1522.46
1522.89
1523.04
1523.61
1524.2
1524.35
1501.46
1501.18
1500.69
1500.11
1499.64
1499.13
1498.95
1498.84
1498.94
1499.31
1499.9
1501
1500.55
1501.11
1501.32
1501.53
1501.82
1502.1
1502.24
1502.11
1502.53
1502.79
1502.34
1502.56
1502.67
1502.18
1502.37
1502.84
1503.01
1502.99
1503.46
1504.02
1504.2
1504.32
1504.56
1504.61
1504.61
1504.04
1504.78
1504.85
1481.93
1481.63
1481.19
1480.68
1480.43
1480.03
1479.58
1479.65
1479.61
1479.71
1480.83
1480.82
1480.92
1480.91
1480.96
1481.11
1481.61
1482.2
1482.51
1482.7
1482.68
1483.17
1483.55
1482.66
1482.97
1483.21
1483.42
1483.63
1483.81
1484.25
1484.58
1484.84
1485.22
1485.73
1486.04
1486.14
1486.06
1484.98
1485.44
1485.51
1462.58
1462.19
1461.75
1461.29
1460.9
1460.42
1460.18
1459.71
1459.1
1458.59
1458.96
1459.39
1459.36
1459.74
1460.33
1460.57
1461.38
1462.11
1462.62
1463.01
1463.09
1463.06
1463.26
1463.23
1463.41
1463.44
1463.79
1463.89
1464.29
1464.83
1465.24
1465.57
1465.89
1466.31
1466.19
1466.26
1465.86
1465.97
1466.01
1466.81
1443.45
1443.1
1442.57
1442.07
1441.31
1440.7
1439.51
1438.46
1436.44
1435.13
1434.37
1434.54
1435.07
1436.44
1438.35
1439.86
1440.98
1441.71
1442.34
1442.85
1443.2
1443.49
1443.4
1443.9
1444.23
1444.82
1445.3
1445.62
1445.71
1445.73
1446.15
1446.47
1446.61
1446.76
1446.55
1446.56
1446.48
1446.39
1446.21
1447.17
1424.49
1424.4
1424.14
1423.66
1423.05
1421.38
1419.36
1415.97
1412.81
1412.17
1413.76
1415.33
1417.14
1417.19
1418.49
1419.65
1420.5
1421.45
1422.27
1422.95
1423.58
1424.23
1425.17
1425.97
1426.52
1426.74
1427.35
1427.43
1427.25
1427.07
1427.16
1427.28
1427.36
1427.36
1427.19
1427.08
1427.03
1426.94
1426.75
1427.49
1405.78
1406.22
1406.61
1405.62
1404.62
1403.53
1401
1397.65
1396.16
1396.03
1396.2
1396.87
1398.76
1400.87
1398.82
1400.09
1400.9
1401.77
1402.66
1403.56
1404.63
1405.63
1406.7
1407.43
1408.04
1408.32
1408.57
1408.33
1408.47
1408.49
1408.54
1408.52
1408.37
1408.11
1407.78
1407.64
1407.65
1407.66
1407.59
1408.15
1387.28
1387.57
1387.51
1387.28
1386.69
1385.34
1383.57
1380.95
1379.37
1378.13
1382.49
1380.59
1379.52
1380.04
1380.02
1380.48
1381.12
1382.07
1383.11
1384.53
1386.17
1386.69
1387.75
1389.12
1390.13
1390.47
1390.22
1389.88
1389.62
1389.53
1389.45
1389.37
1389.12
1388.7
1388.17
1388.09
1387.92
1388.18
1388.85
1388.9
1368.74
1368.63
1368.79
1368.73
1368.33
1367.35
1365.76
1364.17
1362.77
1361.5
1360.13
1359.3
1359.76
1360.25
1360.88
1361.56
1362.94
1363.93
1364.65
1365.35
1366.23
1366.8
1367.48
1368.43
1369.1
1369.51
1369.83
1369.84
1369.84
1369.85
1369.78
1369.85
1369.79
1369.47
1369.13
1369.3
1370.13
1370.15
1369.94
1370.57
1349.04
1349.3
1349.58
1349.75
1349.67
1349.07
1347.81
1346.26
1344.7
1343.22
1341.91
1339
1342.16
1338.89
1339.32
1339.3
1339.96
1341.27
1342.92
1344.19
1345.64
1347.26
1348.33
1349.53
1350.33
1349.46
1350.06
1349.91
1350.31
1350.11
1349.91
1349.97
1350.44
1350.42
1350.57
1351.38
1352.64
1350.92
1351.65
1351.87
1330.13
1330.5
1330.82
1331.03
1331.02
1330.71
1329.79
1328.14
1326
1324.45
1322.21
1319.87
1319.16
1318.05
1316.7
1316.37
1316.48
1317.47
1318.89
1320.64
1322.53
1325.65
1327.24
1328.59
1329.48
1329.04
1329.87
1330.17
1331.76
1332.42
1332.61
1332.47
1332.47
1332.84
1333.97
1334.33
1333.69
1332.38
1332.94
1333.15
1310.59
1311.04
1311.5
1312.03
1312.53
1312.78
1312.32
1311.03
1309.1
1307.25
1304.11
1300.77
1298.16
1296.01
1293.33
1291.63
1291.26
1292.46
1294.2
1296.08
1298.06
1300.2
1302.41
1304.22
1305.69
1307.05
1308.25
1309.19
1310.11
1310.95
1312.07
1312.27
1312.69
1313.24
1313.81
1314.17
1314.27
1315.11
1313.97
1314.64
1290.76
1291.18
1291.67
1292.31
1293.02
1293.54
1293.49
1292.19
1289.92
1287.31
1283.41
1279.07
1273.99
1271.73
1268.81
1266.67
1265.82
1265.66
1266.98
1269.66
1272.45
1274.91
1277.33
1279.6
1281.84
1283.96
1285.79
1287.33
1288.66
1289.9
1290.99
1291.97
1292.88
1293.69
1294.34
1294.93
1295.45
1294.58
1295.27
1296.12
1270.74
1270.99
1271.38
1271.83
1272.29
1272.49
1272.27
1270.33
1267.49
1264.47
1260.95
1256.41
1251.17
1246.94
1245.97
1244.42
1243.88
1243.53
1244.89
1245.86
1249.23
1251.45
1252.63
1255.24
1258.31
1261.25
1263.67
1265.51
1267.14
1268.72
1270.24
1271.59
1272.7
1273.6
1274.47
1275.11
1275.49
1275.37
1275.39
1277.57
1250.77
1250.62
1250.59
1250.54
1250.32
1249.96
1249.13
1247.23
1244.38
1241.23
1238.12
1235.08
1232.07
1229.23
1227.48
1226.4
1224.84
1224.12
1224.37
1225.98
1228.98
1231.98
1235.75
1233.98
1236.25
1239.6
1242.46
1244.58
1246.29
1247.98
1249.66
1251.25
1252.83
1254.04
1254.86
1255.57
1256
1256.53
1256.89
1260.02
1230.64
1229.96
1229.22
1228.39
1227.59
1226.96
1225.8
1224.3
1222.26
1219.66
1216.88
1214.09
1211.61
1209.03
1207.82
1207.49
1207.05
1207.01
1207.43
1209.23
1212.12
1214.51
1216.34
1217.88
1216.35
1219.42
1222.66
1224.92
1226
1227.37
1229.11
1231.01
1232.8
1234.51
1235.58
1236.59
1237.22
1237.73
1238.25
1241.61
1209.92
1208.45
1206.46
1204.32
1204.23
1204.08
1202.55
1201.78
1200.78
1199.07
1196.91
1194.83
1193.39
1192.8
1192.46
1192.23
1192.22
1192.48
1192.88
1193.65
1195.08
1196.76
1197.09
1200.59
1199.14
1201.43
1204.69
1205.2
1206.92
1206.97
1208.54
1210.9
1213.12
1215.1
1216.7
1217.92
1218.72
1219.33
1219.66
1220.16
1189.67
1187.69
1184.82
1181.02
1189.47
1182.49
1182.44
1181.36
1180.45
1178.98
1176.48
1172.19
1169.45
1169.49
1170.71
1172.11
1173.47
1174.77
1175.93
1176.96
1178.11
1179.37
1180.52
1181.85
1180.61
1185.4
1185.42
1187.4
1188.8
1189.07
1189.49
1191.7
1194.14
1196.43
1198.32
1199.71
1200.66
1201.42
1201.97
1202.24
1170.55
1169.41
1167.34
1163.53
1170.12
1169.47
1166.78
1164.44
1163.26
1161.46
1159.3
1155.95
1156.02
1153.71
1151.1
1153.16
1155.55
1157.64
1159.29
1160.48
1161.46
1162.24
1163.34
1164.39
1165.61
1168.82
1166.79
1168.7
1170.18
1171.22
1172.11
1173.5
1176.01
1178.38
1180.37
1181.86
1182.91
1183.8
1184.59
1184.93
1152.95
1152.56
1151.88
1151.32
1154.01
1158.79
1157.76
1151.25
1148.6
1146.63
1147.75
1146.42
1144.77
1143.31
1142.83
1142.21
1140.29
1142.98
1143.44
1144.37
1145.99
1146.52
1146.91
1147.3
1151.4
1148.83
1149.91
1151.1
1152.45
1153.71
1154.6
1156.04
1158.15
1160.22
1162.09
1163.68
1164.91
1166.05
1167.21
1167.71
1135.01
1135.31
1135.6
1136.39
1137.71
1139.54
1139.19
1138.2
1135.79
1134.56
1137.28
1135.88
1134.27
1132.69
1130.26
1127.91
1127.57
1129.22
1127.76
1130.29
1130.69
1130.85
1131
1131.64
1133.12
1130.66
1131.95
1133.08
1134.31
1135.52
1136.65
1138.07
1139.79
1141.52
1143.16
1144.73
1146.18
1147.63
1149.86
1150.4
1117.01
1117.33
1117.57
1118.26
1119.08
1119.95
1119.98
1120.18
1118.91
1117.59
1117.2
1117.98
1117.28
1115.51
1114.96
1113.83
1112.43
1111.85
1111.31
1111.25
1111.6
1111.8
1111.98
1112.69
1112.92
1113.36
1114.15
1114.83
1116.46
1117.72
1118.62
1119.82
1121.36
1122.48
1123.74
1125.03
1126.47
1128.16
1130.23
1131.78
1098.76
1098.42
1098.59
1099
1099.54
1100.09
1100.29
1100.21
1099.71
1099.03
1098.45
1097.8
1097.32
1096.94
1096.44
1095.75
1094.78
1094.16
1093.8
1093.8
1093.32
1093.48
1093.53
1093.59
1093.31
1096.62
1096.22
1097.5
1098.54
1099.5
1100.3
1102.1
1103.28
1103.49
1104.26
1104.99
1105.75
1106.53
1108.87
1110.24
1079.75
1079.7
1079.48
1079.44
1079.74
1080.07
1080.24
1080.28
1080.16
1079.52
1078.97
1078.43
1077.97
1077.61
1077.25
1076.8
1076.31
1075.9
1075.64
1075.71
1075.49
1074.88
1075.91
1075.82
1075.85
1078.67
1078.03
1079.06
1080.25
1081.19
1082.13
1083.41
1084.41
1084.45
1084.96
1085.17
1085.2
1084.47
1089.54
1086.4
1061.34
1061.37
1060.85
1060.44
1060
1059.69
1059.74
1059.98
1060.14
1060.28
1059.77
1059.1
1058.51
1058.22
1057.92
1057.62
1057.31
1056.98
1056.76
1057.63
1056.68
1057.17
1057.44
1057.7
1058.18
1059.36
1060.28
1060.57
1061.5
1062.57
1063.39
1064.65
1065.64
1066.04
1066.62
1066.64
1066.78
1066.09
1066.26
1070.76
1043.61
1043.25
1042.64
1041.98
1041
1040.13
1039.34
1039.17
1039.55
1040.2
1039.6
1038.76
1037.98
1037.99
1038.07
1037.88
1037.78
1037.69
1037.59
1037.5
1037.59
1037.79
1038.1
1038.84
1039.56
1040.49
1041.3
1041.34
1042.18
1043.19
1044.43
1045.67
1047.16
1047.56
1049.2
1049.24
1049.58
1049.58
1048.65
1054.93
1026.42
1026.65
1025.29
1025.75
1024.48
1022.27
1020.62
1019.8
1020.91
1020.64
1019.13
1019.37
1016.95
1016.87
1017.07
1017.41
1017.74
1018
1018
1017.97
1018.03
1019.1
1019.91
1020.38
1020.81
1020.85
1021.16
1021.56
1022.43
1023.49
1024.79
1026.12
1027.84
1029.4
1030.96
1031.37
1032.56
1032.74
1032.14
1038.89
1007.41
1007.12
1005.68
1004.13
1002.36
999.765
998.134
999.062
998.7
998.342
999.683
1000.14
999.909
997.676
997.684
998.111
998.507
998.622
998.812
998.889
998.826
1000.86
1001.2
1000.16
1000.35
1000.3
1000.21
1000.35
1000.99
1001.84
1002.94
1004.28
1005.59
1007.6
1009.36
1010.97
1013.29
1013.36
1013.7
1021.2
986.702
986.169
985.39
984.426
982.926
982.643
981.887
980.618
980.164
980.091
980.723
981.279
981.729
979.614
979.153
979.5
979.543
979.933
979.829
979.779
979.333
982.263
979.773
980.348
979.794
979.111
978.614
978.12
977.899
977.96
978.377
979.439
980.735
982.38
984.919
987.282
990.424
991.093
992.249
1000.98
965.981
965.917
965.607
965.262
964.659
964.03
965.471
964.911
964.008
963.303
962.69
961.883
961.41
961.035
960.72
960.71
960.869
960.353
960.15
960.694
961.149
961.116
960.473
960.091
959.245
957.968
956.519
954.981
953.545
952.288
952.031
952.499
953.278
955.886
959.312
962.344
965.314
967.127
968.84
976.872
943.805
944.457
944.713
944.927
945.231
945.365
945.131
944.315
943.937
944.799
942.289
941.467
940.776
940.599
940.476
940.431
940.3
940.017
940.321
941.455
942.132
942.362
941.628
940.068
938.568
936.538
933.918
931.084
928.213
926.077
924.316
923.296
924.297
927.843
932.426
937.214
940.57
943.082
944.88
950.453
920.769
920.559
921.04
921.475
921.809
922.223
922.568
922.407
921.651
920.541
920.058
919.922
919.937
920.51
921.108
921.438
922.592
923.293
922.297
923.957
923.525
923.238
922.08
920.806
918.823
915.881
912.076
907.727
902.828
898.67
896.194
897.081
900.723
905.203
910.37
915.7
919.767
922.923
925.707
932.458
896.105
895.083
894.967
894.806
894.983
895.377
895.768
896.261
896.855
896.721
897.283
897.756
898.796
900.064
901.196
901.885
903.596
903.311
904.391
905.035
905.275
904.89
904.075
902.702
900.613
897.445
893.088
888.685
886.334
883.535
881.379
880.921
884.698
890.535
896.16
901.795
907.087
911.807
919.164
923.499
868.808
867.2
866.4
866.427
866.974
867.836
868.899
870.033
871.455
873.369
874.684
875.511
877.21
878.699
880.76
882.055
882.372
883.683
884.601
885.251
885.589
885.509
885.27
885.051
884.399
883.281
881.938
880.663
877.389
875.189
873.734
872.92
873.997
877.241
881.334
886.193
892.207
899.241
907.212
911.098
838.196
835.773
835.603
836.739
838.517
840.546
842.508
844.529
847.587
850.121
851.968
853.133
856.089
857.494
860.122
861.303
861.902
861.819
863.38
862.305
862.658
864.008
866.012
867.678
869.088
870.528
871.588
872.335
869.699
863.903
859.735
856.092
854.593
856.645
862.149
868.125
873.074
878.001
885.202
888.966
813.415
814.106
812.662
810.995
812.266
815.322
817.881
821.262
824.163
827.266
829.261
831.233
833.725
836.066
838.581
841.451
842.758
842.456
846.122
846.624
848.636
845.99
848.746
850.452
852.11
853.815
855.729
855.533
859.143
845.842
839.962
834.146
829.528
828.096
832.898
840.155
847.279
853.342
855.093
858.264
795.793
794.15
792.066
791.189
792.214
793.456
796.477
799.858
803.008
805.561
807.504
809.223
811.527
814.515
817.77
821.897
825.01
828.122
829.029
838.808
835.925
832.665
832.842
833.251
833.572
833.698
833.124
832.277
829.352
823.204
819.233
816.519
812.737
814.54
814.934
820.484
825.748
828.165
828.998
831.331
782.179
779.348
777.028
776.853
778.053
778.985
780.076
781.585
783.331
784.591
785.694
786.991
789.966
794.116
798.942
804.418
809.244
813.186
819.109
823.6
818.893
816.772
815.7
814.561
813.499
812.25
810.8
810.354
808.981
807.082
805.652
805.066
802.438
801.788
803.212
804.762
806.177
807.092
807.98
808.858
767.488
763.91
761.565
762.141
763.548
764.589
765.344
765.73
766.516
763.637
762.196
762.167
765.224
770.82
778.481
786.487
794.314
804.594
804.772
802.645
801.202
799.126
797.337
795.639
793.894
792.228
791.585
790.239
789.293
788.803
788.99
787.706
787.926
788.01
786.944
785.713
786.503
787.163
787.886
788.182
753.33
749.657
746.355
748.689
750.757
750.014
750.809
751.298
749.891
749.615
744.959
742.938
747.308
753.571
762.116
771.899
778.588
781.819
783.95
782.274
780.646
779.282
778.106
777.446
776.379
774.569
773.81
771.478
769.267
767.48
765.409
764.568
764.018
763.484
763.197
762.961
764.115
765.041
765.898
766.274
740.024
738.825
734.197
737.937
740.202
739.558
739.887
740.181
739.92
737.618
738.12
737.275
739.671
744.808
749.527
752.928
757.991
760.611
761.089
760.017
758.682
757.797
757.644
758.257
758.681
756.252
753.733
753.75
746.244
742.367
738.442
733.219
729.478
731.067
731.738
734.439
736.905
739.358
741.487
742.776
720.75
721.693
723.462
725.23
726.792
726.865
729.418
730.506
730.641
731.023
732.382
733.628
732.874
729.085
731.092
734.202
735.828
736.428
736.589
735.232
733.664
732.654
732.35
732.887
733.726
732.696
728.981
725.472
720.341
715.58
708.654
702.78
691.541
695.102
697.271
705.581
711.563
715.803
718.185
719.761
703.469
704.983
707.4
709.776
711.343
712.526
715.434
717.483
717.192
718.473
721.75
721.49
717.025
717.566
716.38
716.447
715.481
713.975
711.924
708.695
704.93
701.091
698.179
696.222
700.158
704.157
702.381
698.928
692.131
688.373
685.651
681.24
682.714
679.292
676.435
686.206
691.832
696.862
697.873
699.603
682.894
685.98
688.546
692.591
695.13
697.353
699.058
702.184
703.415
704.51
703.825
706.139
707.9
704.926
702.419
700.095
697.909
694.78
690.369
685.571
680.576
673.91
665.564
659.78
669.182
680.338
682.51
680.117
677.916
680.217
679.632
679.533
679.364
671.291
671.434
676.453
678.413
682.971
683.058
684.801
660.647
664.481
668.63
672.282
674.532
678.187
679.575
682.81
685.184
686.409
686.148
690.983
690.36
687.285
686.1
684.437
682.056
678.62
673.85
673.065
667.112
663.177
649.686
665.25
663.593
677.657
670.22
667.721
668.527
669.894
670.672
671.266
672.183
667.008
666.912
668.442
667.588
670.312
670.317
671.085
634.379
638.888
643.167
647.241
651.115
656.018
658.489
660.069
661.862
663.7
666.116
667.395
667.806
668.299
668.53
667.985
666.791
664.953
662.574
663.682
663.944
664.652
653.901
663.325
664.686
661.68
662.34
662.984
661.86
661.454
662.169
661.835
660.749
658.831
658.173
658.082
658.481
659.367
658.442
658.87
603.68
608.421
614.113
620.108
624.816
629.258
633.378
636.57
639.053
640.932
642.639
646.035
648.512
649.763
650.676
651.591
652.225
652.527
652.968
654.454
656.541
656.694
657.595
661.837
662.625
661.523
660.572
659.572
658.246
656.606
654.24
651.549
649.232
647.603
646.785
646.27
648.195
647.927
647.939
648.529
574.266
577.942
582.439
587.712
593.949
600.273
606.009
609.127
613.613
618.522
623.439
626.885
628.815
631.089
633.248
635.628
637.816
639.897
642.297
645.08
647.711
651.297
653.651
655.602
655.857
657.487
655.44
652.084
649.374
644.91
642.211
639.3
636.485
634.829
634.214
634.141
635.944
635.974
635.939
636.43
547.587
550.849
557.554
561.127
562.711
570.723
578.847
585.656
592.821
599.865
607.104
612.237
615.653
617.828
618.754
620.726
623.461
626.552
629.8
633.289
636.761
639.529
642.276
643.429
642.318
641.342
637.543
636.359
632.739
630.207
627.463
623.562
620.942
619.592
619.493
620.091
623.676
623.215
623.971
624.635
525.64
528.601
533.584
548.269
555.761
551.852
557.6
565.558
575.416
583.704
590.648
596.258
600.913
603.982
605.717
606.999
608.494
611.749
615.017
618.413
621.839
624.724
627.123
628.714
628.749
627.29
622.442
621.037
617.436
613.429
609.571
606.296
604.871
604.443
605.534
607.197
611.76
611.68
613.04
613.852
502.41
508.848
518.063
528.402
536.053
546.318
553.54
556.518
560.61
565.849
571.107
577.091
581.374
585.175
588.559
591.742
593.996
595.88
598.859
602.009
605.342
608.419
610.731
612.169
612.443
611.266
607.854
606.176
604.082
601.63
599.535
598.155
596.01
593.798
595.418
596.897
600.861
601.455
602.584
603.123
479.605
482.456
495.819
509.428
519.808
526.835
536.521
544.834
546.734
546.921
547.115
551.376
556.23
562.144
567.703
571.934
575.331
579.917
584.677
587.035
588.879
591.45
593.569
595.125
595.653
595.169
593.137
591.144
590.587
588.774
587.612
586.709
584.736
583.297
584.376
585.767
589.825
589.721
590.418
590.608
480.154
472.896
479.847
492.058
501.749
508.893
515.076
518.534
527.644
526.359
521.399
523.089
527.154
534.251
542.391
549.655
556.633
561.615
564.848
569.025
573.096
574.096
575.67
576.433
576.798
576.698
575.85
574.529
573.194
572.395
575.334
570.5
569.798
570.095
570.995
572.46
575.514
574.399
574.577
574.501
476.451
471.102
472.486
476.233
482.23
488.224
492.839
496.929
498.727
500.26
499.633
499.039
500.243
504.547
515.299
523.997
533.912
541.007
548.328
551.797
553.765
557.928
558.109
557.064
556.6
556.236
555.408
554.066
552.609
552.042
552.248
551.493
552.885
552.962
553.694
556.194
557.219
557.649
558.008
557.674
459.866
460.692
460.646
463.295
465.024
467.86
471.903
476.24
477.734
476.767
480.268
481.339
479.011
479.901
484.562
496.325
508.972
520.247
528.712
537.056
538.776
538.638
541.179
539.566
537.872
536.576
534.898
533.043
532.065
532.37
533.566
533.166
534.369
533.898
535.617
537.21
537.842
539.04
539.84
539.533
438.431
440.967
441.357
441.107
442.104
446.083
450.812
454.948
457.549
463.191
467.494
469.006
468.523
466.031
466.635
472.69
485.914
500.367
511.828
518.935
524.124
523.601
522.425
521.985
519.275
517.375
516.347
514.427
513.174
512.421
512.135
512.314
513.209
513.338
514.078
515.758
516.678
518.91
519.645
520.465
411.512
415.966
420.131
422.75
425.616
429.817
435.163
440.887
447.524
454.76
458.46
459.574
458.217
455.629
454.423
455.337
461.986
482.959
498.153
504.616
505.065
507.224
502.619
503.453
500.764
497.347
497.073
494.159
492.619
493.154
490.361
489.529
490.135
490.824
491.327
492.61
494.982
497.078
497.82
497.606
385.891
395.267
404.339
407.817
413.676
417.216
420.601
426.081
431.362
435.664
442.367
446.468
442.445
433.196
437.297
438.557
434.746
454.453
473.037
481.125
483.041
483.23
483.691
479.603
480.003
474.342
474.118
472.837
472.715
471.44
469.97
468.648
466.859
465.987
465.373
467.193
471.004
473.318
473.791
473.141
379.271
379.21
403.088
389.569
396.099
399.764
401.885
401.877
402.959
400.544
397.805
393.077
385.812
380.953
383.161
385.75
389.572
399.953
415.796
428.805
438.038
445.217
450.779
451.73
451.232
450.617
450.495
450.511
450.903
451.275
449.799
450.586
444.387
445.397
444.117
443.674
447.24
449.911
451.034
451.458
366.518
363.183
378.073
376.97
381.695
380.662
376.329
371.691
361.384
347.623
332.48
319.982
315.418
311.253
314.518
317.009
322.202
349.946
362.665
371.683
386.977
401.957
412.268
418.495
421.897
424.619
426.681
428.782
430.106
433.044
430.349
432.038
424.534
424.06
424.512
424.98
426.352
428.502
430.196
432.661
361.589
362.237
362.056
362.287
361.583
359.393
352.659
338.805
320.79
305.383
293.776
279.195
268.796
263.82
263.27
272.059
289.555
304.255
314.925
332.714
352.284
368.895
380.542
388.489
394.458
399.53
403.65
407.913
413.197
413.468
412.884
411.774
407.811
408.323
408.864
410.191
411.58
412.612
413.377
414.125
354.376
355.428
355.72
354.195
355.109
350.822
340.78
323.026
312.926
299.616
282.562
265.41
253.625
248.542
249.496
256.863