/*--------------------------------*- C++ -*----------------------------------*\
  =========                 |
  \\      /  F ield         | OpenFOAM: The Open Source CFD Toolbox
   \\    /   O peration     | Website:  https://openfoam.org
    \\  /    A nd           | Version:  8
     \\/     M anipulation  |
\*---------------------------------------------------------------------------*/
FoamFile
{
    version     2.0;
    format      ascii;
    class       surfaceScalarField;
    location    "7.95";
    object      phi;
}
// * * * * * * * * * * * * * * * * * * * * * * * * * * * * * * * * * * * * * //

dimensions      [0 3 -1 0 0 0 0];

internalField   nonuniform List<scalar> 
18095
(
1.98152e-08
-1.71998e-07
1.52183e-07
2.31841e-08
-1.97699e-07
1.94331e-07
2.01633e-08
-2.06047e-07
2.09068e-07
1.13737e-08
-2.10962e-07
2.19752e-07
-6.61539e-10
-2.13029e-07
2.25064e-07
-1.24216e-08
-2.13162e-07
2.24922e-07
-2.06558e-08
-2.11309e-07
2.19543e-07
-2.32685e-08
-2.0616e-07
2.08773e-07
-1.98201e-08
-1.97688e-07
1.9424e-07
-1.71945e-07
1.52125e-07
1.55649e-08
-1.87563e-07
1.60718e-08
-1.98206e-07
1.19405e-08
-2.01916e-07
6.27877e-09
-2.053e-07
1.4045e-10
-2.06891e-07
-6.03853e-09
-2.06983e-07
-1.18522e-08
-2.05495e-07
-1.60932e-08
-2.01919e-07
-1.55965e-08
-1.98185e-07
-1.87541e-07
6.82305e-09
-1.94386e-07
8.37558e-09
-1.99759e-07
7.40764e-09
-2.00948e-07
4.4731e-09
-2.02366e-07
2.11138e-10
-2.02629e-07
-4.2267e-09
-2.02545e-07
-7.44036e-09
-2.02281e-07
-8.41415e-09
-2.00945e-07
-6.83422e-09
-1.99765e-07
-1.94376e-07
4.53768e-09
-1.98924e-07
4.72114e-09
-1.99942e-07
3.6536e-09
-1.9988e-07
1.66066e-09
-2.00373e-07
-2.23407e-10
-2.00745e-07
-1.9034e-09
-2.00865e-07
-3.6823e-09
-2.00502e-07
-4.73315e-09
-1.99895e-07
-4.54588e-09
-1.99952e-07
-1.98921e-07
1.07595e-09
1.13369e-09
1.25335e-09
8.80535e-10
1.35591e-10
-7.29713e-10
-1.23198e-09
-1.12652e-09
-1.07861e-09
-2.77399e-08
-1.96169e-07
2.23909e-07
-3.0264e-08
-1.98819e-07
2.01343e-07
-2.5315e-08
-2.00925e-07
1.95976e-07
-1.4141e-08
-2.01418e-07
1.90244e-07
-2.65858e-10
-2.01738e-07
1.87862e-07
1.38259e-08
-2.02023e-07
1.87931e-07
2.52639e-08
-2.01867e-07
1.90429e-07
3.02597e-08
-2.01324e-07
1.96328e-07
2.78353e-08
-1.9925e-07
2.01674e-07
-1.96467e-07
2.24303e-07
-9.68022e-09
-1.86489e-07
-1.53969e-08
-1.93102e-07
-1.31118e-08
-2.0321e-07
-6.70809e-09
-2.07822e-07
-8.25013e-11
-2.08363e-07
6.51812e-09
-2.08623e-07
1.31013e-08
-2.08451e-07
1.5505e-08
-2.03728e-07
9.72356e-09
-1.93468e-07
-1.86744e-07
-1.0023e-08
-1.76466e-07
-7.73108e-09
-1.95394e-07
-5.96375e-09
-2.04978e-07
-3.31002e-09
-2.10476e-07
1.50095e-09
-2.13174e-07
6.00457e-09
-2.13127e-07
7.43894e-09
-2.09885e-07
8.42764e-09
-2.04717e-07
1.02756e-08
-1.95316e-07
-1.76468e-07
-6.68093e-09
-1.69785e-07
-8.70721e-09
-1.93368e-07
-8.30981e-09
-2.05375e-07
-3.9329e-09
-2.14853e-07
-8.47194e-10
-2.1626e-07
2.44677e-09
-2.16421e-07
7.66437e-09
-2.15103e-07
8.57726e-09
-2.05629e-07
6.69076e-09
-1.9343e-07
-1.69778e-07
-1.76018e-08
-1.66388e-08
-1.29459e-08
-8.04688e-09
7.5769e-10
9.25906e-09
1.36992e-08
1.68426e-08
1.76527e-08
3.31326e-08
-1.57438e-07
1.24306e-07
3.82354e-08
-1.98267e-07
1.93164e-07
3.14466e-08
-2.1088e-07
2.17669e-07
1.65882e-08
-2.14315e-07
2.29173e-07
-1.92829e-09
-2.17025e-07
2.35541e-07
-1.83195e-08
-2.16388e-07
2.32779e-07
-3.13119e-08
-2.1586e-07
2.28852e-07
-3.67381e-08
-2.11297e-07
2.16723e-07
-3.1315e-08
-1.99662e-07
1.94239e-07
-1.58868e-07
1.27553e-07
1.71173e-08
-1.74556e-07
2.0268e-08
-2.01418e-07
1.68107e-08
-2.07423e-07
1.1147e-08
-2.08651e-07
2.62937e-09
-2.08507e-07
-6.09523e-09
-2.07663e-07
-1.3681e-08
-2.08274e-07
-1.782e-08
-2.07158e-07
-1.57959e-08
-2.01686e-07
-1.74664e-07
9.02984e-09
-1.83586e-07
8.99136e-09
-2.01379e-07
7.51806e-09
-2.0595e-07
2.92574e-09
-2.04059e-07
-6.65965e-10
-2.04915e-07
-3.70541e-09
-2.04624e-07
-7.93594e-09
-2.04043e-07
-9.06011e-09
-2.06034e-07
-9.20216e-09
-2.01544e-07
-1.83866e-07
7.64743e-09
-1.91233e-07
5.71774e-09
-1.99449e-07
6.22476e-09
-2.06457e-07
2.04751e-09
-1.99882e-07
6.10442e-11
-2.02929e-07
-1.80957e-09
-2.02753e-07
-6.15807e-09
-1.99695e-07
-5.6162e-09
-2.06576e-07
-7.5599e-09
-1.99601e-07
-1.91426e-07
3.26761e-08
3.45695e-08
2.4089e-08
1.44514e-08
-6.14981e-10
-1.54374e-08
-2.47031e-08
-3.49503e-08
-3.28766e-08
4.47774e-10
-7.65016e-09
7.20239e-09
8.64931e-09
-8.20063e-09
7.59224e-09
1.05724e-09
-3.50196e-09
1.10943e-08
-1.03226e-08
6.82077e-09
-7.75355e-09
-2.56896e-09
-3.17439e-09
-4.57908e-09
-2.62497e-10
-2.91182e-09
-6.82774e-11
-1.94172e-10
4.12131e-09
-4.18956e-09
-7.80532e-09
2.53852e-09
-2.383e-09
-8.97669e-09
-7.02849e-09
-4.3013e-09
-3.61793e-09
3.58332e-09
3.20992e-09
8.21556e-09
2.18869e-09
7.70589e-09
-2.05915e-09
2.1988e-09
9.28127e-10
-6.07894e-09
5.36602e-09
-1.75366e-08
1.12635e-08
2.20528e-08
-3.5468e-08
-7.52905e-09
7.47224e-09
2.59558e-09
-9.41608e-09
-5.14108e-09
-7.24851e-09
-5.78539e-09
-4.05034e-09
1.18669e-11
-3.06162e-09
1.20009e-09
-1.01371e-08
5.01644e-09
-2.20642e-08
1.28554e-08
-3.45241e-08
1.7826e-08
-5.16608e-08
2.84004e-08
4.0971e-08
-7.0579e-08
-1.71129e-08
8.27543e-09
1.63098e-08
-2.04622e-08
-1.79167e-09
-2.33983e-08
-2.84923e-09
-2.54972e-08
2.11084e-09
-3.11592e-08
6.86215e-09
-3.99429e-08
1.38002e-08
-4.70175e-08
1.99301e-08
-5.83598e-08
2.91684e-08
-7.20473e-08
4.2088e-08
4.90108e-08
-8.00871e-08
-2.75253e-08
8.49866e-09
2.73021e-08
-2.93356e-08
1.85254e-11
-3.12702e-08
-9.14618e-10
-3.15685e-08
2.40919e-09
-3.49233e-08
1.0217e-08
-4.07364e-08
1.96135e-08
-4.77689e-08
2.69628e-08
-5.95122e-08
4.09118e-08
-6.73426e-08
4.99186e-08
5.18108e-08
-7.01425e-08
-3.24425e-08
6.81448e-09
3.41266e-08
-3.32119e-08
7.87703e-10
-3.44053e-08
2.78781e-10
-3.47581e-08
2.76189e-09
-3.63172e-08
1.17761e-08
-4.29928e-08
2.62891e-08
-5.25036e-08
3.64736e-08
-5.91001e-08
4.75083e-08
-6.04374e-08
5.12559e-08
5.00745e-08
-5.8701e-08
-3.9089e-08
6.54071e-09
3.93628e-08
-3.88251e-08
5.23387e-10
-3.85233e-08
-2.31566e-11
-3.81453e-08
2.38373e-09
-3.8761e-08
1.23917e-08
-4.66282e-08
3.41561e-08
-5.99148e-08
4.97602e-08
-6.55248e-08
5.31181e-08
-6.34416e-08
4.91727e-08
4.278e-08
-5.61471e-08
-4.02455e-08
1.02815e-08
3.65046e-08
-4.23919e-08
2.66916e-09
-4.28616e-08
4.46269e-10
-4.10915e-08
6.13366e-10
-3.84267e-08
9.72667e-09
-4.44651e-08
4.01943e-08
-5.78869e-08
6.31817e-08
-6.68114e-08
6.20425e-08
-6.21329e-08
4.4494e-08
2.72964e-08
-4.66493e-08
-4.83816e-08
2.78727e-08
3.07902e-08
-6.09009e-08
1.51876e-08
-6.52592e-08
4.80418e-09
-6.28386e-08
-1.80751e-09
-5.68702e-08
3.75796e-09
-5.38985e-08
3.72224e-08
-5.29002e-08
6.21833e-08
-5.29598e-08
6.21019e-08
-4.9987e-08
4.1521e-08
1.98083e-08
-4.2499e-08
-1.80642e-08
4.83187e-08
-2.38209e-09
-4.95322e-08
4.66548e-08
-7.61825e-08
3.14543e-08
-9.09944e-08
1.30042e-08
-9.4671e-08
7.43429e-09
-8.29922e-08
2.55433e-08
-6.43794e-08
4.35702e-08
-4.76296e-08
4.53519e-08
-4.34072e-08
3.72984e-08
2.06155e-08
-4.42146e-08
2.62975e-08
5.03947e-08
-2.83737e-08
1.65043e-08
5.64476e-08
-5.47046e-09
5.34289e-08
-3.51699e-08
4.27035e-08
-6.04935e-08
3.27577e-08
-6.60825e-08
3.11322e-08
-5.30883e-08
3.05758e-08
-4.2828e-08
3.50914e-08
-4.21463e-08
3.66166e-08
1.93115e-08
-4.08425e-08
8.84558e-08
4.69182e-08
-8.49795e-08
9.33052e-08
5.15983e-08
8.87226e-08
5.80115e-08
6.76179e-08
6.38082e-08
4.13136e-08
5.90618e-08
2.22687e-08
5.0177e-08
4.90627e-09
4.79382e-08
-1.00271e-08
5.00247e-08
-1.65213e-08
4.31107e-08
3.12965e-08
-2.85064e-08
1.17167e-07
5.16097e-08
-1.21858e-07
1.14983e-07
5.37829e-08
1.10633e-07
6.23609e-08
1.02497e-07
7.19448e-08
8.70825e-08
7.4476e-08
6.80478e-08
6.92118e-08
4.81832e-08
6.78028e-08
3.08157e-08
6.73922e-08
1.35943e-08
6.03322e-08
4.91639e-08
-4.27304e-09
1.01871e-07
4.42787e-08
-9.45399e-08
1.0298e-07
5.2674e-08
9.83086e-08
6.70321e-08
9.15394e-08
7.87139e-08
8.44793e-08
8.15361e-08
7.37447e-08
7.99463e-08
6.08268e-08
8.07208e-08
4.28441e-08
8.5375e-08
2.16627e-08
8.15137e-08
6.74923e-08
3.33445e-09
6.28741e-08
3.60129e-08
-5.46084e-08
6.71761e-08
4.83714e-08
6.70532e-08
6.71547e-08
6.44183e-08
8.13487e-08
6.02347e-08
8.57196e-08
5.05007e-08
8.96804e-08
3.74178e-08
9.38038e-08
2.5628e-08
9.71649e-08
1.33642e-08
9.37777e-08
7.63293e-08
4.52739e-09
-2.46907e-08
3.56202e-08
2.50833e-08
-2.54457e-08
4.91255e-08
-2.25171e-08
6.42259e-08
-1.77245e-08
7.65561e-08
-1.57772e-08
8.37722e-08
-1.66109e-08
9.05139e-08
-1.53185e-08
9.25114e-08
-9.78233e-09
9.16288e-08
-1.054e-09
8.50494e-08
7.06172e-08
4.6581e-09
-1.21062e-07
3.0865e-08
1.25816e-07
-1.17956e-07
4.60199e-08
-1.11559e-07
5.78284e-08
-9.84458e-08
6.34429e-08
-8.35035e-08
6.88298e-08
-7.12018e-08
7.82122e-08
-5.50129e-08
7.63224e-08
-3.25612e-08
6.91769e-08
-1.01444e-08
6.26325e-08
5.38e-08
6.67264e-09
-1.41503e-07
2.85481e-08
1.4382e-07
-1.36373e-07
4.089e-08
-1.27374e-07
4.88295e-08
-1.15128e-07
5.11972e-08
-1.00853e-07
5.45542e-08
-8.04069e-08
5.77663e-08
-5.72338e-08
5.31493e-08
-3.26055e-08
4.45485e-08
-6.71694e-09
3.67439e-08
2.85258e-08
1.85572e-08
-1.37933e-07
2.68123e-08
1.39669e-07
-1.28659e-07
3.16166e-08
-1.15716e-07
3.58863e-08
-1.02815e-07
3.8297e-08
-8.83184e-08
4.00573e-08
-7.0089e-08
3.95369e-08
-5.0122e-08
3.31823e-08
-2.91103e-08
2.35367e-08
-6.1312e-09
1.37648e-08
4.67031e-09
1.77242e-08
-1.08258e-07
2.89624e-08
1.06108e-07
-1.07107e-07
3.04651e-08
-1.01141e-07
2.9921e-08
-9.09982e-08
2.81541e-08
-7.72723e-08
2.63315e-08
-6.25291e-08
2.47937e-08
-5.0104e-08
2.07572e-08
-3.80789e-08
1.15116e-08
-2.52792e-08
9.64964e-10
-8.57775e-09
-1.20312e-08
-3.31532e-08
4.07868e-08
2.13291e-08
-4.63247e-08
4.36368e-08
-5.69535e-08
4.055e-08
-5.89836e-08
3.01843e-08
-5.56517e-08
2.29998e-08
-4.8946e-08
1.8088e-08
-4.29053e-08
1.47165e-08
-4.12628e-08
9.86912e-09
-4.28759e-08
2.57803e-09
-7.26442e-09
-4.41892e-08
4.44864e-08
4.92553e-08
-5.29548e-08
3.43215e-08
5.38018e-08
2.0734e-08
5.41376e-08
7.30262e-09
4.36157e-08
-1.36122e-09
3.16637e-08
-7.76866e-09
2.44955e-08
-1.12995e-08
1.82474e-08
-1.29852e-08
1.15549e-08
-1.84464e-08
8.03932e-09
4.49662e-09
-3.02074e-08
1.10052e-07
4.46517e-08
-1.05449e-07
1.08789e-07
5.50655e-08
9.54322e-08
6.74944e-08
7.50763e-08
6.39719e-08
5.41979e-08
5.25422e-08
3.84277e-08
4.02659e-08
2.81747e-08
2.85005e-08
1.83751e-08
2.13547e-08
1.02666e-08
1.61478e-08
1.42594e-08
5.03911e-10
1.42186e-07
3.50523e-08
-1.32586e-07
1.50774e-07
4.64784e-08
1.54341e-07
6.39273e-08
1.57812e-07
6.05008e-08
1.47108e-07
6.32469e-08
1.22795e-07
6.4579e-08
9.78442e-08
5.34512e-08
7.16182e-08
4.75808e-08
4.79566e-08
3.98095e-08
3.59439e-08
2.6272e-08
1.49607e-07
3.77217e-08
-1.52276e-07
1.56787e-07
3.92993e-08
1.74468e-07
4.62467e-08
1.789e-07
5.60681e-08
1.63633e-07
7.85151e-08
1.49761e-07
7.84502e-08
1.28103e-07
7.51097e-08
1.10935e-07
6.47492e-08
9.49918e-08
5.57524e-08
5.45736e-08
7.63622e-08
1.30141e-07
5.32761e-08
-1.45695e-07
1.3235e-07
3.7091e-08
1.45799e-07
3.27979e-08
1.41165e-07
6.07019e-08
1.30283e-07
8.93972e-08
1.15805e-07
9.29289e-08
1.10082e-07
8.08331e-08
1.11755e-07
6.30758e-08
1.14776e-07
5.27312e-08
5.33513e-08
1.15999e-07
8.51532e-08
4.23328e-08
-7.42096e-08
9.377e-08
2.84746e-08
7.11133e-08
5.54548e-08
3.71019e-08
9.47135e-08
3.13212e-08
9.51781e-08
5.26152e-08
7.1635e-08
8.12826e-08
5.21659e-08
1.04376e-07
3.99829e-08
1.15796e-07
4.13108e-08
4.49701e-08
1.24177e-07
-2.83514e-08
2.99058e-08
4.07785e-08
-3.98862e-08
4.001e-08
-5.53968e-08
7.09656e-08
-4.28009e-08
8.21178e-08
-1.21849e-08
6.45623e-08
1.77512e-08
4.16991e-08
5.7096e-08
1.28212e-08
9.23849e-08
4.69418e-09
9.60681e-08
3.76278e-08
2.49061e-08
1.16132e-07
-1.8778e-07
2.24246e-08
1.95262e-07
-1.82808e-07
3.50379e-08
-1.55901e-07
4.40593e-08
-1.08798e-07
3.5014e-08
-8.02846e-08
3.60493e-08
-5.19393e-08
1.33539e-08
-2.69934e-08
-1.21246e-08
2.18786e-10
-2.25178e-08
2.885e-08
8.9969e-09
-9.57717e-09
6.33336e-08
-2.62188e-07
-1.01443e-09
2.85627e-07
-2.29166e-07
2.01686e-09
-1.89085e-07
3.97744e-09
-1.60551e-07
6.48016e-09
-1.30449e-07
5.94727e-09
-9.63686e-08
-2.07261e-08
-6.47893e-08
-4.37038e-08
-4.46164e-08
-4.26906e-08
-1.0071e-08
-2.55483e-08
-4.2678e-08
2.30301e-08
-2.82655e-07
-4.65121e-09
2.86292e-07
-2.71807e-07
-8.83142e-09
-2.47216e-07
-2.06146e-08
-2.0722e-07
-3.35157e-08
-1.60607e-07
-4.0665e-08
-1.2477e-07
-5.65631e-08
-1.06186e-07
-6.22879e-08
-8.47865e-08
-6.40901e-08
-4.68924e-08
-6.34424e-08
-6.80814e-08
-2.1489e-08
-2.61816e-07
1.12312e-08
2.45934e-07
-2.61394e-07
-9.25427e-09
-2.3926e-07
-4.27486e-08
-2.07336e-07
-6.54393e-08
-1.6665e-07
-8.13518e-08
-1.22346e-07
-1.00867e-07
-8.21415e-08
-1.02492e-07
-4.19758e-08
-1.04256e-07
-5.76329e-09
-9.96548e-08
-1.02046e-07
2.82013e-08
-7.55646e-08
3.12344e-08
5.55611e-08
-9.69716e-08
1.21526e-08
-1.05804e-07
-3.39162e-08
-1.01058e-07
-7.01849e-08
-7.50568e-08
-1.07354e-07
-3.02724e-08
-1.45651e-07
2.09174e-08
-1.53682e-07
6.82265e-08
-1.51565e-07
1.07191e-07
-1.38619e-07
-1.3208e-07
1.37226e-07
9.10376e-08
-2.40533e-08
-3.57499e-08
1.15662e-07
-1.24718e-08
1.20224e-07
-3.84782e-08
1.19146e-07
-6.91078e-08
1.17032e-07
-1.05239e-07
1.22708e-07
-1.51328e-07
1.38811e-07
-1.69785e-07
1.57681e-07
-1.70435e-07
1.87855e-07
-1.68793e-07
-1.58393e-07
2.14167e-07
1.10034e-07
-6.26534e-08
-7.1434e-08
1.63934e-07
-6.63717e-08
2.15332e-07
-8.98764e-08
2.48443e-07
-1.02219e-07
2.6044e-07
-1.17237e-07
2.5829e-07
-1.49177e-07
2.59949e-07
-1.71444e-07
2.66928e-07
-1.77414e-07
2.78127e-07
-1.79992e-07
-1.74103e-07
2.93838e-07
1.37483e-07
-8.97803e-08
-1.10356e-07
1.89782e-07
-1.18671e-07
2.28726e-07
-1.2882e-07
2.60052e-07
-1.33546e-07
2.81762e-07
-1.38946e-07
2.93276e-07
-1.60691e-07
3.03297e-07
-1.81465e-07
3.20801e-07
-1.94918e-07
3.34438e-07
-1.9363e-07
-1.83897e-07
3.44232e-07
1.33767e-07
-1.27847e-07
-9.57001e-08
1.58112e-07
-1.43016e-07
1.84067e-07
-1.54775e-07
2.17138e-07
-1.66616e-07
2.57268e-07
-1.79076e-07
2.90359e-07
-1.93782e-07
3.17814e-07
-2.0892e-07
3.339e-07
-2.11004e-07
3.44905e-07
-2.04635e-07
-1.91998e-07
3.53006e-07
4.9384e-08
-1.50553e-07
-2.66782e-08
8.17693e-08
-1.75401e-07
1.21426e-07
-1.94431e-07
1.62832e-07
-2.08022e-07
2.06193e-07
-2.22437e-07
2.42818e-07
-2.30407e-07
2.65547e-07
-2.31649e-07
2.69123e-07
-2.1458e-07
2.55061e-07
-1.90573e-07
-1.80523e-07
2.43586e-07
2.13186e-08
-1.89459e-07
1.75871e-08
5.96363e-08
-2.13719e-07
9.71995e-08
-2.31995e-07
1.29678e-07
-2.405e-07
1.45208e-07
-2.37967e-07
1.36494e-07
-2.21694e-07
1.10539e-07
-2.05694e-07
8.23554e-08
-1.86396e-07
5.94323e-08
-1.6765e-07
-1.55951e-07
3.48596e-08
-2.31076e-08
-2.19423e-07
5.30715e-08
-7.18274e-09
-2.29643e-07
-1.44521e-08
-2.24725e-07
-4.92982e-08
-2.05654e-07
-9.48351e-08
-1.9243e-07
-1.28586e-07
-1.87942e-07
-1.49886e-07
-1.84394e-07
-1.69898e-07
-1.66384e-07
-1.61602e-07
-1.75946e-07
-1.7382e-07
-1.43732e-07
-1.19996e-07
-2.0485e-07
1.05423e-07
-1.53487e-07
-1.96152e-07
-1.99792e-07
-1.7842e-07
-2.37732e-07
-1.67713e-07
-2.53123e-07
-1.77039e-07
-2.62835e-07
-1.78231e-07
-2.68681e-07
-1.78549e-07
-2.61192e-07
-1.73872e-07
-2.53572e-07
-1.83567e-07
-1.95834e-07
-2.31558e-07
-2.86149e-07
-1.72828e-07
2.54127e-07
-3.09059e-07
-1.73242e-07
-3.21169e-07
-1.66309e-07
-3.27883e-07
-1.61e-07
-3.39991e-07
-1.6493e-07
-3.44942e-07
-1.7328e-07
-3.43548e-07
-1.79943e-07
-3.30385e-07
-1.87035e-07
-3.17006e-07
-1.96946e-07
-1.96715e-07
-3.16125e-07
-4.0882e-07
-1.59649e-07
3.9564e-07
-4.21103e-07
-1.60958e-07
-4.365e-07
-1.50912e-07
-4.43886e-07
-1.53614e-07
-4.47085e-07
-1.61731e-07
-4.52167e-07
-1.68199e-07
-4.58074e-07
-1.74036e-07
-4.67044e-07
-1.78065e-07
-4.83085e-07
-1.80906e-07
-1.81347e-07
-4.98452e-07
-5.35803e-07
-1.26767e-07
5.02921e-07
-5.68261e-07
-1.285e-07
-5.79851e-07
-1.39323e-07
-5.73662e-07
-1.59802e-07
-5.65165e-07
-1.70229e-07
-5.62578e-07
-1.70786e-07
-5.68697e-07
-1.67917e-07
-5.81048e-07
-1.65714e-07
-5.92353e-07
-1.69602e-07
-1.76028e-07
-5.97672e-07
-6.22211e-07
-1.04527e-07
5.99971e-07
-6.31781e-07
-1.18931e-07
-6.37559e-07
-1.33545e-07
-6.43226e-07
-1.54136e-07
-6.4336e-07
-1.70095e-07
-6.39129e-07
-1.75017e-07
-6.34619e-07
-1.72427e-07
-6.33183e-07
-1.6715e-07
-6.34169e-07
-1.68615e-07
-1.79839e-07
-6.30358e-07
-6.7418e-07
-9.77008e-08
6.67354e-07
-6.77656e-07
-1.15455e-07
-6.77352e-07
-1.33849e-07
-6.73607e-07
-1.57881e-07
-6.71655e-07
-1.72047e-07
-6.72752e-07
-1.7392e-07
-6.66538e-07
-1.78641e-07
-6.54003e-07
-1.79685e-07
-6.37647e-07
-1.84971e-07
-1.97832e-07
-6.19655e-07
-7.46491e-07
-1.03816e-07
7.52606e-07
-7.25357e-07
-1.36587e-07
-7.06725e-07
-1.52482e-07
-7.01334e-07
-1.63271e-07
-6.95657e-07
-1.77723e-07
-6.87981e-07
-1.81597e-07
-6.78471e-07
-1.8815e-07
-6.64298e-07
-1.93858e-07
-6.43738e-07
-2.05532e-07
-2.2358e-07
-6.17989e-07
-7.87793e-07
-9.74969e-08
7.81474e-07
-7.72378e-07
-1.52003e-07
-7.50524e-07
-1.74336e-07
-7.27768e-07
-1.86028e-07
-7.08804e-07
-1.96688e-07
-6.90705e-07
-1.99695e-07
-6.75981e-07
-2.02874e-07
-6.63821e-07
-2.06018e-07
-6.51372e-07
-2.1798e-07
-2.37712e-07
-6.3724e-07
-7.10322e-07
-7.01923e-08
6.83018e-07
-7.33529e-07
-1.28796e-07
-7.33879e-07
-1.73986e-07
-7.16233e-07
-2.03675e-07
-6.94784e-07
-2.18136e-07
-6.68391e-07
-2.26089e-07
-6.51354e-07
-2.19911e-07
-6.38993e-07
-2.18378e-07
-6.35012e-07
-2.21961e-07
-2.33045e-07
-6.39677e-07
-3.40295e-07
-1.20764e-07
3.90867e-07
-3.31442e-07
-1.37649e-07
-3.87297e-07
-1.1813e-07
-4.54415e-07
-1.36557e-07
-5.45265e-07
-1.27287e-07
-5.62942e-07
-2.08412e-07
-5.59017e-07
-2.23836e-07
-5.57283e-07
-2.20111e-07
-5.67172e-07
-2.12072e-07
-2.17275e-07
-5.82942e-07
-7.90277e-08
-1.93038e-07
1.51301e-07
-6.07156e-08
-1.55961e-07
-6.12547e-08
-1.17591e-07
-9.00509e-08
-1.07761e-07
-1.54923e-07
-6.24142e-08
-2.54872e-07
-1.08462e-07
-3.44806e-07
-1.33903e-07
-3.72813e-07
-1.92104e-07
-3.87894e-07
-1.96991e-07
-1.96199e-07
-4.08969e-07
-1.31371e-08
-1.96684e-07
1.67837e-08
-3.79875e-09
-1.653e-07
2.52479e-08
-1.46638e-07
3.5359e-08
-1.17872e-07
1.72132e-08
-4.42689e-08
-2.90604e-08
-6.21883e-08
-1.28682e-07
-3.42813e-08
-2.18203e-07
-1.02582e-07
-2.43324e-07
-1.7187e-07
-1.89414e-07
-2.50109e-07
6.0024e-08
-1.48197e-07
-1.08511e-07
3.19143e-08
-1.3719e-07
3.76044e-08
-1.52328e-07
3.61353e-08
-1.16403e-07
4.88416e-08
-5.69754e-08
1.2505e-08
-2.58521e-08
-4.05136e-08
1.87372e-08
-1.26451e-07
-1.66446e-08
-1.77448e-07
-1.20873e-07
-1.81448e-07
-1.85414e-07
5.38188e-09
-7.13883e-08
-8.21906e-08
-1.23025e-08
-1.19505e-07
-7.77808e-09
-1.56852e-07
3.45222e-09
-1.27633e-07
1.1049e-08
-6.45719e-08
3.33279e-08
-4.8131e-08
9.73837e-08
-4.53186e-08
7.80822e-08
2.65692e-09
-6.59128e-09
-3.61991e-08
-1.01626e-07
-8.64133e-08
-1.74193e-07
-4.81002e-08
1.50905e-07
-1.67819e-07
-1.25878e-07
-1.52265e-07
-1.72407e-07
-1.18643e-07
-1.61256e-07
-3.11417e-08
-1.52073e-07
6.86512e-08
-1.47924e-07
1.65056e-07
-1.41723e-07
1.71623e-07
-3.90973e-09
1.58256e-07
-2.2832e-08
-1.13962e-07
1.70593e-07
-3.40944e-08
-9.39366e-08
7.99315e-08
-1.69213e-08
-1.43051e-07
-2.65406e-08
-1.62788e-07
-4.66179e-08
-1.41178e-07
-7.55023e-08
-1.23188e-07
-7.68886e-08
-1.46537e-07
-6.65914e-08
-1.5202e-07
3.02796e-08
-1.0078e-07
1.64572e-07
-1.57124e-07
-1.89503e-07
2.40113e-07
4.01993e-08
-1.04635e-07
-2.95014e-08
3.77874e-08
-1.4064e-07
2.26463e-08
-1.47647e-07
1.87973e-08
-1.37329e-07
2.42265e-08
-1.28617e-07
1.22795e-08
-1.3459e-07
3.74553e-09
-1.43486e-07
5.55464e-08
-1.52579e-07
9.31465e-08
-1.94724e-07
-2.27609e-07
1.31252e-07
1.36489e-09
-1.29272e-07
2.3272e-08
1.68826e-08
-1.56157e-07
3.00179e-08
-1.60782e-07
5.07299e-08
-1.58041e-07
6.32059e-08
-1.41093e-07
6.02208e-08
-1.31604e-07
5.52049e-08
-1.38469e-07
6.65976e-08
-1.63972e-07
7.44059e-08
-2.02532e-07
-2.52799e-07
9.95964e-08
-7.70103e-08
-1.5174e-07
9.9478e-08
-4.75588e-08
-1.85608e-07
-1.59945e-09
-2.06741e-07
4.55828e-08
-2.05223e-07
7.67001e-08
-1.7221e-07
8.24475e-08
-1.37352e-07
8.3134e-08
-1.39155e-07
8.68245e-08
-1.67662e-07
9.83883e-08
-2.14096e-07
-2.72601e-07
1.18191e-07
-1.08249e-07
-1.74416e-07
1.30925e-07
-6.81597e-08
-2.25698e-07
-1.60544e-08
-2.58846e-07
4.77971e-08
-2.69075e-07
1.23284e-07
-2.47696e-07
1.73184e-07
-1.87251e-07
1.99309e-07
-1.6528e-07
2.117e-07
-1.80053e-07
2.16563e-07
-2.18959e-07
-2.42817e-07
1.8678e-07
1.06569e-07
-1.79859e-07
-1.01126e-07
1.0312e-07
-2.22249e-07
1.17683e-07
-2.73408e-07
1.51572e-07
-3.02963e-07
2.0954e-07
-3.05665e-07
2.96902e-07
-2.74613e-07
3.74841e-07
-2.4322e-07
4.17476e-07
-2.22688e-07
4.06344e-07
-2.07827e-07
-2.00998e-07
3.64524e-07
4.04439e-07
-1.98917e-07
-3.8538e-07
3.95759e-07
-2.13568e-07
3.71572e-07
-2.4922e-07
3.6009e-07
-2.91482e-07
3.58981e-07
-3.04555e-07
3.94783e-07
-3.10415e-07
4.55985e-07
-3.04422e-07
5.19791e-07
-2.86494e-07
5.59691e-07
-2.47727e-07
-2.23097e-07
5.81789e-07
5.19492e-07
-2.09614e-07
-5.08797e-07
5.22911e-07
-2.16989e-07
5.08769e-07
-2.35076e-07
4.83898e-07
-2.6661e-07
4.71522e-07
-2.9218e-07
4.72957e-07
-3.1185e-07
4.86968e-07
-3.18432e-07
5.15662e-07
-3.15188e-07
5.56054e-07
-2.88118e-07
-2.52247e-07
5.85205e-07
5.95067e-07
-2.04737e-07
-5.99944e-07
5.86525e-07
-2.08451e-07
5.68692e-07
-2.17243e-07
5.49537e-07
-2.47455e-07
5.38569e-07
-2.81211e-07
5.31793e-07
-3.05075e-07
5.26488e-07
-3.13126e-07
5.22704e-07
-3.11404e-07
5.30498e-07
-2.95912e-07
-2.64612e-07
5.42863e-07
5.85474e-07
-2.15689e-07
-5.7452e-07
5.90523e-07
-2.13498e-07
5.94667e-07
-2.21386e-07
5.93949e-07
-2.46738e-07
5.88152e-07
-2.75413e-07
5.74027e-07
-2.9095e-07
5.5811e-07
-2.97209e-07
5.40244e-07
-2.93537e-07
5.17252e-07
-2.72919e-07
-2.51419e-07
5.0406e-07
5.54015e-07
-2.23804e-07
-5.45899e-07
5.74634e-07
-2.34116e-07
5.91442e-07
-2.38195e-07
6.00656e-07
-2.55952e-07
5.97855e-07
-2.72611e-07
5.85498e-07
-2.78593e-07
5.57871e-07
-2.69582e-07
5.12505e-07
-2.48172e-07
4.80738e-07
-2.41151e-07
-2.3295e-07
4.62269e-07
4.76629e-07
-2.47064e-07
-4.53369e-07
4.99153e-07
-2.56641e-07
5.2783e-07
-2.66872e-07
5.38484e-07
-2.66606e-07
5.37036e-07
-2.71164e-07
5.11953e-07
-2.5351e-07
4.66607e-07
-2.24236e-07
4.29151e-07
-2.10715e-07
4.04479e-07
-2.16479e-07
-2.26303e-07
3.97832e-07
2.94088e-07
-2.39943e-07
-3.01208e-07
3.10917e-07
-2.73471e-07
3.29231e-07
-2.85186e-07
3.45658e-07
-2.83032e-07
3.39257e-07
-2.64763e-07
3.29399e-07
-2.43652e-07
3.07843e-07
-2.02681e-07
2.93513e-07
-1.96385e-07
2.95803e-07
-2.18768e-07
-2.64945e-07
3.34445e-07
1.99745e-07
-2.42933e-07
-1.96756e-07
2.0727e-07
-2.80998e-07
2.07814e-07
-2.8573e-07
2.05056e-07
-2.80273e-07
1.98305e-07
-2.58012e-07
1.79097e-07
-2.24443e-07
1.73546e-07
-1.9713e-07
2.04214e-07
-2.27054e-07
2.80417e-07
-2.9497e-07
-3.63845e-07
3.79317e-07
1.8503e-07
-2.37083e-07
-1.90881e-07
1.92914e-07
-2.88882e-07
1.99708e-07
-2.92524e-07
1.80253e-07
-2.60818e-07
1.27423e-07
-2.05182e-07
1.15754e-07
-2.12775e-07
1.67833e-07
-2.49209e-07
2.70289e-07
-3.2951e-07
4.20365e-07
-4.45047e-07
-4.94759e-07
5.5128e-07
2.31051e-07
-2.24154e-07
-2.43979e-07
2.14977e-07
-2.72809e-07
1.93929e-07
-2.71477e-07
1.57795e-07
-2.24683e-07
1.46048e-07
-1.93435e-07
1.77233e-07
-2.4396e-07
3.22777e-07
-3.94752e-07
5.07358e-07
-5.14091e-07
6.48912e-07
-5.86601e-07
-5.64645e-07
7.18796e-07
2.89582e-07
-2.2516e-07
-2.88577e-07
2.66728e-07
-2.49955e-07
2.39257e-07
-2.44006e-07
1.95494e-07
-1.80921e-07
1.73521e-07
-1.71462e-07
3.20822e-07
-3.91261e-07
5.34893e-07
-6.08824e-07
6.75155e-07
-6.54353e-07
7.28648e-07
-6.40093e-07
-5.92211e-07
7.56215e-07
2.52837e-07
-2.27581e-07
-2.50416e-07
2.01433e-07
-1.98551e-07
1.46007e-07
-1.88579e-07
1.04959e-07
-1.39873e-07
2.27089e-07
-2.93592e-07
4.61795e-07
-6.25967e-07
5.75451e-07
-7.2248e-07
6.32085e-07
-7.10987e-07
6.11669e-07
-6.19678e-07
-3.69465e-07
3.88921e-07
1.36344e-07
-1.96697e-07
-1.67228e-07
7.07925e-08
-1.33001e-07
5.52323e-08
-1.73018e-07
9.48068e-08
-1.79447e-07
2.81642e-07
-4.80428e-07
3.92611e-07
-7.36936e-07
4.24591e-07
-7.5446e-07
3.75537e-07
-6.61934e-07
1.74891e-07
-4.19032e-07
-1.52123e-07
-4.24505e-08
9.08092e-08
-1.5178e-07
-1.35726e-07
5.66802e-08
-9.88729e-08
6.91255e-08
-1.85463e-07
1.3575e-07
-2.46073e-07
2.65118e-07
-6.09797e-07
2.82543e-07
-7.54361e-07
2.52978e-07
-7.24895e-07
1.20612e-07
-5.29568e-07
-1.11503e-07
-1.86919e-07
1.92365e-09
-2.65551e-07
1.42564e-07
-1.27527e-07
-1.66818e-07
1.12799e-07
-6.91081e-08
7.77368e-08
-1.50401e-07
1.29299e-07
-2.97634e-07
1.9428e-07
-6.74778e-07
2.17908e-07
-7.77989e-07
1.96983e-07
-7.0397e-07
8.4321e-08
-4.16907e-07
2.66287e-08
-1.29227e-07
4.59825e-08
-1.74305e-08
1.57657e-07
-5.49569e-08
-2.30228e-07
1.61385e-07
-7.28359e-08
1.40573e-07
-1.29589e-07
1.64703e-07
-3.21765e-07
1.69956e-07
-6.8003e-07
1.51036e-07
-7.59068e-07
1.22385e-07
-6.7532e-07
7.08178e-08
-3.65339e-07
7.67177e-08
-1.35127e-07
5.49564e-09
1.17203e-07
7.21696e-08
-2.71517e-09
-1.24412e-07
7.05597e-08
-7.12249e-08
8.48426e-08
-1.43873e-07
1.3664e-07
-3.73562e-07
1.44717e-07
-6.88108e-07
1.18084e-07
-7.32436e-07
8.68617e-08
-6.44097e-07
3.60484e-08
-3.14527e-07
1.02478e-08
-1.09326e-07
-3.99707e-09
1.97393e-08
1.36112e-07
-2.4139e-08
-1.14688e-07
1.18851e-07
-5.39624e-08
1.08481e-07
-1.33502e-07
1.52271e-07
-4.1735e-07
1.47666e-07
-6.83502e-07
1.1982e-07
-7.04591e-07
8.71682e-08
-6.11446e-07
4.25926e-08
-2.69952e-07
2.59739e-08
-9.27086e-08
-4.63428e-09
2.66106e-08
3.86096e-08
-4.51648e-08
-1.7584e-08
7.11297e-08
-8.64873e-08
6.00122e-08
-1.22385e-07
1.0452e-07
-4.61858e-07
1.03663e-07
-6.82645e-07
9.36434e-08
-6.94572e-07
6.06915e-08
-5.78493e-07
1.5393e-08
-2.24654e-07
5.53662e-09
-8.2854e-08
-1.44599e-08
1.53631e-08
1.02715e-08
-5.7858e-08
2.42213e-09
1.8369e-08
-9.4585e-08
4.35061e-08
-1.47522e-07
7.25975e-08
-4.90949e-07
7.81321e-08
-6.88179e-07
6.51188e-08
-6.81558e-07
1.87502e-08
-5.32124e-07
-3.51989e-08
-1.70704e-07
-8.34731e-08
-3.45802e-08
2.39424e-08
-1.21874e-07
-4.00994e-08
-7.82854e-08
6.05263e-08
-1.80372e-08
-1.16646e-07
4.08818e-08
-2.06441e-07
8.84162e-08
-5.38483e-07
8.27184e-08
-6.82482e-07
7.93747e-08
-6.78215e-07
1.24143e-08
-4.65165e-07
-3.73112e-08
-1.20979e-07
-6.5203e-08
-6.68732e-09
5.29099e-08
-9.41687e-08
-7.32698e-08
-9.14328e-08
8.6418e-08
-6.3598e-08
-1.26317e-07
-2.97357e-08
-2.40303e-07
-2.23691e-08
-5.45849e-07
-2.60504e-08
-6.788e-07
-2.38112e-08
-6.80453e-07
-3.29489e-08
-4.56027e-07
-6.33458e-08
-9.0582e-08
-8.07122e-08
1.06776e-08
4.56918e-08
-7.3495e-08
-8.76022e-08
-1.18013e-07
1.14183e-07
-7.08186e-08
-1.43101e-07
-6.275e-08
-2.48372e-07
-5.39648e-08
-5.54635e-07
-5.50274e-08
-6.77738e-07
-6.45238e-08
-6.70957e-07
-6.17723e-08
-4.58778e-07
-1.03122e-07
-4.92318e-08
-1.0759e-07
1.51464e-08
7.29506e-08
-1.34849e-07
-8.33356e-08
-1.51093e-07
1.16416e-07
-6.24222e-08
-1.64014e-07
-8.12007e-08
-2.29593e-07
-6.08061e-08
-5.75028e-07
-5.90221e-08
-6.79522e-07
-5.93835e-08
-6.70596e-07
1.03332e-08
-5.28496e-07
4.88706e-08
-8.77702e-08
2.06221e-08
4.3395e-08
5.62006e-08
3.73713e-08
-4.37513e-08
-1.85299e-07
7.79562e-08
-2.39657e-08
-1.83799e-07
-6.46966e-08
-1.88863e-07
-3.24308e-08
-6.07295e-07
-2.13701e-08
-6.90582e-07
-9.1738e-09
-6.82793e-07
-2.65748e-09
-5.35012e-07
-6.07804e-08
-2.96475e-08
-6.54321e-08
4.80469e-08
4.46892e-08
-5.39205e-08
9.59081e-08
-1.7921e-07
-1.01997e-07
7.97059e-08
-1.67597e-07
-1.87809e-09
-1.07279e-07
3.79534e-09
-6.12968e-07
-3.93504e-09
-6.82852e-07
-9.86128e-09
-6.76867e-07
-2.41222e-08
-5.20751e-07
-4.51195e-08
-8.65058e-09
1.92005e-08
-1.62732e-08
-1.04316e-08
7.43214e-08
1.97741e-07
-6.24737e-08
-3.14477e-07
1.0275e-07
-7.26072e-08
1.63303e-08
-2.08582e-08
4.56512e-08
-6.42288e-07
1.21098e-08
-6.49311e-07
-8.3589e-09
-6.56398e-07
4.42153e-08
-5.73325e-07
-1.4135e-08
4.97001e-08
-3.97621e-09
-2.64317e-08
-6.15979e-08
4.71907e-08
4.69009e-08
1.26105e-07
-2.35479e-07
-2.9184e-08
3.47639e-09
-2.06774e-08
-2.93651e-08
6.71511e-09
-6.69681e-07
-3.77847e-09
-6.38817e-07
-1.9863e-08
-6.40314e-07
2.95064e-08
-6.22695e-07
4.18549e-08
3.7352e-08
3.01827e-08
-1.47594e-08
-2.99107e-08
-1.50497e-09
1.13349e-08
1.32168e-08
1.01553e-07
-7.02595e-08
8.5072e-08
1.19466e-08
-1.11571e-07
-4.59916e-10
-6.57274e-07
-8.44789e-09
-6.30829e-07
-1.69136e-08
-6.31848e-07
6.05775e-09
-6.45666e-07
5.07721e-08
-7.36176e-09
9.02566e-08
-5.42439e-08
-5.42822e-07
6.03168e-07
-1.63932e-07
-5.50356e-08
2.32186e-07
-1.7191e-07
9.30446e-08
8.34136e-08
-3.669e-07
2.9677e-08
-6.03532e-07
-9.51884e-09
-5.91633e-07
-5.29516e-08
-5.88415e-07
-7.69015e-08
-6.21715e-07
7.95303e-08
-1.63793e-07
-2.68338e-07
2.93637e-07
-1.22346e-07
-6.88798e-07
-2.95334e-07
-3.05724e-08
2.70872e-07
-6.99115e-08
-1.32352e-07
7.68897e-08
-5.13688e-07
3.45497e-08
-5.61191e-07
4.64416e-09
-5.61727e-07
-2.28996e-08
-5.60872e-07
-8.62536e-08
-5.5836e-07
2.3938e-07
-4.89443e-07
2.21997e-07
3.11024e-07
2.12178e-07
-1.12547e-07
2.15076e-08
9.97199e-09
-6.20438e-08
6.04257e-08
-1.71224e-07
8.25747e-08
-5.35819e-07
4.21162e-08
-5.20732e-07
-2.37668e-09
-5.17235e-07
-4.41477e-08
-5.19101e-07
-8.15585e-08
-5.20949e-07
-2.89622e-08
-5.42029e-07
4.37199e-08
2.38353e-07
2.25447e-07
3.04697e-08
1.20621e-07
2.40103e-08
-1.34654e-07
1.18418e-07
-1.69075e-07
6.03539e-08
-4.77771e-07
2.79002e-08
-4.88278e-07
2.63283e-09
-4.91967e-07
-2.33791e-08
-4.93089e-07
-6.02052e-08
-4.84122e-07
-1.30376e-07
-4.71858e-07
-1.10297e-08
1.18998e-07
1.6913e-07
4.5305e-08
1.26859e-07
3.59966e-08
-1.38834e-07
1.16353e-07
-1.58469e-07
7.49061e-08
-4.36314e-07
3.6668e-08
-4.5004e-07
-1.12101e-08
-4.44089e-07
-5.65136e-08
-4.47785e-07
-9.00246e-08
-4.50611e-07
-1.26864e-07
-4.35018e-07
6.25306e-08
-7.03857e-08
2.03926e-07
2.77504e-08
9.61491e-08
6.51699e-08
-1.25324e-07
1.34766e-07
-1.97135e-07
8.61842e-08
-3.87734e-07
3.7297e-08
-4.01153e-07
4.66815e-09
-4.1146e-07
-3.28196e-08
-4.10297e-07
-7.98605e-08
-4.03571e-07
-1.24967e-07
-3.89911e-07
-7.1811e-09
-1.88161e-07
2.63065e-07
-6.6315e-08
5.87107e-08
-1.16476e-08
1.81115e-08
1.37801e-07
-2.76255e-07
9.15636e-08
-3.41496e-07
5.00713e-08
-3.59661e-07
2.14745e-09
-3.63536e-07
-4.36927e-08
-3.64457e-07
-8.60001e-08
-3.61263e-07
-1.3207e-07
-3.43842e-07
-3.15875e-08
-2.88646e-07
6.69824e-08
1.64491e-07
1.37544e-07
-1.12092e-07
-3.71146e-08
1.41344e-07
-2.80095e-07
1.00568e-07
-3.0072e-07
5.43961e-08
-3.13489e-07
4.56819e-09
-3.13708e-07
-4.74758e-08
-3.12413e-07
-9.74382e-08
-3.11301e-07
-1.38257e-07
-3.03022e-07
-1.48281e-07
-2.78616e-07
-1.14107e-07
3.2805e-08
2.15797e-07
-2.03785e-07
-1.24106e-07
1.5541e-07
-2.19708e-07