/*--------------------------------*- C++ -*----------------------------------*\
  =========                 |
  \\      /  F ield         | OpenFOAM: The Open Source CFD Toolbox
   \\    /   O peration     | Website:  https://openfoam.org
    \\  /    A nd           | Version:  8
     \\/     M anipulation  |
\*---------------------------------------------------------------------------*/
FoamFile
{
    version     2.0;
    format      ascii;
    class       volVectorField;
    location    "7.95";
    object      U;
}
// * * * * * * * * * * * * * * * * * * * * * * * * * * * * * * * * * * * * * //

dimensions      [0 1 -1 0 0 0 0];

internalField   nonuniform List<vector> 
9150
(
(0.00488534 -0.0782273 0)
(0.0131087 -0.0973785 0)
(0.0108495 -0.104396 0)
(0.0089035 -0.107708 0)
(0.00238466 -0.109307 0)
(-0.00306638 -0.109196 0)
(-0.0092989 -0.107422 0)
(-0.0109111 -0.104305 0)
(-0.0131353 -0.0973296 0)
(-0.00486763 -0.0781885 0)
(0.00592268 -0.0919866 0)
(0.00859205 -0.100493 0)
(0.00739021 -0.102211 0)
(0.00431344 -0.104709 0)
(0.0017718 -0.105546 0)
(-0.00161392 -0.105604 0)
(-0.00427181 -0.104944 0)
(-0.00736948 -0.102297 0)
(-0.00862146 -0.100487 0)
(-0.00592591 -0.0919701 0)
(0.00174559 -0.0954466 0)
(0.00457532 -0.0989704 0)
(0.0037426 -0.100999 0)
(0.00342194 -0.101657 0)
(0.00098191 -0.10234 0)
(-0.000760658 -0.102399 0)
(-0.00342385 -0.101668 0)
(-0.00376629 -0.100975 0)
(-0.00458511 -0.0989653 0)
(-0.0017468 -0.0954393 0)
(0.00174793 -0.0984163 0)
(0.00247148 -0.100396 0)
(0.00220492 -0.100232 0)
(0.00127981 -0.100853 0)
(0.000389686 -0.100879 0)
(-0.000622562 -0.100854 0)
(-0.00127479 -0.100885 0)
(-0.00222514 -0.100227 0)
(-0.00247926 -0.100397 0)
(-0.00174813 -0.0984128 0)
(0.000183581 -0.0994909 0)
(0.000722616 -0.0995755 0)
(0.000476203 -0.10002 0)
(0.000682614 -0.0998617 0)
(0.000234502 -0.100098 0)
(-9.37597e-05 -0.100129 0)
(-0.000673875 -0.0998749 0)
(-0.000463883 -0.100035 0)
(-0.000725555 -0.0995743 0)
(-0.000183514 -0.0994904 0)
(0.0755408 -0.194465 2.3522e-26)
(0.0493809 -0.184615 0)
(0.0304897 -0.176007 0)
(0.015661 -0.174862 0)
(0.00488435 -0.175725 0)
(-0.00518274 -0.17592 0)
(-0.0156435 -0.175272 0)
(-0.0307974 -0.176488 0)
(-0.049372 -0.185089 0)
(-0.075728 -0.194799 -2.34763e-26)
(0.0583519 -0.146401 5.92232e-27)
(0.0483851 -0.146393 0)
(0.0281986 -0.156038 0)
(0.0207005 -0.156283 0)
(0.00431832 -0.155429 0)
(-0.00441621 -0.155706 0)
(-0.0208206 -0.15658 0)
(-0.0281755 -0.156232 0)
(-0.0484549 -0.146636 0)
(-0.0584143 -0.146594 -6.09009e-27)
(0.0475498 -0.121372 2.7942e-27)
(0.0427594 -0.131242 0)
(0.0299118 -0.133902 0)
(0.0177816 -0.137508 0)
(0.00706659 -0.140325 0)
(-0.00557768 -0.140405 0)
(-0.0167972 -0.138201 0)
(-0.0294835 -0.134016 0)
(-0.0425912 -0.131325 0)
(-0.0475377 -0.121459 -2.83197e-27)
(0.0371049 -0.099374 4.8926e-27)
(0.0390551 -0.11019 0)
(0.0224761 -0.120445 0)
(0.0174744 -0.125403 0)
(0.00406513 -0.125189 0)
(-0.0049532 -0.125144 0)
(-0.0178693 -0.124455 0)
(-0.0225827 -0.120384 0)
(-0.0390456 -0.110207 0)
(-0.0371096 -0.0993745 -4.95299e-27)
(0.0245849 -0.0815255 -1.41185e-26)
(0.0280627 -0.101164 -1.68213e-26)
(0.0198697 -0.108269 -4.24888e-27)
(0.0108377 -0.114006 -3.73281e-27)
(0.00468309 -0.117063 -1.54464e-28)
(-0.00397175 -0.11717 -1.78555e-28)
(-0.010353 -0.114419 -3.78943e-27)
(-0.0196859 -0.108206 -4.22107e-27)
(-0.0280273 -0.10114 -1.67952e-26)
(-0.024548 -0.0815069 -1.41096e-26)
(0.0180829 -0.142748 0)
(0.0128864 -0.204348 0)
(0.0220315 -0.218166 0)
(0.0104422 -0.222409 0)
(0.00651318 -0.2259 0)
(-0.0085849 -0.225189 0)
(-0.0102585 -0.222199 0)
(-0.0219334 -0.216513 0)
(-0.0114707 -0.205348 0)
(-0.0181567 -0.143928 0)
(0.0165714 -0.166253 0)
(0.00193375 -0.199122 0)
(0.0158899 -0.208779 0)
(0.0024688 -0.213664 0)
(0.00744724 -0.215083 0)
(-0.00459774 -0.214658 0)
(-0.000651509 -0.214407 0)
(-0.0143369 -0.2094 0)
(-0.00127734 -0.199976 0)
(-0.0158183 -0.166908 0)
(0.014615 -0.172178 0)
(-0.00394346 -0.203497 0)
(0.0106489 -0.208748 0)
(-0.00105783 -0.209805 0)
(0.00291803 -0.210386 0)
(-0.003484 -0.210186 0)
(0.000875134 -0.208898 0)
(-0.010857 -0.208548 0)
(0.00409734 -0.20361 0)
(-0.0149825 -0.172171 0)
(0.0180975 -0.19472 0)
(-0.00689084 -0.204229 0)
(0.00960968 -0.210336 0)
(-0.000813404 -0.206559 0)
(0.00186177 -0.207059 0)
(-0.00178185 -0.206792 0)
(0.000898552 -0.206775 0)
(-0.00959327 -0.210423 0)
(0.00693619 -0.204386 0)
(-0.0180287 -0.194928 0)
(0.0351868 -0.217163 0)
(0.00946361 -0.203796 0)
(0.0159742 -0.202811 0)
(0.0115862 -0.195761 0)
(0.00130194 -0.192684 0)
(-0.00194415 -0.192592 0)
(-0.0119055 -0.195727 0)
(-0.0162751 -0.203074 0)
(-0.00949477 -0.204021 0)
(-0.0354077 -0.217504 0)
(-0.00198914 -0.0110564 0)
(0.00234472 -0.00942375 0)
(0.00595829 -0.000607661 0)
(0.00184642 0.0111026 0)
(-0.00526003 0.00540085 0)
(-0.00503111 -0.00268145 0)
(-0.00244113 -0.00414639 0)
(-0.00074091 -0.00411492 0)
(0.000416628 -0.00473995 0)
(-0.000484058 -0.00295685 0)
(-0.00182543 -0.00317909 0)
(-0.00548886 -0.00633198 0)
(-0.00400491 0.00225419 0)
(0.000131038 0.00974501 0)
(0.00315794 0.00751827 0)
(0.00493541 -0.00232687 0)
(0.00296786 -0.00497794 0)
(-0.000715685 -0.00191954 0)
(-0.0054551 0.00427915 0)
(-0.0125892 0.0108776 0)
(-0.00220002 0.00784762 0)
(-0.00496964 -0.00741455 0)
(-0.00459317 -0.00867701 0)
(-0.00276084 -0.00259273 0)
(-0.00102441 -0.00273698 0)
(-0.00224267 -0.00197486 0)
(-0.00774566 0.00693414 0)
(-0.0138634 0.0124478 0)
(-0.0203631 0.0185454 0)
(-0.0309947 0.0332833 0)
(-0.0084634 0.00719109 0)
(-0.00944668 -0.00268899 0)
(-0.0110413 -0.00329328 0)
(-0.0119038 0.0025695 0)
(-0.0136994 0.00490165 0)
(-0.0179941 0.0119751 0)
(-0.021379 0.0179336 0)
(-0.0249619 0.0230366 0)
(-0.0328347 0.0372409 0)
(-0.0394874 0.0476703 0)
(-0.013645 0.00872687 0)
(-0.0146764 -0.00120207 0)
(-0.014843 -0.00254273 0)
(-0.0160006 0.00193361 0)
(-0.0160074 0.0092492 0)
(-0.0188818 0.0161846 0)
(-0.0214388 0.0230521 0)
(-0.0263302 0.0359541 0)
(-0.0323179 0.0479557 0)
(-0.034926 0.0511794 0)
(-0.0168822 0.00820314 0)
(-0.0164438 0.00123482 0)
(-0.0167633 0.000538649 0)
(-0.0175644 0.00262039 0)
(-0.017186 0.0106016 0)
(-0.0191144 0.0222564 0)
(-0.0233556 0.0301997 0)
(-0.0289047 0.0457516 0)
(-0.0302923 0.0513325 0)
(-0.0300629 0.0517487 0)
(-0.0198902 0.00573133 0)
(-0.019423 0.00027791 0)
(-0.0193502 0.000103715 0)
(-0.0195714 0.00324816 0)
(-0.0189166 0.013811 0)
(-0.0194027 0.0313986 0)
(-0.027344 0.0435655 0)
(-0.0328603 0.0496476 0)
(-0.0324722 0.0513428 0)
(-0.0302014 0.0485679 0)
(-0.0189376 0.00702386 0)
(-0.0207651 0.000621282 0)
(-0.0217649 -0.00017581 0)
(-0.021488 0.00118611 0)
(-0.0197065 0.0101704 0)
(-0.0193811 0.0364003 0)
(-0.0252011 0.058008 0)
(-0.0320281 0.05823 0)
(-0.0337552 0.0461782 0)
(-0.0285619 0.0347996 0)
(-0.0188904 0.0145529 0)
(-0.0284826 0.00533909 0)
(-0.0326087 0.0012943 0)
(-0.0324336 -5.20564e-05 0)
(-0.0313993 0.00822205 0)
(-0.0266451 0.0417492 0)
(-0.0259614 0.0653805 0)
(-0.0267774 0.0641541 0)
(-0.0267576 0.0432925 0)
(-0.0224429 0.0215264 0)
(-0.00187346 0.0412356 0)
(-0.0169217 0.0261929 0)
(-0.0332558 0.0086714 0)
(-0.0426998 -0.00357886 0)
(-0.0482348 7.30263e-05 0)
(-0.0457135 0.03439 0)
(-0.0353674 0.0588411 0)
(-0.0282231 0.0584145 0)
(-0.0217372 0.0415985 0)
(-0.0218685 0.0202375 0)
(0.0145069 0.0570404 0)
(0.0122089 0.0642 0)
(0.00346823 0.0530988 0)
(-0.00906468 0.0314712 0)
(-0.0258965 0.0158281 0)
(-0.0345375 0.0181049 0)
(-0.0301004 0.0291204 0)
(-0.0236582 0.0356066 0)
(-0.0208315 0.0351222 0)
(-0.0203053 0.0185881 0)
(0.0422308 0.0451001 0)
(0.0451677 0.0504154 0)
(0.0469844 0.0546535 0)
(0.040984 0.0547716 0)
(0.0284546 0.0484204 0)
(0.0146968 0.0420274 0)
(0.00809896 0.0339018 0)
(-0.0036225 0.0352847 0)
(-0.00678885 0.0350057 0)
(-0.0107139 0.0219727 0)
(0.0601792 0.0499409 0)
(0.0579283 0.0525291 0)
(0.0571769 0.0601876 0)
(0.0533252 0.0693158 0)
(0.0485765 0.0690833 0)
(0.0391788 0.0613898 0)
(0.0311236 0.0595326 0)
(0.0172506 0.0616675 0)
(0.0122745 0.0531636 0)
(0.00165111 0.0397325 0)
(0.048573 0.0497116 0)
(0.0510565 0.0557475 0)
(0.0517563 0.0657574 0)
(0.0483755 0.0768749 0)
(0.043942 0.0798899 0)
(0.0399913 0.0747398 0)
(0.0352106 0.0736534 0)
(0.0249359 0.0759481 0)
(0.0173037 0.0696101 0)
(0.00519756 0.0586773 0)
(0.0299327 0.0352144 0)
(0.0331395 0.0446959 0)
(0.0350674 0.0638028 0)
(0.033953 0.0762988 0)
(0.0311 0.0793712 0)
(0.0284191 0.0816531 0)
(0.0230138 0.0862392 0)
(0.0158963 0.0918918 0)
(0.00936183 0.0909191 0)
(0.00362424 0.0753338 0)
(-0.0126588 0.0374575 0)
(-0.0128719 0.0514723 0)
(-0.0118566 0.0684013 0)
(-0.00898159 0.0835521 0)
(-0.00795024 0.0899762 0)
(-0.00713056 0.0952134 0)
(-0.008885 0.0988468 0)
(-0.00639707 0.100789 0)
(-0.00329422 0.0936182 0)
(0.00207004 0.0755477 0)
(-0.0594153 0.0368213 0)
(-0.0599623 0.0513883 0)
(-0.0572242 0.0654352 0)
(-0.0523443 0.0741726 0)
(-0.0446392 0.0809322 0)
(-0.0382014 0.0894188 0)
(-0.0321878 0.0899755 0)
(-0.0216152 0.0853013 0)
(-0.011021 0.0784939 0)
(0.000365657 0.0666642 0)
(-0.0711945 0.0282324 0)
(-0.0703824 0.0441861 0)
(-0.065705 0.0532911 0)
(-0.0602617 0.0561093 0)
(-0.0540644 0.061293 0)
(-0.0451203 0.0685242 0)
(-0.0343203 0.0644646 0)
(-0.0223166 0.0549425 0)
(-0.00985483 0.0480918 0)
(0.00324766 0.0409726 0)
(-0.0696276 0.029319 0)
(-0.0678157 0.0371033 0)
(-0.0610194 0.043568 0)
(-0.0540602 0.0452113 0)
(-0.0475685 0.0458724 0)
(-0.039746 0.0460198 0)
(-0.029753 0.040615 0)
(-0.0196768 0.0328014 0)
(-0.00868516 0.0236347 0)
(0.00287588 0.0138532 0)
(-0.0542539 0.0213812 0)
(-0.0546883 0.0235195 0)
(-0.0518409 0.0263529 0)
(-0.0479696 0.030084 0)
(-0.0424227 0.0330406 0)
(-0.0347553 0.0319023 0)
(-0.0281161 0.0251307 0)
(-0.0217235 0.0135598 0)
(-0.0154973 0.00341664 0)
(-0.00909696 -0.00503802 0)
(-0.0132358 0.0384882 0)
(-0.0214819 0.0398758 0)
(-0.0263545 0.0347394 0)
(-0.0304545 0.0241594 0)
(-0.0283557 0.0175342 0)
(-0.0258728 0.0158382 0)
(-0.0226643 0.014562 0)
(-0.0204894 0.00845384 0)
(-0.0209178 -0.00183412 0)
(-0.021391 -0.0124872 0)
(0.0248258 0.0446612 0)
(0.0200346 0.0464355 0)
(0.0132444 0.0474188 0)
(0.00704561 0.0376276 0)
(0.000941927 0.028487 0)
(-0.00221055 0.0211061 0)
(-0.00553847 0.0160112 0)
(-0.00570398 0.0120277 0)
(-0.00757581 0.00779015 0)
(-0.0106721 -0.000849148 0)
(0.0562378 0.0544804 0)
(0.0557483 0.0613471 0)
(0.0503748 0.0629351 0)
(0.0441949 0.0528016 0)
(0.0317324 0.038759 0)
(0.0232886 0.0298149 0)
(0.0162077 0.0207821 0)
(0.0120845 0.011684 0)
(0.00703463 0.00820954 0)
(0.00299494 0.00946094 0)
(0.066766 0.0388613 0)
(0.0738453 0.053584 0)
(0.078136 0.073355 0)
(0.0779058 0.0703646 0)
(0.0782664 0.0611042 0)
(0.0685883 0.0518546 0)
(0.056709 0.0386372 0)
(0.0427475 0.0331202 0)
(0.0288942 0.0259672 0)
(0.0175615 0.0202405 0)
(0.0732887 0.0292084 0)
(0.0758699 0.0356421 0)
(0.0811747 0.0525535 0)
(0.0907435 0.0587353 0)
(0.0885281 0.0724159 0)
(0.0794655 0.0734465 0)
(0.0688367 0.0658355 0)
(0.0586039 0.0595515 0)
(0.0524481 0.0515201 0)
(0.0429864 0.0498132 0)
(0.0677481 0.0434646 0)
(0.0639828 0.0411899 0)
(0.0675984 0.0375741 0)
(0.0733474 0.0462474 0)
(0.0725047 0.0761864 0)
(0.0606699 0.0862289 0)
(0.0533119 0.0827397 0)
(0.0545085 0.0671752 0)
(0.0573079 0.0572314 0)
(0.0581241 0.0568245 0)
(0.0394652 0.0581736 0)
(0.0434957 0.0294414 0)
(0.0430994 0.0269116 0)
(0.0306135 0.0779168 0)
(0.0109657 0.104419 0)
(0.0181437 0.0947513 0)
(0.0348882 0.0751389 0)
(0.0464313 0.0573035 0)
(0.0559035 0.0491832 0)
(0.059456 0.0497619 0)
(-0.0108434 0.0254399 0)
(-0.0210897 0.0292179 0)
(-0.0215844 0.0824825 0)
(-0.0299555 0.106454 0)
(-0.0123076 0.0856706 0)
(0.00127814 0.0515104 0)
(0.0176513 0.0260328 0)
(0.0387986 0.0199887 0)
(0.0481194 0.0372249 0)
(0.052425 0.039974 0)
(-0.0973442 0.0375097 0)
(-0.0941094 0.0547942 0)
(-0.0848416 0.0660738 0)
(-0.0627533 0.0590834 0)
(-0.0481427 0.0471235 0)
(-0.0322949 0.0348097 0)
(-0.0186526 0.00558192 0)
(-0.0117209 -0.00834107 0)
(0.0120514 0.0353216 0)
(0.0201787 0.0134106 0)
(-0.139307 0.0106166 0)
(-0.120306 0.0173573 0)
(-0.10244 0.0211484 0)
(-0.0874213 0.0206594 0)
(-0.073225 0.027848 0)
(-0.0544326 -0.00453592 0)
(-0.0392696 -0.0345695 0)
(-0.0297724 -0.0391092 0)
(-0.0126333 -0.0160345 0)
(0.00308885 -0.0333292 0)
(-0.143438 -0.011731 0)
(-0.141448 -0.0122083 0)
(-0.130458 -0.0122185 0)
(-0.112434 -0.010514 0)
(-0.0890398 -0.016745 0)
(-0.0685703 -0.0386229 0)
(-0.0604654 -0.0488025 0)
(-0.0464828 -0.0452331 0)
(-0.0348606 -0.0379637 0)
(-0.01573 -0.0521733 0)
(-0.132792 -0.000276428 0)
(-0.136482 -0.00888476 0)
(-0.123994 -0.031643 0)
(-0.109242 -0.0539038 0)
(-0.0929151 -0.0602214 0)
(-0.0700705 -0.0728068 0)
(-0.0523729 -0.0755308 0)
(-0.0284503 -0.0821967 0)
(-0.0142584 -0.0844623 0)
(0.00696157 -0.0873169 0)
(-0.0295941 0.026935 0)
(-0.0540038 -0.0122495 0)
(-0.0495887 -0.0648605 0)
(-0.0503158 -0.0892984 0)
(-0.0466382 -0.114348 0)
(-0.0223404 -0.13864 0)
(-0.00457775 -0.135494 0)
(0.0244149 -0.131665 0)
(0.0422552 -0.112921 0)
(0.0617019 -0.112142 0)
(0.0310759 0.0254997 0)
(0.0540172 0.0336713 0)
(0.0555728 0.00098561 0)
(0.0629964 -0.0564159 0)
(0.0584625 -0.108998 0)
(0.0638689 -0.1608 0)
(0.0656966 -0.176339 0)
(0.0700217 -0.173755 0)
(0.0844726 -0.168755 0)
(0.0995928 -0.151329 0)
(0.043852 -0.0657801 0)
(0.0660397 -0.0537583 0)
(0.0934726 -0.0699354 0)
(0.116825 -0.0750773 0)
(0.129437 -0.0980499 0)
(0.13364 -0.141622 0)
(0.129775 -0.167271 0)
(0.131223 -0.172869 0)
(0.135305 -0.173552 0)
(0.140267 -0.16834 0)
(0.0609559 -0.0601803 0)
(0.0801357 -0.0878447 0)
(0.104888 -0.11039 0)
(0.121019 -0.120024 0)
(0.137922 -0.123968 0)
(0.144153 -0.145542 0)
(0.14836 -0.166526 0)
(0.156799 -0.177309 0)
(0.16442 -0.181983 0)
(0.169992 -0.177723 0)
(0.0594193 -0.118618 0)
(0.0725518 -0.138998 0)
(0.0878543 -0.143434 0)
(0.0986842 -0.148683 0)
(0.116938 -0.154219 0)
(0.136313 -0.170386 0)
(0.152548 -0.188336 0)
(0.163761 -0.201511 0)
(0.170883 -0.198943 0)
(0.173318 -0.189841 0)
(0.0168411 -0.140406 0)
(0.0320549 -0.154068 0)
(0.0498468 -0.171748 0)
(0.0714397 -0.189549 0)
(0.0918122 -0.207726 0)
(0.110964 -0.224624 0)
(0.127114 -0.238152 0)
(0.134524 -0.230791 0)
(0.13123 -0.218813 0)
(0.122999 -0.207338 0)
(0.000185492 -0.163659 0)
(0.0203306 -0.196628 0)
(0.0386152 -0.221749 0)
(0.0580013 -0.236114 0)
(0.0694279 -0.24873 0)
(0.0724417 -0.247357 0)
(0.0627443 -0.236136 0)
(0.0463571 -0.211684 0)
(0.033663 -0.179471 0)
(0.0198152 -0.159385 0)
(-0.0177602 -0.219267 0)
(-0.00577078 -0.236949 0)
(-0.00225905 -0.246365 0)
(-0.0120977 -0.24237 0)
(-0.0367297 -0.222404 0)
(-0.0572141 -0.198887 0)
(-0.072775 -0.182009 0)
(-0.0812553 -0.159103 0)
(-0.0840642 -0.157131 0)
(-0.0784608 -0.153093 0)
(-0.0548964 -0.220287 0)
(-0.0663544 -0.217677 0)
(-0.0893246 -0.196327 0)
(-0.113102 -0.170164 0)
(-0.122784 -0.169932 0)
(-0.131032 -0.174992 0)
(-0.133718 -0.176513 0)
(-0.134222 -0.167968 0)
(-0.128754 -0.179565 0)
(-0.121258 -0.185744 0)
(-0.137999 -0.178651 0)
(-0.152051 -0.171692 0)
(-0.158815 -0.165746 0)
(-0.162173 -0.1638 0)
(-0.167662 -0.171748 0)
(-0.173341 -0.175055 0)
(-0.17346 -0.177112 0)
(-0.168598 -0.179724 0)
(-0.159771 -0.196968 0)
(-0.158388 -0.209162 0)
(-0.202924 -0.16998 0)
(-0.205746 -0.174334 0)
(-0.216691 -0.158671 0)
(-0.219892 -0.152754 0)
(-0.223271 -0.157694 0)
(-0.226166 -0.169655 0)
(-0.228145 -0.18113 0)
(-0.229981 -0.188245 0)
(-0.236818 -0.189354 0)
(-0.243267 -0.183751 0)
(-0.260349 -0.140175 0)
(-0.281436 -0.136018 0)
(-0.28791 -0.139124 0)
(-0.288613 -0.15337 0)
(-0.283832 -0.166003 0)
(-0.28155 -0.168273 0)
(-0.282069 -0.167695 0)
(-0.287014 -0.166795 0)
(-0.293606 -0.169706 0)
(-0.29739 -0.173415 0)
(-0.309862 -0.111448 0)
(-0.315468 -0.125933 0)
(-0.318475 -0.141501 0)
(-0.321651 -0.161798 0)
(-0.321691 -0.171384 0)
(-0.320815 -0.172964 0)
(-0.318581 -0.168326 0)
(-0.316993 -0.164785 0)
(-0.317413 -0.167615 0)
(-0.316447 -0.176108 0)
(-0.338832 -0.0947133 0)
(-0.33953 -0.108447 0)
(-0.341416 -0.127 0)
(-0.33612 -0.152534 0)
(-0.336425 -0.17056 0)
(-0.336545 -0.174351 0)
(-0.3366 -0.174273 0)
(-0.329273 -0.169008 0)
(-0.323782 -0.171509 0)
(-0.315128 -0.183188 0)
(-0.378071 -0.0950366 0)
(-0.369867 -0.116464 0)
(-0.356608 -0.13125 0)
(-0.351756 -0.151383 0)
(-0.349068 -0.167617 0)
(-0.344552 -0.17351 0)
(-0.344028 -0.181347 0)
(-0.336315 -0.186319 0)
(-0.32672 -0.193469 0)
(-0.314185 -0.208201 0)
(-0.393345 -0.110351 0)
(-0.391288 -0.150895 0)
(-0.380975 -0.170538 0)
(-0.371031 -0.177857 0)
(-0.358128 -0.187757 0)
(-0.348331 -0.186442 0)
(-0.33898 -0.19554 0)
(-0.332255 -0.200033 0)
(-0.330422 -0.215329 0)
(-0.324462 -0.2369 0)
(-0.358888 -0.102786 0)
(-0.367247 -0.17496 0)
(-0.366884 -0.20298 0)
(-0.358128 -0.216062 0)
(-0.352622 -0.221042 0)
(-0.337776 -0.22668 0)
(-0.327726 -0.217637 0)
(-0.320598 -0.218515 0)
(-0.317357 -0.226384 0)
(-0.319264 -0.243107 0)
(-0.181001 -0.0513363 0)
(-0.157378 -0.106249 0)
(-0.179664 -0.144325 0)
(-0.206579 -0.195179 0)
(-0.265136 -0.212601 0)
(-0.276351 -0.233867 0)
(-0.279912 -0.232854 0)
(-0.27725 -0.226478 0)
(-0.28102 -0.224513 0)
(-0.288192 -0.23334 0)
(-0.0528748 -0.169176 0)
(-0.0302132 -0.137457 0)
(-0.0335324 -0.084151 0)
(-0.0303588 -0.0801169 0)
(-0.0570733 -0.0554114 0)
(-0.097192 -0.172739 0)
(-0.162092 -0.209409 0)
(-0.176577 -0.214771 0)
(-0.188859 -0.201892 0)
(-0.197504 -0.201955 0)
(-0.0057127 -0.204112 0)
(-0.00772535 -0.17224 0)
(0.00447932 -0.146305 0)
(0.0173203 -0.124156 0)
(0.0152052 -0.0499015 0)
(0.00270722 -0.0596533 0)
(-0.0331226 -0.0696141 0)
(-0.0988109 -0.156328 0)
(-0.114814 -0.180692 0)
(-0.125784 -0.180632 0)
(0.0355756 -0.184566 0)
(0.0197975 -0.159755 0)
(0.015441 -0.151414 0)
(0.0167861 -0.118827 0)
(0.0276564 -0.0543275 0)
(0.00963537 -0.047837 0)
(0.00899343 0.0114225 0)
(-0.0567885 -0.0470547 0)
(-0.0787853 -0.156236 0)
(-0.0955724 -0.187744 0)
(0.0120896 -0.0969619 0)
(-0.00539075 -0.109828 0)
(-0.00736131 -0.152392 0)
(-0.00324468 -0.118488 0)
(0.0107281 -0.0407993 0)
(-0.00406755 -0.00938136 0)
(0.0450941 0.0177178 0)
(0.0466184 0.00379625 0)
(0.0253269 -0.103775 0)
(-0.0377057 -0.184353 0)
(-0.0906837 -0.045091 0)
(-0.0829797 -0.12806 0)
(-0.0800371 -0.169396 0)
(-0.0692791 -0.148635 0)
(-0.0397831 -0.11683 0)
(0.00775977 -0.101417 0)
(0.0592634 -0.104733 0)
(0.093296 0.0106085 0)
(0.0824127 0.0338123 0)
(0.0666032 -0.0492963 0)
(-0.0336443 -0.073743 0)
(-0.00588926 -0.139178 0)
(-0.00767604 -0.169477 0)
(-0.0189314 -0.15439 0)
(-0.0340708 -0.147319 0)
(-0.032024 -0.166694 0)
(-0.0573654 -0.163142 0)
(0.000886464 -0.0236619 0)
(0.0361058 -0.0835513 0)
(0.108174 -0.144244 0)
(0.0164497 -0.0896956 0)
(0.021338 -0.132094 0)
(0.0150221 -0.146401 0)
(0.00874668 -0.131424 0)
(0.0103911 -0.118849 0)
(0.0148732 -0.137797 0)
(-0.00425628 -0.152819 0)
(0.00878138 -0.168984 0)
(0.0374106 -0.214155 0)
(0.0559463 -0.229294 0)
(-0.00501244 -0.104945 0)
(0.00557708 -0.13568 0)
(0.0115785 -0.140719 0)
(0.0204494 -0.136879 0)
(0.0307563 -0.130585 0)
(0.0308332 -0.132495 0)
(0.027718 -0.13904 0)
(0.0289981 -0.153138 0)
(0.0344056 -0.190991 0)
(0.043376 -0.232877 0)
(-0.0448658 -0.149717 0)
(-0.0330055 -0.174167 0)
(-0.0133657 -0.186415 0)
(0.0125581 -0.182021 0)
(0.0330982 -0.150953 0)
(0.0402627 -0.131037 0)
(0.0415307 -0.140459 0)
(0.0407312 -0.17331 0)
(0.044818 -0.217888 0)
(0.0553508 -0.27828 0)
(-0.0591636 -0.17731 0)
(-0.0434645 -0.219446 0)
(-0.021963 -0.243655 0)
(0.00785282 -0.240674 0)
(0.0430713 -0.20197 0)
(0.0754395 -0.146562 0)
(0.0927049 -0.144165 0)
(0.100328 -0.173401 0)
(0.112908 -0.223795 0)
(0.104151 -0.272375 0)
(0.0541909 -0.190095 0)
(0.0494716 -0.248746 0)
(0.0559097 -0.290458 0)
(0.0723065 -0.307327 0)
(0.0859236 -0.296267 0)
(0.12168 -0.23728 0)
(0.163943 -0.193303 0)
(0.199386 -0.187753 0)
(0.215298 -0.211022 0)
(0.192935 -0.220609 0)
(0.19587 -0.15804 0)
(0.201382 -0.190978 0)
(0.199713 -0.253915 0)
(0.186939 -0.29747 0)
(0.181354 -0.314039 0)
(0.179596 -0.312065 0)
(0.203254 -0.292149 0)
(0.245077 -0.262067 0)
(0.274517 -0.213943 0)
(0.285331 -0.195892 0)
(0.255998 -0.221545 0)
(0.260929 -0.226652 0)
(0.264234 -0.241999 0)
(0.251596 -0.278982 0)
(0.23895 -0.298159 0)
(0.235399 -0.311801 0)
(0.235381 -0.317161 0)
(0.246356 -0.311569 0)
(0.267127 -0.279065 0)
(0.288617 -0.239341 0)
(0.298887 -0.209567 0)
(0.295341 -0.208552 0)
(0.29156 -0.218223 0)
(0.280996 -0.248088 0)
(0.272373 -0.281267 0)
(0.267006 -0.305958 0)
(0.264238 -0.316256 0)
(0.261519 -0.314819 0)
(0.261118 -0.295314 0)
(0.268065 -0.263188 0)
(0.288344 -0.209433 0)
(0.294097 -0.206814 0)
(0.297113 -0.214713 0)
(0.298792 -0.24374 0)
(0.297029 -0.275216 0)
(0.292048 -0.296839 0)
(0.283597 -0.30582 0)
(0.273828 -0.304124 0)
(0.265018 -0.288949 0)
(0.253542 -0.261888 0)
(0.274036 -0.198629 0)
(0.282011 -0.208168 0)
(0.293203 -0.220226 0)
(0.300498 -0.244992 0)
(0.300043 -0.272807 0)
(0.296689 -0.28399 0)
(0.289046 -0.283653 0)
(0.270845 -0.275692 0)
(0.245829 -0.259298 0)
(0.232498 -0.242194 0)
(0.229021 -0.251561 0)
(0.24534 -0.25732 0)
(0.256431 -0.255801 0)
(0.268888 -0.26032 0)
(0.268098 -0.267759 0)
(0.267255 -0.264059 0)
(0.252742 -0.252608 0)
(0.218165 -0.229219 0)
(0.207429 -0.22473 0)
(0.192829 -0.22704 0)
(0.144654 -0.236118 0)
(0.152497 -0.257407 0)
(0.156276 -0.277104 0)
(0.169001 -0.27837 0)
(0.172977 -0.271627 0)
(0.170391 -0.255224 0)
(0.164094 -0.204996 0)
(0.147222 -0.19432 0)
(0.140393 -0.209507 0)
(0.156573 -0.227054 0)
(0.0969444 -0.246413 0)
(0.101091 -0.283656 0)
(0.104511 -0.289591 0)
(0.108823 -0.287552 0)
(0.0997254 -0.27183 0)
(0.0884914 -0.231832 0)
(0.0863263 -0.193493 0)
(0.0942609 -0.197673 0)
(0.11698 -0.223442 0)
(0.164974 -0.285619 0)
(0.0941727 -0.246983 0)
(0.0946054 -0.289691 0)
(0.0986023 -0.293208 0)
(0.0980368 -0.272827 0)
(0.0717676 -0.22754 0)
(0.0593525 -0.210378 0)
(0.0672997 -0.203283 0)
(0.0997703 -0.237067 0)
(0.165701 -0.342631 0)
(0.246997 -0.425093 0)
(0.123641 -0.231212 0)
(0.109707 -0.284247 0)
(0.105806 -0.283796 0)
(0.0881539 -0.244843 0)
(0.0705969 -0.195117 0)
(0.0750339 -0.211231 0)
(0.108724 -0.282311 0)
(0.209911 -0.421291 0)
(0.297508 -0.550623 0)
(0.352575 -0.558158 0)
(0.149861 -0.219499 0)
(0.139459 -0.263679 0)
(0.125578 -0.26641 0)
(0.112492 -0.2123 0)
(0.0790521 -0.178632 0)
(0.107535 -0.270628 0)
(0.217143 -0.528716 0)
(0.311424 -0.623592 0)
(0.353813 -0.62789 0)
(0.372365 -0.597446 0)
(0.131713 -0.233501 0)
(0.118927 -0.232644 0)
(0.0842256 -0.211438 0)
(0.0511274 -0.142434 0)
(0.0728482 -0.185608 0)
(0.174332 -0.537414 0)
(0.256163 -0.691923 0)
(0.304137 -0.700263 0)
(0.306977 -0.672875 0)
(0.290266 -0.579951 0)
(0.0845975 -0.218838 0)
(0.0472123 -0.161502 0)
(0.025915 -0.171886 0)
(0.0252811 -0.133825 0)
(0.0892157 -0.382112 0)
(0.17484 -0.702637 0)
(0.205954 -0.75487 0)
(0.19681 -0.719066 0)
(0.156029 -0.566868 0)
(0.0155149 -0.198841 0)
(0.0611141 -0.160718 0)
(0.0268816 -0.115413 0)
(0.0244105 -0.193338 0)
(0.0440168 -0.23492 0)
(0.109072 -0.588298 0)
(0.137326 -0.762653 0)
(0.132613 -0.743573 0)
(0.100206 -0.586711 0)
(0.0121058 -0.225445 0)
(-0.120404 -0.0541938 0)
(0.078701 -0.129536 0)
(0.0616605 -0.0766015 0)
(0.0397661 -0.167572 0)
(0.046608 -0.281404 0)
(0.0918623 -0.65413 0)
(0.0928089 -0.770573 0)
(0.101219 -0.720972 0)
(0.0808347 -0.466355 0)
(0.026248 -0.151285 0)
(-0.00732183 0.0515664 0)
(0.103382 -0.138114 0)
(0.0765705 -0.0631552 0)
(0.0677077 -0.113208 0)
(0.0803975 -0.288532 0)
(0.0876031 -0.675408 0)
(0.072448 -0.765925 0)
(0.0680781 -0.685423 0)
(0.0435806 -0.386304 0)
(0.0378257 -0.140525 0)
(0.0475027 0.0274227 0)
(0.0382836 0.0183821 0)
(0.0334887 -0.0899535 0)
(0.0320077 -0.161448 0)
(0.0599553 -0.365545 0)
(0.0779535 -0.684531 0)
(0.0568231 -0.737979 0)
(0.0544809 -0.650249 0)
(0.0278535 -0.322121 0)
(0.00805843 -0.104242 0)
(0.00527215 -0.0109887 0)
(0.0520885 -0.0209152 0)
(0.0732892 -0.034458 0)
(0.0521061 -0.115039 0)
(0.0692831 -0.373695 0)
(0.0728877 -0.676887 0)
(0.0633059 -0.715528 0)
(0.0518789 -0.629321 0)
(0.0364233 -0.290656 0)
(0.0102144 -0.10223 0)
(0.0165072 0.0021736 0)
(0.00620204 -0.0255341 0)
(0.0373603 -0.0837983 0)
(0.0307885 -0.135462 0)
(0.0410222 -0.441577 0)
(0.0518961 -0.686516 0)
(0.0464327 -0.695704 0)
(0.0400943 -0.596292 0)
(0.0250375 -0.256482 0)
(-0.00577233 -0.0968518 0)
(0.00980006 -0.0150317 0)
(-0.00086027 -0.0532533 0)
(0.0127449 -0.0910608 0)
(0.00936477 -0.127211 0)
(0.0294123 -0.475162 0)
(0.0440301 -0.687702 0)
(0.0354641 -0.687734 0)
(0.0242718 -0.554427 0)
(-0.00217845 -0.193648 0)
(-0.0353275 -0.0614799 0)
(-0.0503136 -0.00659335 0)
(-0.0256808 -0.0742287 0)
(-0.0192392 -0.104068 0)
(0.00682403 -0.161471 0)
(0.0381816 -0.511634 0)
(0.0408 -0.680977 0)
(0.0339232 -0.68251 0)
(0.0324629 -0.509535 0)
(-0.0121417 -0.145381 0)
(-0.0296416 -0.0141745 0)
(-0.0393654 0.0520731 0)
(-0.0380279 -0.0817378 0)
(-0.0371575 -0.121619 0)
(-0.0197247 -0.237661 0)
(-0.0101312 -0.553941 0)
(-0.00997838 -0.680181 0)
(-0.0225504 -0.679378 0)
(-0.00497561 -0.443204 0)
(-0.0218624 -0.121694 0)
(-0.037485 -0.00364363 0)
(-0.0404659 0.050455 0)
(-0.0503415 -0.102237 0)
(-0.0346877 -0.134901 0)
(-0.0325168 -0.254499 0)
(-0.0322644 -0.551825 0)
(-0.0213639 -0.677411 0)
(-0.0371297 -0.670634 0)
(-0.0204333 -0.431438 0)
(-0.0466569 -0.0237829 0)
(-0.0522844 0.0328993 0)
(-0.0545564 0.0517081 0)
(-0.0531069 -0.141711 0)
(-0.0265254 -0.162855 0)
(-0.040617 -0.250664 0)
(-0.0403464 -0.568178 0)
(-0.0229008 -0.682081 0)
(-0.0362399 -0.671114 0)
(-0.0112546 -0.519943 0)
(0.0162685 -0.103821 0)
(0.0269167 -0.00395606 0)
(-0.00109387 0.0745229 0)
(-0.0337372 -0.179886 0)
(-0.00296184 -0.180491 0)
(-0.0295183 -0.224165 0)
(-0.0270111 -0.591719 0)
(-0.00565965 -0.693868 0)
(-0.0138605 -0.682257 0)
(0.00792705 -0.522588 0)
(-0.0141281 -0.0440713 0)
(-0.0359231 0.0784485 0)
(-0.0341271 0.0477432 0)
(0.0433428 -0.190244 0)
(0.0591346 -0.177563 0)
(0.00439004 -0.140281 0)
(-0.00340906 -0.604058 0)
(0.00590652 -0.686556 0)
(-0.0106151 -0.683642 0)
(0.00239798 -0.50715 0)
(-0.0287692 -0.00696989 0)
(-0.0107297 0.0243421 0)
(0.0262295 0.042197 0)
(0.127543 -0.134607 0)
(0.0845257 -0.129462 0)
(0.00305475 -0.0470309 0)
(0.0219576 -0.634893 0)
(0.0120691 -0.663081 0)
(-0.0032366 -0.667424 0)
(0.00293279 -0.576264 0)
(0.0240986 -0.0125771 0)
(-0.0298518 -0.0549145 0)
(0.02307 -0.0672278 0)
(0.0641013 0.0393099 0)
(-0.00694838 -0.0126908 0)
(-0.0294855 -0.0127241 0)
(0.0129563 -0.665628 0)
(-0.00740857 -0.650815 0)
(0.00110329 -0.650093 0)
(-0.0142111 -0.616135 0)
(0.0346378 0.0952923 0)
(0.0179242 0.00286909 0)
(0.0068406 -0.0426461 0)
(0.010522 0.140368 0)
(-0.0147028 0.0147281 0)
(-0.0171715 -0.0302778 0)
(0.0109667 -0.666024 0)
(-0.00638477 -0.633878 0)
(-0.00628209 -0.637132 0)
(-0.0181779 -0.636263 0)
(0.0280168 -0.0119898 0)
(0.015304 -0.0401395 0)
(0.0930062 -0.0331426 0)
(-0.0963564 -0.0697774 0)
(-0.08429 0.124632 0)
(-0.00256241 -0.240597 0)
(0.0286207 -0.615876 0)
(0.00927806 -0.603699 0)
(-0.0208702 -0.605588 0)
(-0.0367967 -0.627175 0)
(0.0227291 0.00941036 0)
(-0.00751851 -0.035211 0)
(-0.293478 -0.679228 0)
(-0.152599 -0.0892383 0)
(-0.139572 -0.00308812 0)
(0.0570933 -0.489451 0)
(0.0293459 -0.57815 0)
(0.007629 -0.575044 0)
(-0.00223562 -0.570867 0)
(-0.0214158 -0.581317 0)
(-0.0389097 -0.413485 0)
(0.202256 0.412186 0)
(0.0722852 0.239665 0)
(0.0295231 0.00913762 0)
(0.000868229 -0.154534 0)
(0.0576058 -0.521675 0)
(0.0288503 -0.549054 0)
(0.0139684 -0.54015 0)
(-0.0154722 -0.541803 0)
(-0.0335286 -0.548348 0)
(-0.0557728 -0.513844 0)
(0.0281901 0.393052 0)
(0.0222366 0.239447 0)
(0.0747121 0.012527 0)
(0.0573545 -0.171124 0)
(0.044088 -0.49279 0)
(0.0250971 -0.499397 0)
(0.00405222 -0.504264 0)
(-0.00179085 -0.505544 0)
(-0.0237487 -0.501386 0)
(-0.0443356 -0.501397 0)
(-0.06313 0.191211 0)
(0.0452746 0.179322 0)
(0.0764037 0.0411349 0)
(0.0477811 -0.163203 0)
(0.0582761 -0.444221 0)
(0.0282913 -0.470004 0)
(0.0101386 -0.473516 0)
(-0.0219382 -0.473977 0)
(-0.035047 -0.469577 0)
(-0.0657307 -0.439721 0)
(-0.0306076 -0.0178818 0)
(0.0704712 0.167714 0)
(0.0486385 0.0338577 0)
(0.0581511 -0.1595 0)
(0.0645952 -0.407945 0)
(0.0315849 -0.420615 0)
(0.00704245 -0.423392 0)
(-0.00228191 -0.425452 0)
(-0.0291616 -0.420764 0)
(-0.0604161 -0.407858 0)
(-0.0445661 -0.142056 0)
(0.0298685 0.22527 0)
(-0.0129977 0.0832678 0)
(0.0727717 -0.259845 0)
(0.0665868 -0.356856 0)
(0.0341739 -0.374719 0)
(0.0185532 -0.384604 0)
(-0.0161108 -0.384979 0)
(-0.0307829 -0.380388 0)
(-0.0633676 -0.359509 0)
(-0.0696761 -0.263666 0)
(0.0417092 0.254867 0)
(0.0748698 -0.106451 0)
(0.0744733 -0.279923 0)
(0.0682557 -0.311864 0)
(0.0412339 -0.333086 0)
(0.0114282 -0.33125 0)
(-0.00651879 -0.330702 0)
(-0.0414791 -0.32999 0)
(-0.0644775 -0.313979 0)
(-0.071531 -0.283928 0)
(-0.0682778 -0.102039 0)
(0.102008 -0.189367 0)
(0.0762344 -0.220339 0)
(0.073063 -0.263073 0)
(0.0378893 -0.277505 0)
(0.0190715 -0.280209 0)
(-0.0182913 -0.280073 0)
(-0.0323811 -0.27647 0)
(-0.0686554 -0.265541 0)
(-0.0731176 -0.223033 0)
(-0.0955808 -0.199332 0)
(0.0566779 -0.128883 0)
(0.0493201 -0.193541 0)
(0.042685 -0.230956 0)
(0.0209981 -0.246104 0)
(0.0111235 -0.251065 0)
(-0.00548118 -0.248922 0)
(-0.0183903 -0.247138 0)
(-0.0415231 -0.232048 0)
(-0.0504917 -0.195254 0)
(-0.0548317 -0.13437 0)
(-0.00406774 0.00010674 0)
(-0.01231 0.00102813 0)
(-0.0240947 0.00601003 0)
(-0.04036 0.0151129 0)
(-0.0534367 0.00881344 0)
(-0.0572243 0.00166563 0)
(-0.0595749 -0.00128061 0)
(-0.0572098 -0.0075627 0)
(-0.0510965 -0.0110327 0)
(-0.0452085 -0.00980093 0)
(-0.0393464 -0.00887094 0)
(-0.0365693 0.00133396 0)
(-0.0406793 0.0156798 0)
(-0.0450385 0.0170005 0)
(-0.0456632 0.011208 0)
(-0.043128 -0.000421682 0)
(-0.0448461 -0.00718685 0)
(-0.0476752 -0.0108272 0)
(-0.0481024 -0.0116081 0)
(-0.0479197 -0.0107846 0)
(-0.0486207 -0.00253853 0)
(-0.0547024 0.00885981 0)
(-0.0602543 0.0120103 0)
(-0.0661107 0.00806201 0)
(-0.0698759 0.00235171 0)
(-0.0727862 0.00080206 0)
(-0.0746725 0.000856141 0)
(-0.0750115 0.001129 0)
(-0.0743778 -0.00011204 0)
(-0.0728905 -0.00240448 0)
(-0.0714136 -0.00279479 0)
(-0.069549 -0.00361163 0)
(-0.0667832 -0.00495463 0)
(-0.0597136 -0.0108759 0)
(-0.0500022 -0.0121036 0)
(-0.0418462 -0.0093878 0)
(-0.0300726 -0.00968964 0)
(-0.0184086 -0.00916799 0)
(-0.00671831 -0.00204203 0)