/*--------------------------------*- C++ -*----------------------------------*\
  =========                 |
  \\      /  F ield         | OpenFOAM: The Open Source CFD Toolbox
   \\    /   O peration     | Website:  https://openfoam.org
    \\  /    A nd           | Version:  8
     \\/     M anipulation  |
\*---------------------------------------------------------------------------*/
FoamFile
{
    version     2.0;
    format      ascii;
    class       volScalarField;
    location    "0.45";
    object      p_rgh;
}
// * * * * * * * * * * * * * * * * * * * * * * * * * * * * * * * * * * * * * //

dimensions      [1 -1 -2 0 0 0 0];

internalField   nonuniform List<scalar> 
9150
(
1963.42
1962.43
1961.82
1961.34
1961.1
1961.1
1961.35
1961.83
1962.43
1963.42
1963
1962.48
1962.07
1961.74
1961.57
1961.57
1961.74
1962.07
1962.48
1963
1962.73
1962.44
1962.19
1961.97
1961.85
1961.86
1961.97
1962.19
1962.44
1962.73
1962.61
1962.43
1962.26
1962.1
1962.02
1962.02
1962.11
1962.26
1962.43
1962.61
1962.61
1962.42
1962.29
1962.16
1962.1
1962.09
1962.16
1962.29
1962.42
1962.61
1951.83
1950.84
1950.98
1951.47
1951.62
1951.62
1951.48
1950.99
1950.84
1951.83
1955.72
1955.01
1954.76
1954.7
1954.79
1954.8
1954.71
1954.78
1955.03
1955.74
1958.78
1958.04
1957.71
1957.36
1957.3
1957.31
1957.38
1957.72
1958.05
1958.79
1961.49
1960.38
1959.96
1959.31
1959.14
1959.15
1959.31
1959.95
1960.38
1961.49
1964.19
1962.1
1961.35
1960.62
1960.37
1960.37
1960.62
1961.34
1962.09
1964.19
1946.78
1945.39
1943.51
1942.44
1941.89
1941.83
1942.32
1943.39
1945.32
1946.73
1946
1945.85
1944.91
1944.56
1944.15
1944.16
1944.62
1944.94
1945.85
1945.99
1945.85
1945.91
1944.96
1945.36
1944.87
1944.85
1945.29
1944.91
1945.89
1945.83
1942.67
1945.36
1944.31
1945.89
1945.65
1945.66
1945.9
1944.32
1945.35
1942.67
1935.8
1945.91
1946.2
1947.83
1948.12
1948.11
1947.81
1946.19
1945.9
1935.77
24.1716
23.109
80.4273
293.851
536.477
541.448
302.655
86.9831
23.5331
18.9248
1.49537
1.48929
3.07965
10.8133
135.237
152.798
10.7677
1.54913
-0.449431
-0.473421
1.94976
1.96886
1.97912
2.28495
28.8846
58.4904
0.00739844
-0.232197
-0.16562
-0.121612
1.62342
1.65134
1.6467
1.68169
55.0169
52.0594
-0.568827
-0.587504
-0.544405
-0.560907
1.7181
1.71435
1.69423
1.68635
67.5867
62.3287
-0.344244
-0.386221
-0.359468
-0.345481
1.65507
1.65494
1.64891
1.63898
77.9563
73.3262
-0.271968
-0.324276
-0.324942
-0.324583
1.65747
1.65266
1.64777
1.6365
90.4153
85.7634
-0.228527
-0.234663
-0.245719
-0.251993
1.65288
1.65826
1.66827
1.68115
101.422
100.278
-0.159477
-0.169889
-0.187753
-0.203226
1.6387
1.64602
1.66053
1.69749
118.073
107.489
-0.100871
-0.117451
-0.142787
-0.165852
1.5942
1.58821
1.5845
1.73023
140.615
107.377
-0.0195815
-0.0880923
-0.127934
-0.159647
1.53635
1.5093
1.44931
1.99085
154.295
115.116
0.0434565
-0.137405
-0.174175
-0.200443
1.50004
1.48382
1.45114
1.58321
129.183
161.607
0.520325
-0.274852
-0.276002
-0.282168
1.4662
1.45773
1.45884
2.01818
155.34
158.802
0.0401069
-0.37871
-0.361205
-0.359362
1.43599
1.42801
1.41399
2.14333
184.353
152.505
-0.317798
-0.424748
-0.421445
-0.422887
1.42011
1.41956
1.41227
1.86409
179.233
181.252
0.0184326
-0.48071
-0.485404
-0.483349
1.41674
1.42894
1.44219
1.87167
178.486
205.293
0.0156332
-0.578766
-0.555498
-0.538715
1.40729
1.42806
1.46111
2.20519
186.614
219.595
0.018009
-0.635626
-0.596743
-0.570476
1.3709
1.3801
1.39897
2.16937
202.809
225.986
-0.0636606
-0.600653
-0.579305
-0.564542
1.32058
1.30425
1.27895
1.72664
238.555
213.786
-0.384224
-0.511228
-0.53176
-0.541087
1.29748
1.27645
1.23973
1.69225
247.002
228.368
-0.395365
-0.501111
-0.527805
-0.541435
1.30588
1.30024
1.29956
1.33155
234.369
264.505
-0.135763
-0.57521
-0.570514
-0.56864
1.31774
1.3209
1.32861
1.33724
265.954
257.707
-0.464712
-0.593873
-0.591722
-0.589812
1.32571
1.33578
1.34864
1.35383
279.031
273.667
-0.617421
-0.608884
-0.608184
-0.608649
1.32412
1.33474
1.34448
1.34872
293.133
289.837
-0.612056
-0.615998
-0.623495
-0.629286
1.3192
1.33093
1.33963
1.33763
310.44
303.311
-0.629522
-0.640228
-0.652444
-0.660466
1.3159
1.33359
1.34841
1.3506
321.912
321.313
-0.664127
-0.68626
-0.702444
-0.708138
1.30985
1.3385
1.37039
1.41442
322.047
348.072
-0.445678
-0.786543
-0.78406
-0.776159
1.28572
1.32188
1.36575
1.47169
326.686
366.664
0.760854
-0.949994
-0.895511
-0.857263
1.23289
1.2655
1.31234
2.19814
344.257
374.164
0.118127
-1.01809
-0.942252
-0.897554
1.15173
1.15248
1.12791
4.20236
392.286
349.822
0.0520383
-0.888094
-0.900548
-0.887049
1.10721
1.12315
1.13198
1.73651
363.513
402.592
3.18452
-0.940428
-0.913271
-0.890745
1.0587
1.07927
1.09705
3.2853
379.043
413.474
2.05223
-0.919118
-0.900094
-0.880744
0.995929
1.01527
1.05449
2.7866
388.495
427.04
3.83368
-0.922477
-0.87805
-0.855316
0.91146
0.907377
0.898301
4.32348
441.35
399.932
0.47791
-0.795086
-0.799707
-0.802318
0.846704
0.829948
0.786336
4.20616
452.508
414.348
0.55725
-0.720476
-0.752046
-0.764963
0.811405
0.806923
0.806928
2.0512
429.296
463.436
1.12239
-0.763355
-0.754987
-0.753074
0.774795
0.764369
0.753362
1.50882
462.712
456.766
0.115908
-0.706332
-0.721768
-0.728567
0.756541
0.752551
0.75548
1.19953
481.238
465.826
-0.083064
-0.700044
-0.707694
-0.712196
0.743848
0.746892
0.75278
0.932116
493.478
494.024
-0.705777
-0.694692
-0.696016
-0.697783
0.723433
0.724705
0.725033
0.719298
512.577
515.778
-0.673607
-0.671675
-0.676309
-0.68037
0.700368
0.700482
0.700675
0.696119
537.655
532.126
-0.655459
-0.659517
-0.664881
-0.667592
0.67534
0.675153
0.674093
0.669325
555.901
553.511
-0.652932
-0.653022
-0.656922
-0.660065
0.65042
0.649202
0.647979
0.644888
579.023
577.498
-0.647702
-0.648053
-0.651546
-0.653711
0.627755
0.625989
0.624923
0.619698
601.082
598.456
-0.641113
-0.641325
-0.644673
-0.646293
0.607689
0.605875
0.604809
0.601854
625.205
622.955
-0.631768
-0.632831
-0.635876
-0.637671
0.589835
0.587977
0.587221
0.582233
645.072
643.265
-0.623913
-0.623348
-0.626573
-0.628445
0.57385
0.572164
0.571293
0.567383
670.537
668.212
-0.612774
-0.613662
-0.617061
-0.619242
0.559383
0.55773
0.556958
0.551719
689.793
687.081
-0.605418
-0.605085
-0.608766
-0.610849
0.546431
0.545241
0.544905
0.540246
713.994
711.281
-0.59942
-0.598355
-0.601769
-0.603623
0.534196
0.533562
0.53401
0.529376
731.957
729.59
-0.597082
-0.595155
-0.597335
-0.598332
0.522071
0.521985
0.524991
0.521728
752.851
752.426
-0.599084
-0.594889
-0.595356
-0.594779
0.510586
0.511541
0.514245
0.5146
768.385
771.935
-0.604053
-0.596257
-0.59358
-0.590901
0.498703
0.499321
0.501951
0.501599
788.339
790.986
-0.597975
-0.590171
-0.58707
-0.583496
0.487213
0.488002
0.490498
0.488842
806.554
808.129
-0.584974
-0.578349
-0.576133
-0.571769
0.476232
0.477859
0.482045
1.63195
825.766
828.179
0.764644
-0.56037
-0.558826
-0.555111
0.464097
0.465204
0.469456
4.10691
843.221
844.921
3.28179
-0.539199
-0.538213
-0.535568
0.450151
0.449791
0.450889
7.90389
867.91
865.708
6.90108
-0.514697
-0.515527
-0.514706
0.436693
0.435228
0.433889
10.5604
889.164
885.48
9.37415
-0.489947
-0.493377
-0.494022
0.42487
0.423984
0.424021
16.832
915.624
914.771
15.953
-0.472375
-0.474548
-0.475337
0.41317
0.412343
0.4125
21.3475
939.884
938.754
20.4602
-0.454403
-0.456729
-0.457679
0.40132
0.400552
0.40111
30.5601
971.1
969.832
29.6679
-0.437542
-0.440174
-0.441238
0.389165
0.388145
0.388555
37.3107
997.401
996.103
36.4219
-0.422549
-0.425118
-0.425958
0.376855
0.375731
0.376463
48.9304
1029.43
1028.36
48.09
-0.40839
-0.411069
-0.411707
0.364359
0.362896
0.362894
57.351
1055.81
1054.75
56.5233
-0.39607
-0.397984
-0.398242
0.352084
0.350428
0.350368
70.2641
1086.74
1085.8
69.469
-0.383135
-0.38496
-0.385045
0.340175
0.338336
0.33742
79.0822
1111.66
1110.71
78.3004
-0.370836
-0.371797
-0.371782
0.3288
0.32694
0.326314
91.932
1140.51
1139.31
91.1222
-0.356263
-0.357924
-0.358184
0.317876
0.315911
0.314144
100.133
1163.67
1162.29
99.3087
-0.343374
-0.344252
-0.344723
0.307579
0.30567
0.304234
112.429
1190.61
1189.21
111.618
-0.329539
-0.330924
-0.33156
0.297887
0.296078
0.294074
120.193
1212.74
1211.21
119.368
-0.317252
-0.31812
-0.318811
0.288972
0.28756
0.286018
133.116
1239.43
1238.1
132.316
-0.304457
-0.30553
-0.306368
0.280346
0.279242
0.277882
141.994
1261.94
1260.95
141.235
-0.292912
-0.293662
-0.294434
0.271843
0.271208
0.270622
157.587
1289.91
1289.46
156.946
-0.281458
-0.282194
-0.28294
0.262937
0.262451
0.261842
169.793
1314.54
1314.12
169.173
-0.270703
-0.271205
-0.27186
0.253765
0.253434
0.25314
189.982
1344.7
1344.29
189.373
-0.259697
-0.260403
-0.26105
0.24425
0.243977
0.243586
206.656
1371.14
1370.96
206.143
-0.249744
-0.250035
-0.250564
0.234547
0.234292
0.233982
232.174
1402.73
1402.35
231.635
-0.239088
-0.239558
-0.240123
0.224677
0.224372
0.223685
253.711
1430.52
1429.92
253.121
-0.229088
-0.229359
-0.229892
0.214936
0.21475
0.214253
284.975
1462.36
1461.97
284.48
-0.218941
-0.219199
-0.219731
0.205084
0.204914
0.204253
312.648
1490.68
1490.4
312.233
-0.209344
-0.209271
-0.209727
0.195293
0.195201
0.19455
351.902
1522.6
1522.2
351.454
-0.199132
-0.199132
-0.199661
0.185445
0.185353
0.184485
388.984
1551.38
1551
388.557
-0.189522
-0.189277
-0.189759
0.175729
0.175745
0.174869
439.614
1582.62
1582.3
439.222
-0.179671
-0.17933
-0.179848
0.165994
0.166035
0.164942
489.674
1611.13
1610.85
489.305
-0.170187
-0.169561
-0.170041
0.156388
0.156555
0.155345
555.779
1640.82
1640.54
555.408
-0.16043
-0.15965
-0.160196
0.146811
0.147039
0.14558
623.061
1667.71
1667.5
622.725
-0.151072
-0.149937
-0.150447
0.137382
0.137821
0.136242
710.913
1694.16
1694.07
710.648
-0.141493
-0.140084
-0.140663
0.127976
0.128477
0.126342
803.314
1717.76
1717.77
803.137
-0.132552
-0.130378
-0.13089
0.118733
0.119359
0.116784
920.303
1739.67
1739.6
920.094
-0.122903
-0.120305
-0.120911
0.109611
0.109926
0.106289
1042.62
1760.53
1760.24
1042.33
-0.114247
-0.110694
-0.110937
0.100953
0.0999593
0.0964476
1190.52
1779.96
1779.55
1190.14
-0.106362
-0.102319
-0.100828
0.0916112
0.0894198
0.099363
1341.58
1798.89
1798.77
1341.39
-0.0867554
-0.0943573
-0.0911992
0.0790758
0.0803666
48.0008
1485.84
1817.53
1817.51
1485.67
47.5231
-0.0831299
-0.0837423
0.0689586
0.0694045
191.76
1621.03
1836.3
1836.2
1620.91
192.372
-0.0736774
-0.0738056
0.0597048
0.0586403
395.221
1749
1855.01
1854.86
1748.88
397.188
-0.0652472
-0.0636745
0.050608
0.048714
741.919
1843.37
1873.88
1873.89
1843.31
747.18
-0.0581245
-0.0543109
0.0423488
0.0563531
1230.88
1891.73
1892.78
1892.78
1891.72
1239.85
-0.0308861
-0.0435162
0.0326402
179.976
1670.43
1910.43
1911.48
1911.43
1910.28
1665.96
178.196
-0.0334364
0.0257958
1119.37
1926.64
1926.81
1926.9
1926.88
1926.82
1926.73
1124.42
-0.0179223
668.364
1886.74
1939.35
1937.35
1936.43
1936.51
1937.48
1939.49
1890.22
675.505
13.3471
14.473
17.7532
18.4641
17.6124
13.5783
13.5239
17.9163
17.66
17.1923
16.6952
18.6155
18.1848
17.379
16.0001
17.5093
17.3713
16.9264
16.498
17.26
17.1181
15.5358
17.5568
20.6493
23.0918
24.9166
24.8304
36.6841
47.2887
55.7983
66.3961
81.2737
99.1756
119.87
145.56
177.846
218.099
270.529
321.754
364.435
-0.261462
-0.350279
-0.47183
-0.588645
-0.656244
-0.525969
-0.563698
-0.703402
-0.731656
-0.721056
-0.693711
-0.509775
-0.484148
-0.547532
-0.473962
-0.369268
-0.472682
-0.559663
-0.616216
-0.655058
-0.669168
-0.559635
-0.57149
-0.723881
-0.700629
-0.571304
-0.524752
-0.442491
-0.267679
-0.170039
0.0788677
0.125207
0.402587
0.583278
1.36492
4.35499
20.7218
71.233
154.493
221.638
-0.162634
-0.0489767
0.00576385
0.0265357
0.0353825
-0.00717718
-0.000878558
0.0438554
0.0909487
0.0946546
0.119705
0.11308
0.14668
0.189336
0.202483
0.209845
0.236874
0.252266
0.242434
0.247984
0.198102
0.111389
0.0145789
-0.0912794
-0.187203
-0.274415
-0.310843
-0.3056
-0.306937
-0.313497
-0.313803
-0.310697
-0.280994
-0.156699
0.158335
1.25301
4.98125
14.1809
53.6009
101.549
-0.581996
-0.568778
-0.543969
-0.512613
-0.477048
-0.48229
-0.477695
-0.492047
-0.531006
-0.548035
-0.590979
-0.619071
-0.591038
-0.557248
-0.533093
-0.515253
-0.523617
-0.49138
-0.432147
-0.432931
-0.4401
-0.488994
-0.564347
-0.638756
-0.714037
-0.767918
-0.778806
-0.762329
-0.731186
-0.70717
-0.700159
-0.673232
-0.63453
-0.558238
-0.458645
-0.272158
0.124765
3.32146
31.5613
55.9145
-0.31802
-0.265518
-0.213451
-0.197537
-0.221213
-0.23439
-0.239367
-0.252089
-0.275819
-0.293679
-0.324631
-0.276751
-0.214064
-0.161256
-0.123211
-0.0974813
-0.103687
-0.128891
-0.147781
-0.187141
-0.268003
-0.354455
-0.429533
-0.498889
-0.562867
-0.598551
-0.605285
-0.589653
-0.571801
-0.572864
-0.563715
-0.540313
-0.525029
-0.514556
-0.513582
-0.508285
-0.480197
3.27513
35.1289
58.7505
-0.321016
-0.311311
-0.302482
-0.305099
-0.309384
-0.312699
-0.319828
-0.341599
-0.359568
-0.374103
-0.382756
-0.363253
-0.310839
-0.246595
-0.178539
-0.119326
-0.0855187
-0.0741373
-0.0657663
-0.0882021
-0.185421
-0.429066
-0.577405
-0.670466
-0.750793
-0.770567
-0.747608
-0.710889
-0.680476
-0.666595
-0.662131
-0.649071
-0.626629
-0.606705
-0.574162
-0.536879
-0.507808
3.19664
41.6417
67.098
-0.255238
-0.257424
-0.260762
-0.267403
-0.270898
-0.277065
-0.288993
-0.31233
-0.323622
-0.325245
-0.318422
-0.302145
-0.272317
-0.228622
-0.171108
-0.107651
-0.0595267
-0.032955
-0.00949183
1.80126
9.77884
9.8827
3.27036
-0.800335
-0.827737
-0.849555
-0.819217
-0.784868
-0.751742
-0.723174
-0.699115
-0.672749
-0.654505
-0.646334
-0.626684
-0.593338
-0.553747
2.36298
46.7039
75.44
-0.217091
-0.229453
-0.239236
-0.242254
-0.255745
-0.271625
-0.297728
-0.316479
-0.331762
-0.339368
-0.338335
-0.315825
-0.281093
-0.241236
-0.206962
-0.181126
-0.136011
0.263181
6.18643
46.2559
81.7317
88.5493
56.5297
10.637
-0.918353
-0.916637
-0.874744
-0.830087
-0.796412
-0.772599
-0.757107
-0.743769
-0.733238
-0.727997
-0.720658
-0.713192
-0.68676
1.06653
47.6998
84.4897
-0.186805
-0.203656
-0.208075
-0.225018
-0.244156
-0.272319
-0.291928
-0.308453
-0.30447
-0.303767
-0.317759
-0.311531
-0.295236
-0.273433
-0.252183
-0.228416
-0.0820847
3.46433
52.8912
100.992
101.998
102.918
101.48
73.6134
-0.577341
-0.900652
-0.885431
-0.843988
-0.822076
-0.806366
-0.798294
-0.797269
-0.803136
-0.820486
-0.84515
-0.864803
-0.813349
-0.0382659
47.0831
94.6994
-0.186787
-0.200591
-0.21765
-0.241077
-0.26636
-0.294955
-0.326587
-0.32984
-0.340197
-0.34178
-0.335585
-0.32883
-0.331503
-0.316901
-0.301308
-0.267904
-0.0390871
17.1663
103.77
111.581
112.225
112.549
112.301
111.909
18.1601
-0.862381
-0.854412
-0.835044
-0.822222
-0.8127
-0.811022
-0.818623
-0.835193
-0.870347
-0.915373
-0.927334
-0.878066
-0.336067
46.0109
105.594
-0.224367
-0.239644
-0.252031
-0.278128
-0.317513
-0.351973
-0.378886
-0.401466
-0.412771
-0.411198
-0.402584
-0.392182
-0.379639
-0.366824
-0.350034
-0.302343
-0.0617435
29.661
123.017
122.608
123.176
123.305
123.079
122.371
23.786
-0.82291
-0.809072
-0.801613
-0.796652
-0.792988
-0.793576
-0.799961
-0.815426
-0.840317
-0.857867
-0.838411
-0.77566
0.0910723
53.0544
115.772
-0.293658
-0.305197
-0.30799
-0.338816
-0.38031
-0.411654
-0.441289
-0.464626
-0.474501
-0.470675
-0.460236
-0.448064
-0.436028
-0.42467
-0.407529
-0.373688
-0.226076
32.0813
134.669
134.532
134.722
133.752
133.094
96.0904
3.39519
-0.74939
-0.74948
-0.753975
-0.755849
-0.756587
-0.75601
-0.7562
-0.757996
-0.758662
-0.749697
-0.712189
-0.678012
3.13037
92.8692
122.817
-0.364338
-0.373313
-0.372126
-0.392607
-0.432017
-0.464042
-0.490833
-0.512306
-0.522797
-0.5188
-0.510592
-0.500789
-0.491686
-0.48604
-0.481532
-0.471143
-0.356511
8.21849
101.849
146.746
146.831
145.402
124.487
20.8053
-0.649291
-0.680807
-0.703001
-0.715732
-0.72154
-0.72308
-0.719142
-0.711349
-0.700444
-0.685129
-0.667253
-0.666866
-0.679064
16.3685
132.279
132.332
-0.426139
-0.432963
-0.437053
-0.43948
-0.457109
-0.48761
-0.515429
-0.53412
-0.535086
-0.533986
-0.536185
-0.535442
-0.532154
-0.536225
-0.549663
-0.571252
-0.581339
-0.499359
28.2017
139.643
167.197
114.488
26.5088
-0.731669
-0.712819
-0.701608
-0.704741
-0.709564
-0.711526
-0.706986
-0.697152
-0.682599
-0.662829
-0.642485
-0.631735
-0.643919
-0.649642
50.8388
144.241
144.504
-0.481285
-0.481683
-0.485885
-0.48687
-0.489189
-0.500372
-0.513042
-0.524082
-0.530283
-0.530889
-0.532066
-0.541406
-0.547801
-0.561151
-0.586948
-0.62489
-0.660531
-0.676446
-0.737354
10.8595
40.5149
2.96218
-0.815145
-0.775371
-0.769398
-0.761162
-0.749261
-0.739155
-0.727547
-0.714181
-0.700108
-0.683542
-0.663491
-0.643791
-0.630464
-0.631325
-0.453393
74.2345
153.755
153.441
-0.525593
-0.517169
-0.513394
-0.513389
-0.514719
-0.514127
-0.513943
-0.51942
-0.525911
-0.528891
-0.532852
-0.535238
-0.541213
-0.552507
-0.569364
-0.590858
-0.61995
-0.663635
-0.684596
-0.720245
-0.763739
-0.779115
-0.790992
-0.807599
-0.829065
-0.81919
-0.798311
-0.77565
-0.754113
-0.736057
-0.721781
-0.709425
-0.696051
-0.680849
-0.665444
-0.651902
-0.0699994
72.4582
162.892
157.961
-0.550166
-0.536881
-0.528506
-0.523427
-0.520495
-0.518846
-0.518076
-0.517563
-0.516897
-0.516277
-0.516429
-0.518656
-0.523507
-0.52965
-0.529007
-0.537581
-0.559974
-0.583172
-0.611178
-0.670597
-0.72495
-0.726993
-0.755422
-0.785849
-0.775883
-0.828908
-0.807435
-0.784193
-0.763839
-0.750915
-0.747848
-0.753148
-0.748127
-0.731634
-0.703241
-0.663389
-0.0536218
58.4707
158.174
137.219
-0.552226
-0.542784
-0.535455
-0.52965
-0.524916
-0.520932
-0.517056
-0.513055
-0.509326
-0.506282
-0.503942
-0.502218
-0.50094
-0.496503
-0.488175
-0.492433
-0.502639
-0.317475
0.506364
1.16498
-0.654587
-0.671734
-0.705132
-0.753984
-0.630225
-0.409477
-0.699406
-0.739989
-0.732846
-0.737837
-0.754741
-0.766387
-0.766204
-0.733731
-0.670977
-0.587778
-0.35293
28.4377
111.711
147.708
-0.543955
-0.543021
-0.540095
-0.536164
-0.531641
-0.526705
-0.521336
-0.515643
-0.509766
-0.503888
-0.498104
-0.492224
-0.485983
-0.472699
-0.456472
-0.447244
-0.380623
0.662617
27.3566
73.3425
13.3814
-0.629177
-0.645033
-0.661841
-0.539134
0.03267
0.0552826
0.0421739
0.0526809
0.00541997
-0.673484
-0.682277
-0.673792
-0.622055
-0.533018
-0.375646
0.0068725
29.5365
177.958
236.874
-0.548082
-0.550164
-0.549309
-0.546565
-0.542502
-0.537406
-0.53143
-0.524696
-0.517294
-0.509254
-0.500414
-0.490244
-0.477692
-0.462233
-0.449118
-0.429579
-0.219068
14.1704
96.9964
110.073
65.8551
-0.560274
-0.555208
-0.564133
-0.549815
-0.597616
-0.508107
-0.0886369
0.144385
-0.0839658
-0.585676
-0.547942
-0.493691
-0.424895
-0.328716
0.00820234
2.27633
137.509
256.946
263.169
-0.567978
-0.567019
-0.565165
-0.56219
-0.558122
-0.553001
-0.546887
-0.539835
-0.531895
-0.523096
-0.513324
-0.502242
-0.489533
-0.475679
-0.460669
-0.431321
-0.194141
39.3462
111.561
111.516
98.4065
-0.393518
-0.421683
-0.440941
-0.474064
-0.507704
-0.530078
-0.54455
-0.492348
-0.466104
-0.49135
-0.428576
-0.359639
-0.290602
-0.0309987
1.1733
112.082
267.85
289.948
295.469
-0.588465
-0.587013
-0.584927
-0.58197
-0.578059
-0.573176
-0.567363
-0.560681
-0.553217
-0.54509
-0.536418
-0.52734
-0.518354
-0.510761
-0.505029
-0.480149
-0.254702
19.4324
112.154
115.067
112.816
13.6801
-0.294691
-0.320373
-0.346425
-0.365891
-0.366485
-0.361014
-0.36153
-0.353585
-0.336656
-0.355948
-0.313253
0.119273
7.78091
181.213
277.621
301.044
315.037
317.437
-0.609215
-0.609039
-0.607704
-0.605288
-0.601839
-0.597467
-0.59231
-0.586524
-0.580311
-0.573935
-0.567775
-0.562381
-0.558589
-0.55747
-0.558879
-0.560796
-0.53411
-0.390479
24.1039
113.146
149.826
61.6557
-0.258103
-0.259076
-0.261924
-0.244788
-0.19935
-0.163234
-0.171224
-0.225124
-0.272289
-0.143119
0.765701
144.378
271.493
295.549
308.75
318.542
324.072
323.884
-0.633079
-0.634684
-0.634333
-0.632461
-0.629419
-0.625534
-0.621088
-0.616339
-0.611554
-0.607039
-0.603174
-0.600425
-0.599271
-0.599892
-0.602403
-0.607846
-0.606151
-0.573297
-0.442302
8.61845
157.722
247.006
36.0281
0.680257
-0.00148982
-0.0159417
-0.0531518
-0.0557967
-0.0590736
-0.0730071
-0.0849736
66.0036
259.874
293.111
304.302
314.411
320.698
321.603
321.787
321.479
-0.665389
-0.667162
-0.66646
-0.664104
-0.660722
-0.65679
-0.652673
-0.648671
-0.64504
-0.64201
-0.639768
-0.638378
-0.637589
-0.636529
-0.633958
-0.630153
-0.628065
-0.613882
-0.556585
0.372634
96.0729
275.08
278.79
186.704
57.9311
28.628
0.211136
0.425201
0.403192
1.23063
118.517
292.159
295.602
300.736
308.805
313.095
294.253
268.641
270.316
244.018
-0.710134
-0.708434
-0.704674
-0.699942
-0.694906
-0.689999
-0.685513
-0.681666
-0.678632
-0.676544
-0.675499
-0.675551
-0.676785
-0.679371
-0.683906
-0.692155
-0.705142
-0.718183
-0.691877
-0.409209
22.4645
214.028
293.252
293.712
297.815
274.786
65.0195
39.3106
137.543
279.695
303.806
305.897
305.598
308.945
236.148
117.253
82.6462
54.0472
54.156
54.3743
-0.768464
-0.757234
-0.746933
-0.737802
-0.729913
-0.723312
-0.718052
-0.714221
-0.711969
-0.711529
-0.713319
-0.718044
-0.726879
-0.741618
-0.7635
-0.789708
-0.815378
-0.840163
-0.856036
-0.82427
-0.718979
-0.391601
124.658
278.706
310.217
319.961
321.563
322.038
326.208
325.811
323.981
322.108
321.312
214.055
55.3323
55.7868
55.4221
54.2433
53.7944
53.8575
-0.827818
-0.804237
-0.786616
-0.772863
-0.762104
-0.753872
-0.747942
-0.744275
-0.743011
-0.744496
-0.749385
-0.758767
-0.774275
-0.797909
-0.831162
-0.871204
-0.911481
-0.942321
-0.952577
-0.918281
-0.736521
-0.540534
-0.688033
-0.721943
28.1471
179.56
257.484
292.222
341.299
342.41
340.272
325.189
199.805
82.0306
58.4097
93.481
127.382
122.202
108.28
99.0795
-0.862911
-0.83572
-0.815237
-0.799485
-0.787422
-0.778469
-0.772324
-0.768883
-0.768231
-0.770649
-0.776653
-0.787075
-0.802953
-0.825646
-0.855584
-0.889167
-0.916619
-0.925997
-0.917563
-0.730557
0.543382
0.54999
-0.731847
-0.742855
-0.772685
-0.809844
-0.217365
31.1851
84.956
110.374
105.47
73.4616
72.3805
100.542
129.686
163.607
165.289
165.178
165.151
165.263
-0.867528
-0.847203
-0.829616
-0.815112
-0.803645
-0.795051
-0.789169
-0.785906
-0.785252
-0.787267
-0.792039
-0.799625
-0.809847
-0.822122
-0.836425
-0.845619
-0.84863
-0.843504
-0.838157
-0.262539
0.803988
0.82186
-0.278122
-0.768083
-0.778457
-0.773968
-0.418765
11.9322
19.4277
25.3106
26.0523
35.8202
59.6968
100.264
121.94
131.939
153.226
156.32
156.27
157.536
-0.869377
-0.850248
-0.834398
-0.821405
-0.811145
-0.803447
-0.798155
-0.795143
-0.794301
-0.795526
-0.798635
-0.803303
-0.808902
-0.815873
-0.820476
-0.822698
-0.82164
-0.816798
-0.809805
-0.00677391
0.880364
0.0495624
-0.814172
-0.810337
-0.804685
-0.787753
-0.774982
-0.772967
-0.731973
-0.677151
4.04007
7.34488
6.94523
-0.58433
-0.585023
-0.561658
3.82792
7.72399
8.7785
10.4122
-0.860838
-0.843606
-0.829951
-0.819086
-0.810647
-0.804386
-0.800133
-0.797754
-0.797123
-0.798162
-0.800708
-0.804554
-0.809482
-0.814668
-0.818823
-0.822745
-0.825233
-0.827303
-0.826138
0.0786299
0.910465
-0.541217
-0.860822
-0.855662
-0.847375
-0.830219
-0.812157
-0.781619
-0.747376
-0.725675
-0.709787
-0.695772
-0.663752
-0.630234
-0.598731
-0.566045
-0.549067
-0.540342
-0.533504
-0.537592
-0.839307
-0.826485
-0.816637
-0.809069
-0.803266
-0.799056
-0.79634
-0.795068
-0.795207
-0.796725
-0.79959
-0.803778
-0.809306
-0.816684
-0.825672
-0.836122
-0.850424
-0.871244
-0.894838
-0.393584
0.775719
-0.433678
-0.92286
-0.92463
-0.908093
-0.879496
-0.847515
-0.808588
-0.773109
-0.74522
-0.720373
-0.690406
-0.656632
-0.627157
-0.601072
-0.580542
-0.560436
-0.541555
-0.530019
-0.526158
-0.802168
-0.799728
-0.796518
-0.793392
-0.790847
-0.789064
-0.788173
-0.788271
-0.789445
-0.791769
-0.795346
-0.800348
-0.806988
-0.815755
-0.82804
-0.844376
-0.866284
-0.898406
-0.938634
-0.907727
-0.0842759
0.300033
-0.38993
-0.887812
-0.763262
-0.922321
-0.874755
-0.826542
-0.78279
-0.747439
-0.719503
-0.692885
-0.666834
-0.641945
-0.617521
-0.590184
-0.559589
-0.531819
-0.511513
-0.49362
-0.77122
-0.774392
-0.775616
-0.775939
-0.776045
-0.776333
-0.777057
-0.778398
-0.780508
-0.78354
-0.787678
-0.793163
-0.800324
-0.809623
-0.821893
-0.838308
-0.859913
-0.890132
-0.930041
-0.97587
-0.987561
-0.634344
-0.0193901
0.0186592
-0.194085
-0.839811
-0.870235
-0.818242
-0.772584
-0.739109
-0.715636
-0.69666
-0.679392
-0.661548
-0.63508
-0.594916
-0.557018
-0.524533
-0.495179
-0.473762
-0.753605
-0.755543
-0.757451
-0.759146
-0.760721
-0.762341
-0.764165
-0.766346
-0.769027
-0.772359
-0.776513
-0.781684
-0.78813
-0.79619
-0.806275
-0.819219
-0.835535
-0.856962
-0.883997
-0.917937
-0.953112
-0.97754
-0.966566
-0.912018
-0.524368
-0.573155
-0.819055
-0.780865
-0.744662
-0.721192
-0.708235
-0.699971
-0.6956
-0.69103
-0.663982
-0.511177
-0.37083
-0.269283
-0.212296
-0.195853
-0.733265
-0.736989
-0.740102
-0.742843
-0.74537
-0.74781
-0.750277
-0.752879
-0.755722
-0.75891
-0.762544
-0.766729
-0.771578
-0.777221
-0.783744
-0.791375
-0.80008
-0.809878
-0.820881
-0.832091
-0.843416
-0.851423
-0.85003
-0.841062
-0.819853
-0.794039
-0.764781
-0.73514
-0.712818
-0.701172
-0.69768
-0.69856
-0.705943
-0.713388
-0.656335
-0.0113392
13.4139
31.4939
30.7439
30.4592
-0.716344
-0.720358
-0.724011
-0.727342
-0.73041
-0.733287
-0.736042
-0.738747
-0.741455
-0.74421
-0.747043
-0.749964
-0.752957
-0.755983
-0.758922
-0.761642
-0.763819
-0.764923
-0.764376
-0.762895
-0.76041
-0.756713
-0.751914
-0.744247
-0.732644
-0.71779
-0.700522
-0.686297
-0.679195
-0.678345
-0.683661
-0.683721
-0.679255
-0.690909
-0.355479
26.5662
100.676
126.876
126.585
126.26
-0.70124
-0.705274
-0.709179
-0.712812
-0.716149
-0.719217
-0.722046
-0.724675
-0.72712
-0.72938
-0.731432
-0.733228
-0.734685
-0.735689
-0.736062
-0.735568
-0.733923
-0.730569
-0.725032
-0.717579
-0.708786
-0.69945
-0.689135
-0.678498
-0.668504
-0.659909
-0.653705
-0.651175
-0.65297
-0.658176
-0.66978
-0.668372
-0.650804
-0.140922
4.6547
103.901
130.555
130.748
130.675
130.512
-0.685882
-0.690886
-0.695324
-0.699271
-0.702791
-0.70594
-0.708765
-0.711279
-0.713486
-0.715363
-0.716865
-0.717919
-0.718428
-0.718257
-0.717241
-0.715157
-0.711809
-0.706788
-0.69987
-0.691084
-0.680898
-0.66977
-0.658561
-0.648129
-0.639018
-0.632017
-0.62832
-0.627784
-0.629044
-0.634557
-0.649699
0.427379
-0.137914
7.0112
20.7994
127.58
134.219
134.387
134.05
133.756
-0.673415
-0.678572
-0.683084
-0.687071
-0.690601
-0.693736
-0.696516
-0.698949
-0.701028
-0.702723
-0.703979
-0.704729
-0.70488
-0.704316
-0.702909
-0.700498
-0.696973
-0.692127
-0.685859
-0.678101
-0.669087
-0.659041
-0.64874
-0.638597
-0.62874
-0.619922
-0.611705
-0.600401
-0.414241
0.218446
0.284239
10.9637
9.54394
15.6179
28.9873
35.6555
80.46
97.7918
102.938
112.489
-0.664519
-0.668714
-0.672669
-0.676329
-0.679666
-0.682694
-0.685416
-0.687827
-0.689906
-0.691618
-0.692928
-0.693777
-0.694085
-0.693772
-0.692749
-0.690915
-0.688192
-0.684437
-0.679555
-0.673519
-0.666428
-0.658595
-0.650749
-0.643129
-0.635568
-0.626504
-0.613188
0.323525
6.30765
8.9609
9.87999
13.7332
13.7371
10.9408
2.28272
-0.676002
-0.673411
-0.675779
-0.655068
-0.632407
-0.656775
-0.660066
-0.663393
-0.666644
-0.669738
-0.672645
-0.675342
-0.677809
-0.68003
-0.681966
-0.683565
-0.684807
-0.685648
-0.686026
-0.685876
-0.685129
-0.683731
-0.68157
-0.678642
-0.675018
-0.670893
-0.666709
-0.663323
-0.661711
-0.662953
-0.664849
-0.316522
7.42591
10.5511
10.4984
8.75302
4.73393
2.08348
-0.742641
-0.753383
-0.736432
-0.714221
-0.702954
-0.680426
-0.582849
-0.648825
-0.651647
-0.65457
-0.657533
-0.660457
-0.663301
-0.666039
-0.668657
-0.671109
-0.673344
-0.675404
-0.677276
-0.678911
-0.680268
-0.681311
-0.681992
-0.682481
-0.682409
-0.682028
-0.681399
-0.680603
-0.679865
-0.680181
-0.683837
-0.691802
-0.687853
4.3629
8.82773
6.09952
0.926183
-0.760982
-0.787871
-0.797976
-0.779664
-0.756096
-0.744107
-0.737837
-0.712524
-0.561761
-0.435065
-0.640133
-0.64292
-0.645745
-0.648616
-0.65149
-0.654349
-0.657179
-0.659975
-0.662701
-0.665336
-0.667982
-0.670598
-0.673165
-0.675685
-0.678157
-0.680581
-0.682979
-0.685331
-0.687766
-0.690412
-0.693187
-0.695479
-0.696259
-0.696021
-0.702162
0.466845
7.49192
6.21282
-0.815453
-0.82002
-0.812637
-0.805118
-0.794893
-0.782506
-0.769885
-0.763933
-0.738372
-0.672014
12.3317
16.7123
-0.631073
-0.633963
-0.636841
-0.639731
-0.642624
-0.645534
-0.648469
-0.651437
-0.654466
-0.657599
-0.660839
-0.66421
-0.667754
-0.671524
-0.675573
-0.679972
-0.684802
-0.690112
-0.695993
-0.702809
-0.710634
-0.718912
-0.720463
-0.70582
-0.0594806
5.00203
6.02163
-0.888442
-0.878042
-0.867537
-0.864046
-0.851493
-0.834903
-0.819137
-0.804082
-0.793888
0.0583962
17.2826
81.4883
93.7311
-0.622073
-0.625063
-0.627984
-0.630878
-0.633767
-0.636694
-0.639694
-0.642805
-0.646082
-0.649588
-0.653348
-0.657423
-0.661918
-0.666939
-0.672627
-0.67918
-0.686868
-0.696055
-0.706902
-0.719994
-0.739481
-0.765855
-0.779314
0.579855
6.54662
6.53867
1.06649
-0.949011
-0.854229
-0.627475
-0.91839
-0.913987
-0.884485
-0.860747
-0.839526
-0.825491
5.42878
78.085
95.0804
95.2487
-0.613751
-0.616599
-0.619381
-0.622125
-0.624875
-0.627695
-0.63064
-0.633772
-0.637159
-0.640873
-0.644983
-0.649588
-0.654831
-0.660881
-0.667963
-0.67641
-0.686695
-0.699528
-0.716173
-0.737189
-0.7684
-0.817635
-0.423134
5.9283
6.61248
2.82682
-1.03971
-1.04447
-0.691395
-0.575926
-0.680658
-0.946991
-0.898163
-0.866731
-0.841665
-0.82871
15.1031
96.6968
97.3643
97.4447
-0.606287
-0.608752
-0.611116
-0.613462
-0.615856
-0.618379
-0.621097
-0.624071
-0.627377
-0.631099
-0.635325
-0.640174
-0.645806
-0.652434
-0.660353
-0.669997
-0.682026
-0.697399
-0.717953
-0.746494
-0.786823
-0.847997
-0.906316
2.80928
5.31807
-1.06469
-1.06003
-1.08156
-0.704413
-0.569801
-0.504776
-0.89235
-0.879552
-0.849265
-0.194267
-0.772444
17.4064
91.9851
99.5772
99.8633
-0.600076
-0.601614
-0.603145
-0.604768
-0.606548
-0.60856
-0.610856
-0.613487
-0.616516
-0.620017
-0.624078
-0.628815
-0.634385
-0.640998
-0.648955
-0.658689
-0.670856
-0.686449
-0.707054
-0.735311
-0.775261
-0.831005
-0.899073
-0.954718
2.59422
4.21548
-0.634205
-0.916313
-0.539845
-0.469052
-0.655206
-0.871116
-0.837136
-0.809991
2.62153
1.23609
9.39849
16.7344
51.1379
69.8899
-0.594749
-0.594776
-0.595079
-0.595699
-0.596663
-0.598
-0.599725
-0.60186
-0.604443
-0.60752
-0.611156
-0.615443
-0.620505
-0.62651
-0.633685
-0.642363
-0.652974
-0.666257
-0.682959
-0.70464
-0.732783
-0.769447
-0.816798
-0.867843
-0.864507
-0.8507
-0.669002
-0.497258
-0.465885
-0.651349
-0.797851
-0.772458
-0.757371
0.603336
3.0656