/*--------------------------------*- C++ -*----------------------------------*\
  =========                 |
  \\      /  F ield         | OpenFOAM: The Open Source CFD Toolbox
   \\    /   O peration     | Website:  https://openfoam.org
    \\  /    A nd           | Version:  8
     \\/     M anipulation  |
\*---------------------------------------------------------------------------*/
FoamFile
{
    version     2.0;
    format      ascii;
    class       volVectorField;
    location    "0.45";
    object      U;
}
// * * * * * * * * * * * * * * * * * * * * * * * * * * * * * * * * * * * * * //

dimensions      [0 1 -1 0 0 0 0];

internalField   nonuniform List<vector> 
9150
(
(0.00498611 -0.0779257 0)
(0.0130209 -0.097443 0)
(0.0108627 -0.104125 0)
(0.00866965 -0.107769 0)
(0.00247814 -0.109169 0)
(-0.0021109 -0.109314 0)
(-0.00798885 -0.108161 0)
(-0.0108646 -0.104159 0)
(-0.0129859 -0.0974709 0)
(-0.00500899 -0.0779552 0)
(0.00600572 -0.092076 0)
(0.00862348 -0.100526 0)
(0.00730131 -0.10227 0)
(0.00440866 -0.104315 0)
(0.00195601 -0.105476 0)
(-0.00213375 -0.105283 0)
(-0.004567 -0.104114 0)
(-0.00731686 -0.102193 0)
(-0.00861014 -0.100523 0)
(-0.0060082 -0.0920838 0)
(0.00180468 -0.0954772 0)
(0.00460614 -0.0990056 0)
(0.00373433 -0.100927 0)
(0.00320437 -0.101755 0)
(0.000862113 -0.102381 0)
(-0.000646194 -0.1025 0)
(-0.00321089 -0.101896 0)
(-0.00374102 -0.100918 0)
(-0.00459964 -0.0990141 0)
(-0.00180786 -0.0954844 0)
(0.0017798 -0.0984466 0)
(0.00249973 -0.100411 0)
(0.00215866 -0.100321 0)
(0.00126589 -0.100789 0)
(0.000650452 -0.100843 0)
(-0.000833717 -0.100831 0)
(-0.00149646 -0.100501 0)
(-0.00213562 -0.100397 0)
(-0.00249313 -0.100417 0)
(-0.00178 -0.0984497 0)
(0.000198868 -0.0994999 0)
(0.000741365 -0.0995645 0)
(0.000476834 -0.0999278 0)
(0.00064318 -0.0998696 0)
(0.000170311 -0.100094 0)
(-0.000117991 -0.100104 0)
(-0.000484 -0.100083 0)
(-0.000464606 -0.0999404 0)
(-0.000736659 -0.0995684 0)
(-0.000198949 -0.0994998 0)
(0.0770577 -0.195285 1.47916e-26)
(0.0496453 -0.185494 0)
(0.0317091 -0.176996 0)
(0.0164473 -0.17442 0)
(0.00464932 -0.17592 0)
(-0.00461653 -0.176126 0)
(-0.016347 -0.17497 0)
(-0.0316632 -0.17719 0)
(-0.0496552 -0.18573 0)
(-0.0770869 -0.195455 -1.48711e-26)
(0.0584907 -0.146362 4.15179e-27)
(0.048287 -0.146538 0)
(0.0281127 -0.156307 0)
(0.0203788 -0.157053 0)
(0.00460881 -0.155822 0)
(-0.00407925 -0.155993 0)
(-0.020043 -0.157231 0)
(-0.0278318 -0.156339 0)
(-0.0482265 -0.146516 0)
(-0.0584169 -0.14633 -4.21358e-27)
(0.0478417 -0.121718 2.05792e-27)
(0.0419662 -0.131559 0)
(0.0297087 -0.13412 0)
(0.0182858 -0.137436 0)
(0.0061381 -0.14054 0)
(-0.00567448 -0.140504 0)
(-0.0180396 -0.137298 0)
(-0.0294906 -0.133968 0)
(-0.0418345 -0.131412 0)
(-0.0477583 -0.12163 -2.06812e-27)
(0.0375054 -0.0996263 2.91299e-27)
(0.0387207 -0.110355 0)
(0.0221713 -0.120102 0)
(0.0172246 -0.125332 0)
(0.0044803 -0.125481 0)
(-0.00398739 -0.125256 0)
(-0.0172909 -0.125277 0)
(-0.0222346 -0.120072 0)
(-0.0388035 -0.110314 0)
(-0.0374869 -0.0995615 -2.90182e-27)
(0.0252175 -0.0813049 -1.05544e-26)
(0.0283525 -0.100981 -1.23773e-26)
(0.0202877 -0.108149 -3.09441e-27)
(0.0112168 -0.113685 -2.76031e-27)
(0.00410675 -0.11672 -9.5707e-29)
(-0.00521759 -0.116372 -8.66224e-29)
(-0.0119064 -0.113442 -2.71333e-27)
(-0.0204828 -0.108305 -3.09863e-27)
(-0.0284345 -0.100972 -1.24092e-26)
(-0.0252355 -0.081298 -1.05584e-26)
(0.0173916 -0.145001 0)
(0.0124049 -0.20505 0)
(0.0217201 -0.216613 0)
(0.00730078 -0.223449 0)
(0.00672213 -0.225592 0)
(-0.00983554 -0.22543 0)
(-0.00916309 -0.222243 0)
(-0.022201 -0.215878 0)
(-0.0124443 -0.204763 0)
(-0.0173773 -0.144724 0)
(0.0160707 -0.166565 0)
(0.0017626 -0.199436 0)
(0.0150042 -0.208661 0)
(0.00193691 -0.213357 0)
(0.00671987 -0.214356 0)
(-0.00530764 -0.214452 0)
(-0.00102617 -0.213869 0)
(-0.0147089 -0.208899 0)
(-0.00167043 -0.199438 0)
(-0.0160139 -0.166534 0)
(0.0150294 -0.171989 0)
(-0.00361072 -0.202972 0)
(0.0110311 -0.207947 0)
(-0.00187886 -0.209766 0)
(0.00381616 -0.209685 0)
(-0.00483794 -0.209418 0)
(0.00114696 -0.209116 0)
(-0.0113622 -0.207858 0)
(0.00351746 -0.203015 0)
(-0.0151959 -0.171943 0)
(0.0169871 -0.193169 0)
(-0.00651061 -0.203658 0)
(0.00998657 -0.209771 0)
(-0.00120818 -0.206135 0)
(0.00222085 -0.206874 0)
(-0.0021587 -0.206962 0)
(0.00129183 -0.206942 0)
(-0.0100557 -0.209939 0)
(0.00653113 -0.203755 0)
(-0.0170029 -0.193318 0)
(0.0335008 -0.217778 0)
(0.008191 -0.204094 0)
(0.0167453 -0.20422 0)
(0.0105501 -0.19674 0)
(0.00192682 -0.193594 0)
(-0.00217281 -0.193688 0)
(-0.0107842 -0.196721 0)
(-0.016873 -0.204566 0)
(-0.00821617 -0.204393 0)
(-0.0335541 -0.217944 0)
(-1.30177 -1.04505 0)
(-1.29198 -1.0699 0)
(-1.17478 -1.11373 0)
(-0.733559 -1.14421 0)
(-0.249867 -1.44708 0)
(0.246177 -1.44548 0)
(0.728023 -1.14716 0)
(1.17574 -1.11466 0)
(1.29955 -1.06401 0)
(1.30665 -1.04332 0)
(-1.10586 0.466516 0)
(-1.15493 0.410389 0)
(-1.05643 0.268033 0)
(-0.204244 -1.28623 0)
(-0.0388027 -1.71748 0)
(0.0307688 -1.7209 0)
(0.190969 -1.30311 0)
(1.01819 0.247354 0)
(1.14645 0.38112 0)
(1.0916 0.498027 0)
(-0.0977958 -0.554265 0)
(-0.102809 -0.587996 0)
(-0.194796 -0.762436 0)
(-0.0599796 -1.74679 0)
(0.00504082 -1.89822 0)
(-0.0143937 -1.89595 0)
(0.0132024 -1.79701 0)
(0.19133 -0.784274 0)
(0.106125 -0.597014 0)
(0.0888274 -0.551556 0)
(-0.0581749 -0.0284492 0)
(0.0178214 -0.0893129 0)
(-0.0100038 -0.521596 0)
(0.0121935 -1.74604 0)
(0.00727695 -1.92297 0)
(-0.00431408 -1.92034 0)
(-0.00564253 -1.77128 0)
(0.00801095 -0.525994 0)
(-0.0100261 -0.0967002 0)
(0.0547292 -0.0439249 0)
(0.152256 -0.377404 0)
(0.102672 -0.372658 0)
(0.0416466 -0.631696 0)
(0.0109987 -1.84173 0)
(0.00720676 -1.90665 0)
(-0.00413046 -1.90846 0)
(-0.00076409 -1.85895 0)
(-0.0413291 -0.639089 0)
(-0.116238 -0.38858 0)
(-0.178062 -0.396223 0)
(0.0343762 -0.0970863 0)
(0.0293235 -0.194809 0)
(0.0103151 -0.546078 0)
(0.00534869 -1.8261 0)
(0.00572512 -1.90173 0)
(-0.00659867 -1.90169 0)
(-0.00819271 -1.85066 0)
(-0.0256769 -0.531929 0)
(-0.0391771 -0.193582 0)
(-0.0539727 -0.0827506 0)
(0.0973257 -0.18841 0)
(0.0817685 -0.218289 0)
(0.0550001 -0.488269 0)
(0.011419 -1.78639 0)
(0.00780173 -1.89169 0)
(-0.00473316 -1.88848 0)
(-0.00302653 -1.76781 0)
(-0.0626331 -0.479229 0)
(-0.0877962 -0.218181 0)
(-0.105635 -0.187259 0)
(0.0792035 -0.0966601 0)
(0.0607748 -0.14572 0)
(0.0441116 -0.45071 0)
(0.00916009 -1.72485 0)
(0.0100787 -1.87823 0)
(-0.00208661 -1.8768 0)
(0.00551611 -1.71874 0)
(-0.0327748 -0.442685 0)
(-0.0554235 -0.132235 0)
(-0.0781433 -0.0794582 0)
(0.0908985 -0.0679372 0)
(0.0612496 -0.108234 0)
(0.0240608 -0.377473 0)
(0.00749996 -1.71652 0)
(0.00975379 -1.86777 0)
(-0.00129345 -1.8652 0)
(0.0133694 -1.70009 0)
(-0.0224115 -0.365973 0)
(-0.053477 -0.0890641 0)
(-0.0887985 -0.0464772 0)
(0.0872121 0.0401033 0)
(0.0419016 -0.0177059 0)
(-0.00162526 -0.330258 0)
(0.0275124 -1.76559 0)
(0.0141016 -1.85491 0)
(0.00275872 -1.85757 0)
(0.0329407 -1.70018 0)
(0.0249416 -0.317486 0)
(-0.0171891 0.0126733 0)
(-0.0715309 0.0764525 0)
(0.0822015 0.126478 0)
(0.0364007 0.066224 0)
(0.00325591 -0.306085 0)
(0.0244052 -1.81253 0)
(0.00868209 -1.8439 0)
(-0.00314816 -1.84873 0)
(0.0036 -1.7497 0)
(0.0504074 -0.275789 0)
(-0.00296193 0.107138 0)
(-0.0577923 0.168579 0)
(0.0460078 0.225663 0)
(-0.0017468 0.143009 0)
(-0.0264051 -0.29741 0)
(-0.0161168 -1.76566 0)
(-0.00290244 -1.83682 0)
(-0.0134433 -1.83503 0)
(-0.0338206 -1.79867 0)
(0.00195818 -0.29702 0)
(0.00631966 0.173871 0)
(-0.0335031 0.261695 0)
(0.019168 0.295912 0)
(-0.0134634 0.184488 0)
(0.000396797 -0.332543 0)
(0.0252586 -1.78201 0)
(0.012443 -1.8283 0)
(-0.000170324 -1.82507 0)
(0.00418093 -1.79784 0)
(0.00476662 -0.329147 0)
(0.0128681 0.204049 0)
(-0.0110027 0.324806 0)
(-0.00560584 0.339568 0)
(-0.0133504 0.186944 0)
(0.0143537 -0.369019 0)
(0.018689 -1.79266 0)
(0.00816036 -1.81399 0)
(-0.00534054 -1.81991 0)
(0.00083437 -1.75445 0)
(0.00559959 -0.347003 0)
(0.0108006 0.201895 0)
(0.00821036 0.360095 0)
(-0.0218066 0.349051 0)
(-0.0139257 0.174263 0)
(7.35721e-05 -0.394011 0)
(-0.00931366 -1.78116 0)
(-0.00378202 -1.8037 0)
(-0.0149347 -1.80771 0)
(-0.0279207 -1.76555 0)
(-0.0210779 -0.358812 0)
(-3.35337e-05 0.183816 0)
(0.0116184 0.353973 0)
(-0.0254055 0.339661 0)
(-0.00930322 0.148783 0)
(-0.00250924 -0.401429 0)
(-0.0122524 -1.75353 0)
(-0.000878795 -1.79535 0)
(-0.0125181 -1.7967 0)
(-0.0238161 -1.758 0)
(-0.0227731 -0.374364 0)
(-0.0120543 0.14741 0)
(0.00840733 0.334319 0)
(-0.0208363 0.317893 0)
(-0.00423338 0.12355 0)
(-0.0135871 -0.393606 0)
(-0.0222434 -1.74576 0)
(-0.00386812 -1.78594 0)
(-0.0163237 -1.78651 0)
(-0.0319835 -1.75447 0)
(-0.0270666 -0.385372 0)
(-0.0272874 0.120345 0)
(-0.00607928 0.302846 0)
(-0.00193936 0.293339 0)
(0.0111876 0.114681 0)
(-0.00768234 -0.382719 0)
(-0.0153305 -1.7378 0)
(-0.000126148 -1.7818 0)
(-0.0132833 -1.77421 0)
(-0.0351005 -1.75458 0)
(-0.0355716 -0.374976 0)
(-0.0376781 0.106813 0)
(-0.0207445 0.275422 0)
(0.0192861 0.276269 0)
(0.0291494 0.11498 0)
(0.0249071 -0.360069 0)
(0.0251355 -1.72191 0)
(0.0114398 -1.76758 0)
(-0.00179955 -1.7633 0)
(0.00388395 -1.71808 0)
(-0.0131304 -0.360825 0)
(-0.0315186 0.10909 0)
(-0.0269956 0.262128 0)
(0.0302216 0.264714 0)
(0.0377053 0.111902 0)
(0.022063 -0.357974 0)
(0.0141139 -1.7201 0)
(0.00776188 -1.754 0)
(-0.0065623 -1.75681 0)
(-0.00227635 -1.68964 0)
(-0.00883309 -0.342213 0)
(-0.0332926 0.118625 0)
(-0.0320363 0.261507 0)
(0.0384509 0.260589 0)
(0.0405138 0.120602 0)
(0.0259665 -0.317787 0)
(-0.0045815 -1.67187 0)
(0.00327817 -1.74682 0)
(-0.0105559 -1.74509 0)
(-0.0209704 -1.70049 0)
(-0.0339532 -0.30254 0)
(-0.0415976 0.132662 0)
(-0.0412504 0.264514 0)
(0.0432375 0.258815 0)
(0.0450228 0.127592 0)
(0.0563825 -0.294913 0)
(0.0259055 -1.63264 0)
(0.0124999 -1.73426 0)
(-0.000919675 -1.7339 0)
(0.0084707 -1.64567 0)
(-0.0475708 -0.273984 0)
(-0.0432785 0.144504 0)
(-0.044346 0.268838 0)
(0.037579 0.259821 0)
(0.0359361 0.127011 0)
(0.0357236 -0.298517 0)
(0.00342235 -1.57259 0)
(0.00533255 -1.71976 0)
(-0.00650741 -1.72172 0)
(-0.00885787 -1.56935 0)
(-0.0350731 -0.274174 0)
(-0.0377452 0.148882 0)
(-0.0398297 0.274413 0)
(0.0305153 0.266868 0)
(0.0266613 0.138403 0)
(0.0297057 -0.270323 0)
(0.00711747 -1.55406 0)
(0.00839012 -1.70876 0)
(-0.00486202 -1.70771 0)
(0.00271857 -1.55176 0)
(-0.0274669 -0.243355 0)
(-0.0264106 0.164001 0)
(-0.0322334 0.285975 0)
(0.0197047 0.276856 0)
(0.01122 0.1468 0)
(0.0193018 -0.266679 0)
(0.00704945 -1.54264 0)
(0.00688633 -1.69596 0)
(-0.00415414 -1.69708 0)
(0.00337808 -1.53431 0)
(-0.0152252 -0.233564 0)
(-0.0102035 0.175672 0)
(-0.0207471 0.30038 0)
(0.00674466 0.289867 0)
(-0.00426855 0.154003 0)
(0.00421387 -0.275412 0)
(0.00280301 -1.54295 0)
(0.00669787 -1.68456 0)
(-0.0076547 -1.68807 0)
(0.00247084 -1.52787 0)
(0.00184024 -0.235927 0)
(0.00501101 0.189995 0)
(-0.00910001 0.318859 0)
(-0.0061485 0.306331 0)
(-0.0190872 0.162293 0)
(-0.0184591 -0.283556 0)
(-0.0197628 -1.54585 0)
(0.000334409 -1.67337 0)
(-0.0116101 -1.67399 0)
(-0.0185236 -1.56235 0)
(0.0114517 -0.239519 0)
(0.014762 0.203174 0)
(1.35936e-05 0.339454 0)
(-0.0131932 0.324937 0)
(-0.0252998 0.174602 0)
(-0.0332774 -0.286749 0)
(-0.00950904 -1.58295 0)
(0.00343541 -1.66275 0)
(-0.009565 -1.66344 0)
(-0.0205597 -1.63716 0)
(0.00963752 -0.265937 0)
(0.0136904 0.210532 0)
(0.00260566 0.35752 0)
(-0.015331 0.340283 0)
(-0.0227734 0.179159 0)
(-0.0308271 -0.300738 0)
(0.000490166 -1.60807 0)
(0.00182799 -1.64942 0)
(-0.0105451 -1.64833 0)
(-0.0239815 -1.62454 0)
(-0.0061125 -0.301386 0)
(0.00184683 0.205932 0)
(7.3335e-05 0.368578 0)
(-0.0116566 0.347063 0)
(-0.00873401 0.17119 0)
(0.00731751 -0.3362 0)
(0.0198172 -1.62218 0)
(0.00502248 -1.63807 0)
(-0.00673493 -1.63954 0)
(-0.00495255 -1.5979 0)
(0.0045756 -0.307702 0)
(0.00371752 0.199859 0)
(0.000403586 0.373279 0)
(-0.0136142 0.348532 0)
(-0.0106143 0.163101 0)
(-0.0116422 -0.346571 0)
(-0.0205518 -1.59114 0)
(-0.00292989 -1.62595 0)
(-0.0170734 -1.6319 0)
(-0.0337652 -1.60929 0)
(-0.0254391 -0.340828 0)
(-0.0065877 0.187278 0)
(-0.00211541 0.371942 0)
(-0.0132376 0.349504 0)
(-0.0116921 0.159629 0)
(-0.0154011 -0.352889 0)
(-0.0187452 -1.58654 0)
(-0.00192991 -1.61892 0)
(-0.0144669 -1.61191 0)
(-0.0319335 -1.59614 0)
(-0.0333624 -0.360828 0)
(-0.0109127 0.170361 0)
(-0.00307661 0.364489 0)
(-0.0080835 0.345693 0)
(-0.000824102 0.148493 0)
(0.0013468 -0.362371 0)
(0.0133339 -1.57067 0)
(0.00989159 -1.61114 0)
(-0.00461332 -1.60228 0)
(-0.00962377 -1.59397 0)
(-0.0160267 -0.382851 0)
(-0.00738189 0.152649 0)
(0.0014089 0.355547 0)
(-0.00165948 0.333088 0)
(0.0136133 0.129688 0)
(0.0353286 -0.379029 0)
(0.0381621 -1.57345 0)
(0.01856 -1.5926 0)
(0.00353323 -1.5948 0)
(0.024431 -1.56249 0)
(0.00908496 -0.373539 0)
(0.000498816 0.143657 0)
(0.0060888 0.348482 0)
(-0.00235604 0.317475 0)
(0.0112569 0.107833 0)
(0.0220744 -0.398909 0)
(0.0159118 -1.56651 0)
(0.00798282 -1.57896 0)
(-0.00755791 -1.58722 0)
(-0.00441402 -1.5486 0)
(0.00107681 -0.368468 0)
(-0.00499666 0.134655 0)
(0.00401798 0.340449 0)
(-0.00357905 0.304771 0)
(0.00402015 0.0939889 0)
(-0.00432826 -0.399764 0)
(-0.0211379 -1.54191 0)
(-0.00270022 -1.57222 0)
(-0.017755 -1.57033 0)
(-0.0428955 -1.55189 0)
(-0.0366412 -0.376034 0)
(-0.0174337 0.119079 0)
(-0.00331494 0.326684 0)
(0.00355866 0.289852 0)
(0.0137195 0.0806607 0)
(0.0244861 -0.398736 0)
(0.0169912 -1.51664 0)
(0.0103538 -1.56112 0)
(-0.00253624 -1.55285 0)
(0.000700638 -1.53271 0)
(-0.0182252 -0.392813 0)
(-0.0137944 0.0969392 0)
(-0.00392009 0.309171 0)
(0.0119 0.269116 0)
(0.0245444 0.060807 0)
(0.0556862 -0.401864 0)
(0.0292252 -1.50844 0)
(0.0142714 -1.54305 0)
(-0.00135899 -1.546 0)
(0.0112539 -1.50526 0)
(-0.0388079 -0.375033 0)
(-0.0200695 0.0873676 0)
(-0.0102009 0.292775 0)
(0.0107503 0.245073 0)
(0.0197989 0.038703 0)
(0.0401297 -0.403551 0)
(-0.00446332 -1.4514 0)
(0.00266898 -1.52598 0)
(-0.0111681 -1.52893 0)
(-0.0184691 -1.42783 0)
(-0.0441601 -0.381105 0)
(-0.020647 0.0647574 0)
(-0.0104091 0.270728 0)
(0.00560753 0.225043 0)
(0.0114974 0.0210768 0)
(0.0295498 -0.411476 0)
(0.0106147 -1.40849 0)
(0.00916162 -1.51535 0)
(-0.0047417 -1.5122 0)
(-0.000908935 -1.41287 0)
(-0.0254113 -0.383546 0)
(-0.00908295 0.0508777 0)
(-0.00445724 0.25343 0)
(0.000726156 0.207767 0)
(0.00173564 0.00564078 0)
(0.020831 -0.416124 0)
(0.00717486 -1.39934 0)
(0.00761434 -1.50098 0)
(-0.00586737 -1.50171 0)
(0.000641746 -1.3975 0)
(-0.0143549 -0.391127 0)
(0.00105559 0.0351328 0)
(0.00154687 0.237385 0)
(-0.00544352 0.196336 0)
(-0.00548263 -0.00801261 0)
(0.0138286 -0.434701 0)
(0.0073313 -1.39038 0)
(0.00746473 -1.48725 0)
(-0.0072568 -1.48846 0)
(-0.00749493 -1.39079 0)
(-0.0120328 -0.406422 0)
(0.00662554 0.025524 0)
(0.00576513 0.229266 0)
(-0.00801177 0.180133 0)
(-0.00779768 -0.0308904 0)
(0.0112193 -0.45728 0)
(0.00593942 -1.38333 0)
(0.00757153 -1.47493 0)
(-0.00630041 -1.47356 0)
(-0.00207469 -1.3836 0)
(-0.00926782 -0.429249 0)
(0.0090445 0.00344081 0)
(0.00917427 0.214541 0)
(-0.00629557 0.171395 0)
(-0.00558678 -0.039978 0)
(0.0165018 -0.468406 0)
(0.0105395 -1.37426 0)
(0.00728377 -1.46075 0)
(-0.00647696 -1.46137 0)
(-0.00668033 -1.3752 0)
(-0.0138896 -0.438749 0)
(0.00650527 -0.00350113 0)
(0.00654187 0.207535 0)
(-0.00649087 0.154282 0)
(-0.00528957 -0.0643379 0)
(0.0127314 -0.489273 0)
(0.00316569 -1.3676 0)
(0.00770256 -1.4486 0)
(-0.00667614 -1.44837 0)
(-0.00106218 -1.36693 0)
(-0.01139 -0.458959 0)
(0.00617241 -0.0270012 0)
(0.00685955 0.192909 0)
(-0.00464905 0.144168 0)
(-0.00316616 -0.0737672 0)
(0.0187983 -0.497358 0)
(0.0109372 -1.35658 0)
(0.00726337 -1.43501 0)
(-0.00668542 -1.43509 0)
(-0.00827665 -1.35595 0)
(-0.0168171 -0.466784 0)
(0.0048349 -0.0352626 0)
(0.00603209 0.183632 0)
(-0.00556701 0.126279 0)
(-0.00477826 -0.098327 0)
(0.0138246 -0.519595 0)
(0.0031343 -1.34729 0)
(0.00733089 -1.42234 0)
(-0.00633766 -1.42195 0)
(-0.000338816 -1.34681 0)
(-0.0116528 -0.490186 0)
(0.00738425 -0.0609084 0)
(0.00809992 0.166886 0)
(-0.0046906 0.116374 0)
(-0.00457412 -0.107827 0)
(0.0178155 -0.528665 0)
(0.0116674 -1.33444 0)
(0.00781802 -1.40933 0)
(-0.00679248 -1.40945 0)
(-0.00835426 -1.33403 0)
(-0.0154621 -0.499421 0)
(0.00801927 -0.0703835 0)
(0.00834122 0.157371 0)
(-0.00624956 0.100191 0)
(-0.00814002 -0.13069 0)
(0.0131411 -0.557427 0)
(0.00547251 -1.32438 0)
(0.0072894 -1.39633 0)
(-0.0059546 -1.39584 0)
(-0.00162093 -1.32351 0)
(-0.0105027 -0.530492 0)
(0.012425 -0.0959166 0)
(0.0108078 0.140808 0)
(-0.00663017 0.0916005 0)
(-0.00958396 -0.140486 0)
(0.0149092 -0.570799 0)
(0.0124198 -1.31164 0)
(0.00825309 -1.38299 0)
(-0.00651826 -1.38326 0)
(-0.00775705 -1.30988 0)
(-0.0121281 -0.544423 0)
(0.0145588 -0.106622 0)
(0.0119037 0.131579 0)
(-0.00781412 0.0786896 0)
(-0.0117528 -0.162994 0)
(0.0113379 -0.609304 0)
(0.00721109 -1.30296 0)
(0.00720309 -1.36957 0)
(-0.00630508 -1.36974 0)
(-0.00443201 -1.3006 0)
(-0.00951629 -0.587695 0)
(0.0162121 -0.132699 0)
(0.0136032 0.117122 0)
(-0.00578332 0.0718771 0)
(-0.0084261 -0.172799 0)
(0.0112444 -0.626352 0)
(0.00814283 -1.29223 0)
(0.00740406 -1.35594 0)
(-0.00718049 -1.35621 0)
(-0.00915736 -1.2907 0)
(-0.0104603 -0.608115 0)
(0.0122989 -0.144929 0)
(0.0113791 0.108183 0)
(-0.00329054 0.0620447 0)
(-0.00455446 -0.187947 0)
(0.00801123 -0.652678 0)
(0.00708012 -1.28546 0)
(0.00721389 -1.34213 0)
(-0.00692529 -1.3419 0)
(-0.00690715 -1.28616 0)
(-0.00683933 -0.639755 0)
(0.00795387 -0.164833 0)
(0.00865977 0.0952674 0)
(0.00223934 0.0570393 0)
(-0.000179571 -0.191419 0)
(0.00733692 -0.662075 0)
(0.0075768 -1.28306 0)
(0.00743667 -1.32747 0)
(-0.00701417 -1.32777 0)
(-0.00768117 -1.2842 0)
(-0.00574098 -0.651516 0)
(0.0024169 -0.17087 0)
(0.00214928 0.0874647 0)
(0.00728583 0.0527257 0)
(0.00118683 -0.188305 0)
(0.0073374 -0.666133 0)
(0.00428178 -1.28634 0)
(0.00716651 -1.31285 0)
(-0.00750293 -1.31254 0)
(-0.00601396 -1.28778 0)
(-0.00781305 -0.658008 0)
(0.00027163 -0.171677 0)
(-0.00412036 0.0792401 0)
(0.0112566 0.0512491 0)
(0.00234353 -0.184238 0)
(0.0148054 -0.669764 0)
(0.00952542 -1.28323 0)
(0.00786008 -1.29763 0)
(-0.00684825 -1.29739 0)
(-0.00843559 -1.28439 0)
(-0.0138548 -0.664288 0)
(-0.000259139 -0.169352 0)
(-0.00816284 0.0755437 0)
(0.0123801 0.0473419 0)
(0.00475948 -0.185696 0)
(0.0166815 -0.680417 0)
(0.00682803 -1.27869 0)
(0.00818544 -1.28175 0)
(-0.00668111 -1.28171 0)
(-0.00313527 -1.27833 0)
(-0.0122758 -0.677286 0)
(-0.00143379 -0.173111 0)
(-0.00890964 0.0692232 0)
(0.0134436 0.0450977 0)
(0.00690071 -0.183676 0)
(0.0202395 -0.684515 0)
(0.011525 -1.26658 0)
(0.00776434 -1.26567 0)
(-0.00737486 -1.26628 0)
(-0.0102304 -1.26704 0)
(-0.0179967 -0.680907 0)
(-0.0042983 -0.171558 0)
(-0.0104471 0.0657474 0)
(0.0126069 0.039357 0)
(0.00689734 -0.185961 0)
(0.0174925 -0.694935 0)
(0.00518673 -1.25569 0)
(0.00753387 -1.24983 0)
(-0.0072566 -1.24959 0)
(-0.00447719 -1.25584 0)
(-0.0165896 -0.693087 0)
(-0.0049204 -0.176185 0)
(-0.0100189 0.0573712 0)
(0.0129571 0.0375769 0)
(0.00782781 -0.184051 0)
(0.0195812 -0.698795 0)
(0.0120588 -1.243 0)
(0.0079381 -1.2337 0)
(-0.00742018 -1.23395 0)
(-0.0110483 -1.24318 0)
(-0.018155 -0.697842 0)
(-0.00632198 -0.17519 0)
(-0.0106988 0.0540737 0)
(0.0118771 0.0320147 0)
(0.00665429 -0.18602 0)
(0.0169192 -0.711369 0)
(0.00528301 -1.23048 0)
(0.00750286 -1.21744 0)
(-0.00697255 -1.21735 0)
(-0.00414155 -1.2306 0)
(-0.0152917 -0.710971 0)
(-0.00519899 -0.178719 0)
(-0.00981732 0.0460828 0)
(0.0128288 0.0314451 0)
(0.00729877 -0.182974 0)
(0.0193127 -0.716951 0)
(0.0123083 -1.21679 0)
(0.00790047 -1.20164 0)
(-0.00741254 -1.20188 0)
(-0.0113954 -1.21687 0)
(-0.0179606 -0.716567 0)
(-0.00605493 -0.176238 0)
(-0.0110143 0.0441323 0)
(0.012156 0.0269683 0)
(0.00635616 -0.184558 0)
(0.0171272 -0.732178 0)
(0.00512091 -1.20295 0)
(0.007162 -1.18541 0)
(-0.00677528 -1.18547 0)
(-0.0042895 -1.20307 0)
(-0.0157886 -0.732263 0)
(-0.00520302 -0.179074 0)
(-0.0104284 0.0376926 0)
(0.0139926 0.0272406 0)
(0.00826316 -0.180608 0)
(0.019697 -0.738221 0)
(0.0124067 -1.18786 0)
(0.00782793 -1.17 0)
(-0.00737062 -1.17014 0)
(-0.011666 -1.18796 0)
(-0.0185573 -0.738427 0)
(-0.0072041 -0.175681 0)
(-0.0124614 0.036755 0)
(0.0143227 0.023573 0)
(0.00866102 -0.181449 0)
(0.018119 -0.750739 0)
(0.00538937 -1.17327 0)
(0.00675603 -1.15393 0)
(-0.00648616 -1.15406 0)
(-0.00472312 -1.17337 0)
(-0.0170602 -0.751391 0)
(-0.00767601 -0.177563 0)
(-0.0128189 0.0315662 0)
(0.0171034 0.0239291 0)
(0.0121839 -0.176531 0)
(0.0212939 -0.753845 0)
(0.0125967 -1.15698 0)
(0.00787015 -1.13849 0)
(-0.00742478 -1.13858 0)
(-0.0120009 -1.1571 0)
(-0.0202841 -0.7546 0)
(-0.0113239 -0.173262 0)
(-0.0158332 0.030886 0)
(0.0177716 0.0203601 0)
(0.012872 -0.176706 0)
(0.0199888 -0.758325 0)
(0.00627593 -1.14146 0)
(0.00642161 -1.12243 0)
(-0.00618116 -1.12252 0)
(-0.00555554 -1.14156 0)
(-0.018873 -0.75916 0)
(-0.0119705 -0.174175 0)
(-0.0164166 0.0261196 0)
(0.0203336 0.0205013 0)
(0.0169725 -0.170886 0)
(0.0221817 -0.756504 0)
(0.0131744 -1.12459 0)
(0.0081102 -1.10635 0)
(-0.00761272 -1.10648 0)
(-0.0125522 -1.12469 0)
(-0.0210348 -0.757459 0)
(-0.0159939 -0.168964 0)
(-0.0191338 0.0254247 0)
(0.0207982 0.017228 0)
(0.0172497 -0.170155 0)
(0.0209118 -0.757425 0)
(0.00759256 -1.10822 0)
(0.00633448 -1.08987 0)
(-0.00603943 -1.08983 0)
(-0.00673247 -1.10827 0)
(-0.0196146 -0.758575 0)
(-0.0161216 -0.168736 0)
(-0.0194257 0.021274 0)
(0.0230473 0.0172105 0)
(0.0213962 -0.163529 0)
(0.0230462 -0.750592 0)
(0.0141143 -1.09088 0)
(0.00840822 -1.07275 0)
(-0.0078285 -1.07298 0)
(-0.0133904 -1.09096 0)
(-0.0216353 -0.752272 0)
(-0.0202841 -0.162426 0)
(-0.0218598 0.02068 0)
(0.0231464 0.0141782 0)
(0.0216949 -0.162066 0)
(0.0213047 -0.747894 0)
(0.00870924 -1.07389 0)
(0.00649787 -1.05529 0)
(-0.00628366 -1.0552 0)
(-0.00803856 -1.0739 0)
(-0.0203343 -0.749555 0)
(-0.0208628 -0.161351 0)
(-0.0220277 0.016937 0)
(0.0246513 0.0141004 0)
(0.0245577 -0.154896 0)
(0.0230732 -0.737396 0)
(0.0147065 -1.05596 0)
(0.00842026 -1.03711 0)
(-0.00815285 -1.03731 0)
(-0.0145149 -1.05599 0)
(-0.0224774 -0.739202 0)
(-0.0239363 -0.154659 0)
(-0.023806 0.016173 0)
(0.024184 0.011705 0)
(0.0240779 -0.152828 0)
(0.0212364 -0.733558 0)
(0.00959903 -1.03843 0)
(0.00676803 -1.01861 0)
(-0.00668488 -1.01846 0)
(-0.0093413 -1.0384 0)
(-0.0209565 -0.735642 0)
(-0.0236845 -0.153104 0)
(-0.0233814 0.0130152 0)
(0.0252831 0.011996 0)
(0.0262917 -0.145331 0)
(0.0232838 -0.72342 0)
(0.0154288 -1.01975 0)
(0.00860614 -0.999363 0)
(-0.00834401 -0.999321 0)
(-0.0151694 -1.01971 0)
(-0.0226972 -0.725592 0)
(-0.0258117 -0.146161 0)
(-0.0245516 0.012604 0)
(0.0247772 0.0104191 0)
(0.0254981 -0.143144 0)
(0.0215817 -0.720021 0)
(0.0105081 -1.00149 0)
(0.00698794 -0.979951 0)
(-0.00681657 -0.979933 0)
(-0.0102514 -1.00141 0)
(-0.0212168 -0.722295 0)
(-0.0251379 -0.144369 0)
(-0.024056 0.0103472 0)
(0.0259369 0.0111016 0)
(0.027682 -0.135543 0)
(0.0237522 -0.710386 0)
(0.0159896 -0.981914 0)
(0.00878315 -0.960073 0)
(-0.00859524 -0.95976 0)
(-0.0158145 -0.981797 0)
(-0.0233757 -0.712794 0)
(-0.0272568 -0.137338 0)
(-0.0252255 0.0103745 0)
(0.0257908 0.0101781 0)
(0.027227 -0.133287 0)
(0.0222826 -0.707029 0)
(0.0114943 -0.962656 0)
(0.00712967 -0.939502 0)
(-0.00676365 -0.93957 0)
(-0.0110061 -0.962544 0)
(-0.0215223 -0.709439 0)
(-0.0266937 -0.135368 0)
(-0.0250084 0.00887321 0)
(0.027105 0.0110945 0)
(0.0296121 -0.125692 0)
(0.0246444 -0.696533 0)
(0.0167247 -0.942168 0)
(0.00892744 -0.919484 0)
(-0.00866379 -0.919091 0)
(-0.0163817 -0.941999 0)
(-0.0239538 -0.699013 0)
(-0.0290748 -0.128171 0)
(-0.0263505 0.00926036 0)
(0.0271444 0.010632 0)
(0.0294746 -0.123262 0)
(0.022812 -0.692379 0)
(0.0124973 -0.9218 0)
(0.00710531 -0.897427 0)
(-0.0069453 -0.897553 0)
(-0.0123167 -0.92167 0)
(-0.0224807 -0.694975 0)
(-0.0290866 -0.126053 0)
(-0.0264544 0.00825473 0)
(0.0285273 0.0117481 0)
(0.0319486 -0.115542 0)
(0.0252577 -0.680204 0)
(0.0174187 -0.900344 0)
(0.00888432 -0.877135 0)
(-0.00871474 -0.876716 0)
(-0.0171719 -0.900181 0)
(-0.0247953 -0.682984 0)
(-0.0315223 -0.118814 0)
(-0.0278647 0.00883511 0)
(0.0287273 0.0116338 0)
(0.0322539 -0.112909 0)
(0.0238094 -0.675094 0)
(0.0139771 -0.878836 0)
(0.00723994 -0.853791 0)
(-0.00696935 -0.853848 0)
(-0.0136941 -0.878723 0)
(-0.0232796 -0.677902 0)
(-0.0318339 -0.116434 0)
(-0.0280827 0.00824668 0)
(0.0300951 0.0128036 0)
(0.03475 -0.105213 0)
(0.0260837 -0.661279 0)
(0.0182328 -0.856198 0)
(0.00884899 -0.832396 0)
(-0.00875248 -0.832169 0)
(-0.0179636 -0.856093 0)
(-0.0256562 -0.664168 0)
(-0.0343591 -0.109114 0)
(-0.0294978 0.00898373 0)
(0.0303578 0.012854 0)
(0.0354415 -0.102431 0)
(0.0247452 -0.654991 0)
(0.0154527 -0.833329 0)
(0.00718057 -0.808238 0)
(-0.00695328 -0.808284 0)
(-0.0153217 -0.83328 0)
(-0.0243611 -0.657923 0)
(-0.0351124 -0.106572 0)
(-0.0298258 0.00862659 0)
(0.0317168 0.01381 0)
(0.0381245 -0.0950652 0)
(0.0271589 -0.638917 0)
(0.0191365 -0.809175 0)
(0.00889413 -0.78532 0)
(-0.00887936 -0.785258 0)
(-0.0188677 -0.809163 0)
(-0.0268651 -0.641947 0)
(-0.0378139 -0.0995305 0)
(-0.0312404 0.00922074 0)
(0.031901 0.0135983 0)
(0.0392924 -0.0924745 0)
(0.0257985 -0.630982 0)
(0.0170351 -0.784624 0)
(0.00699665 -0.76035 0)
(-0.00677078 -0.760428 0)
(-0.0169785 -0.784665 0)
(-0.0254402 -0.634012 0)
(-0.039026 -0.0971276 0)
(-0.0314723 0.00869944 0)
(0.03304 0.0136967 0)
(0.0422539 -0.0863134 0)
(0.0283655 -0.611947 0)
(0.0203068 -0.758699 0)
(0.00903096 -0.736038 0)
(-0.00902665 -0.736134 0)
(-0.0200348 -0.758783 0)
(-0.0281582 -0.615042 0)
(-0.0420185 -0.0912244 0)
(-0.0326768 0.00854674 0)
(0.0325743 0.012375 0)
(0.0438424 -0.0847018 0)
(0.0271498 -0.601001 0)
(0.0190433 -0.732133 0)
(0.00704427 -0.709666 0)
(-0.00683241 -0.70983 0)
(-0.0190145 -0.732252 0)
(-0.0268411 -0.604016 0)
(-0.043663 -0.0897769 0)
(-0.0322699 0.0070043 0)
(0.0324617 0.0102268 0)
(0.0467867 -0.0825824 0)
(0.0301203 -0.579404 0)
(0.0219118 -0.704117 0)
(0.00908152 -0.684546 0)
(-0.00908954 -0.684713 0)
(-0.0217586 -0.704255 0)
(-0.0300792 -0.582449 0)
(-0.0466839 -0.0878305 0)
(-0.0322161 0.00467524 0)
(0.0292161 0.00554677 0)
(0.0468829 -0.087042 0)
(0.0293921 -0.56176 0)
(0.0212924 -0.675084 0)
(0.0073083 -0.656395 0)
(-0.00711202 -0.656572 0)
(-0.0212568 -0.675228 0)
(-0.0291464 -0.564674 0)
(-0.0468674 -0.0925107 0)
(-0.0290342 -0.000199015 0)
(0.0245343 -0.00128531 0)
(0.0426373 -0.0990287 0)
(0.0356307 -0.534766 0)
(0.0235632 -0.644616 0)
(0.0089236 -0.630221 0)
(-0.0086436 -0.630378 0)
(-0.023356 -0.644741 0)
(-0.0352595 -0.537223 0)
(-0.0427265 -0.104596 0)
(-0.0246665 -0.00726462 0)
(0.0239065 -0.0104711 0)
(0.0177001 -0.13321 0)
(0.0422532 -0.523638 0)
(0.0236225 -0.613035 0)
(0.00739876 -0.600844 0)
(-0.00719703 -0.601058 0)
(-0.023523 -0.613135 0)
(-0.041942 -0.525625 0)
(-0.0180077 -0.138241 0)
(-0.0244104 -0.0162825 0)
(0.0230594 -0.00488922 0)
(-0.0127445 -0.153512 0)
(0.0479887 -0.539698 0)
(0.0247891 -0.580362 0)
(0.00822769 -0.572177 0)
(-0.0081888 -0.572299 0)
(-0.0249092 -0.580438 0)
(-0.0479423 -0.540856 0)
(0.0119938 -0.15814 0)
(-0.0235529 -0.0108004 0)
(0.0264974 0.014954 0)
(0.0232829 -0.164657 0)
(0.0486873 -0.543069 0)
(0.0262591 -0.545756 0)
(0.00810211 -0.540788 0)
(-0.00799694 -0.54057 0)
(-0.0262428 -0.545802 0)
(-0.0484081 -0.543206 0)
(-0.0233846 -0.169165 0)
(-0.0268358 0.0092684 0)
(0.0439119 0.00948537 0)
(0.057286 -0.205324 0)
(0.0552171 -0.495288 0)
(0.026812 -0.507355 0)
(0.00999472 -0.50714 0)
(-0.00961654 -0.507327 0)
(-0.0271722 -0.50733 0)
(-0.0549621 -0.495372 0)
(-0.0578638 -0.209029 0)
(-0.0443175 0.00356111 0)
(0.0617809 0.00584558 0)
(0.0586863 -0.220422 0)
(0.0562261 -0.455684 0)
(0.0290804 -0.468192 0)
(0.0101629 -0.470428 0)
(-0.0101955 -0.470232 0)
(-0.0290012 -0.46788 0)
(-0.056719 -0.455458 0)
(-0.0587328 -0.224087 0)
(-0.0621052 0.000235141 0)
(0.0534858 -0.0210842 0)
(0.0679198 -0.209635 0)
(0.064992 -0.402779 0)
(0.0311506 -0.423482 0)
(0.0110298 -0.42915 0)
(-0.0125946 -0.429183 0)
(-0.0324011 -0.423452 0)
(-0.0659704 -0.402454 0)
(-0.0688444 -0.213999 0)
(-0.0544337 -0.0277702 0)
(-0.000879451 -0.0502024 0)
(0.0718917 -0.270361 0)
(0.0639779 -0.361832 0)
(0.0343319 -0.380947 0)
(0.0133791 -0.38385 0)
(-0.0119174 -0.383445 0)
(-0.0325786 -0.380775 0)
(-0.0627815 -0.362412 0)
(-0.0719766 -0.27167 0)
(0.00221654 -0.0565793 0)
(0.0871725 -0.100935 0)
(0.0726711 -0.284283 0)
(0.0682451 -0.314189 0)
(0.03617 -0.328754 0)
(0.0139496 -0.332413 0)
(-0.0149211 -0.332705 0)
(-0.0370746 -0.32873 0)
(-0.0689338 -0.314721 0)
(-0.0732278 -0.284693 0)
(-0.0887977 -0.106027 0)
(0.097509 -0.186026 0)
(0.0752666 -0.222986 0)
(0.0693653 -0.26139 0)
(0.038685 -0.281369 0)
(0.0158176 -0.284098 0)
(-0.0169516 -0.284401 0)
(-0.0389583 -0.281861 0)
(-0.0686693 -0.261414 0)
(-0.0748429 -0.222712 0)
(-0.0974327 -0.188156 0)
(0.0578386 -0.127193 0)
(0.0498842 -0.194721 0)
(0.044071 -0.234582 0)
(0.0205933 -0.244015 0)
(0.0118201 -0.247085 0)
(-0.0072937 -0.246694 0)
(-0.0178775 -0.243085 0)
(-0.0434917 -0.23437 0)
(-0.0496339 -0.194399 0)
(-0.0573769 -0.127751 0)
(1.30087 -1.03583 0)
(1.29261 -1.03254 0)
(1.29266 -1.03093 0)
(1.2967 -1.02758 0)
(1.30002 -1.02545 0)
(1.30145 -1.02123 0)
(1.29716 -1.01934 0)
(1.29412 -1.01736 0)
(1.29559 -1.01545 0)
(1.29656 -1.01303 0)
(1.29572 -1.01134 0)
(1.29467 -1.01018 0)
(1.29436 -1.00919 0)
(1.29436 -1.00584 0)
(1.29352 -1.00344 0)
(1.29143 -1.00267 0)
(1.2902 -1.00055 0)
(1.2903 -0.997915 0)
(1.28974 -0.996503 0)
(1.28969 -0.994623 0)
(1.29087 -0.988793 0)
(1.28824 -0.975652 0)
(1.2832 -0.966504 0)
(1.27715 -0.963353 0)
(1.27519 -0.95853 0)
(1.26973 -0.952663 0)
(1.26262 -0.932794 0)
(1.23374 -0.930271 0)
(1.22459 -0.908171 0)
(1.19872 -0.896682 0)
(1.18747 -0.858739 0)
(1.14784 -0.839624 0)
(1.11369 -0.774321 0)
(1.06819 -0.73412 0)
(1.00799 -0.630822 0)
(0.929021 -0.560164 0)
(0.81179 -0.377351 0)
(0.660424 -0.253177 0)
(0.408666 0.036646 0)
(0.194598 0.147488 0)
(1.09953 0.639093 0)
(1.14117 0.895508 0)
(1.13946 0.910943 0)
(1.16009 0.912341 0)
(1.17676 0.899805 0)
(1.21789 0.78856 0)
(1.24608 0.893447 0)
(1.26075 0.935665 0)
(1.25716 0.939714 0)
(1.24956 0.926679 0)