/*--------------------------------*- C++ -*----------------------------------*\
  =========                 |
  \\      /  F ield         | OpenFOAM: The Open Source CFD Toolbox
   \\    /   O peration     | Website:  https://openfoam.org
    \\  /    A nd           | Version:  8
     \\/     M anipulation  |
\*---------------------------------------------------------------------------*/
FoamFile
{
    version     2.0;
    format      ascii;
    class       volScalarField;
    location    "1.8";
    object      epsilon;
}
// * * * * * * * * * * * * * * * * * * * * * * * * * * * * * * * * * * * * * //

dimensions      [0 2 -3 0 0 0 0];

internalField   nonuniform List<scalar> 
9150
(
0.0313167
0.012458
0.00312067
0.000975004
0.000507969
0.000508021
0.000975193
0.00312127
0.0124589
0.0313163
0.030223
0.00876782
0.00174923
0.000632439
0.000386243
0.000386264
0.000632522
0.0017496
0.00876851
0.0302228
0.0284275
0.00696528
0.00113246
0.000521188
0.000347068
0.000347077
0.000521219
0.00113265
0.00696576
0.0284274
0.0264953
0.00602625
0.000851119
0.000487892
0.000335254
0.000335257
0.0004879
0.000851185
0.00602651
0.0264953
0.0244927
0.00562383
0.000711048
0.000480709
0.000333569
0.000333569
0.000480708
0.000711046
0.00562393
0.0244927
0.123743
0.0525616
0.0232672
0.0146683
0.0110861
0.0110767
0.0146412
0.0232103
0.0524221
0.123697
0.076127
0.0230524
0.0134273
0.00928027
0.00690195
0.00689842
0.00926987
0.0134074
0.0230346
0.0761268
0.0553257
0.0178722
0.00772328
0.00480636
0.00338675
0.00338578
0.00480337
0.00771805
0.0178689
0.0553269
0.042491
0.0152193
0.00482726
0.00240528
0.00153417
0.001534
0.00240474
0.00482638
0.01522
0.0424914
0.0356118
0.0137076
0.00353827
0.00135368
0.000773449
0.000773462
0.00135374
0.00353858
0.0137089
0.0356118
1.40953
0.169476
0.0487556
0.0217992
0.0138437
0.0139608
0.0221698
0.0490402
0.158319
0.972866
0.279657
0.118102
0.0465311
0.0216646
0.0139717
0.0140371
0.0218712
0.0471214
0.121758
0.276769
0.23583
0.103788
0.0459799
0.0215123
0.0141003
0.0141233
0.0215786
0.0461242
0.104999
0.235263
0.197315
0.0923203
0.0453914
0.0213194
0.0142189
0.0142182
0.0213227
0.0453916
0.0923759
0.197096
0.156393
0.0870158
0.0416818
0.0201124
0.0138399
0.0138283
0.0200818
0.0416064
0.0867681
0.156303
21.1545
21.1586
21.1307
21.0685
20.9706
20.8364
20.6653
20.457
20.2111
19.926
9.6069
9.59642
9.5738
9.53862
9.4906
9.42961
9.35557
9.26839
9.16798
9.05417
7.62368
7.61006
7.58733
7.55551
7.51463
7.4647
7.40574
7.33778
7.26085
7.175
6.98407
6.96777
6.94363
6.91181
6.87243
6.82555
6.77124
6.70953
6.64047
6.56412
6.77991
6.76026
6.73375
6.70054
6.66078
6.61453
6.56184
6.50273
6.4372
6.36524
6.78471
6.76086
6.73109
6.69558
6.65445
6.60776
6.5555
6.49763
6.43406
6.3647
6.91435
6.88534
6.85149
6.81299
6.76993
6.72232
6.6701
6.61313
6.55124
6.48417
7.12928
7.09409
7.0554
7.01338
6.9681
6.91953
6.86752
6.81184
6.75216
6.68808
7.40702
7.36461
7.32038
7.2745
7.22701
7.17781
7.12667
7.07327
7.01712
6.95766
7.73233
7.68166
7.63131
7.58142
7.53199
7.48286
7.43373
7.38417
7.33358
7.28122
8.09296
8.03311
7.9762
7.92236
7.87153
7.82352
7.77794
7.73427
7.69182
7.64973
8.47783
8.40798
8.34427
8.28678
8.2354
8.18985
8.14969
8.11432
8.08301
8.05481
8.87606
8.79562
8.72512
8.66455
8.61371
8.57225
8.53966
8.5153
8.49837
8.48795
9.27652
9.18518
9.10821
9.04544
8.99655
8.96107
8.93842
8.92793
8.92883
8.94021
9.66759
9.56549
9.48277
9.41903
9.37377
9.34637
9.33618
9.3425
9.36461
9.40178
10.0369
9.92491
9.83773
9.77471
9.73505
9.718
9.72279
9.7487
9.79507
9.86129
10.3718
10.2515
10.1619
10.1018
10.0701
10.0658
10.0881
10.1361
10.2095
10.3077
10.6592
10.5336
10.4445
10.3902
10.3692
10.3801
10.4222
10.4945
10.5968
10.7291
10.8872
10.7606
10.676
10.6309
10.6235
10.6521
10.7158
10.8137
10.9458
11.1123
11.0459
10.9242
10.8489
10.817
10.8263
10.8749
10.9616
11.0856
11.2469
11.4462
11.1288
11.019
10.9587
10.9445
10.9738
11.0444
11.1551
11.3049
11.4939
11.7228
11.1344
11.0441
11.0048
11.0128
11.0652
11.1599
11.2952
11.4702
11.6846
11.9384
11.0662
11.0028
10.99
11.0245
11.1031
11.2237
11.3846
11.5847
11.8232
12.1002
10.9325
10.902
10.9205
10.9848
11.0921
11.2403
11.4277
11.6531
11.9156
12.2147
10.7449
10.7514
10.8043
10.9007
11.0384
11.2153
11.4299
11.681
11.9677
12.289
10.5165
10.5619
10.6504
10.7799
10.9485
11.1546
11.3968
11.6739
11.9849
12.3289
10.2601
10.3438
10.4675
10.6296
10.8288
11.0637
11.3333
11.6366
11.9725
12.3399
9.9865
10.1064
10.2633
10.4563
10.6846
10.9474
11.2438
11.573
11.9341
12.3259
9.70446
9.85682
10.0438
10.2651
10.5203
10.8091
11.131
11.4855
11.8718
12.289
9.42031
9.60066
9.81374
10.0598
10.3389
10.6512
10.9967
11.3751
11.7862
12.2291
9.13851
9.34187
9.57652
9.84318
10.1425
10.4751
10.8414
11.2417
11.6761
12.1443
8.86224
9.08339
9.33475
9.61752
9.93282
10.2817
10.6653
11.0843
11.5394
12.031
8.59394
8.82769
9.09079
9.38482
9.71138
10.0721
10.4685
10.902
11.374
11.8856
8.33589
8.57726
8.84716
9.14751
9.48031
9.84762
10.2515
10.6942
11.1777
11.704
8.09046
8.33475
8.60666
8.90838
9.24225
9.61074
10.0165
10.4621
10.9505
11.4846
7.86039
8.10344
8.373
8.67147
9.00143
9.36567
9.7672
10.2092
10.6952
11.2289
7.6491
7.88735
8.15078
8.44189
8.76341
9.11832
9.50991
9.94177
10.4178
10.9424
7.46048
7.69112
7.94535
8.22571
8.53495
8.87615
9.2527
9.6684
10.1275
10.6346
7.29881
7.51981
7.76262
8.02969
8.32374
8.64778
9.00521
9.39982
9.83592
10.3183
7.16856
7.37869
7.6087
7.86092
8.13789
8.44249
8.77797
9.14799
9.5567
10.0088
7.07417
7.273
7.48971
7.72645
7.98553
8.26963
8.58171
8.92517
9.3039
9.72232
7.01993
7.20775
7.41149
7.63303
7.87447
8.13815
8.42674
8.74328
9.09123
9.4746
7.0098
7.18758
7.3794
7.58689
7.81186
8.05633
8.32259
8.61325
8.93133
9.28029
7.04734
7.21664
7.39827
7.59361
7.80415
8.03156
8.27775
8.54488
8.83543
9.1523
7.13561
7.2985
7.47226
7.658
7.85691
8.07031
8.29967
8.54669
8.81331
9.10182
7.27701
7.43602
7.60476
7.78409
7.97487
8.17805
8.3947
8.62602
8.87341
9.13851
7.47318
7.63122
7.79826
7.97489
8.16168
8.3592
8.5681
8.78907
9.02295
9.27072
7.72477
7.88506
8.0541
8.23225
8.41978
8.61691
8.82385
9.04079
9.26795
9.50565
8.03117
8.19712
8.37216
8.55646
8.75001
8.95272
9.16435
9.38459
9.61304
9.84928
8.39024
8.5653
8.7505
8.94586
9.15117
9.36605
9.58989
9.82185
10.0609
10.3059
8.79793
8.98545
9.18495
9.39639
9.61947
9.8536
10.0979
10.3511
10.6115
10.8773
9.24808
9.45113
9.66881
9.90117
10.148
10.4086
10.6822
10.967
11.2612
11.5619
9.73254
9.95365
10.1928
10.4503
10.7263
11.0205
11.332
11.6596
12.0013
12.3539
10.2419
10.4827
10.7455
11.0312
11.3405
11.6738
12.0312
12.4121
12.8155
13.2389
10.7663
11.0271
11.3142
11.6291
11.9735
12.3489
12.7568
13.1987
13.6753
14.1869
11.2972
11.5769
11.8868
12.2293
12.6071
13.0232
13.4808
13.9841
14.5372
15.1449
11.8283
12.1243
12.4538
12.8199
13.2259
13.6762
14.1755
14.7305
15.3489
16.0403
12.3568
12.6659
13.011
13.3953
13.8227
14.2974
14.8252
15.4131
16.0706
16.8099
12.8839
13.2035
13.5607
13.9588
14.4012
14.8921
15.4359
16.0369
16.7028
17.4465
13.4149
13.743
14.1104
14.5198
14.974
15.4769
16.0325
16.6394
17.2828
17.9834
13.9579
14.2945
14.6713
15.0909
15.5558
16.0692
16.6359
17.2573
17.8423
18.3547
14.5215
14.8679
15.2561
15.6878
16.1634
16.6825
17.2413
17.8137
18.3106
18.5695
15.1144
15.4733
15.878
16.3301
16.8302
17.3771
17.9655
18.5274
18.8768
18.8384
15.7426
16.1161
16.5425
17.0251
17.5656
18.1633
18.8086
19.3023
19.3159
19.0796
16.4087
16.7956
17.2457
17.766
18.3632
19.043
19.8011
20.2589
20.0127
19.5856
17.1133
17.5055
17.9723
18.5252
19.1772
19.9428
20.8283
21.3577
20.9829
20.3505
17.86
18.2422
18.7082
19.273
19.9541
20.7744
21.7563
22.4749
22.0925
21.2542
18.6595
19.0118
19.4539
20.0014
20.6715
21.485
22.4602
23.3641
23.1949
22.2221
19.5306
19.8332
20.2311
20.7399
21.3747
22.1506
23.0758
24.0325
24.0973
23.1639
20.494
20.7269
21.0643
21.5239
22.1222
22.8752
23.7936
24.8206
24.9755
24.0585
21.5655
21.7037
21.9599
22.3562
22.9134
23.6538
24.5999
25.7392
26.0038
25.0663
22.7573
22.7656
22.9092
23.2142
23.7052
24.409
25.3574
26.5718
27.11
26.2447
24.0833
23.9156
23.9048
24.0802
24.4682
25.0939
25.9826
27.14
28.0111
27.5188
25.5627
25.1625
24.9483
24.9535
25.2085
25.7412
26.5808
27.7418
28.9056
28.862
27.2187
26.5176
26.0403
25.8238
25.9025
26.3089
27.0781
28.2399
29.6773
30.1713
29.0745
27.993
27.1813
26.6782
26.5194
26.7387
27.3744
28.468
29.9979
30.8935
31.1504
29.6
28.3743
27.5108
27.0427
26.9999
27.4153
28.3317
29.7681
30.8587
33.4679
31.3519
29.6268
28.328
27.4837
27.1154
27.2432
27.8933
29.0676
30.2007
36.0584
33.2657
30.9486
29.1403
27.8644
27.1338
26.9547
27.3344
28.257
29.3061
38.9651
35.362
32.3454
29.9482
28.1896
27.0742
26.5935
26.7346
27.4591
28.4298
42.2359
37.6561
33.8102
30.7306
28.4326
26.9113
26.143
26.0932
26.6991
27.6719
45.9106
40.1468
35.3136
31.4407
28.5357
26.5815
25.5375
25.3457
25.9207
27.002
50.0072
42.8029
36.7981
32.0077
28.4217
26.0042
24.693
24.4043
25.0296
26.3281
54.4731
45.5363
38.1661
32.3365
28.0023
25.0974
23.5312
23.1867
23.9177
25.4506
59.1188
48.1708
39.2683
32.3064
27.1804
23.783
21.9929
21.6574
22.5722
24.3642
63.6137
50.4487
39.9203
31.7936
25.8774
22.0144
20.0606
19.8459
21.1091
23.3427
67.4498
52.0352
39.9124
30.6792
24.0354
19.7683
17.7294
17.7758
19.6242
22.6095
70.1085
52.5801
39.038
28.8656
21.6317
17.0632
15.0285
15.4804
18.1852
22.311
70.8972
51.6993
37.1097
26.2983
18.7038
13.9946
12.0775
13.0783
16.8811
22.4859
69.2784
49.1321
34.0322
22.9992
15.363
10.7395
9.09597
10.8083
15.869
23.1599
65.2164
44.8471
29.8425
19.0841
11.7954
7.53398
6.34597
8.91322
15.22
24.1956
58.5446
38.8754
24.6841
14.7672
8.26056
4.6518
4.06068
7.44478
14.7783
25.4455
49.5835
31.556
18.9094
10.396
5.08462
2.37761
2.38665
6.1852
14.1583
26.654
38.991
23.5183
13.0776
6.42525
2.59933
0.921603
1.3265
4.89063
12.9825
27.1788
27.885
15.6804
7.89574
3.32335
1.01849
0.253795
0.709057
3.55395
11.3094
26.8917
17.5838
9.05182
4.01135
1.37035
0.285911
0.0604207
0.334901
2.19126
8.68018
24.347
9.43398
4.40954
1.70124
0.455305
0.0666759
0.0237297
0.145444
1.14322
5.68042
19.5412
4.2236
1.87759
0.6547
0.144666
0.0231587
0.0163953
0.0644227
0.499004
2.86065
11.5421
1.68924
0.821968
0.264129
0.053622
0.0153782
0.0145075
0.0346118
0.200296
1.11098
4.11698
0.827029
0.419955
0.108948
0.0268659
0.0139396
0.0140115
0.0246567
0.0866241
0.425598
1.05103
19.5732
19.1669
18.7134
18.2141
17.6706
17.0854
16.4615
15.8023
15.1117
14.3939
13.6551
12.9265
12.2351
11.5602
10.8956
10.2413
9.59986
8.97447
8.36821
7.78361
7.2225
6.68604
6.17472
5.68846
5.22671
4.78853
4.3727
3.97782
3.60234
3.24464
2.90296
2.57535
2.25935
1.95151
1.6464
1.33233
1.00818
0.702423
0.414616
0.255002
8.9187
8.76159
8.58896
8.40125
8.19905
7.98315
7.75451
7.51425
7.2638
7.00505
6.74135
6.47981
6.22421
5.97005
5.7149
5.45777
5.19866
4.93826
4.67765
4.41813
4.16106
3.90773
3.65929
3.41669
3.18069
2.9518
2.73032
2.51632
2.30971
2.11024
1.91753
1.73113
1.55059
1.3755
1.2058
1.04303
0.893214
0.773499
0.722243
1.10364
7.07441
6.95809
6.83145
6.69487
6.54887
6.39406
6.23118
6.06111
5.88488
5.70375
5.51929
5.3335
5.14773
4.9612
4.77319
4.58324
4.3912
4.19725
4.00182
3.80558
3.6093
3.41385
3.22009
3.02888
2.84095
2.65698
2.4775
2.30296
2.13369
1.96999
1.81212
1.66046
1.51558
1.37858
1.2516
1.13922
1.05184
1.01472
1.11521
2.13832
6.47534
6.37297
6.26201
6.14275
6.01559
5.88106
5.73976
5.59246
5.44
5.28331
5.12342
4.96136
4.7978
4.63262
4.4657
4.29695
4.12644
3.95438
3.78112
3.60717
3.43311
3.2596
3.08732
2.91697
2.74923
2.58471
2.42403
2.26773
2.11637
1.97051
1.83082
1.69819
1.57387
1.45991
1.35975
1.27985
1.23361
1.2551
1.47367
3.04746
6.28195
6.18607
6.08225
5.97064
5.85147
5.7251
5.59201
5.45282
5.30827
5.1592
5.0065
4.85105
4.69336
4.53366
4.37217
4.20913
4.04484
3.87967
3.71403
3.54842
3.38335
3.21937
3.05705
2.89698
2.73972
2.58585
2.43596
2.29063
2.1505
2.0163
1.88893
1.76958
1.65995
1.56269
1.48215
1.42626
1.41161
1.48161
1.80676
3.91009
6.28472
6.19268
6.09289
5.98526
5.86977
5.74652
5.6158
5.47804
5.33392
5.18428
5.0301
4.87241
4.71187
4.5491
4.38475
4.2194
4.05362
3.88794
3.72286
3.55887
3.39644
3.23602
3.07809
2.9231
2.77154
2.62391
2.48073
2.34259
2.21015
2.08422
1.96583
1.85635
1.75781
1.67327
1.60783
1.57085
1.58208
1.69397
2.11373
4.67989
6.4071
6.31839
6.22192
6.11722
6.00391
5.88168
5.75046
5.61042
5.4621
5.30644
5.14473
4.97824
4.80829
4.6362
4.46315
4.29014
4.11799
3.94731
3.77864
3.6124
3.44896
3.28868
3.13189
2.97894
2.83019
2.68606
2.547
2.41357
2.28643
2.1664
2.05459
1.95254
1.86246
1.78781
1.73435
1.71276
1.74576
1.89399
2.39687
5.36703
6.6148
6.53045
6.43829
6.33738
6.22673
6.10544
5.97275
5.8283
5.67223
5.5055
5.33
5.14799
4.96216
4.77502
4.58846
4.40377
4.22183
4.04322
3.86831
3.69738
3.53066
3.36831
3.21054
3.05756
2.90962
2.76703
2.6302
2.49961
2.37591
2.25994
2.15285
2.05628
1.97264
1.90572
1.86189
1.85303
1.9046
2.08456
2.66084
5.98678
6.89021
6.8127
6.7276
6.63331
6.52803
6.40983
6.27671
6.12693
5.95977
5.77643
5.57842
5.37108
5.16148
4.95375
4.74984
4.5507
4.35682
4.16843
3.98563
3.80844
3.63686
3.4709
3.3106
3.15603
3.00734
2.86475
2.72859
2.59931
2.47752
2.36407
2.26015
2.16748
2.08864
2.02772
1.99166
1.99344
2.06099
2.26879
2.90999
6.5496
7.22274
7.15604
7.08258
7.00003
6.90551
6.7954
6.66556
6.512
6.33152
6.12445
5.88437
5.63683
5.39629
5.1644
4.94112
4.72616
4.51922
4.32
4.1282
3.94358
3.76593
3.59508
3.43094
3.27345
3.12265
2.97871
2.84187
2.71254
2.59132
2.47906
2.37696
2.28685
2.21144
2.15511
2.1253
2.13601
2.21736
2.44972
3.14867
7.06783
7.60427
7.55356
7.49792
7.43434
7.3588
7.26632
7.15102
7.0041
6.80778
6.51146
6.21354
5.92858
5.65898
5.40354
5.16084
4.92963
4.70892
4.49795
4.29611
4.10293
3.918
3.74103
3.57177
3.41007
3.25589
3.1093
2.97051
2.8399
2.71801
2.60572
2.50426
2.41552
2.34236
2.2894
2.26457
2.28276
2.37611
2.63031
3.38122
7.55439
8.02695
7.99814
7.96751
7.93178
7.88719
7.82985
7.75378
7.57224
7.22821
6.88208
6.54894
6.23759
5.94522
5.66956
5.40885
5.16162
4.92671
4.70316
4.49024
4.28732
4.09389
3.90953
3.73389
3.56671
3.40787
3.2574
3.11544
2.98233
2.85861
2.74513
2.6432
2.55476
2.4828
2.43218
2.41126
2.4358
2.53977
2.81376
3.61235
8.02145
8.48258
8.48185
8.48356
8.48482
8.48308
8.47606
8.34714
7.99653
7.61156
7.24456
6.89538
6.56631
6.25584
5.96252
5.68503
5.42211
5.1727
4.93591
4.71098
4.49727
4.29419
4.10124
3.91799
3.74408
3.57935
3.42377
3.27745
3.1407
3.01405
2.89836
2.79496
2.70585
2.63417
2.58503
2.56723
2.59739
2.71142
3.00496
3.85202
8.49797
8.96236
8.99605
9.03758
9.08386
9.12969
9.13494
8.87259
8.43789
8.02776
7.63821
7.27053
6.92332
6.59509
6.28452
5.9904
5.71165
5.44731
5.19658
4.95881
4.73336
4.5196
4.31693
4.12485
3.943
3.77116
3.60926
3.45739
3.31585
3.18515
3.06619
2.96031
2.8696
2.79736
2.74893
2.7336
2.76895
2.89292
3.20667
4.10527
9.00028
9.45645
9.53133
9.62243
9.72978
9.85377
9.81438
9.38911
8.9205
8.48242
8.06977
7.68095
7.31388
6.96673
6.63804
6.32658
6.03128
5.75125
5.48583
5.23445
4.99638
4.77091
4.5574
4.35533
4.16432
3.98414
3.81471
3.65609
3.50858
3.37272
3.24939
3.14002
3.04676
2.97307
2.92456
2.91102
2.95098
3.08449
3.41831
4.36889
9.52202
9.9521
10.0718
10.2147
10.3802
10.5607
10.4592
9.94909
9.44941
8.98111
8.54228
8.1297
7.74067
7.37296
7.0248
6.69481
6.38194
6.08546
5.80469
5.53889
5.28726
5.04902
4.82352
4.61027
4.40888
4.21912
4.04091
3.87433
3.71967
3.57748
3.4487
3.33478
3.238
3.16195
3.11255
3.10008
3.14407
3.28674
3.64067
4.64462
10.0721
10.4381
10.6069
10.8062
11.0346
11.2712
11.1145
10.5537
10.0209
9.52242
9.05566
8.61735
8.20447
7.81449
7.44549
7.096
6.76488
6.45131
6.15442
5.87329
5.60704
5.35489
5.11622
4.89056
4.67753
4.47694
4.28869
4.1129
3.94987
3.80019
3.66482
3.54528
3.44397
3.36464
3.31352
3.30143
3.34894
3.50058
3.87508
4.93511
10.659
10.9018
11.124
11.3877
11.6958
12.0389
11.8419
11.2153
10.6401
10.1072
9.6104
9.14471
8.70636
8.29283
7.90196
7.53212
7.18203
6.85056
6.53657
6.23899
5.95694
5.68966
5.43657
5.19721
4.97126
4.75852
4.55895
4.37266
4.20001
4.0416
3.89847
3.77221
3.66532
3.58178
3.52813
3.51576
3.56638
3.72698
4.12293
5.24276
11.2896
11.3266
11.6001
11.9232
12.2999
12.7299
12.5731
11.905
11.2942
10.7297
10.2037
9.71093
9.24727
8.8097
8.39642
8.00563
7.63575
7.28529
6.95296
6.63765
6.3385
6.05478
5.78593
5.53153
5.29128
5.06502
4.85274
4.65461
4.47099
4.30258
4.15045
4.0163
3.90276
3.81404
3.75702
3.74375
3.79714
3.96686
4.38543
5.5694
11.9679
11.6995
12.0201
12.3975
12.8361
13.3359
13.2711
12.6044
11.9771
11.389
10.8371
10.3183
9.82944
9.36802
8.93202
8.51943
8.1286
7.75784
7.40581
7.07141
6.75378
6.45219
6.16614
5.89522
5.63917
5.39789
5.17142
4.95995
4.76393
4.58411
4.42164
4.27835
4.15703
4.0621
4.00086
3.98605
4.04193
4.22106
4.66372
5.91683
12.694
12.0102
12.3713
12.7975
13.304
13.9208
14.0468
13.3738
12.7196
12.1016
11.5203
10.9733
10.4578
9.97141
9.51181
9.07656
8.6636
8.27115
7.89798
7.54303
7.20539
6.88439
6.57952
6.29043
6.01693
5.75895
5.5166
5.29016
5.08013
4.88735
4.71309
4.55928
4.4289
4.32667
4.2603
4.2433
4.30137
4.49022
4.95855
6.28605
13.4739
12.2509
12.6349
13.0746
13.5718
14.1202
14.6278
14.2536
13.5335
12.8709
12.2546
11.6773
11.1344
10.6225
10.1384
9.6794
9.24333
8.82832
8.43292
8.05597
7.69665
7.3545
7.02901
6.71989
6.42704
6.15045
5.89033
5.64703
5.42117
5.21368
5.02596
4.86008
4.71925
4.60847
4.53595
4.51602
4.57593
4.77479
5.2703
6.67742
14.3125
12.4353
12.8404
13.2981
13.8122
14.3897
15.0453
15.0694
14.3546
13.6734
13.032
12.4287
11.8601
11.3231
10.8144
10.3313
9.87139
9.4328
9.01401
8.61387
8.23154
7.86645
7.51825
7.18698
6.87258
6.57517
6.29506
6.03274
5.78893
5.5647
5.3616
5.18189
5.02899
4.90826
4.82842
4.80469
4.86601
5.07511
5.59941
7.09184
15.206
12.571
12.9947
13.4655
13.9842
14.5505
15.1567
15.6772
15.2677
14.541
13.8659
13.234
12.6393
12.0772
11.5441
11.0367
10.5525
10.0895
9.64619
9.22134
8.81424
8.42441
8.05163
7.6959
7.35735
7.03651
6.73381
6.44989
6.18565
5.9423
5.72159
5.52597
5.35913
5.2268
5.13826
5.1097
5.17184
5.39132
5.94589
7.52916
16.1556
12.6667
13.1098
13.5965
14.1282
14.708
15.3436
16.0516
16.1501
15.4375
14.7447
14.0906
13.4732
12.8883
12.332
11.801
11.2926
10.8046
10.3357
9.88456
9.45073
9.03386
8.63392
8.25111
7.88583
7.53864
7.21023
6.90164
6.61399
6.3487
6.10771
5.89374
5.71076
5.56489
5.46603
5.43137
5.49356
5.72333
6.30944
7.98864
17.1626
12.7283
13.191
13.6926
14.2327
14.8106
15.4254
16.0714
16.6979
16.4333
15.6859
15.0034
14.3652
13.7608
13.1841
12.6311
12.0991
11.586
11.0904
10.6114
10.1486
9.70202
9.27185
8.85863
8.46305
8.086
7.72849
7.39175
7.07716
6.7865
6.52206
6.28681
6.08505
5.92334
5.81221
5.76994
5.83117
6.07099
6.68981
8.47012
18.2215
12.7624
13.2468
13.7666
14.32
14.905
15.5191
16.1581
16.8117
17.1252
16.6002
15.9486
15.3132
14.7
14.1084
13.5365
12.9823
12.4441
11.921
11.4122
10.9178
10.4382
9.97397
9.52616
9.0959
8.68449
8.29337
7.92411
7.5785
7.2586
6.96697
6.70696
6.48328
6.30299
6.17729
6.12555
6.18455
6.43392
7.08626
8.97224
19.3329
12.7735
13.283
13.8259
14.3996
15.0013
15.6279
16.2768
16.9469
17.6347
17.67
17.0083
16.3569
15.7299
15.1234
14.5336
13.9578
13.3943
12.842
12.3009
11.7714
11.2544
10.7512
10.2635
9.79297
9.34149
8.91108
8.50381
8.12192
7.76787
7.44461
7.15585
6.90668
6.70463
6.56164
6.49828
6.55351
6.81173
7.49833
9.49453
20.4944
12.7637
13.3018
13.8727
14.4733
15.0993
15.7458
16.4068
17.0745
17.7356
18.3233
18.1428
17.4878
16.8559
16.242
15.6395
15.0446
14.4558
13.8727
13.2959
12.7265
12.1664
11.6177
11.083
10.5649
10.066
9.58904
9.13681
8.71209
8.31785
7.95746
7.63503
7.35607
7.12861
6.96532
6.88799
6.93787
7.20448
7.92705
10.0417
21.7302
12.7324
13.3025
13.9069
14.542
15.203
15.8838
16.5768
17.2722
17.9575
18.611
19.0272
18.6867
18.088
17.4851
16.8794
16.2696
15.6559
15.0393
14.4217
13.8058
13.1945
12.5915
12.0003
11.4248
10.8688
10.3359
9.82989
9.35412
8.9122
8.50797
8.14596
7.8321
7.57489
7.38771
7.29356
7.33607
7.61003
8.36925
10.608
23.0222
12.6769
13.2815
13.9243
14.6017
15.3091
16.0402
16.7869
17.5394
18.2859
19.0132
19.6966
19.9338
19.4822
18.9029
18.2988
17.6751
17.0339
16.3783
15.712
15.0395
14.3655
13.6954
13.0346
12.3886
11.7626
11.1617
10.5905
10.0533
9.55447
9.09825
8.6896
8.33479
8.04276
7.8275
7.7131
7.74544
8.0243
8.81702
11.1708
24.2393
12.5922
13.232
13.9159
14.6413
15.4039
16.1982
17.0161
17.8479
18.681
19.5004
20.2871
20.9854
21.0674
20.5499
19.9515
19.3138
18.6409
17.9377
17.2106
16.4666
15.7131
14.9582
14.2096
13.4752
12.7621
12.0772
11.4263
10.8148
10.2476
9.72956
9.26595
8.86324
8.53064
8.28262
8.14425
8.1635
8.4451
9.27013
11.7406
25.49
12.4722
13.1451
13.8697
14.6448
15.4678
16.3342
17.2373
18.1678
19.1128
20.0559
20.9764
21.843
22.5184
22.4507
21.8931
21.2486
20.5414
19.7799
18.9748
18.1378
17.2808
16.4155
15.5537
14.7062
13.8832
13.0933
12.3442
11.6422
10.993
10.4016
9.87351
9.41511
9.03568
8.74993
8.58372
8.58697
8.86929
9.72567
12.314
26.7573
12.3106
13.0114
13.7727
14.5952
15.4786
16.4209
17.4179
18.4624
19.5435
20.6456
21.7468
22.8187
23.8117
24.4366
24.2021
23.5723
22.8278
21.9919
21.0829
20.1203
19.1235
18.1109
17.0997
16.1053
15.1415
14.2196
13.349
12.5369
11.7894
11.1116
10.5084
9.98594
9.55317
9.2247
9.02687
9.01132
9.29234
10.1787
12.8841
28.0204
12.1035
12.8239
13.6135
14.4756
15.413
16.4272
17.518
18.6828
19.9153
21.2048
22.5337
23.8765
25.1956
26.4073
26.9077
26.4301
25.6426
24.7012
23.6438
22.5032
21.3111
20.096
18.8834
17.6952
16.5498
15.4612
14.4404
13.4951
12.631
11.8524
11.1631
10.5683
10.076
9.70021
9.4674
9.43059
9.70845
10.623
13.4424
29.2523
11.8507
12.5794
13.3848
14.2732
15.2508
16.3232
17.4956
18.7716
20.1527
21.6369
23.217
24.8775
26.5917
28.3031
29.7859
29.9906
29.1874
28.0893
26.8055
25.4
23.9253
22.4254
20.9375
19.4917
18.1115
16.8135
15.609
14.5049
13.5049
12.6112
11.8257
11.1512
10.5941
10.1675
9.89722
9.8375
10.111
11.0527
13.9844
30.4609
11.5564
12.2802
13.0862
13.9831
14.9803
16.088
17.3165
18.6769
20.1797
21.835
23.6512
25.6327
27.7768
30.0659
32.411
34.0081
33.6445
32.385
30.7593
28.9461
27.0506
25.143
23.2764
21.4896
19.8097
18.2535
16.8298
15.5415
14.3883
13.3679
12.4783
11.7192
11.0944
10.6151
10.3065
10.2233
10.492
11.4599
14.5003
31.6162
11.2301
11.9354
12.7253
13.6106
14.6031
15.7165
16.9658
18.3682
19.943
21.712
23.6997
25.934
28.4453
31.2682
34.4264
37.7932
38.7229
37.5343
35.6628
33.2688
30.7564
28.2593
25.8711
23.64
21.5893
19.7277
18.0544
16.5635
15.2463
14.0935
13.0974
12.253
11.5609
11.0297
10.6837
10.578
10.8425
11.8372
14.9875
32.7569
10.8859
11.5601
12.3183
13.1721
14.1351
15.2229
16.4537
17.8485
19.4322
21.2343
23.2903
25.6436
28.3485
31.4743
35.1133
39.3477
43.1843
42.3211
40.5007
38.2479
34.9989
31.6802
28.6128
25.8299
23.3434
21.1431
19.2071
17.511
16.0325
14.7523
13.655
12.7307
11.9758
11.3968
11.0165
10.8904
11.1517
12.1712
15.4211
33.7673
10.5411
11.1742
11.8875
12.6931
13.6048
14.639
15.8148
17.1548
18.6855
20.4386
22.4523
24.7729
27.458
30.5807
34.239
38.563
43.6134
45.5657
42.7772
40.5151
38.0749
34.7841
31.1942
27.827
24.8941
22.3668
20.1892
18.3123
16.6951
15.3062
14.123
13.1303
12.3218
11.7018
11.2923
11.1492
11.4088
12.4521
15.794
34.6726
10.2144
10.7995
11.4588
12.2038
13.048
14.0074
15.1004
16.3491
17.779
19.4203
21.3083
23.4845
25.9976
28.9047
32.2739
36.1841
40.7134
43.988
42.6075
39.8981
37.6581
35.3508
32.4059
29.0764
25.9451
23.2254
20.8952
18.9007
17.19
15.7247
14.4782
13.4336
12.5834
11.9313
11.4991
11.3434
11.6031
12.6684
16.0915
35.4325
9.92443
10.458
11.0582
11.7356
12.5026
13.374
14.367
15.5016
16.8015
18.2939
20.0102
21.986
24.2618
26.8826
29.8974
33.3583
37.3155
40.8325
40.6241
38.3018
36.0151
33.9042
31.4927
28.7459
26.012
23.5162
21.2595
19.2488
17.5018
15.9949
14.7081
13.628
12.7483
12.0734
11.6254
11.4617
11.7237
12.8086
16.2998
36.0226
9.68811
10.1698
10.7097
11.3172
12.0033
12.7811
13.6659
14.6758
15.8318
17.1581
18.6825
20.4362
22.4542
24.7748
27.4392
30.4896
33.9636
37.4465
38.0592
36.1633
34.0474
32.1743
30.0957
27.6243
25.2368
23.1272
21.2507
19.4114
17.6592
16.1241
14.808
13.7028
12.8039
12.1154
11.6593
11.493
11.7593
12.8609
16.4043
36.4141
9.52049
9.95267
10.4343
10.9734
11.5794
12.2636
13.0393
13.9223
14.9309
16.0862
17.4124
18.9368
20.6893
22.7032
25.0146
27.6621
30.6849
33.9143
35.0054
33.5517
31.8062
30.2844
28.4069
26.1228
24.0224
22.1914
20.6154
19.234
17.6968
16.1079
14.7596
13.6377
12.7314
12.0412
11.5869
11.4252
11.6991
12.8141
16.3905
36.574
9.43446
9.82155
10.2494
10.7245
11.2548
11.8497
12.5205
13.2803
14.1448
15.132
16.2624
17.5585
19.0455
20.7506
22.7048
24.9432
27.5008
30.2758
31.4348
30.4468
29.1814
27.9738
26.249
24.2214
22.4098
20.8341
19.4746
18.3089
17.2338
15.8444
14.4981
13.39
12.5025
11.8314
11.3946
11.2479
11.534
12.6587
16.245
36.4637
9.44111
9.78921
10.1696
10.5873
11.0488
11.5616
12.1348
12.7794
13.5081
14.3357
15.2791
16.3557
17.5841
18.9879
20.5995
22.4627
24.6361
26.7595
27.3525
26.8701
26.109
25.1586
23.6109
21.9513
20.4812
19.1871
18.0538
17.0715
16.232
15.1942
13.957
12.9244
12.0973
11.4746
11.0752
10.9561
11.2597
12.3895
15.9578
36.0431
9.55008
9.86675
10.2076
10.5762
10.9774
11.417
11.9022
12.4416
13.0453
13.7255
14.4957
15.3643
16.3357
17.4361
18.6972
20.1477
21.8087
23.2362
23.5544
23.3249
22.8559
21.979
20.735
19.5296
18.419
17.4099
16.5017
15.6908
14.9663
14.17
13.1735
12.2627
11.5298
10.9802
10.6358
10.5549
10.8795
12.0072
15.5237
35.2759
9.7699
10.0642
10.3748
10.7041
11.055
11.4318
11.8396
12.285
12.7755
13.3211
13.9322
14.5931
15.3022
16.1126
17.0503
18.1266
19.3243
20.1289
20.2409
20.1466
19.7758
19.0121
18.1181
17.2513
16.4314
15.6666
14.962
14.3197
13.7084
13.0005
12.1951
11.4455
10.8326
10.3733
10.0948
10.0579
10.4031
11.5177
14.9414
34.1192
10.1082
10.3909
10.6828
10.9843
11.2969
11.6228
11.9651
12.3277
12.7147
13.1305
13.5719
13.9901
14.4338
14.9795
15.6536
16.4802
17.4637
17.7663
17.6704
17.4998
17.0966
16.4919
15.854
15.2318
14.6316
14.0569
13.5115
12.9871
12.4408
11.8166
11.1631
10.557
10.0608
9.69183
9.47983
9.48585
9.8465
10.9331
14.2171
32.544
10.5711
10.8555
11.1424
11.4304
11.719
12.0086
12.3002
12.5955
12.8934
13.1747
13.342
13.4544
13.6434
13.9341
14.3421
14.8909
15.1947
15.2859
15.1943
14.9687
14.6589
14.3014
13.9175
13.5045
13.0782
12.646
12.1996
11.7283
11.2185
10.6594
10.1211
9.64832
9.25885
8.97225
8.82038
8.86323
9.23071
10.2725
13.3695
30.5681
11.1628
11.4649
11.7635
12.0552
12.337
12.6076
12.8677
13.118
13.3352
13.3091
13.103
12.9664
12.9231
12.9669
13.0858
13.2265
13.2983
13.2406
13.116
12.9355
12.7123
12.4603
12.1903
11.8961
11.5775
11.2367
10.8697
10.4554
9.99435
9.54639
9.13188
8.76643
8.46497
8.24759
8.14593
8.21679
8.58116
9.5624
12.4329
28.2785
11.8849
12.225
12.5574
12.8751
13.1719
13.4434
13.6882
13.879
13.7289
13.2697
12.8618
12.5458
12.314
12.1543
12.043
11.9465
11.8404
11.7054
11.5436
11.3578
11.1524
10.9327
10.7013
10.4559
10.1902
9.89739
9.57663
9.23508
8.88374
8.54157
8.22267
7.93983
7.70767
7.54564
7.48323
7.57272
7.92473
8.8334
11.4521
25.8159
12.7359
13.1413
13.5385
13.9155
14.2592
14.5558
14.7764
14.5582
13.8564
13.2091
12.6607
12.2013
11.8197
11.5017
11.232
10.9967
10.7809
10.5715
10.3622
10.1501
9.93393
9.71341
9.48781
9.25488
9.01111
8.75386
8.48382
8.20613
7.92814
7.65888
7.40798
7.18649
7.00726
6.88756
6.85389
6.95347
7.28592
8.11518
10.473
23.3286
13.7062
14.2133
14.7212
15.2125
15.6629
16.0334
15.793
14.826
13.9334
13.163
12.4976
11.9225
11.4248
10.9931
10.6176
10.2871
9.99038
9.71737
9.46079
9.21546
8.97755
8.74427
8.51339
8.28288
8.05094
7.8166
7.58052
7.34525
7.11495
6.89517
6.69273
6.51602
6.37572
6.2868
6.27275
6.37576
6.68491
7.43578
9.54711
20.9779
14.7667
15.4189
16.1021
16.7983
17.4675
17.2987
16.0728
14.9458
13.967
13.1111
12.3595
11.6981
11.1158
10.6034
10.1513
9.75013
9.39063
9.06462
8.76516
8.48659
8.2243
7.97465
7.73477
7.50245
7.27611
7.05499
6.8393
6.63039
6.43069
6.24374
6.0743
5.92871
5.81567
5.74798
5.7463
5.84827
6.1337
6.81383
8.71119
18.8866
15.8542
16.688
17.616
18.6412
18.7679
17.4162
16.1211
14.9711
13.9509
13.0436
12.2352
11.5146
10.8732
10.3023
9.79372
9.33913
8.93085
8.56182
8.22572
7.91712
7.6314
7.36471
7.11395
6.87674
6.65132
6.43669
6.23257
6.03948
5.85877
5.6927
5.54464
5.41944
5.32417
5.26972
5.27419
5.37098
5.63137
6.24441
7.94501
16.9981
16.8655
17.8693
19.0427
19.707
18.651
17.3044
16.0537
14.9149
13.8844
12.9536
12.1138
11.3573
10.6771
10.0659
9.51654
9.02226
8.57652
8.17322
7.80682
7.47234
7.16544
6.88236
6.61999
6.37581
6.1479
5.93494
5.73621
5.55164
5.38184
5.22822
5.09314
4.98034
4.89559
4.84815
4.85379
4.94209
5.17657
5.72623
7.24776
15.3168
17.6967
18.7772
19.8929
19.726
18.4039
17.1215
15.9076
14.7935
13.7735
12.8413
11.9912
11.2177
10.5152
9.8781
9.3008
8.77779
8.30373
7.87352
7.48241
7.12601
6.80038
6.502
6.22785
5.9754
5.74259
5.52786
5.33019
5.14905
4.98453
4.8374
4.7093
4.60311
4.52354
4.47847
4.48166
4.5593
4.76807
5.25935
6.62191
13.8416
18.3373
19.4365
19.993
19.1565
17.9545
16.8009
15.6693
14.6104
13.6249
12.7116
11.8685
11.0928
10.3811
9.72956
9.13429
8.59114
8.09598
7.64476
7.23354
6.85858
6.51641
6.20384
5.91803
5.65651
5.41716
5.19829
4.99862
4.81733
4.65411
4.50927
4.3839
4.28016
4.20195
4.15599
4.15433
4.22025
4.40457
4.84361
6.06843
12.567
18.7011
19.2131
19.2389
18.5393
17.4745
16.4231
15.388
14.3979
13.4601
12.578
11.7531
10.9854
10.2736
9.61589
9.0099
8.45294
7.94208
7.47429
7.04647
6.65558
6.29864
5.97285
5.6756
5.40452
5.15752
4.93284
4.72904
4.54509
4.38038
4.23486
4.10919
4.00502
3.92553
3.87652
3.86863
3.9227
4.08465
4.47817
5.58597
11.4856
18.7072
18.7953
18.644
18.0136
17.051
16.0815
15.1243
14.1968
13.3067
12.4589
11.6567
10.902
10.1952
9.53623
8.92411
8.35747
7.83452
7.3532
6.91127
6.50632
6.13591
5.79763
5.48912
5.20818
4.95279
4.72114
4.51173
4.32334
4.15518
4.00692
3.87888
3.77229
3.6898
3.63645
3.62173
3.66451
3.80669
4.16157
5.17216
10.5814
18.6258
18.5236
18.1973
17.5681
16.7109
15.8089
14.9145
14.0388
13.1899
12.3731
11.5924
10.8509
10.1505
9.49198
8.87574
8.30146
7.76836
7.27528
6.82069
6.40284
6.01978
5.66947
5.34982
5.05881
4.79449
4.55509
4.33902
4.145
3.97205
3.81965
3.68785
3.57757
3.49103
3.43266
3.41107
3.44355
3.56878
3.89172
4.82333
9.83428
18.582
18.2562
17.8131
17.2237
16.4803
15.644
14.7934
13.9539
13.1339
12.3392
11.574
10.8418
10.1453
9.48602
8.8652
8.28334
7.74047
7.23612
6.76943
6.33916
5.9438
5.58164
5.25087
4.94959
4.67598
4.42826
4.20485
4.00438
3.82575
3.66829
3.53187
3.41713
3.32597
3.26238
3.23425