/*--------------------------------*- C++ -*----------------------------------*\
  =========                 |
  \\      /  F ield         | OpenFOAM: The Open Source CFD Toolbox
   \\    /   O peration     | Website:  https://openfoam.org
    \\  /    A nd           | Version:  8
     \\/     M anipulation  |
\*---------------------------------------------------------------------------*/
FoamFile
{
    version     2.0;
    format      ascii;
    class       volScalarField;
    location    "1.8";
    object      p;
}
// * * * * * * * * * * * * * * * * * * * * * * * * * * * * * * * * * * * * * //

dimensions      [1 -1 -2 0 0 0 0];

internalField   nonuniform List<scalar> 
9150
(
394.281
367.354
341.789
324.597
316.285
316.292
324.618
341.818
367.387
394.312
365.429
345.952
330.241
318.448
312.456
312.461
318.462
330.261
345.976
365.455
336.172
322.68
314.07
306.336
302.214
302.218
306.347
314.086
322.699
336.194
311.446
301.528
295.984
290.649
287.671
287.674
290.657
295.997
301.544
311.465
290.127
281.369
276.684
272.53
270.089
270.091
272.538
276.696
281.384
290.145
27.1036
22.7581
48.1241
62.6336
69.3207
69.4095
62.89
48.5153
23.2967
27.7916
197.485
173.19
167.873
166.746
166.869
166.919
166.888
168.091
173.465
197.757
302.296
270.651
254.657
244.832
240.162
240.191
244.913
254.777
270.791
302.425
382.879
340.469
312.515
295.226
286.732
286.75
295.274
312.583
340.543
382.944
432.517
380.464
341.851
319.849
309.718
309.729
319.88
341.893
380.508
432.553
-62.0286
-22.2475
-32.0088
-23.5294
-27.4613
-26.6367
-23.2371
-30.8084
-18.843
-53.0226
-52.8259
-33.4619
-52.3675
-44.3674
-47.3871
-46.7493
-44.1672
-49.591
-30.3802
-46.5491
-96.5444
-63.4301
-92.8285
-86.4945
-82.4888
-82.2614
-85.8986
-90.6817
-60.8822
-92.7534
-274.884
-148.91
-128.741
-110.681
-94.4889
-94.3114
-109.908
-127.233
-147.502
-271.922
-413.006
-179.113
-81.2371
-50.9064
-35.4011
-35.2594
-50.4363
-80.4995
-178.177
-410.993
1864.87
1864.26
1862.95
1860.96
1858.32
1855.06
1851.22
1846.83
1841.95
1836.61
1821.19
1820.59
1819.42
1817.67
1815.37
1812.55
1809.25
1805.51
1801.37
1796.92
1776.55
1776.04
1775.1
1773.71
1771.89
1769.67
1767.08
1764.16
1760.97
1757.55
1741.45
1740.94
1740.05
1738.81
1737.23
1735.35
1733.18
1730.77
1728.16
1725.37
1712.3
1711.68
1710.77
1709.59
1708.15
1706.47
1704.59
1702.52
1700.3
1697.96
1687.31
1686.56
1685.59
1684.42
1683.05
1681.51
1679.81
1677.97
1676.03
1674.01
1665.42
1664.52
1663.46
1662.27
1660.94
1659.49
1657.93
1656.28
1654.56
1652.78
1645.73
1644.67
1643.53
1642.31
1641.01
1639.65
1638.22
1636.75
1635.24
1633.72
1627.5
1626.31
1625.09
1623.87
1622.62
1621.37
1620.1
1618.83
1617.57
1616.35
1610.1
1608.83
1607.6
1606.4
1605.25
1604.13
1603.05
1602.02
1601.06
1600.18
1593.08
1591.79
1590.6
1589.48
1588.45
1587.49
1586.62
1585.83
1585.14
1584.54
1576.07
1574.86
1573.77
1572.79
1571.92
1571.17
1570.53
1570.01
1569.62
1569.32
1558.87
1557.81
1556.87
1556.07
1555.41
1554.89
1554.51
1554.28
1554.19
1554.22
1541.36
1540.48
1539.75
1539.16
1538.73
1538.46
1538.36
1538.43
1538.66
1539.16
1523.47
1522.81
1522.28
1521.91
1521.7
1521.66
1521.78
1522.07
1522.53
1523.4
1505.14
1504.7
1504.39
1504.24
1504.24
1504.4
1504.71
1505.16
1505.76
1506.81
1486.32
1486.12
1486.06
1486.14
1486.37
1486.75
1487.25
1487.88
1488.66
1489.86
1466.91
1467.01
1467.24
1467.6
1468.08
1468.68
1469.39
1470.2
1471.13
1472.41
1446.97
1447.41
1447.96
1448.6
1449.32
1450.11
1450.94
1451.78
1452.58
1453.44
1426.62
1427.48
1428.4
1429.41
1430.49
1431.65
1432.91
1434.26
1435.73
1437.46
1406
1407.25
1408.53
1409.85
1411.21
1412.62
1414.08
1415.61
1417.21
1418.98
1385.28
1386.89
1388.48
1390.08
1391.67
1393.27
1394.88
1396.49
1398.11
1399.76
1364.68
1366.58
1368.44
1370.26
1372.07
1373.88
1375.7
1377.55
1379.47
1381.51
1344.34
1346.42
1348.42
1350.36
1352.25
1354.1
1355.92
1357.72
1359.52
1361.33
1324.37
1326.51
1328.56
1330.53
1332.43
1334.28
1336.09
1337.87
1339.64
1341.43
1304.78
1306.86
1308.84
1310.74
1312.55
1314.29
1315.95
1317.54
1319.04
1320.47
1285.52
1287.46
1289.3
1291.07
1292.75
1294.37
1295.91
1297.37
1298.75
1300.06
1266.5
1268.23
1269.88
1271.47
1272.99
1274.46
1275.86
1277.21
1278.5
1279.75
1247.6
1249.08
1250.51
1251.89
1253.22
1254.51
1255.75
1256.95
1258.09
1259.18
1228.7
1229.93
1231.11
1232.28
1233.41
1234.53
1235.64
1236.72
1237.78
1238.83
1209.71
1210.68
1211.62
1212.56
1213.5
1214.44
1215.4
1216.37
1217.35
1218.36
1190.59
1191.29
1191.98
1192.69
1193.41
1194.17
1194.97
1195.81
1196.69
1197.64
1171.3
1171.72
1172.15
1172.61
1173.11
1173.66
1174.27
1174.95
1175.7
1176.53
1151.76
1151.92
1152.09
1152.29
1152.55
1152.86
1153.25
1153.72
1154.27
1154.92
1132
1131.9
1131.8
1131.74
1131.72
1131.76
1131.88
1132.08
1132.36
1132.74
1112.07
1111.7
1111.33
1110.98
1110.66
1110.4
1110.2
1110.06
1109.99
1110
1092
1091.38
1090.72
1090.07
1089.44
1088.84
1088.27
1087.74
1087.25
1086.81
1071.89
1071.01
1070.07
1069.11
1068.15
1067.18
1066.21
1065.25
1064.29
1063.35
1051.84
1050.7
1049.48
1048.21
1046.89
1045.55
1044.17
1042.76
1041.3
1039.82
1031.93
1030.54
1029.04
1027.46
1025.8
1024.08
1022.29
1020.43
1018.48
1016.47
1012.27
1010.64
1008.86
1006.97
1004.99
1002.91
1000.74
998.451
996.042
993.538
992.939
991.062
989.018
986.851
984.564
982.158
979.63
976.966
974.153
971.22
973.994
971.882
969.586
967.153
964.589
961.893
959.064
956.086
952.946
949.675
955.468
953.124
950.587
947.908
945.095
942.151
939.075
935.855
932.476
928.971
937.361
934.775
931.997
929.085
926.05
922.897
919.629
916.236
912.708
909.079
919.62
916.774
913.748
910.607
907.366
904.035
900.619
897.115
893.517
889.864
902.142
899.006
895.715
892.34
888.899
885.406
881.87
878.293
874.676
871.065
884.767
881.303
877.724
874.102
870.454
866.797
863.145
859.505
855.888
852.352
867.287
863.462
859.568
855.675
851.799
847.954
844.16
840.434
836.8
833.338
849.471
845.263
841.029
836.83
832.677
828.582
824.569
820.666
816.909
813.394
831.085
826.502
821.909
817.356
812.849
808.394
804.014
799.735
795.589
791.646
812.017
807.092
802.133
797.189
792.265
787.369
782.53
777.776
773.131
768.625
792.355
787.101
781.76
776.387
770.993
765.601
760.253
754.993
749.845
744.811
772.231
766.663
760.931
755.093
749.173
743.214
737.278
731.433
725.727
720.27
751.873
746.018
739.889
733.539
726.981
720.249
713.409
706.596
700.05
694.218
731.63
725.574
719.099
712.215
704.875
697.04
688.795
680.604
673.364
667.449
711.983
705.92
699.254
691.91
683.764
674.584
664.278
653.955
646.216
639.294
693.618
687.998
681.673
674.648
666.854
657.158
642.512
625.879
615.73
613.225
676.931
672.328
667.205
661.934
655.824
643.115
618.841
599.738
577.64
580.922
661.761
658.676
655.636
653.297
647.888
625.282
591.004
577.993
571.493
568.136
647.341
645.803
644.792
644.471
637.074
606.95
575.071
569.146
568.366
567.607
633.327
633.174
633.733
634.483
625.083
594.231
568.725
564.824
566.01
566.238
619.782
620.822
622.639
624.243
613.797
582.291
558.754
554.876
560.386
563.975
606.834
608.986
612.014
614.723
604.577
573.67
550.807
543.032
548.868
560.411
594.41
597.649
601.989
606.349
598.162
569.849
548.95
539.132
537.132
549.761
581.694
585.655
590.904
596.866
591.492
563.667
541.598
535.063
526.421
526.256
567.862
571.8
576.917
583.03
579.138
549.936
526.088
524.232
517.015
507.588
553.126
556.539
560.77
566.014
563.837
536.949
510.797
507.972
502.381
493.923
537.819
540.44
543.447
547.491
547.197
524.809
493.329
482.587
475.737
477.058
522.347
524.051
525.738
528.336
528.829
510.291
473.307
452.323
445.434
453.171
507.132
507.975
508.564
510.011
510.775
495.053
452.362
421.786
415.978
421.516
492.037
491.898
491.263
491.134
490.537
475.186
428.621
396.375
399.374
398.811
477.523
476.662
475.261
474.094
472.681
460.119
419.233
388.658
399.201
396.543
463.297
462.101
460.632
459.573
459.298
452.909
422.019
388.318
395.142
385.934
447.85
446.335
444.884
444.076
444.966
444.18
424.166
389.103
373.832
365.039
429.314
427.303
425.427
424.057
424.442
425.025
408.747
364.651
334.231
332.083
406.853
404.755
402.612
400.605
399.84
399.513
384.196
334.516
298.648
305.442
381.25
379.618
377.652
375.372
373.529
371.766
358.362
312.961
275.068
287.263
353.775
353.303
352.27
350.674
349.088
347.805
339.111
302.91
262.923
271.76
325.031
326.102
326.362
325.817
324.893
324.198
319.152
292.58
256.893
263.477
295.588
298.331
300.1
300.742
300.531
300.066
296.893
278.167
248.19
256.662
266.161
270.569
274.125
276.22
276.932
276.698
274.364
261.221
234.729
243.391
239.651
244.768
249.883
253.668
255.967
257.15
256.985
250.899
234.894
219.701
214.091
219.537
225.757
230.744
233.755
234.746
233.233
225.628
208.156
197.635
189.887
196.214
203.476
209.97
214.346
216.131
214.61
207.015
190.536
182.379
164.242
173.609
182.216
190.633
197.137
200.847
200.99
195.732
183.095
175.757
134.394
149.832
160.692
171.203
179.993
185.825
187.737
184.445
174.659
165.946
104.748
127.576
139.911
151.491
161.88
169.426
172.858
171.278
164.3
155.938
75.269
103.274
117.404
129.776
141.1
149.626
153.886
153.639
149.658
142.594
49.6538
78.8944
94.2503
106.864
118.297
126.918
131.244
131.945
131.182
127.452
30.9724
57.637
72.7428
84.843
95.8034
104.146
108.542
110.312
112.142
111.363
16.736
39.0032
53.2027
64.5101
74.7921
82.9626
88.3717
92.5311
97.6282
100.171
7.25802
23.492
35.8579
46.0685
55.1009
62.335
68.263
74.3462
82.9759
91.8217
0.916193
11.0224
21.6464
30.903
38.5534
44.3689
49.1867
52.7502
54.0986
49.0017
-3.76316
1.30966
10.8438
19.2006
25.6279
30.6317
35.5694
40.6211
44.4411
45.533
-7.01134
-5.94292
2.74929
9.15329
13.8769
17.4817
21.4004
26.2451
28.8348
28.756
-9.64046
-12.4345
-4.19786
-0.575611
2.86685
5.17104
7.57289
10.0965
8.52136
5.53132
-12.9707
-18.2023
-11.0184
-8.8761
-6.03034
-4.62402
-3.43079
-3.64015
-6.14981
-5.28045
-19.7577
-14.5073
-12.0598
-12.8065
-12.3135
-11.4486
-9.8451
-10.3727
-8.68457
-9.38822
-34.1071
-1.01609
-12.2776
-15.6025
-18.3706
-17.7125
-14.5106
-14.3288
-1.8504
-21.91
1830.52
1823.69
1816.59
1809.31
1801.98
1794.73
1787.67
1780.94
1774.66
1768.95
1763.91
1759.59
1755.91
1752.81
1750.28
1748.31
1746.88
1745.93
1745.42
1745.29
1745.49
1745.96
1746.65
1747.53
1748.55
1749.69
1750.91
1752.19
1753.51
1754.84
1756.16
1757.44
1758.67
1759.82
1760.92
1764.2
1764.85
1764.34
1764.46
1764.45
1791.9
1786.23
1780.39
1774.49
1768.63
1762.94
1757.51
1752.43
1747.8
1743.67
1740.07
1737.1
1734.83
1733.14
1731.97
1731.26
1730.95
1730.97
1731.26
1731.78
1732.47
1733.31
1734.24
1735.26
1736.33
1737.44
1738.57
1739.71
1740.82
1741.91
1742.93
1743.87
1744.69
1745.39
1746.15
1747.37
1747.84
1748.56
1749.05
1750.02
1753.71
1749.42
1745.06
1740.72
1736.51
1732.52
1728.82
1725.49
1722.59
1720.16
1718.22
1716.79
1715.83
1715.29
1715.12
1715.24
1715.61
1716.17
1716.88
1717.7
1718.6
1719.55
1720.53
1721.52
1722.51
1723.48
1724.41
1725.3
1726.13
1726.88
1727.53
1728.06
1728.45
1728.71
1728.91
1729.15
1729.37
1729.96
1735.28
1734.78
1722.25
1718.83
1715.41
1712.06
1708.86
1705.88
1703.2
1700.86
1698.91
1697.38
1696.28
1695.6
1695.33
1695.42
1695.8
1696.42
1697.22
1698.15
1699.16
1700.21
1701.28
1702.34
1703.37
1704.37
1705.31
1706.19
1707
1707.73
1708.37
1708.91
1709.34
1709.68
1709.92
1710.1
1710.33
1710.71
1711.48
1713.06
1715.95
1719.74
1695.36
1692.52
1689.7
1686.96
1684.37
1681.98
1679.84
1677.99
1676.49
1675.34
1674.59
1674.25
1674.31
1674.71
1675.41
1676.32
1677.39
1678.55
1679.76
1680.98
1682.18
1683.33
1684.42
1685.44
1686.38
1687.22
1687.96
1688.61
1689.15
1689.59
1689.94
1690.21
1690.43
1690.67
1691.01
1691.62
1692.77
1694.99
1698.57
1702.86
1671.77
1669.35
1666.93
1664.59
1662.35
1660.25
1658.32
1656.58
1655.06
1653.83
1652.96
1652.54
1652.6
1653.1
1653.97
1655.1
1656.39
1657.78
1659.19
1660.59
1661.95
1663.23
1664.42
1665.51
1666.49
1667.36
1668.11
1668.75
1669.28
1669.71
1670.07
1670.36
1670.65
1671
1671.5
1672.31
1673.72
1676.21
1680.02
1683.98
1650.85
1648.74
1646.65
1644.6
1642.58
1640.59
1638.61
1636.66
1634.82
1633.1
1631.47
1630.29
1629.9
1630.3
1631.3
1632.69
1634.29
1635.98
1637.68
1639.35
1640.93
1642.4
1643.76
1645
1646.11
1647.07
1647.89
1648.59
1649.18
1649.67
1650.09
1650.47
1650.86
1651.34
1652
1652.97
1654.52
1657.09
1660.81
1664.36
1632.08
1630.32
1628.59
1626.86
1625.12
1623.39
1621.79
1620.34
1618.55
1615.72
1611.27
1607.32
1605.67
1605.87
1607.11
1608.97
1611.1
1613.3
1615.45
1617.51
1619.42
1621.18
1622.81
1624.35
1625.57
1626.67
1627.62
1628.43
1629.12
1629.71
1630.23
1630.71
1631.21
1631.8
1632.55
1633.58
1635.12
1637.52
1640.84
1643.89
1615.09
1613.79
1612.58
1611.49
1610.73
1610.75
1611.47
1610.37
1603.1
1588.69
1576.76
1576.79
1575.69
1576.62
1579.7
1583.25
1586.65
1589.81
1592.71
1595.37
1597.79
1599.95
1602.08
1603.77
1605.13
1606.41
1607.52
1608.47
1609.28
1609.98
1610.61
1611.19
1611.77
1612.41
1613.18
1614.17
1615.55
1617.58
1620.3
1622.75
1599.34
1598.58
1598.06
1598.18
1599.66
1601.79
1597.88
1576.89
1546.61
1546.96
1557.44
1533.67
1529
1538.02
1548.03
1555.55
1561.27
1565.95
1569.91
1573.36
1576.31
1578.9
1581.18
1583.2
1584.95
1586.44
1587.71
1588.8
1589.74
1590.58
1591.28
1591.92
1592.54
1593.19
1593.91
1594.76
1595.88
1597.44
1599.45
1601.23
1583.99
1583.57
1583.74
1585.12
1585.47
1573.54
1540.86
1515.33
1515.98
1518.86
1509.86
1493.52
1498.21
1512.41
1524.22
1532.64
1539.03
1544.26
1548.66
1552.36
1555.47
1558.35
1560.93
1563.22
1565.22
1566.91
1568.32
1569.54
1570.63
1571.45
1572.2
1572.88
1573.51
1574.11
1574.72
1575.38
1576.17
1577.2
1578.46
1579.55
1569.12
1569.48
1571.14
1571.7
1557.27
1524.66
1502.66
1501.74
1502.39
1502.74
1493.98
1484.68
1490.07
1500.25
1508.7
1515.27
1520.65
1525.25
1529.23
1532.74
1535.75
1539.22
1541.56
1544.45
1546.29
1547.97
1549.46
1550.65
1551.68
1552.58
1553.35
1554.02
1554.61
1555.12
1555.59
1556.03
1556.46
1556.94
1557.48
1557.92
1554.65
1556.36
1558.25
1548.59
1518.39
1497.9
1495.25
1495.85
1497.05
1494.86
1482.41
1477.39
1482.93
1489.86
1495.67
1500.46
1504.42
1507.91
1511.33
1514.34
1517.73
1523.02
1525.01
1526
1527.93
1529.46
1530.81
1532
1533.03
1533.91
1534.66
1535.28
1535.78
1536.18
1536.48
1536.67
1536.76
1536.73
1536.59
1536.44
1540.55
1543.42
1541.95
1520.22
1494.32
1488.61
1489.69
1490.98
1491.07
1481.48
1470.53
1470.99
1476.09
1480.71
1484.32
1487.15
1489.08
1490.54
1494.79
1501.01
1504.15
1504.21
1506.18
1507.97
1509.69
1511.18
1512.46
1513.59
1514.55
1515.36
1516.03
1516.56
1516.96
1517.22
1517.33
1517.29
1517.05
1516.56
1515.82
1515.15
1525.39
1527.86
1520.6
1497.44
1484.8
1482.13
1483.15
1484.44
1480.4
1469
1464.43
1465.73
1468.38
1470.92
1471.62
1473.6
1478.77
1482.87
1485.25
1482.56
1484.64
1486.87
1488.76
1490.48
1491.98
1493.25
1494.36
1495.33
1496.15
1496.83
1497.38
1497.79
1498.06
1498.16
1498.09
1497.82
1497.29
1496.4
1495.17
1494.05
1508.81
1509.83
1499.5
1482.15
1476.22
1475.57
1476.47
1476.29
1466.28
1462.47
1458.69
1454.79
1456.22
1456.79
1459.23
1462.47
1465.05
1465.45
1465.82
1467.15
1469.19
1470.76
1472.13
1473.37
1474.49
1475.47
1476.34
1477.08
1477.72
1478.24
1478.64
1478.9
1479.02
1478.96
1478.72
1478.23
1477.45
1476.23
1474.61
1473.15
1491.87
1492.59
1483.58
1471.26
1466.71
1464.94
1466.48
1463.66
1453.51
1453.66
1442.02
1445.7
1446.37
1446.9
1447.85
1449
1449.47
1451.17
1452.46
1453.24
1454.02
1454.81
1455.59
1456.33
1457.03
1457.68
1458.25
1458.75
1459.17
1459.5
1459.72
1459.83
1459.79
1459.58
1459.16
1458.5
1457.51
1456.04
1454.13
1452.43
1474.33
1475.31
1468.7
1460.05
1456.54
1451.71
1447.22
1447.42
1446.46
1434.64
1435.23
1435.79
1436.13
1436.63
1436.15
1436.89
1437.76
1438.05
1438.07
1438.1
1438.24
1438.47
1438.76
1439.08
1439.4
1439.7
1439.98
1440.23
1440.42
1440.54
1440.59
1440.52
1440.33
1439.97
1439.41
1438.6
1437.44
1435.79
1433.69
1431.85
1454.54
1454.62
1447.2
1431.64
1443.5
1436.31
1437.45
1441.26
1437.8
1426.04
1426.32
1425.57
1425.26
1425.06
1424.82
1424.49
1423.9
1423.25
1422.67
1422.23
1421.92
1421.72
1421.59
1421.51
1421.47
1421.45
1421.44
1421.43
1421.39
1421.31
1421.17
1420.95
1420.61
1420.12
1419.44
1418.51
1417.24
1415.48
1413.28
1411.38
1439.91
1443.14
1442.69
1432.5
1425.44
1427.32
1407.18
1417.75
1420.52
1414.34
1416.58
1412.98
1413.12
1412.47
1411.33
1410.03
1408.78
1407.65
1406.68
1405.84
1405.13
1404.52
1404
1403.56
1403.18
1402.85
1402.56
1402.29
1402.02
1401.75
1401.44
1401.07
1400.6
1400.01
1399.24
1398.25
1396.94
1395.16
1393.02
1391.24
1421.23
1423.77
1423.7
1418.61
1426.58
1454.82
1427.69
1411.7
1411.67
1407.76
1413.3
1401.82
1400.06
1398.14
1396.34
1394.6
1392.98
1391.5
1390.15
1388.92
1387.82
1386.84
1385.96
1385.17
1384.47
1383.84
1383.28
1382.77
1382.29
1381.83
1381.36
1380.85
1380.28
1379.61
1378.79
1377.78
1376.49
1374.77
1372.73
1370.93
1401.47
1402.63
1402.58
1405.93
1424.7
1448.02
1418.35
1399.87
1394.89
1390.63
1392.08
1388.93
1386.18
1383.38
1380.96
1378.78
1376.75
1374.87
1373.12
1371.51
1370.03
1368.68
1367.45
1366.34
1365.33
1364.42
1363.6
1362.86
1362.18
1361.54
1360.92
1360.29
1359.63
1358.89
1358.04
1357.04
1355.79
1354.16
1352.17
1350.5
1383.85
1386.56
1389.7
1394.33
1401.4
1410.39
1426.34
1390.54
1376.83
1374.44
1374.67
1372.98
1370.21
1367.42
1364.81
1362.33
1359.96
1357.71
1355.59
1353.61
1351.76
1350.06
1348.49
1347.06
1345.76
1344.58
1343.52
1342.56
1341.68
1340.87
1340.11
1339.38
1338.64
1337.86
1337
1336.02
1334.85
1333.35
1331.54
1330.05
1363.31
1365.38
1367.09
1368.26
1372.51
1389
1407.91
1382.85
1369.19
1363.11
1360.06
1357.55
1354.59
1351.5
1348.5
1345.61
1342.84
1340.19
1337.67
1335.31
1333.09
1331.03
1329.13
1327.38
1325.79
1324.35
1323.05
1321.88
1320.82
1319.86
1318.97
1318.13
1317.32
1316.51
1315.66
1314.73
1313.66
1312.34
1310.81
1309.5
1343.39
1345.63
1347.98
1350.39
1353.99
1362.3
1375.26
1396.52
1362.56
1347.51
1341.98
1340.38
1338.04
1334.97
1331.72
1328.49
1325.33
1322.28
1319.37
1316.61
1314.02
1311.61
1309.37
1307.32
1305.44
1303.74
1302.21
1300.84
1299.6
1298.49
1297.49
1296.57
1295.7
1294.86
1294.03
1293.16
1292.2
1291.08
1289.88
1288.77
1321.9
1323.31
1324.39
1324.42
1322.77
1324.93
1345.9
1379.54
1363.1
1352.49
1340.52
1331.4
1325.44
1320.46
1315.92
1311.74
1307.84
1304.2
1300.78
1297.57
1294.58
1291.8
1289.23
1286.86
1284.71
1282.76
1281
1279.43
1278.03
1276.78
1275.67
1274.67
1273.76
1272.92
1272.11
1271.31
1270.49
1269.59
1268.59
1267.77
1301.37
1302.67
1303.81
1304.45
1303.85
1302.94
1309.68
1329.48
1355.93
1333.83
1317.79
1309.17
1305.36
1301.88
1297.82
1293.55
1289.36
1285.35
1281.53
1277.93
1274.58
1271.46
1268.58
1265.94
1263.53
1261.35
1259.39
1257.64
1256.09
1254.72
1253.51
1252.45
1251.5
1250.66
1249.88
1249.17
1248.48
1247.81
1247.14
1246.56
1281.05
1282.42
1283.84
1285.32
1286.6
1287.51
1292.21
1312.89
1341.4
1353.12
1316.22
1297.25
1287.94
1284.13
1280.1
1275.4
1270.63
1266.06
1261.73
1257.68
1253.92
1250.46
1247.29
1244.39
1241.77
1239.41
1237.29
1235.41
1233.74
1232.27
1230.99
1229.88
1228.92
1228.08
1227.35
1226.7
1226.13
1225.66
1225.32
1225.07
1260.29
1261.37
1262.33
1263.1
1263.39
1262.23
1259.36
1263.23
1290.4
1335.66
1325.15
1304.52
1282.82
1270.9
1264.06
1257.86
1251.86
1246.31
1241.24
1236.63
1232.43
1228.62
1225.18
1222.07
1219.28
1216.78
1214.57
1212.61
1210.89
1209.39
1208.09
1206.97
1206.02
1205.22
1204.55
1203.99
1203.52
1203.47
1203.33
1203.23
1239.94
1241.07
1242.15
1243.18
1244.1
1244.53
1243.59
1242.59
1252.57
1280.63
1308.04
1292.86
1272.63
1253.97
1244.13
1237.45
1231.02
1224.87
1219.28
1214.26
1209.75
1205.7
1202.07
1198.82
1195.93
1193.37
1191.12
1189.17
1187.47
1186
1184.75
1183.69
1182.81
1182.11
1181.56
1181.14
1180.84
1180.76
1180.75
1182.31
1219.46
1220.65
1221.85
1223.08
1224.35
1225.64
1226.53
1226.31
1227.95
1245.89
1278.61
1294.66
1268.1
1240.11
1222.4
1214.34
1207.98
1201.6
1195.63
1190.33
1185.65
1181.5
1177.82
1174.55
1171.66
1169.13
1166.93
1165.04
1163.42
1162.07
1160.94
1160.03
1159.31
1158.79
1158.46
1158.31
1158.35
1158.59
1159.02
1161.98
1198.7
1199.89
1201.16
1202.5
1203.94
1205.54
1207.21
1208.29
1208.45
1214.62
1245.36
1280.75
1286.78
1241.83
1207.56
1189.14
1181.87
1175.95
1169.99
1164.57
1159.88
1155.81
1152.26
1149.14
1146.4
1144.01
1141.96
1140.22
1138.77
1137.59
1136.65
1135.94
1135.44
1135.16
1135.07
1135.19
1135.52
1136.1
1136.79
1139.52
1177.51
1178.63
1179.87
1181.23
1182.71
1184.36
1186.21
1187.99
1188.84
1189.55
1201.02
1236.19
1277.63
1263.24
1218.97
1173.19
1154.38
1147.61
1142.12
1136.85
1132.3
1128.48
1125.23
1122.43
1120
1117.91
1116.14
1114.67
1113.48
1112.56
1111.89
1111.44
1111.22
1111.21
1111.4
1111.8
1112.4
1113.25
1114.18
1116.72
1155.72
1156.68
1157.78
1159.03
1160.44
1162.08
1164.01
1166.32
1168.65
1170.18
1173.58
1195.48
1237.12
1259.78
1229.8
1169.9
1125.19
1112.47
1109.24
1105.91
1102.36
1099.27
1096.66
1094.41
1092.45
1090.79
1089.42
1088.34
1087.53
1086.97
1086.65
1086.55
1086.67
1086.99
1087.51
1088.22
1089.12
1090.24
1091.39
1093.77
1133.25
1133.93
1134.73
1135.68
1136.79
1138.12
1139.75
1141.82
1144.36
1146.87
1148.89
1156.38
1189.82
1230.17
1233.6
1175.77
1104.38
1072.08
1070.93
1072.16
1070.74
1068.64
1066.82
1065.28
1063.94
1062.81
1061.92
1061.29
1060.93
1060.82
1060.94
1061.27
1061.81
1062.54
1063.45
1064.54
1065.82
1067.27
1068.78
1070.83
1110.12
1110.37
1110.71
1111.15
1111.7
1112.43
1113.38
1114.67
1116.42
1118.57
1120.51
1122.69
1134.16
1173.38
1197.23
1166.11
1083.9
1029.96
1026.33
1037.39
1041.37
1040.05
1037.87
1036.11
1034.93
1034.19
1033.77
1033.64
1033.77
1034.17
1034.8
1035.64
1036.68
1037.88
1039.25
1040.78
1042.47
1044.32
1046.22
1048.19
1086.44
1086.14
1085.87
1085.63
1085.43
1085.28
1085.23
1085.31
1085.57
1086.01
1086.56
1086.55
1085.95
1089.86
1098.88
1088.34
1030.81
973.158
955.57
976.499
999.917
1009.87
1011.39
1009.31
1006.92
1005.56
1005.14
1005.38
1006.05
1007.02
1008.24
1009.67
1011.28
1013.04
1014.93
1016.94
1019.09
1021.35
1023.56
1026.06
1062.41
1061.49
1060.53
1059.52
1058.46
1057.36
1056.24
1055.11
1053.95
1052.77
1051.81
1051.75
1050.93
1036.19
1001.76
968.266
943.905
913.41
888.628
886.211
901.912
927.958
953.825
969.779
975.598
976.394
975.911
976.262
977.468
979.18
981.165
983.321
985.607
987.99
990.44
992.939
995.492
998.062
1000.45
1003.01
1038.3
1036.7
1035.01
1033.19
1031.24
1029.14
1026.91
1024.55
1022.02
1019.3
1016.64
1015.21
1014.87
1002.22
950.608
895.78
877.515
862.093
852.961
847.917
845.424
849.283
862.526
885.965
913.429
934.126
943.241
945.998
947.916
950.5
953.502
956.628
959.77
962.902
966.009
969.077
972.11
975.074
977.683
979.345
1014.35
1012.09
1009.67
1007.04
1004.19
1001.1
997.74
994.101
990.133
985.78
981.155
977.061
974.384
966.212
927.669
870.468
847.143
840.676
837.923
836.46
835.819
835.688
836.159
839.202
848.032
868.655
894.423
910.626
917.229
921.251
925.424
929.725
933.92
937.945
941.809
945.53
949.129
952.607
955.679
957.681
990.863
987.973
984.878
981.51
977.837
973.821
969.413
964.561
959.189
953.204
946.56
939.527
932.64
923.156
897.135
855.511
836.833
834.841
833.836
833.282
832.995
832.911
833.016
833.204
833.597
835.541
845.473
866.143
883.264
891.87
897.633
903.126
908.421
913.406
918.092
922.528
926.781
930.894
934.576
937.032
968.07
964.647
960.982
956.994
952.641
947.866
942.594
936.743
930.214
922.889
914.643
905.432
895.249
883.025
864.755
842.607
833.49
832.999
832.475
832.247
832.138
832.132
832.19
832.068
831.546
831.106
831.93
836.852
849.538
862.282
870.67
877.467
883.785
889.652
895.113
900.259
905.206
910.061
914.51
917.543
946.156
942.331
938.244
933.812
928.982
923.684
917.824
911.296
903.974
895.705
886.301
875.521
862.988
848.445
834.85
829.889
831.678
831.827
831.55
831.44
831.424
831.486
831.622
831.542
830.945
830.163
830.745
831.667
834.3
838.536
845.27
852.839
860.229
866.948
873.082
878.858
884.486
890.154
895.529
899.283
925.213
921.143
916.823
912.166
907.118
901.599
895.503
888.705
881.061
872.392
862.379
850.395
835.773
819.455
809.658
818.757
830.044
830.569
830.528
830.513
830.538
830.601
830.801
830.89
830.588
829.676
829.182
830.117
830.415
830.718
828.217
830.819
837.94
845.472
852.203
858.456
864.668
871.164
877.595
882.219
905.22
901.084
896.743
892.121
887.17
881.815
875.948
869.458
862.345
854.664
845.484
831.701
812.345
793.797
787.797
808.989
828.31
829.038
829.406
829.539
829.609
829.659
829.807
830.063
829.921
829.149
828.589
828.733
829.573
830.511
824.473
815.865
817.769
825.29
832.579
839.15
845.763
853.013
860.561
866.165
886.035
882.006
877.867
873.559
869.06
864.307
859.188
853.704
848.578
844.904
837.986
815.066
783.684
763.229
764.664
801.68
828.164
828.363
828.599
828.764
828.885
828.973
828.969
829.215
829.17
828.671
828.249
828.238
828.983
828.743
827.618
811.209
801.877
806.606
814.171
820.931
827.713
835.535
844.134
850.743
867.356
863.551
859.75
855.9
851.963
847.817
843.176
837.891
833.47
833.775
830.689
816.26
752.321
728.638
743.342
801.672
827.678
828.011
828.083
828.142
828.208
828.385
828.525
828.725
828.643
828.394
828.279
828.368
828.498
828.403
828.252
813.105
792.96
791.493
797.818
804.079
810.54
818.542
827.917
835.401
848.817
845.329
841.995
838.768
835.61
832.456
829.037
824.375
818.392
816.89
817.751
800.695
719.041
696.675
732.848
806.944
827.041
827.498
827.524
827.544
827.556
827.587
828.164
828.456
828.359
828.333
828.374
828.4
828.412
828.343
828.077
812.288
786.036
779.548
783.587
788.498
794.084
801.768
811.42
819.435
830.015
826.952
824.318
822.192
820.917
821.352
823.612
821.884
805.497
772.609
778.05
753.338
691.3
673.173
734.338
811.893
825.315
826.657
827.081
827.239
827.301
827.361
827.713
828.138
828.164
828.187
828.27
828.337
828.364
828.264
827.913
805.395
777.071
769.249
770.907
773.854
778.122
784.953
794.176
802.145
810.117
807.266
805.094
803.993
805.224
810.29
814.09
800.166
763.249
735.054
718.113
681.217
644.747
663.567
735.373
812.026
818.33
823.687
826.574
827.496
827.746
827.916
828.181
828.421
828.558
828.555
828.499
828.435
828.295
827.693
814.58
783.308
763.611
758.669
758.325
759.377
762.267
767.835
775.858
783.071
787.806
784.134
780.87
778.582
778.157
776.597
759.784
734.822
721.839
705.157
668.755
627.873
621.374
645.56
695.07
759.1
806.364
817.763
822.128
825.313
827.11
827.625
827.874
827.954
827.963
827.922
827.743
827.373
823.745
807.292
779.863
758.485
749.684
746.282
744.68
744.547
746.261
750.288
756.45
762.237
764.024
759.37
755.208
751.989
747.208
729.513
703.162
693.558
691.176
677.92
634.559
618.417
624.439
642.031
669.609
706.256
766.645
788.216
789.845
796.992
805.931
812.579
817.002
819.366
819.678
817.791
812.145
799.016
777.712
756.695
743.689
737.571
734.026
731.403
729.701
729.143
729.915
732.296
736.223
740.159
739.694
734.976
731.442
726.493
709.225
677.186
662.282
665.152
664.046
634.258
618.34
615.669
632.838
647.072
660.97
695.234
719.605
727.481
731.312
736.693
742.014
746.243
750.823
754.95
755.171
749.412
738.894
728.875
722.964
721.03
720.505
719.349
717.507
715.654
714.223
713.392
713.273
714.018
715.654
717.639
715.252
711.437
706.074
686.898
649.958
626.802
631.25
633.429
617.802
595.296
606.242
612.068
630.679
632.568
651.571
670.937
684.077
692.722
698.934
703.411
705.942
706.681
706.522
706.007
705.141
704.094
703.451
703.836
704.831
705.315
704.757
703.434
701.806
700.181
698.705
697.443
696.427
695.662
695.213
695.392
689.115
681.477
659.174
623.283
602.941
604.722
605.085
596.491
581.737
588.112
593.852
613.102
608.681
621.636
635.922
648.642
659.148
667.678
674.461
679.682
683.412
685.756
687.083
687.839
688.354
688.833
689.348
689.771
689.842
689.414
688.549
687.383
686.02
684.52
682.917
681.227
679.404
677.327
675.094
673.737
659.48
637.83
606.091
589.772
590.706
591.677
588.899
573.863
578.039
577.12
600.229
596.366
602.155
611.321
621.589
631.124
639.604
646.945
653.135
658.24
662.33
665.498
667.893
669.681
670.998
671.942
672.578
672.927
672.976
672.716
672.149
671.28
670.113
668.65
666.885
664.794
662.272
659.104
655.429
652.749
622.299
596.152
584.817
583.692
584.304
584.929
578.559
560.16
566.4
571.177
590.229
585.164
591.686
599.803
607.998
615.65
622.625
628.862
634.334
639.048
643.031
646.333
649.024
651.185
652.889
654.198
655.161
655.805
656.136
656.144
655.811
655.117
654.039
652.548
650.605
648.156
645.05
641.008
636.215
632.496
588.006
577.483
577.341
578.713
579.259
579.083
568.629
550.551
552.014
561.546
570.701
576.649
582.752
589.172
595.544
601.618
607.284
612.482
617.181
621.369
625.047
628.233
630.954
633.244
635.14
636.675
637.873
638.742
639.281
639.472
639.289
638.701
637.663
636.125
634.027
631.294
627.742
623.049
617.431
613.083
567.916
571.146
573.256
574.33
574.625
573.817
561.179
544.938
546.026
554.83
562.208
567.74
572.921
578.116
583.215
588.097
592.701
596.99
600.945
604.559
607.829
610.758
613.35
615.612
617.553
619.182
620.5
621.501
622.171
622.483
622.402
621.884
620.871
619.298
617.092
614.16
610.301
605.165
598.985
594.059
565.958
566.94
569.598
570.783
570.776
569.409
556.905
542.194
542.441
548.735
554.203
558.669
562.854
566.963
570.966
574.808
578.461
581.909
585.145
588.166
590.969
593.551
595.903
598.019
599.889
601.504
602.847
603.902
604.64
605.026
605.015
604.551
603.567
601.985
599.72
596.661
592.592
587.169
580.671
575.325
566.685
566.404
566.237
566.967
566.916
565.76
554.866
540.408
538.638
542.863
546.689
549.833
552.813
555.767
558.676
561.507
564.244
566.876
569.398
571.81
574.107
576.282
578.322
580.21
581.928
583.452
584.756
585.811
586.577
587.009
587.053
586.641
585.699
584.139
581.862
578.74
574.619
569.037
562.339
556.786
566.058
565.374
564.898
565.042
565.051
564.198
554.596
539.281
534.453
536.726
539.055
540.829
542.525
544.286
546.098
547.928
549.762
551.59
553.404
555.203
556.979
558.721
560.414
562.034
563.554
564.945
566.17
567.19
567.958
568.417
568.502
568.14
567.247
565.727
563.478
560.369
556.281
550.67
543.87
538.282
564.992
564.823
564.649
564.67
564.622
563.942
556.706
540.261
530.305
530.045
530.945
531.375
531.75
532.293
533.003
533.844
534.795
535.842
536.973
538.181
539.452
540.771
542.116
543.459
544.768
546.006
547.129
548.09
548.836
549.301
549.415
549.095
548.251
546.783
544.588
541.552
537.448
531.917
525.245
519.688
564.197
564.67
564.519
564.504
564.569
564.292
560.49
543.727
526.822
522.424
521.912
521.139
520.225
519.552
519.177
519.062
519.173
519.488
519.988
520.653
521.464
522.398
523.425
524.51
525.615
526.697
527.708
528.595
529.3
529.753
529.88
529.595
528.803