/*--------------------------------*- C++ -*----------------------------------*\
  =========                 |
  \\      /  F ield         | OpenFOAM: The Open Source CFD Toolbox
   \\    /   O peration     | Website:  https://openfoam.org
    \\  /    A nd           | Version:  8
     \\/     M anipulation  |
\*---------------------------------------------------------------------------*/
FoamFile
{
    version     2.0;
    format      ascii;
    class       volVectorField;
    location    "1.8";
    object      U;
}
// * * * * * * * * * * * * * * * * * * * * * * * * * * * * * * * * * * * * * //

dimensions      [0 1 -1 0 0 0 0];

internalField   nonuniform List<vector> 
9150
(
(0.0535304 -0.429099 0)
(0.0878253 -0.622528 0)
(0.073299 -0.631579 0)
(0.0486399 -0.643812 0)
(0.017038 -0.654533 0)
(-0.0170945 -0.654525 0)
(-0.0486861 -0.643791 0)
(-0.0733314 -0.631556 0)
(-0.0878412 -0.622504 0)
(-0.0535348 -0.429064 0)
(0.0404 -0.522541 0)
(0.0572011 -0.625793 0)
(0.042223 -0.613264 0)
(0.029379 -0.622495 0)
(0.0104949 -0.628925 0)
(-0.0105343 -0.628921 0)
(-0.0294124 -0.622484 0)
(-0.0422484 -0.613252 0)
(-0.0572173 -0.625784 0)
(-0.0404059 -0.522517 0)
(0.0249714 -0.557862 0)
(0.0323695 -0.613963 0)
(0.0231201 -0.604501 0)
(0.017239 -0.610002 0)
(0.00624766 -0.613229 0)
(-0.00627328 -0.613228 0)
(-0.017261 -0.609998 0)
(-0.023137 -0.604495 0)
(-0.0323821 -0.613961 0)
(-0.0249771 -0.557849 0)
(0.015155 -0.584634 0)
(0.0173687 -0.607561 0)
(0.011801 -0.601149 0)
(0.00885363 -0.603279 0)
(0.00324069 -0.604415 0)
(-0.00325454 -0.604415 0)
(-0.00886572 -0.603277 0)
(-0.0118103 -0.601147 0)
(-0.0173763 -0.607561 0)
(-0.0151589 -0.584628 0)
(0.00618069 -0.59713 0)
(0.00551597 -0.601435 0)
(0.00361609 -0.600042 0)
(0.00267218 -0.600346 0)
(0.000991151 -0.600487 0)
(-0.000995053 -0.600486 0)
(-0.00267567 -0.600346 0)
(-0.00361889 -0.600042 0)
(-0.00551849 -0.601435 0)
(-0.00618205 -0.597129 0)
(0.468123 -1.16039 1.78823e-24)
(0.28277 -1.08649 0)
(0.162723 -1.06952 0)
(0.0915153 -1.0577 0)
(0.0300178 -1.05305 0)
(-0.0305991 -1.05296 0)
(-0.0920338 -1.05745 0)
(-0.163141 -1.06912 0)
(-0.283045 -1.08597 0)
(-0.467989 -1.1597 -1.7797e-24)
(0.333756 -0.844119 5.01481e-25)
(0.287584 -0.936986 0)
(0.188405 -0.937019 0)
(0.107876 -0.936878 0)
(0.0355583 -0.939215 0)
(-0.0358865 -0.939154 0)
(-0.108158 -0.936709 0)
(-0.188609 -0.936778 0)
(-0.287652 -0.93669 0)
(-0.333668 -0.843767 -4.9966e-25)
(0.278014 -0.70177 7.57238e-26)
(0.259103 -0.804844 0)
(0.178362 -0.817606 0)
(0.104409 -0.828441 0)
(0.0347434 -0.836565 0)
(-0.0349418 -0.836528 0)
(-0.104575 -0.82834 0)
(-0.17847 -0.817465 0)
(-0.259133 -0.804689 0)
(-0.277976 -0.701607 -7.51635e-26)
(0.198512 -0.553747 3.33985e-25)
(0.216296 -0.709634 0)
(0.154524 -0.726006 0)
(0.0912514 -0.742123 0)
(0.0304856 -0.75404 0)
(-0.03061 -0.754017 0)
(-0.0913535 -0.742062 0)
(-0.154589 -0.725927 0)
(-0.216314 -0.709551 0)
(-0.198495 -0.553656 -3.34135e-25)
(0.117468 -0.445738 -5.20003e-25)
(0.155662 -0.644589 -7.3941e-25)
(0.116857 -0.663938 -2.52608e-25)
(0.0708938 -0.681314 -1.65329e-25)
(0.0239417 -0.694311 -9.46865e-27)
(-0.0240241 -0.694297 -9.57567e-27)
(-0.0709609 -0.681277 -1.65597e-25)
(-0.116901 -0.663894 -2.52712e-25)
(-0.155677 -0.644544 -7.39467e-25)
(-0.117465 -0.445686 -5.19955e-25)
(0.0211982 -0.931921 0)
(-0.0405114 -1.33982 0)
(0.0204979 -1.27009 0)
(-0.0052987 -1.22646 0)
(0.000597427 -1.22471 0)
(-0.00422075 -1.22416 0)
(-0.000392256 -1.22675 0)
(-0.0260264 -1.27291 0)
(0.0316945 -1.33843 0)
(-0.028163 -0.903188 0)
(0.0503994 -0.912386 0)
(-0.0249972 -1.33392 0)
(0.0201316 -1.27087 0)
(-0.000138129 -1.2254 0)
(-0.00123528 -1.22332 0)
(-0.00169841 -1.22281 0)
(-0.00440973 -1.22546 0)
(-0.0239052 -1.2712 0)
(0.0193725 -1.33196 0)
(-0.0530256 -0.900275 0)
(0.079322 -0.949111 0)
(-0.0244705 -1.3486 0)
(0.0134524 -1.27603 0)
(0.0057287 -1.23251 0)
(-0.00121586 -1.22703 0)
(-0.00113255 -1.22677 0)
(-0.00859649 -1.23226 0)
(-0.0155484 -1.27532 0)
(0.0210538 -1.34712 0)
(-0.0808418 -0.941352 0)
(0.147671 -1.08141 0)
(0.00435962 -1.36705 0)
(0.0123193 -1.27163 0)
(0.0211358 -1.2265 0)
(0.0054356 -1.21482 0)
(-0.00715006 -1.21467 0)
(-0.0227538 -1.22601 0)
(-0.0134271 -1.27097 0)
(-0.00658468 -1.36615 0)
(-0.148485 -1.07756 0)
(0.301147 -1.2173 0)
(0.130128 -1.32232 0)
(0.0678891 -1.21044 0)
(0.0553616 -1.16889 0)
(0.0196525 -1.15655 0)
(-0.0206624 -1.15642 0)
(-0.0562167 -1.16846 0)
(-0.0687142 -1.20985 0)
(-0.13118 -1.32167 0)
(-0.301234 -1.21553 0)
(0.0277347 -0.0281096 0)
(0.0466856 -0.0277839 0)
(0.065518 -0.0274124 0)
(0.0841595 -0.026987 0)
(0.102553 -0.0264966 0)
(0.120645 -0.0259383 0)
(0.138376 -0.0253092 0)
(0.155681 -0.0246059 0)
(0.172495 -0.023828 0)
(0.188745 -0.0229872 0)
(0.0290978 -0.0564586 0)
(0.0453512 -0.0561523 0)
(0.0615117 -0.0556657 0)
(0.0775268 -0.0550022 0)
(0.0933351 -0.0541593 0)
(0.108874 -0.0531314 0)
(0.12408 -0.0519103 0)
(0.138886 -0.0504858 0)
(0.153221 -0.0488458 0)
(0.167017 -0.0469766 0)
(0.0296322 -0.0853418 0)
(0.0437253 -0.084997 0)
(0.0577537 -0.0843546 0)
(0.0716645 -0.0834175 0)
(0.0853996 -0.0821827 0)
(0.0988996 -0.0806419 0)
(0.112104 -0.0787831 0)
(0.124951 -0.0765906 0)
(0.137376 -0.0740463 0)
(0.149316 -0.071131 0)
(0.0300643 -0.111746 0)
(0.0423067 -0.111341 0)
(0.0545021 -0.110529 0)
(0.0665997 -0.109313 0)
(0.0785483 -0.107689 0)
(0.0902954 -0.105646 0)
(0.101786 -0.103168 0)
(0.112965 -0.100237 0)
(0.123773 -0.0968294 0)
(0.134152 -0.0929234 0)
(0.030374 -0.134511 0)
(0.0409301 -0.134073 0)
(0.0514581 -0.133135 0)
(0.061913 -0.131699 0)
(0.0722498 -0.129755 0)
(0.0824215 -0.127291 0)
(0.0923788 -0.124287 0)
(0.10207 -0.12072 0)
(0.111443 -0.116563 0)
(0.120442 -0.111791 0)
(0.0304135 -0.154 0)
(0.0394197 -0.153563 0)
(0.0484193 -0.152547 0)
(0.0573733 -0.15095 0)
(0.0662425 -0.148758 0)
(0.0749849 -0.145954 0)
(0.0835562 -0.142515 0)
(0.0919095 -0.138412 0)
(0.0999956 -0.133614 0)
(0.107763 -0.12809 0)
(0.030034 -0.170497 0)
(0.0376193 -0.170101 0)
(0.0452225 -0.169059 0)
(0.0528102 -0.167363 0)
(0.0603479 -0.164996 0)
(0.0677983 -0.161936 0)
(0.0751213 -0.158153 0)
(0.082274 -0.153615 0)
(0.0892101 -0.148282 0)
(0.0958805 -0.142118 0)
(0.0290686 -0.184258 0)
(0.0353691 -0.18395 0)
(0.0417144 -0.182939 0)
(0.0480753 -0.181211 0)
(0.0544218 -0.178745 0)
(0.0607208 -0.175511 0)
(0.066936 -0.171476 0)
(0.0730276 -0.166599 0)
(0.0789523 -0.160834 0)
(0.0846625 -0.154134 0)
(0.0273493 -0.19557 0)
(0.0325178 -0.195399 0)
(0.0377574 -0.194478 0)
(0.043043 -0.192785 0)
(0.0483492 -0.190294 0)
(0.0536471 -0.18697 0)
(0.0589049 -0.182772 0)
(0.0640869 -0.177652 0)
(0.0691531 -0.171554 0)
(0.0740584 -0.164418 0)
(0.0247468 -0.20476 0)
(0.0289509 -0.204771 0)
(0.0332487 -0.203993 0)
(0.0376207 -0.202399 0)
(0.0420463 -0.199957 0)
(0.0465029 -0.196626 0)
(0.0509648 -0.192359 0)
(0.0554035 -0.187098 0)
(0.0597866 -0.180777 0)
(0.064077 -0.17332 0)
(0.0212005 -0.212177 0)
(0.0246114 -0.212408 0)
(0.0281336 -0.21182 0)
(0.0317537 -0.210384 0)
(0.0354577 -0.208063 0)
(0.0392307 -0.204812 0)
(0.0430566 -0.20058 0)
(0.0469181 -0.195304 0)
(0.0507973 -0.18891 0)
(0.0546744 -0.181313 0)
(0.0167355 -0.21817 0)
(0.0195127 -0.218641 0)
(0.0224123 -0.21828 0)
(0.0254267 -0.21705 0)
(0.0285492 -0.214914 0)
(0.031773 -0.211826 0)
(0.0350917 -0.207735 0)
(0.0385006 -0.202579 0)
(0.0419968 -0.196286 0)
(0.0455774 -0.188771 0)
(0.0114684 -0.22304 0)
(0.0137458 -0.223764 0)
(0.0161512 -0.223649 0)
(0.0186819 -0.22266 0)
(0.0213373 -0.220758 0)
(0.0241175 -0.217899 0)
(0.0270246 -0.214036 0)
(0.0300637 -0.209114 0)
(0.033242 -0.203071 0)
(0.0365703 -0.195834 0)
(0.00557745 -0.227031 0)
(0.00745933 -0.228009 0)
(0.00947087 -0.228152 0)
(0.0116132 -0.227424 0)
(0.01389 -0.225786 0)
(0.0163066 -0.2232 0)
(0.0188705 -0.219624 0)
(0.021592 -0.215012 0)
(0.0244825 -0.209315 0)
(0.0275648 -0.202481 0)
(-0.000720771 -0.230319 0)
(0.000840644 -0.231551 0)
(0.00253237 -0.231957 0)
(0.00435782 -0.2315 0)
(0.0063242 -0.230147 0)
(0.00844071 -0.227862 0)
(0.0107191 -0.22461 0)
(0.0131728 -0.220356 0)
(0.0158165 -0.215065 0)
(0.0186883 -0.208707 0)
(-0.00721637 -0.233032 0)
(-0.00591961 -0.234517 0)
(-0.00449449 -0.235187 0)
(-0.00293588 -0.235009 0)
(-0.00123373 -0.233954 0)
(0.00062436 -0.231991 0)
(0.00265328 -0.229093 0)
(0.00486848 -0.225233 0)
(0.00728814 -0.220388 0)
(0.00995956 -0.214544 0)
(-0.013692 -0.235265 0)
(-0.0126208 -0.236995 0)
(-0.0114276 -0.237923 0)
(-0.0101061 -0.238022 0)
(-0.00864412 -0.237267 0)
(-0.00702713 -0.235634 0)
(-0.00523866 -0.233099 0)
(-0.00326254 -0.229643 0)
(-0.0010816 -0.22525 0)
(0.00134625 -0.219909 0)
(-0.0199325 -0.237094 0)
(-0.0190543 -0.239049 0)
(-0.0180682 -0.240217 0)
(-0.0169659 -0.240577 0)
(-0.0157329 -0.240111 0)
(-0.014352 -0.2388 0)
(-0.012804 -0.236623 0)
(-0.0110703 -0.233562 0)
(-0.00913189 -0.229594 0)
(-0.00695321 -0.224709 0)
(-0.0256961 -0.238587 0)
(-0.0249916 -0.240728 0)
(-0.0242011 -0.242102 0)
(-0.0233145 -0.242698 0)
(-0.0223157 -0.242503 0)
(-0.0211853 -0.241505 0)
(-0.0199017 -0.23969 0)
(-0.0184401 -0.237044 0)
(-0.0167753 -0.233553 0)
(-0.0148619 -0.229195 0)
(-0.0307201 -0.239766 0)
(-0.0301881 -0.242038 0)
(-0.0295993 -0.243565 0)
(-0.0289463 -0.244339 0)
(-0.0282174 -0.244353 0)
(-0.0274008 -0.2436 0)
(-0.0264839 -0.242069 0)
(-0.0254579 -0.23975 0)
(-0.0243146 -0.236626 0)
(-0.0230491 -0.232685 0)
(-0.034727 -0.240628 0)
(-0.0343654 -0.242973 0)
(-0.0339718 -0.244589 0)
(-0.033542 -0.245469 0)
(-0.0330693 -0.245606 0)
(-0.0325474 -0.244991 0)
(-0.0319714 -0.24361 0)
(-0.0313373 -0.241448 0)
(-0.0306473 -0.238482 0)
(-0.0298975 -0.234691 0)
(-0.0375007 -0.241169 0)
(-0.037305 -0.24355 0)
(-0.0370921 -0.245211 0)
(-0.0368619 -0.246144 0)
(-0.0366121 -0.246343 0)
(-0.0363417 -0.245796 0)
(-0.0360496 -0.24449 0)
(-0.0357367 -0.242404 0)
(-0.0354023 -0.239514 0)
(-0.0350433 -0.235782 0)
(-0.0389037 -0.241388 0)
(-0.0388695 -0.243789 0)
(-0.0388208 -0.245471 0)
(-0.0387622 -0.246424 0)
(-0.0386969 -0.246639 0)
(-0.0386301 -0.246103 0)
(-0.0385681 -0.2448 0)
(-0.0385183 -0.24271 0)
(-0.03849 -0.239802 0)
(-0.038491 -0.236046 0)
(-0.0388945 -0.241281 0)
(-0.0390114 -0.243718 0)
(-0.0391009 -0.245427 0)
(-0.0391713 -0.246397 0)
(-0.0392296 -0.246615 0)
(-0.0392839 -0.246068 0)
(-0.039342 -0.244738 0)
(-0.0394123 -0.242602 0)
(-0.039501 -0.239634 0)
(-0.0396112 -0.235798 0)
(-0.0375637 -0.24086 0)
(-0.0378141 -0.243376 0)
(-0.0380137 -0.245148 0)
(-0.0381747 -0.246163 0)
(-0.0383072 -0.246408 0)
(-0.0384224 -0.245868 0)
(-0.0385306 -0.244527 0)
(-0.0386416 -0.242366 0)
(-0.0387639 -0.23936 0)
(-0.0389024 -0.235485 0)
(-0.0350937 -0.240164 0)
(-0.0354447 -0.242819 0)
(-0.0357161 -0.244706 0)
(-0.0359229 -0.245812 0)
(-0.0360775 -0.246124 0)
(-0.0361923 -0.24563 0)
(-0.0362783 -0.244313 0)
(-0.0363447 -0.24216 0)
(-0.0363971 -0.239152 0)
(-0.0364369 -0.235272 0)
(-0.0317347 -0.239277 0)
(-0.0321371 -0.242132 0)
(-0.032434 -0.244189 0)
(-0.0326422 -0.245437 0)
(-0.0327759 -0.245865 0)
(-0.0328498 -0.24546 0)
(-0.032877 -0.244212 0)
(-0.0328695 -0.242112 0)
(-0.0328366 -0.239149 0)
(-0.0327846 -0.235316 0)
(-0.0277362 -0.23832 0)
(-0.0281281 -0.241422 0)
(-0.0283946 -0.243695 0)
(-0.0285531 -0.245128 0)
(-0.0286187 -0.245709 0)
(-0.0286072 -0.245427 0)
(-0.028534 -0.244274 0)
(-0.0284141 -0.242242 0)
(-0.0282618 -0.239324 0)
(-0.0280899 -0.235515 0)
(-0.023327 -0.237435 0)
(-0.0236397 -0.240816 0)
(-0.0238154 -0.243339 0)
(-0.02387 -0.24499 0)
(-0.0238175 -0.245757 0)
(-0.0236734 -0.24563 0)
(-0.0234529 -0.244601 0)
(-0.0231717 -0.242662 0)
(-0.0228446 -0.239808 0)
(-0.0224858 -0.236035 0)
(-0.0186936 -0.236774 0)
(-0.0188604 -0.240446 0)
(-0.0188874 -0.243234 0)
(-0.018788 -0.245123 0)
(-0.0185735 -0.2461 0)
(-0.018258 -0.246154 0)
(-0.0178556 -0.245274 0)
(-0.0173819 -0.243453 0)
(-0.016853 -0.240686 0)
(-0.0162854 -0.23697 0)
(-0.0139644 -0.236475 0)
(-0.0139288 -0.24043 0)
(-0.0137581 -0.243483 0)
(-0.0134615 -0.245618 0)
(-0.013047 -0.246817 0)
(-0.0125255 -0.247067 0)
(-0.0119087 -0.246354 0)
(-0.0112103 -0.244669 0)
(-0.0104457 -0.242004 0)
(-0.00963172 -0.238353 0)
(-0.00922036 -0.236639 0)
(-0.00894318 -0.240859 0)
(-0.00853905 -0.244168 0)
(-0.00801355 -0.246545 0)
(-0.00737106 -0.247972 0)
(-0.00661857 -0.24843 0)
(-0.00576402 -0.247904 0)
(-0.00481748 -0.246379 0)
(-0.00379094 -0.243843 0)
(-0.00269835 -0.240287 0)
(-0.00452713 -0.237328 0)
(-0.00398186 -0.241792 0)
(-0.00331969 -0.245342 0)
(-0.00254357 -0.247954 0)
(-0.00165478 -0.249607 0)
(-0.000656666 -0.250281 0)
(0.000446981 -0.249957 0)
(0.00165063 -0.248616 0)
(0.00294718 -0.246242 0)
(0.00432766 -0.242821 0)
(4.35502e-05 -0.238591 0)
(0.000881384 -0.243276 0)
(0.00182253 -0.247045 0)
(0.0028663 -0.249876 0)
(0.00401399 -0.251746 0)
(0.00526561 -0.252635 0)
(0.0066212 -0.25252 0)
(0.00807993 -0.251381 0)
(0.00964009 -0.249198 0)
(0.011299 -0.245953 0)
(0.00444679 -0.240478 0)
(0.00559455 -0.24535 0)
(0.00682979 -0.249311 0)
(0.00815309 -0.252337 0)
(0.00956744 -0.254406 0)
(0.0110752 -0.255496 0)
(0.0126794 -0.255586 0)
(0.0143832 -0.254655 0)
(0.0161896 -0.252682 0)
(0.0181026 -0.249645 0)
(0.00864934 -0.243013 0)
(0.0101172 -0.248041 0)
(0.011656 -0.252161 0)
(0.0132663 -0.255351 0)
(0.0149514 -0.257591 0)
(0.0167146 -0.258859 0)
(0.0185606 -0.259137 0)
(0.0204948 -0.258403 0)
(0.0225238 -0.256639 0)
(0.0246565 -0.253824 0)
(0.0126136 -0.246213 0)
(0.0144097 -0.251364 0)
(0.0162591 -0.255609 0)
(0.0181613 -0.258928 0)
(0.0201188 -0.261303 0)
(0.0221348 -0.262715 0)
(0.0242139 -0.263147 0)
(0.0263623 -0.262584 0)
(0.0285878 -0.261008 0)
(0.0309019 -0.258403 0)
(0.0163135 -0.250093 0)
(0.0184422 -0.255331 0)
(0.0206053 -0.259663 0)
(0.0228005 -0.263071 0)
(0.025029 -0.265538 0)
(0.0272926 -0.267049 0)
(0.0295948 -0.267592 0)
(0.0319406 -0.267153 0)
(0.0343372 -0.265721 0)
(0.0367959 -0.263285 0)
(0.0197343 -0.254656 0)
(0.022195 -0.259945 0)
(0.0246699 -0.264324 0)
(0.0271545 -0.267776 0)
(0.029648 -0.270287 0)
(0.0321501 -0.271846 0)
(0.0346624 -0.272443 0)
(0.037188 -0.272071 0)
(0.0397317 -0.270722 0)
(0.0423032 -0.268391 0)
(0.0228724 -0.259899 0)
(0.0256602 -0.2652 0)
(0.0284395 -0.26958 0)
(0.0312036 -0.273027 0)
(0.0339495 -0.275529 0)
(0.0366751 -0.277078 0)
(0.0393798 -0.277668 0)
(0.0420641 -0.277295 0)
(0.0447302 -0.275956 0)
(0.0473849 -0.273651 0)
(0.0257478 -0.26581 0)
(0.0288501 -0.271076 0)
(0.0319181 -0.275408 0)
(0.034943 -0.278795 0)
(0.0379202 -0.281229 0)
(0.0408457 -0.282705 0)
(0.0437167 -0.28322 0)
(0.0465315 -0.282774 0)
(0.0492895 -0.281367 0)
(0.0519945 -0.279003 0)
(0.0284019 -0.272358 0)
(0.0317972 -0.277537 0)
(0.0351288 -0.281763 0)
(0.0383862 -0.28503 0)
(0.0415636 -0.287333 0)
(0.0446553 -0.288669 0)
(0.0476569 -0.289038 0)
(0.0505646 -0.288443 0)
(0.0533754 -0.286886 0)
(0.0560904 -0.284374 0)
(0.0309017 -0.279495 0)
(0.0345578 -0.284525 0)
(0.0381173 -0.288582 0)
(0.0415686 -0.291663 0)
(0.0449048 -0.293766 0)
(0.0481192 -0.29489 0)
(0.051206 -0.295038 0)
(0.0541595 -0.294214 0)
(0.0569746 -0.292423 0)
(0.0596504 -0.289673 0)
(0.0333342 -0.28715 0)
(0.0372077 -0.291962 0)
(0.0409492 -0.29578 0)
(0.0445466 -0.298604 0)
(0.0479923 -0.300433 0)
(0.0512785 -0.30127 0)
(0.054398 -0.301117 0)
(0.0573437 -0.299982 0)
(0.0601084 -0.297871 0)
(0.0626889 -0.294792 0)
(0.0357957 -0.295226 0)
(0.0398325 -0.299748 0)
(0.0437024 -0.303255 0)
(0.0473928 -0.305748 0)
(0.0508953 -0.307228 0)
(0.0542007 -0.307699 0)
(0.0573003 -0.307167 0)
(0.0601848 -0.305637 0)
(0.062845 -0.303117 0)
(0.0652755 -0.299616 0)
(0.0383686 -0.303603 0)
(0.0425079 -0.307768 0)
(0.0464504 -0.310896 0)
(0.0501823 -0.312988 0)
(0.0536938 -0.314047 0)
(0.0569734 -0.314077 0)
(0.0600099 -0.313084 0)
(0.0627912 -0.311074 0)
(0.0653055 -0.308056 0)
(0.0675445 -0.304038 0)
(0.0410855 -0.312148 0)
(0.0452684 -0.315904 0)
(0.0492354 -0.318599 0)
(0.05297 -0.320233 0)
(0.0564594 -0.320809 0)
(0.0596885 -0.32033 0)
(0.0626417 -0.318801 0)
(0.065303 -0.31623 0)
(0.0676563 -0.312627 0)
(0.0696905 -0.308001 0)
(0.0438829 -0.320736 0)
(0.048068 -0.324059 0)
(0.0520341 -0.326293 0)
(0.0557603 -0.327435 0)
(0.0592283 -0.327483 0)
(0.0624167 -0.32644 0)
(0.0653038 -0.324312 0)
(0.0678668 -0.321106 0)
(0.0700832 -0.316835 0)
(0.0719361 -0.311513 0)
(0.0465612 -0.329289 0)
(0.0507457 -0.332198 0)
(0.0547271 -0.333978 0)
(0.0584774 -0.334621 0)
(0.0619708 -0.334121 0)
(0.0651779 -0.332479 0)
(0.0680684 -0.3297 0)
(0.0706103 -0.325791 0)
(0.0727715 -0.320769 0)
(0.0745248 -0.314651 0)
(0.0487747 -0.33783 0)
(0.0530147 -0.340384 0)
(0.0570828 -0.341753 0)
(0.0609436 -0.341923 0)
(0.0645634 -0.340885 0)
(0.0679056 -0.338635 0)
(0.0709318 -0.335176 0)
(0.0736023 -0.330516 0)
(0.0758767 -0.32467 0)
(0.0777191 -0.317658 0)
(0.0500852 -0.346531 0)
(0.0544965 -0.34881 0)
(0.0587722 -0.349834 0)
(0.0628721 -0.349585 0)
(0.0667578 -0.34805 0)
(0.0703887 -0.345223 0)
(0.0737231 -0.341102 0)
(0.0767194 -0.335699 0)
(0.0793375 -0.329031 0)
(0.081544 -0.321125 0)
(0.0500848 -0.355679 0)
(0.0548048 -0.357755 0)
(0.0594199 -0.358502 0)
(0.0638877 -0.357897 0)
(0.068167 -0.355922 0)
(0.0722145 -0.352569 0)
(0.0759864 -0.34784 0)
(0.079441 -0.34175 0)
(0.0825397 -0.334325 0)
(0.0852509 -0.325606 0)
(0.0485054 -0.365548 0)
(0.0536394 -0.367475 0)
(0.058692 -0.367998 0)
(0.0636163 -0.367082 0)
(0.0683661 -0.364707 0)
(0.0728916 -0.360862 0)
(0.0771436 -0.355554 0)
(0.0810761 -0.348803 0)
(0.0846471 -0.340646 0)
(0.0878162 -0.331135 0)
(0.0451999 -0.376302 0)
(0.0508023 -0.378124 0)
(0.0563414 -0.378455 0)
(0.061761 -0.377249 0)
(0.067003 -0.374475 0)
(0.0720053 -0.370122 0)
(0.0767073 -0.364201 0)
(0.0810563 -0.356743 0)
(0.0850098 -0.347798 0)
(0.0885342 -0.337422 0)
(0.0400992 -0.387994 0)
(0.0461768 -0.389755 0)
(0.0522097 -0.389917 0)
(0.0581252 -0.388413 0)
(0.0638448 -0.385204 0)
(0.0692826 -0.380278 0)
(0.0743564 -0.373662 0)
(0.0790097 -0.365427 0)
(0.0832384 -0.355664 0)
(0.0870921 -0.344421 0)
(0.033132 -0.400584 0)
(0.0396539 -0.402343 0)
(0.0461533 -0.402354 0)
(0.052532 -0.400527 0)
(0.0586753 -0.396803 0)
(0.0644433 -0.391166 0)
(0.06969 -0.383679 0)
(0.0743458 -0.374533 0)
(0.0785249 -0.363954 0)
(0.0824678 -0.351962 0)
(0.0241804 -0.413973 0)
(0.0310787 -0.415799 0)
(0.0379794 -0.415682 0)
(0.0447538 -0.413486 0)
(0.0512386 -0.409089 0)
(0.0571916 -0.402411 0)
(0.0622881 -0.393537 0)
(0.0663294 -0.382967 0)
(0.0697627 -0.371554 0)
(0.0730689 -0.359184 0)
(0.0131013 -0.427965 0)
(0.0202488 -0.429924 0)
(0.0274171 -0.429689 0)
(0.0344724 -0.427028 0)
(0.04124 -0.421654 0)
(0.0473868 -0.413237 0)
(0.052124 -0.401739 0)
(0.0548526 -0.388605 0)
(0.0561788 -0.376481 0)
(0.0571022 -0.364463 0)
(-4.66643e-05 -0.442274 0)
(0.00719648 -0.444417 0)
(0.0144945 -0.444099 0)
(0.021781 -0.44099 0)
(0.0289568 -0.434624 0)
(0.0354419 -0.424449 0)
(0.0405256 -0.409873 0)
(0.0442581 -0.391205 0)
(0.0420652 -0.37611 0)
(0.0367199 -0.365307 0)
(-0.0147845 -0.456627 0)
(-0.00754679 -0.459008 0)
(-0.000199409 -0.458719 0)
(0.00733101 -0.45541 0)
(0.0148952 -0.448652 0)
(0.0211936 -0.438075 0)
(0.026278 -0.422594 0)
(0.0349671 -0.397782 0)
(0.0456033 -0.359756 0)
(0.0176326 -0.360987 0)
(-0.0302108 -0.47095 0)
(-0.0229421 -0.47362 0)
(-0.0154852 -0.473489 0)
(-0.00769501 -0.470287 0)
(-2.47197e-05 -0.463784 0)
(0.00602852 -0.453857 0)
(0.0111322 -0.44047 0)
(0.0234683 -0.413724 0)
(0.0355212 -0.307222 0)
(0.00451374 -0.245216 0)
(-0.0454495 -0.485407 0)
(-0.0380479 -0.48842 0)
(-0.0303984 -0.48853 0)
(-0.0223556 -0.485548 0)
(-0.0147866 -0.47934 0)
(-0.00868303 -0.469669 0)
(-0.00330969 -0.455163 0)
(0.00598534 -0.410285 0)
(-0.00753486 -0.328634 0)
(-0.0311377 -0.207906 0)
(-0.0599427 -0.500191 0)
(-0.0523439 -0.503605 0)
(-0.0444477 -0.504 0)
(-0.0361302 -0.501224 0)
(-0.0285043 -0.495171 0)
(-0.0222312 -0.485075 0)
(-0.0168372 -0.465944 0)
(-0.0127559 -0.385396 0)
(-0.02457 -0.276318 0)
(-0.0663821 -0.152196 0)
(-0.0734171 -0.515357 0)
(-0.0656418 -0.519238 0)
(-0.0575403 -0.519975 0)
(-0.049002 -0.517453 0)
(-0.0412436 -0.511569 0)
(-0.0346761 -0.501091 0)
(-0.028052 -0.477179 0)
(-0.0292931 -0.343516 0)
(-0.0418422 -0.230674 0)
(-0.0533717 -0.160838 0)
(-0.0856886 -0.530781 0)
(-0.0777976 -0.535145 0)
(-0.0695831 -0.536216 0)
(-0.060937 -0.533933 0)
(-0.0531107 -0.52817 0)
(-0.0463612 -0.517239 0)
(-0.0386393 -0.487733 0)
(-0.0363095 -0.302082 0)
(-0.0514338 -0.19925 0)
(-0.0591317 -0.145506 0)
(-0.0964026 -0.546418 0)
(-0.0883369 -0.551263 0)
(-0.0799465 -0.552653 0)
(-0.0710806 -0.550576 0)
(-0.0628823 -0.544968 0)
(-0.0559651 -0.534142 0)
(-0.0484413 -0.502732 0)
(-0.028154 -0.299157 0)
(-0.0391365 -0.180443 0)
(-0.0460823 -0.118237 0)
(-0.105276 -0.562539 0)
(-0.0968562 -0.567946 0)
(-0.0880739 -0.569743 0)
(-0.0787494 -0.568031 0)
(-0.0697944 -0.562995 0)
(-0.0625963 -0.55339 0)
(-0.0543102 -0.526625 0)
(-0.0216539 -0.333487 0)
(-0.0116623 -0.169746 0)
(-0.0129403 -0.0984495 0)
(-0.112385 -0.579488 0)
(-0.103468 -0.585554 0)
(-0.0941787 -0.587876 0)
(-0.0843629 -0.586602 0)
(-0.0746046 -0.581982 0)
(-0.0669327 -0.573304 0)
(-0.0579528 -0.54946 0)
(-0.0318045 -0.410478 0)
(0.00552973 -0.202417 0)
(0.0127804 -0.0990811 0)
(-0.11799 -0.597531 0)
(-0.108463 -0.604293 0)
(-0.0985924 -0.607146 0)
(-0.088265 -0.606269 0)
(-0.0777418 -0.601917 0)
(-0.0692236 -0.593788 0)
(-0.0600893 -0.573353 0)
(-0.0414926 -0.482357 0)
(-0.00583969 -0.261559 0)
(0.010877 -0.133659 0)
(-0.122604 -0.616873 0)
(-0.112411 -0.624344 0)
(-0.10189 -0.627705 0)
(-0.0909627 -0.627132 0)
(-0.0796562 -0.622863 0)
(-0.0700353 -0.614863 0)
(-0.0607703 -0.597014 0)
(-0.0479566 -0.532488 0)
(-0.0208544 -0.283765 0)
(-0.00851083 -0.179826 0)
(-0.127016 -0.637528 0)
(-0.11621 -0.645738 0)
(-0.105058 -0.649626 0)
(-0.0935001 -0.649347 0)
(-0.0814286 -0.64512 0)
(-0.0705935 -0.63708 0)
(-0.0613908 -0.621328 0)
(-0.0507506 -0.571526 0)
(-0.0179059 -0.301626 0)
(-0.00737249 -0.215072 0)
(-0.13219 -0.65928 0)
(-0.120955 -0.668356 0)
(-0.109303 -0.672916 0)
(-0.0971852 -0.673109 0)
(-0.0844483 -0.669173 0)
(-0.0725171 -0.661429 0)
(-0.0634306 -0.648137 0)
(-0.0530614 -0.611296 0)
(-0.0118614 -0.348351 0)
(0.0131127 -0.233079 0)
(-0.139246 -0.681476 0)
(-0.127969 -0.691557 0)
(-0.116234 -0.696933 0)
(-0.104031 -0.697707 0)
(-0.0912427 -0.694042 0)
(-0.0789011 -0.686117 0)
(-0.0696312 -0.672581 0)
(-0.0593305 -0.637836 0)
(-0.0277285 -0.443913 0)
(0.00941761 -0.270065 0)
(-0.148685 -0.703264 0)
(-0.137623 -0.714395 0)
(-0.126111 -0.720595 0)
(-0.114212 -0.721936 0)
(-0.101839 -0.718534 0)
(-0.0895132 -0.710483 0)
(-0.0798991 -0.69682 0)
(-0.069516 -0.664576 0)
(-0.0414325 -0.517783 0)
(-0.00503854 -0.306497 0)
(-0.160299 -0.724563 0)
(-0.149145 -0.73676 0)
(-0.137539 -0.743714 0)
(-0.125607 -0.745495 0)
(-0.113291 -0.742232 0)
(-0.100698 -0.734093 0)
(-0.0902259 -0.720722 0)
(-0.0798262 -0.693135 0)
(-0.0606415 -0.59711 0)
(-0.0200493 -0.350959 0)
(-0.173772 -0.746666 0)
(-0.161688 -0.760023 0)
(-0.149121 -0.767799 0)
(-0.136201 -0.770084 0)
(-0.122851 -0.767058 0)
(-0.108887 -0.758996 0)
(-0.096301 -0.746037 0)
(-0.0851579 -0.722716 0)
(-0.0709638 -0.65594 0)
(-0.0243882 -0.412558 0)
(-0.188776 -0.771651 0)
(-0.174921 -0.786152 0)
(-0.160638 -0.794808 0)
(-0.146034 -0.797744 0)
(-0.13102 -0.795206 0)
(-0.115317 -0.787618 0)
(-0.100526 -0.775538 0)
(-0.0890282 -0.75648 0)
(-0.0760978 -0.707894 0)
(-0.0320369 -0.479156 0)
(-0.204188 -0.800986 0)
(-0.188226 -0.816356 0)
(-0.171989 -0.825695 0)
(-0.155573 -0.829127 0)
(-0.138929 -0.826906 0)
(-0.121815 -0.819446 0)
(-0.105376 -0.807277 0)
(-0.0928265 -0.788782 0)
(-0.0794264 -0.744834 0)
(-0.0449677 -0.56476 0)
(-0.218514 -0.834715 0)
(-0.200685 -0.850538 0)
(-0.182782 -0.86015 0)
(-0.16494 -0.863645 0)
(-0.147189 -0.861256 0)
(-0.129365 -0.853373 0)
(-0.112134 -0.840487 0)
(-0.0988322 -0.821529 0)
(-0.0855322 -0.780287 0)
(-0.0553654 -0.630419 0)
(-0.230355 -0.87194 0)
(-0.211139 -0.887825 0)
(-0.191997 -0.897265 0)
(-0.173113 -0.900297 0)
(-0.154598 -0.897119 0)
(-0.136376 -0.888101 0)
(-0.118777 -0.873783 0)
(-0.104876 -0.853762 0)
(-0.0910259 -0.814701 0)
(-0.064762 -0.687702 0)
(-0.238948 -0.911587 0)
(-0.218855 -0.927295 0)
(-0.198903 -0.936273 0)
(-0.179297 -0.938496 0)
(-0.16022 -0.934112 0)
(-0.141694 -0.923483 0)
(-0.123875 -0.907183 0)
(-0.109257 -0.885324 0)
(-0.0948445 -0.847489 0)
(-0.0717013 -0.739629 0)
(-0.243966 -0.952701 0)
(-0.223494 -0.968082 0)
(-0.203175 -0.97647 0)
(-0.183175 -0.977734 0)
(-0.163745 -0.971944 0)
(-0.145039 -0.959455 0)
(-0.127196 -0.940922 0)
(-0.111939 -0.916901 0)
(-0.0975771 -0.880277 0)
(-0.0763039 -0.786313 0)
(-0.244946 -0.993647 0)
(-0.224721 -1.00893 0)
(-0.204604 -1.0169 0)
(-0.184635 -1.01728 0)
(-0.165145 -1.00995 0)
(-0.146505 -0.995137 0)
(-0.129123 -0.973547 0)
(-0.114365 -0.946217 0)
(-0.102627 -0.909507 0)
(-0.0871511 -0.826917 0)
(-0.242742 -1.03333 0)
(-0.222948 -1.0489 0)
(-0.203304 -1.05694 0)
(-0.18354 -1.05692 0)
(-0.163889 -1.04842 0)
(-0.144762 -1.03133 0)
(-0.126715 -1.00615 0)
(-0.111106 -0.974063 0)
(-0.0997548 -0.933927 0)
(-0.0847738 -0.854449 0)
(-0.237203 -1.07087 0)
(-0.218146 -1.08717 0)
(-0.199392 -1.09581 0)
(-0.180381 -1.09609 0)
(-0.161132 -1.08724 0)
(-0.142015 -1.06867 0)
(-0.12368 -1.04035 0)
(-0.107572 -1.00315 0)
(-0.0963342 -0.957071 0)
(-0.0823395 -0.873464 0)
(-0.22771 -1.10626 0)
(-0.2097 -1.12304 0)
(-0.192069 -1.13248 0)
(-0.174237 -1.13354 0)
(-0.155927 -1.12503 0)
(-0.137352 -1.10571 0)
(-0.11916 -1.07479 0)
(-0.102805 -1.03252 0)
(-0.0912709 -0.979848 0)
(-0.0781623 -0.892559 0)
(-0.213054 -1.13846 0)
(-0.196545 -1.15606 0)
(-0.180136 -1.16641 0)
(-0.163725 -1.16856 0)
(-0.14671 -1.16106 0)
(-0.128983 -1.14201 0)
(-0.110986 -1.1095 0)
(-0.0940494 -1.06263 0)
(-0.0812506 -1.00266 0)
(-0.0680846 -0.911784 0)
(-0.190916 -1.16856 0)
(-0.177345 -1.18604 0)
(-0.16262 -1.19695 0)
(-0.148074 -1.2003 0)
(-0.132885 -1.19449 0)
(-0.116571 -1.177 0)
(-0.0992682 -1.14457 0)
(-0.0820415 -1.09441 0)
(-0.0678524 -1.02717 0)
(-0.0548033 -0.931085 0)
(-0.163468 -1.19555 0)
(-0.153195 -1.21212 0)
(-0.140584 -1.22326 0)
(-0.128178 -1.22786 0)
(-0.115202 -1.22422 0)
(-0.10091 -1.20943 0)
(-0.0851364 -1.17886 0)
(-0.0684802 -1.12722 0)
(-0.0533168 -1.05409 0)
(-0.040135 -0.952552 0)
(-0.132423 -1.2178 0)
(-0.125339 -1.23372 0)
(-0.115296 -1.24491 0)
(-0.105409 -1.25054 0)
(-0.0951278 -1.24912 0)
(-0.0835959 -1.23763 0)
(-0.0704303 -1.21015 0)
(-0.0556716 -1.15861 0)
(-0.040842 -1.08202 0)
(-0.0276133 -0.976817 0)
(-0.100251 -1.23533 0)
(-0.0958758 -1.25038 0)
(-0.0888007 -1.26116 0)
(-0.0818564 -1.26729 0)
(-0.0747866 -1.26768 0)
(-0.0667779 -1.25945 0)
(-0.0572488 -1.23551 0)
(-0.0454391 -1.18489 0)
(-0.032316 -1.10817 0)
(-0.0195561 -1.00332 0)
(-0.0697979 -1.24855 0)
(-0.0676633 -1.2619 0)
(-0.0636597 -1.2716 0)
(-0.0597349 -1.27756 0)
(-0.0559325 -1.27904 0)
(-0.0517642 -1.27353 0)
(-0.0463545 -1.25326 0)
(-0.0376868 -1.20425 0)
(-0.0267236 -1.13003 0)
(-0.0145362 -1.02733 0)
(-0.0428079 -1.25703 0)
(-0.0427778 -1.26807 0)
(-0.0417406 -1.27636 0)
(-0.0405982 -1.28189 0)
(-0.0394612 -1.28386 0)
(-0.0386297 -1.28028 0)
(-0.0365022 -1.26505 0)
(-0.0297447 -1.22038 0)
(-0.0197073 -1.15023 0)
(-0.0082901 -1.04868 0)
(-0.0206923 -1.25951 0)
(-0.0227124 -1.26832 0)
(-0.0245745 -1.27575 0)
(-0.0257337 -1.28139 0)
(-0.0264077 -1.28335 0)
(-0.0283752 -1.28035 0)
(-0.0281013 -1.27268 0)
(-0.0217915 -1.23708 0)
(-0.00942735 -1.17491 0)
(0.00386377 -1.08091 0)
(-0.00420976 -1.25517 0)
(-0.00815169 -1.26246 0)
(-0.0125246 -1.27066 0)
(-0.015001 -1.27788 0)
(-0.0166084 -1.27877 0)
(-0.02146 -1.27494 0)
(-0.0229295 -1.27507 0)
(-0.0213343 -1.24959 0)
(-0.0134616 -1.19325 0)
(-0.008385 -1.11133 0)
(0.00642756 -1.24317 0)
(0.000986559 -1.25094 0)
(-0.00476028 -1.26349 0)
(-0.00715148 -1.2739 0)
(-0.00887387 -1.27181 0)
(-0.0156401 -1.26783 0)
(-0.0157632 -1.27368 0)
(-0.0163909 -1.25956 0)
(-0.00749545 -1.20374 0)
(-0.00684225 -1.14158 0)
(0.0103781 -1.22315 0)
(0.00465241 -1.23618 0)
(0.000180505 -1.25854 0)
(-0.00176035 -1.27023 0)
(-0.003573 -1.26349 0)
(-0.0118691 -1.26073 0)
(-0.010456 -1.26957 0)
(-0.0154813 -1.26991 0)
(-0.00538713 -1.21169 0)
(-0.00818963 -1.155 0)
(0.00675563 -1.19331 0)
(0.0033587 -1.2234 0)
(0.00518582 -1.25944 0)
(0.00149623 -1.26414 0)
(3.54575e-05 -1.25386 0)
(-0.00969732 -1.25228 0)
(-0.00723633 -1.26164 0)
(-0.0189612 -1.27748 0)
(-0.00418885 -1.21816 0)
(-0.00577872 -1.1359 0)
(0.000589528 -1.14858 0)
(-0.0021809 -1.22054 0)
(0.0126769 -1.26457 0)
(0.00277783 -1.25255 0)
(0.00242185 -1.24294 0)
(-0.00853841 -1.24215 0)
(-0.00562626 -1.24991 0)
(-0.0247948 -1.27987 0)
(0.000802285 -1.23053 0)
(-0.0037067 -1.08945 0)
(0.00698701 -1.07219 0)
(-0.0145175 -1.24981 0)
(0.0199799 -1.26969 0)
(-0.000530929 -1.2374 0)
(0.00252076 -1.23234 0)
(-0.00692136 -1.23185 0)
(-0.00301385 -1.23656 0)
(-0.0282785 -1.27715 0)
(0.0120655 -1.26315 0)
(-0.0145311 -1.01901 0)
(0.205263 -0.0220295 0)
(0.221806 -0.0208537 0)
(0.237289 -0.0194947 0)
(0.251597 -0.0179672 0)
(0.264589 -0.0162811 0)
(0.276129 -0.0144381 0)
(0.286083 -0.0124382 0)
(0.294323 -0.0102814 0)
(0.300727 -0.00796491 0)
(0.30518 -0.00547384 0)
(0.307642 -0.00277404 0)
(0.307934 9.89365e-05 0)
(0.305828 0.00299833 0)
(0.301568 0.00578011 0)
(0.295352 0.00833455 0)
(0.287352 0.0105961 0)
(0.277762 0.0125391 0)
(0.266799 0.0141646 0)
(0.254673 0.0154897 0)
(0.241585 0.0165413 0)
(0.227716 0.017352 0)
(0.213227 0.0179573 0)
(0.19826 0.0183925 0)
(0.182934 0.0186916 0)
(0.167347 0.018885 0)
(0.151583 0.0189987 0)
(0.135709 0.0190521 0)
(0.119785 0.0190559 0)
(0.103871 0.0190097 0)
(0.0880318 0.0188969 0)
(0.0723567 0.0186786 0)
(0.0569672 0.018289 0)
(0.0420145 0.0176346 0)
(0.0277338 0.0165603 0)
(0.0149431 0.0150663 0)
(0.0028635 0.0162552 0)
(-0.0105015 0.0152012 0)
(-0.0186843 0.00110206 0)
(-0.0202939 -0.0107719 0)
(-0.00981918 -0.0282902 0)
(0.181036 -0.0447322 0)
(0.195051 -0.0420322 0)
(0.208079 -0.0389958 0)
(0.220014 -0.0356182 0)
(0.230753 -0.0318977 0)
(0.240194 -0.0278395 0)
(0.248241 -0.0234585 0)
(0.254813 -0.0187801 0)
(0.259853 -0.0138401 0)
(0.263328 -0.00868477 0)
(0.265239 -0.00336617 0)
(0.265694 0.00202891 0)
(0.264831 0.00734602 0)
(0.262626 0.0124228 0)
(0.259086 0.0171468 0)
(0.254258 0.021448 0)
(0.248217 0.0252865 0)