/*--------------------------------*- C++ -*----------------------------------*\
  =========                 |
  \\      /  F ield         | OpenFOAM: The Open Source CFD Toolbox
   \\    /   O peration     | Website:  https://openfoam.org
    \\  /    A nd           | Version:  8
     \\/     M anipulation  |
\*---------------------------------------------------------------------------*/
FoamFile
{
    version     2.0;
    format      ascii;
    class       volScalarField;
    location    "1.9";
    object      alpha.water;
}
// * * * * * * * * * * * * * * * * * * * * * * * * * * * * * * * * * * * * * //

dimensions      [0 0 0 0 0 0 0];

internalField   nonuniform List<scalar> 
9150
(
1
1
1
1
1
1
1
1
1
1
1
1
1
1
1
1
1
1
1
1
1
1
1
1
1
1
1
1
1
1
1
1
1
1
1
1
1
1
1
1
1
1
1
1
1
1
1
1
1
1
1
1
1
1
1
1
1
1
1
1
1
1
1
1
1
1
1
1
1
1
1
1
1
1
1
1
1
1
1
1
1
1
1
1
1
1
1
1
1
1
1
1
1
1
1
1
1
1
1
1
1
1
1
1
1
1
1
1
1
1
1
1
1
1
1
1
1
1
1
1
1
1
1
1
1
1
1
1
1
1
1
1
1
1
1
1
1
1
1
1
1
1
1
1
1
1
1
1
1
1
1
0.999991
0.999994
1
1
1
1
1
1
1
0.999999
1
1
1
1
1
1
1
1
1
1
1
1
1
1
0.999999
0.999999
1
1
1
1
1
1
1
0.999999
0.999999
0.999999
0.999999
0.999999
1
1
1
1
1
1
1
1
0.999999
0.999999
0.999999
1
1
1
1
1
1
1
1
0.999999
1
1
1
1
1
1
1
1
1
1
1
1
1
1
1
1
1
1
1
1
1
1
1
1
1
1
1
1
1
1
1
1
1
1
1
1
1
1
1
1
1
1
1
1
1
1
1
1
1
1
1
1
1
1
1
1
1
1
1
1
1
1
1
1
1
1
1
1
1
1
1
1
1
1
1
1
1
1
1
1
1
1
1
1
1
1
1
1
1
1
1
1
1
1
1
1
1
1
1
1
1
1
1
1
1
1
1
1
1
1
1
1
1
1
1
1
1
1
1
1
1
1
1
1
1
1
1
1
1
1
1
1
1
1
1
1
1
1
1
1
1
1
1
1
1
1
1
1
1
1
1
1
1
1
1
1
1
1
1
1
1
1
1
1
1
1
1
1
1
1
1
1
0.999999
0.999999
0.999999
1
1
1
1
1
1
1
0.999998
0.999998
0.999999
1
1
1
1
1
1
0.999999
0.999998
0.999999
1
1
1
1
1
1
0.999999
0.999998
0.999998
1
1
1
1
1
1
1
0.999999
0.999998
0.999999
1
1
1
1
1
1
1
1
0.999998
1
1
1
1
1
1
1
1
1
1
1
1
1
1
1
1
1
1
1
1
1
1
0.999999
1
1
1
1
1
1
1
1
0.999998
0.999996
0.999997
1
1
1
1
1
1
0.999999
0.999996
0.999996
0.999996
0.999998
1
1
1
1
1
0.999998
0.999996
0.999996
0.999996
0.999997
1
1
1
1
1
1
0.999997
0.999996
0.999996
0.999999
1
1
1
1
1
1
0.999999
0.999996
0.999998
1
1
1
1
1
1
1
1
0.999999
1
1
1
1
1
1
1
1
1
0.999999
0.999999
1
1
1
1
1
1
1
0.999998
0.999997
0.999997
0.999998
1
1
1
1
1
0.999999
0.999997
0.999997
0.999997
0.999997
1
1
1
1
1
1
0.999998
0.999997
0.999997
0.999998
1
1
1
1
1
1
1
0.999997
0.999998
1
1
1
1
1
1
1
1
1
1
1
1
1
1
1
1
1
1
1
1
1
1
1
1
1
1
1
1
1
1
1
1
1
1
1
1
1
1
1
1
1
1
1
1
1
1
1
1
1
1
1
1
1
1
1
1
1
1
1
1
1
1
0.999999
0.999998
0.999995
1
1
1
1
1
1
0.999999
0.999992
0.999959
0.999926
1
1
1
1
1
0.999999
0.99999
0.999891
0.999559
0.989617
1
1
1
1
1
0.999993
0.999914
0.999206
0.867254
0.459859
0.999998
1
1
1
0.999998
0.999932
0.998846
0.71968
0.161901
0.00294938
0.999998
0.999999
1
1
0.999981
0.998236
0.611681
0.0537203
0.00291282
0.00287128
0.999998
0.999999
1
1
0.999744
0.588185
0.0340425
0.00291283
0.00286936
0.00287032
0.999999
0.99997
1
0.999998
0.691458
0.0800236
0.00312144
0.00286921
0.00286936
0.00286924
0.999999
0.999759
0.999995
0.949493
0.182925
0.0199814
0.0256115
0.016098
0.00286936
0.00287992
0.999996
0.999711
0.999962
0.671023
0.0429922
0.0193871
0.0421453
0.0303806
0.00288013
0.00303165
0.999985
0.999729
0.994446
0.530637
0.0211317
0.0180835
0.0421555
0.0285104
0.00303174
0.0262164
0.99999
0.999875
0.993579
0.504747
0.0179503
0.0179321
0.0421453
0.0160988
0.00421831
0.126624
0.999993
0.999934
0.999542
0.64806
0.0178675
0.0178676
0.0304113
0.0252178
0.00764348
0.170395
0.999996
0.999961
0.999605
0.772058
0.0533589
0.0178678
0.0295459
0.0522544
0.0110087
0.138379
0.999997
0.999972
0.999669
0.871831
0.159075
0.0178763
0.0248903
0.0532245
0.0121851
0.0694182
0.999998
0.999982
0.999774
0.950831
0.296539
0.0179362
0.0181716
0.053158
0.0210869
0.0228338
0.999998
0.999987
0.999862
0.992958
0.512547
0.018086
0.0181857
0.0437218
0.0402412
0.0219054
0.999999
0.999992
0.999922
0.999101
0.780312
0.0237059
0.0181861
0.0187603
0.0398787
0.0218795
1
0.999997
0.99997
0.999671
0.964887
0.406839
0.0187587
0.0190149
0.0309985
0.0401824
1
0.999999
0.999991
0.99991
0.99945
0.810984
0.0891235
0.0191731
0.0252937
0.0404372
1
1
0.999998
0.999986
0.999848
0.999165
0.684101
0.0663712
0.0260768
0.02793
1
1
1
0.999999
0.99999
0.999957
0.996963
0.628729
0.100083
0.0340567
1
1
1
1
0.999999
0.999997
0.999976
0.998727
0.671596
0.161499
1
1
1
1
1
0.999999
0.999997
0.999976
0.999555
0.684315
1
1
1
1
0.999997
0.999996
0.999996
0.999993
0.999972
0.988855
1
1
1
1
0.999995
0.999981
0.999979
0.99998
0.999978
0.999903
1
1
1
1
0.999999
0.999981
0.99997
0.99997
0.999974
0.99994
1
1
1
1
1
0.999998
0.999984
0.999986
0.999989
0.999978
1
1
1
1
1
1
1
0.999999
0.99999
0.999989
1
1
1
1
1
1
0.999994
0.999991
0.99999
0.99999
1
1
1
1
1
1
0.999988
0.99994
0.99999
0.99999
1
1
1
1
1
1
0.999987
0.999937
0.99999
0.999991
1
1
1
1
1
1
0.999992
0.999937
0.999989
0.996652
1
1
1
1
1
1
0.999997
0.999937
0.999988
0.898258
1
1
1
1
1
1
0.999999
0.99996
0.999985
0.810991
1.00005
1
1
1
1
1
1
0.999992
0.999989
0.760223
1
1
1
1
1
1
1
0.999996
0.999992
0.730112
1
1
1
1
1
1
1
0.999999
0.999779
0.720963
0.948315
1
1
1
1
1
1
1
1.00001
0.731817
0.828179
1
1
1
1
1
1
0.999994
1.00001
0.747686
0.761916
1
1
1
1
1
1
0.999987
0.999987
0.754253
0.699549
0.999999
1
1
1
1
1
0.999989
0.999991
0.754348
0.650937
0.999996
0.999996
1
1
1
1
0.999992
0.999992
0.746602
0.618374
0.999988
0.999982
1
1
1
1
0.999993
0.999488
0.741027
0.606265
0.99998
0.999979
1
1
1
1
0.999995
0.99884
0.739009
0.614532
0.998976
0.999985
1
1
1
1
0.999997
0.99912
0.738418
0.640823
0.999799
0.999997
1
1
1
1
0.999999
0.999763
0.736813
0.681618
0.999985
1
1
1
1
1
1
0.999957
0.75539
0.73025
0.999988
1
1
1
1
1
1
0.999996
0.780678
0.783729
1.00002
1
1
1
1
1
1
0.999998
0.814088
0.837813
0.999997
1
1
1
1
1
1
1.00001
0.852892
0.893721
1
1
1
1
1
1
1
1
0.899408
0.947241
1
1
1
1
1
1
1
1
0.949833
1
1
1
1
1
0.999999
0.999998
0.999998
0.999998
0.999998
0.999999
1
1
1
1
1
1
1
1
1
1
1
1
1
1
1
1
1
1
1
1
1
0.999999
0.999998
1
0.936352
0.872538
0.872535
0.872468
0.833032
1
1
1
1
1
1
1
1
1
1
1
1
1
1
1
1
1
1
1
1
1
1
1
1
1
1
1
1
1
1
1
1
1
0.999999
1
0.999346
0.965884
0.814377
0.811808
0.811808
1
1
1
1
1
1
1
1
0.999999
0.999999
0.999999
0.999999
1
1
1
1
1
1
1
1
1
1
1
1
1
1
1
1
1
1
1
0.999999
0.999999
1
1
1
0.999998
0.966656
0.815582
0.837474
1
1
1
1
1
1
1
1
1
1
1
1
1
1
1
1
1
1
1
1
1
1
1
1
1
1
1
0.999999
0.999999
1
1
0.999999
0.999998
0.999999
1
1
1
0.999998
0.928505
0.851156
0.999999
1
1
1
1
1
1
1
1
1
1
0.999999
0.999997
0.999997
1
1
1
1
1
1
1
1
0.999999
0.999998
1
1
0.999999
0.999999
0.999999
1
0.999999
0.999998
0.999998
0.999999
1
1
1
1
0.999997
0.905358
1
1
1
1
1
1
1
1
1
1
0.999999
0.999997
0.999997
0.999997
1
1
1
1
1
1
0.999999
0.999992
0.999992
0.999999
1
1
0.999999
0.999999
0.999999
0.999999
0.999998
0.999998
0.999998
0.999999
1
1
1
1
1
0.965702
1
1
1
1
1
1
1
1
1
1
0.999999
0.999996
0.999999
1
1
1
1
1
1
0.999996
0.999991
0.999991
0.999994
1
1
1
1
1
0.999999
0.999998
0.999998
0.999999
1
1
1
1
1
1
1
0.999576
1
1
1
1
1
1
1
1
1
0.999999
0.999998
0.999996
0.999996
0.999997
1
1
1
1
0.999996
0.999991
0.999991
0.999995
0.999999
1
1
1
1
1
0.999999
0.999999
1
1
1
1
1
1
0.999999
0.999999
0.999999
0.999999
1
1
1
0.999999
1
1
1
1
1
0.999947
0.999929
0.999965
1
1
1
0.999349
0.998962
0.999574
0.999995
0.999996
0.999998
1
1
1
1
1
1
1
1
1
0.999997
0.999998
1
1
1
0.999992
0.999992
0.999999
1
1
1
1
0.999999
0.999999
1
1
1
0.999998
0.995239
0.999985
0.999987
0.999987
0.990328
0.942978
0.977921
0.997681
0.998978
0.999895
0.999998
1
1
1
1
1
1
1
0.999977
0.999997
1
0.999998
0.999996
0.999998
1
1
0.999997
0.999987
0.999992
1
1
1
1
1
1
1
1
0.999998
0.999982
0.934711
0.882325
0.804966
0.849167
0.731098
0.724454
0.902598
0.988044
0.998026
0.999716
0.999998
0.999999
0.999938
0.999974
1
0.999971
0.999884
0.999143
0.99904
0.999808
0.999995
0.999995
0.999996
0.999998
0.999999
1
1
0.999989
0.999987
0.999995
1
1
0.999999
1
1
1
1
0.999999
0.994256
0.776505
0.284948
0.153873
0.127145
0.242431
0.649834
0.835542
0.978757
0.998884
0.999682
0.999992
0.999997
0.999732
0.999652
0.999856
1
0.999905
0.99974
0.998863
0.998863
0.999833
0.999996
0.999998
0.999999
0.999999
0.999999
0.999999
0.99999
0.999986
0.999991
0.999999
1
0.999999
0.999999
1
1
1
1
0.999959
0.572802
0.0289225
0.00627862
0.00829719
0.0115695
0.39905
0.923847
0.997714
0.999935
0.999943
0.999941
0.999756
0.999521
0.999523
0.999649
0.999954
1
0.999999
0.999998
0.999254
0.999347
0.999975
0.999999
0.999999
0.999999
0.999987
0.999954
0.999968
0.999979
0.999991
0.999999
1
1
0.999999
0.999999
1
1
1
1
0.632632
0.0354623
0.00610764
0.00618365
0.00624117
0.134639
0.832005
0.999933
0.999943
0.999943
0.999943
0.999943
0.999665
0.999518
0.999749
0.999978
0.999998
0.999999
0.998685
0.998925
0.999981
0.999997
0.999999
0.999999
0.999989
0.999746
0.999803
0.999933
0.999973
0.99999
0.999998
1
1
0.999999
1
1
1
0.999999
1
0.927371
0.202094
0.00609864
0.00603591
0.00611381
0.00621012
0.36137
0.999932
0.999943
0.999943
0.999943
0.999943
0.999943
0.999917
0.999893
0.999967
0.999975
0.98855
0.988002
0.992427
0.992667
0.997158
0.999746
0.999124
0.998805
0.999038
0.999603
0.999843
0.999963
0.999993
0.999998
0.999998
0.999996
0.999997
0.999999
0.999999
1
1
0.999998
1
0.785795
0.0682983
0.00603591
0.00600477
0.00619971
0.0215749
0.54677
0.999943
0.999943
0.999943
0.999943
0.999943
0.999943
0.999943
0.999943
0.996664
0.968462
0.943224
0.966052
0.996946
0.994199
0.994125
0.995577
0.99868
0.998683
0.999152
0.999786
0.999955
0.999993
0.999998
0.999998
0.999996
0.999995
0.999995
0.999997
0.999997
0.999998
1
0.999999
1
0.753302
0.0387132
0.0060535
0.00599144
0.00603269
0.0124813
0.7218
0.999941
0.999943
0.999943
0.999943
0.999943
0.999943
0.97431
0.964104
0.907551
0.907403
0.942079
0.979611
0.999999
0.998211
0.994137
0.996216
0.999313
0.99944
0.99985
0.999981
0.999998
0.999997
0.999996
0.999995
0.999995
0.999995
0.999996
0.999997
0.999997
0.999997
1
0.999999
0.999788
0.871436
0.0450904
0.00673862
0.0059854
0.00599473
0.00599006
0.636635
0.999915
0.999943
0.999943
0.999943
0.970894
0.750798
0.620656
0.679055
0.891433
0.943194
0.974916
0.99709
1
0.999974
0.998852
0.999458
0.999927
1
1
1
0.999999
0.999996
0.999995
0.999995
0.999995
0.999997
0.999999
0.999999
0.999999
0.999999
1
1
0.999999
0.957144
0.314304
0.00598732
0.00598857
0.00600056
0.00600356
0.429072
0.987391
0.999926
0.993038
0.899347
0.649554
0.59071
0.590825
0.615353
0.913259
0.993613
0.999622
0.999999
1
1
0.999999
0.999999
1
1
1
1
0.999999
0.999997
0.999995
0.999997
0.999999
1
1
0.999999
1
1
1
1
1
0.999737
0.681068
0.00599689
0.0059967
0.00600361
0.00598906
0.214693
0.921544
0.999753
0.897237
0.609235
0.59088
0.590782
0.590752
0.724778
0.972304
0.999955
0.999996
1
1
1
1
1
1
1
1
1
1
0.999999
0.999999
1
1
1
1
1
1
1
1
1
1
0.999994
0.916666
0.183601
0.00599666
0.00598574
0.0059924
0.125075
0.835887
0.998681
0.707599
0.591068
0.590977
0.591014
0.595145
0.913486
0.998618
0.999986
1
1
1
1
1
1
1
1
1
1
1
1
1
1
1
1
1
1
1
1
1
1
1
1
0.999996
0.781974
0.0258119
0.0060107
0.00600907
0.189821
0.826909
0.900028
0.60356
0.591127
0.591066
0.591053
0.712285
0.988988
0.99996
0.999996
1
1
1
1
1
1
1
1
1
1
1
1
1
1
1
1
1
1
1
1
1
1
1
1
1
1
0.562558
0.00679434
0.00601302
0.445733
0.834883
0.773194
0.591239
0.591066
0.591021
0.590936
0.859941
0.999533
0.999983
0.999999
1
1
1
1
1
1
1
1
1
1
1
0.999998
1
1
1
1
1
0.999923
1
0.999741
1
1
1
1
1
1
0.983892
0.357569
0.0557365
0.296723
0.845202
0.845605
0.62074
0.591056
0.591005
0.650436
0.965987
0.999751
0.999988
1
1
1
0.999992
0.99999
0.999999
1
1
1
1
1
0.999997
0.999991
0.999997
1
1
1
1
0.999485
0.998612
0.994088
0.999999
1
1
1
1
1
1
0.939977
0.22851
0.178075
0.498823
0.845605
0.66963
0.591589
0.591053
0.874092
0.998496
0.99991
0.999997
1
1
1
0.999973
0.999958
0.999983
1
1
1
1
0.999999
0.999991
0.999991
0.999994
1
1
1
1
0.999475
0.996363
0.99332
0.999999
0.999999
1
1
1
1
1
1
0.859272
0.230752
0.228455
0.38995
0.859345
0.87371
0.902798
0.98695
0.999795
0.99999
1
1
1
1
0.999975
0.999957
0.999957
0.999991
1
1
1
0.999994
0.999991
0.999991
0.999994
0.999999
1
0.999999
1
0.999728
0.99373
0.993319
0.999999
0.999999
0.999999
1
1
1
1
1
1
0.803854
0.230454
0.22766
0.522566
0.984776
0.999436
0.999926
0.99997
0.999973
0.999963
0.999964
0.999998
1
0.999999
0.999958
0.999957
0.999957
0.999993
1
1
0.999995
0.999991
0.999991
0.999996
1
1
0.999999
1
0.999775
0.993319
0.993319
1
0.999999
0.999999
1
1
1
1
1
1
1
0.780696
0.233178
0.234419
0.636343
0.999409
0.999961
0.999971
0.999971
0.999942
0.999929
0.999932
0.999993
0.999999
0.999979
0.999957
0.999957
0.999972
1
1
1
0.999992
0.999993
0.999999
1
1
0.999999
1
0.999844
0.993319
0.993319
1
1
0.999999
1
1
1
1
1
1
1
1
0.764364
0.249792
0.252811
0.680961
0.999704
0.999962
0.999971
0.999959
0.999928
0.999927
0.999927
0.99999
0.99999
0.99996
0.999957
0.999969
0.999999
0.999999
0.999999
0.999999
0.999999
1
1
1
1
1
0.999778
0.995458
0.993759
1
1
1
1
1
1
1
1
1
1
1
1
0.742609
0.274025
0.281011
0.710115
0.999705
0.999962
0.999958
0.999948
0.999934
0.999924
0.999924
0.999982
0.999981
0.999974
0.999987
0.999998
0.999996
0.999996
0.999999
1
1
1
1
1
1
0.999636
0.999656
0.99934
1
1
1
1
1
1
1
1
1
1
1
1
1
0.735152
0.295964
0.319336
0.743415
0.999691
0.999948
0.999946
0.999942
0.999929
0.999919
0.99992
0.999981
0.999996
0.999997
0.999996
0.999995
0.999995
0.999997
1
1
1
1
1
1
0.999834
0.999997
0.999977
1
1
1
1
1
1
1
1
1
1
1
1
1
1
0.715572
0.324175
0.348737
0.780305
0.999702
0.999935
0.99994
0.999925
0.999919
0.999919
0.999966
0.999997
0.999997
0.999996
0.999995
0.999995
0.999997
1
1
1
1
1
1
1
0.999999
0.99997
1
1
1
1
1
1
1
1
1
1
1
1
1
1
1
0.676369
0.352582
0.380006
0.824971
0.999736
0.999933
0.999943
0.999938
0.99993
0.999974
0.999997
0.999997
0.999995
0.999996
0.999997
0.999999
1
0.999999
1
1
1
1
1
0.998996
0.999865
1
1
1
1
1
1
1
1
1
1
1
1
1
1
1
0.999997
0.606423
0.384325
0.421752
0.877221
0.999833
0.99997
0.999988
0.999989
0.999993
0.999997
0.999997
0.999995
0.999995
0.999999
1
1
0.999999
0.999999
1
1
1
0.999303
0.996659
0.999831
1
1
1
1
1
1
1
0.999999
0.999999
1
1
1
1
1
1
1
0.999985
0.516809
0.424473
0.494953
0.94163
0.999876
0.999989
0.999996
0.999997
0.999997
0.999996
0.999995
0.999995
0.999999
1
1
0.999999
0.999999
0.999999
1
1
0.998531
0.996659
0.999826
1
1
1
1
1
1
1
0.999998
0.999997
0.999998
1
1
1
1
1
1
1
0.923582
0.448722
0.445434
0.656991
0.993581
0.999959
0.999995
0.999997
0.999997
0.999995
0.999995
0.999995
0.999999
1
1
1
0.999999
0.999999
1
1
0.99898
0.997557
0.993538
1
1
1
1
1
1
1
0.999998
0.999997
0.999997
0.999999
1
1
0.999999
1
1
1
1
0.731875
0.445434
0.450232
0.838921
0.999775
0.999982
0.999996
0.999997
0.999996
0.999995
0.999997
0.999999
1
1
1
1
1
1
1
0.999841
0.999892
0.951164
1
1
1
1
1
1
1
1
0.999997
0.999997
0.999997
1
1
1
1
1
1
1
0.999982
0.570681
0.45548
0.590933
0.973893
0.999934
0.999994
0.999996
0.999997
0.999998
1
1
1
1
1
1
1
1
1
1
0.999929
0.949068
1
1
1
1
1
1
1
1
0.999999
0.999997
0.999997
0.999999
1
1
1
1
1
1
1
0.820775
0.457442
0.466488
0.853767
0.999786
0.999988
0.999997
0.999998
1
1
1
1
1
1
1
1
1
1
1
0.999993
0.949068
1
1
1
1
1
1
1
1
1
0.999997
0.999998
1
1
1
1
1
1
1
1
0.999998
0.568111
0.472117
0.672264
0.990604
0.999978
0.999998
0.999999
1
1
1
1
1
1
1
1
1
0.999999
1
1
0.952672
1
1
1
1
1
1
1
1
1
1
0.999999
1
1
1
1
1
1
1
1
1
0.720659
0.47457
0.560372
0.953206
0.999955
0.999998
1
1
1
1
1
1
1
1
1
1
0.999999
1
1
0.947936
1
1
1
1
1
1
1
1
1
1
1
1
1
1
1
0.999999
0.999999
1
1
1
0.84158
0.479453
0.514345
0.911043
0.999942
0.999998
1
1
1
1
1
1
1
1
1
1
0.999999
1
1
0.928965
1
1
1
1
1
0.999999
1
1
1
1
1
1
1
0.999999
1
1
1
1
1
1
0.926248
0.510819
0.499682
0.860762
0.999921
0.99999
1
1
1
1
1
1
0.999998
1
1
1
0.999999
0.999993
0.999861
0.927247
1
1
1
0.999999
0.999997
0.999994
0.999996
0.999999
1
1
1
1
0.999997
0.999405
0.999824
1
1
0.999536
0.999693
1
0.980337
0.525594
0.497423
0.876852
0.999346
0.99998
0.999999
0.999999
1
1
1
0.999999
0.999989
0.999998
1
1
1
0.99966
0.974519
0.927239
1
1
0.999999
0.999989
0.999955
0.999908
0.999932
0.999995
1
1
0.999999
1
0.999999
0.999999
0.999996
0.964811
0.95578
0.994017
0.999838
0.999997
0.96677
0.494636
0.495708
0.927587
0.999996
0.999988
1
1
1
1
1
0.999997
0.999988
0.999993
1
1
1
0.997849
0.927438
0.927238
1
0.999999
0.999987
0.999818
0.999248
0.998568
0.999479
0.99999
0.999997
0.999998
0.99999
1
1
0.966086
0.6429
0.635809
0.901923
0.997653
0.99986
0.999994
0.916979
0.488364
0.551423
0.99916
1
0.999999
1
1
1
1
1
0.999995
0.999988
0.999989
1
1
1
0.998249
0.941946
0.927239
0.999998
0.999992
0.999917
0.901697
0.887568
0.963056
0.999033
0.999895
0.999964
0.990045
0.983077
0.753754
0.454022
0.417984
0.417995
0.635291
0.958214
0.999808
0.999852
0.997191
0.705333
0.488364
0.788781
1
1
1
1
1
1
1
1
0.99999
0.999988
0.999988
1
1
0.999996
0.999267
0.985344
0.947766
0.999975
0.999857
0.967809
0.341699
0.237215
0.661879
0.917902
0.878402
0.777977
0.563179
0.170637
0.17237
0.174963
0.383511
0.633686
0.933858
0.99951
0.999725
0.999808
0.945806
0.541572
0.536725
0.999995
1
1
1
1
1
1
1
0.999997
0.999988
0.999988
0.999991
1
1
0.999993
0.999801
0.99984
0.997725
0.999456
0.92903
0.498894
0.0140392
0.00700474
0.169259
0.266576
0.186387
0.123441
0.123394
0.124267
0.296905
0.578364
0.835073
0.984161
0.999478
0.999583
0.999694
0.999598
0.766738
0.549701
0.855045
1
1
1
1
1
1
1
1
0.999992
0.999988
0.999988
0.999998
1
1
0.999993
0.999947
0.999962
0.999982
0.692327
0.194047
0.00313758
0.00333208
0.0034853
0.00351682
0.00358646
0.073681
0.307801
0.557689
0.597894
0.612815
0.619564
0.635518
0.654652
0.721952
0.766839
0.712964
0.575874
0.532697
0.77645
0.999991
1
1
1
1
1
1
1
1
0.999993
0.999988
0.999995
1
1
0.999991
0.999962
0.999952
0.999979
0.999998
0.00317146
0.00291543
0.00307985
0.00317255
0.00324554
0.145772
0.610406
0.613622
0.613622
0.427203
0.221988
0.295031
0.220436
0.0526735
0.0446132
0.0620346
0.0734444
0.053634
0.0604205
0.565538
0.999699
0.999998
1
1
1
1
1
1
1
1
0.999998
0.999997
1
1
0.999999
0.999972
0.999949
0.99995
0.999968
1
0.00287837
0.00289735
0.00291577
0.00431004
0.311619
0.593189
0.594328
0.178605
0.0131766
0.0337861
0.000966075
0.00108663
0.00022213
0.000153329
0.000220878
0.000313034
0.000346535
0.00132421
0.0118024
0.511666
0.999981
1
1
1
1
1
1
1
1
1
1
0.999999
1
1
0.999999
0.999982
0.999953
0.99995
0.99998
1
0.00287496
0.00287862
0.00292689
0.208403
0.690734
0.561978
0.0989495
1.95023e-05
1.38881e-05
1.72185e-05
1.59135e-05
2.33057e-05
1.81159e-05
1.77074e-05
2.09227e-05
2.27981e-05
5.18776e-05
0.000307699
0.0036208
0.198456
0.721537
0.928107
0.991943
1
1
1
1
1
1
1
1
1
1
1
0.999999
0.999997
0.999993
0.999992
0.999999
1
0.00287109
0.00291016
0.129043
0.724173
0.762288
0.319722
1.9526e-05
1.08059e-05
1.0642e-05
1.03547e-05
1.02847e-05
1.02936e-05
1.00935e-05
1.01656e-05
1.02253e-05
1.04447e-05
1.50081e-05
8.67634e-05
0.0017641
0.0174843
0.0942553
0.249051
0.43512
0.695687
0.899336
0.993197
1
1
1
1
1
1
1
1
1
1
1
0.999999
1
1
0.00289535
0.0663944
0.695096
0.963595
0.757663
0.0713046
1.08059e-05
1.06462e-05
1.04772e-05
1.02652e-05
1.02433e-05
1.01802e-05
1.02159e-05
1.01532e-05
1.01171e-05
1.01378e-05
1.02732e-05
2.50017e-05
0.000250278
0.000513784
0.00253112
0.00734884
0.020025
0.0830221
0.237115
0.435351
0.637511
0.787434
0.894249
0.968233
1
1
1
1
1
1
1
1
1
1
0.0189038
0.561175
0.978211
0.973075
0.640629
0.188594
0.370191
0.436599
0.0473642
1.02491e-05
1.02146e-05
1.02016e-05
1.01825e-05
1.02416e-05
1.02067e-05
1.01065e-05
1.0128e-05
1.02241e-05
1.44623e-05
5.13497e-05
0.000622738
0.00526025
0.0140579
0.0179535
0.00877921
0.00624578
0.0361685
0.100289
0.198223
0.330751
0.494854
0.664532
0.799775
0.929491
0.995186
1
1
1
0.999999
1
0.268551
0.951276
0.981465
0.879457
0.645891
0.696878
0.997945
0.987848
0.652434
0.0982126
1.02306e-05
1.01777e-05
1.01825e-05
1.01825e-05
1.02416e-05
1.01847e-05
1.01574e-05
1.0182e-05
1.03472e-05
1.85596e-05
0.00391268
0.0152469
0.0159434
0.0128268
0.00167043
0.000580751
0.000663903
0.0008185
0.00108961
0.00147322
0.00833487
0.0403791
0.109413
0.365659
0.904783
1
1
0.999998
1
1
0.617299
0.995891
0.986135
0.805084
0.684485
0.999905
0.99999
0.999933
0.997064
0.835598
0.345742
0.0261488
1.01825e-05
1.01986e-05
1.01905e-05
1.02169e-05
1.01771e-05
1.02062e-05
1.02447e-05
1.34336e-05
0.00295988
0.011833
0.0124973
0.00458228
0.000504651
0.000514014
0.000521104
0.000531558
0.000547984
0.000574442
0.000618097
0.00112084
0.00277298
0.13887
0.830396
0.999932
0.999997
0.999997
1
1
0.831866
0.99786
0.915272
0.791564
0.816111
0.999997
0.999998
0.999993
0.999933
0.999623
0.966228
0.724125
0.304345
0.0407546
1.02169e-05
1.01318e-05
1.0187e-05
1.02105e-05
1.02221e-05
1.03731e-05
0.000242178
0.000617738
0.00104578
0.000457178
0.000471218
0.00049064
0.000514017
0.000521117
0.000531661
0.000548279
0.000574442
0.000618097
0.0762821
0.42801
0.911709
0.999095
0.999975
0.999996
1
1
0.881398
0.999381
0.91756
0.791564
0.913806
0.999999
0.999998
0.999996
0.999988
0.999929
0.999677
0.998759
0.947012
0.740722
0.443259
0.225134
0.10945
0.0466386
0.00835455
1.40095e-05
1.67337e-05
5.10711e-05
0.000127415
0.000198216
0.000277756
0.000399339
0.00049064
0.00310448
0.0396188
0.100446
0.200918
0.385485
0.704277
0.938045
0.990122
0.999265
0.999971
0.999996
0.999999
1
0.852922
0.999915
0.964318
0.906078
0.988513
0.999999
0.999998
0.999995
0.999975
0.999971
0.999991
0.999877
0.999083
0.997326
0.97943
0.915487
0.826597
0.727248
0.621228
0.512758
0.437107
0.399068
0.385807
0.389001
0.427061
0.455179
0.511015
0.608446
0.704505
0.806113
0.897848
0.969179
0.99921
0.99983
0.999972
0.999907
0.999987
0.999998
1
1
0.754244
0.999965
0.998753
0.99988
0.999999
0.999999
0.999995
0.99997
0.999965
0.999986
0.999999
0.999995
0.999954
0.999862
0.999681
0.999414
0.999152
0.998942
0.998783
0.995084
0.987667
0.981858
0.97936
0.979997
0.986471
0.99035
0.995424
0.999089
0.999358
0.999595
0.999783
0.999906
0.999965
0.999993
0.999999
1
1
1
1
1
0.490617
0.999979
0.999994
0.999996
0.999999
1
0.999988
0.999965
0.999965
0.999974
0.999999
1
0.999998
0.999994
0.999986
0.999974
0.999959
0.999946
0.999935
0.999917
0.999902
0.999896
0.999899
0.999904
0.999912
0.999919
0.99993
0.999947
0.999964
0.999979
0.999989
0.999995
0.999998
1
1
1
1
1
1
0.999907
0.123258
0.903116
0.999997
0.999999
1
1
0.999994
0.999965
0.999965
0.999965
0.999995
1
1
1
0.999999
0.999999
0.999997
0.999997
0.999997
0.999996
0.999994
0.999994
0.999994
0.999994
0.999995
0.999995
0.999996
0.999997
0.999998
0.999999
0.999999
0.999999
1
1
1
1
0.999823
0.998618
0.997459
0.996324
0.0219054
0.413561
0.982141
1
1
1
0.999999
0.999989
0.999965
0.999965
0.999996
1
1
1
1
1
0.999999
0.999999
1
1
1
1
1
1
1
1
1
1
1
1
1
0.999999
0.999999
0.999987
0.998677
0.997327
0.996353
0.996162
0.996145
0.996145
0.0227916
0.0237462
0.583372
0.999964
1
1
1
1
0.99999
0.999987
0.999999
1
1
1
1
1
0.999999
0.999999
1
1
1
1
1
1
1
1
1
1
1
1
1
1
0.999912
0.997748
0.996275
0.996271
0.996272
0.996878
0.997185
0.997204
0.0240317
0.0246066
0.0390165
0.601642
0.999954
1
1
1
1
1
1
1
1
1
1
1
0.999996
0.999999
1
1
1
1
1
1
1
1
1
1
1
1
1
0.999999
0.999835
0.996897
0.996279
0.996385
0.998342
0.99972
0.999912
0.999931
0.0721919
0.034869
0.0217066
0.0389028
0.506113
0.96259
0.999999
1
1
1
1
1
1
1
1
0.999998
0.999995
0.999998
1
1
1
1
1
1
1
1
0.999999
1
1
0.999999
0.999999
0.999995
0.999863
0.998882
0.998259
0.999392
0.999986
0.999998
0.999998
0.999997
0.0934252
0.0508816
0.0182125
0.0163105
0.0221916
0.337844
0.835804
0.999989
1
1
1
1
1
1
1
0.999998
0.999995
0.999997
1
1
1
1
1
1
1
1
1
1
1
1
0.999999
0.999985
0.999944
0.999985
0.999971
0.999978
0.999998
0.999998
0.999998
0.999997
0.0929598
0.0370557
0.0163105
0.0151667
0.0141938
0.0135552
0.152153
0.589649
0.975266
0.999999
1
1
1
1
1
0.999999
0.999995
0.999996
0.999999
1
1
1
1
1
1
0.999999
1
1
1
1
0.999998
0.999995
0.999999
0.999993
0.999973
0.999962
0.999974
0.999988
0.999998
0.999998
0.136438
0.079079
0.0178995
0.0143141
0.0129093
0.0107782
0.0094261
0.034092
0.317073
0.815942
0.999989
1
1
1
1
1
0.999996
0.999996
0.999999
1
1
1
0.999997
0.999995
1
1
1
1
1
1
0.999999
1
1
0.999986
0.999967
0.999968
0.999963
0.999963
0.999974
1
0.536501
0.107735
0.0918866
0.0631724
0.0131673
0.00958607
0.00839056
0.00872825
0.00917407
0.109458
0.625878
0.999932
0.999999
1
1
1
0.999999
0.999996
0.999998
1
1
1
0.999994
0.999994
0.999998
1
1
1
1
1
1
1
1
0.999991
0.99999
0.99999
0.999988
0.999963
0.999982
1
0.82512
0.117064
0.0687809
0.0742958
0.0360034
0.00856429
0.00842314
0.00842633
0.00844567
0.00883724
0.0338249
0.543481
0.991146
0.999997
1
1
0.999999
0.999996
0.999997
1
1
1
0.999994
0.999994
0.999997
1
1
1
1
1
1
0.999999
1
1
1
0.999985
0.999963
0.999993
0.999999
1
0.874511
0.268472
0.0260564
0.0745549
0.0742958
0.00912286
0.00842315
0.00839553
0.0083738
0.00844468
0.00886167
0.0335639
0.610124
0.999792
0.999994
0.999999
0.999999
0.999998
0.999998
1
1
1
0.999996
0.999994
0.999998
1
1
1
1
1
1
1
1
1
0.999892
0.999836
0.999911
1
1
1
0.874191
0.338224
0.0233196
0.0269324
0.0729857
0.0171642
0.00842315
0.00842399
0.158058
0.354803
0.123255
0.040653
0.0950393
0.769124
0.99986
0.999989
0.999999
1
1
1
1
1
1
0.999997
1
1
1
1
1
1
1
1
0.999992
0.999865
0.999835
0.999835
0.999957
1
0.999992
0.999927
0.844417
0.236758
0.0176017
0.0172137
0.0258342
0.0183556
0.0491157
0.220779
0.707545
0.882518
0.7078
0.16194
0.0991257
0.3181
0.920156
0.999882
0.999996
1
1
1
1
1
1
1
1
1
0.999997
1
1
1
1
1
0.999949
0.999834
0.999835
0.999924
1
1
0.999865
0.997871
0.797833
0.0978123
0.0171891
0.0171435
0.0170826
0.0169893
0.0852907
0.643251
0.884262
0.887255
0.887996
0.672029
0.127207
0.15608
0.700991
0.999699
0.999986
1
1
1
1
1
1
1
1
1
0.999998
0.999763
0.999043
1
1
0.999995
0.999834
0.999834
0.999912
1
1
1
0.999476
0.99739
0.648703
0.0430429
0.0171755
0.0171809
0.0171231
0.0170532
0.0653393
0.666805
0.887993
0.887917
0.888185
0.888736
0.316568
0.167182
0.441026
0.965548
0.999949
0.999999
1
1
0.999997
0.999999
1
1
1
1
1
1
0.998114
0.999996
0.999994
0.999865
0.999834
0.999857
1
1
1
0.999962
0.998159
0.99739
0.432798
0.0191969
0.0170964
0.0171746
0.0171369
0.0171238
0.0449344
0.637639
0.888569
0.88831
0.887582
0.888486
0.629652
0.181993
0.295464
0.875408
0.999873
0.999996
0.999999
1
0.99999
0.999991
0.999999
1
1
1
0.999594
0.995713
0.998789
0.999996
0.99993
0.999846
0.999849
0.999981
1
1
1
0.999619
0.99739
0.99739
0.25631
0.0174075
0.0172372
0.0172223
0.017152
0.0171369
0.107673
0.703542
0.888672
0.887578
0.887587
0.887839
0.839151
0.2351
0.299792
0.828102
0.999845
0.999991
0.999995
0.999995
0.99999
0.99999
0.999999
1
1
1
0.999999
0.977087
0.999957
0.999996
0.999904
0.999848
0.999976
1
1
1
0.999996
0.998858
0.997391
0.997861
0.149368
0.0172934
0.0172507
0.0172572
0.0193389
0.131359
0.501154
0.858368
0.887785
0.88812
0.887838
0.888008
0.842085
0.263974
0.318838
0.84261
0.999232
0.999966
0.999996
0.99999
0.99999
0.99999
1
1
1
0.999999
0.972159
0.976995
1
0.999995
0.999958
0.99998
1
1
0.999999
1
0.999769
0.997467
0.997392
0.999747
0.0850663
0.0185045
0.0172614
0.0172598
0.0293412
0.414655
0.863742
0.886699
0.886962
0.884867
0.888065
0.8882
0.779621
0.275386
0.357939
0.893127
0.998701
0.999955
0.999998
0.999994
0.99999
0.999994
1
1
0.999999
0.965122
0.778927
0.993629
1
0.999997
0.999996
1
1
1
1
1
0.999424
0.997468
0.998079
0.999752
0.0495537
0.0296667
0.0366159
0.0172559
0.0306128
0.487617
0.886625
0.886925
0.884854
0.883809
0.887221
0.888209
0.52955
0.28071
0.499658
0.958465
0.999003
0.999976
0.999999
0.999998
0.999992
0.999998
1
0.999999
0.982809
0.597896
0.775052
1
1
0.999997
0.999998
1
1
0.999998
0.999997
0.999997
0.999631
0.997975
0.999861
0.99975
0.0309718
0.0324313
0.257915
0.0476732
0.105106
0.603055
0.886816
0.886306
0.885662
0.885361
0.886593
0.832035
0.300411
0.282849
0.794342
0.995984
0.999827
0.999999
0.999999
1
0.999999
0.999999
0.999998
0.991348
0.702853
0.584661
0.828536
1
1
0.999998
0.999999
1
1
0.999997
0.999996
0.999984
0.999833
0.999952
0.999984
0.999717
0.0242939
0.0319355
0.419687
0.457379
0.633701
0.865127
0.886456
0.885773
0.885904
0.886047
0.886451
0.410118
0.303604
0.455832
0.995709
0.999989
1
1
1
1
1
0.999999
0.999972
0.886127
0.469783
0.582952
0.991562
1
1
1
1
1
0.999999
0.999998
0.999998
0.999971
0.999886
0.999988
0.999963
0.999717
0.0227073
0.0501729
0.483373
0.627337
0.70625
0.881047
0.885834
0.886704
0.885762
0.885871
0.60019
0.362547
0.370372
0.929028
0.999968
1
1
1
1
1
0.999999
0.999983
0.960185
0.473994
0.469783
0.76416
1
1
1
1
1
0.999999
1
1
1
0.999966
0.999923
0.999988
0.999941
0.999726
0.022556
0.0241117
0.414724
0.51306
0.208798
0.534879
0.801886
0.692135
0.540328
0.617514
0.396137
0.385867
0.816328
0.999893
1
1
1
1
1
0.999999
0.999993
0.997271
0.662095
0.435198
0.501176
0.999461
1
1
1
0.999999
0.999997
1
0.999999
1
0.999995
0.999967
0.999985
0.999987
0.999952
0.999943
0.0218509
0.00757426
0.274603
0.437572
0.0875687
0.0455689
0.183932
0.107923
0.0360694
0.093053
0.479357
0.864524
0.999548
1.00001
0.999999
1
1
1
1
0.999996
0.999899
0.848337
0.354679
0.432117
0.853085
1
1
1
1
0.999997
0.999999
1
1
1
0.999993
0.999983
0.999989
0.999989
0.999967
0.999967
0.0159285
0.00751274
0.265266
0.439822
0.0894571
0.0020173
0.00412748
0.00811546
0.0178625
0.134283
0.754962
0.999114
0.999963
1
1
1
1
0.999999
0.999997
0.999936
0.926094
0.364822
0.354679
0.561906
0.999984
0.999997
0.999999
0.999811
0.999837
1
1
1
0.999995
0.999999
0.999998
0.999993
0.99999
0.999977
0.999904
0.999967
0.0108442
0.00751278
0.271329
0.414041
0.0411634
0.000996849
0.00139524
0.00390202
0.0143496
0.279566
0.975094
0.999906
0.999995
1
0.999999
0.999999
0.999999
0.999997
0.999971
0.976241
0.523403
0.300738
0.374368
0.951536
0.999971
0.999975
0.999777
0.99973
0.999736
1
0.999998
0.999961
0.999984
0.999999
0.999999
0.999986
0.99976
0.999419
0.999909
0.999963
0.00627482
0.0325838
0.32393
0.287495
0.00139193
0.000923948
0.000996967
0.00839209
0.0475115
0.442132
0.981703
0.999989
0.999999
0.999999
0.999999
0.999999
1
0.999995
0.999861
0.760933
0.265269
0.29429
0.754904
0.99991
0.999911
0.999808
0.99973
0.99973
0.999856
0.999993
0.999927
0.999927
0.999999
0.999999
0.999999
0.999998
0.997707
0.980091
0.949646
0.927694
0.00272249
0.0164834
0.238272
0.287564
0.0175488
0.000944152
0.000923997
0.00969345
0.138578
0.437633
0.965911
0.999998
0.999999
0.999999
0.999999
0.999999
0.999998
0.999966
0.917775
0.272176
0.265269
0.488019
0.999832
0.999908
0.999903
0.999731
0.99973