/*--------------------------------*- C++ -*----------------------------------*\
  =========                 |
  \\      /  F ield         | OpenFOAM: The Open Source CFD Toolbox
   \\    /   O peration     | Website:  https://openfoam.org
    \\  /    A nd           | Version:  8
     \\/     M anipulation  |
\*---------------------------------------------------------------------------*/
FoamFile
{
    version     2.0;
    format      ascii;
    class       volVectorField;
    location    "1.9";
    object      U;
}
// * * * * * * * * * * * * * * * * * * * * * * * * * * * * * * * * * * * * * //

dimensions      [0 1 -1 0 0 0 0];

internalField   nonuniform List<vector> 
9150
(
(0.0537644 -0.428484 0)
(0.0879849 -0.622367 0)
(0.0732281 -0.631507 0)
(0.0486441 -0.643761 0)
(0.017068 -0.654489 0)
(-0.0170388 -0.654492 0)
(-0.0486208 -0.64377 0)
(-0.0732121 -0.631514 0)
(-0.0879757 -0.622373 0)
(-0.0537607 -0.428504 0)
(0.0406504 -0.522637 0)
(0.0573948 -0.62576 0)
(0.0421776 -0.613257 0)
(0.029389 -0.622478 0)
(0.0105141 -0.628901 0)
(-0.0104969 -0.628903 0)
(-0.0293747 -0.622482 0)
(-0.0421668 -0.61326 0)
(-0.0573861 -0.625759 0)
(-0.0406457 -0.52265 0)
(0.0251862 -0.557874 0)
(0.0325356 -0.613928 0)
(0.0230851 -0.604513 0)
(0.0172567 -0.61 0)
(0.00626085 -0.613218 0)
(-0.00625186 -0.613219 0)
(-0.0172492 -0.610001 0)
(-0.0230798 -0.604515 0)
(-0.03253 -0.613927 0)
(-0.0251824 -0.557879 0)
(0.0153759 -0.584647 0)
(0.0175324 -0.607534 0)
(0.011763 -0.601159 0)
(0.00887792 -0.603282 0)
(0.00325086 -0.60441 0)
(-0.00324674 -0.60441 0)
(-0.00887447 -0.603283 0)
(-0.0117605 -0.601159 0)
(-0.0175292 -0.607533 0)
(-0.0153737 -0.584649 0)
(0.0063547 -0.597141 0)
(0.00563472 -0.601421 0)
(0.00357402 -0.600044 0)
(0.00268993 -0.600348 0)
(0.000998049 -0.600485 0)
(-0.000996469 -0.600485 0)
(-0.00268846 -0.600348 0)
(-0.00357284 -0.600044 0)
(-0.0056335 -0.601421 0)
(-0.00635395 -0.597142 0)
(0.46937 -1.16269 1.41508e-24)
(0.282815 -1.08595 0)
(0.163385 -1.06932 0)
(0.0922881 -1.0578 0)
(0.0305547 -1.05321 0)
(-0.0302041 -1.05326 0)
(-0.0919749 -1.05794 0)
(-0.163123 -1.06954 0)
(-0.282618 -1.08624 0)
(-0.469434 -1.16312 -1.41937e-24)
(0.333841 -0.843967 3.84871e-25)
(0.28744 -0.936647 0)
(0.188519 -0.936788 0)
(0.10824 -0.936776 0)
(0.0358544 -0.939232 0)
(-0.0356539 -0.939266 0)
(-0.108066 -0.93687 0)
(-0.188381 -0.936916 0)
(-0.287389 -0.936808 0)
(-0.333895 -0.844193 -3.85588e-25)
(0.278505 -0.702131 5.64454e-26)
(0.259184 -0.804622 0)
(0.178329 -0.817482 0)
(0.104601 -0.828354 0)
(0.0349103 -0.836538 0)
(-0.0347884 -0.836558 0)
(-0.104497 -0.828408 0)
(-0.178257 -0.817555 0)
(-0.259162 -0.804704 0)
(-0.278522 -0.702226 -5.6594e-26)
(0.199396 -0.554289 2.49371e-25)
(0.216753 -0.70942 0)
(0.154451 -0.725907 0)
(0.0913511 -0.742048 0)
(0.0305822 -0.753995 0)
(-0.0305071 -0.754008 0)
(-0.0912891 -0.742081 0)
(-0.154409 -0.725944 0)
(-0.216741 -0.709458 0)
(-0.199403 -0.554344 -2.49393e-25)
(0.118466 -0.44533 -3.97513e-25)
(0.15657 -0.644328 -5.68864e-25)
(0.116831 -0.663827 -1.8924e-25)
(0.0709385 -0.681241 -1.24133e-25)
(0.0239983 -0.694257 -7.16712e-27)
(-0.0239512 -0.694265 -7.15191e-27)
(-0.0709 -0.681258 -1.24092e-25)
(-0.116805 -0.663844 -1.89228e-25)
(-0.156559 -0.644344 -5.68893e-25)
(-0.118463 -0.44536 -3.97553e-25)
(0.0232218 -0.909481 0)
(-0.0338902 -1.33899 0)
(0.026351 -1.27177 0)
(-0.00158439 -1.22678 0)
(0.00442861 -1.22437 0)
(-0.00232276 -1.22493 0)
(0.00543838 -1.22677 0)
(-0.0226644 -1.27004 0)
(0.0371466 -1.3406 0)
(-0.0203224 -0.923545 0)
(0.0494884 -0.902666 0)
(-0.0201505 -1.33287 0)
(0.0246292 -1.27099 0)
(0.00217641 -1.2252 0)
(0.00167691 -1.223 0)
(-0.000205343 -1.22345 0)
(0.000643245 -1.22499 0)
(-0.0228819 -1.27082 0)
(0.0228435 -1.33426 0)
(-0.0487412 -0.910514 0)
(0.0766007 -0.941577 0)
(-0.021521 -1.34799 0)
(0.0178639 -1.2758 0)
(0.00640171 -1.23171 0)
(0.000613807 -1.22669 0)
(0.000691117 -1.22687 0)
(-0.00463465 -1.23166 0)
(-0.0169221 -1.27607 0)
(0.0238517 -1.34836 0)
(-0.0754903 -0.946877 0)
(0.142449 -1.07604 0)
(0.00323033 -1.36602 0)
(0.0162923 -1.27194 0)
(0.021919 -1.22593 0)
(0.00636595 -1.21458 0)
(-0.00535382 -1.21464 0)
(-0.0209624 -1.22618 0)
(-0.0157947 -1.27223 0)
(-0.00159672 -1.36629 0)
(-0.141812 -1.07874 0)
(0.29607 -1.21826 0)
(0.125438 -1.3217 0)
(0.0694853 -1.21052 0)
(0.0564804 -1.16901 0)
(0.0203157 -1.15666 0)
(-0.0197083 -1.15673 0)
(-0.0559878 -1.16926 0)
(-0.0689883 -1.21083 0)
(-0.12466 -1.32195 0)
(-0.295982 -1.21943 0)
(0.0111372 -0.0203646 0)
(0.0253694 -0.0201938 0)
(0.0395332 -0.01996 0)
(0.0535615 -0.0196612 0)
(0.0673975 -0.0192959 0)
(0.0809854 -0.0188652 0)
(0.0942698 -0.0183704 0)
(0.107195 -0.0178121 0)
(0.119707 -0.0171929 0)
(0.131748 -0.0165206 0)
(0.0170086 -0.0420355 0)
(0.0290936 -0.041912 0)
(0.0411305 -0.0416025 0)
(0.0530671 -0.0411136 0)
(0.0648457 -0.0404505 0)
(0.0764091 -0.0396158 0)
(0.087701 -0.0386105 0)
(0.0986651 -0.0374333 0)
(0.109244 -0.0360815 0)
(0.119383 -0.0345496 0)
(0.0207091 -0.0636524 0)
(0.031113 -0.0635398 0)
(0.0414862 -0.0631286 0)
(0.0517787 -0.0624286 0)
(0.0619369 -0.0614467 0)
(0.0719084 -0.0601865 0)
(0.0816406 -0.0586486 0)
(0.0910816 -0.0568314 0)
(0.10018 -0.0547315 0)
(0.108884 -0.0523447 0)
(0.0235732 -0.0830121 0)
(0.0325629 -0.082899 0)
(0.0415302 -0.0823845 0)
(0.0504293 -0.0814805 0)
(0.0592133 -0.0801952 0)
(0.0678357 -0.0785325 0)
(0.0762492 -0.0764931 0)
(0.0844071 -0.0740753 0)
(0.0922621 -0.0712759 0)
(0.0997664 -0.0680921 0)
(0.0258435 -0.099669 0)
(0.033563 -0.0995606 0)
(0.0412686 -0.098965 0)
(0.0489209 -0.0978937 0)
(0.0564794 -0.0963539 0)
(0.0639027 -0.0943483 0)
(0.0711486 -0.0918764 0)
(0.0781741 -0.0889353 0)
(0.0849357 -0.0855211 0)
(0.0913882 -0.0816312 0)
(0.0275223 -0.113879 0)
(0.0340777 -0.113787 0)
(0.0406308 -0.113138 0)
(0.0471488 -0.111938 0)
(0.0535967 -0.110194 0)
(0.059938 -0.107906 0)
(0.0661347 -0.10507 0)
(0.0721474 -0.10168 0)
(0.0779353 -0.097732 0)
(0.0834551 -0.0932197 0)
(0.0285534 -0.125844 0)
(0.0340341 -0.12579 0)
(0.039529 -0.12512 0)
(0.0450106 -0.123838 0)
(0.0504486 -0.121945 0)
(0.0558107 -0.119437 0)
(0.0610623 -0.116307 0)
(0.0661669 -0.112546 0)
(0.071086 -0.108144 0)
(0.0757777 -0.103092 0)
(0.0288418 -0.135729 0)
(0.0333373 -0.135747 0)
(0.0378674 -0.135099 0)
(0.0424086 -0.133785 0)
(0.0469342 -0.131802 0)
(0.0514152 -0.12914 0)
(0.0558202 -0.125789 0)
(0.0601151 -0.121733 0)
(0.0642634 -0.116957 0)
(0.0682243 -0.111446 0)
(0.0282851 -0.14372 0)
(0.0318965 -0.143847 0)
(0.0355636 -0.143268 0)
(0.0392658 -0.141976 0)
(0.0429797 -0.139962 0)
(0.0466796 -0.137213 0)
(0.050337 -0.133711 0)
(0.0539204 -0.129435 0)
(0.057395 -0.124363 0)
(0.0607212 -0.118471 0)
(0.0268158 -0.150034 0)
(0.029658 -0.150308 0)
(0.0325738 -0.149841 0)
(0.035546 -0.14862 0)
(0.0385546 -0.146632 0)
(0.0415778 -0.143858 0)
(0.0445905 -0.140273 0)
(0.0475649 -0.13585 0)
(0.0504687 -0.130557 0)
(0.0532638 -0.12436 0)
(0.0244369 -0.154916 0)
(0.0266321 -0.155367 0)
(0.0289137 -0.155047 0)
(0.0312684 -0.15394 0)
(0.033681 -0.152027 0)
(0.0361347 -0.149286 0)
(0.0386106 -0.145685 0)
(0.0410868 -0.141189 0)
(0.0435372 -0.135755 0)
(0.0459293 -0.129332 0)
(0.0212311 -0.158623 0)
(0.0229007 -0.159266 0)
(0.0246625 -0.159117 0)
(0.0265083 -0.158158 0)
(0.0284296 -0.156367 0)
(0.0304176 -0.15372 0)
(0.0324634 -0.15018 0)
(0.0345571 -0.145706 0)
(0.0366875 -0.140245 0)
(0.0388391 -0.133731 0)
(0.0173628 -0.161398 0)
(0.0186152 -0.162233 0)
(0.0199564 -0.162265 0)
(0.0213842 -0.161476 0)
(0.0228976 -0.159849 0)
(0.024498 -0.157357 0)
(0.0261892 -0.153969 0)
(0.0279776 -0.149644 0)
(0.0298729 -0.144328 0)
(0.0318851 -0.137957 0)
(0.0130659 -0.163451 0)
(0.0139879 -0.164455 0)
(0.0149839 -0.164656 0)
(0.016057 -0.164041 0)
(0.017213 -0.162596 0)
(0.0184613 -0.160302 0)
(0.0198158 -0.157137 0)
(0.0212961 -0.153068 0)
(0.0229272 -0.148054 0)
(0.0247381 -0.142048 0)
(0.00863233 -0.164942 0)
(0.00928639 -0.16607 0)
(0.00999028 -0.166404 0)
(0.0107504 -0.165935 0)
(0.0115763 -0.164658 0)
(0.0124815 -0.162563 0)
(0.0134851 -0.159638 0)
(0.0146123 -0.155866 0)
(0.0158946 -0.151224 0)
(0.0173708 -0.145687 0)
(0.00437829 -0.165976 0)
(0.00480497 -0.167171 0)
(0.00525412 -0.167584 0)
(0.00573256 -0.167213 0)
(0.00624973 -0.166058 0)
(0.00681866 -0.164119 0)
(0.00745723 -0.161396 0)
(0.00818908 -0.157888 0)
(0.00904352 -0.153591 0)
(0.0100596 -0.148503 0)
(0.00058219 -0.166612 0)
(0.000813545 -0.167821 0)
(0.00104372 -0.168258 0)
(0.00127682 -0.167926 0)
(0.0015189 -0.16683 0)
(0.00177847 -0.164977 0)
(0.00206761 -0.162377 0)
(0.00240276 -0.159043 0)
(0.00280506 -0.154988 0)
(0.00330417 -0.150231 0)
(-0.0025633 -0.16691 0)
(-0.00248607 -0.168094 0)
(-0.00242716 -0.168511 0)
(-0.00238664 -0.168164 0)
(-0.00236356 -0.167062 0)
(-0.00235594 -0.165218 0)
(-0.00235996 -0.162647 0)
(-0.00236935 -0.159371 0)
(-0.00237455 -0.155418 0)
(-0.00236036 -0.150823 0)
(-0.00493689 -0.166954 0)
(-0.00496184 -0.168091 0)
(-0.00501389 -0.168455 0)
(-0.00509756 -0.168052 0)
(-0.00521744 -0.16689 0)
(-0.00537864 -0.164982 0)
(-0.00558666 -0.162347 0)
(-0.00584727 -0.159009 0)
(-0.00616578 -0.155001 0)
(-0.00654583 -0.150365 0)
(-0.00649297 -0.166857 0)
(-0.00655471 -0.16794 0)
(-0.00664418 -0.16824 0)
(-0.00676825 -0.167758 0)
(-0.00693469 -0.166502 0)
(-0.00715292 -0.164482 0)
(-0.00743444 -0.161714 0)
(-0.00779315 -0.15822 0)
(-0.00824508 -0.15403 0)
(-0.00880682 -0.149186 0)
(-0.00722519 -0.166749 0)
(-0.00726135 -0.167787 0)
(-0.0073177 -0.168028 0)
(-0.00740085 -0.167472 0)
(-0.00751843 -0.166122 0)
(-0.00768013 -0.163985 0)
(-0.00789835 -0.161071 0)
(-0.00818888 -0.157394 0)
(-0.00857124 -0.152979 0)
(-0.00906711 -0.14786 0)
(-0.0071725 -0.166741 0)
(-0.00713437 -0.167754 0)
(-0.00710373 -0.16796 0)
(-0.00708481 -0.167357 0)
(-0.00708252 -0.165943 0)
(-0.00710363 -0.163722 0)
(-0.00715743 -0.160695 0)
(-0.00725645 -0.156873 0)
(-0.00741745 -0.152266 0)
(-0.0076611 -0.146897 0)
(-0.00639239 -0.166908 0)
(-0.00625392 -0.167922 0)
(-0.00610785 -0.168126 0)
(-0.00595538 -0.167515 0)
(-0.0057977 -0.166086 0)
(-0.00563707 -0.163838 0)
(-0.00547711 -0.160769 0)
(-0.00532305 -0.156883 0)
(-0.00518237 -0.152183 0)
(-0.00506458 -0.146678 0)
(-0.00496667 -0.167276 0)
(-0.00471994 -0.16832 0)
(-0.00445273 -0.168556 0)
(-0.00416435 -0.167977 0)
(-0.00385356 -0.166579 0)
(-0.00351956 -0.164362 0)
(-0.00316212 -0.161323 0)
(-0.00278129 -0.157463 0)
(-0.00237731 -0.152786 0)
(-0.00194934 -0.147299 0)
(-0.00297916 -0.167853 0)
(-0.0026226 -0.168946 0)
(-0.00223795 -0.169235 0)
(-0.00182423 -0.168712 0)
(-0.00137999 -0.167373 0)
(-0.000904429 -0.165215 0)
(-0.000397601 -0.162238 0)
(0.000139595 -0.158441 0)
(0.000705318 -0.153829 0)
(0.00129778 -0.148409 0)
(-0.000502213 -0.168646 0)
(-2.89005e-05 -0.169799 0)
(0.000474945 -0.17015 0)
(0.00101006 -0.169692 0)
(0.00157755 -0.168419 0)
(0.00217762 -0.166327 0)
(0.00280921 -0.163412 0)
(0.00346995 -0.159673 0)
(0.00415581 -0.155111 0)
(0.00486218 -0.14973 0)
(0.00240818 -0.169685 0)
(0.00301279 -0.170897 0)
(0.00364597 -0.171311 0)
(0.00430854 -0.170917 0)
(0.0050017 -0.169708 0)
(0.00572563 -0.167679 0)
(0.00647924 -0.164823 0)
(0.00726019 -0.161137 0)
(0.00806468 -0.156618 0)
(0.00888872 -0.151267 0)
(0.00571479 -0.171007 0)
(0.00646957 -0.172271 0)
(0.00724786 -0.17274 0)
(0.00805099 -0.172404 0)
(0.00888066 -0.171254 0)
(0.00973767 -0.169282 0)
(0.0106217 -0.166482 0)
(0.0115316 -0.162847 0)
(0.0124652 -0.158374 0)
(0.0134209 -0.15306 0)
(0.00939506 -0.172658 0)
(0.0103181 -0.173959 0)
(0.011258 -0.174472 0)
(0.0122168 -0.174183 0)
(0.0131967 -0.173082 0)
(0.0141992 -0.171161 0)
(0.0152249 -0.168412 0)
(0.0162738 -0.164827 0)
(0.0173455 -0.160403 0)
(0.0184407 -0.155137 0)
(0.0134365 -0.174667 0)
(0.0145396 -0.175993 0)
(0.0156538 -0.176536 0)
(0.0167811 -0.176282 0)
(0.0179236 -0.17522 0)
(0.019083 -0.173339 0)
(0.02026 -0.170632 0)
(0.0214554 -0.167092 0)
(0.0226695 -0.162713 0)
(0.0239044 -0.157496 0)
(0.0178133 -0.177048 0)
(0.0191045 -0.178389 0)
(0.020403 -0.178953 0)
(0.0217092 -0.178722 0)
(0.0230246 -0.177687 0)
(0.02435 -0.175834 0)
(0.025686 -0.173157 0)
(0.0270327 -0.169649 0)
(0.0283904 -0.165305 0)
(0.0297611 -0.160127 0)
(0.0224752 -0.179816 0)
(0.0239663 -0.181168 0)
(0.0254601 -0.181743 0)
(0.0269555 -0.181525 0)
(0.0284528 -0.180502 0)
(0.0299519 -0.178662 0)
(0.0314522 -0.175998 0)
(0.0329532 -0.172503 0)
(0.034454 -0.168174 0)
(0.0359555 -0.163014 0)
(0.0273776 -0.183002 0)
(0.0290806 -0.184355 0)
(0.0307798 -0.184929 0)
(0.032473 -0.184708 0)
(0.034159 -0.18368 0)
(0.0358365 -0.181833 0)
(0.0375039 -0.17916 0)
(0.0391591 -0.175654 0)
(0.0408002 -0.171314 0)
(0.0424266 -0.166142 0)
(0.032488 -0.186627 0)
(0.0344111 -0.187968 0)
(0.0363224 -0.188526 0)
(0.038218 -0.188284 0)
(0.0400955 -0.187229 0)
(0.0419522 -0.185351 0)
(0.0437852 -0.182643 0)
(0.0455911 -0.179098 0)
(0.0473665 -0.174714 0)
(0.0491092 -0.169493 0)
(0.037781 -0.190706 0)
(0.0399281 -0.192019 0)
(0.0420532 -0.192541 0)
(0.044151 -0.192254 0)
(0.0462177 -0.191148 0)
(0.0482493 -0.189212 0)
(0.0502414 -0.186437 0)
(0.0521895 -0.182819 0)
(0.0540886 -0.178355 0)
(0.0559351 -0.173047 0)
(0.0432359 -0.195244 0)
(0.0456064 -0.196508 0)
(0.047942 -0.19697 0)
(0.0502361 -0.196613 0)
(0.0524837 -0.195426 0)
(0.0546795 -0.193398 0)
(0.0568182 -0.190523 0)
(0.058894 -0.186794 0)
(0.0609005 -0.182209 0)
(0.0628326 -0.17677 0)
(0.0488421 -0.200238 0)
(0.0514284 -0.201427 0)
(0.0539637 -0.201798 0)
(0.0564405 -0.201338 0)
(0.0588529 -0.200035 0)
(0.0611949 -0.197881 0)
(0.0634601 -0.194866 0)
(0.0656417 -0.190986 0)
(0.0677321 -0.186237 0)
(0.0697249 -0.18062 0)
(0.054596 -0.205669 0)
(0.0573807 -0.206747 0)
(0.0600952 -0.206991 0)
(0.0627313 -0.206391 0)
(0.0652829 -0.204935 0)
(0.0677435 -0.202613 0)
(0.0701061 -0.199417 0)
(0.072363 -0.195341 0)
(0.0745056 -0.19038 0)
(0.076526 -0.184536 0)
(0.0604973 -0.211495 0)
(0.0634501 -0.21242 0)
(0.0663102 -0.212496 0)
(0.06907 -0.211713 0)
(0.0717234 -0.21006 0)
(0.0742641 -0.207527 0)
(0.0766846 -0.204105 0)
(0.0789766 -0.199787 0)
(0.0811305 -0.194567 0)
(0.0831369 -0.188444 0)
(0.0665417 -0.217643 0)
(0.0696153 -0.218367 0)
(0.0725723 -0.218228 0)
(0.0754056 -0.217217 0)
(0.0781102 -0.215323 0)
(0.0806798 -0.212534 0)
(0.083107 -0.208842 0)
(0.085383 -0.204235 0)
(0.0874974 -0.198706 0)
(0.0894391 -0.192251 0)
(0.0727056 -0.224002 0)
(0.0758348 -0.224474 0)
(0.0788234 -0.224073 0)
(0.0816656 -0.222788 0)
(0.0843568 -0.220608 0)
(0.0868914 -0.21752 0)
(0.0892621 -0.213512 0)
(0.0914597 -0.20857 0)
(0.0934729 -0.202684 0)
(0.0952894 -0.195845 0)
(0.0789267 -0.230422 0)
(0.0820313 -0.230595 0)
(0.0849738 -0.229885 0)
(0.0877485 -0.228283 0)
(0.090351 -0.225774 0)
(0.0927756 -0.222344 0)
(0.0950148 -0.217977 0)
(0.0970596 -0.212658 0)
(0.0988983 -0.20637 0)
(0.100518 -0.199098 0)
(0.08508 -0.236727 0)
(0.0880773 -0.23656 0)
(0.0908943 -0.235503 0)
(0.0935233 -0.233541 0)
(0.0959583 -0.230661 0)
(0.098192 -0.226846 0)
(0.100217 -0.222079 0)
(0.102023 -0.216339 0)
(0.1036 -0.209604 0)
(0.104935 -0.201854 0)
(0.090964 -0.24275 0)
(0.0937909 -0.242215 0)
(0.0964212 -0.240772 0)
(0.0988418 -0.238409 0)
(0.101042 -0.23511 0)
(0.103011 -0.230858 0)
(0.104737 -0.225637 0)
(0.106211 -0.219424 0)
(0.107423 -0.212195 0)
(0.108364 -0.203921 0)
(0.0963087 -0.248397 0)
(0.0989502 -0.247467 0)
(0.101377 -0.2456 0)
(0.103567 -0.242781 0)
(0.105502 -0.238997 0)
(0.107161 -0.234234 0)
(0.108527 -0.228477 0)
(0.109585 -0.22171 0)
(0.110322 -0.213911 0)
(0.11073 -0.205051 0)
(0.100814 -0.253699 0)
(0.103324 -0.252346 0)
(0.105599 -0.250004 0)
(0.107606 -0.246657 0)
(0.109313 -0.242295 0)
(0.110687 -0.236906 0)
(0.111697 -0.230481 0)
(0.112314 -0.22301 0)
(0.112506 -0.214481 0)
(0.112243 -0.204878 0)
(0.104174 -0.258845 0)
(0.106684 -0.257035 0)
(0.10894 -0.254161 0)
(0.110901 -0.250205 0)
(0.112523 -0.245152 0)
(0.113762 -0.238989 0)
(0.114573 -0.231705 0)
(0.114906 -0.223287 0)
(0.114702 -0.213719 0)
(0.113888 -0.202978 0)
(0.106088 -0.264164 0)
(0.108779 -0.26188 0)
(0.111214 -0.258444 0)
(0.113348 -0.253835 0)
(0.115138 -0.248035 0)
(0.116544 -0.24103 0)
(0.117526 -0.232807 0)
(0.118047 -0.223349 0)
(0.11808 -0.21262 0)
(0.11763 -0.200544 0)
(0.106194 -0.270036 0)
(0.109239 -0.26729 0)
(0.112035 -0.263306 0)
(0.114538 -0.258065 0)
(0.116711 -0.25156 0)
(0.118521 -0.243793 0)
(0.119949 -0.234767 0)
(0.121007 -0.224476 0)
(0.121789 -0.212873 0)
(0.122497 -0.199905 0)
(0.104092 -0.276749 0)
(0.1076 -0.273554 0)
(0.110861 -0.269033 0)
(0.113827 -0.263174 0)
(0.116454 -0.255985 0)
(0.118713 -0.24749 0)
(0.120614 -0.237712 0)
(0.122231 -0.226673 0)
(0.123611 -0.214549 0)
(0.124476 -0.202014 0)
(0.0994157 -0.284467 0)
(0.103434 -0.280836 0)
(0.107204 -0.275779 0)
(0.110665 -0.269295 0)
(0.113776 -0.261408 0)
(0.116546 -0.252157 0)
(0.119039 -0.241604 0)
(0.121062 -0.230026 0)
(0.122128 -0.21807 0)
(0.121855 -0.205565 0)
(0.0917853 -0.293198 0)
(0.0962651 -0.289127 0)
(0.100466 -0.283505 0)
(0.104312 -0.276334 0)
(0.107769 -0.26765 0)
(0.11084 -0.257556 0)
(0.113169 -0.246395 0)
(0.114355 -0.234559 0)
(0.114159 -0.220896 0)
(0.109034 -0.200697 0)
(0.0809513 -0.302777 0)
(0.0857856 -0.298207 0)
(0.0902942 -0.291888 0)
(0.0943798 -0.283795 0)
(0.0979211 -0.274007 0)
(0.100413 -0.262915 0)
(0.101657 -0.25096 0)
(0.101488 -0.236966 0)
(0.0923846 -0.204859 0)
(0.0326893 -0.0677966 0)
(0.0668712 -0.312979 0)
(0.0719694 -0.307822 0)
(0.076733 -0.300599 0)
(0.0809657 -0.291238 0)
(0.0839509 -0.279948 0)
(0.0853787 -0.2673 0)
(0.0854194 -0.252949 0)
(0.0739378 -0.210282 0)
(0.0164965 -0.0808658 0)
(-0.0225906 0.0104323 0)
(0.049703 -0.323613 0)
(0.0550101 -0.317836 0)
(0.0600379 -0.30959 0)
(0.0641585 -0.298727 0)
(0.0664655 -0.285095 0)
(0.0669196 -0.268421 0)
(0.0625901 -0.223242 0)
(0.0115009 -0.0817322 0)
(-0.0260534 -0.00422967 0)
(-0.0386922 0.0491965 0)
(0.0298405 -0.334409 0)
(0.0352779 -0.328068 0)
(0.0404705 -0.318822 0)
(0.0442607 -0.30642 0)
(0.0464758 -0.28943 0)
(0.0440458 -0.249186 0)
(0.0166576 -0.13525 0)
(-0.00496823 -0.055719 0)
(-0.0281563 0.0141285 0)
(-0.0449868 0.0745095 0)
(0.00833628 -0.345179 0)
(0.0139313 -0.338519 0)
(0.0191448 -0.328732 0)
(0.0231712 -0.315204 0)
(0.0264662 -0.294521 0)
(0.0215267 -0.187168 0)
(-0.00620525 -0.0919048 0)
(-0.0199707 -0.0278307 0)
(-0.0379779 0.0403912 0)
(-0.0557734 0.0845755 0)
(-0.0134252 -0.356012 0)
(-0.00758325 -0.349399 0)
(-0.00217199 -0.339688 0)
(0.00231057 -0.325906 0)
(0.00688574 -0.301801 0)
(0.00793132 -0.142361 0)
(-0.0133061 -0.0552516 0)
(-0.0264901 0.00431722 0)
(-0.0424642 0.0830275 0)
(-0.0565775 0.0948869 0)
(-0.0342934 -0.367181 0)
(-0.0280877 -0.360954 0)
(-0.0222869 -0.35184 0)
(-0.0173534 -0.33868 0)
(-0.0118185 -0.311823 0)
(0.000274134 -0.122298 0)
(-0.0121065 -0.033526 0)
(-0.0211315 0.0289152 0)
(-0.0411152 0.110079 0)
(-0.0483988 0.104855 0)
(-0.053646 -0.379086 0)
(-0.0469551 -0.373462 0)
(-0.0404362 -0.365206 0)
(-0.0352517 -0.353602 0)
(-0.0298653 -0.330592 0)
(-0.0057182 -0.129957 0)
(-0.00848934 -0.00813739 0)
(-0.012475 0.0649229 0)
(-0.0340231 0.12224 0)
(-0.0406076 0.114655 0)
(-0.0717234 -0.392028 0)
(-0.0645111 -0.387114 0)
(-0.0571749 -0.379547 0)
(-0.0514273 -0.368621 0)
(-0.0447388 -0.346315 0)
(-0.0186485 -0.183504 0)
(-0.00408663 0.00745567 0)
(-0.00716064 0.0850015 0)
(-0.0223559 0.135025 0)
(-0.0324911 0.126705 0)
(-0.089181 -0.40578 0)
(-0.0817041 -0.401728 0)
(-0.0737462 -0.394933 0)
(-0.0672285 -0.384555 0)
(-0.0598971 -0.363073 0)
(-0.0399555 -0.264789 0)
(-0.00873696 0.00240306 0)
(-0.00857614 0.0955288 0)
(-0.0127646 0.149872 0)
(-0.0231932 0.139728 0)
(-0.105489 -0.420001 0)
(-0.0978039 -0.416997 0)
(-0.0892166 -0.411417 0)
(-0.0815708 -0.402655 0)
(-0.0737556 -0.385655 0)
(-0.05943 -0.325895 0)
(-0.0124036 -0.0156407 0)
(-0.00565751 0.090934 0)
(0.00132643 0.145851 0)
(-0.00896558 0.15258 0)
(-0.12031 -0.434618 0)
(-0.112478 -0.432736 0)
(-0.103573 -0.428608 0)
(-0.0948892 -0.422083 0)
(-0.0875671 -0.410792 0)
(-0.0782263 -0.375773 0)
(-0.0175195 -0.0740077 0)
(0.000817143 0.0694733 0)
(0.0165176 0.133663 0)
(0.0132874 0.164666 0)
(-0.13327 -0.449879 0)
(-0.125136 -0.44913 0)
(-0.116056 -0.446502 0)
(-0.106557 -0.442406 0)
(-0.0994197 -0.436739 0)
(-0.0903273 -0.421892 0)
(-0.0313816 -0.189098 0)
(0.0287379 0.0342798 0)
(0.0510986 0.131998 0)
(0.0550226 0.176346 0)
(-0.144858 -0.465873 0)
(-0.136428 -0.466041 0)
(-0.12737 -0.464299 0)
(-0.117714 -0.461026 0)
(-0.109326 -0.456134 0)
(-0.101163 -0.445134 0)
(-0.0840074 -0.397762 0)
(0.025596 -0.0758911 0)
(0.0712714 0.105605 0)
(0.0892174 0.18455 0)
(-0.154859 -0.482678 0)
(-0.145922 -0.483589 0)
(-0.136596 -0.482522 0)
(-0.126746 -0.479793 0)
(-0.116989 -0.475689 0)
(-0.109438 -0.46947 0)
(-0.0987243 -0.4496 0)
(-0.0430788 -0.280804 0)
(0.0668922 0.020107 0)
(0.115516 0.155621 0)
(-0.162806 -0.501053 0)
(-0.152769 -0.502639 0)
(-0.142358 -0.502062 0)
(-0.13157 -0.499634 0)
(-0.120479 -0.495759 0)
(-0.110279 -0.490711 0)
(-0.101026 -0.482366 0)
(-0.0837111 -0.45158 0)
(0.0113608 -0.235386 0)
(0.143549 0.0515003 0)
(-0.169576 -0.522003 0)
(-0.158125 -0.524506 0)
(-0.1462 -0.524688 0)
(-0.13385 -0.522722 0)
(-0.121154 -0.518857 0)
(-0.108429 -0.5133 0)
(-0.0969153 -0.505842 0)
(-0.084685 -0.49307 0)
(-0.060056 -0.45235 0)
(0.0657646 -0.242667 0)
(-0.176275 -0.545727 0)
(-0.163439 -0.549289 0)
(-0.150139 -0.550409 0)
(-0.136442 -0.549188 0)
(-0.122435 -0.545697 0)
(-0.108317 -0.539922 0)
(-0.0945663 -0.531593 0)
(-0.0819624 -0.519861 0)
(-0.0672891 -0.499548 0)
(-0.0325625 -0.442346 0)
(-0.183352 -0.572229 0)
(-0.169061 -0.576746 0)
(-0.154407 -0.578653 0)
(-0.139489 -0.578045 0)
(-0.124389 -0.574946 0)
(-0.109205 -0.569271 0)
(-0.0940699 -0.560706 0)
(-0.0790871 -0.548611 0)
(-0.0640938 -0.532003 0)
(-0.0453732 -0.505433 0)
(-0.190996 -0.601903 0)
(-0.174981 -0.607166 0)
(-0.158756 -0.60956 0)
(-0.142468 -0.609245 0)
(-0.126221 -0.606305 0)
(-0.110071 -0.600721 0)
(-0.0940023 -0.592327 0)
(-0.0777923 -0.580685 0)
(-0.0611018 -0.565156 0)
(-0.0444207 -0.544903 0)
(-0.19928 -0.635449 0)
(-0.181113 -0.641187 0)
(-0.162904 -0.64363 0)
(-0.144885 -0.643051 0)
(-0.127224 -0.639655 0)
(-0.110033 -0.63356 0)
(-0.0933432 -0.624795 0)
(-0.0769684 -0.613304 0)
(-0.0604097 -0.598939 0)
(-0.0440696 -0.581518 0)
(-0.207964 -0.673894 0)
(-0.187074 -0.679941 0)
(-0.166226 -0.682063 0)
(-0.145726 -0.680688 0)
(-0.125795 -0.676172 0)
(-0.106577 -0.668784 0)
(-0.088133 -0.658713 0)
(-0.0703562 -0.646103 0)
(-0.052855 -0.631094 0)
(-0.0358728 -0.613869 0)
(-0.216738 -0.718244 0)
(-0.192746 -0.72465 0)
(-0.168803 -0.726311 0)
(-0.145283 -0.723884 0)
(-0.122453 -0.71792 0)
(-0.100479 -0.708863 0)
(-0.0794446 -0.697056 0)
(-0.0592867 -0.682767 0)
(-0.0396428 -0.666198 0)
(-0.0207696 -0.647448 0)
(-0.224678 -0.768926 0)
(-0.1976 -0.775837 0)
(-0.170526 -0.777017 0)
(-0.143887 -0.773417 0)
(-0.11798 -0.765836 0)
(-0.0929855 -0.754922 0)
(-0.0690012 -0.741183 0)
(-0.0458993 -0.725007 0)
(-0.0231465 -0.706652 0)
(-0.00114706 -0.686159 0)
(-0.229847 -0.825414 0)
(-0.200364 -0.832996 0)
(-0.170757 -0.833767 0)
(-0.141511 -0.828999 0)
(-0.112952 -0.819764 0)
(-0.0853008 -0.80694 0)
(-0.0586775 -0.791225 0)
(-0.0329004 -0.773176 0)
(-0.00731315 -0.753171 0)
(0.0171306 -0.731431 0)
(-0.229749 -0.88547 0)
(-0.199325 -0.894073 0)
(-0.168504 -0.894745 0)
(-0.137792 -0.889054 0)
(-0.107564 -0.878335 0)
(-0.0781032 -0.86367 0)
(-0.049585 -0.845929 0)
(-0.0218016 -0.825827 0)
(0.00592259 -0.803943 0)
(0.0310117 -0.780779 0)
(-0.223075 -0.945258 0)
(-0.193465 -0.955608 0)
(-0.163209 -0.956877 0)
(-0.132629 -0.950915 0)
(-0.102134 -0.939272 0)
(-0.0720681 -0.92319 0)
(-0.0426502 -0.903643 0)
(-0.0137285 -0.881422 0)
(0.0152216 -0.857247 0)
(0.0394084 -0.832035 0)
(-0.210465 -1.0009 0)
(-0.183086 -1.01379 0)
(-0.155061 -1.01656 0)
(-0.126325 -1.01125 0)
(-0.0971801 -0.999584 0)
(-0.0680043 -0.982881 0)
(-0.0390012 -0.962125 0)
(-0.00997261 -0.938038 0)
(0.0191463 -0.911196 0)
(0.0414727 -0.882424 0)
(-0.193226 -1.04987 0)
(-0.169152 -1.06553 0)
(-0.144509 -1.07054 0)
(-0.118958 -1.06681 0)
(-0.0925893 -1.05608 0)
(-0.0657143 -1.03973 0)
(-0.0384577 -1.0187 0)
(-0.0105133 -0.993605 0)
(0.0174605 -0.964901 0)
(0.0384669 -0.931752 0)
(-0.172476 -1.09032 0)
(-0.152652 -1.10891 0)
(-0.131941 -1.11671 0)
(-0.110257 -1.11528 0)
(-0.0875014 -1.10635 0)
(-0.0638623 -1.09132 0)
(-0.039336 -1.07113 0)
(-0.0134697 -1.04634 0)
(0.0125641 -1.01727 0)
(0.0322803 -0.981425 0)
(-0.14946 -1.12266 0)
(-0.134789 -1.14369 0)
(-0.118013 -1.15445 0)
(-0.10023 -1.15577 0)
(-0.0813341 -1.14916 0)
(-0.0614049 -1.13615 0)
(-0.0403145 -1.11774 0)
(-0.0174302 -1.09451 0)
(0.00576447 -1.06673 0)
(0.0237755 -1.03085 0)
(-0.127476 -1.14748 0)
(-0.117084 -1.1709 0)
(-0.1037 -1.18465 0)
(-0.0892861 -1.18868 0)
(-0.073956 -1.18435 0)
(-0.0577878 -1.17336 0)
(-0.0406056 -1.15694 0)
(-0.0218273 -1.13573 0)
(-0.00277966 -1.11006 0)
(0.0128157 -1.07568 0)
(-0.106953 -1.16477 0)
(-0.0994426 -1.1919 0)
(-0.08879 -1.20868 0)
(-0.0772111 -1.21498 0)
(-0.0650378 -1.21233 0)
(-0.0523574 -1.20278 0)
(-0.0390218 -1.18784 0)
(-0.0245982 -1.16827 0)
(-0.0101273 -1.14443 0)
(0.00214001 -1.11212 0)
(-0.0888319 -1.17766 0)
(-0.0828429 -1.20879 0)
(-0.0739736 -1.22792 0)
(-0.06455 -1.23575 0)
(-0.0549254 -1.23402 0)
(-0.0451211 -1.22515 0)
(-0.0350416 -1.21087 0)
(-0.0243813 -1.19195 0)
(-0.0136885 -1.16837 0)
(-0.00410881 -1.13442 0)
(-0.0744364 -1.1902 0)
(-0.0687923 -1.22434 0)
(-0.0606477 -1.24435 0)
(-0.0524145 -1.25279 0)
(-0.0443975 -1.25138 0)
(-0.0363881 -1.24269 0)
(-0.0282388 -1.22864 0)
(-0.0196251 -1.21009 0)
(-0.0107036 -1.18717 0)
(-0.00257425 -1.1551 0)
(-0.062002 -1.20552 0)
(-0.0566842 -1.24003 0)
(-0.0489305 -1.25944 0)
(-0.0414657 -1.26774 0)
(-0.0344924 -1.26638 0)
(-0.0275077 -1.25789 0)
(-0.0202037 -1.24421 0)
(-0.0120945 -1.22624 0)
(-0.00335809 -1.20419 0)
(0.00399765 -1.17372 0)
(-0.0500199 -1.22497 0)
(-0.045494 -1.25612 0)
(-0.0385442 -1.27331 0)
(-0.0320369 -1.28089 0)
(-0.0261573 -1.27959 0)
(-0.020206 -1.27154 0)
(-0.0137749 -1.25869 0)
(-0.00630962 -1.24194 0)
(0.00179703 -1.22169 0)
(0.00765464 -1.19425 0)
(-0.0365615 -1.24544 0)
(-0.0335132 -1.27054 0)
(-0.0284442 -1.28465 0)
(-0.0236321 -1.29137 0)
(-0.019255 -1.29033 0)
(-0.0146617 -1.28299 0)
(-0.00946776 -1.2713 0)
(-0.00315522 -1.25612 0)
(0.00382582 -1.23787 0)
(0.00890728 -1.21377 0)
(-0.0217706 -1.26201 0)
(-0.0206658 -1.28051 0)
(-0.0183332 -1.29172 0)
(-0.0159171 -1.29795 0)
(-0.0134954 -1.29748 0)
(-0.0107681 -1.29091 0)
(-0.00755144 -1.28051 0)
(-0.00328488 -1.26705 0)
(0.00197529 -1.2502 0)
(0.00674781 -1.22512 0)
(-0.00706836 -1.27096 0)
(-0.00800392 -1.28433 0)
(-0.00858344 -1.29366 0)
(-0.00860118 -1.30026 0)
(-0.00807396 -1.30075 0)
(-0.00721725 -1.29476 0)
(-0.00602304 -1.28543 0)
(-0.00405137 -1.27392 0)
(-0.000800532 -1.2599 0)
(0.0028495 -1.23958 0)
(0.00602447 -1.27168 0)
(0.00311046 -1.28179 0)
(-0.000103308 -1.29074 0)
(-0.00195697 -1.29902 0)
(-0.00297401 -1.30067 0)
(-0.00375772 -1.2953 0)
(-0.00384506 -1.28691 0)
(-0.00325509 -1.2771 0)
(-0.00151679 -1.26598 0)
(5.62079e-05 -1.25093 0)
(0.0159348 -1.26461 0)
(0.01133 -1.27337 0)
(0.00616225 -1.28418 0)
(0.00340394 -1.29543 0)
(0.00106647 -1.29707 0)
(-0.00170012 -1.29286 0)
(-0.00289275 -1.28557 0)
(-0.00394711 -1.27703 0)
(-0.00484917 -1.26865 0)
(-0.00600014 -1.25946 0)
(0.0219157 -1.25052 0)
(0.0160764 -1.26011 0)
(0.0100967 -1.27631 0)
(0.00726284 -1.29071 0)
(0.00410442 -1.28962 0)
(-0.000956463 -1.28744 0)
(-0.00282019 -1.28173 0)
(-0.00506645 -1.27269 0)
(-0.00860909 -1.26446 0)
(-0.0117703 -1.25806 0)
(0.0235819 -1.22966 0)
(0.0173936 -1.24388 0)
(0.0124294 -1.27052 0)
(0.00933156 -1.28505 0)
(0.00621845 -1.27926 0)
(-0.0012142 -1.27946 0)
(-0.00347919 -1.27727 0)
(-0.00580833 -1.26625 0)
(-0.0108676 -1.25434 0)
(-0.0155328 -1.24723 0)
(0.0205236 -1.20144 0)
(0.015603 -1.22838 0)
(0.0145845 -1.26967 0)
(0.00954439 -1.27737 0)
(0.00747148 -1.2678 0)
(-0.00193657 -1.26909 0)
(-0.00441279 -1.27303 0)
(-0.00639536 -1.26164 0)
(-0.0104232 -1.24076 0)
(-0.0155268 -1.22791 0)
(0.0125945 -1.16318 0)
(0.0105828 -1.21952 0)
(0.0182134 -1.27304 0)
(0.00856291 -1.26653 0)
(0.008034 -1.2559 0)
(-0.00301109 -1.25681 0)
(-0.00505648 -1.26632 0)
(-0.00914924 -1.2629 0)
(-0.00663317 -1.22848 0)
(-0.0103063 -1.19617 0)
(0.00497353 -1.11051 0)
(0.00199085 -1.22419 0)
(0.0239991 -1.27575 0)
(0.00700153 -1.25236 0)
(0.00814749 -1.24358 0)
(-0.00400827 -1.24397 0)
(-0.00391118 -1.25333 0)
(-0.0163563 -1.26859 0)
(0.00108072 -1.2278 0)
(-0.00331833 -1.14242 0)
(0.0118886 -1.03521 0)
(-0.011647 -1.25664 0)
(0.0285545 -1.2748 0)
(0.00304816 -1.23734 0)
(0.00707402 -1.23225 0)
(-0.00372788 -1.23268 0)
(0.00114053 -1.23752 0)
(-0.0231963 -1.27198 0)
(0.0150904 -1.26077 0)
(-0.00833118 -1.05522 0)
(0.143927 -0.0157514 0)
(0.156059 -0.01482 0)
(0.16734 -0.0137634 0)
(0.177692 -0.012601 0)
(0.187033 -0.0113477 0)
(0.195287 -0.0100121 0)
(0.202387 -0.00860019 0)
(0.208271 -0.00711715 0)
(0.212888 -0.00556561 0)
(0.216194 -0.00393954 0)
(0.21815 -0.00220931 0)
(0.218824 -0.000337473 0)
(0.217883 0.00151271 0)
(0.21548 0.00329327 0)
(0.211767 0.00496552 0)
(0.206852 0.00649161 0)
(0.200833 0.00785083 0)
(0.193819 0.0090402 0)
(0.185922 0.0100664 0)
(0.177252 0.0109402 0)
(0.167909 0.0116743 0)
(0.157988 0.0122819 0)
(0.147579 0.0127752 0)
(0.136762 0.0131655 0)
(0.125617 0.0134615 0)
(0.114216 0.0136689 0)
(0.102635 0.0137887 0)
(0.0909506 0.0138152 0)
(0.0792523 0.0137324 0)
(0.0676465 0.0135076 0)
(0.056271 0.0130815 0)
(0.0453112 0.0123561 0)
(0.0350106 0.0111884 0)
(0.0256765 0.00938799 0)
(0.0178484 0.00684014 0)
(0.0116162 0.00545247 0)
(0.00593985 0.0078508 0)
(-0.00223873 0.0104677 0)
(-0.00962219 -0.000840964 0)
(-0.00532666 -0.0157339 0)
(0.129639 -0.0327265 0)
(0.139831 -0.0305656 0)
(0.149249 -0.0281792 0)
(0.157825 -0.0255819 0)
(0.165499 -0.022789 0)
(0.172216 -0.0198186 0)
(0.177929 -0.0166926 0)
(0.182602 -0.0134365 0)
(0.186216 -0.0100776 0)
(0.188773 -0.00664272 0)
(0.190281 -0.00315831 0)
(0.190753 0.000354592 0)
(0.190381 0.00382974 0)
(0.189175 0.00717493 0)
(0.187104 0.0103309 0)
(0.184171 0.0132644 0)
(0.180414 0.0159573 0)
(0.175878 0.0184019 0)
(0.170612 0.0205983 0)