/*--------------------------------*- C++ -*----------------------------------*\
  =========                 |
  \\      /  F ield         | OpenFOAM: The Open Source CFD Toolbox
   \\    /   O peration     | Website:  https://openfoam.org
    \\  /    A nd           | Version:  8
     \\/     M anipulation  |
\*---------------------------------------------------------------------------*/
FoamFile
{
    version     2.0;
    format      ascii;
    class       volScalarField;
    location    "1.6";
    object      p_rgh;
}
// * * * * * * * * * * * * * * * * * * * * * * * * * * * * * * * * * * * * * //

dimensions      [1 -1 -2 0 0 0 0];

internalField   nonuniform List<scalar> 
9150
(
1962.98
1961.99
1961.39
1960.91
1960.67
1960.67
1960.91
1961.39
1962
1962.99
1962.56
1962.04
1961.63
1961.3
1961.14
1961.15
1961.32
1961.64
1962.05
1962.57
1962.29
1962.01
1961.76
1961.54
1961.43
1961.43
1961.54
1961.76
1962.01
1962.29
1962.17
1962
1961.83
1961.67
1961.59
1961.59
1961.67
1961.83
1962
1962.18
1962.17
1961.99
1961.85
1961.73
1961.66
1961.67
1961.73
1961.85
1961.99
1962.18
1951.27
1950.34
1950.52
1951.03
1951.19
1951.2
1951.04
1950.56
1950.39
1951.33
1955.25
1954.54
1954.31
1954.26
1954.36
1954.36
1954.27
1954.32
1954.56
1955.28
1958.35
1957.6
1957.27
1956.93
1956.87
1956.88
1956.94
1957.29
1957.63
1958.38
1961.07
1959.96
1959.51
1958.86
1958.7
1958.7
1958.87
1959.52
1959.97
1961.09
1963.71
1961.65
1960.89
1960.17
1959.93
1959.92
1960.18
1960.91
1961.66
1963.73
1945.18
1944.52
1943.07
1942.1
1941.57
1941.56
1942.08
1943.27
1945.5
1947.33
1945.05
1944.99
1944.18
1943.97
1943.64
1943.74
1944.3
1944.83
1945.9
1946.16
1945.08
1945.22
1944.25
1944.75
1944.32
1944.52
1944.97
1944.75
1945.72
1945.72
1942.07
1944.81
1943.78
1945.48
1945.21
1945.33
1945.49
1944.09
1945.05
1942.38
1935.49
1945.45
1945.81
1947.42
1947.74
1947.78
1947.45
1945.98
1945.59
1935.7
304.399
301.096
294.88
286.455
284.839
302.535
338.019
365.932
388.303
416.077
300.832
297.062
286.87
272.501
269.693
278.105
299.834
312.04
317.415
320.093
306.142
307.363
303.892
291.179
285.988
292.094
272.344
277.09
281.789
281.437
299.633
296.088
295.205
291.659
284.821
277.188
269.076
263.884
260.529
256.199
294.008
295.029
291.681
283.918
272.705
261.579
283.058
252.436
244.712
251.328
326.02
332.305
325.818
303.01
288.277
273.349
263.741
261.591
262.101
256.236
368.655
360.433
340.424
296.759
249.013
222.195
204.432
183.399
199.863
220.734
219.29
221.384
245.469
219.283
167.834
147.194
103.431
107.468
113.51
175.779
151.705
150.266
173.875
180.042
105.817
92.8221
83.2154
86.4364
91.0614
152.082
144.333
143.6
162.242
147.274
123.948
113.822
107.132
104.683
114.531
131.554
137.509
136.497
156.561
226.514
241.489
170.188
192.108
192.311
188.619
208.822
132.94
145.107
153.79
225.669
292.636
287.784
277.405
269.474
265.633
264.17
134.968
220.261
231.632
212.863
303.787
321.45
314.435
306.272
297.116
286.519
136.927
263.209
290.21
234.239
242.647
367.249
358.22
345.79
329.151
311.654
160.654
286.998
307.867
289.5
273.313
344.497
397.716
379.074
331.951
289.338
254.812
316.515
327.704
340.956
256.662
250.105
412.091
400.493
286.838
264.88
358.748
308.578
325.016
320.649
299.184
204.344
199.811
363.682
300.26
255.136
293.686
117.67
136.244
269.327
300.161
171.274
116.261
162.812
285.923
287.84
168.386
19.6621
8.60032
132.023
277.332
292.247
117.275
163.565
191.349
269.458
47.841
9.85714
9.03949
40.5346
307.286
296.843
118.55
314.646
370.033
372.375
83.6744
23.3706
24.5443
52.2562
318.575
277.989
101.344
210.234
375.697
374.704
156.353
26.4099
27.1105
64.0804
333.353
310.744
83.8267
82.6626
198.768
375.661
183.378
30.1896
25.9203
62.6125
340.478
317.231
70.2031
72.2929
69.598
68.8555
128.941
32.7339
22.7654
57.37
348.466
250.253
66.1729
129.695
100.6
111.364
48.2151
26.9317
18.142
48.3886
257.099
125.446
61.4034
140.573
117.217
6.7079
38.7231
32.6852
16.0393
28.1275
58.4326
57.3187
53.5599
157.691
68.8758
8.29036
75.6753
80.8796
19.4464
16.1531
36.7526
146.934
53.9917
106.712
92.2215
8.77008
84.7001
84.2168
20.4621
19.4889
158.552
402.284
79.8426
89.9459
82.2612
7.48355
65.8082
41.6851
17.4615
19.0196
334.607
412.822
96.5987
60.6768
50.0804
6.05909
8.63398
11.2262
12.9862
30.484
411.273
424.377
58.0425
21.8268
4.99836
2.76487
5.1946
23.9052
46.3961
40.9522
434.891
418.554
40.1067
0.19308
-0.0435022
0.00172385
31.8149
60.9957
79.921
40.5839
426.78
452.973
32.716
-0.308468
-0.284979
-0.225944
77.2029
88.0561
79.1232
44.462
449.935
457.11
23.354
-0.279516
-0.259657
-0.202865
42.7768
88.8525
40.9712
41.9452
468.579
453.921
26.7802
-0.205469
-0.227244
-0.260862
0.67757
10.4958
28.5981
32.3699
462.531
485.487
28.5807
-0.017332
-0.301637
-0.321445
8.34805
10.7974
9.14464
22.3968
472.532
494.114
23.949
0.540675
-0.384786
-0.390332
1.16075
1.34633
1.25793
20.1669
488.903
500.173
20.1214
0.559627
-0.121356
-0.370797
1.17061
1.18223
1.1576
12.5491
521.4
491.743
9.82666
0.599624
1.33969
0.988819
1.20641
1.40255
1.22278
3.44475
524.476
511.316
1.22147
0.180302
1.3475
1.37644
1.25727
2.35427
1.30675
1.21166
511.206
513.278
-0.568683
-0.484253
1.29412
1.30217
1.70068
2.41688
1.29783
1.28936
499.605
506.273
-0.743227
-0.774737
0.111884
0.363445
2.88168
2.45699
1.36217
1.37822
493.575
518.749
0.192457
-0.988405
-1.01236
-1.02595
1.26216
1.36642
1.28774
1.29444
546.974
541.058
-1.11838
-1.08743
-1.07149
-1.06382
1.25268
1.25776
1.26249
1.27173
609.242
608.84
-1.08283
-1.08507
-1.08254
-1.0801
1.25998
1.29678
1.27583
1.30963
650.881
645.868
-1.07683
-1.09644
-1.09837
-1.1013
1.27724
1.33801
1.3049
5.95439
661.432
671.196
4.19932
-1.12924
-1.12527
-1.12155
1.38699
1.3496
1.34781
18.5934
661.502
699.08
17.1432
-1.1618
-1.13186
-1.0981
1.44045
1.27852
1.23051
28.7376
713.754
671.993
23.9549
-1.0194
-1.01791
-0.624838
1.45258
1.28826
1.25258
34.5391
727.941
683.9
23.7896
-1.0176
-0.777481
-0.271189
1.36115
1.36218
1.39186
26.2652
702.743
740.11
27.9615
-1.14214
-0.555942
-0.272871
1.38605
1.38545
1.39317
21.6335
727.579
743.344
19.3494
-1.14007
-0.407781
-0.260625
1.44039
1.39543
1.40019
15.5949
736.832
755.695
14.3717
-1.1436
-0.374101
-0.250962
1.47695
1.41579
1.44567
8.917
736.809
773.301
10.348
-1.19846
-0.55903
-0.237166
1.39196
1.42363
1.46461
2.86808
740.951
791.094
6.14428
-1.21523
-0.824698
-0.187449
1.35506
1.36443
1.35359
3.19111
801.284
764.357
-1.03442
-1.07441
-0.898996
-0.0769718
1.3399
1.33509
1.31761
1.30347
810.97
812.334
-1.00476
-1.01093
-0.889274
-0.0106748
1.346
1.29577
1.29014
1.35603
862.249
858.009
-0.952341
-0.963127
-0.81796
-0.588054
1.31477
1.25703
1.2573
11.733
912.111
909.967
8.01078
-0.925684
-0.560559
-0.264982
1.2753
1.24071
1.24512
30.5395
945.394
947.686
28.6958
-0.91165
-0.530772
-0.238894
1.21878
1.23935
1.26991
45.0626
950.748
982.905
46.2428
-0.943569
-0.712428
-0.377032
1.19356
1.21132
1.25421
53.7151
960.814
1001.75
57.1402
-0.970767
-0.532354
-0.597161
1.14704
1.31871
1.09848
62.9712
1019.6
971.875
50.596
-0.852514
-0.0329282
-0.545804
1.69512
2.11016
1.09374
54.858
1030.47
993.902
52.318
-0.801635
0.0409076
-0.139612
2.75546
2.38394
1.25972
49.2145
1007.36
1041.12
50.9177
-0.893979
0.0134497
0.0754316
1.16141
1.25905
1.18881
47.342
1032.79
1040.16
45.8439
-0.900937
-0.103765
0.0903302
1.14139
2.55639
1.17123
44.0824
1024.2
1072.17
46.836
-0.948472
-0.368771
-0.167064
1.6324
2.545
1.05686
47.8362
1069.94
1071.82
45.9012
-0.8761
-0.824359
-0.857102
2.49663
2.48779
1.02651
60.3276
1120.57
1125.89
62.8611
-0.835063
-0.833086
-0.83215
1.90985
2.14609
0.932038
103.543
1187.24
1182.12
100.296
-0.796867
-0.804428
-0.7362
0.826418
0.85479
0.840428
149.272
1231.41
1232.23
148.292
-0.785532
-0.781262
-0.678452
0.790846
0.797261
0.796435
184.185
1259.87
1260.39
182.573
-0.786257
-0.715772
-0.680453
0.828125
0.789925
0.800322
200.277
1266.36
1289.96
198.928
-0.800191
-0.651356
-0.702385
0.832047
0.772581
0.75781
203.34
1301.41
1288.54
200.249
-0.733423
-0.585423
-0.731872
0.806154
0.783865
0.792537
186.554
1299.38
1316.73
187.34
-0.738044
-0.561693
-0.710623
0.769593
0.789965
0.790333
165.24
1315.1
1324.13
163.793
-0.694813
-0.527914
-0.401695
0.755279
0.864404
0.784519
154.415
1324.67
1341.14
153.395
-0.656609
-0.477327
-0.274726
0.72164
0.900534
0.738145
153.328
1346.91
1352.66
152.354
-0.600798
-0.51061
-0.27722
0.693657
0.901781
0.691036
180.48
1391.74
1392.44
177.554
-0.563325
-0.509229
-0.483597
0.745313
0.865616
0.655034
254.5
1450.52
1451.93
250.968
-0.529324
-0.47486
-0.446541
1.33153
0.890236
0.634129
335.78
1500.13
1501.5
332.697
-0.499818
-0.37678
-0.437302
1.34558
0.841799
0.595354
397.377
1537.43
1538.01
394.714
-0.467119
-0.334813
-0.26352
1.29113
0.632911
0.55378
444.393
1567.79
1567.51
442.62
-0.443267
-0.347311
-0.286916
0.878771
0.585332
0.505486
494.21
1596.14
1594.71
493.42
-0.422723
-0.330448
-0.423439
0.636774
0.549906
0.46022
560.163
1623.99
1622.13
559.816
-0.391872
-0.310838
-0.272546
0.649448
0.521192
0.422363
636.146
1649.55
1648.58
636.187
-0.362088
-0.301742
-0.216035
0.608308
0.410897
0.386909
702.851
1674.35
1670.1
703.775
-0.338766
-0.302441
-0.189014
0.380037
0.355319
0.350781
753.308
1700.65
1687.9
752.3
-0.322147
-0.312576
-0.164111
0.335348
0.327778
0.323846
797.065
1715.76
1719.84
796.689
-0.321832
-0.31483
-0.299627
0.301909
0.299917
0.296755
744.328
1722.54
1747.44
1057.37
-0.288788
-0.286426
-0.288389
0.27969
0.278454
0.28592
719.962
1729.24
1765.51
1218.06
21.163
-0.267149
-0.266316
0.25892
0.258923
0.261931
1148.25
1779.15
1780.55
1145.35
16.4371
-0.246211
-0.24632
0.236907
0.238466
27.6685
1474.93
1799.59
1795.1
1077.01
-0.226897
-0.219872
-0.219144
0.207445
0.208734
215.908
1614.96
1818.33
1813.14
1293.76
-0.194126
-0.196146
-0.192686
0.179809
0.180325
392.291
1740.47
1835.48
1833.47
1424.17
-0.161643
-0.174226
-0.169555
0.15278
0.149907
545.223
1791.34
1854.43
1853.21
1669.79
210.712
-0.150174
-0.14942
0.129033
0.127755
955.052
1865.56
1873.43
1872.84
1806.16
556.157
-0.130596
-0.127175
0.106072
0.146696
1350.55
1891.47
1892.31
1892.2
1891.39
1125.24
-0.0977331
-0.100954
0.0652819
341.841
1715.36
1909.64
1910.66
1911.13
1910.38
1627.14
81.1909
-0.0741348
0.0620066
1305.71
1927.45
1927.42
1926.97
1926.68
1926.42
1909.63
966.356
-0.0528447
733.57
1890.2
1938.76
1937.27
1936.75
1936.92
1937.78
1939.78
1869.21
586.252
450.699
463.985
441.294
391.213
333.976
298.708
275.876
274.224
266.808
267.913
268.75
281.842
298.196
295.927
293.615
295.209
295.301
295.987
288.802
282.298
275.315
272.085
267.032
262.454
261.827
265.229
275.612
269.364
273.895
274.014
270.588
274.769
279.955
287.126
294.674
299.059
314.053
321.653
322.755
328.191
343.459
359.656
350.164
309.489
266.578
241.921
225.609
232.946
223.983
233.843
238.997
257.253
270.428
281.256
280.977
291.507
290.621
296.72
290.236
279.781
264.777
259.536
258.582
249.039
253.375
256.215
261.73
263.946
268.075
268.25
265.878
268.561
270.599
275.349
287.218
298.17
303.018
315.281
317.175
331.01
289.527
298.545
282.017
258.268
206.529
186.415
171.04
179.942
151.493
149.933
172.599
217.107
248.153
266.412
270.169
278.625
282.531
285.651
272.75
250.852
235.138
225.427
223.907
229.855
243.4
262.165
271.898
271.046
274.424
267.618
261.856
272.723
277.673
280.887
287.252
285.03
295.19
301.814
314.628
326.814
258.839
263.88
245.356
218.85
187.222
140.337
131.468
127.048
126.708
127.39
159.995
198.564
223.25
233.742
251.25
263.765
274.347
270.513
256.155
219.544
212.357
209.595
207.627
215.516
229.699
259.876
271.27
275.04
276.168
259.934
256.456
256.446
262.627
286.791
297.832
300.847
302.356
305.586
321.56
325.053
260.987
240.264
224.669
201.123
149.921
107.661
110.265
113.982
116.461
125.579
177.676
198.562
200.803
215.209
242.564
260.307
264.06
263.814
227.379
202.986
203.279
202.503
200.936
200.276
201.619
207.474
256.889
280.403
288.096
287.021
255.863
250.111
252.998
253.964
296.624
308.57
311.196
304.427
317.819
324.051
239.828
222.596
209.737
180.778
110.266
100.332
101.697
104.096
106.772
118.135
148.006
150.578
175.635
220.366
241.814
252.619
258.974
225.552
201.399
202.454
203.16
203.404
202.955
202.653
202.591
203.013
204.312
222.033
284.222
304.052
312.914
296.614
253.919
254.327
263.094
307.891
313.137
293.955
297.911
326.565
219.872
212.424
203.23
145.188
99.953
100.755
102.577
104.762
106.678
109.548
111.919
117.882
169.096
217.758
231.38
243.078
254.237
246.794
206.148
202.973
210.559
262.4
261.121
209.255
203.168
204.254
205.249
205.324
205.364
245.766
307.098
318.875
327.738
262.063
262.08
291.966
314.338
294.999
296.051
332.141
198.385
202.007
187.622
126.204
99.3912
103.048
105.37
107.847
110.171
112.48
114.77
119.877
200.641
224.766
232.983
240.733
248.912
256.347
254.063
250.456
264.727
278.209
285.176
288.577
292.553
253.293
204.5
205.604
206.86
207.284
232.592
317.495
330.765
337.57
291.678
296.411
320.079
304.156
302.336
342.466
152.389
152.453
212.062
182.751
102.84
105.728
109.334
111.562
113.641
115.212
115.844
151.6
235.342
237.794
241.206
244.359
246.717
250.737
256.075
260.898
266.014
272.227
278.787
285.638
272.869
260.908
285.7
312.593
263.183
215.656
254.316
325.233
333.144
340.666
320.838
307.799
311.664
305.766
318.976
349.74
139.898
162.613
230.503
239.229
185.979
123.786
113.633
114.788
116.221
117.75
119.238
122.14
134.69
175.681
238.293
241.3
243.44
248.487
252.975
255.48
258.451
253.187
190.158
202.152
263.451
289.222
299.11
305.794
311.678
254.46
256.091
306.411
331.174
339.166
347.114
311.661
306.236
302.492
348.413
348.28
233.955
241.431
245.872
249.351
254.139
237.326
213.489
186.376
183.847
191.374
166.117
128.509
137.469
204.699
224.095
199.643
203.811
212.357
240.522
208.299
159.17
158.718
166.302
173.877
173.652
219.609
291.443
300.08
306.801
291.01
251.625
266.383
326.179
331.454
338.485
294.464
294.644
307.864
342.928
342.436
261.214
257.142
247.982
250.896
257.341
260.98
260.887
264.617
267.834
269.557
269.748
257.859
258.557
259.082
257.735
251.439
242.595
153.092
142.282
144.455
144.891
143.507
184.216
254.856
284.881
288.551
291.931
295.576
300.738
255.332
243.928
280.841
312.08
311.186
310.301
243.81
278.771
333.387
332.213
333.381
270.105
208.535
134.85
135.665
154.459
178.293
193.147
206.898
207.22
207.374
218.203
218.879
208.633
213.588
209.423
172.049
129.575
137.812
174.849
181.241
176.663
131.568
114.651
128.915
163.035
257.369
283.336
264.152
262.131
265.402
290.12
302.407
295.984
290.186
251.841
162.882
241.532
316.804
320.271
322.64
290.584
169.515
103.546
95.3987
90.0266
88.2454
87.8056
87.9393
88.6083
89.7807
97.2002
105.641
97.3869
88.9217
88.4681
115.803
194.726
150.785
86.7055
77.1653
78.0441
76.8689
78.1257
80.4993
134.512
268.933
290.646
284.22
288.524
307.369
303.778
297.695
277.978
183.847
132.143
135.043
156.342
264.772
309.797
311.469
315.772
270.356
199.36
128.029
90.14
87.8996
87.8857
88.5693
89.7487
92.9122
92.9678
81.9966
82.8039
83.6706
84.7765
158.328
220.949
121.658
77.8682
76.8366
75.7532
75.3689
75.9876
80.4844
224.029
298.864
308.36
313.616
314.714
313.397
308.739
303.303
185.97
135.472
137.895
143.155
145.936
217.417
301.379
323.842
273.753
298.688
287.801
276.742
169.996
89.7071
89.193
89.8642
90.1813
94.2732
105.18
81.2783
82.4272
83.2019
83.6322
158.92
219.527
218.464
148.034
77.9067
78.3039
78.6343
78.9637
80.2372
206.171
322.51
325.642
327.651
326.641
324.936
324.154
323.732
226.529
147.452
151.874
156.387
188.806
282.92
335.35
345.864
244.874
302.687
302.779
298.13
289.783
137.722
92.8369
92.4518
91.8584
97.2149
117.768
87.8636
83.5238
83.9423
84.1263
96.0899
208.394
225.774
229.385
223.857
97.8734
81.7207
81.8431
81.9989
91.4059
171.127
221.645
256.127
326.253
334.705
339.902
343.759
343.65
283.552
276.219
310.59
343.383
359.994
361.818
363.012
252.63
266.313
335.115
329.009
320.33
292.664
124.952
100.202
106.541
138.147
118.168
85.0679
84.3508
85.083
85.375
85.2581
86.1365
157.355
236.581
239.814
241.422
195.207
87.9806
85.9497
87.9871
91.2222
94.5427
108.755
177.517
277.895
330.385
331.293
344.653
359.915
367.141
371.47
371.83
373.37
374.995
375.916
374.857
383.544
224.874
289.148
342.434
330.163
312.095
243.131
301.314
327.332
326.203
287.253
126.482
97.8447
106.16
90.012
74.7942
74.6533
165.316
247.046
251.237
254.859
254.651
219.578
188.975
184.782
198.935
205.413
246.571
269.292
266.773
184.038
189.846
323.962
376.173
383.671
385.069
384.012
384.423
337.645
376.351
288.393
123.599
106.605
268.251
330.931
333.665
335.47
336.785
338.513
338.736
337.255
338.766
342.337
235.726
73.2466
73.4287
73.3518
73.3622
144.748
261.696
262.263
211.235
189.186
194.687
190.456
112.44
128.63
152.052
152.852
158.458
163.519
165.624
171.06
265.766
388.72
393.527
394.945
396.001
307.717
376.592
309.906
79.8678
69.8247
67.5927
218.965
320.356
341.3
340.632
342.617
343.6
344.282
347.519
351.189
354.779
279.637
80.2293
72.1725
72.2096
72.2207
75.9479
73.1398
73.378
74.4017
77.0088
79.6422
82.6264
86.0632
89.4288
131.144
177.046
169.673
166.156
171.779
292.884
399.799
403.176
405.826
349.633
312.176
376.826
360.354
161.078
118.642
40.731
36.4514
21.4543
92.1702
262.171
334.036
346.032
349.648
353.4
356.825
361.924
366.22
262.142
71.8445
72.1092
72.0968
72.3865
72.6795
73.1244
74.0921
74.9294
76.69
118.839
248.1
317.316
361.547
393.777
374.629
315.612
325.626
402.497
414.225
383.131
337.875
318.076
319.408
284.989
331.663
157.268
37.9486
26.2936
14.9969
14.0633
13.4794
14.0061
14.0559
188.67
321.314
322.407
331.588
366.021
371.884
370.503
215.737
70.9931
70.5082
74.9918
77.8012
77.76
175.356
365.495
405.215
399.226
416.089
417.375
418.495
421.773
425.49
427.347
396.678
317.511
324.031
324.1
328.036
329.212
353.406
229.788
221.46
106.25
24.2918
18.7052
18.6634
20.1916
14.1154
14.5984
14.7689
14.6702
15.8126
23.2322
180.35
296.971
295.591
266.735
338.85
347.606
353.337
345.695
175.868
222.948
428.862
429.071
429.282
429.491
430.21
430.862
431.706
436.505
432.239
324.654
323.559
327.237
332.315
336.495
403.777
445.185
459.5
12.4986
20.0778
16.1476
22.6194
37.6827
40.5302
40.0972
24.7472
38.924
16.8218
32.0819
52.9876
124.944
223.021
189.927
75.6079
61.246
137.226
290.302
313.357
174.743
152.182
175.226
442.208
444.222
443.613
443.958
444.024
444.313
445.735
449.446
380.534
328.232
330.283
332.261
385.44
461.563
465.381
466.995
467.885
7.91363
7.98641
8.39248
9.92804
21.2658
31.6409
41.2633
45.2309
65.7675
137.659
369.798
398.143
399.077
405.323
409.717
302.433
43.1967
21.4245
21.3357
22.0943
49.0372
155.9
305.422
407.073
450.335
453.431
454.011
454.255
455.692
457.199
460.435
458.389
382.695
336.398
416.793
432.613
432.817
368.021
392.815
448.812
8.65745
8.41567
7.93853
7.73588
37.7502
29.5084
167.877
214.988
419.856
423.017
420.344
418.323
417.777
418.407
412.742
257.127
27.9444
12.6115
18.5632
53.936
56.7932
78.0953
185.796
254.629
286.39
438.311
459.791
461.371
465.186
468.533
469.471
469.618
470.221
467.973
467.866
382.657
326.402
329.916
333.632
336.086
9.88617
20.4751
19.6002
18.5717
42.4762
43.4737
35.1852
70.7314
211.314
370.841
390.675
356.922
313.306
248.387
81.9376
5.35723
10.8112
7.28574
9.89744
26.8728
111.144
167.123
302.8
167.652
90.3307
97.9552
103.714
191.937
350.744
470.833
479.244
478.547
479.142
479.087
474.172
385.663
325.407
428.615
373.125
382.856
11.8122
17.9251
16.758
20.1581
24.876
33.6545
32.6128
21.0976
8.95881
11.5883
7.12141
-0.543698
-0.560711
-0.573304
-0.558247
4.89708
2.76622
4.78641
6.13808
58.7051
270.073
403.403
482.289
353.158
86.5787
60.7494
58.112
57.0102
59.6903
82.5846
139.293
211.28
298.713
388.515
371.38
255.262
427.695
472.394
474.844
477.087
3.62444
3.00035
1.22406
1.29259
0.156615
1.13088
-0.438932
-0.409882
-0.401354
-0.376153
-0.370319
-0.395245
0.891017
4.45453
4.26229
2.10385
2.46309
3.35188
40.9476
391.438
488.872
490.898
492.598
492.821
443.846
121.17
57.2475
57.2233
57.2104
57.384
57.7766
57.4547
58.381
72.0071
74.022
202.258
481.806
486.273
486.53
487.764
-0.161105
-0.178929
-0.152141
-0.219019
-0.260096
-0.284102
-0.3478
-0.367909
-0.346503
-0.305872
-0.292265
-0.325107
2.03217
5.34331
5.43208
2.40724
2.08676
2.90194
225.165
503.172
505.582
506.538
506.117
506.082
505.732
493.628
173.216
57.5767
57.5443
57.8248
57.7694
57.8997
57.4686
57.5149
71.277
401.268
500.83
501.171
499.049
484.188
-0.167687
-0.13844
0.0452786
0.357985
0.308631
0.273876
0.255308
-0.129103
-0.390748
-0.370881
-0.347006
-0.402633
0.239907
2.39854
2.46589
2.14817
4.3714
3.99565
26.9624
95.2701
360.973
461.421
452.868
472.046
490.729
496.73
503.188
487.95
302.252
207.066
248.177
194.817
201.724
248.572
392.11
456.604
424.181
331.669
237.764
221.381
0.079926
0.377225
0.378266
0.335371
0.290746
0.250743
0.220501
0.198717
-0.394037
-0.496105
-0.504704
-0.55798
-0.65373
-0.100989
1.76281
1.93051
1.75278
3.2465
1.32589
-0.584793
13.8728
23.7893
29.7741
61.0574
104.574
113.441
220.629
317.175
287.924
298.221
301.302
298.657
309.499
288.477
359.213
374.771
210.015
39.5011
13.0043
2.70856
-0.253239
0.0455634
0.313464
0.197996
0.229817
0.226974
0.192926
0.159945
-0.0867643
-0.570472
-0.588689
-0.634749
-0.699662
-0.763466
-0.672824
-0.607298
0.137673
3.41239
1.92326
-0.511359
-0.769479
-0.722799
-0.653139
-0.668191
-0.700122
-0.714241
-0.728384
-0.748858
-0.760497
-0.771826
4.76911
-0.711756
7.10961
0.757282
0.53766
0.164097
3.07444
1.81875
1.90438
1.90702
-0.353985
-0.388336
-0.348478
-0.342515
-0.424686
-0.438689
-0.201715
0.155309
0.130533
0.106726
-0.155932
-0.63626
-0.686179
-0.743246
-0.80609
-0.855758
-0.86541
-0.887987
-0.818857
-0.479215
-0.660112
-0.722372
-0.677915
-0.538718
-0.535076
-0.637085
-0.599846
-0.708453
-0.736522
-0.731639
-0.751424
-0.718978
-0.161677
1.64773
4.16471
4.42805
4.7302
2.01349
2.07587
2.52468
-0.406389
-0.422733
-0.389571
-0.471784
-0.541065
-0.568493
-0.587524
-0.512798
-0.542259
-0.0558753
-0.0614921
-0.0773948
-0.133098
-0.615791
-0.766265
-0.783294
-0.789997
-0.7961
-0.790857
-0.597008
-0.637461
-0.768067
-0.745352
-0.621027
-0.493553
-0.488925
-0.481041
-0.669456
-0.723553
-0.744945
-0.743144
-0.652753
-0.735374
-0.560777
0.126895
0.736285
1.00754
3.28143
3.47631
3.56349
-0.465661
-0.481128
-0.481711
-0.519996
-0.551057
-0.624547
-0.674346
-0.691784
-0.700915
-0.667138
-0.700162
-0.278044
-0.169325
-0.214462
-0.728255
-0.769218
-0.763975
-0.757188
0.0359732
0.264654
-0.690892
-0.811102
-0.785046
-0.763346
-0.591386
-0.481197
-0.469209
-0.665363
-0.699689
-0.750203
-0.769478
-0.785201
-0.851586
-0.892519
-0.897672
-0.860502
-0.810689
-0.282388
1.50464
2.65727
0.361916
-0.268244
-0.5639
-0.62409
-0.687577
-0.732471
-0.752563
-0.637859
-0.610991
-0.628143
-0.753252
-0.791612
-0.342929
-0.224897
-0.632786
-0.780997
-0.783656
-0.600703
0.429665
0.571428
-0.608116
-0.827922
-0.804653
-0.775733
-0.745972
-0.515284
-0.459251
-0.660024
-0.732355
-0.759637
-0.774904
-0.796251
-0.819292
-0.839736
-0.844102
-0.826955
-0.804522
-0.788593
-0.783641
-0.786107
1.37975
1.41364
0.33889
-0.694985
-0.804939
-0.820228
-0.830185
-0.739871
-0.666362
-0.673835
-0.681219
-0.833963
-0.703507
-0.270087
-0.384632
-0.802233
-0.803042
-0.635971
0.475972
0.627297
-0.528503
-0.845009
-0.818869
-0.787071
-0.757991
-0.542236
-0.48457
-0.72436
-0.75583
-0.759709
-0.765344
-0.771277
-0.7766
-0.781413
-0.785994
-0.776825
-0.708482
-0.741791
-0.782667
-0.78357
1.30708
1.32715
1.29931
0.0837636
-0.913404
-0.915849
-0.910941
-0.896888
-0.903121
-0.766372
-0.758948
-0.888796
-0.892985
-0.346438
-0.364413
-0.82321
-0.827995
-0.820218
0.467192
0.612001
-0.0317692
-0.881473
-0.845858
-0.80294
-0.765193
-0.705079
-0.743756
-0.755518
-0.758584
-0.758492
-0.755272
-0.750754
-0.749066
-0.749537
-0.707367
-0.0794457
0.369151
0.130521
-0.56047
-0.785423
0.857726
1.23593
1.23565
0.203158
-0.994685
-0.990152
-0.979364
-0.970187
-0.961674
-0.945702
-0.936745
-0.941242
-0.93438
-0.567085
-0.630082
-0.830641
-0.723235
0.495672
0.565202
0.535112
-0.416634
-0.915803
-0.861935
-0.810059
-0.763531
-0.735252
-0.6989
-0.296768
-0.0826328
0.0224262
-0.510684
-0.735715
-0.704367
0.326428
0.481534
0.473093
0.46467
0.445689
0.18297
-0.787666
-1.00951
0.926649
1.28503
-0.69634
-1.05636
-1.04404
-1.03098
-1.01981
-1.00697
-0.99852
-0.988716
-0.977033
-0.963314
-0.744965
-0.727991
-0.0657671
0.629325
0.585392
0.556479
-0.56098
-0.97996
-0.94993
-0.884648
-0.826498
-0.697865
0.0196848
0.248495
0.234544
0.21139
0.198634
-0.509891
0.0763499
0.480463
0.469175
0.451438
0.420916
0.344909
0.390521
0.340556
-0.517502
-1.06027
-0.655497
0.481293
-0.988219
-1.0958
-1.08307
-1.07124
-1.02852
-1.03553
-1.038
-1.02467
-1.00784
-0.852837
-0.747992
-0.283025
0.662349
0.636296
0.613354
-0.375347
-1.00427
-0.98703
-0.956844
-0.915911
-0.494792
0.195683
0.200895
0.197668
0.194492
-0.117089
-0.591548
-0.552776
0.400624
0.415568
0.212529
-0.45005
-0.663508
-0.842297
-0.781603
-0.553197
-0.0566879
-1.07735
-0.78503
-0.164172
-1.072
-1.11776
-1.1074
-1.0883
-1.05195
-1.06682
-1.06876
-1.05293
-1.03118
-0.861045
-0.592996
0.696501
0.687281
0.675094
0.275515
-0.996442
-0.996396
-0.991307
-0.979757
-0.629213
0.136847
0.150682
0.0252913
-0.684648
-0.724357
-0.820841
-0.831336
-0.783601
-0.55219
-0.692346
-0.876702
-0.898425
-0.893543
-0.891533
-0.890598
-0.887864
-0.564049
-1.10207
-0.0852905
-0.606049
-1.12035
-1.12125
-1.11054
-1.02507
-0.917406
-1.04698
-1.08687
-1.07121
-1.0545
-0.96428
-0.221762
0.714623
0.721714
0.718846
-0.600753
-0.994994
-1.0007
-1.00933
-1.02009
-0.525881
0.120436
0.0565826
-0.917915
-0.910759
-0.890547
-0.873351
-0.84356
-0.607992
-0.581077
-0.598221
-0.66962
-0.865236
-0.896386
-0.89387
-0.892879
-0.89187
-0.891856
-0.977503
-0.0748243
-0.92949
-1.13199
-1.13059
-1.06191
-0.902641
-0.896523
-0.893177
-1.06931
-1.08146
-1.06701
-0.98458
-0.297392
0.739045
0.761546
0.466251
-0.990412
-0.996988
-1.0066
-1.01882
-1.03001
-0.856342
-0.0445179
-0.0983908
-0.945553
-0.93308
-0.910607
-0.859207
-0.785544
-0.670131
-0.703564
-0.563733
-0.591913
-0.853928
-0.898249
-0.895282
-0.893375
-0.893513
-0.893855
-0.473565
-0.0845052
-1.1392
-1.15019
-1.14471
-1.04
-0.908509
-0.906743
-0.949233
-1.08629
-1.08869
-0.951664
-0.911401
-0.683359
0.700553
0.797613
0.216546
-0.992306
-0.996132
-1.00431
-1.01446
-1.02413
-0.994807
-0.338849
-0.170562
-0.965527
-0.951744
-0.825766
-0.710349
-0.699026
-0.689552
-0.567406
-0.556863
-0.659139
-0.870309
-0.896621
-0.84809
-0.8266
-0.887206
-0.891799
-0.300885
-0.472145
-1.15355
-1.14948
-1.14474
-1.08953
-0.919808
-1.1002
-1.10643
-1.04286
-0.8699
-0.848161
-0.839872
-0.95217
-0.0296938
0.828898
0.379146
-0.992216
-0.992975
-0.99842
-1.00478
-1.00204
-0.731454
-0.302612
-0.662605
-0.965987
-0.946867
-0.867973
-0.900978
-0.926019
-0.899576
-0.728369
-0.546666
-0.653883
-0.854016
-0.890302
-0.721752
-0.692348
-0.863329
-0.886083
-0.591377
-1.14788
-1.14344
-1.13818
-1.13311
-1.05888
-0.933118
-1.10254
-1.09896
-0.965785
-0.856208
-0.843817
-0.842694
-1.04493
-0.783915
0.789221
0.52773
-0.992225
-0.989767
-0.993148
-0.999914
-0.954246
-0.421234
-0.413106
-0.964277
-0.972619
-0.969526
-0.967529
-0.960569
-0.950945
-0.941212
-0.84821
-0.551377
-0.8331
-0.864576
-0.861599
-0.681492
-0.683025
-0.852348
-0.880514
-0.878757
-1.14972
-1.13735
-1.12784
-1.11708
-0.984032
-0.904867
-1.04555
-1.07832
-1.03104
-0.824744
-0.815272
-0.994825
-1.04095
-1.02556
-0.505199
0.137668
-0.826817
-0.978694
-0.97857
-0.981225
-0.974826
-0.662053
-0.776203
-0.971889
-0.970326
-0.961874
-0.953908
-0.945089
-0.935914
-0.86432
-0.78423
-0.860456
-0.859103
-0.855446
-0.668085
-0.665817
-0.769689
-0.873783
-0.875406
-0.904625
-1.14744
-1.13053
-1.1167
-1.10513
-1.00974
-0.882509
-0.89138
-1.05341
-1.04835
-1.00651
-0.979011
-1.02959
-1.02037
-1.01248
-0.995291
-0.874914
-0.662354
-0.954942
-0.952628
-0.952729
-0.954484
-0.953683
-0.954892
-0.94797
-0.940043
-0.93163
-0.923993
-0.916663
-0.885796
-0.687843
-0.797389
-0.841268
-0.841197
-0.765375
-0.575661
-0.66129
-0.860397
-0.868191
-0.866871
-0.700539
-1.14024
-1.12145
-1.10527
-1.09147
-1.06855
-0.89202
-0.849732
-0.868505
-1.02888
-1.02315
-1.01571
-1.00693
-0.998736
-0.990656
-0.973278
-0.937589
-0.769504
-0.605086
-0.629685
-0.609961
-0.683039
-0.820141
-0.913369
-0.905879
-0.898473
-0.89201
-0.886196
-0.881181
-0.721689
-0.619332
-0.763495
-0.815706
-0.694605
-0.561491
-0.559002
-0.678683
-0.778983
-0.855884
-0.85905
-0.508239
-1.12973
-1.11011
-1.0936
-1.0791
-1.06653
-1.0197
-0.834298
-0.820881
-0.857649
-1.0095
-1.00178
-0.994203
-0.986739
-0.961005
-0.939135
-0.928949
-0.92784
-0.541505
-0.35567
-0.344663
-0.345787
-0.593565
-0.87763
-0.863672
-0.855182
-0.850299
-0.828697
-0.727846
-0.587469
-0.591577
-0.642757
-0.772813
-0.56474
-0.542859
-0.542799
-0.544126
-0.580997
-0.733921
-0.835699
-0.518892
-1.11029
-1.09308
-1.07872
-1.06591
-1.05384
-1.04283
-0.962594
-0.804624
-0.824395
-1.00261
-0.994952
-0.987278
-0.968362
-0.939469
-0.934947
-0.951289
-0.94069
-0.636895
-0.347509
-0.334716
-0.379119
-0.757094
-0.85219
-0.836468
-0.824151
-0.757363
-0.516184
-0.517642
-0.544272
-0.766165
-0.802182
-0.796815
-0.67544
-0.606837
-0.609421
-0.702806
-0.721361
-0.647301
-0.698684
-0.693345
-1.07765
-1.06751
-1.0573
-1.04708
-1.03723
-1.02807
-1.00953
-0.950457
-0.951341
-0.99455
-0.986772
-0.97978
-0.949437
-0.933978
-0.9418
-0.953289
-0.943061
-0.729676
-0.318423
-0.430984
-0.829575
-0.857522
-0.845905
-0.827762
-0.731967
-0.521868
-0.491317
-0.601514
-0.773295
-0.78227
-0.790133
-0.795991
-0.759764
-0.737134
-0.812807
-0.819156
-0.82234
-0.771257
-0.641141
-0.699045
-1.04139
-1.03784
-1.03148
-1.02423
-1.01531
-0.990945
-0.982768
-0.992264
-0.986294
-0.979697
-0.972626
-0.96037
-0.949851
-0.947989
-0.951343
-0.944641
-0.937488
-0.891443
-0.682699
-0.72785
-0.887618
-0.866175
-0.78503
-0.583296
-0.512521
-0.527401
-0.502812
-0.281078
-0.370498
-0.586302
-0.696272
-0.696468
-0.111903
-0.06093
-0.360871
-0.507109
-0.797185
-0.829098
-0.705627
-0.411696
-1.01158
-1.00764
-1.00387
-0.998121
-0.960861
-0.934178
-0.967117
-0.973616
-0.96821
-0.961433
-0.953649
-0.948658
-0.947632
-0.943174
-0.938473
-0.933563
-0.928016
-0.850708
-0.773331
-0.874017
-0.902485
-0.892206
-0.848894
-0.36664
0.0442441
0.0561328
0.0636732
0.0739713
0.0791455
0.0775939
0.0229845
-0.0764573
0.0673358
0.0700071
0.0676845
0.0684008
-0.243386
-0.828513
-0.827447
-0.369376
-0.977694
-0.976178
-0.974022
-0.943023
-0.913535