/*--------------------------------*- C++ -*----------------------------------*\
  =========                 |
  \\      /  F ield         | OpenFOAM: The Open Source CFD Toolbox
   \\    /   O peration     | Website:  https://openfoam.org
    \\  /    A nd           | Version:  8
     \\/     M anipulation  |
\*---------------------------------------------------------------------------*/
FoamFile
{
    version     2.0;
    format      ascii;
    class       surfaceScalarField;
    location    "1.6";
    object      phi;
}
// * * * * * * * * * * * * * * * * * * * * * * * * * * * * * * * * * * * * * //

dimensions      [0 3 -1 0 0 0 0];

internalField   nonuniform List<scalar> 
18095
(
1.95389e-08
-1.72131e-07
1.52593e-07
2.2978e-08
-1.98207e-07
1.94768e-07
1.88672e-08
-2.05455e-07
2.09566e-07
9.11099e-09
-2.10205e-07
2.19961e-07
-1.52069e-09
-2.1341e-07
2.24041e-07
-1.19558e-08
-2.13533e-07
2.23968e-07
-2.00279e-08
-2.10964e-07
2.19036e-07
-2.30894e-08
-2.05988e-07
2.0905e-07
-1.95739e-08
-1.98096e-07
1.94581e-07
-1.72011e-07
1.52437e-07
1.54302e-08
-1.87562e-07
1.56431e-08
-1.9842e-07
1.25335e-08
-2.02346e-07
7.50091e-09
-2.05172e-07
9.88617e-10
-2.06897e-07
-5.84154e-09
-2.06702e-07
-1.17285e-08
-2.05077e-07
-1.57088e-08
-2.02008e-07
-1.54801e-08
-1.98325e-07
-1.87491e-07
6.81817e-09
-1.9438e-07
8.22669e-09
-1.99828e-07
6.77313e-09
-2.00892e-07
3.45829e-09
-2.01858e-07
-4.65041e-10
-2.02974e-07
-4.44702e-09
-2.0272e-07
-7.34415e-09
-2.0218e-07
-8.31592e-09
-2.01036e-07
-6.84879e-09
-1.99792e-07
-1.9434e-07
4.53939e-09
-1.98919e-07
4.66918e-09
-1.99958e-07
3.81017e-09
-2.00033e-07
2.30552e-09
-2.00353e-07
1.06971e-10
-2.00775e-07
-1.87894e-09
-2.00734e-07
-3.57649e-09
-2.00482e-07
-4.68825e-09
-1.99924e-07
-4.56707e-09
-1.99913e-07
-1.98907e-07
1.0808e-09
1.12278e-09
1.08962e-09
7.36662e-10
-3.86816e-11
-7.73147e-10
-1.25514e-09
-1.1795e-09
-1.09296e-09
-2.68103e-08
-1.96915e-07
2.23726e-07
-2.92392e-08
-1.98939e-07
2.01368e-07
-2.42849e-08
-2.01904e-07
1.9695e-07
-1.32682e-08
-2.01203e-07
1.90187e-07
-2.83215e-10
-2.01556e-07
1.88571e-07
1.28707e-08
-2.01616e-07
1.88462e-07
2.33012e-08
-2.0089e-07
1.9046e-07
2.83823e-08
-2.01538e-07
1.96457e-07
2.60971e-08
-1.98745e-07
2.0103e-07
-1.96693e-07
2.2279e-07
-9.75971e-09
-1.87156e-07
-1.52556e-08
-1.93443e-07
-1.48873e-08
-2.02272e-07
-7.94985e-09
-2.08141e-07
-1.42818e-09
-2.08078e-07
5.37283e-09
-2.08417e-07
1.31871e-08
-2.08705e-07
1.45196e-08
-2.0287e-07
9.48269e-09
-1.93708e-07
-1.8721e-07
-1.0758e-08
-1.76398e-07
-8.57389e-09
-1.95627e-07
-5.70382e-09
-2.05142e-07
-3.3559e-09
-2.10489e-07
1.18692e-09
-2.12621e-07
5.58497e-09
-2.12815e-07
6.98868e-09
-2.10108e-07
8.97426e-09
-2.04856e-07
1.08411e-08
-1.95575e-07
-1.76369e-07
-7.01854e-09
-1.69379e-07
-9.52134e-09
-1.93124e-07
-9.49414e-09
-2.05169e-07
-4.81982e-09
-2.15163e-07
-3.9548e-10
-2.17045e-07
3.98175e-09
-2.17193e-07
9.03142e-09
-2.15158e-07
9.61862e-09
-2.05443e-07
7.11662e-09
-1.93073e-07
-1.69253e-07
-1.67866e-08
-1.51434e-08
-1.07467e-08
-5.94836e-09
1.04765e-09
7.82268e-09
1.17004e-08
1.53071e-08
1.68155e-08
2.56525e-08
-1.61032e-07
1.35379e-07
2.91517e-08
-2.01194e-07
1.97695e-07
2.13889e-08
-2.12654e-07
2.20417e-07
6.98605e-09
-2.16917e-07
2.3132e-07
-9.17869e-09
-2.17473e-07
2.33637e-07
-2.59197e-08
-2.16468e-07
2.33209e-07
-3.8569e-08
-2.14648e-07
2.27298e-07
-4.4727e-08
-2.08763e-07
2.14921e-07
-3.79556e-08
-1.96663e-07
1.89892e-07
-1.54188e-07
1.16233e-07
1.48618e-08
-1.75894e-07
1.69566e-08
-2.03289e-07
1.24889e-08
-2.08187e-07
4.23518e-09
-2.08663e-07
-4.58237e-09
-2.08655e-07
-1.2906e-08
-2.08145e-07
-1.88728e-08
-2.08681e-07
-2.15819e-08
-2.06054e-07
-1.83534e-08
-1.99892e-07
-1.72542e-07
9.55885e-09
-1.85452e-07
8.15765e-09
-2.01887e-07
6.45754e-09
-2.06486e-07
3.16585e-09
-2.05372e-07
-2.93735e-10
-2.05195e-07
-4.27642e-09
-2.04162e-07
-9.15176e-09
-2.03806e-07
-1.06954e-08
-2.0451e-07
-1.0688e-08
-1.99899e-07
-1.8323e-07
6.7704e-09
-1.92223e-07
4.76646e-09
-1.99884e-07
4.81983e-09
-2.0654e-07
-3.58652e-10
-2.00193e-07
-2.02656e-09
-2.03528e-07
-3.53757e-09
-2.02651e-07
-7.66867e-09
-1.99675e-07
-6.96597e-09
-2.05213e-07
-7.87511e-09
-1.9899e-07
-1.91105e-07
3.1503e-08
3.29874e-08
2.33971e-08
1.33906e-08
-1.56557e-09
-1.57541e-08
-2.49691e-08
-3.37255e-08
-3.16855e-08
-7.19643e-07
1.50531e-07
5.69112e-07
-8.88895e-07
1.69253e-07
-1.04514e-06
1.56244e-07
-1.16741e-06
1.22271e-07
-1.1536e-06
-1.38137e-08
-1.02532e-06
-1.28274e-07
-8.0869e-07
-2.16633e-07
-5.86485e-07
-2.22205e-07
-3.71344e-07
-2.15141e-07
-2.77787e-07
-9.35566e-08
-6.21857e-07
7.63888e-08
6.95999e-07
-5.17047e-07
6.44435e-08
-4.12073e-07
5.12705e-08
-3.23724e-07
3.39217e-08
-2.07881e-07
-1.29657e-07
-6.9727e-08
-2.66427e-07
9.037e-08
-3.7673e-07
2.14419e-07
-3.46254e-07
3.36795e-07
-3.37517e-07
-4.34848e-07
4.93856e-07
-4.13883e-07
-1.40572e-07
6.30844e-07
-1.91193e-07
-1.58248e-07
4.62816e-08
-1.86204e-07
3.0254e-07
-2.22337e-07
5.28623e-07
-3.5574e-07
6.80049e-07
-4.17853e-07
7.57168e-07
-4.53848e-07
8.29604e-07
-4.1869e-07
9.00227e-07
-4.0814e-07
-4.62535e-07
9.27914e-07
3.4897e-08
-3.31349e-07
1.5588e-07
2.84101e-07
-4.07452e-07
5.65586e-07
-4.67688e-07
8.70218e-07
-5.26968e-07
1.08081e-06
-5.66328e-07
1.19781e-06
-5.3486e-07
1.20833e-06
-4.64369e-07
1.2159e-06
-4.26253e-07
1.22521e-06
-4.1745e-07
-4.68396e-07
1.23107e-06
5.08736e-07
-4.49817e-07
-3.90268e-07
6.76886e-07
-5.75602e-07
9.31145e-07
-7.21946e-07
1.14913e-06
-7.4495e-07
1.24913e-06
-6.66326e-07
1.26776e-06
-5.53493e-07
1.24424e-06
-4.40847e-07
1.23332e-06
-4.15332e-07
1.2317e-06
-4.15839e-07
-4.87777e-07
1.25109e-06
3.29791e-07
-5.77594e-07
-2.02013e-07
5.65959e-07
-8.1177e-07
7.91907e-07
-9.47894e-07
9.5451e-07
-9.07552e-07
1.02135e-06
-7.33171e-07
1.08021e-06
-6.1235e-07
1.13417e-06
-4.94803e-07
1.15414e-06
-4.35299e-07
1.18062e-06
-4.42319e-07
-4.83838e-07
1.17668e-06
1.64112e-07
-6.63442e-07
-7.82644e-08
3.38951e-07
-9.8661e-07
5.89257e-07
-1.1982e-06
8.03995e-07
-1.12229e-06
9.4008e-07
-8.69257e-07
1.03609e-06
-7.08358e-07
1.11113e-06
-5.69841e-07
1.09482e-06
-4.18988e-07
1.05727e-06
-4.0477e-07
-4.34169e-07
1.0076e-06
-1.76935e-07
-5.77472e-07
9.09646e-08
-4.64639e-09
-1.1589e-06
2.86593e-07
-1.48944e-06
5.44415e-07
-1.38011e-06
7.1106e-07
-1.0359e-06
8.14671e-07
-8.11968e-07
8.31579e-07
-5.8675e-07
7.96952e-07
-3.84361e-07
7.3687e-07
-3.44687e-07
-3.77486e-07
6.80187e-07
-1.04127e-07
-8.73107e-07
3.99763e-07
6.66583e-08
-1.32968e-06
1.64936e-07
-1.58772e-06
1.8869e-07
-1.40387e-06
1.13201e-07
-9.60413e-07
5.20853e-08
-7.50852e-07
7.67501e-08
-6.11415e-07
1.71303e-07
-4.78914e-07
2.5023e-07
-4.23614e-07
-3.50634e-07
2.23378e-07
-6.08214e-08
-1.25992e-06
4.47628e-07
-1.28644e-08
-1.37764e-06
-7.90579e-08
-1.52152e-06
-1.50845e-07
-1.33208e-06
-2.70804e-07
-8.40455e-07
-3.55197e-07
-6.66459e-07
-3.77681e-07
-5.8893e-07
-3.25045e-07
-5.3155e-07
-2.83804e-07
-4.64855e-07
-3.35182e-07
-2.99256e-07
-3.68202e-07
-1.40246e-06
5.10744e-07
-2.27876e-07
-1.51796e-06
-2.29296e-07
-1.52011e-06
-2.61835e-07
-1.29954e-06
-3.69214e-07
-7.33076e-07
-4.52185e-07
-5.83489e-07
-4.89962e-07
-5.51152e-07
-5.15647e-07
-5.05865e-07
-5.0552e-07
-4.74982e-07
-4.09618e-07
-4.31084e-07
-4.91167e-07
-1.46865e-06
5.57356e-07
-4.21287e-07
-1.58784e-06
-4.14409e-07
-1.52698e-06
-3.8761e-07
-1.32634e-06
-4.066e-07
-7.14086e-07
-4.55723e-07
-5.34365e-07
-4.75639e-07
-5.31235e-07
-4.59201e-07
-5.22304e-07
-4.1001e-07
-5.24174e-07
-4.946e-07
-3.25028e-07
-4.58042e-07
-1.40323e-06
3.92625e-07
-5.36508e-07
-1.50938e-06
-5.36944e-07
-1.52655e-06
-4.56263e-07
-1.40702e-06
-4.18591e-07
-7.51758e-07
-4.25402e-07
-5.27554e-07
-4.4626e-07
-5.10378e-07
-4.39677e-07
-5.28886e-07
-4.22929e-07
-5.40923e-07
-5.30752e-07
-3.86776e-07
-4.44973e-07
-1.17322e-06
2.14962e-07
-6.19393e-07
-1.33496e-06
-6.21122e-07
-1.52482e-06
-5.40919e-07
-1.48722e-06
-3.30213e-07
-9.62464e-07
-3.85174e-07
-4.72594e-07
-4.69768e-07
-4.25784e-07
-5.4599e-07
-4.52664e-07
-6.01733e-07
-4.8518e-07
-5.0743e-07
-6.25055e-07
-4.1263e-07
-8.25152e-07
6.45649e-08
-5.43006e-07
-1.20458e-06
-5.69033e-07
-1.49879e-06
-5.58266e-07
-1.49799e-06
-2.6667e-07
-1.25406e-06
-3.00071e-07
-4.39192e-07
-4.33675e-07
-2.9218e-07
-5.61589e-07
-3.24751e-07
-6.63987e-07
-3.82781e-07
-4.47613e-07
-7.23804e-07
-3.15533e-07
-2.76393e-07
-2.33226e-07
-4.28502e-07
-1.09161e-06
-4.57572e-07
-1.46972e-06
-4.20571e-07
-1.53499e-06
-2.30791e-07
-1.44384e-06
-4.1549e-08
-6.28434e-07
-2.73295e-07
-6.04335e-08
-4.36124e-07
-1.61922e-07
-5.74859e-07
-2.44046e-07
-3.16632e-07
-7.05841e-07
2.24134e-08
6.72805e-08
-3.66087e-07
-3.67219e-07
-7.0198e-07
-4.59954e-07
-1.37698e-06
-4.22788e-07
-1.57216e-06
-2.99877e-07
-1.56675e-06
1.61033e-07
-1.08934e-06
-3.05414e-08
1.3114e-07
-1.69494e-07
-2.29698e-08
-4.04556e-07
-8.98345e-09
-1.11973e-07
-6.09214e-07
4.17813e-08
3.10604e-07
-2.85105e-07
-4.80549e-07
-1.79651e-07
-5.92314e-07
-1.26522e-06
-5.43007e-07
-1.62146e-06
-4.3528e-07
-1.67448e-06
-4.71378e-08
-1.47749e-06
1.11578e-07
-2.7576e-08
1.53904e-07
-6.52948e-08
8.54951e-08
5.94247e-08
5.7663e-08
-8.41414e-08
3.27757e-07
4.86499e-07
-5.03652e-07
-5.61224e-08
2.04227e-07
-4.49102e-07
-8.7224e-07
-4.16478e-07
-1.65409e-06
-3.27056e-07
-1.7639e-06
-1.54046e-07
-1.6505e-06
-1.31995e-10
-1.81489e-07
6.06299e-08
-1.26056e-07
1.49648e-07
-2.95941e-08
-2.19195e-09
2.09503e-07
6.80676e-07
3.24076e-07
-5.18252e-07
6.48438e-07
2.36465e-07
1.89397e-07
-4.13201e-07
-5.07594e-08
-1.41393e-06
-7.315e-08
-1.74151e-06
-2.09039e-08
-1.70274e-06
-1.43307e-07
-5.90863e-08
-1.51645e-07
-1.17718e-07
-1.22508e-07
-5.87309e-08
-8.8728e-08
-3.59717e-08
4.36839e-07
1.72698e-07
-2.85461e-07
4.98691e-07
1.74611e-07
1.90931e-07
-1.0544e-07
-3.65053e-09
-1.21935e-06
-2.41062e-08
-1.72105e-06
-1.0507e-08
-1.71634e-06
6.27716e-08
-1.32365e-07
-6.90958e-09
-4.80363e-08
8.91557e-09
-7.4556e-08
-1.09691e-07
2.98783e-08
2.50009e-07
3.16046e-08
-1.08916e-07
2.52788e-07
1.71832e-07
9.06306e-08
5.67188e-08
-1.0317e-08
-1.1184e-06
-2.80825e-08
-1.70329e-06
-5.1189e-08
-1.69323e-06
1.6764e-07
-3.51194e-07
1.57816e-07
-3.82112e-08
1.8238e-07
-9.91199e-08
1.21718e-08
6.05166e-08
1.86414e-07
-4.96029e-08
-1.05207e-07
1.50815e-07
2.07431e-07
1.00806e-08
1.97453e-07
6.1679e-09
-1.11449e-06
-1.81015e-08
-1.67902e-06
-5.71916e-08
-1.65414e-06
2.05195e-08
-4.28905e-07
2.64891e-07
-2.82582e-07
3.33835e-07
-1.68064e-07
-2.16648e-08
3.67672e-07
1.63618e-08
-5.70514e-08
-8.91352e-09
3.77211e-08
1.86071e-07
-7.63608e-08
3.11537e-07
-4.75562e-08
-1.14329e-06
-8.0872e-08
-1.6457e-06
-1.18533e-07
-1.61648e-06
-7.44412e-08
-4.72997e-07
-2.26755e-08
-3.34348e-07
1.18189e-07
-3.08929e-07
-2.34651e-07
3.31175e-07
6.17152e-08
4.04541e-09
-1.22812e-07
5.93062e-08
1.8848e-07
-3.05208e-08
4.01365e-07
-1.2425e-07
-1.04956e-06
-1.84023e-07
-1.58593e-06
-1.90409e-07
-1.6101e-06
-7.50982e-08
-5.88308e-07
-5.24621e-08
-3.56984e-07
2.686e-08
-3.8825e-07
-1.89827e-07
-1.79649e-08
2.7726e-07
1.47283e-07
-4.20497e-07
2.4155e-07
2.2419e-07
2.13407e-07
4.29509e-07
-1.90187e-07
-6.45968e-07
-2.84176e-07
-1.49194e-06
-2.89252e-07
-1.60502e-06
2.62852e-08
-9.03845e-07
-7.67065e-08
-2.53992e-07
-1.9868e-07
-2.66277e-07
1.46291e-07
-5.34801e-07
3.94927e-07
2.41539e-07
-4.89183e-07
3.02369e-07
3.16748e-07
3.52565e-07
3.79313e-07
-6.40335e-08
-2.2937e-07
-8.7693e-08
-1.46828e-06
-1.30752e-07
-1.56196e-06
2.04085e-07
-1.23868e-06
1.76901e-08
-6.75974e-08
-1.54257e-07
-9.43288e-08
3.29325e-07
-3.37291e-07
2.6656e-07
1.80099e-07
-2.0512e-07
2.62121e-07
3.21187e-07
1.94721e-07
4.46715e-07
2.91326e-08
-6.37814e-08
4.63081e-08
-1.48546e-06
4.92612e-08
-1.56491e-06
2.1409e-07
-1.40351e-06
-1.74913e-08
1.63984e-07
-2.12842e-07
1.01021e-07
4.80788e-07
-3.64305e-07
-4.97364e-08
2.33777e-07
-3.94108e-09
-1.54476e-07
4.25925e-07
-2.42561e-07
5.34798e-07
1.74043e-08
-3.23744e-07
3.52357e-08
-1.50329e-06
5.52638e-08
-1.58494e-06
2.29681e-07
-1.57793e-06
7.23605e-08
3.21305e-07
-1.66589e-07
3.39971e-07
5.17965e-07
-2.03767e-07
-1.18119e-06
2.40572e-07
1.17439e-06
-9.55332e-07
2.00068e-07
-3.71506e-07
-4.90258e-08
-4.58349e-08
-6.49416e-07
2.11991e-09
-1.55124e-06
8.09573e-09
-1.59092e-06
5.59932e-08
-1.62582e-06
5.13803e-07
-1.36506e-07
3.38571e-07
5.15202e-07
5.21629e-07
3.34905e-07
-7.5162e-07
-1.35075e-07
1.12727e-06
-3.69212e-07
-1.82343e-07
-3.61813e-08
-3.82056e-07
6.78449e-09
-6.92381e-07
2.6605e-08
-1.57107e-06
2.83339e-08
-1.59265e-06
-1.22847e-08
-1.58521e-06
5.00506e-07
-6.49296e-07
7.7046e-07
2.45246e-07
3.86182e-07
9.05906e-07
-5.37676e-08
-2.33866e-07
1.52559e-07
2.78553e-08
-2.63965e-07
-6.49544e-08
-2.89246e-07
-1.79272e-09
-7.55542e-07
1.00289e-08
-1.58289e-06
8.97069e-09
-1.59159e-06
-8.28483e-09
-1.56795e-06
1.04588e-07
-7.6217e-07
2.51429e-07
9.8406e-08
3.16153e-07
3.21459e-07
4.42006e-08
-2.14969e-07
-6.3097e-08
5.65355e-08
-2.763e-07
-1.5298e-07
-7.97319e-08
1.66436e-08
-9.25166e-07
1.26373e-08
-1.57888e-06
2.2132e-09
-1.58116e-06
-1.94634e-08
-1.54627e-06
-1.40864e-07
-6.40768e-07
-5.94458e-08
1.69898e-08
2.2475e-07
3.19549e-08
1.15291e-07
-1.72079e-07
-1.58179e-07
-5.41436e-08
-1.06866e-07
-2.80076e-07
1.46202e-07
3.04124e-08
-1.23565e-06
2.61493e-08
-1.57462e-06
2.79163e-08
-1.58293e-06
1.54181e-08
-1.53378e-06
-2.12848e-08
-6.04063e-07
1.5505e-07
-1.59346e-07
1.07496e-07
2.72304e-07
-5.98316e-08
-7.29776e-08
-3.92719e-08
-3.14801e-07
1.48042e-07
-3.07912e-07
1.39313e-07
-2.54102e-08
-1.51816e-06
-1.55912e-08
-1.58444e-06
-2.30798e-08
-1.57544e-06
-3.44529e-08
-1.5224e-06
3.20654e-09
-6.41725e-07
1.81024e-07
-3.37165e-07
-8.47045e-08
3.73225e-07
-4.23118e-07
-1.6793e-07
5.18066e-07
-3.69659e-07
9.45822e-08
-3.58821e-08
-1.94463e-07
1.73189e-08
-1.57136e-06
5.044e-09
-1.57216e-06
1.03663e-09
-1.57144e-06
-1.16145e-08
-1.50975e-06
1.64046e-09
-6.54979e-07
1.09914e-07
-4.45438e-07
-2.58372e-07
2.83581e-07
-4.7587e-07
-2.56058e-07
5.63997e-07
-1.92289e-07
-1.89006e-07
7.20269e-08
-4.58776e-07
2.65999e-08
-1.52593e-06
2.0725e-08
-1.56629e-06
7.90322e-09
-1.55861e-06
2.41222e-09
-1.50426e-06
-2.18448e-08
-6.30722e-07
5.91328e-08
-5.26416e-07
-4.19412e-07
2.20169e-07
-1.46223e-07
-2.72462e-07
1.62626e-07
9.77246e-09
-3.45007e-07
8.12491e-08
-5.30252e-07
7.17457e-08
-1.51643e-06
5.1546e-08
-1.54609e-06
5.23422e-08
-1.55941e-06
1.06922e-08
-1.46261e-06
-5.98123e-08
-5.60218e-07
-6.49459e-08
-5.21282e-07
-5.01019e-07
1.66624e-08
9.99115e-08
-2.02293e-07
-1.70082e-07
5.50974e-08
-3.00194e-07
3.64924e-08
-5.11649e-07
1.33434e-08
-1.49328e-06
4.41145e-09
-1.53715e-06
-1.47046e-08
-1.54029e-06
-6.19881e-08
-1.41533e-06
-1.19608e-07
-5.02599e-07
-1.51201e-07
-4.89689e-07
-5.48428e-07
-1.03792e-07
1.92443e-07
-1.20304e-07
-2.74431e-07
5.95537e-08
-1.67313e-07
5.60695e-08
-5.08157e-07
8.98487e-09
-1.4462e-06
-6.18249e-09
-1.52199e-06
-2.66019e-08
-1.51988e-06
-5.90739e-08
-1.38286e-06
-9.96215e-08
-4.62052e-07
-1.44742e-07
-4.4457e-07
-5.63587e-07
-1.29583e-07
1.10405e-07
-7.76485e-08
-1.53063e-07
-1.56049e-08
-4.13044e-08
4.82194e-08
-5.71978e-07
1.92561e-08
-1.41724e-06
6.88528e-10
-1.50342e-06
-1.76959e-08
-1.50149e-06
-8.18414e-09
-1.39237e-06
8.63215e-08
-5.56559e-07
4.14216e-08
-3.99669e-07
-5.03603e-07
-1.85638e-08
3.13064e-08
-7.45904e-08
-3.43657e-08
6.27283e-08
-7.27294e-08
7.22912e-08
-5.81541e-07
2.81224e-08
-1.37306e-06
2.87836e-09
-1.47817e-06
-1.39013e-08
-1.48471e-06
-8.54902e-10
-1.40542e-06
2.09959e-07
-7.67374e-07
2.44654e-07
-4.34364e-07
-4.48581e-07
1.89632e-07
-2.0555e-07
-8.22478e-08
2.13207e-07
-8.35633e-08
-1.94719e-07
9.1166e-09
-6.74227e-07
1.18936e-08
-1.37584e-06
-3.58749e-09
-1.46269e-06
-2.77112e-08
-1.46058e-06
-4.54784e-08
-1.38765e-06
7.05638e-08
-8.83419e-07
2.06494e-07
-5.70292e-07
-4.85067e-07
2.4298e-07
-1.20817e-07
-1.74575e-07
2.13144e-07
1.24304e-09
-3.16781e-07
9.64233e-09
-6.82626e-07
1.91671e-08
-1.38537e-06
1.8278e-09
-1.44535e-06
-1.07687e-08
-1.44799e-06
-1.27338e-08
-1.38569e-06
6.62074e-09
-9.02771e-07
8.6966e-08
-6.50638e-07
-5.23227e-07
1.25125e-07
2.8537e-08
-1.70291e-07
-3.28193e-08
2.67538e-08
-3.14997e-07
4.01027e-09
-6.59879e-07
1.3178e-08
-1.39455e-06
-4.8763e-11
-1.43213e-06
-1.44452e-08
-1.43359e-06
-3.29852e-09
-1.39683e-06
1.40374e-09
-9.07474e-07
3.54199e-08
-6.84655e-07
-5.57495e-07
6.96901e-08
4.29732e-08
-1.62106e-07
-5.11571e-08
1.20573e-08
-2.84074e-07
-2.09061e-09
-6.45732e-07
3.15467e-09
-1.39979e-06
-1.12137e-08
-1.41776e-06
-1.98198e-08
-1.42499e-06
-1.04767e-08
-1.40617e-06
3.90989e-09
-9.2186e-07
3.59544e-08
-7.16701e-07
-6.01375e-07
7.98361e-08
2.39754e-08
-1.31973e-07
-5.41075e-08
-1.09723e-08
-2.49126e-07
-2.83444e-08
-6.28356e-07
-3.44029e-08
-1.39373e-06
-2.95564e-08
-1.4226e-06
-5.05877e-08
-1.40395e-06
-5.12154e-08
-1.40554e-06
-1.08059e-08
-9.62268e-07
2.35768e-08
-7.51084e-07
-6.21234e-07
4.34356e-08
9.98355e-08
-7.25815e-08
-1.59225e-07
5.23977e-08
-2.0169e-07
7.42576e-08
-6.50215e-07
6.95758e-08
-1.38905e-06
5.13083e-08
-1.40433e-06
5.52756e-08
-1.40792e-06
3.9599e-08
-1.38987e-06
1.75968e-09
-9.24428e-07
-1.87878e-08
-7.30536e-07
-6.01983e-07
-3.80399e-08
9.84086e-10
-7.9757e-08
6.19358e-09
2.301e-08
-2.23705e-07
5.75729e-08
-6.84779e-07
4.94517e-08
-1.38092e-06
3.39828e-08
-1.38887e-06
3.0092e-08
-1.40403e-06
1.76995e-08
-1.37747e-06
-5.37444e-08
-8.52985e-07
-9.69519e-08
-6.87328e-07
-5.68224e-07
-1.30709e-07
-2.81774e-08
-1.04516e-07
5.29393e-08
5.30745e-09
-2.57187e-07
-6.3417e-09
-6.73128e-07
-2.25081e-08
-1.36476e-06
-2.38799e-08
-1.38749e-06
-4.36735e-08
-1.38424e-06
-5.46469e-08
-1.3665e-06
-1.01668e-07
-8.05964e-07
-1.49216e-07
-6.39781e-07
-5.41817e-07
-1.75623e-07
1.19325e-08
-1.21063e-07
4.61729e-09
2.50749e-08
-2.70322e-07
2.42252e-08
-6.72272e-07
1.31384e-08
-1.35367e-06
-2.56239e-09
-1.37179e-06
-1.48314e-08
-1.37197e-06
-3.04108e-08
-1.35092e-06
-1.06489e-07
-7.29886e-07
-1.6406e-07
-5.82212e-07
-5.3254e-07
-1.73337e-07
2.703e-08
-1.25433e-07
-2.26583e-08
2.90736e-08
-2.72359e-07
1.77737e-08
-6.60973e-07
6.55308e-09
-1.34245e-06
-7.0306e-09
-1.35821e-06
-2.19177e-08
-1.35708e-06
-3.35454e-08
-1.33929e-06
-8.73572e-08
-6.76076e-07
-1.46762e-07
-5.22807e-07
-5.29514e-07
-1.49788e-07
1.41997e-07
-6.1193e-08
-2.06236e-07
7.52828e-08
-2.05641e-07
3.01917e-08
-6.15883e-07
1.43689e-08
-1.32663e-06
-3.71782e-09
-1.34012e-06
-1.85456e-08
-1.34225e-06
-3.00355e-08
-1.3278e-06
-5.99075e-08
-6.46204e-07
-1.16956e-07
-4.65759e-07
-5.29578e-07
-1.16891e-07
1.78893e-07
3.32849e-08
-2.7337e-07
8.56107e-08
-1.12359e-07
2.34668e-08
-5.53736e-07
-1.82883e-09
-1.30133e-06
-1.53e-08
-1.32665e-06
-3.40834e-08
-1.32347e-06
-4.41696e-08
-1.31772e-06
-5.54746e-08
-6.349e-07
-8.16876e-08
-4.39546e-07
-5.15858e-07
-9.54074e-08
1.38538e-07
1.06962e-07
-2.12215e-07
7.19156e-08
-4.57369e-08
5.65646e-08
-5.38386e-07
3.23456e-08
-1.27711e-06
1.16915e-08
-1.306e-06
-4.71149e-09
-1.30707e-06
-5.25796e-08
-1.26985e-06
-5.6863e-08
-6.30617e-07
-5.87608e-08
-4.3765e-07
-4.62531e-07
-1.12087e-07
7.72999e-08
1.62617e-07
-1.32955e-07
4.39993e-08
-1.24321e-08
4.33991e-08
-5.37782e-07
1.90156e-08
-1.25273e-06
1.06598e-10
-1.28709e-06
-2.1171e-08
-1.28579e-06
-3.60615e-08
-1.25496e-06
-4.70092e-08
-6.1967e-07
-5.9756e-08
-4.24903e-07
-3.93021e-07
-1.29267e-07
-6.95032e-09
1.81147e-07
-1.15813e-08
8.81253e-09
-2.82033e-08
1.5012e-08
-5.43983e-07
1.8485e-08
-1.2562e-06
-1.25682e-09
-1.26734e-06
-1.92059e-08
-1.26784e-06
-2.0817e-08
-1.25335e-06
-5.34004e-08
-5.87087e-07
-7.09236e-08
-4.0738e-07
-3.18436e-07
-1.45509e-07
-3.10743e-08
1.45105e-07
6.71164e-08
1.23185e-08
-7.15928e-08
1.62125e-08
-5.47876e-07
1.50182e-08
-1.25501e-06
-1.50681e-09
-1.25082e-06
-1.87219e-08
-1.25062e-06
-1.96425e-08
-1.25243e-06
-6.20457e-08
-5.44684e-07
-1.18324e-07
-3.511e-07
-2.92378e-07
-1.44382e-07
-3.81717e-08
8.66865e-08
9.65906e-08
1.37784e-08
-1.23538e-07
2.5365e-08
-5.59461e-07
1.15432e-08
-1.24119e-06
-3.49544e-09
-1.23578e-06
-1.50431e-08
-1.23908e-06
-3.11092e-08
-1.23636e-06
-4.97149e-08
-5.26077e-07
-1.30522e-07
-2.70293e-07
-2.70548e-07
-1.52353e-07
-2.10495e-08
3.96182e-08
6.81203e-08
5.59542e-09
-1.50182e-07
-3.59207e-09
-5.50274e-07
-1.77162e-08
-1.22706e-06
-2.30151e-08
-1.23048e-06
-4.082e-08
-1.22127e-06
-5.17232e-08
-1.22546e-06
-2.72592e-08
-5.50541e-07
-6.48122e-08
-2.3274e-07
-1.9331e-07
-1.42049e-07
3.57187e-08
2.57071e-08
-2.18059e-08
3.80544e-08
-1.52515e-07
2.02747e-08
-5.3249e-07
7.49114e-09
-1.21428e-06
-4.61948e-09
-1.21837e-06
-1.5536e-08
-1.21036e-06
-2.65191e-08
-1.21448e-06
3.34942e-09
-5.80409e-07
-7.90685e-09
-2.21484e-07
-9.67707e-08
-1.04447e-07
7.90564e-08
6.13753e-08
-1.14724e-07
6.63011e-08
-1.39761e-07
7.52734e-08
-5.41462e-07
6.05218e-08
-1.19953e-06
4.19387e-08
-1.19979e-06
3.53992e-08
-1.20382e-06
2.00462e-08
-1.19912e-06
8.39514e-09
-5.68757e-07
-5.4314e-08
-1.58777e-07
-3.09778e-08
-1.20108e-07
1.15185e-07
5.97838e-08
-1.13593e-07
4.08468e-08
-6.54238e-08
4.45688e-08
-5.45188e-07
3.40474e-08
-1.18901e-06
1.78759e-08
-1.18362e-06
3.26573e-09
-1.18921e-06
-1.09926e-08
-1.18486e-06
-2.72861e-08
-5.52464e-07
-5.80788e-08
-1.27986e-07
-5.18841e-08
-3.71727e-08
7.34867e-08
-7.82285e-08
6.4525e-08
5.93734e-08
-5.13115e-08
2.39743e-08
-5.09791e-07
3.18585e-09
-1.16822e-06
-1.05864e-08
-1.16984e-06
-3.22117e-08
-1.16758e-06
-4.75115e-08
-1.16956e-06
-4.96694e-08
-5.50307e-07
-9.95744e-08
-7.8081e-08
-1.19663e-07
-3.17961e-08
-2.7818e-07
-1.18853e-07
3.18802e-07
-7.25465e-08
-2.5695e-07
3.42985e-08
-6.16638e-07
2.4435e-08
-1.15835e-06
3.03027e-09
-1.14844e-06
-1.22266e-08
-1.15232e-06
-2.60038e-08
-1.15579e-06
-6.02978e-09
-5.70282e-07
-4.90967e-08
-3.50139e-08
-1.23079e-07
-4.56809e-08
1.48118e-08
-1.54223e-07
2.05567e-08
-1.56483e-09
-2.40575e-07
1.20647e-08
-6.3027e-07
-4.48793e-10
-1.14584e-06
-1.67109e-08
-1.13218e-06
-4.15545e-08
-1.12748e-06
-5.202e-08
-1.14532e-06
-2.62191e-08
-5.96083e-07
-8.90179e-08
2.77849e-08
-3.46548e-08
-1.77443e-07
3.74555e-08
-2.07476e-07
1.57972e-08
4.42679e-09
-2.07542e-07
4.0938e-08
-6.66781e-07
3.05667e-08
-1.13547e-06
4.51733e-09
-1.10613e-06
-1.26121e-08
-1.11035e-06
-2.44834e-08
-1.13345e-06
5.56121e-09
-6.26128e-07
5.36598e-08
-2.03143e-08
6.56467e-08
-4.66429e-08
1.74767e-08
-3.26984e-07
1.02032e-07
2.06767e-08
-2.10745e-07
3.19272e-08
-6.78036e-07
1.31413e-08
-1.11669e-06
-6.13794e-09
-1.08685e-06
-3.09238e-08
-1.08556e-06
-4.77161e-08
-1.11666e-06
-2.55758e-08
-6.48268e-07
5.29338e-08
-9.88247e-08
6.18786e-08
5.67007e-08
-3.1665e-08
-3.55538e-07
6.02191e-08
-3.77908e-08
-2.0462e-07
3.60525e-08
-7.51881e-07
1.58928e-08
-1.09653e-06
-2.72685e-09
-1.06823e-06
-2.06473e-08
-1.06764e-06
-4.1319e-08
-1.09599e-06
-1.69756e-08
-6.72613e-07
2.99183e-09
-1.18792e-07
4.66864e-08
1.81837e-08
-1.71868e-07
-2.96259e-07
1.12588e-07
-4.57547e-08
-3.30734e-07
3.55419e-08
-8.3318e-07
1.60939e-08
-1.07708e-06
5.82234e-10
-1.05272e-06
-1.38295e-08
-1.05323e-06
-3.348e-08
-1.07634e-06
-1.04521e-08
-6.95641e-07
-8.81159e-09
-1.20431e-07
5.14833e-08
-1.36078e-08
-8.37405e-08
-3.09286e-07
9.6766e-08
1.27292e-08
-4.27202e-07
3.2326e-08
-8.52775e-07
1.28611e-08
-1.05761e-06
-2.42542e-09
-1.03743e-06
-1.42087e-08
-1.04145e-06
-3.34134e-08
-1.05713e-06
-1.74458e-08
-7.11608e-07
-1.9692e-08
-1.18184e-07
6.70544e-08
-3.52627e-08
2.61554e-08
-3.01106e-07
-3.43337e-08
2.41518e-08
-4.25196e-07
4.67118e-09
-8.33291e-07
-1.35797e-08
-1.03936e-06
-1.88075e-08
-1.0322e-06
-3.53806e-08
-1.02488e-06
-5.39112e-08
-1.0386e-06
-4.35131e-08
-7.22005e-07
-5.71989e-08
-1.04498e-07
8.14184e-08
-7.15624e-08
1.48978e-07
-2.29572e-07
-2.20511e-07
7.95384e-08
-3.55755e-07
4.10702e-08
-7.94824e-07
2.41971e-08
-1.02249e-06
5.64402e-09
-1.01365e-06
-4.10237e-09
-1.01513e-06
-2.19021e-08
-1.0208e-06
-4.09058e-08
-7.03001e-07
-6.2186e-08
-8.3217e-08
1.01433e-07
-8.22001e-08
1.75452e-07
-1.44521e-07
-2.60501e-07
8.50888e-08
-2.65389e-07
2.2568e-08
-7.32303e-07
6.5588e-09
-1.00648e-06
-6.88375e-09
-1.00021e-06
-2.70568e-08
-9.94957e-07
-4.29706e-08
-1.00489e-06
-5.46043e-08
-6.91367e-07
-6.09149e-08
-7.69052e-08
1.04232e-07
-6.37126e-08
1.45317e-07
-7.13498e-08
-2.18489e-07
9.05448e-08
-2.10613e-07
5.25882e-08
-6.94347e-07
3.46176e-08
-9.88511e-07
8.35476e-09
-9.73945e-07
-8.41881e-09
-9.78183e-07
-2.71188e-08
-9.86187e-07
-7.27337e-08
-6.45751e-07
-8.95501e-08
-6.00875e-08
8.67031e-08
-7.2021e-08
1.06852e-07
-3.13347e-08
-1.46868e-07
6.50041e-08
-1.68766e-07
2.8934e-08
-6.5828e-07
9.56713e-09
-9.69144e-07
-9.9504e-09
-9.54427e-07
-3.91664e-08
-9.48967e-07
-5.77439e-08
-9.67609e-07
-6.84366e-08
-6.35057e-07
-6.36833e-08
-6.48401e-08
5.23049e-08
-2.9285e-08
7.80035e-08
-1.54232e-08
-9.39161e-08
5.73473e-08
-1.48113e-07
5.08857e-08
-6.51819e-07
3.43965e-08
-9.52656e-07
4.61471e-09
-9.24646e-07
-1.89677e-08
-9.25385e-07
-3.73321e-08
-9.49245e-07
-4.3846e-08
-6.28544e-07
-2.00282e-08
-8.86575e-08
1.78555e-08
1.44212e-08
6.38075e-08
8.11836e-09
-8.73504e-08
3.86122e-08
-1.22922e-07
4.10462e-08
-6.54256e-07
2.20553e-08
-9.33666e-07
-3.21047e-09
-8.9938e-07
-3.17079e-08
-8.96887e-07
-5.05319e-08
-9.30421e-07
-2.62972e-08
-6.52779e-07
1.09335e-08
-1.25888e-07
1.08807e-09
2.7701e-08
6.32337e-08
3.28972e-08
-8.80133e-08
4.20122e-08
-1.01703e-07
4.86691e-08
-6.60912e-07
2.63379e-08
-9.11336e-07
1.33638e-09
-8.74378e-07
-2.24426e-08
-8.73108e-07
-4.47055e-08
-9.08158e-07
-3.89186e-08
-6.58566e-07
-4.51003e-08
-1.19706e-07
1.86044e-08
-6.26165e-08
1.3307e-07
5.00878e-08
-1.50261e-07
6.62116e-08
-3.48512e-08
4.49844e-08
-6.39686e-07
2.02915e-08
-8.86642e-07
-4.21678e-10
-8.53665e-07
-2.15071e-08
-8.52023e-07
-4.64594e-08
-8.83205e-07
-3.42286e-08
-6.70796e-07
-4.33596e-08
-1.10575e-07
3.75433e-08
-6.22981e-08
6.74708e-08
5.55564e-08
-7.29401e-08
4.44116e-08
-1.17926e-08
4.47859e-08
-6.40062e-07
1.97803e-08
-8.61636e-07
4.68773e-10
-8.34354e-07
-1.901e-08
-8.32544e-07
-4.42786e-08
-8.57937e-07
-4.94411e-08
-6.65634e-07
-3.72778e-08
-1.22738e-07
1.02614e-08
-9.99546e-09
4.46587e-08
4.7463e-08
-3.65649e-08
5.00001e-08
-1.71274e-08
4.49584e-08
-6.35017e-07
2.02876e-08
-8.36964e-07
6.49597e-10
-8.14716e-07
-2.04055e-08
-8.11489e-07
-4.56487e-08
-8.32694e-07
-4.71187e-08
-6.64163e-07
-9.91587e-09
-1.5994e-07
-3.03054e-08
3.06518e-08
2.4411e-08
6.49639e-08
-4.19112e-08
4.46067e-08
-3.73196e-08
4.54732e-08
-6.35882e-07
2.16775e-08
-8.13167e-07
-2.8107e-10
-7.92757e-07
-2.28391e-08
-7.88931e-07
-4.56014e-08
-8.09931e-07
-4.4623e-08
-6.65141e-07
-2.4062e-08
-1.805e-07
-6.24128e-08
8.04638e-09
2.81202e-08
5.65305e-08
-1.96845e-08
5.06101e-08
-5.98036e-08
4.75495e-08
-6.3282e-07
2.2257e-08
-7.87874e-07
-3.26911e-09
-7.67231e-07
-2.38056e-08
-7.68394e-07
-4.6889e-08
-7.86848e-07
-6.46176e-08
-6.47412e-07
-7.31298e-08
-1.71987e-07
-7.4318e-08
-6.12234e-08
4.15032e-08
2.23239e-08
-7.29416e-09
5.79069e-08
-7.61948e-08
4.8461e-08
-6.23369e-07
2.31667e-08
-7.62579e-07
-3.97022e-09
-7.40094e-07
-2.37562e-08
-7.48608e-07
-4.63331e-08
-7.64271e-07
-6.53282e-08
-6.28416e-07
-8.30073e-08
-1.54305e-07
-7.27465e-08
-8.45778e-08
2.85181e-08
-1.55549e-08
9.36278e-09
6.07423e-08
-1.08414e-07
4.76243e-08
-6.1025e-07
2.35429e-08
-7.38497e-07
7.91188e-09
-7.24463e-07
-2.0386e-08
-7.20311e-07
-4.36431e-08
-7.41014e-07
-5.88621e-08
-6.13196e-07
-6.09992e-08
-1.52166e-07
-6.65943e-08
-6.71501e-08
1.93845e-08
-3.6744e-08
1.8071e-09
6.01509e-08
-1.49178e-07
5.21453e-08
-6.02243e-07
3.15725e-08
-7.17924e-07
8.66883e-09
-7.01559e-07
-1.06763e-08
-7.00966e-07
-3.81989e-08
-7.13491e-07
-6.8628e-08
-5.82766e-07
-8.13679e-08
-1.39425e-07
-6.37018e-08
-8.42592e-08
4.19837e-08
-5.58856e-08
-2.28405e-08
5.18189e-08
-1.59011e-07
9.48034e-09
-5.59905e-07
-1.97139e-08
-6.88731e-07
-5.17994e-08
-6.69474e-07
-7.38997e-08
-6.78865e-07
-1.02158e-07
-6.85233e-07
-8.518e-08
-5.99744e-07
-6.00053e-08
-1.64599e-07
-5.3174e-08
-7.05324e-08
5.77974e-08
-6.90582e-08
-4.46244e-08
6.44526e-08
-1.65664e-07
2.25295e-08
-5.17981e-07
-1.23155e-08
-6.53885e-07
-2.43892e-08
-6.574e-07
-5.79825e-08
-6.45272e-07
-8.22844e-08
-6.60931e-07
-3.96697e-08
-6.42358e-07
-4.46708e-08
-1.59598e-07
-3.61413e-08
-6.17035e-08
8.13471e-08
-8.18641e-08
-6.85423e-08
1.19461e-07
-2.03781e-07
1.09676e-07
-5.08196e-07
9.09901e-08
-6.35199e-07
7.48666e-08
-6.41276e-07
4.38242e-08
-6.14229e-07
1.27726e-08
-6.2988e-07
-2.02417e-09
-6.27561e-07
-3.11648e-08
-1.30457e-07
-1.30376e-08
-5.42687e-08
8.21971e-08
-9.0468e-08
-7.35934e-08
1.37654e-07
-2.59238e-07
1.75782e-07
-5.46323e-07
1.48509e-07
-6.07927e-07
9.25918e-08
-5.85359e-07
7.3329e-08
-5.94967e-07
3.24626e-08
-5.89013e-07
-3.73943e-08
-5.57704e-07
-8.26746e-08
-8.5177e-08
-1.0329e-08
-8.53834e-08
6.02656e-08
-7.67828e-08
-7.395e-08
7.8121e-08
-2.77088e-07
9.84318e-08
-5.66634e-07
5.36253e-08
-5.6312e-07
2.435e-08
-5.56084e-07
-7.75529e-09
-5.62861e-07
-3.93869e-08
-5.57382e-07
-1.26013e-07
-4.71078e-07
-1.17948e-07
-9.32432e-08
-1.94528e-08
-1.08824e-07
1.07852e-07
-7.76711e-08
-1.06963e-07
1.29716e-07
-2.98953e-07
9.2419e-08
-5.29338e-07
5.98621e-08
-5.30563e-07
2.93148e-08
-5.25536e-07
-7.34011e-09
-5.26206e-07
-4.57221e-08
-5.19e-07
-5.90728e-08
-4.57727e-07
-5.02168e-08
-1.02099e-07
-3.67176e-09
-6.59979e-08
1.12186e-07
-7.74083e-08
-1.1245e-07
9.3218e-08
-2.79982e-07
4.62249e-08
-4.82343e-07
7.02147e-09
-4.9136e-07
-2.2814e-08
-4.95701e-07
-5.43977e-08
-4.94623e-07
-8.71541e-08
-4.86243e-07
-4.49684e-08
-4.99913e-07
-2.59054e-08
-1.21162e-07
2.21737e-08
-5.17506e-08
1.5084e-07
-1.01654e-07
-1.26594e-07
1.33145e-07
-2.62291e-07
8.87336e-08
-4.3793e-07
4.5994e-08
-4.4862e-07
1.94892e-09
-4.51656e-07
-3.92221e-08
-4.53452e-07
-7.91875e-08
-4.46278e-07
-1.37398e-07
-4.41702e-07
-1.08297e-07
-1.50262e-07
1.7024e-08
-1.03147e-07
1.13075e-07
-1.31955e-07
-8.27723e-08
1.10854e-07
-2.6007e-07
6.35582e-08
-3.90635e-07
2.65477e-08
-4.1161e-07
-1.41938e-08
-4.10914e-07
-6.3477e-08
-4.04168e-07
-1.1291e-07
-3.96844e-07
-1.73721e-07
-3.80891e-07
-1.16198e-07
-2.07786e-07
-4.28844e-09
-9.48853e-08
5.16311e-08
-1.38397e-07
-4.51874e-08
1.26396e-07
-3.3483e-07
7.761e-08
-3.41849e-07
1.95964e-08
-3.53596e-07
-2.66367e-08
-3.64681e-07
-6.52564e-08
-3.65549e-07
-1.00805e-07
-3.61296e-07
-1.41394e-07
-3.40302e-07
-8.58986e-08
-2.63281e-07
-4.10639e-08
-4.9123e-08
1.99739e-07
-1.51788e-07
-1.86348e-07
1.43209e-07
-2.783e-07
9.96835e-08
-2.98323e-07