/*--------------------------------*- C++ -*----------------------------------*\
  =========                 |
  \\      /  F ield         | OpenFOAM: The Open Source CFD Toolbox
   \\    /   O peration     | Website:  https://openfoam.org
    \\  /    A nd           | Version:  8
     \\/     M anipulation  |
\*---------------------------------------------------------------------------*/
FoamFile
{
    version     2.0;
    format      ascii;
    class       surfaceScalarField;
    location    "1.6";
    object      phi;
}
// * * * * * * * * * * * * * * * * * * * * * * * * * * * * * * * * * * * * * //

dimensions      [0 3 -1 0 0 0 0];

internalField   nonuniform List<scalar> 
18095
(
1.58083e-07
-9.65263e-07
8.0718e-07
1.65293e-07
-1.24834e-06
1.24113e-06
1.22209e-07
-1.24235e-06
1.28544e-06
6.53479e-08
-1.2635e-06
1.32036e-06
1.22768e-12
-1.28055e-06
1.3459e-06
-6.53457e-08
-1.28055e-06
1.3459e-06
-1.22207e-07
-1.2635e-06
1.32036e-06
-1.65291e-07
-1.24235e-06
1.28544e-06
-1.58082e-07
-1.24834e-06
1.24113e-06
-9.65265e-07
8.07184e-07
1.11083e-07
-1.07635e-06
9.94602e-08
-1.23671e-06
7.28849e-08
-1.21578e-06
4.00628e-08
-1.23067e-06
6.87853e-13
-1.24049e-06
-4.00615e-08
-1.24049e-06
-7.28836e-08
-1.23067e-06
-9.94586e-08
-1.21578e-06
-1.11082e-07
-1.23671e-06
-1.07635e-06
6.728e-08
-1.14363e-06
5.28134e-08
-1.22225e-06
4.21478e-08
-1.20511e-06
2.38774e-08
-1.2124e-06
2.00674e-13
-1.21661e-06
-2.3877e-08
-1.21661e-06
-4.21474e-08
-1.2124e-06
-5.28128e-08
-1.20511e-06
-6.72791e-08
-1.22225e-06
-1.14363e-06
3.97574e-08
-1.18338e-06
2.66622e-08
-1.20915e-06
2.20155e-08
-1.20047e-06
1.2536e-08
-1.20292e-06
-3.04652e-13
-1.20408e-06
-1.25366e-08
-1.20408e-06
-2.20161e-08
-1.20292e-06
-2.66627e-08
-1.20047e-06
-3.97572e-08
-1.20915e-06
-1.18338e-06
1.66171e-08
7.46667e-09
7.00102e-09
4.07765e-09
-1.54176e-13
-4.07792e-09
-7.00122e-09
-7.46683e-09
-1.66171e-08
-1.74333e-07
-1.16409e-06
1.33843e-06
-2.18094e-07
-1.21602e-06
1.25978e-06
-1.64726e-07
-1.21266e-06
1.1593e-06
-8.71005e-08
-1.20424e-06
1.12662e-06
2.44741e-11
-1.20296e-06
1.11583e-06
8.71488e-08
-1.20296e-06
1.11583e-06
1.64769e-07
-1.20425e-06
1.12663e-06
2.18134e-07
-1.21267e-06
1.15931e-06
1.74376e-07
-1.21604e-06
1.2598e-06
-1.16412e-06
1.33849e-06
-9.33287e-08
-1.07076e-06
-9.57485e-08
-1.2136e-06
-7.91942e-08
-1.22922e-06
-4.41772e-08
-1.23926e-06
1.51912e-11
-1.24715e-06
4.42067e-08
-1.24715e-06
7.92216e-08
-1.23926e-06
9.57728e-08
-1.22923e-06
9.33432e-08
-1.21361e-06
-1.07077e-06
-5.79992e-08
-1.01277e-06
-5.51709e-08
-1.21643e-06
-4.64524e-08
-1.23794e-06
-2.70691e-08
-1.25864e-06
9.15317e-12
-1.27423e-06
2.70868e-08
-1.27423e-06
4.64683e-08
-1.25865e-06
5.51836e-08
-1.23794e-06
5.80059e-08
-1.21643e-06
-1.01277e-06
-7.47123e-08
-9.38053e-07
-6.18074e-08
-1.22933e-06
-4.84566e-08
-1.25129e-06
-2.7697e-08
-1.2794e-06
4.68056e-12
-1.30193e-06
2.77056e-08
-1.30193e-06
4.84633e-08
-1.2794e-06
6.18115e-08
-1.25129e-06
7.47135e-08
-1.22933e-06
-9.38055e-07
-1.30872e-07
-1.19078e-07
-8.49266e-08
-4.39711e-08
2.15895e-12
4.39747e-08
8.49286e-08
1.19078e-07
1.30871e-07
-5.00041e-08
-9.36392e-07
9.86396e-07
2.42391e-09
-1.34049e-06
1.28806e-06
1.04149e-08
-1.27304e-06
1.26505e-06
4.57437e-09
-1.226e-06
1.23184e-06
2.4093e-10
-1.22366e-06
1.228e-06
-4.08743e-09
-1.22372e-06
1.22805e-06
-9.91308e-09
-1.22603e-06
1.23186e-06
-1.86761e-09
-1.27301e-06
1.26496e-06
5.01199e-08
-1.34074e-06
1.28876e-06
-9.36935e-07
9.87055e-07
1.11532e-08
-9.47546e-07
1.80024e-08
-1.34734e-06
1.23563e-08
-1.26739e-06
6.21452e-09
-1.21986e-06
1.66812e-10
-1.21762e-06
-5.88537e-09
-1.21767e-06
-1.21081e-08
-1.21981e-06
-1.76957e-08
-1.26742e-06
-1.10887e-08
-1.34735e-06
-9.48024e-07
2.77711e-08
-9.75317e-07
1.92773e-08
-1.33884e-06
1.13033e-08
-1.25942e-06
6.55475e-09
-1.21511e-06
1.07846e-10
-1.21117e-06
-6.37987e-09
-1.21118e-06
-1.10835e-08
-1.21511e-06
-1.90871e-08
-1.25942e-06
-2.75903e-08
-1.33885e-06
-9.75614e-07
7.8332e-08
-1.05365e-06
5.12529e-08
-1.31176e-06
3.27216e-08
-1.24089e-06
2.06991e-08
-1.20309e-06
5.72101e-11
-1.19053e-06
-2.05906e-08
-1.19053e-06
-3.25883e-08
-1.20311e-06
-5.10956e-08
-1.24091e-06
-7.81839e-08
-1.31176e-06
-1.0538e-06
2.84779e-07
2.32798e-07
1.51208e-07
7.47343e-08
3.69951e-11
-7.46584e-08
-1.51137e-07
-2.32735e-07
-2.84696e-07
-5.49462e-08
-6.96434e-08
1.2459e-07
1.43635e-08
-6.93103e-08
8.31911e-08
-6.88276e-08
1.51406e-07
-6.82153e-08
2.18749e-07
-6.73427e-08
2.84969e-07
-6.62196e-08
3.498e-07
-6.48301e-08
4.12947e-07
-6.31472e-08
4.7409e-07
-6.11431e-08
-5.87553e-08
5.32846e-07
-4.53138e-08
-1.27087e-07
1.02757e-07
1.22449e-08
-1.2687e-07
6.95926e-08
-1.26176e-07
1.2641e-07
-1.25033e-07
1.82487e-07
-1.2342e-07
2.37581e-07
-1.21314e-07
2.91427e-07
-1.18676e-07
3.43737e-07
-1.15457e-07
3.94192e-07
-1.11598e-07
-1.07023e-07
4.42459e-07
-3.72043e-08
-1.75451e-07
8.55691e-08
1.13255e-08
-1.75399e-07
5.9787e-08
-1.74637e-07
1.07931e-07
-1.73176e-07
1.55521e-07
-1.71011e-07
2.0232e-07
-1.68113e-07
2.48081e-07
-1.64436e-07
2.92545e-07
-1.59921e-07
3.35436e-07
-1.5449e-07
-1.48065e-07
3.76478e-07
-3.09914e-08
-2.16744e-07
7.22839e-08
1.04761e-08
-2.16867e-07
5.19145e-08
-2.16076e-07
9.31203e-08
-2.14382e-07
1.33889e-07
-2.1178e-07
1.74015e-07
-2.08239e-07
2.13289e-07
-2.03711e-07
2.51496e-07
-1.98127e-07
2.88409e-07
-1.91404e-07
-1.83443e-07
3.23788e-07
-2.65848e-08
-2.52355e-07
6.21959e-08
9.10521e-09
-2.52557e-07
4.47259e-08
-2.51696e-07
8.01253e-08
-2.49782e-07
1.15146e-07
-2.46801e-07
1.49626e-07
-2.42719e-07
1.834e-07
-2.37484e-07
2.16295e-07
-2.31022e-07
2.4813e-07
-2.23239e-07
-2.14027e-07
2.78714e-07
-2.32854e-08
-2.83101e-07
5.40306e-08
7.44939e-09
-2.83292e-07
3.80739e-08
-2.82321e-07
6.84799e-08
-2.80188e-07
9.8551e-08
-2.76872e-07
1.28163e-07
-2.72332e-07
1.57186e-07
-2.66507e-07
1.8548e-07
-2.59316e-07
2.12902e-07
-2.50661e-07
-2.40428e-07
2.39303e-07
-2.05393e-08
-3.09473e-07
4.69121e-08
5.80866e-09
-3.0964e-07
3.20576e-08
-3.0857e-07
5.81264e-08
-3.06256e-07
8.39267e-08
-3.02672e-07
1.09362e-07
-2.97767e-07
1.34327e-07
-2.91472e-07
1.58709e-07
-2.83698e-07
1.82381e-07
-2.74334e-07
-2.63259e-07
2.05212e-07
-1.84743e-08
-3.32004e-07
4.10054e-08
4.05834e-09
-3.32172e-07
2.65375e-08
-3.31049e-07
4.89035e-08
-3.28622e-07
7.10908e-08
-3.24859e-07
9.30271e-08
-3.19703e-07
1.14631e-07
-3.13076e-07
1.35811e-07
-3.04877e-07
1.56454e-07
-2.94978e-07
-2.83228e-07
1.76423e-07
-1.75521e-08
-3.51353e-07
3.6901e-08
1.8179e-09
-3.51543e-07
2.11797e-08
-3.50411e-07
4.04994e-08
-3.47942e-07
5.97386e-08
-3.44098e-07
7.8854e-08
-3.38819e-07
9.77959e-08
-3.32019e-07
1.16505e-07
-3.23586e-07
1.34906e-07
-3.13379e-07
-3.01222e-07
1.529e-07
-1.81626e-08
-3.68227e-07
3.50358e-08
-1.27334e-09
-3.68432e-07
1.56361e-08
-3.6732e-07
3.2565e-08
-3.64871e-07
4.95094e-08
-3.61043e-07
6.64635e-08
-3.55773e-07
8.3421e-08
-3.48976e-07
1.00375e-07
-3.4054e-07
1.17319e-07
-3.30323e-07
-3.18146e-07
1.34243e-07
-2.04298e-08
-3.83252e-07
3.54551e-08
-5.41016e-09
-3.83451e-07
9.64417e-09
-3.82375e-07
2.47675e-08
-3.79994e-07
3.99911e-08
-3.76266e-07
5.53476e-08
-3.71129e-07
7.08739e-08
-3.64502e-07
8.6617e-08
-3.56283e-07
1.02641e-07
-3.46347e-07
-3.34537e-07
1.19032e-07
-2.42125e-08
-3.96881e-07
3.78414e-08
-1.0599e-08
-3.97065e-07
3.07001e-09
-3.96044e-07
1.68582e-08
-3.93782e-07
3.08265e-08
-3.90235e-07
4.50382e-08
-3.85341e-07
5.95649e-08
-3.79029e-07
7.44967e-08
-3.71215e-07
8.99557e-08
-3.61806e-07
-3.50683e-07
1.06101e-07
-2.93223e-08
-4.09391e-07
4.18323e-08
-1.68036e-08
-4.09584e-07
-4.18382e-09
-4.08663e-07
8.62247e-09
-4.06589e-07
2.16988e-08
-4.03311e-07
3.51324e-08
-3.98774e-07
4.9021e-08
-3.92918e-07
6.34835e-08
-3.85678e-07
7.86674e-08
-3.7699e-07
-3.66767e-07
9.47513e-08
-3.56775e-08
-4.20918e-07
4.7204e-08
-2.40821e-08
-4.21179e-07
-1.23138e-08
-4.20432e-07
-2.73602e-10
-4.18629e-07
1.21366e-08
-4.15721e-07
2.50192e-08
-4.11657e-07
3.84867e-08
-4.06385e-07
5.26684e-08
-3.99859e-07
6.77087e-08
-3.9203e-07
-3.82819e-07
8.37609e-08
-4.33414e-08
-4.31489e-07
5.3913e-08
-3.26197e-08
-4.319e-07
-2.16426e-08
-4.31409e-07
-1.0309e-08
-4.29962e-07
1.48033e-09
-4.27511e-07
1.38268e-08
-4.24004e-07
2.68364e-08
-4.19395e-07
4.06211e-08
-4.13644e-07
5.52948e-08
-4.06704e-07
-3.98505e-07
7.0981e-08
-5.24326e-08
-4.4107e-07
6.20138e-08
-4.26151e-08
-4.41718e-07
-3.2463e-08
-4.41561e-07
-2.18839e-08
-4.40541e-07
-1.07893e-08
-4.38605e-07
9.06747e-10
-4.357e-07
1.32872e-08
-4.31775e-07
2.64288e-08
-4.26786e-07
4.03977e-08
-4.20673e-07
-4.13377e-07
5.52694e-08
-6.30037e-08
-4.49584e-07
7.15179e-08
-5.41636e-08
-4.50558e-07
-4.49132e-08
-4.50811e-07
-3.51753e-08
-4.50279e-07
-2.48786e-08
-4.48902e-07
-1.39572e-08
-4.46621e-07
-2.35174e-09
-4.43381e-07
9.98673e-09
-4.39124e-07
2.30907e-08
-4.33777e-07
-4.27257e-07
3.69708e-08
-7.50298e-08
-4.56946e-07
8.23914e-08
-6.72455e-08
-4.58342e-07
-5.8975e-08
-4.59082e-07
-5.01629e-08
-4.59092e-07
-4.07594e-08
-4.58306e-07
-3.07202e-08
-4.5666e-07
-2.00072e-08
-4.54094e-07
-8.59069e-09
-4.50541e-07
3.55477e-09
-4.45922e-07
-4.40164e-07
1.64617e-08
-8.84185e-08
-4.6312e-07
9.45929e-08
-8.17175e-08
-4.65043e-07
-7.44552e-08
-4.66344e-07
-6.66033e-08
-4.66944e-07
-5.81369e-08
-4.66772e-07
-4.90335e-08
-4.65764e-07
-3.92727e-08
-4.63855e-07
-2.88355e-08
-4.60978e-07
-1.77011e-08
-4.57057e-07
-4.52012e-07
-5.85289e-09
-1.02959e-07
-4.68167e-07
1.08005e-07
-9.72797e-08
-4.70723e-07
-9.09697e-08
-4.72654e-07
-8.40322e-08
-4.73881e-07
-7.64696e-08
-4.74335e-07
-6.82799e-08
-4.73953e-07
-5.94561e-08
-4.72678e-07
-4.99845e-08
-4.7045e-07
-3.98404e-08
-4.67201e-07
-4.62856e-07
-2.89967e-08
-1.18275e-07
-4.72271e-07
1.22379e-07
-1.13446e-07
-4.75551e-07
-1.07936e-07
-4.78164e-07
-1.01781e-07
-4.80036e-07
-9.50102e-08
-4.81106e-07
-8.76391e-08
-4.81325e-07
-7.96703e-08
-4.80647e-07
-7.10905e-08
-4.79029e-07
-6.18619e-08
-4.76429e-07
-4.72812e-07
-5.19061e-08
-1.33731e-07
-4.75734e-07
1.37194e-07
-1.29491e-07
-4.79791e-07
-1.24555e-07
-4.831e-07
-1.18991e-07
-4.856e-07
-1.12847e-07
-4.8725e-07
-1.06152e-07
-4.88019e-07
-9.89127e-08
-4.87886e-07
-9.11118e-08
-4.8683e-07
-8.27045e-08
-4.84837e-07
-4.81895e-07
-7.36206e-08
-1.48322e-07
-4.78872e-07
1.5146e-07
-1.44405e-07
-4.83708e-07
-1.39822e-07
-4.87683e-07
-1.34666e-07
-4.90757e-07
-1.29001e-07
-4.92915e-07
-1.22866e-07
-4.94154e-07
-1.1627e-07
-4.94482e-07
-1.09194e-07
-4.93907e-07
-1.01586e-07
-4.92445e-07
-4.90118e-07
-9.33628e-08
-1.60713e-07
-4.81883e-07
1.63724e-07
-1.5695e-07
-4.87471e-07
-1.5258e-07
-4.92053e-07
-1.47715e-07
-4.95621e-07
-1.42439e-07
-4.98191e-07
-1.36801e-07
-4.99792e-07
-1.3082e-07
-5.00463e-07
-1.24478e-07
-5.00249e-07
-1.17718e-07
-4.99206e-07
-4.97399e-07
-1.10437e-07
-1.69636e-07
-4.84868e-07
1.72621e-07
-1.65949e-07
-4.91158e-07
-1.61726e-07
-4.96276e-07
-1.57098e-07
-5.00249e-07
-1.52161e-07
-5.03128e-07
-1.46978e-07
-5.04975e-07
-1.4158e-07
-5.05861e-07
-1.3596e-07
-5.05869e-07
-1.30074e-07
-5.05092e-07
-5.03647e-07
-1.23826e-07
-1.73991e-07
-4.87794e-07
1.76917e-07
-1.70421e-07
-4.94728e-07
-1.66382e-07
-5.00315e-07
-1.62009e-07
-5.04622e-07
-1.57404e-07
-5.07732e-07
-1.52641e-07
-5.09738e-07
-1.47759e-07
-5.10743e-07
-1.4277e-07
-5.10858e-07
-1.37651e-07
-5.1021e-07
-5.08955e-07
-1.32344e-07
-1.73046e-07
-4.9043e-07
1.75682e-07
-1.69803e-07
-4.97971e-07
-1.66124e-07
-5.03994e-07
-1.62146e-07
-5.08601e-07
-1.57975e-07
-5.11903e-07
-1.53693e-07
-5.1402e-07
-1.49359e-07
-5.15076e-07
-1.45009e-07
-5.15208e-07
-1.40657e-07
-5.14563e-07
-5.13313e-07
-1.36298e-07
-1.66608e-07
-4.92302e-07
1.6848e-07
-1.64075e-07
-5.00504e-07
-1.6106e-07
-5.07008e-07
-1.57712e-07
-5.11949e-07
-1.54151e-07
-5.15465e-07
-1.5048e-07
-5.1769e-07
-1.4679e-07
-5.18767e-07
-1.43155e-07
-5.18843e-07
-1.39641e-07
-5.18076e-07
-5.16646e-07
-1.36308e-07
-1.55679e-07
-4.93042e-07
1.56418e-07
-1.54149e-07
-5.02034e-07
-1.52022e-07
-5.09134e-07
-1.49461e-07
-5.1451e-07
-1.46603e-07
-5.18323e-07
-1.43569e-07
-5.20724e-07
-1.40471e-07
-5.21865e-07
-1.37417e-07
-5.21896e-07
-1.34517e-07
-5.20976e-07
-5.19281e-07
-1.31882e-07
-1.42279e-07
-4.92743e-07
1.4198e-07
-1.41716e-07
-5.02597e-07
-1.40474e-07
-5.10377e-07
-1.38703e-07
-5.16281e-07
-1.36531e-07
-5.20495e-07
-1.34073e-07
-5.23183e-07
-1.31434e-07
-5.24503e-07
-1.28724e-07
-5.24606e-07
-1.26059e-07
-5.23642e-07
-5.21771e-07
-1.23569e-07
-1.28044e-07
-4.91676e-07
1.26977e-07
-1.28297e-07
-5.02344e-07
-1.27877e-07
-5.10797e-07
-1.26901e-07
-5.17257e-07
-1.25473e-07
-5.21923e-07
-1.23687e-07
-5.24968e-07
-1.21641e-07
-5.2655e-07
-1.19437e-07
-5.2681e-07
-1.17199e-07
-5.25879e-07
-5.23889e-07
-1.15081e-07
-1.13849e-07
-4.90023e-07
1.12196e-07
-1.14824e-07
-5.01369e-07
-1.15202e-07
-5.10418e-07
-1.15059e-07
-5.174e-07
-1.14465e-07
-5.22517e-07
-1.13493e-07
-5.2594e-07
-1.12226e-07
-5.27817e-07
-1.10765e-07
-5.28271e-07
-1.09234e-07
-5.2741e-07
-5.25327e-07
-1.07796e-07
-1.00048e-07
-4.87782e-07
9.78071e-08
-1.01751e-07
-4.99667e-07
-1.0294e-07
-5.09229e-07
-1.03642e-07
-5.16699e-07
-1.03883e-07
-5.22276e-07
-1.03696e-07
-5.26127e-07
-1.0312e-07
-5.28393e-07
-1.02201e-07
-5.2919e-07
-1.00999e-07
-5.28612e-07
-5.26738e-07
-9.95884e-08
-8.71856e-08
-4.84919e-07
8.43227e-08
-8.9641e-08
-4.97212e-07
-9.16618e-08
-5.07208e-07
-9.32315e-08
-5.15129e-07
-9.43418e-08
-5.21165e-07
-9.49911e-08
-5.25478e-07
-9.51809e-08
-5.28203e-07
-9.49132e-08
-5.29458e-07
-9.41888e-08
-5.29337e-07
-5.27922e-07
-9.30044e-08
-7.59951e-08
-4.81516e-07
7.25922e-08
-7.91292e-08
-4.94078e-07
-8.19214e-08
-5.04416e-07
-8.43249e-08
-5.12726e-07
-8.63137e-08
-5.19176e-07
-8.78777e-08
-5.23914e-07
-8.90183e-08
-5.27063e-07
-8.97437e-08
-5.28732e-07
-9.00646e-08
-5.29016e-07
-5.27998e-07
-8.99893e-08
-6.69433e-08
-4.77722e-07
6.31493e-08
-7.0579e-08
-4.90442e-07
-7.3949e-08
-5.01046e-07
-7.69869e-08
-5.09688e-07
-7.9658e-08
-5.16505e-07
-8.19519e-08
-5.2162e-07
-8.38731e-08
-5.25142e-07
-8.5434e-08
-5.27171e-07
-8.66469e-08
-5.27803e-07
-5.2713e-07
-8.75149e-08
-6.01611e-08
-4.73608e-07
5.60473e-08
-6.41124e-08
-4.8649e-07
-6.78005e-08
-4.97358e-07
-7.11697e-08
-5.06318e-07
-7.41986e-08
-5.13476e-07
-7.6889e-08
-5.1893e-07
-7.92554e-08
-5.22775e-07
-8.13151e-08
-5.25112e-07
-8.30785e-08
-5.2604e-07
-5.25669e-07
-8.45392e-08
-5.61565e-08
-4.69474e-07
5.20225e-08
-6.00483e-08
-4.82599e-07
-6.36393e-08
-4.93767e-07
-6.69148e-08
-5.03043e-07
-6.98888e-08
-5.10502e-07
-7.25942e-08
-5.16224e-07
-7.50746e-08
-5.20295e-07
-7.73789e-08
-5.22807e-07
-7.95558e-08
-5.23863e-07
-5.23575e-07
-8.16502e-08
-5.54696e-08
-4.66014e-07
5.20099e-08
-5.86332e-08
-4.79435e-07
-6.15012e-08
-4.90899e-07
-6.41036e-08
-5.00441e-07
-6.64872e-08
-5.08119e-07
-6.87094e-08
-5.14002e-07
-7.08344e-08
-5.1817e-07
-7.29327e-08
-5.20709e-07
-7.5083e-08
-5.21713e-07
-5.21285e-07
-7.73728e-08
-5.76819e-08
-4.63994e-07
5.56615e-08
-5.94187e-08
-4.77699e-07
-6.09405e-08
-4.89377e-07
-6.23163e-08
-4.99065e-07
-6.36119e-08
-5.06823e-07
-6.48914e-08
-5.12723e-07
-6.62208e-08
-5.16841e-07
-6.76741e-08
-5.19256e-07
-6.93402e-08
-5.20047e-07
-5.19295e-07
-7.13306e-08
-6.19286e-08
-4.64256e-07
6.2191e-08
-6.15738e-08
-4.78053e-07
-6.12215e-08
-4.89729e-07
-6.09401e-08
-4.99346e-07
-6.07789e-08
-5.06984e-07
-6.07766e-08
-5.12725e-07
-6.09723e-08
-5.16645e-07
-6.14147e-08
-5.18813e-07
-6.21732e-08
-5.19288e-07
-5.18119e-07
-6.3349e-08
-6.69242e-08
-4.67539e-07
7.02066e-08
-6.39911e-08
-4.80987e-07
-6.14407e-08
-4.92279e-07
-5.92746e-08
-5.01512e-07
-5.74749e-08
-5.08784e-07
-5.60145e-08
-5.14185e-07
-5.48663e-08
-5.17793e-07
-5.40126e-08
-5.19667e-07
-5.3451e-08
-5.1985e-07
-5.18364e-07
-5.32057e-08
-7.06059e-08
-4.73878e-07
7.69458e-08
-6.51616e-08
-4.86431e-07
-6.05308e-08
-4.9691e-07
-5.66145e-08
-5.05428e-07
-5.33069e-08
-5.12092e-07
-5.05018e-08
-5.1699e-07
-4.80973e-08
-5.20197e-07
-4.59993e-08
-5.21765e-07
-4.41254e-08
-5.21724e-07
-5.20083e-07
-4.24068e-08
-7.11195e-08
-4.82516e-07
7.97574e-08
-6.38088e-08
-4.93742e-07
-5.76406e-08
-5.03078e-07
-5.24333e-08
-5.10636e-07
-4.80115e-08
-5.16513e-07
-4.42082e-08
-5.20794e-07
-4.08652e-08
-5.23541e-07
-3.78321e-08
-5.24798e-07
-3.49657e-08
-5.2459e-07
-5.2292e-07
-3.21288e-08
-6.78678e-08
-4.92405e-07
7.7756e-08
-5.95395e-08
-5.0207e-07
-5.25298e-08
-5.10088e-07
-4.66119e-08
-5.16554e-07
-4.15736e-08
-5.21552e-07
-3.72158e-08
-5.25151e-07
-3.33507e-08
-5.27406e-07
-2.97989e-08
-5.2835e-07
-2.63874e-08
-5.28002e-07
-5.26362e-07
-2.29446e-08
-6.12275e-08
-5.02631e-07
7.1454e-08
-5.2638e-08
-5.10659e-07
-4.54227e-08
-5.17303e-07
-3.93387e-08
-5.22638e-07
-3.41612e-08
-5.26729e-07
-2.96805e-08
-5.29632e-07
-2.56993e-08
-5.31387e-07
-2.20288e-08
-5.32021e-07
-1.84851e-08
-5.31545e-07
-5.29963e-07
-1.48848e-08
-5.17713e-08
-5.12431e-07
6.15713e-08
-4.35648e-08
-5.18866e-07
-3.66936e-08
-5.24175e-07
-3.09214e-08
-5.2841e-07
-2.60301e-08
-5.31621e-07
-2.18171e-08
-5.33845e-07
-1.80923e-08
-5.35112e-07
-1.46736e-08
-5.35439e-07
-1.1383e-08
-5.34836e-07
-5.33301e-07
-8.04432e-09
-4.02218e-08
-5.21191e-07
4.89818e-08
-3.29123e-08
-5.26176e-07
-2.68237e-08
-5.30263e-07
-2.17454e-08
-5.33488e-07
-1.74826e-08
-5.35883e-07
-1.38544e-08
-5.37473e-07
-1.06904e-08
-5.38276e-07
-7.82788e-09
-5.38302e-07
-5.1083e-09
-5.37555e-07
-5.36035e-07
-2.37486e-09
-2.75303e-08
-5.28538e-07
3.48772e-08
-2.14364e-08
-5.3227e-07
-1.64069e-08
-5.35293e-07
-1.22666e-08
-5.37628e-07
-8.85319e-09
-5.39297e-07
-6.01514e-09
-5.40311e-07
-3.60865e-09
-5.40682e-07
-1.49641e-09
-5.40414e-07
4.55802e-10
-5.39507e-07
-5.3796e-07
2.38115e-09
-1.46723e-08
-5.34338e-07
2.04724e-08
-9.91366e-09
-5.37028e-07
-6.05118e-09
-5.39155e-07
-2.94789e-09
-5.40732e-07
-4.75955e-10
-5.41769e-07
1.48586e-09
-5.42273e-07
3.05273e-09
-5.42249e-07
4.33612e-09
-5.41697e-07
5.44537e-09
-5.40617e-07
-5.39005e-07
6.48978e-09
-2.52717e-09
-5.38663e-07
6.85235e-09
9.4939e-10
-5.40505e-07
3.68554e-09
-5.41891e-07
5.78356e-09
-5.4283e-07
7.34064e-09
-5.43326e-07
8.44915e-09
-5.43382e-07
9.19796e-09
-5.42998e-07
9.67427e-09
-5.42174e-07
9.9644e-09
-5.40907e-07
-5.39196e-07
1.01555e-08
8.20021e-09
-5.41731e-07
-5.1322e-09
1.05767e-08
-5.42882e-07
1.23416e-08
-5.43656e-07
1.35707e-08
-5.44059e-07
1.43358e-08
-5.44091e-07
1.47056e-08
-5.43751e-07
1.47469e-08
-5.43039e-07
1.45257e-08
-5.41952e-07
1.41084e-08
-5.40489e-07
-5.38649e-07
1.35622e-08
1.70253e-08
-5.43833e-07
-1.4924e-08
1.85567e-08
-5.44413e-07
1.95781e-08
-5.44678e-07
2.01457e-08
-5.44627e-07
2.03119e-08
-5.44257e-07
2.01274e-08
-5.43567e-07
1.96413e-08
-5.42553e-07
1.89025e-08
-5.41214e-07
1.79611e-08
-5.39548e-07
-5.37557e-07
1.6869e-08
2.36485e-08
-5.45283e-07
-2.21978e-08
2.46232e-08
-5.45388e-07
2.51678e-08
-5.45222e-07
2.53232e-08
-5.44782e-07
2.51283e-08
-5.44062e-07
2.4619e-08
-5.43058e-07
2.38314e-08
-5.41765e-07
2.28012e-08
-5.40183e-07
2.15659e-08
-5.38313e-07
-5.36157e-07
2.01659e-08
2.78938e-08
-5.46409e-07
-2.67675e-08
2.86146e-08
-5.46109e-07
2.89664e-08
-5.45574e-07
2.89798e-08
-5.44796e-07
2.86836e-08
-5.43766e-07
2.81034e-08
-5.42477e-07
2.72644e-08
-5.40926e-07
2.6192e-08
-5.39111e-07
2.49132e-08
-5.37034e-07
-5.34702e-07
2.3458e-08
2.96965e-08
-5.47523e-07
-2.85832e-08
3.04579e-08
-5.4687e-07
3.08976e-08
-5.46014e-07
3.10415e-08
-5.44939e-07
3.09099e-08
-5.43634e-07
3.05205e-08
-5.42088e-07
2.98892e-08
-5.40295e-07
2.90309e-08
-5.38253e-07
2.79626e-08
-5.35966e-07
-5.33442e-07
2.67027e-08
2.91014e-08
-5.48881e-07
-2.77426e-08
3.01612e-08
-5.4793e-07
3.09472e-08
-5.468e-07
3.14791e-08
-5.45471e-07
3.17698e-08
-5.43925e-07
3.18285e-08
-5.42147e-07
3.16614e-08
-5.40128e-07
3.12736e-08
-5.37865e-07
3.067e-08
-5.35362e-07
-5.32629e-07
2.98569e-08
2.6171e-08
-5.50689e-07
-2.43637e-08
2.77482e-08
-5.49507e-07
2.91123e-08
-5.48164e-07
3.02725e-08
-5.46631e-07
3.12323e-08
-5.44885e-07
3.19906e-08
-5.42905e-07
3.25424e-08
-5.4068e-07
3.28817e-08
-5.38204e-07
3.30013e-08
-5.35481e-07
-5.32522e-07
3.28944e-08
2.0868e-08
-5.53145e-07
-1.84117e-08
2.31798e-08
-5.51819e-07
2.53519e-08
-5.50336e-07
2.73797e-08
-5.48659e-07
2.92547e-08
-5.46759e-07
3.09622e-08
-5.44612e-07
3.24857e-08
-5.42203e-07
3.38062e-08
-5.39525e-07
3.49053e-08
-5.3658e-07
-5.33382e-07
3.57649e-08
1.30575e-08
-5.56496e-07
-9.70638e-09
1.63555e-08
-5.55117e-07
1.95898e-08
-5.5357e-07
2.27419e-08
-5.51812e-07
2.57877e-08
-5.49805e-07
2.86983e-08
-5.47523e-07
3.14428e-08
-5.44947e-07
3.39898e-08
-5.42071e-07
3.63088e-08
-5.38899e-07
-5.35445e-07
3.83719e-08
2.60316e-09
-5.61044e-07
1.94488e-09
7.18326e-09
-5.59697e-07
1.17701e-08
-5.58157e-07
1.63306e-08
-5.56372e-07
2.08228e-08
-5.54298e-07
2.52017e-08
-5.51902e-07
2.94189e-08
-5.49165e-07
3.34281e-08
-5.4608e-07
3.71845e-08
-5.42656e-07
-5.38909e-07
4.06489e-08
-1.05244e-08
-5.67125e-07
1.66044e-08
-4.33141e-09
-5.6589e-07
1.93402e-09
-5.64423e-07
8.22031e-09
-5.62658e-07
1.44653e-08
-5.60543e-07
2.06017e-08
-5.58038e-07
2.65596e-08
-5.55123e-07
3.22714e-08
-5.51792e-07
3.7674e-08
-5.48058e-07
-5.43948e-07
4.27127e-08
-2.61955e-08
-5.75081e-07
3.4152e-08
-1.80342e-08
-5.74052e-07
-9.72909e-09
-5.72728e-07
-1.35633e-09
-5.71031e-07
6.9942e-09
-5.68893e-07
1.52254e-08
-5.66269e-07
2.32368e-08
-5.63134e-07
3.09308e-08
-5.59486e-07
3.82172e-08
-5.55345e-07
-5.50749e-07
4.50183e-08
-4.41348e-08
-5.85268e-07
5.43221e-08
-3.36198e-08
-5.84567e-07
-2.28662e-08
-5.83482e-07
-1.19848e-08
-5.81913e-07
-1.10238e-09
-5.79776e-07
9.64217e-09
-5.77014e-07
2.01063e-08
-5.73598e-07
3.01496e-08
-5.69529e-07
3.9642e-08
-5.64837e-07
-5.59577e-07
4.84704e-08
-6.39298e-08
-5.98055e-07
7.6717e-08
-5.06381e-08
-5.97859e-07
-3.69683e-08
-5.97152e-07
-2.30744e-08
-5.95807e-07
-9.13271e-09
-5.93717e-07
4.66368e-09
-5.90811e-07
1.81155e-08
-5.8705e-07
3.10253e-08
-5.82439e-07
4.32084e-08
-5.7702e-07
-5.70871e-07
5.45019e-08
-8.50341e-08
-6.13828e-07
1.00807e-07
-6.85045e-08
-6.14388e-07
-5.13891e-08
-6.14267e-07
-3.38933e-08
-6.13302e-07
-1.62533e-08
-6.11357e-07
1.27232e-09
-6.08336e-07
1.84145e-08
-6.04193e-07
3.49054e-08
-5.9893e-07
5.04926e-08
-5.92608e-07
-5.85331e-07
6.49532e-08
-1.06755e-07
-6.32978e-07
1.25905e-07
-8.65083e-08
-6.34635e-07
-6.53814e-08
-6.35394e-07
-4.36371e-08
-6.35047e-07
-2.15778e-08
-6.33417e-07
4.63653e-10
-6.30378e-07
2.21377e-08
-6.25867e-07
4.3094e-08
-6.19886e-07
6.30016e-08
-6.12515e-07
-6.03899e-07
8.15694e-08
-1.28186e-07
-6.55864e-07
1.51072e-07
-1.03776e-07
-6.59046e-07
-7.81013e-08
-6.61069e-07
-5.14826e-08
-6.61666e-07
-2.42913e-08
-6.60608e-07
3.06109e-09
-6.57731e-07
3.01364e-08
-6.52942e-07
5.64909e-08
-6.46241e-07
8.1701e-08
-6.37725e-07
-6.27589e-07
1.05391e-07
-1.48125e-07
-6.82746e-07
1.75007e-07
-1.19216e-07
-6.87955e-07
-8.85906e-08
-6.91694e-07
-5.66203e-08
-6.93636e-07
-2.374e-08
-6.93488e-07
9.56176e-09
-6.91032e-07
4.27568e-08
-6.86137e-07
7.53012e-08
-6.78785e-07
1.06663e-07
-6.69088e-07
-6.57286e-07
1.3636e-07
-1.65078e-07
-7.13753e-07
1.96086e-07
-1.31528e-07
-7.21505e-07
-9.57957e-08
-7.27426e-07
-5.82944e-08
-7.31137e-07
-1.95081e-08
-7.32275e-07
2.00116e-08
-7.30552e-07
5.96596e-08
-7.25785e-07
9.87969e-08
-7.17923e-07
1.3678e-07
-7.0707e-07
-6.93509e-07
1.73002e-07
-1.77479e-07
-7.4888e-07
2.12606e-07
-1.39367e-07
-7.59618e-07
-9.86947e-08
-7.68099e-07
-5.59096e-08
-7.73923e-07
-1.15147e-08
-7.76669e-07
3.39106e-08
-7.75977e-07
7.97214e-08
-7.71596e-07
1.25217e-07
-7.63418e-07
1.69666e-07
-7.5152e-07
-7.36195e-07
2.12352e-07
-1.83769e-07
-7.88014e-07
2.22903e-07
-1.41476e-07
-8.01911e-07
-9.64717e-08
-8.13103e-07
-4.92031e-08
-8.21191e-07
-1.54587e-10
-8.25718e-07
5.01224e-08
-8.26254e-07
1.01005e-07
-8.22479e-07
1.51802e-07
-8.14214e-07
2.01759e-07
-8.01478e-07
-7.84513e-07
2.50078e-07
-1.83213e-07
-8.307e-07
2.25899e-07
-1.37478e-07
-8.47647e-07
-8.91632e-08
-8.61417e-07
-3.87263e-08
-8.71628e-07
1.34005e-08
-8.77845e-07
6.67609e-08
-8.79615e-07
1.20839e-07
-8.76558e-07
1.75047e-07
-8.68422e-07
2.28699e-07
-8.5513e-07
-8.3678e-07
2.80966e-07
-1.76047e-07
-8.76598e-07
2.21945e-07
-1.27758e-07
-8.95936e-07
-7.75688e-08
-9.11607e-07
-2.57802e-08
-9.23417e-07
2.7339e-08
-9.30965e-07
8.14967e-08
-9.33773e-07
1.36357e-07
-9.31418e-07
1.91524e-07
-9.23589e-07
2.46487e-07
-9.10093e-07
-8.9082e-07
3.00528e-07
-1.62137e-07
-9.24918e-07
2.10457e-07
-1.13273e-07
-9.44801e-07
-6.33544e-08
-9.61525e-07
-1.23931e-08
-9.74378e-07
3.94632e-08
-9.82821e-07
9.20526e-08
-9.86362e-07
1.4521e-07
-9.84576e-07
1.98733e-07
-9.77112e-07
2.5231e-07
-9.6367e-07
-9.43994e-07
3.05484e-07
-1.45987e-07
-9.72679e-07
1.93748e-07
-9.81795e-08
-9.92608e-07
-4.99377e-08
-1.00977e-06
-1.25816e-09
-1.02306e-06
4.77666e-08
-1.03185e-06
9.70927e-08
-1.03569e-06
1.46731e-07
-1.03421e-06
1.967e-07
-1.02708e-06
2.4694e-07
-1.01391e-06
-9.94305e-07
2.97252e-07
-1.27288e-07
-1.01673e-06
1.71338e-07
-8.23475e-08
-1.03755e-06
-3.72498e-08
-1.05487e-06
7.74636e-09
-1.06805e-06
5.25523e-08
-1.07665e-06
9.71889e-08
-1.08033e-06
1.41781e-07
-1.07881e-06
1.86549e-07
-1.07185e-06
2.31781e-07
-1.05914e-06
-1.04022e-06
2.77698e-07
-1.04824e-07
-1.05651e-06
1.44609e-07
-6.41716e-08
-1.0782e-06
-2.3865e-08
-1.09517e-06
1.60459e-08
-1.10796e-06
5.55018e-08
-1.11611e-06
9.44819e-08
-1.11931e-06
1.33053e-07
-1.11738e-06
1.71428e-07
-1.11022e-06
2.10115e-07
-1.09783e-06
-1.08033e-06
2.50225e-07
-8.1276e-08
-1.09151e-06
1.1627e-07
-4.5933e-08
-1.11354e-06
-1.11212e-08
-1.12998e-06
2.32637e-08
-1.14235e-06
5.72107e-08
-1.15005e-06
9.06174e-08
-1.15271e-06
1.23399e-07
-1.15016e-06
1.55608e-07
-1.14243e-06
1.87642e-07
-1.12986e-06
-1.11316e-06
2.20474e-07
-5.90442e-08
-1.12082e-06
8.83568e-08
-2.96756e-08
-1.14291e-06
-6.42848e-10
-1.15902e-06
2.83046e-08
-1.1713e-06
5.70742e-08
-1.17882e-06
8.54123e-08
-1.18105e-06
1.1299e-07
-1.17774e-06
1.39533e-07
-1.16898e-06
1.6503e-07
-1.15536e-06
-1.13804e-06
1.89905e-07
-3.99176e-08
-1.14355e-06
6.26445e-08
-1.68387e-08
-1.16599e-06
6.54891e-09
-1.1824e-06
3.04486e-08
-1.1952e-06
5.46529e-08
-1.20303e-06
7.86843e-08
-1.20508e-06
1.01917e-07
-1.20097e-06
1.23672e-07
-1.19073e-06
1.43386e-07
-1.17507e-06
-1.15522e-06
1.60561e-07
-2.46796e-08
-1.15826e-06
3.93958e-08
-8.05983e-09
-1.18261e-06
1.0073e-08
-1.20054e-06
2.96302e-08
-1.21475e-06
5.01175e-08
-1.22352e-06
7.08251e-08
-1.22579e-06
9.08976e-08
-1.22104e-06
1.09339e-07
-1.20918e-06
1.25066e-07
-1.1908e-06
-1.16644e-06
1.36294e-07
-1.44352e-08
-1.16459e-06
2.07606e-08
-3.67972e-09
-1.19337e-06
1.01198e-08
-1.21434e-06
2.63167e-08
-1.23095e-06
4.40241e-08
-1.24122e-06
6.23222e-08
-1.24409e-06
8.02847e-08
-1.239e-06
9.68731e-08
-1.22576e-06
1.10715e-07
-1.20464e-06
-1.17448e-06
1.18756e-07
-1.02559e-08
-1.16437e-06
1.00389e-08
-3.56396e-09
-1.20006e-06
7.5656e-09
-1.22547e-06
2.17684e-08
-1.24515e-06
3.77163e-08
-1.25717e-06
5.43575e-08
-1.26073e-06
7.08686e-08
-1.25552e-06
8.64476e-08
-1.24134e-06
1.00042e-07
-1.21823e-06
-1.18288e-06
1.08441e-07
-1.04782e-08
-1.16001e-06
6.11222e-09
-5.48514e-09
-1.20505e-06
4.8188e-09
-1.23577e-06
1.81802e-08
-1.25852e-06
3.29793e-08
-1.27197e-06
4.83115e-08
-1.27606e-06
6.37456e-08
-1.27095e-06
7.90673e-08
-1.25666e-06
9.43988e-08
-1.23357e-06
-1.1983e-06
1.09814e-07
-1.05161e-08
-1.1509e-06
1.40737e-09
-5.21768e-09
-1.21035e-06
5.20304e-09
-1.24619e-06
1.74972e-08
-1.27081e-06
3.01593e-08
-1.28463e-06
4.27097e-08
-1.28861e-06
5.51546e-08
-1.28339e-06
6.76022e-08
-1.26911e-06
8.0222e-08
-1.24619e-06
-1.21102e-06
9.29377e-08
-6.9516e-09
-1.15382e-06
9.87763e-09
1.90042e-09
-1.2192e-06
1.20717e-08
-1.25636e-06
2.1834e-08
-1.28057e-06
3.07006e-08
-1.2935e-06
3.88271e-08
-1.29674e-06
4.64973e-08
-1.29106e-06
5.35513e-08
-1.27617e-06
5.87277e-08
-1.25136e-06
-1.21008e-06
5.77951e-08
1.14948e-08
-1.15601e-06
-9.31125e-09
1.79982e-08
-1.2257e-06
2.45036e-08
-1.26287e-06
2.99959e-08
-1.28606e-06
3.47106e-08
-1.29821e-06
3.93233e-08
-1.30135e-06
4.46057e-08
-1.29635e-06
5.09339e-08
-1.28249e-06
5.73879e-08
-1.25782e-06
-1.2123e-06
5.96086e-08
1.21217e-08
-1.17156e-06
3.42953e-09
2.2323e-08
-1.23591e-06
2.88245e-08
-1.26937e-06
3.27057e-08
-1.28995e-06
3.54844e-08
-1.30099e-06
3.85929e-08
-1.30446e-06
4.35071e-08
-1.30126e-06
5.18689e-08
-1.29086e-06
6.50831e-08
-1.27103e-06
-1.23107e-06
8.38494e-08
5.64426e-09
-1.19281e-06
1.56123e-08
1.86217e-08
-1.24888e-06
2.54578e-08
-1.27621e-06
2.86557e-08
-1.29314e-06
3.05188e-08
-1.30286e-06
3.2595e-08
-1.30653e-06
3.63846e-08
-1.30505e-06
4.42192e-08
-1.29869e-06
5.98899e-08
-1.2867e-06
-1.26356e-06
9.23783e-08
-1.30786e-08
-1.23676e-06
5.70271e-08
6.11328e-09
-1.26808e-06
1.50445e-08
-1.28514e-06
1.89101e-08
-1.29701e-06
2.07174e-08
-1.30466e-06
2.17376e-08
-1.30756e-06
2.30296e-08
-1.30634e-06
2.66225e-08
-1.30228e-06
3.56687e-08
-1.29575e-06
-1.28452e-06
5.66354e-08
-4.3347e-09
-1.26645e-06
3.40193e-08
7.42123e-09
-1.27983e-06
1.16881e-08
-1.2894e-06
1.26391e-08
-1.29796e-06
1.23122e-08
-1.30434e-06
1.09179e-08
-1.30616e-06
8.60449e-09
-1.30403e-06
6.57887e-09
-1.30026e-06
6.64265e-09
-1.29581e-06
-1.2896e-06
1.17144e-08
1.41996e-08
-1.27375e-06
-6.89293e-09
1.49565e-08
-1.28059e-06
1.28414e-08
-1.28729e-06
9.92275e-09
-1.29504e-06
6.56638e-09
-1.30098e-06
2.25403e-09
-1.30185e-06
-3.48917e-09
-1.29829e-06
-1.03913e-08
-1.29336e-06
-1.72503e-08
-1.28895e-06
-1.28431e-06
-2.25365e-08
3.17242e-08
-1.26689e-06
-3.85853e-08
2.33854e-08
-1.27225e-06
1.59368e-08
-1.27984e-06
9.99369e-09
-1.2891e-06
3.46849e-09
-1.29445e-06
-3.60472e-09
-1.29478e-06
-1.14939e-08
-1.2904e-06
-2.16487e-08
-1.2832e-06
-3.33842e-08
-1.27722e-06
-1.27288e-06
-4.482e-08
4.16165e-08
-1.25215e-06
-5.63629e-08
2.78515e-08
-1.25848e-06
1.81875e-08
-1.27018e-06
1.12111e-08
-1.28212e-06
1.89142e-09
-1.28513e-06
-7.52005e-09
-1.28536e-06
-1.56966e-08
-1.28222e-06
-2.6877e-08
-1.27202e-06
-4.17926e-08
-1.2623e-06
-1.25694e-06
-5.77262e-08
4.40229e-08
-1.23149e-06
-6.46777e-08
2.76511e-08
-1.24211e-06
1.93366e-08
-1.26186e-06
1.25295e-08
-1.27532e-06
1.09449e-09
-1.2737e-06
-1.02232e-08
-1.27405e-06
-1.75105e-08
-1.27493e-06
-2.69913e-08
-1.26254e-06
-4.37963e-08
-1.2455e-06
-1.23637e-06
-6.43728e-08
3.9495e-08
-1.20384e-06
-6.71441e-08
2.37607e-08
-1.22638e-06
2.01533e-08
-1.25825e-06
1.29346e-08
-1.2681e-06
6.85988e-10
-1.26145e-06
-1.15884e-08
-1.26177e-06
-1.86272e-08
-1.2679e-06
-2.31248e-08
-1.25804e-06
-3.94518e-08
-1.22917e-06
-1.20895e-06
-6.68699e-08
2.603e-08
-1.1646e-06