/*--------------------------------*- C++ -*----------------------------------*\
  =========                 |
  \\      /  F ield         | OpenFOAM: The Open Source CFD Toolbox
   \\    /   O peration     | Website:  https://openfoam.org
    \\  /    A nd           | Version:  8
     \\/     M anipulation  |
\*---------------------------------------------------------------------------*/
FoamFile
{
    version     2.0;
    format      ascii;
    class       volVectorField;
    location    "1.6";
    object      U;
}
// * * * * * * * * * * * * * * * * * * * * * * * * * * * * * * * * * * * * * //

dimensions      [0 1 -1 0 0 0 0];

internalField   nonuniform List<vector> 
9150
(
(0.0539229 -0.428127 0)
(0.08806 -0.622211 0)
(0.0731182 -0.631501 0)
(0.0486441 -0.643732 0)
(0.0170508 -0.654482 0)
(-0.0170495 -0.654482 0)
(-0.0486432 -0.643732 0)
(-0.0731173 -0.6315 0)
(-0.0880593 -0.622211 0)
(-0.0539227 -0.428128 0)
(0.0410016 -0.522769 0)
(0.0576026 -0.625797 0)
(0.0420724 -0.613272 0)
(0.0294242 -0.622456 0)
(0.0104975 -0.628884 0)
(-0.0104968 -0.628884 0)
(-0.0294236 -0.622456 0)
(-0.0420717 -0.613272 0)
(-0.0576017 -0.625796 0)
(-0.0410011 -0.52277 0)
(0.0254929 -0.557909 0)
(0.0326497 -0.613872 0)
(0.0229537 -0.604499 0)
(0.0173009 -0.609992 0)
(0.00624692 -0.613199 0)
(-0.0062467 -0.613199 0)
(-0.0173008 -0.609992 0)
(-0.0229535 -0.604499 0)
(-0.0326491 -0.613872 0)
(-0.0254925 -0.557909 0)
(0.0155736 -0.584743 0)
(0.0175805 -0.60748 0)
(0.0116548 -0.601142 0)
(0.0089097 -0.603287 0)
(0.00324531 -0.604398 0)
(-0.00324561 -0.604398 0)
(-0.00890999 -0.603287 0)
(-0.0116551 -0.601142 0)
(-0.0175806 -0.607479 0)
(-0.0155735 -0.584743 0)
(0.00636275 -0.597182 0)
(0.00559961 -0.601384 0)
(0.00353876 -0.600039 0)
(0.00269519 -0.600351 0)
(0.000996797 -0.600483 0)
(-0.00099694 -0.600483 0)
(-0.00269529 -0.600351 0)
(-0.00353887 -0.600039 0)
(-0.00559969 -0.601384 0)
(-0.00636275 -0.597182 0)
(0.470124 -1.16348 1.39745e-24)
(0.282926 -1.08588 0)
(0.163382 -1.06952 0)
(0.0923506 -1.05798 0)
(0.0304041 -1.05338 0)
(-0.0303797 -1.05339 0)
(-0.0923287 -1.05799 0)
(-0.163363 -1.06953 0)
(-0.28291 -1.08589 0)
(-0.470128 -1.16351 -1.39773e-24)
(0.33384 -0.843998 3.77707e-25)
(0.287092 -0.93673 0)
(0.188201 -0.936838 0)
(0.108223 -0.936893 0)
(0.0357482 -0.939402 0)
(-0.0357329 -0.939405 0)
(-0.108209 -0.936898 0)
(-0.188189 -0.936845 0)
(-0.287086 -0.93674 0)
(-0.333842 -0.844014 -3.77737e-25)
(0.279222 -0.702625 6.40864e-26)
(0.259138 -0.804722 0)
(0.178069 -0.817604 0)
(0.104632 -0.828463 0)
(0.0348671 -0.836675 0)
(-0.0348579 -0.836677 0)
(-0.104624 -0.828466 0)
(-0.178062 -0.817607 0)
(-0.259135 -0.804726 0)
(-0.279221 -0.702629 -6.40948e-26)
(0.200447 -0.554418 2.27344e-25)
(0.216998 -0.70945 0)
(0.154279 -0.725918 0)
(0.0913915 -0.742077 0)
(0.0305717 -0.754062 0)
(-0.0305671 -0.754062 0)
(-0.0913878 -0.742079 0)
(-0.154277 -0.72592 0)
(-0.216997 -0.70945 0)
(-0.200447 -0.55442 -2.27356e-25)
(0.119341 -0.444655 -3.82357e-25)
(0.156933 -0.64416 -5.50294e-25)
(0.116748 -0.663785 -1.84972e-25)
(0.0709493 -0.681213 -1.21643e-25)
(0.0239882 -0.694271 -7.02262e-27)
(-0.0239861 -0.694272 -7.03233e-27)
(-0.070948 -0.681214 -1.21665e-25)
(-0.116747 -0.663785 -1.84981e-25)
(-0.156934 -0.644159 -5.50303e-25)
(-0.119341 -0.444657 -3.82362e-25)
(0.0165478 -0.925219 0)
(-0.0374588 -1.33837 0)
(0.0242288 -1.26841 0)
(-0.00514567 -1.22497 0)
(0.00528181 -1.22335 0)
(-0.00512477 -1.22341 0)
(0.00547013 -1.22498 0)
(-0.0238944 -1.26828 0)
(0.0375376 -1.33853 0)
(-0.0163434 -0.925845 0)
(0.0467131 -0.908808 0)
(-0.0222922 -1.33342 0)
(0.0241569 -1.26958 0)
(-0.000979635 -1.22336 0)
(0.00195786 -1.22247 0)
(-0.00187178 -1.22252 0)
(0.00116696 -1.22333 0)
(-0.0240658 -1.2696 0)
(0.0224082 -1.33356 0)
(-0.0467317 -0.909384 0)
(0.0748683 -0.94472 0)
(-0.0232169 -1.34794 0)
(0.0186541 -1.27538 0)
(0.00422384 -1.23039 0)
(-9.14033e-05 -1.22625 0)
(0.000171333 -1.22627 0)
(-0.00410699 -1.23037 0)
(-0.0186011 -1.27539 0)
(0.0233871 -1.34794 0)
(-0.0747908 -0.945114 0)
(0.141048 -1.07771 0)
(0.00042202 -1.36585 0)
(0.0169369 -1.27196 0)
(0.0211122 -1.22576 0)
(0.00543126 -1.21448 0)
(-0.00536915 -1.21449 0)
(-0.0210481 -1.22577 0)
(-0.0169107 -1.27198 0)
(-0.000297359 -1.36585 0)
(-0.141003 -1.07792 0)
(0.295849 -1.22017 0)
(0.123587 -1.32186 0)
(0.0692755 -1.21086 0)
(0.0564235 -1.16938 0)
(0.0198723 -1.15686 0)
(-0.0198322 -1.15686 0)
(-0.0563925 -1.1694 0)
(-0.0692424 -1.21088 0)
(-0.123526 -1.32187 0)
(-0.295843 -1.22025 0)
(-0.0448752 -0.0524518 0)
(-0.0101199 -0.0522224 0)
(0.0244251 -0.0517711 0)
(0.058696 -0.0510784 0)
(0.0926033 -0.0502022 0)
(0.12602 -0.0491723 0)
(0.158813 -0.0479869 0)
(0.190841 -0.0466304 0)
(0.221952 -0.04509 0)
(0.251968 -0.043376 0)
(-0.0370477 -0.102879 0)
(-0.008255 -0.102599 0)
(0.0204992 -0.101949 0)
(0.0490697 -0.100942 0)
(0.0773234 -0.0995712 0)
(0.105146 -0.0978204 0)
(0.132414 -0.0956598 0)
(0.158987 -0.093049 0)
(0.184714 -0.0899401 0)
(0.209437 -0.08628 0)
(-0.0307315 -0.152796 0)
(-0.00647291 -0.152652 0)
(0.0178024 -0.151913 0)
(0.0419818 -0.150593 0)
(0.0659438 -0.148683 0)
(0.0895705 -0.146153 0)
(0.112741 -0.142962 0)
(0.135328 -0.139051 0)
(0.1572 -0.134353 0)
(0.178219 -0.128792 0)
(-0.0258559 -0.197508 0)
(-0.00513791 -0.197564 0)
(0.0156141 -0.196793 0)
(0.0363001 -0.19521 0)
(0.0568182 -0.192809 0)
(0.077067 -0.189563 0)
(0.0969429 -0.185423 0)
(0.11634 -0.180326 0)
(0.135149 -0.174191 0)
(0.153252 -0.166927 0)
(-0.022217 -0.235781 0)
(-0.00437097 -0.235973 0)
(0.0134757 -0.23516 0)
(0.0312499 -0.233358 0)
(0.0488741 -0.230557 0)
(0.0662694 -0.226726 0)
(0.0833537 -0.221814 0)
(0.100042 -0.21575 0)
(0.116247 -0.208446 0)
(0.131881 -0.199793 0)
(-0.0193373 -0.268838 0)
(-0.00395241 -0.269048 0)
(0.0114008 -0.268136 0)
(0.0266724 -0.266108 0)
(0.0418062 -0.262947 0)
(0.0567427 -0.258616 0)
(0.0714177 -0.253057 0)
(0.085763 -0.246195 0)
(0.0997115 -0.237932 0)
(0.113199 -0.228153 0)
(-0.0168676 -0.297294 0)
(-0.0036757 -0.297469 0)
(0.00948347 -0.29644 0)
(0.0225735 -0.294202 0)
(0.035552 -0.290732 0)
(0.0483732 -0.285984 0)
(0.0609865 -0.279893 0)
(0.0733366 -0.272376 0)
(0.0853684 -0.26333 0)
(0.0970233 -0.252643 0)
(-0.0148764 -0.321603 0)
(-0.00360111 -0.321763 0)
(0.00765914 -0.320654 0)
(0.0188783 -0.318266 0)
(0.0300248 -0.314568 0)
(0.0410649 -0.309508 0)
(0.0519606 -0.303011 0)
(0.0626683 -0.294981 0)
(0.0731391 -0.285304 0)
(0.0833154 -0.273845 0)
(-0.01362 -0.342371 0)
(-0.00393451 -0.342548 0)
(0.00575244 -0.341411 0)
(0.0154273 -0.338946 0)
(0.0250718 -0.335118 0)
(0.0346658 -0.329867 0)
(0.0441867 -0.32311 0)
(0.0536077 -0.314738 0)
(0.0628966 -0.304614 0)
(0.0720082 -0.29257 0)
(-0.013303 -0.360313 0)
(-0.00486136 -0.360515 0)
(0.003588 -0.359388 0)
(0.012048 -0.356916 0)
(0.0205166 -0.353057 0)
(0.0289918 -0.347749 0)
(0.0374706 -0.340905 0)
(0.0459505 -0.332412 0)
(0.0544259 -0.322122 0)
(0.062882 -0.309857 0)
(-0.0139694 -0.376128 0)
(-0.00646217 -0.376336 0)
(0.0010516 -0.375238 0)
(0.00859209 -0.372811 0)
(0.0161746 -0.369013 0)
(0.0238154 -0.36378 0)
(0.0315318 -0.357029 0)
(0.0393432 -0.348649 0)
(0.0472677 -0.338504 0)
(0.055328 -0.326424 0)
(-0.0155086 -0.390368 0)
(-0.00870601 -0.390558 0)
(-0.0018938 -0.389502 0)
(0.00496296 -0.387167 0)
(0.0118942 -0.383508 0)
(0.0189314 -0.378465 0)
(0.0261073 -0.371959 0)
(0.0334543 -0.363897 0)
(0.0410082 -0.354165 0)
(0.0488685 -0.342616 0)
(-0.0177855 -0.40339 0)
(-0.0115389 -0.403567 0)
(-0.00526545 -0.402582 0)
(0.00108078 -0.400394 0)
(0.00754103 -0.396957 0)
(0.0141583 -0.392213 0)
(0.0209751 -0.386094 0)
(0.0280301 -0.378529 0)
(0.0353866 -0.369439 0)
(0.043264 -0.358718 0)
(-0.0207242 -0.415392 0)
(-0.0149552 -0.4156 0)
(-0.0091272 -0.414746 0)
(-0.00318693 -0.412786 0)
(0.00291387 -0.409669 0)
(0.0092252 -0.405344 0)
(0.0157938 -0.399754 0)
(0.0226639 -0.392848 0)
(0.0299359 -0.384571 0)
(0.0379154 -0.374849 0)
(-0.0243273 -0.426444 0)
(-0.0190155 -0.426759 0)
(-0.013604 -0.426119 0)
(-0.00803825 -0.424476 0)
(-0.00226908 -0.421778 0)
(0.00375258 -0.417978 0)
(0.0100693 -0.413027 0)
(0.0167288 -0.406885 0)
(0.0238666 -0.399504 0)
(0.0317962 -0.390816 0)
(-0.0286363 -0.436536 0)
(-0.0237973 -0.437044 0)
(-0.0188172 -0.436701 0)
(-0.013645 -0.435452 0)
(-0.00823647 -0.433246 0)
(-0.00255028 -0.430033 0)
(0.00344581 -0.425766 0)
(0.00979951 -0.420405 0)
(0.016667 -0.413899 0)
(0.0242964 -0.40619 0)
(-0.0336669 -0.445607 0)
(-0.0293374 -0.446394 0)
(-0.0248253 -0.446424 0)
(-0.0200867 -0.445634 0)
(-0.0150857 -0.443968 0)
(-0.00979155 -0.441371 0)
(-0.00418143 -0.43779 0)
(0.00179341 -0.433174 0)
(0.00829391 -0.427458 0)
(0.0154477 -0.420576 0)
(-0.0394048 -0.453562 0)
(-0.0356249 -0.454722 0)
(-0.0316192 -0.455199 0)
(-0.0273543 -0.454925 0)
(-0.0228058 -0.453837 0)
(-0.0179544 -0.451872 0)
(-0.0127851 -0.448971 0)
(-0.00724533 -0.445071 0)
(-0.00117456 -0.440095 0)
(0.00535903 -0.433967 0)
(-0.0458166 -0.460329 0)
(-0.0426011 -0.461962 0)
(-0.0391149 -0.462963 0)
(-0.0353387 -0.463257 0)
(-0.031262 -0.462773 0)
(-0.0268772 -0.461447 0)
(-0.0221771 -0.459214 0)
(-0.017109 -0.456006 0)
(-0.0115212 -0.451746 0)
(-0.0055978 -0.446357 0)
(-0.0528198 -0.46591 0)
(-0.0501373 -0.468124 0)
(-0.0471406 -0.469723 0)
(-0.0438276 -0.470629 0)
(-0.0402026 -0.470769 0)
(-0.0362701 -0.470078 0)
(-0.0320308 -0.468492 0)
(-0.0274353 -0.465945 0)
(-0.0223376 -0.46236 0)
(-0.0169587 -0.457653 0)
(-0.0602558 -0.470422 0)
(-0.0580165 -0.473321 0)
(-0.0554279 -0.475584 0)
(-0.0525071 -0.477132 0)
(-0.0492727 -0.477899 0)
(-0.0457406 -0.477826 0)
(-0.0419188 -0.47686 0)
(-0.037763 -0.474946 0)
(-0.03313 -0.472027 0)
(-0.0282092 -0.468043 0)
(-0.0678327 -0.474124 0)
(-0.0658959 -0.477785 0)
(-0.0635939 -0.480748 0)
(-0.0609612 -0.482942 0)
(-0.0580286 -0.484314 0)
(-0.0548202 -0.484824 0)
(-0.0513489 -0.484436 0)
(-0.0475804 -0.483116 0)
(-0.0433825 -0.480835 0)
(-0.0388348 -0.47757 0)
(-0.0750496 -0.47736 0)
(-0.0732702 -0.481809 0)
(-0.0711341 -0.485461 0)
(-0.0686891 -0.488265 0)
(-0.0659764 -0.490189 0)
(-0.0630258 -0.491217 0)
(-0.059854 -0.491339 0)
(-0.0564382 -0.490548 0)
(-0.0526615 -0.488842 0)
(-0.0484933 -0.486221 0)
(-0.0812126 -0.480397 0)
(-0.0794992 -0.485618 0)
(-0.0774514 -0.489912 0)
(-0.0751301 -0.493255 0)
(-0.0725857 -0.495644 0)
(-0.0698544 -0.497093 0)
(-0.0669582 -0.497624 0)
(-0.0638878 -0.497262 0)
(-0.0605456 -0.496042 0)
(-0.056815 -0.493999 0)
(-0.0856636 -0.483384 0)
(-0.0839719 -0.489336 0)
(-0.0819778 -0.494203 0)
(-0.0797509 -0.497995 0)
(-0.077349 -0.500742 0)
(-0.0748138 -0.502492 0)
(-0.0721734 -0.503299 0)
(-0.0694323 -0.503228 0)
(-0.0665207 -0.502353 0)
(-0.0632913 -0.500763 0)
(-0.0878212 -0.486367 0)
(-0.0861713 -0.492993 0)
(-0.0842514 -0.498359 0)
(-0.0821334 -0.502514 0)
(-0.0798778 -0.505524 0)
(-0.0775289 -0.507467 0)
(-0.0751181 -0.508434 0)
(-0.07266 -0.508523 0)
(-0.0701156 -0.507851 0)
(-0.0673754 -0.506568 0)
(-0.087273 -0.489242 0)
(-0.0857764 -0.496479 0)
(-0.0840284 -0.502284 0)
(-0.082099 -0.506742 0)
(-0.0800496 -0.509952 0)
(-0.0779273 -0.512021 0)
(-0.0757689 -0.513065 0)
(-0.0735996 -0.51321 0)
(-0.0714157 -0.512597 0)
(-0.0691745 -0.511392 0)
(-0.0838708 -0.49162 0)
(-0.0827409 -0.499465 0)
(-0.0813354 -0.505706 0)
(-0.0797281 -0.510462 0)
(-0.0779865 -0.513857 0)
(-0.0761664 -0.516021 0)
(-0.0743164 -0.517087 0)
(-0.0724787 -0.517201 0)
(-0.0706848 -0.516517 0)
(-0.0689447 -0.515208 0)
(-0.0781397 -0.492958 0)
(-0.0775415 -0.501526 0)
(-0.0766069 -0.5083 0)
(-0.0754168 -0.513431 0)
(-0.074046 -0.517069 0)
(-0.0725584 -0.519357 0)
(-0.071012 -0.520444 0)
(-0.0694621 -0.520479 0)
(-0.0679609 -0.519624 0)
(-0.0665574 -0.51806 0)
(-0.0711879 -0.493114 0)
(-0.0710927 -0.502535 0)
(-0.0706221 -0.509965 0)
(-0.0698518 -0.51559 0)
(-0.0688511 -0.519582 0)
(-0.0676799 -0.522102 0)
(-0.0663926 -0.523305 0)
(-0.0650416 -0.523345 0)
(-0.0636782 -0.522379 0)
(-0.0623623 -0.520585 0)
(-0.0638701 -0.492366 0)
(-0.0641761 -0.502653 0)
(-0.0641191 -0.510784 0)
(-0.0637568 -0.51697 0)
(-0.0631434 -0.521406 0)
(-0.0623284 -0.524265 0)
(-0.0613583 -0.525705 0)
(-0.0602814 -0.525875 0)
(-0.0591487 -0.524918 0)
(-0.0580279 -0.522975 0)
(-0.0566061 -0.490985 0)
(-0.0572472 -0.502029 0)
(-0.0575755 -0.510804 0)
(-0.0576258 -0.517536 0)
(-0.0574329 -0.522428 0)
(-0.057032 -0.525655 0)
(-0.0564615 -0.52737 0)
(-0.0557658 -0.527704 0)
(-0.0549977 -0.526776 0)
(-0.054232 -0.524694 0)
(-0.0495366 -0.489048 0)
(-0.0505155 -0.5007 0)
(-0.0512346 -0.510026 0)
(-0.0517042 -0.51726 0)
(-0.0519365 -0.522604 0)
(-0.0519455 -0.526228 0)
(-0.0517494 -0.528273 0)
(-0.0513693 -0.528858 0)
(-0.050831 -0.52808 0)
(-0.050165 -0.526022 0)
(-0.0429287 -0.486495 0)
(-0.0442597 -0.498619 0)
(-0.0453805 -0.508421 0)
(-0.0462795 -0.516129 0)
(-0.0469501 -0.521941 0)
(-0.0473897 -0.526024 0)
(-0.0475987 -0.528515 0)
(-0.0475794 -0.529531 0)
(-0.0473323 -0.529166 0)
(-0.0468529 -0.527494 0)
(-0.0371777 -0.483331 0)
(-0.0388208 -0.495793 0)
(-0.0403085 -0.505983 0)
(-0.0416117 -0.514116 0)
(-0.042712 -0.520373 0)
(-0.0436007 -0.524911 0)
(-0.0442761 -0.527862 0)
(-0.0447418 -0.529341 0)
(-0.0450037 -0.529442 0)
(-0.0450673 -0.528247 0)
(-0.032538 -0.479711 0)
(-0.0344101 -0.492365 0)
(-0.0361704 -0.502846 0)
(-0.0377783 -0.51133 0)
(-0.0392078 -0.517974 0)
(-0.0404494 -0.52291 0)
(-0.041502 -0.526256 0)
(-0.0423708 -0.528117 0)
(-0.0430649 -0.528586 0)
(-0.0435899 -0.527749 0)
(-0.029068 -0.475721 0)
(-0.0310984 -0.488509 0)
(-0.0330158 -0.499237 0)
(-0.0347842 -0.508037 0)
(-0.0363843 -0.515031 0)
(-0.037813 -0.520327 0)
(-0.0390748 -0.524028 0)
(-0.0401792 -0.526233 0)
(-0.0411355 -0.52704 0)
(-0.041947 -0.52655 0)
(-0.0270734 -0.471464 0)
(-0.0290891 -0.484449 0)
(-0.030961 -0.49546 0)
(-0.0326769 -0.504583 0)
(-0.0342364 -0.511906 0)
(-0.0356514 -0.517516 0)
(-0.0369421 -0.521503 0)
(-0.0381317 -0.523964 0)
(-0.0392476 -0.525004 0)
(-0.0403132 -0.524735 0)
(-0.0269107 -0.467475 0)
(-0.0285668 -0.480739 0)
(-0.0300685 -0.492063 0)
(-0.0314308 -0.501493 0)
(-0.032671 -0.509089 0)
(-0.0338153 -0.514924 0)
(-0.0348933 -0.519078 0)
(-0.0359402 -0.521643 0)
(-0.0369928 -0.522717 0)
(-0.0380953 -0.522415 0)
(-0.0283813 -0.46453 0)
(-0.0293093 -0.478114 0)
(-0.030111 -0.48972 0)
(-0.0308268 -0.499377 0)
(-0.0314873 -0.507138 0)
(-0.0321234 -0.513071 0)
(-0.0327671 -0.517252 0)
(-0.0334529 -0.519766 0)
(-0.0342219 -0.520699 0)
(-0.0351232 -0.520147 0)
(-0.0310538 -0.463434 0)
(-0.0308835 -0.477267 0)
(-0.0306916 -0.489021 0)
(-0.0305265 -0.498742 0)
(-0.0304112 -0.506499 0)
(-0.0303664 -0.512365 0)
(-0.0304098 -0.516417 0)
(-0.0305628 -0.51873 0)
(-0.0308532 -0.519371 0)
(-0.0313257 -0.518407 0)
(-0.0342491 -0.465088 0)
(-0.0326854 -0.478847 0)
(-0.0313077 -0.490442 0)
(-0.0301299 -0.499953 0)
(-0.0291425 -0.507473 0)
(-0.0283313 -0.513089 0)
(-0.0276827 -0.516878 0)
(-0.0271836 -0.518904 0)
(-0.0268298 -0.519217 0)
(-0.0266246 -0.517849 0)
(-0.036779 -0.470011 0)
(-0.0338382 -0.483143 0)
(-0.031326 -0.49413 0)
(-0.0292023 -0.503082 0)
(-0.0274104 -0.510104 0)
(-0.0258957 -0.51529 0)
(-0.0246057 -0.518716 0)
(-0.0234915 -0.520439 0)
(-0.0225083 -0.520492 0)
(-0.0216189 -0.51889 0)
(-0.0375483 -0.477765 0)
(-0.0335809 -0.489735 0)
(-0.03023 -0.499705 0)
(-0.0274085 -0.507789 0)
(-0.0250233 -0.514092 0)
(-0.0229875 -0.518704 0)
(-0.0212204 -0.521692 0)
(-0.0196448 -0.523105 0)
(-0.0181878 -0.522971 0)
(-0.0167794 -0.521292 0)
(-0.0361998 -0.487287 0)
(-0.031674 -0.497766 0)
(-0.0278664 -0.506469 0)
(-0.0246619 -0.513498 0)
(-0.021949 -0.51895 0)
(-0.0196242 -0.522898 0)
(-0.0175915 -0.525403 0)
(-0.0157593 -0.526505 0)
(-0.0140405 -0.526222 0)
(-0.0123496 -0.524559 0)
(-0.0329507 -0.497552 0)
(-0.0282793 -0.506399 0)
(-0.0243589 -0.51373 0)
(-0.0210631 -0.519628 0)
(-0.0182752 -0.524172 0)
(-0.015886 -0.527422 0)
(-0.0137946 -0.529425 0)
(-0.0119047 -0.530213 0)
(-0.0101251 -0.5298 0)
(-0.0083631 -0.528188 0)
(-0.0281199 -0.50774 0)
(-0.0236513 -0.514944 0)
(-0.0199132 -0.520898 0)
(-0.0167808 -0.525666 0)
(-0.0141412 -0.529304 0)
(-0.0118894 -0.531859 0)
(-0.00992788 -0.533365 0)
(-0.00816416 -0.533844 0)
(-0.00651063 -0.533307 0)
(-0.00487582 -0.531756 0)
(-0.0221028 -0.517141 0)
(-0.0181161 -0.522805 0)
(-0.0147956 -0.527467 0)
(-0.0120294 -0.531169 0)
(-0.00971738 -0.533951 0)
(-0.00776621 -0.535845 0)
(-0.00608844 -0.536872 0)
(-0.00460151 -0.537047 0)
(-0.00322748 -0.536377 0)
(-0.00188466 -0.53486 0)
(-0.015429 -0.525252 0)
(-0.0120956 -0.529557 0)
(-0.00933984 -0.53307 0)
(-0.00706882 -0.535818 0)
(-0.00519961 -0.537826 0)
(-0.00365466 -0.539112 0)
(-0.00236052 -0.53969 0)
(-0.00124768 -0.539566 0)
(-0.000249819 -0.538743 0)
(0.00070169 -0.537219 0)
(-0.008641 -0.531828 0)
(-0.0060233 -0.534987 0)
(-0.00388876 -0.537521 0)
(-0.00216414 -0.539445 0)
(-0.000785572 -0.540774 0)
(0.000308658 -0.541517 0)
(0.00117716 -0.541681 0)
(0.00187604 -0.541268 0)
(0.00245887 -0.540277 0)
(0.00298252 -0.538706 0)
(-0.00222519 -0.536848 0)
(-0.000292439 -0.539071 0)
(0.00124408 -0.540792 0)
(0.00243987 -0.542022 0)
(0.00334233 -0.542767 0)
(0.00399765 -0.543032 0)
(0.00445129 -0.54282 0)
(0.00474698 -0.542129 0)
(0.00492593 -0.540958 0)
(0.00503422 -0.539304 0)
(0.00343185 -0.540476 0)
(0.00477878 -0.541938 0)
(0.0058008 -0.542991 0)
(0.0065396 -0.543639 0)
(0.00703 -0.543885 0)
(0.00730537 -0.543731 0)
(0.00739988 -0.543176 0)
(0.00734681 -0.542219 0)
(0.00717731 -0.540856 0)
(0.00692695 -0.539086 0)
(0.00807011 -0.542983 0)
(0.00896622 -0.543822 0)
(0.00959363 -0.54432 0)
(0.00998378 -0.544478 0)
(0.010161 -0.544295 0)
(0.0101503 -0.543771 0)
(0.00997658 -0.542901 0)
(0.00966428 -0.541686 0)
(0.00923655 -0.540123 0)
(0.00872063 -0.538212 0)
(0.0115319 -0.544678 0)
(0.012128 -0.545001 0)
(0.0124987 -0.545033 0)
(0.0126683 -0.544773 0)
(0.0126542 -0.544217 0)
(0.0124735 -0.543362 0)
(0.012145 -0.542203 0)
(0.011686 -0.540741 0)
(0.0111136 -0.538973 0)
(0.0104486 -0.536903 0)
(0.0137263 -0.545885 0)
(0.014179 -0.545772 0)
(0.0144392 -0.54541 0)
(0.0145262 -0.544789 0)
(0.0144527 -0.543905 0)
(0.0142304 -0.542752 0)
(0.0138727 -0.541326 0)
(0.0133915 -0.539625 0)
(0.012799 -0.537652 0)
(0.012111 -0.535411 0)
(0.0146239 -0.546932 0)
(0.0150842 -0.546443 0)
(0.015377 -0.545737 0)
(0.0155198 -0.544801 0)
(0.0155208 -0.543625 0)
(0.0153888 -0.542202 0)
(0.0151318 -0.540526 0)
(0.0147574 -0.538596 0)
(0.0142723 -0.536415 0)
(0.0136873 -0.533991 0)
(0.0142581 -0.548111 0)
(0.0148548 -0.547295 0)
(0.0153098 -0.546289 0)
(0.0156366 -0.545076 0)
(0.0158414 -0.543641 0)
(0.0159284 -0.541972 0)
(0.0159005 -0.540062 0)
(0.015761 -0.537908 0)
(0.0155114 -0.535515 0)
(0.015156 -0.532891 0)
(0.0126715 -0.549647 0)
(0.0135108 -0.548561 0)
(0.0142411 -0.547307 0)
(0.0148707 -0.545863 0)
(0.015401 -0.544205 0)
(0.0158315 -0.542318 0)
(0.0161597 -0.540191 0)
(0.0163829 -0.53782 0)
(0.0164976 -0.535208 0)
(0.0165015 -0.532365 0)
(0.00984609 -0.551725 0)
(0.0110332 -0.550449 0)
(0.0121506 -0.549016 0)
(0.0132009 -0.547396 0)
(0.0141786 -0.545561 0)
(0.0150763 -0.543489 0)
(0.0158865 -0.541166 0)
(0.0165995 -0.538587 0)
(0.0172059 -0.535754 0)
(0.0176979 -0.532678 0)
(0.00570475 -0.554561 0)
(0.00736428 -0.553186 0)
(0.00899564 -0.551652 0)
(0.0105943 -0.54992 0)
(0.0121477 -0.547956 0)
(0.0136405 -0.545734 0)
(0.0150582 -0.543238 0)
(0.0163849 -0.540461 0)
(0.0176045 -0.537406 0)
(0.0187037 -0.534085 0)
(0.00016713 -0.55843 0)
(0.00244792 -0.557047 0)
(0.00473979 -0.555487 0)
(0.0070311 -0.553702 0)
(0.00929975 -0.551653 0)
(0.0115235 -0.549311 0)
(0.0136783 -0.546655 0)
(0.0157407 -0.543681 0)
(0.0176873 -0.540392 0)
(0.0194978 -0.536803 0)
(-0.00679059 -0.563659 0)
(-0.00372173 -0.562348 0)
(-0.000605064 -0.560828 0)
(0.00254 -0.559041 0)
(0.00568074 -0.556941 0)
(0.0087848 -0.554492 0)
(0.0118169 -0.551673 0)
(0.0147427 -0.548478 0)
(0.0175288 -0.544918 0)
(0.0201464 -0.541012 0)
(-0.0151082 -0.57059 0)
(-0.0110755 -0.569433 0)
(-0.00695391 -0.568018 0)
(-0.00277421 -0.566274 0)
(0.00141823 -0.564144 0)
(0.00557615 -0.561583 0)
(0.0096491 -0.558571 0)
(0.0135876 -0.555104 0)
(0.0173433 -0.551196 0)
(0.0208751 -0.54688 0)
(-0.0246532 -0.579572 0)
(-0.0194706 -0.578671 0)
(-0.0141444 -0.577439 0)
(-0.00872102 -0.575787 0)
(-0.00326341 -0.573642 0)
(0.00216109 -0.570954 0)
(0.00748074 -0.567695 0)
(0.0126249 -0.563865 0)
(0.0175241 -0.559489 0)
(0.0221184 -0.554613 0)
(-0.0352257 -0.590965 0)
(-0.028694 -0.590463 0)
(-0.0219397 -0.589525 0)
(-0.0150279 -0.588038 0)
(-0.00804593 -0.585908 0)
(-0.00108696 -0.583073 0)
(0.00574984 -0.579499 0)
(0.0123642 -0.575189 0)
(0.0186592 -0.57018 0)
(0.024548 -0.564534 0)
(-0.0465592 -0.605145 0)
(-0.0384662 -0.605253 0)
(-0.0300347 -0.604777 0)
(-0.0213537 -0.603574 0)
(-0.0125389 -0.601525 0)
(-0.0037149 -0.598547 0)
(0.00498571 -0.594599 0)
(0.0134265 -0.589686 0)
(0.0214757 -0.583857 0)
(0.0290139 -0.577201 0)
(-0.0583071 -0.622507 0)
(-0.0484386 -0.623518 0)
(-0.0380673 -0.623753 0)
(-0.0273136 -0.623026 0)
(-0.016323 -0.621186 0)
(-0.00525547 -0.618122 0)
(0.00571718 -0.613783 0)
(0.0164174 -0.608171 0)
(0.0266724 -0.601355 0)
(0.036325 -0.593458 0)
(-0.070001 -0.643443 0)
(-0.058164 -0.645741 0)
(-0.0456093 -0.647025 0)
(-0.0324921 -0.647056 0)
(-0.0189905 -0.645637 0)
(-0.00530153 -0.642623 0)
(0.00836038 -0.637941 0)
(0.0217724 -0.631592 0)
(0.0347139 -0.623666 0)
(0.0469832 -0.614331 0)
(-0.0810189 -0.668279 0)
(-0.0670583 -0.672335 0)
(-0.0521446 -0.675092 0)
(-0.036446 -0.676252 0)
(-0.0201748 -0.675556 0)
(-0.00356592 -0.672815 0)
(0.0131253 -0.66792 0)
(0.0296281 -0.660867 0)
(0.0456696 -0.651763 0)
(0.0609916 -0.640826 0)
(-0.0906118 -0.697187 0)
(-0.07441 -0.703547 0)
(-0.057072 -0.708259 0)
(-0.0387165 -0.71098 0)
(-0.0195786 -0.711379 0)
(6.96128e-05 -0.709208 0)
(0.0199399 -0.704311 0)
(0.0397176 -0.69666 0)
(0.0590783 -0.686369 0)
(0.07769 -0.673708 0)
(-0.0980704 -0.730287 0)
(-0.0794975 -0.739442 0)
(-0.0597777 -0.746556 0)
(-0.0388843 -0.751247 0)
(-0.017024 -0.753117 0)
(0.00550745 -0.751839 0)
(0.0284022 -0.747199 0)
(0.0513199 -0.739122 0)
(0.0738899 -0.727709 0)
(0.0957193 -0.713259 0)
(-0.102664 -0.767344 0)
(-0.0816577 -0.779735 0)
(-0.0597327 -0.789586 0)
(-0.0366583 -0.796539 0)
(-0.0125299 -0.800161 0)
(0.0123745 -0.800054 0)
(0.0377496 -0.79593 0)
(0.0632549 -0.787651 0)
(0.0885023 -0.775276 0)
(0.113139 -0.759087 0)
(-0.104004 -0.808599 0)
(-0.0807256 -0.824043 0)
(-0.0568659 -0.836591 0)
(-0.0321674 -0.845812 0)
(-0.00651151 -0.85124 0)
(0.0199172 -0.852419 0)
(0.0468467 -0.848991 0)
(0.0739709 -0.840743 0)
(0.100961 -0.827652 0)
(0.127678 -0.809895 0)
(-0.101626 -0.852719 0)
(-0.0768125 -0.871264 0)
(-0.0514947 -0.886262 0)
(-0.0259419 -0.897452 0)
(0.000257473 -0.904454 0)
(0.0271019 -0.906815 0)
(0.0543921 -0.904132 0)
(0.081895 -0.896121 0)
(0.109465 -0.882636 0)
(0.137359 -0.863648 0)
(-0.0943438 -0.900402 0)
(-0.0703143 -0.920349 0)
(-0.044386 -0.936799 0)
(-0.0189399 -0.949314 0)
(0.00670931 -0.957449 0)
(0.0328027 -0.960725 0)
(0.059228 -0.95871 0)
(0.0858539 -0.951062 0)
(0.112813 -0.93752 0)
(0.140704 -0.917884 0)
(-0.084613 -0.949742 0)
(-0.0628803 -0.969399 0)
(-0.0373645 -0.986347 0)
(-0.0127277 -0.999527 0)
(0.0116499 -1.00828 0)
(0.0361807 -1.01209 0)
(0.0608616 -1.01054 0)
(0.0857183 -1.00328 0)
(0.111198 -0.989947 0)
(0.137834 -0.970289 0)
(-0.0729425 -0.995862 0)
(-0.054291 -1.01606 0)
(-0.030334 -1.03338 0)
(-0.00726431 -1.04673 0)
(0.0151692 -1.05553 0)
(0.0374466 -1.05938 0)
(0.0596609 -1.05797 0)
(0.0820005 -1.05097 0)
(0.105162 -1.03796 0)
(0.128994 -1.01845 0)
(-0.0596801 -1.03768 0)
(-0.0437032 -1.05912 0)
(-0.0226126 -1.07636 0)
(-0.00186368 -1.0894 0)
(0.0180197 -1.09781 0)
(0.0375409 -1.10129 0)
(0.0568355 -1.09964 0)
(0.0761764 -1.09267 0)
(0.0963375 -1.08019 0)
(0.115774 -1.062 0)
(-0.0462198 -1.0753 0)
(-0.0328329 -1.09731 0)
(-0.0149524 -1.11403 0)
(0.00308609 -1.12657 0)
(0.0202506 -1.13446 0)
(0.0370166 -1.13739 0)
(0.0535062 -1.1352 0)
(0.0699381 -1.12789 0)
(0.0868573 -1.11563 0)
(0.101857 -1.09886 0)
(-0.0336444 -1.10765 0)
(-0.0228974 -1.12976 0)
(-0.00827074 -1.14595 0)
(0.00692396 -1.15816 0)
(0.0214445 -1.16569 0)
(0.0356827 -1.16808 0)
(0.0496628 -1.16518 0)
(0.0634311 -1.15707 0)
(0.0771148 -1.14424 0)
(0.0880138 -1.12761 0)
(-0.0228614 -1.13406 0)
(-0.0146807 -1.1561 0)
(-0.00325421 -1.17212 0)
(0.00916236 -1.18445 0)
(0.021314 -1.19198 0)
(0.033382 -1.19404 0)
(0.0452615 -1.19031 0)
(0.0567781 -1.18089 0)
(0.0675994 -1.16646 0)
(0.075251 -1.14831 0)
(-0.0143284 -1.15297 0)
(-0.00855663 -1.17591 0)
(-0.00012333 -1.19272 0)
(0.00974269 -1.20596 0)
(0.0198953 -1.21409 0)
(0.0302487 -1.21614 0)
(0.0405576 -1.21166 0)
(0.0504724 -1.20062 0)
(0.0592183 -1.18377 0)
(0.0649695 -1.16212 0)
(-0.00854975 -1.16307 0)
(-0.00490517 -1.18917 0)
(0.00104049 -1.20829 0)
(0.00884571 -1.22349 0)
(0.0174741 -1.23289 0)
(0.0265572 -1.23537 0)
(0.0357453 -1.23037 0)
(0.0446658 -1.21768 0)
(0.0523934 -1.19778 0)
(0.0574283 -1.17059 0)
(-0.00580451 -1.16578 0)
(-0.00388181 -1.19742 0)
(0.000444441 -1.22032 0)
(0.00702583 -1.23837 0)
(0.0147356 -1.24951 0)
(0.0229549 -1.25271 0)
(0.0313368 -1.24747 0)
(0.0396816 -1.23349 0)
(0.0472025 -1.21082 0)
(0.0521643 -1.17713 0)
(-0.00508709 -1.16379 0)
(-0.00435623 -1.20297 0)
(-0.000724711 -1.2308 0)
(0.00545833 -1.25212 0)
(0.012687 -1.26503 0)
(0.0202591 -1.269 0)
(0.0280012 -1.2639 0)
(0.0360232 -1.24965 0)
(0.0438101 -1.22645 0)
(0.049482 -1.1911 0)
(-0.00490035 -1.15711 0)
(-0.00397636 -1.20775 0)
(-0.00045166 -1.24115 0)
(0.00550682 -1.26521 0)
(0.0119153 -1.27914 0)
(0.0182289 -1.28335 0)
(0.0244821 -1.27832 0)
(0.0308189 -1.26426 0)
(0.0369248 -1.24171 0)
(0.0429609 -1.20715 0)
(-0.00459765 -1.14855 0)
(-0.000796526 -1.21405 0)
(0.00331598 -1.25164 0)
(0.00849186 -1.2765 0)
(0.0132208 -1.29 0)
(0.0174265 -1.29355 0)
(0.0213115 -1.28792 0)
(0.0249189 -1.2731 0)
(0.0281723 -1.24904 0)
(0.0326767 -1.21039 0)
(0.00271305 -1.15269 0)
(0.0075096 -1.22204 0)
(0.0107756 -1.25985 0)
(0.0137926 -1.28384 0)
(0.0162414 -1.29642 0)
(0.0184252 -1.29946 0)
(0.0207273 -1.29375 0)
(0.0235467 -1.27868 0)
(0.0272049 -1.25284 0)
(0.0333713 -1.20791 0)
(0.000189861 -1.15922 0)
(0.00870759 -1.22911 0)
(0.0132265 -1.26556 0)
(0.0157634 -1.288 0)
(0.0171343 -1.29981 0)
(0.0183228 -1.30316 0)
(0.0200858 -1.29897 0)
(0.0235549 -1.28641 0)
(0.0292243 -1.26313 0)
(0.0371892 -1.21841 0)
(-0.00326428 -1.17873 0)
(0.00587985 -1.24093 0)
(0.011467 -1.27233 0)
(0.0140844 -1.29156 0)
(0.0149734 -1.30214 0)
(0.01562 -1.30591 0)
(0.0169037 -1.30386 0)
(0.0202533 -1.29579 0)
(0.0258117 -1.28009 0)
(0.0306602 -1.24834 0)
(-0.00953471 -1.21655 0)
(-0.00178048 -1.25957 0)
(0.00544948 -1.28156 0)
(0.00903205 -1.29577 0)
(0.0101917 -1.30433 0)
(0.0106357 -1.30773 0)
(0.0110973 -1.30673 0)
(0.012567 -1.3021 0)
(0.0151184 -1.29372 0)
(0.0164613 -1.27796 0)
(-0.00190848 -1.25723 0)
(0.000688989 -1.27725 0)
(0.00465443 -1.28927 0)
(0.00636797 -1.29871 0)
(0.00645662 -1.30536 0)
(0.00593527 -1.30768 0)
(0.0049721 -1.30619 0)
(0.00379405 -1.30265 0)
(0.00277673 -1.29774 0)
(0.00168752 -1.29002 0)
(0.00889492 -1.27405 0)
(0.00783281 -1.28271 0)
(0.00694743 -1.28991 0)
(0.00571787 -1.29744 0)
(0.00425402 -1.30344 0)
(0.00230758 -1.3047 0)
(-0.000124036 -1.30186 0)
(-0.00359219 -1.29777 0)
(-0.00758224 -1.29368 0)
(-0.0106518 -1.28866 0)
(0.0180106 -1.27253 0)
(0.0143983 -1.27794 0)
(0.00988181 -1.28439 0)
(0.00641658 -1.29242 0)
(0.00356427 -1.29831 0)
(-0.00013261 -1.2988 0)
(-0.00359017 -1.29454 0)
(-0.00841303 -1.28875 0)
(-0.0143724 -1.28395 0)
(-0.0188167 -1.27975 0)
(0.0231029 -1.26092 0)
(0.0179444 -1.26615 0)
(0.0114535 -1.27491 0)
(0.00731422 -1.28535 0)
(0.00377223 -1.29019 0)
(-0.00188633 -1.29038 0)
(-0.00567559 -1.28595 0)
(-0.0106524 -1.27745 0)
(-0.0177364 -1.2703 0)
(-0.0231055 -1.2659 0)
(0.0242171 -1.24316 0)
(0.0183739 -1.25044 0)
(0.011607 -1.26502 0)
(0.00795819 -1.27848 0)
(0.0044297 -1.27976 0)
(-0.00330245 -1.28006 0)
(-0.00686987 -1.27817 0)
(-0.0110008 -1.26632 0)
(-0.0181793 -1.25407 0)
(-0.0240684 -1.24785 0)
(0.0211301 -1.21962 0)
(0.0158818 -1.23379 0)
(0.0113659 -1.25874 0)
(0.00804711 -1.27236 0)
(0.00524298 -1.26792 0)
(-0.00452439 -1.26832 0)
(-0.00738125 -1.27192 0)
(-0.0106595 -1.25885 0)
(-0.0158377 -1.23702 0)
(-0.0213017 -1.22473 0)
(0.0131421 -1.18771 0)
(0.0103383 -1.22046 0)
(0.0129024 -1.25874 0)
(0.00757924 -1.26451 0)
(0.00631493 -1.25511 0)
(-0.00584478 -1.25536 0)
(-0.00728323 -1.26452 0)
(-0.0120379 -1.2581 0)
(-0.0104219 -1.22276 0)
(-0.0137125 -1.19296 0)
(0.0041276 -1.1407 0)
(0.0016834 -1.21797 0)
(0.0184102 -1.26333 0)
(0.00603245 -1.25173 0)
(0.00752165 -1.24196 0)
(-0.00717451 -1.24202 0)
(-0.00581 -1.2519 0)
(-0.0177266 -1.2629 0)
(-0.0016918 -1.21934 0)
(-0.00459567 -1.14444 0)
(0.00733552 -1.06279 0)
(-0.012564 -1.24847 0)
(0.0246723 -1.26806 0)
(0.000756101 -1.23607 0)
(0.00738872 -1.23057 0)
(-0.00709625 -1.23061 0)
(-0.000322545 -1.23608 0)
(-0.0242611 -1.26804 0)
(0.0128656 -1.24982 0)
(-0.00727406 -1.06365 0)
(0.282393 -0.0413636 0)
(0.312645 -0.0388207 0)
(0.340647 -0.0357911 0)
(0.366051 -0.0322776 0)
(0.388461 -0.0282645 0)
(0.407463 -0.023723 0)
(0.422647 -0.0186476 0)
(0.433643 -0.0130508 0)
(0.44018 -0.00696367 0)
(0.442244 -0.000587567 0)
(0.439246 0.00530352 0)
(0.432231 0.0103256 0)
(0.42203 0.0144873 0)
(0.409096 0.0178263 0)
(0.39396 0.0201418 0)
(0.377417 0.0213646 0)
(0.360077 0.0220636 0)
(0.342049 0.0227819 0)
(0.323289 0.023523 0)
(0.30393 0.0240909 0)
(0.284178 0.0244293 0)
(0.264187 0.0245934 0)
(0.244062 0.0246539 0)
(0.223874 0.0246643 0)
(0.203667 0.0246573 0)
(0.183469 0.0246491 0)
(0.163297 0.0246441 0)
(0.143169 0.0246379 0)
(0.123112 0.0246169 0)
(0.103168 0.0245533 0)
(0.0834131 0.0243975 0)
(0.0639725 0.0240686 0)
(0.0450166 0.0234425 0)
(0.0267789 0.022316 0)
(0.0103592 0.0204569 0)
(-0.00477221 0.019469 0)
(-0.0186547 0.0136279 0)
(-0.0270116 0.00138145 0)
(-0.0256428 -0.0188632 0)
(-0.0119153 -0.0314931 0)
(0.234507 -0.0817454 0)
(0.259377 -0.0761013 0)
(0.282241 -0.0695419 0)
(0.302828 -0.0620325 0)
(0.320885 -0.0535308 0)
(0.336144 -0.0440263 0)
(0.348368 -0.0336014 0)
(0.357384 -0.0224335 0)
(0.363094 -0.0108449 0)
(0.365531 0.000582375 0)
(0.365277 0.010995 0)
(0.362607 0.0199164 0)