/*--------------------------------*- C++ -*----------------------------------*\
  =========                 |
  \\      /  F ield         | OpenFOAM: The Open Source CFD Toolbox
   \\    /   O peration     | Website:  https://openfoam.org
    \\  /    A nd           | Version:  8
     \\/     M anipulation  |
\*---------------------------------------------------------------------------*/
FoamFile
{
    version     2.0;
    format      ascii;
    class       surfaceScalarField;
    location    "9";
    object      alphaPhi0.water;
}
// * * * * * * * * * * * * * * * * * * * * * * * * * * * * * * * * * * * * * //

dimensions      [0 3 -1 0 0 0 0];

internalField   nonuniform List<scalar> 
18095
(
1.98601e-08
-1.72119e-07
1.52259e-07
2.31249e-08
-1.97656e-07
1.94391e-07
1.99453e-08
-2.06157e-07
2.09337e-07
1.11079e-08
-2.1077e-07
2.19608e-07
-1.85784e-10
-2.13127e-07
2.24421e-07
-1.16705e-08
-2.13376e-07
2.24861e-07
-2.0325e-08
-2.11213e-07
2.19868e-07
-2.31504e-08
-2.06086e-07
2.08911e-07
-1.98806e-08
-1.97512e-07
1.94243e-07
-1.71979e-07
1.52099e-07
1.55154e-08
-1.87634e-07
1.60622e-08
-1.98203e-07
1.18901e-08
-2.01985e-07
6.45837e-09
-2.05338e-07
6.27641e-10
-2.07296e-07
-5.93143e-09
-2.06817e-07
-1.18772e-08
-2.05267e-07
-1.61673e-08
-2.01796e-07
-1.55685e-08
-1.98111e-07
-1.87547e-07
6.79139e-09
-1.94425e-07
8.36232e-09
-1.99774e-07
7.30237e-09
-2.00925e-07
3.92889e-09
-2.01965e-07
-7.20576e-10
-2.02647e-07
-4.70921e-09
-2.02828e-07
-7.50189e-09
-2.02474e-07
-8.42813e-09
-2.00869e-07
-6.82868e-09
-1.9971e-07
-1.94376e-07
4.50534e-09
-1.98931e-07
4.70615e-09
-1.99975e-07
3.67342e-09
-1.99893e-07
2.14847e-09
-2.0044e-07
4.52647e-10
-2.00951e-07
-1.58028e-09
-2.00795e-07
-3.71277e-09
-2.00342e-07
-4.75214e-09
-1.9983e-07
-4.54488e-09
-1.99918e-07
-1.98921e-07
1.06878e-09
1.09343e-09
1.20053e-09
7.59854e-10
-1.91469e-10
-9.87094e-10
-1.32952e-09
-1.16028e-09
-1.07855e-09
-2.83673e-08
-1.96316e-07
2.24684e-07
-3.08414e-08
-1.99265e-07
2.01739e-07
-2.5801e-08
-2.01291e-07
1.96251e-07
-1.51534e-08
-2.01456e-07
1.90808e-07
-7.60833e-10
-2.02073e-07
1.8768e-07
1.3512e-08
-2.02025e-07
1.87752e-07
2.45369e-08
-2.01539e-07
1.90514e-07
3.01378e-08
-2.013e-07
1.95699e-07
2.78113e-08
-1.98861e-07
2.01187e-07
-1.9587e-07
2.23681e-07
-9.68213e-09
-1.86634e-07
-1.5515e-08
-1.93432e-07
-1.34286e-08
-2.03377e-07
-7.25904e-09
-2.07625e-07
-1.38071e-09
-2.07951e-07
4.91311e-09
-2.08319e-07
1.23272e-08
-2.08953e-07
1.48239e-08
-2.03796e-07
9.39518e-09
-1.93432e-07
-1.86475e-07
-9.76391e-09
-1.76871e-07
-7.58206e-09
-1.95614e-07
-5.9992e-09
-2.0496e-07
-3.38806e-09
-2.10236e-07
2.43783e-09
-2.13777e-07
7.49045e-09
-2.13372e-07
8.06773e-09
-2.09531e-07
8.51101e-09
-2.0424e-07
1.0028e-08
-1.94949e-07
-1.76447e-07
-6.79564e-09
-1.70075e-07
-9.00489e-09
-1.93405e-07
-8.55278e-09
-2.05413e-07
-3.87918e-09
-2.1491e-07
-1.14293e-09
-2.16513e-07
1.40648e-09
-2.15921e-07
6.46479e-09
-2.14589e-07
7.61953e-09
-2.05395e-07
6.30905e-09
-1.93638e-07
-1.70137e-07
-1.7816e-08
-1.68291e-08
-1.29049e-08
-8.20723e-09
-2.99788e-10
8.63949e-09
1.39181e-08
1.7435e-08
1.8039e-08
4.17472e-08
-1.60404e-07
1.18657e-07
3.66272e-08
-2.00456e-07
2.05575e-07
2.56411e-08
-2.14486e-07
2.25476e-07
9.90516e-09
-2.1831e-07
2.34044e-07
-7.51297e-09
-2.1893e-07
2.36348e-07
-2.56886e-08
-2.17773e-07
2.35949e-07
-3.98729e-08
-2.13707e-07
2.27892e-07
-4.76858e-08
-2.09631e-07
2.17444e-07
-4.47587e-08
-1.94089e-07
1.91162e-07
-1.52209e-07
1.0745e-07
1.56388e-08
-1.76042e-07
1.83989e-08
-2.03217e-07
1.34185e-08
-2.09505e-07
4.41073e-09
-2.09302e-07
-6.69691e-09
-2.07823e-07
-1.63195e-08
-2.0815e-07
-2.20546e-08
-2.07972e-07
-2.52847e-08
-2.06401e-07
-2.02109e-08
-1.99163e-07
-1.7242e-07
8.38196e-09
-1.84425e-07
7.62002e-09
-2.02454e-07
5.32973e-09
-2.07214e-07
7.20182e-10
-2.04692e-07
-1.69267e-09
-2.0541e-07
-5.20186e-09
-2.04641e-07
-9.65901e-09
-2.03515e-07
-1.08102e-08
-2.0525e-07
-9.58197e-09
-2.00391e-07
-1.82002e-07
6.92377e-09
-1.9135e-07
4.49328e-09
-2.00023e-07
5.13568e-09
-2.07856e-07
4.09928e-10
-1.99966e-07
-1.75782e-09
-2.03242e-07
-3.70101e-09
-2.02698e-07
-7.92926e-09
-1.99287e-07
-6.8309e-09
-2.06349e-07
-8.40344e-09
-1.98819e-07
-1.90405e-07
3.33345e-08
3.50507e-08
2.34448e-08
1.42862e-08
-1.27623e-09
-1.62219e-08
-2.49949e-08
-3.56444e-08
-3.32759e-08
5.47477e-08
-7.18024e-09
-4.75838e-08
5.84193e-08
-3.71601e-09
5.39711e-08
4.40731e-09
4.37104e-08
1.02987e-08
3.48327e-08
8.87778e-09
3.03087e-08
4.5241e-09
3.33543e-08
-3.04543e-09
3.68347e-08
-3.7384e-09
3.78867e-08
-1.0535e-09
-5.70839e-10
3.84561e-08
4.60789e-08
-1.83689e-08
-3.48924e-08
5.67297e-08
-1.43674e-08
6.4948e-08
-3.81158e-09
6.61262e-08
9.11879e-09
5.93705e-08
1.54967e-08
5.05978e-08
1.33376e-08
4.5428e-08
2.12442e-09
4.46522e-08
-3.19524e-09
4.62175e-08
-2.69295e-09
-2.46748e-09
4.81127e-08
3.97433e-08
-2.9391e-08
-2.87214e-08
5.01932e-08
-2.48178e-08
5.76595e-08
-1.1278e-08
6.1222e-08
5.41311e-09
6.19705e-08
1.47037e-08
6.09009e-08
1.44854e-08
5.55352e-08
7.48982e-09
5.23439e-08
-3.07506e-10
5.14419e-08
-1.79274e-09
-4.40543e-09
5.33783e-08
5.92028e-08
-2.85704e-08
-5.98869e-08
5.94759e-08
-2.50911e-08
5.86409e-08
-1.04429e-08
5.76208e-08
6.29321e-09
5.70655e-08
1.52142e-08
5.71256e-08
1.45548e-08
5.69875e-08
7.62857e-09
5.57492e-08
6.18889e-10
5.72176e-08
-3.26296e-09
-8.17482e-09
6.09852e-08
9.00076e-08
-1.17742e-08
-1.03973e-07
7.30799e-08
-8.16287e-09
5.88597e-08
3.77664e-09
4.78277e-08
1.71447e-08
4.3056e-08
1.99409e-08
4.54947e-08
1.21486e-08
4.89833e-08
3.96776e-09
5.35598e-08
-4.04873e-09
6.03382e-08
-1.00456e-08
-1.06112e-08
6.28846e-08
1.00329e-07
1.18879e-08
-1.23971e-07
7.34785e-08
1.86972e-08
4.77247e-08
2.94126e-08
2.9807e-08
3.49609e-08
2.22091e-08
2.75532e-08
2.2826e-08
1.15979e-08
2.37078e-08
3.02494e-09
2.19338e-08
-2.19278e-09
9.98882e-09
1.90156e-09
1.78119e-08
-1.84321e-08
5.75869e-08
4.06636e-08
-8.63373e-08
3.03536e-08
4.57402e-08
1.21406e-08
4.74545e-08
6.96822e-09
4.0145e-08
3.93683e-09
3.05974e-08
-3.60135e-09
1.91096e-08
-1.35086e-08
1.2936e-08
-3.17056e-08
1.59963e-08
-6.56285e-08
3.58261e-08
5.6982e-08
-1.04797e-07
-8.14914e-09
5.67286e-08
-8.11463e-09
-1.66589e-08
5.40726e-08
-1.57236e-08
4.65426e-08
-1.4355e-08
3.88544e-08
-1.66484e-08
3.28263e-08
-2.39029e-08
2.63924e-08
-3.64202e-08
2.54546e-08
-5.75244e-08
3.7058e-08
-9.33235e-08
7.16165e-08
9.03209e-08
-1.26662e-07
-5.00052e-08
5.16904e-08
5.51231e-08
-4.2694e-08
4.68272e-08
-3.86684e-08
4.27482e-08
-3.93272e-08
3.92956e-08
-3.87454e-08
3.22239e-08
-4.1247e-08
2.88939e-08
-4.61352e-08
3.03426e-08
-5.16989e-08
4.28616e-08
-6.17982e-08
8.06001e-08
1.1892e-07
-9.7048e-08
-6.56331e-08
4.29965e-08
7.44215e-08
-5.96485e-08
4.12466e-08
-5.76227e-08
4.07205e-08
-5.48728e-08
3.62086e-08
-5.25348e-08
2.98857e-08
-5.26426e-08
2.90015e-08
-5.37464e-08
3.14463e-08
-5.16002e-08
4.07152e-08
-3.46746e-08
6.46702e-08
1.10827e-07
-2.81718e-08
-7.15956e-08
3.65005e-08
7.83551e-08
-6.63605e-08
3.60093e-08
-6.22846e-08
3.66445e-08
-5.91775e-08
3.27354e-08
-5.83436e-08
2.90517e-08
-5.81121e-08
2.87699e-08
-5.83672e-08
3.17013e-08
-5.54548e-08
3.78029e-08
-3.64255e-08
4.78245e-08
7.84187e-08
-2.33978e-10
-6.40183e-08
3.1662e-08
6.88546e-08
-6.04693e-08
3.24582e-08
-5.70657e-08
3.32388e-08
-5.71002e-08
3.23477e-08
-5.72777e-08
2.9229e-08
-5.70561e-08
2.85481e-08
-5.58775e-08
3.05225e-08
-5.31437e-08
3.5069e-08
-4.41767e-08
3.8922e-08
5.08358e-08
-1.20778e-08
-4.73733e-08
3.06943e-08
4.85188e-08
-4.50616e-08
3.01444e-08
-4.19303e-08
3.01054e-08
-4.21047e-08
3.22113e-08
-4.39652e-08
3.10894e-08
-4.44721e-08
2.90549e-08
-4.30027e-08
2.9053e-08
-3.99827e-08
3.20591e-08
-3.7448e-08
3.64605e-08
4.22652e-08
-2.87837e-08
-1.70802e-08
1.95508e-08
2.8275e-08
-1.32049e-08
2.65128e-08
-1.38619e-08
3.09979e-08
-1.37304e-08
3.20947e-08
-1.54929e-08
3.28516e-08
-1.88858e-08
3.24477e-08
-2.23019e-08
3.24605e-08
-2.27541e-08
3.25233e-08
-1.99698e-08
3.36961e-08
3.68479e-08
-1.45527e-08
-1.64532e-08
9.88772e-09
2.6115e-08
-1.36984e-08
2.37568e-08
-1.1983e-08
2.93066e-08
-9.97764e-09
3.00921e-08
-8.51993e-09
3.13999e-08
-8.98679e-09
3.29063e-08
-9.32599e-09
3.27914e-08
-9.3712e-09
3.25632e-08
-8.12975e-09
3.24544e-08
3.38974e-08
-5.17949e-09
-3.11348e-08
5.81217e-09
3.51652e-08
-3.4157e-08
2.67722e-08
-3.2556e-08
2.76955e-08
-2.65265e-08
2.40513e-08
-1.95329e-08
2.43768e-08
-1.44366e-08
2.77928e-08
-1.23929e-08
3.07402e-08
-1.0866e-08
3.10328e-08
-7.68711e-09
2.92748e-08
2.88349e-08
-2.62493e-09
-5.14212e-08
7.31003e-09
5.03397e-08
-5.89413e-08
3.36678e-08
-6.58804e-08
3.38292e-08
-6.27775e-08
2.0934e-08
-5.2764e-08
1.43497e-08
-4.09594e-08
1.59789e-08
-3.38852e-08
2.36568e-08
-2.73582e-08
2.44993e-08
-1.68324e-08
1.87295e-08
1.79926e-08
-6.00512e-09
-7.63493e-08
1.10799e-08
7.39578e-08
-7.13229e-08
2.86371e-08
-6.53256e-08
2.78272e-08
-6.34832e-08
1.75387e-08
-6.37636e-08
1.41375e-08
-6.32162e-08
1.53768e-08
-5.85914e-08
1.93502e-08
-4.9611e-08
1.48222e-08
-4.04976e-08
9.41649e-09
8.7129e-09
-3.12334e-08
-1.16851e-07
2.11625e-08
1.08728e-07
-1.15559e-07
2.73403e-08
-1.13962e-07
2.62256e-08
-1.17167e-07
2.07387e-08
-1.20581e-07
1.75436e-08
-1.23125e-07
1.79038e-08
-1.25933e-07
1.91258e-08
-1.25e-07
1.3786e-08
-1.2373e-07
7.97123e-09
1.7583e-09
-1.16034e-07
-1.94503e-07
3.53983e-08
1.80262e-07
-2.04336e-07
3.71686e-08
-2.11664e-07
3.35486e-08
-2.13756e-07
2.28204e-08
-2.1452e-07
1.4197e-08
-2.08693e-07
1.20704e-08
-2.01558e-07
1.19914e-08
-1.96296e-07
8.52558e-09
-1.86881e-07
-1.44539e-09
-1.70867e-08
-1.68036e-07
-2.07308e-07
4.2646e-08
2.0006e-07
-2.1445e-07
4.23921e-08
-2.1842e-07
3.61037e-08
-2.18671e-07
2.32174e-08
-2.16913e-07
1.23597e-08
-2.12339e-07
7.11505e-09
-2.05405e-07
5.06254e-09
-1.97218e-07
3.39338e-10
-1.82907e-07
-1.41769e-08
-3.86591e-08
-1.58517e-07
-2.12e-07
4.88017e-08
2.0303e-07
-2.1518e-07
4.54936e-08
-2.12299e-07
3.31479e-08
-2.02158e-07
1.29998e-08
-1.91001e-07
1.05633e-09
-1.8098e-07
-3.0578e-09
-1.72641e-07
-3.27672e-09
-1.60755e-07
-7.09171e-09
-1.39288e-07
-2.99403e-08
-7.17588e-08
-1.07573e-07
-1.95643e-07
5.02588e-08
1.91219e-07
-1.92488e-07
4.22496e-08
-1.83502e-07
2.40832e-08
-1.69422e-07
-1.15472e-09
-1.60444e-07
-7.96715e-09
-1.48911e-07
-6.2924e-09
-1.4225e-07
-7.39971e-09
-1.31953e-07
-1.76009e-08
-1.10533e-07
-5.15704e-08
-9.88751e-08
-9.15132e-08
-1.55149e-07
4.64506e-08
1.58742e-07
-1.42165e-07
2.91611e-08
-1.34407e-07
1.62373e-08
-1.42343e-07
6.71423e-09
-1.41453e-07
6.52303e-10
-1.42534e-07
-5.42962e-09
-1.29413e-07
-2.07317e-08
-1.14947e-07
-3.22856e-08
-1.14397e-07
-6.14603e-08
-1.00505e-07
-1.12678e-07
-6.28289e-08
2.83396e-08
7.89107e-08
-4.70729e-08
1.23123e-08
-4.41275e-08
1.28452e-08
-6.03267e-08
2.24469e-08
-7.55056e-08
1.53835e-08
-7.92675e-08
1.9075e-09
-8.63666e-08
-1.38515e-08
-8.82835e-08
-3.50504e-08
-9.32085e-08
-5.63962e-08
-8.79878e-08
-1.05633e-07
-4.9761e-08
2.04713e-08
5.74029e-08
-4.2382e-08
8.03553e-09
-4.12564e-08
1.09641e-08
-2.95855e-08
1.00486e-08
-1.4833e-08
-8.26662e-11
-1.07322e-08
-2.91391e-09
-4.4512e-09
-2.06406e-08
-5.8628e-09
-3.28134e-08
-2.25275e-08
-3.61352e-08
-3.80785e-08
-6.33345e-08
-2.13981e-08
2.02379e-08
2.16519e-08
-1.55755e-08
2.3129e-09
-9.23581e-10
-2.69988e-09
2.37079e-08
-1.5959e-08
5.92517e-08
-3.63853e-08
8.71904e-08
-3.03059e-08
9.14244e-08
-2.65125e-08
7.56315e-08
-2.7058e-08
5.07277e-08
-1.12344e-08
-8.80203e-09
2.14616e-08
7.95607e-08
3.78834e-08
-9.69031e-08
6.82168e-08
1.37874e-08
7.31522e-08
-7.45532e-09
9.05299e-08
-3.33353e-08
1.05935e-07
-5.17903e-08
1.32269e-07
-5.66399e-08
1.59367e-07
-5.36109e-08
1.81074e-07
-4.87647e-08
1.62665e-07
-2.89535e-08
-5.59854e-09
1.59385e-07
1.84637e-07
4.70303e-08
-1.93794e-07
1.60014e-07
3.84006e-08
1.30936e-07
2.17038e-08
1.11344e-07
-8.98103e-09
1.00516e-07
-4.09605e-08
1.0156e-07
-5.76844e-08
1.13385e-07
-6.5436e-08
1.3345e-07
-6.88295e-08
1.54324e-07
-6.23797e-08
-3.22924e-08
1.59081e-07
2.03792e-07
5.19803e-08
-2.12705e-07
1.93813e-07
4.84605e-08
1.73539e-07
4.23708e-08
1.38908e-07
2.65984e-08
1.05508e-07
-3.29371e-09
8.63138e-08
-3.84556e-08
8.18174e-08
-6.09394e-08
8.62856e-08
-7.32976e-08
9.87649e-08
-7.48589e-08
-5.90955e-08
1.0961e-07
2.08883e-07
5.55523e-08
-2.12452e-07
1.96761e-07
5.32533e-08
1.88999e-07
5.10804e-08
1.70174e-07
4.66099e-08
1.34934e-07
3.30441e-08
9.99099e-08
3.07743e-10
8.01126e-08
-4.11408e-08
7.67016e-08
-6.98866e-08
7.81399e-08
-7.62971e-08
-6.76953e-08
8.67398e-08
1.97222e-07
5.7766e-08
-1.99436e-07
1.86089e-07
5.72177e-08
1.81374e-07
5.5757e-08
1.75361e-07
5.37206e-08
1.61744e-07
4.77702e-08
1.35528e-07
2.92112e-08
1.11737e-07
-1.62611e-08
9.9273e-08
-5.74219e-08
9.14332e-08
-6.84572e-08
-6.13195e-08
8.50576e-08
1.72693e-07
6.0557e-08
-1.75485e-07
1.64287e-07
6.03412e-08
1.5948e-07
5.92387e-08
1.57091e-07
5.72195e-08
1.55754e-07
5.02413e-08
1.50348e-07
3.73395e-08
1.33115e-07
2.12794e-09
1.17902e-07
-4.22082e-08
1.02881e-07
-5.34356e-08
-3.64799e-08
7.37356e-08
1.48811e-07
5.6247e-08
-1.44502e-07
1.49281e-07
5.91411e-08
1.42379e-07
6.1447e-08
1.45129e-07
5.56036e-08
1.46787e-07
4.97322e-08
1.3639e-07
4.99684e-08
1.22188e-07
1.63365e-08
1.04309e-07
-2.43262e-08
8.04401e-08
-2.9566e-08
-1.46651e-08
4.99417e-08
1.17885e-07
4.94936e-08
-1.11132e-07
1.2438e-07
5.22915e-08
1.32345e-07
5.32224e-08
1.36326e-07
5.1381e-08
1.282e-07
5.65518e-08
1.32304e-07
4.74972e-08
1.22068e-07
2.73392e-08
9.15387e-08
6.20898e-09
5.61148e-08
-5.79138e-09
-1.37755e-09
4.28074e-08
9.38074e-08
4.90928e-08
-9.34077e-08
9.86004e-08
4.74977e-08
1.04103e-07
4.7716e-08
9.31632e-08
5.76615e-08
8.11843e-08
6.77152e-08
9.23688e-08
3.86645e-08
9.23965e-08
2.80554e-08
6.90567e-08
1.86096e-08
5.3589e-08
6.95369e-09
1.05332e-08
4.16253e-08
3.68098e-08
5.01183e-08
-4.09164e-08
2.62902e-08
5.34797e-08
1.49572e-08
5.6276e-08
1.07128e-08
5.90194e-08
2.32531e-08
5.43878e-08
3.0496e-08
3.02438e-08
3.05092e-08
2.60324e-08
3.94085e-08
1.24241e-08
2.32733e-08
2.59507e-08
2.78617e-08
9.30739e-09
-5.43657e-08
5.04465e-08
5.27181e-08
-5.38516e-08
5.44802e-08
-4.5445e-08
4.90293e-08
-3.55118e-08
5.05118e-08
-2.401e-08
4.3156e-08
-1.0193e-08
1.61946e-08
2.70815e-09
1.40649e-08
2.47286e-09
1.34275e-08
-4.0606e-09
3.30498e-08
3.60631e-08
-1.24621e-08
-8.68669e-08
3.16577e-08
1.06345e-07
-7.06152e-08
3.89327e-08
-6.54143e-08
4.06284e-08
-5.06068e-08
3.62209e-08
-3.98785e-08
3.26423e-08
-4.11621e-08
1.77037e-08
-3.75014e-08
1.06399e-08
-4.1307e-08
1.74526e-08
-4.69203e-08
3.79448e-08
4.5735e-08
-5.6622e-08
-1.21159e-07
2.4669e-08
1.26188e-07
-1.09626e-07
2.74459e-08
-9.95565e-08
3.06259e-08
-1.08562e-07
4.54417e-08
-1.27479e-07
5.16854e-08
-1.53766e-07
4.04336e-08
-1.58724e-07
1.58547e-08
-1.46825e-07
1.16753e-08
-1.2857e-07
1.96603e-08
2.81648e-08
-1.11025e-07
-1.33777e-07
1.27529e-08
1.57505e-07
-1.30417e-07
2.40772e-08
-1.35677e-07
3.5876e-08
-1.38715e-07
4.83026e-08
-1.56324e-07
5.31083e-08
-1.70243e-07
4.6649e-08
-1.72904e-07
1.87708e-08
-1.66278e-07
5.31062e-09
-1.4556e-07
4.55217e-09
9.35613e-09
-1.26778e-07
-1.6105e-07
-2.28927e-08
1.96687e-07
-1.46906e-07
9.92254e-09
-1.38877e-07
2.78373e-08
-1.29464e-07
3.88812e-08
-1.20011e-07
4.36465e-08
-1.09831e-07
3.64585e-08
-1.11995e-07
1.56611e-08
-1.10598e-07
-6.76078e-09
-8.20419e-08
-2.33529e-08
-1.81836e-08
-5.3854e-08
-1.98259e-07
-4.97412e-08
2.32846e-07
-1.62431e-07
-1.54561e-08
-1.29349e-07
-5.25435e-09
-9.81985e-08
7.72092e-09
-7.69273e-08
2.23666e-08
-5.62784e-08
1.58004e-08
-3.48747e-08
-5.75277e-09
-2.57386e-09
-4.16081e-08
4.00349e-08
-6.60193e-08
-4.46736e-08
6.54542e-08
-1.371e-07
-6.7198e-08
1.54988e-07
-1.19425e-07
-3.27251e-08
-9.25028e-08
-3.21056e-08
-4.96347e-08
-3.37388e-08
-6.33293e-09
-1.88418e-08
1.94363e-08
-8.33814e-09
3.02665e-08
-1.60984e-08
5.3194e-08
-6.15551e-08
7.02913e-08
-8.13047e-08
-5.84257e-08
8.56227e-08
-1.07874e-07
-7.57904e-08
1.18858e-07
-1.03353e-07
-3.49123e-08
-9.26209e-08
-3.9596e-08
-7.35937e-08
-4.85441e-08
-5.11632e-08
-3.84507e-08
-2.85962e-08
-3.04108e-08
-5.41056e-09
-3.81853e-08
2.53031e-09
-7.19979e-08
-3.87343e-09
-7.49165e-08
-4.48999e-08
-1.39883e-08
-9.75733e-08
-4.77437e-08
7.46786e-08
-1.00966e-07
-3.15202e-08
-1.07873e-07
-3.26894e-08
-1.15857e-07
-4.05611e-08
-1.12525e-07
-4.17855e-08
-9.3537e-08
-4.94198e-08
-7.33094e-08
-6.278e-08
-8.97186e-08
-6.39077e-08
-1.08932e-07
-5.79156e-08
-6.89086e-08
-8.89395e-08
-1.2474e-07
-1.68198e-08
9.3815e-08
-1.39649e-07
-1.66109e-08
-1.41596e-07
-3.07432e-08
-1.39692e-07
-4.24684e-08
-1.32392e-07
-5.20099e-08
-1.37521e-07
-6.06557e-08
-1.26987e-07
-7.33129e-08
-1.12461e-07
-7.84338e-08
-8.86409e-08
-8.17356e-08
-8.51245e-08
-7.24252e-08
-1.3661e-07
1.23155e-08
1.07473e-07
-1.51067e-07
-2.15405e-09
-1.45512e-07
-3.63081e-08
-1.51016e-07
-5.28399e-08
-1.42664e-07
-6.03621e-08
-1.30737e-07
-7.2583e-08
-1.15137e-07
-8.89122e-08
-9.41065e-08
-9.9465e-08
-6.55047e-08
-1.10338e-07
-1.13051e-07
-3.75801e-08
-1.6169e-07
2.06558e-08
1.55372e-07
-1.60999e-07
3.23174e-10
-1.62721e-07
-3.87622e-08
-1.54494e-07
-6.45401e-08
-1.34764e-07
-8.00951e-08
-1.10593e-07
-9.67585e-08
-8.51202e-08
-1.14386e-07
-5.30896e-08
-1.31496e-07
-1.57993e-08
-1.4763e-07
-1.48748e-07
1.98922e-08
-1.22156e-07
9.85882e-09
1.32969e-07
-1.06636e-07
-1.51766e-08
-8.89576e-08
-5.64275e-08
-7.01045e-08
-8.32556e-08
-5.05932e-08
-9.9459e-08
-3.17875e-08
-1.15581e-07
-1.03499e-08
-1.35832e-07
1.67054e-08
-1.58559e-07
3.97979e-08
-1.70729e-07
-1.68422e-07
5.94707e-08
-9.67272e-08
-7.52039e-09
1.14298e-07
-7.37139e-08
-3.72685e-08
-4.74737e-08
-8.20371e-08
-2.52156e-08
-1.04521e-07
-1.77681e-09
-1.22836e-07
1.92446e-08
-1.36608e-07
4.17397e-08
-1.58326e-07
6.35116e-08
-1.80331e-07
7.46504e-08
-1.81871e-07
-1.74416e-07
8.06418e-08
-6.24292e-08
-2.32173e-08
7.80126e-08
-3.61594e-08
-6.36497e-08
-1.42152e-08
-1.03144e-07
5.0338e-09
-1.24918e-07
2.08705e-08
-1.39226e-07
3.59584e-08
-1.51695e-07
5.53091e-08
-1.77677e-07
7.03091e-08
-1.95329e-07
7.78509e-08
-1.89411e-07
-1.73372e-07
7.73337e-08
-1.20448e-08
-3.60513e-08
2.45618e-08
-7.03759e-11
-7.72833e-08
7.02985e-09
-1.11995e-07
1.48254e-08
-1.33342e-07
2.37586e-08
-1.48158e-07
3.79613e-08
-1.65897e-07
5.37349e-08
-1.9345e-07
5.5661e-08
-1.9725e-07
4.27778e-08
-1.73458e-07
-1.41777e-07
1.69608e-08
-6.27568e-09
-3.53115e-08
5.9078e-09
-3.24017e-09
-7.97615e-08
3.44627e-10
-1.15597e-07
1.92536e-09
-1.34936e-07
2.69023e-09
-1.48928e-07
5.76337e-09
-1.6898e-07
-2.30461e-09
-1.85237e-07
-3.71797e-08
-1.58357e-07
-9.22461e-08
-1.13659e-07
-8.30537e-08
-1.50853e-07
1.37197e-08
-1.97331e-08
-2.7106e-08
3.14896e-09
-6.53176e-08
-1.9022e-09
-1.10195e-07
-9.84731e-09
-1.27008e-07
-2.59344e-08
-1.32854e-07
-5.18835e-08
-1.43044e-07
-9.98688e-08
-1.35783e-07
-1.63088e-07
-8.88283e-08
-2.25212e-07
-5.15346e-08
-3.52508e-08
-2.73014e-07
6.55202e-08
-2.63594e-08
-5.88899e-08
7.03176e-08
-6.71865e-08
5.38831e-08
-9.28166e-08
2.31087e-08
-9.62508e-08
-2.15586e-08
-8.82035e-08
-8.1392e-08
-8.32264e-08
-1.47315e-07
-6.78127e-08
-1.98454e-07
-3.31063e-08
-2.35436e-07
-1.45532e-08
-4.41581e-09
-2.66271e-07
1.13968e-07
-5.93675e-08
-7.97704e-08
1.28278e-07
-8.07397e-08
1.16212e-07
-8.07545e-08
8.88494e-08
-6.8901e-08
4.00125e-08
-3.93837e-08
-2.50205e-08
-1.82066e-08
-8.36334e-08
-9.20587e-09
-1.20572e-07
8.05484e-09
-1.54804e-07
1.96792e-08
2.12179e-08
-1.80438e-07
1.79505e-07
-7.86457e-08
-1.60166e-07
1.77171e-07
-7.8356e-08
1.63282e-07
-6.68331e-08
1.34926e-07
-4.05305e-08
1.01921e-07
-6.36074e-09
6.54305e-08
1.82764e-08
3.0152e-08
2.60703e-08
-3.59673e-09
4.18831e-08
-4.77554e-08
6.53718e-08
6.90405e-08
-9.23495e-08
1.90544e-07
-8.70165e-08
-1.81512e-07
1.90036e-07
-7.74877e-08
1.59117e-07
-3.74982e-08
1.11931e-07
9.7986e-09
7.96909e-08
2.71958e-08
6.09438e-08
3.7021e-08
4.45723e-08
4.24399e-08
3.04256e-08
5.5835e-08
1.84129e-08
7.76642e-08
9.12053e-08
-3.17593e-09
6.27013e-08
-6.49664e-08
-8.32914e-08
4.38507e-08
-6.05747e-08
4.00981e-08
-3.47387e-08
4.17031e-08
7.22589e-09
5.62968e-08
1.45267e-08
6.24139e-08
3.09022e-08
5.94234e-08
4.54282e-08
5.39466e-08
6.13098e-08
6.3452e-08
6.81542e-08
7.5235e-08
7.94153e-08
-9.45234e-08
-6.30123e-08
8.60423e-08
-8.94104e-08
-6.74776e-08
-5.44462e-08
-6.40025e-08
-4.88336e-09
-2.97533e-08
2.01108e-08
-7.2573e-09
2.82442e-08
2.12636e-08
2.63896e-08
4.72809e-08
2.50496e-08
6.26453e-08
3.04882e-08
6.27096e-08
7.03407e-08
3.53759e-08
-1.91828e-07
-6.24117e-08
2.01286e-07
-1.84724e-07
-4.54356e-08
-1.34531e-07
-4.60295e-08
-1.25869e-07
-3.84306e-08
-1.19527e-07
-1.36126e-08
-1.04373e-07
6.0825e-09
-8.2643e-08
1.27166e-08
-9.0292e-08
2.67351e-08
-9.20057e-08
4.58183e-08
6.42928e-08
-8.59648e-08
-2.20398e-07
-3.26281e-08
2.55398e-07
-2.41432e-07
-2.44104e-08
-2.62003e-07
-2.54681e-08
-2.75032e-07
-2.54108e-08
-2.69763e-07
-1.88961e-08
-2.48831e-07
-1.48794e-08
-2.15896e-07
-2.03484e-08
-1.61905e-07
-2.78262e-08
-1.50128e-07
6.11654e-09
1.71479e-08
-1.42892e-07
-2.35137e-07
-2.75039e-08
2.30004e-07
-2.35541e-07
-2.40135e-08
-2.3518e-07
-2.58387e-08
-2.26698e-07
-3.39086e-08
-1.99762e-07
-4.58608e-08
-1.8963e-07
-5.07056e-08
-2.18204e-07
-6.55313e-08
-2.00544e-07
-6.23191e-08
-1.4774e-07
-4.65283e-08
-3.8874e-08
-8.96596e-08
-1.55812e-07
-5.20394e-08
1.80335e-07
-1.35857e-07
-4.39777e-08
-1.20997e-07
-4.07488e-08
-1.30468e-07
-7.85524e-08
-1.08045e-07
-8.28297e-08
-7.50519e-08
-8.30856e-08
-5.09277e-08
-8.90753e-08
-2.49634e-08
-8.76698e-08
8.18552e-09
-7.89644e-08
-7.52426e-08
4.54894e-08
-4.19493e-08
-1.026e-07
9.24772e-08
-1.43688e-08
-7.16143e-08
-6.14941e-09
-6.14428e-08
1.40431e-08
-9.85576e-08
4.50769e-08
-1.12995e-07
7.43007e-08
-1.12115e-07
9.42554e-08
-1.04487e-07
1.16086e-07
-1.00343e-07
1.4785e-07
-9.07184e-08
-8.46732e-08
1.67071e-07
-1.10854e-08
-1.78201e-07
5.18579e-08
3.68539e-08
-1.54236e-07
9.68657e-08
-1.36099e-07
1.28313e-07
-1.37845e-07
1.43474e-07
-1.36979e-07
1.3702e-07
-1.02382e-07
1.28469e-07
-8.85479e-08
1.56613e-07
-9.79054e-08
1.72609e-07
-1.07886e-07
-1.11397e-07
1.98694e-07
-5.72065e-08
-2.37631e-07
1.16638e-07
1.46386e-08
-2.26081e-07
9.62674e-08
-2.17727e-07
1.65773e-07
-2.0735e-07
1.40711e-07
-1.7118e-07
1.59263e-07
-1.24662e-07
1.78323e-07
-1.09763e-07
1.85414e-07
-1.07152e-07
2.02932e-07
-1.27086e-07
-1.46705e-07
2.37193e-07
-4.1079e-08
-2.82039e-07
8.94919e-08
1.72012e-08
-2.8436e-07
7.18112e-08
-2.72336e-07
1.16228e-07
-2.51766e-07
1.47385e-07
-2.14713e-07
1.50977e-07
-1.77604e-07
1.56903e-07
-1.57658e-07
2.05683e-07
-1.58088e-07
2.71228e-07
-1.94477e-07
-2.24246e-07
3.32798e-07
7.86049e-08
-2.84029e-07
-6.74411e-08
8.62003e-08
-2.91954e-07
9.75064e-08
-2.83642e-07
1.1247e-07
-2.6673e-07
1.29878e-07
-2.32597e-07
1.54622e-07
-2.11576e-07
2.00792e-07
-2.02502e-07
2.36155e-07
-2.13098e-07
2.88416e-07
-2.45327e-07
-2.63987e-07
3.29692e-07
1.1319e-07
-2.86225e-07
-1.19652e-07
1.06942e-07
-2.86003e-07
1.01541e-07
-2.78239e-07
1.06447e-07
-2.71637e-07
1.09587e-07
-2.35209e-07
1.47883e-07
-2.29438e-07
1.94525e-07
-2.46339e-07
2.45971e-07
-2.63014e-07
2.84607e-07
-2.83065e-07
-2.88092e-07
3.10216e-07
8.77002e-08
-2.6982e-07
-1.04066e-07
6.47476e-08
-2.63587e-07
4.95414e-08
-2.63098e-07
5.31886e-08
-2.75431e-07
8.10082e-08
-2.69134e-07
1.38914e-07
-2.90373e-07
1.76047e-07
-2.86605e-07
2.17872e-07
-2.73868e-07
2.33866e-07
-2.69733e-07
-2.54248e-07
2.23846e-07
-4.44348e-08
-2.1154e-07
-7.26374e-10
-6.77833e-08
-2.32982e-07
-4.80908e-08
-2.78587e-07
-2.54428e-09
-3.24398e-07
4.15187e-08
-3.23511e-07
8.71511e-08
-3.47961e-07
1.3278e-07
-3.2275e-07
1.53673e-07
-2.93956e-07
1.58642e-07
-2.78644e-07
-2.61498e-07
1.61922e-07
-1.85538e-07
-2.00294e-07
1.73037e-07
-1.53068e-07
-2.6752e-07
-1.04307e-07
-3.37703e-07
-4.27765e-08
-3.85401e-07
2.24028e-08
-3.87241e-07
5.84851e-08
-3.58034e-07
8.57779e-08
-3.34824e-07
9.88949e-08
-3.06219e-07
1.15504e-07
-2.97917e-07
-3.08302e-07
1.41886e-07
-2.47779e-07
-2.51079e-07
2.46138e-07
-2.01894e-07
-3.11449e-07
-1.48071e-07
-3.89817e-07
-9.94892e-08
-4.32644e-07
-5.1147e-08
-4.22923e-07
-2.2129e-08
-3.68467e-07
-7.9803e-09
-3.71008e-07
6.04608e-09
-3.81405e-07
3.20102e-08
-3.7008e-07
-3.70742e-07
6.67516e-08
-2.68891e-07
-2.82024e-07
2.99167e-07
-2.61348e-07
-3.16484e-07
-2.5588e-07
-3.88965e-07
-2.322e-07
-4.54615e-07
-1.843e-07
-4.66668e-07
-1.21202e-07
-4.20363e-07
-9.52843e-08
-4.60511e-07
-6.90131e-08
-4.18585e-07
-3.3277e-08
-4.05778e-07
-4.1217e-07
8.18935e-09
-2.58676e-07
-2.4648e-07
2.76788e-07
-2.55345e-07
-2.04974e-07
-2.82672e-07
-2.74183e-07
-2.91649e-07
-4.0211e-07
-2.63089e-07
-4.89242e-07
-2.43372e-07
-5.15145e-07
-1.94223e-07
-5.09492e-07
-1.48054e-07
-4.64697e-07
-1.06998e-07
-4.46797e-07
-4.46343e-07
-7.27862e-08
-1.85547e-07
-2.08983e-07
2.44627e-07
-2.07088e-07
-1.8548e-07
-2.27624e-07
-2.5549e-07
-2.31901e-07
-3.29737e-07
-2.85736e-07
-3.79997e-07
-2.79963e-07
-5.08093e-07
-2.53621e-07
-5.3679e-07
-2.15214e-07
-5.02937e-07
-1.88927e-07
-4.73026e-07
-4.69936e-07
-1.65274e-07
-1.19579e-07
-2.23116e-07
1.54822e-07
-1.28515e-07
-1.78385e-07
-1.52433e-07
-2.33426e-07
-1.80359e-07
-3.03681e-07
-2.15241e-07
-3.46167e-07
-2.30886e-07
-3.73793e-07
-2.66234e-07
-4.14069e-07
-2.48697e-07
-5.0452e-07
-2.18308e-07
-5.03165e-07
-4.88275e-07
-1.96459e-07
1.95997e-09
-2.64844e-07
-3.0506e-09
-4.26309e-09
-1.87092e-07
-3.45258e-08
-2.05033e-07
-8.28514e-08
-2.56407e-07
-1.25867e-07
-3.0446e-07
-1.605e-07
-3.41641e-07
-1.80873e-07
-3.77658e-07
-1.94114e-07
-3.9785e-07
-1.88094e-07
-4.84494e-07
-4.80195e-07
-1.90042e-07
1.00608e-07
-2.54328e-07
-1.10978e-07
9.07085e-08
-2.65669e-07
7.76655e-08
-2.97394e-07
6.91233e-08
-2.86172e-07
3.18962e-08
-2.9992e-07
-2.47894e-08
-2.8629e-07
-7.71877e-08
-3.26264e-07
-1.17475e-07
-3.59479e-07
-1.28518e-07
-4.4085e-07
-4.84582e-07
-1.34952e-07
1.37794e-07
-2.63034e-07
-1.29428e-07
1.65888e-07
-2.94203e-07
1.89832e-07
-3.22495e-07
1.90896e-07
-3.48215e-07
1.65958e-07
-3.65739e-07
1.01854e-07
-3.73419e-07
6.51313e-08
-3.02368e-07
1.33696e-08
-3.09593e-07
-3.43419e-08
-3.66867e-07
-4.81525e-07
-5.13599e-08
1.31589e-07
-2.99262e-07
-9.50333e-08
1.69141e-07
-3.31702e-07
2.02107e-07
-3.5545e-07
2.20693e-07
-3.66794e-07
2.2468e-07
-3.6972e-07
2.19214e-07
-3.67946e-07
1.52181e-07
-3.61073e-07
1.18493e-07
-2.77741e-07
7.46917e-08
-3.06533e-07
-4.21876e-07
1.77882e-08
1.42093e-07
-2.92201e-07
-1.09768e-07
1.7382e-07
-3.61684e-07
1.98941e-07
-3.80527e-07
2.17768e-07
-3.85611e-07
2.27977e-07
-3.79924e-07
2.28278e-07
-3.68238e-07
1.93846e-07
-3.52331e-07
1.53049e-07
-2.493e-07
1.18393e-07
-2.83963e-07
-3.72555e-07
6.94617e-08
1.55602e-07
-2.76352e-07
-1.33822e-07
1.84398e-07
-3.33294e-07
1.95e-07
-3.90914e-07
2.03023e-07
-3.93609e-07
2.10498e-07
-3.8739e-07
2.04722e-07
-3.62438e-07
1.74379e-07
-3.3036e-07
1.19016e-07
-2.02249e-07
1.2207e-07
-2.91968e-07
-3.54286e-07
1.0389e-07
1.8192e-07
-2.70987e-07
-1.9147e-07
1.95809e-07
-2.99356e-07
2.08118e-07
-3.67549e-07
2.07999e-07
-3.93406e-07
2.08212e-07
-3.87578e-07
1.84342e-07
-3.45457e-07
1.18957e-07
-2.74624e-07
1.34148e-07
-2.09118e-07
1.49573e-07
-2.93391e-07
-3.5177e-07
1.47147e-07
2.35154e-07
-2.59467e-07
-2.49926e-07
2.15937e-07
-2.84757e-07
2.55649e-07
-3.52342e-07
2.47315e-07
-3.84848e-07
2.36904e-07
-3.77082e-07
1.9267e-07
-3.41211e-07
1.53857e-07
-2.54803e-07
2.04563e-07
-2.25142e-07
2.1135e-07
-2.79763e-07
-3.44431e-07
2.04123e-07
3.12785e-07
-2.54334e-07
-3.20406e-07
2.94899e-07
-2.70172e-07
3.23925e-07
-3.40864e-07
3.02864e-07
-3.63413e-07
2.78395e-07
-3.52389e-07
2.54113e-07
-3.16638e-07
1.99341e-07
-2.79993e-07
2.32614e-07
-2.36785e-07
2.58604e-07
-2.93256e-07
-3.53568e-07
2.67864e-07
3.69324e-07
-2.41908e-07
-3.87319e-07
3.82633e-07
-2.62752e-07
3.93121e-07
-3.33941e-07
3.72599e-07
-3.42411e-07
3.49147e-07
-3.28546e-07
3.34699e-07
-3.01944e-07
3.07932e-07
-2.89711e-07
3.05682e-07
-2.92173e-07
3.38709e-07
-3.24784e-07
-3.67826e-07
3.53024e-07
4.46197e-07
-2.41106e-07
-4.57413e-07
4.72959e-07
-2.78996e-07
4.48581e-07
-3.09072e-07
4.21873e-07
-3.15304e-07
3.97763e-07
-3.03957e-07
3.92399e-07
-2.91801e-07
3.9238e-07
-2.90528e-07
4.15439e-07
-3.15489e-07
4.45175e-07
-3.54601e-07
-3.68002e-07
4.45332e-07
5.16515e-07
-2.5361e-07
-5.27078e-07
5.03875e-07
-2.63253e-07
4.70207e-07
-2.7437e-07
4.31562e-07
-2.76168e-07
4.05394e-07
-2.81048e-07
3.95478e-07
-2.83118e-07
4.19096e-07
-3.07499e-07
4.65084e-07
-3.61452e-07
4.87575e-07
-3.7741e-07
-3.6254e-07
4.82018e-07
5.07612e-07
-2.26244e-07
-5.34639e-07
4.66988e-07
-2.22166e-07
4.1259e-07
-2.09261e-07
3.87688e-07
-2.35485e-07
3.77892e-07
-2.62672e-07
3.97896e-07
-3.04815e-07
4.45737e-07
-3.60496e-07
4.86886e-07
-4.02715e-07
4.94214e-07
-3.8504e-07
-2.96252e-07
4.2764e-07
4.23521e-07
-1.57918e-07
-5.08625e-07
3.26364e-07
-9.68133e-08
3.09278e-07
-1.47468e-07
3.04853e-07
-2.28897e-07
3.37392e-07
-3.02608e-07
3.90291e-07
-3.64185e-07
4.37894e-07
-4.08089e-07
4.43846e-07
-4.08951e-07
3.43314e-07
-2.85356e-07
-8.57968e-08
1.26879e-07
2.12821e-07
-1.76648e-08
-3.80696e-07
1.25289e-07
-1.93983e-08
1.84016e-07
-1.65174e-07
2.37209e-07
-2.86625e-07
2.87652e-07
-3.53054e-07
3.08468e-07
-3.85e-07
3.11167e-07
-4.10791e-07
2.48496e-07
-3.4627e-07
4.16634e-08
-7.15959e-08
3.46071e-08
-9.0716e-08
1.02971e-08
6.67676e-08
-1.00039e-07
1.88779e-08
-2.5081e-08
7.65025e-08
-2.23275e-07
1.19722e-07
-3.29845e-07
1.29305e-07
-3.62639e-07
1.2982e-07
-3.85513e-07
1.31921e-07
-4.1289e-07
3.53627e-08
-2.15251e-07
2.00067e-09
-2.19778e-08
1.12168e-08
4.04375e-08
-1.29315e-07
5.56446e-08
1.60092e-07
-8.24573e-08
-6.53054e-08
-2.05065e-08
-2.85286e-07
5.34585e-09
-3.55698e-07
1.4823e-08
-3.72117e-07
1.92742e-08
-3.89968e-07
1.1297e-08
-4.01383e-07
1.34718e-09
-1.78433e-07
-3.21106e-09
-4.05192e-09
6.07148e-09
1.19471e-08
-3.67104e-08
2.60867e-08
5.13355e-08
-3.84813e-08
-5.773e-08
-3.11719e-08
-2.95439e-07
-2.10839e-08
-3.65786e-07
-3.23477e-08
-3.60854e-07
-6.17644e-08
-3.60551e-07
-9.00715e-08
-3.68284e-07
-2.0681e-08
-2.20223e-07
-1.14246e-08
-1.8029e-09
1.01088e-09
-3.23797e-09
-8.63503e-09
5.74288e-09
3.60631e-08
3.77326e-08
-9.70206e-08
4.40853e-08
-3.07918e-07
1.76498e-09
-3.23467e-07
-3.89711e-08
-3.20118e-07
-7.74691e-08
-3.22053e-07
-1.2749e-07
-3.18251e-07
-4.7044e-08
-2.76496e-07
-1.0589e-10
-4.23194e-08
8.55567e-10
3.04676e-11
2.10906e-08
-2.0218e-08
0
1.14078e-07
-1.98321e-07
7.79437e-08
-2.72958e-07
3.04504e-08