/*--------------------------------*- C++ -*----------------------------------*\
  =========                 |
  \\      /  F ield         | OpenFOAM: The Open Source CFD Toolbox
   \\    /   O peration     | Website:  https://openfoam.org
    \\  /    A nd           | Version:  8
     \\/     M anipulation  |
\*---------------------------------------------------------------------------*/
FoamFile
{
    version     2.0;
    format      ascii;
    class       volScalarField;
    location    "9";
    object      p;
}
// * * * * * * * * * * * * * * * * * * * * * * * * * * * * * * * * * * * * * //

dimensions      [1 -1 -2 0 0 0 0];

internalField   nonuniform List<scalar> 
9150
(
-206.096
-207.114
-207.735
-208.198
-208.436
-208.433
-208.191
-207.723
-207.101
-206.08
-226.149
-226.669
-227.089
-227.411
-227.577
-227.575
-227.397
-227.079
-226.658
-226.136
-246.04
-246.325
-246.578
-246.792
-246.9
-246.9
-246.791
-246.57
-246.316
-246.029
-265.778
-265.954
-266.121
-266.279
-266.361
-266.353
-266.275
-266.116
-265.947
-265.769
-285.399
-285.58
-285.716
-285.843
-285.905
-285.905
-285.845
-285.712
-285.574
-285.392
-120.187
-120.956
-120.64
-120.239
-120.038
-120.026
-120.195
-120.572
-120.859
-120.053
-135.649
-136.356
-136.478
-136.546
-136.434
-136.426
-136.507
-136.417
-136.278
-135.566
-152.081
-152.845
-153.131
-153.496
-153.537
-153.522
-153.459
-153.078
-152.794
-152.04
-168.911
-170.077
-170.534
-171.16
-171.332
-171.325
-171.163
-170.524
-170.076
-168.909
-185.947
-188.021
-188.777
-189.473
-189.755
-189.752
-189.467
-188.76
-188.002
-185.925
-27.2802
-29.4816
-31.4577
-32.3091
-32.3799
-31.8065
-30.694
-29.0624
-26.5792
-24.4817
-47.4831
-47.9341
-48.9145
-49.0517
-49.3057
-49.0316
-48.2862
-47.6549
-46.339
-45.7787
-67.4603
-67.1932
-68.2791
-67.6404
-68.2326
-67.8791
-67.2814
-67.5159
-66.3474
-66.4198
-90.0426
-87.1216
-88.2165
-86.4168
-86.6502
-86.4827
-86.354
-87.6911
-86.7036
-89.4975
-115.532
-105.948
-105.506
-104.007
-103.596
-103.55
-103.942
-105.256
-105.72
-115.222
1753.09
1753.26
1753.44
1753.57
1753.65
1753.69
1753.76
1753.83
1753.87
1753.92
1733.47
1733.67
1733.83
1733.95
1734.18
1734.11
1734.24
1734.32
1734.32
1734.35
1713.58
1713.99
1714.29
1714.48
1714.83
1714.82
1715.02
1714.9
1714.9
1714.91
1694.11
1694.68
1695.04
1695.24
1695.58
1695.57
1695.8
1695.49
1695.59
1695.54
1675.49
1676.01
1676.29
1676.27
1676.46
1676.53
1676.62
1676.56
1676.42
1676.02
1657.08
1657.4
1657.43
1657.59
1657.65
1657.61
1657.73
1657.43
1657.32
1657.16
1638.29
1638.25
1638.38
1638.43
1638.43
1638.63
1638.47
1638.32
1638.15
1637.8
1618.38
1618.5
1618.67
1618.78
1618.94
1618.94
1618.94
1618.95
1618.78
1618.37
1598.52
1598.77
1598.95
1599.24
1599.11
1599.08
1599
1598.89
1599.22
1598.4
1578.97
1579.17
1579.49
1579.44
1579.43
1579.36
1579.24
1579.04
1578.91
1580.48
1559.5
1559.77
1559.86
1559.87
1559.91
1559.91
1559.89
1559.85
1559.84
1560.32
1540.26
1540.34
1540.38
1540.39
1540.47
1540.54
1540.62
1540.68
1540.74
1540.96
1520.95
1520.99
1521.03
1520.96
1521
1521.1
1521.23
1521.39
1521.67
1521.86
1501.35
1501.31
1501.49
1501.37
1501.43
1501.58
1501.75
1501.94
1502.13
1502.32
1481.34
1481.38
1481.46
1481.58
1481.72
1481.9
1482.1
1482.31
1482.52
1482.72
1461.01
1461.14
1461.44
1461.71
1461.97
1462.2
1462.44
1462.69
1462.94
1463.16
1440.84
1441.65
1441.46
1441.83
1442.12
1442.47
1442.84
1443.23
1443.56
1443.8
1420.92
1421.72
1422.01
1421.94
1422.41
1422.76
1423.4
1423.69
1423.97
1424.24
1400.94
1401.52
1402.24
1402.79
1403.23
1403.57
1403.75
1404.29
1404.82
1405.01
1381.27
1381.71
1382.19
1382.49
1382.42
1382.88
1383.4
1383.95
1384.61
1385.47
1361.36
1361.42
1361.69
1361.75
1361.88
1362.06
1362.3
1362.49
1362.93
1363.68
1340.89
1340.85
1340.71
1340.63
1340.71
1340.95
1341.29
1341.49
1342.69
1344.27
1320.3
1319.87
1319.55
1319.56
1319.73
1320.12
1321.15
1321.59
1322.19
1322.56
1298.96
1298.45
1298.15
1298.15
1297.99
1298.49
1299.01
1299.52
1299.94
1301.1
1278.2
1277.87
1277.71
1277.96
1278.47
1277.64
1279.25
1277.42
1278.46
1279.17
1259.4
1258.13
1259.74
1259.84
1259.8
1259.12
1257.56
1258.42
1258.07
1257.78
1237.62
1238.16
1238.88
1240.75
1241.48
1241.05
1242.98
1241.01
1242.43
1243.42
1218.12
1218.91
1219.88
1220.91
1221.89
1223
1223.49
1223.54
1224.63
1225.69
1201.25
1201.52
1202.33
1203.33
1204.75
1205.56
1206.37
1206.96
1207.54
1208.26
1185.31
1185.88
1186.4
1187.06
1187.63
1188.15
1188.66
1189.12
1189.47
1189.71
1168.94
1169.25
1169.69
1170.19
1170.68
1170.98
1171.21
1171.6
1172
1172.2
1152.04
1152.39
1152.74
1153.28
1153.74
1153.99
1154.19
1154.84
1155.45
1156
1134.65
1135.02
1135.53
1136.19
1136.75
1137.38
1137.84
1138.47
1138.72
1138.93
1116.78
1117.16
1118.06
1118.94
1119.51
1120.6
1121.38
1121.84
1121.92
1122.04
1098.54
1099.03
1099.57
1100.06
1102.29
1102.14
1104.73
1105.29
1105.36
1107.13
1080.15
1080.71
1081.33
1081.51
1086.35
1085.04
1087.95
1087.09
1089.78
1091.02
1061.76
1062.28
1063.01
1064.14
1066.18
1066.9
1067.85
1070.89
1070.33
1068.93
1043.79
1044.73
1045.8
1046.59
1047.17
1048.36
1048.09
1048.13
1048.48
1048.96
1026.48
1026.7
1027.12
1028.76
1029.35
1029.5
1029.41
1029.2
1028.97
1029.91
1007.46
1008.94
1009.14
1009.4
1010.16
1010.02
1010.12
1009.27
1009.72
1010.19
988.215
989.405
989.684
990.002
989.7
990.305
990.753
990.965
991.115
991.606
971.974
972.07
972.332
972.424
972.144
971.647
971.54
970.588
971.828
972.045
953.238
954.525
955.307
955.612
955.223
954.547
953.613
952.72
952.693
952.538
934.587
936.317
937.19
937.458
936.344
934.922
934.408
933.987
933.211
932.809
913.963
914.537
915.372
915.695
915.782
916.374
916.868
915.472
915.049
916.134
894.771
895.396
895.991
896.445
896.993
897.852
897.95
897.353
897.689
898.004
876.151
876.458
876.9
877.257
877.459
877.129
877.878
878.324
878.534
878.525
857.15
857.582
857.527
856.793
857.304
857.477
857.748
858.178
858.64
858.912
836.372
835.582
835.62
834.991
835.427
835.835
836.323
836.937
837.645
838.341
814.819
814.041
814.117
814.416
814.739
815.04
815.481
816.063
816.572
817.043
794.657
794.26
794.291
794.91
794.879
795.182
795.461
795.721
795.962
795.93
774.528
774.915
775.02
775.613
775.848
775.982
775.964
775.648
775.128
774.415
756.069
756.277
756.609
757.287
757.656
757.721
757.341
756.318
754.948
753.665
737.135
737.726
738.567
739.722
740.359
740.988
740.716
739.619
738.805
737.752
719.316
719.731
720.822
722.676
724.311
725.413
725.503
724.759
723.959
722.714
703.6
703.358
704.338
706.895
709.136
710.698
711.139
710.694
708.881
706.569
686.164
685.944
687.391
689.472
691.912
693.585
694.077
692.946
690.798
688.031
667.503
667.174
667.599
668.683
670.059
670.877
671.073
670.685
670.175
667.689
646.889
645.114
644.107
645.259
645.772
646.61
646.988
647.034
646.686
645.339
626.512
624.1
623.073
622.959
623.084
624.236
624.905
625.533
625.822
625.573
608.501
606.3
602.913
601.362
601.427
601.999
603.534
605.032
606.5
607.589
592.319
590.371
588.546
588.253
586.174
587.242
589.39
587.945
589.47
591.931
578.473
577.93
577.208
577.243
577.896
579.39
581.546
583.558
583.161
580.218
564.409
564.226
563.924
564.168
564.898
564.91
563.403
565.626
565.272
563.82
550.572
550.139
549.011
548.74
551.313
550.057
549.088
548.528
547.544
544.755
538.379
538.525
535.439
532.363
531.712
531.186
529.068
527.144
525.238
522.49
515.816
517.078
516.134
515.859
511.191
510.224
509.823
509.42
508.303
506.883
494.822
496.59
497.525
496.689
494.691
495.785
494.998
493.782
492.43
491.402
468.092
471.812
473.635
474.245
474.161
474.034
475.162
476.727
474.991
471.205
445.441
448.222
449.706
450.457
451.19
451.21
451.265
451.105
450.161
448.055
423.766
425.52
426.833
427.683
428.985
431.459
429.47
428.333
426.273
423.604
404.265
405.887
407.14
407.556
408.814
408.95
406.698
404.984
401.799
398.479
385.923
386.982
388.889
389.332
388.726
386.822
383.471
383.05
380
377.406
366.006
368.529
369.301
368.451
366.516
363.517
360.674
359.624
357.66
354.269
338.953
341.186
342.037
341.481
339.178
338.068
336.927
332.243
331.141
330.649
307.284
310.18
311.9
310.588
307.524
311.484
307.965
307.091
306.985
305.656
273.306
277.968
278.256
276.323
279.115
280.757
282.006
282.214
282.295
281.174
248.273
250.704
250.474
250.236
252.228
255.463
257.604
259.685
260.203
259.633
226.531
226.704
225.23
226.819
229.452
231.56
235.189
239.387
242.312
243.528
213.999
211.955
207.676
209.787
213.608
217.402
221.419
224.413
227.093
229.92
204.008
198.397
197.863
198.116
200.229
205.498
210.771
214.807
216.769
219.154
186.824
188.471
190.393
192.277
194.603
196.453
200.683
206.433
205.934
210.238
173.409
175.678
178.224
180.976
183.321
185.456
187.17
202.021
199.868
204.95
155.846
158.689
162.784
166.43
169.472
172.411
175.586
195.343
191.67
194.282
142.618
143.092
147.484
152.132
156.563
160.781
164.058
186.247
174.516
177.457
126.629
130.213
134.256
139.548
144.601
148.96
153.493
168.75
158.071
161.569
116.483
119.819
123.082
127.805
132.7
135.787
141.799
146.522
142.084
145.982
107.548
110.311
112.677
116.558
120.326
123.327
127.249
134.493
128.026
130.356
99.4069
101.459
101.707
104.682
107.285
108.83
109.912
113.81
111.222
113.596
93.6933
89.4036
91.2051
93.2084
94.6105
95.4455
94.6062
94.2521
94.5288
95.8761
80.7642
81.5949
83.1742
83.0777
82.2047
81.1972
78.695
76.7749
74.8333
74.1917
75.2678
76.839
77.2829
75.7496
72.1353
68.0491
63.692
58.0886
52.1431
47.1747
68.9905
76.9165
76.9859
70.3238
64.3845
57.2969
49.1962
39.2607
29.8256
25.7806
64.7198
75.2468
68.3612
63.6488
53.9415
43.3326
31.5122
17.0152
15.5507
19.0157
49.4293
56.4346
54.7917
47.1258
36.9079
25.3543
12.2935
0.0532573
0.551385
-3.2271
16.5524
20.106
21.3676
19.455
14.6305
9.46985
-0.8163
-8.9516
-3.89253
-4.75654
4.21753
10.5275
-4.17131
0.317834
1.47463
0.571379
-4.56903
-7.66535
-2.58636
-3.6065
-10.3415
-9.13533
-12.2167
-5.86871
-3.8544
-3.6259
-4.58546
-5.29243
-1.90412
-1.83902
-3.20309
-12.0653
-13.4865
-10.7406
-8.81049
-7.96515
-7.60839
-6.7384
-3.91558
-1.84683
-6.46567
-15.1499
-17.5681
-18.5656
-18.6608
-17.9736
-16.3072
-13.6762
-9.89034
-2.54257
1753.7
1753.76
1753.79
1753.79
1753.75
1753.7
1753.64
1753.59
1753.52
1753.48
1753.43
1753.36
1753.28
1753.14
1752.97
1752.81
1752.65
1752.65
1752.57
1752.48
1752.61
1752.69
1752.66
1752.91
1753.17
1753.55
1753.76
1753.95
1754.18
1754.47
1754.75
1754.98
1755.2
1755.35
1755.44
1755.54
1755.61
1755.72
1755.78
1755.8
1734.2
1734.19
1734.18
1734.16
1734.13
1734.12
1734.09
1734.01
1733.9
1733.87
1733.8
1733.85
1733.88
1733.75
1733.57
1733.22
1732.98
1732.83
1732.79
1732.82
1732.82
1732.84
1732.92
1733.34
1733.74
1734.11
1734.08
1734.26
1734.5
1734.79
1735.09
1735.4
1735.6
1735.86
1735.88
1735.95
1736.05
1736.11
1736.14
1736.19
1714.76
1714.72
1714.69
1714.64
1714.59
1714.5
1714.42
1714.47
1714.51
1714.47
1714.44
1714.54
1714.35
1714.09
1713.73
1713.52
1713.32
1713.17
1713
1712.92
1712.97
1713.35
1714.14
1714.44
1714.37
1714.55
1714.68
1714.81
1715.02
1715.25
1715.57
1715.86
1716.23
1716.39
1716.48
1716.53
1716.57
1716.62
1716.62
1716.65
1695.37
1695.3
1695.11
1695.04
1695.25
1695.25
1695.34
1695.14
1694.77
1694.5
1694.65
1695.06
1695.46
1695.38
1695
1695.45
1695.14
1694.66
1694.37
1694.25
1694.34
1694.47
1693.81
1694.3
1694.54
1694.82
1695.1
1695.4
1695.72
1695.99
1696.28
1696.64
1696.85
1697.07
1696.92
1696.94
1696.97
1697.03
1697.08
1697.1
1675.78
1675.67
1675.65
1675.89
1675.95
1675.59
1675.46
1675.36
1675.34
1675.38
1676.08
1676.09
1675.64
1675.23
1675.04
1675.05
1674.87
1674.58
1674.08
1674.52
1674.6
1674.79
1674.81
1674.63
1674.82
1675.07
1675.38
1675.76
1676.25
1676.57
1676.98
1677.5
1677.77
1677.73
1678.31
1678.27
1677.74
1677.66
1677.72
1677.71
1656.89
1656.44
1656.14
1656.09
1656.06
1655.99
1655.82
1655.52
1655.61
1655.57
1655.64
1655.46
1655.32
1655.08
1654.96
1654.75
1654.54
1654.31
1654.17
1654.11
1654.14
1654.41
1654.65
1654.74
1654.83
1655.08
1656.06
1657.22
1657.76
1658.25
1658.55
1658.75
1658.52
1658.59
1658.4
1658.91
1658.49
1658.32
1658.36
1658.33
1637.4
1637.16
1636.67
1636.32
1636
1635.77
1635.56
1635.48
1636.23
1636.41
1635.07
1634.86
1634.61
1634.63
1634.65
1634.49
1634.09
1633.76
1633.5
1633.74
1633.9
1634.03
1634.61
1635.27
1635.37
1635.64
1636.95
1637.9
1638.66
1638.74
1639.29
1639.4
1639.25
1639.06
1638.81
1638.35
1638.54
1638.7
1638.76
1638.75
1617.62
1617.08
1616.55
1616.09
1615.8
1615.51
1615.16
1615.01
1615.05
1615.35
1614.51
1613.59
1612.68
1612.27
1612.41
1612.97
1613.41
1613.51
1613.64
1614.15
1614.35
1614.77
1615.36
1615.81
1615.86
1616.34
1617.01
1617.67
1618.26
1618.77
1619.21
1619.36
1619.33
1619.2
1618.96
1619.42
1619.78
1619.33
1619.39
1619.42
1597.25
1596.5
1596
1595.58
1595.3
1594.93
1594.62
1594.6
1594.46
1594.33
1593.76
1592.77
1593.62
1593.41
1592.21
1593.08
1592.77
1592.64
1593.78
1594.46
1594.32
1594.79
1595.41
1596.13
1596.77
1596.74
1597.31
1597.71
1598.09
1598.47
1598.81
1599.07
1599.26
1599.33
1599.36
1599.92
1600.68
1600.89
1600.83
1600.9
1578.31
1575.7
1574.84
1574.37
1574.28
1574.25
1573.71
1572.91
1573.24
1573.74
1574.03
1574.4
1574.85
1573.86
1572.83
1573.29
1574.23
1573.77
1574.23
1574.2
1574.24
1574.91
1575.36
1575.63
1576.07
1576.51
1576.89
1577.26
1577.65
1577.97
1578.24
1578.51
1578.88
1579.26
1579.67
1580.23
1580.76
1581
1581.3
1581.82
1559.18
1557.83
1556.22
1555.5
1555.4
1554.99
1555.35
1555.22
1553.36
1553.4
1554.36
1554.71
1554.85
1555.3
1555.63
1555.45
1555.3
1554.96
1554.81
1555.23
1554.33
1554.46
1554.8
1555.19
1555.76
1556.26
1556.69
1557.04
1557.39
1557.62
1557.83
1558.07
1558.41
1558.89
1559.45
1560.07
1560.63
1561.28
1561.75
1562.31
1541.07
1540.21
1539.18
1539.35
1539.31
1538.89
1538.1
1537.01
1535.86
1535.8
1535.42
1535.88
1536.33
1536.25
1535.69
1536.53
1536.79
1536.85
1536.99
1536.95
1536.86
1536.66
1535.52
1535.55
1535.86
1536.25
1536.67
1537.07
1537.36
1537.53
1537.69
1537.87
1538.1
1538.6
1539.35
1540.15
1540.78
1541.06
1541.46
1542.15
1522.07
1521.68
1521.21
1520.64
1520.11
1519.64
1519.67
1519.09
1518.25
1517.42
1516.61
1516.28
1516.6
1516.54
1516.47
1516.31
1516.38
1516.39
1516.08
1516.03
1515.82
1515.99
1515.92
1516.24
1516.03
1516.52
1517.05
1517.62
1518.04
1518.29
1518.44
1518.6
1518.9
1519.34
1519.85
1520.27
1520.55
1521.26
1520.99
1521.57
1502.51
1502.55
1502.43
1502.18
1502
1501.82
1501.35
1500.83
1500.53
1499.87
1499.16
1498.42
1497.11
1496.46
1496.45
1496.46
1496.49
1496.62
1496.66
1496.48
1496.89
1496.64
1496.79
1496.93
1497.53
1497.91
1498.52
1498.95
1499.28
1499.47
1499.68
1499.85
1500.09
1500.47
1500.87
1501.13
1501.33
1502.35
1502.32
1502.49
1482.89
1482.99
1483.02
1482.99
1482.98
1482.88
1482.78
1482.69
1482.31
1482
1481.93
1481.31
1480.73
1480.27
1478.71
1478.14
1478.29
1477.86
1478.21
1478.18
1478.4
1478.4
1478.6
1478.8
1479.08
1479.48
1479.9
1480.13
1480.47
1480.62
1480.83
1481.01
1481.22
1481.52
1481.92
1482.24
1482.58
1483.13
1483.25
1483.84
1463.37
1463.56
1463.69
1463.72
1463.73
1463.72
1463.7
1463.69
1463.71
1463.56
1463.17
1462.63
1463.06
1463.14
1460.33
1459.82
1459.43
1459.16
1459.34
1459.53
1459.71
1459.91
1460.11
1460.38
1460.64
1460.85
1461.2
1461.65
1461.67
1461.84
1462.16
1462.17
1462.32
1462.59
1463.05
1463.52
1464.06
1464.46
1464.66
1465.52
1443.99
1444.22
1444.38
1444.44
1444.48
1444.43
1444.41
1444.45
1444.59
1444.68
1444.52
1444
1443.18
1442.3
1441.75
1441.42
1441.21
1441.15
1441.57
1441.6
1441.27
1441.37
1441.49
1441.66
1441.85
1442.08
1442.33
1442.52
1442.93
1443.1
1443.24
1443.44
1443.71
1444.05
1444.61
1445.17
1445.69
1446.05
1446.28
1447.46
1424.6
1425.04
1425.3
1425.33
1425.23
1425.01
1424.95
1424.9
1424.98
1425.18
1425.23
1424.8
1423.97
1423.21
1422.68
1422.35
1422.19
1422.13
1422.16
1422.22
1422.3
1422.46
1422.62
1422.77
1422.94
1423.15
1423.37
1423.57
1423.82
1424.38
1424.66
1424.85
1425.34
1425.91
1426.37
1426.88
1427.12
1427.95
1427.89
1428.98
1405.72
1406.36
1406.55
1406.33
1405.96
1405.66
1405.43
1405.15
1404.9
1404.96
1404.94
1404.58
1403.98
1403.46
1403.14
1402.99
1402.98
1403.07
1403.23
1403.41
1403.58
1403.75
1403.86
1403.93
1404.03
1404.17
1404.32
1404.53
1404.83
1405.21
1405.81
1406.18
1406.75
1407.27
1407.78
1408.27
1408.4
1409.66
1409.11
1409.92
1386.51
1387.13
1387.47
1386.85
1386.31
1386.01
1385.37
1384.67
1384.42
1384.21
1383.68
1383.4
1382.85
1382.53
1382.73
1383.05
1383.32
1383.67
1384.03
1384.35
1384.57
1384.74
1384.81
1384.87
1384.89
1384.95
1385.04
1385.18
1385.4
1385.82
1386.67
1387.04
1387.6
1388.16
1388.75
1389.26
1389.37
1390.83
1389.98
1390.61
1364.92
1366.04
1366.79
1366.72
1366.57
1366.47
1365.65
1364.83
1364.94
1364.73
1363.59
1363.06
1362.8
1362.61
1362.79
1363.22
1363.77
1364.34
1365.03
1365.84
1365.79
1365.99
1366.08
1366.04
1365.76
1365.63
1365.54
1365.5
1365.61
1366.03
1366.82
1367.52
1368.18
1368.79
1369.21
1369.57
1370.74
1370.68
1370.56
1370.99
1345.3
1345.35
1346.32
1346.44
1346.83
1348.17
1347.69
1346.05
1345.31
1345.13
1344.81
1343.6
1343.06
1342.92
1343.07
1343.58
1344.4
1345.23
1346.28
1347.21
1347.9
1348.12
1347.87
1347.15
1346.74
1346.37
1346
1345.72
1345.8
1346.46
1347.29
1348
1348.67
1349.13
1349.56
1350.77
1350.97
1350.53
1350.88
1351.29
1323.66
1324.58
1325.02
1326.83
1326.08
1325.96
1324.2
1324.09
1324.46
1325.39
1325.45
1324.41
1323.74
1323.58
1323.81
1324.31
1325.36
1326.36
1327.31
1328.19
1328.59
1328.51
1328.32
1327.85
1327.42
1327.03
1326.58
1326.33
1326.71
1327.38
1328
1328.69
1329.35
1329.84
1330.39
1330.92
1331.28
1331.41
1331.63
1332.02
1302.17
1303
1303.41
1304.18
1303.68
1302.59
1301.7
1301.97
1302.43
1306.92
1304.71
1304.45
1304.42
1304.35
1305.07
1305.89
1306.79
1307.55
1308.28
1309.04
1309.3
1309.19
1308.81
1308.37
1308.01
1307.82
1307.6
1307.6
1308.04
1308.58
1309.05
1309.63
1310.15
1310.68
1311.3
1311.75
1312.14
1312.41
1312.48
1312.93
1280.14
1281.14
1281.55
1281.78
1280.91
1278.92
1277.81
1278.82
1283.03
1285.44
1285.51
1285.51
1285.39
1286.41
1287
1287.11
1287.68
1288.3
1288.82
1289.24
1289.41
1289.28
1288.92
1288.51
1288.31
1288.51
1288.61
1288.84
1289.36
1289.77
1290.26
1290.73
1291.17
1291.66
1292.27
1292.81
1293.25
1293.57
1293.54
1294.06
1258.31
1259.05
1260.66
1261.72
1261.74
1261.8
1262.62
1263.39
1263.99
1265.94
1266.94
1267.31
1267.81
1268.13
1268.36
1268.73
1268.97
1268.95
1269.06
1269.28
1269.4
1269.3
1268.67
1267.96
1268.03
1268.94
1269.41
1269.9
1270.41
1270.83
1271.19
1271.43
1271.75
1272.43
1273.25
1273.88
1274.36
1274.67
1274.67
1274.92
1242.63
1241.54
1242.4
1245.06
1244.93
1248.25
1249.74
1246.5
1248.05
1249.04
1249.25
1249.36
1249.56
1249.76
1250.02
1250.43
1250.2
1249.51
1249.11
1249.45
1249.59
1249.56
1249.36
1248.53
1250.04
1249.89
1250.41
1250.91
1251.25
1251.57
1251.89
1252.25
1252.84
1253.67
1254.31
1254.96
1255.4
1255.58
1255.53
1255.61
1225.28
1226.14
1227.73
1229.24
1231.24
1229.95
1232.86
1231.3
1232.24
1231.11
1231.67
1231.75
1231.01
1230.89
1230.78
1231.69
1231.98
1230.48
1228.95
1229.4
1230.28
1228.99
1229.12
1230.36
1231.02
1232.08
1232.12
1232.69
1233.16
1233.44
1233.58
1234.11
1234.69
1235.25
1235.79
1236.25
1236.37
1236.5
1236.44
1236.49
1209.03
1210.23
1211.27
1211.6
1214.24
1214.82
1215.99
1216.9
1216.37
1216.1
1217.16
1217.16
1216.82
1215.77
1212.53
1213.66
1212.11
1214.86
1215.73
1212.88
1213.38
1214.89
1212.01
1211.47
1211.42
1212.8
1214.67
1215.28
1215.64
1215.92
1215.91
1216.57
1216.87
1217
1217.25
1217.46
1217.47
1217.4
1217.34
1217.34
1189.83
1191.67
1192.77
1192.83
1193.87
1195.25
1196.97
1197.21
1196.28
1196.23
1196.84
1195.44
1194.79
1194.55
1194.21
1193.94
1193.56
1197.65
1197.68
1196.81
1196.4
1196.77
1197.06
1196.99
1196.13
1195.71
1196.97
1197.8
1198.22
1198.36
1198.18
1198.46
1199.32
1198.57
1198.73
1198.77
1198.54
1198.34
1198.17
1198.14
1171.63
1174.81
1174.72
1174.38
1174.74
1175.66
1175.99
1176.39
1176.38
1175.9
1175.35
1175.12
1174.82
1174.54
1174.33
1174.32
1174.5
1174.32
1174.43
1175.31
1177.59
1175.83
1178.59
1179.93
1180.68
1177.84
1179.14
1179.73
1179.99
1179.91
1179.72
1179.41
1180.41
1179.62
1179.59
1179.59
1179.44
1179.04
1178.87
1178.78
1156.2
1156.61
1157.38
1155.81
1155.56
1156.75
1156.83
1156.74
1156.08
1155.68
1154.96
1154.58
1154.27
1154.18
1154.12
1154.01
1153.69
1153.44
1152.92
1153.66
1155.03
1155.34
1155.34
1155.96
1157.27
1158.1
1160.19
1161.03
1160.71
1160.74
1160.61
1160.36
1160.6
1160.37
1160.39
1160.34
1160.34
1159.92
1160.42
1160.42
1138.72
1139.62
1140.21
1139.74
1138.45
1138.29
1138.06
1137.47
1136.41
1135.44
1134.33
1133.67
1133.43
1133.65
1134.87
1136.47
1136.09
1135.29
1133.93
1133.23
1135.33
1132.93
1132.99
1133.29
1134.92
1137.41
1138.88
1140.41
1139.96
1140.42
1140.8
1140.89
1140.94
1141.02
1140.86
1140.71
1141.61
1142.15
1142.61
1142.88
1123.07
1123.74
1124.15
1123.59
1122.37
1121.68
1120.56
1119.11
1117.27
1115.26
1114.65
1114.83
1116.13
1117.41
1118.85
1117.17
1116.13
1115.86
1115.71
1114.94
1114.55
1115.12
1114.15
1114.42
1114.21
1116.28
1117.15
1118.66
1119.58
1120.22
1120.56
1120.77
1121.06
1120.93
1122.66
1122.96
1122.9
1122.82
1123.7
1123.67
1107.39
1107.78
1107.43
1107.19
1106.55
1105.47
1103.79
1101.42
1098.61
1097.27
1097.28
1097.04
1097.01
1097.11
1097.43
1098.09
1097.73
1097.22
1096.73
1095.54
1095.56
1095.17
1094.89
1095.1
1096.12
1097.53
1098.09
1098.63
1099.56
1099.66
1100.02
1100.14
1100.61
1100.64
1102.92
1104.78
1102.48
1103.91
1104.39
1104.52
1087.28
1089.13
1089.67
1089.38
1088.82
1087.69
1085.9
1083.7
1081.34
1081.61
1081.17
1081.05
1080.27
1079.4
1080.02
1079.73
1079.08
1078.34
1077.57
1076.74
1076.33
1075.84
1075.82
1076.37
1077.01
1078.84
1078.77
1079.08
1079.37
1079.57
1079.4
1079.07
1078.92
1079.29
1080.11
1080.1
1079
1079.09
1080.59
1081.5
1068.96
1069.37
1069.73
1069.41
1068.86
1067.95
1066.69
1065.39
1064.25
1064.47
1064.2
1063.71
1063.1
1062.48
1062.29
1061.37
1060.6
1059.75
1059.15
1058.44
1057.71
1057.24
1057.18
1057.38
1057.83
1058.79
1059.23
1059.84
1059.97
1060.04
1059.46
1058.53
1057.92
1058.09
1059.07
1059.01
1059.14
1063.59
1058.3
1060.18
1049.35
1049.4
1049.15
1048.3
1047.28
1046.86
1046.52
1046.48
1046.56
1046.98
1047.3
1047.25
1046.62
1046.22
1045.84
1043.63
1043.06
1042.22
1041.46
1040.88
1040.14
1039.48
1039.26
1039.28
1039.61
1040.13
1040.84
1041.08
1041.35
1041.27
1040.69
1039.89
1039.41
1039.66
1040.34
1039.95
1040.15
1044.45
1038.66
1041.6
1029.12
1029.54
1028.86
1027.52
1027.9
1026.85
1026.68
1027.42
1028.12
1028.92
1029.54
1028.71
1028.85
1029.66
1027.97
1026.4
1026.18
1025.5
1024.51
1024.13
1023.73
1022.79
1023.09
1022.44
1022.48
1022.45
1023.3
1023.44
1023.94
1024.11
1023.7
1022.92
1022.16
1022.13
1022.14
1021.3
1025.38
1025.12
1023.32
1023.12
1010.19
1010.27
1010.01
1009.89
1009.35
1008.51
1008.28
1008.7
1009.03
1008.98
1009.55
1009.33
1009.93
1009.47
1009.04
1008.97
1008.49
1008.67
1010.1
1008.57
1009.15
1006.69
1006.71
1005.65
1005.31
1004.99
1005.26
1005.52
1005.75
1005.88
1005.6
1004.82
1004.57
1006.75
1008.72
1009.04
1008.61
1008.58
1010.1
1008.01
991.58
991.713
991.236
990.778
990.34
990.08
989.941
989.918
989.97
990.1
990.761
991.015
990.224
990.176
990.489
991.03
990.524
990.882
989.949
995.013
989.382
989.395
988.433
988.691
987.061
986.442
986.035
986.031
985.961
985.705
985.412
984.842
985.357
986.226
987.11
987.398
988.373
991.108
989.277
989.814
971.272
970.945
971.224
971.054
970.658
970.618
970.739
970.895
971.113
971.545
971.878
971.956
972.051
972.476
972.695
972.012
971.879
973.325
973.078
975.439
977.769
971.781
971.555
970.346
969.013
967.594
966.132
965.059
964.487
963.897
963.262
963.233
964.073
965.757
966.905
968.061
968.974
967.018
968.818
968.739
952.458
952.133
951.944
951.905
951.32
950.332
951.284
951.809
951.47
953.69
952.942
953.704
953.86
953.546
953.664
953.986
954.574
954.18
954.455
954.31
959.669
956.452
954.027
952.836
951.171
948.786
946.402
944.48
943.418
942.033
939.88
939.908
941.635
942.672
942.564
942.633
944.195
945.506
946.276
950.1
932.782
933.167
932.605
932.256
934.146
933.255
932.683
934.194
932.606
934.46
932.391
933.35
934.258
934.5
934.876
935.398
935.393
935.881
935.8
936.228
936.357
938.044
936.219
933.128
931.924
930.447
928.968
926.421
924.479
923.888
927.511
927.477
928.82
930.339
931.234
931.79
932.949
931.631
931.915
933.777
914.661
915.054
914.132
914.87
915.246
914.874
914.496
916.683
914.788
914.367
911.708
912.647
913.6
914.313
914.487
914.641
914.926
915.19
915.836
916.066
916.778
917.409
919.492
919.914
919.501
919.122
917.034
912.783
915.248
910.063
916
916.401
914.302
918.713
915.042
917.755
918.39
919.304
919.015
921.184
899.115
898.918
898.947
898.966
898.617
898.016
897.005
895.465
895.704
894.659
893.137
893.003
892.188
891.125
890.853
892.033
893.027
893.482
894.175
894.601
896.22
897.638
898.98
900.16
900.803
900.795
900.296
898.215
898.13
896.819
895.902
896.553
897.539
898.89
900.281
902.095
902.464
909.37
901.303
904.413
878.525
878.459
878.692
878.85
878.681
878.983
878.005
877.473
876.956
876.129
874.649
875.325
872.716
871.936
881.306
873.649
872.687
872.868
873.026
874.969
876.877
879.025
880.807
882.263
883.074
882.937
882.507
882.211
882.205
882.081
881.07
880.349
880.328
880.749
881.413
882.458
883.288
892.942
885.269
886.308
858.993
858.97
859.036
859.065
859.135
858.744
858.11
857.631
857.689
857.732
858.213
857.146
859.156
871.011
853.888
855.35
854.764
854.195
854.624
855.72
856.903
858.996
860.774
862.415
863.585
863.657
863.433
863.934
864.056
863.585
863.209
862.557
861.607
861.08
860.852
860.696
861.395
871.08
862.338
863.44
838.573
838.619
838.557
838.465
838.426
838.329
838.359
838.5
838.663
838.892
838.422
837.274
835.434
853.805
835.445
836.116
836.013
835.722
835.805
835.881
835.532
835.451
837.475
839.297
841.037
842.371
843.142
843.632
843.737
843.653
843.598
843.56
842.319
841.981
841.508
840.938
842.575
846.739
841.236
843.86
817.194
817.133
817.034
817.085
817.648
817.817
818.295
818.849
819.475
820.113
820.515
821.56
819.817
825.491
823.648
813.521
813.849
814.321
814.462
814.353
811.752
808.199
809.119
812.835
817.075
820.193
822.064
823.568
823.489
824.117
824.152
824.014
823.626
822.682
822.905
823.561
825.569
827.295
825.747
828.605
795.692
795.708
795.819
796.576
797.782
797.448
798.278
799.305
800.328
801.533
802.667
803.716
804.601
807.255
808.237
806.342
802.901
799.386
797.956
798.656
796.332
797.045
790.868
792.906
797.877
800.912
802.747
804.248
805.19
806.046
806.975
807.705
807.875
807.374
808.988
809.443
810.648
811.826
809.601
811.423
773.851
773.885
774.028
775.02
776.833
777.427
778.619
779.886
781.358
782.949
784.709
786.512
788.305
790.389
792.277
790.844
793.372
792.484
790.731
789.341
789.361
788.459
780.567
779.606
781.241
782.904
784.279
785.734
786.923
788.162
789.24
790.903
791.902
792.228
796.695
796.655
793.384
793.415
792.799
792.933
753.22
753.459
753.907
754.754
756.552
757.844
759.214
760.87
762.616
764.623
766.737
769.03
771.088
772.606
774.155
774.231
773.302
771.725
770.108
767.259
765.608
764.842
763.372
763
763.641
764.513
765.237
766.706
767.754
768.874
770.287
771.681
772.731
773.831
782.513
773.471
774.997
774.441
772.982
773.204
736.296
735.275
735.6
735.996
736.857
738.411
739.76
741.623
743.796
747.006
749.996
752.094
754.121
755.576
756.487
755.911
755.957
756.551
753.327
751.174
747.925
746.295
745.378
744.847
744.944
745.384
745.768
746.301
746.37
746.341
747.319
749.458
750.29
752.911
758.467
751.916
753.051
752.801
752.892
752.75
721.301
719.952
718.294
718.043
717.343
717.575
718.811
720.378
723.528
727.146
730.651
733.707
736.492
738.271
738.046
734.897
733.188
733.06
731.094
728.525
726.512
725.363
725.503
725.467
725.801
725.7
727.47
728.393
729.426
727.991
727.613
728.095
728.905
729.741
729.688
729.018
729.261
733.806
731.257
731.185
704.028
701.214
698.65
695.93
694.729
694.223
694.626
696.2
698.979
702.801
707.266
711.572
714.408
715.992
715.145
712.378
708.59
705.398
706.553
702.478
700.99
701.925
702.919
703.943
704.077
704.977
707.512
710.487
713.707
714.258
712.644
711.695
711.066
710.688
710.936
709.725
711.853
712.709
711.723
713.544
684.505
680.788
677.371
673.506
671.678
669.998
668.597
668.74
670.634
674.759
680.029
684.738
688.216
690.14
690.494
688.621
687.587
686.248
684.573
682.181
680.233
680.064
680.45
681.306
682.217
684.011
686.208
689.619
693.78
699.25
694.314
693.598
693.606
694.815
694.744
692.314
693.599
693.291
693.094
696.99
663.351
660.142
657.275
654.37
651.351
649.547
648.176
649.737
651.703
650.695
653.731
658.642
663.115
666.039
667.233
668.562
668.615
666.992
665.364
663.761
662.431
661.106
657.639
657.151
656.795
656.926
658.854
661.343
678.153
676.075
670.566
671.753
673.316
674.944
675.054
673.844
674.025
673.052
672.656
676.879
643.101
640.017
638.045
636.378
635.575
636.451
635.443
635.236
635.829
636.121
638.129
640.267
644.013
645.797
646.117
647.087
648.497
646.449
644.179
641.991
639.883
636.742
627.116
624.597
625.111
627.382
630.589
634.346
641.701
643.39
644.535
647.73
650.565
652.815
654.05
654.398
655.068
654.983
654.466
656.37
624.535
623.253
622.261
621.811
623.204
623.506
623.366
623.642
624.476
625.58
626.362
624.37
626.814
627.937
627.634
626.433
625.285
623.124
621.484
618.339
612.438
613.718
612.416
604.268
602.334
605.413
609.981
614.128
616.569
617.679
620.18
624.129
627.436
629.587
630.658
631.822
631.941
631.011
634.954
636.452
608.989
609.587
609.141
609.082
611.999
612.325
612.228
612.066
612.036
611.661
611.483
611.132
611.868
612.155
611.713
610.137
607.869
606.282
602.602
598.933
596.819
597.73
596.366
595.436
599.38
600.589
601.596
602.05
600.671
598.167
600.515
603.535
606.834
608.95
613.288
616.881
617.452
617.532
617.634
621.61
595.137
597.124
597.59
600.542
601.552
601.103
600.291
599.15
600.225
602.034
601.663
600.627
602.126
597.538
597.255
595.808
594.004
592.24
590.637
592.133
599.127
590.045
591.198
589.201
592.678
594.343
591.082
588.531
586.601
583.935
583.262
584.092
585.831
588.346
594.078
602.013
599.876
599.324
599.469
600.669
583.178
582.884
585.332
581.242
581.824
582.808
582.873
583.079
583.971
585.001
584.425
585.483
585.958
585.001
584.605
584.737
583.744
583.069
582.404
585.12
587.649
579.809
579.403
584.536
584.209
579.303
577.987
578.588
574.033
568.707
563.718
561.786
562.878
567.522
572.221
575.852
579.017
580.901
582.554
582.136
561.914
560.857
559.651
562.35
562.83
563.428
564.479
565.406
566.278
567.224
568.691
569.875
570.352
570.893
571.292
572.312
573.299
571.591
572.124
573.27
572.62
569.613
566.719