/*--------------------------------*- C++ -*----------------------------------*\
  =========                 |
  \\      /  F ield         | OpenFOAM: The Open Source CFD Toolbox
   \\    /   O peration     | Website:  https://openfoam.org
    \\  /    A nd           | Version:  8
     \\/     M anipulation  |
\*---------------------------------------------------------------------------*/
FoamFile
{
    version     2.0;
    format      ascii;
    class       volScalarField;
    location    "3.55";
    object      nut;
}
// * * * * * * * * * * * * * * * * * * * * * * * * * * * * * * * * * * * * * //

dimensions      [0 2 -1 0 0 0 0];

internalField   nonuniform List<scalar> 
9150
(
9.60059e-06
6.40222e-06
6.57125e-06
8.73901e-06
7.55488e-06
7.55279e-06
8.73829e-06
6.57109e-06
6.40174e-06
9.60063e-06
9.48794e-06
5.73395e-06
8.27674e-06
9.88133e-06
7.0293e-06
7.02697e-06
9.87935e-06
8.27676e-06
5.73357e-06
9.48795e-06
9.29589e-06
5.49707e-06
1.08014e-05
1.02564e-05
6.68253e-06
6.68036e-06
1.02535e-05
1.0801e-05
5.49676e-06
9.29587e-06
9.08022e-06
5.41946e-06
1.34025e-05
1.02539e-05
6.49632e-06
6.49431e-06
1.02508e-05
1.3401e-05
5.4192e-06
9.0802e-06
8.84538e-06
5.40329e-06
1.56435e-05
1.01624e-05
6.40174e-06
6.39983e-06
1.01593e-05
1.56406e-05
5.40305e-06
8.84535e-06
5.91399e-06
1.12655e-05
1.38384e-05
1.73736e-05
1.65508e-05
1.65504e-05
1.73804e-05
1.38557e-05
1.12786e-05
5.9149e-06
6.28118e-06
8.85498e-06
1.13443e-05
1.5275e-05
1.43183e-05
1.43161e-05
1.52768e-05
1.13533e-05
8.85983e-06
6.28112e-06
6.83148e-06
7.90081e-06
9.37816e-06
1.30452e-05
1.20417e-05
1.20392e-05
1.30454e-05
9.38209e-06
7.9018e-06
6.83135e-06
7.38804e-06
7.29413e-06
7.97124e-06
1.11381e-05
1.01276e-05
1.01252e-05
1.11377e-05
7.97255e-06
7.2938e-06
7.38796e-06
8.07509e-06
6.8439e-06
7.05139e-06
9.64051e-06
8.58699e-06
8.58482e-06
9.63984e-06
7.05154e-06
6.84333e-06
8.07505e-06
1.26018e-05
1.4681e-05
1.27093e-05
1.55466e-05
1.73152e-05
1.74326e-05
1.59088e-05
1.40017e-05
1.96416e-05
1.3967e-05
7.87745e-06
1.07673e-05
1.23446e-05
1.571e-05
1.74012e-05
1.74789e-05
1.59169e-05
1.25459e-05
1.08337e-05
7.90872e-06
7.4565e-06
1.01673e-05
1.24373e-05
1.59091e-05
1.74844e-05
1.75324e-05
1.60442e-05
1.25446e-05
1.01969e-05
7.46555e-06
7.03161e-06
9.77762e-06
1.24859e-05
1.60704e-05
1.75507e-05
1.75816e-05
1.61543e-05
1.25507e-05
9.81617e-06
7.03554e-06
6.51083e-06
1.00385e-05
1.25065e-05
1.62725e-05
1.74588e-05
1.74745e-05
1.63128e-05
1.25406e-05
1.00709e-05
6.51254e-06
9.32937e-06
9.36119e-06
9.38078e-06
9.38604e-06
9.37408e-06
9.34076e-06
9.28065e-06
9.18882e-06
9.07612e-06
8.95161e-06
8.171e-05
8.14534e-05
8.10782e-05
8.05665e-05
7.98959e-05
7.90321e-05
7.79257e-05
7.64928e-05
7.45565e-05
7.20048e-05
0.000153703
0.000153012
0.000152095
0.000150924
0.00014946
0.000147649
0.000145424
0.000142698
0.000139361
0.000135389
0.000210374
0.000209263
0.000207864
0.000206148
0.00020408
0.000201614
0.000198695
0.000195268
0.000191252
0.000186697
0.000255329
0.00025383
0.000252013
0.00024986
0.000247346
0.00024444
0.000241109
0.000237319
0.000233026
0.000228285
0.000291934
0.000290086
0.00028791
0.0002854
0.000282542
0.000279321
0.000275723
0.000271724
0.000267314
0.000262545
0.000322648
0.000320502
0.000318027
0.000315223
0.000312091
0.00030862
0.000304797
0.000300625
0.000296127
0.00029135
0.000349253
0.000346876
0.000344172
0.000341132
0.000337746
0.000334029
0.00033
0.000325682
0.000321107
0.000316312
0.000373024
0.000370491
0.000367602
0.000364357
0.000360766
0.00035686
0.000352677
0.000348253
0.000343619
0.000338802
0.000394829
0.000392217
0.000389237
0.000385881
0.000382157
0.000378124
0.00037385
0.000369378
0.00036473
0.000359913
0.000415198
0.000412609
0.000409641
0.000406261
0.000402498
0.000398448
0.000394197
0.000389776
0.000385191
0.000380437
0.000434416
0.000431923
0.000429009
0.000425634
0.000421988
0.000418151
0.000414089
0.000409833
0.000405397
0.000400784
0.000452642
0.000450327
0.000447562
0.000444373
0.000440938
0.00043734
0.000433527
0.000429499
0.000425279
0.000420876
0.000469862
0.0004678
0.000465308
0.000462427
0.000459265
0.000455874
0.000452279
0.00044848
0.000444489
0.000440325
0.000485992
0.000484209
0.000482031
0.000479478
0.000476607
0.000473433
0.00047002
0.000466416
0.000462647
0.00045874
0.000500755
0.000499259
0.00049737
0.000495086
0.000492461
0.000489548
0.000486394
0.000483055
0.000479579
0.000476015
0.000513824
0.000512638
0.000511084
0.000509147
0.00050687
0.00050431
0.000501525
0.000498582
0.000495548
0.000492486
0.000525279
0.000524513
0.000523404
0.000521947
0.000520163
0.000518118
0.000515883
0.000513537
0.000511158
0.00050882
0.000535533
0.000535377
0.000534905
0.000534109
0.000533022
0.000531714
0.000530267
0.000528765
0.000527288
0.000525908
0.00054527
0.000545974
0.000546387
0.000546491
0.000546336
0.000546015
0.000545614
0.000545208
0.000544862
0.000544632
0.00055531
0.000557155
0.00055873
0.000559984
0.000560999
0.000561893
0.000562756
0.000563642
0.000564588
0.0005656
0.000566366
0.000569584
0.000572588
0.000575251
0.000577664
0.000579935
0.000582167
0.000584415
0.000586685
0.000588898
0.000578854
0.000583548
0.000588091
0.000592376
0.000596423
0.00060021
0.000603797
0.000607302
0.000610732
0.000613917
0.000592877
0.000599063
0.000605152
0.000611025
0.000616617
0.000621913
0.000626921
0.000631623
0.000635863
0.000639414
0.000608047
0.000615742
0.000623341
0.000630769
0.000637921
0.000644638
0.000650769
0.000656064
0.000660297
0.0006634
0.00062335
0.000632515
0.000641507
0.000650242
0.000658523
0.00066611
0.000672623
0.000677785
0.000681481
0.000683725
0.000637581
0.000648049
0.000658182
0.000667834
0.000676652
0.000684268
0.000690406
0.000694899
0.000697644
0.000698641
0.000649879
0.000661413
0.000672331
0.000682346
0.000691163
0.000698441
0.000703885
0.000707317
0.000708663
0.000707991
0.000659873
0.000672259
0.000683707
0.000693879
0.000702461
0.000709119
0.00071356
0.000715621
0.000715314
0.000712869
0.000667583
0.000680709
0.000692616
0.000702916
0.00071122
0.000717172
0.000720522
0.000721207
0.000719433
0.000715734
0.000673182
0.000687089
0.000699554
0.000710106
0.000718286
0.000723732
0.000726272
0.000726037
0.000723554
0.000719806
0.000676984
0.000691863
0.000705125
0.000716222
0.000724648
0.000730064
0.000732431
0.000732143
0.000730132
0.000727889
0.000679299
0.000695432
0.000709858
0.000721963
0.000731218
0.000737333
0.000740421
0.000741157
0.000740854
0.000741442
0.000680179
0.000697893
0.000713955
0.000727686
0.000738538
0.000746252
0.000751052
0.000753819
0.000756109
0.000760063
0.000679819
0.000699385
0.000717511
0.000733479
0.0007467
0.000756901
0.000764309
0.000769828
0.000775049
0.000781996
0.000678046
0.000699624
0.000720115
0.000738789
0.000755023
0.00076847
0.000779249
0.000788091
0.00079634
0.000805598
0.000674368
0.000697905
0.000720843
0.000742455
0.000762089
0.000779339
0.000794182
0.000807081
0.000818828
0.000830143
0.000668403
0.000693533
0.000718654
0.000743036
0.00076602
0.000787179
0.000806436
0.000824156
0.000840616
0.000854878
0.000660057
0.000686101
0.000712719
0.00073926
0.000765056
0.000789628
0.000812879
0.000835208
0.000856854
0.000875531
0.000649231
0.000675488
0.000702797
0.000730573
0.000758153
0.000784994
0.000810906
0.000836222
0.000861088
0.000883241
0.000635961
0.000661598
0.000688614
0.000716538
0.000744734
0.000772549
0.000799538
0.000825681
0.000851222
0.000874314
0.000620592
0.000644613
0.000670164
0.000696971
0.000724516
0.000752116
0.000779096
0.000804998
0.000829713
0.00085331
0.00060349
0.000624956
0.000647903
0.000672321
0.000697928
0.000724185
0.000750394
0.000775871
0.000800126
0.000822985
0.000585311
0.000603543
0.000623013
0.000643956
0.000666386
0.000690065
0.000714507
0.000739068
0.000763103
0.000786114
0.000567183
0.000581787
0.000597348
0.0006142
0.000632561
0.000652544
0.000674019
0.000696597
0.000719713
0.000742761
0.000550122
0.000561062
0.000572877
0.000585682
0.000599682
0.000615325
0.000632871
0.000652277
0.000673216
0.000695164
0.000535247
0.000542982
0.000551466
0.000560509
0.000570322
0.000581628
0.000594923
0.000610476
0.000628229
0.000647823
0.000525065
0.000529876
0.000534341
0.000539849
0.00054626
0.000553823
0.000563255
0.000575106
0.000589461
0.000605893
0.00050435
0.000510188
0.000515231
0.000520299
0.000525527
0.0005313
0.00053846
0.000547795
0.000559607
0.000572892
0.000482057
0.00048915
0.000495042
0.000500287
0.000505212
0.000510404
0.000516693
0.000524756
0.000535061
0.000548154
0.000457925
0.000468195
0.000476319
0.000483152
0.000489409
0.000495884
0.000503544
0.000513458
0.000526207
0.000541661
0.00043718
0.000448495
0.00045933
0.000469789
0.000480395
0.000491802
0.000504571
0.000518953
0.000534716
0.000551237
0.000431067
0.000443495
0.000456721
0.000470732
0.000485522
0.000501005
0.000516908
0.000532724
0.000547785
0.000561443
0.000441177
0.00045413
0.000468152
0.000482886
0.000497869
0.000512541
0.000526308
0.000538631
0.00054915
0.000557773
0.000454823
0.000465708
0.000477177
0.000488751
0.000499953
0.00051038
0.000519772
0.000528057
0.00053537
0.000542006
0.000455818
0.000463082
0.000470821
0.000478777
0.000486769
0.000494725
0.000502679
0.000510759
0.00051915
0.000528053
0.000442769
0.000448085
0.000454451
0.000461762
0.000469949
0.000478982
0.000488853
0.000499564
0.000511111
0.000523475
0.000426093
0.000432235
0.000439975
0.000449152
0.00045961
0.0004712
0.000483776
0.000497198
0.000511321
0.000525996
0.000413977
0.000422419
0.000432568
0.000444154
0.000456922
0.000470631
0.000485064
0.000500018
0.000515272
0.000530751
0.000408196
0.000418968
0.000431212
0.000444576
0.000458763
0.000473509
0.000488581
0.000503772
0.000519007
0.000534158
0.000406984
0.000419388
0.000432874
0.0004471
0.000461761
0.000476597
0.000491428
0.000506178
0.000520723
0.000535
0.000408168
0.000421482
0.000435456
0.000449768
0.000464148
0.000478464
0.000492609
0.000506497
0.000520114
0.000533503
0.000410282
0.000423851
0.00043768
0.000451538
0.000465284
0.000478795
0.000492029
0.000505022
0.000517874
0.000530748
0.000412358
0.000425675
0.000439009
0.000452189
0.00046511
0.000477755
0.000490193
0.000502574
0.000515113
0.000528091
0.000413745
0.00042659
0.000439263
0.000451677
0.000463837
0.00047584
0.000487869
0.000500178
0.000513069
0.000526902
0.000414175
0.000426416
0.000438419
0.000450212
0.000461921
0.000473757
0.000486
0.000498975
0.000513018
0.000528504
0.000413523
0.000425201
0.000436733
0.000448272
0.000460057
0.00047238
0.00048556
0.000499918
0.000515746
0.00053336
0.000411929
0.000423284
0.000434754
0.000446597
0.0004591
0.000472543
0.000487161
0.00050314
0.000520586
0.000539607
0.000409763
0.000421215
0.000433177
0.000445927
0.000459681
0.000474542
0.000490487
0.000507365
0.000524894
0.000542632
0.000407441
0.000419469
0.00043241
0.000446433
0.000461519
0.00047743
0.000493752
0.000509864
0.000524828
0.000537128
0.000405221
0.000418147
0.000432223
0.000447361
0.000463174
0.000479027
0.000494117
0.000507192
0.000516394
0.000520192
0.000403248
0.00041715
0.000432158
0.000447825
0.00046332
0.000477455
0.000488557
0.00049467
0.000495339
0.00049262
0.000401845
0.000416755
0.000432527
0.000448146
0.000461718
0.000470598
0.00047285
0.000469458
0.000463756
0.000459586
0.000401762
0.000418096
0.000434851
0.000449011
0.000455979
0.000454178
0.000446325
0.000436767
0.000429503
0.000427758
0.000404307
0.000422924
0.000439313
0.000445614
0.00044021
0.000428306
0.000414853
0.000403469
0.000397589
0.00040064
0.000410923
0.000431068
0.000439216
0.000431514
0.000416367
0.000399251
0.00038343
0.000372267
0.000369658
0.00037949
0.000422067
0.000436467
0.000429073
0.000411633
0.000391084
0.000370679
0.000353682
0.000344113
0.000346352
0.000364499
0.000433896
0.000433894
0.000415114
0.000391491
0.000366581
0.000343453
0.000326249
0.000319518
0.000327676
0.000355069
0.000444243
0.000426449
0.000400572
0.000371741
0.000342726
0.000317579
0.000301334
0.000298426
0.000313063
0.000350161
0.00044561
0.000418481
0.00038601
0.000351967
0.000319311
0.000293136
0.000279035
0.000280539
0.000301971
0.000348545
0.000440446
0.000407306
0.000370259
0.000332144
0.000296727
0.000270557
0.000259479
0.000265717
0.000294107
0.000348759
0.000436617
0.000397424
0.000355875
0.000313876
0.000275908
0.000250265
0.000242663
0.000254038
0.00028915
0.000349342
0.000433331
0.000389229
0.000343491
0.000297583
0.000256911
0.000232017
0.000228295
0.000245554
0.000286667
0.000349312
0.000429783
0.000382109
0.000332585
0.000282713
0.000239038
0.00021507
0.000215961
0.000240161
0.0002865
0.00034922
0.000426153
0.000375647
0.000322626
0.000268663
0.000221544
0.000198694
0.000205361
0.000237628
0.000288782
0.000350602
0.000423157
0.000369998
0.000313432
0.000255072
0.000203899
0.000182397
0.00019627
0.000237423
0.000293452
0.000354999
0.000421254
0.000365213
0.000304816
0.000241661
0.000185744
0.000165923
0.000188346
0.000238508
0.000299473
0.000361789
0.000420513
0.000361112
0.000296446
0.000228085
0.000166798
0.000149213
0.000181143
0.000239836
0.000305944
0.000370552
0.000420739
0.000357298
0.000287809
0.000213874
0.000146865
0.000132459
0.000174235
0.00024051
0.000312036
0.000380862
0.000421468
0.000353156
0.00027824
0.000198472
0.000125949
0.000116155
0.000167407
0.000239907
0.000316871
0.000391671
0.000422106
0.000347968
0.000267028
0.00018134
0.000104394
0.000101048
0.000160774
0.000237798
0.000319635
0.000401667
0.000421829
0.000340908
0.000253457
0.00016204
8.29824e-05
8.79062e-05
0.000154783
0.000234471
0.00031962
0.000408998
0.000419418
0.000331026
0.000236811
0.000140341
6.28961e-05
7.71468e-05
0.000150152
0.000231178
0.000316751
0.000410791
0.000413539
0.000317438
0.000216467
0.000116457
4.55095e-05
6.84554e-05
0.000147553
0.000230919
0.000314136
0.000406133
0.000403127
0.000299537
0.000192057
9.13783e-05
3.2044e-05
6.05717e-05
0.000146325
0.000237392
0.000320178
0.000404533
0.000388707
0.000277374
0.000163699
6.70253e-05
2.32058e-05
5.16747e-05
0.000142793
0.000250669
0.000343839
0.000425233
0.000370001
0.000250748
0.000132016
4.59539e-05
1.89567e-05
4.06754e-05
0.000130166
0.000262862
0.000384769
0.000479781
0.000348094
0.000220726
9.91394e-05
3.06998e-05
1.78276e-05
2.89595e-05
0.000101562
0.000256804
0.00043354
0.000580274
0.000338709
0.000190872
6.74817e-05
2.16877e-05
1.74745e-05
2.05816e-05
5.82237e-05
0.000201041
0.000444851
0.00073435
0.000434584
0.000148867
3.61917e-05
1.70025e-05
1.72951e-05
1.77011e-05
2.31171e-05
8.31141e-05
0.000286337
0.000703505
8.8003e-06
8.63249e-06
8.46238e-06
8.31373e-06
8.21687e-06
8.19422e-06
8.24472e-06
8.34624e-06
8.47306e-06
8.61374e-06
8.78805e-06
8.93871e-06
9.03669e-06
9.08286e-06
9.06222e-06
8.97088e-06
8.80949e-06
8.60221e-06
8.42852e-06
8.27758e-06
8.15317e-06
8.0538e-06
7.97112e-06
7.90526e-06
7.82497e-06
7.71019e-06
7.54571e-06
7.32804e-06
7.10689e-06
6.87579e-06
6.64728e-06
6.42917e-06
6.21808e-06
6.00396e-06
5.76256e-06
5.46921e-06
5.10953e-06
4.71683e-06
1.95264e-05
4.51063e-06
6.88637e-05
6.54772e-05
6.24744e-05
6.04454e-05
5.98331e-05
6.0638e-05
6.24938e-05
6.49303e-05
6.74901e-05
6.97069e-05
7.09952e-05
7.16609e-05
7.18406e-05
7.15731e-05
7.08667e-05
6.97206e-05
6.8127e-05
6.60969e-05
6.3767e-05
6.18569e-05
6.0644e-05
5.99315e-05
5.92798e-05
5.82362e-05
5.69679e-05
5.54757e-05
5.36882e-05
5.14832e-05
4.86639e-05
4.57817e-05
4.35097e-05
4.17346e-05
4.01092e-05
3.83802e-05
3.61011e-05
3.31008e-05
2.93002e-05
2.45334e-05
1.87783e-05
7.47487e-06
0.000130666
0.000125526
0.00012084
0.000117409
0.000115864
0.000116197
0.000117859
0.00012018
0.000122564
0.000124527
0.000125683
0.000126064
0.000125729
0.000124719
0.000123061
0.000120777
0.000117898
0.000114486
0.000110869
0.000107595
0.00010492
0.00010269
0.000100555
9.82108e-05
9.54859e-05
9.2404e-05
8.8954e-05
8.50766e-05
8.07589e-05
7.63245e-05
7.21887e-05
6.82165e-05
6.43247e-05
6.02396e-05
5.55438e-05
5.00815e-05
4.3596e-05
3.55243e-05
2.48448e-05
1.08704e-05
0.000181438
0.000175754
0.000170461
0.000166272
0.000163854
0.000163115
0.000163487
0.000164402
0.000165348
0.000165912
0.000165795
0.000164971
0.000163453
0.000161272
0.000158474
0.000155118
0.000151271
0.000147007
0.000142504
0.000138232
0.000134381
0.000130812
0.000127238
0.000123458
0.000119348
0.000114858
0.000109979
0.000104747
9.92658e-05
9.3693e-05
8.81354e-05
8.25853e-05
7.69179e-05
7.10394e-05
6.47541e-05
5.7903e-05
5.01053e-05
4.06834e-05
2.86279e-05
1.38302e-05
0.000222902
0.000217126
0.000211665
0.000207035
0.00020368
0.000201567
0.000200287
0.000199434
0.000198576
0.000197374
0.000195604
0.000193166
0.000190128
0.000186521
0.000182408
0.000177877
0.00017303
0.000167965
0.00016276
0.00015764
0.00015271
0.00014794
0.00014313
0.000138086
0.000132685
0.000126893
0.000120756
0.000114373
0.000107855
0.000101292
9.4741e-05
8.82064e-05
8.1654e-05
7.49769e-05
6.80148e-05
6.05512e-05
5.22387e-05
4.25407e-05
3.06147e-05
1.61119e-05
0.000257203
0.000251443
0.000245867
0.000240808
0.000236499
0.000232976
0.000230095
0.000227545
0.000224919
0.000221952
0.000218473
0.000214388
0.000209755
0.000204639
0.00019912
0.000193304
0.000187317
0.000181276
0.000175258
0.000169303
0.00016346
0.000157685
0.000151857
0.000145805
0.000139368
0.000132491
0.000125292
0.000118006
0.000110779
0.000103687
9.67635e-05
8.9995e-05
8.33004e-05
7.65169e-05
6.94417e-05
6.18006e-05
5.33221e-05
4.35598e-05
3.19128e-05
1.83577e-05
0.000286051
0.000280312
0.000274621
0.000269154
0.000264028
0.000259293
0.000254915
0.000250766
0.000246556
0.000242031
0.000237027
0.000231474
0.00022538
0.000218858
0.000211998
0.000204917
0.000197744
0.000190604
0.00018359
0.000176739
0.000170039
0.000163425
0.000156771
0.000149948
0.000142785
0.00013513
0.000127335
0.000119648
0.000112292
0.000105377
9.88862e-05
9.26696e-05
8.64888e-05
8.01288e-05
7.32221e-05
6.54412e-05
5.64313e-05
4.54903e-05
3.09312e-05
1.96968e-05
0.000311034
0.000305302
0.000299489
0.000293661
0.000287877
0.000282169
0.00027656
0.000271083
0.000265563
0.000259756
0.000253509
0.000246769
0.000239548
0.000231914
0.00022397
0.000215819
0.000207579
0.000199373
0.000191312
0.000183472
0.000175877
0.000168473
0.000161157
0.000153774
0.000146103
0.000138198
0.000130297
0.000122756
0.000115973
0.000110087
0.000104651
9.92576e-05
9.35954e-05
8.74834e-05
8.0485e-05
7.23959e-05
6.28846e-05
5.06337e-05
3.16725e-05
4.66689e-06
0.000333512
0.000327733
0.000321781
0.000315665
0.000309402
0.000303035
0.000296608
0.000290157
0.000283649
0.000276954
0.000269918
0.000262465
0.000254583
0.000246303
0.000237703
0.000228862
0.000219877
0.000210862
0.000201944
0.000193242
0.000184839
0.00017672
0.000168779
0.000160876
0.000152965
0.000145252
0.000137993
0.000131362
0.000125521
0.000120323
0.000115366
0.000110205
0.000104454
9.77253e-05
8.95923e-05
7.99731e-05
6.87547e-05
5.48276e-05
3.41404e-05
5.12768e-06
0.000354622
0.000348812
0.00034278
0.000336517
0.000330023
0.00032332
0.00031642
0.000309382
0.000302309
0.000295307
0.00028808
0.000280478
0.000272473
0.00026407
0.00025532
0.00024629
0.000237054
0.000227707
0.000218383
0.000209258
0.000200466
0.00019202
0.000183813
0.000175754
0.000167957
0.000160669
0.000154141
0.000148456
0.000143323
0.000138298
0.000133069
0.000127106
0.000119929
0.000111097
0.000100284
8.73597e-05
7.21448e-05
5.45552e-05
3.23678e-05
4.87873e-06
0.000375205
0.000369442
0.000363447
0.000357225
0.000350771
0.000344077
0.000337173
0.00033017
0.000323155
0.000316162
0.00030908
0.000301722
0.000294026
0.000285986
0.00027762
0.000268979
0.000260107
0.000251064
0.000242014
0.000233102
0.000224427
0.000216083
0.000208002
0.000200165
0.000192801
0.000186108
0.000180164
0.000174979
0.000170126
0.000165058
0.000159195
0.000152192
0.000143524
0.000132742
0.00011922
0.000102439
8.20975e-05
5.81877e-05
3.08464e-05
4.90137e-06
0.000395697
0.000390091
0.000384268
0.000378246
0.00037204
0.000365645
0.000359093
0.000352477
0.000345849
0.000339205
0.000332499
0.000325622
0.000318521
0.000311179
0.000303599
0.000295797
0.000287781
0.000279643
0.000271528
0.000263522
0.000255673
0.000248006
0.00024053
0.000233327
0.000226558
0.000220303
0.000214479
0.000209075
0.000203797
0.000198195
0.000191784
0.000184049
0.000174478
0.000162551
0.000147574
0.00012861
0.000105233
7.66413e-05
4.17166e-05
5.72552e-06
0.000416019
0.000410679
0.000405157
0.000399482
0.000393679
0.000387762
0.000381755
0.000375703
0.000369627
0.000363537
0.00035742
0.00035123
0.000344933
0.000338506
0.000331938
0.000325221
0.000318366
0.000311537
0.000304766
0.000298062
0.000291431
0.000284872
0.000278397
0.000272046
0.000265871
0.000259882
0.000253988
0.000248098
0.000242011
0.000235404
0.000227884
0.000219002
0.000208257
0.000195057
0.000178659
0.000158105
0.00013215
9.89451e-05
5.5698e-05
7.04226e-06
0.000435746
0.000430747
0.000425624
0.000420414
0.000415149
0.000409847
0.000404519
0.00039918
0.000393843
0.000388516
0.000383195
0.000377871
0.000372523
0.000367129
0.000361668
0.000356132
0.000350545
0.00034501
0.000339565
0.000334176
0.000328793
0.000323387
0.00031794
0.000312431
0.000306811
0.000301021
0.000294977
0.000288554
0.000281574
0.000273781
0.000264851
0.000254384
0.000241892
0.00022675
0.000208116
0.000184791
0.000155015
0.000116178
6.47161e-05
8.31054e-06
0.000454485
0.000449906
0.000445286
0.000440669
0.000436082
0.000431539
0.00042704
0.00042258
0.000418153
0.000413757
0.000409389
0.000405045
0.000400708
0.000396358
0.000391976
0.000387564
0.000383147
0.000378755
0.000374409
0.000370081
0.000365716
0.000361254
0.000356629
0.000351749
0.00034651
0.000340804
0.000334513
0.000327497
0.000319575
0.000310517
0.00030003
0.000287755
0.000273221
0.000255793
0.00023455
0.00020811
0.00017437
0.000130182
7.17792e-05
9.30213e-06
0.000472196
0.000468172
0.000464208
0.000460343
0.000456595
0.000452964
0.000449433
0.000445975
0.000442568
0.000439192
0.000435833
0.00043248
0.000429121
0.000425733
0.000422304
0.000418843
0.000415349
0.000411839
0.00040832
0.000404747
0.000401063
0.000397186
0.000393019
0.000388445
0.000383299
0.000377446
0.000370734
0.000362986
0.000354007
0.000343566
0.000331378
0.000317104
0.000300322
0.000280434
0.000256521
0.000227094
0.000189824
0.000141238
7.73779e-05
1.01927e-05
0.000489283
0.000486011
0.000482894
0.000479956
0.000477197
0.000474594
0.000472108
0.000469693
0.000467307
0.000464918
0.000462504
0.000460049
0.000457538
0.000454955
0.000452292
0.000449546
0.000446715
0.000443801
0.000440783
0.000437615
0.000434224
0.00043053
0.000426405
0.000421709
0.000416301
0.000410015
0.000402659
0.000394011
0.000383817
0.000371808
0.000357719
0.000341236
0.000321994
0.000299492
0.000272901
0.000240769
0.000200654
0.000148893
8.14997e-05
1.09859e-05
0.000506465
0.00050417
0.000502093
0.000500229
0.000498549
0.000497006
0.000495541
0.000494094
0.000492612
0.00049106
0.000489419
0.000487677
0.000485819
0.000483831
0.000481703
0.000479423
0.00047698
0.000474355
0.000471513
0.000468392
0.000464918
0.000460987
0.000456497
0.000451322
0.000445314
0.000438284
0.000430009
0.000420223
0.000408626
0.000394901
0.000378719
0.000359803
0.000337866
0.000312533
0.000283138
0.00024837
0.000205888
0.00015227
8.39649e-05
1.1579e-05
0.000524624
0.000523494
0.000522582
0.000521847
0.000521229
0.000520663
0.000520075
0.000519402
0.0005186
0.000517648
0.00051654
0.000515274
0.000513834
0.000512204
0.000510362
0.000508282
0.000505935
0.00050329
0.000500288
0.000496855
0.000492916
0.000488405
0.000483236
0.00047729
0.00047041
0.000462387
0.00045296
0.000441825
0.000428637
0.000413032
0.000394655
0.0003732
0.000348451
0.000320136
0.00028769
0.000249908
0.000204609
0.000149139
8.20468e-05
1.15182e-05
0.000544561
0.000544668
0.00054491
0.000545216
0.000545504
0.000545688
0.00054571
0.000545534
0.000545131
0.000544503
0.000543664
0.000542614
0.000541333
0.000539793
0.000537954
0.000535761
0.00053317
0.000530146
0.00052661
0.000522492
0.000517763
0.000512383
0.000506282
0.000499354
0.000491427
0.000482257
0.000471543
0.000458948
0.000444107
0.000426632
0.000406149
0.000382344
0.000355045
0.000323943
0.000288207
0.000246349
0.000195938
0.000134817
6.64258e-05
1.08037e-05
0.000566747
0.000567998
0.000569224
0.000570303
0.000571163
0.000571741
0.000572027
0.000572021
0.000571726
0.000571147
0.000570288
0.000569144
0.000567694
0.000565894
0.000563689
0.000561016
0.000557813
0.000554006
0.000549533
0.000544388
0.000538605
0.000532143
0.000524931
0.000516901
0.000507869
0.000497516
0.00048549
0.000471443
0.000455038
0.000435924
0.000413773
0.000388335
0.000359461
0.000326504
0.000287013
0.000239483
0.000181904
0.000116279
5.39329e-05
9.93669e-06
0.000591114
0.000593247
0.000595085
0.000596498
0.000597446
0.000597971
0.000598147
0.000598008
0.000597531
0.000596676
0.000595423
0.000593769
0.0005917
0.000589147
0.000586065
0.000582436
0.0005782
0.000573234
0.000567485
0.000561092
0.000554135
0.000546479
0.00053803
0.000528847
0.000518732
0.000507263
0.000494027
0.000478674
0.00046096
0.000440637
0.000417521
0.000391573
0.000362789
0.000330452
0.000290932
0.000240678
0.000180272
0.000113503
5.13842e-05
9.29895e-06
0.000616886
0.000619382
0.000621175
0.00062229
0.000622841
0.000622947
0.000622695
0.00062208
0.000621038
0.000619482
0.000617337
0.000614587
0.000611254
0.000607333
0.000602804
0.000597735
0.000592174
0.000585894
0.000578772
0.000571012
0.000562724
0.000553797
0.00054408
0.000533674
0.000522478
0.000510064
0.000495855
0.000479452
0.000460732
0.000439585
0.000416101
0.000390755
0.00036415
0.000335401
0.000299101
0.000253743
0.000197302
0.000131567
6.47836e-05
9.70301e-06
0.000642323
0.000644388
0.000645534
0.000645899
0.00064566
0.000644965
0.000643885
0.000642345
0.000640134
0.000637188
0.000633442
0.000628939
0.000623751
0.000617989
0.000611724
0.00060509
0.000598151
0.000590616
0.000582231
0.000573034
0.000563175
0.000552678
0.000541559
0.000529871
0.000517499
0.000504135
0.000489202
0.000472265
0.000453202
0.000432066
0.000409198
0.000385422
0.000361876
0.00033742
0.000306989
0.000267248
0.000218074
0.000157425
8.50222e-05
1.11561e-05
0.000665545
0.000666559
0.00066651
0.000665608
0.000664083
0.000662103
0.00065965
0.000656458
0.000652377
0.000647379
0.000641502
0.000634909
0.000627795
0.000620348
0.000612628
0.000604674
0.000596446
0.000587648
0.000577911
0.000567208
0.000555639
0.000543243
0.000530185
0.000516754
0.000502842
0.000488221
0.000472498
0.000455363
0.000436779
0.000416822
0.000395818
0.000374207
0.000352646
0.000331085
0.000305908
0.000271942
0.000227969
0.000169801
9.42048e-05
1.18867e-05
0.000684668
0.000684118
0.000682342
0.000679672
0.000676401
0.000672646
0.000668221
0.000662845
0.000656642
0.000649754
0.000642336
0.000634491
0.000626341
0.00061798
0.000609351
0.000600334
0.000590828
0.000580519
0.000569039
0.000556321
0.00054246
0.000527631
0.000512139
0.000496261
0.000479984
0.000463421
0.000446375
0.000428711
0.000410458
0.000391586
0.00037238
0.000352974
0.000333212
0.000312335
0.00028814
0.000257235
0.000214948
0.000159602
8.62594e-05
1.11688e-05
0.000698004
0.000695533
0.000691743
0.000687135
0.000682097
0.00067671
0.000670622
0.000664044
0.000657206
0.000650288
0.000643275
0.000635946
0.000628
0.000619194
0.000609415
0.00059869
0.000587043
0.000574292
0.000560111
0.000544406
0.000527419
0.000509522
0.000490995
0.000472006
0.000452765
0.000433665
0.000414683
0.000395666
0.000376569
0.000357178
0.00033772
0.000318169
0.000298027
0.000276398
0.000251923
0.000222317
0.000184072
0.000134515
7.18802e-05
1.02844e-05
0.000705456
0.000700956
0.000695422
0.000689617
0.000684065
0.000678735
0.000673669
0.000669189
0.000665252
0.000661458
0.000657071
0.000651181
0.000643002
0.000632303
0.000619409
0.00060483
0.000588942
0.000571853
0.000553366
0.000533501
0.000512713
0.00049148
0.000469945
0.000448123
0.000426321
0.000404894
0.000383931
0.000363214
0.000342515
0.000321598
0.000300495
0.000279169
0.000257291
0.00023424
0.000209102
0.000180532
0.000146757
0.000105663
5.65546e-05
9.33541e-06
0.000708655
0.000702884
0.000697098
0.000692442
0.000689596
0.000688507
0.00068949
0.000692225
0.000695546
0.000697359
0.000695299
0.000687857
0.000674947
0.000657706
0.000637562
0.000615722
0.000593406
0.000571238
0.000548023
0.00052303
0.000498202
0.000474311
0.000450998
0.00042786
0.000404961
0.000382553
0.000360826
0.000339526
0.000318206
0.00029662
0.000274798
0.000252504
0.000229394
0.000205172
0.000179373
0.000151397
0.000120527
8.60641e-05
4.76825e-05
8.41377e-06
0.000710952
0.000705888
0.000702827
0.000703358
0.000708299
0.000717711
0.000731292
0.000746756
0.000759486
0.000763761
0.00075519
0.000734141
0.000705854
0.000675704
0.000645997
0.000616563
0.000587775
0.000560644
0.000534488
0.000508499
0.000483239
0.000459435
0.000436469
0.000414086
0.000392458
0.000371407
0.000350959
0.000330926
0.000311007
0.000291048
0.000270546
0.000249009
0.000226343
0.000202549
0.000177137
0.000149566
0.000119187
8.58485e-05
4.90903e-05
8.48534e-06
0.000716369
0.000714875
0.000718327
0.000728825
0.000747583
0.000774741
0.000807951
0.000837359
0.000849281
0.000833125
0.000795985
0.000753224
0.000708302
0.00066581
0.000628875
0.000596379
0.000567337
0.000541041
0.000517075
0.000495066
0.00047466
0.000455408
0.000436699
0.000418329
0.000400043
0.000381715
0.000363179
0.000344527
0.000325794
0.000306581
0.000286237
0.000264661
0.000241689
0.00021737
0.000191943
0.000165276
0.00013632
0.000102844
6.26009e-05
9.77327e-06
0.000727874
0.000732667
0.000745908
0.000770419
0.000808224
0.000858318
0.000897749
0.000906101
0.000884143
0.000840474
0.000790813
0.000738448
0.00068851
0.000646128
0.000610853
0.000581534
0.000557237
0.000537166
0.000520406
0.000505825
0.000491957
0.000478291
0.000464402
0.000449992
0.000435133
0.000419679
0.00040331
0.000385814
0.000367009
0.000346407
0.000323681
0.000298504
0.000270936
0.00024125
0.000209724
0.000176667
0.000141998
0.000105144
6.36553e-05
1.07109e-05
0.000746207
0.000758615
0.000782767
0.000822183
0.000877891
0.000920141
0.000923803
0.0009008
0.000861295
0.000817736
0.00077409
0.000725201
0.000680207
0.000642471
0.000612348
0.000589207
0.000571977
0.000559198
0.000549186
0.000540089
0.000531155
0.000521961
0.00051215
0.000501367
0.000489256
0.000475599
0.000460381
0.000443435
0.000424297
0.000402458
0.00037744
0.000348977
0.000316947
0.000281316