/*--------------------------------*- C++ -*----------------------------------*\
  =========                 |
  \\      /  F ield         | OpenFOAM: The Open Source CFD Toolbox
   \\    /   O peration     | Website:  https://openfoam.org
    \\  /    A nd           | Version:  8
     \\/     M anipulation  |
\*---------------------------------------------------------------------------*/
FoamFile
{
    version     2.0;
    format      ascii;
    class       volScalarField;
    location    "3.55";
    object      p;
}
// * * * * * * * * * * * * * * * * * * * * * * * * * * * * * * * * * * * * * //

dimensions      [1 -1 -2 0 0 0 0];

internalField   nonuniform List<scalar> 
9150
(
391.575
364.543
339.073
321.873
313.568
313.558
321.848
339.037
364.503
391.538
362.715
343.126
327.503
315.692
309.716
309.709
315.674
327.476
343.094
362.682
333.431
319.827
311.324
303.554
299.452
299.448
303.54
311.303
319.801
333.402
308.733
298.66
293.236
287.858
284.893
284.889
287.846
293.218
298.637
308.707
287.459
278.457
273.931
269.747
267.302
267.298
269.736
273.915
278.436
287.434
24.5201
20.9032
45.9186
60.0237
66.6322
66.5247
59.7105
45.4441
20.2507
23.6497
194.63
170.671
165.281
164.025
164.144
164.084
163.853
165.017
170.333
194.292
298.904
267.819
251.978
242.086
237.44
237.405
241.988
251.832
267.648
298.747
379.494
337.565
309.888
292.529
284.032
284.011
292.471
309.805
337.474
379.417
430.932
377.83
339.222
317.168
307.026
307.012
317.131
339.17
377.776
430.891
-56.4621
-19.4895
-31.7355
-23.6936
-28.0379
-29.4548
-24.5819
-34.2902
-24.7861
-66.9973
-49.0597
-32.4653
-51.2292
-44.2607
-48.644
-49.7092
-44.5973
-55.3082
-36.1598
-56.539
-91.6534
-61.8454
-94.3175
-86.503
-83.9629
-84.3913
-86.9924
-97.1414
-64.696
-96.3727
-271.045
-146.803
-131.622
-112.759
-96.6384
-96.8539
-113.615
-133.616
-148.338
-274.761
-420.638
-179.176
-83.9382
-53.9012
-38.0983
-38.2638
-54.4729
-84.8668
-180.245
-423.225
1827.41
1827.18
1826.95
1826.73
1826.5
1826.29
1826.1
1825.92
1825.78
1825.66
1807.64
1807.41
1807.18
1806.96
1806.74
1806.54
1806.35
1806.18
1806.05
1805.97
1787.92
1787.7
1787.47
1787.27
1787.07
1786.87
1786.7
1786.55
1786.44
1786.35
1768.25
1768.04
1767.84
1767.64
1767.44
1767.26
1767.1
1766.95
1766.82
1766.7
1748.62
1748.41
1748.22
1748.04
1747.86
1747.7
1747.56
1747.43
1747.31
1747.21
1728.97
1728.78
1728.6
1728.45
1728.3
1728.18
1728.09
1728.01
1727.97
1727.99
1709.3
1709.12
1708.95
1708.82
1708.71
1708.64
1708.6
1708.6
1708.65
1708.78
1689.57
1689.38
1689.21
1689.07
1688.98
1688.94
1688.93
1688.96
1689.02
1689.11
1669.79
1669.54
1669.32
1669.16
1669.09
1669.09
1669.13
1669.21
1669.31
1669.41
1649.96
1649.58
1649.2
1648.95
1648.92
1649.03
1649.39
1649.45
1649.59
1649.72
1630.15
1629.56
1628.62
1628
1628.59
1628.59
1629.26
1629.65
1629.92
1630.14
1610.92
1610.32
1610.09
1616.01
1613.96
1610.36
1610.41
1610.57
1610.72
1610.87
1591.9
1593.79
1594.97
1595.09
1594.6
1593.59
1591.87
1591.62
1591.58
1591.57
1573.39
1575.7
1577.27
1577.03
1576.7
1576.21
1574.14
1572.72
1572.36
1572.17
1554.71
1555.39
1556.32
1558.55
1559.08
1558.55
1554.5
1553.1
1552.59
1552.27
1534.21
1534.22
1534.27
1534.35
1534.92
1534.16
1532.54
1532.18
1531.91
1531.73
1513.68
1513.42
1513.13
1512.83
1512.5
1512.11
1511.72
1511.41
1511.18
1511.02
1493.03
1492.58
1492.16
1491.74
1491.33
1490.96
1490.61
1490.32
1490.11
1489.98
1472.24
1471.61
1471.02
1470.51
1470.06
1469.64
1469.26
1468.94
1468.72
1468.63
1451.31
1450.43
1449.65
1449.05
1448.58
1448.13
1447.61
1447.16
1446.93
1446.91
1430.2
1428.9
1427.77
1427.16
1426.92
1426.55
1425.59
1424.37
1424.06
1424.78
1409.11
1407.28
1406.77
1404.73
1405.67
1406.48
1405.09
1405.64
1405.6
1404.95
1390.06
1388.12
1392.69
1393.06
1391.09
1390.23
1390.77
1392.58
1394.65
1396.43
1373.39
1372.79
1375.43
1376.38
1375.73
1375.46
1375.73
1376.46
1377.01
1376.2
1356.28
1356.9
1356.66
1358.57
1358.78
1358.89
1358.82
1358.49
1359.08
1357.78
1336.56
1337.23
1338.12
1336.73
1337.52
1344.6
1344.22
1338.03
1334.87
1333.94
1315.35
1315.34
1317.28
1319.25
1317.55
1316.53
1316.28
1314.09
1311.5
1309.48
1297.25
1299.75
1298.84
1296.47
1296.98
1294.54
1292
1289.58
1287.32
1285
1277.02
1282.98
1277.95
1275.24
1273.6
1271.31
1268.68
1266.03
1263.18
1260.34
1263.16
1260
1257.4
1254.6
1251.81
1248.88
1245.74
1242.43
1238.98
1235.43
1241.68
1239.39
1236.17
1233.21
1230.01
1226.65
1222.97
1219.06
1214.9
1210.47
1222.12
1219.55
1216.23
1212.93
1209.19
1205.41
1201.12
1196.7
1192.06
1186.96
1203.04
1199.54
1198.06
1192.96
1189.41
1185.32
1180.43
1176.83
1171.55
1166.46
1184.9
1182.1
1179.17
1175.08
1171.18
1166.79
1161.9
1159.18
1159.37
1149.15
1168.24
1166.05
1161.94
1158.45
1154.5
1150.06
1145.44
1141.96
1156.5
1136.36
1151.61
1150.42
1146.26
1143.02
1139.28
1134.89
1130.33
1127.04
1145.61
1129.18
1137.32
1135.31
1132.44
1129.45
1126.19
1122.38
1118.97
1118
1138.01
1124.39
1123.98
1121.29
1118.71
1116.59
1114.14
1111.17
1109.65
1113.1
1142
1130.67
1107.45
1106.41
1105.29
1104.3
1102.97
1101.22
1101.83
1109.88
1129.97
1130.58
1092.58
1092.16
1091.8
1091.48
1090.97
1090.24
1091.76
1100.55
1111.69
1113.24
1075.93
1076.54
1077.12
1077.7
1078.22
1078.61
1080.43
1087.98
1100.24
1102.99
1059.72
1060.6
1061.58
1062.7
1064.02
1065.48
1067.49
1072.7
1084.99
1094.56
1042.34
1043.06
1044.15
1045.54
1047.38
1049.73
1052.65
1056.77
1064.45
1075.93
1021.46
1022.44
1023.73
1025.23
1027.16
1029.66
1032.82
1036.73
1041.62
1048.36
998.925
1000.65
1001.52
1002.59
1004.36
1006.65
1009.48
1012.91
1016.92
1021.37
971.475
977.442
974.245
973.822
976.853
980.243
983.681
987.358
991.253
995.683
949.461
952.297
950.504
949.85
950.569
952.481
955.206
958.852
962.657
968.192
945.514
945.69
945.579
945.447
945.364
945.051
944.016
941.824
938.833
942.822
944.892
944.889
944.881
944.923
945.032
945.221
945.534
946.008
946.673
946.948
944.459
944.54
944.605
944.629
944.598
944.511
944.396
944.39
943.344
938.052
941.337
942.563
942.811
942.655
941.926
940.347
937.137
931.204
925.537
922.315
910.212
916.031
919.397
919.095
916.622
913.084
909.094
905.111
901.986
900.436
878.101
879.883
881.091
881.361
880.875
879.974
878.939
877.973
877.209
876.75
852.5
852.994
853.261
853.25
852.977
852.505
851.926
851.346
850.896
850.716
826.877
826.714
826.397
825.917
825.3
824.603
823.901
823.279
822.829
822.649
801.514
800.71
799.797
798.783
797.689
796.553
795.423
794.354
793.41
792.695
776.886
775.487
773.962
772.312
770.566
768.728
766.822
764.905
762.985
761.281
753.124
751.179
749.064
746.774
744.299
741.661
738.864
735.918
732.88
730.03
730.548
728.194
725.602
722.777
719.701
716.357
712.731
708.795
704.556
700.249
709.602
707.047
704.23
701.137
697.73
693.967
689.798
685.154
679.958
674.243
690.686
688.202
685.466
682.444
679.092
675.349
671.146
666.388
661.062
654.971
673.888
671.737
669.363
666.724
663.769
660.428
656.625
652.303
647.421
641.74
658.96
657.319
655.494
653.436
651.086
648.383
645.265
641.708
637.646
632.409
645.361
644.319
643.125
641.734
640.09
638.169
635.861
633.217
630.085
625.346
632.45
632.012
631.461
630.757
629.872
628.768
627.428
625.886
624.013
620.496
619.593
619.684
619.695
619.605
619.416
619.123
618.784
618.526
618.328
616.529
606.241
606.711
607.116
607.481
607.799
608.165
608.773
609.979
612.052
612.321
592.026
592.668
593.217
593.674
594.082
594.614
595.544
597.54
601.154
601.771
576.854
577.463
577.873
577.99
577.88
577.547
577.179
577.535
578.781
574.716
561.014
561.562
561.744
561.449
560.518
558.765
556.098
553.704
550.148
541.789
544.834
545.486
545.662
545.238
544.274
542.685
539.662
535.634
533.644
523.453
528.004
528.634
528.633
528.598
529.365
528.694
526.975
522.749
515.88
502.325
510.105
510.49
510.986
513.199
513.841
517.165
511.949
502.314
489.714
473.059
491.725
493.931
498.972
505.204
507.383
499.311
487.771
474.638
457.369
436.792
472.981
481.212
490.564
494.892
480.263
473.44
458.57
439.903
420.468
398.408
453.568
469.142
476.598
454.134
448.895
437.444
422.237
404.309
383.378
359.371
443.418
456.532
430.852
426.94
417.433
404.962
389.029
369.579
346.927
321.574
440.979
422.046
415.343
404.674
391.742
376.213
357.71
336.183
311.959
285.698
416.742
411.368
397.131
381.37
365.042
346.918
326.339
303.207
277.923
251.252
381.704
377.64
366.489
351.141
334.171
315.282
293.955
270.218
244.657
218.139
341.32
342.025
331.96
317.202
301
282.867
262.266
239.316
214.634
188.872
297.777
302.151
294.654
282.069
267.901
251.845
233.54
213.298
191.898
170.195
263.737
266.668
259.871
249.011
236.745
222.893
207.286
190.457
173.442
157.318
232.016
233.927
227.855
218.455
207.689
195.45
181.675
167.128
153.242
141.301
205.647
206.237
200.116
191.514
181.769
170.601
157.777
143.782
129.268
113.816
182.384
181.879
175.831
168.045
159.481
149.781
138.718
126.722
114.243
101.618
160.79
159.876
154.202
147.358
140.136
132.13
123.185
113.732
104.428
96.7971
140.685
139.6
134.464
128.609
122.744
116.441
109.622
102.713
96.6611
93.2839
121.736
120.343
115.714
110.728
105.978
101.053
95.9768
91.2978
88.3541
87.883
103.005
101.438
97.2621
92.9492
88.8851
84.6887
80.4541
76.9027
75.2604
73.2406
84.3605
82.8993
79.1497
75.3528
71.6119
67.5773
63.319
59.5601
56.633
49.0134
65.9987
64.8763
61.6417
58.3677
54.8783
50.9205
46.4615
42.0981
37.2587
25.7684
47.0887
46.9366
44.7491
42.2499
39.2829
35.7237
31.3636
26.6969
20.8261
9.91026
27.4522
29.1125
28.8819
27.665
25.7538
23.0219
19.0793
14.5381
8.78612
1.34115
9.46182
14.2629
17.0583
16.9489
15.8679
13.7491
10.1184
5.94428
1.05922
-2.42391
8.86008
10.1974
12.1145
10.5366
8.91375
6.73356
3.15044
-0.475992
-4.43202
-4.37786
14.6549
9.31793
7.89052
4.18185
1.8917
-0.364218
-4.02813
-6.89275
-10.9244
-6.73561
4.77622
0.0953813
-0.746236
-3.48295
-5.33641
-7.31437
-11.0936
-12.5642
-18.5748
-11.9024
-9.06919
-4.99982
-7.38145
-9.26651
-11.3803
-12.8469
-14.6167
-12.7662
-16.0227
-22.8445
-24.7589
0.199797
-12.9192
-14.5414
-18.1581
-19.4599
-17.0962
-12.903
-1.65303
-39.3316
1825.57
1825.51
1825.48
1825.46
1825.43
1825.39
1825.35
1825.32
1825.32
1825.33
1825.36
1825.39
1825.46
1825.46
1825.5
1825.54
1825.59
1825.65
1825.72
1825.81
1825.89
1825.98
1826.08
1826.17
1826.26
1826.34
1826.41
1826.47
1826.53
1826.59
1826.66
1826.74
1826.82
1826.9
1826.98
1827.06
1827.14
1827.2
1827.23
1827.32
1805.93
1805.94
1806
1806.06
1806.07
1806.03
1805.95
1805.87
1805.8
1805.75
1805.73
1805.72
1805.72
1805.71
1805.74
1805.78
1805.85
1805.95
1806.07
1806.2
1806.31
1806.42
1806.51
1806.6
1806.68
1806.75
1806.81
1806.86
1806.91
1807.42
1807.24
1807.17
1807.27
1807.36
1807.43
1807.51
1807.59
1807.67
1807.73
1807.78
1786.31
1786.32
1786.33
1786.32
1786.36
1786.39
1786.35
1786.28
1786.23
1786.19
1786.12
1786.11
1786.1
1786.11
1786.13
1786.16
1786.19
1786.25
1786.37
1786.49
1786.66
1786.85
1787.01
1787.13
1787.25
1787.36
1787.46
1787.74
1788.12
1788.25
1788.3
1788.34
1788.19
1787.95
1787.92
1788.02
1788.12
1788.19
1788.23
1788.27
1766.57
1766.55
1766.48
1767.36
1766.8
1766.68
1766.64
1766.62
1766.61
1766.6
1766.6
1766.6
1766.62
1766.65
1766.68
1766.73
1766.77
1767.19
1768.19
1768.15
1767.68
1767.61
1767.7
1767.78
1767.9
1768.03
1768.16
1768.28
1768.72
1769.05
1769.03
1768.87
1768.87
1768.94
1768.98
1768.95
1768.76
1768.8
1768.85
1768.86
1747.56
1749.27
1749.33
1749.21
1748.94
1748.63
1747.71
1747.02
1747.07
1747.1
1747.12
1747.17
1747.22
1747.29
1747.37
1747.47
1747.61
1748.42
1748.88
1748.83
1748.78
1748.67
1748.32
1748.26
1748.52
1748.7
1748.84
1748.96
1749.09
1749.19
1749.34
1749.58
1749.63
1749.41
1749.64
1749.76
1749.81
1749.96
1750.03
1750.01
1728.46
1729.56
1730.61
1730.4
1730.09
1729.79
1729.44
1728.08
1727.8
1727.73
1727.74
1727.79
1727.86
1727.97
1728.1
1728.26
1728.48
1728.77
1728.94
1729.45
1729.56
1729.65
1729.6
1729.07
1729.29
1729.47
1729.53
1729.65
1729.67
1729.84
1729.95
1730.05
1730.21
1730.24
1730.23
1730.19
1730.41
1730.47
1730.51
1730.6
1709.06
1709.5
1709.72
1709.84
1710.98
1710.92
1709.43
1708.37
1708.23
1708.16
1708.2
1708.3
1708.43
1708.57
1708.73
1708.9
1709.1
1709.3
1709.5
1709.66
1709.57
1709.57
1709.53
1709.58
1709.97
1710.04
1710.35
1710.42
1710.28
1710.18
1710.43
1710.72
1710.77
1710.63
1710.45
1710.39
1710.9
1711.25
1711.48
1711.63
1689.26
1689.43
1689.53
1689.41
1689.36
1689.1
1689.04
1688.71
1688.29
1688.27
1688.51
1688.71
1688.92
1689.13
1689.32
1689.53
1689.73
1689.92
1690.09
1690.21
1690.27
1690.3
1690.09
1689.78
1691.37
1690.65
1691.97
1692.09
1692.49
1693.57
1693.78
1692.99
1693.03
1692.82
1693.92
1693.5
1691.8
1692.3
1692.26
1692.59
1669.51
1669.61
1669.64
1669.6
1669.56
1669.4
1668.75
1667.89
1669.21
1667.84
1668.47
1669.02
1669.39
1669.68
1669.94
1670.18
1670.42
1670.66
1670.88
1671.07
1671.22
1671.14
1671.82
1672.72
1674.08
1674.12
1673.67
1673.11
1672.38
1673.03
1673.36
1673.77
1673.94
1673.88
1674.36
1673.83
1673.06
1675.4
1675.19
1675.32
1649.85
1649.96
1650.02
1649.96
1649.64
1649.52
1649.9
1651.92
1653.14
1652.18
1650
1649.92
1650.23
1650.47
1650.7
1650.93
1651.2
1651.52
1651.88
1652.24
1652.63
1653.88
1655.86
1656.11
1656.25
1656.24
1656.11
1654.61
1654.32
1654.42
1654.71
1655.09
1655.47
1655.87
1656.45
1656.98
1656.39
1658.01
1658.06
1658.39
1630.34
1630.53
1630.72
1630.88
1632.33
1635.02
1634.98
1634.96
1634.97
1634.76
1632.56
1631.65
1631.53
1631.55
1631.63
1632.08
1632.24
1632.36
1632.86
1633.39
1633.96
1634.84
1637.13
1638.35
1638.57
1638.56
1638.05
1636.61
1636.09
1635.95
1636.05
1636.33
1636.73
1637.24
1637.86
1638.53
1639.17
1640.62
1642.07
1642.01
1611.03
1611.23
1611.5
1611.86
1612.56
1615.34
1617.24
1617.5
1617.41
1616.41
1613.66
1612.95
1612.66
1612.56
1612.57
1612.61
1615.24
1613.24
1613.8
1614.45
1615.16
1616.04
1617.19
1618.19
1619.25
1622.04
1618.95
1617.41
1617.09
1616.99
1617.07
1617.33
1617.68
1618.17
1618.77
1619.47
1620.26
1621.12
1621.82
1622.08
1591.62
1591.78
1592.06
1592.41
1592.97
1593.84
1594.74
1596.17
1595.88
1594.52
1593.76
1593.47
1593.33
1593.3
1593.34
1593.49
1596.33
1594.91
1594.89
1595.33
1595.87
1596.47
1597.13
1597.7
1597.95
1597.96
1597.93
1597.74
1597.69
1597.7
1597.82
1598.04
1598.38
1598.79
1599.3
1599.91
1600.58
1601.31
1601.95
1602.42
1572.01
1572.1
1572.24
1572.48
1572.86
1573.29
1573.71
1573.96
1574.08
1573.99
1573.86
1573.82
1573.9
1574.04
1574.29
1575.59
1576.17
1576.32
1576.17
1575.91
1576.46
1576.79
1577.3
1577.72
1578
1578.12
1578.18
1578.21
1578.2
1578.23
1578.33
1578.52
1578.78
1579.12
1579.69
1580.14
1580.87
1581.77
1582.84
1584.14
1552.1
1552.06
1552.12
1552.28
1552.52
1552.81
1553.09
1553.34
1553.52
1553.65
1553.75
1553.95
1554.35
1554.74
1555.11
1556.99
1557.37
1557.6
1557.93
1558.21
1558.52
1557.9
1557.67
1558.13
1558.36
1558.49
1558.57
1558.6
1558.61
1558.68
1558.76
1558.84
1558.95
1559.26
1559.57
1560.61
1561.4
1562.03
1563.77
1565.86
1531.63
1531.63
1531.71
1531.82
1532.02
1532.28
1532.57
1532.86
1533.15
1533.41
1533.9
1534.63
1534.9
1535.27
1536.1
1536.67
1537.36
1538.07
1538.69
1539.74
1540.24
1540.61
1540.94
1540.25
1539.09
1539.11
1539.11
1539.09
1539.04
1538.97
1538.91
1538.89
1538.9
1539
1539.2
1539.65
1540.95
1542.05
1544.02
1546.96
1510.92
1510.92
1511.04
1511.14
1511.37
1511.67
1512.01
1512.39
1512.8
1513.19
1514.1
1514.65
1515.14
1515.65
1516.2
1517.06
1518.34
1518.84
1519.12
1519.32
1519.57
1519.8
1520.1
1520.48
1519.56
1519.66
1519.69
1519.64
1519.54
1519.38
1519.17
1518.95
1518.72
1518.58
1518.46
1518.49
1518.89
1520.13
1522.1
1525.72
1489.92
1489.94
1490.04
1490.24
1490.52
1490.89
1491.3
1491.75
1492.28
1492.92
1493.57
1494.3
1494.94
1495.65
1496.41
1497.17
1497.7
1498.71
1499.25
1499.68
1500.04
1500.33
1500.52
1500.59
1500.66
1500.73
1500.72
1500.63
1500.41
1500.08
1499.7
1499.23
1498.72
1498.17
1497.54
1496.93
1496.28
1495.85
1496.49
1500.02
1468.61
1468.66
1468.79
1469.03
1469.41
1469.91
1470.42
1470.86
1471.64
1472.32
1472.99
1474.06
1474.91
1475.78
1476.78
1477.54
1478.96
1479.91
1479.45
1480.19
1480.78
1481.25
1481.59
1481.83
1482
1482.1
1482.12
1482.02
1481.77
1481.37
1480.84
1480.19
1479.46
1478.71
1477.87
1476.85
1475.52
1474.26
1476.41
1481.03
1446.97
1447.04
1447.16
1447.48
1447.98
1448.81
1449.77
1450.17
1451.48
1452.3
1452.45
1454.21
1454.72
1457.62
1456.96
1459.57
1458.68
1460.91
1459.9
1461.04
1461.87
1462.53
1463.07
1463.42
1463.68
1463.93
1464.12
1464.17
1463.99
1463.6
1463.02
1462.33
1461.65
1461.15
1460.83
1460.41
1459.63
1464.54
1467.06
1468.65
1425.19
1425.3
1425.18
1426
1428.28
1427.78
1429.56
1429.42
1430.65
1431.5
1432.97
1434.21
1434.4
1437.25
1437.13
1438.73
1439.42
1441.72
1441.9
1443.03
1443.66
1444.37
1445.07
1445.44
1445.7
1446.18
1446.82
1447.31
1447.36
1447.08
1446.59
1446.01
1445.52
1445.09
1446.07
1449.19
1449.07
1456.21
1458.13
1457.57
1406.08
1408
1410.26
1411.79
1407.89
1409.15
1409.11
1408.44
1408.96
1410.61
1412.73
1413.68
1413.92
1415.43
1417.7
1423.18
1425.43
1421.64
1425.26
1425.44
1425.44
1426.94
1428.35
1428.24
1428.52
1430.42
1431.1
1431.64
1432.03
1431.83
1431.23
1430.28
1428.84
1430.42
1437.96
1430.65
1439.63
1439.33
1443.04
1443.64
1398.26
1395.32
1391.49
1390.73
1390.73
1388.48
1389.07
1392.51
1395.43
1392.72
1394.2
1394.93
1399.73
1401.41
1402.67
1405.4
1406.34
1404.87
1412.96
1408.65
1412.24
1413.34
1413.81
1415.47
1416.97
1417.81
1416.68
1418.61
1419.05
1419.75
1419.85
1419.26
1422.3
1429.08
1429.85
1423.43
1421.44
1421.69
1425.01
1426.4
1373.66
1373.47
1373.18
1372.39
1370.88
1375.48
1376.5
1377.09
1378.19
1379.49
1381.56
1382.55
1381.65
1383.81
1388.04
1389.6
1389.89
1391.08
1393.95
1396.37
1398.27
1399.86
1401.02
1401.27
1401.72
1402.75
1401.96
1403.64
1404.82
1409.7
1411.53
1411.6
1418.92
1421.63
1421.69
1421.18
1419.93
1416.92
1408.42
1415.73
1354.72
1352.13
1351.4
1350.32
1350.18
1358.53
1355.49
1353.87
1355.3
1356.36
1357.16
1359.84
1363.95
1366.5
1368.94
1371.54
1375.18
1376.18
1379.45
1381.63
1384.86
1386.87
1385.72
1392.91
1390.34
1389.58
1391.43
1393.24
1394.76
1395.14
1399.01
1401.36
1406.39
1414.93
1415.74
1415.38
1415.75
1413.93
1400.45
1407.79
1332
1329.84
1328.36
1327.42
1327.13
1327.29
1328.43
1329.94
1331.56
1333.35
1335.58
1338.4
1341.65
1344.97
1348.21
1351.6
1355.23
1358.4
1361.45
1364.58
1366.8
1368.46
1370.76
1374.02
1376.07
1377.23
1379.71
1381.32
1383.13
1383.36
1385.06
1387.42
1389.36
1392.46
1394.98
1395.6
1390.41
1391.13
1385.08
1389.21
1307.48
1305.5
1303.87
1302.67
1302.09
1302.13
1302.85
1304.19
1306.1
1308.54
1311.5
1314.83
1318.27
1321.75
1325.34
1328.98
1332.67
1336.85
1341.55
1345.72
1349.05
1351.97
1355.07
1358.54
1361.39
1362.97
1367.48
1368.52
1368.22
1369.4
1372.39
1375.08
1377.38
1379.43
1381.33
1382.97
1383.48
1378.2
1372.45
1372.96
1282.65
1280.33
1278.33
1276.81
1275.93
1275.89
1276.86
1278.85
1281.64
1284.98
1288.78
1292.64
1295.68
1298.07
1300.9
1303.59
1305.47
1309.08
1318.3
1326.4
1330.06
1332.75
1336.31
1340.45
1344.36
1344.96
1347.32
1347.97
1353.6
1356.39
1359.22
1362.35
1365.13
1367.41
1369.17
1368.67
1364.96
1365.01
1364.51
1363.9
1257.39
1254.46
1251.89
1249.98
1249.13
1249.66
1251.15
1252.45
1253.18
1254.2
1257.76
1264.96
1269.81
1270.35
1273.64
1282.49
1291.89
1301.38
1315.15
1302.7
1309.49
1313.15
1318.83
1324.68
1325.83
1329.12
1328.79
1333.39
1336.15
1338.42
1343.64
1348.96
1352.86
1355.14
1357.14
1357.67
1353.58
1354.35
1354.14
1352.87
1231.65
1227.77
1224.3
1221.81
1220.29
1217.26
1210.78
1203.64
1201.97
1205.49
1215.51
1229.42
1248.34
1260.58
1277.61
1290.35
1298.01
1304.55
1303.71
1303.71
1305.42
1307.64
1297.25
1304.09
1310.61
1310.15
1318.94
1323.87
1326.82
1330.97
1335.3
1335.81
1339.51
1341.37
1342.41
1342.95
1341.69
1342.55
1345.51
1344.89
1205.48
1199.94
1194.34
1188.2
1178.71
1165.86
1160.21
1162.28
1167.47
1174.21
1183.9
1195.95
1204.52
1218.29
1239.02
1242.92
1253.46
1257.97
1265.29
1269.13
1270.48
1269.16
1271.05
1276.47
1281.73
1284.35
1298.97
1301.06
1305.21
1312.05
1316.98
1323.72
1328.47
1331.15
1335.48
1336.21
1336.65
1332.69
1326.42
1323.64
1180.9
1173.63
1165.1
1155
1149.25
1148.68
1148.75
1149.05
1150.27
1152.31
1155.51
1156.22
1159.24
1173.35
1189.41
1199.36
1206.74
1213.88
1221.43
1229.17
1236.68
1241.24
1239.56
1254.77
1250.42
1257.13
1265.32
1271.04
1277.75
1282.83
1287.86
1291.86
1296.88
1303.26
1308.45
1311.44
1312.98
1314.78
1316.97
1316.46
1160.08
1151.98
1144.31
1141.99
1140.71
1140.88
1141.49
1142.2
1142.64
1142.33
1141.46
1140.8
1146.69
1150.59
1157
1163.95
1171.14
1178.81
1186.89
1194.63
1200.72
1208.76
1215.03
1221.78
1223.06
1225.98
1233.67
1238.83
1245.07
1249.27
1256.38
1262.05
1267.87
1274.01
1279.97
1285.37
1290.22
1293.07
1290.6
1295.57
1143.99
1136.38
1134.49
1137.92
1137.16
1137.47
1137.83
1138
1137.54
1135.78
1132.67
1131.63
1135.81
1134.65
1135.31
1138.68
1143.66
1149.51
1155.83
1162.66
1170.36
1177.73
1185.55
1193.91
1199.8
1204.64
1210.03
1214.6
1218.19
1222.18
1226.88
1232.48
1238.5
1244.51
1250.26
1255.49
1259.97
1263.03
1263.48
1261.07
1135.36
1126.43
1129.93
1133.79
1134.2
1134.09
1134.03
1134.05
1133.37
1131.21
1128.04
1125.74
1126.84
1125.54
1122.81
1122.23
1123.96
1127.04
1130.77
1133.59
1137.26
1144.12
1153.19
1161.83
1165.6
1180.93
1175.47
1183.4
1189.02
1193.96
1199.03
1206.01
1210.06
1215.46
1220.85
1225.77
1229.99
1233.1
1234.17
1232.65
1131.94
1120.17
1125.82
1129.74
1130.27
1129.99
1130.23
1131.55
1133.41
1126.76
1123.15
1120.51
1119.64
1120.17
1117.21
1112.84
1110.54
1110.05
1110.63
1115.95
1120.66
1114.3
1123.06
1131.24
1133.54
1141.16
1144.8
1152.12
1158.52
1164.51
1170.29
1175.98
1181.61
1187.09
1192.14
1196.64
1200.44
1203.21
1204.52
1204.3
1128.12
1115.22
1119.01
1125.5
1126.81
1126.41
1126.63
1128.59
1127.3
1123.81
1118.23
1117.09
1115.53
1115.46
1111.74
1106.13
1101.45
1098.66
1098.48
1101.14
1125.2
1104.54
1103.92
1111.71
1111.49
1119.34
1121.07
1127.26
1133.41
1139.17
1144.74
1150.22
1155.54
1160.6
1165.21
1169.25
1172.54
1174.79
1175.78
1176.22
1118.15
1113.2
1106.22
1119.01
1123.24
1123.58
1121.18
1121.61
1120.37
1118.88
1117.11
1116.4
1115.05
1113.87
1106.4
1098.45
1093.59
1090.74
1091.1
1096.79
1104.32
1089.29
1088.68
1096.72
1094.94
1102.82
1104.64
1107.17
1111.89
1116.77
1121.74
1126.73
1131.61
1136.21
1140.37
1143.97
1146.82
1148.67
1149.34
1149.8
1103.37
1105.88
1108.15
1106.16
1114.61
1117.49
1115.03
1114.15
1116.7
1116.14
1118.01
1116.54
1113.55
1107.48
1092.96
1090.57
1087.48
1081.64
1079.34
1089.3
1090.32
1088.78
1085.76
1084.32
1082.79
1089.25
1086.24
1088.92
1092.44
1096.4
1100.7
1105.21
1109.7
1113.94
1117.74
1120.98
1123.5
1125.1
1125.64
1126.04
1107.2
1102.39
1105.73
1112.63
1107.85
1105.88
1104.97
1104.38
1107.06
1110.86
1110.97
1105.96
1098.23
1090.48
1092.75
1088.52
1082.4
1081.12
1081.01
1082.46
1080.54
1078.24
1075.39
1072.39
1070.77
1070.58
1071.14
1072.62
1074.92
1078.04
1081.82
1085.98
1090.09
1093.95
1097.44
1100.39
1102.69
1104.18
1104.73
1105.45
1102.12
1098.58
1093.08
1103.38
1107.74
1089.41
1090.99
1091.55
1095.06
1103.99
1107.18
1101.15
1094.88
1087.57
1082.27
1080.44
1078.43
1078.82
1079.02
1079.07
1075.95
1068.87
1063.87
1060.64
1058.32
1057.02
1056.29
1056.18
1057.06
1059.23
1063.09
1068.93
1073.57
1076.89
1079.79
1082.39
1084.51
1085.98
1086.7
1087.94
1095.49
1094.64
1093.09
1088.86
1083.87
1082.11
1082.18
1083.2
1084.25
1092.87
1103.36
1084.97
1076.36
1077.29
1079.52
1079.78
1079.78
1079.18
1078.25
1074.59
1063.09
1055.43
1051.5
1048.64
1046.05
1043.61
1041
1038.76
1038.18
1040.29
1042.46
1051.41
1058.17
1062.59
1065.04
1067.06
1068.94
1070.45
1071.42
1073.04
1085.09
1087.52
1086.25
1085.51
1084.42
1083.37
1083.15
1083.57
1084.84
1087.32
1087.43
1086.68
1086
1084.6
1083.2
1081.83
1079.86
1076.34
1068.1
1058.47
1049.67
1044.62
1041.42
1038.58
1035.92
1033.08
1029.82
1026.41
1031.21
1043.01
1045.71
1043.43
1045.03
1049.53
1052.73
1054.3
1055.83
1057.38
1058.68
1060.64
1058.13
1067.26
1073.1
1075.72
1077.57
1078.86
1080.16
1081.58
1083.16
1084.95
1086.07
1084.78
1082.77
1080.32
1076.5
1070.45
1064.62
1056.52
1047.72
1041.28
1037.3
1034.17
1031.51
1029.47
1027.74
1026.45
1025.23
1024.7
1030.74
1038.1
1037.92
1037.22
1037.09
1038.65
1041.44
1043.35
1044.75
1046.44
1048.23
1050.2
1026.61
1032.89
1039.4
1045.27
1050.85
1055.8
1059.16
1061.41
1063.04
1062.19
1057.7
1058.99
1059.49
1055.21
1048.74
1042.35
1037.37
1033.09
1029.62
1026.77
1024.31
1022.1
1020.27
1019.22
1018.82
1019.26
1020.34
1022.18
1026.25
1032.09
1033.08
1032.24
1031.38
1031.52
1031.91
1033.57
1035.06
1037.08
1039.4
1041.8
1000.82
1006.14
1010.99
1015.28
1019.08
1022.3
1024.71
1026.39
1027.59
1028.09
1027.7
1027.66
1027.36
1026.08
1024.07
1021.78
1019.47
1017.17
1014.18
1012.71
1010.42
1008.86
1007.51
1007.07
1008.25
1010.46
1013.16
1016.7
1021.28
1026.23
1028.32
1027.18
1026.76
1025.78
1025.44
1024.97
1026.16
1028.72
1031.77
1034.72
975.424
982.761
989.005
994.099
998.333
1001.86
1004.71
1006.92
1008.51
1009.7
1010.38
1010.54
1010.52
1009.86
1008.49
1006.56
1003.13
1000.86
999.735
997.337
995.449
994.692
991.908
989.936
993.282
998.76
1002.91
1006.87
1011.55
1016.99
1022.23
1023.36
1021.92
1022.05
1021.37
1018.94
1018.63
1021.27
1025.22
1028.82
951.088
961.131
969.034
973.77
979.078
983.096
986.256
989.493
991.802
993.748
995.093
996.154
995.873
994.788
992.831
990.033
987.578
985.685
984.54
983.955
982.628
981.581
981.102
987.469
991.139
987.091
989.434
994.642
999.737
1004.73
1009.57
1013.54
1011.92
1020.87
1019.12
1016.02
1012.77
1014.52
1019.31
1023.7
940.841
945.326
954.045
957.532
961.066
965.216
969.005
972.732
975.618
977.537
979.368
980.776
981.721
981.356
978.673
977.714
973.512
972.348
974.906
977.747
977.813
979.919
981.84
984.066
985.633
982.496
979.503
984.854
990.246
995.3
1000.47
1007.3
1013.42
1016.77
1016.68
1009.71
1006.01
1007.67
1013.69
1019.17
932.676
932.97
936.891
940.64
943.405
946.785
952.248
954.734
958.858
960.703
963.444
965.907
968.014
970.028
971.709
969.647
966.761
973.372
973.946
974.997
976.344
977.651
978.636
979.481
980.264
978.383
973.891
977.632
982.073
986.3
990.472
996.524
1005.84
1011.31
1013.23
1010.68
1004.96
1003.59
1009.55
1015.88
921.591
919.876
922.554
924.937
927.546
929.399
933.284
937.313
941.309
945.019
948.737
953.446
958.535
961.953
963.036
970.325
973.193
973.515
974.049
974.585
975.096
975.668
976.327
977.132
977.214
973.178
970.797
972.55
975.289
978.206
981.097
985.777
996.069
1004.97
1010.61
1008.93
1003
999.23
1005.15
1012.67
900.036
900.072
901.106
903.496
905.6
909.225
913.582
918.541
924.119
929.754
936.585
943.775
947.755
957.505
965.353
964.996
965.355
966.557
968.124
969.655
971.095
972.308
973.183
972.257
968.963
966.943
965.781
966.325
967.946
969.947
971.905
975.213
984.939
996.905
1007.78
1006.45
1001.1
995.173
1000.57
1009.18
876.693
877.246
878.493
880.521
883.437
887.275
891.927
897.349
903.516
909.611
916.466
926.269
930.361
930.277
931.599
938.068
946.057
948.976
949.399
950.6
952.346
954.082
956.224
958.011
956.988
956.182
956.194
957.124
958.757
960.682
962.408
964.705
972.963
986.411
1004.38
1003.43
997.852
990.229
994.94
1004.51
850.935
851.764
853.265
855.543
858.683
862.657
867.496
873.102
879.264
885.516
891.349
896.647
902.072
907.894
913.105
918.064
922.767
926.176
928.494
930.662
933.249
936.502
939.283
940.828
941.655
942.663
943.97
945.874
948.273
951.036
953.85
957.37
967.544
987.136
998.388
999.813
987.65
981.318
987.251
998.256
822.848
823.636
825.093
827.377
830.663
835.045
840.48
846.775
853.746
861.057
868.449
875.672
882.856
889.676
895.911
901.47
906.36
910.392
913.5
916.086
918.67
921.295
923.454
925.404
927.282
929.078
930.783
933.175
936.025
939.257
942.595
946.31
955.062
975.36
990.248
994.271
984.429
976.633
981.337
992.892
792.331
792.573
793.518
795.444
798.641
803.061
808.91
816.19
824.681
833.914
843.421
852.958
861.919
870.271
877.712
884.233
889.572
893.91
897.294
900.294
903.21
905.663
907.726
910.012
912.202
914.346
916.375
918.921
921.878
925.243
928.797
932.478
939.34
957.818
976.595
988.116
980.806
971.865
975.136
987.195
759.806
758.724
758.481
759.138
761.276
765.109
771.049
779.293
789.7
801.808
814.36
826.488
837.933
848.015
856.898
864.324
870.626
875.815
879.92
883.18
885.774
888.466
890.7
893.389
895.402
897.755
900.093
902.58
905.371
908.555
911.977
915.357
920.378
935.56
957.325
980.411
974.687
964.89
967.11
979.77
726.898
723.779
721.077
719.55
719.362
721.37
726.424
735.264
748.039
763.715
780.459
796.488
810.938
823.524
834.063
842.663
849.637
855.177
859.717
863.573
866.715
869.302
871.506
874.132
876.561
878.849
881.076
883.39
885.902
888.744
891.822
894.713
898.245
909.966
933.042
969.371
965.03
954.45
955.883
969.17
695.21
689.256
683.515
677.783
672.417
669.036
670.483
679.645
697.138
719.289
742.309
763.555
781.896
797.087
809.306
818.889
826.291
832.024
836.623
840.408
844.009
847.028
849.199
851.651
853.967
856.234
858.518
860.828
863.041
865.546
868.343
870.951
873.685
882.748
905.239
953.633
950.701
939.104
940.122
953.984
667.45
659.116
649.226
637.416
625.189
615.956
613.623
619.973
641.56
672.294
704.317
731.248
752.696
769.773
783.019
792.984
800.369
805.857
810.029
813.38
816.374
819.209
821.869
824.302
826.622
828.929
831.266
833.644
836.001
838.493
841.318
844.051
846.982
855.61
878.697
930.739
930.614
916.102
918.043
932.824
647.457
636.607
623.354
613.07
610.199
612.055
613.77
616.665
622.922
642.133
677.135
707.223
727.431
743.154
755.529
764.618
771.087
775.721
779.145
781.852
784.225
786.509
788.79
791.097
793.456
795.877
798.488
800.941
803.687
806.545
810.245
812.919
816.572
826.104
851.216
901.532
904.435
886.361
890.259
906.065
633.434
619.876
612.128
610.731
610.379
610.777
611.267
611.909
615.338
624.52
655.845
687.62
703.962
715.738
725.478
732.537
737.287
740.489
742.736
744.475
746.04
747.66
749.463
751.501
753.806
756.389
759.233
762.187
765.326
768.825
772.985
776.421
780.375
789.844
814.477
867.196
871.002
856.657
859.985
875.555
622.883
612.125
609.409
608.196
608.204
608.407
608.595
609.035
611.93
620.413
645.33
668.546
678.298
685.321
691.391
695.59
698.089
699.495
700.298
700.871
701.482
702.318
703.505
705.034
707.068
709.834
713.218
716.961
721.013
725.503
730.624
734.817
739.129
749.391
773.673
826.467
831.08
822.023
824.876
839.862
616
608.022
606.156
605.632
605.801
605.987
606.219
606.826
609.66
620.059
635.595
643.195
646.354
649.422
651.881
653.116
653.332
652.957
652.413
652.056
652.03
652.307
652.867
653.218
654.025
656.691
660.832
665.787
671.326
677.439
683.832
689.554
694.957