/*--------------------------------*- C++ -*----------------------------------*\
  =========                 |
  \\      /  F ield         | OpenFOAM: The Open Source CFD Toolbox
   \\    /   O peration     | Website:  https://openfoam.org
    \\  /    A nd           | Version:  8
     \\/     M anipulation  |
\*---------------------------------------------------------------------------*/
FoamFile
{
    version     2.0;
    format      ascii;
    class       surfaceScalarField;
    location    "3.55";
    object      phi;
}
// * * * * * * * * * * * * * * * * * * * * * * * * * * * * * * * * * * * * * //

dimensions      [0 3 -1 0 0 0 0];

internalField   nonuniform List<scalar> 
18095
(
1.58142e-07
-9.65853e-07
8.07711e-07
1.65211e-07
-1.24806e-06
1.241e-06
1.22144e-07
-1.24215e-06
1.28522e-06
6.53407e-08
-1.26342e-06
1.32023e-06
6.99526e-11
-1.28041e-06
1.34568e-06
-6.52133e-08
-1.28042e-06
1.3457e-06
-1.22048e-07
-1.26346e-06
1.32029e-06
-1.65149e-07
-1.24219e-06
1.28529e-06
-1.58118e-07
-1.2481e-06
1.24107e-06
-9.6593e-07
8.07813e-07
1.10944e-07
-1.0768e-06
9.93265e-08
-1.23645e-06
7.28289e-08
-1.21565e-06
4.00486e-08
-1.23064e-06
4.77257e-11
-1.24041e-06
-3.99603e-08
-1.24041e-06
-7.27587e-08
-1.23066e-06
-9.92745e-08
-1.21567e-06
-1.10916e-07
-1.23646e-06
-1.07685e-06
6.70658e-08
-1.14386e-06
5.26955e-08
-1.22208e-06
4.21101e-08
-1.20507e-06
2.38617e-08
-1.21239e-06
3.11054e-11
-1.21658e-06
-2.38035e-08
-1.21658e-06
-4.20629e-08
-1.2124e-06
-5.26599e-08
-1.20508e-06
-6.70411e-08
-1.22208e-06
-1.14389e-06
3.95667e-08
-1.18343e-06
2.66004e-08
-1.20911e-06
2.1999e-08
-1.20047e-06
1.25246e-08
-1.20292e-06
1.79408e-11
-1.20407e-06
-1.24909e-08
-1.20407e-06
-2.19712e-08
-1.20292e-06
-2.65797e-08
-1.20047e-06
-3.95497e-08
-1.20911e-06
-1.18344e-06
1.65705e-08
7.45976e-09
6.99413e-09
4.07562e-09
6.14474e-12
-4.064e-09
-6.98465e-09
-7.45327e-09
-1.65634e-08
-1.74057e-07
-1.16411e-06
1.33817e-06
-2.17945e-07
-1.21596e-06
1.25985e-06
-1.6427e-07
-1.21247e-06
1.1588e-06
-8.64037e-08
-1.20387e-06
1.126e-06
7.47017e-10
-1.20247e-06
1.11532e-06
8.78721e-08
-1.20259e-06
1.11546e-06
1.65596e-07
-1.20418e-06
1.12646e-06
2.19144e-07
-1.21292e-06
1.15938e-06
1.75143e-07
-1.21659e-06
1.26059e-06
-1.16483e-06
1.33997e-06
-9.30583e-08
-1.07105e-06
-9.54933e-08
-1.21353e-06
-7.89236e-08
-1.22904e-06
-4.38152e-08
-1.23898e-06
4.22468e-10
-1.24671e-06
4.46261e-08
-1.24679e-06
7.96459e-08
-1.2392e-06
9.6082e-08
-1.22936e-06
9.33941e-08
-1.2139e-06
-1.07143e-06
-5.78395e-08
-1.01321e-06
-5.50194e-08
-1.21635e-06
-4.63068e-08
-1.23775e-06
-2.688e-08
-1.25841e-06
2.5455e-10
-1.27385e-06
2.73645e-08
-1.2739e-06
4.67214e-08
-1.25856e-06
5.53214e-08
-1.23796e-06
5.79867e-08
-1.21656e-06
-1.01345e-06
-7.45582e-08
-9.38653e-07
-6.17157e-08
-1.22919e-06
-4.84053e-08
-1.25106e-06
-2.76137e-08
-1.2792e-06
1.58727e-10
-1.30162e-06
2.79134e-08
-1.30166e-06
4.86542e-08
-1.2793e-06
6.18839e-08
-1.25119e-06
7.46369e-08
-1.22932e-06
-9.3881e-07
-1.30942e-07
-1.19136e-07
-8.49838e-08
-4.39557e-08
1.03893e-10
4.41508e-08
8.51437e-08
1.19245e-07
1.30998e-07
-3.37111e-08
-9.2318e-07
9.56891e-07
1.17828e-08
-1.33965e-06
1.29416e-06
1.63367e-08
-1.27456e-06
1.27001e-06
1.14443e-08
-1.22601e-06
1.2309e-06
6.81585e-09
-1.22312e-06
1.22775e-06
2.26468e-09
-1.22411e-06
1.22866e-06
-3.70367e-09
-1.22609e-06
1.23206e-06
4.98362e-09
-1.27299e-06
1.26431e-06
5.92497e-08
-1.34296e-06
1.28869e-06
-9.47321e-07
1.00657e-06
1.72532e-08
-9.40433e-07
2.47503e-08
-1.34715e-06
1.7317e-08
-1.26713e-06
1.12661e-08
-1.21996e-06
5.09764e-09
-1.21695e-06
-1.28127e-09
-1.21773e-06
-7.39295e-09
-1.21998e-06
-1.22701e-08
-1.26812e-06
-6.11923e-09
-1.34911e-06
-9.5344e-07
3.08482e-08
-9.71281e-07
2.21905e-08
-1.33849e-06
1.40092e-08
-1.25895e-06
9.29997e-09
-1.21525e-06
3.28746e-09
-1.21094e-06
-3.23049e-09
-1.21121e-06
-7.76786e-09
-1.21544e-06
-1.61617e-08
-1.25972e-06
-2.53427e-08
-1.33993e-06
-9.78783e-07
8.06306e-08
-1.05191e-06
5.40059e-08
-1.31187e-06
3.52803e-08
-1.24022e-06
2.27107e-08
-1.20268e-06
1.99422e-09
-1.19022e-06
-1.88396e-08
-1.19038e-06
-3.09443e-08
-1.20334e-06
-4.95031e-08
-1.24116e-06
-7.68956e-08
-1.31254e-06
-1.05568e-06
2.86254e-07
2.34239e-07
1.52812e-07
7.6134e-08
1.23273e-09
-7.36796e-08
-1.50558e-07
-2.32346e-07
-2.84293e-07
7.26236e-08
-2.28789e-09
-7.03357e-08
7.49401e-08
-2.31651e-09
7.72337e-08
-2.29362e-09
7.94352e-08
-2.20151e-09
8.14501e-08
-2.01487e-09
8.31407e-08
-1.69061e-09
8.43113e-08
-1.1706e-09
8.47101e-08
-3.98786e-10
8.39702e-08
7.39885e-10
2.20858e-09
8.17616e-08
6.61439e-08
-3.74018e-09
-6.46916e-08
6.75465e-08
-3.71901e-09
6.88668e-08
-3.6139e-09
7.00558e-08
-3.39051e-09
7.10645e-08
-3.02361e-09
7.18155e-08
-2.4417e-09
7.21978e-08
-1.55293e-09
7.20641e-08
-2.65059e-10
7.13135e-08
1.49039e-09
3.76695e-09
6.97551e-08
5.96035e-08
-4.56318e-09
-5.87805e-08
6.03433e-08
-4.45871e-09
6.09738e-08
-4.24444e-09
6.14949e-08
-3.9116e-09
6.18779e-08
-3.40662e-09
6.20776e-08
-2.6414e-09
6.20402e-08
-1.51563e-09
6.17015e-08
7.37229e-11
6.09147e-08
2.2772e-09
5.18181e-09
5.94999e-08
5.32559e-08
-4.84559e-09
-5.29734e-08
5.34228e-08
-4.62565e-09
5.34947e-08
-4.31638e-09
5.34667e-08
-3.88365e-09
5.33493e-08
-3.28919e-09
5.31564e-08
-2.44851e-09
5.28926e-08
-1.25178e-09
5.25294e-08
4.37035e-10
5.20204e-08
2.78621e-09
6.00915e-09
5.11931e-08
4.71978e-08
-4.6427e-09
-4.74007e-08
4.68218e-08
-4.24977e-09
4.63004e-08
-3.79502e-09
4.56787e-08
-3.26196e-09
4.50026e-08
-2.61317e-09
4.43342e-08
-1.78003e-09
4.37396e-08
-6.57102e-10
4.32813e-08
8.95467e-10
4.30119e-08
3.05577e-09
6.07822e-09
4.2943e-08
4.16874e-08
-3.99472e-09
-4.23354e-08
4.07801e-08
-3.34261e-09
3.96498e-08
-2.66468e-09
3.83657e-08
-1.9779e-09
3.70199e-08
-1.26738e-09
3.57134e-08
-4.73401e-10
3.4547e-08
5.09304e-10
3.36267e-08
1.81583e-09
3.30567e-08
3.62582e-09
6.09604e-09
3.30389e-08
3.71848e-08
-2.9916e-09
-3.8188e-08
3.5791e-08
-1.94893e-09
3.40586e-08
-9.32374e-10
3.20976e-08
-1.69568e-11
3.00637e-08
7.66588e-10
2.81134e-08
1.47685e-09
2.63801e-08
2.24262e-09
2.49654e-08
3.23055e-09
2.39695e-08
4.62166e-09
6.60188e-09
2.34636e-08
3.41978e-08
-1.7846e-09
-3.54049e-08
3.2409e-08
-1.60377e-10
3.01101e-08
1.36644e-09
2.7497e-08
2.59613e-09
2.48767e-08
3.38683e-09
2.25383e-08
3.81528e-09
2.06884e-08
4.09245e-09
1.9457e-08
4.46178e-09
1.89374e-08
5.14108e-09
6.30702e-09
1.92321e-08
3.29909e-08
-5.38426e-10
-3.42372e-08
3.08718e-08
1.95859e-09
2.79094e-08
4.32872e-09
2.44308e-08
6.0747e-09
2.10618e-08
6.7558e-09
1.83527e-08
6.5243e-09
1.64731e-08
5.97194e-09
1.55985e-08
5.33633e-09
1.56467e-08
5.09271e-09
5.38252e-09
1.65711e-08
3.35545e-08
4.64584e-10
-3.45576e-08
3.13093e-08
4.20374e-09
2.75354e-08
8.10269e-09
2.27252e-08
1.0885e-08
1.8227e-08
1.12541e-08
1.50461e-08
9.70515e-09
1.355e-08
7.46796e-09
1.31616e-08
5.72462e-09
1.36583e-08
4.59594e-09
4.15889e-09
1.48818e-08
3.47063e-08
7.92093e-10
-3.50338e-08
3.32671e-08
5.64322e-09
2.97382e-08
1.16317e-08
2.24983e-08
1.81249e-08
1.66589e-08
1.70935e-08
1.44194e-08
1.19446e-08
1.35893e-08
8.29813e-09
1.36336e-08
5.68025e-09
1.42413e-08
3.98826e-09
3.17918e-09
1.5221e-08
3.31838e-08
6.19086e-10
-3.30107e-08
3.18948e-08
6.93242e-09
3.00031e-08
1.35235e-08
2.81842e-08
1.99438e-08
2.55705e-08
1.97073e-08
2.31646e-08
1.43504e-08
2.16074e-08
9.85538e-09
2.07663e-08
6.52133e-09
2.03676e-08
4.38701e-09
3.32586e-09
2.02209e-08
3.11028e-08
-4.85313e-10
-2.99984e-08
3.1509e-08
6.52632e-09
3.17317e-08
1.33008e-08
3.40506e-08
1.76248e-08
3.5371e-08
1.83868e-08
3.37277e-08
1.59937e-08
3.18981e-08
1.1685e-08
3.06743e-08
7.74521e-09
2.95215e-08
5.53985e-09
4.37892e-09
2.84684e-08
2.65612e-08
-1.56254e-09
-2.54839e-08
2.90285e-08
4.05912e-09
3.21768e-08
1.01526e-08
3.56693e-08
1.41322e-08
3.89405e-08
1.51155e-08
4.08161e-08
1.41181e-08
4.09824e-08
1.15187e-08
4.0072e-08
8.65563e-09
3.87286e-08
6.88326e-09
5.84069e-09
3.72668e-08
2.335e-08
-2.05498e-09
-2.28575e-08
2.50909e-08
2.31843e-09
2.86562e-08
6.58731e-09
3.3486e-08
9.30225e-09
4.02913e-08
8.31004e-09
4.42991e-08
1.01102e-08
4.59415e-08
9.87625e-09
4.5832e-08
8.76504e-09
4.50108e-08
7.70442e-09
6.91216e-09
4.39393e-08
2.91931e-08
-3.80633e-09
-2.74416e-08
3.1751e-08
-2.39602e-10
3.54272e-08
2.91096e-09
3.95233e-08
5.20611e-09
4.11124e-08
6.72083e-09
4.37271e-08
7.49541e-09
4.58467e-08
7.75665e-09
4.69048e-08
7.70682e-09
4.72219e-08
7.3873e-09
6.98517e-09
4.71489e-08
3.49153e-08
-5.93595e-09
-3.27857e-08
3.73314e-08
-2.65586e-09
3.99258e-08
3.16472e-10
4.2413e-08
2.71895e-09
4.46219e-08
4.51186e-09
4.6341e-08
5.77634e-09
4.75527e-08
6.54484e-09
4.83782e-08
6.88132e-09
4.88741e-08
6.89131e-09
6.65271e-09
4.92065e-08
3.93798e-08
-8.08666e-09
-3.72292e-08
4.13892e-08
-4.66517e-09
4.32689e-08
-1.56313e-09
4.49428e-08
1.04502e-09
4.6356e-08
3.09868e-09
4.74801e-08
4.65224e-09
4.82915e-08
5.73345e-09
4.88325e-08
6.34026e-09
4.92654e-08
6.45832e-09
6.15273e-09
4.97654e-08
4.20935e-08
-1.0188e-08
-3.99922e-08
4.36754e-08
-6.24704e-09
4.48314e-08
-2.71915e-09
4.57382e-08
1.38299e-10
4.65092e-08
2.3277e-09
4.71211e-08
4.04026e-09
4.74713e-08
5.3832e-09
4.76016e-08
6.20994e-09
4.77917e-08
6.26819e-09
5.59728e-09
4.83471e-08
4.23884e-08
-1.23123e-08
-4.0264e-08
4.3477e-08
-7.33568e-09
4.37343e-08
-2.97641e-09
4.37634e-08
1.09256e-10
4.40294e-08
2.0616e-09
4.44023e-08
3.66732e-09
4.43877e-08
5.3977e-09
4.38878e-08
6.70988e-09
4.35746e-08
6.5813e-09
5.01389e-09
4.4158e-08
3.94861e-08
-1.49989e-08
-3.67996e-08
3.9986e-08
-7.83539e-09
3.88365e-08
-1.82677e-09
3.74546e-08
1.49122e-09
3.7244e-08
2.27222e-09
3.80916e-08
2.81966e-09
3.83414e-08
5.14796e-09
3.67088e-08
8.34247e-09
3.50839e-08
8.20605e-09
3.97407e-09
3.61237e-08
3.10776e-08
-1.95251e-08
-2.65514e-08
3.34368e-08
-1.01941e-08
3.00984e-08
1.51166e-09
2.52084e-08
6.3814e-09
2.35089e-08
3.97182e-09
2.35394e-08
2.78925e-09
2.38612e-08
4.82631e-09
2.33515e-08
8.85208e-09
2.23816e-08
9.17587e-09
3.72769e-09
2.26278e-08
6.5983e-09
-2.44554e-08
-1.66791e-09
1.15338e-08
-1.51292e-08
1.47705e-08
-1.72498e-09
1.41e-08
7.05204e-09
8.19634e-09
9.87569e-09
8.86079e-10
1.00997e-08
-4.43181e-09
1.01444e-08
-4.51278e-09
8.93318e-09
1.98258e-10
4.46489e-09
-3.4317e-09
7.35765e-09
-3.50182e-08
-2.65369e-08
3.70999e-08
-3.19816e-08
-1.81656e-08
-2.67422e-08
-6.96417e-09
-2.33884e-08
3.69861e-09
-2.1569e-08
8.05655e-09
-2.00926e-08
8.62351e-09
-1.64736e-08
6.52552e-09
-9.22752e-09
1.68718e-09
1.43086e-09
-6.1934e-09
-1.41744e-08
1.21735e-08
-7.68897e-08
-2.5633e-08
7.59858e-08
-7.57491e-08
-1.93057e-08
-7.15952e-08
-1.11178e-08
-6.28639e-08
-5.03241e-09
-5.26267e-08
-2.18048e-09
-3.99217e-08
-4.08138e-09
-2.50327e-08
-8.36342e-09
-9.9474e-09
-1.33981e-08
2.3152e-09
-1.84559e-08
-2.31944e-08
1.13353e-08
-1.05629e-07
-2.40142e-08
1.0401e-07
-1.05067e-07
-1.98665e-08
-9.75349e-08
-1.86502e-08
-9.03714e-08
-1.21957e-08
-7.77002e-08
-1.48516e-08
-6.35077e-08
-1.82736e-08
-4.71334e-08
-2.47376e-08
-3.24519e-08
-2.80796e-08
-1.93342e-08
-3.15735e-08
-3.32638e-08
-9.26476e-09
-1.2254e-07
-2.34083e-08
1.21934e-07
-1.21808e-07
-2.05981e-08
-1.17482e-07
-2.29764e-08
-1.01816e-07
-2.7862e-08
-8.90787e-08
-2.75884e-08
-7.51528e-08
-3.21993e-08
-6.37947e-08
-3.60957e-08
-5.26016e-08
-3.92728e-08
-4.29754e-08
-4.11997e-08
-4.19615e-08
-3.42777e-08
-1.37382e-07
-2.4317e-08
1.3829e-07
-1.3161e-07
-2.63691e-08
-1.24533e-07
-3.00537e-08
-1.17068e-07
-3.53267e-08
-1.05593e-07
-3.90637e-08
-9.51686e-08
-4.26233e-08
-8.52501e-08
-4.6014e-08
-7.59262e-08
-4.85967e-08
-6.71993e-08
-4.99266e-08
-4.96578e-08
-5.9503e-08
-1.50445e-07
-2.82006e-08
1.54328e-07
-1.45696e-07
-3.11169e-08
-1.38671e-07
-3.70788e-08
-1.31733e-07
-4.22648e-08
-1.24056e-07
-4.67408e-08
-1.15851e-07
-5.0828e-08
-1.07602e-07
-5.42629e-08
-9.95691e-08
-5.66297e-08
-9.19883e-08
-5.75075e-08
-5.64478e-08
-8.51983e-08
-1.63196e-07
-3.11573e-08
1.66153e-07
-1.58598e-07
-3.57144e-08
-1.5415e-07
-4.15262e-08
-1.49358e-07
-4.70567e-08
-1.43782e-07
-5.23174e-08
-1.37667e-07
-5.69434e-08
-1.31274e-07
-6.06553e-08
-1.24776e-07
-6.31281e-08
-1.18356e-07
-6.39274e-08
-6.24804e-08
-1.12323e-07
-1.82018e-07
-3.39352e-08
1.84796e-07
-1.7836e-07
-3.9372e-08
-1.74987e-07
-4.48989e-08
-1.713e-07
-5.07439e-08
-1.67197e-07
-5.64197e-08
-1.62821e-07
-6.13197e-08
-1.58271e-07
-6.52055e-08
-1.5346e-07
-6.79389e-08
-1.48333e-07
-6.90548e-08
-6.78113e-08
-1.43002e-07
-1.97278e-07
-3.35695e-08
1.96912e-07
-1.96899e-07
-3.97504e-08
-1.96026e-07
-4.57725e-08
-1.94453e-07
-5.23168e-08
-1.92591e-07
-5.82815e-08
-1.90681e-07
-6.32296e-08
-1.88944e-07
-6.69424e-08
-1.87133e-07
-6.975e-08
-1.84689e-07
-7.1498e-08
-7.09129e-08
-1.81588e-07
-2.1692e-07
-3.16814e-08
2.15032e-07
-2.18592e-07
-3.80783e-08
-2.19526e-07
-4.48379e-08
-2.20003e-07
-5.18404e-08
-2.20599e-07
-5.7685e-08
-2.21529e-07
-6.22994e-08
-2.22979e-07
-6.54923e-08
-2.25831e-07
-6.68978e-08
-2.28142e-07
-6.91873e-08
-6.9568e-08
-2.29487e-07
-2.36044e-07
-2.8366e-08
2.32728e-07
-2.39615e-07
-3.45063e-08
-2.42755e-07
-4.16986e-08
-2.45984e-07
-4.86106e-08
-2.49529e-07
-5.41401e-08
-2.5368e-07
-5.81489e-08
-2.58943e-07
-6.0229e-08
-2.65658e-07
-6.01827e-08
-2.75202e-07
-5.96434e-08
-6.26718e-08
-2.82098e-07
-2.53223e-07
-2.16973e-08
2.46554e-07
-2.59295e-07
-2.84345e-08
-2.65455e-07
-3.55378e-08
-2.721e-07
-4.19661e-08
-2.79286e-07
-4.69539e-08
-2.87239e-07
-5.01957e-08
-2.96274e-07
-5.11938e-08
-3.06694e-07
-4.97631e-08
-3.19333e-07
-4.70047e-08
-5.0297e-08
-3.31707e-07
-2.68439e-07
-1.20377e-08
2.5878e-07
-2.77825e-07
-1.90491e-08
-2.87323e-07
-2.60397e-08
-2.97584e-07
-3.17045e-08
-3.08752e-07
-3.57861e-08
-3.20934e-07
-3.80135e-08
-3.34119e-07
-3.80086e-08
-3.48322e-07
-3.55602e-08
-3.64025e-07
-3.13023e-08
-3.25356e-08
-3.81786e-07
-2.79976e-07
-3.6939e-10
2.68308e-07
-2.91831e-07
-7.19488e-09
-3.0459e-07
-1.32801e-08
-3.1815e-07
-1.81446e-08
-3.32771e-07
-2.11649e-08
-3.48764e-07
-2.20212e-08
-3.66274e-07
-2.04984e-08
-3.85536e-07
-1.6299e-08
-4.09411e-07
-7.4273e-09
-1.13814e-08
-4.30565e-07
-2.88755e-07
1.37473e-08
2.74638e-07
-3.0313e-07
7.18086e-09
-3.17905e-07
1.4946e-09
-3.33332e-07
-2.71764e-09
-3.49718e-07
-4.77954e-09
-3.67546e-07
-4.19252e-09
-3.87582e-07
-4.62829e-10
-4.10763e-07
6.88193e-09
-4.45615e-07
2.74243e-08
2.72754e-08
-4.84272e-07
-2.94775e-07
3.02176e-08
2.78305e-07
-3.11173e-07
2.35787e-08
-3.27635e-07
1.79567e-08
-3.44421e-07
1.40682e-08
-3.61784e-07
1.25834e-08
-3.8024e-07
1.42633e-08
-4.00779e-07
2.00763e-08
-4.26542e-07
3.26451e-08
-4.63851e-07
6.47333e-08
1.0236e-07
-5.38936e-07
-2.9605e-07
4.90922e-08
2.77175e-07
-3.15018e-07
4.25459e-08
-3.33831e-07
3.67703e-08
-3.5231e-07
3.25478e-08
-3.70414e-07
3.06873e-08
-3.88266e-07
3.21146e-08
-4.06229e-07
3.80395e-08
-4.24694e-07
5.11094e-08
-4.40504e-07
8.0544e-08
1.35182e-07
-4.73326e-07
-2.94545e-07
7.03053e-08
2.73332e-07
-3.16241e-07
6.42407e-08
-3.3789e-07
5.842e-08
-3.59049e-07
5.37065e-08
-3.79374e-07
5.10125e-08
-3.98602e-07
5.1343e-08
-4.16534e-07
5.59704e-08
-4.31832e-07
6.64075e-08
-4.378e-07
8.65135e-08
1.29484e-07
-4.32103e-07
-2.86021e-07
9.53234e-08
2.61002e-07
-3.11286e-07
8.95063e-08
-3.36251e-07
8.33856e-08
-3.6045e-07
7.79051e-08
-3.8344e-07
7.40027e-08
-4.0473e-07
7.26332e-08
-4.23588e-07
7.48282e-08
-4.38766e-07
8.15852e-08
-4.45979e-07
9.3727e-08
1.1189e-07
-4.28385e-07
-2.72695e-07
1.2337e-07
2.44649e-07
-3.00463e-07
1.17275e-07
-3.27619e-07
1.10542e-07
-3.53787e-07
1.04073e-07
-3.78461e-07
9.86766e-08
-4.0104e-07
9.52121e-08
-4.20702e-07
9.44911e-08
-4.36267e-07
9.71489e-08
-4.4579e-07
1.03251e-07
1.11859e-07
-4.4576e-07
-2.5569e-07
1.52322e-07
2.26738e-07
-2.83532e-07
1.45117e-07
-3.10658e-07
1.37667e-07
-3.36782e-07
1.30197e-07
-3.61001e-07
1.22896e-07
-3.82446e-07
1.16657e-07
-4.00273e-07
1.12318e-07
-4.13463e-07
1.10338e-07
-4.20937e-07
1.10725e-07
1.12817e-07
-4.21894e-07
-2.38353e-07
1.80253e-07
2.10422e-07
-2.62513e-07
1.69277e-07
-2.87844e-07
1.62998e-07
-3.12877e-07
1.55231e-07
-3.35321e-07
1.4534e-07
-3.54243e-07
1.35579e-07
-3.68945e-07
1.2702e-07
-3.78632e-07
1.20025e-07
-3.82547e-07
1.14641e-07
1.10484e-07
-3.80214e-07
-2.23927e-07
1.97774e-07
2.06405e-07
-2.3567e-07
1.8102e-07
-2.61578e-07
1.88907e-07
-2.88247e-07
1.81899e-07
-3.08483e-07
1.65576e-07
-3.24456e-07
1.51552e-07
-3.36056e-07
1.3862e-07
-3.42657e-07
1.26626e-07
-3.44317e-07
1.16302e-07
1.0633e-07
-3.40163e-07
-1.99656e-07
1.99734e-07
1.97694e-07
-2.09432e-07
1.90798e-07
-2.36677e-07
2.16151e-07
-2.63967e-07
2.09189e-07
-2.80378e-07
1.81986e-07
-2.92401e-07
1.63576e-07
-2.99109e-07
1.45327e-07
-3.04174e-07
1.31691e-07
-3.06895e-07
1.19023e-07
1.02747e-07
-3.03312e-07
-1.36178e-07
2.51377e-07
8.45354e-08
-1.84195e-07
2.38805e-07
-2.00795e-07
2.32753e-07
-2.08887e-07
2.1728e-07
-2.2303e-07
1.96131e-07
-2.35817e-07
1.76362e-07
-2.47706e-07
1.57216e-07
-2.56739e-07
1.40725e-07
-2.74179e-07
1.36462e-07
9.43708e-08
-2.65803e-07
-1.76659e-07
2.5078e-07
1.77253e-07
-1.9537e-07
2.57501e-07
-2.17458e-07
2.54837e-07
-2.40791e-07
2.40615e-07
-2.63543e-07
2.18884e-07
-2.80654e-07
1.93473e-07
-2.88458e-07
1.65021e-07
-2.84486e-07
1.36755e-07
-2.41921e-07
9.38981e-08
6.10895e-08
-2.08639e-07
-2.63262e-07
2.16623e-07
2.97412e-07
-2.41905e-07
2.36158e-07
-2.24981e-07
2.37911e-07
-2.10962e-07
2.26596e-07
-1.98419e-07
2.06341e-07
-1.85811e-07
1.80864e-07
-1.7083e-07
1.50042e-07
-1.41119e-07
1.07045e-07
-1.23176e-07
7.59539e-08
5.07351e-08
-1.12821e-07
-2.96487e-07
1.75052e-07
3.3806e-07
-2.49231e-07
1.88901e-07
-2.05995e-07
1.94677e-07
-1.65105e-07
1.85707e-07
-1.27925e-07
1.69161e-07
-9.46824e-08
1.47621e-07
-6.75965e-08
1.22957e-07
-5.72135e-08
9.66631e-08
-5.28416e-08
7.15818e-08
4.94701e-08
-5.15765e-08
-2.65795e-07
1.50498e-07
2.90348e-07
-2.31771e-07
1.54877e-07
-1.91717e-07
1.54623e-07
-1.54215e-07
1.48204e-07
-1.21483e-07
1.36429e-07
-9.46776e-08
1.20816e-07
-7.43302e-08
1.0261e-07
-6.06357e-08
8.29686e-08
-5.20648e-08
6.30109e-08
4.35984e-08
-4.61932e-08
-2.26939e-07
1.32308e-07
2.4513e-07
-2.042e-07
1.32139e-07
-1.78586e-07
1.29009e-07
-1.52856e-07
1.22474e-07
-1.29086e-07
1.12659e-07
-1.08355e-07
1.00085e-07
-9.11333e-08
8.5388e-08
-7.73783e-08
6.92136e-08
-6.65627e-08
5.21954e-08
3.48744e-08
-5.78387e-08
-1.99151e-07
1.19781e-07
2.11678e-07
-1.84125e-07
1.17113e-07
-1.67501e-07
1.12385e-07
-1.50417e-07
1.05391e-07
-1.3391e-07
9.61521e-08
-1.18694e-07
8.48683e-08
-1.05145e-07
7.18398e-08
-9.33376e-08
5.74057e-08
-8.30479e-08
4.19058e-08
2.5627e-08
-7.38003e-08
-1.77831e-07
1.11825e-07
1.85786e-07
-1.6826e-07
1.07543e-07
-1.57582e-07
1.01708e-07
-1.4638e-07
9.41886e-08
-1.35186e-07
8.49579e-08
-1.24394e-07
7.4076e-08
-1.14223e-07
6.16689e-08
-1.04711e-07
4.78937e-08
-9.57146e-08
3.2909e-08
1.68317e-08
-8.6919e-08
-1.5781e-07
1.07024e-07
1.6261e-07
-1.51872e-07
1.01605e-07
-1.4505e-07
9.48853e-08
-1.37628e-07
8.67666e-08
-1.29871e-07
7.72009e-08
-1.21985e-07
6.61891e-08
-1.14092e-07
5.37763e-08
-1.06231e-07
4.0033e-08
-9.83596e-08
2.50371e-08
8.76705e-09
-9.02951e-08
-1.35096e-07
1.03782e-07
1.38338e-07
-1.30887e-07
9.73966e-08
-1.25816e-07
8.98145e-08
-1.19997e-07
8.09478e-08
-1.13555e-07
7.0758e-08
-1.06602e-07
5.92362e-08
-9.92454e-08
4.64198e-08
-9.15624e-08
3.235e-08
-8.36054e-08
1.70799e-08
5.55846e-10
-7.53942e-08
-1.06031e-07
1.00271e-07
1.09542e-07
-1.01467e-07
9.28322e-08
-9.58369e-08
8.41843e-08
-8.91753e-08
7.42861e-08
-8.1548e-08
6.31306e-08
-7.30537e-08
5.07416e-08
-6.38059e-08
3.7172e-08
-5.39475e-08
2.24917e-08
-4.36442e-08
6.77646e-09
-1.0004e-08
-3.30847e-08
-6.76597e-08
9.44737e-08
7.34571e-08
-6.04336e-08
8.56059e-08
-5.17286e-08
7.54792e-08
-4.15347e-08
6.4092e-08
-2.98915e-08
5.14873e-08
-1.68968e-08
3.77467e-08
-2.71003e-09
2.29853e-08
1.24503e-08
7.33148e-09
2.82699e-08
-9.04324e-09
-2.60675e-08
4.43333e-08
-1.87289e-08
8.44771e-08
2.87255e-08
-6.77742e-09
7.36541e-08
7.20418e-09
6.14975e-08
2.32289e-08
4.80673e-08
4.12461e-08
3.34701e-08
6.11305e-08
1.78623e-08
8.26646e-08
1.45095e-09
1.05493e-07
-1.54966e-08
1.29119e-07
-3.26695e-08
-4.97514e-08
1.52803e-07
3.90844e-08
6.90746e-08
-2.36819e-08
5.69179e-08
5.582e-08
7.72181e-08
4.11972e-08
9.99474e-08
2.53378e-08
1.24983e-07
8.43502e-09
1.52089e-07
-9.2441e-09
1.809e-07
-2.73599e-08
2.10886e-07
-4.54828e-08
2.41312e-07
-6.30949e-08
-7.94211e-08
2.70981e-07
1.01197e-07
4.81873e-08
-8.03097e-08
1.24745e-07
3.22719e-08
1.50881e-07
1.50616e-08
1.79431e-07
-3.21224e-09
2.10132e-07
-2.22664e-08
2.42591e-07
-4.17031e-08
2.76294e-07
-6.1063e-08
3.10578e-07
-7.97668e-08
3.44533e-07
-9.70499e-08
-1.1199e-07
3.77102e-07
1.61519e-07
2.27875e-08
-1.36119e-07
1.89471e-07
4.31974e-09
2.19755e-07
-1.52227e-08
2.52065e-07
-3.55227e-08
2.85983e-07
-5.61846e-08
3.21019e-07
-7.67394e-08
3.56585e-07
-9.66283e-08
3.91978e-07
-1.1516e-07
4.26437e-07
-1.31509e-07
-1.44676e-07
4.59123e-07
2.14232e-07
-5.55194e-09
-1.85893e-07
2.44737e-07
-2.61851e-08
2.77082e-07
-4.75677e-08
3.10877e-07
-6.93172e-08
3.45674e-07
-9.09822e-08
3.80967e-07
-1.12033e-07
4.16212e-07
-1.31874e-07
4.50828e-07
-1.49775e-07
4.84216e-07
-1.64898e-07
-1.7628e-07
5.1582e-07
2.55248e-07
-3.50546e-08
-2.25745e-07
2.86378e-07
-5.73141e-08
3.18777e-07
-7.99674e-08
3.52054e-07
-1.02594e-07
3.85802e-07
-1.2473e-07
4.19613e-07
-1.45844e-07
4.53079e-07
-1.6534e-07
4.85834e-07
-1.8253e-07
5.17517e-07
-1.96581e-07
-2.06374e-07
5.47612e-07
2.82755e-07
-6.40369e-08
-2.53772e-07
3.12823e-07
-8.73824e-08
3.43635e-07
-1.10781e-07
3.74869e-07
-1.33828e-07
4.06216e-07
-1.56077e-07
4.3744e-07
-1.77068e-07
4.68435e-07
-1.96335e-07
4.99286e-07
-2.13381e-07
5.30243e-07
-2.27538e-07
-2.37674e-07
5.61544e-07
2.97046e-07
-9.12853e-08
-2.69797e-07
3.24983e-07
-1.1532e-07
3.53365e-07
-1.39164e-07
3.81991e-07
-1.62454e-07
4.10751e-07
-1.84837e-07
4.39694e-07
-2.06011e-07
4.69127e-07
-2.25769e-07
4.99818e-07
-2.44071e-07
5.33198e-07
-2.60918e-07
-2.76187e-07
5.7171e-07
3.00511e-07
-1.16494e-07
-2.75302e-07
3.26485e-07
-1.41293e-07
3.53253e-07
-1.65931e-07
3.8095e-07
-1.9015e-07
4.09855e-07
-2.13742e-07
4.40434e-07
-2.3659e-07
4.73478e-07
-2.58813e-07
5.10447e-07
-2.8104e-07
5.5434e-07
-3.04811e-07
-3.32998e-07
6.11152e-07
2.97103e-07
-1.40577e-07
-2.73019e-07
3.22904e-07
-1.67095e-07
3.50984e-07
-1.94011e-07
3.82087e-07
-2.21254e-07
4.17123e-07
-2.48778e-07
4.57058e-07
-2.76525e-07
5.02953e-07
-3.04708e-07
5.56852e-07
-3.34939e-07
6.23646e-07
-3.71605e-07
-4.21892e-07
7.1254e-07
2.89823e-07
-1.64987e-07
-2.65413e-07
3.17619e-07
-1.94891e-07
3.49958e-07
-2.26349e-07
3.88213e-07
-2.59509e-07
4.33825e-07
-2.9439e-07
4.88162e-07
-3.30861e-07
5.52436e-07
-3.68981e-07
6.30637e-07
-4.1314e-07
7.25431e-07
-4.66399e-07
-5.41145e-07
8.44684e-07
2.78904e-07
-1.90438e-07
-2.53453e-07
3.09322e-07
-2.25309e-07
3.46087e-07
-2.63114e-07
3.90767e-07
-3.04189e-07
4.45324e-07
-3.48947e-07
5.12223e-07
-3.9776e-07
5.96443e-07
-4.53201e-07
7.00815e-07
-5.17512e-07
8.24818e-07
-5.90403e-07
-6.62329e-07
9.46003e-07
2.6407e-07
-2.16832e-07
-2.37677e-07
2.96461e-07
-2.577e-07
3.36259e-07
-3.02912e-07
3.85834e-07
-3.53763e-07
4.49978e-07
-4.13091e-07
5.34297e-07
-4.82079e-07
6.42703e-07
-5.61607e-07
7.66474e-07
-6.41283e-07
8.87377e-07
-7.11306e-07
-7.67247e-07
9.92295e-07
2.44274e-07
-2.43348e-07
-2.17757e-07
2.77936e-07
-2.91361e-07
3.22352e-07
-3.47329e-07
3.87054e-07
-4.18465e-07
4.7359e-07
-4.99626e-07
5.85672e-07
-5.94161e-07
7.06588e-07
-6.82523e-07
8.18203e-07
-7.52898e-07
9.15038e-07
-8.0814e-07
-8.5294e-07
1.00073e-06
2.14096e-07
-2.67289e-07
-1.90155e-07
2.49248e-07
-3.26513e-07
3.12332e-07
-4.10413e-07
4.08506e-07
-5.14639e-07
5.29531e-07
-6.20652e-07
6.45277e-07
-7.09906e-07
7.43897e-07
-7.81143e-07
8.30383e-07
-8.39385e-07
9.09656e-07
-8.87413e-07
-9.27394e-07
9.84109e-07
1.72923e-07
-2.87103e-07
-1.5311e-07
2.24552e-07
-3.78142e-07
3.26695e-07
-5.12556e-07
4.53233e-07
-6.41177e-07
5.65941e-07
-7.3336e-07
6.56888e-07
-8.00854e-07
7.36042e-07
-8.60297e-07
8.10223e-07
-9.13565e-07
8.81787e-07
-9.58977e-07
-9.92936e-07
9.47329e-07
1.39194e-07
-3.10813e-07
-1.15484e-07
2.40883e-07
-4.79831e-07
3.71587e-07
-6.43259e-07
4.77215e-07
-7.46805e-07
5.59477e-07
-8.15621e-07
6.33837e-07
-8.75214e-07
7.05379e-07
-9.31839e-07
7.74392e-07
-9.82578e-07
8.38061e-07
-1.02265e-06
-1.04709e-06
8.92213e-07
1.53873e-07
-3.84707e-07
-7.99789e-08
2.91892e-07
-6.17851e-07
3.9551e-07
-7.46877e-07
4.68363e-07
-8.19657e-07
5.34365e-07
-8.81623e-07
6.00597e-07
-9.41446e-07
6.65894e-07
-9.97135e-07
7.27215e-07
-1.0439e-06
7.80321e-07
-1.07575e-06
-1.0877e-06
8.20929e-07
2.17716e-07
-5.21939e-07
-8.04841e-08
3.23093e-07
-7.2323e-07
3.85715e-07
-8.09499e-07
4.4186e-07
-8.75802e-07
5.00112e-07
-9.39875e-07
5.5964e-07
-1.00097e-06
6.17554e-07
-1.05505e-06
6.69667e-07
-1.09601e-06
7.11409e-07
-1.11749e-06
-1.1156e-06
7.39316e-07
2.38551e-07
-6.44206e-07
-1.16284e-07
2.9703e-07
-7.81707e-07
3.46721e-07
-8.5919e-07
3.99537e-07
-9.28618e-07
4.54368e-07
-9.94707e-07
5.08952e-07
-1.05556e-06
5.59972e-07
-1.10607e-06
6.03183e-07
-1.13922e-06
6.34751e-07
-1.14906e-06
-1.13376e-06
6.52913e-07
1.84974e-07
-7.22168e-07
-1.07012e-07
2.41947e-07
-8.38679e-07
2.95833e-07
-9.13077e-07
3.49254e-07
-9.82038e-07
4.01741e-07
-1.04719e-06
4.51604e-07
-1.10542e-06
4.95846e-07
-1.15031e-06
5.30839e-07
-1.17422e-06
5.54028e-07
-1.17225e-06
-1.14511e-06
5.6537e-07
1.37152e-07
-8.01278e-07
-5.80417e-08
1.95584e-07
-8.97111e-07
2.49328e-07
-9.66822e-07
3.0034e-07
-1.03305e-06
3.48456e-07
-1.09531e-06
3.92347e-07
-1.14931e-06
4.29359e-07
-1.18732e-06
4.56677e-07
-1.20154e-06
4.73047e-07
-1.18862e-06
-1.15168e-06
4.7962e-07
1.13111e-07
-8.66652e-07
-4.77369e-08
1.65239e-07
-9.49239e-07
2.13126e-07
-1.01471e-06
2.57991e-07
-1.07791e-06
2.99535e-07
-1.13685e-06
3.36335e-07
-1.18611e-06
3.65835e-07
-1.21682e-06
3.85938e-07
-1.22164e-06
3.96235e-07
-1.19892e-06
-1.15263e-06
3.97188e-07
1.03465e-07
-9.11267e-07
-5.88506e-08
1.44507e-07
-9.90281e-07
1.84143e-07
-1.05435e-06
2.21808e-07
-1.11558e-06
2.56633e-07
-1.17168e-06
2.8694e-07
-1.21642e-06
3.10281e-07
-1.24016e-06
3.25542e-07
-1.2369e-06
3.33499e-07
-1.20688e-06
-1.15337e-06
3.34238e-07
9.08096e-08
-9.45809e-07
-5.62664e-08
1.24841e-07
-1.02431e-06
1.58268e-07
-1.08777e-06
1.90041e-07
-1.14735e-06
2.19256e-07
-1.20089e-06
2.44308e-07
-1.24147e-06
2.63202e-07
-1.25906e-06
2.76013e-07
-1.24971e-06
2.8456e-07
-1.21542e-06
-1.15808e-06
2.89265e-07
7.8817e-08
-9.75156e-07
-4.94704e-08
1.07453e-07
-1.05295e-06
1.35404e-07
-1.11572e-06
1.61735e-07
-1.17368e-06
1.85582e-07
-1.22474e-06
2.05447e-07
-1.26134e-06
2.20075e-07
-1.27368e-06
2.3102e-07
-1.26066e-06
2.41636e-07
-1.22604e-06
-1.17189e-06
2.55452e-07
6.72809e-08
-9.99876e-07
-4.25603e-08
9.16333e-08
-1.0773e-06
1.1504e-07
-1.13913e-06
1.36508e-07
-1.19515e-06
1.55084e-07
-1.24332e-06
1.69166e-07
-1.27542e-06
1.78012e-07
-1.28253e-06
1.83622e-07
-1.26627e-06
1.88512e-07
-1.23093e-06
-1.17786e-06
1.94478e-07
5.7096e-08
-1.02147e-06
-3.55045e-08
7.82791e-08
-1.09848e-06
9.80603e-08
-1.15891e-06
1.15503e-07
-1.21259e-06
1.29626e-07
-1.25744e-06
1.38892e-07
-1.28468e-06
1.43491e-07
-1.28713e-06
1.45938e-07
-1.26871e-06
1.47863e-07
-1.23285e-06
-1.17956e-06
1.49564e-07
4.89453e-08
-1.04085e-06
-2.95662e-08
6.76976e-08
-1.11724e-06
8.46496e-08
-1.17586e-06
9.90034e-08
-1.22695e-06
1.09702e-07
-1.26814e-06
1.1539e-07
-1.29037e-06
1.17441e-07
-1.28918e-06
1.18913e-07
-1.27019e-06
1.21139e-07
-1.23508e-06
-1.18173e-06
1.2331e-07
4.24046e-08
-1.05846e-06
-2.47969e-08
5.92544e-08
-1.13409e-06
7.42519e-08
-1.19086e-06
8.66179e-08
-1.23931e-06
9.50469e-08
-1.27657e-06
9.85541e-08
-1.29388e-06
9.96776e-08
-1.2903e-06
1.01811e-07
-1.27232e-06
1.06588e-07
-1.23986e-06
-1.18766e-06
1.12514e-07
3.6428e-08
-1.07532e-06
-1.95656e-08
5.21707e-08
-1.14983e-06
6.60521e-08
-1.20474e-06
7.73037e-08
-1.25057e-06
8.42077e-08
-1.28347e-06
8.65595e-08
-1.29623e-06
8.78464e-08
-1.29159e-06
9.14791e-08
-1.27595e-06
1.00243e-07
-1.24862e-06
-1.20186e-06
1.14447e-07
3.21018e-08
-1.09205e-06
-1.53731e-08
4.69908e-08
-1.16472e-06
5.97905e-08
-1.21754e-06
6.98938e-08
-1.26067e-06
7.49601e-08
-1.28854e-06
7.60962e-08
-1.29737e-06
7.72366e-08
-1.29273e-06
8.12303e-08
-1.27995e-06
9.2133e-08
-1.25952e-06
-1.22433e-06
1.146e-07
3.05806e-08
-1.10857e-06
-1.40545e-08
4.39736e-08
-1.17811e-06
5.50519e-08
-1.22862e-06
6.33217e-08
-1.26894e-06
6.55733e-08
-1.29079e-06
6.46748e-08
-1.29647e-06
6.43121e-08
-1.29237e-06
6.59156e-08
-1.28155e-06
7.35077e-08
-1.26712e-06
-1.24527e-06
9.44494e-08
3.1062e-08
-1.1246e-06
-1.50353e-08
4.21969e-08
-1.18925e-06
5.11471e-08
-1.23757e-06
5.70074e-08
-1.2748e-06
5.58444e-08
-1.28963e-06
5.2502e-08
-1.29313e-06
4.99925e-08
-1.28986e-06
4.785e-08
-1.27941e-06
4.8688e-08
-1.26795e-06
-1.25571e-06
5.91259e-08
3.28556e-08
-1.13704e-06
-2.04117e-08
4.05894e-08
-1.19698e-06
4.77664e-08
-1.24475e-06
5.10286e-08
-1.27806e-06
4.65621e-08
-1.28516e-06
4.08479e-08
-1.28741e-06
3.64102e-08
-1.28542e-06
3.10188e-08
-1.27401e-06
2.52927e-08
-1.26223e-06
-1.25402e-06
2.36089e-08
3.50081e-08
-1.14705e-06
-2.49994e-08
4.03708e-08
-1.20234e-06
4.6745e-08
-1.25112e-06
4.66325e-08
-1.27795e-06
3.88923e-08
-1.27742e-06
3.07157e-08
-1.27924e-06
2.47836e-08
-1.27949e-06
1.74808e-08
-1.26671e-06
7.0807e-09
-1.25183e-06
-1.24331e-06
-3.63365e-09
4.5316e-08
-1.14189e-06
-5.04807e-08
4.43028e-08
-1.20133e-06
4.83168e-08
-1.25514e-06
4.28936e-08
-1.27253e-06
3.21758e-08
-1.2667e-06
2.18581e-08
-1.26892e-06
1.51412e-08
-1.27277e-06
8.06701e-09
-1.25964e-06
-4.64245e-09
-1.23912e-06
-1.22739e-06
-2.05625e-08
4.00403e-08
-1.13221e-06
-4.97177e-08
3.91129e-08
-1.2004e-06
4.41579e-08
-1.26018e-06
3.54533e-08
-1.26382e-06
2.44583e-08
-1.25571e-06
1.36014e-08
-1.25806e-06
6.55429e-09
-1.26572e-06
2.66882e-09
-1.25575e-06
-9.85832e-09
-1.22659e-06
-1.2068e-06
-3.04469e-08
1.7662e-08
-1.11175e-06
-3.8126e-08
2.81061e-08
-1.21085e-06
3.67633e-08
-1.26884e-06
2.68646e-08
-1.25392e-06
1.67561e-08
-1.2456e-06
6.17936e-09
-1.24748e-06
-2.01683e-09
-1.25753e-06
4.00448e-10
-1.25817e-06
-5.61791e-09
-1.22057e-06
-1.17659e-06
-3.58315e-08
-4.77072e-09
-1.0606e-06
-4.63735e-08
2.71492e-08
-1.24277e-06
3.33659e-08
-1.27505e-06
2.11871e-08
-1.24174e-06
1.08795e-08
-1.23529e-06
-8.93631e-11
-1.23652e-06
-1.25984e-08
-1.24502e-06
-4.95473e-09
-1.26581e-06
1.19677e-08
-1.2375e-06