/*--------------------------------*- C++ -*----------------------------------*\
  =========                 |
  \\      /  F ield         | OpenFOAM: The Open Source CFD Toolbox
   \\    /   O peration     | Website:  https://openfoam.org
    \\  /    A nd           | Version:  8
     \\/     M anipulation  |
\*---------------------------------------------------------------------------*/
FoamFile
{
    version     2.0;
    format      ascii;
    class       surfaceScalarField;
    location    "2.55";
    object      alphaPhi0.water;
}
// * * * * * * * * * * * * * * * * * * * * * * * * * * * * * * * * * * * * * //

dimensions      [0 3 -1 0 0 0 0];

internalField   nonuniform List<scalar> 
18095
(
1.94031e-08
-1.71844e-07
1.5244e-07
2.31858e-08
-1.98447e-07
1.94664e-07
2.02059e-08
-2.05724e-07
2.08704e-07
1.08397e-08
-2.10259e-07
2.19625e-07
-2.32848e-10
-2.13192e-07
2.24264e-07
-1.0238e-08
-2.13611e-07
2.23616e-07
-1.92736e-08
-2.1086e-07
2.19895e-07
-2.30935e-08
-2.05768e-07
2.09588e-07
-1.94187e-08
-1.98396e-07
1.94722e-07
-1.71899e-07
1.5248e-07
1.55928e-08
-1.87436e-07
1.56731e-08
-1.98527e-07
1.21518e-08
-2.02203e-07
7.01667e-09
-2.05123e-07
5.80503e-10
-2.06756e-07
-6.20676e-09
-2.06824e-07
-1.19824e-08
-2.05084e-07
-1.56412e-08
-2.0211e-07
-1.5551e-08
-1.98487e-07
-1.8745e-07
6.88159e-09
-1.94318e-07
8.22002e-09
-1.99866e-07
7.07087e-09
-2.01054e-07
3.9377e-09
-2.0199e-07
5.21313e-12
-2.02823e-07
-4.01496e-09
-2.02804e-07
-7.18412e-09
-2.01915e-07
-8.2687e-09
-2.01025e-07
-6.87397e-09
-1.99881e-07
-1.94324e-07
4.58209e-09
-1.989e-07
4.65187e-09
-1.99936e-07
3.60913e-09
-2.00011e-07
2.02937e-09
-2.0041e-07
-2.48259e-11
-2.00769e-07
-2.08083e-09
-2.00748e-07
-3.62735e-09
-2.00368e-07
-4.64053e-09
-2.00012e-07
-4.57779e-09
-1.99944e-07
-1.98902e-07
1.0999e-09
1.16433e-09
1.15325e-09
7.42878e-10
-2.60909e-11
-7.73817e-10
-1.1423e-09
-1.15419e-09
-1.09823e-09
-2.50716e-08
-1.97021e-07
2.22093e-07
-2.76847e-08
-1.98413e-07
2.01026e-07
-2.34292e-08
-2.00967e-07
1.96711e-07
-1.37027e-08
-1.99895e-07
1.90169e-07
-1.19563e-09
-2.01149e-07
1.88642e-07
1.18706e-08
-2.01947e-07
1.88881e-07
2.26875e-08
-2.01285e-07
1.90468e-07
2.78272e-08
-2.02479e-07
1.97339e-07
2.54265e-08
-1.99231e-07
2.01631e-07
-1.97613e-07
2.23039e-07
-1.00905e-08
-1.86931e-07
-1.55876e-08
-1.92916e-07
-1.43099e-08
-2.02244e-07
-6.20948e-09
-2.07996e-07
1.22154e-09
-2.0858e-07
8.65345e-09
-2.09379e-07
1.62564e-08
-2.08888e-07
1.62263e-08
-2.02449e-07
1.03176e-08
-1.93322e-07
-1.87295e-07
-1.07597e-08
-1.76171e-07
-8.2737e-09
-1.95402e-07
-5.22615e-09
-2.05292e-07
-3.14386e-09
-2.10078e-07
7.0719e-10
-2.12431e-07
4.22552e-09
-2.12897e-07
6.05964e-09
-2.10722e-07
9.03258e-09
-2.05422e-07
1.12201e-08
-1.9551e-07
-1.76075e-07
-7.00563e-09
-1.69166e-07
-8.98286e-09
-1.93425e-07
-8.01011e-09
-2.06265e-07
-2.03008e-09
-2.16058e-07
2.65548e-09
-2.17116e-07
6.17333e-09
-2.16415e-07
1.0031e-08
-2.1458e-07
9.95207e-09
-2.05343e-07
7.33209e-09
-1.9289e-07
-1.68743e-07
-1.6725e-08
-1.54854e-08
-1.3046e-08
-9.47928e-09
-2.33116e-09
4.87008e-09
1.01853e-08
1.44309e-08
1.62628e-08
3.56838e-08
-1.54769e-07
1.19085e-07
4.22211e-08
-1.96943e-07
1.90406e-07
3.70886e-08
-2.0989e-07
2.15022e-07
2.66591e-08
-2.16566e-07
2.26995e-07
1.10176e-08
-2.18107e-07
2.33748e-07
-5.91642e-09
-2.17974e-07
2.34908e-07
-2.18453e-08
-2.15989e-07
2.31918e-07
-2.98791e-08
-2.1079e-07
2.18823e-07
-2.53704e-08
-1.99434e-07
1.94926e-07
-1.59539e-07
1.34169e-07
1.75336e-08
-1.72302e-07
2.03362e-08
-1.99746e-07
1.65194e-08
-2.06073e-07
9.34009e-09
-2.09386e-07
1.63701e-10
-2.0893e-07
-8.56822e-09
-2.09242e-07
-1.48921e-08
-2.09665e-07
-1.7914e-08
-2.07768e-07
-1.51388e-08
-2.0221e-07
-1.74678e-07
1.15099e-08
-1.83812e-07
1.16725e-08
-1.99908e-07
1.05776e-08
-2.04978e-07
7.2982e-09
-2.06107e-07
3.24133e-09
-2.04874e-07
-1.2402e-09
-2.0476e-07
-6.71529e-09
-2.0419e-07
-9.04959e-09
-2.05433e-07
-1.02102e-08
-2.01049e-07
-1.84888e-07
7.88084e-09
-1.91693e-07
7.16704e-09
-1.99194e-07
7.13626e-09
-2.04947e-07
1.06702e-09
-2.00038e-07
-1.1339e-09
-2.02673e-07
-2.90453e-09
-2.0299e-07
-6.86916e-09
-2.00225e-07
-6.49698e-09
-2.05806e-07
-7.66593e-09
-1.9988e-07
-1.92554e-07
3.04e-08
3.22318e-08
2.39956e-08
1.41265e-08
9.5473e-11
-1.40135e-08
-2.37703e-08
-3.22366e-08
-3.04852e-08
-2.34719e-08
2.50451e-08
-3.13472e-09
-4.14178e-08
2.97805e-08
-1.5292e-07
4.04559e-08
-1.90398e-07
3.68397e-08
-2.04986e-07
1.14045e-08
-1.90759e-07
-5.73834e-09
-1.74285e-07
-1.65652e-08
-1.53726e-07
-2.06442e-08
-1.39173e-07
-1.46267e-08
9.12358e-09
-1.48425e-07
-7.754e-09
7.53835e-08
-4.41459e-08
-5.74388e-08
7.37414e-08
-1.75722e-07
1.08824e-07
-2.17091e-07
7.76368e-08
-2.3915e-07
3.3112e-08
-2.57912e-07
1.79701e-08
-2.95722e-07
2.11581e-08
-3.52674e-07
2.95158e-08
-4.27512e-07
6.095e-08
9.20792e-08
-4.95495e-07
7.1106e-09
1.80336e-07
-8.83958e-08
-5.15204e-08
1.2717e-07
-1.70316e-07
1.53672e-07
-2.41751e-07
1.4863e-07
-2.97815e-07
8.89752e-08
-3.69462e-07
8.95833e-08
-4.50293e-07
1.06675e-07
-5.28814e-07
1.07347e-07
-5.97735e-07
1.29313e-07
1.43905e-07
-6.2881e-07
9.95479e-08
2.47053e-07
-1.58439e-07
4.10327e-08
2.57645e-07
-3.01511e-08
2.41987e-07
-1.85049e-07
3.03271e-07
-3.20695e-07
2.24535e-07
-4.03271e-07
1.7175e-07
-4.63536e-07
1.66308e-07
-5.23421e-07
1.6714e-07
-5.88982e-07
1.93544e-07
2.03763e-07
-6.4973e-07
1.34134e-07
2.60983e-07
-1.42042e-07
1.32656e-07
3.25214e-07
1.13527e-07
3.30102e-07
-4.23488e-10
3.6414e-07
-2.4013e-07
3.40073e-07
-3.78254e-07
3.09799e-07
-4.42648e-07
2.2996e-07
-4.87539e-07
2.11088e-07
-5.16489e-07
2.219e-07
2.31773e-07
-5.44812e-07
2.11028e-07
2.20579e-07
-1.80772e-07
2.1891e-07
3.07242e-07
2.04007e-07
3.45346e-07
1.20325e-07
3.82817e-07
1.23668e-08
2.81468e-07
-1.82994e-07
2.95763e-07
-3.47693e-07
3.3551e-07
-4.09771e-07
2.72881e-07
-4.27834e-07
2.39066e-07
2.31028e-07
-4.27717e-07
1.89162e-07
1.92331e-07
-1.67455e-07
2.11856e-07
2.9139e-07
2.17848e-07
3.39497e-07
1.1479e-07
3.20316e-07
6.26197e-08
3.26805e-07
3.70556e-08
3.17205e-07
-6.61488e-08
2.97148e-07
-2.57768e-07
2.64297e-07
-3.34149e-07
3.1399e-07
2.58972e-07
-3.62283e-07
1.45211e-07
2.13005e-07
-1.32908e-07
1.56422e-07
2.83311e-07
1.6261e-07
3.33384e-07
9.2669e-08
3.25871e-07
8.51629e-08
3.30189e-07
8.38555e-08
3.15413e-07
6.16065e-08
3.15502e-07
-6.93163e-10
2.66383e-07
-1.11773e-07
2.36137e-07
3.12799e-07
-2.3617e-07
2.38105e-08
2.27697e-07
-3.84843e-08
1.81581e-08
2.89019e-07
2.24545e-08
3.29168e-07
2.58719e-08
3.97631e-07
6.47445e-08
3.48488e-07
8.78741e-08
2.88388e-07
9.66592e-08
3.03227e-07
8.77125e-08
2.71434e-07
5.8535e-08
2.58779e-07
2.42926e-07
-2.5024e-08
-5.94875e-08
1.81109e-07
-6.20881e-09
-7.54767e-08
2.74079e-07
-7.86819e-08
3.32453e-07
-4.44749e-08
3.63544e-07
2.83599e-08
4.22588e-07
7.1878e-08
4.30669e-07
9.62274e-08
4.28133e-07
9.65374e-08
3.72563e-07
7.05656e-08
2.81278e-07
2.63289e-07
5.05069e-08
-1.12732e-08
3.79297e-08
6.94735e-10
-3.44776e-08
3.02798e-08
-6.36532e-08
1.14996e-07
-6.60931e-08
2.22208e-07
-2.65302e-08
4.01443e-07
3.02768e-08
3.91885e-07
7.80999e-08
3.96204e-07
5.25789e-08
4.77819e-07
3.77116e-08
3.49793e-07
2.71915e-07
2.75558e-08
-1.47041e-08
2.80678e-08
2.27002e-08
-7.99885e-09
2.13922e-08
-7.34464e-09
2.88592e-08
-2.03797e-08
4.43162e-08
-5.52821e-08
9.45631e-08
-8.97231e-08
2.73895e-07
-9.9769e-08
4.2194e-07
-6.05818e-08
4.53137e-07
-2.21628e-08
3.92858e-07
2.53239e-07
-5.84505e-09
-4.21204e-08
1.50872e-08
5.32736e-08
-3.61246e-08
1.35305e-08
-3.02791e-08
2.08314e-08
-2.18901e-08
3.37997e-08
-1.16444e-08
4.26683e-08
-5.04331e-08
7.30908e-08
-8.39232e-08
2.64408e-07
-1.0487e-07
3.76502e-07
-7.77211e-08
4.55244e-07
4.53764e-07
-6.97767e-08
-6.85217e-08
5.27065e-08
6.50827e-07
-6.48774e-08
7.71235e-09
-5.0735e-08
1.02192e-08
-3.83647e-08
2.29238e-08
-4.68591e-08
4.93103e-08
-7.0353e-08
1.31919e-07
-2.14679e-07
2.9708e-07
-2.87126e-07
4.10751e-07
-2.69063e-07
4.37703e-07
4.50079e-07
-2.64693e-07
-8.62433e-07
4.66823e-08
8.77981e-07
-5.82299e-07
5.8008e-08
-4.10058e-07
6.07688e-08
-3.94337e-07
1.08894e-07
-5.00013e-07
1.92991e-07
-5.52244e-07
2.70639e-07
-5.70838e-07
3.39426e-07
-5.38961e-07
3.79067e-07
-5.00232e-07
3.99154e-07
4.0249e-07
-4.52492e-07
-8.35155e-07
4.47062e-08
8.7817e-07
-8.32389e-07
3.59137e-08
-8.22698e-07
5.14782e-08
-7.98117e-07
8.47366e-08
-7.61969e-07
1.5713e-07
-7.37389e-07
2.46287e-07
-7.13436e-07
3.15481e-07
-6.76785e-07
3.42571e-07
-6.31374e-07
3.53894e-07
3.58785e-07
-5.8755e-07
-6.22529e-07
6.25572e-08
4.91691e-07
-8.21397e-07
5.22521e-08
-8.56153e-07
8.66689e-08
-8.34191e-07
6.31331e-08
-7.96718e-07
1.19832e-07
-7.7605e-07
2.25743e-07
-7.67415e-07
3.06971e-07
-7.52516e-07
3.27818e-07
-7.27957e-07
3.29492e-07
3.07066e-07
-6.76084e-07
-2.27838e-07
4.39202e-08
4.34232e-07
-1.20299e-07
3.73027e-08
-1.10626e-07
1.5881e-08
-7.37926e-07
5.93487e-08
-8.33976e-07
1.23038e-07
-7.85027e-07
1.77015e-07
-7.37256e-07
2.59337e-07
-7.65046e-07
2.08284e-07
-6.88074e-07
1.30536e-07
4.65561e-08
-4.68493e-07
-2.76325e-07
-3.66851e-08
3.4097e-07
-5.73626e-08
-8.18147e-09
-8.02808e-09
4.07793e-08
-2.4741e-08
2.27181e-08
-1.50214e-07
1.36112e-08
-2.91008e-07
6.19364e-10
-2.76544e-07
4.30217e-09
-1.45434e-07
1.01657e-08
-6.7419e-08
1.28762e-08
1.34291e-08
-4.27347e-08
-1.36968e-07
-2.76444e-10
4.67249e-08
-7.92739e-08
-2.6938e-08
5.38942e-09
3.3963e-08
4.10446e-10
2.61004e-08
-1.0966e-08
2.14653e-08
-2.01306e-08
0
-2.46389e-08
2.85314e-09
-2.65377e-08
1.45426e-08
-2.70179e-08
1.35889e-08
1.27028e-08
-2.6927e-08
3.3601e-08
2.15556e-08
-6.04573e-08
-3.71356e-08
4.224e-08
-1.32016e-08
4.22068e-08
5.52654e-09
2.22242e-08
-3.12759e-09
2.89647e-08
-1.2551e-08
8.39007e-09
-1.25611e-08
9.07772e-09
-1.61577e-08
2.29631e-08
-1.89418e-08
1.84294e-08
1.22423e-08
-1.8262e-08
7.21166e-08
1.03596e-07
-1.19104e-07
-2.14377e-08
1.26907e-07
-5.23854e-08
1.06915e-07
0
6.27084e-08
-2.50474e-09
3.33541e-08
-7.10662e-09
2.33917e-08
-1.10183e-08
2.34536e-08
-1.23615e-08
2.78329e-08
-1.31431e-08
2.40683e-08
2.02315e-08
-1.36219e-09
-9.44021e-08
2.52883e-07
-4.70753e-08
-1.58432e-07
1.96398e-07
-1.788e-07
1.32392e-07
-1.84134e-08
9.68044e-08
-5.87343e-09
2.76747e-08
-7.28895e-09
2.74884e-08
-4.26297e-10
2.70982e-08
-2.6176e-08
7.36893e-08
-8.77822e-09
5.77956e-08
-8.73385e-08
1.32267e-07
-1.66791e-07
3.14857e-07
1.84864e-08
-2.18164e-07
2.53144e-07
-2.29267e-07
1.48943e-07
-1.41212e-08
1.00036e-07
-6.39777e-09
2.26325e-08
-3.24109e-09
2.48477e-08
-1.26802e-09
2.75322e-08
-2.24307e-10
7.84664e-08
1.06772e-07
-1.71355e-08
-2.81426e-07
3.50314e-07
-1.05155e-07
2.06444e-07
1.77093e-08
-1.90292e-07
1.53958e-07
-2.17288e-07
2.74813e-08
-7.07911e-08
2.97024e-08
-7.07248e-09
2.15786e-08
-1.91472e-09
1.97149e-08
8.01207e-09
2.21131e-08
9.62493e-08
1.15089e-08
4.78798e-07
-1.41108e-07
-3.38786e-07
5.8144e-07
-4.56836e-08
1.97596e-08
6.53774e-09
-2.81437e-08
1.51717e-08
-2.3555e-08
1.09648e-08
-3.29052e-08
7.76507e-09
-7.53248e-09
2.86921e-08
-8.63233e-10
1.30214e-08
1.30423e-08
8.24892e-09
2.0745e-07
-4.02e-09
7.00313e-07
-1.76916e-07
-3.82359e-07
7.51469e-07
-7.5521e-09
2.15472e-08
4.02629e-09
-1.12103e-08
1.81449e-08
-1.11302e-08
1.00782e-08
-1.24946e-08
8.81268e-09
-6.94627e-09
8.29346e-09
3.39711e-09
2.71646e-09
1.42856e-08
-2.61096e-09
1.62962e-07
-7.02045e-09
7.12944e-07
-1.6664e-07
-5.06484e-07
8.47458e-07
-3.15088e-09
2.16732e-08
2.81653e-09
-5.12381e-09
1.99899e-08
-4.82467e-09
1.00002e-08
-3.21972e-09
7.32721e-09
1.47999e-09
3.61883e-09
6.71365e-09
-2.52186e-09
1.12842e-08
-7.14863e-09
6.28509e-08
-5.83343e-08
6.29468e-07
-2.99688e-07
-7.69031e-07
9.4445e-07
-2.90149e-09
1.97346e-08
4.98583e-09
-1.46761e-09
1.89538e-08
4.96732e-12
8.60545e-09
2.29444e-09
5.08297e-09
6.18334e-09
-2.07548e-10
6.54802e-09
-2.88268e-09
2.90733e-08
-2.97004e-08
2.93811e-07
-3.34986e-07
7.16118e-07
-7.22571e-07
-8.99745e-07
8.93485e-07
-4.0169e-09
1.57128e-08
8.12907e-09
7.01832e-10
1.42613e-08
3.06524e-09
6.31031e-09
6.32035e-09
1.8772e-09
8.2014e-09
-1.8984e-09
2.41976e-08
-1.8542e-08
3.04071e-07
-2.52344e-07
6.75457e-07
-7.29024e-07
8.77744e-07
-9.25141e-07
-6.23666e-07
5.15355e-07
-2.60183e-09
1.18153e-08
6.52592e-09
2.04716e-09
9.61191e-09
4.25558e-09
4.12935e-09
6.99773e-09
-7.95796e-10
1.55723e-08
-1.04212e-08
2.16794e-07
-1.56277e-07
6.42067e-07
-6.25827e-07
9.07607e-07
-9.73489e-07
6.91564e-07
-7.42767e-07
-9.9365e-08
8.40939e-08
-1.38149e-09
8.84464e-09
4.35171e-09
2.07546e-09
6.15494e-09
5.89823e-09
3.06163e-10
1.18087e-08
-6.67879e-09
1.52962e-07
-1.05439e-07
5.11706e-07
-4.50827e-07
8.42805e-07
-9.34962e-07
7.69494e-07
-8.76186e-07
9.45432e-08
-1.7143e-07
-2.09798e-08
1.45447e-08
-1.99819e-09
5.29122e-09
5.56061e-09
3.29991e-09
8.56474e-10
1.16663e-08
-8.05116e-09
9.12105e-08
-5.67062e-08
3.16818e-07
-2.99862e-07
7.08471e-07
-8.21812e-07
8.10114e-07
-1.01651e-06
1.93432e-07
-3.96076e-07
2.10619e-08
-2.87193e-08
-3.41979e-09
3.07691e-09
6.9049e-09
2.3649e-08
-1.5601e-09
3.39948e-08
-2.30975e-08
1.03183e-07
-5.22182e-08
1.20583e-07
-2.02322e-08
4.29533e-07
-5.84143e-07
6.77291e-07
-1.04848e-06
3.49304e-07
-6.25569e-07
2.87109e-08
-4.64046e-08
3.55779e-09
-3.3262e-09
-2.64536e-10
4.12711e-10
4.68266e-07
8.07945e-08
-3.43887e-07
3.98254e-07
6.45771e-08
2.61108e-07
8.49978e-08
1.19135e-07
1.21801e-07
3.42403e-07
-7.81294e-07
3.11e-07
-9.59123e-07
3.78305e-08
-3.04178e-07
3.04805e-09
-1.13822e-08
2.20006e-10
-4.86843e-10
-4.5947e-11
9.53619e-13
2.90359e-07
1.00741e-07
-3.10239e-07
2.4748e-07
1.07513e-07
1.83381e-07
1.4915e-07
1.17312e-07
1.87934e-07
1.34822e-07
-7.74546e-07
1.35614e-07
-9.57804e-07
8.06537e-09
-1.87066e-07
4.68981e-10
-3.80976e-09
1.50111e-11
-3.28145e-11
-2.71829e-11
-3.29726e-12
1.11331e-07
7.77404e-08
-8.82846e-08
1.16983e-07
1.01914e-07
1.00271e-07
1.65918e-07
7.26568e-08
1.69782e-07
9.10158e-08
-8.36403e-07
1.00114e-07
-1.01531e-06
3.01886e-09
-1.08232e-07
-4.70847e-13
-7.9017e-10
-5.70968e-12
-2.76402e-11
-2.59695e-11
-6.9926e-12
-7.97055e-08
2.59202e-08
1.31563e-07
-3.98872e-08
6.21408e-08
-4.38892e-09
1.15027e-07
3.14347e-08
9.81603e-08
5.41997e-08
-8.93335e-07
5.53265e-08
-1.06798e-06
5.64632e-10
-6.69545e-08
-1.02879e-11
-2.14884e-10
-1.64136e-11
-2.15547e-11
-2.14393e-11
-2.10064e-11
-2.16308e-07
-2.04795e-08
2.62745e-07
-1.6515e-07
1.09171e-08
-6.80818e-08
2.74418e-08
3.35595e-08
1.12743e-08
4.76652e-08
-1.05554e-06
2.64828e-08
-1.07134e-06
1.449e-10
-4.97363e-08
-1.505e-11
-5.49655e-11
-2.67833e-11
-9.85339e-12
-1.00772e-11
-3.82293e-11
-1.21646e-07
-1.78258e-09
7.2585e-08
-9.34366e-08
-2.62719e-10
-4.03476e-08
-2.45746e-08
2.8935e-08
-5.58853e-08
4.09961e-08
-1.06556e-06
1.28788e-08
-1.05027e-06
3.37685e-11
-4.14571e-08
-1.46358e-11
-6.04179e-12
-2.42951e-11
-2.48414e-13
-6.19433e-13
-3.37847e-11
3.42563e-10
-1.48848e-09
-6.71976e-10
4.29595e-11
0
-2.17824e-08
2.65205e-09
9.57905e-09
-6.04105e-09
1.65197e-08
-1.05305e-06
3.59898e-08
-1.06256e-06
-1.97939e-13
-1.34814e-09
-1.18421e-11
5.53783e-12
-2.17293e-11
9.56782e-12
8.58743e-12
-3.09904e-11
-6.73045e-09
-3.08546e-11
6.20925e-09
-5.77943e-09
1.41312e-09
0
3.19905e-12
3.80206e-09
-8.37458e-09
-7.80974e-10
-1.05058e-06
-9.74893e-09
-1.05053e-06
-1.08473e-10
-1.08866e-08
-3.2168e-11
3.11772e-11
-2.0894e-11
8.31452e-11
1.77451e-11
-2.98368e-11
-1.48987e-09
-1.15186e-12
1.10525e-09
-5.26244e-11
0
-8.65794e-12
-4.401e-12
-3.0386e-09
-1.38277e-08
1.22654e-09
-1.05001e-06
7.45658e-10
-1.04513e-06
0
-1.27446e-08
0
5.2002e-11
-2.76171e-12
1.32184e-10
2.49127e-11
-1.09012e-11
-3.10846e-11
1.77343e-12
1.53933e-11
0
-5.38554e-11
3.37075e-11
-2.42404e-12
4.67974e-09
-2.15658e-08
4.45068e-09
-1.04118e-06
-1.01955e-09
-1.0373e-06
0
-2.03094e-08
0
1.13819e-11
5.58795e-11
1.18937e-10
1.75138e-10
1.9591e-11
-5.57637e-12
2.47324e-11
-1.95594e-11
0
-1.93892e-11
1.67373e-12
-2.71594e-12
3.14445e-09
-2.33294e-08
1.44715e-09
-1.03181e-06
-5.03386e-10
-1.03107e-06
-1.239e-11
-2.27805e-08
0
-5.00831e-13
9.31422e-11
3.17078e-11
1.96556e-10
1.46463e-10
-1.6838e-11
1.25407e-11
6.42222e-11
0
-8.06944e-13
1.25379e-12
-2.93669e-12
-1.36429e-09
-2.31408e-08
-6.96386e-09
-1.02497e-06
-5.91711e-09
-1.02129e-06
-1.19256e-12
-2.29082e-08
0
-2.69051e-12
5.51757e-11
4.8014e-11
1.43641e-10
1.8112e-10
-3.92083e-13
3.62273e-13
1.53908e-11
-2.24616e-13
-9.78403e-13
2.24332e-13
-3.36122e-12
6.14914e-09
-2.02201e-08
6.80158e-09
-1.01268e-06
1.82394e-09
-1.01359e-06
-4.75727e-12
-2.23457e-08
8.56721e-13
-6.68277e-12
4.88017e-11
8.39238e-13
4.50877e-11
1.4869e-10
1.91004e-13
1.02904e-13
5.97375e-14
1.60198e-13
-9.48095e-13
1.29132e-13
-3.33878e-12
8.96953e-10
-1.61225e-08
-1.53528e-09
-1.00255e-06
-5.81517e-09
-9.99408e-07
-2.94435e-11
-2.04141e-08
1.44072e-12
-3.84989e-11
6.51675e-12
-1.10491e-11
1.02385e-12
3.78234e-11
5.02914e-13
-2.61154e-14
-3.96618e-13
6.29226e-13
-1.08304e-12
8.41182e-13
-3.54208e-12
1.72892e-08
-1.13526e-08
3.91177e-08
-9.87728e-07
2.32781e-08
-9.94154e-07
3.35741e-11
-8.52926e-09
0
-5.99269e-12
1.25773e-11
-5.79781e-11
-2.30352e-12
8.63267e-12
5.18408e-13
-3.06572e-14
-5.01918e-13
1.61337e-12
-3.74306e-12
3.82115e-12
-5.42994e-12
2.40367e-10
-4.60262e-10
2.04496e-08
-9.78652e-07
4.70278e-09
-9.8162e-07
-2.03496e-13
-1.05542e-09
0
-7.26413e-12
1.72609e-11
-6.85758e-11
-2.9339e-12
6.04365e-12
1.61032e-12
-5.57758e-14
-1.56712e-12
1.35027e-11
-3.0151e-11
1.44689e-11
-7.0042e-12
3.95603e-09
-5.33802e-10
3.30014e-09
-9.64498e-07
-2.32137e-09
-9.66186e-07
-7.28727e-12
-1.7033e-11
-7.28742e-12
-1.17893e-11
-5.78813e-13
-6.80012e-11
-1.39474e-12
-2.24747e-12
2.20151e-12
-4.24247e-13
-5.93016e-13
2.14238e-11
-3.67474e-11
8.512e-12
-1.21516e-11
1.29259e-09
-3.11525e-09
-1.03067e-08
-9.46578e-07
-1.66631e-11
-9.49031e-07
-1.69186e-12
-1.51206e-11
-1.20128e-11
-9.83337e-12
-4.3315e-12
-6.90193e-11
-3.34037e-13
-5.19343e-12
1.54439e-12
-1.79755e-12
-1.94153e-13
1.43649e-11
-3.70033e-11
1.00162e-11
-1.71903e-11
-1.57298e-08
-2.61829e-11
-3.3124e-08
-9.41692e-07
-1.09751e-11
-9.32408e-07
-1.68034e-12
-1.92419e-11
-1.10093e-11
-7.19289e-12
-7.74722e-13
-7.51255e-11
-2.58957e-13
-8.46334e-13
3.83881e-12
-1.52584e-12
-3.23111e-12
1.44095e-11
-3.59189e-11
2.26978e-12
-1.67073e-11
8.77336e-13
-7.39824e-11
3.43782e-09
-9.36912e-07
-5.54703e-11
-9.39191e-07
-8.86041e-13
-7.30439e-11
-5.43163e-12
-2.92447e-12
-2.00774e-13
-4.45323e-11
-2.61711e-13
-1.96728e-13
1.52396e-11
1.50399e-12
-1.63426e-11
1.38961e-11
-2.29169e-11
2.95219e-12
-7.43582e-12
2.65542e-10
-3.4012e-10
-1.63248e-10
-9.46205e-07
-3.49955e-10
-9.47286e-07
-1.06717e-12
-4.21119e-10
-1.05177e-12
-1.40148e-12
-1.7451e-13
-8.80649e-13
-2.81756e-13
-1.53799e-13
5.11513e-12
4.55283e-12
-8.79043e-12
7.17593e-12
1.27504e-12
1.89813e-12
-3.08109e-12
1.28458e-09
-1.62361e-09
-3.96136e-10
-9.58647e-07
-1.5967e-09
-9.59543e-07
-3.39656e-14
-2.01779e-09
-2.68831e-14
-1.41011e-12
-3.32495e-14
-8.75831e-13
-2.95563e-13
-1.98584e-14
3.78329e-12
8.76023e-12
-8.71604e-12
0
2.78587e-11
-7.5166e-13
-2.32943e-12
3.64376e-09
-7.33888e-09
-6.67211e-10
-9.6777e-07
-3.98818e-09
-9.67942e-07
-2.78409e-14
-8.3473e-09
-1.75123e-14
-1.42191e-12
-1.21453e-15
-8.9403e-13
-3.04603e-13
6.99565e-15
-2.71424e-12
7.17872e-11
-1.16146e-12
0
3.2197e-11
2.80277e-13
-2.6097e-12
3.74799e-09
-1.81633e-08
-7.67808e-10
-9.74475e-07
-4.28977e-09
-9.74897e-07
-1.67277e-13
-1.87644e-08
-8.26354e-14
-1.50845e-12
-8.44539e-15
-9.76077e-13
-3.10429e-13
-5.44996e-15
1.22638e-12
9.80699e-11
4.8579e-12
0
3.31274e-11
2.26298e-13
-2.836e-12
4.15631e-09
-2.69314e-08
1.00488e-10
-9.80304e-07
-4.11431e-09
-9.80475e-07
-1.36433e-12
-2.74163e-08
-1.33294e-12
-1.62283e-12
-6.46235e-13
-3.90323e-11
-1.71273e-11
-4.73639e-13
-3.59131e-12
9.10561e-11
1.84888e-11
0
2.23287e-11
3.66331e-13
-3.20233e-12
4.10846e-09
-3.57687e-08
-6.82293e-10
-9.8334e-07
-4.582e-09
-9.83835e-07
-3.72811e-12
-3.63059e-08
-4.05285e-12
-1.45904e-12
-5.41127e-12
-3.74695e-11
-1.85439e-11
-3.82081e-12
-5.40374e-12
4.87198e-11
4.13458e-11
0
3.02409e-12
1.90898e-13
-3.39323e-12
4.21366e-09
-4.32472e-08
-1.57497e-10
-9.83437e-07
-4.43177e-09
-9.83779e-07
-2.85668e-12
-4.37777e-08
-3.03412e-12
-1.36881e-12
-5.01393e-12
-3.53222e-11
-1.90442e-11
-4.30928e-12
-3.0084e-12
4.17153e-12
3.73264e-11
-9.81871e-14
1.13878e-13
3.02412e-13
-3.79379e-12
4.5211e-09
-4.93349e-08
-2.86683e-10
-9.80254e-07
-4.73666e-09
-9.80431e-07
-2.64645e-12
-4.97302e-08
-2.74674e-12
-1.24475e-12
-1.57655e-12
-3.41261e-11
-1.56296e-11
-4.78487e-12
-6.73335e-13
8.29515e-13
4.01377e-12
-7.77898e-14
-4.82016e-13
1.98568e-13
-4.07015e-12
4.50394e-09
-5.40448e-08
-9.2881e-10
-9.74429e-07
-5.14506e-09
-9.74757e-07
-2.32898e-12
-5.43007e-08
-2.25138e-12
-1.21378e-12
-1.41191e-12
-3.26683e-11
-4.43293e-13
-1.37072e-12
-2.19732e-13
1.61336e-12
2.68444e-12
1.80543e-13
-8.83865e-13
4.00115e-13
-4.29007e-12
4.84697e-09
-5.75232e-08
-3.82773e-10
-9.66754e-07
-5.36319e-09
-9.66701e-07
-3.54356e-12
-5.77726e-08
-3.66466e-12
-1.00873e-12
-2.02738e-13
-2.63052e-11
-3.28291e-13
-2.23948e-13
0
1.79539e-12
-1.03295e-12
2.05345e-12
-6.0444e-12
2.34571e-12
-4.58585e-12
5.31259e-09
-6.01337e-08
-1.40766e-10
-9.57327e-07
-5.29975e-09
-9.57594e-07
-1.11105e-12
-6.03831e-08
-1.19227e-12
-9.29491e-13
-2.11671e-13
-1.74377e-12
-1.55309e-13
-3.12e-13
2.50453e-12
8.59276e-13
-2.65862e-12
5.69712e-12
-2.89022e-12
5.87581e-12
-4.79938e-12
5.85423e-09
-6.28935e-08
-2.26402e-11
-9.47223e-07
-5.87478e-09
-9.47387e-07
-5.6285e-14
-6.31343e-08
-7.86587e-14
-9.28614e-13
-7.45031e-14
-1.74986e-12
0
-2.22216e-14
1.07264e-12
7.05729e-13
-9.19976e-13
6.78541e-12
-2.34302e-12
6.80606e-12
-4.89387e-12
5.77999e-09
-6.58525e-08
-5.94649e-10
-9.37266e-07
-6.26662e-09
-9.37433e-07
-5.99663e-13
-6.61451e-08
-6.17867e-13
-9.17243e-13
-1.17304e-12
-5.64166e-12
-1.16815e-12
-1.56493e-12
5.05014e-13
8.44065e-13
-6.44462e-13
5.52415e-12
-1.37475e-12
5.59857e-12
-5.03001e-12
6.01672e-09
-6.96646e-08
-8.85943e-10
-9.27779e-07
-6.91109e-09
-9.27846e-07
-1.6647e-12
-7.0128e-08
-1.77846e-12
-7.88868e-13
-2.58354e-12
-8.81102e-12
-8.94664e-14
-2.5722e-12
1.77895e-13
2.58024e-12
0
4.96974e-12
-9.7394e-13
4.94986e-12
-5.00022e-12
6.53558e-09
-7.49203e-08
-8.22024e-10
-9.19033e-07
-7.18209e-09
-9.19583e-07
-2.03975e-12
-7.55531e-08
-2.14169e-12
-6.69563e-13
-2.76432e-12
-8.64396e-12
-1.60684e-12
-1.67058e-13
-7.18345e-13
7.78487e-12
6.35547e-12
2.50126e-12
-3.87524e-12
2.63428e-12
-5.00167e-12
7.50487e-09
-8.19083e-08
5.17108e-10
-9.11559e-07
-6.98234e-09
-9.11934e-07
-1.64691e-12
-8.23073e-08
-1.82431e-12
-4.84132e-13
-5.8701e-12
-1.70469e-12
-3.05664e-12
-1.838e-12
0
1.84077e-11
2.60474e-12
7.6305e-12
-1.27721e-11
7.41249e-12
-4.73799e-12
7.69931e-09
-9.02334e-08
1.65073e-10
-9.04721e-07
-7.55684e-09
-9.04997e-07
-1.85872e-13
-9.06677e-08
-1.83829e-13
-4.79954e-13
3.81901e-13
-1.99416e-12
-1.81735e-12
3.75681e-12
0
2.0776e-11
-7.42354e-13
8.80264e-12
-1.14612e-11
8.50148e-12
-4.48694e-12
7.63381e-09
-9.96009e-08
-3.65834e-10
-8.98316e-07
-8.12613e-09
-8.98348e-07
-2.64279e-13
-1.00131e-07
-2.69437e-13
-4.74716e-13
1.98049e-13
-2.20191e-12
-3.02665e-12
3.68992e-12
0
3.37637e-11
-1.53596e-11
9.03521e-12
-6.16025e-12
8.17328e-12
-3.73331e-12
8.30368e-09
-1.09948e-07
-4.57618e-10
-8.91228e-07
-8.57794e-09
-8.91574e-07
-4.55908e-13
-1.10473e-07
-4.81749e-13
-4.42547e-13
-3.00526e-13
-2.08676e-12
-7.02652e-13
-2.03119e-13
1.76421e-12
5.22116e-11
-3.10439e-11
9.91275e-12
-6.73505e-12
9.89179e-12
-3.89194e-12
8.56393e-09
-1.20402e-07
-4.1485e-10
-8.83676e-07
-9.0321e-09
-8.84026e-07
-1.15943e-12
-1.21038e-07
-1.18041e-12
-4.05589e-13
0
-7.62456e-12
-4.60849e-13
-7.61025e-13
6.02642e-11
5.1719e-11
-5.953e-11
3.47861e-11
3.14589e-11
3.29098e-11
-2.19351e-12
9.29824e-09
-1.30671e-07
-1.84285e-10
-8.74932e-07
-9.59677e-09
-8.75131e-07
-2.25899e-12
-1.31402e-07
-2.33576e-12
-3.07945e-13
-4.21629e-13
-8.604e-12
-1.23964e-12
-1.7772e-13
2.58778e-11
3.60089e-11
-9.92514e-12
1.30133e-11
3.11826e-11
1.22638e-11
-1.49825e-12
9.68603e-09
-1.40076e-07
-8.4058e-11
-8.65097e-07
-9.84565e-09
-8.65187e-07
-1.67647e-12
-1.40834e-07
-1.80479e-12
-1.66894e-13
-1.91756e-12
-7.48894e-12
-7.50698e-12
-1.3372e-12
-1.45998e-11
3.4958e-13
1.61047e-11
1.10067e-12
0
1.06079e-12
-1.49112e-12
1.06042e-08
-1.49118e-07
6.98373e-11
-8.53833e-07
-1.05939e-08
-8.53706e-07
-9.09521e-13
-1.4975e-07
-1.01506e-12
-6.70465e-14
-2.54025e-12
-6.6841e-13
-1.81678e-11
-3.5633e-13
-1.99508e-13
3.83681e-13
2.12504e-14
8.37042e-13
-4.56709e-13
8.3007e-13
-1.52174e-12
1.0978e-08
-1.57803e-07
-2.59953e-10
-8.41603e-07
-1.11326e-08
-8.41733e-07
-4.19983e-14
-1.5844e-07
-5.44645e-14
-6.22285e-14
-2.05454e-13
-4.56808e-14
-5.25299e-12
-2.22201e-12
2.1269e-13
3.19966e-13
-2.93279e-13
3.55191e-12
-2.88532e-13
3.34328e-12
-1.35994e-12
1.22793e-08
-1.67911e-07
-2.37095e-10
-8.28256e-07
-1.25946e-08
-8.28398e-07
-4.45223e-15
-1.68635e-07
-1.02467e-14
-6.40723e-14
-9.69391e-15
-5.3872e-14
-3.38294e-12
-4.81316e-12
1.58778e-12
4.3865e-13
-2.1148e-13
5.04156e-12
-2.94379e-12
4.87917e-12
-1.25317e-12
1.24615e-08
-1.78985e-07
-3.61302e-10
-8.14969e-07
-1.28024e-08
-8.15314e-07
-2.28751e-14
-1.79746e-07
-2.54124e-14
-6.91832e-14
0
-1.93091e-13
-2.23566e-12
-4.676e-12
6.15209e-12
8.12635e-12
-7.70013e-14
5.92149e-12
-1.61854e-12
5.45071e-12
-8.50261e-13
1.45372e-08
-1.93559e-07
-3.30528e-10
-8.00118e-07
-1.50181e-08
-8.00447e-07
-7.12824e-14
-1.94424e-07
-7.95725e-14
-6.90871e-14
0
-6.28828e-13
-2.77309e-12
-1.26975e-12
4.16441e-13
-1.71069e-13
1.14076e-11
7.49184e-13
-4.22568e-13
6.21578e-13
-7.96212e-13
1.4165e-08
-2.0886e-07
-2.43229e-10
-7.85945e-07
-1.45423e-08
-7.86232e-07
-1.53763e-13
-2.0975e-07
-1.61967e-13
-5.89273e-14
-1.30463e-12
-6.12992e-13
-4.13485e-13
-1.3604e-12
0
-2.24924e-12
-1.35471e-12
1.65761e-13
-1.69456e-13
8.8838e-14
-7.94316e-13
1.71067e-08
-2.27888e-07
-1.71218e-10
-7.69009e-07
-1.7466e-08
-7.69184e-07
-1.88726e-13
-2.28875e-07
-2.03667e-13
-4.38277e-14
-2.74425e-13
-5.19621e-14
-1.41608e-14
-1.00677e-14
2.30035e-13
-1.37299e-12
-3.50914e-12
1.89018e-13
-1.54101e-13
1.06913e-13
-7.85767e-13
1.66036e-08
-2.46028e-07
-2.09131e-11
-7.52574e-07
-1.68043e-08
-7.52547e-07
-4.2176e-15
-2.471e-07
-6.04153e-15
-4.2559e-14
-7.19167e-15
-1.09873e-14
-1.05909e-14
-1.07017e-14
1.02248e-12
1.15802e-12
-3.6161e-12
2.53867e-13
-3.04133e-13
1.93771e-13
-8.00699e-13
1.9382e-08
-2.65417e-07
-2.7308e-10
-7.32811e-07
-1.96885e-08
-7.3295e-07
-3.96308e-15
-2.66583e-07
-4.76345e-15
-4.20725e-14
-7.31599e-15
-8.99001e-15
-7.72416e-15
-1.0972e-14
2.67023e-12
6.24816e-12
-5.05949e-12
6.19287e-13
-6.63661e-15
5.47131e-13
-8.08887e-13
1.93188e-08
-2.83754e-07
-2.68582e-10
-7.13021e-07
-1.99502e-08
-7.12926e-07
-1.30438e-14
-2.84886e-07
-8.71383e-15
-4.69518e-14
-4.4281e-15
-1.40651e-14
-1.65272e-13
0
4.13251e-12
9.46013e-12
-7.78708e-12
7.90364e-13
6.70085e-13
7.75255e-13
-8.87739e-13
2.31493e-08
-3.05519e-07
-5.35678e-10
-6.89227e-07
-2.37212e-08
-6.89544e-07
-7.29065e-14
-3.06592e-07
-1.30774e-14
-1.0749e-13
-2.38597e-14
-8.01629e-15
3.39994e-15
-3.93407e-12
1.02829e-11
1.28641e-11
-1.4061e-11
1.59923e-12
2.29969e-12
1.66985e-12
-1.07648e-12
2.38085e-08
-3.27939e-07
-4.44818e-10
-6.65097e-07
-2.37468e-08
-6.66403e-07
-7.26087e-13
-3.2899e-07
-1.13142e-14
-8.23081e-13
-1.33016e-14
-9.80243e-15
2.03802e-15
-3.67977e-13
2.74481e-12
1.55416e-13
-3.11828e-12
7.40184e-13
4.26552e-13
6.33893e-12
-6.80957e-12
2.71033e-08
-3.55655e-07
-1.18593e-09
-6.37125e-07
-2.85292e-08
-6.39231e-07
-8.73979e-12
-3.56767e-07
-7.41699e-15
-9.55774e-12
-5.58194e-15
-1.5297e-14
-8.55705e-15
4.46602e-14
9.71909e-14
8.15612e-14
-4.37092e-14
4.62662e-13
6.04527e-14
8.34276e-11
-8.98074e-11
2.44365e-08
-3.84443e-07
-2.72792e-09
-6.10332e-07
-3.03131e-08
-6.11456e-07
-1.09796e-10
-3.86289e-07
-1.35043e-14
-1.19344e-10
-1.26053e-14
-1.98555e-14
-5.5053e-15
1.34352e-15
-3.81737e-16
7.56402e-14
6.11681e-15
4.48216e-14
1.51264e-14
1.0799e-09
-1.16966e-09
2.68653e-08
-4.13715e-07
-1.43271e-10
-5.83258e-07
-3.04188e-08
-5.81336e-07
-1.33458e-09
-4.15516e-07
-1.10177e-14
-1.45392e-09
-1.02082e-14
-2.44102e-14
0
-5.31947e-15
-2.03771e-14
6.94862e-14
2.65158e-14
1.02255e-14
-1.55697e-14
9.28521e-09
-1.04549e-08
2.88142e-08
-4.31723e-07
3.96828e-09
-5.58447e-07
-2.63337e-08
-5.51047e-07
-9.82056e-09
-4.34425e-07
-6.41221e-14
-1.12744e-08
-5.34683e-14
-3.90331e-14
-1.23696e-13
-2.09901e-14
-6.8229e-16
5.53827e-14
1.47763e-14
4.17997e-14
-5.8067e-14
2.13416e-08
-3.18631e-08
3.96186e-08
-4.49449e-07
-6.31523e-10
-5.18216e-07
-2.2666e-08
-5.29047e-07
-1.92591e-08
-4.36836e-07
-5.95634e-13
-3.06201e-08
-4.9603e-13
-1.42894e-13
-3.48422e-13
-2.8424e-13
1.4804e-14
3.97162e-14
8.55337e-16
8.05246e-13
-8.48519e-13
1.86355e-08
-4.99099e-08
-2.94772e-09
-4.27416e-07
-3.23694e-08
-4.88815e-07
-7.46519e-08
-4.86774e-07
-4.91468e-08
-4.61986e-07
-3.35372e-12
-7.95515e-08
-6.83515e-13
-2.8185e-12
-1.10592e-13
-6.99694e-13
6.68943e-12
7.49822e-12
-2.46569e-14
2.87437e-11
-2.29011e-11
5.19458e-08
-1.01106e-07
5.84834e-08
-4.33626e-07
2.36283e-08
-4.5396e-07
-1.33009e-08
-4.49851e-07
-4.27554e-08
-4.32916e-07
-7.00852e-11
-1.23654e-07
-4.79135e-13
-7.24224e-11
-7.83378e-15
-5.84188e-13
2.38629e-11
6.4205e-12
-1.13635e-11
7.23486e-10
-7.22431e-10
6.91456e-08
-1.6733e-07
2.78922e-08
-3.92163e-07
-2.17027e-08
-4.04364e-07
-6.22394e-08
-4.09316e-07
-8.82415e-08
-4.07239e-07
-1.77775e-09
-2.13193e-07
-6.18293e-13
-1.84956e-09
-6.24099e-13
-4.73862e-15
2.99293e-11
3.05494e-12
-1.47176e-11
1.40479e-08
-1.47344e-08
1.05184e-07
-2.55544e-07
7.30632e-08
-3.60041e-07
3.43993e-08
-3.657e-07
-1.00062e-08
-3.64911e-07
-6.67608e-08
-3.50485e-07
-2.03083e-08
-2.62575e-07
-2.98172e-11
-2.21281e-08
-3.04442e-11
-5.43705e-16
4.36175e-10
-4.17079e-10
-1.03192e-11
5.11185e-08
-6.3975e-08
8.40889e-08
-2.87221e-07
3.04451e-08
-3.06397e-07
-2.14948e-08
-3.1376e-07
-6.9925e-08
-3.16481e-07
-1.06491e-07
-3.13919e-07
-7.87475e-08
-2.91351e-07
-1.73649e-09
-1.0239e-07
-1.76671e-09
-2.27275e-13
2.77946e-08
-2.81972e-08
-1.46192e-11
1.50164e-07
-1.84401e-07
1.16232e-07
-2.52956e-07
7.62949e-08
-2.6646e-07
3.06475e-08
-2.68113e-07
-2.01024e-08
-2.65731e-07
-7.57227e-08
-2.58299e-07
-1.23269e-07
-2.43805e-07
-3.50328e-08
-1.94208e-07
-3.67995e-08
-1.52509e-14
9.21243e-08
-1.19537e-12
9.88067e-08
6.08729e-08
2.14084e-08
-1.29561e-08
-4.37791e-08
-7.01605e-08