/*--------------------------------*- C++ -*----------------------------------*\
  =========                 |
  \\      /  F ield         | OpenFOAM: The Open Source CFD Toolbox
   \\    /   O peration     | Website:  https://openfoam.org
    \\  /    A nd           | Version:  8
     \\/     M anipulation  |
\*---------------------------------------------------------------------------*/
FoamFile
{
    version     2.0;
    format      ascii;
    class       surfaceScalarField;
    location    "2.55";
    object      phi;
}
// * * * * * * * * * * * * * * * * * * * * * * * * * * * * * * * * * * * * * //

dimensions      [0 3 -1 0 0 0 0];

internalField   nonuniform List<scalar> 
18095
(
1.94023e-08
-1.71844e-07
1.52441e-07
2.31854e-08
-1.98447e-07
1.94664e-07
2.02132e-08
-2.05729e-07
2.08701e-07
1.08593e-08
-2.1026e-07
2.19614e-07
-2.11735e-10
-2.13188e-07
2.24259e-07
-1.02193e-08
-2.13614e-07
2.23622e-07
-1.92658e-08
-2.10858e-07
2.19904e-07
-2.30912e-08
-2.05764e-07
2.0959e-07
-1.94174e-08
-1.98397e-07
1.94723e-07
-1.719e-07
1.52483e-07
1.55925e-08
-1.87436e-07
1.56722e-08
-1.98527e-07
1.2147e-08
-2.02204e-07
7.01329e-09
-2.05126e-07
5.82707e-10
-2.06757e-07
-6.20885e-09
-2.06822e-07
-1.19856e-08
-2.05081e-07
-1.56404e-08
-2.02109e-07
-1.55501e-08
-1.98487e-07
-1.8745e-07
6.88168e-09
-1.94318e-07
8.22046e-09
-1.99866e-07
7.07026e-09
-2.01053e-07
3.9338e-09
-2.0199e-07
7.10791e-13
-2.02824e-07
-4.01805e-09
-2.02804e-07
-7.18446e-09
-2.01914e-07
-8.26824e-09
-2.01026e-07
-6.87372e-09
-1.99882e-07
-1.94324e-07
4.58215e-09
-1.989e-07
4.65213e-09
-1.99936e-07
3.60967e-09
-2.00011e-07
2.0297e-09
-2.0041e-07
-2.50401e-11
-2.00769e-07
-2.08109e-09
-2.00748e-07
-3.62678e-09
-2.00369e-07
-4.6402e-09
-2.00012e-07
-4.57773e-09
-1.99944e-07
-1.98902e-07
1.10004e-09
1.16431e-09
1.15343e-09
7.43377e-10
-2.58119e-11
-7.73462e-10
-1.14225e-09
-1.15434e-09
-1.09837e-09
-2.50563e-08
-1.97025e-07
2.22081e-07
-2.76706e-08
-1.98405e-07
2.0102e-07
-2.34158e-08
-2.00966e-07
1.96711e-07
-1.3681e-08
-1.99893e-07
1.90158e-07
-1.1707e-09
-2.01148e-07
1.88637e-07
1.18933e-08
-2.01951e-07
1.88887e-07
2.27027e-08
-2.01289e-07
1.9048e-07
2.78278e-08
-2.02479e-07
1.97354e-07
2.54186e-08
-1.99227e-07
2.01636e-07
-1.97617e-07
2.23036e-07
-1.00911e-08
-1.86933e-07
-1.55769e-08
-1.9292e-07
-1.42924e-08
-2.0225e-07
-6.18352e-09
-2.08002e-07
1.25112e-09
-2.08582e-07
8.67521e-09
-2.09375e-07
1.6269e-08
-2.08883e-07
1.62351e-08
-2.02445e-07
1.03254e-08
-1.93317e-07
-1.87292e-07
-1.07579e-08
-1.76175e-07
-8.26962e-09
-1.95408e-07
-5.22132e-09
-2.05299e-07
-3.13349e-09
-2.1009e-07
7.19824e-10
-2.12436e-07
4.23145e-09
-2.12887e-07
6.05913e-09
-2.1071e-07
9.03165e-09
-2.05418e-07
1.12194e-08
-1.95505e-07
-1.76073e-07
-7.0108e-09
-1.69165e-07
-8.99517e-09
-1.93424e-07
-8.03071e-09
-2.06263e-07
-2.0599e-09
-2.1606e-07
2.62757e-09
-2.17123e-07
6.15132e-09
-2.16411e-07
1.00187e-08
-2.14578e-07
9.9444e-09
-2.05344e-07
7.3291e-09
-1.92889e-07
-1.68744e-07
-1.67233e-08
-1.54828e-08
-1.30451e-08
-9.49135e-09
-2.35568e-09
4.85522e-09
1.01815e-08
1.44273e-08
1.62608e-08
3.5692e-08
-1.54755e-07
1.19063e-07
4.22364e-08
-1.96932e-07
1.90388e-07
3.71023e-08
-2.0988e-07
2.15014e-07
2.66791e-08
-2.16564e-07
2.26987e-07
1.104e-08
-2.18102e-07
2.33741e-07
-5.88561e-09
-2.17973e-07
2.34899e-07
-2.17963e-08
-2.15991e-07
2.31902e-07
-2.98393e-08
-2.10794e-07
2.18837e-07
-2.5338e-08
-1.99451e-07
1.9495e-07
-1.59557e-07
1.34219e-07
1.75353e-08
-1.72291e-07
2.03439e-08
-1.99741e-07
1.65301e-08
-2.06066e-07
9.346e-09
-2.0938e-07
1.71283e-10
-2.08928e-07
-8.55699e-09
-2.09245e-07
-1.4876e-08
-2.09672e-07
-1.78966e-08
-2.07773e-07
-1.51241e-08
-2.02224e-07
-1.74681e-07
1.15151e-08
-1.83806e-07
1.16804e-08
-1.99906e-07
1.05866e-08
-2.04972e-07
7.29478e-09
-2.06088e-07
3.23582e-09
-2.04869e-07
-1.24451e-09
-2.04764e-07
-6.71772e-09
-2.04199e-07
-9.04952e-09
-2.05441e-07
-1.02137e-08
-2.0106e-07
-1.84895e-07
7.89303e-09
-1.91699e-07
7.17576e-09
-1.99189e-07
7.13439e-09
-2.04931e-07
1.05858e-09
-2.00012e-07
-1.14049e-09
-2.02669e-07
-2.90941e-09
-2.02995e-07
-6.87353e-09
-2.00235e-07
-6.50612e-09
-2.05809e-07
-7.67737e-09
-1.99888e-07
-1.92572e-07
3.03821e-08
3.22128e-08
2.3993e-08
1.41386e-08
1.06413e-10
-1.40019e-08
-2.37574e-08
-3.22118e-08
-3.04641e-08
-5.18836e-08
5.46252e-08
-2.7416e-09
-1.13902e-07
6.2018e-08
-1.67841e-07
5.39388e-08
-2.05633e-07
3.77924e-08
-2.16661e-07
1.1028e-08
-2.09443e-07
-7.21777e-09
-1.90488e-07
-1.8955e-08
-1.67848e-07
-2.26405e-08
-1.53014e-07
-1.48339e-08
1.08921e-08
-1.63906e-07
-2.06046e-08
1.54541e-07
-7.93118e-08
-1.12019e-07
1.53432e-07
-1.9212e-07
1.3404e-07
-2.35349e-07
8.10208e-08
-2.58476e-07
3.41555e-08
-2.84656e-07
1.89618e-08
-3.26888e-07
2.32768e-08
-3.82602e-07
3.30732e-08
-4.63992e-07
6.65563e-08
9.85503e-08
-5.5165e-07
6.97684e-09
2.53325e-07
-1.05761e-07
-8.98609e-08
2.5027e-07
-1.87733e-07
2.31912e-07
-2.60491e-07
1.53779e-07
-3.19655e-07
9.33198e-08
-3.96063e-07
9.53694e-08
-4.85865e-07
1.13079e-07
-5.67674e-07
1.14881e-07
-6.40394e-07
1.39277e-07
1.52271e-07
-6.94115e-07
1.38634e-07
2.77976e-07
-1.63285e-07
5.60423e-08
3.32861e-07
-4.3609e-08
3.31563e-07
-2.06562e-07
3.16732e-07
-3.45266e-07
2.32024e-07
-4.31959e-07
1.82062e-07
-4.96504e-07
1.77624e-07
-5.61723e-07
1.80101e-07
-6.30784e-07
2.08338e-07
2.18223e-07
-6.96736e-07
1.43184e-07
2.91941e-07
-1.57149e-07
1.47725e-07
3.28321e-07
1.16513e-07
3.62775e-07
-1.6219e-08
4.49464e-07
-2.67089e-07
4.82893e-07
-4.07889e-07
3.22863e-07
-4.74398e-07
2.44132e-07
-5.223e-07
2.28003e-07
-5.53657e-07
2.39695e-07
2.5045e-07
-5.85885e-07
2.27475e-07
2.80164e-07
-2.15697e-07
2.25407e-07
3.30388e-07
2.19983e-07
3.68199e-07
1.99618e-07
4.6983e-07
3.01184e-09
6.79499e-07
-2.35245e-07
5.61119e-07
-3.79897e-07
3.88784e-07
-4.40585e-07
2.88692e-07
-4.57022e-07
2.56132e-07
2.50206e-07
-4.56777e-07
2.40671e-07
2.46288e-07
-2.06796e-07
2.46251e-07
3.24809e-07
2.51186e-07
3.63263e-07
2.23818e-07
4.97198e-07
1.79347e-07
7.2397e-07
4.6254e-08
6.94212e-07
-1.39845e-07
5.74884e-07
-2.90141e-07
4.38987e-07
-3.64081e-07
3.30072e-07
2.73974e-07
-3.87849e-07
1.62009e-07
2.35418e-07
-1.51138e-07
1.82593e-07
3.04225e-07
1.90132e-07
3.55724e-07
1.79301e-07
5.08028e-07
1.92173e-07
7.11098e-07
1.82186e-07
7.04199e-07
1.13293e-07
6.43777e-07
-2.07251e-08
5.73005e-07
-1.62151e-07
4.71498e-07
3.76086e-07
-2.64263e-07
2.91216e-08
2.49139e-07
-4.28436e-08
2.47148e-08
3.08632e-07
3.00026e-08
3.50436e-07
6.00147e-08
4.78016e-07
1.45027e-07
6.26085e-07
1.98691e-07
6.50536e-07
2.10688e-07
6.31779e-07
1.83682e-07
6.00011e-07
8.22869e-08
5.72893e-07
5.07513e-07
-4.91408e-08
-6.65125e-08
3.21492e-07
-5.83968e-09
-8.24369e-08
3.24556e-07
-8.57679e-08
3.53767e-07
-4.7423e-08
4.39671e-07
4.77027e-08
5.30959e-07
1.31911e-07
5.66327e-07
1.94312e-07
5.69378e-07
2.02322e-07
5.92001e-07
1.52295e-07
6.2292e-07
5.77026e-07
8.27827e-08
-6.66785e-08
3.79397e-07
8.77314e-09
-8.48801e-08
3.42758e-07
-9.6531e-08
3.65418e-07
-8.27385e-08
4.25879e-07
-3.25079e-08
4.80729e-07
4.06269e-08
4.93193e-07
1.05357e-07
5.04648e-07
1.07275e-07
5.90083e-07
8.37182e-08
6.46476e-07
5.99674e-07
6.10704e-08
-1.92853e-07
2.72689e-07
2.99561e-07
-1.40323e-07
2.90226e-07
-1.14133e-07
3.39229e-07
-1.02052e-07
4.13797e-07
-1.03283e-07
4.8196e-07
-1.04564e-07
4.94473e-07
-1.09923e-07
5.10007e-07
-9.33292e-08
5.73489e-07
-4.80848e-08
6.01232e-07
5.61547e-07
-9.95796e-09
-6.11732e-07
1.3915e-07
7.4527e-07
-5.10994e-07
1.8949e-07
-4.12371e-07
2.40606e-07
-3.20738e-07
3.22165e-07
-2.65468e-07
4.2669e-07
-2.2118e-07
4.50185e-07
-2.09849e-07
4.98676e-07
-1.73016e-07
5.36656e-07
-1.15649e-07
5.43865e-07
5.38155e-07
-9.2256e-08
-9.46481e-07
9.12401e-08
9.94392e-07
-8.60496e-07
1.03505e-07
-7.16396e-07
9.65055e-08
-5.5727e-07
1.63039e-07
-4.37715e-07
3.07134e-07
-4.00555e-07
4.13026e-07
-3.80154e-07
4.78275e-07
-3.43384e-07
4.99886e-07
-3.09431e-07
5.09912e-07
5.22692e-07
-2.93968e-07
-9.57303e-07
5.02933e-08
9.9825e-07
-9.17822e-07
6.40231e-08
-9.1704e-07
9.57238e-08
-9.03467e-07
1.49466e-07
-8.30148e-07
2.33814e-07
-7.43794e-07
3.26672e-07
-6.68664e-07
4.03145e-07
-6.11197e-07
4.42419e-07
-5.64372e-07
4.63087e-07
4.66135e-07
-5.07816e-07
-1.00811e-06
5.163e-08
1.00677e-06
-9.9574e-07
5.16552e-08
-9.63445e-07
6.34283e-08
-9.19554e-07
1.05576e-07
-8.78329e-07
1.92589e-07
-8.47569e-07
2.95913e-07
-8.13768e-07
3.69344e-07
-7.699e-07
3.98551e-07
-7.17291e-07
4.10477e-07
4.15594e-07
-6.66749e-07
-8.87816e-07
1.05244e-07
8.34202e-07
-9.49425e-07
1.13264e-07
-9.81418e-07
9.5421e-08
-9.53398e-07
7.75557e-08
-9.11956e-07
1.51147e-07
-8.9172e-07
2.75677e-07
-8.80007e-07
3.57631e-07
-8.59952e-07
3.78495e-07
-8.27858e-07
3.78383e-07
3.56625e-07
-7.68889e-07
-4.49796e-07
6.27239e-08
4.92316e-07
-4.75906e-07
1.39373e-07
-7.03627e-07
3.23142e-07
-9.47459e-07
3.21388e-07
-9.58101e-07
1.61789e-07
-9.06725e-07
2.24301e-07
-8.89028e-07
3.39934e-07
-8.89621e-07
3.79088e-07
-8.89576e-07
3.78338e-07
3.07155e-07
-8.40105e-07
-2.88308e-07
-4.10712e-08
3.92103e-07
-1.4144e-07
-7.49466e-09
-5.95474e-08
2.4125e-07
-4.17511e-07
6.79352e-07
-7.24538e-07
4.68816e-07
-8.29895e-07
3.29658e-07
-8.67046e-07
3.77085e-07
-9.29079e-07
4.41121e-07
-9.88014e-07
4.37273e-07
3.77796e-07
-1.05865e-06
-1.75398e-07
-3.72386e-09
1.38051e-07
-1.4301e-07
-3.98827e-08
4.352e-08
5.47194e-08
5.32903e-08
6.69581e-07
-2.65824e-07
7.8793e-07
-5.37108e-07
6.00942e-07
-7.08289e-07
5.48266e-07
-8.2296e-07
5.55792e-07
-9.13798e-07
5.28111e-07
4.33785e-07
-9.69787e-07
6.84768e-08
6.36939e-08
-1.35895e-07
-2.60033e-08
5.45979e-08
-2.96398e-08
5.83561e-08
2.15237e-07
4.24704e-07
-6.13539e-08
1.06452e-06
-3.63049e-07
9.02638e-07
-5.6213e-07
7.47349e-07
-6.67964e-07
6.61626e-07
-7.04374e-07
5.64522e-07
3.87303e-07
-6.57894e-07
1.13069e-07
1.84679e-07
-2.34053e-07
-7.32067e-09
1.74987e-07
-8.77885e-08
1.38824e-07
9.54366e-08
2.41479e-07
-4.10801e-08
1.20104e-06
-2.82934e-07
1.14449e-06
-4.74735e-07
9.3915e-07
-5.25442e-07
7.12333e-07
-3.86491e-07
4.25571e-07
1.32579e-07
-1.31766e-07
-1.11095e-07
3.7073e-07
-7.49557e-08
-1.86236e-07
2.50128e-07
-2.29867e-07
1.82455e-07
-2.27877e-07
2.39489e-07
-2.04011e-07
1.17717e-06
-3.05833e-07
1.24631e-06
-3.95929e-07
1.02925e-06
-3.03419e-07
6.19823e-07
-7.91648e-08
2.01317e-07
-1.57067e-07
2.1048e-07
-2.13137e-07
5.29154e-07
5.47123e-08
-2.80261e-07
3.17252e-07
-3.24905e-07
2.27099e-07
-3.83748e-07
2.98331e-07
-2.37663e-07
1.03109e-06
-1.24273e-07
1.13292e-06
-1.48642e-08
9.19838e-07
-1.68278e-09
6.06642e-07
2.44989e-07
-4.53552e-08
-3.2535e-07
4.13273e-07
-1.95097e-07
6.48684e-07
7.55669e-08
-2.99555e-07
4.21709e-07
-4.22466e-07
3.50011e-07
-5.05518e-07
3.81382e-07
-2.6251e-07
7.8808e-07
-2.57156e-08
8.9613e-07
1.65106e-07
7.29015e-07
4.27602e-07
3.44145e-07
6.12813e-07
-2.30566e-07
-3.72377e-07
6.59839e-07
-2.52756e-07
8.46379e-07
5.50615e-08
-4.35546e-07
6.04498e-07
-5.05327e-07
4.19791e-07
-5.57604e-07
4.33659e-07
-3.2577e-07
5.56247e-07
-3.43321e-08
6.04692e-07
3.23965e-07
3.70718e-07
7.28394e-07
-6.02838e-08
7.95896e-07
-2.98069e-07
-4.24832e-07
8.48351e-07
-2.70342e-07
9.74539e-07
1.42182e-07
-4.70291e-07
8.04448e-07
-5.31344e-07
4.80843e-07
-5.12236e-07
4.14552e-07
-3.51719e-07
3.95729e-07
1.07291e-07
1.4568e-07
5.75418e-07
-9.74092e-08
7.48666e-07
-2.33532e-07
7.83034e-07
-3.32438e-07
-5.74163e-07
9.32366e-07
-1.61847e-07
1.00278e-06
1.33602e-07
-2.65174e-07
9.07776e-07
-2.67325e-07
4.82994e-07
-2.00319e-07
3.47546e-07
1.35165e-08
1.81895e-07
2.51529e-07
-9.23321e-08
3.83845e-07
-2.29724e-07
5.203e-07
-3.69988e-07
7.38529e-07
-5.50666e-07
-8.88855e-07
1.05322e-06
-1.4025e-07
9.211e-07
2.21934e-07
-1.09978e-07
8.77505e-07
-3.1029e-08
4.04044e-07
7.13508e-08
2.45165e-07
2.52464e-07
7.81252e-10
2.65972e-07
-1.05842e-07
3.02868e-07
-2.66622e-07
5.00329e-07
-5.6745e-07
8.75496e-07
-9.25832e-07
-1.16133e-06
1.14797e-06
-1.88546e-07
7.42753e-07
3.66892e-07
1.35061e-08
6.75452e-07
1.21426e-07
2.96124e-07
2.74292e-07
9.23015e-08
3.54497e-07
-7.94241e-08
4.21778e-07
-1.73122e-07
5.55977e-07
-4.0082e-07
8.64731e-07
-8.76204e-07
1.12987e-06
-1.19097e-06
-1.22433e-06
1.19287e-06
-1.31555e-07
5.56488e-07
3.17821e-07
8.64004e-08
4.57494e-07
1.88473e-07
1.94051e-07
3.14487e-07
-3.37133e-08
3.7033e-07
-1.35269e-07
4.82116e-07
-2.84909e-07
8.06166e-07
-7.2487e-07
1.10941e-06
-1.17945e-06
1.23968e-06
-1.32125e-06
-1.25764e-06
1.27299e-06
-7.778e-08
4.15827e-07
2.18441e-07
8.76716e-08
2.92044e-07
2.65028e-07
1.66949e-08
3.38377e-07
-1.07061e-07
4.17112e-07
-2.14005e-07
6.51873e-07
-5.1967e-07
1.00655e-06
-1.07954e-06
1.17706e-06
-1.34996e-06
1.23207e-06
-1.37625e-06
-1.15144e-06
1.12587e-06
-1.08479e-07
2.57811e-07
2.66495e-07
1.33528e-07
5.00367e-08
2.5646e-07
-1.06236e-07
2.62783e-07
-1.13385e-07
3.92627e-07
-3.43849e-07
8.18357e-07
-9.454e-07
1.07838e-06
-1.33957e-06
1.22663e-06
-1.49821e-06
1.28113e-06
-1.43076e-06
-1.14915e-06
1.27885e-06
1.89879e-07
1.16963e-07
-4.90307e-08
2.77914e-07
-3.79984e-08
2.37972e-07
-6.62936e-08
1.48934e-07
-2.43471e-08
4.70179e-07
-6.65093e-07
8.20367e-07
-1.29559e-06
1.00315e-06
-1.52235e-06
1.03625e-06
-1.53132e-06
9.77536e-07
-1.37204e-06
-1.04034e-06
8.68726e-07
5.54566e-07
8.88369e-08
-5.2644e-07
4.46116e-07
7.04512e-08
2.89476e-07
9.03459e-08
1.37063e-07
1.28067e-07
4.66611e-07
-9.94641e-07
6.55251e-07
-1.48423e-06
6.95496e-07
-1.5626e-06
6.47146e-07
-1.48297e-06
3.85426e-07
-1.11032e-06
-7.84904e-07
1.3e-07
3.18724e-07
1.09411e-07
-3.39298e-07
2.7323e-07
1.15945e-07
2.03707e-07
1.5987e-07
1.31529e-07
2.00244e-07
3.50025e-07
-1.21314e-06
4.12421e-07
-1.54662e-06
4.22934e-07
-1.57311e-06
3.34187e-07
-1.39422e-06
7.49187e-08
-8.51053e-07
-6.86113e-07
-2.38775e-08
1.23725e-07
8.48955e-08
-9.92095e-08
1.29015e-07
1.10655e-07
1.09698e-07
1.79187e-07
9.02484e-08
2.19694e-07
2.45281e-07
-1.36817e-06
2.64115e-07
-1.56546e-06
2.54764e-07
-1.56376e-06
-1.1777e-09
-1.13829e-06
-1.22758e-07
-7.29455e-07
-6.75235e-07
-1.33639e-07
-8.47871e-08
2.84726e-08
1.4121e-07
-4.18425e-08
6.77098e-08
-3.51554e-09
1.4086e-07
5.9592e-08
1.56586e-07
1.37453e-07
-1.44603e-06
1.2519e-07
-1.5532e-06
1.00511e-07
-1.53908e-06
-2.34774e-07
-8.03011e-07
-3.98083e-07
-5.66136e-07
-5.37163e-07
-5.36159e-07
-2.35587e-07
-2.899e-08
2.9305e-07
-1.79697e-07
1.18204e-08
-7.8495e-08
3.96577e-08
5.82461e-08
1.98446e-08
8.77938e-08
-1.47558e-06
6.39028e-08
-1.5293e-06
5.42738e-08
-1.52945e-06
-2.50432e-07
-4.98306e-07
-5.52529e-07
-2.64045e-07
-2.6443e-07
-8.25263e-07
-1.8723e-07
-8.1199e-08
2.39439e-07
-1.2413e-07
-5.12791e-08
-5.14675e-08
-3.30052e-08
4.17019e-08
-7.33248e-08
6.09075e-08
-1.49478e-06
3.3307e-08
-1.5017e-06
2.13452e-08
-1.51749e-06
-3.04748e-07
-1.72211e-07
-5.51378e-07
-1.74169e-08
-2.31094e-08
-7.92699e-07
6.75934e-08
-6.87935e-08
-7.99985e-08
6.53849e-09
9.77599e-09
-1.28737e-07
1.0227e-07
1.59796e-08
-2.18041e-07
3.45221e-08
-1.51333e-06
7.7963e-08
-1.54514e-06
-2.32557e-09
-1.4372e-06
-3.07761e-07
1.33225e-07
-5.61056e-07
2.3588e-07
2.11375e-07
-7.95539e-07
-5.48536e-07
-2.62242e-09
4.82365e-07
-7.39751e-07
2.00991e-07
-7.7888e-07
1.41399e-07
5.00886e-08
-1.04701e-06
-4.52442e-10
-1.46279e-06
-8.148e-08
-1.46412e-06
-1.27577e-07
-1.3911e-06
-2.76525e-07
2.8217e-07
-4.88527e-07
4.4788e-07
4.32787e-07
-7.09936e-07
-9.78143e-07
-5.61325e-09
9.81134e-07
-7.95815e-07
1.86628e-08
-4.16214e-07
-2.38201e-07
-4.77301e-09
-1.45845e-06
3.26992e-09
-1.47083e-06
1.14039e-09
-1.46199e-06
2.33888e-08
-1.41335e-06
4.44039e-08
2.61158e-07
-7.95528e-08
5.71833e-07
6.06685e-07
-2.53451e-07
-2.03823e-07
5.41548e-08
1.44055e-07
-6.69135e-08
-1.18246e-07
5.02767e-08
-3.5539e-07
3.05384e-08
-1.43871e-06
1.63489e-08
-1.45664e-06
8.3692e-09
-1.45401e-06
1.68403e-08
-1.42182e-06
1.83256e-07
9.47487e-08
2.46596e-07
5.08492e-07
5.98446e-07
2.54828e-07
-3.9858e-09
1.09179e-07
-5.10375e-08
-1.02563e-08
-1.11974e-07
3.68886e-08
-4.02535e-07
1.83091e-08
-1.42013e-06
9.6124e-09
-1.44794e-06
4.5291e-09
-1.44892e-06
1.7613e-10
-1.41747e-06
1.50084e-07
-5.5157e-08
2.86297e-07
3.72288e-07
4.75397e-07
4.09342e-07
-3.9737e-08
7.35518e-08
7.53647e-08
-2.6896e-08
-1.24812e-07
2.65739e-08
-4.56005e-07
1.8517e-08
-1.41208e-06
8.1796e-09
-1.4376e-06
-1.34187e-09
-1.4394e-06
-9.94651e-09
-1.40887e-06
1.71687e-07
-2.36794e-07
2.68233e-07
2.75743e-07
3.38321e-07
4.05307e-07
-6.33698e-08
4.88097e-08
8.81121e-08
-4.17178e-08
-1.46466e-07
9.43959e-09
-5.0716e-07
2.347e-10
-1.40287e-06
-1.14326e-08
-1.42594e-06
-2.15408e-08
-1.42929e-06
-2.81718e-08
-1.40224e-06
2.0621e-07
-4.71174e-07
4.26491e-07
5.54626e-08
2.47289e-07
5.17521e-07
1.66871e-08
1.8845e-08
1.32782e-08
8.54331e-09
-1.38327e-07
-1.57621e-09
-4.97039e-07
-1.55368e-08
-1.38891e-06
-2.14438e-08
-1.42003e-06
-4.04646e-08
-1.41027e-06
-4.37624e-08
-1.39894e-06
1.16841e-07
-6.31778e-07
3.82611e-07
-2.10308e-07
8.85886e-08
5.41308e-07
6.64892e-08
3.46137e-09
-5.11049e-08
5.34249e-08
-1.25267e-07
3.19636e-08
-4.75577e-07
1.98873e-08
-1.37683e-06
5.13455e-09
-1.40528e-06
-4.43075e-09
-1.40071e-06
-1.04672e-08
-1.3929e-06
5.28806e-08
-6.95125e-07
1.84907e-07
-3.42336e-07
-9.08776e-08
3.64373e-07
7.88757e-08
-5.07194e-10
-7.49063e-08
9.47835e-08
-1.41173e-07
9.43832e-08
-4.75174e-07
7.91786e-08
-1.36163e-06
5.49642e-08
-1.38106e-06
4.83448e-08
-1.39409e-06
1.92846e-08
-1.36384e-06
4.4177e-08
-7.20018e-07
9.98041e-08
-3.97964e-07
-2.10266e-07
2.19188e-07
7.21889e-08
-4.60529e-09
-6.80901e-08
7.49383e-08
-1.43922e-07
6.07198e-08
-4.60952e-07
1.53236e-08
-1.31623e-06
4.04455e-09
-1.36978e-06
-1.75042e-08
-1.37254e-06
-3.33634e-08
-1.34799e-06
-2.43076e-08
-7.29072e-07
-4.0285e-08
-3.81986e-07
-2.00655e-07
-4.98994e-08
5.50815e-08
-2.15419e-08
-3.81446e-08
5.36311e-08
-1.42471e-07
3.07754e-08
-4.38099e-07
2.11298e-08
-1.30659e-06
2.80348e-09
-1.35146e-06
-1.3851e-08
-1.35588e-06
-4.24045e-08
-1.31943e-06
-7.0794e-08
-7.00681e-07
-1.15871e-07
-3.36906e-07
-1.56652e-07
-1.59878e-07
5.47039e-08
-5.31587e-08
-2.30861e-08
5.00437e-08
-1.37805e-07
3.69193e-08
-4.24974e-07
1.12409e-08
-1.28091e-06
-1.3913e-09
-1.33882e-06
-2.29056e-08
-1.33437e-06
-4.6639e-08
-1.2957e-06
-6.7116e-08
-6.80202e-07
-9.55288e-08
-3.08489e-07
-1.22363e-07
-1.29816e-07
8.00979e-08
-4.85232e-08
-8.47327e-08
6.86053e-08
-1.26306e-07
5.63993e-08
-4.12769e-07
2.24544e-08
-1.24696e-06
2.05851e-09
-1.31843e-06
-1.20238e-08
-1.32029e-06
-4.04089e-08
-1.26731e-06
-5.68396e-08
-6.63779e-07
-6.07971e-08
-3.0453e-07
-1.23158e-07
-5.99984e-08
1.43315e-07
4.51039e-08
-2.36942e-07
7.82752e-08
-6.12655e-08
3.68872e-08
-3.71381e-07
1.68552e-08
-1.22693e-06
-6.56128e-10
-1.30092e-06
-1.85071e-08
-1.30244e-06
-2.77211e-08
-1.2581e-06
-2.91736e-08
-6.62331e-07
-3.68862e-08
-2.96819e-07
-1.32446e-07
-2.75992e-08
1.20631e-07
1.68734e-07
-2.44261e-07
3.33917e-08
2.59683e-08
1.15883e-08
-3.49576e-07
1.51936e-08
-1.23054e-06
-3.41302e-10
-1.28538e-06
-1.69353e-08
-1.28584e-06
-1.4305e-08
-1.26073e-06
-9.06103e-09
-6.67571e-07
-1.19456e-08
-2.93937e-07
-1.38529e-07
-5.8659e-09
6.17166e-08
2.60255e-07
-1.53237e-07
-1.13837e-08
9.90632e-08
-5.35176e-09
-3.55613e-07
1.45376e-08
-1.25043e-06
-1.34961e-09
-1.26949e-06
-1.72057e-08
-1.26999e-06
-5.89221e-09
-1.27204e-06
-3.92054e-09
-6.69539e-07
1.51609e-09
-2.9937e-07
-1.42066e-07
5.05034e-09
-1.82289e-08
2.96721e-07
-1.82359e-08
-3.67874e-08
1.1763e-07
8.46738e-09
-4.0086e-07
1.45778e-08
-1.25654e-06
-9.17035e-10
-1.254e-06
-1.62444e-08
-1.25466e-06
-1.91644e-08
-1.26912e-06
-1.00668e-08
-6.7864e-07
-1.59733e-09
-3.07837e-07
-1.42448e-07
-1.21444e-09
7.02437e-09
2.61429e-07
2.8267e-08
-8.74715e-09
1.33393e-07
2.62035e-08
-4.35815e-07
1.47492e-08
-1.24509e-06
-3.40381e-11
-1.23922e-06
-1.49027e-08
-1.23979e-06
-2.9765e-08
-1.25426e-06
-1.40624e-08
-6.94349e-07
-1.17697e-08
-3.10129e-07
-1.36064e-07
-1.8151e-08
-1.46324e-08
2.31118e-07
4.49439e-08
-2.89843e-08
1.47746e-07
2.65016e-08
-4.91303e-07
1.40337e-08
-1.23262e-06
-7.70934e-10
-1.22441e-06
-1.53626e-08
-1.2252e-06
-2.95904e-08
-1.24003e-06
-1.95093e-08
-7.04429e-07
-4.47275e-08
-2.84911e-07
-1.37864e-07
-4.29286e-08
-1.73213e-08
1.90462e-07
5.79769e-08
-1.77323e-10
1.306e-07
2.82244e-08
-5.19704e-07
1.34091e-08
-1.2178e-06
-3.21044e-10
-1.21068e-06
-1.45131e-08
-1.21101e-06
-2.87124e-08
-1.22583e-06
-1.4772e-08
-7.18364e-07
-3.71154e-08
-2.62565e-07
-1.3959e-07
-3.53911e-08
-1.47471e-07
1.68002e-07
1.6993e-07
-3.40843e-08
1.72108e-08
2.57924e-08
-5.79579e-07
1.39772e-08
-1.20599e-06
-5.0792e-10
-1.1962e-06
-1.49966e-08
-1.19652e-06
-2.99361e-08
-1.21089e-06
-1.42562e-08
-7.34044e-07
-2.6829e-08
-2.4999e-07
-1.36452e-07
-2.99646e-08
-9.87415e-08
1.24554e-07
1.42189e-07
-1.136e-08
-7.018e-08
2.83975e-08
-6.19339e-07
1.41929e-08
-1.19179e-06
-5.87917e-10
-1.18141e-06
-1.50638e-08
-1.18204e-06
-3.05775e-08
-1.19538e-06
-1.12351e-08
-7.5339e-07
-2.01166e-08
-2.41114e-07
-1.23688e-07
-3.28825e-08
-1.43832e-08
9.65292e-08
4.24076e-08
1.62103e-08
-1.00776e-07
2.99616e-08
-6.33089e-07
1.53967e-08
-1.17722e-06
4.8212e-10
-1.1665e-06
-1.48661e-08
-1.16669e-06
-2.85458e-08
-1.1817e-06
-1.90688e-08
-7.62865e-07
-3.05693e-08
-2.29615e-07
-1.11965e-07
-4.22947e-08
3.23117e-08
9.02795e-08
-2.6063e-08
3.15047e-08
-9.99758e-08
3.20294e-08
-6.33618e-07
1.61761e-08
-1.16137e-06
5.07337e-10
-1.15083e-06
-1.48228e-08
-1.15136e-06
-3.08697e-08
-1.16565e-06
-3.32949e-08
-7.60439e-07
-5.16344e-08
-2.11276e-07
-9.87103e-08
-6.48908e-08
7.03301e-08
9.64236e-08
-7.6475e-08
3.97737e-08
-6.9416e-08
3.33214e-08
-6.27166e-07
1.75088e-08
-1.14556e-06
7.07325e-10
-1.13403e-06
-1.6116e-08
-1.13454e-06
-3.21618e-08
-1.14961e-06
-3.47158e-08
-7.57887e-07
-4.04409e-08
-2.05554e-07
-6.45395e-08
-7.46143e-08
8.05648e-08
1.06896e-07
-9.10391e-08
4.69274e-08
-3.57771e-08
3.38609e-08
-6.14098e-07
1.72677e-08
-1.12896e-06
2.33178e-10
-1.117e-06
-1.65703e-08
-1.11774e-06
-3.34823e-08
-1.1327e-06
-4.09355e-08
-7.50437e-07
-4.74443e-08
-1.99051e-07
-2.52469e-08
-8.67395e-08
6.57082e-08
1.28142e-07
-8.69544e-08
3.75749e-08
-7.65293e-09
3.25781e-08
-6.09103e-07
1.70282e-08
-1.11341e-06
-6.16239e-10
-1.09935e-06
-1.85479e-08
-1.09981e-06
-3.43573e-08
-1.11689e-06
-4.03127e-08
-7.44484e-07
-5.00435e-08
-1.89325e-07
-7.57257e-09
-6.77193e-08
1.6283e-08
1.43134e-07
-3.12752e-08
3.24424e-08
-2.3815e-08
3.36869e-08
-6.10348e-07
1.70469e-08
-1.09677e-06
-1.28174e-09
-1.08102e-06
-1.95793e-08
-1.08151e-06
-3.51469e-08
-1.10132e-06
-3.85226e-08
-7.41109e-07
-4.76897e-08
-1.80159e-07
-7.18235e-09
-4.80804e-08
-9.87675e-09
1.2467e-07
2.83403e-08
3.72589e-08
-7.09481e-08
3.5665e-08
-6.08754e-07
1.87764e-08
-1.07988e-06
1.11258e-10
-1.06236e-06
-1.85742e-08
-1.06282e-06
-3.73166e-08
-1.08258e-06
-5.00667e-08
-7.2836e-07
-6.52381e-08
-1.64985e-07
-3.64079e-08
-3.60125e-08
1.92394e-08
9.76878e-08
7.74242e-09
3.24523e-08
-8.41614e-08
3.65492e-08
-6.12851e-07
1.93011e-08
-1.06264e-06
3.39386e-10
-1.0434e-06
-1.8409e-08
-1.04407e-06
-3.49159e-08
-1.06607e-06
-2.20255e-08
-7.41252e-07
9.6317e-09
-1.96643e-07
-3.69868e-08
1.02106e-08
4.36576e-08
5.80298e-08
-3.99948e-09
3.51239e-08
-7.5629e-08
3.54358e-08
-6.13164e-07
1.82098e-08
-1.04541e-06
-2.47977e-10
-1.02494e-06
-1.9019e-08
-1.0253e-06
-3.64739e-08
-1.04862e-06
-2.62162e-08
-7.5151e-07
4.95958e-09
-2.27819e-07
-6.23652e-08
3.03391e-08
7.31701e-08
7.85649e-08
-9.37053e-08
4.98537e-08
-5.23128e-08
3.59485e-08
-5.99259e-07
1.87716e-08
-1.02823e-06
-4.5234e-10
-1.00571e-06
-1.92804e-08
-1.00647e-06
-3.78442e-08
-1.03005e-06
-3.87021e-08
-7.50651e-07
-3.4997e-08
-2.31521e-07
-7.86584e-08
-1.87014e-08
6.60049e-08
1.23284e-07
-1.10724e-07
3.15228e-08
-1.78312e-08
3.76587e-08
-6.05395e-07
1.84806e-08
-1.00906e-06
-3.96959e-10
-9.86836e-07
-1.93108e-08
-9.87561e-07
-3.7991e-08
-1.01137e-06
-4.02126e-08
-7.48427e-07
-3.12166e-08
-2.40514e-07
-8.05545e-08
-2.93193e-08
1.27385e-07
1.0165e-07
-1.05751e-07
4.6311e-08
6.3242e-08
3.89291e-08
-5.98013e-07
1.90895e-08
-9.89216e-07
-2.00928e-10
-9.67545e-07
-1.96951e-08
-9.68067e-07
-3.88514e-08
-9.92215e-07
-4.24232e-08
-7.44854e-07
-4.68825e-08
-2.36056e-07
-9.35965e-08
-3.38424e-08
5.24113e-08
6.90145e-08
-1.97759e-08
1.92106e-08
9.64427e-08
3.90073e-08
-6.1781e-07
1.90966e-08
-9.69305e-07
-5.32474e-11
-9.48396e-07
-1.93086e-08
-9.48812e-07
-3.89626e-08
-9.72561e-07
-4.94939e-08
-7.34323e-07
-5.06533e-08
-2.34901e-07
-1.06321e-07
-3.79312e-08
-7.68181e-08
6.71581e-08
7.86745e-08
9.08629e-09
1.05386e-08
3.86481e-08
-6.47371e-07
2.01501e-08
-9.50807e-07
1.39518e-10
-9.28385e-07
-1.99713e-08
-9.28701e-07
-4.00137e-08
-9.52518e-07
-5.08726e-08
-7.23466e-07
-5.10251e-08
-2.3475e-07
-1.3674e-07
-2.06069e-08
-1.6547e-08
7.85662e-08
5.13909e-09
4.05512e-08
-4.65594e-08
4.04041e-08
-6.47223e-07
2.01134e-08
-9.30516e-07
-2.03515e-10
-9.08068e-07
-2.0212e-08
-9.08692e-07
-4.08175e-08
-9.31913e-07
-4.75913e-08
-7.16694e-07
-3.84062e-08
-2.43934e-07
-1.61281e-07
-1.38645e-08
5.90458e-08
9.49774e-08
-7.54566e-08
4.96592e-08
-3.71727e-08
4.25651e-08
-6.40129e-07
2.15924e-08
-9.09543e-07
-1.80936e-10
-8.86295e-07
-2.19636e-08
-8.8691e-07
-4.25061e-08
-9.11371e-07
-4.52632e-08
-7.13937e-07
-3.52774e-08
-2.53918e-07
-1.65726e-07
-3.08324e-08
4.92833e-08
9.68941e-08
-5.11996e-08
4.31589e-08
-3.10478e-08
4.22458e-08
-6.39216e-07
2.09704e-08
-8.88268e-07
-3.25113e-10
-8.64999e-07
-2.13954e-08
-8.65839e-07
-4.28194e-08
-8.89947e-07
-5.4269e-08
-7.02486e-07
-5.48784e-08
-2.53309e-07
-1.70229e-07
-5.03762e-08
4.9744e-08
5.60125e-08
-8.8624e-09
5.51707e-08
-3.64743e-08
4.54154e-08
-6.29461e-07
2.32322e-08
-8.66085e-07
-3.19124e-10
-8.41448e-07
-2.3913e-08
-8.42245e-07
-4.58313e-08
-8.68028e-07
-5.60996e-08
-6.92217e-07
-6.01326e-08
-2.49278e-07
-1.65912e-07
-6.44506e-08
1.1527e-08
-1.61906e-09
4.61046e-08
4.42506e-08
-6.91971e-08
4.40858e-08
-6.29296e-07
2.1417e-08
-8.43416e-07
-2.46093e-10
-8.19785e-07
-2.19512e-08
-8.2054e-07
-4.47845e-08
-8.45195e-07
-6.18135e-08
-6.7519e-07
-8.40313e-08
-2.27061e-07
-1.453e-07
-1.04643e-07
2.9567e-08
-2.63962e-08
-4.78976e-09
4.95834e-08
-8.92116e-08
4.8268e-08
-6.27981e-07
2.44766e-08
-8.19624e-07
-1.87114e-10
-7.95121e-07
-2.49863e-08
-7.95741e-07
-4.8661e-08
-8.2152e-07
-6.71955e-08
-6.56656e-07
-1.04196e-07
-1.90059e-07
-1.12911e-07
-1.36583e-07
7.19898e-08
-1.73902e-08
-8.09955e-08
6.1997e-08
-7.92168e-08
4.68631e-08
-6.12846e-07
2.23147e-08
-7.95075e-07
-6.91328e-11
-7.72737e-07
-2.26522e-08
-7.73158e-07
-4.72232e-08
-7.96949e-07
-6.65446e-08
-6.37334e-07
-1.05249e-07
-1.51353e-07
-8.3309e-08
-1.3485e-07
9.54145e-08
1.17803e-08
-1.24584e-07
6.85908e-08
-5.2391e-08
5.01587e-08
-5.94413e-07
2.47568e-08
-7.69673e-07
-3.19955e-10
-7.4766e-07
-2.52622e-08
-7.48216e-07
-5.05652e-08
-7.71646e-07
-6.58131e-08
-6.22084e-07
-9.60912e-08
-1.21074e-07
-5.80756e-08
-1.21325e-07
1.25651e-07
5.54274e-08
-1.69297e-07
7.54112e-08
-2.14959e-09
5.00061e-08
-5.69007e-07
2.36203e-08
-7.43287e-07
-1.11591e-10
-7.23929e-07
-2.41044e-08
-7.24223e-07
-5.03547e-08
-7.45396e-07
-6.50855e-08
-6.07353e-07
-9.165e-08
-9.45112e-08
-2.85795e-08
-1.21148e-07
1.34693e-07
1.02848e-07
-1.82113e-07
7.74622e-08
5.50829e-08
5.45263e-08
-5.46071e-07
2.74007e-08
-7.16161e-07
5.9894e-11
-6.96588e-07
-2.68167e-08
-6.97347e-07
-5.38454e-08
-7.18367e-07
-6.77394e-08
-5.9346e-07
-8.4797e-08
-7.74553e-08
4.97983e-10
-1.13876e-07
1.18988e-07
1.50197e-07
-1.66336e-07
7.0011e-08
1.04061e-07
5.53747e-08
-5.31434e-07
2.71598e-08
-6.87946e-07
5.63502e-10
-6.69992e-07
-2.50906e-08
-6.71692e-07
-5.32285e-08
-6.90229e-07
-6.3574e-08
-5.83116e-07
-4.22682e-08
-9.87623e-08
5.85159e-09
-4.7623e-08
8.67986e-08
2.03417e-07
-1.40018e-07
6.78267e-08
1.23034e-07
5.86126e-08
-5.2222e-07
2.99662e-08
-6.593e-07
2.78089e-10
-6.40303e-07
-2.84775e-08
-6.42937e-07
-5.6866e-08
-6.61841e-07
-7.20636e-08
-5.67919e-07
-1.93325e-08
-1.51495e-07
-3.05104e-08
1.70285e-08
5.814e-08
2.32509e-07
-8.7232e-08
6.67944e-08
1.14382e-07
5.77812e-08
-5.13206e-07
2.68545e-08
-6.28372e-07
-1.33889e-09
-6.1211e-07
-2.98827e-08
-6.14393e-07
-6.12141e-08
-6.30509e-07
-8.48747e-08
-5.44259e-07
-4.02323e-08
-1.9614e-07
-7.31762e-08
2.43222e-09
-5.91263e-09
2.28258e-07
1.01647e-08
6.00058e-08
4.84665e-08
5.87459e-08
-5.11944e-07
2.57269e-08
-5.95353e-07
-1.70466e-09
-5.84678e-07
-3.31004e-08
-5.82997e-07
-6.73125e-08
-5.96297e-07
-7.78675e-08
-5.33705e-07
-4.57833e-08
-2.28225e-07
-9.27845e-08
-2.61763e-08
-7.09996e-08
2.21458e-07
7.78007e-08
2.64037e-08
-4.89333e-08
6.27887e-08
-5.48328e-07
2.78806e-08
-5.60445e-07
2.58749e-09
-5.59385e-07
-2.83949e-08
-5.52015e-07
-6.1193e-08
-5.63499e-07
-2.43064e-08
-5.70593e-07
-2.40244e-08
-2.28508e-07
-7.59188e-08
-4.089e-08
-2.97295e-09
1.76998e-07
4.7434e-08
8.36423e-08
-1.35547e-07
7.10428e-08
-5.35728e-07
4.0145e-08
-5.29547e-07
-7.70937e-10
-5.18469e-07
-2.31292e-08
-5.29657e-07
-6.20125e-08
-5.24616e-07
-9.98695e-08
-5.32736e-07
-9.51062e-08
-2.33271e-07
-7.65299e-08
-9.44931e-08
4.70466e-08
1.26978e-07
2.97491e-09
1.08238e-07
-1.96738e-07
4.24919e-08
-4.69982e-07
-3.09558e-09
-4.8396e-07
-3.24709e-08
-4.89094e-07
-7.52172e-08
-4.8691e-07
-1.05001e-07
-4.94832e-07
-1.49217e-07
-4.8852e-07
-1.17467e-07
-2.6502e-07
-8.02531e-08
-1.13742e-07
1.13086e-07
9.1593e-08
-7.77017e-08
1.22011e-07
-2.05663e-07
9.24253e-08
-4.40396e-07
5.86859e-08
-4.5022e-07
2.36166e-08
-4.54025e-07
-1.33778e-08
-4.49916e-07
-6.19272e-08
-4.46282e-07
-1.15904e-07
-4.34543e-07
-1.25809e-07
-2.55113e-07
-8.68281e-08
-1.19233e-07
1.33283e-07
7.35352e-08
-1.15225e-07
1.3988e-07
-2.12259e-07
8.39642e-08
-3.8448e-07
2.79464e-08
-3.94203e-07
-2.1691e-08
-4.04387e-07
-6.22819e-08
-4.09325e-07
-1.00416e-07
-4.08148e-07
-1.44907e-07
-3.90052e-07
-1.45644e-07
-2.54376e-07
-1.2085e-07
-1.11623e-07
8.08282e-08
3.53897e-08
-4.2682e-08
1.4886e-07
-2.80289e-07
1.06835e-07
-3.42455e-07
7.31676e-08
-3.60535e-07
3.44778e-08
-3.65698e-07
-9.93521e-09
-3.64912e-07
-6.71282e-08
-3.50955e-07
-1.1791e-07
-3.39271e-07
-3.94433e-08
-3.32842e-07
-1.30009e-07
-3.02851e-08
1.37177e-07
-5.21306e-08
-4.96557e-08
1.31458e-07
-2.7457e-07
8.45722e-08
-2.95569e-07
3.04952e-08
-3.06458e-07
-2.14475e-08
-3.13755e-07
-6.98939e-08
-3.16466e-07
-1.0694e-07
-3.13909e-07
-1.50447e-07
-2.95764e-07
-2.05275e-07
-2.78015e-07
-1.4852e-07
-1.86764e-07
2.16728e-07
-1.85183e-07
-8.36747e-08
1.58673e-07
-2.16515e-07
1.16337e-07