/*--------------------------------*- C++ -*----------------------------------*\
  =========                 |
  \\      /  F ield         | OpenFOAM: The Open Source CFD Toolbox
   \\    /   O peration     | Website:  https://openfoam.org
    \\  /    A nd           | Version:  8
     \\/     M anipulation  |
\*---------------------------------------------------------------------------*/
FoamFile
{
    version     2.0;
    format      ascii;
    class       volScalarField;
    location    "1.75";
    object      nut;
}
// * * * * * * * * * * * * * * * * * * * * * * * * * * * * * * * * * * * * * //

dimensions      [0 2 -1 0 0 0 0];

internalField   nonuniform List<scalar> 
9150
(
9.60144e-06
6.41366e-06
6.73255e-06
9.38416e-06
8.868e-06
8.86797e-06
9.38457e-06
6.73272e-06
6.41358e-06
9.60145e-06
9.48813e-06
5.74742e-06
8.50707e-06
1.05768e-05
8.273e-06
8.27286e-06
1.05769e-05
8.50737e-06
5.74735e-06
9.48813e-06
9.29626e-06
5.50992e-06
1.11021e-05
1.0965e-05
7.89638e-06
7.89626e-06
1.09649e-05
1.11023e-05
5.50987e-06
9.29626e-06
9.08061e-06
5.43149e-06
1.3755e-05
1.09672e-05
7.69946e-06
7.69937e-06
1.09671e-05
1.3755e-05
5.43145e-06
9.0806e-06
8.84579e-06
5.41406e-06
1.60304e-05
1.08768e-05
7.60067e-06
7.60059e-06
1.08766e-05
1.60302e-05
5.41402e-06
8.84579e-06
5.91883e-06
1.14942e-05
1.46112e-05
1.90421e-05
1.92993e-05
1.93e-05
1.90453e-05
1.46164e-05
1.14976e-05
5.91906e-06
6.28264e-06
8.94587e-06
1.18538e-05
1.66503e-05
1.67424e-05
1.67426e-05
1.6652e-05
1.18567e-05
8.94728e-06
6.28263e-06
6.8308e-06
7.94734e-06
9.72896e-06
1.41636e-05
1.41073e-05
1.41074e-05
1.41647e-05
9.73046e-06
7.94769e-06
6.83077e-06
7.38762e-06
7.32472e-06
8.22953e-06
1.20572e-05
1.18826e-05
1.18826e-05
1.2058e-05
8.23023e-06
7.32471e-06
7.3876e-06
8.07566e-06
6.8631e-06
7.25253e-06
1.04005e-05
1.0083e-05
1.0083e-05
1.04011e-05
7.25285e-06
6.86301e-06
8.07565e-06
1.27916e-05
1.60479e-05
1.36746e-05
1.71834e-05
2.00026e-05
2.00395e-05
1.72742e-05
1.39056e-05
1.67376e-05
1.30079e-05
7.89595e-06
1.09928e-05
1.30802e-05
1.73032e-05
2.01132e-05
2.0137e-05
1.73576e-05
1.31307e-05
1.10077e-05
7.90259e-06
7.46983e-06
1.03648e-05
1.31491e-05
1.74764e-05
2.02306e-05
2.02457e-05
1.75128e-05
1.31775e-05
1.03739e-05
7.47185e-06
7.04009e-06
9.97486e-06
1.31938e-05
1.76197e-05
2.03307e-05
2.03407e-05
1.76419e-05
1.32107e-05
9.98484e-06
7.04096e-06
6.51562e-06
1.02342e-05
1.32204e-05
1.78454e-05
2.02603e-05
2.02655e-05
1.78566e-05
1.32296e-05
1.02423e-05
6.51603e-06
0.000100386
0.000100341
0.000100252
0.000100112
9.99173e-05
9.96666e-05
9.93577e-05
9.89888e-05
9.85575e-05
9.80588e-05
0.000988708
0.0009869
0.000984181
0.000980633
0.000976311
0.000971244
0.000965449
0.000958929
0.000951683
0.000943711
0.00195395
0.00195045
0.00194518
0.00193821
0.0019296
0.00191941
0.00190766
0.00189437
0.00187953
0.00186315
0.00275358
0.00274881
0.00274158
0.00273195
0.00272002
0.00270583
0.00268944
0.00267087
0.00265013
0.00262723
0.0033966
0.00339093
0.00338222
0.00337057
0.00335607
0.00333882
0.00331888
0.0032963
0.00327113
0.00324341
0.00391115
0.00390481
0.00389492
0.00388163
0.00386506
0.00384533
0.00382257
0.00379686
0.00376829
0.00373694
0.0043241
0.0043171
0.00430612
0.00429131
0.00427287
0.00425097
0.00422577
0.00419743
0.00416609
0.00413187
0.00465818
0.00465037
0.00463814
0.00462174
0.00460139
0.00457734
0.00454982
0.00451906
0.00448526
0.00444861
0.00493175
0.00492278
0.004909
0.00489072
0.00486824
0.00484188
0.00481196
0.00477878
0.00474264
0.00470377
0.00515907
0.00514845
0.00513267
0.00511209
0.00508711
0.00505816
0.00502563
0.00498994
0.00495145
0.00491049
0.00535075
0.0053379
0.00531956
0.00529619
0.0052683
0.0052364
0.00520102
0.00516267
0.0051218
0.00507882
0.00551435
0.00549863
0.00547715
0.00545047
0.00541921
0.00538402
0.00534554
0.00530439
0.00526112
0.00521623
0.00565491
0.00563571
0.00561051
0.00558003
0.005545
0.00550622
0.00546446
0.00542044
0.00537482
0.00532818
0.00577559
0.00575232
0.00572293
0.00568823
0.00564913
0.00560657
0.00556143
0.00551458
0.00546676
0.00541862
0.00587816
0.00585039
0.00581642
0.00577724
0.00573392
0.00568752
0.00563907
0.00558954
0.00553977
0.00549049
0.00596355
0.00593098
0.00589226
0.00584853
0.00580102
0.00575093
0.00569941
0.00564752
0.00559618
0.00554616
0.00603226
0.00599481
0.00595137
0.00590327
0.00585186
0.00579845
0.00574432
0.00569058
0.00563821
0.005588
0.00608472
0.00604253
0.00599468
0.00594264
0.00588788
0.00583183
0.00577581
0.00572099
0.00566834
0.00561868
0.00612158
0.00607509
0.00602341
0.00596813
0.00591083
0.00585303
0.00579608
0.00574117
0.00568927
0.00564114
0.00614394
0.00609386
0.00603918
0.00598161
0.0059228
0.00586432
0.00580756
0.0057537
0.00570371
0.0056583
0.00615341
0.00610067
0.00604404
0.00598528
0.00592612
0.00586814
0.00581275
0.00576114
0.00571426
0.00567283
0.00615215
0.00609782
0.00604037
0.00598159
0.00592323
0.00586688
0.00581396
0.00576568
0.00572301
0.00568667
0.00614266
0.00608786
0.0060307
0.00597298
0.00591645
0.00586269
0.00581313
0.00576899
0.00573126
0.00570073
0.00612758
0.00607334
0.00601745
0.0059617
0.0059078
0.00585732
0.0058117
0.00577216
0.00573974
0.00571529
0.0061094
0.00605657
0.00600272
0.00594958
0.00589882
0.00585199
0.00581049
0.00577559
0.00574835
0.00572969
0.00609028
0.00603948
0.00598816
0.00593799
0.00589055
0.00584737
0.00580984
0.00577918
0.00575652
0.00574281
0.00607186
0.00602348
0.00597493
0.0059278
0.0058836
0.0058438
0.00580975
0.00578267
0.00576369
0.00575378
0.00605535
0.00600955
0.00596379
0.00591954
0.00587826
0.00584134
0.00581008
0.00578569
0.00576925
0.00576176
0.00604149
0.00599829
0.00595516
0.0059135
0.00587468
0.00584002
0.00581077
0.00578808
0.00577304
0.00576659
0.00603071
0.00599002
0.00594932
0.00590989
0.00587302
0.00583995
0.00581188
0.00578993
0.00577514
0.00576845
0.00602316
0.0059849
0.00594642
0.00590888
0.00587349
0.0058414
0.00581376
0.00579165
0.00577606
0.00576795
0.00601873
0.00598288
0.00594649
0.00591064
0.0058764
0.00584486
0.00581708
0.00579408
0.00577686
0.00576631
0.00601695
0.00598363
0.0059494
0.00591522
0.00588205
0.00585088
0.00582269
0.00579845
0.00577907
0.00576545
0.00601696
0.00598645
0.00595465
0.00592238
0.0058905
0.00585988
0.0058314
0.00580596
0.00578441
0.0057676
0.00601735
0.0059901
0.0059612
0.00593134
0.00590126
0.00587171
0.00584348
0.00581735
0.00579413
0.00577459
0.00601617
0.00599273
0.00596736
0.0059406
0.00591307
0.00588541
0.00585829
0.00583239
0.00580843
0.00578711
0.00601092
0.00599191
0.00597076
0.0059479
0.00592382
0.00589903
0.00587409
0.00584958
0.00582612
0.00580434
0.00599872
0.0059847
0.00596845
0.00595028
0.00593056
0.00590969
0.00588809
0.00586624
0.00584465
0.00582386
0.0059765
0.00596792
0.00595714
0.00594436
0.00592983
0.00591384
0.00589668
0.00587873
0.00586036
0.00584202
0.00594132
0.00593846
0.00593354
0.00592666
0.00591797
0.00590764
0.00589587
0.00588288
0.00586896
0.0058544
0.00589072
0.00589365
0.00589475
0.00589406
0.00589163
0.00588752
0.00588182
0.00587463
0.00586612
0.00585645
0.00582308
0.00583164
0.0058387
0.00584423
0.0058482
0.00585056
0.00585132
0.00585047
0.00584806
0.00584413
0.00573786
0.00575171
0.00576444
0.00577595
0.00578616
0.00579496
0.00580225
0.00580795
0.00581198
0.0058143
0.00563586
0.00565448
0.00567238
0.00568943
0.00570547
0.00572034
0.0057339
0.00574599
0.00575645
0.00576515
0.00551922
0.00554202
0.00556447
0.0055864
0.00560763
0.00562798
0.00564724
0.00566522
0.0056817
0.0056965
0.00539138
0.00541773
0.00544404
0.00547012
0.00549578
0.0055208
0.00554495
0.00556802
0.00558977
0.00560999
0.00525678
0.00528612
0.00531563
0.00534513
0.00537439
0.00540318
0.00543128
0.00545845
0.00548446
0.00550909
0.00512045
0.00515232
0.00518449
0.00521674
0.00524884
0.00528055
0.00531164
0.00534187
0.00537102
0.00539889
0.00498748
0.00502157
0.005056
0.00509051
0.00512484
0.00515875
0.00519199
0.00522434
0.00525558
0.00528553
0.00486245
0.00489863
0.00493508
0.00497153
0.00500769
0.00504329
0.00507808
0.00511184
0.00514435
0.00517545
0.00474903
0.00478726
0.00482566
0.00486391
0.0049017
0.00493874
0.00497475
0.0050095
0.00504279
0.00507443
0.0046496
0.00468992
0.0047303
0.00477037
0.00480978
0.00484822
0.00488538
0.00492101
0.00495491
0.00498689
0.00456517
0.00460766
0.0046501
0.0046921
0.00473325
0.0047732
0.00481164
0.0048483
0.00488296
0.00491544
0.00449538
0.00454012
0.00458474
0.00462881
0.00467188
0.00471358
0.00475356
0.00479154
0.00482732
0.00486074
0.00443877
0.0044858
0.00453271
0.004579
0.00462419
0.00466787
0.00470969
0.00474937
0.00478672
0.00482163
0.004393
0.00444236
0.00449163
0.00454027
0.00458775
0.00463363
0.00467755
0.00471924
0.00475855
0.00479544
0.00435525
0.00440693
0.00445861
0.00450968
0.00455956
0.00460779
0.00465398
0.0046979
0.00473944
0.00477863
0.00432266
0.00437653
0.00443059
0.0044841
0.00453643
0.00458704
0.00463557
0.00468181
0.00472569
0.00476734
0.00429246
0.00434839
0.00440468
0.00446055
0.00451525
0.0045682
0.00461901
0.0046675
0.00471368
0.00475777
0.00426228
0.00432006
0.0043784
0.00443641
0.0044933
0.0045484
0.00460129
0.00465183
0.00470012
0.00474651
0.00423021
0.00428958
0.00434971
0.00440961
0.00446837
0.00452529
0.00457991
0.0046321
0.00468209
0.00473037
0.00419492
0.00425554
0.00431717
0.00437863
0.0044389
0.00449719
0.00455304
0.00460633
0.00465738
0.0047068
0.00415561
0.00421708
0.00427982
0.00434249
0.00440389
0.00446313
0.00451969
0.00457353
0.00462506
0.00467506
0.00411197
0.00417377
0.00423715
0.00430059
0.00436271
0.00442247
0.00447931
0.00453324
0.00458484
0.0046352
0.00406414
0.00412552
0.0041889
0.00425256
0.00431489
0.00437469
0.00443131
0.00448483
0.00453601
0.00458627
0.00401255
0.00407255
0.00413504
0.00419812
0.00425998
0.0043192
0.00437504
0.00442753
0.00447761
0.00452703
0.00395797
0.00401532
0.00407576
0.00413721
0.00419767
0.0042555
0.00430977
0.00436044
0.00440849
0.00445587
0.00390142
0.00395464
0.00401159
0.0040701
0.00412798
0.00418337
0.0042351
0.00428293
0.00432767
0.00437116
0.00384411
0.00389157
0.00394343
0.00399753
0.00405153
0.00410336
0.00415156
0.0041956
0.00423601
0.00427428
0.00378716
0.00382721
0.00387236
0.00392054
0.00396937
0.00401662
0.00406055
0.0041003
0.00413603
0.00416885
0.00373145
0.00376245
0.00379927
0.00384003
0.00388247
0.00392428
0.00396353
0.00399906
0.00403067
0.00405905
0.00367751
0.00369783
0.00372464
0.00375643
0.00379121
0.00382677
0.00386113
0.00389294
0.00392168
0.00394753
0.00362571
0.0036336
0.00364855
0.00366961
0.00369522
0.00372349
0.00375259
0.00378111
0.00380836
0.00383379
0.00357647
0.00356995
0.00357095
0.00357915
0.00359365
0.00361309
0.00363597
0.00366103
0.00368753
0.00371422
0.00353024
0.00350709
0.00349175
0.00348466
0.0034857
0.00349419
0.00350913
0.00352957
0.00355479
0.00358328
0.00348707
0.00344497
0.00341087
0.00338601
0.00337109
0.0033662
0.00337099
0.00338492
0.00340745
0.00343727
0.00344596
0.00338289
0.003328
0.00328326
0.00325014
0.00322954
0.00322183
0.00322706
0.00324509
0.00327498
0.00340479
0.00331957
0.00324271
0.00317675
0.00312382
0.00308551
0.00306296
0.00305698
0.00306814
0.00309606
0.00336151
0.00325409
0.00315516
0.00306759
0.00299392
0.00293633
0.00289663
0.00287651
0.00287753
0.00290018
0.00331571
0.00318705
0.00306685
0.00295805
0.0028634
0.00278538
0.00272645
0.00268931
0.0026769
0.00269109
0.00326933
0.00312097
0.00298076
0.00285156
0.00273599
0.00263665
0.00255643
0.00249907
0.00246945
0.0024721
0.00322591
0.00305928
0.00290029
0.00275148
0.00261519
0.00249376
0.00239016
0.00230909
0.00225763
0.00224356
0.00318847
0.00300437
0.0028273
0.00265942
0.0025026
0.00235858
0.00222995
0.00212193
0.00204397
0.0020078
0.0031575
0.00295589
0.0027608
0.00257401
0.00239687
0.00223032
0.00207602
0.00193919
0.00183185
0.00177106
0.00313019
0.00291028
0.00269659
0.00249068
0.00229346
0.00210498
0.00192557
0.0017599
0.00162287
0.0015384
0.00310053
0.0028611
0.00262799
0.00240261
0.00218563
0.00197633
0.00177345
0.00158084
0.00141704
0.00131476
0.00305982
0.00280016
0.00254711
0.00230218
0.00206606
0.00183747
0.00161364
0.00139767
0.0012136
0.00110456
0.00299946
0.00271944
0.00244649
0.00218233
0.00192803
0.00168214
0.00144052
0.00120634
0.00101294
0.000913495
0.00291188
0.00261197
0.00231972
0.00203723
0.00176626
0.00150575
0.0012505
0.00100589
0.000821001
0.000751264
0.00278972
0.00247164
0.00216178
0.0018627
0.0015773
0.00130589
0.00104319
0.000801813
0.000652835
0.000629635
0.0026278
0.00229452
0.00196982
0.00165678
0.00135997
0.00108265
0.000822153
0.000608597
0.000527386
0.000555011
0.00242411
0.00207941
0.00174367
0.00142039
0.00111612
0.000839555
0.000597081
0.000448222
0.000450084
0.000519579
0.00217885
0.00182719
0.00148565
0.00115778
0.000851991
0.000585874
0.000388246
0.000337208
0.000405557
0.00050277
0.00189157
0.00153998
0.00120071
0.000877514
0.000580907
0.00034262
0.000228395
0.000271078
0.000373912
0.000489051
0.00156609
0.00122496
0.000899844
0.000595827
0.000328379
0.000151493
0.000139807
0.000229701
0.00034232
0.000466981
0.00121413
0.000898945
0.00060458
0.000340918
0.000136371
5.50585e-05
0.000100437
0.000198658
0.000309944
0.000432924
0.000863947
0.000596892
0.000353189
0.000154194
4.32627e-05
3.01561e-05
7.66269e-05
0.000174618
0.00028763
0.000402348
0.000574582
0.000373559
0.000187667
6.19439e-05
2.33968e-05
2.4039e-05
5.52131e-05
0.000150325
0.000279564
0.000399849
0.000443726
0.00026498
0.000104298
3.12474e-05
2.0725e-05
2.11715e-05
3.48178e-05
0.000112542
0.000272656
0.00044991
0.000521316
0.00018723
4.78218e-05
1.98391e-05
2.00248e-05
2.01188e-05
2.07063e-05
5.32315e-05
0.000200169
0.000539893
9.74405e-05
9.67205e-05
9.59057e-05
9.49923e-05
9.39771e-05
9.28577e-05
9.16324e-05
9.0301e-05
8.88635e-05
8.73214e-05
8.56901e-05
8.4086e-05
8.24793e-05
8.08407e-05
7.91624e-05
7.74461e-05
7.56975e-05
7.39237e-05
7.21315e-05
7.03269e-05
6.85147e-05
6.66982e-05
6.48793e-05
6.30581e-05
6.12329e-05
5.94007e-05
5.75563e-05
5.56933e-05
5.38029e-05
5.18741e-05
4.98926e-05
4.78389e-05
4.56841e-05
4.33822e-05
4.08477e-05
3.7851e-05
3.44054e-05
3.04254e-05
2.60569e-05
1.00567e-05
0.000934465
0.000923742
0.000912042
0.000899375
0.000885756
0.000871216
0.000855801
0.000839572
0.000822573
0.000804764
0.000785811
0.00076457
0.000742238
0.000719565
0.000697057
0.000675052
0.000653762
0.000633304
0.000613725
0.000595018
0.000577136
0.00056
0.00054351
0.000527546
0.000511978
0.000496667
0.000481468
0.000466232
0.000450797
0.000434985
0.000418582
0.000401292
0.000382669
0.000361975
0.000337876
0.000307892
0.000269363
0.000216718
0.000131661
1.64769e-05
0.00184408
0.00182195
0.00179779
0.00177163
0.00174347
0.00171338
0.00168144
0.00164776
0.00161245
0.00157557
0.00153707
0.00149672
0.00145502
0.00141266
0.00137025
0.00132831
0.00128721
0.00124721
0.00120846
0.00117104
0.00113493
0.00110004
0.00106624
0.00103332
0.00100107
0.00096919
0.000937384
0.000905292
0.000872499
0.000838508
0.000802686
0.000764183
0.000721796
0.000673742
0.000617309
0.000548378
0.000460846
0.000345395
0.00018855
2.04249e-05
0.0026006
0.00256972
0.00253609
0.00249972
0.00246064
0.00241891
0.00237464
0.00232798
0.00227912
0.00222825
0.00217554
0.00212114
0.00206539
0.0020089
0.00195222
0.00189585
0.00184018
0.00178551
0.00173205
0.00167988
0.00162903
0.0015794
0.00153083
0.00148308
0.00143584
0.00138872
0.00134126
0.00129293
0.00124304
0.0011908
0.00113514
0.00107469
0.00100759
0.000931231
0.000841938
0.00073454
0.000601884
0.0004347
0.000225282
2.32626e-05
0.00321125
0.00317407
0.00313371
0.0030902
0.00304358
0.00299392
0.00294132
0.00288598
0.00282811
0.00276801
0.002706
0.00264214
0.00257695
0.00251096
0.00244466
0.00237848
0.00231277
0.00224782
0.00218379
0.00212077
0.00205875
0.00199762
0.00193718
0.00187715
0.00181714
0.00175667
0.00169515
0.00163187
0.00156594
0.00149628
0.00142149
0.00133977
0.00124878
0.00114536
0.00102531
0.000883076
0.000711521
0.000502508
0.000252598
2.53844e-05
0.00370072
0.00365903
0.003614
0.00356566
0.00351407
0.00345929
0.00340144
0.00334069
0.00327727
0.00321152
0.00314378
0.00307417
0.0030032
0.00293135
0.00285906
0.00278667
0.00271449
0.00264271
0.00257145
0.00250075
0.00243056
0.00236072
0.00229099
0.002221
0.00215032
0.00207836
0.00200444
0.00192768
0.00184703
0.00176116
0.00166844
0.00156677
0.00145346
0.00132507
0.00117717
0.0010042
0.000799438
0.000556078
0.000274097
2.70495e-05
0.00409256
0.00404758
0.00399929
0.00394775
0.00389303
0.00383517
0.00377426
0.00371046
0.00364398
0.00357512
0.00350426
0.00343156
0.00335751
0.00328253
0.00320697
0.00313109
0.0030551
0.00297912
0.00290319
0.00282728
0.00275128
0.00267497
0.00259803
0.00252007
0.00244054
0.0023588
0.00227405
0.00218529
0.00209132
0.00199066
0.00188148
0.00176147
0.00162778
0.00147682
0.00130413
0.00110433
0.000871286
0.00059944
0.000291516
2.8421e-05
0.00440679
0.00435932
0.00430873
0.00425512
0.00419854
0.00413904
0.00407664
0.00401143
0.00394358
0.00387339
0.00380117
0.00372722
0.003652
0.00357583
0.00349895
0.00342153
0.00334368
0.0032654
0.00318668
0.00310741
0.00302738
0.00294633
0.00286387
0.00277954
0.00269272
0.00260268
0.00250854
0.0024092
0.00230334
0.00218936
0.00206529
0.00192872
0.0017767
0.00160561
0.0014111
0.00118804
0.000930921
0.000635306
0.000306065
2.95907e-05
0.00465981
0.00461037
0.00455817
0.00450332
0.00444586
0.00438578
0.00432303
0.00425757
0.00418945
0.00411897
0.00404642
0.00397242
0.0038973
0.00382125
0.00374439
0.00366677
0.00358837
0.00350913
0.00342894
0.00334761
0.00326488
0.00318041
0.00309374
0.00300434
0.00291153
0.00281449
0.00271226
0.00260367
0.0024873
0.00236146
0.0022241
0.00207274
0.00190442
0.00171556
0.00150195
0.00125882
0.00098121
0.000665645
0.000318616
3.0614e-05
0.00486464
0.00481364
0.0047604
0.00470501
0.00464751
0.00458781
0.00452576
0.00446114
0.00439357
0.00432269
0.00425028
0.00417692
0.00410267
0.00402753
0.00395148
0.00387444
0.00379633
0.00371698
0.00363621
0.00355376
0.00346929
0.00338239
0.00329255
0.00319914
0.00310142
0.00299852
0.00288939
0.00277278
0.0026472
0.0025109
0.00236177
0.00219734
0.00201462
0.00181015
0.00157992
0.00131946
0.00102437
0.000691921
0.000329787
3.15323e-05
0.00503129
0.00497912
0.00492535
0.00487012
0.00481343
0.0047552
0.00469525
0.00463192
0.00456323
0.00449263
0.00442101
0.00434878
0.00427579
0.00420193
0.00412707
0.00405105
0.00397369
0.00389477
0.00381401
0.00373108
0.00364558
0.00355702
0.00346482
0.00336829
0.00326662
0.00315885
0.00304388
0.00292037
0.00278679
0.00264134
0.00248188
0.00230593
0.00211056
0.00189242
0.00164768
0.00137222
0.00106208
0.000715192
0.000339999
3.23775e-05
0.00516725
0.00511431
0.00506057
0.00500618
0.00495117
0.00489545
0.0048376
0.00477296
0.00470431
0.00463487
0.00456481
0.00449411
0.00442264
0.00435026
0.00427678
0.00420201
0.00412568
0.00404752
0.00396717
0.00388424
0.00379825
0.00370864
0.00361476
0.00351584
0.003411
0.00329924
0.00317937
0.00305
0.00290955
0.00275616
0.00258768
0.00240163
0.00219515
0.00196497
0.00170749
0.00141887
0.00109556
0.000736005
0.000349285
3.3184e-05
0.00527806
0.0052248
0.00517167
0.00511885
0.00506638
0.00501398
0.00495585
0.00488985
0.00482279
0.00475512
0.00468683
0.00461785
0.00454805
0.00447727
0.00440531
0.00433193
0.00425683
0.00417967
0.00410004
0.00401748
0.00393142
0.00384125
0.00374625
0.00364558
0.0035383
0.00342332
0.0032994
0.00316509
0.00301876
0.00285849
0.00268213
0.0024872
0.00227088
0.00203003
0.00176119
0.00146077
0.00112556
0.000754443
0.000357249
3.40061e-05
0.00536775
0.00531472
0.00526291
0.00521254
0.00516365
0.00511389
0.00505352
0.00498865
0.00492337
0.00485757
0.00479115
0.00472399
0.00465597
0.00458691
0.0045166
0.00444475
0.00437104
0.00429508
0.00421641
0.0041345
0.00404874
0.00395844
0.00386281
0.00376096
0.00365186
0.00353437
0.00340717
0.00326875
0.00311743
0.00295125
0.00276804
0.00256531
0.0023403
0.00208994
0.00181093
0.00149987
0.00115385
0.000772141
0.000365167
3.48209e-05
0.00543932
0.00538709
0.00533726
0.00529008
0.00524549
0.00519581
0.00513486
0.0050723
0.00500916
0.00494543
0.00488102
0.00481584
0.00474974
0.00468253
0.00461399
0.00454381
0.00447164
0.00439707
0.00431957
0.00423858
0.00415342
0.00406336
0.00396753
0.00386499
0.00375464
0.00363525
0.00350545
0.00336367
0.00320816
0.00303694
0.00284778
0.00263821
0.0024055
0.00214663
0.00185841
0.00153765
0.00118163
0.000789935
0.000373403
3.56392e-05
0.00549517
0.00544422
0.00539684
0.00535325
0.00531288
0.00526294
0.0052036
0.00514353
0.00508282
0.00502142
0.00495927
0.00489625
0.00483223
0.00476703
0.00470039
0.00463202
0.00456154
0.0044885
0.00441236
0.0043325
0.00424822
0.00415871
0.00406305
0.00396024
0.00384911
0.00372838
0.00359658
0.0034521
0.00329311
0.0031176
0.00292329
0.00270771
0.00246812
0.00220156
0.00190492
0.00157513
0.00120964
0.000808246
0.000382075
3.64696e-05
0.00553773
0.00548856
0.00544399
0.00540424
0.00536622
0.00531697
0.00526149
0.0052047
0.00514693
0.00508823
0.00502858
0.00496793
0.00490614
0.00484306
0.00477844
0.00471197
0.00464328
0.00457188
0.00449723
0.00441867
0.00433546
0.00424675
0.00415157
0.00404884
0.00393735
0.00381572
0.00368245
0.00353583
0.00337398
0.00319483
0.00299606
0.00277516
0.00252937
0.00225578
0.0019513
0.00161294
0.00123829
0.000827256
0.000391213
3.73165e-05
0.00556988
0.00552312
0.00548181
0.00544605
0.00541132
0.00536482
0.00531294
0.00525955
0.00520489
0.00514904
0.005092
0.00503375
0.00497422
0.00491325
0.00485063
0.00478605
0.00471914
0.00464941
0.00457629
0.00449912
0.00441711
0.00432936
0.00423488
0.0041325
0.00402097
0.00389883
0.0037645
0.00361622
0.00345204
0.00326979
0.00306713
0.00284148
0.00259007
0.00230995
0.00199806
0.00165144
0.00126773
0.00084695
0.000400685
3.81767e-05
0.00559483
0.00555147
0.00551429
0.00548326
0.00545372
0.00541185
0.00536323
0.00531291
0.00526104
0.00520773
0.00515301
0.0050969
0.00503935
0.00498024
0.00491938
0.00485649
0.00479119
0.00472301
0.00465135
0.00457554
0.00449475
0.00440805
0.00431438
0.00421255
0.0041012
0.00397884
0.00384381
0.00369425
0.00352815
0.00334328
0.0031372
0.00290728
0.00265069
0.00236444
0.00204546
0.00169078
0.00129805
0.000867363
0.000410534
3.90505e-05
0.00561577
0.00557716
0.00554543
0.00552036
0.00549863
0.00546422
0.00541812
0.00536996
0.00532004
0.00526845
0.00521528
0.0051606
0.00510438
0.00504657
0.00498697
0.00492534
0.00486129
0.00479436
0.00472394
0.00464932
0.00456966
0.00448398
0.00439117
0.00428996
0.00417895
0.00405658
0.00392108
0.00377055
0.00360287
0.00341573
0.00320662
0.00297282
0.00271142
0.00241938
0.00209356
0.00173095
0.00132922
0.000888477
0.000420779
3.99373e-05
0.00563553
0.00560337
0.00557911
0.00556256
0.00555189
0.0055255
0.0054822
0.00543515
0.00538596
0.00533489
0.00528212
0.00522778
0.00517192
0.00511451
0.00505541
0.00499436
0.004931
0.00486485
0.0047953
0.00472159
0.00464284
0.00455804
0.00446601
0.00436543
0.00425482
0.00413253
0.00399675
0.00384546
0.00367646
0.00348734
0.00327551
0.00303814
0.00277224
0.00247466
0.0021422
0.00177178
0.00136103
0.000910076
0.000431215
4.08281e-05
0.00565589
0.00563173
0.00561675
0.00561085
0.00561322
0.00559769
0.00555808
0.00551162
0.00546198
0.00541004
0.00535625
0.00530091
0.00524415
0.00518601
0.00512638
0.00506504
0.00500162
0.00493562
0.0048664
0.00479318
0.00471502
0.00463086
0.00453944
0.0044394
0.00432915
0.00420699
0.00407101
0.00391909
0.00374895
0.00355808
0.00334376
0.00310308
0.00283293
0.00253005
0.00219113
0.00181301
0.00139326
0.000932012
0.000441828
4.17188e-05
0.00567722
0.0056619
0.00565723
0.00566345
0.00568087
0.00568184
0.00565024
0.005604
0.00555191
0.00549707
0.00544035
0.00538223
0.00532297
0.00526267
0.00520126
0.00513854
0.00507413
0.0050075
0.00493797
0.0048647
0.00478671
0.00470285
0.0046118
0.0045121
0.00440212
0.00428004
0.00414386
0.00399138
0.00382022
0.00362775
0.00341114
0.00316736
0.00289318
0.00258519
0.00223999
0.00185429
0.00142558
0.000954006
0.000452403
4.25988e-05
0.00569927
0.00569299
0.00569874
0.00571673
0.00574684
0.00577993
0.0057627
0.00572186
0.00566162
0.00559991
0.00553721
0.00547382
0.00540995
0.00534571
0.00528101
0.00521564
0.00514917
0.00508102
0.00501044
0.00493652
0.00485819
0.00477422
0.00468321
0.00458362
0.00447372
0.0043516
0.00421517
0.00406214
0.00389001
0.00369604
0.0034773
0.0032306
0.00295257
0.00263969
0.00228838
0.00189525
0.0014577
0.000975881
0.00046293
4.34642e-05
0.0057207
0.00572291
0.00573859
0.00576838
0.0058127
0.00587107
0.00588654
0.00585098
0.00579134
0.00571965
0.00564784
0.0055764
0.00550557
0.00543543
0.00536583
0.00529648
0.00522685
0.00515628
0.0050839
0.0050087
0.0049295
0.00484498
0.00475366
0.00465387
0.00454381
0.00442148
0.0042847
0.00413107
0.00395798
0.00376258
0.00354181
0.00329235
0.00301067
0.00269309
0.00233588
0.00193551
0.00148927
0.000997314
0.000473137
4.43036e-05
0.00573961
0.00574862
0.00577212
0.00581123
0.0058675
0.00594371
0.0060016
0.00597774
0.0059326
0.00585337
0.00577008
0.0056882
0.00560835
0.00553061
0.00545473
0.00538028
0.00530658
0.00523282
0.005158
0.00508096
0.00500042
0.00491494
0.00482291
0.00472261
0.00461213
0.00448939
0.0043521
0.00419778
0.0040237
0.00382692
0.00360422
0.00335214
0.003067
0.00274495
0.00238209
0.00197473
0.00152002
0.00101813
0.000482945
4.51344e-05
0.00575486
0.0057687
0.00579749
0.00584239
0.00590457
0.00598485
0.00607969
0.00610779
0.00606464
0.00599772
0.00590035
0.00580561
0.0057151
0.00562859
0.00554558
0.00546536
0.00538706
0.00530966
0.00523198
0.00515272
0.00507046
0.00498364
0.00489059
0.00478947
0.0046783
0.00455491
0.00441694
0.00426182
0.00408672
0.00388857
0.00366402
0.00340948
0.00312109
0.00279484
0.00242664
0.00201262
0.00154982
0.00103835
0.000492474
4.59406e-05
0.00576522
0.0057814
0.00581227
0.00585896
0.00592275
0.00600548
0.00611029
0.00618475
0.00616343
0.00611617
0.00603311
0.00592422
0.0058219
0.00572603
0.00563561
0.00554953
0.00546657
0.00538544
0.00530477
0.0052231
0.00513889
0.00505049
0.00495612
0.0048539
0.00474178
0.00461753
0.00447872
0.00432268
0.00414651
0.00394701
0.00372071
0.00346387
0.00317246
0.0028423
0.0024691
0.00204884
0.00157841
0.00105788
0.000501765
4.67042e-05
0.00577076
0.00578721
0.00581776
0.00586333
0.00592485
0.00600317
0.00609876
0.00620211
0.006235
0.00618876
0.00613178
0.00603741
0.00592414
0.00581932
0.00572198
0.00563048
0.00554322
0.00545863
0.00537512
0.00529106
0.00520482
0.00511466
0.00501877
0.00491523
0.00480193
0.00467663
0.00453682
0.00437978
0.0042025
0.00400169
0.00377376
0.00351479
0.00322061
0.00288683
0.002509
0.0020829
0.00160531
0.00107629
0.00051062
4.74162e-05
0.00577177
0.00578665
0.00581482
0.00585704
0.00591393
0.00598596
0.00607354
0.00617714
0.00624803
0.00622781
0.00617434
0.00611245
0.00601585
0.00590464
0.00580185
0.00570607
0.00561538
0.00552793
0.00544194
0.00535567
0.00526741
0.0051754
0.00507783
0.00497276
0.00485811
0.00473158
0.00459066
0.00443254
0.00425415
0.00405208
0.00382262
0.0035617
0.00326499
0.0029279
0.00254578
0.00211423
0.00162987
0.00109273
0.000518092
4.8072e-05
0.005769
0.00578071
0.00580483
0.00584207
0.0058929
0.00595755
0.00603586
0.00612699
0.00621464
0.00623705
0.00619314
0.0061332
0.0060666
0.00597607
0.00587243
0.00577411
0.00568131
0.00559196
0.00550411
0.00541595
0.00532579
0.00523191
0.00513256
0.00502584
0.0049097
0.00478185
0.00463974
0.00448052
0.00430105
0.00409782
0.00386698
0.00360433
0.00330536
0.00296531
0.00257932
0.0021428
0.00165225
0.0011077
0.000524921
4.86691e-05
0.00576389
0.00577097
0.0057895
0.00582018
0.00586355
0.00591986
0.00598904
0.00607052
0.00616278
0.0062154
0.0061872
0.00613433
0.00607396
0.00600663
0.00592578
0.00583255
0.00573935
0.00564939
0.0055605
0.0054709
0.00537902
0.00528331
0.00518215
0.00507373
0.00495605
0.00482684
0.00468354
0.00452327
0.0043428
0.00413854
0.00390652
0.00364239
0.00334148
0.00299885
0.00260946
0.00216854
0.00167244
0.00112123
0.000531096
4.92076e-05
0.00575872
0.00576012
0.00577183
0.00579462
0.00582915
0.00587589
0.00593516
0.00600716
0.00609202
0.00616809
0.00617081
0.00612623
0.0060713
0.0060109
0.00594512
0.00587138
0.00578724
0.005699
0.00561019
0.00551966
0.00542628
0.00532882
0.00522585
0.00511573
0.00499652
0.00486599
0.00472157
0.00456034
0.00437901
0.00417389
0.0039409
0.00367557
0.00337306
0.00302826
0.00263596
0.00219123
0.00169028
0.00113318
0.00053653
4.96892e-05
0.00575632
0.00575166
0.005756
0.00577021
0.00579505
0.0058312
0.00587927
0.00593984
0.0060136
0.00610145
0.00614666
0.00611189
0.00606139
0.00600626
0.00594752
0.00588484
0.00581665
0.00573966
0.00565339
0.0055621
0.00546726
0.00536799
0.00526318
0.00515134
0.00503063
0.00489885
0.00475341
0.00459134
0.0044093
0.00420351
0.00396978
0.00370352
0.00339975
0.00305322
0.00265852
0.00221057
0.00170546
0.00114325
0.000540971
5.01263e-05
0.00575919
0.00574883
0.00574608
0.00575186
0.005767
0.0057923
0.00582851
0.00587641
0.0059368
0.00601049
0.00608599
0.00609402
0.00604732
0.00599538
0.00594151
0.00588529
0.00582591
0.0057615
0.00568782
0.00559966
0.00550269
0.00540109
0.00529408
0.00518034
0.00505808
0.00492507
0.00477868
0.0046159
0.00443329
0.004227
0.00399275
0.00372585
0.00342118
0.00307334
0.00267679
0.00222627
0.00171777
0.00115133
0.000544417
5.05071e-05
0.00576861
0.00575363
0.00574482
0.0057431
0.00574936
0.00576443
0.0057891
0.00582416
0.00587045
0.00592899
0.0060013
0.0060543
0.0060297
0.00597984
0.00592914
0.00587714
0.00582279
0.00576474
0.00570097
0.00562746
0.00553412
0.00542871
0.00531866
0.0052026
0.0050786
0.00494432
0.00479702
0.0046336
0.00445054
0.00424391
0.00400935
0.00374207
0.00343686
0.00308818
0.00269035
0.00223799
0.00172696
0.00115731
0.000546879
5.08204e-05
0.00578416
0.00576609
0.00575277
0.00574511
0.00574397
0.00575018
0.00576452
0.00578773
0.00582045
0.00586319
0.00591616
0.00597789
0.00600163
0.00596356
0.00591418
0.00586405
0.00581217
0.00575713
0.0056973
0.00563068
0.00555267
0.00545077
0.00533654
0.00521763
0.00509169
0.00495608
0.00480789
0.0046439
0.00446049
0.00425367
0.004019
0.00375162
0.00344623
0.0030972
0.00269874
0.00224533
0.00173273
0.00116096
0.00054822
5.10825e-05
0.00580362
0.00578426
0.00576826
0.00575647
0.00574971
0.00574879
0.00575446
0.00576736
0.00578806
0.00581701
0.00585458
0.00590123
0.005942
0.00593876
0.00589769
0.00584792
0.00579651
0.0057421
0.00568309
0.00561781
0.00554428
0.005457
0.00534587