/*--------------------------------*- C++ -*----------------------------------*\
  =========                 |
  \\      /  F ield         | OpenFOAM: The Open Source CFD Toolbox
   \\    /   O peration     | Website:  https://openfoam.org
    \\  /    A nd           | Version:  8
     \\/     M anipulation  |
\*---------------------------------------------------------------------------*/
FoamFile
{
    version     2.0;
    format      ascii;
    class       volScalarField;
    location    "1.75";
    object      p;
}
// * * * * * * * * * * * * * * * * * * * * * * * * * * * * * * * * * * * * * //

dimensions      [1 -1 -2 0 0 0 0];

internalField   nonuniform List<scalar> 
9150
(
391.603
364.666
339.088
321.883
313.564
313.563
321.881
339.086
364.664
391.601
362.72
343.242
327.527
315.726
309.729
309.729
315.725
327.525
343.24
362.719
333.448
319.959
311.347
303.609
299.484
299.484
303.608
311.347
319.958
333.446
308.712
298.803
293.257
287.919
284.939
284.939
287.919
293.256
298.803
308.711
287.39
278.642
273.956
269.8
267.356
267.355
269.799
273.956
278.642
287.39
24.7756
20.4142
45.6504
60.0802
66.665
66.651
60.0411
45.5932
20.3282
24.6472
194.892
170.658
165.276
164.106
164.179
164.172
164.087
165.246
170.617
194.852
299.599
268.027
252.008
242.155
237.458
237.454
242.146
251.993
268.009
299.585
380.196
337.807
309.847
292.535
284.022
284.02
292.53
309.84
337.8
380.191
429.909
377.793
339.167
317.147
307.003
307.002
317.144
339.163
377.79
429.908
-59.6644
-22.4231
-33.4127
-25.5645
-29.5382
-29.7943
-25.5294
-33.7853
-23.1028
-60.5745
-51.957
-33.9918
-53.4263
-46.6335
-49.5507
-49.6991
-46.4676
-53.9551
-34.421
-52.6697
-97.0059
-64.4055
-94.3701
-88.5749
-84.876
-84.8983
-88.6217
-94.7232
-64.7883
-97.5135
-275.826
-150.583
-130.593
-112.872
-96.9986
-97.0188
-113.001
-130.86
-150.752
-276.378
-414.797
-181.144
-83.4968
-53.3275
-38.0014
-38.024
-53.4081
-83.6148
-181.277
-415.221
1976.1
1975.05
1973.01
1970
1966.05
1961.21
1955.53
1949.06
1941.86
1934
1922.23
1921.21
1919.37
1916.72
1913.28
1909.1
1904.21
1898.69
1892.59
1886.01
1865.72
1864.86
1863.42
1861.35
1858.69
1855.46
1851.69
1847.46
1842.8
1837.82
1823.48
1822.67
1821.37
1819.59
1817.36
1814.69
1811.63
1808.21
1804.49
1800.52
1790.11
1789.21
1787.95
1786.34
1784.39
1782.12
1779.56
1776.74
1773.69
1770.47
1762.83
1761.82
1760.57
1759.08
1757.35
1755.4
1753.24
1750.9
1748.39
1745.75
1739.9
1738.81
1737.57
1736.19
1734.66
1733.01
1731.23
1729.34
1727.35
1725.28
1719.88
1718.73
1717.54
1716.31
1715.03
1713.7
1712.34
1710.95
1709.54
1708.12
1701.58
1700.46
1699.39
1698.36
1697.38
1696.44
1695.56
1694.75
1694.03
1693.43
1684.13
1683.12
1682.23
1681.47
1680.83
1680.31
1679.92
1679.68
1679.64
1679.8
1666.86
1666.06
1665.43
1664.98
1664.69
1664.58
1664.64
1664.91
1665.39
1666.09
1649.37
1648.85
1648.55
1648.44
1648.52
1648.79
1649.26
1649.93
1650.81
1651.86
1631.42
1631.28
1631.34
1631.61
1632.06
1632.7
1633.54
1634.58
1635.78
1637.18
1612.98
1613.22
1613.68
1614.33
1615.15
1616.14
1617.29
1618.59
1619.99
1621.63
1594.01
1594.67
1595.55
1596.59
1597.8
1599.16
1600.65
1602.22
1603.85
1605.77
1574.5
1575.61
1576.92
1578.39
1580.03
1581.82
1583.72
1585.68
1587.67
1589.96
1554.48
1556.02
1557.79
1559.75
1561.93
1564.32
1566.94
1569.79
1572.91
1576.53
1533.88
1535.78
1537.94
1540.33
1542.99
1545.95
1549.28
1553.04
1557.34
1562.33
1512.57
1514.7
1517.09
1519.74
1522.67
1525.96
1529.66
1533.88
1538.74
1544.33
1490.48
1492.69
1495.14
1497.83
1500.79
1504.09
1507.78
1511.95
1516.74
1522.23
1467.63
1469.77
1472.11
1474.64
1477.41
1480.47
1483.88
1487.72
1492.13
1497.3
1444.08
1446.03
1448.09
1450.28
1452.64
1455.21
1458.06
1461.25
1464.9
1469.23
1420.08
1421.71
1423.35
1425.03
1426.79
1428.66
1430.69
1432.93
1435.44
1438.38
1395.94
1397.12
1398.21
1399.24
1400.25
1401.25
1402.26
1403.32
1404.4
1405.61
1372.01
1372.64
1373.09
1373.42
1373.65
1373.78
1373.86
1373.89
1373.86
1373.86
1348.56
1348.52
1348.26
1347.83
1347.22
1346.44
1345.5
1344.38
1343.05
1341.53
1325.73
1324.97
1323.98
1322.79
1321.39
1319.76
1317.9
1315.77
1313.34
1310.6
1303.48
1302.04
1300.37
1298.51
1296.42
1294.1
1291.51
1288.65
1285.46
1282
1281.72
1279.7
1277.45
1275
1272.33
1269.41
1266.21
1262.69
1258.82
1254.64
1260.52
1258.02
1255.29
1252.38
1249.26
1245.9
1242.27
1238.33
1234.06
1229.54
1239.92
1237.02
1233.91
1230.63
1227.15
1223.45
1219.49
1215.24
1210.66
1205.84
1219.92
1216.71
1213.29
1209.73
1206
1202.06
1197.89
1193.46
1188.74
1183.83
1200.53
1197.07
1193.43
1189.65
1185.73
1181.63
1177.32
1172.78
1167.98
1163.02
1181.64
1178.02
1174.23
1170.31
1166.26
1162.05
1157.66
1153.06
1148.22
1143.25
1163.24
1159.53
1155.65
1151.66
1147.53
1143.26
1138.83
1134.21
1129.38
1124.43
1145.32
1141.59
1137.68
1133.65
1129.49
1125.19
1120.74
1116.12
1111.31
1106.39
1127.92
1124.2
1120.3
1116.26
1112.1
1107.8
1103.35
1098.75
1093.97
1089.1
1110.97
1107.32
1103.47
1099.47
1095.33
1091.04
1086.62
1082.05
1077.31
1072.49
1094.51
1090.96
1087.19
1083.26
1079.16
1074.92
1070.53
1065.99
1061.3
1056.53
1078.56
1075.13
1071.47
1067.62
1063.6
1059.42
1055.08
1050.58
1045.93
1041.2
1063.11
1059.83
1056.3
1052.56
1048.64
1044.53
1040.25
1035.81
1031.2
1026.51
1048.21
1045.08
1041.69
1038.08
1034.27
1030.26
1026.06
1021.68
1017.12
1012.46
1033.84
1030.88
1027.63
1024.16
1020.48
1016.58
1012.48
1008.18
1003.68
999.055
1020.01
1017.21
1014.11
1010.78
1007.23
1003.45
999.466
995.265
990.852
986.281
1006.71
1004.05
1001.09
997.889
994.464
990.819
986.958
982.879
978.582
974.11
993.892
991.337
988.483
985.398
982.093
978.574
974.849
970.918
966.776
962.465
981.49
978.988
976.199
973.191
969.979
966.573
962.984
959.215
955.265
951.178
969.395
966.875
964.087
961.105
957.946
954.622
951.152
947.542
943.8
939.982
957.461
954.836
951.973
948.95
945.783
942.49
939.09
935.602
932.042
928.487
945.498
942.668
939.645
936.502
933.253
929.912
926.502
923.042
919.556
916.135
933.264
930.139
926.877
923.539
920.13
916.654
913.123
909.549
905.946
902.394
920.46
916.99
913.447
909.874
906.259
902.59
898.862
895.068
891.198
887.298
906.707
902.92
899.127
895.347
891.552
887.715
883.82
879.846
875.771
871.604
891.59
887.615
883.675
879.775
875.874
871.938
867.939
863.848
859.619
855.201
874.833
870.86
866.93
863.041
859.152
855.228
851.237
847.128
842.813
838.292
856.348
852.581
848.833
845.107
841.375
837.613
833.787
829.82
825.711
822.09
836.25
832.846
829.413
825.966
822.493
818.977
815.364
811.587
808.039
806.378
814.731
811.795
808.767
805.672
802.505
799.244
795.81
792.226
789.341
788.968
792.113
789.688
787.111
784.42
781.616
778.67
775.524
772.368
770.386
770.354
768.727
766.788
764.65
762.357
759.911
757.281
754.439
751.714
750.38
750.002
744.904
743.385
741.634
739.697
737.567
735.21
732.623
730.226
729.135
727.487
720.892
719.732
718.318
716.694
714.849
712.748
710.445
708.452
707.411
703.137
696.894
696.025
694.898
693.561
692.014
690.249
688.431
687.239
686.746
679.646
672.94
672.257
671.322
670.19
668.872
667.391
666.02
665.554
665.357
655.573
649.101
648.417
647.511
646.441
645.218
643.889
642.795
642.707
642.626
633.004
625.032
624.275
623.299
622.158
620.88
619.557
618.612
618.869
619.465
612.574
600.679
599.776
598.544
597.005
595.151
593.049
591.101
590.078
588.875
579.354
576.631
575.5
573.82
571.539
568.55
564.749
560.298
555.601
548.953
531.545
553.69
552.414
550.398
547.534
543.61
538.353
531.829
524.218
512.398
482.968
532.583
531.304
529.215
526.169
521.904
516.259
509.075
498.846
474.959
421.078
513.622
512.575
510.852
508.352
505.144
501.78
497.063
480.975
440.305
383.513
496.181
495.298
493.936
492.139
490.488
490.022
486.287
460.43
412.821
377.934
479.692
478.464
476.995
475.454
474.723
475.715
471.283
440.738
398.672
376.883
463.608
461.201
458.912
456.89
455.941
456.632
451.425
421.658
386.47
370.148
446.933
442.471
438.719
435.564
433.389
432.487
427.344
402.44
373.453
360.538
425.272
419.608
415.038
411.212
408.09
405.851
401.606
384.153
359.259
344.561
394.419
390.329
386.899
383.871
381.113
378.857
375.77
363.474
339.42
320.815
357.383
356.613
355.658
354.362
352.655
350.745
347.607
335.545
309.099
291.038
319.206
322.058
324.273
325.416
325.411
324.367
321.225
308.454
278.953
253.879
281.372
288.443
295.077
300.301
304.128
306.95
308.668
303.977
283.184
252.393
245.592
256.598
267.595
277.103
285.006
291.839
298.098
300.848
290.881
271.313
214.599
228.199
242.06
254.707
265.546
274.809
282.714
287.336
283.033
277.778
188.444
204.235
219.414
234.172
247.479
259.275
269.811
278.365
281.247
281.726
165.134
182.728
197.962
213.329
227.611
240.422
251.985
262.201
267.656
265.956
147.978
165.144
178.302
192.236
205.631
217.649
228.226
237.275
241.768
236.875
127.226
147.473
158.544
170.062
181.608
191.945
200.652
207.582
210.521
204.767
100.098
123.954
135.23
145.269
154.961
163.139
169.148
172.65
171.903
163.947
76.6427
102.659
113.003
121.059
128.599
134.356
137.386
137.025
131.308
118.64
56.4321
84.6751
93.2732
98.9106
104.37
108.111
108.902
106.073
97.9777
82.7285
35.5275
65.3541
74.095
78.2864
82.3034
84.6494
83.7994
79.0963
69.7425
54.6027
18.6393
44.9163
54.5545
59.2324
63.2682
65.5333
64.4921
59.7752
52.2882
43.1294
6.73057
26.3883
36.5046
42.5574
47.5453
50.7516
51.1125
49.4522
48.9234
49.5172
-0.198388
11.7832
21.1231
28.1253
33.7707
37.583
39.2701
40.3158
43.943
46.7687
-5.04406
0.248335
8.49426
15.8588
21.3086
24.8772
27.3346
29.9923
35.0832
37.7671
-8.77164
-8.49639
-0.629632
6.40116
10.6511
13.1021
14.7663
15.8427
15.5886
9.21117
-11.7961
-14.4175
-5.93948
-0.677551
1.99022
3.45582
4.18401
4.43784
2.13895
-0.265545
-14.4659
-18.6737
-9.78834
-7.28155
-5.72863
-4.95521
-5.21837
-5.33602
-8.46223
-5.61337
-15.9855
-20.9854
-13.6971
-12.7176
-11.6614
-11.3551
-12.1315
-12.5229
-15.7528
-9.88854
-17.8426
-15.1549
-14.1882
-15.0278
-15.6589
-15.6794
-15.0809
-13.8265
-13.5723
-16.4825
-28.9618
-2.48224
-14.8212
-17.4174
-20.5995
-20.8056
-17.7125
-14.8621
-2.64669
-30.6598
1925.03
1914.99
1904.53
1893.81
1883
1872.29
1861.87
1851.94
1842.68
1834.26
1826.85
1820.34
1814.67
1809.78
1805.68
1802.34
1799.69
1797.66
1796.18
1795.17
1794.56
1794.28
1794.28
1794.51
1794.94
1795.53
1796.27
1797.12
1798.08
1799.12
1800.22
1801.37
1802.54
1803.72
1805.05
1809.55
1810.28
1807.53
1808.22
1808.64
1878.62
1870.29
1861.68
1852.99
1844.38
1836
1828.02
1820.56
1813.75
1807.64
1802.26
1797.99
1794.48
1791.67
1789.49
1787.86
1786.68
1785.86
1785.33
1785.03
1784.9
1784.92
1785.05
1785.28
1785.58
1785.96
1786.4
1786.89
1787.43
1788.01
1788.6
1789.18
1789.71
1790.19
1790.89
1792.38
1793.1
1793.68
1792.44
1792.47
1832.25
1826.02
1819.68
1813.37
1807.26
1801.46
1796.09
1791.27
1787.06
1783.51
1780.64
1778.41
1776.75
1775.57
1774.76
1774.25
1773.97
1773.84
1773.82
1773.87
1773.95
1774.04
1774.13
1774.22
1774.3
1774.37
1774.43
1774.49
1774.54
1774.55
1774.53
1774.45
1774.29
1774.08
1773.92
1773.9
1773.85
1773.22
1776.9
1778.33
1796.07
1791.18
1786.26
1781.44
1776.81
1772.48
1768.56
1765.11
1762.2
1759.87
1758.12
1756.92
1756.21
1755.89
1755.88
1756.06
1756.38
1756.75
1757.13
1757.48
1757.78
1758
1758.14
1758.19
1758.17
1758.07
1757.91
1757.69
1757.41
1757.07
1756.68
1756.24
1755.76
1755.29
1754.93
1754.81
1755.15
1756.53
1759.63
1763.71
1766.86
1762.9
1758.91
1754.99
1751.21
1747.64
1744.34
1741.39
1738.87
1736.86
1735.45
1734.63
1734.35
1734.48
1734.91
1735.53
1736.24
1736.97
1737.66
1738.27
1738.77
1739.16
1739.4
1739.5
1739.46
1739.31
1739.06
1738.7
1738.27
1737.76
1737.21
1736.62
1736.05
1735.58
1735.3
1735.41
1736.23
1738.48
1742.61
1747.45
1742.81
1739.57
1736.27
1732.95
1729.64
1726.33
1723.03
1719.8
1716.76
1714.14
1712.22
1711.18
1710.94
1711.3
1712.06
1713.05
1714.13
1715.21
1716.22
1717.11
1717.89
1718.55
1719.03
1719.27
1719.32
1719.22
1718.99
1718.64
1718.19
1717.67
1717.1
1716.54
1716.03
1715.67
1715.58
1715.96
1717.17
1719.87
1724.34
1728.85
1722.98
1720.43
1717.8
1715.04
1712.08
1708.85
1705.34
1701.48
1696.95
1691.97
1687.99
1685.87
1685.42
1686.02
1687.21
1688.69
1690.27
1691.81
1693.24
1694.54
1695.81
1697.21
1697.63
1698.08
1698.33
1698.4
1698.31
1698.07
1697.72
1697.3
1696.83
1696.36
1695.98
1695.78
1695.88
1696.46
1697.85
1700.62
1704.92
1709
1706.61
1704.98
1703.32
1701.57
1699.8
1698.24
1696.57
1692.29
1681.97
1668.84
1659.92
1656.64
1656.49
1657.95
1660.11
1662.51
1664.91
1667.18
1669.35
1671.36
1673.66
1674.98
1675.63
1676.46
1677.02
1677.34
1677.47
1677.43
1677.32
1676.98
1676.63
1676.31
1676.07
1675.99
1676.2
1676.84
1678.18
1680.67
1684.37
1687.79
1692.95
1692.65
1692.67
1693.43
1695.84
1699.48
1697.56
1677.57
1643.83
1626.35
1615.57
1613.95
1618.79
1624.7
1629.96
1634.47
1638.43
1641.97
1645.31
1648.09
1649.96
1651.77
1653.5
1654.79
1655.82
1656.49
1656.98
1657.13
1656.95
1656.81
1656.63
1656.44
1656.32
1656.32
1656.54
1657.09
1658.17
1660.12
1662.97
1665.56
1680.24
1681.11
1682.97
1687.03
1692.3
1685.93
1650.96
1610.08
1607.15
1592.42
1562.7
1559.02
1573.58
1588.11
1598.51
1606.03
1611.93
1616.78
1620.6
1623.58
1626.43
1628.97
1631.63
1634.41
1635.55
1636.14
1636.49
1636.71
1636.82
1636.87
1636.84
1636.78
1636.72
1636.74
1636.88
1637.23
1637.92
1639.16
1641
1642.67
1667.09
1668.93
1672.76
1677.63
1668.96
1631.11
1598.14
1589.94
1585.85
1575.52
1542.16
1533.06
1547.93
1563.58
1574.66
1582.59
1588.57
1593.26
1597.47
1601.77
1605.18
1610.63
1615.92
1614.21
1614.96
1615.6
1616.14
1616.6
1616.93
1617.13
1617.23
1617.25
1617.23
1617.2
1617.19
1617.26
1617.47
1617.94
1618.7
1619.41
1653.35
1656.4
1661.29
1658.16
1624.08
1586.11
1579.44
1579.57
1579.12
1564.74
1530.71
1525.32
1538.35
1550.44
1558.67
1564.57
1569.74
1574.59
1578.54
1584.77
1593
1596.7
1593.8
1593.53
1594.42
1595.34
1596.12
1596.74
1597.21
1597.53
1597.72
1597.79
1597.76
1597.64
1597.45
1597.19
1596.88
1596.55
1596.24
1596.04
1639.39
1643.75
1646.71
1627.93
1586.96
1571.18
1570.58
1571.96
1569.18
1542.53
1523.71
1526.43
1535.02
1542.24
1547.78
1551.23
1556.11
1563.75
1569.57
1573.51
1571.7
1571.21
1571.42
1572.49
1573.97
1575.2
1576.18
1576.95
1577.53
1577.95
1578.2
1578.29
1578.22
1577.99
1577.59
1576.99
1576.17
1575.06
1573.74
1572.68
1624.38
1628.44
1623.89
1592.79
1565.62
1561.12
1563.25
1564.71
1549.55
1530.31
1524.78
1523.46
1528.94
1531.93
1535.62
1541.25
1546
1548.99
1549.97
1547.69
1548.27
1549.52
1550.97
1552.6
1554.11
1555.35
1556.36
1557.18
1557.82
1558.28
1558.56
1558.65
1558.53
1558.17
1557.55
1556.62
1555.3
1553.48
1551.25
1549.4
1608.69
1610.88
1598.91
1570.73
1558.05
1554.43
1556.15
1553.92
1533.64
1527.75
1515.7
1522.21
1523.48
1524.12
1525.6
1527.7
1527.44
1526.03
1526.69
1527.33
1528.56
1530.16
1531.75
1533.17
1534.43
1535.53
1536.49
1537.3
1537.95
1538.43
1538.71
1538.78
1538.59
1538.1
1537.27
1536.04
1534.28
1531.82
1528.8
1526.29
1592.78
1592.2
1575.76
1553.45
1551.39
1550.75
1554.91
1546.45
1529.55
1514.45
1517.03
1516.1
1514.92
1513.29
1509.7
1507.13
1507.21
1507.5
1508.05
1508.96
1510.08
1511.24
1512.37
1513.47
1514.52
1515.5
1516.39
1517.17
1517.81
1518.28
1518.56
1518.59
1518.34
1517.74
1516.73
1515.23
1513.1
1510.11
1506.44
1503.39
1580.92
1583.34
1576.29
1565.04
1559.15
1553.89
1543.97
1529.18
1510.51
1513.85
1513.55
1507.86
1500.4
1495.36
1492.66
1491.02
1490.15
1489.89
1490
1490.34
1490.89
1491.6
1492.41
1493.29
1494.2
1495.08
1495.92
1496.67
1497.3
1497.77
1498.03
1498.04
1497.74
1497.05
1495.9
1494.2
1491.78
1488.37
1484.19
1480.75
1568.52
1575.39
1579.89
1578.92
1576.42
1562.71
1528.44
1501.41
1490.98
1504.4
1504.22
1487.87
1480.79
1476.78
1474.41
1472.69
1471.46
1470.69
1470.34
1470.34
1470.61
1471.1
1471.76
1472.52
1473.34
1474.18
1474.99
1475.73
1476.36
1476.84
1477.12
1477.12
1476.8
1476.06
1474.83
1473.01
1470.41
1466.73
1462.23
1458.73
1551.03
1559.15
1568.67
1574.2
1575.71
1561.22
1521.26
1477.39
1467.82
1469.53
1468.46
1462.12
1458.11
1455.48
1453.35
1451.61
1450.35
1449.55
1449.15
1449.09
1449.31
1449.74
1450.35
1451.08
1451.88
1452.72
1453.55
1454.32
1454.99
1455.5
1455.81
1455.84
1455.52
1454.78
1453.53
1451.66
1448.99
1445.19
1440.57
1436.78
1528.63
1535.5
1541.73
1547.14
1551.35
1535.96
1513.67
1467.03
1441.69
1440.29
1440.25
1437.28
1434.26
1431.9
1430.03
1428.59
1427.58
1426.96
1426.69
1426.73
1427.02
1427.51
1428.17
1428.96
1429.82
1430.72
1431.61
1432.45
1433.18
1433.76
1434.13
1434.21
1433.95
1433.25
1432.02
1430.17
1427.49
1423.67
1419
1415.2
1503.57
1509.77
1510.68
1512.58
1513.07
1504.81
1496.2
1457.61
1419.31
1410.54
1411.11
1410.11
1408.17
1406.41
1405.05
1404.06
1403.42
1403.1
1403.09
1403.34
1403.81
1404.47
1405.28
1406.2
1407.19
1408.2
1409.21
1410.15
1410.99
1411.66
1412.12
1412.3
1412.13
1411.52
1410.38
1408.62
1406.03
1402.3
1397.66
1393.85
1474.83
1480.85
1480.29
1475.84
1470.42
1466.57
1460.02
1434.25
1398.74
1383.6
1382.89
1382.48
1381.15
1379.87
1378.95
1378.4
1378.16
1378.2
1378.52
1379.06
1379.8
1380.71
1381.74
1382.86
1384.04
1385.23
1386.39
1387.48
1388.46
1389.27
1389.87
1390.18
1390.14
1389.67
1388.68
1387.07
1384.65
1381.11
1376.67
1373.09
1442.43
1447.42
1447.3
1435.63
1424.59
1424.06
1410.73
1400.89
1381.17
1363.2
1356.92
1354.98
1353.57
1352.51
1351.92
1351.76
1351.95
1352.43
1353.14
1354.05
1355.13
1356.35
1357.67
1359.06
1360.47
1361.88
1363.24
1364.52
1365.68
1366.67
1367.44
1367.92
1368.06
1367.78
1367
1365.63
1363.47
1360.25
1356.22
1352.94
1407.52
1410.24
1408.51
1389.1
1375.16
1376.21
1363.68
1353.63
1345.38
1335.05
1327.07
1324.53
1323.71
1323.4
1323.52
1324.02
1324.81
1325.85
1327.07
1328.45
1329.94
1331.54
1333.2
1334.89
1336.59
1338.26
1339.86
1341.37
1342.74
1343.94
1344.91
1345.61
1345.98
1345.94
1345.42
1344.34
1342.53
1339.73
1336.21
1333.26
1374.38
1376.27
1377.11
1363.41
1337.82
1323.18
1316.98
1307.31
1300.44
1292.94
1289.55
1289.55
1290.88
1292.26
1293.66
1295.19
1296.85
1298.62
1300.48
1302.4
1304.39
1306.41
1308.46
1310.5
1312.52
1314.48
1316.35
1318.11
1319.73
1321.17
1322.38
1323.33
1323.96
1324.2
1324
1323.28
1321.9
1319.61
1316.58
1314.08
1340.09
1339.39
1338.65
1328.57
1296.15
1273.55
1279
1271.61
1260.63
1254.77
1253.2
1255.92
1259.01
1261.45
1263.77
1266.18
1268.67
1271.18
1273.68
1276.19
1278.69
1281.17
1283.63
1286.04
1288.39
1290.66
1292.83
1294.87
1296.75
1298.45
1299.94
1301.16
1302.09
1302.66
1302.82
1302.52
1301.63
1299.95
1297.6
1295.62
1307.7
1304.93
1302.17
1294.56
1268.32
1246.27
1244.65
1231.96
1223.84
1216.1
1213.81
1218.38
1226.14
1231.18
1234.3
1237.33
1240.54
1243.76
1246.93
1250.01
1253.03
1255.98
1258.86
1261.65
1264.35
1266.94
1269.41
1271.74
1273.9
1275.88
1277.65
1279.19
1280.44
1281.37
1281.94
1282.09
1281.73
1280.73
1279.19
1277.85
1278.35
1274.67
1271.45
1267.33
1251.31
1216.41
1193.99
1199.85
1196.72
1189.76
1182.9
1179.55
1187.26
1198.18
1204.94
1208.98
1212.72
1216.58
1220.4
1224.08
1227.62
1231.03
1234.32
1237.48
1240.53
1243.44
1246.2
1248.82
1251.27
1253.54
1255.62
1257.47
1259.08
1260.41
1261.42
1262.06
1262.25
1262.17
1261.39
1260.75
1250.2
1245.43
1240.53
1235.16
1223.36
1193.46
1175.84
1181.16
1172.19
1166.21
1160.94
1155.9
1151.53
1158
1171.76
1180.79
1185.81
1190.07
1194.38
1198.6
1202.64
1206.48
1210.15
1213.67
1217.03
1220.25
1223.3
1226.2
1228.94
1231.51
1233.9
1236.1
1238.1
1239.86
1241.37
1242.59
1243.47
1244.05
1244.22
1244.23
1224.8
1219.8
1214.53
1209.32
1202.56
1185.43
1159.86
1146.73
1149.08
1148.29
1144.46
1139.85
1134.92
1127.83
1133.88
1147.86
1158.65
1164.85
1169.51
1173.95
1178.32
1182.52
1186.52
1190.33
1193.98
1197.47
1200.8
1203.97
1206.98
1209.84
1212.55
1215.11
1217.53
1219.78
1221.86
1223.76
1225.45
1226.92
1228.09
1231.28
1200.82
1195.49
1189.68
1183.53
1176.57
1163.85
1138.9
1128.61
1137.07
1131.52
1128.05
1125.65
1121.55
1116.97
1110.06
1110.1
1122.27
1137.09
1145.53
1150.43
1154.81
1159.21
1163.48
1167.56
1171.45
1175.18
1178.74
1182.16
1185.43
1188.57
1191.59
1194.52
1197.36
1200.12
1202.81
1205.43
1208
1210.57
1212.89
1216.83
1178.79
1173.53
1167.92
1161.94
1155.75
1148.13
1135.14
1123.2
1117.81
1114.2
1113.6
1114.21
1110.48
1104.9
1101.34
1097.75
1090.98
1102.77
1119.88
1128.33
1132.7
1136.87
1141.2
1145.44
1149.51
1153.42
1157.18
1160.8
1164.3
1167.7
1171.02
1174.3
1177.55
1180.82
1184.12
1187.47
1190.94
1194.62
1198.17
1202.47
1157.96
1152.74
1147.21
1141.29
1135.13
1128.61
1119.58
1105.15
1098.51
1105.43
1102.54
1101.76
1101.27
1097.46
1093.41
1089.72
1086.31
1082.5
1092.97
1104.55
1110.87
1115.16
1119.52
1123.89
1128.12
1132.17
1136.1
1139.9
1143.6
1147.22
1150.82
1154.42
1158.08
1161.84
1165.74
1169.83
1174.21
1179.06
1183.92
1188.61
1138.19
1132.98
1127.51
1121.65
1115.38
1108.51
1100.55
1092.95
1093.98
1098.03
1095.1
1091.65
1090.78
1090.08
1087.45
1083.55
1080.81
1081.39
1081.61
1083.91
1088.35
1093.06
1097.75
1102.56
1107.13
1111.41
1115.48
1119.43
1123.3
1127.12
1130.95
1134.85
1138.88
1143.11
1147.61
1152.43
1157.76
1163.85
1170.14
1175.26
1119.4
1114.25
1108.88
1103.18
1097.15
1090.59
1083.24
1076.82
1077.08
1083.58
1087.96
1085.38
1082.69
1082.44
1081.92
1079.61
1077.1
1076.84
1078.04
1078.19
1078.73
1077.69
1078.17
1081.83
1086.68
1091.27
1095.46
1099.48
1103.44
1107.39
1111.4
1115.53
1119.89
1124.55
1129.6
1135.15
1141.42
1148.77
1156.58
1162.41
1101.39
1096.26
1090.93
1085.3
1079.37
1072.94
1065.45
1057.49
1056.56
1071.17
1081.54
1081.03
1078.93
1077.68
1078.07
1077.4
1075.29
1073.59
1073.75
1074.87
1075.14
1074.36
1068.05
1064.03
1066.57
1071.44
1075.98
1080.05
1084.01
1088.01
1092.12
1096.42
1101.02
1106.04
1111.58
1117.79
1124.93
1133.47
1142.84
1149.95
1084.15
1079.06
1073.8
1068.26
1062.47
1056.33
1049.28
1040.78
1035.57
1049.32
1072.65
1076.03
1074.69
1074.04
1074.18
1074.91
1074.05
1072.19
1071.27
1071.97
1072.41
1072.33
1070
1058.26
1050.19
1051.93
1056.75
1061.12
1065.05
1068.97
1073.08
1077.44
1082.19
1087.45
1093.37
1100.09
1107.93
1117.33
1127.81
1135.29
1067.59
1062.55
1057.35
1051.91
1046.25
1040.39
1034.04
1026.34
1018.23
1021.8
1050.66
1071.09
1072.61
1072.43
1072.09
1072.31
1072.7
1071.73
1070.62
1070.64
1070.95
1070.97
1070.69
1065.41
1047.17
1036.04
1037.71
1042.42
1046.54
1050.33
1054.3
1058.63
1063.43
1068.86
1075.08
1082.29
1090.84
1101.22
1112.59
1120.94
1051.66
1046.64
1041.47
1036.06
1030.43
1024.59
1018.46
1011.33
1002.1
995.807
1015.82
1058.63
1071.76
1071.39
1071.03
1070.85
1071.07
1071.46
1070.64
1070.2
1070.29
1070.22
1070.04
1069.75
1057.94
1031.67
1020.33
1023.31
1028.08
1031.99
1035.77
1039.93
1044.66
1050.12
1056.52
1064.06
1073.17
1084.41
1096.89
1106.19
1036.36
1031.35
1026.19
1020.81
1015.2
1009.4
1003.42
996.955
988.75
978.719
980.702
1023.91
1068.46
1070.22
1070.2
1070.06
1069.96
1070.13
1070.01
1069.88
1069.85
1069.78
1069.69
1069.62
1069.56
1043.48
1011.02
1004.51
1009.31
1013.84
1017.5
1021.36
1025.87
1031.22
1037.64
1045.36
1054.84
1066.77
1080.17
1090.29
1021.67
1016.64
1011.46
1006.05
1000.43
994.592
988.595
982.421
975.428
966.021
957.481
975.514
1035.73
1069.33
1069.91
1069.79
1069.65
1069.53
1069.49
1069.54
1069.51
1069.46
1069.44
1069.43
1069.19
1056.85
1013.87
989.66
990.731
995.871
999.573
1003
1007.08
1012.14
1018.39
1026.09
1035.75
1048.1
1062.17
1072.9
1007.61
1002.52
997.265
991.773
986.04
980.061
973.856
967.491
960.805
952.555
941.314
937.641
981.505
1053.79
1069.3
1069.26
1069.17
1069.11
1069.09
1069.12
1069.16
1069.14
1069.12
1069.09
1068.76
1066.47
1023.58
980.606
974.067
978.848
982.27
984.973
988.359
992.879
998.734
1006.19
1015.76
1028.21
1042.6
1053.7
994.188
989.036
983.679
978.055
972.151
965.951
959.44
952.666
945.694
938.074
927.854
915.291
924.037
998.765
1067.6
1068.83
1068.83
1068.67
1068.67
1068.78
1068.85
1068.85
1068.83
1068.8
1068.49
1066.44
1021.22
971.483
960.74
963.713
965.765
967.266
969.665
973.402
978.632
985.591
994.785
1006.97
1021.25
1032.41
981.423
976.227
970.783
965.021
958.909
952.408
945.466
938.054
930.227
921.955
912.166
898.17
885.423
918.089
1019.28
1068.44
1068.69
1068.35
1068.28
1068.59
1068.8
1068.82
1068.73
1068.56
1068
1057.79
1003.8
960.012
950.072
949.953
949.578
949.526
950.789
953.595
958.031
964.285
972.818
984.35
998.051
1008.91
969.32
964.158
958.712
952.895
946.653
939.91
932.566
924.508
915.664
906.066
895.46
881.853
862.829
855.912
931.242
1048.92
1066.34
1066.74
1067.19
1067.77
1069.03
1069.24
1068.64
1067.31
1057.85
1019.98
968.967
944.82
938.17
934.868
932.278
930.982
931.301
933.245
936.855
942.28
949.918
960.423
973.055
983.215
957.836
952.84
947.556
941.884
935.743
929.014
921.535
913.08
903.371
892.22
879.749
865.839
848.437
829.018
842.415
945.355
1035.54
1057.59
1065.74
1067.22
1065.36
1062.61
1057.4
1041.21
1004.18
963.688
938.576
927.578
921.163
916.313
912.92
911.14
910.922
912.229
915.099
919.651
926.223
935.377
946.49
955.576
946.82
942.158
937.263
932.034
926.369
920.105
912.977
904.568
894.226
881.084
864.735
846.486
827.74
806.888
788.929
809.347
881.76
988.221
1009.48
1017.98
1014.82
1002.11
982.136
957.157
934.054
919.686
911.069
904.443
898.933
894.657
891.726
890.098
889.735
890.649
892.892
896.568
901.953
909.505
918.742
926.432
935.993
931.837
927.601
923.223
918.634
913.669
908.081
901.629
893.554
880.379
856.778
827.287
803.524
784.744
766.338
758.379
803.853
855.946
893.964
916.167
919.574
916.517
910.212
902.448
895.437
889.557
884.142
879.219
875.101
871.944
869.738
868.466
868.137
868.786
870.466
873.264
877.387
883.177
890.298
896.366
924.905
921.369
918.034
914.97
912.275
910.033
908.774
910.373
915.015
905.681
854.178
791.914
762.913
753.214
747.007
747.529
796.378
819.712
841.695
857.198
863.715
865.944
865.892
864.345
861.884
858.937
855.897
853.087
850.695
848.793
847.423
846.621
846.428
846.889
848.054
849.987
852.821
856.784
861.686
866.015
912.796
909.667
906.976
904.918
903.761
904.008
907.594
919.143
936.329
921.268
847.239
753.988
710.742
709.662
719.574
730.088
774.539
791.811
804.264
814.889
821.521
825.813
828.382
829.574
829.759
829.304
828.511
827.593
826.689
825.9
825.303
824.958
824.913
825.21
825.885
826.976
828.546
830.705
833.398
835.994
898.88
895.485
892.397
889.72
887.736
887.264
890.457
899.161
901.321
881.969
830.807
734.109
672.728
672.984
695.18
712.549
745.572
755.938
768.958
778.546
785.625
791.275
795.551
798.609
800.699
802.063
802.9
803.372
803.605
803.7
803.733
803.762
803.825
803.949
804.151
804.443
804.824
805.288
805.865
807.014
883.24
878.926
874.396
869.665
865.248
861.827
857.507
842.617
811.292
815.387
793.571
722.076
657.025
658.969
672.971
710.091
722.585
729.826
740.59
748.981
756.108
762.244
767.347
771.464
774.716
777.239
779.163
780.602
781.657
782.406
782.909
783.204
783.313
783.243
782.99
782.542
781.849
780.827
779.583
779.198
867.1
862.088
856.904
852.302
849.301
845.135
824.87
778.533
750.336
751.942
741.04
675.609
643.425
651.309
674.771
695.975
691.523
703.111
713.399
722.383
730.17
736.856
742.544
747.324
751.295
754.55
757.182
759.271
760.888
762.086
762.901
763.349
763.433
763.139
762.445
761.317
759.658
757.293
754.384
752.54
850.307
845.14
840.691
836.155
824.524
791.161
730.049
676.927
685.102
695.84
670.858
637.313
632.227
649.82
668.207
663.77
672.866
682.824
692.281
700.715
708.192
714.812
720.624
725.671
730.002
733.67
736.728
739.224
741.196
742.671
743.661
744.164
744.16
743.62
742.506
740.763
738.253
734.723
730.38
727.245
833.79
830.21
824.65
799.467
740.971
678.296
653.259
652.104
651.043
649.668
635.013
629.94
622.832
649.383
649.263
650.27
656.921
665.732
674.139
681.781
688.754
695.092
700.796
705.871
710.327
714.184
717.462
720.178
722.346
723.967
725.031
725.517
725.39
724.604
723.108
720.831
717.598
713.089
707.58
703.325
820.186
817.064
788.207
717.535
658.365
644.804
644.549
644.867
645.413
644.73
633.743
604.944
601.614
613.861
625.926
633.538
641.296
649.348
657.034
664.156
670.73
676.774
682.289
687.268
691.706
695.6
698.95
701.752
704
705.675
706.75
707.185
706.93
705.923
704.103
701.384
697.555
692.267
685.85
680.702
806.334
788.787
720.061
656.344
643.467
641.867
642.476
643.103
643.416
642.325
626.918
586.748
581.528
597.251
610.252
619.041
626.687
634.064
641.064
647.611
653.709
659.368
664.592
669.363
673.663
677.474
680.781
683.568
685.812
687.48
688.528
688.903
688.536
687.355
685.285
682.228
677.947
672.106
664.992
659.123
785.947
746.006
670.452
643.573
640.433
640.333
640.786
641.278
641.652
640.505
617.671
579.503
574.517
587.412
598.218
606.051
612.956
619.536
625.78
631.661
637.194
642.39
647.24
651.719
655.797
659.443
662.631
665.332
667.514
669.132
670.131
670.443
669.989
668.683
666.439
663.148
658.561
652.314
644.696
638.41
760.689
707.971
650.18
639.087
637.916
638.01
638.302
638.785
639.201
636.384
607.038
573.822
571.178
580.291
588.057
594.213
599.921
605.461
610.801
615.914
620.803
625.467
629.884
634.019
637.826
641.263
644.291
646.871
648.958
650.501
651.436
651.687
651.168
649.784
647.44
644.019
639.27
632.75
624.802
618.21
735.132
680.847
638.351
633.687
634.389
634.842
635.024
635.346
635.41
629.645
597.475
567.862
565.94
572.287
577.68
582.222
586.682
591.17
595.61
599.957
604.198
608.316
612.281
616.047
619.563
622.774
625.628
628.075
630.059
631.521
632.393
632.592
632.028
630.601
628.212
624.738
619.915
613.283
605.198
598.469
707.844
658.096
631.588
629.998
631.042
631.41
631.435
631.555
631.186
623.977
589.3
559.747
557.115
561.823
565.727
569.064
572.509
576.119
579.796
583.48
587.142
590.756
594.288
597.691
600.91
603.886
606.558
608.866
610.749
612.137
612.957
613.122
612.539
611.104
608.716
605.247
600.43
593.818
585.759
579.019
678.643
638.961
627.182
626.889
627.203
627.354
627.349
627.393
626.737
619.244
582.061
549.349
545.057
548.793
551.818
554.326
557.029
559.985
563.086
566.258
569.462
572.664
575.827
578.904
581.843
584.585
587.069
589.232
591.007
592.324
593.101
593.25
592.675
591.268
588.926
585.522
580.793
574.298
566.376
559.754
651.315
621.149
618.303
621.512
622.251
622.493
622.702
622.729
621.605
615.089
576.156
536.975
529.717
533.011
535.729
537.792
540.043
542.588
545.315
548.143
551.027
553.933
556.819
559.643
562.353
564.893
567.205
569.228
570.897
572.139
572.877
573.02
572.469
571.117
568.861
565.576
561.008
554.722
547.057
540.649
624.676
597.748
599.558
614.22
618.914
619.322
619.11
618.752
617.241
612.572
571.337
521.664
509.805
513.702
517.083
519.271
521.45
523.871
526.444
529.095
531.789
534.501
537.2
539.848
542.397
544.793
546.981
548.9
550.488
551.676
552.388
552.537
552.026