/*--------------------------------*- C++ -*----------------------------------*\
  =========                 |
  \\      /  F ield         | OpenFOAM: The Open Source CFD Toolbox
   \\    /   O peration     | Website:  https://openfoam.org
    \\  /    A nd           | Version:  8
     \\/     M anipulation  |
\*---------------------------------------------------------------------------*/
FoamFile
{
    version     2.0;
    format      ascii;
    class       volScalarField;
    location    "1.75";
    object      p_rgh;
}
// * * * * * * * * * * * * * * * * * * * * * * * * * * * * * * * * * * * * * //

dimensions      [1 -1 -2 0 0 0 0];

internalField   nonuniform List<scalar> 
9150
(
2559.61
2532.68
2507.1
2489.89
2481.57
2481.57
2489.89
2507.1
2532.67
2559.61
2550.35
2530.87
2515.16
2503.36
2497.36
2497.36
2503.36
2515.16
2530.87
2550.35
2540.7
2527.21
2518.6
2510.86
2506.73
2506.73
2510.86
2518.6
2527.21
2540.7
2535.58
2525.67
2520.13
2514.79
2511.81
2511.81
2514.79
2520.13
2525.67
2535.58
2533.88
2525.13
2520.45
2516.29
2513.85
2513.85
2516.29
2520.45
2525.13
2533.88
2094.98
2090.62
2115.86
2130.29
2136.87
2136.86
2130.25
2115.8
2090.54
2094.85
2284.67
2260.44
2255.06
2253.89
2253.96
2253.95
2253.87
2255.03
2260.4
2284.63
2408.97
2377.4
2361.38
2351.52
2346.83
2346.82
2351.51
2361.36
2377.38
2408.95
2509.16
2466.77
2438.81
2421.5
2412.98
2412.98
2421.49
2438.8
2466.76
2509.15
2578.47
2526.36
2487.73
2465.71
2455.57
2455.56
2465.71
2487.73
2526.35
2578.47
1912.15
1949.39
1938.4
1946.25
1942.27
1942.02
1946.28
1938.03
1948.71
1911.24
1939.47
1957.44
1938
1944.8
1941.88
1941.73
1944.96
1937.48
1957.01
1938.76
1914.04
1946.65
1916.68
1922.48
1926.17
1926.15
1922.43
1916.33
1946.26
1913.54
1754.84
1880.09
1900.08
1917.8
1933.67
1933.65
1917.67
1899.81
1879.92
1754.29
1635.49
1869.15
1966.79
1996.96
2012.29
2012.27
1996.88
1966.68
1869.01
1635.07
1985.91
1984.86
1982.82
1979.81
1975.86
1971.02
1965.34
1958.87
1951.67
1943.81
1951.66
1950.64
1948.8
1946.15
1942.71
1938.53
1933.64
1928.12
1922.02
1915.44
1914.77
1913.91
1912.47
1910.4
1907.74
1904.51
1900.74
1896.51
1891.85
1886.87
1892.15
1891.34
1890.04
1888.26
1886.03
1883.36
1880.3
1876.88
1873.16
1869.19
1878.4
1877.5
1876.24
1874.63
1872.68
1870.41
1867.85
1865.03
1861.98
1858.76
1870.74
1869.73
1868.48
1866.99
1865.26
1863.31
1861.15
1858.81
1856.3
1853.66
1867.43
1866.34
1865.1
1863.72
1862.19
1860.54
1858.76
1856.87
1854.88
1852.81
1867.03
1865.88
1864.69
1863.46
1862.18
1860.85
1859.49
1858.1
1856.69
1855.27
1868.35
1867.23
1866.16
1865.13
1864.15
1863.21
1862.33
1861.52
1860.8
1860.2
1870.52
1869.51
1868.62
1867.86
1867.22
1866.7
1866.31
1866.07
1866.03
1866.19
1872.87
1872.07
1871.44
1870.99
1870.7
1870.59
1870.65
1870.92
1871.4
1872.1
1875
1874.48
1874.18
1874.07
1874.15
1874.42
1874.89
1875.56
1876.44
1877.49
1876.67
1876.53
1876.59
1876.86
1877.31
1877.95
1878.79
1879.83
1881.03
1882.43
1877.85
1878.09
1878.55
1879.2
1880.02
1881.01
1882.16
1883.46
1884.86
1886.5
1878.5
1879.16
1880.04
1881.08
1882.29
1883.65
1885.14
1886.71
1888.34
1890.26
1878.61
1879.72
1881.03
1882.5
1884.14
1885.93
1887.83
1889.79
1891.78
1894.07
1878.21
1879.75
1881.52
1883.48
1885.66
1888.05
1890.67
1893.52
1896.64
1900.26
1877.23
1879.13
1881.29
1883.68
1886.34
1889.3
1892.63
1896.39
1900.69
1905.68
1875.54
1877.67
1880.06
1882.71
1885.64
1888.93
1892.63
1896.85
1901.71
1907.3
1873.07
1875.28
1877.73
1880.42
1883.38
1886.68
1890.37
1894.54
1899.33
1904.82
1869.84
1871.98
1874.32
1876.85
1879.62
1882.68
1886.09
1889.93
1894.34
1899.51
1865.91
1867.86
1869.92
1872.11
1874.47
1877.04
1879.89
1883.08
1886.73
1891.06
1861.53
1863.16
1864.8
1866.48
1868.24
1870.11
1872.14
1874.38
1876.89
1879.83
1857.01
1858.19
1859.28
1860.31
1861.32
1862.32
1863.33
1864.39
1865.47
1866.68
1852.7
1853.33
1853.78
1854.11
1854.34
1854.47
1854.55
1854.58
1854.55
1854.55
1848.87
1848.83
1848.57
1848.14
1847.53
1846.75
1845.81
1844.69
1843.36
1841.84
1845.66
1844.9
1843.91
1842.71
1841.32
1839.69
1837.83
1835.7
1833.27
1830.53
1843.03
1841.59
1839.92
1838.06
1835.97
1833.65
1831.06
1828.2
1825.01
1821.55
1840.89
1838.87
1836.62
1834.17
1831.5
1828.58
1825.38
1821.86
1817.99
1813.81
1839.31
1836.81
1834.08
1831.17
1828.05
1824.69
1821.06
1817.12
1812.85
1808.33
1838.33
1835.43
1832.32
1829.04
1825.56
1821.86
1817.9
1813.65
1809.07
1804.25
1837.95
1834.74
1831.32
1827.76
1824.03
1820.09
1815.92
1811.49
1806.77
1801.86
1838.18
1834.72
1831.08
1827.3
1823.38
1819.28
1814.97
1810.43
1805.63
1800.67
1838.91
1835.29
1831.5
1827.58
1823.53
1819.32
1814.93
1810.33
1805.49
1800.52
1840.13
1836.42
1832.54
1828.55
1824.42
1820.15
1815.72
1811.1
1806.27
1801.32
1841.83
1838.1
1834.19
1830.16
1826
1821.7
1817.25
1812.63
1807.82
1802.9
1844.05
1840.33
1836.43
1832.39
1828.23
1823.93
1819.48
1814.88
1810.1
1805.23
1846.72
1843.07
1839.22
1835.22
1831.08
1826.79
1822.37
1817.8
1813.06
1808.24
1849.88
1846.33
1842.56
1838.63
1834.53
1830.29
1825.9
1821.36
1816.67
1811.9
1853.55
1850.12
1846.46
1842.61
1838.59
1834.41
1830.07
1825.57
1820.92
1816.19
1857.72
1854.44
1850.91
1847.17
1843.25
1839.14
1834.86
1830.42
1825.81
1821.12
1862.44
1859.31
1855.92
1852.31
1848.5
1844.49
1840.29
1835.91
1831.35
1826.69
1867.69
1864.72
1861.48
1858.01
1854.33
1850.43
1846.33
1842.03
1837.53
1832.9
1873.48
1870.68
1867.58
1864.25
1860.7
1856.92
1852.94
1848.73
1844.32
1839.75
1879.8
1877.14
1874.18
1870.98
1867.55
1863.91
1860.05
1855.97
1851.67
1847.2
1886.6
1884.05
1881.19
1878.11
1874.8
1871.28
1867.56
1863.63
1859.49
1855.17
1893.82
1891.32
1888.53
1885.52
1882.31
1878.9
1875.31
1871.54
1867.59
1863.51
1901.34
1898.83
1896.04
1893.06
1889.9
1886.57
1883.1
1879.49
1875.75
1871.93
1909.03
1906.41
1903.54
1900.52
1897.35
1894.06
1890.66
1887.17
1883.61
1880.06
1916.69
1913.86
1910.83
1907.69
1904.44
1901.1
1897.69
1894.23
1890.75
1887.33
1924.07
1920.95
1917.69
1914.35
1910.94
1907.46
1903.93
1900.36
1896.76
1893.2
1930.89
1927.42
1923.88
1920.3
1916.69
1913.02
1909.29
1905.5
1901.63
1897.73
1936.75
1932.97
1929.18
1925.4
1921.6
1917.77
1913.87
1909.9
1905.82
1901.64
1941.26
1937.28
1933.35
1929.44
1925.54
1921.61
1917.61
1913.52
1909.29
1904.85
1944.12
1940.15
1936.22
1932.33
1928.44
1924.52
1920.53
1916.42
1912.1
1907.56
1945.26
1941.49
1937.74
1934.02
1930.29
1926.52
1922.7
1918.73
1914.62
1910.99
1944.78
1941.38
1937.94
1934.5
1931.02
1927.51
1923.89
1920.12
1916.57
1914.91
1942.88
1939.94
1936.92
1933.82
1930.66
1927.39
1923.96
1920.38
1917.48
1917.12
1939.88
1937.46
1934.88
1932.19
1929.39
1926.44
1923.29
1920.14
1918.14
1918.12
1936.12
1934.18
1932.04
1929.75
1927.3
1924.67
1921.83
1919.1
1917.75
1917.38
1931.91
1930.4
1928.64
1926.71
1924.58
1922.22
1919.63
1917.21
1915.97
1914.47
1927.52
1926.36
1924.95
1923.32
1921.48
1919.38
1917.07
1915.04
1913.31
1909.67
1923.14
1922.28
1921.15
1919.81
1918.26
1916.5
1914.67
1913.41
1911.93
1905.32
1918.81
1918.13
1917.19
1916.06
1914.74
1913.26
1911.88
1911.32
1910.1
1884.64
1914.59
1913.91
1913
1911.93
1910.71
1909.38
1908.27
1908.07
1906.82
1869.08
1910.14
1909.38
1908.41
1907.27
1905.98
1904.66
1903.69
1903.8
1903.11
1861.21
1905.41
1904.51
1903.27
1901.73
1899.86
1897.68
1895.74
1894.52
1891.71
1844.88
1900.98
1899.85
1898.17
1895.88
1892.86
1888.82
1883.68
1879.01
1870.11
1819.27
1897.66
1896.38
1894.37
1891.49
1887.52
1881.88
1872.39
1861
1847.51
1783.59
1896.17
1894.89
1892.8
1889.75
1885.41
1879.2
1867.24
1827.57
1768.74
1509.68
1896.83
1895.78
1894.06
1891.55
1888.26
1884.24
1873.52
1793.05
1376.17
855.377
1899.01
1898.13
1896.76
1894.96
1893.24
1892.2
1882.72
1711.72
902.173
540.137
1902.14
1900.91
1899.44
1897.9
1897.13
1897.79
1890.28
1628.5
686.837
540.164
1905.68
1903.27
1900.98
1898.95
1897.97
1898.4
1891.09
1606.88
638.427
535.956
1908.62
1904.16
1900.41
1897.25
1895.05
1893.94
1887.19
1707.42
710.131
528.67
1906.58
1900.92
1896.35
1892.52
1889.38
1887.01
1881.79
1819.53
973.315
515.384
1895.35
1891.26
1887.83
1884.8
1882.03
1879.69
1875.95
1855.83
1238.55
495.675
1877.93
1877.16
1876.21
1874.91
1873.19
1871.22
1867.62
1851.71
1398.05
480.96
1859.38
1862.23
1864.44
1865.59
1865.57
1864.48
1860.98
1845.18
1469.01
609.703
1841.16
1848.23
1854.87
1860.09
1863.91
1866.7
1868.16
1861.16
1540.86
629.026
1825
1836.01
1847
1856.51
1864.41
1871.23
1877.33
1878.63
1683.9
602.515
1813.64
1827.23
1841.09
1853.74
1864.58
1873.83
1881.66
1885.54
1813.37
759.135
1807.1
1822.89
1838.06
1852.82
1866.13
1877.92
1888.43
1896.65
1879.3
1033.18
1803.41
1821
1836.23
1851.6
1865.88
1878.69
1890.24
1900.33
1902.68
1235.09
1805.99
1823.03
1836.19
1850.13
1863.52
1875.54
1886.11
1895.12
1898.91
1373.95
1804.79
1824.98
1836.05
1847.57
1859.12
1869.45
1878.16
1885.08
1887.75
1450.02
1797.23
1821.08
1832.36
1842.4
1852.09
1860.27
1866.28
1869.78
1868.95
1475.93
1793.47
1819.41
1829.75
1837.81
1845.35
1851.11
1854.14
1853.75
1847.71
1461.25
1756.89
1821.05
1829.64
1835.28
1840.74
1844.48
1845.27
1842.42
1833.11
1437.51
1540.05
1821.34
1830.09
1834.28
1838.29
1840.64
1839.79
1835.07
1824.24
1414.56
1422.99
1820.53
1830.16
1834.84
1838.88
1841.14
1840.1
1835.38
1826.96
1411.11
1330.45
1821.62
1831.73
1837.79
1842.78
1845.98
1846.34
1844.68
1844.13
1439.38
1269.35
1826.63
1835.97
1842.98
1848.62
1852.43
1854.12
1855.17
1858.77
1463.04
1254.9
1833.84
1842.95
1850.33
1855.78
1859.35
1861.8
1864.46
1869.28
1474.05
1279.11
1844.87
1853.45
1860.49
1864.74
1867.19
1868.86
1869.93
1869.36
1463.29
1370
1859.45
1867.77
1873.03
1875.7
1877.17
1877.89
1878.15
1875.84
1467.03
1464.42
1874.64
1883.54
1886.05
1887.6
1888.38
1888.11
1887.99
1884.86
1555.52
1578.17
1892.03
1899.25
1900.23
1901.29
1901.6
1900.82
1900.43
1897.21
1631.35
1709.57
1917.42
1918.38
1917.54
1916.91
1916.89
1917.49
1918.74
1919
1733.37
1820.7
1949.71
1937.37
1934.77
1931.59
1931.39
1934.48
1937.33
1949.54
1826.48
1934.84
1924.8
1914.34
1903.62
1892.81
1882.1
1871.68
1861.75
1852.49
1844.07
1836.66
1830.15
1824.48
1819.59
1815.49
1812.15
1809.5
1807.47
1805.99
1804.98
1804.37
1804.09
1804.09
1804.32
1804.75
1805.34
1806.08
1806.93
1807.89
1808.93
1810.03
1811.18
1812.35
1813.53
1814.57
1817.55
1818.27
1816.21
1816.9
1817.32
1908.05
1899.72
1891.11
1882.42
1873.81
1865.43
1857.45
1849.99
1843.18
1837.07
1831.69
1827.42
1823.91
1821.1
1818.92
1817.29
1816.11
1815.29
1814.76
1814.46
1814.33
1814.35
1814.48
1814.71
1815.01
1815.39
1815.83
1816.32
1816.86
1817.44
1818.03
1818.61
1819.14
1819.62
1820.32
1821.05
1817.42
1817.46
1816.21
1817.1
1881.3
1875.07
1868.73
1862.42
1856.31
1850.51
1845.14
1840.32
1836.11
1832.56
1829.69
1827.46
1825.8
1824.62
1823.81
1823.3
1823.02
1822.89
1822.87
1822.92
1823
1823.09
1823.18
1823.27
1823.35
1823.42
1823.48
1823.54
1823.59
1823.6
1823.58
1823.5
1823.34
1823.13
1822.97
1822.95
1821.57
1819.47
1818.34
1822.11
1864.74
1859.85
1854.93
1850.11
1845.48
1841.15
1837.23
1833.78
1830.87
1828.54
1826.79
1825.59
1824.88
1824.56
1824.55
1824.73
1825.05
1825.42
1825.8
1826.15
1826.45
1826.67
1826.81
1826.86
1826.84
1826.74
1826.58
1826.36
1826.08
1825.74
1825.35
1824.9
1824.43
1823.96
1823.6
1823.48
1823.82
1825.2
1827.11
1828.91
1855.15
1851.19
1847.2
1843.28
1839.5
1835.93
1832.63
1829.68
1827.16
1825.15
1823.74
1822.92
1822.64
1822.77
1823.2
1823.82
1824.53
1825.26
1825.95
1826.56
1827.06
1827.45
1827.69
1827.79
1827.75
1827.6
1827.34
1826.99
1826.56
1826.05
1825.5
1824.91
1824.34
1823.87
1823.59
1823.7
1824.52
1826.77
1830.9
1833.43
1850.72
1847.48
1844.17
1840.86
1837.55
1834.24
1830.94
1827.71
1824.67
1822.05
1820.13
1819.09
1818.85
1819.21
1819.97
1820.96
1822.04
1823.12
1824.12
1825.02
1825.8
1826.46
1826.94
1827.17
1827.22
1827.13
1826.9
1826.55
1826.1
1825.58
1825.01
1824.44
1823.93
1823.58
1823.49
1823.87
1825.08
1827.78
1832.25
1836.27
1850.51
1847.96
1845.33
1842.57
1839.61
1836.38
1832.87
1829.01
1824.48
1819.5
1815.51
1813.4
1812.95
1813.55
1814.74
1816.22
1817.79
1819.33
1820.76
1822.07
1822.82
1823.5
1824.84
1825.6
1825.86
1825.93
1825.84
1825.6
1825.24
1824.8
1824.34
1823.89
1823.51
1823.31
1823.41
1823.99
1825.38
1828.15
1832.45
1836.48
1853.76
1852.13
1850.46
1848.72
1846.95
1845.39
1843.72
1839.43
1829.12
1815.98
1807.07
1803.79
1803.64
1805.1
1807.26
1809.66
1812.06
1814.33
1816.49
1817.21
1818.3
1819.64
1822.05
1823.61
1824.17
1824.49
1824.62
1824.49
1824.22
1824.01
1823.77
1823.46
1823.22
1823.14
1823.35
1823.99
1825.33
1827.82
1831.52
1834.94
1859.72
1859.42
1859.44
1860.2
1862.61
1866.24
1864.3
1833.37
1767.84
1749.5
1762.94
1780.71
1785.56
1791.45
1796.62
1801.23
1805.2
1808.1
1809.33
1811.93
1813.98
1817.7
1820.27
1821.56
1822.59
1822.96
1822.8
1823.02
1823.44
1823.54
1823.39
1823.21
1823.09
1823.09
1823.31
1823.86
1824.94
1826.89
1829.74
1832.33
1866.63
1867.5
1869.36
1873.42
1878.69
1870.74
1786.54
1651.78
1608.87
1623.36
1685.55
1737.41
1757
1773.16
1784.74
1792.06
1797.25
1801.58
1805.16
1808.08
1811.8
1814.66
1814.29
1815.73
1818.24
1819.93
1821.49
1822.53
1823.13
1823.25
1823.23
1823.17
1823.11
1823.13
1823.27
1823.62
1824.31
1825.55
1827.39
1829.06
1873.1
1874.94
1878.77
1883.64
1874.94
1745.69
1601.34
1591.83
1587.72
1591.74
1682.05
1725.1
1750.25
1768.48
1780.48
1788.26
1793.97
1798.64
1802.83
1807.08
1803.49
1792.76
1795.12
1809.23
1817.05
1819.8
1821.59
1822.54
1822.94
1823.14
1823.24
1823.26
1823.24
1823.21
1823.2
1823.27
1823.48
1823.95
1824.71
1825.42
1878.98
1882.03
1886.92
1883.79
1783.9
1599.89
1581.51
1581.61
1581.16
1609.45
1723.26
1746.92
1763.11
1775.85
1784.09
1789.99
1795.15
1796.73
1774.74
1769.97
1765.89
1770.56
1790.08
1815.21
1818.99
1820.83
1821.74
1822.37
1822.84
1823.16
1823.35
1823.42
1823.39
1823.27
1823.08
1822.82
1822.51
1822.18
1821.87
1821.67
1884.64
1889
1891.96
1864.23
1641.16
1573.52
1572.87
1574.21
1583.34
1717.72
1768.48
1771.39
1779.99
1787.24
1792.8
1772.7
1736.68
1719.76
1726.56
1731.86
1757.8
1791.2
1811.56
1817.73
1819.22
1820.45
1821.43
1822.2
1822.78
1823.2
1823.45
1823.54
1823.47
1823.24
1822.84
1822.24
1821.42
1820.31
1818.99
1817.93
1889.25
1893.31
1888.76
1753.79
1573.71
1563.73
1565.78
1575.01
1697.69
1793.27
1788.45
1759.45
1737.38
1731.86
1715.84
1700.17
1706.21
1710.68
1718.87
1769.88
1802.46
1814.22
1815.83
1817.47
1818.98
1820.22
1821.23
1822.05
1822.69
1823.15
1823.43
1823.52
1823.4
1823.04
1822.42
1821.49
1820.17
1818.35
1816.12
1814.27
1893.18
1895.37
1883.4
1654.56
1561.26
1557.65
1568.91
1687.58
1788.85
1801.6
1718.19
1689.39
1690.66
1691.83
1694.63
1697.67
1705.66
1759.76
1796.84
1811.47
1813.03
1814.65
1816.24
1817.66
1818.92
1820.02
1820.98
1821.79
1822.44
1822.92
1823.2
1823.27
1823.08
1822.59
1821.76
1820.53
1818.77
1816.31
1813.29
1810.78
1896.89
1896.31
1836.6
1595.05
1554.19
1558.49
1672.16
1823.33
1804.92
1711.17
1695.72
1694.8
1693.62
1691.95
1713.67
1759.03
1796.87
1811.16
1812.13
1813.06
1814.19
1815.35
1816.48
1817.58
1818.63
1819.61
1820.5
1821.28
1821.92
1822.39
1822.67
1822.7
1822.45
1821.85
1820.84
1819.34
1817.21
1814.22
1810.55
1807.5
1904.65
1907.07
1821.53
1588.48
1561.78
1581.95
1792.36
1835.61
1784.25
1704.08
1703.78
1698.08
1738.61
1777.87
1806.54
1814.46
1813.83
1813.61
1813.72
1814.07
1814.62
1815.33
1816.14
1817.02
1817.93
1818.81
1819.65
1820.4
1821.03
1821.5
1821.76
1821.77
1821.47
1820.78
1819.63
1817.93
1815.51
1812.1
1807.91
1804.22
1911.87
1918.74
1826.33
1597.6
1579.12
1590.39
1790.01
1827.06
1803.12
1721
1712.95
1784.05
1821.9
1820.01
1817.72
1816.02
1814.8
1814.04
1813.69
1813.69
1813.96
1814.45
1815.1
1815.85
1816.68
1817.53
1818.34
1819.08
1819.71
1820.19
1820.46
1820.47
1820.14
1819.41
1818.18
1816.36
1813.76
1810.08
1804.91
1799.38
1914
1922.12
1836.03
1593.46
1578.54
1573.97
1712.61
1822.21
1828.65
1810.53
1807.57
1824.88
1821.06
1818.44
1816.31
1814.57
1813.31
1812.52
1812.12
1812.06
1812.28
1812.7
1813.3
1814.03
1814.83
1815.69
1816.52
1817.29
1817.96
1818.47
1818.77
1818.8
1818.49
1817.75
1816.5
1814.63
1811.96
1807.98
1800.9
1796.82
1911.22
1918.09
1868.27
1578
1554.28
1538.91
1585.25
1802.74
1824.22
1822.8
1822.74
1819.86
1816.85
1814.49
1812.61
1811.16
1810.14
1809.54
1809.28
1809.32
1809.6
1810.09
1810.74
1811.53
1812.39
1813.3
1814.2
1815.04
1815.77
1816.35
1816.71
1816.8
1816.53
1815.84
1814.61
1812.76
1810.08
1806.12
1799.37
1794.71
1905.78
1911.97
1885.18
1567.6
1516.12
1507.02
1510.3
1736.03
1821.48
1812.74
1813.32
1812.32
1810.38
1808.62
1807.25
1806.24
1805.6
1805.28
1805.27
1805.52
1806.01
1806.68
1807.48
1808.39
1809.38
1810.41
1811.42
1812.36
1813.2
1813.87
1814.33
1814.51
1814.34
1813.73
1812.59
1810.83
1808.24
1804.46
1799.6
1795.64
1896.66
1902.65
1889.69
1626.92
1475.97
1468.87
1462.45
1597.94
1819.41
1805.43
1804.72
1804.31
1802.98
1801.7
1800.77
1800.19
1799.95
1800
1800.31
1800.86
1801.62
1802.54
1803.57
1804.69
1805.87
1807.06
1808.22
1809.31
1810.29
1811.1
1811.7
1812.01
1811.97
1811.5
1810.51
1808.9
1806.48
1802.94
1798.21
1792.96
1883.88
1888.87
1885.6
1746.26
1431.22
1426.44
1413.08
1448.24
1744.65
1804.65
1798.37
1796.43
1795.02
1793.96
1793.37
1793.19
1793.37
1793.84
1794.55
1795.47
1796.58
1797.8
1799.12
1800.51
1801.92
1803.33
1804.69
1805.97
1807.13
1808.12
1808.89
1809.37
1809.51
1809.23
1808.45
1807.08
1804.92
1801.37
1795.33
1791.86
1868.59
1871.31
1869.41
1800.46
1405.72
1378.66
1366.14
1356.77
1500.04
1773.96
1788.14
1785.6
1784.78
1784.47
1784.59
1785.08
1785.86
1786.89
1788.11
1789.51
1791.01
1792.6
1794.26
1795.96
1797.66
1799.33
1800.93
1802.43
1803.81
1805.01
1805.98
1806.68
1807.05
1807.01
1806.49
1805.41
1803.6
1800.43
1795.03
1791.99
1855.07
1856.96
1857.8
1827.63
1509.93
1327.18
1319.54
1309.91
1311.51
1551.26
1764.98
1770.24
1771.57
1772.95
1774.35
1775.88
1777.54
1779.3
1781.16
1783.09
1785.08
1787.1
1789.14
1791.19
1793.2
1795.17
1797.04
1798.8
1800.42
1801.86
1803.07
1804.02
1804.65
1804.89
1804.69
1803.97
1802.59
1800.17
1796.96
1794.52
1840.4
1839.7
1838.96
1827.01
1669.02
1279.33
1281.71
1274.3
1263.32
1286.98
1583.11
1756.23
1759.32
1761.76
1764.08
1766.49
1768.98
1771.49
1773.99
1776.5
1779
1781.48
1783.93
1786.35
1788.7
1790.97
1793.14
1795.18
1797.06
1798.76
1800.24
1801.47
1802.4
1802.97
1803.13
1802.82
1801.93
1800.25
1797.88
1795.54
1827.63
1824.86
1822.1
1814.49
1749.79
1322.02
1248.82
1234.68
1226.55
1219.01
1269.18
1593.28
1746.07
1751.11
1754.23
1757.26
1760.47
1763.69
1766.86
1769.94
1772.96
1775.91
1778.79
1781.58
1784.28
1786.87
1789.34
1791.67
1793.83
1795.81
1797.58
1799.11
1800.37
1801.3
1801.87
1802.01
1801.65
1800.66
1799.02
1796.87
1817.9
1814.22
1811
1806.88
1784.03
1519.3
1196.75
1202.64
1199.53
1192.53
1185.99
1247.13
1567.9
1737.73
1744.49
1748.53
1752.27
1756.13
1759.95
1763.62
1767.16
1770.58
1773.87
1777.03
1780.08
1782.99
1785.75
1788.37
1790.82
1793.09
1795.17
1797.02
1798.63
1799.96
1800.97
1801.61
1801.75
1798.06
1797.61
1799.19
1809.37
1804.6
1799.7
1794.33
1782.53
1678.95
1206.05
1186.48
1175.08
1169.08
1163.82
1159.24
1207.62
1534.48
1730.91
1739.96
1744.98
1749.24
1753.55
1757.76
1761.8
1765.64
1769.32
1772.84
1776.2
1779.42
1782.47
1785.37
1788.11
1790.68
1793.07
1795.27
1797.27
1799.03
1800.54
1801.76
1802.63
1797.96
1797.12
1795.38
1803.59
1798.59
1793.32
1788.11
1781.35
1749.28
1399.9
1149.63
1152.04
1151.25
1147.43
1142.86
1138.49
1170.84
1459.17
1709.63
1737.44
1743.64
1748.3
1752.73
1757.09
1761.29
1765.31
1769.12
1772.77
1776.26
1779.59
1782.76
1785.77
1788.63
1791.34
1793.9
1796.32
1798.57
1800.65
1802.55
1804.24
1803.9
1803.12
1769.17
1799.23
1793.9
1788.09
1781.94
1774.98
1762.24
1625.13
1142.76
1144
1135.29
1131.15
1128.87
1124.85
1120.81
1128.55
1342.97
1655.84
1735.49
1743.94
1748.83
1753.21
1757.61
1761.89
1765.97
1769.86
1773.59
1777.15
1780.57
1783.84
1786.98
1790
1792.93
1795.77
1798.53
1801.22
1803.84
1806.39
1808.98
1807.78
1769.88
1796.82
1791.56
1785.95
1779.97
1773.78
1766.15
1730.71
1328.4
1121.32
1117.62
1119.21
1122.39
1115.79
1110.12
1107.29
1105.86
1221.21
1559.92
1737.88
1746.36
1750.73
1754.9
1759.23
1763.47
1767.54
1771.45
1775.21
1778.83
1782.33
1785.73
1789.05
1792.32
1795.58
1798.85
1802.15
1805.5
1808.95
1812.65
1807.76
1773.63
1795.61
1790.39
1784.86
1778.94
1772.78
1766.26
1757.2
1604.14
1105.89
1108.81
1107.76
1113.64
1113.66
1108.1
1101.06
1098.51
1095.81
1130.74
1416.59
1739.41
1748.51
1752.82
1757.17
1761.54
1765.77
1769.82
1773.75
1777.55
1781.25
1784.87
1788.46
1792.06
1795.73
1799.49
1803.39
1807.48
1811.85
1816.71
1801.48
1777.88
1795.46
1790.25
1784.78
1778.92
1772.65
1765.78
1757.81
1725.07
1308.35
1100.76
1097.55
1099.82
1103.94
1103.68
1101.28
1095.65
1091.57
1089.66
1089.49
1299.64
1694.68
1750.32
1755.02
1759.83
1764.4
1768.68
1772.75
1776.7
1780.57
1784.39
1788.21
1792.11
1796.15
1800.38
1804.88
1809.7
1815.03
1821.12
1795.04
1782.65
1796.29
1791.14
1785.77
1780.07
1774.04
1767.48
1760.13
1753.66
1616.47
1092.86
1090.22
1087.36
1090.99
1097.02
1096.72
1094.5
1092.4
1084.94
1084.11
1082.44
1219.56
1647.49
1754.97
1758.71
1763.57
1768.16
1772.35
1776.37
1780.33
1784.28
1788.28
1792.42
1796.77
1801.44
1806.49
1812.04
1818.31
1825.66
1792.68
1787.93
1797.9
1792.77
1787.44
1781.81
1775.87
1769.45
1761.96
1753.99
1734.27
1348.48
1083.58
1082.72
1080.21
1083.53
1093.33
1092.79
1090.75
1089.15
1080.87
1078.13
1077.19
1173.53
1621.7
1760.31
1763.06
1767.95
1772.49
1776.56
1780.52
1784.52
1788.62
1792.92
1797.52
1802.55
1808.09
1814.3
1821.44
1829.98
1802.39
1793.61
1800.28
1795.19
1789.93
1784.39
1778.6
1772.46
1765.41
1756.91
1751.66
1657.29
1105.35
1077.27
1075.79
1075.05
1078.8
1090.6
1089.88
1087.97
1084.9
1074.86
1073.97
1073.5
1162.36
1634.37
1765.93
1768.01
1772.88
1777.25
1781.18
1785.1
1789.2
1793.57
1798.31
1803.58
1809.5
1816.22
1824.06
1833.46
1826.82
1825.8
1803.34
1798.3
1793.1
1787.66
1782
1776.14
1769.79
1762.09
1753.97
1752.69
1452.92
1072.22
1073.66
1073.37
1072.96
1078.1
1088.88
1087.94
1086.78
1075.09
1072.14
1071.85
1071.68
1195.96
1687.36
1771.25
1773.4
1778.17
1782.29
1786.08
1790.05
1794.37
1799.17
1804.61
1810.83
1818.04
1826.59
1836.91
1848.03
1856.54
1807.03
1802.01
1796.84
1791.43
1785.8
1779.96
1773.83
1766.7
1757.47
1751.16
1711.31
1184.33
1072.73
1072.32
1071.85
1071.71
1078.79
1088.03
1085.7
1073.1
1071.24
1071.06
1070.84
1070.74
1305.36
1753.34
1775.28
1778.65
1783.44
1787.36
1791.13
1795.29
1800.02
1805.49
1811.89
1819.43
1828.54
1839.66
1852.15
1861.55
1811.35
1806.34
1801.18
1795.8
1790.19
1784.39
1778.41
1771.95
1763.74
1753.71
1755.63
1600.53
1072.65
1071.06
1071.02
1070.86
1070.87
1075.92
1075.53
1072.29
1070.71
1070.6
1070.49
1070.43
1070.6
1505.27
1783.37
1779.27
1784.28
1788.83
1792.49
1796.35
1800.86
1806.21
1812.63
1820.35
1829.83
1841.63
1855.11
1865.28
1816.28
1811.25
1806.07
1800.66
1795.04
1789.2
1783.21
1777.03
1770.04
1760.63
1752.09
1756.33
1379.18
1070.18
1070.74
1070.61
1070.47
1070.42
1070.4
1071.07
1070.51
1070.28
1070.25
1070.24
1070.02
1200.78
1712.69
1783.31
1785.25
1790.47
1794.18
1797.61
1801.69
1806.75
1812.99
1820.7
1830.36
1842.61
1856.76
1867.51
1821.84
1816.75
1811.49
1806
1800.27
1794.29
1788.09
1781.72
1775.03
1766.78
1755.54
1751.86
1717.39
1148.73
1070.13
1070.1
1070
1069.95
1069.94
1069.97
1070.06
1069.98
1069.95
1069.92
1069.6
1081.39
1566.5
1792.46
1788.07
1793.06
1796.5
1799.2
1802.59
1807.11
1812.96
1820.42
1829.99
1842.41
1856.81
1867.92
1828.04
1822.89
1817.53
1811.9
1806
1799.8
1793.29
1786.52
1779.54
1771.92
1761.7
1749.14
1757.87
1609.65
1068.47
1069.68
1069.68
1069.52
1069.52
1069.63
1069.7
1069.7
1069.68
1069.65
1069.34
1077.41
1545.9
1802.36
1794.29
1797.54
1799.61
1801.12
1803.51
1807.25
1812.48
1819.44
1828.64
1840.82
1855.08
1866.26
1834.89
1829.7
1824.25
1818.49
1812.38
1805.88
1798.94
1791.52
1783.7
1775.43
1765.64
1751.64
1738.89
1761.42
1312.08
1069.3
1069.56
1069.22
1069.15
1069.46
1069.67
1069.69
1069.6
1069.43
1068.88
1125.85
1639.95
1810.54
1803.25
1803.4
1803.05
1803
1804.26
1807.07
1811.49
1817.75
1826.29
1837.82
1851.51
1862.37
1842.41
1837.25
1831.8
1825.98
1819.74
1813
1805.66
1797.6
1788.75
1779.16
1768.55
1754.94
1735.92
1729
1739.46
1095.71
1067.23
1067.63
1068.08
1068.66
1069.92
1070.13
1069.53
1068.2
1105.93
1478.72
1804.62
1815.33
1810.99
1807.93
1805.37
1804.07
1804.39
1806.33
1809.94
1815.36
1823
1833.51
1846.14
1856.3
1850.55
1845.55
1840.27
1834.59
1828.45
1821.72
1814.24
1805.79
1796.08
1784.93
1772.46
1758.55
1741.15
1721.73
1735.12
1496.02
1054.15
1058.51
1066.65
1119.35
1186.81
1181.14
1183.06
1282.81
1583.25
1824.83
1828.26
1819.41
1813.75
1809.01
1805.63
1803.85
1803.63
1804.94
1807.8
1812.35
1818.93
1828.09
1839.2
1848.29
1859.15
1854.49
1849.59
1844.36
1838.7
1832.44
1825.31
1816.9
1806.56
1793.41
1777.05
1758.79
1740.06
1719.22
1701.26
1640.73
1073.62
1112.21
1381.99
1683.2
1790.48
1771.86
1759.64
1793.39
1835.66
1831.08
1823.2
1816.73
1811.24
1806.98
1804.05
1802.43
1802.06
1802.97
1805.21
1808.89
1814.28
1821.84
1831.07
1838.76
1867.94
1863.79
1859.55
1855.17
1850.58
1845.62
1840.03
1833.58
1825.5
1812.26
1788.54
1758.88
1735.22
1716.69
1698.29
1640.49
1109.62
1265.72
1725.36
1846.13
1850.41
1847.23
1840.97
1833.55
1826.96
1821.39
1816.07
1811.16
1807.05
1803.89
1801.69
1800.42
1800.09
1800.72
1802.4
1805.21
1809.34
1815.13
1822.25
1828.32
1876.47
1872.94
1869.6
1866.54
1863.85
1861.6
1860.34
1861.94
1866.56
1856.18
1779.48
1723.53
1710.21
1704.76
1698.58
1647.3
1160.57
1261.67
1712.47
1808.67
1815.13
1817.33
1817.33
1815.83
1813.42
1810.5
1807.46
1804.66
1802.26
1800.36
1798.99
1798.19
1797.99
1798.45
1799.61
1801.55
1804.39
1808.35
1813.26
1817.58
1883.99
1880.86
1878.17
1876.11
1874.95
1875.2
1878.78
1890.32
1907.36
1643.85
1217.41
1444.62
1674.63
1680.71
1690.76
1573.09
1132.33
1195.09
1747.15
1786.06
1792.64
1796.91
1799.55
1800.76
1800.95
1800.49
1799.7
1798.78
1797.88
1797.09
1796.49
1796.14
1796.09
1796.39
1797.07
1798.17
1799.74
1801.89
1804.59
1807.18
1889.69
1886.3
1883.21
1880.53
1878.54
1878.06
1881.24
1889.8
1813.55
1096.04
873.643
1248.96
1654.22
1663.58
1680.63
1342.36
1110.54
1289.33
1759.75
1769.35
1776.4
1782
1786.35
1789.42
1791.51
1792.87
1793.71
1794.18
1794.41
1794.51
1794.54
1794.56
1794.62
1794.75
1794.96
1795.25
1795.63
1796.1
1796.67
1795.08
1893.67
1889.36
1884.83
1880.08
1875.64
1872.19
1867.67
1851.39
1276.08
852.623
837.173
1350.72
1666.86
1669.03
1515.94
1105.3
1108.57
1627.91
1751.01
1759.4
1766.53
1772.63
1777.74
1781.89
1785.15
1787.67
1789.59
1791.03
1792.09
1792.83
1793.33
1793.62
1793.73
1793.67
1793.42
1792.97
1792.28
1791.26
1789.95
1784.63
1897.14
1892.14
1886.95
1882.25
1878.95
1874.34
1851.3
1494.79
835.746
786.638
877.732
1579.01
1672.72
1544.7
1151.83
1111.17
1425.51
1733.15
1743.44
1752.42
1760.2
1766.83
1772.52
1777.37
1781.35
1784.6
1787.23
1789.32
1790.94
1792.13
1792.94
1793.39
1793.48
1793.19
1792.49
1791.37
1789.71
1787.34
1784.4
1777.48
1899.96
1894.8
1890.35
1885.07
1871.81
1777.5
1341.68
782.337
691.467
717.258
1154.74
1618.61
1595.65
1168.34
1157.73
1363.12
1722.39
1732.49
1741.94
1750.37
1757.79
1764.41
1770.22
1775.34
1779.67
1783.34
1786.4
1788.89
1790.85
1792.33
1793.32
1793.83
1793.83
1793.29
1792.18
1790.43
1787.92
1784.39
1779.59
1771.7
1903.07
1899.49
1893.87
1855.21
1544.64
1022.62
657.058
655.636
655.448
689.597
1297.44
1629.58
1308.63
1182.67
1286.7
1719.29
1726.2
1735.02
1743.42
1751.01
1757.97
1764.31
1770.04
1775.16
1779.62
1783.47
1786.75
1789.47
1791.63
1793.25
1794.32
1794.81
1794.68
1793.89
1792.4
1790.12
1786.89
1782.17
1772.34
1767.3
1909.09
1905.96
1872.22
1316.51
748.336
648.641
648.071
648.403
648.992
651.547
838.024
1368.9
1567.76
1507.46
1641.52
1722.44
1730.2
1738.26
1745.93
1752.99
1759.56
1765.61
1771.2
1776.18
1780.62
1784.51
1787.86
1790.66
1792.91
1794.58
1795.66
1796.09
1795.84
1794.83
1793.01
1790.29
1786.42
1778.34
1769.35
1764.2
1914.86
1897.31
1426.54
694.203
647.363
645.452
646.054
646.688
646.984
646.748
813.908
1532.73
1689.93
1705.62
1718.79
1727.57
1735.22
1742.59
1749.59
1756.09
1762.16
1767.89
1773.12
1777.89
1782.19
1786
1789.31
1792.1
1794.34
1796.01
1797.06
1797.43
1797.07
1795.89
1793.82
1790.76
1786.2
1775.98
1768.05
1763.32
1914.09
1874.11
945.966
648.487
644.14
643.975
644.427
644.916
645.35
645.78
1006.14
1700.98
1702.66
1715.56
1726.37
1734.2
1741.11
1747.69
1753.93
1759.81
1765.34
1770.54
1775.39
1779.87
1783.95
1787.59
1790.78
1793.48
1795.66
1797.28
1798.28
1798.59
1798.14
1796.83
1794.59
1791.29
1786.38
1778.06
1769.54
1765.51
1908.48
1651.21
755.663
643.126
641.634
641.718
642.008
642.492
643.021
664.257
1308.03
1721.58
1718.95
1728.06
1735.83
1741.98
1747.69
1753.23
1758.57
1763.68
1768.57
1773.24
1777.65
1781.79
1785.6
1789.03
1792.06
1794.64
1796.73
1798.27
1799.21
1799.46
1798.94
1797.55
1795.21
1791.77
1786.87
1780.32
1772.1
1765.29
1902.49
1437.08
674.893
637.542
638.17
638.619
638.794
639.037
639.41
714.386
1491.19
1735.25
1733.33
1739.68
1745.07
1749.61
1754.07
1758.56
1763
1767.35
1771.59
1775.71
1779.67
1783.44
1786.95
1790.16
1793.02
1795.46
1797.45
1798.91
1799.78
1799.98
1799.42
1797.99
1795.6
1792.12
1787.27
1780.17
1771.67
1764.91
1894.74
1197.38
641.31
635.456
636.031
635.247
635.262
635.391
635.123
738.027
1545.06
1746.76
1744.12
1748.83
1752.74
1756.07
1759.51
1763.13
1766.81
1770.49
1774.15
1777.77
1781.3
1784.7
1787.92
1790.89
1793.57
1795.87
1797.76
1799.15
1799.97
1800.13
1799.55
1798.11
1795.73
1792.26
1787.4
1780.18
1771.8
1765.08
1813.27
968.693
638.049
634.883
632.395
631.245
631.24
631.284
630.717
732.237
1551.81
1755.98
1751.69
1755.42
1758.44
1760.92
1763.62
1766.61
1769.72
1772.89
1776.09
1779.29
1782.46
1785.53
1788.47
1791.21
1793.7
1795.86
1797.64
1798.95
1799.73
1799.88
1799.3
1797.9
1795.56
1792.15
1787.37
1780.75
1772.85
1766.27
1617.14
796.284
635.786
628.197
629.171
626.527
626.656
626.687
625.692
701.812
1512.14
1763.22
1755.97
1759.26
1761.95
1764
1766.25
1768.83
1771.57
1774.39
1777.28
1780.18
1783.07
1785.89
1788.6
1791.14
1793.46
1795.48
1797.15
1798.39
1799.12
1799.27
1798.72
1797.37
1795.11
1791.82
1787.25
1780.97
1773.31
1766.9
1388.54
682.827
631.631
618.987
623.432
623.327
623.132
622.773
621.274
654.476
1390.69
1767.53
1755.67
1759.56
1762.91
1765.09
1767.27
1769.73
1772.31
1774.96
1777.66
1780.37
1783.07
1785.72
1788.27
1790.66
1792.85
1794.77
1796.36
1797.54
1798.25
1798.4
1797.89
1796.62
1794.48
1791.36
1787
1781
1773.68
1767.57
1210.77
627.251
637.871
657.605
617.362
621.061
621.289
620.52