/*--------------------------------*- C++ -*----------------------------------*\
  =========                 |
  \\      /  F ield         | OpenFOAM: The Open Source CFD Toolbox
   \\    /   O peration     | Website:  https://openfoam.org
    \\  /    A nd           | Version:  8
     \\/     M anipulation  |
\*---------------------------------------------------------------------------*/
FoamFile
{
    version     2.0;
    format      ascii;
    class       surfaceScalarField;
    location    "0.6";
    object      phi;
}
// * * * * * * * * * * * * * * * * * * * * * * * * * * * * * * * * * * * * * //

dimensions      [0 3 -1 0 0 0 0];

internalField   nonuniform List<scalar> 
18095
(
1.58889e-07
-9.64532e-07
8.05643e-07
1.65945e-07
-1.24809e-06
1.24103e-06
1.22749e-07
-1.24246e-06
1.28566e-06
6.56304e-08
-1.26385e-06
1.32097e-06
1.07855e-13
-1.28106e-06
1.34669e-06
-6.56303e-08
-1.28106e-06
1.34669e-06
-1.22749e-07
-1.26385e-06
1.32097e-06
-1.65945e-07
-1.24246e-06
1.28566e-06
-1.58889e-07
-1.24809e-06
1.24103e-06
-9.64532e-07
8.05643e-07
1.11282e-07
-1.07581e-06
9.98679e-08
-1.23668e-06
7.32574e-08
-1.21585e-06
4.0266e-08
-1.23086e-06
7.58543e-14
-1.2408e-06
-4.02658e-08
-1.2408e-06
-7.32573e-08
-1.23086e-06
-9.98678e-08
-1.21585e-06
-1.11282e-07
-1.23668e-06
-1.07581e-06
6.74494e-08
-1.14326e-06
5.31101e-08
-1.22234e-06
4.24161e-08
-1.20516e-06
2.40201e-08
-1.21247e-06
6.67888e-14
-1.21678e-06
-2.402e-08
-1.21678e-06
-4.24159e-08
-1.21247e-06
-5.311e-08
-1.20516e-06
-6.74493e-08
-1.22234e-06
-1.14326e-06
3.98553e-08
-1.18312e-06
2.68445e-08
-1.20933e-06
2.21853e-08
-1.2005e-06
1.26357e-08
-1.20292e-06
3.40223e-14
-1.20414e-06
-1.26357e-08
-1.20414e-06
-2.21853e-08
-1.20292e-06
-2.68444e-08
-1.2005e-06
-3.98552e-08
-1.20933e-06
-1.18312e-06
1.68812e-08
7.55601e-09
7.05741e-09
4.14113e-09
-4.40563e-14
-4.14122e-09
-7.05749e-09
-7.55609e-09
-1.68812e-08
-1.76438e-07
-1.16221e-06
1.33865e-06
-2.20599e-07
-1.21582e-06
1.25998e-06
-1.66281e-07
-1.21293e-06
1.15861e-06
-8.76421e-08
-1.20499e-06
1.12635e-06
1.0678e-12
-1.20405e-06
1.11641e-06
8.76442e-08
-1.20405e-06
1.11641e-06
1.66283e-07
-1.20499e-06
1.12635e-06
2.20601e-07
-1.21293e-06
1.15861e-06
1.7644e-07
-1.21582e-06
1.25998e-06
-1.16221e-06
1.33865e-06
-9.28387e-08
-1.06937e-06
-9.58095e-08
-1.21285e-06
-7.9497e-08
-1.22924e-06
-4.43588e-08
-1.24013e-06
5.77278e-13
-1.24841e-06
4.43599e-08
-1.24841e-06
7.94979e-08
-1.24013e-06
9.58103e-08
-1.22924e-06
9.28391e-08
-1.21285e-06
-1.06937e-06
-5.78915e-08
-1.01148e-06
-5.4984e-08
-1.21575e-06
-4.63185e-08
-1.23791e-06
-2.70023e-08
-1.25945e-06
3.53183e-13
-1.27541e-06
2.7003e-08
-1.27541e-06
4.6319e-08
-1.25945e-06
5.49843e-08
-1.23791e-06
5.78917e-08
-1.21575e-06
-1.01148e-06
-7.47508e-08
-9.36729e-07
-6.17498e-08
-1.22875e-06
-4.82265e-08
-1.25143e-06
-2.75256e-08
-1.28015e-06
2.20127e-13
-1.30294e-06
2.7526e-08
-1.30294e-06
4.82268e-08
-1.28015e-06
6.175e-08
-1.25143e-06
7.47509e-08
-1.22875e-06
-9.36729e-07
-1.31086e-07
-1.18806e-07
-8.45785e-08
-4.37539e-08
1.57237e-13
4.37542e-08
8.45787e-08
1.18806e-07
1.31086e-07
-6.2549e-08
-9.47374e-07
1.00992e-06
-2.09571e-10
-1.3315e-06
1.26916e-06
1.42959e-08
-1.26894e-06
1.25444e-06
7.06392e-09
-1.22767e-06
1.2349e-06
1.12167e-11
-1.22449e-06
1.23155e-06
-7.04148e-09
-1.2245e-06
1.23155e-06
-1.42754e-08
-1.22767e-06
1.23491e-06
2.30629e-10
-1.26894e-06
1.25443e-06
6.25692e-08
-1.3315e-06
1.26916e-06
-9.4741e-07
1.00998e-06
5.03131e-09
-9.52406e-07
1.61135e-08
-1.34258e-06
1.30684e-08
-1.2659e-06
6.60089e-09
-1.2212e-06
7.71539e-12
-1.2179e-06
-6.58609e-09
-1.2179e-06
-1.30556e-08
-1.2212e-06
-1.60991e-08
-1.2659e-06
-5.0169e-09
-1.34258e-06
-9.52427e-07
2.4635e-08
-9.77041e-07
1.78373e-08
-1.33578e-06
1.01729e-08
-1.25823e-06
5.8098e-09
-1.21684e-06
4.57153e-12
-1.2121e-06
-5.80167e-09
-1.2121e-06
-1.01635e-08
-1.21684e-06
-1.78277e-08
-1.25823e-06
-2.46258e-08
-1.33579e-06
-9.77052e-07
7.76844e-08
-1.05473e-06
5.30831e-08
-1.31118e-06
3.44366e-08
-1.23958e-06
2.08197e-08
-1.20322e-06
2.86958e-12
-1.19128e-06
-2.08139e-08
-1.19128e-06
-3.44303e-08
-1.20323e-06
-5.3076e-08
-1.23959e-06
-7.76785e-08
-1.31118e-06
-1.05473e-06
2.83923e-07
2.32717e-07
1.51744e-07
7.48721e-08
1.79317e-12
-7.48685e-08
-1.51741e-07
-2.32714e-07
-2.8392e-07
-1.16036e-06
-2.70797e-07
1.43116e-06
-8.78485e-07
-2.81875e-07
-5.89848e-07
-2.88637e-07
-2.97718e-07
-2.92129e-07
-5.18158e-09
-2.92537e-07
2.87342e-07
-2.92523e-07
5.7949e-07
-2.92148e-07
8.68232e-07
-2.88743e-07
1.15033e-06
-2.82102e-07
-2.71204e-07
1.42154e-06
-8.65167e-07
-4.67589e-07
1.06196e-06
-6.58248e-07
-4.88794e-07
-4.44312e-07
-5.02573e-07
-2.25702e-07
-5.10739e-07
-3.78468e-09
-5.14455e-07
2.18186e-07
-5.14494e-07
4.36911e-07
-5.10873e-07
6.51017e-07
-5.02848e-07
8.58193e-07
-4.89279e-07
-4.68387e-07
1.05538e-06
-6.42339e-07
-6.15761e-07
7.90511e-07
-4.87639e-07
-6.43494e-07
-3.2841e-07
-6.61802e-07
-1.66264e-07
-6.72885e-07
-2.5902e-09
-6.78128e-07
1.61108e-07
-6.78192e-07
3.23324e-07
-6.7309e-07
4.8267e-07
-6.62194e-07
6.37545e-07
-6.44153e-07
-6.16815e-07
7.85974e-07
-4.64756e-07
-7.24079e-07
5.73073e-07
-3.52358e-07
-7.55891e-07
-2.37059e-07
-7.77101e-07
-1.19839e-07
-7.90105e-07
-1.6503e-09
-7.96316e-07
1.16558e-07
-7.964e-07
2.33838e-07
-7.9037e-07
3.49233e-07
-7.77589e-07
4.61757e-07
-7.56677e-07
-7.25292e-07
5.70233e-07
-3.27306e-07
-8.01662e-07
4.04889e-07
-2.47749e-07
-8.35448e-07
-1.66556e-07
-8.58294e-07
-8.41129e-08
-8.72549e-07
-9.82539e-10
-8.79447e-07
8.21677e-08
-8.79551e-07
1.64668e-07
-8.7287e-07
2.45943e-07
-8.58864e-07
3.25591e-07
-8.36325e-07
-8.02949e-07
4.03248e-07
-2.46266e-07
-8.65545e-07
3.10149e-07
-1.84286e-07
-8.97428e-07
-1.22993e-07
-9.19588e-07
-6.18533e-08
-9.33688e-07
-6.91015e-10
-9.40609e-07
6.04736e-08
-9.40715e-07
1.21615e-07
-9.34012e-07
1.82899e-07
-9.20148e-07
2.44843e-07
-8.98269e-07
-8.66726e-07
3.0862e-07
-2.11337e-07
-9.26188e-07
2.7198e-07
-1.55631e-07
-9.53134e-07
-1.02716e-07
-9.72503e-07
-5.13513e-08
-9.85053e-07
-6.71298e-10
-9.91289e-07
4.99916e-08
-9.91378e-07
1.01298e-07
-9.85318e-07
1.54091e-07
-9.72942e-07
2.09579e-07
-9.53757e-07
-9.27038e-07
2.69891e-07
-2.01162e-07
-9.86673e-07
2.61647e-07
-1.46857e-07
-1.00744e-06
-9.63197e-08
-1.02304e-06
-4.80063e-08
-1.03337e-06
-7.39332e-10
-1.03856e-06
4.65134e-08
-1.03863e-06
9.47818e-08
-1.03359e-06
1.45233e-07
-1.02339e-06
1.99363e-07
-1.00789e-06
-9.87083e-07
2.59408e-07
-1.98578e-07
-1.04537e-06
2.57277e-07
-1.45302e-07
-1.06071e-06
-9.54434e-08
-1.0729e-06
-4.76646e-08
-1.08115e-06
-8.97812e-10
-1.08532e-06
4.58524e-08
-1.08538e-06
9.3583e-08
-1.08132e-06
1.43366e-07
-1.07318e-06
1.96542e-07
-1.06106e-06
-1.04569e-06
2.55149e-07
-1.96464e-07
-1.10007e-06
2.51166e-07
-1.44931e-07
-1.11225e-06
-9.56703e-08
-1.12216e-06
-4.79269e-08
-1.12889e-06
-9.64364e-10
-1.13229e-06
4.5981e-08
-1.13233e-06
9.36775e-08
-1.12901e-06
1.4288e-07
-1.12238e-06
1.94397e-07
-1.11258e-06
-1.10052e-06
2.49223e-07
-1.92021e-07
-1.15048e-06
2.42433e-07
-1.42701e-07
-1.16157e-06
-9.45588e-08
-1.1703e-06
-4.74261e-08
-1.17602e-06
-8.52618e-10
-1.17886e-06
4.57133e-08
-1.17889e-06
9.28253e-08
-1.17613e-06
1.4094e-07
-1.17049e-06
1.90246e-07
-1.16189e-06
-1.151e-06
2.40732e-07
-1.85605e-07
-1.19952e-06
2.34635e-07
-1.37935e-07
-1.20924e-06
-9.15403e-08
-1.2167e-06
-4.59246e-08
-1.22164e-06
-7.00399e-10
-1.22408e-06
4.45236e-08
-1.22412e-06
9.01361e-08
-1.22174e-06
1.3651e-07
-1.21687e-06
1.84093e-07
-1.20947e-06
-1.19984e-06
2.32934e-07
-1.77922e-07
-1.24624e-06
2.24642e-07
-1.32405e-07
-1.25476e-06
-8.79266e-08
-1.26117e-06
-4.41075e-08
-1.26546e-06
-6.10236e-10
-1.26758e-06
4.28868e-08
-1.26761e-06
8.67022e-08
-1.26555e-06
1.31163e-07
-1.26133e-06
1.76635e-07
-1.25494e-06
-1.24645e-06
2.23237e-07
-1.69798e-07
-1.29057e-06
2.14135e-07
-1.26501e-07
-1.29805e-06
-8.40777e-08
-1.3036e-06
-4.21912e-08
-1.30734e-06
-5.61414e-10
-1.30921e-06
4.10689e-08
-1.30924e-06
8.29564e-08
-1.30744e-06
1.25378e-07
-1.30375e-06
1.68668e-07
-1.29823e-06
-1.29078e-06
2.13e-07
-1.61362e-07
-1.33263e-06
2.03415e-07
-1.20383e-07
-1.33903e-06
-8.0095e-08
-1.34388e-06
-4.02073e-08
-1.34723e-06
-5.06583e-10
-1.34891e-06
3.91951e-08
-1.34895e-06
7.90891e-08
-1.34733e-06
1.19397e-07
-1.34406e-06
1.60417e-07
-1.33925e-06
-1.33281e-06
2.0245e-07
-1.52851e-07
-1.37218e-06
1.92409e-07
-1.14285e-07
-1.3776e-06
-7.61227e-08
-1.38205e-06
-3.81963e-08
-1.38516e-06
-3.99109e-10
-1.38671e-06
3.73951e-08
-1.38674e-06
7.53174e-08
-1.38526e-06
1.13499e-07
-1.38224e-06
1.52139e-07
-1.37789e-06
-1.37244e-06
1.91769e-07
-1.44715e-07
-1.40925e-06
1.81782e-07
-1.08238e-07
-1.41408e-06
-7.20584e-08
-1.41823e-06
-3.60917e-08
-1.42112e-06
-2.34944e-10
-1.42256e-06
3.56207e-08
-1.4226e-06
7.15796e-08
-1.42122e-06
1.07719e-07
-1.41838e-06
1.44127e-07
-1.4143e-06
-1.40953e-06
1.81218e-07
-1.36896e-07
-1.4442e-06
1.71851e-07
-1.02264e-07
-1.44871e-06
-6.79972e-08
-1.45249e-06
-3.39948e-08
-1.45513e-06
-1.09977e-10
-1.45645e-06
3.37698e-08
-1.45647e-06
6.77567e-08
-1.4552e-06
1.02003e-07
-1.45263e-06
1.3661e-07
-1.44891e-06
-1.44447e-06
1.71545e-07
-1.28946e-07
-1.4771e-06
1.61841e-07
-9.63494e-08
-1.4813e-06
-6.40515e-08
-1.48479e-06
-3.19751e-08
-1.4872e-06
-8.93991e-12
-1.48842e-06
3.19527e-08
-1.48844e-06
6.40157e-08
-1.48727e-06
9.62903e-08
-1.4849e-06
1.28855e-07
-1.48147e-06
-1.47731e-06
1.617e-07
-1.21213e-07
-1.50802e-06
1.52132e-07
-9.0573e-08
-1.51194e-06
-6.01946e-08
-1.51517e-06
-3.00139e-08
-1.51738e-06
6.84896e-11
-1.5185e-06
3.0146e-08
-1.51851e-06
6.03115e-08
-1.51743e-06
9.0662e-08
-1.51525e-06
1.21259e-07
-1.51207e-06
-1.50817e-06
1.52118e-07
-1.13723e-07
-1.53703e-06
1.4273e-07
-8.49623e-08
-1.54071e-06
-5.64498e-08
-1.54368e-06
-2.81216e-08
-1.54571e-06
1.15345e-10
-1.54673e-06
2.83473e-08
-1.54675e-06
5.66599e-08
-1.54574e-06
8.5144e-08
-1.54374e-06
1.13862e-07
-1.54078e-06
-1.53712e-06
1.42815e-07
-1.06451e-07
-1.56416e-06
1.33585e-07
-7.95231e-08
-1.56763e-06
-5.28265e-08
-1.57038e-06
-2.6301e-08
-1.57224e-06
1.39576e-10
-1.57318e-06
2.65755e-08
-1.57318e-06
5.30868e-08
-1.57226e-06
7.97585e-08
-1.57041e-06
1.0665e-07
-1.56768e-06
-1.56422e-06
1.33742e-07
-9.93861e-08
-1.58947e-06
1.24691e-07
-7.42452e-08
-1.59277e-06
-4.93166e-08
-1.59531e-06
-2.45447e-08
-1.59701e-06
1.4886e-10
-1.59787e-06
2.48385e-08
-1.59787e-06
4.95985e-08
-1.59702e-06
7.45073e-08
-1.59532e-06
9.96209e-08
-1.59279e-06
-1.58949e-06
1.249e-07
-9.25203e-08
-1.61299e-06
1.1604e-07
-6.91198e-08
-1.61617e-06
-4.59112e-08
-1.61852e-06
-2.28443e-08
-1.62008e-06
1.51295e-10
-1.62086e-06
2.31438e-08
-1.62086e-06
4.62013e-08
-1.62007e-06
6.93952e-08
-1.61851e-06
9.27768e-08
-1.61617e-06
-1.613e-06
1.16286e-07
-8.58509e-08
-1.63478e-06
1.07643e-07
-6.41404e-08
-1.63789e-06
-4.26026e-08
-1.64005e-06
-2.11926e-08
-1.64149e-06
1.52689e-10
-1.64221e-06
2.14957e-08
-1.64221e-06
4.28987e-08
-1.64148e-06
6.44255e-08
-1.64004e-06
8.6122e-08
-1.63787e-06
-1.63479e-06
1.07909e-07
-7.93792e-08
-1.65492e-06
9.95222e-08
-5.93032e-08
-1.65796e-06
-3.93866e-08
-1.65997e-06
-1.95866e-08
-1.66129e-06
1.54597e-10
-1.66195e-06
1.98945e-08
-1.66195e-06
3.96902e-08
-1.66127e-06
5.9599e-08
-1.65995e-06
7.96618e-08
-1.65793e-06
-1.65492e-06
9.97878e-08
-7.31089e-08
-1.67351e-06
9.16948e-08
-5.46103e-08
-1.67646e-06
-3.62655e-08
-1.67832e-06
-1.80287e-08
-1.67952e-06
1.54279e-10
-1.68013e-06
1.83373e-08
-1.68013e-06
3.65734e-08
-1.67951e-06
5.49147e-08
-1.67829e-06
7.34008e-08
-1.67642e-06
-1.67346e-06
9.1946e-08
-6.704e-08
-1.69061e-06
8.41403e-08
-5.00685e-08
-1.69343e-06
-3.32465e-08
-1.69514e-06
-1.65243e-08
-1.69624e-06
1.49396e-10
-1.69681e-06
1.68245e-08
-1.6968e-06
3.35503e-08
-1.69623e-06
5.03761e-08
-1.69511e-06
6.73439e-08
-1.69338e-06
-1.69052e-06
8.43971e-08
-6.11697e-08
-1.70622e-06
7.67783e-08
-4.5686e-08
-1.70892e-06
-3.03357e-08
-1.71049e-06
-1.50735e-08
-1.71151e-06
1.45674e-10
-1.71203e-06
1.53667e-08
-1.71203e-06
3.06349e-08
-1.7115e-06
4.59967e-08
-1.71047e-06
6.14983e-08
-1.70889e-06
-1.70614e-06
7.71231e-08
-5.549e-08
-1.72028e-06
6.95577e-08
-4.14516e-08
-1.72295e-06
-2.75178e-08
-1.72442e-06
-1.36587e-08
-1.72537e-06
1.6298e-10
-1.72585e-06
1.39862e-08
-1.72585e-06
2.78512e-08
-1.72537e-06
4.17994e-08
-1.72442e-06
5.58737e-08
-1.72296e-06
-1.72034e-06
7.0074e-08
-5.00025e-08
-1.73293e-06
6.26516e-08
-3.73429e-08
-1.73561e-06
-2.47716e-08
-1.73699e-06
-1.2264e-08
-1.73787e-06
2.11911e-10
-1.73832e-06
1.26901e-08
-1.73833e-06
2.52052e-08
-1.73788e-06
3.77908e-08
-1.73701e-06
5.04757e-08
-1.73565e-06
-1.73307e-06
6.3201e-08
-4.47333e-08
-1.74431e-06
5.61155e-08
-3.338e-08
-1.74697e-06
-2.21175e-08
-1.74825e-06
-1.09112e-08
-1.74908e-06
2.68715e-10
-1.7495e-06
1.14515e-08
-1.74951e-06
2.26663e-08
-1.7491e-06
3.39409e-08
-1.74828e-06
4.52963e-08
-1.747e-06
-1.74441e-06
5.66421e-08
-3.96833e-08
-1.75444e-06
4.9809e-08
-2.95924e-08
-1.75706e-06
-1.95841e-08
-1.75826e-06
-9.6224e-09
-1.75904e-06
3.17133e-10
-1.75944e-06
1.02579e-08
-1.75945e-06
2.02247e-08
-1.75906e-06
3.02428e-08
-1.7583e-06
4.03411e-08
-1.7571e-06
-1.75454e-06
5.04668e-08
-3.48763e-08
-1.76334e-06
4.37709e-08
-2.59945e-08
-1.76594e-06
-1.71705e-08
-1.76709e-06
-8.39111e-09
-1.76782e-06
3.64605e-10
-1.7682e-06
9.11986e-09
-1.76821e-06
1.78959e-08
-1.76784e-06
2.67142e-08
-1.76712e-06
3.56042e-08
-1.76599e-06
-1.76346e-06
4.45253e-08
-3.0292e-08
-1.77107e-06
3.80315e-08
-2.25555e-08
-1.77368e-06
-1.48673e-08
-1.77478e-06
-7.22023e-09
-1.77547e-06
4.04566e-10
-1.77582e-06
8.02839e-09
-1.77583e-06
1.5673e-08
-1.77548e-06
2.33576e-08
-1.7748e-06
3.10954e-08
-1.77373e-06
-1.77122e-06
3.88618e-08
-2.5919e-08
-1.77774e-06
3.25872e-08
-1.92704e-08
-1.78032e-06
-1.2669e-08
-1.78138e-06
-6.10449e-09
-1.78203e-06
4.40271e-10
-1.78237e-06
6.98442e-09
-1.78237e-06
1.35473e-08
-1.78205e-06
2.01463e-08
-1.7814e-06
2.67911e-08
-1.78037e-06
-1.7779e-06
3.34636e-08
-2.17602e-08
-1.78339e-06
2.74098e-08
-1.61473e-08
-1.78594e-06
-1.05805e-08
-1.78694e-06
-5.04764e-09
-1.78756e-06
4.67191e-10
-1.78788e-06
5.98143e-09
-1.78789e-06
1.15123e-08
-1.78758e-06
1.7075e-08
-1.78697e-06
2.26795e-08
-1.78598e-06
-1.78353e-06
2.83091e-08
-1.78083e-08
-1.78806e-06
2.24795e-08
-1.31832e-08
-1.79056e-06
-8.6015e-09
-1.79153e-06
-4.05098e-09
-1.79212e-06
4.82984e-10
-1.79242e-06
5.01625e-09
-1.79242e-06
9.56448e-09
-1.79213e-06
1.41417e-08
-1.79154e-06
1.87589e-08
-1.79059e-06
-1.78818e-06
2.34126e-08
-1.4056e-08
-1.7918e-06
1.77934e-08
-1.03706e-08
-1.79425e-06
-6.72584e-09
-1.79517e-06
-3.10963e-09
-1.79573e-06
4.91502e-10
-1.79602e-06
4.09199e-09
-1.79602e-06
7.70619e-09
-1.79574e-06
1.13472e-08
-1.79518e-06
1.50263e-08
-1.79427e-06
-1.79191e-06
1.87515e-08
-1.04924e-08
-1.79465e-06
1.33391e-08
-7.70156e-09
-1.79704e-06
-4.94742e-09
-1.79792e-06
-2.21882e-09
-1.79846e-06
4.96284e-10
-1.79873e-06
3.21093e-09
-1.79874e-06
5.93822e-09
-1.79847e-06
8.69033e-09
-1.79794e-06
1.14783e-08
-1.79706e-06
-1.79474e-06
1.43172e-08
-7.1153e-09
-1.79665e-06
9.11432e-09
-5.17181e-09
-1.79898e-06
-3.26201e-09
-1.79983e-06
-1.37526e-09
-1.80035e-06
4.99437e-10
-1.80061e-06
2.37386e-09
-1.80061e-06
4.25981e-09
-1.80035e-06
6.1683e-09
-1.79984e-06
8.10975e-09
-1.799e-06
-1.79674e-06
1.01046e-08
-3.91721e-09
-1.79784e-06
5.11299e-09
-2.77669e-09
-1.80012e-06
-1.6665e-09
-1.80094e-06
-5.76936e-10
-1.80144e-06
5.01925e-10
-1.80169e-06
1.58065e-09
-1.80169e-06
2.66986e-09
-1.80144e-06
3.77962e-09
-1.80095e-06
4.91956e-09
-1.80014e-06
-1.79793e-06
6.11194e-09
-8.94844e-10
-1.79828e-06
1.3287e-09
-5.13362e-10
-1.8005e-06
-1.58896e-10
-1.8013e-06
1.77241e-10
-1.80177e-06
5.03879e-10
-1.80201e-06
8.30446e-10
-1.80202e-06
1.16646e-09
-1.80178e-06
1.52094e-09
-1.80131e-06
1.90285e-09
-1.80052e-06
-1.79837e-06
2.33687e-09
1.95475e-09
-1.79799e-06
-2.23826e-09
1.62083e-09
-1.80017e-06
1.26278e-09
-1.80094e-06
8.88331e-10
-1.8014e-06
5.05377e-10
-1.80163e-06
1.22332e-10
-1.80163e-06
-2.52344e-10
-1.8014e-06
-6.106e-10
-1.80095e-06
-9.44433e-10
-1.80019e-06
-1.79808e-06
-1.22846e-09
4.63531e-09
-1.79704e-06
-5.59121e-09
3.62883e-09
-1.79916e-06
2.60042e-09
-1.79991e-06
1.55718e-09
-1.80035e-06
5.06208e-10
-1.80058e-06
-5.44928e-10
-1.80058e-06
-1.58862e-09
-1.80036e-06
-2.61772e-09
-1.79992e-06
-3.62526e-09
-1.79918e-06
-1.79712e-06
-4.58534e-09
7.15129e-09
-1.79545e-06
-8.73548e-09
5.51414e-09
-1.79753e-06
3.85638e-09
-1.79825e-06
2.18485e-09
-1.79868e-06
5.06139e-10
-1.7989e-06
-1.17281e-09
-1.7989e-06
-2.84506e-09
-1.79869e-06
-4.50408e-09
-1.79826e-06
-6.14342e-09
-1.79754e-06
-1.79553e-06
-7.73469e-09
9.50858e-09
-1.79328e-06
-1.16769e-08
7.28121e-09
-1.7953e-06
5.03344e-09
-1.79601e-06
2.77255e-09
-1.79642e-06
5.04881e-10
-1.79663e-06
-1.76305e-09
-1.79664e-06
-4.02477e-09
-1.79643e-06
-6.27418e-09
-1.79601e-06
-8.50491e-09
-1.79531e-06
-1.79335e-06
-1.06849e-08
1.17155e-08
-1.79057e-06
-1.44295e-08
8.93538e-09
-1.79252e-06
6.13483e-09
-1.79321e-06
3.32181e-09
-1.79361e-06
5.02418e-10
-1.79381e-06
-2.31717e-09
-1.79382e-06
-5.13086e-09
-1.79361e-06
-7.9328e-09
-1.79321e-06
-1.07162e-08
-1.79253e-06
-1.79062e-06
-1.34433e-08
1.37821e-08
-1.78734e-06
-1.70159e-08
1.04827e-08
-1.78922e-06
7.16438e-09
-1.78989e-06
3.83459e-09
-1.79028e-06
4.99009e-10
-1.79048e-06
-2.83664e-09
-1.79048e-06
-6.16663e-09
-1.79028e-06
-9.48537e-09
-1.78989e-06
-1.27857e-08
-1.78923e-06
-1.78738e-06
-1.60248e-08
1.57137e-08
-1.78361e-06
-1.9439e-08
1.19279e-08
-1.78543e-06
8.12545e-09
-1.78609e-06
4.31274e-09
-1.78647e-06
4.94879e-10
-1.78666e-06
-3.32292e-09
-1.78666e-06
-7.13539e-09
-1.78647e-06
-1.09373e-08
-1.78609e-06
-1.47216e-08
-1.78544e-06
-1.78366e-06
-1.84438e-08
1.75126e-08
-1.77943e-06
-2.16909e-08
1.32743e-08
-1.7812e-06
9.02052e-09
-1.78183e-06
4.75751e-09
-1.7822e-06
4.89875e-10
-1.78239e-06
-3.77764e-09
-1.7824e-06
-8.04024e-09
-1.78221e-06
-1.22932e-08
-1.78184e-06
-1.653e-08
-1.78121e-06
-1.77949e-06
-2.07059e-08
1.9185e-08
-1.77483e-06
-2.3785e-08
1.45256e-08
-1.77654e-06
9.85197e-09
-1.77716e-06
5.16993e-09
-1.77752e-06
4.83705e-10
-1.77771e-06
-4.20241e-09
-1.77771e-06
-8.88413e-09
-1.77753e-06
-1.35573e-08
-1.77716e-06
-1.82164e-08
-1.77655e-06
-1.77488e-06
-2.2819e-08
2.07378e-08
-1.76984e-06
-2.57342e-08
1.56865e-08
-1.77148e-06
1.06227e-08
-1.77209e-06
5.55142e-09
-1.77245e-06
4.76366e-10
-1.77263e-06
-4.59862e-09
-1.77263e-06
-9.6697e-09
-1.77245e-06
-1.47333e-08
-1.7721e-06
-1.97847e-08
-1.7715e-06
-1.76988e-06
-2.47855e-08
2.21753e-08
-1.76447e-06
-2.75373e-08
1.67614e-08
-1.76607e-06
1.13362e-08
-1.76667e-06
5.90405e-09
-1.76702e-06
4.68364e-10
-1.7672e-06
-4.9673e-09
-1.7672e-06
-1.03993e-08
-1.76702e-06
-1.58243e-08
-1.76668e-06
-2.12376e-08
-1.76608e-06
-1.76452e-06
-2.65998e-08
2.35026e-08
-1.75878e-06
-2.91934e-08
1.77554e-08
-1.76032e-06
1.19961e-08
-1.76091e-06
6.22997e-09
-1.76125e-06
4.60161e-10
-1.76143e-06
-5.30973e-09
-1.76143e-06
-1.10761e-08
-1.76126e-06
-1.68355e-08
-1.76092e-06
-2.25824e-08
-1.76034e-06
-1.75883e-06
-2.8273e-08
2.47296e-08
-1.75279e-06
-3.07213e-08
1.86749e-08
-1.75427e-06
1.26067e-08
-1.75484e-06
6.53117e-09
-1.75518e-06
4.51845e-10
-1.75535e-06
-5.62773e-09
-1.75535e-06
-1.17039e-08
-1.75518e-06
-1.77732e-08
-1.75485e-06
-2.38294e-08
-1.75428e-06
-1.75283e-06
-2.98261e-08
2.58672e-08
-1.74652e-06
-3.21426e-08
1.95265e-08
-1.74793e-06
1.31717e-08
-1.74849e-06
6.80949e-09
-1.74881e-06
4.43215e-10
-1.74898e-06
-5.92349e-09
-1.74898e-06
-1.2287e-08
-1.74882e-06
-1.8644e-08
-1.74849e-06
-2.4988e-08
-1.74794e-06
-1.74655e-06
-3.1272e-08
2.69228e-08
-1.73997e-06
-3.3465e-08
2.03159e-08
-1.74132e-06
1.36949e-08
-1.74187e-06
7.06651e-09
-1.74219e-06
4.33932e-10
-1.74235e-06
-6.19928e-09
-1.74235e-06
-1.28296e-08
-1.74219e-06
-1.94538e-08
-1.74187e-06
-2.60653e-08
-1.74132e-06
-1.74e-06
-3.26175e-08
2.7902e-08
-1.73318e-06
-3.46925e-08
2.10477e-08
-1.73447e-06
1.41793e-08
-1.735e-06
7.30355e-09
-1.73531e-06
4.23556e-10
-1.73547e-06
-6.45726e-09
-1.73547e-06
-1.33355e-08
-1.73531e-06
-2.0208e-08
-1.73499e-06
-2.70683e-08
-1.73446e-06
-1.7332e-06
-3.38698e-08
2.88101e-08
-1.72616e-06
-3.58315e-08
2.17257e-08
-1.72738e-06
1.46272e-08
-1.7279e-06
7.52139e-09
-1.7282e-06
4.11314e-10
-1.72836e-06
-6.69975e-09
-1.72836e-06
-1.38085e-08
-1.7282e-06
-2.0912e-08
-1.72789e-06
-2.80037e-08
-1.72737e-06
-1.72616e-06
-3.5038e-08
2.96522e-08
-1.71892e-06
-3.68898e-08
2.23533e-08
-1.72008e-06
1.50404e-08
-1.72059e-06
7.7204e-09
-1.72088e-06
3.96126e-10
-1.72103e-06
-6.92925e-09
-1.72103e-06
-1.42526e-08
-1.72088e-06
-2.15711e-08
-1.72057e-06
-2.88786e-08
-1.72006e-06
-1.71891e-06
-3.61307e-08
3.04333e-08
-1.71148e-06
-3.78739e-08
2.29337e-08
-1.71258e-06
1.54207e-08
-1.71307e-06
7.90086e-09
-1.71336e-06
3.76871e-10
-1.71351e-06
-7.14826e-09
-1.71351e-06
-1.46716e-08
-1.71335e-06
-2.21905e-08
-1.71305e-06
-2.9699e-08
-1.71256e-06
-1.71145e-06
-3.71542e-08
3.11575e-08
-1.70385e-06
-3.87894e-08
2.34701e-08
-1.7049e-06
1.57699e-08
-1.70537e-06
8.06325e-09
-1.70566e-06
3.52646e-10
-1.7058e-06
-7.35906e-09
-1.70579e-06
-1.50691e-08
-1.70564e-06
-2.2775e-08
-1.70535e-06
-3.04709e-08
-1.70486e-06
-1.70381e-06
-3.81154e-08
3.18295e-08
-1.69604e-06
-3.96402e-08
2.3966e-08
-1.69703e-06
1.60903e-08
-1.6975e-06
8.20851e-09
-1.69778e-06
3.22894e-10
-1.69791e-06
-7.56372e-09
-1.69791e-06
-1.54486e-08
-1.69776e-06
-2.33295e-08
-1.69747e-06
-3.12005e-08
-1.69699e-06
-1.69599e-06
-3.90215e-08
3.24542e-08
-1.68806e-06
-4.04319e-08
2.44258e-08
-1.68901e-06
1.63849e-08
-1.68946e-06
8.33806e-09
-1.68973e-06
2.87491e-10
-1.68986e-06
-7.76395e-09
-1.68986e-06
-1.58135e-08
-1.68971e-06
-2.38588e-08
-1.68942e-06
-3.18937e-08
-1.68895e-06
-1.688e-06
-3.988e-08
3.30382e-08
-1.67993e-06
-4.1172e-08
2.48546e-08
-1.68082e-06
1.66577e-08
-1.68126e-06
8.45422e-09
-1.68153e-06
2.46883e-10
-1.68166e-06
-7.96115e-09
-1.68165e-06
-1.61667e-08
-1.6815e-06
-2.43672e-08
-1.68122e-06
-3.25559e-08
-1.68077e-06
-1.67986e-06
-4.06969e-08
3.35878e-08
-1.67165e-06
-4.1865e-08
2.52585e-08
-1.67249e-06
1.69129e-08
-1.67291e-06
8.55961e-09
-1.67317e-06
2.02365e-10
-1.6733e-06
-8.15539e-09
-1.67329e-06
-1.65102e-08
-1.67315e-06
-2.48582e-08
-1.67287e-06
-3.31908e-08
-1.67243e-06
-1.67158e-06
-4.14729e-08
3.41068e-08
-1.66326e-06
-4.25009e-08
2.56402e-08
-1.66403e-06
1.71507e-08
-1.66442e-06
8.65435e-09
-1.66468e-06
1.56186e-10
-1.6648e-06
-8.34223e-09
-1.66479e-06
-1.68394e-08
-1.66465e-06
-2.53304e-08
-1.66438e-06
-3.37983e-08
-1.66397e-06
-1.66319e-06
-4.2192e-08
3.46055e-08
-1.65475e-06
-4.31118e-08
2.59819e-08
-1.6554e-06
1.73503e-08
-1.65579e-06
8.72735e-09
-1.65605e-06
1.11208e-10
-1.65618e-06
-8.5044e-09
-1.65618e-06
-1.71262e-08
-1.65603e-06
-2.57578e-08
-1.65575e-06
-3.43844e-08
-1.65534e-06
-1.65468e-06
-4.28917e-08
3.50643e-08
-1.64568e-06
-4.41334e-08
2.62301e-08
-1.64657e-06
1.74792e-08
-1.64704e-06
8.76482e-09
-1.64734e-06
6.56045e-11
-1.64749e-06
-8.63164e-09
-1.64748e-06
-1.73405e-08
-1.64732e-06
-2.60851e-08
-1.647e-06
-3.49238e-08
-1.6465e-06
-1.64554e-06
-4.40622e-08
3.54559e-08
-1.63637e-06
-4.47672e-08
2.65014e-08
-1.63761e-06
1.76445e-08
-1.63818e-06
8.82407e-09
-1.63852e-06
1.71497e-11
-1.63868e-06
-8.78801e-09
-1.63867e-06
-1.76025e-08
-1.63851e-06
-2.64462e-08
-1.63816e-06
-3.53708e-08
-1.63758e-06
-1.6363e-06
-4.461e-08
3.57996e-08
-1.62756e-06
-4.46129e-08
2.68547e-08
-1.62867e-06
1.78949e-08
-1.62922e-06
8.94071e-09
-1.62956e-06
-8.05751e-12
-1.62973e-06
-8.95524e-09
-1.62973e-06
-1.79037e-08
-1.62956e-06
-2.68501e-08
-1.62921e-06
-3.57647e-08
-1.62866e-06
-1.62758e-06
-4.44868e-08
3.61715e-08
-1.61869e-06
-4.50391e-08
2.71597e-08
-1.61966e-06
1.81126e-08
-1.62018e-06
9.05636e-09
-1.62051e-06
-8.91828e-13
-1.62067e-06
-9.05591e-09
-1.62067e-06
-1.81051e-08
-1.62051e-06
-2.71399e-08
-1.62018e-06
-3.61348e-08
-1.61967e-06
-1.61872e-06
-4.49942e-08
3.65451e-08
-1.60963e-06
-4.56065e-08
2.74278e-08
-1.61054e-06
1.82946e-08
-1.61104e-06
9.15546e-09
-1.61137e-06
1.46505e-11
-1.61153e-06
-9.12441e-09
-1.61153e-06
-1.82585e-08
-1.61137e-06
-2.73844e-08
-1.61105e-06
-3.64945e-08
-1.61056e-06
-1.60966e-06
-4.55562e-08
3.69571e-08
-1.60043e-06
-4.61607e-08
2.77273e-08
-1.60131e-06
1.84948e-08
-1.60181e-06
9.2627e-09
-1.60214e-06
3.0817e-11
-1.6023e-06
-9.20009e-09
-1.6023e-06
-1.84295e-08
-1.60214e-06
-2.76581e-08
-1.60183e-06
-3.68841e-08
-1.60133e-06
-1.60046e-06
-4.60862e-08
3.74063e-08
-1.5911e-06
-4.67333e-08
2.8062e-08
-1.59197e-06
1.87203e-08
-1.59247e-06
9.38266e-09
-1.5928e-06
4.68982e-11
-1.59296e-06
-9.28838e-09
-1.59297e-06
-1.86247e-08
-1.59281e-06
-2.79644e-08
-1.59249e-06
-3.73064e-08
-1.59199e-06
-1.59113e-06
-4.66313e-08
3.78942e-08
-1.58165e-06
-4.73481e-08
2.84283e-08
-1.5825e-06
1.89679e-08
-1.58301e-06
9.51377e-09
-1.58335e-06
6.26659e-11
-1.58351e-06
-9.38824e-09
-1.58352e-06
-1.88418e-08
-1.58335e-06
-2.83014e-08
-1.58303e-06
-3.77665e-08
-1.58252e-06
-1.58168e-06
-4.72197e-08
3.84257e-08
-1.57205e-06
-4.80162e-08
2.88274e-08
-1.5729e-06
1.92375e-08
-1.57342e-06
9.65572e-09
-1.57376e-06
7.79172e-11
-1.57394e-06
-9.49986e-09
-1.57394e-06
-1.90816e-08
-1.57377e-06
-2.86716e-08
-1.57344e-06
-3.82704e-08
-1.57292e-06
-1.57208e-06
-4.78628e-08
3.90089e-08
-1.56231e-06
-4.87505e-08
2.92646e-08
-1.56316e-06
1.95319e-08
-1.56369e-06
9.8095e-09
-1.56404e-06
9.21787e-11
-1.56422e-06
-9.62523e-09
-1.56422e-06
-1.93479e-08
-1.56405e-06
-2.90813e-08
-1.5637e-06
-3.88268e-08
-1.56318e-06
-1.56234e-06
-4.85713e-08
3.96536e-08
-1.5524e-06
-4.9564e-08
2.97467e-08
-1.55325e-06
1.98553e-08
-1.5538e-06
9.97694e-09
-1.55416e-06
1.04909e-10
-1.55435e-06
-9.76728e-09
-1.55435e-06
-1.96462e-08
-1.55417e-06
-2.95385e-08
-1.55381e-06
-3.94468e-08
-1.55327e-06
-1.55243e-06
-4.93594e-08
4.03717e-08
-1.5423e-06
-5.0471e-08
3.02825e-08
-1.54316e-06
2.02135e-08
-1.54373e-06
1.01607e-08
-1.54411e-06
1.15822e-10
-1.5443e-06
-9.92922e-09
-1.5443e-06
-1.99826e-08
-1.54412e-06
-3.00527e-08
-1.54374e-06
-4.01434e-08
-1.54318e-06
-1.54233e-06
-5.02444e-08
4.11778e-08
-1.53199e-06
-5.149e-08
3.08827e-08
-1.53287e-06
2.06133e-08
-1.53346e-06
1.03641e-08
-1.53386e-06
1.24907e-10
-1.53406e-06
-1.01146e-08
-1.53406e-06
-2.03644e-08
-1.53387e-06
-3.06349e-08
-1.53347e-06
-4.09316e-08
-1.53288e-06
-1.53201e-06
-5.12458e-08
4.20891e-08
-1.52144e-06
-5.26439e-08
3.15599e-08
-1.52234e-06
2.10632e-08
-1.52296e-06
1.05915e-08
-1.52339e-06
1.32324e-10
-1.5236e-06
-1.03271e-08
-1.5236e-06
-2.07995e-08
-1.5234e-06
-3.12974e-08
-1.52297e-06
-4.18284e-08
-1.52235e-06
-1.52146e-06
-5.23856e-08
4.31264e-08
-1.5106e-06
-5.39598e-08
3.23291e-08
-1.51154e-06
2.15729e-08
-1.5122e-06
1.08478e-08
-1.51266e-06
1.38306e-10
-1.51289e-06
-1.05715e-08
-1.5129e-06
-2.12973e-08
-1.51267e-06
-3.20549e-08
-1.51221e-06
-4.28541e-08
-1.51155e-06
-1.51062e-06
-5.36899e-08
4.43148e-08
-1.49945e-06
-5.547e-08
3.32085e-08
-1.50043e-06
2.21541e-08
-1.50115e-06
1.11388e-08
-1.50165e-06
1.43092e-10
-1.5019e-06
-1.08529e-08
-1.5019e-06
-2.18691e-08
-1.50165e-06
-3.2925e-08
-1.50116e-06
-4.40334e-08
-1.50044e-06
-1.49946e-06
-5.51911e-08
4.56851e-08
-1.48792e-06
-5.72151e-08
3.42199e-08
-1.48897e-06
2.28208e-08
-1.48975e-06
1.14712e-08
-1.4903e-06
1.46795e-10
-1.49057e-06
-1.1178e-08
-1.49057e-06
-2.25286e-08
-1.4903e-06
-3.39294e-08
-1.48976e-06
-4.5397e-08
-1.48898e-06
-1.48793e-06
-5.693e-08
4.72755e-08
-1.47595e-06
-5.92469e-08
3.53899e-08
-1.47708e-06
2.35894e-08
-1.47795e-06
1.18529e-08
-1.47856e-06
1.4914e-10
-1.47887e-06
-1.1555e-08
-1.47887e-06
-2.32927e-08
-1.47857e-06
-3.50953e-08
-1.47795e-06
-4.69838e-08
-1.47709e-06
-1.47595e-06
-5.8959e-08
4.91353e-08
-1.46345e-06
-6.16336e-08
3.67515e-08
-1.4647e-06
2.44798e-08
-1.46568e-06
1.22927e-08
-1.46638e-06
1.49411e-10
-1.46673e-06
-1.19944e-08
-1.46673e-06
-2.41828e-08
-1.46638e-06
-3.6457e-08
-1.46568e-06
-4.88443e-08
-1.4647e-06
-1.46345e-06
-6.13473e-08
5.13296e-08
-1.45031e-06
-6.44676e-08
3.83476e-08
-1.45172e-06
2.55171e-08
-1.45285e-06
1.28018e-08
-1.45366e-06
1.46496e-10
-1.45407e-06
-1.25093e-08
-1.45407e-06
-2.5226e-08
-1.45366e-06
-3.80593e-08
-1.45285e-06
-5.10453e-08
-1.45171e-06
-1.45031e-06
-6.4189e-08
5.39498e-08
-1.43638e-06
-6.78803e-08
4.02379e-08
-1.438e-06
2.67366e-08
-1.43935e-06
1.3396e-08
-1.44032e-06
1.39252e-10
-1.44081e-06
-1.3118e-08
-1.44081e-06
-2.64601e-08
-1.44032e-06
-3.9964e-08
-1.43934e-06
-5.368e-08
-1.438e-06
-1.43637e-06
-6.76165e-08
5.71328e-08
-1.42145e-06
-7.20655e-08
4.25149e-08
-1.42339e-06
2.81957e-08
-1.42503e-06
1.41025e-08
-1.42623e-06
1.26949e-10
-1.42684e-06
-1.3849e-08
-1.42684e-06
-2.79435e-08
-1.42622e-06
-4.22648e-08
-1.42502e-06
-5.68863e-08
-1.42338e-06
-1.42143e-06
-7.18242e-08
6.10974e-08
-1.40523e-06
-7.7317e-08
4.53363e-08
-1.40763e-06
2.99986e-08
-1.40969e-06
1.49738e-08
-1.4112e-06
1.09879e-10
-1.41197e-06
-1.47542e-08
-1.41197e-06
-2.97799e-08
-1.4112e-06
-4.5119e-08
-1.40968e-06
-6.08823e-08
-1.40761e-06
-1.40521e-06
-7.7105e-08
6.62009e-08
-1.38735e-06
-8.40751e-08
4.89803e-08
-1.3904e-06
3.23392e-08
-1.39305e-06
1.61104e-08
-1.39497e-06
8.96458e-11
-1.39595e-06
-1.59311e-08
-1.39595e-06
-3.21601e-08
-1.39497e-06
-4.88015e-08
-1.39304e-06
-6.60224e-08
-1.39039e-06
-1.38734e-06
-8.38969e-08
7.3005e-08
-1.36739e-06
-9.29696e-08
5.39075e-08
-1.37131e-06
3.55441e-08
-1.37469e-06
1.76823e-08
-1.37711e-06
6.89922e-11
-1.37834e-06
-1.75442e-08
-1.37834e-06
-3.54056e-08
-1.37711e-06
-5.3768e-08
-1.37468e-06
-7.28638e-08
-1.3713e-06
-1.36737e-06
-9.28256e-08
8.22368e-08
-1.34488e-06
-1.04747e-07
6.07156e-08
-1.34979e-06
4.00219e-08
-1.35399e-06
1.98945e-08
-1.35698e-06
5.08537e-11
-1.3585e-06
-1.97925e-08
-1.3585e-06
-3.99189e-08
-1.35698e-06
-6.06106e-08
-1.35399e-06
-8.21284e-08
-1.34978e-06
-1.34487e-06
-1.04633e-07
9.44129e-08
-1.31933e-06
-1.19959e-07
6.96721e-08
-1.32505e-06
4.58715e-08
-1.33019e-06
2.27835e-08
-1.3339e-06
3.71747e-11
-1.33575e-06
-2.27087e-08
-1.33575e-06
-4.57952e-08
-1.33389e-06
-6.9593e-08
-1.33019e-06
-9.43294e-08
-1.32504e-06
-1.31933e-06
-1.1987e-07
1.08199e-07
-1.28905e-06
-1.38485e-07
7.89794e-08
-1.29583e-06
5.18388e-08
-1.30305e-06
2.58297e-08
-1.30789e-06
2.79604e-11
-1.30995e-06
-2.57732e-08
-1.30995e-06
-5.17804e-08
-1.30789e-06
-7.89177e-08
-1.30305e-06
-1.08132e-07
-1.29583e-06
-1.28905e-06
-1.38411e-07
1.14481e-07
-1.24578e-06
-1.57751e-07