/*--------------------------------*- C++ -*----------------------------------*\
  =========                 |
  \\      /  F ield         | OpenFOAM: The Open Source CFD Toolbox
   \\    /   O peration     | Website:  https://openfoam.org
    \\  /    A nd           | Version:  8
     \\/     M anipulation  |
\*---------------------------------------------------------------------------*/
FoamFile
{
    version     2.0;
    format      ascii;
    class       volVectorField;
    location    "0.6";
    object      U;
}
// * * * * * * * * * * * * * * * * * * * * * * * * * * * * * * * * * * * * * //

dimensions      [0 1 -1 0 0 0 0];

internalField   nonuniform List<vector> 
9150
(
(0.0536807 -0.42863 0)
(0.0879873 -0.622231 0)
(0.0735055 -0.631564 0)
(0.0488221 -0.643936 0)
(0.0171131 -0.65476 0)
(-0.017113 -0.65476 0)
(-0.048822 -0.643936 0)
(-0.0735055 -0.631564 0)
(-0.0879872 -0.622231 0)
(-0.0536807 -0.42863 0)
(0.0406162 -0.522346 0)
(0.0573823 -0.625697 0)
(0.0423817 -0.613312 0)
(0.0295287 -0.622559 0)
(0.0105587 -0.629051 0)
(-0.0105587 -0.629051 0)
(-0.0295286 -0.622559 0)
(-0.0423817 -0.613312 0)
(-0.0573823 -0.625697 0)
(-0.0406162 -0.522346 0)
(0.0251728 -0.557723 0)
(0.0325128 -0.613919 0)
(0.0232241 -0.604525 0)
(0.0173471 -0.610035 0)
(0.00628993 -0.613296 0)
(-0.00628986 -0.613296 0)
(-0.017347 -0.610035 0)
(-0.023224 -0.604525 0)
(-0.0325127 -0.613919 0)
(-0.0251728 -0.557723 0)
(0.0153221 -0.584579 0)
(0.0174729 -0.607553 0)
(0.0118608 -0.60116 0)
(0.00892926 -0.603292 0)
(0.00327173 -0.604443 0)
(-0.00327169 -0.604443 0)
(-0.00892923 -0.603292 0)
(-0.0118607 -0.60116 0)
(-0.0174729 -0.607553 0)
(-0.0153221 -0.584579 0)
(0.00626882 -0.597118 0)
(0.00555952 -0.601435 0)
(0.00363988 -0.600047 0)
(0.00270561 -0.600352 0)
(0.00100625 -0.600496 0)
(-0.00100629 -0.600496 0)
(-0.00270565 -0.600352 0)
(-0.00363993 -0.600047 0)
(-0.00555955 -0.601435 0)
(-0.00626883 -0.597118 0)
(0.468 -1.15975 1.70196e-24)
(0.28218 -1.08573 0)
(0.162713 -1.06945 0)
(0.0917149 -1.0585 0)
(0.0302116 -1.05441 0)
(-0.0302105 -1.05441 0)
(-0.0917139 -1.0585 0)
(-0.162713 -1.06946 0)
(-0.28218 -1.08573 0)
(-0.468 -1.15975 -1.70197e-24)
(0.333604 -0.843176 4.72713e-25)
(0.287188 -0.936091 0)
(0.188312 -0.936867 0)
(0.107975 -0.937553 0)
(0.0356552 -0.940372 0)
(-0.0356546 -0.940372 0)
(-0.107975 -0.937553 0)
(-0.188311 -0.936867 0)
(-0.287188 -0.936092 0)
(-0.333604 -0.843177 -4.72715e-25)
(0.278096 -0.70116 7.31804e-26)
(0.258999 -0.804144 0)
(0.17843 -0.817506 0)
(0.10461 -0.82897 0)
(0.0348595 -0.837443 0)
(-0.0348592 -0.837443 0)
(-0.10461 -0.82897 0)
(-0.17843 -0.817506 0)
(-0.258999 -0.804145 0)
(-0.278096 -0.701161 -7.31812e-26)
(0.198826 -0.553295 3.09512e-25)
(0.216418 -0.709078 0)
(0.154681 -0.725926 0)
(0.0914944 -0.742494 0)
(0.0306058 -0.754639 0)
(-0.0306055 -0.754639 0)
(-0.0914942 -0.742494 0)
(-0.154681 -0.725926 0)
(-0.216418 -0.709078 0)
(-0.198827 -0.553295 -3.09512e-25)
(0.117821 -0.445107 -4.88894e-25)
(0.155971 -0.644135 -6.98363e-25)
(0.117089 -0.663876 -2.38724e-25)
(0.0711315 -0.681531 -1.57629e-25)
(0.0240485 -0.694683 -9.2667e-27)
(-0.0240484 -0.694683 -9.26681e-27)
(-0.0711314 -0.681531 -1.5763e-25)
(-0.117089 -0.663876 -2.38724e-25)
(-0.155971 -0.644136 -6.98364e-25)
(-0.117821 -0.445107 -4.88895e-25)
(0.00843056 -0.935382 0)
(-0.0377953 -1.31892 0)
(0.0222683 -1.26329 0)
(-0.000641015 -1.2261 0)
(0.00322999 -1.22376 0)
(-0.00322151 -1.22376 0)
(0.000652218 -1.2261 0)
(-0.0222573 -1.26329 0)
(0.0378065 -1.31892 0)
(-0.00842541 -0.935433 0)
(0.0491168 -0.914447 0)
(-0.0257751 -1.3301 0)
(0.0230501 -1.26684 0)
(0.0011769 -1.22472 0)
(0.000771813 -1.22277 0)
(-0.000766488 -1.22278 0)
(-0.00116866 -1.22472 0)
(-0.0230437 -1.26684 0)
(0.0257851 -1.3301 0)
(-0.0491135 -0.914472 0)
(0.0770065 -0.949916 0)
(-0.0249431 -1.34377 0)
(0.0153025 -1.27377 0)
(0.00598962 -1.23164 0)
(-8.4241e-05 -1.22657 0)
(8.87096e-05 -1.22657 0)
(-0.00598441 -1.23164 0)
(-0.0152993 -1.27378 0)
(0.02495 -1.34377 0)
(-0.0770045 -0.949932 0)
(0.145698 -1.08093 0)
(0.00290839 -1.36461 0)
(0.0141513 -1.27059 0)
(0.0213957 -1.22632 0)
(0.00591777 -1.2153 0)
(-0.00591457 -1.2153 0)
(-0.0213927 -1.22632 0)
(-0.0141495 -1.27059 0)
(-0.00290345 -1.36461 0)
(-0.145696 -1.08094 0)
(0.299644 -1.21718 0)
(0.128216 -1.32083 0)
(0.0683962 -1.21002 0)
(0.0555837 -1.1695 0)
(0.019794 -1.15784 0)
(-0.0197921 -1.15784 0)
(-0.0555822 -1.16951 0)
(-0.0683946 -1.21003 0)
(-0.128214 -1.32083 0)
(-0.299643 -1.21718 0)
(-0.648416 -0.218629 0)
(-0.50985 -0.227962 0)
(-0.366918 -0.235133 0)
(-0.22161 -0.240418 0)
(-0.0755782 -0.243579 0)
(0.0704034 -0.24362 0)
(0.21643 -0.240523 0)
(0.361761 -0.235288 0)
(0.504771 -0.228183 0)
(0.64349 -0.218953 0)
(-0.483 -0.390056 0)
(-0.381701 -0.407964 0)
(-0.276233 -0.419781 0)
(-0.167845 -0.42692 0)
(-0.0574765 -0.430296 0)
(0.0536993 -0.430332 0)
(0.164109 -0.427039 0)
(0.272567 -0.420015 0)
(0.378139 -0.408373 0)
(0.479596 -0.390726 0)
(-0.359042 -0.55024 0)
(-0.283083 -0.575119 0)
(-0.204425 -0.591503 0)
(-0.123916 -0.601354 0)
(-0.0422979 -0.605965 0)
(0.0397087 -0.606018 0)
(0.12135 -0.601528 0)
(0.201906 -0.591843 0)
(0.280636 -0.575703 0)
(0.356699 -0.551181 0)
(-0.259923 -0.678074 0)
(-0.204586 -0.708412 0)
(-0.147612 -0.728466 0)
(-0.0893935 -0.740674 0)
(-0.0304315 -0.746469 0)
(0.0287816 -0.746542 0)
(0.0877642 -0.74091 0)
(0.146024 -0.728908 0)
(0.203056 -0.709143 0)
(0.258454 -0.679234 0)
(-0.183668 -0.767225 0)
(-0.143741 -0.801256 0)
(-0.103631 -0.823883 0)
(-0.0627635 -0.837828 0)
(-0.0213166 -0.844525 0)
(0.0203346 -0.844622 0)
(0.0618033 -0.838131 0)
(0.102712 -0.824431 0)
(0.142865 -0.802126 0)
(0.182781 -0.768561 0)
(-0.140878 -0.834734 0)
(-0.107501 -0.868715 0)
(-0.0765523 -0.891912 0)
(-0.0461406 -0.906496 0)
(-0.0156341 -0.9136 0)
(0.0149439 -0.91371 0)
(0.0454561 -0.906833 0)
(0.0758696 -0.892501 0)
(0.106777 -0.8696 0)
(0.140027 -0.835977 0)
(-0.123536 -0.896153 0)
(-0.0919617 -0.925907 0)
(-0.0641433 -0.947036 0)
(-0.0382698 -0.960619 0)
(-0.0129459 -0.96733 0)
(0.0122761 -0.96743 0)
(0.0375855 -0.960921 0)
(0.0634081 -0.947554 0)
(0.0910973 -0.926678 0)
(0.122516 -0.897242 0)
(-0.117502 -0.956798 0)
(-0.087909 -0.980482 0)
(-0.0604627 -0.997994 0)
(-0.0357471 -1.00948 0)
(-0.0120845 -1.01523 0)
(0.0113489 -1.01531 0)
(0.0349975 -1.00972 0)
(0.059654 -0.998379 0)
(0.0869623 -0.980995 0)
(0.116652 -0.957381 0)
(-0.113924 -1.01691 0)
(-0.0875123 -1.03448 0)
(-0.060133 -1.04812 0)
(-0.035458 -1.05728 0)
(-0.012024 -1.06192 0)
(0.0111289 -1.06198 0)
(0.0345433 -1.05747 0)
(0.0591609 -1.04842 0)
(0.086459 -1.03483 0)
(0.113074 -1.01716 0)
(-0.110239 -1.07404 0)
(-0.0872497 -1.08715 0)
(-0.0603863 -1.09784 0)
(-0.0356546 -1.10513 0)
(-0.012113 -1.10883 0)
(0.0111504 -1.10888 0)
(0.0346692 -1.10527 0)
(0.0593477 -1.09808 0)
(0.0861801 -1.08749 0)
(0.109451 -1.07441 0)
(-0.105647 -1.12596 0)
(-0.0857001 -1.13734 0)
(-0.0598157 -1.14658 0)
(-0.0353377 -1.15273 0)
(-0.011971 -1.15581 0)
(0.0111215 -1.15585 0)
(0.0344693 -1.15285 0)
(0.0589009 -1.14679 0)
(0.0848239 -1.13769 0)
(0.105 -1.1265 0)
(-0.100557 -1.1753 0)
(-0.0823355 -1.18584 0)
(-0.0582386 -1.19393 0)
(-0.034327 -1.19925 0)
(-0.0115682 -1.20188 0)
(0.010872 -1.20191 0)
(0.0336123 -1.19935 0)
(0.0574742 -1.19411 0)
(0.0816825 -1.18612 0)
(0.100049 -1.17576 0)
(-0.0951211 -1.22358 0)
(-0.0785221 -1.23259 0)
(-0.0561881 -1.23946 0)
(-0.0330612 -1.24403 0)
(-0.0111015 -1.24629 0)
(0.0104946 -1.24632 0)
(0.0324344 -1.24412 0)
(0.0555185 -1.23961 0)
(0.0779929 -1.23278 0)
(0.0947296 -1.2238 0)
(-0.0896229 -1.26895 0)
(-0.0743796 -1.27696 0)
(-0.0539367 -1.2829 0)
(-0.0317109 -1.28689 0)
(-0.0106235 -1.28887 0)
(0.0100641 -1.28891 0)
(0.0311315 -1.28699 0)
(0.0533274 -1.28305 0)
(0.0739605 -1.27713 0)
(0.0892969 -1.26916 0)
(-0.0840888 -1.3122 0)
(-0.0700869 -1.31916 0)
(-0.0515413 -1.32429 0)
(-0.0303042 -1.32779 0)
(-0.0101296 -1.32955 0)
(0.00962372 -1.32958 0)
(0.0297791 -1.32789 0)
(0.0510003 -1.32444 0)
(0.0697679 -1.31933 0)
(0.083891 -1.31238 0)
(-0.0786222 -1.35306 0)
(-0.0658625 -1.35891 0)
(-0.0490868 -1.36349 0)
(-0.0288817 -1.36669 0)
(-0.00961696 -1.36829 0)
(0.00921691 -1.36833 0)
(0.0284598 -1.3668 0)
(0.0486578 -1.36369 0)
(0.0656476 -1.35918 0)
(0.0785476 -1.35328 0)
(-0.0736549 -1.39127 0)
(-0.0618532 -1.39631 0)
(-0.0464751 -1.40061 0)
(-0.0274239 -1.40362 0)
(-0.00907422 -1.40512 0)
(0.00883492 -1.40515 0)
(0.0271555 -1.40372 0)
(0.0462441 -1.40079 0)
(0.0617337 -1.39658 0)
(0.0735687 -1.39157 0)
(-0.0690012 -1.42722 0)
(-0.0580029 -1.43187 0)
(-0.0438094 -1.43585 0)
(-0.025968 -1.43861 0)
(-0.00854484 -1.43999 0)
(0.00843038 -1.44002 0)
(0.0258252 -1.43869 0)
(0.0436965 -1.43598 0)
(0.0580135 -1.43207 0)
(0.0691127 -1.42749 0)
(-0.064248 -1.46117 0)
(-0.0542358 -1.46552 0)
(-0.0412213 -1.46914 0)
(-0.0245329 -1.47165 0)
(-0.00803502 -1.47291 0)
(0.00802096 -1.47293 0)
(0.024491 -1.47172 0)
(0.0412189 -1.46926 0)
(0.0543487 -1.46571 0)
(0.0644701 -1.46142 0)
(-0.0596883 -1.49304 0)
(-0.0506054 -1.4971 0)
(-0.0386761 -1.50045 0)
(-0.0231249 -1.50276 0)
(-0.00754411 -1.50392 0)
(0.00760689 -1.50394 0)
(0.0231603 -1.50282 0)
(0.0387559 -1.50055 0)
(0.0507879 -1.49724 0)
(0.0599855 -1.49322 0)
(-0.0553426 -1.523 0)
(-0.0471332 -1.52679 0)
(-0.0361972 -1.52989 0)
(-0.0217498 -1.532 0)
(-0.00707546 -1.53307 0)
(0.0071846 -1.53309 0)
(0.0218327 -1.53205 0)
(0.0363294 -1.52995 0)
(0.0473581 -1.52689 0)
(0.0556848 -1.52312 0)
(-0.0512151 -1.55105 0)
(-0.0438157 -1.55462 0)
(-0.0337932 -1.55748 0)
(-0.0204111 -1.55942 0)
(-0.00662776 -1.5604 0)
(0.00676078 -1.56041 0)
(0.02052 -1.55944 0)
(0.0339563 -1.55752 0)
(0.0440624 -1.55468 0)
(0.051576 -1.55113 0)
(-0.0473089 -1.57726 0)
(-0.0406441 -1.58064 0)
(-0.0314637 -1.58328 0)
(-0.0191058 -1.58506 0)
(-0.0061972 -1.58595 0)
(0.0063393 -1.58596 0)
(0.0192265 -1.58507 0)
(0.0316425 -1.5833 0)
(0.040898 -1.58067 0)
(0.0476668 -1.5773 0)
(-0.0436224 -1.60166 0)
(-0.0376106 -1.6049 0)
(-0.0292075 -1.60734 0)
(-0.0178303 -1.60896 0)
(-0.00577958 -1.60979 0)
(0.00592406 -1.60979 0)
(0.0179562 -1.60896 0)
(0.0293942 -1.60734 0)
(0.0378637 -1.60491 0)
(0.0439624 -1.60168 0)
(-0.0401482 -1.6243 0)
(-0.0347074 -1.62745 0)
(-0.0270231 -1.6297 0)
(-0.016582 -1.63119 0)
(-0.00537173 -1.63194 0)
(0.00551769 -1.63194 0)
(0.0167122 -1.63118 0)
(0.0272152 -1.62968 0)
(0.034957 -1.62743 0)
(0.0404623 -1.62432 0)
(-0.0368738 -1.64525 0)
(-0.0319277 -1.64832 0)
(-0.0249102 -1.65041 0)
(-0.0153603 -1.65178 0)
(-0.00497264 -1.65248 0)
(0.00512074 -1.65247 0)
(0.0154954 -1.65177 0)
(0.0251071 -1.65039 0)
(0.0321737 -1.6483 0)
(0.037159 -1.64526 0)
(-0.0337849 -1.66459 0)
(-0.0292664 -1.6676 0)
(-0.0228706 -1.66953 0)
(-0.0141678 -1.67079 0)
(-0.0045839 -1.67143 0)
(0.004732 -1.67142 0)
(0.0143058 -1.67077 0)
(0.02307 -1.6695 0)
(0.0295083 -1.66756 0)
(0.03404 -1.66457 0)
(-0.0308714 -1.68242 0)
(-0.0267212 -1.68532 0)
(-0.0209077 -1.6871 0)
(-0.0130086 -1.68826 0)
(-0.00420771 -1.68884 0)
(0.00435123 -1.68884 0)
(0.0131453 -1.68824 0)
(0.0211058 -1.68707 0)
(0.026957 -1.68527 0)
(0.0310924 -1.68235 0)
(-0.028127 -1.69879 0)
(-0.0242912 -1.70154 0)
(-0.019024 -1.70317 0)
(-0.0118853 -1.70423 0)
(-0.00384295 -1.70477 0)
(0.00398292 -1.70477 0)
(0.0120212 -1.70423 0)
(0.0192209 -1.70315 0)
(0.0245214 -1.70149 0)
(0.0283103 -1.69868 0)
(-0.0255381 -1.71362 0)
(-0.0219668 -1.71629 0)
(-0.0172118 -1.7178 0)
(-0.0107907 -1.71878 0)
(-0.00348041 -1.71928 0)
(0.00363789 -1.71928 0)
(0.0109457 -1.71878 0)
(0.0174257 -1.7178 0)
(0.022208 -1.71628 0)
(0.0256924 -1.7136 0)
(-0.023046 -1.72693 0)
(-0.0197314 -1.72962 0)
(-0.0154623 -1.73104 0)
(-0.00971696 -1.73195 0)
(-0.00311372 -1.73242 0)
(0.00332075 -1.73242 0)
(0.00992289 -1.73196 0)
(0.0157221 -1.73105 0)
(0.0200157 -1.72965 0)
(0.0232342 -1.72707 0)
(-0.0206338 -1.73894 0)
(-0.0175905 -1.74161 0)
(-0.0137846 -1.74294 0)
(-0.00867558 -1.7438 0)
(-0.00275444 -1.74423 0)
(0.00301901 -1.74424 0)
(0.00893971 -1.74381 0)
(0.0140962 -1.74297 0)
(0.017926 -1.74164 0)
(0.0208869 -1.73905 0)
(-0.0183222 -1.74969 0)
(-0.0155606 -1.75232 0)
(-0.0121924 -1.75356 0)
(-0.00767859 -1.75436 0)
(-0.00241235 -1.75478 0)
(0.00272572 -1.75478 0)
(0.00799162 -1.75439 0)
(0.0125433 -1.7536 0)
(0.0159317 -1.75236 0)
(0.01862 -1.74978 0)
(-0.0161199 -1.75919 0)
(-0.0136519 -1.76179 0)
(-0.0106854 -1.76296 0)
(-0.00672176 -1.76372 0)
(-0.00208535 -1.76411 0)
(0.00244511 -1.76412 0)
(0.00708451 -1.76374 0)
(0.0110706 -1.763 0)
(0.0140425 -1.76184 0)
(0.0164532 -1.7593 0)
(-0.0140134 -1.76748 0)
(-0.0118317 -1.77009 0)
(-0.0092511 -1.77121 0)
(-0.00581072 -1.77192 0)
(-0.00177417 -1.77229 0)
(0.0021749 -1.77229 0)
(0.0062126 -1.77194 0)
(0.00967394 -1.77124 0)
(0.0122613 -1.77014 0)
(0.0143847 -1.76762 0)
(-0.0119947 -1.77467 0)
(-0.0100985 -1.77726 0)
(-0.00788616 -1.77834 0)
(-0.00494179 -1.77901 0)
(-0.00147762 -1.77936 0)
(0.00191478 -1.77937 0)
(0.00537978 -1.77903 0)
(0.00834221 -1.77837 0)
(0.0105608 -1.77732 0)
(0.0124055 -1.77483 0)
(-0.0100701 -1.78082 0)
(-0.00845542 -1.78338 0)
(-0.00659221 -1.78441 0)
(-0.00411661 -1.78505 0)
(-0.00119784 -1.78538 0)
(0.0016625 -1.78538 0)
(0.00458167 -1.78506 0)
(0.00707151 -1.78444 0)
(0.00893951 -1.78343 0)
(0.0105125 -1.78096 0)
(-0.00823923 -1.78597 0)
(-0.00689983 -1.78849 0)
(-0.00536774 -1.78947 0)
(-0.00333546 -1.79008 0)
(-0.000935882 -1.79039 0)
(0.00141682 -1.79039 0)
(0.0038165 -1.79009 0)
(0.00585975 -1.78949 0)
(0.00739513 -1.78852 0)
(0.00870081 -1.78609 0)
(-0.00649941 -1.79016 0)
(-0.00542636 -1.79263 0)
(-0.00420839 -1.79358 0)
(-0.00259568 -1.79415 0)
(-0.000689702 -1.79445 0)
(0.0011796 -1.79445 0)
(0.0030856 -1.79416 0)
(0.00470681 -1.79359 0)
(0.0059272 -1.79266 0)
(0.00697322 -1.79027 0)
(-0.00484544 -1.79344 0)
(-0.00403046 -1.79586 0)
(-0.00311036 -1.79676 0)
(-0.00189451 -1.79731 0)
(-0.000457283 -1.79759 0)
(0.000952395 -1.7976 0)
(0.00238972 -1.79732 0)
(0.00361187 -1.79678 0)
(0.00453396 -1.79588 0)
(0.00532988 -1.79354 0)
(-0.00327753 -1.79585 0)
(-0.00270855 -1.79822 0)
(-0.00207045 -1.79908 0)
(-0.00123015 -1.79961 0)
(-0.000237383 -1.79988 0)
(0.000736014 -1.79988 0)
(0.00172891 -1.79962 0)
(0.00257366 -1.7991 0)
(0.00321308 -1.79824 0)
(0.00376858 -1.79595 0)
(-0.00179229 -1.79744 0)
(-0.00145792 -1.79975 0)
(-0.00108658 -1.80058 0)
(-0.000601253 -1.80109 0)
(-2.92868e-05 -1.80134 0)
(0.000530759 -1.80134 0)
(0.00110286 -1.80109 0)
(0.0015908 -1.80059 0)
(0.00196285 -1.79977 0)
(0.0022897 -1.79753 0)
(-0.00038879 -1.79824 0)
(-0.000276344 -1.8005 0)
(-0.000157061 -1.8013 0)
(-7.06147e-06 -1.80179 0)
(0.000167235 -1.80203 0)
(0.00033649 -1.80204 0)
(0.000510867 -1.80179 0)
(0.000661725 -1.80131 0)
(0.000781087 -1.80052 0)
(0.000891275 -1.79833 0)
(0.000934452 -1.79831 0)
(0.000838122 -1.80051 0)
(0.000719651 -1.80129 0)
(0.00055323 -1.80176 0)
(0.000352437 -1.802 0)
(0.000153056 -1.802 0)
(-4.78068e-05 -1.80176 0)
(-0.000215095 -1.8013 0)
(-0.000334234 -1.80053 0)
(-0.000428363 -1.7984 0)
(0.00217884 -1.79768 0)
(0.0018874 -1.79983 0)
(0.00154501 -1.80059 0)
(0.00108032 -1.80104 0)
(0.000526433 -1.80127 0)
(-1.98865e-05 -1.80127 0)
(-0.000574037 -1.80104 0)
(-0.00104118 -1.8006 0)
(-0.00138496 -1.79985 0)
(-0.00167049 -1.79776 0)
(0.0033464 -1.7964 0)
(0.00287382 -1.7985 0)
(0.00232072 -1.79924 0)
(0.00157506 -1.79967 0)
(0.000689408 -1.79989 0)
(-0.000182738 -1.79989 0)
(-0.00106883 -1.79968 0)
(-0.00181842 -1.79924 0)
(-0.0023735 -1.79851 0)
(-0.00283678 -1.79648 0)
(0.00443946 -1.79451 0)
(0.0038 -1.79656 0)
(0.00304878 -1.79727 0)
(0.00203847 -1.7977 0)
(0.000841568 -1.79791 0)
(-0.000335998 -1.79791 0)
(-0.00153344 -1.7977 0)
(-0.00254885 -1.79728 0)
(-0.00330251 -1.79657 0)
(-0.00392996 -1.79458 0)
(0.00546093 -1.79206 0)
(0.00466875 -1.79404 0)
(0.00373142 -1.79474 0)
(0.00247181 -1.79515 0)
(0.00098329 -1.79536 0)
(-0.000480053 -1.79536 0)
(-0.00196904 -1.79515 0)
(-0.00323459 -1.79475 0)
(-0.00417465 -1.79405 0)
(-0.00495255 -1.79212 0)
(0.00641436 -1.78908 0)
(0.00548325 -1.79099 0)
(0.00437115 -1.79167 0)
(0.00287658 -1.79207 0)
(0.00111514 -1.79227 0)
(-0.000615206 -1.79227 0)
(-0.0023769 -1.79207 0)
(-0.00387789 -1.79168 0)
(-0.00499281 -1.791 0)
(-0.00590767 -1.78913 0)
(0.00730265 -1.78559 0)
(0.00624609 -1.78744 0)
(0.00497002 -1.7881 0)
(0.0032541 -1.78849 0)
(0.00123764 -1.78869 0)
(-0.000741763 -1.78869 0)
(-0.00275824 -1.78849 0)
(-0.00448094 -1.78811 0)
(-0.00575982 -1.78745 0)
(-0.00679855 -1.78564 0)
(0.00812792 -1.78163 0)
(0.00695919 -1.78342 0)
(0.00552951 -1.78407 0)
(0.00360529 -1.78444 0)
(0.0013511 -1.78464 0)
(-0.000860168 -1.78464 0)
(-0.00311429 -1.78445 0)
(-0.0050457 -1.78407 0)
(-0.00647817 -1.78343 0)
(-0.00762806 -1.78168 0)
(0.00889275 -1.77723 0)
(0.00762449 -1.77897 0)
(0.00605118 -1.7796 0)
(0.00393108 -1.77996 0)
(0.00145571 -1.78015 0)
(-0.000970914 -1.78015 0)
(-0.00344621 -1.77997 0)
(-0.00557396 -1.7796 0)
(-0.00715005 -1.77898 0)
(-0.00839891 -1.77729 0)
(0.00960002 -1.77243 0)
(0.00824418 -1.7741 0)
(0.00653681 -1.77472 0)
(0.00423257 -1.77508 0)
(0.00155184 -1.77526 0)
(-0.00107438 -1.77526 0)
(-0.00375501 -1.77508 0)
(-0.00606724 -1.77473 0)
(-0.0077774 -1.77412 0)
(-0.00911357 -1.77248 0)
(0.0102527 -1.76724 0)
(0.0088207 -1.76886 0)
(0.00698837 -1.76947 0)
(0.00451117 -1.76982 0)
(0.00164016 -1.77 0)
(-0.0011707 -1.77 0)
(-0.00404158 -1.76983 0)
(-0.00652696 -1.76947 0)
(-0.00836205 -1.76888 0)
(-0.00977427 -1.76729 0)
(0.0108539 -1.76171 0)
(0.00935664 -1.76328 0)
(0.00740797 -1.76387 0)
(0.00476839 -1.76422 0)
(0.00172134 -1.76439 0)
(-0.00126011 -1.76439 0)
(-0.00430706 -1.76422 0)
(-0.00695504 -1.76388 0)
(-0.00890647 -1.76329 0)
(-0.0103842 -1.76175 0)
(0.0114075 -1.75586 0)
(0.00985504 -1.75737 0)
(0.00779811 -1.75795 0)
(0.00500582 -1.75829 0)
(0.00179595 -1.75846 0)
(-0.00134307 -1.75846 0)
(-0.00455298 -1.75829 0)
(-0.00735397 -1.75796 0)
(-0.00941375 -1.75738 0)
(-0.0109474 -1.75591 0)
(0.0119178 -1.74972 0)
(0.0103191 -1.75117 0)
(0.00816137 -1.75173 0)
(0.00522502 -1.75206 0)
(0.00186441 -1.75223 0)
(-0.0014202 -1.75223 0)
(-0.00478102 -1.75207 0)
(-0.00772636 -1.75174 0)
(-0.00988711 -1.75118 0)
(-0.0114679 -1.74976 0)
(0.0123884 -1.74331 0)
(0.0107517 -1.74469 0)
(0.00849992 -1.74524 0)
(0.00542734 -1.74556 0)
(0.00192707 -1.74573 0)
(-0.00149219 -1.74573 0)
(-0.00499285 -1.74557 0)
(-0.00807465 -1.74524 0)
(-0.0103296 -1.74469 0)
(-0.0119494 -1.74334 0)
(0.0128222 -1.73664 0)
(0.0111551 -1.73795 0)
(0.00881561 -1.73849 0)
(0.00561391 -1.73881 0)
(0.00198416 -1.73897 0)
(-0.00155972 -1.73897 0)
(-0.00519001 -1.73881 0)
(-0.00840107 -1.73849 0)
(-0.0107438 -1.73795 0)
(-0.0123953 -1.73666 0)
(0.013222 -1.72973 0)
(0.0115312 -1.73098 0)
(0.00910986 -1.7315 0)
(0.00578556 -1.73181 0)
(0.00203572 -1.73197 0)
(-0.00162358 -1.73197 0)
(-0.0053741 -1.73181 0)
(-0.00870784 -1.7315 0)
(-0.0111326 -1.73097 0)
(-0.012809 -1.72973 0)
(0.0135902 -1.7226 0)
(0.0118818 -1.72379 0)
(0.00938393 -1.72429 0)
(0.00594289 -1.7246 0)
(0.00208159 -1.72475 0)
(-0.00168469 -1.72475 0)
(-0.00554678 -1.72459 0)
(-0.00899721 -1.72428 0)
(-0.0114985 -1.72377 0)
(-0.0131938 -1.72259 0)
(0.0139291 -1.71525 0)
(0.0122084 -1.71638 0)
(0.00963895 -1.71688 0)
(0.00608646 -1.71717 0)
(0.00212158 -1.71732 0)
(-0.00174398 -1.71732 0)
(-0.00570967 -1.71716 0)
(-0.00927133 -1.71686 0)
(-0.0118441 -1.71636 0)
(-0.0135529 -1.71523 0)
(0.0142408 -1.70771 0)
(0.0125125 -1.70879 0)
(0.00987611 -1.70927 0)
(0.00621689 -1.70956 0)
(0.0021556 -1.7097 0)
(-0.00180228 -1.7097 0)
(-0.0058643 -1.70954 0)
(-0.00953227 -1.70924 0)
(-0.0121718 -1.70875 0)
(-0.0138893 -1.70768 0)
(0.0145279 -1.69999 0)
(0.0127959 -1.70101 0)
(0.0100968 -1.70148 0)
(0.00633505 -1.70176 0)
(0.00218376 -1.7019 0)
(-0.00186026 -1.70189 0)
(-0.00601213 -1.70174 0)
(-0.00978203 -1.70145 0)
(-0.0124841 -1.70097 0)
(-0.014206 -1.69994 0)
(0.0147929 -1.69209 0)
(0.0130611 -1.69306 0)
(0.0103028 -1.69352 0)
(0.00644204 -1.69379 0)
(0.00220645 -1.69393 0)
(-0.00191839 -1.69392 0)
(-0.00615439 -1.69377 0)
(-0.0100227 -1.69348 0)
(-0.0127834 -1.69301 0)
(-0.014506 -1.69204 0)
(0.0150395 -1.68403 0)
(0.0133102 -1.68495 0)
(0.0104961 -1.6854 0)
(0.00653965 -1.68567 0)
(0.00222434 -1.6858 0)
(-0.00197694 -1.68579 0)
(-0.00629245 -1.68564 0)
(-0.0102558 -1.68536 0)
(-0.0130717 -1.6849 0)
(-0.0147925 -1.68397 0)
(0.0152714 -1.67583 0)
(0.0135465 -1.67669 0)
(0.0106793 -1.67712 0)
(0.00662956 -1.67739 0)
(0.00223844 -1.67751 0)
(-0.0020356 -1.67751 0)
(-0.0064267 -1.67736 0)
(-0.0104824 -1.67708 0)
(-0.013351 -1.67663 0)
(-0.0150678 -1.67575 0)
(0.0154923 -1.66748 0)
(0.013772 -1.66829 0)
(0.0108522 -1.6687 0)
(0.00671168 -1.66896 0)
(0.00224923 -1.66908 0)
(-0.00209262 -1.66907 0)
(-0.00655475 -1.66893 0)
(-0.0107004 -1.66866 0)
(-0.0136212 -1.66823 0)
(-0.0153342 -1.66741 0)
(0.015706 -1.65905 0)
(0.0139764 -1.65976 0)
(0.011005 -1.66014 0)
(0.00677807 -1.66039 0)
(0.00225449 -1.66052 0)
(-0.00214283 -1.66051 0)
(-0.00666542 -1.66037 0)
(-0.0108963 -1.6601 0)
(-0.0138677 -1.6597 0)
(-0.0155927 -1.65898 0)
(0.0158301 -1.65039 0)
(0.0141314 -1.65106 0)
(0.0111215 -1.65146 0)
(0.00681909 -1.65172 0)
(0.00225055 -1.65186 0)
(-0.00218444 -1.65185 0)
(-0.00675055 -1.6517 0)
(-0.0110542 -1.65142 0)
(-0.0140621 -1.65099 0)
(-0.0157481 -1.65029 0)
(0.016075 -1.64095 0)
(0.0143204 -1.64208 0)
(0.0112471 -1.64263 0)
(0.00687213 -1.64296 0)
(0.00225148 -1.64311 0)
(-0.00223409 -1.64311 0)
(-0.00685113 -1.64294 0)
(-0.0112243 -1.64259 0)
(-0.0143018 -1.64202 0)
(-0.0160763 -1.64079 0)
(0.016515 -1.63191 0)
(0.0145668 -1.63314 0)
(0.0114039 -1.63372 0)
(0.00695698 -1.63407 0)
(0.00227281 -1.63424 0)
(-0.00228081 -1.63423 0)
(-0.00696138 -1.63406 0)
(-0.0114054 -1.63371 0)
(-0.0145694 -1.63312 0)
(-0.0165332 -1.63191 0)
(0.0168198 -1.62317 0)
(0.0147696 -1.62419 0)
(0.0115455 -1.62473 0)
(0.00703572 -1.62506 0)
(0.00230213 -1.62522 0)
(-0.00230276 -1.62522 0)
(-0.00703275 -1.62506 0)
(-0.0115404 -1.62472 0)
(-0.0147645 -1.6242 0)
(-0.0168225 -1.62321 0)
(0.0170905 -1.6142 0)
(0.014954 -1.61513 0)
(0.0116719 -1.61563 0)
(0.00710165 -1.61596 0)
(0.00232906 -1.61612 0)
(-0.00231407 -1.61612 0)
(-0.0070839 -1.61596 0)
(-0.0116539 -1.61564 0)
(-0.0149377 -1.61514 0)
(-0.0170822 -1.61423 0)
(0.0173802 -1.60506 0)
(0.0151574 -1.60595 0)
(0.0118099 -1.60645 0)
(0.00717369 -1.60678 0)
(0.00235802 -1.60694 0)
(-0.0023269 -1.60694 0)
(-0.00714066 -1.60678 0)
(-0.011778 -1.60647 0)
(-0.0151287 -1.60597 0)
(-0.0173602 -1.60509 0)
(0.017691 -1.59579 0)
(0.0153809 -1.59667 0)
(0.0119629 -1.59717 0)
(0.00725515 -1.5975 0)
(0.00239013 -1.59766 0)
(-0.00234296 -1.59766 0)
(-0.00720659 -1.5975 0)
(-0.0119161 -1.59718 0)
(-0.0153382 -1.59669 0)
(-0.0176568 -1.59582 0)
(0.018021 -1.58641 0)
(0.0156226 -1.58726 0)
(0.0121294 -1.58777 0)
(0.00734492 -1.5881 0)
(0.00242496 -1.58827 0)
(-0.00236203 -1.58827 0)
(-0.00728095 -1.58811 0)
(-0.0120676 -1.58779 0)
(-0.0155652 -1.58729 0)
(-0.017972 -1.58644 0)
(0.0183726 -1.57689 0)
(0.0158835 -1.57773 0)
(0.0123099 -1.57825 0)
(0.00744292 -1.57859 0)
(0.00246235 -1.57876 0)
(-0.00238418 -1.57876 0)
(-0.00736393 -1.5786 0)
(-0.0122333 -1.57826 0)
(-0.0158116 -1.57776 0)
(-0.0183088 -1.57692 0)
(0.0187498 -1.56722 0)
(0.0161668 -1.56807 0)
(0.0125063 -1.56859 0)
(0.00755007 -1.56894 0)
(0.00250243 -1.56911 0)
(-0.00241001 -1.56912 0)
(-0.00745698 -1.56895 0)
(-0.0124158 -1.56861 0)
(-0.016081 -1.56809 0)
(-0.0186718 -1.56725 0)
(0.019158 -1.5574 0)
(0.0164766 -1.55825 0)
(0.0127216 -1.55878 0)
(0.00766787 -1.55914 0)
(0.0025455 -1.55932 0)
(-0.00244036 -1.55933 0)
(-0.00756218 -1.55915 0)
(-0.0126184 -1.5588 0)
(-0.0163782 -1.55827 0)
(-0.0190669 -1.55743 0)
(0.0196035 -1.5474 0)
(0.0168183 -1.54825 0)
(0.0129595 -1.54881 0)
(0.00779842 -1.54918 0)
(0.00259213 -1.54937 0)
(-0.0024761 -1.54937 0)
(-0.0076819 -1.54919 0)
(-0.0128453 -1.54882 0)
(-0.0167088 -1.54827 0)
(-0.0195009 -1.54743 0)
(0.0200943 -1.5372 0)
(0.0171981 -1.53807 0)
(0.0132245 -1.53865 0)
(0.00794431 -1.53904 0)
(0.00264319 -1.53923 0)
(-0.00251809 -1.53924 0)
(-0.00781878 -1.53904 0)
(-0.0131012 -1.53866 0)
(-0.0170794 -1.53809 0)
(-0.0199818 -1.53723 0)
(0.0206395 -1.52678 0)
(0.0176238 -1.52766 0)
(0.0135219 -1.52827 0)
(0.00810864 -1.52868 0)
(0.00269973 -1.52889 0)
(-0.00256724 -1.52889 0)
(-0.00797577 -1.52869 0)
(-0.0133911 -1.52828 0)
(-0.0174974 -1.52768 0)
(-0.020519 -1.5268 0)
(0.0212506 -1.51609 0)
(0.0181044 -1.51701 0)
(0.0138582 -1.51765 0)
(0.00829508 -1.51809 0)
(0.00276302 -1.51831 0)
(-0.00262457 -1.51832 0)
(-0.00815631 -1.5181 0)
(-0.0137214 -1.51766 0)
(-0.0179719 -1.51702 0)
(-0.0211234 -1.51611 0)
(0.0219412 -1.50511 0)
(0.0186511 -1.50607 0)
(0.0142411 -1.50676 0)
(0.00850796 -1.50723 0)
(0.00283456 -1.50747 0)
(-0.00269134 -1.50747 0)
(-0.0083645 -1.50724 0)
(-0.0140994 -1.50677 0)
(-0.0185136 -1.50608 0)
(-0.0218085 -1.50513 0)
(0.0227281 -1.49378 0)
(0.0192773 -1.4948 0)
(0.0146796 -1.49554 0)
(0.00875237 -1.49606 0)
(0.00291601 -1.49632 0)
(-0.00276909 -1.49632 0)
(-0.00860533 -1.49607 0)
(-0.0145343 -1.49555 0)
(-0.0191361 -1.49481 0)
(-0.0225913 -1.4938 0)
(0.0236325 -1.48205 0)
(0.0199998 -1.48314 0)
(0.0151848 -1.48396 0)
(0.00903421 -1.48454 0)
(0.00300914 -1.48482 0)
(-0.00285989 -1.48482 0)
(-0.00888495 -1.48454 0)
(-0.0150373 -1.48396 0)
(-0.0198563 -1.48315 0)
(-0.0234931 -1.48206 0)
(0.0246815 -1.46984 0)
(0.0208398 -1.47103 0)
(0.0157702 -1.47194 0)
(0.00936045 -1.47259 0)
(0.0031159 -1.47292 0)
(-0.00296639 -1.47292 0)
(-0.00921104 -1.47259 0)
(-0.0156226 -1.47195 0)
(-0.0206962 -1.47103 0)
(-0.0245417 -1.46985 0)
(0.0259113 -1.45706 0)
(0.0218253 -1.45837 0)
(0.0164533 -1.45942 0)
(0.00973976 -1.46016 0)
(0.00323856 -1.46054 0)
(-0.00309199 -1.46054 0)
(-0.00959337 -1.46016 0)
(-0.0163086 -1.45942 0)
(-0.0216844 -1.45837 0)
(-0.0257741 -1.45706 0)
(0.0273728 -1.44357 0)
(0.0229953 -1.44506 0)
(0.0172582 -1.44628 0)
(0.0101845 -1.44716 0)
(0.00338058 -1.44761 0)
(-0.00324126 -1.44761 0)
(-0.0100454 -1.44716 0)
(-0.0171207 -1.44628 0)
(-0.0228614 -1.44506 0)
(-0.0272421 -1.44356 0)
(0.0291423 -1.4292 0)
(0.0244103 -1.43095 0)
(0.0182234 -1.43241 0)
(0.010715 -1.43348 0)
(0.00354826 -1.43402 0)
(-0.00342125 -1.43402 0)
(-0.0105882 -1.43348 0)
(-0.0180978 -1.43241 0)
(-0.0242879 -1.43094 0)
(-0.0290225 -1.42918 0)
(0.0313411 -1.4137 0)
(0.0261696 -1.41583 0)
(0.0194157 -1.41765 0)
(0.0113702 -1.41898 0)
(0.00375454 -1.41966 0)
(-0.00364462 -1.41966 0)
(-0.0112603 -1.41897 0)
(-0.0193066 -1.41764 0)
(-0.026063 -1.41582 0)
(-0.0312363 -1.41369 0)
(0.0341651 -1.39676 0)
(0.0284427 -1.39943 0)
(0.0209558 -1.40174 0)
(0.0122237 -1.40343 0)
(0.004025 -1.4043 0)
(-0.00393534 -1.4043 0)
(-0.0121339 -1.40343 0)
(-0.0208663 -1.40173 0)
(-0.0283547 -1.39942 0)
(-0.034078 -1.39674 0)
(0.0379203 -1.37796 0)
(0.0315021 -1.38139 0)
(0.0230436 -1.38436 0)
(0.0134004 -1.38652 0)
(0.0044031 -1.38761 0)
(-0.00433412 -1.38761 0)
(-0.0133311 -1.38651 0)
(-0.0229739 -1.38436 0)
(-0.031433 -1.38138 0)
(-0.0378512 -1.37795 0)
(0.0430029 -1.35684 0)
(0.0357003 -1.36124 0)
(0.0259308 -1.36501 0)
(0.0150525 -1.3677 0)
(0.00494045 -1.36906 0)
(-0.00488964 -1.36906 0)
(-0.0150012 -1.3677 0)
(-0.0258786 -1.365 0)
(-0.0356478 -1.36123 0)
(-0.0429496 -1.35683 0)
(0.0497228 -1.33289 0)
(0.0412383 -1.33827 0)
(0.0296896 -1.34292 0)
(0.017206 -1.34621 0)
(0.0056451 -1.34786 0)
(-0.005608 -1.34786 0)
(-0.0171683 -1.3462 0)
(-0.0296505 -1.34291 0)
(-0.0411982 -1.33827 0)
(-0.0496814 -1.33288 0)
(0.0573935 -1.30556 0)
(0.047286 -1.31172 0)
(0.0335189 -1.31744 0)
(0.0194224 -1.32152 0)
(0.00639486 -1.32353 0)
(-0.00636701 -1.32353 0)
(-0.0193938 -1.32151 0)
(-0.0334887 -1.31744 0)
(-0.0472542 -1.31172 0)
(-0.05736 -1.30556 0)
(0.0613671 -1.27251 0)
(0.0499409 -1.28074 0)
(0.034939 -1.28919 0)
(0.0208474 -1.29445 0)
(0.00704327 -1.29648 0)
(-0.00702151 -1.29648 0)
(-0.0208249 -1.29446 0)
(-0.0349153 -1.2892 0)
(-0.0499156 -1.28075 0)
(-0.06134 -1.27251 0)
(0.052107 -1.22028 0)
(0.0416455 -1.2454 0)
(0.0318279 -1.26235 0)
(0.0209322 -1.26727 0)
(0.00763907 -1.26679 0)
(-0.0076216 -1.26679 0)
(-0.0209141 -1.26727 0)
(-0.0318097 -1.26236 0)
(-0.0416277 -1.24541 0)
(-0.0520876 -1.2203 0)
(0.0303639 -1.10872 0)
(0.0128057 -1.23467 0)
(0.0262284 -1.25344 0)
(0.014615 -1.24361 0)
(0.00673331 -1.23827 0)
(-0.00671989 -1.23827 0)
(-0.0146014 -1.24362 0)
(-0.026214 -1.25344 0)
(-0.0127961 -1.23468 0)
(-0.0303532 -1.10877 0)
(0.783013 -0.206155 0)
(0.918038 -0.186785 0)
(1.03534 -0.159895 0)
(1.12869 -0.125161 0)
(1.19248 -0.0842639 0)
(1.22528 -0.0404315 0)
(1.22596 0.00250096 0)
(1.19703 0.0399463 0)
(1.14743 0.0682612 0)
(1.08481 0.0861638 0)
(1.0155 0.094581 0)
(0.944528 0.0959059 0)
(0.875285 0.0926494 0)
(0.809756 0.086705 0)
(0.748989 0.079504 0)
(0.693288 0.0720626 0)
(0.642472 0.0650149 0)
(0.596097 0.0587486 0)
(0.553551 0.0534818 0)
(0.514138 0.0492968 0)
(0.477153 0.0461678 0)
(0.441937 0.0440041 0)
(0.407896 0.0426885 0)
(0.374517 0.0420929 0)
(0.341374 0.0420839 0)
(0.308128 0.0425405 0)
(0.274517 0.0433572 0)
(0.240357 0.0444328 0)
(0.20554 0.0456622 0)
(0.170049 0.0469337 0)
(0.133962 0.0481229 0)
(0.0974209 0.049075 0)
(0.0605253 0.0495667 0)
(0.0250733 0.049085 0)
(-0.00837323 0.0477245 0)
(-0.0400761 0.0405096 0)
(-0.0697022 0.0267363 0)
(-0.0830395 -0.00800468 0)
(-0.0720858 -0.0634066 0)
(-0.031966 -0.0856897 0)
(0.581513 -0.363653 0)
(0.679474 -0.322191 0)
(0.762721 -0.265432 0)
(0.826448 -0.194255 0)
(0.867922 -0.115016 0)
(0.888427 -0.0368639 0)
(0.892719 0.0334363 0)
(0.884651 0.0901846 0)
(0.866648 0.130566 0)
(0.84113 0.155058 0)
(0.810321 0.166274 0)
(0.775937 0.168099 0)
(0.739494 0.163859 0)
(0.702212 0.155799 0)
(0.665125 0.145866 0)
(0.628847 0.135373 0)
(0.593752 0.125127 0)
(0.560041 0.115745 0)
(0.527721 0.107637 0)
(0.49667 0.101004 0)
(0.466698 0.0958876 0)
(0.437578 0.0922128 0)
(0.409079 0.0898434 0)
(0.380981 0.0886021 0)
(0.353088 0.0882957 0)
(0.325236 0.0887301 0)
(0.2973 0.0897135 0)
(0.269206 0.0910451 0)
(0.240934 0.0925055 0)
(0.212532 0.0938421 0)
(0.184133 0.0947472 0)
(0.155967 0.0948139 0)
(0.128356 0.0934382 0)
(0.101885 0.0898285 0)
(0.0773342 0.0830428 0)
(0.0552164 0.0707917 0)
(0.0345942 0.0520876 0)
(0.0176288 0.0158013 0)