/*--------------------------------*- C++ -*----------------------------------*\
  =========                 |
  \\      /  F ield         | OpenFOAM: The Open Source CFD Toolbox
   \\    /   O peration     | Website:  https://openfoam.org
    \\  /    A nd           | Version:  8
     \\/     M anipulation  |
\*---------------------------------------------------------------------------*/
FoamFile
{
    version     2.0;
    format      ascii;
    class       surfaceScalarField;
    location    "0.6";
    object      alphaPhi0.water;
}
// * * * * * * * * * * * * * * * * * * * * * * * * * * * * * * * * * * * * * //

dimensions      [0 3 -1 0 0 0 0];

internalField   nonuniform List<scalar> 
18095
(
1.93658e-08
-1.71916e-07
1.5255e-07
2.3095e-08
-1.98465e-07
1.94736e-07
1.94642e-08
-2.05568e-07
2.09199e-07
1.01432e-08
-2.10357e-07
2.19678e-07
-5.4196e-10
-2.13346e-07
2.24031e-07
-1.07436e-08
-2.13502e-07
2.23704e-07
-1.96571e-08
-2.10754e-07
2.19667e-07
-2.31638e-08
-2.05749e-07
2.09256e-07
-1.93831e-08
-1.98441e-07
1.9466e-07
-1.71902e-07
1.52519e-07
1.55344e-08
-1.8745e-07
1.56119e-08
-1.98543e-07
1.22484e-08
-2.02205e-07
7.08937e-09
-2.05198e-07
5.12278e-10
-2.06769e-07
-6.23209e-09
-2.06758e-07
-1.2023e-08
-2.04963e-07
-1.56524e-08
-2.0212e-07
-1.55501e-08
-1.98543e-07
-1.87452e-07
6.8655e-09
-1.94316e-07
8.21715e-09
-1.99895e-07
6.95881e-09
-2.00946e-07
3.67283e-09
-2.01912e-07
-2.25665e-10
-2.0287e-07
-4.19535e-09
-2.02788e-07
-7.21754e-09
-2.01941e-07
-8.22538e-09
-2.01112e-07
-6.86509e-09
-1.99904e-07
-1.94317e-07
4.58406e-09
-1.989e-07
4.63637e-09
-1.99947e-07
3.73154e-09
-2.00042e-07
2.1579e-09
-2.00338e-07
1.29362e-11
-2.00725e-07
-2.03542e-09
-2.0074e-07
-3.54599e-09
-2.0043e-07
-4.60214e-09
-2.00056e-07
-4.57976e-09
-1.99926e-07
-1.98897e-07
1.10024e-09
1.15336e-09
1.11176e-09
7.7374e-10
4.83281e-11
-6.91568e-10
-1.1216e-09
-1.17712e-09
-1.10315e-09
-2.50268e-08
-1.97424e-07
2.22451e-07
-2.76493e-08
-1.98876e-07
2.01499e-07
-2.30407e-08
-2.01905e-07
1.97297e-07
-1.2997e-08
-2.00508e-07
1.90465e-07
-2.95907e-10
-2.01577e-07
1.88876e-07
1.2321e-08
-2.01387e-07
1.8877e-07
2.26837e-08
-2.00354e-07
1.89991e-07
2.75053e-08
-2.01855e-07
1.97034e-07
2.5024e-08
-1.98783e-07
2.01264e-07
-1.97331e-07
2.22355e-07
-1.04922e-08
-1.86932e-07
-1.63431e-08
-1.93025e-07
-1.56316e-08
-2.02617e-07
-7.10342e-09
-2.09036e-07
7.17586e-10
-2.09398e-07
8.36601e-09
-2.09035e-07
1.60705e-08
-2.08059e-07
1.63259e-08
-2.02111e-07
1.04858e-08
-1.92942e-07
-1.86845e-07
-1.08e-08
-1.76132e-07
-8.39529e-09
-1.9543e-07
-5.63241e-09
-2.0538e-07
-4.54079e-09
-2.10128e-07
-1.56697e-09
-2.12372e-07
1.68568e-09
-2.12288e-07
4.05803e-09
-2.10431e-07
7.75106e-09
-2.05804e-07
1.05503e-08
-1.95742e-07
-1.76294e-07
-7.4274e-09
-1.68705e-07
-9.83258e-09
-1.93025e-07
-9.42205e-09
-2.0579e-07
-4.44113e-09
-2.15109e-07
1.24289e-10
-2.16937e-07
5.03161e-09
-2.17195e-07
1.04188e-08
-2.15818e-07
1.0562e-08
-2.05947e-07
7.69515e-09
-1.92875e-07
-1.68599e-07
-1.61549e-08
-1.44433e-08
-1.10346e-08
-6.46585e-09
6.28333e-10
7.13733e-09
1.09864e-08
1.4295e-08
1.60805e-08
3.09024e-08
-1.5683e-07
1.25928e-07
3.41865e-08
-1.98288e-07
1.95004e-07
2.47782e-08
-2.10043e-07
2.19451e-07
1.01126e-08
-2.15925e-07
2.3059e-07
-6.56369e-09
-2.18004e-07
2.3468e-07
-2.13758e-08
-2.17313e-07
2.32125e-07
-3.17949e-08
-2.16399e-07
2.26818e-07
-3.7505e-08
-2.10941e-07
2.16651e-07
-3.08954e-08
-1.98964e-07
1.92355e-07
-1.57294e-07
1.26398e-07
1.6717e-08
-1.73547e-07
1.98247e-08
-2.01396e-07
1.70918e-08
-2.0731e-07
1.09207e-08
-2.09754e-07
1.89977e-09
-2.08983e-07
-6.82015e-09
-2.08593e-07
-1.39966e-08
-2.09222e-07
-1.80674e-08
-2.0687e-07
-1.60171e-08
-2.01015e-07
-1.73311e-07
1.08525e-08
-1.84399e-07
1.00118e-08
-2.00555e-07
7.96979e-09
-2.05268e-07
3.08004e-09
-2.04864e-07
-8.40545e-10
-2.05062e-07
-4.55133e-09
-2.04882e-07
-9.01643e-09
-2.04757e-07
-1.05665e-08
-2.0532e-07
-1.10943e-08
-2.00487e-07
-1.84405e-07
7.86073e-09
-1.9226e-07
6.99719e-09
-1.99691e-07
7.11738e-09
-2.05388e-07
2.29321e-09
-2.0004e-07
-2.34609e-10
-2.02535e-07
-2.45678e-09
-2.0266e-07
-6.92253e-09
-2.00292e-07
-6.92601e-09
-2.05316e-07
-7.83631e-09
-1.99577e-07
-1.92242e-07
3.01911e-08
3.19981e-08
2.39071e-08
1.4332e-08
6.73062e-10
-1.32175e-08
-2.35176e-08
-3.18002e-08
-3.01129e-08
-1.30088e-06
4.43698e-08
1.25685e-06
-1.29365e-06
-6.84995e-09
-1.13589e-06
-1.57168e-07
-7.28567e-07
-4.06007e-07
-1.36754e-07
-5.97319e-07
3.80636e-07
-5.1513e-07
7.12834e-07
-3.29876e-07
9.2284e-07
-2.00573e-07
1.07457e-06
-1.46135e-07
-1.04307e-07
1.18328e-06
-4.03834e-07
1.52476e-07
2.96061e-07
-5.05837e-07
9.57581e-08
-5.41857e-07
-1.30688e-07
-4.48517e-07
-5.00055e-07
-1.19712e-07
-9.19336e-07
1.70995e-07
-8.01345e-07
2.75116e-07
-1.84678e-07
5.46838e-07
-1.73215e-07
6.76005e-07
-2.40115e-07
-2.55291e-07
5.86616e-07
-2.41811e-07
1.39555e-08
3.48452e-07
-6.4479e-08
-1.11436e-08
-3.94434e-08
-1.64574e-07
-1.26223e-07
-2.62005e-07
-9.10626e-08
-9.10752e-07
3.3333e-08
-9.08193e-07
3.49804e-08
-1.93518e-07
1.62848e-07
-2.36972e-07
3.18358e-07
-4.18437e-07
-3.53661e-07
3.13389e-07
-2.97217e-07
-9.45826e-09
2.59617e-07
-1.18896e-07
-6.73934e-08
-8.22596e-09
-7.66205e-08
-1.68747e-08
-9.3598e-08
-1.41084e-08
-9.39335e-07
-7.38284e-11
-9.85365e-07
1.98645e-08
-2.20649e-07
2.06892e-07
-3.56897e-07
1.7038e-07
-3.94995e-07
-5.65865e-08
8.40953e-08
-1.98774e-08
-7.32639e-09
1.60536e-08
-7.73288e-09
-2.71117e-08
0
-3.39608e-08
5.46278e-09
-1.49389e-07
4.06145e-09
-9.77512e-07
2.12392e-08
-1.00235e-06
4.07988e-09
-2.26315e-07
9.64404e-08
-3.8137e-07
3.99951e-08
-1.20779e-07
-4.35216e-09
3.68323e-09
-1.18997e-08
-6.21562e-09
1.0842e-08
-3.6739e-09
-3.66439e-08
-3.28107e-09
-5.66204e-08
3.26035e-08
-4.13471e-07
2.82312e-08
-9.72951e-07
2.8219e-08
-1.00219e-06
6.71932e-09
-3.36576e-07
5.67677e-08
-3.68145e-07
3.33741e-09
-8.18044e-08
-1.20759e-09
1.62083e-10
4.6585e-09
-2.84169e-08
1.44394e-09
1.81517e-08
-1.95264e-07
2.49483e-08
-7.93164e-08
5.75268e-08
-4.82109e-07
5.79764e-08
-9.73154e-07
6.58941e-08
-1.00992e-06
1.33051e-08
-3.23936e-07
1.7499e-08
-1.11481e-07
0
-8.93754e-08
-9.49487e-10
1.32403e-11
5.4493e-08
-1.29088e-07
-4.94573e-08
7.80534e-08
-2.06711e-07
4.28957e-08
-7.13348e-08
5.49476e-08
-3.91408e-07
6.16764e-08
-9.79538e-07
5.96626e-08
-1.00766e-06
1.99713e-08
-2.63192e-07
1.16298e-09
-1.04959e-07
1.37909e-09
-1.12782e-07
-6.26666e-10
-1.62524e-16
9.73813e-08
-1.17389e-07
-9.25924e-08
9.1447e-08
-1.8721e-07
7.51137e-08
-1.34726e-07
6.25908e-08
-2.76212e-07
6.69267e-08
-9.83105e-07
4.20347e-08
-9.82424e-07
7.16565e-09
-2.38182e-07
1.0905e-10
-1.14361e-07
-1.23659e-11
-1.01987e-07
-4.77311e-14
-9.6638e-14
7.9277e-08
-1.17164e-08
-2.43326e-11
1.10811e-07
-1.79111e-07
9.01983e-08
-1.64997e-07
4.24474e-08
-2.70697e-07
6.68697e-08
-9.94741e-07
3.25976e-08
-9.41221e-07
-8.87681e-09
-2.66619e-07
-1.82017e-08
-1.15059e-07
-1.73914e-13
-9.19893e-08
-1.00687e-13
-3.17393e-14
-3.53622e-09
-1.17786e-08
0
-5.79766e-09
-1.84016e-07
-5.22064e-09
-2.17722e-07
-7.40154e-09
-3.15036e-07
6.3249e-10
-1.03008e-06
-4.27e-08
-8.96083e-07
-7.9019e-08
-2.55135e-07
-3.99995e-08
-1.07829e-07
-7.56872e-13
-8.55342e-09
-1.80673e-13
-3.50802e-13
-1.9965e-08
-1.09017e-08
4.44031e-11
-1.56229e-08
-1.92931e-07
-2.24257e-08
-2.61422e-07
-6.18377e-08
-3.86391e-07
-6.41421e-08
-1.03037e-06
-8.40049e-08
-8.79807e-07
-8.30329e-08
-2.26373e-07
-1.21941e-08
-5.05122e-08
-1.06863e-12
-2.61325e-13
-1.46927e-13
-1.06551e-12
-1.27857e-08
-2.93162e-09
9.62382e-11
-1.33071e-08
-1.68792e-07
-2.18829e-08
-2.28773e-07
-8.38931e-08
-3.18156e-07
-9.81614e-08
-1.02053e-06
-7.28353e-08
-9.08204e-07
-4.09252e-08
-1.65531e-07
-1.7562e-13
-5.83838e-09
-8.71573e-13
-1.94333e-13
1.50852e-13
-1.67716e-12
1.19323e-09
-8.64093e-13
-4.7015e-14
-1.10764e-09
-7.97208e-08
-5.67496e-09
-1.06612e-07
-7.22795e-08
-2.3177e-07
-9.90716e-08
-9.98567e-07
-5.28114e-08
-9.61249e-07
-2.38172e-08
-1.04767e-07
-2.07883e-12
-3.02344e-11
-2.80696e-12
3.9337e-15
1.30747e-12
-4.72075e-12
8.41966e-12
-9.08429e-12
-1.04593e-13
2.37783e-08
-1.38689e-08
3.66069e-08
-4.93513e-08
-3.59866e-08
-1.72896e-07
-7.75001e-08
-9.1654e-07
-3.31927e-08
-1.0121e-06
-6.36146e-10
-8.72784e-08
-2.00749e-12
-6.6509e-10
-2.86562e-12
2.10941e-13
3.00953e-12
-5.28491e-12
1.05765e-10
-1.14127e-10
-5.42366e-13
1.46074e-08
-4.67558e-09
6.78494e-08
-4.52251e-08
7.08098e-09
-1.21209e-07
-1.93015e-08
-8.77632e-07
-1.23707e-08
-1.02714e-06
0
-1.61561e-07
1.9273e-11
-3.09066e-09
-1.26916e-12
1.97504e-11
5.50711e-12
-1.9896e-11
8.02491e-10
-9.07563e-10
-6.01902e-12
1.22682e-08
-6.61319e-09
5.13149e-08
-4.92066e-08
3.44495e-08
-8.66642e-08
3.09025e-08
-9.08661e-07
1.45692e-08
-1.02317e-06
1.19994e-08
-2.86429e-07
8.88162e-10
-5.99275e-09
5.26383e-11
7.79964e-10
5.28988e-11
-1.34744e-11
1.24398e-08
-2.62185e-09
-3.8522e-10
2.84311e-08
-1.40793e-08
4.54592e-08
-4.43813e-08
3.95226e-08
-6.69238e-08
5.92189e-08
-9.22504e-07
4.94504e-08
-1.02883e-06
1.20914e-08
-2.77429e-07
1.59142e-10
-2.43519e-09
5.1864e-11
7.79014e-10
7.85744e-11
-4.46761e-12
5.95534e-08
-8.6236e-09
-1.94381e-08
8.7221e-08
-1.66664e-08
8.79328e-08
-2.68054e-08
6.07251e-08
-2.87292e-08
1.05073e-07
-9.41291e-07
8.61277e-08
-1.02021e-06
2.47355e-09
-1.71093e-07
0
-2.6117e-10
-8.13984e-12
3.83553e-10
3.93168e-11
0
7.95528e-08
-5.65103e-09
-6.41149e-08
1.0625e-07
-1.64088e-08
1.09832e-07
-1.2595e-08
8.3002e-08
3.01388e-09
1.26702e-07
-9.64148e-07
1.28282e-07
-1.03585e-06
3.41399e-10
-7.1609e-08
-2.65498e-10
4.1119e-10
-1.36759e-11
1.01048e-10
1.74955e-11
-6.79887e-13
3.4143e-08
-2.27389e-10
-1.4011e-08
8.34746e-08
-1.72182e-11
7.11155e-08
1.69063e-08
2.42059e-08
1.81988e-08
4.58465e-08
-9.94346e-07
5.29902e-08
-1.04465e-06
-5.44562e-10
-2.24303e-08
-1.26656e-10
5.52163e-11
-9.96298e-13
8.3894e-11
9.85509e-12
8.35954e-14
7.94338e-10
-2.68948e-10
-7.66845e-10
6.18595e-10
1.41729e-10
1.71891e-08
3.07658e-08
5.95356e-09
1.45206e-08
1.33973e-08
-1.01211e-06
1.06486e-08
-1.03527e-06
-7.08312e-11
-1.95039e-08
-7.31895e-12
2.53212e-11
1.53402e-11
6.61378e-11
1.17278e-11
2.3279e-12
7.04861e-10
-2.83437e-10
-7.07168e-10
6.3636e-10
1.95725e-10
5.72127e-09
4.33655e-08
-8.31923e-09
1.47312e-08
-1.67751e-08
-1.01428e-06
-1.00032e-08
-1.02687e-06
2.55311e-11
-2.31951e-08
0
8.48836e-11
9.94042e-12
4.08503e-11
1.66961e-11
3.23484e-12
1.58051e-09
-3.39368e-10
-2.41235e-09
8.39089e-10
9.20346e-10
0
7.39571e-08
-4.1068e-09
6.70465e-09
-6.20296e-09
-1.00931e-06
-3.8094e-09
-1.02129e-06
0
-1.83791e-08
7.33497e-11
2.19604e-10
2.01172e-12
2.27434e-10
1.84892e-11
1.09295e-12
2.0016e-09
1.99354e-10
-3.42076e-09
-1.7967e-08
2.58766e-08
0
8.78926e-08
6.11341e-09
-2.50972e-09
1.24383e-08
-1.00346e-06
8.84268e-09
-1.00973e-06
0
-9.6622e-09
-9.94601e-10
1.20502e-09
-1.39273e-09
2.14076e-09
2.37876e-09
-2.36925e-12
0
9.1829e-10
-7.93195e-10
-2.29222e-08
5.08961e-08
0
9.66703e-08
7.1261e-09
-9.40496e-09
4.74934e-08
-1.00014e-06
2.00439e-08
-1.00778e-06
0
-6.36274e-09
-7.82399e-11
7.1372e-10
-9.79319e-10
3.48938e-09
3.44628e-09
-1.75143e-09
-1.28232e-10
1.36943e-09
0
-1.92438e-08
4.6732e-08
0
1.08105e-07
5.94296e-10
-9.90725e-09
1.6562e-08
-9.97639e-07
4.55783e-09
-9.98976e-07
2.66486e-10
-9.65684e-09
4.98573e-10
1.80504e-10
4.33127e-10
1.92161e-09
4.60774e-09
-4.00793e-10
0
1.47006e-09
-1.09153e-10
-4.8437e-09
2.20034e-08
0
2.74107e-08
7.86719e-09
-9.72143e-09
2.3602e-08
-9.9092e-07
1.51995e-08
-9.94836e-07
0
-1.04446e-08
0
-6.7761e-13
1.10816e-09
1.69893e-10
1.69802e-09
1.43311e-09
2.31907e-09
1.45592e-09
-9.53434e-10
2.32403e-09
6.02226e-10
1.05493e-09
1.45378e-09
9.90127e-09
-6.46162e-09
2.23364e-08
-9.85491e-07
1.75577e-08
-9.89765e-07
5.86458e-11
-1.04835e-08
2.6862e-12
-4.954e-12
1.11351e-10
1.80831e-11
5.19394e-11
9.51681e-10
1.35704e-09
8.77004e-10
-1.58697e-09
4.84064e-10
3.8292e-10
3.95078e-10
5.5029e-10
1.02789e-08
-5.7178e-09
2.21868e-08
-9.8127e-07
1.64724e-08
-9.83316e-07
1.86629e-12
-6.0341e-09
-3.57668e-12
-2.63465e-13
-3.67961e-13
4.92488e-12
1.63699e-11
3.4563e-11
9.94207e-11
4.10569e-10
-5.18781e-10
6.94336e-11
3.10569e-10
2.23796e-10
3.46817e-10
9.44975e-09
-3.78983e-10
1.34298e-08
-9.7743e-07
8.30783e-09
-9.78526e-07
-1.97504e-12
-6.14009e-10
-3.02224e-12
6.9567e-13
-3.05991e-12
4.81113e-12
1.05185e-11
-6.48088e-13
-3.56082e-11
4.83396e-10
-9.57958e-11
-1.1575e-11
2.4419e-10
4.09386e-11
9.36806e-11
9.68113e-13
-3.2564e-10
-3.27477e-09
-9.68826e-07
-5.09058e-09
-9.69289e-07
-1.1737e-12
-1.01525e-09
-2.31751e-12
1.80037e-12
-2.35533e-12
4.76128e-12
7.94902e-12
-5.91206e-13
-6.25773e-11
3.21964e-10
1.23367e-10
-1.61256e-11
1.52994e-10
1.03639e-11
4.33484e-11
-1.14109e-09
-2.03488e-11
-7.40329e-09
-9.62502e-07
-6.57353e-09
-9.61201e-07
-1.27989e-12
-4.00944e-12
-1.92779e-12
2.43753e-12
-1.798e-12
4.59503e-12
6.24908e-12
-4.50892e-13
-7.11783e-11
2.45595e-10
1.88636e-10
-1.40185e-11
1.66774e-10
1.41898e-12
2.79308e-11
1.12856e-12
-2.00674e-11
4.05666e-09
-9.58163e-07
-1.2044e-13
-9.59326e-07
-3.69967e-13
-3.77072e-12
-5.46465e-13
2.60777e-12
-7.735e-13
4.80454e-12
5.65492e-12
-3.02974e-13
-5.98323e-11
2.42424e-10
1.11304e-10
-8.37379e-12
2.00245e-10
1.4479e-14
1.95474e-11
9.68433e-14
-2.01565e-11
-3.31916e-09
-9.7088e-07
-7.40737e-13
-9.71072e-07
-6.6694e-14
-4.44973e-12
1.07906e-13
2.42776e-12
1.70854e-13
4.73376e-12
5.69983e-12
9.96786e-14
-5.09225e-11
1.15525e-09
2.10571e-10
-3.02716e-12
1.38059e-10
1.13135e-13
1.63886e-11
2.42363e-13
-2.02915e-11
-6.04895e-10
-9.89919e-07
-4.33365e-12
-9.89608e-07
8.25256e-14
-8.87221e-12
3.00363e-13
2.20495e-12
3.79553e-13
4.64826e-12
5.58498e-12
4.8396e-13
-1.09008e-10
1.82306e-09
3.43538e-10
-1.7141e-12
4.95145e-11
1.27855e-13
1.45289e-11
3.18296e-13
-2.05005e-11
-2.15098e-09
-9.99243e-07
-2.43011e-11
-9.98301e-07
1.59088e-14
-3.37302e-11
-4.02289e-14
1.26154e-09
5.7658e-14
4.54008e-12
5.38958e-12
2.44798e-13
-1.16477e-10
1.5431e-09
4.3192e-10
-2.11545e-12
4.41974e-11
3.67507e-13
1.20308e-11
1.3654e-12
-2.15161e-11
-2.52129e-09
-1.00138e-06
-1.76661e-10
-1.00053e-06
-1.17757e-10
-9.64276e-11
-2.58504e-10
8.41123e-09
-1.87946e-12
5.37865e-09
1.04332e-10
-1.0084e-10
-2.17107e-11
7.66081e-10
4.25899e-10
-3.93696e-12
2.64188e-11
1.02211e-12
7.05304e-12
7.51625e-12
-2.80254e-11
-2.4182e-09
-1.00329e-06
-5.94561e-10
-1.00182e-06
-6.53925e-10
-5.91156e-11
-7.16362e-10
9.37646e-09
-8.97225e-10
1.34303e-08
1.5855e-08
-1.20883e-10
-8.75501e-12
7.37614e-10
5.83162e-11
-1.69976e-10
2.05252e-10
3.6107e-11
1.14888e-09
5.37186e-11
-4.52991e-11
-2.81233e-09
-1.00746e-06
-2.68342e-10
-1.00674e-06
-3.17361e-10
-2.85903e-11
-1.51492e-09
7.06741e-09
-7.47625e-10
1.38275e-08
1.55576e-08
1.86678e-10
-2.58014e-10
2.45429e-09
6.85785e-10
8.00208e-11
1.89934e-09
2.2797e-10
1.19147e-09
2.33556e-10
-4.9051e-11
-1.8086e-09
-1.01289e-06
-8.90594e-11
-1.01192e-06
-1.07024e-10
-1.15827e-11
-2.77073e-10
1.34273e-09
-2.90571e-10
1.02347e-08
1.47968e-08
6.83931e-10
-5.07855e-10
1.88146e-09
1.34989e-09
3.39353e-10
1.23461e-09
4.66315e-10
1.26409e-09
4.18386e-10
-1.53549e-12
-2.30766e-09
-1.01667e-06
-2.10574e-13
-1.01595e-06
0
-1.27503e-11
4.80207e-10
2.12547e-10
2.28259e-09
1.1017e-09
8.59842e-09
2.46233e-09
-8.99135e-10
5.82231e-11
1.74642e-09
-5.54317e-10
1.90668e-11
1.4199e-11
1.04461e-11
1.26636e-11
-1.72298e-16
-2.61098e-09
-1.01949e-06
-4.8688e-12
-1.01833e-06
-3.19642e-12
-1.53584e-11
9.55691e-11
1.126e-10
9.20295e-10
1.96863e-10
8.14226e-10
3.21675e-09
-2.95131e-11
1.65708e-12
6.83313e-11
-1.04461e-11
-1.30421e-16
-2.78107e-19
-4.72946e-17
3.11387e-17
-2.31404e-16
-2.67543e-09
-1.02125e-06
-2.64745e-11
-1.01975e-06
-2.65149e-11
-1.62815e-11
1.76113e-10
1.31561e-10
1.3361e-10
1.55758e-10
4.21681e-10
3.99894e-10
-9.85132e-17
5.6997e-15
1.65147e-12
-3.88262e-17
-1.97081e-16
-6.0847e-18
-9.30731e-17
3.33266e-16
-5.85941e-16
-2.03445e-09
-1.02175e-06
-6.29113e-11
-1.01958e-06
-4.79678e-11
-3.00041e-11
-8.37237e-13
3.34397e-10
1.63578e-11
5.46027e-11
2.63054e-10
9.09351e-11
-3.90099e-16
-1.61399e-16
6.41722e-15
-1.78078e-17
-3.84885e-16
3.98125e-20
-1.246e-16
2.10676e-15
-2.70555e-15
-1.42086e-09
-1.01977e-06
-2.64237e-10
-1.01793e-06
-2.94015e-10
-2.32405e-13
-1.52889e-12
3.02771e-10
8.16831e-11
2.26555e-10
3.08661e-10
2.62478e-10
-1.86686e-16
-2.79864e-16
3.00771e-16
-1.25371e-17
-5.38852e-16
1.00675e-17
-9.90729e-17
1.27058e-14
-1.53684e-14
6.32986e-10
-1.01451e-06
-5.42631e-15
-1.01362e-06
0
-2.43883e-13
3.26447e-10
1.00375e-11
4.44546e-10
2.35361e-11
1.81363e-11
5.18169e-10
-1.60906e-16
-3.65609e-16
2.51891e-16
-3.518e-18
-6.69884e-16
1.18054e-16
-8.27123e-17
7.75362e-14
-9.26436e-14
1.39046e-09
-1.00715e-06
-1.78455e-14
-1.00732e-06
0
-2.67543e-13
6.39259e-12
-2.29183e-12
1.3672e-11
-1.00915e-12
0
3.06069e-11
-1.58114e-16
-4.20895e-16
1.91919e-16
-1.69187e-18
-7.89644e-16
8.49237e-18
-8.75892e-17
4.69484e-13
-3.15336e-13
1.59794e-09
-1.00082e-06
-1.03021e-13
-1.00048e-06
0
-3.80287e-13
2.68127e-13
-9.05001e-13
1.25913e-13
-2.81567e-13
-7.40619e-15
1.36588e-13
-1.50443e-16
-4.47865e-16
1.42717e-16
-1.77696e-18
-9.15535e-16
9.05189e-18
-9.25968e-17
1.603e-12
-1.91832e-12
9.90675e-10
-9.93815e-07
-1.26666e-12
-9.93693e-07
-1.47326e-14
-1.62929e-12
3.51215e-14
-8.29001e-14
2.84213e-14
-4.80529e-15
-3.59315e-16
2.19537e-15
-1.34562e-16
-4.46541e-16
9.49364e-17
-2.09631e-18
-1.03882e-15
7.6582e-18
-9.61345e-17
9.63381e-12
-1.15521e-11
-2.79077e-10
-9.88509e-07
-8.71107e-12
-9.8754e-07
-4.87221e-15
-1.03465e-11
1.19873e-15
-8.93061e-14
8.99067e-17
-3.5391e-15
-2.58606e-16
1.55786e-16
-8.32839e-17
-4.55639e-16
5.14364e-17
-1.36736e-18
-1.10322e-15
7.16031e-18
-9.8455e-17
5.80656e-11
-6.96177e-11
-1.10041e-09
-9.83052e-07
-5.53581e-11
-9.82001e-07
-8.21567e-14
-6.57468e-11
2.28038e-15
-4.20892e-13
0
-1.11053e-14
-4.19699e-16
1.13965e-16
-4.67242e-17
-4.75176e-16
2.3365e-17
0
-1.12596e-15
5.30502e-18
-9.8817e-17
2.67659e-10
-3.37277e-10
-2.0461e-09
-9.8178e-07
-3.1515e-10
-9.80778e-07
0
-3.813e-10
1.52269e-14
-9.93882e-13
0
-1.13533e-14
-5.04468e-16
4.70671e-17
2.07797e-17
-4.99647e-16
-7.60344e-18
2.47974e-17
-1.10835e-15
2.72659e-17
-9.67973e-17
1.64891e-09
-1.98619e-09
-2.35984e-09
-9.82155e-07
-1.81425e-09
-9.8188e-07
0
-2.1961e-09
7.95294e-15
-1.36971e-12
0
-9.23706e-15
-4.98683e-16
5.02909e-17
6.80321e-17
-5.31827e-16
-3.4639e-17
6.8844e-17
-1.07129e-15
7.01846e-17
-9.32065e-17
1.46927e-09
-4.39579e-09
-1.41712e-09
-9.83465e-07
-2.37251e-09
-9.83095e-07
1.37822e-12
-4.43805e-09
8.53397e-15
-2.41893e-17
4.20925e-17
-6.17715e-16
-4.22669e-16
5.36617e-17
1.16393e-16
-5.66098e-16
-6.59718e-17
1.2323e-16
-1.03966e-15
1.19718e-16
-8.4211e-17
4.97516e-09
-1.11449e-08
-1.62846e-09
-9.81563e-07
-5.93298e-09
-9.81484e-07
-1.96895e-18
-1.12241e-08
0
-2.52607e-17
5.30998e-17
-5.35953e-16
-4.02841e-16
6.75374e-17
1.45117e-16
-5.80231e-16
-1.02335e-16
1.29896e-16
-9.91604e-16
1.27556e-16
-7.57336e-17
1.57594e-09
-1.45305e-08
-1.45774e-09
-9.83002e-07
-2.66149e-09
-9.82734e-07
-1.55783e-18
-1.46922e-08
0
-2.62239e-17
2.51331e-17
-4.74739e-16
-3.90813e-16
3.65008e-17
1.65948e-16
-5.6387e-16
-1.41312e-16
1.56104e-16
-9.59711e-16
1.51336e-16
-6.42836e-17
5.3117e-09
-2.18365e-08
-1.68026e-09
-9.80318e-07
-6.41529e-09
-9.80319e-07
-7.2957e-18
-2.20455e-08
-6.84616e-18
-2.64939e-17
4.7217e-18
-4.27728e-16
-3.79356e-16
1.0329e-17
1.63626e-16
-5.12405e-16
-1.66017e-16
1.34163e-16
-9.10176e-16
1.3312e-16
-5.63698e-17
1.80019e-09
-2.53782e-08
-1.33705e-09
-9.80646e-07
-2.75574e-09
-9.80552e-07
-1.59667e-17
-2.55597e-08
-1.68504e-17
-2.59583e-17
-1.58617e-17
-3.70104e-16
-3.60876e-16
-1.22916e-17
1.68744e-16
-4.59776e-16
-1.78562e-16
1.60777e-16
-8.74284e-16
1.56176e-16
-4.54575e-17
5.74016e-09
-3.26741e-08
-1.5671e-09
-9.76178e-07
-6.86507e-09
-9.76072e-07
-2.54819e-17
-3.28524e-08
-2.81483e-17
-2.39075e-17
-3.16938e-17
-3.21228e-16
-3.24344e-16
-3.06226e-17
1.48611e-16
-4.27134e-16
-1.65821e-16
1.2732e-16
-8.07603e-16
1.2571e-16
-3.86893e-17
1.95451e-09
-3.57014e-08
-1.51167e-09
-9.74462e-07
-3.08229e-09
-9.74263e-07
-2.8029e-17
-3.58312e-08
-3.04473e-17
-2.20916e-17
-4.29876e-17
-2.76197e-16
-2.74242e-16
-5.19552e-17
1.50104e-16
-4.18177e-16
-1.54517e-16
1.49271e-16
-7.42208e-16
1.44093e-16
-2.95629e-17
6.20036e-09
-4.2475e-08
-1.48789e-09
-9.67569e-07
-7.33575e-09
-9.67247e-07
-4.00355e-17
-4.25466e-08
-4.47624e-17
-1.79971e-17
-5.95053e-17
-2.44249e-16
-2.41954e-16
-6.22549e-17
1.34891e-16
-3.56368e-16
-1.19265e-16
1.1875e-16
-6.61276e-16
1.15667e-16
-2.36309e-17
2.29913e-09
-4.47666e-08
-1.48532e-09
-9.63553e-07
-3.39903e-09
-9.63307e-07
-2.91187e-17
-4.47996e-08
-3.16022e-17
-1.60394e-17
-4.8188e-17
-2.17517e-16
-2.10757e-16
-4.99305e-17
1.35841e-16
-3.03879e-16
-8.20778e-17
1.18282e-16
-5.18048e-16
1.12782e-16
-1.624e-17
6.79419e-09
-5.10192e-08
-1.25082e-09
-9.5443e-07
-7.82357e-09
-9.53988e-07
-3.92514e-17
-5.10124e-08
-4.32219e-17
-1.24798e-17
-6.21609e-17
-1.89292e-16
-1.79253e-16
-6.4833e-17
1.18894e-16
-2.55031e-16
-6.14907e-17
6.96274e-17
-3.93346e-16
6.67076e-17
-1.20604e-17
2.67533e-09
-5.29008e-08
-1.50277e-09
-9.48865e-07
-3.80161e-09
-9.48638e-07
-2.94442e-17
-5.29082e-08
-3.1881e-17
-1.03885e-17
-5.10393e-17
-1.61614e-16
-1.48613e-16
-5.33553e-17
1.20903e-16
-2.15395e-16
-5.42876e-17
5.6969e-17
-2.65565e-16
5.32454e-17
-7.532e-18
7.45522e-09
-5.93711e-08
-1.2563e-09
-9.38531e-07
-8.5594e-09
-9.38107e-07
-3.08688e-17
-5.93927e-08
-3.3635e-17
-7.8944e-18
-5.14638e-17
-1.3501e-16
-1.22737e-16
-5.74169e-17
1.01002e-16
-1.44104e-16
-3.8783e-17
2.91243e-17
-1.41224e-16
2.7185e-17
-5.14784e-18
3.05345e-09
-6.16446e-08
-1.47121e-09
-9.32867e-07
-4.20816e-09
-9.32735e-07
-2.21934e-17
-6.17295e-08
-2.39256e-17
-6.36333e-18
-4.25213e-17
-1.09335e-16
-9.91061e-17
-4.58521e-17
6.5366e-17
-5.99031e-17
-2.34026e-17
1.84778e-17
-6.28631e-17
1.70431e-17
-3.48091e-18
8.32333e-09
-6.9432e-08
-1.13533e-09
-9.2271e-07
-9.35568e-09
-9.22513e-07
-2.0113e-17
-6.95631e-08
-2.18809e-17
-4.73486e-18
-4.05103e-17
-8.3953e-17
-7.76748e-17
-4.17474e-17
2.63853e-17
-1.7172e-17
-1.64559e-17
7.77213e-18
-3.47825e-17
7.31868e-18
-2.87275e-18
3.63174e-09
-7.30707e-08
-1.06784e-09
-9.18095e-07
-4.52108e-09
-9.18104e-07
-1.27844e-17
-7.32447e-08
-1.38029e-17
-3.80731e-18
-3.0357e-17
-6.08581e-17
-5.22975e-17
-3.52373e-17
1.19058e-17
-1.12468e-17
-1.3862e-17
7.15084e-18
-2.8699e-17
6.76443e-18
-2.373e-18
9.42965e-09
-8.29576e-08
-7.65787e-10
-9.08514e-07
-1.0125e-08
-9.0858e-07
-1.12268e-17
-8.3139e-08
-1.21563e-17
-2.91719e-18
-2.35984e-17
-4.46903e-17
-3.35669e-17
-2.98146e-17
8.96242e-18
-8.33291e-18
-1.10644e-17
5.57073e-18
-2.44214e-17
5.33352e-18
-2.05916e-18
4.29787e-09
-8.8141e-08
-5.40679e-10
-9.04619e-07
-4.79872e-09
-9.04713e-07
-7.49269e-18
-8.82982e-08
-7.98539e-18
-2.41859e-18
-1.58212e-17
-3.2918e-17
-2.05655e-17
-2.04419e-17
8.80471e-18
-6.22956e-18
-9.88683e-18
5.82446e-18
-1.98461e-17
5.48056e-18
-1.66937e-18
1.06357e-08
-9.99747e-08
-5.34546e-10
-8.94609e-07
-1.10564e-08
-8.94888e-07
-6.91289e-18
-1.00082e-07
-7.38099e-18
-1.91096e-18
-1.24732e-17
-2.4112e-17
-1.34357e-17
-1.32043e-17
6.97509e-18
-4.1607e-18
-7.17575e-18
3.98992e-18
-1.50243e-17
3.77288e-18
-1.42997e-18
4.82734e-09
-1.06095e-07
-4.21336e-10
-8.90473e-07
-5.33702e-09
-8.90613e-07
-4.37661e-18
-1.06187e-07
-4.6167e-18
-1.61337e-18
-9.03812e-18
-1.64088e-17
-8.23648e-18
-8.57982e-18
6.18574e-18
-2.86187e-18
-4.96458e-18
3.70479e-18
-1.07597e-17
3.45594e-18
-1.17171e-18
1.18361e-08
-1.19154e-07
-6.26418e-10
-8.79014e-07
-1.23855e-08
-8.79382e-07
-3.52347e-18
-1.19224e-07
-3.74263e-18
-1.33278e-18
-7.33413e-18
-1.03537e-17
-4.74904e-18
-5.83389e-18
4.65786e-18
-1.56884e-18
-3.11298e-18
2.23284e-18
-6.95742e-18
2.09513e-18
-1.0186e-18
5.44996e-09
-1.25409e-07
-3.87087e-10
-8.73798e-07
-5.95959e-09
-8.7403e-07
-1.96899e-18
-1.25457e-07
-2.06627e-18
-1.18046e-18
-4.75501e-18
-6.20393e-18
-2.10823e-18
-3.69869e-18
3.45409e-18
-9.43136e-19
-2.21551e-18
1.83931e-18
-4.51441e-18
1.74668e-18
-8.82449e-19
1.33788e-08
-1.39205e-07
-5.01801e-10
-8.6026e-07
-1.38567e-08
-8.60654e-07
-1.62514e-18
-1.39225e-07
-1.70858e-18
-1.0561e-18
-3.07832e-18
-4.06255e-18
-1.06875e-18
-2.42018e-18
2.37455e-18
-4.96231e-19
-1.62304e-18
1.04845e-18
-2.67927e-18
1.04314e-18
-7.98404e-19
6.38151e-09
-1.45623e-07
-3.4446e-10
-8.53575e-07
-6.8384e-09
-8.5388e-07
-1.00795e-18
-1.45629e-07
-1.05235e-18
-9.79527e-19
-1.99899e-18
-2.60489e-18
-5.1322e-19
-1.55467e-18
1.68513e-18
-2.45839e-19
-1.19063e-18
7.57956e-19
-1.42677e-18
7.8826e-19
-7.3237e-19
1.51011e-08
-1.60449e-07
-3.53212e-10
-8.37939e-07
-1.55355e-08
-8.38217e-07
-8.37769e-19
-1.60448e-07
-8.5684e-19
-9.16118e-19
-1.49674e-18
-1.58616e-18
-2.44375e-19
-1.06122e-18
9.02419e-19
-8.72316e-20
-6.64448e-19
3.73699e-19
-6.98002e-19
4.09216e-19
-6.92052e-19
7.66551e-09
-1.67855e-07
-3.05216e-10
-8.29798e-07
-8.05161e-09
-8.30047e-07
-5.19432e-19
-1.67856e-07
-4.74551e-19
-8.7178e-19
-9.24674e-19
-8.70416e-19
-8.25465e-20
-6.20262e-19
4.58139e-19
-3.63974e-20
-3.00974e-19
2.64671e-19
-3.68093e-19
2.9403e-19
-6.70677e-19
1.72347e-08
-1.84842e-07
-2.47403e-10
-8.12161e-07
-1.76058e-08
-8.123e-07
-4.66218e-19
-1.84854e-07
-3.57239e-19
-8.37133e-19
-5.50986e-19
-4.90277e-19
-2.89169e-20
-3.2381e-19
2.17767e-19
-7.83817e-21
-1.20899e-19
1.54988e-19
-2.00429e-19
1.81047e-19
-6.48633e-19
9.12091e-09
-1.93916e-07
-2.38308e-10
-8.02795e-07
-9.44147e-09
-8.02908e-07
-3.323e-19
-1.93947e-07
-2.0801e-19
-8.07021e-19
-3.00019e-19
-2.60996e-19
-3.02468e-21
-1.36e-19
9.92199e-20
-6.8359e-21
-5.91332e-20
1.39382e-19
-1.43739e-19
2.10303e-19
-6.49559e-19
1.99846e-08
-2.14047e-07
-2.11245e-10
-7.82677e-07
-2.02722e-08
-7.82781e-07
-2.9626e-19
-2.14106e-07
-1.78177e-19
-7.82024e-19
-1.42447e-19
-1.78984e-19
3.99804e-22
-5.38724e-20
1.0367e-19
-4.65778e-21
-1.8402e-20
1.008e-19
-1.54754e-20
3.03421e-18
-3.51512e-18
1.07281e-08
-2.25078e-07
-1.67147e-10
-7.71851e-07
-1.0978e-08
-7.71942e-07
-2.9368e-18
-2.25172e-07
-1.26966e-19
-3.51141e-18
-1.33746e-19
-3.45424e-20
3.375e-21
-4.01536e-20
1.11166e-19
-4.00574e-21
-1.28733e-20
1.16979e-19
-1.22385e-20
3.50494e-17
-3.8438e-17
2.3307e-08
-2.48888e-07
-2.30298e-10
-7.4837e-07
-2.35419e-08
-7.48622e-07
-3.37495e-17
-2.49029e-07
-1.41898e-19
-3.70979e-17
-1.25067e-19
-3.07106e-20
3.55862e-21
-2.14835e-20
1.08099e-19
-2.28031e-21
-1.26156e-20
1.13924e-19
-9.81512e-21
3.95064e-16
-4.33379e-16
1.26237e-08
-2.62174e-07
-2.05478e-10
-7.35562e-07
-1.28932e-08
-7.35901e-07
-3.7878e-16
-2.62357e-07
-1.22104e-19
-4.15736e-16
-1.06087e-19
-2.73762e-20
3.43057e-21
-9.03915e-21
8.1747e-20
-1.91049e-21
-9.65996e-21
8.76228e-20
-8.71669e-21
4.58257e-15
-5.01586e-15
2.72764e-08
-2.90241e-07
-3.13445e-10
-7.07975e-07
-2.7667e-08
-7.08495e-07
-4.3806e-15
-2.9047e-07
-1.05422e-19
-4.79621e-15
-8.80729e-20
-2.57263e-20
1.52259e-21
-4.63044e-21
3.35386e-20
-5.31055e-22
-3.03099e-21
3.88378e-20
-8.11296e-21
5.39208e-14
-5.89366e-14
1.47289e-08
-3.0559e-07
-3.24179e-10
-6.92877e-07
-1.51465e-08
-6.93594e-07
-5.14059e-14
-3.05864e-07
-1.05321e-19
-5.6202e-14
-8.85016e-20
-2.38789e-20
-3.04529e-22
-5.56988e-21
1.04833e-20
-6.00449e-22
-2.02286e-21
1.64803e-20
-8.35241e-21
6.54848e-13
-7.13784e-13
3.17833e-08
-3.37902e-07
-2.76144e-10
-6.60802e-07
-3.23736e-08
-6.61422e-07
-6.23036e-13
-3.38262e-07
-7.08119e-20
-6.79238e-13
-5.1891e-20
-2.47867e-20
-1.16412e-21
-4.50685e-21
9.32354e-21
-1.4715e-21
-2.22936e-21
2.21593e-20
-1.49944e-20
8.11139e-12
-8.82517e-12
1.67261e-08
-3.54986e-07
-3.59508e-10
-6.43771e-07
-1.71595e-08
-6.44551e-07
-7.71146e-12
-3.55264e-07
-4.41681e-20
-8.3907e-12
-2.36346e-20
-2.78514e-20
-2.08578e-21
-4.97151e-21
1.77769e-20
-2.52386e-21
-3.09259e-21
4.73536e-19
-4.64756e-19
1.03707e-10
-1.12532e-10
3.598e-08
-3.90875e-07
-3.21558e-10
-6.07506e-07
-3.66923e-08
-6.08145e-07
-9.87571e-11
-3.91185e-07
-4.7855e-19
-1.07148e-10
-3.34772e-20
-4.49807e-19
-4.79601e-21
-7.89493e-21
2.71543e-20
-2.5791e-21
-1.37257e-20
2.33253e-17
-2.37535e-17
1.24746e-09
-1.35999e-09
1.93466e-08
-4.09072e-07
5.08441e-11
-5.88234e-07
-1.94041e-08
-5.88675e-07
-1.19754e-09
-4.09131e-07
-2.2147e-17
-1.30469e-09
-8.75007e-20
-2.24642e-17
-4.58742e-21
-2.47269e-20
3.41676e-20
-1.06385e-21
-2.26259e-20
1.03522e-15
-1.05893e-15
1.03923e-08
-1.17523e-08
3.92148e-08
-4.38133e-07
2.64556e-10
-5.49304e-07
-3.84139e-08
-5.49987e-07
-1.01124e-08
-4.37384e-07
-9.86708e-16
-1.14171e-08
-1.79796e-19
-1.00893e-15
-1.73427e-21
-3.4584e-20
3.03115e-20
-4.92264e-22
-3.2817e-20
4.07877e-14
-4.18466e-14
1.81465e-08
-2.99523e-08
2.11275e-08
-4.41441e-07
-9.72268e-11
-5.28092e-07
-2.28736e-08
-5.2721e-07
-1.77725e-08
-4.42684e-07
-3.90435e-14
-2.93338e-08
-8.22537e-20
-4.00523e-14
-5.31952e-22
-4.92909e-20
1.86965e-19
-1.15336e-19
-1.97112e-20
1.42289e-12
-1.46474e-12
3.74598e-08
-6.76196e-08
4.74559e-08
-4.51765e-07
9.5465e-10
-4.81591e-07
-4.22592e-08
-4.84001e-07
-3.67675e-08
-4.48535e-07
-1.34606e-12
-6.65494e-08
-9.24479e-20
-1.38611e-12
-1.04945e-19
-2.99255e-20
2.89254e-16
-2.89365e-16
-4.09544e-21
4.27748e-11
-4.42393e-11
4.3527e-08
-1.11568e-07
2.39232e-08
-4.32355e-07
-4.78283e-09
-4.52894e-07
-3.341e-08
-4.55367e-07
-4.78966e-08
-4.3422e-07
-3.99755e-11
-1.14737e-07
-2.90407e-16
-4.13613e-11
-2.90505e-16
-7.0286e-21
1.03283e-13
-1.03573e-13
-8.67128e-22
1.25307e-09
-1.29721e-09
8.26956e-08
-1.95344e-07
5.45575e-08
-4.04737e-07
3.25067e-09
-4.01587e-07
-5.06823e-08
-4.01434e-07
-8.34997e-08
-4.0106e-07
-1.16203e-09
-1.95726e-07
-1.02052e-13
-1.20329e-09
-1.02343e-13
-1.38024e-21
1.25888e-11
-1.26924e-11
-2.52584e-21
1.81727e-08
-1.94575e-08
8.0481e-08
-2.58598e-07
2.80805e-08
-3.52337e-07
-9.39611e-09
-3.64111e-07
-4.36865e-08
-3.67144e-07
-8.56041e-08
-3.59143e-07
-1.73368e-08
-2.64035e-07
-1.24757e-11
-1.85274e-08
-1.2578e-11
-4.01649e-21
1.02336e-09
-1.03605e-09
-3.35017e-21
7.00118e-08
-8.93222e-08
1.03471e-07
-2.93155e-07
6.3184e-08
-3.1205e-07
1.16411e-08
-3.12568e-07
-4.52363e-08
-3.10266e-07
-9.4667e-08
-3.09712e-07
-6.48495e-08
-2.92481e-07
-1.02125e-09
-8.1053e-08
-1.03383e-09
-4.61554e-21
3.07968e-08
-3.18329e-08
-2.74327e-21
1.33201e-07
-1.91285e-07
8.71358e-08
-2.47089e-07
3.22915e-08
-2.57206e-07
-1.51529e-08
-2.65124e-07
-5.99238e-08
-2.65495e-07
-1.04043e-07
-2.65593e-07
-1.43108e-07
-2.53416e-07
-3.17331e-08
-1.9197e-07