/*--------------------------------*- C++ -*----------------------------------*\
  =========                 |
  \\      /  F ield         | OpenFOAM: The Open Source CFD Toolbox
   \\    /   O peration     | Website:  https://openfoam.org
    \\  /    A nd           | Version:  8
     \\/     M anipulation  |
\*---------------------------------------------------------------------------*/
FoamFile
{
    version     2.0;
    format      ascii;
    class       volScalarField;
    location    "0.6";
    object      alpha.water;
}
// * * * * * * * * * * * * * * * * * * * * * * * * * * * * * * * * * * * * * //

dimensions      [0 0 0 0 0 0 0];

internalField   nonuniform List<scalar> 
9150
(
1
1
1
1
1
1
1
1
1
1
1
1
1
1
1
1
1
1
1
1
1
1
1
1
1
1
1
1
1
1
1
1
1
1
1
1
1
1
1
1
1
1
1
1
1
1
1
1
1
1
1
1
1
1
1
1
1
1
1
1
1
1
1
1
1
1
1
1
1
1
1
1
1
1
1
1
1
1
1
1
1
1
1
1
1
1
1
1
1
1
1
1
1
1
1
1
1
1
1
1
1
1
1
1
1
1
1
1
1
1
1
1
1
1
1
1
1
1
1
1
1
1
1
1
1
1
1
1
1
1
1
1
1
1
1
1
1
1
1
1
1
1
1
1
1
1
1
1
1
1
0.605748
0.605662
0.605238
0.603858
0.604347
0.603228
0.602299
0.597728
0.595404
0.595561
0.605745
0.605192
0.51802
0.603614
0.603395
0.601469
0.354704
0.467796
0.590854
0.595404
0.497951
0.389751
0.455371
0.546485
0.585766
0.514874
0.22744
0.310236
0.553147
0.562848
0.475698
0.39164
0.289431
0.139754
0.497169
0.566213
0.22744
0.45351
0.541829
0.36866
0.0164693
0.017787
0.0348496
0.105404
0.566775
0.579248
0.230678
0.473655
0.276363
0.000263247
0.0169237
0.017905
0.0311606
0.291169
0.579248
0.579254
0.285564
0.474828
0.0874283
2.63699e-05
0.0209796
0.145588
0.0796113
0.455809
0.579223
0.579248
0.304197
0.276671
0.0846609
2.05019e-05
0.194723
0.280303
0.117602
0.456921
0.579146
0.579223
0.241904
0.126795
0.131296
0.00120071
0.279634
0.280303
0.193474
0.306143
0.578854
0.579146
0.218317
0.126586
0.144802
0.000590872
0.0742136
0.274281
0.305977
0.284728
0.5746
0.575568
0.24999
0.148439
0.14184
5.18696e-08
0.00440325
0.2729
0.311959
0.285353
0.577552
0.581321
0.310407
0.150494
0.0580647
7.6381e-08
0.0150852
0.279721
0.316333
0.338766
0.583817
0.585199
0.31847
0.0978435
0.000169946
1.37804e-07
0.0153192
0.264736
0.295717
0.310514
0.585381
0.587994
0.281111
0.0333267
4.62433e-07
3.19773e-07
0.00220657
0.167146
0.211696
0.208312
0.588905
0.593741
0.219287
0.00176127
4.68419e-07
5.97477e-07
6.34607e-08
0.0506501
0.119681
0.191032
0.54944
0.596767
0.185576
8.69634e-07
6.04557e-07
8.69633e-07
1.0895e-07
0.00736454
0.0909541
0.19908
0.525679
0.598153
0.230746
0.000738275
8.69634e-07
3.27591e-06
5.93767e-07
0.0059144
0.101208
0.180829
0.55251
0.599569
0.324597
0.00814175
1.23262e-05
5.49805e-06
0.00648025
0.0289282
0.113938
0.156816
0.576624
0.600933
0.318093
0.00526315
4.46121e-05
1.85796e-05
0.0309206
0.0651715
0.118752
0.142751
0.579928
0.602466
0.144914
0.00042267
0.000367718
2.01499e-05
0.0510525
0.0866405
0.11817
0.106913
0.590986
0.603849
0.0761803
0.000135842
0.000162288
7.7062e-06
0.0100572
0.0517778
0.117663
0.07984
0.59742
0.603849
0.0395817
0.000102109
0.000132307
7.40866e-06
0.00130601
0.00130783
0.10198
0.0452305
0.59677
0.603725
0.0267229
9.32248e-05
0.000142035
8.8557e-06
0.00130783
0.00130638
0.0664071
0.0374653
0.600291
0.602769
0.0292567
9.10345e-05
3.23666e-05
6.95502e-06
0.00248235
0.00130783
0.0693757
0.026018
0.598421
0.604053
0.0204829
0.000434067
7.07859e-06
6.55925e-06
0.00310814
0.0117467
0.0722596
0.0130103
0.595204
0.604053
0.0119927
0.0019729
0.00213834
0.00223937
0.0022576
0.0329593
0.0725731
0.00933969
0.594891
0.603428
0.00556782
0.00119061
0.00368324
0.00375644
0.00210315
0.0374856
0.0720346
0.00984703
0.599771
0.599849
0.00434626
0.000356192
0.00289405
0.00375674
0.0022903
0.0285677
0.060523
0.00557774
0.59852
0.601183
0.0062078
0.000322927
0.000258416
0.00279136
0.00205281
0.00939843
0.00727029
0.00465118
0.599111
0.601183
0.00645119
1.28613e-05
1.20239e-05
0.00026252
0.00227231
0.000637056
0.000699456
0.00295489
0.599582
0.601183
0.00603337
3.22825e-06
4.96594e-06
1.26073e-05
0.000976844
0.000167356
0.000293944
0.00274583
0.602245
0.600141
0.00190547
3.02585e-06
3.13206e-06
6.03244e-06
0.000518203
9.49226e-05
0.000226823
0.000222719
0.602545
0.601743
3.02576e-06
2.97608e-06
3.0258e-06
3.62066e-06
0.000317027
7.23467e-05
2.82813e-05
0.000144168
0.600795
0.603719
0.000179395
2.95996e-06
2.97713e-06
3.21056e-06
0.000118655
8.18686e-05
1.47691e-05
1.47331e-05
0.60591
0.605012
2.95997e-06
2.9569e-06
2.95997e-06
3.02641e-06
0.000132708
0.000137769
1.47331e-05
1.47331e-05
0.613899
0.614158
2.9569e-06
2.9569e-06
2.9569e-06
2.96945e-06
0.000321257
0.000113083
1.47197e-05
1.47329e-05
0.631514
0.632242
2.95758e-06
2.9569e-06
2.95758e-06
2.9599e-06
0.00136445
1.55414e-05
1.47015e-05
1.47197e-05
0.646074
0.645561
3.28589e-06
2.95758e-06
2.95988e-06
2.95894e-06
0.0015941
1.53978e-05
1.46986e-05
1.47015e-05
0.653027
0.652555
5.30738e-06
0.0042055
2.96021e-06
2.96459e-06
0.000724933
1.46986e-05
1.47008e-05
1.46986e-05
0.658313
0.657626
1.66344e-05
0.00901627
0.00951557
0.00551065
2.91317e-05
1.61966e-05
0.00101145
1.52647e-05
0.666139
0.665668
1.63007e-05
0.00814691
0.0110615
0.0113946
0.00252056
0.00172032
0.0037333
1.14497e-05
0.675449
0.675033
9.48796e-06
0.00367283
0.0112931
0.0114698
0.00364864
0.00373691
0.00371519
6.46527e-07
0.684108
0.683565
9.48796e-06
0.000137449
0.00402212
0.011368
0.00187664
0.00165028
0.00148955
1.46128e-10
0.691875
0.691277
9.4796e-06
9.82959e-06
5.30425e-05
0.00247156
4.29477e-06
1.55224e-10
1.3894e-10
1.42008e-10
0.698262
0.697557
9.84057e-06
0.000364974
8.14916e-05
0.000107112
1.55224e-10
1.50219e-10
1.3894e-10
1.37665e-10
0.705345
0.704446
6.34127e-06
0.00190967
8.16053e-05
8.15962e-05
1.02484e-09
9.81665e-10
1.38096e-10
1.39269e-10
0.709435
0.708574
2.08966e-07
0.00187589
0.00184073
0.00170458
1.37403e-09
1.37174e-09
1.90205e-10
1.63066e-10
0.71368
0.713469
2.08966e-07
0.000953519
0.0011346
0.000941936
1.41367e-09
1.47113e-09
1.16912e-10
1.2093e-10
0.714003
0.714214
2.08371e-07
5.78505e-06
8.80636e-06
2.70868e-07
1.26928e-09
1.53258e-09
1.06365e-10
1.06877e-10
0.717384
0.717427
2.10236e-07
1.08876e-06
5.60263e-07
3.40849e-08
1.11047e-09
1.58436e-09
1.05819e-10
1.06365e-10
0.71722
0.716972
1.24021e-07
5.46243e-07
4.46339e-07
7.70751e-09
9.6711e-10
1.64428e-09
1.05219e-10
1.06091e-10
0.72325
0.722749
1.20026e-08
1.05332e-09
7.00793e-10
6.92393e-10
8.59938e-10
1.69575e-09
1.0469e-10
1.05219e-10
0.723003
0.722197
1.2176e-07
1.64589e-07
6.30974e-09
7.00767e-10
8.22388e-10
1.69896e-09
1.04223e-10
1.04591e-10
0.734337
0.733668
6.13598e-07
9.35511e-07
1.776e-08
7.31368e-10
8.41363e-10
1.6903e-09
1.01093e-10
1.03114e-10
0.737706
0.737626
1.33155e-06
9.29425e-07
8.49465e-09
6.55283e-10
9.24982e-10
1.67634e-09
9.51328e-11
0.00126999
0.752239
0.752148
0.00129985
2.51546e-11
7.09096e-10
5.4937e-10
1.05441e-09
1.71412e-09
8.77375e-11
0.00526095
0.757584
0.757404
0.0052635
2.51004e-11
6.86884e-10
5.93753e-10
1.2199e-09
1.7747e-09
7.88467e-11
0.0102492
0.76904
0.768947
0.0102587
2.49882e-11
5.78807e-10
5.26135e-10
1.37722e-09
1.84323e-09
6.97605e-11
0.0129893
0.774982
0.774981
0.0129944
2.45399e-11
5.65869e-10
4.96869e-10
1.49729e-09
1.94514e-09
6.03085e-11
0.0191145
0.785833
0.785827
0.0190824
2.33635e-11
4.80766e-10
4.76314e-10
1.57675e-09
2.02804e-09
5.09428e-11
0.0220222
0.791089
0.791018
0.0219416
2.18869e-11
4.27092e-10
4.54878e-10
1.67445e-09
2.10278e-09
4.20675e-11
0.0281759
0.800636
0.800541
0.0280711
1.97178e-11
3.8817e-10
4.2274e-10
1.87757e-09
2.11522e-09
3.33183e-11
0.0308093
0.804644
0.804478
0.0306588
1.74314e-11
3.63779e-10
3.97732e-10
2.05755e-09
2.11599e-09
2.53199e-11
0.036708
0.812781
0.812563
0.0365509
1.52094e-11
3.56058e-10
3.94811e-10
2.06403e-09
1.88866e-09
1.82017e-11
0.0389262
0.815632
0.815372
0.0387482
1.27833e-11
3.49156e-10
3.94067e-10
2.06403e-09
1.5261e-09
1.27512e-11
0.0448109
0.823066
0.822798
0.0446517
1.06357e-11
3.43764e-10
3.92959e-10
2.06403e-09
1.20448e-09
8.34126e-12
0.0469184
0.825456
0.825209
0.0467837
8.61668e-12
3.28312e-10
3.90648e-10
1.98351e-09
7.96737e-10
5.73665e-12
0.0537115
0.833733
0.833536
0.0536351
6.91798e-12
3.08892e-10
3.88689e-10
1.20005e-09
4.25769e-10
4.26172e-12
0.0564667
0.836814
0.836704
0.0564605
5.46728e-12
2.7831e-10
3.87098e-10
5.36603e-10
2.13049e-10
3.54588e-12
0.0653028
0.847119
0.847039
0.0653543
4.39242e-12
2.35142e-10
3.54584e-10
2.27442e-10
1.44822e-10
3.01409e-12
0.0697226
0.851809
0.851785
0.0698146
3.54185e-12
1.90613e-10
2.87996e-10
1.91426e-10
1.29433e-10
2.5497e-12
0.0810647
0.863552
0.863525
0.0811586
2.90996e-12
1.55632e-10
2.3163e-10
1.7333e-10
1.14908e-10
2.12966e-12
0.0874454
0.869341
0.869312
0.0875047
2.39232e-12
1.26091e-10
1.84981e-10
1.49065e-10
9.42229e-11
1.79772e-12
0.101102
0.881441
0.881412
0.101126
2.01749e-12
9.81763e-11
1.54299e-10
1.20673e-10
7.33403e-11
1.52275e-12
0.10901
0.88742
0.88743
0.109007
1.73529e-12
7.04944e-11
1.21331e-10
9.61011e-11
5.28261e-11
1.33169e-12
0.124545
0.899138
0.899181
0.124527
1.558e-12
4.65815e-11
8.66488e-11
6.4544e-11
3.54089e-11
1.18769e-12
0.133425
0.904736
0.904811
0.133377
1.43151e-12
3.04809e-11
5.2515e-11
4.62473e-11
2.33506e-11
1.09281e-12
0.15108
0.915974
0.916062
0.151018
1.34727e-12
2.11646e-11
3.65458e-11
2.98923e-11
1.41043e-11
1.02824e-12
0.161312
0.921231
0.921331
0.161245
1.28524e-12
1.42331e-11
2.52279e-11
1.66539e-11
7.54285e-12
9.95925e-13
0.182212
0.932136
0.932222
0.182158
1.24382e-12
8.79314e-12
1.64894e-11
7.69922e-12
3.94058e-12
9.76983e-13
0.195241
0.937466
0.937532
0.195206
1.21271e-12
5.09637e-12
9.02231e-12
3.79986e-12
2.20378e-12
9.69408e-13
0.221198
0.948252
0.948286
0.221195
1.18912e-12
2.98626e-12
5.14614e-12
1.57518e-12
1.33082e-12
9.54141e-13
0.238539
0.953756
0.953762
0.238567
1.17689e-12
1.74517e-12
2.2369e-12
1.70347e-12
9.17087e-13
5.31082e-13
0.271607
0.963994
0.963982
0.27166
7.44698e-13
1.16509e-12
2.18381e-12
1.66074e-12
1.15718e-13
1.24082e-13
0.294689
0.969136
0.969118
0.29476
2.99157e-13
2.89787e-13
1.86314e-12
1.67227e-12
9.93324e-14
1.07513e-13
0.337246
0.977841
0.977837
0.337303
2.81692e-13
2.73674e-13
1.63874e-12
1.14383e-12
8.71004e-14
9.32256e-14
0.36812
0.982049
0.982062
0.368147
2.67155e-13
2.60555e-13
1.22607e-12
4.66978e-13
8.2368e-14
8.4888e-14
0.422986
0.988246
0.988286
0.422966
2.54671e-13
2.47936e-13
1.22505e-12
1.08543e-13
8.14863e-14
8.22755e-14
0.463531
0.990967
0.991024
0.463481
2.46357e-13
2.4316e-13
4.99776e-13
7.96421e-14
7.98337e-14
8.10348e-14
0.533689
0.994217
0.994256
0.53364
2.4316e-13
2.40557e-13
2.41397e-13
1.31255e-13
8.10348e-14
1.1642e-13
0.585797
0.996158
0.996214
0.585621
2.60757e-13
2.26283e-13
2.25074e-13
1.32554e-13
1.08905e-13
1.90029e-12
0.673796
0.997027
0.99707
0.673729
1.94963e-12
2.53565e-13
2.67877e-13
1.35912e-13
1.38221e-13
7.87307e-11
0.73884
0.998342
0.998355
0.738776
7.51645e-11
2.50062e-13
2.36874e-13
1.40274e-13
1.41476e-13
0.0298261
0.822496
0.99884
0.998884
0.822496
0.0283878
2.31877e-13
2.26662e-13
1.14874e-13
1.45335e-13
0.104954
0.878538
0.999609
0.99957
0.878511
0.104059
2.23081e-13
2.01911e-13
1.17004e-15
2.1728e-11
0.224353
0.947627
0.999786
0.999818
0.947449
0.224455
2.18029e-11
1.59932e-15
8.56668e-16
7.79511e-09
0.398677
0.981455
0.999968
0.999965
0.984267
0.407737
7.70377e-09
1.06272e-15
5.55904e-16
1.02462e-06
0.673727
0.999974
0.999982
0.999988
0.999975
0.674996
1.01443e-06
6.73731e-16
-1.53399e-14
0.117921
0.87546
0.999989
1
0.999999
0.999991
0.880772
0.105651
-1.19024e-14
-1.4384e-11
0.616725
0.99995
1
1
1
0.999999
0.999932
0.590014
-1.40758e-11
0.35399
0.970452
1
1
1
1
1
1
0.97529
0.35773
0.595561
0.595561
0.573286
0.475452
0.545033
0.546247
0.546405
0.546349
0.541937
0.208096
0.486748
0.604839
0.604434
0.602911
0.603299
0.603346
0.603355
0.603355
0.603355
0.570004
0.551965
0.551534
0.551464
0.551532
0.561468
0.60164
0.602562
0.602716
0.602796
0.603002
0.603116
0.603195
0.603275
0.603281
0.603283
0.603283
0.603283
0.603283
0.455142
0.40781
0.595561
0.595529
0.565738
0.457008
0.505589
0.545033
0.546247
0.546349
0.268005
0.151438
0.164208
0.174438
0.219571
0.587374
0.603133
0.603311
0.603346
0.603355
0.603343
0.603332
0.60312
0.603025
0.602928
0.586165
0.585521
0.599178
0.60159
0.602554
0.602723
0.508316
0.109859
0.103751
0.106853
0.390323
0.603281
0.603283
0.603283
0.603283
0.321593
0.423814
0.514469
0.48427
0.395664
0.104293
0.105478
0.205191
0.454554
0.241795
0.129675
0.142835
0.249019
0.577239
0.60107
0.602822
0.603207
0.603252
0.60324
0.582207
0.587264
0.60322
0.603035
0.602929
0.561597
0.2092
0.0601495
0.0841358
0.0813525
0.0510118
0.0228623
0.0124196
0.00104745
0.260609
0.446457
0.474992
0.596692
0.602929
0.602847
0.431932
0.252172
0.462553
0.125056
1.07698e-05
0.00939826
0.0341722
0.108994
0.195664
0.173723
0.114069
0.124361
0.185982
0.291511
0.431188
0.474049
0.37041
0.139656
0.0351623
0.0425998
0.0638828
0.105018
0.104423
0.0604632
0.00807037
2.55881e-06
0.00102975
0.00230788
0.00181159
0.000330413
0.000616729
0.0170296
0.00977405
0.000200468
4.2666e-05
0.0159684
0.0865814
0.441635
0.600682
0.554156
0.24263
0.247815
0.526427
1.07698e-05
3.21518e-07
0.0026593
0.0080504
0.000183573
3.16231e-08
7.00504e-08
0.000638944
0.000227757
2.31969e-07
1.3061e-07
7.29212e-08
5.84997e-08
5.46337e-08
5.37935e-08
2.33947e-05
1.58981e-05
7.4341e-05
0.000396041
0.000482852
0.000189278
1.93328e-07
5.96764e-08
9.44266e-07
2.08682e-05
8.08219e-05
5.17516e-05
3.61917e-06
7.19878e-05
0.00100342
0.000607526
6.89287e-06
1.89345e-05
0.000276171
0.345273
0.594104
0.288934
0.241802
0.244997
0.568414
3.17867e-07
1.85361e-08
1.62966e-08
1.63573e-08
1.63378e-08
1.87646e-08
3.16231e-08
7.00503e-08
1.21339e-07
1.30595e-07
7.29212e-08
5.84997e-08
5.46337e-08
5.34884e-08
5.37935e-08
5.37935e-08
6.02371e-08
9.71346e-07
5.73045e-06
3.97092e-06
7.79358e-07
8.789e-08
2.53449e-08
3.85178e-08
1.15034e-07
9.5306e-07
1.2575e-06
1.4447e-06
1.4447e-06
4.32778e-06
3.6788e-05
3.79293e-06
3.38935e-06
1.894e-05
0.271685
0.271336
0.240097
0.241251
0.4431
0.5688
1.34749e-08
2.09503e-08
1.85259e-08
1.62964e-08
1.87542e-08
3.1623e-08
7.00504e-08
8.56381e-07
3.23441e-06
4.2382e-06
1.77771e-06
7.29212e-08
5.84996e-08
5.46334e-08
5.44888e-08
6.02371e-08
6.7164e-08
5.8865e-08
4.35576e-08
3.10439e-08
2.65989e-08
2.53449e-08
2.53449e-08
2.53449e-08
3.63933e-08
7.42937e-08
5.89145e-06
4.88758e-06
1.62067e-06
1.56185e-06
1.5786e-06
1.54875e-06
1.76358e-06
3.38993e-06
0.0901841
0.232201
0.236548
0.252258
0.5688
0.568817
1.3475e-08
1.47573e-08
2.19486e-08
3.44106e-08
2.84703e-07
7.03415e-06
2.83408e-05
3.45894e-05
1.78773e-05
4.54543e-06
6.20603e-07
4.46595e-07
1.38285e-06
4.34672e-06
3.37965e-06
6.85549e-07
8.02942e-07
7.16837e-07
2.71355e-07
4.15282e-08
1.39716e-06
2.09944e-06
1.51861e-06
1.83098e-07
8.79768e-08
9.7859e-08
8.16126e-06
5.75026e-06
1.56706e-06
1.54159e-06
1.53124e-06
1.53006e-06
1.54875e-06
1.76358e-06
0.0717255
0.489496
0.240097
0.40684
0.568817
0.5688
1.34741e-08
2.29589e-07
4.32324e-07
1.31928e-06
3.68695e-05
6.9326e-05
6.69652e-05
3.87327e-05
4.29655e-06
8.68252e-07
6.64974e-07
4.55157e-06
9.67356e-06
1.00441e-05
1.00441e-05
1.66258e-06
7.50225e-06
1.24113e-05
1.24104e-05
5.71665e-06
2.92581e-06
1.69992e-05
1.03205e-07
9.86011e-08
9.7859e-08
3.37221e-05
4.12429e-05
7.36396e-06
1.54159e-06
1.53124e-06
1.53006e-06
1.53008e-06
1.53006e-06
1.56798e-06
0.119997
0.544676
0.513265
0.51853
0.533352
0.527012
1.9928e-08
4.75488e-07
2.49071e-05
8.73127e-05
8.47173e-05
7.78745e-05
2.84606e-05
7.95359e-07
7.95568e-07
7.45157e-07
6.95307e-07
5.8846e-06
9.7614e-06
9.87137e-06
6.50261e-06
1.46916e-06
1.46916e-06
1.50414e-06
2.04678e-06
1.92505e-06
1.90314e-06
1.88713e-06
0.000287898
0.00222412
0.00248527
0.000586371
5.45274e-06
1.86002e-06
1.64715e-06
1.54159e-06
1.53674e-06
1.53011e-06
1.56784e-06
3.82447e-06
0.176617
0.547307
0.567177
0.542445
0.475389
0.524299
8.50884e-08
2.74892e-06
0.000108405
0.000157398
3.4387e-05
2.93027e-06
2.54172e-06
2.43832e-06
7.95007e-07
8.20736e-07
1.16043e-06
3.13484e-06
4.39263e-06
1.7567e-06
1.64407e-06
1.55345e-06
1.46916e-06
1.59852e-06
2.07596e-06
3.76217e-05
0.000421151
0.00155504
0.00354368
0.00354368
0.00346037
0.000616168
4.30392e-06
1.95037e-06
1.81656e-06
6.60431e-06
1.56922e-06
1.72507e-06
7.38179e-06
0.000186363
0.177291
0.523212
0.567413
0.56723
0.474911
0.566641
3.40187e-07
2.21997e-05
0.000163854
0.000151197
7.39133e-06
3.53238e-06
2.89032e-06
1.9149e-06
8.82943e-07
5.69979e-06
2.48156e-05
1.87071e-05
1.3958e-05
4.60344e-06
1.77257e-06
1.66091e-06
6.14654e-06
0.000128714
0.000572478
0.00233118
0.00354132
0.00354709
0.0035303
0.00265206
0.000189362
8.6147e-06
8.04651e-06
1.2887e-05
1.11993e-05
6.76839e-06
1.74678e-06
4.37858e-06
4.79313e-05
0.00061414
0.21885
0.567413
0.567453
0.567404
0.474863
0.567095
1.11377e-06
8.37143e-05
0.000312572
0.000124673
1.25101e-05
7.39133e-06
4.61255e-06
2.89032e-06
1.76084e-06
9.38743e-06
0.000123233
0.000747086
0.00115151
0.000855405
0.000402309
0.000298594
0.000693185
0.00262278
0.00295248
0.00299376
0.00303262
0.00147783
0.00014843
8.62414e-06
8.69772e-06
8.6147e-06
2.52084e-05
2.6234e-05
2.49692e-05
7.01251e-06
4.60582e-06
2.82039e-05
0.00023112
0.081846
0.479245
0.567453
0.567457
0.56743
0.474887
0.567179
2.88611e-06
0.000175645
0.000577897
0.000429739
0.000151298
5.98871e-05
2.76459e-05
8.91408e-06
6.74111e-06
3.20765e-05
0.000445105
0.00153535
0.00153535
0.00151492
0.00132002
0.00170338
0.00178479
0.00182677
0.000882089
5.68488e-05
4.81024e-05
3.55482e-05
1.71291e-05
8.90881e-06
8.69772e-06
2.48446e-05
2.677e-05
2.677e-05
1.27549e-05
2.30954e-05
3.04245e-05
0.000161602
0.000290084
0.108695
0.567429
0.567457
0.567457
0.567457
0.491914
0.567335
4.09909e-06
4.58715e-05
0.00174541
0.00698805
0.0121675
0.0159388
0.000377393
7.71474e-05
3.64001e-05
5.79133e-05
8.89772e-05
0.000653769
0.000855482
3.41017e-05
3.41017e-05
3.40776e-05
3.83593e-05
4.26783e-05
7.82311e-05
0.000369469
0.000232852
8.85848e-05
3.55482e-05
1.7129e-05
1.0946e-05
1.22025e-05
1.20173e-05
1.67526e-05
1.08445e-05
1.10417e-05
2.24631e-05
0.000122941
0.0245378
0.202566
0.567454
0.567457
0.567457
0.567457
0.567456
0.567396
5.49805e-06
4.68475e-05
0.000509706
0.0385755
0.193048
0.254747
0.0838253
0.00837746
8.47504e-05
6.57628e-05
4.65671e-05
3.99447e-05
3.64391e-05
3.48528e-05
3.39992e-05
3.47962e-05
3.80076e-05
5.10468e-05
0.000111897
0.00181453
0.00496628
0.0028364
0.000764286
0.000319496
2.66489e-05
1.10123e-05
1.0851e-05
1.08065e-05
1.0851e-05
1.083e-05
2.54726e-05
2.36072e-05
0.109957
0.381075
0.567418
0.567456
0.567457
0.532741
0.567402
0.567373
2.95467e-05
0.000184884
0.0102621
0.199892
0.272682
0.272746
0.272643
0.206335
0.0164645
0.000141346
7.2092e-05
4.65671e-05
3.98546e-05
3.64391e-05
3.46026e-05
4.31794e-05
0.00013423
0.000124661
0.000198671
0.000425607
0.00381727
0.0970387
0.2459
0.216923
0.0169796
2.05877e-05
1.10105e-05
1.0851e-05
1.0851e-05
0.000392122
0.000808169
3.09264e-05
0.130871
0.172889
0.475096
0.567422
0.56741
0.50566
0.567043
0.567384
4.8453e-05
0.000204188
0.0218402
0.221156
0.272734
0.272643
0.272246
0.271849
0.263297
0.0426672
0.0131216
0.00033969
0.00016996
9.23573e-05
5.36983e-05
5.28448e-05
0.00102043
0.00167963
0.000413807
0.00213248
0.0561193
0.406295
0.572846
0.575128
0.399891
0.024122
2.19943e-05
1.16053e-05
1.41326e-05
3.66536e-05
0.000139287
0.000110493
0.0411494
0.0434932
0.157822
0.566726
0.567357
0.56203
0.567384
0.567385
8.94886e-05
0.000721452
0.00103327
0.0195997
0.184822
0.270545
0.271849
0.2707
0.266688
0.263387
0.200918
0.100668
0.0927413
0.0458622
0.0134708
9.75819e-05
0.000854637
0.0134855
0.033566
0.0541652
0.15992
0.53738
0.575128
0.576281
0.578516
0.539633
0.0790774
2.37083e-05
0.00445455
4.10206e-05
9.65064e-05
0.013606
0.0448095
0.057073
0.215894
0.566998
0.567125
0.566484
0.536772
0.567384
6.10081e-05
0.000550351
0.00107879
0.000251199
0.000100224
6.39993e-05
0.0653834
0.154084
0.20413
0.213472
0.218634
0.218909
0.218902
0.218907
0.100959
0.012161
0.00133788
0.0238895
0.130286
0.147163
0.147057
0.233219
0.508941
0.578516
0.5796
0.579947
0.58028
0.543664
0.397186
0.354762
0.391994
0.438899
0.533818
0.50481
0.351269
0.409757
0.525742
0.362344
0.363891
0.491981
7.73571e-06
8.29229e-05
0.000477531
0.000370566
9.85118e-05
6.08519e-05
3.65689e-05
9.19851e-06
6.40724e-06
2.64311e-06
0.082443
0.153418
0.174648
0.17188
0.11328
0.0314346
0.00268569
0.0315321
0.0792832
0.0416308
0.00754235
0.00291408
0.0219005
0.298385
0.537019
0.58028
0.580291
0.580319
0.580321
0.580316
0.580311
0.580281
0.580406
0.580447
0.471661
0.359359
0.359658
0.360803
0.362216
0.363891
6.95263e-06
7.7768e-06
1.03223e-05
1.08937e-05
0.0010803
0.00125259
5.14229e-05
7.76836e-06
3.91964e-06
6.92642e-07
6.76328e-07
6.81782e-07
7.97191e-07
1.8159e-06
9.63581e-06
0.00761841
0.0097588
0.00210051
1.23499e-05
1.17897e-05
9.53254e-06
1.18138e-05
2.44685e-05
0.000192243
0.026624
0.46485
0.580319
0.580321
0.580321
0.580321
0.580317
0.580394
0.58052
0.580432
0.559861
0.359658
0.359287
0.359658
0.410645
0.570103
6.55925e-06
6.68452e-06
6.86229e-06
9.4476e-06
0.00246798
0.00311632
0.000456227
1.1051e-05
9.85011e-06
5.06184e-05
6.76533e-07
6.75643e-07
6.81782e-07
7.97191e-07
1.81577e-06
9.63519e-06
0.00106591
0.0014869
2.25888e-05
1.64792e-05
6.4308e-06
1.03837e-05
3.45344e-05
0.000164913
0.00109543
0.20066
0.575744
0.58032
0.580321
0.580318
0.580324
0.580316
0.580418
0.580526
0.580323
0.561776
0.378058
0.468451
0.571903
0.57258
6.4491e-06
6.46342e-06
6.48468e-06
1.08713e-05
0.00516827
0.00547697
0.00446283
0.000332146
0.000313091
0.000327674
1.14772e-06
6.81782e-07
8.054e-07
8.68782e-07
1.51912e-06
7.76482e-06
0.000191126
0.000775293
0.00107016
0.000216237
5.25738e-06
6.4308e-06
1.06424e-05
7.76378e-05
0.000518872
0.000647165
0.0529876
0.222903
0.274835
0.248172
0.306328
0.547735
0.580311
0.580422
0.58029
0.580143
0.579168
0.574773
0.572624
0.57267
6.46342e-06
6.45312e-06
6.46342e-06
0.00319245
0.00544957
0.00547697
0.00547697
0.00319433
0.000887079
0.000258819
1.12103e-06
1.60261e-05
1.17836e-05
1.32328e-07
1.07737e-06
0.000157927
0.00111858
0.00111858
0.00111902
0.000311598
3.53388e-06
4.55007e-06
1.55598e-05
0.000535136
0.00141696
0.00055262
0.000253565
0.000285737
0.000314974
0.000468786
0.00461103
0.0385986
0.167823
0.39305
0.515967
0.527436
0.522995
0.56987
0.572626
0.572626
0.00311824
0.000918161
0.00031917
0.0018161
0.00176981
0.00306979
0.00550689
0.00546094
0.000550985
2.52893e-05
2.45177e-05
8.47515e-05
3.45318e-05
2.89744e-08
7.95979e-08
7.76721e-07
0.000277945
0.00111936
0.000942209
1.48344e-05
2.82658e-06
2.51982e-06
4.35825e-05
0.000152117
9.88004e-05
9.20453e-05
0.000231583
0.000406064
0.000682882
0.0010045
0.00064322
0.000491777
0.000409869
0.00858974
0.0484551
0.0712299
0.0960142
0.161503
0.241874
0.220332
0.00378417
0.00381031
0.00165879
0.000809303
0.00348303
0.00553722
0.00553722
0.00144969
2.05822e-05
3.98962e-05
8.55057e-05
8.5517e-05
3.3301e-05
2.4261e-08
2.4393e-08
2.62014e-08
2.25277e-06
9.06532e-05
0.000172788
4.06894e-05
2.51993e-06
2.36141e-06
2.14255e-06
7.52316e-07
6.99854e-07
7.65354e-05
0.000524936
0.000618316
0.000657024
0.000316646
2.46572e-05
9.56676e-05
9.93489e-05
0.000150979
0.000273021
0.000584741
0.000348008
0.000679174
0.000871342
0.000579789
0.00381031
0.00381031
0.00262693
0.000759996
0.00507648
0.00553722
0.00255127
3.48898e-06
1.86436e-05
8.50759e-05
8.5522e-05
5.08479e-05
2.43457e-08
2.43457e-08
2.43005e-08
2.43929e-08
2.61947e-08
3.05096e-08
4.24353e-08
8.65289e-07
6.60966e-06
6.68928e-06
3.29621e-06
6.4983e-07
5.49461e-07
5.67678e-07
8.85918e-07
0.000333191
0.000516247
0.000149719
2.64733e-06
2.64784e-06
2.64741e-06
2.64784e-06
0.000120561
9.26593e-05
2.55875e-05
5.84904e-05
6.96447e-05
3.75553e-05
0.00283334
0.00381031
0.00160217
0.000760065
0.00505078
0.00105921
3.4179e-06
4.24465e-07
1.47136e-05
6.69798e-05
2.7598e-05
3.48855e-08
3.0902e-08
2.43457e-08
3.60521e-07
8.51912e-07
6.55099e-07
1.02215e-07
6.79266e-08
8.38325e-08
3.28154e-07
1.80996e-06
3.11194e-06
1.45792e-06
5.49465e-07
5.49465e-07
5.67024e-07
8.84825e-07
1.26393e-05
0.000111703
2.66317e-06
2.64729e-06
2.64784e-06
3.63149e-06
4.13806e-06
3.18163e-06
4.10009e-06
6.59604e-06
9.24459e-06
9.39511e-06
0.000565771
0.00273341
0.00102368
0.0014181
0.00217114
2.35594e-06
3.87946e-07
8.81333e-08
3.0122e-06
1.58958e-06
4.82987e-08
3.21715e-08
3.37852e-08
3.97388e-08
1.45567e-06
4.21471e-06
3.86212e-06
3.53138e-07
8.38325e-08
1.19377e-07
1.69971e-06
3.40983e-06
3.43101e-06
3.38014e-06
7.56117e-07
4.26887e-07
6.28588e-07
9.35373e-06
4.2154e-05
8.07752e-05
8.59215e-05
2.66317e-06
2.6785e-06
2.70223e-06
2.72095e-06
2.82903e-06
3.18163e-06
4.1004e-06
6.65565e-06
8.67696e-06
2.83606e-05
0.000222221
0.00106391
0.0014399
1.20722e-05
2.33798e-07
6.22356e-08
3.5353e-08
3.74335e-08
3.22973e-08
2.78719e-08
2.76673e-08
2.9852e-08
2.12308e-07
3.46698e-06
4.21285e-06
4.21471e-06
4.12387e-06
8.88147e-07
4.96304e-07
2.73644e-06
3.42674e-06
3.20054e-06
9.18227e-07
9.79834e-08
2.17694e-07
6.09976e-07
6.48217e-05
0.000152067
0.000152178
0.000129391
2.80455e-06
2.70406e-06
2.72095e-06
1.89324e-05
6.49629e-05
6.9637e-05
1.40497e-05
8.02557e-06
3.59361e-05
1.01334e-05
0.000301472
0.00113193
0.00113369
2.33812e-07
4.97977e-08
3.43323e-08
3.22205e-08
3.12998e-08
2.80566e-08
2.75439e-08
2.76715e-08
2.75742e-08
3.6945e-08
1.15456e-07
1.71608e-07
1.13553e-06
5.93159e-06
6.56381e-06
4.76292e-06
7.30146e-07
3.66869e-07
4.25404e-08
3.20931e-08
2.16459e-08
2.74176e-08
1.79962e-07
2.61588e-05
0.000151526
0.000151198
0.000149597
4.78521e-05
2.81479e-06
3.05777e-06
3.56361e-05
0.000370685
0.000443309
0.000447167
0.000381699
0.00044919
8.21175e-06
0.000157248
0.00044448
0.00031175
4.98484e-08
3.32991e-08
3.19022e-08
3.1849e-08
3.22214e-08
3.44743e-08
1.50692e-07
1.60098e-07
2.98522e-08
3.99432e-08
1.00735e-06
1.83722e-06
3.57057e-06
4.93584e-06
6.62059e-06
4.47904e-06
2.73109e-06
5.90099e-06
1.98787e-06
2.16459e-08
1.80355e-08
1.34505e-08
1.26952e-08
2.44563e-08
8.40574e-06
0.000125755
0.000144255
7.65838e-05
3.15172e-06
3.22591e-06
4.83235e-06
4.46423e-05
0.000346807
0.000458063
0.000458556
0.000458556
8.94644e-06
3.68416e-05
1.26445e-05
7.23634e-08
3.32992e-08
3.18143e-08
3.17061e-08
3.17282e-08
3.1849e-08
3.30942e-08
5.89791e-08
1.97505e-07
2.32691e-05
5.43387e-05
5.45945e-05
5.08535e-05
2.17409e-05
2.83923e-05
2.20832e-05
4.81989e-06
2.07166e-05
7.44544e-05
3.21742e-05
2.75461e-08
1.34505e-08
1.26952e-08
9.25955e-09
4.17001e-09
2.98026e-09
3.56432e-09
3.25824e-05
4.10461e-05
2.99035e-06
3.34004e-06
2.46809e-05
5.89937e-05
5.84822e-05
5.24285e-05
0.000285433
0.000418909
4.37885e-06
9.93877e-05
0.001608
3.49234e-08
3.18143e-08
3.17061e-08
3.17061e-08
3.17061e-08
3.17282e-08
3.23314e-08
4.66525e-08
8.62012e-07
3.80607e-05
5.45945e-05
5.45945e-05
5.45945e-05
5.45919e-05
5.45895e-05
5.4555e-05
3.93826e-05
6.46261e-05
8.22921e-05
7.3804e-05
5.56799e-06
2.68002e-08
9.16455e-09
4.17086e-09
2.98949e-09
2.70164e-09
2.36264e-09
2.72754e-09
4.46447e-09
2.77634e-06
9.31684e-06
3.01194e-05
5.84862e-05
4.78819e-05
1.13217e-05
9.94303e-06
3.91685e-05
2.98929e-06
3.38281e-06
0.00658417
3.22649e-08
3.1952e-08
3.18143e-08
3.17061e-08
3.17282e-08
5.36251e-06
3.5762e-08
4.91575e-08
4.35829e-07
1.31993e-05
3.85085e-05
3.87482e-05
1.74103e-05
2.56856e-05
4.98787e-05
4.95905e-05
6.03153e-05
7.63932e-05
8.79963e-05
9.38603e-05
5.78838e-05
2.01269e-07
2.77916e-08
8.29803e-09
3.15054e-09
2.3419e-09
2.36268e-09
2.36268e-09
2.73455e-09
4.46446e-09
8.28566e-09
2.31518e-08
1.03705e-05
2.70967e-05
3.0285e-05
5.59261e-06
3.16076e-08
2.96459e-06
0.00334353
0.00663963
1.18216e-07
3.24227e-07
1.32296e-06
0.000101215
0.000191066
2.57072e-05
3.82776e-08
3.89578e-08
2.7236e-07
7.6832e-07
1.22226e-06
9.6558e-07
2.99496e-07
5.38646e-07
1.65919e-06
4.70269e-06
5.65227e-06
3.22207e-06
1.95844e-05
0.000101614
0.000152662
4.53962e-05
2.20522e-07
5.77347e-08
1.05309e-08
2.1638e-09
2.36131e-09
7.49406e-09
3.15818e-08
3.22824e-08
2.7973e-08
3.03834e-08
3.297e-08
5.616e-08
1.22447e-05
2.20854e-06
3.16076e-08
0.00120704
0.0112573
0.00630386
1.18225e-07
6.5517e-07
9.75043e-06
0.000591529
0.000624536
6.76792e-05
3.8385e-08
4.00606e-08
7.33737e-08
5.31204e-08
5.28281e-08
5.11273e-08
2.77327e-07
4.69231e-07
1.65836e-07
1.2437e-07
1.33337e-07
1.98858e-07
2.7448e-06
7.48598e-05
0.000152662
0.000152662
3.81545e-05
1.46246e-06
8.36736e-08
2.69075e-09
2.16559e-09
6.63784e-09
4.72517e-08
6.14957e-08
6.28349e-08
4.23905e-08
5.37989e-08
6.3231e-08
6.32313e-08
6.19552e-08
3.26308e-07
0.00989552
0.0114835
0.00584073
5.35412e-07
7.68909e-07
0.00022405
0.000625499
0.000626839
8.46509e-05
3.8385e-08
4.03143e-08
4.63503e-08
4.96727e-08
4.94249e-08
4.92964e-08
7.31218e-08
1.64769e-07
1.06752e-07
5.54137e-08
1.77302e-07
5.31038e-06
4.60896e-05
0.000141619
0.000152662
0.000152588
0.000154164
8.90795e-05
1.55159e-05
-1.77416e-10
8.05493e-10
6.91446e-10
1.04108e-09
3.09975e-08
6.70038e-08
3.76111e-07
1.03825e-06
1.3298e-06
6.19546e-08
2.39876e-07
2.21688e-06
0.0114835
0.0115068
0.00534893
3.63524e-06
1.04697e-06
0.000448667
0.000626884
0.000626839
7.95406e-05
6.54146e-08
4.63503e-08
4.96727e-08
4.94249e-08
4.92963e-08
4.92964e-08
4.92963e-08
4.98953e-08
5.24942e-08
5.42349e-08
5.55043e-08
4.6898e-06
6.08689e-05
0.000131886
0.000129088
0.000147713
0.000155782
0.000155761
0.000137705
1.09857e-05
4.18551e-10
2.63316e-10
2.55388e-10
2.47642e-10
7.81766e-09
6.86851e-07
4.18864e-06
4.19968e-06
3.20692e-07
2.19421e-07
2.21905e-06
0.0115087
0.0114895
0.00379041
7.12284e-05
3.71129e-06
0.000180093
0.000626839
0.000626884
0.000512444
7.16382e-05
1.21195e-05
3.08025e-05
2.78004e-07
4.94249e-08
4.92964e-08
4.9768e-08
3.31467e-05
9.07669e-05
1.84328e-05
1.10388e-07
4.39936e-05
7.14892e-05
6.55039e-06
2.15293e-06
1.43505e-05
0.000117325
0.00015706
0.000156896
4.44699e-05
1.47373e-07
1.50176e-09
2.44625e-10
2.24034e-10
3.00609e-10
7.14167e-07
4.19968e-06
4.20675e-06
2.99238e-06
9.06694e-08
1.09965e-06
0.0114698
0.00873513
0.00141716
0.000503633
4.42736e-05
9.1205e-05
0.000465937
0.000626839
0.000623033
0.000613941
0.000270241
0.000110928
3.30877e-05
7.54788e-05
0.000132284
0.000226087
0.000259913
0.000264805
0.000259153
0.000268358
0.000269279
0.000265239
2.61393e-05
1.61447e-06
1.61447e-06
1.60861e-06
0.000137321
0.00015706
5.25657e-05
2.91782e-08
5.24431e-09
3.54491e-10
2.19432e-10