/*--------------------------------*- C++ -*----------------------------------*\
  =========                 |
  \\      /  F ield         | OpenFOAM: The Open Source CFD Toolbox
   \\    /   O peration     | Website:  https://openfoam.org
    \\  /    A nd           | Version:  8
     \\/     M anipulation  |
\*---------------------------------------------------------------------------*/
FoamFile
{
    version     2.0;
    format      ascii;
    class       volVectorField;
    location    "0.6";
    object      U;
}
// * * * * * * * * * * * * * * * * * * * * * * * * * * * * * * * * * * * * * //

dimensions      [0 1 -1 0 0 0 0];

internalField   nonuniform List<vector> 
9150
(
(0.00507915 -0.0777536 0)
(0.0129274 -0.0974497 0)
(0.0108154 -0.103881 0)
(0.0082111 -0.107932 0)
(0.00199919 -0.109268 0)
(-0.00252592 -0.10902 0)
(-0.00833922 -0.107937 0)
(-0.0108566 -0.103847 0)
(-0.0129491 -0.0974239 0)
(-0.00507792 -0.0777452 0)
(0.00608693 -0.0921678 0)
(0.0086276 -0.100528 0)
(0.007191 -0.102227 0)
(0.00476042 -0.103914 0)
(0.00234454 -0.105097 0)
(-0.00181319 -0.105378 0)
(-0.00450587 -0.104147 0)
(-0.00721524 -0.102231 0)
(-0.00864643 -0.100528 0)
(-0.00608405 -0.0921662 0)
(0.00186666 -0.0955105 0)
(0.00459494 -0.0990299 0)
(0.00374759 -0.100823 0)
(0.00300564 -0.102014 0)
(0.000612941 -0.102493 0)
(-0.000852837 -0.102326 0)
(-0.00328327 -0.101697 0)
(-0.00373331 -0.100839 0)
(-0.0046002 -0.0990292 0)
(-0.00186363 -0.0955107 0)
(0.00181133 -0.0984811 0)
(0.00252049 -0.100428 0)
(0.00217139 -0.100331 0)
(0.00141848 -0.100539 0)
(0.000738864 -0.100813 0)
(-0.00072262 -0.100815 0)
(-0.00128592 -0.100751 0)
(-0.00212667 -0.1004 0)
(-0.00251902 -0.100423 0)
(-0.00180913 -0.0984798 0)
(0.000210178 -0.0995075 0)
(0.000751649 -0.0995599 0)
(0.000460721 -0.099938 0)
(0.000589995 -0.0999484 0)
(0.000162227 -0.100086 0)
(-0.000109424 -0.100119 0)
(-0.000574775 -0.0999302 0)
(-0.000483103 -0.0998934 0)
(-0.000754155 -0.0995556 0)
(-0.000210336 -0.0995074 0)
(0.0781127 -0.19572 1.05793e-26)
(0.0497345 -0.186033 0)
(0.0323288 -0.177587 0)
(0.0169201 -0.174982 0)
(0.00439381 -0.176182 0)
(-0.00471367 -0.175825 0)
(-0.0171414 -0.174152 0)
(-0.0322709 -0.177307 0)
(-0.0496978 -0.185832 0)
(-0.0780606 -0.195595 -1.05601e-26)
(0.058416 -0.145931 3.18868e-27)
(0.047581 -0.146356 0)
(0.0275105 -0.156266 0)
(0.0200598 -0.157641 0)
(0.00467774 -0.156897 0)
(-0.00394118 -0.156843 0)
(-0.0196414 -0.157908 0)
(-0.0274669 -0.156074 0)
(-0.0476009 -0.146356 0)
(-0.0584146 -0.145924 -3.24257e-27)
(0.048002 -0.121634 1.59846e-27)
(0.0419711 -0.131592 0)
(0.0302149 -0.135058 0)
(0.0184357 -0.138129 0)
(0.00513656 -0.140207 0)
(-0.00671969 -0.139877 0)
(-0.0194402 -0.13681 0)
(-0.0305665 -0.134978 0)
(-0.0422259 -0.131702 0)
(-0.048053 -0.121638 -1.59844e-27)
(0.0376515 -0.0996473 2.04372e-27)
(0.0381873 -0.110365 0)
(0.0217915 -0.11947 0)
(0.0168604 -0.124801 0)
(0.00408355 -0.125246 0)
(-0.00395146 -0.125522 0)
(-0.0164713 -0.12579 0)
(-0.0213824 -0.119668 0)
(-0.0379525 -0.110343 0)
(-0.0375828 -0.0996336 -2.0572e-27)
(0.0255966 -0.0810774 -8.54415e-27)
(0.028871 -0.100787 -9.99209e-27)
(0.0206771 -0.108188 -2.5134e-27)
(0.0119578 -0.113379 -2.21715e-27)
(0.00492852 -0.116432 -6.59405e-29)
(-0.0043255 -0.116396 -6.50852e-29)
(-0.011922 -0.11339 -2.24487e-27)
(-0.0207862 -0.108294 -2.52344e-27)
(-0.0289254 -0.100723 -9.98466e-27)
(-0.0255805 -0.0810364 -8.53893e-27)
(0.017036 -0.144445 0)
(0.0117384 -0.20392 0)
(0.0206116 -0.217588 0)
(0.00491607 -0.22494 0)
(0.00475092 -0.226276 0)
(-0.0111663 -0.22471 0)
(-0.0102652 -0.221607 0)
(-0.0226826 -0.21457 0)
(-0.0121488 -0.203321 0)
(-0.0170221 -0.144339 0)
(0.0158648 -0.166139 0)
(0.00207708 -0.198673 0)
(0.0158422 -0.207753 0)
(0.00244117 -0.212739 0)
(0.00772771 -0.214151 0)
(-0.00586289 -0.214059 0)
(-0.000240107 -0.214384 0)
(-0.0147859 -0.208628 0)
(-0.00149121 -0.198913 0)
(-0.0157761 -0.166126 0)
(0.0152783 -0.171577 0)
(-0.00320194 -0.202345 0)
(0.0114703 -0.207424 0)
(-0.00195936 -0.209905 0)
(0.00425302 -0.209469 0)
(-0.00501843 -0.209339 0)
(0.00131458 -0.208827 0)
(-0.0119272 -0.207199 0)
(0.00313408 -0.202194 0)
(-0.0154783 -0.171421 0)
(0.0166288 -0.192083 0)
(-0.00609683 -0.203142 0)
(0.0105871 -0.209311 0)
(-0.00133074 -0.206178 0)
(0.00279883 -0.207448 0)
(-0.00302479 -0.207393 0)
(0.00146791 -0.206858 0)
(-0.0105001 -0.209331 0)
(0.00606937 -0.203122 0)
(-0.0165624 -0.192144 0)
(0.0321057 -0.217893 0)
(0.00749135 -0.204688 0)
(0.0171269 -0.205535 0)
(0.0100803 -0.197662 0)
(0.00258222 -0.194545 0)
(-0.00187487 -0.194701 0)
(-0.00976164 -0.197468 0)
(-0.0170355 -0.205303 0)
(-0.00741224 -0.204442 0)
(-0.0320976 -0.21782 0)
(-1.1487 -0.335501 0)
(-1.17544 -0.398409 0)
(-1.01343 -0.536374 0)
(-0.642643 -0.744473 0)
(-0.359005 -0.902795 0)
(0.137103 -0.713816 0)
(0.422423 -0.612038 0)
(0.677061 -0.482215 0)
(0.826659 -0.406654 0)
(0.962485 -0.355115 0)
(-0.288412 0.408302 0)
(-0.434445 0.301154 0)
(-0.581083 -0.224714 0)
(-0.35094 -0.933465 0)
(-0.273179 -1.38235 0)
(0.047021 -1.33185 0)
(0.272492 -0.754016 0)
(0.312214 -0.363128 0)
(0.402024 -0.205159 0)
(0.50231 -0.0964797 0)
(-0.237402 0.203253 0)
(-0.166422 0.163136 0)
(-0.029902 -0.116904 0)
(-0.124456 -0.700491 0)
(-0.0725348 -1.62992 0)
(-0.0427843 -1.5719 0)
(0.063697 -0.691956 0)
(0.119123 -0.401482 0)
(0.158247 -0.476216 0)
(0.259491 -0.482855 0)
(-0.35792 -0.106933 0)
(-0.18774 -0.228193 0)
(-0.0440264 -0.442251 0)
(-0.034827 -0.696096 0)
(-0.0202521 -1.70354 0)
(-0.0174874 -1.67418 0)
(0.00399123 -0.87297 0)
(0.101468 -0.704027 0)
(0.166264 -0.735619 0)
(0.288703 -0.714595 0)
(-0.410521 -0.28188 0)
(-0.320873 -0.608833 0)
(-0.193426 -0.543612 0)
(-0.00772595 -0.778267 0)
(0.0177553 -1.71161 0)
(-0.00407101 -1.71035 0)
(0.0611444 -1.01142 0)
(0.0823143 -0.795619 0)
(0.111057 -0.820255 0)
(0.148549 -0.783966 0)
(-0.271591 -0.330279 0)
(-0.0892094 -0.812865 0)
(-0.102453 -0.962583 0)
(0.0356538 -1.03323 0)
(0.0475309 -1.68302 0)
(0.0274822 -1.72923 0)
(0.0683768 -1.11644 0)
(0.0520907 -0.821664 0)
(0.10329 -0.851162 0)
(0.103329 -0.734007 0)
(0.0337143 -0.307783 0)
(0.0924894 -0.800541 0)
(0.0249481 -1.03363 0)
(0.0501057 -1.06965 0)
(0.0578399 -1.67515 0)
(0.053481 -1.74151 0)
(0.0852734 -1.1941 0)
(0.0427829 -0.831739 0)
(0.0747852 -0.850526 0)
(0.0486182 -0.696497 0)
(0.127109 -0.567191 0)
(0.160455 -0.723152 0)
(0.0854965 -1.00794 0)
(0.043937 -1.07514 0)
(0.0699826 -1.70284 0)
(0.0543696 -1.74696 0)
(0.0634919 -1.19923 0)
(0.0282548 -0.820172 0)
(0.0218755 -0.804817 0)
(0.00139449 -0.720022 0)
(0.166438 -0.617914 0)
(0.18523 -0.679382 0)
(0.155181 -0.840623 0)
(0.0553131 -1.01358 0)
(0.0825659 -1.71171 0)
(0.0651623 -1.72203 0)
(0.0361967 -1.1158 0)
(0.00192523 -0.798472 0)
(-0.00735226 -0.757619 0)
(-0.0232871 -0.654187 0)
(0.143498 -0.641443 0)
(0.11788 -0.651183 0)
(0.120042 -0.743237 0)
(0.0552139 -0.939792 0)
(0.0745328 -1.72141 0)
(0.0573125 -1.66005 0)
(0.0197385 -1.0093 0)
(-0.0630972 -0.759666 0)
(-0.0307873 -0.726056 0)
(-0.0803088 -0.588816 0)
(-0.0719759 -0.697964 0)
(-0.00622093 -0.655031 0)
(-0.0502955 -0.7072 0)
(-0.0448722 -0.94736 0)
(-0.0110012 -1.76768 0)
(-0.0313744 -1.55411 0)
(-0.0681457 -0.870185 0)
(-0.140985 -0.745024 0)
(-0.078689 -0.701004 0)
(-0.187232 -0.482474 0)
(-0.0924805 -0.661309 0)
(-0.0326864 -0.656532 0)
(-0.125112 -0.674479 0)
(-0.0787585 -1.10965 0)
(-0.0614363 -1.7732 0)
(-0.053635 -1.50041 0)
(-0.0851494 -0.745839 0)
(-0.138491 -0.734764 0)
(-0.139736 -0.626867 0)
(-0.2701 -0.272553 0)
(-0.0588447 -0.635784 0)
(-0.0119715 -0.636296 0)
(-0.110948 -0.594556 0)
(-0.0780153 -1.22089 0)
(-0.0927003 -1.75267 0)
(-0.0614675 -1.51248 0)
(-0.0649917 -0.668624 0)
(-0.120582 -0.694738 0)
(-0.167144 -0.393831 0)
(-0.322557 -0.0425063 0)
(-0.00375938 -0.609861 0)
(0.0419485 -0.594616 0)
(-0.0233759 -0.480227 0)
(-0.074195 -1.22143 0)
(-0.103812 -1.74803 0)
(-0.0777127 -1.59387 0)
(-0.0599789 -0.597009 0)
(-0.180462 -0.609528 0)
(-0.248601 -0.0797735 0)
(-0.372911 0.200999 0)
(0.0939923 -0.59538 0)
(0.0836919 -0.583312 0)
(0.110446 -0.422766 0)
(0.000429898 -1.01223 0)
(-0.0760951 -1.72314 0)
(-0.0414257 -1.68916 0)
(-0.0519958 -0.470552 0)
(-0.120883 -0.281174 0)
(-0.212784 0.163404 0)
(-0.328259 0.458712 0)
(0.143393 -0.505787 0)
(0.0996886 -0.61124 0)
(0.149201 -0.456802 0)
(0.0478011 -0.675903 0)
(-0.00890595 -1.66075 0)
(-0.00552755 -1.72449 0)
(-0.0260826 -0.450586 0)
(0.148577 -0.123746 0)
(-0.00540508 0.42403 0)
(-0.174515 0.738393 0)
(0.199174 -0.288889 0)
(0.0850424 -0.603901 0)
(0.116488 -0.484194 0)
(0.050697 -0.54114 0)
(0.0303005 -1.61339 0)
(0.0302525 -1.71968 0)
(0.00987737 -0.690208 0)
(0.30211 -0.370861 0)
(0.362103 0.582757 0)
(-0.0521846 1.22146 0)
(0.303837 -0.213378 0)
(0.159482 -0.423801 0)
(0.125219 -0.461867 0)
(0.0413273 -0.47578 0)
(0.0577394 -1.61241 0)
(0.0566746 -1.70471 0)
(0.0524012 -1.21179 0)
(0.268275 -0.630518 0)
(0.327729 0.910092 0)
(0.000824062 1.52495 0)
(0.360003 -0.137339 0)
(0.299335 -0.215481 0)
(0.261148 -0.276545 0)
(0.0813169 -0.310774 0)
(0.0889169 -1.60225 0)
(0.0855708 -1.70567 0)
(0.0953995 -1.43569 0)
(0.0606559 -0.551644 0)
(0.0435893 1.13812 0)
(-0.0689397 1.86677 0)
(0.345536 -0.164461 0)
(0.329049 -0.181473 0)
(0.312642 -0.153744 0)
(0.189793 -0.0952067 0)
(0.100435 -1.59566 0)
(0.100928 -1.71151 0)
(0.148059 -1.4735 0)
(-0.0509002 0.138186 0)
(-0.200457 1.26944 0)
(-0.0666539 1.80212 0)
(0.395319 -0.168637 0)
(0.398346 -0.19228 0)
(0.274311 -0.0736832 0)
(0.0609435 0.134265 0)
(0.0476028 -1.67761 0)
(0.0347488 -1.73065 0)
(0.0703164 -1.11243 0)
(-0.28934 0.486461 0)
(-0.115656 1.09387 0)
(0.0296976 1.6274 0)
(0.232608 -0.0894243 0)
(0.338683 0.14307 0)
(0.0774662 0.413311 0)
(0.012639 0.352112 0)
(0.0201542 -1.68843 0)
(0.00645585 -1.71922 0)
(0.0260795 -0.599413 0)
(-0.114714 0.288594 0)
(0.103465 0.63247 0)
(0.167589 1.26955 0)
(0.125568 -0.124164 0)
(0.247345 0.122925 0)
(0.0351865 0.638037 0)
(0.00670442 0.395877 0)
(0.0109226 -1.68809 0)
(-0.00431676 -1.71254 0)
(0.00292295 -0.833747 0)
(0.203233 0.12607 0)
(0.200871 0.391929 0)
(0.198963 0.947818 0)
(0.204202 -0.164534 0)
(0.140401 0.0836294 0)
(-0.025737 0.855669 0)
(-0.0256196 0.404541 0)
(0.0141607 -1.69077 0)
(-0.00737535 -1.70079 0)
(0.00374614 -1.09092 0)
(0.159763 0.0797974 0)
(0.0686785 0.450564 0)
(0.0402812 0.994149 0)
(0.238025 -0.126632 0)
(-0.123673 0.836851 0)
(-0.1712 1.05346 0)
(-0.142544 0.340055 0)
(0.0161252 -1.68714 0)
(-0.00722093 -1.68775 0)
(0.00836918 -1.26402 0)
(0.0612527 0.445271 0)
(-0.205211 0.675385 0)
(-0.21648 0.81314 0)
(0.0427891 0.215681 0)
(-0.197528 1.22991 0)
(-0.181894 1.2869 0)
(-0.152055 -0.912759 0)
(0.0164779 -1.68355 0)
(-0.000281914 -1.67942 0)
(-0.0109728 -1.52444 0)
(0.134968 0.841933 0)
(-0.198697 0.827736 0)
(-0.217946 0.827224 0)
(-0.0385823 0.56474 0)
(-0.17233 1.37862 0)
(-0.178184 1.46079 0)
(-0.0339879 -1.31838 0)
(0.0220512 -1.66998 0)
(0.00616376 -1.67291 0)
(0.0167791 -1.57319 0)
(0.226481 0.580382 0)
(0.0563618 1.07036 0)
(-0.0344972 1.00031 0)
(-0.00264911 0.538264 0)
(-0.0978213 1.42494 0)
(-0.131125 1.54224 0)
(0.00507588 -1.51302 0)
(0.00300805 -1.65796 0)
(-0.00877632 -1.66361 0)
(-0.0252498 -1.63607 0)
(0.0988365 0.402771 0)
(0.31715 1.34964 0)
(0.242409 1.31748 0)
(0.196975 0.618638 0)
(0.0644086 1.39617 0)
(0.00965417 1.61772 0)
(0.0200986 -1.50652 0)
(0.00728766 -1.65291 0)
(-0.00684812 -1.65 0)
(-0.00446786 -1.64475 0)
(-0.0344289 -0.437757 0)
(0.323562 1.23934 0)
(0.222188 1.36994 0)
(0.291526 0.832697 0)
(0.167608 1.59681 0)
(0.0449562 1.82788 0)
(0.00298535 -1.48509 0)
(0.00802067 -1.64651 0)
(-0.00489793 -1.63837 0)
(-0.00369818 -1.64516 0)
(-0.067561 -0.0860602 0)
(-0.0433076 1.07018 0)
(0.0418505 1.33461 0)
(0.203393 1.18458 0)
(0.0838314 1.91272 0)
(0.0562263 1.89862 0)
(0.0484151 -1.50923 0)
(0.0221888 -1.63158 0)
(0.00766987 -1.6312 0)
(0.034893 -1.61196 0)
(-0.0928409 -0.0243445 0)
(-0.266828 1.01763 0)
(-0.279435 1.29522 0)
(0.00964785 1.46805 0)
(-0.0284531 1.9461 0)
(0.0294559 1.85516 0)
(0.019596 -1.4114 0)
(0.0099296 -1.61178 0)
(-0.00477793 -1.62488 0)
(0.00416166 -1.47014 0)
(-0.106283 0.36467 0)
(-0.33069 1.15109 0)
(-0.362595 1.3713 0)
(-0.131828 1.5534 0)
(-0.128198 1.83287 0)
(0.00809932 1.71335 0)
(-0.021683 -1.40614 0)
(-0.00207859 -1.60424 0)
(-0.0154436 -1.60254 0)
(-0.0360215 -1.40138 0)
(-0.123776 0.699295 0)
(-0.286447 1.31458 0)
(-0.326971 1.46308 0)
(-0.167664 1.56308 0)
(-0.183538 1.70758 0)
(0.0181303 1.45055 0)
(0.0122541 -1.35493 0)
(0.00949834 -1.59214 0)
(-0.00413422 -1.5879 0)
(0.00446375 -1.23059 0)
(-0.0587574 0.886829 0)
(-0.150358 1.52364 0)
(-0.208021 1.62566 0)
(-0.14333 1.547 0)
(-0.126228 1.61433 0)
(-0.00420635 1.24443 0)
(-0.000802959 -1.37526 0)
(0.005625 -1.57702 0)
(-0.00901808 -1.57795 0)
(-0.00318793 -1.2366 0)
(-0.0105717 0.879545 0)
(0.0367838 1.61637 0)
(0.00425328 1.7828 0)
(-0.103419 1.44413 0)
(-0.0663892 1.55683 0)
(-0.00949972 1.13776 0)
(0.00957078 -1.3764 0)
(0.00771691 -1.56241 0)
(-0.00712626 -1.56179 0)
(0.00152031 -1.26464 0)
(0.0227833 0.772648 0)
(0.075019 1.57914 0)
(0.0694666 1.78235 0)
(-0.110308 1.29905 0)
(-0.0558997 1.51125 0)
(-0.0118667 1.05137 0)
(0.010321 -1.38395 0)
(0.00710668 -1.55058 0)
(-0.00845209 -1.54977 0)
(0.00493716 -1.30026 0)
(-0.0163892 0.710249 0)
(0.0311438 1.55902 0)
(0.0298957 1.7484 0)
(-0.130621 1.23586 0)
(-0.0952709 1.45814 0)
(-0.00864995 0.945719 0)
(0.014591 -1.37748 0)
(0.00634292 -1.5396 0)
(-0.00730462 -1.53978 0)
(0.0136208 -1.30669 0)
(-0.0587581 0.794818 0)
(-0.095942 1.54764 0)
(-0.0379746 1.65876 0)
(-0.182806 1.20941 0)
(-0.207398 1.32214 0)
(0.0122423 0.666213 0)
(0.016556 -1.34846 0)
(0.00703572 -1.52706 0)
(-0.00801818 -1.52648 0)
(0.00486238 -1.16906 0)
(-0.0732457 0.969202 0)
(-0.115456 1.44392 0)
(-0.0243833 1.60907 0)
(-0.202934 1.14876 0)
(-0.212108 1.1468 0)
(0.0444118 0.277486 0)
(-0.00378306 -1.33039 0)
(0.00590799 -1.51446 0)
(-0.00790325 -1.51458 0)
(0.00381101 -1.22285 0)
(-0.0471181 1.12693 0)
(-0.0963881 1.36305 0)
(-0.0106269 1.4951 0)
(-0.184302 1.05059 0)
(-0.0460294 1.00812 0)
(0.0779552 0.341411 0)
(-0.0118502 -1.2254 0)
(0.00705352 -1.50159 0)
(-0.00822921 -1.50093 0)
(-0.0085634 -1.24318 0)
(-0.0242515 1.22049 0)
(-0.0507339 1.28609 0)
(0.00256179 1.3544 0)
(-0.166244 0.727165 0)
(0.0217471 0.597523 0)
(0.0828573 0.355686 0)
(0.0112802 -1.13878 0)
(0.00650059 -1.48945 0)
(-0.00779131 -1.48907 0)
(-0.0156468 -1.24248 0)
(0.0496958 1.27843 0)
(0.0445541 1.26848 0)
(0.0791721 1.29218 0)
(-0.279522 0.462437 0)
(-0.148685 0.370972 0)
(-0.0121619 0.376306 0)
(0.00838868 -1.23832 0)
(0.00664952 -1.47716 0)
(-0.00778894 -1.47669 0)
(-0.0202489 -1.23151 0)
(0.0415395 1.01443 0)
(0.322985 1.1926 0)
(0.265069 1.23815 0)
(-0.436897 0.256508 0)
(-0.316903 0.0658684 0)
(-0.0666339 -0.146968 0)
(0.0103274 -1.2086 0)
(0.00698007 -1.46452 0)
(-0.00787551 -1.46401 0)
(-0.00443558 -1.24182 0)
(-0.0169221 0.196242 0)
(0.357208 1.04637 0)
(0.353879 1.20832 0)
(-0.288814 0.117987 0)
(-0.18807 -0.103927 0)
(-0.0539734 -0.454587 0)
(0.00265611 -1.25757 0)
(0.00720818 -1.45287 0)
(-0.007065 -1.45161 0)
(0.0220749 -1.17899 0)
(-0.0533301 0.164459 0)
(0.0964406 0.924744 0)
(0.27065 1.10915 0)
(-0.138198 -0.0381042 0)
(-0.0803714 -0.245457 0)
(-0.00599196 -0.586179 0)
(0.00806134 -1.28006 0)
(0.00771923 -1.43951 0)
(-0.00713088 -1.43906 0)
(-0.00769092 -1.07096 0)
(-0.0999358 0.196746 0)
(-0.0551119 0.406082 0)
(0.16736 0.474354 0)
(-0.0878317 -0.138481 0)
(-0.048646 -0.342848 0)
(0.0011874 -0.681399 0)
(0.00445253 -1.28885 0)
(0.00780176 -1.42666 0)
(-0.00702376 -1.42657 0)
(0.00435983 -1.19262 0)
(0.0367642 0.256629 0)
(0.12342 0.286257 0)
(0.252638 0.282648 0)
(-0.0717642 -0.230424 0)
(-0.0398786 -0.414163 0)
(0.00701264 -0.740418 0)
(0.0077321 -1.28904 0)
(0.00702366 -1.41359 0)
(-0.0076562 -1.41367 0)
(-0.0141089 -1.1722 0)
(0.033145 -0.110236 0)
(0.284978 0.0135373 0)
(0.390937 0.101844 0)
(-0.0703399 -0.315563 0)
(-0.0357456 -0.485537 0)
(0.00193334 -0.807619 0)
(0.00388213 -1.28909 0)
(0.00779748 -1.40098 0)
(-0.00723261 -1.39986 0)
(-0.00413175 -1.20012 0)
(0.0263817 -0.479407 0)
(0.181285 -0.214757 0)
(0.254466 -0.0314041 0)
(-0.0650485 -0.397917 0)
(-0.0333395 -0.541464 0)
(0.00544697 -0.846954 0)
(0.0119858 -1.29008 0)
(0.00806808 -1.3861 0)
(-0.00693977 -1.38625 0)
(-0.00959265 -1.20602 0)
(0.00392128 -0.586122 0)
(0.0729072 -0.315011 0)
(0.129207 -0.142013 0)
(-0.0563604 -0.472687 0)
(-0.0288608 -0.599332 0)
(-0.000490678 -0.89993 0)
(0.00459775 -1.2967 0)
(0.00819267 -1.37284 0)
(-0.00696552 -1.37244 0)
(-0.000953682 -1.2076 0)
(-0.000942739 -0.679842 0)
(0.0511651 -0.407833 0)
(0.0909224 -0.255678 0)
(-0.0362112 -0.528737 0)
(-0.0169101 -0.633399 0)
(0.00520789 -0.926623 0)
(0.0111072 -1.30287 0)
(0.00768645 -1.3569 0)
(-0.0076599 -1.35768 0)
(-0.0115462 -1.2042 0)
(0.000456416 -0.739617 0)
(0.0473934 -0.487435 0)
(0.0947069 -0.362128 0)
(-0.0183275 -0.563728 0)
(-0.0120763 -0.65594 0)
(0.00194863 -0.946211 0)
(0.000808599 -1.31026 0)
(0.00717443 -1.34329 0)
(-0.0081364 -1.34328 0)
(-0.0021702 -1.21816 0)
(0.0159749 -0.828394 0)
(0.0578551 -0.582298 0)
(0.10194 -0.472921 0)
(0.00781911 -0.571987 0)
(0.00610022 -0.660497 0)
(0.00822313 -0.951642 0)
(0.00762882 -1.31522 0)
(0.00699006 -1.32738 0)
(-0.00857263 -1.32747 0)
(-0.0094802 -1.2509 0)
(0.0172851 -0.879026 0)
(0.0560476 -0.641952 0)
(0.0952948 -0.561363 0)
(0.0314834 -0.555905 0)
(0.0165373 -0.643316 0)
(0.0094246 -0.941841 0)
(0.00160982 -1.31613 0)
(0.00725895 -1.31312 0)
(-0.00805133 -1.31291 0)
(-0.0029147 -1.28472 0)
(0.0156562 -0.945529 0)
(0.0497 -0.715361 0)
(0.081817 -0.645204 0)
(0.0499379 -0.519814 0)
(0.0285073 -0.610634 0)
(0.0226849 -0.924871 0)
(0.00958834 -1.30268 0)
(0.00745206 -1.29743 0)
(-0.00835608 -1.29738 0)
(-0.00966831 -1.29409 0)
(-0.00736076 -0.978261 0)
(0.0316983 -0.755848 0)
(0.0553777 -0.699196 0)
(0.058702 -0.473171 0)
(0.0323148 -0.574377 0)
(0.0177196 -0.909757 0)
(0.00137172 -1.29036 0)
(0.00705641 -1.28251 0)
(-0.00787441 -1.28281 0)
(-0.00436946 -1.29383 0)
(-0.00619815 -1.02943 0)
(0.0205891 -0.798377 0)
(0.0330348 -0.745412 0)
(0.0629225 -0.418446 0)
(0.0348738 -0.524639 0)
(0.0244533 -0.881213 0)
(0.0101064 -1.27638 0)
(0.00756766 -1.26742 0)
(-0.00860327 -1.26724 0)
(-0.011653 -1.28148 0)
(-0.0148501 -1.05506 0)
(0.00539133 -0.816474 0)
(0.010067 -0.767264 0)
(0.0604669 -0.366403 0)
(0.0308962 -0.488451 0)
(0.0177625 -0.866427 0)
(0.00170379 -1.26228 0)
(0.00690401 -1.2523 0)
(-0.00760229 -1.25245 0)
(-0.00309463 -1.26952 0)
(-0.0150283 -1.06761 0)
(-0.0104543 -0.818198 0)
(-0.0138313 -0.768595 0)
(0.0586652 -0.311285 0)
(0.0326663 -0.433898 0)
(0.0242798 -0.839795 0)
(0.0108121 -1.24776 0)
(0.00776946 -1.23731 0)
(-0.00854169 -1.23725 0)
(-0.0120059 -1.25458 0)
(-0.0200739 -1.06854 0)
(-0.0252274 -0.80859 0)
(-0.037815 -0.759443 0)
(0.051111 -0.268986 0)
(0.0258261 -0.406531 0)
(0.0182905 -0.82824 0)
(0.00208647 -1.23308 0)
(0.00685473 -1.22193 0)
(-0.00747653 -1.2219 0)
(-0.0028338 -1.23938 0)
(-0.0184169 -1.05084 0)
(-0.0361677 -0.769514 0)
(-0.0616779 -0.710262 0)
(0.0490456 -0.223089 0)
(0.0281774 -0.361842 0)
(0.0233802 -0.808119 0)
(0.0116629 -1.21817 0)
(0.00797035 -1.20685 0)
(-0.00841263 -1.20691 0)
(-0.0122872 -1.22334 0)
(-0.0254976 -1.00615 0)
(-0.0555267 -0.701436 0)
(-0.0898163 -0.640787 0)
(0.0426212 -0.192721 0)
(0.0224421 -0.341119 0)
(0.0195025 -0.800269 0)
(0.00292316 -1.20294 0)
(0.00698613 -1.19094 0)
(-0.00732283 -1.19077 0)
(-0.00293376 -1.2071 0)
(-0.0205361 -0.984076 0)
(-0.0409344 -0.659412 0)
(-0.0767335 -0.582169 0)
(0.0410439 -0.158772 0)
(0.0255252 -0.307925 0)
(0.0233301 -0.784569 0)
(0.01265 -1.1877 0)
(0.00830026 -1.17528 0)
(-0.00838601 -1.17562 0)
(-0.012662 -1.19092 0)
(-0.027334 -0.925599 0)
(-0.0589984 -0.569061 0)
(-0.0977928 -0.491902 0)
(0.0364614 -0.138293 0)
(0.0209061 -0.292974 0)
(0.0202541 -0.779028 0)
(0.00365637 -1.17213 0)
(0.0069877 -1.15883 0)
(-0.00732985 -1.15854 0)
(-0.00356369 -1.17446 0)
(-0.0215726 -0.899743 0)
(-0.044874 -0.522172 0)
(-0.0818631 -0.426005 0)
(0.0357229 -0.113771 0)
(0.0243318 -0.267959 0)
(0.0232395 -0.765642 0)
(0.01327 -1.15655 0)
(0.00854494 -1.14213 0)
(-0.00878755 -1.14285 0)
(-0.0136249 -1.15835 0)
(-0.0269031 -0.851211 0)
(-0.0491868 -0.442454 0)
(-0.0818131 -0.348526 0)
(0.0321935 -0.100025 0)
(0.0200769 -0.25697 0)
(0.0201605 -0.76127 0)
(0.00398396 -1.14044 0)
(0.00681519 -1.12502 0)
(-0.0074504 -1.12456 0)
(-0.00453551 -1.14175 0)
(-0.0218642 -0.830326 0)
(-0.0389666 -0.40231 0)
(-0.0693441 -0.290233 0)
(0.0320175 -0.0819015 0)
(0.0235963 -0.237118 0)
(0.0228577 -0.749782 0)
(0.0137826 -1.12454 0)
(0.00870522 -1.10759 0)
(-0.00929524 -1.10847 0)
(-0.0147544 -1.12536 0)
(-0.0259226 -0.796104 0)
(-0.0401983 -0.341888 0)
(-0.0643748 -0.23088 0)
(0.0290826 -0.0723062 0)
(0.0194362 -0.228712 0)
(0.0202303 -0.746801 0)
(0.00439118 -1.10781 0)
(0.00680236 -1.0895 0)
(-0.00746893 -1.08891 0)
(-0.00518844 -1.10855 0)
(-0.0217184 -0.78294 0)
(-0.0312122 -0.31244 0)
(-0.0538409 -0.188401 0)
(0.0293935 -0.0585603 0)
(0.0230086 -0.212267 0)
(0.022881 -0.737929 0)
(0.0145208 -1.09124 0)
(0.00896945 -1.07165 0)
(-0.00950165 -1.07253 0)
(-0.0153241 -1.09179 0)
(-0.0248605 -0.761566 0)
(-0.0326817 -0.270179 0)
(-0.0495723 -0.145892 0)
(0.0269571 -0.0516047 0)
(0.0190611 -0.205622 0)
(0.0206964 -0.736696 0)
(0.00502006 -1.07397 0)
(0.0068565 -1.0528 0)
(-0.00721715 -1.05236 0)
(-0.00551928 -1.07448 0)
(-0.0215242 -0.754659 0)
(-0.0254726 -0.250294 0)
(-0.0419191 -0.117365 0)
(0.0278831 -0.0408905 0)
(0.0230506 -0.191651 0)
(0.0234429 -0.729771 0)
(0.0152213 -1.05652 0)
(0.00919697 -1.03471 0)
(-0.00956994 -1.03548 0)
(-0.0155831 -1.05693 0)
(-0.0244406 -0.741459 0)
(-0.0281306 -0.221133 0)
(-0.039513 -0.0884101 0)
(0.0258567 -0.0359178 0)
(0.0191673 -0.186359 0)
(0.0214858 -0.729527 0)
(0.00555023 -1.03857 0)
(0.00671178 -1.01527 0)
(-0.00697049 -1.01527 0)
(-0.00605646 -1.039 0)
(-0.0217995 -0.738098 0)
(-0.0228257 -0.208136 0)
(-0.0344483 -0.0704074 0)
(0.0275024 -0.0276233 0)
(0.0242416 -0.174135 0)
(0.024059 -0.722169 0)
(0.0158383 -1.02006 0)
(0.00929071 -0.997051 0)
(-0.00972673 -0.997513 0)
(-0.0162238 -1.02046 0)
(-0.0249473 -0.728242 0)
(-0.0268746 -0.187499 0)
(-0.0339851 -0.0511167 0)
(0.0258573 -0.024278 0)
(0.0210231 -0.169818 0)
(0.0219424 -0.721498 0)
(0.00623748 -1.00132 0)
(0.00640737 -0.976884 0)
(-0.00665291 -0.977248 0)
(-0.00673934 -1.00173 0)
(-0.0222247 -0.725928 0)
(-0.0231197 -0.179015 0)
(-0.0306264 -0.0403108 0)
(0.0279267 -0.0180065 0)
(0.0265465 -0.158708 0)
(0.0249127 -0.711933 0)
(0.0167854 -0.981907 0)
(0.00956175 -0.958574 0)
(-0.00992475 -0.958722 0)
(-0.0171172 -0.982262 0)
(-0.0256682 -0.715787 0)
(-0.0279122 -0.163437 0)
(-0.0315678 -0.0276612 0)
(0.0264893 -0.0160903 0)
(0.0245753 -0.155217 0)
(0.0219515 -0.70974 0)
(0.00732323 -0.962323 0)
(0.00615943 -0.937107 0)
(-0.00638607 -0.93765 0)
(-0.00772555 -0.96265 0)
(-0.0225522 -0.712966 0)
(-0.0251856 -0.157803 0)
(-0.0290493 -0.0215657 0)
(0.0287546 -0.0113928 0)
(0.0291527 -0.144833 0)
(0.0256727 -0.698393 0)
(0.0179155 -0.942101 0)
(0.00986295 -0.918553 0)
(-0.0101229 -0.918567 0)
(-0.0182411 -0.942341 0)
(-0.026324 -0.701246 0)
(-0.0299351 -0.145109 0)
(-0.0308497 -0.0133136 0)
(0.0274905 -0.010561 0)
(0.0275131 -0.142082 0)
(0.0224691 -0.694892 0)
(0.00864024 -0.921592 0)
(0.00605048 -0.89576 0)
(-0.00626632 -0.896139 0)
(-0.00892755 -0.921788 0)
(-0.0230213 -0.697633 0)
(-0.0278243 -0.141274 0)
(-0.0288517 -0.0101792 0)
(0.0298088 -0.00681001 0)
(0.0317634 -0.132041 0)
(0.0265173 -0.682022 0)
(0.0191206 -0.900401 0)
(0.0102534 -0.876292 0)
(-0.0104234 -0.876363 0)
(-0.0193986 -0.900493 0)
(-0.0270294 -0.68459 0)
(-0.0321798 -0.130214 0)
(-0.0308833 -0.00466665 0)
(0.0285204 -0.00667708 0)
(0.0303499 -0.129816 0)
(0.0231919 -0.677672 0)
(0.00998359 -0.878786 0)
(0.00580035 -0.852475 0)
(-0.0059794 -0.852579 0)
(-0.0101887 -0.878861 0)
(-0.0236054 -0.680209 0)
(-0.0305354 -0.127567 0)
(-0.0292144 -0.00342088 0)
(0.0310442 -0.00366548 0)
(0.0346409 -0.120099 0)
(0.0277607 -0.663328 0)
(0.0202819 -0.856226 0)
(0.010774 -0.83184 0)
(-0.0109381 -0.831992 0)
(-0.0204558 -0.856274 0)
(-0.02813 -0.66579 0)
(-0.0348123 -0.117563 0)
(-0.0314964 0.000296057 0)
(0.0295789 -0.00406196 0)
(0.0335553 -0.118386 0)
(0.0239066 -0.657926 0)
(0.0113638 -0.833248 0)
(0.00532889 -0.806743 0)
(-0.00546507 -0.806829 0)
(-0.0115176 -0.833346 0)
(-0.0241857 -0.660327 0)
(-0.0336772 -0.115841 0)
(-0.0298368 0.000235897 0)
(0.0323369 -0.00170908 0)
(0.037982 -0.109291 0)
(0.0291754 -0.641526 0)
(0.0215315 -0.809068 0)
(0.011227 -0.785472 0)
(-0.0114455 -0.785655 0)
(-0.0216249 -0.809253 0)
(-0.0294767 -0.643805 0)
(-0.0379657 -0.106796 0)
(-0.0324907 0.00272534 0)
(0.030527 -0.00267827 0)
(0.037287 -0.108453 0)
(0.0246873 -0.634717 0)
(0.0128606 -0.784448 0)
(0.00474331 -0.758443 0)
(-0.00494214 -0.758837 0)
(-0.0130021 -0.784787 0)
(-0.0249497 -0.636861 0)
(-0.0373838 -0.106427 0)
(-0.0305346 0.00154302 0)
(0.033303 -0.0013694 0)
(0.0419703 -0.10045 0)
(0.0307425 -0.61559 0)
(0.0229267 -0.758436 0)
(0.011673 -0.7369 0)
(-0.0119674 -0.73723 0)
(-0.0230715 -0.75891 0)
(-0.0311188 -0.617569 0)
(-0.0421488 -0.0983978 0)
(-0.033419 0.00261417 0)
(0.0304359 -0.00360329 0)
(0.0416091 -0.101811 0)
(0.0254631 -0.606812 0)
(0.0145458 -0.731868 0)
(0.0039463 -0.707466 0)
(-0.00422178 -0.708188 0)
(-0.0146848 -0.732505 0)
(-0.0258247 -0.608686 0)
(-0.0419298 -0.100334 0)
(-0.0306008 -0.000122417 0)
(0.0317633 -0.00430175 0)
(0.0460864 -0.0967503 0)
(0.0326828 -0.583757 0)
(0.0244471 -0.703831 0)
(0.0122416 -0.685938 0)
(-0.0124775 -0.686608 0)
(-0.0247078 -0.704534 0)
(-0.0332111 -0.584869 0)
(-0.0467109 -0.0954971 0)
(-0.0323048 -0.00133156 0)
(0.0262972 -0.00981323 0)
(0.0430002 -0.106374 0)
(0.0267456 -0.572055 0)
(0.0167713 -0.674929 0)
(0.00316013 -0.653679 0)
(-0.00342197 -0.654321 0)
(-0.0169383 -0.675632 0)
(-0.0271138 -0.572536 0)
(-0.044115 -0.105381 0)
(-0.0269496 -0.00746806 0)
(0.0247991 -0.013558 0)
(0.0434277 -0.110698 0)
(0.0368308 -0.547079 0)
(0.026403 -0.644502 0)
(0.0130252 -0.631955 0)
(-0.0130089 -0.632779 0)
(-0.02666 -0.645117 0)
(-0.0366462 -0.545694 0)
(-0.0449255 -0.109381 0)
(-0.0251884 -0.0119009 0)
(0.0224057 -0.0226123 0)
(0.0185199 -0.147857 0)
(0.03875 -0.53957 0)
(0.0194956 -0.613222 0)
(0.00246624 -0.597758 0)
(-0.00228176 -0.597944 0)
(-0.0197257 -0.613575 0)
(-0.0377564 -0.53731 0)
(-0.0207543 -0.146116 0)
(-0.0214817 -0.0214636 0)
(0.0210181 -0.0152812 0)
(0.000839168 -0.160013 0)
(0.0454241 -0.549986 0)
(0.0283182 -0.580694 0)
(0.0141132 -0.574416 0)
(-0.0136222 -0.574918 0)
(-0.0285639 -0.580731 0)
(-0.0439403 -0.548519 0)
(-0.00293643 -0.158166 0)
(-0.0184517 -0.0153441 0)
(0.0258556 -0.000730649 0)
(0.0360236 -0.177058 0)
(0.0428636 -0.54991 0)
(0.0217628 -0.546408 0)
(0.00230147 -0.536537 0)
(-0.00248143 -0.536912 0)
(-0.0230123 -0.545985 0)
(-0.0415635 -0.549831 0)
(-0.0347758 -0.178537 0)
(-0.0233205 -0.00105361 0)
(0.0450079 -0.005358 0)
(0.0579297 -0.217506 0)
(0.0589325 -0.497304 0)
(0.0314993 -0.507698 0)
(0.0172599 -0.509162 0)
(-0.0159882 -0.510017 0)
(-0.0305 -0.506902 0)
(-0.0588257 -0.497016 0)
(-0.0576974 -0.221449 0)
(-0.0437568 -0.00372135 0)
(0.060969 -0.00419695 0)
(0.0589543 -0.235125 0)
(0.0527754 -0.45833 0)
(0.0228376 -0.468846 0)
(0.00194659 -0.465194 0)
(-0.00624261 -0.466953 0)
(-0.0285572 -0.467528 0)
(-0.0543896 -0.457035 0)
(-0.0606811 -0.237862 0)
(-0.0624176 -0.00495373 0)
(0.0599127 -0.0347334 0)
(0.0704313 -0.225584 0)
(0.0686608 -0.402066 0)
(0.0366488 -0.422923 0)
(0.0203864 -0.431402 0)
(-0.0176692 -0.432833 0)
(-0.0349499 -0.423012 0)
(-0.069738 -0.403575 0)
(-0.0725261 -0.229242 0)
(-0.0604222 -0.0355248 0)
(-0.00795083 -0.0624762 0)
(0.0707164 -0.278306 0)
(0.0632168 -0.364063 0)
(0.0246381 -0.381987 0)
(0.00163936 -0.379673 0)
(-0.0102365 -0.381148 0)
(-0.0316429 -0.381721 0)
(-0.0610777 -0.363384 0)
(-0.0733268 -0.278738 0)
(0.00396215 -0.0612169 0)
(0.0948618 -0.107331 0)
(0.0737271 -0.285668 0)
(0.0689224 -0.313588 0)
(0.0404185 -0.327028 0)
(0.0259152 -0.333417 0)
(-0.0139954 -0.335999 0)
(-0.0333117 -0.327303 0)
(-0.0681512 -0.316468 0)
(-0.0742987 -0.288362 0)
(-0.0921358 -0.104623 0)
(0.091735 -0.185632 0)
(0.0720352 -0.223366 0)
(0.0630238 -0.260472 0)
(0.0270807 -0.280189 0)
(0.00400697 -0.283655 0)
(-0.0190428 -0.279317 0)
(-0.0395451 -0.281981 0)
(-0.0683789 -0.260696 0)
(-0.0744211 -0.222578 0)
(-0.0962535 -0.189151 0)
(0.0589348 -0.125673 0)
(0.0500612 -0.195343 0)
(0.0462521 -0.230305 0)
(0.0268218 -0.242165 0)
(0.019282 -0.249279 0)
(-0.00468542 -0.248358 0)
(-0.0153099 -0.243095 0)
(-0.042608 -0.232938 0)
(-0.0499557 -0.193065 0)
(-0.0573368 -0.127266 0)
(1.06684 -0.306847 0)
(1.14349 -0.269827 0)
(1.20483 -0.224822 0)
(1.2994 -0.176077 0)
(1.35372 -0.136137 0)
(1.36267 -0.114027 0)
(1.37129 -0.10794 0)
(1.39612 -0.107824 0)
(1.42688 -0.0947357 0)
(1.42763 -0.0840597 0)
(1.40584 -0.082148 0)
(1.37463 -0.0858006 0)
(1.35002 -0.0909929 0)
(1.33342 -0.0980171 0)
(1.31776 -0.0952087 0)
(1.29169 -0.0830691 0)
(1.26586 -0.0642963 0)
(1.24354 -0.0379605 0)
(1.21809 -0.0142612 0)
(1.19169 -0.00028034 0)
(1.16842 0.00503318 0)
(1.15706 0.00695858 0)
(1.15784 0.00590532 0)
(1.15864 0.00332774 0)
(1.15544 0.00441875 0)
(1.15027 2.35617e-05 0)
(1.15174 -0.00375397 0)
(1.16065 -0.0111117 0)
(1.18474 -0.0327515 0)
(1.21992 -0.0369372 0)
(1.2312 -0.0319985 0)
(1.21762 -0.0330742 0)
(1.16506 -0.0152599 0)
(1.07831 0.0110983 0)
(1.00934 0.0525634 0)
(0.898001 0.0958192 0)
(0.761285 0.0705138 0)
(0.648201 0.166166 0)
(0.409127 0.259781 0)
(0.0776765 0.246435 0)
(0.545095 -0.110334 0)
(0.617152 -0.150211 0)
(0.706272 -0.114969 0)
(0.806874 -0.0196731 0)
(0.815689 0.00319638 0)
(0.808758 -0.00871702 0)
(0.823104 -0.0223229 0)
(0.861363 -0.00319665 0)
(0.885911 0.059534 0)
(0.878553 0.117823 0)
(0.879565 0.124506 0)
(0.876463 0.131227 0)
(0.880391 0.159066 0)
(0.879997 0.157162 0)
(0.873256 0.152888 0)
(0.854774 0.144114 0)
(0.850272 0.127678 0)
(0.850268 0.111936 0)
(0.849545 0.0999187 0)
(0.852161 0.0862587 0)
(0.858364 0.0562434 0)
(0.884957 0.00575718 0)
(0.923967 -0.00905359 0)