/*--------------------------------*- C++ -*----------------------------------*\
  =========                 |
  \\      /  F ield         | OpenFOAM: The Open Source CFD Toolbox
   \\    /   O peration     | Website:  https://openfoam.org
    \\  /    A nd           | Version:  8
     \\/     M anipulation  |
\*---------------------------------------------------------------------------*/
FoamFile
{
    version     2.0;
    format      ascii;
    class       volScalarField;
    location    "3.85";
    object      alpha.water;
}
// * * * * * * * * * * * * * * * * * * * * * * * * * * * * * * * * * * * * * //

dimensions      [0 0 0 0 0 0 0];

internalField   nonuniform List<scalar> 
9150
(
1
1
1
1
1
1
1
1
1
1
1
1
1
1
1
1
1
1
1
1
1
1
1
1
1
1
1
1
1
1
1
1
1
1
1
1
1
1
1
1
1
1
1
1
1
1
1
1
1
1
0.999999
0.999999
0.999999
0.999999
0.999999
0.999999
0.999999
0.999999
0.999999
0.999999
0.999999
0.999999
0.999999
0.999999
0.999999
0.999999
0.999999
0.999999
0.999999
0.999999
0.999999
0.999999
0.999999
0.999999
0.999999
0.999999
0.999999
0.999999
0.999999
0.999999
0.999999
0.999999
0.999999
0.999999
0.999999
0.999999
0.999999
0.999999
0.999999
0.999999
1
1
1
1
1
1
1
1
1
1
1
1
0.999999
0.999999
0.999999
1
1
1
1
1
1
0.999999
0.999999
0.999999
1
1
1
0.999999
0.999999
1
1
0.999999
0.999999
1
1
0.999999
0.999999
0.999999
0.999999
1
0.999999
0.999999
0.999999
1
1
0.999999
0.999999
0.999999
0.999999
1
0.999999
0.999999
0.999999
1
0.999999
0.999999
0.999999
0.999999
0.999999
1
1
1
1
1
1
1
1
1
1
1
0.999998
1
1
1
1
1
1
1
1
0.999998
1
1
1
1
1
1
1
1
0.999997
0.999997
1
1
0.999997
0.999997
1
1
1
0.999997
0.999997
0.999998
1
1
0.999996
0.999993
0.999998
1
1
1
1
0.999969
1
1
0.999999
0.999992
0.999994
0.999999
1
1
0.999953
0.999771
1
0.999994
0.999961
0.999956
0.999979
1
1
1
0.999974
0.99987
0.99922
0.998332
0.999141
0.999999
1
1
1
1
0.999998
0.999996
0.972544
0.99407
0.999994
1
1
1
1
0.999999
0.999998
0.999998
0.966067
0.995491
0.999996
1
1
1
0.999999
0.999999
0.999999
1
0.999984
0.99997
0.999966
0.999974
0.999996
1
1
1
1
1
0.999984
0.999888
0.99977
0.999863
0.999989
0.999988
0.999977
0.999991
1
1
0.999615
0.999153
0.999153
0.999371
0.99997
0.999773
0.999874
1
1
1
0.999153
0.999153
0.999153
0.999391
0.999984
0.999985
0.999985
0.984971
0.985086
0.997952
0.999153
0.999474
0.999987
0.999992
0.999998
0.999998
0.952502
0.753188
0.804563
0.975517
0.999921
0.999999
0.999999
0.999999
0.995528
0.853082
0.74852
0.748527
0.748536
0.840626
0.999999
0.999997
0.999999
0.998088
0.815063
0.748511
0.748507
0.748524
0.748534
0.87781
0.999999
0.999997
0.999999
0.986077
0.797869
0.748507
0.748505
0.79614
0.886212
0.987936
0.999999
0.999998
0.999998
0.992088
0.930181
0.890332
0.925855
0.986511
0.999328
0.999986
0.999999
0.999995
0.999878
0.9997
0.999925
0.999988
0.999986
0.999987
0.999987
0.999987
0.999999
0.999995
0.999995
0.999995
0.999994
0.999992
0.999988
0.999988
0.999987
0.999987
0.999999
0.999827
0.998662
0.999235
0.999993
0.999993
0.999991
0.99658
0.995053
0.993223
0.999957
0.999701
0.999031
0.917551
0.819293
0.819894
0.820906
0.821488
0.828469
0.934944
0.817457
0.817428
0.817462
0.817514
0.817571
0.939705
0.960098
0.960132
0.958553
0.978157
0.832041
0.975405
0.988413
0.980936
0.974575
0.973059
0.81326
0.534566
0.517147
0.502694
0.996919
0.996705
0.994403
0.81503
0.523554
0.52337
0.523691
0.525755
0.853912
0.977805
0.99772
0.998528
0.995848
0.841785
0.703686
0.904091
0.962153
0.957026
0.977539
0.977805
0.95694
0.998907
0.99657
0.990254
0.995779
0.998762
0.998338
0.89215
0.781406
0.781391
0.972013
0.998894
0.998907
0.998886
0.998757
0.998921
0.999412
0.996315
0.959909
0.895756
0.998894
0.998907
0.998894
0.996513
0.98933
0.994999
0.999977
0.999965
0.999878
0.99985
0.998776
0.998894
0.99229
0.988885
0.988961
0.995238
0.999978
0.999978
0.999977
0.999976
0.999125
0.993468
0.988838
0.988854
0.988885
0.993659
0.999978
0.999978
0.999978
0.999977
0.999174
0.989573
0.988843
0.988823
0.988866
0.99668
0.999978
0.999978
0.999977
0.999977
0.999775
0.993096
0.988825
0.988823
0.995686
0.999978
0.999978
0.999978
0.999977
0.999978
0.999821
0.998559
0.99486
0.996398
0.999977
0.999978
0.999978
0.999978
0.999978
0.999977
0.999826
0.999784
0.999786
0.999903
0.999942
0.999976
0.999243
0.998314
0.999789
0.999975
0.999594
0.999596
0.999852
0.999925
0.999929
0.999936
0.999848
0.997047
0.995812
0.999973
0.999596
0.999594
0.999751
0.999919
0.999925
0.999912
0.999272
0.994656
0.994595
0.998238
0.999821
0.999737
0.99981
0.999917
0.98654
0.938506
0.948957
0.9955
0.995796
0.998292
0.999821
0.999792
0.999704
0.952825
0.72464
0.743518
0.980706
0.995196
0.995508
0.944734
0.999803
0.999531
0.97992
0.718913
0.604465
0.768453
0.994999
0.994151
0.901994
0.272201
0.999562
0.99835
0.834237
0.559747
0.589145
0.917597
0.997626
0.995025
0.736716
0.0710158
0.999168
0.969735
0.641584
0.554338
0.701525
0.999406
0.998996
0.997441
0.923612
0.355009
0.998815
0.89059
0.533935
0.540268
0.831613
0.999559
0.999406
0.998939
0.995758
0.921506
0.998321
0.789931
0.357861
0.610461
0.952589
0.999575
0.999545
0.999386
0.987533
0.942737
0.99685
0.666244
0.274416
0.663961
0.998711
0.999752
0.999543
0.97857
0.953813
0.942668
0.985522
0.549031
0.25488
0.696469
0.999912
0.999931
0.999659
0.975768
0.953127
0.946734
0.956139
0.438881
0.236447
0.721222
0.99999
0.999987
0.999836
0.99533
0.973369
0.953368
0.906405
0.34096
0.214615
0.760508
0.999998
0.999997
0.999976
0.999568
0.998148
0.996207
0.787866
0.174766
0.203922
0.805613
0.999999
0.999999
0.999995
0.999976
0.999971
0.999985
0.587511
0.122918
0.180268
0.787734
0.999999
0.999999
0.999998
0.999997
0.999998
0.999996
0.223517
0.12118
0.134685
0.67117
0.999999
0.999999
0.999999
0.999998
0.999999
0.999998
0.11925
0.120685
0.119577
0.374298
0.942934
0.999999
0.999999
0.999999
0.999999
0.999999
0.1205
0.120843
0.120773
0.140567
0.65991
0.999999
0.999999
0.999999
0.999999
0.999999
0.120783
0.120812
0.120843
0.121236
0.498988
0.999999
0.999999
0.999999
0.999999
0.999663
0.120767
0.120783
0.120828
0.150568
0.647697
0.999999
0.999999
0.999949
0.999935
0.989556
0.120756
0.188267
0.253087
0.519282
0.928393
0.999999
0.999998
0.999449
0.991563
0.982669
0.337244
0.764951
0.858914
0.962754
0.999547
0.999994
1
0.999999
0.983439
0.982657
0.816607
0.998295
0.999121
0.999729
0.99999
0.999996
1
1
0.996206
0.985356
0.907351
0.99942
0.999929
0.999982
0.999999
0.999999
1
0.999984
0.999998
0.999071
0.761281
0.999945
0.999988
0.999999
1
1
1
0.999998
0.999999
0.999998
0.304846
0.811725
0.997541
0.999998
1
1
1
1
1
0.999999
0.212896
0.2892
0.924246
0.999955
0.999998
1
1
1
0.999999
0.999992
0.21217
0.212422
0.471136
0.727562
0.939131
0.99899
0.999999
0.999996
0.999969
0.999896
0.212249
0.212274
0.212446
0.217274
0.452333
0.947067
0.999682
0.995008
0.929807
0.887035
0.212263
0.212266
0.212274
0.28007
0.755017
0.956914
0.973443
0.818362
0.664495
0.664827
0.212263
0.212263
0.359713
0.872677
0.947258
0.950755
0.749361
0.661257
0.665154
0.664618
0.212263
0.492728
0.91987
0.935822
0.943438
0.945787
0.680069
0.65436
0.660594
0.662967
0.77428
0.915489
0.920326
0.923158
0.920772
0.845011
0.617127
0.643141
0.658134
0.715906
0.914911
0.910828
0.809228
0.699403
0.620024
0.595699
0.60853
0.735527
0.927626
0.999751
0.780183
0.601111
0.552035
0.449861
0.476773
0.608461
0.870913
0.999771
1.00005
0.999993
0.549205
0.440985
0.387492
0.434092
0.725867
0.994147
1.00001
0.999993
1.00001
1
0.506123
0.354265
0.39002
0.834303
0.999586
0.999961
1.00001
1
1
1
0.296642
0.35208
0.808356
0.999725
0.999985
1
1
1
1
1
0.295968
0.677695
0.999823
1.00001
1
1
1
1
1
1
0.449536
0.997459
1.00001
1
1
1
1
1
1
1
0.958866
0.999999
1
1
1
1
1
1
1
1
0.999998
0.999993
0.999996
1
1
1
1
1
1
1
0.999999
0.999998
0.999994
1
1
1
1
1
1
1
1
1
0.999994
1
1
1
1
1
1
1
1
1
0.999995
1
1
1
1
1
1
1.00016
1
1
1
1
1
1
1
1
0.999998
0.999985
1
1
1
1
1
1
1
1
1.00002
0.999853
1
1
1
1
1
1
0.999999
0.999967
1.00004
0.938848
0.999999
1
0.999999
1
1
1
0.999997
0.999828
0.998634
0.698188
1
1
1
1
1
1
0.999998
0.999795
0.99062
0.510849
0.999735
1
0.999999
1
1
1
1
0.999875
0.985326
0.428686
0.892434
0.999999
0.999999
1
1
1
1
0.999958
0.982856
0.402681
0.797578
0.999996
0.999998
1
1
1
1
0.999986
0.982491
0.395798
0.71514
0.999992
0.999993
1
1
1
1
0.999994
0.985323
0.399288
0.660685
0.999881
0.999984
1
1
1
1
0.999997
0.990448
0.426676
0.631345
0.998732
0.999986
1
1
1
1
0.999998
0.995064
0.470894
0.629027
0.999898
0.999998
1
1
1
1
0.999998
0.998225
0.515658
0.691695
0.999973
1
1
1
1
1
0.999999
0.999394
0.570007
0.746714
0.999981
1
1
1
1
1
0.999999
0.999922
0.633355
0.790201
0.99999
1
1
1
1
1
0.999999
0.99995
0.697043
0.831672
0.999996
1
1
1
1
1
1
0.999974
0.759902
0.870271
1
1
1
1
1
1
1
0.999992
0.820831
0.910779
1
0.999999
1
1
1
1
1
1
0.884094
0.953775
1
0.999999
0.999999
0.999999
1
1
1
1
0.943368
1
1
0.999999
0.999999
1
1
1
1
0.999999
0.999995
0.999995
0.999999
1
1
1
0.999424
0.999233
0.999508
0.999993
1
1
1
0.999999
0.999998
0.999998
0.999998
0.999999
0.999999
0.999997
0.999997
1
1
1
1
1
1
1
1
0.999999
0.999894
0.999998
0.999998
0.999999
0.999999
0.999999
0.999989
0.999989
0.999998
0.999998
0.999995
0.999995
0.999999
1
1
1
0.999301
0.999233
0.999233
0.999602
0.999999
1
0.999999
0.999998
0.999999
0.999999
0.999999
0.999999
0.999986
0.999976
0.999989
1
0.999917
1
1
1
1
1
1
0.99998
0.999845
0.999999
1
1
0.999909
0.999778
0.999946
0.999998
0.999999
0.999996
0.999995
0.999997
1
1
0.999965
0.99949
0.999283
0.999646
0.999951
0.99994
0.999935
0.999946
0.999999
1
1
1
0.999999
0.999999
0.999999
1
1
0.994608
0.978512
0.977878
0.991022
1
1
1
1
1
1
1
1
0.99985
0.99977
0.99977
0.999818
0.999991
0.999999
0.999996
0.999997
1
1
1
0.999728
0.999456
0.999629
0.999984
0.99999
0.99999
0.99999
0.999997
0.999759
0.994028
0.996657
1
0.999999
0.999999
1
1
0.997584
0.978237
0.977854
0.977854
0.977854
0.980682
0.989097
0.996634
1
0.999345
0.999589
0.999778
0.99977
0.99977
0.99977
0.999891
0.999989
0.999999
0.999999
0.999999
1
1
1
1
0.999782
0.999751
0.999957
0.999983
0.999957
0.999973
0.999997
0.999997
0.993135
0.953691
0.951262
0.983465
0.999999
1
1
1
0.999783
0.991078
0.978433
0.986464
0.986817
0.9807
0.980734
0.980755
0.984605
0.98236
0.982944
0.999771
0.999821
0.99997
0.99999
0.999998
1
1
0.999951
0.999948
1
1
1
0.999999
0.999988
0.999995
0.999996
0.999928
0.999789
0.999886
0.999997
0.999997
0.976743
0.951262
0.951259
0.951257
0.981379
0.99994
0.99991
0.999865
0.999838
0.999838
0.999138
0.999407
0.999504
0.990228
0.984351
0.985809
0.981519
0.981519
0.981519
0.999934
0.999997
1
1
1
1
1
0.99999
1
0.995693
0.988652
0.997865
0.999999
0.999996
0.999996
0.999996
0.999811
0.999789
0.999828
0.999992
0.999997
0.998798
0.95503
0.951257
0.951257
0.954818
0.995472
0.999892
0.99989
0.999889
0.992451
0.994173
0.999254
0.999504
0.999504
0.995937
0.995879
0.994172
0.992233
0.996376
0.999996
0.999999
1
0.999999
0.999978
0.99999
1
1
1
0.960569
0.89475
0.930551
0.99873
0.999995
0.999996
0.999915
0.999789
0.999789
0.999942
0.999997
0.999997
0.999997
0.995453
0.951673
0.951257
0.957187
0.997004
0.999873
0.989069
0.973597
0.970083
0.970995
0.989585
0.983402
0.97147
0.970381
0.976075
0.990098
0.999059
0.999063
1
1
1
0.999987
0.999978
0.999978
0.999996
1
0.979519
0.895708
0.894681
0.894638
0.936239
0.998504
0.999994
0.999954
0.999882
0.999937
0.999995
0.999996
0.999997
0.999997
0.999997
0.987485
0.958121
0.981876
0.99985
0.99947
0.970418
0.970083
0.970088
0.980073
0.995048
0.991877
0.982769
0.970371
0.970371
0.970371
0.991285
0.999076
1
0.999339
0.999565
0.999977
0.999991
0.999996
1
1
0.981446
0.894721
0.894687
0.894647
0.894687
0.983061
0.999992
0.999997
0.999986
0.99999
0.999997
0.999997
0.999997
0.999997
0.999962
0.999745
0.997826
0.999388
0.99993
0.999514
0.989182
0.986601
0.993981
0.998897
0.999741
0.999808
0.999746
0.995006
0.975572
0.976745
0.996224
0.99908
0.999464
0.999301
0.999305
0.999922
0.999999
0.999998
1
1
1
0.930066
0.894697
0.894684
0.930811
0.997098
0.999986
0.999998
0.999998
0.999998
0.999628
0.998602
0.999567
0.999994
0.999962
0.999983
0.999993
0.999986
0.999985
0.999984
0.999982
0.999888
0.999834
0.999824
0.999707
0.99983
0.99983
0.999831
0.998131
0.998221
0.99908
0.999079
0.999468
0.999301
0.999775
0.999995
1
1
0.999999
0.999999
0.999999
0.991168
0.937841
0.957452
0.999956
0.999997
0.999998
0.999998
0.999998
0.999998
0.997554
0.997186
0.998918
0.999992
0.999993
0.999993
0.999993
0.999993
0.934417
0.93134
0.991
0.999864
0.999844
0.999827
0.999634
0.999634
0.999803
0.999831
0.999831
0.998784
0.982785
0.997165
0.999899
0.999904
0.999986
1
1
1
0.999998
0.999996
0.999997
0.999997
0.999937
0.997515
0.885619
0.953853
0.999997
0.999998
0.999998
0.999786
0.997378
0.997728
0.999992
0.999993
0.999993
0.999993
0.993576
0.903131
0.821738
0.821796
0.847466
0.94068
0.991701
0.999822
0.99982
0.999634
0.999711
0.999831
0.994202
0.899633
0.838196
0.849741
0.999993
0.999993
0.999993
0.99969
0.999246
0.99979
0.999997
0.999997
0.999997
0.997798
0.944215
0.818781
0.781293
0.782347
0.904771
0.995087
0.999998
0.999893
0.999703
0.997193
0.996146
0.999993
0.999993
0.999993
0.971739
0.821833
0.821764
0.821836
0.821867
0.823236
0.931605
0.999925
0.999929
0.999904
0.999761
0.999818
0.957469
0.835633
0.835595
0.835595
0.999991
0.999993
0.999993
0.998241
0.997913
0.999284
0.999997
0.999997
0.999997
0.889696
0.782109
0.781276
0.781271
0.781271
0.79353
0.979701
0.999993
0.999995
0.999995
0.994804
0.923419
0.958024
0.999993
0.999993
0.985665
0.870548
0.821823
0.821837
0.821872
0.821901
0.928391
0.999929
0.99993
0.999533
0.999104
0.999577
0.97639
0.836819
0.835595
0.835592
0.997221
0.999992
0.999007
0.997913
0.997913
0.998548
0.999955
0.999917
0.999997
0.901303
0.781272
0.781271
0.781271
0.781271
0.88712
0.995897
0.999987
0.999995
0.999995
0.947957
0.915957
0.915978
0.954656
0.999983
0.998959
0.961987
0.865453
0.821869
0.821896
0.861236
0.978721
0.999917
0.999931
0.999376
0.998907
0.999204
0.999044
0.949982
0.848951
0.835593
0.99968
0.999987
0.998061
0.997913
0.997913
0.999153
0.999981
0.999931
0.999997
0.985117
0.89418
0.826857
0.836878
0.905426
0.977149
0.993085
0.999995
0.999995
0.997727
0.915957
0.915942
0.915956
0.915976
0.935356
0.958094
0.945203
0.923348
0.889301
0.925595
0.98336
0.999697
0.999929
0.999931
0.999734
0.998905
0.998925
0.999863
0.998162
0.978141
0.970708
0.999833
0.99942
0.997915
0.997913
0.999394
0.999961
0.999994
0.999992
0.999991
0.999982
0.998677
0.989286
0.989152
0.985067
0.978761
0.981402
0.992429
0.99942
0.995447
0.944666
0.91592
0.915942
0.915956
0.915977
0.930063
0.971293
0.9679
0.953493
0.974035
0.998858
0.999945
0.999936
0.999935
0.999902
0.998905
0.998905
0.99987
0.999221
0.997216
0.997087
0.999839
0.999369
0.999203
0.999757
0.999977
0.999994
0.999994
0.99983
0.999595
0.999758
0.999751
0.999707
0.997995
0.99155
0.983229
0.980651
0.980651
0.982741
0.995952
0.997374
0.976869
0.952606
0.934943
0.958391
0.982606
0.998589
0.989657
0.969477
0.974862
0.998953
0.999962
0.999935
0.999896
0.999806
0.999107
0.999192
0.999943
0.999173
0.996439
0.997054
0.999976
0.999966
0.999969
0.999387
0.994325
0.994801
0.999993
0.999916
0.999703
0.999382
0.998163
0.997254
0.997796
0.997767
0.997501
0.986217
0.980734
0.990015
0.999143
0.999143
0.999143
0.998761
0.997682
0.99788
0.998245
0.998989
0.998994
0.996086
0.993885
0.999026
0.999964
0.9998
0.999652
0.999653
0.999861
0.999935
0.999949
0.999676
0.995736
0.993833
0.998938
0.985909
0.986259
0.999909
0.999952
0.999986
0.999992
0.9996
0.994667
0.993084
0.997416
0.997718
0.997767
0.995793
0.99317
0.991619
0.989919
0.986804
0.983043
0.982928
0.98669
0.997599
0.999976
0.99928
0.998072
0.998423
0.999991
0.999991
0.999981
0.999881
0.999965
0.999746
0.999652
0.999682
0.999968
0.999968
0.999962
0.999944
0.995307
0.988613
0.991731
0.987794
0.978852
0.893415
0.79574
0.803348
0.915762
0.999549
0.995727
0.9944
0.934827
0.880011
0.87024
0.872157
0.918462
0.983917
0.99677
0.996766
0.986544
0.98294
0.983329
0.998505
0.999982
0.999575
0.99841
0.999623
0.999991
0.999991
0.999991
0.999991
0.99999
0.99991
0.999797
0.999928
0.999968
0.999906
0.99991
0.999438
0.989592
0.988613
0.991583
0.991293
0.902638
0.77786
0.778637
0.8656
0.996728
0.997066
0.996432
0.99502
0.915707
0.869695
0.869602
0.878392
0.982986
0.99677
0.996767
0.99677
0.996767
0.996167
0.998554
0.999909
0.999982
0.999985
0.99999
0.999991
0.999991
0.999991
0.999991
0.999991
0.999991
0.999991
0.999991
0.999986
0.999872
0.99983
0.999851
0.99672
0.988613
0.988613
0.991197
0.945942
0.801026
0.768751
0.933697
0.949095
0.949902
0.905589
0.904592
0.925799
0.921074
0.894806
0.895053
0.893162
0.637202
0.482856
0.711612
0.946426
0.977882
0.963918
0.909426
0.906749
0.915606
0.919439
0.917067
0.940367
0.956893
0.97628
0.994213
0.999708
0.999991
0.999991
0.999991
0.99999
0.999939
0.999876
0.999892
0.995829
0.988615
0.988613
0.409992
0.405284
0.402629
0.396839
0.387854
0.585364
0.811884
0.684834
0.357939
0.360029
0.380692
0.38262
0.386976
0.493393
0.426054
0.426054
0.426054
0.714673
0.792005
0.842584
0.933803
0.896937
0.803238
0.803232
0.803239
0.803284
0.803377
0.803491
0.803737
0.85102
0.996443
0.992557
0.996731
0.99985
0.999984
0.999984
0.999969
0.999303
0.996061
0.9946
0.969886
0.957558
0.793818
0.395218
0.359034
0.358481
0.359017
0.35742
0.35741
0.35742
0.410009
0.889046
0.978395
0.906184
0.865778
0.880615
0.894659
0.803611
0.758795
0.789804
0.934749
0.935115
0.935309
0.943238
0.944722
0.933026
0.918654
0.935006
0.970616
0.972901
0.834587
0.770941
0.770884
0.806795
0.961479
0.999984
0.999983
0.999975
0.999971
0.999965
0.977699
0.977524
0.976994
0.936977
0.563387
0.359204
0.378893
0.819305
0.94623
0.922288
0.966622
0.997154
0.995711
0.983021
0.9136
0.891311
0.940784
0.940597
0.939545
0.938036
0.781878
0.663982
0.948946
0.989891
0.989903
0.989891
0.989787
0.989392
0.988895
0.988666
0.904934
0.786104
0.771351
0.771284
0.771639
0.89896
0.999982
0.999663
0.999964
0.999951
0.781407
0.78152
0.798395
0.983852
0.993614
0.966181
0.973481
0.9981
0.999671
0.999407
0.998607
0.998352
0.996382
0.974524
0.946569
0.932704
0.940784
0.940784
0.939247
0.872749
0.466885
0.388456
0.724152
0.9899
0.989891
0.983196
0.951125
0.951033
0.983356
0.986029
0.984888
0.984356
0.983081
0.88909
0.685886
0.609603
0.758291
0.877792
0.946139
0.901929
0.860675
0.949645
0.998471
0.999892
0.999884
0.999794
0.999717
0.999675
0.999671
0.999671
0.999517
0.998671
0.876867
0.394998
0.324894
0.821665
0.890864
0.461839
0.378031
0.377552
0.377624
0.377617
0.588508
0.989813
0.989267
0.848025
0.765081
0.762773
0.850699
0.960514
0.963949
0.925336
0.882633
0.829278
0.665542
0.577451
0.631184
0.707087
0.715239
0.778555
0.999747
0.999955
0.999923
0.999916
0.999916
0.99989
0.999713
0.999675
0.877592
0.355714
0.204529
0.226834
0.22926
0.217857
0.217857
0.217857
0.2201
0.292185
0.53976
0.477875
0.377553
0.378906
0.573573
0.971258
0.954652
0.7665
0.762754
0.761191
0.75874
0.759593
0.767576
0.663737
0.515657
0.509498
0.507992
0.506135
0.640593
0.72366
0.724616
0.778877
0.999971
0.999968
0.999958
0.99992
0.999899
0.99972
0.773661
0.259425
0.183687
0.191592
0.19733
0.201886
0.499347
0.923963
0.939489
0.938402
0.962112
0.966171
0.968058
0.938675
0.880121
0.847154
0.837539
0.83718
0.843439
0.99408
0.996601
0.99548
0.855965
0.764275
0.865012
0.921618
0.86765
0.68134
0.549505
0.503467
0.503467
0.515809
0.664298
0.754489
0.999978
0.999968
0.999906
0.999505
0.995989
0.658889
0.18018
0.176887
0.179785
0.182063
0.435101
0.962264
0.994689
0.998303
0.998365
0.998383
0.998383
0.998382
0.998382
0.998381
0.998379
0.998369
0.998333
0.997729
0.997668
0.997568
0.997388
0.99636
0.996329
0.995985
0.995967
0.996005
0.995999
0.995859
0.994431
0.807824
0.518433
0.313261
0.313261
0.32884
0.999975
0.999921
0.99954
0.996904
0.844313
0.258285
0.174464
0.174661
0.176893
0.333284
0.938978
0.998495
0.998502
0.998413
0.99836
0.998369
0.998372
0.997793
0.998329
0.998379
0.998369
0.997186
0.995067
0.99357
0.992606
0.993811
0.996098
0.995766
0.995985
0.995963
0.995901
0.995905
0.995984
0.99584
0.995192
0.993801
0.993173
0.835326
0.450404
0.333398
0.999972
0.999908
0.999457
0.996393
0.823051
0.235434
0.174642
0.174354
0.178091
0.616047
0.998497
0.998525
0.998527
0.998303
0.996803
0.996803
0.996802
0.996875
0.998231
0.998327
0.998128
0.971636
0.823972
0.659951
0.580514
0.582859
0.74963
0.891675
0.990266
0.995925
0.995871
0.995925
0.995608
0.984867
0.990347
0.99147
0.995589
0.996222
0.996939
0.729876
0.999973
0.999943
0.9997
0.99805
0.947316
0.430768
0.174481
0.174928
0.247745
0.898932
0.998525
0.998525
0.998525
0.998526
0.99852
0.998521
0.998506
0.998493
0.998101
0.997226
0.934932
0.513125
0.188751
0.188918
0.188075
0.187705
0.188908
0.287134
0.874742
0.995869
0.995875
0.995877
0.995847
0.981186
0.833587
0.735311
0.944631
0.996939
0.996968
0.996951
0.999973
0.999966
0.999898
0.999412
0.996564
0.861839
0.430184
0.320592
0.770891
0.998523
0.998525
0.998525
0.998532
0.998528
0.997728
0.995937
0.996646
0.998198
0.99573
0.852279
0.30555
0.188573
0.18892
0.188976
0.185576
0.188115
0.190313
0.404111
0.7963
0.990356
0.99584
0.995812
0.995551
0.985813
0.664479
0.51119
0.615574
0.993651
0.996939
0.996968
0.999973
0.999972
0.999963
0.999923
0.999064
0.986366
0.963698
0.953621
0.997947
0.998524
0.998525
0.998526
0.998519
0.998481
0.988373
0.969689
0.981902
0.995681
0.948762
0.426577
0.188841
0.188439
0.189153
0.186953
0.18426
0.24991
0.65749
0.968754
0.999708
0.997073
0.994269
0.995101
0.993708
0.937133
0.554633
0.510986
0.51119
0.721757
0.996613
0.996915
0.999972
0.999972
0.999971
0.999963
0.99992
0.999715
0.998882
0.997731
0.997932
0.998314
0.998526
0.998515
0.756277
0.521251
0.829414
0.986635
0.986977
0.989133
0.778436
0.222253
0.188857
0.189076
0.188393
0.18823
0.418192
0.852596
0.999725
0.999718
0.99972
0.999708
0.995226
0.972278
0.937808
0.736585
0.51073
0.510844
0.510986
0.513716
0.991827
0.990491
0.999972
0.835684
0.655495
0.775742
0.995574
0.999019
0.998502
0.984126
0.870412
0.759146
0.552893
0.262414
0.105133
0.0874363
0.410746
0.97111
0.985551
0.975191
0.501534
0.191514
0.189463
0.190138
0.239498
0.644939
0.963835
0.999734
0.999729
0.999724
0.999711
0.999231
0.984462
0.950581
0.722611
0.531643
0.509826
0.510986
0.511214
0.511192
0.792852
0.966004
0.398601
0.0739947
0.0351117
0.145626
0.404118
0.514365
0.437528
0.230078
0.114355
0.059795
0.0284515
0.0229751
0.0310894
0.0704526
0.656659
0.977454
0.98189
0.8135
0.261457
0.192273
0.191747
0.374231
0.851055
0.999748
0.999743
0.999746
0.999734
0.999712
0.999666
0.998128
0.981583
0.949178
0.63775
0.519856
0.508426
0.510658
0.509422
0.511365
0.532253
0.947476
0.016081
0.0156568
0.015642
0.0158316
0.0158566
0.0177659
0.017776
0.0176095
0.0177852
0.0179753
0.0199555
0.021653
0.0229545
0.271145
0.905195
0.976421
0.933596
0.432009
0.220738
0.217973
0.606531
0.972424
0.999747
0.999751
0.999748
0.999734
0.999574
0.998591
0.997277
0.997643
0.990565
0.985872
0.858179
0.731489
0.701586
0.603159
0.509461
0.511276
0.511221
0.917506
0.0156611
0.0154749
0.015477
0.0154949
0.0155433
0.0158093
0.016484
0.0172649
0.0176016
0.0177862
0.0180117
0.0621705
0.693906
0.923975
0.923975
0.914166
0.540179
0.378506
0.395569
0.840061
0.999937
0.999903
0.999786
0.999747
0.999734
0.998381
0.992902
0.988066
0.987011
0.990599
0.997152
0.997345
0.998234
0.998301
0.998406
0.961262
0.68061
0.511221
0.511054
0.891022
0.0168074
0.0154705
0.0154746
0.015477
0.0154792
0.0155061
0.0157613
0.0523433
0.126933
0.225438
0.484546
0.800833
0.918196
0.923459
0.680159
0.492521
0.492521
0.748835
0.985386
0.999982
0.999972
0.999294
0.99653
0.995785
0.99656
0.988889
0.986975
0.986972
0.986981
0.987011
0.994428
0.998046
0.998291
0.998406
0.998647
0.998888
0.971238
0.616011
0.511221
0.87315
0.535923
0.243265
0.166996
0.161774
0.266828
0.490516
0.68972
0.81555
0.884872
0.928332
0.863555
0.50853
0.449453
0.450581
0.45214
0.541619
0.946604
1
0.999999
0.999996
0.998564
0.990123
0.986498
0.986503
0.986529
0.986625
0.986825
0.986975
0.987011
0.987177
0.987515
0.99127
0.997316
0.996354
0.998024
0.999098
0.999829
0.917155
0.512707
0.789704
0.933956
0.935385
0.905262
0.904465
0.951187
0.99233
0.999639
0.999727
0.999313
0.992821
0.710306
0.448959
0.448961
0.449275
0.796218
1
1
1
1
0.999993
0.994299
0.986521
0.986497
0.986521
0.986626
0.987655
0.991868
0.993986
0.994585
0.992881
0.989579
0.989548
0.989736
0.989781
0.990149
0.997964
0.999951
0.989227
0.572758
0.663244
0.982735
0.998727
0.999881
0.999876
0.999949
0.999978
0.999988
0.99999
0.999948
0.993343
0.950847
0.936789
0.971962
0.996455
1
1
1
1
1
0.999996
0.997918
0.989899
0.986686
0.989925
0.994465
0.998819
0.999958
0.999964
0.999967
0.999973
0.999076
0.994329
0.98983
0.989721
0.989776
0.994272
0.999972
0.998186
0.896976
0.671028
0.966156
0.999877
0.999995
0.999999
1
0.999999
1
1
0.999956
0.999803
0.999995
1
1
1
1
1
1
1
0.999999
0.999992
0.999966
0.998971
0.993744
0.99491
0.998886
0.999724
0.999935
0.999964
0.999973
0.999975
0.999975
0.999976
0.997242
0.991472
0.989825
0.994296
0.999974
0.999924
0.999975
0.767716
0.977436
0.999995
1
1
1
1
1
1
0.999999
1
1
1
1
1
1
0.999999
0.999998
0.999997
0.999974
0.99984
0.999083
0.996132
0.989018
0.984284
0.996153
0.998639
0.999653
0.9999
0.999951
0.999975
0.999976
0.999976
0.999977
0.999977
0.995301
0.998991
0.999974
0.999976
0.999975
0.983236
0.99814
0.999959
1
1
1
1
1
1
1
1
1
1
1
0.999999
0.999996
0.999991
0.999988
0.999963
0.999867
0.99836
0.91433
0.73633
0.583407
0.516285
0.62193
0.854096
0.988327
0.995016
0.999133
0.999886
0.999973
0.999976
0.999976
0.999976
0.999976
0.999976
0.999973
0.999976
0.999976
0.992635
0.99999
0.999997
1
1
1
1
1
1
1
1
1
1
0.999999
0.999999
0.999996
0.999997
0.999991
0.999857
0.958999
0.68307
0.339155
0.140214
0.078747
0.0787966
0.0911729
0.261653
0.745673
0.97625
0.997236
0.999679
0.999949
0.999976
0.999976
0.999976
0.999976
0.999976
0.999976
0.999976
0.999976
0.930953
0.999981
0.999978
1
1
1
1
1
1
1
1
1
0.999999
0.999999
1
1
1
0.999864
0.895967
0.470539
0.10561
0.0787322
0.0783565
0.0787867
0.078877
0.0788869
0.0788969
0.322246
0.903122
0.995691
0.999503
0.99993
0.999976
0.999976
0.999976
0.999976
0.999976
0.999976
0.999976
0.999806
0.92257
0.999984
0.999973
0.999992
1
1
1
0.999997
0.999994
0.999998
1
1
1
1
1
1
1
0.832938
0.315975
0.0783433
0.0787736
0.0787211
0.0788511
0.079047
0.0789122
0.0788969
0.0789379
0.129096
0.77797
0.995917
0.999502
0.99993
0.999976
0.999976
0.999977
0.999976
0.999977
0.999965
0.999976
0.99983
0.922508
0.999997
0.999992
0.999995
1
0.999999
0.999996
0.999979
0.999979
0.999985
0.999999
1
1
1
1
1
0.902971
0.296225
0.0801819
0.0792125
0.078665
0.0786716
0.0789735
0.0816723
0.0816497
0.0789647
0.0789812
0.0955423
0.733793
0.997858
0.999754
0.999951
0.999976
0.999976
0.999976
0.999976
0.999965
0.999964
0.999974
0.999976
0.923053
1
1
1
1
1
0.999998
0.999992
0.999979
0.999983
0.999997
0.999999
0.999999
0.999999
1
1
0.805577
0.187708
0.087813
0.0797383
0.0790648
0.0780066
0.0778788
0.0782816
0.0800463
0.0790143
0.0790759
0.221373
0.878524
0.997984
0.999733
0.999952
0.999975
0.999976
0.999976
0.999976
0.99997
0.999964
0.999975
0.999976
0.926539
0.996567
0.99851
0.996518
0.995721
0.999071
0.999998
0.999993
0.999993
0.999993
0.999994
0.999991
0.999982
0.999982
0.999999
0.999998
0.931633
0.708707
0.484852
0.370255
0.240185
0.10257
0.0783082
0.0787438
0.0790458
0.0787759
0.078924
0.511168
0.982574
0.998675
0.99979
0.999955
0.999975
0.999976
0.999976
0.999976
0.999969
0.999964
0.999976
0.999976
0.935316
0.982703
0.982661
0.982664
0.98688
0.999075
0.999983
0.999991
0.999993
0.999992
0.999965
0.996347
0.997788
0.9995
0.999986
0.999202
0.999173
0.99906
0.9989
0.994804
0.91039
0.519684
0.0967722
0.0791321
0.0796519
0.0788914
0.284682
0.898784
0.996543
0.999386
0.999883
0.999967
0.999976
0.999977
0.999975
0.999969
0.999969
0.999975
0.999976
0.999976
0.942713
0.982657
0.982656
0.982661
0.984704
0.9987
0.999985
0.999992
0.999993
0.999992
0.970606
0.906493
0.93136
0.985044
0.999721
0.999394
0.99906
0.998925
0.998676
0.997913
0.996284
0.914408
0.270867
0.0853604
0.0816764
0.272275
0.875839
0.995913
0.999002
0.999802
0.999953
0.999975
0.999977
0.999978
0.999978
0.99997
0.999969
0.999975
0.999976
0.999976
0.947333
0.982656
0.982657
0.982657
0.994062
0.999957
0.999984
0.999988
0.999992
0.989004
0.892329
0.890638
0.890761
0.922898
0.996283
0.999027
0.998932
0.998699
0.997925
0.990544
0.963029
0.853629
0.338246
0.106373
0.369633
0.928215
0.99596
0.999075
0.999768
0.999939
0.999976
0.999978
0.999978
0.999978
0.999978
0.999976
0.99997
0.999975
0.999976
0.999976
0.950025
0.982657
0.98523
0.997971
0.999935
0.999946
0.999975
0.999985
0.999988
0.936148
0.89164
0.890957
0.890916
0.920009
0.988356
0.997055
0.995662
0.954816
0.826435
0.709778
0.491293
0.388415
0.358443
0.581116
0.95452
0.995888
0.998949
0.999689
0.999914
0.99997
0.999979
0.999979
0.999978
0.999978
0.999978
0.999978
0.999972
0.999976
0.999976
0.999976
0.951512
0.998492
0.999416
0.999844
0.999829
0.999925
0.999967
0.999978
0.999908
0.939894
0.894327
0.895488
0.9255
0.923442
0.895871
0.816237
0.768699
0.597881
0.489075
0.4744
0.448072
0.418432
0.564219
0.911483
0.996008
0.998526
0.999478
0.999835
0.999948
0.999976
0.999978
0.999978
0.999978
0.999978
0.999978
0.999977
0.999972
0.999975
0.999976
0.999976
0.951972
0.999996
0.999995
0.999993
0.999981
0.997273
0.996651
0.999579
0.993229
0.985879
0.982269
0.970549
0.919547
0.84282
0.57096
0.559244
0.552109
0.536654
0.510831
0.545608
0.573389
0.723278
0.975676
0.998625
0.999082
0.999444
0.999739
0.999918
0.999963
0.999972
0.999976
0.999977
0.999978
0.999959
0.999978
0.999977
0.999977
0.999963
0.999976
0.999976
0.953026
0.999997
0.999994
0.999989
0.992117
0.950312
0.948151
0.971257
0.979662
0.96982
0.917618
0.871532
0.631886
0.590994
0.578386
0.569976
0.559495
0.619036
0.814361
0.993604
0.996186
0.997478
0.997565
0.998936
0.99954
0.999691
0.999776
0.999816
0.999869
0.999934
0.999969
0.999965
0.999946
0.999944
0.999976
0.999977
0.999977
0.99993
0.999973
0.999975
0.955542
0.999993
0.99995
0.999927
0.963242
0.947114
0.935647
0.917342
0.881284
0.821672
0.629143
0.624967
0.616821
0.601776
0.590994
0.651334
0.906124
0.991162
0.993557
0.995755
0.997318
0.99791
0.998351
0.998663
0.999042
0.999507
0.999333
0.999039
0.999308
0.999681
0.999584
0.999055
0.99924
0.999935
0.999974
0.999976
0.999937
0.999904
0.999947
0.999975
0.959641
0.994509
0.96411