/*--------------------------------*- C++ -*----------------------------------*\
  =========                 |
  \\      /  F ield         | OpenFOAM: The Open Source CFD Toolbox
   \\    /   O peration     | Website:  https://openfoam.org
    \\  /    A nd           | Version:  8
     \\/     M anipulation  |
\*---------------------------------------------------------------------------*/
FoamFile
{
    version     2.0;
    format      ascii;
    class       volScalarField;
    location    "3.85";
    object      p_rgh;
}
// * * * * * * * * * * * * * * * * * * * * * * * * * * * * * * * * * * * * * //

dimensions      [1 -1 -2 0 0 0 0];

internalField   nonuniform List<scalar> 
9150
(
2555.91
2528.86
2503.42
2486.24
2477.95
2477.96
2486.27
2503.46
2528.91
2555.95
2546.71
2527.09
2511.48
2499.69
2493.72
2493.73
2499.71
2511.52
2527.12
2546.75
2537.05
2523.42
2514.94
2507.17
2503.08
2503.09
2507.19
2514.96
2523.45
2537.09
2531.98
2521.88
2516.48
2511.1
2508.14
2508.15
2511.11
2516.5
2521.91
2532.01
2530.34
2521.3
2516.79
2512.61
2510.17
2510.18
2512.62
2516.81
2521.32
2530.37
2090.14
2086.76
2112.01
2126.25
2133.08
2133.21
2126.63
2112.58
2087.55
2091.21
2280.45
2256.44
2251.19
2250.01
2250.24
2250.31
2250.22
2251.5
2256.85
2280.86
2404.54
2373.36
2357.59
2347.74
2343.16
2343.2
2347.86
2357.77
2373.57
2404.73
2504.76
2462.78
2435.15
2417.82
2409.36
2409.38
2417.89
2435.25
2462.89
2504.84
2575.86
2522.69
2484.11
2462.08
2451.96
2451.98
2462.12
2484.17
2522.76
2575.91
1899.98
1943.49
1934.3
1943.51
1938.35
1939.81
1943.89
1936.29
1949.65
1912.42
1930.24
1951.42
1932.32
1943.11
1937.94
1939.12
1943.27
1936.88
1955.51
1939.19
1910.65
1942.45
1910.02
1920.4
1922.92
1923.4
1920.85
1913.37
1945.78
1916.29
1752.17
1878.63
1893.13
1913.3
1930.12
1930.36
1914.3
1895.55
1880.4
1756.73
1622.87
1866.33
1961.63
1992.06
2008.33
2008.53
1992.74
1962.75
1867.6
1626.07
1713.99
1713.82
1713.65
1713.49
1713.35
1713.21
1713.09
1712.97
1712.87
1712.78
1713.93
1713.76
1713.6
1713.44
1713.3
1713.16
1713.03
1712.92
1712.81
1712.73
1713.85
1713.68
1713.52
1713.37
1713.23
1713.1
1712.98
1712.87
1712.78
1712.7
1713.74
1713.58
1713.42
1713.28
1713.14
1713.01
1712.9
1712.79
1712.7
1712.62
1713.61
1713.45
1713.3
1713.16
1713.02
1712.9
1712.79
1712.69
1712.6
1712.52
1713.44
1713.29
1713.14
1713.01
1712.88
1712.76
1712.66
1712.56
1712.47
1712.38
1713.23
1713.08
1712.95
1712.83
1712.72
1712.61
1712.5
1712.41
1712.32
1712.24
1712.83
1712.64
1712.64
1712.65
1712.54
1712.43
1712.33
1712.24
1712.16
1712.09
1709.47
1711.72
1712.6
1712.49
1712.37
1712.26
1712.15
1712.06
1711.98
1711.91
1707.51
1712.07
1712.66
1712.45
1712.27
1712.1
1711.97
1711.85
1711.77
1711.71
1713.31
1712.93
1712.6
1712.32
1712.08
1711.87
1711.69
1711.55
1711.47
1711.43
1713.11
1712.72
1712.34
1712.03
1711.76
1711.48
1711.24
1711.08
1711.01
1711.02
1712.86
1712.35
1711.95
1711.6
1711.34
1710.89
1710.54
1710.33
1710.29
1710.42
1712.62
1712.17
1711.7
1711.27
1710.91
1710.31
1709.44
1704.98
1705.25
1709.03
1712.61
1712.25
1711.94
1711.47
1711
1710.53
1696.27
1647.45
1658.67
1702.98
1712.95
1712.58
1712.21
1711.83
1710.13
1667.35
1636.7
1638
1638.15
1664.11
1713.12
1712.77
1712.47
1711.63
1654.08
1634.31
1634.48
1634.66
1634.66
1673.95
1713.27
1712.97
1712.77
1708.04
1646.37
1632.54
1631.89
1646.19
1675.65
1708.83
1713.09
1712.65
1712.26
1709.08
1687.83
1674.7
1686.58
1708.33
1712.49
1711.94
1713.04
1712.52
1712.01
1711.55
1711.39
1711.33
1711.26
1711.13
1710.89
1710.54
1712.95
1712.27
1711.6
1710.99
1710.46
1710.09
1709.84
1709.67
1709.48
1709.28
1712.91
1711.98
1710.59
1709.76
1709.21
1708.4
1708.49
1706.72
1706.21
1705.61
1713.23
1712.42
1711.88
1674.78
1633.34
1633.72
1632.7
1632.19
1633.44
1679.61
1634.83
1635.09
1633.63
1632.64
1630.39
1686.07
1694.42
1692.03
1690.32
1698.42
1640.32
1707.49
1713.68
1708.87
1705.24
1702.83
1625.36
1497.43
1490.22
1483.62
1721.47
1720.8
1719.54
1630.35
1494.84
1496.62
1495.68
1494.63
1651.41
1715.52
1722.49
1722.58
1720.86
1643.95
1580.46
1672.73
1703.65
1700.79
1711.84
1712.17
1700.8
1723.54
1722.48
1719
1721.87
1723.96
1724.3
1665.13
1607.58
1608.69
1709.85
1724.21
1724
1723.8
1723.47
1723.42
1723.55
1721.42
1700.7
1665.3
1724.75
1724.32
1723.98
1722.24
1718.13
1720.65
1723.12
1722.66
1722.03
1721.34
1725.52
1724.94
1720.1
1717.74
1717.25
1720.25
1722.49
1721.88
1721.22
1720.48
1725.79
1721.21
1717.75
1717.15
1716.53
1718.77
1721.99
1721.32
1720.64
1719.91
1725.65
1718.31
1717.23
1716.55
1715.87
1720.1
1721.52
1720.88
1720.25
1719.63
1725.59
1720.06
1716.76
1715.98
1719.57
1721.65
1721.01
1720.43
1719.91
1719.46
1724.88
1723.13
1719.91
1720.06
1721.61
1720.89
1720.24
1719.68
1719.22
1718.87
1724.24
1723.3
1722.37
1721.53
1720.66
1719.84
1718.56
1717.26
1717.59
1717.18
1723.74
1722.67
1721.76
1720.7
1719.6
1718.55
1717.5
1714.58
1712.85
1714.76
1723.63
1722.37
1721.14
1719.88
1718.51
1717.2
1715.42
1710.83
1709.73
1711.28
1723.99
1722.41
1720.77
1719.01
1707.29
1670.9
1677.45
1709.33
1708.06
1708.58
1724.8
1723.04
1721.19
1683.68
1514.31
1527.29
1699.4
1708.28
1704.69
1661.14
1726.12
1724.22
1708
1503.73
1423.63
1539.76
1715.01
1710.91
1630.09
1135.79
1727.06
1724.47
1590.73
1384.45
1402.99
1661.41
1724.42
1717.76
1507.69
976.451
1730.51
1707.65
1439.04
1375.57
1485.58
1730.09
1728.33
1727.46
1669.72
1207.43
1732.29
1643.1
1349.97
1356.95
1589.2
1730.45
1731.04
1732.76
1733.61
1676.9
1730.14
1550.78
1202.38
1403.77
1695.41
1732.37
1731.98
1732.67
1723.64
1687.08
1731.51
1441.27
1122.72
1438.68
1731.45
1729.57
1729.19
1711.03
1690.2
1681.9
1724.05
1332.14
1088.32
1455.18
1726.83
1725.31
1725.35
1704.24
1684.65
1679.96
1697.71
1222.91
1051.37
1466.73
1722.35
1721.72
1722.06
1718.27
1698.38
1681.08
1646.95
1118.25
1010.72
1493.95
1719.84
1719.9
1720.19
1719.74
1718.14
1715.95
1513.68
947.507
975.175
1542.2
1725.53
1722.88
1721.37
1720.08
1718.94
1717.98
1304.19
873.587
926.345
1524.87
1730.41
1726.59
1723.81
1721.53
1719.6
1717.97
937.099
841.75
854.776
1398.17
1731.55
1728.88
1725.81
1723.13
1720.83
1718.82
818.804
821.165
819.817
1084.31
1674.73
1733.01
1729.45
1726.03
1723.19
1720.73
809.818
810.574
810.037
832.41
1379.45
1737.18
1733.85
1729.75
1726.34
1723.44
803.891
804.395
804.162
805.04
1206.99
1741.27
1738.01
1733.67
1729.92
1726.32
798.95
799.494
799.014
829.213
1364.25
1744.37
1741.06
1737.14
1733.58
1719.13
793.047
866.719
935.388
1221.79
1667.37
1744.7
1742.79
1739.54
1728.01
1715.38
1020.82
1505.74
1603.84
1712.11
1749.77
1749.1
1747.45
1745.11
1723.89
1720.18
1551.8
1763.57
1761.89
1759.36
1757.69
1756.01
1753.99
1751.59
1744.49
1729.18
1652.39
1764.88
1766.33
1765.82
1764.74
1763.24
1761.3
1758.88
1756.1
1751.93
1478.68
1769.82
1773.4
1773.72
1773.06
1771.89
1770.07
1767.61
1764.66
1761.36
947.863
1542.97
1777.74
1783.51
1783.28
1782.28
1780.43
1777.69
1774.35
1770.7
829.357
917.478
1699.54
1800.26
1800.48
1798.13
1794.41
1789.91
1785.14
1780.58
813.61
815.875
1131.37
1467.39
1742.5
1818.15
1812.71
1803.73
1795.94
1790.39
819.363
819.068
822.73
838.638
1141.21
1771.56
1834.51
1814.4
1720.87
1661
823.362
825.092
827.513
916.35
1525.51
1792.06
1811.23
1598.4
1396.78
1392.85
820.736
820.538
1011.14
1679.4
1783.63
1787.82
1520.77
1404.11
1407.29
1403.33
812.928
1178.86
1740.43
1764.36
1782.54
1788.65
1433.67
1398.59
1405.35
1404.3
1546.72
1730
1738.47
1752.32
1761.81
1663.91
1357.63
1387.73
1402.29
1471.39
1728.03
1728.61
1597.32
1460.14
1365.89
1341.11
1353.89
1519.77
1772.27
1855.4
1541.48
1309.22
1257.12
1135.71
1177.72
1358.33
1716.71
1882.4
1863.99
1843.3
1224.62
1088.7
1032.64
1103.49
1514.37
1887.07
1883.07
1866.78
1849.06
1828.64
1157.78
966.645
1022.52
1657.54
1889.21
1879.8
1867.51
1852.13
1833.33
1811.12
866.081
950.431
1610.92
1883.74
1876.85
1866.56
1853.06
1836.17
1815.94
1792.62
850.315
1404.93
1874.42
1870.86
1862.7
1851.3
1836.77
1819.03
1798.3
1774.92
1044.37
1855.64
1859.37
1854.78
1846.47
1834.81
1819.98
1802.11
1781.51
1758.61
1789.99
1849.48
1845.81
1839.98
1831.28
1819.47
1804.71
1787.24
1767.38
1745.55
1827.23
1834.5
1831.37
1825.11
1816.52
1805.22
1791.3
1775.14
1757.29
1738.47
1809.17
1815.62
1814.18
1809.32
1801.8
1791.6
1778.94
1764.32
1748.37
1731.66
1799.61
1801.92
1799.7
1795.33
1788.78
1779.9
1768.95
1756.47
1743.18
1729.33
1783.52
1785.9
1784.44
1781.42
1776.56
1769.66
1761.07
1751.5
1741.72
1731.58
1768.92
1771.32
1770.56
1768.85
1765.62
1760.61
1754.13
1746.95
1739.68
1730.17
1755.53
1758.77
1758.63
1758.22
1756.73
1753.69
1749.34
1744.45
1739.19
1728.8
1740.39
1746.89
1748.22
1749.5
1750.16
1749.6
1748.09
1746.57
1745.22
1638.29
1726.73
1736.68
1739.75
1742.81
1745.64
1747.58
1748.93
1750.32
1750.8
1251.05
1716.46
1728.87
1733.4
1738.17
1743.1
1747.39
1751.29
1755.3
1744.95
944.948
1701.64
1721.29
1729.16
1736.06
1742.82
1748.72
1753.98
1759.43
1742.37
808.229
1517.18
1721.85
1731.39
1739.14
1746.46
1752.61
1757.3
1760.71
1733.79
741.415
1363.21
1730.24
1739.55
1747.31
1754.72
1761.21
1766.67
1772.2
1749.41
741.049
1231.49
1743.06
1751.49
1758.71
1765.54
1771.35
1775.89
1779.94
1758.8
734.891
1148.38
1759.21
1766.56
1772.86
1778.75
1783.45
1786.69
1788.72
1773.47
773.879
1111.53
1776.63
1784.53
1789.54
1794.22
1797.68
1799.7
1799.89
1790.59
850.172
1126.97
1800.46
1804.3
1807.9
1811.33
1813.64
1814.74
1813.89
1808.87
934.535
1261.58
1821.88
1823.74
1826.5
1829.21
1830.69
1831.26
1830.27
1826.51
1041.32
1378.2
1841.91
1842.77
1844.96
1847.38
1848.28
1848.64
1848.23
1844.98
1168.41
1474.08
1860.71
1861.07
1862.83
1864.77
1865.26
1865.76
1866.21
1862.99
1299.2
1565.84
1876.05
1877.08
1878.77
1880.77
1881.12
1881.77
1882.45
1879.71
1430.6
1649.91
1889.03
1892.94
1894.26
1896.65
1897.1
1897.57
1897.33
1895.84
1561.31
1732.36
1913.21
1916.16
1912.94
1913.42
1913.92
1915.13
1915.03
1917.15
1697.49
1818.28
1948.85
1937.44
1931.29
1928.25
1929.11
1932.46
1934.01
1948.06
1818.22
1712.7
1712.64
1712.59
1712.56
1712.56
1712.56
1712.58
1712.61
1712.65
1712.68
1712.71
1712.73
1712.76
1712.78
1712.81
1712.84
1712.9
1712.94
1713.02
1713.1
1713.18
1713.27
1713.35
1713.43
1713.5
1713.56
1713.64
1713.72
1713.8
1713.89
1713.99
1714.08
1714.14
1714.19
1714.27
1714.36
1714.44
1714.51
1714.55
1714.57
1712.65
1712.59
1712.55
1712.54
1712.56
1712.59
1712.65
1712.72
1712.79
1712.86
1712.92
1712.96
1712.98
1712.99
1713
1712.99
1713.01
1713.05
1713.1
1713.18
1713.27
1713.38
1713.47
1713.55
1713.61
1713.66
1713.71
1713.76
1713.83
1713.92
1714.03
1714.13
1714.22
1714.31
1714.38
1714.45
1714.51
1714.57
1714.61
1714.64
1712.63
1712.58
1712.55
1712.54
1712.57
1712.61
1712.68
1712.76
1712.85
1712.93
1713
1713.06
1713.09
1713.1
1713.09
1713.1
1713.11
1713.16
1713.2
1713.26
1713.34
1713.43
1713.52
1713.61
1713.68
1713.75
1713.82
1713.89
1713.96
1714.05
1713.93
1713.74
1713.84
1713.98
1714.52
1714.56
1714.61
1714.68
1714.73
1714.78
1712.56
1712.51
1712.47
1712.47
1712.49
1712.54
1712.62
1712.7
1712.8
1712.89
1712.98
1713.05
1713.11
1713.13
1713.15
1713.17
1713.22
1713.25
1713.29
1713.33
1713.38
1713.38
1713.15
1713.33
1713.71
1713.87
1713.98
1714.09
1714.2
1714.17
1713.24
1713.42
1713.49
1713.4
1713.41
1713.92
1714.52
1714.9
1714.87
1714.95
1712.44
1712.39
1712.36
1712.35
1712.37
1712.42
1712.47
1712.55
1712.63
1712.73
1712.83
1712.94
1713.04
1713.1
1713.17
1713.24
1713.3
1713.36
1713.42
1713.5
1713.58
1713.08
1710.96
1710.96
1712.64
1714.14
1714.24
1714.35
1714.45
1714.54
1714
1713.4
1713.93
1714.03
1713.51
1713.59
1713.6
1713.85
1713.71
1713.81
1712.31
1712.26
1712.23
1712.22
1712.22
1712.23
1712.26
1712.3
1712.35
1712.41
1712.53
1712.68
1712.87
1713.03
1713.16
1713.28
1713.38
1713.49
1713.62
1713.78
1713.95
1711.79
1709.7
1709.76
1709.57
1712.61
1714.57
1714.68
1714.78
1714.91
1715.12
1715.29
1715.55
1715.73
1714.47
1713.83
1714.08
1713.85
1713.92
1713.92
1712.17
1712.12
1712.08
1712.05
1712.03
1712.02
1712.02
1712.01
1711.96
1711.37
1710.58
1711.94
1712.62
1712.91
1713.12
1713.3
1713.45
1713.62
1713.8
1714.03
1714.27
1714.42
1709.41
1709.13
1709.2
1709.45
1714.32
1715.01
1715.04
1715.08
1714.26
1714.66
1715.68
1715.83
1715.88
1715.38
1715.57
1715.18
1715
1715.56
1712.03
1711.98
1711.94
1711.92
1711.9
1711.9
1711.91
1711.9
1711.87
1706.41
1699.89
1703.21
1712.54
1712.96
1713.19
1713.38
1713.56
1713.77
1714
1714.24
1714.51
1714.83
1714.56
1708.58
1708.85
1709.34
1714.88
1715.56
1713.65
1711.9
1711.85
1711.88
1714.65
1713.59
1712.38
1712.29
1712.73
1714.76
1716.23
1716.35
1711.86
1711.82
1711.81
1711.81
1711.83
1711.87
1711.94
1712.05
1708.87
1696.09
1696.42
1696.29
1702.82
1712.85
1713.31
1713.5
1713.69
1713.9
1714.11
1714.32
1714.54
1714.77
1714.99
1713.13
1709.55
1712.26
1715.85
1715.78
1711.47
1711.72
1711.78
1713.15
1715.82
1715.21
1713.74
1712.05
1712.09
1712.01
1715.15
1716.88
1711.67
1711.56
1711.59
1711.69
1711.75
1711.84
1711.97
1712.17
1709.07
1694.22
1694.53
1694.64
1694.65
1710.15
1713.44
1713.63
1713.83
1714.03
1714.23
1714.43
1714.63
1714.82
1714.98
1715.07
1714.83
1715.18
1715.52
1715.59
1713.98
1713.77
1715.3
1716.43
1716.76
1716.86
1716.88
1715.95
1712.8
1712.96
1716.09
1717.11
1711.31
1711.31
1711.35
1711.52
1711.61
1711.72
1711.86
1712.06
1712.37
1698.83
1693.11
1693.02
1699.31
1712.95
1713.61
1713.78
1713.99
1714.19
1714.32
1714.36
1714.71
1714.97
1715.11
1715.21
1715.25
1715.23
1715.22
1715.49
1716.02
1716.44
1716.73
1716.93
1717.04
1717.13
1717.11
1717
1716.55
1716.53
1716.85
1717.25
1710.96
1711.02
1711.18
1711.32
1711.4
1711.5
1711.6
1711.7
1711.77
1709.78
1699.28
1703.09
1713.87
1713.5
1713.51
1713.79
1714.09
1714.37
1714.13
1714.32
1714.82
1715.25
1715.39
1715.43
1715.34
1715
1701.32
1700.72
1713.89
1716.66
1717.1
1717.4
1717.53
1717.58
1717.52
1717.3
1716.95
1716.24
1712.77
1716.74
1710.61
1710.81
1710.99
1711.13
1711.25
1711.37
1711.48
1711.59
1711.7
1711.92
1712.21
1710.58
1685.61
1700.47
1712.49
1713.44
1714.04
1714.43
1714.31
1714.67
1715.54
1715.83
1716.12
1716.32
1714.83
1693.62
1675.93
1676.23
1681.16
1703.44
1715.98
1718.34
1718.54
1718.55
1718.48
1718.25
1716.42
1693.96
1680.37
1682.91
1710.17
1710.54
1710.8
1710.91
1710.98
1711.27
1711.48
1711.63
1711.75
1711.18
1697.24
1665
1658.13
1658.5
1688.86
1712.66
1714.58
1714.99
1715.28
1714.96
1715
1716.55
1717.22
1717.76
1710.75
1673.24
1673.7
1674.01
1674.1
1674.56
1701.87
1719.83
1720.04
1720.17
1720.23
1720.27
1709.15
1678.47
1678.57
1678.74
1710.37
1710.71
1710.92
1710.62
1710.72
1711.21
1711.6
1711.81
1712.01
1681.83
1653.95
1654.31
1654.85
1655.19
1658.49
1709.63
1715.6
1715.89
1716.16
1714.91
1698.12
1706.44
1718.75
1719.84
1715.95
1684.83
1671.91
1672.51
1672.81
1672.91
1701.62
1721.64
1721.79
1721.89
1722.02
1722.48
1716.33
1678.62
1678.34
1678.29
1710.4
1711.32
1710.96
1710.7
1710.83
1711.17
1711.87
1712.22
1712.79
1684.31
1651.36
1652.02
1652.41
1652.43
1683.12
1715.19
1716.57
1716.84
1717.16
1702
1694.43
1694.74
1706.17
1721.72
1722.58
1710.74
1682.86
1671.81
1671.93
1682.65
1716.94
1723.23
1723.37
1723.44
1723.68
1724.23
1724.79
1710.95
1681.82
1678.1
1711.83
1711.63
1710.77
1710.69
1710.76
1711.32
1711.87
1712.28
1712.91
1709.05
1681.78
1662.71
1665.95
1686.75
1709.19
1714.45
1717.12
1717.6
1717.28
1692.29
1693.01
1693.51
1693.78
1700.27
1708.56
1704.96
1699
1689.94
1700.78
1719.32
1724.36
1724.47
1724.62
1724.78
1724.86
1725.25
1726
1725.8
1719.84
1717.27
1712.02
1711.35
1710.53
1710.39
1710.88
1711.23
1711.51
1711.91
1712.45
1713.15
1713.54
1711.1
1711.7
1710.71
1709
1710.16
1714.5
1717.89
1717.07
1701.01
1692.43
1693.14
1693.85
1694.46
1699.1
1714.06
1713.37
1709.11
1716.09
1724.85
1725.37
1725.51
1725.7
1725.91
1725.86
1726.14
1726.78
1726.74
1726.19
1726.09
1711.26
1710.62
1710.24
1710.28
1710.31
1710.48
1710.78
1711.11
1711.5
1712.12
1712.76
1713.45
1713.49
1711.74
1709.43
1709.36
1710.19
1711.61
1717.62
1719.31
1712.6
1704.84
1699.74
1708.08
1717.34
1724.47
1721.38
1714.93
1717.02
1725.64
1726.29
1726.53
1726.75
1726.95
1726.95
1727.18
1727.66
1727.46
1726.51
1726.71
1710.12
1709.72
1709.46
1709.01
1707.14
1707.4
1709.83
1710.21
1710.52
1710.82
1710.82
1711.07
1712.06
1713.02
1713.96
1710.44
1709.87
1713.79
1718.58
1719.75
1720.74
1721.43
1721.77
1722.62
1723.54
1724.63
1725.22
1724.6
1724.3
1726.54
1727.29
1727.56
1727.8
1728.06
1728.36
1728.57
1728.71
1728.64
1727.13
1726.41
1708.52
1703.26
1702.79
1707.77
1707.48
1707.64
1708.6
1709.25
1707.58
1707.22
1708.93
1709.43
1710.12
1710.3
1710.76
1711.7
1712.3
1712.24
1712.09
1713.14
1715.63
1721.08
1723.11
1723.66
1724.04
1724.96
1726.33
1726.95
1727.5
1727.96
1728.45
1728.76
1729.08
1729.39
1729.75
1729.95
1730.07
1730.1
1728.18
1725.68
1705.12
1703.03
1698.75
1663.58
1626.22
1630.27
1673.51
1709.36
1707.56
1707
1682.2
1660.83
1657.79
1659.45
1678.49
1707.9
1715.32
1716.76
1713.29
1713.15
1714.23
1721.84
1723.58
1724.37
1724.83
1726.24
1727.2
1727.92
1728.59
1729.21
1729.76
1730.18
1730.54
1730.94
1731.27
1731.49
1731.66
1731.52
1727.33
1726.86
1706.92
1705.81
1665.41
1611.09
1615.02
1649.22
1709.14
1708.85
1708.25
1708.23
1671.98
1652.49
1653.72
1657.51
1706.44
1712.29
1714.03
1716.45
1718.21
1719.01
1720.99
1722.57
1724
1725.24
1726.33
1727.37
1728.25
1729.03
1729.78
1730.52
1731.19
1731.7
1732.11
1732.52
1732.86
1733.19
1733.44
1732.16
1728.57
1728.35
1704.33
1681.74
1612.79
1599.23
1677.11
1688.21
1688.79
1665.28
1662.25
1672.83
1672.9
1660.37
1663.89
1665.96
1550.18
1488.97
1585.33
1693.29
1710.9
1705.31
1681.53
1682.04
1687.1
1690.02
1690.51
1702.18
1710.52
1719.9
1728.88
1732.03
1732.99
1733.29
1733.52
1733.95
1734.53
1735.02
1735.42
1733.76
1730.52
1730.17
1443.64
1440
1437.85
1431.32
1423.3
1513.47
1630.36
1565.03
1416.91
1419.34
1430.36
1435.19
1435.89
1483.74
1456.56
1459.15
1458.26
1585.72
1622.73
1647.69
1696.05
1679.08
1638.82
1641.81
1643.02
1644.12
1645.3
1646.33
1646.12
1666.01
1734.9
1731.98
1733.49
1735.42
1736.2
1736.85
1737.35
1737.33
1735.78
1734.71
1710.64
1704.06
1618.58
1423.46
1406.13
1406.34
1407.07
1408.41
1410.58
1412.68
1436.13
1667.52
1716.07
1679.2
1657.46
1663.89
1672.26
1626.07
1607.42
1620.84
1694.32
1698.17
1701.47
1707.02
1709.32
1704.39
1698.14
1706.84
1726.56
1728.06
1658.26
1629.43
1628.7
1644.02
1719.42
1738.83
1739.32
1739.81
1739.92
1739.62
1713.08
1713.97
1715.09
1693.67
1501.8
1404.51
1412.95
1632.48
1700.04
1683.29
1704.78
1720.93
1721.64
1715.93
1678.72
1668.95
1696.06
1696.5
1695.63
1694.38
1612.64
1562.24
1707.73
1733.96
1735.28
1736.04
1737.11
1738.37
1739.48
1739.7
1695.26
1635.81
1627.56
1625.35
1622.44
1687.64
1741.35
1742.19
1742.71
1742.19
1608.66
1608.57
1615.41
1718.08
1723.37
1704.68
1707.46
1720.62
1721.75
1720.99
1719.81
1718.83
1716.01
1703.95
1694.02
1691.55
1696.76
1695.42
1696.1
1664.09
1451.25
1420.29
1589.17
1736.38
1737.47
1732.9
1716.95
1719.47
1739.79
1743.56
1743.9
1744.42
1743.25
1686.39
1576.69
1539.28
1613.66
1678.97
1717.58
1693.04
1646.91
1693.01
1720.37
1721.25
1720.62
1719.47
1718.57
1717.46
1715.2
1712.62
1714.35
1718.35
1650.74
1394.58
1364.13
1631.7
1679.42
1434.76
1396.46
1398.22
1400.75
1402.21
1516.13
1741.57
1743.71
1660.28
1621.46
1622.74
1669.63
1734.07
1736.75
1714.37
1690.65
1659.52
1565.13
1519.44
1545.57
1586.85
1590.69
1627.3
1720.49
1719.91
1719.26
1718.58
1717.7
1716.61
1715
1713.55
1641.49
1344.49
1267.39
1285.41
1293.12
1292.89
1294.75
1297.86
1301.1
1340.47
1483.15
1448.21
1393.22
1394.43
1499.03
1729.1
1723.45
1614.04
1615.83
1617.56
1618.47
1621.42
1627.94
1571.91
1492.06
1487.64
1484.48
1481.42
1552.58
1598.98
1597.44
1630.86
1719.64
1718.67
1717.56
1716.2
1714.57
1712.61
1576.61
1275.44
1235.79
1245.1
1252.27
1258.25
1430.96
1690.94
1701.04
1694.95
1711.17
1717.78
1723.96
1707.55
1670.71
1648.48
1641.46
1643.2
1647.94
1740.37
1745.97
1749.42
1668.69
1621.72
1681.95
1721.31
1690.55
1580.58
1503.64
1475.3
1472.97
1476.1
1560.36
1618.69
1719.08
1718.05
1716.71
1714.91
1711.88
1506.53
1215.75
1216.21
1220.1
1223.94
1379.74
1706.9
1724.85
1726.36
1725.61
1724.59
1725.22
1727.26
1729.05
1729.63
1729.28
1728.87
1728.92
1728.09
1728.76
1730.03
1732.76
1736.05
1740.29
1744.68
1750.76
1757.17
1762.85
1768.46
1772.43
1656.94
1478.82
1355.75
1354.44
1361.7
1718.94
1718.02
1716.52
1714.04
1619.47
1254.3
1203.76
1205.22
1207.43
1306.92
1691.62
1725.45
1722.33
1720.35
1719.03
1718.32
1718.37
1718.54
1719.25
1719.01
1718.12
1715.98
1712.5
1709.48
1707.72
1709.34
1713.91
1718.48
1724.27
1730.41
1737.26
1744.43
1751.49
1758.08
1763.94
1769.1
1772.62
1673.67
1432.08
1362.79
1719.05
1718.52
1717.5
1715.66
1606.61
1232.34
1195.89
1196.04
1197.79
1481.68
1727.82
1722.07
1718.08
1715.26
1712.53
1711.5
1711.01
1710.78
1711.2
1710.34
1708.23
1686.61
1584.96
1476.05
1425.79
1428.22
1537.59
1637.34
1708.52
1719.42
1726.21
1733.16
1739.77
1739.51
1748.16
1753.86
1762.88
1769.94
1772.74
1597.29
1718.63
1718.51
1718.3
1717.73
1687.75
1350.29
1186.18
1188.21
1232.29
1665.06
1724.64
1718.29
1713.88
1710.98
1709.21
1708.26
1707.86
1707.67
1707.18
1705.77
1661.23
1374.11
1159.01
1160.4
1161.52
1163.74
1168.72
1236.83
1630.39
1717.97
1722.34
1727.18
1732.49
1727.46
1633.76
1573.81
1714.52
1758.98
1764.27
1763.11
1716.68
1716.27
1715.99
1715.61
1714.77
1626.32
1341.41
1273.18
1570.28
1722.17
1715.86
1710.58
1706.83
1704.99
1703.9
1702.71
1703.76
1705.55
1704.27
1604.25
1226.09
1146.52
1149.46
1152.37
1153.08
1157.39
1161.78
1307.35
1577.52
1715.29
1722.16
1725.68
1729.8
1727.24
1507.76
1412.1
1480.05
1746.18
1754.93
1756.64
1713.88
1712.95
1712.24
1711.93
1711.24
1702.78
1688.86
1683.59
1712.9
1708.99
1704.03
1698.66
1694.3
1695.91
1693.11
1682.96
1692.64
1705.19
1673.54
1301.68
1134.24
1136.67
1140.1
1141.37
1141.38
1188.91
1479.35
1700.78
1722.55
1721.79
1721.98
1725.55
1728.15
1690.55
1418.4
1392.08
1392.07
1543.18
1744.35
1748.2
1711.5
1708.63
1705.44
1705.8
1707.48
1707.84
1706.49
1703.71
1700.4
1695.71
1690.18
1683.03
1499.67
1342.68
1570.02
1691.46
1696.3
1702.5
1551.04
1144.8
1123.2
1126.56
1128.91
1131.21
1301.14
1619.16
1724.94
1723.52
1724.09
1725.59
1724.19
1709.8
1687.14
1541.21
1376.91
1378.74
1378.87
1380.77
1734
1737.74
1705.28
1570.43
1428.34
1524.07
1699.26
1705.79
1702.19
1684.84
1592.92
1506.95
1348.86
1128.85
1018.09
1016.13
1254.42
1680.39
1698.39
1694.78
1339.76
1109.51
1111.38
1114.82
1154.74
1461.59
1700.59
1725.26
1724.7
1725.38
1726.56
1727.74
1718.42
1694.55
1525.45
1384.72
1369.28
1370.08
1369.26
1367.79
1579.08
1718.89
1234.92
984.053
954.835
1037.33
1241.45
1331.66
1267.88
1102.21
1010.9
970.019
947.934
945.967
954.614
985.694
1437.3
1691.14
1701.23
1567.27
1144.79
1098.08
1100.7
1243.09
1612.38
1725.9
1724.43
1724.65
1725.59
1726.89
1728.54
1729.42
1719.08
1696.3
1459.79
1372.64
1363.28
1363.38
1360.55
1360.06
1373.94
1707.71
934.821
934.344
934.014
933.783
933.788
935.467
935.664
935.914
936.748
937.463
939.462
941.4
943.292
1136.99
1634.93
1694.95
1658.68
1262.38
1108.48
1107.68
1412.81
1702.76
1722.61
1722.16
1722.86
1723.94
1725.2
1726.15
1727.2
1730.02
1727.15
1726.25
1628.85
1531.46
1508.43
1429.43
1352.86
1353.4
1352.27
1685.82
933.482
933.558
933.521
933.385
933.384
933.615
934.158
934.879
935.259
935.506
935.763
970.16
1480.56
1658.23
1652.13
1640.53
1339.78
1220.36
1232.12
1590.41
1719.38
1718.38
1718.62
1719.49
1720.66
1721
1718.34
1716.59
1718.17
1723.63
1732.06
1735.39
1739.28
1742.78
1746.32
1716.29
1483.09
1350.51
1347.59
1664.6
933.157
932.805
932.74
932.54
932.248
931.873
931.57
961.111
1021.92
1100.01
1305.68
1556.6
1658.4
1659.97
1444.85
1302.96
1299.51
1508.12
1705.63
1715.34
1714.33
1713.95
1712.28
1712.74
1714.87
1710.21
1710.79
1713.17
1715.78
1718.59
1727.74
1733.97
1737.25
1740.33
1743.25
1745.26
1722.02
1426.89
1346.53
1641.42
1358.03
1116.05
1054.53
1050.33
1137.95
1326.18
1493.44
1596.83
1651.41
1685.21
1619.87
1303.49
1254.77
1257
1259.69
1331.85
1673.01
1715.37
1712.5
1711.02
1709.02
1701.85
1699.38
1700.46
1702.11
1704.28
1706.87
1709.7
1712.68
1715.98
1719.52
1725.98
1734.48
1736.67
1740.67
1743.46
1744.5
1671.39
1343.52
1568.25
1682.65
1688.19
1664.48
1664.21
1704.02
1738.26
1742.55
1740.81
1739.55
1731.99
1479.36
1255.54
1252.21
1249.81
1541.32
1716.29
1712.31
1709.38
1707.29
1705.76
1699.87
1692.94
1693.38
1694.58
1696.55
1699.82
1706.36
1711.49
1715.54
1717.69
1718.63
1722.47
1726.43
1730.13
1733.83
1743.76
1748.47
1741.19
1381.35
1456.52
1717.53
1733.39
1734.7
1734.57
1734.38
1733.97
1733.21
1732.11
1730.65
1722.42
1681.72
1664.55
1691.11
1710.09
1710.39
1707.96
1705.65
1703.32
1701.15
1699.32
1696.19
1688.55
1686.11
1690.09
1696.35
1703.28
1707.91
1711.94
1716.26
1720.76
1724.49
1724.72
1725.19
1729.29
1733.2
1740.63
1749.11
1749.67
1660.2
1466.23
1696.66
1728.14
1728.38
1728.26
1727.95
1727.38
1726.46
1725.14
1723.34
1720.85
1718.05
1714.74
1711.65
1708.96
1706.48
1703.91
1701.12
1698.22
1695.39
1692.84
1690.82
1688.71
1683.79
1686.29
1692.86
1697.45
1702.08
1707.02
1712.3
1717.74
1723.23
1728.62
1731.29
1730.95
1734.05
1741.82
1750.28
1752.5
1753.5
1551.05
1702.07
1722.84
1722.78
1722.53
1722.12
1721.52
1720.68
1719.59
1718.2
1716.45
1714.34
1711.99
1709.57
1707.05
1704.32
1701.3
1697.92
1694.25
1690.35
1686.26
1681.62
1675.36
1666.82
1663.94
1680.85
1690.15
1697.1
1703.06
1709.28
1715.78
1722.32
1728.73
1734.86
1740.59
1741.6
1749.56
1754.43
1757.41
1759.06
1746.8
1717.4
1718.76
1718.45
1718.04
1717.56
1717
1716.34
1715.53
1714.56
1713.38
1711.97
1710.34
1708.46
1706.28
1703.68
1700.52
1696.71
1692.16
1686.68
1678.64
1591.45
1416.48
1269.28
1207.68
1313.35
1543.94
1681.6
1696.09
1707.24
1715.53
1723.33
1730.9
1738.16
1744.98
1751.31
1757.05
1762.16
1766.53
1770.21
1766.71
1717.1
1716.32
1715.63
1715.02
1714.45
1713.91
1713.4
1712.88
1712.33
1711.71
1710.98
1710.08
1708.92
1707.39
1705.3
1702.47
1698.64
1693.28
1646.32
1370.99
1033.56
841.987
784.465
786.014
799.729
967.243
1443.03
1676.98
1706.64
1717.79
1726.95
1735.79
1744.27
1752.3
1759.83
1766.84
1773.33
1779.35
1784.79
1724.83
1716.5
1715.23
1714.2
1713.33
1712.64
1712.09
1711.7
1711.43
1711.28
1711.21
1711.18
1711.12
1710.94
1710.49
1709.63
1707.96
1704.39
1595.67
1168.41
805.789
779.049
778.927
779.785
780.142
780.306
781.215
1024.48
1606.41
1709.14
1723.34
1733.89
1743.95
1753.67
1762.95
1771.77
1780.17
1788.25
1796.2
1803.77
1736.84
1716.94
1715.27
1713.9
1712.79
1711.92
1711.31
1710.95
1710.85
1711.02
1711.45
1712.13
1713.02
1714.1
1715.44
1716.88
1716.8
1544.66
1018.71
777.047
777.117
777.34
777.656
777.925
777.755
777.605
777.652
829.264
1485.59
1716.76
1732.52
1744.44
1755.68
1766.56
1777.05
1787.16
1797
1806.78
1816.91
1827.17
1760.81
1718.43
1716.35
1714.6
1713.18
1712.07
1711.29
1710.84
1710.77
1711.1
1711.89
1713.14
1714.97
1717.57
1721.36
1725.93
1627.1
1002.88
780.744
778.082
777.397
776.992
776.553
778.809
778.364
775.538
775.832
793.326
1448.69
1731.03
1746.1
1758.84
1771
1782.84
1794.37
1805.66
1816.9
1828.45
1840.93
1854.31
1789.47
1720.73
1718.25
1716.12
1714.34
1712.93
1711.88
1711.2
1710.92
1711.14
1711.9
1713.31
1715.57
1719.02
1724.2
1730.49
1529.67
888.61
785.685
777.016
776.795
775.454
773.834
772.745
773.945
773.009
773.881
922.964
1612.51
1748.8
1763.68
1776.74
1789.38
1801.84
1814.15
1826.46
1839
1852.3
1867.25
1883.88
1823.98
1720.04
1719.3
1714.71
1711.79
1713.52
1713.07
1711.99
1711.31
1711.05
1711.27
1712.12
1713.85
1716.65
1720.52
1724.83
1655.61
1423.23
1190.81
1076.73
943.267
796.915
769.922
768.613
768.389
768.871
770.491
1232.96
1742.24
1770.36
1783.8
1796.57
1809.31
1822.09
1834.97
1848.13
1861.89
1876.92
1894.42
1914.48
1865.21
1708.7
1705.65
1702.96
1705.02
1715.98
1715.12
1713.61
1712.47
1711.64
1711.06
1707.19
1709.9
1714.14
1717.93
1720.63
1724.19
1728.77
1737.14
1745.94
1666.45
1245.23
781.018
759.878
760.723
762.341
989.706
1663.04
1778.19
1791.4
1803.44
1815.85
1828.57
1841.55
1854.89
1868.81
1883.73
1900.47
1920.57
1944.19
1904.52
1712.39
1709.34
1706.44
1705.96
1718.9
1718.17
1716.38
1714.96
1713.67
1679.93
1610.65
1637.67
1698.12
1717.42
1720.67
1724.37
1729.22
1735.66
1744.08
1753.7
1669.95
950.652
750.863
749.366
964.939
1644.23
1786.03
1797.52
1808.2
1819.77
1832.05
1844.8
1857.99
1871.76
1886.4
1902.4
1920.79
1943.48
1970.68
1937.94
1717.16
1713.97
1710.85
1720.64
1724.51
1722.15
1720.21
1718.61
1704.39
1594.37
1592.1
1592.53
1629.3
1714.39
1720.53
1724.15
1728.54
1733.28
1731.73
1705.3
1577.47
990.512
749.975
1048.39
1696.93
1786.26
1797.78
1807.58
1818.62
1830.54
1842.98
1855.87
1869.28
1883.45
1898.71
1915.67
1935.58
1960.75
1991.43
1963.56
1722.98
1722.39
1733.52
1732.44
1729.31
1726.63
1724.44
1722.25
1646.73
1594.31
1592.4
1592.03
1625.72
1707.05
1719.25
1720.65
1675.8
1529.3
1396.75
1147.38
1031.03
998.125
1263.13
1715.67
1778.94
1791.46
1801.07
1811.65
1823.09
1835.03
1847.4
1860.23
1873.66
1888
1903.68
1921.38
1942.57
1969.94
2003.82
1979.27
1747.78
1745.15
1741.85
1737.99
1734.37
1731.11
1728.33
1725.33
1652.29
1597.73
1597.92
1633.36
1630.71
1596.91
1503.73
1449.55
1251.98
1129.49
1115.31
1090.69
1065.94
1241.18
1659.79
1769.98
1780.54
1789.36
1798.93
1809.31
1820.27
1831.71
1843.63
1856.07
1869.22
1883.45
1899.24
1917.4
1939.56
1968.76
2005.34
1982.75
1757.67
1753.63
1749.36
1744.76
1736.96
1732.03
1731.85
1720.57
1708.63
1702.42
1686.88
1624.27
1530.24
1206.76
1192.76
1185.83
1169.58
1143.68
1189.73
1230.09
1416.66
1727.23
1761.69
1766.4
1772.06
1779.62
1788.39
1797.85
1807.92
1818.54
1829.69
1841.46
1854.06
1867.96
1883.64
1901.99
1924.72
1955.16
1993.7
1973.41
1766.74
1762.49
1757.9
1742.99
1687.89
1679.8
1702.29
1708.56
1692.5
1625.08
1564.7
1271.26
1219.58
1204.45
1195.37
1184.45
1258.13
1497.37
1720.77
1727.29
1732.96
1736.88
1741.48
1746.15
1751.9
1758.84
1766.61
1775.08
1784.16
1793.75
1803.9
1814.8
1826.8
1840.31
1855.77
1874.08
1896.97
1927.94
1967.42
1950.4
1776.23
1771.94
1767.06
1715.61
1689.58
1669.27
1640.56
1590.64
1510.95
1270.3
1259.88
1245.9
1224.74
1209.77
1282.82
1596.81
1702.54
1703.17
1703.09
1703.47
1704.82
1707.47
1710.97
1715.63
1721.35
1727
1733.06
1740.23
1747.96
1755.78
1764.1
1774.48
1786.89
1800.17
1815.51
1833.68
1856.46
1887.12
1926.21
1913.23
1779.16
1737.12
1746.93
1738.12
1721.74
1682.38
1422.32
1322.3
1311.13
1288.98
1261.69
1261.2
1381.24
1688.07
1689.62
1682.33
1674.61
1670.83
1669.44
1669.55
1671.94
1674.8
1678.58
1683.2
1686.89
1689.54
1692.85
1697.42
1698.91
1702.83
1709.64
1722.16
1735.4
1747.79
1763.66
1782.8
1805.35
1834.84
1871.9
1856.81
1678.03
1700.93
1743.51
1715.08
1595.56
1378.26
1356.61