/*--------------------------------*- C++ -*----------------------------------*\
  =========                 |
  \\      /  F ield         | OpenFOAM: The Open Source CFD Toolbox
   \\    /   O peration     | Website:  https://openfoam.org
    \\  /    A nd           | Version:  8
     \\/     M anipulation  |
\*---------------------------------------------------------------------------*/
FoamFile
{
    version     2.0;
    format      ascii;
    class       volVectorField;
    location    "3.85";
    object      U;
}
// * * * * * * * * * * * * * * * * * * * * * * * * * * * * * * * * * * * * * //

dimensions      [0 1 -1 0 0 0 0];

internalField   nonuniform List<vector> 
9150
(
(0.0538505 -0.428488 0)
(0.0879685 -0.622283 0)
(0.0730507 -0.631503 0)
(0.0485828 -0.643729 0)
(0.0169946 -0.65443 0)
(-0.0170798 -0.654417 0)
(-0.0486526 -0.643697 0)
(-0.0731 -0.631471 0)
(-0.0879949 -0.62225 0)
(-0.0538591 -0.428432 0)
(0.0408914 -0.522863 0)
(0.0574767 -0.625771 0)
(0.0420219 -0.613257 0)
(0.0293733 -0.622455 0)
(0.0104571 -0.628854 0)
(-0.0105142 -0.628849 0)
(-0.0294217 -0.622439 0)
(-0.0420589 -0.613239 0)
(-0.0575021 -0.625759 0)
(-0.040902 -0.522824 0)
(0.0253796 -0.557981 0)
(0.0325477 -0.613856 0)
(0.0229318 -0.604493 0)
(0.0172587 -0.609991 0)
(0.0062214 -0.613183 0)
(-0.00625792 -0.613181 0)
(-0.0172902 -0.609984 0)
(-0.0229558 -0.604484 0)
(-0.0325668 -0.613853 0)
(-0.0253892 -0.557961 0)
(0.0154771 -0.584761 0)
(0.0175075 -0.607474 0)
(0.011654 -0.601141 0)
(0.00887785 -0.603285 0)
(0.00322908 -0.604392 0)
(-0.00324973 -0.604391 0)
(-0.00889589 -0.603282 0)
(-0.0116678 -0.601138 0)
(-0.0175193 -0.607475 0)
(-0.0154833 -0.584753 0)
(0.00631716 -0.597179 0)
(0.00557043 -0.601387 0)
(0.00354502 -0.600039 0)
(0.00268123 -0.600349 0)
(0.000989733 -0.600481 0)
(-0.00099651 -0.600481 0)
(-0.00268718 -0.600349 0)
(-0.00354959 -0.600038 0)
(-0.00557451 -0.601387 0)
(-0.00631939 -0.597178 0)
(0.470072 -1.1637 1.46647e-24)
(0.282755 -1.08641 0)
(0.162997 -1.06976 0)
(0.0918971 -1.05793 0)
(0.02995 -1.05306 0)
(-0.0308784 -1.05292 0)
(-0.0927274 -1.05754 0)
(-0.163671 -1.06915 0)
(-0.283228 -1.08561 0)
(-0.46987 -1.16257 -1.45463e-24)
(0.334078 -0.844551 3.98897e-25)
(0.287138 -0.937126 0)
(0.188072 -0.937053 0)
(0.108006 -0.936869 0)
(0.0354956 -0.939134 0)
(-0.0360205 -0.939038 0)
(-0.108458 -0.936606 0)
(-0.18841 -0.936684 0)
(-0.287257 -0.936669 0)
(-0.333936 -0.843976 -3.96574e-25)
(0.279252 -0.702849 6.75514e-26)
(0.259114 -0.804942 0)
(0.177989 -0.81771 0)
(0.104484 -0.828425 0)
(0.0347006 -0.836467 0)
(-0.0350173 -0.83641 0)
(-0.104751 -0.828269 0)
(-0.178166 -0.817495 0)
(-0.259165 -0.804702 0)
(-0.279194 -0.702592 -6.68945e-26)
(0.200287 -0.554542 2.4259e-25)
(0.216874 -0.70958 0)
(0.154206 -0.725972 0)
(0.0912785 -0.742045 0)
(0.0304545 -0.753919 0)
(-0.0306516 -0.753884 0)
(-0.0914407 -0.741952 0)
(-0.154312 -0.725854 0)
(-0.216902 -0.709457 0)
(-0.200259 -0.554395 -2.42723e-25)
(0.119087 -0.445026 -4.03413e-25)
(0.156683 -0.644275 -5.79548e-25)
(0.116655 -0.663816 -1.95235e-25)
(0.07086 -0.681201 -1.2792e-25)
(0.0239033 -0.694185 -7.28437e-27)
(-0.0240316 -0.694164 -7.40513e-27)
(-0.0709648 -0.681147 -1.2822e-25)
(-0.116724 -0.663754 -1.9535e-25)
(-0.156708 -0.644212 -5.7959e-25)
(-0.119083 -0.444942 -4.03341e-25)
(0.0131126 -0.944527 0)
(-0.0430627 -1.33899 0)
(0.0204769 -1.26817 0)
(-0.00902735 -1.22543 0)
(0.00138067 -1.22449 0)
(-0.00703898 -1.22353 0)
(-0.000353901 -1.22586 0)
(-0.0291801 -1.27251 0)
(0.0303774 -1.33803 0)
(-0.0243501 -0.898759 0)
(0.0458759 -0.916898 0)
(-0.0264568 -1.33598 0)
(0.0214838 -1.26999 0)
(-0.00382193 -1.22391 0)
(-0.000868739 -1.22316 0)
(-0.00352214 -1.22222 0)
(-0.00364215 -1.22405 0)
(-0.0266912 -1.2706 0)
(0.0176821 -1.33257 0)
(-0.050951 -0.897322 0)
(0.0745652 -0.950367 0)
(-0.0258602 -1.34953 0)
(0.0165368 -1.27623 0)
(0.00272321 -1.23104 0)
(-0.00191134 -1.22666 0)
(-0.00152618 -1.22616 0)
(-0.00737177 -1.23082 0)
(-0.0196785 -1.27514 0)
(0.0201383 -1.34779 0)
(-0.0775973 -0.93725 0)
(0.141749 -1.08111 0)
(-0.000441387 -1.36699 0)
(0.0153748 -1.27249 0)
(0.0201085 -1.22622 0)
(0.00425971 -1.21454 0)
(-0.00690752 -1.2143 0)
(-0.0227773 -1.22561 0)
(-0.0169619 -1.2715 0)
(-0.00336665 -1.36586 0)
(-0.14327 -1.07447 0)
(0.296954 -1.22101 0)
(0.124133 -1.32258 0)
(0.0684381 -1.21123 0)
(0.0557769 -1.16947 0)
(0.0192048 -1.15658 0)
(-0.0208097 -1.15639 0)
(-0.0571291 -1.16881 0)
(-0.0697382 -1.21029 0)
(-0.125972 -1.32169 0)
(-0.29716 -1.21809 0)
(0.0652986 -0.000216247 0)
(0.0654598 -0.000197881 0)
(0.0656003 -0.000183668 0)
(0.0657204 -0.000169754 0)
(0.0658179 -0.000150912 0)
(0.0658866 -0.000120179 0)
(0.0659183 -6.83444e-05 0)
(0.0658934 1.27556e-05 0)
(0.0657792 0.000134749 0)
(0.0655485 0.000307041 0)
(0.0648001 -0.000522736 0)
(0.0649342 -0.000446982 0)
(0.0650385 -0.00037756 0)
(0.0651133 -0.000306074 0)
(0.0651572 -0.000222384 0)
(0.0651658 -0.00011464 0)
(0.0651298 3.08751e-05 0)
(0.0650462 0.000229254 0)
(0.0649124 0.000497044 0)
(0.0647156 0.000849005 0)
(0.0626582 -0.000779776 0)
(0.0627404 -0.000635965 0)
(0.0627892 -0.00050124 0)
(0.0628045 -0.000363618 0)
(0.0627839 -0.000209194 0)
(0.0627234 -2.2645e-05 0)
(0.0626171 0.000212385 0)
(0.0624571 0.000513848 0)
(0.0622348 0.000899224 0)
(0.0619413 0.00138698 0)
(0.0601838 -0.000922551 0)
(0.0602094 -0.000709302 0)
(0.0602044 -0.000507893 0)
(0.0601691 -0.000301332 0)
(0.060101 -7.07082e-05 0)
(0.0599948 0.000203623 0)
(0.0598443 0.000540861 0)
(0.0596424 0.000960135 0)
(0.0593818 0.00148064 0)
(0.0590548 0.00212184 0)
(0.0574939 -0.000948619 0)
(0.0574622 -0.000674723 0)
(0.0574084 -0.000418584 0)
(0.0573331 -0.000154993 0)
(0.0572314 0.000141244 0)
(0.0570959 0.000493356 0)
(0.056919 0.00092164 0)
(0.0566946 0.00144488 0)
(0.0564176 0.0020817 0)
(0.0560844 0.00285116 0)
(0.0546248 -0.000853131 0)
(0.0545409 -0.000537329 0)
(0.0544515 -0.000250185 0)
(0.054355 5.12139e-05 0)
(0.0542386 0.000401882 0)
(0.0540881 0.000826446 0)
(0.0538927 0.00134187 0)
(0.0536471 0.00196154 0)
(0.0533504 0.00269912 0)
(0.0530058 0.00356917 0)
(0.0516001 -0.000642831 0)
(0.0514799 -0.000322879 0)
(0.0513878 -4.91673e-05 0)
(0.0513096 0.000264732 0)
(0.0512079 0.000671588 0)
(0.0510533 0.00118329 0)
(0.0508333 0.00180213 0)
(0.0505471 0.0025278 0)
(0.0502015 0.00336337 0)
(0.0498072 0.00431772 0)
(0.048429 -0.000288251 0)
(0.0483311 -9.59447e-05 0)
(0.0483372 5.95919e-05 0)
(0.0483544 0.00039559 0)
(0.0482922 0.000912501 0)
(0.0481199 0.00157645 0)
(0.0478354 0.00235654 0)
(0.0474507 0.0032292 0)
(0.0469867 0.004183 0)
(0.0464685 0.00522148 0)
(0.0452299 -0.000126295 0)
(0.0454645 -0.00032179 0)
(0.0457241 -0.000180613 0)
(0.0458303 0.000351098 0)
(0.0457425 0.0011429 0)
(0.0454657 0.00209702 0)
(0.045019 0.0031418 0)
(0.0444338 0.00422793 0)
(0.0437518 0.00533045 0)
(0.0430184 0.0064514 0)
(0.0433746 -0.00108959 0)
(0.0439157 -0.00109631 0)
(0.0441179 -0.00052434 0)
(0.0440444 0.000459741 0)
(0.0437236 0.00169474 0)
(0.0431693 0.00305638 0)
(0.0424067 0.00444437 0)
(0.0414816 0.00578169 0)
(0.0404612 0.0070262 0)
(0.03942 0.00818434 0)
(0.0420845 -0.00260473 0)
(0.0425138 -0.00173012 0)
(0.0425594 -0.000468222 0)
(0.0422831 0.00110007 0)
(0.0417098 0.00286917 0)
(0.0408444 0.00471976 0)
(0.0397042 0.00651638 0)
(0.0383498 0.00812528 0)
(0.0368976 0.00945991 0)
(0.0354869 0.010535 0)
(0.0400496 -0.00363241 0)
(0.0403382 -0.00202893 0)
(0.0403186 -0.000100228 0)
(0.0399681 0.00211181 0)
(0.0392642 0.00453842 0)
(0.0381672 0.00705081 0)
(0.0366544 0.00943545 0)
(0.0347915 0.0114153 0)
(0.0327986 0.0127685 0)
(0.0309629 0.0135365 0)
(0.0370199 -0.00433739 0)
(0.0372197 -0.00221701 0)
(0.0371834 0.000309334 0)
(0.0368582 0.00321108 0)
(0.0361653 0.00644912 0)
(0.0349826 0.00990909 0)
(0.0331528 0.0132994 0)
(0.0306554 0.0160011 0)
(0.0279296 0.0172266 0)
(0.0256113 0.0171968 0)
(0.0325692 -0.00485856 0)
(0.032675 -0.00238343 0)
(0.0326138 0.000584288 0)
(0.0323346 0.00408634 0)
(0.0317704 0.00814312 0)
(0.0307984 0.0127708 0)
(0.0290299 0.0179405 0)
(0.0258349 0.0227143 0)
(0.0220816 0.023342 0)
(0.0194068 0.0211618 0)
(0.0263594 -0.00500071 0)
(0.0261946 -0.00226058 0)
(0.0258743 0.00105141 0)
(0.0253355 0.00503977 0)
(0.0244952 0.00979158 0)
(0.023303 0.015392 0)
(0.0218432 0.0221522 0)
(0.0196269 0.0302124 0)
(0.0168182 0.0297354 0)
(0.0150152 0.024481 0)
(0.0186915 -0.0044167 0)
(0.0181711 -0.00138216 0)
(0.0175117 0.00233094 0)
(0.0166325 0.00691402 0)
(0.0153153 0.012608 0)
(0.013487 0.0188829 0)
(0.0116141 0.0254894 0)
(0.0112868 0.0323345 0)
(0.0120217 0.0317993 0)
(0.0121024 0.0261465 0)
(0.0101438 -0.00315849 0)
(0.00937418 8.87306e-05 0)
(0.00856042 0.00405632 0)
(0.00776054 0.00900701 0)
(0.00692741 0.0155276 0)
(0.00633101 0.0216092 0)
(0.00629411 0.0269022 0)
(0.0068293 0.03027 0)
(0.00773808 0.0297797 0)
(0.00827352 0.0259237 0)
(0.00107859 -0.00141171 0)
(0.000169118 0.00188335 0)
(-0.000732147 0.00574014 0)
(-0.00148998 0.0102505 0)
(-0.0015687 0.0154176 0)
(-0.000418987 0.0195551 0)
(0.00108415 0.0250904 0)
(0.00207399 0.0284423 0)
(0.00274295 0.0282157 0)
(0.00294511 0.0260191 0)
(-0.00825527 0.000250246 0)
(-0.00898027 0.00337933 0)
(-0.00953347 0.00687959 0)
(-0.0098127 0.0106843 0)
(-0.00989335 0.0145127 0)
(-0.0101074 0.0179827 0)
(-0.00988909 0.0227496 0)
(-0.00877076 0.026041 0)
(-0.00758252 0.0268871 0)
(-0.00710294 0.0264163 0)
(-0.019306 0.00180816 0)
(-0.0201186 0.0047024 0)
(-0.0208346 0.0079078 0)
(-0.0214661 0.0113683 0)
(-0.0219781 0.0150283 0)
(-0.0222541 0.018573 0)
(-0.0221176 0.0217851 0)
(-0.0215601 0.0240983 0)
(-0.020891 0.0253966 0)
(-0.0204447 0.0261119 0)
(-0.0322895 0.00363561 0)
(-0.0331681 0.00633016 0)
(-0.0339169 0.0093744 0)
(-0.0345991 0.0127089 0)
(-0.0352487 0.0160809 0)
(-0.0358238 0.0191874 0)
(-0.0361608 0.0215545 0)
(-0.0361845 0.0233358 0)
(-0.0359916 0.0245189 0)
(-0.0356799 0.0254655 0)
(-0.0479983 0.00560191 0)
(-0.0490292 0.00784312 0)
(-0.0497482 0.0104983 0)
(-0.0503122 0.0139488 0)
(-0.0508558 0.0173986 0)
(-0.0515668 0.020888 0)
(-0.052091 0.0223136 0)
(-0.0523601 0.0239203 0)
(-0.0526186 0.0245046 0)
(-0.0527573 0.0250605 0)
(-0.0675628 0.00863901 0)
(-0.0693219 0.0104854 0)
(-0.0704798 0.0124299 0)
(-0.0710774 0.0157655 0)
(-0.0711189 0.0183674 0)
(-0.0701804 0.020686 0)
(-0.0691191 0.022286 0)
(-0.0683722 0.0235997 0)
(-0.0679396 0.0249398 0)
(-0.0684831 0.026209 0)
(-0.0912192 0.0129274 0)
(-0.0924031 0.0119738 0)
(-0.092477 0.0129161 0)
(-0.0919587 0.0139764 0)
(-0.090888 0.0156993 0)
(-0.09049 0.017256 0)
(-0.0902023 0.019711 0)
(-0.0899746 0.0221186 0)
(-0.0900945 0.0251044 0)
(-0.0898618 0.0279891 0)
(-0.114629 0.0167197 0)
(-0.117527 0.0137719 0)
(-0.119735 0.0134752 0)
(-0.120904 0.0130008 0)
(-0.121201 0.0152094 0)
(-0.122021 0.0201553 0)
(-0.123372 0.0229158 0)
(-0.123489 0.0237039 0)
(-0.122113 0.0234384 0)
(-0.11978 0.0245347 0)
(-0.138511 0.0247308 0)
(-0.142665 0.0220792 0)
(-0.146829 0.02025 0)
(-0.150435 0.0186549 0)
(-0.152949 0.0164272 0)
(-0.152772 0.0193999 0)
(-0.150977 0.0205709 0)
(-0.150622 0.0196886 0)
(-0.151394 0.0194255 0)
(-0.152038 0.0201408 0)
(-0.15802 0.0338752 0)
(-0.162328 0.0305461 0)
(-0.165905 0.0277007 0)
(-0.168894 0.0246694 0)
(-0.172333 0.0206924 0)
(-0.175638 0.0200951 0)
(-0.177695 0.0208821 0)
(-0.178622 0.0223655 0)
(-0.178727 0.0229211 0)
(-0.178831 0.0231396 0)
(-0.17655 0.0427916 0)
(-0.180797 0.0384572 0)
(-0.184634 0.0346917 0)
(-0.188365 0.0313283 0)
(-0.191911 0.0286061 0)
(-0.194786 0.0268969 0)
(-0.197024 0.0252682 0)
(-0.19847 0.0240032 0)
(-0.198804 0.0222031 0)
(-0.197749 0.0204147 0)
(-0.188359 0.0520358 0)
(-0.192441 0.0467074 0)
(-0.196217 0.0421754 0)
(-0.199617 0.0380805 0)
(-0.20261 0.0343942 0)
(-0.205071 0.0311249 0)
(-0.20685 0.0281091 0)
(-0.207998 0.0250454 0)
(-0.208745 0.0219188 0)
(-0.209441 0.0188359 0)
(-0.194787 0.0604642 0)
(-0.198719 0.0545141 0)
(-0.202531 0.04925 0)
(-0.20601 0.0444113 0)
(-0.209121 0.0398901 0)
(-0.211821 0.0355255 0)
(-0.214067 0.0314904 0)
(-0.215935 0.027731 0)
(-0.217584 0.0243275 0)
(-0.219148 0.0214962 0)
(-0.197749 0.0687502 0)
(-0.201839 0.0624226 0)
(-0.205722 0.0566264 0)
(-0.209331 0.0511791 0)
(-0.212668 0.0459699 0)
(-0.215739 0.0409282 0)
(-0.218581 0.0362565 0)
(-0.221254 0.0320445 0)
(-0.22384 0.0283741 0)
(-0.226411 0.0254357 0)
(-0.198796 0.0767449 0)
(-0.202689 0.0702546 0)
(-0.206517 0.0641071 0)
(-0.210216 0.0582806 0)
(-0.213811 0.0527096 0)
(-0.217359 0.0474055 0)
(-0.220902 0.0425478 0)
(-0.224495 0.038266 0)
(-0.228218 0.034664 0)
(-0.232134 0.0319296 0)
(-0.197627 0.0843099 0)
(-0.201405 0.0778409 0)
(-0.205179 0.0716355 0)
(-0.208975 0.0657677 0)
(-0.212862 0.0602532 0)
(-0.216889 0.0551172 0)
(-0.221117 0.0505397 0)
(-0.225638 0.0466746 0)
(-0.230542 0.0436549 0)
(-0.235912 0.04167 0)
(-0.194551 0.0916679 0)
(-0.198202 0.0853111 0)
(-0.201951 0.0792653 0)
(-0.205851 0.0736613 0)
(-0.209958 0.0685349 0)
(-0.214342 0.0639396 0)
(-0.219109 0.0600824 0)
(-0.224368 0.0571322 0)
(-0.230237 0.0552511 0)
(-0.236831 0.0546261 0)
(-0.190121 0.0986224 0)
(-0.193593 0.0926038 0)
(-0.197283 0.0869433 0)
(-0.201201 0.0817843 0)
(-0.205368 0.0772276 0)
(-0.209879 0.0734225 0)
(-0.214856 0.0705865 0)
(-0.220421 0.0689136 0)
(-0.226713 0.0685873 0)
(-0.23387 0.0697837 0)
(-0.184712 0.105088 0)
(-0.188016 0.0995656 0)
(-0.191558 0.0944106 0)
(-0.19535 0.0897798 0)
(-0.199425 0.0858664 0)
(-0.203838 0.0829013 0)
(-0.208674 0.0811341 0)
(-0.21406 0.080804 0)
(-0.220138 0.0820806 0)
(-0.227045 0.0851158 0)
(-0.178298 0.111394 0)
(-0.181634 0.106336 0)
(-0.185176 0.101654 0)
(-0.18894 0.097536 0)
(-0.192939 0.0942039 0)
(-0.197178 0.0919245 0)
(-0.201686 0.0910195 0)
(-0.20657 0.0918191 0)
(-0.212035 0.094544 0)
(-0.218279 0.0992819 0)
(-0.171747 0.11802 0)
(-0.175302 0.113321 0)
(-0.179016 0.109023 0)
(-0.182915 0.105314 0)
(-0.18699 0.102383 0)
(-0.191163 0.100469 0)
(-0.195334 0.100011 0)
(-0.199489 0.101516 0)
(-0.203882 0.10558 0)
(-0.208847 0.112405 0)
(-0.165976 0.125308 0)
(-0.17 0.120819 0)
(-0.174112 0.116755 0)
(-0.17835 0.113363 0)
(-0.182788 0.11086 0)
(-0.187342 0.109066 0)
(-0.191164 0.107508 0)
(-0.193851 0.108617 0)
(-0.196219 0.113453 0)
(-0.198549 0.122078 0)
(-0.162092 0.134023 0)
(-0.167105 0.129631 0)
(-0.172121 0.125693 0)
(-0.176976 0.122727 0)
(-0.182353 0.121021 0)
(-0.187402 0.116827 0)
(-0.189974 0.111758 0)
(-0.191258 0.111581 0)
(-0.192463 0.116034 0)
(-0.193767 0.124167 0)
(-0.160294 0.14509 0)
(-0.166881 0.140784 0)
(-0.17325 0.136996 0)
(-0.179633 0.133999 0)
(-0.186131 0.131447 0)
(-0.190923 0.122833 0)
(-0.194131 0.115795 0)
(-0.197216 0.114558 0)
(-0.199557 0.11807 0)
(-0.201501 0.127908 0)
(-0.159785 0.159376 0)
(-0.167777 0.155183 0)
(-0.175258 0.151479 0)
(-0.18362 0.149015 0)
(-0.193001 0.143151 0)
(-0.200149 0.132677 0)
(-0.206424 0.125633 0)
(-0.212898 0.123194 0)
(-0.217895 0.126022 0)
(-0.221432 0.138305 0)
(-0.159405 0.177486 0)
(-0.169211 0.174114 0)
(-0.17988 0.171103 0)
(-0.192321 0.169224 0)
(-0.203458 0.160806 0)
(-0.212207 0.149782 0)
(-0.221077 0.14212 0)
(-0.230204 0.138072 0)
(-0.237693 0.139797 0)
(-0.243321 0.149222 0)
(-0.157146 0.199731 0)
(-0.168351 0.198333 0)
(-0.181876 0.196886 0)
(-0.196808 0.192674 0)
(-0.207334 0.181132 0)
(-0.21608 0.169829 0)
(-0.225577 0.161324 0)
(-0.234836 0.155966 0)
(-0.242674 0.154924 0)
(-0.247635 0.158276 0)
(-0.148778 0.222495 0)
(-0.158306 0.223334 0)
(-0.171526 0.225576 0)
(-0.187587 0.217223 0)
(-0.197889 0.202413 0)
(-0.207433 0.189632 0)
(-0.216808 0.17932 0)
(-0.224755 0.171501 0)
(-0.230747 0.166427 0)
(-0.234259 0.164048 0)
(-0.13987 0.243456 0)
(-0.149046 0.2464 0)
(-0.162942 0.252977 0)
(-0.1768 0.240058 0)
(-0.18508 0.223132 0)
(-0.193626 0.208105 0)
(-0.201705 0.194889 0)
(-0.208029 0.18362 0)
(-0.212459 0.1742 0)
(-0.214638 0.166379 0)
(-0.129598 0.263767 0)
(-0.138623 0.26909 0)
(-0.15287 0.276974 0)
(-0.164252 0.259499 0)
(-0.170697 0.240578 0)
(-0.177675 0.223413 0)
(-0.183991 0.207368 0)
(-0.18867 0.192795 0)
(-0.191656 0.179566 0)
(-0.192808 0.167397 0)
(-0.119243 0.283772 0)
(-0.128749 0.291477 0)
(-0.142547 0.297944 0)
(-0.150837 0.275415 0)
(-0.155426 0.254286 0)
(-0.160539 0.234962 0)
(-0.164883 0.216355 0)
(-0.16781 0.198904 0)
(-0.16937 0.182591 0)
(-0.169569 0.167228 0)
(-0.108648 0.304937 0)
(-0.119612 0.314203 0)
(-0.134123 0.315169 0)
(-0.138764 0.285819 0)
(-0.140609 0.263 0)
(-0.14317 0.241912 0)
(-0.145088 0.22135 0)
(-0.146042 0.201694 0)
(-0.146067 0.183072 0)
(-0.145156 0.165415 0)
(-0.0923846 0.325092 0)
(-0.102313 0.340029 0)
(-0.118536 0.329809 0)
(-0.122166 0.292446 0)
(-0.122892 0.266753 0)
(-0.123677 0.243921 0)
(-0.123722 0.221982 0)
(-0.123043 0.200966 0)
(-0.121752 0.18089 0)
(-0.119849 0.161704 0)
(-0.0732934 0.339598 0)
(-0.079063 0.368178 0)
(-0.0952869 0.343017 0)
(-0.0994136 0.299175 0)
(-0.100496 0.268942 0)
(-0.100455 0.243523 0)
(-0.0995922 0.220015 0)
(-0.0980863 0.197886 0)
(-0.0960939 0.176809 0)
(-0.0936506 0.156572 0)
(-0.0669285 0.350337 0)
(-0.0738941 0.392942 0)
(-0.0793859 0.352916 0)
(-0.0792662 0.303089 0)
(-0.0793171 0.269011 0)
(-0.0773934 0.241491 0)
(-0.0751113 0.216668 0)
(-0.0727741 0.19367 0)
(-0.0702682 0.171864 0)
(-0.0675048 0.15086 0)
(-0.0625256 0.363529 0)
(-0.0667246 0.394297 0)
(-0.0644757 0.356858 0)
(-0.0593228 0.300238 0)
(-0.0583646 0.263955 0)
(-0.0552084 0.23617 0)
(-0.0514983 0.211401 0)
(-0.0483711 0.188357 0)
(-0.0454671 0.166306 0)
(-0.0424633 0.144838 0)
(-0.0601201 0.376437 0)
(-0.0587125 0.38416 0)
(-0.0534431 0.353583 0)
(-0.0426049 0.292859 0)
(-0.0383877 0.254178 0)
(-0.0345676 0.227157 0)
(-0.0300667 0.20417 0)
(-0.0262172 0.181909 0)
(-0.0228472 0.160012 0)
(-0.0194429 0.13828 0)
(-0.0590885 0.371932 0)
(-0.0516668 0.366206 0)
(-0.040869 0.334852 0)
(-0.0274365 0.279481 0)
(-0.0198876 0.241156 0)
(-0.0157624 0.216972 0)
(-0.0113952 0.196095 0)
(-0.00713103 0.174608 0)
(-0.00310838 0.152747 0)
(0.00109796 0.130641 0)
(-0.0547849 0.360014 0)
(-0.0426812 0.341335 0)
(-0.0264247 0.304349 0)
(-0.0119118 0.256416 0)
(-0.00578113 0.228059 0)
(-0.00167081 0.207664 0)
(0.00280639 0.187577 0)
(0.00786648 0.165967 0)
(0.0132043 0.143551 0)
(0.0189836 0.120643 0)
(-0.0375527 0.33634 0)
(-0.025009 0.306147 0)
(-0.0121279 0.271176 0)
(-0.00364961 0.240871 0)
(0.00187463 0.218637 0)
(0.0068875 0.198291 0)
(0.0129891 0.176673 0)
(0.0200075 0.153868 0)
(0.0276144 0.130383 0)
(0.035746 0.106378 0)
(-0.017998 0.305918 0)
(-0.00922953 0.284097 0)
(-0.00176512 0.259687 0)
(0.00409225 0.233619 0)
(0.0094524 0.209313 0)
(0.0159623 0.185605 0)
(0.0240475 0.161565 0)
(0.0331601 0.137114 0)
(0.0430676 0.112287 0)
(0.0536439 0.0871638 0)
(-0.0154875 0.287537 0)
(-0.0079235 0.269662 0)
(0.000236831 0.246775 0)
(0.00834912 0.220604 0)
(0.0166272 0.194283 0)
(0.0259591 0.168177 0)
(0.0364615 0.142057 0)
(0.0479266 0.115839 0)
(0.0601706 0.0895017 0)
(0.0731619 0.063091 0)
(-0.0110092 0.2753 0)
(-0.00542045 0.253711 0)
(0.00317332 0.228594 0)
(0.0133436 0.201354 0)
(0.0245307 0.17345 0)
(0.0367685 0.145424 0)
(0.050006 0.117439 0)
(0.0641326 0.0895356 0)
(0.079021 0.0616928 0)
(0.0945988 0.0339168 0)
(-0.00317509 0.267733 0)
(0.000717906 0.239427 0)
(0.00934961 0.20917 0)
(0.0213288 0.178316 0)
(0.0348848 0.147619 0)
(0.0496954 0.117281 0)
(0.0655813 0.0873757 0)
(0.0823348 0.0578506 0)
(0.0998146 0.028574 0)
(0.117989 -0.000557871 0)
(0.00221208 0.263922 0)
(0.00875991 0.222657 0)
(0.0184342 0.185645 0)
(0.0324377 0.15058 0)
(0.0484055 0.116526 0)
(0.0656988 0.0836459 0)
(0.0840923 0.0519208 0)
(0.103255 0.0209873 0)
(0.123019 -0.00962021 0)
(0.143465 -0.0402222 0)
(0.0229282 0.266206 0)
(0.0324229 0.204013 0)
(0.039201 0.159848 0)
(0.0508009 0.122069 0)
(0.0672313 0.0832938 0)
(0.0864221 0.0462933 0)
(0.107023 0.0122984 0)
(0.128079 -0.0198759 0)
(0.149412 -0.0516992 0)
(0.171436 -0.0840672 0)
(0.0007773 0.247582 0)
(0.0220226 0.182911 0)
(0.0438147 0.13097 0)
(0.0629715 0.090382 0)
(0.0845679 0.0474341 0)
(0.107998 0.00511431 0)
(0.132388 -0.0312394 0)
(0.155683 -0.0639764 0)
(0.178276 -0.0964669 0)
(0.201705 -0.131063 0)
(-0.0179486 0.218565 0)
(0.00471839 0.148752 0)
(0.0295892 0.0882383 0)
(0.0664697 0.0364796 0)
(0.104905 -0.0155938 0)
(0.131246 -0.0508833 0)
(0.155272 -0.0804868 0)
(0.17998 -0.109671 0)
(0.205196 -0.142103 0)
(0.2328 -0.180782 0)
(-0.0299147 0.171321 0)
(0.000619629 0.0920048 0)
(0.0339757 0.0114648 0)
(0.0751811 -0.0554325 0)
(0.105188 -0.0838854 0)
(0.129729 -0.104999 0)
(0.155947 -0.129947 0)
(0.185113 -0.161795 0)
(0.22018 -0.202726 0)
(0.26046 -0.249152 0)
(-0.0216868 0.111896 0)
(0.0169124 0.0156216 0)
(0.0513899 -0.0622432 0)
(0.0729271 -0.101217 0)
(0.0940381 -0.128187 0)
(0.119422 -0.156802 0)
(0.151454 -0.190672 0)
(0.191404 -0.237017 0)
(0.235768 -0.288736 0)
(0.283053 -0.338904 0)
(-0.00808408 0.0209528 0)
(0.0222536 -0.0527735 0)
(0.0402243 -0.0981089 0)
(0.058871 -0.13724 0)
(0.083857 -0.179387 0)
(0.114393 -0.2224 0)
(0.154702 -0.271275 0)
(0.206367 -0.330779 0)
(0.260129 -0.38904 0)
(0.315376 -0.443631 0)
(-0.00672647 -0.029939 0)
(0.0091444 -0.0809185 0)
(0.0277828 -0.131701 0)
(0.0521348 -0.185313 0)
(0.0857152 -0.241925 0)
(0.126836 -0.300442 0)
(0.179419 -0.370791 0)
(0.2424 -0.445764 0)
(0.301972 -0.509499 0)
(0.360001 -0.562471 0)
(-0.0265294 -0.0562196 0)
(-0.00849826 -0.114527 0)
(0.0150991 -0.178735 0)
(0.0507192 -0.249459 0)
(0.10039 -0.330967 0)
(0.162389 -0.414408 0)
(0.228192 -0.4996 0)
(0.290403 -0.571209 0)
(0.343399 -0.622924 0)
(0.390692 -0.663209 0)
(-0.0535135 -0.0885742 0)
(-0.0296135 -0.162011 0)
(0.00729069 -0.249676 0)
(0.0615359 -0.352947 0)
(0.131429 -0.468633 0)
(0.200858 -0.560769 0)
(0.259841 -0.625834 0)
(0.30954 -0.675383 0)
(0.35508 -0.714618 0)
(0.398349 -0.747892 0)
(-0.0745034 -0.1387 0)
(-0.0380743 -0.238256 0)
(0.0226308 -0.365419 0)
(0.0981516 -0.506831 0)
(0.165083 -0.607516 0)
(0.21609 -0.671973 0)
(0.262328 -0.720758 0)
(0.306897 -0.762957 0)
(0.348927 -0.799464 0)
(0.388705 -0.829222 0)
(-0.0741022 -0.205238 0)
(-0.0203658 -0.350225 0)
(0.0613151 -0.526576 0)
(0.123302 -0.636116 0)
(0.169337 -0.704834 0)
(0.212379 -0.758161 0)
(0.253667 -0.805247 0)
(0.293308 -0.845476 0)
(0.330868 -0.877873 0)
(0.365811 -0.901906 0)
(-0.0631544 -0.300384 0)
(0.0192507 -0.51484 0)
(0.0792701 -0.64773 0)
(0.122646 -0.725212 0)
(0.161325 -0.785143 0)
(0.199184 -0.837396 0)
(0.235701 -0.881832 0)
(0.270322 -0.917769 0)
(0.302489 -0.944803 0)
(0.331623 -0.96251 0)
(-0.0356982 -0.470476 0)
(0.0321331 -0.642376 0)
(0.075327 -0.733149 0)
(0.109724 -0.798958 0)
(0.144416 -0.857127 0)
(0.178177 -0.907137 0)
(0.210306 -0.948028 0)
(0.240254 -0.979278 0)
(0.267392 -1.00045 0)
(0.291105 -1.01108 0)
(-0.0189437 -0.62132 0)
(0.028023 -0.728139 0)
(0.0587854 -0.799836 0)
(0.0907657 -0.865016 0)
(0.122484 -0.921975 0)
(0.153027 -0.969321 0)
(0.181671 -1.00618 0)
(0.20778 -1.03204 0)
(0.230746 -1.04655 0)
(0.249981 -1.04929 0)
(-0.0189482 -0.699427 0)
(0.0118548 -0.7859 0)
(0.0413927 -0.860645 0)
(0.0710405 -0.92599 0)
(0.100034 -0.981217 0)
(0.127674 -1.02528 0)
(0.153215 -1.05745 0)
(0.176007 -1.07737 0)
(0.195509 -1.08481 0)
(0.211313 -1.07951 0)
(-0.0330294 -0.766625 0)
(-0.00825846 -0.845608 0)
(0.0216292 -0.918454 0)
(0.0500605 -0.98236 0)
(0.0771091 -1.03524 0)
(0.102463 -1.07558 0)
(0.125482 -1.1027 0)
(0.145531 -1.1164 0)
(0.162175 -1.11669 0)
(0.175266 -1.10355 0)
(-0.0578741 -0.828678 0)
(-0.0308893 -0.904934 0)
(-0.00086373 -0.975551 0)
(0.0273749 -1.03707 0)
(0.0536853 -1.08663 0)
(0.0777635 -1.12243 0)
(0.0991096 -1.14389 0)
(0.117265 -1.15112 0)
(0.132133 -1.14462 0)
(0.144026 -1.12478 0)
(-0.0739617 -0.886112 0)
(-0.046953 -0.962892 0)
(-0.0185962 -1.03179 0)
(0.00820634 -1.09042 0)
(0.0330839 -1.13587 0)
(0.0555976 -1.16641 0)
(0.0752611 -1.18172 0)
(0.0917214 -1.18242 0)
(0.105131 -1.16972 0)
(0.115911 -1.14467 0)
(-0.0872175 -0.94171 0)
(-0.0596714 -1.01804 0)
(-0.0324571 -1.08506 0)
(-0.00727894 -1.1406 0)
(0.015838 -1.18176 0)
(0.036586 -1.20691 0)
(0.0545991 -1.21601 0)
(0.0696784 -1.21023 0)
(0.0821514 -1.19136 0)
(0.0919396 -1.16044 0)
(-0.0943021 -0.996501 0)
(-0.0674908 -1.07073 0)
(-0.0420781 -1.13494 0)
(-0.0191534 -1.18697 0)
(0.00171036 -1.22396 0)
(0.0204851 -1.24431 0)
(0.0370694 -1.24822 0)
(0.0516624 -1.23739 0)
(0.0650119 -1.21384 0)
(0.0758679 -1.17844 0)
(-0.0983263 -1.04767 0)
(-0.0730086 -1.11918 0)
(-0.0495401 -1.17993 0)
(-0.0293099 -1.22816 0)
(-0.0113055 -1.26136 0)
(0.00483345 -1.27793 0)
(0.0192933 -1.27845 0)
(0.032825 -1.26525 0)
(0.0467593 -1.24032 0)
(0.0584589 -1.20361 0)
(-0.101977 -1.09783 0)
(-0.0786438 -1.16453 0)
(-0.0565633 -1.22016 0)
(-0.0388936 -1.26356 0)
(-0.0240122 -1.29259 0)
(-0.0111858 -1.30556 0)
(-8.85157e-05 -1.30342 0)
(0.0103567 -1.28934 0)
(0.0216853 -1.26545 0)
(0.0313671 -1.22998 0)
(-0.101829 -1.14704 0)
(-0.0815178 -1.20749 0)
(-0.0611245 -1.25612 0)
(-0.0460141 -1.29329 0)
(-0.0341805 -1.31739 0)
(-0.0246127 -1.3262 0)
(-0.0168724 -1.32114 0)
(-0.00990786 -1.30642 0)
(-0.00227637 -1.28474 0)
(0.0053228 -1.25297 0)
(-0.0949125 -1.19261 0)
(-0.0787605 -1.24632 0)
(-0.0609007 -1.28693 0)
(-0.0486502 -1.31722 0)
(-0.0397994 -1.33615 0)
(-0.0331303 -1.34061 0)
(-0.0281988 -1.33235 0)
(-0.024186 -1.31665 0)
(-0.0200362 -1.29643 0)
(-0.0149775 -1.26822 0)
(-0.0826827 -1.23723 0)
(-0.0709326 -1.28072 0)
(-0.0558652 -1.31192 0)
(-0.0464255 -1.33517 0)
(-0.040397 -1.34933 0)
(-0.0362225 -1.34995 0)
(-0.0333897 -1.33865 0)
(-0.0315752 -1.32124 0)
(-0.029858 -1.30014 0)
(-0.0268636 -1.26848 0)
(-0.0621272 -1.27892 0)
(-0.0556756 -1.30851 0)
(-0.0455754 -1.32976 0)
(-0.0396907 -1.3466 0)
(-0.036683 -1.35702 0)
(-0.0348908 -1.35521 0)
(-0.0334252 -1.34204 0)
(-0.0323035 -1.32369 0)
(-0.0306916 -1.30183 0)
(-0.0262067 -1.26632 0)
(-0.040127 -1.3087 0)
(-0.0378394 -1.32572 0)
(-0.0329783 -1.33928 0)
(-0.0308017 -1.35121 0)
(-0.030768 -1.35908 0)
(-0.0315829 -1.35651 0)
(-0.0319344 -1.34284 0)
(-0.0324549 -1.32437 0)
(-0.0324325 -1.30248 0)
(-0.0302491 -1.2646 0)
(-0.0202594 -1.32537 0)
(-0.0212055 -1.33369 0)
(-0.0205399 -1.34164 0)
(-0.0215235 -1.34987 0)
(-0.0238083 -1.3561 0)
(-0.0267742 -1.35413 0)
(-0.0282219 -1.3412 0)
(-0.029223 -1.32297 0)
(-0.0295182 -1.30198 0)
(-0.0271043 -1.26348 0)
(-0.00183571 -1.33295 0)
(-0.00619199 -1.33408 0)
(-0.00910826 -1.33769 0)
(-0.0128667 -1.34355 0)
(-0.0169165 -1.349 0)
(-0.0218219 -1.34848 0)
(-0.0243985 -1.33779 0)
(-0.0263187 -1.32012 0)
(-0.0280154 -1.30188 0)
(-0.0281336 -1.27242 0)
(0.0150148 -1.3326 0)
(0.00679323 -1.3265 0)
(0.00039058 -1.32755 0)
(-0.0056836 -1.333 0)
(-0.0109095 -1.3386 0)
(-0.0174686 -1.33958 0)
(-0.0211413 -1.33248 0)
(-0.0241851 -1.31438 0)
(-0.0278021 -1.29763 0)
(-0.0306623 -1.27747 0)
(0.0261142 -1.31913 0)
(0.0159514 -1.31059 0)
(0.00676588 -1.31243 0)
(-0.000770027 -1.31964 0)
(-0.00648694 -1.32605 0)
(-0.0142605 -1.3279 0)
(-0.0187848 -1.32552 0)
(-0.0227773 -1.30616 0)
(-0.0280411 -1.28793 0)
(-0.0331214 -1.27359 0)
(0.0265195 -1.29273 0)
(0.0193704 -1.28986 0)
(0.00947172 -1.29557 0)
(0.00178131 -1.30566 0)
(-0.0038081 -1.31259 0)
(-0.0123693 -1.31437 0)
(-0.0172388 -1.31704 0)
(-0.0218924 -1.29715 0)
(-0.0277818 -1.2734 0)
(-0.0341319 -1.25977 0)
(0.0239708 -1.26634 0)
(0.0184165 -1.26999 0)
(0.00969861 -1.28 0)
(0.00298047 -1.29275 0)
(-0.00220634 -1.29898 0)
(-0.011516 -1.29992 0)
(-0.0161061 -1.30688 0)
(-0.0216052 -1.28941 0)
(-0.0266962 -1.25628 0)
(-0.033476 -1.23904 0)
(0.0214354 -1.24631 0)
(0.0162804 -1.25285 0)
(0.00890047 -1.26684 0)
(0.00360482 -1.2817 0)
(-0.00108121 -1.28561 0)
(-0.0113083 -1.28544 0)
(-0.0147581 -1.29518 0)
(-0.0219813 -1.2844 0)
(-0.0245536 -1.23931 0)
(-0.0306987 -1.21342 0)
(0.0173773 -1.22716 0)
(0.0129482 -1.23754 0)
(0.0075268 -1.25734 0)
(0.00375422 -1.27305 0)
(-0.000215772 -1.27251 0)
(-0.0113551 -1.27145 0)
(-0.0127594 -1.2824 0)
(-0.0232185 -1.2825 0)
(-0.0210005 -1.22607 0)
(-0.024911 -1.18243 0)
(0.0105143 -1.20402 0)
(0.00780091 -1.22463 0)
(0.00726177 -1.25355 0)
(0.00411091 -1.26542 0)
(0.00112414 -1.25892 0)
(-0.0113905 -1.25768 0)
(-0.010448 -1.26841 0)
(-0.0258418 -1.28239 0)
(-0.0152701 -1.2204 0)
(-0.015926 -1.14265 0)
(0.00266411 -1.16821 0)
(0.000243231 -1.21834 0)
(0.0112725 -1.25642 0)
(0.00384105 -1.25414 0)
(0.00285751 -1.24471 0)
(-0.011248 -1.24394 0)
(-0.0082586 -1.2527 0)
(-0.0298482 -1.28102 0)
(-0.00601178 -1.22658 0)
(-0.00802699 -1.09071 0)
(0.00392953 -1.09354 0)
(-0.0141675 -1.24428 0)
(0.0186504 -1.26491 0)
(-0.00184841 -1.23783 0)
(0.00306749 -1.23235 0)
(-0.0100754 -1.23172 0)
(-0.00471553 -1.23691 0)
(-0.0325694 -1.27688 0)
(0.00774625 -1.25688 0)
(-0.0150503 -1.02011 0)
(0.0651319 0.000554684 0)
(0.0644522 0.000890903 0)
(0.0634694 0.00130181 0)
(0.0621278 0.00177803 0)
(0.0603854 0.00229637 0)
(0.0582204 0.00282164 0)
(0.0556328 0.00330661 0)
(0.0526521 0.00369466 0)
(0.0493498 0.00392761 0)
(0.0458467 0.00395383 0)
(0.0423106 0.0037436 0)
(0.0389345 0.00330807 0)
(0.035897 0.00270422 0)
(0.0333241 0.00201906 0)
(0.0312664 0.00136266 0)
(0.0296771 0.000874618 0)
(0.0284647 0.000535013 0)
(0.0275392 0.000286965 0)
(0.0267481 0.000328821 0)
(0.0258715 0.000679678 0)
(0.0246886 0.0012848 0)
(0.0230416 0.00196248 0)
(0.0209526 0.00238998 0)
(0.0187477 0.00226262 0)
(0.0168973 0.00158418 0)
(0.0156842 0.000679247 0)
(0.0150938 -8.1765e-05 0)
(0.0149244 -0.000445529 0)
(0.0148827 -0.000253298 0)
(0.0145203 0.000629302 0)
(0.013376 0.00226222 0)
(0.0104414 0.00413154 0)
(0.00633721 0.00476979 0)
(0.0029762 0.00349363 0)
(0.000701314 0.00194155 0)
(-0.00061229 0.000903769 0)
(-0.00123746 0.00022746 0)
(-0.0013755 -0.000300691 0)
(-0.00112294 -0.000681385 0)
(-0.000548241 -0.000896459 0)
(0.0644246 0.00132601 0)
(0.0639986 0.00195915 0)
(0.0634173 0.00272982 0)
(0.0626393 0.0036338 0)
(0.0616172 0.00464457 0)
(0.060304 0.00571283 0)
(0.058659 0.00677981 0)
(0.0566517 0.00776093 0)
(0.0542749 0.00854425 0)
(0.0515621 0.009007 0)
(0.0485976 0.00904627 0)
(0.0455127 0.0086224 0)
(0.0424604 0.00778873 0)
(0.0395783 0.00668283 0)
(0.0369671 0.00548615 0)
(0.0346854 0.00438243 0)
(0.0327377 0.00349297 0)
(0.0310527 0.00290859 0)
(0.0295358 0.00277616 0)
(0.0280883 0.00314892 0)
(0.026587 0.00394162 0)
(0.0248938 0.00489387 0)
(0.0229363 0.00549713 0)