/*--------------------------------*- C++ -*----------------------------------*\
  =========                 |
  \\      /  F ield         | OpenFOAM: The Open Source CFD Toolbox
   \\    /   O peration     | Website:  https://openfoam.org
    \\  /    A nd           | Version:  8
     \\/     M anipulation  |
\*---------------------------------------------------------------------------*/
FoamFile
{
    version     2.0;
    format      ascii;
    class       volScalarField;
    location    "2.65";
    object      nut;
}
// * * * * * * * * * * * * * * * * * * * * * * * * * * * * * * * * * * * * * //

dimensions      [0 2 -1 0 0 0 0];

internalField   nonuniform List<scalar> 
9150
(
9.60054e-06
6.40587e-06
6.59819e-06
8.84436e-06
7.78014e-06
7.785e-06
8.84889e-06
6.60073e-06
6.4069e-06
9.60058e-06
9.48776e-06
5.7381e-06
8.31455e-06
9.99463e-06
7.24277e-06
7.24768e-06
1.00008e-05
8.31788e-06
5.73902e-06
9.48783e-06
9.29576e-06
5.50105e-06
1.08505e-05
1.03717e-05
6.89107e-06
6.89569e-06
1.03789e-05
1.08553e-05
5.50187e-06
9.29585e-06
9.08011e-06
5.42319e-06
1.34609e-05
1.03699e-05
6.70313e-06
6.70752e-06
1.03773e-05
1.34678e-05
5.42391e-06
9.08021e-06
8.84528e-06
5.40667e-06
1.5709e-05
1.02785e-05
6.60783e-06
6.6121e-06
1.02859e-05
1.5718e-05
5.40732e-06
8.84538e-06
5.91483e-06
1.13167e-05
1.3983e-05
1.7658e-05
1.70282e-05
1.70342e-05
1.76579e-05
1.39704e-05
1.13061e-05
5.91409e-06
6.28087e-06
8.8748e-06
1.14366e-05
1.55047e-05
1.47371e-05
1.47443e-05
1.55088e-05
1.14312e-05
8.87111e-06
6.28103e-06
6.83073e-06
7.91024e-06
9.43917e-06
1.32303e-05
1.23976e-05
1.24042e-05
1.3235e-05
9.43828e-06
7.91028e-06
6.83095e-06
7.3875e-06
7.30034e-06
8.01449e-06
1.12895e-05
1.04293e-05
1.04351e-05
1.12942e-05
8.01589e-06
7.30157e-06
7.38768e-06
8.07491e-06
6.8483e-06
7.08458e-06
9.76509e-06
8.8438e-06
8.84903e-06
9.76969e-06
7.08694e-06
6.84962e-06
8.07504e-06
1.39814e-05
2.00127e-05
1.42808e-05
1.61782e-05
1.78981e-05
1.77759e-05
1.57974e-05
1.28506e-05
1.50197e-05
1.26206e-05
7.91012e-06
1.08761e-05
1.26629e-05
1.61674e-05
1.79475e-05
1.78703e-05
1.59628e-05
1.2459e-05
1.08058e-05
7.87708e-06
7.46627e-06
1.02291e-05
1.26609e-05
1.62954e-05
1.80084e-05
1.79626e-05
1.61634e-05
1.25546e-05
1.01991e-05
7.4573e-06
7.03573e-06
9.84756e-06
1.26679e-05
1.64051e-05
1.80641e-05
1.80367e-05
1.63257e-05
1.26061e-05
9.80905e-06
7.03194e-06
6.51221e-06
1.01017e-05
1.26607e-05
1.65709e-05
1.79604e-05
1.79498e-05
1.65367e-05
1.26306e-05
1.00706e-05
6.51066e-06
1.38129e-05
1.3786e-05
1.3755e-05
1.37208e-05
1.36841e-05
1.36457e-05
1.36062e-05
1.35666e-05
1.35275e-05
1.34894e-05
0.000129369
0.000128941
0.000128446
0.000127904
0.000127332
0.000126745
0.000126158
0.000125586
0.000125041
0.000124537
0.000254734
0.000254103
0.000253357
0.00025252
0.00025162
0.00025068
0.000249724
0.000248776
0.000247855
0.000246981
0.0003653
0.000364603
0.000363748
0.000362761
0.000361671
0.000360504
0.000359288
0.000358047
0.000356805
0.00035558
0.000462231
0.000461526
0.000460618
0.000459534
0.0004583
0.000456944
0.000455491
0.000453967
0.000452393
0.000450786
0.000547655
0.00054696
0.000546015
0.000544845
0.000543474
0.000541929
0.000540233
0.000538407
0.000536473
0.000534445
0.000623344
0.000622657
0.000621672
0.000620409
0.000618893
0.000617145
0.000615186
0.000613036
0.000610713
0.000608229
0.00069071
0.000690022
0.000688984
0.000687617
0.000685939
0.000683971
0.000681731
0.000679236
0.0006765
0.000673534
0.000750891
0.000750187
0.000749083
0.000747596
0.000745743
0.00074354
0.000741003
0.000738147
0.000734982
0.000731519
0.000804812
0.000804078
0.000802894
0.000801275
0.000799233
0.000796785
0.000793941
0.000790714
0.000787113
0.000783145
0.000853234
0.000852457
0.000851183
0.000849421
0.000847184
0.000844483
0.000841327
0.000837727
0.000833689
0.000829219
0.000896787
0.000895958
0.000894584
0.000892675
0.000890238
0.000887283
0.000883817
0.000879847
0.000875378
0.000870414
0.000935997
0.000935106
0.000933629
0.00093157
0.000928935
0.000925731
0.000921961
0.000917631
0.000912744
0.000907302
0.000971296
0.00097034
0.000968757
0.00096655
0.000963724
0.000960279
0.000956219
0.000951546
0.000946259
0.000940361
0.00100304
0.00100202
0.00100033
0.000997984
0.000994976
0.000991308
0.000986978
0.000981985
0.000976326
0.00097
0.00103153
0.00103043
0.00102864
0.00102617
0.001023
0.00101913
0.00101456
0.00100928
0.00100328
0.000996566
0.00105699
0.00105581
0.00105393
0.00105133
0.00104802
0.00104398
0.0010392
0.00103368
0.0010274
0.00102035
0.00107958
0.00107832
0.00107634
0.00107364
0.00107021
0.00106603
0.0010611
0.0010554
0.0010489
0.00104159
0.00109945
0.00109808
0.00109601
0.00109321
0.00108967
0.0010854
0.00108036
0.00107454
0.00106791
0.00106044
0.00111666
0.00111518
0.00111298
0.00111007
0.00110645
0.00110209
0.00109699
0.00109111
0.00108444
0.00107693
0.00113131
0.00112965
0.0011273
0.00112427
0.00112053
0.00111609
0.00111094
0.00110504
0.00109838
0.0010909
0.00114344
0.00114156
0.00113902
0.00113581
0.00113195
0.00112742
0.00112221
0.00111632
0.00110971
0.00110235
0.00115313
0.00115096
0.00114816
0.00114473
0.00114068
0.00113601
0.00113072
0.00112479
0.0011182
0.00111091
0.00116045
0.00115793
0.00115479
0.00115106
0.00114675
0.00114186
0.00113639
0.00113033
0.00112367
0.00111634
0.00116555
0.00116259
0.00115905
0.00115495
0.00115031
0.00114514
0.00113945
0.00113324
0.00112651
0.00111922
0.00116856
0.00116509
0.00116107
0.00115653
0.00115148
0.00114596
0.00113998
0.00113355
0.00112667
0.00111933
0.00116965
0.00116561
0.00116105
0.00115598
0.00115044
0.00114446
0.00113807
0.00113127
0.0011241
0.00111652
0.00116904
0.00116437
0.00115919
0.00115353
0.00114742
0.0011409
0.00113398
0.00112671
0.00111909
0.00111113
0.00116694
0.00116162
0.0011558
0.0011495
0.00114277
0.00113563
0.00112812
0.00112028
0.00111213
0.00110368
0.00116361
0.00115764
0.00115116
0.00114422
0.00113684
0.00112906
0.00112092
0.00111245
0.0011037
0.0010947
0.00115931
0.00115271
0.0011456
0.00113802
0.00113
0.00112158
0.0011128
0.00110369
0.0010943
0.00108469
0.00115429
0.0011471
0.0011394
0.00113122
0.00112259
0.00111355
0.00110414
0.00109438
0.00108435
0.00107409
0.00114877
0.00114105
0.00113281
0.00112408
0.00111489
0.00110527
0.00109525
0.00108486
0.00107417
0.00106322
0.00114297
0.00113477
0.00112605
0.00111683
0.00110713
0.00109698
0.00108639
0.00107541
0.00106408
0.00105245
0.00113707
0.00112846
0.00111931
0.00110966
0.0010995
0.00108887
0.00107777
0.00106624
0.00105431
0.00104203
0.00113127
0.0011223
0.00111279
0.00110275
0.00109218
0.0010811
0.00106952
0.00105747
0.00104497
0.00103206
0.0011258
0.00111656
0.00110676
0.00109638
0.00108545
0.00107395
0.00106191
0.00104935
0.00103629
0.00102278
0.00112095
0.00111157
0.00110159
0.001091
0.00107981
0.001068
0.00105558
0.00104258
0.00102903
0.00101498
0.00111701
0.00110766
0.0010977
0.00108711
0.00107588
0.00106398
0.00105143
0.00103824
0.00102444
0.00101006
0.0011141
0.001105
0.0010953
0.00108496
0.00107396
0.00106226
0.00104985
0.00103674
0.00102292
0.00100837
0.00111218
0.00110356
0.00109434
0.00108449
0.00107397
0.00106272
0.00105074
0.00103799
0.00102445
0.00101001
0.00111104
0.0011031
0.00109459
0.00108546
0.00107564
0.00106508
0.00105373
0.00104157
0.00102853
0.00101448
0.00111032
0.0011033
0.00109575
0.00108762
0.00107883
0.00106929
0.00105896
0.00104776
0.00103561
0.00102234
0.00110927
0.00110339
0.00109705
0.00109018
0.0010827
0.00107453
0.00106558
0.00105578
0.00104497
0.00103295
0.00110688
0.00110232
0.00109739
0.00109198
0.00108599
0.00107937
0.00107204
0.00106392
0.00105484
0.0010446
0.00110198
0.00109904
0.00109578
0.00109211
0.00108789
0.00108307
0.00107759
0.0010714
0.00106435
0.00105626
0.00109308
0.00109224
0.00109112
0.00108962
0.00108765
0.00108507
0.00108182
0.00107785
0.00107305
0.00106733
0.00107836
0.00108027
0.00108191
0.00108317
0.00108396
0.00108417
0.00108364
0.00108226
0.00107998
0.00107675
0.00105596
0.00106137
0.00106653
0.00107129
0.00107553
0.00107914
0.00108199
0.00108384
0.00108457
0.00108424
0.00102481
0.00103426
0.00104356
0.00105251
0.00106095
0.00106873
0.00107574
0.0010818
0.00108645
0.00108963
0.00098592
0.00099923
0.00101259
0.00102581
0.00103869
0.00105099
0.00106256
0.0010733
0.00108302
0.00109133
0.000943948
0.000959639
0.000975673
0.000991892
0.00100814
0.00102418
0.00103979
0.00105477
0.00106891
0.00108211
0.000907742
0.000923321
0.000939364
0.000955864
0.000972762
0.000989924
0.0010072
0.0010244
0.00104132
0.0010578
0.000887346
0.000900683
0.000914323
0.000928334
0.00094274
0.000957552
0.000972815
0.000988548
0.0010047
0.00102122
0.000888386
0.000898633
0.000908854
0.000919085
0.000929343
0.000939689
0.000950316
0.000961448
0.00097329
0.000986018
0.000908502
0.000915994
0.000923093
0.000929806
0.000936164
0.000942189
0.000947988
0.000953845
0.000960094
0.00096707
0.000939018
0.000944806
0.000949948
0.000954414
0.000958213
0.000961341
0.000963785
0.000965685
0.000967344
0.000969113
0.000969728
0.000974994
0.000979524
0.000983242
0.000986092
0.000988044
0.000989052
0.000989085
0.000988256
0.000986817
0.000992187
0.000997934
0.00100304
0.00100736
0.00101078
0.00101319
0.0010145
0.00101466
0.00101357
0.00101129
0.00100077
0.00100782
0.00101452
0.00102064
0.001026
0.00103041
0.00103371
0.00103574
0.00103637
0.00103549
0.000992649
0.0010017
0.00101086
0.00101983
0.00102836
0.00103617
0.00104302
0.00104864
0.00105282
0.00105527
0.000967525
0.000979019
0.00099124
0.00100389
0.00101657
0.00102892
0.00104062
0.00105129
0.00106056
0.00106803
0.000926826
0.000940968
0.000956506
0.00097315
0.000990551
0.00100826
0.00102577
0.00104261
0.00105828
0.00107222
0.000873121
0.000889758
0.000908463
0.000928989
0.000951057
0.000974314
0.000998251
0.00102212
0.00104529
0.00106704
0.000810143
0.000828637
0.000849867
0.000873659
0.000899843
0.000928195
0.000958357
0.000989703
0.0010212
0.00105196
0.000743193
0.000762403
0.00078503
0.000810984
0.000840243
0.000872763
0.000908369
0.000946664
0.000986813
0.00102742
0.000678951
0.000697318
0.000719841
0.000746474
0.000777358
0.000812679
0.000852496
0.000896612
0.000944472
0.00099474
0.00062393
0.000639617
0.000660312
0.00068587
0.000716555
0.000752817
0.000794994
0.000843089
0.000896668
0.000954781
0.000582398
0.000593558
0.000610743
0.000633476
0.000662003
0.000697051
0.000739318
0.000789061
0.000845948
0.000909145
0.000555257
0.000560409
0.000572747
0.00059137
0.000616233
0.000648238
0.000688546
0.000737829
0.000795969
0.000862226
0.000540389
0.000538484
0.000545155
0.000559131
0.000579718
0.000607686
0.000644658
0.00069189
0.000749658
0.000817438
0.000532593
0.000523742
0.000524727
0.000534344
0.00055099
0.000574889
0.000607943
0.000652047
0.00070796
0.000775312
0.000523179
0.000510559
0.000507402
0.000513855
0.000527653
0.000548248
0.000577604
0.000618179
0.000671124
0.000736105
0.000508941
0.000496226
0.000490911
0.000495567
0.000507723
0.00052608
0.000552523
0.000589841
0.000639342
0.000700871
0.000493533
0.000482554
0.000476007
0.000479323
0.000490363
0.000507197
0.000531492
0.00056634
0.000613027
0.000671134
0.000479822
0.000470791
0.000463046
0.000464914
0.000474932
0.000490708
0.000513673
0.000547098
0.000592057
0.000647558
0.000468247
0.000459615
0.000450738
0.000451374
0.000460646
0.000475809
0.000498203
0.00053129
0.000575743
0.000629665
0.000458912
0.000447764
0.000437856
0.000437754
0.000446759
0.000461806
0.000484352
0.000518159
0.000563415
0.000617285
0.000450482
0.000435679
0.000424463
0.000423781
0.000432883
0.000448242
0.000471573
0.000506956
0.00055398
0.000608912
0.000441812
0.000423718
0.000410726
0.000409327
0.000418769
0.000434841
0.000459569
0.000497213
0.000546527
0.000603005
0.000428769
0.000409973
0.000395812
0.000393885
0.000404049
0.000421362
0.000448236
0.000488822
0.000540664
0.000598683
0.000416882
0.000396675
0.000380601
0.00037757
0.00038852
0.000407586
0.000437543
0.000481933
0.000536483
0.000595411
0.000409042
0.000385793
0.000366184
0.000360642
0.000371932
0.000393168
0.000427366
0.00047679
0.000534752
0.000594598
0.000404355
0.000377192
0.000352669
0.0003429
0.00035371
0.000377464
0.000417172
0.00047299
0.00053534
0.000596646
0.000402365
0.000370776
0.00034022
0.000324253
0.000333255
0.000359738
0.000406278
0.000469937
0.000537834
0.000601344
0.000403251
0.000366834
0.00032926
0.000304914
0.000310069
0.000339231
0.000394037
0.00046743
0.000543113
0.000611326
0.000406923
0.000365313
0.000319987
0.000285281
0.000283827
0.00031512
0.000379365
0.000464282
0.000550574
0.000627521
0.000413008
0.000365569
0.000311956
0.00026567
0.000254573
0.000286797
0.000361047
0.000458496
0.00055802
0.00064896
0.000421335
0.000366698
0.000304209
0.000246213
0.000222977
0.000254216
0.000338237
0.000447713
0.000561545
0.000671766
0.000431706
0.000367329
0.000295359
0.000226893
0.000190533
0.000218099
0.000310988
0.000430194
0.000555895
0.000685458
0.00044238
0.000365215
0.000284079
0.000208018
0.000159511
0.000179672
0.000280034
0.000406215
0.000538576
0.000678583
0.000449439
0.00035814
0.000270389
0.000190936
0.000132525
0.000140381
0.000245426
0.000376884
0.00051278
0.000653745
0.000447934
0.000345488
0.000256477
0.00017771
0.000111415
0.000102566
0.000206566
0.000341441
0.000480541
0.000622078
0.000433031
0.000330555
0.000247326
0.000170118
9.59224e-05
6.98922e-05
0.000164236
0.00029912
0.000440576
0.000583813
0.000415541
0.000327783
0.000250373
0.000167805
8.33253e-05
4.54358e-05
0.000121753
0.000251974
0.000393775
0.000537863
0.000429573
0.000350709
0.000265089
0.000164675
6.97155e-05
3.01876e-05
8.38314e-05
0.000203274
0.000343256
0.000486131
0.000484563
0.000394486
0.000279269
0.000150854
5.29098e-05
2.2589e-05
5.462e-05
0.000156926
0.000293858
0.000433089
0.000586956
0.000444901
0.000272593
0.000117533
3.51216e-05
1.94461e-05
3.54051e-05
0.000116103
0.000252337
0.000388793
0.000739385
0.000453331
0.000212108
6.61004e-05
2.2492e-05
1.81652e-05
2.39294e-05
7.93701e-05
0.000222994
0.000387857
0.000700933
0.000288286
8.66934e-05
2.45797e-05
1.82604e-05
1.77673e-05
1.75624e-05
4.01276e-05
0.000169472
0.000500936
1.34518e-05
1.34143e-05
1.33798e-05
1.33488e-05
1.33211e-05
1.32967e-05
1.32751e-05
1.32562e-05
1.32403e-05
1.32296e-05
1.32327e-05
1.32369e-05
1.32392e-05
1.32382e-05
1.32328e-05
1.32216e-05
1.32031e-05
1.31758e-05
1.31381e-05
1.30882e-05
1.30244e-05
1.2945e-05
1.28487e-05
1.27348e-05
1.26049e-05
1.24563e-05
1.228e-05
1.207e-05
1.18202e-05
1.15245e-05
1.11767e-05
1.07694e-05
1.02972e-05
9.79599e-06
9.25323e-06
8.64655e-06
7.95329e-06
7.1469e-06
6.23899e-06
9.59151e-06
0.000124057
0.000123624
0.000123274
0.000123014
0.000122844
0.000122759
0.000122748
0.000122789
0.000122842
0.000122848
0.000122705
0.000122491
0.000122236
0.000121944
0.000121606
0.000121211
0.000120742
0.000120182
0.00011951
0.000118707
0.000117746
0.000116599
0.000115235
0.000113613
0.000111687
0.000109408
0.00010675
0.000103707
0.000100249
9.63526e-05
9.19801e-05
8.7059e-05
8.14132e-05
7.45662e-05
6.69385e-05
5.87057e-05
4.98932e-05
4.03249e-05
2.96636e-05
1.85641e-05
0.00024612
0.0002453
0.000244584
0.000243971
0.000243455
0.00024302
0.00024264
0.000242276
0.000241879
0.000241389
0.000240737
0.00023996
0.000239056
0.000238012
0.000236808
0.000235416
0.000233808
0.000231949
0.000229806
0.000227341
0.000224515
0.000221286
0.000217609
0.000213435
0.000208714
0.000203396
0.000197432
0.000190769
0.000183343
0.000175128
0.000166052
0.000156001
0.000144804
0.000132168
0.000118093
0.0001024
8.45528e-05
6.32316e-05
3.6264e-05
2.01627e-05
0.000354316
0.000353035
0.000351817
0.000350661
0.000349553
0.000348472
0.000347385
0.000346252
0.000345022
0.00034364
0.000342048
0.000340258
0.000338245
0.000335979
0.000333426
0.000330549
0.000327309
0.000323666
0.000319577
0.000315001
0.000309892
0.000304208
0.000297901
0.000290928
0.00028324
0.000274792
0.000265535
0.00025542
0.00024439
0.00023238
0.000219295
0.000204995
0.000189335
0.000172034
0.000152776
0.000131123
0.000106232
7.66164e-05
4.03151e-05
4.7534e-06
0.000449063
0.000447229
0.000445388
0.000443536
0.000441658
0.000439728
0.000437713
0.00043557
0.000433252
0.000430704
0.00042787
0.000424745
0.000421296
0.000417484
0.000413265
0.000408598
0.000403438
0.000397743
0.000391467
0.000384568
0.000377003
0.000368731
0.000359711
0.000349906
0.000339277
0.000327789
0.000315406
0.000302091
0.0002878
0.000272473
0.000256021
0.000238307
0.000219116
0.000198109
0.000174781
0.000148549
0.000118537
8.35302e-05
4.25361e-05
4.7727e-06
0.000532207
0.000529745
0.000527191
0.000524539
0.000521771
0.000518861
0.000515777
0.000512476
0.000508912
0.000505032
0.000500784
0.000496127
0.000491051
0.000485508
0.000479453
0.00047284
0.000465623
0.000457759
0.000449205
0.000439919
0.000429862
0.000418999
0.000407295
0.000394723
0.000381254
0.000366869
0.000351549
0.000335277
0.00031803
0.000299775
0.000280445
0.000259912
0.000237939
0.000214111
0.000187793
0.000158218
0.000124544
8.59758e-05
4.26584e-05
4.89312e-06
0.000605433
0.00060229
0.000598963
0.000595443
0.000591714
0.000587748
0.000583514
0.00057897
0.000574073
0.000568773
0.000563017
0.000556749
0.000549964
0.000542618
0.000534665
0.000526059
0.000516756
0.000506714
0.000495893
0.000484254
0.000471763
0.000458389
0.000444106
0.000428891
0.000412731
0.000395615
0.000377543
0.000358518
0.000338549
0.000317638
0.000295771
0.000272881
0.000248793
0.000223114
0.000195069
0.000163678
0.000128102
8.77561e-05
4.32753e-05
5.00092e-06
0.000670151
0.000666294
0.000662159
0.000657736
0.000653008
0.00064795
0.000642529
0.000636709
0.000630447
0.000623696
0.000616406
0.000608527
0.000600021
0.000590871
0.000581033
0.000570464
0.000559121
0.000546966
0.000533961
0.000520074
0.000505273
0.000489533
0.000472832
0.000455155
0.000436492
0.000416843
0.000396215
0.000374628
0.00035211
0.0003287
0.000304444
0.000279379
0.000253495
0.000226645
0.000198284
0.000167293
0.000132513
9.29452e-05
4.7988e-05
5.22835e-06
0.000727533
0.000722945
0.000717987
0.000712648
0.000706911
0.000700752
0.000694143
0.000687047
0.000679424
0.000671234
0.000662428
0.000652962
0.000642785
0.000631888
0.000620233
0.000607781
0.000594496
0.000580343
0.000565291
0.00054931
0.000532375
0.000514466
0.000495564
0.000475657
0.00045474
0.000432814
0.000409888
0.000385983
0.00036113
0.00033538
0.0003088
0.000281484
0.000253545
0.000225085
0.00019601
0.000165642
0.000132335
9.41645e-05
4.91329e-05
5.41632e-06
0.000778551
0.00077323
0.000767449
0.000761198
0.000754461
0.000747216
0.000739435
0.000731087
0.000722137
0.000712545
0.000702271
0.000691275
0.000679515
0.000666951
0.000653575
0.000639354
0.000624257
0.000608257
0.000591327
0.000573445
0.000554591
0.000534751
0.000513912
0.000492066
0.000469212
0.000445351
0.000420493
0.000394657
0.00036787
0.000340177
0.000311643
0.000282356
0.000252434
0.000221993
0.000191028
0.000159071
0.000125185
8.76996e-05
4.50766e-05
5.26423e-06
0.00082402
0.000817974
0.000811383
0.000804237
0.000796521
0.000788216
0.000779298
0.000769739
0.000759507
0.000748569
0.00073689
0.000724436
0.00071117
0.000697058
0.000682083
0.000666229
0.000649473
0.000631794
0.000613177
0.000593607
0.000573073
0.000551567
0.000529086
0.00050563
0.000481202
0.000455812
0.000429475
0.000402214
0.000374062
0.000345067
0.000315293
0.000284827
0.000253776
0.000222231
0.00019017
0.000157302
0.000122967
8.59745e-05
4.48389e-05
5.3327e-06
0.000864624
0.00085787
0.000850489
0.000842473
0.000833809
0.000824481
0.000814468
0.000803746
0.000792289
0.00078007
0.000767061
0.000753232
0.000738558
0.00072301
0.000706566
0.000689223
0.000670968
0.00065179
0.000631684
0.000610646
0.000588675
0.000565773
0.000541947
0.000517208
0.00049157
0.000465052
0.000437677
0.000409478
0.000380491
0.000350764
0.000320352
0.000289312
0.000257697
0.000225511
0.000192654
0.000158827
0.000123453
8.56171e-05
4.42809e-05
5.44544e-06
0.000900938
0.000893499
0.000885356
0.000876502
0.000866928
0.000856618
0.000845558
0.000833728
0.000821109
0.000807679
0.000793417
0.000778304
0.000762319
0.000745445
0.000727668
0.000708981
0.000689388
0.000668888
0.000647488
0.000625194
0.000602016
0.00057797
0.000553072
0.000527343
0.000500808
0.000473495
0.000445435
0.000416663
0.000387216
0.000357129
0.000326433
0.000295143
0.000263242
0.000230651
0.000197185
0.000162499
0.000126031
8.69729e-05
4.46069e-05
5.64208e-06
0.00093345
0.000925356
0.000916484
0.000906829
0.000896385
0.00088514
0.000873084
0.000860204
0.000846486
0.000831917
0.000816484
0.000800176
0.000782982
0.000764894
0.000745908
0.000726021
0.000705245
0.000683592
0.000661079
0.000637723
0.000613547
0.000588573
0.00056283
0.000536345
0.000509151
0.000481281
0.000452768
0.000423646
0.000393941
0.000363672
0.000332843
0.000301425
0.000269347
0.000236468
0.000202544
0.000167184
0.000129796
8.95472e-05
4.57723e-05
5.85752e-06
0.000962574
0.000953861
0.000944299
0.000933886
0.000922616
0.000910484
0.000897485
0.000883613
0.000868861
0.000853227
0.000836704
0.000819293
0.00080099
0.0007818
0.000761725
0.000740775
0.000718962
0.000696312
0.000672849
0.000648603
0.000623603
0.000597879
0.000571464
0.000544394
0.000516701
0.000488418
0.000459578
0.000430205
0.000400315
0.000369908
0.000338962
0.000307418
0.000275167
0.000242024
0.000207704
0.000171778
0.000133622
9.23769e-05
4.73298e-05
6.06365e-06
0.000988666
0.00097938
0.000969174
0.000958046
0.000945996
0.000933026
0.000919136
0.000904331
0.000888613
0.000871987
0.000854459
0.000836036
0.000816728
0.000796546
0.000775503
0.000753615
0.000730903
0.000707397
0.000683132
0.000658142
0.000632462
0.000606126
0.00057917
0.000551627
0.00052353
0.000494908
0.000465787
0.000436181
0.000406097
0.000375519
0.000344407
0.000312683
0.000280213
0.000246791
0.000212104
0.000175688
0.000136876
9.47451e-05
4.85326e-05
6.23998e-06
0.00101204
0.00100223
0.000991434
0.000979637
0.000966852
0.000953089
0.000938362
0.000922683
0.000906067
0.000888528
0.000870082
0.000850746
0.000830537
0.000809476
0.000787583
0.000764883
0.0007414
0.000717171
0.000692234
0.000666628
0.000640387
0.000613548
0.000586144
0.000558203
0.000529755
0.000500821
0.000471419
0.000441555
0.000411227
0.00038041
0.000349055
0.000317075
0.000284332
0.000250609
0.000215581
0.000178762
0.00013944
9.6609e-05
4.94405e-05
6.39217e-06
0.00103294
0.00102269
0.00101136
0.000998936
0.000985458
0.000970949
0.000955438
0.00093895
0.000921511
0.000903144
0.000883875
0.000863729
0.000842732
0.00082091
0.00079829
0.000774901
0.000750774
0.000725946
0.000700459
0.000674351
0.000647657
0.000620406
0.000592628
0.000564345
0.000535577
0.000506337
0.000476636
0.000446472
0.000415837
0.000384704
0.000353022
0.00032071
0.000287632
0.000253582
0.000218234
0.00018109
0.000141391
9.80548e-05
5.0183e-05
6.52971e-06
0.00105156
0.00104098
0.00102917
0.00101617
0.00100204
0.000986835
0.000970602
0.000953378
0.000935201
0.000916103
0.000896116
0.000875274
0.000853608
0.000831149
0.000807929
0.000783979
0.000759333
0.000734032
0.000708116
0.00068162
0.000654573
0.000627001
0.000598922
0.00057035
0.000541295
0.000511761
0.000481747
0.000451247
0.00042025
0.00038873
0.000356644
0.000323921
0.000290447
0.000256038
0.000220386
0.000182983
0.000143025
9.93315e-05
5.0874e-05
6.66053e-06
0.00106799
0.00105722
0.00104503
0.0010315
0.00101677
0.00100094
0.000984069
0.000966199
0.000947381
0.000927658
0.000907069
0.000885652
0.000863443
0.000840477
0.000816788
0.00079241
0.000767376
0.000741732
0.000715512
0.000688748
0.000661461
0.000633668
0.000605377
0.00057659
0.000547305
0.000517511
0.000487199
0.000456355
0.000424966
0.000393012
0.000360459
0.000327255
0.00029332
0.000258512
0.000222556
0.000184944
0.000144796
0.000100752
5.1558e-05
6.79734e-06
0.00108203
0.00107121
0.00105884
0.00104495
0.00102977
0.00101344
0.000996035
0.000977629
0.00095828
0.000938046
0.000916974
0.000895107
0.000872485
0.000849144
0.000825119
0.000800446
0.000775164
0.000749315
0.00072293
0.000696032
0.000668637
0.000640748
0.000612365
0.000583475
0.00055406
0.000524095
0.000493553
0.00046241
0.000430649
0.000398257
0.00036521
0.000331475
0.000297015
0.000261749
0.000225454
0.000187631
0.000147316
0.000102913
5.27313e-05
6.96276e-06
0.00109363
0.00108287
0.00107031
0.00105635
0.001041
0.00102439
0.00100663
0.000987816
0.00096806
0.000947434
0.000926001
0.00090381
0.000880904
0.00085732
0.000833096
0.000808265
0.000782878
0.000756972
0.000730573
0.000703697
0.00067635
0.000648529
0.000620217
0.00059139
0.000562016
0.000532048
0.000501435
0.000470129
0.000438103
0.000405347
0.000371847
0.000337582
0.000302554
0.000266755
0.000230009
0.00019182
0.000151229
0.000106456
5.51183e-05
7.17559e-06
0.00110235
0.00109198
0.00107972
0.00106611
0.00105081
0.00103399
0.00101594
0.000996814
0.000976756
0.000955858
0.000934189
0.000911803
0.000888742
0.000865045
0.000840752
0.000815901
0.000790556
0.000764748
0.000738497
0.000711819
0.000684712
0.000657163
0.000629138
0.000600601
0.000571525
0.000541836
0.000511447
0.000480271
0.000448241
0.000415327
0.00038152
0.000346834
0.000311281
0.000274841
0.000237332
0.000198311
0.00015688
0.000111267
5.87187e-05
7.44637e-06
0.00110781
0.00109768
0.00108601
0.00107262
0.00105785
0.00104126
0.00102326
0.00100413
0.000984024
0.000963071
0.000941351
0.000918925
0.000895845
0.000872163
0.000847923
0.000823192
0.000798032
0.000772476
0.000746531
0.000720249
0.000693617
0.000666612
0.000639197
0.000611324
0.000582923
0.000553895
0.000524116
0.000493456
0.000461813
0.000429123
0.00039535
0.000360463
0.000324454
0.000287267
0.000248697
0.000208277
0.000165111
0.000117419
6.21815e-05
7.72578e-06
0.00111083
0.00110102
0.00108993
0.00107688
0.0010622
0.00104609
0.00102842
0.00100954
0.000989644
0.00096885
0.000947246
0.000924911
0.000901921
0.000878348
0.000854244
0.000829731
0.000804893
0.000779779
0.000754417
0.000728818
0.000702967
0.000676837
0.000650387
0.00062356
0.000596267
0.000568368
0.000539684
0.000510037
0.000479266
0.000447249
0.000413899
0.000379133
0.000342847
0.000304917
0.000265085
0.00022285
0.000177265
0.000126427
6.70314e-05
8.07629e-06
0.00111101
0.00110141
0.00109079
0.0010786
0.00106427
0.00104888
0.0010319
0.00101338
0.000993758
0.000973174
0.00095172
0.000929486
0.000906578
0.000883117
0.000859263
0.000835114
0.000810758
0.000786272
0.000761697
0.000737044
0.000712289
0.00068739
0.000662298
0.000636949
0.00061123
0.000584953
0.000557879
0.000529769
0.000500398
0.000469565
0.00043711
0.000402861
0.000366623
0.000328166
0.000287117
0.000242865
0.000194306
0.000139266
7.39401e-05
8.63536e-06
0.00110804
0.0010984
0.00108795
0.00107636
0.00106301
0.00104829
0.00103262
0.00101512
0.000996016
0.00097572
0.00095441
0.000932259
0.000909426
0.000886128
0.000862553
0.000838835
0.000815084
0.000791399
0.000767834
0.000744399
0.000721063
0.000697757
0.0006744
0.000650918
0.000627166
0.000602909
0.000577855
0.000551714
0.000524196
0.000495052
0.000464036
0.00043086
0.000395189
0.000356629
0.000314641
0.000268401
0.000216494
0.000156234
8.30798e-05
9.4159e-06
0.00110234
0.0010925
0.00108208
0.00107088
0.00105846
0.00104458
0.00102999
0.00101404
0.00099588
0.000975988
0.000954836
0.00093273
0.000909954
0.00088686
0.000863648
0.000840484
0.000817506
0.000794825
0.000772507
0.000750564
0.000728949
0.000707547
0.000686231
0.000664869
0.000643296
0.000621268
0.000598475
0.000574576
0.000549261
0.000522219
0.000493113
0.000461546
0.000427029
0.000388957
0.000346523
0.00029855
0.000243108
0.000176737
9.40068e-05
1.03843e-05
0.00109445
0.00108429
0.00107373
0.00106268
0.00105087
0.00103801
0.00102453
0.00100999
0.000993017
0.000973509
0.000952449
0.000930374
0.000907798
0.00088505
0.000862384
0.000839992
0.000818034
0.000796626
0.000775834
0.00075564
0.00073594
0.000716572
0.000697351
0.000678114
0.000658681
0.000638836
0.000618287
0.000596714
0.00057378
0.000549122
0.000522328
0.000492882
0.000460129
0.000423208
0.000380957
0.000331698
0.000272785
0.000199771
0.000106281
1.14746e-05
0.00108495
0.00107436
0.00106356
0.00105254
0.00104115
0.00102922
0.00101695
0.0010035
0.00098705
0.000967701
0.000946742
0.000924963
0.000902841
0.000880747
0.000858962
0.000837697
0.000817116
0.000797332
0.000778348
0.000760068
0.000742312
0.000724866
0.000707532
0.00069014
0.000672548
0.000654574
0.000635988
0.000616525
0.000595869
0.00057364
0.00054936
0.000522411
0.000491956
0.000456858
0.00041554
0.00036569
0.000303759
0.000224166
0.00011961
1.26957e-05
0.00107436
0.00106326
0.0010521
0.00104097
0.00102986
0.00101874
0.0010074
0.000994092
0.000977357
0.000958159
0.000937641
0.00091655
0.000895342
0.000874398
0.000854007
0.000834378
0.000815629
0.000797786
0.00078077
0.000764396
0.000748432
0.000732651
0.000716863
0.000700914
0.000684682
0.000668057
0.000650907
0.00063306
0.000614266
0.00059416
0.000572233
0.00054778
0.000519784
0.000486818
0.000446929
0.000397086
0.000332623
0.000246629
0.000131218
1.41649e-05
0.0010631
0.00105136
0.00103969
0.00102825
0.00101718
0.00100646
0.000995016
0.000980841
0.000963894
0.000945193
0.000925644
0.000905792
0.00088608
0.000866869
0.000848431
0.000830915
0.000814339
0.000798613
0.000783572
0.000769001
0.000754663
0.00074031
0.000725724
0.000710754
0.000695322
0.000679407
0.00066301
0.000646098
0.000628522
0.000609932
0.000589764
0.000567201
0.00054106
0.0005102
0.000472401
0.000423843
0.000358504
0.000267729
0.000142444
1.55872e-05
0.00105151
0.00103899
0.0010266
0.00101455
0.00100303
0.000991801
0.000979213
0.000964239
0.000947545
0.000929901
0.000911807
0.000893714
0.000876009
0.000859009
0.000842907
0.00082775
0.000813472
0.000799912
0.000786869
0.000774088
0.000761264
0.000748098
0.000734348
0.000719877
0.000704675
0.000688846
0.000672571
0.000655995
0.000639072
0.000621402
0.000602193
0.000580295
0.000555092
0.000525822
0.000490368
0.000444342
0.000380231
0.000287045
0.000153461
1.69806e-05
0.00103995
0.00102655
0.00101326
0.00100039
0.000988063
0.00097532
0.000961329
0.000946121
0.000930129
0.000913781
0.00089742
0.000881378
0.000865948
0.000851347
0.000837672
0.000824894
0.000812921
0.000801565
0.000790522
0.000779422
0.000767879
0.000755544
0.000742183
0.00072772
0.000712271
0.000696114
0.000679634
0.000663215
0.000646925
0.000630215
0.000611717
0.000589601
0.000564166
0.000535304
0.000501429
0.000458124
0.000396715
0.000303535
0.000163823
1.8279e-05
0.00102876