/*--------------------------------*- C++ -*----------------------------------*\
  =========                 |
  \\      /  F ield         | OpenFOAM: The Open Source CFD Toolbox
   \\    /   O peration     | Website:  https://openfoam.org
    \\  /    A nd           | Version:  8
     \\/     M anipulation  |
\*---------------------------------------------------------------------------*/
FoamFile
{
    version     2.0;
    format      ascii;
    class       surfaceScalarField;
    location    "2.65";
    object      phi;
}
// * * * * * * * * * * * * * * * * * * * * * * * * * * * * * * * * * * * * * //

dimensions      [0 3 -1 0 0 0 0];

internalField   nonuniform List<scalar> 
18095
(
1.58322e-07
-9.65708e-07
8.07385e-07
1.65269e-07
-1.24818e-06
1.24123e-06
1.22111e-07
-1.24223e-06
1.28539e-06
6.52447e-08
-1.26349e-06
1.32036e-06
-6.21824e-11
-1.28047e-06
1.34578e-06
-6.53579e-08
-1.28046e-06
1.34576e-06
-1.22197e-07
-1.26346e-06
1.3203e-06
-1.65325e-07
-1.2422e-06
1.28533e-06
-1.58346e-07
-1.24815e-06
1.24117e-06
-9.65638e-07
8.07292e-07
1.10974e-07
-1.07668e-06
9.93415e-08
-1.23655e-06
7.28002e-08
-1.21569e-06
3.99838e-08
-1.23067e-06
-4.1057e-11
-1.24045e-06
-4.00598e-08
-1.24044e-06
-7.28607e-08
-1.23066e-06
-9.93878e-08
-1.21567e-06
-1.11e-07
-1.23654e-06
-1.07664e-06
6.7104e-08
-1.14379e-06
5.27073e-08
-1.22215e-06
4.20988e-08
-1.20508e-06
2.38246e-08
-1.2124e-06
-2.54592e-11
-1.2166e-06
-2.38723e-08
-1.2166e-06
-4.21375e-08
-1.21239e-06
-5.27374e-08
-1.20507e-06
-6.71267e-08
-1.22215e-06
-1.14376e-06
3.9588e-08
-1.18337e-06
2.66015e-08
-1.20917e-06
2.19915e-08
-1.20047e-06
1.25056e-08
-1.20291e-06
-1.37763e-11
-1.20408e-06
-1.25317e-08
-1.20408e-06
-2.20132e-08
-1.20291e-06
-2.6618e-08
-1.20047e-06
-3.9603e-08
-1.20917e-06
-1.18337e-06
1.66261e-08
7.46032e-09
6.98839e-09
4.07389e-09
-4.33533e-12
-4.08218e-09
-6.99526e-09
-7.46513e-09
-1.66322e-08
-1.75492e-07
-1.1645e-06
1.33999e-06
-2.19578e-07
-1.21669e-06
1.26078e-06
-1.65803e-07
-1.21301e-06
1.15923e-06
-8.78808e-08
-1.2042e-06
1.12628e-06
-6.90832e-10
-1.20261e-06
1.11542e-06
8.65264e-08
-1.20251e-06
1.11529e-06
1.64584e-07
-1.20392e-06
1.12586e-06
2.18463e-07
-1.21261e-06
1.15873e-06
1.7445e-07
-1.21612e-06
1.26013e-06
-1.16383e-06
1.33828e-06
-9.32583e-08
-1.07124e-06
-9.60197e-08
-1.21393e-06
-7.9646e-08
-1.22938e-06
-4.4617e-08
-1.23923e-06
-3.90931e-10
-1.24684e-06
4.38668e-08
-1.24677e-06
7.89742e-08
-1.23903e-06
9.54655e-08
-1.2291e-06
9.2942e-08
-1.21359e-06
-1.07089e-06
-5.80046e-08
-1.01324e-06
-5.53152e-08
-1.21662e-06
-4.67194e-08
-1.23798e-06
-2.73592e-08
-1.25859e-06
-2.35435e-10
-1.27396e-06
2.69107e-08
-1.27391e-06
4.63344e-08
-1.25845e-06
5.50336e-08
-1.2378e-06
5.78676e-08
-1.21643e-06
-1.01302e-06
-7.47344e-08
-9.38505e-07
-6.19709e-08
-1.22938e-06
-4.86793e-08
-1.25127e-06
-2.79119e-08
-1.27936e-06
-1.4592e-10
-1.30173e-06
2.76361e-08
-1.30169e-06
4.84499e-08
-1.27927e-06
6.18159e-08
-1.25116e-06
7.46624e-08
-1.22927e-06
-9.3836e-07
-1.31119e-07
-1.19268e-07
-8.51479e-08
-4.41457e-08
-9.43086e-11
4.39686e-08
8.50029e-08
1.19168e-07
1.31068e-07
-5.88772e-08
-9.46829e-07
1.00571e-06
-4.02133e-09
-1.34211e-06
1.28726e-06
5.08222e-09
-1.2727e-06
1.2636e-06
-9.08693e-10
-1.22611e-06
1.2321e-06
-5.6557e-09
-1.22415e-06
1.2289e-06
-1.06051e-08
-1.22331e-06
1.22826e-06
-1.58634e-08
-1.22632e-06
1.23158e-06
-1.10006e-08
-1.27468e-06
1.26982e-06
3.71473e-08
-1.33956e-06
1.29142e-06
-9.2421e-07
9.61357e-07
6.19104e-09
-9.53021e-07
1.26249e-08
-1.34855e-06
7.97782e-09
-1.26806e-06
2.00241e-09
-1.22014e-06
-4.43226e-09
-1.21771e-06
-1.0698e-08
-1.21704e-06
-1.66767e-08
-1.22034e-06
-2.38289e-08
-1.26753e-06
-1.63335e-08
-1.34706e-06
-9.40543e-07
2.53746e-08
-9.78395e-07
1.63783e-08
-1.33955e-06
7.93556e-09
-1.25961e-06
3.60037e-09
-1.2158e-06
-2.85274e-09
-1.21126e-06
-8.80702e-09
-1.21109e-06
-1.34912e-08
-1.21566e-06
-2.19539e-08
-1.25906e-06
-3.05697e-08
-1.33844e-06
-9.71113e-07
7.71882e-08
-1.05558e-06
5.02346e-08
-1.3126e-06
3.15273e-08
-1.24091e-06
1.90526e-08
-1.20333e-06
-1.79498e-09
-1.19041e-06
-2.25979e-08
-1.19029e-06
-3.55342e-08
-1.20272e-06
-5.44971e-08
-1.2401e-06
-8.08289e-08
-1.31211e-06
-1.05194e-06
2.8441e-07
2.32588e-07
1.50913e-07
7.38619e-08
-1.13042e-09
-7.61259e-08
-1.52984e-07
-2.34358e-07
-2.8634e-07
-2.63243e-08
2.68233e-10
2.60561e-08
-2.67575e-08
4.32576e-10
-2.73591e-08
6.01787e-10
-2.81316e-08
7.72684e-10
-2.90715e-08
9.40254e-10
-3.01711e-08
1.10003e-09
-3.1418e-08
1.24735e-09
-3.27963e-08
1.37881e-09
-3.42841e-08
1.48831e-09
1.57268e-09
-3.58563e-08
-2.99703e-08
7.94016e-10
2.94444e-08
-3.0621e-08
1.08261e-09
-3.13968e-08
1.37698e-09
-3.22947e-08
1.66985e-09
-3.33091e-08
1.95388e-09
-3.44311e-08
2.2211e-09
-3.56484e-08
2.46374e-09
-3.69452e-08
2.67467e-09
-3.83035e-08
2.84559e-09
2.96882e-09
-3.97006e-08
-3.10745e-08
1.43011e-09
3.04384e-08
-3.18092e-08
1.81774e-09
-3.2642e-08
2.20997e-09
-3.35693e-08
2.59754e-09
-3.45856e-08
2.97069e-09
-3.56832e-08
3.31921e-09
-3.68519e-08
3.63292e-09
-3.80787e-08
3.90186e-09
-3.93487e-08
4.1159e-09
4.26542e-09
-4.06451e-08
-3.12766e-08
2.14273e-09
3.05639e-08
-3.20744e-08
2.6151e-09
-3.29557e-08
3.09101e-09
-3.39177e-08
3.55933e-09
-3.49555e-08
4.00825e-09
-3.60623e-08
4.42586e-09
-3.72297e-08
4.80013e-09
-3.84472e-08
5.11906e-09
-3.97025e-08
5.37095e-09
5.54463e-09
-4.09821e-08
-3.08933e-08
2.91664e-09
3.01194e-08
-3.17465e-08
3.46839e-09
-3.26779e-08
4.02258e-09
-3.36852e-08
4.56673e-09
-3.47644e-08
5.08764e-09
-3.591e-08
5.57165e-09
-3.71147e-08
6.00503e-09
-3.83696e-08
6.37415e-09
-3.96644e-08
6.66584e-09
6.86756e-09
-4.09873e-08
-3.00451e-08
3.74058e-09
2.92211e-08
-3.09489e-08
4.37203e-09
-3.19321e-08
5.00579e-09
-3.29934e-08
5.62804e-09
-3.41297e-08
6.22406e-09
-3.53367e-08
6.77868e-09
-3.66082e-08
7.27649e-09
-3.79363e-08
7.70227e-09
-3.93118e-08
8.04128e-09
8.27957e-09
-4.07239e-08
-2.88017e-08
4.60397e-09
2.79383e-08
-2.97501e-08
5.32028e-09
-3.07843e-08
6.04006e-09
-3.19043e-08
6.74807e-09
-3.31082e-08
7.42807e-09
-3.43927e-08
8.06319e-09
-3.57523e-08
8.63625e-09
-3.71802e-08
9.1302e-09
-3.86675e-08
9.52853e-09
9.81567e-09
-4.02037e-08
-2.72127e-08
5.49407e-09
2.63225e-08
-2.81965e-08
6.30412e-09
-2.92769e-08
7.1205e-09
-3.04553e-08
7.92645e-09
-3.17313e-08
8.70402e-09
-3.31026e-08
9.43443e-09
-3.45649e-08
1.00984e-08
-3.61115e-08
1.06766e-08
-3.77336e-08
1.11505e-08
1.15023e-08
-3.94203e-08
-2.53189e-08
6.39437e-09
2.44186e-08
-2.63246e-08
7.30996e-09
-2.74411e-08
8.23696e-09
-2.86717e-08
9.15699e-09
-3.00179e-08
1.00501e-08
-3.14788e-08
1.08953e-08
-3.30511e-08
1.16705e-08
-3.47284e-08
1.23537e-08
-3.65015e-08
1.29234e-08
1.33593e-08
-3.83587e-08
-2.31587e-08
7.28321e-09
2.22699e-08
-2.41668e-08
8.31834e-09
-2.53027e-08
9.3728e-09
-2.65722e-08
1.04265e-08
-2.79794e-08
1.14572e-08
-2.95255e-08
1.24412e-08
-3.12088e-08
1.33535e-08
-3.3023e-08
1.41677e-08
-3.49584e-08
1.48586e-08
1.54016e-08
-3.70008e-08
-2.07715e-08
8.1327e-09
1.99221e-08
-2.17558e-08
9.30275e-09
-2.28867e-08
1.05037e-08
-2.41738e-08
1.17135e-08
-2.56242e-08
1.29076e-08
-2.72423e-08
1.40593e-08
-2.90291e-08
1.51402e-08
-3.09802e-08
1.61188e-08
-3.30839e-08
1.69621e-08
1.76415e-08
-3.5324e-08
-1.82036e-08
8.90819e-09
1.74282e-08
-1.91298e-08
1.02292e-08
-2.02232e-08
1.15971e-08
-2.14978e-08
1.29881e-08
-2.29652e-08
1.43749e-08
-2.46336e-08
1.57276e-08
-2.65069e-08
1.70133e-08
-2.85868e-08
1.81987e-08
-3.08611e-08
1.92365e-08
2.00899e-08
-3.33094e-08
-1.5511e-08
9.56781e-09
1.48514e-08
-1.63369e-08
1.10552e-08
-1.7351e-08
1.26112e-08
-1.8573e-08
1.421e-08
-2.00201e-08
1.5822e-08
-2.17059e-08
1.74133e-08
-2.36395e-08
1.89469e-08
-2.58232e-08
2.03824e-08
-2.82705e-08
2.16838e-08
2.2756e-08
-3.09366e-08
-1.27653e-08
1.00625e-08
1.22707e-08
-1.34398e-08
1.17299e-08
-1.43231e-08
1.34944e-08
-1.54421e-08
1.5329e-08
-1.68216e-08
1.72012e-08
-1.84819e-08
1.90735e-08
-2.04386e-08
2.09035e-08
-2.27012e-08
2.2645e-08
-2.52673e-08
2.425e-08
2.56749e-08
-2.81862e-08
-1.00586e-08
1.03364e-08
9.78478e-09
-1.0522e-08
1.21933e-08
-1.12123e-08
1.41846e-08
-1.21669e-08
1.62834e-08
-1.34214e-08
1.84556e-08
-1.50078e-08
2.066e-08
-1.69518e-08
2.28476e-08
-1.92695e-08
2.49627e-08
-2.19623e-08
2.69428e-08
2.87566e-08
-2.5044e-08
-7.50909e-09
1.03275e-08
7.51804e-09
-7.69017e-09
1.23743e-08
-8.10875e-09
1.4603e-08
-8.81496e-09
1.69894e-08
-9.86045e-09
1.9501e-08
-1.1296e-08
2.20954e-08
-1.31674e-08
2.4719e-08
-1.551e-08
2.73055e-08
-1.83423e-08
2.97752e-08
3.20394e-08
-2.1625e-08
-5.27405e-09
9.97189e-09
5.62964e-09
-5.09155e-09
1.21916e-08
-5.13699e-09
1.46484e-08
-5.47184e-09
1.73242e-08
-6.16313e-09
2.01923e-08
-7.28179e-09
2.32141e-08
-8.89913e-09
2.63363e-08
-1.10804e-08
2.94867e-08
-1.38748e-08
3.25696e-08
3.54703e-08
-1.73058e-08
-3.59181e-09
9.22618e-09
4.33744e-09
-2.98156e-09
1.15812e-08
-2.56534e-09
1.42321e-08
-2.41193e-09
1.71708e-08
-2.60108e-09
2.03814e-08
-3.22419e-09
2.38371e-08
-4.38402e-09
2.74961e-08
-6.19201e-09
3.12947e-08
-8.7606e-09
3.51381e-08
3.89071e-08
-1.21975e-08
-2.76248e-09
8.08943e-09
3.89916e-09
-1.7055e-09
1.05243e-08
-7.85085e-10
1.33117e-08
-7.07087e-11
1.64564e-08
3.52146e-10
1.99585e-08
3.77816e-10
2.38115e-08
-1.24716e-10
2.79987e-08
-1.31803e-09
3.2488e-08
-3.39946e-09
3.72196e-08
4.20937e-08
-6.58609e-09
-3.08608e-09
6.61415e-09
4.56139e-09
-1.62271e-09
9.06129e-09
-2.18361e-10
1.19074e-08
1.06901e-09
1.51689e-08
2.16609e-09
1.88613e-08
2.97962e-09
2.29978e-08
3.38853e-09
2.75897e-08
3.2304e-09
3.26461e-08
2.27797e-09
3.8172e-08
4.41599e-08
2.11794e-10
-4.81045e-09
4.91464e-09
6.51009e-09
-3.06134e-09
7.3124e-09
-1.29814e-09
1.01442e-08
4.35087e-10
1.34357e-08
2.08248e-09
1.72139e-08
3.57334e-09
2.15069e-08
4.81827e-09
2.63446e-08
5.70257e-09
3.17617e-08
6.06545e-09
3.78089e-08
4.45529e-08
5.67227e-09
-8.04991e-09
3.15171e-09
9.81294e-09
-6.20325e-09
5.46576e-09
-4.30761e-09
8.24842e-09
-2.40961e-09
1.15376e-08
-5.73465e-10
1.53777e-08
1.11178e-09
1.98216e-08
2.52196e-09
2.49344e-08
3.48665e-09
3.07968e-08
3.78569e-09
3.75097e-08
4.52112e-08
3.12727e-09
-1.24865e-08
1.40155e-09
1.42367e-08
-1.05946e-08
3.57369e-09
-8.5715e-09
6.22518e-09
-6.42812e-09
9.39417e-09
-4.17383e-09
1.31233e-08
-1.81273e-09
1.74604e-08
6.63032e-10
2.24585e-08
3.28335e-09
2.81764e-08
6.11106e-09
3.4682e-08
4.20558e-08
9.26637e-09
-1.81027e-08
-1.91629e-10
1.96958e-08
-1.63471e-08
1.81793e-09
-1.44351e-08
4.31317e-09
-1.23741e-08
7.3331e-09
-1.01726e-08
1.09217e-08
-7.8411e-09
1.51287e-08
-5.3939e-09
2.00111e-08
-2.85312e-09
2.56355e-08
-2.52236e-10
3.2081e-08
3.94478e-08
2.35583e-09
-2.44847e-08
-1.55009e-09
2.58431e-08
-2.2954e-08
2.87028e-10
-2.12522e-08
2.61132e-09
-1.93815e-08
5.46231e-09
-1.73456e-08
8.88581e-09
-1.5152e-08
1.2935e-08
-1.28136e-08
1.76725e-08
-1.03511e-08
2.31729e-08
-7.79497e-09
2.95248e-08
3.68347e-08
-5.18193e-09
-3.12378e-08
-2.63524e-09
3.23228e-08
-2.9974e-08
-9.76937e-10
-2.85219e-08
1.15896e-09
-2.68677e-08
3.80795e-09
-2.49932e-08
7.01121e-09
-2.28744e-08
1.0816e-08
-2.04792e-08
1.52771e-08
-1.7764e-08
2.04576e-08
-1.46686e-08
2.64291e-08
3.327e-08
-1.11041e-08
-3.8022e-08
-3.40914e-09
3.87958e-08
-3.70827e-08
-1.91651e-09
-3.59611e-08
3.725e-11
-3.46342e-08
2.48095e-09
-3.30713e-08
5.44814e-09
-3.12325e-08
8.9771e-09
-2.90673e-08
1.31117e-08
-2.65122e-08
1.79024e-08
-2.34897e-08
2.34065e-08
2.96885e-08
-1.99083e-08
-4.44171e-08
-3.85476e-09
4.48626e-08
-4.38392e-08
-2.49458e-09
-4.31096e-08
-6.92334e-10
-4.22017e-08
1.57312e-09
-4.10806e-08
4.32704e-09
-3.97022e-08
7.5985e-09
-3.80121e-08
1.14215e-08
-3.59462e-08
1.58363e-08
-3.34307e-08
2.08909e-08
2.66427e-08
-3.0385e-08
-4.99745e-08
-3.98135e-09
5.0101e-08
-4.97649e-08
-2.70402e-09
-4.94541e-08
-1.00308e-09
-4.90159e-08
1.13502e-09
-4.84162e-08
3.72735e-09
-4.76119e-08
6.79417e-09
-4.65508e-08
1.03604e-08
-4.5172e-08
1.44574e-08
-4.34066e-08
1.91254e-08
2.44166e-08
-4.11805e-08
-5.42319e-08
-3.82983e-09
5.40804e-08
-5.43574e-08
-2.5784e-09
-5.44409e-08
-9.19574e-10
-5.44588e-08
1.15293e-09
-5.43797e-08
3.64819e-09
-5.41631e-08
6.57758e-09
-5.37591e-08
9.95636e-09
-5.31074e-08
1.38057e-08
-5.21378e-08
1.81557e-08
2.30498e-08
-5.0771e-08
-5.67743e-08
-3.46875e-09
5.64132e-08
-5.7163e-08
-2.18962e-09
-5.75657e-08
-5.16781e-10
-5.79622e-08
1.54947e-09
-5.83245e-08
4.0104e-09
-5.86148e-08
6.86782e-09
-5.87839e-08
1.01253e-08
-5.87681e-08
1.37898e-08
-5.84875e-08
1.78749e-08
2.24066e-08
-5.78443e-08
-5.72971e-08
-2.98602e-09
5.68143e-08
-5.7848e-08
-1.63887e-09
-5.8456e-08
9.12044e-11
-5.91053e-08
2.19874e-09
-5.97734e-08
4.67844e-09
-6.04285e-08
7.52283e-09
-6.10254e-08
1.07222e-08
-6.15006e-08
1.4265e-08
-6.17652e-08
1.81396e-08
2.23408e-08
-6.16992e-08
-5.56587e-08
-2.48165e-09
5.51543e-08
-5.62511e-08
-1.04656e-09
-5.69225e-08
7.62522e-10
-5.76619e-08
2.93806e-09
-5.84555e-08
5.47193e-09
-5.92841e-08
8.3514e-09
-6.01184e-08
1.15565e-08
-6.09102e-08
1.50569e-08
-6.15798e-08
1.88093e-08
2.2759e-08
-6.19978e-08
-5.1904e-08
-2.05262e-09
5.14749e-08
-5.2415e-08
-5.35559e-10
-5.29967e-08
1.34426e-09
-5.36399e-08
3.58132e-09
-5.43395e-08
6.17156e-09
-5.50951e-08
9.10703e-09
-5.59098e-08
1.23713e-08
-5.67851e-08
1.59323e-08
-5.77079e-08
1.97322e-08
2.36779e-08
-5.86268e-08
-4.6272e-08
-1.7754e-09
4.59948e-08
-4.65998e-08
-2.07798e-10
-4.69514e-08
1.6958e-09
-4.73024e-08
3.93228e-09
-4.76347e-08
6.50379e-09
-4.79406e-08
9.41301e-09
-4.82278e-08
1.26585e-08
-4.85208e-08
1.62253e-08
-4.88575e-08
2.0069e-08
2.40822e-08
-4.92618e-08
-3.91757e-08
-1.63805e-09
3.90384e-08
-3.93296e-08
-5.38733e-11
-3.94499e-08
1.81609e-09
-3.94824e-08
3.96478e-09
-3.93723e-08
6.39383e-09
-3.90708e-08
9.11153e-09
-3.85449e-08
1.21325e-08
-3.77947e-08
1.5475e-08
-3.68766e-08
1.91509e-08
2.30642e-08
-3.58585e-08
-3.10395e-08
-1.53743e-09
3.09389e-08
-3.11683e-08
7.46298e-11
-3.12616e-08
1.9093e-09
-3.12451e-08
3.94831e-09
-3.10338e-08
6.18262e-09
-3.05348e-08
8.61252e-09
-2.96552e-08
1.12529e-08
-2.83285e-08
1.41483e-08
-2.65342e-08
1.73565e-08
2.1025e-08
-2.4495e-08
-2.20581e-08
-1.33387e-09
2.18544e-08
-2.23898e-08
4.06295e-10
-2.28092e-08
2.32869e-09
-2.32713e-08
4.4105e-09
-2.37296e-08
6.64087e-09
-2.41398e-08
9.02263e-09
-2.44669e-08
1.15799e-08
-2.46937e-08
1.43749e-08
-2.49278e-08
1.75904e-08
2.22151e-08
-2.6118e-08
-1.17053e-08
-1.07886e-09
1.14502e-08
-1.21994e-08
9.00404e-10
-1.29133e-08
3.0427e-09
-1.38286e-08
5.32576e-09
-1.49286e-08
7.74079e-09
-1.61975e-08
1.02913e-08
-1.76125e-08
1.29948e-08
-1.90906e-08
1.58528e-08
-2.07215e-08
1.92212e-08
2.43925e-08
-2.2899e-08
3.5575e-10
-9.25583e-10
-5.09016e-10
-1.33013e-10
1.38912e-09
-9.47799e-10
3.85741e-09
-2.08622e-09
6.46402e-09
-3.5566e-09
9.2109e-09
-5.38765e-09
1.21221e-08
-7.64843e-09
1.52553e-08
-1.05429e-08
1.87472e-08
-1.52691e-08
2.39472e-08
2.79126e-08
-1.87892e-08
1.46028e-08
-1.17378e-09
-1.43546e-08
1.45172e-08
1.4747e-09
1.41448e-08
4.22968e-09
1.35682e-08
7.04044e-09
1.29149e-08
9.86398e-09
1.23682e-08
1.26687e-08
1.21626e-08
1.54608e-08
1.25213e-08
1.83883e-08
1.36272e-08
2.28412e-08
3.03168e-08
1.1223e-08
3.03453e-08
-1.84678e-09
-2.96724e-08
3.05429e-08
1.27703e-09
3.02608e-08
4.51162e-09
2.9513e-08
7.78813e-09
2.83462e-08
1.10308e-08
2.68641e-08
1.41507e-08
2.52525e-08
1.70724e-08
2.37239e-08
1.99169e-08
2.13284e-08
2.52367e-08
3.09264e-08
2.07188e-08
4.84318e-08
-3.31685e-09
-4.69618e-08
4.93555e-08
3.53114e-10
4.96899e-08
4.17708e-09
4.93936e-08
8.08443e-09
4.84399e-08
1.19845e-08
4.68488e-08
1.5742e-08
4.47408e-08
1.91805e-08
4.22499e-08
2.24078e-08
4.05158e-08
2.6971e-08
3.20789e-08
3.93634e-08
6.92449e-08
-6.17281e-09
-6.63891e-08
7.16718e-08
-2.07398e-09
7.36603e-08
2.18858e-09
7.5201e-08
6.54377e-09
7.62777e-08
1.09078e-08
7.68583e-08
1.51613e-08
7.69152e-08
1.91237e-08
7.57411e-08
2.3582e-08
7.51481e-08
2.75641e-08
3.37433e-08
7.34837e-08
9.13343e-08
-1.05841e-08
-8.69231e-08
9.54217e-08
-6.16137e-09
9.9199e-08
-1.58862e-09
1.02697e-07
3.04582e-09
1.05974e-07
7.63081e-09
1.0912e-07
1.20156e-08
1.12273e-07
1.59703e-08
1.16005e-07
1.98495e-08
1.16892e-07
2.66776e-08
3.24842e-08
1.18151e-07
1.14155e-07
-1.66134e-08
-1.08126e-07
1.19875e-07
-1.1881e-08
1.25222e-07
-6.93541e-09
1.30101e-07
-1.83334e-09
1.34376e-07
3.35556e-09
1.3784e-07
8.55119e-09
1.40131e-07
1.36798e-08
1.41148e-07
1.88324e-08
1.42344e-07
2.54812e-08
3.15569e-08
1.43271e-07
1.3756e-07
-2.44318e-08
-1.29742e-07
1.45151e-07
-1.94722e-08
1.52404e-07
-1.41879e-08
1.59167e-07
-8.59617e-09
1.65237e-07
-2.71452e-09
1.70329e-07
3.45868e-09
1.7409e-07
9.91895e-09
1.76375e-07
1.65476e-08
1.78192e-07
2.36631e-08
3.00439e-08
1.79705e-07
1.61605e-07
-3.42083e-08
-1.51828e-07
1.71267e-07
-2.91341e-08
1.80711e-07
-2.36317e-08
1.89788e-07
-1.76728e-08
1.98297e-07
-1.12241e-08
2.06053e-07
-4.29684e-09
2.12469e-07
3.50282e-09
2.17114e-07
1.19023e-08
2.20757e-07
2.00204e-08
2.74206e-08
2.2338e-07
1.87163e-07
-4.60396e-08
-1.75332e-07
1.98747e-07
-4.07178e-08
2.10064e-07
-3.49478e-08
2.212e-07
-2.88091e-08
2.32148e-07
-2.21717e-08
2.42734e-07
-1.48827e-08
2.52683e-07
-6.44639e-09
2.60318e-07
4.26745e-09
2.66753e-07
1.35856e-08
2.15284e-08
2.72645e-07
2.16806e-07
-6.03374e-08
-2.02508e-07
2.30301e-07
-5.4213e-08
2.43285e-07
-4.79316e-08
2.56097e-07
-4.16206e-08
2.68636e-07
-3.47115e-08
2.81204e-07
-2.745e-08
2.94717e-07
-1.99594e-08
3.09634e-07
-1.06502e-08
3.20715e-07
2.50435e-09
1.29355e-08
3.29308e-07
2.48803e-07
-7.87954e-08
-2.30345e-07
2.66357e-07
-7.17669e-08
2.83054e-07
-6.46291e-08
2.99017e-07
-5.75836e-08
3.14219e-07
-4.99133e-08
3.28453e-07
-4.1684e-08
3.41943e-07
-3.34489e-08
3.56525e-07
-2.5233e-08
3.73576e-07
-1.45468e-08
-5.75672e-09
3.92269e-07
2.83304e-07
-1.0219e-07
-2.5991e-07
3.06271e-07
-9.47337e-08
3.28451e-07
-8.68092e-08
3.49362e-07
-7.84952e-08
3.6907e-07
-6.96207e-08
3.87796e-07
-6.04109e-08
4.05545e-07
-5.11977e-08
4.22201e-07
-4.18892e-08
4.40174e-07
-3.2519e-08
-2.38031e-08
4.5822e-07
3.14303e-07
-1.30998e-07
-2.85495e-07
3.42365e-07
-1.22795e-07
3.69607e-07
-1.14051e-07
3.95433e-07
-1.04322e-07
4.1995e-07
-9.41372e-08
4.43389e-07
-8.38502e-08
4.66319e-07
-7.41283e-08
4.89142e-07
-6.4712e-08
5.12021e-07
-5.53979e-08
-4.63486e-08
5.34566e-07
3.35456e-07
-1.62924e-07
-3.03531e-07
3.67523e-07
-1.54863e-07
3.98941e-07
-1.45468e-07
4.2976e-07
-1.3514e-07
4.58996e-07
-1.23374e-07
4.8671e-07
-1.11564e-07
5.1331e-07
-1.00728e-07
5.38686e-07
-9.00876e-08
5.63188e-07
-7.99002e-08
-6.97443e-08
5.86584e-07
3.4511e-07
-1.97246e-07
-3.10788e-07
3.79856e-07
-1.89609e-07
4.15007e-07
-1.8062e-07
4.50372e-07
-1.70505e-07
4.85412e-07
-1.58415e-07
5.1868e-07
-1.44832e-07
5.49297e-07
-1.31345e-07
5.77387e-07
-1.18177e-07
6.02755e-07
-1.05267e-07
-9.27952e-08
6.25805e-07
3.42248e-07
-2.3581e-07
-3.03684e-07
3.8098e-07
-2.28339e-07
4.19681e-07
-2.19321e-07
4.58129e-07
-2.08953e-07
4.96556e-07
-1.96841e-07
5.34196e-07
-1.82472e-07
5.69659e-07
-1.66807e-07
6.02271e-07
-1.50789e-07
6.31582e-07
-1.34579e-07
-1.18402e-07
6.57189e-07
3.18309e-07
-2.79175e-07
-2.74944e-07
3.61828e-07
-2.71858e-07
4.05301e-07
-2.62794e-07
4.48383e-07
-2.52035e-07
4.91202e-07
-2.3966e-07
5.33938e-07
-2.25208e-07
5.75354e-07
-2.08222e-07
6.14191e-07
-1.89627e-07
6.49759e-07
-1.70147e-07
-1.50069e-07
6.81426e-07
2.69377e-07
-3.27603e-07
-2.2095e-07
3.18426e-07
-3.20907e-07
3.67718e-07
-3.12086e-07
4.16837e-07
-3.01154e-07
4.65383e-07
-2.88205e-07
5.13396e-07
-2.73221e-07
5.6094e-07
-2.55767e-07
6.07001e-07
-2.35688e-07
6.50343e-07
-2.13489e-07
-1.89123e-07
6.89397e-07
1.95392e-07
-3.81e-07
-1.41995e-07
2.49971e-07
-3.75486e-07
3.05282e-07
-3.67397e-07
3.60833e-07
-3.56705e-07
4.16058e-07
-3.4343e-07
4.70469e-07
-3.27633e-07
5.24053e-07
-3.09351e-07
5.76708e-07
-2.88343e-07
6.2717e-07
-2.63951e-07
-2.36428e-07
6.74475e-07
9.75847e-08
-4.39027e-07
-3.95575e-08
1.57344e-07
-4.35245e-07
2.18352e-07
-4.28406e-07
2.80121e-07
-4.18474e-07
3.42113e-07
-4.05422e-07
4.03718e-07
-3.89238e-07
4.64262e-07
-3.69896e-07
5.23231e-07
-3.47312e-07
5.80444e-07
-3.21163e-07
-2.91645e-07
6.35661e-07
-1.95642e-08
-5.01593e-07
8.21312e-08
4.52455e-08
-5.00053e-07
1.11798e-07
-4.94958e-07
1.79557e-07
-4.86234e-07
2.47951e-07
-4.73817e-07
3.16382e-07
-4.57668e-07
3.84232e-07
-4.37745e-07
4.50917e-07
-4.13998e-07
5.16159e-07
-3.86405e-07
-3.5509e-07
5.79604e-07
-1.47944e-07
-5.69103e-07
2.15454e-07
-7.77507e-08
-5.70247e-07
-5.41114e-09
-5.67298e-07
6.85177e-08
-5.60163e-07
1.43457e-07
-5.48756e-07
2.18807e-07
-5.33018e-07
2.93957e-07
-5.12896e-07
3.68312e-07
-4.88353e-07
4.4126e-07
-4.59353e-07
-4.25794e-07
5.11964e-07
-2.78743e-07
-6.41886e-07
3.51525e-07
-2.02846e-07
-6.46143e-07
-1.24495e-07
-6.45649e-07
-4.4289e-08
-6.40369e-07
3.72058e-08
-6.30252e-07
1.19406e-07
-6.15217e-07
2.01666e-07
-5.95157e-07
2.83232e-07
-5.69919e-07
3.63166e-07
-5.39286e-07
-5.02897e-07
4.40269e-07
-4.02628e-07
-7.19288e-07
4.8003e-07
-3.21673e-07
-7.27096e-07
-2.38008e-07
-7.29315e-07
-1.52354e-07
-7.26023e-07
-6.53078e-08
-7.17297e-07
2.26122e-08
-7.03137e-07
1.10874e-07
-6.83418e-07
1.98813e-07
-6.57858e-07
2.85494e-07
-6.25967e-07
-5.86864e-07
3.69461e-07
-5.0805e-07
-7.9892e-07
5.87681e-07
-4.24419e-07
-8.10727e-07
-3.37951e-07
-8.15784e-07
-2.49544e-07
-8.1443e-07
-1.59887e-07
-8.06954e-07
-6.94707e-08
-7.93554e-07
2.13466e-08
-7.74236e-07
1.12224e-07
-7.48736e-07
2.0268e-07
-7.16423e-07
-6.75943e-07
2.91759e-07
-5.79787e-07
-8.76357e-07
6.57224e-07
-4.97748e-07
-8.92765e-07
-4.12761e-07
-9.0077e-07
-3.26031e-07
-9.01161e-07
-2.38428e-07
-8.94558e-07
-1.50536e-07
-8.81446e-07
-6.27111e-08
-8.6206e-07
2.49093e-08
-8.36357e-07
1.12362e-07
-8.03876e-07
-7.63314e-07
1.99733e-07
-6.00804e-07
-9.453e-07
6.69747e-07
-5.26078e-07
-9.67491e-07
-4.4785e-07
-9.78998e-07
-3.67642e-07
-9.81368e-07
-2.86462e-07
-9.75738e-07
-2.05021e-07
-9.62886e-07
-1.23743e-07
-9.43339e-07
-4.2746e-08
-9.17353e-07
3.82659e-08
-8.84888e-07
-8.4563e-07
1.20582e-07
-5.61246e-07
-9.98734e-07
6.1468e-07
-5.00323e-07
-1.02842e-06
-4.34585e-07
-1.04474e-06
-3.65605e-07
-1.05035e-06
-2.94386e-07
-1.04696e-06
-2.21671e-07
-1.0356e-06
-1.47909e-07
-1.0171e-06
-7.31171e-08
-9.92145e-07
3.2864e-09
-9.61291e-07
-9.24782e-07
8.24389e-08
-4.69762e-07
-1.03167e-06
5.02693e-07
-4.2802e-07
-1.07016e-06
-3.79757e-07
-1.093e-06
-3.26111e-07
-1.10399e-06
-2.68143e-07
-1.10493e-06
-2.06808e-07
-1.09694e-06
-1.42865e-07
-1.08104e-06
-7.67215e-08
-1.05829e-06
-8.25202e-09
-1.02976e-06
-9.96658e-07
6.36247e-08
-3.55899e-07
-1.04104e-06
3.65269e-07
-3.33709e-07
-1.09235e-06
-3.03697e-07
-1.12301e-06
-2.66213e-07
-1.14148e-06
-2.22496e-07
-1.14864e-06
-1.73927e-07
-1.14551e-06
-1.21734e-07
-1.13324e-06
-6.68451e-08
-1.11318e-06
-9.79781e-09
-1.08681e-06
-1.05572e-06
4.92662e-08
-2.50313e-07
-1.03e-06
2.39279e-07
-2.4389e-07
-1.09877e-06
-2.27751e-07
-1.13915e-06
-2.02852e-07
-1.16638e-06
-1.70934e-07
-1.18056e-06
-1.33723e-07
-1.18272e-06
-9.27189e-08
-1.17424e-06
-4.91422e-08
-1.15675e-06
-3.947e-09
-1.132e-06
-1.10179e-06
4.2118e-08
-1.68418e-07
-9.93916e-07
1.32333e-07
-1.75631e-07
-1.09156e-06
-1.65632e-07
-1.14915e-06
-1.46611e-07
-1.1854e-06
-1.21436e-07
-1.20574e-06
-9.19476e-08
-1.21221e-06
-5.94507e-08
-1.20674e-06
-2.49176e-08
-1.19129e-06
1.09316e-08
-1.16785e-06
-1.13837e-06
4.7511e-08
-1.45589e-07
-9.58813e-07
1.10486e-07
-1.34668e-07
-1.10248e-06
-1.16322e-07
-1.16749e-06
-9.56308e-08
-1.20609e-06
-7.28912e-08
-1.22848e-06
-4.84704e-08
-1.23663e-06
-2.27364e-08
-1.23247e-06
3.96426e-09
-1.21799e-06
3.13754e-08
-1.19526e-06
-1.16639e-06
5.93988e-08
-6.22064e-08
-9.37363e-07
4.0757e-08
-5.74034e-08
-1.10728e-06
-4.4731e-08
-1.18017e-06
-3.04454e-08
-1.22038e-06
-1.48085e-08
-1.24411e-06
2.03564e-09
-1.25347e-06
1.97901e-08
-1.25023e-06
3.81112e-08
-1.23631e-06
5.67699e-08
-1.21392e-06
-1.18534e-06
7.57181e-08
3.66473e-08
-9.11649e-07
-6.23615e-08
3.40611e-08
-1.10469e-06
3.63344e-08
-1.18244e-06
4.07154e-08
-1.22476e-06
4.71831e-08
-1.25058e-06
5.55261e-08
-1.26181e-06
6.51595e-08
-1.25986e-06
7.53968e-08
-1.24655e-06
8.57521e-08
-1.22428e-06
-1.19561e-06
9.60246e-08
1.16494e-07
-9.00748e-07
-1.27396e-07
1.07916e-07
-1.09612e-06
1.03146e-07
-1.17767e-06
1.00812e-07
-1.22242e-06
1.01079e-07
-1.25085e-06
1.03636e-07
-1.26437e-06
1.07638e-07
-1.26386e-06
1.12071e-07
-1.25098e-06
1.16181e-07
-1.22839e-06
-1.19904e-06
1.19607e-07
1.53575e-07
-9.13385e-07
-1.40938e-07
1.50919e-07
-1.09346e-06
1.45869e-07
-1.17262e-06
1.42076e-07
-1.21863e-06
1.40548e-07
-1.24932e-06
1.41115e-07
-1.26494e-06
1.42837e-07
-1.26558e-06
1.44601e-07
-1.25274e-06
1.45723e-07
-1.22951e-06
-1.19974e-06
1.46431e-07
1.60831e-07
-9.49473e-07
-1.24744e-07
1.68999e-07
-1.10163e-06
1.67464e-07
-1.17108e-06
1.65627e-07
-1.21679e-06
1.65297e-07
-1.24899e-06
1.66347e-07
-1.26599e-06
1.67714e-07
-1.26695e-06
1.68127e-07
-1.25316e-06
1.66717e-07
-1.2281e-06
-1.19666e-06
1.63636e-07
1.71759e-07
-9.80595e-07
-1.40637e-07
1.8059e-07
-1.11046e-06
1.78905e-07
-1.1694e-06
1.77873e-07
-1.21576e-06
1.78786e-07
-1.2499e-06
1.80862e-07
-1.26806e-06
1.82668e-07
-1.26876e-06
1.82636e-07
-1.25312e-06
1.79388e-07
-1.22485e-06
-1.18939e-06
1.72116e-07
1.9518e-07
-9.86671e-07
-1.89104e-07
1.83696e-07
-1.09898e-06
1.777e-07
-1.1634e-06
1.77224e-07
-1.21528e-06
1.80028e-07
-1.25271e-06
1.83968e-07
-1.272e-06
1.87195e-07
-1.27198e-06
1.88021e-07
-1.25395e-06
1.84728e-07
-1.22156e-06
-1.18009e-06
1.75425e-07
1.46163e-07
-9.9432e-07
-1.38514e-07
1.49063e-07
-1.10188e-06
1.53715e-07
-1.16805e-06
1.60724e-07
-1.22229e-06
1.68585e-07
-1.26057e-06
1.75949e-07
-1.27937e-06
1.81659e-07
-1.27769e-06
1.84512e-07
-1.2568e-06
1.82799e-07
-1.21985e-06
-1.17065e-06
1.73361e-07
1.13725e-07
-1.00868e-06
-9.93693e-08
1.21947e-07
-1.1101e-06
1.31304e-07
-1.17741e-06
1.41327e-07
-1.23232e-06
1.50996e-07
-1.27024e-06
1.59485e-07
-1.28786e-06
1.66187e-07
-1.28439e-06
1.70588e-07
-1.2612e-06
1.71977e-07
-1.22124e-06
-1.16768e-06
1.69011e-07
8.52919e-08
-1.02511e-06
-6.88598e-08
9.66859e-08
-1.12149e-06
1.08002e-07
-1.18873e-06
1.18728e-07
-1.24304e-06
1.28047e-07
-1.27956e-06
1.35276e-07
-1.29509e-06
1.39915e-07
-1.28903e-06
1.41519e-07
-1.26281e-06
1.39428e-07
-1.21914e-06
-1.1603e-06
1.3205e-07
6.07843e-08
-1.04186e-06
-4.4031e-08
7.38507e-08
-1.13456e-06
8.63387e-08
-1.20121e-06
9.7358e-08
-1.25406e-06
1.06243e-07
-1.28844e-06
1.12648e-07
-1.30149e-06
1.16387e-07
-1.29277e-06
1.16905e-07
-1.26333e-06
1.12456e-07
-1.2147e-06
-1.14529e-06
9.74444e-08
3.91907e-08
-1.05873e-06
-2.23249e-08
5.4489e-08
-1.14986e-06
6.83936e-08
-1.21512e-06
7.97463e-08
-1.26541e-06
8.84462e-08
-1.29714e-06
9.50976e-08
-1.30814e-06
1.00735e-07
-1.29841e-06
1.06228e-07
-1.26882e-06
1.11657e-07
-1.22012e-06
-1.14886e-06
1.15225e-07
2.73163e-08
-1.07735e-06
-8.69322e-09
4.40964e-08
-1.16664e-06
5.78725e-08
-1.22889e-06
6.78153e-08
-1.27536e-06
7.45135e-08
-1.30384e-06
7.92635e-08
-1.31289e-06
8.37916e-08
-1.30294e-06
8.96472e-08
-1.27467e-06
9.68873e-08
-1.22737e-06
-1.15286e-06
1.00882e-07
2.91654e-08
-1.09264e-06
-1.38758e-08
4.40226e-08
-1.18149e-06
5.53756e-08
-1.24025e-06
6.24327e-08
-1.28241e-06
6.62739e-08
-1.30768e-06
6.86737e-08
-1.31529e-06
7.18072e-08
-1.30607e-06
7.80079e-08
-1.28088e-06
8.82108e-08
-1.23757e-06
-1.16309e-06
9.84412e-08
3.29494e-08
-1.11081e-06
-1.47741e-08
4.72416e-08
-1.19579e-06
5.66312e-08
-1.24964e-06
6.11125e-08
-1.28689e-06
6.246e-08
-1.30903e-06
6.28998e-08
-1.31573e-06
6.4735e-08
-1.30791e-06
7.09954e-08
-1.28714e-06
8.43968e-08
-1.25097e-06
-1.18451e-06
1.05817e-07
4.1301e-08
-1.12879e-06
-2.33211e-08
5.31393e-08
-1.20762e-06
5.96655e-08
-1.25616e-06
6.14528e-08
-1.28868e-06
6.08152e-08
-1.30839e-06
6.02496e-08
-1.31517e-06
6.16635e-08
-1.30932e-06
6.80362e-08
-1.29351e-06
8.30429e-08
-1.26598e-06
-1.21104e-06
1.09577e-07
4.49909e-08
-1.14102e-06
-3.27667e-08
5.34946e-08
-1.21613e-06
5.71984e-08
-1.25987e-06
5.67568e-08
-1.28824e-06
5.47308e-08
-1.30636e-06
5.37332e-08
-1.31417e-06
5.52236e-08
-1.31081e-06
6.21305e-08
-1.30042e-06
8.08237e-08
-1.28467e-06
-1.25786e-06
1.27643e-07
2.78022e-08
-1.16019e-06
-8.62727e-09
3.9153e-08
-1.22748e-06
4.33195e-08
-1.26403e-06
4.27289e-08
-1.28765e-06
4.01057e-08
-1.30374e-06
3.777e-08
-1.31184e-06
3.66289e-08
-1.30967e-06
3.78362e-08
-1.30162e-06
4.51884e-08
-1.29202e-06
-1.27922e-06
6.65459e-08
2.59716e-09
-1.19516e-06
3.23726e-08
1.89219e-08
-1.2438e-06
2.45878e-08
-1.2697e-06
2.49405e-08
-1.288e-06
2.24398e-08
-1.30124e-06
1.90289e-08
-1.30842e-06
1.59868e-08
-1.30663e-06
1.22646e-08
-1.2979e-06
9.62535e-09
-1.28938e-06
-1.2809e-06
1.13041e-08
-5.38921e-09
-1.23508e-06
4.53105e-08
8.01466e-09
-1.25721e-06
1.15535e-08
-1.27324e-06
1.10779e-08
-1.28753e-06
7.50077e-09
-1.29766e-06
2.11625e-09
-1.30304e-06
-2.56862e-09
-1.30194e-06
-9.94056e-09
-1.29053e-06
-1.93633e-08
-1.27996e-06
-1.27208e-06
-2.818e-08
6.62915e-09
-1.2501e-06
8.3883e-09
8.71797e-09
-1.2593e-06
6.86266e-09
-1.27138e-06
3.84374e-09
-1.28451e-06
-1.99409e-09
-1.29183e-06
-9.86723e-09
-1.29517e-06
-1.55564e-08
-1.29625e-06
-2.43773e-08
-1.28171e-06
-3.80745e-08
-1.26626e-06
-1.25721e-06
-5.29403e-08
1.85539e-08
-1.24513e-06
-2.35211e-08
1.16986e-08
-1.25244e-06
6.25289e-09
-1.26594e-06
1.31725e-09
-1.27957e-06
-6.89153e-09
-1.28362e-06
-1.70758e-08
-1.28498e-06
-2.36721e-08
-1.28966e-06
-3.14295e-08
-1.27395e-06
-4.74839e-08
-1.25021e-06
-1.23755e-06
-6.71483e-08
2.619e-08
-1.23023e-06
-4.10914e-08
1.42286e-08
-1.24048e-06
7.55618e-09
-1.25926e-06
1.48106e-09
-1.2735e-06
-8.76351e-09
-1.27337e-06
-2.0485e-08
-1.27326e-06
-2.85923e-08
-1.28155e-06
-3.30086e-08
-1.26953e-06
-4.94289e-08
-1.23379e-06
-1.21264e-06
-7.4336e-08
2.59479e-08
-1.20929e-06
-4.68893e-08
1.30146e-08
-1.22755e-06
8.8461e-09
-1.2551e-06
2.26726e-09
-1.26692e-06
-9.06412e-09
-1.26204e-06
-2.10561e-08
-1.26127e-06
-3.12348e-08
-1.27137e-06
-3.12464e-08
-1.26952e-06
-4.44322e-08
-1.2206e-06
-1.18035e-06
-7.67288e-08
1.6483e-08
-1.17815e-06
-4.76287e-08
9.54243e-09
-1.22061e-06
1.19688e-08
-1.25752e-06
3.74662e-09
-1.2587e-06
-8.23558e-09
-1.25006e-06
-2.02555e-08
-1.24925e-06
-3.26222e-08
-1.259e-06
-2.87305e-08
-1.27341e-06
-3.08485e-08
-1.21848e-06
-1.13676e-06
-7.44353e-08
-4.70902e-09
-1.12273e-06
-5.07031e-08
1.10764e-08
-1.23639e-06
1.84623e-08
-1.26491e-06
5.27253e-09
-1.24551e-06
-6.99722e-09
-1.23779e-06
-1.91559e-08