/*--------------------------------*- C++ -*----------------------------------*\
  =========                 |
  \\      /  F ield         | OpenFOAM: The Open Source CFD Toolbox
   \\    /   O peration     | Website:  https://openfoam.org
    \\  /    A nd           | Version:  8
     \\/     M anipulation  |
\*---------------------------------------------------------------------------*/
FoamFile
{
    version     2.0;
    format      ascii;
    class       volScalarField;
    location    "4.2";
    object      alpha.water;
}
// * * * * * * * * * * * * * * * * * * * * * * * * * * * * * * * * * * * * * //

dimensions      [0 0 0 0 0 0 0];

internalField   nonuniform List<scalar> 
9150
(
1
1
1
1
1
1
1
1
1
1
1
1
1
1
1
1
1
1
1
1
1
1
1
1
1
1
1
1
1
1
1
1
1
1
1
1
1
1
1
1
1
1
1
1
1
1
1
1
1
1
1
1
1
1
1
1
1
1
1
1
1
1
1
1
1
1
1
1
1
1
1
1
1
1
1
1
1
1
1
1
1
1
1
1
1
1
1
1
1
1
1
1
1
1
1
1
1
1
1
1
1
1
1
1
1
1
1
1
1
1
1
1
1
1
1
1
1
1
1
1
1
1
1
1
1
1
1
1
1
1
1
1
1
1
1
1
1
1
1
1
1
1
1
1
1
1
1
1
1
1
1
1
1
1
1
1
1
1
1
1
0.999995
0.999995
0.999998
1
1
1
0.999996
0.999984
0.999984
0.999984
1
0.999992
0.999991
0.999991
0.999992
0.999999
1
0.999992
0.999984
0.999995
0.999991
0.999991
0.999992
0.999998
0.999998
0.999999
1
1
1
0.999996
0.999998
1
1
1
0.999999
0.999999
1
1
0.999998
0.999986
1
1
1
1
1
1
1
1
0.999987
0.999986
1
1
1
1
1
1
0.999991
0.999986
0.999986
0.999986
1
1
1
1
0.999995
0.999986
0.999986
0.999986
0.999994
0.999999
1
1
0.999996
0.999988
0.999988
0.999991
0.999997
0.999999
1
1
1
1
1
0.999988
0.999988
0.99999
0.999999
1
1
1
0.999962
0.999962
0.999965
0.999994
0.999998
0.999999
1
1
1
0.996942
0.999999
0.999994
0.999999
1
1
1
0.975529
0.933785
0.967949
0.985015
1
1
1
0.977184
0.949981
0.938498
0.932885
0.932934
0.966982
0.995338
0.945486
0.943821
0.933717
0.93167
0.931622
0.931624
0.945741
0.969869
0.994396
0.999885
0.955121
0.95883
0.942242
0.942374
0.955956
0.977171
0.994994
0.999357
0.999769
0.999977
0.996253
0.998446
0.99466
0.99523
0.998509
0.999828
0.999708
0.999701
0.999707
0.999999
0.999974
0.999939
0.999893
0.999798
0.999866
0.999848
0.999702
0.999342
0.99951
0.999999
0.999982
0.999948
0.999913
0.999912
0.99991
0.999679
0.99934
0.999339
0.999656
0.999999
0.999934
0.999947
0.999945
0.997587
0.995237
0.999691
0.999913
0.999681
0.999943
0.999991
0.999999
0.998407
0.992324
0.992193
0.993049
0.999977
0.999978
0.999982
0.999985
0.99999
0.988472
0.988315
0.988315
0.995722
0.99987
0.999894
0.999977
0.99998
0.999605
0.956053
0.984877
0.999147
0.997507
0.999721
0.999808
0.999886
0.991534
0.89754
0.873858
0.874914
0.998453
0.999171
0.99928
0.999511
0.967593
0.872736
0.872482
0.873361
0.873474
0.881067
0.998925
0.998936
0.9437
0.871086
0.871401
0.871716
0.871716
0.886358
0.994174
0.995186
0.956039
0.871805
0.871086
0.871086
0.871086
0.894303
0.99349
0.99197
0.997424
0.997326
0.873223
0.87287
0.871808
0.938262
0.987518
0.988536
0.997356
0.997424
0.997424
0.9974
0.874145
0.912905
0.996569
0.996878
0.9971
0.997225
0.997254
0.997357
0.993456
0.977976
0.946506
0.996612
0.99664
0.996707
0.996873
0.997102
0.943337
0.823686
0.908337
0.999928
0.996235
0.99641
0.996619
0.996663
0.882493
0.62736
0.625445
0.718907
0.999935
0.999939
0.995467
0.996225
0.807757
0.596513
0.598957
0.605268
0.610725
0.888361
0.999956
0.999944
0.858219
0.598617
0.598093
0.596819
0.598349
0.600382
0.850369
0.999962
0.999962
0.999956
0.598243
0.598093
0.596877
0.598087
0.638448
0.963241
0.999913
0.999976
0.999968
0.999961
0.6086
0.597028
0.596441
0.806048
0.999756
0.999949
0.999982
0.99998
0.999976
0.999956
0.86281
0.771095
0.902189
0.99946
0.999978
0.999984
0.999985
0.999984
0.99998
0.999943
0.998511
0.998952
0.99992
0.99998
0.999985
0.999985
0.999985
0.999985
0.999984
0.999977
0.99983
0.99989
0.999979
0.999985
0.999985
0.999985
0.999985
0.999985
0.999985
0.999984
0.999863
0.999764
0.999916
0.803882
0.53519
0.804042
0.999985
0.999985
0.999983
0.994461
0.99953
0.796871
0.322572
0.276942
0.281837
0.286732
0.335425
0.393812
0.260139
0.156891
0.99612
0.785026
0.280091
0.276942
0.295549
0.693533
0.570463
0.101562
0.0971759
0.0966969
0.998019
0.921
0.79875
0.786558
0.920222
0.985152
0.944808
0.720479
0.602189
0.605224
0.998532
0.995966
0.994027
0.990262
0.986994
0.985735
0.984963
0.887615
0.871957
0.966115
0.999955
0.999806
0.998629
0.967556
0.845803
0.839606
0.837926
0.837902
0.837937
0.837927
0.877617
0.829998
0.833544
0.837772
0.839253
0.839661
0.902492
0.943259
0.837937
0.89743
0.827778
0.829098
0.8294
0.907506
0.991452
0.975727
0.991465
0.998038
0.992979
0.997196
0.826946
0.839841
0.989498
0.999593
0.99999
0.999989
0.999996
0.999998
0.999999
1
0.853021
0.999054
0.999986
0.999997
0.999998
0.999998
0.999998
0.999998
0.999998
0.999998
0.978425
0.99999
0.999997
0.999998
0.999998
0.999998
0.999998
0.999998
0.999991
0.999981
0.999998
0.999996
0.999996
0.999997
0.999995
0.99991
0.999871
0.999988
0.99998
0.99983
0.999991
0.999991
0.999995
0.999996
0.99999
0.999956
0.999817
0.999619
0.999087
0.998563
0.99999
0.99999
0.999992
0.99999
0.999955
0.999802
0.99905
0.997763
0.997737
0.99994
0.999989
0.999989
0.99999
0.999955
0.999762
0.99913
0.997509
0.99751
0.999219
0.999965
0.999989
0.999989
0.999984
0.998783
0.99858
0.998575
0.998593
0.999629
0.999967
0.999967
0.999989
0.999989
0.999914
0.998789
0.999036
0.999913
0.999966
0.999967
0.999967
0.999966
0.999989
0.999989
0.999989
0.999081
0.999034
0.999622
0.999952
0.999966
0.999966
0.999966
0.999989
0.999989
0.999989
0.999616
0.999034
0.999152
0.999777
0.999966
0.999966
0.999966
0.999989
0.999989
0.999989
0.999568
0.99909
0.999471
0.999955
0.999965
0.999965
0.999966
0.999989
0.999989
0.999945
0.999465
0.999568
0.999958
0.999963
0.999963
0.999965
0.999957
0.999989
0.999989
0.99988
0.999485
0.999911
0.999967
0.999965
0.999963
0.99996
0.999814
0.999989
0.999989
0.999801
0.999796
0.999949
0.999968
0.999967
0.999961
0.999791
0.851425
0.999989
0.999986
0.99995
0.999978
0.999977
0.999976
0.999971
0.999765
0.879447
0.284444
0.999982
0.999982
0.999987
0.999987
0.999987
0.999985
0.999792
0.8302
0.320566
0.0731954
0.999987
0.999987
0.999987
0.999987
0.999988
0.999851
0.775578
0.267805
0.102646
0.0813337
0.999987
0.999987
0.999987
0.999987
0.999929
0.754454
0.194298
0.131818
0.119877
0.364229
0.999987
0.999987
0.999984
0.999929
0.785304
0.169169
0.131098
0.140989
0.480197
0.974995
0.999987
0.999988
0.991898
0.887564
0.272364
0.10932
0.115513
0.511119
0.985524
0.998424
0.999986
0.966799
0.776631
0.398956
0.109318
0.108819
0.252998
0.885512
0.994864
0.998901
0.992221
0.781675
0.437679
0.109862
0.108825
0.108858
0.32064
0.889288
0.991071
0.99787
0.813831
0.614298
0.237817
0.10978
0.10886
0.10884
0.199418
0.745738
0.988735
0.997494
0.651775
0.640735
0.318277
0.110899
0.109405
0.108858
0.12484
0.673977
0.989243
0.997671
0.672147
0.643337
0.233401
0.109673
0.11062
0.108283
0.164621
0.791109
0.993166
0.99871
0.814697
0.581816
0.118511
0.111339
0.110724
0.110585
0.493267
0.964354
0.997051
0.999326
0.825047
0.298179
0.112395
0.11204
0.111195
0.112392
0.798884
0.994071
0.998773
0.999665
0.829764
0.20809
0.114276
0.112563
0.113
0.57598
0.982238
0.997909
0.999534
0.999875
0.864446
0.219992
0.120015
0.114261
0.193067
0.851185
0.995812
0.999221
0.999837
0.999956
0.846566
0.209525
0.128846
0.122319
0.753396
0.994243
0.998928
0.999802
0.999962
0.99999
0.53369
0.160479
0.136655
0.417064
0.949913
0.998192
0.999698
0.999947
0.999991
0.999998
0.204566
0.163997
0.188503
0.85812
0.997445
0.999592
0.99994
0.999992
1
0.999999
0.130302
0.142889
0.741177
0.996663
0.999532
0.999945
0.999991
0.999999
1
1
0.121401
0.317499
0.941297
0.999157
0.999897
0.999988
0.999999
1
1
1
0.0981088
0.812884
0.998742
0.999859
0.999987
0.999999
1
1
1
1
0.220874
0.94887
0.999651
0.999986
0.999997
1
1
1
1
1
0.504378
0.994537
0.999917
0.999994
1
1
1
1
1
1
0.597001
0.998938
0.999979
0.999998
1
1
1
1
1
1
0.65396
0.999619
0.999987
1
1
1
1
1
1
1
0.705178
0.999831
0.999995
1
1
1
1
1
1
1
0.738116
0.999814
0.999998
1
1
1
1
1
1
1
0.748361
0.999322
0.999999
1
1
1
1
1
1
1
0.745961
0.999084
0.999999
1
1
1
1
1
1
0.98865
0.743027
0.999098
0.999998
1
1
1
1
1
1
0.959777
0.743948
0.999288
0.999997
1
1
1
1
1
1
0.939492
0.752887
0.999353
0.999997
1
1
1
1
1
1
0.908003
0.760851
0.999253
0.999996
1
1
1
1
1
1
0.862883
0.765359
0.999226
0.999996
1
1
1
1
1
1
0.811801
0.768345
0.999504
0.999999
1
1
1
1
1
1
0.775596
0.784513
0.999882
1
1
1
1
1
1
0.999933
0.762678
0.809177
0.999989
1
1
1
1
1
1
0.999996
0.764271
0.850042
0.999997
1
1
1
1
1
1
1.00004
0.807261
0.865828
1
1
1
1
1
1
1
1.00006
0.844385
0.906263
1
1
1
1
1
1
1
1
0.896576
0.950915
1
1
1
1
1
1
1
1
0.950615
0.999998
0.999991
0.999991
0.999991
0.999997
1
1
1
1
1
1
1
1
1
1
1
1
1
1
1
1
1
0.999638
0.999588
0.999738
0.999995
0.999999
0.999999
1
1
0.999998
0.999994
0.999998
1
1
0.999999
0.999998
0.999998
0.999948
0.999882
0.999984
0.99999
1
0.999993
0.999993
0.999999
1
1
1
0.999996
0.999993
0.999993
0.999993
0.999999
1
1
1
1
1
0.999999
0.999999
0.999998
1
0.999835
0.999499
0.999499
0.999865
1
1
1
0.999995
0.999993
0.999993
0.999999
1
1
1
1
0.999978
0.99991
1
1
1
0.999996
0.999988
0.999998
1
1
1
1
0.999994
0.999993
0.999995
1
1
1
1
1
0.999999
0.999998
0.999998
0.999999
1
0.999837
0.999499
0.999499
0.99979
1
1
1
0.999998
0.999993
0.999997
1
1
1
1
1
1
1
0.999998
1
1
0.999996
0.999988
0.999988
0.999996
1
1
1
0.999998
0.999995
0.999998
1
1
0.999999
0.999978
0.999975
0.999993
0.999999
1
1
1
0.999705
0.999502
0.999535
0.999943
1
1
1
1
0.999999
1
1
0.995181
0.997829
1
1
1
1
0.999995
1
0.999999
0.999988
0.999988
0.999988
0.999996
1
0.999999
0.999996
0.999996
0.999997
1
1
1
0.999987
0.999807
0.999866
0.999994
1
1
1
0.999971
0.999562
0.999505
0.999849
1
1
1
1
1
1
1
0.995602
0.978936
0.978514
0.986584
1
0.999538
0.994217
0.999989
1
0.99999
0.999988
0.999988
0.999991
0.999999
1
0.999995
0.999996
0.999999
1
1
1
1
0.99984
0.999806
0.999812
0.99998
1
1
1
0.999819
0.999563
0.999755
0.999998
1
1
1
1
1
1
0.999906
0.979908
0.978514
0.978514
0.978514
0.98272
0.980148
0.979148
0.999997
0.999998
0.999989
0.999988
0.999996
1
1
0.999998
0.999993
0.999998
1
1
1
0.999993
0.999828
0.999805
0.999806
0.999876
0.999997
1
1
0.99993
0.999748
0.999759
0.999981
1
1
1
1
0.999968
0.999995
1
0.999409
0.986726
0.97852
0.978883
0.984323
0.979001
0.979001
0.979139
1
0.999999
0.999997
0.999999
0.999999
0.999995
0.999973
0.999971
0.99998
1
1
1
0.99996
0.999809
0.999805
0.999805
0.999888
0.999995
1
1
1
0.999845
0.999794
0.999974
1
1
0.998432
0.989788
0.996913
0.999992
0.999999
1
0.999892
0.998232
0.99439
0.995124
0.995124
0.990803
0.98578
0.995529
1
1
1
0.999998
0.999946
0.999936
0.999942
0.999988
0.999998
1
1
0.99996
0.999806
0.999806
0.999806
0.999941
0.999998
1
1
1
0.999984
0.999814
0.999853
0.999995
1
1
0.978872
0.951302
0.98357
1
1
1
1
0.999302
0.99914
0.993772
0.989908
0.998086
0.998707
0.998724
1
0.996474
0.994621
0.998502
0.999966
0.99998
0.999993
1
1
1
1
0.99993
0.999833
0.999903
0.999969
0.999995
1
1
1
1
0.999924
0.999814
0.999868
0.999998
1
0.99315
0.951582
0.951296
0.962434
0.998995
1
0.983272
0.983824
0.99836
0.993833
0.974892
0.973502
0.980692
0.997712
0.998724
0.984496
0.984305
0.985116
0.99875
0.999996
1
1
1
1
1
0.999993
0.999972
0.999985
0.999997
1
0.999999
1
1
1
0.999965
0.999826
0.999814
0.999955
1
1
0.958311
0.951297
0.951294
0.964284
0.998943
0.985526
0.973916
0.973977
0.99579
0.992468
0.973502
0.973502
0.973502
0.976329
0.995883
0.986005
0.98808
0.996065
0.999927
1
1
1
1
0.999995
0.999989
0.999995
1
1
1
1
1
0.999958
0.999955
0.999975
0.999955
0.999953
0.999979
0.999998
1
0.997102
0.951297
0.951294
0.951293
0.984329
0.98044
0.973916
0.973918
0.979599
0.997776
0.9966
0.989239
0.975706
0.973506
0.973509
0.993409
0.998624
0.999464
0.999988
1
1
1
0.999989
0.99971
0.999866
0.999993
1
1
1
1
1
0.998059
0.999621
0.999965
0.99997
0.999979
0.999982
0.999982
0.999993
1
0.998953
0.956632
0.951297
0.98019
0.997143
0.976371
0.976209
0.983797
0.99734
0.999503
0.999904
0.999918
0.995584
0.97785
0.980456
0.996656
1
1
1
1
1
0.999861
0.999646
0.999633
0.999895
1
1
1
1
0.962631
0.96659
0.995554
0.999951
0.999975
0.999975
0.99983
0.999427
0.999778
0.999991
1
0.999905
0.990682
0.98527
0.999741
0.997216
0.995068
0.99675
0.999413
0.999967
0.999944
0.999943
0.999942
0.999933
0.998038
0.998718
0.999348
1
1
1
0.999999
0.999757
0.999645
0.999645
0.999804
0.999999
1
1
0.977885
0.930873
0.913749
0.924776
0.999972
0.999972
0.999963
0.999855
0.999071
0.999073
0.999704
0.999993
1
0.999997
0.999997
0.999997
0.999967
0.999216
0.999687
0.999756
0.999967
0.999967
0.999967
0.999772
0.999727
0.999908
0.999901
0.999851
0.99984
0.999999
1
1
0.999806
0.99967
0.99967
0.999941
0.999967
0.999998
0.995176
0.931157
0.913553
0.913553
0.913553
0.979833
0.999972
0.999972
0.9999
0.999137
0.999043
0.999252
0.999871
0.999998
1
1
1
0.999999
0.999998
0.999692
0.999967
0.999967
0.999967
0.999967
0.999967
0.999291
0.99922
0.999625
0.999904
0.999905
0.999864
0.999999
0.999977
0.999885
0.999809
0.999913
0.999949
0.999952
0.999966
0.984485
0.913927
0.913844
0.913699
0.965175
0.986549
0.999972
0.999972
0.999972
0.999705
0.999137
0.999539
0.999947
0.999999
1
1
1
1
1
0.999288
0.999958
0.999967
0.999967
0.999967
0.999967
0.999492
0.99922
0.99922
0.999394
0.999892
0.999965
0.999915
0.999984
0.999893
0.999886
0.999955
0.999955
0.999949
0.999949
0.99915
0.949465
0.915025
0.989624
0.991495
0.999006
0.999088
0.999089
0.997033
0.997635
0.999876
0.999877
0.999997
0.999998
0.999999
0.999227
0.97172
0.908731
0.882749
0.978087
0.997265
0.999967
0.999967
0.999966
0.999952
0.999669
0.999221
0.999221
0.999447
0.999809
0.999949
0.999985
0.999984
0.99999
0.999989
0.999967
0.999254
0.992897
0.990616
0.990923
0.994656
0.987585
0.987604
0.988004
0.966789
0.941458
0.946468
0.996741
0.999765
0.999768
0.999873
0.999833
0.944981
0.886127
0.853103
0.828798
0.818796
0.817757
0.818087
0.837869
0.988909
0.999967
0.999967
0.999967
0.999806
0.999588
0.999604
0.999846
0.999974
0.999985
0.999985
0.999985
0.999985
0.999989
0.992176
0.967992
0.967929
0.988549
0.991712
0.991724
0.989774
0.944923
0.939134
0.939134
0.939136
0.945664
0.99826
0.999737
0.99976
0.999764
0.980045
0.842957
0.818428
0.818064
0.817846
0.817771
0.817757
0.817741
0.817721
0.90262
0.991691
0.999967
0.999843
0.999848
0.999969
0.999984
0.999986
0.999985
0.999985
0.999985
0.999985
0.999985
0.999985
0.882277
0.894957
0.976726
0.988167
0.988291
0.970698
0.939148
0.939121
0.939123
0.93913
0.984489
0.999321
0.999323
0.999122
0.995564
0.993413
0.995671
0.996029
0.962335
0.902038
0.86745
0.865757
0.888172
0.883472
0.892019
0.964064
0.996768
0.999335
0.999907
0.999944
0.999975
0.999989
0.999989
0.999988
0.999931
0.999985
0.966724
0.89036
0.867561
0.901679
0.875892
0.95783
0.986483
0.980647
0.940017
0.940017
0.940561
0.991241
0.997774
0.997775
0.997676
0.995129
0.992289
0.97279
0.953651
0.953614
0.966144
0.998131
0.997922
0.997324
0.995791
0.996306
0.997299
0.998146
0.998959
0.999965
0.999984
0.999985
0.999984
0.999988
0.999989
0.999989
0.999986
0.999983
0.997734
0.949453
0.845987
0.845804
0.845808
0.845813
0.975889
0.973803
0.956104
0.947939
0.9485
0.99441
0.997593
0.997648
0.99775
0.985887
0.954172
0.954273
0.955018
0.954656
0.953765
0.958432
0.988873
0.998301
0.997989
0.995766
0.945621
0.845789
0.835563
0.901207
0.983337
0.995526
0.998607
0.999988
0.999988
0.999988
0.999986
0.999955
0.999514
0.998678
0.993896
0.985255
0.88427
0.845891
0.887745
0.909702
0.979595
0.949592
0.949545
0.95303
0.997124
0.968566
0.912667
0.912667
0.912667
0.912821
0.954951
0.999729
0.999806
0.999843
0.999861
0.999842
0.999839
0.998542
0.976958
0.965253
0.929539
0.831973
0.833094
0.835506
0.876752
0.984797
0.999988
0.999988
0.999988
0.999988
0.999408
0.992904
0.985053
0.942408
0.911387
0.911584
0.911654
0.910441
0.91081
0.910638
0.994647
0.956316
0.949649
0.9873
0.999957
0.997946
0.971054
0.959151
0.991542
0.998947
0.998947
0.998108
0.995989
0.997596
0.999857
0.999878
0.99983
0.998384
0.955161
0.816795
0.753874
0.771834
0.844982
0.89078
0.945531
0.994938
0.999986
0.999988
0.999987
0.999966
0.997252
0.883672
0.809528
0.852481
0.911671
0.911665
0.909232
0.815683
0.759002
0.775312
0.996849
0.977647
0.974985
0.999962
0.999961
0.999946
0.999849
0.999742
0.999624
0.993918
0.945669
0.909326
0.977778
0.999964
0.999962
0.999941
0.999689
0.996389
0.745006
0.496141
0.496141
0.496141
0.497738
0.504047
0.502316
0.598507
0.887711
0.977974
0.985401
0.988409
0.983441
0.902976
0.809675
0.774735
0.890252
0.911671
0.856087
0.619243
0.609308
0.609052
0.977768
0.986894
0.999962
0.999962
0.999962
0.999961
0.999949
0.99983
0.997466
0.861015
0.701858
0.838235
0.997974
0.999965
0.999965
0.999965
0.999965
0.999954
0.974118
0.670678
0.498676
0.68641
0.898839
0.811793
0.497238
0.219572
0.243981
0.475054
0.57822
0.630646
0.654818
0.672894
0.731008
0.757678
0.753634
0.743049
0.767991
0.767773
0.766714
0.623912
0.999106
0.998719
0.999951
0.999962
0.999961
0.999947
0.999838
0.864582
0.653784
0.658127
0.69616
0.988605
0.999965
0.999965
0.999965
0.999965
0.999965
0.999961
0.999948
0.999883
0.999641
0.998814
0.982961
0.4788
0.156879
0.155995
0.154865
0.153696
0.152126
0.149847
0.148597
0.143543
0.179577
0.209231
0.26274
0.326675
0.28463
0.339161
0.317122
0.33671
0.999928
0.999911
0.999937
0.999949
0.999848
0.918277
0.652939
0.645295
0.64851
0.743131
0.999901
0.999931
0.999964
0.999965
0.999965
0.999968
0.999963
0.999944
0.998616
0.993727
0.991723
0.991941
0.983844
0.669127
0.336197
0.295724
0.317393
0.310332
0.273954
0.228632
0.17278
0.140457
0.121016
0.113941
0.107886
0.102977
0.0997264
0.0983348
0.0983348
0.0983348
0.999939
0.999928
0.999807
0.999029
0.893347
0.637761
0.639475
0.641186
0.736213
0.996878
0.997159
0.99645
0.993287
0.998286
0.999969
0.999974
0.999962
0.999876
0.994482
0.972761
0.972739
0.972761
0.981527
0.997917
0.998206
0.997933
0.997821
0.985241
0.969497
0.931185
0.86246
0.758917
0.619053
0.508606
0.475773
0.465922
0.438811
0.410093
0.332812
0.3133
0.999942
0.999868
0.999248
0.955548
0.673797
0.636438
0.637763
0.733487
0.996106
0.995667
0.991114
0.952249
0.950526
0.984102
0.999974
0.999976
0.999976
0.999976
0.999972
0.98743
0.972729
0.973228
0.975911
0.998159
0.998459
0.99804
0.997796
0.997821
0.997813
0.997811
0.997811
0.997808
0.997728
0.993997
0.922316
0.915654
0.948579
0.952191
0.941302
0.829248
0.999929
0.999681
0.994329
0.782077
0.634414
0.634787
0.656701
0.965665
0.997891
0.977998
0.950161
0.950173
0.950208
0.95203
0.99465
0.999976
0.999976
0.999976
0.999978
0.999985
0.999955
0.995365
0.985981
0.989968
0.998988
0.998108
0.997458
0.997688
0.997811
0.997812
0.997804
0.997752
0.99394
0.91739
0.883332
0.883087
0.902651
0.95455
0.951894
0.937901
0.999823
0.998807
0.892742
0.633183
0.633631
0.634464
0.796844
0.999545
0.999464
0.969047
0.950173
0.950148
0.950191
0.9502
0.973099
0.999976
0.999976
0.999973
0.999955
0.999986
0.999986
0.999986
0.999986
0.999983
0.999682
0.996625
0.995115
0.994768
0.994647
0.997092
0.997538
0.99621
0.987322
0.930118
0.896151
0.886257
0.933358
0.962698
0.980307
0.962917
0.999666
0.994552
0.776554
0.63323
0.632798
0.634194
0.903924
0.999563
0.99955
0.998323
0.997682
0.997594
0.987642
0.956241
0.987225
0.999974
0.999975
0.999922
0.99977
0.99996
0.999986
0.999986
0.999983
0.999978
0.999975
0.999975
0.999964
0.996363
0.99394
0.993932
0.993932
0.993932
0.997664
0.999179
0.999367
0.999443
0.999527
0.999523
0.999527
0.999458
0.999893
0.999007
0.979712
0.830974
0.635063
0.776605
0.999563
0.999563
0.999563
0.999561
0.999533
0.995912
0.991769
0.989264
0.99445
0.999894
0.999933
0.999853
0.999762
0.999756
0.999981
0.999981
0.999977
0.999975
0.999975
0.999968
0.999942
0.999909
0.997832
0.994544
0.993932
0.994035
0.996396
0.999242
0.999308
0.999433
0.999523
0.999553
0.997726
0.992297
0.999972
0.999903
0.999433
0.966206
0.840125
0.886538
0.998947
0.999563
0.9827
0.895024
0.761184
0.624208
0.551133
0.530098
0.611939
0.807207
0.963695
0.999824
0.999783
0.999086
0.995588
0.998484
0.99862
0.999939
0.999952
0.999454
0.999907
0.9998
0.999613
0.999485
0.998768
0.997811
0.996394
0.997843
0.998147
0.997136
0.996968
0.999592
0.994174
0.945874
0.68011
0.424488
0.331512
0.296702
0.291427
0.298535
0.223374
0.112948
0.0948308
0.0947654
0.0947661
0.0947655
0.0965857
0.102694
0.13912
0.459792
0.83409
0.979214
0.999754
0.999795
0.98545
0.955201
0.955247
0.985532
0.997932
0.991967
0.98775
0.997726
0.999485
0.999419
0.998278
0.997685
0.996843
0.997255
0.995994
0.995651
0.996207
0.999623
0.993968
0.943036
0.103444
0.0985712
0.102168
0.101905
0.101578
0.101579
0.101578
0.114923
0.185695
0.241009
0.306243
0.415712
0.557159
0.713724
0.819953
0.837869
0.827185
0.954767
0.999821
0.999905
0.988861
0.936805
0.936805
0.936881
0.979271
0.990063
0.951226
0.937183
0.961958
0.970662
0.98538
0.996317
0.99587
0.996565
0.996858
0.997982
0.999068
0.99963
0.998203
0.943029
0.0966812
0.0966812
0.100966
0.433348
0.655481
0.675231
0.698187
0.83842
0.916094
0.95575
0.988585
0.997993
0.998255
0.998458
0.998585
0.998683
0.998736
0.998716
0.996834
0.999905
0.99968
0.981404
0.942081
0.937506
0.962723
0.999137
0.977516
0.917694
0.86489
0.850836
0.79147
0.750742
0.751086
0.830064
0.929578
0.995576
0.999551
0.999636
0.999636
0.943375
0.695547
0.84219
0.936563
0.978623
0.984999
0.985068
0.985669
0.985966
0.98589
0.985994
0.984449
0.9827
0.984431
0.988357
0.991706
0.993698
0.994438
0.996827
0.999017
0.999891
0.999964
0.999964
0.997308
0.960954
0.981772
0.999885
0.999984
0.998461
0.972146
0.928374
0.763145
0.48722
0.480583
0.479012
0.56083
0.787483
0.987126
0.999618
0.999636
0.954258
0.969441
0.970589
0.971969
0.972475
0.93266
0.93266
0.932561
0.936154
0.977811
0.966195
0.955742
0.955662
0.956014
0.956883
0.968666
0.972657
0.97973
0.987902
0.994396
0.997006
0.999158
0.999952
0.999999
1
1
0.999819
0.999987
1
1
1
0.989347
0.825679
0.525153
0.473485
0.473485
0.473485
0.751603
0.992086
0.999618
0.956799
0.839698
0.840757
0.85288
0.982728
0.99593
0.9485
0.932991
0.949765
0.964062
0.964819
0.967565
0.981188
0.990998
0.996315
0.995713
0.995826
0.995051
0.993865
0.993419
0.994457
0.997261
0.999012
0.999911
0.999998
1
1
1
1
1
0.993009
0.990266
0.989817
0.966442
0.659406
0.473485
0.473647
0.473421
0.864836
0.998727
0.95631
0.999996
0.999098
0.999951
0.997804
0.996519
1
1
1
0.999999
0.999999
0.999999
1
1
1
1
1
1
1
1
0.999407
0.997938
0.998197
0.999576
0.999954
0.999999
1
1
1
1
0.982256
0.945959
0.972673
0.983752
0.984004
0.774016
0.473421
0.473421
0.624594
0.983257
0.956697
1
1
1
1
1
1
1
0.999999
0.999999
0.999999
0.999999
0.999999
1
1
1
1
1
1
1
1
1
0.999866
0.999583
0.999867
0.999994
1
1
1
1
0.996649
0.945395
0.939084
0.962554
0.98475
0.985615
0.742815
0.473421
0.51204
0.930709
0.957004
1
1
1
1
0.999999
0.999998
0.999994
0.99999
0.999989
0.999991
0.99999
0.999993
0.999996
0.999998
0.999999
1
1
1
1
1
1
1
1
0.999978
0.999985
0.999999
1
1
1
1
0.997714
0.942494
0.9374
0.951779
0.987086
0.994695
0.57706
0.513571
0.850625
0.957004
0.999996
0.99999
0.999984
0.999968
0.999935
0.999894
0.999859
0.99984
0.99985
0.999879
0.999866
0.999901
0.999952
0.999978
0.999993
0.999998
0.999999
0.999999
0.999999
1
1
1
1
1
1
1
1
1
1
1
1
0.995165
0.938102
0.93709
0.963677
0.996191
0.860339
0.515529
0.803688
0.956597
0.999947
0.999882
0.999795
0.999589
0.999108
0.998558
0.998246
0.998139
0.998402
0.998359
0.99835
0.998892
0.999507
0.999785
0.999896
0.999896
0.999967
0.999994
0.999999
1
1
1
1
1
1
1
1
1
1
1
1
1
0.976689
0.936901
0.949103
0.997478
0.999776
0.570504
0.785963
0.955549
0.99958
0.998834
0.997833
0.995815
0.963692
0.87965
0.772246
0.681364
0.62685
0.644793
0.740507
0.887516
0.988121
0.992157
0.996568
0.999272
0.999862
0.999975
0.999996
0.999999
1
1
1
1
1
1
1
1
1
1
1
1
1
0.94588
0.968327
0.999712
0.999883
0.66291
0.771438
0.953297
0.997261
0.989028
0.892359
0.670928
0.430863
0.23279
0.112218
0.0529418
0.0262965
0.0291951
0.0753345
0.236081
0.640698
0.92609
0.98833
0.99808
0.999655
0.999935
0.999988
0.999998
1
1
1
1
1
1
1
1
1
1
1
1
1
0.998663
0.991627
0.997416
0.999979
0.74597
0.745916
0.948851
0.982305
0.750064
0.368712
0.079142
0.00431606
0.00419146
0.00417597
0.00417532
0.0041757
0.00418294
0.00417598
0.00418666
0.142153
0.734996
0.982741
0.997082
0.999462
0.999896
0.99998
0.999997
0.999999
1
1
1
1
1
1
1
1
1
1
1
1
1
0.999529
0.999489
0.999998
0.809747
0.749256
0.930665
0.976876
0.410657
0.00728823
0.00429844
0.00404616
0.00412143
0.00417446
0.00416111
0.00418318
0.0041813
0.00417321
0.00421484
0.00768361
0.52372
0.981304
0.997165
0.999457
0.999891
0.999978
0.999996
0.999999
1
1
0.999999
0.999999
1
1
1
1
1
1
1
1
1
0.999999
0.99999
1
0.85944
0.753392
0.917659
0.998376
0.592495
0.0559763
0.00460564
0.00404609
0.00410612
0.00417532
0.00418452
0.00418824
0.00414042
0.00416263
0.0044198
0.00617812
0.492842
0.981859
0.998076
0.999604
0.999913
0.99998
0.999995
0.999999
1
1
1
0.999999
1
1
1
1
1
1
1
1
1
1
1
1
0.896649
0.755076
0.906513
0.999966
0.968348
0.36469
0.0063079
0.00408112
0.00415671
0.00416454
0.00418063
0.00414556
0.00412325
0.00432132
0.00605551
0.134606
0.805159
0.992688
0.99838
0.999626
0.999911
0.999976
0.999993
0.999998
0.999999
1
1
0.999998
0.999999
0.999999
0.999999
0.999999
0.999998
0.999999
1
1
0.999999
0.999999
1
1
0.928944
0.757266
0.898456
0.999966
0.999965
0.516486
0.0114885
0.00422461
0.00415012
0.00417411
0.00418416
0.00418371
0.00429684
0.00660795
0.0265866
0.554708
0.984724
0.996625
0.99916
0.999775
0.999927
0.999975
0.999989
0.999995
0.999998
0.999999
0.999999
0.999999
0.999998
0.999997
0.999993
0.999983
0.999983
0.999996
1
1
0.999999
1
1
1
0.951972
0.760113
0.891802
0.999966
0.99994
0.41317
0.00555975
0.00420119
0.00416879
0.00415567
0.00415003
0.00445497
0.00756677
0.10279
0.546817
0.990253
0.99758
0.999318
0.999662
0.999849
0.999926
0.999961
0.999981
0.99999
0.999996
0.999998
0.999997
0.999997
0.999995
0.999976
0.999839
0.999836
0.999965
0.999999
1
1
1
1
1
1
0.968369
0.763532
0.888561
0.999957
0.854286
0.148801
0.00427166
0.00421918
0.00419997
0.0041608
0.00502135
0.00954533
0.216823
0.759091
0.995173
0.998767
0.999632
0.999802
0.999733
0.999797
0.999868
0.999927
0.999963
0.99998
0.99999
0.999988
0.999977
0.99997
0.999936
0.998953
0.99971
0.999873
0.999873
0.99998
1
1
1
0.999999
0.999999
1
0.977436
0.767224
0.88433
0.999746
0.399217
0.00492032
0.00477931
0.00427302
0.00421529
0.00598009
0.101879
0.375041
0.963447
0.997963
0.999564
0.999828
0.999862
0.99985
0.999808
0.999784
0.999763
0.99987
0.999863
0.999913
0.999985
0.999963
0.999874
0.999855
0.965188
0.936954
0.955983
0.984167
0.999854
0.999972
0.999997
1
1
0.999983
0.999991
1
0.98748
0.778652
0.860299
0.6488
0.0399562
0.00680516
0.00490886
0.00456632
0.00903516
0.20955
0.780172
0.996854
0.999186
0.999916
0.999896
0.999902
0.999887
0.999868
0.99985
0.999782
0.999694
0.999579
0.999394
0.999667
0.999858
0.999502
0.97077
0.946218
0.650174
0.226962
0.450575
0.938853
0.998841
0.999875
0.999987
0.999998
0.999999
0.999974
0.999974
0.999999
0.988003
0.78556
0.865267
0.162912
0.0124096
0.00719049
0.00591025
0.109149
0.432362
0.987837
0.998623
0.999699
0.999943
0.999913
0.999913
0.999906
0.999893
0.999885
0.999864
0.999659
0.999075
0.993823
0.995542
0.998043
0.997634
0.962992
0.577492
0.228078
0.224429
0.222341
0.234779
0.776018
0.99769
0.999775
0.999978
0.999995
0.999997
0.999974
0.999974
0.999999
0.976383
0.784507
0.864922
0.0337262
0.0145906
0.0116417
0.229223
0.816076
0.997867
0.999488
1
0.999926
0.999924
0.999918
0.999913
0.999907
0.999906
0.999891
0.999751
0.999205
0.967097
0.817871
0.908964
0.989421
0.832391
0.339982
0.219267
0.218408
0.222697
0.219689
0.217172
0.626298
0.995115
0.999725
0.999976
0.999995
0.999995
0.999974
0.999974
0.999999
0.962686
0.784877
0.784408
0.0385632
0.121808
0.440181
0.984277
0.999108
0.999823
0.999958
0.999928
0.999927
0.999923
0.999918
0.999916
0.999916
0.9999
0.999825
0.99873
0.984015
0.757419
0.70365
0.807219
0.804521
0.550925
0.225202
0.21257
0.220244
0.221616
0.217049
0.216618
0.540754
0.988041
0.999692
0.999975
0.999996
0.999996
0.999984
0.99999
0.999999
0.966105
0.811239
0.789775
0.266905
0.804668
0.997648
0.999515
0.99997
0.999929
0.999928
0.999925
0.999925
0.999923
0.999923
0.999923
0.999904
0.999766
0.998857
0.92822
0.691849
0.690763
0.695777
0.703195
0.816458
0.975418
0.866457
0.345179
0.217991
0.216619
0.215965
0.215359
0.433942
0.967681
0.99962
0.999973
0.999996
0.999997
0.999998
0.999999
0.999999
0.96639
0.943189
0.892342
0.921986
0.998399
0.999703
0.99993
0.999925
0.999929
0.999927
0.999923
0.999923
0.999925
0.999927
0.999903
0.999826
0.998835
0.94999
0.68742
0.67311
0.680609
0.690375
0.858947
0.982768
0.984085
0.984397
0.96693
0.565323
0.214878
0.215357
0.214863
0.214093
0.837035
0.999324
0.999954
0.999997
0.999998
0.999999
0.999999
0.999999
0.968278
0.790806
0.886905
0.99844
0.999775
0.999901
0.99992
0.999926
0.999928
0.999926
0.999925
0.999929
0.999929
0.99989
0.999745
0.998833
0.971762
0.691206
0.652863
0.662834
0.690394
0.913045
0.984758
0.984434
0.984447
0.984471
0.984441
0.953169
0.452161
0.214024
0.207694
0.208519
0.571432
0.986919
0.999884
0.999982
0.99999
0.999999
0.999999
0.999999
0.963848
0.635295
0.873955
0.999692
0.999882
0.999923
0.999925
0.999924
0.999926
0.999925
0.999932
0.999922
0.99985
0.999598
0.998521
0.972524
0.69293
0.630573
0.641766
0.684503
0.935137
0.984212
0.985175
0.984745
0.984466
0.984485
0.984485
0.984737
0.651002
0.207824
0.208662
0.208004
0.217251
0.879439
0.999695
0.999894
0.999876
0.999998
0.999817
0.999999
0.953456
0.632441
0.871841
0.999705
0.999889
0.999915
0.999921
0.999925
0.999924
0.99993
0.999903
0.999762
0.99937
0.997938
0.957265
0.675326
0.608292
0.619694
0.656844
0.919013
0.981814
0.984158
0.984914
0.984494
0.98438
0.984475
0.984668
0.984756
0.60286
0.209087
0.206031
0.208142
0.207547
0.716882
0.999532
0.999798
0.999871
0.994665
0.999007
0.999997
0.944202
0.632441
0.883625
0.99953
0.999839
0.999903
0.999911
0.999921
0.999922
0.999892
0.999651
0.998957
0.996876
0.94237
0.626317
0.586486
0.59741
0.63178
0.906172
0.969508
0.974584
0.977586
0.964952
0.952252
0.978119
0.984483
0.984489
0.959254
0.474147
0.203702
0.203652
0.20544
0.207696
0.431202
0.966875
0.999691
0.99983
0.992802
0.997575
0.99999
0.914443
0.634155
0.905374
0.999375
0.999785
0.99987
0.999894
0.999908
0.999881
0.999581
0.998593
0.994936
0.906172
0.565558
0.567476
0.579379
0.607202
0.883641
0.949799
0.960555