/*--------------------------------*- C++ -*----------------------------------*\
  =========                 |
  \\      /  F ield         | OpenFOAM: The Open Source CFD Toolbox
   \\    /   O peration     | Website:  https://openfoam.org
    \\  /    A nd           | Version:  8
     \\/     M anipulation  |
\*---------------------------------------------------------------------------*/
FoamFile
{
    version     2.0;
    format      ascii;
    class       volScalarField;
    location    "4.2";
    object      k;
}
// * * * * * * * * * * * * * * * * * * * * * * * * * * * * * * * * * * * * * //

dimensions      [0 2 -2 0 0 0 0];

internalField   nonuniform List<scalar> 
9150
(
0.00182767
0.000940775
0.000475441
0.00030126
0.000191918
0.000191895
0.000301239
0.000475427
0.000940749
0.00182768
0.00178495
0.00074661
0.000398741
0.000256562
0.000160503
0.000160483
0.000256542
0.000398731
0.000746592
0.00178495
0.00171344
0.000651353
0.000365759
0.000236489
0.00014791
0.000147892
0.000236471
0.000365752
0.000651339
0.00171345
0.00163487
0.00060136
0.000352636
0.000228438
0.000143112
0.000143096
0.00022842
0.000352629
0.00060135
0.00163487
0.0015514
0.000579867
0.000347856
0.000225606
0.000141606
0.00014159
0.000225588
0.00034785
0.000579857
0.0015514
0.00284872
0.00255766
0.00185239
0.00161398
0.00132575
0.00132575
0.00161425
0.00185306
0.00255846
0.00284887
0.00230505
0.00150394
0.00128098
0.00120721
0.000971463
0.000971417
0.00120733
0.00128131
0.0015041
0.00230504
0.00204983
0.00125213
0.000887896
0.000805902
0.000623595
0.000623551
0.000805943
0.00088801
0.00125212
0.00204981
0.00186789
0.00111016
0.000649453
0.000529265
0.000385021
0.000384985
0.000529263
0.000649472
0.00111012
0.00186789
0.00178746
0.00102065
0.000523915
0.000371279
0.000252068
0.00025204
0.000371261
0.000523904
0.00102061
0.00178746
0.0115598
0.00493861
0.0025805
0.0018917
0.00153335
0.00153265
0.00189158
0.00257903
0.0049176
0.011767
0.00491795
0.00379408
0.00250473
0.00188993
0.00154092
0.00154078
0.00189082
0.00250598
0.00378904
0.00492374
0.00441143
0.00343014
0.00248563
0.00188906
0.0015489
0.001549
0.00188995
0.0024865
0.00342847
0.00441349
0.00392125
0.00315613
0.00246922
0.00188598
0.00155641
0.00155658
0.00188677
0.00247022
0.00315708
0.00392208
0.00336057
0.00310328
0.00236689
0.00184045
0.00152924
0.00152936
0.001841
0.00236779
0.00310488
0.00336089
0.000952295
0.00094402
0.000935559
0.000926934
0.00091817
0.0009093
0.000900359
0.000891383
0.000882399
0.000873404
0.00178777
0.00177494
0.00176212
0.00174937
0.00173671
0.00172421
0.00171187
0.00169972
0.00168773
0.00167584
0.00229103
0.0022799
0.00226875
0.00225758
0.00224639
0.00223519
0.00222394
0.00221261
0.00220114
0.00218942
0.00267059
0.0026614
0.00265217
0.00264287
0.00263347
0.00262393
0.00261418
0.00260415
0.00259371
0.00258274
0.00300012
0.00299254
0.00298488
0.0029771
0.00296914
0.00296093
0.00295237
0.00294333
0.00293364
0.00292312
0.00330802
0.00330166
0.00329515
0.00328845
0.0032815
0.0032742
0.0032664
0.00325793
0.00324855
0.00323801
0.00360849
0.00360294
0.00359716
0.00359111
0.00358473
0.00357793
0.0035705
0.00356218
0.00355265
0.0035416
0.00391007
0.00390496
0.00389948
0.00389364
0.00388744
0.00388078
0.00387343
0.00386496
0.00385485
0.00384271
0.00421857
0.00421355
0.00420796
0.00420191
0.00419549
0.00418872
0.00418137
0.00417267
0.00416161
0.00414763
0.0045382
0.00453298
0.00452685
0.00452009
0.00451295
0.00450574
0.00449854
0.00449004
0.00447775
0.00446084
0.00487179
0.00486598
0.00485879
0.00485075
0.00484203
0.00483317
0.00482555
0.00481755
0.00480405
0.00478361
0.00522028
0.00521295
0.00520371
0.0051937
0.0051825
0.0051701
0.00515976
0.00515163
0.005139
0.00511801
0.00558348
0.00557443
0.00556297
0.00555111
0.00553894
0.0055259
0.00551534
0.0055092
0.00550008
0.00548261
0.00596571
0.00596025
0.00595039
0.00593975
0.00593045
0.00592269
0.00591752
0.00591469
0.00590898
0.00589634
0.00638673
0.00638794
0.00638563
0.00638139
0.00637864
0.00637769
0.00637839
0.00637977
0.00637797
0.00636997
0.00686595
0.00687414
0.00688183
0.00688669
0.00689152
0.00689746
0.00690401
0.00690998
0.00691285
0.00691027
0.0074111
0.00742555
0.00744048
0.007454
0.00746685
0.00747975
0.00749265
0.00750493
0.00751513
0.00752128
0.00801749
0.00803768
0.00805847
0.00807931
0.0081002
0.00812126
0.00814291
0.00816549
0.00818834
0.00820967
0.00867713
0.00870233
0.00872867
0.00875697
0.00878759
0.0088201
0.00885559
0.00889541
0.00893924
0.00898523
0.00937914
0.00940876
0.00944205
0.00948037
0.00952566
0.00957724
0.00963553
0.00970218
0.00977674
0.00985732
0.0101077
0.0101427
0.0101879
0.010244
0.0103112
0.010389
0.0104773
0.0105765
0.0106875
0.0108116
0.0108489
0.0108965
0.0109599
0.0110411
0.0111374
0.0112449
0.0113659
0.0115032
0.01166
0.0118441
0.01161
0.0116786
0.0117676
0.0118769
0.0120067
0.012153
0.012319
0.012518
0.0127505
0.0130201
0.012419
0.0125126
0.0126304
0.0127722
0.012944
0.0131533
0.0133991
0.0136899
0.0140207
0.0143858
0.013304
0.0134258
0.0135798
0.0137755
0.0140216
0.0143239
0.0146756
0.0150714
0.0155048
0.0159616
0.0142981
0.0144605
0.0146744
0.0149493
0.015289
0.0156939
0.0161537
0.0166498
0.0171647
0.0176853
0.0154459
0.0156686
0.0159526
0.016307
0.0167354
0.0172333
0.017784
0.0183516
0.018906
0.0194458
0.0167743
0.0170589
0.0174071
0.0178236
0.0183093
0.0188565
0.0194462
0.0200403
0.0205968
0.021127
0.0182727
0.0186121
0.0190077
0.0194524
0.0199397
0.0204651
0.0210384
0.0216504
0.022225
0.0227871
0.0199388
0.0203137
0.0207297
0.0211746
0.0216485
0.0221832
0.0227881
0.0234056
0.0240086
0.0246249
0.0218191
0.0222195
0.0226478
0.0231154
0.0236421
0.0242301
0.0248511
0.02548
0.0261217
0.0267847
0.0239885
0.0244396
0.0249306
0.0254691
0.0260573
0.026682
0.0273302
0.027994
0.0286725
0.0293688
0.0265358
0.0270797
0.0276534
0.0282665
0.0289228
0.0296113
0.0303174
0.0310318
0.0317548
0.0324916
0.02945
0.0300996
0.0307817
0.0315058
0.0322718
0.0330655
0.0338667
0.0346666
0.0354711
0.0362923
0.032762
0.0335429
0.0343623
0.0352303
0.0361491
0.0370979
0.0380445
0.0389781
0.0399153
0.0408822
0.0364877
0.0374331
0.0384273
0.0394877
0.04062
0.0417879
0.0429362
0.0440543
0.0451751
0.0463433
0.0406052
0.0417436
0.0429445
0.0442333
0.0456274
0.0470796
0.0484754
0.0498326
0.0512072
0.0526502
0.0450392
0.0463968
0.0478252
0.0493499
0.0510016
0.0528055
0.0545596
0.0562219
0.057878
0.0596124
0.0496631
0.0512712
0.0529454
0.0547039
0.0565567
0.0585466
0.0605984
0.0626583
0.0647107
0.0669006
0.0543294
0.0562167
0.0581708
0.0602045
0.0623141
0.064532
0.0668477
0.0692254
0.0716723
0.0742209
0.0589809
0.0611457
0.0633766
0.0656897
0.0680983
0.0706059
0.0731941
0.0758464
0.0785599
0.0813435
0.0635176
0.0659469
0.0684447
0.0710261
0.0736982
0.0764592
0.0792929
0.0821863
0.085131
0.0881215
0.0678301
0.0704919
0.0732243
0.0760328
0.0789191
0.0818744
0.0848867
0.0879522
0.0910652
0.0942108
0.0717976
0.0746541
0.0775761
0.0805625
0.0836081
0.0867077
0.0898545
0.093044
0.096276
0.0995516
0.0753389
0.0783563
0.0814312
0.0845605
0.0877406
0.0909675
0.0942385
0.0975524
0.100913
0.104331
0.0784281
0.081586
0.0848002
0.0880705
0.0913949
0.094772
0.0982016
0.101686
0.105233
0.108853
0.0810597
0.0843673
0.0877418
0.091186
0.0947033
0.0982973
0.101972
0.105732
0.109585
0.113538
0.0832872
0.0867616
0.0903315
0.0940045
0.097791
0.101702
0.105751
0.10995
0.114296
0.118768
0.0852574
0.0889105
0.0927022
0.09665
0.100776
0.105106
0.109668
0.114477
0.119536
0.124819
0.0871567
0.0909995
0.0950294
0.0992823
0.103811
0.108623
0.113748
0.119251
0.125187
0.131595
0.0892017
0.0932537
0.0975301
0.10208
0.106948
0.112193
0.117899
0.12417
0.13112
0.138872
0.091548
0.0957767
0.100288
0.105128
0.110371
0.116115
0.122482
0.129617
0.13768
0.146844
0.0942086
0.0986736
0.103477
0.108698
0.114451
0.120876
0.128145
0.136458
0.146044
0.157158
0.09726
0.102049
0.107267
0.113041
0.119531
0.126939
0.13551
0.145539
0.157376
0.171418
0.100759
0.105979
0.111769
0.118302
0.125798
0.134537
0.144874
0.157242
0.172171
0.190285
0.104709
0.110483
0.116998
0.124483
0.133231
0.14362
0.156136
0.171404
0.190212
0.213539
0.109085
0.115507
0.122867
0.131449
0.141618
0.153853
0.168781
0.187231
0.210308
0.239478
0.113794
0.120935
0.129217
0.138969
0.150616
0.164704
0.181956
0.203335
0.230155
0.264219
0.11876
0.12667
0.135915
0.146853
0.159932
0.175715
0.194922
0.218502
0.247741
0.284414
0.123997
0.132732
0.142984
0.155124
0.169587
0.186894
0.207673
0.232707
0.262987
0.299741
0.129637
0.139305
0.150689
0.164155
0.180119
0.19904
0.221427
0.247857
0.278981
0.315391
0.135856
0.14667
0.159459
0.174611
0.192548
0.213715
0.238553
0.267382
0.299088
0.316619
0.142722
0.154993
0.169616
0.187055
0.20784
0.232549
0.26164
0.291431
0.3019
0.287734
0.150117
0.164146
0.181023
0.20135
0.225841
0.255248
0.286
0.295299
0.280379
0.259953
0.157802
0.173748
0.193094
0.216603
0.245157
0.277996
0.293468
0.279944
0.259662
0.239599
0.16563
0.183497
0.205304
0.231951
0.264074
0.290644
0.286847
0.267001
0.245766
0.225549
0.173717
0.193454
0.217582
0.247037
0.279472
0.294876
0.282258
0.259658
0.236766
0.215218
0.182247
0.203855
0.23025
0.261695
0.29137
0.300467
0.283127
0.256141
0.229959
0.206246
0.19126
0.21474
0.243537
0.277239
0.30496
0.307866
0.28434
0.25181
0.222087
0.19651
0.200806
0.226548
0.25859
0.294649
0.318756
0.312178
0.279653
0.242955
0.211299
0.185139
0.211134
0.239909
0.276309
0.313234
0.329188
0.308399
0.267776
0.229669
0.197941
0.172603
0.223192
0.255739
0.296044
0.329461
0.330685
0.295389
0.25123
0.213353
0.182974
0.159792
0.237237
0.274329
0.317296
0.341577
0.320154
0.273876
0.230527
0.194903
0.167381
0.147697
0.250534
0.291147
0.332378
0.336076
0.296338
0.248486
0.207821
0.175869
0.152516
0.137481
0.264105
0.308072
0.340327
0.316226
0.2664
0.221383
0.185141
0.158008
0.139815
0.13024
0.279287
0.323317
0.327305
0.283068
0.235254
0.195174
0.164304
0.142765
0.130386
0.126725
0.295887
0.326654
0.299389
0.250495
0.206775
0.171995
0.146764
0.13117
0.124909
0.127278
0.31282
0.315252
0.268232
0.221229
0.18222
0.152676
0.133147
0.123654
0.123593
0.131859
0.316447
0.289235
0.239906
0.196344
0.161841
0.13735
0.123537
0.120214
0.126296
0.140149
0.314678
0.266576
0.21793
0.177136
0.146022
0.125999
0.117759
0.12057
0.132638
0.151709
0.310287
0.252681
0.202383
0.162457
0.133715
0.117855
0.115216
0.124185
0.142093
0.166059
0.296984
0.239602
0.189771
0.150454
0.123739
0.112073
0.115206
0.130422
0.154123
0.182893
0.298531
0.234447
0.181646
0.141058
0.11554
0.107978
0.117039
0.138631
0.168214
0.202007
0.305557
0.233393
0.176053
0.133007
0.108143
0.104758
0.11998
0.148142
0.183856
0.22318
0.314637
0.234319
0.171568
0.125256
0.10069
0.101657
0.12331
0.158289
0.200508
0.246004
0.323657
0.235578
0.167148
0.117105
0.0925531
0.0980373
0.126336
0.168408
0.217646
0.269951
0.331985
0.236507
0.162363
0.108261
0.0833415
0.0933501
0.128355
0.177826
0.234919
0.295315
0.340265
0.237019
0.156989
0.0986051
0.0728432
0.0871302
0.128639
0.185779
0.251919
0.322626
0.347362
0.23609
0.150402
0.0880069
0.0610628
0.0790449
0.126437
0.191281
0.267796
0.35194
0.351968
0.232741
0.142028
0.0765099
0.0483882
0.0689969
0.121031
0.193032
0.280774
0.381546
0.352426
0.225748
0.131265
0.0642759
0.0356342
0.0572422
0.11194
0.189642
0.28822
0.407525
0.345964
0.214085
0.117832
0.0516919
0.023971
0.0444526
0.099126
0.180084
0.287308
0.423838
0.331443
0.197997
0.102126
0.0394294
0.0145917
0.0316528
0.0830349
0.164007
0.27609
0.425714
0.311873
0.178492
0.0848294
0.0282383
0.0081608
0.0201088
0.064587
0.141688
0.253174
0.407546
0.28751
0.155422
0.0665216
0.0187531
0.00446723
0.0111263
0.0454635
0.114649
0.219464
0.364737
0.258641
0.128755
0.0481814
0.0114389
0.00267452
0.00545771
0.0280424
0.0857715
0.181441
0.313817
0.21698
0.0976695
0.0314418
0.00657506
0.00193033
0.00275292
0.0147139
0.057347
0.141522
0.265461
0.167687
0.0681371
0.0190182
0.00394815
0.00165973
0.00182433
0.00659489
0.0322893
0.0993795
0.212018
0.109094
0.0435171
0.0107752
0.00264817
0.0015639
0.00158019
0.003079
0.0145793
0.0584818
0.146745
0.070061
0.0253205
0.00547259
0.00205957
0.00153465
0.0015329
0.0020574
0.00552501
0.0267173
0.0788525
0.000863544
0.000853644
0.000843725
0.00083372
0.000823536
0.000813051
0.000802122
0.000790593
0.000778304
0.00076511
0.0007509
0.000735608
0.000719236
0.000701862
0.000683658
0.000664885
0.000645878
0.000627008
0.000608613
0.000590915
0.000573934
0.000557447
0.000541069
0.000524376
0.000507115
0.000489168
0.000470402
0.000451106
0.000443599
0.000442722
0.000443756
0.000441879
0.000443931
0.000441788
0.000442295
0.000420409
0.000376621
0.000318184
0.000250028
0.000145018
0.00166314
0.00165015
0.001637
0.0016235
0.00160943
0.00159456
0.00157863
0.0015614
0.00154265
0.00152221
0.00149998
0.00147595
0.0014502
0.00142291
0.00139437
0.00136497
0.00133512
0.00130523
0.00127562
0.00124643
0.00121752
0.00118843
0.00115854
0.00112729
0.00109463
0.00106048
0.00102419
0.000984615
0.000940161
0.000893717
0.000846359
0.000798279
0.000750578
0.000703163
0.000654029
0.000597826
0.000530879
0.000451796
0.00035347
0.000215859
0.00217657
0.00216273
0.00214819
0.00213272
0.00211612
0.00209817
0.00207868
0.00205746
0.00203439
0.00200934
0.00198226
0.00195314
0.00192207
0.00188917
0.00185469
0.0018189
0.00178213
0.00174469
0.00170685
0.00166876
0.0016304
0.00159156
0.00155188
0.00151097
0.00146852
0.00142402
0.0013766
0.00132507
0.00126856
0.00120727
0.00114216
0.00107467
0.00100642
0.000938253
0.000868799
0.00079416
0.000711186
0.000617118
0.000502449
0.00033518
0.00257032
0.00255637
0.00254116
0.0025245
0.00250617
0.00248604
0.00246397
0.00243989
0.00241372
0.00238545
0.00235505
0.00232254
0.00228796
0.0022514
0.00221299
0.00217291
0.00213136
0.00208854
0.00204467
0.0019999
0.00195437
0.00190808
0.00186095
0.00181274
0.00176309
0.00171126
0.00165607
0.00159593
0.00152962
0.00145694
0.00137883
0.00129722
0.0012146
0.00113306
0.00105227
0.000970092
0.000881817
0.000779226
0.000653344
0.000472665
0.00291084
0.00289648
0.00288035
0.00286222
0.00284195
0.00281945
0.00279472
0.00276777
0.00273866
0.00270741
0.00267406
0.00263862
0.0026011
0.00256151
0.00251986
0.00247621
0.00243065
0.0023833
0.00233429
0.00228382
0.00223211
0.00217941
0.0021259
0.00207166
0.00201643
0.00195944
0.00189913
0.00183323
0.00175976
0.00167806
0.00158918
0.00149524
0.00139896
0.0013028
0.00120826
0.00112014
0.0010348
0.000930462
0.000789787
0.00058552
0.00322533
0.00321001
0.00319235
0.00317214
0.00314929
0.00312384
0.00309594
0.00306573
0.00303339
0.00299902
0.00296268
0.00292438
0.00288406
0.00284162
0.00279696
0.00274999
0.00270067
0.00264903
0.00259516
0.00253925
0.00248162
0.0024227
0.00236299
0.00230292
0.00224266
0.00218167
0.00211813
0.00204859
0.00196961
0.00188011
0.00178175
0.00167722
0.00156934
0.00146125
0.00135667
0.00125951
0.00116648
0.00105269
0.000888004
0.000647002
0.00352793
0.00351098
0.00349108
0.00346801
0.00344176
0.00341259
0.00338082
0.0033468
0.0033108
0.003273
0.00323348
0.0031922
0.00314903
0.00310375
0.0030561
0.00300583
0.00295277
0.00289683
0.00283805
0.00277661
0.00271292
0.00264755
0.00258123
0.00251479
0.00244895
0.00238383
0.00231788
0.00224612
0.00216203
0.00206482
0.00195824
0.00184603
0.00173019
0.00161317
0.00149828
0.00138699
0.00127509
0.00113997
0.000956967
0.000714464
0.00382736
0.00380807
0.00378517
0.00375837
0.00372784
0.00369411
0.00365777
0.00361935
0.00357922
0.0035376
0.00349459
0.00345011
0.00340393
0.00335567
0.00330489
0.00325115
0.00319413
0.00313363
0.0030697
0.00300255
0.00293263
0.0028606
0.00278727
0.00271366
0.00264084
0.00256965
0.00249938
0.00242454
0.00233584
0.00223194
0.0021198
0.00200438
0.00188466
0.00176039
0.00163441
0.00150708
0.0013769
0.00122841
0.0010309
0.000781906
0.00412969
0.00410722
0.00408058
0.00404924
0.00401361
0.00397467
0.00393325
0.00388998
0.00384527
0.0037994
0.00375247
0.00370439
0.00365485
0.00360329
0.00354902
0.00349135
0.00342978
0.00336412
0.00329445
0.00322112
0.00314469
0.00306584
0.00298542
0.00290435
0.00282354
0.00274338
0.00266273
0.00257998
0.00249143
0.00238666
0.00227284
0.00215708
0.00203557
0.00190648
0.00177415
0.00163739
0.00149238
0.00132877
0.00112819
0.000881604
0.00443889
0.00441218
0.00438131
0.00434516
0.00430435
0.00426024
0.0042137
0.00416534
0.00411561
0.00406488
0.00401337
0.00396105
0.00390758
0.00385221
0.00379385
0.00373141
0.00366426
0.00359227
0.0035158
0.00343545
0.00335191
0.00326594
0.00317833
0.00308993
0.00300152
0.00291299
0.002823
0.00273427
0.00264566
0.00254209
0.00242833
0.00231033
0.00218693
0.00205725
0.0019212
0.0017766
0.00162195
0.00145691
0.0012609
0.00101265
0.00475751
0.00472673
0.0046922
0.00465238
0.0046075
0.0045589
0.00450738
0.00445359
0.00439813
0.00434157
0.0042844
0.00422685
0.0041687
0.00410895
0.00404583
0.00397757
0.00390339
0.00382357
0.00373904
0.00365086
0.00356
0.0034672
0.00337303
0.00327809
0.00318313
0.00308892
0.00299651
0.00290782
0.00281791
0.00271352
0.00259744
0.00247536
0.00234936
0.00221714
0.00207512
0.00192349
0.00176315
0.00159163
0.00139658
0.00115372
0.00509129
0.00505943
0.00502285
0.00498078
0.00493315
0.00488068
0.00482414
0.00476431
0.00470209
0.0046384
0.00457416
0.00451011
0.00444641
0.00438196
0.00431372
0.00423855
0.00415563
0.00406628
0.00397245
0.00387589
0.00377785
0.00367909
0.00357993
0.00348058
0.00338153
0.00328417
0.00319048
0.00310028
0.00300758
0.00290075
0.00278164
0.00265644
0.00252526
0.00238602
0.0022381
0.0020803
0.00191177
0.00172655
0.00151328
0.00126142
0.00545825
0.00542726
0.00539005
0.00534616
0.00529553
0.0052386
0.00517615
0.0051092
0.00503896
0.00496678
0.00489404
0.00482206
0.00475186
0.00468278
0.00460954
0.00452652
0.00443313
0.0043327
0.00422848
0.00412278
0.00401712
0.00391224
0.00380835
0.00370536
0.00360344
0.00350367
0.003407
0.00331239
0.00321571
0.00310748
0.00298748
0.00285967
0.00272415
0.00257954
0.00242439
0.00225675
0.00207264
0.0018654
0.00162001
0.00133242
0.00587605
0.0058469
0.00580949
0.00576348
0.00570896
0.00564646
0.00557696
0.00550181
0.00542262
0.00534121
0.00525945
0.00517882
0.00510096
0.00502629
0.00494882
0.00485789
0.00475282
0.00464019
0.00452424
0.00440777
0.00429257
0.00417967
0.00406942
0.00396188
0.00385717
0.00375564
0.00365683
0.00355944
0.00345987
0.00335069
0.0032297
0.00309943
0.00295922
0.00280753
0.00264259
0.00246069
0.00225611
0.00201835
0.00172882
0.0013884
0.00635401
0.00632764
0.00629103
0.00624371
0.00618579
0.00611795
0.00604151
0.00595836
0.0058708
0.00578139
0.0056933
0.00560809
0.00552693
0.00545017
0.0053682
0.00526279
0.00514039
0.00501116
0.00487928
0.0047477
0.00461865
0.00449381
0.00437421
0.00426035
0.00415222
0.00404927
0.00395036
0.00385305
0.00375224
0.00364138
0.00351833
0.00338377
0.00323674
0.00307626
0.00289995
0.00270277
0.00247613
0.00220298
0.00184699
0.00139905
0.00690012
0.00687897
0.00684593
0.0068001
0.0067415
0.00667108
0.00659073
0.00650336
0.00641267
0.00632181
0.00623513
0.00615496
0.00607927
0.00600109
0.00590364
0.0057762
0.00563032
0.0054758
0.0053185
0.00516263
0.00501145
0.0048676
0.00473322
0.00460989
0.00449788
0.00439516
0.0042982
0.00420196
0.00409953
0.00398502
0.00385642
0.00371381
0.0035569
0.00338624
0.00319842
0.00298686
0.00273962
0.00243201
0.00200349
0.00140276
0.00752132
0.00751074
0.00748681
0.00744791
0.00739421
0.00732756
0.00725093
0.00716916
0.00708931
0.00701353
0.00694068
0.00686947
0.00679612
0.00671036
0.00659447
0.00644276
0.00626634
0.00607561
0.00587953
0.00568551
0.00549902
0.00532393
0.00516382
0.00502251
0.00490228
0.00480073
0.0047073
0.00461011
0.00450046
0.00437449
0.00423206
0.00407437
0.00390391
0.00372153
0.00352334
0.00330105
0.0030387
0.00270295
0.00220548
0.00139922
0.00822742
0.00823559
0.00822843
0.00820374
0.00816248
0.00810878
0.00804738
0.00798467
0.00792938
0.00788188
0.00783388
0.00778553
0.00772855
0.00764272
0.00750939
0.00733145
0.00711701
0.00687769
0.00662702
0.00637752
0.00613751
0.00591244
0.00570709
0.00552692
0.0053764
0.00526439
0.0051748
0.00506556
0.00493184
0.00477804
0.004608
0.00442488
0.00423454
0.00403761
0.00383119
0.00360569
0.00334022
0.00299099
0.00244288
0.0014031
0.00903115
0.00906839
0.0090866
0.00908403
0.00906409
0.00903482
0.00900401
0.00897847
0.00896651
0.00896423
0.00895959
0.00894783
0.00891982
0.00885065
0.00871964
0.00852829
0.00828048
0.0079894
0.00767405
0.00734978
0.007028
0.00672241
0.00644405
0.00619971
0.00600057
0.00586184
0.00574869
0.00558591
0.00538981
0.00517981
0.00495855
0.0047299
0.00449883
0.00427179
0.00405151
0.00382884
0.0035763
0.00323388
0.00265491
0.00142976
0.00994161
0.0100191
0.0100742
0.0101045
0.0101195
0.0101353
0.0101617
0.0102048
0.0102689
0.0103459
0.01042
0.0104788
0.010505
0.0104717
0.0103598
0.0101754
0.00991733
0.00958673
0.00919829
0.00877617
0.00833089
0.00789033
0.00748683
0.00714258
0.00687378
0.00667497
0.00648752
0.00624485
0.00596243
0.00566232
0.00534213
0.00501286
0.00468675
0.00438152
0.00411231
0.00387619
0.00364054
0.00332021
0.00271554
0.0014466
0.0109475
0.0110817
0.0111935
0.0112835
0.0113685
0.0114694
0.0115955
0.0117462
0.0119252
0.0121273
0.0123275
0.0124949
0.0126142
0.0126538
0.0126022
0.0124596
0.0122146
0.011852
0.0113761
0.0108004
0.0101794
0.00955
0.00896957
0.00848093
0.00808969
0.00777358
0.007466
0.00711117
0.00671349
0.00627735
0.00580699
0.00531207
0.00481448
0.00434858
0.00395404
0.00366088
0.00341948
0.00309492
0.00250059
0.00142036
0.0120541
0.0122719
0.0124751
0.0126699
0.0128721
0.0130911
0.0133456
0.0136409
0.0139755
0.0143458
0.0147081
0.0150359
0.0153042
0.0154819
0.0155427
0.0154622
0.015213
0.0147961
0.0142249
0.0135057
0.0126723
0.0118218
0.0110267
0.0103423
0.00976655
0.00927015
0.00878453
0.00826186
0.00768762
0.00704967
0.00635587
0.00562705
0.00489454
0.00420128
0.00361868
0.00323036
0.00296648
0.00264816
0.00212067
0.0014084
0.0133221
0.0136412
0.013961
0.0142864
0.0146292
0.0149895
0.0153868
0.0158478
0.0163692
0.0169308
0.0174986
0.0180332
0.01849
0.0188312
0.0190152
0.0190078
0.018783
0.0183434
0.0176987
0.0168657
0.01588
0.0148099
0.0137759
0.0128445
0.0120231
0.0112894
0.0105841
0.00985712
0.00906967
0.00818845
0.00721299
0.0061794
0.00514888
0.00419301
0.00341621
0.00289341
0.00259313
0.00228273
0.00185424
0.00139473
0.0147919
0.0152206
0.0156527
0.016103
0.0165857
0.0171032
0.0176602
0.0182831
0.0189868
0.0197501
0.020537
0.0212816
0.0219227
0.0224103
0.0227044
0.0227843
0.0226316
0.022239
0.021616
0.0207964
0.0198195
0.0186994
0.017495
0.0162949
0.0151817
0.0141906
0.0132919
0.012432
0.011525
0.0105021
0.00932706
0.0080165
0.00668671
0.00554003
0.00468867
0.00404731
0.00319758
0.00231997
0.00168418
0.00135637
0.0164554
0.0169827
0.0175147
0.0180702
0.0186721
0.0193279
0.0200402
0.0208242
0.0216865
0.0226243
0.0235981
0.0245125
0.0252714
0.0258254
0.0261739
0.0263311
0.0263078
0.0261201
0.0257975
0.0253376
0.0246986
0.0238344
0.022622
0.0211693
0.0197272
0.0184862
0.0174666
0.0165872
0.0156903
0.0146904
0.013537
0.0122101
0.010772
0.00953425
0.0086731
0.00795797
0.0070118
0.00489888
0.00293644
0.00167882
0.0182353
0.018829
0.0194399
0.0200865
0.0207902
0.0215595
0.0223949
0.0233026
0.0242827
0.0253168
0.026364
0.0273101
0.0280296
0.0285187
0.0288446
0.0290528
0.0291878
0.0293184
0.0295385
0.0298679
0.0300683
0.0297642
0.0288798
0.0274478
0.0257911
0.0243998
0.0233083
0.0223226
0.0212192
0.0200064
0.0186835
0.0172392
0.0156484
0.0139907
0.0124636
0.0110185
0.00963232
0.00813549
0.00533667
0.00243038
0.020012
0.0206388
0.0213075
0.0220313
0.02282
0.0236749
0.0245876
0.0255484
0.0265424
0.0275609
0.028557
0.0293885
0.0299623
0.0303693
0.0306784
0.0309328
0.0311818
0.0314866
0.0319082
0.0324521
0.0329302
0.033092
0.0330242
0.0328294
0.0324594
0.0318042
0.0309018
0.0294018
0.0276326
0.0258238
0.0239869
0.0221412
0.0202409
0.0181786
0.0161389
0.0142241
0.0124042
0.0107868
0.00834709
0.00387724
0.0217022
0.0223619
0.0230834
0.0238705
0.0247209
0.0256212
0.0265469
0.0274727
0.0283775
0.0292806
0.0301534
0.0308552
0.0313807
0.0317889
0.0321146
0.0323911
0.0326533
0.0329358
0.0332626
0.0336381
0.0340548
0.0345464
0.0351832
0.0360554
0.0371568
0.0378084
0.0371067
0.03543
0.0333845
0.031239
0.0290204
0.0267225
0.0243294
0.0219251
0.0195663
0.017181
0.0146811
0.0117066
0.0076718
0.00370192
0.023406
0.0241166
0.0248869
0.025713
0.0265831
0.0274736
0.0283431
0.029171
0.0300008
0.0308273
0.031592
0.0322568
0.0328097
0.0332606
0.0336288
0.0339365
0.034208
0.0344661
0.0347301
0.0350158
0.035343
0.0357397
0.0362135
0.0367258
0.0371376
0.0371766
0.0366745
0.0357253
0.0344395
0.0329123
0.0311544
0.0291365
0.0268991
0.0246793
0.0224124
0.0198688
0.0169008
0.0137418
0.0100598
0.00449552
0.025301
0.026063
0.0268676
0.0277043
0.0285527
0.0293748
0.0301616
0.0309618
0.0317786
0.032569
0.0333101
0.033989
0.0345913
0.0351089
0.035545
0.0359137
0.0362311
0.0365116
0.0367658
0.0369997
0.0372135
0.0373971
0.0375206
0.0375372
0.0373967
0.037049
0.0364438
0.035534
0.0343257
0.0328524
0.0311642
0.0293493
0.0275136
0.0256952
0.0236839
0.0212812
0.0184438
0.0151681
0.0112919
0.00511636
0.0275049
0.0283003
0.0291195
0.0299464
0.0307526
0.0315283
0.0323198
0.0331451
0.0339651
0.0347611
0.0355258
0.0362476
0.0369154
0.0375136
0.0380362
0.0384891
0.0388808
0.0392178
0.0395015
0.0397263
0.0398794
0.0399401
0.0398798
0.0396702
0.0392928
0.0387298
0.0379534
0.0369386
0.0356878
0.0342286
0.0326074
0.0308792
0.0290694
0.0271266
0.0249306
0.0224343
0.0195854
0.0161118
0.0115685
0.00466914
0.0301185
0.0309374
0.0317724
0.0326031
0.0334107
0.0342283
0.0350849
0.0359446
0.036783
0.0376044
0.0384069
0.0391826
0.0399224
0.0406065
0.0412215
0.0417651
0.0422396
0.0426448
0.0429748
0.0432169
0.0433528
0.0433614
0.0432222
0.0429161
0.0424301
0.0417537
0.0408758
0.0397912
0.038509
0.0370498
0.03544
0.0337008
0.0318347
0.0298146
0.0275712
0.025009
0.0219759
0.0181944
0.0132195
0.0056507
0.0332825
0.0341462
0.035032
0.0359275
0.0368355
0.0377739
0.0387115
0.039603
0.040462
0.0413087
0.0421478
0.042974
0.0437781
0.0445366
0.0452311
0.0458508
0.0463912
0.0468468
0.0472073
0.0474574
0.0475786
0.0475529
0.0473646
0.0470009
0.0464527
0.0457139
0.0447814
0.0436576
0.0423513
0.0408753
0.039241
0.0374511
0.0354938
0.03334
0.0309354
0.0281872
0.0249416
0.0209345
0.0156108
0.00711213
0.0371806
0.0381599
0.0391801
0.0402456
0.0413539
0.0424564
0.0434745
0.0443933
0.0452667
0.0461297
0.0469936
0.047856
0.0487024
0.0495059
0.0502405
0.0508883
0.0514392
0.0518846
0.0522145
0.0524168
0.0524778
0.0523848
0.0521273
0.051697
0.0510867
0.050291
0.0493077
0.048139
0.0467901
0.0452666
0.0435709
0.0416981
0.0396306
0.0373354
0.0347564
0.0317981
0.0282942
0.0239424
0.0180873
0.00866709
0.0419499
0.0431555
0.0444359
0.0457934
0.0471822
0.0484805
0.0495887
0.0505515
0.0514568
0.0523549
0.0532579
0.054155
0.0550094
0.0557921
0.0564724
0.0570357
0.0574731
0.0577853
0.0579739
0.058035
0.0579599
0.0577402
0.0573695
0.0568415
0.0561483
0.0552806
0.0542322
0.0530023
0.0515928
0.0500044
0.0482351
0.0462774
0.0441138
0.0417105
0.0390067
0.0358955
0.0321878
0.0275214
0.0210683
0.0104552
0.0476638
0.0492017
0.0508499
0.0525534
0.0542363
0.0557722
0.0570537
0.0581633
0.0592082
0.0602488
0.0612837
0.0622623
0.0630991
0.0637497
0.0641664
0.0643861
0.0644605
0.064449
0.0643649
0.0641946
0.0639192
0.063523
0.0629988
0.0623418
0.0615421
0.0605847
0.059456
0.058152
0.0566724
0.0550134
0.0531683
0.0511271
0.0488724
0.0463714
0.0435591
0.0403163
0.0364289
0.0314754
0.0244374
0.0123481
0.0542987
0.0562571
0.0583303
0.060334
0.06225
0.0640196
0.0655781
0.0670517
0.0684689
0.0698155
0.0710463
0.0721024
0.0728758
0.0731748
0.0729819
0.0725519
0.0721053
0.07169
0.0712796
0.0708385
0.0703334
0.0697338
0.0690244
0.0682033
0.0672632
0.0661897
0.0649616
0.0635687
0.062011
0.0602793
0.0583587
0.056234
0.0538853
0.0512804
0.0483507
0.0449634
0.0408773
0.0356134
0.0279625
0.0142449
0.0615313
0.0637093
0.0660778
0.0683689
0.0705334
0.0726599
0.0747847
0.0768058
0.0785451
0.0799157
0.0808952
0.081448
0.0816468
0.0815848
0.0813162
0.0808594
0.0802859
0.0796352
0.0789347
0.0781939
0.077403
0.076542
0.0755911
0.0745444
0.0733992
0.07215
0.0707815
0.0692713
0.0676146
0.0658004
0.0638036
0.0615977
0.0591504
0.0564326
0.0533725
0.0498193
0.0455079
0.0399105
0.0316483
0.0161425
0.0693059
0.0719878
0.0744834
0.0766256
0.0787606
0.0809418
0.0830753
0.085084
0.0869254
0.0884671
0.0896161
0.0903528
0.0907088
0.0907458
0.0905091
0.0900221
0.0893335
0.0884886
0.0875227
0.0864632
0.0853274
0.0841229
0.0828471
0.0814965
0.0800671
0.0785563
0.0769642
0.0752754
0.0734726
0.0715408
0.06945
0.0671622
0.064624
0.0618037
0.058612
0.0548766
0.0503113
0.0443454
0.0354553
0.0180544
0.0769845
0.0798723
0.0825852
0.0851147
0.0875649
0.0899297
0.0921452
0.0942199
0.096138
0.0978263
0.0991953
0.100186
0.100772
0.10096
0.100773
0.100246
0.0994299
0.0983762
0.0971276
0.0957277
0.0942129
0.0926069
0.0909262
0.0891832
0.0873838
0.0855283
0.0836197
0.0816537
0.0796159
0.0774878
0.0752403
0.0728211
0.0701624
0.067265
0.0639878
0.0600863
0.0552443
0.0488585
0.0392611
0.0200559
0.0843165
0.087464
0.0905368
0.093505
0.0963569
0.0990389
0.101542
0.103868
0.106009
0.107933
0.109566
0.110823
0.111646
0.112019
0.111943
0.111439
0.110545
0.109308
0.107785
0.10604
0.10412
0.10207
0.0999246
0.0977147
0.095462
0.0931793
0.0908737
0.0885465
0.0861858
0.0837675
0.0812565
0.0786065
0.0757619
0.0726986
0.0693124
0.0653263
0.0602478
0.0534162
0.0430405
0.0219157
0.0912983
0.0946857
0.0980387
0.101316
0.104507
0.107599
0.110549
0.113333
0.115927
0.118284
0.120326
0.121965
0.123135
0.123792
0.123916
0.123506
0.122592
0.121216
0.119454
0.117377
0.115052
0.112539
0.109896
0.107171
0.104403
0.10162
0.0988398
0.0960699
0.0933024
0.0905133
0.0876615
0.0846925
0.0815572
0.0782243
0.0745977
0.0704478
0.0651897
0.0579404
0.0467804
0.023733
0.0975468
0.101125
0.104729
0.108326
0.111917
0.115477
0.118967
0.122344
0.125557
0.128529
0.131164
0.133361
0.135027
0.136093
0.136513
0.136279
0.135412
0.133956
0.132002
0.129633
0.12693
0.123971
0.120828
0.11757
0.114251
0.110916
0.107598
0.104312
0.101057
0.0978162
0.0945434
0.0911809
0.0876743
0.0839764
0.0800052
0.0755542
0.0700406
0.0623642
0.0504134
0.0254266
0.103049
0.106834
0.110687
0.114617
0.118624
0.122691
0.12678
0.130835
0.134778
0.138504
0.141885
0.144786