/*--------------------------------*- C++ -*----------------------------------*\
  =========                 |
  \\      /  F ield         | OpenFOAM: The Open Source CFD Toolbox
   \\    /   O peration     | Website:  https://openfoam.org
    \\  /    A nd           | Version:  8
     \\/     M anipulation  |
\*---------------------------------------------------------------------------*/
FoamFile
{
    version     2.0;
    format      ascii;
    class       surfaceScalarField;
    location    "4.2";
    object      phi;
}
// * * * * * * * * * * * * * * * * * * * * * * * * * * * * * * * * * * * * * //

dimensions      [0 3 -1 0 0 0 0];

internalField   nonuniform List<scalar> 
18095
(
1.58392e-07
-9.6565e-07
8.07258e-07
1.65315e-07
-1.24818e-06
1.24126e-06
1.22156e-07
-1.24222e-06
1.28538e-06
6.5299e-08
-1.26348e-06
1.32034e-06
3.25614e-12
-1.28046e-06
1.34576e-06
-6.52931e-08
-1.28046e-06
1.34576e-06
-1.22152e-07
-1.26348e-06
1.32034e-06
-1.6531e-07
-1.24222e-06
1.28538e-06
-1.58388e-07
-1.24818e-06
1.24126e-06
-9.65657e-07
8.07268e-07
1.10984e-07
-1.07663e-06
9.93675e-08
-1.23657e-06
7.2831e-08
-1.21569e-06
4.00196e-08
-1.23067e-06
1.66442e-12
-1.24044e-06
-4.00165e-08
-1.24044e-06
-7.28286e-08
-1.23067e-06
-9.93648e-08
-1.21569e-06
-1.1098e-07
-1.23656e-06
-1.07664e-06
6.71183e-08
-1.14375e-06
5.27266e-08
-1.22217e-06
4.21214e-08
-1.20508e-06
2.38485e-08
-1.2124e-06
7.97183e-13
-1.2166e-06
-2.3847e-08
-1.2166e-06
-4.21202e-08
-1.2124e-06
-5.27254e-08
-1.20508e-06
-6.71162e-08
-1.22217e-06
-1.14375e-06
3.95984e-08
-1.18335e-06
2.66109e-08
-1.20919e-06
2.20031e-08
-1.20047e-06
1.25187e-08
-1.20291e-06
2.96694e-13
-1.20408e-06
-1.25181e-08
-1.20408e-06
-2.20026e-08
-1.20291e-06
-2.66104e-08
-1.20047e-06
-3.95973e-08
-1.20919e-06
-1.18335e-06
1.66496e-08
7.46318e-09
6.99001e-09
4.07898e-09
-4.49771e-14
-4.07901e-09
-6.98999e-09
-7.46321e-09
-1.66493e-08
-1.74882e-07
-1.16407e-06
1.33895e-06
-2.19019e-07
-1.21642e-06
1.26055e-06
-1.65138e-07
-1.21285e-06
1.15897e-06
-8.71003e-08
-1.20405e-06
1.12602e-06
6.93707e-11
-1.20253e-06
1.11536e-06
8.72351e-08
-1.20254e-06
1.11537e-06
1.65254e-07
-1.20407e-06
1.12606e-06
2.19129e-07
-1.21287e-06
1.159e-06
1.75001e-07
-1.21646e-06
1.26059e-06
-1.16413e-06
1.33913e-06
-9.29974e-08
-1.07107e-06
-9.56448e-08
-1.21377e-06
-7.92481e-08
-1.22924e-06
-4.41904e-08
-1.23911e-06
3.84005e-11
-1.24676e-06
4.42637e-08
-1.24676e-06
7.93146e-08
-1.23913e-06
9.57024e-08
-1.22926e-06
9.30301e-08
-1.21379e-06
-1.0711e-06
-5.79245e-08
-1.01315e-06
-5.51507e-08
-1.21654e-06
-4.65094e-08
-1.23788e-06
-2.71182e-08
-1.2585e-06
2.1638e-11
-1.2739e-06
2.71595e-08
-1.2739e-06
4.6545e-08
-1.25851e-06
5.5177e-08
-1.23789e-06
5.7937e-08
-1.21655e-06
-1.01317e-06
-7.47344e-08
-9.38412e-07
-6.19282e-08
-1.22935e-06
-4.85807e-08
-1.25123e-06
-2.77768e-08
-1.27931e-06
1.18276e-11
-1.30168e-06
2.77991e-08
-1.30169e-06
4.85993e-08
-1.27931e-06
6.19408e-08
-1.25123e-06
7.474e-08
-1.22935e-06
-9.38427e-07
-1.31154e-07
-1.19246e-07
-8.50968e-08
-4.40671e-08
6.36883e-12
4.4079e-08
8.51062e-08
1.19253e-07
1.31159e-07
-3.21326e-08
-9.26067e-07
9.582e-07
1.03067e-08
-1.34225e-06
1.29981e-06
1.28862e-08
-1.27669e-06
1.27411e-06
6.67356e-09
-1.22823e-06
1.23445e-06
9.79396e-10
-1.2255e-06
1.2312e-06
-4.73975e-09
-1.22577e-06
1.23148e-06
-1.10586e-08
-1.22828e-06
1.2346e-06
-8.59475e-09
-1.27685e-06
1.27439e-06
3.13721e-08
-1.34314e-06
1.30317e-06
-9.27216e-07
9.58588e-07
1.66417e-08
-9.42709e-07
2.2591e-08
-1.34819e-06
1.45954e-08
-1.26869e-06
7.75712e-09
-1.2214e-06
5.37753e-10
-1.21828e-06
-6.81471e-09
-1.21841e-06
-1.37852e-08
-1.22131e-06
-2.189e-08
-1.26875e-06
-1.67467e-08
-1.34828e-06
-9.43963e-07
3.00529e-08
-9.72762e-07
2.09914e-08
-1.33913e-06
1.20404e-08
-1.25974e-06
6.9457e-09
-1.2163e-06
2.85369e-10
-1.21162e-06
-6.5046e-09
-1.21162e-06
-1.15394e-08
-1.21628e-06
-2.04914e-08
-1.25979e-06
-2.96267e-08
-1.33915e-06
-9.73589e-07
8.02453e-08
-1.05301e-06
5.36975e-08
-1.31259e-06
3.44509e-08
-1.2405e-06
2.12756e-08
-1.20313e-06
1.71308e-10
-1.19052e-06
-2.09317e-08
-1.19052e-06
-3.40281e-08
-1.20318e-06
-5.32609e-08
-1.24056e-06
-7.98349e-08
-1.31257e-06
-1.05342e-06
2.85944e-07
2.33911e-07
1.5238e-07
7.52709e-08
1.11235e-10
-7.50389e-08
-1.52165e-07
-2.33728e-07
-2.8571e-07
1.39386e-07
1.2835e-09
-1.40669e-07
1.37918e-07
1.46859e-09
1.36276e-07
1.6417e-09
1.34474e-07
1.80184e-09
1.32526e-07
1.94852e-09
1.30445e-07
2.08118e-09
1.28246e-07
2.19936e-09
1.25944e-07
2.30188e-09
1.23556e-07
2.3881e-09
2.45908e-09
1.21097e-07
1.40339e-07
2.11297e-09
-1.41168e-07
1.39379e-07
2.42915e-09
1.38288e-07
2.73267e-09
1.37068e-07
3.02164e-09
1.35722e-07
3.29464e-09
1.34253e-07
3.55063e-09
1.32664e-07
3.78795e-09
1.30962e-07
4.00416e-09
1.29153e-07
4.19746e-09
4.36733e-09
1.27245e-07
1.33698e-07
3.11603e-09
-1.34701e-07
1.32592e-07
3.53484e-09
1.31387e-07
3.93768e-09
1.30086e-07
4.32309e-09
1.28691e-07
4.68986e-09
1.27206e-07
5.03594e-09
1.25635e-07
5.35865e-09
1.23984e-07
5.65561e-09
1.22256e-07
5.92487e-09
6.16419e-09
1.2046e-07
1.26431e-07
4.2583e-09
-1.27574e-07
1.252e-07
4.76616e-09
1.23884e-07
5.25355e-09
1.22488e-07
5.71964e-09
1.21015e-07
6.16283e-09
1.1947e-07
6.5807e-09
1.17859e-07
6.97012e-09
1.16186e-07
7.32791e-09
1.1446e-07
7.6513e-09
7.93877e-09
1.12686e-07
1.18565e-07
5.51728e-09
-1.19824e-07
1.1723e-07
6.10073e-09
1.15824e-07
6.66033e-09
1.14348e-07
7.19528e-09
1.12807e-07
7.70356e-09
1.11206e-07
8.18181e-09
1.09551e-07
8.62576e-09
1.07848e-07
9.03071e-09
1.06106e-07
9.39304e-09
9.71065e-09
1.04334e-07
1.10013e-07
6.88273e-09
-1.11379e-07
1.08586e-07
7.52818e-09
1.07099e-07
8.14776e-09
1.05553e-07
8.74106e-09
1.03951e-07
9.30554e-09
1.02296e-07
9.83621e-09
1.00596e-07
1.0326e-08
9.88594e-08
1.07673e-08
9.7098e-08
1.11545e-08
1.14851e-08
9.53235e-08
1.00689e-07
8.34967e-09
-1.02156e-07
9.91757e-08
9.04164e-09
9.76153e-08
9.70823e-09
9.6006e-08
1.03503e-08
9.43468e-08
1.09648e-08
9.26392e-08
1.15438e-08
9.08901e-08
1.2075e-08
8.91148e-08
1.25426e-08
8.73318e-08
1.29373e-08
1.32614e-08
8.55554e-08
9.04985e-08
9.91849e-09
-9.20673e-08
8.89026e-08
1.06377e-08
8.72748e-08
1.13359e-08
8.56076e-08
1.20174e-08
8.38928e-08
1.26795e-08
8.21257e-08
1.33108e-08
8.03137e-08
1.3887e-08
7.84848e-08
1.43715e-08
7.66783e-08
1.47439e-08
1.50278e-08
7.4912e-08
7.93335e-08
1.16021e-08
-8.10171e-08
7.76502e-08
1.2321e-08
7.59569e-08
1.30292e-08
7.42355e-08
1.37388e-08
7.24643e-08
1.44508e-08
7.0618e-08
1.51571e-08
6.86945e-08
1.58105e-08
6.67669e-08
1.6299e-08
6.49342e-08
1.65766e-08
1.67438e-08
6.32182e-08
6.70688e-08
1.34394e-08
-6.8906e-08
6.52747e-08
1.4115e-08
6.35018e-08
1.4802e-08
6.17187e-08
1.5522e-08
5.98894e-08
1.62801e-08
5.79221e-08
1.71243e-08
5.57593e-08
1.79733e-08
5.35969e-08
1.84615e-08
5.16998e-08
1.84738e-08
1.82681e-08
5.01756e-08
5.35847e-08
1.55165e-08
-5.56619e-08
5.16288e-08
1.60708e-08
4.97076e-08
1.67232e-08
4.77848e-08
1.74448e-08
4.58652e-08
1.81998e-08
4.38432e-08
1.91463e-08
4.13432e-08
2.04733e-08
3.84146e-08
2.13902e-08
3.65446e-08
2.03437e-08
1.96236e-08
3.5189e-08
3.88559e-08
1.79631e-08
-4.13025e-08
3.66543e-08
1.82722e-08
3.4532e-08
1.88455e-08
3.21022e-08
1.98745e-08
2.9784e-08
2.0518e-08
2.78651e-08
2.10652e-08
2.5084e-08
2.32544e-08
2.30879e-08
2.33864e-08
2.20554e-08
2.13761e-08
1.97943e-08
2.18847e-08
2.34907e-08
2.05694e-08
-2.60971e-08
2.12936e-08
2.0469e-08
1.88102e-08
2.13289e-08
1.65407e-08
2.21441e-08
1.43275e-08
2.27313e-08
1.23219e-08
2.30709e-08
1.22626e-08
2.33138e-08
1.25493e-08
2.30998e-08
1.22922e-08
2.16331e-08
2.0274e-08
1.18124e-08
1.00446e-08
2.32927e-08
-1.27681e-08
6.96548e-09
2.35478e-08
4.73984e-09
2.35545e-08
3.10556e-09
2.37783e-08
1.96426e-09
2.38726e-08
1.2418e-09
2.37933e-08
6.92853e-10
2.38626e-08
6.70594e-10
2.3122e-08
3.50657e-10
2.19531e-08
2.09054e-08
-2.80655e-10
-2.50663e-09
2.57633e-08
3.59332e-11
-5.25989e-09
2.63007e-08
-6.91218e-09
2.52067e-08
-8.22783e-09
2.5094e-08
-9.59322e-09
2.52381e-08
-1.08473e-08
2.50475e-08
-1.16203e-08
2.46356e-08
-1.24741e-08
2.39758e-08
-1.36195e-08
2.30985e-08
2.21647e-08
-1.48789e-08
-1.64214e-08
2.75441e-08
1.46404e-08
-1.78925e-08
2.77716e-08
-2.02681e-08
2.75824e-08
-2.24748e-08
2.73006e-08
-2.43169e-08
2.70801e-08
-2.60066e-08
2.67371e-08
-2.76359e-08
2.62649e-08
-2.92928e-08
2.56327e-08
-3.10456e-08
2.48513e-08
2.39918e-08
-3.28725e-08
-3.246e-08
2.99156e-08
3.00884e-08
-3.47924e-08
3.01038e-08
-3.72567e-08
3.00466e-08
-3.98072e-08
2.98511e-08
-4.22773e-08
2.95501e-08
-4.46749e-08
2.91346e-08
-4.70266e-08
2.86165e-08
-4.93915e-08
2.79976e-08
-5.18036e-08
2.72633e-08
2.64076e-08
-5.42193e-08
-5.17639e-08
3.29102e-08
4.87692e-08
-5.47292e-08
3.3069e-08
-5.77455e-08
3.30629e-08
-6.07828e-08
3.28883e-08
-6.38364e-08
3.26036e-08
-6.68289e-08
3.2127e-08
-6.97971e-08
3.15846e-08
-7.27934e-08
3.09939e-08
-7.58443e-08
3.03141e-08
2.94698e-08
-7.89066e-08
-7.42201e-08
3.6551e-08
7.05792e-08
-7.78186e-08
3.66673e-08
-8.13948e-08
3.66389e-08
-8.51299e-08
3.66233e-08
-8.87686e-08
3.62423e-08
-9.22522e-08
3.56106e-08
-9.58031e-08
3.51355e-08
-9.94492e-08
3.46401e-08
-1.03227e-07
3.40914e-08
3.3316e-08
-1.07073e-07
-9.97153e-08
4.08305e-08
9.54358e-08
-1.04159e-07
4.11105e-08
-1.08352e-07
4.08325e-08
-1.12327e-07
4.05985e-08
-1.16436e-07
4.03504e-08
-1.2071e-07
3.98844e-08
-1.25143e-07
3.95687e-08
-1.2973e-07
3.92268e-08
-1.34441e-07
3.88027e-08
3.81974e-08
-1.39323e-07
-1.27977e-07
4.5706e-08
1.23101e-07
-1.32312e-07
4.54453e-08
-1.37273e-07
4.57937e-08
-1.42287e-07
4.56127e-08
-1.47468e-07
4.55313e-08
-1.53025e-07
4.54419e-08
-1.58848e-07
4.53913e-08
-1.65135e-07
4.55139e-08
-1.71467e-07
4.51348e-08
4.44634e-08
-1.77733e-07
-1.56814e-07
5.09483e-08
1.51572e-07
-1.6233e-07
5.09606e-08
-1.6794e-07
5.14042e-08
-1.74283e-07
5.19555e-08
-1.81186e-07
5.24345e-08
-1.88223e-07
5.24788e-08
-1.95889e-07
5.30569e-08
-2.02171e-07
5.17955e-08
-2.07511e-07
5.04753e-08
4.73143e-08
-2.10362e-07
-1.85338e-07
5.64748e-08
1.79812e-07
-1.91795e-07
5.74175e-08
-1.99056e-07
5.86652e-08
-2.0684e-07
5.97399e-08
-2.15534e-07
6.11284e-08
-2.23359e-07
6.0303e-08
-2.29636e-07
5.9334e-08
-2.35234e-07
5.73936e-08
-2.38198e-07
5.34395e-08
5.0924e-08
-2.41808e-07
-2.13164e-07
6.32444e-08
2.06395e-07
-2.208e-07
6.50538e-08
-2.29365e-07
6.723e-08
-2.3768e-07
6.80554e-08
-2.44706e-07
6.81538e-08
-2.51545e-07
6.71426e-08
-2.56245e-07
6.40342e-08
-2.60897e-07
6.2045e-08
-2.65461e-07
5.8004e-08
5.34456e-08
-2.67983e-07
-2.39934e-07
7.07261e-08
2.32452e-07
-2.47968e-07
7.30879e-08
-2.55226e-07
7.44875e-08
-2.61683e-07
7.45123e-08
-2.67565e-07
7.4036e-08
-2.73219e-07
7.27961e-08
-2.79866e-07
7.06813e-08
-2.85385e-07
6.75637e-08
-2.90474e-07
6.30934e-08
5.78408e-08
-2.94869e-07
-2.64397e-07
7.75741e-08
2.5755e-07
-2.69911e-07
7.8602e-08
-2.7528e-07
7.98561e-08
-2.8135e-07
8.05826e-08
-2.87918e-07
8.06035e-08
-2.95224e-07
8.01029e-08
-3.02892e-07
7.83495e-08
-3.10121e-07
7.47925e-08
-3.16429e-07
6.94009e-08
6.30439e-08
-3.21632e-07
-2.84291e-07
8.25003e-08
2.79365e-07
-2.8951e-07
8.38214e-08
-2.94774e-07
8.51207e-08
-3.00804e-07
8.66121e-08
-3.08246e-07
8.80459e-08
-3.17245e-07
8.91016e-08
-3.27286e-07
8.83903e-08
-3.37042e-07
8.45484e-08
-3.44003e-07
7.63617e-08
6.81989e-08
-3.49158e-07
-3.04996e-07
8.78381e-08
2.99659e-07
-3.10187e-07
8.90117e-08
-3.1626e-07
9.11942e-08
-3.2339e-07
9.37418e-08
-3.32236e-07
9.68911e-08
-3.42445e-07
9.93109e-08
-3.55896e-07
1.01841e-07
-3.65563e-07
9.42149e-08
-3.6901e-07
7.9809e-08
7.05271e-08
-3.71338e-07
-3.26094e-07
9.31702e-08
3.20762e-07
-3.33138e-07
9.60563e-08
-3.42073e-07
1.00129e-07
-3.52292e-07
1.03961e-07
-3.63453e-07
1.08052e-07
-3.74648e-07
1.10506e-07
-3.78444e-07
1.05636e-07
-3.76782e-07
9.25528e-08
-3.77858e-07
8.08854e-08
7.23901e-08
-3.79721e-07
-3.46712e-07
9.87167e-08
3.41166e-07
-3.54247e-07
1.03592e-07
-3.63571e-07
1.09452e-07
-3.7347e-07
1.1386e-07
-3.80068e-07
1.1465e-07
-3.80759e-07
1.11197e-07
-3.76753e-07
1.01631e-07
-3.7482e-07
9.06196e-08
-3.75577e-07
8.16423e-08
7.47983e-08
-3.77985e-07
-3.63741e-07
1.04547e-07
3.57911e-07
-3.70669e-07
1.10521e-07
-3.75867e-07
1.14651e-07
-3.78045e-07
1.16038e-07
-3.7647e-07
1.13074e-07
-3.7199e-07
1.06717e-07
-3.68455e-07
9.8097e-08
-3.67649e-07
8.98129e-08
-3.69244e-07
8.32375e-08
7.81299e-08
-3.72575e-07
-3.77535e-07
1.06224e-07
3.75857e-07
-3.77144e-07
1.1013e-07
-3.75305e-07
1.12811e-07
-3.71384e-07
1.12117e-07
-3.66658e-07
1.08349e-07
-3.62642e-07
1.02701e-07
-3.61061e-07
9.65163e-08
-3.61832e-07
9.05844e-08
-3.6414e-07
8.55451e-08
8.17364e-08
-3.67746e-07
-3.84566e-07
1.02999e-07
3.87791e-07
-3.77292e-07
1.02857e-07
-3.72236e-07
1.07755e-07
-3.67998e-07
1.07879e-07
-3.64766e-07
1.05117e-07
-3.63033e-07
1.00968e-07
-3.62543e-07
9.60263e-08
-3.63181e-07
9.12217e-08
-3.64813e-07
8.71776e-08
8.42013e-08
-3.67278e-07
-3.88668e-07
1.00236e-07
3.91431e-07
-3.8783e-07
1.0202e-07
-3.83719e-07
1.03645e-07
-3.79913e-07
1.04073e-07
-3.77333e-07
1.02537e-07
-3.75413e-07
9.90483e-08
-3.74004e-07
9.46172e-08
-3.73205e-07
9.04225e-08
-3.73223e-07
8.71963e-08
8.51937e-08
-3.74215e-07
-3.95277e-07
9.83505e-08
3.97163e-07
-3.93321e-07
1.00063e-07
-3.91951e-07
1.02274e-07
-3.91691e-07
1.03814e-07
-3.91888e-07
1.02733e-07
-3.91225e-07
9.83854e-08
-3.89382e-07
9.27749e-08
-3.8711e-07
8.81505e-08
-3.85503e-07
8.55883e-08
8.52679e-08
-3.85577e-07
-4.01187e-07
9.61544e-08
4.03383e-07
-3.9957e-07
9.84463e-08
-3.99464e-07
1.02168e-07
-4.02417e-07
1.06767e-07
-4.07923e-07
1.08239e-07
-4.09171e-07
9.96341e-08
-4.05919e-07
8.95221e-08
-4.00993e-07
8.32249e-08
-3.96146e-07
8.07409e-08
8.21888e-08
-3.93067e-07
-4.13091e-07
9.40652e-08
4.1518e-07
-4.11775e-07
9.71305e-08
-4.1163e-07
1.02023e-07
-4.15047e-07
1.10184e-07
-4.24342e-07
1.17534e-07
-4.28837e-07
1.04129e-07
-4.25082e-07
8.57674e-08
-4.20982e-07
7.91244e-08
-4.17305e-07
7.70638e-08
7.83794e-08
-4.13495e-07
-4.36747e-07
9.41628e-08
4.36649e-07
-4.35791e-07
9.61746e-08
-4.36191e-07
1.02424e-07
-4.34261e-07
1.08254e-07
-4.27729e-07
1.11002e-07
-4.26451e-07
1.02851e-07
-4.38481e-07
9.77971e-08
-4.49521e-07
9.01643e-08
-4.62088e-07
8.96304e-08
8.84939e-08
-4.72202e-07
-4.65449e-07
9.93369e-08
4.60274e-07
-4.68924e-07
9.96501e-08
-4.6608e-07
9.95793e-08
-4.53657e-07
9.58307e-08
-4.51786e-07
1.0913e-07
-4.6318e-07
1.14245e-07
-4.72631e-07
1.07248e-07
-4.79432e-07
9.69652e-08
-4.65998e-07
7.61972e-08
8.14926e-08
-4.58996e-07
-4.70191e-07
1.04299e-07
4.65229e-07
-4.73367e-07
1.02826e-07
-4.75874e-07
1.02086e-07
-4.82872e-07
1.02829e-07
-4.7745e-07
1.03708e-07
-4.66084e-07
1.02879e-07
-4.56185e-07
9.73494e-08
-4.46315e-07
8.70947e-08
-4.45432e-07
7.5314e-08
6.942e-08
-4.3336e-07
-4.66201e-07
1.10015e-07
4.60484e-07
-4.69989e-07
1.06615e-07
-4.71461e-07
1.03557e-07
-4.69508e-07
1.00876e-07
-4.6391e-07
9.81106e-08
-4.54068e-07
9.3037e-08
-4.42554e-07
8.58348e-08
-4.32219e-07
7.67605e-08
-4.23073e-07
6.61677e-08
5.47211e-08
-4.08374e-07
-4.50095e-07
1.15255e-07
4.44855e-07
-4.53602e-07
1.10122e-07
-4.53729e-07
1.03684e-07
-4.51013e-07
9.81597e-08
-4.44827e-07
9.19242e-08
-4.36236e-07
8.44459e-08
-4.26067e-07
7.56658e-08
-4.14786e-07
6.54793e-08
-4.024e-07
5.37817e-08
4.21048e-08
-3.89784e-07
-4.2682e-07
1.18982e-07
4.23093e-07
-4.28434e-07
1.11737e-07
-4.28319e-07
1.03569e-07
-4.24864e-07
9.47056e-08
-4.18414e-07
8.54742e-08
-4.09673e-07
7.57047e-08
-3.99959e-07
6.59518e-08
-3.90094e-07
5.56139e-08
-3.78931e-07
4.26181e-08
3.03259e-08
-3.67152e-07
-3.96036e-07
1.20299e-07
3.94719e-07
-3.95165e-07
1.10865e-07
-3.91518e-07
9.9922e-08
-3.86289e-07
8.94767e-08
-3.79626e-07
7.88105e-08
-3.71971e-07
6.80505e-08
-3.63114e-07
5.70942e-08
-3.53159e-07
4.56583e-08
-3.44172e-07
3.36316e-08
2.13763e-08
-3.35223e-07
-3.55277e-07
1.17757e-07
3.57819e-07
-3.51235e-07
1.06824e-07
-3.46403e-07
9.50899e-08
-3.40276e-07
8.33488e-08
-3.33123e-07
7.16575e-08
-3.25051e-07
5.99788e-08
-3.16309e-07
4.83524e-08
-3.07359e-07
3.6708e-08
-2.9876e-07
2.50323e-08
1.34247e-08
-2.90808e-07
-3.09432e-07
1.12714e-07
3.14474e-07
-3.03196e-07
1.00587e-07
-2.95982e-07
8.78759e-08
-2.87692e-07
7.50589e-08
-2.78415e-07
6.23809e-08
-2.68396e-07
4.99594e-08
-2.57939e-07
3.78954e-08
-2.4749e-07
2.62597e-08
-2.37569e-07
1.51107e-08
4.49338e-09
-2.28637e-07
-2.5837e-07
1.04936e-07
2.66148e-07
-2.48829e-07
9.10458e-08
-2.38038e-07
7.7084e-08
-2.26143e-07
6.31649e-08
-2.13289e-07
4.95266e-08
-1.99705e-07
3.63758e-08
-1.85718e-07
2.39078e-08
-1.71768e-07
1.23102e-08
-1.58419e-07
1.761e-09
-7.58968e-09
-1.46336e-07
-1.96408e-07
9.46795e-08
2.06665e-07
-1.84199e-07
7.88367e-08
-1.70245e-07
6.31305e-08
-1.54787e-07
4.77066e-08
-1.38036e-07
3.27754e-08
-1.20249e-07
1.85895e-08
-1.0177e-07
5.4284e-09
-8.30494e-08
-6.41026e-09
-6.47013e-08
-1.65872e-08
-2.47231e-08
-4.7568e-08
-1.29957e-07
8.14364e-08
1.432e-07
-1.14749e-07
6.36282e-08
-9.76619e-08
4.60434e-08
-7.88272e-08
2.88719e-08
-5.84134e-08
1.23615e-08
-3.66336e-08
-3.19038e-09
-1.37613e-08
-1.74439e-08
9.84736e-09
-3.00189e-08
3.37632e-08
-4.0503e-08
-4.82045e-08
5.72448e-08
-6.37297e-08
6.57219e-08
7.94441e-08
-4.60776e-08
4.59761e-08
-2.65524e-08
2.65182e-08
-5.2527e-09
7.57214e-09
1.77002e-08
-1.05915e-08
4.21731e-08
-2.76632e-08
6.80386e-08
-4.33095e-08
9.51853e-08
-5.71655e-08
1.23461e-07
-6.87784e-08
-7.75716e-08
1.52828e-07
-3.19017e-09
4.82111e-08
2.0701e-08
1.60031e-08
2.67828e-08
3.67919e-08
5.72941e-09
5.90683e-08
-1.47043e-08
8.27332e-08
-3.42563e-08
1.07685e-07
-5.26147e-08
1.33862e-07
-6.94868e-08
1.61231e-07
-8.45346e-08
1.8985e-07
-9.73966e-08
-1.07961e-07
2.20239e-07
4.77638e-08
2.98635e-08
-2.94161e-08
6.73184e-08
7.22827e-09
8.79517e-08
-1.49038e-08
1.09535e-07
-3.62873e-08
1.31907e-07
-5.66289e-08
1.54945e-07
-7.56529e-08
1.78475e-07
-9.30166e-08
2.0239e-07
-1.08449e-07
2.26632e-07
-1.21638e-07
-1.32427e-07
2.51098e-07
8.72105e-08
1.1864e-08
-6.92111e-08
1.05835e-07
-1.13966e-08
1.24916e-07
-3.39843e-08
1.44248e-07
-5.56192e-08
1.63642e-07
-7.60234e-08
1.82847e-07
-9.48578e-08
2.01623e-07
-1.11793e-07
2.19642e-07
-1.26468e-07
2.36514e-07
-1.38511e-07
-1.47524e-07
2.51611e-07
1.1486e-07
-4.54992e-09
-9.84462e-08
1.31363e-07
-2.78995e-08
1.47757e-07
-5.03789e-08
1.63833e-07
-7.16948e-08
1.79349e-07
-9.154e-08
1.94047e-07
-1.09555e-07
2.07611e-07
-1.25357e-07
2.19685e-07
-1.38542e-07
2.29835e-07
-1.4866e-07
-1.55225e-07
2.37536e-07
1.31371e-07
-1.84143e-08
-1.17507e-07
1.44913e-07
-4.14416e-08
1.57932e-07
-6.33972e-08
1.70216e-07
-8.39787e-08
1.81531e-07
-1.02855e-07
1.91626e-07
-1.1965e-07
2.00226e-07
-1.33957e-07
2.07013e-07
-1.45329e-07
2.1165e-07
-1.53298e-07
-1.57394e-07
2.1382e-07
1.38064e-07
-2.91716e-08
-1.27307e-07
1.48195e-07
-5.15723e-08
1.57508e-07
-7.27106e-08
1.65817e-07
-9.22875e-08
1.72923e-07
-1.09961e-07
1.78613e-07
-1.25341e-07
1.82651e-07
-1.37994e-07
1.84764e-07
-1.47442e-07
1.84649e-07
-1.53183e-07
-1.54755e-07
1.8201e-07
1.36828e-07
-3.6676e-08
-1.29323e-07
1.43471e-07
-5.82147e-08
1.4908e-07
-7.83195e-08
1.53498e-07
-9.67056e-08
1.56581e-07
-1.13044e-07
1.58196e-07
-1.26955e-07
1.58186e-07
-1.37985e-07
1.5634e-07
-1.45595e-07
1.52351e-07
-1.49194e-07
-1.48257e-07
1.45853e-07
1.30146e-07
-4.11733e-08
-1.25649e-07
1.33537e-07
-6.16053e-08
1.35663e-07
-8.0446e-08
1.36403e-07
-9.74454e-08
1.35677e-07
-1.12318e-07
1.3344e-07
-1.24719e-07
1.29661e-07
-1.34205e-07
1.24253e-07
-1.40187e-07
1.16986e-07
-1.41928e-07
-1.38504e-07
1.07233e-07
1.21413e-07
-4.31591e-08
-1.19427e-07
1.22048e-07
-6.22403e-08
1.21164e-07
-7.95617e-08
1.18644e-07
-9.4925e-08
1.14443e-07
-1.08118e-07
1.08601e-07
-1.18877e-07
1.01236e-07
-1.2684e-07
9.2568e-08
-1.31519e-07
8.27426e-08
-1.32102e-07
-1.26569e-07
7.08078e-08
1.1441e-07
-4.33883e-08
-1.14181e-07
1.13143e-07
-6.09727e-08
1.10213e-07
-7.66316e-08
1.05522e-07
-9.02343e-08
9.90632e-08
-1.01659e-07
9.0975e-08
-1.10788e-07
8.16772e-08
-1.17543e-07
7.18529e-08
-1.21694e-07
6.29442e-08
-1.23194e-07
-1.24775e-07
6.11504e-08
1.12165e-07
-4.27144e-08
-1.12839e-07
1.10106e-07
-5.89133e-08
1.06611e-07
-7.31368e-08
1.01712e-07
-8.53356e-08
9.55759e-08
-9.55232e-08
8.87112e-08
-1.03924e-07
8.20922e-08
-1.10924e-07
7.99404e-08
-1.19542e-07
1.02134e-07
-1.45388e-07
-2.57574e-07
2.34932e-07
1.15346e-07
-4.15957e-08
-1.16465e-07
1.13127e-07
-5.6694e-08
1.09997e-07
-7.00065e-08
1.06209e-07
-8.15474e-08
1.02249e-07
-9.15632e-08
9.92359e-08
-1.00911e-07
1.0347e-07
-1.15157e-07
1.49778e-07
-1.6585e-07
3.00095e-07
-2.95704e-07
-4.65456e-07
5.07978e-07
1.22996e-07
-3.95501e-08
-1.25042e-07
1.2001e-07
-5.3708e-08
1.16554e-07
-6.65508e-08
1.1309e-07
-7.80827e-08
1.10218e-07
-8.8692e-08
1.12825e-07
-1.03518e-07
1.69006e-07
-1.71339e-07
3.27341e-07
-3.24185e-07
5.10833e-07
-4.79196e-07
-5.75855e-07
6.21232e-07
1.36762e-07
-3.58996e-08
-1.40413e-07
1.32213e-07
-4.91587e-08
1.27653e-07
-6.19898e-08
1.24018e-07
-7.44477e-08
1.23091e-07
-8.77648e-08
1.58103e-07
-1.38531e-07
2.97447e-07
-3.10682e-07
4.62206e-07
-4.88944e-07
5.69134e-07
-5.86125e-07
-6.39062e-07
6.32341e-07
1.61899e-07
-3.22333e-08
-1.65565e-07
1.57348e-07
-4.46077e-08
1.52911e-07
-5.75538e-08
1.51935e-07
-7.3472e-08
1.71325e-07
-1.07155e-07
2.75068e-07
-2.42274e-07
4.20808e-07
-4.56422e-07
5.16969e-07
-5.85105e-07
5.81223e-07
-6.50378e-07
-6.9703e-07
6.39191e-07
1.99367e-07
-3.1493e-08
-2.00107e-07
1.9782e-07
-4.30611e-08
1.95432e-07
-5.51655e-08
1.97939e-07
-7.5979e-08
2.4566e-07
-1.54876e-07
3.63786e-07
-3.60402e-07
4.67627e-07
-5.60264e-07
5.38486e-07
-6.55964e-07
6.02137e-07
-7.14029e-07
-7.61305e-07
6.66413e-07
2.36443e-07
-3.52256e-08
-2.3271e-07
2.42035e-07
-4.86529e-08
2.50876e-07
-6.40071e-08
2.78251e-07
-1.03353e-07
3.57279e-07
-2.33903e-07
4.43568e-07
-4.4669e-07
5.11234e-07
-6.27929e-07
5.77845e-07
-7.22575e-07
6.45476e-07
-7.81661e-07
-8.28307e-07
7.12478e-07
2.62705e-07
-4.27312e-08
-2.55199e-07
2.76086e-07
-6.20346e-08
2.96729e-07
-8.46508e-08
3.40277e-07
-1.46902e-07
4.10279e-07
-3.03906e-07
4.7567e-07
-5.12082e-07
5.49479e-07
-7.01738e-07
6.25241e-07
-7.98336e-07
6.96958e-07
-8.53379e-07
-8.95591e-07
7.64243e-07
2.82622e-07
-5.27088e-08
-2.72644e-07
2.94436e-07
-7.38492e-08
3.12916e-07
-1.0313e-07
3.58762e-07
-1.92747e-07
4.30491e-07
-3.75635e-07
5.14861e-07
-5.96451e-07
6.02499e-07
-7.89376e-07
6.81298e-07
-8.77135e-07
7.50096e-07
-9.22176e-07
-9.58204e-07
8.12708e-07
2.96121e-07
-6.05502e-08
-2.88279e-07
3.05273e-07
-8.30016e-08
3.2387e-07
-1.21727e-07
3.86593e-07
-2.55468e-07
4.72572e-07
-4.61615e-07
5.85744e-07
-7.09622e-07
6.71227e-07
-8.7486e-07
7.36789e-07
-9.42697e-07
7.947e-07
-9.80088e-07
-1.01227e-06
8.48763e-07
3.04277e-07
-6.757e-08
-2.97257e-07
3.15548e-07
-9.42737e-08
3.54863e-07
-1.61042e-07
4.41011e-07
-3.41614e-07
5.53749e-07
-5.74351e-07
6.66477e-07
-8.22349e-07
7.29607e-07
-9.3799e-07
7.77172e-07
-9.90261e-07
8.23402e-07
-1.02632e-06
-1.05726e-06
8.68395e-07
3.16539e-07
-8.72076e-08
-2.96901e-07
3.35153e-07
-1.12889e-07
3.95027e-07
-2.20916e-07
4.91563e-07
-4.38151e-07
6.27838e-07
-7.10627e-07
7.1206e-07
-9.06573e-07
7.58953e-07
-9.84883e-07
7.9707e-07
-1.02838e-06
8.35027e-07
-1.06427e-06
-1.09396e-06
8.71732e-07
2.91332e-07
-1.17022e-07
-2.61518e-07
3.31295e-07
-1.52852e-07
4.18301e-07
-3.07919e-07
5.51933e-07
-5.71781e-07
6.76922e-07
-8.35615e-07
7.29975e-07
-9.59627e-07
7.6402e-07
-1.01893e-06
7.96808e-07
-1.06117e-06
8.29179e-07
-1.09665e-06
-1.12349e-06
8.58705e-07
2.70871e-07
-1.51658e-07
-2.36234e-07
3.28382e-07
-2.10365e-07
4.45637e-07
-4.25176e-07
5.99765e-07
-7.25909e-07
6.83124e-07
-9.18974e-07
7.23071e-07
-9.99574e-07
7.52825e-07
-1.04868e-06
7.81693e-07
-1.09004e-06
8.08863e-07
-1.12382e-06
-1.1459e-06
8.31268e-07
2.5677e-07
-1.85784e-07
-2.22643e-07
3.43867e-07
-2.97462e-07
5.08723e-07
-5.90032e-07
6.28128e-07
-8.45316e-07
6.73755e-07
-9.64601e-07
7.01012e-07
-1.02683e-06
7.27579e-07
-1.07525e-06
7.53658e-07
-1.11611e-06
7.76247e-07
-1.1464e-06
-1.16146e-06
7.91809e-07
2.27286e-07
-2.25091e-07
-1.87978e-07
3.65966e-07
-4.36142e-07
5.245e-07
-7.48564e-07
6.02228e-07
-9.23044e-07
6.37749e-07
-1.00012e-06
6.65273e-07
-1.05436e-06
6.91756e-07
-1.10173e-06
7.15773e-07
-1.14013e-06
7.33924e-07
-1.16456e-06
-1.1705e-06
7.42968e-07
2.55997e-07
-2.92699e-07
-1.88389e-07
4.32036e-07
-6.12182e-07
5.3777e-07
-8.54299e-07
5.74923e-07
-9.60196e-07
5.99476e-07
-1.02468e-06
6.24728e-07
-1.07961e-06
6.49639e-07
-1.12664e-06
6.70431e-07
-1.16092e-06
6.83395e-07
-1.17752e-06
-1.17319e-06
6.86078e-07
2.97751e-07
-4.25267e-07
-1.65183e-07
4.40513e-07
-7.54944e-07
4.93731e-07
-9.07516e-07
5.20933e-07
-9.87398e-07
5.47314e-07
-1.05106e-06
5.7466e-07
-1.10695e-06
5.99337e-07
-1.15132e-06
6.17319e-07
-1.17891e-06
6.2574e-07
-1.18594e-06
-1.17069e-06
6.23241e-07
2.897e-07
-6.07442e-07
-1.07525e-07
3.85379e-07
-8.50624e-07
4.2863e-07
-9.50768e-07
4.60577e-07
-1.01935e-06
4.91631e-07
-1.08211e-06
5.20648e-07
-1.13597e-06
5.43996e-07
-1.17467e-06
5.58827e-07
-1.19374e-06
5.63908e-07
-1.19102e-06
-1.16606e-06
5.59282e-07
3.01008e-07
-7.36045e-07
-1.72404e-07
3.46261e-07
-8.95875e-07
3.75498e-07
-9.80005e-07
4.06841e-07
-1.05069e-06
4.3825e-07
-1.11352e-06
4.6559e-07
-1.16331e-06
4.85491e-07
-1.19457e-06
4.96342e-07
-1.20459e-06
4.97935e-07
-1.19262e-06
-1.15845e-06
4.90329e-07
2.41657e-07
-7.97144e-07
-1.80558e-07
2.8121e-07
-9.35427e-07
3.16273e-07
-1.01507e-06
3.50862e-07
-1.08528e-06
3.82534e-07
-1.14519e-06
4.08005e-07
-1.18878e-06
4.25241e-07
-1.2118e-06
4.33957e-07
-1.2133e-06
4.34884e-07
-1.19354e-06
-1.15212e-06
4.2855e-07
1.71943e-07
-8.68111e-07
-1.00976e-07
2.18208e-07
-9.81691e-07
2.59326e-07
-1.05619e-06
2.95746e-07
-1.1217e-06
3.26348e-07
-1.17579e-06
3.49607e-07
-1.21204e-06
3.64901e-07
-1.2271e-06
3.72859e-07
-1.22126e-06
3.74827e-07
-1.19551e-06
-1.14942e-06
3.72129e-07
1.34454e-07
-9.2913e-07
-7.34356e-08
1.77392e-07
-1.02463e-06
2.13996e-07
-1.09279e-06
2.45916e-07
-1.15362e-06
2.72559e-07
-1.20244e-06
2.92646e-07
-1.23213e-06
3.05989e-07
-1.24044e-06
3.13687e-07
-1.22896e-06
3.17717e-07
-1.19954e-06
-1.15254e-06
3.20839e-07
1.01401e-07
-9.80243e-07
-5.02877e-08
1.38129e-07
-1.06136e-06
1.69678e-07
-1.12434e-06
1.97341e-07
-1.18128e-06
2.20294e-07
-1.22539e-06
2.37202e-07
-1.24904e-06
2.4806e-07
-1.2513e-06
2.53941e-07
-1.23484e-06
2.56293e-07
-1.20189e-06
-1.15277e-06
2.56523e-07
7.48623e-08
-1.01696e-06
-3.8145e-08
1.04495e-07
-1.09099e-06
1.30925e-07
-1.15077e-06
1.54154e-07
-1.20451e-06
1.73097e-07
-1.24433e-06
1.86552e-07
-1.26249e-06
1.94817e-07
-1.25956e-06
1.9901e-07
-1.23903e-06
2.00274e-07
-1.20316e-06
-1.15229e-06
1.99794e-07
5.41126e-08
-1.04131e-06
-2.97613e-08
7.73225e-08
-1.1142e-06
9.88023e-08
-1.17225e-06
1.17606e-07
-1.22331e-06
1.32542e-07
-1.25927e-06
1.4261e-07
-1.27256e-06
1.48439e-07
-1.26539e-06
1.51119e-07
-1.24171e-06
1.51313e-07
-1.20335e-06
-1.15036e-06
1.49376e-07
3.59349e-08
-1.06426e-06
-1.29816e-08
5.61559e-08
-1.13442e-06
7.38901e-08
-1.18999e-06
8.88028e-08
-1.23822e-06
1.00133e-07
-1.2706e-06
1.073e-07
-1.27973e-06
1.11432e-07
-1.26952e-06
1.13732e-07
-1.24401e-06
1.14537e-07
-1.20415e-06
-1.14909e-06
1.13267e-07
2.68755e-08
-1.08221e-06
-8.92991e-09
4.2809e-08
-1.15035e-06
5.65419e-08
-1.20372e-06
6.78506e-08
-1.24953e-06
7.60065e-08
-1.27875e-06
8.08006e-08
-1.28452e-06
8.38907e-08
-1.27261e-06
8.67118e-08
-1.24683e-06
8.95351e-08
-1.20698e-06
-1.15051e-06
9.09618e-08
2.04792e-08
-1.0972e-06
-5.4857e-09
3.35986e-08
-1.16347e-06
4.47522e-08
-1.21487e-06
5.37302e-08
-1.25851e-06
5.95276e-08
-1.28455e-06
6.25908e-08
-1.28758e-06
6.51117e-08
-1.27513e-06
6.88308e-08
-1.25055e-06
7.42374e-08
-1.21238e-06
-1.15579e-06
7.9511e-08
1.81306e-08
-1.10964e-06
-5.69359e-09
2.90159e-08
-1.17436e-06
3.85146e-08
-1.22437e-06
4.6174e-08
-1.26617e-06
5.02596e-08
-1.28864e-06
5.24151e-08
-1.28974e-06
5.52031e-08
-1.27792e-06
6.06402e-08
-1.25599e-06
7.00527e-08
-1.2218e-06
-1.16848e-06
8.27487e-08
1.78477e-08
-1.12099e-06
-6.50327e-09
2.67603e-08
-1.18327e-06
3.55692e-08
-1.23318e-06
4.28474e-08
-1.27345e-06
4.57397e-08
-1.29153e-06
4.78388e-08
-1.29184e-06
5.17966e-08
-1.28188e-06
5.94479e-08
-1.26364e-06
7.33397e-08
-1.23569e-06
-1.19053e-06
9.53824e-08
1.52903e-08
-1.12921e-06
-7.07001e-09
2.3848e-08
-1.19183e-06
3.3321e-08
-1.24265e-06
4.04457e-08
-1.28057e-06
4.18693e-08
-1.29295e-06
4.36537e-08
-1.29362e-06
4.84119e-08
-1.28664e-06
5.70381e-08
-1.27227e-06
7.35198e-08
-1.25217e-06
-1.2222e-06
1.05197e-07
1.41341e-08
-1.13538e-06
-7.9561e-09
2.28425e-08
-1.20054e-06
3.23355e-08
-1.25215e-06
3.76798e-08
-1.28592e-06
3.63618e-08
-1.29164e-06
3.59254e-08
-1.29319e-06
3.90555e-08
-1.28977e-06
4.43171e-08
-1.27753e-06
5.47886e-08
-1.26264e-06
-1.24618e-06
7.87688e-08
1.99709e-08
-1.1363e-06
-1.90528e-08
2.56116e-08
-1.20618e-06
3.32064e-08
-1.25974e-06
3.49296e-08
-1.28764e-06
3.02669e-08
-1.28697e-06
2.62438e-08
-1.28916e-06
2.64926e-08
-1.29002e-06
2.68483e-08
-1.27789e-06
2.68493e-08
-1.26264e-06
-1.25116e-06
3.18289e-08
2.29597e-08
-1.14227e-06
-1.69949e-08
2.81801e-08
-1.2114e-06
3.45656e-08
-1.26613e-06
3.18379e-08
-1.28491e-06
2.39614e-08
-1.2791e-06
1.6235e-08
-1.28144e-06
1.36375e-08
-1.28742e-06
1.1624e-08
-1.27587e-06
3.51478e-09
-1.25453e-06
-1.24133e-06
-6.31968e-09
2.641e-08
-1.1487e-06
-1.99813e-08
2.85788e-08
-1.21357e-06
3.31734e-08
-1.27072e-06
2.61952e-08
-1.27794e-06
1.65916e-08
-1.26949e-06
6.73417e-09
-1.27158e-06
9.92795e-10
-1.28168e-06
-5.79051e-10
-1.2743e-06
-1.26687e-08
-1.24244e-06
-1.22057e-06
-3.34305e-08
2.43329e-08
-1.13969e-06
-3.33383e-08
2.47731e-08
-1.21401e-06
2.87516e-08
-1.2747e-06
1.9425e-08
-1.26861e-06
9.54534e-09
-1.25961e-06
-9.8338e-10
-1.26105e-06
-9.88231e-09
-1.27278e-06
-8.0132e-09
-1.27617e-06
-1.8633e-08
-1.23182e-06
-1.18808e-06
-5.11238e-08
9.91695e-09
-1.11523e-06
-3.43752e-08
2.04519e-08
-1.22454e-06
2.54607e-08
-1.27971e-06
1.48402e-08
-1.25799e-06
4.82251e-09
-1.2496e-06
-5.73581e-09
-1.25049e-06
-1.80861e-08
-1.26043e-06
-1.34716e-08
-1.28078e-06
-1.21597e-08
-1.23314e-06
-1.13935e-06
-6.08857e-08
-5.31925e-09
-1.06072e-06
-4.91913e-08
2.30573e-08
-1.25292e-06
2.50346e-08
-1.28169e-06
1.27051e-08
-1.24566e-06
2.45185e-09
-1.23934e-06
-8.32419e-09
-1.23972e-06
-2.27682e-08
-1.24598e-06
-2.17974e-08
-1.28175e-06
3.06118e-09
-1.25799e-06
-1.06786e-06
-6.84346e-08
-1.83178e-08
-8.42032e-08
2.85705e-08
2.09944e-08
9.7821e-09
1.63479e-09