/*--------------------------------*- C++ -*----------------------------------*\
  =========                 |
  \\      /  F ield         | OpenFOAM: The Open Source CFD Toolbox
   \\    /   O peration     | Website:  https://openfoam.org
    \\  /    A nd           | Version:  8
     \\/     M anipulation  |
\*---------------------------------------------------------------------------*/
FoamFile
{
    version     2.0;
    format      ascii;
    class       volScalarField;
    location    "0.65";
    object      alpha.water;
}
// * * * * * * * * * * * * * * * * * * * * * * * * * * * * * * * * * * * * * //

dimensions      [0 0 0 0 0 0 0];

internalField   nonuniform List<scalar> 
9150
(
1
1
1
1
1
1
1
1
1
1
1
1
1
1
1
1
1
1
1
1
1
1
1
1
1
1
1
1
1
1
1
1
1
1
1
1
1
1
1
1
1
1
1
1
1
1
1
1
1
1
1
1
1
1
1
1
1
1
1
1
1
1
1
1
1
1
1
1
1
1
1
1
1
1
1
1
1
1
1
1
1
1
1
1
1
1
1
1
1
1
1
1
1
1
1
1
1
1
1
1
1
1
1
1
1
1
1
1
1
1
1
1
1
1
1
1
1
1
1
1
1
1
1
1
1
1
1
1
1
1
1
1
1
1
1
1
1
1
1
1
1
1
1
1
1
1
1
1
1
1
0.999998
0.999996
0.999995
0.999995
0.999995
0.999995
0.999995
0.999995
0.999996
0.999998
0.999999
0.999999
0.999999
0.999996
0.999995
0.999995
0.999996
0.999999
0.999999
0.999999
0.999999
0.999999
0.999999
0.999999
0.999996
0.999996
0.999999
0.999999
0.999999
0.999999
0.999999
0.999999
0.999999
0.999998
0.999998
0.999998
0.999999
0.999999
0.999999
0.999999
0.999999
0.999999
0.999999
0.999997
0.999997
0.999997
0.999999
0.999999
0.999999
0.999999
1
0.999999
0.999999
0.999999
0.999997
0.999997
0.999999
0.999999
0.999999
1
1
0.999999
0.999999
0.999999
0.999997
0.999997
0.999998
0.999999
0.999999
1
1.00004
0.999999
0.999999
0.999999
0.999998
0.999998
0.999998
0.999999
0.999999
1.00003
1.00006
0.999999
0.999999
0.999999
0.999998
0.999999
0.999999
0.999999
0.999999
1.00007
0.999997
1
0.999999
0.999998
0.999998
0.999998
0.999998
0.999999
0.999999
0.999998
1.00006
1
0.999999
0.999999
0.999998
0.999998
0.999998
0.999999
1
1.00002
0.967617
1.00001
0.999999
0.999999
0.999998
0.999998
0.999999
0.999999
1.00001
0.981572
0.808151
1
0.999999
0.999999
0.999998
0.999998
0.999999
0.999999
1
0.826027
0.697061
0.999999
0.999999
0.999998
0.999998
0.999998
0.999999
0.999999
0.999999
0.719672
0.571783
1
0.999999
0.999998
0.999998
0.999998
0.999998
0.999999
1
0.59771
0.453386
1.00001
0.999999
0.999999
0.999998
0.999998
0.999998
0.999999
1.00001
0.4791
0.353733
1.00011
0.999999
0.999999
0.999998
0.999998
0.999998
0.999999
1.00007
0.376614
0.278259
0.975404
0.999999
0.999999
0.999998
0.999998
0.999999
0.999999
0.987205
0.296917
0.218344
0.923401
0.999999
0.999998
0.999998
0.999998
0.999999
0.999999
0.932999
0.234958
0.170811
0.89104
0.999999
0.999998
0.999998
0.999998
0.999998
0.999999
0.902641
0.185607
0.131926
0.854161
0.999999
0.999998
0.999998
0.999998
0.999998
0.999999
0.867171
0.144803
0.100956
0.817007
0.999999
0.999998
0.999998
0.999998
0.999998
0.999999
0.831307
0.112103
0.0763937
0.779963
0.999999
0.999999
0.999998
0.999998
0.999998
0.999999
0.795374
0.0859469
0.0570868
0.743535
0.999999
0.999999
0.999998
0.999998
0.999999
0.999999
0.7599
0.0651969
0.0420653
0.708195
0.999999
0.999999
0.999998
0.999998
0.999999
0.999999
0.725364
0.0488819
0.0305068
0.674292
0.999999
0.999998
0.999998
0.999998
0.999999
0.999999
0.692126
0.0361744
0.0217229
0.64209
0.999998
0.999998
0.999998
0.999998
0.999998
0.999999
0.660466
0.0263792
0.0151404
0.611773
0.999998
0.999998
0.999998
0.999998
0.999998
0.999998
0.630579
0.0189153
0.0102884
0.583464
0.999998
0.999998
0.999998
0.999998
0.999998
0.999998
0.602593
0.0133014
0.00678011
0.557253
0.999998
0.999998
0.999998
0.999998
0.999998
0.999998
0.576584
0.00914376
0.00431123
0.533195
0.999998
0.999998
0.999998
0.999998
0.999998
0.999998
0.552605
0.00612126
0.00262444
0.511325
0.999998
0.999998
0.999998
0.999998
0.999998
0.999998
0.530691
0.00397563
0.00154512
0.491601
0.999998
0.999998
0.999998
0.999998
0.999998
0.999998
0.510865
0.00249424
0.000870089
0.474075
0.999998
0.999998
0.999998
0.999998
0.999998
0.999998
0.493083
0.0015126
0.000575644
0.458719
1
0.999998
0.999998
0.999998
0.999998
0.999998
0.477351
0.000892912
0.00040013
0.446026
1.00001
0.999998
0.999998
0.999998
0.999998
1
0.463645
0.000541247
0.000276952
0.436336
0.998038
0.999998
0.999998
0.999998
0.999998
1.00001
0.452293
0.000399957
0.000189736
0.428617
0.994015
0.999998
0.999998
0.999998
0.999998
0.998213
0.443643
0.000288897
0.000125132
0.422169
0.992325
0.999998
0.999998
0.999998
0.999998
0.994669
0.43683
0.00020675
7.99752e-05
0.417099
0.990734
0.999998
0.999998
0.999998
0.999998
0.993181
0.431162
0.000144298
4.96503e-05
0.413199
0.989506
0.999998
0.999998
0.999998
0.999998
0.991801
0.426897
9.7895e-05
3.10596e-05
0.410622
0.9885
0.999998
0.999998
0.999998
0.999998
0.990733
0.423485
6.73456e-05
1.84266e-05
0.408967
0.987922
0.999998
0.999998
0.999998
0.999998
0.98991
0.421816
4.36208e-05
9.44911e-06
0.408383
0.987439
0.999988
0.999998
0.999998
0.999998
0.989406
0.420283
2.55308e-05
2.57993e-06
0.408252
0.987387
0.999982
0.999998
0.999998
0.999988
0.989091
0.420033
1.08626e-05
4.84415e-12
0.40957
0.987722
0.999986
0.999998
0.999998
0.999985
0.989122
0.420866
3.88617e-12
4.84737e-12
0.411551
0.988175
0.999989
0.999998
0.999998
0.999989
0.989582
0.422153
3.88666e-12
4.96448e-12
0.414525
0.98873
0.999992
0.999998
0.999998
0.999991
0.99
0.424688
3.94184e-12
5.17064e-12
0.418368
0.98936
0.999994
0.999998
0.999998
0.999993
0.990536
0.427992
3.9987e-12
5.48005e-12
0.423025
0.990067
0.999996
0.999998
0.999998
0.999995
0.991128
0.432161
4.02333e-12
5.82021e-12
0.428466
0.99083
0.999997
0.999998
0.999998
0.999996
0.991782
0.437122
4.0377e-12
6.14385e-12
0.434653
0.991635
0.999997
0.999998
0.999998
0.999997
0.992479
0.442843
4.06e-12
6.49484e-12
0.441551
0.992465
0.999998
0.999998
0.999998
0.999998
0.993206
0.449287
4.08189e-12
6.88074e-12
0.449129
0.993306
0.999998
0.999998
0.999998
0.999998
0.993949
0.456423
4.09417e-12
7.31196e-12
0.45736
0.994144
0.999999
0.999998
0.999998
0.999998
0.994694
0.464223
4.10185e-12
7.81223e-12
0.466222
0.994964
0.999999
0.999998
0.999998
0.999999
0.995428
0.472664
4.1171e-12
8.42398e-12
0.4757
0.995756
0.999998
0.999998
0.999998
0.999998
0.99614
0.481728
4.1613e-12
9.21591e-12
0.485781
0.996507
0.999999
0.999998
0.999999
0.999998
0.996819
0.4914
4.26941e-12
1.02838e-11
0.496455
0.997207
0.999999
0.999999
0.999999
0.999999
0.997455
0.501667
4.49305e-12
1.17436e-11
0.507712
0.997845
0.999999
0.999999
0.999999
0.999999
0.998037
0.512516
4.89613e-12
1.37176e-11
0.519539
0.998413
0.999999
0.999999
0.999999
0.999999
0.998558
0.523944
5.56112e-12
1.62811e-11
0.531922
0.998901
0.999999
0.999999
0.999999
0.999999
0.999007
0.535951
6.58145e-12
1.92673e-11
0.544848
0.999309
0.999999
0.999999
0.999999
0.999999
0.999383
0.548539
7.84785e-12
2.08066e-11
0.558312
0.999611
0.999999
0.999999
0.999999
0.999999
0.99966
0.561713
6.98387e-12
-1.04847e-11
0.572294
0.999842
0.999999
0.999999
0.999999
0.999999
0.999871
0.575454
-2.8465e-11
-2.60116e-10
0.586822
0.999915
0.999999
0.999999
0.999999
0.999999
0.999928
0.589782
-3.86966e-10
-3.07624e-09
0.601783
0.999973
0.999999
0.999999
0.999999
0.999999
0.999974
0.604578
-4.39846e-09
-3.43728e-08
0.617127
0.999973
0.999999
0.999999
0.999999
0.999999
0.999974
0.619775
-4.85517e-08
-3.69385e-07
0.632704
0.999973
0.999999
0.999999
0.999999
0.999999
0.999974
0.635203
-5.14184e-07
-3.6437e-06
0.648258
0.999974
0.999999
0.999999
0.999999
0.999999
0.999974
0.650636
-4.95362e-06
-3.0127e-05
0.663308
0.999974
0.999999
0.999999
0.999999
0.999999
0.999974
0.665372
-3.94028e-05
0.00213234
0.676761
0.999974
0.999999
0.999999
0.999999
0.999999
0.999974
0.678527
0.00326784
0.0112132
0.689406
0.999974
0.999999
0.999999
0.999999
0.999999
0.999974
0.691213
0.0118067
0.0156977
0.702451
0.999974
0.999999
0.999999
0.999999
0.999999
0.999975
0.704204
0.0163851
0.0213316
0.715602
0.999975
0.999999
0.999999
0.999999
0.999999
0.999975
0.717288
0.0220212
0.0271918
0.728826
0.999975
0.999999
0.999999
0.999999
0.999999
0.999976
0.730434
0.0279036
0.0335663
0.742156
0.999975
0.999999
0.999999
0.999999
0.999999
0.999976
0.743668
0.0342873
0.0404507
0.755582
0.999976
0.999999
0.999999
0.999999
0.999999
0.999976
0.756985
0.0411743
0.0479107
0.769105
0.999976
0.999999
0.999999
0.999999
0.999999
0.999977
0.770389
0.0486281
0.0560071
0.782722
0.999977
0.999999
0.999999
0.999999
0.999999
0.999977
0.783879
0.0567091
0.0648141
0.796433
0.999977
0.999999
0.999999
0.999999
0.999999
0.999978
0.797456
0.0654912
0.0744188
0.810233
0.999978
0.999999
0.999999
0.999999
0.999999
0.999978
0.811121
0.0750619
0.0849254
0.82412
0.999978
0.999999
0.999999
0.999999
0.999999
0.999979
0.824874
0.0855255
0.096459
0.838088
0.999979
0.999999
0.999999
0.999999
0.999999
0.999979
0.838712
0.0970081
0.109172
0.852129
0.999979
0.999999
0.999999
0.999999
0.999999
0.99998
0.85263
0.109663
0.123251
0.86623
0.99998
0.999999
0.999999
0.999999
0.999999
0.99998
0.866619
0.123679
0.13893
0.880373
0.99998
0.999999
0.999999
0.999999
0.999999
0.999981
0.880663
0.139291
0.156501
0.894529
0.999981
0.999999
0.999999
0.999999
0.999999
0.999981
0.894734
0.156794
0.176341
0.908657
0.999982
0.999999
0.999999
0.999999
0.999999
0.999982
0.908792
0.176568
0.198938
0.922693
0.999983
1
1
1
1
0.999983
0.922775
0.199103
0.22495
0.936544
0.999984
1
1
1
1
0.999984
0.936588
0.22506
0.255281
0.950087
0.999985
1
1
1
1
0.999985
0.950107
0.255346
0.291254
0.963101
0.999985
1
1
1
1
0.999985
0.963107
0.291286
0.334807
0.975358
0.999985
1
1
1
1
0.999985
0.975359
0.334817
0.3891
0.986084
0.999986
1
1
1
1
0.999986
0.986084
0.389101
0.45797
0.99482
0.999987
1
1
1
1
0.999987
0.99482
0.457967
0.548736
0.997658
0.99999
1
1
1
1
0.99999
0.997658
0.548733
0.655894
0.999741
0.999995
1
1
1
1
0.999995
0.999741
0.655888
0.791705
0.999915
0.999999
1
1
1
1
0.999999
0.999915
0.791697
0.905496
1
1
1
1
1
1
1
1
0.90549
0.999998
0.999998
0.999995
0.999984
0.999959
0.999937
0.999933
0.999932
0.999932
0.999932
0.999931
0.999931
0.999931
0.99993
0.99993
0.999899
0.999888
0.99995
0.999979
0.999982
0.99996
0.999888
0.999886
0.999886
0.999886
0.999902
0.999923
0.999872
0.999842
0.999842
0.999842
0.99989
0.999923
0.973266
0.769098
0.769916
0.849743
0.850114
0.829385
0.859594
0.999999
1
0.999999
0.999964
0.999945
0.999684
0.999679
0.999564
0.999194
0.999268
0.99989
0.999931
0.99993
0.999882
0.999711
0.999704
0.999704
0.999704
0.999857
0.999989
0.999993
0.999904
0.999888
0.999902
0.999908
0.999904
0.999929
0.99994
0.999852
0.999842
0.999842
0.999885
0.999924
0.999928
0.950059
0.893095
0.741978
0.684176
0.684252
0.836331
0.999999
0.999991
0.999793
0.999642
1.00025
0.996719
0.999592
0.999542
0.99972
0.999871
0.999895
0.999918
0.999917
0.999905
0.999858
0.999724
0.99978
0.999894
0.999982
0.999993
0.999995
0.999943
0.999891
0.999926
0.999994
0.999916
0.99991
0.999941
0.999974
0.999848
0.999842
0.999842
0.9999
0.999934
0.999933
0.999649
0.964472
0.936393
0.695895
0.873961
0.999999
0.999884
0.997484
0.912718
0.755145
0.629289
0.53109
0.554202
0.669654
0.920646
0.999879
1.00004
0.999938
0.999917
0.999957
0.999972
0.99998
0.99999
0.999993
0.999995
0.999995
0.999984
0.999943
0.999981
0.999996
0.999945
0.99991
0.999919
0.999991
0.999937
0.999843
0.999843
0.999844
0.999933
0.999986
0.999963
0.999926
0.99995
0.932951
0.969547
1.00003
0.999398
0.798738
0.241125
0.00627659
0.00183735
0.00676758
0.0115531
0.0287515
0.119457
0.297121
0.587034
0.98464
0.999861
0.999895
0.999952
0.999984
0.999992
0.999995
0.999995
0.999995
0.999996
0.999996
0.999996
0.999996
0.999988
0.999912
0.999937
0.999995
0.999996
0.999869
0.999844
0.999845
0.999937
0.999991
0.999969
0.999949
0.999977
0.999952
0.980467
1
0.902882
0.174379
0.00612758
0.00182558
0.000686155
0.000260997
0.000157134
0.000278524
0.000925361
0.00205829
0.020258
0.184442
0.50794
0.949048
0.999703
0.999914
0.999991
0.999992
0.999996
0.999996
0.999996
0.999996
0.999996
0.999996
0.999996
0.999979
0.999985
0.999996
0.999996
0.999925
0.999846
0.999851
0.999976
0.999993
0.999913
0.999956
0.99998
0.999982
0.990596
1.0002
0.453653
0.00775396
0.0018378
0.000591745
0.000242012
7.42785e-05
1.81189e-05
2.57027e-05
8.74151e-05
0.0003225
0.000859316
0.00199039
0.0114396
0.204683
0.580666
0.99162
0.999775
0.999976
0.999991
0.999995
0.999996
0.999996
0.999996
0.999996
0.999996
0.999996
0.999996
0.999996
0.999996
0.999984
0.99985
0.999892
0.999992
0.999993
0.999868
0.999919
0.999982
0.999984
0.999251
0.993425
0.182163
0.00284828
0.000632125
0.00018178
6.36261e-05
1.82601e-05
4.31675e-06
3.39459e-06
1.18756e-05
4.11545e-05
0.000116827
0.000339308
0.000846712
0.00168249
0.0286438
0.356933
0.828274
0.999525
0.999938
0.999989
0.999996
0.999996
0.999996
0.999996
0.999996
0.999996
0.999996
0.999996
0.999996
0.999996
0.999863
0.999932
0.999995
0.999994
0.999869
0.999822
0.999962
0.999985
0.999986
0.714929
0.0469645
0.00131392
0.000171328
4.81374e-05
1.57528e-05
4.79939e-06
1.18536e-06
5.29193e-07
1.76489e-06
6.41282e-06
2.00417e-05
6.06807e-05
0.000145806
0.000427004
0.000842117
0.00276662
0.195815
0.710868
0.999439
0.999962
0.999994
0.999996
0.999996
0.999996
0.999996
0.999996
0.999996
0.999996
0.999996
0.999996
0.999949
0.999958
0.999996
0.999994
0.999834
0.999822
0.999926
0.999985
0.999987
0.504419
0.0117086
0.000641818
7.61267e-05
1.56432e-05
3.9647e-06
1.36415e-06
3.10635e-07
9.67649e-08
2.85256e-07
1.17508e-06
4.05298e-06
1.30297e-05
3.14784e-05
8.20107e-05
0.000166875
0.000406635
0.00122667
0.163881
0.725123
0.991217
0.999985
0.999996
0.999996
0.999996
0.999997
0.999996
0.999995
0.999995
0.999996
0.999995
0.999997
0.999991
0.999997
0.99994
0.999822
0.999822
0.999928
0.999986
0.999987
0.313961
0.00265638
0.00031046
3.95422e-05
5.93762e-06
1.11908e-06
3.23779e-07
8.19379e-08
2.6071e-08
5.59421e-08
2.53529e-07
9.59174e-07
3.25811e-06
7.90235e-06
1.93387e-05
3.54889e-05
8.8547e-05
0.000324772
0.00324328
0.270572
0.858752
0.993251
0.999005
0.999809
0.999997
0.999997
0.999996
0.999995
0.999995
0.999995
0.999997
0.999997
0.999997
0.999997
0.999894
0.999823
0.999822
0.999958
0.999986
0.999987
0.179729
0.0014566
0.000157679
1.7834e-05
2.26155e-06
3.42911e-07
8.1515e-08
2.35761e-08
1.39906e-08
1.82026e-08
6.4883e-08
2.59153e-07
9.32391e-07
2.26458e-06
5.26216e-06
9.53962e-06
2.32687e-05
9.24149e-05
0.000317513
0.0317429
0.582462
0.9706
0.999984
0.999712
0.999947
0.999997
0.999996
0.999996
0.999995
0.999995
0.999997
0.999997
0.999997
0.999997
0.999922
0.999824
0.999945
0.999985
0.999987
0.999987
0.0893622
0.00076928
7.51047e-05
7.15393e-06
7.69775e-07
9.97133e-08
2.4293e-08
1.17179e-08
1.20056e-08
1.17942e-08
2.11489e-08
8.33936e-08
2.99784e-07
7.66994e-07
1.73063e-06
3.53032e-06
9.89106e-06
2.38259e-05
9.25867e-05
0.00103089
0.362466
0.977494
0.999992
0.999742
0.999884
0.999997
0.999996
0.999997
0.999997
0.999997
0.999997
0.999997
0.999997
0.999996
0.999982
0.999951
0.999986
0.999987
0.999987
0.999987
0.0411764
0.00039887
3.30732e-05
2.45456e-06
2.24625e-07
3.90305e-08
1.92917e-08
1.01532e-08
1.16428e-08
1.00457e-08
1.19894e-08
2.81422e-08
9.50712e-08
3.0677e-07
7.82573e-07
1.82687e-06
3.5227e-06
1.08521e-05
9.21184e-05
0.00192651
0.444104
0.999992
0.999996
0.999901
0.99987
0.999997
0.999997
0.999997
0.999997
0.999997
0.999997
0.999997
0.999997
0.999996
0.999996
0.999995
0.999903
0.999986
0.999987
0.999987
0.0147896
0.000213772
1.41853e-05
8.15525e-07
9.96053e-08
4.18607e-08
2.19589e-08
9.81345e-09
1.17899e-08
9.39358e-09
9.48279e-09
1.30524e-08
3.5789e-08
1.1644e-07
2.96527e-07
7.4145e-07
2.86383e-06
2.05273e-05
0.000252625
0.04023
0.688882
0.999996
0.999998
0.999943
0.999871
0.999997
0.999997
0.999997
0.999996
0.999989
0.999993
0.999997
0.999997
0.999997
0.999997
0.99993
0.999881
0.999972
0.999941
0.999277
0.00560773
0.000132759
7.53543e-06
3.47248e-07
1.09141e-07
1.00699e-07
3.15858e-08
9.42905e-09
1.11178e-08
9.15187e-09
8.27238e-09
9.27246e-09
1.52961e-08
4.31123e-08
1.73097e-07
9.49028e-07
7.79547e-06
9.38427e-05
0.000795714
0.255148
0.978305
0.999998
0.999998
0.999989
0.999979
0.999997
0.999996
0.999988
0.999985
0.999985
0.999985
0.999997
0.999997
0.999997
0.999913
0.999814
0.999885
0.999896
0.999642
0.996893
0.0013984
9.27264e-05
5.15285e-06
2.73293e-07
1.44751e-07
1.35793e-07
2.52895e-08
8.42576e-09
6.5766e-09
7.02393e-09
7.10127e-09
7.98249e-09
1.35629e-08
5.59504e-08
3.9994e-07
3.32758e-06
3.55356e-05
0.000365898
0.0453003
0.698845
1.00001
0.999998
0.999998
0.999998
0.999997
0.999987
0.999985
0.999985
0.999985
0.999985
0.999991
0.999996
0.999997
0.999961
0.999813
0.999813
0.99982
0.999889
0.999146
0.996888
0.0010032
6.5835e-05
3.56045e-06
2.66192e-07
1.9165e-07
1.74037e-07
7.19035e-08
2.50911e-08
6.15002e-09
6.16214e-09
6.40009e-09
8.93978e-09
3.1302e-08
2.2096e-07
1.72754e-06
1.70686e-05
0.000175958
0.00112106
0.362941
0.999905
0.999998
0.999998
0.999998
0.999998
0.999988
0.999985
0.999985
0.999985
0.999985
0.999993
0.999996
0.999996
0.999988
0.999815
0.999813
0.999813
0.999845
0.999912
0.999375
0.997901
0.00070791
4.41305e-05
2.20591e-06
1.74573e-07
1.27492e-07
6.68058e-07
3.10398e-07
1.0666e-08
6.15332e-09
6.11167e-09
7.01614e-09
1.8032e-08
1.17994e-07
9.20894e-07
8.05528e-06
7.57701e-05
0.000736858
0.104947
0.822398
0.999997
0.999999
0.999998
0.999998
0.999993
0.999985
0.999985
0.999989
0.999992
0.999996
0.999996
0.999996
0.999985
0.999831
0.999813
0.999812
0.999812
0.999942
0.999958
0.99993
0.999915
0.000494253
2.91461e-05
1.33386e-06
1.14085e-07
8.80483e-08
6.68366e-07
5.52215e-07
6.3535e-09
6.15285e-09
6.25601e-09
9.38599e-09
4.25893e-08
3.27621e-07
2.89189e-06
2.56791e-05
0.000242135
0.00422379
0.469187
0.999963
0.999998
0.999999
0.999999
0.999996
0.99999
0.99999
0.999996
0.999998
0.999997
0.999997
0.999997
0.999915
0.999815
0.999813
0.999813
0.999813
0.999928
0.999981
0.999978
0.999464
0.992948
0.000341977
1.9099e-05
8.00145e-07
7.97601e-08
6.53683e-08
6.6833e-07
4.9067e-07
6.98199e-09
6.35297e-09
7.05272e-09
1.64032e-08
1.10691e-07
1.00913e-06
9.13056e-06
8.45528e-05
0.000824855
0.125374
0.851119
0.999999
0.999999
0.999999
0.999999
0.999997
0.999994
0.999998
0.999998
0.999998
0.999998
0.99992
0.99983
0.999814
0.999813
0.999813
0.999812
0.999946
0.999989
0.999985
0.999832
0.992427
0.989242
0.000234308
1.23751e-05
4.77008e-07
5.92761e-08
5.27394e-08
6.68366e-07
3.24062e-07
7.31411e-09
7.15414e-09
8.68295e-09
2.84553e-08
2.59384e-07
2.38643e-06
2.14835e-05
0.00020209
0.00234757
0.419895
0.999974
0.999999
0.999999
0.999999
0.999999
0.999999
0.999998
0.999998
0.999998
0.999952
0.999837
0.999816
0.999815
0.999815
0.999814
0.99984
0.999958
0.999991
0.99999
0.999989
0.999181
0.992216
0.992564
0.00015864
7.88263e-06
2.81133e-07
4.71984e-08
4.4133e-08
6.66682e-07
2.62999e-07
7.96811e-09
8.37707e-09
1.05631e-08
5.09514e-08
5.05338e-07
4.85962e-06
4.61858e-05
0.000467539
0.0583106
0.727007
0.999997
0.999999
0.999999
0.999999
0.999999
0.999999
0.999999
0.999994
0.999882
0.999831
0.999828
0.999826
0.999899
0.999894
0.9999
0.999976
0.999992
0.999991
0.999987
0.999986
0.99792
0.995142
0.995121
0.000105878
4.89796e-06
1.63771e-07
3.96234e-08
3.77523e-08
6.15638e-07
2.87517e-07
8.40755e-09
8.54395e-09
1.08587e-08
6.63329e-08
7.11279e-07
7.35928e-06
7.63707e-05
0.000865557
0.188839
0.909697
0.999998
0.999999
0.999999
0.999999
0.999999
0.999999
0.999996
0.999888
0.999837
0.999834
0.999889
0.999975
0.999986
0.99999
0.999992
0.999992
0.999992
0.999991
0.999974
0.99996
0.99803
0.995971
0.972469
6.93331e-05
2.93169e-06
9.8223e-08
3.58188e-08
3.48914e-08
7.11572e-07
4.15429e-07
8.06068e-09
8.40001e-09
9.27244e-09
5.77595e-08
8.38877e-07
9.61295e-06
0.000110765
0.0013472
0.350671
0.995786
0.999999
0.999999
0.999999
0.999999
0.999999
0.999999
0.999993
0.99987
0.999838
0.999922
0.999988
0.999984
0.999925
0.999914
0.999993
0.999994
0.999992
0.99999
0.999976
0.999973
0.997835
0.961157
0.930059
4.42328e-05
1.64812e-06
6.39187e-08
3.04008e-08
3.39685e-08
7.61622e-07
6.281e-07
7.7876e-09
8.05066e-09
1.15042e-08
6.49309e-08
1.01269e-06
1.2835e-05
0.000154884
0.00617879
0.506597
0.999999
0.999999
0.999999
0.999999
0.999999
0.999999
0.999999
0.999988
0.999951
0.999959
0.999993
0.99999
0.999914
0.999692
0.999693
0.999919
0.999994
0.999994
0.99999
0.999989
0.999987
0.982121
0.924406
0.926576
2.7162e-05
8.41288e-07
3.24626e-08
1.72569e-08
3.37483e-08
7.62868e-07
7.40924e-07
7.86242e-09
6.70266e-09
1.01333e-08
6.28084e-08
1.03993e-06
1.48549e-05
0.000196847
0.0235952
0.627475
0.999999
0.999999
0.999999
0.999999
0.999999
0.999999
0.999998
0.999995
0.999997
0.999996
0.999994
0.999934
0.999691
0.999691
0.999691
0.999692
0.999864
0.999995
0.999993
0.999991
0.996028
0.93733
0.923651
0.923459
1.57188e-05
3.69788e-07
1.43094e-08
8.50603e-09
3.65966e-08
7.62252e-07
7.58101e-07
7.33719e-09
4.81877e-09
1.71496e-08
2.15725e-07
2.45405e-06
2.28047e-05
0.00017282
0.0257947
0.632484
0.999999
0.999999
0.999999
0.999999
0.999999
0.999999
0.999999
0.999999
0.999998
0.999965
0.999952
0.999863
0.999691
0.999691
0.999691
0.999691
0.999823
0.999995
0.999994
0.999951
0.996537
0.946889
0.925748
0.912022
8.2722e-06
1.27632e-07
7.39549e-09
6.50492e-09
4.63506e-08
5.88449e-07
7.43073e-07
2.66585e-08
3.65073e-09
1.6003e-08
2.71365e-07
3.18545e-06
2.80169e-05
0.000161394
0.0206931
0.605396
0.999999
0.999999
0.999999
0.999999
0.999999
0.999999
0.999999
0.999995
0.999911
0.999875
0.999876
0.999886
0.999886
0.999764
0.999691
0.999822
0.999972
0.999995
0.999995
0.999913
0.998621
0.982066
0.92174
0.689641
3.88101e-06
3.82962e-08
3.80558e-09
6.50491e-09
9.06693e-08
2.49832e-07
7.31064e-07
4.87876e-08
3.12331e-09
8.68419e-09
1.81012e-07
2.40397e-06
2.49735e-05
0.000209857
0.0103516
0.535221
0.999999
0.999999
0.999999
0.999999
0.999999
0.999999
0.999992
0.999907
0.999875
0.999875
0.999875
0.999912
0.999998
0.999985
0.999961
0.999993
0.999995
0.999995
0.999995
0.999954
0.999419
0.986186
0.862786
0.659992
1.75103e-06
4.12882e-09
1.58537e-09
5.81872e-09
1.76524e-07
2.68817e-07
3.63561e-07
8.41224e-08
2.96346e-09
4.65592e-09
1.01397e-07
1.51783e-06
2.13242e-05
0.000271202
0.00279612
0.420965
0.996766
0.999999
0.999999
0.999999
0.999999
0.999999
0.999947
0.999875
0.999875
0.999875
0.999875
0.999982
0.999998
0.999998
0.999998
0.999997
0.999947
0.999893
0.999995
0.999995
0.999386
0.952239
0.691627
0.659905
6.35684e-07
5.15691e-09
1.53763e-09
2.7872e-09
3.67189e-07
5.56046e-07
1.33875e-07
1.32385e-07
2.96346e-09
4.90685e-09
1.00751e-07
1.62985e-06
2.50237e-05
0.000297926
0.00179231
0.299991
0.957894
0.999999
0.999999
0.999999
0.999999
0.999999
0.999946
0.999875
0.999875
0.999875
0.99992
0.999998
0.999998
0.999998
0.999998
0.998936
0.995673
0.996351
0.999326
0.997908
0.997632
0.925602
0.659884
0.659884
2.28591e-07
1.07562e-07
1.39634e-09
5.52524e-09
6.4973e-07
5.63284e-07
1.39621e-07
1.50543e-07
2.99143e-09
4.35288e-09
1.22932e-07
2.16353e-06
3.15079e-05
0.00028914
0.00135076
0.180316
0.885089
0.999999
0.999999
0.999999
0.999999
0.999999
0.999986
0.999903
0.999875
0.999904
0.999995
0.999998
0.999998
0.999998
0.999639
0.995911
0.995618
0.99562
0.995867
0.998938
0.99584
0.927452
0.659884
0.65985
1.84534e-07
1.66165e-07
1.00301e-09
5.44663e-10
5.68161e-07
3.2021e-06
2.14814e-06
1.655e-07
2.99533e-09
3.67771e-09
8.27713e-08
1.87524e-06
3.17922e-05
0.000233761
0.000876328
0.078062
0.757865
0.999999
0.999999
0.999999
0.999999
0.999999
0.999998
0.999987
0.999961
0.999986
0.999999
0.999999
0.999998
0.999998
0.99971
0.996146
0.995619
0.995618
0.995881
0.999958
0.996236
0.910449
0.659817
0.659904
5.97034e-07
5.90883e-08
1.94845e-09
5.43956e-10
1.69666e-07
3.83407e-06
3.86719e-06
2.66893e-07
3.4968e-09
4.26367e-09
5.05439e-09
5.85852e-07
2.0411e-05
0.000137683
0.000603461
0.0150982
0.541322
0.999999
0.999999
0.999999
0.999999
0.999999
0.999999
0.999999
0.999999
0.999999
0.999999
0.999999
0.999999
0.999998
0.999942
0.998802
0.995725
0.99562
0.998254
0.999974
0.99746
0.879195
0.659805
0.659883
6.06567e-07
3.27977e-09
1.15292e-09
5.43956e-10
6.50215e-09
3.86719e-06
3.88947e-06
6.97664e-07
4.90581e-09
4.33648e-09
4.97179e-09
6.45028e-09
2.49119e-06
7.90705e-05
0.000509057
0.00263107
0.268306
0.945952
0.999999
0.999999
0.999999
0.999999
0.999999
0.999999
0.999999
0.999999
0.999999
0.999999
0.999999
0.999998
0.999995
0.999839
0.998311
0.997752
0.999997
0.99998
0.99867
0.882518
0.659857
0.65989
4.96627e-07
3.92108e-09
5.79155e-10
5.07803e-10
4.33721e-10
3.0851e-06
3.88947e-06
1.18012e-06
7.27994e-09
5.025e-09
7.55713e-09
2.1577e-09
4.11097e-08
7.07353e-06
0.000451138
0.00149014
0.0652893
0.720196
0.999999
0.999999
0.999999
0.999999
0.999998
0.999998
0.999999
0.999999
0.999999
0.999997
0.999996
0.999998
0.999998
0.999807
0.99957
0.999995
0.999997
0.999986
0.999311
0.929804
0.725584
0.659949
3.37828e-07
1.19419e-09
4.99824e-10
4.09522e-10
3.14261e-10
4.56645e-07
3.88947e-06
1.56974e-06
1.26263e-08
7.41966e-09
9.45466e-09
9.21596e-09
1.53605e-08
1.97322e-07
0.000193113
0.000961696
0.00428704
0.323496
0.962028
0.999999
0.999999
0.999999
0.999998
0.999998
0.999999
0.999999
0.999999
0.999997
0.999992
0.999998
0.999963
0.999777
0.999796
0.999999
0.999997
0.999989
0.999612
0.984131
0.924467
0.660015
2.11962e-07
3.75454e-09
3.85356e-10
3.14441e-10
3.02379e-10
3.13198e-10
3.40714e-06
3.90703e-06
3.48673e-07
1.09618e-08
9.55531e-09
1.11667e-08
1.07087e-08
6.81849e-08
7.44026e-07
0.000542843
0.00173658
0.0496863
0.673006
0.999999
0.999999
0.999999
0.999999
0.999999
0.999999
0.999999
0.999999
0.999997
0.999992
0.999998
0.999968
0.999859
0.999992
0.999999
0.999997
0.99999
0.999841
0.993189
0.895593
0.660025
1.1659e-07
2.59293e-09
3.19328e-10
3.021e-10
3.00814e-10
2.9781e-10
2.57257e-06
3.94625e-06
5.32808e-07
1.55342e-08
1.11679e-08
1.38721e-08
1.45647e-08
1.60466e-08
1.78158e-07
5.99693e-05
0.000980936
0.00253576
0.214706
0.899914
0.999999
0.999999
0.999999
0.999999
0.999999
0.999917
0.999839
0.999988
0.999999
0.999998
0.999987
0.999998
0.999999
0.999999
0.999998
0.99999
0.999972
0.969518
0.68107
0.660049
5.52125e-08
1.45278e-09
3.15469e-10
3.00676e-10
3.00814e-10
2.56079e-10
1.18331e-06
3.95912e-06
2.85043e-06
1.97357e-07
1.56047e-08
1.49017e-08
1.64678e-08
2.11963e-08
2.82361e-08
9.95744e-07
0.000180583
0.00122954
0.010579
0.466882
0.991096
0.999999
0.999999
0.999999
0.999919
0.999794
0.999795
0.9999
0.999999
0.999999
0.999999
0.999999
0.999999
0.999999
0.999999
0.999994
0.999992
0.922425
0.660406
0.660108
2.32668e-08
1.33525e-09
5.67491e-10
3.50344e-10
4.52819e-10
3.91207e-10
5.92649e-10
3.9192e-06
5.4102e-06
6.95624e-07
2.24021e-08
1.67385e-08
1.99973e-08
1.87295e-08
3.13326e-08
2.69601e-07
2.89921e-06
0.000353506
0.00125534
0.0593085
0.676975
0.999999
0.999999
0.999999
0.999938
0.999794
0.999794
0.999974
0.999999
0.999999
0.999999
0.999999
0.999999
0.999999
0.999999
0.999995
0.999959
0.933787
0.699335
0.88067
9.20685e-09
1.09703e-09
1.32945e-09
4.1045e-10
1.17178e-09
6.55707e-10
6.95469e-10
3.99081e-06
5.52699e-06
1.32323e-06
3.36681e-08
1.99497e-08
2.00626e-08
1.66347e-08
2.03914e-08
8.59442e-08
8.1629e-07
6.66869e-06
0.000492632
0.000929012
0.0919348
0.655644
0.980475
0.999998
0.999993
0.999951
0.999949
0.999999
0.999999
0.999999
0.999999
0.999999
0.999999
0.999996
0.999996
0.999996
0.997436
0.972907
0.974176
0.992472
1.98253e-09
2.95535e-10
1.91517e-09
5.89839e-10
2.76815e-09
6.86314e-10
7.17364e-10
2.81157e-06
5.52699e-06
5.00603e-06
3.52368e-07
2.13597e-08
1.73292e-08
1.29173e-08
1.53999e-08
4.00503e-08
2.10462e-07
5.00806e-06
1.70631e-05
0.000131642
0.000931459
0.109758
0.773249
0.999999
0.999998
0.999998
0.999993
0.999951
0.999957
0.999999
0.999999
0.999999
0.999999
0.999997
0.999995
0.999834
0.999203
0.99999
0.999435
0.99222
-2.28698e-11
1.14172e-10
2.42138e-09
8.70853e-10
4.97776e-09
1.35464e-09
1.13323e-09
1.60845e-07
5.19832e-06
6.84438e-06
1.09395e-06
2.15605e-08
1.24801e-08
1.07983e-08
1.27849e-08
1.86493e-08
2.4687e-07
2.86236e-06
5.12396e-06
4.41835e-05
0.000545787
0.155038
0.854427
0.999999
0.999999
0.999996
0.999952
0.999943
0.999943
0.999984
0.999999
0.999999
0.999999
0.999999
0.999985
0.999962
0.999998
0.999993
0.996882
0.979936
3.88617e-12
1.14824e-10
2.73156e-09
1.12889e-09
7.58373e-09
3.70237e-09
1.82186e-09
1.9162e-09
4.02263e-06
6.99486e-06
2.61669e-06
2.05318e-08
1.19622e-08
9.33095e-09
1.04819e-08
2.12319e-08
2.16049e-07
6.08308e-07
3.95701e-06
7.00331e-05
0.00540136
0.495733
0.999999
0.999999
0.999999
0.999994
0.999945
0.999943
0.999954
0.999999
0.999999
0.999999
0.999998
0.999997
0.999998
0.999998
0.999998
0.999996
0.993484
0.979936
3.87347e-12
8.47722e-11
2.80607e-09
1.42984e-09
1.02111e-08
4.49068e-09
1.9274e-09
1.93851e-09
4.18345e-06
7.06499e-06
3.07192e-06
2.46037e-08
1.31296e-08
8.39465e-09
8.49879e-09
2.08389e-08
1.64096e-07
4.51098e-07
3.12277e-06
7.24857e-05
0.0117556
0.5581
0.999999
0.999999
0.999999
0.999998
0.999985
0.999979
0.999994
0.999999
0.999998
0.999996
0.999996
0.999997
0.999998
0.999998
0.999998
0.999872
0.988322
0.979936
3.88666e-12
5.38175e-11
2.80717e-09
2.00688e-09
1.22362e-08
4.39154e-09
1.92628e-09
1.84895e-09
6.29402e-06
7.09202e-06
3.51147e-06
7.37929e-08
1.3737e-08
7.87907e-09
6.8746e-09
1.79073e-08
1.2816e-07
7.5969e-07
2.01545e-05
0.000367035
0.00184041
0.143415
0.797449
0.999999
0.999999
0.999999
0.999999
0.999999
0.999998
0.999996
0.999996
0.999996
0.999996
0.999998
0.999998
0.999998
0.999994
0.998611
0.984867
0.980158
3.9388e-12
2.9089e-11
2.79586e-09
4.50083e-09
1.34261e-08
1.67722e-08
1.92809e-09
1.64047e-09
6.44686e-06
7.10448e-06
5.95734e-06
2.08972e-07
1.443e-08
7.77737e-09
5.33856e-09
1.51237e-08
8.8161e-08
7.57189e-07
2.07523e-05
0.000273549
0.000793559
0.00178401
0.210022
0.892202
0.999999
0.999999
0.999999
0.999999
0.999999
0.999996
0.999996
0.999998
0.999998
0.999998
0.999998
0.999998
0.999897
0.997836
0.995879
0.998082
3.99794e-12
1.47957e-11
2.25142e-09
1.17177e-08
1.42249e-08
2.10239e-08
1.68579e-09
1.49411e-09
4.33993e-06
7.12156e-06
7.12268e-06
3.87962e-07
1.13572e-08
7.37343e-09
4.18199e-09
1.00258e-08
3.89649e-08
3.07826e-07
1.06148e-05
5.31878e-05
0.000163786
0.00126954
0.300121
0.951081
0.999999
0.999999
0.999999
0.999999
0.999998
0.999998
0.999998
0.999998
0.999998
0.999998
0.999998
0.999981
0.999696
0.999635
0.999629
0.99948
4.02347e-12
1.41173e-11
1.54872e-09
1.67129e-08
1.25617e-08
2.05263e-08
1.4783e-09
1.4783e-09
1.71115e-06