/*--------------------------------*- C++ -*----------------------------------*\
  =========                 |
  \\      /  F ield         | OpenFOAM: The Open Source CFD Toolbox
   \\    /   O peration     | Website:  https://openfoam.org
    \\  /    A nd           | Version:  8
     \\/     M anipulation  |
\*---------------------------------------------------------------------------*/
FoamFile
{
    version     2.0;
    format      ascii;
    class       surfaceScalarField;
    location    "0.65";
    object      alphaPhi0.water;
}
// * * * * * * * * * * * * * * * * * * * * * * * * * * * * * * * * * * * * * //

dimensions      [0 3 -1 0 0 0 0];

internalField   nonuniform List<scalar> 
18095
(
1.58925e-07
-9.6457e-07
8.05645e-07
1.65931e-07
-1.24813e-06
1.24112e-06
1.22715e-07
-1.24245e-06
1.28567e-06
6.56062e-08
-1.26383e-06
1.32094e-06
-9.77808e-15
-1.28102e-06
1.34663e-06
-6.56062e-08
-1.28102e-06
1.34663e-06
-1.22715e-07
-1.26383e-06
1.32094e-06
-1.65931e-07
-1.24245e-06
1.28567e-06
-1.58925e-07
-1.24812e-06
1.24112e-06
-9.6457e-07
8.05645e-07
1.11277e-07
-1.07585e-06
9.9842e-08
-1.23669e-06
7.32293e-08
-1.21584e-06
4.02472e-08
-1.23085e-06
-3.90172e-14
-1.24077e-06
-4.02473e-08
-1.24077e-06
-7.32293e-08
-1.23085e-06
-9.9842e-08
-1.21584e-06
-1.11277e-07
-1.23669e-06
-1.07585e-06
6.74373e-08
-1.14328e-06
5.30877e-08
-1.22234e-06
4.23978e-08
-1.20515e-06
2.40081e-08
-1.21246e-06
-5.66721e-14
-1.21677e-06
-2.40082e-08
-1.21677e-06
-4.23979e-08
-1.21246e-06
-5.30877e-08
-1.20515e-06
-6.74373e-08
-1.22234e-06
-1.14328e-06
3.9838e-08
-1.18312e-06
2.68271e-08
-1.20933e-06
2.21727e-08
-1.2005e-06
1.26276e-08
-1.20291e-06
-3.68357e-14
-1.20414e-06
-1.26277e-08
-1.20414e-06
-2.21727e-08
-1.20291e-06
-2.68271e-08
-1.2005e-06
-3.9838e-08
-1.20933e-06
-1.18312e-06
1.68786e-08
7.54869e-09
7.05108e-09
4.13801e-09
5.72969e-15
-4.138e-09
-7.05106e-09
-7.54867e-09
-1.68786e-08
-1.76466e-07
-1.16228e-06
1.33875e-06
-2.20644e-07
-1.21592e-06
1.2601e-06
-1.66282e-07
-1.21296e-06
1.1586e-06
-8.76222e-08
-1.20492e-06
1.12626e-06
8.7104e-14
-1.20392e-06
1.11629e-06
8.76223e-08
-1.20392e-06
1.11629e-06
1.66282e-07
-1.20492e-06
1.12626e-06
2.20644e-07
-1.21296e-06
1.1586e-06
1.76466e-07
-1.21592e-06
1.2601e-06
-1.16228e-06
1.33875e-06
-9.28149e-08
-1.06946e-06
-9.57873e-08
-1.21295e-06
-7.94896e-08
-1.22926e-06
-4.43551e-08
-1.24006e-06
6.57926e-14
-1.24827e-06
4.43553e-08
-1.24827e-06
7.94897e-08
-1.24006e-06
9.57874e-08
-1.22926e-06
9.28149e-08
-1.21295e-06
-1.06946e-06
-5.79072e-08
-1.01156e-06
-5.50019e-08
-1.21585e-06
-4.63409e-08
-1.23792e-06
-2.70184e-08
-1.25938e-06
3.96271e-14
-1.27529e-06
2.70184e-08
-1.27529e-06
4.6341e-08
-1.25938e-06
5.5002e-08
-1.23792e-06
5.79072e-08
-1.21585e-06
-1.01156e-06
-7.47856e-08
-9.36771e-07
-6.17967e-08
-1.22884e-06
-4.82701e-08
-1.25145e-06
-2.75529e-08
-1.2801e-06
2.6975e-14
-1.30284e-06
2.7553e-08
-1.30284e-06
4.82702e-08
-1.2801e-06
6.17968e-08
-1.25145e-06
7.47856e-08
-1.22884e-06
-9.36771e-07
-1.31126e-07
-1.18849e-07
-8.46273e-08
-4.37842e-08
1.70798e-14
4.37842e-08
8.46273e-08
1.18849e-07
1.31126e-07
-6.242e-08
-9.49256e-07
1.01168e-06
1.85654e-09
-1.32888e-06
1.2646e-06
1.71394e-08
-1.26833e-06
1.25305e-06
8.95189e-09
-1.22861e-06
1.23679e-06
1.9739e-12
-1.22493e-06
1.23387e-06
-8.94837e-09
-1.22493e-06
1.23388e-06
-1.7137e-08
-1.22861e-06
1.2368e-06
-1.85602e-09
-1.26833e-06
1.25305e-06
6.24193e-08
-1.32888e-06
1.2646e-06
-9.49259e-07
1.01168e-06
3.48563e-09
-9.52741e-07
1.68079e-08
-1.3422e-06
1.41407e-08
-1.26567e-06
6.8996e-09
-1.22136e-06
8.75258e-13
-1.21803e-06
-6.89805e-09
-1.21803e-06
-1.41403e-08
-1.22136e-06
-1.6808e-08
-1.26567e-06
-3.48386e-09
-1.3422e-06
-9.52743e-07
2.42689e-08
-9.7701e-07
1.78388e-08
-1.33577e-06
1.03828e-08
-1.25821e-06
5.91544e-09
-1.2169e-06
4.31968e-13
-1.21211e-06
-5.91467e-09
-1.21211e-06
-1.03821e-08
-1.2169e-06
-1.7838e-08
-1.25821e-06
-2.42679e-08
-1.33577e-06
-9.77011e-07
7.77415e-08
-1.05475e-06
5.32835e-08
-1.31131e-06
3.46215e-08
-1.23955e-06
2.08932e-08
-1.20317e-06
2.09194e-13
-1.19122e-06
-2.08928e-08
-1.19122e-06
-3.46212e-08
-1.20317e-06
-5.32831e-08
-1.23955e-06
-7.77412e-08
-1.31131e-06
-1.05475e-06
2.83993e-07
2.32779e-07
1.51831e-07
7.49243e-08
1.38453e-13
-7.4924e-08
-1.51831e-07
-2.32779e-07
-2.83993e-07
-1.10382e-06
-2.57039e-07
1.36086e-06
-8.35921e-07
-2.67897e-07
-5.61201e-07
-2.74721e-07
-2.82799e-07
-2.78402e-07
-3.73888e-09
-2.7906e-07
2.75329e-07
-2.79068e-07
5.53792e-07
-2.78463e-07
8.28661e-07
-2.7487e-07
1.09681e-06
-2.68148e-07
-2.57421e-07
1.35423e-06
-8.20293e-07
-4.43124e-07
1.00638e-06
-6.24293e-07
-4.63897e-07
-4.21312e-07
-4.77702e-07
-2.13662e-07
-4.86052e-07
-2.79838e-09
-4.89924e-07
2.08113e-07
-4.8998e-07
4.1588e-07
-4.86229e-07
6.19036e-07
-4.78025e-07
8.15289e-07
-4.64402e-07
-4.4386e-07
1.00173e-06
-6.11291e-07
-5.83513e-07
7.5168e-07
-4.64328e-07
-6.1086e-07
-3.1274e-07
-6.2929e-07
-1.58165e-07
-6.40627e-07
-2.03577e-09
-6.46053e-07
1.54119e-07
-6.46135e-07
3.08772e-07
-6.40882e-07
4.60488e-07
-6.29741e-07
6.07639e-07
-6.11553e-07
-5.84511e-07
7.4829e-07
-4.49014e-07
-6.88117e-07
5.53619e-07
-3.40396e-07
-7.19478e-07
-2.28959e-07
-7.40727e-07
-1.15678e-07
-7.53908e-07
-1.47499e-09
-7.60256e-07
1.12746e-07
-7.60356e-07
2.2608e-07
-7.54217e-07
3.37606e-07
-7.41268e-07
4.46351e-07
-7.20298e-07
-6.8929e-07
5.5113e-07
-3.2266e-07
-7.65015e-07
3.99558e-07
-2.43998e-07
-7.9814e-07
-1.63921e-07
-8.20803e-07
-8.27862e-08
-8.35043e-07
-1.0786e-09
-8.41963e-07
8.06406e-08
-8.42075e-07
1.6181e-07
-8.35386e-07
2.41939e-07
-8.21397e-07
3.20669e-07
-7.99027e-07
-7.6627e-07
3.97649e-07
-2.42412e-07
-8.27196e-07
3.04593e-07
-1.81582e-07
-8.58971e-07
-1.21301e-07
-8.81084e-07
-6.11056e-08
-8.95239e-07
-8.62884e-10
-9.02206e-07
5.93795e-08
-9.02317e-07
1.19571e-07
-8.95577e-07
1.79841e-07
-8.81667e-07
2.40646e-07
-8.59833e-07
-8.28413e-07
3.02789e-07
-2.06079e-07
-8.84993e-07
2.63877e-07
-1.52176e-07
-9.12874e-07
-1.00646e-07
-9.32614e-07
-5.04236e-08
-9.45462e-07
-7.76678e-10
-9.51853e-07
4.88573e-08
-9.51951e-07
9.90381e-08
-9.45758e-07
1.50489e-07
-9.33117e-07
2.04261e-07
-9.13605e-07
-8.86077e-07
2.61925e-07
-1.9702e-07
-9.41469e-07
2.535e-07
-1.44022e-07
-9.65872e-07
-9.45013e-08
-9.82135e-07
-4.71124e-08
-9.92851e-07
-7.31876e-10
-9.98234e-07
4.56358e-08
-9.98319e-07
9.29833e-08
-9.93106e-07
1.42425e-07
-9.82559e-07
1.95288e-07
-9.66468e-07
-9.42896e-07
2.5211e-07
-1.95083e-07
-9.93145e-07
2.4675e-07
-1.42594e-07
-1.01836e-06
-9.3551e-08
-1.03118e-06
-4.663e-08
-1.03977e-06
-7.41378e-10
-1.04412e-06
4.51366e-08
-1.0442e-06
9.20245e-08
-1.03999e-06
1.41006e-07
-1.03154e-06
1.9339e-07
-1.01885e-06
-9.94998e-07
2.45496e-07
-1.93636e-07
-1.02997e-06
2.30463e-07
-1.42415e-07
-1.06958e-06
-9.3808e-08
-1.07978e-06
-4.68788e-08
-1.0867e-06
-7.85196e-10
-1.09022e-06
4.52961e-08
-1.09028e-06
9.219e-08
-1.08689e-06
1.40744e-07
-1.08009e-06
1.91903e-07
-1.07001e-06
-1.03402e-06
2.30922e-07
-1.90275e-07
-1.03518e-06
1.95495e-07
-1.41095e-07
-1.11876e-06
-9.339e-08
-1.12749e-06
-4.67907e-08
-1.1333e-06
-7.79414e-10
-1.13623e-06
4.52185e-08
-1.13628e-06
9.17792e-08
-1.13345e-06
1.3943e-07
-1.12775e-06
1.8859e-07
-1.11917e-06
-1.04492e-06
1.9951e-07
-1.84132e-07
-1.00163e-06
1.45997e-07
-1.37372e-07
-1.16552e-06
-9.11936e-08
-1.17367e-06
-4.57382e-08
-1.17876e-06
-6.91416e-10
-1.18127e-06
4.43472e-08
-1.18131e-06
8.97786e-08
-1.17888e-06
1.35917e-07
-1.17388e-06
1.82657e-07
-1.16591e-06
-1.01803e-06
1.51702e-07
-1.76352e-07
-9.1548e-07
8.53662e-08
-1.31792e-07
-1.21008e-06
-8.75559e-08
-1.2179e-06
-4.3928e-08
-1.22238e-06
-6.04e-10
-1.2246e-06
4.27148e-08
-1.22463e-06
8.63251e-08
-1.22249e-06
1.30524e-07
-1.21808e-06
1.7516e-07
-1.21055e-06
-9.38283e-07
9.08399e-08
-1.66936e-07
-8.04401e-07
5.01746e-08
-1.25818e-07
-1.2512e-06
-8.36053e-08
-1.26012e-06
-4.19461e-08
-1.26404e-06
-5.55406e-10
-1.26599e-06
4.08322e-08
-1.26602e-06
8.24805e-08
-1.26414e-06
1.24667e-07
-1.26027e-06
1.66137e-07
-1.25201e-06
-8.33054e-07
5.55371e-08
-1.5529e-07
-6.78093e-07
2.28116e-08
-1.19692e-07
-1.2868e-06
-7.95835e-08
-1.30023e-06
-3.99473e-08
-1.30368e-06
-5.36674e-10
-1.3054e-06
3.88728e-08
-1.30543e-06
7.85047e-08
-1.30377e-06
1.18603e-07
-1.30037e-06
1.55227e-07
-1.28864e-06
-7.1078e-07
2.71522e-08
-1.39367e-07
-5.53994e-07
9.38813e-09
-1.1349e-07
-1.31267e-06
-7.55291e-08
-1.33819e-06
-3.79359e-08
-1.34127e-06
-5.14814e-10
-1.34282e-06
3.69058e-08
-1.34285e-06
7.45003e-08
-1.34136e-06
1.12471e-07
-1.33834e-06
1.40659e-07
-1.31683e-06
-5.86329e-07
1.07311e-08
-1.14975e-07
-4.49187e-07
5.2318e-09
-1.0738e-07
-1.32025e-06
-7.15428e-08
-1.37402e-06
-3.59337e-08
-1.37688e-06
-4.45275e-10
-1.37831e-06
3.50407e-08
-1.37834e-06
7.0646e-08
-1.37697e-06
1.06498e-07
-1.37419e-06
1.19554e-07
-1.32987e-06
-4.76953e-07
5.50694e-09
-9.30562e-08
-3.63772e-07
3.89849e-09
-1.01377e-07
-1.31468e-06
-6.75356e-08
-1.40787e-06
-3.38783e-08
-1.41054e-06
-3.20329e-10
-1.41187e-06
3.3237e-08
-1.41189e-06
6.68894e-08
-1.41062e-06
1.00707e-07
-1.40801e-06
9.60504e-08
-1.32744e-06
-3.88611e-07
4.03608e-09
-7.5783e-08
-2.94234e-07
3.03033e-09
-9.54911e-08
-1.29686e-06
-6.35385e-08
-1.43982e-06
-3.18235e-08
-1.44225e-06
-2.12717e-10
-1.44348e-06
3.13947e-08
-1.4435e-06
6.30995e-08
-1.44233e-06
9.50371e-08
-1.43995e-06
7.80335e-08
-1.3122e-06
-3.169e-07
3.14694e-09
-6.37336e-08
-2.35697e-07
2.36533e-09
-8.97181e-08
-1.27319e-06
-5.96888e-08
-1.46985e-06
-2.98564e-08
-1.47209e-06
-1.21565e-10
-1.47321e-06
2.961e-08
-1.47323e-06
5.94329e-08
-1.47215e-06
8.94454e-08
-1.46996e-06
6.61578e-08
-1.29098e-06
-2.55995e-07
2.47766e-09
-5.26563e-08
-1.87272e-07
1.82171e-09
-8.41362e-08
-1.24424e-06
-5.59641e-08
-1.49802e-06
-2.79643e-08
-1.50008e-06
-4.98732e-11
-1.50113e-06
2.7861e-08
-1.50114e-06
5.58497e-08
-1.50014e-06
8.40015e-08
-1.49811e-06
5.50641e-08
-1.26432e-06
-2.05241e-07
1.92306e-09
-4.31218e-08
-1.47588e-07
1.39271e-09
-7.87708e-08
-1.21133e-06
-5.23834e-08
-1.52441e-06
-2.61535e-08
-1.52632e-06
-1.55429e-12
-1.52728e-06
2.61467e-08
-1.52729e-06
5.2365e-08
-1.52636e-06
7.87316e-08
-1.52448e-06
4.54532e-08
-1.23353e-06
-1.63315e-07
1.48229e-09
-3.49797e-08
-1.1538e-07
1.05637e-09
-7.36284e-08
-1.17557e-06
-4.89559e-08
-1.54908e-06
-2.44277e-08
-1.55084e-06
2.87379e-11
-1.55174e-06
2.44817e-08
-1.55175e-06
4.89993e-08
-1.55087e-06
7.36533e-08
-1.54913e-06
3.71842e-08
-1.1997e-06
-1.29e-07
1.13381e-09
-2.81003e-08
-8.94988e-08
7.95012e-10
-6.86973e-08
-1.13798e-06
-4.56731e-08
-1.5721e-06
-2.27803e-08
-1.57374e-06
4.66931e-11
-1.57456e-06
2.28708e-08
-1.57457e-06
4.57547e-08
-1.57376e-06
6.87641e-08
-1.57214e-06
3.01468e-08
-1.16384e-06
-1.01171e-07
8.60689e-10
-2.23527e-08
-6.89104e-08
5.93752e-10
-6.39655e-08
-1.09943e-06
-4.25251e-08
-1.59354e-06
-2.12034e-08
-1.59506e-06
5.85975e-11
-1.59582e-06
2.13182e-08
-1.59583e-06
4.2633e-08
-1.59507e-06
6.40624e-08
-1.59357e-06
2.42247e-08
-1.12685e-06
-7.88071e-08
6.48573e-10
-1.76015e-08
-5.27001e-08
4.40124e-10
-5.94215e-08
-1.06074e-06
-3.95024e-08
-1.61346e-06
-1.96894e-08
-1.61487e-06
6.96391e-11
-1.61558e-06
1.98268e-08
-1.61559e-06
3.96344e-08
-1.61488e-06
5.95457e-08
-1.61348e-06
1.9293e-08
-1.0895e-06
-6.09974e-08
4.85243e-10
-1.37151e-08
-4.00711e-08
3.23829e-10
-5.50554e-08
-1.02254e-06
-3.65968e-08
-1.63192e-06
-1.82324e-08
-1.63324e-06
8.32221e-11
-1.6339e-06
1.83972e-08
-1.6339e-06
3.6757e-08
-1.63324e-06
5.52098e-08
-1.63193e-06
1.52276e-08
-1.05248e-06
-4.69438e-08
3.60542e-10
-1.05685e-08
-3.03396e-08
2.36379e-10
-5.08572e-08
-9.854e-07
-3.38018e-08
-1.64898e-06
-1.68285e-08
-1.65021e-06
1.00209e-10
-1.65083e-06
1.70274e-08
-1.65083e-06
3.39962e-08
-1.65021e-06
5.10481e-08
-1.64899e-06
1.19085e-08
-1.01632e-06
-3.59563e-08
2.66053e-10
-8.04704e-09
-2.29278e-08
1.7081e-10
-4.68174e-08
-9.49759e-07
-3.11126e-08
-1.66468e-06
-1.54762e-08
-1.66585e-06
1.18816e-10
-1.66642e-06
1.57125e-08
-1.66642e-06
3.13449e-08
-1.66584e-06
4.705e-08
-1.66469e-06
9.22339e-09
-9.81463e-07
-2.74484e-08
1.94794e-10
-6.0478e-09
-1.73541e-08
1.22279e-10
-4.29248e-08
-9.1601e-07
-2.8527e-08
-1.67908e-06
-1.41763e-08
-1.6802e-06
1.35464e-10
-1.68073e-06
1.44464e-08
-1.68073e-06
2.8794e-08
-1.68019e-06
4.32029e-08
-1.6791e-06
7.07055e-09
-9.48276e-07
-2.09287e-08
1.41301e-10
-4.48051e-09
-1.32215e-08
8.70131e-11
-3.91622e-08
-8.84482e-07
-2.60436e-08
-1.6922e-06
-1.293e-08
-1.69331e-06
1.47218e-10
-1.69381e-06
1.32244e-08
-1.69381e-06
2.63373e-08
-1.6933e-06
3.94935e-08
-1.69226e-06
5.36074e-09
-9.17063e-07
-1.59886e-08
1.01679e-10
-3.26683e-09
-1.02088e-08
6.13096e-11
-3.54972e-08
-8.5542e-07
-2.36605e-08
-1.70404e-06
-1.17358e-08
-1.70523e-06
1.55367e-10
-1.7057e-06
1.20475e-08
-1.7057e-06
2.39747e-08
-1.70523e-06
3.59081e-08
-1.70419e-06
4.01699e-09
-8.88099e-07
-1.22876e-08
7.27161e-11
-2.33937e-09
-8.04539e-09
4.34495e-11
-3.18616e-08
-8.29023e-07
-2.13702e-08
-1.71453e-06
-1.05865e-08
-1.71602e-06
1.67512e-10
-1.71646e-06
1.09233e-08
-1.71646e-06
2.17127e-08
-1.71602e-06
3.24255e-08
-1.7149e-06
2.97326e-09
-8.61588e-07
-9.54665e-09
5.17158e-11
-1.64252e-09
-6.52507e-09
3.06953e-11
-2.81346e-08
-8.05493e-07
-1.91645e-08
-1.7235e-06
-9.47272e-09
-1.72571e-06
1.93339e-10
-1.72612e-06
9.86116e-09
-1.72613e-06
1.95592e-08
-1.72572e-06
2.89971e-08
-1.72434e-06
2.17274e-09
-8.37677e-07
-7.53147e-09
3.68805e-11
-1.13093e-09
-5.43907e-09
2.29271e-11
-2.41225e-08
-7.85321e-07
-1.70219e-08
-1.7306e-06
-8.37739e-09
-1.73435e-06
2.45182e-10
-1.73475e-06
8.86938e-09
-1.73475e-06
1.75198e-08
-1.73437e-06
2.55235e-08
-1.73234e-06
1.56773e-09
-8.16487e-07
-6.07078e-09
2.62913e-11
-9.03305e-10
-4.57709e-09
1.76189e-11
-1.94372e-08
-7.69294e-07
-1.49434e-08
-1.73509e-06
-7.30511e-09
-1.74199e-06
3.1482e-10
-1.74237e-06
7.93629e-09
-1.74237e-06
1.558e-08
-1.74201e-06
2.18384e-08
-1.7386e-06
1.11898e-09
-7.98389e-07
-4.99116e-09
1.93489e-11
-7.92883e-10
-3.81521e-09
1.36222e-11
-1.55334e-08
-7.56803e-07
-1.29577e-08
-1.7383e-06
-6.28088e-09
-1.74867e-06
3.78035e-10
-1.74902e-06
7.03731e-09
-1.74903e-06
1.37147e-08
-1.74869e-06
1.75652e-08
-1.74245e-06
8.41038e-10
-7.83985e-07
-4.18679e-09
1.48518e-11
-7.13687e-10
-3.12684e-09
1.05056e-11
-1.31757e-08
-7.46544e-07
-1.10713e-08
-1.74074e-06
-5.31368e-09
-1.75443e-06
4.25166e-10
-1.75476e-06
6.16317e-09
-1.75477e-06
1.19173e-08
-1.75444e-06
1.40225e-08
-1.74513e-06
7.47148e-10
-7.72796e-07
-3.46668e-09
1.15276e-11
-6.45632e-10
-2.50075e-09
7.98561e-12
-1.10166e-08
-7.38284e-07
-9.27771e-09
-1.74283e-06
-4.40121e-09
-1.7593e-06
4.57934e-10
-1.75962e-06
5.31604e-09
-1.75963e-06
1.01898e-08
-1.75932e-06
1.18438e-08
-1.74709e-06
6.79102e-10
-7.63692e-07
-2.80973e-09
8.85711e-12
-5.88608e-10
-1.92708e-09
5.90399e-12
-8.98647e-09
-7.31878e-07
-7.56991e-09
-1.74458e-06
-3.53618e-09
-1.76334e-06
4.82283e-10
-1.76364e-06
4.49987e-09
-1.76364e-06
8.53162e-09
-1.76335e-06
9.82748e-09
-1.7487e-06
6.19919e-10
-7.5644e-07
-2.20701e-09
6.64863e-12
-5.38999e-10
-1.39866e-09
4.15439e-12
-7.07845e-09
-7.27274e-07
-5.94295e-09
-1.74604e-06
-2.71502e-09
-1.76657e-06
5.00539e-10
-1.76686e-06
3.71535e-09
-1.76686e-06
6.94252e-09
-1.76658e-06
7.92149e-09
-1.74996e-06
5.68695e-10
-7.50959e-07
-1.65113e-09
4.78697e-12
-4.93792e-10
-9.12326e-10
2.67525e-12
-5.28036e-09
-7.24263e-07
-4.39318e-09
-1.74723e-06
-1.93558e-09
-1.76902e-06
5.13917e-10
-1.76931e-06
2.96281e-09
-1.76931e-06
5.42178e-09
-1.76903e-06
6.12209e-09
-1.75093e-06
5.22293e-10
-7.47094e-07
-1.13818e-09
3.21478e-12
-4.43231e-10
-4.73772e-10
1.44351e-12
-3.5834e-09
-7.2292e-07
-2.91654e-09
-1.74819e-06
-1.19648e-09
-1.77074e-06
5.23238e-10
-1.77103e-06
2.2425e-09
-1.77103e-06
3.96831e-09
-1.77076e-06
4.42033e-09
-1.75163e-06
4.7832e-10
-7.4487e-07
-6.66195e-10
1.88854e-12
-3.50659e-10
-1.25603e-10
5.16761e-13
-1.98065e-09
-7.23037e-07
-1.52413e-09
-1.7489e-06
-4.96924e-10
-1.77177e-06
5.29135e-10
-1.77205e-06
1.55486e-09
-1.77205e-06
2.58024e-09
-1.77179e-06
2.81094e-09
-1.75209e-06
4.11711e-10
-7.44037e-07
-2.584e-10
8.29777e-13
-1.26567e-10
-1.13104e-17
4.49552e-14
-4.66462e-10
-7.24116e-07
-2.12979e-10
-1.74939e-06
1.63524e-10
-1.77215e-06
5.3194e-10
-1.77242e-06
9.00105e-10
-1.77242e-06
1.27032e-09
-1.77216e-06
1.28814e-09
-1.7523e-06
2.6056e-10
-7.44558e-07
-9.96952e-18
1.57916e-13
9.70903e-18
-2.11846e-17
-8.79569e-21
1.08414e-09
-7.26753e-07
1.03078e-09
-1.74951e-06
7.85592e-10
-1.7719e-06
5.32195e-10
-1.77217e-06
2.78644e-10
-1.77217e-06
3.28195e-11
-1.77191e-06
-1.71662e-10
-1.75227e-06
-1.0841e-17
-7.46157e-07
-2.08921e-17
-2.32935e-21
1.57373e-17
-3.70688e-17
-2.45636e-20
2.60562e-09
-7.30735e-07
2.20226e-09
-1.74929e-06
1.36953e-09
-1.77107e-06
5.29687e-10
-1.77133e-06
-3.10231e-10
-1.77133e-06
-1.14317e-09
-1.77108e-06
-1.71217e-09
-1.75184e-06
-1.74713e-17
-7.49193e-07
-3.84329e-17
-1.42975e-20
3.54038e-17
-7.25204e-17
-1.03289e-19
4.04506e-09
-7.36079e-07
3.30099e-09
-1.7487e-06
1.91582e-09
-1.76969e-06
5.24434e-10
-1.76994e-06
-8.66985e-10
-1.76994e-06
-2.25228e-09
-1.76969e-06
-3.17201e-09
-1.75106e-06
-3.93084e-17
-7.53598e-07
-7.77616e-17
-6.80551e-20
7.94836e-17
-1.51855e-16
-2.58891e-19
5.40757e-09
-7.42685e-07
4.32889e-09
-1.74776e-06
2.42577e-09
-1.76778e-06
5.17162e-10
-1.76803e-06
-1.39146e-09
-1.76803e-06
-3.29463e-09
-1.76779e-06
-4.5547e-09
-1.74992e-06
-8.84005e-17
-7.59293e-07
-1.66255e-16
-7.74112e-20
1.78619e-16
-3.30024e-16
-5.57032e-19
6.69807e-09
-7.50482e-07
5.2885e-09
-1.74648e-06
2.90096e-09
-1.76539e-06
5.08464e-10
-1.76563e-06
-1.88405e-09
-1.76564e-06
-4.27163e-09
-1.7654e-06
-5.86503e-09
-1.74843e-06
-1.99294e-16
-7.66205e-07
-3.65719e-16
-7.08822e-20
4.02015e-16
-7.31511e-16
-6.93097e-19
7.92142e-09
-7.59404e-07
6.18276e-09
-1.74484e-06
3.34306e-09
-1.76255e-06
4.98736e-10
-1.76279e-06
-2.34563e-09
-1.76279e-06
-5.18551e-09
-1.76256e-06
-7.10753e-09
-1.7466e-06
-4.49947e-16
-7.74267e-07
-8.15836e-16
-9.20556e-20
9.07481e-16
-1.63836e-15
-8.38984e-19
9.08251e-09
-7.69387e-07
7.01509e-09
-1.74286e-06
3.75395e-09
-1.75929e-06
4.88232e-10
-1.75952e-06
-2.77759e-09
-1.75952e-06
-6.03916e-09
-1.7593e-06
-8.28702e-09
-1.74443e-06
-1.017e-15
-7.83413e-07
-1.83298e-15
-1.26594e-19
2.05289e-15
-3.69052e-15
-9.91207e-19
1.01863e-08
-7.80372e-07
7.7893e-09
-1.74054e-06
4.13549e-09
-1.75564e-06
4.77051e-10
-1.75587e-06
-3.18164e-09
-1.75587e-06
-6.83618e-09
-1.75565e-06
-9.40862e-09
-1.74192e-06
-2.30178e-15
-7.93582e-07
-4.13495e-15
-1.14684e-19
4.6529e-15
-8.3426e-15
-1.12361e-18
1.12379e-08
-7.92304e-07
8.50918e-09
-1.73787e-06
4.4897e-09
-1.75162e-06
4.6516e-10
-1.75184e-06
-3.5598e-09
-1.75184e-06
-7.5807e-09
-1.75163e-06
-1.04778e-08
-1.73907e-06
-5.2178e-15
-8.04719e-07
-9.35297e-15
-1.02721e-19
1.05653e-14
-1.8907e-14
-1.28831e-18
1.22422e-08
-8.05133e-07
9.17892e-09
-1.73485e-06
4.81855e-09
-1.74726e-06
4.52359e-10
-1.74748e-06
-3.91446e-09
-1.74747e-06
-8.27707e-09
-1.74726e-06
-1.15e-08
-1.73589e-06
-1.18476e-14
-8.16773e-07
-2.12008e-14
-1.07031e-19
2.40348e-14
-4.29408e-14
-1.52831e-18
1.3204e-08
-8.18819e-07
9.80332e-09
-1.73148e-06
5.12394e-09
-1.74258e-06
4.38282e-10
-1.74279e-06
-4.24818e-09
-1.74279e-06
-8.93002e-09
-1.74258e-06
-1.24811e-08
-1.73236e-06
-2.69485e-14
-8.29703e-07
-4.81496e-14
-1.52331e-19
5.47787e-14
-9.77183e-14
-1.9028e-18
1.41276e-08
-8.3333e-07
1.03857e-08
-1.72776e-06
5.40743e-09
-1.7376e-06
4.22419e-10
-1.7378e-06
-4.56356e-09
-1.7378e-06
-9.54488e-09
-1.7376e-06
-1.34262e-08
-1.7285e-06
-6.14096e-14
-8.43473e-07
-1.09559e-13
-2.6338e-19
1.25089e-13
-2.22806e-13
-2.4902e-18
1.50165e-08
-8.48638e-07
1.09297e-08
-1.72369e-06
5.67048e-09
-1.73234e-06
4.04204e-10
-1.73254e-06
-4.86309e-09
-1.73253e-06
-1.01257e-08
-1.73234e-06
-1.43402e-08
-1.72429e-06
-1.40207e-13
-8.58048e-07
-2.49767e-13
-4.85754e-19
2.86214e-13
-5.09017e-13
-3.35465e-18
1.58737e-08
-8.64716e-07
1.14385e-08
-1.71926e-06
5.91435e-09
-1.72682e-06
3.83111e-10
-1.72701e-06
-5.14907e-09
-1.727e-06
-1.06766e-08
-1.72681e-06
-1.52268e-08
-1.71974e-06
-3.20753e-13
-8.73399e-07
-5.70519e-13
-8.59157e-19
6.56223e-13
-1.16524e-12
-4.54101e-18
1.67016e-08
-8.81536e-07
1.19146e-08
-1.71447e-06
6.14016e-09
-1.72104e-06
3.58831e-10
-1.72123e-06
-5.42339e-09
-1.72122e-06
-1.1201e-08
-1.72103e-06
-1.60894e-08
-1.71485e-06
-7.35298e-13
-8.895e-07
-1.30582e-12
-1.40935e-18
1.50772e-12
-2.67296e-12
-6.05356e-18
1.75021e-08
-8.99062e-07
1.23609e-08
-1.70933e-06
6.34928e-09
-1.71503e-06
3.31309e-10
-1.71521e-06
-5.6874e-09
-1.7152e-06
-1.17016e-08
-1.71502e-06
-1.69303e-08
-1.70961e-06
-1.68915e-12
-9.06333e-07
-2.99497e-12
-2.24674e-18
3.4714e-12
-6.14435e-12
-7.72527e-18
1.82763e-08
-9.17262e-07
1.27796e-08
-1.70382e-06
6.54293e-09
-1.7088e-06
3.00628e-10
-1.70897e-06
-5.94223e-09
-1.70896e-06
-1.21809e-08
-1.70878e-06
-1.77515e-08
-1.70403e-06
-3.88855e-12
-9.23889e-07
-6.88352e-12
-3.35584e-18
8.00886e-12
-1.41532e-11
-9.20558e-18
1.90251e-08
-9.36102e-07
1.3173e-08
-1.69796e-06
6.72247e-09
-1.70235e-06
2.67032e-10
-1.70251e-06
-6.18878e-09
-1.7025e-06
-1.26407e-08
-1.70233e-06
-1.85542e-08
-1.69811e-06
-8.9698e-12
-9.42159e-07
-1.58533e-11
-4.74943e-18
1.85103e-11
-3.26635e-11
-9.91036e-18
1.97498e-08
-9.55549e-07
1.35438e-08
-1.69175e-06
6.88957e-09
-1.69569e-06
2.31109e-10
-1.69585e-06
-6.42756e-09
-1.69584e-06
-1.30828e-08
-1.69567e-06
-1.93392e-08
-1.69184e-06
-2.07267e-11
-9.61122e-07
-3.658e-11
-6.15682e-18
4.28305e-11
-7.5494e-11
-9.00075e-18
2.04528e-08
-9.75568e-07
1.38956e-08
-1.68518e-06
7.04649e-09
-1.68884e-06
1.93821e-10
-1.689e-06
-6.65889e-09
-1.68899e-06
-1.35083e-08
-1.68882e-06
-2.01067e-08
-1.68524e-06
-4.79416e-11
-9.80736e-07
-8.45215e-11
-7.15198e-18
9.90671e-11
-1.74561e-10
-5.78223e-18
2.1137e-08
-9.96105e-07
1.42322e-08
-1.67828e-06
7.19589e-09
-1.68181e-06
1.56368e-10
-1.68196e-06
-6.88302e-09
-1.68195e-06
-1.39191e-08
-1.68179e-06
-2.08571e-08
-1.6783e-06
-1.10812e-10
-1.00093e-06
-1.95333e-10
-7.57064e-18
2.28264e-10
-4.02826e-10
-5.75964e-18
2.16971e-08
-1.01697e-06
1.45584e-08
-1.67114e-06
7.34086e-09
-1.67459e-06
1.20062e-10
-1.67474e-06
-7.10042e-09
-1.67473e-06
-1.43172e-08
-1.67457e-06
-2.14668e-08
-1.67115e-06
-2.54959e-10
-1.02149e-06
-4.50293e-10
-8.89626e-18
5.19987e-10
-9.22818e-10
-3.75233e-18
2.21944e-08
-1.03793e-06
1.48791e-08
-1.66382e-06
7.48442e-09
-1.66719e-06
8.63644e-11
-1.66734e-06
-7.31126e-09
-1.66733e-06
-1.47047e-08
-1.66718e-06
-2.20271e-08
-1.66383e-06
-5.7907e-10
-1.04219e-06
-1.02937e-09
-6.39945e-18
1.15305e-09
-2.07592e-09
-1.15456e-18
2.26807e-08
-1.05867e-06
1.51959e-08
-1.65634e-06
7.62752e-09
-1.65963e-06
5.7045e-11
-1.65977e-06
-7.51293e-09
-1.65976e-06
-1.50799e-08
-1.65961e-06
-2.25695e-08
-1.65634e-06
-1.27644e-09
-1.06265e-06
-2.30588e-09
-3.34245e-18
2.41911e-09
-4.49551e-09
-1.02757e-18
2.31504e-08
-1.07855e-06
1.54947e-08
-1.64868e-06
7.76229e-09
-1.65189e-06
3.39118e-11
-1.65204e-06
-7.6936e-09
-1.65204e-06
-1.54239e-08
-1.65188e-06
-2.30832e-08
-1.64868e-06
-2.64908e-09
-1.08219e-06
-4.95555e-09
-1.84334e-18
4.84524e-09
-9.34429e-09
-4.33819e-18
2.35667e-08
-1.09644e-06
1.57458e-08
-1.64086e-06
7.87408e-09
-1.64402e-06
1.44193e-11
-1.64418e-06
-7.84331e-09
-1.64418e-06
-1.57098e-08
-1.64401e-06
-2.35295e-08
-1.64086e-06
-5.36732e-09
-1.09949e-06
-1.03271e-08
-8.38249e-19
7.57317e-09
-1.64567e-08
-2.29544e-17
2.39871e-08
-1.11208e-06
1.60104e-08
-1.63288e-06
7.99466e-09
-1.63601e-06
-8.85044e-12
-1.63618e-06
-8.01079e-09
-1.63618e-06
-1.60215e-08
-1.636e-06
-2.39891e-08
-1.63289e-06
-7.64681e-09
-1.11504e-06
-1.74859e-08
-3.54993e-17
8.28537e-09
-2.44396e-08
-3.16384e-17
2.44757e-08
-1.12743e-06
1.63544e-08
-1.62476e-06
8.16592e-09
-1.62782e-06
-1.65329e-11
-1.628e-06
-8.19784e-09
-1.628e-06
-1.63822e-08
-1.62782e-06
-2.44904e-08
-1.62478e-06
-8.33282e-09
-1.13033e-06
-2.55081e-08
-5.42142e-17
8.8171e-09
-3.28974e-08
-4.68181e-17
2.49513e-08
-1.1427e-06
1.66944e-08
-1.61651e-06
8.34779e-09
-1.61947e-06
1.54777e-12
-1.61965e-06
-8.34298e-09
-1.61965e-06
-1.66842e-08
-1.61948e-06
-2.4928e-08
-1.61654e-06
-8.86293e-09
-1.14551e-06
-3.39975e-08
-7.14446e-17
9.42533e-09
-4.19346e-08
-5.09358e-17
2.53904e-08
-1.15779e-06
1.69967e-08
-1.60811e-06
8.51143e-09
-1.61099e-06
2.51796e-11
-1.61116e-06
-8.45975e-09
-1.61117e-06
-1.69413e-08
-1.61099e-06
-2.53271e-08
-1.60815e-06
-9.46179e-09
-1.16047e-06
-4.30581e-08
-6.4447e-17
1.00739e-08
-5.15827e-08
-3.29817e-17
2.58593e-08
-1.17268e-06
1.73129e-08
-1.59957e-06
8.67983e-09
-1.60235e-06
4.74291e-11
-1.60253e-06
-8.58435e-09
-1.60253e-06
-1.72158e-08
-1.60236e-06
-2.57582e-08
-1.59961e-06
-1.01001e-08
-1.17521e-06
-5.27188e-08
-5.41049e-17
1.07808e-08
-6.19012e-08
-2.00599e-17
2.63689e-08
-1.18736e-06
1.76571e-08
-1.59085e-06
8.86113e-09
-1.59356e-06
6.76492e-11
-1.59374e-06
-8.72567e-09
-1.59374e-06
-1.75213e-08
-1.59357e-06
-2.62318e-08
-1.5909e-06
-1.0795e-08
-1.18973e-06
-6.30377e-08
-3.256e-17
1.15505e-08
-7.2951e-08
-1.86956e-17
2.69178e-08
-1.20182e-06
1.80278e-08
-1.58196e-06
9.05468e-09
-1.58458e-06
8.54339e-11
-1.58477e-06
-8.88392e-09
-1.58477e-06
-1.78575e-08
-1.58459e-06
-2.67479e-08
-1.58201e-06
-1.15517e-08
-1.204e-06
-7.40751e-08
-2.04302e-17
1.23921e-08
-8.4803e-08
-1.70978e-17
2.75086e-08
-1.21603e-06
1.84258e-08
-1.57288e-06
9.2606e-09
-1.57542e-06
1.00652e-10
-1.57561e-06
-9.05956e-09
-1.57561e-06
-1.82256e-08
-1.57543e-06
-2.73102e-08
-1.57293e-06
-1.238e-08
-1.21801e-06
-8.5901e-08
-1.61326e-17
1.33167e-08
-9.75389e-08
-1.30112e-17
2.81477e-08
-1.22997e-06
1.88548e-08
-1.56359e-06
9.4807e-09
-1.56604e-06
1.13298e-10
-1.56624e-06
-9.25448e-09
-1.56624e-06
-1.86297e-08
-1.56605e-06
-2.79255e-08
-1.56363e-06
-1.32912e-08
-1.23172e-06
-9.8597e-08
-1.2752e-17
1.43379e-08
-1.11254e-07
-8.23682e-18
2.88441e-08
-1.24359e-06
1.93206e-08
-1.55407e-06
9.71775e-09
-1.55644e-06
1.23323e-10
-1.55665e-06
-9.47156e-09
-1.55665e-06
-1.90758e-08
-1.55645e-06
-2.86031e-08
-1.5541e-06
-1.42992e-08
-1.24512e-06
-1.12259e-07
-8.76107e-18
1.54725e-08
-1.26062e-07
-4.67843e-18
2.96082e-08
-1.25685e-06
1.98302e-08
-1.54429e-06
9.97509e-09
-1.54659e-06
1.3054e-10
-1.5468e-06
-9.71453e-09
-1.5468e-06
-1.95712e-08
-1.54659e-06
-2.93539e-08
-1.54432e-06
-1.54213e-08
-1.25817e-06
-1.27e-07
-5.48622e-18
1.67413e-08
-1.42096e-07
-2.6799e-18
3.04526e-08
-1.26972e-06
2.03916e-08
-1.53423e-06
1.02566e-08
-1.53645e-06
1.3468e-10
-1.53668e-06
-9.98783e-09
-1.53668e-06
-2.01246e-08
-1.53645e-06
-3.01911e-08
-1.53425e-06
-1.66788e-08
-1.27082e-06
-1.42956e-07
-3.6722e-18
1.81706e-08
-1.59517e-07
-1.8884e-18
3.13928e-08
-1.28212e-06
2.10149e-08
-1.52385e-06
1.05671e-08
-1.526e-06
1.35546e-10
-1.52625e-06
-1.02966e-08
-1.52625e-06
-2.07464e-08
-1.526e-06
-3.11303e-08
-1.52387e-06
-1.80983e-08
-1.28302e-06
-1.60289e-07
-2.83123e-18
1.97935e-08
-1.78518e-07
-1.55396e-18
3.24475e-08
-1.29399e-06
2.17121e-08
-1.51311e-06
1.09124e-08
-1.5152e-06
1.3302e-10
-1.51547e-06
-1.0647e-08
-1.51547e-06
-2.14487e-08
-1.5152e-06
-3.21903e-08
-1.51313e-06
-1.97132e-08
-1.2947e-06
-1.79194e-07
-2.17768e-18
2.16522e-08
-1.99337e-07
-1.31801e-18
3.364e-08
-1.30524e-06
2.2498e-08
-1.50197e-06
1.12997e-08
-1.50401e-06
1.27124e-10
-1.5043e-06
-1.10461e-08
-1.5043e-06
-2.22463e-08
-1.504e-06
-3.33944e-08
-1.50198e-06
-2.15665e-08
-1.30578e-06
-1.99912e-07
-1.54106e-18
2.38012e-08
-2.22264e-07
-1.46608e-18
3.49985e-08
-1.31575e-06
2.33905e-08
-1.49036e-06
1.17377e-08
-1.49235e-06
1.17987e-10
-1.49268e-06
-1.15022e-08
-1.49268e-06
-2.31568e-08
-1.49235e-06
-3.47706e-08
-1.49037e-06
-2.3713e-08
-1.31614e-06
-2.22738e-07
-1.26939e-18
2.63121e-08
-2.47665e-07
-1.88875e-18
3.65587e-08
-1.32536e-06
2.44115e-08
-1.47822e-06
1.22369e-08
-1.48018e-06
1.05921e-10
-1.48055e-06
-1.20255e-08
-1.48054e-06
-2.42017e-08
-1.48017e-06
-3.63539e-08
-1.47821e-06
-2.62246e-08
-1.32562e-06
-2.48038e-07
-1.38308e-18
2.928e-08
-2.76e-07
-2.21194e-18
3.83659e-08
-1.33387e-06
2.55885e-08
-1.46544e-06
1.28103e-08
-1.4674e-06
9.13825e-11
-1.46783e-06
-1.26279e-08
-1.46782e-06
-2.54072e-08
-1.46739e-06
-3.81888e-08
-1.46543e-06
-2.91966e-08
-1.33403e-06
-2.76278e-07
-1.72256e-18
3.28357e-08
-3.07861e-07
-2.27057e-18
4.04813e-08
-1.341e-06
2.69576e-08
-1.45191e-06
1.34752e-08
-1.45392e-06
7.50484e-11
-1.45443e-06
-1.33253e-08
-1.45442e-06
-2.68084e-08
-1.45391e-06
-4.03352e-08
-1.4519e-06
-3.276e-08
-1.34109e-06
-3.08054e-07
-1.94383e-18
3.71665e-08
-3.44029e-07
-1.79094e-18
4.2994e-08
-1.34639e-06
2.85728e-08
-1.43749e-06
1.42576e-08
-1.4396e-06
5.77627e-11
-1.44023e-06
-1.41421e-08
-1.44022e-06
-2.84576e-08
-1.43959e-06
-4.28806e-08
-1.43748e-06
-3.71016e-08
-1.34643e-06
-3.4415e-07
-1.70299e-18
4.25546e-08
-3.85569e-07
-1.1073e-18
4.60502e-08
-1.34952e-06
3.05277e-08
-1.42197e-06
1.52041e-08
-1.42428e-06
4.05625e-11
-1.42506e-06
-1.51229e-08
-1.42506e-06
-3.04462e-08
-1.42427e-06
-4.59692e-08
-1.42196e-06
-4.2503e-08
-1.34953e-06
-3.85634e-07
-1.07125e-18
4.94478e-08
-4.33998e-07
-7.2913e-19
4.99075e-08
-1.34969e-06
3.29981e-08
-1.40506e-06
1.64054e-08
-1.40769e-06
2.46028e-11
-1.40868e-06
-1.6356e-08
-1.40868e-06
-3.29479e-08
-1.40768e-06
-4.98565e-08
-1.40505e-06
-4.94111e-08
-1.34968e-06
-4.34023e-07
-6.72734e-19
5.85702e-08
-4.91558e-07
-4.66437e-19
5.50157e-08
-1.34593e-06
3.63031e-08
-1.38635e-06
1.80282e-08
-1.38941e-06
1.10688e-11
-1.39067e-06
-1.80057e-08
-1.39066e-06
-3.62793e-08
-1.38941e-06
-5.499e-08
-1.38634e-06
-5.8548e-08
-1.34592e-06
-4.91562e-07
-4.77983e-19
7.10043e-08
-5.61589e-07
-3.04607e-19
6.20401e-08
-1.33683e-06
4.09164e-08
-1.36522e-06
2.03163e-08
-1.36881e-06
1.03564e-12
-1.37035e-06
-2.03137e-08
-1.37035e-06
-4.09121e-08
-1.36881e-06
-6.20329e-08
-1.36522e-06
-7.09945e-08
-1.33682e-06
-5.61585e-07
-3.02929e-19
8.79923e-08
-6.4867e-07
-1.22366e-19
7.15732e-08
-1.32036e-06
4.72076e-08
-1.34086e-06
2.3447e-08
-1.34505e-06
-4.75819e-12
-1.3469e-06
-2.34558e-08
-1.3469e-06
-4.72144e-08
-1.34505e-06
-7.15764e-08
-1.34086e-06
-8.79902e-08
-1.32036e-06
-6.48666e-07
-1.30347e-19
1.08323e-07
-7.56226e-07
-4.4671e-20
8.26155e-08
-1.29462e-06
5.44106e-08
-1.31265e-06
2.70789e-08
-1.31772e-06
-6.16865e-12
-1.31981e-06
-2.70905e-08
-1.31981e-06
-5.44201e-08
-1.31772e-06
-8.26211e-08
-1.31265e-06
-1.08323e-07
-1.29463e-06
-7.56224e-07
-5.61555e-20
1.18759e-07
-8.74409e-07
-4.25864e-21