/*--------------------------------*- C++ -*----------------------------------*\
  =========                 |
  \\      /  F ield         | OpenFOAM: The Open Source CFD Toolbox
   \\    /   O peration     | Website:  https://openfoam.org
    \\  /    A nd           | Version:  8
     \\/     M anipulation  |
\*---------------------------------------------------------------------------*/
FoamFile
{
    version     2.0;
    format      ascii;
    class       volScalarField;
    location    "0.65";
    object      epsilon;
}
// * * * * * * * * * * * * * * * * * * * * * * * * * * * * * * * * * * * * * //

dimensions      [0 2 -3 0 0 0 0];

internalField   nonuniform List<scalar> 
9150
(
0.0325755
0.0130861
0.00340935
0.00125762
0.000883689
0.000883689
0.00125762
0.00340934
0.0130861
0.0325755
0.0314659
0.00927442
0.00195973
0.000858633
0.000689254
0.000689254
0.000858633
0.00195972
0.00927442
0.0314659
0.0296215
0.00742029
0.00130447
0.000728396
0.00062688
0.000626879
0.000728396
0.00130447
0.00742029
0.0296215
0.0276304
0.0064619
0.00100203
0.000690268
0.000609209
0.000609209
0.000690268
0.00100203
0.0064619
0.0276304
0.0255618
0.0060619
0.000848155
0.000683061
0.000607862
0.000607862
0.000683061
0.000848155
0.0060619
0.0255618
0.13159
0.0587136
0.0297203
0.0218908
0.0193956
0.0193956
0.0218908
0.0297203
0.0587136
0.13159
0.0794358
0.0246856
0.0164699
0.0136101
0.0121861
0.0121861
0.0136101
0.0164699
0.0246856
0.0794358
0.0576081
0.0188768
0.00911298
0.00689726
0.00602294
0.00602294
0.00689726
0.00911297
0.0188768
0.0576081
0.0442505
0.0160212
0.00551287
0.00334518
0.0027258
0.0027258
0.00334517
0.00551286
0.0160212
0.0442505
0.0370799
0.0144118
0.0039374
0.00180902
0.00136068
0.00136068
0.00180902
0.0039374
0.0144118
0.0370799
2.42348
0.319912
0.105464
0.0583465
0.044033
0.0440408
0.0583731
0.10552
0.320048
2.42415
0.298968
0.129906
0.0566305
0.0311108
0.023921
0.0239212
0.0311113
0.0566314
0.129908
0.298971
0.248992
0.112758
0.0551133
0.030429
0.0238055
0.0238055
0.030429
0.0551132
0.112758
0.248992
0.208834
0.100654
0.0545315
0.0301352
0.0240508
0.0240508
0.0301352
0.0545315
0.100654
0.208834
0.166005
0.0954027
0.0503684
0.0285939
0.0235856
0.0235856
0.0285938
0.0503684
0.0954027
0.166005
1180.97
1200.51
1213.33
1220.57
1223.33
1223.37
1220.71
1213.6
1200.95
1181.61
468.076
474.568
479.167
482.076
483.476
483.495
482.134
479.268
474.718
468.281
339.041
342.94
345.789
347.65
348.573
348.585
347.685
345.849
343.026
339.155
293.795
296.301
298.153
299.376
299.987
299.993
299.395
298.185
296.347
293.855
276.299
277.784
278.894
279.637
280.01
280.012
279.643
278.904
277.798
276.318
272.106
272.823
273.377
273.758
273.952
273.95
273.753
273.369
272.811
272.09
275.229
275.515
275.741
275.9
275.981
275.977
275.886
275.718
275.483
275.188
282.878
283.042
283.15
283.218
283.249
283.242
283.198
283.117
282.996
282.819
293.957
294.114
294.203
294.248
294.264
294.256
294.224
294.163
294.057
293.884
307.946
308.095
308.18
308.218
308.229
308.22
308.191
308.134
308.03
307.861
324.524
324.618
324.67
324.685
324.684
324.673
324.655
324.62
324.548
324.433
343.448
343.429
343.402
343.365
343.336
343.325
343.332
343.347
343.353
343.349
364.536
364.339
364.178
364.053
363.978
363.966
364.015
364.116
364.253
364.426
387.632
387.186
386.834
386.579
386.439
386.424
386.535
386.761
387.085
387.504
412.627
411.834
411.214
410.779
410.546
410.529
410.726
411.125
411.71
412.468
439.398
438.12
437.136
436.459
436.103
436.082
436.395
437.03
437.969
439.197
467.708
465.803
464.355
463.37
462.861
462.837
463.299
464.234
465.632
467.483
497.189
494.552
492.557
491.21
490.519
490.493
491.132
492.425
494.364
496.939
527.501
524.022
521.399
519.637
518.739
518.712
519.556
521.261
523.823
527.236
558.239
553.817
550.495
548.271
547.144
547.118
548.192
550.359
553.619
557.972
588.95
583.503
579.426
576.705
575.333
575.31
576.635
579.305
583.324
588.703
619.143
612.622
607.753
604.513
602.887
602.87
604.461
607.661
612.482
618.946
648.317
640.703
635.033
631.27
629.389
629.381
631.245
634.987
640.628
648.201
675.982
667.297
660.841
656.566
654.437
654.442
656.579
660.859
667.311
675.982
701.695
691.991
684.79
680.031
677.67
677.69
680.091
684.886
692.117
701.841
725.069
714.432
706.549
701.347
698.775
698.813
701.458
706.734
714.686
725.387
745.794
734.336
725.853
720.26
717.503
717.558
720.423
726.126
734.722
746.293
763.657
751.509
742.516
736.591
733.676
733.744
736.798
742.867
752.01
764.318
778.567
765.856
756.441
750.237
747.186
747.263
750.47
756.838
766.428
779.335
790.544
777.366
767.598
761.156
757.986
758.063
761.39
767.997
777.946
791.328
799.664
786.077
775.998
769.346
766.067
766.136
769.555
776.354
786.591
800.355
805.976
792.012
781.652
774.813
771.435
771.492
774.983
781.937
792.413
806.497
809.439
795.146
784.55
777.556
774.099
774.145
777.694
784.773
795.445
809.8
809.946
795.427
784.677
777.586
774.081
774.125
777.716
784.885
795.699
810.256
807.402
792.84
782.06
774.952
771.443
771.494
775.105
782.311
793.185
807.834
801.973
787.53
776.84
769.795
766.322
766.384
769.981
777.152
787.971
802.554
793.912
779.737
769.246
762.336
758.933
759.004
762.548
769.603
780.241
794.571
783.548
769.774
759.58
752.866
749.564
749.642
753.099
759.97
770.326
784.267
771.283
758.02
748.202
741.735
738.558
738.64
741.982
748.616
758.607
772.048
757.574
744.901
735.512
729.327
726.289
726.374
729.581
735.94
745.509
758.372
742.913
730.862
721.925
716.034
713.141
713.224
716.286
722.352
731.471
743.716
727.776
716.333
707.836
702.228
699.473
699.552
702.467
708.24
716.913
728.545
712.584
701.688
693.585
688.231
685.596
685.666
688.442
693.943
702.204
713.273
697.656
687.212
679.434
674.287
671.746
671.802
674.455
679.721
687.628
698.216
683.184
673.077
665.541
660.546
658.072
658.109
660.659
665.735
673.361
683.572
669.228
659.342
651.963
647.064
644.627
644.642
647.111
652.045
659.468
669.408
655.735
645.963
638.663
633.809
631.382
631.373
633.782
638.621
645.911
655.68
642.56
632.812
625.526
620.674
618.237
618.202
620.572
625.356
632.576
642.26
629.492
619.701
612.381
607.501
605.039
604.981
607.327
612.09
619.29
628.958
616.278
606.404
599.023
594.098
591.604
591.525
593.862
598.625
605.839
615.539
602.648
592.681
585.233
580.262
577.738
577.643
579.977
584.752
591.995
601.746
588.337
578.3
570.805
565.802
563.258
563.153
565.485
570.268
577.535
587.328
573.121
563.068
555.566
550.561
548.013
547.903
550.229
555.006
562.268
572.065
556.841
546.851
539.401
534.432
531.903
531.794
534.103
538.845
546.059
555.796
539.431
529.595
522.263
517.374
514.889
514.786
517.063
521.737
528.847
538.445
520.919
511.328
504.178
499.413
496.995
496.901
499.131
503.702
510.65
520.028
501.419
492.149
485.238
480.636
478.303
478.221
480.39
484.824
491.559
500.645
481.103
472.213
465.586
461.173
458.942
458.874
460.968
465.24
471.722
480.461
460.176
451.706
445.391
441.188
439.068
439.013
441.025
445.116
451.318
459.671
438.857
430.826
424.838
420.855
418.849
418.807
420.73
424.629
430.533
438.48
417.357
409.769
404.11
400.347
398.456
398.424
400.253
403.954
409.553
417.084
395.869
388.711
383.373
379.825
378.044
378.02
379.754
383.255
388.548
395.663
374.546
367.801
362.772
359.431
357.756
357.737
359.375
362.68
367.672
374.38
353.505
347.158
342.426
339.283
337.709
337.695
339.241
342.355
347.057
353.372
332.843
326.879
322.434
319.483
318.007
317.997
319.453
322.384
326.807
332.747
312.641
307.048
302.88
300.114
298.733
298.728
300.099
302.854
307.009
312.589
292.97
287.736
283.837
281.251
279.962
279.962
281.251
283.835
287.732
292.964
273.892
269.006
265.369
262.957
261.758
261.762
262.97
265.39
269.037
273.931
255.463
250.915
247.53
245.289
244.176
244.184
245.314
247.572
250.974
255.54
237.728
233.51
230.373
228.298
227.269
227.28
228.332
230.431
233.592
237.834
220.734
216.84
213.947
212.033
211.087
211.101
212.076
214.018
216.94
220.864
204.502
200.948
198.299
196.546
195.679
195.695
196.595
198.38
201.06
204.641
189.194
185.933
183.499
181.887
181.091
181.11
181.944
183.595
186.067
189.368
174.87
171.835
169.574
168.078
167.342
167.363
168.142
169.681
171.987
175.068
161.454
158.612
156.498
155.101
154.415
154.438
155.169
156.612
158.774
161.665
148.877
146.212
144.23
142.922
142.281
142.304
142.993
144.348
146.379
149.095
137.09
134.589
132.729
131.502
130.902
130.925
131.573
132.848
134.757
137.309
126.054
123.705
121.957
120.804
120.24
120.263
120.874
122.074
123.87
126.27
115.737
113.524
111.878
110.791
110.26
110.282
110.858
111.99
113.683
115.944
106.103
104.011
102.454
101.427
100.924
100.945
101.49
102.56
104.161
106.297
97.1126
95.1266
93.6478
92.6711
92.1932
92.2128
92.7298
93.746
95.2649
97.2919
88.7234
86.8283
85.4167
84.4841
84.0274
84.0455
84.5384
85.5075
86.9558
88.888
80.8898
79.0727
77.7186
76.8236
76.3849
76.4016
76.8738
77.8026
79.1906
81.042
73.5666
71.8158
70.5105
69.6472
69.2237
69.2393
69.694
70.5886
71.9256
73.7084
66.71
65.0151
63.7506
62.9138
62.5029
62.5173
62.9573
63.8235
65.1176
66.8427
60.2791
58.6302
57.3991
56.5837
56.1827
56.1961
56.6239
57.4666
58.7254
60.4026
54.2353
52.623
51.418
50.6191
50.2256
50.2379
50.656
51.4798
52.7104
54.3489
48.5428
46.9579
45.7719
44.9847
44.5964
44.6074
45.018
45.8277
47.0366
48.6453
43.1675
41.6014
40.4279
39.648
39.2625
39.2723
39.6774
40.4772
41.6711
43.2584
38.078
36.5229
35.3561
34.5796
34.1949
34.2034
34.6051
35.3989
36.5834
38.1569
33.2453
31.6951
30.5307
29.7547
29.3694
29.3766
29.7764
30.5671
31.7466
33.3123
28.6432
27.0955
25.9316
25.1552
24.7689
24.7749
25.1733
25.962
27.1384
28.6991
24.2502
22.7077
21.5474
20.7729
20.3869
20.3918
20.7876
21.5722
22.7428
24.2958
20.0505
18.5257
17.3796
16.6147
16.2333
16.2372
16.6265
17.3993
18.5536
20.0868
16.0375
14.5582
13.4493
12.71
12.3412
12.3442
12.719
13.4645
14.5798
16.0655
12.2208
10.8387
9.80654
9.11924
8.77615
8.77835
9.12588
9.81772
10.8546
12.2417
8.64562
7.44229
6.54333
5.94322
5.64308
5.64456
5.94772
6.55095
7.45322
8.66005
5.43405
4.51093
3.80255
3.32486
3.08592
3.08679
3.32751
3.80709
4.51752
5.44288
2.84299
2.26411
1.76259
1.42989
1.26873
1.26911
1.43108
1.76467
2.26718
2.84718
1.38809
0.931865
0.556788
0.377294
0.304937
0.305033
0.377598
0.557342
0.932718
1.38923
1152.02
1111.51
1059.83
997.395
926.088
849.407
776.966
713.041
654.533
600.83
551.972
507.982
468.671
433.624
402.285
374.048
348.337
324.65
302.581
281.819
262.132
243.355
225.373
208.104
191.494
175.505
160.108
145.282
131.009
117.272
104.052
91.3298
79.0719
67.1288
55.4629
44.3791
33.4292
22.763
13.6437
7.01727
459.224
447.108
432.417
415.495
396.94
377.624
359.021
341.17
323.096
304.546
285.72
267.019
248.853
231.536
215.253
200.066
185.959
172.86
160.678
149.314
138.673
128.671
119.234
110.303
101.825
93.7589
86.0695
78.7276
71.7085
64.9916
58.5601
52.4006
46.5041
40.8692
35.5311
30.5798
26.177
22.7384
21.6128
34.382
333.871
326.896
318.581
309.108
298.719
287.703
276.431
264.986
253.183
240.964
228.397
215.641
202.906
190.401
178.298
166.714
155.712
145.314
135.514
126.288
117.602
109.417
101.695
94.3986
87.496
80.9574
74.7579
68.8766
63.2968
58.0071
53.0018
48.2837
43.8678
39.7899
36.1234
33.0126
30.753
30.0927
33.8357
67.94
290.481
286.007
280.574
274.105
266.504
257.842
248.489
238.705
228.575
218.177
207.604
196.951
186.311
175.788
165.488
155.502
145.896
136.713
127.971
119.673
111.811
104.371
97.3336
90.6792
84.3879
78.4413
72.8236
67.522
62.5283
57.8394
53.4598
49.4046
45.7057
42.4218
39.6601
37.6251
36.7519
38.1874
46.4243
101.262
274.323
271.637
268.247
263.871
257.947
249.843
240.481
230.732
220.771
210.748
200.715
190.718
180.814
171.081
161.563
152.306
143.354
134.748
126.511
118.656
111.187
104.098
97.3811
91.0265
85.0226
79.3583
74.0247
69.0156
64.3289
59.9687
55.9474
52.2904
49.0428
46.2832
44.1517
42.9154
43.1512
46.4039
58.7792
133.947
271.144
269.936
268.539
266.478
260.648
251.563
241.989
231.996
221.637
211.305
201.181
191.209
181.385
171.79
162.448
153.399
144.662
136.254
128.195
120.499
113.171
106.213
99.6192
93.3845
87.5017
81.9645
76.7679
71.9102
67.3941
63.229
59.4338
56.0422
53.1113
50.7386
49.0962
48.5139
49.7086
54.6089
70.8417
164.978
274.833
274.504
274.347
272.343
266.046
257.235
247.365
237.041
226.556
216.108
205.776
195.67
185.804
176.069
166.537
157.345
148.502
140.022
131.911
124.173
116.814
109.833
103.228
96.9935
91.1235
85.6136
80.4613
75.6673
71.2376
67.1855
63.5353
60.3282
57.6324
55.5637
54.3262
54.3122
56.3767
62.8227
82.7469
195.109
282.584
282.355
282.075
279.935
274.075
265.462
255.229
244.349
233.385
222.612
212.15
202.059
192.249
182.553
172.926
163.41
154.238
145.473
137.125
129.19
121.666
114.547
107.829
101.504
95.5669
90.0115
84.8364
80.0436
75.6409
71.6447
68.0839
65.0063
62.4913
60.6724
59.7857
60.2852
63.1617
71.0832
94.5651
224.464
293.632
293.31
292.689
290.428
284.729
276.003
265.403
253.95
242.331
230.951
220.015
209.591
199.622
189.977
180.485
170.975
161.478
152.262
143.526
135.268
127.472
120.125
113.215
106.73
100.662
95.005
89.7554
84.9158
80.4954
76.5127
73.0007
70.0137
67.6415
66.0353
65.4631
66.4396
70.0889
79.4344
106.365
253.211
307.618
307.284
306.495
303.96
297.983
288.864
277.719
265.583
253.205
241.071
229.459
218.478
208.098
198.193
188.583
179.115
169.633
160.095
150.874
142.204
134.061
126.418
119.256
112.557
106.31
100.506
95.1412
90.2173
85.7442
81.7425
78.2488
75.3237
73.0673
71.6484
71.3662
72.7954
77.191
87.9236
118.218
281.555
324.278
324.061
323.212
320.141
313.54
303.778
291.923
278.991
265.761
252.773
240.357
228.662
217.691
207.337
197.427
187.769
178.189
168.533
158.947
149.837
141.303
133.321
125.863
118.91
112.446
106.461
100.948
95.9096
91.3562
87.3102
83.8117
80.9274
78.7676
77.5187
77.5106
79.3778
84.5038
96.6005
130.204
309.736
343.349
343.317
342.489
338.825
331.31
320.633
307.873
294.012
279.832
265.904
252.594
240.086
228.412
217.484
207.138
197.174
187.378
177.559
167.627
158.064
149.114
140.761
132.977
125.739
119.028
112.833
107.146
101.969
97.3132
93.2028
89.6817
86.8228
84.7467
83.6571
83.9153
86.2148
92.0671
105.522
142.412
338
364.657
364.895
364.064
359.602
351.022
339.277
325.467
310.555
295.327
280.376
266.099
252.713
240.269
228.693
217.816
207.416
197.234
187.048
176.803
166.813
157.423
148.676
140.543
132.996
126.017
119.59
113.709
108.375
103.6
99.4101
95.8535
93.0092
91.0089
90.0744
90.5991
93.3374
99.9324
114.78
155.037
366.911
388.047
388.631
387.76
382.385
372.649
359.708
344.71
328.614
312.223
296.153
280.827
266.496
253.226
240.945
229.47
218.548
207.89
197.237
186.479
175.998
166.169
157.02
148.521
140.648
133.38
126.704
120.611
115.103
110.194
105.913
102.311
99.4738
97.5454
96.7665
97.5645
100.759
108.133
124.454
168.291
397.153
413.44
414.473
413.479
407.144
396.199
381.958
365.627
348.195
330.502
313.211
296.769
281.435
267.288
254.252
242.126
230.617
219.388
208.118
196.643
185.622
175.337
165.767
156.885
148.667
141.093
134.149
127.827
122.132
117.076
112.691
109.034
106.198
104.337
103.714
104.791
108.453
116.629
134.464
181.966
428.256
440.78
442.398
441.148
433.864
421.671
406.016
388.19
369.263
350.142
331.52
313.88
297.497
282.451
268.646
255.835
243.656
231.678
219.494
207.263
195.696
184.918
174.899
165.61
157.025
149.126
141.897
135.331
129.433
124.217
119.718
115.997
113.156
111.36
110.892
112.251
116.391
125.387
144.775
196.037
460.35
469.91
472.168
470.339
462.163
448.733
431.598
412.16
391.619
370.958
350.929
332.053
314.619
298.695
284.144
270.636
257.683
244.716
231.31
218.313
206.178
194.879
184.383
174.662
165.69
157.445
149.914
143.089
136.974
131.587
126.964
123.172
120.318
118.584
118.27
119.915
124.542
134.379
155.36
210.496
493.524
500.325
503.391
501.135
491.863
477.007
458.259
437.115
414.891
392.652
371.211
351.123
332.685
315.933
300.646
286.356
272.365
257.989
243.498
229.804
217.046
205.184
194.18
184.001
174.618
166.01
158.16
151.061
144.718
139.148
134.393
130.521
127.651
125.974
125.815
127.749
132.872
143.569
166.187
225.315
527.773
531.74
535.741
532.953
522.452
506.037
485.566
462.66
438.732
414.93
392.127
370.908
351.559
334.057
318.058
302.88
287.553
271.522
256.055
241.639
228.227
215.772
204.232
193.572
183.76
174.772
166.589
159.204
152.621
146.86
141.964
138.007
135.115
133.493
133.489
135.715
141.344
152.92
177.216
240.45
563.023
563.737
568.795
565.484
553.69
535.601
513.295
488.554
462.901
437.567
413.477
391.233
371.086
352.905
336.133
319.755
302.56
285.21
268.911
253.739
239.642
226.569
214.473
203.313
193.056
183.673
175.146
167.465
160.635
154.676
149.633
145.587
142.669
141.101
141.25
143.772
149.915
162.387
188.397
255.834
599.109
595.851
602.07
598.261
585.156
565.341
541.135
514.522
487.151
460.342
435.067
411.929
391.111
372.315
354.66
336.694
317.595
299.138
281.964
266.006
251.201
237.49
224.822
213.15
202.437
192.652
183.774
175.791
168.707
162.545
157.352
153.213
150.268
148.752
149.056
151.876
158.539
171.921
199.673
271.39
635.798
627.56
635.01
630.73
616.331
594.796
568.688
540.226
511.197
483.007
456.668
432.757
411.348
391.91
373.161
353.244
332.597
313.141
295.076
278.318
262.794
248.438
235.191
223.003
211.831
201.64
192.407
184.12
176.781
170.415
165.07
160.837
157.864
156.4
156.86
159.98
167.167
181.465
210.976
287.021
672.902
658.318
667.02
662.296
646.635
623.415
595.481
565.262
534.689
505.255
478.003
453.466
431.577
411.513
391.52
369.414
347.445
327.03
308.092
290.543
274.306
259.309
245.488
232.786
221.157
210.564
200.979
192.39
184.799
178.23
172.736
168.409
165.41
163.998
164.614
168.035
175.746
190.963
222.238
302.628
710.147
687.586
697.51
692.373
675.513
650.699
621.06
589.227
557.273
526.775
498.794
473.79
451.477
430.599
408.888
385.113
362.066
340.688
320.884
302.558
285.622
269.997
255.614
242.411
230.337
219.351
209.423
200.54
192.703
185.936
180.295
175.88
172.856
171.498
172.271
175.992
184.225
200.357
233.388
318.104
747.213
714.871
725.934
720.422
702.469
676.214
645.056
611.813
578.685
547.32
518.787
493.465
470.844
449.219
425.794
400.408
376.272
353.946
333.303
314.228
296.622
280.396
265.475
251.792
239.291
227.928
217.672
208.506
200.433
193.477
187.698
183.198
180.153
178.852
179.782
183.801
192.553
209.591
244.361
333.361
783.684
739.738
751.799
745.951
727.045
699.556
667.123
632.714
598.625
566.553
537.566
511.997
489.175
466.993
441.672
414.824
389.762
366.591
345.182
325.416
307.187
290.401
274.977
260.844
247.942
236.226
225.66
216.229
207.934
200.802
194.893
190.317
187.256
186.014
187.101
191.416
200.677
218.605
255.08
348.283
819.595
761.81
774.648
768.476
748.762
720.266
686.819
651.498
616.661
584.03
554.677
528.903
505.917
483.213
456.233
428.296
402.411
378.489
356.394
336.006
317.213
299.919
284.036
269.491
256.222
244.18
233.33
223.655
215.156
207.861
201.835
197.191
194.121
192.942
194.186
198.791
208.55
227.344
265.476
362.771
854.746
780.801
794.103
787.579
767.195
737.926
703.737
667.769
632.417
599.414
569.821
543.883
520.675
497.456
469.544
440.755
414.127
389.537
366.84
345.904
326.614
308.869
292.578
277.666
264.068
251.734
240.628
230.733
222.051
214.611
208.482
203.781
200.71
199.597
200.996
205.885
216.128
235.76
275.492
376.726
888.688
796.557
809.938
803.022
782.123
752.336
717.695
681.36
645.737
612.553
582.84
556.787
533.382
509.822
481.415
451.993
424.766
399.627
376.426
355.029
335.318
317.187
300.545
285.314
271.43
258.841
247.511
237.423
228.58
221.015
214.797
210.051
206.986
205.943
207.498
212.664
223.375
243.815
285.089
390.11
920.556
809.06
822.099
814.772
793.553
763.542
728.753
692.32
656.636
623.412
593.649
567.482
543.862
520.051
491.707
461.923
434.249
408.687
385.091
363.325
343.271
324.824
307.891
292.395
278.269
265.464
253.943
243.691
234.712
227.041
220.751
215.973
212.921
211.952
213.661
219.096
230.256
251.467
294.209
402.821
950.696
818.38
830.65
822.941
801.647
771.733
737.103
700.82
665.239
632.054
602.247
575.923
552.028
527.965
500.298
470.551
442.552
416.686
392.801
370.761
350.446
331.753
314.59
298.88
284.559
271.577
259.9
249.512
240.422
232.666
226.32
221.521
218.493
217.601
219.462
225.155
236.745
258.687
302.814
414.818
979.239
824.604
835.715
827.702
806.605
777.108
742.935
707.035
671.706
638.62
608.769
582.306
558.279
534.301
507.292
477.775
449.646
423.619
399.558
377.335
356.838
337.966
320.631
304.759
290.286
277.166
265.366
254.872
245.694
237.873
231.488
226.681
223.683
222.872
224.881
230.823
242.819
265.451
310.879
426.055
1006.5
827.777
837.432
829.218
808.562
779.765
746.315
711.021
676.102
643.206
613.351
586.781
562.727
539.094
512.954
483.809
455.656
429.563
405.41
383.08
362.468
343.476
326.022
310.034
295.451
282.228
270.336
259.762
250.52
242.652
236.243
231.439
228.478
227.75
229.905
236.085
248.466
271.746
318.395
436.554
1031.9
827.904
835.975
827.653
807.612
779.72
747.201
712.719
678.399
645.846
616.108
589.537
565.582
542.469
517.427
488.852
460.718
434.612
410.425
388.045
367.371
348.31
330.783
314.719
300.062
286.769
274.812
264.184
254.898
247.001
240.581
235.79
232.872
232.229
234.525
240.931
253.672
277.556
325.338
446.264
1055.44
824.998
831.561
823.195
803.863
777.01
745.598
712.114
678.574
646.538
617.071
590.631
566.872
544.358
520.504
492.935
464.916
438.838
414.663
392.281
371.59
352.502
334.939
318.835
304.135
290.8
278.804
268.141
258.83
250.919
244.501
239.731
236.862
236.302
238.734
245.352
258.428
282.87
331.694
455.161
1077.1
819.14
824.444
816.084
797.504
771.782
741.608
709.279
676.687
645.325
616.259
590.023
566.453
544.419
521.614
495.73
468.28
442.289
418.178
395.838
375.171
356.092
338.527
322.411
307.695
294.34
282.325
271.647
262.325
254.412
248.005
243.263
240.445
239.969
242.529
249.344
262.729
287.681
337.457
463.243
1096.81
810.538
814.927
806.629
788.816
764.269
735.418
704.364
672.861
642.316
613.773
587.826
564.492
542.991
521.413
497.38
470.835
445.027
421.035
398.778
378.169
359.127
341.584
325.479
310.767
297.411
285.393
274.712
265.393
257.488
251.099
246.39
243.624
243.228
245.91
252.906
266.572
291.987
342.623
470.506
1114.6
799.556
803.237
795.108
778.097
754.745
727.253
697.537
667.219
637.613
609.716
584.154
561.078
540.008
519.549
497.449
472.604
447.216
423.346
401.185
380.648
361.659
344.153
328.074
313.379
300.035
288.026
277.354
268.044
260.156
253.79
249.116
246.403
246.083
248.875
256.036
269.953
295.778
347.171
476.876
1130.19
786.61
789.757
781.883
765.691
743.515
717.369
689.007
659.926
631.35
604.219
579.161
556.422
535.754
516.243
496.062
473.41
448.885
425.178
403.124
382.666
363.737
346.276
330.23
315.559
302.234
290.241
279.584
270.291
262.423
256.084
251.446
248.783
248.534
251.427
258.734
272.873
299.058
351.115
482.427
1143.27
772.175
774.902
767.331
751.948
730.906
706.06
679.029
651.2
623.709
597.44
573.001
550.684
530.389
511.533
492.899
472.623
449.953
426.658
404.676
384.283
365.407
347.987
331.974
317.329
304.025
292.051
281.413
272.141
264.296
257.986
253.385
250.77
250.585
253.567
261.001
275.33
301.823
354.447
487.134
1154.32
756.758
759.149
751.894
737.281
717.305
693.686
667.929
641.323
614.933
589.588
565.867
544.077
524.207
505.874
488.262
470.048
449.774
427.62
405.845
385.527
366.698
349.311
333.324
318.702
305.419
293.466
282.849
273.599
265.78
259.5
254.935
252.365
252.238
255.297
262.838
277.323
304.062
357.134
490.882
1163.95
740.864
742.991
736.048
722.152
703.157
680.673
656.105
630.66
605.344
580.939
557.997
536.826
517.459
499.627
482.74
465.89
447.899
427.95
406.773
386.474
367.647
350.265
334.287
319.679
306.415
294.483
283.89
274.667
266.876
260.628
256.099
253.571
253.495
256.619
264.246
278.853
305.78
359.186
493.741
1171.23
724.945
726.878
720.246
707.014
688.917
667.466
643.986
619.615
595.306
571.808
549.655
529.159
510.388
493.147
476.966
461.12
444.699
426.767
407.187
387.144
368.237
350.819
334.835
320.238
306.996
295.092
284.53
275.34
267.583
261.371
256.879
254.391
254.36
257.537
265.232
279.93
306.996
360.65
495.787
1175.16
709.352
711.171
704.86
692.253
674.981
654.474
631.982
608.586
585.195
562.528
541.109
521.258
503.077
486.432
470.94
455.979
440.728
424.315
406.244
387.054
368.283
350.86
334.894
320.333
307.134
295.276
284.761
275.615
267.901
261.73
257.278
254.829
254.838
258.058
265.799
280.556
307.701
361.48
496.878
1177.62
694.302
696.094
690.127
678.123
661.622
641.986
620.398
597.887
575.318
553.387
532.607
513.301
495.598
479.418
464.458
450.2
435.928
420.816
404.209
386.041
367.563
350.252
334.393
319.927
306.813
295.03
284.581
275.494
267.834
261.711
257.302
254.892
254.937
258.187
265.958
280.741
307.91
361.712
497.131
1177.81
679.867
681.72
676.125
664.715
648.949
630.125
609.371
587.666
565.839
544.559
524.329
505.474
488.144
472.304
457.733
444.029
430.635
416.848
401.8
384.362
366.085
349.037
333.371
319.052
306.056
294.372
284.006
274.992
267.394
261.324
256.962
254.59
254.665
257.938
265.719
280.498
307.64
361.365
496.559
1175.88
665.991
667.991
662.797
651.973
636.915
618.858
598.881
577.919
556.767
536.078
516.345
497.902
480.924
465.422
451.243
438.083
425.494
412.839
399.1
382.254
364.261
347.458
331.973
317.798
304.923
293.341
283.065
274.129
266.599
260.587
256.272
253.938
254.038
257.323
265.098
279.844
306.909
360.465
495.201
1171.98
652.53
654.744
649.98
639.745
625.376
608.055
588.814
568.548
548.026
527.889
508.63
490.602
474.015
458.928
445.245
432.701
420.84
408.929
395.766
380.027
362.466
345.706
330.305
316.23
303.455
291.969
281.783
272.928
265.469
259.517
255.251
252.953
253.074
256.36
264.113
278.8
305.743
359.041
493.106
1166.3
639.268
641.754
637.451
627.82
614.142
597.548
579.025
559.435
539.521
519.913
501.114
483.499
467.317
452.675
439.521
427.602
416.41
405.092
392.361
377.132
360.198
343.61
328.295
314.317
301.645
290.262
280.172
271.404
264.022
258.134
253.918
251.655
251.793
255.073
262.788
277.391
304.169
357.132
490.336
1158.99
625.946
628.749
624.945
615.945
602.983
587.135
569.348
550.446
531.146
512.066
493.713
476.483
460.655
446.376
433.627
422.168
411.472
400.652
388.488
373.988
357.498
341.045
325.854
312.011
299.473
288.216
278.24
269.573
262.276
256.458
252.295
250.066
250.216
253.482
261.146
275.643
302.22
354.777
486.953
1150.24
612.279
615.432
612.16
603.831
591.625
576.569
559.562
541.39
522.741
504.212
486.308
469.431
453.883
439.842
427.335
416.174
405.897
395.683
384.358
370.661
354.16
337.86
322.922
309.296
296.945
285.849
276.01
267.459
260.257
254.515
250.407
248.211
248.37
251.613
259.214
273.585
299.927
352.019
483.021
1140.33
597.98
601.494
598.781
591.159
579.754
565.542
549.374
531.994
514.054
496.126
478.701
462.178
446.87
432.992
420.624
409.666
399.761
390.185
379.679
366.42
350.119
334.211
319.602
306.25
294.124
283.214
273.529
265.103
258.003
252.338
248.284
246.118
246.28
249.493
257.018
271.245
297.324
348.902
478.622
1129.39
582.793
586.655
584.508
577.615
567.047
553.727
538.454
521.929
504.767
487.507
470.622
454.502
439.463
425.748
413.496
402.707
393.174
384.301
374.76
361.686
345.674
330.277
316.052
302.998
291.111
280.393
270.863
262.562
255.558
249.966
245.961
243.818
243.974
247.146
254.583
268.648
294.44
345.462
473.808
1117.72
566.527
570.698
569.104
562.943
553.23
540.832
526.495
510.88
494.561
478.048
461.785
446.151
431.457
417.956
405.826
395.135
385.764
377.223
368.228
356.659
341.546
326.436
312.505
299.706
288.028
277.479
268.085
259.89
252.969
247.437
243.469
241.339
241.479
244.599
251.933
265.82
291.3
341.728
468.627
1105.43
549.085
553.509
552.435
546.991
538.129
526.662
513.283
498.612
483.19
467.494
451.943
436.896
422.656
409.471
397.533
386.942
377.659
369.364
361.116
350.821
337.119
322.63
309.058
296.492
284.977
274.552
265.254
257.135
250.272
244.78
240.833
238.702
238.814
241.87
249.088
262.779
287.924
337.721
463.101
1092.56
530.48
535.091
534.494
529.739
521.711
511.165
498.748
485.036
470.539
455.708
440.94
426.575
412.899
400.154
388.525
378.115
368.906
360.674
352.837
344.074
332.714
319.448
306.086
293.539
282.052
271.66
262.398
254.313
247.479
242.006
238.065
235.921
235.994
238.974
246.064
259.543
284.327
333.445
457.195
1079.21
510.822
515.559
515.398
511.3
504.083
494.444
482.979
470.227
456.667
442.729
428.787
415.162
402.126
389.912
378.702
368.601
359.602
351.521
343.916
335.978
326.652
315.444
303.143
290.77
279.191
268.753
259.477
251.396
244.571
239.105
235.162
232.998
233.025
235.922
242.874
256.126
280.527
328.926
450.946
1064.69
490.296
495.11
495.35
491.886
485.461
476.716
466.196
454.4
441.782
428.75
415.656
402.8
390.439
378.791
368.033
358.275
349.527
341.65
334.306
326.924
318.81
309.41
298.792
287.528
276.164
265.677
256.386
248.312
241.504
236.051
232.108
229.927
229.909
232.721
239.53
252.547
276.546
324.186
444.351
1048.94
469.12
473.977
474.594
471.747
466.104
458.244
448.668
437.829
426.154
414.033
401.799
389.728
378.054
366.977
356.663
347.227
338.699
330.995
323.885
316.977
309.776
301.823
292.892
283.01
272.513
262.23
252.999
244.988
238.233
232.819
228.895
226.708
226.651
229.382
236.047
248.825
272.411
319.267
437.5
1032.06
447.517
452.393
453.368
451.127
446.26
439.284
430.656
420.776
410.041
398.828
387.459
376.184
365.21
354.711
344.84
335.711
327.375
319.798
312.844
306.274
299.766
292.982
285.633
277.481
268.147
258.288
249.268
241.406
234.759
229.417
225.534
223.354
223.268
225.922
232.445
244.98
268.146
314.197
430.45
1015.14
425.695
430.568
431.881
430.231
426.133
420.041
412.36
403.441
393.642
383.322
372.81
362.345
352.089
342.192
332.79
323.99
315.859
308.4
301.554
295.192
289.136
283.177
277.094
270.589
263.192
254.173
245.36
237.672
231.152
225.898
222.065
219.899
219.788
222.369
228.753
241.047
263.795
309.048
423.349
998.576
403.843
408.695
410.32
409.233
405.881
400.659
393.923
385.971
377.107
367.648
357.959
348.305
338.8
329.541
320.65
312.232
304.36
297.067
290.344
284.143
278.385
272.967
267.766
262.579
256.878
249.61
241.351
233.892
227.505
222.329
218.539
216.383
216.246
218.755
225.005
237.066
259.407
303.887
416.324
982.72
382.137
386.951
388.861
388.303
385.662
381.278
375.46
368.467
360.548
351.961
343.054
334.148
325.383
316.798
308.466
300.489
292.948
285.897
279.36
273.337
267.804
262.722
258.024
253.586
249.089
243.868
237.451
230.336
223.937
218.771
214.992
212.833
212.667
215.109
221.232
233.073
255.03