/*--------------------------------*- C++ -*----------------------------------*\
  =========                 |
  \\      /  F ield         | OpenFOAM: The Open Source CFD Toolbox
   \\    /   O peration     | Website:  https://openfoam.org
    \\  /    A nd           | Version:  8
     \\/     M anipulation  |
\*---------------------------------------------------------------------------*/
FoamFile
{
    version     2.0;
    format      ascii;
    class       volScalarField;
    location    "0.65";
    object      p_rgh;
}
// * * * * * * * * * * * * * * * * * * * * * * * * * * * * * * * * * * * * * //

dimensions      [1 -1 -2 0 0 0 0];

internalField   nonuniform List<scalar> 
9150
(
2495.14
2468.23
2442.64
2425.35
2416.95
2416.95
2425.35
2442.64
2468.23
2495.14
2485.89
2466.41
2450.66
2438.8
2432.76
2432.76
2438.8
2450.66
2466.41
2485.89
2476.23
2462.71
2454.08
2446.3
2442.15
2442.15
2446.3
2454.08
2462.71
2476.23
2471.11
2461.15
2455.59
2450.22
2447.23
2447.23
2450.22
2455.59
2461.15
2471.11
2469.42
2460.59
2455.89
2451.71
2449.26
2449.26
2451.71
2455.89
2460.59
2469.42
2031.09
2026.76
2051.65
2065.48
2071.66
2071.66
2065.48
2051.65
2026.76
2031.09
2220.78
2196.52
2190.94
2189.31
2189
2189
2189.31
2190.94
2196.52
2220.78
2344.8
2313.29
2297.18
2287
2282.02
2282.02
2287
2297.18
2313.29
2344.8
2444.75
2402.5
2374.52
2356.99
2348.28
2348.28
2356.99
2374.52
2402.5
2444.75
2514.16
2462.01
2423.36
2401.2
2390.92
2390.92
2401.2
2423.36
2462.01
2514.16
1848.38
1888.31
1880.52
1882.82
1878.14
1878.14
1882.82
1880.52
1888.31
1848.38
1873.42
1896.47
1875.86
1881.48
1877.97
1877.97
1881.48
1875.85
1896.47
1873.41
1849.18
1882.53
1852.42
1858.75
1862.19
1862.19
1858.75
1852.42
1882.53
1849.18
1690.07
1816.19
1835.02
1852.88
1868.59
1868.59
1852.88
1835.02
1816.19
1690.06
1569.89
1805
1901.93
1931.62
1946.7
1946.7
1931.62
1901.93
1805
1569.89
2177.46
2321.62
2432.85
2507.9
2545.23
2545.71
2509.35
2435.27
2324.94
2181.55
1602.86
1721.77
1817.68
1885.84
1922.88
1923.35
1887.17
1819.76
1724.49
1606.07
1075.02
1147.56
1206.44
1247.75
1269.29
1269.53
1248.45
1207.54
1148.98
1076.65
945.863
974.064
1000.07
1018.79
1028.46
1028.52
1018.96
1000.32
974.314
945.9
1096.18
1049.66
1030.6
1022.08
1018.27
1018.13
1021.65
1029.8
1048.18
1093.42
1360.19
1234.46
1168.33
1136.17
1121.64
1121.38
1135.39
1166.81
1231.58
1355.85
1535.64
1398.14
1304.34
1260.79
1242.87
1242.62
1260
1302.65
1395.08
1533.4
1545.55
1480.6
1391.4
1348.44
1332.79
1332.49
1347.41
1389.02
1476.87
1546.47
1457.09
1524.09
1450.44
1406.4
1392.21
1391.97
1405.43
1448.11
1521.25
1462.31
1342.18
1520.73
1472.46
1431.83
1419.86
1419.8
1431.42
1471.31
1520.67
1352.42
1212.56
1487.38
1470.2
1435.66
1425.98
1426.02
1435.56
1469.87
1489.6
1225.62
1093.33
1456.02
1471.17
1438.83
1428.17
1428.01
1438.02
1469.96
1460.09
1112.78
932.627
1415.57
1481.18
1448.17
1432.67
1432.38
1446.92
1479.52
1420.52
953.415
810.271
1374.26
1482.63
1451.42
1432.31
1432
1450.16
1481.37
1381.14
833.244
689.999
1323.02
1474.84
1448.33
1426.68
1426.46
1447.44
1474.72
1332.06
712.701
584.271
1269.39
1460.38
1440.06
1416.69
1416.61
1439.76
1461.7
1280.47
606.942
493.943
1214.54
1438.46
1426.14
1402.16
1402.11
1426.1
1440.66
1226.12
513.986
422.54
1152
1412.28
1411.65
1387.39
1387.04
1410.99
1415.43
1169
439.675
363.468
1080.14
1384.06
1398.14
1373.93
1373.54
1397.42
1386.95
1095.46
378.978
314.311
1022.83
1356.28
1381.69
1358.08
1357.65
1380.94
1359.44
1039.12
328.637
271.719
965.567
1327.33
1363.58
1340.92
1340.45
1362.78
1330.6
982.324
284.672
235.783
911.52
1298.65
1344.57
1323.01
1322.54
1343.84
1302.15
928.796
247.449
205.44
860.237
1269.94
1324.37
1304.11
1303.66
1323.75
1273.68
877.899
215.825
179.983
811.96
1241.58
1303.21
1284.39
1283.98
1302.75
1245.53
829.886
189.122
158.723
766.795
1213.8
1281.24
1263.95
1263.59
1280.93
1217.89
784.851
166.665
141.003
724.772
1186.83
1258.67
1242.94
1242.61
1258.49
1190.97
742.829
147.82
126.218
685.865
1160.89
1235.71
1221.53
1221.24
1235.62
1164.96
703.807
132.001
113.839
650.007
1136.18
1212.62
1199.94
1199.66
1212.56
1140.07
667.738
118.691
103.422
617.091
1112.84
1189.64
1178.35
1178.08
1189.56
1116.44
634.541
107.453
94.619
586.979
1090.93
1166.91
1156.93
1156.66
1166.8
1094.2
604.112
97.9149
87.1821
559.483
1070.37
1144.51
1135.75
1135.52
1144.44
1073.42
576.328
89.7852
80.9175
534.361
1051
1122.42
1114.85
1114.68
1122.52
1054.01
551.006
82.8343
75.6415
511.386
1032.69
1100.66
1094.24
1094.17
1101.03
1035.81
527.935
76.8818
71.1583
490.441
1015.36
1079.3
1074
1074.04
1079.98
1018.69
506.905
71.7664
67.231
471.775
999.524
1058.81
1054.47
1054.54
1059.54
1002.63
487.839
67.3291
63.4087
455.912
985.59
1039.61
1035.96
1035.95
1039.99
987.827
470.783
63.4279
59.7381
442.948
971.736
1021.62
1018.66
1018.57
1021.76
974.754
456.261
59.8066
56.2627
432.054
957.676
1004.92
1002.65
1002.54
1005
962.091
444.582
56.2605
53.0009
422.72
946.746
989.6
987.887
987.783
989.598
949.494
434.941
52.9338
49.9694
415.036
937.209
975.64
974.397
974.306
975.617
939.857
426.794
49.8384
47.1684
408.865
929.277
963.099
962.247
962.165
963.046
931.631
420.345
46.9807
44.5862
404.354
922.828
952.008
951.484
951.411
951.928
924.963
415.164
44.348
42.1982
401.169
918.008
942.389
942.144
942.078
942.284
919.803
412.009
41.911
39.9751
399.427
914.515
934.244
934.252
934.191
934.123
916.157
409.499
39.6464
37.8818
398.578
912.599
927.585
927.823
927.767
927.443
913.911
408.614
37.5182
35.8804
399.487
912.221
922.422
922.866
922.814
922.252
913.159
409.167
35.4962
33.9302
401.468
913.128
918.75
919.394
919.345
918.563
913.988
410.611
33.5429
32.004
404.818
915.272
916.556
917.401
917.359
916.368
915.961
413.671
31.6162
30.0843
409.438
918.599
915.817
916.869
916.833
915.633
919.175
417.918
29.7077
28.1573
415.295
923.08
916.51
917.772
917.742
916.332
923.536
423.455
27.8044
26.2151
422.388
928.673
918.606
920.083
920.058
918.435
929.025
430.239
25.8975
24.259
430.71
935.335
922.069
923.767
923.746
921.906
935.592
438.263
23.9856
22.3012
440.266
943.024
926.86
928.783
928.764
926.703
943.194
447.53
22.0767
20.3637
451.071
951.695
932.929
935.079
935.062
932.776
951.782
458.046
20.1874
18.4749
463.143
961.299
940.222
942.601
942.583
940.069
961.308
469.828
18.3432
16.662
476.507
971.787
948.682
951.292
951.272
948.528
971.723
482.897
16.5714
14.9478
491.187
983.108
958.253
961.094
961.073
958.099
982.98
497.279
14.8954
13.3484
507.208
995.215
968.881
971.953
971.932
968.73
995.033
512.993
13.3297
11.8728
524.593
1008.06
980.513
983.816
983.795
980.37
1007.84
530.058
11.8803
10.5326
543.364
1021.59
993.097
996.629
996.611
992.969
1021.35
548.491
10.5481
9.33555
563.54
1035.77
1006.59
1010.35
1010.33
1006.48
1035.52
568.312
9.33269
8.26863
585.129
1050.56
1020.95
1024.92
1024.91
1020.86
1050.3
589.551
8.23723
7.31026
608.131
1065.92
1036.13
1040.31
1040.31
1036.06
1065.67
612.239
7.26175
6.44398
632.553
1081.79
1052.1
1056.47
1056.47
1052.04
1081.55
636.403
6.39097
5.65823
658.391
1098.18
1068.79
1073.34
1073.35
1068.75
1097.94
662.036
5.60715
4.94574
685.698
1114.92
1086.16
1090.88
1090.88
1086.14
1114.71
689.184
4.89762
4.30247
714.359
1132.16
1104.15
1109.01
1109.03
1104.14
1131.98
717.719
4.25489
3.72512
744.335
1149.82
1122.69
1127.68
1127.7
1122.71
1149.68
747.584
3.67449
3.20325
775.454
1167.95
1141.73
1146.81
1146.83
1141.76
1167.83
778.579
3.1459
2.77133
807.231
1186.22
1161.01
1166.22
1166.23
1161.01
1186.06
810.212
2.72187
2.80028
838.425
1203.81
1179.99
1185.57
1185.56
1179.92
1203.52
840.918
2.85723
5.50315
868.119
1222.6
1200.22
1206.06
1206.12
1200.39
1222.67
870.284
6.81978
15.6852
897.709
1244.21
1222.87
1228.4
1228.5
1223.18
1244.55
900.229
16.1432
20.3967
929.172
1265.95
1245.58
1250.83
1250.87
1245.7
1265.98
931.451
21.1679
27.5507
960.48
1286.47
1267.48
1272.75
1272.77
1267.5
1286.35
962.61
28.3568
35.3476
992.505
1307.07
1289.43
1294.75
1294.75
1289.42
1306.92
994.547
36.2079
44.1554
1025.39
1327.92
1311.58
1316.88
1316.88
1311.55
1327.76
1027.32
45.0503
54.0023
1059.05
1348.95
1333.87
1339.16
1339.15
1333.83
1348.78
1060.85
54.9179
65.016
1093.46
1370.11
1356.28
1361.55
1361.54
1356.24
1369.94
1095.13
65.9376
77.3173
1128.62
1391.37
1378.8
1384.04
1384.03
1378.75
1391.21
1130.13
78.2327
91.0503
1164.51
1412.74
1401.41
1406.63
1406.62
1401.36
1412.59
1165.85
91.9473
106.385
1201.14
1434.21
1424.11
1429.3
1429.29
1424.05
1434.06
1202.3
107.252
123.527
1238.48
1455.76
1446.89
1452.06
1452.05
1446.83
1455.62
1239.46
124.351
142.725
1276.54
1477.4
1469.76
1474.91
1474.9
1469.7
1477.27
1277.34
143.492
164.284
1315.28
1499.14
1492.72
1497.86
1497.85
1492.67
1499.01
1315.92
164.98
188.576
1354.7
1520.97
1515.79
1520.93
1520.92
1515.74
1520.86
1355.19
189.189
216.065
1394.76
1542.92
1539
1544.15
1544.14
1538.96
1542.82
1395.12
216.587
247.333
1435.42
1565.01
1562.39
1567.57
1567.55
1562.35
1564.93
1435.66
247.759
283.121
1476.59
1587.28
1586.02
1591.26
1591.25
1585.99
1587.21
1476.73
283.449
324.39
1518.17
1609.78
1609.99
1615.33
1615.33
1609.96
1609.73
1518.24
324.625
372.423
1559.98
1632.64
1634.46
1639.98
1639.97
1634.44
1632.6
1560
372.574
428.99
1601.84
1656.02
1659.67
1665.46
1665.45
1659.65
1655.99
1601.83
429.071
496.717
1643.52
1680.29
1685.99
1692.13
1692.13
1685.98
1680.26
1643.5
496.746
579.542
1684.98
1705.95
1713.83
1720.34
1720.33
1713.82
1705.93
1684.96
579.54
684.006
1725.5
1733.59
1743.44
1750.16
1750.16
1743.44
1733.58
1725.48
683.989
818.499
1765.06
1763.54
1774.58
1781.12
1781.11
1774.58
1763.53
1765.04
818.481
997.192
1794.24
1793.4
1804.6
1810.31
1810.31
1804.6
1793.39
1794.23
997.174
1205.9
1817.95
1820.93
1830.7
1834.19
1834.19
1830.69
1820.92
1817.94
1205.88
1466.77
1853.18
1859.57
1857.88
1855.34
1855.34
1857.87
1859.56
1853.16
1466.75
1704.3
1905.2
1890.77
1876.84
1870
1870
1876.84
1890.76
1905.19
1704.29
1999.59
1784.31
1559.28
1340.5
1143.98
981.775
855.551
757.223
678.105
613.938
562.185
520.36
486.263
458.299
435.404
416.82
401.97
390.404
381.749
375.693
371.97
370.354
370.649
372.687
376.324
381.432
387.894
395.59
404.41
414.221
424.874
436.192
448.066
460.382
475.665
485.915
490.815
495.987
498.654
500.877
1463.26
1297.24
1133.05
986.013
866.654
778.977
724.728
697.101
683.212
670.491
653.647
632.722
608.889
583.6
558.393
534.488
512.767
493.796
477.858
465.012
455.159
448.117
443.678
441.596
441.632
443.542
447.083
451.999
458.021
464.857
472.157
479.486
486.391
492.823
497.531
498.396
495.359
498.54
497.306
506.386
991.62
897.273
807.265
722.496
644.483
589.683
579.908
609.13
658.12
696.554
710.534
707.911
693.495
672.473
649.739
626.873
604.72
584.068
565.561
549.59
536.308
525.687
517.599
511.837
508.169
506.301
505.952
506.789
508.464
510.586
512.753
514.482
515.312
515.037
513.585
510.531
505.301
503.824
512.624
527.765
923.672
909.723
859.612
698.551
435.998
241.951
211.766
241.799
315.308
443.248
571.037
661.502
694.742
689.439
674.195
656.106
638.318
621.245
605.072
590.186
576.975
565.656
556.262
548.704
542.811
538.353
535.08
532.693
530.896
529.354
527.778
525.907
523.593
520.942
518.286
516.285
517.17
525.732
541.85
564.505
1181.02
1218.54
940.72
439.49
194.901
146.557
135.004
134.894
141.352
166.905
229.508
361.105
541.847
649.775
682.742
672.683
654.825
637.82
623.142
609.839
597.553
586.443
576.679
568.282
561.153
555.125
549.994
545.544
541.563
537.843
534.227
530.676
527.289
524.437
522.781
523.491
529.301
545.45
573.817
598.237
1478.51
1207.54
481.414
167.214
145.193
140.59
138.585
136.95
135.753
135.431
138.425
150.222
207.061
357.586
554.708
655.58
672.509
653.618
634.761
620.175
608.065
597.207
587.386
578.627
570.894
564.063
557.969
552.46
547.4
542.697
538.322
534.379
531.144
529.15
529.186
532.535
541.936
562.319
594.603
621.631
1467.21
741.363
179.661
143.583
137.395
136.841
136.459
135.882
135.319
134.866
134.712
135.047
137.086
147.299
220.705
409.105
602.65
656.172
648.234
628.513
613.14
601.658
591.94
583.258
575.48
568.522
562.255
556.552
551.331
546.571
542.334
538.799
536.344
535.556
537.225
542.568
554.058
575.973
608.32
635.066
1229.2
403.545
149.261
136.332
134.673
134.746
134.673
134.461
134.224
133.967
133.644
133.238
133.077
133.666
135.746
155.124
297.691
518.054
629.042
635.26
616.738
602.022
592.022
583.996
576.911
570.563
564.868
559.729
555.088
550.957
547.438
544.735
543.25
543.534
546.305
552.597
564.503
585.53
615.158
639.056
888.35
219.063
138.532
132.751
132.723
133.117
133.203
133.147
133.046
132.908
132.723
132.477
132.172
131.808
131.727
132.991
137.541
234.38
456.609
602.051
615.681
600.505
588.693
581.452
575.919
571.061
566.713
562.833
559.385
556.39
553.953
552.275
551.707
552.728
555.929
562.114
572.953
591.16
616.064
635.754
659.573
158.479
132.9
130.724
131.336
131.771
131.905
131.934
131.917
131.861
131.765
131.633
131.465
131.253
131.019
130.86
131.371
133.879
215.542
444.03
581.168
593.128
582.571
575.849
572.52
570.123
567.972
566.024
564.298
562.827
561.704
561.109
561.314
562.698
565.697
570.914
579.554
593.588
612.425
627.1
475.16
139.865
130.297
129.693
130.321
130.648
130.768
130.83
130.862
130.862
130.831
130.772
130.693
130.602
130.506
130.384
130.24
130.535
134.213
244.927
479.919
566.885
571.536
567.41
566.844
567.737
568.59
569.196
569.629
569.963
570.291
570.755
571.561
572.971
575.272
578.888
584.571
593.614
605.631
614.877
344.651
135.854
129.197
128.951
129.435
129.646
129.73
129.795
129.85
129.886
129.902
129.897
129.873
129.834
129.784
129.702
129.528
129.327
129.796
145.442
342.305
517.799
552.292
555.569
559.171
564.125
568.617
572.244
575.135
577.43
579.24
580.684
581.905
583.069
584.339
585.943
588.29
591.963
596.928
600.705
249.307
133.273
128.128
128.092
128.492
128.633
128.695
128.764
128.838
128.907
128.967
129.017
129.055
129.081
129.096
129.094
129.045
128.94
128.974
130.139
250.994
476.182
525.939
540.316
550.396
560.151
568.549
575.336
580.727
584.942
588.129
590.398
591.842
592.545
592.576
591.998
590.87
589.222
587.343
585.924
190.508
130.689
126.955
127.1
127.435
127.54
127.602
127.687
127.786
127.891
127.996
128.102
128.208
128.314
128.423
128.536
128.667
128.843
129.074
129.448
262.652
461.112
504.721
527.447
543.906
557.978
569.678
579.124
586.619
592.419
596.689
599.525
600.97
601.033
599.697
596.903
592.388
585.769
577.594
571.446
153.011
127.547
125.553
125.92
126.214
126.32
126.41
126.525
126.656
126.796
126.945
127.1
127.262
127.43
127.603
127.787
127.985
128.203
128.538
138.96
333.257
460.939
498.306
523.664
543.246
559.624
573.199
584.253
593.066
599.856
604.753
607.806
608.998
608.265
605.511
600.559
592.961
581.888
568.208
557.809
137.074
124.469
123.958
124.556
124.852
124.986
125.115
125.263
125.426
125.602
125.79
125.992
126.208
126.435
126.675
126.952
127.303
127.52
126.627
200.381
433.296
473.987
504.732
528.669
548.388
565.111
579.16
590.736
600.024
607.152
612.175
615.08
615.777
614.132
609.957
603.043
592.783
577.937
559.695
545.473
129.221
122.899
122.805
123.312
123.522
123.628
123.754
123.909
124.086
124.284
124.502
124.741
124.999
125.275
125.57
125.881
126.215
126.809
139.056
347.78
464.384
493.178
518.348
539.442
557.688
573.507
587.002
598.244
607.295
614.185
618.888
621.317
621.317
618.679
613.164
604.567
592.056
574.265
552.423
535.858
127.201
121.954
121.714
122.009
122.108
122.165
122.268
122.415
122.597
122.811
123.055
123.33
123.631
123.964
124.369
124.872
125.067
123.702
243.948
470.274
492.304
515.206
535.413
553.415
569.539
583.78
596.075
606.387
614.68
620.896
624.929
626.628
625.784
622.094
615.426
605.395
591.149
571.179
547.005
528.988
124.843
120.292
120.117
120.364
120.429
120.471
120.568
120.715
120.904
121.132
121.398
121.702
122.042
122.429
122.907
123.565
124.441
159.255
420.047
499.788
519.242
537.179
553.595
568.786
582.659
595.047
605.816
614.861
622.07
627.315
630.437
631.234
629.413
624.8
617.079
605.899
590.409
568.968
543.53
525.18
122.369
118.325
118.225
118.457
118.508
118.543
118.637
118.785
118.979
119.214
119.489
119.801
120.148
120.565
121.129
121.666
121.239
299.051
513.236
529.506
544.57
558.601
572.013
584.671
596.335
606.806
615.918
623.522
629.462
633.566
635.607
635.386
632.684
627.172
618.573
606.59
590.256
568.026
541.804
521.006
119.74
116.116
116.071
116.288
116.33
116.363
116.456
116.605
116.801
117.039
117.318
117.631
117.987
118.421
118.994
119.73
169.434
468.934
543.689
556.58
568.032
579.235
590.182
600.576
610.176
618.787
626.235
632.346
636.91
639.766
640.738
639.563
635.966
629.66
620.436
607.887
591.157
568.717
539.949
520.728
116.906
113.654
113.649
113.851
113.888
113.922
114.017
114.168
114.369
114.617
114.91
115.247
115.681
116.365
117.107
116.01
296.218
557.232
571.444
581.023
589.963
599.037
607.921
616.321
624.042
630.912
636.736
641.332
644.585
646.271
646.166
644.032
639.617
632.675
622.886
609.98
593.158
570.716
542.733
525.411
113.824
110.924
110.953
111.142
111.175
111.211
111.306
111.454
111.649
111.887
112.164
112.464
112.8
113.46
115.327
140.798
447.117
586.015
596.821
603.917
610.995
618.265
625.328
631.946
637.96
643.171
647.491
650.746
652.736
653.303
652.174
649.159
644.03
636.474
626.287
613.211
596.493
574.049
548.794
532.383
110.478
107.925
107.984
108.16
108.192
108.229
108.321
108.461
108.638
108.845
109.068
109.303
109.56
109.692
109.236
202.35
556.996
615.555
621.756
626.331
631.645
637.217
642.599
647.589
652.002
655.77
658.732
660.73
661.587
661.07
659.016
655.213
649.427
641.425
631.011
617.949
601.563
579.952
556.313
531.038
106.865
104.664
104.751
104.916
104.952
104.998
105.098
105.248
105.445
105.689
105.977
106.354
106.929
107.601
107.034
285.381
622.891
640.136
644.035
647.306
651.425
655.675
659.67
663.273
666.325
668.801
670.572
671.433
671.193
669.698
666.829
662.409
656.147
647.882
637.464
624.707
609.006
588.452
550.196
522.883
102.982
101.148
101.265
101.42
101.46
101.511
101.613
101.763
101.964
102.222
102.535
102.95
103.742
105.425
107.422
371.517
647.538
661.691
664.962
667.592
670.808
673.964
676.785
679.19
681.101
682.451
683.114
682.922
681.713
679.32
675.762
670.869
664.28
655.866
645.556
633.166
618.033
590.81
543.376
532.477
98.8342
97.3902
97.5401
97.6855
97.7259
97.7719
97.8529
97.9645
98.1041
98.2712
98.4551
98.6334
99.0243
100.429
113.435
449.186
674.189
685.63
687.165
688.609
690.674
692.666
694.334
695.62
696.47
696.786
696.457
695.331
693.227
690.234
686.087
680.638
673.82
665.401
655.245
643.144
626.161
578.426
554.165
543.353
94.4504
93.4219
93.6143
93.7549
93.7982
93.8375
93.8921
93.9538
94.0165
94.0772
94.1241
94.1271
94.0758
94.2733
110.467
467.228
701.723
711.566
710.628
710.342
711.078
711.871
712.416
712.652
712.514
711.887
710.693
708.766
705.998
702.403
697.771
691.967
684.925
676.491
666.472
654.68
638.467
594.827
567.268
550.597
89.8845
89.2866
89.5378
89.6859
89.742
89.7836
89.8217
89.8467
89.8521
89.8365
89.7972
89.7186
89.4948
89.1143
103.347
464.231
726.8
736.741
733.833
731.992
731.566
731.331
730.909
730.235
729.198
727.775
725.855
723.324
720.069
715.928
710.897
704.942
697.869
689.504
679.85
668.745
655.007
630.318
581.477
452.059
85.2094
85.0342
85.3657
85.5384
85.6192
85.6733
85.7037
85.6992
85.6506
85.5511
85.406
85.1719
84.5716
83.2032
91.6693
432.052
749.124
760.661
756.395
753.294
751.948
750.916
749.73
748.278
746.574
744.514
741.987
738.927
735.26
730.804
725.526
719.389
712.275
704.145
694.964
684.625
672.436
651.084
566.773
449.292
80.535
80.7319
81.1646
81.3818
81.5014
81.5845
81.6291
81.6276
81.5748
81.4684
81.3159
81.0528
80.4445
79.5292
82.8919
365.071
762.366
781.247
777.478
773.815
771.978
770.497
768.797
766.832
764.619
762.043
759.033
755.581
751.499
746.758
741.296
735.066
728.04
720.225
711.683
702.162
690.754
649.85
484.196
461.138
76.0068
76.4756
77.0101
77.2817
77.4441
77.5613
77.6321
77.6538
77.6303
77.5697
77.4903
77.358
77.0501
76.8654
79.251
286.737
747.441
799.139
797.916
794.121
792.009
790.302
788.308
785.979
783.367
780.387
777.017
773.197
768.808
763.84
758.227
751.287
742.465
735.312
729.03
719.249
708.764
652.304
478.866
473.801
71.785
72.3826
72.9855
73.2977
73.4871
73.625
73.7128
73.7437
73.7262
73.6773
73.6132
73.5127
73.2952
73.357
75.4783
205.44
708.435
817.278
819.363
815.201
812.644
810.713
808.51
805.876
802.912
799.605
795.929
791.752
787.096
781.92
775.919
767.227
760.175
752.792
745.122
738.807
727.035
672.276
492.203
487.432
67.9682
68.5592
69.163
69.4808
69.6694
69.8031
69.8808
69.8932
69.8485
69.7611
69.6441
69.4755
69.2153
69.0795
69.8306
130.254
628.795
835.614
842.39
837.568
834.245
831.989
829.551
826.677
823.393
819.748
815.682
811.173
806.218
800.796
794.653
785.838
778.549
771.241
763.735
758.495
746.487
679.629
506.158
501.872
64.5653
65.0502
65.5767
65.8577
66.0192
66.1227
66.1659
66.1409
66.0532
65.9052
65.7009
65.4375
65.0693
64.48
63.5642
78.1031
478.293
848.803
864.915
860.596
856.549
854.003
851.405
848.313
844.745
840.737
836.292
831.406
826.086
820.345
814.125
806.681
797.588
790.183
784.308
777.653
766.608
676.515
520.444
516.553
61.4781
61.806
62.2012
62.4154
62.5342
62.5984
62.6032
62.5466
62.4315
62.2585
62.0351
61.7731
61.4199
60.8662
60.4334
64.8135
275.683
811.969
884.121
884.287
879.8
876.891
874.206
870.941
867.066
862.665
857.781
852.44
846.673
840.514
833.983
826.967
818.685
810.855
804.832
797.095
787.285
696.543
534.741
531.082
58.3944
58.6376
58.9371
59.0988
59.1816
59.2084
59.1783
59.092
58.9473
58.7442
58.4898
58.2029
57.8664
57.3177
56.7889
56.6863
113.307
640.99
900.329
911.009
905.894
901.724
898.567
894.97
890.65
885.713
880.252
874.325
867.99
861.298
854.292
846.874
839.193
831.826
824.16
816.458
807.592
748.363
594.489
545.663
55.2494
55.492
55.7548
55.8924
55.9538
55.9555
55.9022
55.7905
55.6171
55.3795
55.0825
54.7349
54.3175
53.6651
52.9842
53.1021
59.7551
329.227
873.034
936.066
934.437
928.599
924.517
920.473
915.617
909.992
903.781
897.098
890.03
882.658
875.007
867.062
859.121
851.253
843.267
835.33
826.927
806.868
754.557
561.464
52.2307
52.4734
52.7092
52.8293
52.8757
52.8647
52.7969
52.6684
52.4739
52.2149
51.8904
51.5027
51.0469
50.4729
49.7075
49.4645
50.1754
97.6909
633.313
950.601
965.288
958.826
952.853
947.935
942.321
935.762
928.524
920.828
912.804
904.563
896.148
887.595
879.192
870.746
862.41
854.217
845.955
832.917
752.198
576.875
49.379
49.6136
49.8229
49.9286
49.9649
49.9455
49.8678
49.7286
49.526
49.2591
48.922
48.5135
48.0315
47.4517
46.6634
45.7902
46.1321
50.1127
245.966
861.8
991.008
992.512
984.643
977.99
971.158
963.214
954.495
945.537
936.289
926.962
917.647
908.426
899.337
890.458
881.88
873.635
865.551
834.326
607.23
589.922
46.7108
46.9266
47.1069
47.1986
47.2278
47.2042
47.1244
46.9902
46.7994
46.5453
46.2261
45.8411
45.3895
44.8617
44.2206
43.4239
43.0193
44.03
57.4843
476.811
985.254
1026.9
1022.43
1012.4
1002.67
992.496
981.839
971.03
960.285
949.66
939.288
929.198
919.417
909.998
901.031
892.522
884.124
814.54
605.325
602.079
44.2142
44.4052
44.5569
44.6353
44.6594
44.6358
44.563
44.4447
44.2748
44.0438
43.7565
43.4078
42.9923
42.5022
41.9173
41.1852
40.3172
40.0038
41.0263
102.655
690.788
1049.97
1074.4
1059.26
1040.46
1024.63
1010.51
997.258
984.502
972.359
960.798
949.741
939.127
928.934
919.191
909.863
900.456
837.224
650.104
787.595
41.8727
42.0365
42.1614
42.228
42.2495
42.231
42.1729
42.0766
41.9356
41.7473
41.5151
41.233
40.8962
40.4981
40.0257
39.4417
38.6702
37.7895
37.7209
39.6203
142.468
730.852
1103.82
1121.74
1087.71
1059.8
1039.72
1023.17
1008.3
994.668
982.033
970.161
958.884
948.111
937.831
928.021
916.317
887.361
880.412
892.083
39.6739
39.8067
39.9052
39.9605
39.9812
39.9712
39.9307
39.8591
39.7577
39.6296
39.4696
39.2842
39.0736
38.8413
38.5907
38.3167
37.9829
37.5943
37.5944
38.7062
43.8149
185.661
894.385
1151.55
1122.68
1086.76
1062.76
1044.81
1029.28
1015.19
1002.15
989.886
978.195
966.942
956.078
945.456
934.772
925.566
916.548
905.382
37.5951
37.6943
37.7656
37.8088
37.828
37.8251
37.8008
37.7541
37.6936
37.6191
37.5272
37.4326
37.3409
37.2642
37.2218
37.2392
37.3403
37.5916
38.1632
39.3539
41.6082
212.627
938.336
1128.42
1114.78
1090.8
1073.24
1058.96
1045.62
1032.86
1020.56
1008.63
996.967
985.491
974.169
963
951.95
940.865
928.231
908.272
35.6156
35.6772
35.7189
35.7481
35.7631
35.7634
35.75
35.7243
35.6926
35.6547
35.6079
35.5658
35.5375
35.5342
35.5755
35.69
35.9069
36.3075
37.0943
38.7833
44.3985
523.385
1059.47
1099.08
1098.22
1089.55
1080.47
1070.74
1060.22
1049.27
1038.08
1026.77
1015.35
1003.81
992.166
980.415
968.422
956.039
938.851
920.572
33.6916
33.72
33.7358
33.7523
33.7623
33.7632
33.7553
33.7407
33.7267
33.7078
33.6787
33.6504
33.6272
33.6102
33.6014
33.6057
33.6497
33.7287
33.6844
33.0823
45.1156
583.948
1065.67
1103.82
1106.43
1100.57
1093.42
1085.2
1075.94
1065.96
1055.5
1044.67
1033.48
1021.92
1009.98
997.672
984.785
970.935
947.417
932.335
31.7903
31.7962
31.7935
31.8007
31.807
31.808
31.8037
31.7956
31.7919
31.7799
31.7597
31.7346
31.7038
31.6596
31.5912
31.486
31.3425
31.0841
30.3318
28.7025
29.062
183.308
878.565
1135.67
1140.55
1125.48
1112.76
1102.64
1092.97
1083.1
1072.93
1062.4
1051.38
1039.8
1027.61
1014.77
1000.98
984.558
957.188
943.973
29.9091
29.8978
29.8812
29.882
29.886
29.8879
29.888
29.8866
29.8887
29.8853
29.8832
29.8749
29.866
29.8489
29.8168
29.7603
29.6612
29.4405
28.9203
28.4739
29.5843
35.0267
282.672
1031.96
1168.55
1149.81
1131
1118.8
1108.96
1099.44
1089.75
1079.65
1068.94
1057.44
1045.06
1031.73
1016.96
998.523
980.147
971.844
28.0388
28.0161
27.9895
27.9863
27.9895
27.9928
27.9968
28.0017
28.008
28.0174
28.0353
28.0543
28.0879
28.1348
28.2008
28.2917
28.4046
28.5182
28.6907
29.3718
30.8815
33.2295
363.93
1079.54
1159.29
1148.26
1136.02
1127.91
1120.83
1113.34
1105.12
1096.04
1085.97
1074.78
1062.39
1048.68
1032.99
1015.15
996.909
985.107
26.1731
26.1451
26.1124
26.1076
26.1105
26.1141
26.1186
26.1248
26.1316
26.1489
26.1753
26.2097
26.2697
26.3606
26.4956
26.6938
26.9709
27.3419
27.9003
28.9523
31.3793
89.4177
768.338
1115.17
1136
1137.41
1136.1
1134.23
1130.98
1126.11
1119.72
1111.87
1102.54
1091.76
1079.49
1065.58
1049.5
1030.33
1006.55
981.262
24.3118
24.2849
24.25
24.2452
24.2478
24.2491
24.2492
24.2491
24.2486
24.2586
24.2725
24.293
24.3398
24.4186
24.5454
24.7408
25.0255
25.4803
26.2055
27.2175
27.9041
341.345
1032.13
1109.49
1127.3
1136.04
1140.96
1143.05
1142.44
1139.47
1134.41
1127.48
1118.67
1108.27
1096.38
1082.45
1066.11
1043.28
1001.03
983.955
22.4619
22.4421
22.4083
22.4052
22.4069
22.4037
22.3951
22.3822
22.3651
22.3506
22.3296
22.3083
22.3018
22.3121
22.3493
22.4285
22.5803
22.8441
23.1532
23.2402
27.8074
526.314
1085.97
1113.59
1131.69
1143.48
1151.18
1155.32
1156.2
1154.3
1149.87
1142.67
1133.04
1121.32
1104.76
1097.66
1082.79
1056.54
1011.95
997.948
20.6374
20.6294
20.5995
20.5991
20.5998
20.5904
20.5701
20.54
20.4994
20.4473
20.3813
20.2992
20.2139
20.1224
20.0256
19.9303
19.8715
19.8404
19.7074
19.3044
19.2654
407.202
1074.09
1127.03
1146.23
1158.46
1166.76
1171.51
1172.83
1171.19
1166.85
1158.18
1130.5
1110.65
1112.64
1113.32
1098.73
1076.4
1041.43
1017.14
18.8585
18.8645
18.8399
18.8428
18.8425
18.8263
18.793
18.7429
18.6757
18.5893
18.4819
18.3395
18.1695
17.9721
17.7419
17.4769
17.1978
16.9621
16.6499
15.6584
13.5122
30.6399
619.534
1123.64
1171.78
1185.19
1191.06
1193.3
1192.94
1190.2
1185.08
1175.85
1131.71
1092.95
1138.17
1129.24
1112.37
1086.42
1062.61
1048.15
17.1473
17.1669
17.148
17.1546
17.154
17.1322
17.0876
17.0205
16.935
16.8315
16.6886
16.4873
16.2442
15.9518
15.5934
15.1515
14.6095
13.9409
13.0015
11.4141
10.2527
11.9798
12.7665
285.097
1000.31
1209.17
1225.43
1223.07
1217.16
1211.11
1203.89
1189.59
1131.2
1103.75
1128.74
1138.78
1082.89
1044.71
1023.39
1027.51
15.523
15.5543
15.5407
15.5516
15.5528
15.5292
15.4796
15.407
15.3201
15.2025
15.0341
14.814
14.5506
14.2351
13.8548
13.3964
12.8444
12.1639
11.2752
10.1253
9.22237
9.21244
10.3009
10.183
59.3483
764.25
1246.21
1261.35
1247.45
1234.42
1223.45
1176.52
1131.66
1120.2
1108.22
1102.11
1077.36
1057.88
1037.98
1025.7
13.9987
14.039
14.03
14.0457
14.0508
14.0298
13.9823
13.9128
13.8267
13.7045
13.539
13.3346
13.0801
12.7884
12.4503
12.0615
11.6202
11.1226
10.5583
9.93231
9.34729
9.03738
9.28184
9.61193
11.0957
47.0556
795.957
1276.55
1272.41
1254.59
1240.39
1185.71
1148.41
1137.13
1125.75
1112.04
1094.69
1075.71
1071.81
1065.8
12.5813
12.6277
12.6224
12.6426
12.6524
12.636
12.594
12.5296
12.4536
12.3415
12.1943
12.0111
11.7878
11.5328
11.2498
10.9388
10.6063
10.2632
9.92506
9.61744
9.38524
9.302
9.47268
9.88869
10.6867
13.7145
483.269
1242.95
1269.85
1259.39
1249.8
1235.6
1215.27
1200.54
1201.8
1182.59
1166.33
1155.42
1146.22
1132.88
11.2734
11.3237
11.3205
11.3443
11.3576
11.3451
11.3083
11.2498
11.1781
11.0843
10.9847
10.839
10.6436
10.4172
10.1746
9.91827
9.65618
9.40125
9.17142
8.99164
8.89594
8.92938
9.1298
9.48945
10.0026
14.5653
565.917
1237.36
1255.5
1255.65
1253.03
1250.3
1245.7
1239.36
1231.35
1221.28
1208.35
1191.08
1168.1
1154.84
10.0759
10.1275
10.1243
10.1488
10.1621
10.1489
10.1076
10.0363
9.93875
9.88654
9.88258
9.82889
9.64406
9.41743
9.18505
8.94951
8.71374
8.48547
8.27595
8.09864
7.97089
7.91987
7.9658
8.06196
8.20205
8.04249
425.843
1184.92
1248.05
1255.78
1258.31
1258.98
1257.77
1254.48
1248.44
1237.97
1221.8
1203.62
1183.69
1170.82
8.99082
9.04141
9.03689
9.06063
9.07273
9.05706
9.0085
8.92171
8.81052
8.8134
8.99688
8.86086
8.71506
8.48971
8.25235
8.01804
7.78401
7.55122
7.32353
7.10534
6.9008
6.72265
6.60204
6.52077
6.09947
5.10708
9.41496
547.637
1182.47
1256.86
1264.67
1267.66
1268.1
1267.38
1262.93
1252.73
1238.06
1224.37
1207.77
1196.36
8.01778
8.06599
8.06097
8.08652
8.10217
8.09226
8.052
7.98125
7.89175
7.87613
8.05383
8.07446
7.75721
7.58317
7.36095
7.12738
6.89001
6.6452
6.39057
6.12326
5.83872
5.53133
5.18813
4.74914
4.07106
3.49383
3.66953
3.93168
349.482
1023.48
1254.35
1273.33
1276.83
1277.89
1276.07
1270.37
1262.99
1249.94
1237.72
1229.08
7.1466
7.19272
7.18835
7.2174
7.23939
7.23845
7.21368
7.16737
7.10497
7.03196
7.19725
7.14664
7.07383
6.71093
6.52172
6.30206
6.07174
5.83096
5.57593
5.30419
5.01295
4.6989
4.35375
3.95517
3.48285
3.04772
2.91159
3.10075
3.01293
128.985
648.56
1072.42
1260.43
1285.39
1286.62
1282.74
1276.8
1268.66
1260.91
1256.07
6.36447
6.4102
6.40713
6.43924
6.46588