/*--------------------------------*- C++ -*----------------------------------*\
  =========                 |
  \\      /  F ield         | OpenFOAM: The Open Source CFD Toolbox
   \\    /   O peration     | Website:  https://openfoam.org
    \\  /    A nd           | Version:  8
     \\/     M anipulation  |
\*---------------------------------------------------------------------------*/
FoamFile
{
    version     2.0;
    format      ascii;
    class       surfaceScalarField;
    location    "0.65";
    object      phi;
}
// * * * * * * * * * * * * * * * * * * * * * * * * * * * * * * * * * * * * * //

dimensions      [0 3 -1 0 0 0 0];

internalField   nonuniform List<scalar> 
18095
(
1.58925e-07
-9.64571e-07
8.05646e-07
1.6593e-07
-1.24813e-06
1.24112e-06
1.22714e-07
-1.24245e-06
1.28567e-06
6.56057e-08
-1.26383e-06
1.32094e-06
-1.78975e-14
-1.28102e-06
1.34663e-06
-6.56057e-08
-1.28102e-06
1.34663e-06
-1.22714e-07
-1.26383e-06
1.32094e-06
-1.6593e-07
-1.24245e-06
1.28567e-06
-1.58925e-07
-1.24813e-06
1.24112e-06
-9.64571e-07
8.05646e-07
1.11276e-07
-1.07585e-06
9.98413e-08
-1.23669e-06
7.32287e-08
-1.21584e-06
4.02469e-08
-1.23085e-06
-4.17099e-14
-1.24077e-06
-4.0247e-08
-1.24077e-06
-7.32287e-08
-1.23085e-06
-9.98413e-08
-1.21584e-06
-1.11276e-07
-1.23669e-06
-1.07585e-06
6.74369e-08
-1.14328e-06
5.30872e-08
-1.22234e-06
4.23974e-08
-1.20515e-06
2.40079e-08
-1.21246e-06
-4.5818e-14
-1.21677e-06
-2.40079e-08
-1.21677e-06
-4.23975e-08
-1.21246e-06
-5.30872e-08
-1.20515e-06
-6.74369e-08
-1.22234e-06
-1.14328e-06
3.98376e-08
-1.18312e-06
2.68267e-08
-1.20933e-06
2.21725e-08
-1.2005e-06
1.26275e-08
-1.20291e-06
-2.0439e-14
-1.20414e-06
-1.26275e-08
-1.20414e-06
-2.21725e-08
-1.20291e-06
-2.68267e-08
-1.2005e-06
-3.98376e-08
-1.20933e-06
-1.18312e-06
1.68783e-08
7.54851e-09
7.05094e-09
4.1379e-09
-9.95511e-15
-4.13792e-09
-7.05094e-09
-7.54851e-09
-1.68783e-08
-1.76466e-07
-1.16228e-06
1.33875e-06
-2.20643e-07
-1.21592e-06
1.2601e-06
-1.66281e-07
-1.21296e-06
1.1586e-06
-8.76217e-08
-1.20492e-06
1.12626e-06
1.05418e-13
-1.20391e-06
1.11629e-06
8.76219e-08
-1.20391e-06
1.11629e-06
1.66281e-07
-1.20492e-06
1.12626e-06
2.20643e-07
-1.21296e-06
1.1586e-06
1.76466e-07
-1.21592e-06
1.2601e-06
-1.16228e-06
1.33875e-06
-9.2815e-08
-1.06947e-06
-9.57871e-08
-1.21295e-06
-7.94894e-08
-1.22926e-06
-4.4355e-08
-1.24005e-06
7.68355e-14
-1.24827e-06
4.43552e-08
-1.24827e-06
7.94895e-08
-1.24005e-06
9.57872e-08
-1.22926e-06
9.2815e-08
-1.21295e-06
-1.06947e-06
-5.79073e-08
-1.01156e-06
-5.50022e-08
-1.21585e-06
-4.63412e-08
-1.23792e-06
-2.70186e-08
-1.25938e-06
5.08845e-14
-1.27529e-06
2.70187e-08
-1.27529e-06
4.63413e-08
-1.25938e-06
5.50022e-08
-1.23792e-06
5.79073e-08
-1.21585e-06
-1.01156e-06
-7.47857e-08
-9.36773e-07
-6.17972e-08
-1.22884e-06
-4.82707e-08
-1.25145e-06
-2.75533e-08
-1.28009e-06
3.38359e-14
-1.30284e-06
2.75534e-08
-1.30284e-06
4.82707e-08
-1.28009e-06
6.17972e-08
-1.25145e-06
7.47857e-08
-1.22884e-06
-9.36773e-07
-1.31127e-07
-1.1885e-07
-8.4628e-08
-4.37847e-08
1.01408e-14
4.37847e-08
8.4628e-08
1.1885e-07
1.31127e-07
-6.24165e-08
-9.49263e-07
1.01168e-06
1.87219e-09
-1.32887e-06
1.26458e-06
1.71581e-08
-1.26833e-06
1.25305e-06
8.96382e-09
-1.22861e-06
1.2368e-06
2.13865e-12
-1.22493e-06
1.23389e-06
-8.95998e-09
-1.22493e-06
1.23389e-06
-1.71555e-08
-1.22861e-06
1.23681e-06
-1.87148e-09
-1.26833e-06
1.25305e-06
6.24159e-08
-1.32886e-06
1.26458e-06
-9.49266e-07
1.01168e-06
3.47814e-09
-9.52741e-07
1.68134e-08
-1.3422e-06
1.41481e-08
-1.26567e-06
6.90188e-09
-1.22136e-06
9.83064e-13
-1.21803e-06
-6.90013e-09
-1.21803e-06
-1.41475e-08
-1.22136e-06
-1.68133e-08
-1.26567e-06
-3.47617e-09
-1.3422e-06
-9.52743e-07
2.42683e-08
-9.77009e-07
1.78396e-08
-1.33577e-06
1.03847e-08
-1.25821e-06
5.91673e-09
-1.2169e-06
4.94973e-13
-1.21211e-06
-5.91584e-09
-1.21211e-06
-1.03839e-08
-1.2169e-06
-1.78387e-08
-1.25821e-06
-2.42673e-08
-1.33577e-06
-9.7701e-07
7.77425e-08
-1.05475e-06
5.32841e-08
-1.31131e-06
3.4622e-08
-1.23955e-06
2.08936e-08
-1.20317e-06
2.49445e-13
-1.19122e-06
-2.08932e-08
-1.19122e-06
-3.46216e-08
-1.20317e-06
-5.32837e-08
-1.23955e-06
-7.77421e-08
-1.31131e-06
-1.05475e-06
2.83995e-07
2.3278e-07
1.51832e-07
7.49247e-08
1.61945e-13
-7.49244e-08
-1.51832e-07
-2.3278e-07
-2.83995e-07
-1.10239e-06
-2.56695e-07
1.35909e-06
-8.34847e-07
-2.67545e-07
-5.60479e-07
-2.74368e-07
-2.82427e-07
-2.78052e-07
-3.71017e-09
-2.78716e-07
2.75014e-07
-2.78725e-07
5.53129e-07
-2.78115e-07
8.27648e-07
-2.74519e-07
1.09545e-06
-2.67798e-07
-2.5708e-07
1.35253e-06
-8.19227e-07
-4.42531e-07
1.00506e-06
-6.23484e-07
-4.63287e-07
-4.20764e-07
-4.77088e-07
-2.13377e-07
-4.85439e-07
-2.77935e-09
-4.89314e-07
2.07867e-07
-4.89371e-07
4.15371e-07
-4.85619e-07
6.18266e-07
-4.77414e-07
8.14263e-07
-4.63795e-07
-4.4327e-07
1.00045e-06
-6.1059e-07
-5.82749e-07
7.50808e-07
-4.63799e-07
-6.10078e-07
-3.12385e-07
-6.28503e-07
-1.57982e-07
-6.39842e-07
-2.02536e-09
-6.45271e-07
1.53957e-07
-6.45353e-07
3.08436e-07
-6.40098e-07
4.59979e-07
-6.28957e-07
6.06958e-07
-6.10773e-07
-5.8375e-07
7.47438e-07
-4.48671e-07
-6.87279e-07
5.53201e-07
-3.40135e-07
-7.18614e-07
-2.28782e-07
-7.39856e-07
-1.15586e-07
-7.53038e-07
-1.47064e-09
-7.59386e-07
1.12663e-07
-7.59486e-07
2.2591e-07
-7.53346e-07
3.37351e-07
-7.40398e-07
4.46012e-07
-7.19435e-07
-6.88452e-07
5.50714e-07
-3.2257e-07
-7.64184e-07
3.99475e-07
-2.43924e-07
-7.9726e-07
-1.63868e-07
-8.19912e-07
-8.27573e-08
-8.34149e-07
-1.07612e-09
-8.41068e-07
8.06165e-08
-8.41179e-07
1.6176e-07
-8.3449e-07
2.41868e-07
-8.20506e-07
3.20579e-07
-7.98146e-07
-7.65434e-07
3.97561e-07
-2.42351e-07
-8.26441e-07
3.04608e-07
-1.81539e-07
-8.58072e-07
-1.21273e-07
-8.80178e-07
-6.10897e-08
-8.94332e-07
-8.58305e-10
-9.01299e-07
5.93728e-08
-9.0141e-07
1.19552e-07
-8.9467e-07
1.79807e-07
-8.8076e-07
2.40594e-07
-8.58932e-07
-8.27636e-07
3.02797e-07
-2.05987e-07
-8.84643e-07
2.64188e-07
-1.52115e-07
-9.11943e-07
-1.00608e-07
-9.31686e-07
-5.04022e-08
-9.44537e-07
-7.69198e-10
-9.50932e-07
4.88511e-08
-9.5103e-07
9.90154e-08
-9.44834e-07
1.50444e-07
-9.32189e-07
2.04185e-07
-9.12673e-07
-8.85639e-07
2.62188e-07
-1.96947e-07
-9.42827e-07
2.55131e-07
-1.43972e-07
-9.64918e-07
-9.44682e-08
-9.81189e-07
-4.70926e-08
-9.91913e-07
-7.23566e-10
-9.97301e-07
4.56326e-08
-9.97387e-07
9.2967e-08
-9.92168e-07
1.42392e-07
-9.81614e-07
1.95232e-07
-9.65513e-07
-9.4358e-07
2.53172e-07
-1.95045e-07
-1.0008e-06
2.53021e-07
-1.42561e-07
-1.0174e-06
-9.35275e-08
-1.03022e-06
-4.66146e-08
-1.03883e-06
-7.34187e-10
-1.04318e-06
4.51354e-08
-1.04326e-06
9.20148e-08
-1.03905e-06
1.40987e-07
-1.03059e-06
1.93363e-07
-1.01789e-06
-1.00136e-06
2.5114e-07
-1.93629e-07
-1.05592e-06
2.48743e-07
-1.42389e-07
-1.06864e-06
-9.37875e-08
-1.07882e-06
-4.68653e-08
-1.08575e-06
-7.79284e-10
-1.08927e-06
4.52943e-08
-1.08933e-06
9.21811e-08
-1.08593e-06
1.40729e-07
-1.07913e-06
1.91902e-07
-1.06906e-06
-1.05639e-06
2.46935e-07
-1.90331e-07
-1.10717e-06
2.41588e-07
-1.41079e-07
-1.11789e-06
-9.33763e-08
-1.12653e-06
-4.67814e-08
-1.13234e-06
-7.74996e-10
-1.13527e-06
4.5218e-08
-1.13532e-06
9.17746e-08
-1.13249e-06
1.39423e-07
-1.12678e-06
1.88641e-07
-1.11828e-06
-1.10769e-06
2.39942e-07
-1.84382e-07
-1.15488e-06
2.32083e-07
-1.37378e-07
-1.1649e-06
-9.11954e-08
-1.17271e-06
-4.57373e-08
-1.1778e-06
-6.88196e-10
-1.18032e-06
4.43528e-08
-1.18036e-06
8.9787e-08
-1.17793e-06
1.35928e-07
-1.17292e-06
1.82862e-07
-1.16521e-06
-1.15533e-06
2.30498e-07
-1.77071e-07
-1.20126e-06
2.23459e-07
-1.31807e-07
-1.21016e-06
-8.75651e-08
-1.21695e-06
-4.39311e-08
-1.22143e-06
-6.00795e-10
-1.22365e-06
4.27243e-08
-1.22369e-06
8.63406e-08
-1.22154e-06
1.30545e-07
-1.21713e-06
1.75738e-07
-1.21041e-06
-1.2016e-06
2.22015e-07
-1.68938e-07
-1.24541e-06
2.13084e-07
-1.25836e-07
-1.25326e-06
-8.36163e-08
-1.25917e-06
-4.19499e-08
-1.2631e-06
-5.52058e-10
-1.26505e-06
4.08426e-08
-1.26508e-06
8.24979e-08
-1.2632e-06
1.24691e-07
-1.25932e-06
1.67734e-07
-1.25345e-06
-1.24562e-06
2.11755e-07
-1.606e-07
-1.28724e-06
2.02434e-07
-1.19709e-07
-1.29416e-06
-7.95934e-08
-1.29929e-06
-3.99507e-08
-1.30274e-06
-5.33889e-10
-1.30447e-06
3.88816e-08
-1.3045e-06
7.85199e-08
-1.30284e-06
1.18624e-07
-1.29943e-06
1.59491e-07
-1.29432e-06
-1.28742e-06
2.01291e-07
-1.52105e-07
-1.32679e-06
1.91648e-07
-1.13505e-07
-1.33276e-06
-7.5537e-08
-1.33725e-06
-3.79387e-08
-1.34034e-06
-5.13441e-10
-1.34189e-06
3.69114e-08
-1.34192e-06
7.45109e-08
-1.34043e-06
1.12488e-07
-1.3374e-06
1.51112e-07
-1.33294e-06
-1.32695e-06
1.90635e-07
-1.43635e-07
-1.36391e-06
1.80753e-07
-1.07394e-07
-1.369e-06
-7.15499e-08
-1.3731e-06
-3.59373e-08
-1.37595e-06
-4.46023e-10
-1.37738e-06
3.50428e-08
-1.37741e-06
7.0652e-08
-1.37604e-06
1.0651e-07
-1.37326e-06
1.42807e-07
-1.36924e-06
-1.36413e-06
1.79988e-07
-1.35495e-07
-1.39856e-06
1.70149e-07
-1.0139e-07
-1.4031e-06
-6.75457e-08
-1.40694e-06
-3.38846e-08
-1.40962e-06
-3.2275e-10
-1.41095e-06
3.32385e-08
-1.41097e-06
6.68951e-08
-1.4097e-06
1.00716e-07
-1.40708e-06
1.34786e-07
-1.40331e-06
-1.39882e-06
1.69479e-07
-1.27789e-07
-1.43112e-06
1.60346e-07
-9.55028e-08
-1.43539e-06
-6.35469e-08
-1.4389e-06
-3.18289e-08
-1.44133e-06
-2.15132e-10
-1.44256e-06
3.13955e-08
-1.44258e-06
6.31034e-08
-1.44141e-06
9.50445e-08
-1.43902e-06
1.27312e-07
-1.43558e-06
-1.43137e-06
1.59856e-07
-1.20028e-07
-1.46165e-06
1.50563e-07
-8.97283e-08
-1.46569e-06
-5.96963e-08
-1.46893e-06
-2.98611e-08
-1.47117e-06
-1.23755e-10
-1.4723e-06
2.96105e-08
-1.47232e-06
5.94361e-08
-1.47123e-06
8.94515e-08
-1.46904e-06
1.19728e-07
-1.46585e-06
-1.46187e-06
1.50229e-07
-1.12546e-07
-1.49026e-06
1.41157e-07
-8.41447e-08
-1.49409e-06
-5.59707e-08
-1.4971e-06
-2.79685e-08
-1.49917e-06
-5.18599e-11
-1.50021e-06
2.78613e-08
-1.50023e-06
5.58524e-08
-1.49922e-06
8.40062e-08
-1.49719e-06
1.12377e-07
-1.49422e-06
-1.49044e-06
1.40948e-07
-1.05377e-07
-1.51704e-06
1.32151e-07
-7.87779e-08
-1.52069e-06
-5.2389e-08
-1.52349e-06
-2.61571e-08
-1.5254e-06
-3.23268e-12
-1.52637e-06
2.6147e-08
-1.52638e-06
5.23673e-08
-1.52545e-06
7.87356e-08
-1.52356e-06
1.05304e-07
-1.52079e-06
-1.51717e-06
1.32041e-07
-9.85011e-08
-1.54204e-06
1.23505e-07
-7.36353e-08
-1.54555e-06
-4.89612e-08
-1.54817e-06
-2.44311e-08
-1.54993e-06
2.73507e-11
-1.55083e-06
2.44824e-08
-1.55084e-06
4.90019e-08
-1.54996e-06
7.36575e-08
-1.54822e-06
9.84964e-08
-1.54563e-06
-1.54215e-06
1.2347e-07
-9.19057e-08
-1.56534e-06
1.15208e-07
-6.87052e-08
-1.56876e-06
-4.56788e-08
-1.57119e-06
-2.27838e-08
-1.57283e-06
4.55783e-11
-1.57366e-06
2.28721e-08
-1.57366e-06
4.57582e-08
-1.57285e-06
6.87696e-08
-1.57123e-06
9.19492e-08
-1.56881e-06
-1.56543e-06
1.15232e-07
-8.5576e-08
-1.58701e-06
1.07244e-07
-6.39757e-08
-1.59036e-06
-4.25321e-08
-1.59264e-06
-2.12075e-08
-1.59415e-06
5.76794e-11
-1.59492e-06
2.13205e-08
-1.59493e-06
4.26382e-08
-1.59417e-06
6.40706e-08
-1.59266e-06
8.56562e-08
-1.59039e-06
-1.58709e-06
1.07316e-07
-7.94997e-08
-1.60711e-06
9.96012e-08
-5.94357e-08
-1.61042e-06
-3.95116e-08
-1.61256e-06
-1.96944e-08
-1.61397e-06
6.88903e-11
-1.61468e-06
1.98303e-08
-1.61469e-06
3.9642e-08
-1.61398e-06
5.95577e-08
-1.61258e-06
7.9612e-08
-1.61045e-06
-1.60719e-06
9.97127e-08
-7.36664e-08
-1.62572e-06
9.2272e-08
-5.5075e-08
-1.62901e-06
-3.66087e-08
-1.63103e-06
-1.82387e-08
-1.63234e-06
8.2633e-11
-1.63301e-06
1.84023e-08
-1.63301e-06
3.67677e-08
-1.63235e-06
5.52271e-08
-1.63104e-06
7.3811e-08
-1.62903e-06
-1.6258e-06
9.24191e-08
-6.80668e-08
-1.6429e-06
8.52515e-08
-5.08849e-08
-1.64619e-06
-3.38168e-08
-1.64809e-06
-1.68362e-08
-1.64932e-06
9.98866e-11
-1.64994e-06
1.70344e-08
-1.64994e-06
3.40106e-08
-1.64932e-06
5.10719e-08
-1.6481e-06
6.82455e-08
-1.64621e-06
-1.64298e-06
8.54283e-08
-6.26921e-08
-1.65874e-06
7.85341e-08
-4.6858e-08
-1.66203e-06
-3.11311e-08
-1.66382e-06
-1.54854e-08
-1.66497e-06
1.18944e-10
-1.66555e-06
1.57219e-08
-1.66554e-06
3.13635e-08
-1.66496e-06
4.70829e-08
-1.66382e-06
6.29053e-08
-1.66203e-06
-1.65881e-06
7.87317e-08
-5.75324e-08
-1.67332e-06
7.21095e-08
-4.2988e-08
-1.67657e-06
-2.8549e-08
-1.67826e-06
-1.41869e-08
-1.67933e-06
1.36235e-10
-1.67987e-06
1.44585e-08
-1.67987e-06
2.88174e-08
-1.67932e-06
4.32493e-08
-1.67825e-06
5.7779e-08
-1.67656e-06
-1.67335e-06
7.23213e-08
-5.25764e-08
-1.6867e-06
6.59542e-08
-3.92698e-08
-1.68988e-06
-2.60691e-08
-1.69146e-06
-1.29419e-08
-1.69246e-06
1.48727e-10
-1.69296e-06
1.32392e-08
-1.69296e-06
2.63655e-08
-1.69245e-06
3.95621e-08
-1.69145e-06
5.28558e-08
-1.68985e-06
-1.68668e-06
6.6186e-08
-4.78118e-08
-1.69891e-06
6.00261e-08
-3.56985e-08
-1.70199e-06
-2.36894e-08
-1.70347e-06
-1.17492e-08
-1.7044e-06
1.57233e-10
-1.70487e-06
1.20646e-08
-1.70487e-06
2.40069e-08
-1.70439e-06
3.6018e-08
-1.70346e-06
4.81276e-08
-1.70196e-06
-1.69886e-06
6.03081e-08
-4.32241e-08
-1.70998e-06
5.42944e-08
-3.22657e-08
-1.71295e-06
-2.1403e-08
-1.71433e-06
-1.06022e-08
-1.7152e-06
1.68765e-10
-1.71564e-06
1.09415e-08
-1.71564e-06
2.17478e-08
-1.7152e-06
3.26201e-08
-1.71433e-06
4.35907e-08
-1.71293e-06
-1.70993e-06
5.46619e-08
-3.88048e-08
-1.71989e-06
4.87077e-08
-2.89644e-08
-1.72279e-06
-1.92013e-08
-1.7241e-06
-9.49101e-09
-1.72491e-06
1.93292e-10
-1.72532e-06
9.8794e-09
-1.72532e-06
1.9596e-08
-1.72491e-06
2.93732e-08
-1.72411e-06
3.9243e-08
-1.7228e-06
-1.71991e-06
4.92233e-08
-3.45432e-08
-1.72867e-06
4.33224e-08
-2.57723e-08
-1.73156e-06
-1.70635e-08
-1.7328e-06
-8.39906e-09
-1.73357e-06
2.43188e-10
-1.73396e-06
8.88704e-09
-1.73397e-06
1.75574e-08
-1.73358e-06
2.628e-08
-1.73283e-06
3.50821e-08
-1.7316e-06
-1.72881e-06
4.39772e-08
-3.04447e-08
-1.73645e-06
3.82311e-08
-2.26866e-08
-1.73932e-06
-1.49886e-08
-1.7405e-06
-7.32879e-09
-1.74123e-06
3.12445e-10
-1.7416e-06
7.95524e-09
-1.74161e-06
1.56205e-08
-1.74125e-06
2.33291e-08
-1.74054e-06
3.11003e-08
-1.73938e-06
-1.73662e-06
3.89103e-08
-2.65306e-08
-1.74329e-06
3.33727e-08
-1.97392e-08
-1.74611e-06
-1.30038e-08
-1.74724e-06
-6.30439e-09
-1.74793e-06
3.77136e-10
-1.74829e-06
7.05912e-09
-1.74829e-06
1.37596e-08
-1.74795e-06
2.04954e-08
-1.74727e-06
2.72843e-08
-1.74616e-06
-1.74343e-06
3.40949e-08
-2.28038e-08
-1.74922e-06
2.87337e-08
-1.69359e-08
-1.75198e-06
-1.11182e-08
-1.75306e-06
-5.33672e-09
-1.75371e-06
4.25663e-10
-1.75405e-06
6.18727e-09
-1.75405e-06
1.19652e-08
-1.75373e-06
1.77751e-08
-1.75308e-06
2.36339e-08
-1.75202e-06
-1.74934e-06
2.95455e-08
-1.92453e-08
-1.75428e-06
2.43001e-08
-1.42613e-08
-1.75696e-06
-9.32575e-09
-1.75799e-06
-4.42425e-09
-1.75861e-06
4.59269e-10
-1.75893e-06
5.34174e-09
-1.75894e-06
1.02402e-08
-1.75863e-06
1.51702e-08
-1.75801e-06
2.01449e-08
-1.757e-06
-1.75438e-06
2.51841e-08
-1.58483e-08
-1.75849e-06
2.00615e-08
-1.17108e-08
-1.7611e-06
-7.61953e-09
-1.76208e-06
-3.55942e-09
-1.76267e-06
4.84162e-10
-1.76298e-06
4.52686e-09
-1.76298e-06
8.58427e-09
-1.76268e-06
1.2671e-08
-1.7621e-06
1.68012e-08
-1.76113e-06
-1.75858e-06
2.10033e-08
-1.26079e-08
-1.7619e-06
1.6013e-08
-9.27991e-09
-1.76443e-06
-5.99491e-09
-1.76537e-06
-2.73852e-09
-1.76593e-06
5.028e-10
-1.76622e-06
3.74335e-09
-1.76622e-06
6.99741e-09
-1.76594e-06
1.02784e-08
-1.76538e-06
1.36002e-08
-1.76445e-06
-1.76198e-06
1.69956e-08
-9.51857e-09
-1.76453e-06
1.21488e-08
-6.96399e-09
-1.76698e-06
-4.44869e-09
-1.76788e-06
-1.95931e-09
-1.76842e-06
5.16452e-10
-1.76869e-06
2.9916e-09
-1.76869e-06
5.47917e-09
-1.76843e-06
7.99152e-09
-1.76789e-06
1.0542e-08
-1.767e-06
-1.7646e-06
1.31651e-08
-6.57816e-09
-1.76642e-06
8.46768e-09
-4.76075e-09
-1.7688e-06
-2.97892e-09
-1.76966e-06
-1.22038e-09
-1.77018e-06
5.25983e-10
-1.77044e-06
2.27189e-09
-1.77044e-06
4.02906e-09
-1.77018e-06
5.80852e-09
-1.76967e-06
7.62234e-09
-1.76881e-06
-1.76648e-06
9.50653e-09
-3.78518e-09
-1.7676e-06
4.96704e-09
-2.66917e-09
-1.76992e-06
-1.58468e-09
-1.77075e-06
-5.20922e-10
-1.77124e-06
5.32053e-10
-1.77149e-06
1.5847e-09
-1.77149e-06
2.64749e-09
-1.77125e-06
3.73046e-09
-1.77076e-06
4.84451e-09
-1.76993e-06
-1.76766e-06
6.02248e-09
-1.13961e-09
-1.76811e-06
1.64859e-09
-6.88774e-10
-1.77037e-06
-2.65505e-10
-1.77117e-06
1.39479e-10
-1.77165e-06
5.34983e-10
-1.77189e-06
9.30241e-10
-1.77189e-06
1.33453e-09
-1.77165e-06
1.75669e-09
-1.77118e-06
2.20632e-09
-1.77038e-06
-1.76817e-06
2.71554e-09
1.36006e-09
-1.76798e-06
-1.48783e-09
1.18162e-09
-1.77019e-06
9.79545e-10
-1.77097e-06
7.61572e-10
-1.77143e-06
5.35364e-10
-1.77166e-06
3.09011e-10
-1.77166e-06
9.05878e-11
-1.77143e-06
-1.12232e-10
-1.77097e-06
-2.91725e-10
-1.7702e-06
-1.76804e-06
-4.21858e-10
3.71406e-09
-1.76725e-06
-4.4405e-09
2.94266e-09
-1.76942e-06
2.15101e-09
-1.77018e-06
1.34554e-09
-1.77062e-06
5.32934e-10
-1.77085e-06
-2.79736e-10
-1.77085e-06
-1.0854e-09
-1.77063e-06
-1.87748e-09
-1.77018e-06
-2.64979e-09
-1.76943e-06
-1.76731e-06
-3.38035e-09
5.92366e-09
-1.76597e-06
-7.20987e-09
4.5955e-09
-1.76809e-06
3.24973e-09
-1.76883e-06
1.89183e-09
-1.76927e-06
5.27667e-10
-1.76948e-06
-8.36522e-10
-1.76949e-06
-2.19453e-09
-1.76927e-06
-3.5405e-09
-1.76884e-06
-4.86897e-09
-1.7681e-06
-1.76602e-06
-6.15682e-09
7.99236e-09
-1.76416e-06
-9.80197e-09
6.14274e-09
-1.76624e-06
4.27761e-09
-1.76697e-06
2.40172e-09
-1.76739e-06
5.2029e-10
-1.7676e-06
-1.36115e-09
-1.7676e-06
-3.23706e-09
-1.76739e-06
-5.1022e-09
-1.76697e-06
-6.9517e-09
-1.76625e-06
-1.76421e-06
-8.76205e-09
9.92433e-09
-1.76186e-06
-1.2221e-08
7.58777e-09
-1.7639e-06
5.23712e-09
-1.76462e-06
2.87678e-09
-1.76503e-06
5.11417e-10
-1.76524e-06
-1.85396e-09
-1.76524e-06
-4.21434e-09
-1.76503e-06
-6.56496e-09
-1.76462e-06
-8.90132e-09
-1.76391e-06
-1.76192e-06
-1.11987e-08
1.1725e-08
-1.75911e-06
-1.44732e-08
8.93481e-09
-1.76111e-06
6.13127e-09
-1.76181e-06
3.3187e-09
-1.76222e-06
5.01444e-10
-1.76242e-06
-2.31588e-09
-1.76242e-06
-5.12859e-09
-1.76222e-06
-7.9323e-09
-1.76182e-06
-1.07226e-08
-1.76112e-06
-1.75917e-06
-1.34722e-08
1.34007e-08
-1.75595e-06
-1.65661e-08
1.01888e-08
-1.7579e-06
6.96345e-09
-1.75859e-06
3.72934e-09
-1.75898e-06
4.9064e-10
-1.75918e-06
-2.7482e-09
-1.75918e-06
-5.98271e-09
-1.75898e-06
-9.20866e-09
-1.75859e-06
-1.24213e-08
-1.75791e-06
-1.756e-06
-1.55897e-08
1.49592e-08
-1.7524e-06
-1.85101e-08
1.13555e-08
-1.7543e-06
7.73749e-09
-1.75497e-06
4.11063e-09
-1.75536e-06
4.79111e-10
-1.75555e-06
-3.15266e-09
-1.75555e-06
-6.78027e-09
-1.75536e-06
-1.03995e-08
-1.75497e-06
-1.40049e-08
-1.7543e-06
-1.75244e-06
-1.75607e-08
1.64094e-08
-1.74849e-06
-2.03172e-08
1.24413e-08
-1.75033e-06
8.45751e-09
-1.75099e-06
4.4646e-09
-1.75136e-06
4.66823e-10
-1.75155e-06
-3.53135e-09
-1.75155e-06
-7.52544e-09
-1.75136e-06
-1.15111e-08
-1.75099e-06
-1.54821e-08
-1.75033e-06
-1.74853e-06
-1.93968e-08
1.77604e-08
-1.74425e-06
-2.20007e-08
1.34527e-08
-1.74602e-06
9.12775e-09
-1.74666e-06
4.79324e-09
-1.74703e-06
4.53596e-10
-1.74721e-06
-3.8866e-09
-1.74721e-06
-8.22275e-09
-1.74703e-06
-1.25504e-08
-1.74666e-06
-1.68622e-08
-1.74602e-06
-1.74428e-06
-2.11111e-08
1.90216e-08
-1.7397e-06
-2.35733e-08
1.43962e-08
-1.7414e-06
9.75232e-09
-1.74202e-06
5.09841e-09
-1.74237e-06
4.39077e-10
-1.74255e-06
-4.22097e-09
-1.74255e-06
-8.877e-09
-1.74237e-06
-1.35244e-08
-1.74201e-06
-1.8155e-08
-1.74139e-06
-1.73972e-06
-2.2717e-08
2.02015e-08
-1.73485e-06
-2.50466e-08
1.5278e-08
-1.73647e-06
1.03351e-08
-1.73707e-06
5.38175e-09
-1.73742e-06
4.22781e-10
-1.73759e-06
-4.53703e-09
-1.73759e-06
-9.4929e-09
-1.73741e-06
-1.44401e-08
-1.73706e-06
-1.937e-08
-1.73646e-06
-1.73486e-06
-2.42273e-08
2.13077e-08
-1.72973e-06
-2.64307e-08
1.61036e-08
-1.73127e-06
1.08794e-08
-1.73185e-06
5.64469e-09
-1.73219e-06
4.04163e-10
-1.73235e-06
-4.8373e-09
-1.73235e-06
-1.00749e-08
-1.73218e-06
-1.53039e-08
-1.73184e-06
-2.05154e-08
-1.73125e-06
-1.72972e-06
-2.56523e-08
2.2347e-08
-1.72434e-06
-2.77336e-08
1.6878e-08
-1.7258e-06
1.13885e-08
-1.72636e-06
5.8885e-09
-1.72669e-06
3.82719e-10
-1.72685e-06
-5.12403e-09
-1.72684e-06
-1.0627e-08
-1.72667e-06
-1.61215e-08
-1.72634e-06
-2.15985e-08
-1.72577e-06
-1.72432e-06
-2.70004e-08
2.33258e-08
-1.7187e-06
-2.89642e-08
1.76055e-08
-1.72008e-06
1.18651e-08
-1.72062e-06
6.11439e-09
-1.72094e-06
3.58115e-10
-1.72109e-06
-5.39906e-09
-1.72109e-06
-1.11525e-08
-1.72092e-06
-1.68977e-08
-1.7206e-06
-2.26256e-08
-1.72004e-06
-1.71867e-06
-2.82787e-08
2.42497e-08
-1.71282e-06
-3.01306e-08
1.82903e-08
-1.71412e-06
1.23118e-08
-1.71464e-06
6.32367e-09
-1.71495e-06
3.30315e-10
-1.7151e-06
-5.6638e-09
-1.71509e-06
-1.16542e-08
-1.71493e-06
-1.76367e-08
-1.71461e-06
-2.36021e-08
-1.71408e-06
-1.71277e-06
-2.94937e-08
2.51227e-08
-1.70671e-06
-3.1236e-08
1.89358e-08
-1.70793e-06
1.27311e-08
-1.70844e-06
6.51766e-09
-1.70873e-06
2.99457e-10
-1.70888e-06
-5.91932e-09
-1.70887e-06
-1.21345e-08
-1.70871e-06
-1.83421e-08
-1.70841e-06
-2.45332e-08
-1.70789e-06
-1.70666e-06
-3.06526e-08
2.59486e-08
-1.70038e-06
-3.2283e-08
1.95452e-08
-1.70153e-06
1.31254e-08
-1.70202e-06
6.69774e-09
-1.70231e-06
2.65811e-10
-1.70245e-06
-6.1665e-09
-1.70244e-06
-1.25953e-08
-1.70229e-06
-1.90171e-08
-1.70198e-06
-2.54233e-08
-1.70148e-06
-1.70032e-06
-3.17614e-08
2.67318e-08
-1.69383e-06
-3.32764e-08
2.01221e-08
-1.69492e-06
1.34974e-08
-1.69539e-06
6.86555e-09
-1.69567e-06
2.29925e-10
-1.69581e-06
-6.40591e-09
-1.69581e-06
-1.30384e-08
-1.69565e-06
-1.96643e-08
-1.69536e-06
-2.62757e-08
-1.69487e-06
-1.69377e-06
-3.28228e-08
2.74778e-08
-1.68709e-06
-3.42227e-08
2.06711e-08
-1.68811e-06
1.38504e-08
-1.68857e-06
7.02326e-09
-1.68885e-06
1.9269e-10
-1.68898e-06
-6.63792e-09
-1.68898e-06
-1.34652e-08
-1.68883e-06
-2.02862e-08
-1.68854e-06
-2.70933e-08
-1.68806e-06
-1.68702e-06
-3.38395e-08
2.8193e-08
-1.68015e-06
-3.51293e-08
2.11976e-08
-1.68112e-06
1.41885e-08
-1.68156e-06
7.1735e-09
-1.68183e-06
1.55309e-10
-1.68196e-06
-6.86275e-09
-1.68196e-06
-1.38774e-08
-1.68181e-06
-2.08857e-08
-1.68153e-06
-2.78802e-08
-1.68107e-06
-1.68009e-06
-3.48161e-08
2.88847e-08
-1.67303e-06
-3.60044e-08
2.17075e-08
-1.67394e-06
1.45165e-08
-1.67437e-06
7.31938e-09
-1.67464e-06
1.19121e-10
-1.67476e-06
-7.08082e-09
-1.67476e-06
-1.4277e-08
-1.67462e-06
-2.14662e-08
-1.67434e-06
-2.86409e-08
-1.67389e-06
-1.67297e-06
-3.57579e-08
2.95598e-08
-1.66574e-06
-3.68543e-08
2.22072e-08
-1.66659e-06
1.4839e-08
-1.667e-06
7.46399e-09
-1.66726e-06
8.56707e-11
-1.66739e-06
-7.29222e-09
-1.66738e-06
-1.46659e-08
-1.66724e-06
-2.20315e-08
-1.66697e-06
-2.93798e-08
-1.66654e-06
-1.66568e-06
-3.66685e-08
3.0223e-08
-1.65828e-06
-3.76741e-08
2.27008e-08
-1.65907e-06
1.5158e-08
-1.65946e-06
7.60841e-09
-1.65971e-06
5.67629e-11
-1.65983e-06
-7.49441e-09
-1.65983e-06
-1.50425e-08
-1.65969e-06
-2.25825e-08
-1.65943e-06
-3.00992e-08
-1.65903e-06
-1.65824e-06
-3.75395e-08
3.08815e-08
-1.65069e-06
-3.84774e-08
2.31779e-08
-1.65136e-06
1.546e-08
-1.65174e-06
7.74508e-09
-1.652e-06
3.41788e-11
-1.65212e-06
-7.67589e-09
-1.65212e-06
-1.53887e-08
-1.65198e-06
-2.31043e-08
-1.65172e-06
-3.08062e-08
-1.65133e-06
-1.65066e-06
-3.83926e-08
3.15267e-08
-1.64267e-06
-3.95467e-08
2.35967e-08
-1.64343e-06
1.57151e-08
-1.64386e-06
7.85905e-09
-1.64414e-06
1.51498e-11
-1.64428e-06
-7.82683e-09
-1.64428e-06
-1.56775e-08
-1.64413e-06
-2.35531e-08
-1.64384e-06
-3.14869e-08
-1.64339e-06
-1.64257e-06
-3.95713e-08
3.21419e-08
-1.63421e-06
-4.05968e-08
2.40143e-08
-1.6353e-06
1.59798e-08
-1.63583e-06
7.97949e-09
-1.63614e-06
-8.37316e-12
-1.63629e-06
-7.99471e-09
-1.63629e-06
-1.599e-08
-1.63613e-06
-2.40144e-08
-1.63582e-06
-3.21214e-08
-1.63529e-06
-1.63416e-06
-4.05343e-08
3.27008e-08
-1.62604e-06
-4.08694e-08
2.45091e-08
-1.62711e-06
1.63242e-08
-1.62764e-06
8.15066e-09
-1.62797e-06
-1.64528e-11
-1.62812e-06
-8.18249e-09
-1.62812e-06
-1.6352e-08
-1.62797e-06
-2.45267e-08
-1.62764e-06
-3.26923e-08
-1.62712e-06
-1.62608e-06
-4.07696e-08
3.32991e-08
-1.61789e-06
-4.14511e-08
2.49977e-08
-1.61881e-06
1.66683e-08
-1.61931e-06
8.33462e-09
-1.61963e-06
1.74681e-12
-1.61979e-06
-8.32944e-09
-1.61979e-06
-1.66578e-08
-1.61964e-06
-2.49775e-08
-1.61932e-06
-3.32655e-08
-1.61883e-06
-1.61793e-06
-4.14134e-08
3.3898e-08
-1.6095e-06
-4.22912e-08
2.54432e-08
-1.61036e-06
1.69735e-08
-1.61084e-06
8.49977e-09
-1.61116e-06
2.5487e-11
-1.61132e-06
-8.44751e-09
-1.61132e-06
-1.69175e-08
-1.61117e-06
-2.5382e-08
-1.61086e-06
-3.38323e-08
-1.61038e-06
-1.60954e-06
-4.22279e-08
3.45399e-08
-1.6009e-06
-4.3139e-08
2.59158e-08
-1.60173e-06
1.72915e-08
-1.60222e-06
8.66911e-09
-1.60254e-06
4.7741e-11
-1.6027e-06
-8.57305e-09
-1.6027e-06
-1.71939e-08
-1.60255e-06
-2.58164e-08
-1.60224e-06
-3.44392e-08
-1.60176e-06
-1.60094e-06
-4.30396e-08
3.52279e-08
-1.59212e-06
-4.40106e-08
2.64299e-08
-1.59293e-06
1.76376e-08
-1.59343e-06
8.85137e-09
-1.59375e-06
6.79751e-11
-1.59391e-06
-8.7153e-09
-1.59392e-06
-1.75013e-08
-1.59376e-06
-2.62936e-08
-1.59344e-06
-3.50924e-08
-1.59296e-06
-1.59215e-06
-4.3878e-08
3.59666e-08
-1.58314e-06
-4.49401e-08
2.69838e-08
-1.58395e-06
1.80104e-08
-1.58445e-06
9.046e-09
-1.58479e-06
8.57934e-11
-1.58495e-06
-8.87454e-09
-1.58496e-06
-1.78394e-08
-1.5848e-06
-2.68138e-08
-1.58447e-06
-3.57984e-08
-1.58398e-06
-1.58317e-06
-4.47754e-08
3.67623e-08
-1.57396e-06
-4.59424e-08
2.75798e-08
-1.57477e-06
1.84106e-08
-1.57528e-06
9.25302e-09
-1.57563e-06
1.01016e-10
-1.5758e-06
-9.05128e-09
-1.5758e-06
-1.82097e-08
-1.57564e-06
-2.73805e-08
-1.5753e-06
-3.65654e-08
-1.57479e-06
-1.57399e-06
-4.57488e-08
3.76247e-08
-1.56456e-06
-4.70302e-08
2.82243e-08
-1.56537e-06
1.88419e-08
-1.5659e-06
9.47425e-09
-1.56626e-06
1.13633e-10
-1.56644e-06
-9.24737e-09
-1.56644e-06
-1.86162e-08
-1.56627e-06
-2.80005e-08
-1.56591e-06
-3.74037e-08
-1.56539e-06
-1.56458e-06
-4.68125e-08
3.85655e-08
-1.55491e-06
-4.8218e-08
2.89262e-08
-1.55573e-06
1.93102e-08
-1.55629e-06
9.71245e-09
-1.55666e-06
1.23604e-10
-1.55685e-06
-9.4657e-09
-1.55685e-06
-1.90648e-08
-1.55667e-06
-2.86831e-08
-1.5563e-06
-3.83257e-08
-1.55574e-06
-1.55493e-06
-4.7982e-08
3.95993e-08
-1.54498e-06
-4.95242e-08
2.9696e-08
-1.54583e-06
1.98222e-08
-1.54641e-06
9.97096e-09
-1.54681e-06
1.3074e-10
-1.54701e-06
-9.71001e-09
-1.54701e-06
-1.95628e-08
-1.54682e-06
-2.94393e-08
-1.54642e-06
-3.93464e-08
-1.54584e-06
-1.545e-06
-4.92761e-08
4.07433e-08
-1.53475e-06
-5.09711e-08
3.05464e-08
-1.53563e-06
2.03862e-08
-1.53625e-06
1.02537e-08
-1.53668e-06
1.34771e-10
-1.53689e-06
-9.98472e-09
-1.53689e-06
-2.0119e-08
-1.53668e-06
-3.02822e-08
-1.53626e-06
-4.04835e-08
-1.53564e-06
-1.53476e-06
-5.07171e-08
4.20189e-08
-1.52419e-06
-5.25864e-08
3.14927e-08
-1.5251e-06
2.1012e-08
-1.52577e-06
1.05654e-08
-1.52623e-06
1.35481e-10
-1.52646e-06
-1.0295e-08
-1.52646e-06
-2.07436e-08
-1.52623e-06
-3.12275e-08
-1.52577e-06
-4.17585e-08
-1.52511e-06
-1.52419e-06
-5.23326e-08
4.34525e-08
-1.51323e-06
-5.4405e-08
3.25539e-08
-1.5142e-06
2.17119e-08
-1.51493e-06
1.09119e-08
-1.51543e-06
1.32772e-10
-1.51568e-06
-1.0647e-08
-1.51568e-06
-2.14489e-08
-1.51543e-06
-3.22943e-08
-1.51493e-06
-4.31977e-08
-1.5142e-06
-1.51323e-06
-5.4157e-08
4.50764e-08
-1.50184e-06
-5.64698e-08
3.37531e-08
-1.50288e-06
2.25005e-08
-1.50368e-06
1.13004e-08
-1.50423e-06
1.26672e-10
-1.50451e-06
-1.10477e-08
-1.50451e-06
-2.22496e-08
-1.50423e-06
-3.35055e-08
-1.50367e-06
-4.48334e-08
-1.50287e-06
-1.50183e-06
-5.62332e-08
4.69312e-08
-1.48994e-06
-5.88347e-08
3.51187e-08
-1.49107e-06
2.33958e-08
-1.49195e-06
1.17397e-08
-1.49258e-06
1.17337e-10
-1.49289e-06
-1.15056e-08
-1.49289e-06
-2.31634e-08
-1.49257e-06
-3.48892e-08
-1.49195e-06
-4.6706e-08
-1.49106e-06
-1.48992e-06
-5.86151e-08
4.90684e-08
-1.47744e-06
-6.15699e-08
3.66862e-08
-1.47869e-06
2.44198e-08
-1.47969e-06
1.22403e-08
-1.4804e-06
1.05086e-10
-1.48075e-06
-1.20306e-08
-1.48075e-06
-2.42115e-08
-1.48039e-06
-3.64804e-08
-1.47968e-06
-4.88662e-08
-1.47867e-06
-1.47741e-06
-6.13724e-08
5.15553e-08
-1.46422e-06
-6.47695e-08
3.85006e-08
-1.46563e-06
2.55998e-08
-1.46679e-06
1.28152e-08
-1.46761e-06
9.04051e-11
-1.46803e-06
-1.26347e-08
-1.46802e-06
-2.54205e-08
-1.4676e-06
-3.83231e-08
-1.46677e-06
-5.13804e-08
-1.46561e-06
-1.4642e-06
-6.45981e-08
5.44834e-08
-1.45014e-06
-6.85642e-08
4.06224e-08
-1.45177e-06
2.69721e-08
-1.45314e-06
1.34816e-08
-1.45412e-06
7.39736e-11
-1.45462e-06
-1.33339e-08
-1.45462e-06
-2.68251e-08
-1.45411e-06
-4.04765e-08
-1.45312e-06
-5.4339e-08
-1.45175e-06
-1.45011e-06
-6.84218e-08
5.79853e-08
-1.43498e-06
-7.31441e-08
4.31397e-08
-1.43692e-06
2.85907e-08
-1.43859e-06
1.42656e-08
-1.4398e-06
5.66522e-11
-1.44041e-06
-1.41523e-08
-1.44041e-06
-2.84777e-08
-1.43979e-06
-4.3027e-08
-1.43857e-06
-5.78729e-08
-1.43691e-06
-1.43495e-06
-7.3032e-08
6.22674e-08
-1.41845e-06
-7.87951e-08
4.6197e-08
-1.42085e-06
3.05489e-08
-1.42294e-06
1.52138e-08
-1.42446e-06
3.94942e-11
-1.42524e-06
-1.51347e-08
-1.42523e-06
-3.04696e-08
-1.42445e-06
-4.6117e-08
-1.42293e-06
-6.21865e-08
-1.42084e-06
-1.41843e-06
-7.87127e-08
6.76685e-08
-1.40017e-06
-8.59523e-08
5.00502e-08
-1.40324e-06
3.30227e-08
-1.40591e-06
1.6417e-08
-1.40786e-06
2.36598e-11
-1.40884e-06
-1.63694e-08
-1.40884e-06
-3.29743e-08
-1.40785e-06
-5.00004e-08
-1.4059e-06
-6.76164e-08
-1.40322e-06
-1.40015e-06
-8.58969e-08
7.47432e-08
-1.37965e-06
-9.52631e-08
5.5148e-08
-1.38364e-06
3.63312e-08
-1.38709e-06
1.80417e-08
-1.38957e-06
1.03399e-11
-1.39081e-06
-1.80206e-08
-1.39081e-06
-3.63088e-08
-1.38956e-06
-5.51234e-08
-1.38709e-06
-7.47151e-08
-1.38363e-06
-1.37963e-06
-9.523e-08
8.4294e-08
-1.35637e-06
-1.07574e-07
6.21621e-08
-1.36151e-06
4.09488e-08
-1.36588e-06
2.03321e-08
-1.36895e-06
5.77126e-13
-1.37048e-06
-2.03304e-08
-1.37048e-06
-4.09454e-08
-1.36895e-06
-6.21556e-08
-1.36588e-06
-8.4283e-08
-1.3615e-06
-1.35636e-06
-1.07557e-07
9.71582e-08
-1.32981e-06
-1.2372e-07
7.17002e-08
-1.33605e-06
4.72465e-08
-1.34143e-06
2.3466e-08
-1.34517e-06
-4.92246e-12
-1.34701e-06
-2.34752e-08
-1.34701e-06
-4.72535e-08
-1.34517e-06
-7.17035e-08
-1.34143e-06
-9.71562e-08
-1.33605e-06
-1.32981e-06
-1.23711e-07
1.12963e-07
-1.29857e-06
-1.44205e-07
8.28163e-08
-1.3059e-06
5.446e-08
-1.31307e-06
2.71024e-08
-1.31781e-06
-6.07105e-12
-1.3199e-06
-2.71138e-08
-1.3199e-06
-5.44692e-08
-1.31781e-06
-8.28216e-08
-1.31307e-06
-1.12962e-07
-1.30591e-06
-1.29857e-06
-1.44197e-07
1.24324e-07