/*--------------------------------*- C++ -*----------------------------------*\
  =========                 |
  \\      /  F ield         | OpenFOAM: The Open Source CFD Toolbox
   \\    /   O peration     | Website:  https://openfoam.org
    \\  /    A nd           | Version:  8
     \\/     M anipulation  |
\*---------------------------------------------------------------------------*/
FoamFile
{
    version     2.0;
    format      ascii;
    class       volScalarField;
    location    "5.45";
    object      p;
}
// * * * * * * * * * * * * * * * * * * * * * * * * * * * * * * * * * * * * * //

dimensions      [1 -1 -2 0 0 0 0];

internalField   nonuniform List<scalar> 
9150
(
-204.279
-205.289
-205.906
-206.375
-206.607
-206.616
-206.376
-205.903
-205.281
-204.273
-224.332
-224.85
-225.27
-225.602
-225.78
-225.754
-225.583
-225.263
-224.844
-224.327
-244.224
-244.507
-244.758
-244.978
-245.099
-245.089
-244.976
-244.76
-244.505
-244.221
-263.962
-264.138
-264.306
-264.459
-264.541
-264.548
-264.464
-264.305
-264.137
-263.96
-283.583
-283.764
-283.901
-284.028
-284.086
-284.09
-284.028
-283.9
-283.763
-283.582
-118.255
-119.078
-118.808
-118.398
-118.226
-118.223
-118.402
-118.803
-119.079
-118.263
-133.764
-134.471
-134.648
-134.708
-134.62
-134.641
-134.748
-134.702
-134.523
-133.804
-150.256
-151.006
-151.309
-151.668
-151.725
-151.737
-151.677
-151.317
-151.01
-150.259
-167.126
-168.264
-168.714
-169.345
-169.517
-169.51
-169.342
-168.701
-168.251
-167.111
-184.126
-186.192
-186.947
-187.647
-187.909
-187.914
-187.642
-186.939
-186.188
-184.121
-24.4905
-26.0709
-28.0494
-29.1806
-29.7606
-29.7014
-29.1055
-27.9683
-26.0219
-24.4223
-44.9792
-45.2235
-46.1779
-46.4981
-46.9818
-47.031
-46.6008
-46.2561
-45.2248
-44.9505
-65.0409
-64.9184
-65.969
-65.5936
-66.0167
-66.0255
-65.4658
-65.9075
-64.8889
-65.0036
-87.8671
-85.056
-86.0351
-84.5243
-84.6702
-84.7156
-84.4972
-86.079
-85.0354
-87.8692
-113.645
-104.01
-103.55
-102.134
-101.73
-101.754
-102.111
-103.572
-103.995
-113.629
1040.64
1040.5
1039.84
1038.61
1037.08
1035.4
1033.7
1031.91
1032.73
1033.05
1019.67
1019.56
1018.78
1017.3
1015.67
1014.36
1013.21
1021.59
1020.33
1013.73
998.776
998.786
998.105
997.06
997.072
1000.22
1001.16
1002.03
1000.26
996.193
980.333
981.881
981.112
980.905
984.16
984.869
981.016
981.732
980.142
978.029
964.254
965.594
963.432
966.783
969.841
960.586
960.44
959.596
958.305
956.853
944.525
944.813
945.123
950.515
941.937
941.028
939.777
938.301
937.005
935.892
922.905
922.165
930.667
925.737
923.847
921.783
919.522
918.231
918.111
915.429
903.035
907.53
908.917
906.367
905.19
903.811
899.922
898.657
896.624
895.031
886.93
887.901
887.14
887.018
886.37
882.867
881.135
878.419
876.932
875.041
868.617
866.824
866.995
867.939
865.787
865.244
862.06
859.606
857.752
855.641
852.051
849.298
848.22
849.148
845.761
844.629
842.123
839.362
838.574
836.068
837.002
835.002
828.493
827.488
825.439
823.761
820.52
819.098
818.317
817.148
820.36
816.358
814.556
809.563
804.98
803.044
800.459
799.028
798.201
797.456
803.398
800.975
797.493
794.93
790.825
786.612
783.068
781.278
780.597
779.896
786.147
784.735
782.722
780.487
778.967
776.306
773.597
771.005
768.658
765.127
769.259
768.344
767.261
766.228
764.9
764.382
762.485
761.047
759.583
754.417
752.393
751.702
750.962
750.255
749.655
748.226
747.009
747.644
744.469
741.73
733.292
733.287
733.085
732.869
732.805
732.706
732.061
731.266
730.905
730.934
713.548
714.311
714.657
715.199
716.041
716.523
717.079
718.129
719.887
722.267
694.268
695.314
696.363
697.64
698.787
699.562
700.459
701.686
703.996
707.633
675.011
675.839
676.924
679.462
679.872
680.069
680.982
682.767
684.66
687.928
655.95
656.244
656.922
658.125
658.554
657.328
656.065
656.423
658.795
661.435
639.3
637.911
637.19
635.848
633.213
630.284
625.358
621.509
619.99
617.932
622.954
618.655
616.252
612.624
608.318
602.624
595.837
593.816
594.158
596.439
601.954
596.209
592.196
588.121
583.944
580.298
578.862
576.246
575.699
579.331
574.159
573.554
567.555
564.82
559.696
555.793
554.6
551.809
545.05
558.502
553.463
549.343
545.065
539.796
536.436
533.094
530.758
526.938
523.821
525.144
532.916
528.606
524.746
520.643
521.968
519.959
515.213
510.891
508.784
508.299
512.475
507.582
503.829
501.398
510.04
508.614
504.177
500.9
499.723
499.935
491.41
486.496
486.011
488.182
490.202
492.989
494.973
495.339
493.647
493.115
475.401
481.123
480.612
477.594
481.239
482.014
482.347
483.188
483.504
477.697
464.941
462.75
464.135
464.76
466.451
467.562
468.598
469.013
467.78
466.137
450.03
447.542
449.277
449.795
451.222
452.573
453.802
455.019
456.922
456.414
443.763
441.573
436.891
435.096
435.073
436.632
439.188
441.99
444.626
446.962
439.551
437.956
428.27
423.022
422.159
422.863
424.957
428.025
431.939
434.596
425.907
420.969
416.581
413.882
412.44
412.447
413.42
415.154
415.798
418.241
413.757
408.909
405.487
403.156
401.246
401.469
401.58
400.841
400.112
399.453
395.799
392.718
390.256
388.446
387.321
386.238
389.364
385.438
385.329
383.728
374.668
372.066
370.001
370.23
370.969
371.374
371.265
370.972
371.048
370.899
350.874
353.9
358.651
360.031
355.541
354.681
355.155
355.449
355.985
357.486
337.75
339.888
341.974
343.747
344.173
338.909
339.662
339.606
340.214
341.937
323.514
323.815
321.409
322.643
324.583
322.657
323.706
323.736
324.081
323.638
299.683
302.624
302.695
301.84
302.385
303.488
303.255
303.239
303.287
303.738
279.348
277.269
278.343
278.324
278.35
280.177
278.891
277.181
275.933
281.257
261.588
260.231
259.985
261.407
259.493
265.88
258.331
259.444
263.53
256.745
247.813
243.864
243.586
243.202
237.675
233.508
226.411
217.451
222.3
228.088
239.387
236.019
229.85
221.696
214.952
210.112
210.724
210.222
210.687
214.968
230.059
219.772
210.592
209.078
209.746
210.231
209.444
208.383
208.584
211.254
212.556
208.877
208.058
207.642
207.76
208.112
209.219
210.928
212.064
214.344
189.616
187.942
192.635
196.736
195.69
193.981
200.224
206.139
208.166
208.218
158.574
159.225
158.046
162.219
163.249
166.331
169.45
171.704
172.36
169.778
115.619
110.983
107.378
111.863
114.022
113.251
114.732
114.376
108.03
90.4447
90.6394
72.0928
67.2931
74.1514
84.5433
94.0658
92.3273
80.2294
75.0047
43.6742
77.9877
54.126
54.0103
70.6173
79.1452
80.9305
78.572
71.8352
81.582
47.316
59.6423
51.1831
60.9113
70.7118
78.4167
79.8226
75.4674
65.94
69.4464
58.0045
42.4823
45.3235
53.5961
60.3218
61.9592
65.5417
60.1555
60.2119
61.0392
59.7744
23.1996
35.6772
49.9578
56.5547
56.5314
56.6632
56.361
55.8514
55.8382
56.7272
13.0487
27.4926
46.5345
53.7308
55.5617
57.1737
58.4373
59.7937
58.185
54.3579
0.613504
10.3979
35.6541
55.301
62.9226
65.5154
74.6597
67.93
73.6092
54.8589
-1.54255
1.30009
20.6331
52.4286
72.7462
76.3304
79.861
76.6142
71.0652
66.8645
-1.36317
-0.28444
6.60787
33.6283
66.6466
81.835
80.7396
78.5952
74.3855
70.0567
-0.730179
-1.36279
0.43331
12.4411
52.2744
86.2165
76.3628
73.5055
69.5236
65.7942
-0.476169
-0.179762
-0.75947
1.52356
36.5031
82.1076
72.6845
65.7185
60.1925
57.0777
-0.276901
-0.251545
-0.542557
0.939976
19.3028
59.9868
63.419
57.4005
50.2922
48.4432
-0.504347
-0.59271
-0.182862
2.86438
13.0738
50.005
54.5118
31.5809
19.4946
23.5108
-0.737077
-0.732132
-0.646178
1.19887
13.7237
46.5063
21.9785
17.2195
9.60915
4.86175
-0.897809
-0.945355
-1.15464
-1.84553
46.2053
16.7717
9.86987
5.61349
2.94367
3.457
-0.985194
-1.05776
-1.07617
-1.26557
41.2561
16.6165
10.0479
2.35655
3.92382
0.371691
-0.938522
-0.963406
-0.905782
-0.913571
32.9273
24.5188
6.99365
1.45363
3.44446
-0.216354
-0.888672
-0.94538
-0.518948
-0.516895
28.0744
25.0796
0.312028
-1.01087
-2.1224
-1.14262
-1.01605
-1.03458
-0.717597
-0.842398
26.6599
25.6909
-1.11138
-1.60481
-1.40686
-1.24541
-1.06769
-0.97618
-0.92441
-0.940062
23.7643
28.1363
-2.01635
-1.31302
-1.28771
-1.28187
-1.10803
-1.09766
-1.03305
-1.04217
28.2583
23.6124
-1.91606
-1.27221
-1.34624
-1.35548
-1.24296
-1.24442
-1.17741
-1.19448
28.0373
23.4412
-1.58186
-1.38376
-1.40218
-1.40623
-1.3076
-1.30884
-1.31053
-1.30668
29.6485
20.8766
-1.37442
-1.40703
-1.4156
-1.41992
-1.3294
-1.33239
-1.36361
-1.4136
35.648
15.5646
-1.32931
-1.42307
-1.4369
-1.44238
-1.34733
-1.33108
-1.31328
-1.22638
9.72234
38.8356
-1.56124
-1.51298
-1.49885
-1.48528
-1.37686
-1.36053
-1.33466
-1.25072
10.3815
39.5509
-1.61249
-1.53907
-1.52342
-1.50755
-1.42813
-1.42494
-1.43514
-1.51021
33.2506
15.8942
-1.47352
-1.50524
-1.51881
-1.52077
-1.47235
-1.46867
-1.46374
-1.49833
22.3188
27.0076
-1.59438
-1.51288
-1.52359
-1.52163
-1.51182
-1.51151
-1.51495
-1.6123
28.0906
20.8827
-1.55637
-1.49565
-1.52975
-1.52876
-1.54006
-1.53505
-1.53293
-1.57501
22.8527
24.5297
-1.58838
-1.53802
-1.56139
-1.56513
-1.56042
-1.55584
-1.5532
-1.52257
20.669
24.2883
-1.54541
-1.57976
-1.5868
-1.59534
-1.57923
-1.57709
-1.57761
-1.50222
21.8244
20.3466
-1.52489
-1.60476
-1.6063
-1.61275
-1.60096
-1.60368
-1.60948
-1.55063
24.9216
14.3261
-1.52705
-1.61007
-1.61808
-1.62412
-1.62636
-1.63022
-1.63681
-1.6271
23.8196
13.1764
-1.59755
-1.63612
-1.64503
-1.65448
-1.64533
-1.64081
-1.63476
-1.68908
14.1706
21.282
-1.77462
-1.69644
-1.68843
-1.69193
-1.67297
-1.6635
-1.6585
-1.78764
10.8508
23.183
-1.88033
-1.73215
-1.71937
-1.72011
-1.71192
-1.70539
-1.70882
-1.84719
16.0738
13.9634
-1.87306
-1.74534
-1.74242
-1.74567
-1.74339
-1.71885
-1.71344
-1.7842
13.2877
12.7317
-1.87069
-1.77528
-1.76915
-1.7703
-1.76815
-1.75729
-1.7577
-1.88189
10.8947
9.72122
-1.8781
-1.78353
-1.78242
-1.78264
-1.79654
-1.7941
-1.79263
-2.04267
8.48731
5.60785
-2.03731
-1.78038
-1.7921
-1.79274
-1.82323
-1.81975
-1.82325
-1.83511
4.44113
5.09558
-2.09663
-1.81959
-1.81044
-1.80993
-1.83963
-1.8406
-1.90364
-1.44956
2.96722
3.80068
-2.50416
-1.90799
-1.83078
-1.83109
-1.85649
-1.85841
-2.03425
-1.87821
0.290283
1.51128
-1.49237
-1.96865
-1.84609
-1.84714
-1.86987
-1.86961
-2.19876
-1.14814
-0.254704
0.158768
-1.41921
-2.34292
-1.8716
-1.86987
-1.88631
-1.88141
-3.41648
-1.62824
-0.449611
-0.510587
-1.71952
-3.22422
-1.88214
-1.88781
-1.90253
-2.24565
-4.90509
-3.3242
-1.83397
-1.14533
-1.5738
-3.90974
-2.50002
-1.9072
-1.92584
-3.64036
-4.59913
-4.95875
-5.59094
-6.03642
-6.27163
-6.26159
-4.30304
-1.93147
-2.76908
-9.62813
-13.0824
-14.8456
-15.5231
-15.6735
-14.9787
-12.8787
-9.39695
-2.69912
1032.64
1032.57
1033.24
1033.51
1033.74
1034
1034.33
1034.78
1035.25
1035.61
1035.94
1036.29
1036.41
1036.95
1037.46
1038.25
1038.21
1037.56
1036.95
1036.23
1035.35
1034.68
1034.54
1035.01
1036.05
1037.67
1039.78
1042.13
1044.12
1045.16
1044.97
1044.2
1043.69
1044.46
1045.58
1047.08
1048.07
1048.64
1048.19
1048.23
1013.12
1013.11
1013.6
1013.9
1014.08
1014.34
1014.61
1015.13
1015.59
1015.87
1016.24
1016.47
1016.88
1017.2
1017.52
1017.5
1017.49
1017.01
1016.5
1015.96
1015.09
1014.1
1013.49
1013.63
1014.37
1015.52
1017.21
1019.34
1021.38
1022.99
1024.82
1026.21
1026.94
1027.84
1028.68
1028.23
1029.63
1029.8
1030.07
1030.24
995.212
994.725
994.535
994.418
994.446
994.537
994.756
995.164
996.041
996.418
996.527
996.975
997.238
997.536
998.266
997.477
997.033
996.58
996.164
995.494
994.46
992.611
990.522
990.308
990.887
991.487
992.902
995.323
998.443
1001.82
1005.02
1007.81
1010.92
1011.87
1012.77
1013.45
1013.52
1012.65
1012.99
1013.74
976.621
975.569
974.948
974.576
974.426
974.522
974.875
975.441
976.286
976.571
976.937
977.383
977.465
978.218
978.269
977.463
976.81
976.337
976.104
975.723
975.182
974.23
974.116
971.184
970.406
971.492
973.047
973.981
976.503
980.249
985.095
988.834
990.828
991.78
992.691
993.294
992.541
992.741
992.888
992.773
955.682
954.786
954.144
953.812
953.852
954.125
954.596
955.571
956.3
956.917
957.383
957.794
958.41
958.988
958.845
958.647
958.343
958.402
958.66
958.812
958.421
957.719
956.245
954.785
953.455
953.861
955.401
957.142
959.861
961.536
966.09
970.17
971.363
971.875
972.228
972.57
972.87
973.091
973.198
973.391
934.687
933.8
933.263
932.985
933.008
933.638
934.437
935.275
936.226
937.056
937.728
938.47
939.428
940.12
940.203
940.272
940.152
940.417
941.022
941.621
941.803
942.204
941.276
940.533
939.511
938.935
940.061
942.04
944.449
945.407
948.715
951.74
952.281
952.596
952.825
953.015
953.249
953.487
953.579
954.552
914.068
913.302
912.488
912.319
912.361
912.737
913.558
914.508
915.539
916.686
917.85
918.975
919.984
920.613
920.997
921.508
921.952
922.371
923.182
924.063
925.177
927.36
927.716
927.257
926.253
925.878
925.883
926.528
926.303
928.912
931.332
932.515
933.969
932.677
932.928
933.261
933.73
934.273
934.523
935.688
893.58
892.574
891.892
891.545
890.972
890.977
891.363
892.219
893.601
894.786
895.775
896.845
897.851
899.731
901.355
902.747
904.643
905.626
905.58
906.471
907.715
911.907
911.833
911.179
910.749
911.836
909.6
910.032
910.445
910.351
911.011
911.897
911.52
910.569
912.363
913.182
914.15
915.218
915.848
917.281
873.411
871.916
870.928
870.22
868.917
867.611
867.871
867.724
866.934
868.334
870.436
873.018
875.849
880.485
883.98
886.336
887.754
887.581
888.317
888.67
889.07
889.586
890.436
891.49
891.448
890.871
890.617
890.504
890.342
892.133
898.462
891.028
887.37
887.987
892.038
894.789
895.319
897.191
898.161
899.479
853.704
853.566
851.686
849.385
846.722
845.856
844.621
842.74
840.55
841.291
843.329
846.244
850.345
855.011
859.911
860.942
863.816
864.791
865.425
866.378
867.757
868.652
869.568
870.346
870.786
870.955
870.876
871.056
873.03
877.583
877.676
875.111
870.817
869.233
874.041
878.411
879.851
880.696
882.228
882.336
835.595
833.6
830.943
829.345
827.382
824.297
820.58
816.758
813.144
813.56
815.452
818.281
822.274
830.868
835.551
834.495
834.505
836.439
839.226
842.03
844.57
847.188
848.196
849.345
850.286
851.084
852.093
854.991
855.288
857.95
858.837
858.155
859.248
860.866
862.867
860.04
861.846
863.487
864.888
865.097
815.563
813.487
810.825
807.436
803.6
799.681
795.568
791.441
790.496
793.486
795.631
801.722
802.193
807.762
809.972
813.424
811.831
809.146
811.721
815.104
819.193
824.112
827.981
829.091
830.086
831.22
832.439
833.501
834.936
835.169
835.987
835.801
843.802
847.564
846.656
842.166
842.656
843.81
844.741
845.098
796.152
794.3
791.604
788.281
783.667
777.558
770.412
763.474
761.754
768.498
774.049
777.114
775.649
773.843
773.213
771.356
772.112
773.402
774.779
779.699
791.57
799.771
804.545
809.658
810.959
811.98
813.19
813.354
813.1
814.237
813.631
820.863
826.505
825.781
824.583
822.748
821.437
822.093
822.956
824.213
778.706
777.01
774.798
771.118
767.555
760.29
751.151
740.847
731.969
732.539
737.462
735.945
723.99
717.822
709.388
710.435
721.75
729.754
738.878
734.547
745.333
765.206
775.516
782.797
788.709
792.449
794.388
793.408
791.534
805.558
801.537
798.003
804.489
805.132
804.103
801.337
800.632
800.729
801.279
801.749
763.71
762.293
760.441
758.141
754.901
749.263
739.555
725.406
712.566
706.927
703.597
693.993
684.163
678.48
683.821
682.225
676.024
691.551
682.651
710.941
705.204
723.477
740.77
753.144
764.782
774.009
777.171
774.663
772.392
779.035
778.729
779.679
782.116
783.035
781.992
782.3
779.931
780.335
780.689
780.871
752.107
749.8
747.949
745.772
742.804
739.361
731.176
717.092
714.7
696.13
678.422
667.599
667.318
664.741
663.038
661.805
659.92
660.03
667.006
681.405
687.613
695.435
711.217
727.406
743.917
752.643
754.427
753.584
754.841
758.284
759.391
758.931
761.009
765.682
765.215
768.526
765.896
763.541
762.739
761.104
739.395
738.113
736.743
734.972
732.269
729.873
724.969
718.718
706.17
694.074
666.239
661.812
659.175
657.078
655.396
655.291
655.547
656.289
660.385
664.891
673.374
684.765
697.086
709.823
725.039
731.67
734.685
738.708
740.861
743.462
745.584
747.563
746.12
743.876
746.143
746.481
745.106
746.623
743.394
746.835
731.308
732.395
732.662
731.857
729.64
727.449
723.247
710.762
704.37
682.257
660.043
656.591
654.892
652.862
650.981
650.199
650.696
654.769
664.509
672.138
674.832
679.56
687.966
696.549
708.448
715.184
719.49
725.54
728.812
731.137
732.424
730.378
731.975
729.888
729.139
728.288
728.431
725.783
729.09
730.962
725.097
727.978
730.293
730.775
726.826
724.452
715.709
695.01
682.878
661.116
650.074
649.275
648.659
648.424
648.275
647.741
650.008
657.528
661.706
664.417
667.805
674.679
679.651
685.389
692.148
697.294
701.213
710.449
719.132
712.091
713.225
713.492
711.185
710.41
709.698
707.634
708.392
709.211
714.56
715.89
712.649
718.405
723.917
726.701
724.915
707.111
692.54
676.846
659.614
644.088
642.139
642.408
642.305
642.712
642.99
642.807
642.656
643.015
645.247
649.339
653.992
662.332
667.016
672.708
676.81
681.01
684.569
687.705
690.737
694.319
695.14
693.333
698.071
694.254
697.019
696.752
697.465
704.283
705.695
706.953
693.35
702.829
712.717
718.272
702.606
688.587
673.303
656.068
641.665
634.788
635.869
636.112
636.635
637.438
638.149
638.553
638.795
635.839
634.862
637.008
643.599
649.342
656.914
660.274
664.733
668.124
671.275
674.685
679.447
682.104
682.497
683.97
686.089
688.073
686.321
683.725
685.373
688.144
693.228
694.27
667.219
674.254
685.026
678.384
672.283
657.167
647.382
637.443
628.94
628.419
630.631
631.277
632.101
632.891
633.679
634.362
634.205
632.868
632.461
634.146
637.993
641.214
647.364
650.083
654.8
658.049
660.653
663.03
665.498
666.38
668.001
671.323
668.132
673.897
676.148
658.208
655.13
659.313
664.854
665.797
631.467
619.393
622.688
630.443
635.492
630.482
627.168
623.856
621.774
619.029
625.407
627.898
628.274
629.12
630.502
631.552
630.213
627.212
627.912
628.706
629.548
632.968
636.3
638.978
643.257
645.924
647.283
649.304
650.892
651.888
654.999
658.488
652.686
658.556
655.749
641.434
637.638
639.016
644.019
651.305
597.317
594.647
590.763
598.468
604.991
604.905
606.761
605.965
604.945
608.921
612.073
616.669
617.188
618.968
625.307
630.54
622.839
617.958
619.894
618.314
617.894
619.967
622.89
625.477
628.189
630.572
632.557
634.244
635.811
637.49
641.147
637.761
637.114
636.651
634.098
631.946
633.186
634.462
636.744
638.407
579.411
578.92
571.437
575.974
580.952
583.459
585.185
590.133
588.014
594.318
599.278
601.959
604.712
608.964
609.414
610.394
611.445
608.228
610.239
607.219
610.238
605.46
607.475
609.429
611.806
614.069
615.797
617.417
620.317
618.815
618.82
614.871
606.334
607.404
607.754
612.389
621.07
629.021
628.068
628.21
557.698
564.513
551.943
555.983
560.454
563.569
564.634
570.977
573.973
579.03
585.127
586.024
592.758
591.048
594.194
596.168
597.634
598.208
596.156
592.929
600.045
591.449
590.541
591.753
593.791
595.902
597.613
599.666
603.199
602.992
602.311
597.17
601.558
601.516
603.554
608.3
613.741
617.725
615.943
621.494
532.264
534.085
528.581
533.911
536.23
539
543.021
545.916
554.737
559.664
567.694
568.398
574.412
574.22
572.903
574.577
575.713
576.313
576.619
575.362
578.541
579.919
569.749
572.256
575.524
578.309
580.75
583.935
582.394
586.507
586.948
588.179
594.782
597.128
600.202
603.19
604.158
604.41
604.106
604.974
509.266
509.8
509.666
514.64
524.467
520.365
513.842
528.353
531.912
541.345
546.579
556.704
553.58
558.802
558.986
558.85
559.147
559.421
559.022
558.834
557.907
563.185
549.373
552.17
557.633
562.807
565.162
567.814
566.839
569.094
570.811
572.322
574.771
583.682
587.985
583.291
589.179
590.456
589.234
590.415
501.211
502.406
503.638
509.153
501.887
507.082
492.535
505.439
519.621
524.384
533.459
540.089
544.841
546.002
548.592
544.189
544.501
544.375
543.869
543.714
542.716
542.649
538.295
536.109
541.731
550.614
553.094
552.951
552.503
552.411
553.91
555.347
557.053
559.083
560.549
563.373
566.236
569.363
571.2
573.845
492.889
486.208
492.508
489.337
482.918
489.594
480.685
484.089
500.258
507.953
520.347
524.49
536.933
539.915
542.366
546.927
533.589
537.746
537.411
533.772
533.56
531.533
527.831
527.239
530.466
534.371
536.324
534.17
533.366
534.306
535.546
536.555
537.291
536.78
537.298
540.152
539.969
544.425
548.139
550.312
487.521
472.339
473.429
470.68
467.091
470.388
468.667
470.252
480.367
494.059
502.884
518.382
523.938
533.599
535.623
536.231
536.294
533.782
534.234
529.694
528.069
525.105
525.406
520.348
517.95
515.86
513.505
509.962
509.081
512.915
515.837
517.182
516.903
516.37
516.906
515.617
515.601
519.3
523.421
525.094
463.495
458.377
455.513
455.35
454.584
456.032
456.204
455.91
461.821
477.563
490.666
506.586
527.553
519.186
525.379
526.8
527.777
528.612
527.773
524.86
521.372
518.224
515.092
511.641
507.924
505.85
502.889
495.515
490.207
495.083
499.72
501.637
502.086
501.13
499.388
497.342
497.186
499.334
504.069
504.901
452.838
447.96
449.031
446.17
443.333
442.275
441.15
442.567
448.717
462.759
476.829
491.345
506.234
526.811
509.01
514.445
515.889
514.487
516.215
514.494
511.933
509.886
507.029
504.683
502.479
500.161
497.036
492.256
486.185
485.011
488.414
490.05
489.818
488.67
487.253
485.811
485.931
483.712
490.155
489.183
444.35
439.355
438.29
434.003
429.804
427.714
426.508
429.101
437.381
449.204
461.494
472.703
483.08
515.526
500.597
501.406
502.919
502.656
502.095
500.198
499.877
498.848
497.108
495.201
494.266
493.239
491.982
489.65
481.291
478.879
478.298
478.383
478.083
476.991
475.279
473.656
475.196
474.388
479.526
479.933
434.557
432.5
425.334
420.028
416.552
414.296
413.341
416.14
424.981
435.886
447.015
457.377
466.263
494.921
486.404
485.726
487.189
487.58
486.938
486.076
485.06
484.142
483.484
482.884
482.889
481.319
479.354
476.824
472.82
469.578
467.662
467.05
466.706
465.735
464.231
461.969
466.2
464.145
470.311
469.272
419.435
418.305
410.417
407.045
405.564
403.872
402.429
405.659
414.217
423.898
434.13
443.537
451.14
474.494
472.053
471.328
472.774
472.975
471.782
470.626
469.514
468.537
467.61
466.689
466.043
465.762
465.049
462.973
459.677
456.317
454.62
454.546
455.364
454.881
454.755
454.309
456.185
455.552
458.97
460.096
397.772
398.613
396.923
396.481
396.3
395.484
395.706
399.691
407.46
416.151
424.861
432.458
438.714
460.568
456.391
456.69
456.886
456.711
455.466
454.184
452.952
451.773
450.605
449.62
448.885
448.368
448.119
447.339
445.475
444.168
445.209
445.093
445.48
446.599
447.307
445.291
442.934
445.406
444.405
447.914
381.157
384.934
387.03
387.49
387.476
387.089
388.584
396.046
402.222
409.376
416.537
422.431
426.036
445.721
443.684
441.959
441.601
440.955
439.412
437.684
436.417
435.121
433.895
432.819
431.94
431.438
431.073
430.524
429.648
431.517
432.537
432.638
432.676
432.422
432.206
431.47
430.644
428.591
428.506
429.913
369.432
370.579
377.731
378.1
377.485
376.909
377.859
383.96
388.87
395.681
404.673
414.54
423.9
430.946
433.035
425.477
424.657
424.872
423.954
422
420.497
419.012
417.536
416.238
415.169
414.332
413.715
413.119
412.515
412.14
412.623
413.121
414.383
415.98
415.597
413.854
411.917
412.072
413.32
413.786
359.627
361.39
364.717
366.649
367.741
368.9
370.466
370.372
368.658
376.662
387.716
397.981
408.412
412.741
424.225
417.517
411.86
410.548
409.06
406.875
404.704
402.677
400.841
399.263
397.927
396.858
395.982
395.266
394.659
394.239
394.358
395.432
397.179
398.376
397.237
395.065
395.884
397.078
397.29
398.901
344.626
348.309
352.807
357.996
359.674
359.189
360.046
359.231
355.787
361.343
372.382
381.088
388.286
392.528
410.785
400.471
392.943
392.504
391.619
389.255
386.985
384.782
382.768
380.984
379.399
377.876
376.412
375.037
373.97
373.765
372.99
373.157
377.173
375.023
375.578
374.324
375.249
376.51
379.239
381.351
326.327
330.097
334.559
339.857
343.763
350.115
350.529
342.842
339.9
345.08
352.461
358.628
363.238
367.19
371.38
370.42
370.029
370.432
371.241
368.497
367.206
365.308
363.387
362.051
359.87
358.229
356.581
354.601
352.474
350.96
349.785
356.26
354.158
348.208
348.302
348.715
349.814
351.058
354.207
357.405
306.355
310.532
313.758
316.706
319.889
339.682
327.912
324.427
326.255
323.999
326.712
332.373
334.623
336.529
339.325
342.066
343.744
345.749
346.983
347.329
346.979
345.047
344.114
342.394
339.22
337.562
335.133
332.112
329.179
325.741
325.496
325.246
317.741
316.687
318.115
319.094
319.912
319.558
320.42
323.982
280.841
288.401
292.804
295.273
297.151
300.455
298.641
296.668
300.164
299.346
300.855
300.617
301.786
304.311
308.52
312.416
315.956
319.702
323.487
326.098
325.817
323.823
323.847
320.351
318.178
315.491
312.324
308.529
304.248
300.474
297.173
292.392
289.114
288.411
289.223
291.101
293.753
294.42
299.154
296.029
262.771
272.741
275.824
279.187
280.591
281.646
279.302
276.556
274.083
271.969
271.245
271.942
273.492
276.317
280.386
284.877
289.415
294.147
300.545
304.904
303.514
303.025
301.771
298.4
295.767
292.151
288.501
285.169
281.947
277.282
271.396
265.258
263.538
263.038
263.813
266.614
271.039
274.323
276.105
276.003
241.171
256.008
264.71
267.516
264.983
260.307
258.335
256.149
254.041
250.668
247.638
246.606
246.576
248.384
251.695
255.312
260.947
271.807
278.562
281.005
280.59
280.919
278.011
276.508
273.408
269.611
266.462
265.01
261.645
256.274
250.262
244.432
240.858
242.754
244.601
250.435
255.091
257.78
258.992
259.537
221.896
230.507
234.515
239.378
240.214
239.536
236.884
233.719
230.652
227.977
223.707
220.795
218.342
218.045
223.962
231.031
239.715
248.41
256.045
257.072
256.749
255.885
255.433
253.324
251.422
249.854
246.834
245.731
241.567
238.367
233.197
229.801
229.977
230.543
232.662
237.702
239.742
244.416
244.506
244.129
209.927
211.686
216.542
216.511
216.596
213.581
210.445
211.405
204.635
207.05
204.361
201.225
203.328
207.018
211.091
213.848
218.642
225.951
231.274
232.907
233.439
233.752
233.087
231.589
232.859
231.039
227.487
225.59
222.009
220.453
215.922
217.53
219.034
219.22
225.14
226.086
226.903
233.609
230.9
238.591
213.752
203.064
195.926
200.378
195.743
199.94
205.907
203.673
197.684
195.663
201.118
190.696
194.509
197.148
200.043
203.251
204.607
206.074
209.48
211.035
211.914
212.549
212.976
214.306
213.785
213.225
212.564
212.123
212.044
211.444
207.851
212.698
208.934
212.782
214.461
214.2
218.126
221.199
212.858
216.787
207.581
202.483
186.857
180.649
192.364
186.441
187.124
195.95
194.141
188.443
194.126
184.247
188
190.791
192.734
193.218
190.14
191.779
193.543
192.808
194.268
195.491
196.452
197.517
198.588
199.81
201.319
201.819
199.397
194.957
198.371
198.233
199.849
203.392
200.551
193.821
203.754
202.576
201.107
201.041
166.66
134.53
142.83
132.645
169.323
174.602
174.191
186.998
180.509
175.011
176.068
173.802
178.813
181.615
178.856
177.443
177.002
177.21
175.154
176.338
177.277
178.25
179.454
180.459
181.977
180.713
181.444
181.668
180.752
178.904
178.874
179.905
178.322
180.47
188.24
179.531
182.59
180.777
181.335
182.344
68.228
37.6999
58.1103
96.3239
105.029
133.719
151.917
161.896
154.357
153.808
154.343
153.246
155.631
156.449
157.826
158.673
158.233
157.697
157.713
157.928
158.442
158.952
159.821
160.537
160.413
159.396
159.761
161.207
162.435
163.182
163.766
164.015
162.947
162.407
168.48
164.184
164.985
161.667
163.975
165.368
41.6444
23.9853
47.3682
63.0155
67.4891
86.3311
102.331
121.674
126.561
128.74
130.796
133.885
135.074
137.156
138.403
138.214
138.877
138.714
138.267
137.862
137.866
137.993
138.343
139.085
139.706
139.364
140.857
142.099
145.22
148.336
150.022
150.337
149.51
152.229
149.013
150.32
150.278
148.63
150.237
153.715
48.4337
46.6416
48.8785
52.388
55.8955
60.3789
75.6118
92.5812
100.837
105.452
110.932
114.547
116.679
118.534
119.558
120.056
120.772
119.297
119.407
118.929
117.826
116.96
116.033
117.415
119.491
123.484
125.308
126.32
130.254
132.867
135.984
135.783
137.925
142.995
138.4
138.492
138.035
137.652
138.229
144.96
56.3527
57.1872
55.9807
52.3193
48.6207
47.2965
58.8085
73.6848
83.1454
89.5806
94.7991
98.4668
100.734
101.869
102.055
101.63
100.712
100.431
99.3178
97.4836
96.008
93.9822
89.5686
92.563
93.7428
101.779
107.26
109.995
113.051
115.984
119.436
121.337
122.984
125.936
127.126
127.592
127.408
128.777
128.533
135.278
58.5766
56.9729
55.1193
52.3113
48.5347
46.3531
52.5798
63.6925
72.3054
79.1354
83.4082
85.954
87.1196
87.1494
86.2927
84.6906
82.2991
80.329
77.7549
75.8406
75.3091
72.9881
65.5511
60.9955
64.6873
72.7046
85.6742
92.1486
96.1785
100.195
103.921
106.261
108.471
110.903
113.04
114.606
113.903
121.32
116.764
122.221
57.4283
55.2184
53.9265
52.9214
50.9033
48.0697
49.0382
59.1418
67.5103
71.9884
74.6528
76.866
77.663
75.7923
72.1846
69.4354
68.2948
67.5142
69.7142
71.7198
72.4676
72.5876
72.1923
71.2337
72.2709
63.3077
70.8724
77.3209
81.6224
85.4064
88.9188
92.1774
94.6513
97.0098
99.4367
101.62
102.069
110.356
100.654
104.381
57.3892
58.3316
57.2548
55.3747
53.6739
52.1029
52.1465
54.9962
58.0624
62.064
66.8602
68.8732
69.4903
67.1977
63.0458
65.9713
72.8721
73.4636
72.1127
71.574
72.2308
72.8614
72.9007
73.0531
64.7657
59.3835
63.7155
67.8462
70.6888
73.1432
75.6985
78.209
80.6666
83.109
85.7068
88.5395
90.249
96.799
84.0533
87.2358
59.5804
59.7857
59.4952
58.1085
57.3621
56.4403
55.9212
56.1386
56.7307
57.0801
57.4066
60.2793
67.1548
64.3341
55.6584
66.0108
69.7293
70.5861
70.381
70.1415
69.5881
65.874
63.4983
65.4994
62.4808
60.5165
61.8672
58.2947
59.4729
60.9697
62.8054
64.792
66.7293
68.6591
70.841
72.9726
78.1833
80.7477
70.6389
72.9138
58.4289
59.7027
59.7826
60.3069
60.3205
59.4728
58.5512
57.7711
57.6812
58.1703
59.7037
59.8891
52.2869
49.5219
53.2949
43.904
43.1667
56.8695
58.7497
61.0297
56.6485
52.4446
51.9358
50.9324
47.8447
47.0532
44.2646
44.653
45.2286
46.4626
47.6875
49.6667
51.8703
53.8729
55.8992
58.4119
66.5198
57.0879
59.4349
60.5368
67.436
63.5149
61.9812
62.7765
62.8693
62.7038
61.5564
60.252
59.6389
59.45
59.7289
60.0734
57.5872
47.6112
47.5518
41.7493
40.4362
43.4871
45.4133
45.2228
42.9441
39.9426
36.9826
33.55
31.5073
29.725
29.9211
28.7385
27.1101
26.2471
26.9036
30.5683
35.3326
39.0935
39.6709
55.0457
52.0803
49.4726
49.5933
50.3468
62.888
60.6582
57.2233
60.5714
64.1821
64.5894
63.9478
62.9478
61.8172
61.2058
60.9102
58.8516
51.0736
43.7461
43.4642
41.8751
39.4258
36.9053
34.7804
32.8081
30.3009
26.3792
21.2513
20.9255
17.5425
14.6976
12.3065
9.96503
10.1853
10.9644
9.25514
18.1844
30.4692
36.1033
34.9742
39.482
36.1157
37.4736
37.5047
37.7261
54.7392
53.2662
52.4161
58.4976
56.2912
57.5218
60.217
58.5746
55.9298
53.771
49.0043
45.7149
42.5895
40.9379
39.4351
36.9155
33.3321
29.7946
26.3983
23.35
19.1356
14.1608
8.92302
4.79155
0.561419
-1.51917
-0.742866
-0.661906
2.21133