/*--------------------------------*- C++ -*----------------------------------*\
  =========                 |
  \\      /  F ield         | OpenFOAM: The Open Source CFD Toolbox
   \\    /   O peration     | Website:  https://openfoam.org
    \\  /    A nd           | Version:  8
     \\/     M anipulation  |
\*---------------------------------------------------------------------------*/
FoamFile
{
    version     2.0;
    format      ascii;
    class       surfaceScalarField;
    location    "5.45";
    object      phi;
}
// * * * * * * * * * * * * * * * * * * * * * * * * * * * * * * * * * * * * * //

dimensions      [0 3 -1 0 0 0 0];

internalField   nonuniform List<scalar> 
18095
(
1.98086e-08
-1.72068e-07
1.52259e-07
2.31403e-08
-1.97784e-07
1.94452e-07
1.98466e-08
-2.05891e-07
2.09185e-07
1.0466e-08
-2.1064e-07
2.2002e-07
-1.13194e-09
-2.13406e-07
2.25004e-07
-1.21216e-08
-2.13251e-07
2.2424e-07
-2.02835e-08
-2.10914e-07
2.19076e-07
-2.31959e-08
-2.06189e-07
2.09101e-07
-1.98031e-08
-1.97818e-07
1.94425e-07
-1.7204e-07
1.52237e-07
1.55178e-08
-1.87586e-07
1.59974e-08
-1.98263e-07
1.21574e-08
-2.02051e-07
6.47632e-09
-2.04958e-07
-1.23603e-10
-2.06806e-07
-6.21976e-09
-2.07155e-07
-1.17898e-08
-2.05344e-07
-1.59157e-08
-2.02063e-07
-1.55311e-08
-1.98203e-07
-1.87572e-07
6.80817e-09
-1.94394e-07
8.32064e-09
-1.99776e-07
7.27012e-09
-2.01e-07
4.60016e-09
-2.02289e-07
5.53691e-10
-2.02759e-07
-3.93586e-09
-2.02665e-07
-7.29173e-09
-2.01988e-07
-8.3891e-09
-2.00965e-07
-6.82328e-09
-1.99768e-07
-1.94395e-07
4.52771e-09
-1.98922e-07
4.69099e-09
-1.99939e-07
3.57616e-09
-1.99886e-07
1.71478e-09
-2.00427e-07
-2.59875e-10
-2.00785e-07
-2.07997e-09
-2.00845e-07
-3.67745e-09
-2.00391e-07
-4.72047e-09
-1.99922e-07
-4.52995e-09
-1.99959e-07
-1.98925e-07
1.07827e-09
1.1391e-09
1.25355e-09
8.26383e-10
4.18393e-11
-8.03151e-10
-1.19396e-09
-1.11629e-09
-1.07525e-09
-2.76418e-08
-1.96338e-07
2.2398e-07
-3.01452e-08
-1.9913e-07
2.01633e-07
-2.4827e-08
-2.01712e-07
1.96394e-07
-1.30456e-08
-2.02305e-07
1.90523e-07
1.33399e-09
-2.02276e-07
1.87897e-07
1.52751e-08
-2.01805e-07
1.87864e-07
2.57099e-08
-2.00763e-07
1.90328e-07
3.02338e-08
-2.00494e-07
1.9597e-07
2.76444e-08
-1.98784e-07
2.01374e-07
-1.96393e-07
2.24037e-07
-9.7354e-09
-1.86603e-07
-1.57006e-08
-1.93164e-07
-1.46244e-08
-2.02788e-07
-8.67324e-09
-2.08256e-07
-2.53394e-09
-2.08415e-07
4.1411e-09
-2.0848e-07
1.18469e-08
-2.08468e-07
1.4683e-08
-2.0333e-07
9.50571e-09
-1.93607e-07
-1.86887e-07
-1.0377e-08
-1.76226e-07
-8.2882e-09
-1.95253e-07
-6.42534e-09
-2.04651e-07
-5.35801e-09
-2.09323e-07
-1.17737e-09
-2.12596e-07
3.64624e-09
-2.13304e-07
6.27462e-09
-2.11097e-07
8.25342e-09
-2.05309e-07
1.03535e-08
-1.95707e-07
-1.76534e-07
-6.36277e-09
-1.69863e-07
-8.19899e-09
-1.93417e-07
-7.55706e-09
-2.05293e-07
-2.0528e-09
-2.14827e-07
1.79957e-09
-2.16448e-07
5.22976e-09
-2.16734e-07
9.10622e-09
-2.14973e-07
8.95485e-09
-2.05158e-07
6.64512e-09
-1.93397e-07
-1.69889e-07
-1.76036e-08
-1.65685e-08
-1.2677e-08
-7.48433e-09
1.0708e-09
8.57714e-09
1.268e-08
1.66234e-08
1.76512e-08
3.56078e-08
-1.57316e-07
1.21708e-07
4.03215e-08
-1.98435e-07
1.93721e-07
3.35917e-08
-2.1068e-07
2.1741e-07
2.25895e-08
-2.15754e-07
2.26756e-07
7.45975e-09
-2.17329e-07
2.32459e-07
-1.00493e-08
-2.17752e-07
2.35261e-07
-2.72419e-08
-2.1578e-07
2.32973e-07
-3.7364e-08
-2.10717e-07
2.20839e-07
-3.46673e-08
-1.98521e-07
1.95824e-07
-1.57716e-07
1.23048e-07
1.68181e-08
-1.74134e-07
1.90088e-08
-2.00625e-07
1.4855e-08
-2.06526e-07
7.0883e-09
-2.07987e-07
-2.17504e-09
-2.08066e-07
-1.14588e-08
-2.08468e-07
-1.76236e-08
-2.09616e-07
-2.03978e-08
-2.07943e-07
-1.72394e-08
-2.0168e-07
-1.74955e-07
9.33156e-09
-1.83465e-07
9.94042e-09
-2.01234e-07
9.06604e-09
-2.05652e-07
5.32813e-09
-2.04249e-07
1.73382e-09
-2.04472e-07
-1.98378e-09
-2.04751e-07
-6.72259e-09
-2.04877e-07
-8.61832e-09
-2.06047e-07
-8.77661e-09
-2.01521e-07
-1.83732e-07
7.69492e-09
-1.9116e-07
6.03213e-09
-1.99571e-07
7.12175e-09
-2.06742e-07
3.12211e-09
-2.00249e-07
1.74382e-09
-2.03093e-07
3.11677e-11
-2.03038e-07
-5.81236e-09
-1.99033e-07
-5.48324e-09
-2.06377e-07
-7.52495e-09
-1.9948e-07
-1.91257e-07
3.28199e-08
3.48814e-08
2.45337e-08
1.48077e-08
-3.8912e-10
-1.5563e-08
-2.42685e-08
-3.46749e-08
-3.27806e-08
-1.80844e-07
-2.73426e-08
2.08187e-07
-1.429e-07
-3.79442e-08
-1.02583e-07
-4.03174e-08
-6.65396e-08
-3.60432e-08
-3.91915e-08
-2.73482e-08
-2.41058e-08
-1.50858e-08
-3.34908e-08
9.38506e-09
-7.50094e-08
4.15186e-08
-1.03345e-07
2.83351e-08
-3.22719e-08
-7.10726e-08
-1.50959e-07
-6.21691e-08
1.85785e-07
-1.11621e-07
-7.72822e-08
-7.42803e-08
-7.76584e-08
-4.67966e-08
-6.3527e-08
-3.72125e-08
-3.69323e-08
-5.61579e-08
3.85958e-09
-8.36811e-08
3.69083e-08
-9.93584e-08
5.71958e-08
-9.59286e-08
2.49054e-08
-3.96744e-08
-8.85261e-08
-1.25442e-07
-7.30538e-08
1.36326e-07
-1.06926e-07
-9.57985e-08
-9.35029e-08
-9.10813e-08
-1.04634e-07
-5.23959e-08
-1.35318e-07
-6.24873e-09
-1.62266e-07
3.08078e-08
-1.59922e-07
3.45648e-08
-1.1598e-07
1.32534e-08
-8.91286e-08
-1.94578e-09
-2.89886e-08
-9.98144e-08
-9.11901e-08
-6.29366e-08
8.10729e-08
-1.10465e-07
-7.65236e-08
-1.48366e-07
-5.318e-08
-1.99279e-07
-1.48358e-09
-2.21164e-07
1.56364e-08
-1.95834e-07
5.47792e-09
-1.62417e-07
1.14772e-09
-1.31535e-07
-1.7628e-08
-1.12196e-07
-2.1285e-08
-2.18282e-08
-1.19357e-07
-8.11784e-08
-3.15479e-08
4.97897e-08
-1.3166e-07
-2.60425e-08
-2.06614e-07
2.17748e-08
-2.54967e-07
4.6869e-08
-2.60598e-07
2.1267e-08
-2.34192e-07
-2.09284e-08
-1.95577e-07
-3.74669e-08
-1.74787e-07
-3.84184e-08
-1.62332e-07
-3.37391e-08
-2.68708e-08
-1.5729e-07
-6.60257e-08
1.27154e-09
3.32062e-08
-1.36377e-07
4.43092e-08
-2.08556e-07
9.39534e-08
-2.50779e-07
8.90916e-08
-2.23313e-07
-6.19929e-09
-1.97188e-07
-4.70529e-08
-1.85002e-07
-4.9653e-08
-1.82694e-07
-4.0727e-08
-1.89844e-07
-2.65887e-08
-1.71966e-08
-1.99518e-07
-1.64151e-07
6.37306e-08
1.01692e-07
-2.30602e-07
1.10759e-07
-2.66793e-07
1.30145e-07
-2.35642e-07
5.79406e-08
-2.0562e-07
-3.62213e-08
-1.97782e-07
-5.48911e-08
-2.03868e-07
-4.35674e-08
-2.23028e-07
-2.15666e-08
-2.42774e-07
-6.84269e-09
-2.07194e-09
-2.57899e-07
-3.04811e-07
1.27643e-07
2.40899e-07
-3.32212e-07
1.3816e-07
-2.9949e-07
9.74228e-08
-2.49733e-07
8.18331e-09
-2.53175e-07
-3.27797e-08
-2.76861e-07
-3.12047e-08
-3.0478e-07
-1.56487e-08
-3.20397e-07
-5.95023e-09
-3.25279e-07
-1.96093e-09
5.28508e-09
-3.32636e-07
-3.54604e-07
1.44415e-07
3.37832e-07
-3.51316e-07
1.34872e-07
-3.17266e-07
6.3373e-08
-3.10089e-07
1.00587e-09
-3.34634e-07
-8.23506e-09
-3.64479e-07
-1.35949e-09
-3.81968e-07
1.84039e-09
-3.86871e-07
-1.04718e-09
-3.89551e-07
7.19047e-10
1.41812e-08
-3.98447e-07
-3.24225e-07
1.46992e-07
3.21648e-07
-3.19421e-07
1.30067e-07
-3.18713e-07
6.26649e-08
-3.4143e-07
2.37231e-08
-3.70036e-07
2.03705e-08
-3.97763e-07
2.63673e-08
-4.15123e-07
1.92003e-08
-4.25161e-07
8.99145e-09
-4.33901e-07
9.45904e-09
1.94714e-08
-4.39192e-07
-2.70075e-07
1.47266e-07
2.69802e-07
-2.8571e-07
1.45702e-07
-3.24495e-07
1.0145e-07
-3.58959e-07
5.81865e-08
-3.83986e-07
4.5398e-08
-4.00146e-07
4.25265e-08
-4.14851e-07
3.39055e-08
-4.30312e-07
2.44527e-08
-4.41574e-07
2.07202e-08
1.73589e-08
-4.39461e-07
-1.77609e-07
1.02273e-07
2.22602e-07
-1.71864e-07
1.39957e-07
-2.22567e-07
1.52153e-07
-2.87683e-07
1.23302e-07
-3.22416e-07
8.01309e-08
-3.3132e-07
5.1431e-08
-3.33225e-07
3.58102e-08
-3.342e-07
2.54278e-08
-3.25131e-07
1.16502e-08
1.15146e-08
-3.19286e-07
-1.05428e-07
4.4926e-08
1.62776e-07
-5.37565e-08
8.8285e-08
-4.59538e-08
1.4435e-07
-8.768e-08
1.65029e-07
-1.52784e-07
1.45235e-07
-2.01784e-07
1.00431e-07
-2.28234e-07
6.22607e-08
-2.31526e-07
2.87193e-08
-2.19575e-07
-3.01426e-10
-5.68635e-09
-2.02373e-07
-1.0504e-07
2.343e-08
1.26536e-07
-5.48136e-08
3.80585e-08
2.94773e-09
8.65887e-08
2.82707e-08
1.39706e-07
1.78068e-08
1.55699e-07
-1.82308e-08
1.36468e-07
-6.71973e-08
1.11227e-07
-1.03445e-07
6.49673e-08
-1.18974e-07
1.52278e-08
-4.79278e-09
-1.19868e-07
-6.33482e-08
2.56547e-08
6.11236e-08
-5.64675e-08
3.11778e-08
-2.13283e-08
5.14495e-08
1.87248e-08
9.96523e-08
3.54356e-08
1.38988e-07
3.42151e-08
1.37689e-07
2.38734e-08
1.21569e-07
2.24037e-08
6.64371e-08
1.02994e-08
2.73321e-08
9.96002e-09
-4.45342e-09
-8.26091e-09
4.3022e-08
-9.1064e-09
-2.22336e-08
4.51506e-08
-2.2046e-08
5.12619e-08
5.79109e-09
7.18152e-08
4.00475e-08
1.04731e-07
4.90796e-08
1.28657e-07
5.29146e-08
1.17734e-07
6.28013e-08
5.65504e-08
5.43747e-08
3.57586e-08
2.13397e-08
4.2995e-08
7.36457e-08
7.15534e-08
-1.02177e-07
4.13454e-08
7.74511e-08
2.17616e-08
7.08456e-08
2.74147e-08
6.6162e-08
5.90211e-08
7.31248e-08
9.85549e-08
8.91227e-08
1.25746e-07
9.05423e-08
1.08267e-07
7.40294e-08
8.86931e-08
5.53327e-08
3.5867e-08
7.41658e-08
1.44194e-07
8.05551e-08
-1.53196e-07
1.25098e-07
9.65478e-08
9.88657e-08
9.70774e-08
8.05406e-08
8.4487e-08
8.2393e-08
7.12724e-08
1.05175e-07
6.63407e-08
1.30823e-07
6.48939e-08
1.42105e-07
6.27478e-08
1.42029e-07
5.54086e-08
4.18033e-08
1.36093e-07
1.5274e-07
8.68128e-08
-1.58998e-07
1.41759e-07
1.07529e-07
1.28405e-07
1.10432e-07
1.08433e-07
1.04459e-07
9.0599e-08
8.91062e-08
8.80028e-08
6.89369e-08
9.84403e-08
5.44563e-08
1.02965e-07
5.82229e-08
1.02615e-07
5.57584e-08
4.79489e-08
9.64696e-08
1.36807e-07
9.82731e-08
-1.48268e-07
1.30421e-07
1.13915e-07
1.14391e-07
1.26462e-07
8.42778e-08
1.34572e-07
7.10238e-08
1.0236e-07
6.24619e-08
7.74988e-08
5.31905e-08
6.37275e-08
4.01228e-08
7.12905e-08
2.88322e-08
6.70489e-08
5.99587e-08
1.68223e-08
1.09257e-07
1.15377e-07
-1.26361e-07
8.77445e-08
1.35427e-07
5.71997e-08
1.57007e-07
3.34848e-08
1.58287e-07
2.30541e-08
1.12791e-07
-3.99932e-09
1.04552e-07
-5.03718e-08
1.101e-07
-8.08838e-08
1.01802e-07
-9.03919e-08
7.65569e-08
5.83824e-08
-8.88158e-08
3.04347e-08
1.47423e-07
-6.24811e-08
1.50024e-09
1.64361e-07
-1.64818e-08
1.74989e-07
-2.23772e-08
1.64183e-07
-7.23604e-08
1.62774e-07
-1.29783e-07
1.61974e-07
-1.55295e-07
1.35612e-07
-1.27126e-07
7.36335e-08
-1.02812e-07
5.22419e-08
1.19871e-07
-1.64301e-07
-3.40254e-09
1.8636e-07
-3.55345e-08
-4.35401e-08
2.04499e-07
-7.96843e-08
2.11133e-07
-1.25513e-07
2.10011e-07
-1.58841e-07
1.96102e-07
-1.37289e-07
1.40423e-07
-9.66639e-08
9.49865e-08
-9.66575e-08
7.36269e-08
-1.66161e-07
1.21745e-07
2.38818e-07
-2.85108e-07
-3.9717e-08
2.37536e-07
-1.14586e-08
-9.88034e-08
2.63585e-07
-1.59691e-07
2.72021e-07
-2.06217e-07
2.56536e-07
-2.17271e-07
2.07156e-07
-2.07612e-07
1.30764e-07
-2.26294e-07
1.13669e-07
-3.14872e-07
1.62206e-07
-3.9174e-07
1.98613e-07
2.27296e-07
-3.80219e-07
-1.08485e-07
2.95554e-07
5.04662e-08
-1.5832e-07
3.1342e-07
-1.9752e-07
3.11221e-07
-2.21258e-07
2.80275e-07
-2.48055e-07
2.33952e-07
-3.21319e-07
2.04028e-07
-4.35632e-07
2.27982e-07
-4.90073e-07
2.16647e-07
-4.81722e-07
1.90262e-07
1.77406e-07
-4.31833e-07
-1.29935e-07
3.25717e-07
9.9772e-08
-1.49557e-07
3.33043e-07
-1.57941e-07
3.19605e-07
-1.64909e-07
2.87242e-07
-1.96448e-07
2.65492e-07
-2.8064e-07
2.88221e-07
-3.54474e-07
3.01815e-07
-3.79288e-07
2.41462e-07
-3.33168e-07
1.44142e-07
7.17358e-08
-2.27497e-07
-1.25999e-07
3.39659e-07
1.12057e-07
-1.28671e-07
3.35716e-07
-1.06789e-07
2.97723e-07
-9.60046e-08
2.76458e-07
-1.26437e-07
2.95924e-07
-1.48252e-07
3.10036e-07
-1.48847e-07
3.0241e-07
-1.25421e-07
2.18036e-07
-1.08505e-07
1.27227e-07
5.43185e-08
-9.10867e-08
-1.05326e-07
3.46978e-07
9.80062e-08
-1.03247e-07
3.33637e-07
-8.47035e-08
2.79181e-07
-6.54893e-08
2.57244e-07
-6.33228e-08
2.93757e-07
-5.04856e-08
2.972e-07
-7.26383e-09
2.59189e-07
5.77543e-08
1.53019e-07
1.0934e-07
7.56408e-08
3.00999e-08
1.33559e-07
-3.24778e-08
3.34637e-07
4.48194e-08
-3.92528e-08
3.40412e-07
-4.46957e-08
2.84624e-07
-1.29876e-08
2.25536e-07
3.98375e-08
2.40932e-07
1.46401e-07
1.90636e-07
2.30483e-07
1.75107e-07
2.88534e-07
9.49681e-08
3.2488e-07
3.92956e-08
-5.13527e-10
3.55493e-07
7.06194e-08
3.04173e-07
-4.01552e-08
8.54637e-08
3.25568e-07
1.11114e-07
2.58974e-07
1.44049e-07
1.92601e-07
2.19149e-07
1.65832e-07
2.9421e-07
1.15575e-07
3.82995e-07
8.63227e-08
4.35604e-07
4.236e-08
4.56165e-07
1.87349e-08
-3.93942e-09
4.59591e-07
1.21043e-08
2.98332e-07
-6.26366e-09
7.74856e-08
2.60186e-07
1.57259e-07
1.792e-07
2.32717e-07
1.17143e-07
3.06816e-07
9.17339e-08
3.53063e-07
6.93273e-08
3.87194e-07
5.21922e-08
4.03826e-07
2.5728e-08
4.08873e-07
1.36878e-08
3.13428e-08
3.73591e-07
7.64892e-08
2.76008e-07
-5.41651e-08
1.49746e-07
1.86929e-07
2.08182e-07
1.20765e-07
2.45728e-07
7.9597e-08
2.77218e-07
6.02445e-08
2.98159e-07
4.83858e-08
3.13286e-07
3.70656e-08
3.09004e-07
3.00093e-08
2.7902e-07
4.36717e-08
8.5266e-08
2.25097e-07
2.77021e-07
2.46015e-07
-2.47028e-07
2.84903e-07
1.79047e-07
2.78073e-07
1.27595e-07
2.71585e-07
8.60844e-08
2.75344e-07
5.64855e-08
2.85731e-07
3.79996e-08
2.91e-07
3.17964e-08
2.86473e-07
3.45363e-08
2.65516e-07
6.46291e-08
1.22107e-07
2.28674e-07
4.59844e-07
2.23436e-07
-4.37265e-07
4.31315e-07
2.07576e-07
3.89913e-07
1.68997e-07
3.53867e-07
1.22131e-07
3.24126e-07
8.62262e-08
3.07047e-07
5.50783e-08
3.04653e-07
3.41907e-08
3.10326e-07
2.88634e-08
3.30838e-07
4.41176e-08
1.11898e-07
3.41047e-07
4.99646e-07
1.92058e-07
-4.68268e-07
5.22219e-07
1.85002e-07
5.2496e-07
1.66255e-07
5.09789e-07
1.37302e-07
4.80319e-07
1.15696e-07
4.51891e-07
8.35059e-08
4.35639e-07
5.04433e-08
4.27757e-07
3.67452e-08
4.34177e-07
3.76984e-08
5.9374e-08
4.86701e-07
5.51051e-07
1.71801e-07
-5.30794e-07
5.7754e-07
1.58513e-07
5.99857e-07
1.43938e-07
6.15045e-07
1.22115e-07
6.25398e-07
1.05343e-07
6.19621e-07
8.92834e-08
6.03552e-07
6.65122e-08
5.93131e-07
4.7166e-08
5.89154e-07
4.16755e-08
4.89675e-08
5.99561e-07
6.40362e-07
1.54123e-07
-6.22685e-07
6.54053e-07
1.44823e-07
6.65072e-07
1.32919e-07
6.68423e-07
1.18763e-07
6.69482e-07
1.04284e-07
6.71184e-07
8.75818e-08
6.63135e-07
7.45599e-08
6.50403e-07
5.98983e-08
6.41557e-07
5.05215e-08
5.11253e-08
6.39399e-07
6.8063e-07
1.44387e-07
-6.70893e-07
6.8257e-07
1.42882e-07
6.79509e-07
1.3598e-07
6.72406e-07
1.25866e-07
6.66209e-07
1.10481e-07
6.58391e-07
9.53997e-08
6.46842e-07
8.61085e-08
6.28379e-07
7.83607e-08
6.09937e-07
6.89639e-08
6.46713e-08
5.96391e-07
6.68232e-07
1.34539e-07
-6.58384e-07
6.65268e-07
1.45846e-07
6.49138e-07
1.52111e-07
6.2908e-07
1.45924e-07
6.11423e-07
1.28137e-07
6.00427e-07
1.06396e-07
5.91658e-07
9.48764e-08
5.77985e-07
9.20339e-08
5.55784e-07
9.11647e-08
8.8297e-08
5.32159e-07
5.59021e-07
1.24032e-07
-5.48515e-07
5.63789e-07
1.41078e-07
5.6711e-07
1.4879e-07
5.63823e-07
1.4921e-07
5.58633e-07
1.33327e-07
5.64911e-07
1.00118e-07
5.71949e-07
8.78381e-08
5.73598e-07
9.03847e-08
5.62997e-07
1.01766e-07
1.12929e-07
5.38365e-07
3.62861e-07
9.07938e-08
-3.29622e-07
3.99811e-07
1.04129e-07
4.40011e-07
1.08589e-07
4.80062e-07
1.0916e-07
5.15576e-07
9.78128e-08
5.48115e-07
6.75784e-08
5.68376e-07
6.75776e-08
5.71678e-07
8.70821e-08
5.65518e-07
1.07926e-07
1.23062e-07
5.55385e-07
2.90361e-07
8.05172e-08
-2.80085e-07
3.16137e-07
7.83528e-08
3.52586e-07
7.21399e-08
4.05396e-07
5.63496e-08
4.62184e-07
4.1025e-08
4.96009e-07
3.3753e-08
5.19899e-07
4.3688e-08
5.34985e-07
7.19956e-08
5.37866e-07
1.05046e-07
1.23279e-07
5.37649e-07
3.75588e-07
7.89015e-08
-3.73972e-07
3.91438e-07
6.25022e-08
4.19016e-07
4.45625e-08
4.44907e-07
3.04585e-08
4.70037e-07
1.58941e-08
4.88169e-07
1.56208e-08
5.02586e-07
2.92709e-08
5.2419e-07
5.03916e-08
5.33825e-07
9.54106e-08
1.21735e-07
5.35369e-07
4.97595e-07
2.08402e-08
-4.39534e-07
5.39214e-07
2.0883e-08
5.52365e-07
3.14115e-08
5.59126e-07
2.36977e-08
5.82411e-07
-7.39103e-09
6.14797e-07
-1.67646e-08
6.41348e-07
2.72052e-09
6.35302e-07
5.64378e-08
5.89778e-07
1.40936e-07
1.55165e-07
5.56348e-07
4.7157e-07
-6.94379e-08
-3.81291e-07
5.27274e-07
-3.48207e-08
5.40469e-07
1.82167e-08
5.48291e-07
1.58746e-08
5.89012e-07
-4.81121e-08
6.33645e-07
-6.13971e-08
6.83736e-07
-4.73702e-08
7.14889e-07
2.52842e-08
7.14983e-07
1.40842e-07
1.83908e-07
6.8624e-07
4.93423e-08
-1.14476e-07
-4.30442e-09
1.08785e-07
-9.42631e-08
2.05092e-07
-7.80895e-08
2.86339e-07
-6.53722e-08
3.4308e-07
-1.04853e-07
4.28125e-07
-1.46442e-07
5.74433e-07
-1.93679e-07
6.36143e-07
-3.64258e-08
5.85857e-07
1.91129e-07
2.52028e-07
5.17738e-07
-3.18119e-08
-1.5179e-07
6.91272e-08
1.523e-09
-1.27598e-07
6.62375e-08
-1.42803e-07
1.20088e-07
-1.19222e-07
1.62398e-07
-1.47164e-07
2.22973e-07
-2.07017e-07
2.37702e-07
-2.08408e-07
2.96749e-07
-9.54726e-08
2.80539e-07
2.0734e-07
3.90174e-07
1.42394e-07
7.32557e-08
-2.17471e-07
-7.57458e-09
6.54045e-08
-1.19747e-07
3.98066e-08
-1.17205e-07
7.4384e-08
-1.53799e-07
8.07342e-08
-1.53516e-07
5.10825e-08
-1.77365e-07
-7.42749e-09
-1.49897e-07
3.14184e-08
-1.34318e-07
3.21083e-08
2.06649e-07
4.20973e-07
1.30856e-09
1.44261e-07
-4.55266e-07
9.35346e-08
2.85274e-07
-2.60758e-07
3.05736e-07
-1.37668e-07
2.60377e-07
-1.08441e-07
1.83727e-07
-7.6866e-08
6.16953e-08
-5.53324e-08
-7.08214e-08
-1.73784e-08
-1.91244e-07
-1.38949e-08
-1.19918e-07
1.35324e-07
1.82799e-07
1.18257e-07
-2.75162e-07
-6.20155e-07
4.40051e-07
-1.47405e-07
-3.88516e-07
-1.23432e-07
-1.61642e-07
-1.10293e-07
-1.21579e-07
-1.37808e-07
-4.93501e-08
-1.66777e-07
-2.6363e-08
-1.3137e-07
-5.27849e-08
-6.06662e-08
-8.4599e-08
1.35455e-07
-6.07974e-08
-4.05942e-08
3.58847e-07
-3.63101e-07
-7.76559e-07
5.19505e-07
-2.03042e-07
-5.48575e-07
-1.82123e-07
-1.82561e-07
-2.55378e-07
-4.83233e-08
-2.61489e-07
-4.32392e-08
-2.3637e-07
-5.14831e-08
-1.80253e-07
-1.08902e-07
-9.19152e-08
-1.72937e-07
2.72054e-08
-1.79918e-07
-1.53177e-07
1.39788e-07
-3.88209e-07
-8.55998e-07
4.67647e-07
-2.79407e-07
-6.57377e-07
-2.1956e-07
-2.42408e-07
-2.08251e-07
-5.96323e-08
-2.1863e-07
-3.286e-08
-2.42901e-07
-2.72118e-08
-2.04006e-07
-1.47797e-07
-1.19185e-07
-2.57757e-07
9.43159e-10
-3.00047e-07
-2.93587e-07
1.41353e-07
-3.77701e-07
-8.86233e-07
4.07937e-07
-3.45663e-07
-6.89415e-07
-2.93421e-07
-2.9465e-07
-2.55459e-07
-9.75953e-08
-2.3887e-07
-4.94497e-08
-2.2137e-07
-4.47126e-08
-1.88487e-07
-1.8068e-07
-1.60628e-07
-2.85615e-07
-1.14679e-07
-3.45997e-07
-3.44638e-07
-6.36277e-08
-4.98376e-07
-8.78592e-07
4.90735e-07
-5.2127e-07
-6.6652e-07
-5.19012e-07
-2.96908e-07
-4.48944e-07
-1.67663e-07
-3.55004e-07
-1.43388e-07
-2.24576e-07
-1.7514e-07
-1.50977e-07
-2.5428e-07
-1.61513e-07
-2.75078e-07
-2.51725e-07
-2.55785e-07
-2.83599e-07
-3.12764e-07
-6.54831e-07
-8.97396e-07
6.73636e-07
-6.07665e-07
-7.13688e-07
-5.54821e-07
-3.49752e-07
-4.80162e-07
-2.42321e-07
-3.89362e-07
-2.34189e-07
-2.8679e-07
-2.77713e-07
-2.70492e-07
-2.70579e-07
-2.93921e-07
-2.5165e-07
-3.37466e-07
-2.12241e-07
-1.84356e-07
-4.36708e-07
-7.8915e-07
-9.43824e-07
8.35578e-07
-6.58731e-07
-8.44106e-07
-5.09216e-07
-4.99268e-07
-4.15888e-07
-3.35648e-07
-3.52584e-07
-2.97494e-07
-3.35323e-07
-2.94974e-07
-3.30561e-07
-2.7534e-07
-3.42586e-07
-2.39625e-07
-3.42437e-07
-2.1239e-07
-1.65088e-07
-3.61705e-07
-8.90151e-07
-9.76282e-07
9.22609e-07
-7.79361e-07
-9.54897e-07
-5.7181e-07
-7.06819e-07
-4.62083e-07
-4.45376e-07
-3.9922e-07
-3.60357e-07
-3.65703e-07
-3.2849e-07
-3.51721e-07
-2.89321e-07
-3.54463e-07
-2.36884e-07
-3.68732e-07
-1.9812e-07
-1.34015e-07
-3.99804e-07
-9.19103e-07
-9.85479e-07
9.283e-07
-8.49675e-07
-1.02432e-06
-6.48475e-07
-9.0802e-07
-5.00842e-07
-5.93009e-07
-4.5392e-07
-4.07279e-07
-4.41163e-07
-3.41247e-07
-4.37781e-07
-2.92703e-07
-4.46553e-07
-2.28112e-07
-4.63233e-07
-1.81441e-07
-1.14014e-07
-4.83234e-07
-9.27134e-07
-8.58815e-07
8.00471e-07
-8.90036e-07
-1.06142e-06
-7.51765e-07
-1.04629e-06
-5.15389e-07
-8.29385e-07
-4.28977e-07
-4.9369e-07
-4.28625e-07
-3.41598e-07
-4.53957e-07
-2.6737e-07
-4.8777e-07
-1.94298e-07
-5.13866e-07
-1.55345e-07
-1.11045e-07
-5.16836e-07
-8.24085e-07
-4.12056e-07
3.77326e-07
-8.69703e-07
-1.0158e-06
-8.11541e-07
-1.10445e-06
-6.06225e-07
-1.0347e-06
-3.79043e-07
-7.20873e-07
-3.65875e-07
-3.54766e-07
-3.9148e-07
-2.41766e-07
-4.00772e-07
-1.85005e-07
-4.34132e-07
-1.21986e-07
-7.93228e-08
-4.65854e-07
-3.56969e-07
-1.05746e-07
5.06592e-08
-7.42454e-07
-6.30319e-07
-7.42086e-07
-1.10482e-06
-6.4309e-07
-1.1337e-06
-3.77216e-07
-9.86747e-07
-2.33044e-07
-4.98938e-07
-2.81268e-07
-1.93541e-07
-3.27719e-07
-1.38554e-07
-3.69465e-07
-8.02391e-08
-4.9447e-08
-3.99341e-07
-1.38586e-08
-3.44181e-08
-5.74706e-08
-3.46997e-07
-2.97178e-07
-5.91873e-07
-8.59944e-07
-5.66467e-07
-1.1591e-06
-4.28723e-07
-1.12449e-06
-1.51554e-07
-7.76107e-07
-2.16145e-07
-1.2895e-07
-2.71482e-07
-8.32167e-08
-3.09564e-07
-4.21578e-08
-2.52668e-08
-3.33744e-07
1.97061e-07
1.3561e-07
-3.67087e-07
-1.03471e-09
-9.90828e-08
-4.18706e-07
-4.42271e-07
-4.0752e-07
-1.17029e-06
-3.77871e-07
-1.15414e-06
-1.81304e-07
-9.72673e-07
-2.65011e-07
-4.52438e-08
-2.97607e-07
-5.06205e-08
-3.25794e-07
-1.39709e-08
-6.76221e-09
-3.44298e-07
3.57354e-08
2.86028e-07
-1.86154e-07
-3.52989e-09
-5.98155e-08
-2.10325e-07
-2.35479e-07
-2.286e-07
-1.15201e-06
-1.98237e-07
-1.1845e-06
-7.79962e-08
-1.09291e-06
-1.29881e-07
6.64077e-09
-2.9164e-07
1.11138e-07
-3.81896e-07
7.62848e-08
9.26891e-09
-3.97927e-07
-3.68408e-08
2.26848e-07
9.6022e-08
-2.72313e-08
-6.94273e-08
-5.64074e-08
-2.063e-07
-1.00759e-07
-1.10766e-06
-1.20846e-07
-1.16442e-06
-8.30025e-08
-1.13076e-06
2.297e-07
-3.06061e-07
8.83693e-08
2.52469e-07
-4.62946e-08
2.10948e-07
1.23681e-07
-1.60707e-07
4.0472e-08
1.28932e-07
5.74462e-08
2.50075e-08
-5.39608e-08
-1.84693e-10
-1.8111e-07
-4.99745e-09
-1.10285e-06
-2.84679e-08
-1.14095e-06
-4.0194e-08
-1.11903e-06
4.17098e-07
-7.63355e-07
6.95986e-07
-2.64184e-08
6.72209e-07
2.34727e-07
2.67545e-07
5.28345e-07
-6.59053e-08
9.00729e-08
1.04762e-07
-2.75019e-08
-9.23577e-08
7.32823e-08
-2.81894e-07
8.85052e-08
-1.11807e-06
6.27365e-08
-1.11518e-06
7.52798e-08
-1.13158e-06
1.96391e-07
-8.84465e-07
3.20272e-07
-1.50299e-07
3.97974e-07
1.57024e-07
2.42207e-07
4.23311e-07
1.88103e-07
9.48318e-08
-1.92865e-07
1.10894e-07
-1.51393e-08
6.89359e-08
-2.3993e-07
5.21277e-08
-1.10127e-06
2.40838e-08
-1.08713e-06
-1.1475e-08
-1.09602e-06
-1.72466e-08
-8.78693e-07
-1.84934e-07
1.73865e-08
3.57833e-09
-3.14902e-08
7.57314e-08
1.70055e-07
2.76255e-07
1.32264e-07
-3.13692e-07
1.58099e-07
1.03015e-07
2.51319e-08
-1.06963e-07
1.10035e-08
-1.08714e-06
-4.29033e-10
-1.0757e-06
-2.2537e-08
-1.07391e-06
1.14287e-08
-9.12658e-07
-2.92075e-08
5.80218e-08
1.02614e-07
-1.63312e-07
-4.00332e-08
2.18378e-07
2.67535e-07
8.47179e-08
-2.19988e-07
9.47895e-08
2.75758e-07
3.51289e-08
-4.73078e-08
1.05514e-08
-1.06257e-06
-4.83772e-09
-1.06031e-06
-1.55081e-08
-1.06324e-06
9.30528e-08
-1.02122e-06
1.47845e-07
3.22959e-09
1.74064e-07
-1.89532e-07
-7.72138e-08
2.11246e-07
-8.57425e-08
7.59641e-08
9.44969e-08
-1.90666e-07
3.8068e-07
1.17805e-08
-2.49741e-07
9.03421e-09
-1.05983e-06
-9.19276e-09
-1.04208e-06
-3.31239e-08
-1.03931e-06
-1.66539e-08
-1.03769e-06
4.55141e-08
-5.89393e-08
8.46455e-08
-2.28664e-07
-8.79251e-08
9.53592e-08
-4.35224e-07
4.15369e-08
4.69649e-07
-1.75465e-07
1.20912e-07
4.3148e-08
-4.6835e-07
2.47034e-08
-1.04137e-06
2.29081e-09
-1.01967e-06
-1.65956e-08
-1.02042e-06
-9.99236e-09
-1.0443e-06
1.71943e-07
-2.40874e-07
1.02485e-07
-1.59212e-07
-1.00416e-07
1.14976e-07
-6.22766e-08
-2.6556e-08
1.30371e-07
-5.73046e-09
6.43517e-08
3.99755e-08
-5.14073e-07
2.14466e-08
-1.02285e-06
4.31581e-09
-1.00254e-06
-1.17833e-08
-1.00432e-06
-1.72361e-08
-1.03884e-06
3.78674e-07
-6.36781e-07
4.74413e-07
-2.54947e-07
-1.28065e-07
5.02062e-07
-2.55141e-08
-3.59427e-08
3.49025e-08
-6.4666e-08
1.03511e-07
3.56662e-08
-6.14412e-07
1.81113e-08
-1.00529e-06
1.97264e-09
-9.86403e-07
-1.65901e-08
-9.8576e-07
-4.2261e-08
-1.01317e-06
4.4022e-08
-7.23066e-07
4.55423e-08
-2.56474e-07
-1.21398e-07
3.88692e-08
-1.64936e-07
6.51281e-10
1.28339e-07
-4.45393e-08
-1.68877e-08
4.22179e-08
-7.01173e-07
2.18773e-08
-9.84944e-07
4.19189e-09
-9.68717e-07
-1.14708e-08
-9.70097e-07
-4.33039e-08
-9.81343e-07
-4.84674e-08
-7.17899e-07
-1.00676e-07
-2.04259e-07
-6.52714e-08
-1.56807e-07
-1.08879e-07
-4.25686e-08
1.521e-07
3.07922e-08
-1.56577e-07
4.1e-08
-7.11396e-07
1.95693e-08
-9.63514e-07
-2.46478e-10
-9.48902e-07
-1.30046e-08
-9.57339e-07
-3.06593e-08
-9.63687e-07
-5.96803e-08
-6.88883e-07
-9.14547e-08
-1.72485e-07
-1.73521e-08
-1.39378e-07
-2.40521e-08
-8.891e-08
7.03924e-08
2.79024e-08
-2.08523e-07
-1.71815e-09
-6.81772e-07
-2.03144e-08
-9.44919e-07
-3.02183e-08
-9.38997e-07
-5.69751e-08
-9.30583e-07
-7.38978e-08
-9.46761e-07
-7.53561e-08
-6.87433e-07
-8.23555e-08
-1.65484e-07
1.13536e-08
-1.11056e-07
4.30664e-08
-1.29074e-07
-2.91004e-09
4.80284e-08
-2.13491e-07
3.48942e-08
-6.68633e-07
1.82722e-08
-9.28303e-07
-2.54368e-09
-9.18181e-07
-2.02074e-08
-9.12919e-07
-3.73482e-08
-9.29622e-07
-7.15731e-08
-6.5321e-07
-8.71059e-08
-1.49954e-07
9.13163e-09
-8.48822e-08
1.76052e-08
-1.59123e-07
1.24393e-08
5.68416e-08
-2.5273e-07
6.85093e-08
-6.80298e-07
5.12277e-08
-9.11027e-07
2.05349e-08
-8.87488e-07
2.49675e-09
-8.94881e-07
-1.44747e-08
-9.12653e-07
-3.36782e-08
-6.33999e-07
-2.8274e-08
-1.55356e-07
1.24758e-08
-3.16187e-08
1.19452e-08
-1.93627e-07
2.25537e-08
3.8588e-08
-2.79383e-07
2.80825e-08
-6.6979e-07
8.07159e-09
-8.9101e-07
-1.11961e-08
-8.68221e-07
-4.21819e-08
-8.63895e-07
-6.28921e-08
-8.9194e-07
-8.91366e-08
-6.07759e-07
-1.00945e-07
-1.43559e-07
-6.06757e-09
-8.24049e-08
5.36633e-08
-2.07336e-07
-3.99577e-08
5.73901e-08
-2.83142e-07
5.91447e-08
-6.71558e-07
3.68498e-08
-8.68716e-07
6.37193e-09
-8.37743e-07
-1.81485e-08
-8.39375e-07
-4.07564e-08
-8.69329e-07
-5.67481e-08
-5.91763e-07
-7.92145e-08
-1.21092e-07
-7.8389e-08
-6.89684e-09
7.81697e-08
-2.01768e-07
-8.37348e-08
5.91457e-08
-2.64116e-07
4.90896e-08
-6.61493e-07
2.47728e-08
-8.44393e-07
-1.6458e-09
-8.11324e-07
-2.51777e-08
-8.15843e-07
-4.85906e-08
-8.45916e-07
-2.62209e-08
-6.14136e-07
-1.43349e-08
-1.32977e-07
-1.36683e-07
4.39618e-08
1.18384e-07
-1.48342e-07
-1.71813e-07
6.29865e-08
-2.08765e-07
4.47256e-08
-6.43249e-07
1.80348e-08
-8.17702e-07
-4.48288e-09
-7.88807e-07
-2.85769e-08
-7.91749e-07
-5.47302e-08
-8.19766e-07
-4.32645e-08
-6.25601e-07
-4.33918e-08
-1.32844e-07
-1.18478e-07
-6.15905e-08
1.59342e-07
-7.39779e-08
-2.33706e-07
7.55451e-08
-1.24966e-07
4.24361e-08
-6.10135e-07
1.54995e-08
-7.90767e-07
-2.36645e-09
-7.70941e-07
-2.50446e-08
-7.6907e-07
-5.20109e-08
-7.928e-07
-4.74641e-08
-6.30142e-07
-8.44427e-08
-9.58549e-08
-3.18634e-08
-1.71065e-07
1.5888e-07
-5.5908e-09
-2.2727e-07
8.20516e-08
-4.81447e-08
5.29251e-08
-5.8099e-07
2.68793e-08
-7.64715e-07
5.6368e-09
-7.49698e-07
-1.66901e-08
-7.46743e-07
-4.31994e-08
-7.66294e-07
-6.16117e-08
-6.11719e-07
-1.15343e-07
-4.21251e-08
2.55139e-08
-1.7272e-07
1.01782e-07
4.26116e-08
-1.49986e-07
5.74329e-08
-3.85472e-09
4.6534e-08
-5.70092e-07
2.3411e-08
-7.41596e-07
-6.97022e-10
-7.2559e-07
-1.97306e-08
-7.2771e-07
-4.48519e-08
-7.41174e-07
-5.72602e-08
-5.993e-07
-5.94008e-08
-3.9994e-08
5.59043e-08
-8.9792e-08
1.2811e-07
9.26579e-08
-1.78157e-07
7.24884e-08
5.17531e-08
3.47982e-08
-5.32391e-07
1.02171e-08
-7.17017e-07
-1.16229e-08
-7.0375e-07
-3.84158e-08
-7.00917e-07
-6.35843e-08
-7.16004e-07
-5.92588e-08
-6.0363e-07
4.2374e-08
-1.41626e-07
-1.06873e-08
1.08961e-07
9.12517e-08
1.44154e-07
-1.42754e-07
8.12474e-08
6.17558e-08
6.63819e-08
-5.17521e-07
3.85711e-08
-6.89202e-07
6.98083e-09
-6.7216e-07
-2.08219e-08
-6.73114e-07
-4.65502e-08
-6.90274e-07
-7.48402e-08
-5.75351e-07
-3.15e-09
-2.13317e-07
-1.21565e-07
1.07733e-07
3.31522e-08
1.32637e-07
-2.16361e-08
7.05615e-08
2.43404e-08
6.92749e-08
-5.16247e-07
4.06848e-08
-6.6061e-07
1.03399e-08
-6.41815e-07
-1.48068e-08
-6.47968e-07
-4.37623e-08
-6.6132e-07
-7.73344e-08
-5.41775e-07
-5.73463e-08
-2.33314e-07
-1.78816e-07
-9.17443e-11
1.33601e-07
6.04998e-08
-6.1463e-08
1.09782e-07
4.81676e-08
5.79199e-08
-4.64386e-07
2.71353e-08
-6.29824e-07
8.79314e-10
-6.15559e-07
-3.13978e-08
-6.1569e-07
-6.41985e-08
-6.28518e-07
-7.29191e-08
-5.33053e-07
-4.63064e-08
-2.59926e-07
-1.95653e-07
-2.9472e-08
-5.92609e-08
3.5551e-08
8.42062e-08
4.42857e-08
-5.53801e-08
6.64346e-08
-4.86535e-07
3.34681e-08
-5.96858e-07
3.92586e-09
-5.86017e-07
-2.49979e-08
-5.86767e-07
-5.37886e-08
-5.99727e-07
-6.44503e-08
-5.22395e-07
-7.94772e-08
-2.44897e-07
-1.5614e-07
-1.18992e-07
-7.62017e-08
1.33327e-08
9.8423e-08
3.12802e-08
-1.62862e-07
7.14387e-08
-5.26694e-07
3.29097e-08
-5.58328e-07
-1.34604e-09
-5.51761e-07
-3.36261e-08
-5.54487e-07
-6.69422e-08
-5.66411e-07
-4.92924e-08
-5.40045e-07
-8.48819e-08
-2.09309e-07
-9.40484e-08
-1.46979e-07
1.94325e-08
-5.94233e-09
-1.58922e-10
6.49551e-08
-2.08377e-07
6.81119e-08
-5.29855e-07
3.39011e-08
-5.24118e-07
2.99836e-09
-5.20858e-07
-2.45325e-08
-5.26956e-07
-5.90983e-08
-5.31845e-07
-6.20823e-08
-5.3706e-07
-8.34702e-08
-1.87932e-07
-4.48377e-08
-1.32683e-07
9.22561e-08
-1.91244e-08
-7.90753e-08
9.00194e-08
-2.06121e-07
3.94587e-08
-4.79284e-07
5.71041e-09
-4.90369e-07
-2.318e-08
-4.91968e-07
-6.20416e-08
-4.88094e-07
-1.00715e-07
-4.93171e-07
-1.53676e-07
-4.841e-07
-1.31332e-07
-2.10288e-07
-2.0676e-08
-1.55493e-07
1.40274e-07
-2.92063e-08
-1.30193e-07
1.26742e-07
-1.92643e-07
8.62947e-08
-4.38844e-07
4.51432e-08
-4.49218e-07
8.43418e-09
-4.55259e-07
-3.11072e-08
-4.48553e-07
-7.15353e-08
-4.52743e-07
-1.15742e-07
-4.39893e-07
-1.23555e-07
-2.02475e-07
3.4013e-11
-1.44268e-07
1.24712e-07
-3.19304e-08
-1.21986e-07
1.34288e-07
-2.02187e-07
8.66207e-08
-3.91181e-07
4.65877e-08
-4.09185e-07
6.05841e-09
-4.1473e-07
-3.17787e-08
-4.10716e-07
-8.59966e-08
-3.98525e-07
-1.40535e-07
-3.85354e-07
-1.19871e-07
-2.23136e-07
-1.78839e-09
-1.18048e-07
7.19223e-08
-4.86667e-08
-5.51898e-08
1.36494e-07
-2.66752e-07
8.57763e-08
-3.40464e-07
3.42581e-08
-3.57667e-07
-1.43865e-08
-3.66085e-07
-5.80563e-08
-3.67046e-07
-9.54583e-08
-3.61123e-07
-1.34632e-07
-3.4618e-07
-6.61039e-08
-2.91666e-07
-4.00653e-08
-2.78266e-08
1.35561e-07
-7.43061e-08
-1.09922e-07
1.52652e-07
-2.83831e-07
1.15396e-07
-3.03208e-07
7.77939e-08
-3.20064e-07
2.80652e-08
-3.16357e-07
-2.58837e-08
-3.13097e-07
-7.7101e-08
-3.09906e-07
-1.22756e-07
-3.00525e-07
-1.35349e-07
-2.79073e-07
-8.50187e-08
-9.03947e-08
2.05476e-07
-1.87277e-07
-9.25065e-08
1.40323e-07
-2.18679e-07
8.89343e-08
-2.51819e-07
2.91775e-08
-2.60307e-07
-2.18689e-08
-2.6531e-07