/*--------------------------------*- C++ -*----------------------------------*\
  =========                 |
  \\      /  F ield         | OpenFOAM: The Open Source CFD Toolbox
   \\    /   O peration     | Website:  https://openfoam.org
    \\  /    A nd           | Version:  8
     \\/     M anipulation  |
\*---------------------------------------------------------------------------*/
FoamFile
{
    version     2.0;
    format      ascii;
    class       volScalarField;
    location    "10";
    object      alpha.water;
}
// * * * * * * * * * * * * * * * * * * * * * * * * * * * * * * * * * * * * * //

dimensions      [0 0 0 0 0 0 0];

internalField   nonuniform List<scalar> 
9150
(
1
1
0.999998
0.999999
1
1
1
1
1
1
1
1
0.999999
1
1
1
1
1
1
1
1
1
1
1
1
1
1
1
0.999999
0.999999
1
1
1
1
1
1
1
0.999999
0.999999
1
1
1
1
1
1
1
1
1
1
1
0.999997
1
1
1.00001
1
1
1
1
1
0.99999
1
1
1
1
1
0.999998
1
1
1
0.999999
1
1
1
1
1
0.999998
0.999999
1
1
1
1
1
1
1
0.999999
0.999999
0.999999
1
1
1
1
1
1
1
1
1
1
1
1
1
0.999997
0.999994
0.999994
0.999998
0.999998
0.999999
1
1
1
0.891458
0.999989
0.99999
0.999998
0.999996
0.999996
0.999998
1
1
1
1
0.999989
0.999996
1
1
0.999999
1
1
0.999998
0.999996
0.999999
0.99999
1
1.00001
1
1
1
1
0.999997
0.99999
0.999992
0.99999
1
1
1
1
1
1
0.999999
0.999991
0.999989
0.994478
0.995739
0.999237
0.999343
0.999156
0.999356
0.999364
0.999364
0.997715
0.993987
0.994479
0.994834
0.999038
0.999505
0.99932
0.999363
0.999364
0.999364
0.999363
0.997855
0.998985
0.994843
0.996692
0.999523
0.999549
0.999355
0.998853
0.999364
0.999364
0.998737
0.999435
0.995928
0.997021
0.999549
0.999549
0.99841
0.997992
0.999363
0.999362
0.999362
0.999438
0.999438
0.996638
0.999063
0.999549
0.999289
0.997992
0.998496
0.99796
0.992262
0.999438
0.999438
0.995045
0.997333
0.99955
0.999551
0.999552
0.999552
0.994847
0.990921
0.999438
0.998483
0.994911
0.994912
0.998909
0.999552
0.999552
0.999552
0.999552
0.992437
0.996675
0.994911
0.994911
0.994911
0.995797
0.999053
0.999552
0.999552
0.999552
0.994993
0.995156
0.99514
0.995201
0.995953
0.996619
0.998816
0.999552
0.999552
0.999552
0.997556
0.998131
0.999234
0.999229
0.999496
0.999479
0.999396
0.999552
0.999552
0.999552
0.998732
0.999291
0.999267
0.999411
0.999552
0.999552
0.999552
0.999552
0.999552
0.999075
0.999413
0.991463
0.991494
0.997368
0.999552
0.999552
0.999552
0.999552
0.994776
0.997732
0.999413
0.996456
0.995594
0.998027
0.999545
0.999089
0.995397
0.989518
0.989287
0.995142
0.999413
0.999186
0.999185
0.999357
0.999419
0.997224
0.989288
0.989287
0.989287
0.992663
0.999374
0.998443
0.999186
0.999113
0.99933
0.99943
0.992759
0.989287
0.989287
0.993631
0.999367
0.995204
0.999178
0.995458
0.996841
0.999439
0.99944
0.991413
0.989287
0.997429
0.999364
0.994745
0.994668
0.994668
0.997903
0.999444
0.999444
0.998408
0.997249
0.999117
0.999364
0.99468
0.994668
0.99648
0.999273
0.999444
0.999444
0.999444
0.999443
0.999307
0.997574
0.996237
0.998778
0.998045
0.996786
0.998179
0.999444
0.999444
0.999444
0.999332
0.995767
0.999445
0.998935
0.996788
0.996785
0.998522
0.999444
0.999444
0.999444
0.999444
0.994995
0.999445
0.998894
0.996792
0.998892
0.999444
0.999444
0.999444
0.999444
0.998279
0.990453
0.999445
0.999445
0.999445
0.999445
0.999445
0.999444
0.996191
0.992773
0.99045
0.990448
0.999445
0.999445
0.999445
0.999445
0.998988
0.991806
0.990449
0.990448
0.990448
0.990448
0.999445
0.999445
0.999445
0.999445
0.999444
0.995485
0.990448
0.990448
0.990448
0.990448
0.999445
0.999445
0.999445
0.999445
0.999445
0.999444
0.998187
0.994535
0.991683
0.991608
0.997472
0.999445
0.999445
0.999445
0.999444
0.999444
0.999444
0.999431
0.999252
0.999231
0.96696
0.973016
0.993934
0.997151
0.993622
0.995167
0.999442
0.999303
0.99944
0.99944
0.965241
0.965172
0.965922
0.966312
0.965166
0.965167
0.967503
0.993048
0.99944
0.999441
0.965172
0.965167
0.965162
0.965162
0.965164
0.965166
0.966156
0.995533
0.999439
0.999441
0.97342
0.965162
0.965162
0.965162
0.97015
0.989079
0.998915
0.998921
0.998926
0.99906
0.996183
0.992417
0.990653
0.98847
0.984661
0.990121
0.988392
0.983948
0.984024
0.994813
0.998868
0.980942
0.974833
0.974833
0.974986
0.97495
0.982803
0.983874
0.984725
0.992692
0.997187
0.991561
0.989598
0.990683
0.993649
0.994627
0.994555
0.994645
0.996209
0.998042
0.998111
0.998356
0.998161
0.998515
0.999359
0.999359
0.999359
0.995484
0.976583
0.962193
0.999342
0.999344
0.999346
0.999351
0.999357
0.999359
0.99936
0.999348
0.997917
0.958883
0.999341
0.999342
0.9992
0.999186
0.99903
0.999354
0.998047
0.998239
0.977311
0.956814
0.98277
0.980863
0.975474
0.975086
0.973553
0.980332
0.976991
0.956916
0.9569
0.95686
0.962585
0.962585
0.962585
0.962612
0.962717
0.962808
0.973355
0.965019
0.956916
0.959621
0.97201
0.974979
0.977767
0.981822
0.977376
0.987554
0.999147
0.999114
0.99567
0.971134
0.999144
0.999145
0.999147
0.999147
0.999147
0.999147
0.999147
0.989789
0.968593
0.974119
0.999144
0.999144
0.999138
0.999147
0.999147
0.999147
0.999147
0.994137
0.968568
0.992323
0.997158
0.983476
0.986418
0.998566
0.999147
0.999147
0.999147
0.999147
0.985076
0.975261
0.994053
0.965492
0.975685
0.994772
0.998844
0.999147
0.999147
0.999147
0.999147
0.98284
0.989682
0.964887
0.979507
0.986387
0.997239
0.999144
0.999147
0.999147
0.999147
0.987522
0.979572
0.964871
0.940208
0.979962
0.997623
0.999117
0.999144
0.999147
0.999147
0.999008
0.977375
0.9003
0.900678
0.99276
0.998786
0.996151
0.982386
0.967815
0.92299
0.987636
0.933354
0.890695
0.904587
0.994698
0.998786
0.962245
0.896306
0.896304
0.896445
0.904659
0.890539
0.890539
0.945827
0.97614
0.99841
0.941203
0.896304
0.896304
0.896304
0.915368
0.890539
0.890539
0.94469
0.956311
0.987342
0.99196
0.928497
0.896304
0.915085
0.998515
0.890539
0.890539
0.946478
0.994533
0.970922
0.991947
0.967027
0.899266
0.998884
0.998913
0.890543
0.890543
0.98787
0.9961
0.964892
0.988351
0.987371
0.978118
0.998853
0.998884
0.931969
0.930792
0.994119
0.995774
0.964839
0.96561
0.998801
0.998826
0.998846
0.998845
0.995988
0.985994
0.995465
0.999051
0.977626
0.965377
0.998799
0.998802
0.998826
0.994093
0.99443
0.994983
0.998563
0.999163
0.99263
0.965198
0.998213
0.998799
0.998795
0.971088
0.985574
0.994263
0.999163
0.999163
0.996361
0.965423
0.998783
0.998793
0.998569
0.962737
0.997553
0.998993
0.999163
0.999163
0.990148
0.965531
0.998777
0.998783
0.998773
0.978137
0.999163
0.999163
0.999163
0.999163
0.98214
0.965774
0.998778
0.998775
0.989803
0.998308
0.998339
0.998786
0.999163
0.99916
0.986092
0.98364
0.996952
0.952632
0.990013
0.998936
0.995013
0.994283
0.998072
0.99916
0.99796
0.98908
0.929541
0.899249
0.982349
0.998941
0.993778
0.996816
0.999098
0.999154
0.999132
0.933572
0.89357
0.897988
0.989336
0.999
0.998777
0.999019
0.999053
0.995884
0.934164
0.89342
0.893382
0.896772
0.990018
0.999044
0.999112
0.999097
0.993196
0.927453
0.8934
0.893338
0.89334
0.893407
0.974844
0.999053
0.999125
0.999112
0.985061
0.8934
0.893337
0.893334
0.893334
0.89334
0.935243
0.999053
0.999127
0.999124
0.997277
0.934783
0.893334
0.893334
0.893334
0.893334
0.939788
0.999059
0.999127
0.999127
0.999117
0.99551
0.947773
0.89861
0.893334
0.901948
0.977489
0.999061
0.814925
0.869836
0.996601
0.996785
0.99661
0.988576
0.97195
0.982043
0.998283
0.999062
0.791906
0.791931
0.798932
0.892206
0.95351
0.988788
0.998703
0.999021
0.99906
0.999062
0.791906
0.791906
0.791931
0.792059
0.792619
0.802878
0.889891
0.958484
0.975844
0.98275
0.791906
0.791931
0.792059
0.818686
0.915185
0.92952
0.8948
0.895296
0.896149
0.897217
0.924592
0.923549
0.984443
0.992377
0.992377
0.99238
0.976551
0.965696
0.980816
0.98337
0.940749
0.932628
0.992209
0.992377
0.99238
0.99238
0.99238
0.987978
0.989469
0.991698
0.99577
0.985052
0.9713
0.987618
0.992337
0.99238
0.992194
0.931272
0.830458
0.903402
0.998683
0.979681
0.918257
0.900239
0.965653
0.992209
0.991839
0.841537
0.657447
0.654769
0.9929
0.913146
0.900156
0.900128
0.900239
0.945253
0.983874
0.9204
0.741736
0.623409
0.993261
0.923231
0.900155
0.900239
0.901867
0.90405
0.91735
0.976962
0.977007
0.887596
0.95842
0.958057
0.959222
0.953482
0.939483
0.921604
0.940573
0.977007
0.977007
0.977007
0.698649
0.84918
0.999221
0.999243
0.999236
0.999243
0.999141
0.972902
0.977007
0.934987
0.678832
0.679497
0.93603
0.999221
0.999243
0.999242
0.999242
0.992015
0.951094
0.762159
0.787976
0.678832
0.787415
0.996984
0.999186
0.999242
0.999121
0.99876
0.88514
0.749155
0.998623
0.810071
0.653262
0.880024
0.992724
0.999106
0.996426
0.997264
0.862232
0.74921
0.998153
0.89728
0.553518
0.614
0.802196
0.97143
0.996005
0.998474
0.923346
0.756816
0.732338
0.550367
0.550208
0.550203
0.550202
0.826156
0.994959
0.998592
0.992996
0.94506
0.550372
0.550212
0.550203
0.550201
0.550202
0.599627
0.961621
0.999269
0.999972
0.999972
0.700081
0.550372
0.550212
0.550202
0.550201
0.550203
0.838208
0.997162
0.999888
0.999975
0.996661
0.705184
0.550479
0.550229
0.550203
0.550202
0.656417
0.969387
0.999312
0.999956
0.992131
0.844804
0.551493
0.550394
0.550224
0.550203
0.550224
0.895554
0.999317
0.999941
0.566301
0.54969
0.550392
0.550252
0.550238
0.550224
0.550238
0.859002
0.99954
0.999946
0.97784
0.884951
0.554942
0.550318
0.550249
0.550238
0.578666
0.943214
0.999691
0.999936
0.977926
0.662734
0.550502
0.550376
0.550318
0.550248
0.765642
0.997694
0.999845
0.999921
0.7919
0.551673
0.551134
0.550503
0.550376
0.709271
0.993395
0.999687
0.999825
0.99986
0.815326
0.578077
0.551674
0.615433
0.930212
0.999372
0.999341
0.999161
0.999383
0.999663
0.954262
0.914665
0.935157
0.999125
0.999372
0.999372
0.999372
0.996974
0.98319
0.994947
0.752927
0.862731
0.995489
0.996557
0.999236
0.999372
0.998541
0.974282
0.971607
0.976273
0.996604
0.987612
0.985993
0.991413
0.999097
0.992157
0.96447
0.964909
0.987614
0.979551
0.996707
0.982391
0.991949
0.991945
0.980592
0.960637
0.960637
0.986105
0.996253
0.957821
0.979878
0.981645
0.991949
0.976138
0.962972
0.97286
0.997237
0.997236
0.997201
0.959471
0.992474
0.987633
0.980149
0.993175
0.995406
0.99697
0.997237
0.997237
0.997185
0.993814
0.992995
0.927363
0.862108
0.837266
0.820373
0.78738
0.802509
0.932874
0.992893
0.9966
0.76549
0.762077
0.761511
0.687006
0.654538
0.618158
0.584166
0.5676
0.567898
0.771956
0.999998
0.999998
0.999998
0.999998
0.999998
0.999999
0.999999
0.905402
0.63982
0.254004
0.993987
0.993987
0.993987
0.993987
0.994091
0.997879
0.99783
0.997711
0.99757
0.998205
0.999304
0.999304
0.999141
0.998985
0.999034
0.999099
0.999099
0.999014
0.998887
0.998887
0.99895
0.99906
0.998548
0.99554
0.995936
0.999129
0.999129
0.999129
0.997737
0.996702
0.996316
0.99569
0.995291
0.995977
0.996992
0.998866
0.998953
0.998953
0.998729
0.998349
0.993987
0.993987
0.993988
0.997096
0.99835
0.99788
0.997393
0.995199
0.995193
0.995974
0.999291
0.999304
0.998769
0.994893
0.994593
0.997076
0.999099
0.9991
0.9991
0.998997
0.9991
0.9991
0.9991
0.995982
0.99594
0.999129
0.999129
0.999129
0.997789
0.99348
0.993479
0.993874
0.994235
0.994154
0.993699
0.993697
0.993697
0.993697
0.998318
0.998679
0.998201
0.999421
0.999424
0.999425
0.999425
0.999425
0.999425
0.999376
0.995985
0.99853
0.999304
0.999304
0.997989
0.994593
0.994593
0.994593
0.994594
0.998448
0.9991
0.9991
0.9991
0.9991
0.9991
0.996032
0.99596
0.999129
0.999129
0.996295
0.993569
0.993589
0.997633
0.999116
0.999116
0.999116
0.998543
0.997389
0.996363
0.9982
0.99868
0.99868
0.99851
0.997733
0.99784
0.99907
0.999425
0.999425
0.999425
0.999419
0.999409
0.99881
0.999252
0.999123
0.995128
0.994603
0.998241
0.998713
0.994937
0.988919
0.996834
0.9991
0.9991
0.9991
0.999089
0.996034
0.998842
0.999129
0.998748
0.995954
0.997977
0.999116
0.999116
0.999116
0.999116
0.999116
0.999116
0.999116
0.998201
0.995608
0.99868
0.99868
0.990921
0.990921
0.990921
0.993128
0.999272
0.999425
0.998149
0.997005
0.993916
0.99393
0.996273
0.999101
0.999098
0.999079
0.999093
0.996411
0.988979
0.988218
0.99287
0.9991
0.9991
0.9991
0.9991
0.998423
0.998837
0.995528
0.986412
0.997786
0.999059
0.999116
0.999116
0.999116
0.999116
0.999116
0.999116
0.99893
0.994548
0.972461
0.978808
0.976864
0.990921
0.990921
0.990921
0.990921
0.99871
0.998599
0.992261
0.992261
0.992261
0.996857
0.999096
0.999098
0.999097
0.999097
0.999097
0.990099
0.988207
0.988207
0.997626
0.9991
0.9991
0.9991
0.9991
0.999093
0.991358
0.985732
0.985732
0.985732
0.988442
0.99496
0.998856
0.999116
0.999116
0.999116
0.999116
0.997571
0.99665
0.974754
0.966595
0.966542
0.990921
0.990921
0.990921
0.995949
0.998701
0.993856
0.992269
0.992264
0.997302
0.9974
0.997402
0.998137
0.999097
0.999097
0.994514
0.98822
0.988207
0.995054
0.9991
0.9991
0.9991
0.998103
0.990433
0.98622
0.98622
0.986227
0.98614
0.985744
0.985761
0.985769
0.992425
0.999114
0.999116
0.999116
0.999116
0.999116
0.991364
0.988192
0.97222
0.966545
0.990925
0.990921
0.996652
0.998435
0.995492
0.993842
0.995228
0.997445
0.995179
0.990131
0.996334
0.999095
0.999097
0.996905
0.98823
0.988229
0.991786
0.994994
0.992465
0.989467
0.989465
0.99038
0.986255
0.986224
0.988289
0.997648
0.998749
0.990026
0.98832
0.997541
0.998312
0.998327
0.99756
0.997777
0.999112
0.999116
0.997634
0.981502
0.983712
0.97763
0.990935
0.997953
0.999413
0.998436
0.995495
0.997774
0.997059
0.990075
0.990074
0.990076
0.99637
0.999094
0.999095
0.997344
0.98823
0.988229
0.988229
0.988243
0.988266
0.992463
0.995466
0.995467
0.993029
0.995759
0.998753
0.998753
0.998753
0.998749
0.99874
0.99542
0.997103
0.990794
0.984496
0.984489
0.984521
0.99847
0.991607
0.976439
0.986021
0.993869
0.998793
0.999413
0.999413
0.997713
0.997782
0.999413
0.999412
0.998764
0.992258
0.990129
0.996181
0.999094
0.999094
0.999093
0.997461
0.988493
0.988243
0.989283
0.997211
0.997103
0.994639
0.993349
0.994731
0.998468
0.998742
0.998753
0.997796
0.99661
0.989853
0.989828
0.990378
0.986955
0.984487
0.984496
0.990657
0.998385
0.992691
0.976371
0.980978
0.993891
0.999413
0.999413
0.999413
0.999413
0.999413
0.999413
0.999413
0.999108
0.998274
0.997408
0.999094
0.999094
0.999094
0.998273
0.991273
0.990485
0.998476
0.998789
0.998371
0.992272
0.987874
0.990222
0.994863
0.984659
0.97528
0.996215
0.987965
0.984495
0.996202
0.996388
0.996392
0.99639
0.986942
0.987147
0.992978
0.993623
0.977986
0.976404
0.986912
0.993904
0.999413
0.999386
0.999413
0.999413
0.999413
0.999413
0.999413
0.999176
0.999178
0.999177
0.989082
0.979066
0.993527
0.991544
0.981206
0.981206
0.98276
0.998827
0.994409
0.987787
0.987831
0.994899
0.9947
0.960351
0.951098
0.967985
0.987026
0.97395
0.969682
0.968969
0.995193
0.996392
0.983759
0.976201
0.976137
0.976048
0.976061
0.985597
0.993904
0.993904
0.999413
0.999413
0.994664
0.971612
0.968064
0.993491
0.998172
0.999177
0.989592
0.960348
0.957177
0.957387
0.980383
0.998954
0.994414
0.994582
0.998947
0.998862
0.989928
0.987787
0.987788
0.994874
0.9939
0.961166
0.951098
0.951151
0.956187
0.961018
0.915012
0.903568
0.926487
0.992351
0.999012
0.99131
0.976201
0.978207
0.984278
0.993902
0.993904
0.993904
0.999413
0.994676
0.964928
0.963265
0.963289
0.964556
0.991448
0.984676
0.957121
0.957122
0.957143
0.958835
0.99727
0.998954
0.998954
0.998951
0.998948
0.998881
0.99299
0.987962
0.98801
0.988201
0.993875
0.991597
0.974649
0.972177
0.993624
0.984148
0.998169
0.94727
0.88393
0.933551
0.999084
0.999084
0.999081
0.99794
0.975267
0.945513
0.953864
0.966292
0.999404
0.9809
0.963265
0.963265
0.963265
0.97019
0.998482
0.96973
0.957121
0.95712
0.957122
0.989552
0.998954
0.998954
0.998772
0.998158
0.998157
0.998318
0.99908
0.998908
0.998644
0.997861
0.99092
0.990939
0.998065
0.99819
0.998191
0.99819
0.998191
0.957281
0.883439
0.896067
0.982683
0.999084
0.999081
0.999076
0.964414
0.92825
0.928221
0.928356
0.999254
0.97577
0.963275
0.963265
0.969405
0.997884
0.998673
0.981162
0.95712
0.957122
0.993209
0.998938
0.998945
0.997738
0.995124
0.995124
0.996219
0.999396
0.999482
0.999482
0.999482
0.999482
0.998997
0.993622
0.988199
0.990587
0.998079
0.998191
0.995731
0.909717
0.883432
0.883432
0.885348
0.969637
0.999076
0.999077
0.99567
0.957906
0.929007
0.93711
0.999276
0.982714
0.963278
0.972968
0.997867
0.998717
0.998717
0.992004
0.975156
0.990827
0.99748
0.99591
0.995019
0.995018
0.995277
0.99695
0.99935
0.999482
0.999482
0.999482
0.999482
0.999482
0.999482
0.999482
0.989308
0.986693
0.992845
0.99819
0.995151
0.913805
0.883431
0.883431
0.883431
0.883434
0.930456
0.999067
0.999034
0.998388
0.99224
0.992019
0.999212
0.996731
0.988659
0.996591
0.999401
0.998188
0.992191
0.991591
0.993474
0.998826
0.998844
0.995521
0.995018
0.996877
0.999482
0.999482
0.999482
0.999482
0.999482
0.999482
0.999482
0.999482
0.999482
0.999482
0.998054
0.986693
0.989384
0.997632
0.997996
0.982067
0.883431
0.883431
0.883431
0.883431
0.883434
0.975839
0.996007
0.983622
0.979379
0.973928
0.998297
0.99944
0.999439
0.99944
0.999431
0.995167
0.99159
0.991588
0.993592
0.998169
0.998967
0.99902
0.998372
0.999355
0.999479
0.999482
0.999482
0.999482
0.999482
0.999483
0.999482
0.999482
0.999482
0.999482
0.999482
0.991459
0.988505
0.99679
0.997999
0.997802
0.992339
0.956832
0.940935
0.972709
0.985268
0.980048
0.957277
0.957262
0.957292
0.957395
0.992342
0.999441
0.999441
0.999441
0.99944
0.997792
0.994084
0.99485
0.998467
0.999297
0.99944
0.998702
0.995404
0.997733
0.999354
0.999478
0.99948
0.999481
0.999292
0.999483
0.999482
0.999482
0.999482
0.999482
0.999482
0.993787
0.988505
0.996765
0.998996
0.994526
0.997339
0.997337
0.992491
0.990156
0.994677
0.994677
0.985522
0.976433
0.968911
0.961515
0.990476
0.999441
0.999441
0.999441
0.999441
0.99944
0.999415
0.999435
0.99944
0.99944
0.99944
0.995402
0.995402
0.997513
0.992729
0.980826
0.993295
0.994336
0.993665
0.999151
0.999482
0.999482
0.999482
0.999482
0.996266
0.989418
0.997609
0.998997
0.998997
0.994722
0.997342
0.997343
0.99583
0.99035
0.989444
0.991711
0.996616
0.996678
0.996528
0.995634
0.990448
0.994518
0.998904
0.999441
0.999441
0.999441
0.999441
0.999441
0.99944
0.99942
0.995193
0.995197
0.997954
0.998099
0.989137
0.924706
0.927613
0.974078
0.989255
0.994883
0.994784
0.996822
0.995718
0.998726
0.989998
0.988489
0.990336
0.998815
0.998998
0.998208
0.988808
0.994958
0.997984
0.996065
0.989436
0.989293
0.993241
0.996678
0.996678
0.996678
0.990448
0.990448
0.993669
0.999402
0.999441
0.999441
0.999441
0.999441
0.997223
0.994167
0.994167
0.997314
0.998099
0.998099
0.998099
0.932543
0.904239
0.903836
0.941688
0.979129
0.98627
0.987055
0.987267
0.990682
0.990771
0.98852
0.989032
0.998201
0.998998
0.998996
0.98814
0.988072
0.997986
0.998501
0.997249
0.989285
0.988033
0.988024
0.988013
0.988268
0.990448
0.990448
0.994738
0.99944
0.999441
0.999441
0.999441
0.99634
0.990421
0.996796
0.998095
0.998099
0.998099
0.998099
0.998099
0.998099
0.911677
0.901978
0.90197
0.915499
0.980728
0.995328
0.995929
0.988585
0.987229
0.995249
0.998612
0.998745
0.998996
0.983528
0.986332
0.99219
0.998501
0.998501
0.998501
0.99836
0.994204
0.990639
0.986757
0.986757
0.99359
0.996996
0.999108
0.999441
0.999441
0.999441
0.993394
0.985014
0.985
0.986942
0.997847
0.998099
0.998099
0.998099
0.998099
0.998099
0.912828
0.90197
0.901964
0.901964
0.930014
0.997467
0.999416
0.999417
0.981782
0.977237
0.997214
0.998735
0.976766
0.956637
0.983385
0.9957
0.998195
0.998501
0.99212
0.984275
0.995745
0.998514
0.998596
0.990138
0.999377
0.999441
0.999441
0.999441
0.999441
0.999441
0.987021
0.985
0.985002
0.985002
0.997077
0.998099
0.998099
0.998099
0.998099
0.989274
0.906073
0.901967
0.901964
0.901964
0.914443
0.994239
0.999417
0.999419
0.981603
0.969801
0.974199
0.998626
0.95938
0.956637
0.962636
0.994604
0.990689
0.978252
0.972125
0.97211
0.972116
0.987507
0.998731
0.9976
0.999441
0.999441
0.999441
0.999441
0.999441
0.979051
0.982863
0.996817
0.996846
0.996863
0.997486
0.998098
0.998099
0.998099
0.998099
0.998098
0.975124
0.902013
0.901967
0.901964
0.944741
0.999199
0.999419
0.999419
0.991909
0.969675
0.969675
0.987496
0.982416
0.956637
0.961877
0.994032
0.987828
0.986425
0.97819
0.972125
0.980549
0.998542
0.998731
0.998731
0.999441
0.999441
0.999441
0.999144
0.989768
0.9646
0.971491
0.984525
0.96883
0.953272
0.978184
0.998091
0.998098
0.998099
0.998098
0.998097
0.998011
0.922738
0.902013
0.935994
0.998159
0.999419
0.999419
0.999419
0.999419
0.986017
0.969675
0.983699
0.99749
0.95676
0.978519
0.995344
0.987806
0.994292
0.998716
0.998886
0.9981
0.996309
0.996713
0.997193
0.999441
0.999441
0.999441
0.995607
0.99557
0.964942
0.941213
0.941209
0.941209
0.941209
0.952981
0.996642
0.998092
0.998098
0.99711
0.99041
0.921089
0.950605
0.995591
0.999417
0.999419
0.999419
0.999419
0.999419
0.999419
0.99812
0.981087
0.993682
0.999404
0.958171
0.990687
0.995496
0.995159
0.99524
0.998694
0.99889
0.997098
0.996089
0.996089
0.996125
0.999426
0.999441
0.999441
0.999441
0.976447
0.941216
0.94121
0.94121
0.941209
0.941213
0.983236
0.998037
0.998062
0.998092
0.956603
0.914502
0.914491
0.914488
0.91449
0.962468
0.998203
0.999419
0.999419
0.999387
0.999419
0.998193
0.997995
0.999349
0.99942
0.969499
0.988503
0.995745
0.998834
0.996804
0.998817
0.99889
0.998634
0.99799
0.9981
0.995511
0.99944
0.99944
0.999175
0.999211
0.99694
0.944443
0.941216
0.94121
0.980601
0.983881
0.982041
0.994047
0.998037
0.977977
0.914583
0.914547
0.914502
0.918722
0.91466
0.92258
0.981375
0.999402
0.999419
0.996121
0.996429
0.999305
0.999419
0.99942
0.999421
0.993238
0.943665
0.991528
0.998878
0.998889
0.99889
0.99889
0.99889
0.998889
0.998888
0.981426
0.999439
0.99944
0.992665
0.947068
0.943873
0.943311
0.94311
0.99123
0.994229
0.98452
0.966118
0.985749
0.997962
0.980005
0.920091
0.914583
0.946147
0.9953
0.995213
0.995205
0.993883
0.99644
0.997503
0.995357
0.995375
0.997912
0.99942
0.999421
0.999421
0.989708
0.94359
0.958371
0.998889
0.99889
0.99889
0.99889
0.99889
0.99889
0.987115
0.974442
0.998933
0.999319
0.999251
0.997853
0.980656
0.986207
0.999047
0.999036
0.990119
0.966118
0.966118
0.98556
0.996197
0.994989
0.995885
0.993807
0.995379
0.995379
0.993216
0.95294
0.952715
0.967924
0.996907
0.995909
0.996518
0.999277
0.999421
0.999421
0.999421
0.999421
0.943719
0.9323
0.979689
0.99889
0.99889
0.99889
0.99889
0.997629
0.978282
0.974442
0.982014
0.993863
0.998823
0.999063
0.999064
0.999064
0.999064
0.99897
0.967703
0.966121
0.971083
0.995761
0.996065
0.995971
0.995938
0.976259
0.992947
0.986365
0.918606
0.918768
0.952653
0.986246
0.986519
0.996379
0.999347
0.999421
0.999421
0.999421
0.999421
0.999421
0.943579
0.932056
0.931825
0.969573
0.99889
0.99889
0.998888
0.990679
0.974442
0.974442
0.956804
0.956806
0.977307
0.999044
0.999063
0.999064
0.999064
0.977394
0.967325
0.972256
0.991505
0.995392
0.989922
0.99038
0.965292
0.957459
0.950254
0.914856
0.914904
0.950621
0.995114
0.984897
0.980354
0.992077
0.999421
0.999421
0.999421
0.999421
0.999421
0.999421
0.9556
0.931825
0.931766
0.931724
0.940203
0.967164
0.98969
0.987089
0.974444
0.980314
0.956806
0.956805
0.964003
0.99742
0.999062
0.999063
0.994506
0.973796
0.983481
0.985729
0.985121
0.966755
0.955814
0.955814
0.95752
0.975497
0.914856
0.914856
0.914856
0.974471
0.99589
0.984994
0.980382
0.980354
0.982016
0.982979
0.984807
0.990214
0.998843
0.99942
0.992247
0.934517
0.931724
0.931688
0.931671
0.931675
0.936724
0.982275
0.991824
0.99773
0.956814
0.959172
0.993007
0.999059
0.999062
0.999062
0.95846
0.981038
0.988335
0.97989
0.961797
0.961777
0.96486
0.965534
0.988409
0.989102
0.93224
0.922895
0.91495
0.940941
0.996251
0.996302
0.991176
0.992277
0.994742
0.992515
0.983062
0.983062
0.988819
0.999402
0.999371
0.980366
0.934157
0.931668
0.931667
0.931667
0.931675
0.988618
0.998812
0.998814
0.983235
0.992338
0.997682
0.999058
0.999059
0.971182
0.940749
0.963121
0.988335
0.970339
0.961778
0.979596
0.989159
0.989175
0.989039
0.989096
0.919413
0.918953
0.932565
0.932413
0.95384
0.998907
0.99891
0.998913
0.998876
0.99893
0.99613
0.985141
0.9929
0.999358
0.999338
0.992186
0.932156
0.931667
0.931667
0.931667
0.968281
0.998762
0.998814
0.998814
0.961384
0.961335
0.981881
0.974408
0.928749
0.91998
0.944626
0.990328
0.97734
0.969758
0.986032
0.991204
0.982298
0.937174
0.915408
0.877801
0.874991
0.876163
0.958052
0.946804
0.944773
0.969682
0.998913
0.998916
0.998903
0.998931
0.999041
0.998916
0.999218
0.999326
0.989229
0.939602
0.931686
0.931668
0.946079
0.970641
0.99881
0.998814
0.998814
0.998814
0.974897
0.945041
0.919911
0.919738
0.919737
0.919793
0.943627
0.990326
0.990328
0.973732
0.986044
0.986062
0.887203
0.874659
0.874659
0.874659
0.874685
0.892722
0.997648
0.998146
0.990463
0.998737
0.998916
0.998918
0.998964
0.999041
0.999041
0.999041
0.9974
0.96118
0.93278
0.931972
0.931704
0.965488
0.984128
0.984128
0.969742
0.961673
0.987105
0.989218
0.995858
0.994578
0.954605
0.919737
0.919738
0.919737
0.937925
0.990327
0.990326
0.962224
0.93792
0.926173
0.874782
0.874659
0.874659
0.87468
0.901201
0.998805
0.998805
0.998805
0.998805
0.998805
0.998153
0.998743
0.999037
0.999041
0.984827
0.961198
0.935004
0.933939
0.933204
0.958778
0.974863
0.97747
0.962394
0.946072
0.945961
0.945961
0.945961
0.946072
0.990578
0.998524
0.998531
0.984095
0.964126
0.919799
0.931537
0.989751
0.986497
0.922085
0.894664
0.894762
0.937598
0.913286
0.87468
0.874748
0.874795
0.923134
0.998805
0.998805
0.998805
0.997182
0.991249
0.996563
0.999032
0.998659
0.959587
0.934296
0.934283
0.934089
0.958003
0.998177
0.998069
0.973814
0.960355
0.960615
0.985233
0.976999
0.960587
0.954327
0.975019
0.975036
0.992318
0.998954
0.998953
0.967995
0.973066
0.995754
0.993732
0.949345
0.899487
0.896221
0.938823
0.962634
0.950151
0.874795
0.888454
0.997337
0.998805
0.998806
0.998805
0.996483
0.991232
0.991137
0.99119
0.994191
0.981677
0.934282
0.934258
0.938924
0.996922
0.998197
0.998197
0.982968
0.965972
0.976719
0.994821
0.997248
0.997243
0.985868
0.975071
0.984356
0.998799
0.998957
0.998954
0.998952
0.998914
0.998846
0.99127
0.969892
0.983942
0.968595
0.89533
0.937203
0.972642
0.96459
0.944367
0.998805
0.998806
0.998805
0.998805
0.998463
0.998716
0.998618
0.997414
0.989309
0.97311
0.95471
0.934259
0.954972
0.998197
0.998198
0.998199
0.99657
0.997234
0.996276
0.99207
0.994996
0.996627
0.955579
0.988269
0.998959
0.998959
0.998959
0.996904
0.996025
0.998902
0.998806
0.991056
0.992501
0.992186
0.941485
0.89533
0.928872
0.961079
0.938399
0.961304
0.998805
0.998805
0.998805
0.998803
0.998701
0.998719
0.998717
0.998699
0.998067
0.980845
0.976255
0.934259
0.956662
0.998197
0.998199
0.998199
0.998199
0.998181
0.998164
0.996883
0.997312
0.997313
0.961893
0.998959
0.998959
0.998959
0.99892
0.994981
0.994999
0.998902
0.998902
0.998901
0.998819
0.92972
0.857867
0.915513
0.995737
0.963417
0.973677
0.998762
0.998799
0.997119
0.998783
0.995383
0.989556
0.995912
0.997615
0.998477
0.998222
0.997366
0.994662
0.984981
0.986381
0.970267
0.98554
0.998199
0.998187
0.995506
0.971828
0.990306
0.997323
0.991542
0.898428
0.988505
0.998959
0.998959
0.998959
0.998911
0.998906
0.998902
0.998901
0.911856
0.855167
0.850225
0.857672
0.982798
0.998741
0.997059
0.998596
0.998052
0.964932
0.933553
0.957733
0.948313
0.937124
0.958598
0.991672
0.99822
0.988449
0.986713
0.994481
0.994402
0.986775
0.95757
0.957678
0.960479
0.973279
0.959087
0.95843
0.96463
0.997291
0.963977
0.871632
0.998958
0.998959
0.998959
0.998959
0.998957
0.986904
0.916648
0.85015
0.849142
0.849142
0.849142
0.967661
0.998741
0.998741
0.998741
0.997766
0.951101
0.907034
0.906879
0.907599
0.914212
0.944793
0.973479
0.997749
0.997369
0.969482
0.962248
0.967577
0.990164
0.984311
0.957628
0.958758
0.974006
0.964653
0.959198
0.967285
0.988252
0.997112
0.897904
0.871602
0.998958
0.998522
0.996447
0.920709
0.857657
0.850218
0.849223
0.849223
0.849182
0.910312
0.968093
0.998739
0.99874
0.998741
0.99681
0.939335
0.907688
0.911769
0.976413
0.991788
0.989378
0.995783
0.995784
0.992208
0.962425
0.962233
0.96226
0.962252
0.966796
0.985873
0.985733
0.98547
0.98369
0.980923
0.968891
0.969052
0.95104
0.905974
0.871602
0.871602
0.99895
0.93321
0.852375
0.852015
0.852015
0.851321
0.887524
0.934208
0.975367
0.997953
0.998694
0.998716
0.998739
0.971366
0.902092
0.901908
0.944024
0.994433
0.994446
0.99442
0.992675
0.994227
0.993357
0.962602
0.962354
0.962273
0.963495
0.985468
0.985537
0.985873
0.985874
0.984728
0.905542
0.874155
0.873386
0.87261
0.871835
0.871605
0.871602
0.871602
0.98916
0.877368
0.852476
0.91661
0.96599
0.964774
0.99626
0.998533
0.998606
0.998615
0.998654
0.998694
0.962172
0.901018
0.901335
0.945967
0.994383
0.994446
0.99442
0.966996
0.861739
0.877579
0.992687
0.985527
0.985167
0.984201
0.948157
0.877192
0.87704
0.877252
0.928671
0.981311
0.977101
0.974563
0.974139
0.961435
0.946391
0.944031
0.95334
0.925747
0.955358
0.878509
0.966405
0.998824
0.998828
0.998824
0.998625
0.998562
0.99857
0.998606
0.967351
0.906497
0.901018
0.901018
0.901018
0.957355
0.984855
0.994375
0.989776
0.857792
0.820964
0.820964
0.820964
0.82114
0.900255
0.982886
0.977823
0.910198
0.878107
0.973328
0.974382
0.97617
0.972592
0.956477
0.958119
0.979807
0.986211
0.96795
0.972104
0.972296
0.946675
0.928588
0.998827
0.998832
0.998831
0.998828
0.998824
0.998774
0.993032
0.921893
0.902327
0.902165
0.90151
0.944815
0.976935
0.953458
0.954173
0.994377
0.9951
0.982364
0.845964
0.820964
0.82114
0.835362
0.953224
0.873621
0.822913
0.822727
0.822727
0.822727
0.8323
0.960817
0.962018
0.9
0.899842
0.930091
0.987234
0.935385
0.935362
0.935385
0.945021
0.959209
0.998832
0.998832
0.998832
0.998831
0.998521
0.998635
0.998413
0.935478
0.903023
0.902681
0.974033
0.987285
0.987047
0.975987
0.995108
0.995108
0.995109
0.9951
0.994982
0.987461
0.971696
0.966875
0.965689
0.965576
0.964832
0.87581
0.822727
0.827368
0.947612
0.966782
0.956194
0.900926
0.928051
0.980813
0.996475
0.987339
0.965598
0.963623
0.94502
0.964754
0.998832
0.998832
0.998832
0.998831
0.998806
0.949836
0.777184
0.917441
0.985689
0.986703
0.987285
0.987285
0.987285
0.984726
0.980898
0.986351
0.9951
0.965088
0.91187
0.912556
0.957233
0.966736
0.903675
0.789307
0.882977
0.900396
0.909333
0.922031
0.921336
0.962383
0.987417
0.999091
0.999093
0.999094
0.999094
0.999094
0.999094
0.999094
0.945085
0.970777
0.998832
0.998832
0.998831
0.998806
0.922942
0.729965
0.707165
0.708222
0.782907
0.844445
0.911041
0.965006
0.98726
0.987271
0.984973
0.955577
0.966699
0.968501
0.819415
0.704536
0.749332
0.904991
0.858956
0.785014
0.782932
0.780716
0.780149
0.780437
0.779496
0.788756
0.888525
0.992674
0.999091
0.999093