/*--------------------------------*- C++ -*----------------------------------*\
  =========                 |
  \\      /  F ield         | OpenFOAM: The Open Source CFD Toolbox
   \\    /   O peration     | Website:  https://openfoam.org
    \\  /    A nd           | Version:  8
     \\/     M anipulation  |
\*---------------------------------------------------------------------------*/
FoamFile
{
    version     2.0;
    format      ascii;
    class       volScalarField;
    location    "10";
    object      p_rgh;
}
// * * * * * * * * * * * * * * * * * * * * * * * * * * * * * * * * * * * * * //

dimensions      [1 -1 -2 0 0 0 0];

internalField   nonuniform List<scalar> 
9150
(
1948.49
1947.48
1946.84
1946.35
1946.14
1946.15
1946.4
1946.88
1947.49
1948.49
1948.05
1947.54
1947.12
1946.8
1946.62
1946.61
1946.79
1947.12
1947.55
1948.06
1947.78
1947.5
1947.25
1947.03
1946.91
1946.91
1947.04
1947.25
1947.51
1947.79
1947.66
1947.49
1947.32
1947.16
1947.08
1947.08
1947.17
1947.33
1947.5
1947.67
1947.66
1947.48
1947.35
1947.22
1947.16
1947.16
1947.23
1947.35
1947.49
1947.67
1936.03
1935.33
1935.71
1936.23
1936.67
1936.85
1936.78
1936.49
1936.35
1937.17
1940.52
1939.77
1939.72
1939.72
1939.82
1939.9
1939.91
1940.06
1940.29
1941
1943.79
1943.07
1942.73
1942.37
1942.35
1942.4
1942.49
1942.85
1943.21
1943.98
1946.56
1945.38
1944.95
1944.38
1944.21
1944.23
1944.41
1945.11
1945.54
1946.68
1949.19
1947.15
1946.33
1945.68
1945.39
1945.43
1945.68
1946.38
1947.13
1949.18
1911.44
1914.8
1920.08
1925.73
1929.59
1932.58
1933.91
1933.88
1934.19
1721.25
1918.7
1921.26
1924.09
1926.93
1929.27
1931.32
1932.77
1933.55
1934.3
1934.14
1924.21
1925.7
1926.77
1928.34
1929.72
1930.92
1931.8
1932.33
1933.75
1933.83
1924.53
1927.23
1927.62
1929.67
1930.69
1931.47
1931.75
1931.16
1932.07
1929.87
1919.03
1929.87
1930.54
1932.45
1933.16
1933.46
1933.3
1932.61
1932.03
1923.32
1815.83
1815.8
1815.82
1815.8
1815.76
1815.71
1815.65
1815.59
1815.51
1815.47
1815.71
1815.75
1815.85
1815.85
1815.8
1815.75
1815.67
1815.59
1815.5
1815.4
1815.54
1815.65
1815.62
1815.74
1815.72
1815.68
1815.58
1815.5
1815.41
1815.3
1815.37
1815.26
1815.39
1815.62
1815.66
1815.5
1815.45
1815.27
1815.15
1815.04
1815.07
1815.23
1815.23
1815.42
1815.52
1815.45
1815.25
1815.14
1814.97
1814.41
1814.94
1815.13
1815.06
1815.31
1815.61
1815.61
1815.59
1815.53
1814.94
1814.47
1814.87
1815
1814.94
1815.14
1815.65
1815.77
1815.8
1815.82
1815.83
1814.96
1814.61
1814.64
1814.89
1815.09
1815.3
1815.79
1815.9
1815.93
1815.96
1815.33
1814.65
1814.81
1814.99
1815.24
1815.41
1815.77
1815.92
1815.96
1816
1815.74
1815.35
1815.7
1815.77
1815.87
1815.91
1815.93
1815.97
1815.99
1816
1815.9
1815.89
1815.9
1815.91
1815.94
1815.97
1816
1816.01
1816.02
1815.93
1816.01
1814.73
1814.67
1815.74
1816.16
1816.13
1816.1
1816.07
1815.11
1815.6
1815.93
1815.95
1815.67
1816.01
1816.32
1816.08
1815.14
1813.88
1813.86
1814.98
1815.98
1816.53
1816.44
1816.42
1816.34
1815.68
1813.64
1813.66
1813.68
1814.52
1816.29
1816.18
1816.37
1816.29
1816.31
1816.31
1814.46
1813.66
1813.62
1814.69
1816.58
1815.18
1816.4
1815.11
1815.42
1816.3
1816.33
1814.1
1813.71
1815.83
1816.59
1814.92
1814.79
1814.69
1815.59
1816.09
1816.13
1815.83
1815.59
1816.26
1816.44
1814.4
1814.31
1814.67
1815.58
1815.69
1815.75
1815.86
1816.04
1816.13
1815.63
1814.48
1815.27
1814.84
1814.35
1814.79
1815.41
1815.59
1815.75
1815.85
1814.86
1815.9
1815.62
1814.71
1814.69
1815.23
1815.63
1815.73
1815.85
1815.96
1814.41
1816.55
1816.22
1815.41
1815.99
1816.14
1816.13
1816.18
1816.26
1815.86
1812.9
1817.55
1817.43
1817.25
1817.08
1816.95
1816.89
1815.49
1814.1
1813.22
1813.27
1818.68
1818.54
1818.36
1818.18
1817.83
1814.67
1814.08
1814.09
1814.13
1814.14
1819.88
1819.66
1819.44
1819.25
1819.09
1817.23
1815.01
1815.01
1815.02
1814.97
1820.64
1820.31
1820.07
1819.89
1819.78
1819.72
1819.09
1817.38
1816.11
1816
1819.63
1820.3
1820.16
1820.06
1819.92
1819.84
1819.89
1819.98
1819.93
1819.89
1804.76
1807.08
1817.55
1819.33
1817.22
1817.67
1819.73
1819.87
1820.07
1820.12
1803.21
1803.19
1803.31
1803.38
1802.7
1802.56
1803.6
1816.85
1820.41
1820.44
1803.19
1803.43
1803.44
1803.32
1803.23
1803.18
1803.51
1819.17
1821.2
1821.03
1808.3
1803.95
1803.95
1803.77
1806.29
1817.03
1822.53
1822.09
1821.71
1821.54
1822.02
1820.01
1819.03
1817.49
1815.36
1818.59
1816.96
1813.91
1813.67
1819.5
1824.01
1813.02
1809.36
1809.29
1809.3
1809.12
1813.38
1813.77
1813.95
1818.47
1822.5
1819.2
1818.05
1818.6
1820.24
1820.58
1820.4
1820.34
1821.09
1821.7
1822.89
1823.21
1823.18
1823.4
1823.8
1823.62
1823.41
1820.48
1807.83
1798.85
1823.6
1823.71
1823.72
1823.68
1823.56
1823.35
1823.07
1822.78
1821.51
1795.14
1823.68
1823.67
1823.49
1823.37
1823.11
1823.16
1821.96
1821.76
1806.61
1792.35
1812.19
1810.73
1806.86
1806.41
1805
1809.59
1806.82
1792.61
1792.39
1792.17
1798.49
1798.42
1798.16
1797.9
1797.51
1797.02
1804.37
1797.75
1791.81
1793.09
1804.63
1806.61
1808.59
1811.55
1807.92
1815.3
1824.03
1823.79
1820.53
1800.95
1824.46
1824.36
1824.34
1824.34
1824.28
1824.47
1824.37
1817.06
1800.47
1804.18
1823.95
1823.81
1823.63
1823.81
1824.19
1824.6
1824.89
1821.23
1803.29
1820.03
1822.22
1811.23
1813.29
1823.12
1824.1
1824.56
1825.03
1825.37
1814.14
1806.78
1820.16
1797.9
1805.38
1820.82
1824.07
1824.29
1824.33
1824.41
1824.39
1810.67
1816.81
1796.94
1808.7
1814.24
1822.74
1823.71
1823.16
1823.06
1823.04
1813.11
1808.47
1796.18
1776.31
1808.31
1822.15
1821.82
1820.85
1820.6
1821.35
1822.54
1806.97
1741.6
1742
1820.38
1824.7
1820.04
1806.84
1793.33
1755.62
1811.38
1767.67
1731.91
1743.85
1825.3
1828.53
1792.16
1733.36
1733.34
1733.27
1739.58
1729.61
1729.69
1780.89
1809.91
1832.82
1776.19
1735.06
1735.02
1734.23
1750.54
1728.91
1728.67
1780.29
1791.77
1822.63
1826.8
1765.8
1737.04
1752.49
1830.49
1728.64
1728.89
1783.13
1829.4
1805.6
1827.82
1803.23
1741.83
1833.16
1832.81
1728.44
1729.03
1824.54
1833.46
1802.52
1824.2
1823.71
1814.65
1834.68
1834.87
1769.04
1769.48
1831.58
1833.85
1802.65
1803.52
1836.79
1836.76
1836.65
1836.34
1833.5
1823.85
1834.38
1838.61
1817
1805.47
1837.8
1837.86
1837.75
1832.32
1832.37
1833.64
1838.22
1839.42
1832.96
1806.2
1838.45
1838.99
1838.65
1808.76
1823.07
1832.76
1838.64
1839.23
1836.64
1806.08
1839.44
1839.43
1838.84
1799.97
1835.66
1837.79
1838.53
1839.02
1829.69
1805.24
1839.28
1839.52
1839.25
1816.11
1837.4
1838.09
1838.78
1839.42
1821.17
1804.71
1839.7
1839.58
1828.99
1837.69
1836.08
1837.08
1838.02
1838.48
1824.35
1821.58
1836.21
1788.05
1828.3
1837.99
1830.17
1829.69
1834.01
1835.68
1834.63
1824.86
1758.11
1726.34
1816.97
1836.15
1825.74
1829.2
1832.37
1832.9
1833.23
1757.17
1713.36
1718.07
1823.18
1834.27
1832.34
1832.42
1832.75
1829.52
1756.86
1709.23
1709.56
1712.88
1822.88
1833.33
1837.98
1837.61
1830.43
1751.81
1711.16
1711.04
1710.08
1708.64
1805.62
1834.02
1843.13
1843.37
1826.46
1715.28
1715.14
1714.55
1713.35
1711.36
1760.28
1836.71
1847.45
1848.34
1846.89
1770.24
1719.25
1718.79
1717.67
1715.62
1770.38
1841.37
1852.1
1853.47
1854.99
1851.79
1791.53
1729.9
1722.63
1730.96
1822.36
1846.26
1623.52
1692.8
1856.91
1859.34
1860.16
1849.08
1825.92
1836.63
1854.4
1851.86
1592.98
1594.8
1605.21
1727.26
1808.07
1854.31
1866.72
1865.06
1862.18
1858.47
1595.25
1598.26
1600.64
1602.5
1604.36
1616.9
1728.09
1817.02
1838.15
1844.43
1595.19
1598.27
1600.75
1637.5
1767.73
1788.22
1741.11
1740.64
1738.75
1736.26
1767.94
1770.94
1857.66
1871.24
1873.42
1874.55
1851.91
1833.92
1850.18
1849.14
1777.6
1772.08
1858.19
1862.88
1866.48
1867.46
1865.43
1854.4
1849.91
1848.53
1837.49
1827.08
1812.62
1839.95
1850.83
1851.21
1846.77
1751.86
1608.94
1705.85
1827.81
1805.49
1723.93
1703.15
1795.62
1836.09
1833.19
1614.25
1357.58
1353.23
1807.79
1697.59
1683.37
1686.61
1689.22
1756.65
1817.68
1725.73
1473.51
1306.93
1796.71
1697.69
1669.26
1673.35
1679.97
1687.46
1711.34
1805.4
1810.57
1682.23
1732.89
1735.22
1742.39
1739.42
1724.85
1705.86
1739.15
1798.38
1804.56
1809.52
1354.69
1569.72
1800.16
1807.01
1812.78
1818.88
1824.24
1789.2
1799.64
1740.51
1325.64
1322.03
1710.15
1811.8
1816.42
1820.92
1825.46
1818.73
1760.53
1480.9
1485.92
1325.9
1485.26
1810.46
1817.96
1822.53
1826.97
1830.99
1660.34
1455.64
1817.98
1521.82
1284.97
1626.24
1807.68
1822.99
1824.12
1830.84
1625.37
1454.05
1821.66
1659.75
1126.3
1216.61
1509.23
1780.84
1826.58
1836.31
1723.18
1466.74
1401.1
1110.68
1111.94
1111.93
1112.39
1555.43
1830.48
1842.46
1838.76
1767.27
1112.86
1113.01
1114.15
1114.31
1114.72
1196.18
1785.26
1851.25
1857.44
1862.58
1354.88
1112.62
1113.26
1114.14
1115.34
1116.98
1590.09
1854.5
1863.51
1868.29
1852.1
1367.53
1111.71
1112.81
1114.76
1116.32
1293.29
1814.48
1868.6
1874.33
1855.09
1605.19
1114.05
1115.46
1118.1
1119.52
1120.26
1699.02
1875.94
1880.29
1146.22
1116.17
1116.2
1118.07
1121.35
1122.67
1122.26
1643.88
1882.88
1885.45
1852.98
1689.29
1120.47
1113.74
1115.16
1116.52
1165.78
1788.73
1886.36
1888.19
1857.12
1307.55
1113.32
1114.25
1115.01
1115.19
1487.93
1887.52
1889.67
1888.39
1534.54
1117.15
1116.84
1115.89
1115.91
1392.9
1888.36
1896.11
1892.53
1888.21
1574.89
1162.31
1118.63
1228.33
1784.98
1907.53
1905.06
1901.39
1897.39
1892.7
1826.24
1756.21
1794.44
1910.62
1911
1910.98
1909.8
1903.3
1875.82
1893.59
1468.32
1666.52
1909.75
1912.14
1916.72
1916.29
1913.69
1868.59
1863.25
1869.55
1914.44
1898.41
1896.24
1905.79
1919.95
1906.07
1855.04
1854.73
1895.11
1878.58
1918.45
1892.83
1910.72
1909.33
1887.81
1851.2
1849.72
1895.97
1915.13
1841.33
1891.41
1895.24
1916.19
1882.87
1856.82
1873.95
1919.86
1918.79
1917.95
1847.65
1912.88
1903.36
1888.52
1912.15
1915.86
1917.92
1917.86
1917.56
1917.19
1910.02
1921.66
1795.56
1672.22
1624.64
1591.93
1528.99
1556.52
1802.65
1914.91
1919.02
1452.01
1459.41
1467.46
1331.61
1273.78
1207.08
1143.6
1113.91
1105.8
1496.16
1813.39
1878.9
1911.08
1924.58
1930.55
1934.82
1936.68
1747.87
1223.16
488.305
1815.41
1815.39
1815.4
1815.46
1815.52
1815.52
1815.58
1815.59
1815.54
1815.52
1815.51
1815.5
1815.46
1815.42
1815.4
1815.41
1815.44
1815.46
1815.49
1815.51
1815.52
1815.52
1815.5
1815.59
1815.53
1815.51
1815.46
1815.41
1815.34
1815.33
1815.34
1815.36
1815.41
1815.42
1815.45
1815.53
1815.55
1815.58
1815.61
1815.64
1815.29
1815.26
1815.27
1815.39
1815.54
1815.54
1815.56
1815.55
1815.54
1815.43
1815.48
1815.46
1815.39
1815.36
1815.37
1815.31
1815.41
1815.46
1815.5
1815.53
1815.55
1815.56
1815.56
1815.53
1815.49
1815.46
1815.42
1815.38
1815.31
1815.3
1815.33
1815.32
1815.37
1815.39
1815.39
1815.42
1815.44
1815.43
1815.55
1815.64
1815.22
1815.33
1815.36
1815.42
1815.51
1815.53
1815.53
1815.49
1815.36
1815.35
1815.41
1815.39
1815.32
1815.25
1815.25
1815.23
1815.2
1815.44
1815.52
1815.54
1815.54
1815.55
1815.54
1815.48
1815.44
1815.54
1815.46
1815.11
1815.14
1815.11
1815.28
1815.43
1815.46
1815.48
1815.45
1815.36
1815.32
1815.31
1815.41
1815.55
1814.9
1814.83
1814.85
1815.02
1815.24
1815.33
1815.34
1815.31
1815.28
1815.19
1815.21
1815.2
1815.05
1815.1
1815.34
1815.47
1815.13
1815.19
1815.39
1815.56
1815.58
1815.57
1815.53
1815.44
1815.46
1815.41
1815.17
1814.92
1815.01
1815.16
1815.18
1815.24
1815.29
1815.32
1815.26
1815.2
1814.9
1814.54
1814.94
1815.08
1814.17
1814.1
1814.08
1814.35
1815.08
1815.24
1815.06
1814.94
1814.74
1814.79
1814.88
1815.17
1815.21
1815.28
1815.4
1815.22
1814.7
1814.88
1815.1
1815.65
1815.65
1815.63
1815.58
1815.45
1815.31
1814.92
1814.25
1814.54
1814.65
1814.79
1814.93
1815.1
1815.23
1815.27
1815.03
1815.19
1814.47
1813.01
1813.28
1813.14
1814.39
1814.38
1814.34
1814.34
1815.29
1815.24
1814.42
1814.43
1814.43
1814.84
1815.02
1815.01
1815.05
1815.11
1815.26
1814.5
1814.65
1814.83
1815.86
1816
1815.95
1815.89
1815.8
1815.73
1814.69
1814.09
1813.81
1813.32
1813.41
1814.16
1814.78
1815.1
1815.4
1815.6
1815.72
1815.69
1815.24
1813.2
1812.48
1812.54
1814.79
1814.76
1814.71
1815.23
1815.6
1814.59
1814.37
1814.27
1814.83
1814.78
1814.72
1814.76
1814.87
1814.91
1814.52
1814.2
1814.44
1815.49
1816.24
1816.22
1816.23
1816.06
1815.08
1814.66
1814.55
1814.36
1814.03
1813.51
1813.24
1813.17
1813.96
1814.99
1815.23
1815.4
1815.63
1816.03
1815.44
1815.27
1813.16
1812.61
1814.96
1814.95
1815.7
1815.98
1815.26
1814.93
1814.83
1815.22
1814.62
1814.04
1814.51
1814.89
1814.84
1814.5
1813.67
1814.08
1814.84
1815.79
1815.43
1815.14
1815.18
1815.35
1814.86
1814.72
1814.66
1815.94
1815.84
1813.9
1813.36
1814.23
1814.22
1814.06
1813.93
1814.23
1814.89
1815.4
1815.49
1813.43
1814.1
1813.12
1815.03
1815.87
1816.23
1816.02
1815.6
1815.79
1815.47
1814.09
1814.02
1813.97
1814.85
1815.22
1815.14
1814.77
1813.48
1813.72
1814.01
1814.32
1814.54
1815.32
1816.07
1816.1
1815.5
1815.56
1815.76
1815.3
1814.89
1814.55
1814.32
1813.37
1813.28
1811.85
1810.75
1810.94
1811.35
1814.61
1813.36
1812.04
1813.22
1814.98
1815.94
1816.17
1816.27
1816.11
1816.07
1816.17
1815.97
1815.65
1814.43
1814.06
1814.77
1815.29
1815.2
1815.12
1814.85
1813.21
1813.42
1813.81
1815.45
1815.63
1815.18
1815
1814.83
1815
1814.62
1814.49
1814.24
1813.73
1812.11
1811.93
1811.64
1810.55
1809.8
1809.89
1811.2
1813.41
1812.28
1810.66
1811.27
1814.18
1816.04
1816.09
1816.19
1816.34
1816.38
1816.21
1815.93
1815.62
1815.22
1814.84
1815.1
1815
1814.99
1814.68
1813.14
1812.77
1814.26
1814.81
1814.98
1813.76
1813.24
1813.37
1814.1
1810.69
1808.96
1813.39
1811.8
1810.92
1812.87
1812.83
1812.68
1812.04
1809.52
1809.44
1810.74
1811.22
1808.52
1809.21
1811.28
1813.27
1815.88
1815.77
1815.68
1815.66
1815.71
1815.67
1815.52
1815.29
1814.97
1814.74
1812.27
1810.33
1813.33
1812.86
1810.61
1810.5
1810.55
1814.79
1813.65
1812.32
1812.45
1814.26
1813.76
1805.76
1804.53
1807.48
1812.42
1808.96
1807.75
1806.16
1811.9
1812.14
1808.49
1806.63
1806.28
1806.8
1807.23
1809.97
1812.36
1812.79
1815.87
1815.66
1814.2
1809.01
1808.3
1813.63
1814.9
1815.21
1812.62
1805.58
1804.99
1805.08
1809.96
1814.76
1813.44
1813.47
1814.47
1814.46
1812.2
1811.94
1811.95
1814.11
1813.93
1806.49
1804.46
1804.3
1804.46
1805.75
1795.35
1793.04
1796.36
1812.05
1813.61
1810.66
1807.08
1807.56
1809.11
1812.09
1812.25
1812.63
1816.26
1814.6
1806.76
1806.43
1806.35
1806.29
1814.08
1811.8
1804.47
1804.44
1804.3
1804.45
1813.99
1814.41
1814.34
1814.3
1814.31
1814.27
1812.81
1811.71
1811.82
1812.09
1813.98
1813.58
1809.47
1808.79
1814.29
1811.58
1815.85
1801.2
1787.46
1797.19
1814.38
1814.23
1814.06
1813.61
1807.32
1800.32
1802.17
1805.53
1816.51
1811.11
1806.18
1806.12
1805.99
1807.7
1817.07
1807.59
1804.17
1803.89
1803.58
1812.36
1814.65
1814.45
1814.29
1814.07
1814.16
1814.26
1814.62
1814.78
1814.95
1814.96
1813.33
1813.52
1815.78
1815.92
1815.47
1815.23
1814.4
1801.27
1783.83
1786.6
1811.48
1816.09
1815.97
1815.87
1806.1
1796.62
1796.88
1796.89
1816.51
1809.42
1805.89
1805.87
1807.43
1816.25
1816.56
1810.25
1804.03
1803.74
1813.79
1815.2
1814.93
1814.3
1813.54
1813.57
1813.92
1814.92
1815.08
1815.35
1815.65
1815.9
1815.96
1814.48
1813.06
1813.72
1815.96
1815.67
1814.23
1786.96
1780.25
1781.75
1782.04
1807.76
1816.94
1817.17
1816.24
1805.49
1797.59
1799.75
1816.41
1811.11
1805.85
1808.18
1815.86
1816.05
1815.85
1813.32
1808.43
1812.81
1814.72
1814
1813.56
1813.59
1813.73
1814.35
1815.18
1815.3
1815.38
1815.56
1815.8
1816.1
1816.41
1816.69
1813.74
1813.36
1815.13
1817.14
1815.46
1789.36
1780.67
1781.36
1781.66
1781.8
1795.9
1817.68
1818.1
1818.23
1816.3
1816.41
1816.19
1815.19
1812.56
1814.98
1815.97
1815.35
1813.22
1812.88
1813.33
1815.11
1814.97
1813.66
1813.52
1814.15
1815.21
1815.3
1815.29
1815.25
1815.29
1815.48
1815.8
1816.19
1816.61
1817.03
1816.94
1814.01
1814.93
1818.22
1818.32
1813.19
1780.87
1781.04
1781.01
1781.1
1780.87
1810.33
1817.98
1813.18
1811.75
1809.84
1815.62
1815.99
1815.91
1815.79
1815.66
1813.95
1812.64
1812.46
1812.96
1814.6
1814.86
1814.84
1814.61
1815.08
1815.3
1815.29
1815.16
1814.8
1814.8
1815.18
1815.61
1816.08
1816.61
1817.15
1817.65
1815.22
1814.86
1817.81
1818.88
1819.21
1817.39
1804.68
1799.39
1810.19
1814.98
1812.66
1804.61
1804.74
1804.68
1804.69
1813.59
1815.94
1815.84
1815.69
1815.47
1814.63
1813.19
1813.33
1814.58
1814.92
1815.01
1814.69
1813.61
1814.41
1815.11
1815.23
1815.27
1814.85
1814.7
1815.14
1815.64
1816.14
1816.71
1817.25
1817.78
1816.06
1814.79
1817.86
1819.27
1817.71
1818.96
1819.04
1817.16
1816.27
1818.14
1817.97
1814.44
1811.12
1808.51
1805.89
1812.92
1816.1
1815.96
1815.81
1815.61
1815.4
1815.21
1815.11
1815.07
1815.08
1815.12
1813.49
1813.5
1814.3
1812.55
1807.92
1812.37
1812.89
1813.03
1815.68
1816.3
1816.78
1817.28
1817.7
1816.73
1814.67
1818.22
1819.22
1819.55
1818.19
1819.1
1819.11
1818.42
1816.17
1815.88
1816.64
1818.87
1818.94
1818.91
1818.57
1813.16
1814.61
1816.26
1816.27
1816.03
1815.8
1815.59
1815.45
1815.38
1815.34
1813.58
1813.65
1814.87
1815.02
1811.39
1786.62
1786.73
1804.55
1811.18
1814.11
1814.71
1816.18
1816.21
1818.1
1814.71
1814.62
1815.52
1819.32
1819.68
1819.46
1815.84
1817.93
1819.34
1818.4
1815.65
1815.58
1817.09
1818.8
1818.84
1818.88
1814
1813.68
1814.74
1816.9
1816.61
1816.31
1816.03
1815.8
1814.63
1813.31
1813.34
1814.75
1815.29
1815.54
1815.81
1787.3
1775.11
1774.16
1790.01
1806.87
1810.96
1812.31
1813.09
1815.13
1815.69
1815.08
1815.52
1819.59
1820.21
1820.1
1815.18
1815.13
1819.09
1819.39
1818.79
1815.18
1814.66
1814.68
1814.7
1814.84
1814.77
1814.37
1815.82
1817.49
1817.07
1816.66
1816.26
1814.45
1811.53
1813.88
1814.68
1815.02
1815.39
1815.77
1816.17
1816.49
1776.04
1771.61
1771.55
1777.95
1808.18
1815.98
1817.14
1814.25
1814.33
1817.92
1819.62
1819.68
1819.78
1812.8
1813.81
1816.33
1819.29
1819.26
1819.23
1819.23
1817.21
1815.69
1814.06
1814.1
1816.67
1817.87
1818.37
1818.01
1817.53
1817.07
1813.69
1809.45
1809
1809.28
1814.56
1815.16
1815.63
1816.07
1816.48
1816.72
1775.95
1770.81
1770.89
1770.78
1784.44
1817.51
1819.16
1819.44
1811.57
1809.72
1819.28
1819.99
1808.86
1800.52
1811.61
1817.53
1818.81
1819
1815.73
1812.16
1817.39
1819.06
1819.22
1815.39
1819.82
1819.5
1819.04
1818.55
1818.05
1817.58
1810.77
1809.57
1809.17
1808.88
1814.93
1815.65
1815.97
1816.38
1816.8
1812.72
1771.98
1769.86
1769.92
1770.09
1776.59
1816.5
1819.85
1820.16
1811.44
1806.32
1808.05
1821.68
1800.37
1799.35
1801.44
1817.42
1815.44
1808.96
1806.22
1806.25
1806.29
1813.68
1819.6
1819.08
1820.04
1819.77
1819.34
1818.85
1818.33
1807.81
1808.99
1815.98
1815.66
1815.28
1815.5
1815.96
1816.23
1816.58
1817.04
1817.54
1806.06
1768.03
1768.38
1768.68
1791.19
1819.65
1820.28
1820.63
1817.21
1806.24
1806.18
1815.18
1812.34
1799.7
1801.52
1817.55
1813.92
1813.12
1809.14
1806.31
1810.2
1819.13
1819.34
1819.43
1820.36
1820.12
1819.75
1819.14
1813.56
1800.43
1803.29
1810.11
1801.07
1793.1
1805.34
1815.93
1816.17
1816.43
1816.72
1816.98
1817.09
1777.03
1767.53
1784.71
1818.58
1819.71
1819.95
1820.14
1820.45
1813.42
1805.67
1812.5
1820.79
1799.67
1809.69
1818.46
1814.24
1817.51
1819.86
1819.72
1819.12
1818.02
1818.11
1818.34
1820.87
1820.62
1820.32
1817.87
1817.5
1800.21
1787.18
1786.65
1786.53
1786.38
1792.12
1816.02
1816.78
1816.58
1815.62
1811.24
1774.37
1789.85
1816.4
1819.29
1819.33
1819.35
1819.45
1819.62
1819.75
1819.09
1810.3
1817.3
1820.7
1800.08
1816.05
1818.54
1818.08
1818.01
1819.77
1819.66
1818.31
1817.62
1817.55
1817.46
1821.51
1821.31
1821.08
1820.82
1806.8
1786.18
1785.87
1785.7
1785.91
1786.06
1809.52
1817.86
1817.66
1817.27
1793.39
1769.3
1769.17
1769.25
1769.38
1796.31
1816.79
1817.89
1818.41
1818.87
1819.16
1818.58
1818.56
1819.53
1819.58
1803.84
1813.97
1818.22
1820.28
1818.92
1819.67
1819.39
1818.96
1818.34
1818.27
1816.67
1822.04
1821.9
1821.55
1821.46
1819.9
1788.06
1785.78
1785.4
1808.84
1810.61
1809.13
1816.39
1818.9
1806.14
1769.05
1768.98
1768.79
1771.25
1768.92
1772.79
1806.71
1817.65
1817.91
1816.23
1816.73
1818.54
1818.59
1818.66
1818.77
1815.45
1788.7
1814.82
1819.52
1819.28
1818.96
1818.74
1818.51
1818.35
1818.14
1808.15
1822.59
1822.54
1818.04
1790.71
1788.84
1788.21
1787.62
1816.61
1818.41
1811.34
1800.78
1811.54
1819.54
1807.09
1771.88
1768.64
1786.61
1817.01
1815.78
1814.82
1812.68
1813.89
1814.77
1813.92
1814.35
1816.16
1817.19
1817.27
1817.21
1811.06
1785.14
1793.1
1817.8
1817.81
1817.7
1817.71
1817.69
1817.67
1810.22
1802.92
1821.86
1821.93
1821.78
1820.81
1810.31
1813.61
1821.78
1821.76
1815.37
1800.15
1800.17
1811.28
1817.91
1816.73
1816.94
1815.31
1815.93
1814.97
1811.79
1784.05
1783.88
1792.62
1810.89
1811.18
1812.71
1815.15
1815.68
1815.98
1816.05
1816.2
1781.43
1775.07
1803.13
1815.35
1815.5
1815.87
1816.37
1815.92
1803.87
1801.81
1810.24
1818.04
1821.35
1821.59
1821.62
1821.58
1821.6
1821.49
1800.91
1799.84
1802.42
1818.32
1817.9
1817.28
1816.69
1802.98
1814.55
1808.73
1762.87
1762.39
1781.7
1802.62
1803.34
1810.85
1813.83
1814.58
1815.02
1815.27
1815.3
1815.13
1778.43
1771.44
1770.8
1795.11
1814.66
1814.91
1815.65
1810.86
1800.86
1801.15
1793.66
1793.55
1806.94
1821.62
1821.8
1821.85
1821.87
1807.08
1800.78
1803.27
1816.13
1818.28
1813.37
1813.06
1795.38
1789.99
1784.91
1761.26
1760
1782.74
1812.42
1804.53
1801.71
1809.35
1814.91
1815.22
1815.41
1815.46
1815.46
1815.02
1785.58
1769.9
1770.08
1769.92
1775.52
1793.97
1810.11
1808.98
1801.03
1804.96
1792.52
1792.7
1797.6
1820.58
1821.97
1822.13
1819.18
1805.26
1811.36
1812.69
1811.65
1798.04
1790.12
1789.25
1789.43
1802.6
1760.11
1759.96
1759.26
1800.35
1815.44
1806.85
1803.69
1803.86
1804.65
1805.11
1806.15
1809.65
1815.69
1816.15
1811.18
1771.49
1770.22
1770.8
1771.1
1771.48
1775.27
1806.47
1813.52
1818.01
1791.94
1793.55
1817.68
1821.82
1821.68
1821.69
1794.66
1810.66
1815.28
1808.41
1795.1
1794.24
1795.24
1794.68
1812.04
1812.17
1770.36
1763.83
1758.66
1776.29
1816.01
1816.1
1812.2
1812.92
1814.54
1812.54
1805.68
1805.52
1809.08
1817.1
1817.12
1803.72
1771.17
1770.64
1771.68
1772.17
1772.25
1812.3
1819.74
1819.85
1809.75
1816.69
1820.54
1820.8
1820.79
1800.61
1780.88
1796.77
1815.48
1801.78
1795.34
1806.04
1811.95
1810.83
1809.91
1809.58
1758.87
1759.28
1769.48
1769.95
1785.53
1818.41
1818.28
1817.81
1817.6
1817.12
1814.61
1806.77
1811.98
1817.02
1817.05
1811.81
1768.87
1770
1771.3
1771.66
1798.36
1820.72
1820.75
1820.83
1793.73
1793.52
1808.76
1802.51
1767.89
1762.67
1781.92
1817.43
1806.84
1801.27
1812.03
1814.32
1804.32
1768.8
1752.4
1724.58
1724.36
1726.64
1788.85
1780.2
1779.31
1796.86
1818.4
1817.89
1817.25
1816.15
1815.86
1815.85
1816.18
1816.34
1809.18
1772.47
1768.42
1769.88
1781.52
1800.23
1821.87
1821.5
1821.41
1821.36
1804.6
1781.69
1763.03
1762.85
1762.98
1762.74
1781.14
1817.58
1817.26
1803.4
1812.17
1810.24
1731.6
1720.8
1720.85
1722.07
1723.29
1737.86
1819.63
1820.06
1813.28
1819.14
1818.88
1818.39
1817.84
1817.21
1816.82
1816.73
1815.49
1787.34
1765.97
1766.88
1767.86
1795.15
1810.86
1811.21
1798.64
1792.9
1812.29
1814
1822.77
1821.46
1789.91
1763.2
1763.12
1762.75
1776.09
1817.47
1817.38
1793.33
1773.39
1762.82
1721.88
1721.58
1721.96
1722.43
1743.82
1822.04
1821.82
1821.46
1820.73
1820.09
1819
1819.09
1818.89
1818.42
1806.98
1788.45
1767.85
1767.25
1766.9
1787.24
1800.91
1803.95
1791.91
1779.49
1779.98
1780.25
1780.57
1780.83
1818.27
1824.99
1825.24
1813.64
1797.01
1762.14
1769.8
1817.93
1814.33
1761.25
1739.52
1738.76
1774.29
1752.94
1721.46
1721.94
1722.08
1760.89
1822
1821.62
1821.08
1819.31
1814.58
1818.36
1820.26
1819.77
1788.11
1768.04
1767.91
1767.32
1786.09
1819.13
1818.98
1798.21
1788.51
1788.9
1809.58
1802.9
1790.22
1785.7
1804.61
1804.6
1818.91
1824.95
1824.58
1798.85
1802.31
1821.13
1818.57
1781.36
1741.3
1738.26
1772.15
1794.69
1783.1
1722.71
1732.58
1820.94
1821.81
1821.61
1821.34
1819.16
1814.8
1814.66
1814.64
1817.42
1807.11
1767.81
1767.45
1770.34
1818.19
1818.5
1817.73
1804.7
1791.41
1799.81
1814.87
1817.31
1818.03
1808.76
1803.95
1811.61
1823.86
1823.88
1823.53
1823.46
1823.61
1823.72
1817.1
1799.5
1811.58
1797.67
1738.53
1771.2
1801.54
1793.74
1776.6
1821.45
1821.33
1821.28
1821.08
1820.45
1820.68
1820.59
1819.47
1812.67
1799.2
1783.55
1767.35
1783.05
1819.08
1818.55
1817.88
1816.24
1816.87
1816.36
1813.21
1816.28
1818.41
1784.97
1814.55
1824.14
1823.9
1823.79
1821.68
1820.87
1823.71
1823.95
1817.71
1819.66
1819.87
1774.73
1737.98
1764.22
1790.78
1770.65
1789.75
1821.42
1820.5
1820.03
1819.66
1819.02
1818.62
1818.46
1818.6
1818.39
1803.87
1800.45
1765.93
1783.95
1819.68
1819.52
1819.4
1819.35
1819.48
1819.83
1818.97
1819.87
1819.97
1790.28
1822.91
1823.79
1824.15
1824.06
1820.34
1820.28
1824.04
1824.3
1824.66
1824.63
1762.14
1702.99
1751.21
1823.45
1793.12
1801.37
1822.57
1820.8
1817.67
1817.9
1813.34
1807.2
1812.74
1814.55
1815.72
1815.86
1816.36
1815.05
1807.16
1809.76
1796
1809.19
1821.04
1821.35
1818.89
1798.53
1814.29
1821.44
1816.16
1736.03
1814.55
1824.31
1824.46
1824.2
1823.64
1823.91
1824.46
1824.85
1745.49
1695.48
1692.36
1699.39
1812.63
1827.01
1824.74
1825.07
1822.83
1790.7
1760.39
1778.95
1767.48
1757.24
1775.77
1805.76
1812.38
1804.31
1805.01
1814.22
1816.11
1810.13
1785.15
1786.33
1788.76
1800.54
1787.75
1787.73
1793.23
1825.27
1793.35
1712.23
1826.45
1825.79
1824.9
1823.8
1823.89
1813.37
1748.55
1688.77
1688.91
1690.13
1690.88
1800.68
1829.58
1829.41
1829
1827.12
1782.41
1740.76
1738.4
1734.46
1735.77
1761.25
1787.35
1811.02
1811.14
1786.68
1783
1789.83
1813.2
1808.78
1786.02
1788.45
1803.11
1793.77
1789.04
1796.71
1818.38
1827.03
1734.03
1710.95
1829.22
1827.44
1824.31
1750.93
1692.54
1686.51
1686.63
1687.56
1688.17
1745.75
1801.22
1830.77
1831.06
1831.3
1829.46
1773.73
1744.26
1744.52
1801.49
1813.02
1807.67
1811.96
1810.81
1807.05
1780.21
1781.88
1783.92
1785.5
1791.12
1811.44
1813.1
1813.78
1812.32
1809.63
1798.8
1800.39
1783.74
1741.35
1709.55
1710.02
1831.87
1767.06
1688.71
1688.22
1688.58
1688.47
1722.34
1767.36
1807.68
1829.99
1831.12
1831.44
1831.85
1805.63
1739.14
1738.62
1775.8
1822.4
1819.19
1816.32
1812.02
1812.58
1811.4
1780.5
1781.63
1783.16
1785.44
1808.1
1809.5
1811.84
1814.04
1814.39
1738.79
1710.46
1711.01
1711.71
1711.04
1710.57
1710.61
1710.85
1824.4
1714.41
1691.41
1749.97
1798.96
1797.53
1828.77
1830.95
1830.64
1830.21
1830.34
1830.95
1795.13
1735.97
1736.05
1777.1
1823.91
1820.77
1817.9
1787.79
1685.66
1699.32
1811.98
1804.88
1805.81
1805.92
1769.85
1701.97
1703.32
1705.43
1757.54
1812.31
1809.62
1808.11
1808.94
1797.09
1782.87
1781.06
1791.39
1764.5
1791.67
1718.07
1800.04
1832.84
1832.4
1831.94
1831.08
1829.93
1828.6
1827.81
1796.75
1736.67
1732.09
1732.61
1732.13
1786.87
1812.8
1820.56
1813.32
1679.09
1642.17
1641.23
1640.81
1641.1
1718.63
1804.65
1800.93
1732.39
1703.17
1798.43
1802.36
1806.75
1805.1
1789.41
1792.13
1815.8
1824.18
1806.15
1811.43
1812.18
1783.43
1764.76
1834.08
1833.38
1832.79
1832.35
1831.89
1830.82
1823.19
1748.65
1729.03
1729.14
1728.43
1772.1
1805.19
1779.98
1778.51
1817.58
1816.85
1802.22
1662.83
1638.09
1638.75
1652.16
1776.57
1691.26
1641.42
1643.25
1644.5
1645.5
1657.21
1790.43
1794.74
1732.29
1734.18
1764.31
1826.97
1771.92
1773.41
1773.55
1781.83
1794.82
1835.3
1834.29
1833.68
1833.45
1832.92
1831.75
1830.17
1761.62
1727.83
1726.92
1800.98
1813.92
1811.86
1797.92
1814.93
1814.2
1813.91
1813.59
1813.59
1806.62
1790.45
1786.53
1785.01
1784.95
1785.99
1693.15
1641.57
1647.13
1773.19
1796.04
1786.42
1733.18
1761.39
1816.31
1834.26
1824.57
1802.18
1800.43
1781.66
1800.28
1835.71
1834.7
1833.82
1833.04
1832.28
1779.03
1597.99
1739.66
1813.42
1815.21
1814.16
1811.65
1808.7
1801.74
1793.45
1797.29
1808.68
1775.7
1715.89
1713.95
1766.13
1782.84
1714.85
1597.64
1692.52
1713.85
1726.79
1743.34
1743.86
1789.25
1817.51
1832.81
1834.29
1834.99
1835.52
1835.68
1836
1836.2
1781.36
1806.86
1836.08
1834.89
1833.67
1832.28
1749
1540.48
1516.33
1514.94
1593.31
1658.83
1730.17
1787.72
1809.86
1804.87
1796.61
1759.76
1773.24
1779.92
1616.9
1495.11
1539.35
1710.7
1662.3
1583.84
1583.89
1584.56
1586.18
1588.02
1589.36
1601.29
1709.31
1824.24
1833.08
1834
1834.35
1834.67
1834.94
1835.11
1825.1
1817.41
1825.02
1830.92
1833.58
1827.88
1619.32
1512.74
1513.35
1512.91
1513.51
1515.59
1517.87
1519.87
1534.05
1533.12
1530.31
1563.09
1769.68
1787.69
1750.72
1486.21
1481.77
1482.78
1484.53
1693.81
1722.79
1729.49
1640.08
1585.82
1587.46
1588.8
1589.49
1794.17
1830.48
1830.31
1832.47
1833.61
1833.93
1834.21
1837.83
1828.03
1824.4
1830
1834.04
1832.33
1720.03
1511.4
1513.5
1516.98
1646.91
1704.07
1737.58
1761.88
1752.38
1753.79
1767.11
1818.04
1767.56
1503.09
1482.87
1482.97
1483.22
1483.19
1483.12
1531.15
1801.22
1820.31
1822.57
1716.31
1590.04
1588.15
1678.27
1797.82
1815.56
1822.59
1831.52
1832.67
1832.98
1833.25
1836.11
1824.37
1821.65
1832.42
1832.47
1832.01
1817.51
1786.79
1776.83
1814.9
1835.88
1838.68
1837.93
1836.89
1835.23
1832.05
1827.16
1822.73
1818.19
1553.81
1477.1
1479.98
1482.34
1484.22
1485.46
1504.94
1785.89
1822.32
1823.92
1824.28
1797.14
1795.89
1822.23
1799.62
1807.56
1825.38
1831.61
1831.99
1832.26
1832.46
1830.73
1819.19
1818.47
1830.11
1828.56
1827.35
1824.94
1827.01
1830.59
1832.18
1831.17
1830.03
1828.86
1832.35
1831.58
1829.81
1826.77
1822.51
1757.86
1694.69
1488.6
1476.99
1480.88
1483.83
1485.64
1637.41
1824.53
1809.57
1790.89
1826.96
1826.12
1825.25
1825.48
1815.83
1823.37
1831.22
1831.37
1831.61
1831.62
1831.99
1829.18
1817.28
1816.55
1827.29
1825.6
1824.54
1824.31
1824.83
1826.16
1827.54
1810.96
1769.28
1759.96
1798.12
1827.9
1827.71
1826.17
1823.77
1823.93
1645.31
1472.97
1476.52
1480.16
1482.57
1588.44
1830.15
1837.68
1656.12
1650.31
1825.38
1826.1
1823.44
1827.34
1831.39
1831.57
1831.49
1831.17
1831.3
1825.74
1828.88
1831.97
1819.67
1819.9
1826.24
1823.9
1821.81
1820.74
1820.2
1815.2
1798.75
1788.63
1752.02
1753.68
1754.69
1787.77
1828.4
1781.59
1816.68
1673.44
1468.98
1470.91
1473.19
1598.75
1756.17
1836.87
1834.93
1832.46
1589.01
1610.2
1802.98
1739.26
1715.99
1830.51
1831.09
1831.32
1830.81
1830.43
1830.88
1818.14
1823.97
1834.74
1831.58
1828.86
1826.52
1823.64
1821.02
1819.31
1811.85
1664.45
1631.63
1799.73
1813.46
1776.88
1753.76
1757.01
1798.98
1722.91
1610.98
1481.25
1470.07
1469.28
1693.87
1838.15
1838
1836.1
1833.83
1689.32
1506.66
1507.96
1638.22
1560.02
1638.65
1807.94
1830.7
1831.19
1830.94
1831.18
1825.06
1816.87
1821.43
1838.53
1835.15
1831.84
1829.21
1826.62
1824.4
1817.39
1649.2
1564.51
1561.72
1635.94
1813.85
1822.35
1824.96
1807.48
1772.1
1711.44
1473.18
1472.61
1470.92
1586.3
1838.63
1838.88
1838.3
1836.93
1834.97
1542.67
1503.56
1504.24
1537.95
1540.83
1575.09
1660.58
1757.29
1834.55
1802.5
1793.01
1791.65
1800.39
1799.77
1842.55
1838.61
1835.18
1832.21
1828.69
1762.42
1582.15
1566.18