/*--------------------------------*- C++ -*----------------------------------*\
  =========                 |
  \\      /  F ield         | OpenFOAM: The Open Source CFD Toolbox
   \\    /   O peration     | Website:  https://openfoam.org
    \\  /    A nd           | Version:  8
     \\/     M anipulation  |
\*---------------------------------------------------------------------------*/
FoamFile
{
    version     2.0;
    format      ascii;
    class       volVectorField;
    location    "10";
    object      U;
}
// * * * * * * * * * * * * * * * * * * * * * * * * * * * * * * * * * * * * * //

dimensions      [0 1 -1 0 0 0 0];

internalField   nonuniform List<vector> 
9150
(
(0.00471098 -0.078417 0)
(0.012945 -0.0975941 0)
(0.0105746 -0.104643 0)
(0.00853377 -0.107644 0)
(0.0027664 -0.109417 0)
(-0.00230416 -0.109854 0)
(-0.00824063 -0.108129 0)
(-0.0113166 -0.104053 0)
(-0.0132325 -0.0971948 0)
(-0.0051045 -0.0780691 0)
(0.00592268 -0.0920652 0)
(0.00844137 -0.100589 0)
(0.00710116 -0.102349 0)
(0.00396791 -0.104834 0)
(0.00142284 -0.105611 0)
(-0.00259803 -0.105334 0)
(-0.00491967 -0.104028 0)
(-0.00764492 -0.102153 0)
(-0.00872494 -0.100392 0)
(-0.00591567 -0.0919469 0)
(0.00174485 -0.0954973 0)
(0.00452965 -0.0990234 0)
(0.00361589 -0.101048 0)
(0.0032289 -0.101745 0)
(0.000567739 -0.10244 0)
(-0.00103273 -0.102452 0)
(-0.00338507 -0.101802 0)
(-0.00382506 -0.100973 0)
(-0.00462249 -0.0989262 0)
(-0.00174986 -0.0954213 0)
(0.00173094 -0.0984275 0)
(0.00242975 -0.100395 0)
(0.00215149 -0.100222 0)
(0.00122125 -0.100869 0)
(0.000592973 -0.100883 0)
(-0.000651807 -0.100861 0)
(-0.00134967 -0.100817 0)
(-0.00224115 -0.100224 0)
(-0.00251975 -0.100398 0)
(-0.00176016 -0.0984139 0)
(0.000181866 -0.0994869 0)
(0.00072851 -0.0995756 0)
(0.000469098 -0.100034 0)
(0.000662863 -0.0998925 0)
(7.27716e-05 -0.100136 0)
(-0.000189501 -0.100089 0)
(-0.000689165 -0.0998486 0)
(-0.00045969 -0.100019 0)
(-0.000723326 -0.0995736 0)
(-0.000185864 -0.0994932 0)
(0.0762446 -0.203632 3.09174e-26)
(0.0476389 -0.188468 0)
(0.022034 -0.177338 0)
(0.0101174 -0.174987 0)
(-0.00355317 -0.173901 0)
(-0.011403 -0.174294 0)
(-0.0239541 -0.170946 0)
(-0.0347161 -0.172611 0)
(-0.0511487 -0.179506 0)
(-0.074775 -0.18695 -1.88412e-26)
(0.0587516 -0.150145 7.33709e-27)
(0.0471782 -0.149485 0)
(0.0307653 -0.161732 0)
(0.0185153 -0.159335 0)
(0.0045191 -0.158052 0)
(-0.00694802 -0.156388 0)
(-0.0205608 -0.15629 0)
(-0.0284104 -0.153016 0)
(-0.0492258 -0.143749 0)
(-0.0580036 -0.143363 -5.31526e-27)
(0.0476046 -0.123372 4.33478e-27)
(0.0422656 -0.132936 0)
(0.024255 -0.135119 0)
(0.0142849 -0.137864 0)
(0.000608527 -0.138795 0)
(-0.00912128 -0.138431 0)
(-0.0231452 -0.136283 0)
(-0.0323999 -0.133513 0)
(-0.0431175 -0.129798 0)
(-0.0473985 -0.119647 -2.12571e-27)
(0.037605 -0.100328 4.91592e-27)
(0.0390325 -0.111087 0)
(0.0251522 -0.121929 0)
(0.0174623 -0.125874 0)
(0.00696558 -0.127234 0)
(-0.00390471 -0.125843 0)
(-0.0147404 -0.124827 0)
(-0.0216152 -0.118775 0)
(-0.0387345 -0.109266 0)
(-0.0368755 -0.0984066 -4.68996e-27)
(0.024363 -0.0820558 -1.37439e-26)
(0.0279199 -0.10174 -1.66644e-26)
(0.0181128 -0.108576 -4.1582e-27)
(0.00955175 -0.114588 -3.53012e-27)
(0.00115231 -0.116544 -1.22862e-28)
(-0.00681887 -0.116107 -2.02299e-28)
(-0.0141835 -0.113308 -3.54759e-27)
(-0.0213735 -0.108234 -4.10128e-27)
(-0.0285145 -0.100626 -1.65077e-26)
(-0.0247982 -0.0809585 -1.38509e-26)
(-0.0451657 -0.423669 0)
(-0.0912816 -0.320916 0)
(-0.0844572 -0.262891 0)
(-0.103038 -0.234683 0)
(-0.0838124 -0.206669 0)
(-0.0809608 -0.18977 0)
(-0.0687326 -0.171981 0)
(-0.0619191 -0.155592 0)
(-0.0365735 -0.140147 0)
(-0.0276821 -0.0684917 0)
(-0.014104 -0.241225 0)
(-0.0439194 -0.252855 0)
(-0.0386111 -0.239803 0)
(-0.053627 -0.223849 0)
(-0.0498377 -0.207555 0)
(-0.0464496 -0.192014 0)
(-0.0445298 -0.185302 0)
(-0.0438589 -0.175137 0)
(-0.0248168 -0.158238 0)
(-0.0278059 -0.110978 0)
(0.0102061 -0.226175 0)
(-0.0235555 -0.240457 0)
(-0.0182758 -0.230928 0)
(-0.0330844 -0.222613 0)
(-0.031146 -0.210794 0)
(-0.0296059 -0.204154 0)
(-0.0264451 -0.192702 0)
(-0.0266333 -0.18448 0)
(-0.00871953 -0.174898 0)
(-0.0210019 -0.141952 0)
(0.0127744 -0.214382 0)
(-0.0218506 -0.221428 0)
(-0.00603676 -0.218917 0)
(-0.0170664 -0.212158 0)
(-0.0156607 -0.208114 0)
(-0.0167285 -0.20208 0)
(-0.0207261 -0.197511 0)
(-0.0216837 -0.194691 0)
(-0.00209989 -0.186894 0)
(-0.0214752 -0.17719 0)
(0.039051 -0.233781 0)
(0.00351487 -0.215079 0)
(0.0130786 -0.2136 0)
(0.00259389 -0.203671 0)
(-0.00778499 -0.195102 0)
(-0.0111958 -0.19068 0)
(-0.0170178 -0.193071 0)
(-0.021294 -0.196124 0)
(-0.012753 -0.197097 0)
(-0.0341127 -0.202709 0)
(0.00896277 -0.000288291 0)
(0.00526356 -0.0012018 0)
(0.00367595 -0.000735826 0)
(0.00250312 -0.000214197 0)
(0.000982996 -4.35425e-05 0)
(-0.000662111 0.000715463 0)
(-0.00332538 0.00229959 0)
(-0.0062306 0.00219212 0)
(-0.00774445 0.00187767 0)
(-0.0101263 0.00342829 0)
(0.0247521 0.0207987 0)
(0.0158881 0.0117097 0)
(0.00931502 0.00630662 0)
(0.00417876 0.00601855 0)
(0.00182163 0.00686958 0)
(-0.00344232 0.00803774 0)
(-0.00775454 0.00920081 0)
(-0.0102735 0.00682341 0)
(-0.0129618 0.00576723 0)
(-0.014567 0.0065776 0)
(0.0330467 0.0323836 0)
(0.0262089 0.0290766 0)
(0.0163509 0.0225744 0)
(0.00970803 0.0143151 0)
(0.00624086 0.0137182 0)
(0.00424127 0.0194189 0)
(-0.00367363 0.0158156 0)
(-0.0089879 0.012283 0)
(-0.0120436 0.0117307 0)
(-0.0132294 0.00919457 0)
(0.0319569 0.043901 0)
(0.027874 0.043426 0)
(0.0230811 0.0392467 0)
(0.0172499 0.0275356 0)
(0.00923736 0.0206319 0)
(0.00801508 0.025668 0)
(0.00424059 0.0338861 0)
(-0.00144861 0.023253 0)
(-0.00448008 0.0119428 0)
(-0.00824678 0.00818635 0)
(0.027003 0.0498092 0)
(0.0254132 0.0483004 0)
(0.0236536 0.0454845 0)
(0.0197598 0.0386591 0)
(0.0141102 0.0309976 0)
(0.0128388 0.0294477 0)
(0.0141769 0.0332375 0)
(0.015774 0.0304195 0)
(0.0142758 0.0258822 0)
(0.0102194 0.0196265 0)
(0.0203714 0.0485099 0)
(0.0196822 0.0491691 0)
(0.0178827 0.0508485 0)
(0.0145108 0.0476235 0)
(0.0103491 0.0368561 0)
(0.0112562 0.0280364 0)
(0.0133157 0.0292313 0)
(0.0165219 0.0267996 0)
(0.0199024 0.0232781 0)
(0.0215296 0.019214 0)
(0.00464622 0.0517463 0)
(0.00353768 0.0533893 0)
(0.00296769 0.0572642 0)
(0.00397863 0.0505228 0)
(0.0051531 0.0367024 0)
(0.00623019 0.0252905 0)
(0.00775939 0.0212312 0)
(0.0109508 0.0167098 0)
(0.0146511 0.0154949 0)
(0.0172283 0.0140309 0)
(-0.00927818 0.0532555 0)
(-0.00924885 0.0536688 0)
(-0.00818099 0.0517031 0)
(-0.00395351 0.0415991 0)
(0.000567054 0.0309969 0)
(0.00230611 0.0226482 0)
(0.0037541 0.0172322 0)
(0.00509069 0.0117995 0)
(0.00677486 0.0102017 0)
(0.00812308 0.00934673 0)
(-0.0141939 0.0514061 0)
(-0.0123618 0.0514475 0)
(-0.00942729 0.04606 0)
(-0.00521616 0.0331233 0)
(-0.00122895 0.0248868 0)
(0.0015288 0.0193015 0)
(0.00373643 0.0148183 0)
(0.0046641 0.0112986 0)
(0.00438844 0.010188 0)
(0.00514377 0.00744211 0)
(-0.0162386 0.0438347 0)
(-0.0125587 0.044109 0)
(-0.00835889 0.0358138 0)
(-0.00344748 0.0242557 0)
(0.000809198 0.0171938 0)
(0.00468364 0.0138153 0)
(0.00707261 0.0120201 0)
(0.00752926 0.0108658 0)
(0.00645173 0.0105432 0)
(0.00590579 0.00848305 0)
(-0.0111313 0.038878 0)
(-0.00737494 0.0370301 0)
(-0.0019048 0.0272166 0)
(0.00458051 0.0148927 0)
(0.00871144 0.007665 0)
(0.0119377 0.00610771 0)
(0.0140409 0.00834842 0)
(0.0123871 0.0135407 0)
(0.00870924 0.0143479 0)
(0.00746589 0.0107148 0)
(-0.0040413 0.026007 0)
(0.00361571 0.0251736 0)
(0.0109845 0.0147246 0)
(0.0163512 0.00531293 0)
(0.0181941 0.00335647 0)
(0.0180154 0.00406947 0)
(0.0169471 0.0105671 0)
(0.00948281 0.0229884 0)
(0.00655044 0.0184409 0)
(0.00689611 0.0074312 0)
(0.00128782 0.011362 0)
(0.00948309 0.00615476 0)
(0.0161549 0.00170699 0)
(0.0186965 0.000363806 0)
(0.0187143 0.0023396 0)
(0.0160991 0.00831139 0)
(0.0116784 0.0238299 0)
(0.00817889 0.0324227 0)
(0.0081085 0.0200778 0)
(0.00805067 0.00532191 0)
(0.00159095 -0.00333044 0)
(0.00840902 -0.00650256 0)
(0.0109039 -0.0030912 0)
(0.0120042 0.000732654 0)
(0.0115123 0.00854686 0)
(0.00775666 0.018837 0)
(0.00642016 0.0275732 0)
(0.00747886 0.0309365 0)
(0.00773785 0.0216513 0)
(0.00518115 0.00745136 0)
(0.00822357 -0.00832054 0)
(0.0103278 -0.0115924 0)
(0.0109969 -0.00663033 0)
(0.0106628 0.000739776 0)
(0.0105068 0.00988562 0)
(0.00870898 0.0208877 0)
(0.00832361 0.0247375 0)
(0.00909963 0.0281661 0)
(0.00945255 0.0246543 0)
(0.00497733 0.0183921 0)
(0.0143824 -0.0116401 0)
(0.0137523 -0.0112275 0)
(0.0127441 -0.00372729 0)
(0.0106326 0.00171536 0)
(0.00981824 0.0114532 0)
(0.00884686 0.0235584 0)
(0.00677224 0.0261096 0)
(0.00460207 0.0301773 0)
(0.000988749 0.0300807 0)
(-0.00562659 0.0327414 0)
(0.00533471 -0.0148458 0)
(0.00689166 -0.00753836 0)
(0.00818823 0.00049983 0)
(0.0101366 0.00579859 0)
(0.010473 0.0150157 0)
(0.00938871 0.0270803 0)
(0.00710885 0.032118 0)
(0.00313681 0.0387786 0)
(-0.00289792 0.0431029 0)
(-0.00999667 0.0471074 0)
(-0.00181129 -0.0240587 0)
(0.00422397 -0.0191696 0)
(0.00896326 -0.011257 0)
(0.0118345 -0.00356242 0)
(0.00857027 0.012126 0)
(0.00729053 0.0279255 0)
(0.004926 0.0381714 0)
(-0.000115772 0.0493034 0)
(-0.00489285 0.0559533 0)
(-0.0115643 0.0611321 0)
(-0.0147094 -0.0378923 0)
(-0.0101929 -0.0317512 0)
(-0.00647142 -0.014512 0)
(-0.00557315 0.00801572 0)
(-0.00486211 0.0211249 0)
(-0.00405074 0.0343417 0)
(-0.0045403 0.0470664 0)
(-0.00594049 0.0573404 0)
(-0.00791239 0.0648537 0)
(-0.0122379 0.0774847 0)
(-0.0219999 -0.041282 0)
(-0.0222279 -0.0324639 0)
(-0.0209176 -0.0176011 0)
(-0.0174845 -0.00451887 0)
(-0.0148857 0.0132832 0)
(-0.013154 0.0294191 0)
(-0.0119363 0.0455935 0)
(-0.0111815 0.0589344 0)
(-0.0128975 0.0725411 0)
(-0.0161644 0.086574 0)
(-0.0229923 -0.0427957 0)
(-0.025416 -0.0346824 0)
(-0.0248353 -0.0219128 0)
(-0.0245825 -0.00583783 0)
(-0.0233591 0.0113683 0)
(-0.0206506 0.0278882 0)
(-0.0193353 0.0427398 0)
(-0.0170153 0.0591353 0)
(-0.0171157 0.0744956 0)
(-0.0160475 0.0864772 0)
(-0.0238658 -0.0344415 0)
(-0.02967 -0.0284799 0)
(-0.0316455 -0.018619 0)
(-0.0328993 -0.00746273 0)
(-0.0316833 0.00675222 0)
(-0.0282344 0.0232082 0)
(-0.0262648 0.0376394 0)
(-0.0224378 0.0556187 0)
(-0.0193303 0.0713383 0)
(-0.0150378 0.082072 0)
(-0.0231689 -0.0245923 0)
(-0.0290808 -0.0204534 0)
(-0.0350813 -0.0147572 0)
(-0.0372763 -0.00516893 0)
(-0.0384099 0.00462361 0)
(-0.0366925 0.0165382 0)
(-0.0346298 0.0313165 0)
(-0.0302132 0.0471193 0)
(-0.0240753 0.0608603 0)
(-0.0170019 0.0675315 0)
(-0.0174426 -0.0103283 0)
(-0.0243401 -0.00381625 0)
(-0.0307895 -0.00217744 0)
(-0.0348286 8.66734e-05 0)
(-0.0376402 0.0068896 0)
(-0.0377635 0.0156152 0)
(-0.0364418 0.0251534 0)
(-0.032558 0.0356528 0)
(-0.0250803 0.044668 0)
(-0.0162215 0.047743 0)
(-0.00558113 0.0137331 0)
(-0.0186112 0.00581741 0)
(-0.0267246 0.00627565 0)
(-0.0303761 0.00740491 0)
(-0.0323973 0.010677 0)
(-0.032432 0.0143406 0)
(-0.0293108 0.0185862 0)
(-0.0248296 0.0230605 0)
(-0.0173033 0.0262358 0)
(-0.00898436 0.0285074 0)
(0.0274838 0.0609662 0)
(0.00772487 0.0401182 0)
(-0.00478722 0.0173554 0)
(-0.0102072 0.0123779 0)
(-0.0164452 0.00909161 0)
(-0.0194495 0.00960579 0)
(-0.0185959 0.00972049 0)
(-0.0133034 0.0111969 0)
(-0.00665216 0.0119079 0)
(0.00103997 0.0136621 0)
(0.0385762 0.0772252 0)
(0.0335601 0.0712884 0)
(0.0258684 0.042308 0)
(0.0189692 0.0296066 0)
(0.012782 0.0304711 0)
(0.0047117 0.0221679 0)
(0.00109171 0.00590713 0)
(0.00371897 -0.00187971 0)
(0.00945392 -0.00274028 0)
(0.015722 -0.00203431 0)
(0.0305152 0.078272 0)
(0.0312765 0.0731984 0)
(0.0305989 0.0514446 0)
(0.026433 0.0366263 0)
(0.0250066 0.0365853 0)
(0.0252461 0.0330138 0)
(0.0263847 0.0135969 0)
(0.0276958 -0.00690832 0)
(0.0300751 -0.010819 0)
(0.032162 -0.0101192 0)
(0.0203902 0.0696297 0)
(0.0249314 0.0664202 0)
(0.0273171 0.0519464 0)
(0.0281784 0.0374444 0)
(0.0310376 0.0317553 0)
(0.0341107 0.0246085 0)
(0.0385552 0.00715351 0)
(0.0407213 -0.00925192 0)
(0.0402788 -0.0120854 0)
(0.039515 -0.0110991 0)
(0.00656631 0.0554506 0)
(0.0139924 0.0579155 0)
(0.0200792 0.048104 0)
(0.0268312 0.0332441 0)
(0.0307403 0.0230533 0)
(0.0341864 0.0146937 0)
(0.0376218 -0.00250326 0)
(0.0391592 -0.0085762 0)
(0.0378306 -0.00754634 0)
(0.0367566 -0.00638692 0)
(-0.0185333 0.0371929 0)
(-0.00544446 0.0351008 0)
(0.00303586 0.0210338 0)
(0.0104888 0.0200039 0)
(0.0100394 0.0250609 0)
(0.0123072 0.0112715 0)
(0.0180424 -0.00590704 0)
(0.0212807 -0.00561884 0)
(0.023156 -0.00711165 0)
(0.0267182 -0.0136924 0)
(-0.0381099 0.0157624 0)
(-0.0303898 0.0163923 0)
(-0.0259982 0.013503 0)
(-0.0197986 0.0175445 0)
(-0.00992201 0.0135365 0)
(0.00226582 -0.0104262 0)
(0.0082428 -0.0201548 0)
(0.0152417 -0.0205603 0)
(0.0200691 -0.0167194 0)
(0.0225232 -0.0192209 0)
(-0.0300236 0.00726442 0)
(-0.0193696 0.00464917 0)
(-0.00792072 -0.00103267 0)
(0.00393428 -0.0039306 0)
(0.0168565 -0.0176779 0)
(0.0287473 -0.0247792 0)
(0.0354731 -0.0291959 0)
(0.0382601 -0.0273468 0)
(0.0393263 -0.0230894 0)
(0.0387241 -0.0235354 0)
(0.00378731 -0.0216009 0)
(0.0171013 -0.0271052 0)
(0.0286477 -0.0323576 0)
(0.0392035 -0.0349594 0)
(0.0502649 -0.037683 0)
(0.0597858 -0.0418709 0)
(0.0673055 -0.0416531 0)
(0.074451 -0.034258 0)
(0.079532 -0.0192036 0)
(0.0782556 -0.0113435 0)
(0.0341251 -0.0368882 0)
(0.0410502 -0.0418481 0)
(0.0468609 -0.0464027 0)
(0.0522592 -0.0506966 0)
(0.0581317 -0.0549457 0)
(0.0638994 -0.0576563 0)
(0.0692297 -0.057793 0)
(0.0738213 -0.0527261 0)
(0.0795702 -0.0332553 0)
(0.0828961 -0.00909205 0)
(0.0414565 -0.0514087 0)
(0.0461912 -0.0531856 0)
(0.0500539 -0.054305 0)
(0.0532874 -0.0598974 0)
(0.0568289 -0.0625406 0)
(0.0596986 -0.0641627 0)
(0.0606293 -0.0626061 0)
(0.0596356 -0.0557133 0)
(0.0594689 -0.0363184 0)
(0.063262 -0.0147684 0)
(0.0423769 -0.0548349 0)
(0.0428122 -0.057109 0)
(0.0422053 -0.059821 0)
(0.0436596 -0.0660637 0)
(0.0453349 -0.0652789 0)
(0.0448898 -0.0649229 0)
(0.0432886 -0.0610206 0)
(0.0457535 -0.0453243 0)
(0.0463525 -0.0362035 0)
(0.0525853 -0.0274005 0)
(0.0250192 -0.0511093 0)
(0.0205585 -0.0518962 0)
(0.0191919 -0.0558756 0)
(0.0184173 -0.0676527 0)
(0.0220645 -0.0673199 0)
(0.0260855 -0.0581642 0)
(0.0250816 -0.0634209 0)
(0.0307348 -0.0557775 0)
(0.0373615 -0.0587751 0)
(0.0463517 -0.0548481 0)
(-0.00187704 -0.0418432 0)
(-0.00354894 -0.0487008 0)
(-0.00238545 -0.0562123 0)
(0.000847841 -0.0737607 0)
(0.00168259 -0.0759595 0)
(0.0102833 -0.0681417 0)
(0.0118461 -0.0754901 0)
(0.0183569 -0.0703511 0)
(0.0228299 -0.0743358 0)
(0.0189363 -0.0593699 0)
(-0.00641272 -0.040992 0)
(-0.00765616 -0.0506457 0)
(-0.00589596 -0.064483 0)
(-0.00198013 -0.0786829 0)
(-0.00274134 -0.0833604 0)
(0.00399932 -0.0807926 0)
(0.00644007 -0.0786345 0)
(0.0119378 -0.0714189 0)
(0.00222894 -0.0648654 0)
(-0.00340828 -0.0278133 0)
(0.00789886 -0.0391242 0)
(0.00705255 -0.0519103 0)
(0.00374048 -0.069957 0)
(0.00396457 -0.0833808 0)
(0.00578129 -0.0892668 0)
(0.00969092 -0.0885801 0)
(0.00941835 -0.0824365 0)
(0.0142439 -0.0671466 0)
(0.0073968 -0.0332764 0)
(-0.0080826 -0.0237804 0)
(0.0396187 -0.0390148 0)
(0.0376393 -0.0397401 0)
(0.0316943 -0.0553386 0)
(0.0309748 -0.0856183 0)
(0.0327841 -0.093369 0)
(0.0323306 -0.0916224 0)
(0.0341101 -0.0837476 0)
(0.028602 -0.0722002 0)
(0.0316272 -0.0342749 0)
(0.0319151 0.00725825 0)
(0.0469017 -0.0416887 0)
(0.0455725 -0.0361907 0)
(0.0442336 -0.0467079 0)
(0.0437185 -0.0814277 0)
(0.0447987 -0.0928569 0)
(0.0448064 -0.0902926 0)
(0.0454829 -0.0775609 0)
(0.0416568 -0.0612654 0)
(0.0340038 -0.0421507 0)
(0.0389853 0.00449876 0)
(0.0390418 -0.0410518 0)
(0.0353746 -0.0356633 0)
(0.0367055 -0.0495021 0)
(0.041053 -0.0833672 0)
(0.0463661 -0.0951087 0)
(0.0478045 -0.0902535 0)
(0.0474489 -0.0738153 0)
(0.0429722 -0.0492093 0)
(0.0289849 -0.0300361 0)
(0.0273199 0.00859841 0)
(0.0158535 -0.0267875 0)
(0.0110273 -0.0293713 0)
(0.0110896 -0.0626101 0)
(0.0121725 -0.105732 0)
(0.0254121 -0.118973 0)
(0.0311492 -0.102756 0)
(0.0294255 -0.0705449 0)
(0.0204491 -0.0404845 0)
(0.00281372 -0.0102714 0)
(-0.0178504 0.0194095 0)
(-0.00463838 -0.0143861 0)
(-0.0025126 -0.03478 0)
(-0.00829223 -0.0579237 0)
(-0.000745303 -0.117843 0)
(-0.0015498 -0.129349 0)
(-0.00772852 -0.0812168 0)
(-0.0243048 -0.0443502 0)
(-0.0397321 0.00634255 0)
(-0.0573471 0.054716 0)
(-0.06824 0.053504 0)
(-0.0067643 -0.0251725 0)
(-0.0157941 -0.021037 0)
(-0.00816125 -0.0666577 0)
(-0.0110517 -0.107852 0)
(-0.0265403 -0.101977 0)
(-0.0368134 -0.045548 0)
(-0.0505674 -0.00993463 0)
(-0.0599993 0.0290454 0)
(-0.051701 0.0527068 0)
(-0.0507541 0.0494544 0)
(-0.0163027 -0.0144393 0)
(-0.0261028 -0.0266753 0)
(-0.0174655 -0.0761672 0)
(-0.0256998 -0.0875421 0)
(-0.036491 -0.081543 0)
(-0.0461597 -0.0301987 0)
(-0.0499444 -0.000299694 0)
(-0.044538 0.0089861 0)
(-0.034374 0.0298755 0)
(-0.0262385 0.0241612 0)
(-0.00556371 -0.00759858 0)
(0.00641369 -0.0119031 0)
(0.00462677 -0.0633542 0)
(-0.00459013 -0.0680131 0)
(-0.0101592 -0.0636505 0)
(-0.0215238 -0.0281014 0)
(-0.023906 -0.00351998 0)
(-0.024332 -0.00825046 0)
(-0.0200348 0.00985144 0)
(-0.011095 0.000251627 0)
(-0.0103623 -0.0428397 0)
(0.00739127 -0.0408156 0)
(0.00788436 -0.0583577 0)
(0.00357032 -0.0639397 0)
(-9.9612e-05 -0.0491986 0)
(-0.0141133 -0.00865783 0)
(-0.0226696 0.011412 0)
(-0.037749 0.00247485 0)
(-0.0401646 0.00196438 0)
(-0.0366795 -0.0171331 0)
(-0.00908545 -0.0613241 0)
(0.00103791 -0.0561871 0)
(0.00252381 -0.0532179 0)
(-0.00885569 -0.0451022 0)
(-0.0203174 -0.0176097 0)
(-0.0329966 0.0190877 0)
(-0.0329495 0.0370145 0)
(-0.0478993 0.0264249 0)
(-0.0552387 0.00611137 0)
(-0.0586837 0.00325973 0)
(0.013674 -0.0497941 0)
(-0.00484338 -0.0589242 0)
(-0.00639072 -0.0355461 0)
(-0.0217108 -0.0247972 0)
(-0.0250403 -0.00635454 0)
(-0.0281799 0.0145288 0)
(-0.0287253 0.0464284 0)
(-0.0342242 0.047526 0)
(-0.0502063 0.0251624 0)
(-0.0604457 0.0245429 0)
(0.0300548 -0.0167415 0)
(0.0107808 -0.0261818 0)
(-0.000390918 -0.0176666 0)
(-0.00982434 -0.00579124 0)
(-0.0144388 9.53648e-05 0)
(-0.0264465 0.0247089 0)
(-0.0299539 0.05736 0)
(-0.0333599 0.0681178 0)
(-0.0480896 0.0578153 0)
(-0.0617481 0.0556941 0)
(0.0368795 0.00462163 0)
(0.0251873 0.000146978 0)
(0.016476 0.00153981 0)
(0.00952262 0.00778341 0)
(0.00394343 0.0213727 0)
(-0.0113067 0.0427908 0)
(-0.0209572 0.0665174 0)
(-0.0271641 0.0870095 0)
(-0.0463218 0.0841698 0)
(-0.063406 0.0833649 0)
(0.0254446 0.0180911 0)
(0.0235755 0.0141723 0)
(0.0204175 0.0137035 0)
(0.0139052 0.0178972 0)
(0.00952075 0.0369897 0)
(-0.0088917 0.0690844 0)
(-0.0269778 0.0874878 0)
(-0.0361357 0.118164 0)
(-0.0552476 0.114419 0)
(-0.0662055 0.10573 0)
(0.0135825 0.0110935 0)
(0.0145357 0.014496 0)
(0.0123677 0.0194146 0)
(0.00714375 0.0325931 0)
(-0.00276672 0.0659028 0)
(-0.0143288 0.110402 0)
(-0.0380645 0.124234 0)
(-0.0436184 0.149354 0)
(-0.0639006 0.13956 0)
(-0.0727051 0.12197 0)
(0.0190364 0.00955364 0)
(0.0184756 0.017693 0)
(0.0122594 0.0318691 0)
(0.0045355 0.0524932 0)
(-0.0122548 0.089986 0)
(-0.0180334 0.143853 0)
(-0.0520764 0.158744 0)
(-0.0614427 0.174778 0)
(-0.0785677 0.156744 0)
(-0.0809828 0.125509 0)
(0.0476324 0.0163425 0)
(0.0408738 0.0283873 0)
(0.0281965 0.0492402 0)
(0.0168847 0.0747994 0)
(-0.00397823 0.109792 0)
(-0.0120336 0.169878 0)
(-0.0430287 0.20234 0)
(-0.0585568 0.211469 0)
(-0.0832241 0.171134 0)
(-0.0838553 0.130769 0)
(0.0614477 0.0150233 0)
(0.0449142 0.0468193 0)
(0.0297447 0.075038 0)
(0.0104531 0.103571 0)
(-0.0133358 0.145125 0)
(-0.0382332 0.220303 0)
(-0.0674672 0.253636 0)
(-0.0784315 0.253043 0)
(-0.0881741 0.178069 0)
(-0.0888647 0.14451 0)
(0.0142869 0.0621166 0)
(0.0026428 0.0875812 0)
(-0.0110598 0.1209 0)
(-0.0290229 0.159629 0)
(-0.0495992 0.213207 0)
(-0.0638428 0.264278 0)
(-0.0713131 0.279634 0)
(-0.0711095 0.265543 0)
(-0.0781281 0.188594 0)
(-0.0781701 0.16378 0)
(-0.0505022 0.0744786 0)
(-0.0521526 0.112706 0)
(-0.0544075 0.149978 0)
(-0.0624394 0.188335 0)
(-0.0707575 0.23788 0)
(-0.0715988 0.267847 0)
(-0.0707111 0.277734 0)
(-0.0667955 0.263015 0)
(-0.066376 0.19449 0)
(-0.0645085 0.171843 0)
(-0.0804216 0.0738463 0)
(-0.0771285 0.109198 0)
(-0.0741728 0.146416 0)
(-0.0727607 0.186851 0)
(-0.0711027 0.23742 0)
(-0.067159 0.261971 0)
(-0.0606213 0.269123 0)
(-0.0519841 0.256673 0)
(-0.045862 0.195295 0)
(-0.0460306 0.169706 0)
(-0.0934135 0.0685158 0)
(-0.0875518 0.0949306 0)
(-0.078141 0.133575 0)
(-0.070948 0.182225 0)
(-0.0685744 0.224784 0)
(-0.0566129 0.240264 0)
(-0.0419185 0.243755 0)
(-0.0245509 0.231141 0)
(-0.0164368 0.196345 0)
(-0.018576 0.169851 0)
(-0.0855721 0.0569474 0)
(-0.0757255 0.0702864 0)
(-0.0720576 0.110957 0)
(-0.0645032 0.166717 0)
(-0.0529386 0.201322 0)
(-0.0415092 0.208302 0)
(-0.0199381 0.195097 0)
(8.02864e-05 0.198581 0)
(0.0063887 0.192412 0)
(0.00386049 0.172203 0)
(-0.0583488 0.0470919 0)
(-0.0740279 0.0862805 0)
(-0.0846698 0.113232 0)
(-0.0785372 0.144356 0)
(-0.0570059 0.169583 0)
(-0.0307148 0.172765 0)
(-0.0100818 0.164655 0)
(0.00414733 0.177076 0)
(0.014817 0.185657 0)
(0.0181327 0.179651 0)
(-0.077318 0.0791442 0)
(-0.0901164 0.11664 0)
(-0.0946073 0.112835 0)
(-0.0753755 0.112044 0)
(-0.048443 0.112456 0)
(-0.0208258 0.120586 0)
(0.00416097 0.131071 0)
(0.0239746 0.154316 0)
(0.0329831 0.172803 0)
(0.0427458 0.180071 0)
(-0.124701 0.106818 0)
(-0.111264 0.11393 0)
(-0.0917553 0.0930669 0)
(-0.0693391 0.063897 0)
(-0.0480622 0.055548 0)
(-0.0252435 0.0642246 0)
(-0.000644693 0.0767857 0)
(0.0283757 0.113377 0)
(0.0497818 0.141245 0)
(0.0676979 0.154116 0)
(-0.174682 0.0756505 0)
(-0.145056 0.0649782 0)
(-0.118947 0.0436976 0)
(-0.0974663 0.0155346 0)
(-0.0695904 0.0082413 0)
(-0.041788 0.0133703 0)
(-0.0206269 0.0234666 0)
(0.00187979 0.0581291 0)
(0.030879 0.103139 0)
(0.0595933 0.110643 0)
(-0.177583 0.0066652 0)
(-0.149403 -0.0142391 0)
(-0.121322 -0.0204897 0)
(-0.095027 -0.0386257 0)
(-0.0687788 -0.049338 0)
(-0.0423766 -0.0329508 0)
(-0.0165822 0.000476763 0)
(0.00742683 0.0111696 0)
(0.0450445 0.013468 0)
(0.0885803 0.0131779 0)
(-0.193796 -0.0486772 0)
(-0.168684 -0.0501153 0)
(-0.138284 -0.0622063 0)
(-0.105791 -0.0777625 0)
(-0.0745446 -0.0869662 0)
(-0.0394551 -0.0964451 0)
(0.00798927 -0.0802864 0)
(0.0522616 -0.0583351 0)
(0.094351 -0.0593941 0)
(0.123465 -0.054192 0)
(-0.227107 -0.10094 0)
(-0.201165 -0.135666 0)
(-0.166357 -0.170882 0)
(-0.132208 -0.180117 0)
(-0.087965 -0.169966 0)
(-0.0420187 -0.18781 0)
(0.0103896 -0.193641 0)
(0.0615025 -0.16199 0)
(0.103921 -0.118104 0)
(0.130796 -0.0949284 0)
(-0.202989 -0.138359 0)
(-0.188162 -0.177634 0)
(-0.166659 -0.215366 0)
(-0.150152 -0.243499 0)
(-0.114264 -0.292941 0)
(-0.073561 -0.324663 0)
(-0.0241959 -0.320246 0)
(0.0220365 -0.300514 0)
(0.0695592 -0.203405 0)
(0.0877399 -0.141777 0)
(-0.182526 -0.155071 0)
(-0.168279 -0.193977 0)
(-0.160051 -0.225303 0)
(-0.157371 -0.261988 0)
(-0.139717 -0.336377 0)
(-0.126006 -0.37208 0)
(-0.109917 -0.381911 0)
(-0.0961281 -0.3612 0)
(-0.0467369 -0.242462 0)
(-0.00148131 -0.14436 0)
(-0.180423 -0.171083 0)
(-0.170628 -0.213643 0)
(-0.166165 -0.233875 0)
(-0.160398 -0.272897 0)
(-0.150601 -0.345731 0)
(-0.150467 -0.374282 0)
(-0.147375 -0.382929 0)
(-0.138756 -0.368095 0)
(-0.120103 -0.31317 0)
(-0.0632816 -0.221273 0)
(-0.168357 -0.169352 0)
(-0.166072 -0.222591 0)
(-0.15746 -0.2493 0)
(-0.150236 -0.289671 0)
(-0.142108 -0.353421 0)
(-0.143556 -0.386858 0)
(-0.135064 -0.409415 0)
(-0.127842 -0.417111 0)
(-0.103994 -0.402876 0)
(-0.0740158 -0.33527 0)
(-0.125479 -0.14435 0)
(-0.131938 -0.246172 0)
(-0.11701 -0.294287 0)
(-0.105623 -0.324471 0)
(-0.0843916 -0.370941 0)
(-0.0816297 -0.396402 0)
(-0.0733453 -0.426289 0)
(-0.0712824 -0.433924 0)
(-0.061725 -0.430653 0)
(-0.0553989 -0.380998 0)
(-0.0227965 -0.0455102 0)
(-0.0604161 -0.222068 0)
(-0.0652114 -0.320842 0)
(-0.0723152 -0.360265 0)
(-0.052689 -0.387482 0)
(-0.0526071 -0.394469 0)
(-0.0474531 -0.42379 0)
(-0.0447052 -0.437424 0)
(-0.0360829 -0.433185 0)
(-0.0347168 -0.391359 0)
(0.0405732 -0.0369319 0)
(0.0421425 -0.121719 0)
(0.00298935 -0.257335 0)
(-0.039349 -0.345353 0)
(-0.0406838 -0.390626 0)
(-0.0432923 -0.404182 0)
(-0.0404569 -0.429957 0)
(-0.038826 -0.449979 0)
(-0.0325448 -0.444158 0)
(-0.0339307 -0.389057 0)
(0.0503904 -0.110143 0)
(0.0649431 -0.10617 0)
(0.0267076 -0.155775 0)
(-0.0176638 -0.298038 0)
(-0.0311301 -0.376231 0)
(-0.0372051 -0.401127 0)
(-0.039459 -0.431453 0)
(-0.0392918 -0.45263 0)
(-0.0397335 -0.447402 0)
(-0.0455768 -0.389998 0)
(0.0930574 -0.126308 0)
(0.0950343 -0.0773791 0)
(0.0616842 -0.0640227 0)
(0.0108708 -0.231863 0)
(-0.0204438 -0.353601 0)
(-0.0282271 -0.389951 0)
(-0.0354638 -0.427854 0)
(-0.0388077 -0.448723 0)
(-0.0487459 -0.439863 0)
(-0.0496555 -0.399987 0)
(0.104086 -0.136901 0)
(0.110827 -0.0790494 0)
(0.0831008 0.0182531 0)
(0.0516092 -0.125533 0)
(0.00978059 -0.314292 0)
(-0.00938969 -0.373787 0)
(-0.0187424 -0.412693 0)
(-0.0313205 -0.430524 0)
(-0.0464996 -0.424969 0)
(-0.0433472 -0.4163 0)
(0.0784495 -0.130472 0)
(0.0664356 -0.0301565 0)
(0.0521787 0.0343909 0)
(0.0753886 -0.084367 0)
(0.0630567 -0.248932 0)
(0.0310938 -0.336716 0)
(0.0164649 -0.379093 0)
(-0.00673313 -0.39749 0)
(-0.0196082 -0.408736 0)
(-0.0260593 -0.423889 0)
(0.0404846 -0.0949749 0)
(0.0496105 -0.0169983 0)
(0.0713644 -0.0214936 0)
(0.105626 -0.0912102 0)
(0.110409 -0.192582 0)
(0.078911 -0.272986 0)
(0.0517715 -0.330435 0)
(0.0265666 -0.356133 0)
(0.0118771 -0.384332 0)
(-0.00711776 -0.397169 0)
(0.0320942 -0.127434 0)
(0.0522013 -0.101828 0)
(0.0795314 -0.113298 0)
(0.114007 -0.155637 0)
(0.117222 -0.181374 0)
(0.0978253 -0.219802 0)
(0.0692781 -0.281523 0)
(0.0464624 -0.317201 0)
(0.0315081 -0.349763 0)
(0.0124277 -0.352043 0)
(0.138434 -0.13117 0)
(0.119994 -0.140731 0)
(0.121631 -0.15119 0)
(0.133345 -0.174656 0)
(0.130025 -0.181004 0)
(0.121796 -0.188378 0)
(0.0992436 -0.23268 0)
(0.0764336 -0.285307 0)
(0.0601442 -0.316283 0)
(0.0487941 -0.321293 0)
(0.272632 -0.0184805 0)
(0.258353 -0.0573736 0)
(0.249788 -0.102162 0)
(0.235507 -0.133445 0)
(0.206904 -0.141671 0)
(0.174507 -0.140706 0)
(0.146747 -0.164961 0)
(0.124612 -0.247483 0)
(0.108362 -0.290923 0)
(0.100739 -0.298175 0)
(0.303995 -0.0792406 0)
(0.321169 -0.0886798 0)
(0.318052 -0.086833 0)
(0.286062 -0.0921421 0)
(0.23516 -0.0629514 0)
(0.185931 -0.0558726 0)
(0.155004 -0.109598 0)
(0.145394 -0.220905 0)
(0.133789 -0.267994 0)
(0.12309 -0.27937 0)
(0.173217 -0.0998999 0)
(0.169529 -0.0951626 0)
(0.164435 -0.0486213 0)
(0.146936 -0.00665916 0)
(0.13671 0.000613577 0)
(0.132257 -0.0146537 0)
(0.137131 -0.101646 0)
(0.151614 -0.211287 0)
(0.149495 -0.257493 0)
(0.142664 -0.26523 0)
(0.111875 -0.0674768 0)
(0.097801 -0.0533359 0)
(0.0960903 -0.0298582 0)
(0.104636 -0.0183341 0)
(0.117145 -0.0198878 0)
(0.130668 -0.044044 0)
(0.150415 -0.139577 0)
(0.164526 -0.217912 0)
(0.160791 -0.256937 0)
(0.156653 -0.260207 0)
(0.0770418 -0.0445468 0)
(0.0745891 -0.0581969 0)
(0.0856564 -0.0611223 0)
(0.107451 -0.0464192 0)
(0.121937 -0.050636 0)
(0.134259 -0.080033 0)
(0.149763 -0.163758 0)
(0.164641 -0.223006 0)
(0.159308 -0.249757 0)
(0.15632 -0.249061 0)
(0.0764469 -0.0527787 0)
(0.084531 -0.107951 0)
(0.0863242 -0.116726 0)
(0.101425 -0.0893518 0)
(0.109522 -0.0880366 0)
(0.119328 -0.117254 0)
(0.13234 -0.188091 0)
(0.134628 -0.225114 0)
(0.119892 -0.23604 0)
(0.108743 -0.22322 0)
(0.152836 -0.0291472 0)
(0.148928 -0.0593588 0)
(0.112027 -0.0743466 0)
(0.0948769 -0.0761076 0)
(0.0972865 -0.0898161 0)
(0.111365 -0.142862 0)
(0.116587 -0.192577 0)
(0.107078 -0.203106 0)
(0.0858909 -0.196295 0)
(0.0473483 -0.165202 0)
(0.137054 -0.0481281 0)
(0.131884 -0.0378381 0)
(0.116521 -0.0361823 0)
(0.100734 -0.0523335 0)
(0.107468 -0.0978523 0)
(0.114914 -0.155038 0)
(0.096483 -0.17024 0)
(0.076102 -0.155189 0)
(0.0192332 -0.10953 0)
(-0.0288637 -0.0885329 0)
(0.0577854 -0.0106969 0)
(0.0560499 -0.0158069 0)
(0.0631563 -0.0282165 0)
(0.0679207 -0.0723583 0)
(0.0903624 -0.126345 0)
(0.0719593 -0.138539 0)
(0.0427964 -0.11638 0)
(-0.00975247 -0.0545715 0)
(-0.0368878 -0.0190242 0)
(-0.0585343 -0.0321485 0)
(0.0253314 -0.0324314 0)
(0.030759 -0.0372315 0)
(0.0388212 -0.0738056 0)
(0.0510353 -0.10787 0)
(0.0271662 -0.0981376 0)
(-0.0179495 -0.0513486 0)
(-0.0525873 -0.00610144 0)
(-0.0692309 0.00679665 0)
(-0.0838466 0.00422693 0)
(-0.092399 -5.45707e-06 0)
(-0.00524276 -0.00969119 0)
(0.00713251 -0.0279257 0)
(-0.0202145 -0.0725769 0)
(-0.0470995 -0.0118954 0)
(-0.0558633 0.00890138 0)
(-0.0630506 0.011588 0)
(-0.0617353 0.00684409 0)
(-0.0581895 0.0105815 0)
(-0.0674857 0.0237107 0)
(-0.0879327 0.0423745 0)
(-0.0678863 -0.0611964 0)
(-0.105905 -0.0147698 0)
(-0.119012 -0.0165637 0)
(-0.122527 -0.0519202 0)
(-0.104681 -0.0628768 0)
(-0.0894875 -0.0478035 0)
(-0.0896108 -0.0269633 0)
(-0.103102 0.00602322 0)
(-0.108724 0.0659041 0)
(-0.116656 0.110766 0)
(-0.152153 0.14119 0)
(-0.128817 0.0802635 0)
(-0.118001 0.00594843 0)
(-0.105153 -0.0220705 0)
(-0.103879 -0.0300701 0)
(-0.0999936 -0.00527701 0)
(-0.0980412 0.0437867 0)
(-0.10048 0.07237 0)
(-0.113319 0.0690599 0)
(-0.110595 0.0840982 0)
(-0.348741 -0.0172316 0)
(-0.23325 -0.0582126 0)
(-0.207076 -0.114195 0)
(-0.137831 -0.105895 0)
(-0.110532 -0.120241 0)
(-0.0633419 -0.0576859 0)
(-0.0302149 -0.0379476 0)
(0.0262195 -0.0181898 0)
(0.0553444 0.114155 0)
(0.0854351 0.113456 0)
(-0.414459 -0.333145 0)
(-0.289056 -0.225428 0)
(-0.214326 -0.21552 0)
(-0.175591 -0.169562 0)
(-0.133136 -0.167795 0)
(-0.11342 -0.142599 0)
(-0.0681243 -0.128509 0)
(-0.0375331 -0.124428 0)
(-0.0153434 -0.00993896 0)
(0.199405 0.0460718 0)
(-0.013008 0.00390044 0)
(-0.0149935 0.00329663 0)
(-0.015763 0.00167866 0)
(-0.0147587 -0.000264611 0)
(-0.0127727 -0.00133606 0)
(-0.00969299 -0.00254129 0)
(-0.00502799 -0.00273818 0)
(0.000219441 -0.00173512 0)
(0.00310509 -0.00110697 0)
(0.00578656 -0.00318357 0)
(0.00889701 -0.00337946 0)
(0.0115973 -0.00125937 0)
(0.0120071 0.000555097 0)
(0.0107748 0.00098225 0)
(0.00853825 3.87151e-05 0)
(0.00778644 -0.000968258 0)
(0.00823915 -0.00104007 0)
(0.00933107 2.95956e-05 0)
(0.00954517 0.00140356 0)
(0.00846497 0.00245001 0)
(0.00601693 0.00257761 0)
(0.00369776 0.00141418 0)
(0.00143577 0.00121391 0)
(-0.00165157 0.00244138 0)