/*--------------------------------*- C++ -*----------------------------------*\
  =========                 |
  \\      /  F ield         | OpenFOAM: The Open Source CFD Toolbox
   \\    /   O peration     | Website:  https://openfoam.org
    \\  /    A nd           | Version:  8
     \\/     M anipulation  |
\*---------------------------------------------------------------------------*/
FoamFile
{
    version     2.0;
    format      ascii;
    class       surfaceScalarField;
    location    "7.2";
    object      alphaPhi0.water;
}
// * * * * * * * * * * * * * * * * * * * * * * * * * * * * * * * * * * * * * //

dimensions      [0 3 -1 0 0 0 0];

internalField   nonuniform List<scalar> 
18095
(
1.99835e-08
-1.72048e-07
1.52064e-07
2.32456e-08
-1.97404e-07
1.94142e-07
2.0659e-08
-2.06205e-07
2.08792e-07
1.26043e-08
-2.11805e-07
2.19859e-07
1.23835e-09
-2.13338e-07
2.24704e-07
-1.0484e-08
-2.13047e-07
2.24769e-07
-1.98009e-08
-2.10415e-07
2.19732e-07
-2.31843e-08
-2.06057e-07
2.09441e-07
-1.99878e-08
-1.97539e-07
1.94343e-07
-1.72142e-07
1.52154e-07
1.55455e-08
-1.87593e-07
1.62251e-08
-1.98083e-07
1.18342e-08
-2.01815e-07
5.30804e-09
-2.05279e-07
-1.34103e-09
-2.06689e-07
-6.98808e-09
-2.074e-07
-1.21546e-08
-2.05249e-07
-1.6117e-08
-2.02095e-07
-1.55128e-08
-1.98143e-07
-1.87655e-07
6.80189e-09
-1.94395e-07
8.43378e-09
-1.99715e-07
7.52347e-09
-2.00904e-07
4.80148e-09
-2.02557e-07
9.6483e-10
-2.02852e-07
-3.68774e-09
-2.02747e-07
-7.17269e-09
-2.01764e-07
-8.40022e-09
-2.00867e-07
-6.78689e-09
-1.99757e-07
-1.94442e-07
4.52896e-09
-1.98924e-07
4.73134e-09
-1.99918e-07
3.66236e-09
-1.99835e-07
1.51018e-09
-2.00404e-07
-5.29458e-10
-2.00812e-07
-2.35886e-09
-2.00918e-07
-3.80546e-09
-2.00317e-07
-4.72147e-09
-1.99951e-07
-4.49631e-09
-1.99982e-07
-1.98938e-07
1.07586e-09
1.15828e-09
1.32302e-09
9.18682e-10
1.06337e-10
-8.11663e-10
-1.12888e-09
-1.08e-09
-1.06189e-09
-2.88177e-08
-1.95891e-07
2.24709e-07
-3.15046e-08
-1.99069e-07
2.01756e-07
-2.65695e-08
-2.00651e-07
1.95716e-07
-1.59239e-08
-2.01384e-07
1.90738e-07
-1.36331e-09
-2.02162e-07
1.87602e-07
1.36144e-08
-2.02366e-07
1.87388e-07
2.51722e-08
-2.02095e-07
1.90537e-07
3.10627e-08
-2.01404e-07
1.95514e-07
2.85996e-08
-1.99151e-07
2.01614e-07
-1.95826e-07
2.24426e-07
-9.49264e-09
-1.86398e-07
-1.50879e-08
-1.93474e-07
-1.17489e-08
-2.0399e-07
-4.73722e-09
-2.08396e-07
1.4026e-09
-2.08302e-07
7.11197e-09
-2.08075e-07
1.32491e-08
-2.08232e-07
1.53084e-08
-2.03463e-07
9.43474e-09
-1.93278e-07
-1.86391e-07
-9.87017e-09
-1.76528e-07
-8.16255e-09
-1.95182e-07
-7.5729e-09
-2.0458e-07
-6.2416e-09
-2.09727e-07
-1.24064e-09
-2.13303e-07
3.8357e-09
-2.13151e-07
6.12282e-09
-2.10519e-07
7.62622e-09
-2.04967e-07
9.81407e-09
-1.95465e-07
-1.76577e-07
-6.29e-09
-1.70238e-07
-7.89334e-09
-1.93578e-07
-6.96597e-09
-2.05507e-07
-1.53869e-09
-2.15154e-07
1.74351e-09
-2.16585e-07
4.86251e-09
-2.1627e-07
8.75108e-09
-2.14408e-07
8.58966e-09
-2.04805e-07
6.42172e-09
-1.93298e-07
-1.70156e-07
-1.81739e-08
-1.76107e-08
-1.43256e-08
-9.62054e-09
-1.50221e-09
6.99677e-09
1.23211e-08
1.69562e-08
1.80014e-08
3.31309e-08
-1.59213e-07
1.26082e-07
3.77104e-08
-1.99853e-07
1.95273e-07
2.92435e-08
-2.11577e-07
2.20043e-07
1.70262e-08
-2.16111e-07
2.28328e-07
7.33818e-10
-2.17266e-07
2.33558e-07
-1.99374e-08
-2.16332e-07
2.37003e-07
-3.53202e-08
-2.14231e-07
2.29614e-07
-4.24754e-08
-2.10055e-07
2.17211e-07
-3.78632e-08
-1.98019e-07
1.93407e-07
-1.57343e-07
1.1948e-07
1.64049e-08
-1.75618e-07
1.83883e-08
-2.01836e-07
1.43391e-08
-2.07527e-07
5.95479e-09
-2.07726e-07
-3.60846e-09
-2.07702e-07
-1.15413e-08
-2.08399e-07
-1.69516e-08
-2.08821e-07
-1.99212e-08
-2.07086e-07
-1.72238e-08
-2.00717e-07
-1.74567e-07
7.65729e-09
-1.83275e-07
8.12517e-09
-2.02304e-07
7.19016e-09
-2.06592e-07
4.38094e-09
-2.04917e-07
1.36092e-09
-2.04682e-07
-2.63585e-09
-2.04402e-07
-7.75267e-09
-2.03704e-07
-8.89292e-09
-2.05945e-07
-8.07782e-09
-2.01532e-07
-1.82645e-07
7.51602e-09
-1.90791e-07
4.81321e-09
-1.99602e-07
5.42729e-09
-2.07206e-07
-4.46332e-10
-1.99044e-07
-2.20028e-09
-2.02928e-07
-3.5361e-09
-2.03066e-07
-6.90765e-09
-2.00333e-07
-5.67957e-09
-2.07173e-07
-7.83657e-09
-1.99375e-07
-1.90481e-07
3.39174e-08
3.60721e-08
2.45815e-08
1.62765e-08
9.49862e-10
-1.47285e-08
-2.4524e-08
-3.61837e-08
-3.39443e-08
1.45523e-07
-7.41718e-09
-1.3784e-07
1.76072e-07
-3.04827e-08
2.18239e-07
-4.21139e-08
2.57747e-07
-3.9454e-08
2.79104e-07
-2.12976e-08
2.82546e-07
-3.2355e-09
2.82663e-07
1.35321e-12
2.82174e-07
5.42476e-10
2.72142e-07
1.00266e-08
2.69304e-08
2.44036e-07
2.04597e-07
-5.96913e-09
-1.92157e-07
2.25604e-07
-4.00387e-08
2.38906e-07
-5.40596e-08
2.50943e-07
-5.14376e-08
2.53848e-07
-2.97096e-08
2.60291e-07
-1.25939e-08
2.85566e-07
-1.27889e-08
3.02141e-07
-1.56819e-08
3.21347e-07
-9.10623e-09
9.92975e-09
3.38363e-07
1.7492e-07
-3.61716e-09
-1.77273e-07
1.66502e-07
-3.16216e-08
1.74576e-07
-4.58816e-08
1.81662e-07
-5.74233e-08
2.01994e-07
-5.67206e-08
2.33106e-07
-4.7151e-08
2.63503e-07
-3.4428e-08
2.77647e-07
-2.79225e-08
2.89922e-07
-2.12896e-08
-2.16979e-09
2.82647e-07
8.69468e-08
-2.34211e-08
-6.7144e-08
1.23904e-07
-6.35895e-08
1.53812e-07
-7.76501e-08
1.796e-07
-8.71906e-08
2.03085e-07
-8.34978e-08
2.29794e-07
-7.24846e-08
2.46736e-07
-5.12825e-08
2.57467e-07
-3.85585e-08
2.63366e-07
-2.70921e-08
-4.13193e-09
2.57222e-07
1.04482e-07
-6.9024e-08
-5.86006e-08
1.44631e-07
-1.0373e-07
1.81941e-07
-1.14951e-07
2.07547e-07
-1.12786e-07
2.26804e-07
-1.02746e-07
2.38166e-07
-8.38294e-08
2.46851e-07
-5.98846e-08
2.59086e-07
-5.07057e-08
2.58842e-07
-2.71772e-08
2.66794e-08
2.25988e-07
7.31162e-08
-1.10792e-07
-3.0436e-08
1.02717e-07
-1.33322e-07
1.26323e-07
-1.38548e-07
1.45615e-07
-1.32069e-07
1.54737e-07
-1.11659e-07
1.38543e-07
-6.48254e-08
1.13611e-07
-3.33499e-08
9.8123e-08
-3.21576e-08
6.9713e-08
-6.71845e-10
3.91695e-08
5.80262e-08
3.96814e-08
-1.37197e-07
-1.33166e-08
4.90114e-08
-1.42638e-07
3.99667e-08
-1.29495e-07
1.69587e-08
-1.07818e-07
-1.7281e-08
-6.13037e-08
-4.89482e-08
-2.44744e-08
-8.36335e-08
1.33522e-09
-1.2169e-07
5.89857e-09
-1.47854e-07
2.54924e-08
4.03145e-08
-1.48999e-07
1.45363e-08
-1.19152e-07
-3.29152e-08
-2.03879e-08
-1.07698e-07
-6.00285e-08
-8.98399e-08
-8.71702e-08
-5.99933e-08
-1.22565e-07
-2.22541e-08
-1.45742e-07
-1.29828e-09
-1.6291e-07
1.85035e-08
-1.83922e-07
2.69107e-08
-1.89495e-07
3.10646e-08
3.28097e-08
-1.81994e-07
-2.58293e-08
-7.92818e-08
-1.40322e-08
-7.38656e-08
-5.96482e-08
-1.22048e-07
-4.16287e-08
-1.28062e-07
-2.28121e-08
-1.47491e-07
-2.82768e-09
-1.5505e-07
6.26053e-09
-1.64939e-07
2.83927e-08
-1.72266e-07
3.42373e-08
-1.96111e-07
3.61505e-08
3.15544e-08
-2.01429e-07
-1.24303e-07
-3.8377e-08
8.34032e-08
-1.57216e-07
-2.67325e-08
-1.8596e-07
-1.28771e-08
-2.0049e-07
-1.1221e-09
-1.79171e-07
4.26935e-09
-1.84213e-07
1.13009e-08
-2.09548e-07
3.57194e-08
-2.17301e-07
4.17598e-08
-2.17512e-07
3.50919e-08
3.16678e-08
-2.17561e-07
-2.49848e-07
-1.1075e-08
2.21837e-07
-2.69855e-07
-6.71751e-09
-2.86715e-07
4.02004e-09
-2.93973e-07
1.09866e-08
-3.02347e-07
1.59381e-08
-3.15514e-07
2.11814e-08
-3.06881e-07
2.53876e-08
-2.91062e-07
2.59472e-08
-2.82425e-07
2.64666e-08
2.81499e-08
-2.78866e-07
-3.65398e-07
5.96266e-09
3.4839e-07
-3.80049e-07
7.97034e-09
-3.8219e-07
1.15866e-08
-3.83919e-07
1.15256e-08
-3.82523e-07
9.8735e-09
-3.70695e-07
9.361e-09
-3.55248e-07
9.94755e-09
-3.41361e-07
1.2068e-08
-3.30684e-07
1.57971e-08
1.88527e-08
-3.21375e-07
-3.97501e-07
1.92143e-08
3.84252e-07
-4.07204e-07
1.76991e-08
-4.10031e-07
1.51516e-08
-4.0356e-07
8.92351e-09
-3.96376e-07
-1.96267e-09
-3.78641e-07
-8.36577e-09
-3.60878e-07
-7.80956e-09
-3.45932e-07
-2.87072e-09
-3.32828e-07
2.70126e-09
3.98405e-09
-3.17952e-07
-3.87165e-07
2.66955e-08
3.79687e-07
-3.91593e-07
2.21289e-08
-3.92711e-07
1.62718e-08
-3.85579e-07
1.807e-09
-3.68845e-07
-1.86877e-08
-3.49156e-07
-2.80445e-08
-3.27493e-07
-2.61172e-08
-3.08265e-07
-1.8594e-08
-2.94914e-07
-1.26572e-08
-1.22848e-08
-2.80894e-07
-3.31305e-07
2.28377e-08
3.35457e-07
-3.23642e-07
1.43616e-08
-3.12945e-07
5.36437e-09
-3.13312e-07
-5.57468e-09
-3.12716e-07
-2.11442e-08
-3.06673e-07
-3.00677e-08
-2.92203e-07
-3.3341e-08
-2.77182e-07
-3.36558e-08
-2.59098e-07
-3.07778e-08
-3.09876e-08
-2.40436e-07
-2.66881e-07
6.36323e-09
2.83265e-07
-2.48619e-07
-3.92422e-09
-2.30321e-07
-1.30352e-08
-2.17119e-07
-1.92805e-08
-2.15422e-07
-2.42095e-08
-2.07422e-07
-3.80999e-08
-1.98587e-07
-4.22107e-08
-1.92145e-07
-4.01366e-08
-1.91616e-07
-3.25771e-08
-2.86718e-08
-1.95168e-07
-2.20293e-07
-6.12095e-09
2.3301e-07
-2.0718e-07
-1.71822e-08
-1.94892e-07
-2.5414e-08
-1.8282e-07
-3.1328e-08
-1.67234e-07
-3.97777e-08
-1.56398e-07
-4.72226e-08
-1.48016e-07
-4.84468e-08
-1.47629e-07
-4.65252e-08
-1.42758e-07
-3.81603e-08
-3.2765e-08
-1.38665e-07
-1.61364e-07
-1.99743e-08
1.75218e-07
-1.4801e-07
-3.05333e-08
-1.39876e-07
-3.35432e-08
-1.36978e-07
-3.41982e-08
-1.34501e-07
-4.22442e-08
-1.3182e-07
-4.99055e-08
-1.30077e-07
-5.01951e-08
-1.28562e-07
-4.80444e-08
-1.22908e-07
-4.38313e-08
-4.24921e-08
-1.1318e-07
-1.08832e-07
-2.15701e-08
1.10818e-07
-1.03428e-07
-3.59874e-08
-9.89219e-08
-3.67446e-08
-1.06528e-07
-2.41375e-08
-1.19832e-07
-3.0962e-08
-1.18535e-07
-5.12018e-08
-1.14654e-07
-5.40785e-08
-1.09737e-07
-5.29175e-08
-1.02817e-07
-5.0842e-08
-5.02663e-08
-9.50294e-08
-5.79193e-08
-1.21656e-08
4.84685e-08
-7.25343e-08
-2.07207e-08
-8.44973e-08
-2.3384e-08
-8.92009e-08
-2.01406e-08
-9.15139e-08
-3.1926e-08
-9.18932e-08
-5.08224e-08
-8.89293e-08
-5.70423e-08
-8.31529e-08
-5.86266e-08
-7.34865e-08
-6.0599e-08
-5.96038e-08
-6.42178e-08
-8.86093e-08
-9.1993e-09
8.55855e-08
-9.17658e-08
-1.76257e-08
-9.37626e-08
-2.14447e-08
-9.20013e-08
-2.59871e-08
-8.338e-08
-4.05472e-08
-7.73331e-08
-5.68693e-08
-6.79867e-08
-6.63886e-08
-5.45958e-08
-7.20173e-08
-4.16458e-08
-7.3682e-08
-6.92456e-08
-3.2003e-08
-1.06939e-07
-1.93593e-08
1.2137e-07
-1.01758e-07
-2.28607e-08
-1.00569e-07
-2.63546e-08
-8.89247e-08
-3.76309e-08
-7.64191e-08
-5.30528e-08
-6.47005e-08
-6.85877e-08
-5.19962e-08
-7.90926e-08
-4.0434e-08
-8.35792e-08
-3.26409e-08
-8.13099e-08
-7.41823e-08
-2.77026e-08
-1.31845e-07
-3.1801e-08
1.4621e-07
-1.20571e-07
-3.42434e-08
-1.12309e-07
-3.7811e-08
-1.0374e-07
-4.61995e-08
-9.31991e-08
-6.3594e-08
-8.08187e-08
-8.0968e-08
-7.08496e-08
-8.90614e-08
-6.58604e-08
-8.8568e-08
-6.48793e-08
-8.20444e-08
-6.93507e-08
-6.8586e-08
-1.42059e-07
-4.39224e-08
1.54795e-07
-1.32781e-07
-4.25988e-08
-1.30247e-07
-4.1523e-08
-1.24604e-07
-5.14782e-08
-1.19532e-07
-6.89169e-08
-1.19829e-07
-8.07887e-08
-1.27805e-07
-8.10849e-08
-1.39606e-07
-7.67668e-08
-1.48698e-07
-7.07384e-08
-6.08912e-08
-1.41989e-07
-1.62918e-07
-5.90115e-08
1.78009e-07
-1.50032e-07
-5.46656e-08
-1.40022e-07
-5.06232e-08
-1.36139e-07
-5.4563e-08
-1.42954e-07
-6.1357e-08
-1.62903e-07
-6.34705e-08
-1.80811e-07
-6.31728e-08
-1.95756e-07
-6.17982e-08
-1.89498e-07
-6.27251e-08
-5.37214e-08
-1.96674e-07
-1.75221e-07
-8.51801e-08
2.01391e-07
-1.53509e-07
-7.63779e-08
-1.44019e-07
-6.00514e-08
-1.47314e-07
-5.06388e-08
-1.60043e-07
-4.78871e-08
-1.81133e-07
-4.49055e-08
-2.00381e-07
-4.38971e-08
-2.17461e-07
-4.46743e-08
-2.26905e-07
-4.89722e-08
-4.18271e-08
-2.28449e-07
-1.81704e-07
-1.17035e-07
2.13558e-07
-1.49899e-07
-1.08184e-07
-1.34221e-07
-7.57297e-08
-1.37758e-07
-4.67293e-08
-1.50998e-07
-3.42987e-08
-1.7025e-07
-2.66793e-08
-1.90342e-07
-2.48849e-08
-2.11081e-07
-2.39285e-08
-2.30212e-07
-2.98419e-08
-3.27454e-08
-2.36027e-07
-1.90136e-07
-1.43119e-07
2.16221e-07
-1.61111e-07
-1.37209e-07
-1.35451e-07
-1.0139e-07
-1.31813e-07
-5.03677e-08
-1.34256e-07
-3.18565e-08
-1.43389e-07
-1.70352e-08
-1.64241e-07
-4.37202e-09
-1.89364e-07
4.43187e-10
-2.14443e-07
-4.76394e-09
-1.39612e-08
-2.33227e-07
-1.78551e-07
-1.3809e-07
1.75742e-07
-1.64309e-07
-1.51454e-07
-1.44682e-07
-1.21018e-07
-1.38025e-07
-5.70255e-08
-1.34687e-07
-3.51939e-08
-1.3353e-07
-1.81926e-08
-1.45872e-07
7.97445e-09
-1.6697e-07
2.16482e-08
-1.91665e-07
1.98603e-08
7.37301e-09
-2.13058e-07
-1.14131e-07
-1.16617e-07
9.41303e-08
-1.39898e-07
-1.26145e-07
-1.39095e-07
-1.22022e-07
-1.37065e-07
-6.01839e-08
-1.31796e-07
-4.04626e-08
-1.21599e-07
-2.83901e-08
-1.18081e-07
4.45557e-09
-1.32474e-07
3.60418e-08
-1.61405e-07
4.87907e-08
3.89139e-08
-1.92945e-07
-7.40038e-08
-1.04099e-07
6.09735e-08
-1.07842e-07
-9.58662e-08
-1.27419e-07
-1.02124e-07
-1.33187e-07
-5.59982e-08
-1.3777e-07
-3.88183e-08
-1.25211e-07
-4.09497e-08
-9.7508e-08
-2.32474e-08
-8.0497e-08
1.90308e-08
-1.01427e-07
6.97208e-08
8.32517e-08
-1.45765e-07
-6.79643e-08
-9.00771e-08
5.32386e-08
-9.90658e-08
-6.88247e-08
-1.29637e-07
-7.09671e-08
-1.37029e-07
-4.9454e-08
-1.34063e-07
-4.25993e-08
-1.17088e-07
-5.79741e-08
-7.94584e-08
-6.08776e-08
-2.94886e-08
-3.07886e-08
-1.53866e-08
5.42857e-08
1.07352e-07
-4.51659e-08
6.12851e-09
-8.57855e-08
-1.67042e-08
-2.63895e-09
-6.07583e-08
-2.69285e-08
-4.58084e-08
-3.22242e-08
-4.52473e-08
-1.54688e-08
-6.01066e-08
-2.72207e-08
-4.68179e-08
-5.22886e-08
-3.46128e-08
-4.31749e-08
-3.95569e-08
4.57441e-09
6.10515e-09
8.15543e-08
2.28819e-08
1.69178e-08
-9.27058e-08
-1.73671e-08
2.65638e-08
-7.30865e-08
3.74692e-08
-5.49033e-08
3.89729e-08
-4.68359e-08
3.11374e-08
-5.36583e-08
3.28014e-08
-5.12612e-08
3.19716e-08
-3.47423e-08
9.61434e-09
-1.44311e-08
2.36705e-08
-7.41902e-09
5.85345e-08
4.64145e-08
6.66723e-08
-5.62336e-08
-7.20805e-08
8.59896e-08
-8.53266e-08
1.07271e-07
-7.52401e-08
1.13961e-07
-5.13635e-08
9.28227e-08
-3.24371e-08
7.75457e-08
-3.59179e-08
6.77797e-08
-2.92637e-08
5.09629e-08
1.68204e-09
2.15421e-08
2.29314e-08
4.61987e-08
3.44064e-08
1.44426e-07
-1.51785e-08
-1.85513e-07
1.68571e-07
-3.27511e-08
1.59059e-07
-4.46381e-08
1.56907e-07
-4.81734e-08
1.49393e-07
-2.48455e-08
1.25225e-07
-1.16761e-08
1.05285e-07
-9.24963e-09
9.46229e-08
5.34932e-09
7.95127e-08
4.17842e-08
6.35986e-08
6.33332e-08
3.03311e-07
3.01831e-08
-3.48693e-07
2.42662e-07
2.78756e-08
2.26826e-07
1.33874e-08
2.49008e-07
-6.51134e-09
2.28054e-07
-4.02801e-09
1.96882e-07
1.7455e-08
1.64414e-07
2.32921e-08
1.46991e-07
2.27498e-08
1.39185e-07
3.99698e-08
7.77572e-08
1.23318e-07
3.25412e-07
5.48796e-08
-3.50141e-07
2.96847e-07
5.64205e-08
2.62075e-07
4.81142e-08
3.09137e-07
2.97486e-08
3.17068e-07
2.6927e-08
2.87924e-07
4.28802e-08
2.37582e-07
7.02861e-08
1.96446e-07
6.344e-08
1.77814e-07
5.76288e-08
7.72164e-08
1.69827e-07
3.47416e-07
5.18423e-08
-3.44589e-07
3.48467e-07
5.53249e-08
3.7415e-07
5.89727e-08
4.80714e-07
7.46701e-08
4.32972e-07
7.47369e-08
3.62175e-07
9.23119e-08
3.08853e-07
1.20255e-07
2.58179e-07
1.26136e-07
2.05469e-07
1.08935e-07
9.79768e-08
1.8135e-07
3.80366e-07
8.14077e-08
-4.2498e-07
4.26352e-07
8.32663e-08
4.72932e-07
8.75514e-08
4.5522e-07
9.31762e-08
4.20412e-07
1.10175e-07
3.69551e-07
1.30365e-07
3.26228e-07
1.60753e-07
2.77097e-07
1.72249e-07
2.34696e-07
1.65385e-07
1.3653e-07
1.96335e-07
4.22101e-07
7.35543e-08
-4.13304e-07
4.16882e-07
9.03767e-08
4.06349e-07
9.90816e-08
3.92171e-07
1.08084e-07
3.75409e-07
1.2752e-07
3.45725e-07
1.53675e-07
3.29293e-07
1.77774e-07
3.10211e-07
2.08076e-07
2.60053e-07
2.21048e-07
2.00633e-07
1.95506e-07
2.42701e-07
8.44584e-08
-2.53672e-07
2.45487e-07
8.75027e-08
2.6965e-07
7.33961e-08
3.01209e-07
7.5138e-08
3.22166e-07
1.07181e-07
3.2704e-07
1.49557e-07
3.25709e-07
1.80272e-07
3.07686e-07
2.2724e-07
2.68479e-07
2.59902e-07
2.63089e-07
2.05348e-07
1.41134e-07
3.97831e-08
-1.02592e-07
1.91956e-07
3.74863e-08
2.34348e-07
3.44366e-08
2.7401e-07
3.69207e-08
3.15514e-07
6.4147e-08
3.29143e-07
1.29037e-07
2.74872e-07
1.74946e-07
2.67884e-07
2.20932e-07
2.57177e-07
2.69637e-07
2.81992e-07
2.37551e-07
1.21955e-07
2.61866e-09
-8.67589e-08
1.89231e-07
7.81991e-09
2.18514e-07
2.53496e-08
2.22911e-07
3.26603e-08
2.34703e-07
4.45859e-08
1.94787e-07
8.01108e-08
2.25408e-07
1.40464e-07
2.3938e-07
1.9911e-07
2.47548e-07
2.18419e-07
2.35893e-07
2.08373e-07
1.86547e-07
2.32109e-09
-1.81708e-07
2.01667e-07
7.16268e-09
2.0769e-07
2.29231e-08
2.05621e-07
3.47366e-08
2.05483e-07
4.47233e-08
1.62945e-07
7.34591e-08
1.63927e-07
1.37249e-07
1.6956e-07
1.91489e-07
1.74144e-07
2.11259e-07
2.15486e-07
1.7195e-07
2.89619e-07
3.10635e-09
-2.90365e-07
2.76231e-07
2.07643e-08
2.55434e-07
4.3888e-08
2.26523e-07
6.36485e-08
1.97616e-07
7.36305e-08
1.61021e-07
1.00297e-07
1.34473e-07
1.55631e-07
1.42399e-07
1.82225e-07
1.56354e-07
1.96537e-07
1.98853e-07
1.72793e-07
2.57216e-07
4.7747e-09
-2.58829e-07
2.49098e-07
2.88844e-08
2.35256e-07
5.77301e-08
2.15409e-07
8.34955e-08
1.88749e-07
1.00291e-07
1.63471e-07
1.25575e-07
1.45523e-07
1.73412e-07
1.43274e-07
2.14176e-07
1.50124e-07
1.89493e-07
1.80415e-07
1.68361e-07
1.34773e-07
-1.4058e-08
-1.15935e-07
1.58844e-07
4.81353e-09
1.76201e-07
4.03737e-08
1.82434e-07
7.72626e-08
1.70691e-07
1.12034e-07
1.5125e-07
1.45016e-07
1.50908e-07
1.73742e-07
1.66675e-07
2.01283e-07
1.59592e-07
2.18969e-07
2.16245e-07
1.72775e-07
1.086e-07
-2.41252e-08
-9.85207e-08
1.23306e-07
-9.89387e-09
1.35919e-07
2.77588e-08
1.38623e-07
7.45583e-08
1.39006e-07
1.09858e-07
1.32902e-07
1.47993e-07
1.32284e-07
1.72338e-07
1.42585e-07
1.90111e-07
1.55558e-07
2.04603e-07
2.28474e-07
1.44143e-07
8.9319e-08
-1.2283e-08
-1.01152e-07
7.91546e-08
2.73155e-10
7.55837e-08
2.90044e-08
7.75374e-08
6.88915e-08
7.94667e-08
1.01377e-07
8.53219e-08
1.35472e-07
8.11846e-08
1.6961e-07
7.38372e-08
1.90235e-07
7.23811e-08
1.98751e-07
2.21237e-07
7.1511e-08
6.62872e-08
-1.51166e-08
-6.34505e-08
6.16622e-08
4.90181e-09
4.1539e-08
4.91319e-08
2.005e-08
9.05186e-08
7.78667e-09
1.18576e-07
1.36703e-08
1.35594e-07
3.06641e-08
1.55835e-07
3.76502e-08
1.87484e-07
4.51654e-08
1.96679e-07
2.13167e-07
5.05902e-08
8.63382e-08
-3.7301e-08
-6.41508e-08
9.65922e-08
-6.2439e-09
3.99125e-08
1.05799e-07
-1.05534e-08
1.40962e-07
-8.49817e-09
1.16958e-07
1.81826e-08
1.09292e-07
3.29694e-08
1.41049e-07
3.12243e-08
1.89377e-07
3.07299e-08
2.00489e-07
2.04668e-07
4.43291e-08
1.10453e-07
-6.38981e-08
-8.38523e-08
1.20691e-07
-3.01404e-08
7.29339e-08
1.10329e-07
2.15216e-08
1.68044e-07
2.43867e-08
1.14053e-07
4.72267e-08
7.55564e-08
4.20903e-08
9.38053e-08
2.66313e-08
1.56966e-07
2.44299e-08
2.01751e-07
1.9625e-07
3.41134e-08
2.92646e-08
-3.63895e-08
-5.67701e-08
2.75925e-08
-3.57896e-08
4.97153e-08
7.27694e-08
9.11885e-08
1.12939e-07
6.66277e-08
8.75949e-08
2.57089e-08
7.64728e-08
3.98862e-08
7.39208e-08
7.25622e-08
1.00304e-07
7.98937e-08
1.26344e-07
1.31636e-07
7.36759e-08
1.35629e-08
3.32556e-08
-8.32037e-08
-3.5208e-08
1.34078e-08
9.76867e-09
3.93185e-08
4.78175e-08
6.77504e-08
7.56906e-08
5.59798e-08
7.8559e-08
7.03684e-08
8.34687e-08
6.62584e-08
9.48168e-08
8.66865e-08
1.17815e-07
1.01234e-07
1.02654e-07
1.49201e-07
2.31873e-07
9.1788e-08
-2.82006e-07
1.61127e-07
8.92489e-08
1.29658e-07
7.59245e-08
1.23869e-07
7.82859e-08
1.04573e-07
7.26867e-08
1.0011e-07
8.27174e-08
9.27395e-08
7.13599e-08
1.0295e-07
7.5196e-08
1.15195e-07
8.91408e-08
1.00477e-07
1.34034e-07
3.85291e-07
7.97874e-08
-3.73593e-07
4.30549e-07
7.71463e-08
4.19179e-07
9.22366e-08
4.09367e-07
9.29919e-08
3.82445e-07
1.04355e-07
2.75363e-07
1.19721e-07
1.96637e-07
9.28835e-08
1.90427e-07
8.15565e-08
2.0591e-07
8.78818e-08
9.49564e-08
2.32042e-07
4.60668e-07
7.01886e-08
-4.38607e-07
4.79087e-07
7.37279e-08
4.77203e-07
7.67553e-08
4.89156e-07
8.16327e-08
5.30491e-07
8.95194e-08
5.47877e-07
1.05565e-07
5.3467e-07
1.13638e-07
3.42573e-07
1.26032e-07
3.25654e-07
1.02134e-07
7.79386e-08
3.5333e-07
4.82189e-07
5.02386e-08
-4.5992e-07
4.94853e-07
5.86886e-08
5.0225e-07
6.93154e-08
5.04246e-07
7.9243e-08
5.0957e-07
8.60074e-08
5.83091e-07
9.47291e-08
6.05057e-07
9.69376e-08
6.21542e-07
1.00859e-07
6.31028e-07
1.03168e-07
1.00024e-07
6.02511e-07
5.09329e-07
8.86565e-09
-4.87235e-07
5.35465e-07
3.19873e-08
5.49673e-07
5.47205e-08
5.6017e-07
6.84936e-08
5.69814e-07
7.61107e-08
6.65011e-07
8.10262e-08
6.78863e-07
8.41046e-08
6.96465e-07
8.3695e-08
7.16722e-07
8.33278e-08
8.06001e-08
7.36213e-07
4.73957e-07
-4.81105e-08
-4.84805e-07
5.1612e-07
-1.17308e-08
5.46737e-07
2.35377e-08
6.49069e-07
3.99324e-08
6.86974e-07
5.46154e-08
7.07419e-07
6.18352e-08
7.27923e-07
6.40381e-08
7.50735e-07
6.13003e-08
7.66946e-07
6.75367e-08
6.83593e-08
7.7897e-07
3.62554e-07
-1.1883e-07
-2.91976e-07
4.22651e-07
-7.43281e-08
3.98457e-07
-3.51659e-08
4.43124e-07
-1.37704e-08
4.93295e-07
-3.42973e-09
5.35874e-07
1.23734e-08
5.68733e-07
2.11039e-08
6.01706e-07
1.25999e-08
6.43249e-07
1.54123e-08
1.79528e-08
6.83136e-07
5.21915e-08
-2.02428e-07
2.89166e-08
1.32704e-07
-1.57354e-07
1.65288e-07
-1.24795e-07
2.45596e-07
-1.13173e-07
3.2009e-07
-8.52984e-08
3.70447e-07
-4.46995e-08
4.08594e-07
-2.33787e-08
5.1916e-07
-3.21712e-08
5.99211e-07
-2.16625e-08
-2.42823e-08
6.44839e-07
-2.09146e-07
-3.28111e-07
3.32342e-07
-9.07339e-08
-2.76962e-07
2.53575e-08
-2.41048e-07
1.32051e-07
-2.19662e-07
2.3663e-07
-1.89673e-07
3.32312e-07
-1.40514e-07
4.05022e-07
-9.58731e-08
4.50643e-07
-7.7133e-08
5.00209e-07
-7.01936e-08
-6.5441e-08
5.46267e-07
-2.72944e-07
-5.00072e-07
4.495e-07
-1.17783e-07
-4.32099e-07
2.71997e-08
-3.85828e-07
1.52061e-07
-3.44326e-07
2.59522e-07
-2.9181e-07
3.03144e-07
-1.4844e-07
2.84685e-07
-3.24018e-08
2.44316e-07
-1.0775e-08
2.09463e-07
-1.40585e-08
-1.119e-08
1.67453e-07
-3.60821e-07
-4.82171e-07
4.6129e-07
-2.25745e-07
-5.25019e-07
-8.53426e-08
-5.25778e-07
1.06989e-08
-4.36966e-07
3.83458e-08
-2.56214e-07
2.13377e-08
-4.4221e-08
1.10569e-08
-9.17415e-09
5.96387e-09
-5.68256e-09
-1.98051e-09
-6.1149e-09
1.78694e-10
-1.33392e-08
-3.76767e-07
-5.28413e-07
4.17219e-07
-2.88623e-07
-5.4389e-07
-2.46435e-07
-5.40793e-07
-1.91116e-07
-4.86717e-07
-6.01124e-08
-3.08738e-07
-1.56588e-08
-8.8629e-08
-1.37098e-08
-1.11242e-08
-1.56661e-08
-3.72698e-09
-1.99896e-08
-1.79165e-09
2.91094e-09
-2.27226e-08
-3.35999e-07
-5.53292e-07
3.55088e-07
-2.98897e-07
-5.86783e-07
-2.83283e-07
-5.9463e-07
-2.53962e-07
-5.12548e-07
-2.37433e-07
-3.39001e-07
-4.61673e-08
-2.12217e-07
-2.20878e-08
-3.5204e-08
-2.34688e-08
-2.34638e-09
-2.65897e-08
1.32885e-09
4.17183e-09
-2.78508e-08
-2.69961e-07
-5.37533e-07
2.48412e-07
-2.64276e-07
-5.98371e-07
-2.75686e-07
-6.72355e-07
-2.7315e-07
-5.64897e-07
-3.18354e-07
-3.2162e-07
-1.91527e-07
-2.71742e-07
-3.00002e-08
-1.41324e-07
-2.0204e-08
-1.21433e-08
-2.25015e-08
3.626e-09
7.31926e-09
-2.56494e-08
-2.25625e-07
-5.10572e-07
1.9276e-07
-2.2597e-07
-6.03224e-07
-2.40318e-07
-6.98718e-07
-2.6053e-07
-5.64296e-07
-3.02932e-07
-3.05676e-07
-3.17234e-07
-2.53799e-07
-1.42444e-07
-2.32889e-07
-2.35178e-08
-8.24535e-08
-1.88886e-08
-1.00369e-09
1.1004e-08
-2.25746e-08
-1.80476e-07
-4.90215e-07
1.81014e-07
-1.82278e-07
-6.7721e-07
-2.05683e-07
-6.8411e-07
-2.35319e-07
-3.25997e-07
-3.25145e-07
-2.06167e-07
-3.38595e-07
-2.29471e-07
-3.26933e-07
-2.33471e-07
-1.31228e-07
-1.93869e-07
-2.24543e-08
-5.88369e-08
8.05683e-10
-1.23645e-08
-1.81217e-07
-5.80326e-07
1.87278e-07
-2.00361e-07
-6.31703e-07
-1.6566e-07
-6.07089e-07
-1.6723e-07
-2.25323e-07
-3.54628e-07
-1.03319e-07
-4.01496e-07
-1.71522e-07
-3.96673e-07
-2.26338e-07
-3.65212e-07
-2.1616e-07
-1.11554e-07
-1.66271e-07
-5.23571e-08
-2.67196e-08
-2.24682e-07
-5.91131e-07
1.94641e-07
-2.36282e-07
-6.38634e-07
-1.62458e-07
-5.6357e-07
-1.66986e-07
-2.16053e-07
-2.10043e-07
-7.00133e-08
-3.65709e-07
-9.62183e-08
-4.00362e-07
-1.82516e-07
-4.0245e-07
-2.08562e-07
-3.71831e-07
-1.86015e-07
-1.26545e-07
-6.58848e-08
-2.34762e-07
-4.66716e-07
1.92878e-07
-3.00342e-07
-5.64676e-07
-2.1907e-07
-5.70909e-07
-1.41685e-07
-2.95473e-07
-1.40439e-07
-8.10103e-08
-1.87258e-07
-5.92869e-08
-3.57862e-07
-9.25528e-08
-3.96549e-07
-1.60339e-07
-4.11915e-07
-1.62036e-07
-1.43437e-07
-3.54587e-07
-2.53315e-07
-2.68922e-07
2.21138e-07
-3.56904e-07
-4.24418e-07
-3.60459e-07
-5.72035e-07
-1.74053e-07
-4.46269e-07
-1.27106e-07
-1.37845e-07
-1.35707e-07
-6.11369e-08
-2.05558e-07
-5.33033e-08
-3.68468e-07
-8.86577e-08
-4.05465e-07
-1.16425e-07
-1.17122e-07
-4.23166e-07
-2.80062e-07
-1.54727e-07
2.49922e-07
-4.35317e-07
-2.83296e-07
-4.59109e-07
-5.52155e-07
-3.04214e-07
-6.04274e-07
-1.23254e-07
-3.29255e-07
-1.01038e-07
-9.42294e-08
-1.27368e-07
-3.78506e-08
-2.9074e-07
-5.16068e-08
-3.44052e-07
-5.44999e-08
-4.86749e-08
-4.03434e-07
-2.79239e-07
-4.01163e-08
1.92285e-07
-4.11739e-07
-1.42185e-07
-5.32984e-07
-4.32133e-07
-4.51472e-07
-6.92943e-07
-1.56815e-07
-6.2817e-07
-8.62468e-08
-1.75675e-07
-1.58426e-07
-1.9926e-08
-2.04009e-07
-5.13743e-09
-2.07493e-07
-1.41952e-08
-4.50308e-08
-2.25294e-07
-5.15158e-08
-1.61742e-08
4.10097e-08
-1.18034e-07
-6.00103e-08
-3.6313e-07
-1.83961e-07
-4.53175e-07
-5.9473e-07
-3.39732e-07
-7.49777e-07
-1.25079e-07
-4.6238e-07
-1.12079e-07
-3.31102e-08
-1.27587e-07
1.1087e-08
-1.42777e-07
1.66284e-09
-3.94795e-08
-1.36565e-07
5.4503e-08
-3.26224e-08
-4.76279e-08
-4.20097e-09
1.07041e-09
-1.24755e-07
-6.42271e-08
-2.76317e-07
-3.61881e-07
-2.04505e-07
-8.21881e-07
-3.37921e-08
-6.58372e-07
2.51653e-08
-8.89869e-08
6.53925e-08
6.4769e-09
3.98346e-08
2.80786e-08
-1.38852e-08
1.47669e-08
6.36495e-08
-5.20962e-11
-8.80316e-08
9.5798e-08
0
9.10921e-09
2.21322e-08
-6.03184e-08
-2.87724e-07
-8.31744e-08
-7.98052e-07
-2.54758e-08
-7.27721e-07
7.78606e-08
-1.89764e-07
7.4102e-08
1.33163e-08
9.05417e-08
4.4531e-08
2.30858e-08
7.4389e-08
1.12364e-13
0
-7.44499e-11
0
4.98612e-10
0
4.53425e-09
-2.95265e-08
-2.60458e-07
-2.75186e-08
-7.98382e-07
-9.52099e-09
-7.52749e-07
3.36916e-08
-2.30877e-07
4.8177e-08
1.3905e-09
6.15162e-08
3.43008e-08
8.43758e-09
1.11179e-07
-5.37139e-10
9.78329e-12
1.52549e-10
-3.81951e-11
-3.47972e-13
4.4963e-09
-2.7463e-13
1.68611e-09
-2.4777e-07
-1.17127e-08
-7.83781e-07
-8.11523e-09
-7.53143e-07
3.28154e-09
-2.4051e-07
5.2921e-08
-4.63591e-08
1.09097e-07
-1.86135e-08
-9.70633e-09
1.97418e-07
-7.33005e-13
-2.45841e-13
1.80389e-11
-4.37188e-13
-6.68924e-13
8.43099e-14
-8.21263e-13
8.00596e-09
-2.47858e-07
-1.22681e-08
-7.62666e-07
-1.1677e-08
-7.48818e-07
5.06797e-10
-2.50963e-07
-8.22134e-09
-2.90375e-08
-3.61319e-08
6.67347e-09
2.04048e-09
-5.25887e-08
-2.95196e-13
1.25646e-13
1.4351e-14
0
-3.58432e-13
2.4622e-13
-1.09268e-12
-4.3653e-09
-2.46216e-07
-2.02858e-08
-7.47296e-07
-2.30054e-08
-7.45018e-07
-2.24935e-08
-2.49791e-07
-2.2994e-08
-7.00274e-09
-3.49432e-08
4.53067e-09
2.53288e-09
-4.75631e-08
1.12548e-12
-5.73627e-15
-9.06419e-14
5.77446e-13
-6.90532e-13
8.38027e-13
-1.38322e-12
1.1593e-08
-2.62973e-07
-5.37355e-09
-7.31102e-07
-1.75836e-08
-7.32926e-07
-3.18641e-09
-2.66815e-07
-4.64347e-09
-2.32893e-12
-1.31567e-09
3.53882e-09
4.66683e-11
1.16141e-09
3.56593e-13
-6.97614e-12
9.76734e-13
2.09287e-12
-7.34531e-12
2.65444e-12
-2.00309e-12
2.14884e-08
-2.95014e-07
-2.34081e-09
-7.09947e-07
-2.94809e-08
-7.04774e-07
-4.08024e-11
-2.97161e-07
0
-4.24838e-11
-6.2969e-10
4.65119e-10
8.33685e-11
0
4.08721e-12
-1.15482e-11
1.32912e-12
3.08416e-12
-9.74704e-12
4.57111e-12
-3.59523e-12
7.47504e-09
-3.09593e-07
-1.14406e-08
-6.91474e-07
-2.42119e-08
-6.90669e-07
-5.50824e-11
-3.09816e-07
2.79411e-12
-9.89189e-11
4.68258e-10
0
1.4687e-13
2.40695e-10
3.97493e-12
-1.28809e-11
-1.67188e-12
3.14491e-12
-3.28733e-12
1.13739e-11
-1.18266e-11
2.94527e-08
-3.41589e-07
-2.05015e-09
-6.58236e-07
-3.66145e-08
-6.57197e-07
-6.29479e-11
-3.45308e-07
-6.60063e-11
-9.37117e-11
-1.11379e-12
3.04885e-13
-3.21764e-11
2.6471e-11
2.74665e-12
-1.82579e-12
-8.17443e-13
1.84589e-12
-1.11296e-12
5.22118e-11
-6.19676e-11
3.43123e-08
-3.61303e-07
1.60439e-08
-6.39328e-07
-4.83355e-10
-6.42053e-07
-9.27006e-12
-3.60367e-07
-3.97168e-12
-9.80546e-11
-1.08584e-12
6.58926e-12
-3.51996e-13
-2.27419e-13
7.88584e-13
-1.15668e-12
-1.58026e-12
5.01727e-13
-9.57618e-13
3.42632e-10
-4.04215e-10
4.05538e-08
-3.95339e-07
6.04538e-09
-6.04719e-07
-2.67434e-08
-6.09459e-07
-3.01728e-10
-3.9333e-07
-2.88355e-11
-3.69311e-10
-2.28435e-13
-5.95438e-13
-3.22766e-13
-3.10948e-13
9.0153e-13
-1.06756e-12
-1.11285e-12
6.71376e-13
-8.4274e-13
2.15679e-09
-2.56046e-09
2.53693e-08
-4.19585e-07
2.59581e-09
-5.8207e-07
-2.48594e-08
-5.81732e-07
-2.08266e-09
-4.18639e-07
-5.59343e-13
-2.45149e-09
2.03609e-13
-1.43599e-12
-6.78263e-13
4.81606e-13
6.70458e-13
-8.25288e-13
-4.40236e-12
5.28847e-13
-8.23327e-13
9.69784e-09
-1.22579e-08
2.35231e-08
-4.33182e-07
-2.48456e-09
-5.56025e-07
-2.87714e-08
-5.55566e-07
-1.00712e-08
-4.33211e-07
-9.81289e-13
-1.25218e-08
-6.27098e-13
-1.86744e-12
2.18108e-13
-2.77245e-12
1.42798e-12
-4.12823e-14
-6.4444e-12
1.4773e-12
-1.01639e-12
2.10741e-08
-3.35317e-08
3.88195e-08
-4.51822e-07
6.04683e-10
-5.17774e-07
-3.59666e-08
-5.18977e-07
-2.14216e-08
-4.50059e-07
-7.10332e-12
-3.45292e-08
-7.03443e-12
-2.01496e-12
1.48723e-12
-8.22164e-12
1.35249e-12
1.03697e-13
-1.83401e-12
7.76374e-12
-7.62152e-12
3.15967e-08
-6.52948e-08
2.3602e-08
-4.43304e-07
9.04045e-10
-4.95072e-07
-2.67024e-08
-4.91361e-07
-2.96265e-08
-4.46263e-07
-1.2661e-11
-6.2903e-08
-1.06314e-11
-4.09419e-12
2.64892e-12
-1.19551e-11
8.9868e-13
1.93356e-14
-8.92271e-13
1.26067e-10
-1.33013e-10
6.31213e-08
-1.31637e-07
6.30594e-08
-4.44047e-07
1.42037e-08
-4.46231e-07
-2.94344e-08
-4.477e-07
-4.27477e-08
-4.31841e-07
-5.79615e-11
-1.02641e-07
-7.2295e-12
-5.51342e-11
2.13782e-12
-1.38486e-11
2.40608e-12
-4.20148e-13
-1.90584e-12
2.04858e-09
-2.17919e-09
6.59337e-08
-1.99574e-07
2.21771e-08
-4.00894e-07
-1.09775e-08
-4.13068e-07
-4.50273e-08
-4.13652e-07
-7.42419e-08
-4.01779e-07
-1.16302e-09
-1.71749e-07
-1.00691e-11
-1.20846e-09
4.73315e-13
-8.5771e-12
3.58898e-11
-3.53544e-11
-8.21831e-13
1.82418e-08
-2.03856e-08
8.65447e-08
-2.64099e-07
4.50888e-08
-3.59431e-07
-1.6046e-09
-3.66376e-07
-4.82583e-08
-3.66998e-07
-8.92363e-08
-3.60803e-07
-1.36409e-08
-2.47543e-07
-2.50342e-13
-1.48492e-08
9.06055e-14
-4.6356e-14
1.76316e-09
-1.79378e-09
-4.6959e-12
6.19615e-08
-8.02583e-08
9.34331e-08
-2.95902e-07
4.88852e-08
-3.14884e-07
-3.39049e-10
-3.17152e-07
-5.1891e-08
-3.15446e-07
-9.85168e-08
-3.14178e-07
-5.32307e-08
-2.92655e-07
-8.21444e-10
-6.70802e-08
-8.20261e-10
-1.19237e-12
3.13449e-08
-3.31386e-08
-7.0433e-15
1.41932e-07
-1.90273e-07
1.01108e-07
-2.55061e-07
4.95766e-08
-2.63352e-07
-4.76745e-09
-2.62808e-07