/*--------------------------------*- C++ -*----------------------------------*\
  =========                 |
  \\      /  F ield         | OpenFOAM: The Open Source CFD Toolbox
   \\    /   O peration     | Website:  https://openfoam.org
    \\  /    A nd           | Version:  8
     \\/     M anipulation  |
\*---------------------------------------------------------------------------*/
FoamFile
{
    version     2.0;
    format      ascii;
    class       volScalarField;
    location    "7.2";
    object      alpha.water;
}
// * * * * * * * * * * * * * * * * * * * * * * * * * * * * * * * * * * * * * //

dimensions      [0 0 0 0 0 0 0];

internalField   nonuniform List<scalar> 
9150
(
1
1
1
1
1
1
1
1
1
1
1
1
1
1
1
1
1
1
1
1
1
1
1
1
1
1
1
1
1
1
1
1
1
1
1
1
1
1
1
1
1
1
1
1
1
1
1
1
1
1
1
1
1
1
1
1
1
1
1
1
1
1
1
1
1
1
1
1
1
1
1
1
1
1
1
1
1
1
1
1
1
1
1
1
1
1
1
1
1
1
1
1
1
1
1
1
1
1
1
1
1
1
1
1
1
1
1
1
1
1
1
1
1
1
1
1
1
1
1
1
1
1
1
1
1
1
1
1
1
1
1
1
1
1
1
1
1
1
1
1
1
1
1
1
1
1
1
1
1
1
0.996296
0.996777
0.996806
0.996806
0.996641
0.996639
0.997232
0.997407
0.997407
0.99335
0.908291
0.973796
0.994331
0.996806
0.969403
0.946704
0.966277
0.997288
0.997505
0.997294
0.897635
0.897636
0.929702
0.951174
0.949078
0.947011
0.955965
0.996602
0.997609
0.980475
0.897634
0.940319
0.984059
0.984241
0.984213
0.994519
0.997651
0.997613
0.997613
0.996688
0.997758
0.998231
0.998231
0.998231
0.998231
0.998185
0.997812
0.997651
0.993999
0.994523
0.989582
0.998229
0.998232
0.998231
0.998049
0.98098
0.940338
0.909313
0.877702
0.789597
0.990625
0.998215
0.998229
0.996132
0.910469
0.792637
0.787698
0.787698
0.787698
0.787702
0.997667
0.998197
0.998215
0.965443
0.787698
0.787698
0.787698
0.787698
0.787699
0.787711
0.998187
0.99819
0.998178
0.949508
0.787703
0.787698
0.787698
0.787699
0.823627
0.982431
0.998185
0.998183
0.998161
0.991544
0.847637
0.787703
0.884608
0.990512
0.983812
0.998066
0.99764
0.998161
0.99812
0.989064
0.970894
0.979078
0.995586
0.998194
0.998187
0.998121
0.998076
0.99812
0.992111
0.982478
0.985344
0.998188
0.998194
0.998195
0.998195
0.998187
0.99807
0.998083
0.997808
0.987281
0.985913
0.998181
0.998189
0.998195
0.998195
0.998195
0.99807
0.99807
0.99807
0.998051
0.998106
0.99818
0.993589
0.980749
0.981339
0.996202
0.96525
0.965244
0.965366
0.973093
0.998047
0.993909
0.965443
0.963802
0.963793
0.963802
0.965234
0.965212
0.965238
0.966521
0.971279
0.96391
0.963852
0.963801
0.964914
0.974388
0.996847
0.997199
0.997794
0.99788
0.997902
0.992737
0.967268
0.970787
0.997883
0.997942
0.997973
0.997964
0.997957
0.997924
0.997928
0.99794
0.997939
0.997938
0.99784
0.997942
0.995534
0.997753
0.99449
0.976864
0.981806
0.99794
0.99794
0.997882
0.996747
0.997933
0.960266
0.971219
0.975062
0.964453
0.970646
0.99794
0.99794
0.997388
0.996747
0.99733
0.960257
0.960261
0.960257
0.971239
0.99794
0.99794
0.99794
0.99794
0.997556
0.997939
0.972697
0.960254
0.968272
0.99794
0.99794
0.99794
0.99794
0.99794
0.997872
0.997935
0.961549
0.960381
0.985268
0.997939
0.99794
0.99794
0.99794
0.997939
0.996332
0.987317
0.997109
0.982077
0.979319
0.987526
0.996573
0.997938
0.997939
0.997936
0.996116
0.950786
0.997772
0.995256
0.979407
0.979612
0.980114
0.99226
0.997935
0.997896
0.974659
0.921111
0.997785
0.997799
0.992586
0.980338
0.980387
0.985275
0.997895
0.997843
0.992136
0.929405
0.997799
0.997801
0.997808
0.997348
0.984446
0.984537
0.995118
0.997776
0.997831
0.99459
0.997787
0.997808
0.997812
0.997819
0.997828
0.994576
0.99192
0.993817
0.997832
0.997832
0.982856
0.997787
0.997816
0.997828
0.997829
0.99783
0.997819
0.997226
0.9973
0.997832
0.883872
0.980171
0.991224
0.990987
0.99783
0.99783
0.99783
0.99783
0.99783
0.997831
0.88206
0.918919
0.987437
0.969265
0.988194
0.99783
0.99783
0.99783
0.99783
0.99783
0.88269
0.918167
0.987355
0.969623
0.947954
0.997748
0.99783
0.997626
0.992475
0.993376
0.891064
0.922476
0.987207
0.98207
0.947587
0.947442
0.991688
0.996711
0.931738
0.899713
0.959113
0.925623
0.976236
0.991564
0.993691
0.939942
0.934024
0.980902
0.983281
0.88597
0.892542
0.917643
0.921391
0.966198
0.994879
0.994894
0.954137
0.944261
0.980903
0.961062
0.65427
0.768146
0.896211
0.954666
0.994873
0.994933
0.994914
0.958286
0.960384
0.970292
0.654261
0.654266
0.654266
0.878667
0.959187
0.991656
0.994933
0.994757
0.964033
0.933097
0.65427
0.654261
0.654307
0.683295
0.921017
0.959569
0.983854
0.994675
0.994091
0.937336
0.654617
0.654307
0.654361
0.872665
0.987293
0.948229
0.940722
0.958697
0.993359
0.989495
0.789615
0.787925
0.927062
0.991316
0.991485
0.949717
0.940549
0.940611
0.982322
0.996825
0.991326
0.991108
0.991301
0.991459
0.991406
0.990678
0.946245
0.95511
0.994119
0.997178
0.992388
0.992321
0.990692
0.989595
0.991215
0.993828
0.995025
0.996393
0.997148
0.997355
0.745403
0.839332
0.983297
0.993838
0.99414
0.993515
0.899891
0.975583
0.997365
0.997619
0.708522
0.735122
0.970416
0.995367
0.99557
0.833138
0.703181
0.708448
0.889741
0.962101
0.890314
0.926193
0.992285
0.995589
0.995602
0.849862
0.697963
0.695679
0.693903
0.70132
0.993721
0.994087
0.995422
0.995603
0.995603
0.995397
0.764574
0.693478
0.692264
0.691017
0.995547
0.995599
0.995603
0.995603
0.995603
0.995603
0.974534
0.82333
0.691017
0.690673
0.995586
0.995603
0.995603
0.995603
0.995603
0.995603
0.995601
0.991084
0.922477
0.793687
0.995593
0.995603
0.995603
0.995603
0.994237
0.98749
0.975713
0.986387
0.985353
0.973366
0.995578
0.995596
0.992502
0.961267
0.937596
0.937466
0.937448
0.936982
0.936516
0.937194
0.995591
0.99559
0.99559
0.979431
0.949245
0.943939
0.955512
0.959339
0.936409
0.927548
0.995592
0.98377
0.995573
0.995382
0.992968
0.991482
0.990549
0.989193
0.985197
0.95449
0.995591
0.969561
0.851526
0.971961
0.992471
0.987516
0.897095
0.949326
0.994715
0.996012
0.995591
0.968847
0.691313
0.677291
0.790323
0.653733
0.521902
0.536396
0.671342
0.85686
0.99559
0.995093
0.816179
0.67492
0.523504
0.521093
0.520935
0.520777
0.521049
0.527451
0.859406
0.978118
0.977717
0.956786
0.896954
0.640824
0.520777
0.520777
0.520777
0.521049
0.843555
0.866409
0.976617
0.97601
0.975493
0.949124
0.579933
0.520777
0.521049
0.523565
0.863648
0.880175
0.857615
0.848212
0.890419
0.963694
0.970555
0.84683
0.531042
0.527557
0.846292
0.849216
0.847819
0.847747
0.847741
0.944968
0.974118
0.971091
0.952118
0.964194
0.857085
0.84799
0.847747
0.847747
0.847747
0.92264
0.978256
0.978876
0.978966
0.97861
0.932027
0.849057
0.84799
0.872929
0.968696
0.977978
0.978876
0.97896
0.978909
0.978163
0.985766
0.985382
0.931045
0.786427
0.784266
0.782789
0.787201
0.786977
0.783231
0.781652
0.985521
0.985089
0.901597
0.793019
0.782936
0.782029
0.78211
0.78873
0.945752
0.972576
0.985034
0.984443
0.984118
0.983985
0.983985
0.982812
0.97974
0.974579
0.970401
0.966477
0.981566
0.983835
0.983985
0.984004
0.976917
0.898888
0.816507
0.729275
0.610182
0.490286
0.826167
0.947997
0.983345
0.979284
0.782824
0.292625
0.0994098
0.0992933
0.0992934
0.0992983
0.665849
0.697954
0.932446
0.977217
0.611894
0.0994098
0.0992934
0.0992931
0.0992926
0.0992934
0.665849
0.665849
0.739929
0.967198
0.853399
0.389416
0.0992982
0.0992926
0.0992926
0.0992926
0.665849
0.666454
0.745611
0.938988
0.923382
0.802782
0.194798
0.0992927
0.0992926
0.0992927
0.666454
0.669903
0.859004
0.920052
0.90778
0.89739
0.742253
0.126839
0.0992927
0.0992944
0.669871
0.745817
0.845194
0.733367
0.853369
0.895087
0.895087
0.681871
0.106604
0.0994464
0.776737
0.815343
0.787709
0.444487
0.543738
0.895087
0.8948
0.895945
0.652728
0.0994545
0.827648
0.823986
0.764977
0.437191
0.42662
0.72344
0.895945
0.897376
0.897665
0.545573
0.631767
0.814316
0.7654
0.42662
0.42662
0.42662
0.80099
0.898103
0.901065
0.884322
0.557764
0.72498
0.815174
0.627908
0.42662
0.426759
0.435785
0.869912
0.901065
0.901065
0.505677
0.448743
0.831192
0.834747
0.426759
0.426899
0.426899
0.734539
0.901065
0.899691
0.496334
0.375352
0.834265
0.880962
0.802097
0.426899
0.695663
0.912089
0.730179
0.687543
0.563205
0.360267
0.351756
0.919316
0.934014
0.551233
0.882758
0.912001
0.912191
0.897204
0.741477
0.4694
0.211161
0.555941
0.963494
0.84915
0.327311
0.712649
0.91172
0.911178
0.1937
0.184873
0.211508
0.326386
0.964459
0.8764
0.326822
0.327311
0.419772
0.829858
0.000425792
0.0263496
0.115886
0.330176
0.964459
0.915723
0.326481
0.326822
0.32736
0.402402
0.00109419
1.36475e-06
1.33503e-06
0.292829
0.96488
0.926984
0.326057
0.328541
0.329601
0.35559
1.9298e-05
1.33503e-06
1.33503e-06
0.297071
0.965222
0.932113
0.325973
0.393617
0.335478
0.342248
3.18699e-06
2.04764e-06
1.33468e-06
0.309724
0.966727
0.951238
0.323871
0.333799
0.0922873
0.131434
1.86618e-05
7.17175e-06
1.3548e-06
0.324213
0.968213
0.972125
0.320396
0.0823079
0.0735938
0.000223123
1.78248e-05
1.64339e-05
1.48272e-06
0.378318
0.976472
0.977598
0.373034
0.000202485
0.0229794
0.00443323
6.75472e-05
3.82119e-05
1.84043e-06
0.430738
0.982508
0.983079
0.429411
0.000201187
0.000202584
0.000852238
6.7696e-05
3.09049e-05
2.64047e-06
0.466728
0.986346
0.98725
0.471118
0.000199313
0.00049649
0.000705146
3.25363e-05
5.09827e-06
4.65283e-06
0.540715
0.990251
0.99002
0.54809
0.000198937
0.000692395
0.000269407
4.62608e-06
4.64126e-06
4.63511e-06
0.594089
0.993342
0.99326
0.592354
0.000105841
0.000196005
1.20092e-05
4.64244e-06
4.62094e-06
4.64244e-06
0.684705
0.995055
0.995134
0.683221
1.20103e-05
1.20103e-05
1.19917e-05
9.91155e-06
4.64244e-06
4.70929e-06
0.752884
0.996521
0.99677
0.751943
1.20705e-05
1.1991e-05
4.24528e-05
1.42955e-05
4.70929e-06
0.0253196
0.820809
0.99809
0.998298
0.821087
0.0264165
1.20705e-05
7.56102e-05
6.65925e-06
4.91952e-06
0.111057
0.891726
0.998762
0.99898
0.891896
0.107711
1.28232e-05
7.50682e-05
7.08263e-06
6.06163e-06
0.223198
0.944152
0.999757
0.99947
0.939465
0.196636
1.09368e-05
3.74343e-05
7.1264e-06
7.28279e-06
0.45031
0.991882
0.999855
0.999813
0.980308
0.36086
5.04442e-06
3.61283e-06
4.31553e-06
1.39148e-05
0.673953
0.999879
0.999948
0.999931
0.999852
0.619568
3.61283e-06
3.58432e-06
5.52828e-07
0.0987976
0.882877
0.99995
0.999996
0.999992
0.999937
0.859498
0.0551507
3.35536e-06
-1.09996e-10
0.57979
0.999459
0.999993
1
1
0.999989
0.997967
0.5336
3.14337e-06
0.320367
0.967407
1
1
1
1
1
1
0.961391
0.29438
0.99019
0.992243
0.998274
0.998276
0.998276
0.998276
0.998275
0.998275
0.998275
0.998274
0.982779
0.980054
0.980052
0.981458
0.998232
0.998232
0.998232
0.998229
0.993104
0.988332
0.998231
0.998231
0.998231
0.998231
0.998222
0.991752
0.985661
0.995501
0.997217
0.997217
0.997217
0.997217
0.997217
0.997217
0.99723
0.995149
0.99337
0.993787
0.994002
0.991838
0.996189
0.994222
0.996206
0.998274
0.997932
0.987633
0.987456
0.997283
0.998274
0.998274
0.98512
0.980054
0.98006
0.980892
0.99499
0.998232
0.998232
0.998229
0.991472
0.987904
0.998231
0.998231
0.998233
0.998225
0.994619
0.962312
0.956941
0.978159
0.997217
0.997217
0.997217
0.997217
0.997217
0.997219
0.996613
0.982812
0.982634
0.982636
0.985948
0.99155
0.939551
0.937815
0.937571
0.937799
0.973386
0.993061
0.991056
0.986494
0.991657
0.998099
0.994886
0.98725
0.992013
0.990089
0.991311
0.998062
0.998229
0.998014
0.988343
0.98743
0.992933
0.998233
0.998236
0.996363
0.961792
0.956941
0.956924
0.956925
0.959616
0.993749
0.996945
0.995401
0.997207
0.997194
0.997093
0.995436
0.987379
0.98379
0.981365
0.981365
0.94312
0.937571
0.937559
0.937565
0.977344
0.99378
0.993551
0.894828
0.8886
0.987546
0.997526
0.997591
0.997534
0.997462
0.987846
0.989351
0.998225
0.998234
0.992034
0.987448
0.987439
0.993827
0.998237
0.998237
0.998234
0.98645
0.956925
0.956924
0.956925
0.956929
0.956949
0.956977
0.983767
0.989916
0.995411
0.997531
0.997531
0.997531
0.994893
0.98298
0.993933
0.988052
0.981478
0.990658
0.99378
0.993714
0.92804
0.809786
0.82723
0.987839
0.997591
0.997591
0.997481
0.997392
0.985856
0.983822
0.995406
0.998238
0.998206
0.991629
0.987485
0.990042
0.998237
0.998237
0.998237
0.998234
0.997704
0.996224
0.987001
0.967409
0.959133
0.964753
0.964749
0.964764
0.98494
0.997531
0.997531
0.997531
0.997531
0.997531
0.823299
0.911344
0.963767
0.963256
0.946897
0.894916
0.809786
0.811132
0.902252
0.99689
0.997578
0.996536
0.984784
0.983873
0.983749
0.983774
0.990854
0.998238
0.998238
0.998137
0.994956
0.995462
0.998237
0.998237
0.998237
0.998237
0.997957
0.990803
0.99024
0.99633
0.997283
0.997286
0.996324
0.993445
0.97987
0.996806
0.997531
0.997531
0.997531
0.997529
0.787777
0.78821
0.789664
0.79265
0.796674
0.800988
0.856105
0.912886
0.996238
0.997376
0.997449
0.995988
0.983923
0.98374
0.98374
0.986096
0.996307
0.998238
0.998238
0.998238
0.998237
0.998237
0.998237
0.998237
0.998237
0.998236
0.996186
0.997473
0.997474
0.997452
0.997105
0.996961
0.996914
0.991091
0.978042
0.994644
0.997316
0.997531
0.997531
0.997351
0.787907
0.892061
0.908276
0.872356
0.894013
0.917937
0.94427
0.944126
0.938504
0.965733
0.998307
0.998317
0.996555
0.990691
0.992638
0.997256
0.998238
0.998238
0.998238
0.998238
0.998238
0.998237
0.998237
0.998237
0.998234
0.953661
0.976253
0.997474
0.995584
0.981528
0.9702
0.968247
0.981881
0.990636
0.973868
0.971993
0.988499
0.997531
0.997531
0.997352
0.983571
0.994598
0.996131
0.994203
0.992206
0.962455
0.90034
0.892319
0.893113
0.917773
0.998318
0.998319
0.998318
0.998317
0.998291
0.998252
0.993311
0.982219
0.996278
0.998238
0.998238
0.996074
0.994558
0.97939
0.936906
0.925825
0.95636
0.997446
0.978256
0.968227
0.968184
0.968199
0.968244
0.972211
0.97171
0.971665
0.98406
0.997531
0.997531
0.997507
0.997956
0.997811
0.99769
0.972263
0.897196
0.890655
0.890989
0.891323
0.891918
0.981545
0.998319
0.998319
0.998319
0.998318
0.998318
0.996897
0.950789
0.930299
0.936782
0.96531
0.937341
0.927815
0.926704
0.925086
0.92539
0.925693
0.991539
0.996939
0.982521
0.984281
0.997095
0.984448
0.968237
0.968322
0.97658
0.990769
0.996666
0.997531
0.997531
0.997531
0.998066
0.992667
0.9148
0.890708
0.890655
0.890655
0.890655
0.905201
0.988346
0.998319
0.998319
0.998319
0.998319
0.998318
0.998318
0.997379
0.949647
0.930313
0.930294
0.930353
0.952441
0.928861
0.925086
0.925086
0.926096
0.958876
0.994118
0.995254
0.984596
0.997239
0.997238
0.993857
0.979348
0.982092
0.997533
0.997533
0.997533
0.997499
0.997531
0.997531
0.998102
0.977303
0.890764
0.890763
0.890708
0.90767
0.982876
0.988899
0.998308
0.998316
0.998319
0.998106
0.998289
0.998318
0.998318
0.998316
0.993534
0.953551
0.930353
0.969459
0.996393
0.981961
0.945517
0.950355
0.987203
0.995849
0.993224
0.987547
0.995582
0.997239
0.997239
0.992619
0.9811
0.997533
0.997533
0.997533
0.997533
0.997532
0.997532
0.997531
0.998185
0.997364
0.970166
0.942406
0.955113
0.992471
0.998301
0.998306
0.998308
0.998308
0.995087
0.994293
0.994599
0.998318
0.998318
0.998318
0.998318
0.997182
0.994979
0.997934
0.998314
0.998311
0.996811
0.992607
0.99784
0.996821
0.98708
0.987483
0.997237
0.997239
0.997233
0.950792
0.916096
0.995033
0.997533
0.997533
0.997533
0.997533
0.997528
0.997531
0.997572
0.997407
0.99736
0.99752
0.998159
0.9983
0.998306
0.998308
0.998308
0.998308
0.998128
0.994258
0.994136
0.994137
0.994185
0.997609
0.998318
0.998318
0.998318
0.998318
0.998315
0.998314
0.998312
0.998293
0.998211
0.988423
0.98708
0.990309
0.997229
0.997235
0.987456
0.915642
0.915602
0.979563
0.997532
0.997533
0.997533
0.997533
0.994892
0.997527
0.963897
0.984501
0.997262
0.997137
0.991763
0.988352
0.998309
0.998308
0.998308
0.998308
0.998308
0.998308
0.997989
0.997085
0.995802
0.996621
0.998318
0.998318
0.998318
0.998318
0.998129
0.998312
0.998312
0.998311
0.991646
0.987207
0.988046
0.995922
0.995677
0.957428
0.93102
0.918513
0.9484
0.992064
0.997531
0.997532
0.997533
0.993356
0.972685
0.995137
0.964435
0.964773
0.964776
0.979428
0.991878
0.964728
0.982236
0.998308
0.998308
0.998308
0.998308
0.997886
0.996841
0.997642
0.998232
0.998235
0.998309
0.998318
0.997592
0.995853
0.998312
0.998312
0.998312
0.998277
0.990064
0.988081
0.995469
0.995181
0.926733
0.908161
0.91785
0.989938
0.997521
0.997521
0.997526
0.997531
0.997531
0.975902
0.972685
0.976694
0.990706
0.964842
0.982277
0.997206
0.979626
0.964727
0.964694
0.965154
0.991034
0.997981
0.998301
0.995258
0.976846
0.980097
0.998227
0.985124
0.98206
0.986512
0.995097
0.97901
0.986626
0.998312
0.998311
0.99831
0.997055
0.996099
0.977236
0.905727
0.905744
0.936236
0.996214
0.997499
0.997521
0.997521
0.997207
0.997491
0.993588
0.972721
0.972685
0.972721
0.997942
0.997942
0.997942
0.997217
0.996935
0.996498
0.986754
0.963563
0.963556
0.96355
0.978348
0.990186
0.974942
0.974942
0.974942
0.975829
0.994125
0.988483
0.938118
0.873223
0.960765
0.998311
0.99831
0.998294
0.988634
0.916284
0.905715
0.905747
0.930275
0.969461
0.96574
0.992577
0.997211
0.997521
0.992397
0.988506
0.980238
0.972779
0.974076
0.981285
0.997942
0.997942
0.997942
0.997884
0.994418
0.996537
0.997293
0.995899
0.971721
0.96355
0.96355
0.979156
0.994849
0.974942
0.974943
0.980945
0.994938
0.958573
0.872876
0.872873
0.874381
0.968186
0.998203
0.971509
0.920952
0.917855
0.972778
0.974723
0.972262
0.946825
0.949386
0.991061
0.994664
0.997381
0.992356
0.982559
0.981497
0.983605
0.996793
0.997855
0.997942
0.997942
0.997942
0.996364
0.994398
0.994397
0.995683
0.997728
0.997454
0.979926
0.963892
0.995055
0.995691
0.983144
0.975057
0.986789
0.996778
0.941989
0.872869
0.872855
0.872873
0.87313
0.877662
0.934658
0.962267
0.962593
0.962799
0.936921
0.926525
0.931539
0.977689
0.996531
0.994688
0.994739
0.997465
0.996811
0.997853
0.997855
0.997855
0.997855
0.997942
0.997942
0.997938
0.997933
0.996032
0.995543
0.997728
0.997728
0.997728
0.996376
0.994506
0.997014
0.996047
0.97989
0.975375
0.996336
0.997585
0.985966
0.882722
0.872873
0.872865
0.872902
0.89442
0.958783
0.959086
0.912629
0.912286
0.91861
0.971326
0.997956
0.997955
0.997951
0.996692
0.996765
0.99784
0.997847
0.997854
0.997855
0.997855
0.997855
0.997939
0.997938
0.997933
0.997927
0.99755
0.997599
0.997602
0.997728
0.996509
0.995149
0.996087
0.997152
0.988874
0.979437
0.983699
0.99765
0.997647
0.997595
0.985591
0.92305
0.884152
0.887959
0.923476
0.925086
0.907871
0.916771
0.985288
0.997957
0.997957
0.997957
0.997956
0.997953
0.99794
0.997875
0.997833
0.99784
0.997848
0.997854
0.997855
0.997855
0.98478
0.973857
0.966504
0.973341
0.98055
0.978151
0.978077
0.978872
0.997457
0.997481
0.997496
0.99747
0.989166
0.979437
0.992096
0.997649
0.997651
0.997647
0.997595
0.996641
0.948009
0.894915
0.896407
0.909902
0.976431
0.997959
0.997959
0.997957
0.997957
0.997957
0.997957
0.997655
0.997119
0.99779
0.997758
0.997702
0.99587
0.997824
0.997855
0.997855
0.921108
0.921101
0.921108
0.921164
0.953956
0.997306
0.996497
0.993985
0.996231
0.997497
0.997498
0.997496
0.995354
0.994372
0.997646
0.997651
0.997647
0.997595
0.962492
0.906384
0.905247
0.905177
0.968469
0.997959
0.997957
0.997959
0.997957
0.997957
0.997957
0.997958
0.997957
0.997268
0.976805
0.96939
0.958303
0.936777
0.90696
0.951148
0.997111
0.997855
0.921101
0.921093
0.921105
0.977771
0.997306
0.997306
0.997306
0.997023
0.995153
0.995136
0.99648
0.997491
0.997498
0.997503
0.997571
0.997646
0.986713
0.917376
0.91026
0.907767
0.940758
0.997939
0.997963
0.997962
0.997958
0.997958
0.997958
0.997958
0.997959
0.99796
0.997955
0.997217
0.968728
0.895784
0.869246
0.869193
0.869189
0.869189
0.947626
0.997809
0.921095
0.921095
0.921093
0.921105
0.92124
0.95159
0.9973
0.997298
0.99728
0.996845
0.99695
0.997492
0.997491
0.997464
0.949335
0.891704
0.892646
0.895477
0.94462
0.994909
0.995657
0.997954
0.99796
0.997959
0.997956
0.997958
0.997958
0.997969
0.997958
0.997955
0.99795
0.997693
0.973706
0.906523
0.86972
0.869205
0.869189
0.869189
0.869189
0.953622
0.937838
0.921113
0.932633
0.99679
0.997421
0.991062
0.990033
0.995671
0.997239
0.997181
0.982884
0.925638
0.893417
0.890305
0.88987
0.89039
0.890755
0.938581
0.99789
0.997936
0.997944
0.997947
0.997952
0.997955
0.997955
0.997418
0.996573
0.997944
0.997949
0.997937
0.997805
0.992561
0.990733
0.977177
0.906827
0.899019
0.869537
0.869189
0.869192
0.8739
0.997832
0.997832
0.997832
0.997832
0.997831
0.997829
0.997802
0.997724
0.984733
0.902302
0.889722
0.889731
0.889714
0.889714
0.889714
0.889961
0.976196
0.993584
0.997933
0.997939
0.997944
0.997953
0.997947
0.997949
0.994958
0.992812
0.993047
0.997532
0.997896
0.997823
0.997132
0.986065
0.97463
0.9614
0.877375
0.816156
0.882586
0.872551
0.882528
0.874085
0.997832
0.997832
0.997832
0.997832
0.997832
0.997831
0.997829
0.997801
0.992949
0.910372
0.889764
0.889721
0.889732
0.940058
0.954484
0.980486
0.997761
0.997831
0.997866
0.996726
0.997939
0.997944
0.997942
0.997909
0.997538
0.925379
0.796807
0.861623
0.997485
0.997412
0.996219
0.987779
0.969201
0.885119
0.656824
0.622856
0.883284
0.951619
0.951629
0.945415
0.997832
0.997509
0.99608
0.996071
0.997537
0.997829
0.997829
0.997827
0.997813
0.985417
0.954244
0.950377
0.983277
0.997722
0.997717
0.997738
0.997748
0.99778
0.997037
0.996102
0.997937
0.997939
0.965474
0.963087
0.99238
0.96735
0.653544
0.442889
0.99462
0.995413
0.99397
0.988559
0.977363
0.840049
0.622856
0.622114
0.669717
0.951629
0.951634
0.951634
0.997831
0.997829
0.99698
0.996072
0.996066
0.996775
0.997828
0.997828
0.997827
0.997824
0.99782
0.997818
0.99782
0.997793
0.99775
0.997748
0.997748
0.997748
0.997748
0.997735
0.978166
0.866036
0.819404
0.821391
0.970877
0.970041
0.773284
0.343539
0.800216
0.883974
0.934812
0.984659
0.972172
0.873926
0.622114
0.622045
0.621814
0.838559
0.951629
0.951634
0.983455
0.997822
0.997822
0.997816
0.996625
0.996082
0.996084
0.996881
0.997823
0.997825
0.997826
0.997826
0.997825
0.99782
0.995474
0.982172
0.991958
0.997748
0.997746
0.958315
0.785139
0.764819
0.768289
0.837705
0.969138
0.964595
0.59548
0.341079
0.480159
0.358384
0.526582
0.929766
0.967499
0.933087
0.627953
0.621814
0.621651
0.630649
0.923723
0.947975
0.885975
0.919298
0.959067
0.997807
0.997808
0.997804
0.997285
0.996297
0.996295
0.997121
0.997826
0.997826
0.997826
0.997825
0.987535
0.979239
0.979229
0.995442
0.987475
0.824926
0.764819
0.764652
0.848331
0.937534
0.955439
0.875858
0.375841
0.310779
0.310754
0.310781
0.310993
0.556286
0.963953
0.952858
0.850829
0.621651
0.621651
0.621651
0.640401
0.741772
0.885553
0.885415
0.885403
0.91249
0.976046
0.997809
0.99781
0.997801
0.997516
0.99626
0.996255
0.997301
0.997826
0.997826
0.996189
0.98746
0.979268
0.993522
0.991124
0.852553
0.764692
0.764696
0.86293
0.902221
0.84369
0.447608
0.31055
0.310752
0.310746
0.310593
0.310431
0.319701
0.80841
0.944112
0.924625
0.622894
0.621651
0.621694
0.621737
0.696077
0.885521
0.885403
0.885403
0.885403
0.90409
0.992417
0.997809
0.99741
0.996663
0.996898
0.99701
0.996486
0.997823
0.997826
0.992567
0.969517
0.99108
0.993502
0.993468
0.969446
0.885937
0.785105
0.829871
0.747069
0.417414
0.310533
0.310775
0.310746
0.310585
0.310431
0.310118
0.30978
0.376812
0.941488
0.941643
0.865031
0.622658
0.621737
0.643453
0.878031
0.970076
0.898792
0.885403
0.887439
0.943791
0.997696
0.997794
0.995723
0.982629
0.994782
0.997416
0.997471
0.997826
0.997826
0.995269
0.959485
0.987693
0.993468
0.993394
0.993332
0.99213
0.985241
0.99161
0.671698
0.312638
0.310984
0.310717
0.310746
0.310722
0.313905
0.3112
0.309654
0.309785
0.779264
0.941643
0.941314
0.754385
0.623009
0.636648
0.878206
0.932471
0.970042
0.970356
0.984314
0.996475
0.997781
0.997781
0.996904
0.982328
0.982014
0.995059
0.997825
0.997826
0.997826
0.997826
0.99478
0.931722
0.891037
0.923922
0.983044
0.98205
0.990495
0.991368
0.826424
0.329024
0.311138
0.310823
0.310754
0.313542
0.314054
0.314053
0.30946
0.309576
0.670985
0.941643
0.845703
0.932499
0.822307
0.684566
0.869716
0.924923
0.924167
0.929873
0.960812
0.997588
0.997781
0.997781
0.997781
0.991463
0.981732
0.981675
0.995531
0.997825
0.997826
0.997825
0.997825
0.950427
0.888619
0.888063
0.88775
0.887992
0.937239
0.99256
0.931509
0.404778
0.311322
0.309837
0.311742
0.314053
0.314053
0.310184
0.309051
0.309283
0.784213
0.938908
0.804713
0.93319
0.933205
0.917238
0.887074
0.926046
0.924012
0.923816
0.923648
0.923642
0.940731
0.993383
0.997775
0.99769
0.991842
0.980939
0.980814
0.994198
0.997825
0.997825
0.997823
0.997821
0.921296
0.88853
0.888063
0.887786
0.90255
0.993108
0.997385
0.807238
0.331829
0.309225
0.309464
0.309832
0.308607
0.308422
0.308712
0.35892
0.927363
0.908472
0.804121
0.933176
0.93321
0.933203
0.902438
0.983595
0.928397
0.923648
0.923642
0.923642
0.923642
0.954922
0.997636
0.99772
0.997737
0.989961
0.980017
0.979834
0.99581
0.997823
0.997822
0.997821
0.992179
0.975359
0.958718
0.968934
0.994626
0.99752
0.997387
0.997385
0.826212
0.334505
0.30869
0.308513
0.308296
0.308003
0.308421
0.655073
0.977429
0.82979
0.80398
0.93204
0.933203
0.905454
0.870928
0.997232
0.990064
0.974329
0.966663
0.955395
0.962244
0.987538
0.99772
0.997737
0.997738
0.997737
0.985031
0.979647
0.985746
0.99781
0.997821
0.997819
0.997813
0.99758
0.997656
0.997656
0.997656
0.997656
0.997521
0.997387
0.997018
0.624394
0.309128
0.308181
0.307958
0.307679
0.308003
0.807786
0.980061
0.813007
0.80398
0.921566
0.925819
0.872788
0.870928
0.997619
0.997685
0.99771
0.997726
0.997724
0.99728
0.996633
0.997703
0.997738
0.997738
0.997738
0.987114
0.979551
0.981926
0.9976
0.997816
0.996604
0.996392
0.997164
0.997654
0.997656
0.997656
0.994839
0.988487
0.97791
0.872358
0.419228
0.307814
0.307858
0.307678
0.307818
0.319184
0.892313
0.981837
0.887012
0.80398
0.890801
0.9521
0.896563
0.914222
0.997685
0.99771
0.997726
0.997732
0.997734
0.997735
0.997737
0.997737
0.997737
0.997738
0.997738
0.981879
0.97956
0.988166
0.997777
0.997808
0.996173
0.997522
0.997576
0.997642
0.997648
0.997651
0.920603
0.669522
0.386105
0.31246
0.307865
0.307862
0.307934
0.307847
0.307758
0.394451
0.925241
0.984267
0.95691
0.804479
0.816168
0.968389
0.978398
0.978369
0.846626
0.724043
0.845997
0.992226
0.997733
0.997735
0.997736
0.997649
0.997621
0.997737
0.997738
0.980936
0.979939
0.997271
0.997798
0.997801
0.997357
0.997489
0.997109
0.993091
0.994391
0.996295
0.82392
0.365343
0.308131
0.308
0.307878
0.307923
0.307934
0.307933
0.307813
0.423901
0.938607
0.987614
0.989511
0.832151
0.809022
0.929414
0.978355
0.978408
0.691303
0.690793
0.690967
0.872852
0.997525
0.997727
0.997736
0.997736
0.997621
0.997736
0.997738
0.993083
0.995659
0.997797
0.997797
0.98632
0.974387
0.987389
0.959046
0.934238
0.940533
0.961458
0.927081
0.806705
0.509797
0.32245
0.307956
0.307936
0.307934
0.307945
0.307982
0.462319
0.95218
0.990534
0.99016
0.964116
0.810195
0.800641
0.964809
0.978355
0.690673
0.690628
0.690793
0.883482
0.997505
0.997727
0.997738
0.997738
0.997699
0.997738
0.997738
0.997738
0.997528
0.982315
0.958216
0.935196
0.942925
0.926036
0.925751
0.925687
0.926365
0.927672
0.940636
0.964577
0.964358
0.911006
0.488889
0.308084
0.307961
0.307984
0.307982
0.740019
0.990183
0.991352
0.990743
0.990157
0.86982
0.726456
0.831757
0.971081
0.690628
0.690653
0.739482
0.973882
0.997664
0.997735
0.997738
0.997738
0.997738
0.997738
0.997738
0.994266
0.975495
0.953736
0.951401
0.92435
0.924371
0.924345
0.942441
0.965591
0.968687
0.956229
0.945612
0.946397
0.965847
0.977766
0.977648
0.977765
0.928219
0.839689
0.876853
0.977059
0.991463
0.991374
0.984388
0.985072
0.889844
0.719911
0.718024
0.92897
0.690673
0.695603
0.924931
0.997488
0.997725
0.997737
0.997738
0.997738
0.997738
0.997738
0.997738
0.982808
0.970289
0.977871
0.963654
0.933837
0.949808
0.949811
0.947945
0.960983
0.973906
0.975434
0.975236
0.961935
0.959524
0.972914
0.977757
0.977626
0.97719
0.87638
0.875756
0.965267
0.991993
0.991626
0.966714
0.967761
0.888356
0.717673
0.717721
0.909294
0.793898
0.852644
0.983796
0.997706
0.997735
0.997736
0.997737
0.972864
0.983578
0.996088
0.99772
0.989233
0.98066
0.982774
0.978838
0.97455
0.905297
0.761481
0.617616
0.654546
0.887031
0.97485
0.975434
0.97448
0.971937
0.955011
0.905519
0.937267
0.976235
0.873509
0.915956
0.991788
0.992384
0.991876
0.955503
0.959094
0.899931
0.717721
0.718122
0.926884
0.946144
0.969498
0.996548
0.997733
0.997736
0.997736
0.97393
0.95965
0.959497
0.990702
0.9976
0.996946
0.98199
0.976963
0.891238
0.703219
0.514594
0.514594
0.514564
0.514406
0.742486
0.969368
0.97448
0.936632
0.899182
0.806175
0.764399
0.763784
0.763717
0.764125
0.953257
0.992384
0.992774
0.992384
0.95573
0.956112
0.907029
0.720836
0.723196
0.942386
0.946992
0.994886
0.996639
0.997735
0.997736
0.997736
0.973804
0.959472
0.959507
0.988373
0.99218
0.996303
0.996029
0.754082
0.514812
0.514605
0.514601
0.514581
0.514605
0.516588
0.844881
0.954869
0.909681
0.772352
0.767675
0.764426
0.763784
0.763717
0.763705
0.763699
0.853426
0.992021
0.993561
0.97951
0.948697
0.961113
0.96486
0.749344
0.762265
0.95236
0.974663
0.997158
0.997154
0.997443
0.99765
0.997736
0.994775
0.975241
0.983002
0.995856
0.995806
0.996029
0.811394
0.516493
0.515279
0.514812
0.514596
0.514605
0.515662
0.86373
0.892886
0.876065
0.796918
0.79262
0.892635
0.84861
0.764302
0.76373
0.763692
0.763705
0.826918
0.990878
0.994092
0.973625
0.948697
0.966064
0.965274
0.790096
0.859339
0.954727
0.997182
0.997241
0.997281
0.99732
0.989303
0.994627
0.996239
0.996239
0.996089
0.995807
0.987051
0.775275
0.541164
0.524748
0.518329
0.515279
0.51483
0.515662
0.839092
0.949572
0.895577
0.857984
0.865479
0.967667
0.976379
0.976475
0.885372
0.764049
0.763705
0.763699
0.84565
0.993333
0.994341
0.987047
0.951378
0.972285
0.942586
0.735226
0.861582
0.955212
0.997165
0.997215
0.997245
0.997281
0.997245
0.997032
0.995573
0.97375
0.952165
0.862365
0.576692
0.529526
0.54122
0.84596
0.873488
0.594947
0.537309
0.859903
0.992528
0.954012
0.848946
0.855604
0.974438
0.976283
0.976475
0.976565
0.9765
0.976523
0.7801
0.763705
0.888692
0.994431
0.994451
0.978604
0.973422
0.972733
0.891201
0.733342
0.85738
0.955525
0.648264
0.828288
0.873993
0.829829
0.692138
0.746906
0.951938
0.971548
0.937431
0.576169
0.52778
0.528518
0.58353
0.940756
0.983661
0.973622
0.991891
0.992672
0.992681
0.927136
0.844887
0.873772
0.974002
0.975583
0.976283
0.976475
0.976566
0.976168
0.869796
0.814785
0.962404
0.994751
0.994449
0.907805
0.970378
0.972328
0.869473
0.733124
0.892214
0.955525
0.524557
0.536002
0.543375
0.556117
0.561066
0.562392
0.562782
0.606276
0.553833
0.526952
0.527278
0.52778
0.574508
0.928642
0.991169
0.992463
0.992672
0.992696
0.992677
0.948853
0.837287
0.856959
0.968259
0.974586
0.940541
0.874189
0.954576
0.976227
0.942735
0.974324
0.994778
0.994871
0.954495
0.886994
0.965541
0.972363
0.845793