/*--------------------------------*- C++ -*----------------------------------*\
  =========                 |
  \\      /  F ield         | OpenFOAM: The Open Source CFD Toolbox
   \\    /   O peration     | Website:  https://openfoam.org
    \\  /    A nd           | Version:  8
     \\/     M anipulation  |
\*---------------------------------------------------------------------------*/
FoamFile
{
    version     2.0;
    format      ascii;
    class       volScalarField;
    location    "7.2";
    object      p;
}
// * * * * * * * * * * * * * * * * * * * * * * * * * * * * * * * * * * * * * //

dimensions      [1 -1 -2 0 0 0 0];

internalField   nonuniform List<scalar> 
9150
(
-204.312
-205.319
-205.96
-206.424
-206.66
-206.659
-206.419
-205.958
-205.322
-204.313
-224.373
-224.883
-225.31
-225.623
-225.793
-225.806
-225.638
-225.314
-224.885
-224.373
-244.266
-244.543
-244.799
-245.023
-245.125
-245.123
-245.017
-244.8
-244.543
-244.265
-264.005
-264.177
-264.347
-264.506
-264.582
-264.591
-264.501
-264.344
-264.175
-264.002
-283.629
-283.806
-283.945
-284.076
-284.136
-284.136
-284.062
-283.936
-283.801
-283.625
-118.467
-119.151
-118.772
-118.405
-118.216
-118.221
-118.418
-118.775
-119.136
-118.45
-133.843
-134.564
-134.689
-134.752
-134.646
-134.641
-134.73
-134.68
-134.546
-133.83
-150.28
-151.038
-151.339
-151.702
-151.768
-151.758
-151.68
-151.33
-151.023
-150.263
-167.123
-168.292
-168.771
-169.376
-169.569
-169.547
-169.363
-168.749
-168.269
-167.108
-184.228
-186.242
-187.016
-187.678
-187.975
-187.963
-187.698
-187.023
-186.248
-184.229
-25.0404
-26.3611
-28.2862
-29.4001
-29.8893
-29.7501
-29.2186
-28.1665
-26.0212
-24.269
-45.2121
-45.4823
-46.4382
-46.7644
-47.23
-47.2241
-46.7317
-46.2555
-45.1919
-44.823
-65.3465
-65.1344
-66.1615
-65.7364
-66.1919
-66.1179
-65.6279
-66.0014
-64.9609
-65.1487
-88.0896
-85.1527
-86.1172
-84.5555
-84.6888
-84.6621
-84.5599
-86.0217
-85.0805
-87.986
-113.209
-104.016
-103.413
-102.132
-101.68
-101.642
-102.09
-103.333
-103.959
-113.136
1402.76
1403.31
1403.91
1403.89
1403.42
1402.88
1403
1403.37
1404.11
1405.21
1383.4
1382.96
1383.23
1383.03
1382.09
1383.47
1382.22
1381.85
1381.83
1382.3
1367.25
1367.15
1365.17
1363.48
1362.6
1362.28
1360.96
1359.82
1359.55
1358.21
1347.82
1346.3
1344.53
1342.76
1341.42
1339.89
1338.5
1337.27
1336.47
1335.86
1328.04
1326.1
1323.53
1320.78
1317.95
1315.06
1312.9
1311.41
1309.87
1309.24
1305.86
1303.77
1300.58
1296.97
1293.09
1289.62
1287.61
1285.91
1283.19
1286.63
1283.79
1282.75
1280.22
1276.97
1274.46
1274.04
1273.26
1272.08
1271.23
1272.51
1265.97
1265.46
1263.89
1261.73
1261.52
1260.93
1260.61
1260.3
1260.65
1261.27
1249.42
1248.55
1247.55
1246.69
1247.75
1247.29
1246.82
1246.88
1246.35
1247.38
1232.14
1230.51
1229.19
1228.52
1230.57
1234.35
1229.4
1230.47
1230.26
1230.26
1213.76
1212.25
1211.42
1211.02
1211.02
1210.46
1210.88
1211.94
1212.65
1212.96
1195.32
1194.22
1193.21
1193.76
1193.44
1193.85
1194.29
1194.84
1195.35
1195.79
1176.6
1175.95
1175.62
1175.69
1175.94
1175.96
1176.45
1176.94
1177.52
1178.22
1157.17
1156.61
1156.25
1156.33
1156.74
1157.29
1157.89
1158.96
1159.52
1160
1137.85
1137.41
1137
1136.42
1137.73
1138.19
1138.72
1139.65
1140.38
1141.05
1118.49
1118.29
1118.02
1117.75
1117.94
1118.88
1120.01
1120.94
1121.49
1122.15
1098.22
1098.22
1098.41
1098.68
1099.27
1099.7
1101.31
1101.72
1102.09
1102.67
1078.6
1078.83
1079.13
1079.43
1079.8
1080.28
1080.82
1081.4
1081.92
1082.37
1059.6
1060.02
1060.12
1060.74
1060.75
1060.69
1061.1
1061.49
1061.94
1062.21
1041.98
1041.81
1041.83
1042.32
1041.78
1041.55
1041.62
1041.67
1041.81
1041.82
1023.6
1023.35
1023.09
1022.67
1022.41
1022.17
1021.93
1021.66
1021.43
1021.18
1004.32
1005.08
1004.05
1003.81
1003.37
1002.86
1002.25
1001.57
1000.8
1000.06
986.239
986.088
984.628
984.526
984.02
983.274
982.447
981.404
980.237
979.302
965.937
965.693
965.531
964.713
964.43
963.944
963.192
962.149
960.979
960.314
946.292
946.21
946.025
945.841
945.547
944.961
944.516
943.694
943
942.805
926.322
926.569
926.562
926.699
926.74
926.281
925.973
925.596
924.769
924.902
905.437
906.2
906.596
906.918
907.412
907.568
907.042
906.974
906.539
906.025
883.749
885.162
886.234
886.944
887.535
888
888.555
888.41
888.083
887.519
863.427
865.054
866.568
867.533
868.351
869.052
869.492
869.775
869.502
868.854
845.659
846.53
848.049
848.982
849.858
850.706
851.317
851.632
851.434
850.562
828.534
829.455
830.507
831.412
831.905
832.604
833.49
833.998
833.528
831.961
812.942
812.542
813.941
813.961
815.616
813.537
814.799
815.316
814.35
812.826
794.426
794.518
795.217
796.02
796.942
797.118
798.743
799.122
797.051
796.619
772.665
775.219
774.742
777.227
778.016
779.819
781.418
780.354
780.465
779.866
750.689
753.945
756.693
758.313
761.488
762.97
763.343
764.461
763.729
762.007
737.484
738.518
740.437
742.474
744.501
745.693
746.521
746.723
746.622
745.881
723.598
726
728.299
727.299
728.095
729.524
730.14
729.803
728.611
728.611
708.662
710.361
711.291
711.665
709.989
711.294
712.011
712.243
710.971
709.634
690.843
692.263
692.373
690.796
692.245
692.906
694.009
692.645
693.503
691.362
669.242
670.64
668.208
669.819
670.55
670.072
672.353
672.571
671.777
671.969
642.986
643.515
644.899
646.06
646.469
646.582
648.857
649.38
649.07
649.978
619.963
622.408
623.533
623.429
623.132
623.19
623.829
624.652
626.15
627.263
607.784
605.191
603.054
602.174
600.598
598.377
600.952
599.92
602.136
602.619
596.013
592.5
586.533
585.105
581.543
580.13
585.65
583.689
581.339
584.975
574.706
571.931
568.248
566.614
564.345
562.632
563.909
563.623
562.663
561.162
554.34
552.879
551.616
550.347
548.95
547.21
547.494
547.724
547.516
547.324
533.582
532.539
531.656
531.243
531.069
530.788
530.671
531.87
533.564
534.247
515.549
513.977
512.793
512.076
511.919
512.194
512.863
514.241
515.439
516.399
500.987
498.451
496.097
494.393
493.326
492.786
493.145
494.087
494.846
494.25
484.855
482.153
479.347
477.48
476.884
476.029
475.678
475.411
475.065
475.151
471.162
468.528
465.83
463.123
461.708
460.027
458.51
457.588
457.096
457.677
457.257
456.263
453.436
450.14
447.257
445.093
442.865
441.533
440.059
438.612
440.282
436.069
439.386
431.51
430.031
426.624
424.412
421.354
420.977
420.117
427.692
421.647
424.334
423.228
417.825
413.543
416.94
414.483
406.996
402.407
415.128
410.149
407.496
408.814
410.327
406.98
403.693
400.016
395.442
391.034
402.415
401.38
402.567
399.065
395.355
391.701
389.69
386.842
383.168
378.984
387.478
384.601
385.438
384.27
382.12
378.121
377.218
374.742
370.576
365.817
370.35
368.349
364.278
361.952
358.807
359.654
358.548
354.054
354.611
352.16
351.724
347.689
344.376
341.535
338.916
335.882
335.525
333.286
331.346
329.615
330.19
325.703
321.878
318.691
316.259
313.249
311.269
308.455
305.653
302.115
303.427
300.556
297.577
293.582
292.9
289.407
284.931
281.059
277.57
274.031
274.324
272.357
269.775
271.694
269.214
265.258
262.035
259.734
256.689
253.588
249.852
251.809
251
251.894
247.694
242.214
237.946
233.005
227.89
224.815
241.432
241.096
237.508
231.013
222.371
212.851
203.831
195.138
187.538
179.524
219.188
217.339
208.865
195.164
176.629
156.777
143.435
141.815
140.476
137.431
179.436
178.461
172.164
155.009
133.495
131.001
134.133
133.356
132.764
132.325
142.961
142.886
144.679
138.379
123.766
128.741
128.398
129.287
129.411
129.821
115.611
119.348
118.908
130.224
121.849
124.353
125.577
125.891
126.239
126.754
100.642
109.281
111.089
117.555
122.317
119.054
121.482
121.767
122.212
122.597
98.3741
106.519
103.762
109.15
111.729
114.366
116.938
118.154
118.246
118.228
101.97
99.3399
102.634
101.019
103.37
109.175
110.868
112.571
112.802
112.722
98.9343
100.556
99.7543
119.615
112.086
106.808
107.376
109.337
109.689
109.129
109.671
108.708
105.485
115.231
118.173
104.523
106.568
108.515
108.167
106.417
129.795
120.693
111.354
113.281
111.294
109.595
109.466
108.984
107.742
104.988
144.085
122.838
120.191
111.821
111.249
110.331
109.647
105.594
107.12
105.225
119.35
115.629
105.121
107.213
104.576
108.398
108.466
104.23
105.954
103.731
66.9604
70.0495
49.2493
72.5223
86.3532
118.126
100.239
112.359
100.635
105.344
11.0667
18.6588
21.801
36.5774
73.2557
107.69
96.9161
90.4343
86.7237
84.568
8.9277
-2.88746
6.02939
3.11402
65.1496
80.2807
111.225
78.421
75.517
74.245
-3.66108
-4.24653
-2.50071
5.78195
54.0077
62.9138
68.3563
60.35
54.098
49.5368
-1.56672
-2.40229
-3.65281
-3.23882
42.0245
40.1686
36.2035
34.5456
34.1047
32.0528
-1.59453
-1.54374
-1.53453
-3.03912
32.179
28.9602
16.8197
16.7886
16.0147
13.2235
-1.64567
-1.61859
-1.53909
-2.17558
25.9787
21.455
4.81313
4.17071
6.49597
7.06636
-1.72004
-1.71396
-1.697
-1.79103
22.2855
19.632
-1.22245
-2.225
1.92456
-2.72547
-1.69437
-1.70036
-1.70414
-1.82077
21.0507
20.2895
-3.64237
-1.08988
-2.01428
-1.40644
-1.69376
-1.69908
-1.70574
-1.74653
21.638
15.173
-3.43632
-1.10698
-1.77643
-1.67999
-1.70236
-1.70319
-1.70403
-1.70798
18.5222
17.2904
-1.86461
-1.43387
-1.49591
-1.57369
-1.71938
-1.71491
-1.70934
-1.75986
11.8069
20.976
-1.63214
-1.56104
-1.57001
-1.58816
-1.73774
-1.73181
-1.72691
-1.76314
9.95697
19.7377
-1.71636
-1.66355
-1.65182
-1.65346
-1.75745
-1.75672
-1.76158
-1.82855
14.3488
11.6322
-1.75492
-1.68889
-1.68419
-1.68486
-1.77246
-1.77427
-1.77641
-1.81103
10.8063
7.56268
-1.75557
-1.70658
-1.70884
-1.71032
-1.78944
-1.79139
-1.78403
-2.07367
8.41281
6.83926
-1.98505
-1.73053
-1.73819
-1.73911
-1.80708
-1.80587
-1.81352
-2.1663
4.05367
5.12739
-2.12367
-1.76773
-1.76046
-1.76492
-1.833
-1.83245
-1.92402
-1.95256
2.37036
3.02314
-1.72906
-1.83798
-1.78505
-1.78985
-1.85846
-1.8591
-2.01395
-2.20498
1.51709
1.07096
-1.3981
-1.97739
-1.8108
-1.81353
-1.87886
-1.87783
-2.14142
-0.899166
0.0601848
-0.393001
-1.4256
-2.21575
-1.83707
-1.83812
-1.89626
-1.8928
-3.34682
-1.55601
-0.183482
-0.172729
-1.4662
-3.21179
-1.86088
-1.86485
-1.91341
-2.42846
-4.50688
-2.45537
-1.4552
-1.45045
-2.48606
-4.52441
-2.20275
-1.89092
-1.93668
-4.06931
-5.58193
-5.75565
-5.73279
-5.83179
-5.93647
-5.63596
-3.91794
-1.93185
-2.79271
-9.83218
-13.1337
-14.9849
-15.8243
-15.7753
-14.7699
-12.7728
-9.38774
-2.69576
1406.67
1407.5
1407.34
1406.6
1407.47
1408.35
1409.46
1411.39
1413.37
1415.01
1416.37
1417.66
1418.72
1419.47
1420.13
1420.69
1421.18
1421.6
1421.91
1422.32
1421.72
1421.63
1421.62
1421.65
1421.7
1421.76
1422.19
1422.77
1423.58
1424.48
1425.47
1426.5
1427.54
1428.5
1429.22
1429.69
1429.9
1430.01
1430.06
1429.91
1382.93
1383.52
1383.89
1384.51
1385.99
1388.31
1390.61
1392.57
1394.44
1395.97
1397.17
1398.48
1399.66
1400.3
1400.68
1401.19
1401.62
1401.98
1402.28
1402.56
1401.95
1401.86
1401.86
1401.85
1401.96
1402.71
1403.35
1402.74
1403.21
1403.83
1404.72
1405.77
1406.91
1408.11
1409.19
1410.25
1410.75
1410.77
1410.51
1410.39
1359.43
1360.69
1362.3
1363.91
1364.81
1367.67
1370.39
1373.14
1375.41
1377.15
1377.88
1378.98
1379.75
1380.47
1380.97
1381.43
1381.77
1381.99
1382.17
1382.34
1381.93
1381.93
1381.87
1382.01
1382.87
1383.38
1383.38
1383.27
1383.11
1383.27
1383.63
1384.06
1385.03
1386.48
1387.96
1389.24
1390.22
1390.65
1390.67
1390.68
1335.23
1337.12
1339.86
1341.95
1343.01
1346.44
1349.03
1355.24
1359.47
1357.4
1358.66
1359.56
1360.39
1360.93
1361.52
1361.73
1361.81
1362.13
1362
1362.22
1362.11
1362
1362.13
1362.41
1362.72
1363.06
1363.53
1363.45
1363.32
1363.37
1363.67
1364.09
1363.92
1364.95
1366.42
1367.99
1369.24
1370
1370.32
1370.67
1310.99
1313.16
1314.63
1316.86
1319.55
1322.02
1326.12
1340.12
1340.88
1338.77
1339.45
1340.15
1340.88
1341.39
1341.65
1342.06
1341.69
1342.1
1342.25
1342.32
1342.65
1342.51
1342.48
1342.63
1342.88
1343.28
1343.77
1344.03
1343.99
1344.46
1345.15
1345.11
1345.4
1345.89
1346.42
1347.53
1348.52
1349.33
1349.85
1349.96
1287.89
1288
1290.61
1293.09
1295.99
1301.01
1310.53
1315.11
1317.21
1318.36
1319.47
1320.61
1321.5
1321.62
1321.88
1321.99
1322.01
1322.16
1322.33
1322.46
1322.65
1322.79
1322.87
1323.13
1323.36
1323.63
1324.09
1324.5
1324.79
1324.9
1325.25
1325.69
1326.19
1326.66
1327.45
1327.35
1328.14
1328.82
1329.25
1329.49
1274.31
1275.85
1277.7
1280.56
1283.97
1286.91
1289.52
1293.79
1296.99
1298.56
1300.43
1301.17
1301.73
1302.15
1302.28
1302.2
1302.15
1302.29
1302.52
1302.63
1302.72
1302.82
1302.96
1303.1
1302.83
1302.45
1302.99
1303.85
1304.33
1304.75
1305.35
1305.95
1306.53
1306.72
1307.56
1307.07
1307.81
1308.39
1308.83
1309.26
1262.04
1262.32
1263.71
1264.98
1266.61
1269.29
1272.68
1275.2
1276.61
1278.38
1279.86
1280.98
1281.61
1282.12
1282.24
1282.12
1282.04
1282.1
1282.49
1282.73
1282.76
1282.83
1282.89
1282.73
1282.5
1283.21
1282.53
1283.72
1284.35
1284.65
1285.71
1286.42
1286.57
1287.55
1287.5
1287.75
1287.43
1288.09
1288.59
1288.94
1247.76
1248.59
1250.01
1251.38
1252.92
1252.74
1253.58
1256.25
1258.26
1258.98
1259.8
1260.78
1261.4
1261.81
1261.87
1261.58
1260.93
1261.72
1262.3
1262.81
1262.76
1263.02
1263.56
1263.62
1264.02
1264.95
1263.51
1266.34
1265.6
1266.3
1266.73
1267.16
1267.58
1267.9
1268.08
1268.26
1267.88
1268.05
1268.35
1268.51
1230.58
1231.21
1232.34
1232.64
1233.04
1234.53
1236.14
1237.88
1239.31
1239.44
1240.3
1241.1
1241.61
1241.93
1241.94
1241.69
1242.23
1243.77
1243.53
1244.28
1244.2
1244.78
1244.97
1245.27
1245.7
1245.86
1245.97
1247.09
1246.91
1246.79
1247.23
1247.08
1247.94
1248.55
1248.25
1248.32
1248.27
1248.19
1248.21
1248.28
1213.29
1213.68
1215.42
1216.63
1217.49
1218.68
1219.92
1220.74
1220.95
1221.32
1221.67
1222.06
1222.39
1222.71
1222.94
1223.14
1224.09
1225.05
1225.42
1225.47
1225.69
1226.17
1226.98
1227.44
1227.54
1227.26
1227.29
1227.54
1227.13
1226.19
1226.05
1225.89
1226.38
1227.07
1227.48
1227.69
1227.64
1227.7
1227.77
1227.87
1196.38
1197.3
1200.14
1201.18
1201.71
1201.89
1202.56
1202.93
1202.91
1202.79
1202.81
1202.96
1203.18
1203.48
1203.8
1204.24
1204.96
1206.13
1207.71
1206.13
1207.43
1206.93
1207.7
1207.7
1207.58
1208.14
1207.77
1207.66
1206.71
1206.01
1204.92
1204.05
1204.19
1204.99
1206.03
1206.67
1207.06
1207.28
1207.48
1207.69
1179.12
1180.11
1181.42
1183
1183.41
1183.34
1183.58
1183.75
1183.73
1183.63
1183.68
1183.8
1183.9
1184.06
1184.4
1184.83
1185.31
1185.75
1186.16
1186.66
1187.3
1187.42
1187.38
1187.71
1188.37
1188.46
1188.42
1187.98
1187.09
1186.24
1185.65
1185.44
1187.12
1183.99
1185.76
1186.79
1187.37
1187.49
1187.61
1187.77
1160.92
1161.89
1162.79
1163.41
1163.77
1163.93
1163.88
1163.97
1164.07
1164.15
1164.21
1164.32
1164.37
1164.54
1164.8
1165.06
1165.48
1165.89
1166.28
1166.72
1167.28
1167.69
1167.99
1168.43
1168.91
1169.13
1169.34
1169.03
1169.05
1169.01
1169.01
1169.9
1169.65
1165.15
1166.7
1167.47
1167.88
1168
1168.15
1168.38
1141.63
1141.93
1142.89
1143.22
1143.26
1143.66
1143.78
1144.22
1144.52
1144.68
1144.68
1144.61
1144.57
1144.6
1144.79
1144.93
1145.22
1145.57
1145.92
1146.3
1146.81
1147.4
1147.67
1148.58
1149.46
1150.31
1150.47
1151.12
1151.01
1151.12
1151.71
1153.13
1150.7
1149.29
1148.87
1148.85
1148.88
1148.76
1149.7
1149.29
1122.58
1123.45
1123.95
1123.71
1124.5
1125.04
1123.81
1123.99
1124.25
1124.42
1124.38
1124.3
1124.25
1124.36
1124.48
1124.49
1124.68
1125.02
1125.24
1125.45
1126.18
1127.27
1128.42
1129.53
1130.57
1131.38
1132.22
1132.36
1132.23
1133.89
1132.98
1132.56
1132.1
1130.93
1130.06
1129.79
1129.63
1129.54
1129.74
1129.34
1102.83
1104.62
1104.29
1105.22
1104.78
1104.88
1104.35
1103.69
1103.51
1103.88
1104.03
1103.97
1104.67
1104.46
1104.78
1104.21
1104.52
1104.08
1103.91
1104.74
1106.4
1107.95
1109.76
1111.15
1112.31
1113.17
1113.11
1114.18
1114.27
1112.57
1113.33
1113.15
1112.45
1111.62
1110.95
1110.51
1110.18
1110.09
1110.06
1110.04
1082.8
1083.27
1083.77
1084.05
1084.16
1084.2
1083.91
1084.1
1084.1
1084.15
1084.15
1084.8
1084.43
1084.51
1084.44
1084.38
1084.61
1083.49
1083.53
1088.55
1087.1
1089.5
1091.65
1093.43
1095
1096.55
1097.86
1097.05
1094.96
1094.26
1093.99
1093.43
1092.93
1092.28
1091.39
1090.83
1090.48
1090.48
1090.21
1090.16
1062.53
1062.83
1063.11
1063.34
1063.57
1063.56
1063.63
1063.69
1064.01
1064.93
1065.22
1065.15
1066.09
1064.99
1065.18
1064.86
1065.69
1064.44
1065.52
1067.43
1068.88
1071.23
1074.43
1075
1077.91
1079.42
1078.64
1079.45
1078.3
1077.5
1076.1
1074.75
1073.72
1072.83
1071.58
1071.1
1070.46
1069.72
1069.41
1069.52
1041.95
1042.09
1042.18
1042.26
1042.36
1042.45
1042.62
1043.1
1043.59
1044.38
1046.19
1045.11
1045.75
1045.32
1046.08
1046.14
1046.66
1046.56
1048.2
1049.65
1051.55
1053.54
1055.86
1056.61
1059.39
1061.37
1061.8
1062.26
1063.28
1061.81
1058.58
1056.55
1054.68
1052.9
1051.35
1049.99
1048.78
1048.01
1047.53
1047.41
1020.89
1020.67
1020.53
1020.57
1020.74
1020.94
1021.25
1021.75
1022.32
1023.09
1024.04
1024.82
1025.34
1025.95
1026.78
1026.43
1027.09
1027.37
1029.87
1031.51
1033.4
1035.48
1036.83
1039.89
1041.77
1042.77
1045.08
1045.01
1044.28
1043.63
1040.86
1038.08
1035.42
1032.76
1030.42
1028.39
1026.68
1025.4
1024.55
1024.25
999.338
998.585
997.922
997.708
997.95
998.52
999.144
1000.02
1000.88
1001.75
1002.6
1003.49
1004.1
1005.31
1005.51
1005.93
1006.54
1007.44
1009.28
1010.8
1013.55
1016
1017.64
1020.41
1023.65
1024.24
1025.1
1026.39
1026.36
1024.87
1022.08
1018.71
1015.09
1011.5
1008.34
1005.7
1003.39
1001.58
1000.33
999.828
978.188
977.053
976.351
976.587
976.85
977.408
978.204
978.704
979.194
980.024
980.801
981.675
982.625
983.854
983.612
984.236
985.179
986.28
987.969
989.764
991.119
994.74
998.381
1000.25
1002.4
1005.31
1007.11
1008.2
1007.99
1006.11
1002.94
998.707
993.618
988.403
984.172
980.973
978.067
975.868
974.277
973.923
959.677
958.279
957.31
956.975
956.601
957.308
957.327
957.569
957.953
958.566
959.155
959.624
960.151
960.584
961.001
961.61
962.32
963.103
963.672
966.255
968.56
970.537
973.477
977.188
980.454
983.574
986.375
988.329
988.422
986.366
982.249
976.22
969.139
962.115
955.97
952.2
951.115
947.786
945.807
945.832
941.806
940.805
940.101
938.828
939.109
938.519
937.928
937.544
937.519
937.712
937.853
938.008
938.191
938.256
938.165
938.367
938.317
938.234
939.923
941.234
941.858
944.21
946.823
949.861
952.982
956.667
960.504
962.988
963.316
961.054
956.177
948.366
937.739
929.172
922.591
918.354
917.535
916.57
914.954
916.82
924.314
923.604
922.929
922.433
921.614
920.347
919.338
918.766
918.165
917.626
917.064
916.423
916.085
916.019
914.998
915.115
915.048
914.54
912.667
912.89
913.253
914.139
915.356
916.635
917.941
919.524
921.404
923.91
924.957
923.625
918.98
911.285
901.55
891.629
881.802
877.943
879.815
881.476
882.392
884.806
905.892
906.076
904.464
903.367
902.508
901.345
900.456
899.174
898.247
897.353
896.393
895.595
895.344
894.297
893.661
892.607
891.061
888.245
885.813
883.878
882.356
880.628
877.624
873.072
867.721
864.061
862.955
865.362
867.585
868.317
866.892
865.391
861.787
855.111
846.224
841.156
845.671
848.739
851.213
852.394
886.804
885.85
884.968
884.009
883.043
881.96
880.817
879.656
878.377
878.917
878.317
877.121
875.938
874.67
872.654
870.056
866.235
862.457
858.53
855.01
851.111
845.716
837.063
823.549
808.28
794.255
786.177
787.263
794.22
801.482
807.292
813.672
817.009
816.819
813.991
813.645
816.36
820.968
824.288
826.28
868.029
867.222
866.4
865.43
864.45
863.397
862.233
861.09
859.992
860.345
860.301
858.572
856.291
853.396
850.427
846.77
842.415
837.632
832.464
826.932
820.434
810.416
795.169
773.846
749.157
727.483
718.866
713.479
726.428
744.803
757.862
769.347
777.284
782.604
791.916
796.929
790.897
798.442
801.761
802.834
849.349
848.435
847.608
846.624
845.618
844.706
843.658
842.522
841.3
840.194
839.467
838.066
835.387
832.604
828.956
824.542
819.497
813.72
807.099
799.493
790.806
778.102
760.536
738.38
716.755
697.035
691.88
704.867
698.404
719.569
734.293
746.5
754.463
761.816
768.157
772.272
772.064
778.069
782.211
784.108
830.098
829.035
828.244
827.556
826.797
825.903
824.842
823.653
822.418
821.022
819.431
817.52
815.052
811.815
807.807
803.112
797.742
791.706
784.503
775.988
765.835
754.845
745.194
728.627
716.098
702.673
694.493
708.572
694.834
708.057
717.293
729.14
737.671
744.354
750.526
754.114
757.757
762.474
767.204
769.635
810.496
808.508
808.15
807.992
807.513
806.918
805.919
804.64
803.212
801.588
799.75
797.611
794.978
791.67
787.671
783.73
777.997
772.442
765.521
757.765
752.127
746.571
738.513
724.586
719.779
707.127
697.421
697.24
693.546
704.249
706.025
709.81
722.449
729.499
737.299
742.449
747.426
751.43
756.2
759.407
794.806
791.024
790.006
789.32
788.721
788.143
787.142
785.865
784.335
782.574
780.644
778.449
775.899
772.866
769.33
765.717
760.867
756.264
750.126
745.174
742.883
736.922
728.387
721.843
713.49
700.393
692.971
691.306
692.153
695.915
697.253
698.739
707.085
720.386
727.115
735.561
741.543
744.846
746.102
747.288
777.652
775.429
773.676
772.115
770.555
769.738
768.886
767.558
765.961
764.254
762.381
760.277
758.057
755.523
752.503
748.915
745.429
741.362
736.94
733.323
731.921
725.527
714.814
709.052
698.596
691.908
688.366
686.349
685.117
685.78
686.371
687.915
691.522
709.045
720.042
731.108
737.9
740.892
740.975
740.207
760.775
759.185
757.38
755.879
754.007
752.022
751.044
749.731
748.079
746.394
744.728
743.019
741.185
739.109
736.695
734.747
730.339
727.142
723.894
720.039
715.935
711.241
703.985
694.748
692.727
688.584
684.585
679.7
676.603
676.974
678.233
680.65
682.891
691.122
709.198
720.732
730.419
735.061
734.279
740.012
743.917
741.92
740.693
739.081
736.283
734.441
733.313
732.033
731.372
728.955
727.484
726.078
724.676
723.158
721.621
721.335
715.896
712.397
710.096
707.997
707.283
704.434
698.493
690.01
689.171
685.292
681.133
676.398
673.517
673.23
673.948
675.505
676.419
681.257
703.273
712.011
717.643
725.566
724.129
726.77
726.509
724.21
721.724
720
718.428
716.918
715.749
714.575
713.795
712.465
710.627
709.466
708.273
707.092
705.711
703.709
701.322
700.706
694.884
691.448
689.84
691.952
689.998
683.76
683.072
680.063
677.225
674.619
673.352
672.968
673.507
674.931
676.433
678.567
690.259
691.962
701.455
702.058
710.345
706.071
707.817
705.171
702.581
700.989
700.581
699.031
697.778
696.76
695.821
695.42
694.149
693.118
692.19
691.343
690.437
689.409
687.781
687.098
684.703
681.682
680.223
677.867
679.867
675.13
675.226
673.962
672.07
670.842
671.057
671.537
672.449
673.665
674.9
674.81
683.483
685.952
686.843
688.884
687.67
689.549
689.404
687.407
685.584
684.003
682.563
681.008
679.288
678.753
678.077
677.376
677.323
676.728
676.249
676.129
675.94
675.693
675.497
676.339
677.738
677.181
674.463
670.052
670.359
667.679
665.388
666.088
664.247
663.892
664.994
666.05
667.618
668.905
671.331
673.599
677.181
681.481
675.559
676.491
677.053
678.151
669.904
668.567
667.218
665.947
664.819
663.577
661.459
660.333
659.777
659.329
659.133
659.655
659.822
660.113
660.499
660.859
661.443
662.432
663.079
662.953
661.27
659.19
657.525
656.296
655.79
655.769
653.071
653.827
655.667
657.683
659.527
660.679
663.246
674.915
669.857
673.446
667.688
669.114
668.86
671.981
649.447
647.561
646.122
645.149
644.26
643.155
641.69
640.973
640.563
640.413
640.74
641.17
642.376
643.149
644.11
644.961
645.928
647.371
648.561
648.46
647.262
645.387
643.063
641.021
640.051
640.587
639.321
641.756
645.17
648.051
649.597
650.087
652.878
665.805
662.289
665.277
659.951
661.01
660.829
662.555
626.145
624.357
623.473
622.911
622.357
621.735
621.187
620.748
620.379
620.518
621.113
622.004
623.832
625.104
626.311
627.636
628.989
630.824
631.968
632.238
631.335
629.292
626.817
625.641
626.851
628.375
626.287
631.037
634.399
636.774
637.358
637.546
639.102
650.781
649.002
657.331
654.006
653.725
652.488
652.793
600.282
597.799
597.341
598.338
599.259
599.808
599.985
599.841
599.794
600.23
600.973
602.301
603.764
604.343
605.324
606.305
607.498
609.062
610.77
612.194
613.177
612.875
611.041
613.912
620.054
622.046
623.342
625.35
626.726
627.532
627.106
626.803
628.388
636.451
637.923
646.636
647.146
646.028
646.42
647.237
578.662
580.988
574.212
574.006
576.85
578.842
579.803
580.094
580.237
580.401
580.741
581.829
582.199
581.865
582.005
581.921
582.654
584.562
587.287
590.426
594.814
598.692
603.542
614.856
619.111
620.031
620.912
621.384
621.43
620.82
619.552
618.959
620.238
627.18
630.964
635.183
639.731
635.864
637.992
639.304
560.511
560.275
559.765
558.5
560.251
562.073
562.561
562.196
561.707
561.188
560.793
560.635
560.247
559.916
559.457
559.079
559.543
562.378
566.234
571.684
577.015
584.42
591.695
601.137
609.873
615.418
616.983
617.013
616.246
615.177
614.271
612.716
612.643
617.838
623.332
625.846
630.669
632.159
629.68
631.487
547.108
546.946
546.936
545.441
545.792
545.992
545.516
544.312
542.94
541.744
540.76
539.963
539.164
538.554
538.733
539.566
540.61
543.164
547.359
553.352
560.717
569.913
580.808
592.98
602.461
607.218
609.088
612.417
611.049
610.157
609.649
602.251
603.155
607.755
612.434
615.978
617.866
628.329
621.838
625.768
534.887
534.629
533.372
531.539
530.563
529.188
527.685
525.769
523.568
521.535
519.906
518.794
518.184
518.208
518.402
519.711
520.316
521.82
525.249
532.782
541.741
551.138
562.157
571.833
580.278
587.478
590.88
591.547
589.422
586.758
584.557
585.518
590.885
596.35
600.274
603.44
604.586
614.762
615.873
618.869
521.561
519.618
516.611
515.229
512.454
510.027
508.05
505.824
503.173
500.379
497.668
496.116
496.138
495.487
494.779
494.006
492.927
492.29
493.105
498.743
509.102
521.205
532.45
541.64
548.239
553.61
556.917
558.708
561.294
561.942
566.037
570.888
578.037
583.472
586.438
589.167
590.072
601.438
602.682
608.534
500.663
498.733
495.435
493.694
491.101
488.635
486.421
484.894
481.473
478.37
475.677
472.503
470.432
468.665
467.337
466.031
463.99
463.056
468.138
470.365
474.43
487.492
498.718
506.064
510.288
513.375
517.627
520.963
527.567
535.345
542.884
552.231
559.176
563.622
567.264
570.121
571.542
584.246
585.623
592.384
475.698
475.099
473.73
471.836
469.542
467.207
465.036
463.446
460.235
456.034
452.362
447.376
442.401
439.351
439.219
440.428
444.546
446.308
448.868
452.774
454.99
464.945
472.89
475.521
479.68
483.632
487.513
490.875
497.481
507.082
515.038
525.609
534.835
542.328
546.834
549.622
551.881
563.367
564.528
569.589
455.47
454.973
453.186
451.109
448.784
446.356
443.883
442.039
438.536
433.697
429.068
423.604
416.385
413.975
418.369
422.833
427.824
431.674
435.324
440.068
440.507
450.935
451.691
457.752
460.675
461.628
462.962
466.634
472.911
481.55
490.643
500.682
510.488
517.549
523.659
528.291
532.078
541.142
542.293
543.814
437.232
435.669
433.505
431.003
428.362
425.628
423.013
420.658
416.89
412.962
408.555
403.241
398.337
399.665
401.996
407.12
413.075
417.634
421.352
425.361
430.845
434.191
442.591
443.756
445.043
445.939
447.369
450.764
456.31
463.198
470.315
477.794
486.564
492.45
499.629
503.858
506.09
516.355
515.592
519.263
418.838
416.416
413.811
410.958
408.705
406.212
404.69
402.286
398.517
394.297
389.575
384.981
382.676
386.328
389.372
394.87
400.77
404.729
408.26
417.146
417.9
423.732
426.564
429.75
433.293
436.667
438.75
441.485
444.693
449.031
452.904
458.305
464.901
470.043
475.399
480.226
481.916
495.498
489.687
493.433
400.318
397.596
394.887
391.483
387.956
386.728
386.765
385.378
382.698
378.19
376.018
375.674
373.256
378.053
384.277
388.23
397.754
392.35
400.567
402.035
408.414
409.65
411.686
413.542
416.072
419.332
422.988
427.554
430.657
435.988
432.978
438.209
443.744
447.919
452.751
456.555
458.705
470.888
464.467
467.475
385.186
380.742
376.903
373.16
373.609
369.883
368.891
371.312
369.576
365.308
365.664
364.973
364.028
368.052
374.015
376.181
379.708
385.047
388.337
389.179
395.802
393.66
394.599
394.576
394.853
395.27
396.45
399.177
404.204
412.033
410.293
416.411
420.303
427.791
432.457
435.575
437.742
449.123
440.309
442.39
374.657
370.601
367.253
362.828
361.705
357.925
354.271
352.578
353.452
354.8
355.187
355.609
358.078
360.067
365.123
368.579
371.948
375.188
376.633
377.503
383.652
381.064
379.743
374.872
368.734
367.076
364.573
370.107
377.91
383.741
389.175
393.508
398.167
408.495
411.74
414.819
417.936
428.133
416.492
417.589
359.655
352.831
348.579
349.556
345.184
345.29
348.693
347.912
347.83
348.284
349.361
349.92
351.683
355.44
359.317
362.354
363.856
364.866
365.52
366.404
372.766
368.88
371.257
364.588
359.043
359.241
353.429
352.712
358.367
364.793
369.228
372.816
384.267
385.625
390.68
392.159
398.135
397.673
395.591
396.3
347.604
342.415
335.334
333.307
330.068
328.349
327.996
328.247
330.669
334.702
338.193
343.185
345.703
347.868
350.179
352.715
355.09
356.532
356.434
356.82
361.55
360.514
361.449
354.993
351.396
348.995
347.48
347.736
348.846
351.265
350.85
355.842
365.176
364.331
369.534
369.346
381.033
373.348
374.487
375.209
325.054
333.903
318.882
313.405
311.854
311.445
312.732
315.553
320.125
320.176
325.114
331.23
334.876
336.639
339.639
343.139
345.832
346.794
346.801
347.368
348.934
351.249
349.057
345.823
342.924
340.48
339.233
339.597
340.26
340.49
342.98
345.286
343.487
349.838
351.092
356.324
356.017
353.532
355.359
355.771
297.848
294.856
293.16
292.204
291.285
290.237
292.246
296.489
299.933
306.495
311.946
319.021
326.131
332.174
334.164
336.867
337.653
336.661
335.411
336.971
336.36
333.557
333.577
334.127
332.517
330.971
329.97
329.925
330.276
329.344
331.393
332.557
329.39
330.184
332.966
338.088
336.709
335.172
337.921
338.689
272.305
270.047
268.31
266.233
264.876
269.399
274.651
279.461
286.267
294.323
303.247
312.062
319.757
325.264
328.207
332.287
331.295
328.198
324.897
321.918
321.84
323.682
320.669
319.378
319.282
318.773
317.265
316.723
316.292
316.062
316.284
316
317.609
316.463
317.212
324.458
323.124
322.347
323.19
323.756
249.048
242.953
240.435
239.534
236.532
243.836
249.848
256.522
260.288
276.572
289.872
305.576
314.967
318.21
325.184
325.479
322.304
319.23
316.941
314.299
310.863
309.701
307.143
305.238
303.655
302.715
301.721
300.807
298.756
296.292
293.673
292.112
292.017
296.123
301.752
306.948
310.541
311.115
310.106
310.935
221.06
217.433
213.038
211.348
210.088
210.466
213.244
218.849
226.46
239.672
255.306
283.861
297.053
307.428
316.735
313.636
311.394
303.596
301.477
299.888
295.381
291.256
288.831
287.097
284.942
282.954
281.064
278.646
273.786
265.637
257.094
252.892
262.891
276.555
283.063
293.733
303.91
299.062
299.307
300.33
172.411
167.366
165.459
162.249
162.986
168.134
175.774
182.338
189.939
202.053