/*--------------------------------*- C++ -*----------------------------------*\
  =========                 |
  \\      /  F ield         | OpenFOAM: The Open Source CFD Toolbox
   \\    /   O peration     | Website:  https://openfoam.org
    \\  /    A nd           | Version:  8
     \\/     M anipulation  |
\*---------------------------------------------------------------------------*/
FoamFile
{
    version     2.0;
    format      ascii;
    class       volVectorField;
    location    "7.2";
    object      U;
}
// * * * * * * * * * * * * * * * * * * * * * * * * * * * * * * * * * * * * * //

dimensions      [0 1 -1 0 0 0 0];

internalField   nonuniform List<vector> 
9150
(
(0.00481793 -0.0784996 0)
(0.0131344 -0.0973441 0)
(0.0109054 -0.104493 0)
(0.00936853 -0.107524 0)
(0.00313268 -0.109162 0)
(-0.00186915 -0.109589 0)
(-0.00854064 -0.108092 0)
(-0.0108933 -0.104616 0)
(-0.0130915 -0.0974504 0)
(-0.00485871 -0.0785646 0)
(0.00584745 -0.0919711 0)
(0.00854834 -0.100453 0)
(0.00741249 -0.102282 0)
(0.00423874 -0.104961 0)
(0.000965447 -0.105519 0)
(-0.00237116 -0.105181 0)
(-0.00444687 -0.104336 0)
(-0.00740295 -0.102294 0)
(-0.00851302 -0.100489 0)
(-0.00584948 -0.0920078 0)
(0.00170016 -0.0954444 0)
(0.00455635 -0.0989463 0)
(0.00378543 -0.100939 0)
(0.00342219 -0.10169 0)
(0.001467 -0.1024 0)
(-0.000499499 -0.102709 0)
(-0.00317576 -0.101902 0)
(-0.00372247 -0.101095 0)
(-0.004536 -0.0989812 0)
(-0.00170531 -0.0954716 0)
(0.00171921 -0.0983999 0)
(0.00246306 -0.100374 0)
(0.0021882 -0.100258 0)
(0.00127929 -0.10089 0)
(0.000280635 -0.100922 0)
(-0.000859514 -0.10087 0)
(-0.00140305 -0.10063 0)
(-0.00221571 -0.100171 0)
(-0.00243627 -0.100399 0)
(-0.00171337 -0.0984124 0)
(0.000173527 -0.0994838 0)
(0.000717405 -0.0995736 0)
(0.000505567 -0.0999727 0)
(0.00071407 -0.0998659 0)
(0.000240821 -0.1001 0)
(-0.000147173 -0.100104 0)
(-0.000614668 -0.0999283 0)
(-0.000436041 -0.100094 0)
(-0.000707408 -0.0995878 0)
(-0.000170479 -0.0994829 0)
(0.0747776 -0.194156 3.18533e-26)
(0.0492033 -0.184389 0)
(0.0296853 -0.175542 0)
(0.0149581 -0.175278 0)
(0.00389287 -0.175926 0)
(-0.00528162 -0.175512 0)
(-0.0158517 -0.174164 0)
(-0.0299572 -0.175801 0)
(-0.0493697 -0.184346 0)
(-0.0747804 -0.194035 -3.16098e-26)
(0.0584365 -0.146646 7.72234e-27)
(0.0485528 -0.14657 0)
(0.0287502 -0.156364 0)
(0.0213408 -0.155852 0)
(0.00559193 -0.155199 0)
(-0.00421709 -0.15566 0)
(-0.0206002 -0.157433 0)
(-0.0284346 -0.156471 0)
(-0.0486293 -0.146538 0)
(-0.0584254 -0.146627 -7.86885e-27)
(0.0474114 -0.121297 3.61582e-27)
(0.0429389 -0.131188 0)
(0.0293119 -0.133537 0)
(0.0166929 -0.138323 0)
(0.00548673 -0.140572 0)
(-0.0067199 -0.139966 0)
(-0.0175039 -0.136655 0)
(-0.0297255 -0.133459 0)
(-0.0429753 -0.131172 0)
(-0.0474125 -0.121257 -3.58023e-27)
(0.0369798 -0.0992548 6.83951e-27)
(0.0394018 -0.110169 0)
(0.0230097 -0.120539 0)
(0.0180475 -0.123939 0)
(0.00557351 -0.125283 0)
(-0.00370665 -0.125358 0)
(-0.0170259 -0.125631 0)
(-0.0224448 -0.120437 0)
(-0.0392783 -0.110131 0)
(-0.0369431 -0.0992296 -6.76241e-27)
(0.0241758 -0.0817243 -1.73215e-26)
(0.0276925 -0.101307 -2.08323e-26)
(0.0194965 -0.108265 -5.17691e-27)
(0.0100335 -0.114807 -4.60471e-27)
(0.00387877 -0.117276 -2.3642e-28)
(-0.00526797 -0.11686 -2.21987e-28)
(-0.0112609 -0.113762 -4.49662e-27)
(-0.0200908 -0.108487 -5.24752e-27)
(-0.0277976 -0.101324 -2.09445e-26)
(-0.0242621 -0.081724 -1.73824e-26)
(0.0183021 -0.145275 0)
(0.0122975 -0.206557 0)
(0.0217678 -0.217916 0)
(0.00857738 -0.223868 0)
(0.00800983 -0.226725 0)
(-0.00720143 -0.226227 0)
(-0.0134808 -0.222335 0)
(-0.0240862 -0.216101 0)
(-0.0144567 -0.204556 0)
(-0.0197181 -0.146181 0)
(0.0164258 -0.167068 0)
(0.00128305 -0.200283 0)
(0.014553 -0.209915 0)
(0.00152957 -0.214433 0)
(0.00340628 -0.215518 0)
(-0.00695941 -0.215158 0)
(-0.00317156 -0.213884 0)
(-0.0153924 -0.209231 0)
(-0.00189151 -0.19882 0)
(-0.0165372 -0.165309 0)
(0.0141192 -0.173047 0)
(-0.00466728 -0.204392 0)
(0.0102868 -0.209502 0)
(-0.000903824 -0.209769 0)
(0.00383813 -0.210183 0)
(-0.00228755 -0.210584 0)
(0.000695976 -0.210042 0)
(-0.010729 -0.208929 0)
(0.00439137 -0.203558 0)
(-0.0142978 -0.172204 0)
(0.0188638 -0.195786 0)
(-0.00735101 -0.205036 0)
(0.0090519 -0.211092 0)
(-0.000962707 -0.207226 0)
(-0.00011042 -0.207053 0)
(-0.00187811 -0.206436 0)
(-0.000305019 -0.205663 0)
(-0.00952123 -0.210496 0)
(0.00715612 -0.204462 0)
(-0.019047 -0.195374 0)
(0.0367541 -0.216996 0)
(0.0103912 -0.203815 0)
(0.0157201 -0.20207 0)
(0.0122309 -0.195088 0)
(0.00258509 -0.191792 0)
(-0.00148662 -0.192261 0)
(-0.012042 -0.196377 0)
(-0.0157417 -0.201866 0)
(-0.0105313 -0.203716 0)
(-0.0366206 -0.216647 0)
(0.0698164 -0.0127898 0)
(0.0778939 -0.0251065 0)
(0.0957363 -0.0352973 0)
(0.1172 -0.0313334 0)
(0.136266 -0.0146768 0)
(0.14266 -0.0012675 0)
(0.140712 0.004287 0)
(0.140943 0.00884792 0)
(0.141421 0.0192883 0)
(0.134419 0.035059 0)
(0.104751 -0.00265563 0)
(0.106046 -0.0393514 0)
(0.116526 -0.0553974 0)
(0.121953 -0.054025 0)
(0.12967 -0.0342347 0)
(0.135573 -0.00793964 0)
(0.137914 -0.00407156 0)
(0.144893 -0.00764622 0)
(0.155787 -0.00348874 0)
(0.165826 0.0133772 0)
(0.102231 -0.00235773 0)
(0.0925504 -0.0372401 0)
(0.0867562 -0.0498715 0)
(0.0898194 -0.0483352 0)
(0.0939062 -0.0345531 0)
(0.111942 -0.0215745 0)
(0.129112 -0.0193398 0)
(0.136087 -0.0198998 0)
(0.140167 -0.0149936 0)
(0.14721 0.000882131 0)
(0.0388771 -0.0048893 0)
(0.0549815 -0.0333716 0)
(0.067891 -0.0473096 0)
(0.0866298 -0.0707622 0)
(0.0970822 -0.0771195 0)
(0.106855 -0.06838 0)
(0.121005 -0.0463718 0)
(0.125615 -0.0311383 0)
(0.129843 -0.022157 0)
(0.129917 -0.00562166 0)
(0.0382184 -0.0398027 0)
(0.061332 -0.0877018 0)
(0.0821428 -0.105048 0)
(0.0991672 -0.106541 0)
(0.108607 -0.0978395 0)
(0.115495 -0.0835177 0)
(0.124641 -0.061749 0)
(0.123021 -0.0517364 0)
(0.128348 -0.0360666 0)
(0.128845 -0.00382401 0)
(0.0284879 -0.103571 0)
(0.0429065 -0.129847 0)
(0.0582544 -0.137765 0)
(0.067904 -0.133036 0)
(0.0746851 -0.120781 0)
(0.0744645 -0.0967106 0)
(0.0763486 -0.0688623 0)
(0.0582196 -0.0621077 0)
(0.0481471 -0.0317891 0)
(0.0481555 0.0484887 0)
(0.0199191 -0.130823 0)
(0.024248 -0.144998 0)
(0.0219094 -0.143933 0)
(0.0157728 -0.133161 0)
(-0.000714052 -0.0986803 0)
(-0.0215428 -0.0441105 0)
(-0.0361171 -0.00911397 0)
(-0.0741863 -0.00838586 0)
(-0.0894167 0.0325333 0)
(-0.0905221 0.0626189 0)
(0.0174668 -0.134727 0)
(-0.00125511 -0.128624 0)
(-0.0211948 -0.102437 0)
(-0.0433775 -0.0740496 0)
(-0.0718579 -0.0429505 0)
(-0.0844384 -0.00974035 0)
(-0.0951686 0.0143427 0)
(-0.116541 0.025134 0)
(-0.119903 0.0367915 0)
(-0.116519 0.0452016 0)
(-0.000915431 -0.0973367 0)
(-0.026032 -0.0797324 0)
(-0.0517393 -0.0692607 0)
(-0.0747766 -0.04207 0)
(-0.0906375 -0.00613073 0)
(-0.0947678 0.00693914 0)
(-0.101376 0.0328329 0)
(-0.107955 0.0396685 0)
(-0.109767 0.0379658 0)
(-0.106275 0.0322354 0)
(-0.0532847 -0.0558094 0)
(-0.0739023 -0.0375334 0)
(-0.0891412 -0.0185516 0)
(-0.0999219 -0.00859218 0)
(-0.106935 -0.00266075 0)
(-0.109974 0.00877572 0)
(-0.112496 0.03855 0)
(-0.110895 0.0420643 0)
(-0.109515 0.0351961 0)
(-0.109231 0.0297444 0)
(-0.118889 -0.0233644 0)
(-0.134645 -0.0164653 0)
(-0.14064 -0.00426663 0)
(-0.146755 0.0076405 0)
(-0.155427 0.0145599 0)
(-0.161694 0.023403 0)
(-0.156267 0.0359894 0)
(-0.146327 0.0370928 0)
(-0.141821 0.0331932 0)
(-0.140774 0.0323725 0)
(-0.181059 -6.29435e-05 0)
(-0.189977 0.00452563 0)
(-0.194356 0.0126703 0)
(-0.194932 0.0144935 0)
(-0.193973 0.015087 0)
(-0.189277 0.0164217 0)
(-0.180962 0.0169345 0)
(-0.172947 0.018169 0)
(-0.166642 0.0217184 0)
(-0.162568 0.0250647 0)
(-0.197593 0.0121202 0)
(-0.203526 0.0128171 0)
(-0.205682 0.011985 0)
(-0.205928 0.00992265 0)
(-0.202077 0.00624012 0)
(-0.193693 0.00300283 0)
(-0.183745 0.00336392 0)
(-0.17581 0.00666008 0)
(-0.169395 0.0110379 0)
(-0.162669 0.0139102 0)
(-0.192709 0.0237062 0)
(-0.19575 0.0205757 0)
(-0.197632 0.0157955 0)
(-0.196696 0.00406074 0)
(-0.189002 -0.013425 0)
(-0.179095 -0.02238 0)
(-0.168768 -0.0193971 0)
(-0.160406 -0.0106469 0)
(-0.152906 -0.00438736 0)
(-0.144953 -0.00481762 0)
(-0.172549 0.0295253 0)
(-0.169613 0.0217959 0)
(-0.164519 0.0115979 0)
(-0.160203 -0.00619353 0)
(-0.157399 -0.0278355 0)
(-0.156496 -0.0339937 0)
(-0.153925 -0.0343959 0)
(-0.147327 -0.0309689 0)
(-0.138307 -0.0254797 0)
(-0.128678 -0.0248505 0)
(-0.141939 0.0144548 0)
(-0.13265 0.00425098 0)
(-0.122926 -0.00327788 0)
(-0.115171 -0.00853855 0)
(-0.112498 -0.0157869 0)
(-0.109361 -0.0298539 0)
(-0.104263 -0.0361748 0)
(-0.100288 -0.0363575 0)
(-0.0989648 -0.0340988 0)
(-0.100194 -0.0338418 0)
(-0.112957 -0.00188424 0)
(-0.105984 -0.0130246 0)
(-0.100564 -0.0224877 0)
(-0.0952887 -0.0297895 0)
(-0.087154 -0.0370286 0)
(-0.0800936 -0.0471683 0)
(-0.0781669 -0.0489562 0)
(-0.0753942 -0.0447429 0)
(-0.0724295 -0.031727 0)
(-0.0712077 -0.0273266 0)
(-0.0839901 -0.0128938 0)
(-0.0752239 -0.0251141 0)
(-0.0706719 -0.0319268 0)
(-0.069869 -0.0361042 0)
(-0.0686194 -0.0443321 0)
(-0.0661368 -0.0491125 0)
(-0.0654354 -0.0496589 0)
(-0.0652679 -0.0483415 0)
(-0.0639077 -0.0427724 0)
(-0.0585014 -0.0372927 0)
(-0.0548934 -0.029517 0)
(-0.0516611 -0.0391947 0)
(-0.0501528 -0.0384451 0)
(-0.0521843 -0.0308018 0)
(-0.0586397 -0.0384706 0)
(-0.0598533 -0.051724 0)
(-0.0586936 -0.0524417 0)
(-0.0565965 -0.0496516 0)
(-0.0531392 -0.0463064 0)
(-0.0491905 -0.0465803 0)
(-0.0255891 -0.0141392 0)
(-0.0345263 -0.0290315 0)
(-0.0410863 -0.0307454 0)
(-0.0454556 -0.0209367 0)
(-0.0458659 -0.0294321 0)
(-0.0461811 -0.0503687 0)
(-0.0455035 -0.0539649 0)
(-0.043393 -0.0541103 0)
(-0.0390341 -0.0538758 0)
(-0.0339364 -0.0528665 0)
(-0.0445231 -0.0120927 0)
(-0.0474841 -0.0182927 0)
(-0.0485941 -0.0207468 0)
(-0.0475127 -0.0220181 0)
(-0.043482 -0.0355608 0)
(-0.0400315 -0.0536037 0)
(-0.0367807 -0.0620534 0)
(-0.0303837 -0.0655936 0)
(-0.0232228 -0.0685094 0)
(-0.0174777 -0.0668025 0)
(-0.0571705 -0.00921914 0)
(-0.0537353 -0.0169162 0)
(-0.0516066 -0.0217614 0)
(-0.0472792 -0.0299965 0)
(-0.0406846 -0.0456335 0)
(-0.0348666 -0.0596389 0)
(-0.028957 -0.0706026 0)
(-0.0220851 -0.078188 0)
(-0.0180142 -0.0787381 0)
(-0.0145508 -0.0726089 0)
(-0.0705783 -0.0293868 0)
(-0.0645195 -0.0325487 0)
(-0.0586179 -0.0355634 0)
(-0.0531443 -0.0451728 0)
(-0.0491876 -0.0600571 0)
(-0.0438359 -0.0785791 0)
(-0.0366879 -0.0901819 0)
(-0.0338089 -0.0923345 0)
(-0.0326783 -0.0879919 0)
(-0.0334384 -0.0777741 0)
(-0.0731476 -0.0376288 0)
(-0.0690776 -0.039077 0)
(-0.0668892 -0.0402541 0)
(-0.0650865 -0.0504475 0)
(-0.0607771 -0.0720334 0)
(-0.058297 -0.0869689 0)
(-0.0610719 -0.0897365 0)
(-0.0680138 -0.0855899 0)
(-0.0738487 -0.0759738 0)
(-0.0753034 -0.0647845 0)
(-0.0846924 -0.0493281 0)
(-0.0773447 -0.0468596 0)
(-0.0736747 -0.0466105 0)
(-0.0688227 -0.0567283 0)
(-0.0697326 -0.0693738 0)
(-0.0764282 -0.0738362 0)
(-0.0873315 -0.0708454 0)
(-0.0961963 -0.0663521 0)
(-0.100397 -0.0668053 0)
(-0.103929 -0.0633435 0)
(-0.0938157 -0.0671642 0)
(-0.079648 -0.060877 0)
(-0.0738663 -0.0547917 0)
(-0.0725894 -0.0537716 0)
(-0.0772206 -0.0554752 0)
(-0.0859305 -0.0549551 0)
(-0.0962658 -0.0540909 0)
(-0.106448 -0.0548472 0)
(-0.112646 -0.0571591 0)
(-0.120137 -0.0474589 0)
(-0.0984724 -0.101174 0)
(-0.0811431 -0.08871 0)
(-0.069177 -0.0625261 0)
(-0.0676014 -0.0462856 0)
(-0.0726976 -0.0383615 0)
(-0.0815213 -0.0335025 0)
(-0.0904114 -0.0332943 0)
(-0.0995037 -0.0354552 0)
(-0.111654 -0.041344 0)
(-0.119854 -0.0371585 0)
(-0.102653 -0.139346 0)
(-0.0862223 -0.131435 0)
(-0.0735505 -0.0893275 0)
(-0.066246 -0.0479859 0)
(-0.067685 -0.032459 0)
(-0.0685737 -0.0215794 0)
(-0.0761556 -0.0162038 0)
(-0.0887976 -0.0132452 0)
(-0.101036 -0.0186539 0)
(-0.114026 -0.0259683 0)
(-0.0933205 -0.153155 0)
(-0.0854039 -0.149204 0)
(-0.0769385 -0.115577 0)
(-0.071344 -0.0537111 0)
(-0.0695058 -0.0318783 0)
(-0.0662098 -0.0128634 0)
(-0.069182 0.00674641 0)
(-0.0769934 0.0129585 0)
(-0.0892305 0.00686824 0)
(-0.104318 -0.00397519 0)
(-0.0581667 -0.142986 0)
(-0.0669933 -0.149961 0)
(-0.0746679 -0.124345 0)
(-0.070769 -0.060725 0)
(-0.0685853 -0.038065 0)
(-0.0648359 -0.0232719 0)
(-0.0573594 0.0104709 0)
(-0.0605272 0.0285378 0)
(-0.0706657 0.030438 0)
(-0.0935081 0.0178977 0)
(-0.0381471 -0.120165 0)
(-0.0493743 -0.118287 0)
(-0.0620529 -0.117014 0)
(-0.0744081 -0.0580111 0)
(-0.0673804 -0.0388831 0)
(-0.0706395 -0.0308464 0)
(-0.0534386 0.000597149 0)
(-0.0401837 0.0445736 0)
(-0.0408376 0.0652971 0)
(-0.063007 0.056067 0)
(-0.032416 -0.107693 0)
(-0.042756 -0.0807431 0)
(-0.0624624 -0.0780913 0)
(-0.0741277 -0.051324 0)
(-0.0702298 -0.0453234 0)
(-0.0647336 -0.0577364 0)
(-0.0487593 -0.0522116 0)
(-0.0260761 -0.00982163 0)
(-0.00578083 0.0714343 0)
(-0.00990452 0.106975 0)
(0.00593463 -0.0918926 0)
(0.00188064 -0.0698041 0)
(-0.0060318 -0.0590957 0)
(-0.0199737 -0.0505468 0)
(-0.00986063 -0.0508168 0)
(-0.00864895 -0.0555187 0)
(-0.0192729 -0.0579575 0)
(-0.0300196 -0.0452079 0)
(-0.00707964 0.0352758 0)
(0.0135225 0.110872 0)
(0.00803713 -0.0892782 0)
(0.00785874 -0.058147 0)
(0.016882 -0.0413719 0)
(0.0209683 -0.0479537 0)
(0.0155603 -0.0709344 0)
(0.0158714 -0.05019 0)
(0.0214546 -0.0262055 0)
(0.0108691 -0.0341325 0)
(0.00191494 -0.0198734 0)
(0.0210488 0.0816631 0)
(0.0338244 -0.104631 0)
(0.0350973 -0.0978729 0)
(0.0501211 -0.0739586 0)
(0.0555943 -0.0448571 0)
(0.0554905 -0.0365501 0)
(0.0403537 -0.0492789 0)
(0.036572 -0.0430907 0)
(0.0368244 0.000654083 0)
(0.0135659 0.00328806 0)
(0.0129479 0.0467607 0)
(0.134762 -0.0469739 0)
(0.0960523 -0.0838641 0)
(0.0817134 -0.0831063 0)
(0.0775607 -0.0611191 0)
(0.0760709 -0.0328965 0)
(0.0724196 -0.0277806 0)
(0.0543344 -0.0209999 0)
(0.0524314 -0.00107313 0)
(0.0511065 0.0422719 0)
(0.0305993 0.0507584 0)
(0.26221 0.0150581 0)
(0.219123 0.000646371 0)
(0.161927 -0.0251751 0)
(0.132251 -0.0360295 0)
(0.119325 -0.018111 0)
(0.107613 0.00447043 0)
(0.0894252 0.00179892 0)
(0.0754853 0.00884558 0)
(0.0773092 0.0342158 0)
(0.0708184 0.0776058 0)
(0.261504 0.0774174 0)
(0.238174 0.0863496 0)
(0.218954 0.0718272 0)
(0.187364 0.021334 0)
(0.16766 0.00599983 0)
(0.152947 0.0251975 0)
(0.134673 0.0457291 0)
(0.105595 0.0368864 0)
(0.0937829 0.0440682 0)
(0.0919104 0.0767225 0)
(0.257942 0.0795282 0)
(0.26162 0.0827432 0)
(0.263019 0.0833343 0)
(0.254967 0.0717146 0)
(0.232474 0.0573849 0)
(0.207618 0.0690761 0)
(0.181617 0.0983568 0)
(0.152638 0.0969575 0)
(0.110654 0.0765469 0)
(0.0992552 0.0863091 0)
(0.24644 0.0878379 0)
(0.242313 0.0887774 0)
(0.241724 0.0869016 0)
(0.238045 0.0818212 0)
(0.224921 0.0837026 0)
(0.209348 0.106059 0)
(0.187056 0.146542 0)
(0.164931 0.159832 0)
(0.134528 0.141013 0)
(0.104287 0.113841 0)
(0.213666 0.0668959 0)
(0.216207 0.0780701 0)
(0.208064 0.0901745 0)
(0.202365 0.104867 0)
(0.197255 0.128784 0)
(0.185994 0.147706 0)
(0.179009 0.179935 0)
(0.167254 0.198318 0)
(0.152445 0.192849 0)
(0.111035 0.159376 0)
(0.131354 0.0859651 0)
(0.123915 0.0989751 0)
(0.12565 0.0998033 0)
(0.14097 0.101826 0)
(0.160223 0.126812 0)
(0.165068 0.157332 0)
(0.166279 0.185639 0)
(0.167095 0.211494 0)
(0.148627 0.235299 0)
(0.118907 0.230822 0)
(0.0743264 0.083637 0)
(0.0847264 0.082098 0)
(0.107243 0.0532586 0)
(0.127352 0.0470799 0)
(0.146145 0.0739798 0)
(0.163292 0.138793 0)
(0.169754 0.195815 0)
(0.148959 0.24017 0)
(0.132393 0.272552 0)
(0.123658 0.278751 0)
(0.0734781 0.0117397 0)
(0.0964525 0.0154936 0)
(0.111308 0.0251347 0)
(0.111699 0.0338239 0)
(0.114655 0.0529211 0)
(0.135826 0.112114 0)
(0.153509 0.21958 0)
(0.150516 0.275677 0)
(0.13569 0.293269 0)
(0.123602 0.298602 0)
(0.103126 -0.00233645 0)
(0.10322 0.00563949 0)
(0.105041 0.0202195 0)
(0.105714 0.0290522 0)
(0.101808 0.0401374 0)
(0.10538 0.0783868 0)
(0.120721 0.195235 0)
(0.126884 0.280765 0)
(0.123371 0.306481 0)
(0.123727 0.308964 0)
(0.150994 0.0018441 0)
(0.146618 0.00894184 0)
(0.135044 0.0282167 0)
(0.124778 0.0430196 0)
(0.105725 0.0511496 0)
(0.0932245 0.0847201 0)
(0.0944709 0.177161 0)
(0.0997299 0.266969 0)
(0.107946 0.300449 0)
(0.119787 0.30494 0)
(0.130177 -0.00195896 0)
(0.128326 0.023311 0)
(0.123755 0.0476389 0)
(0.115913 0.0730836 0)
(0.103469 0.085968 0)
(0.0859962 0.10809 0)
(0.0811392 0.167882 0)
(0.0912177 0.232345 0)
(0.100115 0.269086 0)
(0.116765 0.274353 0)
(0.0609495 0.0051403 0)
(0.0734827 0.0260563 0)
(0.0848867 0.0579522 0)
(0.0925597 0.0832503 0)
(0.0929746 0.102926 0)
(0.080464 0.13356 0)
(0.0730064 0.176353 0)
(0.0815607 0.21337 0)
(0.0946441 0.235822 0)
(0.108564 0.237853 0)
(0.0527297 -0.0331474 0)
(0.056765 -0.0177574 0)
(0.0677917 0.0235634 0)
(0.069936 0.0724978 0)
(0.0727863 0.116696 0)
(0.0713923 0.149363 0)
(0.0668475 0.173725 0)
(0.0690396 0.194875 0)
(0.0782279 0.21544 0)
(0.08731 0.230427 0)
(0.0494482 -0.0221618 0)
(0.0424122 -0.00805809 0)
(0.0385139 0.0238029 0)
(0.0429141 0.0690143 0)
(0.0433324 0.103212 0)
(0.0470123 0.148301 0)
(0.0503349 0.180771 0)
(0.0404277 0.199662 0)
(0.0412484 0.216369 0)
(0.042092 0.239311 0)
(0.0342953 -0.00393639 0)
(0.0369478 0.00513048 0)
(0.0273524 0.03568 0)
(0.0183827 0.0783965 0)
(0.00774398 0.117708 0)
(0.00492435 0.144511 0)
(0.0143547 0.178714 0)
(0.0190849 0.20286 0)
(0.0251608 0.21188 0)
(0.0272968 0.2376 0)
(0.038707 -0.0281462 0)
(0.0532873 0.00462445 0)
(0.0435031 0.0709248 0)
(-0.000800627 0.110288 0)
(-0.00450537 0.115967 0)
(0.000620327 0.128776 0)
(0.0176632 0.157436 0)
(0.0195139 0.189757 0)
(0.0147724 0.198959 0)
(0.0190304 0.222414 0)
(0.0493838 -0.0588177 0)
(0.0592685 -0.0276826 0)
(0.074722 0.120696 0)
(0.0182739 0.167461 0)
(0.00628852 0.111212 0)
(0.020222 0.0908304 0)
(0.0273257 0.138279 0)
(0.0217236 0.198868 0)
(0.0112427 0.203662 0)
(0.0141827 0.207638 0)
(0.0297607 -0.0624743 0)
(0.000128267 -0.0345694 0)
(0.0440801 0.161143 0)
(0.0577315 0.207264 0)
(0.057779 0.141882 0)
(0.0385837 0.0991161 0)
(0.0309678 0.14496 0)
(0.0449826 0.209236 0)
(0.0459641 0.214299 0)
(0.040404 0.210019 0)
(0.0295659 -0.0208347 0)
(-0.0131268 -0.042457 0)
(-0.0110569 0.0563992 0)
(0.0362975 0.141127 0)
(0.0675394 0.1227 0)
(0.0829587 0.13504 0)
(0.0783936 0.142236 0)
(0.0860214 0.180014 0)
(0.0987262 0.218338 0)
(0.108942 0.220243 0)
(0.148563 0.0965996 0)
(0.111905 0.074719 0)
(0.0639815 0.0471879 0)
(0.0631574 0.0560493 0)
(0.0717527 0.0682692 0)
(0.08401 0.110053 0)
(0.0919759 0.122743 0)
(0.0955261 0.149453 0)
(0.103454 0.176212 0)
(0.117534 0.198955 0)
(0.225126 0.103915 0)
(0.229004 0.105654 0)
(0.225532 0.106069 0)
(0.212887 0.099068 0)
(0.199318 0.0973572 0)
(0.190169 0.109126 0)
(0.184226 0.130972 0)
(0.179836 0.14542 0)
(0.180914 0.159926 0)
(0.189744 0.173407 0)
(0.261619 0.0875879 0)
(0.270151 0.084419 0)
(0.275467 0.0925068 0)
(0.279383 0.0962027 0)
(0.278681 0.104617 0)
(0.277117 0.12145 0)
(0.290545 0.130455 0)
(0.299954 0.144612 0)
(0.306311 0.168983 0)
(0.313067 0.170298 0)
(0.28033 0.0732016 0)
(0.289831 0.0809918 0)
(0.294354 0.0879697 0)
(0.297329 0.0943171 0)
(0.297448 0.101145 0)
(0.298054 0.103757 0)
(0.303429 0.104876 0)
(0.31213 0.113402 0)
(0.327487 0.122537 0)
(0.34666 0.112614 0)
(0.283548 0.0420243 0)
(0.307982 0.0586082 0)
(0.322176 0.0764847 0)
(0.32758 0.0931143 0)
(0.333119 0.103292 0)
(0.337809 0.101269 0)
(0.342022 0.0971387 0)
(0.348803 0.0950423 0)
(0.358399 0.0951354 0)
(0.37008 0.0953979 0)
(0.26062 -0.0244524 0)
(0.288955 0.011467 0)
(0.30934 0.0474572 0)
(0.325584 0.0689478 0)
(0.341381 0.078039 0)
(0.356921 0.0810332 0)
(0.367793 0.0815201 0)
(0.37601 0.080156 0)
(0.387556 0.0833258 0)
(0.393082 0.0839697 0)
(0.161632 -0.0923673 0)
(0.200222 -0.046008 0)
(0.232884 -0.00288754 0)
(0.264212 0.0303982 0)
(0.299933 0.0444483 0)
(0.329592 0.0576788 0)
(0.350306 0.0661981 0)
(0.364596 0.0552946 0)
(0.388552 0.0545116 0)
(0.418904 0.0633912 0)
(0.00841502 -0.181061 0)
(0.042675 -0.127148 0)
(0.0928574 -0.0911433 0)
(0.135456 -0.0749937 0)
(0.182249 -0.053584 0)
(0.218958 -0.0193591 0)
(0.248187 0.00476724 0)
(0.272448 -0.0100863 0)
(0.292947 -0.0027564 0)
(0.311634 0.00439616 0)
(-0.123901 -0.226207 0)
(-0.0774924 -0.188644 0)
(-0.0109084 -0.154547 0)
(0.0417556 -0.141815 0)
(0.0966515 -0.11296 0)
(0.143569 -0.0721765 0)
(0.191631 -0.0518058 0)
(0.220478 -0.0445324 0)
(0.242022 -0.0363884 0)
(0.271537 -0.0519966 0)
(-0.173528 -0.428865 0)
(-0.0935264 -0.371702 0)
(-0.0166729 -0.347245 0)
(0.056974 -0.317882 0)
(0.105539 -0.295534 0)
(0.165093 -0.241775 0)
(0.201057 -0.180319 0)
(0.204715 -0.143221 0)
(0.221728 -0.138946 0)
(0.246077 -0.123024 0)
(-0.260859 -0.67247 0)
(-0.156154 -0.561964 0)
(-0.0702131 -0.502867 0)
(-0.00621773 -0.442531 0)
(0.0111352 -0.402418 0)
(0.0620392 -0.298233 0)
(0.0839832 -0.0872112 0)
(0.0398002 -0.0480456 0)
(0.017838 -0.0911024 0)
(-0.052714 -0.0226647 0)
(-0.28026 -0.782847 0)
(-0.224518 -0.761907 0)
(-0.151549 -0.618193 0)
(-0.112256 -0.474918 0)
(-0.109896 -0.395106 0)
(-0.113655 -0.279355 0)
(-0.0430027 -0.0484398 0)
(-0.0782593 -0.0210105 0)
(-0.105691 -0.0144563 0)
(-0.118389 0.0459443 0)
(-0.250393 -0.836492 0)
(-0.223145 -0.848234 0)
(-0.182675 -0.752766 0)
(-0.146379 -0.504692 0)
(-0.148983 -0.379173 0)
(-0.159302 -0.326184 0)
(-0.137812 -0.112181 0)
(-0.0963891 -0.0256754 0)
(-0.139038 0.00293947 0)
(-0.143149 0.0347211 0)
(-0.198065 -0.838507 0)
(-0.193527 -0.881981 0)
(-0.178327 -0.807117 0)
(-0.159347 -0.56087 0)
(-0.165894 -0.364396 0)
(-0.178957 -0.315938 0)
(-0.177159 -0.236826 0)
(-0.096256 -0.0175357 0)
(-0.10557 0.0368999 0)
(-0.131227 0.060381 0)
(-0.145199 -0.78598 0)
(-0.144096 -0.868731 0)
(-0.149488 -0.826688 0)
(-0.151754 -0.567535 0)
(-0.155746 -0.342858 0)
(-0.17464 -0.300146 0)
(-0.188452 -0.2734 0)
(-0.158788 -0.124253 0)
(-0.0809565 0.0633721 0)
(-0.0987276 0.118877 0)
(-0.125448 -0.757978 0)
(-0.121706 -0.84767 0)
(-0.131016 -0.818322 0)
(-0.155293 -0.546664 0)
(-0.17631 -0.296293 0)
(-0.196925 -0.268811 0)
(-0.208316 -0.266921 0)
(-0.202035 -0.223441 0)
(-0.167507 -0.0651414 0)
(-0.053306 0.104817 0)
(-0.112937 -0.748309 0)
(-0.11948 -0.826827 0)
(-0.134187 -0.783815 0)
(-0.160831 -0.464389 0)
(-0.201717 -0.238439 0)
(-0.223258 -0.249015 0)
(-0.228862 -0.260836 0)
(-0.226823 -0.23892 0)
(-0.219735 -0.18691 0)
(-0.168327 -0.0606076 0)
(-0.124411 -0.717216 0)
(-0.14914 -0.791894 0)
(-0.169201 -0.749151 0)
(-0.168112 -0.440967 0)
(-0.171019 -0.191382 0)
(-0.207721 -0.220233 0)
(-0.221234 -0.247421 0)
(-0.226426 -0.243322 0)
(-0.232577 -0.208014 0)
(-0.230866 -0.155296 0)
(-0.146394 -0.643552 0)
(-0.183402 -0.736879 0)
(-0.207063 -0.712986 0)
(-0.18277 -0.456994 0)
(-0.144339 -0.165347 0)
(-0.157467 -0.161578 0)
(-0.187184 -0.208463 0)
(-0.209526 -0.217882 0)
(-0.239678 -0.203988 0)
(-0.243291 -0.168726 0)
(-0.188889 -0.527499 0)
(-0.248795 -0.672564 0)
(-0.264175 -0.687181 0)
(-0.235104 -0.544016 0)
(-0.151432 -0.193479 0)
(-0.139303 -0.134978 0)
(-0.157345 -0.139872 0)
(-0.185929 -0.161942 0)
(-0.215689 -0.16704 0)
(-0.246203 -0.161727 0)
(-0.216243 -0.412777 0)
(-0.296442 -0.630945 0)
(-0.299428 -0.695829 0)
(-0.276974 -0.654698 0)
(-0.169486 -0.36916 0)
(-0.119222 -0.171061 0)
(-0.12224 -0.101853 0)
(-0.147301 -0.0959505 0)
(-0.175647 -0.0977534 0)
(-0.217562 -0.0891662 0)
(-0.187084 -0.236854 0)
(-0.333171 -0.591491 0)
(-0.323278 -0.737286 0)
(-0.308966 -0.768817 0)
(-0.209299 -0.66068 0)
(-0.0909205 -0.212757 0)
(-0.0799193 -0.0296586 0)
(-0.11435 -0.0115595 0)
(-0.142433 -0.0325943 0)
(-0.147523 -0.061241 0)
(-0.0109149 0.0196304 0)
(-0.104803 -0.240101 0)
(-0.266022 -0.736725 0)
(-0.26277 -0.830696 0)
(-0.221862 -0.782102 0)
(-0.167211 -0.531181 0)
(-0.071816 -0.023121 0)
(-0.0632671 -0.00814077 0)
(-0.0770833 -0.016824 0)
(-0.0719592 -0.0486434 0)
(0.0503899 -0.0350634 0)
(0.0878064 0.0450021 0)
(-0.122736 -0.446831 0)
(-0.146124 -0.882138 0)
(-0.0922094 -0.849932 0)
(-0.101447 -0.778783 0)
(-0.00219958 -0.116799 0)
(0.0619376 0.0517523 0)
(0.0194487 0.025035 0)
(0.0208169 -0.0305255 0)
(0.215288 -0.0658382 0)
(0.2156 -0.0386138 0)
(0.0898804 0.0857171 0)
(-0.0492354 -0.836376 0)
(-0.0300913 -0.83085 0)
(-0.0357402 -0.809117 0)
(-0.0129818 -0.525244 0)
(0.198064 -0.038793 0)
(0.0683753 0.0424054 0)
(0.0519371 -0.00602544 0)
(0.0467101 -0.16909 0)
(-0.0746993 0.163658 0)
(-0.0740365 0.225489 0)
(-0.00986902 -0.856727 0)
(-0.00751559 -0.826983 0)
(-0.0146343 -0.815424 0)
(-0.00176555 -0.653441 0)
(0.0988255 0.127152 0)
(0.0629168 0.204417 0)
(0.0784296 0.101789 0)
(-0.280256 0.201366 0)
(-0.157939 0.249563 0)
(-0.0062741 0.0589782 0)
(0.00689455 -0.850849 0)
(0.000220735 -0.819872 0)
(-0.0118001 -0.819385 0)
(-0.00776322 -0.725742 0)
(0.0244981 -0.12474 0)
(0.101442 0.0115177 0)
(0.156941 -0.0234878 0)
(-0.306228 -0.173322 0)
(-0.234699 -0.357599 0)
(-0.00842098 -0.673816 0)
(0.0100267 -0.841243 0)
(-4.44593e-05 -0.806042 0)
(-0.00752963 -0.805103 0)
(-0.0153159 -0.756415 0)
(0.0162619 -0.0960307 0)
(-0.037706 -0.0526165 0)
(-0.0467444 0.018388 0)
(-0.00313474 0.0943786 0)
(-0.0514532 -0.130176 0)
(0.010659 -0.642253 0)
(0.00103962 -0.806354 0)
(-0.000851476 -0.787966 0)
(-0.0148129 -0.786601 0)
(-0.0275323 -0.760897 0)
(-0.00873674 -0.0520306 0)
(-0.0530101 0.106273 0)
(-0.189457 -0.0145338 0)
(0.0142669 0.0133512 0)
(0.0502009 -0.194438 0)
(0.0239939 -0.673792 0)
(0.0178491 -0.78727 0)
(0.00577801 -0.758087 0)
(-0.00608323 -0.755614 0)
(-0.0202857 -0.791156 0)
(0.0199184 0.0145777 0)
(-0.0599014 0.160492 0)
(0.00459706 0.328909 0)
(-0.00567279 -0.0575613 0)
(0.0562384 -0.226942 0)
(0.0330292 -0.642831 0)
(0.024155 -0.753366 0)
(0.0117071 -0.737954 0)
(-0.00731924 -0.738973 0)
(-0.0173353 -0.755527 0)
(0.0550923 -0.0524032 0)
(-0.0262373 0.144671 0)
(-0.00815352 0.0379449 0)
(0.0161458 -0.175787 0)
(0.0531187 -0.261114 0)
(0.0190499 -0.616369 0)
(0.0132616 -0.73014 0)
(-0.00101715 -0.70747 0)
(-0.00835795 -0.708411 0)
(-0.0193263 -0.735698 0)
(-0.0128426 -0.423458 0)
(0.154635 0.294539 0)
(0.229352 0.0710364 0)
(0.0351065 -0.219933 0)
(0.0522536 -0.260955 0)
(0.0255131 -0.579798 0)
(0.0210458 -0.702753 0)
(0.00733745 -0.685979 0)
(-0.0162954 -0.684135 0)
(-0.030539 -0.701404 0)
(-0.0472913 -0.440501 0)
(-0.0292882 0.00407427 0)
(0.024579 -0.0491531 0)
(0.0614876 -0.21829 0)
(0.0536352 -0.253655 0)
(0.0277851 -0.555455 0)
(0.019039 -0.672684 0)
(0.00395297 -0.658104 0)
(0.00155583 -0.656506 0)
(-0.0138153 -0.67269 0)
(-0.0198957 -0.508514 0)
(0.00611336 0.0143332 0)
(-0.00719396 -0.0392462 0)
(0.0868045 -0.171648 0)
(0.0582901 -0.21067 0)
(0.0464122 -0.511081 0)
(0.03062 -0.644748 0)
(0.0173285 -0.628655 0)
(-0.00876896 -0.628889 0)
(-0.0226748 -0.646227 0)
(-0.0306027 -0.475234 0)
(-0.0275316 0.00810923 0)
(0.00330638 -0.00022851 0)
(0.06465 -0.132969 0)
(0.0141776 -0.183701 0)
(0.0424269 -0.497627 0)
(0.0245307 -0.609639 0)
(0.00521952 -0.599201 0)
(-0.00050924 -0.601998 0)
(-0.0233971 -0.608547 0)
(-0.0377556 -0.480642 0)
(0.00443752 -0.109835 0)
(0.0199216 -0.0404103 0)
(0.0478591 -0.0802617 0)
(-0.0100115 -0.172816 0)
(0.0470243 -0.525282 0)
(0.0236817 -0.581735 0)
(0.00793662 -0.573202 0)
(-0.00957528 -0.573852 0)
(-0.0232112 -0.582372 0)
(-0.0488657 -0.514922 0)
(0.0199765 -0.132625 0)
(-0.0258994 -0.00422963 0)
(0.052197 -0.0205177 0)
(0.0145666 -0.140723 0)
(0.0476619 -0.532513 0)
(0.0316236 -0.544058 0)
(0.00966286 -0.538637 0)
(-0.00956803 -0.538122 0)
(-0.0322144 -0.543361 0)
(-0.0483966 -0.5262 0)
(-0.0160304 -0.123828 0)
(-0.0385814 0.0137517 0)
(0.0514161 0.0077645 0)
(0.0524188 -0.159776 0)
(0.0556719 -0.493541 0)
(0.0239929 -0.507387 0)
(0.00482034 -0.511191 0)
(-0.00382336 -0.508117 0)
(-0.0225833 -0.505862 0)
(-0.0517328 -0.493088 0)
(-0.0499351 -0.139116 0)
(-0.056468 0.0300209 0)
(0.0568163 0.0124928 0)
(0.0594685 -0.1847 0)
(0.0674572 -0.445978 0)
(0.0409372 -0.469162 0)
(0.0242424 -0.468604 0)
(-0.00703631 -0.469749 0)
(-0.0278131 -0.468534 0)
(-0.0536347 -0.449151 0)
(-0.0479532 -0.152863 0)
(-0.0637241 0.0586205 0)
(0.0346263 -0.00625283 0)
(0.0611194 -0.190356 0)
(0.0596379 -0.40217 0)
(0.022906 -0.424679 0)
(-0.00147107 -0.42958 0)
(-0.0110868 -0.42979 0)
(-0.0362819 -0.422604 0)
(-0.0666575 -0.403987 0)
(-0.0630388 -0.137097 0)
(-0.0469219 0.0827175 0)
(-0.00327946 -0.0351687 0)
(0.0693262 -0.265646 0)
(0.0636214 -0.360664 0)
(0.0339311 -0.378992 0)
(0.0155681 -0.384267 0)
(-0.0166075 -0.384953 0)
(-0.0348205 -0.381107 0)
(-0.065971 -0.359275 0)
(-0.0715854 -0.243897 0)
(0.0154153 0.0819772 0)
(0.0805689 -0.108429 0)
(0.0701678 -0.279841 0)
(0.0668917 -0.315242 0)
(0.0368518 -0.329365 0)
(0.0117933 -0.331815 0)
(-0.0123326 -0.3323 0)
(-0.0407091 -0.330365 0)
(-0.0692053 -0.312887 0)
(-0.0733056 -0.273224 0)
(-0.0501758 -0.0229676 0)
(0.0987451 -0.190171 0)
(0.0751756 -0.223143 0)
(0.0681022 -0.262771 0)
(0.0375557 -0.281752 0)
(0.0139674 -0.287274 0)
(-0.0191538 -0.28376 0)
(-0.0415518 -0.281264 0)
(-0.0731146 -0.263302 0)
(-0.0767114 -0.219787 0)
(-0.106537 -0.16091 0)
(0.0568594 -0.132006 0)
(0.0485865 -0.195413 0)
(0.0439516 -0.236729 0)
(0.0207351 -0.244695 0)
(0.00748234 -0.247172 0)
(-0.00991514 -0.25132 0)
(-0.0183155 -0.246718 0)
(-0.0432442 -0.234724 0)
(-0.0492574 -0.195102 0)
(-0.05953 -0.116993 0)
(0.113442 0.050586 0)
(0.0785046 0.0520689 0)
(0.0374108 0.0291266 0)
(0.0148343 0.00644064 0)
(-0.00154356 -0.010514 0)
(-0.0150621 -0.0227141 0)
(-0.0206013 -0.025523 0)
(-0.01415 -0.0213167 0)
(-0.00441044 -0.0116644 0)
(0.000433139 -0.00531955 0)
(0.000540255 0.0012006 0)
(-0.00373493 0.0112065 0)
(-0.0206254 0.0115577 0)
(-0.0278674 0.00566764 0)
(-0.036306 0.00790222 0)
(-0.0437012 0.00637932 0)
(-0.0468652 0.0047858 0)
(-0.0531264 0.00991677 0)
(-0.0619476 0.0129337 0)
(-0.0757669 0.0150868 0)
(-0.0888208 0.013189 0)
(-0.0945531 0.00498127 0)
(-0.0962297 0.000809971 0)
(-0.0964277 -0.00302478 0)
(-0.0948971 -0.00468545 0)
(-0.095707 -0.00229327 0)
(-0.100968 0.00354247 0)
(-0.107146 0.00218888 0)
(-0.108923 -0.00132181 0)
(-0.105701 -0.00572432 0)
(-0.0972434 -0.0121483 0)
(-0.0864444 -0.0155173 0)
(-0.0741391 -0.0144402 0)
(-0.0591815 -0.0127671 0)
(-0.0438331 -0.0102446 0)
(-0.0300046 -0.007969 0)
(-0.0198129 -0.0070581 0)
(-0.0113359 -0.00635284 0)
(-0.00188043 -0.00487262 0)
(0.00219901 0.00245348 0)
(0.171587 0.0394972 0)
(0.168828 0.0652842 0)
(0.156422 0.0777184 0)
(0.141719 0.0708936 0)