/*--------------------------------*- C++ -*----------------------------------*\
  =========                 |
  \\      /  F ield         | OpenFOAM: The Open Source CFD Toolbox
   \\    /   O peration     | Website:  https://openfoam.org
    \\  /    A nd           | Version:  8
     \\/     M anipulation  |
\*---------------------------------------------------------------------------*/
FoamFile
{
    version     2.0;
    format      ascii;
    class       surfaceScalarField;
    location    "3.75";
    object      alphaPhi0.water;
}
// * * * * * * * * * * * * * * * * * * * * * * * * * * * * * * * * * * * * * //

dimensions      [0 3 -1 0 0 0 0];

internalField   nonuniform List<scalar> 
18095
(
1.58435e-07
-9.65569e-07
8.07134e-07
1.65361e-07
-1.24819e-06
1.24126e-06
1.22207e-07
-1.24221e-06
1.28537e-06
6.53604e-08
-1.26347e-06
1.32031e-06
6.89291e-11
-1.28046e-06
1.34575e-06
-6.52348e-08
-1.28047e-06
1.34578e-06
-1.22112e-07
-1.2635e-06
1.32038e-06
-1.653e-07
-1.24225e-06
1.28544e-06
-1.5841e-07
-1.24822e-06
1.24133e-06
-9.65646e-07
8.07236e-07
1.11014e-07
-1.07658e-06
9.94026e-08
-1.23658e-06
7.28667e-08
-1.21568e-06
4.00623e-08
-1.23066e-06
4.65757e-11
-1.24045e-06
-3.99762e-08
-1.24045e-06
-7.27984e-08
-1.23068e-06
-9.93515e-08
-1.2157e-06
-1.10985e-07
-1.23659e-06
-1.07663e-06
6.71428e-08
-1.14373e-06
5.27487e-08
-1.22218e-06
4.21467e-08
-1.20508e-06
2.38773e-08
-1.21239e-06
3.00805e-11
-1.2166e-06
-2.38211e-08
-1.2166e-06
-4.21012e-08
-1.2124e-06
-5.27141e-08
-1.20509e-06
-6.71182e-08
-1.22219e-06
-1.14375e-06
3.96129e-08
-1.18334e-06
2.66229e-08
-1.20919e-06
2.20184e-08
-1.20047e-06
1.25358e-08
-1.20291e-06
1.72951e-11
-1.20408e-06
-1.25032e-08
-1.20408e-06
-2.19916e-08
-1.20291e-06
-2.66028e-08
-1.20047e-06
-3.95961e-08
-1.20919e-06
-1.18335e-06
1.6661e-08
7.4669e-09
6.99486e-09
4.08548e-09
6.00693e-12
-4.07408e-09
-6.98554e-09
-7.46054e-09
-1.6654e-08
-1.74583e-07
-1.16374e-06
1.33832e-06
-2.18623e-07
-1.21618e-06
1.26022e-06
-1.64631e-07
-1.21264e-06
1.15865e-06
-8.64831e-08
-1.20389e-06
1.12574e-06
7.52507e-10
-1.20244e-06
1.1152e-06
8.79564e-08
-1.20255e-06
1.11535e-06
1.6596e-07
-1.2042e-06
1.12619e-06
2.19833e-07
-1.21309e-06
1.15922e-06
1.75683e-07
-1.21681e-06
1.26096e-06
-1.16446e-06
1.34014e-06
-9.28706e-08
-1.07087e-06
-9.54207e-08
-1.21363e-06
-7.89554e-08
-1.22911e-06
-4.38421e-08
-1.239e-06
4.24985e-10
-1.24671e-06
4.46575e-08
-1.24679e-06
7.96835e-08
-1.23922e-06
9.60152e-08
-1.22942e-06
9.32081e-08
-1.214e-06
-1.07125e-06
-5.78771e-08
-1.01299e-06
-5.50334e-08
-1.21647e-06
-4.63362e-08
-1.2378e-06
-2.69063e-08
-1.25843e-06
2.55723e-10
-1.27387e-06
2.73932e-08
-1.27392e-06
4.67531e-08
-1.25858e-06
5.5337e-08
-1.23801e-06
5.80252e-08
-1.21669e-06
-1.01322e-06
-7.47162e-08
-9.38272e-07
-6.18694e-08
-1.22932e-06
-4.84765e-08
-1.2512e-06
-2.76432e-08
-1.27926e-06
1.58914e-10
-1.30167e-06
2.79433e-08
-1.30171e-06
4.87258e-08
-1.27936e-06
6.20378e-08
-1.25132e-06
7.4795e-08
-1.22945e-06
-9.3843e-07
-1.31139e-07
-1.19198e-07
-8.50264e-08
-4.39781e-08
1.03341e-10
4.41721e-08
8.51852e-08
1.19307e-07
1.31194e-07
-3.39752e-08
-9.2305e-07
9.57025e-07
1.18329e-08
-1.3396e-06
1.29379e-06
1.61509e-08
-1.27468e-06
1.27037e-06
1.11025e-08
-1.22625e-06
1.2313e-06
6.37754e-09
-1.22322e-06
1.22795e-06
1.84148e-09
-1.22408e-06
1.22862e-06
-3.92242e-09
-1.22618e-06
1.23194e-06
5.27524e-09
-1.27284e-06
1.26364e-06
5.99144e-08
-1.34246e-06
1.28782e-06
-9.47597e-07
1.00751e-06
1.71314e-08
-9.40181e-07
2.42933e-08
-1.34676e-06
1.71151e-08
-1.26751e-06
1.12077e-08
-1.22034e-06
4.94677e-09
-1.21696e-06
-1.48029e-09
-1.21766e-06
-7.38371e-09
-1.22028e-06
-1.20167e-08
-1.26821e-06
-5.77542e-09
-1.34871e-06
-9.53373e-07
3.07312e-08
-9.70912e-07
2.21786e-08
-1.33821e-06
1.36378e-08
-1.25897e-06
9.02548e-09
-1.21573e-06
3.1435e-09
-1.21108e-06
-3.2392e-09
-1.21127e-06
-7.51196e-09
-1.21601e-06
-1.60583e-08
-1.25966e-06
-2.51582e-08
-1.33961e-06
-9.78531e-07
8.09936e-08
-1.05191e-06
5.48975e-08
-1.31211e-06
3.58889e-08
-1.23996e-06
2.28186e-08
-1.20266e-06
1.98289e-09
-1.19024e-06
-1.88937e-08
-1.1904e-06
-3.15496e-08
-1.20335e-06
-5.03522e-08
-1.24086e-06
-7.72017e-08
-1.31276e-06
-1.05573e-06
2.86413e-07
2.34519e-07
1.5321e-07
7.62847e-08
1.24307e-09
-7.38059e-08
-1.50964e-07
-2.32608e-07
-2.84408e-07
1.0853e-07
-1.04281e-09
-1.07487e-07
1.09582e-07
-1.05185e-09
1.10627e-07
-1.04495e-09
1.1164e-07
-1.01259e-09
1.12582e-07
-9.42642e-10
1.13402e-07
-8.19678e-10
1.14026e-07
-6.2473e-10
1.14362e-07
-3.35922e-10
1.14295e-07
6.76039e-11
6.58484e-10
1.13636e-07
1.06778e-07
-1.81857e-09
-1.06002e-07
1.07521e-07
-1.79471e-09
1.08218e-07
-1.74233e-09
1.08852e-07
-1.64653e-09
1.094e-07
-1.48984e-09
1.09832e-07
-1.25172e-09
1.10116e-07
-9.08767e-10
1.10212e-07
-4.32346e-10
1.10071e-07
2.08584e-10
1.03225e-09
1.09697e-07
1.02316e-07
-2.36015e-09
-1.01775e-07
1.02806e-07
-2.28473e-09
1.03233e-07
-2.16949e-09
1.03583e-07
-1.99625e-09
1.03838e-07
-1.74499e-09
1.03979e-07
-1.39189e-09
1.03982e-07
-9.11815e-10
1.03824e-07
-2.74255e-10
1.03482e-07
5.50338e-10
1.59731e-09
1.02895e-07
9.7233e-08
-2.70285e-09
-9.68902e-08
9.75201e-08
-2.57177e-09
9.77413e-08
-2.39117e-09
9.78869e-08
-2.14166e-09
9.79443e-08
-1.80228e-09
9.79077e-08
-1.35491e-09
9.77608e-08
-7.64746e-10
9.74786e-08
-1.49568e-11
9.70933e-08
9.35569e-10
2.11584e-09
9.65753e-08
9.17506e-08
-2.87869e-09
-9.15746e-08
9.18714e-08
-2.69259e-09
9.19255e-08
-2.4452e-09
9.19038e-08
-2.11994e-09
9.17814e-08
-1.69982e-09
9.15962e-08
-1.1709e-09
9.13428e-08
-5.11396e-10
9.10251e-08
3.02728e-10
9.06507e-08
1.30992e-09
2.54719e-09
9.02414e-08
8.60068e-08
-2.93428e-09
-8.5951e-08
8.60025e-08
-2.68804e-09
8.5916e-08
-2.35859e-09
8.57348e-08
-1.93867e-09
8.54438e-08
-1.4268e-09
8.50927e-08
-8.20841e-10
8.46879e-08
-9.72403e-11
8.42482e-08
7.51449e-10
8.37999e-08
1.7585e-09
2.96973e-09
8.33773e-08
8.02006e-08
-2.95829e-09
-8.01756e-08
8.01373e-08
-2.62331e-09
7.99409e-08
-2.1622e-09
7.95959e-08
-1.59357e-09
7.90976e-08
-9.36795e-10
7.84852e-08
-2.06613e-10
7.78037e-08
5.90301e-10
7.70881e-08
1.46719e-09
7.6393e-08
2.45351e-09
3.60036e-09
7.57623e-08
7.46675e-08
-3.09027e-09
-7.45253e-08
7.46161e-08
-2.57151e-09
7.43291e-08
-1.8751e-09
7.379e-08
-1.05449e-09
7.30163e-08
-1.63097e-10
7.2057e-08
7.52573e-10
7.09835e-08
1.66386e-09
6.98794e-08
2.57155e-09
6.88208e-08
3.51215e-09
4.55158e-09
6.78696e-08
6.99506e-08
-3.40501e-09
-6.96355e-08
6.99154e-08
-2.5362e-09
6.94922e-08
-1.45179e-09
6.8678e-08
-2.40005e-10
6.75109e-08
1.00415e-09
6.6074e-08
2.18943e-09
6.4495e-08
3.24315e-09
6.29195e-08
4.14717e-09
6.14725e-08
4.95918e-09
5.78468e-09
6.02395e-08
6.64901e-08
-3.70364e-09
-6.61914e-08
6.63122e-08
-2.3582e-09
6.5622e-08
-7.613e-10
6.44029e-08
9.79215e-10
6.26864e-08
2.72087e-09
6.0588e-08
4.28797e-09
5.83293e-08
5.50188e-09
5.61845e-08
6.29208e-09
5.43212e-08
6.77134e-09
7.13947e-09
5.29658e-08
6.32853e-08
-3.98605e-09
-6.30023e-08
6.30259e-08
-2.09777e-09
6.21452e-08
1.19602e-10
6.05557e-08
2.56881e-09
5.82138e-08
5.06286e-09
5.52451e-08
7.25666e-09
5.20458e-08
8.70115e-09
4.91307e-08
9.16328e-09
4.69568e-08
8.9446e-09
8.50901e-09
4.55867e-08
5.92611e-08
-4.30539e-09
-5.89389e-08
5.90849e-08
-1.92004e-09
5.82595e-08
9.44988e-10
5.65679e-08
4.26045e-09
5.36804e-08
7.94037e-09
4.95967e-08
1.13403e-08
4.50986e-08
1.31992e-08
4.13191e-08
1.29427e-08
3.88798e-08
1.137e-08
9.69491e-09
3.77132e-08
5.311e-08
-4.56329e-09
-5.28284e-08
5.30502e-08
-1.84907e-09
5.24795e-08
1.51551e-09
5.11263e-08
5.61347e-09
4.8677e-08
1.03897e-08
4.30529e-08
1.5549e-08
3.62271e-08
1.79271e-08
3.23288e-08
1.66806e-08
3.04738e-08
1.32254e-08
1.02195e-08
2.99494e-08
4.30443e-08
-4.21217e-09
-4.33959e-08
4.24844e-08
-1.25579e-09
4.15215e-08
2.4784e-09
3.99294e-08
7.20549e-09
3.72407e-08
1.30784e-08
2.50737e-08
1.56028e-08
2.39009e-08
1.90984e-08
2.55238e-08
1.65475e-08
2.45203e-08
1.42291e-08
1.02798e-08
2.446e-08
3.01508e-08
-2.95717e-09
-3.13957e-08
2.88075e-08
8.75803e-11
2.73766e-08
3.9094e-09
2.57786e-08
8.80354e-09
1.66485e-08
1.20876e-08
1.64513e-08
1.57977e-08
1.8276e-08
1.72738e-08
1.91249e-08
1.56988e-08
2.19493e-08
1.29475e-08
1.04267e-08
2.18028e-08
1.57142e-08
-7.29104e-10
-1.79421e-08
1.36008e-08
2.20152e-09
1.17811e-08
5.72919e-09
9.05472e-09
9.96217e-09
7.88491e-09
1.23151e-08
9.08758e-09
1.45951e-08
1.09725e-08
1.5389e-08
1.23976e-08
1.42738e-08
1.6539e-08
1.22297e-08
1.02839e-08
1.76747e-08
1.33009e-09
2.32668e-09
-4.38565e-09
-1.48377e-09
5.01538e-09
-3.75783e-09
8.00319e-09
-4.76012e-09
1.1175e-08
-3.11579e-09
1.35801e-08
-5.75445e-10
1.20548e-08
3.52141e-09
1.12922e-08
5.51374e-09
1.22816e-08
8.94171e-09
1.26682e-08
1.00889e-08
9.22847e-09
-1.15592e-08
5.67373e-09
8.212e-09
-1.44465e-08
7.90195e-09
-1.65478e-08
1.01045e-08
-1.74102e-08
1.2182e-08
-1.49696e-08
1.3698e-08
-1.19991e-08
1.34383e-08
-1.03527e-08
1.26826e-08
-9.2086e-09
1.29268e-08
-7.72172e-09
1.13654e-08
9.18113e-09
-6.81388e-09
-2.5246e-08
9.42627e-09
2.14932e-08
-2.84705e-08
1.11261e-08
-3.09216e-08
1.25557e-08
-3.23503e-08
1.3611e-08
-3.25858e-08
1.41432e-08
-3.22245e-08
1.39883e-08
-3.19786e-08
1.31505e-08
-3.0854e-08
1.1802e-08
-2.95758e-08
1.00873e-08
8.07673e-09
-2.84713e-08
-4.1694e-08
1.40244e-08
3.70958e-08
-4.5816e-08
1.52486e-08
-4.9296e-08
1.60358e-08
-5.20142e-08
1.63301e-08
-5.39467e-08
1.60766e-08
-5.51854e-08
1.52263e-08
-5.58612e-08
1.3826e-08
-5.60721e-08
1.20129e-08
-5.58611e-08
9.87631e-09
7.5592e-09
-5.53434e-08
-6.18878e-08
1.99151e-08
5.5996e-08
-6.73836e-08
2.0743e-08
-7.23336e-08
2.09857e-08
-7.66407e-08
2.06374e-08
-8.02586e-08
1.96942e-08
-8.31721e-08
1.81396e-08
-8.53895e-08
1.60435e-08
-8.69589e-08
1.35822e-08
-8.79831e-08
1.09004e-08
7.96877e-09
-8.83927e-08
-8.6193e-08
2.74863e-08
7.86193e-08
-9.34528e-08
2.79963e-08
-1.00204e-07
2.77373e-08
-1.0634e-07
2.67725e-08
-1.11884e-07
2.52388e-08
-1.16798e-07
2.30528e-08
-1.20677e-07
1.99723e-08
-1.23227e-07
1.66159e-08
-1.25584e-07
1.31563e-08
9.62796e-09
-1.27344e-07
-1.1453e-07
3.70272e-08
1.0498e-07
-1.23858e-07
3.7325e-08
-1.32603e-07
3.64816e-08
-1.39984e-07
3.47749e-08
-1.47316e-07
3.25612e-08
-1.54591e-07
2.97083e-08
-1.61585e-07
2.61073e-08
-1.66777e-07
2.1857e-08
-1.71584e-07
1.80143e-08
1.44072e-08
-1.76314e-07
-1.45431e-07
4.783e-08
1.34624e-07
-1.55536e-07
4.83189e-08
-1.64393e-07
4.52375e-08
-1.77577e-07
4.3906e-08
-1.87544e-07
4.2448e-08
-1.9767e-07
3.98854e-08
-2.07632e-07
3.61179e-08
-2.1465e-07
2.89239e-08
-2.19347e-07
2.30369e-08
1.78752e-08
-1.77995e-07
-1.71592e-07
5.829e-08
1.63876e-07
-1.82965e-07
5.63602e-08
-2.02556e-07
5.50737e-08
-2.16291e-07
5.66578e-08
-2.2591e-07
5.17505e-08
-2.14488e-07
4.98059e-08
-2.14223e-07
3.45411e-08
-2.62782e-07
3.72488e-08
-2.51934e-07
3.36532e-08
2.32951e-08
-2.23483e-07
-2.07752e-07
7.07766e-08
1.93747e-07
-2.26205e-07
6.88069e-08
-2.41004e-07
7.00742e-08
-2.41024e-07
6.73568e-08
-2.06445e-07
5.63093e-08
-2.0737e-07
4.50315e-08
-2.28362e-07
4.56581e-08
-3.08333e-07
4.48836e-08
-3.10992e-07
4.09038e-08
3.367e-08
-3.1725e-07
-2.50431e-07
8.6989e-08
2.3741e-07
-2.61604e-07
8.32314e-08
-2.19539e-07
7.4e-08
-2.18632e-07
6.30719e-08
-2.25814e-07
6.05717e-08
-2.42311e-07
5.83379e-08
-3.34652e-07
5.86222e-08
-3.43361e-07
5.64742e-08
-3.46492e-07
4.77334e-08
3.96398e-08
-3.49207e-07
-2.78004e-07
9.54625e-08
2.72539e-07
-2.25632e-07
8.25367e-08
-2.28145e-07
7.37729e-08
-2.39635e-07
7.16341e-08
-2.5279e-07
7.06081e-08
-3.39211e-07
7.30453e-08
-3.55575e-07
7.467e-08
-3.65673e-07
6.34856e-08
-3.62667e-07
5.39285e-08
4.56664e-08
-3.70755e-07
-2.31577e-07
9.28755e-08
2.92382e-07
-2.34254e-07
8.30813e-08
-2.44709e-07
8.18035e-08
-2.57899e-07
8.20611e-08
-3.48813e-07
8.86178e-08
-3.67463e-07
9.29435e-08
-3.74853e-07
8.28587e-08
-3.71689e-07
7.06797e-08
-3.81033e-07
6.23591e-08
5.55614e-08
-3.913e-07
-2.31556e-07
9.0935e-08
2.31662e-07
-2.41225e-07
9.08497e-08
-2.52176e-07
9.0644e-08
-3.37627e-07
1.02634e-07
-3.6947e-07
1.09756e-07
-3.77934e-07
1.01902e-07
-3.71128e-07
9.17736e-08
-3.82117e-07
8.03605e-08
-3.94113e-07
7.28286e-08
6.72127e-08
-4.20293e-07
-2.33516e-07
9.92499e-08
2.2332e-07
-2.43053e-07
9.86562e-08
-2.66597e-07
1.0438e-07
-3.59109e-07
1.1976e-07
-3.68872e-07
1.19513e-07
-3.78215e-07
1.11322e-07
-3.82608e-07
1.03182e-07
-3.83733e-07
9.49954e-08
-4.1079e-07
8.80024e-08
8.14883e-08
-4.25056e-07
-2.26818e-07
1.06392e-07
2.1826e-07
-2.38049e-07
1.07988e-07
-3.34779e-07
1.296e-07
-3.51359e-07
1.36333e-07
-3.60939e-07
1.29104e-07
-3.71241e-07
1.2164e-07
-3.81952e-07
1.14522e-07
-3.93763e-07
1.07445e-07
-4.0639e-07
1.00627e-07
9.41004e-08
-4.19001e-07
-2.1881e-07
1.12957e-07
2.11173e-07
-2.39811e-07
1.20904e-07
-3.28306e-07
1.43732e-07
-3.38376e-07
1.4642e-07
-3.48679e-07
1.39423e-07
-3.59579e-07
1.32571e-07
-3.70922e-07
1.25711e-07
-3.82361e-07
1.18902e-07
-3.93965e-07
1.1224e-07
1.05818e-07
-4.05681e-07
-2.12062e-07
1.22777e-07
2.00928e-07
-2.96601e-07
1.45455e-07
-3.14993e-07
1.6204e-07
-3.24762e-07
1.56151e-07
-3.34681e-07
1.49356e-07
-3.46378e-07
1.4297e-07
-3.57017e-07
1.36353e-07
-3.67458e-07
1.29359e-07
-3.77663e-07
1.22462e-07
1.15781e-07
-3.87511e-07
-2.12916e-07
1.38649e-07
1.92902e-07
-2.88098e-07
1.65495e-07
-2.99585e-07
1.71199e-07
-3.06787e-07
1.58347e-07
-3.2412e-07
1.53156e-07
-3.34135e-07
1.52969e-07
-3.43287e-07
1.4552e-07
-3.51982e-07
1.38072e-07
-3.59911e-07
1.30665e-07
1.23561e-07
-3.67693e-07
-2.58868e-07
1.85288e-07
2.01876e-07
-2.72253e-07
1.86746e-07
-2.67773e-07
1.62367e-07
-2.7422e-07
1.57553e-07
-3.12791e-07
1.5802e-07
-3.21488e-07
1.6163e-07
-3.29434e-07
1.53475e-07
-3.3635e-07
1.45353e-07
-3.42897e-07
1.37224e-07
1.29474e-07
-3.48811e-07
-2.70703e-07
1.95761e-07
2.61623e-07
-2.66136e-07
1.90827e-07
-2.53678e-07
1.66256e-07
-2.66837e-07
1.637e-07
-3.02695e-07
1.59446e-07
-3.10437e-07
1.69354e-07
-3.17624e-07
1.60665e-07
-3.24056e-07
1.51885e-07
-3.29402e-07
1.43052e-07
1.34327e-07
-3.34267e-07
-2.64782e-07
2.03109e-07
2.58001e-07
-2.58082e-07
1.9824e-07
-2.46161e-07
1.76059e-07
-2.59397e-07
1.69926e-07
-2.9547e-07
1.69532e-07
-3.03021e-07
1.76901e-07
-3.10129e-07
1.67774e-07
-3.16667e-07
1.58426e-07
-3.2241e-07
1.49021e-07
1.3967e-07
-3.27391e-07
-2.61324e-07
2.11289e-07
2.5329e-07
-2.58605e-07
2.06629e-07
-2.45943e-07
1.83267e-07
-2.60338e-07
1.77311e-07
-2.92976e-07
1.83797e-07
-3.0067e-07
1.84596e-07
-3.08113e-07
1.75218e-07
-3.15242e-07
1.65556e-07
-3.22038e-07
1.55818e-07
1.46157e-07
-3.28517e-07
-2.59073e-07
2.20628e-07
2.49801e-07
-2.56659e-07
2.14029e-07
-2.51766e-07
1.91481e-07
-2.67824e-07
1.86709e-07
-2.95039e-07
1.95278e-07
-3.03315e-07
1.92872e-07
-3.11611e-07
1.83514e-07
-3.19884e-07
1.7383e-07
-3.28126e-07
1.64064e-07
1.54243e-07
-3.36221e-07
-2.55173e-07
2.29817e-07
2.46077e-07
-2.34422e-07
2.09424e-07
-2.40481e-07
1.93935e-07
-2.77928e-07
2.02488e-07
-2.98556e-07
2.11863e-07
-3.095e-07
2.03816e-07
-3.20414e-07
1.94429e-07
-3.31382e-07
1.84799e-07
-3.42267e-07
1.74943e-07
1.61443e-07
-3.49475e-07
-2.52149e-07
2.38895e-07
2.45626e-07
-2.37673e-07
2.11162e-07
-2.51206e-07
2.05302e-07
-2.93505e-07
2.19726e-07
-3.07154e-07
2.25505e-07
-3.205e-07
2.17156e-07
-3.34281e-07
2.08213e-07
-3.48255e-07
1.98827e-07
-3.60352e-07
1.87349e-07
1.43418e-07
-2.95488e-07
-2.35234e-07
2.37037e-07
2.474e-07
-2.43981e-07
2.181e-07
-2.55921e-07
2.16052e-07
-3.0357e-07
2.36855e-07
-3.18205e-07
2.40144e-07
-3.33776e-07
2.3272e-07
-3.50177e-07
2.24633e-07
-3.66214e-07
2.15102e-07
-3.47546e-07
1.90656e-07
9.4299e-08
-2.39213e-07
-2.2408e-07
2.39539e-07
2.46161e-07
-2.37946e-07
2.30232e-07
-2.54152e-07
2.30417e-07
-3.09897e-07
2.5772e-07
-3.26962e-07
2.57172e-07
-3.4511e-07
2.50884e-07
-3.64284e-07
2.43896e-07
-3.80842e-07
2.3234e-07
-2.87136e-07
1.55771e-07
1.00892e-07
-2.67892e-07
-2.27361e-07
2.41931e-07
2.2355e-07
-2.41258e-07
2.4257e-07
-2.67713e-07
2.47071e-07
-3.13017e-07
2.74637e-07
-3.30275e-07
2.74389e-07
-3.48248e-07
2.68877e-07
-3.65762e-07
2.61684e-07
-3.34644e-07
2.32818e-07
-2.10245e-07
9.69493e-08
9.83118e-08
-2.18773e-07
-2.30574e-07
2.53875e-07
2.17831e-07
-2.44578e-07
2.5542e-07
-2.95122e-07
2.68737e-07
-3.15723e-07
2.95313e-07
-3.33106e-07
2.91767e-07
-3.51049e-07
2.86951e-07
-3.65041e-07
2.76342e-07
-2.36841e-07
1.79749e-07
-1.70856e-07
1.00451e-07
1.0498e-07
-1.9423e-07
-2.30909e-07
2.66165e-07
2.17313e-07
-2.45973e-07
2.69123e-07
-3.00401e-07
2.92212e-07
-3.16074e-07
3.10969e-07
-3.31767e-07
3.07535e-07
-3.46005e-07
3.01454e-07
-3.03001e-07
2.63563e-07
-1.4767e-07
1.22149e-07
-1.47572e-07
8.84392e-08
1.19083e-07
-2.60106e-07
-2.33084e-07
2.78423e-07
2.19449e-07
-2.49422e-07
2.84047e-07
-3.01259e-07
3.16983e-07
-3.17661e-07
3.26639e-07
-3.33241e-07
3.23404e-07
-3.40224e-07
3.09237e-07
-1.64953e-07
1.60305e-07
-1.48858e-07
9.34701e-08
-1.56065e-07
8.8244e-08
1.58808e-07
-3.54499e-07
-2.36224e-07
2.90282e-07
2.22974e-07
-2.60553e-07
3.04494e-07
-3.02071e-07
3.36947e-07
-3.17391e-07
3.41224e-07
-3.28594e-07
3.34833e-07
-2.24809e-07
2.54255e-07
-1.12666e-07
1.07574e-07
-1.14223e-07
8.67259e-08
-1.57852e-07
9.69511e-08
1.80943e-07
-3.38809e-07
-2.48706e-07
3.05713e-07
2.3187e-07
-2.90059e-07
3.38094e-07
-3.08537e-07
3.55916e-07
-3.21648e-07
3.54217e-07
-3.04591e-07
3.24997e-07
-1.30746e-07
1.53769e-07
-1.22139e-07
9.07364e-08
-1.24355e-07
8.37798e-08
-2.99887e-07
1.48308e-07
1.99061e-07
-3.1808e-07
-2.64809e-07
3.55239e-07
2.50586e-07
-2.99046e-07
3.64342e-07
-3.11743e-07
3.68066e-07
-3.08891e-07
3.51854e-07
-1.47356e-07
1.83676e-07
-9.81868e-08
9.88177e-08
-9.79517e-08
8.34318e-08
-1.23477e-07
8.95703e-08
-3.01061e-07
1.8157e-07
1.88751e-07
-2.90826e-07
-2.94772e-07
3.77368e-07
2.82657e-07
-3.07874e-07
3.76139e-07
-3.08645e-07
3.67386e-07
-1.73859e-07
2.29262e-07
-9.19507e-08
1.05012e-07
-8.37489e-08
8.55705e-08
-8.55703e-08
7.97483e-08
-2.49808e-07
1.4665e-07
-2.75702e-07
1.9961e-07
1.74704e-07
-2.61665e-07
-3.08267e-07
3.86719e-07
2.98379e-07
-3.10242e-07
3.79132e-07
-2.09416e-07
2.69715e-07
-9.81016e-08
1.22812e-07
-8.71872e-08
9.09512e-08
-8.5276e-08
7.98282e-08
-9.59611e-08
8.28349e-08
-2.5965e-07
1.91277e-07
-2.4668e-07
1.86629e-07
1.58885e-07
-2.30856e-07
-3.12202e-07
3.91262e-07
3.07504e-07
-2.35925e-07
3.02992e-07
-1.06121e-07
1.3567e-07
-8.21849e-08
9.61106e-08
-7.6312e-08
8.22221e-08
-7.51111e-08
7.60807e-08
-1.93942e-07
1.31475e-07
-2.31672e-07
1.92092e-07
-2.14749e-07
1.69699e-07
1.42346e-07
-1.98207e-07
-2.59629e-07
3.37701e-07
3.11404e-07
-1.15198e-07
1.50043e-07
-8.25954e-08
1.00626e-07
-7.58039e-08
8.65011e-08
-7.11215e-08
7.52668e-08
-7.87556e-08
8.09351e-08
-2.12677e-07
1.68129e-07
-1.99578e-07
1.7896e-07
-1.82112e-07
1.52232e-07
1.25233e-07
-1.64998e-07
-1.24232e-07
1.79444e-07
2.86871e-07
-8.15429e-08
1.05021e-07
-7.3521e-08
9.02356e-08
-6.84931e-08
7.8896e-08
-7.24889e-08
7.64542e-08
-1.65423e-07
1.46564e-07
-1.84274e-07
1.86066e-07
-1.67429e-07
1.62115e-07
-1.50109e-07
1.34911e-07
1.07603e-07
-1.32479e-07
-8.22609e-08
1.11148e-07
1.48305e-07
-7.20637e-08
9.26761e-08
-6.56634e-08
8.15771e-08
-6.33956e-08
7.42602e-08
-1.09562e-07
1.15584e-07
-1.66507e-07
1.88753e-07
-1.53086e-07
1.7264e-07
-1.36415e-07
1.45444e-07
-1.19237e-07
1.17733e-07
8.9498e-08
-1.01132e-07
-7.01714e-08
9.47671e-08
8.44039e-08
-6.30184e-08
8.33749e-08
-5.71619e-08
7.35725e-08
-7.14458e-08
9.75648e-08
-1.44449e-07
1.96009e-07
-1.39472e-07
1.83741e-07
-1.23762e-07
1.56931e-07
-1.0731e-07
1.28992e-07
-8.98901e-08
1.00313e-07
7.06345e-08
-7.10265e-08
-6.03178e-08
8.51097e-08
6.7917e-08
-5.3801e-08
7.47099e-08
-5.74538e-08
9.67808e-08
-1.27226e-07
2.08281e-07
-1.27222e-07
1.95984e-07
-1.1253e-07
1.69046e-07
-9.66e-08
1.41001e-07
-7.96488e-08
1.1204e-07
-6.12981e-08
8.19616e-08
5.05145e-08
-4.11791e-08
-5.44425e-08
7.94897e-08
5.80943e-08
-5.35963e-08
1.18738e-07
-1.18488e-07
2.23138e-07
-1.18473e-07
2.08177e-07
-1.03883e-07
1.81272e-07
-8.82405e-08
1.532e-07
-7.15708e-08
1.24265e-07
-5.34906e-08
9.39598e-08
-3.35755e-08
6.20463e-08
2.84189e-08
-1.14808e-08
-6.80984e-08
1.5901e-07
5.88199e-08
-1.18898e-07
2.39666e-07
-1.1517e-07
2.19754e-07
-9.97229e-08
1.92687e-07
-8.34504e-08
1.64911e-07
-6.69962e-08
1.36601e-07
-4.98883e-08
1.07016e-07
-3.13467e-08
7.54178e-08
-1.06806e-08
4.138e-08
2.98129e-09
1.24949e-08
-1.28051e-07
2.54046e-07
9.35611e-08
-1.18648e-07
2.30403e-07
-1.01555e-07
2.02534e-07
-8.33194e-08
1.74325e-07
-6.47412e-08
1.46189e-07
-4.63605e-08
1.18077e-07
-2.57611e-08
8.6277e-08
-3.50197e-09
4.61863e-08
1.41232e-08
1.19684e-08
-1.99273e-08
3.69969e-08
-1.30093e-07
2.41499e-07
1.42763e-07
-1.1144e-07
2.11607e-07
-9.13815e-08
1.82336e-07
-6.98715e-08
1.52693e-07
-4.08882e-08
1.17063e-07
-1.40516e-08
5.95834e-08
9.69931e-09
3.04271e-08
3.41099e-08
6.26013e-09
6.14754e-08
-3.09127e-08
-6.56756e-08
9.15631e-08
-1.24283e-07
2.22349e-07
1.43259e-07
-1.01371e-07
1.8855e-07
-6.77012e-08
1.48525e-07
-3.76543e-08
8.79847e-08
-2.1794e-09
5.2577e-08
2.72988e-08
2.76872e-08
5.44267e-08
1.28634e-09
1.16978e-07
-2.84182e-08
1.55364e-07
-6.73615e-08
-8.87029e-08
1.80178e-07
-1.05254e-07
1.91402e-07
1.36287e-07
-7.29816e-08
1.36656e-07
-3.0021e-08
8.35662e-08
5.55209e-09
5.05426e-08
3.55188e-08
2.0753e-08
8.8685e-08
-1.28942e-10
1.27593e-07
-3.06012e-08
1.57181e-07
-5.38965e-08
1.5538e-07
-6.63317e-08
-2.76968e-08
7.91917e-08
-6.00629e-08
1.30152e-07
1.02671e-07
-2.48816e-08
8.88617e-08
1.18689e-08
6.30356e-08
5.29986e-08
2.93875e-08
9.35198e-08
-4.68955e-09
1.26515e-07
-3.3183e-08
1.49482e-07
-5.33396e-08
1.17426e-07
-4.61511e-08
4.5326e-08
-1.85712e-08
-1.66877e-08
2.74664e-08
-1.95809e-08
8.97778e-08
5.30117e-08
2.02459e-08
6.36839e-08
6.31335e-08
2.76881e-08
1.01126e-07
-8.39247e-09
1.35761e-07
-3.93212e-08
1.66157e-07
-6.36074e-08
1.34163e-07
-6.30211e-08
3.67706e-08
-1.80646e-08
3.06121e-08
-1.7511e-08
-2.84048e-08
3.75284e-08
4.25922e-08
7.44072e-08
-3.44332e-10
8.3313e-08
2.87213e-08
1.21459e-07
-1.04451e-08
1.5764e-07
-4.45698e-08
1.92492e-07
-7.417e-08
2.27255e-07
-9.83666e-08
5.48341e-08
-6.41313e-08
3.72544e-08
-2.02996e-08
4.37819e-08
-2.73789e-08
-4.80288e-08
5.85568e-08
1.19636e-07
3.28223e-08
-7.71299e-08
1.5746e-07
-9.09344e-09
1.92534e-07
-4.55147e-08
2.26816e-07
-7.88489e-08
2.62985e-07
-1.10335e-07
2.99818e-07
-1.39474e-07
4.846e-08
-9.37162e-08
5.46721e-08
-3.21886e-08
6.64982e-08
-4.56908e-08
-8.8595e-08
1.03468e-07
1.94872e-07
-7.89488e-09
-1.237e-07
2.29268e-07
-4.3106e-08
2.60516e-07
-7.67561e-08
2.93268e-07
-1.11596e-07
3.3148e-07
-1.48545e-07
3.62606e-07
-1.84994e-07
7.0832e-08
-1.29551e-07
7.92327e-08
-5.95895e-08
1.14184e-07
-8.7347e-08
-1.97597e-07
2.18868e-07
2.39402e-07
-4.55989e-08
-1.10571e-07
2.72779e-07
-7.58616e-08
3.04421e-07
-1.08328e-07
3.40169e-07
-1.47339e-07
3.83532e-07
-1.91905e-07
3.92186e-07
-2.19194e-07
1.01431e-07
-1.32758e-07
1.0173e-07
-9.98307e-08
2.09534e-07
-2.04309e-07
-5.10473e-07
5.44097e-07
2.65216e-07
-7.88414e-08
-1.81303e-07
2.96143e-07
-1.06385e-07
3.31203e-07
-1.43268e-07
3.73908e-07
-1.89998e-07
4.20134e-07
-2.38201e-07
2.79889e-07
-2.19566e-07
1.80825e-07
-1.679e-07
2.47813e-07
-2.1585e-07
5.29312e-07
-4.79123e-07
-9.28767e-07
9.65213e-07
2.80056e-07
-9.96842e-08
-2.58608e-07
3.09293e-07
-1.35509e-07
3.48526e-07
-1.82315e-07
3.96566e-07
-2.37939e-07
3.80354e-07
-2.37329e-07
2.64117e-07
-1.90703e-07
2.87706e-07
-2.38741e-07
5.04525e-07
-4.55305e-07
9.36167e-07
-9.13967e-07
-1.0446e-06
1.05209e-06
2.79237e-07
-1.16561e-07
-2.62313e-07
3.08034e-07
-1.64224e-07
3.47121e-07
-2.2129e-07
3.45233e-07
-2.35913e-07
2.67856e-07
-1.88276e-07
3.05913e-07
-2.7221e-07
4.68163e-07
-4.50034e-07
8.95428e-07
-8.82993e-07
1.01309e-06
-1.03165e-06
-1.09539e-06
1.06386e-06
2.61569e-07
-1.30428e-07
-2.47682e-07
2.86231e-07
-1.88838e-07
3.02637e-07
-2.37614e-07
2.10526e-07
-1.7837e-07
2.64442e-07
-2.47499e-07
4.00548e-07
-4.20268e-07
7.98696e-07
-8.1138e-07
9.44262e-07
-1.02185e-06
1.00284e-06
-1.09015e-06
-1.12839e-06
1.03585e-06
2.33298e-07
-1.38466e-07
-2.25244e-07
2.42363e-07
-1.97882e-07
1.53229e-07
-1.58985e-07
1.35924e-07
-1.66894e-07
2.71654e-07
-3.88125e-07
6.37166e-07
-7.7917e-07
8.47542e-07
-1.01984e-06
9.16716e-07
-1.0912e-06
9.56965e-07
-1.13044e-06
-1.15385e-06
9.82421e-07
2.0257e-07
-1.38854e-07
-2.0218e-07
1.56715e-07
-1.4506e-07
8.58608e-08
-6.71709e-08
1.81172e-07
-2.58601e-07
5.20833e-07
-7.40533e-07
7.50833e-07
-1.01854e-06
8.23312e-07
-1.09238e-06
8.65122e-07
-1.13302e-06
8.93985e-07
-1.1593e-06
-1.17412e-06
9.14248e-07
1.42532e-07
-1.19794e-07
-1.61591e-07
4.80222e-08
-2.6774e-08
7.04755e-08
-8.56723e-08
3.9042e-07
-5.73906e-07
6.54771e-07
-1.00783e-06
7.25852e-07
-1.08969e-06
7.66743e-07
-1.13327e-06
7.96801e-07
-1.16307e-06
8.19923e-07
-1.18242e-06
-1.19103e-06
8.36838e-07
3.89465e-08
-6.1436e-08
-8.7823e-08
3.16385e-08
-1.57161e-08
1.80912e-07
-2.34524e-07
5.48704e-07
-9.39517e-07
6.21133e-07
-1.08019e-06
6.62621e-07
-1.13117e-06
6.94431e-07
-1.16508e-06
7.20178e-07
-1.18882e-06
7.40424e-07
-1.20267e-06
-1.2056e-06
7.54991e-07
2.64328e-09
-7.49807e-10
-4.83991e-08
2.97809e-08
-4.09801e-08
3.94675e-07
-6.04918e-07
5.12136e-07
-1.06137e-06
5.59276e-07
-1.1274e-06
5.93275e-07
-1.16518e-06
6.21091e-07
-1.1929e-06
6.43873e-07
-1.2116e-06
6.61749e-07
-1.22055e-06
-1.21849e-06
6.74643e-07
1.20923e-09
-2.39846e-09
2.10177e-10
9.50225e-08
-1.35023e-07
4.12375e-07
-9.05077e-07
4.64838e-07
-1.11375e-06
4.98545e-07
-1.16109e-06
5.2695e-07
-1.19358e-06
5.51186e-07
-1.21714e-06
5.71024e-07
-1.23144e-06
5.86236e-07
-1.23576e-06
-1.22896e-06
5.96707e-07
3.89631e-09
-7.528e-09
1.00329e-09
2.10135e-07
-3.05637e-07
3.74915e-07
-1.058e-06
4.12173e-07
-1.15092e-06
4.40995e-07
-1.18991e-06
4.66023e-07
-1.21861e-06
4.87368e-07
-1.23848e-06
5.0468e-07
-1.24875e-06
5.17939e-07
-1.24902e-06
-1.23891e-06
5.27889e-07
9.61461e-09
-1.70745e-08
-5.78749e-11
2.70612e-07
-5.437e-07
3.37223e-07
-1.12199e-06
3.67104e-07
-1.18077e-06
3.91326e-07
-1.21412e-06
4.12272e-07
-1.23956e-06
4.2972e-07
-1.25593e-06
4.43154e-07
-1.26218e-06
4.52326e-07
-1.25819e-06
-1.24438e-06
4.57793e-07
2.3845e-08
-3.77513e-08
-2.30418e-09
2.72851e-07
-7.70771e-07
3.08956e-07
-1.1579e-06
3.30034e-07
-1.20183e-06
3.483e-07
-1.23239e-06
3.64626e-07
-1.25588e-06
3.78248e-07
-1.26955e-06
3.88347e-07
-1.27228e-06
3.94395e-07
-1.26424e-06
-1.24635e-06
3.9637e-07
7.84768e-08
-1.11729e-07
-1.69373e-10
2.74584e-07
-9.42521e-07
2.86639e-07
-1.1698e-06
2.96703e-07
-1.21188e-06
3.08466e-07
-1.24415e-06
3.20127e-07
-1.26754e-06
3.3008e-07
-1.2795e-06
3.37201e-07
-1.2794e-06
3.40565e-07
-1.2676e-06
-1.24362e-06
3.3783e-07
1.18308e-07
-2.06434e-07
-2.36665e-11
2.24588e-07
-1.0367e-06
2.39981e-07
-1.18514e-06
2.52757e-07
-1.22465e-06
2.64846e-07
-1.25624e-06
2.75393e-07
-1.27809e-06
2.83742e-07
-1.28785e-06
2.89495e-07
-1.28516e-06
2.91778e-07
-1.26988e-06
-1.23455e-06
2.82714e-07
1.16749e-07
-2.99517e-07
-1.01316e-10
1.89642e-07
-1.10125e-06
2.04674e-07
-1.20014e-06
2.16309e-07
-1.23628e-06
2.26752e-07
-1.26668e-06
2.35398e-07
-1.28674e-06
2.42116e-07
-1.29457e-06
2.47362e-07
-1.2904e-06
2.50945e-07
-1.27347e-06
-1.21821e-06
2.34607e-07
1.15536e-07
-3.92927e-07
-3.47985e-10
1.64812e-07
-1.14515e-06
1.7588e-07
-1.2112e-06
1.84964e-07
-1.24537e-06
1.93278e-07
-1.275e-06
1.9966e-07
-1.29312e-06
2.04309e-07
-1.29922e-06
2.08515e-07
-1.29461e-06
2.13072e-07
-1.27802e-06
-1.17935e-06
1.74224e-07
1.16643e-07
-5.02495e-07
-9.9681e-10
1.43554e-07
-1.17099e-06
1.5044e-07
-1.21808e-06
1.57436e-07
-1.25236e-06
1.6393e-07
-1.28149e-06
1.6826e-07
-1.29745e-06
1.71232e-07
-1.30219e-06
1.7511e-07
-1.29849e-06
1.82518e-07
-1.28543e-06
-1.13967e-06
1.25067e-07
1.1437e-07
-6.08014e-07
-1.70294e-09
1.21803e-07
-1.17787e-06
1.25845e-07
-1.22212e-06
1.31647e-07
-1.25817e-06
1.36412e-07
-1.28626e-06
1.38413e-07
-1.29945e-06
1.39032e-07
-1.30281e-06
1.40776e-07
-1.30023e-06
1.46842e-07
-1.2915e-06
-1.08857e-06
8.33793e-08
8.8906e-08
-7.02527e-07
-1.40417e-09
9.5074e-08
-1.18409e-06
1.0071e-07
-1.22776e-06
1.0665e-07
-1.26411e-06
1.09658e-07
-1.28927e-06
1.09275e-07
-1.29907e-06
1.07386e-07
-1.30092e-06
1.06169e-07
-1.29901e-06
1.0826e-07
-1.29359e-06
-1.04458e-06
5.22463e-08
6.1281e-08
-7.7197e-07
-2.84838e-09
6.88811e-08
-1.19168e-06
7.62969e-08
-1.23517e-06
8.24638e-08
-1.27027e-06
8.3686e-08
-1.29049e-06
8.13435e-08
-1.29672e-06
7.72684e-08
-1.29685e-06
7.29263e-08
-1.29467e-06
7.00379e-08
-1.2907e-06
-1.01251e-06
2.81315e-08
3.12177e-08
-8.10224e-07
-2.58856e-10
4.46746e-08
-1.20509e-06
5.56401e-08
-1.24614e-06
6.23082e-08
-1.27694e-06
6.15247e-08
-1.2897e-06
5.74536e-08
-1.29265e-06
5.15204e-08
-1.29091e-06
4.43019e-08
-1.28745e-06
3.68111e-08
-1.28321e-06
-9.94871e-07
1.16302e-08
3.21257e-08
-8.42649e-07
-2.53394e-10
4.16279e-08
-1.21456e-06
4.88668e-08
-1.25338e-06
5.11496e-08
-1.27922e-06
4.59266e-08
-1.28448e-06
3.94457e-08
-1.28617e-06
3.19921e-08
-1.28346e-06
2.26047e-08
-1.27806e-06
1.14385e-08
-1.27205e-06
-9.90633e-07
7.73969e-10
4.52612e-08
-8.88331e-07
-9.11219e-10
4.3288e-08
-1.21259e-06
4.50462e-08
-1.25513e-06
4.22438e-08
-1.27642e-06
3.34379e-08
-1.27567e-06
2.52581e-08
-1.27799e-06
1.76248e-08
-1.27583e-06
7.47445e-09
-1.26791e-06
-5.49065e-09
-1.25907e-06
-9.99435e-07
9.95126e-40
3.13201e-08
-9.23623e-07
-4.43391e-13
3.13684e-08
-1.21264e-06
3.6434e-08
-1.2602e-06
3.23702e-08
-1.27236e-06
2.29482e-08
-1.26625e-06
1.39702e-08
-1.26901e-06
7.4438e-09
-1.2693e-06
-1.6048e-09
-1.25887e-06
-1.58309e-08
-1.24482e-06
-1.01743e-06
2.17802e-40
2.59304e-08
-9.51778e-07
-5.41365e-12
2.6196e-08
-1.2129e-06
3.25327e-08
-1.26654e-06
2.57146e-08
-1.26554e-06
1.6102e-08
-1.25664e-06
6.22579e-09
-1.25914e-06
6.43484e-10
-1.26372e-06
-4.57611e-09
-1.25365e-06
-1.8585e-08
-1.2308e-06
-1.03759e-06
3.87936e-42
1.85062e-08
-9.70332e-07
-2.24004e-11
2.47892e-08
-1.21918e-06
3.13251e-08
-1.27307e-06
2.14926e-08
-1.25571e-06
1.13945e-08
-1.24654e-06
3.98398e-10
-1.24814e-06
-6.29238e-09
-1.25703e-06
-4.09054e-09
-1.25585e-06
-1.20112e-08
-1.22288e-06
-1.05055e-06
8.62849e-59
2.13269e-09
-9.72481e-07
1.81699e-34
2.82371e-08
-1.24529e-06
3.19765e-08
-1.27681e-06
1.9134e-08
-1.24286e-06
8.43321e-09
-1.23584e-06
-2.95187e-09
-1.23676e-06
-1.50664e-08
-1.24491e-06
-6.99902e-09
-1.26392e-06
7.69328e-09
-1.23757e-06
-1.04338e-06
4.16706e-66
-1.54422e-08
7.66907e-49
3.30618e-08
2.66161e-08
1.5052e-08
7.15817e-09
-9.78918e-10
-1.39478e-08
-1.42187e-08