/*--------------------------------*- C++ -*----------------------------------*\
  =========                 |
  \\      /  F ield         | OpenFOAM: The Open Source CFD Toolbox
   \\    /   O peration     | Website:  https://openfoam.org
    \\  /    A nd           | Version:  8
     \\/     M anipulation  |
\*---------------------------------------------------------------------------*/
FoamFile
{
    version     2.0;
    format      ascii;
    class       volScalarField;
    location    "3.75";
    object      nut;
}
// * * * * * * * * * * * * * * * * * * * * * * * * * * * * * * * * * * * * * //

dimensions      [0 2 -1 0 0 0 0];

internalField   nonuniform List<scalar> 
9150
(
9.60052e-06
6.40114e-06
6.56242e-06
8.72714e-06
7.53807e-06
7.53532e-06
8.72588e-06
6.56185e-06
6.40047e-06
9.60055e-06
9.4877e-06
5.73356e-06
8.26436e-06
9.86933e-06
7.01361e-06
7.01064e-06
9.86666e-06
8.26382e-06
5.733e-06
9.48769e-06
9.29575e-06
5.49657e-06
1.0786e-05
1.02446e-05
6.66727e-06
6.66448e-06
1.0241e-05
1.07849e-05
5.4961e-06
9.29572e-06
9.08011e-06
5.41918e-06
1.33863e-05
1.02423e-05
6.4812e-06
6.47859e-06
1.02384e-05
1.33838e-05
5.41877e-06
9.08007e-06
8.84529e-06
5.40331e-06
1.56272e-05
1.01509e-05
6.3867e-06
6.38419e-06
1.0147e-05
1.5623e-05
5.40293e-06
8.84525e-06
5.91076e-06
1.12544e-05
1.38237e-05
1.73479e-05
1.6512e-05
1.65102e-05
1.73538e-05
1.3841e-05
1.12674e-05
5.91166e-06
6.27963e-06
8.84564e-06
1.13297e-05
1.52557e-05
1.4286e-05
1.42826e-05
1.52568e-05
1.13387e-05
8.85044e-06
6.27954e-06
6.82976e-06
7.89365e-06
9.36384e-06
1.30286e-05
1.20144e-05
1.20109e-05
1.30283e-05
9.36763e-06
7.89441e-06
6.8296e-06
7.38672e-06
7.28916e-06
7.95793e-06
1.11233e-05
1.01045e-05
1.01014e-05
1.11225e-05
7.95896e-06
7.28856e-06
7.38661e-06
8.07446e-06
6.84005e-06
7.04025e-06
9.6273e-06
8.56758e-06
8.56471e-06
9.62617e-06
7.04004e-06
6.83925e-06
8.0744e-06
1.21596e-05
1.45617e-05
1.2709e-05
1.5512e-05
1.72742e-05
1.73972e-05
1.59209e-05
1.43317e-05
2.02624e-05
1.39665e-05
7.87065e-06
1.07625e-05
1.23378e-05
1.56691e-05
1.73596e-05
1.74389e-05
1.58799e-05
1.25485e-05
1.08382e-05
7.90765e-06
7.45389e-06
1.01586e-05
1.24305e-05
1.58654e-05
1.74435e-05
1.74923e-05
1.6003e-05
1.25413e-05
1.01892e-05
7.4633e-06
7.02834e-06
9.77043e-06
1.24814e-05
1.60256e-05
1.75089e-05
1.75402e-05
1.6111e-05
1.25476e-05
9.81069e-06
7.0324e-06
6.50694e-06
1.00287e-05
1.25054e-05
1.62375e-05
1.74157e-05
1.74305e-05
1.62779e-05
1.254e-05
1.00621e-05
6.50868e-06
8.15072e-06
8.16779e-06
8.17939e-06
8.18423e-06
8.18075e-06
8.16704e-06
8.14081e-06
8.09971e-06
8.0437e-06
7.9781e-06
7.0525e-05
7.03142e-05
7.00352e-05
6.96758e-05
6.92227e-05
6.86599e-05
6.79663e-05
6.7108e-05
6.60218e-05
6.45812e-05
0.000137566
0.000136973
0.000136243
0.000135352
0.000134277
0.000132989
0.000131456
0.000129637
0.000127481
0.000124901
0.000192761
0.00019186
0.000190768
0.000189462
0.000187915
0.000186097
0.000183976
0.000181513
0.00017867
0.000175395
0.000237712
0.000236606
0.000235276
0.0002337
0.000231853
0.00022971
0.000227245
0.00022443
0.000221219
0.000217599
0.000274739
0.000273523
0.000272063
0.000270341
0.000268337
0.000266034
0.00026341
0.000260445
0.000257105
0.000253388
0.000305672
0.000304423
0.000302922
0.000301154
0.000299108
0.000296769
0.000294126
0.000291151
0.000287834
0.000284178
0.000331866
0.000330648
0.000329177
0.000327446
0.000325444
0.000323163
0.000320584
0.000317696
0.000314499
0.000310996
0.000354313
0.000353182
0.000351805
0.000350176
0.000348286
0.000346119
0.000343667
0.000340926
0.0003379
0.000334596
0.000373746
0.000372755
0.000371528
0.000370054
0.000368319
0.000366312
0.000364026
0.000361459
0.000358618
0.000355517
0.000390699
0.000389898
0.000388868
0.000387592
0.000386054
0.000384241
0.000382139
0.000379745
0.00037707
0.000374136
0.000405569
0.000404994
0.000404194
0.000403148
0.000401841
0.000400251
0.000398343
0.000396097
0.000393537
0.000390706
0.000418665
0.000418317
0.000417746
0.000416933
0.000415863
0.000414502
0.000412785
0.000410654
0.00040815
0.000405348
0.000430289
0.000430128
0.000429736
0.000429097
0.000428186
0.000426947
0.000425335
0.000423346
0.000420906
0.000418109
0.00044077
0.000440727
0.000440433
0.000439876
0.000439016
0.000437794
0.00043623
0.000434344
0.000431997
0.000429225
0.000450446
0.000450438
0.000450156
0.000449591
0.000448717
0.000447516
0.000446006
0.00044415
0.000441881
0.000439171
0.00045964
0.000459625
0.000459305
0.00045869
0.000457795
0.000456633
0.000455166
0.000453361
0.000451183
0.000448599
0.000468732
0.000468717
0.000468369
0.00046772
0.000466815
0.00046567
0.000464266
0.000462608
0.000460635
0.00045831
0.000478227
0.000478273
0.000477977
0.00047739
0.000476568
0.000475549
0.000474331
0.000472909
0.000471241
0.000469271
0.00048868
0.000488923
0.000488835
0.000488477
0.000487914
0.000487186
0.000486301
0.000485239
0.000483954
0.000482385
0.000500591
0.000501199
0.000501494
0.000501542
0.000501405
0.000501119
0.000500686
0.000500074
0.000499227
0.000498072
0.000514244
0.000515353
0.00051616
0.000516728
0.000517116
0.000517352
0.000517423
0.000517278
0.000516854
0.00051607
0.000529582
0.000531233
0.000532571
0.00053366
0.000534563
0.000535307
0.000535845
0.000536076
0.000535924
0.000535349
0.000546155
0.000548256
0.000550034
0.000551547
0.000552877
0.000554055
0.000554965
0.000555374
0.000555223
0.000554634
0.000563205
0.000565551
0.000567592
0.000569389
0.000570983
0.000572388
0.000573421
0.000573718
0.000573312
0.000572448
0.00057969
0.000582041
0.000584109
0.000585948
0.000587534
0.000588781
0.000589587
0.000589679
0.000589118
0.00058806
0.000594452
0.000596631
0.000598606
0.000600281
0.000601677
0.000602823
0.00060355
0.000603666
0.000603175
0.00060212
0.000606901
0.000608869
0.000610699
0.000612363
0.000613919
0.000615266
0.000616204
0.000616603
0.000616382
0.000615512
0.00061754
0.000619511
0.000621459
0.000623439
0.000625391
0.000627152
0.000628559
0.000629443
0.000629696
0.000629261
0.000627259
0.000629608
0.000632032
0.000634546
0.000637051
0.000639407
0.000641444
0.000642991
0.000643919
0.000644151
0.000636962
0.000639931
0.000643025
0.000646228
0.000649438
0.000652512
0.00065529
0.000657618
0.000659359
0.000660421
0.000646718
0.000650578
0.000654561
0.000658624
0.000662667
0.000666556
0.000670145
0.000673302
0.000675913
0.000677899
0.000657087
0.000661866
0.000666779
0.000671752
0.000676667
0.000681392
0.000685807
0.000689806
0.000693305
0.000696249
0.00066805
0.000673768
0.000679601
0.000685457
0.000691217
0.000696755
0.00070198
0.00070682
0.000711217
0.000715136
0.000679581
0.000686217
0.000692933
0.000699609
0.000706134
0.00071243
0.000718441
0.000724121
0.00072943
0.000734342
0.00069158
0.000698985
0.000706469
0.000713905
0.000721174
0.000728235
0.000735055
0.000741599
0.000747836
0.000753742
0.000703964
0.000711973
0.000720067
0.00072817
0.00073619
0.000744044
0.000751694
0.000759114
0.000766279
0.000773167
0.000716608
0.000725146
0.000733783
0.000742484
0.000751177
0.000759769
0.00076821
0.000776476
0.000784539
0.000792372
0.000729381
0.000738382
0.00074749
0.000756703
0.000765968
0.000775213
0.000784384
0.000793442
0.000802349
0.000811062
0.00074206
0.000751443
0.000760955
0.000770611
0.000780372
0.000790196
0.000800029
0.00080981
0.000819471
0.000828939
0.000754404
0.000764107
0.000773999
0.000784086
0.000794327
0.000804676
0.000815076
0.000825443
0.000835672
0.000845653
0.000766412
0.000776343
0.000786496
0.000796895
0.000807514
0.00081829
0.000829122
0.000839877
0.000850407
0.000860593
0.00077787
0.000787909
0.000798179
0.000808732
0.000819564
0.000830591
0.000841649
0.000852522
0.00086302
0.000872991
0.000788539
0.00079856
0.000808843
0.000819421
0.000830269
0.000841291
0.000852285
0.000862996
0.000873183
0.000882504
0.000798481
0.000808287
0.000818375
0.000828767
0.000839401
0.000850131
0.000860723
0.000870934
0.000880502
0.000889018
0.000807862
0.000817352
0.000827125
0.000837197
0.000847485
0.000857806
0.000867919
0.000877604
0.000886555
0.000894347
0.000816999
0.000826142
0.000835567
0.000845274
0.000855165
0.000865039
0.000874671
0.000883841
0.0008923
0.000899405
0.000826317
0.000835163
0.000844321
0.000853773
0.0008634
0.000873014
0.000882405
0.000891256
0.000899196
0.00090486
0.000836265
0.000844888
0.000853865
0.000863158
0.000872629
0.000882107
0.000891383
0.000900166
0.000907174
0.000910799
0.00084737
0.000855888
0.000864837
0.000874168
0.000883762
0.000893462
0.000903022
0.000911726
0.000916814
0.000918303
0.000859942
0.000868497
0.00087759
0.00088718
0.000897156
0.000907335
0.000917431
0.000924783
0.000927338
0.000927172
0.000874262
0.000883065
0.000892558
0.000902729
0.000913472
0.000924658
0.000934604
0.000939367
0.000939758
0.000938063
0.000890609
0.000899926
0.000910129
0.000921206
0.000933149
0.000945234
0.000953097
0.000954865
0.000953508
0.000950251
0.000909003
0.000919124
0.00093031
0.000942625
0.00095588
0.000966858
0.000971146
0.000970353
0.000967119
0.00096182
0.000929155
0.000940294
0.000952681
0.000966404
0.000979452
0.000986715
0.000987011
0.000983661
0.000977775
0.000969339
0.000950346
0.000962543
0.000976202
0.000990004
0.000999537
0.00100136
0.000997794
0.000990944
0.000981034
0.000967993
0.000971194
0.000984382
0.000998107
0.00100872
0.00101162
0.00100767
0.000999471
0.000987563
0.000972088
0.000953268
0.000989948
0.00100282
0.00101331
0.0010165
0.00101191
0.00100208
0.000987881
0.000969725
0.000948122
0.00092376
0.00100398
0.00101325
0.00101567
0.00101004
0.000998477
0.000982039
0.000961406
0.000937394
0.000911005
0.000883376
0.00100921
0.00100995
0.0010029
0.000989698
0.000971411
0.000948905
0.000923237
0.000895679
0.000867626
0.000840493
0.00100032
0.000992001
0.000977692
0.00095835
0.000934901
0.000908512
0.000880612
0.000852777
0.000826595
0.000803535
0.000979117
0.000964626
0.000945361
0.000922182
0.000896224
0.000868913
0.000841871
0.000816728
0.000794909
0.000777874
0.000952106
0.000934151
0.000912507
0.000888194
0.000862527
0.000836994
0.000812964
0.000791838
0.000774826
0.000763349
0.000925811
0.00090688
0.000885317
0.000862141
0.000838357
0.000814786
0.000793178
0.000774629
0.000761238
0.000754223
0.000905167
0.000887184
0.00086688
0.000844558
0.000820772
0.000797572
0.000776752
0.000761352
0.000753141
0.000753239
0.000892957
0.000875872
0.000855085
0.000831295
0.000806688
0.00078369
0.000765688
0.000755237
0.000754404
0.000764369
0.000888132
0.000870103
0.00084749
0.000822312
0.000797271
0.000776113
0.000762132
0.000758141
0.000765699
0.000783566
0.000888548
0.000868522
0.000843827
0.000817153
0.000792445
0.000773689
0.000764613
0.000767552
0.000781979
0.000801268
0.000893048
0.000869475
0.000841489
0.000813013
0.000788535
0.000772637
0.000768788
0.00077802
0.000795694
0.000808608
0.000896169
0.000866956
0.000834761
0.000804242
0.000780783
0.00076884
0.000770612
0.000784789
0.000800328
0.000797596
0.00088809
0.000852212
0.00081603
0.000785423
0.000765846
0.000760295
0.000768383
0.000784022
0.00078847
0.000770533
0.000858943
0.000817396
0.000780725
0.000755105
0.000744178
0.000747832
0.000761438
0.000770809
0.000759734
0.000738034
0.000803731
0.00076284
0.000733125
0.000719102
0.000720988
0.000734464
0.000747516
0.000743457
0.000725739
0.000708452
0.000733501
0.000701295
0.00068591
0.000688066
0.0007035
0.000720521
0.000722467
0.00070969
0.000695243
0.000684615
0.00066379
0.000648337
0.000651807
0.000670233
0.000692493
0.00070021
0.000691585
0.000679842
0.000671526
0.000667462
0.00060974
0.00061535
0.000636864
0.000665609
0.000680393
0.000673967
0.000663284
0.000656726
0.000655043
0.000656511
0.000580884
0.00060643
0.000641535
0.000665752
0.000660755
0.000648379
0.00064144
0.000641287
0.000645341
0.000650483
0.000579526
0.000620902
0.000657921
0.000658458
0.000640081
0.000628592
0.000627031
0.000632721
0.000640653
0.000647589
0.000600718
0.000653238
0.000669517
0.000641835
0.000621377
0.000613718
0.000618009
0.000628389
0.000638391
0.000646478
0.000638135
0.000672882
0.000654012
0.000623651
0.000604572
0.000601695
0.000611677
0.000625436
0.000636781
0.000647239
0.000676998
0.000689016
0.000641314
0.000605632
0.000587974
0.000590412
0.000605694
0.000622032
0.000635679
0.000651057
0.000698514
0.000669828
0.000622159
0.00058552
0.00057018
0.000578247
0.000598366
0.000617574
0.00063598
0.000659079
0.000710154
0.000655385
0.0006015
0.000562287
0.000549268
0.000563518
0.000588694
0.000612387
0.00063866
0.000671753
0.000710931
0.000641644
0.000579519
0.000536372
0.000525352
0.000545993
0.000576575
0.000607029
0.000644063
0.000688681
0.000710638
0.000624713
0.000554593
0.000507138
0.000497803
0.000524951
0.000561727
0.000601644
0.000651833
0.000709096
0.000672765
0.000596942
0.000525177
0.000473647
0.000465474
0.000499511
0.000543936
0.000595941
0.000660962
0.000731796
0.000654929
0.000572586
0.000493634
0.000435227
0.000427153
0.000469227
0.000523171
0.000589087
0.000669848
0.00075542
0.000639609
0.000548698
0.000460802
0.000393247
0.000383727
0.000434799
0.000499503
0.000579716
0.000676164
0.00077806
0.000622222
0.000523093
0.000426054
0.000348107
0.000335903
0.000397204
0.000473192
0.000566359
0.000676671
0.000795136
0.000600758
0.000494244
0.000388867
0.000300395
0.000284891
0.000358017
0.000445179
0.000548653
0.000669048
0.000801297
0.000574205
0.000461704
0.000349386
0.000251285
0.000232529
0.000318948
0.000416717
0.000527794
0.000653839
0.00079354
0.000543983
0.000426257
0.000308322
0.00020252
0.000181221
0.000281038
0.0003883
0.000505227
0.000634289
0.000776457
0.00051144
0.000388354
0.000266277
0.000156255
0.000133724
0.000244191
0.00035927
0.000480783
0.000611458
0.000754036
0.000477052
0.000348581
0.000224031
0.000114919
9.2777e-05
0.00020745
0.000328949
0.000454549
0.000585817
0.000727494
0.000439079
0.000305765
0.000181677
8.0383e-05
6.08775e-05
0.00016936
0.000296589
0.000427718
0.000559691
0.000697479
0.000393332
0.000259417
0.000141313
5.45498e-05
3.89352e-05
0.000128429
0.000259853
0.000400912
0.00053785
0.000672247
0.000342191
0.000215178
0.000107758
3.7968e-05
2.59042e-05
8.5699e-05
0.000213754
0.000371016
0.000524874
0.000663916
0.000293505
0.000182313
8.34359e-05
2.83407e-05
1.98402e-05
4.76685e-05
0.000152057
0.00032473
0.000518329
0.00069188
0.000293107
0.000172847
6.38382e-05
2.19611e-05
1.7774e-05
2.44506e-05
7.81914e-05
0.000233388
0.000479786
0.000770215
0.000428748
0.000145178
3.59807e-05
1.71054e-05
1.72802e-05
1.78682e-05
2.55474e-05
8.99542e-05
0.000289131
0.000690484
7.89152e-06
7.78593e-06
7.66092e-06
7.51769e-06
7.3605e-06
7.198e-06
7.0443e-06
6.91841e-06
6.83916e-06
6.81619e-06
6.84334e-06
6.90197e-06
6.97114e-06
7.03668e-06
7.09427e-06
7.12309e-06
7.0968e-06
7.00753e-06
6.88055e-06
6.73467e-06
6.58001e-06
6.4353e-06
6.3188e-06
6.23527e-06
6.17705e-06
6.14153e-06
6.08422e-06
5.96652e-06
5.77645e-06
5.55906e-06
5.3109e-06
5.04553e-06
4.79689e-06
4.70574e-06
1.99833e-05
4.70467e-06
1.99062e-05
1.89696e-05
1.64977e-05
3.50781e-06
6.27135e-05
6.04774e-05
5.80377e-05
5.55334e-05
5.31448e-05
5.10968e-05
4.96273e-05
4.89345e-05
4.91057e-05
5.00655e-05
5.15843e-05
5.33358e-05
5.49554e-05
5.60932e-05
5.65082e-05
5.63091e-05
5.56953e-05
5.46592e-05
5.29756e-05
5.0799e-05
4.86542e-05
4.71077e-05
4.63935e-05
4.62321e-05
4.60803e-05
4.53842e-05
4.41881e-05
4.24791e-05
4.01212e-05
3.67566e-05
3.31113e-05
3.00026e-05
2.8119e-05
2.74778e-05
2.70553e-05
2.61034e-05
2.48353e-05
2.18303e-05
1.51537e-05
4.97119e-06
0.000121711
0.000117932
0.000113802
0.0001095
0.000105289
0.000101509
9.85308e-05
9.66693e-05
9.60613e-05
9.65942e-05
9.79332e-05
9.96289e-05
0.000101231
0.000102361
0.000102768
0.000102354
0.000101108
9.9054e-05
9.62419e-05
9.29088e-05
8.95116e-05
8.65895e-05
8.43986e-05
8.26931e-05
8.10002e-05
7.89185e-05
7.62089e-05
7.28652e-05
6.87864e-05
6.39156e-05
5.86919e-05
5.38854e-05
5.0134e-05
4.71777e-05
4.42572e-05
4.07638e-05
3.61747e-05
2.96138e-05
1.98657e-05
7.24146e-06
0.000171461
0.000166869
0.000161895
0.000156713
0.000151584
0.000146849
0.000142895
0.000140058
0.000138493
0.000138099
0.000138543
0.000139385
0.00014019
0.000140598
0.00014036
0.000139323
0.000137418
0.00013465
0.000131099
0.000126974
0.000122629
0.000118551
0.000115031
0.000111792
0.000108484
0.000104839
0.000100693
9.59663e-05
9.06453e-05
8.4822e-05
7.88281e-05
7.30046e-05
6.75927e-05
6.25236e-05
5.73614e-05
5.16761e-05
4.48619e-05
3.60114e-05
2.39664e-05
9.29955e-06
0.000213325
0.000208385
0.000203075
0.000197545
0.00019202
0.000186802
0.000182247
0.000178689
0.00017629
0.000174973
0.000174425
0.000174246
0.000174054
0.000173532
0.000172448
0.00017065
0.000168057
0.000164651
0.000160488
0.000155703
0.000150576
0.000145545
0.000140896
0.000136331
0.000131606
0.000126549
0.000121065
0.000115117
0.000108733
0.000102021
9.51629e-05
8.82636e-05
8.14943e-05
7.47929e-05
6.78799e-05
6.03501e-05
5.16183e-05
4.07773e-05
2.69018e-05
1.10059e-05
0.000249047
0.000244068
0.00023874
0.000233183
0.000227575
0.000222158
0.000217232
0.000213124
0.000210096
0.000208034
0.00020661
0.000205477
0.000204317
0.000202868
0.000200934
0.000198379
0.000195126
0.000191149
0.000186478
0.000181209
0.000175531
0.000169742
0.000164012
0.00015829
0.000152417
0.000146235
0.00013966
0.000132675
0.000125323
0.000117689
0.000109895
0.000102044
9.41711e-05
8.61754e-05
7.77909e-05
6.86549e-05
5.81787e-05
4.55286e-05
3.00683e-05
1.33716e-05
0.000279943
0.000275113
0.000269962
0.000264583
0.000259104
0.000253696
0.000248567
0.000244048
0.000240622
0.000238029
0.000235899
0.000233944
0.000231927
0.000229649
0.000226951
0.000223723
0.000219897
0.000215444
0.000210377
0.000204751
0.000198676
0.000192328
0.00018584
0.000179239
0.000172467
0.000165421
0.000157999
0.000150185
0.000142028
0.000133631
0.00012508
0.000116435
0.000107674
9.86302e-05
8.90237e-05
7.84631e-05
6.63757e-05
5.20811e-05
3.50806e-05
1.68202e-05
0.000306965
0.000302387
0.000297523
0.000292445
0.000287249
0.000282052
0.000277017
0.000272421
0.000268549
0.00026539
0.000262662
0.000260055
0.000257357
0.00025441
0.000251095
0.000247327
0.000243053
0.000238246
0.000232907
0.000227062
0.000220772
0.000214121
0.000207209
0.00020005
0.000192649
0.000184985
0.000176937
0.000168489
0.000159716
0.000150748
0.000141708
0.000132484
0.000122951
0.000112899
0.000102137
9.01755e-05
7.62099e-05
5.90859e-05
3.8069e-05
1.99047e-05
0.000330809
0.000326523
0.00032199
0.00031727
0.000312436
0.000307574
0.000302778
0.000298221
0.000294083
0.000290439
0.000287195
0.000284078
0.000280864
0.000277413
0.000273634
0.00026947
0.000264882
0.000259845
0.000254349
0.000248402
0.000242029
0.000235269
0.000228169
0.000220765
0.000213063
0.000205016
0.000196564
0.000187733
0.000178655
0.000169358
0.000159789
0.000149919
0.000139566
0.000128539
0.000116457
0.000102704
8.62426e-05
6.51095e-05
3.6505e-05
2.00643e-05
0.000351967
0.000347963
0.000343746
0.000339371
0.000334895
0.000330373
0.000325854
0.000321423
0.000317173
0.000313202
0.000309561
0.000306075
0.000302496
0.000298684
0.000294579
0.000290149
0.000285368
0.000280209
0.000274653
0.000268689
0.000262323
0.000255572
0.000248459
0.000241004
0.000233194
0.000224985
0.000216372
0.000207439
0.00019822
0.00018866
0.000178638
0.000167996
0.000156542
0.000144027
0.000130066
0.000114124
9.52062e-05
7.11516e-05
3.87159e-05
4.75094e-06
0.000370777
0.000366994
0.000363025
0.00035892
0.000354723
0.000350463
0.000346163
0.000341859
0.00033761
0.000333503
0.000329616
0.000325884
0.000322079
0.000318051
0.000313758
0.000309189
0.000304326
0.000299139
0.000293597
0.000287671
0.000281352
0.000274648
0.000267573
0.000260119
0.000252223
0.000243948
0.000235501
0.000226793
0.00021764
0.000207859
0.000197277
0.000185676
0.000172798
0.000158336
0.000141929
0.000123117
0.000101216
7.44125e-05
3.94e-05
4.84783e-06
0.000387458
0.000383802
0.000379976
0.000376032
0.000372005
0.000367912
0.000363764
0.000359577
0.00035539
0.000351264
0.000347236
0.000343355
0.000339464
0.000335353
0.000330995
0.000326393
0.00032154
0.000316405
0.000310944
0.000305105
0.000298862
0.000292224
0.000285211
0.000277805
0.000269961
0.00026179
0.000253476
0.000244949
0.000235888
0.000225955
0.000214873
0.00020237
0.000188094
0.000171636
0.000152596
0.000130566
0.000105151
7.5361e-05
3.90275e-05
4.76521e-06
0.000402125
0.0003985
0.000394719
0.000390837
0.000386889
0.000382894
0.000378858
0.00037479
0.000370704
0.000366634
0.000362606
0.00035866
0.000354723
0.000350587
0.000346212
0.000341629
0.000336833
0.000331795
0.00032646
0.000320753
0.000314621
0.000308087
0.000301188
0.000293921
0.000286255
0.000278264
0.000270057
0.000261533
0.000252428
0.000242404
0.000231046
0.000217957
0.00020272
0.000184805
0.000163552
0.000138461
0.000109369
7.58965e-05
3.75188e-05
4.75397e-06
0.000414866
0.000411212
0.000407413
0.000403526
0.000399593
0.000395642
0.000391692
0.000387755
0.000383814
0.000379864
0.000375921
0.000371955
0.000367937
0.000363751
0.000359358
0.000354785
0.000350026
0.000345051
0.000339811
0.000334236
0.000328287
0.000321947
0.000315237
0.000308176
0.000300734
0.000292934
0.000284833
0.00027631
0.000267099
0.000256907
0.00024534
0.000231949
0.000216263
0.000197714
0.000175596
0.000149014
0.000117788
8.14363e-05
4.0186e-05
4.90514e-06
0.000425966
0.000422283
0.000418457
0.000414554
0.00041062
0.000406688
0.000402784
0.000398917
0.00039507
0.000391212
0.000387309
0.000383296
0.000379171
0.000374905
0.000370477
0.000365882
0.000361103
0.000356124
0.000350909
0.00034541
0.00033961
0.000333483
0.000327007
0.000320177
0.000313002
0.000305435
0.000297436
0.00028887
0.00027952
0.000269134
0.000257359
0.00024377
0.000227871
0.000209087
0.000186732
0.000159972
0.000127751
8.94145e-05
4.49334e-05
5.2327e-06
0.000435951
0.000432286
0.000428465
0.000424558
0.000420613
0.000416665
0.000412737
0.000408832
0.00040493
0.000400992
0.000396983
0.000392887
0.000388675
0.000384326
0.000379835
0.000375182
0.000370342
0.000365308
0.000360067
0.000354588
0.000348844
0.000342806
0.000336456
0.000329778
0.000322748
0.000315304
0.000307346
0.000298715
0.000289246
0.000278697
0.000266739
0.000252971
0.000236909
0.000217972
0.000195461
0.000168511
0.000136029
9.67e-05
4.96147e-05
5.64057e-06
0.000445519
0.000441966
0.000438214
0.000434331
0.000430368
0.00042636
0.000422328
0.000418279
0.000414202
0.000410071
0.000405869
0.000401582
0.000397194
0.000392693
0.000388067
0.000383289
0.000378327
0.000373165
0.000367803
0.000362227
0.000356406
0.000350306
0.000343897
0.000337152
0.00033003
0.000322465
0.000314339
0.000305503
0.000295801
0.000285013
0.000272843
0.000258906
0.000242722
0.000223694
0.000201081
0.000173942
0.000141051
0.000100847
5.21019e-05
6.00277e-06
0.000455511
0.000452196
0.000448606
0.000444799
0.000440822
0.000436717
0.000432514
0.000428237
0.000423889
0.000419463
0.000414952
0.000410355
0.000405666
0.000400879
0.000395983
0.000390946
0.000385728
0.000380304
0.00037467
0.000368822
0.000362724
0.000356331
0.000349602
0.00034251
0.000335022
0.000327053
0.000318482
0.000309212
0.000299114
0.00028798
0.00027553
0.000261397
0.000245102
0.000226029
0.000203399
0.000176205
0.000143133
0.000102506
5.30169e-05
6.23698e-06
0.000466858
0.000463887
0.000460539
0.000456848
0.000452855
0.000448614
0.000444179
0.000439594
0.00043488
0.000430048
0.000425106
0.000420059
0.000414912
0.000409668
0.000404321
0.000398835
0.000393168
0.000387283
0.000381168
0.000374812
0.000368182
0.000361227
0.000353895
0.000346153
0.000337971
0.00032928
0.00032
0.000310059
0.000299353
0.000287707
0.000274863
0.000260467
0.000244041
0.000224965
0.000202435
0.000175418
0.000142565
0.000102175
5.29417e-05
6.33287e-06
0.000480396
0.000477806
0.000474729
0.000471165
0.000467138
0.000462709
0.000457952
0.000452954
0.000447764
0.000442424
0.000436944
0.000431317
0.000425549
0.00041966
0.000413649
0.000407488
0.000401129
0.000394527
0.000387669
0.000380547
0.000373129
0.000365348
0.000357123
0.000348429
0.000339241
0.000329512
0.000319228
0.000308346
0.000296792
0.000284429
0.000271036
0.000256275
0.000239678
0.000220623
0.000198312
0.000171727
0.000139547
0.000100106
5.20669e-05
6.33075e-06
0.000496488
0.000494246
0.000491424
0.000487997
0.000483965
0.000479329
0.000474145
0.000468593
0.000462819
0.000456866
0.00045075
0.000444407
0.000437854
0.000431147
0.000424285
0.000417222
0.000409911
0.000402314
0.000394456
0.000386351
0.000377947
0.000369107
0.000359747
0.000349844
0.000339402
0.000328421
0.000316897
0.000304804
0.000292139
0.000278824
0.000264686
0.00024942
0.000232563
0.000213494
0.000191445
0.000165459
0.000134317
9.64483e-05
5.04464e-05
6.23622e-06
0.000514815
0.000512818
0.000510165
0.000506821
0.000502759
0.000497905
0.000492287
0.000486198
0.000479814
0.000473202
0.000466327
0.000459137
0.000451703
0.000444115
0.00043635
0.000428276
0.000419855
0.00041108
0.000402094
0.000392903
0.000383391
0.000373427
0.000362847
0.000351606
0.000339748
0.000327336
0.000314412
0.000300984
0.00028702
0.000272518
0.000257414
0.000241445
0.000224155
0.000204917
0.000183003
0.000157567
0.00012757
9.16174e-05
4.8223e-05
6.06073e-06
0.00053425
0.000532344
0.000529772
0.000526453
0.000522325
0.000517209
0.000511185
0.000504649
0.000497734
0.000490467
0.000482868
0.000474941
0.000466706
0.00045824
0.00044947
0.000440288
0.000430735
0.000420998
0.000411118
0.000401073
0.000390794
0.000380004
0.000368388
0.00035584
0.000342533
0.000328718
0.000314464
0.000299769
0.000284528
0.000268759
0.000252532
0.000235606
0.000217544
0.000197768
0.000175642
0.000150449
0.000121326
8.71138e-05
4.60829e-05
5.87063e-06
0.000553502
0.000551458
0.000548707
0.000545216
0.000540832
0.000535452
0.000529239
0.000522395
0.000514989
0.000507192
0.000499152
0.00049094
0.000482379
0.000473419
0.000463848
0.000453623
0.000443256
0.000432825
0.00042243
0.000412178
0.000402007
0.000391278
0.000379144
0.000365847
0.000351803
0.000337048
0.000321651
0.000305612
0.000289029
0.000272
0.00025465
0.00023652
0.000217212
0.000196426
0.000173775
0.000148583
0.000120064
8.6909e-05
4.67072e-05
5.7917e-06
0.000571007
0.000568635
0.000565564
0.000561745
0.000557044
0.000551402
0.000544927
0.000537754
0.000530013
0.000522098
0.000514462
0.00050713
0.000499309
0.000490449
0.000480282
0.000469739
0.00045914
0.0004487
0.000438454
0.000428569
0.000418956
0.000408454
0.000396445
0.000383254
0.000369063
0.000353951
0.000337868
0.000320746
0.000302847
0.000284395
0.000265489
0.000245828
0.000225063
0.000203158
0.000180012
0.000154999
0.000126952
9.40911e-05
5.25637e-05
5.99976e-06
0.000586379
0.000583738
0.000580327
0.000576106
0.000571009
0.000565026
0.00055826
0.000550868
0.00054313
0.000535623
0.000528822
0.000522023
0.000514191
0.000505574
0.00049673
0.000487938
0.000478955
0.000470203
0.000461967
0.000453679
0.000444088
0.000432656
0.000420064
0.00040621
0.000391271
0.000375434
0.00035869
0.000340945
0.000322345
0.000302924
0.000282643
0.00026135
0.000238934
0.000215346
0.000190514
0.000164347
0.000135946
0.00010278
5.95693e-05
6.85891e-06
0.000600396
0.000597612
0.000593934
0.000589407
0.000584033
0.000577861
0.000571066
0.00056386
0.000556475
0.000549235
0.000542207
0.00053505
0.000527704
0.000520283
0.00051307
0.000506045
0.000499002
0.000492398
0.00048613
0.000479102
0.000470374
0.000459848
0.000447468
0.000433195
0.000417433
0.000400761
0.000383364
0.000365122
0.000346004
0.00032597
0.000304811
0.000282067
0.000257324
0.000230491
0.000201776
0.00017128
0.000138806
0.000103783
6.11134e-05
7.4575e-06
0.000613937
0.000611267
0.000607631
0.000603093
0.00059775
0.000591716
0.000585164
0.000578408
0.000571592
0.000564669
0.000557684
0.00055055
0.000543302
0.00053614
0.000529216
0.000522557
0.000516232
0.000510582
0.000505351
0.000499312
0.000491677
0.000482137
0.000470196
0.000456069
0.000440578
0.000424404
0.000407676
0.000390184
0.000371548
0.000351988
0.000331361
0.000309153
0.000283697
0.000254487
0.000221791
0.000185811
0.000146765
0.000104857
5.76393e-05
7.56013e-06
0.000628104
0.000625846
0.000622596
0.000618452
0.000613554
0.000608029
0.000602106
0.000596018
0.00058976
0.000583211
0.000576352
0.000569162
0.000561667
0.000554006
0.000546338
0.000538811
0.000531611
0.000524842
0.000517951
0.000509998
0.000500608
0.000489892
0.000478126
0.000465022
0.000450607
0.000435842
0.000421371
0.000407104
0.000392216
0.000375641
0.000357497
0.00033833
0.000315853
0.000288032
0.000254445
0.000215097
0.00016987
0.000119819
6.51097e-05
8.8003e-06
0.000643685
0.000642152
0.000639631
0.000636241
0.000632161
0.000627563
0.000622604
0.000617371
0.000611767
0.000605697
0.000599078
0.000591855
0.000584037
0.000575693
0.000566926
0.00055783
0.000548425
0.00053856
0.000527902
0.000516215
0.00050361
0.000490129
0.000475575
0.000459686
0.000443161
0.000427172
0.000412485
0.000399505
0.000388279
0.000378405
0.000368461
0.000355911
0.000338001
0.000317235
0.000288142
0.000249976
0.000200938
0.000140849
6.9772e-05
9.46778e-06
0.000660857
0.000660326
0.000658864
0.000656585
0.000653672
0.000650315
0.00064657
0.00064242
0.000637755
0.000632358
0.00062622
0.000619228
0.000611325
0.000602492
0.00059273
0.000582017
0.000570274
0.00055734
0.000543033
0.000527309
0.000510304
0.000492089
0.000472606
0.000451919
0.00043065
0.000409747
0.000390095
0.000372498
0.000357823
0.000346911
0.000340298
0.000338239
0.000335512
0.000322729
0.000302735
0.000272193
0.000223943
0.000155556
6.70807e-05
1.02054e-05
0.000679367
0.000680029
0.000679871
0.000678994
0.000677538
0.000675642
0.000673352
0.000670588
0.000667162
0.000662829
0.000657425
0.000650957
0.000643283
0.000634295
0.000623895
0.000611969
0.000598377
0.000582957
0.000565577
0.000546202
0.000524888
0.00050172
0.000476805
0.00045039
0.00042299
0.000395386
0.000368548
0.000343656
0.000322184
0.000305824
0.00029627
0.000295175
0.000302313
0.000305915
0.0002943
0.00027122
0.000233872
0.000174595
8.75115e-05
1.28463e-05
0.00069881
0.000700759
0.000702026
0.000702696
0.000702869
0.000702622
0.000701959
0.000700765
0.000698805
0.000695794
0.000691467
0.000685763
0.000678555
0.000669685
0.000658997
0.000646323
0.000631491
0.000614333
0.000594714
0.000572558
0.000547864
0.000520693
0.00049119
0.000459633
0.000426492
0.000392461
0.000358501
0.000325897
0.000296321
0.000271812
0.000254571
0.000246574
0.000248812
0.000258766
0.000262971
0.000251646
0.000225196