/*--------------------------------*- C++ -*----------------------------------*\
  =========                 |
  \\      /  F ield         | OpenFOAM: The Open Source CFD Toolbox
   \\    /   O peration     | Website:  https://openfoam.org
    \\  /    A nd           | Version:  8
     \\/     M anipulation  |
\*---------------------------------------------------------------------------*/
FoamFile
{
    version     2.0;
    format      ascii;
    class       volVectorField;
    location    "3.75";
    object      U;
}
// * * * * * * * * * * * * * * * * * * * * * * * * * * * * * * * * * * * * * //

dimensions      [0 1 -1 0 0 0 0];

internalField   nonuniform List<vector> 
9150
(
(0.0537423 -0.428882 0)
(0.0879041 -0.622299 0)
(0.0731299 -0.63145 0)
(0.0486627 -0.643717 0)
(0.0170709 -0.654428 0)
(-0.0170024 -0.654438 0)
(-0.0486066 -0.643742 0)
(-0.0730902 -0.631477 0)
(-0.0878827 -0.622327 0)
(-0.0537351 -0.428928 0)
(0.0407155 -0.522841 0)
(0.0573433 -0.625691 0)
(0.0420839 -0.61321 0)
(0.0294158 -0.622451 0)
(0.0105104 -0.628856 0)
(-0.0104641 -0.628861 0)
(-0.0293765 -0.622464 0)
(-0.0420538 -0.613224 0)
(-0.0573226 -0.625701 0)
(-0.0407068 -0.522873 0)
(0.0252034 -0.558005 0)
(0.0324442 -0.61383 0)
(0.0229985 -0.604472 0)
(0.0172727 -0.609988 0)
(0.00625733 -0.613188 0)
(-0.00622737 -0.61319 0)
(-0.0172468 -0.609994 0)
(-0.0229786 -0.60448 0)
(-0.0324286 -0.613833 0)
(-0.0251957 -0.558021 0)
(0.0153277 -0.584744 0)
(0.0174305 -0.607476 0)
(0.0117149 -0.601138 0)
(0.00887763 -0.603281 0)
(0.00324876 -0.604397 0)
(-0.00323161 -0.604398 0)
(-0.00886259 -0.603283 0)
(-0.0117033 -0.601141 0)
(-0.0174208 -0.607476 0)
(-0.0153226 -0.58475 0)
(0.00625196 -0.597164 0)
(0.00554198 -0.601399 0)
(0.00357713 -0.60004 0)
(0.00267962 -0.600347 0)
(0.000995114 -0.600483 0)
(-0.0009894 -0.600483 0)
(-0.0026746 -0.600347 0)
(-0.00357324 -0.60004 0)
(-0.00553855 -0.601399 0)
(-0.00625012 -0.597165 0)
(0.469366 -1.16168 1.57527e-24)
(0.28304 -1.08575 0)
(0.163415 -1.06907 0)
(0.0924589 -1.05742 0)
(0.0307315 -1.0528 0)
(-0.0299768 -1.05291 0)
(-0.091786 -1.05774 0)
(-0.162866 -1.06957 0)
(-0.282662 -1.08641 0)
(-0.469529 -1.1626 -1.58553e-24)
(0.334104 -0.844152 4.34828e-25)
(0.287344 -0.936722 0)
(0.188435 -0.936703 0)
(0.108366 -0.9366 0)
(0.0359414 -0.938984 0)
(-0.0355157 -0.939061 0)
(-0.108001 -0.936811 0)
(-0.188161 -0.937002 0)
(-0.287249 -0.937092 0)
(-0.334219 -0.844616 -4.36885e-25)
(0.279002 -0.702432 7.17633e-26)
(0.259123 -0.804685 0)
(0.178232 -0.817452 0)
(0.104707 -0.828261 0)
(0.034967 -0.836379 0)
(-0.0347112 -0.836424 0)
(-0.104492 -0.828386 0)
(-0.178089 -0.817625 0)
(-0.259082 -0.804878 0)
(-0.279049 -0.702641 -7.23502e-26)
(0.199782 -0.554261 2.73842e-25)
(0.216677 -0.709442 0)
(0.154362 -0.725829 0)
(0.0914196 -0.741959 0)
(0.030616 -0.753875 0)
(-0.0304574 -0.753903 0)
(-0.0912893 -0.742034 0)
(-0.154278 -0.725924 0)
(-0.216655 -0.709542 0)
(-0.199803 -0.554381 -2.73716e-25)
(0.118536 -0.445385 -4.44566e-25)
(0.156299 -0.644279 -6.36706e-25)
(0.116729 -0.66375 -2.15731e-25)
(0.0709634 -0.681171 -1.4142e-25)
(0.0240097 -0.694171 -8.15054e-27)
(-0.0239068 -0.694188 -8.03774e-27)
(-0.0708794 -0.681214 -1.41133e-25)
(-0.116673 -0.663801 -2.15618e-25)
(-0.156279 -0.644331 -6.36657e-25)
(-0.118539 -0.445454 -4.44628e-25)
(0.0246011 -0.904801 0)
(-0.032253 -1.33844 0)
(0.0272208 -1.27124 0)
(-0.00044738 -1.22506 0)
(0.00601846 -1.22296 0)
(-0.00114089 -1.22384 0)
(0.00812457 -1.2249 0)
(-0.0202554 -1.26821 0)
(0.0425966 -1.33939 0)
(-0.0157473 -0.941012 0)
(0.0514249 -0.899846 0)
(-0.0192519 -1.33253 0)
(0.02539 -1.27036 0)
(0.00339317 -1.22396 0)
(0.00266692 -1.22204 0)
(0.00105987 -1.2228 0)
(0.00260882 -1.22392 0)
(-0.021115 -1.26992 0)
(0.0264157 -1.33533 0)
(-0.0477845 -0.915778 0)
(0.0786258 -0.94001 0)
(-0.0211841 -1.34759 0)
(0.0179557 -1.27509 0)
(0.00756533 -1.23107 0)
(0.00113594 -1.22614 0)
(0.0018011 -1.22652 0)
(-0.0038164 -1.23133 0)
(-0.01549 -1.27596 0)
(0.0258706 -1.34908 0)
(-0.0762002 -0.950473 0)
(0.145205 -1.07625 0)
(0.00411748 -1.36604 0)
(0.015507 -1.27125 0)
(0.0227375 -1.22565 0)
(0.00687873 -1.21424 0)
(-0.00468412 -1.21442 0)
(-0.0206123 -1.22622 0)
(-0.0142035 -1.27204 0)
(-0.00103927 -1.36698 0)
(-0.144025 -1.08161 0)
(0.298931 -1.21737 0)
(0.127866 -1.32175 0)
(0.0692291 -1.21007 0)
(0.0567975 -1.16858 0)
(0.0207281 -1.15622 0)
(-0.0194179 -1.15638 0)
(-0.0557019 -1.16913 0)
(-0.0681623 -1.21082 0)
(-0.12639 -1.32248 0)
(-0.298776 -1.21972 0)
(0.0541029 -0.000673732 0)
(0.0546266 -0.000696875 0)
(0.0551519 -0.000711979 0)
(0.0556682 -0.000712373 0)
(0.0561604 -0.000689433 0)
(0.0566065 -0.000631406 0)
(0.0569757 -0.000522104 0)
(0.0572326 -0.000337549 0)
(0.0573319 -5.20968e-05 0)
(0.0571674 0.000330564 0)
(0.0533038 -0.00150116 0)
(0.0536849 -0.0014987 0)
(0.054047 -0.00147325 0)
(0.0543825 -0.00141154 0)
(0.0546813 -0.00129762 0)
(0.0549305 -0.00111205 0)
(0.0551147 -0.000831949 0)
(0.0552139 -0.000430337 0)
(0.0552052 0.000121673 0)
(0.05509 0.000843888 0)
(0.0511346 -0.00213965 0)
(0.0513945 -0.00209192 0)
(0.0516263 -0.00200992 0)
(0.0518236 -0.00187685 0)
(0.0519781 -0.00167348 0)
(0.0520808 -0.00137788 0)
(0.0521209 -0.000964594 0)
(0.0520868 -0.000406207 0)
(0.0519671 0.000327447 0)
(0.0517475 0.0012702 0)
(0.0486432 -0.00257691 0)
(0.0488032 -0.00247379 0)
(0.0489333 -0.00232612 0)
(0.049028 -0.00211456 0)
(0.0490818 -0.00181771 0)
(0.0490897 -0.0014138 0)
(0.0490468 -0.000872125 0)
(0.0489482 -0.000167788 0)
(0.0487906 0.000732452 0)
(0.0485692 0.00186205 0)
(0.0459429 -0.00283187 0)
(0.0460205 -0.00267378 0)
(0.0460678 -0.0024618 0)
(0.046079 -0.00217664 0)
(0.0460504 -0.00179837 0)
(0.045981 -0.00130925 0)
(0.0458731 -0.000680899 0)
(0.0457314 0.000109532 0)
(0.0455596 0.00109984 0)
(0.0453602 0.00232584 0)
(0.0430997 -0.00293671 0)
(0.0431179 -0.00272439 0)
(0.0431001 -0.00244385 0)
(0.0430369 -0.00208078 0)
(0.0429259 -0.00162405 0)
(0.0427711 -0.00106308 0)
(0.04258 -0.000374374 0)
(0.0423636 0.000458904 0)
(0.0421381 0.00147208 0)
(0.0419194 0.00270558 0)
(0.040204 -0.00295393 0)
(0.0402027 -0.00267694 0)
(0.0401449 -0.00230128 0)
(0.0400144 -0.00182799 0)
(0.0398078 -0.00126282 0)
(0.0395319 -0.000609305 0)
(0.0392049 0.000141528 0)
(0.0388514 0.00100112 0)
(0.0384961 0.00199938 0)
(0.0381624 0.00318282 0)
(0.0374101 -0.00300216 0)
(0.0374455 -0.00260996 0)
(0.0373705 -0.0020672 0)
(0.037169 -0.00140593 0)
(0.0368422 -0.000659817 0)
(0.0364069 0.000143029 0)
(0.0358941 0.000987647 0)
(0.0353442 0.0018807 0)
(0.0347983 0.00285378 0)
(0.034292 0.00396242 0)
(0.0350128 -0.00324444 0)
(0.035101 -0.00259995 0)
(0.0349961 -0.0017514 0)
(0.0346914 -0.000773217 0)
(0.0341956 0.000262571 0)
(0.0335385 0.00129183 0)
(0.0327738 0.00227074 0)
(0.0319732 0.00319383 0)
(0.0312073 0.00410402 0)
(0.0305304 0.00507891 0)
(0.033302 -0.00359836 0)
(0.0333409 -0.00252761 0)
(0.033134 -0.00122385 0)
(0.0326637 0.000209823 0)
(0.0319288 0.00165842 0)
(0.0309624 0.00299943 0)
(0.0298502 0.00412941 0)
(0.0287245 0.00501722 0)
(0.0277157 0.00573319 0)
(0.0269108 0.0064034 0)
(0.0317008 -0.00389983 0)
(0.0317173 -0.00229395 0)
(0.0314476 -0.000415547 0)
(0.0308448 0.00162547 0)
(0.0298663 0.00366381 0)
(0.0285176 0.00546614 0)
(0.0269275 0.00677129 0)
(0.0253604 0.00747006 0)
(0.0240727 0.00772111 0)
(0.0231817 0.0077945 0)
(0.0296592 -0.00419709 0)
(0.0297117 -0.00203857 0)
(0.0294873 0.000504763 0)
(0.0288894 0.00334443 0)
(0.0277746 0.00629301 0)
(0.0260121 0.00896515 0)
(0.0237623 0.0106015 0)
(0.0215918 0.0107603 0)
(0.0200201 0.0100541 0)
(0.0191376 0.00914383 0)
(0.026578 -0.00458619 0)
(0.0266424 -0.00200985 0)
(0.0265181 0.00112423 0)
(0.0261094 0.00483037 0)
(0.0252078 0.00906703 0)
(0.0232492 0.0137061 0)
(0.0201316 0.0164708 0)
(0.0171856 0.015055 0)
(0.0155805 0.0124067 0)
(0.0150445 0.0100576 0)
(0.0217074 -0.00466299 0)
(0.0214944 -0.00180585 0)
(0.0211426 0.00177844 0)
(0.0205491 0.00625148 0)
(0.0195285 0.0118145 0)
(0.0180041 0.0184867 0)
(0.0156698 0.0232267 0)
(0.0135436 0.0189707 0)
(0.0125173 0.0141015 0)
(0.012207 0.010271 0)
(0.01544 -0.00390198 0)
(0.0148012 -0.000862162 0)
(0.0141202 0.00299767 0)
(0.0133499 0.00795847 0)
(0.0122116 0.0145684 0)
(0.0112407 0.0210523 0)
(0.011539 0.0250099 0)
(0.0119454 0.0210345 0)
(0.0113971 0.0154025 0)
(0.0109459 0.0104044 0)
(0.00842415 -0.00217693 0)
(0.00732434 0.000848615 0)
(0.00631511 0.00461759 0)
(0.00552485 0.0094395 0)
(0.00511716 0.0159925 0)
(0.00549836 0.0206191 0)
(0.00668305 0.0222553 0)
(0.00792758 0.0204541 0)
(0.00866478 0.0155548 0)
(0.00889932 0.0104695 0)
(0.00138742 0.00054972 0)
(-0.000107282 0.00339578 0)
(-0.00142324 0.00671088 0)
(-0.00235234 0.0106312 0)
(-0.00251935 0.0152877 0)
(-0.00141303 0.0176052 0)
(0.000971321 0.017706 0)
(0.00317333 0.0176242 0)
(0.00426094 0.0139368 0)
(0.0046923 0.0102333 0)
(-0.00505651 0.00379789 0)
(-0.00664845 0.00627467 0)
(-0.00793475 0.00886852 0)
(-0.00867555 0.0115089 0)
(-0.00857792 0.0139377 0)
(-0.00782087 0.0145878 0)
(-0.00683382 0.0137613 0)
(-0.00552403 0.0140587 0)
(-0.00421031 0.0120756 0)
(-0.0034771 0.00961283 0)
(-0.0118563 0.0072415 0)
(-0.01362 0.00918173 0)
(-0.0150526 0.010949 0)
(-0.0160175 0.0124225 0)
(-0.0164415 0.0133868 0)
(-0.0164612 0.0135421 0)
(-0.0162416 0.0128629 0)
(-0.0157446 0.0120011 0)
(-0.0150668 0.0103777 0)
(-0.0144486 0.00838975 0)
(-0.0199187 0.0112847 0)
(-0.0221086 0.0127052 0)
(-0.0240121 0.0137648 0)
(-0.0255514 0.0143871 0)
(-0.0266869 0.0144858 0)
(-0.0274443 0.0139921 0)
(-0.0278892 0.0128914 0)
(-0.028067 0.0113519 0)
(-0.0280235 0.00948072 0)
(-0.0278082 0.00740499 0)
(-0.0297414 0.016407 0)
(-0.0325944 0.0173835 0)
(-0.0352042 0.0178533 0)
(-0.0375064 0.0177839 0)
(-0.0394656 0.0171546 0)
(-0.0410708 0.0159525 0)
(-0.0423197 0.0142273 0)
(-0.0432265 0.0121442 0)
(-0.0438363 0.00980961 0)
(-0.0441559 0.00725499 0)
(-0.0415233 0.0230296 0)
(-0.0452378 0.0236408 0)
(-0.0487384 0.0235908 0)
(-0.0519503 0.0228996 0)
(-0.0548546 0.0216205 0)
(-0.0574497 0.0197111 0)
(-0.0596444 0.0171691 0)
(-0.0613739 0.0143015 0)
(-0.0626841 0.0112472 0)
(-0.0636726 0.00800343 0)
(-0.0552354 0.0315215 0)
(-0.0599669 0.0318827 0)
(-0.064513 0.0313549 0)
(-0.0687539 0.0300604 0)
(-0.0726963 0.0281698 0)
(-0.0763684 0.0255583 0)
(-0.0797054 0.0221802 0)
(-0.0825501 0.0182389 0)
(-0.085004 0.0144376 0)
(-0.0873571 0.0109163 0)
(-0.0705675 0.0420393 0)
(-0.0763206 0.04245 0)
(-0.0819274 0.0412788 0)
(-0.0870546 0.0389365 0)
(-0.0918836 0.0365801 0)
(-0.0969192 0.0337937 0)
(-0.102018 0.0299298 0)
(-0.106407 0.0240774 0)
(-0.109516 0.0198561 0)
(-0.112434 0.0177015 0)
(-0.0877915 0.0543548 0)
(-0.09411 0.0542423 0)
(-0.100054 0.0522061 0)
(-0.105996 0.0495737 0)
(-0.112166 0.0478562 0)
(-0.119123 0.0471161 0)
(-0.126738 0.0426743 0)
(-0.133473 0.0339326 0)
(-0.138665 0.0287787 0)
(-0.142943 0.0245983 0)
(-0.107238 0.0678877 0)
(-0.114233 0.0670986 0)
(-0.121202 0.0648291 0)
(-0.128448 0.0642818 0)
(-0.1369 0.0641532 0)
(-0.144862 0.0624619 0)
(-0.150767 0.0551317 0)
(-0.155077 0.0445846 0)
(-0.158673 0.0374433 0)
(-0.162067 0.0301761 0)
(-0.126591 0.0822797 0)
(-0.133871 0.0822622 0)
(-0.142074 0.0816171 0)
(-0.151306 0.0817236 0)
(-0.159227 0.0800353 0)
(-0.164791 0.073447 0)
(-0.168943 0.0629394 0)
(-0.172309 0.0524854 0)
(-0.175828 0.044288 0)
(-0.17927 0.0365295 0)
(-0.14522 0.0969245 0)
(-0.152747 0.0983738 0)
(-0.161089 0.0990135 0)
(-0.168337 0.0973487 0)
(-0.173759 0.0911918 0)
(-0.177935 0.0809992 0)
(-0.181393 0.0701744 0)
(-0.185172 0.0603521 0)
(-0.189354 0.0515986 0)
(-0.193309 0.0436406 0)
(-0.158314 0.111625 0)
(-0.165966 0.113558 0)
(-0.172593 0.112793 0)
(-0.177796 0.107826 0)
(-0.182048 0.0987515 0)
(-0.185582 0.0883995 0)
(-0.189481 0.0783495 0)
(-0.193952 0.0686333 0)
(-0.19848 0.0599855 0)
(-0.203067 0.0520506 0)
(-0.165409 0.125483 0)
(-0.171639 0.126187 0)
(-0.176689 0.123051 0)
(-0.181051 0.115631 0)
(-0.184581 0.106108 0)
(-0.188375 0.0965933 0)
(-0.192933 0.0872867 0)
(-0.197914 0.0781236 0)
(-0.20322 0.0698717 0)
(-0.208779 0.0624106 0)
(-0.164712 0.138227 0)
(-0.170353 0.137033 0)
(-0.175217 0.131756 0)
(-0.179213 0.123206 0)
(-0.183011 0.114137 0)
(-0.187537 0.105554 0)
(-0.192483 0.0971894 0)
(-0.197953 0.0891223 0)
(-0.203917 0.081562 0)
(-0.210064 0.0745907 0)
(-0.161228 0.149389 0)
(-0.1659 0.146688 0)
(-0.170321 0.139934 0)
(-0.174273 0.131318 0)
(-0.178658 0.123211 0)
(-0.183681 0.115474 0)
(-0.189058 0.107993 0)
(-0.194774 0.100853 0)
(-0.200755 0.0939723 0)
(-0.206948 0.0873785 0)
(-0.154004 0.158766 0)
(-0.158608 0.15548 0)
(-0.162949 0.148328 0)
(-0.167256 0.140499 0)
(-0.172258 0.133217 0)
(-0.177622 0.126182 0)
(-0.183164 0.119292 0)
(-0.188828 0.11256 0)
(-0.194586 0.10602 0)
(-0.20042 0.0997457 0)
(-0.146786 0.167593 0)
(-0.151303 0.164013 0)
(-0.155619 0.157058 0)
(-0.160201 0.150292 0)
(-0.165451 0.143847 0)
(-0.170869 0.13718 0)
(-0.176225 0.130427 0)
(-0.181494 0.123714 0)
(-0.186669 0.117148 0)
(-0.191749 0.11084 0)
(-0.139371 0.176497 0)
(-0.144008 0.173063 0)
(-0.14879 0.166912 0)
(-0.154108 0.160722 0)
(-0.159624 0.154635 0)
(-0.164769 0.147552 0)
(-0.169481 0.140458 0)
(-0.173981 0.133401 0)
(-0.178257 0.126497 0)
(-0.182308 0.119872 0)
(-0.135142 0.184711 0)
(-0.139096 0.182243 0)
(-0.143597 0.177666 0)
(-0.149044 0.171901 0)
(-0.154275 0.164791 0)
(-0.158713 0.156756 0)
(-0.162811 0.148977 0)
(-0.166638 0.141315 0)
(-0.170124 0.133832 0)
(-0.173259 0.126631 0)
(-0.133831 0.192008 0)
(-0.137443 0.190315 0)
(-0.141337 0.186873 0)
(-0.145507 0.181462 0)
(-0.149588 0.173431 0)
(-0.153496 0.16473 0)
(-0.157119 0.156336 0)
(-0.160526 0.147972 0)
(-0.163557 0.139715 0)
(-0.166171 0.131668 0)
(-0.131146 0.199121 0)
(-0.13469 0.197498 0)
(-0.138368 0.194417 0)
(-0.142163 0.188855 0)
(-0.146009 0.18105 0)
(-0.149795 0.172075 0)
(-0.153357 0.163204 0)
(-0.156747 0.154188 0)
(-0.15981 0.145162 0)
(-0.162532 0.136244 0)
(-0.129068 0.206651 0)
(-0.133024 0.20494 0)
(-0.136953 0.201873 0)
(-0.140899 0.196214 0)
(-0.144815 0.188598 0)
(-0.148571 0.179504 0)
(-0.152267 0.170274 0)
(-0.15588 0.160801 0)
(-0.159314 0.151269 0)
(-0.162608 0.141803 0)
(-0.127686 0.215384 0)
(-0.132342 0.213668 0)
(-0.13701 0.210154 0)
(-0.141651 0.204281 0)
(-0.145869 0.196087 0)
(-0.149761 0.187053 0)
(-0.153824 0.177716 0)
(-0.157917 0.168098 0)
(-0.162003 0.158407 0)
(-0.16616 0.148824 0)
(-0.125838 0.224876 0)
(-0.130608 0.223384 0)
(-0.135821 0.220044 0)
(-0.141414 0.213923 0)
(-0.146755 0.205315 0)
(-0.152083 0.196328 0)
(-0.15754 0.186919 0)
(-0.162988 0.177283 0)
(-0.168568 0.167661 0)
(-0.174137 0.158462 0)
(-0.126239 0.235341 0)
(-0.132108 0.234308 0)
(-0.138442 0.231672 0)
(-0.144753 0.225451 0)
(-0.150855 0.217215 0)
(-0.157282 0.208447 0)
(-0.164084 0.199212 0)
(-0.171211 0.189815 0)
(-0.1786 0.180619 0)
(-0.185625 0.172084 0)
(-0.127849 0.248139 0)
(-0.134939 0.247649 0)
(-0.142286 0.244869 0)
(-0.149193 0.238372 0)
(-0.156074 0.230833 0)
(-0.163589 0.222772 0)
(-0.17177 0.214185 0)
(-0.18049 0.205363 0)
(-0.188815 0.196872 0)
(-0.19693 0.188726 0)
(-0.128304 0.262348 0)
(-0.135752 0.2628 0)
(-0.143699 0.259882 0)
(-0.151675 0.253707 0)
(-0.159917 0.247127 0)
(-0.168951 0.240264 0)
(-0.178888 0.233038 0)
(-0.189396 0.225578 0)
(-0.199903 0.217957 0)
(-0.21224 0.209032 0)
(-0.130093 0.2772 0)
(-0.137756 0.278137 0)
(-0.145531 0.275646 0)
(-0.15346 0.270435 0)
(-0.161756 0.264893 0)
(-0.17094 0.259204 0)
(-0.180805 0.253375 0)
(-0.190331 0.247536 0)
(-0.200027 0.240982 0)
(-0.210794 0.229377 0)
(-0.131465 0.292481 0)
(-0.139091 0.293339 0)
(-0.146881 0.291264 0)
(-0.154701 0.287009 0)
(-0.162994 0.282567 0)
(-0.172222 0.277907 0)
(-0.181736 0.273078 0)
(-0.190852 0.268147 0)
(-0.201638 0.261314 0)
(-0.209447 0.23883 0)
(-0.132268 0.307541 0)
(-0.13978 0.308422 0)
(-0.147387 0.30651 0)
(-0.154961 0.302961 0)
(-0.162972 0.299316 0)
(-0.171638 0.295346 0)
(-0.179657 0.291172 0)
(-0.187313 0.286685 0)
(-0.194205 0.275942 0)
(-0.194629 0.239457 0)
(-0.133627 0.322254 0)
(-0.140849 0.323238 0)
(-0.148327 0.321661 0)
(-0.156005 0.318791 0)
(-0.164429 0.315876 0)
(-0.173183 0.312669 0)
(-0.181953 0.309073 0)
(-0.192329 0.302222 0)
(-0.195424 0.274316 0)
(-0.189259 0.229562 0)
(-0.134924 0.336064 0)
(-0.141879 0.337506 0)
(-0.148997 0.336447 0)
(-0.156464 0.334514 0)
(-0.16457 0.332383 0)
(-0.172019 0.330202 0)
(-0.179643 0.327416 0)
(-0.184626 0.31023 0)
(-0.178181 0.26418 0)
(-0.172758 0.219439 0)
(-0.138118 0.34952 0)
(-0.145062 0.351525 0)
(-0.152238 0.351046 0)
(-0.16002 0.349968 0)
(-0.167859 0.348496 0)
(-0.175959 0.346866 0)
(-0.1848 0.338992 0)
(-0.182141 0.300151 0)
(-0.171412 0.244641 0)
(-0.162265 0.207704 0)
(-0.141645 0.36331 0)
(-0.14843 0.365357 0)
(-0.155353 0.365776 0)
(-0.162787 0.365668 0)
(-0.170151 0.365358 0)
(-0.178191 0.36315 0)
(-0.179428 0.336012 0)
(-0.165568 0.277259 0)
(-0.15574 0.227614 0)
(-0.148555 0.195099 0)
(-0.146265 0.376346 0)
(-0.152525 0.37824 0)
(-0.158954 0.37951 0)
(-0.165328 0.380799 0)
(-0.172663 0.38158 0)
(-0.17728 0.364971 0)
(-0.165795 0.314869 0)
(-0.151557 0.250982 0)
(-0.14153 0.211629 0)
(-0.13484 0.182051 0)
(-0.152312 0.388078 0)
(-0.158094 0.390144 0)
(-0.163772 0.392475 0)
(-0.170267 0.395415 0)
(-0.175765 0.388008 0)
(-0.168659 0.34953 0)
(-0.149746 0.281393 0)
(-0.136726 0.228859 0)
(-0.127488 0.195528 0)
(-0.120006 0.167076 0)
(-0.157767 0.399033 0)
(-0.16295 0.401632 0)
(-0.168676 0.405466 0)
(-0.173783 0.403641 0)
(-0.168752 0.375304 0)
(-0.151056 0.31713 0)
(-0.13214 0.247922 0)
(-0.120415 0.208096 0)
(-0.112392 0.178889 0)
(-0.103973 0.151093 0)
(-0.162339 0.409179 0)
(-0.167424 0.413118 0)
(-0.172311 0.414307 0)
(-0.168532 0.39345 0)
(-0.153877 0.346071 0)
(-0.129919 0.273927 0)
(-0.114452 0.221295 0)
(-0.10449 0.189118 0)
(-0.0962994 0.161526 0)
(-0.0876362 0.134375 0)
(-0.163646 0.419689 0)
(-0.168227 0.422484 0)
(-0.165992 0.406755 0)
(-0.15265 0.365873 0)
(-0.129171 0.300727 0)
(-0.108673 0.235767 0)
(-0.0968389 0.199251 0)
(-0.0887875 0.171526 0)
(-0.0802153 0.144362 0)
(-0.0715895 0.117244 0)
(-0.166249 0.427803 0)
(-0.163585 0.416146 0)
(-0.15054 0.381216 0)
(-0.127677 0.323147 0)
(-0.102888 0.252575 0)
(-0.089506 0.211145 0)
(-0.0809966 0.182182 0)
(-0.0730276 0.154849 0)
(-0.0647075 0.127439 0)
(-0.0560997 0.0997386 0)
(-0.159625 0.420955 0)
(-0.146955 0.390542 0)
(-0.125017 0.338882 0)
(-0.0976564 0.268431 0)
(-0.0826293 0.223659 0)
(-0.073626 0.193657 0)
(-0.0660317 0.166267 0)
(-0.0581563 0.138725 0)
(-0.0499356 0.110663 0)
(-0.0411911 0.0818384 0)
(-0.141379 0.397255 0)
(-0.120203 0.348588 0)
(-0.0923656 0.281762 0)
(-0.0764386 0.236167 0)
(-0.0671007 0.205799 0)
(-0.0596249 0.178504 0)
(-0.0520656 0.150925 0)
(-0.0440948 0.122696 0)
(-0.0355761 0.0935313 0)
(-0.0263859 0.063095 0)
(-0.11522 0.354137 0)
(-0.0879633 0.291753 0)
(-0.0720164 0.248395 0)
(-0.0623697 0.218327 0)
(-0.0546657 0.191077 0)
(-0.0471535 0.163445 0)
(-0.0392388 0.135065 0)
(-0.0307706 0.105594 0)
(-0.0215996 0.0747478 0)
(-0.0116293 0.0423179 0)
(-0.0853084 0.299786 0)
(-0.070322 0.260033 0)
(-0.0603847 0.230652 0)
(-0.0521335 0.203253 0)
(-0.0441934 0.175575 0)
(-0.036078 0.147315 0)
(-0.0277659 0.117819 0)
(-0.0190006 0.0869645 0)
(-0.00938586 0.0549824 0)
(0.00148667 0.0212114 0)
(-0.0721668 0.271394 0)
(-0.0620269 0.242212 0)
(-0.0529993 0.214005 0)
(-0.044045 0.185811 0)
(-0.0348646 0.15774 0)
(-0.0254946 0.129988 0)
(-0.0157003 0.101051 0)
(-0.00520056 0.0699595 0)
(0.00686236 0.0361367 0)
(0.0229817 -0.00529956 0)
(-0.0675036 0.253497 0)
(-0.0581269 0.22374 0)
(-0.0483509 0.194559 0)
(-0.0376499 0.166517 0)
(-0.0263445 0.139124 0)
(-0.0138356 0.111647 0)
(0.00259149 0.0784793 0)
(0.0230354 0.039697 0)
(0.0446914 -0.00462109 0)
(0.0679747 -0.050948 0)
(-0.0648872 0.234744 0)
(-0.0542638 0.20345 0)
(-0.0423034 0.173967 0)
(-0.0282907 0.143923 0)
(-0.0100237 0.1089 0)
(0.0127258 0.0703488 0)
(0.0375753 0.026691 0)
(0.0608006 -0.0114311 0)
(0.077481 -0.0536418 0)
(0.0923933 -0.0930774 0)
(-0.0607195 0.214452 0)
(-0.0476303 0.179435 0)
(-0.0299132 0.141329 0)
(-0.00708589 0.0993814 0)
(0.0180048 0.0563372 0)
(0.041711 0.017813 0)
(0.0595778 -0.0163973 0)
(0.0739463 -0.0440607 0)
(0.0851443 -0.0741585 0)
(0.0925946 -0.107052 0)
(-0.0473136 0.185651 0)
(-0.0272061 0.139906 0)
(-0.00438853 0.0928752 0)
(0.0185908 0.0497656 0)
(0.0387902 0.0135755 0)
(0.0566175 -0.0158415 0)
(0.0713841 -0.0407445 0)
(0.0809432 -0.0607002 0)
(0.0882102 -0.0809862 0)
(0.0984893 -0.117029 0)
(-0.0248614 0.142909 0)
(-0.00089826 0.0924147 0)
(0.0211687 0.0489425 0)
(0.0411374 0.0117764 0)
(0.0600987 -0.0202825 0)
(0.077316 -0.0461208 0)
(0.0902958 -0.0639704 0)
(0.100434 -0.0760357 0)
(0.11589 -0.104926 0)
(0.154322 -0.205381 0)
(0.00834199 0.0986763 0)
(0.029635 0.0500121 0)
(0.0500705 0.00938165 0)
(0.0692188 -0.0259897 0)
(0.0881546 -0.0562553 0)
(0.105817 -0.0800163 0)
(0.120554 -0.096257 0)
(0.139894 -0.10914 0)
(0.185327 -0.187315 0)
(0.245179 -0.336534 0)
(0.0464317 0.0577231 0)
(0.0666924 0.0107145 0)
(0.0860333 -0.0284915 0)
(0.103967 -0.0627119 0)
(0.122822 -0.0933751 0)
(0.141319 -0.120561 0)
(0.159415 -0.145789 0)
(0.192187 -0.181424 0)
(0.259605 -0.311223 0)
(0.341489 -0.514346 0)
(0.0846383 0.0139334 0)
(0.10233 -0.0265009 0)
(0.120444 -0.0623273 0)
(0.137315 -0.0966375 0)
(0.156157 -0.130953 0)
(0.176101 -0.165904 0)
(0.197873 -0.206769 0)
(0.238705 -0.28068 0)
(0.332511 -0.477514 0)
(0.438897 -0.732077 0)
(0.110362 -0.0342958 0)
(0.125422 -0.0628679 0)
(0.142725 -0.0944759 0)
(0.160503 -0.130659 0)
(0.181446 -0.171517 0)
(0.204333 -0.21765 0)
(0.234875 -0.281455 0)
(0.294933 -0.423383 0)
(0.411777 -0.691962 0)
(0.49667 -0.9055 0)
(0.124704 -0.0741065 0)
(0.138237 -0.0962461 0)
(0.15555 -0.128643 0)
(0.175865 -0.17066 0)
(0.200422 -0.221642 0)
(0.231281 -0.285142 0)
(0.280702 -0.393498 0)
(0.38121 -0.62174 0)
(0.478859 -0.87057 0)
(0.524 -0.99199 0)
(0.133336 -0.0967356 0)
(0.145073 -0.125647 0)
(0.162371 -0.16651 0)
(0.185015 -0.218835 0)
(0.214294 -0.28239 0)
(0.260647 -0.380759 0)
(0.347384 -0.57257 0)
(0.451687 -0.824303 0)
(0.507478 -0.96978 0)
(0.533805 -1.04254 0)
(0.132935 -0.113044 0)
(0.143609 -0.154483 0)
(0.16055 -0.207553 0)
(0.184201 -0.271979 0)
(0.225813 -0.368973 0)
(0.305399 -0.549251 0)
(0.411018 -0.785664 0)
(0.476467 -0.94345 0)
(0.510212 -1.02795 0)
(0.530407 -1.08022 0)
(0.124476 -0.128094 0)
(0.133203 -0.18201 0)
(0.146833 -0.24885 0)
(0.178636 -0.343033 0)
(0.247165 -0.519449 0)
(0.35417 -0.75725 0)
(0.428585 -0.9251 0)
(0.471365 -1.01704 0)
(0.496613 -1.07403 0)
(0.514089 -1.11265 0)
(0.112097 -0.138963 0)
(0.11498 -0.203372 0)
(0.128991 -0.290635 0)
(0.171225 -0.456071 0)
(0.283228 -0.739942 0)
(0.371768 -0.927288 0)
(0.42158 -1.02053 0)
(0.451112 -1.07514 0)
(0.471947 -1.11394 0)
(0.48694 -1.1403 0)
(0.0979735 -0.143794 0)
(0.0975498 -0.212185 0)
(0.121879 -0.340576 0)
(0.223678 -0.681861 0)
(0.324113 -0.924076 0)
(0.374817 -1.02591 0)
(0.40365 -1.07885 0)
(0.424651 -1.11691 0)
(0.440853 -1.14508 0)
(0.453097 -1.16289 0)
(0.0747528 -0.139966 0)
(0.078699 -0.225603 0)
(0.141385 -0.525055 0)
(0.276758 -0.909319 0)
(0.329023 -1.02735 0)
(0.355799 -1.07964 0)
(0.375724 -1.11817 0)
(0.391698 -1.1487 0)
(0.404765 -1.17031 0)
(0.415001 -1.18169 0)
(0.0437754 -0.127607 0)
(0.0668828 -0.209961 0)
(0.229041 -0.877937 0)
(0.279095 -1.02042 0)
(0.304202 -1.07535 0)
(0.323753 -1.11608 0)
(0.340195 -1.14997 0)
(0.354174 -1.17572 0)
(0.365734 -1.19204 0)
(0.374676 -1.19773 0)
(0.00665717 -0.15012 0)
(0.0897335 -0.661343 0)
(0.208787 -0.968802 0)
(0.250655 -1.06462 0)
(0.27062 -1.11248 0)
(0.288323 -1.14973 0)
(0.303699 -1.17927 0)
(0.316584 -1.20017 0)
(0.327036 -1.21142 0)
(0.335002 -1.21174 0)
(0.00219185 -0.00945413 0)
(0.16175 -0.951226 0)
(0.204143 -1.06552 0)
(0.223676 -1.11248 0)
(0.241393 -1.14887 0)
(0.256969 -1.18072 0)
(0.270243 -1.20568 0)
(0.281431 -1.22196 0)
(0.290422 -1.22844 0)
(0.297029 -1.22375 0)
(0.0298987 -0.582389 0)
(0.155709 -0.988465 0)
(0.185833 -1.09574 0)
(0.199886 -1.14146 0)
(0.214533 -1.17755 0)
(0.227976 -1.20729 0)
(0.239618 -1.22885 0)
(0.249386 -1.24106 0)
(0.257207 -1.24333 0)
(0.263037 -1.23486 0)
(0.0773331 -0.904783 0)
(0.138551 -1.06911 0)
(0.162696 -1.13529 0)
(0.177352 -1.17268 0)
(0.190725 -1.20464 0)
(0.202138 -1.23081 0)
(0.211854 -1.2486 0)
(0.219785 -1.25676 0)
(0.225704 -1.25495 0)
(0.229233 -1.24323 0)
(0.106256 -1.00993 0)
(0.136956 -1.12849 0)
(0.149619 -1.16752 0)
(0.160579 -1.19678 0)
(0.170641 -1.22559 0)
(0.179452 -1.24932 0)
(0.187056 -1.26409 0)
(0.193161 -1.26851 0)
(0.197265 -1.26264 0)
(0.198775 -1.24763 0)
(0.145831 -1.08169 0)
(0.142015 -1.15035 0)
(0.143705 -1.17844 0)
(0.147306 -1.20875 0)
(0.152524 -1.23911 0)
(0.158426 -1.26261 0)
(0.16393 -1.27546 0)
(0.168323 -1.27675 0)
(0.17068 -1.2669 0)
(0.170291 -1.24805 0)
(0.0966185 -1.05523 0)
(0.112985 -1.13906 0)
(0.118822 -1.18131 0)
(0.124539 -1.21818 0)
(0.130582 -1.25056 0)
(0.136255 -1.27356 0)
(0.141084 -1.28457 0)
(0.144827 -1.28315 0)
(0.146795 -1.26968 0)
(0.146671 -1.24606 0)
(0.0800438 -1.07464 0)
(0.0930404 -1.15558 0)
(0.100067 -1.19592 0)
(0.106457 -1.23116 0)
(0.111793 -1.26209 0)
(0.116286 -1.2832 0)
(0.119827 -1.29204 0)
(0.122421 -1.28845 0)
(0.123819 -1.27221 0)
(0.12413 -1.24364 0)
(0.0714746 -1.11777 0)
(0.0798195 -1.1744 0)
(0.0854091 -1.20777 0)
(0.0906569 -1.24099 0)
(0.0950765 -1.27099 0)
(0.0985379 -1.29028 0)
(0.100906 -1.29715 0)
(0.10265 -1.29222 0)
(0.104333 -1.27439 0)
(0.105583 -1.24162 0)
(0.0649636 -1.14597 0)
(0.06922 -1.18596 0)
(0.0728838 -1.21574 0)
(0.0768883 -1.24868 0)
(0.0806544 -1.27823 0)
(0.0832821 -1.2955 0)
(0.0848026 -1.30078 0)
(0.0864068 -1.29604 0)
(0.0893276 -1.28006 0)
(0.0913997 -1.24888 0)
(0.0622432 -1.15196 0)
(0.0610088 -1.18806 0)
(0.0623948 -1.21986 0)
(0.0649754 -1.25461 0)
(0.0677785 -1.28374 0)
(0.0691806 -1.29864 0)
(0.0695152 -1.30265 0)
(0.0701962 -1.29928 0)
(0.0723837 -1.28794 0)
(0.0726748 -1.2645 0)
(0.0461519 -1.14369 0)
(0.0466306 -1.1858 0)
(0.0490676 -1.22299 0)
(0.0524888 -1.25992 0)
(0.0549627 -1.28753 0)
(0.0552812 -1.29936 0)
(0.0545462 -1.30199 0)
(0.0539149 -1.29976 0)
(0.0540578 -1.29277 0)
(0.052359 -1.27871 0)
(0.0299698 -1.13283 0)
(0.0322984 -1.18782 0)
(0.0361984 -1.22964 0)
(0.0405839 -1.26661 0)
(0.0425324 -1.29019 0)
(0.0418067 -1.29818 0)
(0.0401998 -1.29909 0)
(0.0381283 -1.29711 0)
(0.035907 -1.29264 0)
(0.0327798 -1.28442 0)
(0.0128728 -1.14475 0)
(0.0184839 -1.20026 0)
(0.024878 -1.24099 0)
(0.030572 -1.27438 0)
(0.0319229 -1.29103 0)
(0.0301375 -1.29515 0)
(0.0278477 -1.29413 0)
(0.0244632 -1.29137 0)
(0.0202312 -1.28761 0)
(0.0161495 -1.28206 0)
(0.0152834 -1.16306 0)
(0.0182132 -1.21323 0)
(0.0224838 -1.25052 0)
(0.0260217 -1.27892 0)
(0.0250673 -1.28777 0)
(0.021402 -1.28968 0)
(0.0184436 -1.28723 0)
(0.0141146 -1.28292 0)
(0.00840311 -1.27858 0)
(0.00356202 -1.2741 0)
(0.0243347 -1.16662 0)
(0.0218814 -1.21501 0)
(0.0227165 -1.25365 0)
(0.0228275 -1.27815 0)
(0.0199777 -1.28022 0)
(0.0143898 -1.28213 0)
(0.0112312 -1.27934 0)
(0.00680741 -1.27279 0)
(0.000246647 -1.2666 0)
(-0.00508147 -1.26215 0)
(0.0171418 -1.17176 0)
(0.0147444 -1.21371 0)
(0.0181018 -1.25717 0)
(0.017385 -1.2751 0)
(0.0154952 -1.27111 0)
(0.00849247 -1.27373 0)
(0.00567448 -1.27216 0)
(0.0021366 -1.26272 0)
(-0.00446062 -1.25271 0)
(-0.0100962 -1.24705 0)
(0.0143401 -1.17037 0)
(0.0114858 -1.21359 0)
(0.0174677 -1.26395 0)
(0.0131444 -1.27013 0)
(0.0129575 -1.26172 0)
(0.00419611 -1.26458 0)
(0.00180138 -1.26678 0)
(-0.00060339 -1.25527 0)
(-0.00577045 -1.23826 0)
(-0.0109472 -1.22837 0)
(0.0091844 -1.14679 0)
(0.0079922 -1.21458 0)
(0.0204061 -1.27087 0)
(0.0098824 -1.26144 0)
(0.0117187 -1.25154 0)
(0.000785117 -1.25374 0)
(-0.000960736 -1.26158 0)
(-0.0034402 -1.25318 0)
(-0.00351869 -1.22552 0)
(-0.00686461 -1.20346 0)
(0.00405673 -1.0989 0)
(0.000842155 -1.22439 0)
(0.0257742 -1.27482 0)
(0.00735861 -1.24885 0)
(0.0109562 -1.2405 0)
(-0.00207674 -1.24164 0)
(-0.00196334 -1.2517 0)
(-0.00973295 -1.25739 0)
(0.00229828 -1.22018 0)
(-0.000510258 -1.16409 0)
(0.0126265 -1.02561 0)
(-0.0115795 -1.25879 0)
(0.029583 -1.27428 0)
(0.00342193 -1.2349 0)
(0.00922537 -1.23016 0)
(-0.00276946 -1.23093 0)
(0.00246054 -1.23632 0)
(-0.0181943 -1.26569 0)
(0.0154298 -1.24744 0)
(-0.00399762 -1.08711 0)
(0.0566434 0.000832907 0)
(0.055638 0.00145595 0)
(0.0540971 0.00215225 0)
(0.0519693 0.0028848 0)
(0.0492388 0.00357961 0)
(0.0459427 0.00413559 0)
(0.0422018 0.00444307 0)
(0.0382476 0.00440518 0)
(0.0344056 0.00398256 0)
(0.0310023 0.00323623 0)
(0.0282668 0.00229423 0)
(0.0263044 0.00128707 0)
(0.0251149 0.000362264 0)
(0.0245846 -0.000290673 0)
(0.0245269 -0.000763964 0)
(0.0248247 -0.00112286 0)
(0.0253018 -0.00113426 0)
(0.0256936 -0.00070906 0)
(0.0256345 0.000130949 0)
(0.0248514 0.00124017 0)
(0.0232356 0.00225098 0)
(0.0210459 0.0026132 0)
(0.0189824 0.0020938 0)
(0.0176129 0.00106057 0)
(0.0170318 1.60351e-05 0)
(0.0170574 -0.000764227 0)
(0.017508 -0.00116214 0)
(0.0180952 -0.0010479 0)
(0.0184562 -0.000231979 0)
(0.0178659 0.0013879 0)
(0.0157888 0.00323537 0)
(0.0122024 0.00448733 0)
(0.00803849 0.00428728 0)
(0.00494866 0.00284384 0)
(0.00314 0.0015875 0)
(0.00191298 0.000906528 0)
(0.00109882 0.000524141 0)
(0.00060007 0.000277313 0)
(0.000292 0.000149772 0)
(0.000139816 0.000170202 0)
(0.0548187 0.00178845 0)
(0.0543008 0.00297668 0)
(0.0534703 0.00434762 0)
(0.05224 0.00585238 0)
(0.0505355 0.00737702 0)
(0.0483156 0.00873917 0)
(0.0456004 0.00969619 0)
(0.0425119 0.00999848 0)
(0.0392867 0.00950542 0)
(0.0362001 0.00829127 0)
(0.0334614 0.0066024 0)
(0.0311811 0.00472879 0)
(0.0293971 0.00291906 0)
(0.0280965 0.00140879 0)
(0.0272194 0.000282792 0)
(0.0266335 -0.000402518 0)
(0.0261889 -0.000488633 0)
(0.0257574 0.000129451 0)
(0.0252209 0.00139148 0)
(0.0244072 0.00308366 0)
(0.0231179 0.00467561 0)
(0.0214013 0.00524501 0)
(0.0197233 0.00433643 0)
(0.018461 0.00268457 0)
(0.0176064 0.00102025 0)
(0.0170759 -0.00027428 0)
(0.0167746 -0.000961387 0)
(0.0165825 -0.000787524 0)
(0.0163467 0.000596129 0)
(0.0158443 0.00352383 0)
(0.0146469 0.00717941 0)
(0.0124622 0.00989122 0)
(0.00985774 0.00911444 0)
(0.00773387 0.00635046 0)
(0.00600749 0.00407747 0)
(0.00436024 0.00281322 0)