/*--------------------------------*- C++ -*----------------------------------*\
  =========                 |
  \\      /  F ield         | OpenFOAM: The Open Source CFD Toolbox
   \\    /   O peration     | Website:  https://openfoam.org
    \\  /    A nd           | Version:  8
     \\/     M anipulation  |
\*---------------------------------------------------------------------------*/
FoamFile
{
    version     2.0;
    format      ascii;
    class       surfaceScalarField;
    location    "6.45";
    object      phi;
}
// * * * * * * * * * * * * * * * * * * * * * * * * * * * * * * * * * * * * * //

dimensions      [0 3 -1 0 0 0 0];

internalField   nonuniform List<scalar> 
18095
(
1.99563e-08
-1.72102e-07
1.52145e-07
2.31179e-08
-1.97413e-07
1.94251e-07
1.99126e-08
-2.06053e-07
2.09258e-07
1.11457e-08
-2.11067e-07
2.19834e-07
-4.19393e-10
-2.13318e-07
2.24883e-07
-1.18187e-08
-2.13247e-07
2.24646e-07
-2.0266e-08
-2.10913e-07
2.19361e-07
-2.31879e-08
-2.06246e-07
2.09168e-07
-1.99585e-08
-1.97514e-07
1.94285e-07
-1.72127e-07
1.52168e-07
1.55103e-08
-1.87612e-07
1.61988e-08
-1.98102e-07
1.19749e-08
-2.01829e-07
6.04035e-09
-2.05132e-07
-4.14887e-10
-2.06863e-07
-6.28907e-09
-2.07373e-07
-1.18708e-08
-2.05332e-07
-1.61568e-08
-2.0196e-07
-1.55192e-08
-1.98152e-07
-1.87646e-07
6.79498e-09
-1.94407e-07
8.40337e-09
-1.9971e-07
7.45637e-09
-2.00882e-07
4.74745e-09
-2.02423e-07
7.23686e-10
-2.02839e-07
-3.9783e-09
-2.02671e-07
-7.40093e-09
-2.01909e-07
-8.39128e-09
-2.0097e-07
-6.78459e-09
-1.99759e-07
-1.9443e-07
4.52156e-09
-1.98928e-07
4.73572e-09
-1.99924e-07
3.68233e-09
-1.99829e-07
1.58885e-09
-2.0033e-07
-4.60648e-10
-2.0079e-07
-2.17111e-09
-2.0096e-07
-3.65551e-09
-2.00425e-07
-4.70737e-09
-1.99918e-07
-4.50052e-09
-1.99965e-07
-1.98931e-07
1.0716e-09
1.14749e-09
1.31898e-09
9.88989e-10
1.9946e-10
-7.60861e-10
-1.18542e-09
-1.10361e-09
-1.069e-09
-2.8443e-08
-1.95732e-07
2.24175e-07
-3.07409e-08
-1.99118e-07
2.01416e-07
-2.46194e-08
-2.01683e-07
1.95562e-07
-1.23705e-08
-2.02524e-07
1.90275e-07
2.60775e-09
-2.02389e-07
1.87411e-07
1.66949e-08
-2.01851e-07
1.87764e-07
2.66249e-08
-2.00928e-07
1.90998e-07
3.14841e-08
-2.00665e-07
1.95806e-07
2.89195e-08
-1.99099e-07
2.01664e-07
-1.9601e-07
2.2493e-07
-9.29784e-09
-1.86434e-07
-1.49415e-08
-1.93474e-07
-1.28783e-08
-2.03747e-07
-6.75547e-09
-2.08647e-07
-9.83405e-10
-2.08161e-07
4.87698e-09
-2.07711e-07
1.17933e-08
-2.07844e-07
1.4913e-08
-2.03785e-07
9.43239e-09
-1.93619e-07
-1.86578e-07
-9.81696e-09
-1.76617e-07
-8.08371e-09
-1.95208e-07
-7.30043e-09
-2.0453e-07
-6.14064e-09
-2.09806e-07
-1.31954e-09
-2.12982e-07
4.27254e-09
-2.13303e-07
6.81083e-09
-2.10383e-07
7.92157e-09
-2.04895e-07
9.76816e-09
-1.95465e-07
-1.7681e-07
-6.35992e-09
-1.70257e-07
-8.12746e-09
-1.9344e-07
-7.60988e-09
-2.05048e-07
-3.0525e-09
-2.14364e-07
9.11599e-11
-2.16126e-07
3.36417e-09
-2.16576e-07
7.91888e-09
-2.14937e-07
8.36049e-09
-2.05337e-07
6.46195e-09
-1.93567e-07
-1.70348e-07
-1.81116e-08
-1.73006e-08
-1.30901e-08
-7.62016e-09
1.13693e-09
9.20683e-09
1.36301e-08
1.74615e-08
1.81795e-08
3.71178e-08
-1.56266e-07
1.19148e-07
4.20117e-08
-1.97468e-07
1.92574e-07
3.34424e-08
-2.09746e-07
2.18315e-07
2.00729e-08
-2.143e-07
2.2767e-07
1.40788e-09
-2.15348e-07
2.34013e-07
-1.64594e-08
-2.15997e-07
2.33865e-07
-2.85685e-08
-2.15487e-07
2.27596e-07
-3.49743e-08
-2.12178e-07
2.18584e-07
-2.85053e-08
-2.01495e-07
1.95026e-07
-1.61714e-07
1.33209e-07
1.78153e-08
-1.74081e-07
2.05349e-08
-2.00188e-07
1.69256e-08
-2.06137e-07
9.94882e-09
-2.07324e-07
2.10613e-09
-2.07505e-07
-5.94463e-09
-2.07947e-07
-1.24925e-08
-2.08939e-07
-1.60315e-08
-2.08639e-07
-1.4409e-08
-2.03118e-07
-1.76123e-07
8.15866e-09
-1.8224e-07
9.29567e-09
-2.01325e-07
8.74531e-09
-2.05586e-07
5.469e-09
-2.04047e-07
2.16735e-09
-2.04203e-07
-9.45975e-10
-2.04833e-07
-5.49291e-09
-2.04392e-07
-7.16665e-09
-2.06965e-07
-7.56506e-09
-2.02719e-07
-1.83688e-07
8.01053e-09
-1.9025e-07
5.70699e-09
-1.99022e-07
6.90658e-09
-2.06786e-07
2.50036e-09
-1.99641e-07
1.223e-09
-2.02926e-07
-4.46858e-10
-2.03163e-07
-5.32471e-09
-1.99514e-07
-4.45229e-09
-2.07837e-07
-7.41427e-09
-1.99757e-07
-1.91102e-07
3.39243e-08
3.63189e-08
2.50951e-08
1.57288e-08
2.13548e-10
-1.51862e-08
-2.37024e-08
-3.57342e-08
-3.38275e-08
4.44968e-07
1.96409e-08
-4.64609e-07
4.15433e-07
2.95346e-08
3.74813e-07
4.06199e-08
3.31013e-07
4.38004e-08
2.92882e-07
3.81307e-08
2.60625e-07
3.22573e-08
2.34134e-07
2.64905e-08
2.13413e-07
2.07211e-08
1.98568e-07
1.48457e-08
1.05229e-08
1.88045e-07
4.68124e-07
4.04911e-08
-4.88974e-07
4.39951e-07
5.77078e-08
4.05887e-07
7.46837e-08
3.69357e-07
8.03304e-08
3.35069e-07
7.2419e-08
3.04487e-07
6.28393e-08
2.76064e-07
5.49141e-08
2.50747e-07
4.60376e-08
2.27968e-07
3.76249e-08
2.85588e-08
2.09933e-07
4.53039e-07
6.42179e-08
-4.76766e-07
4.28564e-07
8.2183e-08
4.02014e-07
1.01234e-07
3.7102e-07
1.11324e-07
3.37935e-07
1.05505e-07
3.05332e-07
9.54425e-08
2.75321e-07
8.49247e-08
2.47341e-07
7.40184e-08
2.21682e-07
6.32834e-08
5.09601e-08
1.99281e-07
3.94823e-07
8.36872e-08
-4.14292e-07
3.71954e-07
1.05052e-07
3.46375e-07
1.26814e-07
3.19476e-07
1.38223e-07
2.89174e-07
1.35807e-07
2.60538e-07
1.24078e-07
2.38893e-07
1.0657e-07
2.18589e-07
9.4322e-08
1.96242e-07
8.5631e-08
7.58864e-08
1.71316e-07
2.42852e-07
9.03342e-08
-2.49499e-07
2.31833e-07
1.1607e-07
2.21723e-07
1.36924e-07
2.14542e-07
1.45404e-07
2.06503e-07
1.43846e-07
2.0126e-07
1.29322e-07
1.97196e-07
1.10633e-07
1.8865e-07
1.02869e-07
1.7742e-07
9.68605e-08
8.84347e-08
1.64872e-07
1.5919e-07
1.01402e-07
-1.70258e-07
1.51652e-07
1.23607e-07
1.50849e-07
1.37727e-07
1.54715e-07
1.41538e-07
1.61652e-07
1.36909e-07
1.6856e-07
1.22413e-07
1.68555e-07
1.10638e-07
1.65083e-07
1.0634e-07
1.58935e-07
1.03009e-07
9.36826e-08
1.53686e-07
1.28019e-07
1.069e-07
-1.33517e-07
1.25105e-07
1.26521e-07
1.28512e-07
1.3432e-07
1.35497e-07
1.34552e-07
1.44963e-07
1.27443e-07
1.50648e-07
1.16728e-07
1.50027e-07
1.11259e-07
1.46922e-07
1.09445e-07
1.431e-07
1.06831e-07
9.80893e-08
1.38693e-07
1.19275e-07
1.07585e-07
-1.19959e-07
1.22509e-07
1.23289e-07
1.26821e-07
1.30008e-07
1.32906e-07
1.28468e-07
1.38729e-07
1.21621e-07
1.41218e-07
1.14239e-07
1.40998e-07
1.1148e-07
1.39092e-07
1.11351e-07
1.35138e-07
1.10786e-07
1.05329e-07
1.27898e-07
1.19971e-07
1.08541e-07
-1.20926e-07
1.23958e-07
1.19302e-07
1.29956e-07
1.2401e-07
1.34603e-07
1.23821e-07
1.37555e-07
1.18669e-07
1.39503e-07
1.12291e-07
1.4073e-07
1.10252e-07
1.41559e-07
1.10522e-07
1.40401e-07
1.11943e-07
1.12033e-07
1.33697e-07
1.28774e-07
1.10349e-07
-1.30581e-07
1.30364e-07
1.17711e-07
1.33844e-07
1.2053e-07
1.3741e-07
1.20256e-07
1.38947e-07
1.17131e-07
1.40109e-07
1.11129e-07
1.43481e-07
1.0688e-07
1.48479e-07
1.05524e-07
1.55792e-07
1.0463e-07
1.08337e-07
1.59488e-07
1.31402e-07
1.1268e-07
-1.33733e-07
1.31827e-07
1.17285e-07
1.33601e-07
1.18756e-07
1.35398e-07
1.18458e-07
1.37504e-07
1.15026e-07
1.41105e-07
1.07528e-07
1.47792e-07
1.00194e-07
1.56937e-07
9.63791e-08
1.69012e-07
9.25551e-08
9.24218e-08
1.84927e-07
1.31691e-07
1.17165e-07
-1.36176e-07
1.29372e-07
1.19604e-07
1.29968e-07
1.1816e-07
1.31453e-07
1.16972e-07
1.35077e-07
1.11402e-07
1.41449e-07
1.01156e-07
1.51398e-07
9.02438e-08
1.65379e-07
8.2398e-08
1.80696e-07
7.72388e-08
7.49614e-08
1.98156e-07
1.32949e-07
1.25515e-07
-1.41299e-07
1.27767e-07
1.24786e-07
1.24875e-07
1.21052e-07
1.28918e-07
1.12929e-07
1.39703e-07
1.00617e-07
1.54563e-07
8.62959e-08
1.69686e-07
7.51203e-08
1.81667e-07
7.04175e-08
1.90495e-07
6.84105e-08
6.61745e-08
1.99282e-07
1.30222e-07
1.40582e-07
-1.45289e-07
1.20186e-07
1.34821e-07
1.19766e-07
1.21471e-07
1.29544e-07
1.0315e-07
1.47335e-07
8.28264e-08
1.66792e-07
6.68385e-08
1.82831e-07
5.90812e-08
1.92795e-07
6.04539e-08
1.95934e-07
6.52717e-08
6.40771e-08
1.98031e-07
1.26627e-07
1.56625e-07
-1.42671e-07
1.18046e-07
1.43401e-07
1.16777e-07
1.2274e-07
1.2602e-07
9.39071e-08
1.40495e-07
6.83516e-08
1.53629e-07
5.37038e-08
1.65998e-07
4.67127e-08
1.79526e-07
4.69255e-08
1.92517e-07
5.22812e-08
5.63474e-08
2.00247e-07
1.15904e-07
1.4975e-07
-1.0903e-07
1.15695e-07
1.4361e-07
1.15702e-07
1.22733e-07
1.22957e-07
8.66516e-08
1.32815e-07
5.84934e-08
1.44686e-07
4.18329e-08
1.55503e-07
3.58958e-08
1.67488e-07
3.49401e-08
1.79642e-07
4.01272e-08
4.80952e-08
1.87894e-07
8.93612e-08
1.36625e-07
-7.62361e-08
9.95439e-08
1.33428e-07
1.08347e-07
1.1393e-07
1.23744e-07
7.12547e-08
1.37983e-07
4.42542e-08
1.4878e-07
3.10366e-08
1.57476e-07
2.71999e-08
1.634e-07
2.90152e-08
1.70859e-07
3.2669e-08
4.38866e-08
1.75067e-07
5.63439e-08
1.26992e-07
-4.67102e-08
7.1367e-08
1.18406e-07
9.8889e-08
8.64086e-08
1.20783e-07
4.93605e-08
1.33319e-07
3.17183e-08
1.40171e-07
2.41853e-08
1.44622e-07
2.27487e-08
1.49747e-07
2.38898e-08
1.49605e-07
3.28112e-08
5.4005e-08
1.39486e-07
3.42248e-08
1.12785e-07
-2.00172e-08
6.34264e-08
8.92051e-08
9.26579e-08
5.71773e-08
1.06111e-07
3.59081e-08
1.11152e-07
2.66769e-08
1.11938e-07
2.33988e-08
1.10099e-07
2.45883e-08
1.00414e-07
3.35743e-08
8.45155e-08
4.87096e-08
6.48558e-08
7.36646e-08
2.86533e-08
8.98979e-08
-5.76596e-09
5.64888e-08
6.13701e-08
7.09725e-08
4.26938e-08
7.40614e-08
3.28193e-08
7.04089e-08
3.03296e-08
6.36516e-08
3.01561e-08
5.45145e-08
3.37253e-08
3.89663e-08
4.91225e-08
2.0629e-08
6.7047e-08
7.52152e-08
1.02697e-08
2.69755e-08
6.9755e-08
-6.83263e-09
4.03381e-08
4.80074e-08
4.33857e-08
3.9646e-08
4.01433e-08
3.60617e-08
3.40786e-08
3.63943e-08
2.25814e-08
4.16534e-08
5.261e-09
5.10459e-08
-1.20619e-08
6.64456e-08
-2.10208e-08
7.60062e-08
7.67075e-08
-2.25129e-08
2.041e-08
5.62443e-08
-6.89924e-09
2.35143e-08
4.49023e-08
1.92446e-08
4.39155e-08
1.13742e-08
4.39322e-08
4.55221e-10
4.73134e-08
-1.61801e-08
5.82888e-08
-3.09819e-08
6.58478e-08
-3.72249e-08
7.26888e-08
-3.648e-08
7.52616e-08
7.4793e-08
-3.45653e-08
6.81112e-09
4.84159e-08
1.01708e-09
3.45519e-09
4.82572e-08
-7.57704e-09
5.49476e-08
-2.49306e-08
6.12858e-08
-4.17734e-08
6.41565e-08
-5.16213e-08
6.8137e-08
-5.51031e-08
6.933e-08
-5.35649e-08
7.11509e-08
-5.12814e-08
7.29784e-08
7.30565e-08
-4.95448e-08
-3.27399e-08
4.4333e-08
3.68223e-08
-3.85224e-08
5.40392e-08
-5.49824e-08
7.14077e-08
-7.40494e-08
8.03531e-08
-8.5651e-08
7.57585e-08
-8.77028e-08
7.01891e-08
-8.56041e-08
6.72316e-08
-8.14604e-08
6.70074e-08
-7.7406e-08
6.89242e-08
6.88724e-08
-7.32219e-08
-1.23022e-07
3.66531e-08
1.30701e-07
-1.1655e-07
4.75678e-08
-1.13994e-07
6.8851e-08
-1.09548e-07
7.59071e-08
-1.07615e-07
7.38262e-08
-1.05814e-07
6.83877e-08
-1.03463e-07
6.48808e-08
-1.00438e-07
6.39824e-08
-9.48163e-08
6.33027e-08
5.77038e-08
-8.36476e-08
-1.67906e-07
3.39265e-08
1.70632e-07
-1.56243e-07
3.59051e-08
-1.36715e-07
4.93229e-08
-1.20116e-07
5.93086e-08
-1.09036e-07
6.27456e-08
-1.03818e-07
6.31697e-08
-1.01473e-07
6.25365e-08
-9.67712e-08
5.92804e-08
-8.67175e-08
5.32491e-08
3.95266e-08
-6.85402e-08
-1.32074e-07
3.68833e-08
1.29117e-07
-1.30004e-07
3.3835e-08
-1.20779e-07
4.00973e-08
-1.06658e-07
4.5188e-08
-9.23345e-08
4.84221e-08
-9.00882e-08
6.09233e-08
-9.13569e-08
6.38051e-08
-7.9207e-08
4.71305e-08
-6.32796e-08
3.73215e-08
2.23562e-08
-4.61094e-08
-2.19565e-08
3.07417e-08
2.80978e-08
-3.01201e-08
4.19982e-08
-2.34322e-08
3.34094e-08
-2.28402e-08
4.4596e-08
-2.98242e-08
5.54061e-08
-4.10911e-08
7.219e-08
-4.05323e-08
6.32462e-08
-3.70518e-08
4.36499e-08
-2.83559e-08
2.86254e-08
1.41979e-08
-2.01979e-08
4.82677e-08
1.06833e-08
-2.82094e-08
6.31931e-08
2.70729e-08
5.76338e-08
3.89689e-08
5.35992e-08
4.86308e-08
4.79762e-08
6.10292e-08
4.8159e-08
7.20072e-08
4.48372e-08
6.6568e-08
3.6761e-08
5.17261e-08
2.77928e-08
3.75936e-08
2.16956e-08
2.0295e-08
8.59339e-08
1.1575e-08
-8.68256e-08
8.38506e-08
2.91566e-08
8.06366e-08
4.21829e-08
7.49495e-08
5.43178e-08
6.60838e-08
6.98948e-08
6.06394e-08
7.74515e-08
5.75955e-08
6.96119e-08
5.77898e-08
5.15317e-08
5.11331e-08
4.42503e-08
2.96093e-08
4.32194e-08
7.98725e-08
1.33903e-08
-8.16873e-08
7.57193e-08
3.33097e-08
6.87722e-08
4.91301e-08
6.06938e-08
6.23963e-08
5.26977e-08
7.78908e-08
4.72133e-08
8.29359e-08
3.59168e-08
8.09083e-08
4.24103e-08
4.50383e-08
4.32375e-08
4.34229e-08
4.168e-08
3.11664e-08
2.9427e-08
-1.07302e-08
-5.30648e-09
4.49928e-08
1.77442e-08
4.34134e-08
5.07097e-08
3.88163e-08
6.69934e-08
3.44847e-08
8.22224e-08
3.09178e-08
8.65027e-08
2.96443e-08
8.21815e-08
1.14506e-08
6.32316e-08
-4.30458e-09
5.91778e-08
4.97675e-08
-1.23921e-08
3.81003e-08
-5.70345e-09
-4.31272e-08
2.49047e-08
3.09402e-08
1.39734e-08
6.16409e-08
9.72691e-09
7.12398e-08
9.18498e-09
8.27642e-08
7.54496e-09
8.81427e-08
9.16782e-10
8.88097e-08
-1.78302e-08
8.19786e-08
-3.6968e-08
7.83154e-08
7.21631e-08
-5.93638e-08
-7.47247e-09
2.50743e-08
-2.33053e-08
-3.03195e-08
5.37879e-08
-4.69785e-08
7.82998e-08
-5.79885e-08
8.22496e-08
-5.3838e-08
7.86133e-08
-4.73729e-08
8.16773e-08
-4.9405e-08
9.08419e-08
-6.61356e-08
9.87094e-08
-8.67317e-08
9.89118e-08
8.81138e-08
-1.02682e-07
-5.84413e-08
5.21992e-08
3.13165e-08
-7.26919e-08
6.80384e-08
-9.19876e-08
9.75957e-08
-1.04352e-07
9.46139e-08
-1.05649e-07
7.99107e-08
-1.03835e-07
7.98634e-08
-1.20454e-07
1.0746e-07
-1.48216e-07
1.26472e-07
-1.63599e-07
1.14295e-07
6.74519e-08
-1.42937e-07
-1.23481e-07
6.1501e-08
1.1418e-07
-1.22229e-07
6.67857e-08
-1.26181e-07
1.01548e-07
-1.36485e-07
1.04918e-07
-1.53838e-07
9.72634e-08
-1.66225e-07
9.22505e-08
-1.92506e-07
1.33742e-07
-2.17707e-07
1.51673e-07
-2.10425e-07
1.07013e-07
3.77264e-08
-1.80699e-07
-1.97895e-07
6.80608e-08
1.91336e-07
-1.96099e-07
6.49895e-08
-1.75636e-07
8.10852e-08
-1.71576e-07
1.00858e-07
-1.83218e-07
1.08905e-07
-2.09737e-07
1.18769e-07
-2.27063e-07
1.51068e-07
-2.32762e-07
1.57372e-07
-2.22011e-07
9.62624e-08
3.39757e-08
-2.1826e-07
-3.01112e-07
5.7894e-08
3.11278e-07
-2.85711e-07
4.95885e-08
-2.58291e-07
5.36659e-08
-2.28669e-07
7.12354e-08
-2.13262e-07
9.34979e-08
-2.15019e-07
1.20526e-07
-2.10337e-07
1.46386e-07
-2.00406e-07
1.47441e-07
-2.07402e-07
1.03259e-07
4.42392e-08
-2.17666e-07
-3.85743e-07
2.77043e-08
4.15932e-07
-3.51863e-07
1.57092e-08
-3.16979e-07
1.87813e-08
-2.75749e-07
3.00054e-08
-2.3431e-07
5.20587e-08
-2.02997e-07
8.92131e-08
-1.78409e-07
1.21798e-07
-1.55567e-07
1.24599e-07
-1.54639e-07
1.02331e-07
6.11561e-08
-1.71556e-07
-4.05252e-07
-1.16783e-08
4.44635e-07
-3.70181e-07
-1.93619e-08
-3.3487e-07
-1.65292e-08
-2.90401e-07
-1.44641e-08
-2.3046e-07
-7.88177e-09
-1.76875e-07
3.56275e-08
-1.40864e-07
8.57882e-08
-1.15132e-07
9.88666e-08
-1.08006e-07
9.5205e-08
7.92501e-08
-1.261e-07
-3.64602e-07
-7.25417e-08
4.25466e-07
-3.0869e-07
-7.52744e-08
-2.67244e-07
-5.7976e-08
-2.37183e-07
-4.45251e-08
-1.8965e-07
-5.54148e-08
-1.40825e-07
-1.31973e-08
-1.13092e-07
5.80559e-08
-9.52642e-08
8.10388e-08
-8.60771e-08
8.60179e-08
9.04747e-08
-9.73019e-08
-3.74686e-07
-1.41447e-07
4.43591e-07
-3.32505e-07
-1.17455e-07
-2.84621e-07
-1.0586e-07
-2.23719e-07
-1.05427e-07
-1.97359e-07
-8.17743e-08
-1.71544e-07
-3.90119e-08
-1.24742e-07
1.12542e-08
-8.44444e-08
4.07416e-08
-6.09603e-08
6.25341e-08
8.44522e-08
-5.49376e-08
-3.90054e-07
-2.09115e-07
4.57721e-07
-3.30697e-07
-1.76812e-07
-2.79125e-07
-1.57432e-07
-2.46587e-07
-1.37966e-07
-1.99811e-07
-1.2855e-07
-1.49779e-07
-8.90437e-08
-8.36646e-08
-5.48596e-08
-2.97961e-08
-1.31263e-08
5.88168e-09
2.68564e-08
7.17641e-08
1.85698e-08
-2.06361e-07
-2.7629e-07
2.73536e-07
-1.49631e-07
-2.3354e-07
-9.9317e-08
-2.07746e-07
-6.13121e-08
-1.75971e-07
-2.35556e-08
-1.66306e-07
2.57401e-08
-1.38339e-07
7.44473e-08
-1.03567e-07
1.14376e-07
-5.30551e-08
1.33566e-07
7.66682e-09
5.55841e-08
1.49745e-07
2.04552e-07
-3.49673e-07
-1.31169e-07
2.71207e-07
-3.00196e-07
3.30436e-07
-2.66975e-07
3.85146e-07
-2.3068e-07
4.09983e-07
-1.91144e-07
4.27403e-07
-1.55759e-07
4.31286e-07
-1.07451e-07
4.14853e-07
-3.66222e-08
3.984e-07
2.41199e-08
7.00893e-08
3.83895e-07
5.4479e-07
-4.12324e-07
-4.82139e-07
6.23951e-07
-3.79357e-07
6.94935e-07
-3.37959e-07
7.44772e-07
-2.80518e-07
7.71209e-07
-2.1758e-07
7.80331e-07
-1.64881e-07
7.75523e-07
-1.02644e-07
7.56008e-07
-1.71069e-08
7.26008e-07
5.41194e-08
9.41019e-08
7.01996e-07
6.97552e-07
-4.74254e-07
-6.35622e-07
7.55174e-07
-4.36979e-07
7.97145e-07
-3.79929e-07
8.27282e-07
-3.10657e-07
8.47356e-07
-2.37654e-07
8.67087e-07
-1.84612e-07
8.53812e-07
-8.93691e-08
8.12637e-07
2.40676e-08
7.31309e-07
1.35448e-07
1.72853e-07
6.52558e-07
6.92176e-07
-5.29414e-07
-6.37017e-07
7.37095e-07
-4.81897e-07
7.64845e-07
-4.07679e-07
7.93924e-07
-3.39735e-07
7.92515e-07
-2.36246e-07
7.65552e-07
-1.5765e-07
7.10763e-07
-3.45809e-08
6.60444e-07
7.43867e-08
6.09565e-07
1.86327e-07
2.65255e-07
5.17162e-07
4.35232e-07
-5.5404e-07
-4.10605e-07
4.5627e-07
-5.02933e-07
4.75696e-07
-4.27105e-07
4.76522e-07
-3.40562e-07
4.70792e-07
-2.30515e-07
4.16033e-07
-1.02892e-07
3.82672e-07
-1.22065e-09
3.51775e-07
1.05283e-07
3.30797e-07
2.07304e-07
3.51595e-07
2.44457e-07
8.35215e-08
-5.63269e-07
-7.42934e-08
7.08891e-08
-4.90299e-07
5.44553e-08
-4.10671e-07
2.68585e-08
-3.12965e-07
7.4993e-09
-2.11155e-07
-1.37124e-08
-8.16817e-08
-3.87109e-08
2.37777e-08
-7.23473e-08
1.3892e-07
-1.11098e-07
2.46054e-07
3.84176e-07
-1.43679e-07
-2.66085e-07
-5.25058e-07
2.27875e-07
-3.00094e-07
-4.56291e-07
-3.15832e-07
-3.94935e-07
-3.35687e-07
-2.93111e-07
-3.74431e-07
-1.72412e-07
-4.09995e-07
-4.61176e-08
-4.55551e-07
6.93344e-08
-4.8731e-07
1.70679e-07
-5.17285e-07
2.76028e-07
3.37731e-07
-4.70839e-07
-7.08991e-07
-4.31975e-07
6.15908e-07
-7.68063e-07
-3.97216e-07
-7.95148e-07
-3.6785e-07
-8.14181e-07
-2.74079e-07
-8.34523e-07
-1.52071e-07
-8.4569e-07
-3.49514e-08
-8.55564e-07
7.92069e-08
-8.3415e-07
1.49263e-07
-7.43427e-07
1.85304e-07
1.94448e-07
-6.00146e-07
-8.3535e-07
-3.72437e-07
7.75812e-07
-9.04703e-07
-3.27861e-07
-9.52637e-07
-3.19916e-07
-9.71064e-07
-2.5565e-07
-9.63293e-07
-1.59843e-07
-9.00782e-07
-9.74601e-08
-8.1355e-07
-8.02433e-09
-7.26921e-07
6.26359e-08
-6.41447e-07
9.98314e-08
1.04441e-07
-5.5144e-07
-8.76317e-07
-3.60057e-07
8.63937e-07
-9.05846e-07
-2.98335e-07
-9.48017e-07
-2.77745e-07
-9.52953e-07
-2.50714e-07
-9.10307e-07
-2.0249e-07
-8.53361e-07
-1.54407e-07
-7.89408e-07
-7.19806e-08
-7.31099e-07
4.32625e-09
-6.93851e-07
6.25837e-08
8.69062e-08
-6.76317e-07
-8.39399e-07
-3.79508e-07
8.5885e-07
-8.18247e-07
-3.19488e-07
-8.2301e-07
-2.72981e-07
-8.57158e-07
-2.16565e-07
-8.86293e-07
-1.73354e-07
-8.70034e-07
-1.70666e-07
-8.30859e-07
-1.11154e-07
-8.03227e-07
-2.33049e-08
-7.8727e-07
4.66274e-08
6.60142e-08
-7.66377e-07
-8.11525e-07
-3.90015e-07
8.22033e-07
-7.69002e-07
-3.62014e-07
-7.50755e-07
-2.91227e-07
-7.56052e-07
-2.1127e-07
-7.5457e-07
-1.74836e-07
-7.85823e-07
-1.39413e-07
-8.07851e-07
-8.91267e-08
-7.84328e-07
-4.68274e-08
-7.44067e-07
6.36678e-09
2.26998e-08
-7.00753e-07
-6.70955e-07
-4.63848e-07
7.44788e-07
-6.31269e-07
-4.01699e-07
-5.83476e-07
-3.39019e-07
-5.61174e-07
-2.33572e-07
-5.61261e-07
-1.74748e-07
-5.78929e-07
-1.21744e-07
-6.12147e-07
-5.5907e-08
-6.24751e-07
-3.42232e-08
-5.95185e-07
-2.31985e-08
-1.92263e-08
-5.53259e-07
-6.27254e-07
-5.88013e-07
7.5142e-07
-4.62631e-07
-5.66322e-07
-3.37638e-07
-4.64013e-07
-3.17421e-07
-2.53789e-07
-3.26493e-07
-1.65676e-07
-3.46748e-07
-1.0149e-07
-3.53691e-07
-4.89623e-08
-3.62115e-07
-2.57979e-08
-3.77666e-07
-7.64854e-09
-2.21803e-08
-3.74711e-07
-6.16259e-07
-6.77631e-07
7.05878e-07
-4.62662e-07
-7.19917e-07
-2.95984e-07
-6.30691e-07
-1.65132e-07
-3.8464e-07
-1.73799e-07
-1.57008e-07
-2.04437e-07
-7.08523e-08
-1.97777e-07
-5.56216e-08
-1.76768e-07
-4.68047e-08
-2.1226e-07
2.78415e-08
2.84009e-08
-2.6284e-07
-3.83627e-07
-6.49006e-07
3.55003e-07
-3.39433e-07
-7.6411e-07
-2.28205e-07
-7.41919e-07
-1.04633e-07
-5.08212e-07
-8.48514e-08
-1.76789e-07
-1.2905e-07
-2.66529e-08
-1.67587e-07
-1.70849e-08
-1.97919e-07
-1.64709e-08
-1.95009e-07
2.49324e-08
2.36872e-08
-1.90295e-07
-1.67284e-07
-6.38548e-07
1.56826e-07
-1.41268e-07
-7.90125e-07
-1.13408e-07
-7.6978e-07
-7.48063e-08
-5.46814e-07
-6.61589e-08
-1.85437e-07
-1.51518e-07
5.87064e-08
-2.19122e-07
5.05185e-08
-2.73132e-07
3.75394e-08
-2.72472e-07
2.42735e-08
8.73841e-09
-2.57524e-07
-8.76164e-08
-6.89591e-07
1.3866e-07
-6.67903e-08
-8.10948e-07
-5.79098e-08
-7.7866e-07
-8.02222e-08
-5.24501e-07
-1.43769e-07
-1.21889e-07
-2.5668e-07
1.71618e-07
-3.12968e-07
1.06807e-07
-3.55659e-07
8.023e-08
-4.06423e-07
7.50372e-08
4.61067e-08
-4.43792e-07
-1.39887e-07
-7.63588e-07
2.13884e-07
-1.05996e-07
-8.44839e-07
-1.12446e-07
-7.7221e-07
-1.643e-07
-4.72648e-07
-2.28341e-07
-5.7848e-08
-2.73875e-07
2.17152e-07
-3.40505e-07
1.73437e-07
-3.81082e-07
1.20808e-07
-4.12629e-07
1.06584e-07
9.11672e-08
-4.57688e-07
-3.55968e-07
-7.53842e-07
3.46223e-07
-3.76021e-07
-8.24785e-07
-3.60962e-07
-7.87268e-07
-3.30261e-07
-5.0335e-07
-3.00176e-07
-8.79326e-08
-2.2509e-07
1.42065e-07
-2.55991e-07
2.04338e-07
-3.11693e-07
1.7651e-07
-3.47024e-07
1.41914e-07
1.30833e-07
-3.8669e-07
-5.48914e-07
-6.29962e-07
4.25035e-07
-5.82611e-07
-7.91088e-07
-5.47047e-07
-8.22833e-07
-3.89125e-07
-6.6127e-07
-2.73247e-07
-2.0381e-07
-1.84258e-07
5.30762e-08
-1.53952e-07
1.74032e-07
-1.81274e-07
2.03833e-07
-2.28766e-07
1.89406e-07
1.61622e-07
-2.59554e-07
-6.87446e-07
-4.13935e-07
4.71418e-07
-7.06347e-07
-7.72191e-07
-6.61153e-07
-8.68028e-07
-4.8455e-07
-8.37874e-07
-1.78116e-07
-5.10244e-07
-4.47439e-08
-8.02955e-08
2.58931e-08
1.03394e-07
-1.22596e-08
2.41986e-07
-8.55796e-08
2.62726e-07
2.0936e-07
-1.33318e-07
-3.79054e-07
-7.09774e-08
3.60958e-08
-6.35043e-07
-5.16198e-07
-6.44344e-07
-8.58725e-07
-5.45487e-07
-9.36731e-07
-2.24992e-07
-8.30739e-07
5.00264e-08
-3.55314e-07
1.22787e-07
3.06341e-08
2.15243e-07
1.4953e-07
1.74696e-07
3.03273e-07
2.93038e-07
9.10174e-08
1.2527e-07
1.32992e-07
-3.29241e-07
-2.82835e-07
-1.08094e-07
-4.70739e-07
-6.70821e-07
-4.32302e-07
-9.75168e-07
-2.72754e-07
-9.90286e-07
6.11768e-08
-6.89245e-07
8.744e-08
4.37065e-09
1.85418e-07
5.15519e-08
2.63608e-07
2.25082e-07
2.71501e-07
2.85146e-07
3.87164e-07
6.59038e-08
-3.20075e-07
1.29919e-07
1.49152e-07
-2.36529e-07
-3.04371e-07
-2.74863e-07
-9.36834e-07
-2.32362e-07
-1.03279e-06
-2.92397e-08
-8.92367e-07
-1.67809e-08
-8.08792e-09
9.28139e-09
2.54898e-08
1.29428e-07
1.04936e-07
1.7992e-07
2.21009e-07
3.24655e-07
4.83109e-08
-3.07062e-07
2.78013e-07
1.95794e-07
-2.08533e-08
-5.50363e-09
-1.28642e-07
-8.29045e-07
-1.35015e-07
-1.02641e-06
-7.19115e-08
-9.55471e-07
-5.50125e-08
-2.49872e-08
-5.31253e-08
2.3603e-08
6.12812e-09
4.56827e-08
7.8949e-08
1.07099e-07
2.70857e-07
3.69266e-08
-2.59472e-07
3.06376e-07
1.60275e-07
9.97783e-08
2.01096e-07
-3.71981e-08
-6.92067e-07
-3.74983e-08
-1.02611e-06
-9.27003e-09
-9.83699e-07
3.7377e-08
-7.16348e-08
1.03948e-09
5.99403e-08
-8.55746e-09
5.52791e-08
5.9516e-08
1.08753e-08
1.05575e-07
5.79489e-08
-1.26598e-07
9.49318e-08
1.70918e-07
2.89741e-08
2.67054e-07
8.71104e-08
-7.50204e-07
2.2327e-08
-9.61328e-07
1.51121e-08
-9.76484e-07
1.77726e-07
-2.34248e-07
7.0406e-08
1.67261e-07
1.7862e-08
1.07823e-07
6.36871e-08
1.36909e-08
-2.27149e-07
1.26464e-07
1.58634e-07
-2.99118e-07
2.42886e-07
-1.60381e-07
1.28319e-07
-1.82423e-08
-8.92341e-07
-1.29997e-08
-9.66571e-07
-3.39347e-08
-9.55549e-07
2.55785e-07
-5.23969e-07
2.31825e-07
1.91222e-07
1.61346e-07
1.78304e-07
1.16483e-07
1.0855e-07
-2.99169e-07
5.05743e-08
3.75059e-07
-1.822e-07
1.25917e-07
-8.69374e-08
3.30563e-08
-5.21757e-10
-9.78758e-07
-1.60477e-09
-9.65488e-07
1.36338e-09
-9.58517e-07
2.09395e-07
-7.32e-07
2.49875e-07
1.50743e-07
1.44676e-07
2.83503e-07
1.5168e-07
1.0948e-07
-1.79994e-07
-1.01924e-07
3.32496e-07
-9.77974e-08
4.37217e-08
-7.7049e-09
-5.70343e-08
1.83291e-08
-1.00479e-06
-2.92996e-10
-9.46865e-07
-1.34673e-08
-9.45343e-07
-1.84422e-08
-7.27025e-07
-1.59501e-07
2.91801e-07
-7.89086e-08
2.02911e-07
8.5633e-08
-1.28622e-08
-5.20683e-07
-4.79789e-08
4.66747e-07
-4.22869e-07
-5.41694e-08
-1.62232e-08
-4.63677e-07
-3.72321e-08
-9.83782e-07
-1.22224e-08
-9.71875e-07
6.88455e-09
-9.6445e-07
1.82235e-08
-7.38363e-07
-6.22277e-08
3.72253e-07
-5.18034e-08
1.92487e-07
4.10592e-08
-7.22965e-09
-2.4269e-07
-7.00127e-08
2.64735e-07
-1.08406e-07
-1.88472e-07
8.67454e-08
-6.58831e-07
5.42848e-08
-9.51325e-07
9.75115e-09
-9.27341e-07
-1.95613e-08
-9.35137e-07
2.15267e-08
-7.79451e-07
-3.54056e-08
4.29185e-07
-3.86678e-08
1.95749e-07
4.56444e-08
-4.32534e-08
2.21428e-08
-7.07689e-08
-2.13859e-08
1.2517e-08
-1.78819e-07
2.48637e-08
-6.71169e-07
1.99368e-09
-9.28466e-07
-1.68194e-08
-9.08528e-07
-4.67797e-08
-9.05177e-07
5.3285e-08
-8.79515e-07
1.37947e-07
3.44524e-07
1.64172e-07
1.69524e-07
7.78247e-08
1.31994e-07
1.28466e-07
-2.58555e-08
-1.73379e-07
6.19826e-08
-1.12324e-07
2.4239e-08
-6.33405e-07
2.69542e-09
-9.06917e-07
-1.6192e-08
-8.89641e-07
-3.5703e-08
-8.85665e-07
-1.69004e-08
-8.98319e-07
1.97097e-07
1.30526e-07
3.73462e-07
-6.84089e-09
1.83015e-07
2.6827e-07
1.71703e-07
5.42968e-08
-2.51853e-07
8.12959e-08
-2.19776e-08
5.97106e-08
-6.11842e-07
3.73464e-08
-8.84553e-07
2.03937e-08
-8.72688e-07
-2.35605e-09
-8.62915e-07
-8.60202e-10
-8.99814e-07
6.08312e-08
6.88367e-08
4.89044e-08
5.08615e-09
-1.90208e-07
4.22129e-07
1.51211e-07
1.26972e-07
-2.23887e-07
9.12476e-08
3.79938e-08
9.13933e-08
-6.11986e-07
7.10183e-08
-8.64181e-07
3.82292e-08
-8.39899e-07
1.98493e-08
-8.44536e-07
-1.77934e-08
-8.62171e-07
1.32365e-07
-8.13222e-08
-2.8232e-07
4.19757e-07
1.22343e-08
-4.84746e-07
9.36945e-08
1.70755e-07
-1.37485e-07
6.42288e-08
6.74503e-08
6.97316e-08
-6.17483e-07
4.80927e-08
-8.42538e-07
2.51399e-08
-8.16946e-07
3.81717e-09
-8.23213e-07
-2.35835e-08
-8.34769e-07
3.72589e-07
-4.77489e-07
5.24468e-07
2.67872e-07
2.35663e-07
3.01042e-07
7.17059e-08
1.95567e-07
-9.65199e-08
6.02078e-08
7.89257e-08
6.08477e-08
-6.18128e-07
3.58462e-08
-8.17547e-07
1.0583e-08
-7.91683e-07
-1.83157e-08
-7.94315e-07
-3.70265e-08
-8.16057e-07
1.12e-07
-6.26509e-07
2.75373e-07
1.04477e-07
8.197e-08
4.29059e-07
4.22576e-08
2.00678e-07
-4.73681e-08
4.89231e-08
7.22856e-08
4.28741e-08
-6.12055e-07
1.9076e-08
-7.93744e-07
4.48125e-10
-7.73056e-07
-2.05998e-08
-7.73267e-07
-4.26761e-08
-7.93981e-07
-5.67365e-08
-6.12449e-07
1.61407e-07
-1.1365e-07
-6.95357e-08
3.1288e-07
4.23923e-08
1.87709e-07
-2.94298e-08
6.24144e-08
5.2227e-08
5.25591e-08
-6.02236e-07
2.75718e-08
-7.68761e-07
-6.37107e-10
-7.44847e-07
-3.00046e-08
-7.43899e-07
-5.52009e-08
-7.68786e-07
-4.88204e-08
-6.18838e-07
2.77518e-08
-1.90221e-07
-1.18581e-07
7.68094e-08
4.58859e-08
1.64048e-07
-2.22245e-08
6.73575e-08
3.07687e-08
5.15484e-08
-5.86426e-07
2.41137e-08
-7.41319e-07
4.04375e-09
-7.24777e-07
-1.61199e-08
-7.23735e-07
-4.27008e-08
-7.42206e-07
-5.73537e-08
-6.04177e-07
-4.28534e-08
-2.04718e-07
-1.40647e-07
-2.07879e-08
8.23662e-08
1.47282e-07
-6.56062e-08
8.75224e-08
2.55742e-08
6.99804e-08
-5.68908e-07
4.35386e-08
-7.14878e-07
1.0814e-08
-6.92052e-07
-1.96295e-08
-6.93292e-07
-4.6448e-08
-7.15386e-07
-6.76498e-08
-5.82975e-07
-6.35629e-08
-2.08804e-07
-1.51998e-07
-5.22157e-08
6.54419e-08
1.15602e-07
-3.37661e-08
7.74104e-08
1.35833e-08
5.49007e-08
-5.4641e-07
2.59694e-08
-6.8596e-07
5.76598e-09
-6.71849e-07
-1.54397e-08
-6.72086e-07
-4.44606e-08
-6.86365e-07
-7.56408e-08
-5.51795e-07
-7.66074e-08
-2.07857e-07
-1.56796e-07
-7.17935e-08
9.29764e-08
7.07847e-08
-4.81655e-08
9.39942e-08
1.25522e-08
6.44764e-08
-5.16884e-07
3.59483e-08
-6.57431e-07
1.26907e-09
-6.37169e-07
-3.27318e-08
-6.38085e-07
-6.19016e-08
-6.57195e-07
-9.5386e-08
-5.18306e-07
-8.55411e-08
-2.17703e-07
-1.63612e-07
-7.87253e-08
1.18256e-08
2.94326e-08
2.95132e-08
6.66668e-08
-4.23173e-08
5.52318e-08
-5.05469e-07
2.38011e-08
-6.25998e-07
-1.52588e-09
-6.11842e-07
-2.4187e-08
-6.15424e-07
-5.45271e-08
-6.26855e-07
-8.07733e-08
-4.92059e-07
-6.99703e-08
-2.28485e-07
-1.64353e-07
-6.92348e-08
-4.75218e-08
-1.07261e-08
8.76779e-08
5.45203e-08
-1.44384e-07
6.97398e-08
-5.20698e-07
3.55158e-08
-5.91774e-07
1.06882e-08
-5.87015e-07
-2.64699e-08
-5.78266e-07
-6.12297e-08
-5.92095e-07
-5.34735e-08
-4.99812e-07
-4.25893e-08
-2.39365e-07
-1.54994e-07
-5.19585e-08
-1.30172e-08
-2.21285e-08
2.44158e-08
3.26515e-08
-1.90019e-07
5.85479e-08
-5.46608e-07
3.12357e-08
-5.64462e-07
-2.50791e-09
-5.53271e-07
-1.7287e-08
-5.63487e-07
-5.20104e-08
-5.57371e-07
-2.66183e-08
-5.25204e-07
-2.1606e-08
-2.44384e-07
-1.26296e-07
-5.02935e-08
6.07202e-08
-1.87026e-08
-6.4151e-08
5.23922e-08
-1.81652e-07
1.89769e-08
-5.13192e-07
-1.76851e-08
-5.278e-07
-4.56935e-08
-5.25263e-07
-8.33935e-08
-5.25787e-07
-1.12254e-07
-5.2851e-07
-1.05957e-07
-5.31502e-07
-9.91269e-08
-2.51223e-07
-1.35296e-07
-9.01313e-08
1.24843e-07
-2.78542e-08
-1.15695e-07
1.2937e-07
-1.86233e-07
8.28785e-08
-4.66698e-07
4.23825e-08
-4.87304e-07
8.2155e-09
-4.91096e-07
-3.14985e-08
-4.86073e-07
-6.66592e-08
-4.9335e-07
-1.11105e-07
-4.87055e-07
-1.10979e-07
-2.51334e-07
-1.37956e-07
-1.08307e-07
1.16667e-07
-2.74225e-08
-1.1711e-07
9.79085e-08
-1.67495e-07
7.24973e-08
-4.41285e-07
3.69952e-08
-4.51802e-07
1.24135e-09
-4.55342e-07
-3.422e-08
-4.50611e-07
-7.80923e-08
-4.49477e-07
-1.30449e-07
-4.347e-07
-1.40673e-07
-2.41121e-07
-1.54275e-07
-1.24368e-07
1.22665e-07
-4.4392e-08
-1.05696e-07
1.43541e-07
-1.88381e-07
8.4813e-08
-3.82551e-07
3.21678e-08
-3.99157e-07
-1.42203e-08
-4.08954e-07
-5.38797e-08
-4.10952e-07
-9.40632e-08
-4.09294e-07
-1.37654e-07
-3.9111e-07
-1.20182e-07
-2.58588e-07
-1.76377e-07
-9.80733e-08
9.5445e-08
-7.92246e-08
-6.06084e-08
1.55121e-07
-2.48087e-07
1.13016e-07
-3.40446e-07
7.63341e-08
-3.62475e-07
3.5541e-08
-3.68161e-07
-8.62134e-09
-3.6679e-07
-6.04165e-08
-3.57499e-07
-1.05819e-07
-3.45707e-07
-5.91782e-08
-3.05233e-07
-1.70775e-07
-6.47876e-08
9.98328e-08
-9.57243e-08
-8.33344e-08
1.34226e-07
-2.82484e-07
9.29372e-08
-2.99157e-07
4.31511e-08
-3.12689e-07
-1.12154e-08
-3.13794e-07
-6.43175e-08
-3.13688e-07
-1.06841e-07
-3.14975e-07
-1.50888e-07
-3.0166e-07
-1.70701e-07
-2.85419e-07
-1.65637e-07
-1.75841e-07
2.25557e-07
-1.88773e-07
-1.32511e-07
1.61594e-07
-2.18521e-07
1.16239e-07
-2.53802e-07
6.2245e-08
-2.58695e-07
8.47816e-09
-2.60027e-07
-4.27585e-08
-2.62451e-07
-9.34001e-08
-2.64333e-07
-1.39277e-07
-2.55783e-07
-2.02757e-07
-2.21939e-07
-2.29278e-07
-1.3912e-07
1.29584e-07