/*--------------------------------*- C++ -*----------------------------------*\
  =========                 |
  \\      /  F ield         | OpenFOAM: The Open Source CFD Toolbox
   \\    /   O peration     | Website:  https://openfoam.org
    \\  /    A nd           | Version:  8
     \\/     M anipulation  |
\*---------------------------------------------------------------------------*/
FoamFile
{
    version     2.0;
    format      ascii;
    class       volVectorField;
    location    "2.2";
    object      U;
}
// * * * * * * * * * * * * * * * * * * * * * * * * * * * * * * * * * * * * * //

dimensions      [0 1 -1 0 0 0 0];

internalField   nonuniform List<vector> 
9150
(
(0.00499542 -0.0779232 0)
(0.0130182 -0.0974415 0)
(0.010838 -0.104112 0)
(0.00842299 -0.107989 0)
(0.00249479 -0.109229 0)
(-0.00208389 -0.109213 0)
(-0.00859757 -0.107813 0)
(-0.0108691 -0.104119 0)
(-0.0130193 -0.0974459 0)
(-0.00497088 -0.0779155 0)
(0.00600299 -0.09206 0)
(0.00862611 -0.100489 0)
(0.00728276 -0.102227 0)
(0.00433424 -0.104365 0)
(0.00158787 -0.105554 0)
(-0.00235158 -0.105145 0)
(-0.00454649 -0.104166 0)
(-0.00729208 -0.102239 0)
(-0.00862965 -0.100549 0)
(-0.00600888 -0.0920822 0)
(0.00180577 -0.0954636 0)
(0.00461584 -0.098978 0)
(0.0037506 -0.100871 0)
(0.00331651 -0.101638 0)
(0.00111845 -0.102306 0)
(-0.000580601 -0.102571 0)
(-0.00310768 -0.101935 0)
(-0.00371039 -0.100972 0)
(-0.00460298 -0.099015 0)
(-0.00180544 -0.0954816 0)
(0.00178645 -0.0984428 0)
(0.00250862 -0.1004 0)
(0.00217139 -0.10029 0)
(0.00127801 -0.100858 0)
(0.000477521 -0.100871 0)
(-0.000791728 -0.100846 0)
(-0.00143918 -0.100564 0)
(-0.0021653 -0.10031 0)
(-0.00249497 -0.100419 0)
(-0.00177934 -0.0984501 0)
(0.000200065 -0.0995014 0)
(0.000741707 -0.0995613 0)
(0.000498075 -0.0999456 0)
(0.000688525 -0.0998619 0)
(0.000219073 -0.100086 0)
(-0.000100825 -0.100124 0)
(-0.000557134 -0.100011 0)
(-0.000449649 -0.0999776 0)
(-0.000737104 -0.099569 0)
(-0.00019783 -0.0995004 0)
(0.0770724 -0.195301 1.52169e-26)
(0.0496337 -0.185677 0)
(0.0317426 -0.177217 0)
(0.0164482 -0.174647 0)
(0.00461274 -0.176157 0)
(-0.00456492 -0.175949 0)
(-0.0164626 -0.174817 0)
(-0.0316691 -0.177021 0)
(-0.0495624 -0.185392 0)
(-0.0770298 -0.19513 -1.5181e-26)
(0.0584062 -0.146256 4.26608e-27)
(0.0481203 -0.146457 0)
(0.0276598 -0.156245 0)
(0.0195852 -0.157534 0)
(0.00330976 -0.156113 0)
(-0.00563201 -0.155964 0)
(-0.0211862 -0.156731 0)
(-0.0285659 -0.15656 0)
(-0.0482502 -0.146555 0)
(-0.0585448 -0.14634 -4.05525e-27)
(0.0477808 -0.121557 2.04826e-27)
(0.0418935 -0.131408 0)
(0.0298056 -0.134036 0)
(0.0182478 -0.13651 0)
(0.006499 -0.14004 0)
(-0.00539391 -0.140216 0)
(-0.0176777 -0.138654 0)
(-0.0297351 -0.134424 0)
(-0.042074 -0.131631 0)
(-0.0478565 -0.121768 -2.15195e-27)
(0.0374432 -0.0995006 2.96349e-27)
(0.0387168 -0.110284 0)
(0.0220299 -0.119936 0)
(0.0171981 -0.125564 0)
(0.00392851 -0.125581 0)
(-0.0043118 -0.125416 0)
(-0.0174165 -0.124744 0)
(-0.0222533 -0.120099 0)
(-0.0388323 -0.110409 0)
(-0.0375222 -0.0996968 -2.95524e-27)
(0.0252061 -0.0812424 -1.06846e-26)
(0.0284749 -0.100919 -1.25867e-26)
(0.020506 -0.108247 -3.18446e-27)
(0.011795 -0.113438 -2.80348e-27)
(0.00508505 -0.116535 -9.58265e-29)
(-0.00443387 -0.116708 -1.05663e-28)
(-0.0110133 -0.113879 -2.82786e-27)
(-0.0201883 -0.108149 -3.14739e-27)
(-0.0282396 -0.101036 -1.25698e-26)
(-0.0252327 -0.0813402 -1.06962e-26)
(0.0182666 -0.145317 0)
(0.0134025 -0.203308 0)
(0.023459 -0.214349 0)
(0.011909 -0.220908 0)
(0.0119803 -0.225565 0)
(-0.00346273 -0.227189 0)
(-0.00472865 -0.225903 0)
(-0.0201986 -0.217973 0)
(-0.0110999 -0.2049 0)
(-0.0167006 -0.144715 0)
(0.0160741 -0.165103 0)
(0.00203103 -0.198269 0)
(0.0149781 -0.208512 0)
(0.00130533 -0.213525 0)
(0.00537668 -0.214167 0)
(-0.00697212 -0.214575 0)
(-0.00272148 -0.213507 0)
(-0.0153617 -0.2085 0)
(-0.00178924 -0.199463 0)
(-0.01594 -0.167246 0)
(0.0155206 -0.171318 0)
(-0.00318892 -0.202439 0)
(0.0121461 -0.207226 0)
(-0.000185777 -0.208459 0)
(0.00571045 -0.209229 0)
(-0.00295235 -0.209593 0)
(0.00249317 -0.210606 0)
(-0.010575 -0.208182 0)
(0.00367283 -0.20318 0)
(-0.0147703 -0.172329 0)
(0.0171006 -0.193206 0)
(-0.0064305 -0.203435 0)
(0.0103947 -0.20974 0)
(-0.000686676 -0.207132 0)
(0.00284666 -0.207134 0)
(-0.00137108 -0.207265 0)
(0.00171507 -0.205678 0)
(-0.00973333 -0.209724 0)
(0.00658347 -0.203694 0)
(-0.0168821 -0.193178 0)
(0.0335718 -0.217717 0)
(0.00827053 -0.20443 0)
(0.0169095 -0.204739 0)
(0.0107356 -0.197539 0)
(0.00197516 -0.194115 0)
(-0.0023113 -0.193623 0)
(-0.0107837 -0.196167 0)
(-0.0166157 -0.203954 0)
(-0.0082261 -0.203961 0)
(-0.033514 -0.217724 0)
(-0.233693 -0.103047 0)
(-0.0765109 -0.0788021 0)
(0.0381632 -0.140401 0)
(0.226782 -0.155816 0)
(0.327211 -0.175191 0)
(0.516512 -0.0907813 0)
(0.580574 0.0433553 0)
(0.498115 0.115666 0)
(0.400261 0.105564 0)
(0.359023 0.0557768 0)
(-0.603872 -0.478344 0)
(-0.472336 -0.4701 0)
(-0.343428 -0.537701 0)
(-0.207402 -0.524531 0)
(-0.0881748 -0.500318 0)
(0.0345188 -0.261343 0)
(0.162089 0.0271375 0)
(0.139244 0.0940161 0)
(0.171409 0.097892 0)
(0.176675 0.0860639 0)
(-0.664808 -0.657897 0)
(-0.57849 -0.706302 0)
(-0.498006 -0.735815 0)
(-0.446687 -0.737578 0)
(-0.387909 -0.644695 0)
(-0.304745 -0.371175 0)
(-0.223948 -0.00910403 0)
(-0.202048 0.0505681 0)
(-0.135507 0.0762367 0)
(-0.100523 0.113545 0)
(-0.62705 -0.692745 0)
(-0.585232 -0.772026 0)
(-0.550637 -0.816132 0)
(-0.535652 -0.843628 0)
(-0.491706 -0.828689 0)
(-0.423754 -0.539826 0)
(-0.346009 -0.166972 0)
(-0.278099 -0.106517 0)
(-0.180086 -0.104504 0)
(-0.060781 -0.148009 0)
(-0.517213 -0.55181 0)
(-0.569094 -0.757427 0)
(-0.587018 -0.815026 0)
(-0.607377 -0.834918 0)
(-0.621562 -0.831695 0)
(-0.668561 -0.558921 0)
(-0.596844 -0.267156 0)
(-0.435885 -0.365672 0)
(-0.26632 -0.377546 0)
(-0.213007 -0.421698 0)
(-0.291378 0.167392 0)
(-0.560675 -0.570753 0)
(-0.563466 -0.718111 0)
(-0.597731 -0.762815 0)
(-0.617879 -0.765176 0)
(-0.62785 -0.709636 0)
(-0.594369 -0.557641 0)
(-0.572608 -0.525685 0)
(-0.54449 -0.482627 0)
(-0.521425 -0.395727 0)
(-0.282272 0.491752 0)
(-0.468742 -0.314648 0)
(-0.510145 -0.62967 0)
(-0.519325 -0.699541 0)
(-0.547298 -0.717686 0)
(-0.554322 -0.711361 0)
(-0.560501 -0.580218 0)
(-0.558135 -0.509121 0)
(-0.560811 -0.493338 0)
(-0.528496 -0.468852 0)
(-0.360807 0.507718 0)
(-0.396878 -0.152529 0)
(-0.426434 -0.580609 0)
(-0.426194 -0.657963 0)
(-0.463269 -0.688233 0)
(-0.484198 -0.686112 0)
(-0.48509 -0.663989 0)
(-0.455453 -0.524073 0)
(-0.49083 -0.453254 0)
(-0.518017 -0.444448 0)
(-0.357998 0.393758 0)
(-0.324352 -0.138836 0)
(-0.325876 -0.466184 0)
(-0.292577 -0.556493 0)
(-0.341767 -0.6229 0)
(-0.392372 -0.637813 0)
(-0.408571 -0.639351 0)
(-0.424737 -0.590672 0)
(-0.402197 -0.455382 0)
(-0.416072 -0.413518 0)
(-0.319147 0.0109021 0)
(-0.226167 -0.271125 0)
(-0.217624 -0.394831 0)
(-0.202932 -0.469201 0)
(-0.230353 -0.50383 0)
(-0.274517 -0.529783 0)
(-0.322294 -0.565378 0)
(-0.365209 -0.555661 0)
(-0.385425 -0.49612 0)
(-0.370625 -0.396752 0)
(-0.183634 -0.270844 0)
(-0.152048 -0.348328 0)
(-0.140341 -0.378533 0)
(-0.145051 -0.443561 0)
(-0.173652 -0.452923 0)
(-0.207467 -0.440042 0)
(-0.227512 -0.446861 0)
(-0.288254 -0.462051 0)
(-0.32807 -0.462731 0)
(-0.341358 -0.437437 0)
(-0.115216 -0.37224 0)
(-0.0998597 -0.396554 0)
(-0.0977351 -0.387456 0)
(-0.109288 -0.414803 0)
(-0.13401 -0.416625 0)
(-0.149476 -0.422303 0)
(-0.157325 -0.409138 0)
(-0.171554 -0.372538 0)
(-0.234019 -0.374356 0)
(-0.257182 -0.414605 0)
(-0.0830581 -0.420724 0)
(-0.0815089 -0.428278 0)
(-0.0748876 -0.408449 0)
(-0.0771979 -0.380998 0)
(-0.0913451 -0.385682 0)
(-0.10283 -0.404024 0)
(-0.101784 -0.408863 0)
(-0.101651 -0.348033 0)
(-0.0937254 -0.273528 0)
(-0.153958 -0.363836 0)
(0.0913915 -0.386773 0)
(0.0781123 -0.396866 0)
(0.0449762 -0.377072 0)
(0.033115 -0.369417 0)
(0.0337727 -0.377098 0)
(0.0363396 -0.384932 0)
(0.0180384 -0.392363 0)
(0.0030715 -0.383844 0)
(0.0172969 -0.283612 0)
(0.0423053 -0.278935 0)
(0.175441 -0.36802 0)
(0.157489 -0.34113 0)
(0.150784 -0.340915 0)
(0.136382 -0.354586 0)
(0.123741 -0.369793 0)
(0.124854 -0.379332 0)
(0.127065 -0.377527 0)
(0.130239 -0.35629 0)
(0.137176 -0.346045 0)
(0.138027 -0.36421 0)
(0.226367 -0.354095 0)
(0.207339 -0.324558 0)
(0.189547 -0.323178 0)
(0.177258 -0.338668 0)
(0.171539 -0.359697 0)
(0.170679 -0.384706 0)
(0.178005 -0.398748 0)
(0.185904 -0.393793 0)
(0.20508 -0.359601 0)
(0.226209 -0.353425 0)
(0.240061 -0.343398 0)
(0.217162 -0.295741 0)
(0.200899 -0.303999 0)
(0.193059 -0.340928 0)
(0.197995 -0.369005 0)
(0.213506 -0.401889 0)
(0.235156 -0.429043 0)
(0.257896 -0.43881 0)
(0.277466 -0.429921 0)
(0.31515 -0.415492 0)
(0.12407 -0.284181 0)
(0.12516 -0.238078 0)
(0.160371 -0.277046 0)
(0.199035 -0.319797 0)
(0.220544 -0.381713 0)
(0.276139 -0.457602 0)
(0.313608 -0.50054 0)
(0.345186 -0.5 0)
(0.373681 -0.482271 0)
(0.390349 -0.462788 0)
(0.376726 -0.31928 0)
(0.367184 -0.337689 0)
(0.343333 -0.413818 0)
(0.360904 -0.468617 0)
(0.393659 -0.48871 0)
(0.410373 -0.556304 0)
(0.41752 -0.559333 0)
(0.418232 -0.544438 0)
(0.418508 -0.508049 0)
(0.419799 -0.478732 0)
(0.511044 -0.323665 0)
(0.506519 -0.32334 0)
(0.499394 -0.35475 0)
(0.509842 -0.448651 0)
(0.513427 -0.458476 0)
(0.500861 -0.508871 0)
(0.477541 -0.533191 0)
(0.468343 -0.52515 0)
(0.449917 -0.492065 0)
(0.436808 -0.468959 0)
(0.517206 -0.338596 0)
(0.53221 -0.325013 0)
(0.54172 -0.33164 0)
(0.53202 -0.380548 0)
(0.519284 -0.40759 0)
(0.503617 -0.475649 0)
(0.488518 -0.492063 0)
(0.47343 -0.479515 0)
(0.452217 -0.448857 0)
(0.440293 -0.445638 0)
(0.420505 -0.405959 0)
(0.426779 -0.412739 0)
(0.467547 -0.396996 0)
(0.485782 -0.390503 0)
(0.478342 -0.408289 0)
(0.46811 -0.449116 0)
(0.460396 -0.454948 0)
(0.440905 -0.441595 0)
(0.436724 -0.435207 0)
(0.443718 -0.442767 0)
(0.397703 -0.397916 0)
(0.403569 -0.393311 0)
(0.39531 -0.397539 0)
(0.388034 -0.408643 0)
(0.386494 -0.431844 0)
(0.389422 -0.454081 0)
(0.397675 -0.454616 0)
(0.419608 -0.450886 0)
(0.45249 -0.45857 0)
(0.50445 -0.513067 0)
(0.378859 -0.346832 0)
(0.346745 -0.353712 0)
(0.316431 -0.382023 0)
(0.307298 -0.392889 0)
(0.286649 -0.41449 0)
(0.29651 -0.464013 0)
(0.356247 -0.499455 0)
(0.441236 -0.518376 0)
(0.546721 -0.582289 0)
(0.687398 -0.792806 0)
(0.317346 -0.310126 0)
(0.286145 -0.314941 0)
(0.26421 -0.322568 0)
(0.210618 -0.307162 0)
(0.161158 -0.366384 0)
(0.218539 -0.55933 0)
(0.377839 -0.714075 0)
(0.541389 -0.82027 0)
(0.718165 -0.955796 0)
(0.772696 -0.974684 0)
(0.323503 -0.233738 0)
(0.252046 -0.218367 0)
(0.193051 -0.203252 0)
(0.0454583 -0.161017 0)
(0.0978444 -0.414491 0)
(0.258502 -1.03841 0)
(0.432212 -1.26015 0)
(0.616585 -1.24975 0)
(0.714917 -1.12753 0)
(0.70493 -1.01197 0)
(0.255446 -0.0942719 0)
(0.180345 -0.0490066 0)
(0.170359 -0.039157 0)
(0.00274179 -0.0173581 0)
(0.165381 -0.922267 0)
(0.240536 -1.39262 0)
(0.379732 -1.43473 0)
(0.403215 -1.36959 0)
(0.286179 -1.06388 0)
(0.060096 -0.524477 0)
(0.221973 -0.0035158 0)
(0.155448 0.00472598 0)
(0.177237 0.016337 0)
(0.0431254 0.0131531 0)
(0.182679 -1.14065 0)
(0.190095 -1.45781 0)
(0.172356 -1.41594 0)
(0.0852369 -0.960051 0)
(-0.197722 -0.281709 0)
(-0.323699 -0.081084 0)
(0.108763 0.0834174 0)
(0.0667746 0.0906475 0)
(0.0794811 0.110852 0)
(0.0302558 0.0373352 0)
(0.200604 -1.23767 0)
(0.173145 -1.43 0)
(0.123298 -1.19483 0)
(-0.00934048 -0.410271 0)
(-0.15493 -0.227685 0)
(-0.16559 -0.191144 0)
(0.0471493 0.0715406 0)
(0.0379682 0.0948409 0)
(-0.0211818 0.0868017 0)
(0.116359 -0.291041 0)
(0.226375 -1.328 0)
(0.215445 -1.29484 0)
(0.133028 -0.983691 0)
(-0.161787 -0.20986 0)
(-0.157712 -0.163085 0)
(-0.123255 -0.154718 0)
(-0.0826605 0.162421 0)
(-0.07424 0.158797 0)
(-0.0905408 0.105057 0)
(0.149777 -0.630307 0)
(0.0876301 -1.30631 0)
(0.142288 -1.16312 0)
(0.0187134 -0.56257 0)
(-0.112882 -0.093162 0)
(-0.0876466 -0.248941 0)
(-0.145391 -0.211417 0)
(-0.226128 0.196026 0)
(-0.264629 0.157011 0)
(-0.251935 -0.298355 0)
(-0.072742 -1.07228 0)
(-0.164508 -1.29041 0)
(-0.0460814 -1.01858 0)
(-0.132012 -0.309334 0)
(-0.157818 -0.191418 0)
(-0.129248 -0.123102 0)
(-0.195015 -0.130505 0)
(-0.438369 0.289858 0)
(-0.44235 0.134273 0)
(-0.262048 -0.640652 0)
(-0.241912 -1.11783 0)
(-0.259434 -1.32128 0)
(-0.126377 -1.05657 0)
(-0.0565159 -0.314281 0)
(-0.0974914 -0.139549 0)
(-0.109919 -0.142621 0)
(-0.0980545 -0.196958 0)
(-0.177662 0.382026 0)
(-0.0116713 0.0277764 0)
(-0.0782438 -0.507734 0)
(-0.273931 -1.05452 0)
(-0.266402 -1.39965 0)
(-0.21942 -1.30195 0)
(-0.0950054 -0.25527 0)
(-0.081176 -0.0632304 0)
(-0.094725 -0.148781 0)
(-0.0895122 -0.255745 0)
(0.167104 0.00151283 0)
(0.192669 -0.0236962 0)
(0.190331 -0.0999077 0)
(-0.108941 -0.693608 0)
(-0.131398 -1.47145 0)
(-0.0931988 -1.48336 0)
(-0.0279305 -0.630583 0)
(0.0160711 -0.103188 0)
(-0.059709 -0.0517582 0)
(-0.159729 -0.0226415 0)
(0.0569966 -0.0464523 0)
(0.0707829 -0.0809785 0)
(0.168673 -0.0506923 0)
(0.0308596 -0.208833 0)
(0.00642022 -1.45804 0)
(0.025847 -1.49918 0)
(0.0221322 -1.00843 0)
(0.129153 0.160539 0)
(0.131266 0.173819 0)
(0.0664181 0.116517 0)
(0.0231196 -0.0983709 0)
(0.0571339 -0.187919 0)
(0.106606 -0.13282 0)
(0.0489371 -0.145266 0)
(0.0506742 -1.46405 0)
(0.0551967 -1.54118 0)
(0.12008 -1.17453 0)
(0.160533 -0.453212 0)
(0.10017 0.116067 0)
(0.077734 0.183716 0)
(0.0371504 -0.149554 0)
(0.07673 -0.270441 0)
(0.0745134 -0.139433 0)
(0.0478602 -0.0891111 0)
(0.0433332 -1.52453 0)
(0.0354123 -1.56993 0)
(0.102415 -1.20246 0)
(-0.206362 0.529235 0)
(0.000818105 0.230531 0)
(0.0431375 0.289835 0)
(-0.605692 -0.258212 0)
(-0.63564 -0.204681 0)
(-0.429712 -0.0754553 0)
(-0.095323 -0.117484 0)
(0.00451872 -1.54199 0)
(-0.0189999 -1.53625 0)
(-0.12378 -0.139818 0)
(-0.169509 0.250173 0)
(-0.0491616 -0.447053 0)
(-0.0252677 0.270558 0)
(-0.520236 -0.49722 0)
(-0.466366 -0.624134 0)
(-0.383461 -0.758287 0)
(-0.0197179 -1.19324 0)
(0.00446185 -1.51672 0)
(-0.00532107 -1.49939 0)
(0.00333371 -1.2939 0)
(0.210163 -0.177808 0)
(0.00643399 -0.0411165 0)
(-0.199542 0.424582 0)
(-0.0769877 -0.418626 0)
(-0.0642922 -0.494615 0)
(-0.0523148 -0.719199 0)
(-0.00808982 -1.32283 0)
(0.0108564 -1.49439 0)
(-0.0131539 -1.48884 0)
(-4.65308e-05 -0.677519 0)
(0.0100742 0.231173 0)
(-0.137806 0.196999 0)
(-0.154312 0.402779 0)
(0.044892 -0.439992 0)
(0.0266412 -0.510999 0)
(0.015308 -0.707423 0)
(-9.42356e-05 -1.35703 0)
(0.0018096 -1.47717 0)
(-0.00858112 -1.47099 0)
(-0.00947304 -1.07419 0)
(0.170851 0.263864 0)
(-0.0368202 0.419676 0)
(-0.0789522 0.452964 0)
(0.0717487 -0.421579 0)
(0.0372242 -0.489029 0)
(0.0166493 -0.674628 0)
(0.000675451 -1.3511 0)
(0.00637674 -1.45961 0)
(-0.00897185 -1.45858 0)
(-0.0217692 -1.21959 0)
(0.157782 0.262224 0)
(0.0286909 0.613343 0)
(-0.0115645 0.524979 0)
(0.0037478 -0.430029 0)
(-0.027435 -0.445213 0)
(-0.0135111 -0.677797 0)
(0.00120476 -1.38172 0)
(0.00622806 -1.44918 0)
(-0.00786529 -1.44372 0)
(-0.0167453 -1.3193 0)
(0.111326 0.253764 0)
(0.14952 0.753094 0)
(0.0791667 0.75908 0)
(-0.0544227 -0.401869 0)
(-0.0586657 -0.451316 0)
(-0.0412506 -0.753308 0)
(-0.00686182 -1.40916 0)
(0.00146916 -1.43575 0)
(-0.0108749 -1.43108 0)
(-0.0168436 -1.36763 0)
(0.00866504 -0.164845 0)
(0.20463 0.6559 0)
(0.272256 0.759856 0)
(-0.0755826 -0.390368 0)
(-0.0550136 -0.490174 0)
(-0.00405661 -0.796867 0)
(0.00984973 -1.40683 0)
(0.0115144 -1.43165 0)
(-0.00104541 -1.42279 0)
(0.00803091 -1.38061 0)
(-0.0526258 -0.273593 0)
(0.0496525 0.264219 0)
(0.235055 0.641052 0)
(-0.0825586 -0.454563 0)
(-0.0341591 -0.608446 0)
(0.0488424 -0.890197 0)
(0.0387449 -1.40246 0)
(0.022157 -1.41749 0)
(0.0116147 -1.41596 0)
(0.0453844 -1.32549 0)
(0.0159102 -0.110328 0)
(-0.102354 0.0586629 0)
(0.0888218 0.288818 0)
(-0.0496081 -0.531599 0)
(-0.0257095 -0.703421 0)
(0.0328484 -0.96979 0)
(0.0158796 -1.39639 0)
(0.0118274 -1.40669 0)
(-0.000471248 -1.41115 0)
(0.0240107 -1.30053 0)
(-0.0380567 0.0175145 0)
(-0.0802411 0.0475136 0)
(-0.0315329 0.117721 0)
(-0.0158503 -0.559362 0)
(0.00441443 -0.759556 0)
(0.0290964 -0.995225 0)
(0.0155284 -1.38654 0)
(0.0110615 -1.39734 0)
(0.00137468 -1.39809 0)
(0.0174724 -1.35435 0)
(0.00345094 0.147345 0)
(-0.0772867 0.0372708 0)
(-0.0492053 0.0108741 0)
(0.0443816 -0.564806 0)
(0.0448005 -0.767504 0)
(0.0213849 -0.996337 0)
(0.0076134 -1.37846 0)
(0.0114597 -1.39292 0)
(-0.000923536 -1.38985 0)
(-0.00388401 -1.36649 0)
(0.0692898 0.244729 0)
(0.137276 0.186895 0)
(0.247423 0.0420175 0)
(0.0940172 -0.580441 0)
(0.112361 -0.697698 0)
(0.0676731 -0.908764 0)
(0.0384108 -1.36357 0)
(0.0205856 -1.37781 0)
(0.00921726 -1.38242 0)
(0.0296253 -1.367 0)
(0.037135 -0.343633 0)
(0.357402 -0.0892838 0)
(0.429486 -0.178176 0)
(0.0939764 -0.585837 0)
(0.0967355 -0.629823 0)
(0.0185629 -0.786636 0)
(-0.00745324 -1.35051 0)
(0.000875314 -1.35942 0)
(-0.0112403 -1.37584 0)
(-0.0152251 -1.35005 0)
(-0.0169276 -0.636124 0)
(0.114528 -0.443615 0)
(0.183714 -0.291697 0)
(0.0782427 -0.551606 0)
(0.0528834 -0.566544 0)
(-0.0198872 -0.723369 0)
(-0.0269352 -1.33795 0)
(-0.00756687 -1.35687 0)
(-0.0210957 -1.35817 0)
(-0.0349843 -1.34272 0)
(-0.0504019 -0.682499 0)
(-0.0280334 -0.453594 0)
(-0.0101728 -0.312585 0)
(0.0640457 -0.496876 0)
(0.0412716 -0.501447 0)
(0.00338432 -0.658952 0)
(-0.00656407 -1.32249 0)
(0.00273573 -1.34812 0)
(-0.0121688 -1.34287 0)
(-0.0198124 -1.33147 0)
(-0.0402996 -0.642243 0)
(-0.0759445 -0.409573 0)
(-0.0707463 -0.333711 0)
(0.063397 -0.470131 0)
(0.0407118 -0.455315 0)
(0.0301996 -0.616268 0)
(0.00976174 -1.30314 0)
(0.00933132 -1.33027 0)
(-0.00513417 -1.32668 0)
(-0.00373465 -1.31127 0)
(-0.0214943 -0.600095 0)
(-0.0518139 -0.353018 0)
(-0.0712406 -0.356365 0)
(0.0756052 -0.437308 0)
(0.0458342 -0.412966 0)
(0.0406349 -0.598932 0)
(0.017363 -1.28459 0)
(0.0133842 -1.31203 0)
(-0.00241052 -1.31409 0)
(0.00692146 -1.29528 0)
(-0.00828096 -0.593338 0)
(-0.0255601 -0.290072 0)
(-0.0811516 -0.333955 0)
(0.095069 -0.394139 0)
(0.0672933 -0.367936 0)
(0.044386 -0.543186 0)
(0.01027 -1.26446 0)
(0.00845413 -1.29743 0)
(-0.00686136 -1.29907 0)
(-0.00863439 -1.27808 0)
(-0.0301396 -0.557362 0)
(-0.0424727 -0.194241 0)
(-0.103161 -0.291595 0)
(0.0929105 -0.355046 0)
(0.0675552 -0.322436 0)
(0.0424327 -0.50056 0)
(0.00899857 -1.21965 0)
(0.00669646 -1.27674 0)
(-0.00918162 -1.27917 0)
(-0.0140808 -1.25173 0)
(-0.0358804 -0.550171 0)
(-0.028282 -0.141177 0)
(-0.0561799 -0.245209 0)
(0.0909809 -0.294025 0)
(0.0565181 -0.259331 0)
(0.0235641 -0.431389 0)
(0.0119382 -1.1946 0)
(0.00918886 -1.25767 0)
(-0.00719646 -1.25686 0)
(-0.00958106 -1.22629 0)
(-0.0276062 -0.543757 0)
(-0.00421943 -0.149282 0)
(-0.00408647 -0.211105 0)
(0.101464 -0.228004 0)
(0.062699 -0.186201 0)
(0.023311 -0.393406 0)
(0.019342 -1.18423 0)
(0.0108088 -1.23614 0)
(-0.00644226 -1.23896 0)
(-0.00266253 -1.21261 0)
(-0.0194288 -0.49236 0)
(-0.0304212 -0.181029 0)
(-0.0474 -0.170676 0)
(0.0632903 -0.144854 0)
(0.00301935 -0.084084 0)
(0.00445372 -0.387774 0)
(0.00779204 -1.17843 0)
(0.00605655 -1.21402 0)
(-0.0110195 -1.21545 0)
(-0.0140691 -1.2036 0)
(-0.0228326 -0.474917 0)
(-0.0360435 -0.140313 0)
(-0.0692837 -0.137998 0)
(0.0337892 -0.0649345 0)
(-0.0143066 -0.0349468 0)
(-0.00252803 -0.408171 0)
(0.0107156 -1.19845 0)
(0.00977699 -1.19531 0)
(-0.00652411 -1.19405 0)
(-0.00527785 -1.20624 0)
(-0.00361681 -0.47218 0)
(-0.0123487 -0.0728291 0)
(-0.0668599 -0.0683072 0)
(-0.0161473 0.035169 0)
(-0.0281413 -0.0477517 0)
(0.00791032 -0.452136 0)
(0.00764214 -1.1961 0)
(0.00716498 -1.17363 0)
(-0.00846367 -1.17509 0)
(-0.0115597 -1.19861 0)
(-0.00893155 -0.476179 0)
(-0.00652723 -0.00237591 0)
(-0.0558515 0.012966 0)
(0.00509288 0.100025 0)
(-0.0177577 -0.0493106 0)
(0.0112888 -0.478919 0)
(0.00943767 -1.18497 0)
(0.00763854 -1.15837 0)
(-0.00754886 -1.15812 0)
(-0.00763152 -1.18607 0)
(-0.00974363 -0.503374 0)
(0.0130442 0.0484364 0)
(-0.0299401 0.0945019 0)
(0.00265705 0.199152 0)
(-0.0208075 -0.0173565 0)
(0.0101876 -0.530169 0)
(0.00782956 -1.17058 0)
(0.00625155 -1.14212 0)
(-0.00722567 -1.14217 0)
(-0.00894372 -1.17223 0)
(-0.0112491 -0.554483 0)
(0.0250351 0.0699893 0)
(-0.0182145 0.178226 0)
(-0.0259096 0.242227 0)
(-0.0288655 -0.0422006 0)
(0.0134705 -0.6225 0)
(0.00855085 -1.15523 0)
(0.00707141 -1.12937 0)
(-0.0060987 -1.12944 0)
(-0.00776523 -1.15649 0)
(-0.0105387 -0.62727 0)
(0.0314993 0.0963579 0)
(-0.0183116 0.261005 0)
(-0.0208711 0.209162 0)
(-0.030018 -0.072268 0)
(0.0117874 -0.671195 0)
(0.00896875 -1.13487 0)
(0.00614195 -1.11492 0)
(-0.00426975 -1.11486 0)
(-0.0045202 -1.13652 0)
(-0.0131112 -0.693871 0)
(0.0329729 0.108837 0)
(-0.00193696 0.331261 0)
(0.0485605 0.165246 0)
(0.0280032 0.00586151 0)
(0.031151 -0.68829 0)
(0.00976207 -1.11701 0)
(0.00737418 -1.10393 0)
(-0.0025123 -1.1069 0)
(-0.000908534 -1.11753 0)
(-0.00488536 -0.736183 0)
(0.0302991 0.109057 0)
(0.00408768 0.400336 0)
(0.0153778 0.0475981 0)
(-0.0103191 0.0245443 0)
(-0.00211093 -0.717553 0)
(-0.00813949 -1.10351 0)
(-0.00317591 -1.09431 0)
(-0.0125872 -1.09457 0)
(-0.0189768 -1.10473 0)
(-0.0400746 -0.766807 0)
(-0.00299841 0.112938 0)
(-0.00727617 0.427866 0)
(-0.0317996 0.0342767 0)
(-0.0108318 0.0108203 0)
(0.0376058 -0.717859 0)
(0.0131475 -1.0889 0)
(0.00843444 -1.08396 0)
(-0.00245524 -1.08097 0)
(-0.00251548 -1.09071 0)
(-0.0239064 -0.760807 0)
(-0.00552806 0.0845844 0)
(0.0117644 0.41104 0)
(-0.0283479 0.0195916 0)
(0.00780988 -0.110373 0)
(0.0290765 -0.718889 0)
(0.012217 -1.06835 0)
(0.00697531 -1.06317 0)
(-0.0050459 -1.06368 0)
(-0.00920677 -1.06907 0)
(-0.0282735 -0.749379 0)
(-0.0195515 0.00761345 0)
(0.0257794 0.344252 0)
(0.0249049 0.0321933 0)
(0.0327596 -0.124532 0)
(0.0269015 -0.698638 0)
(0.0134392 -1.05183 0)
(0.00846265 -1.04575 0)
(-0.00620594 -1.04696 0)
(-0.0108329 -1.05303 0)
(-0.0238334 -0.72257 0)
(-0.0302839 -0.0256427 0)
(-0.00665527 0.222686 0)
(0.0441282 0.0312367 0)
(0.0400547 -0.116732 0)
(0.0233842 -0.668278 0)
(0.0124279 -1.03652 0)
(0.00742292 -1.0246 0)
(-0.00834934 -1.02393 0)
(-0.0150592 -1.03734 0)
(-0.0275495 -0.703492 0)
(-0.0261831 -0.0246971 0)
(-0.0251284 0.173064 0)
(0.0463497 0.0434486 0)
(0.0372146 -0.100271 0)
(0.0319885 -0.653137 0)
(0.0179975 -1.0196 0)
(0.0113159 -1.00143 0)
(-0.0057796 -1.00181 0)
(-0.0075368 -1.02107 0)
(-0.0197503 -0.692669 0)
(-0.0260881 -0.0162943 0)
(-0.0381435 0.175239 0)
(0.0395125 0.0688973 0)
(0.0256328 -0.0876872 0)
(0.0199226 -0.64521 0)
(0.013151 -1.00368 0)
(0.00828984 -0.97669 0)
(-0.00981563 -0.977461 0)
(-0.0156256 -1.00453 0)
(-0.0250152 -0.68841 0)
(-0.013785 -0.0108152 0)
(-0.0221901 0.196063 0)
(0.0507145 0.109781 0)
(0.0318773 -0.0354478 0)
(0.020658 -0.640668 0)
(0.0140494 -0.985808 0)
(0.00871177 -0.952128 0)
(-0.00822616 -0.95239 0)
(-0.0132574 -0.986846 0)
(-0.0209787 -0.697642 0)
(-0.0137497 -0.024046 0)
(-0.000668217 0.22675 0)
(0.0452407 0.137216 0)
(0.019698 -0.0063679 0)
(0.0208018 -0.651908 0)
(0.0134112 -0.964655 0)
(0.00827353 -0.932853 0)
(-0.00789773 -0.93252 0)
(-0.0132908 -0.966058 0)
(-0.0217457 -0.712061 0)
(-0.0136599 -0.0497843 0)
(0.00737731 0.222539 0)
(0.0242686 0.168637 0)
(0.0116904 0.0289995 0)
(0.0224672 -0.663548 0)
(0.0130711 -0.942492 0)
(0.00668252 -0.912195 0)
(-0.00716219 -0.912863 0)
(-0.0129578 -0.943582 0)
(-0.0232135 -0.716601 0)
(-0.0184756 -0.0723601 0)
(9.89601e-05 0.18407 0)
(0.00512453 0.176685 0)
(0.0132806 0.0117796 0)
(0.0252477 -0.671347 0)
(0.0132116 -0.919133 0)
(0.00656581 -0.895035 0)
(-0.00656656 -0.895428 0)
(-0.0136013 -0.920487 0)
(-0.0243422 -0.715728 0)
(-0.0235278 -0.0782263 0)
(-0.0114702 0.134933 0)
(-0.0162164 0.16118 0)
(0.0104827 -0.0238074 0)
(0.0238278 -0.673595 0)
(0.0139821 -0.897009 0)
(0.00618178 -0.875974 0)
(-0.00612202 -0.876174 0)
(-0.0134939 -0.898129 0)
(-0.0239551 -0.71116 0)
(-0.0252404 -0.0995564 0)
(-0.0096967 0.103141 0)
(-0.00608499 0.140014 0)
(0.0246875 -0.0656669 0)
(0.0248529 -0.670837 0)
(0.0165287 -0.875378 0)
(0.00718221 -0.856646 0)
(-0.00705051 -0.857591 0)
(-0.0160514 -0.876633 0)
(-0.0240812 -0.700066 0)
(-0.0275718 -0.119677 0)
(-0.00295484 0.079524 0)
(0.000776565 0.0986179 0)
(0.031189 -0.101331 0)
(0.0247929 -0.658478 0)
(0.0163562 -0.854044 0)
(0.00711968 -0.833259 0)
(-0.00705191 -0.833471 0)
(-0.0164522 -0.854942 0)
(-0.0239896 -0.686263 0)
(-0.0342939 -0.140569 0)
(-0.00805505 0.0481419 0)
(0.0183114 0.0715046 0)
(0.0387743 -0.112739 0)
(0.0252747 -0.643142 0)
(0.0182169 -0.832891 0)
(0.00843831 -0.810929 0)
(-0.00853387 -0.811243 0)
(-0.0187936 -0.833567 0)
(-0.0258818 -0.672108 0)
(-0.0365455 -0.159682 0)
(-0.0143606 0.0007471 0)
(0.0213982 0.0368152 0)
(0.037359 -0.124143 0)
(0.0248468 -0.63608 0)
(0.0180649 -0.810331 0)
(0.00816557 -0.784225 0)
(-0.00770036 -0.78412 0)
(-0.0185476 -0.810565 0)
(-0.026332 -0.659745 0)
(-0.0388751 -0.16716 0)
(-0.020177 -0.028735 0)
(0.0161079 0.0126974 0)
(0.0375829 -0.126491 0)
(0.0259145 -0.620545 0)
(0.0196687 -0.785998 0)
(0.00836303 -0.760074 0)
(-0.00850387 -0.759975 0)
(-0.0193841 -0.786045 0)
(-0.0279523 -0.646302 0)
(-0.0415792 -0.173903 0)
(-0.0246236 -0.0565343 0)
(0.04175 -0.0181294 0)
(0.0570738 -0.106914 0)
(0.0295927 -0.600243 0)
(0.0190321 -0.759178 0)
(0.0069097 -0.733658 0)
(-0.00744461 -0.733386 0)
(-0.0192072 -0.759096 0)
(-0.0274521 -0.633641 0)
(-0.0429734 -0.176718 0)
(-0.0285707 -0.0788799 0)
(0.00940722 -0.0795495 0)
(0.0304205 -0.124788 0)
(0.0261918 -0.597272 0)
(0.0208426 -0.731319 0)
(0.00688207 -0.709855 0)
(-0.00785539 -0.709373 0)
(-0.0207266 -0.731536 0)
(-0.0281053 -0.615373 0)
(-0.0469539 -0.17319 0)
(-0.0340071 -0.0890165 0)
(0.0613352 -0.037062 0)
(0.0511077 -0.10892 0)
(0.0284965 -0.572822 0)
(0.0204544 -0.702571 0)
(0.00609827 -0.683742 0)
(-0.00645973 -0.683884 0)
(-0.0205452 -0.703264 0)
(-0.0271548 -0.595828 0)
(-0.0491007 -0.165925 0)
(-0.0375197 -0.0904482 0)
(0.041318 -0.0159341 0)
(0.0423657 -0.10192 0)
(0.0294642 -0.56218 0)
(0.0224428 -0.673932 0)
(0.00764908 -0.65809 0)
(-0.00785251 -0.658771 0)
(-0.0223822 -0.67534 0)
(-0.0295473 -0.57054 0)
(-0.0494345 -0.162097 0)
(-0.037686 -0.0890152 0)
(0.0543769 0.0257474 0)
(0.0500321 -0.0840416 0)
(0.0322703 -0.527942 0)
(0.0226593 -0.643936 0)
(0.00747212 -0.628628 0)
(-0.00751028 -0.630529 0)
(-0.0230602 -0.646033 0)
(-0.036366 -0.542672 0)
(-0.0417357 -0.168192 0)
(-0.0307167 -0.0895483 0)
(0.0425984 0.0325368 0)
(0.0201128 -0.0803874 0)
(0.0412433 -0.512775 0)
(0.024454 -0.612824 0)
(0.00846771 -0.600901 0)
(-0.00861335 -0.602689 0)
(-0.0234221 -0.61493 0)
(-0.0443456 -0.529754 0)
(-0.0178408 -0.203438 0)
(-0.0257181 -0.0956383 0)
(0.0279214 0.0462272 0)
(-0.0170049 -0.0972193 0)
(0.0486973 -0.533717 0)
(0.0247434 -0.58031 0)
(0.00745417 -0.570787 0)
(-0.00873014 -0.571372 0)
(-0.0250945 -0.581619 0)
(-0.0474448 -0.54338 0)
(0.0103885 -0.223747 0)
(-0.0225447 -0.101251 0)
(0.0221063 0.0773537 0)
(0.0206541 -0.107359 0)
(0.0481674 -0.538369 0)
(0.0264886 -0.546107 0)
(0.00960613 -0.541559 0)
(-0.00722782 -0.540797 0)
(-0.02605 -0.546443 0)
(-0.0494806 -0.544889 0)
(-0.0321664 -0.216897 0)
(-0.0445272 -0.0938774 0)
(0.0331669 0.082934 0)
(0.0553572 -0.168745 0)
(0.0540417 -0.49208 0)
(0.0271007 -0.508167 0)
(0.00975087 -0.508003 0)
(-0.00687699 -0.506493 0)
(-0.0263068 -0.506805 0)
(-0.0531252 -0.498227 0)
(-0.0578498 -0.226732 0)
(-0.0589947 -0.101622 0)
(0.0544829 0.0812027 0)
(0.0531486 -0.193362 0)
(0.0570611 -0.453389 0)
(0.0285906 -0.469695 0)
(0.00877879 -0.471836 0)
(-0.0117771 -0.470034 0)
(-0.0309772 -0.467713 0)
(-0.0591269 -0.457151 0)
(-0.0621014 -0.233184 0)
(-0.0677893 -0.0975026 0)
(0.054699 0.0732428 0)
(0.0639536 -0.184958 0)
(0.066853 -0.403831 0)
(0.030664 -0.425027 0)
(0.0106215 -0.432296 0)
(-0.0125605 -0.429199 0)
(-0.0333711 -0.424169 0)
(-0.0649812 -0.403469 0)
(-0.0711564 -0.222431 0)
(-0.0586653 -0.102961 0)
(-0.0159933 0.0567536 0)
(0.0739295 -0.25994 0)
(0.0622946 -0.364953 0)
(0.031731 -0.381397 0)
(0.0115052 -0.384272 0)
(-0.0126645 -0.383977 0)
(-0.0326588 -0.381191 0)
(-0.0656632 -0.360277 0)
(-0.070305 -0.278763 0)
(-0.00572353 -0.108789 0)
(0.0686341 -0.0221805 0)
(0.074117 -0.281011 0)
(0.0711859 -0.315163 0)
(0.0426643 -0.329769 0)
(0.0185875 -0.333004 0)
(-0.0113629 -0.332979 0)
(-0.0308299 -0.328168 0)
(-0.0640833 -0.312918 0)
(-0.0721949 -0.287466 0)
(-0.0890989 -0.134683 0)
(0.0967904 -0.168544 0)
(0.0753745 -0.221175 0)
(0.0656956 -0.260242 0)
(0.0342924 -0.281741 0)
(0.0135887 -0.285796 0)
(-0.0131118 -0.285066 0)
(-0.0384215 -0.280909 0)
(-0.0709262 -0.261929 0)
(-0.0732265 -0.222214 0)
(-0.0995355 -0.205828 0)
(0.0599457 -0.119049 0)
(0.0497134 -0.193551 0)
(0.0452368 -0.231991 0)
(0.0190046 -0.24199 0)
(0.00638389 -0.24693 0)
(-0.0158065 -0.247236 0)
(-0.0231391 -0.243595 0)
(-0.0425505 -0.233684 0)
(-0.0501492 -0.192946 0)
(-0.0553271 -0.135845 0)
(0.324018 0.0570701 0)
(0.283443 0.0310829 0)
(0.289123 -0.0273457 0)
(0.344608 -0.0468731 0)
(0.365868 -0.0061877 0)
(0.346952 0.0135623 0)
(0.268823 0.00575837 0)
(0.252623 0.00851602 0)
(0.243108 0.011587 0)
(0.236054 0.00567032 0)
(0.238136 -0.00421468 0)
(0.249741 -0.0117402 0)
(0.270931 -0.0189757 0)
(0.299291 -0.0285798 0)
(0.331326 -0.0382426 0)
(0.362145 -0.0379716 0)
(0.38606 -0.0324557 0)
(0.403688 -0.0266818 0)
(0.412703 -0.0149895 0)
(0.414732 -0.00473318 0)
(0.41077 0.0129986 0)
(0.396285 0.0290778 0)
(0.370383 0.0366704 0)
(0.341799 0.0330602 0)
(0.315756 0.0275052 0)
(0.289829 0.0202486 0)
(0.263604 0.0165883 0)
(0.241331 0.00935882 0)
(0.226129 0.00632317 0)
(0.217009 0.00696259 0)
(0.208925 0.00495554 0)
(0.203917 0.00560832 0)
(0.197382 0.0150231 0)
(0.184308 0.0144525 0)
(0.17087 0.0151328 0)
(0.160126 0.0311152 0)
(0.115954 0.0646796 0)
(0.0529432 0.0488338 0)
(0.0242216 0.0120101 0)
(-0.000796804 -0.00223099 0)
(0.163364 0.0844063 0)
(0.141381 0.0290153 0)
(0.191101 -0.080159 0)
(0.223085 -0.0841339 0)
(0.284402 0.0416431 0)
(0.338774 0.125995 0)
(0.340645 0.114827 0)
(0.311907 0.0520613 0)
(0.287339 0.0175252 0)
(0.260403 -0.00112985 0)
(0.256692 -0.0290355 0)
(0.276095 -0.0611701 0)
(0.306865 -0.0830183 0)
(0.332556 -0.0871655 0)
(0.352861 -0.0752765 0)
(0.369595 -0.0575159 0)
(0.382756 -0.0359818 0)
(0.390057 -0.0188808 0)
(0.39045 -0.00384841 0)
(0.388178 0.00565607 0)