/*--------------------------------*- C++ -*----------------------------------*\
  =========                 |
  \\      /  F ield         | OpenFOAM: The Open Source CFD Toolbox
   \\    /   O peration     | Website:  https://openfoam.org
    \\  /    A nd           | Version:  8
     \\/     M anipulation  |
\*---------------------------------------------------------------------------*/
FoamFile
{
    version     2.0;
    format      ascii;
    class       volScalarField;
    location    "0.85";
    object      alpha.water;
}
// * * * * * * * * * * * * * * * * * * * * * * * * * * * * * * * * * * * * * //

dimensions      [0 0 0 0 0 0 0];

internalField   nonuniform List<scalar> 
9150
(
1
1
1
1
1
1
1
1
1
1
1
1
1
1
1
1
1
1
1
1
1
1
1
1
1
1
1
1
1
1
1
1
1
1
1
1
1
1
1
1
1
1
1
1
1
1
1
1
1
1
1
1
1
1
1
1
1
1
1
1
1
1
1
1
1
1
1
1
1
1
1
1
1
1
1
1
1
1
1
1
1
1
1
1
1
1
1
1
1
1
1
1
1
1
1
1
1
1
1
1
1
1
1
1
1
1
1
1
1
1
1
1
1
1
1
1
1
1
1
1
1
1
1
1
1
1
1
1
1
1
1
1
1
1
1
1
1
1
1
1
1
1
1
1
1
1
1
1
1
1
0.661374
0.661649
0.661656
0.661656
0.661656
0.661648
0.661589
0.661425
0.661176
0.658212
0.534465
0.658387
0.661649
0.661656
0.661648
0.661589
0.661425
0.661646
0.631679
0.387198
0.660596
0.660874
0.661261
0.661533
0.66143
0.660758
0.662187
0.428806
0.0392076
0.0392076
0.661379
0.660608
0.466679
0.661425
0.658972
0.561198
0.255653
0.046399
0.037695
0.0388263
0.639502
0.475736
0.430442
0.519698
0.34954
0.0471527
0.0326713
0.0328435
0.0339435
0.0855551
0.303069
0.30725
0.461776
0.251609
0.0325723
0.0325623
0.0325725
0.0326714
0.0333997
0.13301
0.254622
0.502529
0.553426
0.222715
0.0325623
0.0325623
0.0325623
0.0325861
0.032806
0.0601852
0.372313
0.553426
0.56282
0.379524
0.0325972
0.0325623
0.0325861
0.0331265
0.134405
0.449287
0.179508
0.540397
0.579152
0.561846
0.178737
0.254465
0.603567
0.629122
0.632391
0.649547
0.0579996
0.128407
0.576347
0.60684
0.568763
0.301076
0.658655
0.659473
0.658893
0.657581
0.0541932
0.0204148
0.142802
0.627176
0.636405
0.311417
0.659152
0.659492
0.659473
0.619861
0.132549
0.0174103
0.0261364
0.428941
0.638723
0.643976
0.659492
0.659492
0.659492
0.382135
0.00457166
0.0170495
0.0112184
0.247662
0.638251
0.658174
0.65943
0.659492
0.65943
0.326414
0.0042566
0.0119367
0.00667485
0.179327
0.633612
0.462978
0.242938
0.626346
0.657837
0.56744
0.000784588
0.000711526
0.00077672
0.130708
0.625064
0.452467
0.137159
0.219964
0.625658
0.661968
0.00808149
0.000610634
0.00071427
0.0942133
0.576976
0.463694
0.137257
0.210097
0.647899
0.662157
0.00338029
0.000580946
0.000610634
0.0632652
0.539462
0.630152
0.369664
0.578356
0.662157
0.662169
0.000580946
0.000580946
0.000580946
0.0393103
0.578054
0.655911
0.660861
0.662143
0.662169
0.662169
0.00464493
0.000580946
0.00110998
0.0238571
0.593468
0.659931
0.660256
0.660862
0.565678
0.617683
0.00635967
0.00385284
0.00192468
0.0169301
0.595499
0.536276
0.472123
0.312128
0.0949106
0.124258
0.00635145
0.00630439
0.002181
0.00986976
0.595534
0.594163
0.0506897
0.00315302
6.27385e-05
0.000129952
0.00633827
0.00615788
0.000899036
0.001846
0.595003
0.59646
0.00186038
2.93518e-05
1.25111e-05
1.8799e-05
0.0046848
0.0022121
0.000290375
0.00135188
0.594234
0.596796
0.000837927
1.27656e-05
1.16075e-05
1.19486e-05
0.000631347
0.000460734
0.000290375
0.000290375
0.596541
0.598062
0.000394488
2.69384e-05
1.15906e-05
1.15701e-05
0.000266039
0.00402036
0.000377614
0.000350049
0.605038
0.604019
3.05072e-05
3.03823e-05
1.15701e-05
1.15247e-05
0.00113352
0.00412029
0.000397896
0.000401065
0.608442
0.608754
0.000159625
2.57136e-05
1.15742e-05
1.15198e-05
0.00121457
0.00412034
0.000777002
0.00209946
0.608936
0.608902
0.00147458
4.14423e-06
1.19054e-05
1.13615e-05
0.000204156
0.00412034
0.00175214
0.00328484
0.607953
0.608875
0.00401263
9.35856e-07
9.5222e-06
9.7827e-06
3.48485e-05
0.00320031
0.00432007
0.00255736
0.608701
0.608813
0.00331679
7.86199e-07
1.25986e-06
0.00134313
3.47959e-05
0.00328304
0.00368812
0.000637284
0.607106
0.608701
0.000492963
7.82052e-07
7.82078e-07
0.00101547
0.000499199
0.00383653
0.00113672
0.000445143
0.603398
0.605706
0.000743512
7.82052e-07
7.82052e-07
0.000135756
0.0036239
0.00382205
0.000239208
0.000947694
0.60547
0.600489
7.8291e-07
7.82052e-07
7.82078e-07
7.84973e-07
0.00364684
0.00235378
5.84886e-05
1.72727e-05
0.606953
0.606123
7.85101e-07
7.8291e-07
8.54241e-07
8.23059e-07
0.00171557
8.06224e-05
1.78605e-05
1.72727e-05
0.617805
0.617971
7.85606e-07
7.87381e-07
1.12209e-06
8.55349e-07
2.93839e-05
1.7319e-05
1.72727e-05
1.72725e-05
0.630027
0.629884
7.883e-07
3.27308e-06
1.30465e-06
3.00642e-06
1.98301e-05
1.84023e-05
1.73411e-05
1.72727e-05
0.638996
0.638334
8.02482e-07
1.42123e-05
4.93839e-05
3.00886e-06
2.10873e-05
2.09555e-05
0.000119874
1.72748e-05
0.642745
0.642641
8.40821e-07
1.89603e-05
0.000116607
4.74185e-06
0.000284106
2.25129e-05
0.000154003
1.72878e-05
0.645407
0.644847
8.96276e-07
1.81414e-05
0.00011671
5.31773e-05
0.00186343
0.000161613
0.000104188
1.73592e-05
0.651699
0.651044
9.54829e-07
1.53963e-05
0.000116729
0.000116729
0.00188028
0.000173289
1.84393e-05
1.77344e-05
0.657109
0.656939
1.008e-06
1.55183e-05
0.000116729
0.000116729
0.000421544
9.44274e-05
0.000103303
1.84393e-05
0.665738
0.665456
1.03975e-06
1.61402e-05
0.00010329
0.000116729
8.07787e-05
8.16882e-05
0.00300834
2.11894e-05
0.670117
0.669833
9.94368e-07
1.64161e-05
9.7463e-05
0.000116711
0.000405794
0.000805277
0.00418831
2.13357e-05
0.678838
0.678703
9.55756e-07
1.51637e-05
0.000114972
0.000103121
0.00410139
0.00418842
0.00416438
5.26693e-07
0.684766
0.684826
9.26184e-07
1.03876e-05
0.000114972
1.93072e-05
0.00110333
0.00132576
0.00167936
5.26693e-07
0.694263
0.694377
9.02785e-07
6.09546e-06
0.000114972
8.20282e-06
0.000571724
1.26292e-05
5.48449e-07
5.26631e-07
0.70276
0.702861
8.91123e-07
2.87515e-06
0.000114941
3.85487e-05
0.000343597
7.00231e-05
5.53238e-07
5.39991e-07
0.713785
0.713891
8.58197e-07
1.17996e-06
0.000103318
6.64064e-05
1.44988e-05
3.47606e-06
6.8251e-07
5.53238e-07
0.72116
0.721216
8.09735e-07
7.96944e-07
1.62751e-05
5.5775e-05
3.77405e-05
2.0036e-05
4.25561e-06
6.8251e-07
0.732048
0.731843
7.95976e-07
7.95976e-07
8.21136e-06
5.41733e-06
0.00255074
0.0016617
0.000259057
1.76905e-06
0.735016
0.73462
8.36873e-07
8.57773e-07
2.84572e-05
3.52666e-09
0.00396049
0.00393669
0.000944297
2.59339e-05
0.742504
0.742521
8.77469e-07
8.77587e-07
2.86343e-05
1.32833e-08
0.00406615
0.00396049
0.00112506
5.75963e-05
0.742406
0.742254
8.78116e-07
8.77091e-07
1.3554e-05
6.41818e-07
0.0041583
0.00385573
0.000231009
0.00178979
0.749603
0.749661
0.00163724
8.74575e-07
2.94005e-05
6.64095e-06
0.00419325
0.00116379
7.19355e-06
0.00169131
0.749438
0.749638
0.00183078
8.24961e-07
0.000173022
1.52398e-05
0.0042004
0.000323915
2.11178e-06
0.00424921
0.753397
0.753378
0.004298
6.24012e-07
0.000173022
1.83337e-05
0.00279515
6.14326e-05
1.1065e-06
0.00363307
0.753487
0.753431
0.00363324
4.22632e-07
0.000173049
1.725e-05
0.00225605
4.34746e-05
1.11388e-07
0.00706989
0.759212
0.759115
0.00704514
2.61587e-07
0.000173022
9.05574e-06
0.000465741
2.2973e-05
1.96443e-10
0.00807747
0.761231
0.761047
0.00794605
1.01362e-07
0.000172855
2.59698e-06
7.80918e-06
2.59165e-06
1.82279e-10
0.0127387
0.771231
0.771345
0.0127302
5.67665e-08
0.000107761
6.76244e-07
3.19923e-05
1.82279e-10
1.72316e-10
0.0150452
0.777027
0.776957
0.0150107
5.67665e-08
5.67665e-08
8.35569e-08
1.38702e-05
5.26567e-07
1.68314e-10
0.0211166
0.78839
0.788363
0.0210864
5.67509e-08
1.10503e-07
4.72436e-08
3.42656e-08
2.52141e-06
8.45828e-11
0.0244283
0.794805
0.794742
0.0244167
6.46442e-08
5.3855e-05
1.1813e-07
1.85369e-10
1.33319e-06
5.96392e-13
0.0311496
0.805516
0.805493
0.0311406
1.34745e-07
8.95857e-05
9.69152e-08
7.9733e-13
5.96392e-13
5.96392e-13
0.0350916
0.811576
0.811539
0.0350822
2.92018e-07
8.96651e-05
1.13984e-06
7.9365e-12
2.08508e-11
5.82215e-13
0.0419273
0.820918
0.820848
0.0419403
5.22802e-07
8.95857e-05
4.61084e-06
3.86583e-11
2.78205e-11
5.53668e-13
0.0458947
0.825937
0.825834
0.0459364
8.08534e-07
8.93629e-05
9.64712e-06
3.88075e-11
2.32633e-11
5.052e-13
0.0526782
0.834062
0.833949
0.0527274
1.15415e-06
8.89447e-05
1.03028e-05
3.61136e-11
2.25878e-11
4.44235e-13
0.0566405
0.838396
0.838284
0.0566878
1.50476e-06
6.64497e-05
4.56709e-06
5.33001e-11
2.29079e-11
3.779e-13
0.0639574
0.846504
0.846421
0.0639652
1.45746e-06
3.54554e-05
4.69755e-05
6.13573e-11
2.07329e-11
3.16299e-13
0.0684245
0.851056
0.851011
0.0683837
1.0744e-06
6.73019e-05
0.000348168
2.42366e-11
1.55569e-11
2.68922e-13
0.077412
0.860466
0.860452
0.0773343
6.80845e-07
7.72598e-05
0.00044078
1.43626e-11
1.36326e-11
2.28481e-13
0.0833393
0.866099
0.866145
0.0832132
4.32708e-07
4.98406e-05
0.000444039
1.3445e-11
1.27502e-11
1.93074e-13
0.095204
0.877208
0.877311
0.0950671
3.53875e-07
2.12356e-05
0.000306625
1.28835e-11
1.1459e-11
1.59507e-13
0.103411
0.883915
0.88405
0.103259
3.38891e-07
5.90388e-06
6.32032e-05
1.29569e-11
1.01443e-11
1.29599e-13
0.118781
0.896042
0.896164
0.118639
3.37277e-07
1.30727e-06
3.25744e-07
1.27135e-11
8.36708e-12
1.02994e-13
0.129817
0.903338
0.903462
0.129691
3.32164e-07
3.25798e-07
3.25752e-07
1.14221e-11
6.33347e-12
8.28833e-14
0.148786
0.915547
0.91559
0.148732
3.32412e-07
3.26672e-07
3.258e-07
9.17437e-12
4.42344e-12
6.76891e-14
0.162338
0.922647
0.92263
0.162348
3.59134e-07
2.389e-05
3.26652e-07
6.61782e-12
2.66151e-12
5.89487e-14
0.184184
0.933925
0.933849
0.184238
5.52337e-07
8.05977e-05
3.4299e-07
4.09042e-12
1.44249e-12
5.37955e-14
0.199087
0.940111
0.939997
0.199176
1.0006e-06
8.21097e-05
1.38293e-05
2.03991e-12
6.1056e-13
5.22436e-14
0.223122
0.95007
0.949948
0.223214
5.92111e-07
8.17684e-05
8.74773e-05
8.34861e-13
2.067e-13
4.42155e-14
0.239407
0.955386
0.95527
0.239506
2.61986e-07
7.12145e-05
0.000129681
2.55693e-13
3.50552e-14
1.84275e-14
0.268943
0.96472
0.964598
0.269056
6.26261e-08
5.9931e-05
0.000129681
5.93715e-14
1.90535e-16
4.5148e-16
0.29177
0.969899
0.969799
0.29186
8.26693e-11
1.53087e-05
0.000128522
1.29333e-14
8.50102e-17
1.40139e-16
0.337453
0.979079
0.978911
0.337607
4.42533e-11
3.23875e-12
3.81799e-10
3.22426e-15
5.6764e-17
7.15345e-17
0.377007
0.984029
0.983813
0.377203
3.23875e-12
6.40182e-13
7.83737e-13
1.02827e-15
5.05929e-17
5.39615e-17
0.441259
0.990292
0.989964
0.441582
6.40182e-13
6.34246e-13
6.39344e-13
2.85705e-16
4.89299e-17
5.01658e-17
0.491965
0.992931
0.992532
0.492359
7.04399e-13
5.602e-13
2.51195e-11
2.82499e-17
2.11112e-17
3.98074e-17
0.559461
0.995086
0.994657
0.559832
5.13583e-13
3.81568e-13
2.53791e-11
1.18109e-17
1.19473e-17
2.17717e-15
0.603797
0.996596
0.996195
0.604118
3.81568e-13
2.40943e-13
3.28062e-13
1.2069e-17
1.22642e-17
2.21806e-13
0.67259
0.99729
0.996926
0.672974
3.77834e-12
5.14602e-16
5.09237e-16
1.24667e-17
1.38057e-17
1.57274e-11
0.725074
0.998545
0.998264
0.725374
1.38582e-10
4.45965e-17
2.56576e-16
1.51711e-17
9.25249e-18
0.0248098
0.811908
0.999225
0.998763
0.811595
0.0277838
1.63688e-14
3.6352e-19
9.8893e-18
1.37959e-17
0.0964678
0.876938
0.999386
0.999795
0.878396
0.111573
2.11101e-12
3.13128e-19
7.94279e-18
9.56788e-18
0.184962
0.929026
0.999843
0.999865
0.963347
0.275294
2.49923e-10
-4.23449e-19
7.94903e-18
8.01238e-18
0.356815
0.981436
0.999943
0.999981
0.988839
0.464013
2.60287e-08
2.24914e-19
2.7977e-19
2.04454e-07
0.600579
0.999919
0.999993
0.999983
0.999982
0.731054
1.82582e-06
-1.65345e-14
-4.50946e-16
0.0947959
0.883691
0.999993
0.999999
1
0.999989
0.878388
0.151147
-2.25734e-12
-6.79155e-13
0.571785
0.999814
0.999999
1
1
1
0.999968
0.661647
-7.75365e-11
0.338321
0.967307
1
1
1
1
1
1
0.982918
0.399995
0.637039
0.64309
0.643788
0.643796
0.524758
0.464363
0.51515
0.526448
0.52802
0.555775
0.564486
0.438667
0.430393
0.427373
0.425824
0.425419
0.424628
0.425136
0.486699
0.522385
0.523137
0.522515
0.283698
0.0724363
0.16522
0.336987
0.340356
0.34081
0.340521
0.236381
0.170248
0.171224
0.515815
0.650972
0.651453
0.651495
0.627902
0.577918
0.620041
0.62008
0.0581284
0.0409729
0.0565658
0.0641719
0.0650733
0.104407
0.146219
0.1738
0.175551
0.335255
0.56944
0.66092
0.655574
0.653244
0.651515
0.649812
0.648477
0.545951
0.121564
0.0758975
0.0742608
0.0733018
0.0725477
0.072686
0.0724489
0.075349
0.0780146
0.0808054
0.082877
0.0851278
0.240611
0.628566
0.651403
0.65165
0.651562
0.651631
0.297081
0.224665
0.566029
0.620119
0.0388646
0.0394718
0.0409729
0.222265
0.553224
0.563297
0.554436
0.447406
0.488824
0.664786
0.664786
0.664858
0.597534
0.578478
0.446295
0.562508
0.648535
0.644801
0.639579
0.581939
0.536767
0.576864
0.611229
0.607156
0.604744
0.603594
0.600492
0.595239
0.253094
0.176801
0.581257
0.65097
0.651534
0.65167
0.651672
0.651617
0.388461
0.224662
0.527549
0.620115
0.0394718
0.291478
0.583565
0.591804
0.587163
0.567544
0.251007
0.176052
0.300962
0.66327
0.664966
0.575189
0.102016
0.0669746
0.197625
0.348494
0.457317
0.490378
0.484244
0.559038
0.624828
0.625483
0.625483
0.625483
0.564307
0.153962
0.0176078
0.0489551
0.0374011
0.094152
0.584976
0.651371
0.651665
0.651647
0.651647
0.651806
0.651739
0.246726
0.268516
0.620116
0.48059
0.595617
0.595617
0.595617
0.455037
0.0588152
0.0648395
0.188661
0.530145
0.655637
0.658189
0.0888776
0.000285926
0.0482918
0.000264939
1.81662e-05
1.80615e-05
1.80585e-05
1.80574e-05
1.80546e-05
0.0377404
0.0645047
0.0578868
0.0376326
0.0104882
0.00143366
0.00210959
0.00217966
0.000954128
0.000367533
0.392647
0.651258
0.651713
0.651647
0.651708
0.6518
0.651972
0.563004
0.270942
0.577094
0.570779
0.593378
0.5388
0.0716238
0.0399924
0.0399368
0.199309
0.659736
0.665467
0.663302
0.235087
0.000265267
2.88007e-05
0.00150588
0.000577891
1.84247e-05
1.81256e-05
1.80605e-05
1.80546e-05
1.8054e-05
1.80539e-05
1.80538e-05
1.80539e-05
1.80539e-05
0.000310988
0.000538962
0.00094953
0.00246961
0.00107155
4.3071e-05
0.01465
0.272116
0.651335
0.651814
0.651797
0.651992
0.65233
0.652476
0.420765
0.402791
0.452428
0.590779
0.144283
0.040145
0.039919
0.216013
0.658764
0.668291
0.667633
0.415378
0.0142087
1.87179e-05
1.82327e-05
1.8155e-05
1.98937e-05
1.84784e-05
1.83035e-05
1.85773e-05
1.81826e-05
1.80546e-05
1.8054e-05
1.80539e-05
1.80538e-05
1.80601e-05
6.80577e-05
6.60112e-05
1.79015e-05
1.86787e-05
8.0234e-05
2.04775e-05
4.28763e-05
0.000187506
0.103749
0.329655
0.648046
0.652238
0.652361
0.652542
0.468458
0.402791
0.481786
0.268834
0.0409417
0.0404384
0.22032
0.649419
0.668656
0.668864
0.516909
0.0216719
1.8718e-05
1.82327e-05
1.8155e-05
1.81433e-05
1.81427e-05
1.81433e-05
1.99405e-05
2.11875e-05
2.11874e-05
1.83323e-05
1.80561e-05
1.80632e-05
1.80601e-05
1.88054e-05
1.82844e-05
1.7769e-05
1.77093e-05
1.77049e-05
1.77027e-05
1.77167e-05
1.88953e-05
2.96161e-05
0.000122316
0.00619543
0.089135
0.195879
0.62414
0.652588
0.422499
0.415588
0.431455
0.0422459
0.0406816
0.189688
0.655488
0.668834
0.668923
0.63867
0.109626
8.94112e-05
2.78352e-05
1.87179e-05
1.82327e-05
1.8155e-05
1.81433e-05
1.81423e-05
2.11469e-05
2.1187e-05
1.9568e-05
2.16349e-05
2.2128e-05
7.37501e-05
9.85316e-05
3.09078e-05
1.7842e-05
1.77116e-05
1.77049e-05
1.76977e-05
1.76855e-05
1.76783e-05
1.77213e-05
1.82851e-05
2.53198e-05
5.13329e-05
0.000288588
0.000805736
0.336171
0.457163
0.429501
0.618342
0.303596
0.0428611
0.120214
0.635061
0.667697
0.668759
0.668552
0.583062
0.0366321
0.000301186
8.9411e-05
2.7835e-05
2.0422e-05
1.84758e-05
1.81858e-05
1.81485e-05
1.83224e-05
1.93264e-05
1.86251e-05
1.86251e-05
1.86251e-05
0.000133773
0.00046071
0.000211163
1.84296e-05
1.7847e-05
1.77011e-05
1.76832e-05
1.76754e-05
1.7673e-05
1.76671e-05
1.77025e-05
1.83552e-05
2.13351e-05
5.15058e-05
0.000288689
0.147574
0.453798
0.586071
0.632134
0.112896
0.0476097
0.364551
0.6571
0.666455
0.667697
0.666139
0.650054
0.249407
0.0234635
0.00157862
0.000278748
9.51231e-05
3.05709e-05
1.95041e-05
1.8388e-05
1.83508e-05
1.85273e-05
1.86283e-05
1.8625e-05
1.86251e-05
7.86725e-05
0.000464887
0.000367807
0.000104901
2.5994e-05
1.77644e-05
1.763e-05
1.76574e-05
1.76659e-05
1.76627e-05
1.76616e-05
1.77102e-05
1.84471e-05
2.47377e-05
0.00186845
0.286778
0.620735
0.626459
0.623597
0.0711274
0.0874012
0.552719
0.643524
0.248142
0.286209
0.662787
0.656494
0.651616
0.480064
0.233808
0.0487379
0.00343459
0.000332725
7.84946e-05
2.8852e-05
1.9034e-05
1.87297e-05
1.86676e-05
1.86323e-05
1.86335e-05
1.87733e-05
0.0002936
0.000819364
0.000810612
0.00018435
1.78841e-05
1.76503e-05
1.76519e-05
1.76648e-05
1.76577e-05
1.7657e-05
1.76626e-05
1.82441e-05
0.000141234
0.0614378
0.537932
0.624256
0.625225
0.623918
0.0711274
0.1866
0.656611
0.34396
0.000400688
0.0102896
0.385285
0.648769
0.643077
0.631351
0.627782
0.517995
0.276968
0.0792483
0.00305719
0.000284479
5.09316e-05
2.21825e-05
1.94684e-05
1.87575e-05
1.8773e-05
2.76715e-05
0.000793247
0.0221958
0.014519
1.80637e-05
1.76717e-05
1.76522e-05
1.7665e-05
1.76583e-05
1.76563e-05
1.76562e-05
1.7657e-05
5.07494e-05
0.000970746
0.0530564
0.504444
0.624247
0.624323
0.624179
0.257298
0.428301
0.661128
0.349501
0.000251996
0.000100906
0.000159697
0.165956
0.498106
0.624535
0.622312
0.610885
0.604547
0.550154
0.266112
0.0706795
0.000420763
8.34075e-05
3.52198e-05
2.05433e-05
2.05596e-05
9.39774e-05
0.00112626
0.0711311
0.159296
0.0153304
1.79149e-05
1.76585e-05
1.76573e-05
1.76563e-05
1.76561e-05
1.76561e-05
1.76562e-05
2.36268e-05
0.00030608
0.0238809
0.304258
0.624268
0.624191
0.624186
0.66084
0.662056
0.661736
0.596894
0.0522609
9.86414e-05
0.000100906
0.000159697
0.00028572
0.152103
0.393019
0.546637
0.601516
0.588492
0.578499
0.522068
0.183487
0.0140979
0.000268993
5.58564e-05
4.65883e-05
0.000292705
0.00195318
0.110593
0.175802
0.147609
2.33571e-05
1.77735e-05
1.76557e-05
1.76558e-05
1.76561e-05
1.76561e-05
1.76561e-05
1.76198e-05
2.01773e-05
0.00741711
0.103593
0.472946
0.624187
0.624187
0.662154
0.662161
0.662056
0.627175
0.0732344
0.000100645
0.000108858
0.000245735
0.000283681
0.000338488
0.000269913
0.010724
0.24543
0.465965
0.575932
0.577003
0.588307
0.389682
0.0919347
0.000384872
0.00019048
0.000682844
0.00215757
0.053182
0.175802
0.17466
0.0894284
1.98677e-05
1.76595e-05
1.76572e-05
1.76561e-05
1.76561e-05
1.76567e-05
1.76588e-05
1.85192e-05
0.00381436
0.0266415
0.116934
0.624187
0.624187
0.662169
0.66217
0.662161
0.487007
9.77322e-05
9.54967e-05
0.000521778
0.00384255
0.0019582
0.000329193
9.98366e-05
2.87944e-05
1.40052e-05
0.000162829
0.231654
0.525574
0.59627
0.602346
0.569046
0.153349
0.0158899
0.00227575
0.00602538
0.012647
0.0942177
0.171911
0.169954
0.0685369
1.76621e-05
1.76618e-05
1.76572e-05
1.76567e-05
1.76678e-05
1.84966e-05
0.00055935
0.00493291
0.00028969
0.00219755
0.588788
0.606072
0.662169
0.662169
0.529143
0.156069
0.000114449
6.67396e-05
0.000410756
0.00347536
0.00241479
0.00516539
0.00515293
1.40052e-05
3.2298e-06
6.1536e-06
4.97966e-05
0.0173158
0.404547
0.609567
0.616566
0.626085
0.425757
0.235294
0.115015
0.082816
0.0854114
0.0919622
0.131489
0.201301
0.00786933
1.76696e-05
1.7679e-05
1.77929e-05
1.87665e-05
8.27296e-05
0.00152899
0.0032246
5.18199e-05
4.19147e-05
0.311116
0.559417
0.521574
0.269109
0.0861293
0.00071415
6.73852e-05
3.5228e-05
4.82561e-05
3.51847e-05
3.5379e-05
0.00955963
0.00940839
0.000395438
3.07792e-06
3.11258e-06
3.63491e-06
9.88386e-06
9.01135e-05
0.190682
0.531269
0.642994
0.647559
0.652791
0.638105
0.524161
0.327498
0.200767
0.15988
0.279252
0.370881
0.0374468
1.78519e-05
1.80521e-05
1.90988e-05
0.000148764
0.000771668
0.000157375
3.07849e-05
2.83814e-05
0.0613893
0.528343
0.0687337
0.00456989
0.000193642
9.55997e-05
3.5228e-05
3.51474e-05
3.515e-05
3.51474e-05
3.51846e-05
0.0163259
0.000602047
3.07761e-06
3.07872e-06
3.0777e-06
3.10785e-06
3.27914e-06
3.44263e-06
7.15897e-06
7.70937e-05
0.298295
0.541528
0.662789
0.665442
0.665604
0.665696
0.665729
0.640958
0.652932
0.664471
0.467676
0.0522091
1.87544e-05
1.92649e-05
2.1151e-05
2.92234e-05
3.07849e-05
2.77445e-05
2.72568e-05
0.0473045
0.507211
0.00460245
0.00841032
0.0013212
4.06223e-05
3.54119e-05
3.51568e-05
3.51473e-05
3.51568e-05
0.00413956
0.0219488
5.88866e-06
3.38061e-06
3.07872e-06
3.11258e-06
3.22686e-06
3.2163e-06
2.95716e-06
3.27197e-06
5.02147e-06
2.94153e-05
0.000387818
0.282707
0.605396
0.665696
0.665729
0.665723
0.665732
0.665669
0.665349
0.664634
0.587926
0.32401
0.0858828
2.92234e-05
3.1239e-05
2.77445e-05
2.72568e-05
2.72568e-05
0.214671
0.56526
2.91245e-05
0.00466194
0.00814235
0.000365111
3.57856e-05
3.528e-05
3.51568e-05
4.69376e-05
0.0321508
0.14877
0.171515
0.0346006
3.38061e-06
1.12817e-05
3.21541e-06
2.98014e-06
2.7552e-06
2.9612e-06
3.26025e-06
4.84042e-06
2.57009e-05
0.00037269
0.0830091
0.599731
0.665696
0.665732
0.665669
0.609394
0.548038
0.590046
0.640564
0.640379
0.577248
0.393589
0.226578
0.147592
0.218917
0.345863
0.590472
0.609581
1.30858e-05
0.00526604
0.0101685
0.0103534
0.00622981
0.00043316
3.528e-05
5.0444e-05
0.0428367
0.175345
0.175375
0.155952
0.0174171
1.28538e-05
1.82299e-05
6.91488e-05
2.12774e-06
4.1471e-06
7.97661e-06
3.39571e-06
4.46833e-06
2.62491e-05
0.000370207
0.111679
0.645615
0.665539
0.665218
0.595091
0.548004
0.57366
0.640483
0.640564
0.640379
0.63884
0.628883
0.54513
0.598038
0.608862
0.609624
0.609757
1.16666e-05
0.00358918
0.0103534
0.0103534
0.0103534
0.00738004
0.000159982
4.78271e-05
0.0161904
0.161467
0.175375
0.136154
0.0060285
2.47599e-05
0.00015108
0.000127275
9.72495e-07
1.01943e-05
1.13583e-05
3.23758e-06
1.9158e-06
4.49224e-06
4.35319e-05
0.000652795
0.237349
0.665088
0.664312
0.663953
0.663569
0.623632
0.585281
0.640379
0.640461
0.639621
0.409281
0.330377
0.608862
0.609624
0.609688
0.609653
1.15574e-05
1.16666e-05
0.00580291
0.0103534
0.00943216
0.0021395
4.79307e-05
4.45757e-05
4.47838e-05
0.0313216
0.175375
0.0985443
0.000668154
4.61585e-05
0.000230666
8.2403e-05
8.81208e-07
3.40697e-06
9.5595e-06
9.6439e-07
1.05725e-06
1.85015e-06
1.29786e-05
0.000156077
0.0253312
0.476977
0.663903
0.663569
0.403486
0.240124
0.239742
0.476036
0.639621
0.612017
0.315221
0.315221
0.318461
0.510903
0.490089
0.395567
1.15198e-05
1.15574e-05
0.00022579
0.00276519
0.00133149
7.64114e-05
4.45821e-05
4.47838e-05
4.45952e-05
0.00388202
0.0319697
0.0167641
5.59425e-05
5.42444e-05
0.000231714
7.01545e-05
8.81208e-07
8.81185e-07
8.81909e-07
8.90088e-07
9.6337e-07
1.769e-06
1.06481e-05
9.46499e-05
0.000885708
0.141066
0.577551
0.564602
0.240124
0.239704
0.239283
0.239495
0.272206
0.473105
0.650435
0.486028
0.323508
0.289973
0.283499
0.280644
1.15016e-05
1.15198e-05
0.000295841
0.000915744
0.000758414
9.31409e-05
4.85216e-05
0.00136244
0.00293502
0.00407676
0.00149525
5.75883e-05
5.7295e-05
9.62892e-05
0.000230877
8.90152e-05
8.81196e-07
8.81208e-07
8.82192e-07
8.91665e-07
9.64629e-07
1.63638e-06
6.83995e-06
4.40744e-05
0.000291266
0.00287044
0.260368
0.523896
0.518865
0.318927
0.239495
0.239311
0.239495
0.314591
0.65895
0.658856
0.643856
0.478466
0.30651
0.281593
0.000299193
0.00207208
0.00293007
0.00301658
0.00306919
0.00311404
0.00349914
0.00357251
0.0035648
0.000983648
0.000194267
5.72894e-05
5.75288e-05
0.000202285
0.000179362
8.81316e-07
8.81208e-07
8.81316e-07
8.83076e-07
8.99321e-07
1.01999e-06
4.31349e-06
2.62539e-05
7.06135e-05
0.000102024
5.82626e-05
6.29235e-05
0.128562
0.498377
0.551351
0.55328
0.552667
0.55134
0.634049
0.658968
0.658967
0.658948
0.658811
0.645582
0.617969
0.00345827
0.00344567
0.00272782
0.00116831
0.00166262
0.00123951
0.00115634
0.00207395
0.00122299
0.000287789
0.000186909
9.99165e-05
0.000198638
0.000202285
2.01587e-05
8.81795e-07
8.81316e-07
8.81795e-07
8.87461e-07
9.38683e-07
1.33348e-06
4.2161e-05
0.000118529
0.000120138
9.17846e-05
5.45242e-05
4.83333e-05
4.50431e-05
4.03425e-05
0.000588949
0.0959761
0.521661
0.65882
0.658969
0.658967
0.658969
0.658967
0.658961
0.658949
0.658935
0.00345827
0.00345827
0.000821314
0.000283151
0.000649306
0.000132454
3.61443e-05
7.69957e-05
0.000205397
0.000327308
0.000327745
0.000323856
0.000173359
6.66279e-05
8.81925e-07
8.81619e-07
8.81574e-07
8.81685e-07
8.8385e-07
9.03125e-07
1.03275e-06
2.71238e-05
0.000119504
0.000118357
0.000118435
5.21047e-05
4.75599e-05
4.03081e-05
3.27052e-05
2.63993e-05
2.06554e-05
1.90421e-05
0.0200767
0.289171
0.543357
0.656283
0.658961
0.658961
0.65896
0.658949
0.00345827
0.00316793
2.73542e-05
2.39437e-05
3.12845e-05
2.37786e-05
2.6424e-05
0.000187502
0.000286326
0.000287621
0.000108847
9.51355e-05
2.78152e-05
9.41339e-07
8.97574e-07
8.82037e-07
1.40573e-06
2.15191e-06
2.16306e-06
1.17786e-06
1.14775e-06
1.15002e-06
1.55877e-06
4.0187e-05
0.000122292
0.000123353
0.000124673
0.00011048
2.9366e-05
2.38447e-05
1.91901e-05
1.5928e-05
8.48218e-06
4.78258e-06
4.64569e-06
0.0417318
0.0997988
0.156105
0.197393
0.202822
0.00310871
0.00332296
0.000697929
2.36892e-05
2.34202e-05
2.3446e-05
2.37786e-05
0.000179408
0.000285207
0.000199521
5.24754e-06
2.11847e-06
1.09603e-06
9.67432e-07
9.41424e-07
1.29792e-06
1.28629e-06
1.29478e-06
1.56072e-06
2.49009e-06
3.87504e-06
3.88946e-06
2.92047e-06
1.89028e-06
1.147e-06
5.52224e-05
0.000126445
0.000128312
0.000129012
0.000132012
7.80205e-05
1.381e-05
6.05049e-06
4.64569e-06
4.51744e-06
4.32871e-06
4.23573e-06
1.15671e-05
9.94747e-05
0.00104197
0.00067684
0.00332296
0.0033119
0.000856373
2.3446e-05
2.34266e-05
2.3446e-05
3.70779e-05
0.000107088
5.66796e-05
1.10533e-05
4.85075e-06
1.93339e-05
0.000160485
0.000204811
0.000204994
0.000154032
2.88749e-05
3.32168e-06
1.81829e-06
1.61257e-06
1.63156e-06
1.81096e-06
2.27743e-06
1.13552e-06
1.09079e-06
1.08426e-06
2.01475e-05
9.15881e-05
0.000133948
0.000138863
0.000140617
0.000121737
5.51197e-06
4.32871e-06
4.19641e-06
3.76532e-06
4.42332e-06
0.000214011
0.00104124
8.89208e-07
0.000901775
0.00290404
0.00287262
0.00162797
0.000276203
2.41334e-05
2.29996e-05
1.93676e-05
1.71639e-05
1.6577e-05
6.26062e-06
6.40081e-06
4.87289e-05
0.000106738
5.03102e-05
0.000307258
0.000540376
0.000542529
0.000541809
0.000475937
5.56428e-05
1.80033e-06
1.74756e-06
1.58224e-06
1.08426e-06
1.08409e-06
1.08334e-06
1.08275e-06
1.08296e-06
3.79857e-05
0.000141914
0.000150039
0.000153436
4.68265e-05
3.76532e-06
3.46564e-06
1.38392e-05
3.28447e-05
4.45558e-05
2.86469e-06
3.14945e-06
0.000238385
0.00198923
0.00198372
0.0019323
0.00170345
0.00100804
3.99656e-05
1.84488e-05
1.71271e-05
0.000344636
0.000298697
4.97157e-05
4.87734e-05
4.94598e-05
5.20499e-05
6.39047e-05
6.49168e-05
9.58387e-05
0.00061001
0.000611947
0.000586632
7.60397e-05
1.34545e-06
1.0906e-06
1.08334e-06
1.08275e-06
1.08275e-06
1.08275e-06
1.08287e-06
1.08359e-06
8.30647e-05
0.000156161
0.000158008
3.72449e-05
3.46564e-06
3.37471e-06
1.94328e-05
5.84449e-05
3.67402e-06
3.86412e-06
4.59058e-06
6.29558e-05
0.000893321
0.00191448
0.00188986
0.00188986
0.0018728
0.000797908
0.00102785
0.0023372
0.00236388
0.00179907
0.00210982
0.00237134
0.00222796
0.000340755
6.54602e-05
6.9271e-05
7.36428e-05
0.000241307
0.000681518
0.000685115
0.000270865
1.36157e-06
1.09899e-06
1.08334e-06
1.08275e-06
1.08287e-06
1.08299e-06
1.08299e-06
1.08359e-06
6.78084e-05
0.000158008
0.000144867
3.37471e-06
3.28397e-06
2.06181e-05
5.87211e-05
1.44859e-05
8.52662e-06
6.45776e-06
6.87319e-06
1.11905e-05
0.000322284
0.000744192
0.00131514
0.000962488
0.00232136
0.00235847
0.00236478
0.00236646
0.00237275
0.00237541
0.00237446
0.00204212
0.000376016
0.000384262
0.000422263
8.39836e-05
0.000178412
0.000685115
0.000686617
0.00068789
0.000237893
2.43738e-06
1.1635e-06
1.08721e-06
1.08308e-06
1.08299e-06
1.08359e-06
1.08958e-06
1.09474e-06
0.000150769
0.000150646
4.61249e-06
3.28397e-06
3.28397e-06
4.79924e-05
2.86056e-05
3.56212e-05
7.39151e-06
7.78323e-06
7.97847e-06
9.30747e-06
2.0774e-05
5.34952e-05
8.71683e-05
0.00035323
0.000581487
0.000491522
0.00217146
0.00236427
0.00188291
0.000229556
3.46437e-05
6.31133e-05
0.000409766
0.000426908
8.2342e-05
2.20886e-05
0.000151781
0.00068789
0.000688466
0.000672246
7.48176e-05
2.83075e-06
4.04552e-06
7.18257e-06
4.86704e-06
3.07029e-06
1.09474e-06
1.11834e-06
0.000150608
0.000119223
8.42139e-06
3.28294e-06
3.33316e-06
4.6283e-05
3.46356e-05
3.65555e-05
9.37125e-05
0.000182505
0.000182532
0.00018174
0.000102968
7.40687e-05
0.000130156
0.000306147
0.000590149
0.000336639
0.000232536
0.000222152
0.000166017
6.54404e-05
3.05388e-05
2.77236e-05
2.76299e-05
2.78143e-05
2.33966e-05
2.18337e-05
2.20886e-05
0.000511607
0.000689037
0.000685552
0.00027874
9.66997e-06
5.92504e-06
3.05194e-05
3.27704e-05
3.27896e-05
3.70181e-06
1.29496e-05
0.000149583
0.000120791
9.00966e-06
3.26548e-06
3.55777e-06
5.67766e-05
9.05794e-05
5.31383e-06
6.64987e-06
1.94608e-05
2.81855e-05
3.84419e-05
6.20253e-05
7.63615e-05
6.71908e-05
8.60484e-05
0.000229955
0.000415425
0.000432386
0.000432932
0.000432531
0.000435014
0.000435018
0.000396415
6.36436e-05
2.18769e-05
2.05518e-05
2.01044e-05
2.18337e-05
0.000599638
0.000685652
0.000687237
0.000154061
1.11533e-05
1.99254e-05
3.27453e-05
3.27896e-05
3.27907e-05
8.21658e-06
1.73723e-05
0.000147513
0.000112619
6.60168e-06
3.22353e-06
3.26959e-06
5.6794e-05
6.32123e-05
2.01875e-07
1.02123e-07
1.24636e-07
2.25494e-07
2.63502e-07
3.12315e-07
3.446e-07
4.46608e-08
1.24778e-08
1.21292e-08
1.21292e-08
2.83503e-06
0.000384152
0.000434492
0.000435018
0.00043508
0.00043509
0.00043508
0.000189062
1.82804e-05
1.83572e-05
0.00021873
0.000819487
0.000673217
0.000204348
1.56722e-05
3.8372e-06
3.24248e-05
3.27809e-05
3.27914e-05
3.27896e-05
9.42851e-06
1.58979e-05
0.000144987
8.23721e-05
3.32497e-06
3.20423e-06
3.23485e-06
5.67482e-05
4.65279e-05
1.23749e-07
9.50376e-08
1.19791e-07
2.36258e-07
2.90338e-07
1.5327e-07
6.7018e-08
6.49349e-08
2.01942e-08
1.23954e-08
1.21289e-08
1.23954e-08
0.000328462
0.000433826
0.000434811
0.000435028
0.00043509
0.000106071
1.82215e-05
1.70657e-05
1.81756e-05
0.000530085
0.000835627
0.000346399
8.90671e-06
3.65613e-06
3.15217e-06
2.07829e-05
3.27413e-05
3.27809e-05
3.27328e-05
5.252e-06
2.53029e-05
0.000142114
5.9542e-05
3.20423e-06
3.18986e-06
3.20422e-06
4.80261e-05
2.40771e-05
2.82089e-08
4.46857e-08
6.28683e-07
6.45675e-07
6.45675e-07
4.35544e-07
2.03571e-08
1.51412e-08
1.39923e-08
1.29579e-08
1.23954e-08
0.000133002
0.000424202
0.000428234
0.000433829
0.000434815
0.000203557
1.80772e-05
1.69843e-05
1.68206e-05
3.25253e-05
0.000786274
0.000841014
0.000354785
5.12946e-06
3.15137e-06
2.93592e-06
2.73857e-06
3.00367e-05
3.27413e-05
2.54862e-05
4.25238e-06
2.19637e-05
0.000133298