/*--------------------------------*- C++ -*----------------------------------*\
  =========                 |
  \\      /  F ield         | OpenFOAM: The Open Source CFD Toolbox
   \\    /   O peration     | Website:  https://openfoam.org
    \\  /    A nd           | Version:  8
     \\/     M anipulation  |
\*---------------------------------------------------------------------------*/
FoamFile
{
    version     2.0;
    format      ascii;
    class       volVectorField;
    location    "0.85";
    object      U;
}
// * * * * * * * * * * * * * * * * * * * * * * * * * * * * * * * * * * * * * //

dimensions      [0 1 -1 0 0 0 0];

internalField   nonuniform List<vector> 
9150
(
(0.00514763 -0.0777174 0)
(0.0128571 -0.097446 0)
(0.0108394 -0.103704 0)
(0.00780662 -0.107974 0)
(0.00224316 -0.109067 0)
(-0.00197483 -0.10918 0)
(-0.00779939 -0.107958 0)
(-0.0108049 -0.103725 0)
(-0.012841 -0.097485 0)
(-0.00513959 -0.0777353 0)
(0.00611809 -0.0922274 0)
(0.00862721 -0.100512 0)
(0.00714399 -0.102214 0)
(0.004778 -0.103858 0)
(0.00216604 -0.10516 0)
(-0.00214668 -0.105237 0)
(-0.0048742 -0.103734 0)
(-0.00708608 -0.102295 0)
(-0.00861572 -0.100509 0)
(-0.0061064 -0.0922293 0)
(0.00189581 -0.0955324 0)
(0.004592 -0.0990369 0)
(0.0037637 -0.100751 0)
(0.00308311 -0.101981 0)
(0.000672413 -0.102373 0)
(-0.000983123 -0.102251 0)
(-0.00297924 -0.101994 0)
(-0.00372271 -0.100788 0)
(-0.00458936 -0.0990193 0)
(-0.00189192 -0.095527 0)
(0.00182606 -0.0985014 0)
(0.00252276 -0.100431 0)
(0.00209558 -0.10049 0)
(0.00167299 -0.100386 0)
(0.000809496 -0.100789 0)
(-0.000388533 -0.100862 0)
(-0.00129391 -0.100707 0)
(-0.00215303 -0.10033 0)
(-0.00252251 -0.10042 0)
(-0.00182888 -0.0984998 0)
(0.000217857 -0.0995127 0)
(0.000752484 -0.0995555 0)
(0.00048772 -0.0998929 0)
(0.000364614 -0.100162 0)
(0.000116086 -0.100105 0)
(-0.000268054 -0.100093 0)
(-0.000657788 -0.0998628 0)
(-0.00050349 -0.0998611 0)
(-0.000754814 -0.0995543 0)
(-0.000217678 -0.0995139 0)
(0.0785218 -0.195776 8.80619e-27)
(0.0502221 -0.185998 0)
(0.0328133 -0.177878 0)
(0.0175302 -0.174797 0)
(0.00418416 -0.176032 0)
(-0.00485247 -0.175754 0)
(-0.0178496 -0.174507 0)
(-0.032565 -0.177962 0)
(-0.0501038 -0.186047 0)
(-0.0784951 -0.195898 -8.93646e-27)
(0.0584 -0.14582 2.82391e-27)
(0.0471681 -0.146334 0)
(0.0271779 -0.155948 0)
(0.0195475 -0.15771 0)
(0.00453735 -0.15717 0)
(-0.00414305 -0.157382 0)
(-0.0192084 -0.15842 0)
(-0.0271721 -0.156134 0)
(-0.0471351 -0.146357 0)
(-0.058401 -0.145882 -2.88022e-27)
(0.0480836 -0.121608 1.47553e-27)
(0.0423692 -0.131657 0)
(0.0304517 -0.135402 0)
(0.0193121 -0.137554 0)
(0.00566284 -0.139774 0)
(-0.0059178 -0.139713 0)
(-0.019523 -0.136889 0)
(-0.0305708 -0.13531 0)
(-0.042468 -0.131705 0)
(-0.0481311 -0.121672 -1.49524e-27)
(0.037678 -0.0996006 1.77812e-27)
(0.0374252 -0.110318 0)
(0.0212403 -0.119237 0)
(0.0160868 -0.125323 0)
(0.00373553 -0.125544 0)
(-0.00388623 -0.125668 0)
(-0.0160618 -0.125796 0)
(-0.0212406 -0.119411 0)
(-0.03739 -0.110374 0)
(-0.0377018 -0.0996617 -1.75791e-27)
(0.02576 -0.0809099 -7.59057e-27)
(0.0293366 -0.100581 -8.87873e-27)
(0.0210897 -0.108439 -2.23529e-27)
(0.0127961 -0.113147 -1.95637e-27)
(0.00483869 -0.116062 -4.65397e-29)
(-0.00463876 -0.116119 -4.67459e-29)
(-0.0126749 -0.113196 -1.93658e-27)
(-0.0210876 -0.108437 -2.23801e-27)
(-0.0293129 -0.100626 -8.86808e-27)
(-0.0257742 -0.0809414 -7.59378e-27)
(0.0174488 -0.143649 0)
(0.0131601 -0.202293 0)
(0.0222964 -0.215298 0)
(0.00707219 -0.222986 0)
(0.00731232 -0.225713 0)
(-0.00672222 -0.224168 0)
(-0.00457462 -0.223163 0)
(-0.0194876 -0.21643 0)
(-0.00901299 -0.204764 0)
(-0.0167662 -0.144192 0)
(0.0160697 -0.165026 0)
(0.00231499 -0.197648 0)
(0.0162654 -0.207133 0)
(0.00292831 -0.212397 0)
(0.00879387 -0.214009 0)
(-0.00529065 -0.214139 0)
(0.000575867 -0.213606 0)
(-0.013976 -0.208779 0)
(-0.000875004 -0.200185 0)
(-0.0149435 -0.168065 0)
(0.0154153 -0.170963 0)
(-0.00287291 -0.201589 0)
(0.0120982 -0.206729 0)
(-0.00149743 -0.209582 0)
(0.00503377 -0.209269 0)
(-0.00515351 -0.209417 0)
(0.00199741 -0.209088 0)
(-0.0114267 -0.207554 0)
(0.00330921 -0.202491 0)
(-0.0153705 -0.171937 0)
(0.0166 -0.191148 0)
(-0.00584321 -0.202527 0)
(0.0111494 -0.208797 0)
(-0.000925937 -0.205991 0)
(0.00381228 -0.207106 0)
(-0.00278562 -0.207454 0)
(0.00206995 -0.207103 0)
(-0.0102955 -0.209423 0)
(0.006024 -0.203324 0)
(-0.0162051 -0.191873 0)
(0.0313627 -0.217479 0)
(0.00707523 -0.204708 0)
(0.0172855 -0.206117 0)
(0.00956757 -0.198532 0)
(0.00259961 -0.195314 0)
(-0.00191936 -0.195333 0)
(-0.00918213 -0.197472 0)
(-0.0170749 -0.20609 0)
(-0.00684039 -0.204569 0)
(-0.0314614 -0.217999 0)
(-0.764391 -0.321073 0)
(-0.634375 -0.322774 0)
(-0.494582 -0.328524 0)
(-0.351844 -0.377693 0)
(-0.217589 -0.477226 0)
(0.0783908 -0.573093 0)
(0.323003 -0.59331 0)
(0.596041 -0.611059 0)
(0.794774 -0.561428 0)
(1.09211 -0.46427 0)
(-0.226444 -0.366931 0)
(-0.156308 -0.312427 0)
(-0.0612237 -0.237785 0)
(0.0366381 -0.263515 0)
(0.242648 -0.478837 0)
(0.457486 -0.720801 0)
(0.578569 -0.780769 0)
(0.678892 -0.728925 0)
(0.744035 -0.614727 0)
(0.813589 -0.293253 0)
(-0.00535926 -0.620265 0)
(0.0283109 -0.605902 0)
(0.116617 -0.605703 0)
(0.253376 -0.777308 0)
(0.41953 -0.972338 0)
(0.530332 -1.01515 0)
(0.562508 -0.978262 0)
(0.524406 -0.855312 0)
(0.15143 -0.503448 0)
(-0.319632 0.170889 0)
(0.0646411 -0.623739 0)
(0.103048 -0.66442 0)
(0.256093 -0.702715 0)
(0.329494 -1.04748 0)
(0.431625 -1.11118 0)
(0.433511 -1.11021 0)
(0.375553 -1.01274 0)
(-0.268551 0.291953 0)
(-0.482694 0.813187 0)
(-0.678916 0.64033 0)
(0.0207729 -0.577655 0)
(0.0873449 -0.820229 0)
(0.343082 -1.01735 0)
(0.309897 -1.15157 0)
(0.34512 -1.16119 0)
(0.0998772 -0.945275 0)
(-0.379352 0.498652 0)
(-0.527587 0.70526 0)
(-0.535218 0.744068 0)
(-0.498578 0.488349 0)
(-0.171313 -0.814362 0)
(-0.0319461 -1.23523 0)
(0.0735073 -1.29427 0)
(-0.0881105 -1.06285 0)
(-0.0668276 -0.504475 0)
(-0.471826 0.19988 0)
(-0.536528 0.53812 0)
(-0.497338 0.652888 0)
(-0.474702 0.639018 0)
(-0.356854 0.272719 0)
(-0.326108 -1.19742 0)
(-0.329282 -1.29662 0)
(-0.352054 -1.20553 0)
(-0.255204 -0.805584 0)
(-0.380564 -0.130567 0)
(-0.51306 0.0620008 0)
(-0.408111 0.410678 0)
(-0.395742 0.469732 0)
(-0.338057 0.378179 0)
(-0.2625 0.136772 0)
(-0.5616 -1.22002 0)
(-0.575333 -1.32424 0)
(-0.540593 -1.26455 0)
(-0.379165 -0.80498 0)
(-0.372045 -0.228633 0)
(-0.383247 -0.0779891 0)
(-0.321736 0.342383 0)
(-0.299109 0.377228 0)
(-0.211505 0.325148 0)
(-0.230871 0.244229 0)
(-0.627665 -1.24574 0)
(-0.667153 -1.42686 0)
(-0.634532 -1.40442 0)
(-0.469566 -0.929749 0)
(-0.277998 -0.161929 0)
(-0.320431 0.0936019 0)
(-0.300429 0.296737 0)
(-0.270043 0.326369 0)
(-0.222985 0.283715 0)
(-0.227745 0.220998 0)
(-0.573808 -1.00385 0)
(-0.708567 -1.47038 0)
(-0.665391 -1.55385 0)
(-0.539184 -1.44458 0)
(-0.350892 -0.626689 0)
(-0.141248 0.0877932 0)
(-0.188004 0.227431 0)
(-0.156217 0.260188 0)
(-0.16417 0.263074 0)
(-0.17486 0.206932 0)
(-0.204598 -0.457463 0)
(-0.522345 -1.20292 0)
(-0.515129 -1.6409 0)
(-0.430444 -1.67633 0)
(-0.390152 -1.36177 0)
(0.0262527 -0.253256 0)
(-0.0124672 0.300806 0)
(-0.035825 0.305786 0)
(-0.0749994 0.288378 0)
(-0.111115 0.236214 0)
(0.08322 -0.301333 0)
(0.0678152 -0.476208 0)
(-0.275666 -1.35237 0)
(-0.218755 -1.71166 0)
(-0.207811 -1.62538 0)
(-0.04486 -1.03595 0)
(0.126833 0.356161 0)
(-0.0575917 0.359146 0)
(-0.0270439 0.339511 0)
(-0.0986228 0.286818 0)
(0.0343124 -0.811895 0)
(-0.0674381 -0.303935 0)
(-0.227791 -1.0336 0)
(-0.151088 -1.79684 0)
(-0.097173 -1.69906 0)
(-0.0851418 -1.24746 0)
(0.0660895 0.509622 0)
(-0.132215 0.459838 0)
(-0.0629133 0.400323 0)
(-0.133703 0.335553 0)
(-0.27304 -0.00640673 0)
(-0.339478 -0.0493269 0)
(-0.0833018 -1.06966 0)
(-0.0842809 -1.7893 0)
(-0.0721673 -1.74662 0)
(-0.076008 -1.3598 0)
(0.0157249 0.634495 0)
(-0.100184 0.477883 0)
(-0.0213703 0.419201 0)
(-0.0599318 0.370921 0)
(-0.255652 0.210666 0)
(-0.0663769 -0.864716 0)
(-0.0632804 -1.62605 0)
(-0.0764939 -1.79302 0)
(-0.0677288 -1.7533 0)
(-0.0777019 -1.40753 0)
(0.0357486 0.650805 0)
(0.0290388 0.469019 0)
(0.0319495 0.41414 0)
(0.0299047 0.390857 0)
(-0.00069951 -0.0384014 0)
(0.137673 -0.24083 0)
(-0.0834296 -1.24853 0)
(-0.0887614 -1.7872 0)
(-0.0778607 -1.75671 0)
(-0.082307 -1.43208 0)
(-0.0424155 0.425118 0)
(0.0389444 0.447571 0)
(0.022694 0.413964 0)
(0.0337745 0.394898 0)
(0.0942847 -0.360958 0)
(0.115344 -0.458669 0)
(-0.0674106 -1.1319 0)
(-0.111689 -1.78348 0)
(-0.0825864 -1.77474 0)
(-0.0674409 -1.50229 0)
(-0.0496676 0.29246 0)
(-0.0014074 0.387758 0)
(0.0197745 0.409911 0)
(0.0281073 0.39629 0)
(0.270858 -0.0266017 0)
(0.178218 -0.197557 0)
(-0.0314127 -0.862583 0)
(-0.0638524 -1.76654 0)
(-0.0520813 -1.77674 0)
(-0.0549663 -1.60515 0)
(-0.0249739 0.287776 0)
(-0.0310059 0.291222 0)
(0.0359311 0.353338 0)
(0.0298611 0.381402 0)
(0.253154 0.198363 0)
(0.274224 -0.0991947 0)
(0.0156099 -0.299828 0)
(-0.0371741 -1.75392 0)
(-0.0252868 -1.76811 0)
(-0.0392918 -1.67683 0)
(0.000862405 0.309482 0)
(-0.0433292 0.251661 0)
(-0.0087713 0.287736 0)
(0.00101105 0.369058 0)
(0.218269 0.17986 0)
(0.205598 0.113852 0)
(0.014958 -0.0392788 0)
(-0.0440424 -1.71255 0)
(-0.0205496 -1.7543 0)
(-0.0420408 -1.68949 0)
(-0.000484039 0.374617 0)
(-0.0312625 0.254804 0)
(0.00868518 0.28485 0)
(0.0100201 0.338708 0)
(0.130091 0.136596 0)
(0.136356 0.201161 0)
(0.0446096 0.188588 0)
(-0.0501126 -1.69207 0)
(-0.0254836 -1.74381 0)
(-0.041461 -1.70362 0)
(-0.0165209 0.300049 0)
(0.453287 0.311882 0)
(0.829289 0.389349 0)
(0.750526 0.388573 0)
(0.136463 0.14364 0)
(0.101437 0.236176 0)
(0.0444224 0.433226 0)
(-0.0179427 -1.58631 0)
(-0.00431472 -1.73096 0)
(-0.0217933 -1.72861 0)
(0.040505 -1.4677 0)
(0.636439 -0.802671 0)
(0.921291 -0.282712 0)
(0.89801 0.200795 0)
(0.0977441 0.222224 0)
(-0.00337819 0.331146 0)
(-0.0346902 0.402249 0)
(-0.0119965 -1.61773 0)
(-0.00141774 -1.72058 0)
(-0.0143532 -1.71767 0)
(-0.00803769 -1.62234 0)
(0.124001 -0.780765 0)
(0.234736 0.0245134 0)
(0.404203 0.536251 0)
(0.0916774 0.300003 0)
(0.00337308 0.429287 0)
(0.01867 0.374499 0)
(0.0260843 -1.53801 0)
(0.00895314 -1.71011 0)
(-0.00405204 -1.71138 0)
(0.00477192 -1.72438 0)
(-0.0073962 -0.841331 0)
(-0.0920567 -0.359815 0)
(0.131174 0.395553 0)
(0.145874 0.413818 0)
(0.0400566 0.596547 0)
(0.074422 0.353097 0)
(0.00547425 -1.41185 0)
(0.00582525 -1.69252 0)
(-0.00826832 -1.69811 0)
(-0.00893352 -1.71099 0)
(-0.0535792 -0.738648 0)
(-0.144953 -0.398285 0)
(-0.0222941 0.0825755 0)
(0.0349486 0.593584 0)
(-0.00323416 0.665363 0)
(-0.0120612 0.32185 0)
(-0.0067018 -1.41189 0)
(0.00877403 -1.67927 0)
(-0.00458165 -1.68016 0)
(-0.00542141 -1.67466 0)
(-0.0224792 -0.689932 0)
(-0.060722 -0.369622 0)
(-0.0779244 -0.170895 0)
(0.0532368 0.707133 0)
(0.0228218 0.70611 0)
(-0.00789329 0.367291 0)
(0.0115312 -1.53341 0)
(0.0124902 -1.66454 0)
(-0.0014541 -1.67182 0)
(0.0106278 -1.66253 0)
(0.00808688 -0.678096 0)
(0.01314 -0.286172 0)
(-0.0481598 -0.12967 0)
(0.131639 0.816762 0)
(0.0944556 0.77282 0)
(0.0268625 0.491355 0)
(-0.008967 -1.54518 0)
(0.00519383 -1.65697 0)
(-0.00814055 -1.66772 0)
(-0.0156532 -1.659 0)
(-0.00946222 -0.718143 0)
(0.029802 -0.245558 0)
(-0.0686564 -0.0519749 0)
(0.143283 0.932212 0)
(0.131605 0.851544 0)
(-0.000177901 0.622688 0)
(-0.0149655 -1.51834 0)
(-0.000426548 -1.65423 0)
(-0.0137412 -1.65555 0)
(-0.0252904 -1.65165 0)
(-0.0418499 -0.720658 0)
(-0.0326651 -0.106396 0)
(-0.103133 0.151103 0)
(0.0756147 1.13426 0)
(0.120759 0.983543 0)
(-0.0219946 0.768263 0)
(0.0203537 -1.49107 0)
(0.00760916 -1.6448 0)
(-0.0064165 -1.64339 0)
(-0.0050931 -1.62979 0)
(-0.0321693 -0.698752 0)
(-0.0137717 -0.129684 0)
(-0.00222555 0.143928 0)
(0.00068437 1.22624 0)
(0.0517623 1.06811 0)
(-0.0221886 0.797835 0)
(0.0209627 -1.44293 0)
(0.0077672 -1.62859 0)
(-0.00548229 -1.63066 0)
(-0.00993621 -1.61197 0)
(-0.0291797 -0.691673 0)
(-0.00144791 -0.221962 0)
(0.0918096 0.131847 0)
(-0.0504919 1.17361 0)
(-0.0137861 1.0517 0)
(0.0367015 0.727338 0)
(0.0281964 -1.45407 0)
(0.00920636 -1.61505 0)
(-0.00431098 -1.61686 0)
(0.00361876 -1.57974 0)
(-0.0141877 -0.706492 0)
(-0.020812 -0.364167 0)
(0.0622345 0.0846691 0)
(-0.152255 1.09714 0)
(-0.126733 0.999599 0)
(-0.0116068 0.50907 0)
(0.0217315 -1.37295 0)
(0.00683087 -1.60164 0)
(-0.0082827 -1.60588 0)
(-0.0088401 -1.5585 0)
(-0.0232218 -0.696045 0)
(-0.0346447 -0.357363 0)
(0.00655837 0.0296691 0)
(-0.208208 1.08299 0)
(-0.221223 0.939519 0)
(-0.0308341 0.214931 0)
(0.0051567 -1.36088 0)
(0.00784827 -1.59171 0)
(-0.00690673 -1.59243 0)
(-0.0059245 -1.52393 0)
(-0.0342243 -0.68213 0)
(-0.0269851 -0.348282 0)
(-0.0463434 -0.179448 0)
(-0.246383 1.05147 0)
(-0.17199 0.732499 0)
(-0.00883334 0.00768193 0)
(6.11719e-05 -1.39134 0)
(0.00748222 -1.57752 0)
(-0.00764452 -1.5788 0)
(-0.00552475 -1.50067 0)
(-0.0287307 -0.68086 0)
(-0.00684098 -0.356654 0)
(-0.0131063 -0.215292 0)
(-0.24563 0.931446 0)
(-0.0968956 0.427217 0)
(-0.0101998 -0.124079 0)
(0.00375779 -1.41725 0)
(0.0068462 -1.56431 0)
(-0.00748161 -1.56455 0)
(-0.00220014 -1.48157 0)
(-0.0202618 -0.683819 0)
(-0.000518104 -0.363167 0)
(0.00134224 -0.226738 0)
(-0.224928 0.683356 0)
(-0.0879738 0.188642 0)
(-0.0268314 -0.241571 0)
(0.00181924 -1.46178 0)
(0.00762919 -1.55419 0)
(-0.0066733 -1.55418 0)
(-0.00210099 -1.47068 0)
(-0.0214268 -0.683163 0)
(-0.00484991 -0.362619 0)
(-0.00980186 -0.213644 0)
(-0.146814 0.58248 0)
(-0.0645031 -0.0115173 0)
(-0.0315019 -0.307385 0)
(0.00286151 -1.49404 0)
(0.00795789 -1.54164 0)
(-0.00670796 -1.54314 0)
(-0.00528998 -1.45361 0)
(-0.022741 -0.683812 0)
(-0.0120326 -0.367937 0)
(-0.00648774 -0.190437 0)
(0.0367521 0.591514 0)
(0.0636113 -0.02079 0)
(0.0209594 -0.274889 0)
(-0.00118876 -1.4891 0)
(0.00733464 -1.52806 0)
(-0.00739967 -1.5286 0)
(-0.00364501 -1.43675 0)
(-0.0217682 -0.689765 0)
(-0.00899269 -0.411057 0)
(0.00751403 -0.210107 0)
(0.177932 0.514028 0)
(0.15031 0.0576978 0)
(0.0926041 -0.25194 0)
(0.0148563 -1.44614 0)
(0.00700226 -1.51612 0)
(-0.0072966 -1.51602 0)
(-0.00851548 -1.4211 0)
(-0.0215578 -0.690256 0)
(-0.00373191 -0.427295 0)
(0.0064485 -0.288327 0)
(0.233911 0.416514 0)
(0.187921 0.201446 0)
(0.131405 -0.141399 0)
(0.00662986 -1.32278 0)
(0.00773242 -1.503 0)
(-0.0074249 -1.50382 0)
(-0.00147616 -1.41039 0)
(-0.0160942 -0.701305 0)
(0.00390535 -0.443762 0)
(0.00161037 -0.314319 0)
(0.203074 0.345156 0)
(0.196636 0.282332 0)
(0.0456298 0.128335 0)
(0.0164714 -1.21381 0)
(0.00728545 -1.48987 0)
(-0.00677074 -1.48976 0)
(-0.00794943 -1.39538 0)
(-0.0172479 -0.708216 0)
(0.00474443 -0.467199 0)
(0.00558741 -0.330742 0)
(0.0998057 0.419176 0)
(0.0460358 0.478033 0)
(0.043911 0.234949 0)
(-0.00423743 -1.20612 0)
(0.00773556 -1.47771 0)
(-0.00770641 -1.47747 0)
(-0.00417082 -1.3861 0)
(-0.0164258 -0.725571 0)
(0.00212828 -0.485231 0)
(0.00318218 -0.336843 0)
(-0.0861208 0.400732 0)
(0.0275008 0.43107 0)
(0.0705655 0.288151 0)
(0.0135881 -1.02607 0)
(0.00705928 -1.46429 0)
(-0.0069567 -1.46435 0)
(-0.00719424 -1.37524 0)
(-0.0135959 -0.738094 0)
(0.00524334 -0.505858 0)
(0.00751961 -0.345032 0)
(-0.226073 0.090943 0)
(-0.0936669 0.20314 0)
(-0.00151918 0.287204 0)
(-0.00166232 -1.20773 0)
(0.00770134 -1.45077 0)
(-0.00759103 -1.45037 0)
(-0.00435446 -1.364 0)
(-0.0145607 -0.748875 0)
(-0.000116529 -0.518742 0)
(0.00402698 -0.367022 0)
(-0.324633 -0.23335 0)
(-0.218381 -0.106181 0)
(-0.0274951 -0.00458153 0)
(0.02049 -1.12117 0)
(0.0073173 -1.43844 0)
(-0.00725914 -1.43765 0)
(-0.00738911 -1.35278 0)
(-0.0141423 -0.758765 0)
(0.0037487 -0.529722 0)
(0.00460616 -0.4007 0)
(-0.343037 -0.302322 0)
(-0.241744 -0.282262 0)
(-0.0173464 -0.225819 0)
(0.0170761 -1.10038 0)
(0.00741753 -1.42553 0)
(-0.00760987 -1.42471 0)
(-0.00208171 -1.34572 0)
(-0.011622 -0.781554 0)
(0.00776498 -0.550446 0)
(0.00550519 -0.429517 0)
(-0.550826 -0.500774 0)
(-0.368315 -0.69941 0)
(-0.104077 -0.703404 0)
(0.0272624 -1.10257 0)
(0.00771498 -1.41221 0)
(-0.0073106 -1.41114 0)
(-0.00844345 -1.33801 0)
(-0.0166159 -0.793384 0)
(0.00396352 -0.559472 0)
(-0.00244873 -0.440878 0)
(-0.429358 -0.884057 0)
(-0.304393 -1.17311 0)
(-0.18264 -1.37311 0)
(-0.00525224 -1.25786 0)
(0.0075301 -1.40104 0)
(-0.00751249 -1.39927 0)
(0.000951062 -1.33035 0)
(-0.0116544 -0.806472 0)
(0.00291335 -0.565062 0)
(-0.00462368 -0.44495 0)
(-0.0180004 -0.901845 0)
(-0.0534012 -1.18394 0)
(-0.119873 -1.5158 0)
(0.000727482 -1.46833 0)
(0.00795466 -1.3875 0)
(-0.00705336 -1.38584 0)
(-0.00958889 -1.31905 0)
(-0.0190599 -0.813509 0)
(-0.00159919 -0.571115 0)
(-0.00218058 -0.451997 0)
(0.242938 -0.775255 0)
(0.214067 -0.928079 0)
(0.0766188 -1.36539 0)
(-0.0141061 -1.49466 0)
(0.00710374 -1.37445 0)
(-0.00750823 -1.37337 0)
(0.000595677 -1.31002 0)
(-0.0114635 -0.825195 0)
(-0.000530767 -0.582595 0)
(0.00186595 -0.466453 0)
(0.294742 -0.717889 0)
(0.270427 -0.782989 0)
(0.185205 -0.983446 0)
(0.00562763 -1.32845 0)
(0.00807656 -1.35887 0)
(-0.00683956 -1.35871 0)
(-0.00729253 -1.30162 0)
(-0.0128576 -0.831054 0)
(0.000553302 -0.594227 0)
(0.0066742 -0.481393 0)
(0.218124 -0.634197 0)
(0.179335 -0.684307 0)
(0.0418502 -0.811306 0)
(-0.00369225 -1.28865 0)
(0.00745786 -1.34402 0)
(-0.00749582 -1.34566 0)
(-0.000408627 -1.30855 0)
(-0.00847654 -0.835278 0)
(0.00292897 -0.623044 0)
(0.0109788 -0.499654 0)
(0.117957 -0.521696 0)
(0.0529416 -0.594706 0)
(-0.0187961 -0.755994 0)
(0.00869995 -1.26924 0)
(0.00728419 -1.33025 0)
(-0.00796867 -1.33034 0)
(-0.010353 -1.30123 0)
(-0.0165827 -0.837368 0)
(-0.0029289 -0.640573 0)
(0.00259691 -0.517596 0)
(0.163327 -0.417313 0)
(0.110624 -0.507644 0)
(0.0373362 -0.653774 0)
(0.00115555 -1.27376 0)
(0.00812549 -1.31518 0)
(-0.0070857 -1.31629 0)
(-0.0014792 -1.30223 0)
(-0.00990857 -0.84704 0)
(-0.000156049 -0.647873 0)
(-0.00309595 -0.536905 0)
(0.111033 -0.35215 0)
(0.0488197 -0.476785 0)
(0.0164331 -0.592012 0)
(0.0108983 -1.26156 0)
(0.00823576 -1.30089 0)
(-0.00748559 -1.30141 0)
(-0.00955648 -1.28897 0)
(-0.0186104 -0.853827 0)
(0.000277769 -0.651694 0)
(-0.00473909 -0.553183 0)
(0.163409 -0.267081 0)
(0.0987138 -0.271235 0)
(0.0129238 -0.454945 0)
(0.00473054 -1.25682 0)
(0.00781472 -1.28464 0)
(-0.00759255 -1.28574 0)
(-0.00299606 -1.28312 0)
(-0.0118337 -0.871414 0)
(0.00282308 -0.663346 0)
(0.000697092 -0.57334 0)
(0.0998294 -0.222955 0)
(0.0425428 -0.173437 0)
(0.0123069 -0.420404 0)
(0.0104393 -1.24935 0)
(0.008172 -1.2691 0)
(-0.00792805 -1.27007 0)
(-0.0106784 -1.27162 0)
(-0.0168763 -0.881661 0)
(0.00110463 -0.673449 0)
(0.000882687 -0.595683 0)
(0.0447235 -0.090674 0)
(-0.0109729 -0.08151 0)
(0.00597892 -0.437348 0)
(0.00488675 -1.2448 0)
(0.00760737 -1.25404 0)
(-0.00783539 -1.25417 0)
(-0.00439227 -1.26079 0)
(-0.0136531 -0.906983 0)
(0.00405361 -0.689378 0)
(0.00523839 -0.624919 0)
(0.0137171 0.0479986 0)
(-0.0160654 -0.0437632 0)
(0.0142886 -0.462322 0)
(0.0117753 -1.23411 0)
(0.00833732 -1.23656 0)
(-0.00824071 -1.23761 0)
(-0.01138 -1.24826 0)
(-0.0180166 -0.91969 0)
(0.00330464 -0.703438 0)
(0.0114484 -0.652997 0)
(-0.0450876 0.0323255 0)
(-0.0373113 -0.0851007 0)
(0.0105092 -0.528299 0)
(0.00423838 -1.22391 0)
(0.0075762 -1.22243 0)
(-0.00756255 -1.22209 0)
(-0.00406664 -1.23553 0)
(-0.0156428 -0.946265 0)
(0.00505321 -0.738427 0)
(0.0172533 -0.685262 0)
(-0.0200617 0.0395904 0)
(-0.0202524 -0.109335 0)
(0.0140546 -0.554301 0)
(0.0117722 -1.21126 0)
(0.00832191 -1.20447 0)
(-0.0084629 -1.20547 0)
(-0.0116782 -1.22217 0)
(-0.0182546 -0.958558 0)
(-0.00184604 -0.763878 0)
(0.00801987 -0.712707 0)
(0.00258961 0.0501172 0)
(-0.00375144 -0.117216 0)
(0.0152279 -0.598815 0)
(0.00446596 -1.19843 0)
(0.00746455 -1.19041 0)
(-0.00748221 -1.18975 0)
(-0.00457307 -1.20805 0)
(-0.0169244 -0.973595 0)
(-0.00552761 -0.774357 0)
(-0.00384714 -0.735676 0)
(-0.0111199 0.0318958 0)
(-0.0108201 -0.141522 0)
(0.0172025 -0.620901 0)
(0.0118276 -1.18422 0)
(0.00840089 -1.17276 0)
(-0.00843617 -1.17343 0)
(-0.0116546 -1.19315 0)
(-0.0195379 -0.97911 0)
(-0.0125621 -0.776921 0)
(-0.0146638 -0.749365 0)
(-0.00854554 -0.00264427 0)
(-0.0064134 -0.158902 0)
(0.0172461 -0.650189 0)
(0.00506114 -1.16975 0)
(0.00741274 -1.1577 0)
(-0.00737905 -1.1572 0)
(-0.00498714 -1.17754 0)
(-0.0185091 -0.98136 0)
(-0.0191385 -0.76807 0)
(-0.0246857 -0.750834 0)
(0.00322489 -0.0375095 0)
(0.0043979 -0.176098 0)
(0.0203492 -0.662244 0)
(0.0119069 -1.15451 0)
(0.00851635 -1.14078 0)
(-0.00851142 -1.14096 0)
(-0.0117455 -1.16149 0)
(-0.020777 -0.971379 0)
(-0.0267774 -0.746111 0)
(-0.0377237 -0.733703 0)
(0.0103235 -0.0578361 0)
(0.0062541 -0.186067 0)
(0.0194015 -0.674996 0)
(0.00589682 -1.13934 0)
(0.00732609 -1.12422 0)
(-0.00730866 -1.12407 0)
(-0.00572914 -1.14515 0)
(-0.0193606 -0.963337 0)
(-0.0305655 -0.716858 0)
(-0.0497993 -0.700195 0)
(0.0257912 -0.0527827 0)
(0.0161289 -0.172766 0)
(0.0219051 -0.676265 0)
(0.0123948 -1.1227 0)
(0.00876327 -1.10731 0)
(-0.00874708 -1.10732 0)
(-0.012272 -1.12845 0)
(-0.0211743 -0.942 0)
(-0.0334824 -0.67055 0)
(-0.0570344 -0.649331 0)
(0.0332068 -0.0458199 0)
(0.0154847 -0.164492 0)
(0.0206785 -0.680048 0)
(0.00661998 -1.10696 0)
(0.00728419 -1.08951 0)
(-0.00732327 -1.08946 0)
(-0.00642878 -1.11166 0)
(-0.0198928 -0.931653 0)
(-0.0326175 -0.625135 0)
(-0.0580457 -0.583894 0)
(0.039598 -0.0153219 0)
(0.0205607 -0.134329 0)
(0.0224324 -0.675822 0)
(0.013348 -1.08976 0)
(0.00898816 -1.07191 0)
(-0.00896237 -1.07213 0)
(-0.0131577 -1.09422 0)
(-0.0252894 -0.903749 0)
(-0.044785 -0.58009 0)
(-0.0658402 -0.511845 0)
(0.0388582 0.015138 0)
(0.0174155 -0.114247 0)
(0.0213256 -0.677165 0)
(0.0070184 -1.07322 0)
(0.00729432 -1.0531 0)
(-0.00741937 -1.05305 0)
(-0.00697624 -1.07682 0)
(-0.0237079 -0.883696 0)
(-0.0436494 -0.542858 0)
(-0.056406 -0.451962 0)
(0.0332214 0.0498555 0)
(0.0190001 -0.0902576 0)
(0.0232363 -0.673788 0)
(0.0143543 -1.05557 0)
(0.00912505 -1.03488 0)
(-0.00922084 -1.03518 0)
(-0.014376 -1.05862 0)
(-0.0269857 -0.841337 0)
(-0.043479 -0.497366 0)
(-0.0527147 -0.413051 0)
(0.0236224 0.0679511 0)
(0.0131419 -0.0840106 0)
(0.0217027 -0.679244 0)
(0.00735428 -1.03806 0)
(0.00715898 -1.0148 0)
(-0.00732412 -1.01502 0)
(-0.00747405 -1.0407 0)
(-0.022925 -0.82721 0)
(-0.0282022 -0.46571 0)
(-0.0416095 -0.387968 0)
(0.0208772 0.0813169 0)
(0.0172576 -0.0749975 0)
(0.0239148 -0.678546 0)
(0.0152079 -1.02002 0)
(0.00934521 -0.996732 0)
(-0.00938199 -0.996792 0)
(-0.0153201 -1.02221 0)
(-0.0243585 -0.823157 0)
(-0.0171003 -0.46088 0)
(-0.00830998 -0.38263 0)
(0.0188172 0.0821677 0)
(0.0152693 -0.078656 0)
(0.0223319 -0.68406 0)
(0.00800957 -1.00132 0)
(0.00687363 -0.975447 0)
(-0.00707798 -0.97593 0)
(-0.00804467 -1.00361 0)
(-0.0233304 -0.832063 0)
(-0.00652594 -0.488502 0)
(0.00976721 -0.386437 0)
(0.0210011 0.0837934 0)
(0.0207103 -0.0723965 0)
(0.0246426 -0.68162 0)
(0.0160179 -0.982222 0)
(0.00957085 -0.957267 0)
(-0.00947927 -0.957225 0)
(-0.0161973 -0.98394 0)
(-0.025589 -0.834919 0)
(-0.0210361 -0.5397 0)
(0.00444028 -0.421419 0)
(0.0214858 0.0817784 0)
(0.0190695 -0.0753708 0)
(0.0230228 -0.684434 0)
(0.00875432 -0.962622 0)
(0.00655166 -0.935468 0)
(-0.00675182 -0.935915 0)
(-0.00865765 -0.964077 0)
(-0.0237252 -0.835223 0)
(-0.0291898 -0.554193 0)
(-0.0221827 -0.460651 0)
(0.0241135 0.0820043 0)
(0.0249625 -0.0679051 0)
(0.0256411 -0.678828 0)
(0.0169524 -0.942159 0)
(0.00976032 -0.916748 0)
(-0.00963617 -0.916681 0)
(-0.0170798 -0.942945 0)
(-0.0260367 -0.805553 0)
(-0.0554688 -0.536158 0)
(-0.0782416 -0.443136 0)
(0.0246437 0.0801126 0)
(0.0236599 -0.0691743 0)
(0.0237236 -0.678703 0)
(0.00951686 -0.92138 0)
(0.00630964 -0.894439 0)
(-0.0064363 -0.894712 0)
(-0.00944247 -0.921661 0)
(-0.0228027 -0.737437 0)
(-0.07921 -0.434147 0)
(-0.134451 -0.345983 0)
(0.0271056 0.0803796 0)
(0.029545 -0.060718 0)
(0.0266827 -0.668098 0)
(0.0181049 -0.899886 0)
(0.0100647 -0.875054 0)
(-0.00988767 -0.874736 0)
(-0.0183452 -0.899523 0)
(-0.0255231 -0.682764 0)
(-0.0716738 -0.313677 0)
(-0.13395 -0.250158 0)
(0.0272995 0.0786356 0)
(0.0290427 -0.0614281 0)
(0.0241378 -0.664766 0)
(0.0105591 -0.877977 0)
(0.00618575 -0.851869 0)
(-0.00623043 -0.851693 0)
(-0.0106682 -0.877759 0)
(-0.0229326 -0.660269 0)
(-0.0475584 -0.241141 0)
(-0.0975788 -0.178925 0)
(0.0292806 0.0787735 0)
(0.0335642 -0.0525614 0)
(0.0278103 -0.650787 0)
(0.0195063 -0.855407 0)
(0.0107097 -0.831257 0)
(-0.010453 -0.830476 0)
(-0.0198951 -0.854909 0)
(-0.0263719 -0.646768 0)
(-0.0363046 -0.176374 0)
(-0.0629117 -0.123847 0)
(0.0287443 0.0768725 0)
(0.0323322 -0.0536153 0)
(0.0247056 -0.645734 0)
(0.0119422 -0.832793 0)
(0.00602417 -0.806503 0)
(-0.00596222 -0.805464 0)
(-0.0121669 -0.832187 0)
(-0.0241064 -0.642524 0)
(-0.0245652 -0.148149 0)
(-0.0367708 -0.100494 0)
(0.0305394 0.0768596 0)
(0.0367784 -0.0444547 0)
(0.0292548 -0.630707 0)
(0.021107 -0.808993 0)
(0.0115884 -0.784608 0)
(-0.0113057 -0.783057 0)
(-0.021388 -0.808241 0)
(-0.0295671 -0.632387 0)
(-0.0356241 -0.129898 0)
(-0.0392372 -0.0783674 0)
(0.0294896 0.0746323 0)
(0.0353012 -0.0463392 0)
(0.0256384 -0.625656 0)
(0.013646 -0.784821 0)
(0.00566069 -0.757354 0)
(-0.00558769 -0.755458 0)
(-0.0137026 -0.783644 0)
(-0.0263964 -0.63615 0)
(-0.021257 -0.139276 0)
(-0.0111352 -0.0697782 0)
(0.0312822 0.0739949 0)
(0.0403868 -0.0378545 0)
(0.030616 -0.609553 0)
(0.0222775 -0.758827 0)
(0.011595 -0.734986 0)
(-0.011495 -0.732948 0)
(-0.0221157 -0.757254 0)
(-0.0310379 -0.623107 0)
(-0.0377361 -0.153841 0)
(-0.0184474 -0.071407 0)
(0.0294557 0.0708455 0)
(0.0399007 -0.0415526 0)
(0.0263492 -0.603146 0)
(0.0152755 -0.732056 0)
(0.00416447 -0.706606 0)
(-0.0044263 -0.704824 0)
(-0.0146879 -0.729952 0)
(-0.0268654 -0.616588 0)
(-0.0409905 -0.166549 0)
(-0.0249439 -0.087237 0)
(0.0303871 0.0678897 0)
(0.0452565 -0.0366836 0)
(0.031866 -0.581383 0)
(0.0236612 -0.703038 0)
(0.0108943 -0.68397 0)
(-0.0113439 -0.683517 0)
(-0.0228758 -0.700705 0)
(-0.0323875 -0.592211 0)
(-0.0462698 -0.165576 0)
(-0.0324644 -0.0886796 0)
(0.0256942 0.0613544 0)
(0.0422646 -0.0473631 0)
(0.026409 -0.56992 0)
(0.0170832 -0.673913 0)
(0.00177034 -0.654919 0)
(-0.0029326 -0.655536 0)
(-0.0163644 -0.671623 0)
(-0.0264086 -0.578251 0)
(-0.0432016 -0.169601 0)
(-0.0296775 -0.0869022 0)
(0.0199043 0.0562747 0)
(0.0440719 -0.049026 0)
(0.0355932 -0.542852 0)
(0.0248218 -0.643166 0)
(0.0107366 -0.632529 0)
(-0.0116076 -0.635285 0)
(-0.0252498 -0.641959 0)
(-0.0356568 -0.554561 0)
(-0.0430034 -0.171594 0)
(-0.0300766 -0.0855486 0)
(0.0139456 0.0422254 0)
(0.0187327 -0.0942965 0)
(0.0379581 -0.534466 0)
(0.0186394 -0.612908 0)
(0.00215002 -0.600431 0)
(-0.00203742 -0.602952 0)
(-0.0202924 -0.613017 0)
(-0.0398267 -0.549988 0)
(-0.0159193 -0.206495 0)
(-0.0317409 -0.0886578 0)
(0.0198733 0.0432735 0)
(-0.00489088 -0.127573 0)
(0.0482389 -0.542189 0)
(0.0284591 -0.58044 0)
(0.0146878 -0.574612 0)
(-0.0138583 -0.577393 0)
(-0.0299253 -0.582517 0)
(-0.0485967 -0.556045 0)
(0.0169647 -0.21451 0)
(-0.0326489 -0.0682683 0)
(0.0251573 0.0615321 0)
(0.0406673 -0.126621 0)
(0.0456639 -0.545844 0)
(0.0242677 -0.546096 0)
(0.00357177 -0.538347 0)
(-0.00565165 -0.537766 0)
(-0.0206823 -0.549799 0)
(-0.0476735 -0.553019 0)
(-0.0495787 -0.200178 0)
(-0.0406063 -0.0522081 0)
(0.0309344 0.0495806 0)
(0.050755 -0.196051 0)
(0.0486846 -0.494722 0)
(0.0144955 -0.505021 0)
(-0.00159265 -0.506386 0)
(-0.0271793 -0.509456 0)
(-0.0415917 -0.511093 0)
(-0.0676943 -0.500247 0)
(-0.0659628 -0.257741 0)
(-0.0455472 -0.062375 0)
(0.052932 0.0506122 0)
(0.0556575 -0.212065 0)
(0.0549923 -0.45274 0)
(0.0376928 -0.463525 0)
(0.0181591 -0.464387 0)
(0.001228 -0.471149 0)
(-0.0155563 -0.468869 0)
(-0.0535694 -0.457548 0)
(-0.0589862 -0.287068 0)
(-0.0595767 -0.0623227 0)
(0.0541396 0.0315938 0)
(0.0676913 -0.210034 0)
(0.0674282 -0.407664 0)
(0.0262301 -0.422479 0)
(0.00839346 -0.43315 0)
(-0.0197282 -0.430975 0)
(-0.0394578 -0.42254 0)
(-0.065461 -0.398424 0)
(-0.075174 -0.299353 0)
(-0.0636534 -0.0913007 0)
(0.0134062 -0.000397292 0)
(0.078466 -0.268619 0)
(0.0695256 -0.359368 0)
(0.0487013 -0.383239 0)
(0.0278334 -0.383213 0)
(0.00455164 -0.382599 0)
(-0.0128095 -0.376514 0)
(-0.054912 -0.364673 0)
(-0.0674859 -0.326164 0)
(0.0280921 -0.110245 0)
(0.0784073 -0.0681841 0)
(0.0720691 -0.284164 0)
(0.0654944 -0.312154 0)
(0.0274908 -0.329004 0)
(0.00730705 -0.333138 0)
(-0.0269068 -0.330367 0)
(-0.046952 -0.328671 0)
(-0.0708714 -0.312674 0)
(-0.0787666 -0.291521 0)
(-0.126087 -0.154865 0)
(0.0974903 -0.173016 0)
(0.0757142 -0.221025 0)
(0.0707288 -0.259316 0)
(0.040985 -0.278642 0)
(0.0158749 -0.280149 0)
(-0.0057068 -0.282075 0)
(-0.0260213 -0.282133 0)
(-0.061674 -0.258719 0)
(-0.0662069 -0.226831 0)
(-0.0856258 -0.220202 0)
(0.0604093 -0.118517 0)
(0.0508529 -0.192683 0)
(0.0462492 -0.23215 0)
(0.0210768 -0.241253 0)
(0.0186239 -0.246902 0)
(-0.0116692 -0.246796 0)
(-0.0191829 -0.2406 0)
(-0.0432773 -0.233509 0)
(-0.0522319 -0.195147 0)
(-0.052875 -0.141698 0)
(1.22889 -0.484424 0)
(1.21113 -0.499372 0)
(1.15052 -0.499741 0)
(1.09011 -0.483705 0)
(1.05575 -0.456365 0)
(0.976141 -0.421738 0)
(0.916357 -0.401023 0)
(0.85502 -0.314767 0)
(0.786966 -0.291503 0)
(0.722259 -0.195584 0)
(0.754148 -0.166415 0)
(0.866276 -0.146855 0)
(0.964458 -0.156494 0)
(1.08514 -0.151405 0)
(1.19792 -0.115602 0)
(1.2467 -0.0816221 0)
(1.26402 -0.0855052 0)
(1.29578 -0.108184 0)
(1.33161 -0.13732 0)
(1.34853 -0.138802 0)
(1.35287 -0.134285 0)
(1.34791 -0.130721 0)
(1.32523 -0.123135 0)
(1.26021 -0.0495565 0)
(1.14659 0.0251264 0)
(1.09188 -0.00559893 0)
(1.04022 -0.0562613 0)
(0.957932 -0.107063 0)
(0.892138 -0.081247 0)
(0.778417 0.0282187 0)
(0.574675 0.0591749 0)
(0.488983 0.00966989 0)
(0.483651 0.0273076 0)
(0.371719 0.072486 0)
(0.266872 0.0301447 0)
(0.246434 -0.0393204 0)
(0.232688 -0.0487498 0)
(0.230625 -0.0316675 0)
(0.185297 0.0179631 0)
(0.145919 0.18886 0)
(0.842141 0.286918 0)
(0.540498 0.486107 0)
(0.42544 0.517656 0)
(0.353094 0.542718 0)
(0.288601 0.557191 0)
(0.133974 0.580247 0)
(0.077916 0.534838 0)
(0.0589202 0.474337 0)
(0.0592614 0.52125 0)
(0.0841171 -0.0403989 0)
(0.246052 -0.214481 0)
(0.37876 -0.232153 0)
(0.509885 -0.266618 0)
(0.589296 -0.173056 0)
(0.64067 -0.0989318 0)
(0.659785 -0.0803399 0)
(0.658772 -0.078393 0)