/*--------------------------------*- C++ -*----------------------------------*\
  =========                 |
  \\      /  F ield         | OpenFOAM: The Open Source CFD Toolbox
   \\    /   O peration     | Website:  https://openfoam.org
    \\  /    A nd           | Version:  8
     \\/     M anipulation  |
\*---------------------------------------------------------------------------*/
FoamFile
{
    version     2.0;
    format      ascii;
    class       volScalarField;
    location    "3.6";
    object      alpha.water;
}
// * * * * * * * * * * * * * * * * * * * * * * * * * * * * * * * * * * * * * //

dimensions      [0 0 0 0 0 0 0];

internalField   nonuniform List<scalar> 
9150
(
1
1
1
1
1
1
1
1
1
1
1
1
1
1
1
1
1
1
1
1
1
1
1
1
1
1
1
1
1
1
1
1
1
1
1
1
1
1
1
1
1
1
1
1
1
1
1
1
1
1
1
1
1
1
1
1
1
1
1
1
1
1
1
1
1
1
1
1
1
1
1
1
1
1
1
1
1
1
1
1
1
1
1
1
1
1
1
1
1
1
1
1
1
1
1
1
1
1
1
1
1
1
1
1
1
1
1
1
1
1
1
1
1
1
1
1
1
1
1
1
1
1
1
1
1
1
1
1
1
1
1
1
1
1
1
1
1
1
1
1
1
1
1
1
1
1
1
1
1
1
0.999999
1
1
1
1
1
1
1
1
1
1
1
1
1
0.999996
0.999975
0.999969
0.999992
0.999999
1
0.999999
0.999997
0.999998
1
0.999788
0.999778
0.999952
1
1
0.999995
0.999999
0.999964
0.999764
0.999761
0.999761
0.999823
0.999994
1
1
1
0.999761
0.999761
0.999761
0.999798
0.999982
1
1
1
1
1
0.999761
0.999761
0.99988
1
1
1
1
1
1
1
0.999989
0.999874
0.999936
1
1
1
1
1
1
1
1
1
0.999998
0.999995
0.999998
1
1
1
1
0.99999
1
1
0.999997
0.999995
0.999998
1
1
1
0.999996
0.999985
1
1
1
1
1
0.999782
0.998017
0.998003
0.999621
0.999996
1
1
1
1
1
0.999953
0.998788
0.99936
0.999962
1
0.999998
1
1
0.940486
0.800114
0.952142
0.999997
1
1
1
1
1
0.877411
0.75482
0.754574
0.754394
0.912138
0.999997
0.999999
1
1
0.986643
0.771395
0.754574
0.754477
0.754407
0.754272
0.914638
0.999993
1
1
1
0.965147
0.762931
0.754414
0.754323
0.754288
0.879555
0.999956
0.999997
1
1
1
0.973019
0.882688
0.775213
0.850154
0.977243
0.999917
1
1
0.999999
0.999999
0.999999
0.997406
0.988089
0.994516
0.999668
0.999991
1
1
1
0.999999
0.999999
0.999998
0.999996
0.999992
0.999997
1
1
0.999995
0.999998
0.999999
0.999999
0.999999
0.999997
0.999998
1
1
1
0.999973
0.999998
0.999991
0.999998
0.999994
0.999974
0.999974
0.999986
1
1
1
0.99932
0.999999
0.999999
0.999998
0.999995
0.999996
1
1
1
1
0.99753
0.991988
0.999999
0.999999
0.999999
0.999999
0.998681
0.985489
1
1
0.999098
0.826946
0.703706
0.767972
0.805437
0.750952
0.604856
0.573271
0.623669
1
0.821553
0.5274
0.527087
0.527123
0.527064
0.52689
0.5284
0.529731
0.53018
0.98402
0.653253
0.527087
0.527057
0.527069
0.527097
0.527033
0.526969
0.745467
0.877507
0.999779
0.878277
0.533086
0.527056
0.527061
0.52696
0.526552
0.840903
0.996514
0.999971
0.733174
0.691659
0.660775
0.68313
0.791196
0.81554
0.904736
0.99992
0.999986
0.999986
0.728712
0.960327
0.991447
0.987116
0.99941
0.998584
0.998962
0.999408
0.999988
0.999987
0.951567
0.999979
0.999983
0.99998
0.999563
0.998559
0.999231
0.999988
0.999988
0.999988
0.999979
0.999983
0.999985
0.999984
0.999878
0.999786
0.999884
0.999988
0.999988
0.999988
0.997686
0.998794
0.999985
0.999985
0.999985
0.999985
0.999988
0.999988
0.999988
0.999988
0.987412
0.994422
0.999985
0.999985
0.999982
0.999958
0.999988
0.999988
0.999988
0.999988
0.987201
0.997829
0.99993
0.999212
0.999688
0.999987
0.999987
0.999988
0.999988
0.999988
0.991093
0.998865
0.997884
0.994826
0.999973
0.999987
0.999575
0.999981
0.999988
0.999987
0.997128
0.99894
0.998002
0.96824
0.958644
0.975066
0.999937
0.99998
0.999969
0.981347
0.999063
0.999012
0.998727
0.842026
0.661412
0.994542
0.999898
0.999825
0.972559
0.712059
0.999148
0.999044
0.939739
0.586463
0.591301
0.958047
0.999719
0.98383
0.824472
0.679438
0.999202
0.9929
0.668447
0.395348
0.602466
0.986805
0.996088
0.713051
0.470629
0.866745
0.998928
0.773366
0.366237
0.375884
0.681584
0.978911
0.91336
0.450237
0.457401
0.959668
0.908113
0.374981
0.304354
0.528228
0.931201
0.967726
0.692438
0.0959666
0.524666
0.994095
0.614038
0.061016
0.346394
0.887061
0.925265
0.910348
0.334333
0.0225836
0.445566
0.994321
0.244828
0.0187942
0.348191
0.90341
0.918728
0.541152
0.0104609
0.0118682
0.199722
0.80834
0.0114067
0.00994732
0.1949
0.579104
0.526139
0.073358
0.0085323
0.00890475
0.0354963
0.246762
0.00821572
0.00829712
0.0295244
0.0413647
0.030322
0.00817008
0.00797336
0.00858292
0.00912503
0.0114393
0.00803279
0.00795005
0.00804544
0.00777072
0.00779873
0.00777103
0.00788515
0.0079322
0.00781945
0.00795705
0.00789259
0.00798256
0.00794293
0.00791704
0.00787309
0.0080326
0.00793485
0.00790369
0.00796779
0.00782407
0.00795249
0.00793289
0.00782021
0.00772423
0.00791882
0.00790077
0.00787056
0.00781247
0.00790073
0.00797389
0.209392
0.00797456
0.00792713
0.00778009
0.00771151
0.00787417
0.00785331
0.00782264
0.00785806
0.0503685
0.840497
0.355389
0.121073
0.0888983
0.128253
0.254746
0.394924
0.527953
0.660764
0.750983
0.997848
0.946631
0.860989
0.834572
0.859954
0.937754
0.979032
0.989866
0.971905
0.96062
0.999634
0.998372
0.994558
0.99248
0.998983
0.999578
0.999745
0.998218
0.975377
0.913421
0.89702
0.857733
0.853144
0.959538
0.999708
0.999953
0.99998
0.999757
0.974698
0.906539
0.189466
0.147215
0.131223
0.380741
0.819233
0.999982
0.999998
0.999979
0.996748
0.979715
0.0158754
0.0166474
0.0232428
0.0348054
0.453242
0.958573
1
0.999999
0.999985
0.999989
0.0155399
0.0160049
0.0262058
0.234472
0.660552
0.958833
1
1
1
1
0.0919218
0.248951
0.520874
0.822929
0.974721
0.995354
0.999747
0.999999
1
1
0.773698
0.908725
0.98665
0.999594
0.999849
0.999968
0.999972
0.999999
1
1
0.999199
0.999594
0.999748
0.99983
0.99986
0.999919
0.999977
1
1
1
0.999607
0.999759
0.999787
0.999792
0.999792
0.999911
0.999984
1
1
1
0.999557
0.999582
0.999601
0.999768
0.999911
0.999988
0.999999
1
1
1
0.999687
0.999705
0.999711
0.999917
0.999998
0.999999
0.999999
1
1
1
0.999977
0.999981
0.999988
0.999997
1
1
1
1
1
1
0.999999
0.999999
0.999996
0.999997
1
1
1
1
1
1
0.999999
1
1
1
1
1
1
0.999999
0.999993
0.999976
0.999999
1
1
1
1
0.999999
0.999996
0.999968
0.999847
0.999198
1
1
1
1
0.999999
0.999984
0.999915
0.997795
0.956616
0.910732
1
1
1
1
0.999979
0.999772
0.984992
0.871777
0.795867
0.79774
1
1
1
0.999999
0.999638
0.901387
0.733138
0.736856
0.795226
0.855717
1
1
1
0.990476
0.750304
0.521287
0.603651
0.836691
0.998091
0.999637
1
1
1
0.647039
0.220762
0.423844
0.89535
0.995301
0.998292
0.999633
1
1
0.856864
0.194403
0.0805368
0.375204
0.750408
0.947164
0.992097
0.998647
1
1
0.603563
0.0881687
0.0797185
0.0894515
0.250282
0.832655
0.992022
0.998664
1
1
0.390704
0.0797181
0.0796226
0.0796613
0.135691
0.78973
0.994008
0.998868
1
0.950864
0.268224
0.0796627
0.0796565
0.0796245
0.329401
0.922836
0.996655
0.999421
1
0.878673
0.184712
0.0810094
0.0796912
0.0806463
0.723658
0.993531
0.998756
0.999724
1
0.798441
0.128028
0.0873399
0.0809604
0.31804
0.93681
0.997384
0.999508
0.999887
0.999999
0.569638
0.0977934
0.0933882
0.0902584
0.75555
0.994821
0.999077
0.999828
0.999954
0.988265
0.279757
0.111159
0.0969572
0.49099
0.976437
0.998521
0.999755
0.999952
0.999987
0.653605
0.116945
0.11979
0.156449
0.843928
0.997144
0.999558
0.999929
0.999988
0.999996
0.18765
0.116945
0.116945
0.694808
0.995967
0.9994
0.999916
0.999987
0.999998
0.999998
0.112838
0.114892
0.262736
0.926721
0.998838
0.999848
0.999979
0.999997
1
0.999998
0.112838
0.112838
0.814169
0.998343
0.999793
0.999977
0.999997
1
1
1
0.112838
0.363463
0.967271
0.999604
0.999973
0.999996
1
1
1
1
0.113861
0.824053
0.999247
0.999931
0.999994
0.999999
1
1
1
1
0.221057
0.951453
0.999786
0.99999
0.999999
1
1
1
1
1.00001
0.574284
0.998596
0.999974
0.999998
1
1
1
1
1
1
0.645639
0.999708
0.999991
0.999999
1
1
1
1
1
1
0.659597
0.999822
0.999994
1
1
1
1
1
1
1
0.671585
0.999885
0.999997
1
1
1
1
1
1
1.00003
0.681696
0.999917
0.999998
1
1
1
1
1
1
0.927174
0.691524
0.999916
0.999999
1
1
1
1
1
1
0.86013
0.703086
0.999899
1
1
1
1
1
1
1
0.823817
0.720393
0.999801
0.999999
1
1
1
1
1
1
0.801159
0.736109
0.999666
0.999997
1
1
1
1
1
0.999984
0.793165
0.747967
0.999619
0.999996
1
1
1
1
1
0.999912
0.800591
0.758048
0.999732
0.999998
1
1
1
1
1
1.00004
0.825997
0.778217
0.999986
1
1
1
1
1
1
1.00003
0.850621
0.846638
0.999996
1
1
1
1
1
1
1
0.880356
0.891898
1
1
1
1
1
1
1
1
0.915022
0.948038
1
1
1
1
1
1
1
1
0.955192
0.999998
0.999998
0.999999
1
1
1
1
1
1
1
1
0.999719
0.999178
0.999449
0.999986
1
1
1
1
1
0.999999
0.999999
1
1
1
1
0.999999
0.999997
0.999999
1
1
1
1
0.999999
0.999998
0.999999
1
1
1
0.999886
1
1
1
1
1
1
1
1
1
0.999626
0.999176
0.999176
0.999178
0.999514
0.999937
0.99999
1
1
1
1
1
1
0.999999
0.999999
1
1
1
0.999912
0.999999
0.987884
0.984324
0.995653
1
1
1
1
1
1
0.999968
0.999807
0.999995
0.999997
1
1
1
1
1
1
0.999428
0.999095
0.999132
0.999916
1
0.999925
0.999865
0.999913
1
0.999565
0.998415
0.99648
0.999456
1
0.999999
0.999999
0.999999
0.999999
1
0.991422
0.97748
0.97747
0.977466
0.977471
0.977498
0.995068
0.997444
0.999896
1
1
1
1
1
1
1
1
0.997985
1
1
1
0.999842
0.999827
0.99996
1
1
1
1
1
1
0.997258
0.958456
0.951074
0.952385
0.989851
0.999999
0.99997
0.999999
0.999993
0.999999
1
0.983515
0.977466
0.977468
0.985024
0.989642
0.979323
0.978639
0.979358
0.989151
0.99118
0.99025
0.99379
1
0.994223
0.956468
0.904781
0.899524
0.913311
0.9563
0.997856
0.999997
1
1
1
1
0.999925
0.999887
0.999983
1
0.976052
0.951074
0.951074
0.95107
0.951068
0.967032
0.999343
0.999416
0.999784
0.999957
0.999548
0.998786
0.997343
0.997058
0.999668
0.999861
0.992288
0.978633
0.978633
0.978633
0.978642
0.978656
0.978666
1
0.959356
0.899554
0.899525
0.899518
0.899511
0.899512
0.933872
0.997605
1
1
1
0.999921
0.999737
0.999737
0.999914
0.999997
0.999997
0.995874
0.952536
0.951068
0.951068
0.951068
0.963651
0.997925
0.999784
0.998763
0.998584
0.999237
0.999898
0.999899
0.999899
0.999899
0.999899
0.99694
0.993344
0.994435
0.994373
0.991015
0.986801
0.999528
0.989302
0.971469
0.909447
0.89951
0.899511
0.899511
0.926422
0.997909
0.999999
0.999999
1
0.999776
0.999737
0.999739
0.999972
0.999997
0.999997
0.999997
0.998138
0.992116
0.966625
0.961429
0.981129
0.999761
0.999783
0.99905
0.99905
0.996937
0.988307
0.98213
0.981915
0.99093
0.994465
0.99888
0.999308
0.999317
0.999322
0.999325
0.999325
0.999852
0.999992
0.999999
0.991647
0.956424
0.900925
0.924911
0.983702
0.999799
0.999907
0.999213
0.999619
0.999974
0.999851
0.999961
0.999996
0.999996
0.999994
0.999979
0.999989
0.99999
0.999
0.999013
0.99952
0.99978
0.999782
0.99978
0.964766
0.943941
0.943931
0.943973
0.962401
0.979251
0.934622
0.934618
0.934695
0.944999
0.996601
0.999325
0.999325
0.999984
0.999995
1
1
0.999503
0.992928
0.996117
0.999951
0.999953
0.999953
0.999953
0.999951
0.999997
1
0.999972
0.999992
0.999947
0.999799
0.999962
0.99999
0.99999
0.998671
0.973637
0.91799
0.841229
0.877392
0.935302
0.97411
0.999825
0.999844
0.999844
0.999844
0.999391
0.977411
0.961641
0.962707
0.950799
0.910731
0.844391
0.855425
0.999998
0.999999
1
1
1
0.999997
0.999965
0.964059
0.835619
0.871387
0.970245
1
1
1
0.99983
0.999248
0.999148
0.999499
0.999984
0.99999
0.99799
0.912265
0.834484
0.828452
0.828445
0.828446
0.828465
0.929222
0.999844
0.999844
0.999844
0.999844
0.999844
0.999844
0.999844
0.999843
0.907689
0.834757
0.834757
0.834758
1
1
1
1
0.987912
0.904835
0.818938
0.788409
0.788356
0.788357
0.816274
0.973006
0.999999
1
1
0.995052
0.991892
0.997677
0.99999
0.99999
0.999772
0.957509
0.838079
0.828445
0.828445
0.828443
0.828443
0.870714
0.995217
0.999844
0.999834
0.999762
0.999844
0.999844
0.999844
0.999843
0.950633
0.834757
0.834757
0.834757
0.999975
0.99996
1
1
1
0.857994
0.788365
0.788356
0.788356
0.788356
0.788357
0.967539
0.999997
1
1
1
0.970057
0.980323
0.999773
0.99999
0.999989
0.999423
0.970336
0.899867
0.828443
0.828443
0.828443
0.876443
0.99609
0.999821
0.99963
0.999422
0.999447
0.999828
0.999842
0.999842
0.999841
0.984733
0.925905
0.904329
1
0.999769
0.99808
0.999418
0.999987
0.973026
0.907049
0.805056
0.788356
0.796153
0.930614
0.997617
0.99999
1
1
1
0.953624
0.915089
0.973598
0.99999
0.999989
0.999988
0.999987
0.997739
0.977708
0.933957
0.924765
0.966715
0.999753
0.999829
0.999829
0.999829
0.999419
0.999208
0.999431
0.99984
0.999793
0.999078
0.998986
0.998772
0.999959
0.998197
0.997904
0.998546
0.999832
0.999991
0.999447
0.97878
0.949979
0.972422
0.998227
1
1
1
1
0.985558
0.915514
0.915081
0.915079
0.932318
0.994629
0.999987
0.999985
0.999983
0.999972
0.999925
0.999713
0.998461
0.997935
0.997937
0.999298
0.999828
0.999825
0.999824
0.999081
0.998581
0.999776
0.999776
0.996989
0.995155
0.999232
0.997904
0.997904
0.997904
0.999687
0.999993
1
0.999999
0.999974
0.999988
0.999807
0.99917
0.999504
1
1
0.957772
0.915081
0.915079
0.915079
0.915079
0.915104
0.915243
0.941552
0.995714
0.999915
0.999923
0.999923
0.999925
0.999895
0.999952
0.998737
0.99834
0.99834
0.99834
0.999713
0.999814
0.994082
0.987254
0.995271
0.996094
0.999995
0.998129
0.997904
0.997905
0.999052
1
1
1
0.999975
0.999996
0.999995
0.992298
0.977767
0.977749
0.992178
0.984616
0.972225
0.952194
0.96228
0.929766
0.915228
0.915327
0.915329
0.915351
0.915441
0.950418
0.99962
0.999952
0.999952
0.999952
0.999934
0.999807
0.999055
0.999226
0.999818
0.999817
0.992912
0.987145
0.987718
0.996097
1
0.999922
0.998106
0.998066
0.999647
0.999999
1
1
0.999999
1
0.9922
0.97774
0.977739
0.977739
0.977739
0.977744
0.993359
0.998495
0.998525
0.99734
0.994802
0.995985
0.999911
0.98775
0.963302
0.980897
0.999796
0.999925
0.999896
0.99985
0.99989
0.999966
0.999971
0.999931
0.99982
0.999819
0.997969
0.987067
0.987067
0.994279
0.999999
0.999999
0.99976
0.999796
0.999972
1
1
1
1
1
0.998312
0.996008
0.996374
0.980308
0.977743
0.977749
0.977747
0.987233
0.998554
0.999633
0.999775
0.999958
0.999958
0.999958
0.999958
0.999958
0.999958
0.999742
0.999307
0.999307
0.999307
0.999668
0.999979
0.999695
0.999339
0.999639
0.999677
0.991311
0.987067
0.994089
0.999999
0.999999
1
1
1
1
1
1
0.999846
0.988723
0.9912
0.997684
0.997684
0.997516
0.996988
0.996971
0.992466
0.950555
0.966054
0.999155
0.999955
0.999955
0.999922
0.99988
0.999947
0.999958
0.999958
0.99995
0.999936
0.999923
0.999914
0.99996
0.999979
0.999744
0.999338
0.999339
0.999677
0.998681
0.993156
0.996901
0.999999
0.999999
1
1
1
1
0.999989
0.999827
0.976134
0.971201
0.971198
0.995014
0.997201
0.967379
0.972657
0.996967
0.977981
0.950555
0.975702
0.999949
0.99995
0.999955
0.999495
0.999619
0.999939
0.99916
0.99873
0.999384
0.999827
0.999979
0.999979
0.999979
0.999979
0.999979
0.999648
0.999573
0.999876
0.999935
0.999958
0.999838
1
1
0.999858
0.990774
0.971191
0.975366
0.999989
0.998924
0.974816
0.971196
0.985109
0.996573
0.9904
0.964383
0.978529
0.996817
0.978245
0.950564
0.996875
0.999948
0.999807
0.999615
0.999192
0.994671
0.98489
0.984452
0.994722
0.99914
0.999795
0.999979
0.999979
0.999979
0.999979
0.999979
0.999976
0.999974
0.999969
0.999967
0.999966
0.999962
0.962927
0.934599
0.846274
0.846245
0.889074
0.999988
0.999988
0.999988
0.999981
0.985611
0.996052
0.996571
0.996573
0.979042
0.874695
0.770999
0.959575
0.986528
0.981105
0.943612
0.924101
0.919655
0.860919
0.781905
0.84858
0.994376
0.999927
0.999927
0.999878
0.999961
0.999979
0.999979
0.999979
0.999979
0.999978
0.953544
0.815991
0.766116
0.815984
0.932451
0.621393
0.621418
0.876297
0.952004
0.967927
0.983588
0.890131
0.751147
0.75345
0.952506
0.983408
0.873754
0.732596
0.722928
0.723015
0.775185
0.959567
0.953113
0.766738
0.727006
0.730726
0.699195
0.699027
0.699099
0.881002
0.999925
0.999927
0.999889
0.995085
0.961891
0.936815
0.9095
0.933128
0.999978
0.992145
0.753296
0.667707
0.667707
0.667707
0.699053
0.799836
0.925031
0.976344
0.977101
0.927171
0.722623
0.722666
0.723077
0.723421
0.72362
0.728789
0.722684
0.722889
0.722787
0.722928
0.723022
0.728396
0.914314
0.892051
0.699509
0.699376
0.699243
0.69924
0.760615
0.985938
0.999925
0.999922
0.998816
0.924806
0.435664
0.200418
0.203664
0.286398
0.656913
0.90129
0.865249
0.773045
0.727479
0.859497
0.863255
0.975587
0.997816
0.998832
0.971029
0.749808
0.722659
0.722686
0.722696
0.756794
0.864223
0.757331
0.722735
0.722785
0.722773
0.750568
0.723582
0.781971
0.931351
0.931797
0.840553
0.699454
0.699525
0.823899
0.999745
0.999822
0.999911
0.999693
0.997894
0.75912
0.25241
0.199702
0.199545
0.199702
0.199835
0.271009
0.468252
0.584163
0.62425
0.745436
0.863255
0.999969
0.99987
0.999805
0.969881
0.812918
0.775467
0.918433
0.946721
0.977598
0.995288
0.918765
0.793225
0.771247
0.864865
0.910952
0.955816
0.955647
0.905262
0.707994
0.707287
0.727688
0.975339
0.999506
0.999599
0.99763
0.984359
0.973493
0.982705
0.980789
0.934088
0.395549
0.19953
0.199678
0.199721
0.199843
0.200852
0.22626
0.325228
0.537177
0.863255
0.999978
0.999962
0.997595
0.98796
0.985426
0.98981
0.999952
0.999948
0.999953
0.998934
0.992467
0.985562
0.985703
0.993956
0.997094
0.994214
0.92242
0.713755
0.707293
0.803712
0.999559
0.999566
0.999569
0.999213
0.977955
0.842229
0.810195
0.890624
0.97794
0.974621
0.96731
0.871082
0.726917
0.612919
0.615929
0.686096
0.694694
0.707036
0.805775
0.861779
0.999986
0.99972
0.999337
0.999964
0.999971
0.999975
0.999984
0.999983
0.999982
0.999898
0.999702
0.999457
0.999082
0.99885
0.998652
0.997164
0.941672
0.71168
0.713756
0.797125
0.999623
0.999635
0.999701
0.998674
0.896374
0.810195
0.810195
0.810195
0.838021
0.974047
0.836317
0.651266
0.640455
0.637232
0.621133
0.628945
0.662286
0.764437
0.805578
0.757744
0.99997
0.999926
0.999987
0.999987
0.999986
0.999986
0.999985
0.999984
0.999983
0.999982
0.999976
0.999914
0.999752
0.998869
0.854754
0.700519
0.702341
0.705107
0.706642
0.856501
0.999635
0.999649
0.999793
0.999953
0.999954
0.966317
0.842854
0.814093
0.902522
0.912168
0.884412
0.929494
0.925675
0.852702
0.772674
0.700175
0.661525
0.665382
0.749618
0.745041
0.999982
0.999988
0.999987
0.999987
0.999987
0.999986
0.999986
0.999985
0.999985
0.999976
0.999948
0.999746
0.922202
0.703761
0.700519
0.700519
0.700519
0.702341
0.89273
0.999598
0.999623
0.999591
0.999798
0.999942
0.999949
0.999942
0.999942
0.999942
0.999942
0.999941
0.999941
0.999941
0.99994
0.999936
0.99993
0.999919
0.884081
0.75069
0.663906
0.663906
0.999988
0.999988
0.999988
0.999987
0.999987
0.999986
0.999986
0.999984
0.975516
0.999882
0.999621
0.990021
0.791358
0.706515
0.702664
0.723253
0.970187
0.986863
0.988044
0.998063
0.998335
0.995312
0.999467
0.999942
0.999942
0.999942
0.999942
0.999942
0.999941
0.999941
0.999941
0.99994
0.999937
0.999934
0.999931
0.999929
0.999921
0.999875
0.87603
0.680222
0.999988
0.999988
0.999988
0.999989
0.999999
0.973058
0.637351
0.545205
0.916363
0.99956
0.999306
0.997981
0.910611
0.805998
0.89569
0.98977
0.998019
0.998026
0.998002
0.996031
0.995223
0.995216
0.995295
0.999428
0.999942
0.999905
0.999939
0.99994
0.99994
0.99994
0.999939
0.999938
0.999934
0.999931
0.99993
0.99992
0.999904
0.999893
0.999865
0.992594
0.999988
0.999987
0.999967
0.996972
0.746673
0.510791
0.486885
0.483129
0.545487
0.90251
0.998417
0.997629
0.996308
0.993366
0.997815
0.998022
0.998026
0.998026
0.998026
0.998001
0.996232
0.995248
0.996946
0.999886
0.999935
0.999028
0.997631
0.999879
0.999892
0.99989
0.999885
0.999881
0.999889
0.9999
0.999911
0.999905
0.999894
0.999434
0.998466
0.998449
0.99998
0.955288
0.779691
0.647608
0.489324
0.487561
0.482915
0.484417
0.483663
0.486332
0.595492
0.756869
0.897855
0.982956
0.997725
0.997869
0.998019
0.989044
0.96866
0.975273
0.998981
0.999732
0.999751
0.999773
0.999864
0.999691
0.990236
0.975218
0.990316
0.999123
0.999087
0.999076
0.999255
0.999391
0.99956
0.999717
0.999826
0.999368
0.998689
0.99841
0.759864
0.67611
0.669789
0.652633
0.75497
0.811218
0.503063
0.483229
0.482845
0.483238
0.484495
0.489739
0.638337
0.988293
0.996355
0.997672
0.966226
0.938442
0.938442
0.938442
0.95651
0.999711
0.999732
0.999737
0.999748
0.999604
0.999293
0.952474
0.794289
0.750618
0.783271
0.79915
0.878588
0.932742
0.982691
0.997863
0.999219
0.999536
0.99954
0.99937
0.678436
0.677226
0.67611
0.755068
0.992794
0.989923
0.788863
0.48251
0.48251
0.481783
0.479914
0.509733
0.898932
0.994103
0.995584
0.994469
0.987053
0.98493
0.977214
0.9445
0.953274
0.990372
0.999695
0.998293
0.998548
0.999333
0.999292
0.998643
0.714733
0.219712
0.133036
0.136993
0.208153
0.29227
0.483558
0.775458
0.983602
0.999459
0.999544
0.999544
0.679258
0.67636
0.788844
0.974967
0.994396
0.994183
0.976505
0.837369
0.762895
0.815646
0.875642
0.836185
0.615035
0.556597
0.796725
0.993843
0.991264
0.987559
0.968798
0.993986
0.998601
0.99865
0.996507
0.996488
0.997177
0.99919
0.999383
0.999502
0.895752
0.252466
0.0620115
0.0601658
0.0599838
0.0598952
0.0593284
0.150791
0.561511
0.991086
0.999434
0.999544
0.947637
0.95151
0.973425
0.994443
0.994584
0.994538
0.994508
0.993967
0.993533
0.993302
0.993129
0.992145
0.807934
0.327546
0.230676
0.230264
0.259468
0.199464
0.335534
0.642488
0.871864
0.999561
0.999578
0.999204
0.999015
0.998542
0.999527
0.999733
0.999366
0.802214
0.282266
0.0761084
0.0599311
0.0593357
0.0592787
0.0592468
0.099783
0.77827
0.993221
0.99767
0.9942
0.994272
0.994496
0.994595
0.994584
0.994584
0.994538
0.994348
0.993874
0.993379
0.993166
0.993048
0.991641
0.866228
0.28829
0.0260906
0.02357
0.0235955
0.0236245
0.0237694
0.300853
0.991193
0.999602
0.999608
0.999615
0.998775
0.999735
0.99978
0.999812
0.9999
0.906767
0.5489
0.157313
0.0598135
0.0592468
0.0591966
0.0591828
0.434845
0.970981
0.996032
0.994361
0.994433
0.994565
0.994575
0.994584
0.994538
0.990095
0.897061
0.852795
0.879076
0.980007
0.992879
0.992867
0.991167
0.644468
0.0459742
0.0235871
0.0235791
0.0235748
0.023555
0.154903
0.916251
0.999608
0.999615
0.999615
0.999649
0.999706
0.999804
0.9999
0.999916
0.999962
0.989025
0.735627
0.223864
0.0594939
0.0592258
0.0591966
0.23837
0.937169
0.99559
0.994346
0.994346
0.994444
0.994575
0.99454
0.791927
0.403579
0.195697
0.145431
0.14308
0.347996
0.740265
0.991887
0.981332
0.781722
0.105799
0.0235871
0.0235866
0.0235863
0.023573
0.344554
0.95125
0.999507
0.999465
0.999615
0.999615
0.999342
0.999246
0.99987
0.999962
0.999966
0.999975
0.999949
0.777975
0.154878
0.0593141
0.0592127
0.157848
0.87063
0.994941
0.994322
0.994386
0.994397
0.933162
0.57659
0.161859
0.0439325
0.0376511
0.0325202
0.027991
0.0285807
0.25481
0.774356
0.972634
0.633665
0.105822
0.0235871
0.0235871
0.0235942
0.0328206
0.709863
0.999307
0.999374
0.999431
0.999603
0.999405
0.964104
0.935599
0.997697
0.99987
0.999973
0.999975
0.999975
0.99908
0.649462
0.0655303
0.0593126
0.109309
0.751058
0.993581
0.57017
0.703966
0.646343
0.371876
0.105626
0.0514582
0.0503225
0.0697038
0.0457346
0.0278059
0.0277924
0.206018
0.699741
0.747244
0.375728
0.0293892
0.0235878
0.0236197
0.0540015
0.529134
0.981598
0.999095
0.999272
0.999385
0.999463
0.965752
0.475242
0.338523
0.817847
0.989752
0.999975
0.999976
0.999976
0.999975
0.968643
0.342128
0.0597423
0.0821051
0.650371
0.992354
0.0362915
0.0587832
0.0456718
0.0301882
0.060355
0.0887874
0.0906495
0.0909944
0.0906081
0.0277945
0.0277793
0.0290045
0.380646
0.327042
0.0542148
0.0296767
0.0715107
0.27461
0.705926
0.996932
0.997153
0.998069
0.999069
0.998992
0.963125
0.534775
0.0971403
0.0865313
0.372813
0.92697
0.99967
0.999972
0.999976
0.999976
0.999975
0.824857
0.0762193
0.0871633
0.641003
0.991149
0.00849088
0.008774
0.00928268
0.020939
0.0604588
0.0600802
0.0614221
0.0591328
0.0328109
0.0277843
0.0277837
0.0364036
0.0999084
0.160082
0.235386
0.375857
0.722532
0.996013
0.996161
0.996442
0.996904
0.989964
0.977126
0.822145
0.435232
0.0996345
0.0865777
0.0865777
0.134331
0.814041
0.997896
0.999937
0.999976
0.999976
0.999976
0.980451
0.213724
0.102175
0.647503
0.990918
0.00805107
0.00828255
0.00872469
0.00936574
0.0139711
0.0171865
0.0183894
0.0198435
0.0206754
0.0518678
0.177113
0.430854
0.679073
0.863331
0.995707
0.995735
0.995722
0.995806
0.996012
0.996161
0.994247
0.878558
0.546294
0.198781
0.0867418
0.08672
0.0866448
0.0865757
0.0913434
0.757478
0.998863
0.999939
0.999976
0.999976
0.999976
0.999976
0.581419
0.107009
0.506428
0.983771
0.0081003
0.00818099
0.00831106
0.00874238
0.0883682
0.165657
0.272378
0.43911
0.591864
0.784742
0.924743
0.987647
0.995589
0.995639
0.995654
0.995707
0.99574
0.995722
0.978884
0.85467
0.607686
0.294229
0.0889936
0.0886313
0.0876579
0.0867423
0.0867465
0.0869441
0.244825
0.837953
0.999572
0.999891
0.999967
0.999975
0.999977
0.999976
0.904868
0.153722
0.407483
0.956686
0.127103
0.239003
0.402915
0.606874
0.763035
0.858931
0.928828
0.970531
0.985117
0.986754
0.98676
0.985827
0.985997
0.989331
0.995089
0.995654
0.987813
0.865254
0.557289
0.309427
0.115446
0.104923
0.0953935
0.0889935
0.0903546
0.0971939
0.120524
0.243664
0.75776
0.99541
0.998388
0.998564
0.99931
0.999933
0.999974
0.999976
0.999254
0.282345
0.38094
0.93139
0.815419
0.897455
0.955234
0.980576
0.984052
0.994244
0.990561
0.971092
0.970806
0.972047
0.991054
0.991063
0.990852
0.985229
0.953396
0.862613
0.704696
0.465683
0.302852
0.302752
0.310997
0.352207
0.447558
0.535113
0.594501
0.65876
0.752495
0.900959
0.999923
0.999731
0.997565
0.985846
0.989072
0.998378
0.999923
0.999976
0.999975
0.431641
0.384711
0.911064
0.953492
0.921982
0.998692
0.999515
0.999981
0.998949
0.990537
0.971238
0.978388
0.996079
0.97605
0.939716
0.89703
0.814255
0.746705
0.573615
0.53145
0.529055
0.615798
0.715205
0.89318
0.981397
0.999851
0.999879
0.999905
0.999923
0.999925
0.999924
0.999925
0.999923
0.988215
0.984214
0.98421
0.992104
0.999851
0.999975
0.999975
0.548243
0.387847
0.902716
0.906527
0.907078
0.914839
0.986542
0.999987
0.999929
0.999352
0.999636
0.999964
0.999964
0.956973
0.874699
0.745133
0.745133
0.745133
0.798352
0.865022
0.947671
0.999417
0.999433
0.999433
0.999434
0.999468
0.99955
0.999409
0.999458
0.999911
0.999925
0.999924
0.995125
0.984198
0.984223
0.984214
0.988041
0.999682
0.999975
0.999975
0.651761
0.392557
0.896231
0.906548
0.906548
0.948464
0.998879
0.999987
0.999987
0.999987
0.99998
0.999949
0.999964
0.988798
0.971381
0.942048
0.936347
0.970113
0.999588
0.999496
0.99943
0.999404
0.99942
0.999435
0.999433
0.999008
0.995995
0.994477
0.997233
0.999921
0.999924
0.999729
0.985158
0.984244
0.984231
0.984223
0.988777
0.999732
0.999975
0.999975
0.744261
0.399662
0.886528
0.968477
0.976749
0.997441
0.999997
0.999969
0.999912
0.998441
0.995621
0.992262
0.991928
0.997156
0.999596
0.999617
0.999643
0.999617
0.999606
0.999376
0.999395
0.999375
0.999187
0.999175
0.998243
0.994887
0.993097
0.994498
0.997668
0.999917
0.999921
0.997936
0.984897
0.984168
0.984247
0.984151
0.995559
0.999969
0.999974
0.999975
0.818055
0.402976
0.87024
0.999996
0.999996
0.999997
0.999997
0.999232
0.996162
0.987424
0.986845
0.986848
0.986848
0.986851
0.995931
0.999351
0.999662
0.999643
0.999505
0.998871
0.998784
0.999142
0.998866
0.997711
0.996019
0.991854
0.993974
0.998549
0.999864
0.999908
0.999917
0.999919
0.996024
0.984321
0.984183
0.987975
0.999227
0.999945
0.999973
0.999974
0.884489
0.412251
0.85416
1
0.999996
0.999996
0.999997
0.997765
0.986987
0.986863
0.986852
0.986848
0.986851
0.988207
0.996798
0.99972
0.999894
0.999621
0.999185
0.998807
0.998569
0.965331
0.908478
0.883567
0.893041
0.935767
0.984419
0.997048
0.999409
0.999862
0.999919
0.999932
0.999932
0.995188
0.986818
0.998449
0.99976
0.999324
0.999738
0.999973
0.943366
0.457956
0.842574
1
0.999959
0.999414
0.999824
0.999696
0.988141
0.986867
0.986858
0.988892
0.99684
0.999956
0.999955
0.999943
0.999939
0.999931
0.99937
0.918469
0.680045
0.368522
0.190419
0.171836
0.194303
0.303637
0.541453
0.835347
0.98837
0.99921
0.999771
0.999919
0.999942
0.999949
0.999975
0.999975
0.999828
0.99889
0.999062
0.999967
0.984332
0.526769
0.836209
1
0.998316
0.98839
0.989084
0.991803
0.987129
0.988073
0.999282
0.999952
0.999956
0.999955
0.999955
0.999955
0.999955
0.978154
0.765059
0.207611
0.0153273
0.0147964
0.0146989
0.0146989
0.0146665
0.0145358
0.0147416
0.131873
0.589694
0.957344
0.995862
0.999481
0.999947
0.999973
0.999975
0.999975
0.999737
0.998863
0.998866
0.999866
0.99988
0.580427
0.832292
1
0.996818
0.988223
0.987057
0.987057
0.987057
0.994382
0.999938
0.999956
0.999955
0.999955
0.999955
0.999955
0.999955
0.591707
0.034663
0.0151619
0.0146189
0.0147251
0.0147556
0.0146866
0.0147212
0.0147702
0.0147225
0.0146779
0.0364426
0.541684
0.976004
0.997884
0.999728
0.999961
0.999975
0.999976
0.999975
0.999122
0.998863
0.999672
0.999882
0.631499
0.827129
1
1
0.999999
0.999972
0.989834
0.994168
0.999949
0.999956
0.999954
0.999955
0.999955
0.999955
0.999955
0.966874
0.389855
0.0314229
0.0178091
0.015438
0.0147587
0.0148233
0.0145682
0.0147363
0.0146403
0.0146824
0.014701
0.0147213
0.186202
0.857027
0.996488
0.999383
0.999907
0.999971
0.999975
0.999976
0.999749
0.998866
0.999657
0.999867
0.687094
0.808837
1
0.999998
0.999949
0.999951
0.999956
0.999957
0.999958
0.999957
0.999954
0.999954
0.999956
0.999953
0.99995
0.999884
0.872832
0.469462
0.139453
0.0441739
0.019397
0.0159174
0.0153779
0.0145921
0.0146259
0.0146462
0.0146794
0.0148827
0.138473
0.798501
0.994891
0.999141
0.999855
0.999964
0.999976
0.999977
0.999978
0.998971
0.999706
0.999853
0.735185
0.785119
1
1
0.999696
0.999334
0.999841
0.999956
0.999957
0.999954
0.999947
0.999941
0.999936
0.999938
0.999884
0.996587
0.985131
0.973121
0.898331
0.701048
0.459522
0.252824
0.124907
0.0640411
0.0375421
0.0337921
0.0301384
0.0799371
0.573224
0.993014
0.999373
0.999857
0.999961
0.999973
0.999977
0.999978
0.999978
0.999192
0.999718
0.999864
0.772132
0.773959
1
0.999999
0.999869
0.999115
0.999532
0.999931
0.999918
0.999866
0.999754
0.99927
0.999262
0.989358
0.979943
0.904665
0.876732
0.91777
0.979589
0.989548
0.992368
0.98408
0.913009
0.751361
0.558223
0.565085
0.744688
0.977342
0.999996
0.999995
0.99999
0.999988
0.999983
0.999975
0.999977
0.999978
0.999978
0.999318
0.999754
0.999874
0.806502
0.774985
0.999997
0.99999
0.999803
0.999244
0.999336
0.999117
0.995014
0.978348
0.950322
0.925356
0.928878
0.872443
0.876073
0.876732
0.876526
0.876525
0.876526
0.931488
0.997445
0.999194
0.999744
0.999913
0.999965
0.999981
0.999986
0.999988
0.999988
0.999989
0.999988
0.999988
0.999981
0.99997
0.999978
0.999978
0.999978
0.999404
0.999778
0.999884
0.839437
0.77616
0.999923
0.999761
0.998289
0.983951
0.95132
0.924462
0.88227
0.862752
0.867662
0.867721
0.868271
0.869716
0.898634
0.901108
0.876732
0.876526
0.876525
0.932856
0.998723
0.999853
0.99993
0.999967
0.999982
0.999987
0.999987
0.999987
0.999988
0.999988
0.999988
0.999988
0.999987
0.999978