/*--------------------------------*- C++ -*----------------------------------*\
  =========                 |
  \\      /  F ield         | OpenFOAM: The Open Source CFD Toolbox
   \\    /   O peration     | Website:  https://openfoam.org
    \\  /    A nd           | Version:  8
     \\/     M anipulation  |
\*---------------------------------------------------------------------------*/
FoamFile
{
    version     2.0;
    format      ascii;
    class       volScalarField;
    location    "3.6";
    object      epsilon;
}
// * * * * * * * * * * * * * * * * * * * * * * * * * * * * * * * * * * * * * //

dimensions      [0 2 -3 0 0 0 0];

internalField   nonuniform List<scalar> 
9150
(
0.0313148
0.0124242
0.00309066
0.000934985
0.000441984
0.000441729
0.000934367
0.00308907
0.0124214
0.0313154
0.0302273
0.00872835
0.00172574
0.000600026
0.000332435
0.000332282
0.000599691
0.00172478
0.00872618
0.0302274
0.0284282
0.00692584
0.00111271
0.000491418
0.000297082
0.000296966
0.000491207
0.00111217
0.00692412
0.0284281
0.0264951
0.00598493
0.000833654
0.000458781
0.000286161
0.000286059
0.000458616
0.000833368
0.00598357
0.0264948
0.024492
0.00557914
0.000695091
0.000451563
0.00028434
0.000284245
0.000451413
0.000694941
0.00557799
0.0244917
0.123693
0.052459
0.0222589
0.0135254
0.00964353
0.00965561
0.0135648
0.0223533
0.0526995
0.12377
0.0761756
0.0229999
0.0129903
0.00859576
0.00598363
0.00598752
0.00861008
0.0130232
0.0230285
0.0761727
0.055405
0.0178745
0.00756408
0.00448542
0.0029319
0.00293251
0.00448904
0.00757195
0.0178775
0.0554007
0.0425303
0.0152132
0.00476589
0.00226622
0.00132846
0.00132826
0.00226634
0.00476639
0.0152097
0.0425283
0.0356179
0.0137024
0.00350298
0.00128804
0.000671074
0.000670791
0.00128747
0.00350167
0.0136985
0.0356172
1.12912
0.163841
0.0480413
0.0209016
0.0123537
0.0121478
0.020277
0.0484047
0.177037
1.67789
0.276521
0.120998
0.045718
0.0205629
0.0123846
0.0122548
0.0202002
0.0446764
0.114734
0.281099
0.234644
0.104356
0.0444681
0.0202465
0.0124315
0.0123766
0.0201169
0.0441531
0.102119
0.23582
0.196885
0.091451
0.0435953
0.0199438
0.0124953
0.0124877
0.0199277
0.0435513
0.0912649
0.197334
0.156372
0.0861978
0.0400047
0.0187449
0.0121432
0.0121574
0.0187862
0.0401108
0.0866175
0.156538
0.0258559
0.0260664
0.0261855
0.0261948
0.0260714
0.0257878
0.0253112
0.0246268
0.0238641
0.0229781
0.0126986
0.0128198
0.012909
0.0129617
0.0129732
0.0129397
0.0128606
0.0127445
0.0126267
0.012502
0.010822
0.0109245
0.0110057
0.0110637
0.011097
0.0111055
0.0110919
0.0110631
0.0110294
0.0109973
0.0105607
0.0106587
0.01074
0.0108033
0.0108479
0.0108745
0.0108853
0.0108853
0.0108806
0.0108781
0.0108502
0.0109506
0.0110371
0.0111083
0.0111636
0.0112028
0.0112276
0.0112404
0.0112465
0.0112524
0.0114348
0.0115428
0.0116388
0.0117213
0.0117887
0.0118397
0.0118745
0.0118957
0.011908
0.0119176
0.0122352
0.0123559
0.0124659
0.0125619
0.0126407
0.0127007
0.0127428
0.0127703
0.0127888
0.0128053
0.0132329
0.0133713
0.0134975
0.0136073
0.0136963
0.0137626
0.0138086
0.0138399
0.013865
0.0138925
0.0144352
0.0145952
0.014742
0.0148683
0.0149672
0.0150363
0.0150821
0.015116
0.0151502
0.0151944
0.0158584
0.0160474
0.0162224
0.0163713
0.0164813
0.0165485
0.0165917
0.0166322
0.016685
0.0167586
0.0175215
0.0177463
0.0179574
0.0181362
0.0182594
0.0183203
0.0183663
0.0184293
0.0185218
0.0186462
0.0194543
0.0197151
0.0199564
0.0201512
0.0202633
0.0203463
0.0204384
0.0205655
0.0207332
0.0209385
0.0217208
0.0220095
0.0222574
0.022422
0.0225195
0.0226933
0.0229155
0.023161
0.0234391
0.0237552
0.0244593
0.0247755
0.0250357
0.025212
0.0253756
0.0256167
0.0259462
0.026332
0.0267552
0.0272165
0.0278362
0.0281947
0.0285033
0.028755
0.0290124
0.0293469
0.0297721
0.0302917
0.0308775
0.0315097
0.0319713
0.0324057
0.0327981
0.0331606
0.0335484
0.034023
0.0345959
0.0352766
0.0360472
0.0368807
0.0369888
0.0375395
0.0380667
0.0385956
0.0391733
0.0398496
0.0406383
0.041544
0.0425516
0.0436357
0.0430935
0.0438166
0.0445426
0.0453044
0.0461439
0.0470959
0.0481759
0.0493833
0.0507026
0.0521081
0.0505328
0.0515061
0.0525113
0.0535842
0.0547628
0.056076
0.0575365
0.0591403
0.0608676
0.062689
0.0595485
0.0608764
0.0622681
0.0637577
0.0653797
0.0671626
0.0691218
0.0712506
0.0735184
0.0758828
0.0703724
0.0722037
0.0741434
0.0762092
0.0784211
0.0808154
0.0834314
0.0862699
0.0892702
0.092359
0.0831982
0.0857267
0.0884596
0.0913836
0.0944388
0.0976487
0.101117
0.104891
0.108838
0.112817
0.0982454
0.101636
0.105367
0.109482
0.113843
0.118192
0.122662
0.12743
0.132507
0.13775
0.116106
0.120456
0.125039
0.130066
0.135877
0.141917
0.147967
0.154347
0.161351
0.168794
0.137689
0.143277
0.149056
0.155445
0.162711
0.170726
0.179409
0.18886
0.199039
0.209646
0.163901
0.171657
0.179894
0.188936
0.198968
0.210082
0.222178
0.235236
0.249181
0.263758
0.195751
0.207043
0.219268
0.232486
0.246781
0.262348
0.279053
0.296766
0.315217
0.333945
0.23519
0.251922
0.269973
0.289308
0.30989
0.331684
0.35448
0.377766
0.40088
0.423052
0.285991
0.310295
0.336531
0.364387
0.393504
0.423389
0.453308
0.482267
0.509137
0.532835
0.351402
0.386235
0.423668
0.462907
0.502911
0.542382
0.57978
0.613445
0.641815
0.663679
0.435181
0.483993
0.536019
0.589603
0.642601
0.692534
0.736815
0.773051
0.799372
0.814731
0.540756
0.607477
0.677741
0.748561
0.816225
0.876738
0.926339
0.961986
0.981746
0.985087
0.670183
0.75931
0.851829
0.942841
1.02654
1.09716
1.14984
1.18121
1.18956
1.17523
0.824101
0.94042
1.05962
1.17417
1.27532
1.35526
1.40861
1.43215
1.42467
1.38755
1.00141
1.14989
1.30084
1.44336
1.56406
1.65232
1.70478
1.71841
1.69153
1.6262
1.19862
1.38447
1.57297
1.7486
1.8902
1.98849
2.04444
2.0505
2.00048
1.89564
1.40839
1.63656
1.86905
2.08152
2.24478
2.36504
2.43918
2.44491
2.36325
2.19487
1.61751
1.88902
2.16677
2.41531
2.61707
2.78688
2.90298
2.91925
2.785
2.52327
1.82316
2.13734
2.45166
2.73442
2.99975
3.2465
3.429
3.45832
3.23266
2.88411
2.01749
2.37237
2.70935
3.04762
3.40024
3.73653
3.99586
4.00534
3.669
3.27197
2.18335
2.56675
2.92244
3.32389
3.76414
4.21202
4.59221
4.5367
4.09794
3.67209
2.32992
2.71483
3.08807
3.5217
4.03331
4.62154
5.23693
4.94222
4.4902
4.03766
2.42546
2.74706
3.12893
3.52089
4.00553
4.58222
5.09657
4.95236
4.63483
4.24635
2.35921
2.66273
3.06528
3.40802
3.78097
4.15416
4.45589
4.58637
4.49766
4.28029
2.13853
2.45188
2.79374
3.13734
3.42754
3.65516
3.84258
3.98137
4.02236
3.96822
1.95924
2.22625
2.49193
2.761
2.98968
3.16665
3.30319
3.40294
3.45968
3.47523
1.77032
1.98985
2.1722
2.35919
2.52992
2.67668
2.79944
2.89366
2.95396
2.97889
1.49484
1.67223
1.8259
1.96423
2.09154
2.20466
2.29741
2.36181
2.38772
2.37245
1.22593
1.34491
1.46127
1.56984
1.66256
1.73366
1.78343
1.81091
1.81546
1.79719
0.992272
1.06755
1.14251
1.2143
1.27762
1.32613
1.35717
1.37051
1.3673
1.34913
0.80954
0.855652
0.901421
0.945871
0.985485
1.01537
1.03264
1.03716
1.03061
1.01489
0.682069
0.710308
0.738154
0.764232
0.785433
0.798583
0.802849
0.799682
0.791268
0.779303
0.605897
0.6256
0.645791
0.660115
0.661226
0.655928
0.648493
0.640424
0.632724
0.626227
0.569178
0.590078
0.612002
0.605603
0.579022
0.560065
0.547985
0.541001
0.53831
0.539677
0.533539
0.541339
0.537541
0.520799
0.505179
0.494619
0.489566
0.489762
0.494933
0.504886
0.499434
0.489653
0.480373
0.472014
0.466721
0.465636
0.469166
0.477399
0.490374
0.508088
0.464967
0.459647
0.456403
0.455768
0.458449
0.465091
0.476071
0.49156
0.511657
0.536403
0.430536
0.4356
0.442119
0.450925
0.46268
0.477959
0.497165
0.520532
0.548216
0.580353
0.399588
0.414985
0.431985
0.451359
0.473348
0.498473
0.527161
0.559764
0.596544
0.636818
0.378464
0.403232
0.430353
0.460145
0.492761
0.528801
0.568869
0.613192
0.661252
0.713074
0.371122
0.404575
0.441642
0.482194
0.527034
0.577131
0.632478
0.69283
0.758241
0.828553
0.3789
0.422088
0.47057
0.525403
0.588096
0.658436
0.736609
0.822583
0.91584
1.01539
0.404202
0.46044
0.526313
0.604151
0.694129
0.797049
0.912725
1.03983
1.176
1.31814
0.451846
0.529192
0.624414
0.73901
0.874978
1.03234
1.2084
1.39788
1.59404
1.78995
0.53069
0.643721
0.786334
0.963308
1.17656
1.4224
1.69035
1.96547
2.23333
2.4823
0.653029
0.822549
1.04329
1.32328
1.66229
2.04569
2.44345
2.82066
3.15091
3.41651
0.832184
1.08812
1.43069
1.87236
2.40699
2.99546
3.56078
4.01852
4.32928
4.48644
1.07784
1.45739
1.97591
2.65494
3.48193
4.36513
5.08122
5.44695
5.51061
5.39274
1.39407
1.93486
2.68505
3.68778
4.93995
6.17715
6.7621
6.71401
6.39931
5.99327
1.78173
2.51924
3.5561
4.9826
6.82168
8.18024
8.21064
7.72181
7.07598
6.40144
2.24771
3.221
4.60579
6.56088
9.03876
10.2108
9.7327
8.74521
7.66877
6.67944
2.79982
4.05111
5.84255
8.38866
11.5594
12.7872
11.5277
9.72881
8.12733
6.83239
3.45854
5.05165
7.37128
10.7339
14.5312
15.2607
12.9269
10.3484
8.33651
6.83628
4.29447
6.34226
9.36477
13.6753
17.4928
16.6854
13.3307
10.4062
8.22762
6.67019
5.34864
7.97689
11.8778
17.0483
19.6216
16.8626
12.9899
9.99956
7.8427
6.36606
6.69306
10.0537
15.0111
20.4331
20.1047
15.8697
12.0646
9.23911
7.26357
5.99119
8.39826
12.6205
18.4655
22.0391
18.8666
14.3283
10.8072
8.28648
6.60945
5.6379
10.5729
15.8686
21.8372
21.4995
16.7247
12.5314
9.43201
7.30476
6.00438
5.40125
13.2838
19.6554
23.0858
19.2594
14.4361
10.7275
8.10583
6.42158
5.54634
5.35948
16.6632
22.9392
21.7215
16.5768
12.2596
9.08895
6.95018
5.72409
5.30231
5.5727
20.3253
23.6395
19.2341
14.2174
10.3862
7.69476
6.01381
5.24938
5.30832
6.0858
23.7218
22.647
16.918
12.2376
8.83252
6.55221
5.30039
5.00322
5.5805
6.93531
25.434
20.675
14.9354
10.585
7.52838
5.61429
4.78098
4.9699
6.11988
8.15078
26.6102
19.3289
13.4651
9.27965
6.45452
4.85441
4.42902
5.1249
6.91002
9.73971
27.9598
18.5988
12.3479
8.19112
5.53104
4.22342
4.2052
5.42822
7.91032
11.6681
25.6057
16.9934
11.1536
7.17763
4.6966
3.68141
4.06274
5.81846
9.05419
13.8891
26.0073
16.6522
10.5133
6.41245
3.98775
3.21301
3.94827
6.2072
10.2351
16.3339
27.1597
16.7818
10.1104
5.7633
3.34721
2.7777
3.79855
6.4813
11.2794
18.8244
28.3631
16.9912
9.73776
5.13256
2.73736
2.34913
3.56099
6.51977
11.9336
20.9089
29.4625
17.0817
9.27265
4.46957
2.14965
1.92195
3.2102
6.23361
11.9377
21.9614
30.3288
16.9178
8.63668
3.75645
1.59699
1.50807
2.75549
5.60066
11.1131
21.3026
30.8855
16.3964
7.78504
3.00385
1.1048
1.1285
2.24032
4.69897
9.51608
18.6659
30.7421
15.3514
6.69333
2.24664
0.699807
0.802628
1.72538
3.69084
7.51463
14.7923
29.5558
13.7306
5.41147
1.54595
0.39981
0.540374
1.2615
2.73454
5.53453
10.7737
26.9742
11.5079
4.02942
0.960929
0.203716
0.340946
0.876584
1.92893
3.85741
7.31836
22.466
8.80206
2.69817
0.53121
0.0928862
0.196944
0.575648
1.30441
2.57856
4.76652
16.989
6.00541
1.56933
0.253912
0.0395746
0.0998055
0.349579
0.841492
1.65811
2.97457
10.3023
3.27705
0.729072
0.102803
0.0191983
0.0427328
0.1873
0.511314
1.02997
1.76354
4.80555
1.45315
0.286158
0.043281
0.0136848
0.018043
0.0810678
0.281934
0.635969
1.01543
1.29325
0.513563
0.10134
0.0246348
0.0125149
0.0124609
0.0296604
0.124933
0.409771
0.753672
0.0218725
0.0206295
0.0193348
0.0181128
0.0171321
0.0165628
0.0164913
0.016864
0.0175295
0.0183411
0.0192824
0.0204075
0.0212633
0.0217661
0.0217746
0.0212368
0.0201614
0.0187021
0.0175038
0.0164535
0.0155947
0.0149446
0.0144526
0.0141349
0.0138503
0.0133938
0.0126719
0.0116536
0.0105291
0.00948516
0.00850326
0.00762798
0.00685978
0.00615395
0.00544291
0.00467623
0.00387514
0.000884067
0.000832474
0.00191309
0.0123594
0.0122038
0.0120368
0.0118558
0.0116686
0.0115003
0.0113889
0.0113549
0.0113932
0.0114878
0.0116337
0.0118301
0.0119912
0.0120675
0.0120296
0.0118685
0.0115966
0.0112545
0.0109263
0.0105767
0.0101959
0.00980437
0.00942884
0.00908897
0.00876262
0.00840795
0.00800356
0.00755317
0.00709393
0.00664495
0.0061806
0.00569775
0.00520792
0.00471376
0.00422106
0.00371091
0.00317937
0.00261755
0.00226594
0.00301301
0.0109705
0.0109548
0.0109467
0.0109377
0.0109242
0.010907
0.010899
0.0109084
0.0109368
0.0109813
0.0110361
0.0110924
0.0111299
0.0111271
0.0110717
0.0109614
0.0108014
0.0106004
0.0103688
0.0101037
0.00982631
0.00954444
0.00926201
0.00897775
0.00867939
0.00835479
0.00799585
0.00760733
0.00720437
0.00679503
0.00637938
0.00595734
0.0055339
0.00509906
0.00464879
0.0041792
0.00371619
0.00333254
0.00322732
0.00432576
0.0108847
0.010906
0.0109369
0.0109731
0.0110185
0.0110819
0.0111597
0.0112422
0.0113191
0.0113867
0.0114397
0.0114715
0.011477
0.0114477
0.0113801
0.0112762
0.0111407
0.0109742
0.0107683
0.0105298
0.0103064
0.0101051
0.00990615
0.00969196
0.00944436
0.00915337
0.00882117
0.00845714
0.0080736
0.00768055
0.00727578
0.00685735
0.00642142
0.00595716
0.00546936
0.00498325
0.00451823
0.00414343
0.00410917
0.00550575
0.0112655
0.0112909
0.0113217
0.0113579
0.0114234
0.0115504
0.0117179
0.0118862
0.0120269
0.0121381
0.0122192
0.0122631
0.0122653
0.0122293
0.0121571
0.0120544
0.0119278
0.0117794
0.0115988
0.0113905
0.0111933
0.0110384
0.0109177
0.0108014
0.0106484
0.0104381
0.0101687
0.00985244
0.00950869
0.0091487
0.00876982
0.00836354
0.00791192
0.00739051
0.00681065
0.00620941
0.00562277
0.0051473
0.00505973
0.0064992
0.0119316
0.0119557
0.0119839
0.0120176
0.0120892
0.0122343
0.012451
0.0126992
0.0129234
0.0131031
0.0132345
0.0133078
0.0133223
0.013291
0.0132266
0.0131383
0.0130333
0.0129142
0.0127732
0.0126074
0.0124408
0.0123165
0.0122609
0.0122697
0.0122815
0.0122137
0.0120478
0.0118222
0.011575
0.011316
0.0110352
0.0107174
0.0103027
0.00970782
0.00896004
0.00812943
0.00731493
0.00664296
0.00634928
0.00757927
0.0128279
0.0128632
0.0129068
0.012955
0.0130274
0.0131601
0.0133738
0.0136629
0.0139722
0.0142416
0.0144395
0.0145535
0.0145947
0.0145842
0.0145499
0.0145036
0.0144499
0.014388
0.0143109
0.0142114
0.0141076
0.0140445
0.0140719
0.0142227
0.0144617
0.0145904
0.0145445
0.0144251
0.0143374
0.0143155
0.0142931
0.0141988
0.0139557
0.0133887
0.0124559
0.011255
0.0101122
0.00914699
0.00844338
0.00871385
0.0139319
0.0139904
0.014063
0.0141411
0.0142267
0.0143479
0.0145444
0.0148378
0.0152059
0.0155626
0.0158274
0.0159865
0.0160708
0.0161171
0.0161501
0.016186
0.0162211
0.0162483
0.0162618
0.0162596
0.0162585
0.0162853
0.0164015
0.0166604
0.0170265
0.0172886
0.0173448
0.017375
0.0175915
0.0179664
0.0181978
0.0182457
0.0182167
0.0181833
0.0175778
0.0161469
0.0146336
0.0137841
0.0145703
0.037743
0.0152588
0.015349
0.0154553
0.0155667
0.0156796
0.0158115
0.0160004
0.0162833
0.0166726
0.0170866
0.0174108
0.0176284
0.0177882
0.0179356
0.0180916
0.0182596
0.0184279
0.0185833
0.0187233
0.0188546
0.0189876
0.0191189
0.0192444
0.0193367
0.0194009
0.0196028
0.0198495
0.0201464
0.0206104
0.0211413
0.0216137
0.0219908
0.022204
0.0221866
0.0217869
0.0207504
0.019096
0.0178376
0.0192303
0.0401448
0.0168619
0.0169979
0.0171517
0.0173105
0.0174651
0.0176228
0.0178169
0.0180845
0.0184287
0.0188529
0.0192568
0.0195779
0.0198632
0.0201614
0.020486
0.0208243
0.0211571
0.021464
0.0217457
0.0220156
0.0222799
0.022507
0.0226036
0.0225414
0.022419
0.0224822
0.0228221
0.023359
0.0239956
0.0246621
0.0252756
0.025726
0.0259115
0.0257123
0.02504
0.0238754
0.0222266
0.0203719
0.0199476
0.0379904
0.0188093
0.0190108
0.0192313
0.0194595
0.0196838
0.0198993
0.0201259
0.0203981
0.0207231
0.0211494
0.0216324
0.0220743
0.0224956
0.0229495
0.0234427
0.0239591
0.0244649
0.0249224
0.0253314
0.0257199
0.0260983
0.0264316
0.0266018
0.0265905
0.0265205
0.0265839
0.0268652
0.0273791
0.0280768
0.0288696
0.0296837
0.0303822
0.0308138
0.0307991
0.0301831
0.028934
0.0271462
0.0250143
0.0236698
0.0380115
0.0211892
0.0214819
0.0217913
0.0221093
0.0224309
0.0227464
0.0230556
0.023394
0.023799
0.0242664
0.0247885
0.0253101
0.0258321
0.0263927
0.0269943
0.0276247
0.0282465
0.0288239
0.0293613
0.0298955
0.030427
0.0309137
0.0312571
0.0314486
0.0315595
0.0317013
0.0319034
0.0322464
0.0328283
0.0336198
0.0345158
0.0354177
0.0362018
0.0366941
0.0367037
0.036083
0.0348315
0.0332674
0.0329459
0.0452083
0.024125
0.0245424
0.0249742
0.0254123
0.0258521
0.0262905
0.026732
0.0272056
0.0277252
0.028253
0.0288104
0.0293881
0.0299828
0.0306035
0.0312498
0.0319143
0.0325672
0.0332012
0.033854
0.0345313
0.0352138
0.0358588
0.0363915
0.0367889
0.0370597
0.0372617
0.0374719
0.0377677
0.0382313
0.038902
0.0397548
0.0407233
0.0417104
0.0426083
0.043294
0.0436634
0.0437296
0.044008
0.0474285
0.0770206
0.0277391
0.0283138
0.0288979
0.0294833
0.0300667
0.0306488
0.0312357
0.0318386
0.0324658
0.0331093
0.0337717
0.0344413
0.0351169
0.0357953
0.0364756
0.0371598
0.0378391
0.0385183
0.0392286
0.0399681
0.0407173
0.0414399
0.0420911
0.0426462
0.0430884
0.0434136
0.0436769
0.0439561
0.0443258
0.0448434
0.0455311
0.0463808
0.0473607
0.0484276
0.0495437
0.0507339
0.0522479
0.0551389
0.0641103
0.120506
0.0322146
0.0329797
0.0337511
0.0345206
0.0352857
0.0360493
0.036817
0.0375927
0.0383752
0.0391653
0.0399541
0.0407375
0.0415146
0.0422784
0.0430251
0.0437632
0.0445024
0.0452489
0.0460125
0.0467913
0.0475711
0.0483281
0.0490278
0.0496413
0.0501427
0.0505104
0.0507635
0.0509665
0.051197
0.0515204
0.0519888
0.0526408
0.0535058
0.054618
0.0560427
0.0579607
0.060883
0.066432
0.0814141
0.167244
0.0378083
0.0388127
0.0398243
0.0408326
0.0418337
0.0428281
0.0438185
0.0448051
0.045784
0.0467499
0.0476966
0.0486213
0.0495243
0.0504041
0.0512583
0.0520954
0.052931
0.0537745
0.0546315
0.0554844
0.0563089
0.0570772
0.0577726
0.0583659
0.0587973
0.0590448
0.0591414
0.0591418
0.0591219
0.0591554
0.0593218
0.0596993
0.060371
0.0614402
0.0630668
0.0655657
0.0696669
0.0775122
0.0981016
0.2141
0.0448405
0.046146
0.0474617
0.048772
0.0500679
0.0513455
0.0526029
0.0538385
0.0550499
0.0562329
0.0573835
0.058499
0.0595785
0.0606267
0.0616472
0.0626452
0.0636322
0.0646196
0.0655982
0.0665344
0.0674059
0.0681773
0.0688155
0.0692679
0.0695001
0.0695177
0.0693298
0.0689694
0.0685046
0.0680611
0.0677623
0.0677207
0.0680664
0.068967
0.0706717
0.0736178
0.0787321
0.0886067
0.114188
0.256808
0.0536633
0.0553465
0.0570422
0.0587292
0.0603911
0.0620165
0.0636
0.0651422
0.0666469
0.068115
0.0695423
0.0709235
0.0722616
0.0735716
0.074858
0.0761009
0.0773032
0.0784823
0.0796249
0.0806725
0.0815515
0.0822475
0.0827313
0.0829518
0.0828776
0.082489
0.0817917
0.0808321
0.0797035
0.0785354
0.0775225
0.0768327
0.0766346
0.0771513
0.0787157
0.0818869
0.0877825
0.0994193
0.129512
0.29747
0.0646905
0.0668478
0.069019
0.0711828
0.0733135
0.0753888
0.0773996
0.0793544
0.0812687
0.083147
0.0849765
0.0867417
0.0884567
0.0901576
0.0918313
0.0934121
0.0948851
0.0962866
0.0975596
0.0986426
0.0994831
0.100064
0.10035
0.100288
0.0997974
0.0987939
0.0972645
0.0953052
0.0930946
0.0908488
0.0887813
0.0871497
0.086126
0.0859583
0.0870504
0.0900874
0.0963754
0.109277
0.142737
0.330097
0.0784563
0.0812061
0.0839689
0.0867475
0.0895037
0.092197
0.0948228
0.0974042
0.0999549
0.102452
0.104867
0.107187
0.10944
0.111684
0.113883
0.115905
0.117658
0.119155
0.120437
0.121479
0.122249
0.122688
0.12273
0.122322
0.12128
0.119338
0.116443
0.112847
0.108944
0.10513
0.101702
0.0988848
0.0967861
0.0955794
0.0956921
0.0979528
0.103863
0.116889
0.150853
0.342478
0.095683
0.0991755
0.102652
0.106187
0.109783
0.11336
0.116942
0.120562
0.124143
0.127569
0.130771
0.133817
0.13678
0.139693
0.142534
0.145102
0.147036
0.148314
0.14936
0.150375
0.151161
0.151439
0.151158
0.150348
0.148544
0.145016
0.13979
0.133597
0.127256
0.121431
0.116535
0.112633
0.109465
0.106865
0.105165
0.105456
0.109617
0.120929
0.150684
0.314974
0.117096
0.121618
0.126107
0.130687
0.135459
0.140387
0.145425
0.150625
0.155757
0.160462
0.164587
0.168399
0.172082
0.175602
0.179086
0.182286
0.184035
0.184407
0.184976
0.186196
0.187175
0.187192
0.186558
0.185332
0.18199
0.175372
0.166676
0.157221
0.148039
0.140142
0.134146
0.129693
0.125742
0.121256
0.116322
0.112968
0.11352
0.12089
0.144903
0.2659
0.143444
0.149676
0.1559
0.162232
0.168688
0.175413
0.182348
0.189426
0.196458
0.202686
0.207725
0.212012
0.216085
0.219817
0.22326
0.22622
0.227245
0.22662
0.226707
0.228024
0.2291
0.228807
0.227617
0.224816
0.21787
0.207133
0.195102
0.182995
0.171715
0.162263
0.15538
0.149811
0.143572
0.135589
0.127182
0.121755
0.120673
0.126146
0.143015
0.203005
0.176949
0.185729
0.194613
0.20342
0.212077
0.220625
0.229122
0.237755
0.246328
0.253997
0.259685
0.263413
0.266387
0.269181
0.271603
0.273231
0.272957
0.270793
0.269423
0.270201
0.2712
0.270151
0.266711
0.259747
0.248519
0.235293
0.222064
0.209694
0.199148
0.190126
0.180187
0.170632
0.163029
0.153727
0.143195
0.135756
0.130115
0.128885
0.140501
0.15061
0.221216
0.233503
0.245545
0.25703
0.26771
0.277468
0.286669
0.295621
0.303952
0.311047
0.315932
0.318255
0.318929
0.319036
0.318716
0.317492
0.315107
0.311831
0.309076
0.308405
0.308386
0.304416
0.295623
0.283615
0.269844
0.256193
0.244095
0.234429
0.228143
0.225337
0.219873
0.206464
0.192914
0.180585
0.168341
0.160693
0.155842
0.154139
0.174856
0.238882
0.279386
0.295427
0.31039
0.323896
0.335683
0.345326
0.353145
0.360127
0.365976
0.370385
0.373064
0.373262
0.370926
0.367129
0.362983
0.358461
0.354076
0.350788
0.347767
0.344661
0.339971
0.330067
0.316575
0.30165
0.286702
0.273901
0.264566
0.258822
0.2569
0.258952
0.262904
0.262873
0.252302
0.236433
0.220199
0.208722
0.201912
0.191274
0.187051
0.336434
0.3533
0.37225
0.388772
0.402308
0.41265
0.420057
0.425199
0.428761
0.430697
0.430861
0.429072
0.424946
0.418642
0.410874
0.402728
0.394914
0.388374
0.38395
0.379701
0.37289
0.362659
0.349317
0.334064
0.318801
0.305701
0.296744
0.292503
0.292503
0.297191
0.307228
0.320844
0.331526
0.329922
0.311142
0.280203
0.24747
0.214588
0.182296
0.160471
0.220213
0.444529
0.463911
0.47912
0.489849
0.496375
0.499472
0.499887
0.498004
0.493876
0.48754
0.479147
0.468921
0.457329
0.444933
0.432445
0.420567
0.410581
0.403484
0.397183
0.387399
0.373483
0.358583
0.344573
0.332854
0.324947
0.321779
0.322919
0.327255
0.334719
0.346781
0.364405
0.382342
0.391263
0.383716
0.359431
0.322248
0.272776
0.213854
0.163422
0.195558
0.553491
0.569477
0.579392
0.583703
0.583352
0.579378
0.572434
0.562658
0.550046
0.534956
0.518114
0.500328
0.48223
0.464391
0.447679
0.432452
0.419047
0.408294
0.398643
0.386611
0.372424
0.359334
0.348994
0.342059
0.338977
0.339768
0.343749
0.350049
0.358712
0.370578
0.385308
0.40049
0.413079
0.419426
0.414186
0.394133
0.356188
0.296357
0.224407
0.20962
0.679128
0.686544
0.686013
0.679221
0.668022
0.653831
0.637154
0.617576
0.594483
0.568586
0.541677
0.51532
0.490665
0.467914
0.447158
0.42943
0.414951
0.403096
0.391905
0.380104
0.369043
0.360121
0.354094
0.35114
0.351128
0.353676
0.358266
0.364601
0.372833
0.383223
0.395823
0.410523
0.425991
0.439833
0.448831
0.449799
0.438896
0.410575
0.351536
0.292912
0.819311
0.811792
0.794626
0.77119
0.74468
0.717319
0.689266
0.658101
0.62218
0.584145
0.547211
0.51336
0.483739
0.458532
0.437562
0.420862
0.407555
0.396801
0.387574
0.379209
0.37242
0.367765
0.365439
0.365328
0.367168
0.370626
0.375452
0.381639
0.389468
0.399379
0.411897
0.427367
0.445397
0.464944
0.484661
0.502726
0.515998
0.517352
0.488172
0.404838
0.972429
0.943015
0.902569
0.856617
0.809793
0.764976
0.722609
0.677902
0.62953
0.582327
0.539522
0.502425
0.471793
0.447519
0.428763
0.414847
0.404708
0.397172
0.391422
0.387164
0.384492
0.383492
0.384108
0.386205
0.389586
0.394027
0.399371
0.405658
0.413249
0.422868
0.435489
0.45197
0.472595
0.496906
0.523941
0.552596
0.581677
0.608588
0.62529
0.571164
1.13907
1.0812
1.01109
0.936233
0.863046
0.794148
0.731233
0.675259
0.624255
0.575456
0.531689
0.494986
0.465827
0.443837
0.42792
0.416954
0.409828
0.405545
0.4034
0.402963
0.403741
0.405607
0.40854
0.412577
0.417721
0.423871
0.43081
0.43832
0.446501
0.456165
0.468864
0.486313
0.509451
0.537885
0.570244
0.605081
0.642376
0.686497
0.751917
0.789732
1.32205
1.22902
1.12249
1.01204
0.907143
0.814493
0.737102
0.674256
0.621554
0.575027
0.5344
0.500591
0.473968
0.454032
0.439824
0.430506
0.425198
0.423087
0.423431
0.425343
0.42802
0.431321
0.435463
0.44084
0.447857
0.456773
0.467495
0.479283
0.490933
0.502275
0.515325
0.533169
0.558362
0.591033
0.628969
0.669252
0.711572
0.765933
0.873531
1.08881
1.52329
1.38377
1.23165
1.08433
0.953608
0.846161
0.76232
0.697812
0.645832
0.601988
0.564743
0.533241
0.506961
0.486057
0.470588
0.460149
0.45413
0.451847
0.452359
0.454127
0.456172
0.458374
0.461416
0.466243
0.473863
0.485266
0.501208
0.521547
0.543332
0.561601
0.576962
0.594667
0.620623
0.657571
0.702117
0.747777
0.791197
0.847211
0.984643
1.4459
1.73738
1.53905
1.34114
1.16377
1.01676
0.902331
0.816927
0.754388
0.707072
0.668967
0.636527
0.606248
0.577162
0.551086
0.529682
0.513429
0.502304
0.495847
0.492876
0.491158
0.489127
0.486725
0.485198
0.486209
0.491368
0.502281
0.520638
0.548418
0.587388
0.63051
0.653327
0.66708
0.69614
0.743725
0.800637
0.851604
0.888504
0.933513
1.08584
1.83455
1.96412
1.70676
1.47131
1.27263
1.11405
0.992976
0.903817
0.840058
0.795046
0.762823
0.738307
0.716931
0.693578
0.663367
0.629405
0.599686
0.577224
0.561936
0.551502
0.542006
0.53099
0.519201
0.508949
0.50271
0.502286
0.509149
0.524916
0.551909
0.594432
0.658524
0.730887
0.751435
0.764959
0.830682
0.932256
1.00622
1.02348
1.03369
1.17938
2.21836
2.21828
1.9139
1.64977
1.43222
1.25943
1.12628
1.02666
0.954732
0.905155
0.872874
0.852687
0.839229
0.828348
0.813912
0.776791
0.724679
0.683777
0.656766
0.636236
0.613552
0.586599
0.559166
0.535977
0.520089
0.512582
0.513844
0.524348
0.545145
0.578353
0.627512
0.69628
0.778559
0.832011
0.876019
0.993038
1.16932
1.20505
1.15269
1.2675
2.55568
2.52341
2.18282
1.89362
1.65527
1.46275
1.31
1.1914
1.10233
1.03847
0.994695
0.964835
0.94279
0.923935
0.907439
0.893427
0.866666
0.802553
0.765546
0.743258
0.707125
0.652547
0.601918
0.563976
0.538878
0.525248
0.521805
0.527638
0.542472
0.566912
0.602665
0.652551
0.720275
0.810679
0.909749
0.99786
1.18178
1.32608
1.26404
1.34424
2.80536
2.88051
2.51522
2.20349
1.94166
1.72409
1.54535
1.40093
1.28748
1.20163
1.13755
1.0868
1.04268
1.00219
0.966274
0.93943
0.924418
0.882679
0.831843
0.814875
0.782854
0.703523
0.634174
0.586658
0.556454
0.539888
0.534295
0.537653
0.548592
0.566777
0.593307
0.630666
0.682716
0.755398
0.857229
0.9755
1.10456
1.28837
1.31217
1.39664
2.95083
3.26528
2.8847
2.55324
2.26719
2.02275
1.81638
1.64494
1.50587
1.3975
1.31358
1.23808
1.1637
1.09324
1.03134
0.982848
0.952902
0.925666
0.88328
0.86277
0.806462
0.715287
0.64721
0.600633
0.571207
0.555495
0.550764
0.554348
0.563596
0.577097
0.596148
0.623453
0.662305
0.716878
0.793407
0.900669
1.01673
1.18469
1.28767
1.40907
2.99463
3.62363
3.23771
2.89464
2.59119
2.32567
2.09648
1.90232
1.74119
1.61168
1.5107
1.4167
1.30581
1.19842
1.10461
1.03058
0.979869
0.942355
0.908381
0.87407
0.793492
0.70952
0.649575
0.608703
0.583413
0.571262
0.570197
0.577389
0.587483
0.596587
0.608481
0.627183
0.655572
0.696403
0.753256
0.831817
0.939022
1.0789
1.21279
1.3918
2.99265
3.8739
3.51233
3.17955
2.87652
2.60344
2.3617
2.15327
1.97744
1.83292
1.71363
1.58743
1.4369
1.29254
1.16793
1.06715
0.990526
0.929341
0.885759
0.821457
0.749072
0.689475
0.644234
0.612565
0.593604
0.586755
0.59167
0.606702
0.620323
0.623416
0.627276
0.638539
0.659207
0.690821
0.735692
0.798314
0.888036
1.01007
1.16054
1.38002
2.98618
4.00146
3.69218
3.39066
3.10433
2.83129
2.57801
2.35754
2.16936
2.00945
1.8707
1.71678
1.52967
1.34943
1.19785
1.07343
0.975884
0.900323
0.83245
0.771726
0.718417
0.674482
0.64076
0.617603
0.605128
0.603681
0.614093
0.634625
0.650541
0.653552
0.649613
0.654982
0.670473
0.69624
0.733587
0.785969
0.86137
0.979617
1.15095
1.39689
2.92258
3.83865
3.65505
3.4541
3.21377
2.94057
2.69043
2.47378
2.28174
2.10695
1.92177
1.71483
1.50689
1.31988
1.16596
1.04223
0.942077
0.861648
0.796633
0.743741
0.700681
0.66674
0.641982
0.626469
0.620245
0.62311
0.634429
0.648263
0.671356
0.680822
0.673433
0.676028
0.688904
0.711421
0.744367
0.790836
0.85835
0.962961
1.14135
1.42744
2.94512
3.45417
3.38323
3.25879
3.06897
2.82541
2.5881
2.37947
2.18196
1.98429
1.77002
1.56204
1.37515
1.21549
1.0828
0.975385
0.888736
0.819509
0.764891
0.722189
0.689338
0.665221
0.649277
0.641278
0.641292
0.646218
0.654244
0.670528
0.694851
0.702529
0.699001
0.703283
0.716088
0.737123
0.767194
0.809018
0.868948
0.961215
1.12738
1.45106
3.13539
2.96538
2.89902
2.7769
2.5952
2.38384
2.1893
2.00641
1.82929
1.65598
1.48886
1.33391
1.19503
1.07542
0.975313
0.893776
0.828348
0.776694
0.736985
0.707473
0.686455
0.672942
0.665779
0.663326
0.665672
0.673298
0.688517
0.710557
0.727415
0.731264
0.733369
0.740871
0.754568
0.774796
0.802696
0.841082
0.896259
0.983058
1.14281
1.50334
3.4358
2.32575
2.2452
2.13573
2.00676
1.86932
1.73262
1.59848
1.46751
1.34075
1.22103
1.11204
1.01726
0.936802
0.870372
0.817072
0.775449
0.743993
0.721429
0.70652
0.697448
0.693697
0.694489
0.699263
0.709013
0.724613
0.744059
0.761221
0.770591
0.776209
0.783119
0.793123
0.807304
0.826641
0.852695
0.888541
0.940637
1.02395
1.18141
1.56418
3.64917
1.75699
1.69389
1.61517
1.5269
1.43434
1.34091
1.24873
1.15951
1.07486
0.996808
0.929394
0.873019
0.827161
0.791083
0.763989
0.74503
0.733177
0.727365
0.726787
0.730214
0.737385
0.748288
0.762367
0.779215
0.796658
0.812558
0.825498
0.835468
0.843778
0.852344
0.862745
0.876304
0.894306
0.918574
0.952385
1.00225
1.08345
1.23919
1.62742
3.73448
1.31656
1.26981
1.21463
1.15519
1.09468
1.03512
0.978141
0.92499
0.876974
0.836337
0.8039
0.779179
0.761619
0.75059
0.745533
0.746053
0.751381
0.760637
0.773531
0.789416
0.807897
0.82808
0.848941
0.86947
0.888167
0.903805
0.916022
0.925455
0.933357
0.941218
0.950441
0.962304
0.978223
1.00019
1.03158
1.07891
1.15759
1.31011
1.69786
3.79772
0.990612
0.958606
0.923426
0.887869
0.853996
0.822974
0.79559
0.772579
0.755385
0.744133
0.738497
0.738033
0.742219
0.750459
0.762384
0.777908
0.796671
0.818278
0.842267
0.868101
0.895312
0.922974
0.949793
0.974398
0.995541
1.01247
1.02521
1.03464
1.04204
1.04881
1.05628
1.06576
1.07882
1.09762
1.12563
1.16948
1.24475
1.39459
1.78529
3.92265
0.764239
0.747096
0.730682
0.716495
0.705537
0.698241
0.694975
0.696492
0.702482
0.712471
0.72602
0.742692
0.762088
0.78395
0.808095
0.834138
0.861973
0.891651
0.923021
0.955834
0.989612
1.02343
1.05592
1.08555
1.11102
1.13159
1.14732
1.15891
1.16748
1.17427
1.18057
1.1878
1.19769
1.2126
1.23626
1.2757
1.34723
1.49615
1.89837
4.13727
0.62124
0.618765
0.619507
0.623888