/*--------------------------------*- C++ -*----------------------------------*\
  =========                 |
  \\      /  F ield         | OpenFOAM: The Open Source CFD Toolbox
   \\    /   O peration     | Website:  https://openfoam.org
    \\  /    A nd           | Version:  8
     \\/     M anipulation  |
\*---------------------------------------------------------------------------*/
FoamFile
{
    version     2.0;
    format      ascii;
    class       volScalarField;
    location    "3.6";
    object      k;
}
// * * * * * * * * * * * * * * * * * * * * * * * * * * * * * * * * * * * * * //

dimensions      [0 2 -2 0 0 0 0];

internalField   nonuniform List<scalar> 
9150
(
0.00182769
0.000940071
0.000475009
0.000301265
0.00019256
0.000192475
0.000301165
0.000474891
0.000939913
0.00182771
0.00178512
0.000745638
0.000398356
0.000256635
0.000161085
0.000161017
0.00025654
0.000398257
0.000745507
0.00178512
0.00171357
0.000650332
0.000365414
0.000236619
0.000148474
0.000148417
0.000236534
0.000365327
0.000650223
0.00171356
0.00163498
0.000600257
0.000352311
0.0002286
0.000143674
0.000143623
0.000228521
0.000352231
0.000600167
0.00163497
0.0015515
0.000578683
0.000347544
0.000225781
0.000142169
0.000142121
0.000225705
0.000347469
0.000578604
0.00155149
0.00285127
0.00256228
0.00184943
0.00161557
0.00133149
0.00133232
0.00161842
0.00185502
0.00257018
0.00285244
0.00230582
0.00150435
0.00127934
0.00120759
0.000975469
0.000975711
0.00120877
0.00128173
0.00150587
0.00230576
0.00205086
0.00125277
0.000887716
0.000806156
0.000626168
0.000626167
0.000806546
0.000888483
0.00125298
0.00205075
0.00186858
0.00111048
0.000649692
0.000529489
0.000386535
0.000386459
0.000529529
0.000649829
0.00111031
0.00186852
0.0017877
0.00102084
0.000523879
0.000371383
0.000252964
0.000252877
0.000371309
0.000523807
0.00102063
0.00178767
0.0125532
0.00515424
0.00259851
0.00189764
0.00154056
0.00153482
0.00190391
0.00284599
0.00660806
0.016368
0.00491881
0.00380335
0.00250056
0.00189303
0.00154662
0.00154318
0.00189318
0.00250033
0.00372111
0.00497315
0.00440883
0.00343246
0.00247659
0.00189108
0.00155344
0.00155295
0.00189605
0.00248273
0.00340241
0.00442359
0.00392217
0.00315077
0.0024574
0.00188689
0.00156053
0.00156192
0.00189295
0.00246508
0.00315617
0.00392815
0.00336375
0.00309995
0.00235617
0.00184082
0.00153454
0.00153639
0.00184605
0.00236378
0.00311437
0.00336615
0.00160692
0.0016156
0.00162049
0.00162086
0.00161576
0.00160402
0.0015842
0.00155556
0.00152332
0.00148543
0.00330952
0.00331848
0.00332081
0.0033156
0.00330187
0.00327859
0.00324483
0.00320011
0.00314221
0.0030727
0.00421287
0.00422127
0.00422227
0.00421514
0.00419912
0.00417354
0.00413796
0.00409238
0.00403641
0.00397152
0.0048886
0.00489661
0.00489715
0.00488961
0.00487341
0.00484812
0.00481363
0.00476982
0.0047174
0.00465813
0.00547659
0.00548487
0.00548586
0.00547903
0.00546385
0.00543997
0.00540716
0.00536529
0.00531553
0.00525975
0.00602874
0.00603825
0.00604077
0.00603577
0.00602262
0.00600054
0.00596914
0.00592903
0.00588144
0.00582824
0.00657299
0.00658502
0.00659037
0.0065878
0.00657622
0.00655518
0.00652483
0.00648607
0.00644053
0.00639035
0.00712842
0.00714423
0.00715264
0.00715238
0.00714227
0.00712182
0.00709169
0.0070536
0.00700997
0.0069634
0.00770904
0.00772955
0.00774229
0.00774527
0.0077366
0.0077158
0.00768481
0.0076469
0.00760551
0.00756357
0.0083244
0.00835168
0.00837088
0.00837874
0.00837186
0.00834947
0.00831681
0.00827981
0.00824273
0.00820798
0.00897922
0.00901504
0.0090428
0.00905747
0.00905299
0.00902773
0.00899463
0.00896231
0.00893423
0.00891118
0.00967643
0.00972052
0.00975504
0.0097728
0.0097644
0.00974382
0.00972122
0.00970357
0.00969244
0.00968729
0.0104245
0.0104742
0.0105089
0.0105177
0.0105047
0.0105059
0.0105142
0.0105235
0.0105364
0.0105546
0.0112472
0.0113015
0.0113374
0.0113477
0.0113496
0.0113649
0.0113959
0.0114349
0.0114777
0.011525
0.0121699
0.0122313
0.012276
0.012302
0.0123236
0.012357
0.0124054
0.0124694
0.0125427
0.0126214
0.0132018
0.0132768
0.0133369
0.0133844
0.0134311
0.0134902
0.0135645
0.0136557
0.0137602
0.0138727
0.014349
0.0144446
0.014529
0.014607
0.0146881
0.0147823
0.0148926
0.0150199
0.0151614
0.0153127
0.0156312
0.0157567
0.0158755
0.0159937
0.0161191
0.0162582
0.0164139
0.0165864
0.0167732
0.0169702
0.0170733
0.0172401
0.0174044
0.0175723
0.0177501
0.0179428
0.0181529
0.0183798
0.0186206
0.0188711
0.0186938
0.0189151
0.0191375
0.0193658
0.0196053
0.0198606
0.0201343
0.0204254
0.0207298
0.0210417
0.0205036
0.0207959
0.0210927
0.0213957
0.0217074
0.0220335
0.02238
0.0227469
0.023126
0.0235078
0.0224998
0.0228803
0.0232738
0.0236759
0.0240777
0.0244838
0.0249092
0.02536
0.025819
0.026269
0.0246719
0.0251459
0.0256439
0.0261662
0.0266932
0.0271947
0.0276911
0.0282047
0.0287362
0.0292698
0.0270422
0.027596
0.028153
0.028733
0.0293711
0.030003
0.030607
0.031222
0.0318812
0.0325662
0.0296495
0.0302819
0.0309035
0.0315562
0.0322658
0.0330166
0.0338003
0.0346277
0.0354953
0.0363816
0.0325056
0.0332729
0.0340471
0.0348581
0.0357218
0.0366464
0.0376228
0.0386513
0.0397298
0.0408435
0.0356058
0.0365858
0.0375959
0.038642
0.0397318
0.0408827
0.042091
0.0433532
0.044657
0.0459768
0.0390124
0.0402985
0.0416233
0.0429859
0.0443892
0.0458394
0.0473334
0.0488498
0.0503575
0.0518171
0.0429137
0.0445827
0.046307
0.0480721
0.0498664
0.051675
0.0534715
0.0552151
0.0568559
0.0583433
0.047414
0.0495705
0.0517949
0.0540522
0.0563016
0.0584945
0.0605724
0.0624704
0.0641247
0.0654823
0.052623
0.055373
0.0581941
0.0610171
0.0637588
0.066327
0.0686269
0.0705699
0.0720843
0.073125
0.0586151
0.0620637
0.0655671
0.0690081
0.0722498
0.0751517
0.0775838
0.0794404
0.08065
0.0811846
0.065387
0.0696436
0.0739116
0.0780112
0.0817422
0.0849162
0.0873783
0.0890194
0.0897777
0.0896485
0.0728773
0.0780426
0.0831558
0.0879568
0.0921632
0.0955396
0.0979351
0.0992587
0.0994649
0.098572
0.0809771
0.0871416
0.093187
0.0987567
0.103439
0.10694
0.109206
0.110171
0.109774
0.108036
0.0895198
0.096774
0.10385
0.110262
0.115382
0.11901
0.121269
0.121973
0.120925
0.118083
0.0982375
0.106664
0.114884
0.122153
0.127657
0.131718
0.134367
0.135026
0.133136
0.128569
0.106716
0.116286
0.125612
0.133634
0.139961
0.145179
0.14882
0.149718
0.146478
0.139497
0.114939
0.125585
0.135687
0.144374
0.15219
0.15922
0.164392
0.16555
0.16009
0.151107
0.122755
0.13441
0.144864
0.154815
0.164697
0.173762
0.180601
0.181168
0.173184
0.163341
0.129673
0.142017
0.152809
0.164278
0.176207
0.187779
0.197237
0.196246
0.186115
0.175915
0.13609
0.148391
0.159593
0.171776
0.185305
0.199982
0.21456
0.208392
0.198276
0.187714
0.140919
0.151368
0.162992
0.174181
0.187168
0.201788
0.214217
0.211273
0.204414
0.195601
0.140065
0.150242
0.16286
0.173003
0.183411
0.193368
0.201213
0.205037
0.203743
0.199217
0.133326
0.144183
0.155397
0.166147
0.174883
0.181571
0.187096
0.191525
0.193639
0.193345
0.127544
0.13713
0.146234
0.155152
0.162607
0.168391
0.172985
0.176628
0.179211
0.180748
0.12099
0.129204
0.135745
0.142327
0.148323
0.153552
0.158057
0.161727
0.164413
0.166061
0.110323
0.1174
0.123335
0.128595
0.133453
0.137845
0.141568
0.144353
0.145852
0.145963
0.0990526
0.104164
0.109068
0.113618
0.117535
0.120634
0.122956
0.124475
0.12517
0.125034
0.0883897
0.0919721
0.0954909
0.0988773
0.101924
0.104367
0.106095
0.107099
0.107425
0.107131
0.0792454
0.0817695
0.0842482
0.0866791
0.0889047
0.0906836
0.0918714
0.092458
0.0925208
0.092144
0.0721857
0.0740237
0.0758133
0.0775073
0.0789366
0.0799246
0.0804258
0.0805196
0.0803233
0.0799239
0.0673727
0.0688721
0.0703601
0.0714707
0.0717649
0.0716485
0.071377
0.0710431
0.070708
0.0704201
0.0644534
0.0660991
0.0677235
0.067526
0.0660135
0.0649217
0.0642236
0.0638123
0.0636379
0.0636842
0.0610679
0.0618787
0.0618536
0.0609165
0.0599974
0.0593522
0.059015
0.0589725
0.0592077
0.0597066
0.0576217
0.0572234
0.0567906
0.0563532
0.0560551
0.055974
0.0561387
0.0565568
0.0572322
0.0581638
0.0542573
0.0541062
0.0540228
0.0540426
0.0542145
0.0545836
0.0551766
0.056006
0.0570779
0.0583927
0.0509983
0.0514893
0.0520038
0.0525947
0.0533078
0.0541837
0.0552493
0.0565192
0.0580005
0.0596957
0.0479887
0.049125
0.0502874
0.0515217
0.0528477
0.0542974
0.0558951
0.057657
0.0595929
0.0616827
0.0456192
0.0473362
0.0491131
0.0509644
0.0528971
0.0549379
0.0571102
0.0594237
0.0618638
0.0644273
0.0441655
0.0463898
0.0487235
0.0511468
0.0536848
0.0563642
0.0591848
0.0621353
0.0652123
0.0684085
0.0436904
0.0464068
0.0492766
0.0523181
0.0555639
0.0589986
0.0626138
0.0663986
0.0703329
0.0743887
0.0442116
0.0474646
0.0509915
0.0548364
0.0589802
0.0634181
0.068124
0.0730501
0.0781299
0.0832859
0.0457528
0.0497267
0.054185
0.0591262
0.0645564
0.0704352
0.076666
0.0831059
0.0895935
0.0959733
0.0484175
0.0534559
0.0592372
0.0658079
0.0731382
0.0810765
0.0893453
0.0976058
0.105558
0.112972
0.0523649
0.0589171
0.0666479
0.0756157
0.085682
0.0964316
0.107209
0.117336
0.126318
0.133811
0.0577254
0.0663719
0.0768332
0.0891451
0.102945
0.117326
0.130864
0.142075
0.150225
0.155169
0.0644854
0.075842
0.0898261
0.106458
0.125088
0.143916
0.159265
0.16809
0.171186
0.170683
0.0724914
0.0870177
0.105092
0.126839
0.15149
0.174552
0.186544
0.187789
0.18411
0.178496
0.0815477
0.0995028
0.12199
0.149514
0.181214
0.203906
0.206512
0.200611
0.191667
0.181811
0.0916149
0.113211
0.140386
0.174179
0.212048
0.23015
0.225226
0.21227
0.197144
0.182704
0.10271
0.12816
0.160184
0.200016
0.243834
0.26117
0.246419
0.222919
0.200722
0.182129
0.115147
0.144985
0.182885
0.23059
0.278486
0.288943
0.261766
0.228747
0.201367
0.180231
0.129999
0.165232
0.210288
0.2659
0.310857
0.303747
0.264731
0.227659
0.198355
0.176753
0.147661
0.189189
0.2423
0.303362
0.333021
0.304412
0.259066
0.221111
0.192185
0.171944
0.168798
0.217496
0.279173
0.338626
0.33764
0.292004
0.246631
0.21033
0.183722
0.166486
0.19386
0.249941
0.316784
0.355237
0.324096
0.273281
0.230092
0.197065
0.174323
0.161461
0.223552
0.287771
0.351076
0.350073
0.299993
0.25099
0.211668
0.183181
0.165518
0.158094
0.25764
0.328224
0.364069
0.326773
0.273157
0.2277
0.19323
0.170274
0.15864
0.157486
0.296449
0.360777
0.350922
0.29684
0.245994
0.205277
0.17631
0.1596
0.154732
0.160551
0.334565
0.367743
0.324502
0.268373
0.220778
0.184837
0.161763
0.151905
0.154492
0.167975
0.365865
0.356749
0.29721
0.242127
0.197994
0.166822
0.149993
0.147567
0.15832
0.18022
0.378679
0.333867
0.271598
0.218234
0.177342
0.151079
0.140968
0.146606
0.166288
0.197488
0.384571
0.315247
0.25023
0.197521
0.159054
0.13762
0.134572
0.148789
0.178073
0.219489
0.391396
0.302777
0.232658
0.179173
0.142518
0.126016
0.130377
0.15356
0.192917
0.245233
0.366053
0.282039
0.214261
0.161505
0.126908
0.115682
0.127673
0.159979
0.209755
0.273727
0.364492
0.273651
0.20196
0.146705
0.112697
0.106319
0.12558
0.166721
0.227163
0.304087
0.370135
0.270682
0.19285
0.133433
0.0991499
0.0972573
0.123027
0.172131
0.243061
0.334604
0.376744
0.269066
0.184463
0.12032
0.0855812
0.0879302
0.119022
0.174428
0.254521
0.361007
0.382558
0.266522
0.175178
0.106541
0.0717478
0.0781172
0.112946
0.172199
0.258589
0.377682
0.38644
0.261598
0.163936
0.0917446
0.057828
0.0679118
0.104644
0.164736
0.252935
0.378359
0.387851
0.253232
0.150049
0.0760028
0.0443267
0.0575999
0.0944432
0.152429
0.237264
0.359649
0.383874
0.239716
0.132975
0.0597897
0.0319274
0.0474847
0.0829759
0.136713
0.214191
0.325668
0.371885
0.220236
0.112934
0.0440994
0.0213312
0.0377561
0.0708608
0.119241
0.187261
0.2834
0.348649
0.193978
0.090609
0.0301113
0.0130352
0.0284916
0.0585476
0.101421
0.159779
0.23915
0.309285
0.161366
0.0676103
0.0188898
0.00722705
0.0197789
0.0462124
0.0840402
0.133862
0.198918
0.259076
0.125329
0.0459359
0.010809
0.00374802
0.0119589
0.0337947
0.0669994
0.109988
0.16345
0.193626
0.0865926
0.0272279
0.00572003
0.00213931
0.00585819
0.0213888
0.0497142
0.0877483
0.132403
0.131279
0.0542565
0.0143072
0.00319131
0.00164834
0.00247898
0.0100985
0.031231
0.0655697
0.105113
0.0786109
0.0288898
0.00633291
0.00215238
0.00155014
0.00158849
0.00316707
0.01246
0.0388575
0.0793965
0.00143743
0.00138246
0.00132399
0.00126752
0.00122117
0.00119371
0.00119001
0.00120767
0.00123913
0.00127704
0.00132022
0.00137114
0.00140931
0.00143154
0.00143201
0.00140841
0.0013605
0.001294
0.00123807
0.00118795
0.00114617
0.00111404
0.00108946
0.00107346
0.0010591
0.0010358
0.00099833
0.000944152
0.000882308
0.000822917
0.000765023
0.000711507
0.000662852
0.000616549
0.000568095
0.000513432
0.000453136
0.000442265
0.000415937
0.000302419
0.00298891
0.00289654
0.00280634
0.00272858
0.00267488
0.00265432
0.00266905
0.00271252
0.00277317
0.0028388
0.00289818
0.00294312
0.00297138
0.00297834
0.00296068
0.00291733
0.00284954
0.00276223
0.00266439
0.0025714
0.00249464
0.00243452
0.0023825
0.00232786
0.00226658
0.00219412
0.00210703
0.00200382
0.0018861
0.00176044
0.00163942
0.00153449
0.00143931
0.00134351
0.00123789
0.00111645
0.000977559
0.000822306
0.000662107
0.00047601
0.00389567
0.00381311
0.00373369
0.00366603
0.00362007
0.00360224
0.00361313
0.00364554
0.00368905
0.00373363
0.00377087
0.00379406
0.00380133
0.00378954
0.00375697
0.00370351
0.00363043
0.00354012
0.00343806
0.00333483
0.00324275
0.00316205
0.00308601
0.00300702
0.00291834
0.0028191
0.00270692
0.00258192
0.00244623
0.00230338
0.00216285
0.00202809
0.00189918
0.00176768
0.00162555
0.00146881
0.00129672
0.00111067
0.000909725
0.000683373
0.0045905
0.00451791
0.00444826
0.0043885
0.00434788
0.00433359
0.00434353
0.00436903
0.0043997
0.00442738
0.00444533
0.00444847
0.00443559
0.00440508
0.0043566
0.0042911
0.00421025
0.00411536
0.00400707
0.00389485
0.00379433
0.00370494
0.00361804
0.00352629
0.00342371
0.00330717
0.00317759
0.00303717
0.00288867
0.00273594
0.00258147
0.00242634
0.00226873
0.00210445
0.00193022
0.00174717
0.00155075
0.00133766
0.00110954
0.000869731
0.00519665
0.00512886
0.00506235
0.00500295
0.00496264
0.00495372
0.00496916
0.00499506
0.00501888
0.00503489
0.00503888
0.00502654
0.00499546
0.00494739
0.00488297
0.004804
0.00471288
0.0046113
0.00449886
0.00438117
0.00426895
0.00416836
0.00407465
0.00397938
0.00387283
0.00375056
0.00361272
0.00346261
0.00330541
0.00314473
0.00298116
0.00281347
0.00263765
0.00244789
0.00224245
0.00202308
0.00178748
0.00153875
0.00128137
0.00102655
0.00576815
0.00570332
0.00563879
0.00557927
0.00553723
0.00552385
0.00553778
0.00556593
0.00559083
0.00560343
0.00560001
0.00557636
0.00553121
0.00546785
0.00538969
0.00529935
0.00519942
0.00509171
0.00497602
0.00485394
0.00473192
0.00461832
0.00451647
0.00442321
0.00432487
0.00420626
0.00406604
0.00391368
0.00375721
0.00359963
0.00344009
0.00327571
0.0030952
0.00288247
0.00263842
0.00236911
0.00208341
0.00178742
0.00148299
0.00119762
0.00633455
0.00627531
0.00621684
0.00616105
0.00611571
0.00609147
0.00609296
0.00611656
0.00614564
0.00616254
0.00615794
0.00612771
0.00607357
0.00599995
0.00591382
0.00581838
0.00571554
0.0056062
0.00549008
0.00536672
0.00524069
0.00512021
0.00501281
0.00492238
0.00484033
0.00473272
0.00459324
0.00444168
0.00429728
0.00416625
0.00403736
0.00389775
0.00373312
0.00351514
0.00323299
0.00289583
0.00254124
0.00217032
0.00176548
0.00137789
0.00691329
0.00686169
0.00681199
0.00676356
0.00671862
0.00668517
0.00667241
0.00668464
0.00671406
0.00673758
0.00673498
0.00670223
0.00664554
0.00657256
0.00648874
0.00639843
0.00630148
0.00619731
0.00608559
0.00596656
0.00584385
0.00572185
0.00561047
0.00551681
0.00543333
0.00532894
0.00519122
0.00505278
0.00494931
0.00487598
0.00478009
0.004651
0.00450045
0.00433488
0.00407272
0.00368748
0.00325531
0.00281395
0.00226879
0.00140279
0.0075205
0.00747778
0.00743703
0.00739626
0.00735533
0.00731917
0.00729706
0.00729735
0.00732124
0.0073476
0.00734886
0.00732031
0.00727182
0.00721248
0.00714641
0.00707465
0.00699534
0.00690646
0.00680818
0.00670229
0.00659094
0.00647333
0.00634831
0.00621235
0.0060687
0.0059494
0.00584197
0.00574833
0.00568494
0.00563197
0.00556164
0.00546223
0.00531916
0.00511744
0.00483227
0.00443651
0.00392341
0.00335202
0.00268732
0.00146738
0.00817459
0.00814311
0.00811353
0.00808306
0.00804988
0.00801621
0.00799015
0.00798018
0.0079862
0.00800826
0.0080219
0.0080114
0.00798574
0.00795423
0.00791901
0.00787717
0.00782528
0.00776005
0.00768229
0.00759496
0.00749965
0.00739148
0.0072561
0.00709192
0.0069192
0.00678326
0.00669949
0.00665084
0.00661502
0.00657178
0.00650191
0.00638169
0.00619037
0.00590689
0.00551642
0.0050126
0.00438549
0.00362707
0.00270771
0.00141661
0.00889149
0.00887472
0.00885977
0.00884413
0.00882534
0.00880277
0.00878113
0.00876841
0.00876595
0.00878494
0.00881329
0.00882694
0.00882863
0.00882833
0.00882655
0.00881956
0.00880085
0.00876367
0.00870882
0.00864219
0.00856637
0.00847646
0.00835508
0.00820417
0.00804792
0.00792032
0.00783445
0.00778692
0.00775904
0.00772371
0.00766155
0.00754341
0.00733797
0.00701626
0.00654895
0.00592146
0.00512691
0.00414698
0.00294964
0.00141832
0.00968659
0.00968907
0.00969248
0.00969525
0.00969656
0.00969466
0.00968992
0.0096905
0.00970455
0.00973048
0.00976515
0.00979474
0.00981736
0.00983968
0.00986129
0.00987924
0.00988631
0.00987629
0.00985052
0.00981623
0.009774
0.00971768
0.00963323
0.00952393
0.00940464
0.0092955
0.00919896
0.00912167
0.00906891
0.00902265
0.0089544
0.00883986
0.00865062
0.00834877
0.00788974
0.00723836
0.00636039
0.00521379
0.00370875
0.00158662
0.0105783
0.0106059
0.0106337
0.0106602
0.0106851
0.0107081
0.0107306
0.0107591
0.0107964
0.0108337
0.0108744
0.010915
0.0109532
0.0109899
0.0110242
0.0110541
0.011074
0.0110832
0.0110886
0.0110909
0.0110865
0.011069
0.0110277
0.0109621
0.0108758
0.0107785
0.010679
0.0105841
0.010499
0.0104191
0.0103283
0.0102038
0.0100167
0.00973525
0.00932016
0.00872452
0.00788702
0.0067189
0.00508635
0.00226005
0.0115786
0.0116363
0.0116928
0.0117471
0.0117992
0.0118499
0.0119009
0.0119545
0.0120121
0.0120715
0.0121324
0.0121913
0.012247
0.012298
0.0123437
0.0123838
0.0124168
0.0124436
0.0124698
0.0124942
0.0125131
0.0125202
0.0125089
0.0124765
0.0124208
0.0123406
0.0122416
0.0121312
0.0120145
0.0118913
0.0117538
0.011587
0.0113693
0.0110724
0.0106595
0.0100839
0.00928237
0.00815638
0.00646543
0.00304563
0.0127079
0.0127996
0.0128893
0.0129763
0.0130611
0.0131448
0.0132288
0.0133141
0.0134
0.0134863
0.0135706
0.0136512
0.0137272
0.0137966
0.0138583
0.0139133
0.013963
0.0140083
0.0140503
0.0140883
0.014119
0.0141381
0.0141397
0.0141189
0.0140708
0.0139908
0.013879
0.0137415
0.0135842
0.0134092
0.0132136
0.0129887
0.0127195
0.0123836
0.0119488
0.0113701
0.0105798
0.00945588
0.00767417
0.0037898
0.0139964
0.0141278
0.0142575
0.0143845
0.0145089
0.0146316
0.0147535
0.0148745
0.0149938
0.0151098
0.0152208
0.0153257
0.0154237
0.0155138
0.0155951
0.0156685
0.0157361
0.0157989
0.0158572
0.0159074
0.0159449
0.0159643
0.0159621
0.0159325
0.0158657
0.0157563
0.0156065
0.015421
0.0152058
0.0149642
0.014697
0.0144006
0.0140654
0.0136739
0.0131977
0.012592
0.0117817
0.0106225
0.00873309
0.00446847
0.015479
0.0156566
0.0158331
0.0160066
0.0161766
0.0163429
0.0165056
0.0166645
0.0168187
0.0169669
0.0171079
0.0172403
0.0173634
0.0174769
0.017581
0.0176758
0.0177626
0.0178424
0.0179129
0.0179681
0.0180034
0.0180126
0.0179895
0.0179255
0.0178139
0.017654
0.017445
0.0171882
0.0168882
0.0165547
0.0161941
0.0158064
0.0153866
0.0149217
0.014387
0.0137372
0.0128887
0.0116733
0.00965689
0.00504225
0.0171857
0.0174161
0.0176454
0.0178711
0.0180913
0.0183048
0.0185109
0.0187097
0.0189012
0.0190847
0.019259
0.0194223
0.0195742
0.0197163
0.0198483
0.0199671
0.0200725
0.0201659
0.0202441
0.0202978
0.0203159
0.0202951
0.0202297
0.0201115
0.0199352
0.019697
0.0193963
0.0190362
0.0186241
0.0181694
0.0176856
0.0171788
0.0166479
0.0160845
0.0154681
0.014755
0.0138559
0.0125832
0.0104541
0.00556025
0.0191428
0.0194319
0.0197192
0.0200024
0.0202781
0.0205435
0.0207974
0.0210409
0.0212754
0.0215008
0.0217144
0.0219132
0.0220985
0.0222743
0.022438
0.0225808
0.0227005
0.0228
0.022871
0.0229041
0.0228907
0.0228266
0.0227056
0.0225197
0.0222588
0.021913
0.0214804
0.0209704
0.0203991
0.0197842
0.0191401
0.0184806
0.0178059
0.0171106
0.0163801
0.0155764
0.0146096
0.0132773
0.0110492
0.00595802
0.0213759
0.0217273
0.0220755
0.022421
0.022759
0.0230844
0.0233965
0.0236979
0.02399
0.0242688
0.0245299
0.024771
0.024995
0.0252083
0.0254057
0.0255711
0.0256939
0.0257744
0.0258153
0.0258103
0.0257523
0.0256318
0.0254402
0.0251703
0.0248023
0.0243101
0.0236897
0.0229664
0.022177
0.0213544
0.0205191
0.0196787
0.0188282
0.0179592
0.0170635
0.0161176
0.0150425
0.0136264
0.0112922
0.00610681
0.0239109
0.0243258
0.0247316
0.0251387
0.0255468
0.0259458
0.0263385
0.0267281
0.0271048
0.027454
0.0277676
0.0280535
0.0283192
0.0285681
0.0287964
0.0289819
0.0290857
0.0291054
0.0290825
0.0290306
0.0289238
0.0287313
0.0284483
0.0280773
0.0275731
0.0268701
0.0259749
0.0249575
0.0238917
0.0228301
0.0217959
0.020776
0.0197337
0.0186375
0.0174833
0.0162841
0.0150041
0.0134376
0.0109525
0.0057748
0.0267424
0.0272313
0.0277077
0.0281877
0.0286818
0.0291847
0.0296914
0.0302048
0.0306977
0.0311318
0.031493
0.0318099
0.0321012
0.0323633
0.0326072
0.032806
0.0328446
0.0327317
0.0326142
0.0325214
0.0323607
0.0320662
0.0316712
0.0311822
0.0304638
0.0294229
0.0281729
0.02683
0.0254803
0.0241979
0.0230053
0.0218428
0.0206079
0.0192036
0.0176224
0.0159749
0.0142863
0.0123701
0.00971182
0.00516235
0.0298384
0.0304483
0.0310474
0.0316502
0.0322602
0.0328897
0.0335304
0.0341719
0.0347894
0.0353093
0.0356995
0.0360054
0.0362762
0.0364999
0.0366804
0.0367963
0.0367145
0.0364582
0.0362272
0.0360571
0.0358077
0.0353844
0.0348391
0.0341198
0.0330219
0.0315862
0.0300231
0.0284378
0.0269064
0.0254934
0.0242005
0.0228752
0.0213211
0.0194383
0.0173225
0.0152116
0.0131043
0.0109656
0.00835285
0.00431716
0.033303
0.0340843
0.0348668
0.0356373
0.0363899
0.0371271
0.0378499
0.0385666
0.0392544
0.0398364
0.0402222
0.0404194
0.0405316
0.0406067
0.0406281
0.0405564
0.0402943
0.0398365
0.0393929
0.0390649
0.0386875
0.0380864
0.0372512
0.0361074
0.034606
0.032929
0.031239
0.029618
0.0281575
0.0268313
0.0253977
0.0238593
0.0222586
0.0202699
0.0179492
0.0155764
0.0129373
0.0100262
0.00730977
0.0035291
0.0373358
0.0383394
0.0393181
0.0402491
0.0411119
0.0418938
0.0426174
0.0432988
0.0439013
0.0443715
0.0446321
0.0446575
0.0445227
0.0443137
0.04404
0.0436603
0.043144
0.0425031
0.0418394
0.0412687
0.040678
0.0397346
0.038396
0.0367904
0.0350314
0.0332645
0.03161
0.0301565
0.0290005
0.0281615
0.0271803
0.0255959
0.0238156
0.0218889
0.0197124
0.0175459
0.0151708
0.0124636
0.00988073
0.00478683
0.0420299
0.0432446
0.0443804
0.0454101
0.0463104
0.0470419
0.0476187
0.0481017
0.0484625
0.0486742
0.0487112
0.0485202
0.0481006
0.0475319
0.0468932
0.0461768
0.0454113
0.0446556
0.0438475
0.0429711
0.0419225
0.0404574
0.0387019
0.0368149
0.0349048
0.0331359
0.031618
0.0303843
0.0294805
0.0289285
0.0285741
0.0279864
0.026644
0.0247747
0.0226756
0.0206682
0.0186277
0.0158462
0.0119382
0.00604528
0.0473459
0.0486983
0.0498955
0.0508954
0.0516736
0.0522321
0.052601
0.0528153
0.0528642
0.0527337
0.0524089
0.0518633
0.0511083
0.050194
0.049196
0.0481597
0.0471455
0.0462075
0.0452121
0.0439851
0.0424845
0.040735
0.0388188
0.0368705
0.0350465
0.0334932
0.0322615
0.031332
0.0307441
0.0305352
0.0305748
0.0304423
0.0295803
0.0276985
0.025036
0.0221091
0.0189103
0.015233
0.010825
0.00455313
0.0532579
0.0545976
0.0556957
0.0565194
0.0570649
0.0573577
0.0574249
0.0572769
0.0569101
0.0563243
0.055529
0.0545397
0.0533889
0.052116
0.0507716
0.049404
0.0481017
0.0469343
0.0457658
0.0443275
0.0425942
0.0407646
0.038955
0.0372597
0.0357857
0.0346014
0.0336822
0.0329546
0.0324052
0.0321036
0.0320811
0.0320159
0.0314053
0.0298876
0.0274728
0.0243471
0.0205121
0.0159604
0.010875
0.00423804
0.0597013
0.0608401
0.061653
0.0621407
0.0623251
0.0622353
0.061885
0.0612673
0.060377
0.0592372
0.0578974
0.0564141
0.0548338
0.0531999
0.0515772
0.0499972
0.0484933
0.0471297
0.0458107
0.0443134
0.0426585
0.0410436
0.0395649
0.038261
0.0371603
0.036261
0.0355113
0.0348442
0.034245
0.0337463
0.0333091
0.0327802
0.031987
0.0307524
0.0288419
0.0261468
0.0225693
0.0179449
0.0122844
0.00443931
0.066564
0.0672813
0.0675939
0.0675518
0.0672122
0.0666139
0.065757
0.0646039
0.0631188
0.0613504
0.0594163
0.0574259
0.0554665
0.0535662
0.0517467
0.0500905
0.0486263
0.0473233
0.0460543
0.0447302
0.0434313
0.0422289
0.0411586
0.0402218
0.0394001
0.0386569
0.0379448
0.0372286
0.0365012
0.0357606
0.0349892
0.0341593
0.0331775
0.0319029
0.0301698
0.0278358
0.0247481
0.0207145
0.0150271
0.00553858
0.073711
0.0737628
0.0733351
0.072545
0.0715058
0.0702928
0.0688878
0.0671455
0.0649775
0.0625497
0.0600694
0.0576826
0.0554905
0.0535322
0.0518216
0.0503803
0.0491607
0.0481095
0.0471527
0.0462308
0.0453726
0.0445916
0.0438849
0.0432301
0.0425945
0.04194
0.0412335
0.0404578
0.039614
0.0387114
0.0377606
0.0367533
0.0356298
0.0342853
0.0325926
0.0304013
0.0275158
0.0235894
0.0177421
0.00687889
0.0810603
0.0802099
0.0788072
0.0770519
0.0751185
0.0731162
0.0710504
0.0686529
0.0658576
0.0629743
0.0602306
0.0577458
0.0556086
0.0538497
0.052441
0.0513539
0.0505242
0.0498666
0.0493127
0.0488247
0.0483762
0.0479548
0.0475398
0.047105
0.0466195
0.0460493
0.0453645
0.0445489
0.0436075
0.0425686
0.041471
0.0403341
0.039122
0.0377317
0.0360056
0.0337506
0.0307333
0.0266068
0.0206378
0.00865854
0.0886453
0.0867157
0.084151
0.0812124
0.0781464
0.0750487
0.0720042
0.0691009
0.0662807
0.0634239
0.0607453
0.0584163
0.0565142
0.0550545
0.0539908
0.0532601
0.0527874
0.0524956
0.0523205
0.0522131
0.0521025
0.051964
0.0517792
0.0515331
0.0512067
0.0507715
0.0501891
0.0494199
0.048447
0.0473031
0.0460662
0.0448093
0.043529
0.0421049
0.0403177
0.0378812
0.0344717
0.029746
0.0232175
0.0107654
0.0965834
0.0934413
0.0895593
0.0852447
0.0808641
0.0767375
0.0730788
0.069943
0.0671732
0.0646024
0.0622645
0.0602636
0.0586683
0.0574824
0.0566649
0.056169
0.055934
0.0558948
0.0559849
0.0561159
0.0562059
0.0562279
0.0561797
0.0560712
0.0559102
0.0556906
0.0553763
0.0548819
0.0540936
0.0529752
0.0516366
0.0502421
0.0488831
0.0474554
0.0456713
0.043116
0.0393133
0.0338211
0.0262867
0.0133544
0.104907
0.100275
0.0948449
0.0892238
0.0839132
0.0793005
0.0755279
0.0725089
0.0699722
0.0677399
0.0657768
0.0640753
0.0626402
0.0615118
0.0607147
0.0602334
0.0600269
0.0600414
0.0601976
0.0603608
0.0604469
0.0604295
0.0603394
0.060225
0.0601368
0.0601187
0.060188
0.0602877
0.0601652
0.05946
0.0582014
0.0566903
0.0552071
0.0537767
0.052058
0.0494579
0.0452632
0.0388798
0.0298709
0.016149
0.113338
0.106921
0.100078
0.0935576
0.087858
0.0832353
0.0796924
0.0770671
0.0750573
0.0733984
0.0719326
0.0704778
0.0690021
0.0676519
0.0665594
0.065768
0.0652776
0.0650525
0.0649986
0.0649448
0.0647693
0.0644509
0.064059
0.0636941
0.0634514
0.0634206
0.0636838
0.0643215
0.0653691
0.0662742
0.0655171
0.0637828
0.0623769
0.0612502
0.0597924
0.0571204
0.0523458
0.0448746
0.0341114
0.0189309
0.121816
0.113779
0.105975
0.099033
0.0932507
0.0887121
0.0853465
0.0829896
0.0814102
0.0803603
0.0796001
0.0788911
0.0779445
0.076479
0.0747068
0.073148
0.0719966
0.0712437
0.0707219
0.0701593
0.0693831
0.0684277
0.0674348
0.0665635
0.0659287
0.0656167
0.0657107
0.0663172
0.0676354
0.0699084
0.0721497
0.0710013
0.0688864
0.0685954
0.068847
0.0666811
0.0607982
0.0516152
0.0389055
0.021475
0.130875
0.121781
0.113467
0.106298
0.100399
0.0957608
0.0922987
0.0898939
0.0884005
0.0876412
0.0873894
0.0873759
0.087377
0.0870375
0.0852411
0.0824686
0.0803079
0.0789165
0.0778061
0.0764053
0.0745877
0.0725871
0.0707073
0.0691566
0.0680113
0.0672917
0.0670103
0.0671983
0.0679286
0.0693237
0.0714588
0.0737864
0.0739429
0.0727841
0.0738323
0.0756831
0.0701589
0.0584495
0.0436574
0.023568
0.141335
0.131642
0.12302
0.115617
0.109442
0.104442
0.100554
0.0977153
0.0958423
0.0947738
0.094259
0.0940139
0.0938018
0.0935768
0.0933373
0.0922119
0.0888514
0.0870044
0.0858818
0.0836928
0.0801294
0.0766158
0.0737451
0.0715547
0.069967
0.0688966
0.068268
0.0680319
0.0681767
0.0687338
0.0697663
0.0713321
0.0734529
0.0750905
0.0750694
0.0773196
0.0757214
0.0636793
0.04733
0.0250257
0.153205
0.143316
0.13451
0.126823
0.120223
0.114666
0.11012
0.106569
0.103974
0.102157
0.100784
0.0995817
0.0984201
0.0973597
0.0966547
0.0964546
0.094555
0.091998
0.0912675
0.0893746
0.0843162
0.0796257
0.0761387
0.0736102
0.0718185
0.070587
0.0697673
0.0692432
0.0689528
0.0689048
0.0691633
0.069825
0.0710199
0.0728704
0.0742808
0.0745615
0.0745307
0.0653048
0.0489846
0.0258243
0.165803
0.155965
0.14705
0.139061
0.131995
0.125852
0.120631
0.116341
0.113006
0.110445
0.108014
0.105447
0.102921
0.100694
0.0990554
0.0982739
0.097435
0.0955266
0.0946447
0.0913419
0.0856032
0.0810492
0.0776701
0.0752314
0.0735241
0.0723637
0.0715566
0.070905
0.0702892
0.0697456
0.0693706
0.0692525
0.069462
0.0700728
0.0710848
0.0709549
0.0705278
0.0639646
0.0489025
0.0260236
0.177742
0.16813
0.159269
0.151134
0.143755
0.137164
0.131399
0.126472
0.122412
0.119181
0.115954
0.111769
0.107582
0.103936
0.10117
0.0994714
0.0982643
0.0969832
0.0953681
0.0906743
0.0854458
0.0814861
0.0785492
0.0764474
0.0750342
0.0741656
0.0736264
0.0730329
0.0721247
0.0711174
0.0702039
0.0694641
0.0689104
0.0685124
0.0682053
0.0677258
0.0663106
0.0608995
0.0479021
0.0259561
0.186924
0.178227
0.169922
0.162059
0.15468
0.147874
0.141764
0.136391
0.131776
0.127766
0.123154
0.117283
0.111498
0.106479
0.102466
0.0994854
0.0970612
0.0952927
0.0919497
0.0877871
0.0841527
0.0812025
0.0789302
0.0773088
0.0763106
0.0759032
0.0759428
0.075605
0.074314
0.0728097
0.0714523
0.0702722
0.0692197
0.0682098
0.0671444
0.0658971
0.0638272
0.0589089
0.0471513
0.0258222
0.193031
0.185853
0.178536
0.171249
0.163934
0.156786
0.150256
0.144395
0.139135
0.134285
0.128513
0.121119
0.113783
0.107521
0.102314
0.0981873
0.0949044
0.0917024
0.0885914
0.0856443
0.0830349
0.080861
0.0791824
0.0780315
0.0774402
0.0774511
0.0778996
0.0777505
0.0765196
0.0745848
0.0729174
0.0714768
0.0701283
0.0687267
0.0671142
0.0651184
0.0625968
0.0578063
0.0463353
0.0253905
0.191045
0.187175
0.182566
0.176512
0.169062
0.16185
0.155271
0.149105
0.143158
0.136455
0.128547
0.120268
0.112571
0.106057
0.10069
0.0962168
0.0924985