/*--------------------------------*- C++ -*----------------------------------*\
  =========                 |
  \\      /  F ield         | OpenFOAM: The Open Source CFD Toolbox
   \\    /   O peration     | Website:  https://openfoam.org
    \\  /    A nd           | Version:  8
     \\/     M anipulation  |
\*---------------------------------------------------------------------------*/
FoamFile
{
    version     2.0;
    format      ascii;
    class       volScalarField;
    location    "3.6";
    object      p;
}
// * * * * * * * * * * * * * * * * * * * * * * * * * * * * * * * * * * * * * //

dimensions      [1 -1 -2 0 0 0 0];

internalField   nonuniform List<scalar> 
9150
(
387.721
360.676
335.229
318.024
309.718
309.707
317.993
335.186
360.629
387.678
358.869
339.256
323.653
311.835
305.862
305.854
311.814
323.621
339.218
358.83
329.581
315.949
307.472
299.69
295.595
295.589
299.674
307.447
315.918
329.547
304.89
294.776
289.384
283.993
281.033
281.028
283.98
289.363
294.75
304.859
283.627
274.562
270.079
265.884
263.438
263.434
265.871
270.059
274.538
283.598
20.7162
17.2678
42.1754
56.1689
62.7568
62.6251
55.7824
41.5917
16.4594
19.6049
190.769
166.881
161.464
160.164
160.271
160.198
159.954
161.141
166.463
190.348
294.899
263.949
248.14
238.224
233.576
233.534
238.106
247.963
263.741
294.707
375.464
333.675
306.063
288.683
280.18
280.155
288.614
305.964
333.566
375.374
427.362
374.013
335.401
313.329
303.179
303.163
313.284
335.339
373.949
427.316
-59.3884
-22.2908
-35.0903
-27.233
-31.5192
-33.1796
-28.11
-37.69
-28.9539
-71.8616
-52.1958
-35.8471
-54.3912
-47.5219
-52.0779
-53.4159
-47.8604
-59.2997
-40.0872
-61.2863
-94.0544
-64.9614
-97.9755
-89.7548
-87.5341
-88.1732
-90.1087
-101.483
-68.3697
-99.8445
-273.428
-149.654
-135.677
-116.484
-100.407
-100.671
-117.456
-138.235
-151.426
-278.164
-425.938
-182.494
-87.936
-57.8978
-42.0019
-42.2
-58.5992
-89.1028
-183.776
-429.292
1843.27
1843.07
1842.87
1842.67
1842.47
1842.28
1842.1
1841.94
1841.79
1841.66
1823.56
1823.36
1823.16
1822.96
1822.77
1822.58
1822.41
1822.25
1822.11
1822.01
1803.89
1803.7
1803.51
1803.33
1803.15
1802.99
1802.82
1802.67
1802.55
1802.45
1784.28
1784.1
1783.92
1783.75
1783.58
1783.42
1783.26
1783.11
1782.98
1782.86
1764.69
1764.53
1764.36
1764.2
1764.05
1763.9
1763.76
1763.63
1763.5
1763.37
1745.12
1744.97
1744.82
1744.69
1744.56
1744.45
1744.35
1744.27
1744.2
1744.16
1725.53
1725.4
1725.27
1725.15
1725.06
1724.98
1724.92
1724.88
1724.87
1724.89
1705.93
1705.8
1705.68
1705.57
1705.5
1705.45
1705.42
1705.43
1705.47
1705.54
1686.31
1686.16
1686.01
1685.9
1685.82
1685.79
1685.81
1685.85
1685.92
1686
1666.69
1666.48
1666.26
1666.07
1665.97
1665.98
1666.15
1666.3
1666.32
1666.44
1647.08
1646.76
1646.37
1645.86
1645.53
1645.78
1646.2
1646.5
1646.72
1646.89
1627.67
1627.26
1626.67
1626.38
1632.92
1625.97
1626.44
1626.96
1627.31
1627.58
1608.71
1608.35
1609.16
1610.9
1611.4
1610.31
1608.88
1608.42
1608.58
1608.71
1590.16
1590.31
1592.7
1593.2
1593.14
1592.9
1592.53
1590.25
1589.72
1589.72
1571.32
1571.66
1572.6
1574.99
1575.57
1575.73
1575.24
1572.34
1571.09
1570.8
1551.86
1552.13
1552.61
1553.48
1554.14
1559.33
1554.82
1552
1551.43
1551.18
1531.84
1531.9
1532.02
1532.13
1532.09
1531.9
1531.78
1531.49
1531.32
1531.21
1511.65
1511.58
1511.54
1511.49
1511.42
1511.34
1511.23
1511.14
1511.07
1511.05
1491.33
1491.15
1491
1490.9
1490.82
1490.76
1490.71
1490.68
1490.68
1490.71
1470.88
1470.57
1470.33
1470.19
1470.14
1470.13
1470.1
1470.08
1470.12
1470.21
1450.29
1449.83
1449.44
1449.31
1449.4
1449.51
1449.47
1449.38
1449.4
1449.53
1429.56
1428.69
1427.76
1427.26
1428.09
1429.07
1428.56
1427.65
1427.95
1429.02
1408.92
1407.28
1407.84
1410.7
1409.5
1411.06
1410.65
1412.7
1415.17
1415.89
1390.74
1391.01
1395.12
1395.58
1394.91
1394.9
1396.33
1398.85
1401.62
1402.76
1375.05
1376.13
1378.83
1379.51
1379.98
1380.45
1381.11
1381.4
1380.89
1380.83
1358.5
1357.11
1363.46
1364.98
1365.49
1366.54
1366.94
1364.03
1364.25
1363.32
1337.76
1341.41
1344.18
1344.78
1345.31
1345.05
1344.21
1342.82
1342.69
1342.55
1319.93
1320.8
1322.73
1323.2
1323.41
1323.1
1322.42
1321.91
1321.66
1321.55
1300.48
1300.91
1301.08
1301.07
1300.91
1300.69
1300.34
1300.05
1299.85
1299.74
1280.92
1280.38
1279.95
1279.55
1279.15
1278.74
1278.33
1277.96
1277.66
1277.42
1260.01
1259.31
1258.64
1258.02
1257.41
1256.81
1256.23
1255.69
1255.18
1254.69
1239.79
1238.4
1237.47
1236.57
1235.71
1234.89
1234.1
1233.32
1232.54
1231.73
1218.67
1217.4
1216.32
1215.14
1214.03
1212.97
1211.96
1210.97
1209.95
1208.87
1197.54
1196.37
1195.11
1193.74
1192.28
1190.8
1189.74
1188.7
1187.58
1186.29
1176.89
1175.71
1174.36
1173.2
1170.7
1168.52
1166.97
1166.06
1164.81
1163.59
1156.92
1155.72
1154.8
1155.9
1166.59
1145.12
1144.89
1144.66
1144.1
1145.46
1137.54
1136.46
1134.79
1143.96
1142.86
1126.83
1128.71
1126.28
1122.48
1124.6
1118.26
1117.1
1115.04
1133.11
1116.18
1115.1
1119.09
1107.38
1123.09
1096.93
1100.05
1098.44
1100.76
1103.74
1085.92
1104.7
1094.89
1102.91
1098.09
1077.63
1079.16
1079.97
1086.6
1075.78
1080.24
1085.09
1068.28
1093.05
1061.59
1055.3
1049.19
1077.44
1061.23
1067.22
1070.59
1060.85
1043.62
1054.86
1022.5
1028.5
1036.53
1050.83
1030.11
1055.77
1061.75
1031.6
1022.4
1021.85
1011.27
1021.37
1024.3
1024.02
1014.58
1038.36
1032.07
1013.07
1012.21
1012.82
1011.55
1016.68
1012.43
1012.61
1011.34
1011.92
1011.54
1010.39
1010.36
1010.48
1010.36
1010.76
1009.78
1010.12
1010.07
1010.23
1010.27
1010.26
1010.37
1010.51
1010.61
1010.77
1009.04
1009.55
1009.51
1009.51
1009.63
1009.82
1010.03
1010.27
1010.55
1010.97
1008.06
1009.07
1009.11
1009.17
1009.33
1009.57
1009.81
1009.99
1010.09
1010.24
1000.25
1007.04
1008.07
1008.22
1008.26
1008.32
1008.35
1008.3
1008.19
1007.54
973.383
990.386
1000.27
1002.91
1002.2
1000.38
998.196
994.942
991.191
986.738
938.772
945.575
953.903
959.199
961.969
962.262
961.297
959.309
957.055
955.074
910.405
912.006
914.583
918.743
923.44
927.122
930.391
932.755
933.468
933.278
877.532
870.964
870.884
879.814
891.343
899.416
904.816
908.595
910.943
913.645
862.915
860.428
861.802
862.476
868.469
878.208
884.106
887.296
889.581
891.616
862.712
863.201
863.288
864.556
863.683
868.89
871.907
872.341
872.952
873.894
862.158
862.347
862.772
860.855
857.79
857.056
856.946
856.55
856.688
857.233
857.286
854.181
849.786
845.428
842.539
841.15
840.434
840.177
840.293
840.7
836.002
831.757
828.033
825.475
824.194
823.621
823.362
823.35
823.574
824.013
807.352
806.602
806.177
805.926
805.753
805.689
805.776
806.033
806.463
807.056
784.522
785.069
785.51
785.893
786.294
786.765
787.335
788.007
788.779
789.644
761.497
762.572
763.637
764.717
765.83
766.98
768.17
769.394
770.644
771.91
737.606
739.287
741.034
742.835
744.686
746.569
748.466
750.353
752.204
753.989
713.282
715.476
717.827
720.313
722.91
725.577
728.267
730.919
733.475
735.872
688.252
690.872
693.777
696.939
700.316
703.838
707.408
710.912
714.237
717.268
662.146
665.082
668.471
672.285
676.465
680.897
685.405
689.781
693.871
697.589
634.525
637.567
641.262
645.61
650.545
655.886
661.353
666.696
671.96
677.148
604.797
607.522
611.129
615.68
621.15
627.439
634.437
641.834
649.032
655.48
572.306
573.935
576.569
580.397
585.841
594.065
605.188
615.461
626.974
634.141
536.832
535.995
535.757
536.685
541.482
553.707
573.317
588.187
594.208
599.569
499.75
494.744
488.759
483.653
490.216
522.785
534.8
544.055
556.667
561.522
465.315
455.694
443.2
435.992
464.642
471.582
488.79
505.579
512.997
515.983
440.182
429.21
416.723
416.783
430.909
420.416
447.285
470.216
476.204
474.001
423.624
414.001
405.087
404.235
404.47
406.217
420.652
439.712
445.583
436.632
411.66
403.759
397.55
396.242
396.052
398.042
402.851
409.326
411.367
399.132
401.046
393.735
388.341
386.995
386.76
389.058
390.616
387.267
378.5
363.454
391.761
384.628
379.292
378.795
378.921
378.068
375.711
365.263
349.783
332.596
383.566
376.933
371.463
373.108
373.446
368.513
356.756
341.586
324.212
305.683
375.42
371.175
370.432
370.103
366.033
355.648
339.085
320.864
301.623
281.441
364.719
361.869
372.483
369.367
359.131
340.725
321.173
301.467
280.643
258.816
361.025
366.31
369.657
360.503
343.455
324.207
304.294
283.213
261.089
238.286
353.357
362.882
360.309
349.297
327.262
306.38
285.947
264.298
241.71
218.749
348.157
353.147
338.368
322.442
305.544
286.715
265.962
243.804
220.873
197.717
339.188
335.257
324.124
304.895
285.858
265.981
244.334
221.198
197.226
173.001
326.335
305.137
291.459
278.511
262.257
243.234
221.873
198.51
173.452
146.491
308.091
287.744
274.68
259.521
242.79
223.975
203.217
181.094
158.044
134.359
293.793
278.777
259.986
241.163
222.545
203.21
182.999
162.455
142.263
123.653
252.33
241.208
225.481
209.558
193.408
176.111
157.592
138.439
119.327
101.041
196.278
199.263
189.557
176.515
162.976
148.123
131.707
114.218
96.0107
76.6877
159.691
162.934
155.446
144.814
133.702
121.365
107.58
92.9608
78.0624
61.9031
128.857
130.563
124.728
116.278
107.152
96.783
85.0804
72.75
60.0827
44.248
104.902
104.645
99.1529
91.9843
84.1852
75.2026
65.0191
54.2171
42.3104
25.1816
84.1027
82.6447
77.6276
71.5469
64.7545
56.8703
47.9638
38.464
27.5851
12.4512
67.9407
64.9461
59.7039
54.3019
48.251
41.302
33.4717
25.0055
15.2737
3.84368
49.2188
46.9706
42.8547
38.6165
33.5735
27.801
21.2198
14.0713
6.2069
-0.643923
29.2882
29.106
26.6424
23.7179
20.0833
15.8941
10.7954
5.21749
-0.507632
-3.27482
6.7141
9.48394
10.4806
9.82873
8.31952
6.0852
2.48909
-1.62463
-5.5985
-4.92133
-19.2666
-8.36388
-1.1078
0.235689
0.0103048
-1.03019
-3.78855
-7.09964
-9.95948
-6.59989
-0.742299
-4.7747
-3.16989
-4.74866
-5.95372
-6.99621
-9.76165
-12.774
-15.9287
-9.48704
-5.61436
-10.8052
-9.48872
-10.5908
-11.5763
-12.4875
-15.5796
-17.3485
-23.4815
-16.0345
-10.7877
-10.6384
-12.9345
-14.2505
-15.9272
-16.799
-18.3135
-14.7914
-19.0524
-29.3388
-25.9408
-2.85406
-16.6215
-18.3858
-21.8689
-23.0323
-20.5852
-14.6825
-3.58291
-44.2422
1841.54
1841.44
1841.36
1841.28
1841.2
1841.11
1841
1840.89
1840.79
1840.71
1840.63
1840.55
1840.53
1840.44
1840.38
1840.31
1840.25
1840.2
1840.16
1840.13
1840.09
1840.06
1840.03
1840
1839.97
1839.92
1839.87
1839.81
1839.77
1839.73
1839.7
1839.69
1839.7
1839.71
1839.73
1839.76
1839.79
1839.81
1839.82
1839.86
1821.93
1821.89
1821.87
1821.87
1821.84
1821.77
1821.65
1821.5
1821.34
1821.19
1821.07
1820.96
1820.85
1820.75
1820.66
1820.59
1820.54
1820.52
1820.52
1820.53
1820.53
1820.5
1820.46
1820.42
1820.37
1820.31
1820.25
1820.19
1820.14
1820.22
1820.38
1820.06
1820.12
1820.14
1820.16
1820.18
1820.21
1820.24
1820.26
1820.28
1802.37
1802.31
1802.28
1802.25
1802.22
1802.16
1802.07
1801.95
1801.81
1801.69
1801.54
1801.4
1801.29
1801.18
1801.08
1800.99
1800.93
1800.87
1800.81
1800.78
1800.84
1800.91
1800.93
1800.91
1800.88
1800.85
1800.82
1800.85
1801.24
1801.28
1801.26
1801.18
1801.01
1800.65
1800.61
1800.64
1800.67
1800.68
1800.68
1800.7
1782.73
1782.6
1782.46
1782.3
1782.17
1782.25
1782.31
1782.31
1782.23
1782.13
1782.03
1781.92
1781.82
1781.73
1781.64
1781.56
1781.49
1781.41
1782.2
1782.52
1782.22
1781.64
1781.6
1781.54
1781.5
1781.47
1781.45
1781.44
1781.74
1782
1781.91
1781.59
1781.64
1781.56
1781.55
1781.41
1781.19
1781.18
1781.18
1781.18
1763.23
1763.08
1763.45
1764.55
1764.76
1763.98
1763.19
1762.85
1762.78
1762.71
1762.62
1762.54
1762.46
1762.39
1762.34
1762.3
1762.29
1762.51
1763.2
1763.12
1762.96
1762.71
1762.37
1762.07
1762.08
1762.09
1762.08
1762.05
1762.06
1762.1
1762.15
1762.33
1762.32
1761.97
1762.19
1762.15
1762.12
1762.2
1762.22
1762.18
1744.17
1744.53
1745.78
1745.83
1745.72
1745.51
1745.25
1744.31
1743.48
1743.37
1743.28
1743.2
1743.14
1743.1
1743.08
1743.08
1743.14
1743.27
1743.41
1743.75
1743.78
1743.75
1743.62
1743.07
1742.7
1742.74
1742.66
1742.62
1742.58
1742.65
1742.69
1742.72
1742.77
1742.68
1742.51
1742.36
1742.55
1742.59
1742.58
1742.6
1724.97
1725.28
1725.79
1726.46
1726.69
1726.71
1726.45
1725.39
1724.33
1724.09
1723.95
1723.86
1723.8
1723.77
1723.75
1723.75
1723.79
1723.84
1723.92
1724.02
1723.89
1723.86
1724.06
1723.31
1723.42
1723.37
1723.3
1723.15
1722.98
1722.93
1723.16
1723.34
1723.13
1722.96
1722.65
1722.62
1722.92
1723.15
1723.22
1723.22
1705.67
1705.9
1706.23
1706.52
1706.54
1708.45
1706.63
1705.2
1704.91
1704.6
1704.48
1704.42
1704.41
1704.39
1704.39
1704.4
1704.42
1704.44
1704.47
1704.48
1704.46
1704.44
1704.33
1704.04
1703.63
1704.02
1704.54
1703.98
1705.13
1705.89
1705.86
1704.88
1705.21
1705.22
1705.42
1704.84
1703.44
1704.06
1703.89
1704.05
1686.11
1686.24
1686.38
1686.45
1686.38
1686.24
1686.17
1685.65
1684.72
1684.49
1684.7
1684.87
1684.96
1685.01
1685.04
1685.05
1685.07
1685.09
1685.1
1685.1
1685.02
1684.8
1684.61
1684.68
1687.33
1685.63
1684.56
1684.19
1684.98
1684.96
1685.22
1685.5
1685.49
1685.37
1685.33
1684.83
1683.93
1684.33
1685.84
1686.04
1666.55
1666.65
1666.73
1666.77
1666.77
1666.84
1666.55
1665.7
1668.65
1667.04
1665.19
1665.33
1665.61
1665.72
1665.77
1665.79
1665.79
1665.82
1665.89
1665.93
1665.92
1666.67
1668.83
1668.86
1668.92
1668.57
1668
1666.41
1666.34
1666.27
1666.38
1666.58
1666.76
1666.95
1667.29
1667.5
1667.16
1668.8
1668.86
1669.03
1647.03
1647.12
1647.15
1647.07
1646.74
1647.15
1649.15
1649.81
1650.46
1650.39
1649.39
1647.03
1646.93
1646.88
1646.82
1646.88
1646.93
1646.81
1646.93
1647.13
1647.35
1648.02
1650.88
1651.41
1651.1
1650.78
1650.34
1648.88
1647.67
1647.47
1647.47
1647.61
1647.83
1648.14
1648.5
1648.88
1649.44
1652.22
1652.19
1652.03
1627.81
1628.01
1628.19
1628.38
1628.62
1630.43
1632.81
1632.8
1632.81
1632.71
1632.33
1629.23
1628.62
1628.3
1628.08
1627.87
1628.78
1628.03
1627.94
1628.33
1628.75
1629.31
1630.25
1631.09
1632.6
1632.97
1632.85
1630.77
1628.88
1628.57
1628.48
1628.59
1628.8
1629.14
1629.61
1630.2
1630.93
1631.81
1632.49
1632.94
1608.84
1609.01
1609.29
1609.56
1609.99
1610.88
1612.25
1614.16
1615.48
1614.72
1612.01
1610.57
1609.99
1609.64
1609.43
1609.33
1609.72
1611.72
1609.09
1609.36
1609.72
1610.17
1610.79
1611.12
1611.2
1611.49
1611.61
1610.07
1609.28
1609.14
1609.11
1609.19
1609.37
1609.68
1610.06
1610.55
1611.12
1611.75
1612.14
1612.22
1589.76
1589.88
1590.08
1590.27
1590.65
1591.15
1591.65
1591.95
1592.2
1591.93
1591.33
1591.02
1590.76
1590.61
1590.54
1590.53
1591.37
1591.52
1591.12
1590.43
1590.57
1590.65
1590.74
1591
1591.11
1590.9
1590.56
1590.17
1589.88
1589.67
1589.55
1589.58
1589.7
1589.91
1590.22
1590.66
1591.08
1591.64
1591.94
1592.34
1570.62
1570.62
1570.69
1570.83
1571.04
1571.3
1571.55
1571.72
1571.81
1571.76
1571.63
1571.47
1571.37
1571.49
1571.69
1571.75
1573.02
1572.96
1572.84
1572.67
1572.62
1572.62
1571.53
1571.08
1571.16
1571.06
1570.7
1570.37
1570.08
1569.87
1569.74
1569.72
1569.77
1569.87
1570.13
1570.42
1570.87
1571.82
1572.13
1573.01
1551.04
1551.02
1551.08
1551.18
1551.31
1551.49
1551.67
1551.82
1551.91
1551.95
1551.91
1551.91
1552.45
1552.22
1552.55
1552.33
1552.86
1553.25
1553.51
1553.67
1554.34
1554.23
1554.09
1554.23
1553.82
1551.77
1550.87
1550.52
1550.19
1549.91
1549.71
1549.59
1549.58
1549.64
1549.83
1550.12
1550.59
1551.64
1552.54
1553.79
1531.15
1531.16
1531.28
1531.4
1531.49
1531.68
1531.88
1532.07
1532.24
1532.4
1532.51
1533.04
1533.16
1533.14
1533.22
1533.34
1533.94
1534.55
1534.42
1534.05
1533.69
1533.52
1533.33
1532.59
1532.91
1531.7
1530.88
1530.52
1530.14
1529.79
1529.52
1529.32
1529.22
1529.23
1529.37
1529.69
1530.25
1531.27
1532.59
1533.8
1511.06
1511.12
1511.23
1511.38
1511.58
1511.83
1512.09
1512.33
1512.57
1512.85
1513.09
1513.36
1513.61
1513.68
1513.95
1514.14
1514.16
1514.34
1514.62
1514.49
1514.22
1513.89
1513.49
1512.99
1512.42
1511.82
1511.25
1510.69
1510.17
1509.68
1509.24
1508.89
1508.69
1508.56
1508.61
1508.82
1509.32
1510.33
1512.05
1513.37
1490.79
1490.91
1491.07
1491.28
1491.56
1491.91
1492.27
1492.57
1492.81
1493.3
1493.62
1494.02
1494.32
1494.54
1494.83
1495.04
1494.87
1496.98
1495.76
1495.05
1494.87
1494.52
1494.06
1493.53
1492.96
1492.35
1491.66
1490.92
1490.17
1489.47
1488.87
1488.4
1488.05
1487.8
1487.66
1487.66
1487.96
1488.79
1490.4
1492.19
1470.34
1470.52
1470.71
1470.96
1471.33
1471.87
1472.61
1473.06
1473.78
1474.58
1474.72
1475.14
1475.19
1475.82
1475.43
1477.25
1475.83
1478.2
1476.06
1476.09
1475.83
1475.4
1474.83
1474.26
1473.76
1473.13
1472.35
1471.35
1470.31
1469.35
1468.56
1467.99
1467.6
1467.25
1466.86
1466.49
1466.45
1467.11
1468.58
1470.67
1449.75
1450.08
1450.22
1450.1
1451.55
1452.48
1453.78
1454.15
1454.51
1455.53
1455.33
1456.36
1456.03
1456.71
1456.4
1457.54
1457.87
1459.11
1457.46
1457.37
1457.08
1456.69
1455.89
1455.22
1455.42
1455.35
1453.76
1452.23
1450.68
1449.31
1448.34
1447.88
1447.77
1447.57
1446.9
1445.82
1445
1445.14
1446.86
1450.03
1428.94
1430.98
1434.47
1436.66
1433.15
1434.12
1434.04
1433.68
1434.79
1436.46
1437.39
1437.21
1437.48
1437.85
1438.26
1446.09
1439.12
1440.44
1438.35
1438.31
1439.72
1440.35
1439.93
1444.16
1441.4
1437.85
1436.06
1433.73
1431.29
1429.2
1428.01
1428.07
1429.18
1430.19
1429.6
1427.75
1429.02
1430.5
1430.26
1432.91
1419.34
1420.55
1414.32
1413.82
1415.01
1415.27
1413.99
1419.44
1419.92
1418.27
1421.41
1418.67
1421.1
1422.53
1423.85
1422.84
1427.61
1427.4
1424.15
1426.18
1426.43
1427.73
1429.61
1430.4
1424.78
1422.08
1419.39
1416.12
1412.22
1408.79
1406.5
1407.01
1411.34
1418.31
1421.17
1416.62
1419.07
1421.4
1421.2
1419.8
1396.71
1396.88
1397.44
1398.01
1396.83
1401.18
1402.65
1403.19
1403.26
1403.16
1402.82
1404.35
1405.92
1406.84
1407.51
1407.74
1407.72
1411.33
1411.26
1410.97
1412.69
1414.04
1414.57
1412.11
1408.19
1406.42
1404.28
1401.26
1397.15
1402.36
1408.58
1407.6
1404.37
1402.33
1408.97
1410.02
1406.46
1408.35
1408.01
1409.4
1380.26
1380.68
1380.97
1380.79
1384.5
1387.39
1387.47
1387.58
1386.51
1388.82
1387.52
1390.44
1391.37
1391.47
1391.82
1392.56
1390.13
1392.69
1396.55
1393.06
1399.28
1400.03
1395.61
1393.95
1392.78
1392.27
1392.29
1392.25
1391.41
1399.68
1400.79
1400.01
1399.74
1399.37
1397.1
1393.11
1392.31
1392.55
1389.72
1393.99
1362.44
1362.19
1362.3
1362.99
1369.2
1371.87
1368.84
1369.6
1370.99
1373.04
1371.76
1374.7
1376.05
1373.54
1373.14
1373.49
1373.11
1372.34
1376.82
1379.95
1378.7
1378.99
1377.82
1376.66
1375.97
1376.09
1377.25
1380.03
1382.51
1384.64
1387.52
1392.28
1393.42
1394.81
1395.67
1396.56
1394.69
1388.46
1381.35
1387.82
1342.47
1342.59
1342.99
1344.13
1345.35
1346.56
1347.77
1349
1350.13
1351.19
1352.02
1352.59
1352.77
1353.54
1355.08
1355.65
1353.94
1357.13
1360.45
1356.01
1358.69
1358.22
1358.21
1358.13
1358.23
1362.3
1365.16
1362.56
1366.5
1369.43
1371.9
1372.72
1371.91
1371.29
1370.44
1369.8
1370.1
1369.64
1366.18
1367.04
1321.55
1321.74
1322.16
1322.83
1323.76
1324.68
1325.56
1326.46
1327.33
1328.15
1328.9
1329.52
1330.02
1330.45
1331.27
1333.48
1334.51
1335.98
1338.06
1333.86
1335.7
1336.73
1337.76
1338.85
1340.98
1344.66
1345.86
1347.2
1348.08
1356.89
1351.98
1355.52
1357.77
1357.87
1357.74
1356.52
1354.22
1353.64
1354.57
1351.2
1299.71
1299.81
1300.05
1300.45
1300.98
1301.59
1302.26
1302.93
1303.55
1304.02
1304.24
1304.16
1304.19
1305.2
1306.25
1311.17
1314.03
1314.93
1314.66
1312.06
1311.16
1312.19
1313.51
1315.24
1317.36
1319.45
1323.09
1327.14
1325.77
1329.19
1333.32
1336.29
1339.26
1340.82
1341.33
1341.28
1341.49
1339.52
1335.63
1333.78
1277.22
1277.09
1277.05
1277.12
1277.32
1277.65
1278.15
1278.66
1278.95
1279.06
1278.78
1278.36
1279.65
1286.02
1288.49
1289.44
1289.92
1289.49
1285.84
1284.18
1283.93
1284.66
1285.79
1287.31
1289.23
1291.39
1293.56
1295.73
1298.69
1302.05
1305.71
1309.84
1314.03
1317.87
1321.35
1323.58
1322.26
1321.51
1321.82
1320.72
1254.18
1253.65
1253.15
1252.67
1252.26
1251.74
1250.97
1251.46
1253.47
1253.32
1253.5
1253.77
1257.26
1262.97
1263.17
1261.07
1260.16
1258.25
1255.72
1254.65
1254.72
1255.4
1256.38
1257.91
1259.77
1261.85
1264.1
1266.61
1269.48
1272.72
1276.4
1280.51
1284.93
1289.47
1293.87
1297.75
1300.84
1302.21
1300.1
1303.68
1230.82
1229.74
1228.44
1226.69
1224.61
1223.36
1229.16
1235.52
1222.91
1224.25
1225.36
1226.32
1227.37
1232.08
1227.83
1226.46
1225.41
1224.51
1223.74
1223.36
1223.82
1224.81
1226.21
1227.93
1229.95
1232.11
1234.36
1236.69
1239.15
1241.86
1245.03
1248.77
1253.12
1257.98
1263.12
1268.13
1272.43
1275.03
1274.54
1271.22
1207.5
1205.42
1202.8
1200
1197.98
1202.42
1204.27
1203.28
1197.65
1196.68
1196.66
1196.12
1196.16
1195.36
1194.06
1192.72
1191.72
1191.09
1190.93
1191.49
1192.6
1194.26
1196.17
1198.34
1200.67
1202.93
1205.09
1206.86
1208.44
1210.09
1212.37
1215.5
1219.46
1224.25
1229.73
1235.58
1241.19
1245.52
1246.63
1243.53
1184.49
1181.97
1179.21
1179.43
1185.07
1184.86
1182.27
1179.41
1175.73
1172.28
1168.43
1165.52
1163.41
1162.95
1161.81
1160.24
1159.07
1158.59
1159.37
1160.49
1162.21
1164.83
1167.51
1170.3
1173.08
1175.63
1177.9
1179.87
1178.9
1177.72
1177.37
1179.21
1182.93
1187.83
1193.74
1200.28
1206.87
1212.66
1215.71
1213.97
1164.06
1165.01
1165.36
1165.11
1165.84
1167.43
1160.67
1160.08
1158.02
1155.2
1152.46
1149.27
1141.46
1138.07
1134.36
1131.46
1130
1130.33
1131.42
1132.82
1134.7
1137.62
1141.19
1144.69
1148.07
1151.2
1153.89
1155.26
1157.16
1149.49
1140.11
1138.68
1141.04
1145.93
1153.55
1162.65
1171.04
1177.87
1182.31
1182.85
1147.07
1147.11
1147.08
1145.84
1151.82
1151.46
1143.25
1144.08
1141.69
1138.03
1134.11
1128.68
1117.23
1112.48
1105.7
1102.58
1101.06
1101.19
1102.31
1104.84
1108.64
1112.6
1117.3
1121.78
1126.13
1130.35
1134.57
1137.19
1135.01
1138.57
1133.47
1127.07
1123.98
1122.18
1122.01
1128.1
1137.71
1145.74
1150.69
1153.62
1126.37
1127.08
1123.99
1121.35
1120.71
1119.7
1116.94
1116.28
1115.15
1112.98
1111.24
1104.6
1097.96
1090.58
1074.13
1074.35
1070.81
1068.92
1073.32
1080.33
1087.1
1092.42
1097.26
1102.25
1107.14
1112.08
1117.3
1122.01
1122.37
1123.35
1123.99
1120.72
1117.97
1116.11
1115.08
1113.97
1115.99
1121.21
1125.84
1130.13
1098.52
1099.01
1097.52
1094.78
1092.44
1090.18
1088.02
1086.26
1085.29
1086.14
1089.01
1089.97
1082.12
1077.77
1070.09
1058.4
1052.59
1054.12
1054.36
1060.79
1070.44
1077.34
1081.86
1085.91
1090.47
1095.27
1100.08
1104.85
1108.45
1110.74
1113.34
1113.02
1111.52
1109.51
1107.75
1106.83
1107.3
1106.91
1109.44
1113.6
1075.08
1074.29
1072.24
1069.34
1066.19
1062.95
1059.87
1057.75
1057.46
1059.87
1064.58
1070.83
1075.21
1070.36
1056.91
1054.87
1051.88
1051.61
1052.74
1056.54
1058.54
1062.31
1068.46
1072.03
1075.96
1080.38
1084.88
1089.42
1093.76
1097.83
1102.07
1104.66
1104.16
1102.85
1101.33
1100.12
1099.16
1097.53
1098.55
1102.39
1052.51
1051.9
1050.04
1046.99
1043.08
1038.16
1032.13
1026.46
1024.25
1028.84
1039.55
1051.31
1061.85
1067.1
1059.54
1051.17
1049.19
1048.72
1048.94
1050.05
1049.79
1049.71
1055.59
1059.22
1062.79
1066.78
1071.09
1075.61
1080.23
1084.92
1089.92
1095.06
1097.86
1096.58
1094.23
1092.83
1091.65
1090.92
1090.85
1094.34
1032.62
1034.53
1033.93
1031.7
1028.04
1023.29
1021.19
1022.01
1022.65
1024.16
1026.89
1035.08
1052.4
1062.58
1054.22
1046.52
1045.39
1045.21
1045.39
1045.74
1044.12
1042.5
1044.99
1047.68
1050.66
1054.11
1058.21
1062.75
1067.29
1071.86
1076.6
1081.48
1086.05
1087.65
1084.61
1086.4
1084.56
1082.67
1082.25
1087.43
1030.03
1031.83
1029.98
1025.87
1022.11
1021.88
1022.43
1022.47
1022.72
1023.5
1025.59
1027.86
1039.07
1063.46
1044.35
1040.47
1040.99
1041.66
1041.94
1040.8
1035.44
1033.38
1034.39
1036.15
1038.05
1040.2
1043.41
1048.34
1053.72
1058.76
1063.34
1068.23
1073.37
1077.98
1078.88
1077.63
1077.36
1074.09
1073.54
1082.3
1025.04
1030.77
1026.95
1021.21
1020.26
1020.49
1021.17
1020.09
1020.26
1021.04
1021.31
1022.29
1040.01
1046.66
1032.96
1035.58
1037.02
1037.82
1037.15
1029.24
1022.46
1022.22
1023.39
1024.3
1024.87
1025.83
1037.03
1047.24
1037.26
1042.88
1048.23
1053.29
1058.18
1062.47
1064.07
1060.5
1072.88
1069.05
1065.05
1073.36
1012.04
1013.3
1015.14
1017.73
1018.45
1018.28
1018.67
1019.6
1019.8
1019.3
1018.97
1018.88
1025.96
1025.44
1028.62
1031.23
1029.39
1026.76
1019.19
1012.95
1011.68
1012.84
1014.2
1015.73
1018.01
1020.85
1031.85
1036.64
1025.53
1028.25
1034.15
1039.81
1045.27
1050.89
1057.04
1062.78
1066.44
1066.18
1037.35
1051.17
1011.26
1012.24
1013.37
1014.14
1015.5
1016.95
1018.03
1018.77
1020.03
1020.02
1019.36
1018.6
1016.65
1015.18
1013.17
1009.22
1008.65
1007.57
1003.48
1002
1002.37
1003.02
1004.96
1008.47
1012.66
1015.65
1019.26
1020.09
1019.57
1017.88
1022.05
1026.78
1031.44
1036.26
1041.59
1047.27
1052.68
1059.47
1029.59
1043.33
1011.53
1012.23
1012.87
1013.55
1014.49
1015.96
1017
1017.4
1017.07
1015.6
1011.93
1004.84
998.68
997.933
998.853
994.908
992.488
991.996
991.862
991.906
993.045
995.039
998.915
1004.47
1008.71
1010.81
1012.28
1012.98
1012.67
1007.12
1009.68
1013.36
1016.83
1020.07
1023.09
1025.37
1026.27
1053.11
1026.71
1043.47
1010.55
1011.01
1011.49
1012.15
1012.52
1012.31
1010.4
1006.79
1001.32
995.025
990.025
986.309
984.064
983.418
983.168
982.409
981.457
980.732
981.163
983.172
987.199
993.74
1001.88
1004.44
1005.52
1006.7
1007.55
1007.55
1004.66
998.08
998.972
1001.51
1003.91
1005.89
1007.12
1006.84
1003.77
1043.05
1023.76
1040.2
1006.14
1003.77
1000.23
997.219
994.668
990.499
985.417
980.922
977.017
974.432
973.311
972.456
971.784
971.506
971.332
971.091
971.265
972.03
976.772
984.7
994.878
998.244
999.457
999.911
1000.6
1001.06
1000.79
997.322
989.385
986.606
988.481
991.002
993.434
995.671
997.597
999.096
1000.44
1025.87
1019.85
1024.49
981.73
977.114
973.536
970.723
968.941
967.554
965.97
963.843
962.649
961.267
960.888
959.938
959.361
959.247
959.176
960.064
962.885
969.592
980.188
981.299
980.976
980.643
983.014
986.592
986.738
983.761
979.015
975.124
973.875
975.925
978.587
981.956
984.734
987.603
990.856
994.671
1000.3
1011.1
1016.7
1008.98
952.941
952.497
953.21
952.943
952.19
951.231
950.023
949.664
948.062
947.9
946.113
946.206
946.722
947.722
949.443
956.01
960.917
960.187
957.677
958.036
962.196
964.975
965.638
965.791
965.139
963.776
962.666
962.697
964.202
966.588
969.303
972.571
975.803
979.174
982.968
987.494
993.668
1000.79
1013.59
1001.79
934.133
934.454
934.464
934.227
934.254
933.721
933.103
932.595
932.418
932.398
932.246
933.482
938.171
938.627
937.762
936.014
935.219
937.357
939.304
940.057
941.196
942.555
943.773
944.949
946.055
947.2
948.571
950.383
952.727
955.572
958.834
962.384
966.151
970.091
974.278
979.099
985.126
991.371
1010.52
997.743
914.757
915.532
915.235
915.167
915.441
915.438
915.394
915.393
915.46
915.508
915.431
915.765
916.315
916.106
916.988
918.032
918.291
918.585
919.133
919.857
920.88
922.229
923.838
925.751
928.007
930.233
932.892
935.931
939.345
943.273
947.351
951.631
956.079
960.635
965.335
970.458
976.454
982.681
1007.99
994.812
893.214
894.465
895.301
896.226
896.955
897.492
897.937
898.326
898.75
899.132
899.506
899.889
900.057
900.297
900.538
900.604
900.389
900.078
899.849
899.895
900.453
901.631
903.453
906.003
908.877
912.24
916.085
920.389
924.992
930.132
935.28
940.526
945.818
951.116
956.493
961.978
967.914
973.783
1008.4
991.11
875.005
876.171
877.315
878.411
879.381
880.281
881.197
882.035
882.852
883.615
884.234
884.735
885.214
885.396
885.281
884.785
883.906
882.719
881.302
880.022
879.65
880.558
882.648
885.581
889.229
893.528
898.432
903.955
909.973
916.381
923.014
929.582
935.791
942.147
948.53
954.961
962.004
970.07
1003.17
993.482
858.026
859.016
860.124
861.291
862.42
863.618
864.811
866.044
867.284
868.502
869.66
870.533
871.334
871.774
871.697
871.078
869.51
866.224
860.983
855.745
853.754
854.794
858.152
862.91
868.132
873.615
879.754
886.724
894.337
902.326
910.493
918.923
926.243
933.842
941.232
948.489
956.089
964.638
999.842
992.289
841.346
842.21
843.266
844.528
845.884
847.121
848.637
850.235
851.858
853.571
855.34
857.017
858.601
859.966
860.633
859.293
854.401
846.792
842.525
842.967
842.82
842.874
842.264
842.309
846.001
851.481
859.097
868.261
878.239
888.409
898.481
908.283
917.644
926.532
935.041
943.2
951.634
961.357
996.103
992.389
824.665
825.519
826.855
827.943
829.239
830.866
832.468
834.443
836.469
838.643
841.058
843.807
847.049
850.371
851.009
845.954
840.278
840.755
840.039
839.913
839.998
840.171
840.462
840.731
839.1
836.077
837.98
848.162
861.746
875.086
887.577
899.306
910.277
920.524
930.223
939.416
948.874
960.189
994.34
993.855
807.833
808.813
810.146
811.459
812.849
814.351
816.077
818.055
820.272
822.815
825.851
829.727
834.809
839.065
839.283
842.169
839.756
839.109
839.134
839.227
839.323
839.435
839.604
839.806
839.763
838.113
830.06
831.285
846.582
863.681
878.778
892.287
904.656
916.106
926.886
937.301
948.238
961.893
991.671
995.276
790.648
791.799
793.049
794.329
795.982
797.335
798.967
800.868
802.996
805.48
808.503
812.373
817.257
821.303
826.951
836.13
837.845
838.681
839.119
839.267
839.289
839.292
839.389
839.614
839.838
839.238
833.877
824.867
837.292
856.342
873.238
887.73
900.779
912.91
924.56
936.329
949.508
967.368
987.958
996.967
773.247
774.638
776.004
777.357
778.713
780.101
781.547
783.063
784.7
786.54
788.655
791.053
793.614
795.777
799.279
810.873
824.426
832.008
835.229
837.203
838.41
839.03
839.366
839.806
840.561
841.18
838.29
829.623
839.094
855.727
871.404
884.963
897.287
908.989
920.575
932.71
946.801
966.151
987.663
1000.68
755.776
757.504
759.068
760.486
761.731
762.887
763.946
764.937
765.95
767.087
768.416
769.788
771.078
771.702
771.693
775.292
786.924
801.246
814.358
823.936
830.18
834.119
837.088
839.795
843.628
848.316
844.9
841.821
847.989
858.729
869.964
880.649
891.039
901.519
912.479
924.546
939.182
959.925
984.242
1001.01
738.175
740.261
741.98
743.369
744.407
745.249
745.823
746.161
746.461
746.974
747.689
747.958
747.654
747.872
749.805
749.952
755.478
760.737
769.111
781.755
794.692
805.284
815.697
823.635
831.001
841.717
842.542
841.554
844.471
851.042
859.13
867.763
876.854
886.576
897.253
909.457
924.711
946.803
973.773
994.212
720.058
722.453
724.299
725.579
726.509
727.213
727.342
726.398
725.366
724.66
723.93
724.028
723.634
723.641
724.404
725.511
726.731
728.098
733.458
739.026
745.831
754.82
766.319
778.838
789.625
796.999
802.168
807.767
815.04
823.509
832.449
841.617
851.12
861.244
872.407
885.288
901.498
924.998
954.186
977.866
701.018
704.08
706.484
707.727
707.889
707.703
707.602
707.115
704.572
701.591
698.098
694.892
692.359
690.795
689.529
689.089
690.132
690.248
692.179
695.71
700.864
707.708
716.046
725.406
735.063
744.548
754.002
763.676