/*--------------------------------*- C++ -*----------------------------------*\
  =========                 |
  \\      /  F ield         | OpenFOAM: The Open Source CFD Toolbox
   \\    /   O peration     | Website:  https://openfoam.org
    \\  /    A nd           | Version:  8
     \\/     M anipulation  |
\*---------------------------------------------------------------------------*/
FoamFile
{
    version     2.0;
    format      ascii;
    class       volScalarField;
    location    "3.6";
    object      p_rgh;
}
// * * * * * * * * * * * * * * * * * * * * * * * * * * * * * * * * * * * * * //

dimensions      [1 -1 -2 0 0 0 0];

internalField   nonuniform List<scalar> 
9150
(
2555.73
2528.69
2503.24
2486.03
2477.73
2477.72
2486
2503.2
2528.64
2555.69
2546.5
2526.89
2511.28
2499.47
2493.49
2493.48
2499.44
2511.25
2526.85
2546.46
2536.83
2523.2
2514.72
2506.94
2502.84
2502.84
2506.92
2514.7
2523.17
2536.8
2531.76
2521.65
2516.25
2510.86
2507.9
2507.9
2510.85
2516.23
2521.62
2531.73
2530.12
2521.05
2516.57
2512.37
2509.93
2509.92
2512.36
2516.55
2521.03
2530.09
2090.92
2087.48
2112.38
2126.38
2132.96
2132.83
2125.99
2111.8
2086.67
2089.81
2280.55
2256.66
2251.25
2249.95
2250.05
2249.98
2249.74
2250.92
2256.24
2280.13
2404.27
2373.32
2357.51
2347.59
2342.94
2342.9
2347.47
2357.33
2373.11
2404.08
2504.43
2462.64
2435.03
2417.65
2409.14
2409.12
2417.58
2434.93
2462.53
2504.34
2575.92
2522.58
2483.96
2461.89
2451.74
2451.73
2461.85
2483.9
2522.51
2575.88
1912.42
1949.52
1936.72
1944.58
1940.29
1938.63
1943.7
1934.12
1942.86
1899.95
1939.23
1955.58
1937.04
1943.91
1939.35
1938.01
1943.57
1932.13
1951.34
1930.14
1917
1946.09
1913.07
1921.3
1923.52
1922.88
1920.94
1909.57
1942.68
1911.21
1757.24
1881.02
1894.99
1914.19
1930.26
1930
1913.21
1892.43
1879.24
1752.51
1624.35
1867.8
1962.35
1992.39
2008.29
2008.09
1991.69
1961.19
1866.51
1621
1853.08
1852.88
1852.68
1852.48
1852.28
1852.09
1851.91
1851.75
1851.6
1851.47
1852.99
1852.79
1852.59
1852.39
1852.2
1852.01
1851.84
1851.68
1851.54
1851.44
1852.94
1852.75
1852.56
1852.38
1852.19
1852.02
1851.86
1851.72
1851.6
1851.5
1852.95
1852.76
1852.57
1852.4
1852.23
1852.07
1851.93
1851.78
1851.65
1851.52
1852.96
1852.8
1852.63
1852.48
1852.34
1852.19
1852.05
1851.92
1851.79
1851.66
1853
1852.85
1852.72
1852.6
1852.47
1852.36
1852.26
1852.18
1852.11
1852.07
1853.06
1852.91
1852.79
1852.68
1852.59
1852.51
1852.45
1852.41
1852.4
1852.42
1853.08
1852.95
1852.83
1852.72
1852.65
1852.6
1852.57
1852.58
1852.62
1852.68
1853.08
1852.93
1852.78
1852.67
1852.59
1852.56
1852.58
1852.62
1852.69
1852.77
1853.08
1852.87
1852.65
1852.46
1852.36
1852.33
1852.17
1852.32
1852.64
1852.83
1853.09
1852.77
1852.38
1851.87
1851.54
1851.78
1851.96
1852.38
1852.72
1852.9
1853.3
1852.89
1852.3
1838.59
1813.49
1840.81
1852.07
1852.59
1852.94
1853.21
1853.96
1853.6
1824.38
1796.08
1796.52
1795.38
1832.6
1853.67
1853.83
1853.96
1855.03
1851.65
1797.08
1793.12
1793.04
1792.79
1792.38
1832.53
1854.59
1854.59
1855.81
1856.15
1847.18
1792.11
1790.26
1790.39
1789.89
1822.6
1855.57
1855.29
1855.97
1856.24
1856.72
1849.4
1822.62
1795.15
1813.41
1849.2
1855.51
1855.29
1855.57
1855.63
1855.75
1855.86
1854.98
1851.78
1853.73
1855.11
1855.05
1854.94
1855
1854.93
1854.89
1854.84
1854.77
1854.69
1854.58
1854.49
1854.42
1854.4
1854.3
1854.12
1853.97
1853.87
1853.79
1853.73
1853.68
1853.65
1853.65
1853.68
1853.46
1853.16
1852.92
1852.78
1852.73
1852.71
1852.68
1852.67
1852.71
1852.8
1852.5
1851.76
1851.65
1851.52
1851.61
1851.72
1851.68
1851.59
1851.61
1851.74
1851.39
1849.48
1846.21
1849.09
1849.92
1850.9
1850.39
1848.92
1843.67
1850.85
1850.37
1848.33
1772.98
1721.49
1748.63
1766.7
1742.27
1679.89
1668.43
1691.38
1851.81
1769.89
1638.5
1638.82
1638.17
1638.13
1639.48
1642.7
1646.08
1647.42
1848.07
1690.31
1632.42
1633.09
1633.56
1634.05
1634.68
1634.94
1739.35
1802.69
1858.7
1796.58
1630.4
1628.9
1629.43
1630.42
1630.62
1784.82
1862.81
1863.61
1719.1
1701.19
1687.92
1700.13
1756.78
1769.17
1814.66
1862.71
1862.61
1862.47
1713.26
1838.97
1857.67
1855.81
1862.64
1861.89
1861.41
1861.14
1861.2
1861.1
1832.6
1860.07
1860.24
1860.23
1859.84
1859.05
1859.08
1859.21
1859.01
1858.9
1859.7
1859.16
1858.73
1858.33
1857.87
1857.4
1857.05
1856.75
1856.44
1856.2
1857.04
1857
1857.04
1856.42
1855.81
1855.21
1854.64
1854.09
1853.58
1853.09
1850.05
1852.99
1855.49
1854.59
1853.73
1852.89
1852.12
1851.34
1850.56
1849.75
1848.16
1853.67
1853.92
1852.29
1851.48
1850.61
1849.6
1848.61
1847.59
1846.51
1848.96
1852.89
1850.99
1847.61
1849.53
1848.06
1846.73
1845.95
1844.84
1843.55
1851.84
1851.89
1849.9
1828.62
1819.62
1828.55
1843.82
1842.94
1841.68
1827.86
1852.78
1851.54
1850.42
1742.49
1627.5
1837.83
1841.33
1841.04
1821.52
1641.61
1853.06
1851.91
1807.81
1564.24
1566.61
1812.95
1844.64
1830.84
1713.03
1611.4
1853.42
1847.63
1607.1
1424.43
1559.73
1841.15
1851.96
1632.22
1469.75
1734.73
1854.61
1682.79
1377.88
1388.14
1601.01
1844.15
1784.88
1443.42
1444.01
1802.57
1783.01
1371.06
1323.01
1485.52
1801.96
1835.1
1605.16
1168.13
1468.57
1825.72
1537.42
1126.67
1336.99
1772.18
1805.88
1784.3
1309.81
1073.58
1376.99
1818.6
1236.49
1066.93
1314.15
1791.43
1809.87
1472.6
1031.73
1032.31
1174.54
1679.71
1034.64
1033.14
1177.77
1521.59
1471.18
1075.02
1020.16
1021.07
1041.95
1223.07
1020.29
1020.53
1037.37
1048.04
1038.25
1018.21
1018.01
1018.65
1018.99
1021.37
1017.66
1017.92
1017.96
1017.88
1017.94
1017.91
1018.12
1018.3
1018.3
1018.59
1016.97
1017.57
1017.48
1017.46
1017.54
1017.88
1018
1018.21
1018.55
1018.84
1016.22
1017.21
1017.15
1017.13
1017.46
1017.68
1017.89
1018.02
1018.21
1018.42
1196.13
1015.4
1016.38
1016.4
1016.37
1016.58
1016.6
1016.52
1016.44
1055.36
1773.33
1329.18
1116.32
1088.37
1125.07
1243.5
1374.57
1497.78
1620.28
1701.59
1907.87
1864.99
1790.22
1769.89
1797.28
1873.06
1912.14
1920.67
1900.99
1888.06
1900.85
1901.2
1900.01
1902.11
1913.24
1917.51
1920.95
1921.8
1899.91
1838.39
1784.01
1737.79
1733.07
1849.4
1901.48
1909.8
1915.23
1918.78
1895.83
1829.73
1058.91
1012.94
997.864
1255.3
1712.51
1908.24
1914.15
1917.33
1916.28
1900.79
880.409
881.707
888.71
902.103
1340.01
1875.12
1921.58
1922.01
1922.61
1923.55
879.827
880.513
891.835
1112.39
1564.47
1882.37
1926.24
1925.84
1925.98
1926.52
958.369
1126.08
1417.49
1741.72
1903.95
1925.01
1929.07
1929.09
1929.2
1929.61
1693.92
1839.21
1921.78
1933.56
1932.56
1932.12
1931.86
1931.88
1932.1
1932.54
1934.6
1934.29
1934.04
1933.88
1933.75
1933.75
1933.9
1934.18
1934.61
1935.21
1931.84
1932.56
1933.04
1933.42
1933.83
1934.43
1935.09
1935.78
1936.55
1937.41
1928.37
1929.47
1930.56
1931.84
1933.12
1934.36
1935.56
1936.78
1938.03
1939.3
1924.24
1925.95
1927.7
1929.75
1931.69
1933.58
1935.48
1937.36
1939.21
1941
1919.88
1922.08
1924.44
1926.94
1929.54
1932.21
1934.9
1937.55
1940.11
1942.5
1914.5
1917.12
1920.02
1923.19
1926.57
1930.09
1933.66
1937.16
1940.49
1943.52
1908.02
1910.95
1914.34
1918.16
1922.34
1926.77
1931.27
1935.65
1939.73
1943.43
1900.01
1903.06
1906.75
1911.1
1916.03
1921.38
1926.84
1932.15
1937.26
1941.62
1889.91
1892.63
1896.24
1900.79
1906.26
1912.53
1919.44
1924.11
1878.44
1825.99
1877.04
1878.66
1881.3
1885.13
1890.54
1898.5
1890.36
1753.06
1665.63
1675.24
1861.18
1860.35
1860.11
1861.03
1865.35
1747.59
1544.6
1564.39
1647.64
1733.03
1843.72
1838.71
1832.73
1814.84
1498.94
1224.02
1346.62
1668.76
1898.07
1905.01
1828.9
1819.28
1806.79
1318.77
766.734
1050.32
1709.82
1862.77
1874.26
1879.07
1823.39
1812.42
1602.14
686.797
543.581
940.267
1485.6
1780.41
1848.49
1855.34
1826.45
1816.83
1252.34
529.199
517.592
532.979
772.807
1608.02
1837.23
1837.59
1834.11
1826.21
954.174
510.946
510.62
512.665
597.094
1532.98
1825.3
1819.97
1843.12
1765.02
776.194
503.202
502.957
505.21
866.602
1718.17
1815.75
1804.69
1853.45
1669.15
650.475
498.549
496.75
497.292
1433.88
1817.51
1809.66
1793.88
1864.88
1559.97
562.404
503.837
494.735
840.639
1744.56
1819.02
1804.79
1786.83
1876.35
1226.81
518.567
511.633
502.87
1490.04
1832.25
1820.41
1802.29
1782.3
1867.44
788.348
542.858
518.169
1106.48
1825.48
1839.48
1821.65
1801.12
1779.35
1368.22
547.785
555.509
602.76
1643.49
1859.98
1843.78
1823.27
1801.24
1778.45
647.319
546.669
544.096
1433.53
1880.77
1865.24
1845.61
1824.07
1801.5
1778.54
527.775
536.005
754.5
1786.23
1883.12
1865.89
1845.34
1823.21
1800.28
1777.12
521.038
517.107
1626.3
1901.28
1884.56
1864.97
1843.36
1820.23
1796.26
1772.03
510.416
894.486
1857.19
1896.52
1880.86
1861.88
1840.52
1817.16
1792.1
1765.14
496.077
1638.05
1911.72
1897.68
1881.05
1862.24
1841.49
1819.36
1796.31
1772.63
661.572
1856.26
1917.52
1899.04
1880.43
1861.1
1840.89
1820.34
1800.15
1781.56
1216.41
1916.37
1902.95
1887.07
1870.92
1853.62
1835.1
1815.95
1796.84
1778.55
1292.61
1895.9
1886.67
1873.64
1860.11
1845.25
1828.84
1811.35
1793.14
1773.82
1292.64
1879.38
1872.19
1861.56
1850.45
1838.12
1824.33
1809.71
1794.81
1778.65
1295.55
1866.73
1861.09
1852.65
1843.52
1833.15
1821.45
1809.12
1796.45
1780.66
1302.51
1860.49
1855.14
1847.97
1840.18
1831.19
1821.01
1810.21
1798.3
1653.42
1312.53
1858.11
1853.24
1847.16
1840.36
1832.48
1823.57
1814.07
1803.2
1539.96
1330.67
1859.99
1854.93
1849.53
1843.48
1836.53
1828.7
1820.24
1810.5
1483.1
1357.13
1861.46
1857.7
1853.47
1848.42
1842.65
1836.07
1828.92
1821.06
1453.7
1380.14
1862.96
1861.11
1858.19
1854.55
1850.36
1845.27
1839.69
1833.93
1452.14
1393.98
1862.87
1864.56
1863.92
1862.41
1860.18
1856.58
1852.47
1848.33
1479.82
1401.55
1864.84
1872.6
1873.95
1873.72
1872.68
1869.92
1866.61
1863.83
1541.41
1473.1
1888.53
1890.16
1888.58
1887.38
1886.33
1883.57
1880.56
1877.45
1601.3
1614.25
1902.14
1903.46
1902.36
1901.37
1900.46
1897.37
1895.6
1889.47
1668.27
1713.08
1921.93
1919.64
1918.32
1916.64
1915.77
1914.26
1917.78
1913.52
1739.17
1824.91
1949.34
1935.57
1933.8
1930.32
1929.16
1931.6
1937.51
1948.61
1820.56
1851.35
1851.25
1851.17
1851.09
1851.01
1850.92
1850.81
1850.7
1850.6
1850.52
1850.44
1850.36
1850.33
1850.25
1850.19
1850.12
1850.06
1850.01
1849.97
1849.94
1849.9
1849.87
1849.84
1849.81
1849.78
1849.73
1849.68
1849.62
1849.58
1849.54
1849.51
1849.5
1849.51
1849.52
1849.54
1849.57
1849.6
1849.62
1849.63
1849.67
1851.36
1851.32
1851.3
1851.3
1851.27
1851.2
1851.08
1850.93
1850.77
1850.61
1850.47
1850.36
1850.26
1850.16
1850.08
1850.02
1849.97
1849.95
1849.95
1849.96
1849.96
1849.93
1849.89
1849.85
1849.8
1849.74
1849.68
1849.62
1849.57
1849.3
1849.35
1849.37
1849.55
1849.57
1849.59
1849.61
1849.64
1849.67
1849.69
1849.71
1851.42
1851.36
1851.33
1851.3
1851.27
1851.21
1851.12
1851
1850.83
1850.7
1850.55
1850.45
1850.34
1850.22
1850.12
1850.04
1849.98
1849.9
1849.78
1849.66
1849.86
1849.96
1849.98
1849.96
1849.93
1849.9
1849.87
1849.48
1849.19
1849.22
1849.2
1849.12
1848.96
1849.46
1849.53
1849.68
1849.72
1849.73
1849.73
1849.75
1851.4
1851.27
1851.13
1850.97
1850.7
1850.92
1850.98
1850.98
1850.89
1850.79
1850.69
1850.59
1850.49
1850.4
1850.31
1850.23
1850.16
1849.89
1848.02
1847.84
1847.62
1849.61
1850.27
1850.21
1850.17
1850.14
1850.12
1850.11
1849.28
1849.13
1849.03
1849.23
1849.6
1848.81
1848.76
1848.66
1849.11
1849.25
1849.18
1849.42
1851.52
1850.86
1847.9
1844.44
1844.19
1844.63
1847.63
1850.95
1851.07
1851
1850.91
1850.83
1850.75
1850.67
1850.62
1850.59
1850.58
1848.69
1847.18
1847.09
1846.93
1846.69
1847.75
1850.31
1850.32
1850.36
1850.36
1850.3
1850.24
1850.15
1850.18
1850.59
1850.6
1849.58
1848.6
1848.56
1848.53
1848.61
1848.62
1848.59
1852.08
1848.06
1842.86
1842.91
1842.8
1842.58
1842.32
1845.09
1851.14
1851.28
1851.19
1851.11
1851.04
1850.98
1850.96
1850.98
1851.05
1851.18
1850.87
1846.54
1846.42
1846.38
1846.25
1847.07
1850.39
1850.63
1850.43
1850.37
1850.41
1850.55
1850.59
1850.62
1850.67
1850.58
1850.09
1849.56
1849.86
1849.89
1849.52
1849.08
1852.44
1851.45
1849.69
1842.45
1841.42
1841.44
1841.18
1843.55
1851.59
1851.62
1851.48
1851.39
1851.3
1851.27
1851.25
1851.28
1851.32
1851.37
1851.45
1851.31
1850.41
1847.14
1846.67
1848.44
1850.92
1850.87
1850.71
1850.56
1850.12
1848.97
1848.42
1848.56
1849.51
1849.79
1850.04
1850.06
1850.37
1850.6
1850.66
1850.66
1852.79
1853.04
1853.38
1852.44
1847.28
1841.04
1842.75
1849.96
1852.03
1851.74
1851.52
1851.52
1851.55
1851.52
1851.54
1851.55
1851.57
1851.59
1851.62
1851.63
1851.61
1851.44
1851.33
1851.12
1850.75
1851.14
1851.65
1845.96
1844.03
1844.8
1844.77
1846.5
1849.31
1842.76
1842.95
1842.39
1842.51
1850.71
1850.94
1851.1
1852.88
1853.01
1853.15
1853.22
1853.07
1851.83
1852.29
1852.41
1851.48
1851.25
1851.46
1851.63
1851.73
1851.78
1851.8
1851.82
1851.83
1851.83
1851.87
1851.86
1851.79
1851.34
1846.99
1837.78
1827.65
1831.98
1840.55
1846.65
1851.73
1851.71
1851.97
1852.25
1852.16
1848.38
1845.71
1845.39
1842.5
1836.23
1826.68
1828.72
1852.94
1853.04
1853.12
1853.16
1853.16
1853.23
1852.93
1845.4
1824.43
1829.48
1846.04
1851.72
1852
1852.11
1852.12
1852.04
1852.03
1852.12
1852.28
1852.31
1851.93
1836.72
1824.4
1823.3
1823.36
1823.01
1822.45
1839.62
1852.7
1852.64
1852.74
1852.94
1853.12
1853.31
1853.65
1853.86
1836.36
1824.42
1824.48
1824.65
1853.04
1853.13
1853.16
1853.08
1850.26
1833.57
1817.9
1812.28
1812.91
1812.84
1817.59
1847.48
1852.94
1852.89
1852.83
1851.87
1851.27
1852.34
1852.94
1853.13
1853.32
1845.29
1823.57
1822.12
1821.8
1821.49
1821.05
1828.28
1852.7
1853.44
1853.45
1853.57
1853.81
1854.11
1854.48
1854.86
1845.29
1824.22
1824.19
1824.03
1853.44
1853.63
1853.82
1854.01
1854.25
1824.05
1810.74
1810.73
1810.73
1810.63
1810.25
1847.54
1854.25
1853.93
1853.71
1853.5
1847.66
1849.23
1853.52
1853.96
1854.38
1854.81
1849.19
1834.15
1819.56
1819.93
1819.81
1828.55
1853.63
1854.16
1854.03
1854.09
1854.31
1854.73
1855.2
1855.79
1856.53
1854
1841.42
1837
1854.09
1854.2
1854.07
1854.67
1855.23
1849.53
1834.72
1811.64
1808.87
1810.03
1840.26
1855.23
1855.23
1854.89
1854.68
1854.58
1843.61
1836.17
1847.87
1854.61
1854.96
1855.42
1856.04
1855.82
1850.99
1840.56
1838.42
1847.17
1854.47
1854.35
1854.32
1854.4
1854.48
1854.74
1855.17
1855.76
1856.32
1856.78
1857.15
1857.17
1854.62
1854.28
1854.39
1854.76
1855.47
1856.02
1856.38
1851.2
1843.83
1849.5
1855.73
1855.89
1855.63
1855.48
1855.41
1851.58
1833.89
1833.92
1833.52
1837.4
1854.02
1855.52
1855.6
1855.87
1855.97
1855.75
1855.36
1854.64
1854.21
1853.99
1854.24
1854.41
1854.52
1854.73
1854.85
1855.15
1855.89
1856.45
1856.02
1855.92
1854.89
1854.52
1854.59
1854.73
1855.44
1855.79
1856.04
1856.21
1856.29
1856.24
1856.06
1855.72
1855.72
1855.98
1856.18
1844.24
1833.38
1833.31
1833.2
1833.03
1832.98
1833.02
1839.41
1854.35
1855.63
1855.53
1855.17
1854.83
1854.54
1854.35
1853.87
1853.74
1853.78
1853.89
1854.54
1854.85
1853.68
1852.68
1855.28
1856.39
1855.15
1854.56
1854.55
1854.65
1855.13
1855.6
1855.78
1855.93
1856.01
1856.06
1856.02
1853.68
1849.8
1849.57
1854.28
1851.76
1848.54
1842.83
1846.16
1836.45
1832.7
1832.62
1832.48
1832.63
1832.24
1840.81
1854.86
1854.62
1854.28
1854.01
1853.8
1853.64
1853.4
1853.51
1853.89
1854.17
1852.55
1851.85
1852.92
1856.71
1854.88
1854.87
1854.39
1854.5
1855.11
1855.41
1855.61
1855.8
1855.97
1856.13
1853.72
1849.58
1849.69
1849.67
1849.75
1849.88
1855.52
1857.79
1857.68
1856.92
1855.74
1855.95
1857.03
1852.35
1844.77
1849.25
1854.54
1854.23
1853.84
1853.47
1853.21
1853.04
1852.94
1852.94
1853.04
1853.36
1853.33
1850.81
1852.14
1855.68
1854.41
1854.47
1854.5
1854.66
1854.92
1855.18
1855.44
1855.68
1855.92
1856.2
1855.86
1855.34
1855.71
1850.28
1849.66
1849.85
1849.88
1853.31
1857.48
1857.71
1857.49
1857.23
1856.82
1856.32
1855.76
1855.15
1854.59
1853.96
1853.28
1852.79
1852.35
1852.13
1852.03
1851.81
1851.74
1852.05
1852.56
1850.7
1850.96
1854.69
1853.76
1853.88
1854.04
1854.25
1854.53
1854.88
1855.24
1855.54
1855.73
1852.18
1853.4
1856.15
1856.45
1856.61
1856.71
1856.91
1855.11
1842.02
1846.42
1857.71
1857.82
1857.47
1857
1856.45
1855.91
1855.3
1854.61
1853.87
1853.12
1852.41
1851.81
1851.36
1851.02
1850.68
1850.39
1850.39
1850.81
1851.28
1850.89
1854.04
1852.93
1853.11
1853.3
1853.55
1853.92
1854.46
1855.19
1855.58
1847.25
1846.16
1846.3
1855.82
1856.72
1845.94
1847.57
1858.68
1850
1841.89
1849.37
1858.66
1858.4
1857.98
1857.23
1856.71
1856.33
1855.4
1854.45
1853.7
1852.83
1851.93
1851.14
1850.58
1850.18
1849.84
1849.32
1848.92
1848.99
1849.67
1851.16
1853.2
1851.96
1852.29
1852.38
1848.6
1842.18
1844.79
1855.99
1855.92
1846.6
1846.16
1851.55
1857.2
1854.38
1844.61
1849.98
1858.47
1851.34
1841.45
1858.41
1859.56
1859.21
1858.74
1857.77
1855.29
1851.56
1851.31
1853.84
1854.09
1852.81
1851.51
1850.54
1850.08
1849.97
1849.77
1849.1
1848.02
1847.2
1847.34
1849.05
1852.23
1835.14
1825.25
1791.52
1793.7
1808.23
1855.94
1855.87
1855.51
1856.61
1852.23
1857.56
1857.59
1857.87
1850.85
1807.29
1771.42
1843.92
1856.59
1852.22
1836.37
1829.56
1828.33
1803.15
1774.08
1799.42
1857.31
1857.86
1855.53
1853.07
1851.02
1849.84
1849.89
1851
1852.01
1851.42
1830.01
1773.31
1753.77
1774.55
1826.27
1693.83
1695.04
1801.21
1834.11
1842.32
1849.48
1806.99
1751.14
1752.64
1838.77
1855.54
1804.45
1744.62
1741.79
1743.15
1765.15
1851.23
1848.17
1762.73
1747.24
1749.13
1736.52
1738.33
1739.15
1813.75
1863.5
1860.8
1857.52
1851.5
1833.43
1820.08
1808.55
1823.3
1859.75
1859.15
1749.27
1713.98
1716.3
1716.1
1728.53
1765.59
1823.42
1847.62
1848.53
1824.36
1734.49
1735.98
1736.71
1736.93
1736.93
1738.96
1737.68
1739.35
1740.22
1740.96
1741.24
1743.69
1832.94
1822.61
1733.63
1735.29
1736.58
1737.11
1762.91
1862.78
1867.46
1865.32
1861.78
1823.58
1603.49
1501.35
1501.87
1536.74
1705.37
1824.57
1809.03
1763
1743.89
1804.36
1807.49
1849.22
1860.32
1861.1
1847.57
1745.04
1734.89
1734.99
1735.11
1750.41
1804.3
1751.68
1737.99
1738.94
1739.04
1752.73
1740.51
1766.12
1840.41
1844.48
1797.18
1735.65
1736.43
1791.73
1874.52
1873.38
1872.92
1872.83
1871.93
1756.43
1521.37
1497.17
1496.31
1496.12
1495.81
1527.72
1618.45
1673.31
1692.8
1748.16
1809.02
1862.74
1862.43
1862.52
1848.24
1776
1759.96
1828.38
1843.28
1860.1
1871
1831.47
1771.67
1762.03
1806.31
1828.94
1851.71
1851.25
1825.3
1731.18
1733.96
1742.91
1866.97
1877.88
1876.77
1875.1
1868.58
1864.31
1871.69
1873.22
1852.01
1585.72
1492.51
1493.72
1495.13
1496.05
1497.45
1508.27
1551.51
1650.34
1819.78
1862.39
1862.5
1861.67
1857.8
1857.71
1861.2
1867.68
1868.9
1870.04
1870.57
1868.04
1865.03
1865.28
1870.33
1873.5
1872.57
1833.57
1728.38
1728.35
1773.99
1878.39
1877.92
1877.91
1877.65
1866.71
1800.29
1786.5
1825.68
1874.97
1876.18
1874.85
1825.69
1750
1690.17
1690.88
1726.69
1731.45
1737.4
1785.22
1815.17
1861.1
1861.14
1861.36
1862.36
1863.29
1864.21
1865.1
1866
1866.87
1867.65
1868.29
1868.78
1869.08
1869.38
1870.09
1871.5
1842.62
1720.12
1723.32
1764.06
1875.05
1876.09
1877.15
1877.69
1824.68
1781.91
1783.1
1784.44
1800.32
1882.45
1803.3
1707.1
1703.52
1701.89
1693.08
1696.07
1711.73
1766.22
1789.33
1760.17
1858.87
1858.94
1859.22
1859.61
1860.14
1860.75
1861.42
1862.09
1862.71
1863.18
1863.4
1863.28
1863.23
1863.74
1784.28
1703.04
1706.93
1709.37
1709.96
1791.07
1870.12
1871.16
1872.57
1874.39
1876.51
1859.8
1794.47
1782.46
1830.49
1839.29
1827.92
1856.08
1856.91
1817.7
1773.52
1732.97
1711.58
1711.77
1754.93
1750.53
1856
1855.87
1855.83
1855.9
1856.1
1856.43
1856.93
1857.44
1857.73
1857.84
1857.54
1857
1813.46
1693.52
1694.11
1695.06
1695.55
1696.17
1802.61
1862.74
1862.5
1863.21
1864.47
1866.07
1867.99
1870.15
1872.31
1874.48
1877.44
1880.81
1884.46
1888.6
1892.79
1896.62
1900.1
1902.32
1834.03
1756.15
1706.28
1705.18
1852.58
1852.06
1851.55
1851.07
1850.67
1850.15
1849.37
1849.87
1837.25
1851.66
1851.68
1846.21
1730.94
1685.93
1683.83
1694.04
1840.75
1848.81
1846.98
1851.9
1852.14
1851.01
1854.47
1856.28
1858.14
1860.23
1862.48
1864.99
1867.86
1871.1
1874.77
1878.88
1883.3
1887.84
1892.24
1896.12
1899.21
1900.55
1824.4
1710.92
1848.84
1847.76
1846.47
1844.71
1842.64
1824.75
1623.29
1572.76
1789.3
1842.01
1842.96
1843.1
1790.21
1730.33
1781.46
1838.17
1842.22
1841.32
1840.54
1838.94
1838.9
1839.89
1841.34
1845.61
1847.95
1850.09
1852.36
1854.68
1857.14
1859.86
1863.02
1866.76
1871.11
1875.97
1881.1
1886.11
1890.4
1893
1892.49
1884.68
1845.14
1843.06
1840.43
1835.73
1674.26
1528.44
1515.06
1511.68
1545.77
1772.22
1833.3
1832.26
1831.46
1828.78
1830.32
1829.11
1828.11
1827.48
1827.32
1827.87
1827.85
1828.88
1831.88
1835.92
1838.28
1839.96
1841.23
1844.43
1846.02
1847.67
1849.95
1853.07
1857.04
1861.83
1867.32
1873.17
1878.77
1882.81
1883.31
1880.2
1841.75
1809.88
1691.82
1605.32
1507.02
1505.66
1500.01
1498.14
1493.96
1492.27
1560.09
1663.15
1753.61
1809.03
1817.58
1816.11
1815.04
1808.66
1796.06
1801.52
1818.81
1821.92
1824.62
1827.42
1830.26
1832.7
1828.76
1820.87
1829.81
1834.41
1834.04
1835.87
1839.71
1844.7
1850.72
1857.36
1864.03
1869.52
1872.12
1870.19
1678.57
1622.89
1618.95
1607.11
1677.04
1716.67
1501.53
1487.52
1485.2
1482.65
1480.76
1481.11
1573.79
1807.04
1808.78
1806.78
1784.05
1765.59
1766.68
1768.08
1782.19
1814.32
1817.9
1821.41
1824.79
1827.82
1830.31
1800.01
1694.95
1657.74
1670.45
1679.75
1735.83
1777.34
1818.73
1838.09
1847.4
1854.44
1858.89
1859.31
1619.83
1619.03
1618.22
1671.92
1843.32
1840.96
1692.85
1480.51
1478.12
1473.96
1468.74
1484.05
1743.41
1804.89
1799.14
1795.24
1788.56
1787.21
1782.96
1762.73
1772.63
1802.41
1813.59
1817.1
1821.63
1826.4
1830.59
1832.75
1633.03
1292.14
1226.74
1223.09
1269.52
1326.25
1459.18
1668.37
1822.81
1841.87
1846.88
1849.81
1613.04
1611.67
1689.06
1819.57
1832.83
1831.67
1816.26
1716.06
1661.66
1697.22
1738.4
1703.54
1538.68
1489.49
1644.83
1786.07
1780.69
1776.15
1767.13
1792.16
1802.23
1807.59
1810.89
1815.87
1821.25
1827.63
1832.99
1837.78
1763.92
1304.69
1169.07
1164.48
1161.6
1159.68
1158.24
1222.57
1518.42
1830.96
1841.57
1845.94
1795.78
1799.12
1813.74
1826.45
1824.21
1821.92
1819.74
1817.58
1816.29
1816.97
1819.71
1819.94
1676.69
1319.25
1240.38
1228.38
1244.04
1201.46
1301.72
1533.76
1712.01
1812.77
1817.3
1821.08
1825.5
1829.95
1835.48
1840.41
1843.73
1701.11
1321.54
1169.69
1156.31
1153.86
1152.05
1151.11
1181.37
1679.68
1840.2
1847.64
1826.07
1825.34
1823.46
1820.63
1817.48
1814.23
1811.11
1808.86
1808.21
1810.25
1814.79
1820.95
1824.27
1724.78
1275.22
1075.31
1070.42
1070.17
1071.33
1075.23
1286.32
1811.03
1823.53
1827.1
1831.04
1834.83
1840.05
1844.63
1848.99
1853.13
1787.08
1519.63
1223.62
1148.74
1146.79
1145.55
1144.57
1426.43
1832.02
1854.77
1823.13
1822.58
1820.83
1817.78
1813.88
1808.92
1799.45
1721.76
1685.27
1710.21
1799.06
1820.79
1831.31
1835.25
1559.27
1087.54
1068.23
1067.75
1067.97
1069.06
1170.5
1759.86
1830.28
1833.91
1837.48
1841.5
1845.86
1850.45
1855.14
1859.84
1864.88
1861.55
1668.16
1270.68
1141.06
1139.46
1138.26
1276.25
1817.19
1865.92
1822.74
1824.65
1824.13
1822.01
1818.31
1652.73
1342.35
1178.15
1138.89
1138.53
1303.93
1623.51
1840.57
1842.37
1675.55
1131.29
1064.91
1064.72
1064.91
1065.25
1318.43
1798.41
1839.21
1841.86
1844.97
1848.41
1852.3
1856.76
1861.8
1866.44
1871.18
1876.07
1880.62
1706.01
1208.34
1134.28
1132.36
1208.77
1774.17
1878.03
1839.64
1841.49
1839.65
1785.73
1491.94
1154.36
1058.98
1053.91
1049.99
1047.08
1049.65
1235.94
1669.76
1855.43
1560.6
1127.36
1060.99
1061.66
1061.94
1068.31
1613.67
1847.05
1848.11
1849.92
1851.96
1853.95
1828.44
1810.18
1866.08
1872.88
1877.55
1882.44
1887.58
1891.46
1607.98
1131.75
1126.42
1163.81
1685.28
1891.31
1500.84
1618.01
1566.2
1331.83
1109.09
1064.18
1063.93
1078.99
1059.19
1045.04
1045.29
1194.74
1623.74
1669.96
1346.78
1060.9
1057.5
1058.33
1082.97
1470.85
1840.98
1855.31
1856.64
1857.64
1858.28
1831.16
1433.75
1330.06
1719.37
1868.2
1882.06
1887.12
1892.01
1896.3
1871.8
1346.33
1123.48
1138.28
1607.66
1900.84
1043.84
1064.27
1054.93
1044.32
1070.76
1094.83
1096.81
1098.04
1097.91
1043.85
1043.51
1044.46
1351.36
1305.14
1075.7
1057.39
1091.21
1261.75
1621.93
1863.81
1862.73
1864.67
1866.87
1868.34
1840.04
1477.67
1115.53
1111.27
1344.25
1819.45
1887.34
1893.26
1898.72
1904.34
1910.49
1766.92
1132.28
1141.35
1584.73
1897.09
1019.54
1020.76
1022.34
1033.28
1069.11
1070.22
1072.47
1071.22
1049.52
1045.12
1044.47
1051.22
1104.66
1155.68
1219.35
1337.92
1639.73
1877.18
1873.22
1871.98
1872.76
1867.36
1858.1
1726.43
1393.14
1103.42
1095.65
1096.48
1137.6
1728.77
1893.31
1899.81
1904.51
1909.33
1914.66
1903.31
1239.96
1149.47
1595.22
1908.5
1019.61
1020.51
1021.55
1022.79
1027.84
1032.18
1034.29
1035.99
1036.41
1062.75
1170.78
1389.98
1605.18
1768.76
1887.73
1883.81
1881.38
1880.97
1881.02
1881.19
1880.62
1779.44
1487
1182.64
1086.96
1089.04
1090.44
1091.08
1095.02
1683.55
1901.38
1906.02
1909.51
1912.76
1915.78
1918.06
1545.68
1149.43
1479.24
1921.71
1018.84
1019.38
1019.98
1021.03
1093.97
1164.2
1259.56
1407.91
1541.67
1711.17
1833.76
1887.38
1892.37
1891.77
1891.54
1890.83
1889.9
1889.16
1874.25
1763.05
1541.97
1262.82
1083.9
1086.13
1086.33
1086.67
1087.52
1087.71
1228.71
1762.72
1910.91
1913.74
1916.21
1918.19
1919.43
1919.15
1829.4
1184.06
1396.06
1913.05
1125.41
1227.22
1376.28
1563.16
1706
1791.11
1851.1
1885.44
1895.11
1894.05
1892.93
1891.21
1890.7
1893.52
1898.71
1898.99
1891.87
1778.53
1496.55
1273.71
1103.29
1096.86
1089.2
1083.7
1085.65
1092.48
1113.93
1225.11
1695.81
1914.28
1918.93
1921.62
1924.74
1927.56
1929.52
1931.02
1931.7
1289.67
1375.44
1892.56
1757.83
1831.2
1882.55
1903.83
1905.35
1913.65
1908.57
1887.93
1886.47
1886.26
1903.95
1903.01
1902.23
1896.78
1866.44
1781.03
1633.73
1413.23
1269.04
1270.05
1277.57
1316.41
1409.42
1496.23
1552.83
1610.94
1695.3
1832.54
1925.37
1927.24
1927.84
1920.07
1925.92
1937.63
1942.35
1946.22
1951.84
1422.38
1383.37
1876
1879.01
1847.99
1923.13
1923.66
1923.36
1921.4
1912.03
1892.95
1898.28
1915.29
1894.07
1858.91
1818.01
1738.7
1674.88
1513.51
1477.51
1474.46
1556.11
1652.91
1829.75
1918.12
1936.68
1936.86
1936.24
1934.89
1933.78
1933.81
1935.32
1937.7
1929.06
1928.45
1931.67
1942.7
1954.01
1958.66
1964.83
1533.67
1390.86
1878.59
1832.42
1833.29
1840.98
1911.72
1925.05
1924.46
1923.27
1923.04
1923.19
1923.17
1880.47
1800.27
1676.71
1677.16
1676.3
1727.23
1792.42
1876.37
1929.54
1930.31
1931.44
1932.8
1934.06
1935.31
1936.28
1937.47
1939.29
1941.12
1943.46
1941.56
1934
1937.58
1941.34
1949.06
1964.77
1969.88
1975.91
1637.49
1400.07
1885.84
1830.85
1831.63
1873.64
1924.46
1925.86
1925.85
1925.81
1925.8
1925.84
1925.9
1914.55
1897.31
1868.25
1862.28
1897.25
1928.05
1928.21
1928.44
1928.96
1929.7
1930.74
1932.09
1933.27
1932.14
1932.86
1937.87
1943.24
1946.28
1949.5
1938.72
1941.88
1946.14
1950.58
1959.74
1975.49
1980.86
1986.86
1734.96
1412.42
1890.7
1890.83
1900.59
1922.72
1926.27
1926.97
1927.45
1926.38
1923.87
1920.84
1920.88
1926.63
1929.52
1929.71
1929.98
1930.19
1930.25
1929.8
1929.51
1929.26
1929.11
1929.65
1929.87
1928.24
1928.95
1933.27
1939.89
1946.05
1950.36
1952.92
1944.64
1949.04
1954.37
1959.56
1976.6
1986.51
1992
1997.94
1816.61
1424.1
1887.63
1924.67
1925.84
1926.98
1928.08
1928.25
1925.93
1917.68
1917.91
1918.73
1919.49
1920.12
1930.14
1934.2
1934.71
1934.58
1933.94
1932.39
1931.11
1930.07
1928.5
1926.92
1926.05
1923.78
1928.93
1937.38
1943.06
1948.01
1953.54
1959.56
1961.88
1956.24
1962.67
1972.85
1991.01
1998.14
2004.6
2011.65
1898.61
1436.52
1890.22
1927.32
1928.3
1929.41
1930.58
1929.32
1919.01
1920.07
1921.29
1922.52
1923.75
1926.35
1936.4
1940.33
1940.95
1940.58
1939.5
1937.53
1933.98
1893.24
1827.27
1798.67
1809.83
1858.83
1915.56
1934.27
1942.27
1948.9
1955.93
1963.56
1971.54
1974.64
1974.13
1993.88
2002.88
2009.8
2017.5
2025.35
1973.43
1490.11
1893.41
1930.26
1931.08
1931.54
1933.25
1934.46
1923.13
1923.26
1924.85
1928.68
1939.04
1944.2
1945.88
1947.45
1948.81
1949.47
1947.52
1854.62
1587.65
1244.5
1051.2
1030.84
1055.33
1173.66
1432.4
1755.8
1927.74
1947.15
1956.92
1967.06
1977.26
1987.34
1997.17
2006.53
2015.26
2022.74
2031.09
2040.51
2033.22
1570.22
1903.12
1933.19
1932.18
1922.53
1924.38
1928.69
1925.14
1927.79
1942.18
1944.95
1947.12
1949.54
1952.29
1955.53
1958.85
1935.35
1694.31
1071.3
858.838
857.533
857.299
857.384
857.521
857.667
858.165
986.248
1490.23
1899.27
1952.11
1969.7
1983.56
1996.08
2007.81
2018.78
2028.76
2037.49
2046.69
2057.26
2068.59
1638.23
1916.66
1935.98
1933.38
1925.02
1925.02
1926.41
1927.91
1937.9
1946.13
1948.37
1950.91
1953.95
1957.83
1962.91
1967.16
1507.28
882.364
857.972
856.713
856.858
856.985
857.003
857.154
857.379
857.527
857.433
880.313
1441.68
1932.39
1972.35
1991.52
2006.88
2020.41
2032.78
2044.23
2054.05
2064.17
2076.02
2089.91
1704.51
1928.6
1938.42
1939.57
1940.82
1942.07
1932.1
1938.42
1946.68
1948.59
1950.71
1953.2
1956.22
1960.09
1964.98
1931.09
1275.11
873.308
859.413
857.531
857.19
857.412
857.141
857.337
857.324
857.597
857.843
857.265
1048.53
1808.7
1981.04
2003.4
2020.9
2035.47
2048.52
2060.65
2072.04
2082.8
2096.88
2114.99
1776.94
1925.55
1940.64
1942.03
1943.33
1944.69
1946.05
1947.44
1948.89
1950.4
1952.04
1953.88
1955.99
1958.39
1960.95
1963.03
1818.36
1359.54
988.227
884.692
859.018
856.934
857.512
857.215
857.59
858.055
858.848
859.704
1000.95
1762.02
2000.53
2022.11
2038.62
2052.31
2064.65
2076.35
2087.94
2098.9
2113.85
2133.37
1846.22
1917.47
1942.79
1944.51
1945.72
1946.71
1948.55
1949.85
1950.9
1951.89
1952.9
1954.03
1955.35
1956.72
1957.95
1954.67
1941.07
1930.43
1853.37
1633.75
1360.46
1124.93
979.485
911.247
882.793
881.053
880.554
944.294
1525.83
2020.55
2034.26
2045.57
2056.93
2067.63
2078.02
2088.5
2099.46
2110.6
2125.86
2146.77
1901.04
1919.97
1944.8
1946.89
1948.45
1948.93
1950.47
1951.8
1952.35
1952.63
1952.8
1952.72
1953.43
1941.76
1930.11
1839.58
1807.85
1857.46
1937.5
1954.77
1966.54
1969.2
1896.46
1712.2
1489.8
1506.01
1729.87
2021.03
2049.17
2048.18
2051.09
2057.66
2065.74
2074.36
2083.46
2093.18
2103.86
2115.27
2131.04
2153.28
1947.16
1929.6
1946.3
1948.69
1950.31
1950.9
1951.95
1952.38
1947.48
1926.12
1890.76
1859.47
1863.05
1794.02
1798.07
1798.89
1799.4
1800.5
1801.72
1870.42
1956.58
1964.29
1971.77
1980.96
1992.53
2005.06
2015.86
2023.23
2028.4
2034
2041.28
2049.74
2058.68
2067.83
2077.34
2087.47
2098.63
2110.81
2127.48
2151.11
1983.74
1929.91
1946.79
1949.65
1950.22
1933.62
1893.17
1859.56
1806.94
1782.16
1785.73
1782.82
1780.01
1778.61
1812.07
1813.58
1781.98
1781.28
1782.32
1852.55
1936.46
1941.4
1946.65
1953.54
1961.89
1971.26
1980.92
1990.4
1999.86
2009.53
2019.49
2029.58
2039.68
2049.8
2060.14
2071.05
2083.01
2096.13
2113.73
2138.6
1991.22
1917.72
1930.38
1877.71
1830.17
1750.34
1758.95
1759.03