/*--------------------------------*- C++ -*----------------------------------*\
  =========                 |
  \\      /  F ield         | OpenFOAM: The Open Source CFD Toolbox
   \\    /   O peration     | Website:  https://openfoam.org
    \\  /    A nd           | Version:  8
     \\/     M anipulation  |
\*---------------------------------------------------------------------------*/
FoamFile
{
    version     2.0;
    format      ascii;
    class       surfaceScalarField;
    location    "3.6";
    object      phi;
}
// * * * * * * * * * * * * * * * * * * * * * * * * * * * * * * * * * * * * * //

dimensions      [0 3 -1 0 0 0 0];

internalField   nonuniform List<scalar> 
18095
(
1.57954e-07
-9.65988e-07
8.08034e-07
1.6513e-07
-1.24801e-06
1.24083e-06
1.2212e-07
-1.24212e-06
1.28513e-06
6.53474e-08
-1.26339e-06
1.32016e-06
9.04265e-11
-1.28037e-06
1.34563e-06
-6.51827e-08
-1.28039e-06
1.34566e-06
-1.21995e-07
-1.26343e-06
1.32025e-06
-1.65049e-07
-1.24217e-06
1.28522e-06
-1.57922e-07
-1.24805e-06
1.24092e-06
-9.66089e-07
8.08167e-07
1.10923e-07
-1.07691e-06
9.9293e-08
-1.23638e-06
7.28135e-08
-1.21564e-06
4.00517e-08
-1.23063e-06
6.08415e-11
-1.24038e-06
-3.99392e-08
-1.24039e-06
-7.2724e-08
-1.23065e-06
-9.9226e-08
-1.21567e-06
-1.10885e-07
-1.23639e-06
-1.07697e-06
6.70329e-08
-1.14394e-06
5.26676e-08
-1.22201e-06
4.209e-08
-1.20506e-06
2.38579e-08
-1.21239e-06
3.89526e-11
-1.21656e-06
-2.37851e-08
-1.21656e-06
-4.20311e-08
-1.2124e-06
-5.26228e-08
-1.20507e-06
-6.70006e-08
-1.22201e-06
-1.14397e-06
3.95448e-08
-1.18349e-06
2.65883e-08
-1.20906e-06
2.19885e-08
-1.20046e-06
1.25203e-08
-1.20293e-06
2.20351e-11
-1.20406e-06
-1.24789e-08
-1.20406e-06
-2.19544e-08
-1.20293e-06
-2.65628e-08
-1.20047e-06
-3.95231e-08
-1.20905e-06
-1.1835e-06
1.65118e-08
7.45622e-09
6.99464e-09
4.06966e-09
7.40547e-12
-4.05569e-09
-6.98332e-09
-7.44853e-09
-1.65029e-08
-1.73509e-07
-1.16423e-06
1.33774e-06
-2.17265e-07
-1.21573e-06
1.25949e-06
-1.63816e-07
-1.21229e-06
1.15885e-06
-8.61236e-08
-1.20381e-06
1.12612e-06
9.77841e-10
-1.20248e-06
1.11537e-06
8.8054e-08
-1.20263e-06
1.11555e-06
1.65557e-07
-1.20422e-06
1.12671e-06
2.18841e-07
-1.21288e-06
1.15959e-06
1.74969e-07
-1.21655e-06
1.26042e-06
-1.16519e-06
1.34015e-06
-9.31637e-08
-1.07107e-06
-9.5465e-08
-1.21343e-06
-7.87929e-08
-1.22897e-06
-4.3673e-08
-1.23893e-06
5.55653e-10
-1.2467e-06
4.47403e-08
-1.24681e-06
7.97452e-08
-1.23922e-06
9.62474e-08
-1.22938e-06
9.36125e-08
-1.21392e-06
-1.07157e-06
-5.78139e-08
-1.01325e-06
-5.49796e-08
-1.21627e-06
-4.62267e-08
-1.23772e-06
-2.6788e-08
-1.25837e-06
3.34946e-10
-1.27383e-06
2.74259e-08
-1.2739e-06
4.67732e-08
-1.25857e-06
5.53792e-08
-1.23798e-06
5.80091e-08
-1.21655e-06
-1.01356e-06
-7.44463e-08
-9.38807e-07
-6.15891e-08
-1.22912e-06
-4.83181e-08
-1.25099e-06
-2.75468e-08
-1.27914e-06
2.08372e-10
-1.30158e-06
2.79404e-08
-1.30163e-06
4.86453e-08
-1.27927e-06
6.18105e-08
-1.25115e-06
7.45496e-08
-1.22928e-06
-9.39014e-07
-1.30774e-07
-1.19065e-07
-8.49264e-08
-4.3909e-08
1.35633e-10
4.41637e-08
8.51349e-08
1.19207e-07
1.30847e-07
-3.20714e-08
-9.20543e-07
9.52614e-07
1.36092e-08
-1.33896e-06
1.29328e-06
1.81004e-08
-1.27452e-06
1.27003e-06
1.31387e-08
-1.22574e-06
1.23071e-06
8.50809e-09
-1.22277e-06
1.2274e-06
4.24384e-09
-1.22401e-06
1.22828e-06
-1.85828e-09
-1.22574e-06
1.23184e-06
8.71191e-09
-1.27213e-06
1.26156e-06
6.52106e-08
-1.34294e-06
1.28644e-06
-9.52641e-07
1.01785e-06
1.83596e-08
-9.38903e-07
2.65116e-08
-1.34712e-06
1.86972e-08
-1.26671e-06
1.25536e-08
-1.2196e-06
6.43042e-09
-1.21665e-06
4.2743e-11
-1.21763e-06
-6.0084e-09
-1.21968e-06
-1.04147e-08
-1.26772e-06
-3.90614e-09
-1.34945e-06
-9.56547e-07
3.16194e-08
-9.70522e-07
2.29643e-08
-1.33846e-06
1.50153e-08
-1.25876e-06
1.02532e-08
-1.21484e-06
4.3801e-09
-1.21077e-06
-2.0319e-09
-1.21121e-06
-6.80258e-09
-1.21491e-06
-1.48774e-08
-1.25965e-06
-2.41621e-08
-1.34016e-06
-9.80709e-07
8.08751e-08
-1.0514e-06
5.39997e-08
-1.31159e-06
3.55043e-08
-1.24026e-06
2.32147e-08
-1.20255e-06
2.61225e-09
-1.19017e-06
-1.82442e-08
-1.19036e-06
-2.98157e-08
-1.20334e-06
-4.79685e-08
-1.2415e-06
-7.57692e-08
-1.31236e-06
-1.05648e-06
2.86343e-07
2.34246e-07
1.5283e-07
7.64015e-08
1.60536e-09
-7.32039e-08
-1.49832e-07
-2.31738e-07
-2.83676e-07
7.9075e-08
-1.64738e-09
-7.74276e-08
8.07323e-08
-1.65729e-09
8.23565e-08
-1.62414e-09
8.38853e-08
-1.52884e-09
8.52333e-08
-1.34811e-09
8.62869e-08
-1.05359e-09
8.68904e-08
-6.03504e-10
8.68666e-08
2.38658e-11
8.58511e-08
1.01549e-09
2.19972e-09
8.36515e-08
7.4416e-08
-2.61139e-09
-7.3452e-08
7.53231e-08
-2.56436e-09
7.61432e-08
-2.44428e-09
7.68398e-08
-2.22547e-09
7.73595e-08
-1.86783e-09
7.76458e-08
-1.33988e-09
7.76289e-08
-5.86526e-10
7.71796e-08
4.73202e-10
7.62981e-08
1.89711e-09
3.73124e-09
7.47667e-08
6.87324e-08
-3.04718e-09
-6.82966e-08
6.90768e-08
-2.90876e-09
6.93183e-08
-2.68575e-09
6.94277e-08
-2.33481e-09
6.94085e-08
-1.84861e-09
6.92287e-08
-1.16004e-09
6.8849e-08
-2.06842e-10
6.82181e-08
1.10421e-09
6.7262e-08
2.8533e-09
5.11764e-09
6.58756e-08
6.30132e-08
-3.03407e-09
-6.30264e-08
6.28853e-08
-2.78043e-09
6.26488e-08
-2.44915e-09
6.23253e-08
-2.01123e-09
6.1909e-08
-1.43221e-09
6.14186e-08
-6.69545e-10
6.08623e-08
3.49557e-10
6.02464e-08
1.7202e-09
5.95527e-08
3.54707e-09
5.95372e-09
5.87167e-08
5.74077e-08
-2.61036e-09
-5.78313e-08
5.68369e-08
-2.20892e-09
5.61232e-08
-1.73533e-09
5.52985e-08
-1.18645e-09
5.44046e-08
-5.38251e-10
5.34849e-08
2.50228e-10
5.2595e-08
1.23966e-09
5.17904e-08
2.52485e-09
5.11124e-08
4.22515e-09
6.49217e-09
5.05741e-08
5.21668e-08
-1.81892e-09
-5.29579e-08
5.11495e-08
-1.19122e-09
4.99182e-08
-5.03947e-10
4.85084e-08
2.23511e-10
4.69786e-08
9.91721e-10
4.53996e-08
1.82939e-09
4.38416e-08
2.79778e-09
4.2373e-08
3.99365e-09
4.10517e-08
5.54648e-09
7.62009e-09
3.99237e-08
4.77292e-08
-7.53794e-10
-4.87941e-08
4.63283e-08
2.09736e-10
4.46105e-08
1.214e-09
4.26272e-08
2.20699e-09
4.04684e-08
3.15055e-09
3.82495e-08
4.04839e-09
3.60846e-08
4.96265e-09
3.40748e-08
6.00356e-09
3.23069e-08
7.31438e-09
9.05702e-09
3.08701e-08
4.45104e-08
4.38486e-10
-4.57027e-08
4.28351e-08
1.88503e-09
4.06894e-08
3.35982e-09
3.81548e-08
4.74176e-09
3.5389e-08
5.91649e-09
3.26032e-08
6.83423e-09
2.99879e-08
7.57805e-09
2.76865e-08
8.30508e-09
2.58028e-08
9.19805e-09
1.04368e-08
2.4423e-08
4.27894e-08
1.61164e-09
-4.39625e-08
4.09416e-08
3.73302e-09
3.83982e-08
5.9033e-09
3.52572e-08
7.88271e-09
3.17986e-08
9.37513e-09
2.84413e-08
1.01915e-08
2.54919e-08
1.05274e-08
2.31359e-08
1.06612e-08
2.14679e-08
1.08661e-08
1.13939e-08
2.05109e-08
4.25558e-08
2.64451e-09
-4.35886e-08
4.06592e-08
5.62952e-09
3.77319e-08
8.83065e-09
3.37801e-08
1.18345e-08
2.93261e-08
1.38292e-08
2.51842e-08
1.43335e-08
2.19592e-08
1.37526e-08
1.97409e-08
1.28794e-08
1.8396e-08
1.2211e-08
1.19244e-08
1.78655e-08
4.30364e-08
3.27978e-09
-4.36717e-08
4.14293e-08
7.23663e-09
3.85453e-08
1.17147e-08
3.37445e-08
1.66353e-08
2.75117e-08
2.0062e-08
2.26002e-08
1.9245e-08
1.94734e-08
1.68792e-08
1.75606e-08
1.47922e-08
1.66076e-08
1.3164e-08
1.21309e-08
1.64011e-08
4.26068e-08
3.4868e-09
-4.28138e-08
4.15537e-08
8.28963e-09
3.9061e-08
1.42074e-08
3.49639e-08
2.07325e-08
2.66613e-08
2.83646e-08
2.25068e-08
2.33995e-08
1.99698e-08
1.94163e-08
1.83334e-08
1.64284e-08
1.73176e-08
1.41798e-08
1.26789e-08
1.67695e-08
3.97406e-08
3.59656e-09
-3.98504e-08
3.92806e-08
8.74975e-09
3.69914e-08
1.64967e-08
3.4324e-08
2.33999e-08
3.55176e-08
2.71709e-08
3.20821e-08
2.68349e-08
2.81386e-08
2.33596e-08
2.51235e-08
1.94435e-08
2.29808e-08
1.63226e-08
1.44136e-08
2.12462e-08
3.42793e-08
4.35091e-09
-3.50337e-08
3.35784e-08
9.4507e-09
3.40468e-08
1.60283e-08
3.46011e-08
2.28456e-08
3.54109e-08
2.63611e-08
3.53627e-08
2.68833e-08
3.35059e-08
2.52164e-08
3.12301e-08
2.17195e-08
2.91001e-08
1.84526e-08
1.66012e-08
2.69125e-08
3.07482e-08
5.54669e-09
-3.19439e-08
2.98988e-08
1.03004e-08
3.04006e-08
1.55265e-08
3.20994e-08
2.11467e-08
3.44103e-08
2.405e-08
3.73328e-08
2.39606e-08
3.80319e-08
2.45174e-08
3.69984e-08
2.2753e-08
3.48169e-08
2.06341e-08
1.91331e-08
3.2285e-08
3.17979e-08
6.52489e-09
-3.27761e-08
3.11962e-08
1.0902e-08
3.13925e-08
1.53301e-08
3.32329e-08
1.93061e-08
3.53652e-08
2.19178e-08
3.69341e-08
2.23918e-08
3.80634e-08
2.33881e-08
3.78697e-08
2.29467e-08
3.634e-08
2.21638e-08
2.12838e-08
3.41893e-08
3.5774e-08
6.98232e-09
-3.62314e-08
3.55826e-08
1.10932e-08
3.59095e-08
1.50031e-08
3.68331e-08
1.83825e-08
3.78836e-08
2.08672e-08
3.77324e-08
2.2543e-08
3.7659e-08
2.34615e-08
3.67763e-08
2.38293e-08
3.52136e-08
2.37263e-08
2.33602e-08
3.31372e-08
3.90959e-08
7.35056e-09
-3.94643e-08
3.86788e-08
1.15099e-08
3.83211e-08
1.53607e-08
3.80084e-08
1.86951e-08
3.75198e-08
2.13558e-08
3.67398e-08
2.33229e-08
3.5512e-08
2.46892e-08
3.38461e-08
2.54952e-08
3.17543e-08
2.5818e-08
2.57515e-08
2.9363e-08
4.04454e-08
7.97041e-09
-4.10653e-08
3.94216e-08
1.25336e-08
3.80847e-08
1.66975e-08
3.65372e-08
2.02427e-08
3.48225e-08
2.30705e-08
3.28964e-08
2.52489e-08
3.06883e-08
2.68971e-08
2.81578e-08
2.80256e-08
2.53673e-08
2.86084e-08
2.86842e-08
2.24346e-08
3.90945e-08
9.03186e-09
-4.01561e-08
3.71991e-08
1.44291e-08
3.46093e-08
1.92873e-08
3.16493e-08
2.32026e-08
2.86505e-08
2.60693e-08
2.56493e-08
2.82499e-08
2.24474e-08
3.0099e-08
1.89362e-08
3.15367e-08
1.52686e-08
3.22761e-08
3.23353e-08
1.16174e-08
3.45278e-08
1.05089e-08
-3.60048e-08
3.15231e-08
1.74339e-08
2.72061e-08
2.36043e-08
2.23471e-08
2.80616e-08
1.79161e-08
3.05003e-08
1.40181e-08
3.21478e-08
9.87059e-09
3.42465e-08
5.11878e-09
3.62884e-08
2.52105e-10
3.71426e-08
3.68865e-08
-4.29924e-09
2.63403e-08
1.18812e-08
-2.77126e-08
2.28773e-08
2.08968e-08
1.61359e-08
3.03455e-08
7.75864e-09
3.64387e-08
1.24754e-09
3.70112e-08
-2.81395e-09
3.62092e-08
-7.92438e-09
3.93568e-08
-1.54129e-08
4.37769e-08
-2.24052e-08
4.41349e-08
4.13654e-08
-2.68841e-08
1.17508e-08
1.2515e-08
-1.23847e-08
8.74139e-09
2.39059e-08
1.56542e-09
3.75215e-08
-1.08152e-08
4.88192e-08
-2.10137e-08
4.72096e-08
-3.04551e-08
4.56506e-08
-3.95161e-08
4.84177e-08
-4.78674e-08
5.21281e-08
-5.48159e-08
5.10833e-08
4.67092e-08
-6.01598e-08
-1.76275e-08
1.43093e-08
1.58331e-08
-2.23098e-08
2.85882e-08
-2.88209e-08
4.40325e-08
-3.35461e-08
5.35442e-08
-4.37486e-08
5.74121e-08
-5.64549e-08
5.83568e-08
-6.69311e-08
5.88939e-08
-7.25616e-08
5.77585e-08
-7.03256e-08
4.88471e-08
4.47578e-08
-6.83743e-08
-5.59437e-08
1.88424e-08
5.14106e-08
-5.93651e-08
3.20096e-08
-6.07357e-08
4.5403e-08
-6.16516e-08
5.44603e-08
-6.31313e-08
5.88918e-08
-6.50221e-08
6.02475e-08
-6.54058e-08
5.92773e-08
-6.36638e-08
5.60164e-08
-6.65476e-08
5.17308e-08
4.77402e-08
-6.953e-08
-8.39927e-08
2.32077e-08
7.96274e-08
-8.71696e-08
3.51864e-08
-8.49582e-08
4.31916e-08
-8.09124e-08
5.04146e-08
-7.87587e-08
5.67381e-08
-7.40211e-08
5.55099e-08
-7.04984e-08
5.57546e-08
-6.95015e-08
5.50194e-08
-7.20306e-08
5.42599e-08
5.3595e-08
-7.78855e-08
-9.82314e-08
2.88155e-08
9.26236e-08
-9.64221e-08
3.33774e-08
-9.41769e-08
4.09463e-08
-9.02018e-08
4.64395e-08
-8.45396e-08
5.10758e-08
-8.29565e-08
5.39268e-08
-8.25606e-08
5.53588e-08
-8.48271e-08
5.7286e-08
-9.03203e-08
5.97531e-08
6.26542e-08
-9.93794e-08
-9.85649e-08
2.86316e-08
9.87489e-08
-9.85142e-08
3.33268e-08
-9.62035e-08
3.86357e-08
-9.38846e-08
4.41205e-08
-9.21945e-08
4.93857e-08
-9.25117e-08
5.42439e-08
-9.60969e-08
5.8944e-08
-1.02706e-07
6.38947e-08
-1.12336e-07
6.93834e-08
7.54239e-08
-1.25106e-07
-1.02097e-07
2.83116e-08
1.02417e-07
-1.01482e-07
3.27122e-08
-1.01167e-07
3.83204e-08
-1.01688e-07
4.46415e-08
-1.03717e-07
5.14147e-08
-1.07978e-07
5.85045e-08
-1.15021e-07
6.5987e-08
-1.2506e-07
7.39341e-08
-1.38081e-07
8.24039e-08
9.13568e-08
-1.54013e-07
-1.03184e-07
2.88405e-08
1.02655e-07
-1.04817e-07
3.43445e-08
-1.07512e-07
4.10145e-08
-1.11602e-07
4.87318e-08
-1.1754e-07
5.73523e-08
-1.25773e-07
6.67371e-08
-1.36578e-07
7.67914e-08
-1.50086e-07
8.7443e-08
-1.66278e-07
9.85957e-08
1.10115e-07
-1.85036e-07
-1.08285e-07
3.08603e-08
1.06265e-07
-1.11967e-07
3.80267e-08
-1.17322e-07
4.63694e-08
-1.24643e-07
5.60525e-08
-1.34174e-07
6.68831e-08
-1.46095e-07
7.8659e-08
-1.60487e-07
9.11825e-08
-1.77313e-07
1.04269e-07
-1.96439e-07
1.17722e-07
1.31332e-07
-2.17657e-07
-1.15892e-07
3.50145e-08
1.11737e-07
-1.21724e-07
4.38586e-08
-1.29745e-07
5.43906e-08
-1.40188e-07
6.64952e-08
-1.53194e-07
7.9889e-08
-1.68707e-07
9.41719e-08
-1.8659e-07
1.09065e-07
-2.06629e-07
1.24308e-07
-2.2854e-07
1.39632e-07
1.54751e-07
-2.51958e-07
-1.24092e-07
4.10766e-08
1.18029e-07
-1.32399e-07
5.21654e-08
-1.43319e-07
6.53114e-08
-1.57149e-07
8.03246e-08
-1.7382e-07
9.65603e-08
-1.9309e-07
1.13441e-07
-2.14561e-07
1.30536e-07
-2.3787e-07
1.47617e-07
-2.62663e-07
1.64425e-07
1.80504e-07
-2.88416e-07
-1.33938e-07
4.87502e-08
1.26264e-07
-1.44324e-07
6.25512e-08
-1.57974e-07
7.89618e-08
-1.75258e-07
9.7608e-08
-1.95683e-07
1.16985e-07
-2.19068e-07
1.36827e-07
-2.43944e-07
1.55412e-07
-2.70326e-07
1.74e-07
-2.98181e-07
1.9228e-07
2.0929e-07
-3.26968e-07
-1.44176e-07
5.76671e-08
1.35258e-07
-1.56159e-07
7.45343e-08
-1.71694e-07
9.4497e-08
-1.92584e-07
1.18497e-07
-2.19467e-07
1.43868e-07
-2.46226e-07
1.63586e-07
-2.73114e-07
1.82301e-07
-3.01198e-07
2.02083e-07
-3.31351e-07
2.22433e-07
2.43107e-07
-3.65167e-07
-1.55153e-07
6.7852e-08
1.44968e-07
-1.68448e-07
8.7829e-08
-1.86058e-07
1.12107e-07
-2.11186e-07
1.43625e-07
-2.43858e-07
1.7654e-07
-2.71742e-07
1.9147e-07
-2.98553e-07
2.09112e-07
-3.27712e-07
2.31242e-07
-3.62201e-07
2.56922e-07
2.85421e-07
-4.04516e-07
-1.65044e-07
7.85389e-08
1.54357e-07
-1.78562e-07
1.01347e-07
-1.98413e-07
1.31958e-07
-2.30887e-07
1.76099e-07
-2.59888e-07
2.05541e-07
-2.85254e-07
2.16836e-07
-3.10835e-07
2.34693e-07
-3.43798e-07
2.64205e-07
-3.85894e-07
2.99019e-07
3.31021e-07
-4.31495e-07
-1.70294e-07
8.80825e-08
1.6075e-07
-1.82464e-07
1.13517e-07
-2.02226e-07
1.51719e-07
-2.31149e-07
2.05022e-07
-2.55867e-07
2.30258e-07
-2.79449e-07
2.40418e-07
-3.095e-07
2.64744e-07
-3.46012e-07
3.00718e-07
-3.99829e-07
3.52836e-07
3.70347e-07
-4.39155e-07
-1.8166e-07
9.95481e-08
1.70195e-07
-1.98546e-07
1.30403e-07
-2.22813e-07
1.75986e-07
-2.28731e-07
2.1094e-07
-2.27367e-07
2.28894e-07
-2.43003e-07
2.56054e-07
-2.71569e-07
2.93309e-07
-3.32276e-07
3.61425e-07
-3.85501e-07
4.0606e-07
4.0236e-07
-4.17515e-07
-1.88121e-07
1.15656e-07
1.72013e-07
-2.14191e-07
1.56472e-07
-2.33498e-07
1.95294e-07
-2.2666e-07
2.04101e-07
-2.20533e-07
2.22767e-07
-2.19333e-07
2.54854e-07
-2.33909e-07
3.07885e-07
-3.06537e-07
4.34053e-07
-3.46498e-07
4.46022e-07
4.24567e-07
-3.68705e-07
-1.66947e-07
1.22964e-07
1.59639e-07
-2.21049e-07
2.10573e-07
-2.30877e-07
2.05121e-07
-2.20255e-07
1.9348e-07
-2.03861e-07
2.06374e-07
-1.91723e-07
2.42717e-07
-1.95077e-07
3.11238e-07
-2.98584e-07
5.3756e-07
-3.10332e-07
4.57769e-07
4.26549e-07
-3.12314e-07
-1.97125e-07
1.37811e-07
1.82278e-07
-2.73865e-07
2.87314e-07
-2.7179e-07
2.03046e-07
-2.56425e-07
1.78115e-07
-2.37019e-07
1.86968e-07
-2.24935e-07
2.30632e-07
-2.57429e-07
3.43732e-07
-2.57245e-07
5.37375e-07
-2.44788e-07
4.4531e-07
4.15338e-07
-2.33577e-07
-2.46299e-07
1.62466e-07
2.21644e-07
-2.83336e-07
3.24353e-07
-2.71466e-07
1.91175e-07
-2.63056e-07
1.69706e-07
-2.60511e-07
1.84423e-07
-2.61693e-07
2.31814e-07
-2.58153e-07
3.40196e-07
-1.7589e-07
4.55117e-07
-1.59009e-07
4.28432e-07
4.07204e-07
-1.50874e-07
-2.54632e-07
1.49502e-07
2.67596e-07
-1.89547e-07
2.59275e-07
-2.28386e-07
2.30013e-07
-2.77025e-07
2.18344e-07
-3.19517e-07
2.26914e-07
-3.49061e-07
2.61356e-07
-3.25313e-07
3.16443e-07
-2.29058e-07
3.5886e-07
-1.66589e-07
3.65962e-07
3.6577e-07
-1.25153e-07
-3.4611e-07
1.52148e-07
3.43464e-07
-3.21578e-07
2.34742e-07
-3.51716e-07
2.60153e-07
-4.01991e-07
2.68622e-07
-4.56106e-07
2.8103e-07
-4.94567e-07
2.9982e-07
-4.95586e-07
3.17467e-07
-4.66264e-07
3.29536e-07
-4.31597e-07
3.31295e-07
3.28137e-07
-3.93964e-07
-4.43852e-07
1.77125e-07
4.18876e-07
-4.61219e-07
2.5211e-07
-4.93293e-07
2.92226e-07
-5.36099e-07
3.11428e-07
-5.77013e-07
3.21943e-07
-6.04475e-07
3.27286e-07
-6.16763e-07
3.29757e-07
-6.15538e-07
3.28316e-07
-6.04565e-07
3.20325e-07
3.02642e-07
-5.79068e-07
-5.09648e-07
2.13378e-07
4.73397e-07
-5.32098e-07
2.74555e-07
-5.54875e-07
3.15005e-07
-5.74657e-07
3.31209e-07
-5.85214e-07
3.32496e-07
-5.7953e-07
3.216e-07
-5.58181e-07
3.08403e-07
-5.23912e-07
2.94042e-07
-4.81939e-07
2.78353e-07
2.52605e-07
-4.31904e-07
-5.14327e-07
2.36798e-07
4.90909e-07
-5.12041e-07
2.72267e-07
-4.96883e-07
2.99851e-07
-4.8221e-07
3.1654e-07
-4.63187e-07
3.13476e-07
-4.37592e-07
2.96007e-07
-4.03842e-07
2.74655e-07
-3.6164e-07
2.51842e-07
-3.1368e-07
2.30395e-07
2.08892e-07
-2.69966e-07
-4.91753e-07
2.51252e-07
4.77299e-07
-4.87786e-07
2.683e-07
-4.68653e-07
2.80716e-07
-4.33819e-07
2.81704e-07
-3.95119e-07
2.74774e-07
-3.58279e-07
2.59165e-07
-3.23675e-07
2.40051e-07
-2.9128e-07
2.19446e-07
-2.60268e-07
1.99382e-07
1.79802e-07
-2.31178e-07
-4.46144e-07
2.58716e-07
4.3868e-07
-4.44081e-07
2.66236e-07
-4.31059e-07
2.67695e-07
-4.09699e-07
2.60344e-07
-3.80934e-07
2.46009e-07
-3.49343e-07
2.27575e-07
-3.17427e-07
2.08135e-07
-2.86118e-07
1.88138e-07
-2.55451e-07
1.68715e-07
1.49626e-07
-2.25275e-07
-4.04509e-07
2.63624e-07
3.99601e-07
-4.05672e-07
2.67399e-07
-4.01181e-07
2.63204e-07
-3.88088e-07
2.47253e-07
-3.66262e-07
2.24182e-07
-3.38696e-07
2.00009e-07
-3.07795e-07
1.77234e-07
-2.75851e-07
1.56194e-07
-2.43776e-07
1.3664e-07
1.18133e-07
-2.12282e-07
-3.60466e-07
2.61451e-07
3.62639e-07
-3.66896e-07
2.73828e-07
-3.73888e-07
2.70196e-07
-3.62331e-07
2.35696e-07
-3.38258e-07
2.00109e-07
-3.0759e-07
1.69341e-07
-2.74702e-07
1.44346e-07
-2.4187e-07
1.23362e-07
-2.09937e-07
1.04707e-07
8.75397e-08
-1.79344e-07
-3.38892e-07
2.53115e-07
3.47228e-07
-3.3899e-07
2.73926e-07
-3.32846e-07
2.64053e-07
-3.04582e-07
2.07433e-07
-2.71726e-07
1.67253e-07
-2.38472e-07
1.36087e-07
-2.07164e-07
1.13039e-07
-1.77933e-07
9.41305e-08
-1.50689e-07
7.74625e-08
6.21959e-08
-1.25345e-07
-3.58556e-07
2.4921e-07
3.62465e-07
-3.16177e-07
2.31537e-07
-2.49212e-07
1.97089e-07
-1.98438e-07
1.56658e-07
-1.6273e-07
1.31545e-07
-1.37421e-07
1.10777e-07
-1.16244e-07
9.18626e-08
-9.68417e-08
7.47284e-08
-7.8374e-08
5.89949e-08
4.43135e-08
-6.04914e-08
-1.89599e-07
2.15138e-07
2.23668e-07
-1.4656e-07
1.88495e-07
-1.07879e-07
1.58407e-07
-8.42498e-08
1.33029e-07
-6.61237e-08
1.13419e-07
-5.13151e-08
9.59688e-08
-3.83078e-08
7.88554e-08
-2.57247e-08
6.21454e-08
-1.28682e-08
4.61384e-08
3.08449e-08
6.00551e-10
-4.85821e-08
1.92848e-07
7.08724e-08
-2.9927e-08
1.69841e-07
-1.84958e-08
1.46976e-07
-1.10974e-08
1.25631e-07
-3.54532e-09
1.05867e-07
5.2586e-09
8.71649e-08
1.51076e-08
6.90065e-08
2.58715e-08
5.13816e-08
3.76891e-08
3.43206e-08
1.78552e-08
5.06786e-08
-3.45976e-08
1.70145e-07
5.73001e-08
-1.67971e-08
1.5204e-07
-2.82488e-09
1.33003e-07
9.25365e-09
1.13552e-07
2.10196e-08
9.41015e-08
3.32405e-08
7.4944e-08
4.61014e-08
5.61454e-08
5.97525e-08
3.77305e-08
7.43222e-08
1.97507e-08
2.2542e-09
8.99228e-08
-4.63283e-08
1.45879e-07
7.05948e-08
-2.4518e-08
1.30229e-07
-4.63621e-09
1.13122e-07
1.39016e-08
9.50144e-08
3.16583e-08
7.63449e-08
4.91659e-08
5.74365e-08
6.68246e-08
3.84866e-08
8.49103e-08
1.96446e-08
1.03618e-07
1.04295e-09
-1.71971e-08
1.23069e-07
-4.70127e-08
1.21865e-07
7.10264e-08
-2.37478e-08
1.06964e-07
-1.2004e-09
9.05743e-08
2.07761e-08
7.30377e-08
4.24506e-08
5.46701e-08
6.41301e-08
3.5757e-08
8.60752e-08
1.65414e-08
1.0848e-07
-2.76067e-09
1.31471e-07
-2.19484e-08
-4.08333e-08
1.55108e-07
-3.73458e-08
9.91385e-08
6.00723e-08
-1.42612e-08
8.38797e-08
9.12767e-09
6.71854e-08
3.2864e-08
4.93014e-08
5.70471e-08
3.04868e-08
8.18068e-08
1.09971e-08
1.07263e-07
-8.91539e-09
1.33505e-07
-2.9002e-08
1.60576e-07
-4.90197e-08
-6.87376e-08
1.8848e-07
-2.21348e-08
7.77302e-08
4.3543e-08
3.93569e-10
6.13506e-08
2.40057e-08
4.35731e-08
4.87155e-08
2.45916e-08
7.45792e-08
4.62305e-09
1.01675e-07
-1.60988e-08
1.30074e-07
-3.7314e-08
1.59823e-07
-5.8751e-08
1.90941e-07
-8.01379e-08
-1.01208e-07
2.23411e-07
-4.95144e-09
5.76556e-08
2.50259e-08
1.67354e-08
3.96638e-08
4.00835e-08
2.02248e-08
6.5189e-08
-5.14006e-10
9.21847e-08
-2.23726e-08
1.21201e-07
-4.51152e-08
1.5235e-07
-6.84628e-08
1.85706e-07
-9.2107e-08
2.21292e-07
-1.15724e-07
-1.38986e-07
2.5907e-07
1.08795e-08
3.92385e-08
7.53754e-09
3.12576e-08
1.92859e-08
5.38171e-08
-2.33475e-09
7.88419e-08
-2.55389e-08
1.06638e-07
-5.01686e-08
1.37494e-07
-7.59712e-08
1.71632e-07
-1.026e-07
2.0916e-07
-1.29636e-07
2.50073e-07
-1.56637e-07
-1.83168e-07
2.94255e-07
2.30346e-08
2.30861e-08
-6.88217e-09
4.1429e-08
8.9191e-10
6.25557e-08
-2.34615e-08
8.69895e-08
-4.99731e-08
1.15347e-07
-7.8527e-08
1.48183e-07
-1.08807e-07
1.85839e-07
-1.40257e-07
2.28365e-07
-1.72161e-07
2.75638e-07
-2.0391e-07
-2.35104e-07
3.27574e-07
3.07458e-08
1.00533e-08
-1.7713e-08
4.62156e-08
-1.45779e-08
6.49387e-08
-4.21843e-08
8.7938e-08
-7.29724e-08
1.16335e-07
-1.06924e-07
1.51102e-07
-1.43574e-07
1.92772e-07
-1.81926e-07
2.41326e-07
-2.20715e-07
2.9675e-07
-2.59334e-07
-2.9787e-07
3.59517e-07
3.5124e-08
1.07222e-09
-2.6143e-08
4.63775e-08
-2.58321e-08
6.1081e-08
-5.68878e-08
8.08506e-08
-9.2742e-08
1.07651e-07
-1.33724e-07
1.43497e-07
-1.7942e-07
1.90167e-07
-2.28596e-07
2.48576e-07
-2.79125e-07
3.18732e-07
-3.2949e-07
-3.78886e-07
3.99748e-07
4.01789e-08
-3.27227e-09
-3.58344e-08
4.58732e-08
-3.15266e-08
5.42388e-08
-6.52535e-08
6.75409e-08
-1.06044e-07
8.92471e-08
-1.5543e-07
1.25212e-07
-2.15385e-07
1.83029e-07
-2.86413e-07
2.61902e-07
-3.57998e-07
3.5934e-07
-4.26928e-07
-4.87167e-07
4.67621e-07
5.44933e-08
-3.92382e-09
-5.38416e-08
5.46359e-08
-3.16697e-08
5.4919e-08
-6.55366e-08
5.76693e-08
-1.08795e-07
7.08989e-08
-1.6866e-07
1.12629e-07
-2.57115e-07
1.97092e-07
-3.70876e-07
3.08701e-07
-4.69607e-07
4.26681e-07
-5.44907e-07
-6.04289e-07
5.43803e-07
8.9536e-08
-4.92673e-09
-8.85333e-08
8.7872e-08
-3.00057e-08
8.21649e-08
-5.98295e-08
7.13627e-08
-9.79924e-08
7.54914e-08
-1.72789e-07
1.47316e-07
-3.2894e-07
2.59628e-07
-4.83187e-07
3.77882e-07
-5.87862e-07
4.95317e-07
-6.62342e-07
-7.18899e-07
6.09927e-07
1.49294e-07
-1.22869e-08
-1.41934e-07
1.53648e-07
-3.43595e-08
1.51778e-07
-5.7959e-08
1.41589e-07
-8.78033e-08
1.53033e-07
-1.84233e-07
2.43845e-07
-4.19751e-07
3.44828e-07
-5.8417e-07
4.53666e-07
-6.967e-07
5.66553e-07
-7.75229e-07
-8.30441e-07
6.78095e-07
2.13049e-07
-2.63069e-08
-1.99028e-07
2.24596e-07
-4.59076e-08
2.30884e-07
-6.42463e-08
2.23967e-07
-8.08861e-08
2.63794e-07
-2.24058e-07
3.43599e-07
-4.99557e-07
4.41774e-07
-6.82345e-07
5.50703e-07
-8.05629e-07
6.57146e-07
-8.81672e-07
-9.30373e-07
7.57077e-07
2.60408e-07
-4.24885e-08
-2.44226e-07
2.74086e-07
-5.95862e-08
2.83531e-07
-7.36908e-08
3.08113e-07
-1.05469e-07
3.7592e-07
-2.91866e-07
4.48209e-07
-5.71845e-07
5.58157e-07
-7.92293e-07
6.62375e-07
-9.09846e-07
7.51157e-07
-9.70454e-07
-1.00887e-06
8.29657e-07
2.91719e-07
-5.79147e-08
-2.76293e-07
3.04345e-07
-7.22125e-08
3.15306e-07
-8.46514e-08
3.55465e-07
-1.45627e-07
4.33777e-07
-3.70178e-07
5.53936e-07
-6.92005e-07
6.67342e-07
-9.05699e-07
7.51469e-07
-9.93973e-07
8.17552e-07
-1.03654e-06
-1.06569e-06
8.7437e-07
3.09381e-07
-7.30563e-08
-2.9424e-07
3.23913e-07
-8.67447e-08
3.43191e-07
-1.0393e-07
4.16389e-07
-2.18824e-07
5.40689e-07
-4.94476e-07
6.76201e-07
-8.27517e-07
7.54821e-07
-9.84319e-07
8.07392e-07
-1.04654e-06
8.51424e-07
-1.08057e-06
-1.10512e-06
8.90857e-07
3.16734e-07
-8.82077e-08
-3.01582e-07
3.35535e-07
-1.05547e-07
3.66998e-07
-1.35391e-07
4.7573e-07
-3.27557e-07
6.45225e-07
-6.63971e-07
7.51129e-07
-9.33422e-07
7.99445e-07
-1.03263e-06
8.312e-07
-1.0783e-06
8.60268e-07
-1.10964e-06
-1.13243e-06
8.87573e-07
3.13745e-07
-1.02657e-07
-2.99296e-07
3.37517e-07
-1.2932e-07
4.03407e-07
-2.01282e-07
5.54009e-07
-4.78159e-07
7.1553e-07
-8.25491e-07
7.76661e-07
-9.94553e-07
8.05617e-07
-1.06159e-06
8.28222e-07
-1.1009e-06
8.49904e-07
-1.13132e-06
-1.15274e-06
8.70216e-07
3.01252e-07
-1.16007e-07
-2.87903e-07
3.24487e-07
-1.52555e-07
4.37079e-07
-3.13874e-07
6.26162e-07
-6.67242e-07
7.32718e-07
-9.32047e-07
7.69567e-07
-1.0314e-06
7.89328e-07
-1.08135e-06
8.07981e-07
-1.11956e-06
8.26557e-07
-1.1499e-06
-1.16951e-06
8.43328e-07
2.85906e-07
-1.34017e-07
-2.67896e-07
3.45872e-07
-2.1252e-07
5.13637e-07
-4.81639e-07
6.6951e-07
-8.23115e-07
7.1988e-07
-9.82418e-07
7.4049e-07
-1.05201e-06
7.5804e-07
-1.0989e-06
7.76468e-07
-1.13799e-06
7.94214e-07
-1.16764e-06
-1.18429e-06
8.08993e-07
2.42654e-07
-1.46212e-07
-2.30459e-07
3.49554e-07
-3.19419e-07
5.5011e-07
-6.82195e-07
6.47096e-07
-9.20101e-07
6.79876e-07
-1.0152e-06
6.98764e-07
-1.0709e-06
7.18004e-07
-1.11814e-06
7.37411e-07
-1.15739e-06
7.54413e-07
-1.18464e-06
-1.19658e-06
7.66707e-07
2.43227e-07
-1.92924e-07
-1.96515e-07
4.21797e-07
-4.97991e-07
5.63199e-07
-8.23597e-07
6.08097e-07
-9.64999e-07
6.29277e-07
-1.03638e-06
6.50469e-07
-1.09209e-06
6.72737e-07
-1.14041e-06
6.93215e-07
-1.17787e-06
7.09239e-07
-1.20067e-06
-1.20642e-06
7.19082e-07
2.41965e-07
-2.93148e-07
-1.4174e-07
4.26841e-07
-6.82869e-07
5.11575e-07
-9.08332e-07
5.47309e-07
-1.00073e-06
5.73572e-07
-1.06264e-06
5.99718e-07
-1.11824e-06
6.24516e-07
-1.16521e-06
6.45289e-07
-1.19864e-06
6.6027e-07
-1.21565e-06
-1.21499e-06
6.68832e-07
2.93226e-07
-4.65004e-07
-1.2137e-07
4.21689e-07
-8.11332e-07
4.65917e-07
-9.5256e-07
4.92756e-07
-1.02757e-06
5.2026e-07
-1.09014e-06
5.47793e-07
-1.14577e-06
5.72417e-07
-1.18983e-06
5.91868e-07
-1.2181e-06
6.05183e-07
-1.22896e-06
-1.22221e-06
6.12405e-07
2.68031e-07
-6.59275e-07
-7.376e-08
3.54295e-07
-8.97597e-07
3.97214e-07
-9.95479e-07
4.30328e-07
-1.06068e-06
4.61206e-07
-1.12102e-06
4.89297e-07
-1.17386e-06
5.12376e-07
-1.21291e-06
5.29235e-07
-1.23495e-06
5.39919e-07
-1.23965e-06
-1.22788e-06
5.45595e-07
2.51061e-07
-8.05276e-07
-1.0506e-07
3.12904e-07
-9.59439e-07
3.46564e-07
-1.02914e-06
3.76729e-07
-1.09085e-06
4.05184e-07
-1.14948e-06
4.2984e-07
-1.19852e-06
4.48457e-07
-1.23153e-06
4.602e-07
-1.2467e-06
4.64932e-07
-1.24438e-06
-1.22542e-06
4.62471e-07
2.41329e-07
-8.72502e-07
-1.74104e-07
2.68245e-07
-9.86355e-07
2.93003e-07
-1.0539e-06
3.19758e-07
-1.1176e-06
3.46242e-07
-1.17596e-06
3.68765e-07
-1.22104e-06
3.85195e-07
-1.24796e-06
3.95382e-07
-1.25688e-06
3.99395e-07
-1.24839e-06
-1.22222e-06
3.9619e-07
1.39772e-07
-9.40917e-07
-7.13571e-08
1.80918e-07
-1.0275e-06
2.18799e-07
-1.09178e-06
2.5369e-07
-1.1525e-06
2.83802e-07
-1.20607e-06
3.07201e-07
-1.24444e-06
3.23992e-07
-1.26475e-06
3.3587e-07
-1.26876e-06
3.44245e-07
-1.25677e-06
-1.22714e-06
3.49167e-07
8.80189e-08
-9.9985e-07
-2.90854e-08
1.32263e-07
-1.07174e-06
1.70544e-07
-1.13006e-06
2.03781e-07
-1.18573e-06
2.31149e-07
-1.23344e-06
2.51451e-07
-1.26474e-06
2.65908e-07
-1.27921e-06
2.77098e-07
-1.27995e-06
2.87272e-07
-1.26694e-06
-1.23754e-06
2.97668e-07
6.9069e-08
-1.04002e-06
-2.89e-08
1.04347e-07
-1.10702e-06
1.36062e-07
-1.16178e-06
1.63876e-07
-1.21355e-06
1.86298e-07
-1.25586e-06
2.02009e-07
-1.28045e-06
2.12689e-07
-1.28989e-06
2.21094e-07
-1.28836e-06
2.29484e-07
-1.27533e-06
-1.2469e-06
2.38852e-07
5.76558e-08
-1.06671e-06
-3.09696e-08
8.48223e-08
-1.13419e-06
1.10326e-07
-1.18728e-06
1.32631e-07
-1.23585e-06
1.49744e-07
-1.27298e-06
1.60713e-07
-1.29142e-06
1.67828e-07
-1.297e-06
1.7406e-07
-1.29459e-06
1.82197e-07
-1.28347e-06
-1.25926e-06
1.9455e-07
5.03211e-08
-1.08606e-06
-3.09687e-08
7.10608e-08
-1.15493e-06
9.07801e-08
-1.207e-06
1.0763e-07
-1.2527e-06
1.19274e-07
-1.28462e-06
1.25424e-07
-1.29757e-06
1.28728e-07
-1.3003e-06
1.32036e-07
-1.2979e-06
1.38579e-07
-1.29001e-06
-1.27314e-06
1.52461e-07
4.19317e-08
-1.10264e-06
-2.53494e-08
5.90016e-08
-1.172e-06
7.44317e-08
-1.22243e-06
8.66682e-08
-1.26494e-06
9.32266e-08
-1.29118e-06
9.49294e-08
-1.29928e-06
9.4371e-08
-1.29975e-06
9.37221e-08
-1.29725e-06
9.5601e-08
-1.29189e-06
-1.28149e-06
1.03948e-07
3.46593e-08
-1.11786e-06
-1.94417e-08
4.83985e-08
-1.18574e-06
6.02255e-08
-1.23426e-06
6.8628e-08
-1.27334e-06
7.07513e-08
-1.2933e-06
6.89543e-08
-1.29748e-06
6.53744e-08
-1.29617e-06
6.13631e-08
-1.29324e-06
5.87075e-08
-1.28924e-06
-1.28304e-06
6.02576e-08
2.42555e-08
-1.13492e-06
-7.18875e-09
3.70319e-08
-1.19851e-06
4.71326e-08
-1.24436e-06
5.28706e-08
-1.27908e-06
5.14174e-08
-1.29185e-06
4.7166e-08
-1.29323e-06
4.1403e-08
-1.2904e-06
3.45989e-08
-1.28643e-06
2.78422e-08
-1.28248e-06
-1.27808e-06
2.28887e-08
1.81658e-08
-1.15253e-06
-5.56769e-10
2.89135e-08
-1.20926e-06
3.7371e-08
-1.25281e-06
4.04851e-08
-1.28219e-06
3.60661e-08
-1.28743e-06
3.02862e-08
-1.28745e-06
2.33279e-08
-1.28344e-06
1.46523e-08
-1.27776e-06
4.889e-09
-1.27272e-06
-1.2688e-06
-4.39148e-09
1.7823e-08
-1.16527e-06
-5.08223e-09
2.47748e-08
-1.21621e-06
3.22664e-08
-1.26031e-06
3.26788e-08
-1.2826e-06
2.57808e-08
-1.28053e-06
1.87721e-08
-1.28044e-06
1.14254e-08
-1.2761e-06
1.75689e-09
-1.26809e-06
-1.01311e-08
-1.26083e-06
-1.25638e-06
-2.25588e-08
2.35681e-08
-1.1815e-06
-7.34349e-09
2.86295e-08
-1.22127e-06
3.52104e-08
-1.26689e-06
3.09419e-08
-1.27834e-06
2.09488e-08
-1.27054e-06
1.20008e-08
-1.27149e-06
4.93378e-09
-1.26903e-06
-4.46056e-09
-1.25869e-06
-1.78934e-08
-1.2474e-06
-1.2412e-06
-3.30686e-08
4.99618e-08
-1.15288e-06
-7.85777e-08
4.03629e-08
-1.21168e-06
4.10811e-08
-1.2676e-06
3.0323e-08
-1.26758e-06
1.81639e-08
-1.25838e-06
7.32796e-09
-1.26066e-06
1.18798e-09
-1.26289e-06
-5.33976e-09
-1.25217e-06
-1.92995e-08
-1.23344e-06
-1.22192e-06
-3.85829e-08
2.74781e-08
-1.11962e-06
-6.07386e-08
3.19544e-08
-1.21615e-06
3.73328e-08
-1.27298e-06
2.584e-08
-1.25608e-06
1.44091e-08
-1.24695e-06
2.6187e-09
-1.24887e-06
-3.84761e-09
-1.25642e-06
-3.29441e-09
-1.25272e-06
-1.23873e-08
-1.22434e-06
-1.19274e-06
-4.15663e-08
5.37249e-09
-1.05874e-06
-6.6258e-08
3.28549e-08
-1.24363e-06
3.63675e-08
-1.2765e-06
2.26733e-08
-1.24239e-06
1.11548e-08
-1.23543e-06
-1.13879e-09
-1.23657e-06
-1.24887e-08
-1.24507e-06
-4.71848e-09
-1.26049e-06
7.84144e-09
-1.2369e-06
-1.13797e-06
-4.6923e-08
-1.3849e-08
-9.22733e-08
3.58009e-08
2.93342e-08
1.76491e-08
9.6207e-09
1.32775e-09
-1.19082e-08
-1.08378e-08
3.86981e-08
-8.14234e-08
7.95263e-08
4.12521e-09
7.35262e-08