/*--------------------------------*- C++ -*----------------------------------*\
  =========                 |
  \\      /  F ield         | OpenFOAM: The Open Source CFD Toolbox
   \\    /   O peration     | Website:  https://openfoam.org
    \\  /    A nd           | Version:  8
     \\/     M anipulation  |
\*---------------------------------------------------------------------------*/
FoamFile
{
    version     2.0;
    format      ascii;
    class       surfaceScalarField;
    location    "7.7";
    object      phi;
}
// * * * * * * * * * * * * * * * * * * * * * * * * * * * * * * * * * * * * * //

dimensions      [0 3 -1 0 0 0 0];

internalField   nonuniform List<scalar> 
18095
(
2.00073e-08
-1.72148e-07
1.52141e-07
2.32072e-08
-1.97497e-07
1.94297e-07
2.01165e-08
-2.06107e-07
2.09198e-07
1.08037e-08
-2.10449e-07
2.19762e-07
-1.41908e-09
-2.13069e-07
2.25292e-07
-1.26511e-08
-2.13382e-07
2.24614e-07
-2.04536e-08
-2.11694e-07
2.19497e-07
-2.32273e-08
-2.06227e-07
2.09001e-07
-2.00095e-08
-1.97352e-07
1.94134e-07
-1.72075e-07
1.52065e-07
1.55218e-08
-1.8767e-07
1.61803e-08
-1.98155e-07
1.21198e-08
-2.02047e-07
6.88257e-09
-2.05212e-07
1.28191e-09
-2.07468e-07
-5.35371e-09
-2.06746e-07
-1.17856e-08
-2.05262e-07
-1.62298e-08
-2.01783e-07
-1.55354e-08
-1.98046e-07
-1.8761e-07
6.7796e-09
-1.9445e-07
8.38335e-09
-1.99759e-07
7.27542e-09
-2.00939e-07
3.79311e-09
-2.01729e-07
-8.86344e-10
-2.02789e-07
-4.76716e-09
-2.02865e-07
-7.52756e-09
-2.02502e-07
-8.45735e-09
-2.00853e-07
-6.79681e-09
-1.99707e-07
-1.94407e-07
4.48786e-09
-1.98938e-07
4.70974e-09
-1.99981e-07
3.71526e-09
-1.99944e-07
2.33235e-09
-2.00346e-07
5.18285e-10
-2.00975e-07
-1.55841e-09
-2.00789e-07
-3.71941e-09
-2.00341e-07
-4.74648e-09
-1.99826e-07
-4.52247e-09
-1.99931e-07
-1.9893e-07
1.06249e-09
1.08154e-09
1.13717e-09
7.9089e-10
-1.84002e-10
-9.72651e-10
-1.31372e-09
-1.13981e-09
-1.0704e-09
-2.88942e-08
-1.95765e-07
2.2466e-07
-3.14016e-08
-1.99126e-07
2.01634e-07
-2.56088e-08
-2.01293e-07
1.955e-07
-1.42178e-08
-2.01923e-07
1.90532e-07
6.53925e-10
-2.0222e-07
1.87348e-07
1.55893e-08
-2.02425e-07
1.87489e-07
2.62213e-08
-2.01562e-07
1.9093e-07
3.15018e-08
-2.00881e-07
1.95601e-07
2.89184e-08
-1.99055e-07
2.01639e-07
-1.95749e-07
2.24667e-07
-9.41512e-09
-1.8635e-07
-1.50125e-08
-1.93529e-07
-1.20156e-08
-2.0429e-07
-4.91622e-09
-2.09023e-07
9.92355e-10
-2.08128e-07
6.25338e-09
-2.07686e-07
1.22302e-08
-2.07539e-07
1.50432e-08
-2.03694e-07
9.40229e-09
-1.93414e-07
-1.86347e-07
-9.66953e-09
-1.76681e-07
-7.97226e-09
-1.95226e-07
-7.73157e-09
-2.04531e-07
-6.97918e-09
-2.09775e-07
-2.20052e-09
-2.12907e-07
3.17549e-09
-2.13062e-07
6.39275e-09
-2.10757e-07
7.64751e-09
-2.04949e-07
9.59716e-09
-1.95364e-07
-1.7675e-07
-6.23953e-09
-1.70441e-07
-7.80731e-09
-1.93658e-07
-7.11276e-09
-2.05225e-07
-2.68035e-09
-2.14207e-07
5.52232e-10
-2.16139e-07
4.05039e-09
-2.1656e-07
8.44988e-09
-2.15156e-07
8.59812e-09
-2.05097e-07
6.52807e-09
-1.93294e-07
-1.70222e-07
-1.83003e-08
-1.76619e-08
-1.36893e-08
-8.13508e-09
1.01746e-09
9.07143e-09
1.34124e-08
1.73162e-08
1.81562e-08
3.72648e-08
-1.58319e-07
1.21054e-07
4.18016e-08
-1.9906e-07
1.94523e-07
3.47923e-08
-2.11338e-07
2.18347e-07
2.28308e-08
-2.16197e-07
2.28159e-07
5.34064e-09
-2.17058e-07
2.34548e-07
-1.38603e-08
-2.16161e-07
2.35362e-07
-3.03596e-08
-2.14303e-07
2.30802e-07
-3.97581e-08
-2.10846e-07
2.20244e-07
-3.67349e-08
-1.98632e-07
1.95609e-07
-1.58088e-07
1.21353e-07
1.6737e-08
-1.75056e-07
1.88686e-08
-2.01191e-07
1.46794e-08
-2.07148e-07
6.62888e-09
-2.08147e-07
-2.41167e-09
-2.08018e-07
-1.03685e-08
-2.08204e-07
-1.66789e-08
-2.07992e-07
-2.00448e-08
-2.0748e-07
-1.7201e-08
-2.01476e-07
-1.75289e-07
7.77938e-09
-1.82835e-07
8.7353e-09
-2.02147e-07
7.9539e-09
-2.06367e-07
4.2764e-09
-2.04469e-07
5.99683e-10
-2.04341e-07
-3.20316e-09
-2.04401e-07
-7.08899e-09
-2.04106e-07
-8.19841e-09
-2.06371e-07
-7.57807e-09
-2.02097e-07
-1.82867e-07
7.76284e-09
-1.90598e-07
5.11156e-09
-1.99496e-07
6.14271e-09
-2.07398e-07
1.30215e-09
-1.99629e-07
7.13337e-11
-2.0311e-07
-1.31923e-09
-2.0301e-07
-6.14438e-09
-1.99281e-07
-5.08441e-09
-2.0743e-07
-7.73685e-09
-1.99444e-07
-1.90604e-07
3.40618e-08
3.61995e-08
2.4302e-08
1.52057e-08
-5.56354e-10
-1.60774e-08
-2.44283e-08
-3.62581e-08
-3.40638e-08
-2.71659e-08
2.14232e-08
5.74274e-09
-3.78518e-08
1.06857e-08
-3.20261e-08
-5.82576e-09
-2.43891e-08
-7.63692e-09
-2.56043e-08
1.21518e-09
-2.98149e-08
4.21067e-09
-3.37716e-08
3.95679e-09
-3.687e-08
3.09854e-09
-3.53214e-08
-1.5486e-09
-3.97911e-09
-3.13422e-08
1.4226e-08
6.55866e-08
-5.83895e-08
-1.68814e-08
4.1793e-08
-3.3639e-08
1.09319e-08
-3.90938e-08
-2.18209e-09
-3.76586e-08
-2.19837e-10
-3.36773e-08
2.29494e-10
-3.28637e-08
3.14334e-09
-3.32139e-08
3.44889e-09
-3.61488e-08
1.38645e-09
2.74657e-09
-4.28743e-08
3.78431e-08
8.35883e-08
-5.58448e-08
1.79278e-08
6.17085e-08
-4.99244e-09
3.38523e-08
-3.10319e-08
2.38575e-08
-4.07079e-08
9.4563e-09
-4.2901e-08
2.42286e-09
-4.50919e-08
5.33443e-09
-4.97394e-08
8.09656e-09
-6.00611e-08
1.17083e-08
1.60052e-08
-7.33195e-08
2.52813e-08
8.51579e-08
-2.68509e-08
2.5201e-08
6.17891e-08
1.53896e-08
4.36638e-08
-4.75913e-09
4.40065e-08
-3.39736e-08
3.8671e-08
-4.99475e-08
1.8397e-08
-5.68588e-08
1.2246e-08
-6.50373e-08
1.62753e-08
-7.91013e-08
2.57726e-08
3.19357e-08
-9.50315e-08
1.46256e-08
7.79638e-08
-7.43136e-09
2.06659e-08
5.57493e-08
1.82638e-08
4.60661e-08
1.4492e-08
4.77785e-08
-4.76924e-09
5.79324e-08
-3.86045e-08
5.22325e-08
-5.69621e-08
3.06038e-08
-6.8323e-08
2.76365e-08
-7.99881e-08
3.7438e-08
4.87732e-08
-9.68253e-08
2.5347e-08
5.69472e-08
-4.33023e-09
3.40182e-08
4.70786e-08
3.48607e-08
4.52239e-08
3.35362e-08
4.91032e-08
3.06698e-08
6.07989e-08
-1.27731e-09
8.41798e-08
-4.23476e-08
7.16742e-08
-6.14828e-08
4.6772e-08
-7.07692e-08
4.67245e-08
6.15119e-08
-8.35077e-08
3.28953e-08
3.38938e-08
-9.84165e-09
4.78997e-08
3.20748e-08
5.75072e-08
3.56166e-08
6.16476e-08
4.49629e-08
6.44181e-08
5.80286e-08
5.75521e-08
9.1046e-08
1.03675e-08
1.18859e-07
-3.76816e-08
9.48212e-08
-5.57722e-08
6.48151e-08
6.79893e-08
-6.22496e-08
1.17861e-07
1.30536e-08
-9.70209e-08
1.31477e-07
1.846e-08
1.26739e-07
4.03551e-08
1.17183e-07
5.45187e-08
1.06842e-07
6.83699e-08
1.003e-07
9.75882e-08
6.48278e-08
1.54331e-07
-7.82418e-09
1.67473e-07
-4.11151e-08
9.8106e-08
6.80161e-08
-4.1142e-08
1.84662e-07
1.81842e-08
-1.89793e-07
1.67903e-07
3.52203e-08
1.49431e-07
5.88265e-08
1.31801e-07
7.21489e-08
1.09039e-07
9.11326e-08
8.06009e-08
1.26026e-07
4.12632e-08
1.93668e-07
-5.6997e-09
2.14436e-07
-2.6649e-08
1.19055e-07
6.80187e-08
-2.66516e-08
1.18784e-07
2.69235e-08
-1.27523e-07
1.02811e-07
5.11942e-08
8.9104e-08
7.2534e-08
6.73439e-08
9.39091e-08
3.16192e-08
1.26857e-07
-5.6012e-09
1.63247e-07
-2.10991e-08
2.09166e-07
-1.32463e-08
2.06583e-07
-8.95777e-09
1.14767e-07
7.76877e-08
-1.86268e-08
-1.33083e-08
2.96585e-08
1.05735e-08
-2.15343e-08
5.94205e-08
-3.11285e-08
8.21283e-08
-4.66473e-08
1.09428e-07
-5.1997e-08
1.32207e-07
-5.09283e-08
1.62178e-07
-3.50454e-08
1.93283e-07
-9.85825e-09
1.81396e-07
-4.50884e-09
1.09418e-07
9.18522e-08
-1.86731e-08
-1.03862e-07
3.75599e-08
9.59608e-08
-1.04104e-07
5.96629e-08
-1.04787e-07
8.28107e-08
-9.88541e-08
1.03495e-07
-8.17501e-08
1.15103e-07
-6.85997e-08
1.49028e-07
-4.65642e-08
1.71248e-07
-1.62155e-08
1.51048e-07
-1.72921e-08
1.10494e-07
1.03332e-07
-2.87713e-08
-1.32614e-07
4.46076e-08
1.25566e-07
-1.3324e-07
6.02891e-08
-1.30878e-07
8.04487e-08
-1.23671e-07
9.62877e-08
-1.12947e-07
1.0438e-07
-1.01358e-07
1.37439e-07
-7.61389e-08
1.4603e-07
-5.58596e-08
1.30769e-07
-5.46567e-08
1.09292e-07
1.02398e-07
-5.37224e-08
-1.33415e-07
4.96786e-08
1.28344e-07
-1.33734e-07
6.06077e-08
-1.29029e-07
7.57444e-08
-1.2792e-07
9.51788e-08
-1.33747e-07
1.10208e-07
-1.19352e-07
1.23044e-07
-9.92337e-08
1.25912e-07
-8.34982e-08
1.15034e-07
-7.78545e-08
1.03649e-07
9.75292e-08
-7.29859e-08
-1.24338e-07
5.57769e-08
1.18239e-07
-1.27084e-07
6.33543e-08
-1.25771e-07
7.44315e-08
-1.22979e-07
9.23869e-08
-1.18615e-07
1.05844e-07
-1.07692e-07
1.12121e-07
-9.33592e-08
1.11579e-07
-8.33751e-08
1.0505e-07
-7.85634e-08
9.8837e-08
9.39727e-08
-7.50065e-08
-1.03573e-07
5.98932e-08
9.94564e-08
-1.05919e-07
6.57006e-08
-1.04563e-07
7.30763e-08
-9.6616e-08
8.44398e-08
-8.61741e-08
9.54025e-08
-7.57173e-08
1.01664e-07
-6.79647e-08
1.03827e-07
-6.53627e-08
1.02448e-07
-6.57444e-08
9.9219e-08
9.3997e-08
-6.57685e-08
-7.53607e-08
7.05985e-08
6.46555e-08
-8.38897e-08
7.42297e-08
-8.40382e-08
7.32249e-08
-7.42555e-08
7.46572e-08
-5.90585e-08
8.02057e-08
-4.33105e-08
8.59162e-08
-3.22848e-08
9.28012e-08
-2.82625e-08
9.84258e-08
-2.948e-08
1.00437e-07
9.90747e-08
-3.45576e-08
-2.38853e-08
8.03414e-08
1.41425e-08
-3.54264e-08
8.57709e-08
-4.26954e-08
8.04941e-08
-4.16282e-08
7.35902e-08
-3.25416e-08
7.11193e-08
-2.08934e-08
7.4268e-08
-8.00967e-09
7.99176e-08
1.53558e-09
8.88806e-08
8.69659e-09
9.32756e-08
9.78446e-08
9.92664e-09
1.02276e-08
7.21803e-08
-2.06644e-09
2.62035e-08
6.97958e-08
3.35464e-08
7.31514e-08
3.87276e-08
6.84092e-08
3.68654e-08
7.29817e-08
3.43873e-08
7.67461e-08
3.23301e-08
8.19749e-08
3.21304e-08
8.90802e-08
3.41986e-08
9.12074e-08
9.41167e-08
3.79265e-08
5.40908e-09
5.36747e-08
1.30967e-08
2.97454e-08
4.54605e-08
6.03947e-08
4.25023e-08
9.6367e-08
3.2437e-08
1.26189e-07
4.31597e-08
1.44065e-07
5.88704e-08
1.32743e-07
9.32968e-08
9.53007e-08
1.26523e-07
7.12238e-08
1.15284e-07
1.0409e-07
6.12508e-08
-1.82286e-08
5.19125e-08
1.99911e-08
3.60911e-09
2.36234e-08
4.51203e-08
9.91235e-10
8.38889e-08
-6.33155e-09
1.23449e-07
3.59985e-09
1.60251e-07
2.20686e-08
1.89582e-07
6.39657e-08
1.95828e-07
1.20277e-07
1.69819e-07
1.41293e-07
1.51721e-07
1.22187e-07
-7.74796e-09
3.01819e-08
2.94788e-08
9.2808e-09
6.59464e-09
3.51585e-08
-2.48864e-08
6.41312e-08
-3.53042e-08
1.01214e-07
-3.34831e-08
1.42276e-07
-1.89928e-08
1.80911e-07
2.53301e-08
2.08829e-07
9.23588e-08
2.19886e-07
1.30237e-07
1.63429e-07
2.08178e-07
7.40792e-09
-4.26645e-09
2.70404e-08
3.13275e-08
-1.73249e-08
4.6368e-08
-3.99266e-08
6.82538e-08
-5.71898e-08
9.73534e-08
-6.25827e-08
1.28154e-07
-4.97931e-08
1.63458e-07
-9.97364e-09
2.03061e-07
5.27554e-08
2.31734e-07
1.01565e-07
1.46517e-07
2.48647e-07
6.35452e-09
-1.6755e-08
6.13405e-09
1.28033e-08
-2.3773e-08
1.35888e-08
-4.07119e-08
2.32517e-08
-6.68526e-08
4.99412e-08
-8.92721e-08
9.02717e-08
-9.01235e-08
1.4088e-07
-6.05817e-08
1.92895e-07
7.40585e-10
2.25189e-07
6.92708e-08
1.32073e-07
2.39633e-07
4.86334e-08
-9.8649e-10
-6.44017e-08
3.05005e-08
-5.63942e-09
1.90888e-08
-2.93002e-08
1.8358e-08
-6.61218e-08
3.64363e-08
-1.0735e-07
6.52412e-08
-1.18928e-07
1.07033e-07
-1.02373e-07
1.56862e-07
-4.9088e-08
1.80602e-07
4.55311e-08
1.17361e-07
1.95314e-07
5.63173e-08
-1.32177e-08
-4.40857e-08
5.7384e-08
-6.70668e-09
5.78671e-08
-2.97835e-08
5.83031e-08
-6.65579e-08
7.20224e-08
-1.2107e-07
8.83087e-08
-1.35215e-07
9.99483e-08
-1.14013e-07
1.10272e-07
-5.94114e-08
1.11582e-07
4.42214e-08
1.0816e-07
1.20783e-07
-2.71081e-09
-3.75208e-08
2.70138e-08
1.94751e-08
-2.88938e-08
4.60671e-08
-5.63759e-08
6.77846e-08
-8.82757e-08
8.76662e-08
-1.40952e-07
9.38943e-08
-1.41443e-07
7.58365e-08
-9.59552e-08
1.93562e-08
-2.93113e-09
-8.05467e-09
7.16321e-08
9.4647e-08
5.458e-09
-5.62466e-08
-4.11049e-08
5.98302e-08
-4.37114e-08
-4.143e-08
-2.99329e-08
-7.01545e-08
-2.9522e-08
-8.86868e-08
-4.65606e-08
-1.23913e-07
-7.48959e-08
-1.13108e-07
-9.11389e-08
-7.97125e-08
-1.19388e-07
2.53173e-08
-1.16302e-07
6.85466e-08
8.17535e-08
-1.03409e-07
-8.44021e-08
-3.45949e-08
7.78918e-08
-8.70673e-08
-3.87651e-08
-9.36124e-08
-6.36097e-08
-1.09383e-07
-7.29165e-08
-1.57472e-07
-7.58252e-08
-2.00105e-07
-7.04754e-08
-2.10947e-07
-6.88704e-08
-1.82071e-07
-3.55885e-09
-1.43445e-07
2.99204e-08
5.19741e-08
-1.13666e-07
-9.34619e-08
-2.09568e-08
7.98238e-08
-1.09498e-07
-2.27296e-08
-1.47696e-07
-2.54119e-08
-1.85687e-07
-3.4927e-08
-2.23672e-07
-3.78404e-08
-2.42986e-07
-5.11609e-08
-2.60367e-07
-5.14899e-08
-2.30281e-07
-3.36451e-08
-1.93174e-07
-7.18626e-09
1.09439e-08
-1.52144e-07
-1.02203e-07
-1.57496e-08
9.69957e-08
-9.83146e-08
-2.66193e-08
-1.15395e-07
-8.3318e-09
-1.57312e-07
6.98974e-09
-1.87034e-07
-8.1183e-09
-1.92752e-07
-4.54432e-08
-1.93208e-07
-5.10345e-08
-1.84795e-07
-4.20574e-08
-1.70562e-07
-2.14194e-08
-1.08802e-08
-1.48738e-07
-9.9867e-08
-3.48227e-09
8.75992e-08
-1.20289e-07
-6.1981e-09
-1.32251e-07
3.63005e-09
-1.34488e-07
9.22743e-09
-1.43139e-07
5.32139e-10
-1.54676e-07
-3.3906e-08
-1.59769e-07
-4.59418e-08
-1.54452e-07
-4.73741e-08
-1.39362e-07
-3.65092e-08
-2.44747e-08
-1.25768e-07
-1.0312e-07
1.57462e-09
9.80629e-08
-1.09469e-07
1.51444e-10
-1.0542e-07
-4.18834e-10
-9.32638e-08
-2.92911e-09
-8.31459e-08
-9.58584e-09
-8.40896e-08
-3.29625e-08
-8.69345e-08
-4.3097e-08
-9.19915e-08
-4.23172e-08
-8.85149e-08
-3.99858e-08
-3.49674e-08
-7.80223e-08
-1.27245e-07
-5.78716e-09
1.34607e-07
-1.13189e-07
-1.39033e-08
-9.45729e-08
-1.90355e-08
-7.33939e-08
-2.41083e-08
-4.43149e-08
-3.86651e-08
-3.66307e-08
-4.06469e-08
-4.18888e-08
-3.78391e-08
-4.62446e-08
-3.79615e-08
-4.51717e-08
-4.10589e-08
-4.08676e-08
-3.92716e-08
-1.51798e-07
-2.3464e-08
1.69475e-07
-1.24593e-07
-4.11088e-08
-9.24687e-08
-5.11598e-08
-6.08081e-08
-5.57689e-08
-3.84627e-08
-6.10106e-08
-3.21654e-08
-4.69442e-08
-3.23876e-08
-3.76168e-08
-2.94468e-08
-4.09021e-08
-2.55356e-08
-4.49698e-08
-4.28935e-08
-2.35097e-08
-1.7116e-07
-4.0309e-08
1.88005e-07
-1.46809e-07
-6.54609e-08
-1.19137e-07
-7.88324e-08
-8.75153e-08
-8.73903e-08
-5.61899e-08
-9.2336e-08
-3.41789e-08
-6.89551e-08
-2.85745e-08
-4.32211e-08
-2.38329e-08
-4.56437e-08
-1.739e-08
-5.14128e-08
-4.80825e-08
-1.2201e-08
-1.38301e-07
-5.63541e-08
1.54346e-07
-1.29446e-07
-7.43159e-08
-1.12628e-07
-9.56497e-08
-9.18444e-08
-1.08174e-07
-6.61815e-08
-1.17999e-07
-3.70425e-08
-9.80941e-08
-2.59748e-08
-5.42889e-08
-1.83836e-08
-5.32351e-08
-4.63028e-09
-6.51663e-08
-6.37802e-08
1.10673e-08
-7.72079e-08
-8.43012e-08
1.05155e-07
-5.86608e-08
-9.28634e-08
-4.7196e-08
-1.07115e-07
-3.27744e-08
-1.22596e-07
-2.68604e-08
-1.23913e-07
-2.16026e-08
-1.03352e-07
5.18479e-09
-8.10765e-08
3.77735e-08
-8.58241e-08
5.51837e-08
-8.25767e-08
-8.5852e-08
7.72554e-08
-4.77091e-08
-1.13734e-07
7.71421e-08
-1.37715e-08
-1.26802e-07
2.53222e-08
-1.46208e-07
6.48438e-08
-1.62118e-07
9.59254e-08
-1.54995e-07
1.09555e-07
-1.16982e-07
1.19527e-07
-9.10478e-08
1.24062e-07
-9.03596e-08
1.35413e-07
-9.39276e-08
-9.55899e-08
1.45151e-07
-8.55526e-09
-1.38877e-07
3.36971e-08
2.47276e-08
-1.60085e-07
6.06282e-08
-1.82109e-07
9.59035e-08
-1.97393e-07
1.32329e-07
-1.9142e-07
1.68358e-07
-1.53012e-07
1.88117e-07
-1.10807e-07
1.96694e-07
-9.89368e-08
2.02327e-07
-9.9561e-08
-1.00553e-07
2.0729e-07
1.18939e-07
-1.48162e-07
-1.09653e-07
1.22425e-07
-1.63572e-07
1.20829e-07
-1.80514e-07
1.21516e-07
-1.9808e-07
1.36288e-07
-2.06192e-07
1.74394e-07
-1.91117e-07
2.13081e-07
-1.49495e-07
2.3575e-07
-1.21606e-07
2.45618e-07
-1.09429e-07
-1.10095e-07
2.5516e-07
2.7455e-07
-1.64238e-07
-2.58474e-07
2.78588e-07
-1.6761e-07
2.65748e-07
-1.67675e-07
2.40012e-07
-1.72345e-07
2.22982e-07
-1.89162e-07
2.21315e-07
-1.8945e-07
2.42014e-07
-1.70195e-07
2.68909e-07
-1.48501e-07
2.9502e-07
-1.3554e-07
-1.34138e-07
3.19062e-07
3.26155e-07
-1.68536e-07
-3.21857e-07
3.30892e-07
-1.72347e-07
3.29053e-07
-1.65836e-07
3.16691e-07
-1.59982e-07
2.97575e-07
-1.70047e-07
2.76482e-07
-1.68358e-07
2.75653e-07
-1.69366e-07
2.94885e-07
-1.67733e-07
3.26229e-07
-1.66884e-07
-1.62444e-07
3.54536e-07
3.62303e-07
-1.53344e-07
-3.77496e-07
3.54291e-07
-1.64335e-07
3.38312e-07
-1.49857e-07
3.17461e-07
-1.39132e-07
2.94858e-07
-1.47444e-07
2.80307e-07
-1.53808e-07
2.79861e-07
-1.6892e-07
2.90774e-07
-1.78646e-07
3.20245e-07
-1.96354e-07
-2.00559e-07
3.58361e-07
3.34098e-07
-1.19491e-07
-3.67951e-07
2.82099e-07
-1.12335e-07
2.47273e-07
-1.15031e-07
2.2392e-07
-1.15779e-07
2.07531e-07
-1.31054e-07
1.98686e-07
-1.44963e-07
2.03338e-07
-1.73572e-07
2.332e-07
-2.08508e-07
2.69267e-07
-2.32421e-07
-2.24364e-07
2.93072e-07
1.0319e-07
-1.00967e-07
-1.21714e-07
9.85303e-08
-1.07675e-07
8.62646e-08
-1.02765e-07
7.96834e-08
-1.09198e-07
7.10825e-08
-1.22453e-07
6.79363e-08
-1.41816e-07
7.70833e-08
-1.82719e-07
1.17364e-07
-2.48789e-07
1.49765e-07
-2.64822e-07
-2.54391e-07
1.79792e-07
9.68768e-09
-1.02532e-07
-8.12293e-09
1.00993e-08
-1.08087e-07
1.11341e-08
-1.038e-07
5.88623e-09
-1.0395e-07
-1.6442e-09
-1.14923e-07
-1.05856e-08
-1.32875e-07
-2.2965e-09
-1.91008e-07
2.98722e-08
-2.80958e-07
6.46141e-08
-2.99564e-07
-2.50817e-07
6.10395e-08
-5.15737e-08
-1.11004e-07
6.00463e-08
-4.37536e-08
-1.15909e-07
-3.54909e-08
-1.12063e-07
-1.88202e-08
-1.20621e-07
-1.27387e-08
-1.21005e-07
-1.64558e-08
-1.29158e-07
-1.03426e-08
-1.97122e-07
8.92577e-11
-2.9139e-07
2.1217e-10
-2.99686e-07
-2.39759e-07
-1.08451e-08
-1.22601e-07
-1.56703e-07
1.683e-07
-8.71847e-08
-1.51324e-07
-5.06617e-08
-1.48585e-07
-2.87843e-08
-1.42498e-07
-1.14537e-08
-1.38335e-07
2.5191e-09
-1.43131e-07
1.04709e-08
-2.05074e-07
-1.08984e-08
-2.70021e-07
-3.69745e-08
-2.73611e-07
-2.4167e-07
-3.50641e-08
-2.08588e-07
-2.01168e-07
2.53052e-07
-1.56814e-07
-2.03097e-07
-1.16206e-07
-1.89194e-07
-8.8763e-08
-1.69941e-07
-5.42036e-08
-1.72895e-07
-7.15136e-09
-1.90183e-07
7.62251e-09
-2.19848e-07
-2.29773e-08
-2.39421e-07
-5.16261e-08
-2.44963e-07
-2.433e-07
-4.99973e-08
-4.09174e-07
-2.31959e-07
4.39966e-07
-3.60514e-07
-2.51758e-07
-2.96686e-07
-2.53021e-07
-2.27114e-07
-2.39513e-07
-1.69373e-07
-2.30636e-07
-1.29341e-07
-2.30214e-07
-1.16044e-07
-2.33144e-07
-1.2006e-07
-2.35405e-07
-1.18499e-07
-2.46524e-07
-2.48223e-07
-1.13576e-07
-5.97173e-07
-2.47126e-07
6.1234e-07
-5.701e-07
-2.78832e-07
-5.28661e-07
-2.94461e-07
-4.74985e-07
-2.93188e-07
-4.22503e-07
-2.83118e-07
-3.8304e-07
-2.69678e-07
-3.46267e-07
-2.69916e-07
-3.051e-07
-2.76573e-07
-2.73854e-07
-2.77769e-07
-2.67523e-07
-2.54554e-07
-6.81203e-07
-2.45854e-07
6.7993e-07
-6.77112e-07
-2.82923e-07
-6.6865e-07
-3.02923e-07
-6.44897e-07
-3.16941e-07
-6.09759e-07
-3.18255e-07
-5.68448e-07
-3.10989e-07
-5.29195e-07
-3.09169e-07
-4.94859e-07
-3.10909e-07
-4.6265e-07
-3.09979e-07
-2.97942e-07
-4.32231e-07
-7.08638e-07
-2.38851e-07
7.01635e-07
-7.09871e-07
-2.81691e-07
-7.07194e-07
-3.056e-07
-6.973e-07
-3.26836e-07
-6.79464e-07
-3.36091e-07
-6.55027e-07
-3.35426e-07
-6.3427e-07
-3.29925e-07
-6.15785e-07
-3.29393e-07
-5.9677e-07
-3.28994e-07
-3.2221e-07
-5.72502e-07
-7.00214e-07
-2.01187e-07
6.6255e-07
-7.19205e-07
-2.62699e-07
-7.24556e-07
-3.00248e-07
-7.1756e-07
-3.33832e-07
-7.08813e-07
-3.44838e-07
-6.96033e-07
-3.48206e-07
-6.80728e-07
-3.4523e-07
-6.71526e-07
-3.38595e-07
-6.64814e-07
-3.35707e-07
-3.32304e-07
-6.54721e-07
-6.78249e-07
-1.69589e-07
6.46649e-07
-6.99516e-07
-2.41433e-07
-7.11509e-07
-2.88255e-07
-7.14607e-07
-3.30733e-07
-7.12442e-07
-3.47003e-07
-7.083e-07
-3.52347e-07
-6.99799e-07
-3.5373e-07
-6.95371e-07
-3.43023e-07
-7.00954e-07
-3.30122e-07
-3.23995e-07
-7.09263e-07
-7.04031e-07
-1.78717e-07
7.1316e-07
-7.05824e-07
-2.39641e-07
-7.12606e-07
-2.81473e-07
-7.10235e-07
-3.33104e-07
-7.01136e-07
-3.56103e-07
-6.89965e-07
-3.63518e-07
-6.84751e-07
-3.58944e-07
-6.85653e-07
-3.42121e-07
-7.01434e-07
-3.14341e-07
-3.04156e-07
-7.21274e-07
-7.32004e-07
-2.04781e-07
7.5807e-07
-7.19051e-07
-2.52594e-07
-7.21008e-07
-2.79517e-07
-7.25174e-07
-3.28938e-07
-7.11245e-07
-3.7003e-07
-6.90063e-07
-3.84701e-07
-6.58632e-07
-3.90375e-07
-6.28039e-07
-3.72713e-07
-6.18098e-07
-3.24283e-07
-2.75004e-07
-6.4725e-07
-7.67335e-07
-2.08732e-07
7.71286e-07
-7.4521e-07
-2.74719e-07
-7.37491e-07
-2.87236e-07
-7.42195e-07
-3.24235e-07
-7.26066e-07
-3.86159e-07
-6.97297e-07
-4.1347e-07
-6.62768e-07
-4.24904e-07
-6.12247e-07
-4.23234e-07
-5.46155e-07
-3.90376e-07
-3.19854e-07
-5.01306e-07
-5.66184e-07
-6.74539e-08
4.24908e-07
-6.18389e-07
-2.22511e-07
-6.29682e-07
-2.75944e-07
-6.61046e-07
-2.92872e-07
-6.76551e-07
-3.70654e-07
-6.6394e-07
-4.26082e-07
-6.34426e-07
-4.54419e-07
-5.89717e-07
-4.67943e-07
-5.20333e-07
-4.5976e-07
-4.11266e-07
-4.2892e-07
-1.61885e-07
3.91365e-08
5.52956e-08
-2.66143e-07
-1.18252e-07
-3.35942e-07
-2.06146e-07
-3.6273e-07
-2.66085e-07
-4.07316e-07
-3.26069e-07
-4.52361e-07
-3.81038e-07
-4.67002e-07
-4.39779e-07
-4.55243e-07
-4.79702e-07
-4.25153e-07
-4.89849e-07
-4.74577e-07
-3.61842e-07
-1.96498e-08
4.01636e-08
1.86223e-08
-5.93216e-08
-7.85767e-08
-8.60826e-08
-1.79385e-07
-8.98295e-08
-2.62341e-07
-8.46944e-08
-3.31205e-07
-1.06534e-07
-3.59199e-07
-1.59771e-07
-3.86542e-07
-1.71674e-07
-4.67799e-07
-1.63263e-07
-4.9826e-07
-4.92284e-07
-1.45556e-07
1.01105e-07
-1.92658e-08
-4.16744e-08
1.4195e-07
-1.19421e-07
1.60403e-07
-1.97835e-07
1.64754e-07
-2.66691e-07
1.65028e-07
-3.3148e-07
1.62879e-07
-3.57049e-07
1.52984e-07
-3.76645e-07
1.29629e-07
-4.44443e-07
1.27979e-07
-4.9661e-07
-4.96868e-07
1.32563e-07
4.25591e-07
-8.27225e-08
-3.62135e-07
4.4409e-07
-1.37926e-07
4.40386e-07
-1.94131e-07
4.21497e-07
-2.47802e-07
3.97196e-07
-3.07179e-07
3.79611e-07
-3.39465e-07
3.65392e-07
-3.62426e-07
3.51664e-07
-4.30716e-07
3.33236e-07
-4.78182e-07
-4.79658e-07
3.16027e-07
5.17393e-07
-1.13391e-07
-4.86725e-07
5.20485e-07
-1.41017e-07
5.05585e-07
-1.79231e-07
4.84891e-07
-2.27107e-07
4.62558e-07
-2.84847e-07
4.49289e-07
-3.26196e-07
4.62938e-07
-3.76073e-07
4.59319e-07
-4.27096e-07
4.40381e-07
-4.59244e-07
-4.5747e-07
4.18194e-07
5.1038e-07
-5.06386e-08
-5.73131e-07
4.74488e-07
-1.05123e-07
4.37605e-07
-1.42349e-07
4.4123e-07
-2.30731e-07
4.48829e-07
-2.92446e-07
4.74332e-07
-3.51698e-07
4.96439e-07
-3.98181e-07
4.98485e-07
-4.29143e-07
4.80672e-07
-4.4143e-07
-4.35627e-07
4.58829e-07
1.82842e-07
-4.02587e-08
-1.93222e-07
2.27823e-07
-1.50102e-07
3.06559e-07
-2.21087e-07
3.8122e-07
-3.05393e-07
4.39038e-07
-3.50264e-07
4.80188e-07
-3.92846e-07
4.93837e-07
-4.1183e-07
4.84068e-07
-4.19374e-07
4.60238e-07
-4.176e-07
-4.03412e-07
4.28023e-07
9.68342e-08
-2.32438e-07
9.53448e-08
2.43171e-07
-2.96433e-07
3.48485e-07
-3.26401e-07
4.03501e-07
-3.60409e-07
4.34083e-07
-3.80847e-07
4.26792e-07
-3.85555e-07
4.04838e-07
-3.89875e-07
3.82761e-07
-3.97297e-07
3.71345e-07
-4.06183e-07
-3.95045e-07
3.62978e-07
2.73908e-07
-3.07112e-07
-1.99234e-07
3.16129e-07
-3.38655e-07
3.52658e-07
-3.62929e-07
3.52738e-07
-3.60489e-07
3.23295e-07
-3.51404e-07
2.92904e-07
-3.55166e-07
2.80044e-07
-3.77015e-07
3.05203e-07
-4.22456e-07
3.4878e-07
-4.49762e-07
-4.39488e-07
3.93224e-07
2.97289e-07
-3.26688e-07
-2.77714e-07
2.97286e-07
-3.38652e-07
2.72805e-07
-3.38447e-07
2.32636e-07
-3.20321e-07
1.95631e-07
-3.14398e-07
1.92099e-07
-3.51633e-07
2.54556e-07
-4.39472e-07
3.58777e-07
-5.26675e-07
4.70002e-07
-5.60986e-07
-5.32672e-07
5.63186e-07
2.74003e-07
-3.10502e-07
-2.90189e-07
2.37256e-07
-3.01905e-07
1.98528e-07
-2.9972e-07
1.69709e-07
-2.91501e-07
1.60871e-07
-3.0556e-07
2.35441e-07
-4.26203e-07
4.04146e-07
-6.08178e-07
5.48391e-07
-6.7092e-07
6.44373e-07
-6.56969e-07
-5.7928e-07
6.90982e-07
2.24948e-07
-2.80999e-07
-2.54451e-07
1.92933e-07
-2.6989e-07
1.71735e-07
-2.78521e-07
1.63086e-07
-2.82852e-07
1.89283e-07
-3.31756e-07
3.65468e-07
-6.02387e-07
5.22662e-07
-7.65371e-07
6.15098e-07
-7.63357e-07
6.48644e-07
-6.90515e-07
-5.43729e-07
6.13093e-07
2.07208e-07
-2.65267e-07
-2.2294e-07
1.86545e-07
-2.49229e-07
1.72533e-07
-2.64509e-07
1.70162e-07
-2.80481e-07
2.49429e-07
-4.11023e-07
3.99637e-07
-7.52596e-07
4.57684e-07
-8.23418e-07
4.54777e-07
-7.6045e-07
3.59573e-07
-5.95311e-07
-4.53857e-07
2.697e-07
2.15761e-07
-2.57641e-07
-2.23387e-07
2.00625e-07
-2.34091e-07
1.86893e-07
-2.50777e-07
1.60747e-07
-2.54334e-07
2.5817e-07
-5.08447e-07
3.13273e-07
-8.07698e-07
2.99652e-07
-8.09796e-07
1.76136e-07
-6.36934e-07
6.63073e-08
-4.85481e-07
-3.99598e-07
1.20481e-08
1.97752e-07
-2.55775e-07
-1.99619e-07
2.10842e-07
-2.4718e-07
2.05908e-07
-2.45843e-07
1.50047e-07
-1.98473e-07
2.42431e-07
-6.00831e-07
2.44918e-07
-8.10186e-07
1.94397e-07
-7.59276e-07
5.96239e-08
-5.02162e-07
-1.24761e-10
-4.25733e-07
-3.73501e-07
-2.6222e-08
1.53816e-07
-2.51552e-07
-1.58039e-07
1.77894e-07
-2.71258e-07
1.59581e-07
-2.27529e-07
1.1498e-07
-1.53872e-07
2.08943e-07
-6.94793e-07
1.90391e-07
-7.91634e-07
1.46177e-07
-7.15062e-07
5.33176e-08
-4.09304e-07
-6.01748e-09
-3.66399e-07
-3.35196e-07
-4.43237e-08
9.05585e-08
-2.33554e-07
-1.08556e-07
5.60797e-08
-2.3678e-07
-3.80137e-08
-1.33437e-07
6.51922e-12
-1.91894e-07
6.81741e-08
-7.62962e-07
9.32614e-08
-8.16721e-07
8.31882e-08
-7.04989e-07
2.58615e-08
-3.51978e-07
-3.92649e-08
-3.01272e-07
-2.71019e-07
-1.03443e-07
5.50104e-08
-1.78188e-07
-1.10376e-07
-4.80906e-09
-1.76961e-07
-8.41877e-08
-5.40582e-08
1.79603e-09
-2.77879e-07
2.68743e-08
-7.88041e-07
4.46891e-08
-8.34536e-07
5.7143e-08
-7.17444e-07
7.14742e-09
-3.0198e-07
-5.40053e-08
-2.4012e-07
-2.09247e-07
-1.15778e-07
8.96275e-08
-1.43571e-07
-1.24244e-07
6.44108e-08
-1.51745e-07
4.58242e-08
-3.5471e-08
4.61781e-08
-2.78233e-07
4.26452e-08
-7.84508e-07
4.29544e-08
-8.34845e-07
7.80123e-08
-7.52502e-07
4.09371e-08
-2.64905e-07
-5.14156e-09
-1.94041e-07
-1.64059e-07
-5.03294e-08
1.36833e-07
-1.25001e-07
-1.55402e-07
1.44563e-07
-1.59476e-07
1.79737e-07
-7.06447e-08
1.43497e-07
-2.41993e-07
1.2049e-07
-7.61501e-07
1.12006e-07
-8.26361e-07
1.27591e-07
-7.68087e-07
8.30642e-08
-2.20378e-07
2.16929e-08
-1.3267e-07
-1.12477e-07
-2.98898e-08
1.84722e-07
-6.77602e-08
-2.41963e-07
1.66062e-07
-1.40815e-07
2.06038e-07
-1.10622e-07
2.2769e-07
-2.63644e-07
2.15799e-07
-7.49611e-07
1.93278e-07
-8.0384e-07
2.0509e-07
-7.79899e-07
1.61373e-07
-1.76659e-07
6.84248e-08
-3.97209e-08
-1.87389e-08
-2.53131e-08
1.66413e-07
-1.59863e-08
-2.18187e-07
1.43484e-07
-1.17886e-07
1.57696e-07
-1.24835e-07
2.52016e-07
-3.57965e-07
2.57738e-07
-7.55334e-07
2.41454e-07
-7.87556e-07
2.61394e-07
-7.9984e-07
3.29208e-07
-2.44474e-07
3.66258e-07
-7.67719e-08
1.61093e-07
1.86425e-07
2.38865e-07
2.78108e-08
-2.82662e-07
1.55248e-07
-3.42685e-08
5.83122e-08
-2.78991e-08
1.64241e-07
-4.63893e-07
1.58645e-07
-7.49738e-07
1.4587e-07
-7.7478e-07
1.59639e-07
-8.13608e-07
1.26573e-07
-2.1141e-07
2.65482e-07
-2.15681e-07
-4.20604e-08
4.68643e-07
2.39741e-07
4.86517e-08
-2.60583e-07
1.76466e-07
2.90063e-08
6.00265e-08
8.85401e-08
7.34402e-08
-4.77308e-07
5.55209e-08
-7.31819e-07
3.92137e-08
-7.58473e-07
1.68549e-08
-7.91249e-07
-1.5658e-08
-1.78897e-07
1.69634e-08
-2.48301e-07
-2.32723e-07
2.07641e-07
1.98753e-07
1.00087e-07
-2.50189e-07
1.26698e-07
1.01062e-07
8.7499e-09
2.06488e-07
5.42026e-09
-4.73979e-07
1.1836e-08
-7.38235e-07
-1.03717e-08
-7.36265e-07
-3.3301e-08
-7.6832e-07
1.2458e-07
-3.36781e-07
-3.58051e-08
-8.79207e-08
-1.98375e-07
-7.01442e-08
1.61504e-07
2.32882e-07
-2.94297e-07
1.03041e-07
1.59523e-07
-5.80507e-08
3.6758e-07
5.04831e-08
-5.82511e-07
2.43441e-08
-7.12097e-07
-1.22862e-09
-7.10694e-07
-2.47973e-08
-7.44765e-07
1.06164e-07
-4.67721e-07
7.00505e-08
-5.18142e-08
-6.96141e-08
-5.87175e-08
2.71177e-08
2.95313e-07
-8.95574e-08
3.36536e-08
1.52995e-07
-3.31148e-08
4.3435e-07
4.62506e-08
-6.61878e-07
3.30164e-08
-6.98864e-07
2.55381e-08
-7.03214e-07
5.04005e-11
-7.19278e-07
1.37778e-08
-4.81437e-07
7.9801e-08
-1.1783e-07
-3.03924e-08
4.05967e-08
1.345e-07
1.47005e-07
1.38199e-08
1.46468e-08
2.72839e-07
5.33256e-08
3.95674e-07
5.42762e-08
-6.62829e-07
2.95509e-08
-6.74139e-07
6.95811e-09
-6.80622e-07
-2.82568e-08
-6.84057e-07
-3.64507e-08
-4.73256e-07
-5.54326e-08
-9.88568e-08
-2.16932e-08
-6.41234e-08
-3.27293e-07
5.54468e-09
4.68827e-07
-1.53143e-07
9.86311e-08
4.52643e-08
1.97283e-07
3.52071e-08
-6.52768e-07
5.47079e-09
-6.44402e-07
-3.13455e-08
-6.43806e-07
-6.12271e-08
-6.54176e-07
-7.7921e-08
-4.5656e-07
-1.38589e-07
-3.81716e-08
3.47768e-08
-1.95044e-07
-4.92127e-07
-2.64324e-08
5.24113e-07
-3.67559e-07
-2.60088e-08
5.31383e-08
-2.23427e-07
3.05139e-08
-6.30125e-07
1.27567e-09
-6.15164e-07
-2.8188e-08
-6.14342e-07
-5.5562e-08
-6.26801e-07
-5.65594e-08
-4.55566e-07
-1.12857e-07
1.81427e-08
1.28946e-07
-2.07047e-07
-2.96982e-07
-7.2602e-08
3.43131e-07
-2.04391e-07
-1.18641e-07
6.49726e-08
-4.9278e-07
2.9406e-08
-5.94575e-07
1.44151e-09
-5.87199e-07
-2.48727e-08
-5.88028e-07
-5.91898e-08
-5.92484e-07
-4.85753e-08
-4.66169e-07
-1.41446e-07
1.11053e-07
2.16752e-07
-2.29206e-07
-1.28381e-07
-1.94878e-07
2.5063e-07
2.65253e-08
-2.73514e-07
6.50568e-08
-5.31334e-07
3.56448e-08
-5.65164e-07
2.32241e-10
-5.51787e-07
-3.45935e-08
-5.53202e-07
-6.47728e-08
-5.62304e-07
-1.54525e-08
-5.15487e-07
-6.26541e-08
1.58246e-07
2.97048e-07
-1.4293e-07
2.28884e-08
-1.93291e-07
-2.44957e-08
6.10435e-08
-3.11659e-07
6.17275e-08
-5.32022e-07
2.57525e-08
-5.29189e-07
-4.59636e-10
-5.25575e-07
-2.87648e-08
-5.24896e-07
-6.06996e-08
-5.30369e-07
-4.78992e-08
-5.28277e-07
6.59122e-08
4.4446e-08
2.80103e-07
8.28336e-08
1.60516e-07
-1.41071e-07
-2.12736e-07
1.24684e-07
-2.75824e-07
7.65485e-08
-4.8389e-07
3.8353e-08
-4.90994e-07
5.56377e-10
-4.87778e-07
-3.78239e-08
-4.86516e-07
-7.6175e-08
-4.92019e-07
-1.20725e-07
-4.8373e-07
5.8247e-08
-1.34501e-07
1.38155e-07
2.0025e-07
1.8679e-07
-6.66493e-08
-2.61212e-07
1.15957e-07
-2.04974e-07
7.26471e-08
-4.40551e-07
3.35382e-08
-4.51885e-07
-1.29751e-09
-4.52942e-07
-3.59651e-08
-4.51848e-07
-7.45212e-08
-4.53463e-07
-1.18787e-07
-4.39465e-07
-7.76804e-08
-1.75632e-07
4.29846e-08
1.75165e-08
1.46758e-07
1.93115e-08
-2.32719e-07
1.40472e-07
-1.98819e-07
8.85217e-08
-3.88589e-07
4.30779e-08
-4.06441e-07
5.66516e-10
-4.1043e-07
-3.95783e-08
-4.11704e-07
-8.74459e-08
-4.05595e-07
-1.40277e-07
-3.86634e-07
-1.34768e-07
-1.81146e-07
7.6603e-08
-1.6841e-07
6.54709e-08
4.46876e-08
-9.08403e-08
1.30408e-07
-2.63759e-07
8.64009e-08
-3.44581e-07
4.26392e-08
-3.62679e-07
-7.83119e-10
-3.67008e-07
-4.57599e-08
-3.66727e-07
-8.95988e-08
-3.61756e-07
-1.32456e-07
-3.43777e-07
-4.51065e-08
-2.68478e-07
1.2638e-08
1.88605e-08
1.19354e-07
-3.99903e-08
-3.46615e-08
1.39316e-07
-2.83735e-07
9.99037e-08
-3.05168e-07
5.27859e-08
-3.15561e-07
2.14807e-09
-3.1637e-07
-4.81767e-08
-3.16402e-07
-9.50655e-08
-3.14867e-07
-1.33926e-07
-3.04917e-07
-1.19347e-07
-2.83054e-07
-7.62612e-08
-3.04657e-08
2.12588e-07