/*--------------------------------*- C++ -*----------------------------------*\
  =========                 |
  \\      /  F ield         | OpenFOAM: The Open Source CFD Toolbox
   \\    /   O peration     | Website:  https://openfoam.org
    \\  /    A nd           | Version:  8
     \\/     M anipulation  |
\*---------------------------------------------------------------------------*/
FoamFile
{
    version     2.0;
    format      ascii;
    class       volScalarField;
    location    "8.5";
    object      p;
}
// * * * * * * * * * * * * * * * * * * * * * * * * * * * * * * * * * * * * * //

dimensions      [1 -1 -2 0 0 0 0];

internalField   nonuniform List<scalar> 
9150
(
-204.188
-205.2
-205.829
-206.281
-206.52
-206.535
-206.308
-205.838
-205.194
-204.182
-224.248
-224.761
-225.188
-225.509
-225.685
-225.68
-225.509
-225.184
-224.756
-224.244
-244.138
-244.417
-244.671
-244.892
-245.006
-245.005
-244.897
-244.677
-244.417
-244.137
-263.876
-264.049
-264.218
-264.373
-264.455
-264.463
-264.383
-264.22
-264.05
-263.876
-283.5
-283.676
-283.814
-283.944
-284.004
-284.003
-283.945
-283.815
-283.677
-283.501
-118.322
-118.999
-118.626
-118.276
-118.08
-118.071
-118.267
-118.624
-119.002
-118.317
-133.692
-134.404
-134.515
-134.586
-134.496
-134.496
-134.597
-134.525
-134.428
-133.709
-150.118
-150.882
-151.176
-151.534
-151.612
-151.634
-151.573
-151.186
-150.905
-150.139
-166.971
-168.148
-168.623
-169.238
-169.414
-169.438
-169.235
-168.635
-168.154
-166.973
-184.1
-186.125
-186.898
-187.58
-187.845
-187.826
-187.521
-186.888
-186.107
-184.087
-24.1853
-25.9397
-28.096
-29.1471
-29.6322
-29.5603
-29.0821
-28.0594
-25.9987
-24.3196
-44.7678
-45.1601
-46.1846
-46.6503
-47.0691
-47.1697
-46.7153
-46.2478
-45.2039
-44.8235
-65.1484
-64.9405
-66.0181
-65.6608
-66.0993
-66.1579
-65.5313
-65.9664
-64.9402
-65.1499
-87.9505
-85.0154
-85.9516
-84.4823
-84.5534
-84.5714
-84.4877
-85.9716
-85.0104
-87.9604
-113.034
-103.874
-103.242
-102
-101.532
-101.554
-102
-103.255
-103.881
-113.029
1649.63
1649.52
1649.7
1649.65
1649.64
1649.62
1649.58
1649.52
1649.46
1649.4
1630.11
1630.08
1630.07
1630.03
1629.96
1630.02
1629.98
1629.94
1629.89
1629.83
1610.39
1610.43
1610.5
1610.48
1610.48
1610.46
1610.4
1610.31
1610.31
1610.24
1590.8
1590.91
1590.98
1590.93
1591
1590.98
1590.87
1590.78
1590.73
1590.56
1571.17
1571.25
1571.32
1571.41
1571.46
1571.46
1571.3
1571.16
1571.06
1570.82
1551.37
1551.51
1551.69
1551.68
1551.84
1551.75
1551.77
1551.47
1551.34
1551.15
1531.65
1531.89
1532.02
1531.88
1531.9
1531.91
1531.83
1531.76
1531.64
1531.48
1511.89
1512
1512.03
1512.1
1512.09
1512.17
1512.05
1512
1511.9
1511.76
1492.07
1492.2
1492.29
1492.33
1492.35
1492.49
1492.4
1492.3
1492.21
1492.09
1472.48
1472.59
1472.68
1472.72
1472.74
1472.84
1472.82
1472.7
1472.59
1472.51
1453.02
1453.11
1453.16
1453.18
1453.19
1453.2
1453.28
1453.22
1453.14
1453.02
1433.74
1433.71
1433.92
1433.77
1433.77
1433.79
1433.71
1433.79
1433.76
1433.62
1414.51
1414.41
1414.46
1414.36
1414.35
1414.36
1414.36
1414.43
1414.35
1414.29
1395.13
1395.12
1395.09
1395
1394.96
1394.97
1394.97
1394.95
1394.91
1394.83
1375.92
1375.83
1375.73
1375.63
1375.56
1375.53
1375.51
1375.48
1375.4
1375.31
1356.64
1356.48
1356.36
1356.29
1356.24
1356.16
1356.11
1356.01
1355.89
1355.76
1337.26
1337.17
1337.04
1336.9
1336.93
1336.75
1336.71
1336.67
1336.58
1336.47
1317.69
1317.56
1317.44
1317.43
1317.38
1317.87
1317.64
1317.52
1317.49
1317.36
1297.77
1297.67
1297.82
1298.25
1298.59
1299.09
1299.29
1299.12
1298.78
1298.64
1279.8
1279.93
1280.06
1280.44
1280.56
1280.67
1280.75
1280.7
1280.21
1279.88
1262.03
1261.75
1261.97
1261.79
1261.8
1261.77
1261.65
1261.39
1261.16
1260.99
1243.42
1243.27
1243.08
1242.86
1242.67
1242.48
1242.22
1241.9
1241.57
1241.49
1224.49
1224.35
1224.15
1223.91
1223.67
1223.44
1223.12
1222.8
1222.95
1223.09
1205.7
1205.44
1205.19
1205.04
1204.93
1204.94
1204.73
1204.14
1204.41
1204.7
1186.56
1186.1
1185.72
1185.62
1185.63
1185.65
1185.46
1184.88
1184.18
1184.04
1167.46
1166.56
1165.86
1165.41
1165.51
1165.69
1165.26
1164.53
1162.97
1161.58
1148.27
1146.77
1147.67
1149.48
1146.51
1147.63
1146.96
1144.48
1144.94
1143.98
1130.77
1129.45
1129.61
1129.25
1128.33
1127.55
1127.14
1126.7
1125.97
1125.24
1112.79
1111.06
1111.88
1111.39
1110.92
1110.5
1110.26
1109.58
1108.74
1107.45
1091.81
1092.54
1092.47
1092.48
1093.55
1091.81
1091.23
1090.79
1090.25
1089.66
1072.45
1072.36
1072.5
1072.17
1071.95
1072.09
1072.05
1071.78
1071.35
1070.88
1052.1
1052.49
1052.85
1052.67
1052.5
1052.4
1052.35
1052.19
1051.91
1051.58
1032.54
1032.93
1033.44
1033.37
1032.98
1032.61
1032.41
1032.48
1032.27
1032.04
1013.12
1013.55
1013.83
1014.34
1013.73
1013.33
1012.74
1013.07
1012.63
1012.43
993.962
994.261
994.569
994.956
994.719
994.562
994.203
993.966
993.407
993.06
975.02
975.196
975.469
975.731
975.873
976.252
976.438
975.83
975.038
974.606
956.145
956.285
956.295
956.205
956.177
956.472
956.316
955.707
955.197
955.115
937.05
937.151
937.086
936.28
935.677
935.029
937.202
932.98
933.736
934.291
920.955
918.789
919.025
917.753
916.133
915.065
917.86
912.283
913.77
914.626
902.141
901.627
900.79
900.005
899.298
899.013
897.813
895.565
896.072
896.471
886.634
886.331
885.97
885.356
884.318
883.472
882.07
879.648
879.016
878.548
872.089
871.63
870.772
869.827
868.644
866.823
864.88
863.391
861.796
861.197
855.624
855.6
854.671
853.599
851.638
849.476
847.232
845.16
843.726
842.712
838.586
838.626
837.611
836.008
834.128
832.096
830.012
824.913
822.935
823.477
821.624
821.245
820.143
818.476
816.574
814.175
810.406
808.853
807.503
806.171
803.326
802.254
800.834
798.821
796.478
794.19
793.653
792.888
791.705
790.55
780.226
779.883
778.536
776.459
774.704
774.622
776.808
776.175
775.391
774.364
757.657
756.702
757.709
758.146
757.074
756.193
758.142
756.209
758.692
755.903
741.832
740.51
740.382
739.892
739.345
739.705
740.418
740.784
737.188
740.394
723.747
732.505
723.409
725.466
723.61
721.194
719.33
719.977
718.074
720.539
706.055
708.303
707.072
702.511
702.412
700.851
699.475
699.981
701.08
703.046
687.299
687.544
687.513
685.554
683.259
679.94
679.341
680.272
682.08
684.871
667.249
668.483
668.497
667.857
667.425
667.424
667.948
668.811
663.782
667.374
649.781
649.923
649.654
648.751
647.842
646.795
645.402
650.77
646.33
645.775
634.428
632.729
632.129
631.427
630.475
629.463
628.589
628.907
628.594
627.907
619.776
614.603
614.296
613.331
612.111
610.753
609.141
609.353
611.774
612.461
600.938
596.234
595.277
594.437
593.563
592.582
591.125
591.238
590.145
589.531
574.218
574.282
574.244
574.468
573.95
572.39
570.307
569.262
569.696
571.123
550.242
551.713
552.821
552.736
551.771
549.964
548.389
550.795
543.583
549.011
532.178
533.063
534.536
534.022
532.696
532.791
532.475
531.187
529.42
529.219
518.512
519.165
519.05
519.328
517.051
516.594
516.225
516.097
516.311
514.943
502.431
500.729
499.941
500.902
501.317
499.861
495.784
493.687
491.486
488.493
480.205
478.437
477.796
479.304
480.526
477.787
474.315
468.692
471.014
462.168
453.213
450.899
448.168
446.105
449.591
445.085
440.782
437.784
435.388
432.904
417.578
415.274
412.21
409.282
407.111
404.784
401.854
399.107
397.231
395.898
379.346
376.348
372.947
369.41
366.101
363.4
361.045
358.601
356.748
355.691
341.378
336.794
331.485
326.375
324.542
323.863
320.184
317.079
313.873
312.008
307.627
303.721
294.502
289.056
287.62
282.631
278.786
273.8
269.946
267.213
276.7
271.743
262.224
257.304
251.882
245.116
235.894
227.008
221.42
219.546
251.22
243.917
236.812
229.514
222.618
217.744
214.923
211.585
209.498
210.043
226.575
218.971
214.935
211.179
207.917
205.505
204.648
203.943
204.493
206.169
208.446
205.694
202.182
199.497
198.498
198.176
198.239
198.87
199.511
200.255
198.892
196.295
193.813
191.823
191.131
191.383
192.213
193.388
194.155
194.49
192.545
189.624
187.193
185.298
185.005
185.546
186.711
187.411
187.209
185.999
186.742
184.013
182.079
180.706
179.989
179.764
179.373
183.263
183.634
179.458
183.021
180.014
179.252
178.324
177.295
176.558
175.74
176.262
177.003
173.434
179.546
175.803
176.39
176.476
175.755
174.666
173.829
173.049
172.929
174.963
180.206
177.261
180.405
172.481
174.311
174.802
175.591
175.996
175.967
171.705
171.855
171.097
176.717
177.44
174.55
173.29
177.637
179.593
179.535
174.299
163.851
165.02
166.038
168.061
172.645
174.224
172.49
177.612
176.328
167.814
155.334
157.832
159.915
161.979
163.229
165.815
168.451
169.178
170.648
171.838
147.795
152.392
155.538
157.724
159.559
160.547
161.577
163.452
163.81
164.286
142.315
148.017
153.817
156.835
158.348
159.55
158.944
159.328
159.064
158.144
136.245
144.596
148.607
154.051
157.266
158.882
159.665
159.306
156.041
153.559
135.624
139.526
148.545
155.385
159.63
160.759
158.283
158.149
154.66
149.035
129.409
129.6
137.303
150.335
159.564
160.558
160.099
152.969
145.047
139.386
102.571
109.128
107.769
127.397
138.895
153.163
157.261
148.004
133.525
119.045
70.8216
77.9071
81.9579
87.0734
105.268
115.103
118.233
108.112
96.3191
90.0742
55.2591
50.4067
48.4402
55.7437
65.9842
73.6318
63.0481
58.5699
60.0497
60.5804
37.5982
39.4358
40.6294
51.3439
37.2348
43.4725
36.5954
25.8206
36.1737
40.0793
14.5734
31.7
27.5466
40.722
20.2403
25.5427
23.1941
25.0541
23.904
25.5488
1.00947
2.7561
1.10503
3.61088
6.40278
8.92833
-0.709059
18.9482
2.05061
6.33952
-1.71257
-2.4205
2.15311
-6.23541
0.560951
1.33029
-10.2374
-0.557917
-3.67175
-2.01162
-1.85699
-2.63596
-2.83741
-5.899
1.53719
-0.915666
-6.56057
-3.27622
-2.85362
-1.72776
-1.88339
-2.06267
-4.49299
-5.09553
-0.634848
-1.81491
-3.64567
-3.01418
-1.62198
-1.62267
-1.84461
-1.76644
-3.01026
-2.46684
-0.706962
-0.0320523
-1.34347
-2.3333
-1.66125
-1.66876
-1.88791
-1.74276
-2.73594
-0.961077
-0.456756
-0.927155
-2.2673
-3.25536
-1.71954
-1.73219
-1.89866
-2.49148
-5.07122
-3.00897
-1.51097
-1.45976
-2.38124
-4.33635
-2.2191
-1.79856
-1.86854
-3.85226
-5.64631
-5.99086
-6.08664
-5.7997
-5.51011
-5.17941
-3.78392
-1.86658
-2.97938
-9.4099
-12.6526
-14.5223
-15.4773
-15.6012
-14.7998
-12.9473
-9.61495
-2.9082
1649.35
1649.27
1649.19
1649
1648.78
1648.54
1648.41
1648.68
1648.27
1648.38
1648.05
1647.88
1647.72
1647.66
1647.6
1647.49
1647.45
1647.51
1647.46
1647.07
1646.02
1644.96
1644.04
1643.47
1643.21
1643.12
1643.15
1643.18
1643.2
1643.39
1643.61
1643.66
1643.76
1643.9
1644.01
1644.08
1644.08
1644.03
1644.06
1644.08
1629.8
1629.82
1629.56
1629.41
1629.16
1628.87
1628.62
1628.3
1628.1
1628.72
1627.63
1627.56
1627.68
1627.76
1627.72
1627.57
1627.52
1627.12
1626.75
1626.05
1625.1
1624.1
1623.47
1623.11
1623.05
1623.09
1623.25
1623.4
1623.38
1623.74
1624.04
1624.1
1624.21
1624.28
1624.3
1624.36
1624.55
1624.56
1624.57
1624.8
1610.18
1610.09
1609.86
1609.73
1609.59
1609.42
1609.24
1608.92
1608.98
1608.85
1608.42
1607.87
1608.8
1608.71
1608.93
1609.15
1608.6
1607.61
1606.66
1605.48
1604.19
1602.95
1602.63
1602.87
1603.58
1603.71
1603.49
1603.5
1603.85
1604.14
1604.58
1604.73
1604.66
1604.58
1604.51
1604.65
1605.2
1605.16
1605.06
1605.38
1590.47
1590.34
1590.1
1589.97
1589.87
1589.78
1589.64
1589.31
1589.37
1589.32
1589.4
1589.65
1589.61
1589.65
1589.78
1589.27
1589.13
1588.32
1586.92
1585.46
1583.93
1582.81
1583.06
1583.61
1584.14
1584.26
1584.47
1584.71
1585.05
1584.98
1585.31
1585.44
1585.31
1585.16
1585.13
1585.24
1585.41
1585.5
1585.73
1586.17
1570.74
1570.58
1570.37
1570.21
1570.05
1569.88
1569.76
1569.51
1569.54
1569.6
1569.74
1569.74
1569.33
1569.09
1568.75
1568.2
1567.25
1566.16
1565.26
1564.36
1563.42
1562.89
1563.83
1565.11
1564.64
1565.38
1565.45
1566.33
1566.7
1566.04
1566.27
1566.18
1565.81
1565.41
1565.3
1565.33
1565.42
1565.72
1565.68
1566.04
1551.07
1550.81
1550.64
1550.41
1550.15
1549.96
1550.48
1550.59
1549.58
1550.62
1549.67
1549.02
1547.53
1546.73
1545.72
1544.53
1543.33
1542.33
1541.59
1541.04
1540.9
1541.23
1541.96
1542.88
1543.89
1544.99
1546.08
1546.91
1547.48
1548.28
1548.17
1547.33
1546.64
1546.1
1546
1546.27
1546.16
1545.81
1546.29
1547.3
1531.3
1531.09
1530.92
1530.72
1530.4
1530.41
1530.32
1530.03
1529.31
1529.2
1528.01
1526.95
1525.46
1524.04
1522.46
1520.54
1518.48
1516.88
1516.1
1515.99
1516.54
1517.51
1518.82
1520.42
1522.2
1523.86
1525.45
1526.83
1528.54
1530.02
1530.26
1529.88
1529.58
1529.32
1529.32
1529.24
1528.51
1528.61
1528.53
1528.9
1511.6
1511.41
1511.25
1511.07
1510.72
1510.72
1510.24
1509.58
1508.62
1507.71
1506.45
1504.95
1503.25
1501.21
1498.94
1496.29
1493.7
1494.44
1492.03
1490.92
1491.72
1493.08
1494.87
1497.21
1499.66
1501.87
1503.99
1506.14
1508.38
1510.14
1510.57
1510.5
1510.96
1510.62
1509.52
1509.61
1509.29
1509.34
1509.4
1509.77
1491.93
1491.74
1491.56
1491.32
1490.9
1490.8
1490.52
1489.48
1487.91
1486.65
1485.23
1483.72
1481.8
1479.6
1477.42
1475.39
1473.94
1471.84
1470.57
1471.06
1473.03
1473.12
1474.68
1476.61
1478.56
1480.43
1482.2
1484.18
1486.29
1488.18
1489.27
1489.35
1489.16
1489.63
1489.1
1489.46
1489.64
1489.85
1489.89
1489.87
1472.29
1472.05
1471.79
1471.52
1471.73
1471.29
1470.51
1469.38
1468.4
1466.13
1464.83
1463.42
1461.8
1460.07
1458.45
1457.03
1455.78
1454.67
1453.36
1453.96
1454.39
1456.2
1457.03
1458.79
1460.22
1461
1462.3
1463.5
1464.63
1465.91
1466.7
1467.17
1468.34
1469.2
1469.35
1470.18
1470.13
1470.1
1470.34
1470.4
1452.78
1452.52
1452.19
1452.02
1451.8
1451
1452.03
1449.34
1449.21
1447.74
1445.74
1444.23
1442.96
1441.62
1440.56
1439.54
1438.81
1438.64
1437.72
1437.08
1436.97
1437.74
1438.71
1440.02
1441.32
1442.55
1442.71
1445.41
1444.48
1445.37
1446.85
1449.06
1448.64
1449.43
1449.9
1449.89
1449.85
1449.8
1450.36
1450.23
1433.44
1433.1
1432.69
1432.38
1432.43
1431.46
1432
1430.53
1429.45
1429.39
1427.04
1425.35
1424.15
1423.08
1422.16
1421.45
1422.21
1422.04
1418.97
1418.99
1418.93
1419.56
1420.62
1421.93
1423.33
1424.58
1425.1
1427.95
1428.05
1425.99
1430.52
1431.71
1434.43
1430.22
1430.5
1430.44
1430.11
1430.27
1430.74
1430.99
1414.11
1413.77
1413.31
1412.93
1413.61
1412.12
1411.29
1410.43
1409.3
1409.16
1407.57
1406.21
1405.21
1404.25
1403.32
1402.46
1402.36
1403.98
1401.74
1400.96
1401.44
1402.27
1403.07
1404.29
1405.59
1406.7
1407.62
1408.44
1409.63
1407.21
1411.94
1413.6
1415.56
1411.3
1411.16
1410.53
1410.37
1411.11
1411.52
1411.82
1394.7
1394.54
1394.1
1393.5
1392.86
1392.11
1391.34
1390.6
1389.84
1389.04
1388.2
1387.34
1386.51
1385.74
1385.14
1384.57
1384.14
1383.79
1383.66
1383.87
1384.45
1385.19
1386.02
1386.99
1387.91
1388.93
1389.69
1391.04
1392.1
1389.33
1392.88
1392.04
1396.59
1392.42
1392.89
1391.1
1392.55
1391.84
1393
1393.17
1375.18
1375.01
1374.67
1374.17
1373.42
1372.29
1371.22
1370.71
1370.27
1369.73
1369.13
1368.49
1367.97
1367.4
1366.93
1366.62
1366.34
1366.25
1366.35
1366.6
1367.1
1367.76
1368.73
1369.43
1370.43
1370.95
1371.24
1374.43
1374.61
1373.56
1374.64
1372.23
1376.6
1373.44
1374.8
1373.01
1374.54
1375.14
1375.2
1375.38
1355.6
1355.4
1355.07
1354.54
1353.84
1353.17
1353.12
1351.44
1350.78
1350.12
1349.48
1349.15
1348.93
1348.67
1348.5
1348.43
1348.46
1348.55
1348.69
1349.01
1349.48
1350.05
1350.81
1351.54
1352.96
1353.75
1353.86
1357.08
1354.15
1354.78
1355.22
1354.17
1357.64
1353.69
1354.57
1355.42
1356.09
1357.62
1357.95
1357.89
1336.29
1336.06
1335.74
1335.29
1334.75
1334.64
1334.01
1333.18
1332.52
1331.75
1330.79
1330.51
1330.46
1330.42
1330.4
1330.47
1330.56
1330.7
1330.85
1330.99
1331.27
1331.75
1332.02
1332.67
1333.25
1334.39
1334.91
1337.31
1333.06
1334.93
1336.27
1337.37
1338.04
1337.73
1335.17
1336.02
1338.52
1339.81
1339.33
1340.31
1317.23
1317.07
1316.83
1316.53
1316.27
1316.61
1316.28
1315.68
1315.01
1314.38
1313.71
1313.14
1312.88
1312.73
1312.61
1312.6
1312.65
1312.69
1312.76
1312.85
1313
1312.96
1312.98
1312.75
1312.4
1314.79
1315.2
1313.42
1314.22
1315.74
1317.01
1318.42
1319.6
1319.57
1319.65
1319.81
1319.29
1320.78
1321.22
1322.45
1298.46
1298.31
1298.28
1298.27
1298.31
1298.37
1298.6
1298.5
1297.9
1297.28
1296.32
1296.1
1295.49
1295.51
1295.3
1294.78
1294.94
1294.7
1294.61
1294.42
1294.45
1294.52
1294.41
1294.77
1295.03
1295.18
1293.93
1294.1
1294.74
1295.8
1296.98
1298.14
1299.03
1299.39
1299.31
1300.01
1300.44
1301.45
1302.25
1303.51
1279.77
1279.58
1279.8
1279.86
1280.03
1280.49
1280.56
1280.43
1280.1
1279.67
1278.6
1278.05
1277.73
1277.56
1277.1
1276.88
1276.54
1276.21
1275.9
1275.42
1275.22
1275.49
1275.65
1275.91
1275.97
1274.75
1274.36
1274.39
1275.05
1275.93
1276.88
1277.8
1278.62
1279.28
1279.8
1280.55
1281.59
1282.72
1283.77
1284.79
1260.82
1260.63
1260.8
1261.08
1261.55
1261.78
1262.07
1261.98
1261.23
1260.95
1260.47
1260
1259.52
1259.01
1258.71
1257.9
1258.08
1257.46
1257.51
1256.38
1257.35
1257.63
1257.43
1255.69
1255.49
1255.14
1254.64
1254.69
1255.14
1255.83
1256.61
1257.41
1258.2
1258.95
1259.69
1260.67
1261.98
1263.63
1265.42
1267.02
1241.65
1242.27
1242.85
1243.29
1243.63
1243.25
1243.29
1243.1
1242.6
1242.07
1241.42
1240.94
1240.59
1240.19
1239.42
1238.8
1238.24
1237.72
1237.17
1236.2
1236.51
1236.49
1236.54
1236.6
1236.53
1236.38
1235.37
1235.17
1235.52
1235.94
1236.26
1236.62
1237.05
1237.56
1238.19
1239.1
1240.37
1242.22
1244.72
1247.32
1223.45
1224
1224.27
1224.68
1224.79
1224.71
1224.49
1224.18
1223.78
1223.29
1222.69
1222.09
1221.52
1220.92
1220.08
1218.85
1217.73
1217.02
1216.83
1216.58
1216.69
1216.49
1216.21
1215.78
1215.96
1216.04
1215.88
1215.45
1215.16
1215.34
1215.42
1215.4
1215.37
1215.33
1215.32
1215.42
1215.72
1216.63
1217.87
1220.31
1204.42
1205.14
1205.66
1205.8
1205.72
1205.42
1205.13
1204.79
1204.49
1203.95
1203.33
1202.8
1202.48
1202
1201.08
1199.79
1199.02
1198.45
1198.11
1196.91
1197.09
1197.18
1196.52
1196.11
1195.97
1195.48
1194.5
1195.38
1195.32
1194.67
1194.67
1194.39
1193.96
1193.35
1192.53
1191.19
1189.32
1187.04
1189.1
1189.74
1184.42
1184.92
1185.42
1185.54
1185.45
1185.78
1186.37
1186.36
1185.88
1185.5
1185.39
1185.17
1183.49
1183.01
1181.62
1181.79
1181.05
1180.27
1179.43
1178.76
1178.62
1178.21
1177.45
1176.85
1176.62
1176.32
1177.13
1178.1
1177.04
1175.27
1175.07
1174.53
1173.68
1172.62
1171.23
1169.11
1165.87
1163.67
1164.87
1164.98
1161.81
1162.95
1164.06
1164.84
1165.69
1167.26
1167.96
1168.03
1167.64
1167.32
1166.73
1165.58
1166.92
1163.19
1164.52
1164.28
1163.8
1163.55
1162.82
1160.89
1160.32
1159.15
1157.89
1157.33
1157.31
1157.98
1157.89
1158.4
1158.57
1156.82
1156.41
1155.56
1154.59
1153.81
1152.26
1149.75
1146.46
1145.01
1145.94
1146.88
1141.7
1142.35
1144.02
1144.91
1145.56
1146.23
1147.12
1147.17
1147.19
1146.89
1146.19
1145.45
1144.96
1145.43
1146.2
1145.39
1145.2
1145.47
1144.47
1142.14
1140.63
1139.91
1139.48
1140.03
1139.97
1139.96
1140.4
1140.62
1138.75
1137.96
1137.88
1138.09
1137.53
1136.53
1135.1
1133.23
1131.26
1131.75
1133.16
1134.38
1124.58
1124.25
1125.26
1125.71
1125.99
1126.22
1126.45
1126.53
1126.25
1125.67
1124.64
1123.83
1124.53
1124.93
1125.69
1126.04
1126.67
1126.2
1126.58
1123.73
1122.3
1119.99
1119.03
1118.57
1118.9
1117.98
1118.96
1119.79
1120.72
1120.24
1120.26
1118.79
1119.1
1119.11
1118.65
1118.11
1118.08
1119.53
1121.22
1122.4
1106.76
1106.77
1107.09
1106.94
1106.9
1106.96
1107.02
1106.84
1106.68
1106.29
1106.51
1107.2
1108.02
1109.45
1109.58
1107.27
1106.64
1106.18
1105.29
1104.31
1102.33
1100.87
1100.09
1099.75
1099.66
1100.87
1101.1
1100.91
1100.66
1101.59
1101.64
1102.02
1102.14
1102.2
1102.63
1103.55
1104.58
1106.06
1107.53
1108.54
1089.5
1088.85
1089.07
1088.14
1087.96
1087.86
1087.78
1087.71
1087.74
1087.85
1089.39
1089.57
1088.91
1087.68
1088.21
1088
1087.54
1086.34
1085.35
1084.3
1083.69
1082.88
1080.88
1080.59
1080.69
1081.49
1082.65
1083.73
1084.25
1083.9
1084.41
1084.24
1083.89
1083.5
1084.14
1085.92
1088.19
1089.54
1092.57
1093.81
1070.52
1070.27
1070.32
1069.35
1069.06
1068.86
1068.67
1068.58
1068.39
1068.02
1073.96
1069.2
1068.88
1068.56
1067.61
1065.91
1065.17
1065.15
1065.78
1065.68
1065.08
1064.55
1064.21
1064.01
1063.81
1063.73
1064.6
1065.15
1065.73
1065.82
1065.95
1066.22
1065.65
1064.8
1067.37
1069.11
1070.68
1073.98
1075.36
1076.04
1051.31
1051.01
1050.68
1050.37
1050.19
1050.08
1049.96
1050.11
1050.19
1050.09
1051.04
1047.09
1046.49
1044.73
1043.7
1042.92
1042.21
1044.43
1045.51
1047.18
1047.39
1046.77
1046.21
1045.67
1045.07
1045.5
1045.9
1046.14
1046.05
1046.52
1048.6
1048.32
1049.23
1048.44
1051.29
1053.32
1055.68
1058.14
1059.51
1060.68
1031.87
1031.61
1031.3
1031.05
1030.95
1030.89
1030.87
1030.93
1030.84
1030.63
1031.62
1026.22
1024.11
1021.38
1019.48
1016.84
1015.48
1016.72
1020.88
1025.8
1028.43
1027.31
1026.06
1025.86
1024.99
1026.44
1027.22
1027.47
1028.27
1029.23
1030.38
1030.88
1030.29
1032.59
1034.33
1035.98
1039.32
1041.9
1043.37
1044.09
1012.19
1012
1011.72
1011.48
1011.41
1011.13
1011.53
1011.7
1011.18
1010.02
1008.15
1004.55
1001.32
997.532
992.967
988.943
985.221
984.298
990.022
997.572
999.209
998.975
1001.17
1002.83
1004.72
1006.57
1008.38
1010.18
1011.06
1011.49
1012.23
1012.62
1012.7
1012.58
1014.25
1016.13
1018.4
1020.31
1022.22
1023.65
993.541
992.83
992.76
993.085
992.975
991.934
992.374
992.757
992.605
990.817
987.471
983.439
980.303
977.698
974.949
971.959
970.709
967.176
967.842
970.793
969.727
970.904
970.108
974.322
979.031
983.588
987.509
991.157
993.111
993.329
992.891
991.751
990.7
990.522
991.105
992.227
993.908
996.039
998.514
1001.09
974.81
974.698
974.461
974.375
974.192
973.301
973.18
972.939
972.291
970.86
969.848
967.814
963.995
963.91
963.357
961.554
961.646
960.897
956.224
953.117
954.541
954.788
955.994
957.115
958.862
962.966
969.635
972.576
974.309
974.329
974.824
973.641
972.195
971.13
971.149
972.21
974.097
976.871
979.624
982.6
955.569
955.832
955.722
955.286
954.968
954.502
954.356
954.069
953.594
952.918
952.817
951.993
949.429
948.411
950.082
950.322
952.13
951.565
946.3
945.253
943.271
942.799
943.749
946.742
950.875
950.913
957.388
961.955
963.07
963.157
962.632
960.893
959.213
958.199
957.774
958.057
958.919
960.558
962.216
965.041
934.881
935.603
935.753
935.744
935.83
935.762
935.681
935.64
935.673
935.616
935.971
936.44
935.956
935.44
934.161
935.868
936.741
935.24
934.33
938.166
936.644
935.256
933.336
932.528
933.172
935.361
938.663
942.483
943.822
944.396
943.675
942.893
941.798
940.869
940.08
939.66
939.832
940.614
942.27
945.144
915.261
915.687
916.11
916.511
916.81
917.069
917.349
917.569
917.874
918.54
918.293
918.73
917.74
918.247
917.801
918.641
921.53
921.994
923.664
926.191
925.779
923.318
920.461
916.114
912.065
910.328
912.733
916.888
920.631
924.628
926.913
924.927
922.622
921.671
920.483
920.094
920.079
919.646
920.182
922.529
896.605
896.695
896.905
897.256
897.731
898.269
898.83
899.385
899.88
900.154
900.828
901.119
901.805
902.137
902.678
903.679
905.068
906.877
908.795
909.903
911.831
909.916
907.222
903.166
897.469
890.997
893.297
896.116
899.448
901.926
905.102
905.189
903.501
901.569
899.975
901.069
900.803
901.856
902.546
903.021
878.342
878.04
878.121
878.5
878.975
879.536
880.141
880.971
881.523
881.952
882.408
882.67
882.848
883.146
883.442
883.505
885.116
890.854
889.699
894.189
894.965
891.149
894.79
894.12
882.187
876.853
875.743
874.658
876.021
878.598
879.368
880.757
881.135
878.776
878.609
879.261
880.434
881.255
882.574
884.47
860.356
859.642
859.627
859.934
860.46
861.151
861.931
862.686
863.318
863.877
864.558
864.927
864.818
865.047
865.446
865.544
867.733
869.448
868.264
869.393
873.031
868.711
870.107
866.31
862.202
854.086
854.751
854.573
853.424
852.277
856.002
857.132
857.033
857.077
856.111
857.124
858.794
860.857
862.559
864.332
841.454
840.195
840.101
840.624
841.45
842.556
843.764
844.702
845.589
846.313
847.288
848.331
847.854
849.063
848.768
848.821
851.246
852.077
851.434
851.239
850.005
852.778
853.586
851.393
845.353
845.983
842.954
840.196
839.162
838.381
840.392
843.679
843.639
839.593
838.89
838.969
839.693
842.299
844.932
846.779
822.988
823.25
820.265
820.494
821.372
823.355
825.062
826.51
827.715
828.662
829.227
829.424
829.848
831.242
831.734
832.652
835.023
837.747
837.609
837.159
836.886
834.872
836.235
835.859
831.802
831.402
829.579
829.296
829.23
829.475
830.894
839.609
833.934
833.604
832.647
832.436
833.046
834.718
833.503
834.468
806.401
806.39
805.041
805.638
804.611
805.368
806.772
808.344
809.624
810.545
811.291
811.628
811.887
812.94
813.9
815.409
817.685
818.969
819.691
819.508
825.461
819.293
818.318
818.439
817.988
817.162
817.072
818.645
819.897
820.9
821.871
826.511
825.319
823.48
823.314
822.625
822.007
821.625
821.074
821.536
790.501
791.142
791.839
791.686
791.965
791.204
791.196
791.25
792.046
792.906
793.199
793.757
794.223
794.839
795.641
796.98
798.693
799.493
799.713
799.782
800.104
801.289
802.082
803.029
803.362
803.458
803.314
804.771
805.958
806.919
807.693
808.719
814.47
809.529
809.329
808.892
806.504
806.559
806.636
805.559
773.771
776.512
775.491
775.279
774.328
775.784
775.924
773.847
773.776
775.039
775.651
775.85
776.532
777.205
777.951
778.68
780.017
780.795
781.561
781.856
782.923
784.105
785.336
786.503
787.219
788.073
791.06
792.404
792.911
792.898
792.568
789.89
793.912
794.601
793.845
795.488
793.408
790.502
790.094
789.054
759.188
759.042
757.975
756.963
756.374
756.35
756.713
758.683
754.118
756.003
757.16
757.71
758.252
759.352
759.758
760.872
761.255
762.546
762.98
763.473
765.04
766.607
768.048
768.77
769.384
770.651
774.066
778.395
780.312
779.663
774.589
772.276
772.68
773.37
773.892
775.28
774.359
770.457
770.467
770.405
742.199
737.664
736.195
735.613
734.765
734.701
734.712
739.334
736.968
737.983
738.846
739.515
740.178
741.007
741.777
742.51
743.033
743.621
744.129
744.296
752.046
749.938
748.994
749.905
750.698
751.632
752.992
753.715
753.863
752.535
751.416
750.455
749.875
749.984
750.617
750.106
753.513
751.551
753.401
753.209
722.268
722.712
718.68
716.636
715.042
714.955
715.285
718.922
720.058
719.89
720.895
721.549
721.624
723.064
723.534
724.24
724.587
725.039
725.767
726.612
731.256
731.482
729.715
730.563
731.066
731.678
732.522
732.611
731.683
729.684
728.599
727.326
727.187
727.726
728.486
729.437
731.184
732.249
733.875
737.92
704.582
703.364
700.353
698.308
696.501
697.517
699.823
702.047
703.599
702.497
704.514
704.436
704.564
706.992
705.098
705.991
706.327
706.79
707.501
708.396
709.284
709.46
708.05
707.674
707.783
707.149
708.557
711.249
710.582
709.452
708.958
710.142
709.801
707.588
708.267
709.12
710.234
711.353
714.461
718.319
686.644
685.94
683.136
680.122
681.65
684.77
685.696
686.885
685.849
687.77
685.079
688.36
685.844
686.655
688.379
688.501
688.379
688.478
689.626
690.578
691.024
690.344
688.953
691.82
687.848
692.994
689.132
692.928
692.755
693.437
695.469
695.054
694.316
694.223
692.424
694.324
696.919
698.245
698.81
699.701
667.321
666.004
663.962
663.058
662.878
663.391
665.204
666.719
667.689
666.323
663.934
668.829
666.565
669.823
671.379
669.933
670.313
671.338
672.386
673.621
675.33
675.04
676.928
674.54
673.175
673.37
673.918
675.094
678.083
678.303
678.652
678.94
678.32
678.443
677.159
678.206
677.898
685.371
682.87
687.958
646.961
645.939
644.91
644.76
644.823
645.347
646.156
647.122
647.686
647.804
646.699
647.881
650.359
651.089
651.635
652.748
653.798
654.973
655.843
656.017
661.591
658.455
660.141
661.422
661.079
661.443
662.445
663.885
664.513
665.421
664.376
664.383
663.283
662.75
662.15
661.557
660.256
667.772
663.851
667.334
626.535
624.766
624.033
623.828
623.812
624.104
625.336
626.202
626.769
627.756
628.828
629.737
632.153
634.314
637.142
638.163
639.192
639.984
640.335
640.234
642.162
643.337
644.358
646.325
646.961
648.329
650.162
651.634
651.062
650.186
648.107
646.289
648.449
648.697
648.036
646.488
646.573
650.239
647.801
648.922
612.14
611.912
611.38
609.637
605.536
604.517
604.762
606.038
607.559
607.115
609.43
612.014
613.882
615.827
617.894
620.087
623.466
623.548
622.655
622.891
623.905
626.028
628.192
630.323
630.702
633.59
635.167
636.639
636.923
635.481
632.514
632.445
633.411
633.114
632.464
632.143
632.251
632.453
632.653
632.866
589.984
588.819
588.436
587.993
588.539
589.02
589.918
590.314
589.94
590.843
592.21
592.311
595.264
598.1
600.345
602.197
602.918
606.274
603.616
604.612
605.658
608.225
611.24
613.159
616.134
618.491
618.713
620.423
621.885
619.701
616.159
615.07
615.773
615.222
613.6
613.396
614.029
614.751
614.42
616.856
571.792
570.631
570.307
570.519
569.204
568.953
568.557
569.537
570.286
573.11
575.033
575.526
575.609
578.081
580.32
582.296
583.904
584.619
586.147
587.043
587.083
589.288
591.283
592.576
602.363
598.086
599.567
601.933
602.959
601.184
598.377
596.415
595.655
595.023
594.543
594.459
594.499
595.552
596.362
596.657
548.76
554.867
545.35
547.043
546.851
547.137
548.195
549.015
549.555
549.67
552.283
553.772
555.513
558.136
560.407
562.181
563.643
564.234
566.19
566.82
568.533
569.931
570.383
575.764
575.598
576.453
577.612
578.529
578.649
577.62
574.956
570.558
569.976
570.492
570.692
572.3
573.743
574.935
576.561
577.404
532.825
535.085
533.457
530.681
531.006
529.072
526.894
526.779
526.27
527.406
529.523
532.395
535.47
538.305
540.754
542.693
544.21
545.534
546.817
546.944
549.614
548.256
554.676
554.591
555.07
554.671
553.37
553.877
554.426
552.501
549.097
553.926
543.485
545.669
548.759
550.505
552.247
552.827
554.521
555.013
509.639
511.649
511.427
508.523
509.482
507.936
506.964
506.77
505.724
507.688
511.472
515.207
518.785
521.871
524.114
525.619
527.039
527.824
528.37
528.554
529.78
528.87
536.18
533.659
535.762
534.301
530.224
531.871
532.463
533.374
537.99
536.565
530.071
530.028
532.395
531.787
532.334
532.911
533.731
540.818
486.535
486.191
485.187
484.566
484.253
485.068
486.712
487.512
488.698
490.759
494.969
500.195
504.337
506.795
508.182
508.962
510.918
511.257
510.252
510.759
510.777
510.11
509.145
513.082
515.914
516.586
513.876
519.914
523.79
525.356
527.142
526.279
518.103
516.275
516.442
515.742
515.955
516.388
518.403
528.035
463.434
459.684
459.091
458.96
459.772
461.38
464.005
467.56
471.178
473.741
476.948
482.274
486.882
490.225
492.026
492.613
492.726
492.645
492.847
492.659
492.394
493.44
493.993
500.407
501.996
499.087
498.874
499.802
501.589
503.087
503.088
503.505
502.102
501.452
501.193
500.922
502.029
502.371
505.069
514.503
430.21
431.523
431.47
431.483
431.913
435.299
440.437
445.548
452.165
452.467
456.16
461.992
467.396
471.69
474.297
475.445
475.772
475.83
475.729
475.565
475.744