/*--------------------------------*- C++ -*----------------------------------*\
  =========                 |
  \\      /  F ield         | OpenFOAM: The Open Source CFD Toolbox
   \\    /   O peration     | Website:  https://openfoam.org
    \\  /    A nd           | Version:  8
     \\/     M anipulation  |
\*---------------------------------------------------------------------------*/
FoamFile
{
    version     2.0;
    format      ascii;
    class       volVectorField;
    location    "8.5";
    object      U;
}
// * * * * * * * * * * * * * * * * * * * * * * * * * * * * * * * * * * * * * //

dimensions      [0 1 -1 0 0 0 0];

internalField   nonuniform List<vector> 
9150
(
(0.00483436 -0.0786185 0)
(0.013102 -0.0974181 0)
(0.0108532 -0.104691 0)
(0.00860888 -0.108163 0)
(0.00221022 -0.109387 0)
(-0.00308951 -0.109233 0)
(-0.00955651 -0.10758 0)
(-0.0109949 -0.104483 0)
(-0.01318 -0.0972807 0)
(-0.00476361 -0.0785138 0)
(0.00582402 -0.0919851 0)
(0.00851378 -0.100487 0)
(0.00744725 -0.102249 0)
(0.00429998 -0.104615 0)
(0.00122182 -0.105532 0)
(-0.0019436 -0.105601 0)
(-0.00424169 -0.105058 0)
(-0.00747322 -0.102364 0)
(-0.00858103 -0.100487 0)
(-0.0058329 -0.0919534 0)
(0.00168788 -0.0954472 0)
(0.00453328 -0.0989732 0)
(0.00376286 -0.101009 0)
(0.0034362 -0.101704 0)
(0.00142407 -0.102398 0)
(-0.000511044 -0.102528 0)
(-0.0033707 -0.101728 0)
(-0.00373906 -0.10108 0)
(-0.00455802 -0.0989506 0)
(-0.00169324 -0.0954372 0)
(0.00170786 -0.0983953 0)
(0.00244593 -0.100384 0)
(0.00219216 -0.100236 0)
(0.00127637 -0.100884 0)
(0.000312893 -0.100928 0)
(-0.000622 -0.10086 0)
(-0.00129033 -0.100876 0)
(-0.00223741 -0.100158 0)
(-0.00245034 -0.100384 0)
(-0.00171334 -0.0983917 0)
(0.000170673 -0.099482 0)
(0.000713629 -0.0995808 0)
(0.000476602 -0.100026 0)
(0.000696962 -0.0998663 0)
(0.000207669 -0.1001 0)
(-0.000158843 -0.100101 0)
(-0.000677948 -0.0998757 0)
(-0.000468172 -0.100087 0)
(-0.000711888 -0.0995838 0)
(-0.000171825 -0.0994823 0)
(0.0744767 -0.194146 3.24676e-26)
(0.0494092 -0.184298 0)
(0.0295345 -0.17571 0)
(0.0156889 -0.174487 0)
(0.00533641 -0.175651 0)
(-0.00419586 -0.175769 0)
(-0.0151893 -0.17462 0)
(-0.0297871 -0.175456 0)
(-0.049315 -0.184088 0)
(-0.0745719 -0.194015 -3.21552e-26)
(0.0582213 -0.146478 8.11792e-27)
(0.0485681 -0.14636 0)
(0.0283364 -0.156446 0)
(0.0205006 -0.157331 0)
(0.00410562 -0.155502 0)
(-0.00605327 -0.154719 0)
(-0.0214517 -0.155694 0)
(-0.0290113 -0.156271 0)
(-0.0486454 -0.14657 0)
(-0.0584399 -0.146661 -7.84653e-27)
(0.0472433 -0.121054 3.4769e-27)
(0.0431353 -0.130886 0)
(0.0292993 -0.133155 0)
(0.0169632 -0.136645 0)
(0.00650966 -0.139911 0)
(-0.00554308 -0.140768 0)
(-0.0165259 -0.138459 0)
(-0.0294413 -0.133614 0)
(-0.0433434 -0.131271 0)
(-0.0474339 -0.121322 -3.48518e-27)
(0.0367894 -0.0991297 7.24702e-27)
(0.0392839 -0.110014 0)
(0.0227702 -0.120589 0)
(0.0173882 -0.125443 0)
(0.0037212 -0.125487 0)
(-0.00583208 -0.125383 0)
(-0.0179273 -0.123954 0)
(-0.0230477 -0.120811 0)
(-0.0393423 -0.110185 0)
(-0.0368617 -0.0993266 -7.18024e-27)
(0.0241017 -0.0817602 -1.76985e-26)
(0.0279217 -0.101337 -2.1298e-26)
(0.0200077 -0.108508 -5.34839e-27)
(0.0113208 -0.113865 -4.60499e-27)
(0.00585932 -0.117063 -1.50561e-28)
(-0.00312177 -0.117256 -3.31741e-28)
(-0.00987603 -0.114902 -4.52939e-27)
(-0.0190799 -0.108328 -5.17291e-27)
(-0.027589 -0.101419 -2.13192e-26)
(-0.0240329 -0.0818105 -1.76523e-26)
(0.0201066 -0.148085 0)
(0.0144237 -0.205767 0)
(0.0242527 -0.216305 0)
(0.0139888 -0.223014 0)
(0.00799234 -0.22574 0)
(-0.00361535 -0.22805 0)
(-0.0109664 -0.223181 0)
(-0.0231902 -0.217152 0)
(-0.0138972 -0.205765 0)
(-0.0197113 -0.147711 0)
(0.0160691 -0.1658 0)
(0.00169186 -0.199459 0)
(0.0148712 -0.209938 0)
(0.0016103 -0.214966 0)
(0.00527705 -0.215014 0)
(-0.00668973 -0.215762 0)
(-0.00296443 -0.214309 0)
(-0.0151151 -0.209634 0)
(-0.00164831 -0.199506 0)
(-0.0162236 -0.165976 0)
(0.0141208 -0.172812 0)
(-0.00449737 -0.204124 0)
(0.0106788 -0.209236 0)
(-0.000300326 -0.209319 0)
(0.00287153 -0.210863 0)
(-0.00179493 -0.2107 0)
(0.00117734 -0.210535 0)
(-0.0102561 -0.209467 0)
(0.00461095 -0.203981 0)
(-0.0137795 -0.172703 0)
(0.0191869 -0.195801 0)
(-0.007229 -0.204959 0)
(0.00924059 -0.210916 0)
(-6.69712e-05 -0.20686 0)
(0.0015471 -0.206743 0)
(-0.000840812 -0.206752 0)
(0.00027277 -0.205567 0)
(-0.0092339 -0.210712 0)
(0.00721919 -0.204696 0)
(-0.0193966 -0.195606 0)
(0.0365803 -0.216821 0)
(0.0106803 -0.203754 0)
(0.0155271 -0.201789 0)
(0.0119662 -0.195677 0)
(0.00135908 -0.192162 0)
(-0.0027151 -0.191667 0)
(-0.0122592 -0.195657 0)
(-0.0156074 -0.201559 0)
(-0.0106631 -0.203412 0)
(-0.0365573 -0.216616 0)
(0.015736 0.000397393 0)
(0.0160222 -0.00430539 0)
(0.0165629 -0.00240065 0)
(0.0144329 0.00191631 0)
(0.0102091 0.00502567 0)
(0.0071449 0.00250463 0)
(0.00612879 0.00159806 0)
(0.00555146 -1.18359e-05 0)
(0.00657582 -0.00143041 0)
(0.00624807 -0.000956509 0)
(0.0139242 0.00832696 0)
(0.00729222 0.0010176 0)
(0.00446263 0.00760011 0)
(0.00249488 0.00922052 0)
(0.002125 0.00915463 0)
(0.000911445 0.0054045 0)
(0.000652788 0.00146179 0)
(0.000218819 -0.000810474 0)
(-0.00114758 0.000334793 0)
(-0.00420197 0.00703374 0)
(0.022942 0.0266653 0)
(0.0137237 0.0127375 0)
(0.00745531 0.00927849 0)
(0.00561424 0.00812734 0)
(0.00374513 0.00825415 0)
(0.00341365 0.00512001 0)
(0.00255949 0.00306446 0)
(0.000668253 0.00300328 0)
(-0.00394118 0.00714916 0)
(-0.0096249 0.0189325 0)
(0.031244 0.0418808 0)
(0.0251737 0.0319533 0)
(0.0175976 0.0229993 0)
(0.0138383 0.0162352 0)
(0.0092782 0.0133586 0)
(0.00615235 0.00856426 0)
(0.00375514 0.00754006 0)
(-9.19589e-05 0.0122135 0)
(-0.00842578 0.0209813 0)
(-0.013778 0.0307242 0)
(0.0284984 0.0507265 0)
(0.0245144 0.0416263 0)
(0.0189653 0.0323681 0)
(0.0141305 0.0259499 0)
(0.00819624 0.0236952 0)
(0.00141833 0.0163825 0)
(-0.00338612 0.0158857 0)
(-0.00662315 0.0266149 0)
(-0.0129798 0.033296 0)
(-0.0163402 0.0380422 0)
(0.0232401 0.0582457 0)
(0.0215596 0.0495278 0)
(0.0169245 0.0403878 0)
(0.0134495 0.0368254 0)
(0.00822315 0.0371498 0)
(0.00202474 0.0308204 0)
(-0.00458102 0.0250485 0)
(-0.00859863 0.0332001 0)
(-0.0117683 0.040347 0)
(-0.0151535 0.0419066 0)
(0.0149131 0.060952 0)
(0.0134952 0.0565007 0)
(0.00921356 0.0482409 0)
(0.00607116 0.0440881 0)
(0.00457745 0.045483 0)
(0.00286642 0.0401096 0)
(-0.000851283 0.0351999 0)
(-0.00404407 0.0384201 0)
(-0.00745366 0.0463235 0)
(-0.0112675 0.0470297 0)
(0.00539226 0.0616923 0)
(0.00645808 0.0597815 0)
(0.00636646 0.053067 0)
(0.00500049 0.0467171 0)
(0.00476629 0.0462965 0)
(0.00478764 0.0434938 0)
(0.00128197 0.0415435 0)
(-0.00145219 0.0449974 0)
(-0.00389361 0.0538019 0)
(-0.00636948 0.0546958 0)
(0.000676012 0.0594166 0)
(0.0026837 0.0572345 0)
(0.00434152 0.0523752 0)
(0.00327136 0.0476795 0)
(0.00357549 0.0452096 0)
(0.00350718 0.0470814 0)
(0.00118928 0.0466004 0)
(-0.000669735 0.0493151 0)
(-0.00126744 0.0564328 0)
(-0.000812504 0.0609159 0)
(0.000574493 0.0551459 0)
(0.00335917 0.0533334 0)
(0.00383728 0.0520969 0)
(0.00196731 0.0495633 0)
(0.00135971 0.0453745 0)
(0.00175037 0.0483898 0)
(0.0010446 0.0499559 0)
(0.0006957 0.0508977 0)
(-5.395e-06 0.0550545 0)
(0.00347044 0.061853 0)
(0.00337925 0.0475942 0)
(0.00540743 0.0500492 0)
(0.00464546 0.0545793 0)
(0.00309094 0.052714 0)
(0.00188964 0.0463153 0)
(0.00224933 0.0477489 0)
(0.00260433 0.0498289 0)
(0.00365935 0.0499217 0)
(0.00500206 0.0519885 0)
(0.00638054 0.0578951 0)
(0.00548001 0.0427112 0)
(0.00586556 0.048437 0)
(0.00657675 0.0563895 0)
(0.00646049 0.0545663 0)
(0.00656945 0.0481308 0)
(0.0074983 0.0464792 0)
(0.00920515 0.0470687 0)
(0.0112366 0.0466276 0)
(0.0139695 0.0497007 0)
(0.0113512 0.054936 0)
(0.00771759 0.0422177 0)
(0.0068812 0.0476927 0)
(0.00772417 0.0551092 0)
(0.00911621 0.0526173 0)
(0.0125091 0.0452613 0)
(0.0150713 0.042167 0)
(0.0177139 0.0424641 0)
(0.0197708 0.0433357 0)
(0.0213589 0.0480695 0)
(0.0205837 0.05545 0)
(0.0106236 0.0437516 0)
(0.00992103 0.0473312 0)
(0.0109233 0.0496958 0)
(0.0143403 0.0451247 0)
(0.0192926 0.0372111 0)
(0.0225394 0.034826 0)
(0.0247931 0.0359328 0)
(0.0276492 0.0395711 0)
(0.0280717 0.0460746 0)
(0.0297219 0.056359 0)
(0.0179873 0.0466945 0)
(0.0182903 0.0481075 0)
(0.0210942 0.045512 0)
(0.026089 0.0363821 0)
(0.0285034 0.030436 0)
(0.0300729 0.0298766 0)
(0.0306414 0.0314224 0)
(0.0320685 0.0368304 0)
(0.0317017 0.0438549 0)
(0.0337333 0.0547284 0)
(0.0244547 0.0422859 0)
(0.0297031 0.0406123 0)
(0.0351171 0.0351473 0)
(0.0375259 0.03111 0)
(0.0374411 0.0312878 0)
(0.0354916 0.0310794 0)
(0.0313308 0.032432 0)
(0.0315744 0.0370136 0)
(0.030729 0.0431538 0)
(0.03321 0.053182 0)
(0.0338942 0.0293731 0)
(0.0385747 0.0298076 0)
(0.0403777 0.0311541 0)
(0.0392084 0.0310743 0)
(0.0382255 0.0340204 0)
(0.0342125 0.0402155 0)
(0.0293641 0.0406885 0)
(0.0257722 0.0404319 0)
(0.0249716 0.0427273 0)
(0.0268324 0.0482692 0)
(0.0300423 0.0158652 0)
(0.0342014 0.0244233 0)
(0.0357944 0.0325451 0)
(0.033688 0.0343936 0)
(0.0322487 0.0383886 0)
(0.0299649 0.0487866 0)
(0.0266854 0.0487543 0)
(0.0228752 0.0427611 0)
(0.0231069 0.0406896 0)
(0.0245096 0.0432226 0)
(-0.00428898 0.0128592 0)
(0.000986388 0.014762 0)
(0.00679534 0.0330093 0)
(0.00719639 0.0376565 0)
(0.00773187 0.0393078 0)
(0.0119223 0.0523896 0)
(0.0151363 0.0531622 0)
(0.0150003 0.0459011 0)
(0.0170511 0.0404959 0)
(0.017844 0.0420112 0)
(-0.0451258 0.00230391 0)
(-0.0418213 0.0130528 0)
(-0.0366735 0.0269033 0)
(-0.0265809 0.0273683 0)
(-0.0186882 0.0318943 0)
(-0.00989939 0.0416228 0)
(-0.00132872 0.0459262 0)
(0.00636106 0.0383339 0)
(0.0140052 0.0346031 0)
(0.0178284 0.0388377 0)
(-0.053338 -0.00436373 0)
(-0.0479272 0.000670114 0)
(-0.0407116 0.00295894 0)
(-0.0339581 0.000639597 0)
(-0.0263321 0.0085558 0)
(-0.017152 0.0148948 0)
(-0.00626635 0.0187782 0)
(0.00205515 0.015297 0)
(0.00781472 0.0178363 0)
(0.013031 0.0265168 0)
(-0.0425196 -0.0177263 0)
(-0.0375713 -0.00971813 0)
(-0.0325826 -0.0053221 0)
(-0.0285953 -0.00463343 0)
(-0.0258897 -0.00328618 0)
(-0.0225017 -0.000615987 0)
(-0.0178084 0.0025994 0)
(-0.0150325 0.00586594 0)
(-0.0162266 0.0110455 0)
(-0.0162918 0.0235586 0)
(-0.0411572 -0.028183 0)
(-0.0359358 -0.0212526 0)
(-0.0314412 -0.0156298 0)
(-0.0292866 -0.00910283 0)
(-0.0302016 -0.00341912 0)
(-0.0330229 0.000196065 0)
(-0.0384552 0.00317379 0)
(-0.0464321 0.012458 0)
(-0.05908 0.0317159 0)
(-0.0673173 0.039907 0)
(-0.0272617 -0.0321735 0)
(-0.0265465 -0.0274375 0)
(-0.0274817 -0.0181129 0)
(-0.0302954 -0.00662087 0)
(-0.0385323 0.00610229 0)
(-0.050711 0.0177176 0)
(-0.0676296 0.0310814 0)
(-0.090925 0.0461086 0)
(-0.100317 0.051914 0)
(-0.103697 0.0524516 0)
(-0.023468 -0.0332519 0)
(-0.0234231 -0.0263497 0)
(-0.0278674 -0.0106321 0)
(-0.0401738 0.0115583 0)
(-0.0547165 0.0378916 0)
(-0.0683684 0.0618621 0)
(-0.0800342 0.0692855 0)
(-0.0980197 0.0678972 0)
(-0.111857 0.0661531 0)
(-0.115476 0.0464162 0)
(-0.0262558 -0.0345846 0)
(-0.0273331 -0.0197737 0)
(-0.0382725 0.0169911 0)
(-0.0597609 0.0539908 0)
(-0.0694067 0.0622609 0)
(-0.0700823 0.0655058 0)
(-0.0665882 0.0842236 0)
(-0.07047 0.0975228 0)
(-0.0885632 0.0872464 0)
(-0.104037 0.0472549 0)
(-0.0383746 -0.0365427 0)
(-0.0420137 -0.00472504 0)
(-0.0498119 0.0517333 0)
(-0.0558923 0.0717488 0)
(-0.0589089 0.0657069 0)
(-0.0596316 0.0599797 0)
(-0.0611106 0.0816331 0)
(-0.0613415 0.113212 0)
(-0.0631095 0.113092 0)
(-0.0707065 0.0769647 0)
(-0.0512417 -0.0184105 0)
(-0.0639455 0.00503979 0)
(-0.0617017 0.0541358 0)
(-0.0555685 0.0708417 0)
(-0.0521394 0.0694243 0)
(-0.0533702 0.0674947 0)
(-0.0595325 0.0850478 0)
(-0.0576959 0.106295 0)
(-0.0532545 0.105818 0)
(-0.0427889 0.0697334 0)
(-0.0486987 0.0156765 0)
(-0.0590248 0.0160126 0)
(-0.0645309 0.04263 0)
(-0.0582722 0.0557397 0)
(-0.0500843 0.0567099 0)
(-0.0439316 0.0705566 0)
(-0.0438799 0.0868948 0)
(-0.0411157 0.0919337 0)
(-0.0310831 0.0813697 0)
(-0.0167271 0.0390399 0)
(-0.035953 0.0419021 0)
(-0.0482886 0.0344979 0)
(-0.0551528 0.0395664 0)
(-0.0533674 0.0435536 0)
(-0.0507012 0.0406051 0)
(-0.0448063 0.0652987 0)
(-0.0402667 0.0820594 0)
(-0.030809 0.0800733 0)
(-0.0180269 0.0562025 0)
(-0.0109226 0.0325797 0)
(-0.0207583 0.058385 0)
(-0.027291 0.0570075 0)
(-0.0402273 0.0530132 0)
(-0.0463824 0.0448162 0)
(-0.0495219 0.0413696 0)
(-0.0489786 0.0485368 0)
(-0.0398118 0.0580885 0)
(-0.0248984 0.0489745 0)
(-0.0144701 0.0353264 0)
(-0.0111529 0.0289781 0)
(-0.00603706 0.0637674 0)
(-0.00537135 0.0693766 0)
(-0.0116319 0.0769043 0)
(-0.0249832 0.062335 0)
(-0.0378462 0.0486129 0)
(-0.0417587 0.0435117 0)
(-0.0364126 0.0352974 0)
(-0.0271228 0.026422 0)
(-0.0200037 0.0247935 0)
(-0.0152002 0.0292292 0)
(0.00801951 0.0644827 0)
(0.00727957 0.0710252 0)
(0.00794436 0.0861714 0)
(0.00231451 0.0914707 0)
(-0.0127731 0.0767793 0)
(-0.0294167 0.0496149 0)
(-0.0316458 0.028815 0)
(-0.0277058 0.0131405 0)
(-0.0233225 0.0103771 0)
(-0.0150081 0.0277335 0)
(0.0238707 0.0709889 0)
(0.0231353 0.0730259 0)
(0.0237079 0.0819022 0)
(0.0247424 0.104987 0)
(0.0140506 0.108976 0)
(-0.0014343 0.0845155 0)
(-0.0200525 0.0368564 0)
(-0.0183991 0.00573794 0)
(-0.0173806 -0.00398979 0)
(-0.013773 0.0193569 0)
(0.039188 0.0772182 0)
(0.0387187 0.0764402 0)
(0.0362239 0.0819772 0)
(0.035639 0.108809 0)
(0.0278337 0.132382 0)
(0.0210224 0.120814 0)
(-0.00382494 0.0733367 0)
(-0.00945936 0.0126404 0)
(-0.013214 -0.00147399 0)
(-0.0165742 0.0174576 0)
(0.0492817 0.0824666 0)
(0.048778 0.0812222 0)
(0.0408936 0.0874587 0)
(0.0374131 0.115796 0)
(0.0327343 0.148023 0)
(0.0243494 0.145185 0)
(-0.00439215 0.103304 0)
(-0.0139698 0.0254315 0)
(-0.0227463 0.0134149 0)
(-0.0285824 0.0228282 0)
(0.0566028 0.0896751 0)
(0.0525913 0.0916715 0)
(0.033885 0.100471 0)
(0.0354829 0.123327 0)
(0.0295254 0.160947 0)
(0.0215334 0.182205 0)
(-0.0148659 0.131612 0)
(-0.0247578 0.0406766 0)
(-0.0367505 0.0246071 0)
(-0.0379761 0.0229442 0)
(0.0603519 0.102728 0)
(0.0388863 0.122789 0)
(0.0238543 0.11164 0)
(0.0270884 0.132918 0)
(0.0205007 0.181271 0)
(0.0177371 0.221967 0)
(-0.0085804 0.192851 0)
(-0.0166584 0.0637257 0)
(-0.0291239 0.0348334 0)
(-0.029397 0.0222197 0)
(0.0419793 0.140332 0)
(0.02458 0.160477 0)
(0.0158256 0.118482 0)
(0.00984154 0.14527 0)
(0.00634649 0.187821 0)
(0.0116518 0.232421 0)
(0.00885397 0.216657 0)
(0.0138972 0.0910769 0)
(0.0035089 0.0461136 0)
(0.00114468 0.0373069 0)
(0.00670295 0.162921 0)
(0.0126597 0.165862 0)
(0.00689403 0.133482 0)
(0.00143016 0.152785 0)
(-0.000286247 0.180227 0)
(0.0103723 0.221639 0)
(0.0217338 0.201077 0)
(0.0413912 0.0926816 0)
(0.0326636 0.0537137 0)
(0.0249972 0.049932 0)
(-0.00254595 0.150295 0)
(0.0112652 0.160303 0)
(0.0130987 0.143768 0)
(0.00812829 0.156436 0)
(0.0108141 0.172486 0)
(0.0258743 0.181609 0)
(0.0442621 0.151341 0)
(0.05687 0.0867614 0)
(0.0530629 0.062808 0)
(0.0476005 0.0625384 0)
(-0.00790455 0.102046 0)
(0.0104905 0.133578 0)
(0.0204609 0.141063 0)
(0.0227977 0.153626 0)
(0.0297029 0.152813 0)
(0.0444143 0.141273 0)
(0.0572524 0.124905 0)
(0.0595474 0.0895067 0)
(0.0556111 0.072531 0)
(0.0541397 0.0712132 0)
(-0.00298738 0.0781047 0)
(0.00749182 0.0987084 0)
(0.0224331 0.121702 0)
(0.0382068 0.127759 0)
(0.0529616 0.129459 0)
(0.0630797 0.122829 0)
(0.0657864 0.119231 0)
(0.0581595 0.092167 0)
(0.0544674 0.0637247 0)
(0.0607982 0.0654518 0)
(0.038412 0.0696165 0)
(0.0444651 0.0801302 0)
(0.0570035 0.0914412 0)
(0.0775593 0.089616 0)
(0.0926943 0.0973569 0)
(0.105848 0.11829 0)
(0.097272 0.139368 0)
(0.0854382 0.126584 0)
(0.0765322 0.0531688 0)
(0.0722191 0.0404463 0)
(0.0892329 0.0465792 0)
(0.109264 0.0528805 0)
(0.125039 0.0672231 0)
(0.138538 0.0755885 0)
(0.143672 0.0828704 0)
(0.144661 0.0984278 0)
(0.155427 0.142723 0)
(0.162987 0.15602 0)
(0.165903 0.116273 0)
(0.134628 0.0612559 0)
(0.090318 -0.00698664 0)
(0.119306 0.00610707 0)
(0.147544 0.0256966 0)
(0.170071 0.0445245 0)
(0.185259 0.069305 0)
(0.188413 0.0906592 0)
(0.189958 0.116281 0)
(0.198767 0.126004 0)
(0.203985 0.119659 0)
(0.20264 0.0974006 0)
(0.0615772 -0.0609536 0)
(0.079345 -0.0632411 0)
(0.107969 -0.0472699 0)
(0.141737 -0.00160959 0)
(0.165991 0.0393556 0)
(0.174337 0.0853425 0)
(0.179499 0.109183 0)
(0.188352 0.119859 0)
(0.196501 0.115031 0)
(0.200762 0.0967436 0)
(0.0775595 -0.0768197 0)
(0.0770025 -0.0989501 0)
(0.0848871 -0.0941532 0)
(0.0997632 -0.0424763 0)
(0.109723 0.00756923 0)
(0.123009 0.063307 0)
(0.149745 0.0753016 0)
(0.176288 0.0923725 0)
(0.192864 0.096889 0)
(0.194895 0.097064 0)
(0.163448 -0.00819868 0)
(0.143336 -0.0790507 0)
(0.129698 -0.0860422 0)
(0.11346 -0.0392903 0)
(0.107178 0.00591457 0)
(0.109407 0.00607669 0)
(0.127388 -0.000261723 0)
(0.145695 0.0191324 0)
(0.167935 0.0777927 0)
(0.167361 0.113218 0)
(0.187776 -0.0254176 0)
(0.178064 -0.0379259 0)
(0.146805 -0.0414105 0)
(0.139876 -0.0250603 0)
(0.159693 0.0142274 0)
(0.171607 0.0154299 0)
(0.16647 0.00916822 0)
(0.149569 0.019767 0)
(0.131441 0.0795062 0)
(0.125882 0.117687 0)
(0.129797 -0.011532 0)
(0.118854 -0.00302044 0)
(0.11554 -0.0329659 0)
(0.127385 -0.0543508 0)
(0.132124 -0.0464794 0)
(0.144333 -0.0105994 0)
(0.141825 0.0368977 0)
(0.116311 0.0811941 0)
(0.0933445 0.118854 0)
(0.0878031 0.118131 0)
(0.074885 0.0132526 0)
(0.0802767 -0.00369504 0)
(0.0753241 -0.0516069 0)
(0.0767404 -0.049789 0)
(0.0590957 -0.0292821 0)
(0.0531298 0.0162022 0)
(0.0549062 0.0747009 0)
(0.0573 0.0989588 0)
(0.056077 0.127796 0)
(0.0520762 0.0989228 0)
(0.0671195 0.0135986 0)
(0.0706198 -0.0200198 0)
(0.0566304 -0.0341387 0)
(0.0508817 -0.0206682 0)
(0.0375846 0.00108641 0)
(0.0297647 0.0155327 0)
(0.0319606 0.0746551 0)
(0.00426591 0.123974 0)
(-0.0024118 0.13385 0)
(0.00226557 0.0775908 0)
(0.0690981 0.0359592 0)
(0.0681367 -0.00210906 0)
(0.0491659 -0.0172247 0)
(0.0438245 -0.0081209 0)
(0.039742 0.00408068 0)
(0.0395229 0.0151275 0)
(0.0540353 0.0616165 0)
(0.0543558 0.147683 0)
(0.0450681 0.147255 0)
(0.0318196 0.102669 0)
(0.0818944 0.0291428 0)
(0.0811193 0.018446 0)
(0.0684996 0.0109733 0)
(0.0519734 0.0121149 0)
(0.0440817 0.0112814 0)
(0.0310769 0.0138167 0)
(0.0337515 0.0481889 0)
(0.042487 0.15399 0)
(0.0458718 0.156169 0)
(0.0494247 0.138366 0)
(0.0955226 0.0287577 0)
(0.0864783 0.031125 0)
(0.0634655 0.0373209 0)
(0.0495603 0.0447013 0)
(0.038817 0.0411842 0)
(0.0270058 0.0286794 0)
(0.0182642 0.0434796 0)
(0.0338631 0.138743 0)
(0.0407073 0.147305 0)
(0.0463682 0.135288 0)
(0.112753 0.0577421 0)
(0.0934247 0.0757196 0)
(0.0693719 0.0707089 0)
(0.0540413 0.0658272 0)
(0.0361559 0.0586834 0)
(0.0180497 0.0525522 0)
(-0.00133697 0.0558069 0)
(0.00175028 0.105334 0)
(0.0257281 0.111224 0)
(0.045642 0.115679 0)
(0.117378 0.0445946 0)
(0.120669 0.0994752 0)
(0.112139 0.113044 0)
(0.0991527 0.115127 0)
(0.0720586 0.112857 0)
(0.0516796 0.0851445 0)
(0.0261633 0.072973 0)
(0.0100521 0.0730511 0)
(0.0110897 0.0571255 0)
(0.0287562 0.0722732 0)
(0.0995169 0.0111385 0)
(0.107743 0.0896847 0)
(0.114307 0.110687 0)
(0.121991 0.119021 0)
(0.127219 0.13075 0)
(0.132486 0.136134 0)
(0.121879 0.142113 0)
(0.0951506 0.138982 0)
(0.0949244 0.069806 0)
(0.0935292 0.0367598 0)
(0.0287296 0.0176988 0)
(0.0586304 0.0657848 0)
(0.0898461 0.0917516 0)
(0.113668 0.103054 0)
(0.132553 0.121367 0)
(0.151059 0.126852 0)
(0.170531 0.14633 0)
(0.190677 0.148695 0)
(0.211062 0.0992783 0)
(0.20976 0.0519116 0)
(0.00180486 -0.0700102 0)
(0.024075 -0.0442939 0)
(0.0584978 0.0118463 0)
(0.087698 0.0292946 0)
(0.109964 0.0543096 0)
(0.131724 0.0544549 0)
(0.160454 0.0743554 0)
(0.187442 0.0836461 0)
(0.21193 0.0537249 0)
(0.234269 0.0380095 0)
(0.0622409 -0.0607476 0)
(0.0718805 -0.0689566 0)
(0.076161 -0.0521083 0)
(0.100089 -0.0106535 0)
(0.124443 0.0192776 0)
(0.14431 0.0200295 0)
(0.159911 0.0239271 0)
(0.181538 0.0156912 0)
(0.203306 -0.00275153 0)
(0.218257 0.00166183 0)
(0.134627 -0.0690465 0)
(0.153628 -0.0604172 0)
(0.160987 -0.0536803 0)
(0.169516 -0.0475384 0)
(0.193464 -0.0388156 0)
(0.224695 -0.0201187 0)
(0.244518 0.000344053 0)
(0.257647 0.00114275 0)
(0.266648 -0.0021644 0)
(0.27229 -0.00515283 0)
(0.168148 -0.122239 0)
(0.193263 -0.110025 0)
(0.22461 -0.107874 0)
(0.246189 -0.102603 0)
(0.255112 -0.0889362 0)
(0.265376 -0.0628225 0)
(0.277946 -0.0487123 0)
(0.291787 -0.0348975 0)
(0.308359 -0.0291768 0)
(0.321483 -0.0333026 0)
(0.236297 -0.158803 0)
(0.255047 -0.153903 0)
(0.275711 -0.144195 0)
(0.288427 -0.12823 0)
(0.288743 -0.103692 0)
(0.289245 -0.0784571 0)
(0.295506 -0.0628737 0)
(0.305526 -0.0582231 0)
(0.313136 -0.05581 0)
(0.319332 -0.0498469 0)
(0.255065 -0.192429 0)
(0.27099 -0.189093 0)
(0.287254 -0.172965 0)
(0.299325 -0.136312 0)
(0.302631 -0.100961 0)
(0.303378 -0.0769609 0)
(0.309281 -0.067721 0)
(0.319211 -0.0646667 0)
(0.325835 -0.0596733 0)
(0.329234 -0.0487424 0)
(0.246616 -0.221562 0)
(0.262055 -0.222167 0)
(0.275122 -0.204587 0)
(0.285406 -0.153081 0)
(0.284418 -0.103004 0)
(0.284184 -0.0882707 0)
(0.289747 -0.089609 0)
(0.306445 -0.0894378 0)
(0.318946 -0.0805864 0)
(0.328522 -0.0569389 0)
(0.215841 -0.236618 0)
(0.217415 -0.239655 0)
(0.21808 -0.213566 0)
(0.210769 -0.140311 0)
(0.218234 -0.109054 0)
(0.228048 -0.111875 0)
(0.25427 -0.124709 0)
(0.269381 -0.120425 0)
(0.274722 -0.100585 0)
(0.276111 -0.0445843 0)
(0.118038 -0.226246 0)
(0.102958 -0.213682 0)
(0.105203 -0.166612 0)
(0.120736 -0.151931 0)
(0.141136 -0.159183 0)
(0.171477 -0.178551 0)
(0.192549 -0.16747 0)
(0.195044 -0.150508 0)
(0.194806 -0.110229 0)
(0.196981 -0.0598479 0)
(0.0174354 -0.20568 0)
(0.0384211 -0.199064 0)
(0.0462035 -0.209111 0)
(0.0681447 -0.222666 0)
(0.0791981 -0.211429 0)
(0.0701 -0.194664 0)
(0.0409671 -0.148787 0)
(-0.00268364 -0.103938 0)
(-0.0290198 -0.0165201 0)
(-0.0698055 0.0885506 0)
(-0.0310751 -0.283095 0)
(-0.0107817 -0.275262 0)
(-0.00198575 -0.256841 0)
(-0.0162535 -0.220662 0)
(-0.0478594 -0.162994 0)
(-0.0753071 -0.097998 0)
(-0.100056 -0.0368476 0)
(-0.134572 0.00236962 0)
(-0.162922 0.0373476 0)
(-0.160468 0.0507771 0)
(-0.109127 -0.313319 0)
(-0.113584 -0.245288 0)
(-0.124606 -0.200869 0)
(-0.13934 -0.158798 0)
(-0.141053 -0.0965052 0)
(-0.148744 -0.0633358 0)
(-0.163742 -0.0386356 0)
(-0.174099 0.00659216 0)
(-0.176988 0.0394282 0)
(-0.172709 0.0422572 0)
(-0.196893 -0.278518 0)
(-0.195345 -0.243971 0)
(-0.194822 -0.205692 0)
(-0.191084 -0.160382 0)
(-0.192147 -0.117941 0)
(-0.187058 -0.0521807 0)
(-0.192116 0.002372 0)
(-0.198816 0.0240209 0)
(-0.195213 0.0285811 0)
(-0.178696 0.0202382 0)
(-0.264241 -0.295246 0)
(-0.253404 -0.259913 0)
(-0.249299 -0.2383 0)
(-0.243689 -0.184641 0)
(-0.234579 -0.109448 0)
(-0.230508 -0.0560617 0)
(-0.217665 -0.014348 0)
(-0.209427 -0.00109882 0)
(-0.189361 -0.00450544 0)
(-0.171115 -0.0102614 0)
(-0.309174 -0.293602 0)
(-0.307616 -0.258585 0)
(-0.304622 -0.229085 0)
(-0.300137 -0.187911 0)
(-0.283395 -0.1241 0)
(-0.262553 -0.0658324 0)
(-0.238638 -0.0444143 0)
(-0.212186 -0.0397636 0)
(-0.194543 -0.034628 0)
(-0.188119 -0.0325224 0)
(-0.330495 -0.290477 0)
(-0.331297 -0.269243 0)
(-0.331615 -0.2475 0)
(-0.326353 -0.224543 0)
(-0.316364 -0.182556 0)
(-0.289132 -0.129815 0)
(-0.262801 -0.0940206 0)
(-0.247656 -0.0803617 0)
(-0.246353 -0.0570635 0)
(-0.252267 -0.0213501 0)
(-0.334988 -0.274431 0)
(-0.340203 -0.257542 0)
(-0.344562 -0.237312 0)
(-0.34878 -0.225583 0)
(-0.346875 -0.205635 0)
(-0.33734 -0.179323 0)
(-0.319805 -0.134732 0)
(-0.300587 -0.0949819 0)
(-0.298614 -0.0462776 0)
(-0.306241 0.00321748 0)
(-0.324279 -0.251409 0)
(-0.340614 -0.249833 0)
(-0.344492 -0.225843 0)
(-0.348823 -0.205181 0)
(-0.364479 -0.204314 0)
(-0.367771 -0.186333 0)
(-0.362445 -0.149121 0)
(-0.353051 -0.110753 0)
(-0.342266 -0.041306 0)
(-0.340535 0.0235901 0)
(-0.297934 -0.231653 0)
(-0.304793 -0.226412 0)
(-0.316369 -0.219083 0)
(-0.3214 -0.191577 0)
(-0.326596 -0.169976 0)
(-0.342266 -0.161946 0)
(-0.353578 -0.174367 0)
(-0.357023 -0.159578 0)
(-0.338436 -0.0941041 0)
(-0.324955 0.00180887 0)
(-0.287516 -0.232054 0)
(-0.288192 -0.218903 0)
(-0.289193 -0.211435 0)
(-0.29289 -0.19221 0)
(-0.298084 -0.159306 0)
(-0.302591 -0.133799 0)
(-0.302172 -0.127904 0)
(-0.32999 -0.116426 0)
(-0.349236 -0.0940979 0)
(-0.349729 -0.0045271 0)
(-0.29091 -0.245557 0)
(-0.290402 -0.222792 0)
(-0.290915 -0.20923 0)
(-0.288055 -0.189378 0)
(-0.281594 -0.172144 0)
(-0.288946 -0.151532 0)
(-0.291773 -0.11957 0)
(-0.301729 -0.0800534 0)
(-0.320266 -0.0569438 0)
(-0.337832 -0.0118381 0)
(-0.297551 -0.272004 0)
(-0.288903 -0.226149 0)
(-0.289906 -0.209512 0)
(-0.299329 -0.19245 0)
(-0.289145 -0.159684 0)
(-0.291978 -0.131736 0)
(-0.299158 -0.103181 0)
(-0.30547 -0.0674266 0)
(-0.317283 -0.0239362 0)
(-0.322535 0.0095498 0)
(-0.320229 -0.378192 0)
(-0.277026 -0.236296 0)
(-0.271933 -0.197394 0)
(-0.28743 -0.185291 0)
(-0.301892 -0.165941 0)
(-0.297675 -0.121561 0)
(-0.300478 -0.0838514 0)
(-0.309653 -0.0536983 0)
(-0.315081 -0.0137242 0)
(-0.32054 0.0134354 0)
(-0.330947 -0.456431 0)
(-0.281678 -0.333614 0)
(-0.24212 -0.186195 0)
(-0.241973 -0.144315 0)
(-0.267813 -0.131405 0)
(-0.288276 -0.128391 0)
(-0.291925 -0.0862348 0)
(-0.295241 -0.031343 0)
(-0.292738 -0.000253354 0)
(-0.301553 0.015056 0)
(-0.307222 -0.474859 0)
(-0.305453 -0.404435 0)
(-0.248339 -0.288954 0)
(-0.20026 -0.12409 0)
(-0.187049 -0.0825481 0)
(-0.21149 -0.0709309 0)
(-0.233754 -0.0699478 0)
(-0.24725 -0.0344201 0)
(-0.255123 -0.0254056 0)
(-0.255773 0.0186409 0)
(-0.274612 -0.39069 0)
(-0.293591 -0.421035 0)
(-0.288465 -0.396525 0)
(-0.206781 -0.28175 0)
(-0.130816 -0.0894181 0)
(-0.0910293 -0.0392414 0)
(-0.11222 -0.0291616 0)
(-0.137851 -0.00267813 0)
(-0.155048 0.0252201 0)
(-0.164581 0.047173 0)
(-0.196224 -0.261744 0)
(-0.275304 -0.392706 0)
(-0.273515 -0.441557 0)
(-0.242346 -0.442167 0)
(-0.166831 -0.373056 0)
(-0.0544525 -0.110644 0)
(0.0372908 0.0452617 0)
(0.0322667 0.0874204 0)
(-0.0180321 0.035381 0)
(-0.0404104 0.0378723 0)
(0.0373729 -0.0710648 0)
(-0.0692468 -0.187079 0)
(-0.155371 -0.425242 0)
(-0.167216 -0.504649 0)
(-0.145467 -0.521929 0)
(-0.0778363 -0.45287 0)
(0.0279444 -0.300679 0)
(0.153093 0.088389 0)
(0.142116 0.153931 0)
(0.113368 0.152598 0)
(0.0649341 -0.0212155 0)
(0.047869 0.00939607 0)
(-0.0424815 -0.286365 0)
(-0.0756358 -0.513541 0)
(-0.0432926 -0.560241 0)
(-0.0380234 -0.540091 0)
(0.0119166 -0.497616 0)
(0.0893142 -0.0911493 0)
(0.108726 0.126409 0)
(0.114195 0.159091 0)
(0.099101 0.0197396 0)
(0.104535 0.0121474 0)
(0.0639452 -0.0202003 0)
(-0.0252538 -0.440797 0)
(-0.00629419 -0.573889 0)
(-0.00201936 -0.561675 0)
(0.00640143 -0.537607 0)
(0.0113208 -0.0239619 0)
(-0.00580877 0.109144 0)
(0.0471161 0.121883 0)
(0.0982334 0.102646 0)
(0.0590305 0.0139939 0)
(0.0380613 0.056224 0)
(-0.00966412 -0.42614 0)
(0.00752667 -0.573688 0)
(0.00887887 -0.567205 0)
(-0.0100031 -0.542124 0)
(0.00360805 0.0162832 0)
(-0.00795103 0.0124893 0)
(0.0306385 -0.028205 0)
(0.0688153 0.239568 0)
(0.0439663 0.0622083 0)
(-0.0360447 0.125952 0)
(0.0298092 -0.494199 0)
(0.019778 -0.564235 0)
(0.0241703 -0.565225 0)
(0.00447373 -0.561905 0)
(0.0676372 -0.0552737 0)
(0.0775566 0.0628046 0)
(0.0857089 -0.00605983 0)
(-0.068801 0.229403 0)
(-0.0935479 0.16171 0)
(-0.0262386 0.194839 0)
(0.0475596 -0.500964 0)
(0.0279158 -0.549676 0)
(0.0256344 -0.547654 0)
(0.00342746 -0.56421 0)
(0.0377999 -0.336536 0)
(0.222377 0.0597256 0)
(0.196191 -0.0672626 0)
(-0.0481338 0.209574 0)
(-0.237823 0.168435 0)
(0.0527995 -0.364983 0)
(0.0423358 -0.520359 0)
(0.0310672 -0.511752 0)
(0.00123814 -0.514644 0)
(-0.0346296 -0.515362 0)
(-0.059458 -0.448239 0)
(0.0456702 0.0140929 0)
(0.0299444 -0.0947229 0)
(0.0591648 0.278006 0)
(-0.0613551 0.110114 0)
(0.0551019 -0.465568 0)
(0.0206911 -0.472363 0)
(-0.00236052 -0.478534 0)
(-0.0178346 -0.469968 0)
(-0.0358382 -0.472638 0)
(-0.061946 -0.475158 0)
(-0.0530394 -0.185398 0)
(-0.0723735 0.140125 0)
(0.0197184 0.345086 0)
(0.0354507 0.158762 0)
(0.0657966 -0.392166 0)
(0.0431115 -0.428457 0)
(0.0179553 -0.430261 0)
(-0.00504889 -0.432891 0)
(-0.0310672 -0.416804 0)
(-0.0710315 -0.399181 0)
(-0.0651962 -0.0955252 0)
(-0.0697975 0.226212 0)
(-0.111187 0.312184 0)
(0.0481192 -0.21969 0)
(0.0642308 -0.359697 0)
(0.0197866 -0.38107 0)
(0.00103317 -0.388127 0)
(-0.0233863 -0.387163 0)
(-0.0462767 -0.38724 0)
(-0.0637051 -0.364231 0)
(-0.0765982 -0.235763 0)
(0.0250335 0.28361 0)
(-0.0289285 0.355017 0)
(0.0759804 -0.265441 0)
(0.0710923 -0.317942 0)
(0.0461471 -0.328239 0)
(0.0175462 -0.328949 0)
(-0.014991 -0.332492 0)
(-0.0371086 -0.334672 0)
(-0.0711969 -0.316021 0)
(-0.0688807 -0.273015 0)
(0.00738428 0.257068 0)
(0.0946304 -0.14567 0)
(0.0741636 -0.221552 0)
(0.0696831 -0.263108 0)
(0.0383025 -0.281629 0)
(0.0201059 -0.285604 0)
(-0.00609676 -0.284507 0)
(-0.0345149 -0.277944 0)
(-0.0672073 -0.261771 0)
(-0.0754789 -0.221755 0)
(-0.0977961 -0.155737 0)
(0.0604003 -0.114794 0)
(0.0484872 -0.195619 0)
(0.0432793 -0.236767 0)
(0.0170855 -0.247482 0)
(0.0052528 -0.251625 0)
(-0.0161778 -0.249815 0)
(-0.0225204 -0.250116 0)
(-0.0442465 -0.235916 0)
(-0.0486397 -0.195858 0)
(-0.0598997 -0.118022 0)
(0.00347676 7.75942e-05 0)
(-0.000997823 0.000898188 0)
(-0.00627849 0.00419101 0)
(-0.0136107 0.00308258 0)
(-0.0157516 -0.000441598 0)
(-0.0175093 0.00035458 0)
(-0.0219368 0.00586677 0)
(-0.0285903 0.0133307 0)
(-0.0410734 0.013232 0)
(-0.0542005 0.00799345 0)
(-0.0668566 0.00922542 0)
(-0.0731952 0.0050079 0)
(-0.0724519 -0.00356714 0)
(-0.0669647 -0.00649425 0)
(-0.0624947 -0.00463878 0)
(-0.0605242 -0.00391872 0)
(-0.0573847 -0.006809 0)
(-0.0482022 -0.0128252 0)
(-0.0297899 -0.0217615 0)
(-0.00993315 -0.0249395 0)
(0.00879687 -0.018832 0)
(0.024372 -0.0109283 0)
(0.031769 -0.00532656 0)
(0.0339906 -0.00267743 0)
(0.0330431 -0.00184767 0)
(0.0316122 -0.00357659 0)
(0.0329958 -0.00586215 0)
(0.0362359 -0.00431535 0)
(0.0379658 0.00461625 0)
(0.0333608 0.0114506 0)
(0.0271865 0.0111572 0)
(0.0217672 0.00630918 0)
(0.019639 0.00536206 0)
(0.0174042 0.00867497 0)
(0.0128347 0.00983857 0)
(0.00740835 0.00302515 0)
(0.000695486 0.00243267 0)
(-0.00594299 0.00269014 0)
(-0.00523379 -0.00487097 0)
(-0.00137632 -0.00778438 0)
(-0.0101748 0.0130495 0)
(-0.020075 0.0182229 0)
(-0.02737 0.0175862 0)
(-0.0314351 0.0122339 0)
(-0.0376272 0.00921158 0)
(-0.0427056 0.00989621 0)