/*--------------------------------*- C++ -*----------------------------------*\
  =========                 |
  \\      /  F ield         | OpenFOAM: The Open Source CFD Toolbox
   \\    /   O peration     | Website:  https://openfoam.org
    \\  /    A nd           | Version:  8
     \\/     M anipulation  |
\*---------------------------------------------------------------------------*/
FoamFile
{
    version     2.0;
    format      ascii;
    class       surfaceScalarField;
    location    "1.7";
    object      alphaPhi0.water;
}
// * * * * * * * * * * * * * * * * * * * * * * * * * * * * * * * * * * * * * //

dimensions      [0 3 -1 0 0 0 0];

internalField   nonuniform List<scalar> 
18095
(
1.96112e-08
-1.71935e-07
1.52324e-07
2.31769e-08
-1.98186e-07
1.9462e-07
1.97954e-08
-2.05809e-07
2.09191e-07
1.0603e-08
-2.10455e-07
2.19647e-07
-4.91078e-10
-2.13267e-07
2.24361e-07
-1.12261e-08
-2.13535e-07
2.2427e-07
-1.99596e-08
-2.10812e-07
2.19545e-07
-2.31699e-08
-2.05924e-07
2.09134e-07
-1.96079e-08
-1.98157e-07
1.94595e-07
-1.71921e-07
1.52313e-07
1.55755e-08
-1.8751e-07
1.57627e-08
-1.98373e-07
1.21599e-08
-2.02207e-07
6.92815e-09
-2.05223e-07
7.06717e-10
-2.07045e-07
-6.04521e-09
-2.06783e-07
-1.18727e-08
-2.04984e-07
-1.5744e-08
-2.02053e-07
-1.55614e-08
-1.9834e-07
-1.87482e-07
6.86089e-09
-1.94371e-07
8.30675e-09
-1.99819e-07
7.01702e-09
-2.00917e-07
3.57094e-09
-2.01777e-07
-5.13511e-10
-2.02961e-07
-4.46025e-09
-2.02836e-07
-7.22318e-09
-2.02221e-07
-8.28768e-09
-2.00988e-07
-6.86071e-09
-1.99767e-07
-1.94343e-07
4.54896e-09
-1.9892e-07
4.69888e-09
-1.99969e-07
4.04311e-09
-2.00261e-07
2.62559e-09
-2.0036e-07
3.93273e-10
-2.00729e-07
-1.70175e-09
-2.00741e-07
-3.61674e-09
-2.00306e-07
-4.71031e-09
-1.99895e-07
-4.56721e-09
-1.9991e-07
-1.9891e-07
1.07971e-09
1.11108e-09
8.50056e-10
4.90463e-10
-2.38242e-10
-9.79307e-10
-1.28564e-09
-1.18041e-09
-1.0902e-09
-2.65456e-08
-1.97039e-07
2.23585e-07
-2.9046e-08
-1.99114e-07
2.01615e-07
-2.4407e-08
-2.0168e-07
1.97041e-07
-1.36384e-08
-2.01352e-07
1.90584e-07
-4.04396e-10
-2.01448e-07
1.88214e-07
1.27178e-08
-2.01272e-07
1.8815e-07
2.35397e-08
-2.00524e-07
1.89702e-07
2.86417e-08
-2.01475e-07
1.96373e-07
2.63762e-08
-1.99102e-07
2.01367e-07
-1.96992e-07
2.23369e-07
-9.96144e-09
-1.87078e-07
-1.58115e-08
-1.93264e-07
-1.52704e-08
-2.02221e-07
-8.5392e-09
-2.08084e-07
-1.75275e-09
-2.08235e-07
5.57873e-09
-2.08604e-07
1.40755e-08
-2.09021e-07
1.53739e-08
-2.02773e-07
9.78516e-09
-1.93513e-07
-1.87207e-07
-1.08834e-08
-1.76195e-07
-8.69387e-09
-1.95454e-07
-5.8951e-09
-2.0502e-07
-4.04567e-09
-2.09933e-07
2.19584e-10
-2.125e-07
4.58746e-09
-2.12972e-07
6.54369e-09
-2.10977e-07
9.03487e-09
-2.05264e-07
1.09794e-08
-1.95458e-07
-1.76228e-07
-6.74477e-09
-1.6945e-07
-8.79304e-09
-1.93405e-07
-8.29688e-09
-2.05516e-07
-3.09906e-09
-2.15131e-07
1.23779e-09
-2.16837e-07
4.96383e-09
-2.16698e-07
8.97283e-09
-2.14986e-07
9.13028e-09
-2.05422e-07
6.90002e-09
-1.93227e-07
-1.69328e-07
-1.71261e-08
-1.59117e-08
-1.22372e-08
-7.72068e-09
-1.96553e-10
7.37547e-09
1.19349e-08
1.56477e-08
1.70153e-08
3.2573e-08
-1.57266e-07
1.24693e-07
3.52929e-08
-1.98203e-07
1.95483e-07
2.57373e-08
-2.10324e-07
2.1988e-07
9.87754e-09
-2.16112e-07
2.31972e-07
-7.36206e-09
-2.17875e-07
2.35115e-07
-2.3326e-08
-2.17776e-07
2.3374e-07
-3.43268e-08
-2.16229e-07
2.2723e-07
-3.86337e-08
-2.10583e-07
2.1489e-07
-3.03659e-08
-1.98416e-07
1.90148e-07
-1.57216e-07
1.2685e-07
1.70705e-08
-1.74337e-07
2.04109e-08
-2.01543e-07
1.77303e-08
-2.07643e-07
1.16146e-08
-2.09996e-07
2.73441e-09
-2.08995e-07
-6.38447e-09
-2.08657e-07
-1.41825e-08
-2.08431e-07
-1.83037e-08
-2.06462e-07
-1.62939e-08
-2.00426e-07
-1.73509e-07
9.94049e-09
-1.84277e-07
9.30727e-09
-2.0091e-07
7.35638e-09
-2.05693e-07
2.16403e-09
-2.04804e-07
-1.92637e-09
-2.04905e-07
-5.59303e-09
-2.04991e-07
-9.31574e-09
-2.04708e-07
-1.05237e-08
-2.05254e-07
-1.04824e-08
-2.00468e-07
-1.83992e-07
7.4831e-09
-1.9176e-07
6.24518e-09
-1.99672e-07
6.65705e-09
-2.06104e-07
1.4953e-09
-1.99642e-07
-3.21312e-10
-2.03088e-07
-2.13618e-09
-2.03176e-07
-6.80503e-09
-2.00039e-07
-6.45641e-09
-2.05603e-07
-7.54367e-09
-1.9938e-07
-1.91535e-07
3.18249e-08
3.37678e-08
2.47048e-08
1.56464e-08
7.72794e-10
-1.42529e-08
-2.45903e-08
-3.38204e-08
-3.18333e-08
7.99934e-07
-2.14281e-08
-7.80738e-07
8.1461e-07
-1.46172e-08
8.32054e-07
-1.80146e-08
8.69348e-07
-3.78869e-08
9.2088e-07
-5.63634e-08
9.92341e-07
-7.14283e-08
1.05043e-06
-6.40132e-08
1.1367e-06
-6.08394e-08
1.16731e-06
-3.8398e-08
-2.64394e-08
7.28409e-07
2.68824e-08
-3.44735e-08
-1.37782e-08
2.85659e-08
-1.62419e-08
2.71724e-08
-1.65623e-08
4.64343e-08
-5.86151e-08
1.09375e-07
-1.2306e-07
1.96544e-07
-1.58657e-07
3.00047e-07
-1.68686e-07
2.92109e-07
-1.85366e-07
3.65745e-07
-1.63541e-07
-1.24134e-07
4.15701e-07
-6.0163e-07
-4.097e-08
6.04672e-07
-5.77363e-07
-4.04494e-08
-5.25802e-07
-6.99546e-08
-4.50728e-07
-1.2379e-07
-3.65974e-07
-2.03812e-07
-2.30417e-07
-2.92796e-07
-7.74372e-08
-3.76899e-07
6.9901e-08
-3.20106e-07
1.58304e-07
-2.50794e-07
-2.07844e-07
2.45003e-07
-6.07142e-07
-4.13557e-08
4.51958e-07
-5.28622e-07
-3.97457e-08
-2.964e-07
-3.06697e-08
-1.8318e-07
-2.00442e-08
-1.87474e-07
-1.99956e-08
-2.10965e-07
-1.6686e-07
-1.51097e-07
-4.24684e-07
-5.84667e-08
-4.11258e-07
1.28311e-08
-3.20793e-07
-2.8158e-07
8.82489e-08
-1.18914e-08
-6.33165e-08
2.96049e-08
-1.60326e-09
-5.24465e-08
3.07206e-09
-3.60031e-08
4.9032e-09
-2.08555e-08
-8.45595e-10
-1.55581e-08
-1.8655e-08
-2.43558e-08
-9.29397e-08
-7.88321e-08
-9.66138e-08
-3.92543e-07
-8.65986e-08
-3.29437e-07
-3.06049e-07
-6.00822e-08
-2.3295e-08
-1.05846e-07
5.91905e-08
7.91847e-09
-8.79073e-08
2.53069e-08
-5.58042e-08
3.41283e-08
-3.15013e-08
3.7468e-08
-2.06607e-08
2.29687e-08
-1.15985e-08
1.4947e-08
-2.08686e-08
-4.85861e-08
-6.91466e-08
-1.36055e-07
-1.20899e-07
-1.84217e-07
-8.52391e-08
-3.51748e-07
-5.55185e-07
4.86865e-07
-1.70155e-07
-6.03158e-07
-1.78474e-08
-4.55271e-07
1.81423e-08
-1.41352e-07
3.80171e-08
-4.28358e-08
3.29398e-08
-8.34286e-09
3.69656e-08
-2.7285e-08
1.86211e-08
-1.97811e-08
-3.58744e-09
5.39478e-10
-3.38234e-08
-9.56365e-08
-5.45611e-07
-6.18432e-07
6.13064e-07
-4.4176e-07
-6.81469e-07
-2.97215e-07
-7.24025e-07
-1.0703e-07
-6.35351e-07
6.2537e-09
-3.43918e-07
1.74313e-08
-2.19111e-08
3.94959e-08
-7.05265e-08
1.39084e-08
-5.30306e-09
-4.89548e-09
1.82238e-08
-3.48898e-09
-4.40911e-08
-4.90311e-07
-5.40939e-07
4.38221e-07
-4.68164e-07
-6.77977e-07
-3.92679e-07
-7.79056e-07
-2.60747e-07
-7.63342e-07
-1.07649e-07
-6.19941e-07
-4.88662e-08
-2.5728e-07
-1.21871e-08
-1.14042e-07
3.24814e-09
-1.87355e-08
-2.85869e-09
2.3063e-08
9.08929e-09
-1.65566e-08
-1.13958e-07
-1.63215e-07
2.0272e-08
-2.61162e-07
-4.45096e-07
-2.59311e-07
-7.54669e-07
-2.38715e-07
-5.59369e-07
-1.74986e-07
-6.63526e-07
-8.18202e-08
-3.30302e-07
-6.75121e-08
-1.41532e-07
-8.83257e-09
-3.21935e-08
-1.54208e-08
2.83837e-08
1.77544e-08
-2.54393e-08
3.65623e-08
-1.35471e-07
-4.20672e-08
-1.32927e-08
-3.02769e-07
-4.38705e-08
-6.07227e-07
-1.16677e-07
-4.28741e-07
-1.60425e-07
-5.92451e-07
-1.13033e-07
-3.56933e-07
-1.25539e-07
-1.32504e-07
-3.48828e-08
-8.24353e-09
-3.59914e-08
2.8139e-08
1.78918e-08
-3.77622e-08
2.14682e-08
-2.94615e-07
-4.23075e-08
-1.02222e-08
-5.92273e-07
-1.98373e-08
-4.8299e-07
-6.56367e-08
-3.50983e-07
-2.04777e-07
-4.04416e-07
-2.18351e-07
-3.20077e-07
-1.34222e-07
-6.01677e-08
-4.56537e-08
2.25113e-09
-3.74465e-08
1.84811e-08
9.09231e-09
-3.01056e-08
-7.13021e-08
-5.34131e-07
2.91767e-08
-2.80115e-08
-5.89084e-07
-3.99192e-08
-4.27642e-07
-5.54431e-08
-3.01003e-07
-2.63956e-07
-3.142e-07
-3.19329e-07
-2.31674e-07
-5.80092e-08
-7.88286e-09
-5.73486e-08
1.08032e-10
-4.55893e-08
5.27972e-09
-5.38391e-09
-3.27488e-08
-2.2766e-07
-5.42215e-07
2.3674e-07
-1.50608e-07
-5.93598e-07
-1.75943e-07
-2.49977e-07
-3.2805e-07
-2.1667e-07
-3.44389e-07
-1.15494e-07
-9.66979e-08
-5.67575e-08
-6.3219e-08
-1.24875e-08
-5.5085e-08
-9.46807e-09
-3.96324e-08
-1.1369e-08
-4.24085e-08
-3.49836e-08
-3.44451e-07
-5.37033e-07
3.50772e-07
-2.9821e-07
-5.3139e-07
-2.90029e-07
-1.54144e-07
-3.05916e-07
-5.88073e-08
-1.62203e-07
-4.17567e-08
-7.77542e-08
-3.17388e-08
-6.20141e-08
-2.76009e-08
-4.81484e-08
-2.45299e-08
-2.85814e-08
-3.23725e-08
-1.68596e-07
-1.57002e-07
-4.63308e-07
-4.88691e-07
4.11983e-07
-5.16353e-07
-5.09421e-07
-2.74122e-07
-3.10393e-07
-8.89503e-08
-4.6907e-08
-7.65834e-08
-6.06053e-08
-6.21138e-08
-4.92297e-08
-4.46451e-08
-4.61704e-08
-3.35033e-08
-3.71081e-08
-3.14684e-08
-4.02662e-08
-1.62383e-07
-2.00343e-07
-4.33244e-07
-3.90054e-07
3.04135e-07
-4.87018e-07
-4.6845e-07
-4.34221e-07
-4.73473e-07
-1.68738e-07
-3.88361e-07
-6.42662e-08
-1.87031e-07
-3.05286e-08
-1.276e-07
-2.54242e-08
-6.17746e-08
-1.38472e-08
-5.12621e-08
-3.51639e-08
-3.38283e-08
-5.77783e-08
-7.74351e-08
-1.95097e-07
-3.62483e-07
7.13501e-08
-2.18143e-07
-4.49269e-07
-2.28992e-07
-4.63033e-07
-1.80511e-07
-4.83999e-07
-7.1665e-08
-5.68454e-07
3.92953e-08
-5.97396e-07
5.5741e-08
-4.80096e-07
2.59321e-08
-3.57253e-07
2.28377e-08
-1.77774e-07
-6.12278e-08
1.51117e-08
9.35741e-08
-4.17072e-07
-1.73751e-07
4.01083e-08
-4.4568e-07
-1.69891e-08
-4.08722e-07
-6.55906e-08
-4.35813e-07
3.14389e-08
-6.65773e-07
1.96548e-07
-7.58725e-07
3.99507e-07
-6.79066e-07
5.46141e-07
-5.67387e-07
3.47657e-07
-4.56754e-07
-2.67745e-07
1.47892e-07
2.77712e-07
-3.37158e-07
-3.57778e-07
1.41188e-07
-3.08965e-07
2.6804e-08
-2.9846e-07
-2.28499e-08
-3.90192e-07
2.05946e-07
-8.90918e-07
4.41609e-07
-9.908e-07
6.52382e-07
-8.85877e-07
7.79259e-07
-6.96191e-07
8.23053e-07
-5.01624e-07
-2.7161e-07
8.44484e-07
3.34014e-07
-2.49327e-07
-4.21599e-07
2.07185e-07
-1.81855e-07
8.61435e-08
-1.77138e-07
6.60742e-08
-1.59518e-07
3.17802e-07
-8.03891e-07
5.64267e-07
-1.23204e-06
5.88019e-07
-7.984e-07
6.60804e-07
-2.00069e-07
7.21459e-07
-4.66733e-07
-2.13121e-07
6.49092e-07
2.79449e-07
-1.19676e-07
-4.0879e-07
1.66464e-07
-6.85898e-08
7.12481e-08
-9.03612e-08
8.37674e-08
-6.99617e-08
3.31173e-07
-8.87199e-07
3.9664e-07
-1.285e-06
2.16362e-07
-2.86947e-07
1.24379e-07
-9.40138e-08
2.95057e-07
-4.8438e-08
4.17956e-08
2.01688e-08
1.57448e-07
4.83208e-09
-2.8151e-07
8.27666e-08
-1.24763e-08
1.71631e-08
-1.43429e-08
3.31071e-08
-5.81553e-08
2.30038e-07
-1.0803e-06
1.298e-07
-1.17181e-06
-1.19712e-08
-1.43723e-07
-6.38136e-08
-4.65627e-08
-1.21106e-07
3.20599e-09
3.86754e-08
-7.75364e-08
-2.96549e-08
-2.3719e-08
8.3641e-08
0
-1.92974e-08
1.23117e-08
-9.27967e-09
6.7846e-08
-9.02482e-08
1.07012e-07
-1.08537e-06
2.37258e-08
-1.08885e-06
-6.93906e-08
-6.99728e-08
-1.03806e-07
-1.77085e-08
-1.42082e-07
3.3555e-08
1.05384e-07
-3.45559e-07
-9.13955e-09
-7.44192e-08
1.89266e-07
0
-2.04641e-08
0
-3.09531e-09
6.58156e-09
-1.05929e-07
1.6325e-08
-1.06029e-06
-1.15732e-08
-1.01995e-06
-1.00893e-07
-1.11152e-08
-1.41381e-07
1.29112e-08
-4.48162e-07
1.07206e-07
8.77602e-08
-4.27405e-07
2.76426e-09
-7.08921e-10
-8.45956e-09
1.94076e-09
-1.35721e-09
2.60192e-09
-9.81469e-10
9.69208e-09
-1.20639e-07
7.83293e-09
-1.01284e-06
1.03556e-08
-9.69024e-07
-1.11453e-08
1.23377e-08
-2.72018e-07
7.34155e-08
-2.86804e-07
1.22343e-07
8.4606e-09
-2.0565e-07
-5.38162e-10
-3.05458e-10
1.0863e-10
-1.46152e-09
-4.31947e-10
5.27413e-09
-2.30929e-09
9.1616e-10
-1.11308e-07
-1.59334e-09
-1.00155e-06
3.75148e-09
-9.55772e-07
0
1.96209e-08
-1.79841e-07
9.62494e-08
-2.58602e-07
1.66231e-07
2.15815e-08
-1.13872e-07
7.51844e-10
2.58484e-10
-1.30887e-09
2.98784e-10
7.33213e-12
3.59604e-09
-1.40291e-10
4.19406e-09
-9.55088e-08
-2.20199e-08
-9.92359e-07
-1.15817e-09
-9.7598e-07
4.20427e-09
1.17374e-08
-8.11784e-08
7.34574e-08
-3.05597e-07
1.87711e-07
6.09303e-08
-7.34718e-08
7.04541e-10
4.82101e-10
-9.39861e-10
2.31096e-10
4.45067e-10
-3.69013e-10
4.25555e-10
-7.17351e-08
-4.88204e-08
-5.04378e-08
-1.01086e-06
-5.67078e-08
-9.72287e-07
1.74398e-09
-3.01771e-08
5.69071e-08
3.97447e-08
-6.70986e-09
7.5389e-08
1.02264e-07
-6.20314e-08
5.03182e-11
8.55784e-10
-4.26948e-10
-1.16575e-09
1.64722e-09
0
7.33629e-09
-5.98034e-09
-2.09085e-08
-1.55746e-08
-9.96377e-07
-2.82278e-09
-9.86344e-07
3.47674e-10
-2.76943e-08
6.94467e-08
2.59867e-08
6.74532e-08
1.30596e-08
1.7339e-08
1.68648e-08
-1.92533e-10
1.0005e-09
4.21447e-11
-1.52247e-09
2.26603e-08
0
1.97754e-08
-3.96375e-10
-2.54835e-08
-4.96387e-09
-9.89814e-07
-2.97197e-09
-9.82397e-07
0
-2.91618e-08
5.17427e-08
1.22634e-08
1.8247e-08
5.68835e-08
4.79268e-08
1.17003e-08
6.35067e-09
2.33732e-08
1.60132e-10
1.13526e-08
4.4719e-08
0
5.02009e-08
7.24814e-09
-2.35346e-08
1.04046e-08
-9.81138e-07
7.86953e-09
-9.75454e-07
-2.13514e-09
-2.52943e-08
1.28869e-08
7.28601e-09
4.07305e-08
3.62078e-08
5.23896e-08
4.48852e-08
-4.45834e-09
2.85526e-08
7.52911e-09
-1.73199e-09
5.02428e-08
0
3.87566e-08
-3.0899e-09
-8.77526e-09
-7.22666e-09
-9.65269e-07
-3.92077e-09
-9.7143e-07
-5.05986e-09
-1.19732e-08
2.3034e-09
1.02814e-09
2.19719e-08
9.48473e-09
3.65169e-08
4.59286e-08
-1.29202e-08
6.18882e-09
4.3048e-09
-7.77985e-09
1.4526e-08
0
2.25651e-09
-3.71691e-09
-4.13239e-10
-1.02194e-08
-9.43709e-07
-6.88985e-10
-9.36821e-07
-2.62624e-09
-1.08326e-08
-4.74969e-10
-2.65888e-09
1.95796e-09
2.73355e-09
6.77751e-09
2.90121e-09
-3.72772e-09
0
2.14902e-09
-1.3767e-09
2.81126e-10
5.61485e-10
0
3.36091e-10
-3.18606e-10
-4.90496e-10
-8.88992e-07
-4.14201e-09
-8.70873e-07
-9.95228e-09
-6.57937e-09
-3.94942e-09
7.15741e-10
-6.09493e-09
4.20686e-09
3.4395e-09
-3.12467e-09
-3.37163e-10
-3.29016e-11
1.91181e-10
-2.44398e-10
-5.40313e-11
6.52424e-11
-3.48653e-10
7.49538e-12
-3.91619e-10
-1.434e-08
-8.54509e-07
-1.0753e-08
-8.35813e-07
-1.58773e-08
-1.15773e-09
-1.02663e-08
4.29593e-09
-1.4406e-08
1.29835e-08
8.87731e-09
-1.09002e-08
-6.35301e-12
-1.39016e-10
1.62826e-11
-9.04102e-11
-2.98914e-10
0
-6.31532e-10
3.27943e-10
-8.59328e-10
-7.86252e-09
-8.6428e-07
-7.6159e-09
-8.55026e-07
-9.63973e-09
-2.73926e-10
-1.95477e-08
1.60318e-08
-1.61574e-08
1.11203e-08
5.00227e-09
-1.07553e-08
2.48457e-10
-5.00516e-10
-1.59455e-10
4.43576e-10
-4.52685e-10
0
-1.46607e-10
9.78857e-10
-2.07057e-09
-8.68523e-09
-1.00238e-06
-7.99545e-11
-1.00195e-06
0
-1.20876e-09
-1.12214e-08
2.26391e-08
-9.81703e-09
1.1243e-08
-7.78966e-10
-5.49924e-09
8.95192e-11
-3.24794e-10
-6.5463e-11
-9.6818e-11
-1.80457e-10
0
-1.03329e-12
1.77835e-09
-5.25625e-09
-4.37772e-09
-1.0954e-06
-3.8413e-09
-1.09755e-06
0
-5.89306e-09
1.00025e-08
7.70613e-10
4.13007e-09
3.21446e-11
-8.59635e-10
1.72466e-10
-3.0085e-10
-6.42088e-13
2.40674e-10
0
-1.96961e-12
0
-4.75478e-12
1.93569e-09
-3.19201e-08
-3.13091e-10
-1.11615e-06
-2.02447e-09
-1.11289e-06
1.73906e-10
-3.29184e-08
9.80481e-10
1.68604e-12
1.10428e-09
0
-2.37793e-11
2.30689e-10
-2.45694e-12
8.68024e-14
1.60497e-12
-3.38882e-12
-1.01465e-12
8.03252e-12
-2.3485e-11
1.4297e-10
-7.4082e-08
-1.68149e-09
-1.11054e-06
-1.97429e-10
-1.1106e-06
-1.07901e-10
-7.00249e-08
0
-3.48358e-11
3.22168e-11
-3.09067e-11
-6.33541e-12
8.72797e-12
-6.50914e-13
4.73042e-13
2.10404e-13
-1.65679e-12
-1.32059e-13
-1.69238e-11
-1.06223e-11
-1.14053e-08
-9.03275e-08
-1.0693e-08
-1.11055e-06
-6.97723e-09
-1.10701e-06
-6.37024e-11
-9.49205e-08
0
-1.31746e-10
8.92691e-12
-2.88813e-11
-3.90415e-12
7.70906e-14
-4.20789e-13
4.23556e-11
-2.16855e-11
-1.23401e-12
4.02355e-13
8.81306e-11
-9.83862e-11
7.86688e-09
-9.5043e-08
1.1054e-08
-1.10696e-06
1.43677e-08
-1.10855e-06
1.73591e-10
-9.52881e-08
0
-3.7374e-11
3.0186e-12
-3.57486e-11
-2.27116e-12
2.46606e-12
-8.13352e-12
6.10889e-11
7.70711e-11
-8.75594e-12
6.05266e-13
-1.04257e-10
-6.79612e-12
-1.20956e-08
-8.66783e-08
-8.41409e-09
-1.10528e-06
-6.79324e-09
-1.10325e-06
-7.53677e-11
-8.86571e-08
0
-1.07964e-10
1.8461e-12
-4.33441e-11
-2.44275e-12
4.93139e-13
-3.07813e-12
8.40649e-13
8.4576e-11
-6.48741e-13
-4.80116e-12
3.60897e-12
-1.51143e-11
7.0182e-09
-5.29713e-08
1.09689e-08
-1.1022e-06
1.09681e-08
-1.10075e-06
2.60669e-11
-5.48703e-08
0
-1.01427e-11
-8.58415e-13
-4.81264e-11
-2.8058e-12
-7.46554e-14
-1.48217e-11
-2.12581e-13
1.64061e-11
0
-1.60206e-11
-8.65254e-12
-6.60616e-12
-3.61286e-09
-1.83088e-08
-6.06595e-09
-1.09863e-06
-4.08054e-09
-1.09882e-06
-3.77562e-12
-1.7387e-08
-4.26553e-12
-9.74441e-12
-6.62972e-13
-5.27732e-12
-3.5893e-12
0
1.17447e-13
-5.50452e-12
1.76964e-12
3.8894e-12
-7.99488e-12
3.95564e-12
-6.01304e-12
1.42006e-09
-7.26734e-10
-1.53365e-09
-1.07447e-06
-2.87955e-09
-1.0759e-06
-3.07504e-13
-2.19906e-09
-1.08753e-12
-9.06149e-12
-2.09434e-12
-3.5364e-12
-2.70438e-12
0
3.63309e-12
-1.36823e-11
-4.69474e-12
1.30846e-12
-6.92458e-12
1.44552e-12
-5.43623e-12
3.10965e-09
-1.03633e-11
1.04046e-09
-9.20178e-07
-2.48509e-09
-9.32979e-07
-6.92675e-13
-1.8469e-11
-1.30152e-12
-8.50779e-12
-1.854e-12
-3.09903e-12
-2.00833e-12
-2.76728e-12
5.43328e-12
-2.02818e-11
-2.8517e-12
9.36959e-13
-4.58848e-12
8.61212e-13
-4.80511e-12
6.27396e-12
-1.50622e-11
-6.39881e-10
-6.83205e-07
-8.65508e-12
-7.01802e-07
-1.01826e-12
-2.63513e-11
-1.49463e-12
-8.14653e-12
-1.65031e-12
-3.16058e-12
-2.52865e-12
-1.36654e-12
2.51556e-12
-5.42364e-12
-5.30946e-12
1.091e-12
-3.55964e-12
9.08469e-13
-4.4068e-12
2.44087e-11
-3.8007e-11
2.26864e-09
-5.20507e-07
-3.32334e-11
-5.27143e-07
-1.80292e-12
-5.92388e-11
-1.71088e-12
-8.48399e-12
-1.35418e-12
-3.75387e-12
-2.75849e-12
0
1.56333e-13
-3.25697e-12
-7.73607e-13
1.45188e-12
-5.01946e-12
1.27972e-12
-4.30801e-12
1.15444e-10
-1.51956e-10
1.25321e-09
-4.35951e-07
-1.42667e-10
-4.37711e-07
-5.56465e-12
-2.03353e-10
-3.81135e-12
-1.9073e-11
-2.4155e-12
-1.38195e-11
-7.60506e-13
0
5.60711e-14
-1.55603e-12
-2.82443e-13
4.77564e-13
-3.80889e-12
5.0216e-13
-5.22572e-12
5.4012e-10
-6.91571e-10
1.36445e-09
-5.48493e-07
-5.87782e-10
-5.58114e-07
-8.95141e-12
-8.13841e-10
-1.22451e-11
-6.0576e-11
-6.17105e-13
-2.20714e-11
-4.95326e-13
-4.35213e-12
1.17788e-13
-3.37613e-13
0
1.87655e-13
-2.12683e-12
2.45248e-12
-4.52803e-12
2.20028e-09
-2.88833e-09
6.52168e-10
-8.11494e-07
-2.13897e-09
-8.23489e-07
-1.28845e-11
-3.00084e-09
-2.83825e-11
-6.71328e-11
-1.65666e-12
-3.49917e-11
-2.56719e-13
-5.64779e-12
1.34356e-13
0
-1.39219e-16
1.04931e-13
-1.84015e-14
2.93041e-12
-3.08963e-12
3.62994e-09
-6.51175e-09
2.08922e-10
-9.82357e-07
-5.68237e-09
-9.81922e-07
-2.45164e-11
-8.65682e-09
-1.03259e-11
-4.96412e-11
-3.12738e-12
-2.74229e-11
1.52363e-13
-8.22247e-12
0
-1.77294e-11
0
1.07655e-13
-3.70836e-12
2.80257e-12
-2.91274e-12
5.07374e-09
-3.69993e-08
-2.8252e-10
-1.05615e-06
-1.27464e-09
-1.05763e-06
-4.40462e-12
-3.62962e-08
-1.89767e-12
-1.35785e-12
-5.6729e-14
-3.8551e-11
6.22554e-13
-6.12418e-12
9.62857e-13
-2.02993e-10
-2.48349e-11
4.31021e-13
-8.13051e-11
2.27952e-12
-2.76331e-12
3.09095e-09
-9.85433e-08
4.55622e-09
-1.08979e-06
-6.42358e-10
-1.08918e-06
-4.86127e-14
-9.86903e-08
0
-1.45878e-12
1.51085e-11
-4.14214e-11
1.49077e-12
1.84566e-13
6.05313e-11
-1.71384e-10
-9.18905e-11
0
-1.31319e-10
7.17595e-13
-2.73374e-12
-9.38561e-13
-1.4471e-07
5.51564e-10
-1.09885e-06
-5.85271e-10
-1.09655e-06
-1.71771e-12
-1.46226e-07
0
-1.82344e-12
1.53541e-11
-4.7441e-11
4.39188e-12
1.19815e-12
6.30415e-11
-1.51764e-10
-8.22066e-11
0
-9.3113e-11
8.41747e-14
-2.84539e-12
2.29678e-10
-1.61614e-07
1.27878e-10
-1.09608e-06
2.74334e-09
-1.0965e-06
-4.74723e-12
-1.59075e-07
0
-1.53374e-12
1.97313e-11
-5.30613e-11
5.28807e-12
7.90806e-12
2.98787e-11
-9.62875e-11
-8.44129e-11
0
-2.01348e-11
1.86993e-13
-2.99602e-12
-8.34628e-09
-1.57815e-07
-8.28784e-09
-1.09577e-06
-5.13127e-09
-1.09628e-06
-2.06811e-13
-1.56993e-07
0
-1.74089e-12
1.80669e-11
-2.2862e-11
-3.9569e-12
3.59471e-11
-1.14921e-11
-1.66167e-12
-7.41072e-11
0
-1.17509e-11
2.65905e-13
-3.28983e-12
-3.43173e-09
-1.21467e-07
-5.91583e-09
-1.0909e-06
-3.26204e-09
-1.08951e-06
-8.92705e-14
-1.21268e-07
0
-1.83024e-12
1.67193e-12
-3.81478e-13
-4.54429e-12
1.22825e-11
-2.20555e-11
6.58886e-12
-2.68471e-11
0
-1.97118e-11
7.81633e-13
-4.07267e-12
-1.45379e-09
-6.77008e-08
-5.8595e-09
-1.04513e-06
-4.94276e-09
-1.04504e-06
-6.62227e-14
-6.95704e-08
-4.22646e-14
-1.85667e-12
9.84614e-14
-5.24582e-13
-1.78535e-12
-7.75884e-14
0
2.35132e-12
1.86128e-12
8.83639e-12
-1.00973e-11
8.52374e-12
-3.86858e-12
4.53211e-09
-3.15571e-08
3.50813e-10
-9.70724e-07
-3.75943e-09
-9.71342e-07
-2.1133e-13
-3.31405e-08
-2.95024e-13
-1.77536e-12
-4.19724e-13
-4.05751e-13
-1.14221e-13
-2.66549e-12
1.13553e-12
1.99987e-12
-2.21885e-13
9.3394e-12
-3.10164e-12
8.33915e-12
-2.88274e-12
5.70562e-09
-1.54257e-08
-5.1057e-10
-9.1508e-07
-6.13069e-09
-9.13017e-07
-1.60567e-13
-1.54635e-08
-2.29584e-13
-1.71221e-12
-1.14778e-13
-5.27642e-13
-3.83693e-13
-4.07573e-12
2.7297e-12
-9.87734e-12
-5.0748e-13
9.18071e-13
-1.30443e-12
6.48958e-13
-2.63249e-12
6.74133e-09
-9.81181e-09
1.10059e-09
-8.80561e-07
-6.64067e-09
-8.82248e-07
-2.65765e-13
-1.18472e-08
-3.66224e-13
-1.61858e-12
-4.58946e-13
-4.41458e-13
-8.54709e-14
-5.58195e-12
4.40312e-13
-4.59568e-12
2.92849e-13
7.76905e-13
-1.34337e-12
6.76893e-13
-2.53194e-12
1.32054e-08
-1.02144e-08
1.79854e-08
-8.55098e-07
-3.00674e-10
-8.62625e-07
-2.49671e-13
-1.07678e-08
-2.77672e-13
-1.59712e-12
-2.158e-13
-5.07925e-13
0
-2.71131e-13
-2.03594e-13
-5.93218e-13
1.77298e-12
2.8491e-13
-1.06948e-12
2.59916e-13
-2.50694e-12
2.56473e-09
-1.55361e-08
-8.62341e-09
-8.55407e-07
-1.08075e-08
-8.51362e-07
-1.34209e-12
-1.44257e-08
-7.10101e-13
-2.23369e-12
-2.00606e-13
-1.06927e-12
-7.40105e-14
-2.3093e-13
-9.33545e-15
-7.9942e-13
2.15517e-13
1.01231e-13
-1.18004e-12
1.28026e-13
-2.53373e-12
5.70797e-09
-2.94444e-08
-2.08829e-09
-8.74423e-07
-7.51509e-09
-8.76653e-07
-7.6372e-12
-3.07303e-08
-4.70615e-12
-5.16059e-12
-9.71863e-13
-4.76992e-11
5.1675e-12
-2.24002e-11
6.95125e-14
-8.77377e-13
8.45012e-15
8.22769e-14
-1.19279e-12
1.62874e-13
-2.61434e-12
8.12327e-09
-5.48608e-08
1.68611e-09
-9.00863e-07
-5.43557e-09
-9.03551e-07
-2.5097e-11
-5.47807e-08
-2.75264e-11
-2.65542e-12
-1.78522e-10
-1.75588e-11
6.57044e-12
-1.79836e-10
9.51531e-14
-8.40114e-13
-1.32386e-13
4.42406e-14
-1.14206e-12
1.53118e-13
-2.72325e-12
6.46288e-09
-8.34454e-08
1.20839e-10
-9.19894e-07
-6.93461e-09
-9.20289e-07
-6.9649e-12
-8.27395e-08
-7.77437e-12
-1.87689e-12
-1.07357e-10
6.38997e-12
1.92399e-11
-1.19937e-10
1.71409e-13
-6.99689e-13
-3.12089e-13
7.85443e-14
-1.05033e-12
1.86402e-13
-2.83126e-12
6.41246e-09
-1.08849e-07
2.16174e-10
-9.28182e-07
-6.3603e-09
-9.27995e-07
-1.29339e-13
-1.08149e-07
1.16817e-13
-2.16234e-12
7.06374e-12
-5.88885e-13
1.5005e-11
7.26173e-11
3.01205e-13
-4.55883e-13
-5.52554e-13
2.94543e-13
-2.27292e-12
4.17602e-13
-2.95543e-12
5.58959e-09
-1.26092e-07
-1.23437e-09
-9.27371e-07
-7.03608e-09
-9.27565e-07
-2.34999e-13
-1.25928e-07
0
-2.42927e-12
4.68073e-12
-4.72505e-12
1.44334e-12
1.87919e-11
3.51117e-12
-7.8857e-12
-9.82502e-12
6.05847e-13
-4.37558e-12
7.63609e-13
-3.12015e-12
6.56689e-09
-1.33059e-07
-4.6716e-10
-9.19751e-07
-6.44726e-09
-9.19924e-07
-1.07704e-12
-1.33453e-07
-8.95904e-13
-2.65044e-12
9.34262e-13
-5.52261e-12
1.54024e-12
1.40462e-12
1.08792e-11
-1.15407e-11
-2.75525e-11
1.54369e-12
-5.05251e-12
1.58891e-12
-3.18479e-12
4.67856e-09
-1.33523e-07
-5.4052e-09
-9.07695e-07
-9.24108e-09
-9.07112e-07
-1.93211e-12
-1.32163e-07
-1.98484e-12
-2.7084e-12
-4.13152e-13
-4.82278e-12
6.37282e-12
0
1.16459e-11
-8.60635e-12
-2.58573e-11
1.81153e-12
-3.29725e-12
1.82257e-12
-3.16366e-12
-1.98543e-09
-1.29595e-07
-1.54587e-08
-8.93286e-07
-1.78619e-08
-8.89995e-07
-1.27006e-12
-1.29873e-07
-1.50434e-12
-2.75307e-12
-2.28008e-12
-3.06447e-12
4.64453e-12
-5.06245e-12
1.70269e-11
-2.18204e-12
-2.78469e-11
1.50216e-12
-7.29081e-13
1.59555e-12
-3.04113e-12
2.07454e-09
-1.25316e-07
-1.43126e-08
-8.76523e-07
-1.61133e-08
-8.73267e-07
-8.87451e-13
-1.24444e-07
-1.25967e-12
-2.79238e-12
-3.61113e-13
-2.82212e-12
2.45948e-12
-3.01091e-12
3.41365e-12
4.43609e-12
-2.262e-11
5.75643e-13
-5.4714e-13
5.08843e-13
-2.98445e-12
3.60706e-09
-1.21389e-07
-1.26867e-08
-8.57874e-07
-1.72397e-08
-8.5397e-07
-1.14257e-12
-1.21773e-07
-1.47522e-12
-2.77989e-12
0
-3.48593e-12
4.91645e-13
-6.05152e-12
3.42665e-12
8.14658e-12
-2.40152e-11
7.95949e-13
-6.4549e-13
4.21347e-13
-2.98868e-12
1.28417e-08
-1.19974e-07
1.81567e-09
-8.39135e-07
-8.95588e-09
-8.39429e-07
-3.22636e-12
-1.20217e-07
-3.40713e-12
-2.57277e-12
-3.01202e-13
-8.79245e-12
-3.41289e-15
-1.92876e-12
3.99638e-12
1.14048e-11
-2.53402e-11
9.77822e-13
-3.8282e-13
6.89948e-13
-2.99295e-12
1.15495e-08
-1.34122e-07
-2.7607e-10
-8.29743e-07
-1.29498e-08
-8.27856e-07
-3.20693e-12
-1.34965e-07
-3.52808e-12
-2.2501e-12
-3.28958e-12
-9.99579e-12
-9.64321e-13
-3.70849e-12
2.98432e-12
1.24916e-11
-2.52745e-11
8.96128e-13
-9.76791e-15
7.08621e-13
-3.03462e-12
1.35931e-08
-1.70187e-07
6.01881e-10
-8.24975e-07
-1.27624e-08
-8.23136e-07
-2.78712e-12
-1.71098e-07
-3.17185e-12
-1.89816e-12
-2.89828e-12
-4.78242e-12
-2.67869e-12
-2.46581e-12
6.90263e-15
7.64105e-12
-2.21086e-11
7.26115e-13
1.18159e-13
5.57741e-13
-3.13787e-12
1.40869e-08
-2.13063e-07
-7.63385e-10
-8.18144e-07
-1.46214e-08
-8.17325e-07
-1.01431e-12
-2.13602e-07
-1.14565e-12
-1.80459e-12
-9.05678e-13
-2.84108e-12
-6.36179e-13
0
1.39556e-14
3.4081e-13
-3.6941e-12
1.26352e-12
2.93273e-14
1.20509e-12
-3.35471e-12
1.30042e-08
-2.38983e-07
-8.67585e-11
-8.07303e-07
-1.33099e-08
-8.06772e-07
-7.64058e-13
-2.38779e-07
-8.61556e-13
-1.74336e-12
-6.33729e-13
-2.18071e-12
3.96992e-13
0
3.39713e-13
1.86881e-13
-1.58855e-13
2.54686e-12
0
2.86134e-12
-3.9126e-12
1.30416e-08
-2.43656e-07
1.04018e-09
-7.92632e-07
-1.32751e-08
-7.90357e-07
-6.67645e-13
-2.42944e-07
-7.96714e-13
-1.65048e-12
-1.06309e-12
-1.09841e-12
-5.79298e-13
-7.14958e-14
2.5894e-13
1.00826e-13
-1.30852e-13
8.73653e-12
-1.42753e-13
8.98647e-12
-4.37515e-12
1.29847e-08
-2.36751e-07
1.42048e-10
-7.75181e-07
-1.25056e-08
-7.73641e-07
-2.86634e-13
-2.35814e-07
-3.72905e-13
-1.60226e-12
-9.69365e-14
-5.38026e-13
-2.99165e-13
-4.86616e-13
6.01071e-14
1.40088e-13
-5.89585e-14
1.79466e-11
2.45313e-12
1.7124e-11
-3.91948e-12
1.74598e-08
-2.29714e-07
-1.44902e-09
-7.51912e-07
-1.64047e-08
-7.5466e-07
-2.56632e-13
-2.28281e-07
-3.37393e-13
-1.55976e-12
-8.31688e-14
-5.32315e-13
-3.12774e-13
-3.20148e-14
2.12884e-11
4.96888e-11
-4.20681e-11
2.63498e-11
1.22773e-11
2.4206e-11
-2.25251e-12
1.87536e-08
-2.30858e-07
2.36168e-10
-7.30243e-07
-1.90873e-08
-7.32862e-07
-2.85153e-13
-2.28954e-07
-3.63822e-13
-1.51914e-12
-3.79613e-13
-3.84363e-13
-9.34234e-14
-9.49619e-15
4.60567e-11
3.41469e-11
-2.89887e-11
2.30912e-11
2.59038e-11
2.11895e-11
-5.37523e-13
2.4145e-08
-2.60298e-07
5.98082e-09
-7.11777e-07
-1.96576e-08
-7.07733e-07
-3.13816e-13
-2.55503e-07
-3.5983e-13
-1.51138e-12
-2.20292e-13
-3.26793e-13
-3.38226e-14
-9.11095e-15
1.39876e-14
6.84352e-12
-8.35225e-12
2.5431e-12
1.52671e-13
2.29251e-12
-3.05968e-13
2.29412e-08
-2.92959e-07
2.73746e-09
-6.92962e-07
-2.181e-08
-6.82889e-07
-5.45684e-13
-2.86085e-07
-4.40973e-13
-1.65463e-12
-4.94778e-13
-9.17711e-13
-4.50009e-13
-7.78675e-15
-8.56481e-14
0
2.33394e-12
6.63576e-14
-4.56503e-16
1.39174e-12
-1.6411e-12
1.73107e-08
-3.20429e-07
-7.93938e-09
-6.69033e-07
-3.14131e-08
-6.58727e-07
-1.86096e-12
-3.18861e-07
-7.61567e-13
-2.79701e-12
-1.49965e-12
-1.14354e-12
-8.18958e-13
-9.12158e-13
1.41701e-14
7.08143e-16
0
1.38673e-14
-2.43806e-16
1.50098e-11
-1.66381e-11
3.38556e-08
-3.63936e-07
3.19262e-10
-6.35607e-07
-2.15538e-08
-6.38099e-07
-1.63401e-11
-3.49505e-07
-9.89527e-13
-1.81476e-11
-1.76667e-12
-1.94412e-13
-8.84829e-13
-1.50479e-12
5.37633e-16
2.62765e-16
-1.87253e-16
6.0253e-16
-3.70736e-16
1.5259e-10
-1.69228e-10
1.74627e-08
-3.94711e-07
-5.81326e-09
-6.114e-07
-3.70563e-08
-6.07324e-07
-1.60159e-10
-3.90643e-07
-5.75056e-13
-1.77699e-10
-7.547e-13
-1.76731e-14
-3.99856e-13
-1.30088e-12
1.12054e-16
1.80685e-16
-9.27002e-17
2.04797e-16
-5.30203e-16
1.44836e-09
-1.61759e-09
2.6839e-08
-4.18108e-07
3.48638e-09
-5.87975e-07
-2.12781e-08
-5.82533e-07
-1.48925e-09
-4.08438e-07
-5.874e-14
-1.66689e-09
-6.48425e-14
-1.80725e-14
-1.89629e-14
-3.6186e-13
1.20388e-16
1.92932e-15
-7.4398e-16
2.41247e-15
-2.88492e-15
9.77968e-09
-1.13973e-08
3.34892e-08
-4.36775e-07
-4.07571e-09
-5.50856e-07
-3.06352e-08
-5.55592e-07
-9.90102e-09
-4.27558e-07
-5.47161e-15
-1.15679e-08
-5.4126e-15
-2.46074e-14
-2.56487e-14
-5.22324e-15
4.40507e-15
2.19443e-15
-4.16513e-15
7.85962e-14
-7.7144e-14
1.96743e-08
-3.09921e-08
2.03066e-08
-4.41292e-07
-6.13236e-09
-5.24534e-07
-4.38511e-08
-5.17767e-07
-2.26695e-08
-4.51965e-07
-1.49323e-13
-3.59075e-08
-4.10257e-14
-1.39411e-13
-9.26369e-14
-7.61282e-14
1.24874e-14
3.24401e-16
-1.02064e-14
2.48901e-12
-2.5456e-12
3.74512e-08
-6.82168e-08
4.65116e-08
-4.49664e-07
7.11685e-09
-4.85136e-07
-1.91026e-08
-4.91533e-07
-2.57562e-08
-4.47667e-07
-2.66211e-12
-6.29618e-08
-2.37974e-13
-2.57152e-12
-1.68498e-14
-3.41864e-13
1.56348e-14
1.73865e-16
-7.86193e-15
6.82394e-11
-7.077e-11
5.60656e-08
-1.26649e-07
4.08027e-08
-4.35682e-07
3.1302e-09
-4.47467e-07
-3.44636e-08
-4.53938e-07
-4.71638e-08
-4.32238e-07
-5.44532e-11
-1.06308e-07
-2.72876e-13
-5.67369e-11
-7.54597e-15
-3.12494e-13
1.06482e-14
-1.13538e-14
-5.08197e-16
1.63226e-09
-1.70301e-09
6.96002e-08
-1.93206e-07
3.76228e-08
-4.0382e-07
-2.32616e-10
-4.0961e-07
-4.83642e-08
-4.05809e-07
-8.21116e-08
-3.98355e-07
-1.22744e-09
-1.88724e-07
-5.8173e-13
-1.28359e-09
-5.58486e-13
-1.33063e-14
1.39347e-11
-1.39458e-11
-2.77804e-16
1.95151e-08
-2.12037e-08
8.92467e-08
-2.60224e-07
3.51669e-08
-3.4974e-07
-1.048e-08
-3.63965e-07
-5.04944e-08
-3.65793e-07
-8.86228e-08
-3.60228e-07
-1.58796e-08
-2.63155e-07
-3.21334e-11
-1.7132e-08
-3.26883e-11
-3.58772e-15
1.17754e-09
-1.19149e-09
-3.67765e-18
6.86401e-08
-9.0987e-08
1.00476e-07
-2.95061e-07
6.55823e-08
-3.14847e-07
1.72241e-08
-3.15606e-07
-3.58729e-08
-3.12696e-07
-8.88024e-08
-3.07298e-07
-5.74379e-08
-2.91404e-07
-1.38806e-09
-7.03717e-08
-1.42075e-09
-3.3371e-15
3.07889e-08
-3.19804e-08
-2.41519e-20
1.3271e-07
-1.92878e-07
8.40644e-08
-2.46414e-07
2.68711e-08
-2.57654e-07
-2.41783e-08
-2.64557e-07
-6.94378e-08
-2.67437e-07
-1.1058e-07
-2.66156e-07
-1.4807e-07
-2.539e-07
-3.13927e-08
-1.85884e-07
-3.28135e-08
-8.48927e-17
9.51386e-08
-1.72422e-22
9.82727e-08
7.17379e-08
4.60559e-08
1.66135e-08
-1.70828e-08