/*--------------------------------*- C++ -*----------------------------------*\
  =========                 |
  \\      /  F ield         | OpenFOAM: The Open Source CFD Toolbox
   \\    /   O peration     | Website:  https://openfoam.org
    \\  /    A nd           | Version:  8
     \\/     M anipulation  |
\*---------------------------------------------------------------------------*/
FoamFile
{
    version     2.0;
    format      ascii;
    class       volScalarField;
    location    "1.7";
    object      p_rgh;
}
// * * * * * * * * * * * * * * * * * * * * * * * * * * * * * * * * * * * * * //

dimensions      [1 -1 -2 0 0 0 0];

internalField   nonuniform List<scalar> 
9150
(
1962.91
1961.92
1961.31
1960.83
1960.59
1960.59
1960.83
1961.31
1961.92
1962.91
1962.49
1961.97
1961.56
1961.23
1961.07
1961.06
1961.23
1961.56
1961.97
1962.49
1962.22
1961.93
1961.68
1961.46
1961.36
1961.35
1961.46
1961.68
1961.93
1962.22
1962.1
1961.92
1961.75
1961.6
1961.51
1961.52
1961.6
1961.75
1961.92
1962.1
1962.1
1961.92
1961.79
1961.66
1961.58
1961.59
1961.65
1961.78
1961.91
1962.1
1951.29
1950.35
1950.52
1950.99
1951.13
1951.12
1950.96
1950.46
1950.29
1951.24
1955.23
1954.53
1954.29
1954.22
1954.3
1954.28
1954.19
1954.25
1954.49
1955.2
1958.28
1957.54
1957.21
1956.86
1956.8
1956.8
1956.86
1957.2
1957.53
1958.28
1960.99
1959.88
1959.43
1958.8
1958.63
1958.63
1958.8
1959.43
1959.88
1960.99
1963.67
1961.58
1960.83
1960.11
1959.85
1959.85
1960.1
1960.83
1961.58
1963.66
1946.85
1945.31
1943.53
1942.42
1941.78
1941.65
1942.02
1942.97
1944.8
1945.67
1945.79
1945.58
1944.57
1944.22
1943.79
1943.79
1944.2
1944.47
1945.33
1945.39
1945.47
1945.51
1944.52
1944.9
1944.4
1944.36
1944.74
1944.36
1945.34
1945.25
1942.18
1944.88
1943.85
1945.36
1945.15
1945.15
1945.37
1943.82
1944.82
1942.12
1935.43
1945.43
1945.74
1947.32
1947.63
1947.64
1947.3
1945.75
1945.4
1935.4
319.554
336.563
353.753
368.642
376.892
377.289
373.959
369.275
356.137
331.491
305.994
331.395
356.241
377.757
388.059
388.851
384.426
366.77
348.728
333.458
318.033
333.17
342.887
350.433
357.572
363.597
360.454
350.697
335.838
324.34
330.056
334.714
299.847
284.221
277.189
291.506
308.596
314.513
311.889
306.756
270.874
266.834
261.689
257.863
254.161
253.609
277.887
307.673
312.166
308.726
266.048
263.031
257.945
252.318
246.384
240.828
239.958
276.13
316.349
286.744
279.53
275.527
256.562
239.074
231.715
229.832
230.274
229.05
232.073
243.89
257.935
269.478
278.394
261.784
232.944
216.548
238.892
216.101
215.63
215.896
206.142
224.712
246.126
268.243
282.017
244.44
273.825
205.156
203.446
205.068
179.953
231.494
254.442
263.673
284.979
287.443
263.291
202.542
194.077
196.218
147.964
195.688
260.885
210.052
274.14
278.825
258.99
198.603
182.953
186.745
173.691
253.845
220.381
204.76
240.156
285.598
251.145
174.896
178.34
181.324
303.274
339.73
236.041
203.914
239.276
308.897
206.721
182.425
183.797
184.96
356.266
360.867
244.505
222.546
272.95
275.718
189.076
190.131
190.951
192.509
381.486
374.292
241.902
226.454
245.18
198.25
198.558
199.199
199.664
263.028
377.635
384.321
271.476
213.146
207.254
207.497
207.96
208.754
209.159
332.024
350.231
383.366
377.521
265.009
218.109
214.671
214.901
216.711
220.547
274.029
298.453
390.333
413.432
425.779
388.728
384.752
348.489
279.497
241.559
237.593
310.98
376.65
422.602
432.923
463.411
490.218
510.501
507.692
445.471
267.916
398.174
405.871
411.675
392.699
438.005
452.749
457.562
457.225
437.084
416.026
394.588
386.991
367.997
263.696
264.344
345.454
280.357
179.357
264.767
286.011
398.652
379.231
311.929
75.9863
188.653
274.512
-9.34349
-84.6066
17.9988
181.38
407.273
384.431
123.632
71.7114
250.016
299.107
-41.4393
-59.846
-68.2884
-57.2023
389.446
115.364
45.2926
66.827
328.797
313.969
14.6475
4.9464
-1.41536
69.2285
186.803
42.7868
34.3759
76.6365
358.018
348.332
81.1673
65.3762
196.211
318.057
57.3231
37.6373
22.5303
70.2803
352.465
323.969
82.3204
154.949
356.964
343.881
2.32498
2.62467
14.1763
77.2019
337.829
301.052
67.5443
127.662
380.253
238.997
2.83254
3.16752
6.13318
72.4549
352.494
300.23
56.4572
81.1738
354.18
180.56
2.97571
3.21183
3.38023
59.9572
350.278
370.471
89.3376
36.3125
202.13
172.392
2.72374
2.87705
9.9325
32.0204
359.596
378.308
29.3791
18.8909
56.9883
51.481
2.28262
5.53028
33.2368
19.053
371.796
385.892
5.57026
8.58468
50.8314
20.832
8.87281
52.7998
50.7109
21.6159
381.811
403.565
5.53568
10.5877
49.6855
52.8065
60.1803
59.4475
45.2144
13.0691
397.104
414.083
6.88568
3.51467
42.0696
59.8641
44.3642
55.1555
16.5822
3.47963
417.017
410.297
3.37
3.97437
5.79849
16.9685
4.5927
6.45291
2.63625
2.24391
403.557
402.313
6.0538
16.0049
5.53952
5.95315
1.89929
2.14573
2.54161
2.3986
407.833
396.922
7.03821
31.9153
50.9727
26.1507
1.8797
2.70701
3.86716
2.16728
416.19
418.321
8.25954
57.6011
57.4586
56.814
3.49922
3.79314
3.805
2.12768
484.706
490.632
7.42207
55.8948
58.8372
44.0756
3.76118
3.5349
2.23753
2.05143
567.01
570.601
4.28607
22.7476
28.5927
9.39649
1.75279
1.46803
1.19266
8.27183
604.457
606.565
7.59321
0.339101
0.18969
-0.321253
1.01131
0.999802
1.01818
28.6592
625.21
616.141
27.1918
0.0849227
-0.0521887
-0.179611
0.9567
0.93678
0.9318
46.6653
648.149
620.662
45.3827
-0.0510238
-0.137994
-0.240542
1.26147
0.907652
0.96435
54.0307
634.381
661.54
54.3359
-0.287227
-0.230406
-0.315244
1.34649
0.809212
0.794704
56.7123
676.404
647.899
54.1808
-0.322702
-0.271508
-0.357608
0.708848
0.716949
0.725746
42.9963
661.524
690.846
44.6032
-0.440395
-0.320281
-0.385369
0.691488
0.664878
0.631142
22.1058
687.425
693.765
21.3549
-0.419275
-0.347168
-0.386635
0.672547
0.646958
0.596282
6.56539
700.596
699.927
5.26556
-0.390028
-0.380771
-0.371984
0.692422
0.623481
0.610232
0.60744
647.768
655.665
0.190563
-0.361556
-0.356179
-0.350525
0.719334
0.653279
0.641048
0.639427
504.565
514.226
-0.331489
-0.327512
-0.324229
-0.320387
0.720965
0.667003
0.666552
0.664289
378.825
386.909
-0.293278
-0.290423
-0.289828
-0.28401
0.659214
0.672752
0.686886
0.707927
337.086
346.15
-0.270137
-0.240817
-0.239248
-0.259395
0.642899
0.655761
0.666718
0.676638
402.316
405.379
-0.182687
-0.12983
0.00672977
-0.22643
0.624209
0.632928
0.64119
0.648265
617.598
630.798
-0.0937959
-0.0620233
0.0918093
-0.198123
0.612689
0.61069
0.616579
0.617063
807.458
815.113
-0.0543119
-0.0509007
0.123807
-0.171243
0.610764
0.592555
0.602215
10.1519
910.34
914.208
10.9666
-0.0792869
0.149538
-0.152095
1.08904
0.712586
0.583894
56.3897
970.856
966.23
54.9682
-0.144511
0.204947
-0.147108
1.75452
1.03506
0.559873
108.051
1001.45
1000.29
107.556
-0.151042
0.204895
-0.154644
1.73044
1.15673
0.512589
138.424
1019.88
1019.28
137.767
-0.181387
0.174063
-0.0773432
1.71296
0.884652
0.425797
148.64
1048.22
1024.91
146.306
-0.199596
0.0691419
0.117933
1.30086
0.575291
0.393452
134.118
1054.55
1049.76
133.208
-0.272787
-0.202073
0.0943247
0.72376
0.529961
0.347288
89.2966
1046.6
1047.23
89.0147
-0.304033
-0.291145
-0.0964434
0.483614
0.52593
0.339084
46.8261
1003.69
1006.01
48.0025
-0.304027
-0.293268
-0.216005
0.453991
0.445564
0.365747
22.8914
965.089
965.979
23.1523
-0.298309
-0.290914
-0.279933
0.5816
0.411818
0.414885
12.6224
954.679
958.295
13.2685
-0.286677
-0.279049
-0.254024
0.62649
0.429023
0.471685
9.48039
941.922
990.421
11.3756
-0.306176
-0.264925
-0.245801
0.337238
0.348657
0.347928
13.066
996
979.977
10.4947
-0.194929
-0.197168
-0.198836
0.285644
0.291243
0.29582
24.5504
1041.86
1041.83
22.8904
-0.143635
-0.0390079
-0.106331
0.240212
0.246439
0.256881
48.1272
1107.31
1115.95
50.1818
-0.0554386
0.354322
1.42693
0.196951
0.198414
0.210023
85.2424
1174.41
1173.83
84.2315
-0.00342977
0.419157
1.48638
0.156563
0.155404
0.16091
122.504
1223.18
1222.29
121.655
-0.019573
-0.0268697
0.438168
0.118181
0.119382
0.113415
153.806
1259.51
1258.79
153.107
-0.033993
-0.0186211
-0.0263424
0.199124
0.0919481
0.0676523
174.005
1286.8
1285.31
173.83
-0.00929972
0.0302927
0.00322524
0.387604
0.0598099
0.00597587
183.795
1317.02
1296.11
182.757
0.0639388
0.0872156
0.0921698
0.427196
0.0342668
-0.0440513
188.188
1342.75
1305.73
184.678
0.125977
0.122815
0.210759
0.431804
0.0184104
-0.0569133
186.119
1359.48
1323.75
186.376
0.145364
0.133166
0.227942
0.345028
0.0017204
-0.0324176
185.924
1371.9
1345.91
184.726
0.124746
0.123997
0.149839
0.361927
0.0399642
0.0267537
186.073
1379.8
1380.39
187.204
0.0749471
0.120533
0.11136
0.398317
0.0708392
0.0523112
201.692
1410.91
1409.29
202.668
0.0624188
0.13827
0.244824
0.396119
0.083843
0.0648292
257.416
1454.31
1453.43
259.694
0.0531584
0.132604
0.248432
0.286028
0.0803338
0.0616386
340.476
1500.62
1499.36
342.024
0.0408095
0.0713049
0.189052
0.0764628
0.0761179
0.0508374
417.416
1538.6
1537.94
417.986
0.0285606
0.0526372
0.129857
0.0437529
0.0885882
0.0451983
459.051
1565.08
1564.98
458.654
0.0174442
0.0380707
0.155373
0.0425817
0.172089
0.0464083
472.675
1585.6
1587.08
472.073
0.00831292
0.0155898
0.0540006
0.0411344
0.376961
0.0491535
473.889
1606.89
1608.81
473.512
0.00809907
0.0100564
0.00601606
0.787887
0.478906
0.0632507
481.81
1630.17
1631.82
480.853
0.014866
0.0158197
0.0210634
0.846545
0.598617
0.0556713
545.983
1658.27
1660.78
544.289
0.0210144
0.0221164
0.0284029
0.457676
0.141728
0.016108
660.315
1692.96
1687.11
652.381
0.0313668
0.031444
0.0343763
0.0072081
-0.00471609
-0.0144566
770.838
1720.68
1711.38
765.042
0.0370645
0.0437372
0.0684757
-0.0117077
-0.0143053
-0.0228538
895.356
1741.94
1735.65
895.485
0.035991
0.0465469
0.0714114
-0.0128887
-0.0162282
-0.0268274
1074.94
1765.38
1753.29
1033.46
0.0408963
0.0366995
0.0561726
-0.0119771
-0.0192703
-0.0292612
1209.35
1783.19
1774.96
1199.18
0.0403592
0.0332865
0.0301332
-0.00982588
-0.0164432
-0.0241983
1327.32
1800.01
1796.99
1324.65
0.0440955
0.0239455
0.0222933
-0.00425051
-0.00364147
48.058
1479.57
1815.73
1819.25
1487.98
50.3747
0.0145799
0.0138684
0.0015471
0.00334506
198.859
1622.21
1834.82
1837.48
1639.96
208.696
0.00685344
0.0110152
0.00372017
0.00356598
431.677
1759.37
1855.08
1854.87
1739.98
373.001
0.00192993
0.00427179
0.002985
0.00229858
813.137
1853.31
1874.06
1873.22
1837.53
724.785
-0.0010089
0.00322772
0.00242501
0.00833511
1249.78
1891.32
1892.37
1892.32
1891.66
1259.96
0.0256672
0.00562938
0.00222366
231.511
1683.38
1909.54
1910.5
1911.15
1910.46
1684.55
162.52
0.00661046
0.00582822
1191.98
1927.34
1927.44
1927.07
1926.71
1926.51
1924.81
1064.35
0.00234535
671.577
1884.3
1939.16
1937.36
1936.78
1936.84
1937.64
1939.54
1883.66
652.446
318.639
309.54
300.315
291.811
282.684
275.113
266.237
259.739
248.715
236.483
224.216
211.801
209.23
206.992
202.567
196.082
190.547
193.741
198.692
198.974
197.41
212.954
221.542
225.79
235.596
231.118
257.777
276.347
280.443
291.408
311.032
330.519
349.192
370.939
389.165
397.956
403.943
407.841
411.375
414.205
316.83
315.588
308.744
298.942
287.722
278.285
272.615
267.18
256.122
236.296
218.297
215.193
215.837
199.265
185.435
182.138
180.499
182.32
182.309
180.485
179.362
189.031
211.43
222.789
232.579
237.074
247.64
257.922
261.794
266.837
296.382
317.956
339.771
361.129
379.504
392.302
402.419
402.842
403.557
406.094
316.467
306.612
294.249
282.017
272.813
260.835
255.141
253.161
245.493
213.131
197.501
189.749
193.206
194.11
184.461
169.332
154.21
150.859
147.579
148.694
156.471
172.071
195.382
224.496
243.627
236.906
245.223
252.758
257.397
260.234
281.597
305.846
326.35
349.951
369.424
386.026
394.906
388.247
390.313
391.568
297.616
277.754
265.242
254.983
246.417
245.386
242.443
233.086
215.394
199.572
186.478
177.051
171.379
174.644
185.526
172.754
160.535
149.619
135.79
136.243
154.593
167.553
180.407
197.582
215.302
216.783
231.617
240.235
247.604
262.443
281.227
282.568
296.511
334.985
358.572
374.048
379.547
373.41
375.229
376.139
267.869
256.103
252.041
247.978
246.629
244.017
245.709
250.008
254.245
227.869
201.323
169.462
154.583
158.853
152.902
131.627
123.021
120.791
121.411
123.471
152.386
168.42
182.293
188.322
187.25
200.26
211.37
240.119
264.485
269.248
276.241
279.489
293.54
332.186
348.87
362.898
372.733
371.469
367.577
362.459
261.849
258.784
265.073
264.04
271.204
286.863
286.634
273.751
259.789
238.608
186.997
137.536
135.531
131.977
128.233
125.38
122.689
120.746
121.237
122.684
127.717
171.233
181.205
192.022
192.498
200.927
225.306
244.638
258.785
266.302
271.302
292.208
324.414
335.675
346.393
356.308
363.9
368.843
368.88
353.599
304.439
323.512
317.916
311.407
304.144
295.435
283.309
269.36
245.28
160.913
137.084
134.747
132.312
129.357
126.066
123.38
122.187
120.886
119.834
120.669
121.635
123.923
154.741
182.027
193.776
202.671
210.289
216.707
239.479
274.334
308.23
320.954
328.014
337.498
345.229
351.233
339.287
363.266
362.55
345.234
287.94
329.208
322.888
315.982
308.244
298.388
285.727
270.272
205.868
137.5
135.971
133.513
130.736
127.835
125.004
122.884
121.006
118.703
119.354
119.991
120.409
120.639
125.246
138.904
158.955
167.201
183.169
196.824
249.616
301.368
308.274
317.887
328.578
337.036
345.722
333.27
336.329
353.097
361.064
342.286
229.088
331.724
326.288
319.843
312.521
303.897
293.278
279.085
192.253
135.285
134.633
133.088
130.945
128.571
126.54
124.974
123.572
122.684
122.272
122.381
122.911
124.244
125.399
124.908
128.453
138.377
168.788
226.785
284.208
295.98
308.155
318.634
328.71
339.657
348.886
325.655
333.607
354.97
360.016
361.576
219.418
330.951
334.18
327.777
320.572
312.302
302.724
291.573
248.652
135.37
134.252
133.054
131.337
129.621
127.99
126.505
125.475
124.578
123.709
142.515
172.914
141.774
127.895
138.058
183.823
214.081
258.871
285.647
292.022
299.748
309.648
321.068
332.162
342.279
351.293
329.574
353.005
362.991
366.719
368.813
202.062
323.76
341.495
336.132
329.598
322.317
314.446
305.962
297.562
208.342
134.257
133.418
131.945
130.491
128.838
127.157
126.103
125.599
165.57
258.191
232.085
168.221
235.936
268.598
277.331
284.202
288.149
293.266
300.657
308.271
304.249
295.13
297.943
314.578
341.289
359.774
364.926
368.619
372.779
376.144
190.124
316.26
353.455
348.563
342.426
335.962
328.928
321.45
314.573
300.793
192.565
159.874
149.401
132.643
130.225
129.017
130.501
225.831
294.954
298.262
287.749
270.38
287.116
287.873
289.742
286.328
262.239
297.919
312.586
290.015
269.534
279.228
288.151
296.524
334.727
359.613
364.385
368.035
370.661
372.417
201.498
342.122
369.433
364.61
359.292
353.473
347.467
341.383
334.787
329.115
326.606
326.656
275.918
210.762
174.379
190.837
287.874
311.15
313.71
314.597
313.69
313.123
312.273
286.628
229.519
232.127
236.3
297.801
335.574
273.082
276.11
283.182
289.099
320.829
359.801
345.969
338.36
346.884
340.153
319.152
304.134
393.823
388.483
382.982
377.554
372.059
366.823
361.513
355.361
349.949
348.169
344.498
328.635
325.145
328.321
312.779
330.181
331.691
332.82
333.129
333.141
332.794
317.65
244.021
244.148
245.344
246.48
248.299
293.582
338.869
314.243
304.145
352.69
362.706
370.22
363.89
319.434
319.151
316.178
316.651
414.355
414.937
408.207
401.142
394.355
388.189
382.687
378.224
374.09
320.126
246.531
258.052
346.949
354.166
358.125
315.237
312.909
353.54
352.322
351.509
351.439
351.965
352.232
305.977
255.203
255.117
255.481
255.779
264.173
343.334
343.893
308.284
346.4
352.917
357.484
367.413
369.663
329.385
312.851
312.585
446.311
437.48
427.797
417.767
407.907
398.261
327.776
256.528
260.782
177.225
161.726
175.317
329.033
372.841
379.068
344.658
312.412
306.897
358.668
367.747
367.763
368.123
368.274
357.203
306.609
289.524
264.425
275.506
336.271
349.744
346.912
330.514
269.426
260.907
208.367
233.05
358.444
373.215
363.56
305.014
392.443
444.226
447.994
434.414
421.724
406.707
259.714
162.196
161.285
159.869
158.429
156.959
172.739
344.134
389.964
393.685
380.482
287.487
255.5
334.757
378.99
371.564
332.134
327.886
347.501
359.344
355.605
357.299
360.401
358.856
352.6
349.778
304.168
151.529
122.309
124.497
279.24
370.873
378.833
312.56
235.01
281.577
448.595
454.019
438.197
421.304
268.908
159.209
157.526
156.057
153.965
151.892
155.006
310.484
399.504
402.088
351.606
257.455
233.762
332.948
361.433
337.078
328.146
327.05
348.688
363.8
364.51
364.799
364.455
363.294
323.294
190.026
255.238
115.633
117.586
116.051
218.885
376.71
382.041
353.044
217.288
215.675
263.807
472.863
455.618
439.667
393.452
172.959
153.951
152.372
150.472
149.309
172.395
373.807
406.412
395.488
241.481
218.342
217.086
226.348
345.412
349.019
347.089
343.079
340.454
360.9
332.695
287.762
266.045
219.256
140.77
117.418
118.872
117.037
117.964
117.79
242.735
387.376
391.062
333.998
275.102
172.498
180.46
387.357
465.204
449.729
437.654
307.499
149.507
148.934
148.318
147.79
171.525
386.543
415.315
408.883
316.69
211.803
210.705
210.294
331.009
353.537
349.81
329.283
170.488
137.114
120.213
111.157
111.363
113.713
116.127
117.076
117.755
119.602
120.395
186.216
387.22
398.776
358.212
301.105
288.518
117.213
136.137
221.527
412.029
436.995
436.277
425.259
207.245
143.836
144.473
144.629
259.219
428.058
424.026
418.685
405.278
245.381
215.085
270.423
337.978
299.812
109.809
101.854
101.854
102.334
104.271
106.649
109.399
112.674
115.024
117.037
122.304
177.542
262.897
400.224
407.483
322.947
304.962
305.198
36.7071
42.4292
77.9546
198.844
334.069
425.401
432.023
434.839
418.377
194.813
144.178
210.403
436.789
435.499
432.308
427.74
424.867
424.345
423.357
327.301
110.052
104.903
104.236
103.956
104.311
104.986
105.627
106.564
111.193
195.5
242.286
291.02
352.604
375.606
373.69
364.393
363.043
369.33
313.084
309.423
-21.3417
53.3426
162.204
240.358
307.519
425.656
431.078
433.698
436.986
435.782
259.61
190.211
222.841
415.615
434.134
430.893
430.273
430.267
428.353
427.1
401.166
175.279
105.065
105.106
105.689
116.375
236.258
315.809
373.868
423.436
425.835
380.682
356.137
355.581
363.64
415.227
421.557
420.248
419.568
402.279
244.348
298.675
310.472
255.472
348.078
425.319
429.724
431.561
435.947
437.552
438.105
372.132
228.515
241.33
425.695
433.026
433.303
434.346
435.836
436.785
437.001
433.595
402.1
384.58
354.805
310.078
277.299
382.954
435.277
434.566
433.782
433.065
431.871
430.2
428.403
426.062
423.948
422.675
422.738
422.499
321.942
324.207
330.657
270.035
402.285
436.569
439.494
433.899
428.693
434.053
434.196
431.594
320.072
197.972
196.241
380.028
433.801
436.994
440.773
444.694
447.581
450.015
450.953
450.646
449.884
430.081
307.528
364.135
433.167
428.913
426.979
426.992
428.583
428.295
426.003
422.759
416.181
419.838
424.213
388.566
332.34
328.063
306.679
408.854
440.863
446.734
376.126
173.199
119.885
228.404
327.554
370.605
331.752
197.906
174.918
175.583
297.381
440.644
444.607
449.372
453.964
457.115
458.142
456.343
451.025
447.337
446.4
440.569
390.496
373.3
374.946
297.898
273.944
266.022
228.863
190.275
147.823
160.547
233.299
281.374
32.8795
76.4476
240.176
425.699
448.05
274.407
117.602
6.70544
-0.491772
-0.954856
-0.963588
-0.787979
15.7773
132.425
179.817
175.555
123.509
177.612
364.456
441.013
456.02
460.575
463.234
410.687
304.41
303.063
373.211
345.882
279.562
190.633
60.0001
1.52951
6.54341
12.048
12.4419
13.3287
15.6064
25.9463
31.0811
73.0452
17.7975
21.0708
80.9889
100.57
28.8267
3.09103
2.50256
-0.387182
-0.76197
-0.996872
-1.01035
-0.974431
-0.905733
-0.917065
-0.86495
2.96002
38.779
47.0467
29.1194
46.8244
151.064
244.46
310.541
339.41
285.704
267.437
214.687
68.3059
0.858976
0.85011
0.747714
0.852715
1.19075
11.3891
24.2357
25.0928
23.497
27.8103
32.5386
31.7211
9.5285
15.6489
37.4533
2.58681
3.01248
4.03174
1.43433
1.14949
-0.912383
-0.971801
-0.93095
-0.864056
-0.815209
-0.743485
-0.666074
-0.613533
-0.596782
-0.519194
-0.394075
-0.416837
-0.460688
-0.461946
-0.454066
4.79532
31.59
44.8323
7.21887
-0.0125126
0.0764288
0.239979
1.3298
2.82545
4.81407
10.7719
10.1523
2.9038
2.01674
3.92523
6.04117
8.03967
5.1849
0.927661
20.7229
122.157
67.8089
3.91717
4.24755
1.51408
1.08771
-0.415718
-0.822746
-0.777737
-0.746009
-0.630624
-0.642119
-0.604575
-0.573513
0.386862
0.891121
0.798021
-0.284688
-0.50436
-0.495662
-0.490882
-0.496019
-0.528853
-0.498982
-0.37718
-0.200832
2.10226
2.54738
2.49793
1.912
0.62139
-0.324134
-0.308215
-0.275829
-0.248282
-0.252538
-0.24845
0.192366
0.275761
17.74
240.066
263.454
224.929
38.8009
3.71693
13.684
15.2315
3.18488
-0.628127
-0.599372
-0.545638
-0.584118
-0.562243
-0.526904
0.261395
1.08588
-0.390524
-0.532003
-0.502394
-0.492961
-0.495534
-0.504555
-0.497712
-0.457563
-0.226803
-0.110674
-0.423663
-0.464541
-0.432373
-0.403647
-0.379487
-0.351628
-0.265947
-0.132077
-0.173886
-0.235817
-0.234006
18.8949
2.02313
111.605
270.539
273.078
274.735
165.882
6.9233
6.39633
20.0291
20.5484
12.63
-0.409301
-0.568746
-0.546911
-0.510549
-0.427161
-0.483064
-0.474119
-0.454015
-0.45281
-0.461489
-0.446316
-0.4359
-0.434648
-0.448653
-0.454102
-0.282191
-0.341746
-0.509279
-0.486223
-0.459827
-0.433713
-0.406228
-0.364597
-0.177953
0.00557073
0.0246004
-0.12718
-0.208001
21.2354
4.94473
162.103
287.566
287.821
171.359
9.31099
6.46836
6.41898
15.246
21.392
18.068
0.90407
-0.488033
-0.490436
-0.436539
-0.427163
-0.458151
-0.450042
-0.120129
0.0321081
-0.165575
-0.414017
-0.408949
-0.412104
-0.428379
-0.45846
-0.480565
-0.513248
-0.510499
-0.491952
-0.472101
-0.451707
-0.324752
0.23755
0.0453362
0.0158692
0.0442831
0.0588334
-0.0134166
6.87085
6.50452
76.0823
227.796
131.506
11.022
7.11261
6.622
18.3757
46.3194
11.8827
0.590602
-0.390556
-0.457311
-0.457647
-0.423988
-0.40663
-0.408702
-0.446894
-0.480336
0.0218487
0.362996
0.364827
-0.217199
-0.396313
-0.411585
-0.434101
-0.458641
-0.475403
-0.478596
-0.471226
-0.454312
-0.438529
0.158353
2.75294
2.28716
0.712759
0.0339939
-0.000672604
0.0236482
6.69835
7.31704
15.2826
23.5938
13.9331
8.08292
7.8086
43.312
52.8997
49.3268
6.70738
-0.370654
-0.432371
-0.44168
-0.442258
-0.441139
-0.417604
-0.381268
-0.414271
-0.464766
-0.456909
-0.434755
-0.139366
0.654153
0.563781
-0.307157
-0.41817
-0.431346
-0.438599
-0.44087
-0.43684
-0.42442
-0.41108
1.52717
2.83476
2.89463
2.93953
0.627848
-0.0566105
-0.0527867
32.7364
37.284
46.6605
45.8626
43.9477
53.6076
53.4781
54.1652
54.3165
54.2248
23.3691
-0.343086
-0.442138
-0.444995
-0.428707
-0.41234
-0.387762
-0.381096
-0.433616
-0.434563
-0.414848
-0.390335
-0.368599
0.0460301
1.27267
1.26172
1.18173
-0.0330658
-0.408684
-0.412396
-0.406111
-0.394521
-0.380803
2.4935
2.94975
3.00937
3.06219
1.95505
-0.0289674
-0.0244139
56.64
56.811
57.0137
40.8794
16.2973
31.9605
56.1289
56.1562
56.2969
56.259
11.674
1.86602
2.14636
2.69379
4.96532
5.83236
5.87583
5.86135
5.85188
5.89082
5.75761
4.45343
-0.0107795
-0.275146
1.12934
1.31245
1.29043
1.28442
1.27215
1.25677
0.448671
-0.265451
-0.260436
2.06734
3.06739
3.12598
3.16149
1.29401
0.0430605
-0.0310245
29.8222
19.2817
-0.284505
-0.291276
-0.234008
0.380738
7.57044
28.0167
27.8061
11.5001
0.384611
0.302466
0.271874
-0.314799
0.919004
5.66171
6.00383
6.02651
1.90639
-0.0943842
0.57441
1.03512
0.0140528
-0.408039
-0.0166821
0.257011
-0.103417
0.298813
1.29026
1.3305
1.3206
1.2999
0.37773
-0.0397612
1.96067
3.28327
1.09823
0.0174348
0.176681
0.0211416
0.521887
-0.41766
-0.356289
-0.330942
-0.320275
-0.369892
-0.441354
-0.487418
-0.497865
-0.486393
-0.467054
-0.430754
-0.348218
-0.355229
-0.406601
-0.510722
-0.513507
-0.492131
-0.471962
-0.456222
0.405916
0.252725
-0.361595
-0.419078
-0.419385
-0.408049
-0.387742
-0.39081
-0.38199
-0.367685
1.29854
0.907358
0.00224555
-0.067772
-0.0867438
-0.23551
-0.233149
-0.0142763
0.203805
0.123475
-0.35632
-0.353614
-0.352604
-0.354846
-0.367235
-0.392495
-0.424366
-0.453635
-0.474803
-0.455589
-0.342685
-0.344615
-0.354888
-0.417107
-0.507362
-0.516617
-0.525108
-0.503533
-0.48226
-0.46656
0.160579
-0.103236
-0.418868
-0.41107
-0.402078
-0.391961
-0.381602
-0.372363
-0.358366
-0.338238
1.04827
0.478788
-0.0314064
-0.234182
-0.233183
-0.231337
-0.229828
-0.140092
0.206291
0.213805
-0.26469
-0.31217
-0.340579
-0.353824
-0.372726
-0.401115
-0.423618
-0.445802
-0.351157
-0.326483
-0.342473
-0.39171
-0.44912
-0.474061
-0.511016
-0.51988
-0.508784
-0.490166
-0.472746
-0.385645
-0.0150005
-0.312796
-0.420879
-0.404758
-0.387961
-0.370298
-0.352972
-0.338609
-0.298586
-0.0360933
-0.0400306
-0.0225323
0.64002
0.577489
-0.165177
-0.232227
-0.230586
-0.203058
0.21849
0.0920142
-0.298746
-0.324463
-0.33542
-0.355521
-0.374092
-0.403503
-0.42487
-0.398249
-0.333431
-0.35351
-0.481503
-0.497604
-0.497394
-0.482741
-0.4824
-0.503279
-0.51837
-0.503443
-0.331428
-0.224608
-0.303425
-0.430715
-0.416109
-0.393313
-0.371414
-0.351775
-0.334809
-0.319412
-0.252631
-0.188991
-0.178134
0.549972
0.679722
0.351416
-0.212024
-0.236342
-0.124467
-0.0712141
-0.119516
-0.241202
-0.333042
-0.340867
-0.335425
-0.370786
-0.394866
-0.411059
-0.429194
-0.449877
-0.471677
-0.492295
-0.497884
-0.496482
-0.473403
-0.499757
-0.541418
-0.539472
-0.523806
-0.428931
-0.319989
-0.389098
-0.452689
-0.432747
-0.408805
-0.384057
-0.359201
-0.336357
-0.321163
-0.312526
-0.302143
0.175743
0.701842
0.709633
0.644062
0.119504
0.0523424
0.0535601
-0.022409
-0.125161
-0.270463
-0.268312
-0.362545
-0.36661
-0.347006
-0.313774
-0.385726
-0.411766
-0.429142
-0.434154
-0.412304
-0.368847
-0.368639
-0.385718
-0.396076
-0.400249
-0.490072
-0.55082
-0.530112
-0.485246
-0.472091
-0.46605
-0.441411
-0.416799
-0.393547
-0.37147
-0.350054
-0.312382
-0.0873295
-0.0159686
0.26683
0.651899
0.669948
0.357211
-0.0797085
-0.11065
-0.106044
-0.161469
-0.233176
-0.268935
-0.276253
-0.275021
-0.379872
-0.241985
0.524819
0.743588
-0.239325
-0.402369
-0.392354
-0.275929
-0.301837
-0.33394
-0.393633
-0.520709
-0.562895
-0.555098
-0.554196
-0.544639
-0.524315
-0.501655
-0.477861
-0.452461
-0.425882
-0.401279
-0.375833
-0.241854
0.0340751
0.0711748
0.0787832
0.0356271
-0.0222987
-0.0338554
-0.190951
-0.258944
-0.268155
-0.262884
-0.260379
-0.259939
-0.260479
-0.27757
-0.27682
-0.276317
-0.32183
0.721672
1.09305
1.08792
0.131294
-0.38446
-0.333681
-0.246545
-0.355756
-0.46146
-0.478282
-0.495116
-0.507536
-0.510653
-0.507241
-0.499092
-0.486388
-0.469401
-0.446599
-0.360437
-0.140909
-0.102943
-0.0766144
-0.0611951
-0.0647899
-0.0978382
-0.159545
-0.253683
-0.257602
-0.260505
-0.260745
-0.2603
-0.260333
-0.25511
-0.168935
-0.0583238
-0.0350656
-0.217477
-0.275313
-0.275753
-0.142124
1.11713
1.12274
1.12074
0.545767
-0.363752
-0.358122
-0.338541
-0.396292
-0.416107
-0.424297
-0.446115
-0.453452
-0.455108
-0.455231
-0.451224
-0.368839
-0.0156904
0.0572808
0.0644272
0.0766931
-0.153861
-0.287234
-0.253781
-0.264227
-0.252888
-0.243667
-0.237345
-0.232341
-0.243418
-0.245118
-0.249688
-0.179288
-0.0409391
-0.0148486
-0.0150625
-0.0154887
-0.0189678
-0.262562
-0.27414
-0.238669
1.00322
1.17537
1.17522
0.862322
-0.342957
-0.346867
-0.355663
-0.36635
-0.377447
-0.20382
0.429317
0.301408
-0.365123
-0.396962
-0.122432
0.0818912
0.0934205
0.106203
-0.240079
-0.303566
-0.293076
-0.275856
-0.261034
-0.24624
-0.107805
0.0345483
0.0407088
-0.0815085
-0.168083
-0.162727
-0.242959
-0.219318
-0.217805
-0.181649
-0.0167835
-0.0167093
-0.0168699
-0.0928659
-0.270261
-0.315935
0.213453
1.22308
1.22455
1.21794
0.0191672
-0.322581
-0.326714
-0.334041
-0.319155
0.276001
0.469058
0.458527
0.447427
0.438264
0.410098
-0.190469
-0.328253
-0.306111
-0.311674
-0.299635
-0.289951
-0.112591
0.761393
0.825997
0.839063
0.850651
0.85631
0.856178
0.737447
0.773425
0.642933
0.443844
-0.021765
-0.19084
-0.188608
-0.123927
-0.0221413
-0.0240497
-0.269616
-0.281255
-0.0869613
1.16723
1.29069
0.224202
-0.306343
-0.305936
-0.307579
-0.312547
-0.313149
0.170132
0.508233
0.500095
0.493001
0.483949
0.264735
-0.320788
-0.324542
-0.328693
-0.327267
0.238102
0.785913
0.800294
0.813569
0.833513
0.842327
0.849407
0.853545
0.853605
0.849113
0.842475
0.834526
0.825191
0.819277
0.426196
-0.204987
-0.200205
-0.0844147
-0.0939714
-0.292386
-0.255354
0.0648078
1.24459
0.684951
-0.241428
-0.250043
-0.288745
-0.293753
-0.299474
-0.303647
-0.213013
0.484233
0.531339
0.524082
0.510073
-0.115813
-0.309004
-0.315551
-0.322015
-0.324186
-0.103476
0.800043
0.812385
0.584818
0.021952
0.810242
0.832243
0.841244
0.84301
0.839653
0.831852
0.823182
0.816471
0.812246
0.817453
0.423163
-0.127514
-0.31672
-0.303461
-0.312079
-0.224898
0.757386
1.36561
0.993332
-0.187612
0.0382986
0.645744
-0.12274
-0.289022
-0.291983
-0.288676
0.26182
0.559943
0.549804
0.370375
-0.291982
-0.296999
-0.300755
-0.0279533
0.17121
0.173307
0.0403066
-0.212714
-0.202637
-0.0198688
0.841685
0.842282
0.839265
0.833644
0.824699
0.814624
0.799107
0.711937
0.753296
0.82712
0.829325
0.0339196
-0.333684
-0.319989
-0.313845
-0.190507
0.944375
1.40865
1.38956
0.297853
0.0938512
0.677032
0.636578
-0.133901
-0.275635
-0.273562
0.440845
0.580499
0.562274
0.0185407
-0.273828
-0.193896
0.204139
0.198516
0.19268
-0.0950709
-0.221963
-0.219488
0.136332
0.818027
0.848265
0.861271
0.857518
0.842393
0.82704
0.545042
-0.0840856
-0.293205
-0.288201
0.0590086
0.400604
-0.205685
-0.322885
-0.30727
-0.299077
-0.099119
1.27674
1.45187
1.437
0.311751
0.143434
0.686072
0.675039
0.636197
0.131678
0.293878
0.594291
0.585939
0.359009
-0.317397
-0.251488
0.206582
0.205955
0.205205
-0.139378
-0.215539
-0.160139
0.614515
0.70534
0.652751
0.263747
0.42692
0.895504
0.88409
0.10348
-0.272023
-0.278751
-0.273465
-0.261298
-0.250457
-0.233013
-0.26454
-0.285685
-0.276974
-0.272377
-0.08839
1.29684
1.49338
1.47534
0.41908
0.169313
0.695125
0.696724
0.682897
0.668289
0.643164
0.612677
0.313907
-0.322805
-0.334882
-0.331712
0.051666
0.223823
-0.269672
-0.259613
-0.0922435
0.696881
0.708087
0.623855
-0.193032
-0.338004
-0.276761
0.520754
0.464523
-0.19535
-0.19981
0.160423
0.233325
-0.188887
-0.263697
-0.268375
-0.254301
-0.24743
-0.244943
-0.201986
-0.141716
1.06655
1.53176
1.50952
0.759029
0.176646
0.542124
0.723439
0.70589
0.688941
0.66938
0.132696
-0.305858
-0.334543
-0.3416
-0.350098
-0.294841
-0.266489
-0.309798
-0.251432
0.606153
0.723079
0.40851
-0.369427
-0.366568
-0.358338
-0.286808
-0.262181
-0.316029
-0.0157411
0.454222
0.480402
0.504553
0.529917
0.501308
-0.0963188
-0.102512
-0.137291
-0.156245
-0.1062
-0.167222
0.160736
1.54059
1.53307
1.45044
0.179134
0.209754
0.740082
0.726662
0.702896
-0.180514
-0.316008
-0.327977
-0.334421
-0.314729
-0.170267
-0.314585
-0.323986
-0.326592
0.0478812
0.662755
0.499416
-0.374854