/*--------------------------------*- C++ -*----------------------------------*\
  =========                 |
  \\      /  F ield         | OpenFOAM: The Open Source CFD Toolbox
   \\    /   O peration     | Website:  https://openfoam.org
    \\  /    A nd           | Version:  8
     \\/     M anipulation  |
\*---------------------------------------------------------------------------*/
FoamFile
{
    version     2.0;
    format      ascii;
    class       surfaceScalarField;
    location    "1.7";
    object      phi;
}
// * * * * * * * * * * * * * * * * * * * * * * * * * * * * * * * * * * * * * //

dimensions      [0 3 -1 0 0 0 0];

internalField   nonuniform List<scalar> 
18095
(
1.96125e-08
-1.71936e-07
1.52323e-07
2.31777e-08
-1.98184e-07
1.94619e-07
1.97988e-08
-2.05811e-07
2.0919e-07
1.06112e-08
-2.10458e-07
2.19646e-07
-4.81667e-10
-2.13265e-07
2.24358e-07
-1.12194e-08
-2.13534e-07
2.24272e-07
-1.99566e-08
-2.1081e-07
2.19547e-07
-2.31689e-08
-2.05923e-07
2.09136e-07
-1.9609e-08
-1.98156e-07
1.94596e-07
-1.71922e-07
1.52313e-07
1.55752e-08
-1.87511e-07
1.57634e-08
-1.98372e-07
1.21583e-08
-2.02206e-07
6.92323e-09
-2.05223e-07
7.04152e-10
-2.07046e-07
-6.04673e-09
-2.06784e-07
-1.18729e-08
-2.04984e-07
-1.57436e-08
-2.02053e-07
-1.55606e-08
-1.98339e-07
-1.87483e-07
6.86057e-09
-1.94372e-07
8.30714e-09
-1.99819e-07
7.02083e-09
-2.00919e-07
3.57439e-09
-2.01777e-07
-5.1195e-10
-2.0296e-07
-4.45991e-09
-2.02836e-07
-7.22373e-09
-2.0222e-07
-8.2879e-09
-2.00988e-07
-6.86035e-09
-1.99767e-07
-1.94343e-07
4.54872e-09
-1.9892e-07
4.69839e-09
-1.99969e-07
4.0398e-09
-2.00261e-07
2.62294e-09
-2.0036e-07
3.92297e-10
-2.00729e-07
-1.70274e-09
-2.00741e-07
-3.61682e-09
-2.00306e-07
-4.71029e-09
-1.99895e-07
-4.567e-09
-1.9991e-07
-1.9891e-07
1.07968e-09
1.11111e-09
8.50378e-10
4.90681e-10
-2.38369e-10
-9.7895e-10
-1.28523e-09
-1.18016e-09
-1.09012e-09
-2.65462e-08
-1.97035e-07
2.23581e-07
-2.90522e-08
-1.99109e-07
2.01615e-07
-2.44265e-08
-2.01663e-07
1.97038e-07
-1.3681e-08
-2.01341e-07
1.90595e-07
-4.42842e-10
-2.01446e-07
1.88208e-07
1.26987e-08
-2.01278e-07
1.88136e-07
2.35511e-08
-2.00546e-07
1.89693e-07
2.86565e-08
-2.01482e-07
1.96376e-07
2.63842e-08
-1.99106e-07
2.01378e-07
-1.96995e-07
2.23379e-07
-9.96284e-09
-1.87072e-07
-1.58138e-08
-1.93258e-07
-1.52615e-08
-2.02216e-07
-8.53046e-09
-2.08072e-07
-1.74058e-09
-2.08236e-07
5.59731e-09
-2.08616e-07
1.40906e-08
-2.09039e-07
1.53865e-08
-2.02778e-07
9.79002e-09
-1.9351e-07
-1.87205e-07
-1.08789e-08
-1.76193e-07
-8.68294e-09
-1.95454e-07
-5.87276e-09
-2.05026e-07
-4.00663e-09
-2.09938e-07
2.64361e-10
-2.12507e-07
4.62172e-09
-2.12973e-07
6.55138e-09
-2.10968e-07
9.03604e-09
-2.05262e-07
1.09806e-08
-1.95454e-07
-1.76224e-07
-6.74304e-09
-1.6945e-07
-8.79236e-09
-1.93405e-07
-8.30075e-09
-2.05517e-07
-3.10267e-09
-2.15136e-07
1.23371e-09
-2.16843e-07
4.95703e-09
-2.16696e-07
8.96546e-09
-2.14977e-07
9.12221e-09
-2.05419e-07
6.8959e-09
-1.93228e-07
-1.69329e-07
-1.71267e-08
-1.59126e-08
-1.22403e-08
-7.73081e-09
-2.15734e-10
7.36027e-09
1.19308e-08
1.56474e-08
1.70155e-08
3.26336e-08
-1.57225e-07
1.24592e-07
3.53532e-08
-1.98173e-07
1.95454e-07
2.57838e-08
-2.10301e-07
2.1987e-07
9.93376e-09
-2.16113e-07
2.31963e-07
-7.30527e-09
-2.17881e-07
2.3512e-07
-2.32527e-08
-2.17785e-07
2.33732e-07
-3.42256e-08
-2.16235e-07
2.27208e-07
-3.85112e-08
-2.10588e-07
2.14873e-07
-3.01704e-08
-1.98429e-07
1.90089e-07
-1.5727e-07
1.27099e-07
1.7083e-08
-1.74308e-07
2.04309e-08
-2.01521e-07
1.77622e-08
-2.07632e-07
1.1641e-08
-2.09992e-07
2.75992e-09
-2.09e-07
-6.3577e-09
-2.08667e-07
-1.41535e-08
-2.08439e-07
-1.82738e-08
-2.06467e-07
-1.62624e-08
-2.00441e-07
-1.73532e-07
9.95058e-09
-1.84259e-07
9.33015e-09
-2.00901e-07
7.38277e-09
-2.05685e-07
2.16925e-09
-2.04779e-07
-1.93111e-09
-2.049e-07
-5.60095e-09
-2.04997e-07
-9.31039e-09
-2.0473e-07
-1.05131e-08
-2.05264e-07
-1.04708e-08
-2.00483e-07
-1.84003e-07
7.49945e-09
-1.91758e-07
6.26904e-09
-1.9967e-07
6.68914e-09
-2.06105e-07
1.55939e-09
-1.99649e-07
-2.6061e-10
-2.0308e-07
-2.08732e-09
-2.03171e-07
-6.7911e-09
-2.00026e-07
-6.44846e-09
-2.05607e-07
-7.54153e-09
-1.9939e-07
-1.91544e-07
3.18228e-08
3.37675e-08
2.47004e-08
1.56469e-08
7.7476e-10
-1.42597e-08
-2.45926e-08
-3.38234e-08
-3.1835e-08
9.28663e-07
-2.60583e-08
-9.02605e-07
9.46808e-07
-1.81439e-08
9.68974e-07
-2.21664e-08
1.014e-06
-4.50218e-08
1.08118e-06
-6.71804e-08
1.15701e-06
-7.58324e-08
1.236e-06
-7.89927e-08
1.33785e-06
-1.01846e-07
1.41343e-06
-7.55834e-08
-5.79612e-08
1.47139e-06
6.04396e-09
-4.05973e-08
8.49527e-09
7.2402e-09
-1.93401e-08
4.22063e-09
-1.91469e-08
2.96105e-08
-7.04117e-08
1.09279e-07
-1.46849e-07
2.24425e-07
-1.90979e-07
3.65557e-07
-2.20125e-07
5.19929e-07
-2.56219e-07
6.60116e-07
-2.15771e-07
-1.6686e-07
7.69015e-07
-7.42613e-07
-6.66126e-08
7.68628e-07
-6.96439e-07
-6.55136e-08
-6.27359e-07
-8.82271e-08
-5.42032e-07
-1.55739e-07
-4.36105e-07
-2.52776e-07
-2.78788e-07
-3.48296e-07
-8.85597e-08
-4.10353e-07
8.36904e-08
-4.28469e-07
1.9584e-07
-3.2792e-07
-2.75943e-07
3.04923e-07
-9.39546e-07
-2.34753e-07
1.10769e-06
-7.30624e-07
-2.74436e-07
-5.6517e-07
-2.53681e-07
-5.2599e-07
-1.94919e-07
-4.97166e-07
-2.816e-07
-3.4601e-07
-4.99452e-07
-1.97672e-07
-5.58691e-07
-7.89073e-08
-5.47234e-07
1.07481e-08
-4.17575e-07
-3.73721e-07
1.08527e-07
-1.2328e-07
-4.96173e-07
3.847e-07
4.45961e-08
-4.42313e-07
1.32541e-07
-3.41626e-07
1.58469e-07
-2.20847e-07
6.84095e-08
-1.91541e-07
-9.67684e-08
-3.34274e-07
-1.64023e-07
-4.91437e-07
-1.33618e-07
-5.77639e-07
-1.11583e-07
-4.3961e-07
-3.92278e-07
-9.3026e-08
-2.7251e-07
-8.26034e-07
6.02371e-07
7.2769e-08
-7.87592e-07
3.75358e-07
-6.44215e-07
5.56209e-07
-4.01697e-07
6.20787e-07
-2.5612e-07
4.02935e-07
-1.16422e-07
1.19872e-07
-2.08374e-07
-7.89575e-08
-3.78809e-07
-1.97023e-07
-3.21544e-07
-3.36964e-07
-2.52337e-07
-7.66706e-07
-9.67425e-07
9.08096e-07
-5.23217e-07
-1.03108e-06
-1.50193e-07
-1.01724e-06
2.58657e-07
-8.10547e-07
4.96315e-07
-4.93778e-07
4.83906e-07
-1.04013e-07
4.60471e-07
-1.84939e-07
1.9564e-07
-1.13978e-07
-1.59278e-07
3.33736e-08
-2.29171e-07
-2.67071e-07
-8.92568e-07
-1.09412e-06
1.01926e-06
-7.66924e-07
-1.15673e-06
-5.70351e-07
-1.21381e-06
-2.58748e-07
-1.12215e-06
3.94884e-08
-7.92015e-07
2.12916e-07
-2.77442e-07
2.51595e-07
-2.23617e-07
1.85402e-07
-4.77853e-08
-5.19417e-08
2.70719e-07
-3.58001e-08
-2.45312e-07
-7.76002e-07
-1.16893e-06
8.50812e-07
-7.42649e-07
-1.19008e-06
-6.43723e-07
-1.31274e-06
-4.34104e-07
-1.33177e-06
-2.3362e-07
-9.92499e-07
-9.04215e-08
-4.2064e-07
-5.26661e-08
-2.61373e-07
1.29546e-08
-1.13405e-07
-5.06574e-08
3.34331e-07
1.19172e-07
-2.0563e-07
-2.46893e-07
-1.01826e-06
9.6224e-08
-3.90741e-07
-1.04623e-06
-4.24491e-07
-1.27899e-06
-3.70763e-07
-1.3855e-06
-2.85594e-07
-1.07767e-06
-1.75524e-07
-5.30709e-07
-1.6246e-07
-2.74436e-07
-1.3298e-07
-1.42886e-07
-2.07452e-07
4.08803e-07
2.07539e-07
-2.95818e-07
1.58512e-07
-8.71106e-07
-3.05665e-07
-3.00358e-08
-8.57681e-07
-1.27092e-07
-1.18193e-06
-2.2599e-07
-1.2866e-06
-2.84835e-07
-1.01882e-06
-2.49543e-07
-5.66002e-07
-2.86503e-07
-2.37476e-07
-3.9262e-07
-3.67685e-08
-3.70824e-07
3.87006e-07
1.99748e-07
-3.63032e-07
2.21266e-08
-7.3974e-07
-1.53493e-07
-3.38772e-08
-8.01678e-07
-7.10438e-08
-1.14477e-06
-2.00502e-07
-1.15714e-06
-4.15025e-07
-8.04301e-07
-4.69711e-07
-5.11316e-07
-5.73011e-07
-1.34175e-07
-6.57685e-07
4.79051e-08
-5.04964e-07
2.34284e-07
6.97454e-08
-3.74961e-07
-1.32999e-07
-7.28069e-07
1.21328e-07
-9.94793e-08
-8.35198e-07
-1.37311e-07
-1.10693e-06
-4.06937e-07
-8.87515e-07
-6.43068e-07
-5.6817e-07
-7.68579e-07
-3.85805e-07
-8.11384e-07
-9.13704e-08
-7.56764e-07
-6.7141e-09
-5.70007e-07
4.75265e-08
-1.18215e-07
-3.82046e-07
-3.38807e-07
-7.46581e-07
3.57319e-07
-2.93632e-07
-8.80373e-07
-4.99758e-07
-9.00808e-07
-8.03982e-07
-5.83292e-07
-9.00186e-07
-4.71966e-07
-9.53148e-07
-3.32843e-07
-8.52722e-07
-1.91796e-07
-7.04729e-07
-1.54708e-07
-4.88248e-07
-1.68955e-07
-3.01391e-07
-3.05072e-07
-5.32071e-07
-7.14134e-07
4.99624e-07
-6.37512e-07
-7.74932e-07
-8.79042e-07
-6.59279e-07
-1.00251e-06
-4.59828e-07
-1.05561e-06
-4.18859e-07
-9.97959e-07
-3.90498e-07
-7.91972e-07
-3.97783e-07
-5.80393e-07
-3.66287e-07
-3.72489e-07
-3.76859e-07
-3.97613e-07
-2.76266e-07
-6.70918e-07
-6.32132e-07
5.88917e-07
-7.92736e-07
-6.53114e-07
-8.74821e-07
-5.77193e-07
-8.69356e-07
-4.65293e-07
-8.31402e-07
-4.56813e-07
-7.25047e-07
-4.96852e-07
-5.87729e-07
-5.351e-07
-4.13332e-07
-5.40685e-07
-3.02859e-07
-4.87331e-07
-4.25086e-07
-2.75386e-07
-6.07699e-07
-6.0955e-07
5.85117e-07
-6.51659e-07
-6.09154e-07
-6.29701e-07
-5.99151e-07
-5.10527e-07
-5.84467e-07
-3.52236e-07
-6.15105e-07
-2.30854e-07
-6.18234e-07
-2.42918e-07
-5.23037e-07
-2.60441e-07
-5.23162e-07
-2.5485e-07
-4.92923e-07
-4.26181e-07
-2.53756e-07
-2.73414e-07
-6.25283e-07
2.89147e-07
-2.59444e-07
-6.23125e-07
-2.71858e-07
-5.86737e-07
-2.42601e-07
-6.13724e-07
-9.45057e-08
-7.632e-07
1.1163e-07
-8.2437e-07
2.93318e-07
-7.04725e-07
3.45349e-07
-5.75193e-07
3.08881e-07
-4.56455e-07
-3.55658e-07
2.38358e-07
1.40855e-07
-5.20272e-07
-2.45866e-07
6.44527e-08
-5.46723e-07
-2.3252e-08
-4.99032e-07
-9.84269e-08
-5.3855e-07
4.1341e-08
-9.02968e-07
2.58394e-07
-1.04142e-06
5.31247e-07
-9.77579e-07
7.98031e-07
-8.41976e-07
9.94398e-07
-6.52822e-07
-3.96632e-07
1.03537e-06
3.65087e-07
-4.16653e-07
-4.68705e-07
1.91595e-07
-3.73231e-07
4.24133e-08
-3.4985e-07
-3.15827e-08
-4.64553e-07
2.7938e-07
-1.21393e-06
5.77408e-07
-1.33945e-06
8.72187e-07
-1.27236e-06
1.04315e-06
-1.01294e-06
1.10283e-06
-7.12502e-07
-4.00309e-07
1.10651e-06
4.40273e-07
-3.10766e-07
-5.4616e-07
2.90006e-07
-2.22964e-07
1.62015e-07
-2.21859e-07
1.42431e-07
-4.4497e-07
4.82645e-07
-1.55414e-06
7.49374e-07
-1.60618e-06
9.55626e-07
-1.47861e-06
9.8384e-07
-1.04115e-06
9.50406e-07
-6.79068e-07
-3.20698e-07
8.70794e-07
3.79934e-07
-1.52231e-07
-5.38469e-07
2.45062e-07
-8.80899e-08
2.12978e-07
-1.89775e-07
3.23326e-07
-5.55318e-07
4.7238e-07
-1.7032e-06
6.05362e-07
-1.73916e-06
7.52996e-07
-1.62624e-06
6.70957e-07
-9.59114e-07
3.7805e-07
-3.8616e-07
7.55609e-08
-1.82085e-08
2.30972e-07
4.35696e-09
-3.8756e-07
1.73651e-07
-3.07683e-08
1.12606e-07
-1.2873e-07
1.98566e-07
-6.41277e-07
2.46159e-07
-1.75079e-06
2.24731e-07
-1.71773e-06
-1.84861e-07
-1.21665e-06
-6.85698e-07
-4.58277e-07
-1.08102e-06
9.16196e-09
2.7043e-07
-1.27589e-06
-3.58793e-08
-4.41678e-08
8.44041e-08
1.28405e-07
-1.95053e-07
9.91765e-08
-9.95018e-08
1.69278e-07
-7.11378e-07
9.78326e-08
-1.67935e-06
2.80906e-08
-1.64799e-06
-5.85291e-07
-6.0327e-07
-8.74547e-07
-1.69021e-07
-1.01362e-06
1.48235e-07
2.63371e-07
-1.00656e-06
-3.69194e-08
-2.59247e-07
2.51998e-07
-1.25962e-08
-2.19376e-07
-7.80437e-08
-3.40541e-08
3.75678e-08
-8.26989e-07
2.43423e-08
-1.66612e-06
-3.40774e-08
-1.58957e-06
-4.90481e-07
-1.46866e-07
-7.37506e-07
7.80049e-08
-7.8944e-07
2.00169e-07
1.24634e-07
-6.50703e-07
2.27117e-07
-4.16669e-07
-6.96954e-08
5.59474e-08
-4.82052e-08
2.35102e-08
-1.61743e-09
3.02924e-08
-8.33771e-07
2.94326e-08
-1.66526e-06
4.29828e-08
-1.60312e-06
-2.50112e-07
1.46229e-07
-4.48045e-07
2.75937e-07
-4.08726e-07
1.6085e-07
1.27881e-08
-2.9688e-07
-3.96285e-07
-1.90907e-07
1.70526e-07
-1.5156e-07
-2.92928e-07
4.57478e-08
-1.98924e-07
1.85867e-08
-8.06611e-07
1.38113e-08
-1.66049e-06
2.43028e-08
-1.61361e-06
-8.13452e-08
2.51876e-07
-3.12599e-07
5.07192e-07
-3.96186e-07
2.44437e-07
6.11326e-08
-4.4453e-07
4.32998e-07
2.28121e-07
-8.52026e-07
1.12903e-07
2.71694e-08
7.82673e-09
-9.38464e-08
1.40391e-08
-8.12823e-07
-1.90086e-08
-1.62744e-06
-1.54997e-09
-1.63107e-06
6.35884e-08
1.86738e-07
-2.23807e-07
7.94587e-07
-4.51051e-07
4.71681e-07
2.18744e-07
-6.08662e-07
5.80638e-07
4.6338e-07
-8.15895e-07
1.77935e-07
4.29872e-07
-4.9788e-08
1.33875e-07
-1.41099e-07
-7.21513e-07
-1.15056e-07
-1.65348e-06
-1.4271e-07
-1.60342e-06
3.95354e-07
-3.51326e-07
2.20897e-07
9.69043e-07
-8.08678e-08
7.73446e-07
5.40215e-07
-4.02339e-07
4.04441e-08
8.00233e-07
-3.77296e-07
-1.17826e-07
5.88142e-07
-1.33075e-07
1.49125e-07
-2.63354e-08
-8.28252e-07
-4.06978e-08
-1.63912e-06
-2.08897e-08
-1.62323e-06
5.18275e-07
-8.90491e-07
6.82629e-07
8.0469e-07
6.052e-07
8.50875e-07
7.62474e-07
3.82941e-07
-4.06063e-08
7.98952e-07
4.18876e-08
-6.23605e-08
6.09893e-07
-2.54715e-07
3.41479e-07
-5.13801e-09
-1.07783e-06
-1.56961e-08
-1.62856e-06
-1.85095e-08
-1.62041e-06
1.84724e-07
-1.09373e-06
5.20636e-07
4.68779e-07
6.43636e-07
7.27875e-07
7.40883e-07
6.65227e-07
1.2537e-07
5.5196e-07
1.21621e-07
1.47227e-07
5.88036e-07
-9.99331e-08
5.8864e-07
-5.49298e-09
-1.17227e-06
-1.72895e-08
-1.61676e-06
-2.26232e-08
-1.61508e-06
-7.0688e-08
-1.04566e-06
1.23492e-07
2.74599e-07
3.50752e-07
5.00614e-07
5.67389e-07
5.24246e-07
-3.10041e-08
3.74845e-07
2.0812e-07
-7.02556e-09
5.64057e-07
-2.03371e-07
7.84985e-07
-2.35229e-08
-1.35212e-06
-3.02421e-08
-1.61004e-06
-4.0275e-08
-1.60505e-06
-2.05653e-07
-8.80282e-07
3.0062e-10
6.86449e-08
2.6611e-07
2.34804e-07
3.65965e-07
4.67534e-07
-1.66418e-07
2.91331e-07
2.49932e-07
-4.62941e-08
4.43933e-07
1.87623e-08
7.19929e-07
3.26811e-09
-1.33662e-06
-1.08282e-08
-1.59595e-06
-2.6648e-08
-1.58923e-06
-1.99815e-07
-7.07116e-07
-3.151e-08
-9.96605e-08
7.77568e-08
1.25537e-07
3.09938e-07
1.33784e-07
-4.12389e-07
9.13074e-08
6.12414e-07
-2.89478e-07
3.21022e-07
1.7826e-07
2.52192e-07
1.44708e-08
-1.17284e-06
-3.28054e-09
-1.5782e-06
-2.61536e-08
-1.56635e-06
-1.96841e-07
-5.36429e-07
-3.01991e-07
5.48983e-09
-4.19818e-07
2.43363e-07
1.57614e-07
-2.67494e-07
-7.94083e-07
-7.03383e-08
9.55731e-07
-4.58628e-07
-1.44311e-08
2.07142e-08
-2.27157e-07
9.23841e-09
-1.16136e-06
-1.96193e-08
-1.54934e-06
-4.39177e-08
-1.54206e-06
-2.56286e-07
-3.24061e-07
-3.02788e-07
5.19943e-08
-2.34514e-07
1.7509e-07
1.34898e-07
-2.11797e-07
-1.51898e-07
-1.36931e-07
2.18489e-07
-7.94419e-08
-8.68857e-08
-9.36503e-08
-2.12954e-07
3.59626e-09
-1.25861e-06
-1.72414e-08
-1.52851e-06
-4.0614e-08
-1.51868e-06
-8.31288e-08
-2.8155e-07
-2.37427e-07
2.0628e-07
-1.98351e-07
1.36014e-07
7.02011e-08
-1.33654e-07
8.46084e-08
-1.86695e-07
-3.48449e-08
1.37486e-07
-1.39764e-07
-3.49962e-08
-4.04719e-08
2.3289e-09
-1.29593e-06
-1.68365e-08
-1.50934e-06
-3.11845e-08
-1.50433e-06
1.49464e-07
-4.62179e-07
-1.4147e-07
4.97227e-07
-1.53145e-07
1.47689e-07
-1.82921e-08
-6.46517e-08
2.32251e-08
-1.92597e-07
-1.73226e-08
-5.51103e-08
-6.14313e-08
-9.93688e-08
3.78297e-09
5.87322e-09
-1.40117e-06
-6.14948e-09
-1.49732e-06
-1.63415e-08
-1.49414e-06
5.63941e-07
-1.04249e-06
2.31706e-07
8.29462e-07
1.68105e-07
2.11289e-07
-1.48858e-07
2.98671e-07
-3.0615e-07
-6.8202e-08
1.81756e-07
-3.44802e-07
-2.27784e-08
-7.25914e-08
-2.68428e-07
5.8865e-09
-1.47966e-06
7.27164e-10
-1.49216e-06
-6.06258e-09
-1.48735e-06
4.48781e-07
-1.49733e-06
1.20277e-06
7.54715e-08
1.28701e-06
1.27053e-07
-1.19773e-07
1.25792e-06
-2.8303e-07
2.02528e-08
1.94575e-07
-2.44857e-07
-6.09507e-08
1.30887e-08
-5.26369e-07
1.24594e-08
-1.47903e-06
8.28465e-09
-1.48799e-06
7.64899e-09
-1.48672e-06
-1.02328e-08
-1.47945e-06
5.50097e-07
-4.84856e-07
8.84523e-07
-2.07371e-07
-1.70677e-07
9.35428e-07
-3.86776e-08
5.48711e-08
4.05616e-09
-8.27241e-08
-1.69055e-08
2.68255e-08
-6.35917e-07
1.80382e-08
-1.47024e-06
1.35467e-08
-1.48349e-06
1.57171e-08
-1.48889e-06
4.55267e-09
-1.46828e-06
2.43323e-07
-7.23627e-07
3.44434e-07
-3.08481e-07
-1.93743e-07
3.67502e-07
-6.95209e-09
7.84465e-08
-1.66213e-08
-8.11424e-08
5.72821e-08
-1.19342e-08
-7.05128e-07
-1.7516e-08
-1.46465e-06
-1.21669e-08
-1.48884e-06
-1.89932e-08
-1.48206e-06
-2.30325e-08
-1.46424e-06
7.5405e-08
-8.22063e-07
1.14763e-07
-3.4784e-07
-2.36769e-07
1.57793e-07
-7.27259e-08
1.10105e-07
4.10687e-08
-6.90455e-08
5.36021e-08
2.53009e-08
-7.99469e-07
2.22118e-08
-1.46156e-06
1.46287e-08
-1.48126e-06
2.01338e-08
-1.48757e-06
1.48928e-08
-1.459e-06
2.58161e-08
-8.32986e-07
3.32257e-08
-3.5525e-07
-2.54096e-07
5.05547e-08
-2.96879e-07
9.46019e-08
3.12381e-07
-8.78166e-08
-1.55457e-07
-1.60713e-08
-8.71212e-07
-1.98239e-08
-1.45781e-06
-1.73302e-08
-1.48375e-06
-2.38906e-08
-1.48101e-06
-2.68481e-08
-1.45604e-06
-1.72389e-08
-8.42593e-07
-2.84147e-08
-3.44075e-07
-2.48455e-07
-3.40549e-08
-1.65643e-07
-2.68414e-08
2.87085e-07
-5.81617e-09
-3.15275e-07
-5.42363e-10
-8.76488e-07
-5.41867e-09
-1.45294e-06
-1.04167e-08
-1.47876e-06
-1.52553e-08
-1.47617e-06
-2.15927e-08
-1.44971e-06
-4.79901e-08
-8.16193e-07
-7.79978e-08
-3.14069e-07
-2.1724e-07
-1.09214e-07
2.90888e-08
-1.32107e-07
7.61769e-08
6.50284e-08
-3.51213e-07
3.2151e-08
-8.43612e-07
1.01399e-08
-1.43092e-06
-4.9286e-10
-1.46812e-06
-1.02343e-08
-1.46643e-06
-2.47552e-08
-1.43519e-06
-8.9896e-08
-7.51054e-07
-1.20906e-07
-2.83057e-07
-1.86558e-07
-1.51589e-07
1.29156e-07
-1.7834e-07
-8.29245e-08
1.33212e-07
-3.55278e-07
6.98467e-08
-7.80246e-07
1.94001e-08
-1.38048e-06
1.16621e-09
-1.44989e-06
-1.33558e-08
-1.4519e-06
-4.87618e-08
-1.39978e-06
-1.10149e-07
-6.89666e-07
-1.28752e-07
-2.64456e-07
-1.6629e-07
-1.49019e-07
1.45443e-07
-2.19178e-07
-1.04607e-07
1.47792e-07
-3.57619e-07
8.24497e-08
-7.14901e-07
2.34696e-08
-1.3215e-06
-7.41284e-10
-1.42568e-06
-2.77598e-08
-1.42489e-06
-7.73505e-08
-1.35019e-06
-1.26012e-07
-6.41004e-07
-1.37286e-07
-2.5318e-07
-1.55856e-07
-1.4772e-07
1.16868e-07
-2.68679e-07
-6.73645e-08
1.35889e-07
-3.76641e-07
9.64087e-08
-6.75426e-07
4.49972e-08
-1.27009e-06
5.05504e-09
-1.38574e-06
-3.05343e-08
-1.3893e-06
-7.70457e-08
-1.30368e-06
-1.24102e-07
-5.93948e-07
-1.46444e-07
-2.30839e-07
-1.35549e-07
-1.6675e-07
6.40704e-08
-3.11907e-07
-2.08411e-08
8.32621e-08
-3.95821e-07
5.16197e-08
-6.43783e-07
1.94497e-08
-1.23791e-06
-1.43208e-08
-1.35197e-06
-5.85e-08
-1.34512e-06
-8.09191e-08
-1.28126e-06
-1.01093e-07
-5.73773e-07
-1.40855e-07
-1.91079e-07
-1.01769e-07
-1.74634e-07
4.82483e-08
-3.31377e-07
-2.87762e-08
4.86418e-08
-3.96204e-07
2.59933e-08
-6.21143e-07
4.29297e-08
-1.25485e-06
4.93893e-09
-1.31398e-06
-2.90198e-08
-1.31116e-06
-3.42323e-08
-1.27605e-06
-5.59082e-08
-5.52097e-07
-7.21735e-08
-1.74816e-07
-6.57494e-08
-1.08192e-07
4.07147e-08
-3.23968e-07
-4.81192e-08
1.8412e-08
-3.73902e-07
3.37949e-09
-6.06113e-07
3.24504e-08
-1.28391e-06
3.00964e-10
-1.28183e-06
-2.80728e-08
-1.28278e-06
-2.13056e-08
-1.28282e-06
-5.97976e-08
-5.13605e-07
-8.81863e-08
-1.46429e-07
-3.32167e-08
-1.20719e-07
4.06895e-08
-2.93301e-07
-7.1358e-08
6.86428e-09
-3.40085e-07
2.92859e-09
-6.02176e-07
1.23352e-08
-1.29332e-06
-1.48095e-10
-1.26935e-06
-2.44654e-08
-1.25846e-06
-1.40303e-08
-1.29325e-06
-3.09479e-08
-4.96686e-07
-5.54001e-08
-1.21977e-07
1.17713e-08
-1.00389e-07
3.23971e-08
-2.36308e-07
-8.93923e-08
2.06129e-09
-3.09754e-07
8.08152e-09
-6.08192e-07
1.61276e-08
-1.30137e-06
-2.05747e-10
-1.25302e-06
-3.1074e-09
-1.25556e-06
-1.26147e-09
-1.2951e-06
3.38006e-09
-5.01328e-07
3.2684e-09
-1.21864e-07
7.14721e-08
-5.64338e-08
2.92572e-08
-1.72954e-07
-9.26141e-08
1.03757e-09
-2.81531e-07
2.13407e-08
-6.28494e-07
8.5001e-09
-1.28853e-06
5.96191e-09
-1.25048e-06
1.14796e-09
-1.25075e-06
-2.76702e-09
-1.29119e-06
3.67627e-08
-5.40859e-07
5.63414e-08
-1.41442e-07
1.14341e-07
1.34725e-08
5.58437e-08
-1.47679e-07
-8.11195e-08
-4.66706e-09
-2.21017e-07
8.42089e-09
-6.41589e-07
-4.30786e-10
-1.27968e-06
8.90622e-10
-1.2518e-06
-4.23865e-10
-1.24943e-06
-1.301e-08
-1.2786e-06
5.87914e-08
-6.12662e-07
5.36042e-08
-1.36253e-07
1.01421e-07
6.65236e-08
5.94932e-08
-1.2936e-07
-7.78134e-08
-1.31091e-08
-1.48412e-07
8.86598e-09
-6.63557e-07
9.54997e-10
-1.27176e-06
1.80117e-09
-1.25264e-06
2.42263e-09
-1.25006e-06
-1.13782e-08
-1.2648e-06
9.97985e-08
-7.23838e-07
1.01799e-07
-1.38254e-07
4.54338e-08
1.57787e-07
4.3994e-08
-9.33163e-08
-8.00376e-08
-1.3823e-08
-9.05905e-08
3.09269e-08
-7.0831e-07
1.29103e-08
-1.25374e-06
1.05817e-08
-1.25032e-06
1.35026e-08
-1.25298e-06
4.09951e-09
-1.2554e-06
7.77119e-08
-7.97449e-07
6.20546e-08
-1.22596e-07
-1.09046e-08
1.18393e-07
-4.32114e-09
-4.14459e-09
-8.48491e-08
-2.5059e-08
-6.98487e-08
8.05692e-09
-7.41427e-07
-3.43059e-09
-1.24225e-06
-3.48921e-09
-1.25026e-06
-6.32903e-09
-1.25014e-06
-2.13848e-08
-1.24034e-06
1.2369e-08
-8.31203e-07
2.19202e-08
-1.32147e-07
-2.65341e-08
3.75495e-08
-3.91442e-08
7.18923e-08
-3.68911e-08
4.18111e-09
-1.13177e-07
1.84418e-08
-7.55684e-07
1.09734e-10
-1.22393e-06
-5.71398e-09
-1.24443e-06
-1.30794e-08
-1.24277e-06
-2.86138e-08
-1.22481e-06
-2.583e-08
-8.33988e-07
1.06236e-08
-1.686e-07
-9.86277e-09
-6.04641e-09
8.48954e-09
6.23695e-08
1.03283e-09
4.4367e-08
-1.49052e-07
3.38946e-08
-7.45206e-07
1.60302e-08
-1.20606e-06
2.75111e-10
-1.22868e-06
-1.36297e-08
-1.22887e-06
-3.20543e-08
-1.20638e-06
-7.21515e-08
-7.93891e-07
-5.90749e-08
-1.81675e-07
-7.64912e-09
-6.12869e-08
8.16714e-08
1.58313e-08
-3.51355e-08
9.54087e-08
-1.62793e-07
4.42925e-08
-6.94091e-07
2.191e-08
-1.18368e-06
-1.2262e-09
-1.20554e-06
-2.37329e-08
-1.20636e-06
-4.02621e-08
-1.18985e-06
-7.36424e-08
-7.6051e-07
-4.50439e-08
-2.10273e-07
-2.36355e-08
-2.90566e-08
7.07025e-08
-5.18127e-08
-3.05808e-09
9.407e-08
-1.86158e-07
4.37819e-08
-6.43804e-07
2.62107e-08
-1.16611e-06
-4.03886e-09
-1.17529e-06
-2.69151e-08
-1.18348e-06
-4.55307e-08
-1.17124e-06
-9.85162e-08
-7.07523e-07
-1.06136e-07
-2.02653e-07
-2.87626e-08
-1.01008e-07
3.17299e-08
-9.63254e-08
1.27849e-08
4.58158e-08
-2.00241e-07
1.34707e-09
-5.99333e-07
-1.56949e-08
-1.14906e-06
-3.52629e-08
-1.15572e-06
-6.91619e-08
-1.14958e-06
-7.73217e-08
-1.16308e-06
-1.0902e-07
-6.75824e-07
-1.18506e-07
-1.93167e-07
-3.08093e-08
-1.16458e-07
-3.15613e-08
-1.39524e-07
7.476e-08
2.46753e-08
-2.56478e-07
3.67879e-08
-6.11446e-07
3.09116e-08
-1.14319e-06
1.45177e-09
-1.12626e-06
-2.07294e-08
-1.1274e-06
-3.60671e-08
-1.14774e-06
-7.44941e-08
-6.37397e-07
-8.18374e-08
-1.85821e-07
-1.11946e-08
-1.01451e-07
-6.15897e-09
-1.90271e-07
5.69053e-08
2.13962e-08
-2.84023e-07
3.24812e-08
-6.22529e-07
2.03742e-08
-1.13108e-06
-1.49066e-09
-1.1044e-06
-2.60278e-08
-1.10287e-06
-3.85916e-08
-1.13518e-06
-2.92165e-08
-6.46771e-07
-4.42803e-08
-1.70755e-07
1.83194e-08
-7.37936e-08
1.23563e-08
-2.08521e-07
5.89502e-09
1.42878e-08
-2.85951e-07
3.61328e-08
-6.44371e-07
2.1261e-08
-1.11621e-06
-5.42188e-10
-1.0826e-06
-1.98399e-08
-1.08357e-06
-4.02725e-08
-1.11474e-06
-7.75901e-08
-6.09452e-07
-1.93876e-07
-5.44683e-08
4.15646e-10
-1.75972e-07
2.09298e-08
-1.98981e-07
-3.04681e-08
8.52743e-09
-2.73551e-07
3.65084e-08
-6.72352e-07
1.72952e-08
-1.09699e-06
3.02432e-10
-1.0656e-06
-1.74561e-08
-1.06581e-06
-3.81632e-08
-1.09404e-06
-1.98962e-08
-6.27719e-07
-8.86173e-08
1.42534e-08
1.03248e-08
-9.8526e-08
4.1857e-08
-1.65648e-07
-7.51889e-08
1.3197e-08
-2.4489e-07
3.36173e-08
-6.92773e-07
1.49846e-08
-1.07836e-06
5.18446e-10
-1.05114e-06
-1.43767e-08
-1.05092e-06
-3.18124e-08
-1.0766e-06
5.98746e-08
-7.19406e-07
1.175e-07
-4.33711e-08
6.2427e-08
6.53985e-08
5.64352e-08
-1.19062e-07
-1.03021e-07
2.389e-08
-2.12345e-07
3.18487e-08
-7.00734e-07
1.26737e-08
-1.05919e-06
-5.35107e-10
-1.03793e-06
-1.4363e-08
-1.03709e-06
-3.20987e-08
-1.05886e-06
2.23917e-08
-7.73896e-07
1.18703e-07
-1.39681e-07
7.06068e-08
1.10525e-07
7.58053e-08
-7.15181e-08
-1.23351e-07
3.94358e-08
-1.75981e-07
3.18135e-08
-6.93112e-07
1.40831e-08
-1.04146e-06
1.81583e-09
-1.02566e-06
-1.30002e-08
-1.02227e-06
-3.08582e-08
-1.04101e-06
-1.31135e-08
-7.9164e-07
1.88257e-08
-1.71619e-07
5.04137e-08
3.90196e-08
1.16845e-07
-4.78749e-08
-1.4049e-07
6.88837e-08
-1.28023e-07
4.85807e-08
-6.72809e-07
3.01854e-08
-1.02306e-06
1.41534e-08
-1.00963e-06
8.9084e-10
-1.00901e-06
-1.80236e-08
-1.02209e-06
-3.06788e-08
-7.78984e-07
-3.957e-08
-1.62727e-07
4.41831e-08
-3.33391e-08
1.16958e-07
-2.65119e-08
-1.38321e-07
7.39225e-08
-8.49828e-08
5.18144e-08
-6.507e-07
3.43066e-08
-1.00555e-06
1.7044e-08
-9.92367e-07
-7.93946e-10
-9.91171e-07
-1.86161e-08
-1.00427e-06
-3.53245e-08
-7.62276e-07
-3.45365e-08
-1.63515e-07
4.18421e-08
-3.21953e-08
9.2248e-08
-1.1341e-08
-1.07417e-07
7.0117e-08
-6.28491e-08
5.68602e-08
-6.37443e-07
3.85096e-08
-9.87204e-07
1.85324e-08
-9.7239e-07
5.86029e-10
-9.73224e-07
-1.78826e-08
-9.85801e-07
-4.24068e-08
-7.37751e-07
-4.53449e-08
-1.60578e-07
2.95915e-08
-3.3094e-08
6.96083e-08
1.49619e-08
-9.59106e-08
6.12618e-08
-5.45077e-08
5.05163e-08
-6.26699e-07
3.23517e-08
-9.6904e-07
9.75001e-09
-9.49788e-07
-1.12991e-08
-9.52175e-07
-2.95935e-08
-9.67507e-07
-4.62384e-08
-7.21106e-07
-3.59399e-08
-1.70876e-07
1.43237e-08
-2.06722e-08
6.87064e-08
3.06517e-08
-8.43973e-08
5.63253e-08
-4.21325e-08
4.12075e-08
-6.11582e-07
2.23951e-08
-9.50228e-07
6.12353e-10
-9.28006e-07
-2.31127e-08
-9.2845e-07
-4.20406e-08
-9.48579e-07
-5.24536e-08
-7.10693e-07
-4.75492e-08
-1.75781e-07
3.11964e-09
-3.63456e-08
6.85909e-08
4.78058e-08
-8.57466e-08
4.8939e-08
-2.24829e-08
4.32297e-08
-6.05873e-07
2.37565e-08
-9.30755e-07
-6.79483e-11
-9.04181e-07
-2.54736e-08
-9.03044e-07
-4.47886e-08
-9.29264e-07
-5.65328e-08
-6.98949e-07
-7.29058e-08
-1.59408e-07
-7.86746e-09
-6.19187e-08
6.16521e-08
7.03463e-08
-8.41935e-08
4.16695e-08
-2.49978e-09
4.52765e-08
-6.0948e-07
2.36008e-08
-9.09078e-07
1.16351e-10
-8.80697e-07
-2.32811e-08
-8.79647e-07
-4.46431e-08
-9.07902e-07
-5.07528e-08
-6.9284e-07
-8.02647e-08
-1.29896e-07
-1.64617e-08
-7.16703e-08
4.51681e-08
9.94053e-08
-7.4227e-08
3.69311e-08
5.73918e-09
4.61762e-08
-6.18724e-07
2.17026e-08
-8.84604e-07
-9.27161e-10
-8.58067e-07
-2.26911e-08
-8.57883e-07
-4.6816e-08
-8.83777e-07
-4.51406e-08
-6.94515e-07
-5.71623e-08
-1.17874e-07
-5.93688e-09
-6.76872e-08
3.37478e-08
1.22725e-07
-5.70672e-08
3.86224e-08
8.69731e-10
4.32947e-08
-6.23395e-07
1.84348e-08
-8.59743e-07
1.1874e-10
-8.39751e-07
-1.848e-08
-8.39284e-07
-4.33867e-08
-8.5887e-07
-4.59422e-08
-6.91959e-07
-4.80608e-08
-1.15755e-07
7.6132e-09
-6.16116e-08
4.76359e-08
1.25466e-07
-5.03752e-08
5.36359e-08
-5.12522e-09
4.19445e-08
-6.11702e-07
1.83423e-08
-8.36141e-07
1.22346e-09
-8.22632e-07
-1.80222e-08
-8.20039e-07
-4.23053e-08
-8.34587e-07
-5.25983e-08
-6.81666e-07
-4.43494e-08
-1.24004e-07
-7.43442e-09
-2.93028e-08
6.78402e-08
1.21958e-07
-6.43299e-08
6.91241e-08
-6.40747e-09
4.03125e-08
-5.8289e-07
1.85462e-08
-8.14375e-07
-8.12849e-10
-8.03273e-07
-1.96957e-08
-8.01156e-07
-4.25636e-08
-8.11719e-07
-5.52956e-08
-6.68935e-07
-3.88335e-08
-1.40467e-07
-2.43138e-08
-2.19551e-08
7.03766e-08
1.29805e-07
-7.82226e-08
5.67879e-08
7.17833e-09
4.34033e-08
-5.69506e-07
2.35089e-08
-7.94482e-07
-2.29591e-09
-7.77468e-07
-2.39319e-08
-7.7952e-07
-4.56287e-08
-7.90022e-07
-6.39868e-08
-6.50578e-07
-6.29602e-08
-1.41495e-07
-3.30139e-08
-5.42611e-08
1.21768e-07
9.87288e-08
-9.06926e-08
8.63571e-08
4.25836e-08
4.73438e-08
-5.30494e-07
2.63954e-08
-7.73535e-07
4.8499e-10
-7.51558e-07
-2.61136e-08
-7.52921e-07
-4.84906e-08
-7.67645e-07
-6.7318e-08
-6.31751e-07
-7.71517e-08
-1.31662e-07
-2.98646e-08
-8.03022e-08
1.10915e-07
7.62826e-08
-8.84702e-08
5.67964e-08
9.66947e-08
5.44566e-08
-5.28157e-07
3.08578e-08
-7.49937e-07
6.27915e-09
-7.26979e-07
-2.59434e-08
-7.20699e-07
-4.96624e-08
-7.43926e-07
-6.40528e-08
-6.17362e-07
-7.08315e-08
-1.24885e-07
-2.34844e-08
-7.7213e-08
5.67151e-09
9.19476e-08
-2.13386e-08
3.79221e-08
6.44381e-08
5.67547e-08
-5.46991e-07
3.1814e-08
-7.24997e-07
6.99166e-09
-7.02157e-07
-2.11576e-08
-6.92549e-07
-4.90615e-08
-7.16022e-07
-6.4444e-08
-6.0198e-07
-6.48709e-08
-1.2446e-07
-2.27635e-08
-6.55933e-08
-1.65533e-08
9.0748e-08
1.77511e-08
5.60113e-08
-8.13088e-09
5.51835e-08
-5.46164e-07
2.5917e-08
-6.9573e-07
-1.96453e-09
-6.74275e-07
-2.85917e-08
-6.65922e-07
-5.85127e-08
-6.86101e-07
-7.3907e-08
-5.86586e-07
-6.79771e-08
-1.30392e-07
-3.3506e-08
-5.72357e-08
3.66222e-08
6.02047e-08
-6.07986e-09
8.45985e-08
-5.61103e-08
7.50254e-08
-5.36591e-07
3.78796e-08
-6.58584e-07
3.56127e-09
-6.39957e-07
-2.06994e-08
-6.41661e-07
-5.00142e-08
-6.56786e-07
-7.99499e-08
-5.56652e-07
-7.32868e-08
-1.37055e-07
-5.1243e-08
-5.55506e-08
4.83684e-08
3.6147e-08
-2.43116e-08
8.02949e-08
-8.80386e-08
6.22e-08
-5.18495e-07
2.64154e-08
-6.22799e-07
7.19052e-10
-6.14261e-07
-2.97833e-08
-6.11159e-07
-5.85747e-08
-6.27995e-07
-8.38712e-08
-5.31356e-07
-6.49148e-08
-1.56012e-07
-6.50133e-08
-5.11447e-08
2.46251e-08
2.91338e-08
-1.76126e-08
5.28945e-08
-1.16306e-07
5.45099e-08
-5.2011e-07
3.41919e-08
-6.02481e-07
9.67851e-09
-5.89747e-07
-1.61047e-08
-5.85376e-07
-5.03297e-08
-5.9377e-07
-6.24573e-08
-5.19228e-07
-4.39635e-08
-1.74506e-07
-6.48775e-08
-4.40993e-08
8.17514e-09
4.48571e-08
-2.38977e-08
3.87181e-08
-1.46845e-07
6.92724e-08
-5.50664e-07
3.61793e-08
-5.69388e-07
-2.12433e-09
-5.51444e-07
-3.0317e-08
-5.57183e-07
-6.68989e-08
-5.57188e-07
-4.70426e-08
-5.39084e-07
-3.19576e-08
-1.89591e-07
-5.06147e-08
-4.62201e-08
6.26737e-08
4.72072e-08
-6.50222e-08
7.18435e-08
-1.56015e-07
6.20175e-08
-5.40838e-07
1.81898e-08
-5.2556e-07
-8.10951e-09
-5.25144e-07
-4.69043e-08
-5.18388e-07
-7.62491e-08
-5.27843e-07
-8.34549e-08
-5.31879e-07
-5.47352e-08
-2.1831e-07
-4.53137e-08
-6.00361e-08
1.03233e-07
4.12421e-08
-9.72674e-08
1.35641e-07
-1.88428e-07
8.01212e-08
-4.8532e-07
4.5601e-08
-4.9104e-07
6.24931e-09
-4.85793e-07
-2.04379e-08
-4.91701e-07
-5.60837e-08
-4.92198e-07
-1.04659e-07
-4.83303e-07
-8.9287e-08
-2.33683e-07
-4.28041e-08
-9.17967e-08
1.16998e-07
2.53537e-08
-1.01112e-07
1.34101e-07
-2.05535e-07
8.55093e-08
-4.36727e-07
4.13965e-08
-4.46927e-07
3.21532e-09
-4.47612e-07
-3.46018e-08
-4.53884e-07
-7.71841e-08
-4.49615e-07
-1.21354e-07
-4.39132e-07
-1.33159e-07
-2.21879e-07
-5.87752e-08
-1.17188e-07
1.04989e-07
-7.38739e-09
-7.22498e-08
1.27369e-07
-2.27914e-07
7.86583e-08
-3.88016e-07
3.73577e-08
-4.05626e-07
-5.63576e-10
-4.0969e-07
-4.85378e-08
-4.0591e-07
-9.77796e-08
-4.00374e-07
-1.49835e-07
-3.87077e-07
-1.41186e-07
-2.30527e-07
-8.86326e-08
-1.11329e-07
6.7311e-08
-5.67111e-08
-1.7986e-08
1.37568e-07
-2.9817e-07
9.09392e-08
-3.41387e-07
3.58245e-08
-3.50512e-07
-9.90874e-09
-3.63957e-07
-5.00069e-08
-3.65812e-07
-8.96139e-08
-3.60767e-07
-1.32357e-07
-3.44334e-07
-7.76154e-08
-2.85269e-07
-1.12641e-07
-5.36068e-08
1.61466e-07
-9.9968e-08
-1.18208e-07
1.41271e-07
-2.77977e-07
1.00758e-07
-3.00874e-07