/*--------------------------------*- C++ -*----------------------------------*\
  =========                 |
  \\      /  F ield         | OpenFOAM: The Open Source CFD Toolbox
   \\    /   O peration     | Website:  https://openfoam.org
    \\  /    A nd           | Version:  8
     \\/     M anipulation  |
\*---------------------------------------------------------------------------*/
FoamFile
{
    version     2.0;
    format      ascii;
    class       volVectorField;
    location    "1.7";
    object      U;
}
// * * * * * * * * * * * * * * * * * * * * * * * * * * * * * * * * * * * * * //

dimensions      [0 1 -1 0 0 0 0];

internalField   nonuniform List<vector> 
9150
(
(0.00496681 -0.0779628 0)
(0.0130501 -0.0974426 0)
(0.0108487 -0.104218 0)
(0.00850355 -0.107873 0)
(0.00212894 -0.109226 0)
(-0.0026103 -0.109188 0)
(-0.0086383 -0.107819 0)
(-0.010861 -0.104135 0)
(-0.0130399 -0.0974446 0)
(-0.00497153 -0.0779672 0)
(0.0060051 -0.0920586 0)
(0.00863127 -0.100516 0)
(0.00728729 -0.102256 0)
(0.00456562 -0.104148 0)
(0.00235613 -0.105143 0)
(-0.00168019 -0.105523 0)
(-0.00429623 -0.104402 0)
(-0.00728293 -0.102236 0)
(-0.00862547 -0.100494 0)
(-0.0059964 -0.0920455 0)
(0.00180619 -0.0954834 0)
(0.00460253 -0.0989971 0)
(0.00373888 -0.100987 0)
(0.00305805 -0.102057 0)
(0.000548882 -0.102598 0)
(-0.00109428 -0.102297 0)
(-0.00327822 -0.101619 0)
(-0.00372866 -0.100908 0)
(-0.00460851 -0.0989714 0)
(-0.00179993 -0.0954671 0)
(0.00178049 -0.0984497 0)
(0.00248402 -0.100417 0)
(0.00216459 -0.100389 0)
(0.0017261 -0.100399 0)
(0.000824706 -0.100831 0)
(-0.000406296 -0.100898 0)
(-0.00129091 -0.100824 0)
(-0.00218068 -0.10026 0)
(-0.00249808 -0.100397 0)
(-0.00178274 -0.0984421 0)
(0.000196938 -0.099499 0)
(0.000727066 -0.0995747 0)
(0.000454015 -0.0999786 0)
(0.000335358 -0.100168 0)
(0.000115002 -0.100107 0)
(-0.000323081 -0.1001 0)
(-0.000696435 -0.0998517 0)
(-0.000505938 -0.0999569 0)
(-0.00073761 -0.0995642 0)
(-0.00019769 -0.0994994 0)
(0.0768846 -0.195325 1.63986e-26)
(0.0495609 -0.185572 0)
(0.0315679 -0.177104 0)
(0.0161672 -0.175304 0)
(0.00451966 -0.175781 0)
(-0.00497456 -0.175564 0)
(-0.0165326 -0.173825 0)
(-0.0317445 -0.176854 0)
(-0.0496262 -0.185538 0)
(-0.0769171 -0.195203 -1.63684e-26)
(0.0584866 -0.146456 4.51095e-27)
(0.048202 -0.146554 0)
(0.0277682 -0.156186 0)
(0.019706 -0.156997 0)
(0.00358472 -0.15563 0)
(-0.00538561 -0.15566 0)
(-0.0207448 -0.157252 0)
(-0.0280524 -0.156383 0)
(-0.0484041 -0.146679 0)
(-0.0585359 -0.146508 -4.58168e-27)
(0.047794 -0.121679 2.14813e-27)
(0.0419719 -0.131484 0)
(0.0297401 -0.134008 0)
(0.0181347 -0.137224 0)
(0.00593565 -0.140164 0)
(-0.00567332 -0.140598 0)
(-0.0179391 -0.138305 0)
(-0.0295434 -0.134423 0)
(-0.0419526 -0.131539 0)
(-0.0477573 -0.121692 -2.25843e-27)
(0.0374678 -0.0995843 3.20457e-27)
(0.0389333 -0.11038 0)
(0.0223933 -0.120229 0)
(0.0175729 -0.125218 0)
(0.00468759 -0.125157 0)
(-0.00347376 -0.125224 0)
(-0.0169934 -0.124905 0)
(-0.0221562 -0.119946 0)
(-0.0387499 -0.110298 0)
(-0.0374327 -0.0995347 -3.25728e-27)
(0.0251249 -0.0813376 -1.12253e-26)
(0.0282063 -0.101048 -1.32325e-26)
(0.0201985 -0.108196 -3.31175e-27)
(0.011221 -0.113711 -2.94333e-27)
(0.00453227 -0.116921 -1.18722e-28)
(-0.00475541 -0.116808 -1.00827e-28)
(-0.0113457 -0.113632 -2.95645e-27)
(-0.0203593 -0.108221 -3.31568e-27)
(-0.0282998 -0.100996 -1.32022e-26)
(-0.0251134 -0.081303 -1.12249e-26)
(0.0177128 -0.144354 0)
(0.0123289 -0.204297 0)
(0.0208492 -0.218134 0)
(0.00556233 -0.225118 0)
(0.00421338 -0.226598 0)
(-0.0114752 -0.225654 0)
(-0.0122749 -0.221266 0)
(-0.0231685 -0.213963 0)
(-0.0119601 -0.203147 0)
(-0.0171443 -0.14248 0)
(0.0162123 -0.166309 0)
(0.00220936 -0.19886 0)
(0.0159785 -0.208228 0)
(0.00317169 -0.21315 0)
(0.00750097 -0.214682 0)
(-0.00471311 -0.214619 0)
(-0.000852198 -0.214026 0)
(-0.0145826 -0.208682 0)
(-0.00157997 -0.198428 0)
(-0.0161492 -0.165878 0)
(0.0149642 -0.171857 0)
(-0.00362095 -0.202918 0)
(0.0109688 -0.208203 0)
(-0.00184913 -0.210502 0)
(0.00326374 -0.209895 0)
(-0.00507114 -0.209767 0)
(0.000607643 -0.208696 0)
(-0.0118119 -0.207307 0)
(0.00342346 -0.202423 0)
(-0.0153898 -0.171269 0)
(0.0171777 -0.193242 0)
(-0.00661191 -0.203718 0)
(0.0101236 -0.210024 0)
(-0.0010775 -0.205966 0)
(0.00187585 -0.207481 0)
(-0.00213579 -0.207568 0)
(0.000983025 -0.207043 0)
(-0.0101767 -0.209591 0)
(0.00651818 -0.203355 0)
(-0.0171236 -0.193134 0)
(0.0340823 -0.21786 0)
(0.00852084 -0.204396 0)
(0.0168808 -0.204572 0)
(0.011329 -0.196783 0)
(0.00257469 -0.193591 0)
(-0.00171089 -0.193724 0)
(-0.0109909 -0.19652 0)
(-0.0170024 -0.203833 0)
(-0.00849324 -0.204108 0)
(-0.034116 -0.217615 0)
(0.462175 -0.0365543 0)
(0.475894 -0.0255236 0)
(0.493715 -0.0165239 0)
(0.507597 -0.0215539 0)
(0.528946 -0.0383521 0)
(0.569902 -0.0536572 0)
(0.607632 -0.0523423 0)
(0.634751 -0.0477374 0)
(0.672905 -0.030132 0)
(0.721323 -0.0129652 0)
(0.00859181 -0.031345 0)
(0.00671502 -0.018481 0)
(0.0068966 -0.0243417 0)
(0.00470296 -0.0498905 0)
(0.0285732 -0.0692558 0)
(0.0872298 -0.0706629 0)
(0.147319 -0.0792202 0)
(0.198097 -0.129555 0)
(0.292169 -0.118549 0)
(0.361435 -0.0931435 0)
(-0.36266 -0.0410335 0)
(-0.357484 -0.0175424 0)
(-0.330539 -0.0107483 0)
(-0.289508 -0.0826324 0)
(-0.246262 -0.211204 0)
(-0.17908 -0.293993 0)
(-0.0934442 -0.340538 0)
(-0.00205542 -0.368624 0)
(0.0703029 -0.289295 0)
(0.126113 -0.235219 0)
(-0.497192 -0.0698277 0)
(-0.416189 -0.106339 0)
(-0.321567 -0.188991 0)
(-0.263355 -0.282477 0)
(-0.260183 -0.366175 0)
(-0.202702 -0.475653 0)
(-0.127901 -0.543213 0)
(-0.0700885 -0.537983 0)
(-0.0173987 -0.411685 0)
(0.0305378 -0.357999 0)
(-0.129611 -0.36839 0)
(-0.0264515 -0.383915 0)
(0.0604246 -0.285652 0)
(0.0830119 -0.136547 0)
(0.0797455 -0.205353 0)
(-0.0125956 -0.516956 0)
(-0.0838373 -0.584071 0)
(-0.0696441 -0.574586 0)
(-0.0581349 -0.443999 0)
(-0.0543591 -0.402893 0)
(-0.229433 -0.598163 0)
(-0.0648905 -0.515465 0)
(0.11815 -0.353072 0)
(0.243037 -0.211647 0)
(0.302103 -0.124806 0)
(0.275383 -0.123721 0)
(0.144734 -0.340083 0)
(0.000314831 -0.538491 0)
(-0.0860232 -0.395528 0)
(-0.128465 -0.352803 0)
(-0.415167 -0.93403 0)
(-0.352143 -0.95777 0)
(-0.208979 -0.863117 0)
(0.0434521 -0.541092 0)
(0.195885 -0.336826 0)
(0.277826 -0.0860875 0)
(0.227921 -0.11393 0)
(0.231386 -0.180228 0)
(-0.0251782 -0.184265 0)
(-0.134985 -0.29939 0)
(-0.469138 -1.09228 0)
(-0.420362 -1.14088 0)
(-0.350127 -1.15509 0)
(-0.220332 -1.02408 0)
(-0.0796489 -0.748678 0)
(0.134416 -0.164016 0)
(0.0917186 -0.218644 0)
(0.141919 -0.071215 0)
(0.0562691 0.234693 0)
(-0.107015 -0.163221 0)
(-0.393153 -1.19842 0)
(-0.383414 -1.23295 0)
(-0.35452 -1.30884 0)
(-0.28322 -1.28752 0)
(-0.165026 -0.903792 0)
(-0.0819312 -0.368792 0)
(-0.018776 -0.270599 0)
(-0.0250279 -0.0526506 0)
(0.025519 0.322393 0)
(-0.0635678 0.0829537 0)
(-0.103264 -1.15326 0)
(-0.173944 -1.18604 0)
(-0.188329 -1.35079 0)
(-0.213631 -1.39805 0)
(-0.165497 -1.05259 0)
(-0.130491 -0.482857 0)
(-0.052407 -0.268467 0)
(-0.105527 -0.148365 0)
(-0.0412586 0.384364 0)
(-0.135751 0.177789 0)
(0.128388 -0.909667 0)
(0.0283917 -0.903627 0)
(-0.045684 -1.20526 0)
(-0.0645354 -1.36048 0)
(-0.160615 -1.08974 0)
(-0.144709 -0.57804 0)
(-0.0909357 -0.282214 0)
(-0.19196 -0.142732 0)
(-0.175466 0.39484 0)
(-0.197274 0.19364 0)
(0.0288681 -0.770544 0)
(0.00809239 -0.803309 0)
(-0.0356927 -1.15465 0)
(-0.0333375 -1.24298 0)
(-0.186773 -0.965378 0)
(-0.237763 -0.56724 0)
(-0.196497 -0.202847 0)
(-0.364391 0.0461813 0)
(-0.28305 0.327921 0)
(-0.217547 0.156752 0)
(-0.0675854 -0.723279 0)
(-0.0500001 -0.790693 0)
(-0.0367406 -1.14902 0)
(-0.128415 -1.09582 0)
(-0.290022 -0.670124 0)
(-0.3591 -0.453687 0)
(-0.33789 -0.0596275 0)
(-0.453752 0.0632416 0)
(-0.345656 0.158934 0)
(-0.21489 -0.000206908 0)
(-0.174563 -0.727703 0)
(-0.152956 -0.889505 0)
(-0.131858 -1.06161 0)
(-0.396954 -0.666408 0)
(-0.437231 -0.486218 0)
(-0.43996 -0.319391 0)
(-0.45415 -0.108065 0)
(-0.425262 -0.078369 0)
(-0.307332 -0.0419929 0)
(-0.168596 -0.230587 0)
(-0.251413 -0.742618 0)
(-0.246303 -0.839047 0)
(-0.407748 -0.710163 0)
(-0.503171 -0.473606 0)
(-0.507291 -0.405341 0)
(-0.505356 -0.307425 0)
(-0.483816 -0.273946 0)
(-0.343969 -0.23135 0)
(-0.238075 -0.285761 0)
(-0.147303 -0.369869 0)
(-0.29769 -0.661973 0)
(-0.344553 -0.687471 0)
(-0.44771 -0.581167 0)
(-0.455018 -0.427325 0)
(-0.420716 -0.430253 0)
(-0.391757 -0.48819 0)
(-0.339929 -0.52016 0)
(-0.251667 -0.481266 0)
(-0.1642 -0.455943 0)
(-0.150873 -0.394983 0)
(-0.27501 -0.626925 0)
(-0.315058 -0.639822 0)
(-0.32612 -0.616504 0)
(-0.282212 -0.525413 0)
(-0.242186 -0.519291 0)
(-0.137228 -0.563933 0)
(-0.0984494 -0.566931 0)
(-0.128243 -0.580587 0)
(-0.12897 -0.488862 0)
(-0.133855 -0.411249 0)
(-0.137371 -0.637337 0)
(-0.11432 -0.608981 0)
(-0.128514 -0.609565 0)
(-0.126233 -0.643979 0)
(-0.105807 -0.69398 0)
(0.00477869 -0.667794 0)
(0.0998412 -0.573524 0)
(0.186705 -0.549673 0)
(0.180822 -0.471902 0)
(0.175459 -0.34753 0)
(0.103831 -0.57371 0)
(0.0536372 -0.615248 0)
(0.00748091 -0.546294 0)
(-0.042445 -0.575355 0)
(-0.040537 -0.804728 0)
(0.0887734 -0.884071 0)
(0.176301 -0.703949 0)
(0.311642 -0.571599 0)
(0.456216 -0.485239 0)
(0.573411 -0.34401 0)
(0.222808 -0.437752 0)
(0.15397 -0.449021 0)
(0.0555564 -0.437177 0)
(-0.0415685 -0.488792 0)
(0.0378149 -0.957435 0)
(0.210538 -1.15071 0)
(0.392398 -1.14362 0)
(0.468408 -0.979517 0)
(0.495189 -0.706412 0)
(0.571349 -0.436311 0)
(0.251315 -0.369939 0)
(0.212272 -0.283285 0)
(0.0863846 -0.252797 0)
(0.026186 -0.452716 0)
(0.170591 -1.4872 0)
(0.28347 -1.56976 0)
(0.414204 -1.46493 0)
(0.524886 -1.12083 0)
(0.453854 -0.773985 0)
(0.457268 -0.458109 0)
(0.238693 -0.231288 0)
(0.157882 -0.151904 0)
(0.0543195 -0.208348 0)
(0.173176 -0.466737 0)
(0.193306 -1.66929 0)
(0.223847 -1.72114 0)
(0.323426 -1.64003 0)
(0.422518 -1.21082 0)
(0.262832 -0.725753 0)
(0.139148 -0.252717 0)
(0.146602 -0.0640478 0)
(0.0588189 -0.0199377 0)
(0.0733507 -0.168661 0)
(0.0871338 -0.644373 0)
(0.0996444 -1.74122 0)
(0.0974286 -1.74038 0)
(0.10112 -1.57152 0)
(-0.278478 -0.54986 0)
(-0.528653 -0.0320135 0)
(-0.470415 0.330847 0)
(-0.0491134 0.075868 0)
(-0.0105319 -0.0535864 0)
(0.0850515 -0.08375 0)
(0.0963258 -0.603505 0)
(0.0319756 -1.68859 0)
(0.0367223 -1.64949 0)
(-0.0321479 -0.748639 0)
(-0.460768 -0.247678 0)
(-0.504456 0.0931659 0)
(-0.482028 0.342615 0)
(-0.0744718 -0.17434 0)
(0.0382843 -0.26194 0)
(-0.0679778 -0.109363 0)
(0.0169993 -0.836132 0)
(0.0110444 -1.67919 0)
(0.00973332 -1.60675 0)
(-0.0561522 -0.261472 0)
(-0.383277 -0.0267126 0)
(-0.396863 0.19923 0)
(-0.351698 0.23387 0)
(0.0636531 -0.318723 0)
(0.138245 -0.263342 0)
(-0.0239675 0.0268228 0)
(0.0160567 -0.801619 0)
(0.0155903 -1.66306 0)
(0.00117558 -1.60256 0)
(0.0331204 -0.0416324 0)
(-0.24779 0.153717 0)
(-0.2375 0.15976 0)
(-0.155393 -0.000573136 0)
(-0.264078 -0.496981 0)
(-0.177221 0.00455372 0)
(0.034645 -0.0672602 0)
(0.0168068 -0.840507 0)
(0.00592893 -1.65998 0)
(-0.0126862 -1.6213 0)
(0.0506058 0.22105 0)
(-0.122426 0.285193 0)
(-0.225629 0.183929 0)
(-0.204515 0.0221343 0)
(0.426389 0.161584 0)
(0.0484583 -0.26624 0)
(0.0338462 -0.210537 0)
(0.0125952 -0.784929 0)
(-0.00446223 -1.64083 0)
(-0.0383973 -1.62353 0)
(0.077109 0.267526 0)
(-0.0443675 0.640956 0)
(-0.226919 0.304736 0)
(-0.230788 0.101689 0)
(0.395067 0.347479 0)
(0.18947 0.315781 0)
(0.0221636 0.0684874 0)
(-0.0955583 -0.880753 0)
(-0.0313978 -1.64442 0)
(-0.063825 -1.60145 0)
(-0.0188536 0.102322 0)
(0.265874 0.925523 0)
(0.0144245 0.712197 0)
(-0.081474 0.381192 0)
(0.164342 0.537417 0)
(-0.126208 0.495817 0)
(-0.0438776 0.111072 0)
(-0.0444559 -0.53725 0)
(0.00430508 -1.64541 0)
(-0.0281364 -1.62706 0)
(0.0271725 -0.864944 0)
(0.396967 0.976161 0)
(0.341729 0.865015 0)
(0.2333 0.67747 0)
(-0.00345569 0.908241 0)
(-0.0388851 0.624652 0)
(-0.0533229 0.220194 0)
(-0.0738667 -1.04352 0)
(0.00937626 -1.63022 0)
(-0.0149046 -1.61992 0)
(-0.0243028 -1.01979 0)
(0.250806 0.617112 0)
(0.31048 0.754613 0)
(0.314955 0.76887 0)
(0.118782 0.723542 0)
(0.0216934 0.595333 0)
(0.0657593 0.425324 0)
(-0.0831145 -1.10968 0)
(0.00773246 -1.62163 0)
(-0.0149818 -1.61809 0)
(-0.0203919 -1.02853 0)
(-0.0315985 0.405275 0)
(0.15009 0.69242 0)
(0.232553 0.719212 0)
(-0.0385677 0.415724 0)
(0.0217467 0.588059 0)
(-0.0547998 0.642669 0)
(-0.0554535 -1.36427 0)
(0.000904749 -1.61544 0)
(-0.0171301 -1.61151 0)
(-0.0351741 -1.03218 0)
(-0.142331 0.193726 0)
(0.123019 0.400998 0)
(0.193878 0.498055 0)
(-0.110847 0.424036 0)
(-0.0421686 0.630022 0)
(-0.0148973 0.749947 0)
(0.0235979 -1.42696 0)
(0.002529 -1.60602 0)
(-0.0105976 -1.6002 0)
(-0.0435612 -0.813062 0)
(-0.0781668 -0.112181 0)
(0.0207894 0.0553898 0)
(0.0786617 0.308167 0)
(-0.226917 0.314051 0)
(-0.106362 0.493351 0)
(-0.0361878 0.743696 0)
(0.0666254 -1.08783 0)
(0.00594778 -1.58463 0)
(-0.00752759 -1.58007 0)
(-0.0357996 -0.718013 0)
(-0.102843 -0.0401677 0)
(-0.198807 0.176002 0)
(-0.211079 0.182329 0)
(-0.483392 -0.165194 0)
(-0.338406 -0.0145698 0)
(-0.0103064 -0.213974 0)
(0.00309076 -1.2451 0)
(-0.00259544 -1.56434 0)
(-0.015533 -1.54831 0)
(-0.0552363 -0.247743 0)
(-0.140795 0.0569334 0)
(-0.142237 0.251987 0)
(-0.107467 0.170918 0)
(-0.115123 -0.0483722 0)
(-0.0430072 -0.053156 0)
(-0.024992 -0.26349 0)
(-0.0272811 -1.20905 0)
(0.00299188 -1.53759 0)
(-0.0134019 -1.52771 0)
(-0.0087391 -0.133376 0)
(-0.0998466 0.0836961 0)
(-0.126746 0.129526 0)
(-0.0786008 0.104353 0)
(0.024248 -0.183917 0)
(0.0738916 -0.131947 0)
(0.0320801 -0.124229 0)
(-0.0310241 -1.21631 0)
(0.00260688 -1.51788 0)
(-0.0130318 -1.51509 0)
(0.088057 -0.481547 0)
(-0.0619165 0.296701 0)
(-0.0885797 0.125441 0)
(-0.0513682 0.0476668 0)
(0.00985162 -0.229926 0)
(0.00807395 -0.152576 0)
(-0.0662165 0.0409354 0)
(-0.00727457 -1.40451 0)
(0.00561579 -1.50188 0)
(-0.00926982 -1.4961 0)
(0.166543 -0.767854 0)
(0.109668 0.578131 0)
(0.0673696 0.223825 0)
(0.144169 -0.0830141 0)
(-0.135915 -0.133987 0)
(-0.176065 0.0204729 0)
(-0.109247 -0.0544367 0)
(0.000766943 -1.46627 0)
(0.00708734 -1.49254 0)
(-0.00589108 -1.49032 0)
(0.00768975 -1.4102 0)
(0.460679 0.656805 0)
(0.579487 0.376841 0)
(0.699023 -0.0712761 0)
(-0.134461 -0.00759715 0)
(-0.179051 -0.0720889 0)
(0.000135202 -0.45117 0)
(0.00299542 -1.47189 0)
(0.00801011 -1.48901 0)
(-0.00301407 -1.48628 0)
(0.00773295 -1.46608 0)
(0.0266716 -0.339968 0)
(0.379318 -0.242113 0)
(0.469958 -0.271311 0)
(0.00173924 0.0513078 0)
(-0.0557853 -0.0320953 0)
(0.0145396 -0.54207 0)
(0.00363525 -1.4699 0)
(0.00878123 -1.48582 0)
(-0.00172482 -1.48752 0)
(0.010523 -1.46753 0)
(0.022225 -0.635517 0)
(0.158646 -0.260059 0)
(0.184786 -0.148883 0)
(0.0174082 0.0630453 0)
(-0.0400615 0.0142579 0)
(-0.017776 -0.642899 0)
(-0.011119 -1.46586 0)
(0.00179092 -1.48607 0)
(-0.00820585 -1.48569 0)
(-0.00363384 -1.46458 0)
(-0.0121979 -0.787064 0)
(0.0594094 -0.330081 0)
(0.0658046 -0.224277 0)
(-0.0258072 0.0752796 0)
(-0.0618595 0.101901 0)
(0.016956 -0.773227 0)
(0.00511572 -1.4622 0)
(0.00918968 -1.48509 0)
(-0.00127778 -1.48477 0)
(0.0131224 -1.45946 0)
(0.00240953 -0.820651 0)
(0.030556 -0.350131 0)
(0.0132763 -0.2449 0)
(-0.159687 0.145472 0)
(-0.111204 -0.0195618 0)
(-0.0007619 -0.872161 0)
(-0.0132404 -1.45856 0)
(0.00107946 -1.48261 0)
(-0.0106007 -1.4847 0)
(-0.00652583 -1.45666 0)
(-0.0239855 -0.845891 0)
(-0.0011946 -0.350213 0)
(-0.0257284 -0.253386 0)
(-0.13086 0.0340834 0)
(-0.0242947 -0.29926 0)
(0.0105591 -0.881588 0)
(-0.00718112 -1.45525 0)
(0.00311549 -1.48264 0)
(-0.00897227 -1.47943 0)
(-0.00362147 -1.45236 0)
(-0.0255089 -0.840919 0)
(-0.0216492 -0.330393 0)
(-0.0541064 -0.23355 0)
(-0.00382237 -0.0907855 0)
(0.030716 -0.337076 0)
(0.0355921 -0.873175 0)
(0.000767816 -1.44861 0)
(0.00664096 -1.47499 0)
(-0.00814086 -1.47324 0)
(-0.00356842 -1.44292 0)
(-0.0278564 -0.78534 0)
(-0.0478033 -0.293556 0)
(-0.0700337 -0.198207 0)
(0.0646897 -0.150166 0)
(0.0656668 -0.339216 0)
(0.0594397 -0.794039 0)
(0.012639 -1.40714 0)
(0.00926148 -1.46017 0)
(-0.0079412 -1.46041 0)
(-0.00323319 -1.42689 0)
(-0.0500946 -0.715051 0)
(-0.0531132 -0.269164 0)
(-0.0722261 -0.17333 0)
(0.0698506 -0.192822 0)
(0.0719876 -0.345406 0)
(0.0715332 -0.741199 0)
(0.0141441 -1.3588 0)
(0.00897065 -1.43911 0)
(-0.00960476 -1.43945 0)
(-0.0194631 -1.37329 0)
(-0.0590804 -0.670422 0)
(-0.0598031 -0.261157 0)
(-0.075285 -0.160914 0)
(0.052644 -0.239207 0)
(0.0612434 -0.362725 0)
(0.0696027 -0.688774 0)
(0.0303047 -1.28983 0)
(0.0124152 -1.40649 0)
(-0.00730129 -1.40809 0)
(-0.019819 -1.33305 0)
(-0.0598006 -0.609355 0)
(-0.0642952 -0.244426 0)
(-0.08067 -0.149639 0)
(0.0253693 -0.30397 0)
(0.0386728 -0.397311 0)
(0.0428212 -0.665022 0)
(0.00923674 -1.24564 0)
(0.00659113 -1.36769 0)
(-0.0132316 -1.36633 0)
(-0.0339945 -1.28392 0)
(-0.0544277 -0.577703 0)
(-0.0556259 -0.206393 0)
(-0.0815507 -0.117063 0)
(0.0221089 -0.330081 0)
(0.0285354 -0.401092 0)
(0.020915 -0.630233 0)
(0.0184013 -1.23668 0)
(0.0108239 -1.33211 0)
(-0.00743675 -1.32768 0)
(-0.0121405 -1.27204 0)
(-0.0313722 -0.565877 0)
(-0.0264059 -0.189515 0)
(-0.0458845 -0.0832057 0)
(0.0245839 -0.332205 0)
(0.0177915 -0.3891 0)
(0.00132076 -0.609626 0)
(0.0087261 -1.27345 0)
(0.00891506 -1.29787 0)
(-0.0087042 -1.29449 0)
(-0.00955237 -1.27636 0)
(-0.0219259 -0.521296 0)
(-0.031581 -0.151021 0)
(-0.0558233 -0.047859 0)
(0.030173 -0.31194 0)
(0.00874647 -0.355303 0)
(-0.00097072 -0.598938 0)
(0.00249079 -1.29932 0)
(0.00805034 -1.27404 0)
(-0.00806964 -1.27054 0)
(-0.00637096 -1.29875 0)
(-0.0139464 -0.509029 0)
(-0.0158806 -0.132556 0)
(-0.041203 -0.0157822 0)
(0.02919 -0.263288 0)
(0.00089753 -0.322709 0)
(0.0049455 -0.601917 0)
(0.00325574 -1.30219 0)
(0.00690942 -1.25836 0)
(-0.00661818 -1.25601 0)
(0.00314139 -1.29993 0)
(-0.00138383 -0.492135 0)
(0.00462177 -0.115204 0)
(-0.00594018 0.0432042 0)
(0.0277762 -0.202869 0)
(-0.00244581 -0.302518 0)
(0.0112676 -0.620724 0)
(-0.000520488 -1.28966 0)
(0.00749791 -1.25176 0)
(-0.00365281 -1.25117 0)
(0.00461881 -1.28839 0)
(3.40383e-05 -0.498656 0)
(0.0250222 -0.125001 0)
(0.0240974 0.103296 0)
(0.0336163 -0.161822 0)
(0.00424392 -0.252685 0)
(0.00436291 -0.629979 0)
(-0.00489306 -1.27359 0)
(0.00492122 -1.25033 0)
(-0.00438565 -1.25009 0)
(0.00402227 -1.27503 0)
(-0.0054461 -0.570797 0)
(0.0366192 -0.14097 0)
(0.0320728 0.121558 0)
(0.0414087 -0.134988 0)
(-0.000453865 -0.173309 0)
(0.00168833 -0.637334 0)
(-0.00271926 -1.25977 0)
(0.00457588 -1.25209 0)
(-0.0032187 -1.24987 0)
(0.00565104 -1.26097 0)
(-0.0061501 -0.664731 0)
(0.0684831 -0.140925 0)
(0.0561081 0.0827262 0)
(0.0438537 -0.114994 0)
(-0.0135363 -0.112661 0)
(0.0231022 -0.673089 0)
(0.00174285 -1.24939 0)
(0.00663909 -1.25168 0)
(-0.000505466 -1.25151 0)
(0.00855182 -1.24856 0)
(0.00166038 -0.782885 0)
(0.059616 -0.140683 0)
(0.0253261 -0.00407288 0)
(0.0247776 -0.0574856 0)
(-0.0342939 -0.0724107 0)
(0.0140384 -0.752034 0)
(-0.00476199 -1.23729 0)
(0.00211139 -1.25103 0)
(-0.00540752 -1.25226 0)
(-0.000744495 -1.23672 0)
(-0.0260194 -0.829485 0)
(0.0373717 -0.118964 0)
(-0.00825688 -0.020394 0)
(-0.0186979 0.047441 0)
(-0.0272431 -0.0881919 0)
(0.0268842 -0.766706 0)
(-0.00177463 -1.22361 0)
(0.0023286 -1.2492 0)
(-0.00656331 -1.24803 0)
(-0.00506227 -1.22401 0)
(-0.0324697 -0.843557 0)
(0.0157223 -0.156544 0)
(-0.0115379 -0.0264068 0)
(0.00136425 0.0808669 0)
(0.00449424 -0.145936 0)
(0.0328819 -0.761446 0)
(0.00905676 -1.20588 0)
(0.00645134 -1.23819 0)
(-0.00577409 -1.23763 0)
(-0.00713011 -1.20605 0)
(-0.0341757 -0.813199 0)
(-0.0251022 -0.165174 0)
(-0.0376273 0.00942526 0)
(0.0370805 0.0560556 0)
(0.0425051 -0.140229 0)
(0.0393628 -0.707271 0)
(0.0137627 -1.19138 0)
(0.00749351 -1.21774 0)
(-0.0083975 -1.21873 0)
(-0.0137742 -1.19381 0)
(-0.0338357 -0.789327 0)
(-0.0301601 -0.212837 0)
(-0.0134631 -0.0266528 0)
(0.0256761 -0.0179518 0)
(0.0479349 -0.166097 0)
(0.0344261 -0.650107 0)
(0.015263 -1.16936 0)
(0.00794758 -1.19052 0)
(-0.0106333 -1.19508 0)
(-0.0180109 -1.17543 0)
(-0.0340514 -0.714496 0)
(-0.0521421 -0.197564 0)
(-0.05531 -0.0205104 0)
(0.00819391 -0.0809222 0)
(0.0237847 -0.186312 0)
(0.00416128 -0.616984 0)
(-0.00565684 -1.15615 0)
(0.00165529 -1.16506 0)
(-0.0185057 -1.16579 0)
(-0.0355185 -1.16558 0)
(-0.0511995 -0.686256 0)
(-0.0580921 -0.192677 0)
(-0.0660355 -0.0313612 0)
(-0.0313619 -0.111346 0)
(0.00368784 -0.240777 0)
(0.0221448 -0.611111 0)
(0.0158364 -1.14765 0)
(0.00944381 -1.14059 0)
(-0.0105248 -1.1378 0)
(-0.0117324 -1.15764 0)
(-0.0250752 -0.669092 0)
(-0.0393849 -0.192416 0)
(-0.0516406 -0.0289566 0)
(-0.0138817 -0.18166 0)
(0.00782988 -0.280509 0)
(0.0172948 -0.616011 0)
(0.0102454 -1.13974 0)
(0.0090649 -1.1142 0)
(-0.0104508 -1.11445 0)
(-0.0128527 -1.14273 0)
(-0.0171693 -0.645662 0)
(-0.0220641 -0.212934 0)
(-0.0276675 0.0088925 0)
(0.00611922 -0.204652 0)
(0.00488911 -0.28621 0)
(0.0161505 -0.62552 0)
(0.0102225 -1.12321 0)
(0.0100417 -1.09269 0)
(-0.00865776 -1.09257 0)
(-0.00948652 -1.12297 0)
(-0.0195665 -0.593494 0)
(-0.0802769 -0.0853499 0)
(-0.096539 0.0157534 0)
(0.0135198 -0.208265 0)
(0.000217113 -0.280242 0)
(0.0162478 -0.656389 0)
(0.00773691 -1.10599 0)
(0.00851392 -1.07349 0)
(-0.00844851 -1.07403 0)
(-0.00869599 -1.10487 0)
(-0.0141376 -0.604113 0)
(-0.01869 -0.00687308 0)
(-0.0573157 -0.0103255 0)
(0.0313314 -0.182707 0)
(0.00241645 -0.257917 0)
(0.0175024 -0.687036 0)
(0.00697037 -1.08747 0)
(0.00822915 -1.05806 0)
(-0.00806794 -1.05789 0)
(-0.00651908 -1.08689 0)
(-0.015078 -0.71175 0)
(0.0635992 0.0184936 0)
(0.0501499 0.0392722 0)
(0.0399189 -0.141682 0)
(0.00970272 -0.232845 0)
(0.0197765 -0.700997 0)
(0.00614187 -1.06886 0)
(0.00731495 -1.0444 0)
(-0.00788507 -1.04389 0)
(-0.00727241 -1.06815 0)
(-0.0182903 -0.756708 0)
(0.0376261 -0.11394 0)
(0.0697407 0.0665304 0)
(0.0493456 -0.0896306 0)
(0.0218517 -0.193577 0)
(0.0209954 -0.700367 0)
(0.00726862 -1.05052 0)
(0.00824162 -1.03198 0)
(-0.00702573 -1.02963 0)
(-0.00641255 -1.04962 0)
(-0.0183242 -0.782031 0)
(-0.000155982 -0.160638 0)
(0.0223472 0.0647178 0)
(0.0653367 -0.0613576 0)
(0.0443356 -0.147438 0)
(0.0333656 -0.680485 0)
(0.0144386 -1.03228 0)
(0.0120624 -1.01809 0)
(-0.00307701 -1.01576 0)
(-0.000988909 -1.03152 0)
(-0.0124502 -0.782826 0)
(-0.0179761 -0.159191 0)
(-0.017482 0.049551 0)
(0.0661427 -0.0333177 0)
(0.0457515 -0.10095 0)
(0.0370008 -0.65993 0)
(0.0135944 -1.01433 0)
(0.01248 -1.00144 0)
(-0.00275267 -1.00065 0)
(-0.000611173 -1.01332 0)
(-0.0138571 -0.772846 0)
(-0.0180615 -0.168022 0)
(-0.0158921 0.0392456 0)
(0.0514821 -0.0224084 0)
(0.0383985 -0.0733307 0)
(0.0392685 -0.646856 0)
(0.0172962 -0.996747 0)
(0.0136616 -0.982237 0)
(-0.00262963 -0.983044 0)
(0.000669011 -0.995416 0)
(-0.0147025 -0.750656 0)
(-0.0232583 -0.160191 0)
(-0.0209603 0.0398912 0)
(0.0406184 0.00304774 0)
(0.0315041 -0.0595991 0)
(0.0337102 -0.635271 0)
(0.0157148 -0.978099 0)
(0.0113878 -0.961582 0)
(-0.00616392 -0.962855 0)
(-0.0069756 -0.976527 0)
(-0.0184777 -0.732875 0)
(-0.0235088 -0.171009 0)
(-0.0150284 0.0191055 0)
(0.0371812 0.02543 0)
(0.032613 -0.0472666 0)
(0.0250188 -0.614418 0)
(0.0124733 -0.960261 0)
(0.00961868 -0.939375 0)
(-0.00935009 -0.94009 0)
(-0.0134376 -0.95854 0)
(-0.0241572 -0.715052 0)
(-0.0296131 -0.174237 0)
(-0.0223637 0.00665896 0)
(0.037332 0.038464 0)
(0.03079 -0.0317509 0)
(0.0229312 -0.604156 0)
(0.0154644 -0.941721 0)
(0.00989696 -0.916298 0)
(-0.00999482 -0.915608 0)
(-0.0160242 -0.940257 0)
(-0.0242685 -0.6977 0)
(-0.0377447 -0.165393 0)
(-0.0343233 -0.000210844 0)
(0.0351638 0.0581046 0)
(0.0257303 -0.0101053 0)
(0.0233863 -0.604554 0)
(0.0149329 -0.922535 0)
(0.00973475 -0.891442 0)
(-0.00962231 -0.891185 0)
(-0.0142559 -0.920959 0)
(-0.024275 -0.693671 0)
(-0.0343812 -0.141263 0)
(-0.0411629 -0.0139112 0)
(0.0265011 0.0840656 0)
(0.0193251 0.00436011 0)
(0.0248405 -0.617494 0)
(0.0137741 -0.898526 0)
(0.00884046 -0.868465 0)
(-0.0096288 -0.868093 0)
(-0.0142957 -0.897664 0)
(-0.0263903 -0.694751 0)
(-0.0244092 -0.126151 0)
(-0.033608 -0.0182781 0)
(0.0171987 0.1129 0)
(0.0186909 0.00456783 0)
(0.0250924 -0.625561 0)
(0.0118366 -0.872456 0)
(0.00809798 -0.848355 0)
(-0.00795092 -0.847854 0)
(-0.0120913 -0.871607 0)
(-0.0258745 -0.695668 0)
(-0.0241533 -0.112396 0)
(-0.0267927 0.00615231 0)
(0.0213102 0.127337 0)
(0.0299145 -0.0025394 0)
(0.025509 -0.622774 0)
(0.0124225 -0.847465 0)
(0.00791644 -0.830429 0)
(-0.00701925 -0.830327 0)
(-0.0120896 -0.846586 0)
(-0.0258861 -0.689827 0)
(-0.0295 -0.11918 0)
(-0.0163884 0.00575962 0)
(0.030709 0.124004 0)
(0.0419166 -0.00855566 0)
(0.0257598 -0.601817 0)
(0.0128476 -0.82453 0)
(0.00716156 -0.812712 0)
(-0.00788018 -0.811969 0)
(-0.0131715 -0.822687 0)
(-0.0252978 -0.679125 0)
(-0.0309508 -0.137945 0)
(-0.0122222 -0.0196362 0)
(0.0394699 0.131127 0)
(0.0361825 -0.00712951 0)
(0.0245479 -0.577282 0)
(0.0145579 -0.803735 0)
(0.00784839 -0.792407 0)
(-0.0094783 -0.789555 0)
(-0.0165385 -0.800297 0)
(-0.0253341 -0.657401 0)
(-0.039718 -0.14078 0)
(-0.0279962 -0.0308519 0)
(0.0547377 0.117699 0)
(0.0631551 0.0263066 0)
(0.0276102 -0.534037 0)
(0.0161962 -0.784999 0)
(0.00968274 -0.768137 0)
(-0.00895155 -0.763627 0)
(-0.0182173 -0.779638 0)
(-0.0268334 -0.63879 0)
(-0.0431657 -0.135086 0)
(-0.0379559 -0.0329496 0)
(0.0539591 0.0778606 0)
(0.0447418 0.0673224 0)
(0.0249343 -0.526299 0)
(0.0200449 -0.763539 0)
(0.0122643 -0.740442 0)
(-0.00689608 -0.73601 0)
(-0.0171248 -0.756464 0)
(-0.0277609 -0.623409 0)
(-0.04025 -0.127328 0)
(-0.0346782 -0.0255823 0)
(-0.000228839 0.082457 0)
(0.00755907 0.103352 0)
(0.0311441 -0.547362 0)
(0.0212703 -0.738454 0)
(0.010654 -0.711442 0)
(-0.00562222 -0.70885 0)
(-0.0151427 -0.730857 0)
(-0.0272357 -0.611386 0)
(-0.0403064 -0.123933 0)
(-0.0293346 -0.0211449 0)
(-0.0250347 0.0959652 0)
(0.0160023 0.0218894 0)
(0.0340013 -0.550866 0)
(0.0196171 -0.710698 0)
(0.00570933 -0.686829 0)
(-0.00835263 -0.681238 0)
(-0.0191322 -0.703438 0)
(-0.0318781 -0.596523 0)
(-0.0459285 -0.126823 0)
(-0.0277802 -0.0262587 0)
(-0.00152486 0.0773822 0)
(0.0459552 -0.035541 0)
(0.0444584 -0.54225 0)
(0.0231963 -0.678693 0)
(0.00839693 -0.65976 0)
(-0.00511653 -0.653077 0)
(-0.0201453 -0.672976 0)
(-0.026017 -0.57187 0)
(-0.0488937 -0.12994 0)
(-0.0292089 -0.0404426 0)
(0.011441 0.0494821 0)
(0.0451686 -0.0645667 0)
(0.0375934 -0.523212 0)
(0.0183691 -0.641058 0)
(0.00405752 -0.626709 0)
(-0.00641898 -0.623713 0)
(-0.0222381 -0.637993 0)
(-0.0326865 -0.544083 0)
(-0.0476588 -0.146839 0)
(-0.0245436 -0.06124 0)
(0.0175767 0.0254114 0)
(0.00419346 -0.108147 0)
(0.0395048 -0.516148 0)
(0.0259962 -0.611261 0)
(0.0089922 -0.598897 0)
(-0.00131909 -0.600403 0)
(-0.0145755 -0.609356 0)
(-0.0370109 -0.521727 0)
(-0.0223168 -0.166629 0)
(-0.0218688 -0.0674421 0)
(0.0285928 0.0301445 0)
(-0.0219632 -0.140096 0)
(0.0535195 -0.54151 0)
(0.0264557 -0.586344 0)
(0.00858762 -0.575662 0)
(-0.00980581 -0.574381 0)
(-0.0242321 -0.579764 0)
(-0.0481067 -0.531545 0)
(0.00103649 -0.179207 0)
(-0.0221639 -0.0592792 0)
(0.0329784 0.0548301 0)
(0.0208887 -0.137884 0)
(0.0486683 -0.546591 0)
(0.0225275 -0.545436 0)
(0.00182724 -0.538112 0)
(-0.0118009 -0.537867 0)
(-0.0296407 -0.544623 0)
(-0.0493507 -0.537266 0)
(-0.035051 -0.201791 0)
(-0.0240214 -0.046973 0)
(0.0492793 0.0446612 0)
(0.061514 -0.175355 0)
(0.0585551 -0.50258 0)
(0.0324016 -0.506437 0)
(0.0115285 -0.503835 0)
(-0.00342271 -0.504361 0)
(-0.0190299 -0.505674 0)
(-0.0433368 -0.490237 0)
(-0.0510875 -0.23266 0)
(-0.0435474 -0.0409443 0)
(0.0590847 0.0401488 0)
(0.059536 -0.202915 0)
(0.0649309 -0.449648 0)
(0.0286711 -0.468544 0)
(0.013126 -0.472734 0)
(-0.00857494 -0.473655 0)
(-0.0305721 -0.468936 0)
(-0.0572445 -0.45297 0)
(-0.0584829 -0.236609 0)
(-0.0641746 -0.0463989 0)
(0.0369809 0.0092442 0)
(0.0657596 -0.212087 0)
(0.0582785 -0.405295 0)
(0.0286369 -0.420816 0)
(0.0111882 -0.42148 0)
(-0.0120015 -0.42575 0)
(-0.0372376 -0.422829 0)
(-0.0690693 -0.404033 0)
(-0.0742569 -0.218581 0)
(-0.0622373 -0.0751144 0)
(-0.00599743 -0.0256635 0)
(0.0721641 -0.278498 0)
(0.0679415 -0.36041 0)
(0.0302416 -0.382633 0)
(0.00630165 -0.390535 0)
(-0.0173463 -0.387392 0)
(-0.0335489 -0.381356 0)
(-0.0630764 -0.357184 0)
(-0.0720188 -0.26818 0)
(-0.00791474 -0.0942682 0)
(0.0878332 -0.091065 0)
(0.0740386 -0.28545 0)
(0.0642119 -0.314977 0)
(0.0422877 -0.327161 0)
(0.0241589 -0.328595 0)
(-0.00540021 -0.329285 0)
(-0.0304287 -0.326061 0)
(-0.0665597 -0.317002 0)
(-0.0734892 -0.281927 0)
(-0.0843013 -0.131648 0)
(0.0949453 -0.183347 0)
(0.0692807 -0.224078 0)
(0.0647882 -0.260855 0)
(0.0236085 -0.281323 0)
(0.00191157 -0.286507 0)
(-0.025511 -0.286889 0)
(-0.0438581 -0.280235 0)
(-0.0713506 -0.260363 0)
(-0.07662 -0.219094 0)
(-0.0994434 -0.201995 0)
(0.0582695 -0.12524 0)
(0.0503665 -0.196848 0)
(0.0445715 -0.231494 0)
(0.0289966 -0.24422 0)
(0.019038 -0.249402 0)
(-0.00294181 -0.249449 0)
(-0.0150696 -0.244562 0)
(-0.041801 -0.231797 0)
(-0.0506769 -0.189237 0)
(-0.0552345 -0.133704 0)
(0.75527 -4.60489e-05 0)
(0.772416 0.0209915 0)
(0.781833 0.0297554 0)
(0.792099 0.0372709 0)
(0.809916 0.0448793 0)
(0.816141 0.0537577 0)
(0.81528 0.0526988 0)
(0.820446 0.0506669 0)
(0.826868 0.0450127 0)
(0.835375 0.0324581 0)
(0.84843 0.0177147 0)
(0.859627 0.00148035 0)
(0.867827 -0.0107862 0)
(0.871234 -0.00904505 0)
(0.878121 0.00570878 0)
(0.881534 0.0316799 0)
(0.866328 0.0507392 0)
(0.821073 0.0795223 0)
(0.75135 0.123596 0)
(0.67916 0.139928 0)
(0.621412 0.0670527 0)
(0.56176 -0.0244909 0)
(0.528796 -0.0929662 0)
(0.50212 -0.111465 0)
(0.465324 -0.12772 0)
(0.456877 -0.182136 0)
(0.483691 -0.205824 0)
(0.526366 -0.187303 0)
(0.535844 -0.134512 0)
(0.525951 -0.0617192 0)
(0.49828 -0.0140612 0)
(0.465726 0.00164617 0)
(0.451457 0.0465685 0)
(0.378147 0.113013 0)
(0.268187 0.0941892 0)
(0.199804 0.0371554 0)
(0.171825 0.0201119 0)
(0.133775 0.0302565 0)
(0.0977065 0.0496737 0)
(0.0578292 0.0735571 0)
(0.419306 -0.077838 0)
(0.467314 -0.0694112 0)
(0.518775 -0.0753312 0)
(0.557155 -0.0768177 0)
(0.61611 -0.0631961 0)
(0.660262 -0.0604341 0)
(0.700827 -0.0628802 0)
(0.725338 -0.0702004 0)
(0.760285 -0.0627255 0)
(0.825746 -0.0596054 0)
(0.880117 -0.0440779 0)
(0.907382 -0.0370264 0)
(0.921805 -0.0304743 0)