/*--------------------------------*- C++ -*----------------------------------*\
  =========                 |
  \\      /  F ield         | OpenFOAM: The Open Source CFD Toolbox
   \\    /   O peration     | Website:  https://openfoam.org
    \\  /    A nd           | Version:  8
     \\/     M anipulation  |
\*---------------------------------------------------------------------------*/
FoamFile
{
    version     2.0;
    format      ascii;
    class       volScalarField;
    location    "0.85";
    object      k;
}
// * * * * * * * * * * * * * * * * * * * * * * * * * * * * * * * * * * * * * //

dimensions      [0 2 -2 0 0 0 0];

internalField   nonuniform List<scalar> 
9150
(
0.00184188
0.000955045
0.000521632
0.000393688
0.000335275
0.000335275
0.000393688
0.000521632
0.000955045
0.00184188
0.00179907
0.000759855
0.000445704
0.000341268
0.000285799
0.000285799
0.000341268
0.000445704
0.000759855
0.00179907
0.0017274
0.000664167
0.000413914
0.000318476
0.00026684
0.00026684
0.000318476
0.000413914
0.000664167
0.0017274
0.00164849
0.000614037
0.000401723
0.000309909
0.000260236
0.000260236
0.000309909
0.000401723
0.000614037
0.00164849
0.00156459
0.000592588
0.00039753
0.000307209
0.000258576
0.000258576
0.000307209
0.00039753
0.000592588
0.00156459
0.00290873
0.00279507
0.00233436
0.00234823
0.00229819
0.00229819
0.00234823
0.00233436
0.00279507
0.00290873
0.0023288
0.00157644
0.00155143
0.00172654
0.0016998
0.00169979
0.00172653
0.00155143
0.00157644
0.0023288
0.00206719
0.00129019
0.00103914
0.00113222
0.00109812
0.00109812
0.00113222
0.00103914
0.00129019
0.00206719
0.00188356
0.0011371
0.00074016
0.000727968
0.000679139
0.000679139
0.000727968
0.000740159
0.0011371
0.00188356
0.00180236
0.00104092
0.000584875
0.000497653
0.000443032
0.000443032
0.000497653
0.000584875
0.00104092
0.00180236
0.0175458
0.00806115
0.00383197
0.00279333
0.00256904
0.00256899
0.00279295
0.00383044
0.00805762
0.0175413
0.00506643
0.00406408
0.0030662
0.00267951
0.00256753
0.00256753
0.0026795
0.00306618
0.00406406
0.00506639
0.00450473
0.00368243
0.00304414
0.00268079
0.0025924
0.00259239
0.00268079
0.00304414
0.00368244
0.00450473
0.00400147
0.00341112
0.00302772
0.00267717
0.0026173
0.00261729
0.00267717
0.00302772
0.00341112
0.00400147
0.00342954
0.00336155
0.00290983
0.00262104
0.00259247
0.00259247
0.00262104
0.00290983
0.00336155
0.00342954
1.33141
1.34334
1.35134
1.35595
1.3577
1.35754
1.35559
1.35093
1.34297
1.3312
2.68739
2.7138
2.73325
2.74603
2.75238
2.75238
2.74606
2.73336
2.71408
2.68797
3.31112
3.3411
3.36334
3.37805
3.38539
3.3854
3.3781
3.36348
3.3414
3.31167
3.73955
3.76969
3.79209
3.80692
3.8143
3.81427
3.80685
3.79201
3.76964
3.7396
4.09573
4.1244
4.14571
4.15982
4.1668
4.1667
4.15951
4.14522
4.12374
4.09493
4.42347
4.44977
4.46937
4.48233
4.48871
4.4885
4.48172
4.46834
4.44833
4.42161
4.74165
4.76538
4.7831
4.79483
4.80054
4.80023
4.7939
4.78154
4.76317
4.73875
5.05821
5.0801
5.09637
5.10709
5.11226
5.11186
5.1059
5.09437
5.07728
5.05457
5.37748
5.39852
5.41398
5.42407
5.42887
5.4284
5.42266
5.41164
5.39525
5.3733
5.70341
5.72401
5.73898
5.74865
5.75318
5.75264
5.74704
5.73631
5.72031
5.69872
6.0391
6.05906
6.07346
6.08269
6.08695
6.08634
6.08087
6.07046
6.0549
6.03383
6.38658
6.40532
6.41878
6.42732
6.43119
6.4305
6.42526
6.41537
6.40059
6.38057
6.74695
6.76368
6.77562
6.7831
6.78639
6.7856
6.78074
6.77171
6.75825
6.74006
7.12042
7.13425
7.14403
7.15003
7.15252
7.15162
7.14732
7.13953
7.128
7.11244
7.5066
7.51657
7.52348
7.52755
7.52901
7.52797
7.52443
7.5183
7.50935
7.49738
7.90408
7.90939
7.91282
7.91453
7.91474
7.91355
7.91096
7.90688
7.90111
7.89349
8.31135
8.31117
8.31049
8.30944
8.30819
8.30684
8.30538
8.30373
8.30172
8.29924
8.72634
8.71991
8.71458
8.71041
8.70752
8.706
8.70583
8.70696
8.70924
8.71262
9.14656
9.13331
9.12289
9.11532
9.11066
9.10897
9.11025
9.11442
9.12141
9.1312
9.56936
9.54889
9.53308
9.52191
9.5154
9.51357
9.51642
9.52389
9.53592
9.55251
9.99223
9.96423
9.94281
9.92789
9.91948
9.91757
9.92215
9.93317
9.95056
9.97435
10.4129
10.377
10.3498
10.331
10.3206
10.3187
10.3252
10.3401
10.3633
10.3947
10.829
10.7849
10.7516
10.7287
10.7164
10.7146
10.7233
10.7424
10.7718
10.8117
11.2382
11.1855
11.1457
11.1187
11.1044
11.1028
11.1139
11.1376
11.1739
11.2228
11.6381
11.5762
11.5295
11.498
11.4815
11.4802
11.494
11.5228
11.5667
11.6255
12.0267
11.9544
11.9
11.8634
11.8447
11.8437
11.8605
11.895
11.9473
12.0172
12.4
12.316
12.2531
12.2111
12.1898
12.1892
12.2094
12.2502
12.3118
12.3943
12.7526
12.656
12.584
12.5362
12.5123
12.5122
12.5358
12.5833
12.6549
12.7509
13.0775
12.9684
12.8873
12.8338
12.8072
12.8075
12.8346
12.8888
12.9703
13.0799
13.3682
13.2471
13.1577
13.0989
13.07
13.0707
13.101
13.1612
13.252
13.3744
13.6172
13.4865
13.3905
13.3275
13.2968
13.2979
13.3307
13.3959
13.4943
13.6274
13.8197
13.6831
13.5831
13.5177
13.4859
13.4872
13.5216
13.5897
13.693
13.8331
13.9747
13.8364
13.7358
13.6702
13.6384
13.6396
13.6739
13.7422
13.8462
13.9886
14.0791
13.9481
13.8522
13.7896
13.7589
13.7596
13.7919
13.8563
13.9544
14.0882
14.1502
14.0309
13.9431
13.8854
13.8567
13.8568
13.8855
13.9434
14.0315
14.1515
14.2018
14.0993
14.0218
13.9701
13.9439
13.9431
13.9678
14.0178
14.0932
14.1934
14.2732
14.1762
14.1044
14.0568
14.0325
14.0312
14.0527
14.097
14.1642
14.2541
14.3435
14.259
14.1953
14.1526
14.1307
14.1294
14.1488
14.1888
14.2497
14.3317
14.4378
14.3625
14.3049
14.2661
14.2461
14.2449
14.2625
14.2988
14.3537
14.4262
14.5651
14.4949
14.4408
14.4042
14.3853
14.3842
14.4008
14.4351
14.4869
14.5551
14.7303
14.661
14.6075
14.5711
14.5522
14.551
14.5675
14.6015
14.6527
14.7196
14.9328
14.8611
14.8052
14.7671
14.7473
14.746
14.7632
14.7987
14.852
14.9212
15.1755
15.0945
15.0323
14.9901
14.9682
14.9667
14.9858
15.0251
15.0843
15.162
15.4465
15.3529
15.282
15.2343
15.2097
15.2082
15.2298
15.2744
15.342
15.432
15.7323
15.6262
15.5463
15.4926
15.4651
15.4635
15.488
15.5385
15.6152
15.7178
16.0247
15.9067
15.8176
15.7576
15.7268
15.7253
15.753
15.8098
15.8958
16.0106
16.3213
16.1896
16.0896
16.0221
15.9874
15.9859
16.0174
16.0817
16.1786
16.3072
16.6199
16.47
16.3553
16.2775
16.2375
16.2358
16.2725
16.347
16.4583
16.605
16.9174
16.7404
16.6041
16.5112
16.4636
16.4618
16.5059
16.5951
16.7277
16.9007
17.2066
16.9876
16.8187
16.7039
16.6451
16.6433
16.6983
16.8092
16.9738
17.1882
17.4657
17.184
16.9694
16.8249
16.7516
16.7499
16.8197
16.9603
17.1704
17.4464
17.6455
17.2806
17.0104
16.8319
16.7427
16.7415
16.8283
17.0038
17.2703
17.6301
17.6323
17.1978
16.8827
16.6776
16.5763
16.576
16.6765
16.8807
17.1945
17.627
17.3353
16.8752
16.5452
16.3318
16.2272
16.2279
16.3337
16.5485
16.8804
17.3432
16.7298
16.3076
16.0005
15.8004
15.7022
15.7035
15.8042
16.0071
16.3177
16.7444
15.9382
15.5735
15.3041
15.1271
15.0398
15.0412
15.1314
15.3116
15.5845
15.9534
15.0688
14.754
14.5198
14.3651
14.2887
14.2901
14.3693
14.5269
14.7642
15.0824
14.1781
13.9008
13.6943
13.5578
13.4903
13.4916
13.5615
13.7007
13.9097
14.1897
13.2905
13.0414
12.8564
12.7342
12.6739
12.675
12.7376
12.8621
13.0494
13.3007
12.4154
12.1898
12.0227
11.9124
11.8581
11.8592
11.9157
12.0281
12.1974
12.425
11.5584
11.3546
11.2038
11.1044
11.0555
11.0566
11.1076
11.2091
11.3622
11.5681
10.7261
10.5433
10.408
10.319
10.2752
10.2763
10.3222
10.4135
10.551
10.7361
9.92494
9.76281
9.64267
9.56354
9.5247
9.52582
9.56688
9.64827
9.77072
9.93522
9.16411
9.0208
8.91451
8.84448
8.81016
8.81127
8.84782
8.92011
9.02872
9.17441
8.44889
8.32227
8.22832
8.16643
8.13614
8.13723
8.16972
8.23383
8.33005
8.45898
7.78186
7.67004
7.587
7.53228
7.50554
7.5066
7.53548
7.59235
7.67758
7.79163
7.16464
7.06554
6.9919
6.94337
6.91968
6.92071
6.94646
6.99708
7.07286
7.17414
6.59694
6.50856
6.44287
6.39958
6.37849
6.37947
6.40254
6.44785
6.51564
6.60623
6.07682
5.99747
5.93849
5.89963
5.8807
5.88161
5.90237
5.94311
6.00407
6.08556
5.60148
5.52981
5.47652
5.4414
5.42427
5.42507
5.44379
5.48055
5.53553
5.60899
5.16782
5.10272
5.05427
5.0223
5.00668
5.00734
5.0243
5.05761
5.1074
5.17381
4.77284
4.71324
4.66882
4.63946
4.62509
4.62565
4.64114
4.67161
4.71714
4.77779
4.41351
4.35829
4.31708
4.28983
4.27646
4.27694
4.29127
4.31949
4.36169
4.41793
4.08632
4.03445
3.99575
3.97014
3.95755
3.95795
3.97135
3.99779
4.03737
4.09019
3.78732
3.73808
3.70138
3.67709
3.66512
3.66544
3.67806
3.70301
3.74041
3.79039
3.51234
3.46564
3.43073
3.40758
3.39613
3.39636
3.40829
3.43193
3.46732
3.51453
3.25954
3.21475
3.18122
3.15894
3.14788
3.14804
3.15942
3.18202
3.21588
3.261
3.02646
2.98293
2.95034
2.92866
2.91787
2.91796
2.92894
2.9508
2.98359
3.02733
2.81016
2.76753
2.7356
2.71434
2.70373
2.70377
2.71444
2.73577
2.76776
2.81046
2.60822
2.56625
2.5348
2.51384
2.50335
2.50334
2.5138
2.53472
2.56612
2.60801
2.4187
2.3772
2.34606
2.32529
2.31488
2.31484
2.32516
2.34583
2.37684
2.41818
2.24002
2.19879
2.16781
2.14712
2.13673
2.13668
2.14694
2.16751
2.19836
2.23943
2.0709
2.0297
1.99869
1.97795
1.96753
1.96747
1.97777
1.99838
2.02927
2.07037
1.91025
1.86878
1.83752
1.81659
1.80607
1.80601
1.81641
1.83722
1.86836
1.90974
1.75704
1.71499
1.68324
1.66196
1.65126
1.6512
1.66178
1.68294
1.71456
1.75651
1.6103
1.56736
1.53489
1.5131
1.50213
1.50207
1.51292
1.53459
1.56694
1.60976
1.46917
1.42504
1.3916
1.36912
1.3578
1.35774
1.36896
1.39133
1.42466
1.46868
1.33291
1.28729
1.25263
1.22928
1.2175
1.21746
1.22914
1.25241
1.28699
1.33254
1.20094
1.15351
1.11734
1.09293
1.08061
1.08058
1.09283
1.11719
1.1533
1.20071
1.07279
1.02322
0.985289
0.959615
0.946637
0.946613
0.959546
0.985184
1.02309
1.07266
0.948073
0.896111
0.856177
0.829053
0.815314
0.815297
0.829005
0.85611
0.896043
0.948029
0.826586
0.772097
0.729999
0.70128
0.686693
0.686678
0.701242
0.72995
0.772058
0.826583
0.7083
0.651396
0.607143
0.576773
0.561282
0.561266
0.576732
0.607092
0.651358
0.708301
0.593472
0.534694
0.488582
0.456648
0.440245
0.440226
0.456595
0.488512
0.534632
0.593446
0.4828
0.423366
0.376136
0.34292
0.325641
0.325615
0.342848
0.376038
0.423267
0.482728
0.37774
0.319786
0.272751
0.238771
0.220685
0.220652
0.238682
0.272626
0.319649
0.377615
0.281063
0.227543
0.182542
0.148691
0.130033
0.129998
0.148595
0.182407
0.227387
0.280901
0.197338
0.150857
0.109754
0.0779348
0.0599768
0.0599458
0.0778528
0.109638
0.150717
0.197179
0.131811
0.0918086
0.0558497
0.0305128
0.0176467
0.0176301
0.0304672
0.0557821
0.0917232
0.131704
0.0849773
0.0457423
0.0190218
0.00722761
0.00377898
0.00377662
0.00721758
0.0190025
0.0457176
0.0849491
1.31373
1.29044
1.26124
1.2259
1.18458
1.13779
1.08648
1.03221
0.980136
0.932093
0.886311
0.842422
0.800516
0.760754
0.723219
0.687881
0.654609
0.623203
0.593433
0.56506
0.537865
0.51165
0.486244
0.461505
0.437307
0.413544
0.390119
0.366943
0.343926
0.320975
0.29799
0.274849
0.2514
0.227357
0.201599
0.175397
0.146766
0.115193
0.0836359
0.0372589
2.65262
2.60627
2.55067
2.48613
2.41348
2.33407
2.24968
2.16217
2.07294
1.98394
1.89667
1.81209
1.73079
1.65306
1.57897
1.50839
1.44109
1.37677
1.31512
1.2558
1.19853
1.14303
1.08906
1.0364
0.98484
0.934207
0.884324
0.835019
0.78612
0.737441
0.68878
0.639897
0.590504
0.540235
0.488612
0.435266
0.378469
0.315823
0.237122
0.102975
3.27175
3.21953
3.1572
3.08514
3.00422
2.91587
2.82197
2.72454
2.62536
2.52575
2.42686
2.32955
2.23442
2.14188
2.05218
1.96543
1.88162
1.80068
1.72246
1.64677
1.5734
1.50216
1.43281
1.36515
1.29897
1.23406
1.17023
1.10727
1.04497
0.98312
0.921472
0.859751
0.797626
0.734673
0.670299
0.60358
0.532634
0.453106
0.350401
0.159556
3.69931
3.64654
3.5834
3.51001
3.42692
3.33516
3.23633
3.13271
3.02648
2.91913
2.81194
2.70585
2.60146
2.49918
2.39926
2.3019
2.20721
2.11522
2.02587
1.93909
1.85473
1.77265
1.69266
1.61458
1.53821
1.46336
1.38982
1.31739
1.24585
1.17496
1.10446
1.03404
0.963323
0.891783
0.818643
0.742582
0.661016
0.567983
0.44508
0.205913
4.05634
4.00569
3.94478
3.87317
3.79061
3.69718
3.59378
3.48363
3.36963
3.2539
3.1381
3.02332
2.91027
2.79932
2.69067
2.58447
2.48085
2.37989
2.2816
2.18593
2.09279
2.00206
1.91358
1.82718
1.74269
1.6599
1.57862
1.49863
1.41971
1.3416
1.26402
1.18659
1.10887
1.0302
0.949587
0.865307
0.774074
0.668445
0.526087
0.245347
4.38592
4.33911
4.28258
4.21541
4.13636
4.04389
3.93536
3.81466
3.6899
3.56349
3.43748
3.31301
3.19061
3.07053
2.95308
2.83835
2.72638
2.6172
2.51084
2.40726
2.30639
2.20809
2.11222
2.01861
1.92707
1.83742
1.74944
1.6629
1.57756
1.49313
1.40929
1.32562
1.24156
1.15632
1.06867
0.976542
0.876021
0.758399
0.597925
0.279156
4.70631
4.66395
4.61332
4.55453
4.48606
4.38956
4.2637
4.13229
3.99891
3.8618
3.72387
3.5884
3.45603
3.32632
3.19959
3.07589
2.95538
2.83808
2.72391
2.61282
2.50468
2.39935
2.29666
2.19642
2.09844
2.0025
1.90838
1.81583
1.72458
1.6343
1.54462
1.45506
1.36495
1.27336
1.17888
1.0791
0.969577
0.840492
0.663066
0.309611
5.02434
4.98494
4.93856
4.88573
4.81294
4.70455
4.57272
4.432
4.28804
4.14233
3.9967
3.85256
3.71083
3.57263
3.43683
3.30363
3.17416
3.0485
2.92651
2.80802
2.69282
2.58071
2.47148
2.36492
2.26081
2.1589
2.05894
1.96067
1.86377
1.76788
1.67256
1.57727
1.48126
1.38347
1.28227
1.17501
1.05674
0.916651
0.723207
0.337487
5.34371
5.30477
5.25846
5.20342
5.12407
5.0103
4.87248
4.72139
4.56544
4.40915
4.25451
4.1023
3.9532
3.80774
3.66493
3.52421
3.38581
3.25176
3.12198
2.99615
2.87398
2.7552
2.63957
2.52684
2.41674
2.30901
2.20337
2.09952
1.9971
1.89571
1.79487
1.69395
1.59212
1.4882
1.3804
1.26581
1.13902
0.988325
0.779602
0.363393
5.66944
5.63067
5.58374
5.52425
5.44087
5.3223
5.17466
5.0113
4.84218
4.67326
4.50738
4.34556
4.18799
4.03441
3.88431
3.7372
3.59164
3.4497
3.31235
3.1793
3.05023
2.92485
2.80288
2.68402
2.568
2.45451
2.34325
2.23387
2.12599
2.01917
1.91285
1.80635
1.69877
1.58879
1.4745
1.3527
1.21761
1.05663
0.8332
0.387812
6.00532
5.96774
5.92223
5.86122
5.77123
5.64275
5.48268
5.30536
5.12171
4.93883
4.76043
4.58793
4.42129
4.2597
4.10195
3.94672
3.79332
3.64386
3.49914
3.35897
3.22305
3.09108
2.96275
2.83778
2.71583
2.5966
2.47972
2.36484
2.25152
2.13927
2.02751
1.91547
1.80218
1.68621
1.5655
1.43663
1.29341
1.12241
0.884737
0.411141
6.35351
6.31789
6.27428
6.21339
6.11555
5.97252
5.7967
5.60351
5.40431
5.20693
5.01569
4.83221
4.65616
4.48609
4.3199
4.15492
3.99281
3.8357
3.6836
3.53628
3.39347
3.25487
3.12017
2.98903
2.86114
2.73612
2.61362
2.49322
2.37446
2.2568
2.13961
2.02206
1.90309
1.7812
1.65415
1.51833
1.36713
1.18634
0.934775
0.433691
6.7155
6.6831
6.64262
6.5806
6.46975
6.30912
6.11571
5.90524
5.68991
5.478
5.27421
5.07999
4.89434
4.71469
4.53794
4.36252
4.19166
4.02646
3.86669
3.71206
3.56225
3.41693
3.27577
3.13842
3.00452
2.87369
2.74553
2.61959
2.49538
2.37231
2.2497
2.12667
2.00207
1.8743
1.741
1.59831
1.43928
1.24889
0.983734
0.455701
7.09145
7.06355
7.02707
6.96166
6.83397
6.65333
6.44016
6.21106
5.97906
5.75292
5.53705
5.33233
5.1368
4.94632
4.75574
4.56959
4.38995
4.21649
4.04888
3.88677
3.72982
3.57768
3.42997
3.28634
3.14638
3.0097
2.87585
2.74435
2.61468
2.4862
2.35818
2.22969
2.0995
1.96591
1.82642
1.67697
1.51023
1.3104
1.03191
0.477344
7.48132
7.46003
7.42768
7.35219
7.20601
7.00415
6.76965
6.5209
6.27213
6.03205
5.8045
5.58913
5.38193
5.17516
4.97225
4.77665
4.58805
4.4061
4.23044
4.06068
3.89644
3.73735
3.58301
3.43302
3.28695
3.14436
3.00479
2.86773
2.73259
2.59871
2.46531
2.33138
2.19564
2.05629
1.91069
1.75456
1.58022
1.37111
1.07949
0.498725
7.88334
7.86967
7.84154
7.75398
7.58581
7.35996
7.10223
6.83344
6.56834
6.31522
6.07634
5.84869
5.62472
5.40335
5.18972
4.98412
4.78617
4.59542
4.41145
4.23385
4.06218
3.89603
3.73496
3.57854
3.42631
3.27779
3.13248
2.98983
2.84923
2.70997
2.5712
2.43188
2.29064
2.14559
1.99395
1.83124
1.64941
1.43114
1.12657
0.520077
8.29605
8.2915
8.26754
8.16347
7.97008
7.71825
7.43668
7.14831
6.86785
6.60234
6.35148
6.1089
5.86731
5.63281
5.40784
5.1918
4.98413
4.7843
4.59182
4.40619
4.22696
4.05364
3.88576
3.72285
3.56441
3.40993
3.25887
3.11065
2.9646
2.81998
2.67589
2.53122
2.38454
2.23386
2.07627
1.90709
1.7179
1.49063
1.17329
0.541443
8.71737
8.72331
8.70309
8.57929
8.35831
8.07872
7.77306
7.46556
7.17054
6.89301
6.62879
6.3655
6.10818
5.86172
5.62552
5.39896
5.18143
4.97237
4.77122
4.57745
4.39054
4.20997
4.03523
3.86579
3.70113
3.54069
3.38388
3.2301
3.07863
2.92868
2.77931
2.62936
2.47731
2.32108
2.15763
1.98208
1.78565
1.54953
1.21965
0.562638
9.1446
9.16197
9.14455
8.99814
8.74752
8.43897
8.10931
7.78379
7.4753
7.18459
6.89971
6.6183
6.34826
6.08976
5.84222
5.60502
5.37752
5.15912
4.94922
4.74724
4.5526
4.36475
4.18311
4.00714
3.83625
3.66986
3.50734
3.34802
3.19118
3.03596
2.88137
2.7262
2.56885
2.40716
2.23795
2.05614
1.85261
1.6078
1.26557
0.583626
9.57506
9.60437
9.58841
9.41728
9.13587
8.79802
8.44531
8.10311
7.78132
7.47457
7.16852
6.87125
6.58752
6.3165
6.05736
5.80936
5.5718
5.344
5.1253
4.91508
4.7127
4.51756
4.32905
4.14656
3.96949
3.79718
3.62899
3.46421
3.30205
3.14162
2.98189
2.82157
2.65902
2.49196
2.3171
2.12915
1.91865
1.66533
1.31097
0.60438
10.0065
10.048
10.0317
9.83447
9.52131
9.1549
8.78058
8.42322
8.08775
7.75825
7.43243
7.12113
6.82413
6.54067
6.26992
6.01111
5.76348
5.52628
5.29881
5.08038
4.87031
4.66794
4.47261
4.28367
4.10048
3.92234
3.74856
3.57838
3.41098
3.24544
3.08066
2.91529
2.74763
2.57531
2.39492
2.20097
1.98365
1.72199
1.35576
0.62486
10.437
10.4911
10.4729
10.2494
9.90437
9.50993
9.11492
8.74209
8.38882
8.03636
7.6938
7.36775
7.05723
6.76126
6.47892
6.20935
5.9517
5.70519
5.46904
5.24249
5.02483
4.81533
4.61329
4.41802
4.22881
4.04495
3.86568
3.69022
3.5177
3.34715
3.17742
3.00713
2.83447
2.65702
2.47122
2.27141
2.04745
1.77765
1.3998
0.64501
10.8651
10.9322
10.9104
10.6616
10.2844
9.86225
9.44787
9.05976
8.68188
8.30705
7.94938
7.6091
7.28529
6.97697
6.68318
6.40299
6.1355
5.87984
5.63517
5.40069
5.1756
4.95914
4.75056
4.54911
4.35404
4.1646
3.97999
3.79939
3.62188
3.44646
3.27192
3.09682
2.91931
2.73686
2.54581
2.34029
2.10986
1.83213
1.44296
0.664761
11.2883
11.369
11.3451
11.0717
10.6609
10.2108
9.77724
9.37027
8.96601
8.57241
8.1988
7.84405
7.50698
7.18646
6.88144
6.59088
6.31381
6.04926
5.79635
5.55418
5.32191
5.09873
4.88383
4.67641
4.47568
4.28085
4.09109
3.90552
3.72319
3.54305
3.36386
3.18411
3.0019
2.81461
2.61845
2.40741
2.17069
1.88527
1.48508
0.684051
11.7038
11.7984
11.7761
11.4785
11.0303
10.5529
10.1019
9.66911
9.23868
8.82834
8.43935
8.07049
7.7205
7.38816
7.07229
6.77176
6.48549
6.21245
5.95164
5.70214
5.46303
5.23343
5.0125
4.79938
4.59325
4.39327
4.19857
4.00823
3.82128
3.63661
3.45294
3.26872
3.08197
2.89001
2.68894
2.47255
2.22975
1.93689
1.52602
0.702805
12.1102
12.2235
12.2073
11.8782
11.3889
10.8856
10.4165
9.95307
9.5006
9.07306
8.66882
8.28627
7.92391
7.58033
7.2542
6.94427
6.64935
6.36833
6.10013
5.84375
5.59821
5.36259
5.13598
4.9175
4.70627
4.50142
4.30203
4.10718
3.91582
3.72683
3.53889
3.35039
3.15929
2.96285
2.75704
2.5355
2.28686
1.98681
1.56563
0.720951
12.5042
12.6394
12.6293
12.261
11.7286
11.2038
10.7091
10.2153
9.74543
9.30225
8.88395
8.48876
8.11499
7.76108
7.42555
7.10702
6.8042
6.51587
6.2409
5.97821
5.72676
5.48558
5.25372
5.03026
4.81428
4.60488
4.40111
4.202
4.0065
3.81343
3.62142
3.42885
3.23362
3.03289
2.82255
2.59608
2.34182
2.03486
1.60377
0.738425
12.8794
13.039
13.033
12.6177
12.0437
11.5018
10.9732
10.456
9.96992
9.51258
9.08176
8.6754
8.2916
7.92861
7.58481
7.25871
6.94891
6.65412
6.37313
6.10479
5.84804
5.60185
5.36523
5.13722
4.9169
4.7033
4.49548
4.29241
4.09303
3.89613
3.70031
3.50389
3.30473
3.09993
2.88528
2.65411
2.39447
2.0809
1.64031
0.755166
13.2268
13.4099
13.4002
12.9294
12.322
11.7607
11.2005
10.6684
10.1692
9.70032
9.25926
8.84376
8.45173
8.08126
7.73062
7.39821
7.08254
6.78227
6.49612
6.22292
5.96154
5.71094
5.4701
5.23804
5.01379
4.79639
4.58485
4.37815
4.17519
3.97472
3.77534
3.57531
3.37246
3.16381
2.94507
2.70942
2.44467
2.1248
1.67515
0.771123
13.5392
13.745
13.7218
13.1876
12.5619
11.9744
11.3924
10.8486
10.3397
9.86245
9.41401
8.99188
8.59382
8.2178
7.86198
7.5247
7.20443
6.89977
6.60943
6.33219
6.06693
5.81256
5.56807
5.33245
5.10473
4.88393
4.66905
4.45904
4.25279
4.04904
3.84635
3.64296
3.43664
3.22438
3.00178
2.7619
2.4923
2.16645
1.70819
0.786253
13.8074
14.032
13.9758
13.3682
12.7428
12.1288
11.5406
10.9916
10.4781
9.99663
9.54433
9.11856
8.71699
8.33756
7.97839
7.63781
7.31428
7.00639
6.71285
6.43245
6.16405
5.90658
5.65901
5.42035
5.18961
4.96581
4.74795
4.53497
4.32573
4.11897
3.91323
3.70672
3.49718
3.28153
3.05532
2.81145
2.53727
2.20577
1.73938
0.800522
14.0237
14.2592
14.1478
13.4827
12.8556
12.2292
11.6435
11.096
10.5834
10.1024
9.65
9.22374
8.82131
8.44068
8.08003
7.73772
7.41227
7.10229
6.80652
6.5238
6.25299
5.99305
5.74297
5.50176
5.26844
5.04203
4.82153
4.60589
4.39396
4.18447
3.97593
3.76655
3.55401
3.33521
3.1056
2.858
2.57952
2.2427
1.76866
0.813909
14.185
14.4281
14.2258
13.5425
12.9089
12.2839
11.7045
11.164
10.6574
10.1812
9.73243
9.30873
8.90795
8.5282
8.1678
7.82522
7.49906
7.18803
6.89093
6.60664
6.33409
6.07226
5.82017
5.57685
5.34134
5.11268
4.88988
4.67187
4.45753
4.24555
4.03445
3.82242
3.60711
3.38538
3.15262
2.90152
2.61901
2.2772
1.796
0.826394
14.2707
14.4729
14.1062
13.4903
12.8673
12.2774
11.7215
11.1976
10.7034
10.2365
9.7948
9.3763
8.97927
8.60211
8.24337
7.90169
7.57582
7.26458
6.96687
6.68164
6.40789
6.14465
5.89097
5.64592
5.40857
5.17797
4.95314
4.73303
4.51651
4.30228
4.08884
3.87437
3.65651
3.43206
3.19636
2.942
2.65573
2.30927
1.82138
0.837969
14.3143
14.445
14.0061
13.3997
12.8072
12.2463
11.7145
11.2098
10.7305
10.2752
9.84241
9.43067
9.03869
8.66521
8.30903
7.96903
7.64411
7.33324
7.03542
6.7497
6.47514
6.21084
5.95589
5.7094
5.47048
5.23818
5.01155
4.78955
4.57106
4.35477
4.1392
3.92248
3.70225
3.47528
3.23685
2.97946
2.6897
2.3389
1.8448
0.848625
14.3208
14.3064
13.8531
13.2838
12.7336
12.2048
11.6978
11.2125
10.7485
10.3051
9.88152
9.47688
9.09028
8.7208
8.3675
8.02946
7.70576
7.39551
7.09783
6.81185
6.5367
6.27154
6.01552
5.76779
5.52747
5.29365
5.0654
4.84168
4.62137
4.4032
4.18564
3.96685
3.74443
3.51512
3.27416
3.01395
2.72093
2.3661
1.86623
0.858333
14.3636
14.2306
13.7272
13.1964
12.6775
12.1739
11.6871
11.2181
10.767
10.3339
9.91839
9.52002
9.13821
8.7723
8.42158
8.0853
7.7627
7.45301
7.15544
6.86919
6.5935
6.32754
6.07052
5.82163
5.58
5.34477
5.115
4.88968
4.66768
4.44774
4.22834
4.00761
3.78315
3.55166
3.30834
3.04553
2.74949
2.39091
1.88561
0.86702
14.427
14.1944
13.6716
13.1573
12.6555
12.1673
11.6939
11.236
10.794
10.3682
9.95849
9.56462
9.18622
8.82283
8.47386
8.13872
7.81674
7.50724
7.20951
6.92282
6.64643
6.37959
6.12153
5.87146
5.62854
5.39193
5.16069
4.93383
4.71023
4.48861
4.26745
4.0449
3.81851
3.58499
3.33949
3.07427
2.77549
2.4135
1.90319
0.874815
14.4662
14.1563
13.6603
13.1616
12.6708
12.1912
11.7247
11.2724
10.8351
10.4129
10.006
9.61427
9.23739
8.87498
8.52656
8.19159
7.86946
7.55955
7.26118
6.97368
6.69633
6.4284
6.16915
5.91779
5.67353
5.4355
5.20279
4.97441
4.74924
4.526
4.30316
4.07886
3.85065
3.61521
3.36765
3.10023
2.799
2.43421
1.92028
0.883206
14.5651
14.2157
13.7203
13.2219
12.731
12.2511
11.7842
11.3316
10.8938
10.4712
10.0638
9.67147
9.29388
8.93065
8.58131
8.24532
7.92208
7.61098
7.31137
7.02256
6.74385
6.47454
6.21386
5.96106
5.71533
5.47581
5.2416
5.01168
4.78495
4.56012
4.33565
4.10966
3.8797
3.64241
3.39288
3.12332
2.8197
2.45209
1.93435
0.889615
14.7313
14.371
13.8549
13.3413
12.8383
12.3488
11.8741
11.415
10.9718
10.5446
10.1333
9.73754
9.35691
8.99095
8.63911
8.3008
7.9754
7.66225
7.36068
7.07
6.78949
6.51843
6.25606
6.0016
5.75425
5.51313
5.27734
5.04586
4.81756
4.59116
4.3651
4.13747
3.90582
3.66676
3.41535
3.1437
2.83771
2.46721
1.94553
0.894052
14.9606
14.6096
14.055
13.5132
12.9884
12.4812
11.9922
11.5213
11.0683
10.6328
10.2144
9.81261
9.42675
9.05621
8.70032
8.35841
8.02977
7.71369
7.40944
7.1163
6.83351
6.56032
6.29595
6.03961
5.79046
5.54763
5.31018
5.0771
4.84723
4.61926
4.39165
4.16246
3.9292
3.68846
3.43526
3.16165
2.8534
2.48014
1.95469
0.897636
15.2351
14.8982
14.2993
13.7234
13.171
12.6413
12.1336
11.6469
11.1807
10.7339
10.3059
9.89581
9.50278
9.12601
8.76468
8.41798
8.08511
7.76526
7.45765
7.16147
6.87594
6.60026
6.33361
6.07516
5.82406
5.57939
5.34022
5.10549
4.87404
4.64455
4.41544
4.18475
3.94999
3.7077
3.45287
3.17751
2.8673
2.49171
1.96317
0.900997
15.535
15.208
14.5669
13.9564
13.375
12.8206
12.2918
11.7871
11.3053
10.8452
10.4056
9.98545
9.58371
9.19935
8.83139
8.47889
8.14092
7.81658
7.50499
7.20529
6.91661
6.63811
6.36892
6.10817
5.85497
5.60839
5.36744
5.13105
4.89804
4.66706
4.43651
4.20443
3.96827
3.72459
3.46832
3.19144
2.87958
2.50212
1.9712
0.904345
15.8437
15.5198
14.8425
14.2002
13.5906
13.0114
12.4608
11.9369
11.4382
10.9633
10.5108
10.0794
9.66776
9.27476
8.89925
8.54013
8.19637
7.86695
7.5509
7.24726
6.95512
6.67354
6.40163
6.13844
5.88305
5.6345
5.39175
5.15371
4.91918
4.68678
4.45488
4.22151
3.9841
3.73917
3.48164
3.20344
2.89015
2.51104
1.97802
0.907149
16.1526
15.8244
15.1182
14.4476
13.8115
13.2081
12.6355
12.0919
11.5757
11.0851
10.6188
10.1752
9.75284
9.35044
8.9667
8.60038
8.25032
7.9154
7.59454
7.2867
6.99087
6.70607
6.43131
6.16562
5.90801
5.65748
5.41296
5.17333
4.93735
4.70362
4.47049
4.23596
3.99744
3.75143
3.49282
3.2135
2.89898
2.51835
1.98306
0.908823
16.4665
16.1315
15.396
14.6974
14.0351
13.4074
12.8125
12.2487
11.7142
11.2074
10.7266
10.2702
9.8366
9.42431
9.0319
8.65802
8.30137
7.96072
7.63488
7.32271
7.02312
6.73505
6.45744
6.18926
5.92948
5.67704
5.43084
5.18972
4.9524
4.71746
4.48324
4.24769
4.00823
3.76133
3.50185
3.22166
2.90623
2.52458
1.98798
0.910786
16.7859
16.4427
15.6766
14.9492
14.2598
13.6069
12.9889
12.4041
11.8507
11.3271
10.8313
10.3617
9.91646
9.49402
9.09278
8.71122
8.34792
8.00151
7.6707
7.35425
7.05098
6.75972
6.47938
6.20884
5.94702
5.69281
5.44508
5.20261
4.96412
4.72814
4.49299
4.25661
4.01639
3.76879
3.50866
3.22785
2.9118
2.52954
1.99218
0.912554
17.1107
16.7563
15.96
15.2024
14.4841
13.8042
13.1615
12.5546
11.9815
11.4404
10.9293
10.4463
9.98945
9.55691
9.14695
8.75788
8.38812
8.03619
7.70065
7.38016
7.07345
6.77927
6.49643
6.22378
5.96015
5.7044
5.45535
5.21176
4.9723
4.73549
4.49961
4.2626
4.02182
3.77372
3.51315
3.23193
2.91552
2.53287
1.99502
0.913704
17.4455
17.0842
16.2519
15.4581
14.706
13.9956
13.326
12.6954
12.1017
11.5429
11.0165
10.5203
10.0521
9.60994
9.19174
8.79568
8.41999
8.06303
7.72326
7.39921
7.0895
6.79281
6.50788
6.23347
5.96838
5.71142
5.46135
5.21692
4.97675
4.73935
4.50299
4.26557
4.02445
3.77607
3.51526
3.23385
2.91727
2.53448
1.99642
0.914187
17.7847
17.4512
16.5583
15.7136
14.919
14.1734
13.4743
12.8191
12.2048
11.6285
11.0875
10.579
10.1005
9.64971
9.22426
8.82214
8.44142
8.08028
7.73705
7.41016
7.09811
6.79952
6.51303
6.23737
5.97128
5.71352
5.46281
5.21788
4.97733
4.73963
4.50304
4.26546
4.02424
3.7758
3.51497
3.23359
2.91709
2.53443
1.99651
0.914104
18.1005
17.8042
16.8492
15.9445
15.1035
14.3215
13.5935
12.9149
12.2816
11.6899
11.1362
10.6174
10.1304
9.67259
9.24149
8.83477
8.45034
8.08622
7.74062
7.41186
7.09836
6.79864
6.51131
6.23503
5.96849
5.71043
5.45954
5.21452
4.97394
4.73628
4.49976
4.2623
4.02122
3.77295
3.51234
3.23122
2.91503
2.53279
1.99551
0.913614
18.2172
18.0197
17.0505
16.1074
15.2283
14.4172
13.6665
12.9698
12.322
11.7188
11.156
10.6299
10.1373
9.67509
9.24056
8.83125
8.44487
8.07935
7.73277
7.40336
7.08949
6.78961
6.50228
6.22612
5.95981
5.70203
5.45148
5.20682
4.96662
4.72935
4.49324
4.25617
4.0155
3.76764
3.50746
3.2268
2.91114
2.52952
1.99304
0.912421
17.9916
18.0344
17.0431
16.1345
15.2605
14.4397
13.6784
12.9721
12.3169
11.7081
11.1412
10.6122
10.1176
9.65426
9.21915
8.80971
8.42357
8.05853
7.71263
7.38404
7.07106
6.77213
6.48577
6.21058
5.94522
5.68837
5.43872
5.19491
4.95554
4.71904
4.48366
4.24729
4.00728
3.76007
3.50052
3.22051
2.90556
2.52477
1.98942
0.91073
17.3295
17.5477
16.773
15.8997
15.1052
14.3424
13.6113
12.9144
12.2603
11.6528
11.0878
10.561
10.0689
9.60812
9.17573
8.76903
8.38559
8.02321
7.67985
7.35369
7.04301
6.74623
6.46189
6.18858
5.92496
5.66973
5.42156
5.17913
4.94103
4.70569
4.47138
4.236
3.9969
3.75054
3.49181
3.21262
2.89851
2.51871
1.9847
0.90851
16.4474
16.7089
16.1996
15.459
14.7349
14.0586
13.4095
12.7765
12.1485
11.5504
10.9937
10.4747
9.98983
9.53583
9.10975
8.7089
8.33087
7.97346
7.63466
7.31264
7.00573
6.71238
6.43114
6.16063
5.89956
5.64662
5.40055
5.16001
4.92361
4.68983
4.45692
4.2228
3.98486
3.73955
3.48181
3.20356
2.89042
2.51169
1.97915
0.905893
15.5035
15.7652
15.4506
14.8799
14.2503
13.6425
13.0671
12.5142
11.9645
11.4006
10.8588
10.3533
9.88065
9.43777
9.02174
8.63
8.26018
7.91015
7.57796
7.26184
6.96018
6.6715
6.39441
6.12761
5.86984
5.61987
5.37646
5.13831
4.90405
4.67219
4.441
4.20842
3.97184
3.72777
3.47114
3.19394
2.88183
2.50424
1.97321
0.903072
14.5581
14.8088
14.6263
14.2095
13.6938
13.1591
12.64
12.145
11.6675
11.1857
10.6835
10.198
9.74299
9.31562
8.91343
8.53405
8.17525
7.83501
7.51147
7.20295
6.90791
6.62503
6.35305
6.09075
5.83698
5.59058
5.35035
5.11505
4.88334
4.65374
4.42456
4.19376
3.95876
3.71607
3.46067
3.18458
2.87354
2.49708
1.96756
0.900371
13.6295
13.8641
13.773
13.4825
13.0809
12.631
12.171
11.7211
11.2889
10.8704
10.4486
10.0105
9.58047
9.17234
8.78751
8.42368
8.07867
7.75056
7.43764
7.13831
6.85116
6.57506
6.30891
6.05171
5.80247
5.56012
5.32353
5.09148
4.86268
4.63567
4.40878
4.17998
3.94673
3.70555
3.45145
3.1765
2.8665
2.49117
1.96323
0.898351
12.7196
12.9336
12.9057
12.7147
12.4168
12.0565
11.6657
11.2664
10.8721
10.4901
10.1201
9.75346
9.3804
9.00772
8.64695
8.30245
7.97402
7.66038
7.35997
7.07116
6.79293
6.52427
6.26424
6.0124
5.76802
5.53009
5.29751
5.0691
4.84355
4.61942
4.39506
4.16847
3.93712
3.69757
3.44481
3.17093
2.86179
2.48723
1.96025
0.898853
11.83
12.0201
12.0329
11.9157
11.7057
11.4303
11.1137
10.7747
10.4271
10.0807
9.74155
9.41139
9.08852
8.77049
8.45563
8.14706
7.8472
7.55633
7.27397
6.99977
6.73332
6.47373
6.22072
5.97443
5.73514
5.50201
5.27386
5.0495
4.82758
4.60667
4.38512
4.16095
3.93166
3.69381
3.44238
3.16939
2.86054
2.48556
1.95752
0.904432
10.9663
11.1314
11.1686
11.1041
10.9619
10.7589
10.5122
10.2362
9.94274
9.64138
9.33926
9.04117
8.74971
8.46563
8.18842
7.91729
7.65154
7.39074
7.13464
6.88315
6.63623
6.39379
6.15627
5.92353
5.69548
5.47157
5.25063
5.03195
4.81481
4.598