/*--------------------------------*- C++ -*----------------------------------*\
  =========                 |
  \\      /  F ield         | OpenFOAM: The Open Source CFD Toolbox
   \\    /   O peration     | Website:  https://openfoam.org
    \\  /    A nd           | Version:  8
     \\/     M anipulation  |
\*---------------------------------------------------------------------------*/
FoamFile
{
    version     2.0;
    format      ascii;
    class       volScalarField;
    location    "0.85";
    object      nut;
}
// * * * * * * * * * * * * * * * * * * * * * * * * * * * * * * * * * * * * * //

dimensions      [0 2 -1 0 0 0 0];

internalField   nonuniform List<scalar> 
9150
(
9.63708e-06
6.48219e-06
7.50993e-06
1.2079e-05
1.33349e-05
1.33349e-05
1.2079e-05
7.50993e-06
6.48219e-06
9.63708e-06
9.52442e-06
5.81418e-06
9.61317e-06
1.34459e-05
1.24805e-05
1.24805e-05
1.34459e-05
9.61317e-06
5.81418e-06
9.52442e-06
9.33278e-06
5.57435e-06
1.25408e-05
1.38837e-05
1.1988e-05
1.1988e-05
1.38837e-05
1.25408e-05
5.57435e-06
9.33278e-06
9.1171e-06
5.49074e-06
1.54404e-05
1.39045e-05
1.17456e-05
1.17456e-05
1.39045e-05
1.54404e-05
5.49074e-06
9.1171e-06
8.88205e-06
5.46608e-06
1.78841e-05
1.3818e-05
1.16278e-05
1.16278e-05
1.3818e-05
1.78841e-05
5.46608e-06
8.88205e-06
5.97389e-06
1.25188e-05
1.78459e-05
2.54634e-05
2.8514e-05
2.8514e-05
2.54634e-05
1.78458e-05
1.25188e-05
5.97389e-06
6.31241e-06
9.37988e-06
1.40975e-05
2.20552e-05
2.48926e-05
2.48926e-05
2.20552e-05
1.40975e-05
9.37987e-06
6.31241e-06
6.85892e-06
8.19321e-06
1.13386e-05
1.86382e-05
2.10773e-05
2.10773e-05
1.86382e-05
1.13386e-05
8.19321e-06
6.85892e-06
7.41771e-06
7.49773e-06
9.4472e-06
1.57892e-05
1.78241e-05
1.78241e-05
1.57892e-05
9.4472e-06
7.49773e-06
7.41771e-06
8.10785e-06
6.98795e-06
8.21271e-06
1.35293e-05
1.51637e-05
1.51637e-05
1.35293e-05
8.21271e-06
6.98795e-06
8.10785e-06
1.48689e-05
2.79772e-05
2.20263e-05
2.46198e-05
2.91817e-05
2.91807e-05
2.46151e-05
2.20139e-05
2.79619e-05
1.48671e-05
7.99145e-06
1.20155e-05
1.60739e-05
2.33838e-05
2.90503e-05
2.90502e-05
2.33836e-05
1.60737e-05
1.20153e-05
7.99142e-06
7.53548e-06
1.12061e-05
1.60457e-05
2.35738e-05
2.93251e-05
2.93251e-05
2.35737e-05
1.60456e-05
1.12061e-05
7.53548e-06
7.10207e-06
1.07788e-05
1.60622e-05
2.3731e-05
2.95969e-05
2.95968e-05
2.37309e-05
1.60621e-05
1.07788e-05
7.10207e-06
6.57494e-06
1.10713e-05
1.60974e-05
2.40047e-05
2.96624e-05
2.96623e-05
2.40046e-05
1.60974e-05
1.10712e-05
6.57494e-06
0.000257329
0.000258476
0.000259244
0.000259683
0.000259848
0.000259832
0.000259645
0.000259198
0.000258433
0.000257297
0.00251629
0.00253609
0.0025511
0.00256132
0.00256663
0.00256677
0.00256171
0.00255172
0.00253696
0.00251747
0.00505404
0.00509179
0.00511991
0.00513864
0.0051481
0.00514829
0.00513921
0.00512089
0.00509325
0.00505606
0.00720704
0.00725662
0.00729342
0.00731782
0.00733008
0.0073303
0.0073185
0.0072946
0.00725839
0.00720952
0.00897637
0.00903293
0.00907495
0.00910284
0.00911685
0.0091171
0.00910361
0.00907629
0.0090349
0.00897908
0.0104263
0.0104863
0.0105309
0.0105606
0.0105756
0.0105758
0.0105615
0.0105323
0.0104883
0.0104291
0.0116227
0.0116836
0.0117291
0.0117594
0.0117746
0.0117749
0.0117602
0.0117305
0.0116856
0.0116254
0.0126219
0.0126825
0.0127278
0.012758
0.0127732
0.0127735
0.0127588
0.0127292
0.0126844
0.0126245
0.0134696
0.0135295
0.0135743
0.0136042
0.0136192
0.0136195
0.013605
0.0135757
0.0135314
0.0134721
0.014202
0.0142612
0.0143055
0.0143351
0.01435
0.0143503
0.0143359
0.0143069
0.0142631
0.0142045
0.0148472
0.0149059
0.0149499
0.0149793
0.0149941
0.0149944
0.0149801
0.0149513
0.0149079
0.0148498
0.015427
0.0154853
0.0155291
0.0155584
0.0155731
0.0155734
0.0155593
0.0155306
0.0154874
0.0154296
0.0159576
0.0160157
0.0160594
0.0160886
0.0161033
0.0161037
0.0160895
0.0160609
0.0160179
0.0159603
0.0164512
0.0165091
0.0165527
0.0165819
0.0165967
0.016597
0.0165829
0.0165543
0.0165112
0.0164538
0.0169162
0.016974
0.0170177
0.017047
0.0170618
0.0170621
0.0170479
0.0170192
0.0169761
0.0169188
0.0173585
0.0174163
0.0174601
0.0174895
0.0175045
0.0175047
0.0174904
0.0174616
0.0174183
0.0173609
0.0177818
0.0178399
0.0178839
0.0179135
0.0179285
0.0179288
0.0179143
0.0178852
0.0178416
0.0177839
0.0181885
0.018247
0.0182913
0.0183212
0.0183364
0.0183366
0.0183219
0.0182923
0.0182483
0.0181901
0.0185798
0.0186388
0.0186837
0.0187139
0.0187292
0.0187293
0.0187143
0.0186843
0.0186395
0.0185806
0.018956
0.0190158
0.0190614
0.0190921
0.0191076
0.0191076
0.0190921
0.0190614
0.0190158
0.0189559
0.0193172
0.019378
0.0194244
0.0194557
0.0194715
0.0194713
0.0194554
0.0194238
0.0193771
0.0193159
0.0196631
0.0197252
0.0197726
0.0198047
0.0198207
0.0198204
0.0198039
0.0197713
0.0197233
0.0196606
0.0199935
0.020057
0.0201057
0.0201385
0.0201549
0.0201545
0.0201373
0.0201036
0.0200541
0.0199898
0.0203078
0.020373
0.0204231
0.0204569
0.0204737
0.0204732
0.0204552
0.0204203
0.0203692
0.0203029
0.0206057
0.0206727
0.0207243
0.0207592
0.0207765
0.0207758
0.0207571
0.0207209
0.020668
0.0205997
0.0208869
0.0209558
0.0210089
0.0210449
0.0210628
0.021062
0.0210425
0.0210048
0.0209501
0.0208799
0.0211509
0.0212215
0.0212761
0.0213132
0.0213316
0.0213306
0.0213104
0.0212715
0.0212151
0.021143
0.0213968
0.0214688
0.0215248
0.0215629
0.0215817
0.0215806
0.0215597
0.0215196
0.0214618
0.0213881
0.0216231
0.0216963
0.0217534
0.0217923
0.0218115
0.0218104
0.0217889
0.0217478
0.0216887
0.0216137
0.0218281
0.0219022
0.0219602
0.0219997
0.0220193
0.0220181
0.0219962
0.0219544
0.0218943
0.0218183
0.0220101
0.0220848
0.0221433
0.0221833
0.022203
0.0222018
0.0221797
0.0221375
0.0220768
0.0220002
0.0221674
0.0222424
0.0223011
0.0223411
0.0223609
0.0223598
0.0223377
0.0222954
0.0222347
0.0221579
0.0222987
0.0223735
0.0224319
0.0224718
0.0224916
0.0224905
0.0224687
0.0224268
0.0223665
0.02229
0.0224017
0.0224766
0.0225348
0.0225743
0.0225939
0.0225931
0.0225717
0.0225304
0.0224705
0.0223939
0.0224773
0.0225521
0.0226098
0.0226488
0.0226682
0.0226675
0.0226466
0.0226061
0.022547
0.0224707
0.0225262
0.022601
0.0226581
0.0226966
0.0227158
0.0227152
0.0226948
0.0226551
0.0225966
0.0225204
0.0225538
0.0226268
0.0226826
0.0227202
0.0227389
0.0227384
0.0227186
0.0226798
0.0226226
0.0225478
0.0225575
0.02263
0.022685
0.022722
0.0227404
0.02274
0.0227208
0.0226829
0.022627
0.0225537
0.022543
0.0226146
0.022669
0.0227055
0.0227238
0.0227235
0.0227046
0.0226675
0.0226124
0.0225401
0.0225132
0.0225845
0.0226386
0.0226751
0.0226934
0.0226932
0.0226745
0.0226377
0.0225831
0.0225114
0.0224729
0.0225444
0.0225988
0.0226355
0.022654
0.0226539
0.0226352
0.0225983
0.0225436
0.0224718
0.0224269
0.0224992
0.0225542
0.0225915
0.0226102
0.0226102
0.0225913
0.0225539
0.0224987
0.0224263
0.0223808
0.0224533
0.0225089
0.0225467
0.0225657
0.0225657
0.0225465
0.0225087
0.0224529
0.0223801
0.0223363
0.0224089
0.0224651
0.0225034
0.0225228
0.0225227
0.0225032
0.0224648
0.0224084
0.0223354
0.0222928
0.0223661
0.0224231
0.0224622
0.022482
0.022482
0.022462
0.0224228
0.0223655
0.0222918
0.0222492
0.0223239
0.0223825
0.0224227
0.0224432
0.0224432
0.0224225
0.0223821
0.0223232
0.0222481
0.0222047
0.0222816
0.0223422
0.0223841
0.0224055
0.0224055
0.0223838
0.0223417
0.0222808
0.0222035
0.0221586
0.0222379
0.022301
0.022345
0.0223676
0.0223675
0.0223447
0.0223003
0.0222368
0.022157
0.0221097
0.0221913
0.0222571
0.0223035
0.0223274
0.0223272
0.0223029
0.0222561
0.0221897
0.0221075
0.022057
0.0221396
0.0222076
0.022256
0.0222811
0.0222808
0.0222551
0.022206
0.0221373
0.0220539
0.0219981
0.0220786
0.022147
0.0221966
0.0222225
0.0222221
0.0221953
0.0221448
0.0220755
0.0219938
0.0219278
0.0220009
0.0220666
0.0221157
0.0221417
0.0221412
0.0221141
0.0220639
0.021997
0.0219226
0.0218297
0.021893
0.0219542
0.0220014
0.0220268
0.0220261
0.0219995
0.0219511
0.0218889
0.0218244
0.0216866
0.0217421
0.0217987
0.0218434
0.0218676
0.0218669
0.0218414
0.0217955
0.021738
0.0216818
0.0214895
0.0215426
0.0215958
0.0216378
0.0216605
0.0216598
0.0216357
0.0215926
0.0215385
0.021485
0.0212482
0.0212994
0.0213491
0.0213878
0.0214087
0.021408
0.0213858
0.021346
0.0212954
0.0212437
0.0209727
0.0210201
0.0210653
0.0211002
0.0211189
0.0211182
0.0210983
0.0210624
0.0210164
0.0209685
0.0206684
0.0207104
0.0207503
0.0207812
0.0207977
0.0207971
0.0207796
0.0207478
0.0207072
0.0206647
0.0203377
0.0203741
0.0204089
0.0204358
0.0204503
0.0204499
0.0204345
0.0204069
0.0203715
0.0203349
0.0199833
0.0200145
0.0200449
0.0200685
0.0200813
0.020081
0.0200676
0.0200434
0.0200127
0.0199814
0.0196088
0.019636
0.0196627
0.0196836
0.019695
0.0196948
0.019683
0.0196617
0.0196349
0.0196078
0.0192192
0.0192432
0.0192671
0.0192859
0.0192961
0.0192959
0.0192854
0.0192665
0.0192427
0.0192189
0.0188197
0.0188415
0.0188631
0.01888
0.0188892
0.0188891
0.0188797
0.0188627
0.0188412
0.0188198
0.0184159
0.0184357
0.0184553
0.0184706
0.0184789
0.0184788
0.0184704
0.018455
0.0184356
0.0184162
0.0180119
0.0180298
0.0180474
0.0180612
0.0180687
0.0180686
0.018061
0.0180472
0.0180297
0.0180122
0.0176101
0.0176261
0.0176419
0.0176542
0.0176609
0.0176609
0.017654
0.0176417
0.017626
0.0176103
0.017212
0.0172261
0.01724
0.017251
0.0172569
0.0172568
0.0172507
0.0172397
0.0172259
0.0172121
0.0168177
0.0168298
0.0168419
0.0168514
0.0168566
0.0168564
0.0168511
0.0168415
0.0168295
0.0168177
0.0164264
0.0164364
0.0164466
0.0164547
0.016459
0.0164589
0.0164542
0.0164459
0.0164357
0.016426
0.0160362
0.016044
0.0160523
0.016059
0.0160625
0.0160623
0.0160583
0.0160513
0.0160429
0.0160352
0.015645
0.0156505
0.0156568
0.015662
0.0156648
0.0156645
0.0156612
0.0156556
0.015649
0.0156434
0.0152502
0.0152531
0.0152573
0.015261
0.015263
0.0152627
0.0152602
0.015256
0.0152515
0.0152484
0.0148489
0.014849
0.014851
0.0148531
0.0148544
0.0148541
0.0148523
0.0148497
0.0148474
0.0148472
0.0144383
0.0144354
0.014435
0.0144355
0.0144359
0.0144356
0.0144347
0.0144337
0.0144338
0.0144366
0.0140157
0.0140095
0.0140067
0.0140056
0.0140051
0.0140049
0.0140047
0.0140054
0.0140079
0.0140138
0.0135784
0.0135693
0.013564
0.0135613
0.0135601
0.0135598
0.0135605
0.0135627
0.0135676
0.0135764
0.0131261
0.0131137
0.0131059
0.0131015
0.0130994
0.0130992
0.0131007
0.0131046
0.0131119
0.013124
0.0126583
0.0126422
0.0126318
0.0126255
0.0126225
0.0126223
0.0126247
0.0126304
0.0126404
0.0126562
0.0121747
0.0121546
0.0121412
0.012133
0.0121291
0.0121288
0.0121322
0.0121398
0.0121528
0.0121724
0.0116754
0.011651
0.0116345
0.0116243
0.0116193
0.011619
0.0116234
0.0116331
0.0116491
0.011673
0.0111609
0.011132
0.0111121
0.0110997
0.0110936
0.0110934
0.0110988
0.0111107
0.0111301
0.0111585
0.0106323
0.0105984
0.0105749
0.0105601
0.0105529
0.0105526
0.0105593
0.0105735
0.0105965
0.0106299
0.0100905
0.0100513
0.0100238
0.0100065
0.00999803
0.00999777
0.0100057
0.0100225
0.0100495
0.0100882
0.00953688
0.00949172
0.00945994
0.00943983
0.00943002
0.00942977
0.00943906
0.00945866
0.00948993
0.00953459
0.00897268
0.00892093
0.00888437
0.00886118
0.00884988
0.00884962
0.00886041
0.00888308
0.00891912
0.00897034
0.0083991
0.00833997
0.00829808
0.00827148
0.00825852
0.00825826
0.00827069
0.00829677
0.00833813
0.00839671
0.00781733
0.00774988
0.00770199
0.00767156
0.00765675
0.00765649
0.00767077
0.00770066
0.00774802
0.00781493
0.00722857
0.00715165
0.00709691
0.00706214
0.00704524
0.00704498
0.00706134
0.00709558
0.0071498
0.0072262
0.00663408
0.00654625
0.00648361
0.00644381
0.00642452
0.00642426
0.00644301
0.00648228
0.00654442
0.00663178
0.0060353
0.00593477
0.00586283
0.00581714
0.00579504
0.00579476
0.00581633
0.0058615
0.00593295
0.00603305
0.005434
0.00531858
0.00523554
0.00518273
0.00515722
0.00515694
0.0051819
0.00523419
0.00531677
0.0054318
0.00483266
0.00469971
0.00460317
0.0045415
0.00451173
0.00451144
0.00454065
0.0046018
0.00469789
0.00483049
0.00423499
0.00408149
0.00396821
0.0038951
0.00385967
0.00385937
0.00389422
0.00396681
0.00407965
0.00423283
0.00364667
0.00346946
0.00333509
0.00324649
0.00320306
0.00320275
0.00324558
0.00333365
0.00346759
0.00364451
0.00307652
0.00287284
0.00271156
0.00260099
0.00254543
0.0025451
0.00260005
0.00271009
0.00287096
0.00307435
0.00253805
0.00230608
0.00211038
0.00196777
0.00189293
0.0018926
0.00196682
0.00210891
0.00230423
0.00253591
0.00205152
0.00178852
0.00154946
0.00136226
0.00125815
0.00125782
0.00136134
0.00154809
0.0017868
0.00204952
0.00164275
0.00133308
0.00104351
0.000809842
0.000674152
0.000673863
0.000809069
0.00104241
0.00133171
0.00164111
0.00130483
0.00090117
0.000582396
0.000353688
0.000230205
0.000230023
0.000353215
0.000581743
0.000900392
0.00130391
0.000771566
0.000388338
0.000179209
7.83709e-05
4.69312e-05
4.68988e-05
7.82523e-05
0.000179022
0.000388169
0.000771535
0.000255601
0.000253323
0.000250434
0.000246893
0.000242684
0.000237827
0.000232383
0.000226482
0.000220667
0.00021516
0.000209775
0.000204477
0.000199284
0.000194225
0.000189324
0.00018459
0.00018002
0.000175599
0.000171306
0.000167115
0.000163001
0.000158939
0.000154905
0.000150876
0.000146833
0.000142755
0.000138622
0.000134411
0.000130099
0.000125656
0.000121048
0.000116229
0.000111139
0.000105667
9.94874e-05
9.27912e-05
8.48749e-05
7.51867e-05
6.40399e-05
2.40617e-05
0.00249164
0.00245791
0.00241761
0.00237088
0.00231823
0.00226059
0.00219904
0.00213378
0.00206158
0.001986
0.00191319
0.00184624
0.00178621
0.00173291
0.00168545
0.00164267
0.0016034
0.00156658
0.0015313
0.00149688
0.00146277
0.0014286
0.00139405
0.00135893
0.00132303
0.0012862
0.00124829
0.0012091
0.00116844
0.00112602
0.00108144
0.00103415
0.000983284
0.000927481
0.000864407
0.000789486
0.000691178
0.00055071
0.000327622
3.99921e-05
0.00500607
0.00494019
0.00486087
0.00476809
0.00466256
0.00454583
0.0044202
0.00428816
0.0041513
0.00401279
0.00387797
0.00375036
0.00363171
0.00352235
0.00342164
0.0033284
0.00324124
0.00315876
0.00307965
0.00300278
0.00292718
0.00285204
0.00277667
0.00270049
0.00262295
0.00254353
0.00246168
0.00237679
0.00228811
0.00219468
0.00209519
0.0019878
0.00186978
0.00173702
0.00158315
0.0013981
0.00116619
0.000864624
0.000465837
4.97928e-05
0.00714363
0.00705664
0.0069517
0.00682864
0.00668817
0.00653208
0.00636351
0.00618679
0.00600568
0.00582363
0.00564521
0.00547349
0.00531021
0.00515591
0.00501027
0.00487244
0.00474128
0.00461553
0.00449393
0.00437528
0.00425845
0.00414242
0.00402624
0.00390899
0.00378978
0.00366769
0.00354171
0.00341069
0.00327322
0.00312754
0.00297133
0.00280144
0.00261355
0.00240156
0.00215691
0.00186762
0.00151739
0.00108584
0.000558152
5.66084e-05
0.00890394
0.00880485
0.00868543
0.0085453
0.00838496
0.00820609
0.00801221
0.00780927
0.00760084
0.00739105
0.00718393
0.00698216
0.00678728
0.00659987
0.00641983
0.00624658
0.00607929
0.00591695
0.00575848
0.00560278
0.00544874
0.00529525
0.00514121
0.00498549
0.0048269
0.00466417
0.00449587
0.00432033
0.00413553
0.00393896
0.00372745
0.00349684
0.00324166
0.00295471
0.00262642
0.00224438
0.00179306
0.00125542
0.000626385
6.18007e-05
0.0103495
0.0102449
0.0101191
0.00997148
0.0098018
0.00961072
0.00940359
0.00918627
0.00896214
0.00873569
0.00851046
0.00828893
0.00807249
0.00786166
0.00765648
0.00745654
0.00726118
0.00706959
0.00688088
0.00669406
0.00650807
0.00632181
0.00613407
0.00594359
0.00574895
0.00554861
0.00534075
0.00512328
0.00489368
0.00464884
0.00438491
0.00409704
0.00377905
0.00342312
0.00301939
0.00255571
0.00201786
0.00139214
0.000681473
6.59345e-05
0.0115447
0.011439
0.0113124
0.0111646
0.0109949
0.0107987
0.0105808
0.0103544
0.010123
0.00988666
0.00964959
0.00941511
0.0091846
0.00895815
0.00873546
0.00851614
0.00829974
0.00808559
0.00787288
0.00766073
0.00744813
0.00723397
0.007017
0.00679583
0.0065689
0.0063344
0.00609027
0.00583404
0.0055628
0.005273
0.0049603
0.00461939
0.00424368
0.00382511
0.00335386
0.00281834
0.00220581
0.00150558
0.000727138
6.945e-05
0.0125443
0.0124396
0.0123147
0.0121692
0.0119976
0.0117973
0.0115769
0.0113456
0.0111083
0.0108674
0.0106257
0.0103847
0.0101456
0.00990955
0.00967533
0.00944247
0.0092107
0.00897948
0.00874808
0.00851565
0.00828121
0.00804364
0.00780166
0.00755377
0.00729828
0.0070332
0.00675623
0.00646466
0.00615524
0.00582412
0.00546663
0.00507717
0.00464895
0.00417387
0.00364235
0.00304353
0.0023661
0.00160201
0.000766167
7.25198e-05
0.0133928
0.0132892
0.0131655
0.0130208
0.0128491
0.0126494
0.0124291
0.0121959
0.0119553
0.0117115
0.0114666
0.0112221
0.0109787
0.0107368
0.0104954
0.0102538
0.010011
0.00976682
0.00952083
0.00927215
0.00901982
0.00876267
0.00849938
0.00822836
0.00794778
0.00765553
0.00734911
0.00702559
0.00668152
0.00631279
0.00591454
0.00548098
0.00500528
0.00447941
0.00389417
0.00323942
0.00250519
0.00168578
0.000800424
7.52615e-05
0.014126
0.0140235
0.0139011
0.0137568
0.0135867
0.0133891
0.0131694
0.0129355
0.0126937
0.0124482
0.0122014
0.0119547
0.0117083
0.0114621
0.0112156
0.0109678
0.010717
0.0104628
0.0102051
0.00994323
0.00967609
0.00940248
0.00912098
0.00882992
0.00852738
0.00821107
0.00787836
0.00752616
0.00715081
0.00674808
0.00631294
0.00583955
0.00532106
0.00474964
0.00411647
0.00341214
0.00262789
0.00175998
0.000831185
7.7758e-05
0.0147721
0.0146708
0.0145501
0.0144072
0.014238
0.0140411
0.0138217
0.0135876
0.0133452
0.0130988
0.0128511
0.012603
0.0123547
0.0121055
0.0118547
0.011601
0.0113432
0.0110809
0.0108137
0.0105408
0.0102613
0.00997364
0.00967649
0.00936804
0.00904622
0.00870864
0.00835253
0.00797464
0.0075712
0.00713784
0.00666945
0.00616016
0.0056032
0.00499093
0.00431492
0.00356644
0.00273779
0.00182688
0.000859346
8.00714e-05
0.0153526
0.0152524
0.0151333
0.0149921
0.0148231
0.014625
0.0144045
0.0141696
0.0139266
0.0136798
0.0134315
0.0131825
0.0129326
0.0126809
0.0124261
0.0121668
0.0119025
0.0116331
0.0113578
0.0110756
0.0107854
0.0104857
0.010175
0.00985135
0.00951258
0.00915618
0.00877923
0.00837838
0.00794974
0.00748884
0.00699054
0.00644894
0.00585738
0.00520842
0.004494
0.003706
0.00283763
0.00188816
0.00088554
8.22466e-05
0.0158838
0.0157847
0.015667
0.0155267
0.0153556
0.0151547
0.0149321
0.0146955
0.0144514
0.0142039
0.013955
0.0137052
0.0134536
0.0131989
0.0129398
0.0126751
0.0124051
0.0121294
0.011847
0.0115567
0.0112572
0.0109471
0.0106245
0.0102875
0.00993379
0.00956067
0.00916516
0.00874378
0.00829255
0.00780691
0.00728169
0.00671101
0.00608829
0.00540628
0.00465729
0.00383371
0.0029295
0.00194504
0.000910218
8.43163e-05
0.0163777
0.0162794
0.0161629
0.0160221
0.0158469
0.0156416
0.0154153
0.0151761
0.0149303
0.0146816
0.0144317
0.0141805
0.0139267
0.0136685
0.013404
0.0131343
0.0128594
0.0125781
0.0122894
0.011992
0.0116844
0.0113651
0.011032
0.0106832
0.0103162
0.00992822
0.00951613
0.00907637
0.00860485
0.00809696
0.00754749
0.00695057
0.00629971
0.00558785
0.00480758
0.00395173
0.0030149
0.00199841
0.000933684
8.63036e-05
0.016843
0.0167455
0.0166295
0.0164853
0.0163047
0.0160937
0.0158625
0.0156196
0.0153713
0.0151208
0.0148691
0.0146157
0.0143584
0.0140948
0.0138259
0.0135522
0.0132727
0.0129864
0.0126921
0.0123883
0.0120734
0.0117458
0.0114035
0.0110442
0.0106653
0.010264
0.00983709
0.00938082
0.00889106
0.00836311
0.00779173
0.00717107
0.00649472
0.00575575
0.00494699
0.00406167
0.00309491
0.0020488
0.000956103
8.82233e-05
0.0172852
0.0171882
0.0170718
0.0169228
0.0167348
0.0165166
0.0162793
0.016032
0.0157805
0.0155276
0.0152733
0.0150162
0.0147536
0.0144852
0.0142126
0.0139349
0.0136512
0.0133602
0.0130606
0.012751
0.0124296
0.0120946
0.0117439
0.0113752
0.0109857
0.0105725
0.0101322
0.00966107
0.00915484
0.00860875
0.00801753
0.00737531
0.00667574
0.005912
0.00507713
0.00416463
0.0031701
0.00209625
0.00097719
9.01011e-05
0.017708
0.0176111
0.0174936
0.0173377
0.0171408
0.0169142
0.0166702
0.016418
0.0161629
0.0159068
0.0156489
0.0153867
0.0151182
0.0148457
0.0145691
0.0142876
0.0139997
0.0137043
0.0133999
0.0130849
0.0127575
0.0124159
0.0120576
0.0116803
0.0112813
0.0108573
0.010405
0.00992038
0.00939922
0.00883668
0.0082274
0.00756554
0.00684474
0.00605828
0.00519935
0.00426169
0.00324125
0.00214133
0.000997287
9.19403e-05
0.0181138
0.0180168
0.0178971
0.0177328
0.0175257
0.0172899
0.0170387
0.0167811
0.0165219
0.0162619
0.015999
0.0157298
0.0154564
0.0151801
0.0148998
0.0146143
0.0143225
0.0140228
0.0137139
0.0133939
0.0130611
0.0127132
0.0123481
0.0119631
0.0115553
0.0111216
0.0106583
0.0101615
0.0096268
0.00904926
0.00842352
0.00774368
0.00700342
0.00619605
0.00531489
0.00435386
0.00330921
0.00218473
0.00101688
9.37286e-05
0.0185036
0.018406
0.0182833
0.0181093
0.0178911
0.0176455
0.0173867
0.0171236
0.0168598
0.0165946
0.0163244
0.0160493
0.015772
0.0154919
0.0152078
0.0149185
0.0146228
0.0143191
0.0140058
0.0136812
0.0133432
0.0129898
0.0126183
0.0122262
0.0118105
0.0113679
0.0108946
0.0103867
0.00983964
0.0092484
0.00860758
0.00791125
0.00715307
0.00632641
0.00542463
0.00444182
0.00337445
0.00222672
0.00103603
9.54662e-05
0.0188779
0.0187793
0.0186525
0.0184679
0.0182381
0.0179825
0.0177162
0.0174475
0.0171785
0.0169069
0.0166294
0.0163493
0.0160678
0.0157836
0.0154957
0.0152027
0.0149032
0.0145957
0.0142783
0.0139493
0.0136066
0.0132479
0.0128706
0.012472
0.0120491
0.0115983
0.0111159
0.0105978
0.0100394
0.00943558
0.00878091
0.00806939
0.00729467
0.00645012
0.00552916
0.00452597
0.0034372
0.00226737
0.0010547
9.71523e-05
0.0192365
0.0191366
0.0190049
0.0188092
0.0185676
0.0183022
0.0180286
0.0177541
0.0174791
0.0171993
0.0169154
0.016631
0.0163454
0.0160573
0.0157657
0.015469
0.0151659
0.0148546
0.0145334
0.0142003
0.0138532
0.0134896
0.0131069
0.0127023
0.0122727
0.0118144
0.0113236
0.0107962
0.0102273
0.00961194
0.00894449
0.00821893
0.00742889
0.00656771
0.00562884
0.00460653
0.00349756
0.0023067
0.00107289
9.87865e-05
0.0195796
0.0194779
0.0193406
0.0191338
0.0188804
0.0186053
0.0183243
0.0180436
0.0177614
0.0174738
0.0171847
0.0168959
0.0166063
0.0163145
0.0160192
0.0157191
0.0154125
0.0150977
0.0147728
0.0144359
0.0140845
0.0137164
0.0133288
0.0129186
0.0124827
0.0120175
0.011519
0.0109829
0.0104044
0.00977834
0.00909906
0.00836049
0.0075562
0.00667952
0.00572391
0.00468362
0.00355555
0.00234466
0.00109053
0.000100367
0.019907
0.0198032
0.0196596
0.0194418
0.0191768
0.018892
0.0186039
0.0183166
0.0180258
0.0177313
0.0174379
0.017145
0.0168515
0.0165562
0.0162575
0.0159541
0.0156442
0.0153261
0.0149979
0.0146573
0.0143021
0.0139297
0.0135374
0.013122
0.0126804
0.0122087
0.011703
0.0111589
0.0105714
0.00993544
0.00924517
0.0084945
0.00767693
0.00678577
0.00581445
0.00475726
0.00361112
0.00238117
0.00110757
0.00010189
0.0202182
0.0201121
0.0199624
0.0197338
0.0194568
0.0191626
0.0188673
0.0185726
0.0182733
0.0179735
0.0176758
0.0173791
0.0170821
0.0167834
0.0164817
0.0161752
0.0158623
0.0155411
0.0152096
0.0148656
0.0145068
0.0141304
0.0137337
0.0133135
0.0128665
0.0123888
0.0118764
0.0113247
0.0107289
0.0100837
0.00938319
0.00862123
0.00779126
0.00688656
0.00590052
0.00482742
0.00366421
0.00241617
0.00112397
0.000103355
0.0205128
0.020404
0.0202487
0.0200095
0.0197201
0.0194168
0.0191147
0.0188112
0.0185045
0.0182005
0.0178991
0.0175989
0.0172987
0.0169971
0.0166925
0.0163832
0.0160675
0.0157435
0.015409
0.0150618
0.0146995
0.0143194
0.0139185
0.0134938
0.0130417
0.0125583
0.0120396
0.0114809
0.0108774
0.0102235
0.00951338
0.00874087
0.00789932
0.00698194
0.00598209
0.00489404
0.00371474
0.00244957
0.00113967
0.000104757
0.0207908
0.0206801
0.0205202
0.0202688
0.0199666
0.0196549
0.0193458
0.0190332
0.018721
0.0184131
0.0181083
0.0178051
0.0175021
0.0171979
0.0168907
0.016579
0.0162607
0.015934
0.0155967
0.0152466
0.014881
0.0144973
0.0140925
0.0136635
0.0132065
0.0127178
0.0121931
0.0116279
0.011017
0.0103549
0.00963591
0.00885354
0.00800115
0.00707191
0.00605913
0.00495705
0.00376262
0.00248128
0.00115462
0.000106093
0.0210521
0.0209401
0.0207754
0.0205105
0.0201953
0.0198762
0.0195588
0.0192384
0.0189226
0.0186116
0.018304
0.0179983
0.017693
0.0173865
0.0170772
0.0167631
0.0164426
0.0161134
0.0157735
0.0154205
0.0150518
0.0146647
0.0142562
0.0138229
0.0133614
0.0128676
0.0123373
0.0117658
0.011148
0.0104783
0.00975091
0.0089593
0.00809678
0.00715646
0.00613159
0.00501638
0.00380778
0.00251125
0.00116878
0.000107362
0.0212959
0.0211831
0.0210131
0.0207333
0.0204059
0.0200806
0.0197539
0.0194285
0.0191099
0.0187965
0.0184868
0.0181792
0.017872
0.0175637
0.0172524
0.0169364
0.0166136
0.0162822
0.0159398
0.015584
0.0152123
0.0148219
0.0144098
0.0139725
0.0135065
0.0130079
0.0124722
0.0118948
0.0112705
0.0105937
0.00985843
0.00905819
0.00818621
0.00723555
0.00619943
0.00507198
0.00385015
0.00253943
0.00118212
0.000108561
0.0215205
0.021407
0.02123
0.0209338
0.0205966
0.0202651
0.0199312
0.0196037
0.0192834
0.0189684
0.0186573
0.0183483
0.0180397
0.0177299
0.017417
0.0170991
0.0167744
0.0164407
0.0160959
0.0157375
0.0153629
0.0149692
0.0145536
0.0141124
0.0136422
0.0131389
0.0125982
0.0120152
0.0113847
0.0107012
0.00995853
0.00915022
0.00826944
0.00730918
0.0062626
0.00512381
0.00388969
0.00256577
0.00119463
0.000109689
0.0217243
0.0216103
0.0214245
0.0211112
0.0207682
0.0204303
0.0200927
0.0197644
0.0194435
0.0191279
0.0188161
0.0185063
0.0181967
0.0178856
0.0175713
0.0172518
0.0169252
0.0165894
0.0162421
0.0158811
0.0155036
0.0151068
0.0146877
0.0142428
0.0137685
0.0132608
0.0127151
0.0121268
0.0114906
0.0108008
0.0100512
0.00923542
0.00834648
0.00737733
0.00632111
0.00517184
0.00392638
0.00259026
0.00120629
0.000110746
0.0219058
0.021791
0.0215929
0.0212613
0.0209181
0.0205753
0.0202387
0.0199112
0.0195908
0.0192756
0.0189637
0.0186535
0.0183433
0.0180312
0.0177155
0.0173944
0.017066
0.0167281
0.0163785
0.0160149
0.0156345
0.0152347
0.0148122
0.0143637
0.0138854
0.0133734
0.0128231
0.0122298
0.0115882
0.0108925
0.0101365
0.00931379
0.00841733
0.00744002
0.00637494
0.00521607
0.00396022
0.0026129
0.00121711
0.00011173
0.0220631
0.021947
0.0217329
0.0213873
0.0210453
0.0207024
0.0203693
0.0200444
0.0197258
0.0194117
0.0191004
0.0187902
0.0184795
0.0181665
0.0178496
0.017527
0.0171967
0.0168567
0.0165048
0.0161386
0.0157555
0.0153526
0.0149268
0.0144748
0.0139928
0.0134768
0.0129221
0.0123241
0.0116774
0.0109763
0.0102145
0.00938537
0.00848203
0.00749728
0.00642414
0.00525654
0.00399124
0.00263371
0.00122709
0.000112643
0.0221956
0.022079
0.0218446
0.0214946
0.0211539
0.0208146
0.0204859
0.0201647
0.0198487
0.0195364
0.019226
0.018916
0.018605
0.0182912
0.0179732
0.017649
0.0173169
0.0169749
0.0166207
0.016252
0.0158661
0.0154603
0.0150315
0.0145762
0.0140906
0.0135708
0.0130121
0.0124098
0.0117584
0.0110523
0.0102851
0.00945021
0.00854064
0.00754917
0.00646876
0.00529329
0.00401946
0.0026527
0.00123625
0.000113485
0.0222979
0.022172
0.021907
0.0215742
0.0212389
0.0209106
0.0205889
0.0202723
0.0199595
0.0196492
0.0193398
0.0190302
0.0187189
0.0184044
0.0180852
0.0177596
0.0174258
0.0170818
0.0167255
0.0163544
0.015966
0.0155575
0.0151258
0.0146674
0.0141786
0.0136553
0.0130929
0.0124866
0.0118311
0.0111204
0.0103484
0.00950836
0.00859322
0.00759576
0.00650888
0.0053264
0.00404496
0.00266991
0.00124459
0.000114258
0.0223736
0.0222339
0.0219565
0.0216327
0.0213095
0.0209914
0.0206771
0.0203658
0.0200565
0.0197484
0.0194404
0.0191313
0.0188199
0.0185048
0.0181847
0.0178578
0.0175225
0.0171767
0.0168184
0.0164452
0.0160546
0.0156437
0.0152094
0.0147482
0.0142565
0.0137301
0.0131645
0.0125547
0.0118954
0.0111808
0.0104045
0.00955991
0.00863988
0.00763715
0.00654459
0.00535595
0.0040678
0.0026854
0.00125213
0.000114963
0.0224209
0.0222567
0.0219813
0.0216724
0.0213637
0.0210558
0.020749
0.0204431
0.0201377
0.0198321
0.0195256
0.0192173
0.0189061
0.0185908
0.01827
0.0179422
0.0176057
0.0172585
0.0168987
0.0165238
0.0161313
0.0157183
0.0152818
0.0148184
0.0143242
0.0137952
0.0132267
0.012614
0.0119515
0.0112334
0.0104535
0.00960496
0.00868071
0.00767345
0.00657599
0.00538202
0.00408802
0.00269917
0.00125885
0.000115601
0.0224486
0.0222662
0.021989
0.0216966
0.0214004
0.0211022
0.0208026
0.0205021
0.0202006
0.0198979
0.0195934
0.0192863
0.0189758
0.0186608
0.0183398
0.0180116
0.0176744
0.0173264
0.0169655
0.0165893
0.0161954
0.015781
0.0153429
0.0148776
0.0143815
0.0138504
0.0132797
0.0126645
0.0119994
0.0112785
0.0104955
0.00964364
0.00871586
0.00770477
0.00660318
0.0054047
0.00410567
0.00271116
0.00126458
0.000116167
0.0224551
0.0222588
0.0219859
0.021705
0.0214189
0.0211289
0.020836
0.0205408
0.0202435
0.019944
0.019642
0.0193367
0.0190275
0.0187133
0.018393
0.018065
0.0177277
0.0173795
0.0170181
0.0166414
0.0162468
0.0158314
0.0153923
0.0149258
0.0144284
0.0138958
0.0133234
0.0127063
0.0120392
0.0113161
0.0105306
0.00967614
0.00874547
0.00773126
0.00662628
0.00542411
0.00412096
0.00272164
0.0012694
0.000116657
0.0224341
0.022229
0.0219686
0.0216973
0.0214191
0.0211359
0.0208489
0.0205586
0.0202656
0.0199696
0.0196705
0.0193676
0.0190604
0.0187478
0.0184287
0.0181016
0.0177651
0.0174173
0.0170563
0.0166797
0.016285
0.0158695
0.0154299
0.014963
0.0144649
0.0139314
0.013358
0.0127398
0.0120712
0.0113465
0.0105592
0.00970268
0.00876975
0.00775306
0.00664541
0.0054404
0.00413428
0.0027318
0.00127559
0.000117164
0.0224018
0.0221938
0.0219394
0.021674
0.0214014
0.0211235
0.0208415
0.0205558
0.0202669
0.0199747
0.0196789
0.019379
0.0190743
0.018764
0.0184468
0.0181215
0.0177865
0.0174399
0.0170799
0.0167042
0.0163102
0.0158952
0.0154561
0.0149893
0.0144912
0.0139576
0.0133838
0.012765
0.0120957
0.01137
0.0105816
0.00972361
0.00878899
0.00777038
0.00666057
0.0054532
0.00414456
0.00273935
0.00127988
0.000117645
0.0223631
0.0221555
0.021901
0.0216374
0.0213679
0.0210937
0.0208155
0.0205339
0.0202489
0.0199604
0.0196682
0.0193716
0.0190701
0.0187626
0.018448
0.0181251
0.0177922
0.0174477
0.0170895
0.0167153
0.0163228
0.015909
0.015471
0.0150051
0.0145077
0.0139747
0.0134013
0.0127826
0.0121132
0.0113872
0.0105982
0.00973938
0.00880366
0.00778366
0.00667216
0.00546278
0.00415185
0.00274408
0.00128208
0.000117909
0.0223219
0.022117
0.0218565
0.0215912
0.0213221
0.0210496
0.0207741
0.0204955
0.0202139
0.019929
0.0196403
0.0193472
0.019049
0.0187447
0.0184333
0.0181133
0.0177832
0.0174413
0.0170855
0.0167137
0.0163233
0.0159115
0.0154752
0.015011
0.014515
0.0139832
0.0134108
0.012793
0.0121241
0.0113985
0.0106095
0.00975053
0.00881431
0.00779349
0.0066808