/*--------------------------------*- C++ -*----------------------------------*\
  =========                 |
  \\      /  F ield         | OpenFOAM: The Open Source CFD Toolbox
   \\    /   O peration     | Website:  https://openfoam.org
    \\  /    A nd           | Version:  8
     \\/     M anipulation  |
\*---------------------------------------------------------------------------*/
FoamFile
{
    version     2.0;
    format      ascii;
    class       volVectorField;
    location    "0.85";
    object      U;
}
// * * * * * * * * * * * * * * * * * * * * * * * * * * * * * * * * * * * * * //

dimensions      [0 1 -1 0 0 0 0];

internalField   nonuniform List<vector> 
9150
(
(0.0535581 -0.428896 0)
(0.0879071 -0.622393 0)
(0.0734621 -0.631575 0)
(0.0487584 -0.643889 0)
(0.017098 -0.654674 0)
(-0.0170981 -0.654674 0)
(-0.0487585 -0.643889 0)
(-0.0734622 -0.631575 0)
(-0.0879071 -0.622393 0)
(-0.0535581 -0.428896 0)
(0.0404401 -0.522383 0)
(0.0572794 -0.625744 0)
(0.0423482 -0.613289 0)
(0.0294699 -0.622532 0)
(0.0105442 -0.629004 0)
(-0.0105443 -0.629004 0)
(-0.02947 -0.622532 0)
(-0.0423482 -0.613289 0)
(-0.0572794 -0.625744 0)
(-0.0404401 -0.522383 0)
(0.0250173 -0.557766 0)
(0.0324382 -0.613954 0)
(0.0232074 -0.604513 0)
(0.0173015 -0.61002 0)
(0.00627988 -0.613272 0)
(-0.00627991 -0.613272 0)
(-0.0173015 -0.61002 0)
(-0.0232074 -0.604513 0)
(-0.0324382 -0.613954 0)
(-0.0250173 -0.557766 0)
(0.0151928 -0.584589 0)
(0.0174157 -0.607566 0)
(0.0118535 -0.601154 0)
(0.00889584 -0.603285 0)
(0.00326215 -0.604433 0)
(-0.00326216 -0.604433 0)
(-0.00889585 -0.603285 0)
(-0.0118536 -0.601154 0)
(-0.0174157 -0.607566 0)
(-0.0151928 -0.584589 0)
(0.0062 -0.597121 0)
(0.00553481 -0.60144 0)
(0.00363764 -0.600045 0)
(0.00269094 -0.600349 0)
(0.00100052 -0.600493 0)
(-0.00100052 -0.600493 0)
(-0.00269094 -0.600349 0)
(-0.00363764 -0.600045 0)
(-0.00553481 -0.60144 0)
(-0.00620001 -0.597121 0)
(0.46774 -1.1595 1.78542e-24)
(0.282451 -1.08597 0)
(0.162699 -1.06937 0)
(0.0916465 -1.05807 0)
(0.0302343 -1.05379 0)
(-0.0302349 -1.05379 0)
(-0.0916469 -1.05807 0)
(-0.162699 -1.06937 0)
(-0.282451 -1.08597 0)
(-0.467739 -1.1595 -1.78541e-24)
(0.333569 -0.843469 4.99913e-25)
(0.287441 -0.936395 0)
(0.188404 -0.936872 0)
(0.107953 -0.937234 0)
(0.0356815 -0.939872 0)
(-0.0356817 -0.939872 0)
(-0.107953 -0.937234 0)
(-0.188404 -0.936872 0)
(-0.287441 -0.936395 0)
(-0.333569 -0.843469 -4.99911e-25)
(0.277833 -0.70124 7.49349e-26)
(0.259061 -0.804403 0)
(0.178461 -0.817501 0)
(0.104536 -0.828729 0)
(0.0348542 -0.837071 0)
(-0.0348543 -0.837071 0)
(-0.104537 -0.828729 0)
(-0.178461 -0.817501 0)
(-0.259061 -0.804402 0)
(-0.277833 -0.70124 -7.49339e-26)
(0.198406 -0.553368 3.34254e-25)
(0.216298 -0.709316 0)
(0.154668 -0.725946 0)
(0.091401 -0.742337 0)
(0.0305836 -0.754392 0)
(-0.0305836 -0.754392 0)
(-0.091401 -0.742337 0)
(-0.154668 -0.725946 0)
(-0.216298 -0.709316 0)
(-0.198406 -0.553368 -3.34255e-25)
(0.11743 -0.445466 -5.19983e-25)
(0.15571 -0.644374 -7.40073e-25)
(0.11703 -0.663908 -2.53392e-25)
(0.0710442 -0.681447 -1.66691e-25)
(0.0240247 -0.694536 -9.71729e-27)
(-0.0240248 -0.694536 -9.71746e-27)
(-0.0710443 -0.681447 -1.66691e-25)
(-0.11703 -0.663908 -2.53392e-25)
(-0.15571 -0.644374 -7.40074e-25)
(-0.11743 -0.445466 -5.19983e-25)
(0.0128944 -0.93892 0)
(-0.0420718 -1.32745 0)
(0.0203885 -1.26438 0)
(-0.00314226 -1.2237 0)
(0.00281311 -1.2222 0)
(-0.00282057 -1.2222 0)
(0.00313418 -1.2237 0)
(-0.0203978 -1.26438 0)
(0.0420687 -1.32745 0)
(-0.0129036 -0.938903 0)
(0.0499827 -0.913578 0)
(-0.0262636 -1.33064 0)
(0.0208718 -1.26747 0)
(0.000870002 -1.22396 0)
(0.000364996 -1.22176 0)
(-0.000368916 -1.22176 0)
(-0.000874786 -1.22396 0)
(-0.0208759 -1.26747 0)
(0.0262596 -1.33063 0)
(-0.0499833 -0.913569 0)
(0.078464 -0.950136 0)
(-0.0248891 -1.34535 0)
(0.0139129 -1.27417 0)
(0.00625838 -1.23149 0)
(-0.000154221 -1.22618 0)
(0.000151436 -1.22618 0)
(-0.00626125 -1.23149 0)
(-0.0139154 -1.27417 0)
(0.0248868 -1.34535 0)
(-0.078465 -0.950131 0)
(0.147266 -1.08113 0)
(0.00404984 -1.36538 0)
(0.0129705 -1.2706 0)
(0.0214725 -1.2261 0)
(0.00608765 -1.21486 0)
(-0.00608936 -1.21486 0)
(-0.0214741 -1.2261 0)
(-0.0129716 -1.2706 0)
(-0.00405124 -1.36538 0)
(-0.147267 -1.08112 0)
(0.300799 -1.21669 0)
(0.129803 -1.32126 0)
(0.0681388 -1.20995 0)
(0.055506 -1.16902 0)
(0.0199282 -1.15719 0)
(-0.0199292 -1.15719 0)
(-0.0555069 -1.16902 0)
(-0.0681396 -1.20995 0)
(-0.129804 -1.32126 0)
(-0.300799 -1.21669 0)
(-0.411528 -0.137397 0)
(-0.324274 -0.142285 0)
(-0.234723 -0.14626 0)
(-0.143783 -0.149247 0)
(-0.0522729 -0.151016 0)
(0.0392882 -0.151049 0)
(0.130726 -0.149306 0)
(0.221583 -0.146308 0)
(0.311071 -0.142332 0)
(0.398308 -0.137492 0)
(-0.321569 -0.249651 0)
(-0.254284 -0.258717 0)
(-0.184731 -0.265118 0)
(-0.113526 -0.269201 0)
(-0.0412111 -0.271184 0)
(0.0315504 -0.271165 0)
(0.103908 -0.269157 0)
(0.175174 -0.265092 0)
(0.244812 -0.258786 0)
(0.312231 -0.249931 0)
(-0.255523 -0.359475 0)
(-0.201721 -0.372681 0)
(-0.146224 -0.381949 0)
(-0.0895349 -0.387809 0)
(-0.0321239 -0.39063 0)
(0.025543 -0.390625 0)
(0.0829856 -0.387814 0)
(0.139737 -0.382028 0)
(0.195332 -0.372942 0)
(0.249278 -0.360072 0)
(-0.204144 -0.454961 0)
(-0.160741 -0.471547 0)
(-0.116172 -0.483245 0)
(-0.0708033 -0.49069 0)
(-0.0249581 -0.494311 0)
(0.0210547 -0.494337 0)
(0.0669316 -0.490788 0)
(0.112364 -0.483482 0)
(0.157029 -0.472037 0)
(0.200564 -0.455873 0)
(-0.160911 -0.531072 0)
(-0.126394 -0.549907 0)
(-0.0910697 -0.563216 0)
(-0.0551898 -0.571716 0)
(-0.0189774 -0.575877 0)
(0.0173569 -0.575938 0)
(0.0536047 -0.57192 0)
(0.0895547 -0.563628 0)
(0.124984 -0.55064 0)
(0.159637 -0.532298 0)
(-0.12617 -0.591127 0)
(-0.0987916 -0.611468 0)
(-0.0709296 -0.625879 0)
(-0.042692 -0.635126 0)
(-0.0142283 -0.63968 0)
(0.0143181 -0.639778 0)
(0.0428066 -0.63544 0)
(0.0710933 -0.626467 0)
(0.099024 -0.612433 0)
(0.126463 -0.592635 0)
(-0.102837 -0.639886 0)
(-0.0798291 -0.660738 0)
(-0.0569789 -0.675627 0)
(-0.0340184 -0.68526 0)
(-0.0109737 -0.690032 0)
(0.0120949 -0.690139 0)
(0.0351301 -0.685596 0)
(0.0580687 -0.676232 0)
(0.0808642 -0.661679 0)
(0.103698 -0.641273 0)
(-0.0918312 -0.68368 0)
(-0.0701204 -0.70355 0)
(-0.0495727 -0.717952 0)
(-0.0293404 -0.727378 0)
(-0.00921844 -0.732073 0)
(0.0108551 -0.732149 0)
(0.0309373 -0.727611 0)
(0.0510822 -0.718354 0)
(0.0714534 -0.704149 0)
(0.0927813 -0.684538 0)
(-0.0894929 -0.726902 0)
(-0.0673011 -0.744625 0)
(-0.0471066 -0.757646 0)
(-0.0276946 -0.766255 0)
(-0.00858026 -0.770557 0)
(0.0104303 -0.770581 0)
(0.0294966 -0.766324 0)
(0.0488012 -0.757747 0)
(0.0687724 -0.74474 0)
(0.0905441 -0.727002 0)
(-0.090454 -0.771206 0)
(-0.0676284 -0.786072 0)
(-0.0470706 -0.797214 0)
(-0.0276046 -0.804655 0)
(-0.00853736 -0.808376 0)
(0.0104056 -0.808343 0)
(0.0294188 -0.804548 0)
(0.0487639 -0.797009 0)
(0.0690891 -0.785729 0)
(0.0915825 -0.770633 0)
(-0.0916291 -0.81558 0)
(-0.068765 -0.82794 0)
(-0.0477894 -0.837322 0)
(-0.0280067 -0.843602 0)
(-0.00866326 -0.846722 0)
(0.0105573 -0.846632 0)
(0.0298532 -0.843325 0)
(0.0495261 -0.836842 0)
(0.070301 -0.827235 0)
(0.0929591 -0.814624 0)
(-0.0910913 -0.858908 0)
(-0.0690123 -0.869679 0)
(-0.0479282 -0.877711 0)
(-0.0280617 -0.883012 0)
(-0.00866073 -0.885608 0)
(0.0106323 -0.88548 0)
(0.030007 -0.882619 0)
(0.0497997 -0.877032 0)
(0.070745 -0.868676 0)
(0.0928551 -0.85752 0)
(-0.0884232 -0.901523 0)
(-0.0679185 -0.910736 0)
(-0.0471138 -0.917579 0)
(-0.0275521 -0.922057 0)
(-0.00848867 -0.924224 0)
(0.0104756 -0.924076 0)
(0.0295219 -0.921607 0)
(0.0490392 -0.916801 0)
(0.0697767 -0.909584 0)
(0.0903582 -0.899902 0)
(-0.0846874 -0.942732 0)
(-0.06593 -0.950421 0)
(-0.0457281 -0.956235 0)
(-0.0267017 -0.960054 0)
(-0.00819009 -0.961887 0)
(0.0102279 -0.961729 0)
(0.0287308 -0.959574 0)
(0.0477383 -0.955422 0)
(0.0679271 -0.949255 0)
(0.0867857 -0.941183 0)
(-0.0802057 -0.98175 0)
(-0.0633294 -0.988333 0)
(-0.0439515 -0.993388 0)
(-0.0256095 -0.99672 0)
(-0.0077816 -0.99831 0)
(0.0099566 -0.998149 0)
(0.0277853 -0.996237 0)
(0.0461312 -0.992582 0)
(0.0655308 -0.987201 0)
(0.0824881 -0.980295 0)
(-0.0752157 -1.01834 0)
(-0.0601771 -1.02422 0)
(-0.0418025 -1.02881 0)
(-0.0242864 -1.03181 0)
(-0.00727888 -1.03323 0)
(0.00963788 -1.03307 0)
(0.0266523 -1.03135 0)
(0.0441858 -1.02804 0)
(0.062594 -1.02318 0)
(0.0776578 -1.01704 0)
(-0.0700259 -1.05241 0)
(-0.05647 -1.05796 0)
(-0.039327 -1.06225 0)
(-0.0227601 -1.06503 0)
(-0.00670901 -1.06633 0)
(0.00923581 -1.06619 0)
(0.0252974 -1.06459 0)
(0.0418896 -1.06153 0)
(0.0590772 -1.05696 0)
(0.0725851 -1.05116 0)
(-0.0647366 -1.08439 0)
(-0.0524467 -1.08961 0)
(-0.0366659 -1.09358 0)
(-0.0211286 -1.09615 0)
(-0.00612739 -1.09736 0)
(0.00875052 -1.09722 0)
(0.0237653 -1.09575 0)
(0.0393359 -1.09291 0)
(0.0551344 -1.08868 0)
(0.0673775 -1.08322 0)
(-0.0593738 -1.11417 0)
(-0.0483497 -1.11902 0)
(-0.0339232 -1.12269 0)
(-0.0194698 -1.12507 0)
(-0.00555387 -1.12619 0)
(0.00822524 -1.12606 0)
(0.0221565 -1.1247 0)
(0.0366464 -1.12208 0)
(0.0510742 -1.11819 0)
(0.0620419 -1.11315 0)
(-0.0540331 -1.14153 0)
(-0.0441943 -1.1461 0)
(-0.0311373 -1.14952 0)
(-0.0178005 -1.15174 0)
(-0.00499229 -1.15278 0)
(0.0076693 -1.15267 0)
(0.0204931 -1.1514 0)
(0.0338644 -1.14896 0)
(0.0468999 -1.14534 0)
(0.0566734 -1.1406 0)
(-0.0487899 -1.16659 0)
(-0.0400404 -1.17089 0)
(-0.0283402 -1.17407 0)
(-0.0161389 -1.17615 0)
(-0.00445022 -1.17711 0)
(0.00708457 -1.17701 0)
(0.0187866 -1.17582 0)
(0.0310153 -1.17355 0)
(0.0426694 -1.17019 0)
(0.0513473 -1.16572 0)
(-0.0436811 -1.18936 0)
(-0.0359365 -1.19339 0)
(-0.0255636 -1.19634 0)
(-0.0145056 -1.19827 0)
(-0.00393545 -1.19918 0)
(0.00647701 -1.19907 0)
(0.0170566 -1.19796 0)
(0.0281314 -1.19584 0)
(0.0384326 -1.19271 0)
(0.0461011 -1.18852 0)
(-0.0387508 -1.20985 0)
(-0.0319372 -1.21362 0)
(-0.022845 -1.21635 0)
(-0.0129271 -1.21815 0)
(-0.00346158 -1.21899 0)
(0.00584714 -1.21888 0)
(0.015318 -1.21783 0)
(0.0252406 -1.21584 0)
(0.0342363 -1.21293 0)
(0.040971 -1.20901 0)
(-0.0340474 -1.22809 0)
(-0.0281028 -1.23161 0)
(-0.0202288 -1.23415 0)
(-0.0114359 -1.23582 0)
(-0.00304947 -1.2366 0)
(0.0051866 -1.23649 0)
(0.0135746 -1.23549 0)
(0.0223601 -1.2336 0)
(0.0301172 -1.23087 0)
(0.0359829 -1.22716 0)
(-0.0295891 -1.24401 0)
(-0.0244639 -1.24739 0)
(-0.0177396 -1.24978 0)
(-0.0100539 -1.25135 0)
(-0.00271753 -1.25209 0)
(0.00448144 -1.25197 0)
(0.0118182 -1.251 0)
(0.0194898 -1.24918 0)
(0.0260874 -1.24657 0)
(0.0311309 -1.24298 0)
(-0.0254003 -1.25769 0)
(-0.0210602 -1.26101 0)
(-0.0154121 -1.2633 0)
(-0.00880819 -1.26481 0)
(-0.00249004 -1.26551 0)
(0.00370958 -1.26539 0)
(0.0100301 -1.26443 0)
(0.0166197 -1.26264 0)
(0.0221535 -1.26007 0)
(0.0264244 -1.25647 0)
(-0.0215306 -1.26912 0)
(-0.0179296 -1.27249 0)
(-0.0132727 -1.27476 0)
(-0.00771557 -1.27626 0)
(-0.00237848 -1.27696 0)
(0.00286213 -1.27683 0)
(0.00820763 -1.27587 0)
(0.0137479 -1.27407 0)
(0.0183443 -1.27147 0)
(0.0219273 -1.26772 0)
(-0.0180149 -1.27838 0)
(-0.0150859 -1.28196 0)
(-0.0113165 -1.28427 0)
(-0.00676868 -1.2858 0)
(-0.00236573 -1.28651 0)
(0.00196522 -1.28639 0)
(0.00638507 -1.28542 0)
(0.0109398 -1.2836 0)
(0.0146802 -1.28095 0)
(0.0176101 -1.27692 0)
(-0.0148241 -1.28564 0)
(-0.0125415 -1.28954 0)
(-0.00959081 -1.29195 0)
(-0.00598057 -1.29353 0)
(-0.00244755 -1.29428 0)
(0.00104029 -1.29417 0)
(0.00460049 -1.29319 0)
(0.00824539 -1.29133 0)
(0.0112043 -1.28859 0)
(0.0135182 -1.28421 0)
(-0.0119873 -1.29092 0)
(-0.0103151 -1.29531 0)
(-0.00810958 -1.29789 0)
(-0.00535499 -1.2996 0)
(-0.00260965 -1.30042 0)
(0.000121025 -1.30034 0)
(0.00290385 -1.29933 0)
(0.00572212 -1.2974 0)
(0.00798027 -1.29451 0)
(0.00972558 -1.28969 0)
(-0.00956858 -1.29428 0)
(-0.00846702 -1.29939 0)
(-0.00691357 -1.30226 0)
(-0.00490263 -1.30417 0)
(-0.00282307 -1.30513 0)
(-0.000724372 -1.30508 0)
(0.0013984 -1.30401 0)
(0.0034941 -1.30195 0)
(0.0051347 -1.29885 0)
(0.00634647 -1.29341 0)
(-0.00777255 -1.2959 0)
(-0.00717244 -1.30198 0)
(-0.00613811 -1.30531 0)
(-0.00468499 -1.30756 0)
(-0.00305674 -1.30872 0)
(-0.00136644 -1.3087 0)
(0.000302993 -1.30752 0)
(0.00184441 -1.3052 0)
(0.00298259 -1.30177 0)
(0.00370806 -1.29554 0)
(-0.00687684 -1.29549 0)
(-0.00673556 -1.30324 0)
(-0.00602615 -1.30738 0)
(-0.00483554 -1.31024 0)
(-0.00329757 -1.31173 0)
(-0.00163657 -1.31175 0)
(-6.55327e-05 -1.3103 0)
(0.00120059 -1.30747 0)
(0.00200404 -1.30336 0)
(0.00224549 -1.29569 0)
(-0.00777465 -1.29271 0)
(-0.00786097 -1.3036 0)
(-0.00708571 -1.30924 0)
(-0.0056293 -1.31313 0)
(-0.00359322 -1.31516 0)
(-0.00135823 -1.31521 0)
(0.000707511 -1.31328 0)
(0.00222304 -1.30949 0)
(0.00307087 -1.30397 0)
(0.00303746 -1.29333 0)
(-0.0109033 -1.28626 0)
(-0.0110479 -1.30348 0)
(-0.00967696 -1.31181 0)
(-0.00724564 -1.31738 0)
(-0.00400692 -1.32026 0)
(-0.000508318 -1.32033 0)
(0.00276226 -1.31759 0)
(0.00525046 -1.31215 0)
(0.00666967 -1.30391 0)
(0.00651106 -1.2866 0)
(-0.017839 -1.28055 0)
(-0.0172336 -1.30543 0)
(-0.0143415 -1.31716 0)
(-0.00991644 -1.32484 0)
(-0.00462144 -1.32876 0)
(0.000932402 -1.32888 0)
(0.00626419 -1.32521 0)
(0.0107674 -1.31777 0)
(0.0137637 -1.30626 0)
(0.0145133 -1.28139 0)
(-0.0265218 -1.27729 0)
(-0.0243704 -1.31158 0)
(-0.0196795 -1.32694 0)
(-0.0128067 -1.33678 0)
(-0.00522369 -1.34176 0)
(0.00250776 -1.34186 0)
(0.0100238 -1.33709 0)
(0.016791 -1.3274 0)
(0.0214569 -1.31207 0)
(0.0236909 -1.27701 0)
(-0.0320686 -1.28508 0)
(-0.0283691 -1.32461 0)
(-0.0223455 -1.34256 0)
(-0.0139305 -1.35379 0)
(-0.00485347 -1.35943 0)
(0.00429516 -1.35947 0)
(0.013336 -1.35391 0)
(0.0217351 -1.34286 0)
(0.0277617 -1.32543 0)
(0.0320065 -1.28732 0)
(-0.0257853 -1.27691 0)
(-0.0213233 -1.33457 0)
(-0.0163328 -1.35768 0)
(-0.00972479 -1.37099 0)
(-0.00243422 -1.37743 0)
(0.00498125 -1.37748 0)
(0.0123093 -1.37116 0)
(0.0189878 -1.3581 0)
(0.0239704 -1.33572 0)
(0.0281337 -1.28054 0)
(-0.00407591 -1.27964 0)
(-0.00346809 -1.3411 0)
(-0.00245354 -1.36596 0)
(-0.000880043 -1.38065 0)
(0.00133539 -1.38783 0)
(0.00380051 -1.38795 0)
(0.00613548 -1.38103 0)
(0.00787479 -1.36659 0)
(0.00906875 -1.34195 0)
(0.00992251 -1.28097 0)
(0.0111933 -1.27454 0)
(0.0100795 -1.33727 0)
(0.00819484 -1.3633 0)
(0.00572508 -1.37932 0)
(0.00362417 -1.38727 0)
(0.00172657 -1.38751 0)
(-0.000340193 -1.38 0)
(-0.0027995 -1.36428 0)
(-0.00472771 -1.33825 0)
(-0.00601006 -1.27526 0)
(0.0134198 -1.27045 0)
(0.0138938 -1.32998 0)
(0.0114318 -1.3557 0)
(0.00775618 -1.37212 0)
(0.00398903 -1.38031 0)
(0.00026589 -1.38052 0)
(-0.0035622 -1.37271 0)
(-0.00737267 -1.3565 0)
(-0.0100054 -1.33065 0)
(-0.00998542 -1.27034 0)
(0.00694881 -1.27451 0)
(0.00935665 -1.32616 0)
(0.00817894 -1.34957 0)
(0.00580248 -1.36496 0)
(0.00288306 -1.3727 0)
(-0.000189765 -1.37283 0)
(-0.00320544 -1.36529 0)
(-0.00577334 -1.34991 0)
(-0.00715088 -1.32614 0)
(-0.00509945 -1.27334 0)
(-0.0028685 -1.28548 0)
(0.000756024 -1.32807 0)
(0.00157775 -1.34808 0)
(0.00168835 -1.36165 0)
(0.00103727 -1.36854 0)
(0.000113538 -1.36857 0)
(-0.000630474 -1.3617 0)
(-0.000691754 -1.34797 0)
(-3.45851e-05 -1.32742 0)
(0.0034581 -1.28343 0)
(-0.0122791 -1.29869 0)
(-0.00790608 -1.33473 0)
(-0.00529175 -1.35186 0)
(-0.00268905 -1.36353 0)
(-0.000818768 -1.36949 0)
(0.000748475 -1.36945 0)
(0.00255632 -1.36336 0)
(0.00505456 -1.35144 0)
(0.00758714 -1.33387 0)
(0.0119482 -1.29679 0)
(-0.0191888 -1.31095 0)
(-0.014306 -1.34423 0)
(-0.0104437 -1.35959 0)
(-0.00607646 -1.36989 0)
(-0.00222917 -1.3751 0)
(0.00135611 -1.37501 0)
(0.00517822 -1.36961 0)
(0.00952795 -1.35906 0)
(0.0133734 -1.3433 0)
(0.0182969 -1.30925 0)
(-0.0236145 -1.32371 0)
(-0.0185025 -1.35543 0)
(-0.0138838 -1.36965 0)
(-0.0083964 -1.37916 0)
(-0.00318108 -1.38395 0)
(0.00185785 -1.38386 0)
(0.00708753 -1.37888 0)
(0.0126114 -1.36917 0)
(0.0172745 -1.35465 0)
(0.0225172 -1.32251 0)
(-0.0280848 -1.33606 0)
(-0.0225839 -1.36736 0)
(-0.017177 -1.38138 0)
(-0.0105642 -1.39065 0)
(-0.00401937 -1.39533 0)
(0.00241682 -1.39527 0)
(0.00900056 -1.39045 0)
(0.0156834 -1.38104 0)
(0.0211578 -1.3669 0)
(0.0267911 -1.33534 0)
(-0.0339532 -1.34696 0)
(-0.027876 -1.38055 0)
(-0.0213062 -1.39521 0)
(-0.0131432 -1.4048 0)
(-0.00495384 -1.4096 0)
(0.00312718 -1.40957 0)
(0.0113478 -1.4047 0)
(0.0195698 -1.39507 0)
(0.0261815 -1.38036 0)
(0.0322877 -1.34661 0)
(-0.0418612 -1.35836 0)
(-0.0347171 -1.39611 0)
(-0.0265928 -1.41225 0)
(-0.016243 -1.42235 0)
(-0.00599373 -1.42734 0)
(0.00403883 -1.42732 0)
(0.0142944 -1.42231 0)
(0.0246447 -1.41223 0)
(0.0327667 -1.39613 0)
(0.0398447 -1.35837 0)
(-0.0534759 -1.38133 0)
(-0.0435843 -1.41864 0)
(-0.0332327 -1.435 0)
(-0.0199877 -1.44492 0)
(-0.00715986 -1.44973 0)
(0.00521059 -1.4497 0)
(0.0180136 -1.44482 0)
(0.0311919 -1.43486 0)
(0.04148 -1.4184 0)
(0.0513069 -1.38051 0)
(-0.0603314 -1.41803 0)
(-0.0499512 -1.44972 0)
(-0.0380968 -1.46395 0)
(-0.0226973 -1.47255 0)
(-0.00791023 -1.47672 0)
(0.00620184 -1.47666 0)
(0.0209692 -1.47238 0)
(0.0363249 -1.46365 0)
(0.0481459 -1.44923 0)
(0.0585891 -1.41697 0)
(-0.0607713 -1.46437 0)
(-0.0511878 -1.48581 0)
(-0.0392542 -1.49629 0)
(-0.0233714 -1.50283 0)
(-0.00797622 -1.50603 0)
(0.00668544 -1.50597 0)
(0.0220931 -1.50264 0)
(0.0379962 -1.49596 0)
(0.049954 -1.48525 0)
(0.0596071 -1.46303 0)
(-0.0566627 -1.50722 0)
(-0.0483121 -1.52057 0)
(-0.0371972 -1.5279 0)
(-0.0222952 -1.5327 0)
(-0.00751118 -1.53511 0)
(0.00663748 -1.53506 0)
(0.0214405 -1.53256 0)
(0.0363838 -1.52769 0)
(0.0475267 -1.52027 0)
(0.055906 -1.50666 0)
(-0.0496313 -1.54181 0)
(-0.0427218 -1.5511 0)
(-0.0330394 -1.55657 0)
(-0.0199416 -1.56021 0)
(-0.00664406 -1.56204 0)
(0.00613693 -1.56201 0)
(0.0194545 -1.56012 0)
(0.0325876 -1.55645 0)
(0.0423004 -1.55096 0)
(0.0492356 -1.54161 0)
(-0.0417491 -1.56999 0)
(-0.0361704 -1.57704 0)
(-0.028065 -1.5813 0)
(-0.0170288 -1.58414 0)
(-0.0056275 -1.58557 0)
(0.00536275 -1.58555 0)
(0.0167772 -1.58409 0)
(0.0278352 -1.58123 0)
(0.0359571 -1.57699 0)
(0.0415447 -1.56993 0)
(-0.0342442 -1.59275 0)
(-0.0297869 -1.5985 0)
(-0.0231634 -1.60191 0)
(-0.0141085 -1.60419 0)
(-0.00463591 -1.60534 0)
(0.00450767 -1.60533 0)
(0.013987 -1.60416 0)
(0.0230524 -1.60188 0)
(0.0296833 -1.59847 0)
(0.0341417 -1.59273 0)
(-0.0275289 -1.6111 0)
(-0.0240179 -1.61594 0)
(-0.018707 -1.61873 0)
(-0.0114271 -1.62059 0)
(-0.00374306 -1.62152 0)
(0.00367889 -1.62151 0)
(0.0113661 -1.62057 0)
(0.0186504 -1.61871 0)
(0.0239638 -1.61593 0)
(0.027474 -1.61108 0)
(-0.0217242 -1.62577 0)
(-0.0189964 -1.6299 0)
(-0.0148128 -1.6322 0)
(-0.00906934 -1.63372 0)
(-0.00296781 -1.63448 0)
(0.00292606 -1.63448 0)
(0.00902908 -1.63371 0)
(0.0147742 -1.63218 0)
(0.0189589 -1.62988 0)
(0.0216852 -1.62575 0)
(-0.0167822 -1.63735 0)
(-0.0146975 -1.64086 0)
(-0.0114704 -1.64276 0)
(-0.00703607 -1.64401 0)
(-0.00230444 -1.64464 0)
(0.00226559 -1.64464 0)
(0.00699808 -1.64401 0)
(0.0114333 -1.64275 0)
(0.0146612 -1.64085 0)
(0.0167447 -1.63733 0)
(-0.0125904 -1.64631 0)
(-0.0110372 -1.64927 0)
(-0.00861862 -1.65084 0)
(-0.00529529 -1.65188 0)
(-0.00173832 -1.6524 0)
(0.00169615 -1.65239 0)
(0.00525388 -1.65187 0)
(0.00857824 -1.65083 0)
(0.0109979 -1.64926 0)
(0.0125506 -1.64629 0)
(-0.00904388 -1.65303 0)
(-0.00791911 -1.6555 0)
(-0.00618519 -1.6568 0)
(-0.00380556 -1.65767 0)
(-0.00125393 -1.6581 0)
(0.00120898 -1.6581 0)
(0.00376146 -1.65766 0)
(0.00614242 -1.6568 0)
(0.00787769 -1.65549 0)
(0.00900273 -1.65301 0)
(-0.00600862 -1.65762 0)
(-0.00524291 -1.65981 0)
(-0.00409374 -1.66094 0)
(-0.00252073 -1.66167 0)
(-0.000834867 -1.66204 0)
(0.000790764 -1.66204 0)
(0.00247752 -1.66167 0)
(0.00405202 -1.66094 0)
(0.00520258 -1.65981 0)
(0.00596883 -1.65761 0)
(-0.00336787 -1.66062 0)
(-0.0029323 -1.66254 0)
(-0.00228658 -1.66352 0)
(-0.00140623 -1.66415 0)
(-0.000469343 -1.66447 0)
(0.000430805 -1.66447 0)
(0.00136852 -1.66415 0)
(0.00225029 -1.66352 0)
(0.00289729 -1.66254 0)
(0.00333347 -1.66062 0)
(-0.00110335 -1.66223 0)
(-0.000938546 -1.6639 0)
(-0.000724196 -1.66475 0)
(-0.000441373 -1.6653 0)
(-0.000151166 -1.66558 0)
(0.000122499 -1.66558 0)
(0.000413373 -1.6653 0)
(0.000697301 -1.66475 0)
(0.0009127 -1.6639 0)
(0.00107815 -1.66224 0)
(0.000867345 -1.66254 0)
(0.000800404 -1.66404 0)
(0.000639705 -1.66481 0)
(0.000401784 -1.6653 0)
(0.000128569 -1.66555 0)
(-0.000143823 -1.66555 0)
(-0.000416607 -1.6653 0)
(-0.00065385 -1.66481 0)
(-0.000813821 -1.66405 0)
(-0.000880226 -1.66255 0)
(0.00260845 -1.66176 0)
(0.00233437 -1.66315 0)
(0.00184344 -1.66385 0)
(0.00114705 -1.66429 0)
(0.00037751 -1.66452 0)
(-0.000376421 -1.66452 0)
(-0.00114576 -1.6643 0)
(-0.00184189 -1.66385 0)
(-0.00233241 -1.66316 0)
(-0.00260625 -1.66177 0)
(0.00415058 -1.66007 0)
(0.00369481 -1.66134 0)
(0.00291249 -1.66199 0)
(0.00180927 -1.6624 0)
(0.000600013 -1.66261 0)
(-0.000580732 -1.66261 0)
(-0.00178986 -1.6624 0)
(-0.002893 -1.662 0)
(-0.00367499 -1.66135 0)
(-0.00413067 -1.66007 0)
(0.00552672 -1.65755 0)
(0.00491296 -1.65873 0)
(0.00387065 -1.65933 0)
(0.00240193 -1.65972 0)
(0.000799649 -1.65991 0)
(-0.000762537 -1.65991 0)
(-0.00236449 -1.65972 0)
(-0.0038328 -1.65934 0)
(-0.0048747 -1.65874 0)
(-0.0054883 -1.65755 0)
(0.00677004 -1.6543 0)
(0.00601757 -1.65539 0)
(0.00473994 -1.65596 0)
(0.00293796 -1.65632 0)
(0.000979809 -1.65651 0)
(-0.000927706 -1.65651 0)
(-0.00288531 -1.65633 0)
(-0.00468648 -1.65597 0)
(-0.005964 -1.65541 0)
(-0.00671568 -1.65432 0)
(0.00790877 -1.65039 0)
(0.00703388 -1.6514 0)
(0.00553987 -1.65193 0)
(0.0034291 -1.65228 0)
(0.00114392 -1.65245 0)
(-0.00108108 -1.65246 0)
(-0.00336607 -1.65228 0)
(-0.00547674 -1.65194 0)
(-0.00697134 -1.65142 0)
(-0.00784605 -1.65042 0)
(0.00896943 -1.64586 0)
(0.00798496 -1.64679 0)
(0.00628847 -1.6473 0)
(0.00388625 -1.64763 0)
(0.00129571 -1.6478 0)
(-0.00122568 -1.6478 0)
(-0.00381687 -1.64764 0)
(-0.00622042 -1.64731 0)
(-0.00791819 -1.64681 0)
(-0.00890402 -1.6459 0)
(0.00997447 -1.64076 0)
(0.0088891 -1.64161 0)
(0.00699928 -1.6421 0)
(0.00431724 -1.64242 0)
(0.00143785 -1.64258 0)
(-0.00136315 -1.64258 0)
(-0.00424372 -1.64242 0)
(-0.00692786 -1.6421 0)
(-0.00881914 -1.64162 0)
(-0.00990649 -1.64077 0)
(0.0109387 -1.6351 0)
(0.00975221 -1.63587 0)
(0.00767568 -1.63635 0)
(0.00472275 -1.63666 0)
(0.00157006 -1.63683 0)
(-0.00149381 -1.63683 0)
(-0.00464765 -1.63666 0)
(-0.00760246 -1.63635 0)
(-0.00968044 -1.63587 0)
(-0.0108685 -1.63509 0)
(0.0118311 -1.62884 0)
(0.010568 -1.62958 0)
(0.00831587 -1.63007 0)
(0.00510195 -1.6304 0)
(0.00169213 -1.63058 0)
(-0.00161752 -1.63058 0)
(-0.00502819 -1.6304 0)
(-0.00824338 -1.63007 0)
(-0.0104969 -1.62958 0)
(-0.011761 -1.62882 0)
(0.0127581 -1.62168 0)
(0.0113862 -1.62269 0)
(0.00894845 -1.62327 0)
(0.00547765 -1.62365 0)
(0.00181302 -1.62384 0)
(-0.0017429 -1.62384 0)
(-0.00540817 -1.62365 0)
(-0.00887992 -1.62327 0)
(-0.0113186 -1.62268 0)
(-0.0126903 -1.62167 0)
(0.0138277 -1.6142 0)
(0.0122397 -1.61535 0)
(0.00959267 -1.61599 0)
(0.00586331 -1.6164 0)
(0.00193744 -1.6166 0)
(-0.00187517 -1.6166 0)
(-0.00580165 -1.61639 0)
(-0.00953193 -1.61598 0)
(-0.0121798 -1.61533 0)
(-0.013768 -1.61419 0)
(0.0148394 -1.60654 0)
(0.0130768 -1.60758 0)
(0.0102312 -1.60822 0)
(0.00624216 -1.60865 0)
(0.00205822 -1.60886 0)
(-0.00200699 -1.60886 0)
(-0.00619139 -1.60864 0)
(-0.010181 -1.60821 0)
(-0.0130269 -1.60756 0)
(-0.0147897 -1.60651 0)
(0.0158553 -1.59829 0)
(0.01392 -1.59929 0)
(0.0108708 -1.59995 0)
(0.00661559 -1.60039 0)
(0.00217558 -1.60062 0)
(-0.00213805 -1.60061 0)
(-0.00657821 -1.60039 0)
(-0.0108333 -1.59994 0)
(-0.0138823 -1.59928 0)
(-0.0158172 -1.59826 0)
(0.0169261 -1.58945 0)
(0.0148067 -1.59047 0)
(0.0115388 -1.59117 0)
(0.0070029 -1.59163 0)
(0.00229683 -1.59187 0)
(-0.00227444 -1.59187 0)
(-0.00698053 -1.59163 0)
(-0.011516 -1.59115 0)
(-0.0147837 -1.59046 0)
(-0.0169027 -1.58944 0)
(0.0180704 -1.58005 0)
(0.0157517 -1.5811 0)
(0.0122478 -1.58184 0)
(0.00741322 -1.58234 0)
(0.00242615 -1.5826 0)
(-0.00241752 -1.58259 0)
(-0.00740466 -1.58233 0)
(-0.0122391 -1.58183 0)
(-0.0157428 -1.58109 0)
(-0.018061 -1.58004 0)
(0.0193019 -1.57005 0)
(0.016766 -1.57114 0)
(0.0130063 -1.57193 0)
(0.00785147 -1.57248 0)
(0.00256565 -1.57276 0)
(-0.00256783 -1.57275 0)
(-0.0078537 -1.57247 0)
(-0.0130085 -1.57192 0)
(-0.0167678 -1.57112 0)
(-0.0193028 -1.57004 0)
(0.0206357 -1.55942 0)
(0.0178614 -1.56055 0)
(0.0138221 -1.56141 0)
(0.00832156 -1.56201 0)
(0.00271622 -1.56231 0)
(-0.00272722 -1.56231 0)
(-0.00833233 -1.56201 0)
(-0.0138324 -1.5614 0)
(-0.0178709 -1.56053 0)
(-0.0206438 -1.55939 0)
(0.0220887 -1.54808 0)
(0.0190516 -1.54928 0)
(0.0147042 -1.55023 0)
(0.00882809 -1.55089 0)
(0.00287905 -1.55122 0)
(-0.00289781 -1.55122 0)
(-0.00884621 -1.55088 0)
(-0.014721 -1.55022 0)
(-0.019067 -1.54927 0)
(-0.0221025 -1.54806 0)
(0.0236814 -1.53598 0)
(0.0203525 -1.53728 0)
(0.0156632 -1.53832 0)
(0.00937691 -1.53906 0)
(0.00305611 -1.53943 0)
(-0.00308132 -1.53943 0)
(-0.00940109 -1.53906 0)
(-0.0156852 -1.53832 0)
(-0.0203727 -1.53727 0)
(-0.0236998 -1.53597 0)
(0.0254381 -1.52305 0)
(0.0217833 -1.52446 0)
(0.0167116 -1.52563 0)
(0.00997491 -1.52646 0)
(0.00324997 -1.52688 0)
(-0.00327939 -1.52688 0)
(-0.0100031 -1.52646 0)
(-0.0167374 -1.52563 0)
(-0.021807 -1.52446 0)
(-0.0254601 -1.52306 0)
(0.0273896 -1.5092 0)
(0.023368 -1.51075 0)
(0.0178645 -1.51207 0)
(0.0106301 -1.51302 0)
(0.00346343 -1.5135 0)
(-0.00349401 -1.5135 0)
(-0.0106594 -1.51302 0)
(-0.0178917 -1.51208 0)
(-0.0233932 -1.51076 0)
(-0.0274131 -1.50922 0)
(0.0295739 -1.49431 0)
(0.0251363 -1.49605 0)
(0.0191401 -1.49756 0)
(0.0113517 -1.49865 0)
(0.00369949 -1.4992 0)
(-0.00372802 -1.4992 0)
(-0.0113792 -1.49865 0)
(-0.0191657 -1.49757 0)
(-0.0251602 -1.49606 0)
(-0.0295965 -1.49434 0)
(0.0320409 -1.47824 0)
(0.0271279 -1.48022 0)
(0.020563 -1.48197 0)
(0.012153 -1.48325 0)
(0.00396236 -1.4839 0)
(-0.00398579 -1.4839 0)
(-0.0121755 -1.48326 0)
(-0.0205841 -1.48199 0)
(-0.0271479 -1.48024 0)
(-0.03206 -1.47827 0)
(0.0348614 -1.46081 0)
(0.0294019 -1.46311 0)
(0.0221715 -1.46518 0)
(0.0130564 -1.4667 0)
(0.0042597 -1.46747 0)
(-0.00427486 -1.46747 0)
(-0.0130709 -1.46671 0)
(-0.0221852 -1.4652 0)
(-0.0294151 -1.46313 0)
(-0.0348741 -1.46084 0)
(0.0381363 -1.4418 0)
(0.0320493 -1.44453 0)
(0.0240295 -1.44701 0)
(0.0141022 -1.44883 0)
(0.0046055 -1.44976 0)
(-0.00460942 -1.44976 0)
(-0.0141057 -1.44884 0)
(-0.0240328 -1.44703 0)
(-0.0320528 -1.44455 0)
(-0.0381401 -1.44183 0)
(0.0420004 -1.42097 0)
(0.0352009 -1.42426 0)
(0.0262342 -1.42725 0)
(0.0153547 -1.42942 0)
(0.00502196 -1.43053 0)
(-0.00501287 -1.43054 0)
(-0.0153456 -1.42943 0)
(-0.0262254 -1.42726 0)
(-0.0351934 -1.42429 0)
(-0.041994 -1.421 0)
(0.0465913 -1.39814 0)
(0.0390009 -1.40207 0)
(0.0288933 -1.4056 0)
(0.0168854 -1.40816 0)
(0.00553289 -1.40946 0)
(-0.00551149 -1.40946 0)
(-0.0168644 -1.40817 0)
(-0.0288735 -1.40562 0)
(-0.0389835 -1.40209 0)
(-0.0465761 -1.39817 0)
(0.051912 -1.37324 0)
(0.0434677 -1.37774 0)
(0.0320034 -1.38174 0)
(0.0186857 -1.38463 0)
(0.00613173 -1.38611 0)
(-0.0061021 -1.38611 0)
(-0.018657 -1.38464 0)
(-0.031977 -1.38175 0)
(-0.0434452 -1.37775 0)
(-0.0518927 -1.37326 0)
(0.0574807 -1.34637 0)
(0.0481436 -1.35105 0)
(0.0351456 -1.3553 0)
(0.0204702 -1.35849 0)
(0.00671561 -1.36017 0)
(-0.00668472 -1.36017 0)
(-0.0204408 -1.35849 0)
(-0.0351199 -1.3553 0)
(-0.0481233 -1.35106 0)
(-0.0574647 -1.34637 0)
(0.0617665 -1.31763 0)
(0.051564 -1.32184 0)
(0.0370884 -1.32625 0)
(0.0215021 -1.32992 0)
(0.00705325 -1.33198 0)
(-0.00702885 -1.33198 0)
(-0.0214796 -1.32992 0)
(-0.0370703 -1.32624 0)
(-0.0515524 -1.32183 0)
(-0.0617602 -1.31762 0)
(0.061556 -1.28662 0)
(0.0508859 -1.29041 0)
(0.0357626 -1.296 0)
(0.0208804 -1.30088 0)
(0.00696445 -1.3034 0)
(-0.00695231 -1.3034 0)
(-0.02087 -1.30087 0)
(-0.0357553 -1.29598 0)
(-0.0508838 -1.29039 0)
(-0.0615582 -1.28658 0)
(0.0522178 -1.25047 0)
(0.0426828 -1.25813 0)
(0.0298782 -1.26897 0)
(0.0187365 -1.2754 0)
(0.00680395 -1.27644 0)
(-0.0068056 -1.27644 0)
(-0.0187391 -1.27539 0)
(-0.0298801 -1.26895 0)
(-0.042684 -1.25809 0)
(-0.0522188 -1.25042 0)
(0.0331685 -1.19875 0)
(0.0259385 -1.2299 0)
(0.0229915 -1.25281 0)
(0.0159799 -1.25556 0)
(0.00719533 -1.25059 0)
(-0.00720647 -1.25059 0)
(-0.0159902 -1.25555 0)
(-0.0230011 -1.2528 0)
(-0.0259377 -1.22987 0)
(-0.0331637 -1.19869 0)
(0.0177867 -1.10139 0)
(-0.001448 -1.23649 0)
(0.0212278 -1.25628 0)
(0.00799025 -1.23739 0)
(0.0060781 -1.23048 0)
(-0.00609072 -1.23047 0)
(-0.00799957 -1.23738 0)
(-0.0212419 -1.25628 0)
(0.00144856 -1.23648 0)
(-0.0177874 -1.10135 0)
(0.487182 -0.131334 0)
(0.575533 -0.12266 0)
(0.656578 -0.111365 0)
(0.728241 -0.0973321 0)
(0.788258 -0.0805882 0)
(0.834556 -0.0613874 0)
(0.865529 -0.0402992 0)
(0.881028 -0.0182079 0)
(0.880217 0.00329402 0)
(0.864535 0.0222763 0)
(0.837936 0.0372747 0)
(0.803654 0.0478245 0)
(0.764338 0.0542911 0)
(0.722236 0.0574607 0)
(0.679089 0.0582326 0)
(0.63608 0.0574357 0)
(0.593916 0.0557414 0)
(0.552967 0.0536431 0)
(0.513371 0.0514716 0)
(0.475116 0.0494294 0)
(0.438101 0.0476253 0)
(0.402178 0.0461062 0)
(0.367182 0.0448797 0)
(0.332947 0.0439319 0)
(0.299321 0.0432379 0)
(0.266165 0.0427672 0)
(0.233367 0.0424846 0)
(0.200839 0.042349 0)
(0.168535 0.042309 0)
(0.136456 0.0422962 0)
(0.10467 0.0422167 0)
(0.0732819 0.0419377 0)
(0.0424041 0.0412446 0)
(0.0135774 0.0397604 0)
(-0.0141847 0.0379685 0)
(-0.0383689 0.0290568 0)
(-0.0569607 0.01752 0)
(-0.0652348 -0.00767109 0)
(-0.0573212 -0.0444394 0)
(-0.0269336 -0.0667773 0)
(0.380912 -0.237365 0)
(0.448971 -0.219596 0)
(0.510666 -0.196686 0)
(0.564377 -0.168298 0)
(0.608532 -0.134655 0)
(0.641816 -0.0967836 0)
(0.663533 -0.056728 0)
(0.674046 -0.0173207 0)
(0.675388 0.0184978 0)
(0.66947 0.0483633 0)
(0.657584 0.0712459 0)
(0.641049 0.0874208 0)
(0.620976 0.0978184 0)
(0.598287 0.103605 0)
(0.573728 0.105989 0)
(0.547877 0.106044 0)
(0.52118 0.104637 0)
(0.493983 0.10242 0)
(0.466539 0.0998589 0)
(0.439026 0.0972594 0)
(0.411564 0.0948121 0)
(0.384228 0.0926231 0)
(0.357057 0.0907404 0)
(0.330068 0.0891726 0)
(0.303268 0.0879015 0)
(0.276658 0.0868874 0)
(0.250245 0.0860692 0)
(0.224053 0.0853618 0)
(0.198132 0.0846483 0)
(0.172569 0.0837681 0)
(0.14751 0.0824995 0)
(0.123158 0.0805276 0)