/*--------------------------------*- C++ -*----------------------------------*\
  =========                 |
  \\      /  F ield         | OpenFOAM: The Open Source CFD Toolbox
   \\    /   O peration     | Website:  https://openfoam.org
    \\  /    A nd           | Version:  8
     \\/     M anipulation  |
\*---------------------------------------------------------------------------*/
FoamFile
{
    version     2.0;
    format      ascii;
    class       volVectorField;
    location    "9.8";
    object      U;
}
// * * * * * * * * * * * * * * * * * * * * * * * * * * * * * * * * * * * * * //

dimensions      [0 1 -1 0 0 0 0];

internalField   nonuniform List<vector> 
9150
(
(0.0048873 -0.0783364 0)
(0.0131438 -0.0973407 0)
(0.0108831 -0.104484 0)
(0.00899857 -0.107619 0)
(0.00269009 -0.109151 0)
(-0.00232169 -0.10967 0)
(-0.00865566 -0.108068 0)
(-0.0108195 -0.104555 0)
(-0.0130645 -0.0974996 0)
(-0.00491606 -0.0784417 0)
(0.00588512 -0.0920071 0)
(0.00857525 -0.100481 0)
(0.00741817 -0.102181 0)
(0.00425865 -0.104783 0)
(0.00186171 -0.105343 0)
(-0.0019978 -0.105047 0)
(-0.00445142 -0.10416 0)
(-0.00727019 -0.102417 0)
(-0.00849432 -0.100508 0)
(-0.00589018 -0.092038 0)
(0.00172559 -0.0954654 0)
(0.00456469 -0.0989511 0)
(0.00373258 -0.100982 0)
(0.00338253 -0.101671 0)
(0.00103588 -0.10238 0)
(-0.000543484 -0.102613 0)
(-0.00281864 -0.102124 0)
(-0.00372404 -0.10105 0)
(-0.00454385 -0.098997 0)
(-0.00173634 -0.0954847 0)
(0.00173835 -0.0984162 0)
(0.00246229 -0.100377 0)
(0.00214991 -0.100332 0)
(0.00126965 -0.100862 0)
(0.000367347 -0.100904 0)
(-0.000830155 -0.100858 0)
(-0.0018414 -0.100425 0)
(-0.00218441 -0.100323 0)
(-0.00243993 -0.100406 0)
(-0.0017311 -0.0984224 0)
(0.000183817 -0.0994889 0)
(0.000716017 -0.0995756 0)
(0.000543489 -0.0998493 0)
(0.000699128 -0.0998631 0)
(0.000308704 -0.100106 0)
(-0.000120603 -0.100105 0)
(-0.000331099 -0.10016 0)
(-0.000445175 -0.10003 0)
(-0.000710333 -0.0995884 0)
(-0.000181255 -0.0994856 0)
(0.0752812 -0.193752 2.23485e-26)
(0.050175 -0.183971 0)
(0.0301157 -0.175433 0)
(0.0159203 -0.173819 0)
(0.00481312 -0.175413 0)
(-0.00467287 -0.176803 0)
(-0.0154582 -0.17514 0)
(-0.0303553 -0.176744 0)
(-0.0493956 -0.185448 0)
(-0.0756256 -0.195227 -2.2057e-26)
(0.0584847 -0.146363 5.56757e-27)
(0.0484488 -0.146403 0)
(0.028752 -0.156343 0)
(0.0211873 -0.156737 0)
(0.00545122 -0.155525 0)
(-0.00441287 -0.155517 0)
(-0.0209904 -0.157202 0)
(-0.0285641 -0.157005 0)
(-0.0487891 -0.146936 0)
(-0.0584761 -0.146837 -6.0497e-27)
(0.0475446 -0.121329 2.64985e-27)
(0.0430523 -0.131297 0)
(0.0300636 -0.13368 0)
(0.0181155 -0.137271 0)
(0.00690459 -0.139743 0)
(-0.00547243 -0.14015 0)
(-0.0170349 -0.137373 0)
(-0.029014 -0.133644 0)
(-0.0425295 -0.131373 0)
(-0.0474738 -0.121537 -2.82659e-27)
(0.0371253 -0.0993602 4.98206e-27)
(0.0391317 -0.110142 0)
(0.02245 -0.120382 0)
(0.0170947 -0.125823 0)
(0.00443226 -0.125722 0)
(-0.00392809 -0.12513 0)
(-0.0169223 -0.125199 0)
(-0.0224441 -0.12032 0)
(-0.0390625 -0.110206 0)
(-0.0371688 -0.0993822 -5.14671e-27)
(0.024496 -0.0816046 -1.41665e-26)
(0.0278898 -0.101236 -1.66276e-26)
(0.0198676 -0.108304 -4.01078e-27)
(0.0109817 -0.113846 -3.63466e-27)
(0.00395299 -0.117297 -1.52344e-28)
(-0.00509788 -0.11698 -1.57708e-28)
(-0.0114243 -0.113756 -3.68979e-27)
(-0.0202511 -0.108499 -4.06969e-27)
(-0.0280387 -0.101282 -1.66712e-26)
(-0.024542 -0.0816551 -1.42135e-26)
(0.0477415 -0.150176 0)
(0.0332764 -0.217124 0)
(0.0334717 -0.219154 0)
(0.0122516 -0.225884 0)
(0.00816606 -0.227955 0)
(-0.00568059 -0.227809 0)
(-0.00747503 -0.227603 0)
(-0.0212732 -0.223809 0)
(-0.0143259 -0.208705 0)
(-0.0208419 -0.144949 0)
(0.0201359 -0.150961 0)
(0.00782614 -0.195411 0)
(0.0179745 -0.210004 0)
(0.00783516 -0.214688 0)
(0.00871984 -0.216857 0)
(-0.0029694 -0.217037 0)
(-0.000970909 -0.215277 0)
(-0.0149468 -0.211793 0)
(-0.00227202 -0.20177 0)
(-0.0151783 -0.165625 0)
(0.0154415 -0.177709 0)
(-0.00305663 -0.202516 0)
(0.0123446 -0.208518 0)
(0.000801598 -0.211696 0)
(0.00368755 -0.211331 0)
(-0.00281708 -0.211715 0)
(0.00218871 -0.21025 0)
(-0.0102267 -0.210539 0)
(0.00404802 -0.204604 0)
(-0.0147665 -0.172588 0)
(0.0178932 -0.189253 0)
(-0.00696031 -0.203257 0)
(0.0105268 -0.210055 0)
(0.000350952 -0.206403 0)
(0.00165661 -0.206763 0)
(-0.000890387 -0.207683 0)
(0.000357533 -0.206025 0)
(-0.00895443 -0.211618 0)
(0.00662291 -0.205415 0)
(-0.018253 -0.195201 0)
(0.0349088 -0.215353 0)
(0.0110466 -0.204405 0)
(0.0160255 -0.202458 0)
(0.0123607 -0.19628 0)
(0.00198637 -0.193146 0)
(-0.00192954 -0.19276 0)
(-0.0111941 -0.196268 0)
(-0.0161873 -0.202607 0)
(-0.00981355 -0.203945 0)
(-0.0356911 -0.217896 0)
(0.00890869 0.000683149 0)
(0.00607588 0.000726973 0)
(0.00372896 0.00240161 0)
(0.00128211 0.0015159 0)
(-0.00123556 0.00180733 0)
(-0.00423502 0.00264454 0)
(-0.00948629 0.00403011 0)
(-0.0153303 0.00524001 0)
(-0.0181987 0.00200116 0)
(-0.0182132 -0.0002691 0)
(0.0182547 0.0136416 0)
(0.0113197 0.00940836 0)
(0.00606355 0.00765505 0)
(0.00260818 0.00854801 0)
(-0.000131438 0.00926434 0)
(-0.0037334 0.0144429 0)
(-0.0117437 0.018073 0)
(-0.0188094 0.0117429 0)
(-0.0201774 0.00398864 0)
(-0.0205783 0.000444549 0)
(0.0229456 0.0274321 0)
(0.0161577 0.0257613 0)
(0.00853643 0.0196537 0)
(0.00169412 0.0146927 0)
(-0.00153609 0.0143206 0)
(-0.00284739 0.0233681 0)
(-0.00362647 0.032122 0)
(-0.0103642 0.0230799 0)
(-0.0130343 0.00696599 0)
(-0.0122121 -0.00156563 0)
(0.0194869 0.0429076 0)
(0.0152095 0.0381359 0)
(0.0109842 0.0350803 0)
(0.00455535 0.0285149 0)
(-0.000608891 0.0186726 0)
(-0.00227342 0.0196922 0)
(-0.000936533 0.0312958 0)
(0.00100877 0.0284616 0)
(-0.00153569 0.0105614 0)
(-0.00420909 -0.00452218 0)
(0.0171591 0.0536788 0)
(0.0142452 0.0437088 0)
(0.0138987 0.0392932 0)
(0.0141489 0.0359678 0)
(0.0122078 0.0303536 0)
(0.00848368 0.0236597 0)
(0.00878651 0.0270556 0)
(0.010987 0.0263 0)
(0.0114075 0.0184503 0)
(0.00774616 0.00196872 0)
(0.0160413 0.0564946 0)
(0.0148952 0.0473024 0)
(0.01459 0.0383486 0)
(0.0153398 0.0337304 0)
(0.016708 0.0311684 0)
(0.0170743 0.0259798 0)
(0.0176316 0.0242545 0)
(0.0193742 0.0232763 0)
(0.0204391 0.0197227 0)
(0.0195281 0.0120785 0)
(0.0145265 0.0560932 0)
(0.014274 0.0478102 0)
(0.0148553 0.0375249 0)
(0.0151859 0.0313318 0)
(0.0163754 0.0286372 0)
(0.0174373 0.0240744 0)
(0.0181179 0.0207634 0)
(0.0187482 0.0206478 0)
(0.0191342 0.018476 0)
(0.0194983 0.012041 0)
(0.0105831 0.0529299 0)
(0.0121039 0.0449575 0)
(0.0139034 0.0350194 0)
(0.0159612 0.029107 0)
(0.0177552 0.0260051 0)
(0.0182315 0.0223994 0)
(0.0174243 0.0202864 0)
(0.0170143 0.0204373 0)
(0.0167335 0.017379 0)
(0.0177999 0.00966133 0)
(0.0121428 0.0511864 0)
(0.0149492 0.0427045 0)
(0.0193882 0.0295957 0)
(0.0223107 0.0241715 0)
(0.0231433 0.0248881 0)
(0.0218945 0.0254064 0)
(0.0186371 0.0229186 0)
(0.0169919 0.0217536 0)
(0.0166729 0.0177257 0)
(0.0158471 0.00888831 0)
(0.0160314 0.0432749 0)
(0.0213746 0.0314681 0)
(0.0245666 0.0225554 0)
(0.0246266 0.022059 0)
(0.0236502 0.025664 0)
(0.0212728 0.0317037 0)
(0.0198192 0.0292624 0)
(0.0181937 0.0245868 0)
(0.0180722 0.0202705 0)
(0.0166832 0.011831 0)
(0.0155765 0.028877 0)
(0.0203064 0.0240371 0)
(0.0214789 0.0233744 0)
(0.0211597 0.0252951 0)
(0.0199592 0.0300394 0)
(0.0191023 0.0334154 0)
(0.0193513 0.0306863 0)
(0.0198014 0.0245162 0)
(0.0208059 0.0201624 0)
(0.0194222 0.0153842 0)
(0.00323954 0.0223141 0)
(0.00810929 0.0181046 0)
(0.0139374 0.0190832 0)
(0.0156885 0.0268539 0)
(0.0157623 0.0317024 0)
(0.0174426 0.0318179 0)
(0.0207026 0.0271926 0)
(0.0223326 0.022179 0)
(0.0219028 0.0220136 0)
(0.0173807 0.0229667 0)
(-0.0109912 0.0116705 0)
(-0.00391497 0.00693568 0)
(0.000670538 0.0116594 0)
(0.00531889 0.0209579 0)
(0.0121245 0.0245801 0)
(0.0184834 0.0220809 0)
(0.0222372 0.0226606 0)
(0.0215713 0.0233549 0)
(0.0197215 0.0268209 0)
(0.0157037 0.0378222 0)
(-0.00648306 -0.0166807 0)
(0.00164098 -0.00862962 0)
(0.00668999 0.00101254 0)
(0.0120009 0.00559605 0)
(0.0173872 0.00822122 0)
(0.02027 0.0112669 0)
(0.0217371 0.0208104 0)
(0.0201417 0.0280782 0)
(0.0162292 0.0332304 0)
(0.0122163 0.0457213 0)
(0.00601265 -0.0264646 0)
(0.0101351 -0.0195097 0)
(0.0138417 -0.0108187 0)
(0.0179747 -0.00240019 0)
(0.0214057 0.00522136 0)
(0.0204712 0.0115984 0)
(0.0201373 0.0229564 0)
(0.0182137 0.0336897 0)
(0.0154055 0.0415784 0)
(0.0118647 0.0541986 0)
(0.00770621 -0.0329946 0)
(0.00941399 -0.0246644 0)
(0.00755422 -0.0162705 0)
(0.00764205 -0.00840671 0)
(0.0105453 0.00289339 0)
(0.0127747 0.014612 0)
(0.0135497 0.025918 0)
(0.0128329 0.0364704 0)
(0.0104834 0.047226 0)
(0.00772087 0.0619834 0)
(0.0031753 -0.0290321 0)
(-0.00145049 -0.013588 0)
(-0.00366823 -0.00736429 0)
(-0.00273432 -0.00890731 0)
(-0.000367535 -0.00537911 0)
(0.00110446 0.00626029 0)
(0.000269561 0.022697 0)
(-0.000651214 0.0390763 0)
(-0.00241068 0.052301 0)
(-0.00275586 0.0651992 0)
(-0.0157814 -0.0140913 0)
(-0.0175524 -0.0117832 0)
(-0.0178988 -0.0151649 0)
(-0.0173363 -0.0150931 0)
(-0.0184418 -0.00401276 0)
(-0.020668 0.0148046 0)
(-0.0224652 0.0315118 0)
(-0.0229151 0.0440083 0)
(-0.0222956 0.0553509 0)
(-0.0215207 0.0662822 0)
(-0.0234087 -0.0119743 0)
(-0.0258422 -0.0069037 0)
(-0.0301242 -0.00890267 0)
(-0.0360524 -0.00933907 0)
(-0.040219 0.00171729 0)
(-0.0416913 0.0182459 0)
(-0.0416581 0.0304299 0)
(-0.0406564 0.0397579 0)
(-0.0385973 0.0511389 0)
(-0.036633 0.0620333 0)
(-0.0336961 -0.00438428 0)
(-0.0372983 0.0022799 0)
(-0.0408971 0.002417 0)
(-0.0483024 0.00133394 0)
(-0.0532932 0.00934833 0)
(-0.0546586 0.0214742 0)
(-0.0548967 0.0288739 0)
(-0.0544816 0.0358953 0)
(-0.0516594 0.0479053 0)
(-0.0482842 0.0571295 0)
(-0.0354972 0.00546264 0)
(-0.0402542 0.0096878 0)
(-0.0435666 0.0132286 0)
(-0.0505609 0.0122915 0)
(-0.0558744 0.0156065 0)
(-0.0575693 0.0239636 0)
(-0.0585759 0.0289196 0)
(-0.0590815 0.0324073 0)
(-0.0574626 0.040649 0)
(-0.0542926 0.0498006 0)
(-0.0265104 0.0225932 0)
(-0.0353446 0.0189105 0)
(-0.040798 0.0232815 0)
(-0.0468627 0.0262565 0)
(-0.0518825 0.0238902 0)
(-0.0546734 0.0262962 0)
(-0.0556748 0.0303304 0)
(-0.055538 0.0331744 0)
(-0.0538834 0.0363049 0)
(-0.0502624 0.0391879 0)
(-0.00431624 0.0540605 0)
(-0.0178832 0.040613 0)
(-0.0277343 0.031262 0)
(-0.0338926 0.0314124 0)
(-0.0373012 0.0315269 0)
(-0.0400385 0.0304445 0)
(-0.0403066 0.0290682 0)
(-0.0380203 0.0277746 0)
(-0.0359202 0.0286705 0)
(-0.0329856 0.0308568 0)
(0.00718266 0.0662299 0)
(0.003816 0.062795 0)
(-0.000555556 0.0550532 0)
(-0.00692798 0.0464597 0)
(-0.00861757 0.0367335 0)
(-0.01024 0.0319059 0)
(-0.0107755 0.0276489 0)
(-0.012086 0.0254641 0)
(-0.0149664 0.0280871 0)
(-0.0160753 0.0301389 0)
(0.0098092 0.0660106 0)
(0.0111473 0.0615799 0)
(0.0135646 0.0565377 0)
(0.0148208 0.0488894 0)
(0.0148281 0.0389207 0)
(0.0118645 0.0343311 0)
(0.00913861 0.0340423 0)
(0.00514303 0.0364021 0)
(0.00103314 0.0356385 0)
(-0.00273709 0.0377151 0)
(0.0188274 0.0579837 0)
(0.023719 0.0532213 0)
(0.0265753 0.0501461 0)
(0.0266238 0.0476157 0)
(0.0249406 0.0468186 0)
(0.0208924 0.0455611 0)
(0.0158862 0.0421225 0)
(0.00959535 0.0428442 0)
(0.00419333 0.0436703 0)
(-0.00590696 0.0508182 0)
(0.0158434 0.0437773 0)
(0.0226696 0.0450116 0)
(0.0276706 0.0487237 0)
(0.0268863 0.0490797 0)
(0.0231345 0.0477065 0)
(0.0172516 0.048093 0)
(0.0106894 0.0510152 0)
(0.00338526 0.058992 0)
(-0.00687074 0.0682801 0)
(-0.0180172 0.0723487 0)
(-0.0109214 0.0235864 0)
(0.00221594 0.0228011 0)
(0.0074415 0.0373923 0)
(0.00285535 0.0577111 0)
(-0.00917091 0.0712558 0)
(-0.0214504 0.0741821 0)
(-0.0291706 0.0742863 0)
(-0.032055 0.0761683 0)
(-0.0301445 0.0794449 0)
(-0.0245316 0.0708397 0)
(-0.0485053 0.00949364 0)
(-0.0502856 0.0145598 0)
(-0.0490339 0.0563947 0)
(-0.0493635 0.0825826 0)
(-0.0512806 0.0841739 0)
(-0.0501821 0.0765222 0)
(-0.0457872 0.0634478 0)
(-0.040391 0.0608914 0)
(-0.0326968 0.057592 0)
(-0.0265213 0.0374077 0)
(-0.0812203 0.022166 0)
(-0.0815748 0.0272671 0)
(-0.0776078 0.0502839 0)
(-0.0603211 0.0740709 0)
(-0.0431168 0.0772999 0)
(-0.0295737 0.078145 0)
(-0.0153013 0.0629927 0)
(-0.006313 0.0606704 0)
(-0.000841166 0.052479 0)
(0.0131741 0.0127438 0)
(-0.101647 0.00442143 0)
(-0.0908482 0.0107801 0)
(-0.0781357 0.0148416 0)
(-0.0579257 0.0114183 0)
(-0.0354067 0.0135037 0)
(-0.0095885 0.0156376 0)
(0.0173948 0.00684713 0)
(0.0277562 0.0263779 0)
(0.0372607 0.024277 0)
(0.0501661 -0.00240411 0)
(-0.0940005 -0.00644396 0)
(-0.0854216 -0.0103278 0)
(-0.0735759 -0.0137719 0)
(-0.0641491 -0.01843 0)
(-0.0494079 -0.0291505 0)
(-0.0374452 -0.0294508 0)
(-0.0218403 -0.00108659 0)
(-0.00639895 0.0143981 0)
(0.0115204 -0.00325756 0)
(0.0249197 -0.0260685 0)
(-0.058364 -0.0306057 0)
(-0.0544817 -0.0356092 0)
(-0.0424313 -0.0364255 0)
(-0.0328284 -0.0341037 0)
(-0.0245229 -0.040756 0)
(-0.0166388 -0.0458553 0)
(-0.00795674 -0.043318 0)
(0.00985059 -0.0385524 0)
(0.0255464 -0.039331 0)
(0.036832 -0.0423095 0)
(-0.00302181 -0.023272 0)
(-0.00260099 -0.0411134 0)
(0.0019201 -0.0531619 0)
(0.00537795 -0.0577139 0)
(0.00695616 -0.0612354 0)
(0.0109528 -0.0682735 0)
(0.0169347 -0.0683299 0)
(0.0288464 -0.0640389 0)
(0.0395293 -0.0620568 0)
(0.0495285 -0.0597493 0)
(0.0498206 -0.0261447 0)
(0.0536282 -0.0398064 0)
(0.0546977 -0.051186 0)
(0.0548717 -0.0506117 0)
(0.0563443 -0.0488506 0)
(0.0574307 -0.053166 0)
(0.0534923 -0.0696952 0)
(0.0484755 -0.0770469 0)
(0.0483016 -0.0763278 0)
(0.0525422 -0.0761252 0)
(0.0707807 -0.0332513 0)
(0.0744928 -0.0434669 0)
(0.0769866 -0.05432 0)
(0.076963 -0.0594704 0)
(0.0771542 -0.0581428 0)
(0.0782778 -0.0567651 0)
(0.0772969 -0.05711 0)
(0.0721164 -0.0617413 0)
(0.0669253 -0.0681031 0)
(0.0606032 -0.0721906 0)
(0.0850697 -0.0416289 0)
(0.0871035 -0.0511889 0)
(0.0876254 -0.0582794 0)
(0.0870182 -0.0589394 0)
(0.0859647 -0.0567903 0)
(0.0851274 -0.0552098 0)
(0.0838833 -0.055621 0)
(0.0785919 -0.0552712 0)
(0.0718673 -0.0553833 0)
(0.062211 -0.0559734 0)
(0.0932934 -0.041774 0)
(0.0944986 -0.0488161 0)
(0.0930382 -0.055055 0)
(0.0905127 -0.0566689 0)
(0.0882782 -0.0547861 0)
(0.0870167 -0.0507523 0)
(0.0835726 -0.042404 0)
(0.0770989 -0.0406713 0)
(0.072335 -0.0415334 0)
(0.0662723 -0.0358758 0)
(0.0930368 -0.0454176 0)
(0.0919014 -0.0476808 0)
(0.0901468 -0.0505254 0)
(0.0876611 -0.0521082 0)
(0.085312 -0.0509778 0)
(0.0831093 -0.0468022 0)
(0.0803469 -0.0335728 0)
(0.0748086 -0.0321224 0)
(0.0692052 -0.0319763 0)
(0.0566868 -0.0151195 0)
(0.0774781 -0.0411328 0)
(0.0747708 -0.0454173 0)
(0.0732772 -0.0474006 0)
(0.0705321 -0.0473445 0)
(0.0637752 -0.0458368 0)
(0.0573996 -0.0404004 0)
(0.0560801 -0.033887 0)
(0.0478802 -0.0228367 0)
(0.0245075 0.00615057 0)
(0.0116071 0.023318 0)
(0.0501039 -0.0345938 0)
(0.0467115 -0.0401935 0)
(0.0434121 -0.0394166 0)
(0.0359098 -0.0335236 0)
(0.028575 -0.0297395 0)
(0.0245518 -0.0252697 0)
(0.0170116 0.00156018 0)
(-0.00125559 0.0310953 0)
(-0.0101747 0.0302603 0)
(-0.0117951 0.011149 0)
(0.0259076 -0.035705 0)
(0.0320482 -0.03164 0)
(0.0288979 -0.0228262 0)
(0.0235542 -0.0233014 0)
(0.021516 -0.0240327 0)
(0.0191764 -0.0221365 0)
(0.0159997 0.0100407 0)
(0.000349858 0.0389611 0)
(-0.0118907 0.0438792 0)
(-0.00885883 0.0254667 0)
(-0.0062627 -0.0579113 0)
(0.00549196 -0.0448968 0)
(0.0171956 -0.0220881 0)
(0.022553 -0.0174236 0)
(0.0269773 -0.0179625 0)
(0.0325391 -0.00410119 0)
(0.0242109 0.0451774 0)
(-0.000180496 0.0786618 0)
(-0.00750175 0.039807 0)
(-0.00926428 0.0143527 0)
(-0.0138798 -0.0748085 0)
(-0.00543288 -0.0712027 0)
(0.00567536 -0.0572277 0)
(0.0213808 -0.0497894 0)
(0.0310728 -0.0462811 0)
(0.0421252 -0.0256558 0)
(0.0502076 0.0518996 0)
(0.0452138 0.0992635 0)
(0.0399729 0.0763049 0)
(0.0207372 0.0238425 0)
(-0.00351495 -0.088716 0)
(0.00171752 -0.0830472 0)
(0.0106776 -0.0761423 0)
(0.0196723 -0.066 0)
(0.0279891 -0.0554157 0)
(0.0273706 -0.0335415 0)
(0.0403326 0.0440454 0)
(0.0482693 0.0948101 0)
(0.0500438 0.0926194 0)
(0.0440026 0.0667091 0)
(0.0278218 -0.101611 0)
(0.0330924 -0.101497 0)
(0.038016 -0.0914544 0)
(0.0369332 -0.0755944 0)
(0.0351203 -0.0576928 0)
(0.0280296 -0.0361219 0)
(0.0281316 0.0144836 0)
(0.0416561 0.0814199 0)
(0.0503345 0.0898056 0)
(0.0484704 0.088385 0)
(0.0497967 -0.114584 0)
(0.0537891 -0.109364 0)
(0.0573088 -0.0884469 0)
(0.0610514 -0.0694302 0)
(0.0590098 -0.0500614 0)
(0.0574513 -0.0200148 0)
(0.0516997 0.00105677 0)
(0.0522944 0.0530823 0)
(0.0579658 0.0822634 0)
(0.0557098 0.0935759 0)
(0.0567637 -0.130458 0)
(0.059595 -0.12464 0)
(0.0639013 -0.102982 0)
(0.0668783 -0.0714556 0)
(0.0663546 -0.0457662 0)
(0.0651104 -0.0145097 0)
(0.062685 0.0167342 0)
(0.0568147 0.0530109 0)
(0.0595217 0.0824078 0)
(0.0628903 0.0936664 0)
(0.0487351 -0.145343 0)
(0.0505939 -0.136273 0)
(0.0496706 -0.114217 0)
(0.053833 -0.0846161 0)
(0.0532328 -0.0551629 0)
(0.0541839 -0.0180765 0)
(0.0471762 0.019118 0)
(0.0423888 0.0529787 0)
(0.0457214 0.0783069 0)
(0.0506009 0.0887574 0)
(0.000601142 -0.138902 0)
(-0.00484343 -0.121212 0)
(-0.00878725 -0.103765 0)
(-0.00678461 -0.0791418 0)
(-0.00801152 -0.0411869 0)
(-0.00789258 0.00951211 0)
(-0.0103882 0.0343693 0)
(-0.00614915 0.0494693 0)
(0.000504862 0.059309 0)
(0.00999246 0.0748772 0)
(-0.0293385 -0.114937 0)
(-0.0393782 -0.104641 0)
(-0.045221 -0.0934137 0)
(-0.05883 -0.0715 0)
(-0.0694361 -0.0383099 0)
(-0.0621325 0.00118739 0)
(-0.0628299 0.0275823 0)
(-0.059731 0.04025 0)
(-0.0537387 0.0643351 0)
(-0.0518852 0.0793549 0)
(-0.0338503 -0.0994118 0)
(-0.0543984 -0.0943741 0)
(-0.0682531 -0.0756807 0)
(-0.0836442 -0.0406748 0)
(-0.0923431 -0.0208804 0)
(-0.0895542 -0.00287007 0)
(-0.0838873 0.0128209 0)
(-0.0827285 0.0262857 0)
(-0.078563 0.04617 0)
(-0.0733392 0.0524868 0)
(-0.0234611 -0.0491075 0)
(-0.0555078 -0.0372359 0)
(-0.085194 -0.0375876 0)
(-0.0959672 -0.0286301 0)
(-0.100644 -0.0182087 0)
(-0.100486 -0.0107367 0)
(-0.0989634 0.00637531 0)
(-0.09691 0.0325678 0)
(-0.0950264 0.0413778 0)
(-0.0942869 0.0422976 0)
(-0.0314903 -0.00660416 0)
(-0.0611276 0.0130069 0)
(-0.0912653 -0.00260757 0)
(-0.108699 -0.00957507 0)
(-0.117894 -0.00595179 0)
(-0.122784 -0.0067353 0)
(-0.125838 0.00459219 0)
(-0.123648 0.0237317 0)
(-0.120353 0.0392081 0)
(-0.126269 0.0538148 0)
(-0.0294933 0.0484801 0)
(-0.0509055 0.066949 0)
(-0.0763928 0.0527952 0)
(-0.120409 0.0301789 0)
(-0.143131 0.0170449 0)
(-0.146901 0.00997974 0)
(-0.154405 0.0124487 0)
(-0.157703 0.0262935 0)
(-0.157969 0.0495599 0)
(-0.162167 0.0730511 0)
(-0.0468303 0.0952558 0)
(-0.0586732 0.110321 0)
(-0.0818532 0.118898 0)
(-0.130159 0.111692 0)
(-0.164826 0.0425552 0)
(-0.166845 0.0207866 0)
(-0.171255 0.0176229 0)
(-0.172489 0.0235226 0)
(-0.170123 0.0467481 0)
(-0.16917 0.076615 0)
(-0.046571 0.126958 0)
(-0.0667195 0.147959 0)
(-0.095125 0.183809 0)
(-0.108491 0.185584 0)
(-0.136868 0.0870734 0)
(-0.137189 0.0364398 0)
(-0.142902 0.0261983 0)
(-0.150997 0.0275563 0)
(-0.158657 0.0465775 0)
(-0.164885 0.0771692 0)
(-0.0578179 0.160463 0)
(-0.083292 0.196644 0)
(-0.0914229 0.211683 0)
(-0.0970315 0.196759 0)
(-0.0911196 0.106035 0)
(-0.0846072 0.0524686 0)
(-0.0898031 0.0465744 0)
(-0.0982384 0.0556474 0)
(-0.11691 0.0748836 0)
(-0.150792 0.0933244 0)
(-0.0873275 0.204342 0)
(-0.0975054 0.219308 0)
(-0.0996943 0.218416 0)
(-0.0836212 0.176472 0)
(-0.0606289 0.0783194 0)
(-0.0578182 0.047708 0)
(-0.0577294 0.0521264 0)
(-0.0619857 0.0820112 0)
(-0.0811702 0.133114 0)
(-0.125144 0.150217 0)
(-0.106911 0.221891 0)
(-0.108095 0.225255 0)
(-0.099596 0.200009 0)
(-0.0802737 0.109769 0)
(-0.0661228 0.0477937 0)
(-0.0607073 0.0404434 0)
(-0.0572908 0.0538318 0)
(-0.0575513 0.10177 0)
(-0.0681627 0.193222 0)
(-0.0819331 0.222071 0)
(-0.122031 0.227934 0)
(-0.125961 0.21643 0)
(-0.117009 0.160385 0)
(-0.108466 0.0741532 0)
(-0.105279 0.0341435 0)
(-0.103245 0.0290754 0)
(-0.0975997 0.0432285 0)
(-0.0851322 0.106521 0)
(-0.0711155 0.194769 0)
(-0.0637132 0.222917 0)
(-0.146355 0.240489 0)
(-0.133808 0.196164 0)
(-0.119418 0.151484 0)
(-0.127202 0.0886541 0)
(-0.15768 0.0386716 0)
(-0.161408 0.0212059 0)
(-0.161867 0.0259132 0)
(-0.154712 0.0746935 0)
(-0.113752 0.165351 0)
(-0.0870349 0.199921 0)
(-0.133703 0.2312 0)
(-0.11189 0.171341 0)
(-0.104228 0.159451 0)
(-0.11799 0.147844 0)
(-0.167581 0.0915577 0)
(-0.185104 0.0341951 0)
(-0.189939 0.0259171 0)
(-0.190338 0.0327981 0)
(-0.171795 0.0721623 0)
(-0.136559 0.116699 0)
(-0.095865 0.260239 0)
(-0.0916383 0.164433 0)
(-0.0967722 0.161553 0)
(-0.1011 0.181137 0)
(-0.109371 0.170171 0)
(-0.13084 0.0728676 0)
(-0.144317 0.0370802 0)
(-0.149682 0.0330414 0)
(-0.14655 0.0391496 0)
(-0.131344 0.0480525 0)
(-0.051789 0.29562 0)
(-0.0626429 0.184741 0)
(-0.0692642 0.165724 0)
(-0.0660962 0.171036 0)
(-0.0553344 0.165946 0)
(-0.0580029 0.122005 0)
(-0.0726383 0.0723266 0)
(-0.0713421 0.0387873 0)
(-0.067157 0.032249 0)
(-0.0653583 0.0314671 0)
(-0.0377897 0.296327 0)
(-0.0371907 0.204039 0)
(-0.0379904 0.165637 0)
(-0.0289884 0.151976 0)
(-0.0130694 0.139695 0)
(-0.00595221 0.124476 0)
(-0.00378015 0.0857546 0)
(0.000385296 0.0363614 0)
(0.00297797 0.0196999 0)
(0.00737532 0.0331013 0)
(-0.0436278 0.268927 0)
(-0.0296222 0.199912 0)
(-0.0220395 0.151734 0)
(-0.00570993 0.117052 0)
(0.00790416 0.112853 0)
(0.0171746 0.102062 0)
(0.0344979 0.0599342 0)
(0.0384581 0.0340923 0)
(0.0324451 0.0164659 0)
(0.0317146 0.0163591 0)
(-0.0445618 0.207212 0)
(-0.0239098 0.166533 0)
(-0.00453752 0.116504 0)
(0.00928262 0.0881932 0)
(0.0200986 0.0908148 0)
(0.0370427 0.0704438 0)
(0.0511549 0.0472028 0)
(0.0487508 0.0429519 0)
(0.0440465 0.027288 0)
(0.0488807 0.0102794 0)
(-0.0332504 0.156507 0)
(-0.0120497 0.122057 0)
(-0.00337645 0.0898517 0)
(-0.00525503 0.0745221 0)
(0.00997717 0.0595074 0)
(0.0232759 0.0201528 0)
(0.0382642 0.037397 0)
(0.0380686 0.0427063 0)
(0.0342604 0.0210676 0)
(0.0322684 -0.00721132 0)
(-0.0483324 0.108064 0)
(-0.0315655 0.106321 0)
(-0.0237569 0.0887354 0)
(-0.0166497 0.0533483 0)
(-0.00705013 0.0162889 0)
(-0.00672012 0.00871232 0)
(-0.0165666 0.0434431 0)
(-0.0210576 0.0497812 0)
(-0.0375975 0.0332614 0)
(-0.0548719 0.0333267 0)
(-0.0555931 0.0862338 0)
(-0.0486296 0.0830638 0)
(-0.0357952 0.0671793 0)
(-0.0324415 0.0461686 0)
(-0.0380533 0.0354367 0)
(-0.0571183 0.0494696 0)
(-0.0579339 0.0653081 0)
(-0.0579402 0.06717 0)
(-0.061338 0.058186 0)
(-0.0636169 0.0466686 0)
(-0.0510624 0.0761259 0)
(-0.0446576 0.0664343 0)
(-0.0409573 0.0618939 0)
(-0.0428211 0.0577781 0)
(-0.0493407 0.0570562 0)
(-0.0540149 0.059506 0)
(-0.0552233 0.0609587 0)
(-0.0521384 0.0569911 0)
(-0.0472722 0.0506569 0)
(-0.0402647 0.0419559 0)
(-0.0421475 0.0568785 0)
(-0.0379251 0.0582056 0)
(-0.0359219 0.0589148 0)
(-0.0359207 0.0576538 0)
(-0.0398073 0.0558228 0)
(-0.0422682 0.0602291 0)
(-0.0427178 0.0609559 0)
(-0.0272076 0.0489091 0)
(-0.00422364 0.0308776 0)
(0.0149469 0.0231975 0)
(-0.021998 0.0604472 0)
(-0.0224018 0.0519112 0)
(-0.0134619 0.0532419 0)
(-0.0041118 0.067082 0)
(0.00339971 0.0712388 0)
(3.17653e-05 0.0841767 0)
(0.00648651 0.0438097 0)
(0.0307091 -0.0345341 0)
(0.0497417 -0.0454522 0)
(0.0584351 0.00129611 0)
(0.00460883 0.0590718 0)
(0.015377 0.0433108 0)
(0.0246656 0.0238222 0)
(0.0292696 0.0305314 0)
(0.0448553 0.0340632 0)
(0.0573094 0.0350674 0)
(0.0899841 -0.00179623 0)
(0.0846 -0.0308804 0)
(0.0669416 -0.0260774 0)
(0.0677465 -0.00268462 0)
(0.0247222 0.0125803 0)
(0.0465886 0.010939 0)
(0.0655396 0.0136487 0)
(0.0765191 0.0210743 0)
(0.0963972 0.0175424 0)
(0.114178 0.0130687 0)
(0.118156 0.00255667 0)
(0.110095 0.0075916 0)
(0.106822 -0.0090806 0)
(0.102911 -0.0355619 0)
(0.102481 -0.0251693 0)
(0.111879 -0.0241033 0)
(0.120634 -0.0254358 0)
(0.128235 -0.0265283 0)
(0.138722 -0.0334834 0)
(0.143159 -0.0282066 0)
(0.153576 -0.0162268 0)
(0.166981 -0.000213715 0)
(0.178156 -0.00316624 0)
(0.185064 -0.0272511 0)
(0.139902 -0.0522894 0)
(0.162698 -0.036223 0)
(0.187909 -0.0260185 0)
(0.215132 -0.011779 0)
(0.236404 -0.00603215 0)
(0.254968 -0.0191611 0)
(0.276101 -0.0333861 0)
(0.298539 -0.0351652 0)
(0.320049 -0.0291494 0)
(0.329064 -0.0259133 0)
(0.0888146 -0.105725 0)
(0.106681 -0.114722 0)
(0.129788 -0.116386 0)
(0.155419 -0.107773 0)
(0.185129 -0.10381 0)
(0.217426 -0.117433 0)
(0.255098 -0.123562 0)
(0.291841 -0.103694 0)
(0.320261 -0.069523 0)
(0.34367 -0.0356971 0)
(0.0588831 -0.120617 0)
(0.0838616 -0.15134 0)
(0.104562 -0.144678 0)
(0.116421 -0.130354 0)
(0.117499 -0.138845 0)
(0.136152 -0.166891 0)
(0.166793 -0.166206 0)
(0.196724 -0.136186 0)
(0.222584 -0.111814 0)
(0.255354 -0.0928952 0)
(0.0774119 -0.181628 0)
(0.100156 -0.203475 0)
(0.111238 -0.168397 0)
(0.0801853 -0.105013 0)
(0.0662029 -0.127943 0)
(0.0788258 -0.212039 0)
(0.113099 -0.236286 0)
(0.152569 -0.223842 0)
(0.192541 -0.20449 0)
(0.235328 -0.172344 0)
(0.102905 -0.196978 0)
(0.0943729 -0.207265 0)
(0.0672791 -0.114096 0)
(0.0356899 -0.0370921 0)
(0.0578777 -0.173897 0)
(0.104101 -0.305256 0)
(0.131877 -0.333791 0)
(0.15702 -0.323313 0)
(0.182888 -0.298356 0)
(0.207029 -0.248688 0)
(0.0971621 -0.177923 0)
(0.0535593 -0.144269 0)
(0.00670606 -0.0223236 0)
(0.0419759 -0.0929989 0)
(0.0919145 -0.269661 0)
(0.115648 -0.331114 0)
(0.127333 -0.349894 0)
(0.121708 -0.343877 0)
(0.124914 -0.312438 0)
(0.124971 -0.245009 0)
(-0.00795515 -0.107357 0)
(-0.0234595 -0.0576894 0)
(-0.0145134 -0.0559995 0)
(0.0437352 -0.245934 0)
(0.0681708 -0.307139 0)
(0.0628509 -0.34596 0)
(0.0484052 -0.337533 0)
(0.0241033 -0.30856 0)
(0.0283794 -0.252391 0)
(0.0176905 -0.233782 0)
(-0.0449457 -0.0815182 0)
(-0.0459939 -0.0817112 0)
(0.00664658 -0.184708 0)
(0.023461 -0.268484 0)
(0.00672737 -0.283673 0)
(-0.0164903 -0.299399 0)
(-0.0320243 -0.293315 0)
(-0.0333095 -0.282067 0)
(-0.0325158 -0.277407 0)
(-0.0231143 -0.273139 0)
(-0.042396 -0.0904916 0)
(-0.0301231 -0.139879 0)
(-0.0019623 -0.206594 0)
(-0.0460519 -0.226724 0)
(-0.0509803 -0.247859 0)
(-0.0608294 -0.281275 0)
(-0.0647433 -0.294117 0)
(-0.0646071 -0.295381 0)
(-0.0641064 -0.275364 0)
(-0.0684263 -0.251227 0)
(-0.0553379 -0.136585 0)
(-0.0384318 -0.160997 0)
(-0.0588841 -0.179898 0)
(-0.0593856 -0.189871 0)
(-0.0730399 -0.23901 0)
(-0.0764451 -0.27459 0)
(-0.0771299 -0.291422 0)
(-0.0788651 -0.294086 0)
(-0.0809382 -0.283449 0)
(-0.0865202 -0.245463 0)
(-0.117603 -0.166219 0)
(-0.106993 -0.164584 0)
(-0.0949288 -0.172173 0)
(-0.0863869 -0.196631 0)
(-0.082412 -0.235772 0)
(-0.0842392 -0.273967 0)
(-0.0851509 -0.287157 0)
(-0.0887384 -0.290102 0)
(-0.102187 -0.26555 0)
(-0.102727 -0.23754 0)
(-0.160787 -0.175944 0)
(-0.14741 -0.185801 0)
(-0.120539 -0.20383 0)
(-0.104813 -0.211992 0)
(-0.086435 -0.238216 0)
(-0.0849303 -0.264757 0)
(-0.0835183 -0.271939 0)
(-0.0849479 -0.267978 0)
(-0.0994575 -0.251293 0)
(-0.105426 -0.239237 0)
(-0.177577 -0.185705 0)
(-0.180195 -0.226558 0)
(-0.153796 -0.251027 0)
(-0.136127 -0.253401 0)
(-0.105469 -0.26369 0)
(-0.0906128 -0.272133 0)
(-0.0705863 -0.275453 0)
(-0.05982 -0.259726 0)
(-0.0506335 -0.223478 0)
(-0.0726876 -0.199995 0)
(-0.161963 -0.181325 0)
(-0.170592 -0.257405 0)
(-0.159634 -0.299829 0)
(-0.148503 -0.333218 0)
(-0.115931 -0.344224 0)
(-0.0967668 -0.336827 0)
(-0.0653363 -0.332134 0)
(-0.0473298 -0.298997 0)
(-0.0212686 -0.232451 0)
(-0.0185856 -0.152681 0)
(-0.0642582 -0.175608 0)
(-0.067493 -0.256529 0)
(-0.0779775 -0.317138 0)
(-0.0858356 -0.368386 0)
(-0.0771865 -0.397045 0)
(-0.0670035 -0.402232 0)
(-0.0473641 -0.384266 0)
(-0.0340093 -0.357052 0)
(-0.00829922 -0.284133 0)
(-0.00796721 -0.140065 0)
(0.0809085 -0.137464 0)
(0.0680789 -0.194921 0)
(0.0506561 -0.24839 0)
(0.0358523 -0.325861 0)
(0.0328575 -0.377701 0)
(0.021187 -0.398062 0)
(0.0171795 -0.386703 0)
(0.0122118 -0.365937 0)
(0.0195797 -0.29961 0)
(0.0150297 -0.1637 0)
(0.129446 -0.0936885 0)
(0.110831 -0.170126 0)
(0.0921094 -0.21797 0)
(0.0742854 -0.293139 0)
(0.0750185 -0.352194 0)
(0.0634677 -0.372893 0)
(0.0603387 -0.369809 0)
(0.0541814 -0.355445 0)
(0.0619643 -0.299014 0)
(0.0517448 -0.152426 0)
(0.127261 -0.0649719 0)
(0.115501 -0.134488 0)
(0.102397 -0.196487 0)
(0.0899825 -0.280935 0)
(0.0929404 -0.346215 0)
(0.0821282 -0.367285 0)
(0.0764227 -0.366137 0)
(0.0701299 -0.356215 0)
(0.0753679 -0.293481 0)
(0.0611131 -0.0896085 0)
(0.105097 -0.053919 0)
(0.0813232 -0.110812 0)
(0.0839477 -0.186202 0)
(0.0870361 -0.281949 0)
(0.0936308 -0.336441 0)
(0.0835057 -0.351244 0)
(0.0799344 -0.363385 0)
(0.0725698 -0.359247 0)
(0.0768344 -0.297501 0)
(0.0778853 -0.0347875 0)
(0.059155 -0.0518482 0)
(0.0237677 -0.094935 0)
(0.0377278 -0.227654 0)
(0.0591218 -0.306058 0)
(0.0500183 -0.322816 0)
(0.0410622 -0.337457 0)
(0.0499851 -0.359196 0)
(0.0392531 -0.376369 0)
(0.0587384 -0.348303 0)
(0.0937642 -0.0562853 0)
(0.00395737 0.0552508 0)
(0.0185033 -0.0987903 0)
(0.0333394 -0.257733 0)
(0.0327003 -0.290344 0)
(0.0258101 -0.299681 0)
(0.0101561 -0.318585 0)
(-0.0052815 -0.340391 0)
(-0.0436037 -0.3589 0)
(-0.0511966 -0.359789 0)
(-1.08726e-05 0.167714 0)
(-0.0848809 -0.0330776 0)
(0.0287765 -0.204904 0)
(0.0165053 -0.26396 0)
(0.0168446 -0.279893 0)
(0.0125792 -0.280834 0)
(-0.00233557 -0.277642 0)
(-0.0201017 -0.279943 0)
(-0.0625657 -0.28533 0)
(-0.0835604 -0.265101 0)
(-0.0963268 -0.13761 0)
(-0.000182 0.0615891 0)
(0.0639555 -0.203151 0)
(0.0430967 -0.249706 0)
(0.0268254 -0.24841 0)
(0.0128829 -0.251311 0)
(-0.0111645 -0.253221 0)
(-0.0216193 -0.249808 0)
(-0.049841 -0.240064 0)
(-0.0615809 -0.210209 0)
(-0.073635 -0.116438 0)
(-0.0180258 -0.000918817 0)
(-0.0170736 -0.000666639 0)
(-0.0159126 0.0001793 0)
(-0.0143819 0.000295968 0)
(-0.0123708 -0.000605795 0)
(-0.00992713 -0.00114864 0)
(-0.00773797 0.000137421 0)
(-0.00496769 -0.00171696 0)
(-0.000503283 -0.00411931 0)
(0.00344876 -0.00277648 0)
(0.0052791 -0.00175853 0)
(0.00644282 -0.00208407 0)
(0.00797204 -0.00269568 0)
(0.0109441 -0.00343938 0)
(0.0147447 -0.00272914 0)
(0.0174048 -0.00103331 0)
(0.0185851 1.83042e-05 0)
(0.0183449 0.00133062 0)
(0.0167506 0.00262852 0)
(0.0140168 0.00316211 0)
(0.0102303 0.00255223 0)
(0.00675844 0.00231372 0)
(0.0028275 0.00415622 0)
(-0.00205308 0.00256343 0)
(-0.00464873 0.000429868 0)
(-0.00543355 -0.00176785 0)
(-0.00468825 -0.00233221 0)
(-0.0041301 -0.00155131 0)
(-0.00410938 -0.000420926 0)
(-0.00349583 0.00070328 0)
(-0.00157253 -0.000937915 0)