/*--------------------------------*- C++ -*----------------------------------*\
  =========                 |
  \\      /  F ield         | OpenFOAM: The Open Source CFD Toolbox
   \\    /   O peration     | Website:  https://openfoam.org
    \\  /    A nd           | Version:  8
     \\/     M anipulation  |
\*---------------------------------------------------------------------------*/
FoamFile
{
    version     2.0;
    format      ascii;
    class       volScalarField;
    location    "9.6";
    object      p_rgh;
}
// * * * * * * * * * * * * * * * * * * * * * * * * * * * * * * * * * * * * * //

dimensions      [1 -1 -2 0 0 0 0];

internalField   nonuniform List<scalar> 
9150
(
1964.66
1963.65
1963
1962.52
1962.29
1962.29
1962.54
1963.01
1963.64
1964.63
1964.22
1963.7
1963.28
1962.95
1962.77
1962.78
1962.96
1963.27
1963.69
1964.2
1963.95
1963.67
1963.41
1963.19
1963.08
1963.07
1963.18
1963.4
1963.65
1963.93
1963.83
1963.65
1963.48
1963.32
1963.23
1963.24
1963.32
1963.48
1963.64
1963.81
1963.83
1963.65
1963.51
1963.38
1963.31
1963.32
1963.37
1963.5
1963.64
1963.81
1952.33
1951.59
1951.93
1952.42
1952.75
1952.89
1952.79
1952.43
1952.27
1953.08
1956.74
1955.98
1955.89
1955.85
1956
1956.04
1955.99
1956.12
1956.32
1957.03
1959.97
1959.24
1958.91
1958.55
1958.5
1958.52
1958.59
1958.93
1959.28
1960.05
1962.74
1961.58
1961.1
1960.51
1960.33
1960.34
1960.51
1961.18
1961.63
1962.77
1965.34
1963.31
1962.49
1961.82
1961.53
1961.52
1961.78
1962.5
1963.27
1965.29
1928.69
1934.75
1938.44
1941.09
1942.94
1944.32
1945.51
1946.82
1948.47
1906.9
1939.13
1940.46
1941.96
1943.47
1944.63
1945.86
1947.16
1948.26
1949.68
1950.05
1942.45
1943.41
1943.72
1944.93
1945.62
1946.33
1947.08
1947.52
1948.97
1949.17
1941.62
1944.34
1944.29
1946.01
1946.77
1947.4
1947.54
1946.84
1947.67
1945.47
1935.96
1946.3
1947.07
1948.73
1949.43
1949.58
1949.29
1948.48
1947.94
1939.07
1799.83
1799.83
1799.76
1799.62
1799.55
1799.48
1799.43
1799.39
1799.39
1799.42
1799.79
1799.8
1799.72
1799.63
1799.5
1799.4
1799.32
1799.24
1799.27
1799.28
1799.52
1799.56
1799.4
1799.43
1799.35
1799.32
1799.19
1798.92
1799.03
1799.09
1799.35
1799.17
1799.07
1799.02
1799.31
1798.77
1798.62
1798.67
1798.9
1799.47
1799.4
1799.38
1799.07
1798.69
1798.62
1798.54
1798.52
1798.57
1799.29
1799.55
1799.38
1799.43
1799.39
1799.26
1798.58
1798.57
1798.55
1798.98
1799.55
1799.68
1798.95
1799.08
1799.56
1799.56
1799.4
1799.01
1799.16
1799.6
1799.73
1799.76
1798.89
1798.87
1799.18
1799.71
1799.68
1799.66
1799.67
1799.74
1799.85
1799.94
1798.97
1798.95
1799.42
1799.85
1799.79
1799.76
1799.79
1799.84
1799.94
1800.1
1799.42
1799.84
1800.08
1799.97
1799.88
1799.8
1799.79
1799.8
1799.87
1799.9
1800.3
1800.17
1800.02
1799.88
1799.79
1799.75
1799.78
1798.82
1798.08
1798.21
1799.96
1799.88
1799.74
1798.01
1796.55
1796.55
1796.31
1797.96
1797.69
1797.68
1793.19
1793.24
1793.2
1794.97
1799.1
1799.23
1799.02
1798.78
1798.42
1798.03
1793.02
1795.14
1800.52
1800.19
1799.92
1799.46
1799.02
1798.64
1798.34
1798.13
1798.27
1801.28
1800.99
1800.65
1800.27
1799.88
1799.5
1799.19
1798.92
1798.71
1802.05
1801.86
1801.55
1801.19
1800.83
1800.47
1800.08
1799.57
1799.89
1799.81
1800.63
1797.92
1801.66
1801.73
1801.52
1801
1799.06
1798.95
1800.16
1800.87
1798.46
1790.87
1792.97
1802.36
1802.31
1801.32
1799.59
1799.51
1799.45
1800.8
1790.49
1790.42
1790.24
1790.89
1801.69
1802.62
1801.56
1800.1
1800.07
1800.01
1790.75
1790.47
1790.24
1790.02
1789.88
1794.69
1802.51
1802.55
1801.85
1800.36
1794.71
1800.43
1796.53
1790.23
1789.95
1791.31
1799.6
1802.91
1803.41
1803.12
1802.58
1802.39
1804.28
1802.72
1801.24
1802.4
1802.51
1802.91
1803.33
1803.14
1805.14
1805.05
1804.98
1804.88
1804.45
1804.09
1803.72
1803.43
1803.18
1799.84
1805.38
1805.36
1805.23
1804.95
1804.49
1803.93
1801.07
1799.86
1797.12
1774.31
1805.34
1805.26
1804.94
1804.5
1803.92
1801.62
1789.77
1784.84
1770.53
1770.52
1805.12
1804.95
1804.58
1804.14
1803.68
1803.17
1802.77
1793.35
1768.8
1769.18
1803.22
1803.82
1803.71
1803.54
1803.35
1803.15
1803.01
1803.06
1798.42
1785.16
1802.43
1802.39
1802.31
1802.26
1802.2
1802.08
1801.91
1801.85
1801.31
1790.9
1800.03
1799.99
1800.07
1800.29
1800.54
1800.88
1801.36
1801.95
1791.08
1771.68
1797.16
1797.19
1797.34
1797.71
1798.22
1798.8
1799.5
1800.46
1801.96
1803.53
1782.36
1782.34
1789.29
1789.47
1792.82
1795.86
1797.2
1797.85
1798.87
1800.64
1787.78
1778.34
1778.69
1779.58
1785.1
1785.74
1772.87
1765.56
1766.12
1780.62
1792.71
1793.18
1793.81
1794.95
1796.5
1797.32
1766.47
1735.61
1735.74
1736.12
1793.96
1794.54
1795.54
1796.89
1798.21
1799.22
1768.37
1735.3
1735.82
1736.27
1797.54
1796.47
1797.05
1799.28
1800.58
1801.65
1801.54
1761.06
1735.26
1735.73
1766.41
1766.7
1784.24
1802.23
1802.97
1803.51
1790.65
1787.24
1756.39
1737.09
1768.68
1784.19
1804.44
1804.44
1804.06
1805.16
1775.68
1768.37
1774.11
1802.89
1807.31
1807.01
1806.23
1806.28
1770.11
1742.46
1767.41
1783.36
1795.11
1803.58
1809.82
1809.67
1756.23
1741.38
1741.89
1742.6
1770.62
1805.17
1804.55
1784.8
1745.14
1744.8
1741.59
1741.73
1741.85
1762.39
1807.59
1807.52
1774.65
1714.4
1754.49
1744.92
1773.08
1790.25
1808.2
1808.83
1808.64
1799.33
1713.97
1712.89
1812.22
1763.03
1749.96
1801
1807.79
1808.39
1809.05
1759.87
1711.63
1712.15
1715.63
1715.57
1716.12
1715.96
1736.15
1798.85
1811.97
1744.55
1709.18
1709.19
1716.5
1716.58
1716.86
1770.76
1774.79
1720.97
1708.05
1707.53
1707.47
1707.37
1761.79
1772.81
1796.04
1796.58
1767.6
1722.11
1706.51
1705.17
1704.72
1704
1785.42
1803.5
1818.55
1817.75
1816.51
1814.81
1812.88
1810.23
1809.03
1809.16
1806.35
1816.19
1818.51
1818.37
1816.83
1814.88
1812.83
1810.36
1809.46
1810.18
1807.29
1820.14
1819.35
1818.43
1817.24
1815.82
1814.37
1813.26
1812.6
1812.19
1817.55
1821.11
1820.27
1819.27
1818.16
1817.08
1815.96
1815.07
1814.51
1814.25
1821.44
1822.47
1821.5
1820.44
1819.39
1818.4
1817.49
1816.72
1816.24
1816.03
1822.65
1824.11
1822.93
1821.73
1820.64
1819.54
1818.69
1818.11
1817.76
1817.6
1826.34
1825.39
1824.27
1823.24
1822.14
1820.94
1819.89
1814.49
1809.57
1816.44
1826.82
1826.27
1825.6
1824.85
1824.14
1816.33
1787.05
1786.66
1801.96
1818.28
1812.32
1827.05
1827.08
1826.46
1822.03
1786.98
1785.26
1790.91
1798.64
1752.63
1796.41
1828.79
1829.38
1824.65
1823.55
1790.76
1786.22
1797.62
1799.6
1726.18
1770.87
1778.95
1769.92
1820.55
1825.83
1806.52
1786.2
1786.17
1800.18
1792.3
1633.2
1633.92
1634.2
1746
1826.45
1825.55
1788.73
1786.22
1791.82
1798.17
1630.72
1630.8
1630.22
1629.46
1764.17
1825.44
1822.87
1788.13
1787.37
1786.97
1629.68
1629.6
1628.76
1627.66
1627.37
1740.83
1823.31
1823.49
1799.81
1788.57
1630.92
1631.03
1629.7
1628.07
1626.94
1625.92
1791.6
1827.33
1829.74
1823.57
1771.09
1722.87
1702.62
1696.53
1700.74
1745.27
1808.96
1829.67
1830.34
1829.23
1841.56
1842.13
1840.49
1836.69
1834.72
1834.93
1833
1831.43
1830.02
1828.54
1840.85
1840.77
1839.03
1834.26
1830.33
1807.21
1804.99
1826.51
1829.49
1828.36
1838.38
1839.16
1833.87
1702.87
1642.46
1641.55
1643.07
1644.41
1697.86
1758.2
1537.08
1780.14
1819.41
1810.63
1683.31
1642.81
1695.17
1729.65
1625.64
1572.07
1386.84
1388.58
1567.52
1752.7
1777.45
1803.16
1784.8
1795.15
1789.22
1712.21
1388.5
1420.98
1474.7
1522.19
1512.3
1392.22
1391.55
1653.9
1810.9
1811.27
1832.9
1846.55
1848.53
1850.46
1846.22
1657.86
1504.15
1419.62
1419.57
1439.08
1833.23
1837.89
1841.35
1843.33
1843.87
1843.78
1843.79
1681.65
1549.62
1354.46
1818.81
1823.8
1828.16
1831.87
1834.75
1836.04
1833.55
1761.84
1738.47
1709.64
1623.52
1756.52
1765.06
1818.22
1823.25
1826.56
1827.77
1807.48
1742.61
1733.11
1598.17
1598.82
1601.36
1692.99
1802.24
1819.01
1819.7
1724.24
1628.3
1631.32
1592.66
1593.84
1595.52
1597.92
1636.84
1814.4
1815.11
1722.69
1620.84
1621.65
1664.14
1588.55
1590.27
1592.95
1596.46
1656.81
1803.88
1803.84
1731.32
1615.05
1805.41
1766.34
1636.95
1587.76
1592.22
1598.22
1691.33
1791.61
1795.09
1797.47
1796.57
1800.31
1804.27
1784.36
1675.69
1602.61
1609.11
1687.95
1786.44
1792.65
1789.16
1793.03
1797.45
1801.65
1805.87
1796.04
1645.2
1615.71
1635.31
1789.93
1784.33
1791.86
1795.39
1799.27
1803.33
1807.31
1769.32
1611.96
1615.37
1669.11
1753.59
1792.88
1796.77
1800.31
1802.48
1803.59
1803.38
1687.16
1613.1
1614.27
1744.6
1797.33
1800.01
1764.48
1670.9
1738.12
1797.29
1793.46
1652.7
1612.35
1762.49
1801.45
1804.89
1536.09
1163.8
1305.31
1600.2
1790.81
1804.29
1659.57
1538.25
1629.35
1473.51
1151.91
1153.1
1153.45
1154.82
1562.72
1809.26
1827.32
1316.95
1157.55
1156.41
1155.7
1156.51
1157.05
1157.32
1158.66
1660.31
1832.59
1815.55
1743.15
1406.01
1155.98
1156.34
1157.03
1158.12
1159.26
1440.25
1833.03
1822.39
1819.98
1822.87
1773.04
1269.1
1156.95
1157.91
1158.71
1408.4
1834.39
1792.95
1775.5
1786.93
1838.19
1841.46
1276.12
1160.55
1159.24
1563.74
1848.66
1799.31
1781.69
1785.62
1845.07
1846.8
1476.04
1170.48
1189.29
1709.8
1855.15
1714.03
1838.06
1849.13
1850.25
1850.72
1556.77
1191.32
1331.31
1807.23
1860.88
1568.75
1698.33
1854.69
1855.98
1854.98
1774.7
1217.88
1470.87
1819.78
1861.63
1574.43
1713.92
1863.36
1863.24
1862.89
1862.92
1519.74
1383.69
1383.19
1555.6
1839.89
1872.11
1870.68
1869.45
1868.5
1868.04
1603.11
1379.51
1379.48
1380.57
1878.9
1877.08
1875.35
1873.86
1872.86
1646.57
1378.57
1378.64
1379.48
1379.56
1883.48
1880.98
1878.57
1841.62
1440.42
1395.24
1388.53
1407.75
1380.2
1380.64
1884.7
1885.1
1812.8
1468.49
1407.42
1401.91
1626.79
1821.26
1812.1
1804.75
1887.44
1870.02
1675.67
1777.98
1817.54
1820.01
1824.81
1832.84
1824.72
1602.43
1890.58
1819.05
1561.78
1511.58
1598.76
1785.77
1821.95
1819.96
1786.52
1852.43
1898.27
1436.86
590.247
664.961
1482.64
1285.26
907.766
903.647
655.503
962.784
1905.12
1404.36
552.617
365.274
339.602
318.628
210.48
51.7824
13.2814
10.4383
1895.84
1910.48
1920.59
1565.96
1200.22
1160.86
854.875
215.139
96.2489
47.0474
1915.05
1927.45
1933.4
1935.55
1936.75
1939.55
1941.46
1490.88
746.844
0.179704
1799.45
1799.52
1799.58
1799.63
1799.66
1799.74
1799.75
1799.74
1799.79
1799.76
1799.73
1799.69
1799.6
1799.48
1799.37
1799.25
1799.14
1799.05
1799
1798.99
1799.02
1799.08
1799.15
1799.21
1799.28
1799.26
1799.29
1799.3
1799.29
1799.25
1799.23
1799.17
1799.09
1799
1798.97
1798.88
1798.75
1798.59
1798.55
1798.6
1799.31
1799.47
1799.56
1799.63
1799.73
1799.69
1799.69
1799.74
1799.72
1799.77
1799.72
1799.66
1799.57
1799.46
1799.32
1799.19
1799.06
1798.96
1798.89
1798.88
1798.9
1798.97
1798.99
1799.16
1799.17
1799.29
1799.37
1799.38
1799.36
1799.31
1799.25
1799.19
1799.11
1799.01
1798.93
1798.8
1798.61
1798.47
1798.38
1798.36
1799.16
1799.26
1799.4
1799.51
1799.56
1799.74
1799.95
1799.93
1799.8
1799.77
1799.64
1799.63
1799.53
1799.37
1799.18
1799.04
1798.82
1798.62
1798.5
1798.4
1798.43
1798.51
1798.66
1798.95
1799.21
1799.32
1799.39
1799.41
1799.38
1799.3
1799.23
1799.18
1798.96
1798.7
1798.48
1798.26
1798.01
1797.96
1797.86
1797.81
1799.57
1799.69
1799.59
1799.55
1799.63
1799.69
1800.08
1800.16
1800.15
1799.87
1799.81
1799.7
1799.62
1799.27
1799.04
1798.8
1798.32
1798.28
1798.17
1798.07
1797.98
1798.01
1798.18
1798.96
1799.12
1799.22
1799.33
1799.42
1799.46
1799.48
1799.45
1798.45
1798.23
1798.33
1798.27
1798.25
1798.22
1797.88
1797.63
1797.53
1799.69
1799.82
1799.95
1800.07
1799.9
1800.02
1800.29
1800.38
1800.38
1800.09
1800.05
1800.27
1799.5
1798.83
1798.59
1798.19
1798.51
1799.22
1799.05
1798.86
1798.35
1797.98
1798.15
1798.95
1799.07
1799.16
1799.28
1799.4
1799.34
1798.08
1798.1
1798.05
1799.25
1799.61
1799.55
1799.49
1799.41
1799.38
1799.47
1798.05
1799.8
1799.96
1800.12
1800.25
1800.37
1800.47
1800.01
1800.42
1800.63
1800.27
1800.24
1800.37
1799.84
1799.15
1799.12
1798.89
1798.92
1799.03
1798.79
1798.68
1798.41
1798.16
1798.4
1798.79
1799.04
1798.96
1797.77
1797.78
1797.92
1797.95
1798.33
1799.72
1799.7
1799.6
1799.51
1799.4
1799.29
1799.27
1799.37
1799.38
1799.91
1800.07
1800.32
1800.46
1799.97
1799.58
1799.81
1800.53
1800.87
1800.69
1801
1800.74
1800.32
1799.82
1798.47
1794.94
1794.89
1796.28
1799.01
1798.86
1798.51
1796.68
1796.66
1796.71
1796.8
1796.99
1797.21
1797.42
1798.99
1799.83
1799.82
1799.82
1799.84
1799.71
1799.51
1799.19
1798.78
1798.1
1796.27
1793.22
1800.09
1800.34
1800.53
1799.78
1799.37
1799.51
1799.74
1800.71
1801.07
1801.36
1801.29
1801.01
1800.51
1796.43
1794.85
1794.69
1794.62
1794.53
1794.3
1797.16
1798.97
1798.94
1797.72
1797.14
1797.97
1798.48
1798.9
1799.27
1799.55
1799.72
1799.85
1799.91
1799.99
1799.88
1799.55
1798.99
1798.11
1795.84
1787.21
1785.42
1800.26
1800.39
1799.39
1799.23
1799.37
1799.47
1800.01
1801.05
1801.36
1801.43
1801.29
1800.95
1800.5
1799.95
1797.69
1794.28
1794.27
1794.24
1794.03
1797.09
1799.12
1798.96
1798.64
1798.34
1797.95
1796.47
1794.25
1795.59
1798.41
1799.11
1799.19
1799.3
1799.3
1799.22
1799.23
1799.13
1799.2
1799.56
1788.41
1785.52
1800.32
1799.54
1798.86
1799.04
1799.15
1799.2
1800.54
1801.01
1801.02
1800.84
1800.49
1800.18
1799.89
1799.76
1799.76
1799.45
1798.81
1798.32
1798.21
1798.46
1798.27
1796.5
1793.55
1791.96
1790.14
1788.61
1788.07
1791.38
1797.72
1798.18
1798.27
1798.04
1798.07
1797.89
1797.95
1798.24
1798.7
1799.51
1800.54
1785.86
1798.37
1799.57
1799.32
1800.37
1799.26
1798.94
1800.1
1800.51
1800.35
1800
1799.63
1799.32
1799.07
1799.03
1799.13
1799.34
1799.54
1799.63
1799.58
1796.51
1788.89
1788.41
1788.4
1788.51
1788.63
1788.68
1790.38
1796.57
1797.82
1797.18
1796.6
1796.05
1795.56
1795.61
1796.03
1796.53
1796.93
1797.57
1794.5
1782.15
1798.14
1799.47
1799.71
1799.98
1799.9
1798.79
1799.45
1799.82
1799.56
1799.16
1798.72
1798.36
1798.21
1797.94
1797.55
1797.89
1798.7
1798.99
1797.89
1788.37
1787.56
1787.57
1788.85
1794.16
1795.83
1798.81
1799.75
1798.7
1797.51
1796.05
1794.21
1791.72
1788.46
1791.72
1793.58
1794.25
1794.95
1796.02
1782.61
1778.94
1798.35
1798.54
1798.84
1799.09
1799.02
1798.26
1798.85
1799.02
1798.7
1798.26
1797.82
1797.44
1797.09
1796.55
1795.42
1796.25
1797.67
1798.12
1798.07
1796.72
1795.41
1796.1
1799.84
1800.03
1800.07
1799.85
1799.28
1798.31
1797.09
1795.29
1792.43
1775.32
1765.88
1775.25
1780.23
1793.87
1794.56
1790.32
1791.41
1796.32
1798.06
1798.15
1798.1
1797.79
1797.82
1798.23
1798.79
1798.48
1797.99
1797.49
1797.04
1796.59
1796.31
1795.24
1793.2
1796.19
1796.97
1797.34
1797.55
1798.22
1798.59
1798.86
1799.09
1799.24
1799.32
1799.28
1798.93
1798.28
1797.19
1796.05
1789.2
1763.4
1764.09
1764.44
1764.72
1764.87
1778.14
1792.75
1793.97
1794.77
1798.44
1797.69
1797.77
1797.92
1797.97
1799.01
1798.79
1798.41
1797.85
1797.18
1796.47
1795.93
1795.56
1792.14
1791.88
1795.17
1796.35
1796.96
1797.51
1797.96
1798.28
1798.48
1798.61
1798.68
1798.82
1798.9
1798.82
1798.54
1797.82
1797.22
1794.88
1770.73
1764.71
1764.87
1764.86
1764.84
1764.28
1767.81
1764.91
1793.24
1798.88
1798.57
1798.66
1798.71
1799.61
1799.76
1799.43
1798.94
1798.28
1797.58
1796.84
1795.4
1792.93
1791.47
1791.5
1794.41
1796.46
1796.97
1797.43
1797.82
1798.1
1798.3
1798.33
1798.41
1798.68
1798.91
1798.92
1798.97
1798.81
1798.56
1798.72
1792.57
1765.31
1765.45
1765.53
1765.53
1765.44
1764.86
1766.06
1797.01
1800.87
1799.94
1799.68
1800.68
1800.89
1800.73
1800.37
1799.48
1797.99
1795.8
1793.71
1792.62
1792.17
1791.99
1792.29
1796.41
1796.9
1797.21
1797.5
1797.75
1798.01
1798.23
1798.57
1798.85
1798.97
1797.02
1796.36
1799.41
1799.83
1799.84
1800.53
1801.56
1802.5
1790.31
1765.76
1765.82
1768.46
1765.63
1794.05
1800.87
1801.69
1801.72
1801.73
1801.72
1801.64
1801.5
1801.17
1799.65
1795.49
1794.93
1794.26
1793.58
1792.98
1792.69
1796.59
1797.26
1797.24
1797.26
1797.39
1797.51
1797.77
1798
1798.52
1798.93
1799.17
1794.31
1790.65
1799.64
1800.25
1800.42
1800.77
1801.91
1802.73
1803.03
1799.09
1790.23
1793.71
1793.65
1801.59
1800.88
1800.11
1801.11
1801.95
1802.07
1801.97
1802.1
1801.86
1801.17
1797.64
1796.47
1796.34
1795.66
1795.9
1797.65
1798.07
1797.83
1797.67
1797.66
1797.77
1797.36
1794.99
1795.54
1798.29
1798.96
1798.44
1790.22
1788.23
1799.28
1800.5
1801.04
1800.98
1801.48
1802.42
1802.54
1800.7
1798.72
1800.75
1802.4
1802.29
1800.93
1800.32
1800.31
1800.31
1800.77
1802.07
1802.67
1802.45
1800.54
1799.6
1800.84
1800.8
1800.3
1799.85
1799.42
1799.04
1798.77
1798.55
1798.59
1798.67
1798.78
1784.16
1777.77
1794.91
1794.26
1786.25
1784.68
1786.14
1798.49
1801.05
1801.56
1801.37
1802.28
1802.54
1802.27
1799.78
1798.09
1798.33
1799.48
1801.55
1800.99
1802.53
1802.33
1802.7
1802.61
1803.01
1802.98
1801.57
1800.12
1799.85
1799.47
1800.95
1801.14
1800.71
1800.3
1796.99
1796.25
1796.62
1800.03
1800.18
1786.07
1773.05
1773.65
1778.6
1787.23
1784.68
1784.94
1784.76
1796.94
1801.79
1802.23
1802.55
1802.77
1802.91
1802.41
1800.6
1798.28
1798.31
1798.26
1801.93
1801.25
1802.95
1802.82
1802.81
1802.93
1803.02
1803.04
1801.45
1800.45
1800.34
1801.24
1802.11
1801.56
1799.48
1796.53
1796.48
1797.84
1799.48
1799.45
1775.87
1772.78
1773.06
1773.42
1776.4
1784.61
1784.78
1784.99
1785.79
1799.47
1802.63
1802.9
1803.18
1803.33
1803.38
1803.15
1802.56
1801.91
1800.82
1800.76
1802.81
1802.81
1791.02
1786.35
1787.36
1794.29
1802.98
1802.72
1801.76
1801.73
1802.58
1802.61
1802.16
1801.59
1797.52
1796.69
1798.71
1800.04
1800.1
1789.16
1771.5
1771.88
1772.05
1778.6
1798.89
1793.5
1785.42
1785.2
1788.23
1800.17
1800.6
1797.62
1801.02
1803.63
1803.76
1803.75
1803.68
1801.95
1801.73
1802.8
1802.79
1802.96
1771.71
1772.04
1772.25
1777.58
1792.86
1797.67
1801.86
1802.7
1802.57
1802.77
1802.22
1801.01
1799.62
1798.49
1799.44
1794.84
1773
1771.51
1771.48
1774.92
1795.11
1803.15
1803.29
1803.17
1803.05
1791.36
1791.17
1800.41
1796.06
1795.89
1796.08
1801.65
1803.96
1803.96
1803.92
1800.37
1797.45
1797.35
1797.29
1797.6
1770.79
1771.01
1771.22
1793.89
1797.21
1797.85
1801.14
1803.54
1803.3
1803.01
1801.82
1784.07
1783.64
1783.71
1791.76
1789.55
1773.5
1771.87
1771.84
1790.52
1803.29
1803.08
1802.37
1801.7
1802.85
1803.38
1803.12
1799.3
1798.41
1795.96
1796.22
1801.24
1803.42
1803.53
1803.71
1803.65
1800.5
1797.91
1797.19
1799.18
1769.66
1770
1788.14
1805.29
1805.19
1804.78
1804.31
1804.07
1803.77
1799.97
1782.54
1782.42
1783.54
1798.31
1802.74
1803.54
1804.24
1804.74
1797.02
1785.84
1785.36
1785.15
1784.91
1785.03
1799.35
1804.04
1804.09
1803.83
1803.47
1803.04
1802.63
1801.97
1798.17
1798.4
1798.89
1803.42
1803.79
1803.81
1802.1
1801.31
1778.31
1776.79
1805.7
1805.56
1805.27
1804.93
1804.66
1804.65
1802.34
1784.16
1782.35
1792.75
1802.46
1802.4
1802.46
1802.8
1803.47
1804.21
1804.76
1804.81
1804.46
1802.75
1785.19
1790.1
1803.76
1804.12
1803.75
1803.23
1802.58
1802.27
1801.32
1799.52
1799.1
1800.25
1802.3
1803.42
1803.58
1803.62
1800.03
1800.78
1773.83
1773.69
1791.19
1801.37
1791.4
1793.06
1797.56
1802.85
1802.3
1800.81
1782.23
1796.12
1797.24
1790.91
1785.79
1791.51
1801.39
1802.83
1803.39
1803.5
1803.3
1792.95
1783.74
1794.11
1802.98
1802.96
1802.62
1800.75
1795.73
1794.7
1801.02
1798.08
1783.66
1792.22
1801.88
1802.57
1803.05
1803.04
1801.29
1803.39
1773.27
1774.48
1776.59
1779.27
1779.67
1779.52
1784.21
1798.85
1783.97
1779.31
1790.69
1792.36
1766.25
1765.59
1765.38
1765.06
1797.29
1802.01
1802.19
1802.14
1801.91
1796.97
1782.4
1792.15
1801.98
1801.86
1801.59
1801.39
1801.37
1772.24
1766.63
1788.09
1781.37
1781.8
1783.59
1793.68
1802.92
1803.22
1803.56
1803.78
1800.79
1799.04
1805.69
1807.46
1807.35
1807.05
1806.75
1806.43
1798.72
1771.74
1766.67
1766.26
1765.74
1765.25
1764.83
1776.25
1800.65
1801.12
1800.52
1800.24
1800.2
1800.15
1785.28
1787.68
1800.05
1800.69
1800.94
1801.08
1801.19
1776.27
1715.96
1747.15
1793.41
1792.7
1780.99
1781.57
1781.6
1800.19
1804.31
1804.53
1801.87
1803.27
1804.47
1805.45
1805.9
1805.56
1806.14
1805.94
1805.7
1805.62
1804.79
1782.55
1765.35
1772.6
1799.87
1802.41
1801
1799.64
1798.2
1796.24
1796.73
1797.82
1796.93
1794.09
1799.24
1800.37
1800.7
1800.83
1800.93
1736.75
1708.43
1707.82
1733.29
1799.22
1804.43
1784.79
1782.29
1788.45
1805.75
1806.33
1771.22
1773.88
1789.18
1796.55
1796.75
1801.95
1805.25
1805.19
1805.04
1804.86
1804.65
1804.34
1803.89
1803.53
1802.92
1801.76
1799.88
1798.35
1791.99
1776.05
1710.6
1730.79
1790.55
1798.32
1799.27
1799.87
1800.2
1800.25
1731.21
1704.16
1705.02
1705.3
1707.47
1790.64
1804.36
1803.93
1794.44
1799.18
1806.97
1807.36
1737.11
1737.45
1766.02
1788.77
1793.47
1802.94
1804.69
1804.59
1804.49
1804.36
1804.19
1803.93
1803.53
1803.02
1792.72
1791.94
1798.76
1799.9
1762.63
1706.57
1707.97
1708.49
1708.93
1739.19
1788.16
1778.19
1738.12
1703.63
1702.7
1703.3
1703.84
1704
1724.95
1799.28
1804.31
1805.13
1798.82
1803.22
1804.78
1807.5
1736.71
1737.27
1769.83
1797.29
1800.57
1804.03
1804.34
1804.23
1804.15
1803.15
1803.7
1803.67
1802.89
1790.01
1771.13
1785.15
1800.12
1799.66
1794.25
1762.52
1747.55
1734.81
1733.41
1717.92
1712.6
1710.38
1709.1
1708.63
1718.3
1731.5
1753.22
1783.68
1802.49
1803.08
1803.34
1803.12
1770.81
1802.26
1804.59
1806.8
1735.86
1766.86
1802.53
1803.6
1803.43
1803.67
1804.09
1804.1
1803.67
1801.77
1803.27
1803.76
1781.27
1768.12
1769.29
1786.12
1789.32
1779.49
1787.19
1800.83
1800.61
1800.31
1798.2
1791.47
1780.1
1768.32
1770.96
1789.19
1797.47
1802.13
1803.64
1802.85
1795.45
1789.82
1794.95
1773.14
1762.87
1782.95
1805.4
1805.57
1784.48
1802.45
1802.46
1803.92
1804.31
1804.31
1804.35
1804.44
1803.13
1802.17
1802.97
1786.01
1767.76
1767.12
1765.31
1739
1703.37
1724.52
1783.69
1801.26
1799.83
1799.82
1799.5
1799.47
1799.68
1800.02
1794.3
1797.47
1804.5
1804.66
1803.4
1776.6
1761.1
1760.52
1760.48
1760.6
1761.11
1762.48
1805.01
1805.33
1802.99
1803.12
1801.14
1804.22
1805
1805.06
1805.15
1805.24
1803.24
1803.03
1795.36
1773.5
1774.09
1772.21
1731.09
1693.42
1695.18
1780.91
1802.89
1801.55
1799.86
1798.44
1797.54
1776.57
1767.03
1748.05
1743.03
1798
1803.65
1804.08
1804.12
1785.48
1764.07
1760.53
1760.55
1760.78
1760.95
1778.44
1806.13
1802.31
1803.59
1792.68
1801.97
1806.03
1806
1806.15
1806.3
1806.33
1804.99
1803.86
1788.01
1776.34
1791.44
1744.55
1689.06
1693.88
1799.35
1805.03
1803.7
1802.07
1800.36
1798.93
1797.62
1752.78
1728.29
1729.21
1730.18
1754.21
1803.66
1804.14
1804.63
1804.86
1800.83
1786.48
1759.97
1760.67
1761.22
1792.94
1802.28
1792.12
1745.47
1782.32
1805.44
1805.24
1807.02
1807.46
1807.74
1808.04
1806.11
1795.02
1789.27
1806.58
1791.98
1694.96
1685.17
1687.84
1789.34
1805.67
1804.55
1803.13
1801.7
1800.36
1798.78
1749.38
1727.75
1728.67
1729.48
1730
1735.85
1770.65
1801.01
1805.64
1805.62
1772.16
1760.69
1760.97
1782.75
1798.43
1795.68
1792.5
1715.33
1774.97
1802.92
1804.77
1807.02
1808.02
1808.58
1808.98
1807.72
1797.2
1796.89
1807.83
1790.09
1683.82
1682.66
1682.42
1682.19
1769.45
1804.88
1804.15
1802.85
1799.4
1800.42
1784.28
1728.74
1729.59
1730.24
1730.61
1730.75
1730.92
1772.73
1808.16
1806.47
1767.58
1761.11
1760.92
1798.74
1798.3
1798.08
1796.49
1715.81
1791.73
1778.67
1809.93
1809.45
1809.64
1809.9
1809.28
1802.82
1799.93
1809.72
1808.81
1780.11
1681.11
1681.26
1681.12
1680.86
1680.31
1723.47
1804.78
1805.27
1783.45
1765.83
1795.64
1790.18
1743.37
1731.64
1731.87
1731.82
1752.93
1798.82
1808.96
1809.46
1800.28
1768.9
1763.2
1791.73
1796.71
1797.29
1797.46
1737.11
1795.63
1765.32
1813.92
1813.34
1812.7
1812.01
1806.17
1803.68
1808.44
1810.33
1809.76
1791.74
1686.25
1680.26
1679.8
1679.19
1678.43
1677.85
1757.06
1808.14
1781.16
1756.15
1756.6
1756.76
1773.43
1779.38
1779
1785.86
1804.97
1808.64
1808.96
1810.13
1810.29
1806.35
1800.2
1774.02
1773.63
1793.52
1797.26
1718.49
1799.69
1757.64
1816.38
1816.3
1814.74
1813.29
1807.81
1806.71
1810.77
1810.68
1809.96
1808.28
1810.1
1763.2
1678.7
1678.08
1682.43
1740.11
1795.31
1796.65
1807.57
1802.46
1759.08
1757.7
1756.8
1755.41
1780.59
1803.31
1804.83
1804.96
1802.5
1799.48
1796.66
1789.16
1773.2
1773.08
1773.12
1786.23
1798.77
1711.8
1799.68
1803.83
1817.62
1816.13
1814.36
1812.97
1811.18
1810.25
1809.21
1808.19
1808.74
1809.9
1810.46
1809.47
1808.19
1806.82
1808.21
1808.06
1808.26
1809.25
1810.23
1810.94
1810.77
1785.94
1758
1800.94
1805.09
1807.24
1807.32
1806.73
1806.24
1805.79
1805.13
1804.65
1787.71
1771.72
1786.14
1798.29
1799.75
1758.37
1812.34
1809.92
1725.19
1775.29
1812.24
1811.53
1810.39
1808.86
1805.11
1790.49
1809.4
1810.81
1811.67
1811.45
1807.78
1806.65
1808.02
1808.12
1808.39
1808.69
1809.16
1809.48
1809.48
1809.38
1784.47
1774.47
1774.85
1799
1805.53
1804.7
1795.11
1794.85
1800.17
1802.42
1793.6
1793.3
1796.91
1797.5
1799.11
1809.05
1807.93
1743.01
1654.87
1657.15
1726.77
1811.78
1811.17
1810.33
1747.4
1741.99
1809.12
1811.14
1811.75
1811.59
1810.66
1809.56
1808.54
1782.25
1773.77
1802.37
1808.34
1807.83
1807.47
1807.52
1807.94
1773.63
1771.33
1770.64
1791.46
1732.46
1669.01
1626.62
1626.56
1649.59
1711.69
1729.91
1752.73
1753.84
1772.06
1807.28
1730.89
1647.39
1650.34
1651.84
1651.64
1703.18
1751.03
1742.13
1693.02
1740.75
1812.63
1813.27
1810.35
1786.02
1746.66
1712.35
1715.98
1725.34
1753.07
1804.91
1806.6
1800.4
1803.28
1805.85
1807.06
1803.39
1790.83
1794.42
1737.88
1625.33
1624.25
1623.74
1623.92
1623.91
1624.83
1626.59
1629.22
1631.91
1634.83
1782.5
1648.17
1649.36
1651.04
1651.71
1652.27
1653.37
1655.09
1655.91
1732.11
1817.12
1817.94
1775.69
1687.55
1593.14
1573.39
1573.78
1574.19
1640.43
1811.06
1807.08
1772.37
1729.93
1750.52
1798.31
1805.92
1808.33
1810.88
1811.64
1811.84
1812.06
1791.95
1644.44
1622.91
1690.69
1777.6
1710.51
1694.74
1725.86
1739.37
1799.04
1661.66
1649.19
1650.32
1650.93
1673.88
1746.63
1773.17
1800.5
1816.26
1819.89
1716.16
1572.3
1572.79
1572.49
1573.1
1574.2
1698.18
1812.34
1811.18
1805.64
1732.66
1724.18
1726.1
1802.76
1806.46
1807.72
1809.28
1810.51
1811.56
1774.32
1642.69
1644.14
1646.98
1804.31
1812.06
1812.96
1815.97
1818.67
1819.18
1815.96
1777.08
1687.67
1670.89
1758.69
1798.6
1799.61
1798.33
1727.81
1566.79
1568.03
1567.65
1567.72
1568.65
1572.23
1726.79
1820.17
1816.97
1813.28
1810.26
1808.66
1773.02
1725.18
1725.42
1726.09
1788.72
1809.5
1810.09
1810.52
1770.36
1679.21
1645.1
1646.53
1669.22
1684.57
1699.63
1748.78
1803.74
1817.88
1817.33
1817.59
1818.25
1816.73
1811.43
1761.42
1755.13
1774.48
1779.58
1567.76
1560.61
1562.19
1562.81
1562.92
1711.74
1821.78
1820.31
1816.87
1812.1
1807.13
1803.29
1801.53
1802.45
1800.31
1783.29
1793.17
1807.89
1809.25
1803.98
1791.99
1782.76
1754.9
1739.72
1698.06
1711.5
1741.93
1814.07
1816.89
1817.41
1817.99
1818.54
1818.75
1816.83
1725.75
1687.65
1711.15
1814.66
1818.41
1816.28
1771.48
1597.76
1555.95
1576.05
1803.53
1816.18
1815.52
1813.78
1809.16
1802.5
1777.13
1723.07
1737.41
1792.28
1800.28
1802.87
1804.89
1806.38
1807.82
1808.59
1808.87
1811.26
1814.02
1814.43
1812.06
1814.65
1818.15
1818.19
1817.69
1817.29
1817.28
1817.76
1769.15
1676.47
1677.8
1679.64
1784.33
1814.68
1813.84
1812.45
1808.92
1779.49
1754.96
1776.83
1802.99
1804.07
1803.44
1803.37
1800.71
1795.49
1711.24
1583.81
1586
1734.2
1799.11
1801.91
1803.82
1804.94
1800.55
1788.6
1788.83
1804.15
1809.5
1799.07
1793.15
1801.95
1805.25
1813.78
1817.44
1817.71
1812.86
1816.33
1675.7
1674.49
1673.34
1736.36
1813
1811.2
1809.52
1807.7
1805.99
1804.3
1802.7
1799.47
1775.94
1668.5
1630.29
1750.95
1794.57
1791.12
1716.75
1584.93
1586.69
1621.31
1800.79
1802.71
1804.53
1805.59
1757.76
1726.15
1728.19
1730.68
1734.23
1736.69
1755.41
1799.8
1750.88
1724.74
1773.96
1793.45
1807.21
1777.68
1674.42
1672.19
1670.99
1796.25
1811.47
1808.91
1806.02
1803.52
1801.71
1799.71
1798.69
1797.46
1745.26
1529.23
1524.03
1522.5
1703.57
1782.58
1781.86
1735.62
1586
1581.14
1635.33
1803.6
1805.31
1806.22
1785.47
1724.71
1726.73
1728.91
1784.34
1815.4
1817.29
1818.51
1808.49
1707.26
1651.02
1649.78
1788.3
1744.77
1674.43
1670.7
1678.94
1814.22
1809.76
1805.04
1704.36
1661.61
1779.65
1767.32
1723.55
1707.84
1580.36
1520.39
1519.28
1518.93
1521.4
1609.6
1778.16
1781.32
1779.35
1572.45
1536.74
1535.2
1684.18
1783.35
1770.79
1797.38
1809.42
1810.81
1811.67
1813.07
1814.48
1815.99
1817.53
1818.37
1708.47
1635.96
1637.31
1637.56
1779.32
1682.92
1733.42
1815.1
1802.62
1667.27
1617.8
1615.62
1614.97
1610.31
1608.28
1618.35
1547.67
1521.67
1521.84
1522.05
1523.25
1525.49
1600.11
1782.71
1783.28
1766.91
1531.48
1530.72
1531.14
1532.42
1533.96
1551.75
1741.88
1784.19
1810.74
1809.66
1811.16
1812.47
1815.31
1815.69
1808.16
1696.63
1641.25
1640.3
1811.18
1808.47
1810.99
1814.48
1807.21
1692.95
1618.24
1629.66
1755.52
1791.77
1786.03
1775.54
1594.59
1520.47
1520.54
1528.68
1593.23
1527.91
1532.22
1653.05
1784.51
1784.73
1680.83
1527.71
1528.9
1530.56
1532.05
1532.74
1533.27
1533.95
1535.26
1587.89
1696.66
1656.35
1667.11
1756.34
1811.86
1822.36
1811.06
1700.26
1788.66
1812.82
1819.03
1815.36
1811.26
1789.02
1768.4
1797.23
1807.62
1806.69
1805.95
1641.31
1519.04
1519.56
1540.15
1769.85
1803.93
1727.82
1557.93
1551.2
1697.51
1781.42
1778.09
1597.49
1526.82
1528.18
1529.43
1530.41
1536.75
1535.49
1539.75
1543.04
1544.32
1545.55
1548.4
1673.24
1755.27
1821.28
1818.74
1825.23
1803.97
1800.83
1810.23
1816.83
1813.77
1811.42
1809.73
1808.74
1808.07
1807.22
1806.61
1696.23
1519.63
1588.21
1797.89
1799.28
1800.23
1800.87
1749.68
1545.52
1539.35
1743.39
1774.84
1773.38
1654.52
1525.35
1527.8
1616.22
1781.68
1740.38
1584.8
1568.55
1651.05
1682.73
1740.67
1788.55
1775.77
1810.25
1776.55
1824.78
1827.48
1801.84
1799.13
1811.78
1814.5
1811.43
1809.13
1807.71
1803.58
1794.77
1801.89
1796.11
1797.87
1800.42
1778.81
1779.89
1796.89
1798.52
1792.46
1588.27
1530.3
1527.98
1663.21
1759.92
1760.58
1751.14
1728.06
1789.05
1812.07
1817.08
1820.03
1822.03
1824.25
1825.91
1826.52
1826.67
1827.72
1819.05
1776.74
1814.18
1826.71
1820.75
1801.45
1811.62
1815.38
1812.11
1809.5
1807.55
1803.93
1634.23
1512.26
1600.62
1781.83
1803.06
1805.16
1781.58
1781.39
1791.21
1794.79
1785.15
1568.37
1524.93
1524.9
1523.85
1634.51
1755.07
1758.61
1761.91
1728.55
1731.74
1770.55
1805.51
1817.32
1822.09
1824.64
1827.18
1828.94
1830.24
1777.28
1784.85
1826.69
1824.93
1822.45
1819.19
1817.65
1814.76
1812.56
1810.67
1746.81
1493.63
1490.37
1488.44
1552.11
1788.63
1805.74
1806.87
1783.65
1779.75
1793.48
1801.45
1794.35
1740.64
1725.28
1676.47
1633.06
1655.47
1660.59
1646.08
1649.56
1652.28
1652.74
1689.48
1775.05
1774.29
1758.35
1822.49
1830.25
1832.95
1821.08
1783.41
1758.66
1797.62
1825.2
1823.76
1821.64
1818.8
1816.26
1814.19
1610.53
1491.69
1490.52
1489.43
1518.93
1777.62
1807.91
1808.45
1808.21
1807.66
1803.67
1799.81
1800.49
1801.28
1767.91
1712.53
1697.23
1639.57
1585.89
1623.2
1698.83
1735.96
1665.01
1670.5
1767.74
1695.69
1679.74
1727.95
1818.81
1836.92
1839.24
1801.87
1564.44
1560.44
1627.21