/*--------------------------------*- C++ -*----------------------------------*\
  =========                 |
  \\      /  F ield         | OpenFOAM: The Open Source CFD Toolbox
   \\    /   O peration     | Website:  https://openfoam.org
    \\  /    A nd           | Version:  8
     \\/     M anipulation  |
\*---------------------------------------------------------------------------*/
FoamFile
{
    version     2.0;
    format      ascii;
    class       surfaceScalarField;
    location    "9.55";
    object      phi;
}
// * * * * * * * * * * * * * * * * * * * * * * * * * * * * * * * * * * * * * //

dimensions      [0 3 -1 0 0 0 0];

internalField   nonuniform List<scalar> 
18095
(
1.96829e-08
-1.72508e-07
1.52825e-07
2.27527e-08
-1.98034e-07
1.94964e-07
1.90332e-08
-2.06321e-07
2.1004e-07
9.4827e-09
-2.10662e-07
2.20213e-07
-1.83209e-09
-2.13529e-07
2.24844e-07
-1.27719e-08
-2.13342e-07
2.24282e-07
-2.12219e-08
-2.10619e-07
2.1907e-07
-2.35532e-08
-2.06049e-07
2.08381e-07
-2.01013e-08
-1.97228e-07
1.93776e-07
-1.71716e-07
1.51615e-07
1.53317e-08
-1.87839e-07
1.57175e-08
-1.98419e-07
1.17255e-08
-2.02329e-07
6.3134e-09
-2.0525e-07
-3.50276e-10
-2.06865e-07
-6.89396e-09
-2.06798e-07
-1.23289e-08
-2.05184e-07
-1.64099e-08
-2.01968e-07
-1.56995e-08
-1.97938e-07
-1.87415e-07
6.69938e-09
-1.94539e-07
8.14007e-09
-1.9986e-07
6.80159e-09
-2.0099e-07
3.64836e-09
-2.02096e-07
-4.35632e-10
-2.0278e-07
-4.50673e-09
-2.02726e-07
-7.51897e-09
-2.02172e-07
-8.6017e-09
-2.00885e-07
-6.89585e-09
-1.99643e-07
-1.94311e-07
4.41148e-09
-1.9895e-07
4.54885e-09
-1.99997e-07
3.478e-09
-1.99919e-07
1.82145e-09
-2.00439e-07
-1.6541e-10
-2.00793e-07
-2.14118e-09
-2.0075e-07
-3.83129e-09
-2.00482e-07
-4.88254e-09
-1.99834e-07
-4.6015e-09
-1.99925e-07
-1.98912e-07
1.05022e-09
1.05357e-09
1.135e-09
6.95908e-10
-9.71105e-11
-8.47396e-10
-1.32912e-09
-1.16308e-09
-1.08775e-09
-3.22516e-08
-2.00299e-07
2.3255e-07
-3.73786e-08
-2.01899e-07
2.07026e-07
-3.41968e-08
-2.03206e-07
2.00025e-07
-2.39955e-08
-2.03316e-07
1.93114e-07
-9.33248e-09
-2.02879e-07
1.88216e-07
4.87365e-09
-2.01285e-07
1.87078e-07
1.58126e-08
-1.99468e-07
1.88529e-07
2.40719e-08
-1.9932e-07
1.91061e-07
2.34245e-08
-1.9623e-07
1.96877e-07
-1.92116e-07
2.15541e-07
-1.14645e-08
-1.88834e-07
-1.78398e-08
-1.95524e-07
-1.58112e-08
-2.05235e-07
-9.21576e-09
-2.09911e-07
-3.31387e-09
-2.0878e-07
3.23092e-09
-2.07829e-07
1.05513e-08
-2.06788e-07
1.26894e-08
-2.01459e-07
7.82548e-09
-1.91366e-07
-1.8429e-07
-1.09986e-08
-1.77835e-07
-1.00421e-08
-1.9648e-07
-9.07184e-09
-2.06205e-07
-7.46037e-09
-2.11522e-07
-2.77498e-09
-2.13465e-07
1.93899e-09
-2.12543e-07
4.09039e-09
-2.0894e-07
6.27725e-09
-2.03646e-07
8.99859e-09
-1.94088e-07
-1.75292e-07
-6.80194e-09
-1.71033e-07
-9.07609e-09
-1.94205e-07
-9.42835e-09
-2.05852e-07
-6.13681e-09
-2.14813e-07
-3.53871e-09
-2.16063e-07
3.46258e-11
-2.16116e-07
5.96631e-09
-2.14872e-07
6.9865e-09
-2.04666e-07
5.82816e-09
-1.92929e-07
-1.69463e-07
-1.82076e-08
-1.74486e-08
-1.32605e-08
-7.86095e-09
9.1962e-10
9.08548e-09
1.32839e-08
1.7e-08
1.78478e-08
-5.84134e-08
-2.42902e-07
3.01316e-07
-9.44396e-08
-2.56406e-07
2.92434e-07
-1.07124e-07
-2.4549e-07
2.58173e-07
-1.13378e-07
-2.34081e-07
2.40335e-07
-1.20276e-07
-2.19551e-07
2.26449e-07
-1.29604e-07
-2.04391e-07
2.1372e-07
-1.35647e-07
-1.89119e-07
1.95162e-07
-1.35334e-07
-1.72869e-07
1.72557e-07
-1.06946e-07
-1.46702e-07
1.18315e-07
-8.85096e-08
-1.84409e-08
-2.76187e-08
-2.15284e-07
-5.03449e-08
-2.3368e-07
-6.60245e-08
-2.29809e-07
-7.7941e-08
-2.22164e-07
-8.50486e-08
-2.12443e-07
-8.669e-08
-2.0275e-07
-8.16752e-08
-1.94134e-07
-7.10351e-08
-1.8351e-07
-4.85521e-08
-1.69184e-07
-1.37061e-07
-1.0776e-08
-2.04506e-07
-2.45003e-08
-2.19956e-07
-3.66858e-08
-2.17624e-07
-4.60461e-08
-2.12804e-07
-5.06385e-08
-2.07851e-07
-5.10958e-08
-2.02292e-07
-4.73948e-08
-1.97835e-07
-3.9043e-08
-1.91862e-07
-2.64693e-08
-1.81758e-07
-1.6353e-07
-3.59928e-09
-2.00908e-07
-1.48058e-08
-2.0875e-07
-1.80601e-08
-2.1437e-07
-2.49786e-08
-2.05886e-07
-2.85739e-08
-2.04255e-07
-3.13261e-08
-1.9954e-07
-3.27452e-08
-1.96416e-07
-2.61673e-08
-1.9844e-07
-1.74649e-08
-1.9046e-07
-1.80995e-07
3.16434e-08
2.99198e-08
1.55741e-08
2.80283e-09
-1.32361e-08
-2.56971e-08
-3.35834e-08
-4.09624e-08
-3.45455e-08
-3.56344e-10
1.22335e-08
-1.18772e-08
-1.09482e-08
1.05877e-08
-1.92583e-08
8.3101e-09
-2.43995e-08
5.14124e-09
-2.77343e-08
3.33485e-09
-2.83329e-08
5.98613e-10
-2.67324e-08
-1.60046e-09
-2.48592e-08
-1.87314e-09
-2.63014e-08
1.44228e-09
4.73252e-09
-3.10338e-08
9.99813e-09
2.26527e-08
-2.04172e-08
-4.4841e-09
2.50716e-08
-1.60449e-08
1.98718e-08
-2.48646e-08
1.39617e-08
-3.04795e-08
8.95032e-09
-3.40728e-08
4.19245e-09
-3.63103e-08
6.37554e-10
-3.7848e-08
-3.35078e-10
-3.66998e-08
2.94536e-10
1.45558e-09
-3.34225e-08
3.31483e-08
2.54234e-08
-3.59189e-08
2.59379e-08
3.22825e-08
1.43319e-08
3.14779e-08
4.72192e-09
2.35718e-08
-1.31351e-09
1.49859e-08
-5.82461e-09
8.70372e-09
-8.34843e-09
3.16155e-09
-7.47885e-09
-1.20445e-09
-2.61108e-09
-4.57301e-09
-3.30049e-09
2.14521e-09
4.48287e-08
2.97574e-08
-4.91625e-08
4.59775e-08
3.11342e-08
4.46196e-08
3.28361e-08
3.79088e-08
3.02827e-08
2.85835e-08
2.43115e-08
2.44966e-08
1.27908e-08
2.63328e-08
1.32566e-09
3.04631e-08
-5.33445e-09
3.33318e-08
-7.44148e-09
-6.90919e-09
3.69407e-08
5.35338e-08
3.67829e-08
-6.05592e-08
4.9865e-08
3.48036e-08
4.88459e-08
3.38554e-08
4.82033e-08
3.09256e-08
4.9211e-08
2.3304e-08
4.88843e-08
1.31178e-08
4.84903e-08
1.71993e-09
4.8135e-08
-4.97896e-09
4.75457e-08
-6.85195e-09
-7.15688e-09
4.77936e-08
6.33756e-08
4.23293e-08
-6.89218e-08
6.17572e-08
3.64225e-08
6.2233e-08
3.33799e-08
6.33551e-08
2.98038e-08
6.57231e-08
2.09362e-08
6.65486e-08
1.22925e-08
6.53686e-08
2.90019e-09
6.36616e-08
-3.27174e-09
6.14066e-08
-4.59672e-09
-5.5031e-09
5.97531e-08
6.49263e-08
4.23609e-08
-6.49577e-08
6.60643e-08
3.5285e-08
6.84087e-08
3.10357e-08
7.21788e-08
2.60339e-08
7.45477e-08
1.85675e-08
7.70255e-08
9.81497e-09
7.78728e-08
2.0531e-09
7.64609e-08
-1.85959e-09
7.42712e-08
-2.40678e-09
-2.93521e-09
7.17036e-08
6.45325e-08
3.77632e-08
-5.99346e-08
6.7831e-08
3.1987e-08
7.16672e-08
2.71997e-08
7.62171e-08
2.14841e-08
8.04591e-08
1.43257e-08
8.35914e-08
6.68295e-09
8.37131e-08
1.93156e-09
8.21043e-08
-2.50573e-10
8.11371e-08
-1.43931e-09
-1.29376e-09
7.94959e-08
5.83737e-08
2.61359e-08
-4.67464e-08
6.84468e-08
2.19144e-08
7.75623e-08
1.80844e-08
8.52958e-08
1.37509e-08
9.05042e-08
9.1175e-09
9.28079e-08
4.37951e-09
9.21073e-08
2.6324e-09
8.74567e-08
4.40017e-09
7.82165e-08
7.80116e-09
8.95494e-09
6.7968e-08
5.85686e-08
1.15785e-08
-4.40111e-08
7.13227e-08
9.1609e-09
8.12982e-08
8.10904e-09
8.99445e-08
5.10476e-09
9.53076e-08
3.75456e-09
9.42573e-08
5.43006e-09
8.78702e-08
9.01964e-09
7.26794e-08
1.95911e-08
5.65283e-08
2.39524e-08
1.87453e-08
4.67382e-08
6.14001e-08
-9.65662e-10
-4.88558e-08
7.11682e-08
-6.06675e-10
6.90529e-08
1.02245e-08
6.08849e-08
1.32729e-08
4.97785e-08
1.48611e-08
4.73727e-08
7.83609e-09
4.68165e-08
9.57599e-09
5.05132e-08
1.58946e-08
5.32493e-08
2.12165e-08
1.87443e-08
5.32506e-08
1.74071e-08
7.14282e-10
-1.90868e-08
1.39866e-08
2.81423e-09
7.38679e-09
1.68245e-08
2.28127e-09
1.83786e-08
6.88925e-09
1.02533e-08
1.37473e-08
9.78178e-10
2.11887e-08
2.13486e-09
2.88278e-08
8.25564e-09
3.28411e-08
1.72034e-08
2.32254e-08
2.83601e-08
-3.2791e-08
7.82647e-09
2.5679e-08
-3.8347e-08
8.37058e-09
-3.31604e-08
1.16381e-08
-2.44816e-08
9.70001e-09
-1.85115e-08
4.28338e-09
-1.9535e-08
2.0018e-09
-2.30354e-08
5.63543e-09
-2.65487e-08
1.17692e-08
-3.02707e-08
2.09256e-08
3.1427e-08
-3.84721e-08
-5.39971e-08
8.12602e-09
5.36976e-08
-5.26664e-08
7.04035e-09
-5.46132e-08
1.3585e-08
-5.40049e-08
9.09191e-09
-5.61638e-08
6.44237e-09
-6.00287e-08
5.86688e-09
-6.38494e-08
9.45634e-09
-7.0872e-08
1.8792e-08
-7.99079e-08
2.99616e-08
4.03467e-08
-8.88275e-08
-5.43005e-08
1.28127e-08
4.96139e-08
-6.44094e-08
1.71496e-08
-7.50758e-08
2.42516e-08
-8.14666e-08
1.54828e-08
-8.41078e-08
9.08378e-09
-8.6412e-08
8.17119e-09
-8.94103e-08
1.24549e-08
-9.50878e-08
2.44696e-08
-1.02991e-07
3.78646e-08
4.87281e-08
-1.11372e-07
-5.81482e-08
1.4318e-08
5.6643e-08
-7.06628e-08
2.96645e-08
-8.60876e-08
3.96766e-08
-9.98578e-08
2.92531e-08
-1.02985e-07
1.22114e-08
-1.04131e-07
9.31734e-09
-1.05028e-07
1.33523e-08
-1.06437e-07
2.58785e-08
-1.09513e-07
4.09409e-08
5.3537e-08
-1.14322e-07
-6.10919e-08
1.66054e-08
5.88046e-08
-6.25533e-08
3.11263e-08
-6.803e-08
4.51534e-08
-8.19138e-08
4.3137e-08
-9.72444e-08
2.75422e-08
-1.07142e-07
1.92148e-08
-1.12884e-07
1.90947e-08
-1.13416e-07
2.64103e-08
-1.11444e-07
3.89689e-08
5.13198e-08
-1.09226e-07
-7.17497e-08
2.47458e-08
6.36094e-08
-7.24527e-08
3.18296e-08
-6.99959e-08
4.26968e-08
-7.26514e-08
4.57926e-08
-8.51055e-08
3.99963e-08
-9.94012e-08
3.35107e-08
-1.10187e-07
2.98808e-08
-1.12727e-07
2.89499e-08
-1.09063e-07
3.53049e-08
4.45971e-08
-1.0234e-07
-7.11459e-08
3.13829e-08
6.45089e-08
-7.15961e-08
3.228e-08
-7.20036e-08
4.31044e-08
-7.44179e-08
4.8207e-08
-8.0922e-08
4.65006e-08
-8.64626e-08
3.90514e-08
-8.95929e-08
3.30113e-08
-9.25075e-08
3.18646e-08
-8.92078e-08
3.20052e-08
3.38987e-08
-7.85092e-08
-5.7972e-08
3.91591e-08
5.01959e-08
-6.02264e-08
3.45347e-08
-5.8589e-08
4.14671e-08
-5.90324e-08
4.86504e-08
-6.00869e-08
4.75552e-08
-5.70687e-08
3.60333e-08
-5.1787e-08
2.77297e-08
-4.78544e-08
2.79321e-08
-4.46845e-08
2.88355e-08
2.47559e-08
-3.55417e-08
-3.9641e-08
3.99742e-08
3.8826e-08
-4.36777e-08
3.85715e-08
-3.93293e-08
3.71187e-08
-2.99442e-08
3.92654e-08
-1.96701e-08
3.72812e-08
-1.42978e-08
3.0661e-08
-1.32265e-08
2.66586e-08
-9.64263e-09
2.43484e-08
-4.71322e-09
2.39062e-08
2.03485e-08
-3.05748e-10
-4.06435e-08
3.9266e-08
4.13517e-08
-3.98772e-08
3.78053e-08
-3.57625e-08
3.3004e-08
-2.45065e-08
2.80096e-08
-9.89159e-09
2.26663e-08
7.60397e-10
2.00091e-08
6.82003e-09
2.0599e-08
1.27929e-08
1.83756e-08
1.62064e-08
2.04927e-08
1.69983e-08
1.95568e-08
-5.45878e-08
4.1654e-08
5.21998e-08
-5.33229e-08
3.65405e-08
-4.82057e-08
2.78869e-08
-3.66364e-08
1.64403e-08
-1.93389e-08
5.36882e-09
-4.05909e-09
4.72933e-09
1.18627e-09
1.53537e-08
2.53273e-09
1.70292e-08
-8.35241e-10
2.38607e-08
1.52827e-08
8.80447e-10
-8.72512e-08
4.6151e-08
8.27542e-08
-8.41455e-08
3.34351e-08
-6.87633e-08
1.25047e-08
-4.72196e-08
-5.1033e-09
-2.62668e-08
-1.5584e-08
-3.62004e-09
-1.79174e-08
1.85284e-08
-6.79467e-09
2.82037e-08
7.35401e-09
3.4557e-08
1.75076e-08
2.01438e-08
2.96959e-08
-1.11408e-07
3.08908e-08
1.26668e-07
-9.32357e-08
1.52627e-08
-7.741e-08
-3.32092e-09
-6.12252e-08
-2.1288e-08
-4.77866e-08
-2.90225e-08
-3.34286e-08
-3.22752e-08
-1.30526e-08
-2.71706e-08
9.23641e-10
-6.62213e-09
9.59102e-09
8.84034e-09
1.74954e-08
1.22396e-08
-1.21095e-07
1.77635e-08
1.34222e-07
-1.11924e-07
6.09158e-09
-1.09504e-07
-5.74084e-09
-1.0736e-07
-2.34316e-08
-1.02013e-07
-3.43695e-08
-9.58895e-08
-3.83985e-08
-8.59579e-08
-3.71021e-08
-6.37373e-08
-2.88426e-08
-3.92461e-08
-1.56507e-08
4.88134e-09
-2.66319e-08
-1.42283e-07
1.44595e-08
1.45588e-07
-1.43149e-07
6.95722e-09
-1.39491e-07
-9.39859e-09
-1.31743e-07
-3.11796e-08
-1.21086e-07
-4.50263e-08
-1.08794e-07
-5.06903e-08
-9.38958e-08
-5.19999e-08
-6.93816e-08
-5.33566e-08
-3.71622e-08
-4.787e-08
-2.96744e-08
-2.60637e-09
-1.62761e-07
1.39197e-08
1.63301e-07
-1.57013e-07
1.20941e-09
-1.47719e-07
-1.86928e-08
-1.41324e-07
-3.75743e-08
-1.37093e-07
-4.92568e-08
-1.30749e-07
-5.70345e-08
-1.21002e-07
-6.17468e-08
-1.06783e-07
-6.75751e-08
-8.57531e-08
-6.88997e-08
-6.12566e-08
-5.41707e-08
-1.7667e-07
1.20609e-08
1.78529e-07
-1.72369e-07
-3.09097e-09
-1.65859e-07
-2.52033e-08
-1.62546e-07
-4.08868e-08
-1.60994e-07
-5.0809e-08
-1.5857e-07
-5.94582e-08
-1.5392e-07
-6.6397e-08
-1.46911e-07
-7.45834e-08
-1.35768e-07
-8.00426e-08
-8.03586e-08
-1.16666e-07
-1.78967e-07
9.37001e-09
1.81658e-07
-1.7622e-07
-5.83777e-09
-1.77134e-07
-2.42885e-08
-1.7471e-07
-4.33115e-08
-1.71076e-07
-5.4442e-08
-1.68369e-07
-6.21658e-08
-1.64218e-07
-7.05476e-08
-1.59094e-07
-7.97075e-08
-1.51859e-07
-8.72771e-08
-9.09587e-08
-1.41259e-07
-1.39752e-07
1.15663e-08
1.37555e-07
-1.43192e-07
-2.39778e-09
-1.57787e-07
-9.69309e-09
-1.65506e-07
-3.55921e-08
-1.57634e-07
-6.23144e-08
-1.51458e-07
-6.83415e-08
-1.45528e-07
-7.6477e-08
-1.37916e-07
-8.73199e-08
-1.27364e-07
-9.78285e-08
-1.03936e-07
-1.14387e-07
-1.07574e-08
5.66146e-09
1.66622e-08
-1.80889e-09
-1.1346e-08
2.47256e-09
-1.39745e-08
2.12941e-09
-3.52489e-08
-2.99777e-08
-3.02072e-08
-6.85078e-08
-2.98114e-08
-8.35373e-08
-6.14474e-08
-8.29867e-08
-8.78703e-08
-7.44468e-08
-1.06368e-07
-1.18428e-07
-5.9955e-08
6.44824e-08
3.23134e-09
-6.20522e-08
7.81279e-08
-2.49911e-08
1.04686e-07
-4.05326e-08
1.09118e-07
-3.96808e-08
9.42141e-08
-1.53033e-08
6.17366e-08
2.6661e-09
2.51683e-08
-2.48791e-08
1.9093e-09
-6.46112e-08
-9.04443e-09
-9.54145e-08
-1.13083e-07
-1.43891e-08
1.28956e-07
1.12884e-08
-1.37013e-07
1.18398e-07
-1.4433e-08
1.09174e-07
-3.13077e-08
1.03851e-07
-3.43577e-08
1.22131e-07
-3.35832e-08
1.42134e-07
-1.73369e-08
1.38238e-07
-2.09829e-08
1.27706e-07
-5.40797e-08
1.04465e-07
-7.21734e-08
-7.99331e-08
7.1315e-08
1.70784e-07
1.77568e-08
-1.77252e-07
1.54647e-07
1.70384e-09
1.26649e-07
-3.3097e-09
1.0357e-07
-1.12784e-08
1.10472e-07
-4.04856e-08
1.33888e-07
-4.0753e-08
1.61563e-07
-4.86571e-08
1.5823e-07
-5.07469e-08
1.39976e-07
-5.39189e-08
-7.03649e-08
1.30407e-07
1.8852e-07
2.18285e-08
-1.92591e-07
1.71906e-07
1.8318e-08
1.39537e-07
2.90594e-08
1.05508e-07
2.27503e-08
9.62036e-08
-3.11813e-08
1.09757e-07
-5.43065e-08
1.25582e-07
-6.44826e-08
1.35378e-07
-6.05423e-08
1.44113e-07
-6.26543e-08
-8.65117e-08
1.6026e-07
1.76772e-07
3.05631e-08
-1.85506e-07
1.53974e-07
4.11154e-08
1.25889e-07
5.71454e-08
1.12451e-07
3.6188e-08
9.62072e-08
-1.49374e-08
8.01501e-08
-3.82492e-08
8.29017e-08
-6.72342e-08
1.05073e-07
-8.27136e-08
1.31874e-07
-8.94549e-08
-1.1304e-07
1.58402e-07
1.12921e-07
4.86359e-08
-1.30994e-07
1.06284e-07
4.77517e-08
1.24222e-07
3.92078e-08
1.39336e-07
2.10739e-08
1.22263e-07
2.13544e-09
1.09169e-07
-2.51556e-08
1.08609e-07
-6.6674e-08
1.14293e-07
-8.83981e-08
1.32118e-07
-1.07279e-07
-1.20066e-07
1.39143e-07
9.75052e-08
4.72488e-08
-9.61182e-08
9.60175e-08
4.9239e-08
1.1726e-07
1.79652e-08
1.42492e-07
-4.15824e-09
1.51241e-07
-6.61381e-09
1.36787e-07
-1.07018e-08
1.1858e-07
-4.84664e-08
1.1219e-07
-8.20083e-08
9.79879e-08
-9.30774e-08
-1.12052e-07
8.99738e-08
6.41431e-08
6.19053e-08
-7.87998e-08
5.63236e-08
5.7058e-08
5.16586e-08
2.26301e-08
8.09928e-08
-3.34925e-08
8.74102e-08
-1.30312e-08
9.65498e-08
-1.98413e-08
9.46863e-08
-4.66028e-08
7.13902e-08
-5.87121e-08
5.65785e-08
-7.82657e-08
-1.15859e-07
6.03854e-08
8.28586e-08
6.73884e-08
-8.8342e-08
6.37154e-08
7.62007e-08
5.94984e-08
2.68469e-08
5.33469e-08
-2.7341e-08
6.35454e-08
-2.32297e-08
7.43733e-08
-3.06693e-08
5.87478e-08
-3.09773e-08
4.42235e-08
-4.4188e-08
4.48274e-08
-7.88698e-08
-1.20411e-07
4.93798e-08
5.6955e-08
6.75427e-08
-5.71095e-08
6.74126e-08
6.5743e-08
8.45021e-08
9.75769e-09
8.79054e-08
-3.0744e-08
8.71405e-08
-2.24646e-08
6.60088e-08
-9.53737e-09
5.13503e-08
-1.63186e-08
5.54117e-08
-4.82492e-08
5.86586e-08
-8.21167e-08
-1.19383e-07
5.76299e-08
7.8659e-08
3.97307e-08
-5.0847e-08
1.13316e-07
3.10856e-08
1.3009e-07
-7.01627e-09
1.29746e-07
-3.04e-08
1.15869e-07
-8.58681e-09
9.67459e-08
9.58572e-09
8.06212e-08
-1.93781e-10
6.94917e-08
-3.71196e-08
7.07592e-08
-8.33841e-08
-1.12121e-07
6.34979e-08
6.94069e-08
1.2313e-08
-4.19891e-08
1.17277e-07
-1.67839e-08
1.27879e-07
-1.76185e-08
1.21816e-07
-2.43367e-08
1.24785e-07
-1.15558e-08
1.30943e-07
3.42802e-09
1.32796e-07
-2.04696e-09
1.23648e-07
-2.79716e-08
1.06656e-07
-6.63918e-08
-8.39432e-08
7.84779e-08
1.62641e-08
-4.7404e-10
-3.47705e-09
3.18263e-08
-3.23458e-08
5.31671e-08
-3.89593e-08
7.47689e-08
-4.59384e-08
9.85253e-08
-3.53121e-08
1.15548e-07
-1.35948e-08
1.31198e-07
-1.76965e-08
1.33216e-07
-2.99904e-08
1.108e-07
-4.39752e-08
-4.56887e-08
7.25452e-08
3.72099e-08
-1.52061e-08
-2.24778e-08
5.5148e-08
-5.02841e-08
5.89714e-08
-4.27829e-08
5.50122e-08
-4.19795e-08
6.22529e-08
-4.2553e-08
8.59848e-08
-3.7327e-08
1.04205e-07
-3.59172e-08
1.03401e-07
-2.91863e-08
7.90662e-08
-1.96411e-08
-6.87133e-09
4.02485e-08
4.64365e-09
-2.37301e-08
3.88014e-09
-6.40815e-09
-3.92337e-08
-1.79446e-08
-3.1247e-08
-3.89778e-08
-2.09467e-08
-5.46381e-08
-2.68932e-08
-5.82991e-08
-3.36665e-08
-5.92303e-08
-3.49864e-08
-6.1627e-08
-2.679e-08
-6.61798e-08
-1.50886e-08
6.91583e-09
-7.99672e-08
-8.5688e-08
-1.84047e-08
8.03622e-08
-1.09251e-07
-1.56729e-08
-1.25395e-07
-1.51039e-08
-1.27817e-07
-1.85251e-08
-1.31599e-07
-2.31123e-08
-1.36749e-07
-2.85166e-08
-1.40448e-07
-3.12878e-08
-1.36038e-07
-3.12004e-08
-1.28089e-07
-2.3038e-08
-3.45683e-09
-1.17716e-07
-1.15377e-07
-1.39665e-08
1.10938e-07
-1.42982e-07
1.19306e-08
-1.67406e-07
9.3202e-09
-1.76619e-07
-9.31283e-09
-1.77269e-07
-2.24627e-08
-1.77968e-07
-2.78185e-08
-1.79259e-07
-2.99967e-08
-1.80414e-07
-3.00466e-08
-1.77646e-07
-2.58057e-08
-1.30531e-08
-1.6805e-07
-9.10198e-08
-5.70434e-09
8.27572e-08
-1.23225e-07
4.41351e-08
-1.65277e-07
5.13721e-08
-1.85747e-07
1.11565e-08
-1.93663e-07
-1.45466e-08
-1.97583e-07
-2.38991e-08
-1.98683e-07
-2.88961e-08
-1.98824e-07
-2.9906e-08
-1.97422e-07
-2.72071e-08
-1.65418e-08
-1.93934e-07
-8.6539e-08
3.07827e-09
7.77564e-08
-9.57533e-08
5.33489e-08
-1.53505e-07
1.09123e-07
-1.97953e-07
5.5605e-08
-2.06424e-07
-6.07638e-09
-2.07444e-07
-2.28795e-08
-2.07033e-07
-2.93083e-08
-2.05307e-07
-3.16322e-08
-2.05235e-07
-2.72788e-08
-1.25192e-08
-2.09258e-07
-7.24362e-08
2.04467e-08
5.50679e-08
-6.11639e-08
4.20762e-08
-9.50651e-08
1.43024e-07
-1.70744e-07
1.31283e-07
-2.04497e-07
2.7677e-08
-2.17952e-07
-9.42434e-09
-2.21309e-07
-2.59515e-08
-2.24155e-07
-2.87859e-08
-2.31236e-07
-2.01987e-08
1.95926e-09
-2.45715e-07
2.72622e-08
5.11054e-08
-5.79212e-08
3.39028e-10
6.89978e-08
-2.311e-08
1.66472e-07
-6.54778e-08
1.7365e-07
-1.2547e-07
8.76683e-08
-1.67709e-07
3.28146e-08
-1.90043e-07
-3.61747e-09
-2.07797e-07
-1.10325e-08
-2.27159e-07
-8.37202e-10
2.29651e-08
-2.48165e-07
1.52162e-08
8.71466e-08
-5.12579e-08
-2.84703e-08
1.12685e-07
-2.71677e-08
1.6517e-07
-3.34944e-08
1.79977e-07
-7.95192e-08
1.33693e-07
-1.28448e-07
8.17435e-08
-1.63413e-07
3.13472e-08
-1.90164e-07
1.57175e-08
-2.1387e-07
2.28689e-08
4.7525e-08
-2.38431e-07
1.26265e-09
1.1972e-07
-3.38367e-08
-3.54734e-08
1.49421e-07
-5.09686e-08
1.80665e-07
-5.7585e-08
1.86594e-07
-7.91572e-08
1.55266e-07
-1.07365e-07
1.09951e-07
-1.4544e-07
6.94227e-08
-1.73969e-07
4.42456e-08
-1.93526e-07
4.24263e-08
6.21398e-08
-2.08141e-07
-7.51771e-08
1.4005e-07
5.48481e-08
-8.14499e-08
1.55694e-07
-7.83542e-08
1.7757e-07
-7.04316e-08
1.78672e-07
-6.99549e-08
1.54789e-07
-7.88855e-08
1.18881e-07
-1.03605e-07
9.41414e-08
-1.35156e-07
7.57966e-08
-1.63372e-07
7.06417e-08
7.86552e-08
-1.79887e-07
-1.06181e-07
1.24628e-07
1.21603e-07
-8.45977e-08
1.34111e-07
-6.31754e-08
1.56148e-07
-3.88475e-08
1.54344e-07
-2.17874e-08
1.37729e-07
-1.58335e-08
1.12928e-07
-2.21283e-08
1.00436e-07
-4.35594e-08
9.72279e-08
-7.9626e-08
1.06708e-07
1.08133e-07
-1.09104e-07
-1.11025e-07
9.5779e-08
1.39874e-07
-7.29039e-08
9.59892e-08
-3.12611e-08
1.14504e-07
1.2558e-08
1.10525e-07
4.37507e-08
1.06536e-07
6.21824e-08
9.44955e-08
6.45174e-08
9.81017e-08
4.74929e-08
1.14253e-07
1.78346e-08
1.36367e-07
1.47536e-07
-2.15679e-08
-6.10119e-08
6.75796e-08
8.92112e-08
-3.02663e-08
6.52442e-08
1.04773e-08
7.37615e-08
4.96389e-08
7.13634e-08
8.21176e-08
7.40579e-08
9.70248e-08
7.95885e-08
9.70969e-08
9.80297e-08
8.07722e-08
1.30578e-07
5.507e-08
1.6207e-07
1.72857e-07
2.97494e-08
-2.14796e-08
5.92788e-08
2.97798e-08
-1.32146e-08
5.69775e-08
1.05865e-08
4.99609e-08
3.93952e-08
4.25558e-08
6.89245e-08
4.45294e-08
8.25e-08
6.6013e-08
6.84707e-08
1.12059e-07
4.44824e-08
1.54567e-07
3.16297e-08
1.74923e-07
1.71189e-07
3.32975e-08
-1.59117e-08
5.95932e-08
1.55972e-08
-1.70634e-08
5.81282e-08
-9.77299e-09
4.26698e-08
1.99143e-09
3.07913e-08
1.35093e-08
3.30116e-08
1.07759e-08
6.87459e-08
-1.3476e-08
1.3631e-07
-3.01314e-08
1.71222e-07
-2.22804e-08
1.67072e-07
1.50314e-07
-1.40514e-09
-8.33338e-08
7.26359e-08
7.02915e-08
-9.46426e-08
6.94389e-08
-9.75625e-08
4.5589e-08
-1.01284e-07
3.45133e-08
-1.04808e-07
3.6536e-08
-1.08164e-07
7.21017e-08
-9.57101e-08
1.23856e-07
-5.90924e-08
1.34604e-07
-2.15463e-08
1.29526e-07
1.27888e-07
8.79086e-10
-2.35377e-07
6.24628e-08
2.45552e-07
-2.36764e-07
7.08292e-08
-2.32033e-07
4.08569e-08
-2.17338e-07
1.98189e-08
-2.07867e-07
2.70645e-08
-1.91319e-07
5.55542e-08
-1.51077e-07
8.36143e-08
-9.18778e-08
7.54053e-08
-4.1817e-08
7.94662e-08
1.2511e-07
-3.90376e-08
-2.99439e-07
-1.2406e-08
3.74309e-07
-2.41373e-07
1.27663e-08
-2.15561e-07
1.50465e-08
-2.11296e-07
1.5554e-08
-2.15935e-07
3.17024e-08
-1.93162e-07
3.27806e-08
-1.62835e-07
5.32872e-08
-1.55393e-07
6.79621e-08
-1.52587e-07
7.66585e-08
1.07634e-07
-1.35112e-07
-3.08217e-07
-9.77238e-08
3.93535e-07
-2.4821e-07
-4.72424e-08
-2.19121e-07
-1.40411e-08
-1.90711e-07
-1.2856e-08
-1.48426e-07
-1.05808e-08
-1.49769e-07
3.41244e-08
-1.53421e-07
5.69399e-08
-1.50091e-07
6.46334e-08
-1.39706e-07
6.62736e-08
8.76993e-08
-1.1977e-07
-1.74165e-07
-2.348e-08
9.99201e-08
-2.43384e-07
2.19741e-08
-2.73991e-07
1.65633e-08
-2.68049e-07
-1.87997e-08
-1.85498e-07
-9.31336e-08
-1.43113e-07
-8.26265e-09
-1.37376e-07
5.12013e-08
-1.20824e-07
4.80796e-08
-8.28805e-08
2.83293e-08
4.82806e-08
-4.3462e-08
1.93346e-08
-6.38901e-08
2.10751e-08
2.00394e-09
3.93097e-08
6.57607e-08
-4.71928e-08
7.24983e-08
-2.55372e-08
-1.18358e-08
-8.79951e-09
-5.2665e-08
3.25667e-08
-9.40488e-08
9.25858e-08
-1.04337e-07
5.83694e-08
-5.35181e-08
-2.2487e-08
-2.00673e-08
1.48312e-08
-2.41589e-08
-1.71893e-07
1.32161e-07
1.0354e-07
-8.83921e-08
1.61158e-07
-1.04813e-07
2.21574e-07
-8.59561e-08
2.05656e-07
7.11573e-09
1.87511e-07
5.07094e-08
2.15511e-07
6.45837e-08
2.33391e-07
4.0489e-08
2.15241e-07
-4.33796e-09
1.23943e-08
1.82779e-07
-1.78288e-07
-2.04571e-07
2.10966e-07
-6.57586e-08
-2.00923e-07
1.56664e-08
-1.86239e-07
8.76424e-08
-1.57933e-07
2.03132e-07
-1.08374e-07
2.96465e-07
-4.26208e-08
3.94715e-07
-3.36635e-08
5.08015e-07
-7.28087e-08
5.4529e-07
-4.16108e-08
2.16119e-08
5.36075e-07
-1.83104e-07
-2.8894e-07
2.67472e-07
-1.02865e-07
-2.81164e-07
-4.18964e-08
-2.47208e-07
1.64032e-08
-2.16233e-07
7.26561e-08
-1.64627e-07
1.60378e-07
-1.30343e-07
2.73573e-07
-1.46857e-07
3.43712e-07
-1.42948e-07
3.93812e-07
-9.17102e-08
-4.14112e-08
4.56836e-07
-2.50686e-07
-3.19216e-07
2.80962e-07
-2.10063e-07
-3.21788e-07
-1.47591e-07
-3.0968e-07
-9.85007e-08
-2.65323e-07
-6.04551e-08
-2.02672e-07
2.01017e-09
-1.92808e-07
7.94745e-08
-2.2432e-07
1.40311e-07
-2.03782e-07
2.10583e-07
-1.61981e-07
-1.13703e-07
2.82875e-07
-3.03283e-07
-3.38923e-07
3.22991e-07
-2.77699e-07
-3.47375e-07
-2.46137e-07
-3.41242e-07
-2.11389e-07
-3.0007e-07
-1.56021e-07
-2.58039e-07
-9.00119e-08
-2.58815e-07
-3.54116e-08
-2.7892e-07
2.03429e-08
-2.59535e-07
7.52023e-08
-2.16838e-07
-1.60523e-07
1.22025e-07
-3.22223e-07
-3.49067e-07
3.32366e-07
-3.10216e-07
-3.59382e-07
-2.91855e-07
-3.59602e-07
-2.50009e-07
-3.41914e-07
-2.01673e-07
-3.06373e-07
-1.68012e-07
-2.92474e-07
-1.52286e-07
-2.94644e-07
-1.20977e-07
-2.90842e-07
-6.33078e-08
-2.74505e-07
-2.44702e-07
2.08715e-08
-3.00734e-07
-3.39829e-07
2.91496e-07
-2.99935e-07
-3.60183e-07
-2.91709e-07
-3.6783e-07
-2.75553e-07
-3.58068e-07
-2.53097e-07
-3.28829e-07
-2.27097e-07
-3.18474e-07
-2.06623e-07
-3.15118e-07
-1.81028e-07
-3.16434e-07
-1.44355e-07
-3.11176e-07
-2.95666e-07
-9.3388e-08
-2.31898e-07
-3.11707e-07
2.03777e-07
-2.54847e-07
-3.37231e-07
-2.66573e-07
-3.56104e-07
-2.68878e-07
-3.55762e-07
-2.55789e-07
-3.41917e-07
-2.43042e-07
-3.31221e-07
-2.10128e-07
-3.48032e-07
-1.77303e-07
-3.49259e-07
-1.30112e-07
-3.58367e-07
-3.39013e-07
-8.6764e-08
-1.7353e-07
-2.97748e-07
1.5957e-07
-1.9113e-07
-3.19633e-07
-2.05901e-07
-3.41335e-07
-2.19885e-07
-3.41779e-07
-2.32553e-07
-3.29248e-07
-2.24792e-07
-3.38981e-07
-1.91266e-07
-3.81556e-07
-1.44767e-07
-3.95755e-07
-1.0226e-07
-4.00873e-07
-3.89712e-07
-5.15606e-08
-1.48523e-07
-2.91185e-07
1.41958e-07
-1.50367e-07
-3.17789e-07
-1.51177e-07
-3.40525e-07
-1.51785e-07
-3.41173e-07
-1.74131e-07
-3.06903e-07
-1.98549e-07
-3.14563e-07
-1.77979e-07
-4.02126e-07
-1.37626e-07
-4.36109e-07
-8.84173e-08
-4.50082e-07
-4.40123e-07
-3.80049e-08
-1.34534e-07
-2.89639e-07
1.32987e-07
-1.32985e-07
-3.19339e-07
-1.28197e-07
-3.45312e-07
-1.21078e-07
-3.48291e-07
-1.20083e-07
-3.07897e-07
-1.5002e-07
-2.84624e-07
-1.54246e-07
-3.97899e-07
-1.35414e-07
-4.54941e-07
-1.06761e-07
-4.78737e-07
-4.82715e-07
-6.41693e-08
-1.24212e-07
-2.86846e-07
1.21418e-07
-1.23498e-07
-3.20054e-07
-1.15303e-07
-3.53509e-07
-9.95168e-08
-3.64079e-07
-6.7298e-08
-3.40115e-07
-7.44207e-08
-2.77501e-07
-1.1209e-07
-3.6023e-07
-1.22012e-07
-4.4502e-07
-1.14555e-07
-4.86194e-07
-4.96012e-07
-1.01258e-07
-1.06567e-07
-2.74828e-07
9.4548e-08
-1.16102e-07
-3.10518e-07
-1.19474e-07
-3.50139e-07
-1.16946e-07
-3.66609e-07
-9.71713e-08
-3.5989e-07
-6.7568e-08
-3.07103e-07
-9.20218e-08
-3.35776e-07
-1.189e-07
-4.18144e-07
-1.26321e-07
-4.78775e-07
-4.9412e-07
-1.28215e-07
-5.29811e-08
-2.52907e-07
3.10593e-08
-7.32637e-08
-2.90235e-07
-9.32369e-08
-3.30165e-07
-1.01573e-07
-3.58273e-07
-8.94309e-08
-3.72035e-07
-4.51758e-08
-3.51358e-07
-3.84578e-08
-3.42493e-07
-7.9051e-08
-3.77551e-07
-1.15089e-07
-4.42739e-07
-4.81834e-07
-1.27376e-07
3.95726e-08
-2.34093e-07
-5.83874e-08
2.00189e-08
-2.70686e-07
-6.96899e-09
-3.03175e-07
-3.35871e-08
-3.31655e-07
-4.52496e-08
-3.60374e-07
-2.3594e-08
-3.73014e-07
-1.73943e-08
-3.48693e-07
-4.61503e-08
-3.48796e-07
-9.44072e-08
-3.94483e-07
-4.58114e-07
-1.18129e-07
1.44729e-07
-2.16016e-07
-1.62804e-07
1.2777e-07
-2.53733e-07
1.11514e-07
-2.86918e-07
8.5788e-08
-3.05933e-07
4.78258e-08
-3.22413e-07
2.4485e-08
-3.49671e-07
2.45143e-08
-3.4872e-07
1.0855e-08
-3.35136e-07
-2.90193e-08
-3.54608e-07
-4.17703e-07
-6.94302e-08
2.38361e-07
-1.92236e-07
-2.62143e-07
2.14568e-07
-2.29944e-07
1.9835e-07
-2.707e-07
1.8644e-07
-2.94028e-07
1.63322e-07
-2.99297e-07
1.28409e-07
-3.14757e-07
1.06817e-07
-3.27127e-07
8.45213e-08
-3.12839e-07
4.90849e-08
-3.19171e-07
-3.76106e-07
7.4888e-09
3.34314e-07
-1.43281e-07
-3.83274e-07
2.87716e-07
-1.83346e-07
2.52377e-07
-2.35361e-07
2.32879e-07
-2.74534e-07
2.17547e-07
-2.83967e-07
1.95089e-07
-2.92297e-07
1.64622e-07
-2.96659e-07
1.34396e-07
-2.82613e-07
9.92514e-08
-2.84027e-07
-3.29951e-07
5.30985e-08
3.70509e-07
-9.21226e-08
-4.21673e-07
3.23763e-07
-1.36594e-07
2.85589e-07
-1.97188e-07
2.61497e-07
-2.50443e-07
2.47229e-07
-2.697e-07
2.29509e-07
-2.74577e-07
2.06661e-07
-2.73811e-07
1.84589e-07
-2.60543e-07
1.59975e-07
-2.59413e-07
-2.85597e-07
1.15621e-07
3.63438e-07
-6.87376e-08
-3.86825e-07
3.36174e-07
-1.09328e-07
3.08851e-07
-1.69867e-07
2.8858e-07
-2.30171e-07
2.7536e-07
-2.56478e-07
2.6429e-07
-2.63506e-07
2.45026e-07
-2.54547e-07
2.27218e-07
-2.42733e-07
2.15709e-07
-2.47903e-07
-2.62834e-07
1.92946e-07
3.64135e-07
-6.9386e-08
-3.63485e-07
3.56016e-07
-1.01208e-07
3.37832e-07
-1.51683e-07
3.19962e-07
-2.12303e-07
3.12707e-07
-2.49224e-07
3.04308e-07
-2.55106e-07
2.91086e-07
-2.41324e-07
2.80131e-07
-2.31779e-07
2.6533e-07
-2.331e-07
-2.4866e-07
2.51156e-07
4.01518e-07
-8.51373e-08
-3.85766e-07
4.11576e-07
-1.11263e-07
4.03186e-07
-1.43292e-07
3.88835e-07
-1.97952e-07
3.78567e-07
-2.38957e-07
3.70613e-07
-2.4715e-07
3.68342e-07
-2.39053e-07
3.61077e-07
-2.24515e-07
3.46314e-07
-2.18336e-07
-2.32397e-07
3.30054e-07
5.24642e-07
-9.4875e-08
-5.14904e-07
5.20615e-07
-1.07238e-07
4.97405e-07
-1.2008e-07
4.752e-07
-1.75747e-07
4.68311e-07
-2.32066e-07
4.58685e-07
-2.37522e-07
4.49161e-07
-2.29527e-07
4.30323e-07
-2.05676e-07
4.14391e-07
-2.02405e-07
-2.17649e-07
3.99643e-07
5.85546e-07
-8.5408e-08
-5.95016e-07
5.59349e-07
-8.10455e-08
5.3022e-07
-9.09507e-08
5.1452e-07
-1.60048e-07
5.0499e-07
-2.22534e-07
4.91621e-07
-2.24151e-07
4.77503e-07
-2.15408e-07
4.69748e-07
-1.97921e-07
4.62576e-07
-1.95234e-07
-2.10881e-07
4.55807e-07
5.61267e-07
-5.91625e-08
-5.87513e-07
5.49513e-07
-6.92843e-08
5.49898e-07
-9.13338e-08
5.49275e-07
-1.59423e-07
5.35123e-07
-2.08382e-07
5.25281e-07
-2.14311e-07
5.19858e-07
-2.09985e-07
5.21507e-07
-1.99571e-07
5.25757e-07
-1.99485e-07
-2.19106e-07
5.3398e-07
5.1647e-07
-4.61763e-08
-5.29454e-07
5.35334e-07
-8.81405e-08
5.69422e-07
-1.2542e-07
5.71116e-07
-1.61117e-07
5.60348e-07
-1.97614e-07
5.61136e-07
-2.15098e-07
5.66555e-07
-2.15406e-07
5.7984e-07
-2.12855e-07
5.99199e-07
-2.18844e-07
-2.38025e-07
6.18118e-07
4.96285e-07
-4.94104e-08
-4.93048e-07
5.08211e-07
-1.00061e-07
5.29788e-07
-1.46999e-07
5.44289e-07
-1.75619e-07
5.56714e-07
-2.10039e-07
5.66737e-07
-2.25121e-07
5.81794e-07
-2.30462e-07
6.03841e-07
-2.34903e-07
6.429e-07
-2.57904e-07
-2.596e-07
6.64474e-07
3.82383e-07
-6.398e-08
-3.67811e-07
4.04076e-07
-1.21749e-07
4.13715e-07
-1.56638e-07
4.2338e-07
-1.85284e-07
4.38136e-07
-2.24794e-07
4.37939e-07
-2.24922e-07
4.78868e-07
-2.71391e-07
5.55748e-07
-3.11783e-07
6.30761e-07
-3.32916e-07
-2.71509e-07
6.42667e-07
2.48544e-07
-7.6682e-08
-2.35842e-07
2.30067e-07
-1.03273e-07
2.28459e-07
-1.55029e-07
2.40345e-07
-1.97169e-07
2.62783e-07
-2.47231e-07
3.27585e-07
-2.89724e-07
3.64484e-07
-3.0829e-07
3.63453e-07
-3.10752e-07
3.23641e-07
-2.93077e-07
2.41809e-07
-1.89583e-07
8.07135e-08
-6.41912e-08
-9.32027e-08
7.44728e-08
-9.70331e-08
8.21928e-08
-1.6275e-07
1.03244e-07
-2.18218e-07
1.04905e-07
-2.4889e-07
1.08763e-07
-2.93582e-07
9.96658e-08
-2.99192e-07
-2.76387e-08
-1.83511e-07
-5.03289e-07
1.82626e-07
2.7654e-07
-5.38367e-07
-1.22265e-07
-9.25706e-08
1.50644e-07
-8.77235e-08
-1.31573e-07
-7.93337e-08
-1.71139e-07
-8.58976e-08
-2.11653e-07
-9.86352e-08
-2.36154e-07
-1.23734e-07
-2.68485e-07
-1.49674e-07
-2.73237e-07
-1.51959e-07
-1.81086e-07
-1.63918e-07
1.94611e-07
2.80237e-07
-1.67387e-07
-3.33252e-07
-2.08398e-07
4.4908e-07
-2.42173e-07
-2.22651e-07
-1.95723e-07
-2.17589e-07
-1.7753e-07
-2.29844e-07
-1.80584e-07