/*--------------------------------*- C++ -*----------------------------------*\
  =========                 |
  \\      /  F ield         | OpenFOAM: The Open Source CFD Toolbox
   \\    /   O peration     | Website:  https://openfoam.org
    \\  /    A nd           | Version:  8
     \\/     M anipulation  |
\*---------------------------------------------------------------------------*/
FoamFile
{
    version     2.0;
    format      ascii;
    class       volScalarField;
    location    "8";
    object      alpha.water;
}
// * * * * * * * * * * * * * * * * * * * * * * * * * * * * * * * * * * * * * //

dimensions      [0 0 0 0 0 0 0];

internalField   nonuniform List<scalar> 
9150
(
1
1
1
1
1
1
1
1
1
1
1
1
1
1
1
1
1
1
1
1
1
1
1
1
1
1
1
1
1
1
1
1
1
1
1
1
1
1
1
1
1
1
1
1
1
1
1
1
1
1
1
1
1
1
1
1
1
1
1
1
1
1
1
1
1
1
1
1
1
1
1
1
1
1
1
1
1
1
1
1
1
1
1
1
1
1
1
1
1
1
1
1
1
1
1
1
1
1
1
1
1
1
1
1
1
1
1
1
1
1
1
1
1
1
1
1
1
1
1
1
1
1
1
1
1
1
1
1
1
1
1
1
1
1
1
1
1
1
1
1
1
1
1
1
1
1
1
1
1
1
0.997633
0.996157
0.99681
0.996109
0.996613
0.998494
0.998494
0.998494
0.998494
0.99768
0.996739
0.98972
0.98972
0.98972
0.989731
0.996545
0.998494
0.998494
0.998494
0.996774
0.998345
0.994937
0.989726
0.992729
0.997914
0.998142
0.997629
0.997485
0.997804
0.998223
0.998345
0.998345
0.998345
0.995986
0.995494
0.996007
0.998659
0.998656
0.998653
0.99822
0.998345
0.997834
0.995488
0.995488
0.995489
0.997075
0.99866
0.998659
0.998659
0.995107
0.998344
0.997525
0.995488
0.995488
0.995689
0.99866
0.998659
0.99866
0.99866
0.997744
0.997723
0.998634
0.998567
0.997228
0.998056
0.998659
0.998659
0.998659
0.998659
0.998659
0.998635
0.998634
0.998553
0.998656
0.998659
0.99866
0.998659
0.998659
0.998659
0.998659
0.998635
0.998635
0.998635
0.998621
0.99866
0.99866
0.99866
0.998659
0.99866
0.996573
0.998635
0.998635
0.998635
0.996358
0.97849
0.97411
0.995505
0.995501
0.969505
0.969017
0.998635
0.990672
0.98538
0.995672
0.969626
0.968565
0.969033
0.971555
0.968908
0.968908
0.988185
0.970649
0.970331
0.971846
0.973485
0.968573
0.968565
0.968566
0.972319
0.996109
0.991589
0.970331
0.970323
0.970319
0.970335
0.983561
0.970002
0.968598
0.991757
0.998679
0.991806
0.970323
0.970321
0.970323
0.971045
0.996426
0.994285
0.976418
0.987638
0.998434
0.972746
0.981886
0.970498
0.975402
0.992939
0.997174
0.997174
0.986255
0.976557
0.995922
0.987093
0.995551
0.995687
0.995654
0.997174
0.997174
0.997174
0.978512
0.976518
0.987668
0.987131
0.995086
0.997169
0.997243
0.993513
0.9866
0.978752
0.976495
0.976495
0.988601
0.987364
0.988268
0.992587
0.998239
0.988162
0.976508
0.976501
0.976495
0.984464
0.996531
0.990954
0.988369
0.993038
0.998647
0.996919
0.992676
0.991694
0.994878
0.998247
0.998679
0.998499
0.997603
0.998063
0.998649
0.998647
0.998627
0.998634
0.998673
0.998678
0.998679
0.998665
0.998664
0.99866
0.998656
0.99796
0.996876
0.996931
0.998668
0.998579
0.998655
0.956176
0.974495
0.996771
0.998654
0.998654
0.998097
0.995826
0.995825
0.995825
0.99595
0.945536
0.945319
0.944988
0.944675
0.968426
0.998192
0.998295
0.998294
0.997228
0.995985
0.994551
0.997926
0.97543
0.943446
0.943166
0.942775
0.945822
0.987975
0.997219
0.996798
0.998011
0.998075
0.997994
0.997139
0.953072
0.942562
0.942562
0.942562
0.970357
0.997689
0.998061
0.998135
0.998147
0.998161
0.998154
0.966747
0.942562
0.942586
0.96771
0.998557
0.924715
0.998139
0.998161
0.998162
0.998162
0.997734
0.962532
0.965411
0.993291
0.998586
0.818859
0.94225
0.995252
0.998162
0.998162
0.998162
0.997388
0.998532
0.998586
0.998588
0.81793
0.842015
0.998161
0.998162
0.998132
0.995764
0.976289
0.960763
0.983089
0.976306
0.91461
0.932597
0.925442
0.924993
0.925035
0.951906
0.982229
0.941154
0.936414
0.945814
0.995417
0.994311
0.982952
0.99059
0.99301
0.993017
0.992996
0.966733
0.935342
0.956641
0.996639
0.995867
0.99559
0.990985
0.975479
0.941408
0.910972
0.892606
0.916806
0.948783
0.975063
0.975183
0.993108
0.995446
0.995435
0.987018
0.85082
0.840562
0.840475
0.840469
0.954744
0.989477
0.995373
0.995435
0.995451
0.995442
0.913509
0.84107
0.840546
0.840475
0.943994
0.962309
0.993925
0.994368
0.995424
0.995451
0.995205
0.888733
0.84107
0.840546
0.946679
0.949368
0.930943
0.912559
0.954364
0.995128
0.991224
0.97649
0.968349
0.953941
0.900631
0.900464
0.900292
0.90048
0.907826
0.958905
0.915117
0.798267
0.796684
0.85146
0.911817
0.925911
0.931592
0.926682
0.86336
0.751388
0.663346
0.663339
0.663339
0.663339
0.994005
0.993944
0.989413
0.845649
0.664589
0.663691
0.66334
0.663339
0.663339
0.663339
0.99428
0.993897
0.910993
0.684304
0.665308
0.706595
0.681766
0.663258
0.663339
0.663428
0.994254
0.993415
0.879585
0.772509
0.95641
0.982925
0.824512
0.663227
0.663265
0.663398
0.994234
0.992124
0.987522
0.986699
0.98542
0.98455
0.980664
0.802966
0.663381
0.663456
0.989488
0.976361
0.976665
0.98542
0.980376
0.975307
0.978136
0.985106
0.984392
0.836002
0.916183
0.776765
0.856113
0.984446
0.981612
0.980442
0.981891
0.985179
0.98531
0.985273
0.764575
0.763532
0.763693
0.893651
0.976051
0.906989
0.881558
0.985302
0.985301
0.985307
0.763532
0.763532
0.763532
0.763153
0.762379
0.764469
0.868522
0.985148
0.98531
0.985273
0.873445
0.763508
0.76312
0.762387
0.762387
0.762387
0.764469
0.927684
0.985148
0.985005
0.98779
0.98695
0.982899
0.867066
0.763969
0.766301
0.771419
0.784044
0.948648
0.983957
0.957848
0.955963
0.979107
0.977543
0.976789
0.975355
0.959689
0.716804
0.641369
0.89306
0.696282
0.781258
0.923144
0.927283
0.930778
0.973713
0.970397
0.830275
0.641369
0.641369
0.99544
0.937467
0.703747
0.703747
0.703747
0.884866
0.913339
0.670407
0.641368
0.641461
0.995563
0.995696
0.931675
0.703747
0.70438
0.705013
0.72143
0.651212
0.641461
0.705339
0.995696
0.995835
0.995848
0.921162
0.730331
0.705157
0.719606
0.891442
0.938279
0.984539
0.995835
0.995852
0.995848
0.995852
0.995803
0.90476
0.927918
0.994008
0.994605
0.995654
0.923524
0.995838
0.995851
0.995838
0.995522
0.993867
0.991076
0.993876
0.994008
0.99491
0.619935
0.986616
0.995838
0.992411
0.946206
0.893893
0.86013
0.844897
0.81401
0.772368
0.398841
0.918025
0.995585
0.801785
0.52596
0.398179
0.351981
0.355024
0.347663
0.374671
0.319927
0.850816
0.935203
0.491554
0.346668
0.346627
0.346652
0.346631
0.346679
0.347663
0.732187
0.916078
0.739616
0.348432
0.346722
0.346667
0.346611
0.346679
0.347661
0.540034
0.941469
0.927083
0.492405
0.347636
0.346969
0.346722
0.346736
0.347957
0.590547
0.983353
0.944173
0.892018
0.406969
0.348544
0.347637
0.346953
0.401542
0.803731
0.987308
0.987549
0.504482
0.35189
0.35187
0.350441
0.351456
0.53811
0.972538
0.987515
0.987593
0.987572
0.3525
0.352232
0.351891
0.430823
0.887239
0.986755
0.987515
0.987593
0.987593
0.987593
0.352853
0.358559
0.60601
0.987596
0.988511
0.986338
0.98718
0.987515
0.987593
0.987572
0.739107
0.958685
0.989135
0.989165
0.989009
0.965766
0.964968
0.987282
0.987492
0.984367
0.989146
0.989169
0.989169
0.989154
0.974431
0.964523
0.964577
0.98418
0.961448
0.870643
0.989173
0.989146
0.989135
0.989157
0.968552
0.964691
0.975035
0.975353
0.869268
0.869956
0.988859
0.986552
0.987447
0.988715
0.978992
0.975947
0.975952
0.877868
0.869268
0.893847
0.888666
0.680502
0.691717
0.865027
0.976722
0.976199
0.913766
0.725658
0.890756
0.922146
0.477628
0.394658
0.39448
0.451628
0.857061
0.975689
0.706711
0.524951
0.887458
0.920507
0.395451
0.39448
0.39439
0.394389
0.468246
0.564454
0.401111
0.451653
0.879794
0.91948
0.400664
0.394821
0.394389
0.39438
0.394389
0.394389
0.394449
0.69077
0.911366
0.916191
0.65476
0.50471
0.394502
0.394389
0.39438
0.394414
0.488177
0.908246
0.914202
0.884247
0.921709
0.922785
0.44092
0.394502
0.394414
0.39499
0.884589
0.9262
0.92255
0.50908
0.933509
0.983763
0.743918
0.396132
0.39499
0.710917
0.939998
0.932382
0.874915
0.317657
0.98198
0.984091
0.973027
0.461165
0.483925
0.925289
0.943416
0.939998
0.50498
0.274171
0.984091
0.984153
0.984091
0.663367
0.857664
0.953935
0.948925
0.67638
0.272298
0.272622
0.984153
0.984153
0.983829
0.784936
0.908034
0.956254
0.934768
0.368346
0.272305
0.272345
0.98418
0.984153
0.806023
0.672303
0.895492
0.957918
0.709503
0.277095
0.272301
0.272305
0.984232
0.984117
0.641388
0.641388
0.908418
0.958649
0.632665
0.295165
0.2723
0.272301
0.984267
0.980582
0.6417
0.641388
0.96325
0.959823
0.60601
0.304397
0.272301
0.2723
0.984344
0.965319
0.694529
0.681841
0.983054
0.960871
0.573012
0.39702
0.2723
0.272301
0.984431
0.948788
0.77897
0.82021
0.989178
0.951896
0.541684
0.371317
0.272861
0.286804
0.984452
0.978455
0.856071
0.755714
0.989178
0.968043
0.596506
0.355416
0.273696
0.274413
0.984449
0.98441
0.862916
0.608537
0.989171
0.968727
0.629661
0.444381
0.274413
0.27428
0.984412
0.984277
0.856509
0.605425
0.989154
0.966011
0.610945
0.754845
0.27428
0.27428
0.889282
0.896945
0.821885
0.605078
0.988732
0.97728
0.607858
0.76948
0.373975
0.27428
0.478716
0.453458
0.543189
0.614694
0.987932
0.978257
0.607715
0.7734
0.697926
0.344726
0.240046
0.415185
0.439459
0.615841
0.993221
0.978329
0.618239
0.774467
0.835009
0.859611
0.01396
0.178784
0.0765687
0.628841
0.993755
0.99031
0.63865
0.518161
0.55856
0.492921
0.0022846
0.105336
0.0116856
0.633411
0.99486
0.994278
0.641902
0.0630616
0.0699862
0.0245283
0.00361444
0.00388345
0.00730154
0.728494
0.997344
0.99634
0.730206
0.00596138
0.000632791
0.00138975
0.00389967
0.000608006
0.0304245
0.830797
0.998675
0.997313
0.828433
0.0353589
0.000188066
0.000882851
0.00391058
0.000467978
0.101465
0.883823
0.998793
0.999415
0.887306
0.122323
0.000159361
0.00117582
0.00348306
0.000480433
0.188772
0.929127
0.99959
0.999533
0.965863
0.274078
0.000109618
0.000333951
0.000381409
0.000279161
0.368765
0.984005
0.999744
0.999877
0.988264
0.438509
4.95262e-05
4.24062e-05
3.83782e-05
7.76213e-05
0.61133
0.999805
0.999966
0.999895
0.999877
0.698902
6.93013e-05
5.24096e-05
4.26808e-06
0.0697718
0.886881
0.999967
0.999989
0.999997
0.999913
0.850706
0.0829534
2.32098e-05
1.69597e-07
0.528948
0.997585
0.999987
1
1
0.999995
0.999756
0.587445
2.23581e-08
0.296376
0.96108
1
1
1
1
1
1
0.97322
0.334641
0.995926
0.997996
0.998614
0.998614
0.998614
0.998614
0.998614
0.998614
0.998613
0.996344
0.989759
0.991784
0.995305
0.995279
0.997316
0.998183
0.998184
0.998186
0.998186
0.998186
0.998186
0.998186
0.998186
0.996256
0.994987
0.994986
0.994987
0.99524
0.997043
0.996333
0.995769
0.995781
0.995777
0.99576
0.99575
0.99576
0.995343
0.995342
0.99534
0.995583
0.996668
0.998614
0.998614
0.998614
0.998223
0.998138
0.998328
0.998613
0.998606
0.987869
0.945936
0.945033
0.944864
0.944826
0.944807
0.948133
0.99319
0.998186
0.998186
0.998186
0.998186
0.998186
0.998186
0.998186
0.998184
0.998181
0.997798
0.997779
0.996979
0.984476
0.980863
0.981508
0.980718
0.987792
0.992517
0.996039
0.997032
0.997032
0.997
0.99596
0.998219
0.993087
0.991032
0.998491
0.998581
0.99858
0.998587
0.998595
0.997097
0.994584
0.995034
0.997106
0.996668
0.960446
0.944807
0.944799
0.944809
0.945196
0.972475
0.998186
0.998186
0.998186
0.998186
0.998151
0.997696
0.996435
0.988838
0.987282
0.992489
0.983678
0.947743
0.935818
0.935818
0.935818
0.935818
0.951052
0.973485
0.996289
0.998381
0.99838
0.992014
0.990189
0.990188
0.990193
0.993778
0.998581
0.997146
0.989849
0.984947
0.9834
0.991994
0.978451
0.982702
0.9969
0.996124
0.99707
0.997401
0.988248
0.960657
0.958604
0.964445
0.981431
0.98069
0.975308
0.975308
0.986015
0.992906
0.987281
0.987296
0.990161
0.997528
0.97682
0.935818
0.935818
0.935818
0.935821
0.935824
0.980343
0.998389
0.998381
0.990189
0.990188
0.990189
0.990189
0.996882
0.998494
0.998461
0.984851
0.978657
0.978686
0.986946
0.978439
0.978439
0.978439
0.985183
0.997414
0.997966
0.997975
0.98014
0.958564
0.958556
0.958582
0.98722
0.996298
0.996298
0.994347
0.994005
0.997758
0.99845
0.998464
0.998465
0.998386
0.957031
0.935818
0.93741
0.935829
0.952609
0.990378
0.998463
0.991461
0.99094
0.990189
0.992507
0.995871
0.996679
0.993158
0.996332
0.996303
0.994391
0.978857
0.978744
0.987393
0.989908
0.988949
0.978712
0.978664
0.989028
0.998005
0.997957
0.987227
0.977972
0.971757
0.980146
0.996304
0.989704
0.962158
0.960334
0.976898
0.991364
0.998465
0.998466
0.998466
0.998466
0.987202
0.996508
0.997318
0.998465
0.998464
0.998463
0.978693
0.998334
0.997014
0.997469
0.996619
0.991583
0.99154
0.991589
0.993434
0.992763
0.99021
0.990077
0.989994
0.989962
0.989924
0.978568
0.978637
0.990132
0.998053
0.998054
0.998053
0.998051
0.997935
0.996528
0.97715
0.960326
0.960326
0.960326
0.960334
0.969782
0.995599
0.998466
0.998466
0.998466
0.998466
0.998465
0.998465
0.998465
0.998465
0.998464
0.972466
0.998659
0.996238
0.991883
0.991784
0.992032
0.997837
0.992658
0.954982
0.932064
0.904931
0.846402
0.925489
0.957764
0.970594
0.978528
0.986574
0.99747
0.998054
0.998054
0.998054
0.998053
0.998051
0.979139
0.960445
0.960343
0.960326
0.962134
0.975635
0.995207
0.995061
0.998465
0.998466
0.998466
0.998465
0.998465
0.998465
0.998465
0.998283
0.974215
0.964034
0.975118
0.972396
0.980537
0.995284
0.998668
0.99866
0.950865
0.802985
0.802981
0.802985
0.8032
0.822769
0.989557
0.996949
0.99507
0.998029
0.998053
0.998053
0.998054
0.998052
0.977452
0.960822
0.960674
0.960642
0.980863
0.989778
0.995936
0.998438
0.998443
0.998449
0.998465
0.998465
0.998463
0.998463
0.998464
0.998464
0.997294
0.975445
0.964044
0.964031
0.96921
0.991171
0.998679
0.998678
0.998678
0.998668
0.961685
0.802981
0.802982
0.802982
0.803067
0.924149
0.997962
0.997982
0.998
0.998019
0.998048
0.990682
0.978826
0.976774
0.97718
0.984088
0.99366
0.995554
0.99875
0.998693
0.997455
0.99717
0.997956
0.998334
0.998457
0.996732
0.990783
0.982742
0.975009
0.962877
0.958781
0.967282
0.976575
0.988698
0.99191
0.998679
0.998679
0.998679
0.998678
0.998676
0.998661
0.985219
0.892386
0.866568
0.970144
0.997703
0.997865
0.993591
0.972279
0.986037
0.997899
0.995236
0.980917
0.971198
0.979562
0.995082
0.998229
0.998894
0.998889
0.990294
0.956432
0.944917
0.958194
0.964492
0.970685
0.960055
0.930601
0.915952
0.915974
0.915974
0.950879
0.988704
0.988704
0.988704
0.998679
0.998679
0.998679
0.998678
0.998424
0.998121
0.998141
0.989877
0.988737
0.996966
0.998309
0.99785
0.979752
0.937622
0.937621
0.937635
0.944691
0.943884
0.943536
0.943536
0.96771
0.998913
0.998913
0.998913
0.998906
0.977397
0.941715
0.941715
0.941715
0.94177
0.942919
0.948361
0.932899
0.920231
0.915956
0.916206
0.916467
0.964693
0.988704
0.9887
0.998679
0.998679
0.998678
0.998677
0.994681
0.969532
0.973387
0.998741
0.99874
0.998732
0.998673
0.995183
0.945313
0.937621
0.937621
0.937621
0.937635
0.937757
0.956813
0.998873
0.998913
0.998913
0.998913
0.998913
0.998913
0.998915
0.993683
0.971014
0.973009
0.998084
0.998877
0.998876
0.998859
0.998825
0.967002
0.945126
0.942611
0.94327
0.944452
0.931636
0.998679
0.998679
0.998678
0.998646
0.95883
0.890223
0.963571
0.998742
0.998742
0.998742
0.998736
0.998554
0.98253
0.966188
0.971516
0.987088
0.989175
0.992519
0.997767
0.998851
0.998882
0.998913
0.998913
0.998913
0.998915
0.998915
0.998915
0.998915
0.998915
0.998914
0.998907
0.99764
0.997728
0.998769
0.998745
0.998745
0.998745
0.998744
0.929455
0.890814
0.998679
0.998679
0.998677
0.997927
0.927744
0.889665
0.913432
0.998742
0.998742
0.998742
0.998742
0.998736
0.998693
0.998453
0.997998
0.99773
0.986315
0.973588
0.973467
0.980821
0.996714
0.992264
0.998382
0.998907
0.998911
0.998915
0.998915
0.998915
0.998914
0.998911
0.997569
0.995538
0.995538
0.996689
0.998745
0.998745
0.998745
0.997991
0.936149
0.890779
0.998679
0.998679
0.998679
0.998664
0.963495
0.889967
0.889665
0.930659
0.998742
0.998742
0.998741
0.998714
0.988086
0.950486
0.969265
0.997694
0.997792
0.997839
0.985326
0.965922
0.944862
0.93742
0.93682
0.971438
0.989372
0.998582
0.998913
0.998906
0.998905
0.998863
0.997979
0.996535
0.995629
0.996658
0.998571
0.998728
0.995915
0.995423
0.982904
0.890779
0.998679
0.998679
0.998679
0.99868
0.997909
0.959318
0.890759
0.891019
0.91302
0.974495
0.998714
0.998674
0.966176
0.881113
0.881092
0.886622
0.974332
0.998435
0.998435
0.998435
0.998435
0.980621
0.898716
0.885464
0.898749
0.979019
0.998695
0.968364
0.973113
0.967191
0.987691
0.998685
0.998935
0.998935
0.998936
0.998829
0.996268
0.994645
0.986568
0.890779
0.998679
0.998679
0.998679
0.99868
0.998679
0.998658
0.980874
0.922217
0.899848
0.899848
0.931999
0.937517
0.900959
0.881078
0.881071
0.881092
0.942794
0.998435
0.998435
0.998435
0.998435
0.998435
0.97981
0.885462
0.88546
0.948132
0.955192
0.89729
0.897289
0.897289
0.91469
0.982865
0.998935
0.998936
0.998936
0.998936
0.998936
0.998046
0.990534
0.896765
0.998679
0.998679
0.99868
0.998679
0.99868
0.998679
0.998657
0.996905
0.964423
0.904096
0.882769
0.881436
0.881078
0.881071
0.881078
0.910159
0.99617
0.99843
0.998435
0.998435
0.998435
0.998432
0.962971
0.88546
0.88546
0.945949
0.89729
0.897289
0.897289
0.897289
0.897289
0.942721
0.998791
0.998936
0.998936
0.998936
0.998936
0.998936
0.993462
0.984051
0.998678
0.998679
0.998679
0.997954
0.998679
0.998645
0.998655
0.998646
0.998588
0.983863
0.940473
0.894028
0.881091
0.881078
0.920541
0.993912
0.998358
0.998356
0.99843
0.998419
0.998432
0.998421
0.911981
0.885462
0.88546
0.937369
0.897319
0.897289
0.897289
0.897289
0.897289
0.947388
0.998196
0.998925
0.998935
0.998936
0.998936
0.998936
0.991316
0.994028
0.998284
0.998467
0.99867
0.992784
0.984939
0.98136
0.997262
0.998645
0.998644
0.998618
0.997503
0.988258
0.958182
0.966831
0.994834
0.994905
0.972646
0.918677
0.877014
0.922006
0.99451
0.996355
0.890063
0.885479
0.885464
0.920554
0.963998
0.897383
0.897289
0.897289
0.913088
0.993212
0.997594
0.991357
0.996643
0.998936
0.998936
0.998936
0.991313
0.99403
0.998491
0.998631
0.998661
0.87252
0.837591
0.990291
0.998638
0.998647
0.998647
0.998646
0.998636
0.998703
0.998712
0.998723
0.99872
0.998629
0.870138
0.732396
0.732024
0.732132
0.923003
0.995983
0.963872
0.885648
0.885481
0.919879
0.996631
0.94285
0.897316
0.897283
0.983172
0.997942
0.996057
0.979008
0.98399
0.99879
0.998936
0.998936
0.992206
0.993271
0.998333
0.998593
0.985343
0.845544
0.836036
0.928399
0.998647
0.998647
0.998647
0.998672
0.998693
0.998722
0.998735
0.998736
0.998723
0.949931
0.736872
0.732024
0.731991
0.732024
0.847535
0.996702
0.996222
0.954895
0.918013
0.985457
0.996874
0.990555
0.89804
0.920515
0.993969
0.99801
0.992489
0.978856
0.978859
0.996964
0.998936
0.998936
0.997279
0.991568
0.998488
0.998549
0.99852
0.940359
0.836344
0.836036
0.852892
0.880727
0.930168
0.987344
0.998722
0.998735
0.998736
0.998736
0.944796
0.737731
0.732043
0.731995
0.732016
0.757171
0.970929
0.998728
0.995168
0.996821
0.99687
0.996874
0.996874
0.996874
0.907914
0.93207
0.992662
0.998261
0.995525
0.978859
0.978856
0.992061
0.998936
0.998936
0.998753
0.991567
0.997273
0.997043
0.998503
0.997444
0.949481
0.922815
0.941153
0.911702
0.911745
0.934253
0.996853
0.998731
0.998736
0.998736
0.94875
0.735171
0.732824
0.766041
0.951418
0.998705
0.998734
0.998736
0.991699
0.988579
0.992092
0.99687
0.996874
0.99687
0.924809
0.904998
0.973936
0.9987
0.998718
0.985407
0.978859
0.982365
0.997995
0.998936
0.995238
0.992087
0.998586
0.993861
0.993288
0.996795
0.997063
0.998242
0.99867
0.996619
0.975137
0.97779
0.992308
0.998729
0.998737
0.998737
0.989729
0.961015
0.958812
0.983583
0.998416
0.998736
0.998736
0.998736
0.992804
0.988474
0.988497
0.995524
0.996863
0.959936
0.903824
0.904858
0.97366
0.998718
0.998733
0.998282
0.980859
0.979228
0.991559
0.998928
0.975986
0.983167
0.998588
0.996229
0.993247
0.993223
0.993212
0.998305
0.998693
0.998723
0.998729
0.998731
0.998154
0.998737
0.998737
0.998737
0.998737
0.998737
0.998735
0.998735
0.998736
0.998736
0.998736
0.998736
0.998309
0.99707
0.996965
0.996828
0.9627
0.903821
0.903821
0.931723
0.996901
0.998733
0.998735
0.998735
0.997885
0.98063
0.990572
0.995766
0.949907
0.974778
0.998588
0.998588
0.996581
0.993209
0.993214
0.994433
0.99872
0.99873
0.998731
0.998734
0.998736
0.998737
0.998737
0.998737
0.998737
0.998736
0.998736
0.998736
0.998736
0.998736
0.998736
0.998736
0.998736
0.998623
0.993302
0.910214
0.903682
0.903827
0.915735
0.992175
0.998728
0.998735
0.998735
0.998735
0.998735
0.998735
0.998576
0.970474
0.949907
0.973652
0.981922
0.996218
0.996334
0.996163
0.995174
0.99747
0.99873
0.998731
0.998731
0.998731
0.94713
0.914805
0.983874
0.998737
0.998736
0.998736
0.998736
0.998736
0.997343
0.998412
0.998736
0.998736
0.998736
0.946724
0.903545
0.903545
0.903545
0.934678
0.997385
0.998732
0.998735
0.998735
0.998735
0.998731
0.998735
0.998735
0.998735
0.984994
0.949907
0.975529
0.964552
0.976107
0.97843
0.978857
0.984679
0.995807
0.998725
0.99873
0.998731
0.980551
0.869643
0.906447
0.99397
0.998711
0.998734
0.998736
0.998736
0.996589
0.995591
0.997126
0.998732
0.998736
0.97531
0.903584
0.903565
0.903545
0.981178
0.998698
0.998737
0.998735
0.998735
0.998735
0.998735
0.998718
0.998732
0.998735
0.998735
0.998026
0.972853
0.975452
0.963348
0.950817
0.950689
0.950727
0.985563
0.998533
0.998724
0.998725
0.984379
0.8738
0.86888
0.879571
0.990158
0.998363
0.995447
0.93829
0.957532
0.997469
0.998719
0.998721
0.998724
0.998732
0.944424
0.904457
0.903584
0.964419
0.998657
0.998742
0.998731
0.998734
0.998735
0.998735
0.998735
0.998735
0.995818
0.995652
0.997498
0.997698
0.997561
0.963273
0.963581
0.964521
0.953743
0.950689
0.968309
0.997594
0.99872
0.998724
0.99872
0.948435
0.868116
0.867526
0.901852
0.933089
0.876678
0.86549
0.900615
0.994811
0.998714
0.998719
0.998721
0.967007
0.922036
0.92106
0.972456
0.998631
0.9987
0.998713
0.998731
0.998731
0.998734
0.998735
0.998735
0.998735
0.99568
0.971923
0.993296
0.997615
0.997454
0.860473
0.840475
0.892657
0.968446
0.978411
0.98623
0.998518
0.998716
0.99872
0.997953
0.997906
0.94322
0.866868
0.865962
0.865074
0.865027
0.865328
0.916912
0.997994
0.998693
0.998714
0.976087
0.955754
0.969186
0.998592
0.998597
0.998655
0.998688
0.9987
0.997841
0.993259
0.99615
0.998731
0.998735
0.998735
0.978285
0.965622
0.977679
0.997406
0.995765
0.850432
0.840469
0.840476
0.891379
0.993756
0.997127
0.998483
0.998632
0.998716
0.998285
0.997231
0.998001
0.9132
0.865074
0.865026
0.86503
0.86503
0.976328
0.998581
0.998621
0.964239
0.955786
0.969738
0.998592
0.99861
0.998592
0.997053
0.998536
0.998688
0.993138
0.980279
0.991996
0.992605
0.973178
0.966184
0.965622
0.965743
0.983233
0.996963
0.996859
0.851688
0.840476
0.89181
0.984278
0.989913
0.990306
0.990802
0.989219
0.997119
0.998234
0.998155
0.998043
0.998002
0.891039
0.86503
0.865027
0.943805
0.998372
0.998478
0.980026
0.958013
0.981083
0.998541
0.99861
0.99861
0.99804
0.990394
0.988416
0.993263
0.980565
0.968719
0.968684
0.968695
0.972567
0.965914
0.969028
0.991671
0.996825
0.996859
0.996859
0.847354
0.876939
0.891597
0.939005
0.919098
0.796389
0.881503
0.993955
0.997657
0.998108
0.998075
0.99803
0.997975
0.978905
0.892372
0.933691
0.99702
0.998285
0.995078
0.949611
0.987053
0.997158
0.99253
0.996629
0.99861
0.997178
0.992225
0.982882
0.960808
0.959184
0.992473
0.996647
0.996708
0.996551
0.987325
0.977054
0.993112
0.996859
0.996858
0.996859
0.78157
0.689984
0.663342
0.663345
0.663405
0.664366
0.768118
0.984155
0.996613
0.997791
0.997617
0.997975
0.997933
0.983368
0.979232
0.995587
0.998196
0.998179
0.975748
0.935575
0.985595
0.993572
0.911549
0.957691
0.998591
0.998569
0.996036
0.971346
0.893087
0.893394
0.943652
0.996711
0.996734
0.996711
0.996436
0.915369
0.827441
0.826486
0.858227
0.855943
0.768778
0.663339
0.66334
0.663342
0.663345
0.663405
0.790162
0.99438
0.996603
0.997746
0.996651
0.988685
0.976748
0.963482
0.967272
0.989938
0.998141
0.995664
0.938738
0.935504
0.963274
0.993331
0.893951
0.895934
0.998569
0.99844
0.997914
0.935267
0.893064
0.893087
0.89347
0.976305
0.996731
0.996734
0.996687
0.992071
0.845015
0.773249
0.771015
0.768811
0.768945
0.663479
0.664443
0.66336
0.663356
0.663481
0.902682
0.996659
0.996697
0.996723
0.988976
0.972986
0.963482
0.963482
0.963482
0.987895
0.998244
0.991134
0.935827
0.935515
0.96703
0.992996
0.893733
0.864087
0.966784
0.998289
0.997673
0.976272
0.893087
0.893044
0.893229
0.974204
0.996732
0.996731
0.996306
0.988178
0.949209
0.925319
0.902444
0.835561
0.80273
0.66444
0.664443
0.663409
0.663404
0.66353
0.76515
0.9791
0.979045
0.968675
0.985856
0.997842
0.982679
0.975648
0.986298
0.997422
0.998244
0.997808
0.969883
0.96819
0.967803
0.929399
0.86408
0.864195
0.931594
0.998272
0.997168
0.993402
0.948872
0.893187
0.893322
0.955625
0.996804
0.995694
0.952013
0.944323
0.944298
0.950812
0.986018
0.982096
0.975309
0.663498
0.663427
0.663411
0.66343
0.663458
0.664173
0.771731
0.944357
0.944055
0.958173
0.997875
0.997915
0.997973
0.998194
0.998206
0.998244
0.973197
0.910621
0.910073
0.872317
0.864398
0.864542
0.877217
0.984364
0.998696
0.998715
0.997101
0.992962
0.929899
0.894745
0.968506
0.996881
0.995104
0.952003
0.944294
0.944487
0.962031
0.986071
0.986105
0.972983
0.663457
0.663432
0.663426
0.663459
0.813617
0.996383
0.996398
0.996147
0.997766
0.997839
0.997889
0.997839
0.981096
0.931333
0.916931
0.915288
0.91421
0.914223
0.947131
0.948387
0.926986
0.933034
0.978318
0.998694
0.998716
0.998717
0.998715
0.99869
0.976858
0.934358
0.996881
0.996881
0.996881
0.996864
0.991015
0.946148
0.931115
0.986529
0.986935
0.986652
0.663542
0.663508
0.663829
0.683835
0.962828
0.996398
0.989484
0.94246
0.941882
0.946608
0.943947
0.953174
0.985873
0.996123
0.986894
0.981608
0.982386
0.981478
0.992003
0.998413
0.998678
0.998698
0.998695
0.998717
0.998717
0.998718
0.998717
0.998715
0.997386
0.991947
0.996875
0.996881
0.996865
0.996378
0.957057
0.93102
0.930991
0.933712
0.987253
0.991588
0.984304
0.851314
0.665804
0.670183
0.722048
0.971372
0.987216
0.960984
0.942108
0.941848
0.942169
0.958511
0.991698
0.99648
0.994491
0.995395
0.996647
0.996491
0.995428
0.998658
0.998706
0.998713
0.998717
0.998717
0.998718
0.998717
0.998718
0.998717
0.998711
0.9985
0.986563
0.980179
0.979169
0.985541
0.931474
0.930991
0.931045
0.931976
0.983988
0.991921
0.985273
0.984998
0.97599
0.788892
0.707156
0.706819
0.707436
0.764795
0.94841
0.949418
0.963669
0.995913
0.996524
0.996629
0.996647
0.996647
0.996648
0.996647
0.996688
0.996706
0.99121
0.987818
0.993331
0.998717
0.998717
0.996232
0.998717
0.998711
0.998704
0.99862
0.949242
0.851981
0.847228
0.959141
0.986626
0.946516
0.931136
0.957411
0.994519
0.994519
0.985005
0.973223
0.957909
0.959973
0.959973
0.948267
0.771665
0.764655
0.779578
0.898553
0.960908
0.996311
0.996525
0.996636
0.996647
0.996648
0.996647
0.996643
0.99659
0.99666
0.885717
0.897279
0.989391
0.998701
0.998711
0.995917
0.975693
0.970145
0.990704
0.997544
0.980629
0.9024
0.847228
0.864891
0.98839
0.989734
0.931821
0.95214
0.994416
0.994519
0.983957
0.920245
0.862558
0.859399
0.939882
0.971172
0.980289
0.980538
0.982931
0.983041
0.974934
0.96974
0.989667
0.994453
0.996644
0.996647
0.996642
0.995065
0.932731
0.826155
0.82747
0.836823
0.980753
0.998679
0.998695
0.926765
0.776215
0.759381
0.785989
0.917895
0.97699
0.985964
0.982408
0.838681
0.959447
0.995356
0.971342
0.950964
0.979591
0.994519
0.985369
0.975443
0.867738
0.856805
0.856734
0.855011
0.921886
0.966457
0.983049
0.968362
0.901665
0.901582
0.911357
0.942298
0.992979
0.996644
0.996215
0.948752
0.690395
0.683385
0.969208
0.99282
0.996548
0.998058
0.930682
0.756374
0.754041
0.754036
0.754082
0.754574
0.925589
0.988534
0.988525
0.845021
0.891813
0.995776
0.996695
0.963867
0.975944
0.994516
0.988081
0.988081
0.988082
0.939115
0.865262
0.853359
0.853359
0.853359
0.96604
0.957742
0.901582
0.901563
0.901564
0.901564
0.943837
0.996602
0.996325
0.884533
0.66248
0.727003
0.99774
0.997754
0.99774
0.995556
0.833478
0.754041
0.754038
0.754041
0.754041
0.754082
0.914203
0.988525
0.988539
0.716122
0.85299
0.996627
0.996736
0.996718
0.985289
0.993839
0.886868
0.988082
0.988013
0.970505
0.965059
0.928649
0.860031
0.855858
0.878036
0.956641
0.920077
0.902913
0.901563
0.902076
0.907721
0.996325
0.99434
0.961714
0.658809
0.61326
0.68511
0.997744
0.997753
0.997654
0.976035
0.895109
0.871265
0.86105
0.822765
0.885215
0.964371
0.979776
0.684935
0.370121
0.80215
0.996464
0.996695
0.996736
0.996679
0.993849
0.712115
0.988081
0.979414
0.742428
0.823583
0.918296
0.915137
0.911167
0.844301
0.932646
0.93785
0.937857
0.937706
0.902565
0.911405
0.984893
0.992087
0.991256
0.984351
0.694169
0.586312
0.586287
0.599406
0.795438
0.862952
0.879384
0.875228
0.883883
0.914851
0.920381
0.923307
0.569988
0.367158
0.365909
0.675731
0.993199
0.996464
0.996683
0.996586
0.995175
0.910491
0.983066
0.993433
0.681845
0.453017
0.733162
0.823662
0.845833
0.814875
0.823233
0.93785
0.937773
0.936769
0.930984
0.928263
0.956176
0.989222
0.990349
0.989287
0.989064
0.987298
0.848876
0.57105
0.45158
0.450761
0.447738
0.437138
0.447919
0.566586
0.658884
0.466961
0.366271
0.365741
0.365735
0.600231
0.96845
0.983862
0.97306
0.993789
0.995222
0.996105
0.996133
0.996016
0.840018
0.446902
0.446529
0.446294
0.473509
0.575358
0.781612
0.839057
0.884518
0.789951
0.82467
0.846508
0.807065
0.907915
0.968429
0.978873
0.988825
0.988115
0.987346
0.988268
0.84863
0.692147
0.495356
0.378604
0.374527
0.368695
0.366425
0.365861
0.365669
0.36564
0.365705
0.548658
0.874686
0.867204
0.947881
0.995103
0.995222
0.996133
0.996162
0.996187
0.967886
0.571186
0.446294
0.446229
0.446235
0.446231
0.599143
0.770551
0.548845
0.446327
0.446317
0.523585
0.776201
0.831817
0.784575
0.775029
0.832282
0.935838
0.986775
0.989189
0.989189
0.988941
0.938062
0.777274
0.455366
0.366428
0.365861
0.365669
0.365656
0.365669
0.365664
0.668544
0.816749
0.837472
0.950364
0.994983
0.995148
0.995988
0.996187
0.99619
0.996195
0.959389
0.497519
0.446237
0.446229
0.446232
0.446236
0.648624
0.446334
0.446328
0.446323
0.44633
0.697009
0.868043
0.799161
0.730685
0.70675
0.703574
0.799255
0.91395
0.980361
0.985502
0.992235
0.992427
0.915094
0.723
0.561132
0.439129
0.379547
0.390809
0.522186
0.750794
0.811066
0.880992
0.97892
0.994866
0.99486
0.917798
0.994007
0.996195
0.996195
0.996195
0.857042
0.452226
0.446232
0.446234
0.446234
0.446248
0.446299
0.446331
0.446275
0.446319
0.601431
0.928151
0.930446
0.929411
0.928963
0.697046
0.675292
0.738407
0.891526
0.898393
0.966299
0.992778
0.994282
0.99523
0.97498
0.928361
0.909509
0.934697
0.884933
0.750339
0.76378
0.879837
0.975573
0.988087
0.994831
0.761236
0.991053
0.996179
0.996195
0.996165
0.958062
0.501023
0.446242
0.446234
0.446251
0.446269
0.446166
0.446216
0.446342