/*--------------------------------*- C++ -*----------------------------------*\
  =========                 |
  \\      /  F ield         | OpenFOAM: The Open Source CFD Toolbox
   \\    /   O peration     | Website:  https://openfoam.org
    \\  /    A nd           | Version:  8
     \\/     M anipulation  |
\*---------------------------------------------------------------------------*/
FoamFile
{
    version     2.0;
    format      ascii;
    class       surfaceScalarField;
    location    "8";
    object      alphaPhi0.water;
}
// * * * * * * * * * * * * * * * * * * * * * * * * * * * * * * * * * * * * * //

dimensions      [0 3 -1 0 0 0 0];

internalField   nonuniform List<scalar> 
18095
(
1.99033e-08
-1.72088e-07
1.52184e-07
2.3194e-08
-1.97635e-07
1.94344e-07
2.0067e-08
-2.0606e-07
2.09187e-07
1.092e-08
-2.10622e-07
2.19769e-07
-8.18913e-10
-2.13136e-07
2.24875e-07
-1.2192e-08
-2.13326e-07
2.24699e-07
-2.04682e-08
-2.11291e-07
2.19567e-07
-2.32071e-08
-2.06216e-07
2.08955e-07
-1.99076e-08
-1.97578e-07
1.94278e-07
-1.72049e-07
1.52141e-07
1.55224e-08
-1.8761e-07
1.60674e-08
-1.9818e-07
1.2034e-08
-2.02027e-07
6.66882e-09
-2.05257e-07
6.83221e-10
-2.0715e-07
-5.81993e-09
-2.06823e-07
-1.17949e-08
-2.05316e-07
-1.61244e-08
-2.01886e-07
-1.55439e-08
-1.98158e-07
-1.87592e-07
6.80312e-09
-1.94413e-07
8.36957e-09
-1.99747e-07
7.28699e-09
-2.00944e-07
4.21126e-09
-2.02181e-07
-4.164e-10
-2.02523e-07
-4.64044e-09
-2.02599e-07
-7.48672e-09
-2.0247e-07
-8.41089e-09
-2.00962e-07
-6.8093e-09
-1.9976e-07
-1.94402e-07
4.51801e-09
-1.98931e-07
4.71997e-09
-1.99949e-07
3.65621e-09
-1.9988e-07
1.87875e-09
-2.00404e-07
1.36712e-10
-2.00781e-07
-1.63041e-09
-2.00832e-07
-3.62393e-09
-2.00476e-07
-4.7051e-09
-1.99881e-07
-4.52563e-09
-1.99939e-07
-1.98927e-07
1.06865e-09
1.12017e-09
1.24004e-09
8.36473e-10
5.57984e-11
-7.761e-10
-1.25239e-09
-1.13352e-09
-1.07264e-09
-2.82016e-08
-1.95977e-07
2.24178e-07
-3.05613e-08
-1.99194e-07
2.01554e-07
-2.48073e-08
-2.01509e-07
1.95755e-07
-1.32123e-08
-2.02009e-07
1.90414e-07
1.04179e-09
-2.02002e-07
1.87748e-07
1.50486e-08
-2.01837e-07
1.8783e-07
2.59484e-08
-2.01479e-07
1.90579e-07
3.10291e-08
-2.00945e-07
1.95865e-07
2.84817e-08
-1.99032e-07
2.01579e-07
-1.96016e-07
2.24498e-07
-9.37594e-09
-1.86601e-07
-1.51104e-08
-1.9346e-07
-1.3168e-08
-2.03451e-07
-6.70626e-09
-2.08471e-07
-3.85477e-10
-2.08323e-07
5.92435e-09
-2.08147e-07
1.24492e-08
-2.08004e-07
1.50147e-08
-2.03511e-07
9.45055e-09
-1.93467e-07
-1.86565e-07
-1.01226e-08
-1.76478e-07
-8.19877e-09
-1.95383e-07
-6.98091e-09
-2.04669e-07
-5.06006e-09
-2.10391e-07
-4.38166e-10
-2.12945e-07
4.56113e-09
-2.13146e-07
6.92332e-09
-2.10366e-07
8.05943e-09
-2.04647e-07
1.00303e-08
-1.95438e-07
-1.76535e-07
-6.52025e-09
-1.69958e-07
-8.56752e-09
-1.93336e-07
-8.08269e-09
-2.05154e-07
-4.10643e-09
-2.14368e-07
-4.43319e-10
-2.16608e-07
3.22702e-09
-2.16817e-07
7.75647e-09
-2.14896e-07
8.58406e-09
-2.05474e-07
6.55013e-09
-1.93404e-07
-1.69985e-07
-1.77735e-08
-1.67653e-08
-1.2732e-08
-7.33086e-09
9.35902e-10
8.8185e-09
1.349e-08
1.69704e-08
1.78441e-08
3.73135e-08
-1.56735e-07
1.19422e-07
4.14697e-08
-1.9801e-07
1.93854e-07
3.27344e-08
-2.09785e-07
2.1852e-07
1.71379e-08
-2.14268e-07
2.29865e-07
-2.62726e-09
-2.15531e-07
2.35296e-07
-2.09163e-08
-2.17693e-07
2.35982e-07
-3.24388e-08
-2.16123e-07
2.27646e-07
-3.84797e-08
-2.11726e-07
2.17767e-07
-3.1871e-08
-2.00426e-07
1.93817e-07
-1.59702e-07
1.27831e-07
1.76814e-08
-1.74417e-07
2.02772e-08
-2.00605e-07
1.72512e-08
-2.06758e-07
1.08364e-08
-2.07853e-07
3.32127e-09
-2.08016e-07
-5.77512e-09
-2.08596e-07
-1.36554e-08
-2.08243e-07
-1.7565e-08
-2.07816e-07
-1.59875e-08
-2.02004e-07
-1.7569e-07
8.57982e-09
-1.82996e-07
9.1775e-09
-2.01203e-07
8.09509e-09
-2.05676e-07
4.5091e-09
-2.04267e-07
5.38704e-10
-2.04046e-07
-3.37005e-09
-2.04687e-07
-6.7822e-09
-2.04831e-07
-8.21251e-09
-2.06386e-07
-8.13793e-09
-2.02078e-07
-1.83828e-07
7.56402e-09
-1.9056e-07
5.58927e-09
-1.99228e-07
6.7679e-09
-2.06855e-07
2.42615e-09
-1.99926e-07
1.50577e-09
-2.03125e-07
1.17295e-10
-2.03299e-07
-5.37104e-09
-1.99343e-07
-4.6357e-09
-2.07121e-07
-7.15703e-09
-1.99557e-07
-1.90985e-07
3.36178e-08
3.59432e-08
2.4843e-08
1.5331e-08
-4.62109e-11
-1.5515e-08
-2.42782e-08
-3.55348e-08
-3.35128e-08
7.34102e-09
-8.99381e-09
1.67032e-09
1.74698e-08
-1.01132e-08
1.73086e-08
1.81004e-10
6.27427e-09
1.10057e-08
-1.1753e-09
7.43615e-09
-8.07289e-11
-1.09432e-09
3.66762e-09
-3.74808e-09
5.65675e-09
-1.98883e-09
4.46347e-09
1.19356e-09
5.56164e-09
-1.10019e-09
4.30672e-10
6.15569e-10
-1.007e-08
-7.07586e-11
-9.61287e-09
5.84536e-09
-5.73625e-09
1.42181e-08
2.63186e-09
1.84486e-08
3.20428e-09
1.82101e-08
-7.7524e-10
1.30908e-08
1.37141e-09
4.87502e-09
6.22734e-09
-9.20653e-09
1.52754e-08
2.83685e-08
-3.20289e-08
1.02856e-08
5.51059e-09
-1.518e-08
6.71363e-09
-6.15447e-09
8.16322e-09
-7.1669e-09
1.10609e-08
-2.10544e-10
1.20306e-08
2.249e-09
7.1832e-09
4.07563e-09
-3.95419e-09
1.25082e-08
-1.80203e-08
2.02816e-08
-3.77916e-08
3.50542e-08
4.78644e-08
-5.72508e-08
2.07314e-09
2.67204e-09
7.66092e-10
-8.74072e-10
-3.20664e-09
-4.92985e-09
-3.11029e-09
-8.44539e-09
3.31204e-09
-1.40178e-08
7.82165e-09
-2.30421e-08
1.30495e-08
-3.10391e-08
2.05049e-08
-4.22241e-08
3.14664e-08
-5.11634e-08
4.39934e-08
5.06095e-08
-5.38722e-08
-9.218e-09
3.22244e-09
8.66821e-09
-1.18571e-08
-5.43581e-10
-1.45879e-08
-3.79267e-10
-1.58778e-08
4.60216e-09
-2.09851e-08
1.29291e-08
-2.7998e-08
2.00129e-08
-3.72617e-08
2.97676e-08
-4.61007e-08
4.03046e-08
-4.81086e-08
4.59999e-08
4.88957e-08
-4.61638e-08
-1.56247e-08
2.03829e-09
1.68094e-08
-1.62493e-08
1.203e-10
-1.80402e-08
1.41176e-09
-1.92889e-08
5.85104e-09
-2.39021e-08
1.7523e-08
-3.14969e-08
2.76055e-08
-3.8089e-08
3.63596e-08
-4.01802e-08
4.23946e-08
-3.75387e-08
4.33573e-08
4.21478e-08
-3.05889e-08
-2.44558e-08
-1.66452e-10
2.65687e-08
-2.32576e-08
-1.07743e-09
-2.32492e-08
1.41501e-09
-2.63868e-08
9.03795e-09
-3.36825e-08
2.47889e-08
-4.17959e-08
3.57187e-08
-4.49052e-08
3.94688e-08
-4.28396e-08
4.03287e-08
-3.70529e-08
3.75703e-08
3.15331e-08
-2.64384e-08
-2.88464e-08
-1.85687e-09
3.0537e-08
-2.73403e-08
-2.58317e-09
-2.59437e-08
1.45462e-11
-2.87536e-08
1.18477e-08
-4.13206e-08
3.73557e-08
-5.31836e-08
4.75796e-08
-5.81012e-08
4.4386e-08
-5.05449e-08
3.27722e-08
-3.67768e-08
2.38019e-08
1.64052e-08
-2.16488e-08
-3.55381e-08
2.20583e-09
3.14757e-08
-3.55171e-08
-2.60396e-09
-3.41381e-08
-1.36405e-09
-3.74781e-08
1.51849e-08
-5.17357e-08
5.16112e-08
-6.64708e-08
6.23124e-08
-6.95144e-08
4.74274e-08
-5.74723e-08
2.07297e-08
-4.73834e-08
1.37126e-08
1.32266e-08
-4.38592e-08
-3.94417e-08
2.30695e-08
1.85783e-08
-6.02712e-08
1.82257e-08
-6.85123e-08
6.87722e-09
-6.75246e-08
1.44479e-08
-6.44321e-08
4.78234e-08
-6.16023e-08
5.75509e-08
-6.14108e-08
4.55298e-08
-6.22385e-08
2.18476e-08
-6.1517e-08
1.35153e-08
3.8644e-09
-5.21959e-08
-8.25915e-09
4.56764e-08
-1.43477e-08
-4.21913e-08
5.12095e-08
-7.39191e-08
3.7299e-08
-8.23669e-08
2.34987e-08
-6.9055e-08
3.60934e-08
-5.65809e-08
4.50492e-08
-5.15345e-08
4.00464e-08
-5.64954e-08
2.65265e-08
-5.84733e-08
1.54575e-08
-6.67797e-10
-5.39769e-08
4.74412e-08
6.09188e-08
-6.44314e-08
2.84159e-08
6.99556e-08
-2.56527e-10
6.59576e-08
-3.12927e-08
5.42356e-08
-4.09354e-08
4.61826e-08
-3.84004e-08
4.24839e-08
-3.39088e-08
3.55274e-08
-3.65168e-08
2.91065e-08
-4.51895e-08
2.39501e-08
4.18702e-09
-5.09372e-08
8.05854e-08
6.7395e-08
-8.82884e-08
7.38198e-08
7.67074e-08
6.39628e-08
7.5801e-08
4.66426e-08
7.15424e-08
2.54416e-08
6.73682e-08
1.81934e-09
6.79059e-08
-1.75913e-08
5.59025e-08
-2.9898e-08
4.13844e-08
-3.73177e-08
3.09378e-08
1.4669e-08
-4.77998e-08
6.84468e-08
6.67808e-08
-6.96651e-08
6.64517e-08
7.86889e-08
6.56372e-08
7.66021e-08
6.0416e-08
7.67501e-08
5.24221e-08
7.69343e-08
4.20745e-08
7.87293e-08
2.87051e-08
6.95858e-08
8.42767e-09
6.22276e-08
-1.15824e-08
5.02651e-08
4.16476e-08
-3.86876e-08
4.79129e-08
6.08767e-08
-4.1424e-08
5.01285e-08
7.62874e-08
5.09263e-08
7.76676e-08
4.80722e-08
8.15461e-08
4.01e-08
8.62936e-08
3.25468e-08
8.62894e-08
2.28621e-08
7.92772e-08
5.35074e-09
7.92719e-08
-2.21166e-08
7.75312e-08
6.37659e-08
-4.49757e-08
1.14733e-08
5.26123e-08
-2.21256e-09
2.17565e-08
6.66672e-08
2.43875e-08
7.57749e-08
2.26258e-08
8.416e-08
1.73728e-08
9.15535e-08
1.24024e-08
9.12666e-08
1.09934e-10
9.15765e-08
-1.64635e-08
9.53653e-08
-3.12061e-08
9.20741e-08
7.20296e-08
-4.0246e-08
-7.24476e-08
4.047e-08
8.55593e-08
-5.9858e-08
5.30181e-08
-5.09074e-08
6.66015e-08
-4.46989e-08
7.77331e-08
-3.94762e-08
8.5933e-08
-3.73225e-08
8.82258e-08
-3.53574e-08
8.85964e-08
-3.16022e-08
9.14091e-08
-2.79142e-08
8.81849e-08
7.20674e-08
-2.80661e-08
-1.35585e-07
3.38127e-08
1.43216e-07
-1.23222e-07
4.08596e-08
-1.09579e-07
5.11911e-08
-1.00659e-07
6.8099e-08
-8.82081e-08
7.53129e-08
-7.29539e-08
7.27712e-08
-5.29908e-08
6.84326e-08
-3.63031e-08
7.45202e-08
-2.00858e-08
7.32733e-08
6.0768e-08
-8.50644e-09
-1.46519e-07
2.81066e-08
1.53554e-07
-1.38897e-07
3.34879e-08
-1.2869e-07
3.99153e-08
-1.12725e-07
5.21373e-08
-9.4151e-08
5.74307e-08
-7.47414e-08
5.5102e-08
-5.41548e-08
4.93818e-08
-2.73726e-08
4.90174e-08
1.6868e-10
4.59367e-08
3.68644e-08
2.40719e-08
-1.31101e-07
2.05995e-08
1.38718e-07
-1.22642e-07
2.52472e-08
-1.11279e-07
2.8584e-08
-9.4155e-08
3.50165e-08
-7.48076e-08
3.80864e-08
-5.64652e-08
3.67741e-08
-3.8114e-08
3.10558e-08
-1.3937e-08
2.48414e-08
1.43349e-08
1.76645e-08
8.80248e-09
4.23965e-08
-8.91602e-08
2.07599e-08
8.90018e-08
-8.75394e-08
2.36285e-08
-7.99648e-08
2.10121e-08
-6.59882e-08
2.10431e-08
-4.97651e-08
2.18747e-08
-3.35201e-08
2.04115e-08
-1.93487e-08
1.67513e-08
-2.28446e-09
7.7784e-09
1.83971e-08
-3.00852e-09
-1.50158e-08
4.22285e-08
1.69458e-08
2.41915e-08
-2.23025e-08
9.48132e-09
3.02114e-08
-8.38294e-09
3.86472e-08
-1.74265e-08
3.00894e-08
-2.20059e-08
2.64566e-08
-1.523e-08
1.36712e-08
-4.89837e-09
6.38949e-09
8.57934e-09
-5.72912e-09
2.12057e-08
-1.56632e-08
-2.66474e-08
3.29386e-08
9.31339e-08
7.70154e-09
-7.69159e-08
1.03303e-07
1.97792e-08
1.04263e-07
3.73744e-08
8.57912e-08
4.82787e-08
6.05572e-08
5.19743e-08
3.70602e-08
3.7172e-08
2.12714e-08
2.21834e-08
1.35148e-08
2.03249e-09
1.03313e-08
-1.2553e-08
-2.31437e-08
6.91778e-09
1.21904e-07
-3.93446e-09
-1.10477e-07
1.3478e-07
6.98351e-09
1.37804e-07
3.01786e-08
1.40879e-07
4.49059e-08
1.36834e-07
5.57117e-08
1.18515e-07
5.52057e-08
9.23307e-08
4.86926e-08
6.43187e-08
3.1606e-08
3.69005e-08
1.47929e-08
2.03514e-09
1.16248e-08
1.78965e-07
1.77085e-08
-2.00571e-07
1.62596e-07
2.33571e-08
1.50888e-07
4.16064e-08
1.39942e-07
5.47675e-08
1.32902e-07
6.05843e-08
1.29507e-07
5.83565e-08
1.27258e-07
5.06969e-08
1.13554e-07
4.50647e-08
9.38607e-08
3.88809e-08
3.2661e-08
6.34526e-08
1.80041e-07
5.7559e-08
-2.19966e-07
1.4552e-07
5.78686e-08
1.2661e-07
6.05113e-08
1.22211e-07
5.9166e-08
1.22562e-07
6.02329e-08
1.16323e-07
6.30143e-08
1.16576e-07
5.01993e-08
1.10792e-07
5.07426e-08
1.03406e-07
5.26193e-08
4.73286e-08
8.87756e-08
8.3567e-08
6.47963e-08
-9.20309e-08
7.06981e-08
7.07387e-08
6.8544e-08
6.26652e-08
7.48193e-08
5.28908e-08
8.1425e-08
5.36271e-08
8.68836e-08
5.66111e-08
8.20938e-08
5.54949e-08
8.04733e-08
5.66884e-08
8.25194e-08
5.28093e-08
4.55414e-08
8.43086e-08
-1.04335e-08
5.34692e-08
2.09234e-08
-1.41301e-08
6.50081e-08
-1.97575e-08
6.75331e-08
-2.07537e-08
5.38869e-08
-7.20184e-09
4.00752e-08
2.19414e-08
2.74678e-08
5.54367e-08
2.24161e-08
7.22545e-08
3.98924e-08
7.11763e-08
5.38896e-08
4.41529e-08
7.25661e-08
-1.06404e-07
3.62098e-08
1.23655e-07
-1.09058e-07
5.02934e-08
-9.23522e-08
4.67305e-08
-7.77517e-08
3.92864e-08
-4.40386e-08
6.36228e-09
-1.59714e-08
-5.53415e-10
7.42335e-09
-1.32338e-09
1.36741e-08
3.16886e-08
9.61092e-09
5.47071e-08
3.43601e-08
1.6864e-08
-1.16673e-07
4.1368e-08
1.1008e-07
-1.10932e-07
4.66467e-08
-9.27099e-08
2.55816e-08
-5.17877e-08
-3.88133e-09
-4.46307e-08
-3.05403e-09
-4.89533e-08
3.76988e-09
-6.60251e-08
1.40525e-08
-5.39266e-08
2.02145e-08
-2.42739e-08
2.70464e-08
6.92162e-09
2.55644e-09
-1.21587e-07
1.33163e-08
1.49608e-07
-8.44184e-08
1.01273e-08
-5.88047e-08
3.53877e-10
-5.2564e-08
-1.03559e-08
-5.41687e-08
-1.39995e-09
-5.07625e-08
4.12879e-10
-4.3928e-08
7.27734e-09
-2.28593e-08
7.77395e-10
2.59425e-09
4.22424e-09
-1.42791e-08
2.45271e-08
-2.61332e-08
-1.79237e-08
5.74086e-08
1.03109e-08
-2.59345e-08
3.67974e-08
-2.6233e-08
5.34771e-08
-2.82963e-08
7.07774e-08
-2.28302e-08
7.89593e-08
-1.3502e-08
8.45769e-08
1.47579e-09
8.98154e-08
1.3476e-09
1.04176e-07
-5.18397e-09
-1.91771e-08
1.12741e-07
1.44786e-07
-5.23486e-08
-1.10457e-07
1.78934e-07
-6.00966e-08
2.18062e-07
-6.33035e-08
2.52166e-07
-6.23227e-08
2.85908e-07
-5.64936e-08
2.80539e-07
-3.87561e-08
2.79528e-07
-1.57636e-08
2.90992e-07
-1.0211e-08
2.92931e-07
-7.14769e-09
-8.08267e-09
2.81819e-07
1.76923e-07
-7.88103e-08
-1.41629e-07
2.15558e-07
-9.62937e-08
2.50806e-07
-9.84433e-08
2.80596e-07
-9.20337e-08
3.12332e-07
-8.81631e-08
3.46608e-07
-7.29706e-08
3.26914e-07
-5.76207e-08
3.56811e-07
-4.06142e-08
3.75499e-07
-2.59152e-08
-1.50789e-08
3.82471e-07
2.17355e-07
-1.13538e-07
-1.82904e-07
2.46216e-07
-1.20562e-07
2.62799e-07
-1.13236e-07
2.76241e-07
-1.03486e-07
3.0246e-07
-1.14269e-07
3.47573e-07
-1.18062e-07
3.72782e-07
-1.03083e-07
3.50214e-07
-7.1698e-08
3.68926e-07
-4.51344e-08
-3.81085e-08
3.91876e-07
1.88402e-07
-1.41417e-07
-1.48947e-07
2.14809e-07
-1.39045e-07
2.39124e-07
-1.28299e-07
2.73967e-07
-1.19175e-07
3.0653e-07
-1.33577e-07
3.26049e-07
-1.38441e-07
3.42491e-07
-1.21125e-07
3.45282e-07
-8.51071e-08
3.61554e-07
-7.65239e-08
-7.47884e-08
3.73872e-07
1.23871e-07
-1.61496e-07
-1.08235e-07
1.4562e-07
-1.64992e-07
1.72446e-07
-1.59069e-07
1.97966e-07
-1.48798e-07
2.17006e-07
-1.50997e-07
2.34454e-07
-1.46797e-07
2.1186e-07
-9.35056e-08
1.94208e-07
-5.22705e-08
1.89237e-07
-4.56877e-08
-4.75388e-08
1.72829e-07
1.32206e-08
-1.87805e-07
-2.51799e-09
2.54989e-08
-1.87966e-07
4.16374e-08
-1.87922e-07
6.41438e-08
-1.7289e-07
5.70564e-08
-1.06846e-07
3.97749e-08
-9.01858e-08
1.83208e-08
-7.20439e-08
1.6489e-08
-5.04389e-08
7.40482e-09
-3.66037e-08
-2.68347e-08
-1.32994e-08
-1.68629e-07
-1.92857e-07
1.73738e-07
-1.60894e-07
-1.9569e-07
-1.54037e-07
-1.88333e-07
-9.78672e-08
-1.44199e-07
-9.83626e-08
-1.06243e-07
-1.09985e-07
-7.82892e-08
-1.20038e-07
-6.19899e-08
-1.19067e-07
-5.14103e-08
-1.10893e-07
-4.47776e-08
-3.02509e-08
-1.07477e-07
-2.70568e-07
-1.9418e-07
2.71769e-07
-2.72167e-07
-1.93857e-07
-2.46403e-07
-1.68315e-07
-2.46608e-07
-1.10174e-07
-2.2542e-07
-1.09623e-07
-2.54841e-07
-7.34453e-08
-2.42043e-07
-5.21506e-08
-2.33778e-07
-5.97193e-08
-2.21844e-07
-5.6711e-08
-4.54391e-08
-2.06924e-07
-4.23253e-07
-1.82439e-07
4.11559e-07
-4.32661e-07
-1.84056e-07
-3.86524e-07
-1.74553e-07
-3.88216e-07
-1.61786e-07
-4.50394e-07
-1.20888e-07
-4.28121e-07
-9.49544e-08
-2.98514e-07
-9.64769e-08
-2.70963e-07
-8.73255e-08
-2.60592e-07
-6.71256e-08
-5.4499e-08
-2.5155e-07
-5.38285e-07
-1.69802e-07
5.25752e-07
-5.4444e-07
-1.77234e-07
-5.37869e-07
-1.85174e-07
-5.24237e-07
-1.78653e-07
-4.85442e-07
-1.61477e-07
-4.35856e-07
-1.44658e-07
-3.94146e-07
-1.31836e-07
-2.98739e-07
-1.14356e-07
-2.78968e-07
-8.69319e-08
-6.97938e-08
-2.63657e-07
-5.92535e-07
-1.498e-07
5.80979e-07
-6.06463e-07
-1.46721e-07
-6.10843e-07
-1.75399e-07
-5.93031e-07
-1.98437e-07
-5.57692e-07
-1.95616e-07
-5.3372e-07
-1.75e-07
-5.2766e-07
-1.46029e-07
-5.1628e-07
-1.25939e-07
-4.84934e-07
-1.17022e-07
-1.05613e-07
-3.58898e-07
-5.96527e-07
-9.39246e-08
6.34843e-07
-5.25033e-07
-9.76803e-08
-6.81166e-07
-1.34734e-07
-7.08525e-07
-1.84267e-07
-7.02428e-07
-2.02133e-07
-6.87758e-07
-1.87751e-07
-6.73356e-07
-1.5844e-07
-6.37773e-07
-1.61346e-07
-5.94177e-07
-1.60446e-07
-1.52857e-07
-5.46718e-07
-5.40584e-07
-6.59213e-08
5.34836e-07
-5.63913e-07
-7.48243e-08
-5.88572e-07
-1.10589e-07
-7.05056e-07
-1.41494e-07
-7.34619e-07
-1.60662e-07
-7.017e-07
-1.6578e-07
-7.70015e-07
-1.57381e-07
-7.3461e-07
-1.96598e-07
-6.73816e-07
-2.2108e-07
-2.17932e-07
-6.08576e-07
-5.25105e-07
-6.18222e-08
5.20533e-07
-5.40766e-07
-5.97523e-08
-5.65873e-07
-8.60193e-08
-5.9754e-07
-1.12987e-07
-5.9739e-07
-1.22848e-07
-5.63007e-07
-1.26313e-07
-7.40563e-07
-1.47201e-07
-7.7165e-07
-2.18709e-07
-7.33135e-07
-2.59454e-07
-2.69236e-07
-6.81616e-07
-5.29881e-07
-6.70684e-08
6.43956e-07
-5.21204e-07
-6.90083e-08
-5.19261e-07
-9.10193e-08
-5.4198e-07
-9.47687e-08
-5.60799e-07
-1.08529e-07
-5.60867e-07
-1.30746e-07
-5.70392e-07
-1.43211e-07
-6.90814e-07
-2.01835e-07
-6.95793e-07
-2.54326e-07
-2.94157e-07
-6.70407e-07
-5.61794e-07
-6.65654e-08
5.6164e-07
-5.43491e-07
-8.61003e-08
-5.19473e-07
-1.11689e-07
-4.47043e-07
-1.21833e-07
-4.19935e-07
-1.39559e-07
-3.87138e-07
-1.70199e-07
-3.58544e-07
-1.78481e-07
-4.32342e-07
-1.60639e-07
-5.51794e-07
-1.64369e-07
-2.76633e-07
-5.6824e-07
-3.15049e-07
-2.79521e-08
2.80664e-07
-3.46654e-07
-5.29175e-08
-3.58056e-07
-9.85281e-08
-3.61237e-07
-1.16816e-07
-3.3493e-07
-1.63806e-07
-3.04646e-07
-1.97974e-07
-2.76981e-07
-2.0082e-07
-2.36148e-07
-1.52043e-07
-2.96052e-07
-1.07998e-07
-1.89816e-07
-3.83206e-07
-9.73257e-08
-7.88753e-08
1.42214e-07
-1.12146e-07
-6.23931e-08
-1.31666e-07
-7.68281e-08
-1.90232e-07
-4.48915e-08
-2.25308e-07
-1.13588e-07
-2.17039e-07
-2.03617e-07
-1.78481e-07
-2.35943e-07
-1.07737e-07
-1.44469e-07
-1.30139e-07
-8.91296e-08
-1.20155e-07
-2.03334e-07
-1.97101e-07
-1.18496e-07
2.36228e-07
-1.3791e-07
-1.16485e-07
-8.9939e-08
-1.16586e-07
-6.67114e-08
-6.95825e-08
-1.02366e-07
-7.93964e-08
-1.52314e-07
-1.28935e-07
-1.46221e-07
-1.9889e-07
-1.01616e-07
-1.38222e-07
-7.31727e-08
-1.21106e-07
-1.39314e-07
-5.78118e-08
-2.29733e-07
-1.43416e-07
2.54693e-07
-1.93175e-07
-1.53e-07
-1.399e-07
-1.54234e-07
-8.73237e-08
-1.23622e-07
-7.15269e-08
-9.75337e-08
-8.48321e-08
-1.18847e-07
-1.21688e-07
-1.41205e-07
-1.06451e-07
-1.60319e-07
-6.40485e-08
-1.67305e-07
-2.25242e-07
-4.75976e-08
-2.27245e-07
-1.48992e-07
2.32864e-07
-2.07194e-07
-1.73002e-07
-1.91273e-07
-1.70118e-07
-1.53875e-07
-1.6742e-07
-1.16646e-07
-1.50571e-07
-8.02067e-08
-1.5858e-07
-8.23281e-08
-1.61036e-07
-1.08353e-07
-1.95875e-07
-1.19812e-07
-2.23375e-07
-2.87596e-07
-9.2598e-08
-1.46629e-07
-1.4651e-07
1.44195e-07
-1.24794e-07
-1.94801e-07
-1.08046e-07
-1.86829e-07
-1.00353e-07
-1.75077e-07
-7.90504e-08
-1.71845e-07
-1.02251e-07
-1.64222e-07
-1.26172e-07
-1.85666e-07
-1.11683e-07
-2.09224e-07
-1.01475e-07
-2.32705e-07
-2.97858e-07
-9.08691e-08
-6.84896e-08
-1.06036e-07
2.95988e-08
-6.95433e-08
-1.93708e-07
-6.0544e-08
-1.95793e-07
-6.49276e-08
-1.70654e-07
-7.15014e-08
-1.65139e-07
-6.97549e-08
-1.65156e-07
-7.95684e-08
-1.73714e-07
-9.00588e-08
-1.97513e-07
-9.67365e-08
-2.24887e-07
-3.07374e-07
-8.64471e-08
2.88597e-08
-3.88526e-08
-4.01991e-08
1.28258e-08
-1.70098e-07
1.1716e-08
-1.94643e-07
-1.326e-08
-1.42045e-07
-3.83103e-08
-1.11822e-07
-5.15881e-08
-1.02817e-07
-4.37347e-08
-1.15323e-07
-3.6658e-08
-1.28751e-07
-5.15427e-08
-1.12139e-07
-1.78352e-07
-5.75614e-08
1.07441e-07
-6.80737e-09
-5.99351e-08
1.24925e-07
-1.33639e-07
9.1058e-08
-1.60674e-07
2.78774e-08
-7.0881e-08
-2.95018e-09
-3.20735e-08
-1.54835e-08
-4.37094e-08
-1.0922e-08
-6.81406e-08
-1.14529e-08
-7.10685e-08
-5.79896e-09
-7.68438e-08
-1.31829e-07
6.97635e-09
2.10255e-07
-1.67007e-08
-9.52e-08
2.6741e-07
-7.40383e-08
1.31709e-07
-6.96667e-08
4.79522e-08
-2.09411e-08
3.11797e-08
-1.55235e-08
2.82151e-08
-4.09489e-08
2.5027e-08
-6.51366e-08
3.34863e-08
-7.97078e-08
6.37344e-08
-1.07275e-07
-1.77251e-07
1.08945e-07
2.76838e-07
-1.48612e-08
-9.82517e-08
2.31674e-07
-2.90764e-08
8.87099e-08
-2.16664e-08
7.24781e-08
-8.27271e-09
7.49247e-08
-1.82284e-08
8.12283e-08
-4.74799e-08
8.73809e-08
-7.14854e-08
1.05133e-07
-9.76434e-08
1.56829e-07
-1.59174e-07
-3.47054e-07
2.91455e-07
3.01752e-07
3.93352e-09
-3.05972e-07
2.64194e-07
-2.0386e-08
1.06704e-07
-3.02785e-09
1.02886e-07
-5.11373e-09
1.10368e-07
-2.59552e-08
1.1689e-07
-5.42602e-08
1.31688e-07
-8.646e-08
2.05164e-07
-1.71238e-07
3.45217e-07
-3.20272e-07
-3.95716e-07
3.85405e-07
2.59906e-07
-8.07634e-09
-2.38951e-07
1.56712e-07
-8.70005e-10
9.01259e-08
-1.80379e-09
9.88264e-08
-1.45864e-08
1.18719e-07
-4.65068e-08
1.50415e-07
-8.61817e-08
2.69364e-07
-2.04355e-07
3.77738e-07
-2.96258e-07
4.14966e-07
-3.57393e-07
-3.85677e-07
4.05064e-07
5.25098e-08
8.58849e-09
-1.37698e-07
4.91456e-08
1.23119e-09
6.18162e-08
-1.57533e-08
9.29035e-08
-4.66417e-08
1.77999e-07
-1.29554e-07
3.03442e-07
-2.06465e-07
3.81429e-07
-2.80353e-07
4.14466e-07
-3.29161e-07
4.055e-07
-3.48306e-07
-3.52956e-07
3.72916e-07
4.06041e-08
-1.16758e-08
-2.15127e-08
6.48312e-08
-2.41888e-08
1.18416e-07
-7.06013e-08
2.48815e-07
-1.61291e-07
3.49973e-07
-2.10361e-07
3.81569e-07
-2.37819e-07
3.80965e-07
-2.79616e-07
3.63294e-07
-3.11368e-07
3.29105e-07
-3.13995e-07
-3.21351e-07
2.97622e-07
9.84525e-08
-6.25132e-08
-4.89396e-08
1.78125e-07
-1.09484e-07
3.14772e-07
-1.7351e-07
3.66393e-07
-2.10287e-07
3.73741e-07
-2.17815e-07
3.64869e-07
-2.28806e-07
3.42139e-07
-2.56219e-07
3.09641e-07
-2.78736e-07
2.86445e-07
-2.90677e-07
-3.08743e-07
2.73974e-07
2.12444e-07
-1.9225e-07
-1.46022e-07
2.99973e-07
-2.10354e-07
3.48643e-07
-2.21899e-07
3.60269e-07
-2.21648e-07
3.5969e-07
-2.17084e-07
3.41401e-07
-2.15233e-07
3.26094e-07
-2.3054e-07
3.06565e-07
-2.58864e-07
2.9391e-07
-2.77891e-07
-3.13448e-07
3.05034e-07
2.85249e-07
-2.17053e-07
-2.60187e-07
3.14145e-07
-2.38996e-07
3.38475e-07
-2.45975e-07
3.52407e-07
-2.3531e-07
3.4752e-07
-2.17271e-07
3.40185e-07
-2.10329e-07
3.22403e-07
-2.15258e-07
2.98809e-07
-2.34595e-07
2.84754e-07
-2.61436e-07
-3.7444e-07
3.76092e-07
2.72449e-07
-2.43087e-07
-2.46171e-07
3.01126e-07
-2.67414e-07
3.25424e-07
-2.6999e-07
3.41052e-07
-2.50672e-07
3.36729e-07
-2.18578e-07
3.1187e-07
-1.8814e-07
2.7031e-07
-1.71997e-07
2.32137e-07
-2.03903e-07
2.84766e-07
-3.21427e-07
-4.98991e-07
3.99914e-07
2.06892e-07
-2.81699e-07
-1.67912e-07
2.40209e-07
-2.94684e-07
2.69413e-07
-2.95941e-07
2.96685e-07
-2.77297e-07
2.95853e-07
-2.24216e-07
2.51446e-07
-1.42706e-07
1.72229e-07
-9.08765e-08
1.60148e-07
-2.01328e-07
2.6649e-07
-4.35131e-07
-5.80794e-07
3.20806e-07
1.47656e-07
-2.15054e-07
-1.68096e-07
1.43918e-07
-1.33327e-07
1.75506e-07
-1.2368e-07
2.31069e-07
-1.97581e-07
2.50362e-07
-2.4393e-07
2.03024e-07
-9.29923e-08
9.3825e-08
-8.60207e-09
1.5278e-07
-2.17587e-07
2.45403e-07
-5.1797e-07
-6.08261e-07
2.79284e-07
7.62003e-08
-1.42925e-07
-1.00084e-07
7.88926e-08
-1.36061e-07
8.75216e-08
-1.32402e-07
1.69745e-07
-1.24922e-07
2.18573e-07
-1.61446e-07
1.39516e-07
-2.94923e-08
6.25053e-08
1.35041e-08
1.72131e-07
-1.83169e-07
2.49564e-07
-5.55313e-07
-6.17931e-07
2.6832e-07
7.0128e-08
-1.25674e-07
-8.80032e-08
8.21012e-08
-1.48128e-07
8.91891e-08
-1.39529e-07
7.69146e-08
-1.12688e-07
5.93149e-08
-5.93841e-08
4.40297e-08
-5.38702e-09
1.05722e-07
-4.83888e-08
2.64929e-07
-2.60678e-07
3.29284e-07
-5.84392e-07
-5.93012e-07
3.14445e-07
6.31092e-08
-1.23496e-07
-6.9347e-08
4.45165e-08
-1.29892e-07
1.99615e-08
-1.15014e-07
-4.82129e-09
-8.79381e-08
-3.14968e-09
-6.10959e-08
5.37661e-08
-6.23415e-08
1.75538e-07
-1.70204e-07
3.7881e-07
-4.91895e-07
3.65994e-07
-5.67934e-07
-5.13843e-07
2.97416e-07
5.05509e-08
-1.91609e-07
-6.19418e-08
1.71483e-08
-1.95123e-07
1.37726e-09
-9.93797e-08
4.27905e-09
-9.08801e-08
3.19519e-08
-8.88014e-08
8.91305e-08
-1.19566e-07
3.00312e-07
-3.89468e-07
3.70685e-07
-5.66308e-07
3.58222e-07
-5.58148e-07
-3.76043e-07
1.99717e-07
1.24653e-07
-1.71334e-07
-1.19335e-07
8.67724e-08
-2.43669e-07
3.35746e-08
-1.12692e-07
4.51418e-08
-1.02584e-07
6.79567e-08
-1.11662e-07
1.91596e-07
-2.4347e-07
3.51229e-07
-5.52305e-07
3.60116e-07
-5.77058e-07
3.07398e-07
-5.07286e-07
-1.58984e-07
7.1984e-08
1.62238e-07
-1.84845e-07
-1.27908e-07
1.41175e-07
-2.22548e-07
6.59037e-08
-2.05651e-07
7.06504e-08
-1.08777e-07
1.1836e-07
-1.59636e-07
3.2287e-07
-4.59995e-07
3.51208e-07
-5.82237e-07
3.10624e-07
-5.38755e-07
1.21119e-07
-3.32496e-07
-1.63774e-08
-2.14514e-08
1.45303e-07
-2.00268e-07
-1.28412e-07
1.47042e-07
-2.24236e-07
1.24157e-07
-2.36175e-07
9.02368e-08
-1.50356e-07
2.01134e-07
-2.98144e-07
3.46103e-07
-6.05716e-07
3.75877e-07
-6.14718e-07
3.05958e-07
-4.70431e-07
6.7151e-08
-9.84799e-08
5.17057e-08
-1.99994e-09
1.32133e-07
-2.21705e-07
-1.10645e-07
1.44084e-07
-2.36134e-07
1.55622e-07
-2.47662e-07
1.17446e-07
-1.99218e-07
2.61485e-07
-4.76563e-07
2.86162e-07
-6.33356e-07
2.53262e-07
-5.85856e-07
6.22603e-08
-2.44575e-07
-3.10672e-08
-4.49208e-09
8.47872e-08
-6.43742e-08
8.69242e-08
-2.23926e-07
-8.4649e-08
8.09367e-08
-2.30088e-07
7.02612e-08
-2.35918e-07
1.10074e-07
-3.1538e-07
1.90658e-07
-5.69714e-07
2.19707e-07
-6.65255e-07
1.37036e-07
-4.81065e-07
2.88604e-10
-8.20216e-08
-4.41735e-08
3.99955e-08
9.15497e-08
-5.09707e-08
3.83341e-08
-2.00948e-07
-6.1252e-08
2.55496e-08
-2.17249e-07
6.92524e-09
-1.56658e-07
6.28467e-08
-2.63988e-07
9.33833e-08
-5.94475e-07
7.5505e-08
-6.50367e-07
-2.93954e-10
-3.54581e-07
-4.19417e-08
-2.91077e-08
-5.65266e-08
5.45804e-08
7.84321e-08
-4.3413e-08
2.90621e-08
-1.61546e-07
-6.84063e-08
1.00797e-08
-1.98009e-07
-1.16654e-08
-1.37375e-07
3.64003e-08
-3.14882e-07
5.88955e-08
-6.30157e-07
3.94354e-08
-6.33946e-07
-1.4717e-08
-2.83506e-07
-3.74118e-08
4.32193e-09
-4.02802e-08
5.74477e-08
7.00654e-08
-3.19142e-08
1.80166e-08
-1.29947e-07
-4.95954e-08
-4.59719e-09
-1.72792e-07
9.8078e-09
-1.51049e-07
5.22725e-08
-3.6059e-07
6.6495e-08
-6.50692e-07
3.5948e-08
-6.06586e-07
-2.79042e-08
-2.14995e-07
-3.78727e-08
3.62534e-08
-4.29683e-08
6.25426e-08
7.04722e-08
-4.33765e-08
1.79774e-08
-9.86254e-08
-4.93146e-08
2.6202e-09
-1.53998e-07
2.22011e-08
-1.75837e-07
5.02003e-08
-4.39363e-07
4.18121e-08
-6.44002e-07
3.35018e-08
-6.00949e-07
1.62991e-09
-1.75962e-07
-1.55414e-08
6.71132e-08
-5.02103e-08
9.72116e-08
9.42252e-08
-7.39647e-08
-1.31327e-08
-8.82611e-08
2.76174e-09
-2.59325e-08
-1.42056e-07
-2.24932e-08
-2.05451e-07
-3.29353e-08
-4.72752e-07
-3.21545e-08
-6.4343e-07
-2.15139e-08
-6.17889e-07
8.56914e-10
-1.97723e-07
-7.77351e-09
7.3191e-08
-3.09192e-08
1.20457e-07
1.18716e-07
-7.77826e-08
-1.69172e-08
-8.78912e-08
1.65481e-08
-3.40866e-08
-1.2693e-07
-5.32348e-08
-1.97654e-07
-7.28008e-08
-3.7069e-07
-5.39559e-08
-6.60854e-07
-4.09423e-08
-6.29991e-07
9.54962e-09
-2.73902e-07
3.42923e-08
6.01995e-08
3.32444e-08
1.21361e-07
1.21547e-07
2.98658e-08
6.8004e-09
-9.63577e-08
1.66592e-09
-2.98815e-09
-1.17144e-07
-5.17284e-08
-1.38025e-07
-6.70513e-08
-3.55267e-07
-5.98935e-08
-6.6657e-07
-4.38554e-08
-6.42425e-07
9.79508e-09
-3.24824e-07
3.79193e-08
3.20154e-08
4.60992e-08
1.12634e-07
1.13048e-07
5.42213e-08
5.21413e-08
-8.43065e-08
-6.41937e-08
3.59403e-08
-1.00837e-07
-3.6344e-08
-5.84018e-08
-5.08418e-08
-3.4483e-07
-4.43192e-08
-6.71597e-07
-3.48829e-08
-6.50834e-07
-1.22221e-08
-3.40601e-07
5.74406e-09
2.31154e-08
2.25875e-08
9.54135e-08
9.36475e-08
4.16109e-08
7.81825e-08
-1.5652e-08
-1.4106e-07
2.9547e-08
-3.60248e-08
-5.82645e-09
-1.65773e-08
5.09038e-10
-3.55452e-07
-5.99742e-09
-6.63987e-07
-4.24247e-09
-6.51301e-07
2.3757e-09
-3.49064e-07
-3.30779e-09
3.37612e-08
2.16002e-08
1.42597e-07
8.45846e-08
3.0286e-08
2.47122e-08
1.50399e-08
-1.0899e-07
-1.15776e-08
7.50778e-09
-1.6561e-08
3.85399e-10
1.77845e-08
-3.98628e-07
-2.12765e-11
-6.46499e-07
-6.41037e-09
-6.42667e-07
-1.75342e-08
-3.40261e-07
-7.72965e-08
8.67576e-08
-1.34308e-08
1.48322e-07
1.56224e-07
9.54087e-09
-3.16606e-08
1.15907e-08
7.01268e-09
-1.19816e-08
-2.47534e-08
-4.35846e-09
-7.7643e-09
-9.23524e-09
-4.10473e-07
-2.1454e-08
-6.35271e-07
-2.43191e-08
-6.38808e-07
-2.4669e-08
-3.50897e-07
-8.46132e-08
1.10376e-07
-3.72182e-08
8.20943e-08
9.85779e-08
2.75268e-08
2.08781e-09
4.82126e-09
-3.4753e-09
0
-3.64549e-09
-5.10979e-10
-6.78914e-10
-2.37376e-08
-3.97815e-07
-2.71974e-08
-6.32738e-07
-3.9444e-08
-6.24833e-07
5.04729e-09
-3.91924e-07
-1.52281e-08
5.13071e-08
-4.6609e-08
3.1278e-08
1.54898e-08
-5.7373e-08
5.9279e-09
1.0707e-09
-2.36315e-09
0
2.79755e-09
2.21448e-09
-2.62769e-09
2.51834e-08
-4.04612e-07
-9.4897e-09
-5.97873e-07
-4.36349e-08
-5.90881e-07
-1.54648e-08
-4.11077e-07
4.82092e-09
-6.30675e-10
1.22497e-10
3.00782e-09
0
-3.46661e-09
-3.62599e-10
1.34274e-09
2.02909e-11
0
1.34607e-09
1.1143e-08
-1.38822e-08
3.9058e-08
-4.30256e-07
4.19931e-09
-5.6295e-07
-3.73014e-08
-5.4937e-07
-1.27388e-08
-4.34221e-07
3.25698e-10
-1.58214e-08
2.63646e-09
5.5822e-10
4.70485e-10
1.36762e-09
0
1.26567e-09
1.89252e-10
-5.60421e-11
1.27344e-09
1.96356e-08
-3.21859e-08
4.04669e-08
-4.51122e-07
-4.32858e-09
-5.18169e-07
-2.13751e-08
-5.32302e-07
-2.15428e-08
-4.34301e-07
-4.2134e-10
-3.51408e-08
5.03272e-11
1.46231e-10
2.48335e-12
2.82633e-10
0
1.32722e-09
4.27914e-11
8.91525e-10
2.50733e-10
2.30773e-08
-5.59956e-08
1.18657e-09
-4.30875e-07
-3.0973e-08
-4.86006e-07
-7.80044e-08
-4.85267e-07
-4.92662e-08
-4.65293e-07
-2.30289e-10
-8.67578e-08
0
-1.60633e-11
-6.09072e-12
2.15086e-10
0
5.3911e-10
2.06644e-10
8.46553e-11
3.24382e-11
5.00926e-08
-1.05414e-07
5.48226e-08
-4.36334e-07
2.48635e-08
-4.56041e-07
-1.15525e-08
-4.48842e-07
-4.21218e-08
-4.35626e-07
-1.83246e-10
-1.30341e-07
-2.34115e-11
-1.14578e-10
-3.4446e-12
-8.9113e-13
0
7.98764e-11
1.09765e-10
1.24205e-09
-1.29535e-09
6.24047e-08
-1.63658e-07
2.28301e-08
-3.96184e-07
-2.21868e-08
-4.11027e-07
-5.90001e-08
-4.12019e-07
-8.95433e-08
-4.05248e-07
-1.90534e-09
-2.15619e-07
-4.84254e-11
-1.92045e-09
-1.60294e-12
-9.8494e-13
5.94411e-11
9.38335e-12
3.05459e-12
1.5683e-08
-1.69493e-08
1.08903e-07
-2.6039e-07
7.66435e-08
-3.63927e-07
3.44026e-08
-3.68787e-07
-1.19761e-08
-3.65632e-07
-6.17412e-08
-3.55474e-07
-1.51567e-08
-2.54776e-07
-7.06293e-11
-1.69512e-08
-1.61822e-11
-2.36515e-12
8.50965e-10
-8.43999e-10
7.17008e-13
5.03157e-08
-6.56501e-08
8.0222e-08
-2.91571e-07
2.71639e-08
-3.1087e-07
-2.6989e-08
-3.14633e-07
-7.48779e-08
-3.17744e-07
-1.12275e-07
-3.18068e-07
-6.61667e-08
-2.96867e-07
-1.93966e-09
-8.14269e-08
-1.90369e-09
-3.97191e-11
2.82778e-08
-2.91207e-08
-1.19475e-12
1.5233e-07
-1.86133e-07
1.16685e-07
-2.55737e-07
6.77033e-08
-2.61887e-07
1.17831e-08
-2.58713e-07
-4.26905e-08
-2.6327e-07