/*--------------------------------*- C++ -*----------------------------------*\
  =========                 |
  \\      /  F ield         | OpenFOAM: The Open Source CFD Toolbox
   \\    /   O peration     | Website:  https://openfoam.org
    \\  /    A nd           | Version:  8
     \\/     M anipulation  |
\*---------------------------------------------------------------------------*/
FoamFile
{
    version     2.0;
    format      ascii;
    class       surfaceScalarField;
    location    "8";
    object      phi;
}
// * * * * * * * * * * * * * * * * * * * * * * * * * * * * * * * * * * * * * //

dimensions      [0 3 -1 0 0 0 0];

internalField   nonuniform List<scalar> 
18095
(
1.99079e-08
-1.72088e-07
1.5218e-07
2.31965e-08
-1.97632e-07
1.94344e-07
2.00683e-08
-2.06062e-07
2.0919e-07
1.09162e-08
-2.10619e-07
2.19771e-07
-8.17509e-10
-2.1314e-07
2.24874e-07
-1.21864e-08
-2.13328e-07
2.24697e-07
-2.04658e-08
-2.11289e-07
2.19569e-07
-2.32089e-08
-2.06218e-07
2.08961e-07
-1.99121e-08
-1.97575e-07
1.94278e-07
-1.72049e-07
1.52137e-07
1.5523e-08
-1.87611e-07
1.60691e-08
-1.98178e-07
1.20349e-08
-2.02027e-07
6.67339e-09
-2.05257e-07
6.85156e-10
-2.07152e-07
-5.82226e-09
-2.06821e-07
-1.17954e-08
-2.05316e-07
-1.61267e-08
-2.01887e-07
-1.55443e-08
-1.98157e-07
-1.87594e-07
6.8029e-09
-1.94414e-07
8.37043e-09
-1.99746e-07
7.28662e-09
-2.00944e-07
4.20766e-09
-2.02178e-07
-4.22598e-10
-2.02521e-07
-4.64261e-09
-2.02601e-07
-7.48642e-09
-2.02472e-07
-8.4107e-09
-2.00962e-07
-6.80878e-09
-1.99759e-07
-1.94403e-07
4.51747e-09
-1.98932e-07
4.72018e-09
-1.99949e-07
3.65681e-09
-1.9988e-07
1.88284e-09
-2.00404e-07
1.43256e-10
-2.00782e-07
-1.62623e-09
-2.00831e-07
-3.62319e-09
-2.00475e-07
-4.70477e-09
-1.99881e-07
-4.52494e-09
-1.99939e-07
-1.98927e-07
1.06845e-09
1.11981e-09
1.23962e-09
8.35449e-10
5.37048e-11
-7.77753e-10
-1.25297e-09
-1.13366e-09
-1.07251e-09
-2.82242e-08
-1.95971e-07
2.24195e-07
-3.05808e-08
-1.99206e-07
2.01563e-07
-2.48171e-08
-2.01512e-07
1.95748e-07
-1.32294e-08
-2.02012e-07
1.90424e-07
1.03347e-09
-2.01999e-07
1.87736e-07
1.50522e-08
-2.01832e-07
1.87814e-07
2.59461e-08
-2.01471e-07
1.90577e-07
3.10425e-08
-2.00946e-07
1.9585e-07
2.85033e-08
-1.99041e-07
2.0158e-07
-1.9601e-07
2.24513e-07
-9.37486e-09
-1.86596e-07
-1.51228e-08
-1.93458e-07
-1.31937e-08
-2.03441e-07
-6.73898e-09
-2.08466e-07
-4.17703e-10
-2.0832e-07
5.90061e-09
-2.08151e-07
1.24454e-08
-2.08015e-07
1.50096e-08
-2.03511e-07
9.44358e-09
-1.93475e-07
-1.86566e-07
-1.01211e-08
-1.76475e-07
-8.19895e-09
-1.9538e-07
-6.9758e-09
-2.04664e-07
-5.06007e-09
-2.10382e-07
-4.35714e-10
-2.12945e-07
4.56723e-09
-2.13154e-07
6.92859e-09
-2.10377e-07
8.06552e-09
-2.04648e-07
1.00299e-08
-1.95439e-07
-1.76536e-07
-6.51223e-09
-1.69963e-07
-8.55529e-09
-1.93337e-07
-8.06662e-09
-2.05153e-07
-4.08221e-09
-2.14367e-07
-4.17557e-10
-2.16609e-07
3.24433e-09
-2.16816e-07
7.75627e-09
-2.14889e-07
8.58109e-09
-2.05472e-07
6.54628e-09
-1.93405e-07
-1.6999e-07
-1.77826e-08
-1.6776e-08
-1.27392e-08
-7.33495e-09
9.29183e-10
8.81082e-09
1.34906e-08
1.69792e-08
1.78525e-08
3.73841e-08
-1.56723e-07
1.19339e-07
4.15537e-08
-1.97986e-07
1.93816e-07
3.28617e-08
-2.09783e-07
2.18475e-07
1.72798e-08
-2.14247e-07
2.29829e-07
-2.62718e-09
-2.15511e-07
2.35418e-07
-2.08553e-08
-2.17692e-07
2.3592e-07
-3.23067e-08
-2.16124e-07
2.27575e-07
-3.83877e-08
-2.11753e-07
2.17834e-07
-3.18078e-08
-2.00439e-07
1.93859e-07
-1.59743e-07
1.27935e-07
1.7696e-08
-1.74419e-07
2.03045e-08
-2.00594e-07
1.72772e-08
-2.06755e-07
1.09074e-08
-2.07877e-07
3.39973e-09
-2.08003e-07
-5.70268e-09
-2.0859e-07
-1.35866e-08
-2.0824e-07
-1.75247e-08
-2.07815e-07
-1.59611e-08
-2.02002e-07
-1.75704e-07
8.56045e-09
-1.8298e-07
9.16775e-09
-2.01201e-07
8.09502e-09
-2.05683e-07
4.50419e-09
-2.04286e-07
5.49599e-10
-2.04049e-07
-3.34919e-09
-2.04691e-07
-6.76346e-09
-2.04826e-07
-8.18816e-09
-2.0639e-07
-8.10672e-09
-2.02084e-07
-1.83811e-07
7.55303e-09
-1.90533e-07
5.58457e-09
-1.99233e-07
6.77484e-09
-2.06873e-07
2.41809e-09
-1.99929e-07
1.50808e-09
-2.03139e-07
1.24411e-10
-2.03307e-07
-5.36397e-09
-1.99337e-07
-4.61597e-09
-2.07138e-07
-7.14508e-09
-1.99555e-07
-1.90956e-07
3.36624e-08
3.59922e-08
2.48676e-08
1.53622e-08
-4.01971e-11
-1.55336e-08
-2.42941e-08
-3.55824e-08
-3.35569e-08
7.42997e-09
-9.03169e-09
1.60172e-09
1.76365e-08
-1.02073e-08
1.74983e-08
1.38309e-10
6.42934e-09
1.10689e-08
-1.06118e-09
7.49054e-09
8.1721e-12
-1.06934e-09
3.74153e-09
-3.73335e-09
5.72147e-09
-1.97992e-09
4.51586e-09
1.20562e-09
5.58084e-09
-1.06497e-09
5.26467e-10
6.32734e-10
-1.01908e-08
2.47586e-11
-9.70513e-09
6.00503e-09
-5.84174e-09
1.44331e-08
2.64104e-09
1.8669e-08
3.25474e-09
1.83439e-08
-7.44101e-10
1.32325e-08
1.37812e-09
5.00472e-09
6.24794e-09
-9.13592e-09
1.53463e-08
2.84941e-08
-3.20491e-08
1.05654e-08
5.53666e-09
-1.54692e-08
7.02532e-09
-6.1649e-09
8.40106e-09
-7.21745e-09
1.12654e-08
-2.23282e-10
1.22544e-08
2.26574e-09
7.43328e-09
4.07706e-09
-3.71318e-09
1.25246e-08
-1.78358e-08
2.03705e-08
-3.76621e-08
3.51726e-08
4.8008e-08
-5.7176e-08
2.29482e-09
2.64757e-09
5.94346e-10
-6.38806e-10
-3.23118e-09
-4.70957e-09
-3.14667e-09
-8.25101e-09
3.31817e-09
-1.38425e-08
7.85727e-09
-2.28309e-08
1.30655e-08
-3.08304e-08
2.05241e-08
-4.19839e-08
3.1524e-08
-5.08955e-08
4.40842e-08
5.07791e-08
-5.36667e-08
-8.99202e-09
3.18405e-09
8.45556e-09
-1.16655e-08
-5.57769e-10
-1.44229e-08
-3.89327e-10
-1.57326e-08
4.62783e-09
-2.08584e-08
1.29831e-08
-2.78317e-08
2.00387e-08
-3.71016e-08
2.9794e-08
-4.58886e-08
4.03109e-08
-4.78497e-08
4.60452e-08
4.91336e-08
-4.62042e-08
-1.54134e-08
2.01371e-09
1.65837e-08
-1.60839e-08
1.12522e-10
-1.78923e-08
1.419e-09
-1.9163e-08
5.8985e-09
-2.37643e-08
1.75842e-08
-3.13424e-08
2.76167e-08
-3.7921e-08
3.63724e-08
-3.99751e-08
4.2365e-08
-3.72671e-08
4.33371e-08
4.21642e-08
-3.02978e-08
-2.42605e-08
-1.9692e-10
2.6471e-08
-2.30615e-08
-1.08679e-09
-2.30896e-08
1.44691e-09
-2.63356e-08
9.14442e-09
-3.36161e-08
2.48646e-08
-4.16723e-08
3.56728e-08
-4.47065e-08
3.94065e-08
-4.26052e-08
4.02636e-08
-3.67755e-08
3.75072e-08
3.14821e-08
-2.60936e-08
-2.87093e-08
-1.92759e-09
3.04398e-08
-2.71815e-08
-2.61496e-09
-2.5801e-08
6.62107e-11
-2.87592e-08
1.21025e-08
-4.14338e-08
3.7539e-08
-5.3206e-08
4.74448e-08
-5.79035e-08
4.4104e-08
-5.02228e-08
3.25826e-08
-3.64454e-08
2.37298e-08
1.6416e-08
-2.13795e-08
-3.53355e-08
2.00093e-09
3.14069e-08
-3.52468e-08
-2.70415e-09
-3.38942e-08
-1.28652e-09
-3.75498e-08
1.57579e-08
-5.19912e-08
5.19803e-08
-6.676e-08
6.22135e-08
-6.94626e-08
4.68064e-08
-5.73434e-08
2.04633e-08
-4.74085e-08
1.37947e-08
1.3481e-08
-4.44736e-08
-3.95368e-08
2.27351e-08
1.88025e-08
-6.0079e-08
1.78377e-08
-6.81494e-08
6.78373e-09
-6.7374e-08
1.49824e-08
-6.55943e-08
5.02004e-08
-6.2791e-08
5.941e-08
-6.1898e-08
4.59133e-08
-6.32694e-08
2.18346e-08
-6.33069e-08
1.38321e-08
3.93783e-09
-5.37638e-08
-8.68927e-09
4.55325e-08
-1.41082e-08
-4.31462e-08
5.22943e-08
-7.42815e-08
3.79189e-08
-8.31935e-08
2.38942e-08
-7.08325e-08
3.78394e-08
-5.80771e-08
4.66545e-08
-5.33327e-08
4.11687e-08
-5.85701e-08
2.7072e-08
-6.04483e-08
1.57102e-08
-9.91567e-10
-5.55189e-08
4.89098e-08
6.15746e-08
-6.4952e-08
2.87042e-08
7.24997e-08
-1.37111e-09
6.79942e-08
-3.31031e-08
5.56261e-08
-4.26625e-08
4.73987e-08
-3.98112e-08
4.38032e-08
-3.51899e-08
3.65473e-08
-3.79076e-08
2.97896e-08
-4.62421e-08
2.40447e-08
3.7237e-09
-5.09574e-08
8.20686e-08
6.79206e-08
-8.84147e-08
7.54995e-08
7.90687e-08
6.51372e-08
7.83564e-08
4.69351e-08
7.38282e-08
2.50753e-08
6.92585e-08
9.62591e-10
6.79159e-08
-1.90683e-08
5.65782e-08
-3.10886e-08
4.18099e-08
-3.78081e-08
3.07641e-08
1.41511e-08
-4.82355e-08
6.95517e-08
6.823e-08
-6.9861e-08
6.79594e-08
8.06611e-08
6.70426e-08
7.92733e-08
6.16737e-08
7.91972e-08
5.25674e-08
7.83649e-08
4.16247e-08
7.88586e-08
2.84828e-08
6.97201e-08
7.71715e-09
6.25756e-08
-1.2301e-08
5.07823e-08
4.12045e-08
-3.93543e-08
4.78339e-08
6.25899e-08
-4.21938e-08
5.0816e-08
7.76791e-08
5.12724e-08
7.88169e-08
4.81094e-08
8.23602e-08
3.99847e-08
8.64896e-08
3.22704e-08
8.65729e-08
2.26013e-08
7.93892e-08
5.03793e-09
8.0139e-08
-2.31979e-08
7.90181e-08
6.38396e-08
-4.5833e-08
1.16209e-08
5.33504e-08
-2.38146e-09
2.18759e-08
6.74242e-08
2.44659e-08
7.6227e-08
2.2605e-08
8.42211e-08
1.71892e-08
9.19055e-08
1.22536e-08
9.15085e-08
-6.49626e-11
9.17078e-08
-1.72164e-08
9.72904e-08
-3.23244e-08
9.41261e-08
7.26845e-08
-4.11692e-08
-7.29467e-08
4.09268e-08
8.53704e-08
-5.92612e-08
5.37387e-08
-5.00854e-08
6.70513e-08
-4.39015e-08
7.80372e-08
-3.89047e-08
8.69088e-08
-3.71303e-08
8.97342e-08
-3.61196e-08
9.0697e-08
-3.26591e-08
9.383e-08
-2.88284e-08
9.02954e-08
7.27203e-08
-2.88641e-08
-1.3745e-07
3.41589e-08
1.44217e-07
-1.25022e-07
4.13113e-08
-1.09944e-07
5.1973e-08
-1.00522e-07
6.86158e-08
-8.98218e-08
7.62083e-08
-7.45528e-08
7.44652e-08
-5.4104e-08
7.02483e-08
-3.70407e-08
7.67666e-08
-2.08105e-08
7.40652e-08
6.11531e-08
-9.24329e-09
-1.48127e-07
2.82824e-08
1.54003e-07
-1.40622e-07
3.38067e-08
-1.28968e-07
4.03185e-08
-1.12985e-07
5.26335e-08
-9.45662e-08
5.77892e-08
-7.54286e-08
5.53277e-08
-5.49115e-08
4.97312e-08
-2.78011e-08
4.96562e-08
-3.27175e-10
4.65913e-08
3.73652e-08
2.34607e-08
-1.31695e-07
2.07611e-08
1.39216e-07
-1.23267e-07
2.5379e-08
-1.11734e-07
2.87861e-08
-9.4467e-08
3.53661e-08
-7.50854e-08
3.84077e-08
-5.67943e-08
3.70365e-08
-3.84104e-08
3.13474e-08
-1.40481e-08
2.52939e-08
1.43401e-08
1.82032e-08
9.34865e-09
4.23566e-08
-8.98879e-08
2.06821e-08
8.9967e-08
-8.80819e-08
2.35732e-08
-8.03533e-08
2.10576e-08
-6.61789e-08
2.11918e-08
-4.99235e-08
2.21523e-08
-3.35626e-08
2.06756e-08
-1.92423e-08
1.70272e-08
-1.97033e-09
8.02187e-09
1.89605e-08
-2.72759e-09
-1.4697e-08
4.30061e-08
1.65623e-08
2.62023e-08
-2.20824e-08
9.09873e-09
3.10371e-08
-8.84415e-09
3.90006e-08
-1.77035e-08
3.00512e-08
-2.21665e-08
2.66154e-08
-1.52841e-08
1.37933e-08
-4.7455e-09
6.48862e-09
8.98183e-09
-5.70545e-09
2.19644e-08
-1.57101e-08
-2.68056e-08
3.4073e-08
9.88949e-08
7.72333e-09
-8.04158e-08
1.09395e-07
2.05377e-08
1.09669e-07
3.87269e-08
8.86603e-08
5.10596e-08
6.14367e-08
5.38391e-08
3.75279e-08
3.77021e-08
2.16031e-08
2.24134e-08
1.38282e-08
2.06947e-09
1.08095e-08
-1.26913e-08
-2.36048e-08
7.60872e-09
1.21585e-07
-4.41218e-09
-1.09449e-07
1.35776e-07
6.34667e-09
1.45198e-07
2.93055e-08
1.49901e-07
4.6356e-08
1.45191e-07
5.85491e-08
1.24197e-07
5.86968e-08
9.49505e-08
5.16597e-08
6.46953e-08
3.23248e-08
3.70655e-08
1.49386e-08
1.79842e-09
1.16624e-08
1.79816e-07
1.75852e-08
-2.01813e-07
1.63442e-07
2.27213e-08
1.52006e-07
4.07414e-08
1.44069e-07
5.42935e-08
1.40495e-07
6.21234e-08
1.37468e-07
6.17237e-08
1.35045e-07
5.40828e-08
1.19576e-07
4.77937e-08
9.43182e-08
4.01964e-08
3.25449e-08
6.35719e-08
1.82381e-07
5.87719e-08
-2.23567e-07
1.47361e-07
5.77417e-08
1.27781e-07
6.03214e-08
1.22914e-07
5.916e-08
1.24661e-07
6.03772e-08
1.22543e-07
6.38416e-08
1.23598e-07
5.30283e-08
1.17783e-07
5.36088e-08
1.0394e-07
5.40391e-08
4.75145e-08
8.89708e-08
8.57083e-08
7.80777e-08
-1.05014e-07
7.17013e-08
7.17492e-08
6.93603e-08
6.26626e-08
7.56147e-08
5.29058e-08
8.22982e-08
5.36939e-08
8.94451e-08
5.66948e-08
8.62863e-08
5.61872e-08
8.20091e-08
5.78862e-08
8.26651e-08
5.33832e-08
4.60013e-08
8.41785e-08
-1.26097e-08
6.56574e-08
2.50301e-08
-1.43425e-08
7.34824e-08
-1.89372e-08
6.72573e-08
-1.97435e-08
5.37122e-08
-6.05924e-09
4.00098e-08
2.27775e-08
2.78582e-08
5.59111e-08
2.30537e-08
7.25265e-08
4.12708e-08
7.13653e-08
5.45445e-08
4.47709e-08
7.25957e-08
-1.28287e-07
4.39629e-08
1.49981e-07
-1.12037e-07
5.7233e-08
-9.12477e-08
4.64677e-08
-7.62097e-08
3.86743e-08
-4.25788e-08
6.37883e-09
-1.44533e-08
-2.67318e-10
9.09368e-09
-4.93331e-10
1.49889e-08
3.53755e-08
1.02493e-08
5.92842e-08
3.78269e-08
1.71933e-08
-1.2981e-07
4.20932e-08
1.3168e-07
-1.19047e-07
4.64699e-08
-9.81676e-08
2.55881e-08
-5.49316e-08
-4.56179e-09
-4.56749e-08
-2.87803e-09
-5.03225e-08
4.38006e-09
-6.61315e-08
1.53156e-08
-5.36401e-08
2.28839e-08
-2.65954e-08
3.22394e-08
8.67655e-09
2.55501e-09
-1.19852e-07
1.34115e-08
1.48534e-07
-8.34073e-08
1.00249e-08
-5.75622e-08
-2.57149e-10
-5.12294e-08
-1.08947e-08
-5.26659e-08
-1.44155e-09
-4.90245e-08
7.38521e-10
-4.22602e-08
8.5512e-09
-2.19612e-08
2.58497e-09
3.12907e-09
7.14916e-09
-1.30165e-08
2.48221e-08
-2.33414e-08
-1.7998e-08
5.47507e-08
1.33929e-08
-2.67099e-08
3.97447e-08
-2.66092e-08
5.73442e-08
-2.84946e-08
7.9078e-08
-2.31754e-08
9.44782e-08
-1.46616e-08
1.00557e-07
2.47289e-09
9.93934e-08
3.74818e-09
1.1025e-07
-3.7078e-09
-2.0179e-08
1.17413e-07
1.48758e-07
-5.22961e-08
-1.1446e-07
1.82559e-07
-6.05112e-08
2.19667e-07
-6.37176e-08
2.53912e-07
-6.27402e-08
2.88218e-07
-5.74813e-08
3.14047e-07
-4.04907e-08
3.35315e-07
-1.87945e-08
3.49539e-07
-1.04764e-08
3.52191e-07
-6.35929e-09
-7.26012e-09
3.39272e-07
1.80167e-07
-8.19951e-08
-1.50468e-07
2.17405e-07
-9.77492e-08
2.5231e-07
-9.86227e-08
2.81933e-07
-9.23632e-08
3.13164e-07
-8.87124e-08
3.46944e-07
-7.42711e-08
3.87676e-07
-5.95263e-08
4.23998e-07
-4.67983e-08
4.47429e-07
-2.97907e-08
-1.64663e-08
4.56635e-07
2.27518e-07
-1.15052e-07
-1.94462e-07
2.50775e-07
-1.21006e-07
2.66237e-07
-1.14085e-07
2.79186e-07
-1.05312e-07
3.0359e-07
-1.13116e-07
3.47698e-07
-1.1838e-07
3.92963e-07
-1.04791e-07
4.20454e-07
-7.42895e-08
4.37251e-07
-4.65875e-08
-3.94823e-08
4.60267e-07
2.01211e-07
-1.56051e-07
-1.60212e-07
2.34232e-07
-1.54027e-07
2.61952e-07
-1.41805e-07
2.85625e-07
-1.28985e-07
3.08335e-07
-1.35827e-07
3.27454e-07
-1.37498e-07
3.47541e-07
-1.24877e-07
3.60898e-07
-8.7647e-08
3.91243e-07
-7.69321e-08
-7.63559e-08
4.28116e-07
1.37617e-07
-1.77908e-07
-1.1576e-07
1.61736e-07
-1.78146e-07
1.90933e-07
-1.71002e-07
2.17718e-07
-1.55771e-07
2.3334e-07
-1.51449e-07
2.53385e-07
-1.57544e-07
2.61713e-07
-1.33206e-07
2.5116e-07
-7.70935e-08
2.40861e-07
-6.66322e-08
-7.02437e-08
2.34748e-07
1.25902e-08
-1.8952e-07
-9.77685e-10
2.54719e-08
-1.91028e-07
4.64624e-08
-1.91993e-07
7.52916e-08
-1.846e-07
7.97196e-08
-1.55877e-07
5.18982e-08
-1.29722e-07
2.38232e-08
-1.05131e-07
2.10534e-08
-7.4324e-08
8.25887e-09
-5.38376e-08
-3.91468e-08
-2.28376e-08
-1.71568e-07
-1.95146e-07
1.77194e-07
-1.63963e-07
-1.98633e-07
-1.54466e-07
-2.01489e-07
-1.45284e-07
-1.93782e-07
-1.49917e-07
-1.51244e-07
-1.69152e-07
-1.10487e-07
-1.8509e-07
-8.91937e-08
-1.82654e-07
-7.67607e-08
-1.69947e-07
-6.65445e-08
-4.37939e-08
-1.65299e-07
-2.73909e-07
-1.95509e-07
2.74273e-07
-2.76356e-07
-1.96186e-07
-2.89763e-07
-1.88082e-07
-3.06063e-07
-1.77482e-07
-3.29206e-07
-1.28102e-07
-3.57839e-07
-8.1854e-08
-3.66401e-07
-8.06324e-08
-3.53191e-07
-8.99713e-08
-3.35086e-07
-8.46493e-08
-6.6704e-08
-3.12176e-07
-4.29453e-07
-1.83348e-07
4.17291e-07
-4.40629e-07
-1.8501e-07
-4.49308e-07
-1.79404e-07
-4.60396e-07
-1.66394e-07
-4.67709e-07
-1.20789e-07
-4.51197e-07
-9.83656e-08
-4.26035e-07
-1.05794e-07
-4.05966e-07
-1.1004e-07
-3.92633e-07
-9.7983e-08
-7.92117e-08
-3.80125e-07
-5.43552e-07
-1.70268e-07
5.30473e-07
-5.5134e-07
-1.77222e-07
-5.44769e-07
-1.85974e-07
-5.28803e-07
-1.82361e-07
-4.84402e-07
-1.6519e-07
-4.35714e-07
-1.47052e-07
-4.07313e-07
-1.34196e-07
-4.00876e-07
-1.16477e-07
-4.0462e-07
-9.42392e-08
-8.54356e-08
-3.98396e-07
-6.07568e-07
-1.48979e-07
5.86279e-07
-6.25596e-07
-1.59194e-07
-6.23734e-07
-1.87837e-07
-6.04538e-07
-2.01556e-07
-5.74742e-07
-1.94986e-07
-5.5164e-07
-1.70154e-07
-5.43506e-07
-1.4233e-07
-5.33046e-07
-1.26937e-07
-5.08099e-07
-1.19185e-07
-1.09328e-07
-4.84207e-07
-6.75115e-07
-1.15996e-07
6.42133e-07
-7.08824e-07
-1.25484e-07
-7.27772e-07
-1.68888e-07
-7.30686e-07
-1.98643e-07
-7.21672e-07
-2.04e-07
-7.0879e-07
-1.83037e-07
-6.8763e-07
-1.6349e-07
-6.48653e-07
-1.65913e-07
-6.03152e-07
-1.64686e-07
-1.55043e-07
-5.57438e-07
-7.02231e-07
-8.20227e-08
6.68257e-07
-7.27962e-07
-9.97522e-08
-7.46979e-07
-1.49871e-07
-7.66879e-07
-1.78744e-07
-7.86753e-07
-1.84125e-07
-7.96233e-07
-1.73557e-07
-7.86502e-07
-1.73221e-07
-7.42574e-07
-2.09841e-07
-6.80507e-07
-2.26752e-07
-2.20666e-07
-6.14883e-07
-6.88045e-07
-6.60902e-08
6.72112e-07
-7.10844e-07
-7.69532e-08
-7.46679e-07
-1.14036e-07
-7.82635e-07
-1.42786e-07
-8.08997e-07
-1.57764e-07
-8.20514e-07
-1.6204e-07
-8.07225e-07
-1.8651e-07
-7.81331e-07
-2.35735e-07
-7.41994e-07
-2.66089e-07
-2.73872e-07
-6.88787e-07
-6.52903e-07
-6.58025e-08
6.52616e-07
-6.59707e-07
-7.01502e-08
-6.77775e-07
-9.59683e-08
-7.08907e-07
-1.11653e-07
-7.25207e-07
-1.41465e-07
-7.14743e-07
-1.72504e-07
-7.06985e-07
-1.94267e-07
-7.11688e-07
-2.31031e-07
-7.07484e-07
-2.70293e-07
-3.01713e-07
-6.79643e-07
-5.64698e-07
-6.74595e-08
5.66355e-07
-5.45718e-07
-8.91313e-08
-5.26808e-07
-1.14879e-07
-5.13381e-07
-1.25079e-07
-5.05583e-07
-1.49263e-07
-4.95858e-07
-1.82229e-07
-4.92812e-07
-1.97313e-07
-5.25992e-07
-1.9785e-07
-5.71576e-07
-2.24708e-07
-2.98029e-07
-5.75261e-07
-3.28755e-07
-3.886e-08
3.00156e-07
-3.52368e-07
-6.55177e-08
-3.63014e-07
-1.04234e-07
-3.6351e-07
-1.24583e-07
-3.36694e-07
-1.76079e-07
-3.09745e-07
-2.09177e-07
-2.96266e-07
-2.10792e-07
-3.15853e-07
-1.78264e-07
-3.74093e-07
-1.66468e-07
-2.6753e-07
-4.04593e-07
-1.54703e-07
-8.09221e-08
1.96765e-07
-1.38901e-07
-8.13203e-08
-1.45867e-07
-9.72682e-08
-2.06685e-07
-6.3765e-08
-2.33878e-07
-1.48885e-07
-2.19562e-07
-2.23493e-07
-1.82933e-07
-2.47421e-07
-1.64423e-07
-1.96773e-07
-1.91657e-07
-1.39234e-07
-1.86118e-07
-2.73069e-07
-2.04139e-07
-1.19305e-07
2.42521e-07
-1.65997e-07
-1.19461e-07
-1.28217e-07
-1.35048e-07
-9.43127e-08
-9.76695e-08
-1.28801e-07
-1.14397e-07
-1.68862e-07
-1.83433e-07
-1.75273e-07
-2.41011e-07
-1.61552e-07
-2.10494e-07
-1.14986e-07
-1.858e-07
-2.13333e-07
-8.77713e-08
-2.31309e-07
-1.43068e-07
2.55072e-07
-1.97894e-07
-1.52875e-07
-1.75789e-07
-1.57153e-07
-1.25769e-07
-1.47689e-07
-1.0607e-07
-1.34096e-07
-1.18109e-07
-1.71394e-07
-1.6028e-07
-1.98841e-07
-1.60829e-07
-2.09945e-07
-1.21223e-07
-2.25406e-07
-2.62681e-07
-7.18749e-08
-2.29407e-07
-1.50602e-07
2.36941e-07
-2.08909e-07
-1.73375e-07
-1.95371e-07
-1.7069e-07
-1.75417e-07
-1.67643e-07
-1.51071e-07
-1.58443e-07
-1.2365e-07
-1.98814e-07
-1.17296e-07
-2.05194e-07
-1.30239e-07
-1.97003e-07
-1.29359e-07
-2.26286e-07
-2.93601e-07
-9.84398e-08
-1.49587e-07
-1.56979e-07
1.55964e-07
-1.27037e-07
-1.95927e-07
-1.09791e-07
-1.87936e-07
-1.01815e-07
-1.75619e-07
-8.71223e-08
-1.73136e-07
-1.16083e-07
-1.69854e-07
-1.30105e-07
-1.91172e-07
-1.15669e-07
-2.1144e-07
-1.06221e-07
-2.35734e-07
-3.02599e-07
-9.72244e-08
-7.27291e-08
-1.28693e-07
4.44424e-08
-7.19217e-08
-1.96735e-07
-6.18063e-08
-1.98051e-07
-6.59551e-08
-1.71471e-07
-7.3146e-08
-1.65946e-07
-7.2079e-08
-1.7092e-07
-8.10508e-08
-1.82199e-07
-9.2021e-08
-2.00469e-07
-1.02337e-07
-2.25418e-07
-3.11272e-07
-9.3664e-08
3.17366e-08
-6.49214e-08
-9.55079e-08
1.36569e-08
-1.78655e-07
1.50024e-08
-1.99396e-07
-9.63014e-09
-1.46838e-07
-3.86653e-08
-1.3691e-07
-5.79042e-08
-1.51681e-07
-5.15166e-08
-1.88587e-07
-4.30073e-08
-2.08979e-07
-6.94471e-08
-1.98979e-07
-3.01053e-07
-7.96674e-08
1.53162e-07
-1.05359e-08
-2.07547e-07
1.29845e-07
-1.55337e-07
1.02025e-07
-1.71575e-07
6.02876e-08
-1.05102e-07
2.2079e-10
-7.68411e-08
-3.15633e-08
-1.19897e-07
-2.80406e-08
-1.92111e-07
-3.53486e-08
-2.01672e-07
-2.13367e-08
-2.12992e-07
-3.38262e-07
1.58722e-08
3.38962e-07
-2.20241e-08
-3.27475e-07
2.68028e-07
-8.44012e-08
1.76792e-07
-8.03388e-08
1.25183e-07
-5.34931e-08
9.22986e-08
-4.39573e-08
8.58022e-08
-1.134e-07
7.77879e-08
-1.84097e-07
1.02893e-07
-2.26778e-07
1.84079e-07
-2.94179e-07
-3.86467e-07
2.32284e-07
3.36949e-07
-1.51591e-08
-3.43813e-07
2.86653e-07
-3.41053e-08
2.4343e-07
-3.71157e-08
2.14512e-07
-2.45744e-08
2.20764e-07
-5.02106e-08
2.39417e-07
-1.32052e-07
2.56006e-07
-2.00686e-07
2.91899e-07
-2.62671e-07
3.30009e-07
-3.32288e-07
-4.01593e-07
3.45135e-07
3.51858e-07
7.26824e-09
-3.74284e-07
3.39777e-07
-2.20246e-08
3.10853e-07
-8.19232e-09
3.00026e-07
-1.37474e-08
3.20246e-07
-7.04316e-08
3.36208e-07
-1.48015e-07
3.48376e-07
-2.12855e-07
3.76082e-07
-2.90377e-07
3.97307e-07
-3.53514e-07
-4.02506e-07
3.9822e-07
2.77104e-07
-2.03849e-08
-2.49451e-07
2.5694e-07
-1.86049e-09
2.52052e-07
-3.30411e-09
2.80153e-07
-4.18486e-08
3.30268e-07
-1.20546e-07
3.6024e-07
-1.77988e-07
3.98717e-07
-2.51333e-07
4.16019e-07
-3.07681e-07
4.23248e-07
-3.60743e-07
-3.88756e-07
4.09498e-07
1.43357e-07
1.73683e-08
-1.8111e-07
1.35522e-07
5.97424e-09
1.72776e-07
-4.05583e-08
2.39113e-07
-1.08186e-07
3.14083e-07
-1.95516e-07
3.61185e-07
-2.2509e-07
3.93223e-07
-2.83371e-07
4.17163e-07
-3.31621e-07
4.06705e-07
-3.50285e-07
-3.54856e-07
3.72805e-07
1.10354e-07
-3.36162e-08
-5.9369e-08
1.79035e-07
-6.27072e-08
2.71015e-07
-1.3254e-07
3.51221e-07
-1.88393e-07
3.71863e-07
-2.1616e-07
3.87357e-07
-2.40585e-07
3.8478e-07
-2.80795e-07
3.65599e-07
-3.12439e-07
3.30863e-07
-3.15548e-07
-3.23793e-07
2.99801e-07
2.16772e-07
-1.2577e-07
-1.24619e-07
3.01333e-07
-1.47266e-07
3.5062e-07
-1.81826e-07
3.74965e-07
-2.12737e-07
3.79346e-07
-2.20541e-07
3.71539e-07
-2.32777e-07
3.48496e-07
-2.57752e-07
3.15464e-07
-2.79408e-07
2.9265e-07
-2.92734e-07
-3.13754e-07
2.82613e-07
2.40553e-07
-1.93899e-07
-1.72424e-07
3.07349e-07
-2.14064e-07
3.51006e-07
-2.25482e-07
3.63624e-07
-2.25355e-07
3.6595e-07
-2.22866e-07
3.5585e-07
-2.22677e-07
3.34335e-07
-2.36236e-07
3.13041e-07
-2.58114e-07
3.02888e-07
-2.8258e-07
-3.3437e-07
3.23504e-07
2.83408e-07
-2.19551e-07
-2.57756e-07
3.13296e-07
-2.43951e-07
3.38804e-07
-2.5099e-07
3.54326e-07
-2.40878e-07
3.56231e-07
-2.24771e-07
3.51675e-07
-2.18121e-07
3.3449e-07
-2.19051e-07
3.10496e-07
-2.3412e-07
3.18384e-07
-2.90468e-07
-4.29014e-07
4.13028e-07
2.69393e-07
-2.47704e-07
-2.4124e-07
2.98853e-07
-2.7341e-07
3.24809e-07
-2.76946e-07
3.4267e-07
-2.58738e-07
3.44856e-07
-2.26956e-07
3.19764e-07
-1.9303e-07
2.73779e-07
-1.73065e-07
2.41798e-07
-2.02138e-07
3.17986e-07
-3.66655e-07
-5.61875e-07
4.50849e-07
2.07619e-07
-2.86924e-07
-1.68398e-07
2.39872e-07
-3.05661e-07
2.67443e-07
-3.04518e-07
2.92745e-07
-2.84041e-07
3.01997e-07
-2.36207e-07
2.59785e-07
-1.50818e-07
1.8052e-07
-9.37997e-08
1.76806e-07
-1.98423e-07
2.98768e-07
-4.88617e-07
-6.32452e-07
3.69344e-07
2.09896e-07
-3.14794e-07
-1.82026e-07
2.07777e-07
-3.03541e-07
2.09135e-07
-3.05876e-07
2.29398e-07
-3.04304e-07
2.53805e-07
-2.60613e-07
2.12346e-07
-1.09359e-07
1.28732e-07
-1.01844e-08
1.77084e-07
-2.46774e-07
2.70375e-07
-5.81908e-07
-6.63049e-07
3.00972e-07
1.66562e-07
-3.15572e-07
-1.65784e-07
1.99617e-07
-3.366e-07
2.26777e-07
-3.33037e-07
2.36249e-07
-3.13774e-07
2.21859e-07
-2.46223e-07
1.64311e-07
-5.18102e-08
1.33521e-07
2.06043e-08
2.31273e-07
-3.44526e-07
2.83261e-07
-6.33896e-07
-6.74413e-07
2.94623e-07
1.79061e-07
-3.06801e-07
-1.87835e-07
2.07754e-07
-3.65288e-07
2.24519e-07
-3.49803e-07
1.96348e-07
-2.85601e-07
1.08329e-07
-1.58204e-07
7.90717e-08
-2.25525e-08
2.14055e-07
-1.14378e-07
3.65019e-07
-4.9549e-07
3.80563e-07
-6.49441e-07
-6.50532e-07
3.56682e-07
1.74035e-07
-2.73382e-07
-2.07456e-07
1.12464e-07
-3.03711e-07
4.88367e-08
-2.86173e-07
-1.32383e-08
-2.23525e-07
-1.20633e-08
-1.5938e-07
1.23365e-07
-1.57982e-07
3.60881e-07
-3.51896e-07
4.59646e-07
-5.94255e-07
4.3197e-07
-6.21766e-07
-5.84698e-07
3.66135e-07
8.85954e-08
-2.30407e-07
-1.31569e-07
4.51834e-08
-2.603e-07
6.46246e-09
-2.47452e-07
1.39936e-08
-2.31055e-07
8.20955e-08
-2.2748e-07
2.09789e-07
-2.85674e-07
3.87071e-07
-5.29178e-07
4.11312e-07
-6.18496e-07
3.98953e-07
-6.09406e-07
-5.12493e-07
3.26748e-07
1.40187e-07
-1.84983e-07
-1.8561e-07
1.25477e-07
-2.45593e-07
9.62847e-08
-2.18261e-07
1.21451e-07
-2.56224e-07
1.74558e-07
-2.80589e-07
3.17455e-07
-4.28571e-07
3.96301e-07
-6.08025e-07
4.00014e-07
-6.22208e-07
3.68102e-07
-5.77493e-07
-3.42127e-07
1.97737e-07
1.6687e-07
-1.90641e-07
-1.61213e-07
1.44853e-07
-2.23576e-07
1.54193e-07
-2.276e-07
1.7298e-07
-2.7501e-07
2.42591e-07
-3.50197e-07
3.65943e-07
-5.51923e-07
3.78923e-07
-6.21006e-07
3.46667e-07
-5.89952e-07
2.20934e-07
-4.5176e-07
-4.33105e-08
-7.78847e-08
1.47469e-07
-2.05679e-07
-1.32431e-07
1.52398e-07
-2.28505e-07
1.66348e-07
-2.4155e-07
1.9986e-07
-3.08523e-07
2.81168e-07
-4.31504e-07
3.7719e-07
-6.47945e-07
4.08548e-07
-6.52364e-07
4.03251e-07
-5.84654e-07
2.17036e-07
-2.65545e-07
1.89751e-07
-1.60284e-08
1.32598e-07
-2.26532e-07
-1.11745e-07
1.45138e-07
-2.41047e-07
1.59466e-07
-2.55877e-07
1.59301e-07
-3.0836e-07
2.88034e-07
-5.60239e-07
3.09056e-07
-6.68967e-07
2.88062e-07
-6.31369e-07
1.46984e-07
-4.43576e-07
-1.17643e-07
-9.17527e-10
3.1381e-07
-2.41703e-07
8.40764e-08
-2.27772e-07
-8.28361e-08
7.76148e-08
-2.34584e-07
7.49663e-08
-2.53228e-07
1.18707e-07
-3.521e-07
2.00393e-07
-6.41926e-07
2.29274e-07
-6.97847e-07
1.93451e-07
-5.95546e-07
-1.09928e-08
-2.39133e-07
-1.6851e-07
1.566e-07
3.39231e-07
-1.93931e-07
3.60029e-08
-2.03725e-07
-6.00503e-08
2.27535e-08
-2.21335e-07
6.48107e-09
-2.36956e-07
6.99588e-08
-4.15579e-07
9.4314e-08
-6.66282e-07
7.53398e-08
-6.78874e-07
-1.06071e-08
-5.096e-07
-1.61506e-07
-8.8234e-08
-2.10838e-07
2.05934e-07
2.91691e-07
-1.63297e-07
2.85442e-08
-1.6317e-07
-6.90982e-08
7.91139e-09
-2.00702e-07
-1.92385e-08
-2.09806e-07
5.44366e-08
-4.89255e-07
5.95805e-08
-6.71426e-07
4.05479e-08
-6.59842e-07
-2.87882e-08
-4.40264e-07
-1.38294e-07
2.12727e-08
-1.47861e-07
2.155e-07
2.60447e-07
-1.16617e-07
1.87586e-08
-1.31287e-07
-5.06426e-08
-4.99155e-09
-1.76953e-07
1.99062e-08
-2.34703e-07
7.86481e-08
-5.47997e-07
7.364e-08
-6.66418e-07
4.46454e-08
-6.30847e-07
-4.45238e-08
-3.51095e-07
-1.36463e-07
1.13211e-07
-1.54299e-07
2.33337e-07
2.61156e-07
-1.55009e-07
1.80251e-08
-9.93913e-08
-4.99207e-08
3.07695e-09
-1.62004e-07
3.12178e-08
-2.62845e-07
5.65556e-08
-5.73336e-07
3.96228e-08
-6.49485e-07
4.04694e-08
-6.31694e-07
8.82858e-09
-3.19455e-07
-5.07498e-08
1.72789e-07
-1.74395e-07
3.56981e-07
3.27094e-07
-2.40332e-07
-1.1838e-08
-8.91699e-08
1.61688e-09
-2.73572e-08
-1.46484e-07
-3.27816e-08
-2.57422e-07
-3.48863e-08
-5.71232e-07
-3.31298e-08
-6.51242e-07
-2.34475e-08
-6.41377e-07
1.04661e-08
-3.5337e-07
-2.23559e-08
2.0561e-07
-1.10593e-07
4.45218e-07
4.02241e-07
-1.85739e-07
-1.66884e-08
-8.83838e-08
1.59026e-08
-3.4944e-08
-1.28229e-07
-6.12299e-08
-2.31137e-07
-7.32996e-08
-5.59163e-07
-5.55153e-08
-6.69027e-07
-4.23086e-08
-6.54584e-07
5.23305e-08
-4.4801e-07
1.1582e-07
1.42119e-07
1.09748e-07
4.51288e-07
4.47905e-07
6.40847e-08
6.80815e-09
-9.63424e-08
1.15069e-09
-3.89633e-09
-1.17525e-07
-7.86667e-08
-1.56366e-07
-7.39672e-08
-5.63861e-07
-6.68127e-08
-6.76182e-07
-5.57893e-08
-6.65607e-07
3.1754e-08
-5.35553e-07
1.22591e-07
5.12816e-08
1.71181e-07
4.02698e-07
4.20719e-07
1.98366e-07
5.30201e-08
-8.47767e-08
-6.45859e-08
3.92701e-08
-1.03776e-07
-5.03593e-08
-6.67371e-08
-4.14605e-08
-5.72761e-07
-3.74826e-08
-6.80159e-07
-3.42053e-08
-6.68885e-07
-9.75002e-09
-5.60008e-07
1.13561e-08
3.01754e-08
8.58328e-08
3.28223e-07
3.50385e-07
1.5617e-07
8.999e-08
-1.71915e-08
-1.57575e-07
3.51841e-08
-4.89682e-08
-8.52389e-09
-2.3029e-08
2.55738e-09
-5.83844e-07
-5.39774e-09
-6.72204e-07
-7.60132e-09
-6.66681e-07
2.02904e-09
-5.69639e-07
-1.11306e-08
4.33346e-08
5.73377e-08
2.59755e-07
2.94435e-07
1.13289e-07
5.93003e-08
1.44331e-07
-2.20823e-07
-2.63965e-08
3.67292e-08
-4.84224e-08
-1.00371e-09
2.11258e-08
-6.53393e-07
-7.48387e-10
-6.50329e-07
-1.12343e-08
-6.56196e-07
-1.81499e-08
-5.62723e-07
-9.28337e-08
1.1802e-07
-2.17027e-08
1.88626e-07
2.49341e-07
2.33935e-08
-1.49775e-07
2.00526e-07
9.35801e-08
-4.91242e-08
-6.39214e-08
-1.89176e-08
-3.12111e-08
-1.15658e-08
-6.60745e-07
-2.27118e-08
-6.39183e-07
-3.06888e-08
-6.48219e-07
-3.73305e-08
-5.56081e-07
-1.22636e-07
2.03327e-07
-6.01077e-08
1.26098e-07
1.59092e-07
3.01405e-08
1.65895e-08
2.96304e-07
-1.12373e-07
-3.16534e-08
-1.56799e-08
-9.12454e-09
-5.37407e-08
-3.06754e-08
-6.39196e-07
-3.23862e-08
-6.37471e-07
-4.98557e-08
-6.3075e-07
1.08609e-08
-6.16797e-07
-3.72985e-08
2.51487e-07
-1.02399e-07
1.91201e-07
1.61072e-07
-1.0438e-07
3.46745e-07
3.17268e-07
-3.67697e-07
-1.1874e-07
4.49806e-07
5.3557e-08
-2.26036e-07
2.48878e-08
-6.10525e-07
-1.13324e-08
-6.01251e-07
-4.80963e-08
-5.93986e-07
-4.78711e-08
-6.17023e-07
2.29906e-07
-2.6292e-08
-9.07192e-09
4.30179e-07
2.34835e-07
-8.28355e-08
-4.46474e-08
3.50033e-07
1.18809e-08
-1.25769e-07
5.30931e-07
9.87465e-08
-4.50568e-07
4.11861e-08
-5.52965e-07
4.58957e-09
-5.64654e-07
-3.78513e-08
-5.51545e-07
-9.35555e-08
-5.61317e-07
3.6373e-07
-4.83578e-07
5.14877e-07
2.7903e-07
2.29111e-07
5.20591e-07
-2.84415e-08
3.22638e-07
5.58384e-08
-8.65239e-09
5.11198e-07
6.31083e-08
-5.22312e-07
4.18606e-08
-5.31717e-07
-4.1876e-09
-5.18606e-07
-2.21781e-08
-5.33554e-07
-6.60918e-08
-5.17403e-07
-1.87123e-08
-5.30951e-07
1.08633e-07
1.51691e-07
7.92737e-08
2.58489e-07
-6.02779e-08
3.68293e-07
1.46239e-08
1.14767e-07
3.36082e-07
5.08517e-08
-4.58411e-07
9.72379e-10
-4.81838e-07
-3.10621e-08
-4.86572e-07
-7.90112e-08
-4.85605e-07
-1.00533e-07
-4.95881e-07
-1.42532e-07
-4.88949e-07
1.04959e-07
-9.58171e-08
-1.33124e-08
1.97504e-07
-1.64311e-07
4.54365e-07
7.82346e-08
9.80163e-08
7.37369e-08
8.35391e-08
-4.43965e-07
5.48828e-08
-4.53181e-07
2.47937e-08
-4.56483e-07
-1.15809e-08
-4.4923e-07
-5.9462e-08
-4.48e-07
-1.16422e-07
-4.31988e-07
-3.55786e-08
-1.76658e-07
-1.50038e-08
-3.38957e-08
-1.03578e-07
3.22056e-07
2.35878e-07
1.38779e-07
-1.68561e-07
7.64543e-08
-3.81628e-07
2.31184e-08
-3.99845e-07
-2.22288e-08
-4.11136e-07
-5.92544e-08
-4.12205e-07
-1.0056e-07
-4.06694e-07
-1.42695e-07
-3.89852e-07
-1.06111e-07
-2.13262e-07
-2.24523e-08
-9.86769e-08
5.37093e-08
1.08589e-07
1.59726e-07
1.48865e-07
-2.63764e-07
1.11829e-07
-3.44593e-07
7.67686e-08
-3.64784e-07
3.42509e-08
-3.68618e-07
-1.22245e-08
-3.65729e-07
-6.22089e-08
-3.56709e-07
-1.0605e-07
-3.4601e-07
-4.18865e-08
-2.77437e-07
-5.60375e-08
-8.31206e-09
1.0863e-07
-5.94954e-08
5.94626e-08
1.23697e-07
-2.78761e-07
8.05077e-08
-3.01404e-07
2.65755e-08
-3.10852e-07
-2.78078e-08
-3.14235e-07
-7.57161e-08
-3.17821e-07
-1.13693e-07
-3.18732e-07
-1.54432e-07
-3.05271e-07
-1.46893e-07
-2.84979e-07
-1.20755e-07
-8.21838e-08
2.18351e-07
-1.84664e-07
-9.31684e-08
1.62363e-07