/*--------------------------------*- C++ -*----------------------------------*\
  =========                 |
  \\      /  F ield         | OpenFOAM: The Open Source CFD Toolbox
   \\    /   O peration     | Website:  https://openfoam.org
    \\  /    A nd           | Version:  8
     \\/     M anipulation  |
\*---------------------------------------------------------------------------*/
FoamFile
{
    version     2.0;
    format      ascii;
    class       surfaceScalarField;
    location    "6.1";
    object      phi;
}
// * * * * * * * * * * * * * * * * * * * * * * * * * * * * * * * * * * * * * //

dimensions      [0 3 -1 0 0 0 0];

internalField   nonuniform List<scalar> 
18095
(
1.99199e-08
-1.72061e-07
1.52141e-07
2.31211e-08
-1.97507e-07
1.94306e-07
2.01736e-08
-2.06208e-07
2.09156e-07
1.17981e-08
-2.11221e-07
2.19597e-07
1.45563e-10
-2.13428e-07
2.2508e-07
-1.16536e-08
-2.13024e-07
2.24823e-07
-2.03536e-08
-2.10719e-07
2.19419e-07
-2.3222e-08
-2.06185e-07
2.09054e-07
-1.99113e-08
-1.97568e-07
1.94257e-07
-1.72079e-07
1.52168e-07
1.554e-08
-1.87601e-07
1.61634e-08
-1.9813e-07
1.18557e-08
-2.01901e-07
5.84368e-09
-2.05209e-07
-8.02238e-10
-2.06782e-07
-6.66738e-09
-2.07159e-07
-1.19677e-08
-2.05419e-07
-1.61307e-08
-2.02022e-07
-1.554e-08
-1.98158e-07
-1.87619e-07
6.80531e-09
-1.94406e-07
8.41547e-09
-1.9974e-07
7.45517e-09
-2.0094e-07
4.61337e-09
-2.02367e-07
4.95385e-10
-2.02664e-07
-4.02607e-09
-2.02638e-07
-7.27458e-09
-2.0217e-07
-8.38332e-09
-2.00914e-07
-6.80126e-09
-1.9974e-07
-1.9442e-07
4.52071e-09
-1.98927e-07
4.73238e-09
-1.99952e-07
3.65832e-09
-1.99866e-07
1.78691e-09
-2.00496e-07
-2.99955e-11
-2.00847e-07
-1.90504e-09
-2.00763e-07
-3.69056e-09
-2.00385e-07
-4.73219e-09
-1.99872e-07
-4.51094e-09
-1.99962e-07
-1.98931e-07
1.07332e-09
1.12119e-09
1.2549e-09
7.58898e-10
-8.77764e-11
-8.5035e-10
-1.23519e-09
-1.10728e-09
-1.06882e-09
-2.82951e-08
-1.96078e-07
2.24373e-07
-3.07756e-08
-1.99125e-07
2.01606e-07
-2.55699e-08
-2.01287e-07
1.96081e-07
-1.44137e-08
-2.02066e-07
1.9091e-07
7.67906e-11
-2.02198e-07
1.87708e-07
1.45287e-08
-2.01893e-07
1.87441e-07
2.5454e-08
-2.01327e-07
1.90401e-07
3.07703e-08
-2.0104e-07
1.95723e-07
2.84277e-08
-1.98977e-07
2.0132e-07
-1.96009e-07
2.24437e-07
-9.49341e-09
-1.86585e-07
-1.49497e-08
-1.93669e-07
-1.19331e-08
-2.04303e-07
-4.91872e-09
-2.09081e-07
1.11956e-09
-2.08236e-07
6.97889e-09
-2.07752e-07
1.30585e-08
-2.07406e-07
1.52827e-08
-2.03264e-07
9.55891e-09
-1.93253e-07
-1.8645e-07
-1.00688e-08
-1.76516e-07
-8.67885e-09
-1.95059e-07
-8.58406e-09
-2.04398e-07
-8.0103e-09
-2.09655e-07
-3.01251e-09
-2.13234e-07
2.46184e-09
-2.13226e-07
5.47218e-09
-2.10417e-07
7.30884e-09
-2.05101e-07
9.62996e-09
-1.95575e-07
-1.7682e-07
-6.35995e-09
-1.70156e-07
-7.91105e-09
-1.93508e-07
-7.05689e-09
-2.05252e-07
-2.83358e-09
-2.13878e-07
4.7395e-11
-2.16115e-07
3.68944e-09
-2.16868e-07
8.59223e-09
-2.1532e-07
8.71245e-09
-2.05221e-07
6.58465e-09
-1.93447e-07
-1.70236e-07
-1.8015e-08
-1.72171e-08
-1.33136e-08
-7.59463e-09
1.37026e-09
9.32528e-09
1.34249e-08
1.72578e-08
1.80679e-08
2.99744e-08
-1.58189e-07
1.28215e-07
3.6276e-08
-1.9855e-07
1.92249e-07
2.86358e-08
-2.10213e-07
2.17854e-07
1.68002e-08
-2.15286e-07
2.27121e-07
1.73291e-09
-2.16438e-07
2.31506e-07
-1.50745e-08
-2.16855e-07
2.33663e-07
-2.93806e-08
-2.14887e-07
2.29193e-07
-3.63995e-08
-2.10432e-07
2.17451e-07
-2.97316e-08
-1.99502e-07
1.92834e-07
-1.59646e-07
1.29914e-07
1.61145e-08
-1.74304e-07
1.88058e-08
-2.01242e-07
1.52032e-08
-2.06611e-07
7.18236e-09
-2.07265e-07
-2.02756e-09
-2.07229e-07
-1.05088e-08
-2.08374e-07
-1.57594e-08
-2.09636e-07
-1.82333e-08
-2.07959e-07
-1.54567e-08
-2.02279e-07
-1.75103e-07
8.48499e-09
-1.82789e-07
8.94418e-09
-2.01701e-07
8.15409e-09
-2.05821e-07
5.30958e-09
-2.0442e-07
2.45181e-09
-2.04371e-07
-1.2745e-09
-2.04648e-07
-6.52225e-09
-2.04389e-07
-8.02158e-09
-2.06459e-07
-8.20532e-09
-2.02095e-07
-1.83308e-07
8.05974e-09
-1.90848e-07
5.72375e-09
-1.99365e-07
6.51575e-09
-2.06613e-07
8.74354e-10
-1.98779e-07
-7.86262e-10
-2.0271e-07
-2.13629e-09
-2.03298e-07
-6.10998e-09
-2.00415e-07
-5.24822e-09
-2.07321e-07
-7.78614e-09
-1.99557e-07
-1.91094e-07
3.35247e-08
3.57655e-08
2.5234e-08
1.73652e-08
2.36256e-09
-1.34945e-08
-2.3508e-08
-3.51055e-08
-3.33428e-08
7.07209e-08
1.25543e-08
-8.32752e-08
5.94127e-08
1.13077e-08
4.81973e-08
1.12153e-08
3.48657e-08
1.33316e-08
2.45717e-08
1.0294e-08
9.72494e-09
1.48468e-08
-5.43046e-09
1.51555e-08
-1.18541e-08
6.42374e-09
-1.14484e-08
-4.05688e-10
-3.14215e-09
-8.30619e-09
8.59148e-08
2.36298e-08
-9.69905e-08
7.43374e-08
2.28847e-08
6.45593e-08
2.09933e-08
5.33617e-08
2.45292e-08
3.9944e-08
2.37119e-08
2.62272e-08
2.85638e-08
1.43098e-08
2.7073e-08
4.91613e-09
1.58175e-08
-2.73013e-09
7.24062e-09
3.40358e-09
-9.27587e-09
8.11228e-08
3.37651e-08
-9.12583e-08
7.08157e-08
3.31914e-08
6.04907e-08
3.13184e-08
5.04577e-08
3.45622e-08
3.95285e-08
3.46411e-08
2.97028e-08
3.83896e-08
1.47517e-08
4.20242e-08
-3.79718e-11
3.06072e-08
-9.4906e-09
1.66932e-08
1.43494e-08
-2.04365e-08
7.5035e-08
4.2335e-08
-8.3605e-08
6.69446e-08
4.12816e-08
5.88452e-08
3.94178e-08
5.08391e-08
4.25683e-08
3.80518e-08
4.74284e-08
2.48116e-08
5.16298e-08
1.08339e-08
5.60019e-08
-7.16693e-09
4.86079e-08
-2.4148e-08
3.36743e-08
3.32678e-08
-4.30664e-08
7.75388e-08
4.955e-08
-8.47539e-08
7.15359e-08
4.72846e-08
6.22384e-08
4.87153e-08
5.127e-08
5.35366e-08
3.67072e-08
6.19913e-08
2.27703e-08
6.55667e-08
9.4151e-09
6.9357e-08
-7.68158e-09
6.57045e-08
-3.01888e-08
5.61815e-08
5.49665e-08
-5.18875e-08
6.89368e-08
5.78568e-08
-7.72435e-08
5.86379e-08
5.75836e-08
4.58481e-08
6.1505e-08
3.35283e-08
6.58563e-08
2.53854e-08
7.0134e-08
1.87243e-08
7.22277e-08
1.40662e-08
7.4015e-08
6.74976e-09
7.30209e-08
-5.57093e-09
6.85022e-08
6.67884e-08
-1.73927e-08
6.03617e-08
6.93607e-08
-7.18656e-08
4.70324e-08
7.09128e-08
3.42929e-08
7.42444e-08
2.37092e-08
7.64397e-08
1.54185e-08
7.84245e-08
1.08864e-08
7.67596e-08
9.52093e-09
7.53804e-08
3.89146e-09
7.86503e-08
-1.17279e-09
7.35665e-08
7.07276e-08
-5.11197e-09
2.7836e-08
7.84279e-08
-3.69032e-08
2.14607e-08
7.72876e-08
1.60081e-08
7.96968e-08
8.60505e-09
8.38425e-08
3.06394e-09
8.39654e-08
2.45285e-09
7.73704e-08
2.45051e-09
7.53826e-08
2.53051e-09
7.85703e-08
-2.12961e-09
7.82266e-08
7.82824e-08
-9.68444e-09
3.55069e-09
8.89459e-08
-1.40688e-08
-1.0277e-08
9.11145e-08
-2.14679e-08
9.08874e-08
-1.94941e-08
8.18685e-08
-1.1953e-08
7.64241e-08
-1.10242e-08
7.64414e-08
-1.71431e-08
8.15014e-08
-2.68425e-08
8.82695e-08
-3.05937e-08
8.19776e-08
7.8904e-08
-3.12153e-08
-4.4076e-08
9.27937e-08
4.02279e-08
-4.87242e-08
9.57621e-08
-4.66432e-08
8.88062e-08
-3.09944e-08
6.62195e-08
-1.54855e-08
6.09151e-08
-1.41247e-08
7.50804e-08
-2.09004e-08
8.8277e-08
-3.47229e-08
1.02092e-07
-4.09465e-08
8.82011e-08
7.10867e-08
-3.31294e-08
-1.09136e-07
8.57602e-08
1.16169e-07
-8.82533e-08
7.48792e-08
-6.95458e-08
7.00987e-08
-5.23802e-08
4.90537e-08
-3.61005e-08
4.46353e-08
-1.90608e-08
5.80408e-08
-1.52738e-09
7.07434e-08
1.87281e-08
8.18362e-08
2.48473e-08
8.20817e-08
7.14856e-08
2.44481e-08
-1.10625e-07
8.61586e-08
1.10227e-07
-8.30347e-08
4.7289e-08
-4.60089e-08
3.30728e-08
-1.6822e-08
1.98669e-08
6.06078e-09
2.17525e-08
2.57194e-08
3.83821e-08
5.14045e-08
4.50583e-08
9.31452e-08
4.00954e-08
1.31257e-07
4.39694e-08
5.60968e-08
1.46646e-07
1.3715e-08
5.15563e-08
2.08873e-08
5.20602e-08
8.94362e-09
9.02905e-08
-5.15751e-09
1.18691e-07
-8.53319e-09
1.39555e-07
8.88078e-10
1.4888e-07
2.90565e-08
1.53818e-07
4.01211e-08
1.61285e-07
3.26275e-08
1.84772e-07
2.04825e-08
2.09268e-08
2.19942e-07
1.47783e-07
1.31157e-08
-1.09342e-07
1.76009e-07
-1.92826e-08
2.0305e-07
-3.21985e-08
2.26525e-07
-3.20085e-08
2.46727e-07
-1.93144e-08
2.5355e-07
2.22333e-08
2.46233e-07
4.74382e-08
2.36889e-07
4.19714e-08
2.38593e-07
1.87782e-08
1.2859e-08
2.46661e-07
2.28791e-07
1.10777e-08
-2.26753e-07
2.25944e-07
-1.64361e-08
2.26158e-07
-3.24125e-08
2.25853e-07
-3.1704e-08
2.20476e-07
-1.3937e-08
2.18046e-07
2.46635e-08
2.22012e-07
4.34717e-08
2.19724e-07
4.42595e-08
2.18595e-07
1.99072e-08
2.32158e-09
2.29132e-07
2.91327e-07
2.06415e-08
-3.00891e-07
2.71279e-07
3.61237e-09
2.54262e-07
-1.53954e-08
2.38031e-07
-1.54731e-08
2.12398e-07
1.16957e-08
1.93091e-07
4.39706e-08
1.76561e-07
6.00019e-08
1.69859e-07
5.09618e-08
1.82092e-07
7.67412e-09
-1.4381e-08
1.98794e-07
3.35693e-07
1.85961e-08
-3.33647e-07
3.17948e-07
2.13575e-08
2.90423e-07
1.21292e-08
2.49599e-07
2.53516e-08
2.08734e-07
5.25601e-08
1.71262e-07
8.14431e-08
1.37685e-07
9.35786e-08
1.40072e-07
4.85751e-08
1.44943e-07
2.80334e-09
5.83976e-10
1.29978e-07
2.95111e-07
3.1622e-08
-3.08137e-07
2.43186e-07
7.32817e-08
2.01954e-07
5.33611e-08
1.58981e-07
6.83246e-08
1.13814e-07
9.7727e-08
7.31524e-08
1.22105e-07
6.02757e-08
1.06455e-07
3.91345e-08
6.97165e-08
1.86097e-08
2.33282e-08
4.13154e-08
-2.21217e-08
1.59477e-07
9.55396e-08
-2.23395e-07
1.01995e-07
1.30763e-07
6.12359e-08
9.41203e-08
4.51291e-08
8.44314e-08
2.38195e-08
1.19037e-07
1.71202e-08
1.28804e-07
2.58671e-08
9.77085e-08
2.09319e-08
7.46517e-08
4.60145e-10
4.38e-08
8.01337e-08
-3.83582e-08
5.39421e-08
1.56174e-07
-1.14577e-07
3.31655e-08
1.51539e-07
9.21349e-09
1.18072e-07
-4.29098e-09
9.79359e-08
-6.7512e-09
1.21497e-07
-5.02343e-09
1.27076e-07
-1.17204e-08
1.04405e-07
-2.82204e-08
9.11516e-08
-6.94463e-08
8.50257e-08
9.6585e-08
-8.58978e-08
2.23042e-08
1.85919e-07
-5.2049e-08
8.39972e-09
1.65444e-07
-3.29918e-08
1.59464e-07
-5.28939e-08
1.17838e-07
-5.29609e-08
1.21564e-07
-5.48042e-08
1.2892e-07
-7.50612e-08
1.24662e-07
-9.7141e-08
1.13231e-07
-1.2587e-07
1.13754e-07
1.03611e-07
-1.32896e-07
2.64716e-09
2.00996e-07
-1.7724e-08
-1.13295e-08
1.79421e-07
-2.63039e-08
1.74438e-07
-5.29042e-08
1.44438e-07
-6.87501e-08
1.37409e-07
-8.66067e-08
1.46776e-07
-1.05866e-07
1.43921e-07
-1.28505e-07
1.3587e-07
-1.45425e-07
1.30674e-07
1.19295e-07
-1.61109e-07
-5.61156e-08
1.93352e-07
6.37596e-08
-5.67948e-08
1.801e-07
-6.04086e-08
1.78052e-07
-7.88304e-08
1.6286e-07
-1.02754e-07
1.61333e-07
-1.2331e-07
1.67333e-07
-1.42286e-07
1.62897e-07
-1.62334e-07
1.55918e-07
-1.73216e-07
1.41556e-07
1.40022e-07
-1.93943e-07
-1.28746e-07
1.77465e-07
1.44633e-07
-1.25519e-07
1.76873e-07
-1.23209e-07
1.75742e-07
-1.33749e-07
1.734e-07
-1.48505e-07
1.76088e-07
-1.60995e-07
1.79823e-07
-1.75862e-07
1.77764e-07
-1.90144e-07
1.70201e-07
-2.16733e-07
1.68145e-07
1.79653e-07
-2.56364e-07
-2.0055e-07
1.6562e-07
2.12394e-07
-1.90026e-07
1.6635e-07
-1.87128e-07
1.72844e-07
-1.9313e-07
1.79402e-07
-2.04858e-07
1.87816e-07
-2.19425e-07
1.9439e-07
-2.43146e-07
2.01485e-07
-2.84418e-07
2.11473e-07
-3.38276e-07
2.22003e-07
2.40016e-07
-3.98639e-07
-3.27426e-07
1.60104e-07
3.32942e-07
-3.30064e-07
1.68988e-07
-3.39643e-07
1.82423e-07
-3.56403e-07
1.96162e-07
-3.78654e-07
2.10066e-07
-4.04903e-07
2.20639e-07
-4.38436e-07
2.35017e-07
-4.796e-07
2.52637e-07
-5.21173e-07
2.63575e-07
2.66131e-07
-5.47289e-07
-4.86961e-07
1.64017e-07
4.83048e-07
-4.90301e-07
1.72327e-07
-4.91312e-07
1.83435e-07
-4.95965e-07
2.00815e-07
-5.1008e-07
2.2418e-07
-5.30419e-07
2.40979e-07
-5.49515e-07
2.54114e-07
-5.61539e-07
2.64661e-07
-5.66793e-07
2.68829e-07
2.6542e-07
-5.66081e-07
-5.47612e-07
1.64362e-07
5.47267e-07
-5.46456e-07
1.71171e-07
-5.42007e-07
1.78986e-07
-5.39302e-07
1.9811e-07
-5.38981e-07
2.2386e-07
-5.39548e-07
2.41545e-07
-5.42073e-07
2.56638e-07
-5.44204e-07
2.66792e-07
-5.43456e-07
2.68081e-07
2.59656e-07
-5.37692e-07
-5.44402e-07
1.61558e-07
5.47206e-07
-5.40194e-07
1.66962e-07
-5.34791e-07
1.73583e-07
-5.28431e-07
1.9175e-07
-5.21516e-07
2.16944e-07
-5.14511e-07
2.34541e-07
-5.05063e-07
2.4719e-07
-4.96428e-07
2.58158e-07
-5.01622e-07
2.73274e-07
2.78525e-07
-5.20491e-07
-4.20188e-07
1.56932e-07
4.24814e-07
-4.39192e-07
1.85967e-07
-4.60603e-07
1.94994e-07
-4.68547e-07
1.99695e-07
-4.57083e-07
2.0548e-07
-4.3922e-07
2.16677e-07
-4.20938e-07
2.28907e-07
-4.14892e-07
2.52112e-07
-4.32423e-07
2.90806e-07
3.04564e-07
-4.58462e-07
-1.84046e-07
8.28073e-08
2.58172e-07
-1.79858e-07
1.81778e-07
-2.12591e-07
2.27727e-07
-2.42979e-07
2.30083e-07
-2.57376e-07
2.19877e-07
-2.61934e-07
2.21235e-07
-2.62612e-07
2.29585e-07
-2.64512e-07
2.54012e-07
-2.72498e-07
2.98792e-07
3.16006e-07
-2.8394e-07
-8.12418e-08
2.01362e-08
1.43913e-07
-6.72974e-08
1.67834e-07
-7.47829e-08
2.35213e-07
-9.07168e-08
2.46017e-07
-1.00053e-07
2.29213e-07
-1.01146e-07
2.22329e-07
-9.72227e-08
2.25662e-07
-8.3248e-08
2.40037e-07
-6.09549e-08
2.76499e-07
3.04012e-07
-4.89606e-08
4.52473e-08
4.28734e-08
-6.79846e-08
1.96459e-09
2.11117e-07
-3.08484e-08
2.68026e-07
-2.99821e-08
2.45151e-07
-2.38947e-08
2.23126e-07
-1.01752e-08
2.08609e-07
1.501e-08
2.00477e-07
5.23312e-08
2.02716e-07
1.0813e-07
2.207e-07
2.48769e-07
1.63373e-07
2.44978e-08
4.24833e-08
-2.41073e-08
9.62995e-09
2.25985e-07
-1.37324e-08
2.91389e-07
-1.82511e-08
2.4967e-07
-6.38773e-09
2.11262e-07
1.04455e-08
1.91776e-07
3.23331e-08
1.7859e-07
5.39959e-08
1.81053e-07
1.05673e-07
1.69022e-07
1.7785e-07
1.76592e-07
-4.1652e-09
4.35177e-08
3.13143e-09
5.48557e-08
1.66964e-07
7.35285e-08
2.72716e-07
5.92634e-08
2.63935e-07
4.7472e-08
2.23054e-07
4.78269e-08
1.91421e-07
5.22572e-08
1.74159e-07
6.55135e-08
1.67797e-07
9.20356e-08
1.425e-07
1.3843e-07
1.31456e-07
-2.32372e-08
7.36541e-08
-6.89922e-09
4.59549e-08
9.77716e-08
1.31704e-07
1.86966e-07
1.73134e-07
2.22506e-07
1.66916e-07
2.29272e-07
1.51509e-07
2.06828e-07
1.47697e-07
1.77971e-07
1.68378e-07
1.47116e-07
2.00461e-07
1.10417e-07
1.01553e-07
2.37338e-07
1.41061e-07
7.38107e-08
-1.41218e-07
1.21517e-07
1.17315e-07
1.83167e-07
1.25316e-07
2.3811e-07
1.67563e-07
2.44626e-07
2.22756e-07
2.27263e-07
2.2419e-07
2.13125e-07
1.9211e-07
2.58294e-07
1.01947e-07
3.08205e-07
6.05066e-08
6.01704e-08
3.49588e-07
2.63615e-07
2.89636e-08
-2.18768e-07
3.18087e-07
6.28435e-08
3.50558e-07
9.28452e-08
3.89093e-07
1.29028e-07
4.2569e-07
1.86159e-07
4.4604e-07
2.0384e-07
4.52187e-07
1.85962e-07
4.46641e-07
1.07494e-07
4.55059e-07
5.20879e-08
3.9644e-08
4.75586e-07
3.71415e-07
-4.64076e-09
-3.37811e-07
4.22613e-07
1.16451e-08
4.95169e-07
2.02895e-08
5.81575e-07
4.26214e-08
6.72968e-07
9.4765e-08
7.48111e-07
1.28698e-07
7.73145e-07
1.60928e-07
7.33612e-07
1.47027e-07
6.93372e-07
9.23289e-08
5.77882e-08
6.75227e-07
4.66976e-07
-3.39758e-08
-4.37641e-07
5.02399e-07
-2.3778e-08
5.32813e-07
-1.0125e-08
5.70704e-07
4.73094e-09
6.3393e-07
3.15388e-08
6.90132e-07
7.2496e-08
7.37006e-07
1.14054e-07
7.61152e-07
1.22881e-07
7.47215e-07
1.06265e-07
8.25233e-08
7.22481e-07
4.60237e-07
-5.87203e-08
-4.35492e-07
4.94014e-07
-5.75548e-08
5.21078e-07
-3.71899e-08
5.38023e-07
-1.22134e-08
5.69214e-07
3.47166e-10
6.06079e-07
3.56304e-08
6.49826e-07
7.0307e-08
6.81508e-07
9.11995e-08
6.90691e-07
9.7081e-08
9.51077e-08
6.78107e-07
3.56505e-07
-7.98528e-08
-3.35373e-07
3.98067e-07
-9.91166e-08
4.35994e-07
-7.51176e-08
4.79331e-07
-5.55503e-08
5.15664e-07
-3.59856e-08
5.58114e-07
-6.81913e-09
5.89143e-07
3.92775e-08
6.0637e-07
7.39725e-08
6.07473e-07
9.5979e-08
1.01603e-07
6.00978e-07
1.83914e-07
-9.95674e-08
-1.642e-07
2.38863e-07
-1.54066e-07
2.7616e-07
-1.12415e-07
3.38494e-07
-1.17885e-07
4.11191e-07
-1.08683e-07
4.76812e-07
-7.24394e-08
5.03397e-07
1.26929e-08
5.14241e-07
6.31286e-08
5.14367e-07
9.58528e-08
1.10147e-07
5.05823e-07
2.1978e-07
-1.58501e-07
-1.60847e-07
2.63427e-07
-1.97712e-07
3.42697e-07
-1.91685e-07
3.92159e-07
-1.67346e-07
4.19313e-07
-1.35837e-07
4.27269e-07
-8.03957e-08
4.46453e-07
-6.49143e-09
4.76285e-07
3.32973e-08
4.99992e-07
7.21465e-08
9.30392e-08
5.17099e-07
3.77429e-07
-2.88616e-07
-2.47314e-07
4.88937e-07
-3.09221e-07
5.45714e-07
-2.48461e-07
5.36682e-07
-1.58313e-07
5.21106e-07
-1.2026e-07
5.28381e-07
-8.76704e-08
5.59611e-07
-3.77221e-08
5.75272e-07
1.76364e-08
5.68973e-07
7.84459e-08
8.47267e-08
5.77285e-07
5.28967e-07
-3.91843e-07
-4.2574e-07
5.77551e-07
-3.57805e-07
6.27727e-07
-2.98637e-07
6.60439e-07
-1.91026e-07
6.94733e-07
-1.54554e-07
7.35266e-07
-1.28204e-07
7.676e-07
-7.00563e-08
7.66766e-07
1.8471e-08
7.56804e-07
8.84071e-08
9.78642e-08
7.43667e-07
5.68886e-07
-4.89299e-07
-4.7143e-07
6.52422e-07
-4.41341e-07
6.79341e-07
-3.25556e-07
7.19405e-07
-2.31089e-07
8.08e-07
-2.43148e-07
9.13094e-07
-2.33297e-07
9.97187e-07
-1.5415e-07
9.68807e-07
4.68509e-08
8.67552e-07
1.89662e-07
1.88003e-07
7.77413e-07
4.02473e-07
-5.03448e-07
-3.88325e-07
3.9986e-07
-4.38729e-07
4.56631e-07
-3.82328e-07
5.76281e-07
-3.50739e-07
6.63268e-07
-3.30135e-07
7.21513e-07
-2.91542e-07
7.61364e-07
-1.94001e-07
7.70354e-07
3.78616e-08
7.50523e-07
2.09493e-07
2.31707e-07
7.06819e-07
-1.66128e-07
-4.68518e-07
1.31199e-07
-1.5347e-07
-4.51385e-07
-1.05453e-07
-4.30345e-07
-4.37881e-08
-4.12404e-07
6.11564e-08
-4.3508e-07
1.55471e-07
-3.85858e-07
2.3865e-07
-2.7718e-07
3.84213e-07
-1.07702e-07
5.63335e-07
3.03709e-08
1.11509e-07
6.83532e-07
-3.49235e-07
-4.74176e-07
3.54892e-07
-3.27207e-07
-4.73412e-07
-2.88204e-07
-4.69348e-07
-2.34584e-07
-4.66024e-07
-1.87711e-07
-4.81952e-07
-1.20589e-07
-4.52981e-07
-6.52177e-08
-3.32551e-07
1.97113e-08
-1.92633e-07
1.49442e-07
-9.93602e-08
-2.16721e-08
2.82623e-07
-4.07233e-07
-4.95612e-07
4.28668e-07
-3.91407e-07
-4.89237e-07
-3.67224e-07
-4.93532e-07
-3.3573e-07
-4.97518e-07
-3.26497e-07
-4.91185e-07
-3.35606e-07
-4.43873e-07
-3.45031e-07
-3.23125e-07
-3.5456e-07
-1.83103e-07
-3.65431e-07
-8.84893e-08
-1.92311e-09
-3.85179e-07
-4.16432e-07
-5.35784e-07
4.56604e-07
-4.16401e-07
-4.8927e-07
-4.24105e-07
-4.85829e-07
-4.4362e-07
-4.78003e-07
-4.988e-07
-4.36006e-07
-5.86845e-07
-3.55829e-07
-6.89305e-07
-2.20665e-07
-7.86418e-07
-8.599e-08
-8.66927e-07
-7.98195e-09
5.17039e-08
-9.20554e-07
-3.90627e-07
-6.40837e-07
4.9568e-07
-3.95256e-07
-4.84641e-07
-4.46872e-07
-4.34213e-07
-4.90659e-07
-4.34215e-07
-5.58168e-07
-3.68496e-07
-6.58736e-07
-2.55261e-07
-7.64175e-07
-1.15224e-07
-8.40416e-07
-9.74774e-09
-8.95592e-07
4.71951e-08
1.03034e-07
-9.46922e-07
-4.61524e-07
-7.46172e-07
5.66858e-07
-4.0782e-07
-5.38345e-07
-4.71255e-07
-3.70778e-07
-5.56149e-07
-3.49321e-07
-5.78752e-07
-3.45893e-07
-6.12565e-07
-2.21449e-07
-6.82756e-07
-4.50341e-08
-7.50333e-07
5.78295e-08
-8.34974e-07
1.31836e-07
1.68178e-07
-9.00118e-07
-5.56661e-07
-7.80349e-07
5.90837e-07
-4.82447e-07
-6.12557e-07
-5.09912e-07
-3.43313e-07
-6.05494e-07
-2.53739e-07
-6.98495e-07
-2.52891e-07
-7.40992e-07
-1.78952e-07
-7.70432e-07
-1.55944e-08
-8.06135e-07
9.35332e-08
-8.30792e-07
1.56493e-07
1.79128e-07
-8.41742e-07
-5.62614e-07
-7.78803e-07
5.61069e-07
-5.40959e-07
-6.34213e-07
-5.44094e-07
-3.40178e-07
-6.20119e-07
-1.77713e-07
-7.34269e-07
-1.38741e-07
-7.935e-07
-1.1972e-07
-8.12787e-07
3.69245e-09
-8.32359e-07
1.13105e-07
-8.42664e-07
1.66797e-07
1.85889e-07
-8.49425e-07
-5.53809e-07
-7.7811e-07
5.53116e-07
-5.29262e-07
-6.58761e-07
-5.13961e-07
-3.55479e-07
-5.76698e-07
-1.14977e-07
-6.56176e-07
-5.9265e-08
-7.4376e-07
-3.21357e-08
-7.98086e-07
5.8018e-08
-8.21389e-07
1.36407e-07
-8.21269e-07
1.66677e-07
1.77879e-07
-8.1326e-07
-6.28233e-07
-7.48398e-07
5.98521e-07
-6.06573e-07
-6.8042e-07
-5.41347e-07
-4.20705e-07
-5.48936e-07
-1.07388e-07
-5.87227e-07
-2.0974e-08
-6.34527e-07
1.51649e-08
-6.63329e-07
8.68197e-08
-6.84906e-07
1.57985e-07
-7.01395e-07
1.83166e-07
1.72608e-07
-6.96123e-07
-7.82499e-07
-7.2477e-07
7.5887e-07
-7.51554e-07
-7.11366e-07
-6.2819e-07
-5.44069e-07
-5.19134e-07
-2.16444e-07
-4.9495e-07
-4.51581e-08
-5.16468e-07
3.66829e-08
-5.22129e-07
9.24801e-08
-4.93649e-07
1.29506e-07
-4.56067e-07
1.45584e-07
1.48524e-07
-4.31982e-07
-8.88986e-07
-6.87569e-07
8.51786e-07
-8.59527e-07
-7.40824e-07
-7.00036e-07
-7.03561e-07
-4.68898e-07
-4.47582e-07
-3.87486e-07
-1.26571e-07
-3.80211e-07
2.94076e-08
-3.61362e-07
7.36317e-08
-3.19199e-07
8.73425e-08
-2.81081e-07
1.07465e-07
8.36479e-08
-2.16205e-07
-8.56381e-07
-5.20268e-07
6.8908e-07
-8.67446e-07
-7.29759e-07
-7.5885e-07
-8.12157e-07
-4.55832e-07
-7.50599e-07
-1.53455e-07
-4.28947e-07
-1.24238e-07
1.90157e-10
-1.42505e-07
9.18991e-08
-1.53587e-07
9.84248e-08
-1.60337e-07
1.14215e-07
1.19283e-07
-1.95971e-07
-5.41405e-07
-2.73359e-07
2.94495e-07
-7.39699e-07
-5.31467e-07
-7.42777e-07
-8.09079e-07
-5.8388e-07
-9.09496e-07
-2.10986e-07
-8.01842e-07
3.35889e-08
-2.44384e-07
-1.78908e-08
1.43378e-07
-4.95157e-08
1.3005e-07
-9.82571e-08
1.62956e-07
1.70326e-07
-1.49299e-07
-5.18369e-08
-1.18867e-07
-1.02655e-07
-3.52716e-07
-2.30587e-07
-5.6484e-07
-5.96954e-07
-4.75003e-07
-9.99332e-07
-2.67584e-07
-1.00926e-06
7.28529e-08
-5.84821e-07
1.44423e-09
2.14787e-07
-3.6011e-08
1.67505e-07
-5.26771e-08
1.79622e-07
1.75025e-07
-5.73772e-08
2.62398e-07
-1.24499e-07
-2.56766e-07
1.19229e-07
-8.74189e-08
-1.78599e-07
-2.99125e-07
-2.51848e-07
-9.26084e-07
-2.11473e-07
-1.04964e-06
-1.10323e-08
-7.85262e-07
4.24335e-09
1.99511e-07
-3.33367e-09
1.75082e-07
9.83933e-09
1.66449e-07
1.8709e-07
-2.22561e-09
2.10183e-07
-1.11179e-07
-2.23503e-07
1.22153e-07
6.11631e-10
-3.6497e-08
-1.40475e-07
-1.56449e-07
-8.06132e-07
-1.62446e-07
-1.04364e-06
-2.63939e-08
-9.21314e-07
1.02417e-10
1.73015e-07
5.96592e-09
1.69218e-07
2.14971e-08
1.50918e-07
1.81314e-07
2.72737e-08
1.65036e-07
-3.20675e-08
-2.44148e-07
6.41726e-08
1.01476e-07
-9.34954e-08
1.71931e-08
-2.43662e-07
-6.55965e-07
-1.78405e-07
-1.10889e-06
-1.09762e-07
-9.89957e-07
-1.53182e-07
2.16435e-07
-1.07663e-07
1.23699e-07
-9.56899e-08
1.38945e-07
1.36803e-07
-5.11793e-08
1.29438e-07
1.41789e-08
-1.75685e-07
1.69195e-07
6.17208e-08
4.57243e-08
1.40663e-07
-1.47341e-09
-6.08768e-07
-5.24383e-08
-1.05793e-06
4.67271e-09
-1.04707e-06
4.29654e-08
1.78141e-07
3.43323e-09
1.6323e-07
-8.51769e-09
1.50895e-07
1.0728e-07
2.10048e-08
8.71405e-08
4.92291e-08
-1.2219e-07
5.2213e-08
9.66489e-08
-6.87296e-08
2.61606e-07
-5.00858e-08
-6.27412e-07
-4.93752e-08
-1.05864e-06
-4.12068e-08
-1.05524e-06
3.07154e-07
-1.70219e-07
1.8593e-07
2.84454e-07
1.11167e-07
2.25658e-07
1.25017e-07
9.34302e-08
6.30539e-09
1.75874e-07
-1.32951e-07
-1.53691e-07
2.56645e-07
-1.72359e-07
2.80273e-07
-2.91154e-08
-7.70656e-07
-6.77964e-08
-1.01996e-06
-1.12652e-07
-1.01038e-06
1.57721e-07
-4.40594e-07
4.40607e-08
3.98114e-07
-1.66261e-09
2.71381e-07
1.391e-07
-1.57463e-08
-1.05978e-07
3.34024e-07
-5.21719e-08
-1.7494e-07
3.2561e-07
-1.14386e-07
2.19719e-07
-8.29633e-08
-8.02079e-07
-6.8225e-08
-1.0347e-06
-6.58324e-08
-1.01277e-06
1.01028e-07
-6.07454e-07
-4.60497e-08
5.45189e-07
-7.33341e-08
2.98664e-07
1.48915e-07
-8.31491e-08
-8.0063e-08
4.24539e-07
-1.04515e-08
-1.10598e-07
3.56149e-07
-9.21218e-08
2.01243e-07
-1.46399e-08
-8.7956e-07
-3.03655e-08
-1.01897e-06
-3.50849e-08
-1.00805e-06
3.26532e-08
-6.75192e-07
-9.17758e-08
6.69617e-07
-8.62837e-08
2.93172e-07
1.56906e-07
-9.42745e-08
5.53186e-08
3.90357e-07
-2.11358e-08
7.04121e-08
3.41056e-07
-2.4873e-08
2.96528e-07
-4.95001e-09
-8.99482e-07
-8.45329e-09
-1.01547e-06
-1.05823e-08
-1.00593e-06
6.70324e-08
-7.52807e-07
1.23186e-07
6.13462e-07
3.17175e-09
4.13186e-07
2.05458e-07
-4.53801e-08
2.5675e-08
3.1687e-07
4.78123e-08
6.74883e-08
2.99242e-07
-3.20694e-08
3.96085e-07
1.65205e-08
-9.48071e-07
8.13945e-09
-1.00709e-06
8.10061e-09
-1.00589e-06
7.73872e-08
-8.22095e-07
2.09026e-07
4.81825e-07
1.87609e-07
4.34604e-07
2.60735e-07
1.32332e-07
-4.37307e-09
2.40666e-07
8.0578e-08
5.33964e-08
2.41472e-07
-8.31212e-09
4.57794e-07
4.67822e-09
-9.61061e-07
-1.23546e-08
-9.90055e-07
-3.64333e-08
-9.81808e-07
-3.51475e-08
-8.23381e-07
6.88315e-08
3.77845e-07
1.95701e-07
3.07735e-07
2.22977e-07
2.33459e-07
-3.31768e-08
2.00617e-07
7.3227e-08
-3.31095e-08
2.41404e-07
-1.01448e-08
4.3483e-07
8.17117e-09
-9.79377e-07
-1.18501e-08
-9.70033e-07
-2.62561e-08
-9.67402e-07
-2.75079e-08
-8.2213e-07
9.93704e-08
2.50965e-07
3.08066e-07
9.90386e-08
-1.73956e-07
7.05e-07
-1.99787e-07
2.91686e-07
1.08719e-07
-2.25957e-07
2.67571e-07
1.34038e-08
1.95476e-07
1.14584e-08
-9.77433e-07
-8.74706e-09
-9.49827e-07
-3.02904e-08
-9.45859e-07
-2.13658e-08
-8.31053e-07
7.55297e-08
1.5407e-07
1.58666e-07
1.59031e-08
-9.53306e-08
8.00403e-08
4.13832e-09
2.57227e-07
3.03176e-08
1.67257e-08
2.54989e-07
5.70943e-08
1.55103e-07
2.26744e-08
-9.4301e-07
-8.66708e-10
-9.26286e-07
-2.32949e-08
-9.23431e-07
-6.35626e-09
-8.47992e-07
8.19155e-08
6.57981e-08
1.4032e-07
-4.25e-08
5.63691e-08
-1.13801e-08
1.6478e-07
1.67219e-07
-7.47732e-08
3.87011e-08
3.81066e-07
5.78123e-08
1.35985e-07
2.80668e-08
-9.13263e-07
3.40337e-09
-9.01622e-07
-1.43874e-08
-9.0564e-07
-6.49914e-09
-8.5588e-07
2.70483e-08
3.2251e-08
-1.06597e-08
-4.79285e-09
9.27538e-08
-4.7038e-08
2.2333e-08
2.54823e-07
-1.09935e-07
-1.79308e-07
5.82699e-07
1.91863e-08
-6.25058e-08
1.08336e-08
-9.04922e-07
-8.29126e-09
-8.82498e-07
-3.17279e-08
-8.82204e-07
-2.52141e-08
-8.62394e-07
-4.80648e-08
5.51025e-08
-8.21023e-08
2.92425e-08
-3.4691e-09
1.41134e-08
-4.83436e-07
4.38897e-07
2.99355e-07
-3.99165e-07
4.98424e-07
2.44227e-08
-4.86102e-07
3.89435e-09
-8.84398e-07
-1.55079e-08
-8.63095e-07
-3.63082e-08
-8.61403e-07
-2.73446e-08
-8.71358e-07
2.17247e-07
-1.89489e-07
2.63539e-07
-1.70488e-08
-1.00001e-07
3.60071e-07
-2.73266e-07
4.02424e-07
3.0973e-07
-1.12127e-07
3.37279e-07
3.88131e-08
-6.37053e-07
1.73489e-08
-8.62927e-07
8.39371e-10
-8.46586e-07
-2.03852e-08
-8.40178e-07
-1.95042e-08
-8.72238e-07
3.91646e-07
-6.00643e-07
5.28008e-07
-1.5341e-07
-6.26591e-08
4.90668e-07
-9.41407e-08
3.1228e-07
1.84284e-07
7.15866e-08
1.71534e-07
6.16623e-08
-6.27144e-07
3.83695e-08
-8.39636e-07
1.13549e-08
-8.19571e-07
-5.39517e-09
-8.23428e-07
-3.37322e-08
-8.43897e-07
1.48059e-09
-6.35858e-07
-4.17554e-08
-1.10177e-07
2.0108e-08
-1.24517e-07
-1.37781e-08
2.47855e-07
7.82066e-08
6.99875e-08
8.77729e-08
5.6234e-08
-6.1338e-07
3.21356e-08
-8.15542e-07
6.2383e-09
-7.93674e-07
-1.50077e-08
-8.02183e-07
-4.41296e-08
-8.14767e-07
-6.82053e-08
-6.1179e-07
-1.17824e-07
-6.05576e-08
5.74306e-08
-1.55144e-07
3.6408e-08
2.25124e-07
-1.36838e-08
4.84591e-08
7.57307e-08
2.09562e-08
-5.85867e-07
-2.25996e-09
-7.92323e-07
-2.24514e-08
-7.73483e-07
-5.071e-08
-7.73924e-07
-7.13141e-08
-7.94165e-07
-9.02659e-08
-5.92834e-07
-1.27403e-07
-2.3417e-08
9.45684e-08
-1.64542e-07
6.45429e-08
2.34483e-07
-7.38984e-08
5.74536e-08
8.27977e-08
3.21091e-08
-5.60533e-07
7.22976e-09
-7.67444e-07
-1.46031e-08
-7.5165e-07
-4.24708e-08
-7.46056e-07
-6.66746e-08
-7.6997e-07
-7.87851e-08
-5.80714e-07
-1.04417e-07
2.21421e-09
1.14545e-07
-1.24392e-07
9.95429e-08
2.43691e-07
-1.08751e-07
8.08881e-08
1.01469e-07
6.04227e-08
-5.40059e-07
3.48705e-08
-7.41886e-07
6.49045e-09
-7.2327e-07
-1.96625e-08
-7.19903e-07
-4.55684e-08
-7.44067e-07
-6.21164e-08
-5.64164e-07
-7.84293e-08
1.85322e-08
1.35905e-07
-9.97886e-08
1.00234e-07
2.40536e-07
-9.70797e-08
8.19598e-08
1.19719e-07
7.90643e-08
-5.37174e-07
5.15018e-08
-7.1433e-07
2.00298e-08
-6.91798e-07
-4.38428e-09
-6.95489e-07
-3.11759e-08
-7.17274e-07
-5.51054e-08
-5.40236e-07
-7.57206e-08
3.91522e-08
1.44004e-07
-8.38208e-08
9.40256e-08
2.54334e-07
-1.07821e-07
7.85673e-08
1.35184e-07
6.57203e-08
-5.24317e-07
3.65977e-08
-6.85204e-07
8.90387e-09
-6.64104e-07
-1.7651e-08
-6.68934e-07
-4.81722e-08
-6.86751e-07
-7.14378e-08
-5.1697e-07
-1.01712e-07
6.94302e-08
1.33945e-07
-9.16497e-08
8.5981e-08
2.48707e-07
-8.03589e-08
7.81422e-08
1.43022e-07
6.26445e-08
-5.08829e-07
3.35422e-08
-6.56105e-07
6.65526e-09
-6.37217e-07
-2.07201e-08
-6.41559e-07
-4.97253e-08
-6.57744e-07
-5.64809e-08
-5.10221e-07
-4.07076e-08
5.36551e-08
9.41918e-08
-9.52792e-10
4.55193e-08
2.34026e-07
-3.08413e-08
7.42019e-08
1.14332e-07
6.02329e-08
-4.9485e-07
2.94855e-08
-6.25358e-07
6.97648e-09
-6.14708e-07
-2.25787e-08
-6.12004e-07
-5.39742e-08
-6.26347e-07
-7.09987e-08
-4.93194e-07
-3.15105e-09
-1.41941e-08
6.19525e-08
2.90842e-08
-1.97547e-08
1.83076e-07
7.07006e-08
6.23612e-08
3.21825e-08
5.85519e-08
-4.9105e-07
2.73971e-08
-5.94205e-07
1.73307e-09
-5.89044e-07
-2.69946e-08
-5.83276e-07
-6.17403e-08
-5.916e-07
-4.79945e-08
-5.06937e-07
6.61867e-08
-1.28378e-07
1.24722e-08
1.15662e-07
-1.14452e-07
1.19006e-07
1.78521e-07
2.71363e-08
-1.09374e-07
6.18661e-08
-5.25779e-07
3.0516e-08
-5.62855e-07
-4.77469e-09
-5.53753e-07
-3.31479e-08
-5.54903e-07
-6.65412e-08
-5.58207e-07
-3.47235e-08
-5.38756e-07
4.00704e-08
-2.03175e-07
-2.95512e-08
8.20873e-08
-1.13325e-08
4.11328e-08
8.92044e-08
7.27686e-08
-1.93459e-07
6.83929e-08
-5.2139e-07
2.9314e-08
-5.23776e-07
-7.84712e-09
-5.16592e-07
-3.25337e-08
-5.30216e-07
-6.42151e-08
-5.26525e-07
-7.4049e-08
-5.28922e-07
-5.85384e-08
-2.18683e-07
-5.32002e-08
-3.48846e-08
8.21211e-08
-1.12015e-08
-2.97807e-08
9.32031e-08
-2.04604e-07
4.37446e-08
-4.71932e-07
5.54674e-09
-4.85578e-07
-2.22711e-08
-4.88774e-07
-6.74761e-08
-4.85011e-07
-1.02055e-07
-4.91946e-07
-1.44635e-07
-4.86343e-07
-1.22815e-07
-2.40504e-07
-9.32537e-08
-8.27619e-08
1.32304e-07
-5.38123e-08
-8.96919e-08
1.19963e-07
-1.92238e-07
8.58724e-08
-4.37845e-07
4.60344e-08
-4.4574e-07
9.8969e-09
-4.52637e-07
-2.71334e-08
-4.47981e-07
-6.869e-08
-4.5039e-07
-1.1957e-07
-4.35463e-07
-1.20246e-07
-2.39825e-07
-1.239e-07
-8.95993e-08
1.09074e-07
-8.99305e-08
-7.29539e-08
1.31883e-07
-2.15018e-07
7.94693e-08
-3.85426e-07
3.82243e-08
-4.04495e-07
-2.62146e-09
-4.11791e-07
-4.21564e-08
-4.08446e-07
-9.60435e-08
-3.96503e-07
-1.50721e-07
-3.80785e-07
-1.3274e-07
-2.57807e-07
-1.626e-07
-9.40411e-08
8.41626e-08
-1.30522e-07
-4.3571e-08
1.49454e-07
-2.8033e-07
9.96511e-08
-3.35621e-07
5.16183e-08
-3.56462e-07
4.18347e-09
-3.64357e-07
-4.09944e-08
-3.63268e-07
-7.90371e-08
-3.5846e-07
-1.15895e-07
-3.43928e-07
-5.65662e-08
-3.17134e-07
-1.627e-07
-5.64623e-08
1.44861e-07
-1.42369e-07
-1.33011e-07
1.45615e-07
-2.81096e-07
1.05986e-07
-2.95991e-07
6.41447e-08
-3.14621e-07
1.62919e-08
-3.16504e-07
-3.38144e-08
-3.13162e-07
-8.40127e-08
-3.08262e-07
-1.31048e-07
-2.96892e-07
-1.66278e-07
-2.81905e-07
-1.58261e-07
-1.70715e-07
2.06552e-07
-2.32278e-07
-1.16642e-07
1.38817e-07
-2.1336e-07
8.95222e-08
-2.46696e-07
3.01547e-08
-2.55254e-07
-2.48301e-08
-2.61519e-07
-7.28299e-08
-2.65162e-07
-1.14816e-07
-2.66276e-07
-1.55072e-07
-2.56636e-07
-2.16285e-07
-2.20693e-07
-2.24162e-07
-1.50383e-07
1.24023e-07
-2.28086e-07