/*--------------------------------*- C++ -*----------------------------------*\
  =========                 |
  \\      /  F ield         | OpenFOAM: The Open Source CFD Toolbox
   \\    /   O peration     | Website:  https://openfoam.org
    \\  /    A nd           | Version:  8
     \\/     M anipulation  |
\*---------------------------------------------------------------------------*/
FoamFile
{
    version     2.0;
    format      ascii;
    class       volVectorField;
    location    "6.1";
    object      U;
}
// * * * * * * * * * * * * * * * * * * * * * * * * * * * * * * * * * * * * * //

dimensions      [0 1 -1 0 0 0 0];

internalField   nonuniform List<vector> 
9150
(
(0.00485703 -0.0784141 0)
(0.0131308 -0.0973787 0)
(0.0108326 -0.104583 0)
(0.008962 -0.107712 0)
(0.00267381 -0.109355 0)
(-0.00252343 -0.109315 0)
(-0.00904463 -0.1076 0)
(-0.0109115 -0.104523 0)
(-0.0131354 -0.0973814 0)
(-0.00484734 -0.0784139 0)
(0.005867 -0.0919767 0)
(0.00856138 -0.10049 0)
(0.00739189 -0.102273 0)
(0.00426881 -0.104791 0)
(0.00142083 -0.105654 0)
(-0.00225064 -0.105509 0)
(-0.00425733 -0.104754 0)
(-0.00741851 -0.102274 0)
(-0.00855909 -0.10051 0)
(-0.00587083 -0.0919875 0)
(0.00171454 -0.0954448 0)
(0.00456309 -0.0989646 0)
(0.00375245 -0.101045 0)
(0.00342551 -0.10171 0)
(0.00114535 -0.102357 0)
(-0.000627369 -0.102509 0)
(-0.00333416 -0.10168 0)
(-0.00369887 -0.101119 0)
(-0.00455644 -0.0989723 0)
(-0.0017177 -0.0954548 0)
(0.00172618 -0.0984019 0)
(0.00245855 -0.100389 0)
(0.00221274 -0.100198 0)
(0.00126103 -0.100921 0)
(0.000525046 -0.100892 0)
(-0.000561053 -0.100853 0)
(-0.00129026 -0.100845 0)
(-0.00221824 -0.100155 0)
(-0.00244799 -0.100394 0)
(-0.00172652 -0.0984063 0)
(0.00017895 -0.0994849 0)
(0.000719567 -0.0995803 0)
(0.000469713 -0.10003 0)
(0.000686838 -0.0998813 0)
(0.000110134 -0.100121 0)
(-0.000206728 -0.100093 0)
(-0.000673752 -0.099868 0)
(-0.000463516 -0.10007 0)
(-0.000714919 -0.0995854 0)
(-0.000178757 -0.0994848 0)
(0.0751383 -0.194543 2.42596e-26)
(0.0494249 -0.184635 0)
(0.0302855 -0.176314 0)
(0.0157031 -0.175891 0)
(0.00471247 -0.176139 0)
(-0.00461624 -0.175342 0)
(-0.0155126 -0.173702 0)
(-0.0300063 -0.175702 0)
(-0.0493392 -0.184249 0)
(-0.0749963 -0.194445 -2.44658e-26)
(0.0583756 -0.146567 6.3866e-27)
(0.0486276 -0.146566 0)
(0.0287868 -0.156586 0)
(0.0212495 -0.15634 0)
(0.00547291 -0.155095 0)
(-0.00429085 -0.155107 0)
(-0.0205221 -0.15661 0)
(-0.0283773 -0.156144 0)
(-0.0485359 -0.146492 0)
(-0.0583826 -0.146571 -6.30597e-27)
(0.0473799 -0.121319 2.89797e-27)
(0.0427614 -0.131104 0)
(0.0289262 -0.133471 0)
(0.0160828 -0.138601 0)
(0.0044218 -0.140495 0)
(-0.0075595 -0.140153 0)
(-0.017995 -0.136724 0)
(-0.0299022 -0.133489 0)
(-0.0431481 -0.131275 0)
(-0.0475067 -0.12138 -2.70704e-27)
(0.0370474 -0.0993127 5.64583e-27)
(0.0393484 -0.110158 0)
(0.0230082 -0.120478 0)
(0.0179098 -0.123915 0)
(0.00457895 -0.12514 0)
(-0.00454713 -0.125523 0)
(-0.0172675 -0.125873 0)
(-0.0225027 -0.12075 0)
(-0.0391957 -0.110167 0)
(-0.0370006 -0.0994052 -5.49252e-27)
(0.0243426 -0.0816854 -1.49185e-26)
(0.0278553 -0.101329 -1.75092e-26)
(0.0197384 -0.108384 -4.25308e-27)
(0.0106448 -0.114212 -3.91642e-27)
(0.00528341 -0.117202 -1.66903e-28)
(-0.00381947 -0.117231 -1.85403e-28)
(-0.0104965 -0.114128 -3.84112e-27)
(-0.0197501 -0.108363 -4.25102e-27)
(-0.0277909 -0.101312 -1.75465e-26)
(-0.0243532 -0.0817135 -1.49263e-26)
(0.0193007 -0.140258 0)
(0.0110832 -0.204406 0)
(0.0215156 -0.216605 0)
(0.0084663 -0.223057 0)
(0.0077012 -0.22499 0)
(-0.00572668 -0.225576 0)
(-0.00903871 -0.222785 0)
(-0.0216851 -0.216416 0)
(-0.0108162 -0.205192 0)
(-0.0193732 -0.141899 0)
(0.0161637 -0.166742 0)
(0.00138952 -0.199333 0)
(0.0148962 -0.208652 0)
(0.00205342 -0.21344 0)
(0.00408748 -0.214777 0)
(-0.00626146 -0.215212 0)
(-0.00296147 -0.213647 0)
(-0.0145227 -0.209541 0)
(-0.00120565 -0.200313 0)
(-0.0156783 -0.167686 0)
(0.0145094 -0.172049 0)
(-0.00422321 -0.203744 0)
(0.0107017 -0.208612 0)
(-0.000311071 -0.209067 0)
(0.00421704 -0.209652 0)
(-0.00201852 -0.210406 0)
(0.00148931 -0.210738 0)
(-0.0100966 -0.209478 0)
(0.0044341 -0.204255 0)
(-0.0144233 -0.172748 0)
(0.0187405 -0.195108 0)
(-0.00695192 -0.204439 0)
(0.00959497 -0.210222 0)
(-0.000369854 -0.206687 0)
(0.000585614 -0.206846 0)
(-0.00150728 -0.206811 0)
(0.000453888 -0.205841 0)
(-0.00923594 -0.210819 0)
(0.00696366 -0.204888 0)
(-0.0184238 -0.195404 0)
(0.0358671 -0.216993 0)
(0.0100169 -0.20376 0)
(0.016197 -0.202174 0)
(0.012604 -0.195014 0)
(0.00327844 -0.19177 0)
(-0.000783552 -0.192441 0)
(-0.0113033 -0.196587 0)
(-0.0157933 -0.202141 0)
(-0.00980494 -0.203563 0)
(-0.0358772 -0.217198 0)
(0.0384878 0.00575365 0)
(0.0323808 0.00406363 0)
(0.0278689 0.00627175 0)
(0.0205543 0.0080634 0)
(0.0146232 0.00186798 0)
(0.00960005 0.00383151 0)
(-0.000175256 0.00874745 0)
(-0.00541405 0.00383002 0)
(-0.00646973 -0.00255165 0)
(-0.00461822 -0.00421092 0)
(0.0458881 0.0185563 0)
(0.0402976 0.017679 0)
(0.0343385 0.0158908 0)
(0.0296224 0.0186803 0)
(0.0245714 0.018402 0)
(0.0160832 0.0243045 0)
(0.00954415 0.0204291 0)
(0.00431502 0.00895672 0)
(0.000480679 0.00196042 0)
(-0.00293227 -0.00153907 0)
(0.0429152 0.0294428 0)
(0.0382295 0.0288615 0)
(0.0330606 0.0266599 0)
(0.0276869 0.0301373 0)
(0.0230212 0.0298742 0)
(0.0172238 0.0346403 0)
(0.0118087 0.0353845 0)
(0.00281272 0.0237946 0)
(-0.00277113 0.0115057 0)
(-0.00747812 0.00775503 0)
(0.0393182 0.0370346 0)
(0.035389 0.0366514 0)
(0.0313366 0.0353562 0)
(0.028106 0.0385465 0)
(0.022754 0.0396323 0)
(0.0157551 0.0430797 0)
(0.00927818 0.0479996 0)
(0.00117251 0.0386276 0)
(-0.00776903 0.023431 0)
(-0.0171429 0.0223834 0)
(0.0403279 0.0476641 0)
(0.0373406 0.0453986 0)
(0.0335777 0.0436153 0)
(0.0288315 0.0460895 0)
(0.0226417 0.0544485 0)
(0.0143202 0.0589951 0)
(0.00827676 0.0626288 0)
(0.00146914 0.056839 0)
(-0.00872155 0.0445386 0)
(-0.0213013 0.0443181 0)
(0.0369097 0.0519142 0)
(0.0319803 0.0494144 0)
(0.0266939 0.0525512 0)
(0.0195291 0.0603857 0)
(0.0135985 0.0675593 0)
(0.011602 0.0697265 0)
(0.00767328 0.0734258 0)
(0.0060676 0.0716817 0)
(0.000356547 0.0652468 0)
(-0.0054647 0.0636831 0)
(0.0339949 0.0637177 0)
(0.0266576 0.0670177 0)
(0.0197896 0.0715386 0)
(0.0141845 0.0707758 0)
(0.00986665 0.0732934 0)
(0.00592177 0.0761913 0)
(0.00484433 0.0763304 0)
(0.00404624 0.0772037 0)
(0.000282434 0.0721311 0)
(-0.00148393 0.0693056 0)
(0.0157533 0.0737811 0)
(0.0114886 0.0725303 0)
(0.00947595 0.0748291 0)
(0.00695164 0.0813581 0)
(0.00206587 0.0829126 0)
(0.000847368 0.0766845 0)
(0.00130207 0.0744928 0)
(0.00161584 0.0782601 0)
(0.000455245 0.0753917 0)
(-0.00241907 0.0740756 0)
(0.00437277 0.0836816 0)
(-0.00100964 0.0842136 0)
(-0.00886259 0.0882827 0)
(-0.0120246 0.0870413 0)
(-0.00710419 0.0823839 0)
(-0.00499885 0.0763846 0)
(-0.00639434 0.0761958 0)
(-0.0115637 0.0807051 0)
(-0.0141578 0.0830701 0)
(-0.0155909 0.0828457 0)
(-0.0209888 0.0972156 0)
(-0.0228047 0.0985967 0)
(-0.0250106 0.0917987 0)
(-0.0209093 0.0742364 0)
(-0.0105661 0.0700155 0)
(-0.00618571 0.0774114 0)
(-0.00646263 0.088183 0)
(-0.0157691 0.0947442 0)
(-0.0203414 0.0781487 0)
(-0.0187475 0.0704221 0)
(-0.0578519 0.09098 0)
(-0.0486779 0.0904753 0)
(-0.0394415 0.0838691 0)
(-0.0300665 0.0594624 0)
(-0.0226628 0.0549625 0)
(-0.0135685 0.0703031 0)
(-0.00628243 0.0873359 0)
(0.00513546 0.105761 0)
(0.0118936 0.0985654 0)
(0.010928 0.0744123 0)
(-0.057357 0.0785063 0)
(-0.0476088 0.0576779 0)
(-0.0335687 0.0550906 0)
(-0.0138846 0.0367998 0)
(-0.00181542 0.0324581 0)
(0.00666353 0.0492435 0)
(0.0201431 0.0565729 0)
(0.0339441 0.0602115 0)
(0.0549683 0.0685642 0)
(0.0714138 0.07438 0)
(-0.0046647 0.0847668 0)
(0.021867 0.0319706 0)
(0.0354073 0.0134382 0)
(0.0534973 0.00606566 0)
(0.0657655 0.0149543 0)
(0.0715053 0.0305271 0)
(0.0749134 0.0334749 0)
(0.0787607 0.0235758 0)
(0.0863663 0.0209544 0)
(0.0963174 0.03245 0)
(0.0646667 0.0234522 0)
(0.0841715 -0.0132532 0)
(0.0968102 -0.0258841 0)
(0.108533 -0.0260821 0)
(0.118242 -0.0147743 0)
(0.124797 0.0221652 0)
(0.125328 0.0465214 0)
(0.121816 0.0406732 0)
(0.118317 0.0162859 0)
(0.120394 0.00935326 0)
(0.116284 0.00327246 0)
(0.115185 -0.0240517 0)
(0.113039 -0.036028 0)
(0.113415 -0.0349997 0)
(0.112143 -0.0210051 0)
(0.109228 0.0220603 0)
(0.111448 0.0435684 0)
(0.111863 0.0412287 0)
(0.107241 0.0227885 0)
(0.1096 0.0149209 0)
(0.151391 0.0198639 0)
(0.144254 -0.00828548 0)
(0.128933 -0.0281221 0)
(0.12379 -0.0279678 0)
(0.113239 -0.0059445 0)
(0.103025 0.0296025 0)
(0.0936115 0.0463102 0)
(0.0852895 0.0451655 0)
(0.0832585 0.0148408 0)
(0.0945636 -0.0112107 0)
(0.167849 0.0221118 0)
(0.167765 0.015993 0)
(0.15448 -0.00221574 0)
(0.132988 -0.000777692 0)
(0.114477 0.0294886 0)
(0.0978385 0.0588992 0)
(0.0755015 0.0759895 0)
(0.0680887 0.0553067 0)
(0.0692913 1.54519e-05 0)
(0.0667274 -0.0148666 0)
(0.15233 0.0149008 0)
(0.145026 0.0300599 0)
(0.106781 0.0274217 0)
(0.0854683 0.0479421 0)
(0.0737351 0.0735164 0)
(0.0438371 0.104724 0)
(0.0339824 0.108062 0)
(0.0237299 0.0508445 0)
(0.0172958 0.00729125 0)
(-0.000891584 0.0168615 0)
(0.103453 0.0472798 0)
(0.0631492 0.109768 0)
(0.03567 0.0845034 0)
(0.0237498 0.0860153 0)
(0.0198814 0.115419 0)
(0.0061762 0.13202 0)
(0.0126026 0.101301 0)
(0.0124645 0.0783491 0)
(0.00737167 0.0331537 0)
(-0.00703408 0.0638563 0)
(0.0387924 0.142492 0)
(0.0200205 0.149345 0)
(0.011202 0.100242 0)
(-0.00301547 0.0897034 0)
(-0.00203062 0.127773 0)
(-0.00365273 0.132809 0)
(-0.00202305 0.102683 0)
(-0.0072627 0.0787288 0)
(-0.0251576 0.0614839 0)
(-0.0390831 0.0902763 0)
(0.0135215 0.170158 0)
(0.0121068 0.156263 0)
(-0.00576216 0.137088 0)
(-0.0262754 0.108027 0)
(-0.0284611 0.119761 0)
(-0.0238955 0.122187 0)
(-0.0299864 0.10462 0)
(-0.0418644 0.0984631 0)
(-0.0595509 0.104512 0)
(-0.0652459 0.1033 0)
(0.00386558 0.196659 0)
(-0.00153314 0.174426 0)
(-0.00827246 0.170138 0)
(-0.0212801 0.129975 0)
(-0.0317955 0.126128 0)
(-0.0362669 0.136192 0)
(-0.0473964 0.139179 0)
(-0.0597478 0.131072 0)
(-0.0703211 0.123975 0)
(-0.0763913 0.111552 0)
(-0.0264491 0.201403 0)
(-0.0310443 0.18274 0)
(-0.0257746 0.180007 0)
(-0.0363758 0.153211 0)
(-0.0450185 0.147338 0)
(-0.057095 0.158675 0)
(-0.0655994 0.155859 0)
(-0.0766157 0.148219 0)
(-0.0846702 0.13759 0)
(-0.0909843 0.128636 0)
(-0.0656664 0.190747 0)
(-0.0650103 0.181162 0)
(-0.0605689 0.179718 0)
(-0.0652795 0.172389 0)
(-0.0702933 0.172414 0)
(-0.0768845 0.175546 0)
(-0.082224 0.169844 0)
(-0.0910547 0.158643 0)
(-0.103356 0.146321 0)
(-0.117696 0.147514 0)
(-0.102112 0.169874 0)
(-0.0966941 0.170423 0)
(-0.0933728 0.172095 0)
(-0.0956456 0.173439 0)
(-0.100278 0.177998 0)
(-0.10667 0.179587 0)
(-0.115179 0.179042 0)
(-0.129608 0.181067 0)
(-0.153919 0.189938 0)
(-0.187524 0.214953 0)
(-0.164754 0.157709 0)
(-0.164559 0.160578 0)
(-0.169187 0.169876 0)
(-0.175008 0.181536 0)
(-0.184297 0.193048 0)
(-0.194952 0.204467 0)
(-0.20772 0.219383 0)
(-0.228938 0.237343 0)
(-0.25647 0.254879 0)
(-0.266811 0.264058 0)
(-0.24261 0.160049 0)
(-0.246223 0.170836 0)
(-0.245129 0.18645 0)
(-0.246954 0.203555 0)
(-0.25087 0.222973 0)
(-0.260152 0.237404 0)
(-0.270932 0.251948 0)
(-0.278507 0.265632 0)
(-0.282856 0.269427 0)
(-0.284263 0.267451 0)
(-0.273257 0.166216 0)
(-0.275006 0.172865 0)
(-0.272841 0.183462 0)
(-0.270762 0.203576 0)
(-0.269421 0.22834 0)
(-0.268919 0.244902 0)
(-0.269586 0.258661 0)
(-0.272342 0.266188 0)
(-0.273052 0.268016 0)
(-0.270687 0.259696 0)
(-0.272209 0.159838 0)
(-0.272372 0.169538 0)
(-0.269603 0.179877 0)
(-0.26647 0.198374 0)
(-0.262945 0.223894 0)
(-0.258686 0.24049 0)
(-0.253974 0.252458 0)
(-0.248813 0.262649 0)
(-0.247963 0.267128 0)
(-0.253263 0.264936 0)
(-0.207039 0.180408 0)
(-0.219661 0.178346 0)
(-0.228423 0.174612 0)
(-0.234256 0.188385 0)
(-0.231488 0.207405 0)
(-0.223945 0.225615 0)
(-0.213812 0.240275 0)
(-0.202151 0.257343 0)
(-0.205687 0.278985 0)
(-0.222554 0.284394 0)
(-0.106011 0.123647 0)
(-0.0833865 0.182763 0)
(-0.100054 0.208371 0)
(-0.116458 0.206023 0)
(-0.126978 0.202766 0)
(-0.130175 0.209234 0)
(-0.127982 0.220713 0)
(-0.124138 0.2487 0)
(-0.135371 0.297546 0)
(-0.141264 0.313796 0)
(-0.0510298 0.0298061 0)
(-0.0381755 0.174372 0)
(-0.0354812 0.235205 0)
(-0.0407506 0.241716 0)
(-0.0479227 0.226626 0)
(-0.0504116 0.222985 0)
(-0.0501675 0.227811 0)
(-0.0406395 0.247156 0)
(-0.0350258 0.292862 0)
(-0.0307965 0.31552 0)
(0.0291645 0.0139705 0)
(0.013911 0.177018 0)
(-0.0143418 0.249096 0)
(-0.0162827 0.253864 0)
(-0.0144218 0.234151 0)
(-0.00859158 0.224034 0)
(-0.00038341 0.222255 0)
(0.0159818 0.229644 0)
(0.040691 0.254656 0)
(0.0627334 0.285572 0)
(0.00869734 0.0590963 0)
(0.0180624 0.22729 0)
(-0.00577931 0.27946 0)
(-0.0115458 0.245507 0)
(-0.00708327 0.216211 0)
(0.000485344 0.199741 0)
(0.0102803 0.188961 0)
(0.0211517 0.188803 0)
(0.0366085 0.201149 0)
(0.0636819 0.224375 0)
(-0.00660292 0.0381171 0)
(0.00911701 0.226156 0)
(0.0419559 0.290715 0)
(0.0284443 0.259058 0)
(0.0248809 0.215848 0)
(0.0225661 0.189629 0)
(0.023831 0.175222 0)
(0.0264286 0.169481 0)
(0.0404171 0.139872 0)
(0.0553543 0.145063 0)
(-0.0125899 0.0434955 0)
(-0.00240205 0.100359 0)
(0.0453618 0.255806 0)
(0.0869879 0.262246 0)
(0.0862583 0.241319 0)
(0.0720571 0.208213 0)
(0.0774965 0.189196 0)
(0.0734992 0.178875 0)
(0.0923939 0.152559 0)
(0.10807 0.142288 0)
(0.0715972 0.0997317 0)
(0.0592305 0.109191 0)
(0.0727846 0.126121 0)
(0.106085 0.180465 0)
(0.123087 0.216031 0)
(0.119757 0.202607 0)
(0.110467 0.159517 0)
(0.108223 0.100216 0)
(0.140334 0.0718691 0)
(0.169499 0.0627128 0)
(0.106237 0.0564849 0)
(0.158799 0.110066 0)
(0.169214 0.127454 0)
(0.182233 0.157954 0)
(0.201605 0.219679 0)
(0.216827 0.228933 0)
(0.218153 0.20741 0)
(0.235053 0.0912077 0)
(0.22914 0.0402176 0)
(0.230437 0.0442732 0)
(0.180481 0.00711549 0)
(0.188085 0.0290119 0)
(0.22372 0.0515951 0)
(0.268053 0.0878324 0)
(0.313543 0.14825 0)
(0.355428 0.176168 0)
(0.381495 0.180186 0)
(0.387303 0.147095 0)
(0.366761 0.0763605 0)
(0.338574 0.0447807 0)
(0.229437 -0.0178817 0)
(0.239628 -0.0105726 0)
(0.256077 -0.00664873 0)
(0.271433 0.00716047 0)
(0.297267 0.0496679 0)
(0.333719 0.0961096 0)
(0.363808 0.137235 0)
(0.374273 0.136288 0)
(0.383776 0.111787 0)
(0.368385 0.0754795 0)
(0.223559 -0.0483901 0)
(0.237372 -0.0372661 0)
(0.256661 -0.0141733 0)
(0.267646 -0.000908802 0)
(0.275584 0.00891833 0)
(0.290973 0.0403206 0)
(0.312773 0.0807345 0)
(0.337371 0.100454 0)
(0.346465 0.0938125 0)
(0.343967 0.0854748 0)
(0.169403 -0.0743023 0)
(0.186308 -0.0852103 0)
(0.207811 -0.0638351 0)
(0.232081 -0.0257325 0)
(0.246932 -0.00584076 0)
(0.266952 0.0298712 0)
(0.289538 0.0646019 0)
(0.303838 0.0873062 0)
(0.305703 0.10127 0)
(0.301037 0.103929 0)
(0.0851163 -0.0770876 0)
(0.105579 -0.110215 0)
(0.126132 -0.0802247 0)
(0.156415 -0.0854999 0)
(0.184059 -0.0763841 0)
(0.220208 -0.0448392 0)
(0.24975 0.0181734 0)
(0.258934 0.0644136 0)
(0.260119 0.0949601 0)
(0.254767 0.103728 0)
(0.0952988 -0.110446 0)
(0.12487 -0.166458 0)
(0.142142 -0.135002 0)
(0.190632 -0.138 0)
(0.210584 -0.123822 0)
(0.20431 -0.0844068 0)
(0.216092 0.0133982 0)
(0.23418 0.0547421 0)
(0.244551 0.0873296 0)
(0.254289 0.107056 0)
(0.150239 -0.210873 0)
(0.225966 -0.250923 0)
(0.253065 -0.222221 0)
(0.280007 -0.164714 0)
(0.267945 -0.130632 0)
(0.25925 -0.0807019 0)
(0.263957 -0.0293436 0)
(0.280767 0.0184025 0)
(0.289153 0.0792888 0)
(0.289004 0.0967365 0)
(0.241601 -0.326828 0)
(0.283364 -0.320922 0)
(0.302932 -0.274139 0)
(0.315766 -0.16262 0)
(0.333011 -0.107088 0)
(0.360375 -0.075242 0)
(0.379412 -0.0265358 0)
(0.380869 0.0337289 0)
(0.377731 0.0726103 0)
(0.375314 0.0731928 0)
(0.266097 -0.459762 0)
(0.302078 -0.427483 0)
(0.335756 -0.330331 0)
(0.350047 -0.21954 0)
(0.374893 -0.2129 0)
(0.422089 -0.20432 0)
(0.471149 -0.139611 0)
(0.509511 -0.016474 0)
(0.472826 0.0877633 0)
(0.407254 0.107987 0)
(0.207752 -0.558698 0)
(0.20254 -0.495354 0)
(0.210579 -0.383372 0)
(0.25723 -0.314847 0)
(0.285254 -0.326552 0)
(0.35641 -0.311265 0)
(0.379511 -0.209757 0)
(0.399732 0.0637378 0)
(0.381706 0.239913 0)
(0.363306 0.243337 0)
(-0.0739051 -0.482581 0)
(-0.0817343 -0.426141 0)
(-0.0676299 -0.398863 0)
(-0.0349697 -0.378895 0)
(-0.0180562 -0.362588 0)
(0.0694135 -0.283694 0)
(0.0950666 -0.156483 0)
(0.16871 0.0399048 0)
(0.238549 0.194639 0)
(0.314046 0.223117 0)
(-0.164857 -0.449646 0)
(-0.168485 -0.45322 0)
(-0.156265 -0.440937 0)
(-0.143978 -0.435201 0)
(-0.112501 -0.459642 0)
(-0.0645392 -0.446358 0)
(-0.0574291 -0.356066 0)
(-0.00893314 -0.221692 0)
(0.0400673 -0.115237 0)
(0.0957615 0.0135346 0)
(-0.2012 -0.482389 0)
(-0.197167 -0.482267 0)
(-0.191827 -0.487039 0)
(-0.186535 -0.490351 0)
(-0.154282 -0.501012 0)
(-0.158435 -0.463584 0)
(-0.177883 -0.349354 0)
(-0.185454 -0.220377 0)
(-0.188722 -0.134394 0)
(-0.199094 -0.0820867 0)
(-0.20911 -0.501449 0)
(-0.202766 -0.486294 0)
(-0.20981 -0.490768 0)
(-0.220244 -0.491009 0)
(-0.227293 -0.460727 0)
(-0.268384 -0.377671 0)
(-0.323963 -0.232875 0)
(-0.367314 -0.0827728 0)
(-0.416053 0.00563055 0)
(-0.476775 0.0886714 0)
(-0.208839 -0.567452 0)
(-0.186854 -0.48474 0)
(-0.208843 -0.461437 0)
(-0.241103 -0.459855 0)
(-0.259428 -0.396359 0)
(-0.299906 -0.306788 0)
(-0.362278 -0.172583 0)
(-0.404859 -0.0591849 0)
(-0.429502 -0.0136971 0)
(-0.464789 0.0401998 0)
(-0.262077 -0.720369 0)
(-0.200918 -0.500774 0)
(-0.214708 -0.407476 0)
(-0.255593 -0.39414 0)
(-0.294884 -0.374866 0)
(-0.293531 -0.25401 0)
(-0.32323 -0.0983094 0)
(-0.370264 0.0248868 0)
(-0.398358 0.0902293 0)
(-0.432165 0.139044 0)
(-0.28965 -0.77067 0)
(-0.256344 -0.578407 0)
(-0.236161 -0.35165 0)
(-0.267686 -0.302951 0)
(-0.339369 -0.298777 0)
(-0.364783 -0.172193 0)
(-0.382813 0.00632738 0)
(-0.40391 0.0934317 0)
(-0.411688 0.160548 0)
(-0.416717 0.182078 0)
(-0.28401 -0.779084 0)
(-0.2737 -0.618808 0)
(-0.258496 -0.317193 0)
(-0.276968 -0.20487 0)
(-0.348511 -0.183251 0)
(-0.391536 -0.153856 0)
(-0.404864 -0.0152662 0)
(-0.422649 0.110985 0)
(-0.423287 0.172087 0)
(-0.424637 0.189553 0)
(-0.283595 -0.783474 0)
(-0.270872 -0.653794 0)
(-0.246499 -0.347134 0)
(-0.259558 -0.144498 0)
(-0.309814 -0.100689 0)
(-0.357597 -0.079437 0)
(-0.381776 0.0316293 0)
(-0.421681 0.12817 0)
(-0.41242 0.175686 0)
(-0.409051 0.190067 0)
(-0.313107 -0.766889 0)
(-0.324668 -0.678558 0)
(-0.274155 -0.393801 0)
(-0.250763 -0.097247 0)
(-0.287504 -0.0265976 0)
(-0.30833 -0.00141854 0)
(-0.321181 0.074986 0)
(-0.33737 0.135813 0)
(-0.351845 0.157867 0)
(-0.352129 0.165426 0)
(-0.397374 -0.727845 0)
(-0.412594 -0.68439 0)
(-0.342289 -0.460407 0)
(-0.251829 -0.136148 0)
(-0.25432 -0.0272383 0)
(-0.255074 0.0308245 0)
(-0.262738 0.0915785 0)
(-0.255084 0.157408 0)
(-0.240038 0.181181 0)
(-0.217565 0.169598 0)
(-0.448199 -0.711979 0)
(-0.452473 -0.718176 0)
(-0.398929 -0.607769 0)
(-0.251103 -0.261142 0)
(-0.205434 -0.0385921 0)
(-0.202831 0.0527857 0)
(-0.18723 0.0887924 0)
(-0.17941 0.099739 0)
(-0.148662 0.116812 0)
(-0.118371 0.0969564 0)
(-0.419571 -0.664593 0)
(-0.445343 -0.752027 0)
(-0.422991 -0.776607 0)
(-0.291401 -0.615691 0)
(-0.115957 -0.181288 0)
(-0.0709748 0.0145525 0)
(-0.0718263 0.0756738 0)
(-0.0785572 0.0900542 0)
(-0.0778214 0.1006 0)
(-0.0908175 0.0964679 0)
(-0.206462 -0.411903 0)
(-0.366115 -0.729796 0)
(-0.390241 -0.85436 0)
(-0.335695 -0.892543 0)
(-0.179765 -0.681622 0)
(-0.00869402 -0.0111455 0)
(0.0212784 0.121378 0)
(-0.0222938 0.118075 0)
(-0.0349508 0.145217 0)
(-0.0639617 0.150154 0)
(0.0352228 -0.130503 0)
(-0.107347 -0.38432 0)
(-0.271054 -0.820304 0)
(-0.260562 -0.989911 0)
(-0.169951 -0.966575 0)
(-0.03807 -0.493782 0)
(0.0640182 0.142075 0)
(-0.042605 0.14085 0)
(-0.0120953 0.174565 0)
(-0.0296558 0.175759 0)
(0.1342 -0.105288 0)
(0.106649 -0.0820596 0)
(-0.0179568 -0.344729 0)
(-0.124897 -0.953583 0)
(-0.0945567 -1.03174 0)
(-0.0940157 -0.739627 0)
(0.0651803 0.249223 0)
(-0.0419504 0.175447 0)
(0.0272885 0.168905 0)
(-0.0100799 0.179541 0)
(0.117292 -0.124617 0)
(0.0959341 -0.0651201 0)
(0.0294702 -0.178773 0)
(-0.0805495 -0.867443 0)
(-0.0649049 -1.05437 0)
(-0.0786353 -0.85256 0)
(0.039142 0.182054 0)
(-0.0300004 0.171536 0)
(0.0287017 0.16242 0)
(0.000799988 0.190742 0)
(0.0992937 -0.101407 0)
(0.0844036 0.0693517 0)
(-0.018789 -0.147104 0)
(-0.121808 -0.807299 0)
(-0.0648392 -1.08292 0)
(-0.0763316 -0.946787 0)
(-0.0675709 0.165794 0)
(-0.0663125 0.147226 0)
(-0.050426 0.148393 0)
(-0.0377062 0.162391 0)
(0.0489698 0.0307681 0)
(0.0887531 0.0991255 0)
(0.0717676 0.167892 0)
(-0.00637612 -0.484559 0)
(-0.00602267 -1.08684 0)
(-0.0374917 -1.04976 0)
(0.0378491 0.300063 0)
(0.00469368 0.128349 0)
(-0.00368561 0.122877 0)
(-0.00286105 0.108404 0)
(0.0458438 0.00751111 0)
(0.0420981 0.0510073 0)
(0.0149854 0.169064 0)
(-0.0601121 -0.679384 0)
(-0.0112233 -1.05421 0)
(-0.0441286 -1.04623 0)
(0.0397464 0.0330969 0)
(0.154312 0.224181 0)
(0.0768772 0.202401 0)
(0.0331007 0.123485 0)
(0.0373184 0.0908373 0)
(-0.0397333 0.168158 0)
(-0.0885404 0.301701 0)
(-0.0351795 -0.684065 0)
(-0.0157211 -1.03995 0)
(-0.0416881 -1.02742 0)
(-0.0157847 -0.389893 0)
(0.0772258 0.311396 0)
(0.00509101 0.228674 0)
(-0.00937687 0.117498 0)
(-0.0274511 0.240107 0)
(-0.0877422 0.295285 0)
(-0.086676 0.258421 0)
(-0.0519707 -0.808361 0)
(-0.0206346 -1.02843 0)
(-0.0302186 -1.01589 0)
(-0.0021882 -0.546293 0)
(0.0338367 0.440043 0)
(-0.0446955 0.288448 0)
(-0.0320662 0.143779 0)
(-0.00961739 0.420521 0)
(-0.0666017 0.340341 0)
(-0.0644661 0.179821 0)
(-0.0120911 -0.814429 0)
(-0.00436583 -1.02708 0)
(-0.0151068 -1.01167 0)
(0.000247114 -0.623686 0)
(-0.00260756 0.663464 0)
(-0.0501494 0.308093 0)
(-0.0452166 0.153261 0)
(0.020675 0.407145 0)
(0.0468095 0.36024 0)
(0.00106872 0.245487 0)
(-0.0126698 -0.886957 0)
(0.00183901 -1.01738 0)
(-0.00585811 -1.00663 0)
(0.00163761 -0.747723 0)
(0.0725773 0.659052 0)
(0.02357 0.341363 0)
(-0.0188603 0.169157 0)
(-0.00731737 0.363033 0)
(0.0448837 0.324472 0)
(-0.00526377 0.337653 0)
(0.00237049 -0.941605 0)
(0.00751697 -1.00904 0)
(-0.000793145 -1.0047 0)
(-0.000617378 -0.791718 0)
(0.0976098 0.542609 0)
(0.118513 0.438967 0)
(0.0482465 0.27774 0)
(-0.0189549 0.317001 0)
(0.0225132 0.290277 0)
(0.00528089 0.452812 0)
(-0.000905504 -0.963322 0)
(0.00298134 -0.99199 0)
(-0.0121476 -0.988748 0)
(-0.0287653 -0.803405 0)
(-0.00176823 0.478924 0)
(0.0749436 0.433503 0)
(0.0993687 0.307099 0)
(-0.0259613 0.243609 0)
(-0.0337363 0.265763 0)
(-0.000518664 0.391719 0)
(0.00154931 -0.974725 0)
(0.00173379 -0.979261 0)
(-0.00951668 -0.975065 0)
(-0.0215193 -0.818679 0)
(0.00133112 0.314992 0)
(0.0876985 0.18711 0)
(0.179307 0.0625085 0)
(-0.105948 0.140216 0)
(-0.128018 0.159357 0)
(-0.0184208 0.332322 0)
(0.011833 -0.968418 0)
(0.0041738 -0.958037 0)
(-0.0105869 -0.953641 0)
(-0.0219615 -0.827998 0)
(0.00554941 0.191856 0)
(0.0544727 0.0360298 0)
(0.0601503 -0.277126 0)
(-0.00931008 0.37011 0)
(0.0296169 0.31581 0)
(0.00674585 0.190266 0)
(0.0137614 -0.9562 0)
(0.00658393 -0.936688 0)
(-0.00696265 -0.932713 0)
(-0.0154999 -0.845714 0)
(0.00960995 0.0986272 0)
(0.0550527 0.00407234 0)
(0.0542284 -0.00713082 0)
(0.068093 0.159925 0)
(0.0736681 0.282997 0)
(0.00425989 0.126309 0)
(0.014737 -0.933316 0)
(0.00597673 -0.913707 0)
(-0.00561552 -0.914107 0)
(-0.0103245 -0.848113 0)
(0.00479026 0.0339646 0)
(0.0193709 -0.0559041 0)
(-0.0234323 0.116947 0)
(0.00330436 0.174398 0)
(0.0164244 0.428483 0)
(-0.0668006 0.158724 0)
(0.00633184 -0.912883 0)
(0.0024333 -0.891577 0)
(-0.0109898 -0.893145 0)
(-0.0215699 -0.849076 0)
(-0.00448413 0.038329 0)
(-0.0427077 0.00310025 0)
(-0.0457825 0.0287507 0)
(-0.214631 0.393876 0)
(-0.222623 0.565568 0)
(-0.0379251 -0.379151 0)
(0.00762382 -0.898083 0)
(-0.000211198 -0.873933 0)
(-0.0119089 -0.871747 0)
(-0.0240391 -0.873033 0)
(0.00258366 0.0950838 0)
(0.170115 0.0992043 0)
(0.150253 -0.0283064 0)
(-0.150897 0.437128 0)
(-0.142918 0.515135 0)
(0.0308529 -0.561526 0)
(0.0143122 -0.871183 0)
(0.00737141 -0.854038 0)
(-0.00535593 -0.852191 0)
(-0.0145144 -0.884573 0)
(0.0082449 -0.54386 0)
(0.291299 -0.158179 0)
(0.284033 -0.158371 0)
(-0.0917205 0.346876 0)
(0.0105569 0.23805 0)
(0.0498065 -0.61441 0)
(0.0221854 -0.854012 0)
(0.0104735 -0.832391 0)
(-0.00160311 -0.830857 0)
(-0.0064028 -0.849187 0)
(-0.0128562 -0.617209 0)
(0.00823094 -0.0997124 0)
(-0.0400139 0.0153714 0)
(-0.0390919 0.268968 0)
(0.0324121 0.0942723 0)
(0.0383467 -0.62867 0)
(0.0154368 -0.824935 0)
(0.00730881 -0.806862 0)
(-0.0047572 -0.814107 0)
(-0.0133224 -0.832616 0)
(-0.0236106 -0.614708 0)
(-0.046332 -0.0936858 0)
(-0.0676651 0.0312388 0)
(0.00653635 0.231805 0)
(0.0334992 0.0747506 0)
(0.0106986 -0.601197 0)
(0.00323565 -0.805875 0)
(-0.00332731 -0.785327 0)
(-0.0156812 -0.786981 0)
(-0.0248803 -0.802763 0)
(-0.0427455 -0.598741 0)
(-0.0588934 -0.0360284 0)
(-0.0740879 0.080242 0)
(0.0304505 0.22591 0)
(0.0388799 0.0762815 0)
(0.0151039 -0.570647 0)
(0.0109724 -0.779253 0)
(0.00153888 -0.762046 0)
(-0.0114308 -0.760752 0)
(-0.021208 -0.785901 0)
(-0.0394789 -0.588817 0)
(-0.0509546 -0.00690395 0)
(-0.0585466 0.105295 0)
(0.0504602 0.239548 0)
(0.0541993 0.0966666 0)
(0.0316505 -0.54584 0)
(0.021733 -0.756715 0)
(0.0111395 -0.73579 0)
(-0.00387857 -0.731634 0)
(-0.0140993 -0.755312 0)
(-0.0235514 -0.573805 0)
(-0.0405226 0.0096742 0)
(-0.0447011 0.126187 0)
(0.048524 0.240296 0)
(0.0520433 0.106727 0)
(0.0439912 -0.540504 0)
(0.0272934 -0.728562 0)
(0.0154506 -0.705349 0)
(0.0010146 -0.708215 0)
(-0.0117073 -0.734203 0)
(-0.012246 -0.550689 0)
(-0.0390125 0.0284921 0)
(-0.0414742 0.144648 0)
(0.0480176 0.245275 0)
(0.050848 0.126715 0)
(0.0362314 -0.532203 0)
(0.0221941 -0.701415 0)
(0.0095428 -0.67953 0)
(-0.0031446 -0.681347 0)
(-0.0164308 -0.701774 0)
(-0.0223555 -0.525684 0)
(-0.0527314 0.0611627 0)
(-0.0505447 0.143458 0)
(0.0414197 0.257279 0)
(0.0487081 0.14331 0)
(0.0339309 -0.520173 0)
(0.0227928 -0.669656 0)
(0.00969124 -0.651865 0)
(-0.00373926 -0.653119 0)
(-0.0203219 -0.672455 0)
(-0.0236411 -0.51644 0)
(-0.0292162 0.064309 0)
(-0.0172263 0.112261 0)
(0.0205763 0.247791 0)
(0.0318493 0.135819 0)
(0.0353833 -0.498751 0)
(0.0231981 -0.640237 0)
(0.00856091 -0.627548 0)
(-0.0028225 -0.627724 0)
(-0.0213383 -0.640018 0)
(-0.0331542 -0.49548 0)
(-0.0260534 0.0535218 0)
(0.0185987 0.0897096 0)
(-0.0254734 0.234314 0)
(0.00981998 0.116616 0)
(0.0419967 -0.481806 0)
(0.0239253 -0.608259 0)
(0.006244 -0.599911 0)
(-0.00520013 -0.601393 0)
(-0.0232633 -0.608653 0)
(-0.0455646 -0.498895 0)
(0.00834595 -0.0897607 0)
(0.0496357 0.0467268 0)
(-0.0811891 0.142468 0)
(-0.0295992 -0.0640141 0)
(0.0480917 -0.516743 0)
(0.0239906 -0.578171 0)
(0.00406912 -0.573544 0)
(-0.00849977 -0.572409 0)
(-0.0280032 -0.576938 0)
(-0.0487651 -0.530737 0)
(0.0222003 -0.181995 0)
(0.0229539 -0.0305909 0)
(-0.0323863 0.0695653 0)
(0.0251856 -0.173482 0)
(0.0502095 -0.526137 0)
(0.0214059 -0.543679 0)
(0.00358926 -0.538721 0)
(-0.0100542 -0.542226 0)
(-0.029454 -0.541798 0)
(-0.0496344 -0.53497 0)
(-0.0179957 -0.204073 0)
(-0.0278131 -0.0193811 0)
(0.0371703 0.0225391 0)
(0.0467743 -0.200011 0)
(0.0339432 -0.486832 0)
(0.0163628 -0.503755 0)
(-0.0069281 -0.504381 0)
(-0.0211462 -0.506046 0)
(-0.0382669 -0.506062 0)
(-0.0741581 -0.491094 0)
(-0.0640617 -0.22839 0)
(-0.058275 -0.0788537 0)
(0.064835 -0.0401378 0)
(0.0541215 -0.199955 0)
(0.0634035 -0.446058 0)
(0.0351162 -0.462541 0)
(0.015527 -0.469387 0)
(-0.00456608 -0.469164 0)
(-0.0258013 -0.46748 0)
(-0.0513289 -0.453222 0)
(-0.0600766 -0.249105 0)
(-0.057041 -0.115799 0)
(0.0370363 -0.0763509 0)
(0.067381 -0.192051 0)
(0.060507 -0.400015 0)
(0.0298585 -0.419966 0)
(0.00906063 -0.429101 0)
(-0.0112991 -0.429132 0)
(-0.0347848 -0.421842 0)
(-0.0688747 -0.398188 0)
(-0.0733898 -0.25353 0)
(-0.0571442 -0.146983 0)
(0.0168989 -0.104909 0)
(0.0740212 -0.264599 0)
(0.0694917 -0.357796 0)
(0.0389978 -0.380109 0)
(0.0160501 -0.382316 0)
(-0.012237 -0.378892 0)
(-0.0314299 -0.375224 0)
(-0.055309 -0.354146 0)
(-0.0663746 -0.296073 0)
(0.000344167 -0.159863 0)
(0.0876915 -0.15788 0)
(0.0706249 -0.281004 0)
(0.0684505 -0.304786 0)
(0.0458551 -0.329283 0)
(0.0211753 -0.333263 0)
(-0.0038697 -0.328456 0)
(-0.0281985 -0.323676 0)
(-0.064072 -0.313687 0)
(-0.0718897 -0.293013 0)
(-0.101337 -0.170791 0)
(0.0893549 -0.21632 0)
(0.0714028 -0.218897 0)
(0.0669212 -0.255312 0)
(0.0260539 -0.275561 0)
(0.00253429 -0.283749 0)
(-0.0272211 -0.288005 0)
(-0.04695 -0.287156 0)
(-0.0727309 -0.263052 0)
(-0.075257 -0.225696 0)
(-0.101526 -0.216324 0)
(0.0533559 -0.139981 0)
(0.0532288 -0.189293 0)
(0.046492 -0.231883 0)
(0.030288 -0.24113 0)
(0.0177383 -0.246187 0)
(-0.00258719 -0.248287 0)
(-0.0143014 -0.245664 0)
(-0.0389738 -0.234742 0)
(-0.05096 -0.192447 0)
(-0.0518301 -0.142516 0)
(-0.00388187 -0.00385493 0)
(-0.00461747 -0.00224906 0)
(-0.00682451 0.00212506 0)
(-0.0095819 0.00545623 0)
(-0.0147405 0.00691266 0)
(-0.0202097 0.00621239 0)
(-0.0255557 0.00566486 0)
(-0.0311345 0.0040072 0)
(-0.0354185 0.00151771 0)
(-0.0395966 0.0030846 0)
(-0.0477642 0.0109571 0)
(-0.0651427 0.0233074 0)
(-0.0950623 0.0335656 0)
(-0.112032 0.022259 0)
(-0.121977 0.0228246 0)
(-0.146117 0.0380315 0)
(-0.17708 0.0363736 0)
(-0.200615 0.0156608 0)
(-0.206234 0.000136125 0)
(-0.203472 -0.00697043 0)
(-0.200847 -0.00755564 0)
(-0.198683 -0.00580926 0)
(-0.193386 -0.00837311 0)
(-0.179052 -0.0128972 0)
(-0.163095 -0.0169388 0)
(-0.146101 -0.0228609 0)
(-0.124959 -0.0289508 0)
(-0.0975715 -0.0385727 0)
(-0.0657098 -0.0480051 0)
(-0.0321819 -0.0480952 0)
(-0.00165763 -0.0381219 0)
(0.0215373 -0.0238024 0)
(0.0274968 0.00836931 0)
(0.0140606 0.0231312 0)
(0.0149085 0.00597048 0)
(0.0232325 0.0132898 0)
(0.0192794 0.0101029 0)
(0.0225218 -0.000216061 0)
(0.0147941 -0.00511185 0)
(0.0146623 0.00653471 0)
(-0.00693259 0.00445736 0)
(-0.0119151 0.00706446 0)
(-0.0145348 0.00698594 0)
(-0.0161107 0.00919411 0)
(-0.0175825 0.0113359 0)
(-0.0199118 0.0122526 0)
(-0.0232137 0.0138182 0)
(-0.0282455 0.0144809 0)
(-0.0349735 0.0133869 0)
(-0.0428311 0.021403 0)
(-0.0516533 0.0374024 0)
(-0.0620086 0.0518962 0)
(-0.0824039 0.0495788 0)
(-0.0932421 0.0357468 0)
(-0.0990275 0.0360428 0)
(-0.119441 0.0554532 0)
(-0.151732 0.0644556 0)