/*--------------------------------*- C++ -*----------------------------------*\
  =========                 |
  \\      /  F ield         | OpenFOAM: The Open Source CFD Toolbox
   \\    /   O peration     | Website:  https://openfoam.org
    \\  /    A nd           | Version:  8
     \\/     M anipulation  |
\*---------------------------------------------------------------------------*/
FoamFile
{
    version     2.0;
    format      ascii;
    class       volScalarField;
    location    "3.7";
    object      alpha.water;
}
// * * * * * * * * * * * * * * * * * * * * * * * * * * * * * * * * * * * * * //

dimensions      [0 0 0 0 0 0 0];

internalField   nonuniform List<scalar> 
9150
(
1
1
1
1
1
1
1
1
1
1
1
1
1
1
1
1
1
1
1
1
1
1
1
1
1
1
1
1
1
1
1
1
1
1
1
1
1
1
1
1
1
1
1
1
1
1
1
1
1
1
1
1
1
1
1
1
1
1
1
1
1
1
1
1
1
1
1
1
1
1
1
1
1
1
1
1
1
1
1
1
1
1
1
1
1
1
1
1
1
1
1
1
1
1
1
1
1
1
1
1
1
1
1
1
1
1
1
1
1
1
1
1
1
1
1
1
1
1
1
1
1
1
1
1
1
1
1
1
1
1
1
1
1
1
1
1
1
1
1
1
1
1
1
1
1
1
1
1
1
1
0.957057
0.957005
0.93817
0.950974
0.950974
0.950974
0.95088
0.925105
0.909188
0.933182
0.951579
0.932044
0.931696
0.941715
0.950974
0.93149
0.880545
0.700055
0.699829
0.699647
0.946097
0.949546
0.949877
0.949808
0.944131
0.75468
0.701408
0.700293
0.699647
0.699647
0.679259
0.796384
0.908769
0.949808
0.948516
0.949103
0.823664
0.785466
0.910873
0.856604
0.396355
0.468354
0.563438
0.724181
0.875487
0.952098
0.976936
0.977816
0.977827
0.977837
0.59963
0.544679
0.545148
0.546999
0.579874
0.775134
0.877863
0.883252
0.977837
0.977838
0.881423
0.859056
0.89334
0.887397
0.902776
0.844472
0.755153
0.752756
0.752515
0.865554
0.974875
0.98628
0.986279
0.98628
0.986279
0.986271
0.982532
0.866337
0.74691
0.69412
0.763923
0.97629
0.98628
0.986279
0.986271
0.986254
0.986137
0.98603
0.98603
0.91189
0.681233
0.923368
0.986263
0.986211
0.986044
0.986089
0.98603
0.986031
0.986026
0.985925
0.934262
0.984469
0.986023
0.976684
0.838286
0.792295
0.892682
0.975101
0.985831
0.98579
0.981262
0.983951
0.984146
0.954484
0.557339
0.395854
0.384727
0.603925
0.690746
0.755507
0.978536
0.98078
0.976085
0.939298
0.629492
0.387531
0.355882
0.332362
0.284465
0.249531
0.791264
0.591979
0.625689
0.824726
0.866455
0.880204
0.802645
0.843363
0.775693
0.479358
0.284872
0.191995
0.185201
0.328245
0.799492
0.942055
0.943751
0.944045
0.945162
0.898189
0.202602
0.185201
0.185156
0.185181
0.185181
0.689009
0.944045
0.945456
0.946868
0.946976
0.896978
0.497607
0.185201
0.185162
0.185185
0.185188
0.735514
0.946868
0.949296
0.951825
0.924499
0.939613
0.672856
0.18522
0.185168
0.185481
0.261459
0.888773
0.951826
0.954172
0.683317
0.952355
0.963512
0.716057
0.185585
0.190158
0.19659
0.354194
0.942249
0.956604
0.142158
0.743703
0.967297
0.97254
0.717742
0.27462
0.201577
0.188786
0.391252
0.954901
0.066321
0.409238
0.943422
0.972899
0.972737
0.909092
0.522365
0.177049
0.15124
0.483576
0.0663141
0.396711
0.93848
0.972737
0.974471
0.975649
0.97562
0.661623
0.141728
0.130807
0.212024
0.879468
0.947975
0.896369
0.909009
0.972335
0.976008
0.975892
0.455543
0.124914
0.767655
0.972022
0.956924
0.871255
0.871115
0.88957
0.974562
0.977011
0.904223
0.197197
0.970077
0.976027
0.971878
0.876457
0.870744
0.870997
0.924852
0.97802
0.978432
0.695873
0.74011
0.981502
0.9822
0.961058
0.871147
0.870744
0.90173
0.978432
0.978838
0.978854
0.977026
0.983596
0.98258
0.9822
0.882036
0.871147
0.934313
0.978583
0.978854
0.978868
0.984998
0.984615
0.983596
0.934438
0.884137
0.886984
0.97466
0.978291
0.978629
0.978854
0.985258
0.984998
0.965176
0.887423
0.886171
0.93599
0.973625
0.977423
0.978291
0.978629
0.985517
0.974671
0.898803
0.892196
0.945434
0.947116
0.914736
0.874185
0.920023
0.913131
0.939374
0.922799
0.941763
0.940986
0.900641
0.913621
0.83123
0.694483
0.563269
0.388372
0.922274
0.952234
0.941986
0.869075
0.842364
0.842197
0.867798
0.735269
0.467719
0.285175
0.962633
0.973001
0.82613
0.791208
0.875137
0.921814
0.921976
0.921474
0.905731
0.916202
0.983697
0.942521
0.826032
0.880123
0.91979
0.919117
0.89926
0.92151
0.930877
0.93228
0.984151
0.766216
0.840716
0.8866
0.882465
0.656541
0.6068
0.705122
0.776392
0.899326
0.974428
0.743597
0.760945
0.8866
0.718763
0.6068
0.606787
0.606799
0.606793
0.780525
0.875231
0.743011
0.750544
0.88231
0.65165
0.607205
0.606799
0.606787
0.627428
0.895209
0.942004
0.753645
0.615741
0.60971
0.608935
0.608294
0.607207
0.647783
0.932434
0.929204
0.985517
0.867037
0.615334
0.613035
0.609711
0.609475
0.752038
0.967101
0.948731
0.939052
0.980048
0.955743
0.830548
0.792991
0.91685
0.981597
0.979288
0.977412
0.949302
0.641231
0.92419
0.981968
0.982098
0.982104
0.98206
0.982032
0.981598
0.919834
0.397168
0.0521126
0.974622
0.982103
0.982106
0.982103
0.982103
0.981633
0.943697
0.286491
0.0493531
0.0490555
0.982103
0.982105
0.982105
0.982105
0.981309
0.964161
0.481554
0.0493689
0.0470398
0.048215
0.982036
0.933404
0.864905
0.900066
0.869134
0.801723
0.29393
0.0455329
0.0464113
0.0470398
0.970657
0.849225
0.849225
0.9243
0.819215
0.756993
0.253854
0.0418113
0.0449045
0.0464113
0.925824
0.92074
0.923445
0.924351
0.839252
0.749155
0.19478
0.0385399
0.0437085
0.142503
0.76248
0.913413
0.924351
0.924348
0.763338
0.72911
0.136617
0.0321697
0.150206
0.374889
0.476701
0.722818
0.924318
0.924348
0.70699
0.715702
0.0780291
0.0313111
0.0861722
0.0438407
0.228877
0.570861
0.875766
0.924264
0.706975
0.714156
0.0367548
0.000900912
0.0157722
0.0026316
0.0291917
0.215262
0.419556
0.742946
0.707547
0.714719
0.0157324
0.000710487
0.000191696
0.000187798
0.00266131
0.00265994
0.153014
0.0086079
0.712195
0.711461
0.00395116
0.00392625
0.000187765
0.000186645
0.0155158
0.00631705
0.00777791
0.00897941
0.73186
0.731738
0.00750473
0.0173664
0.000311823
0.000127618
0.00386184
0.00813013
0.0164063
0.0085726
0.737786
0.738842
0.0079534
0.0173657
0.000101445
8.18195e-05
0.00383157
0.00534795
0.0292056
0.00853866
0.748224
0.747774
0.00857778
0.0137585
2.30815e-05
2.28889e-05
0.00382938
0.00783835
0.0292755
0.00862824
0.754309
0.754088
0.00869729
0.0164627
2.31439e-05
2.29854e-05
0.000910146
0.0100975
0.0292609
0.0137282
0.762751
0.767242
0.00911306
0.017259
2.324e-05
2.31439e-05
0.000100073
0.00274301
0.0283392
0.0192109
0.769989
0.774868
0.0143738
0.0175945
2.73715e-05
2.82953e-05
0.00280935
0.00329177
0.0264022
0.0234842
0.778897
0.782611
0.0196881
0.0157806
2.73947e-05
0.000929335
0.00217045
0.00203369
0.0296973
0.0276888
0.786008
0.790442
0.0232211
0.0200868
0.00522959
0.00203551
0.00100188
0.00151497
0.0382828
0.0311886
0.792613
0.797117
0.0266408
0.0110085
0.00529822
0.00195383
0.00100188
0.0131417
0.0417563
0.0346093
0.799797
0.803951
0.0305468
9.65529e-06
9.65512e-06
9.65529e-06
0.00347031
0.0377391
0.0417833
0.037671
0.806665
0.809831
0.0346126
9.6549e-06
9.65529e-06
9.6654e-06
0.0196028
0.0417634
0.0417563
0.0409088
0.814393
0.815971
0.0394157
9.65623e-06
9.67044e-06
0.000115079
0.00468516
0.0284685
0.0388627
0.043402
0.820207
0.820382
0.0431426
9.67138e-06
1.52698e-05
0.000196695
7.06788e-06
6.98236e-06
6.96317e-06
0.0464757
0.825733
0.825102
0.0469783
9.71016e-06
2.14994e-05
0.000146118
1.4259e-05
7.7816e-06
6.92982e-06
0.0510859
0.830671
0.830438
0.051314
9.746e-06
1.03684e-05
5.65998e-05
5.78242e-05
5.53712e-05
6.7233e-06
0.0566902
0.836857
0.836778
0.0568001
9.76206e-06
1.96149e-05
5.9204e-05
5.47204e-05
6.03566e-05
6.41084e-06
0.0617323
0.842337
0.842246
0.0617178
9.85445e-06
0.000164002
0.000110341
5.99983e-06
6.02607e-05
6.19843e-06
0.0677688
0.849252
0.849044
0.0679536
1.04587e-05
0.000348352
8.0574e-05
5.99747e-06
1.86851e-05
6.15318e-06
0.0740934
0.855941
0.855844
0.0743619
9.83388e-06
0.000348551
6.41935e-05
5.99983e-06
6.00763e-06
6.09883e-06
0.0819478
0.863873
0.86358
0.0821252
8.71208e-06
0.000277496
6.43413e-05
6.00763e-06
4.76098e-05
6.15364e-06
0.0902019
0.871666
0.871442
0.0904176
7.03639e-06
0.000287481
7.93912e-05
6.01505e-06
0.000112649
6.35129e-06
0.0995548
0.879874
0.879588
0.0998842
4.59476e-06
0.000503677
0.000535156
6.46008e-06
0.000112838
6.89211e-06
0.109811
0.888132
0.887776
0.110006
4.53007e-06
0.00015535
0.000262237
4.37945e-05
0.000112614
7.56175e-06
0.120709
0.896176
0.895893
0.120768
4.52912e-06
4.53007e-06
4.53298e-06
8.96846e-05
7.30543e-05
8.21034e-06
0.133188
0.904638
0.904276
0.132908
4.52558e-06
4.52909e-06
4.53221e-06
0.000149631
4.53311e-05
8.72406e-06
0.146417
0.912728
0.913068
0.146766
4.49425e-06
7.86099e-06
4.5377e-06
0.000237433
4.3579e-05
9.05019e-06
0.161585
0.921333
0.921967
0.162629
4.44585e-06
1.2315e-05
4.56058e-06
0.000396543
2.34716e-05
9.35668e-06
0.180766
0.930964
0.930568
0.179867
4.39647e-06
1.23241e-05
4.62709e-06
0.000149917
1.7918e-05
9.66375e-06
0.201396
0.939902
0.939699
0.20033
4.3533e-06
1.23142e-05
4.71651e-06
9.29064e-05
0.000135156
9.97007e-06
0.224564
0.948644
0.948992
0.224737
4.33695e-06
8.36585e-06
1.61304e-05
0.000308346
0.000215038
1.08553e-05
0.250616
0.957081
0.957134
0.250159
4.33765e-06
4.33701e-06
1.71555e-05
0.000386362
0.000257564
1.28601e-05
0.27891
0.964689
0.964784
0.27836
4.33712e-06
4.33765e-06
6.57008e-06
0.000328054
1.95361e-05
1.52605e-05
0.309319
0.97146
0.97178
0.309516
4.33765e-06
4.34345e-06
4.34243e-06
4.93951e-05
1.82186e-05
1.63629e-05
0.342437
0.977541
0.977768
0.342759
4.35357e-06
1.91117e-05
5.58926e-05
7.84571e-05
0.000338358
1.65224e-05
0.380855
0.983005
0.983077
0.380771
4.50953e-06
7.20641e-05
0.000171488
0.000772305
0.00068741
1.29549e-05
0.423349
0.98742
0.987383
0.42289
5.07218e-06
8.10047e-05
0.000171066
0.000772144
0.00042206
1.07796e-05
0.475127
0.990855
0.990866
0.474439
5.82909e-06
4.76949e-05
0.000171047
5.31564e-06
0.000227857
7.11174e-06
0.532345
0.993195
0.993259
0.532019
5.35082e-06
1.3914e-05
5.87692e-05
2.79288e-06
2.79291e-06
2.79291e-06
0.59732
0.995138
0.995254
0.597895
4.13057e-06
4.0049e-06
3.75386e-06
2.79291e-06
2.79284e-06
2.79386e-06
0.671269
0.996636
0.996651
0.671867
4.09479e-06
4.09457e-06
1.86634e-05
2.80007e-06
2.79386e-06
2.81848e-06
0.748197
0.9978
0.997849
0.747917
4.09464e-06
4.095e-06
2.11463e-05
5.56557e-05
2.81848e-06
0.0276179
0.817972
0.99869
0.998735
0.818008
0.0241492
4.09469e-06
1.78797e-05
0.000110135
3.31085e-06
0.105357
0.882683
0.999355
0.999443
0.882725
0.100852
4.11289e-06
2.85118e-05
5.00698e-05
5.00765e-06
0.211469
0.942908
0.999783
0.999745
0.943339
0.211598
4.53549e-06
4.6885e-05
3.90471e-06
3.95692e-06
0.386367
0.985119
0.999915
0.999952
0.982269
0.401523
7.38053e-06
8.37329e-06
2.04993e-06
5.17033e-06
0.615655
0.999937
0.999972
0.999979
0.999962
0.683133
8.37329e-06
8.0342e-06
7.29309e-08
0.083886
0.863064
0.999972
0.999999
0.999998
0.999986
0.87762
0.0892151
5.54948e-07
1.89289e-08
0.581206
0.999897
0.999999
1
1
0.999997
0.999331
0.559719
2.14294e-08
0.332244
0.967462
1
1
1
1
1
1
0.96789
0.32997
0.937372
0.937364
0.932107
0.883507
0.883464
0.958029
0.977766
0.977795
0.966961
0.96696
0.972896
0.978293
0.97822
0.97616
0.976152
0.97779
0.97849
0.97849
0.978227
0.978215
0.978288
0.978267
0.978239
0.977832
0.893329
0.819847
0.819788
0.819852
0.819945
0.837415
0.891685
0.958884
0.94687
0.911338
0.909677
0.936148
0.954543
0.93625
0.87823
0.906166
0.784333
0.93672
0.912046
0.883424
0.883507
0.964749
0.977811
0.97781
0.975197
0.966967
0.978134
0.978293
0.978293
0.977871
0.976196
0.977836
0.97849
0.97849
0.97849
0.978488
0.978463
0.978325
0.957187
0.799367
0.756872
0.836314
0.910827
0.853479
0.820546
0.896116
0.964906
0.968988
0.968996
0.967816
0.926821
0.9518
0.937645
0.687425
0.669189
0.752611
0.699647
0.731216
0.881338
0.886338
0.947709
0.97775
0.977766
0.9758
0.963634
0.978231
0.978293
0.978293
0.978293
0.978293
0.978289
0.978426
0.97849
0.977875
0.829547
0.733414
0.910059
0.923051
0.732953
0.73317
0.75529
0.955511
0.955985
0.955908
0.957063
0.968123
0.968868
0.968998
0.968988
0.968971
0.968928
0.898074
0.675954
0.669187
0.669185
0.669189
0.7836
0.901437
0.972421
0.975391
0.977729
0.977584
0.968626
0.963101
0.963429
0.978292
0.978293
0.978293
0.978293
0.972535
0.97839
0.978396
0.978415
0.947677
0.733045
0.732881
0.732599
0.732599
0.732599
0.738786
0.739152
0.740441
0.801533
0.877231
0.775137
0.826402
0.924208
0.964872
0.968971
0.968928
0.886595
0.783099
0.699584
0.669185
0.669189
0.745681
0.977385
0.97784
0.977842
0.977843
0.97784
0.963334
0.963101
0.963101
0.963121
0.978291
0.978292
0.978292
0.976568
0.97013
0.978386
0.97839
0.978387
0.977233
0.92586
0.867136
0.867125
0.898066
0.944041
0.97059
0.948034
0.916011
0.953494
0.842927
0.779306
0.727988
0.727316
0.76806
0.931519
0.967747
0.952853
0.86174
0.822695
0.715261
0.669197
0.748473
0.97784
0.977842
0.977843
0.977844
0.977844
0.977819
0.972738
0.966668
0.963174
0.965561
0.978291
0.978289
0.978287
0.973648
0.957118
0.95514
0.95495
0.965674
0.977219
0.977904
0.978076
0.978082
0.962282
0.971191
0.971097
0.970927
0.970876
0.970867
0.970855
0.873232
0.726144
0.72598
0.725703
0.878666
0.971598
0.971598
0.971618
0.960885
0.712217
0.761288
0.913767
0.947063
0.968563
0.977844
0.977844
0.977844
0.977841
0.977787
0.977726
0.978275
0.978286
0.978285
0.978284
0.978284
0.961583
0.954537
0.954537
0.954537
0.954617
0.977767
0.978082
0.978083
0.978083
0.978083
0.969212
0.918444
0.929421
0.970855
0.970877
0.970866
0.865242
0.725703
0.725669
0.72567
0.867864
0.971626
0.971598
0.971416
0.955357
0.870811
0.693962
0.693971
0.707109
0.807245
0.922954
0.963507
0.977787
0.977724
0.977711
0.976369
0.978275
0.977979
0.978251
0.978246
0.978208
0.977837
0.959862
0.954617
0.954717
0.970481
0.97808
0.978083
0.978083
0.978083
0.976504
0.917155
0.91712
0.927326
0.970864
0.970877
0.935774
0.727463
0.72567
0.72567
0.77536
0.967458
0.952768
0.967443
0.961463
0.948926
0.823756
0.696224
0.638394
0.636377
0.633481
0.751121
0.960461
0.971488
0.91839
0.894322
0.912093
0.977995
0.978238
0.978203
0.97817
0.978117
0.978085
0.964219
0.973987
0.978081
0.978083
0.978083
0.978083
0.978083
0.972182
0.91712
0.91712
0.922355
0.970842
0.970864
0.872489
0.725805
0.725737
0.72567
0.820089
0.966736
0.879086
0.763991
0.722827
0.790966
0.985861
0.985846
0.961023
0.697118
0.632601
0.630106
0.628093
0.700221
0.839538
0.894341
0.950143
0.978124
0.978182
0.978164
0.978117
0.978093
0.978079
0.978067
0.978055
0.977978
0.977931
0.977934
0.978083
0.978083
0.946458
0.917142
0.91712
0.937939
0.970776
0.970842
0.845328
0.727823
0.72598
0.753285
0.941163
0.958899
0.853775
0.679678
0.679217
0.679257
0.985846
0.985862
0.985663
0.985463
0.888082
0.627615
0.627615
0.627611
0.628441
0.851822
0.932715
0.968014
0.975623
0.957772
0.902482
0.880297
0.893014
0.973547
0.978082
0.978083
0.978083
0.978083
0.978083
0.978083
0.931577
0.917462
0.932252
0.970413
0.970554
0.95118
0.947651
0.968032
0.974929
0.95574
0.965596
0.949914
0.881481
0.75309
0.759622
0.679217
0.858904
0.934146
0.97656
0.983823
0.979738
0.95638
0.936423
0.663559
0.63138
0.633228
0.810364
0.967131
0.830679
0.684888
0.643387
0.642026
0.710806
0.931362
0.978011
0.978083
0.978083
0.978083
0.978083
0.978083
0.945844
0.949515
0.969969
0.970148
0.943724
0.926005
0.92646
0.950546
0.975655
0.975671
0.975672
0.975672
0.956594
0.966353
0.96634
0.72485
0.240772
0.32007
0.524113
0.690856
0.787496
0.879018
0.913228
0.910119
0.901423
0.721723
0.724976
0.878828
0.886323
0.738619
0.642026
0.641942
0.642026
0.670686
0.931057
0.978071
0.978083
0.978083
0.977982
0.977916
0.978077
0.978074
0.955963
0.924307
0.924653
0.925451
0.929226
0.973516
0.975716
0.975667
0.975672
0.975672
0.952673
0.952681
0.965716
0.8939
0.155075
0.154756
0.154453
0.154426
0.154418
0.218593
0.426541
0.598786
0.769169
0.796858
0.821003
0.88632
0.886206
0.816051
0.71299
0.641983
0.710035
0.900335
0.935802
0.954118
0.976597
0.978083
0.978082
0.978081
0.978081
0.935012
0.923903
0.923903
0.969484
0.975797
0.975798
0.975795
0.97578
0.975716
0.973868
0.952596
0.952658
0.971318
0.97457
0.974568
0.265323
0.154455
0.154426
0.154418
0.154418
0.154414
0.154411
0.154411
0.154411
0.620281
0.824323
0.837081
0.598938
0.458668
0.640144
0.852177
0.941413
0.941413
0.911074
0.904267
0.908425
0.977277
0.978081
0.978081
0.933768
0.922183
0.927356
0.975642
0.975797
0.975798
0.975799
0.975799
0.931038
0.954682
0.954778
0.965654
0.974441
0.97457
0.97457
0.97457
0.550351
0.154731
0.15445
0.154426
0.154414
0.154411
0.154411
0.154411
0.154411
0.400958
0.740664
0.38744
0.172187
0.165723
0.232238
0.536949
0.935612
0.941426
0.918365
0.904242
0.915759
0.978017
0.978065
0.934515
0.921193
0.931878
0.975788
0.975796
0.975797
0.975798
0.975798
0.92505
0.699384
0.957116
0.974517
0.974524
0.974528
0.974551
0.972758
0.97132
0.833628
0.239116
0.154951
0.15461
0.154452
0.154415
0.154411
0.154411
0.154421
0.235741
0.504747
0.290954
0.164838
0.164807
0.164821
0.164805
0.582923
0.94038
0.938582
0.904821
0.905683
0.974792
0.925705
0.920415
0.936453
0.975734
0.975754
0.975788
0.975796
0.975797
0.975798
0.811482
0.570985
0.888014
0.974521
0.974523
0.974524
0.974527
0.939562
0.83008
0.956605
0.833885
0.381601
0.224188
0.159435
0.154629
0.154447
0.154446
0.154959
0.155537
0.156063
0.174825
0.164807
0.164804
0.164804
0.164821
0.454831
0.898327
0.929632
0.944782
0.967318
0.932877
0.925087
0.95871
0.975678
0.975708
0.975734
0.974753
0.975261
0.975784
0.975798
0.791935
0.5706
0.615427
0.919838
0.974521
0.945825
0.897658
0.916284
0.813179
0.957157
0.957602
0.958301
0.945494
0.675663
0.395906
0.229342
0.169616
0.164088
0.185264
0.191269
0.173309
0.164838
0.187226
0.442597
0.727794
0.918137
0.964013
0.96739
0.967484
0.967428
0.962827
0.97499
0.97543
0.975567
0.969784
0.898554
0.79912
0.823342
0.943427
0.970926
0.805139
0.570582
0.5706
0.598383
0.740916
0.606189
0.847122
0.928308
0.813196
0.957602
0.958301
0.959078
0.95923
0.959296
0.959742
0.959815
0.802612
0.67822
0.625038
0.634163
0.746391
0.859506
0.954619
0.965021
0.965083
0.964878
0.965013
0.965444
0.963046
0.9557
0.939063
0.904498
0.889812
0.952421
0.881875
0.722114
0.722057
0.722078
0.859187
0.967474
0.702838
0.570581
0.570582
0.570592
0.57065
0.571946
0.811072
0.924299
0.813217
0.949578
0.957602
0.94919
0.95916
0.959742
0.959815
0.959815
0.959815
0.959657
0.953663
0.951184
0.957285
0.96008
0.960602
0.960392
0.854197
0.851419
0.851384
0.851616
0.854621
0.930384
0.849794
0.821695
0.822245
0.877343
0.864427
0.72249
0.722114
0.739323
0.951556
0.959057
0.646484
0.570582
0.570581
0.570583
0.570593
0.65439
0.868989
0.868471
0.881996
0.466099
0.937842
0.928254
0.887883
0.938146
0.959742
0.959815
0.959657
0.890733
0.843661
0.843293
0.844071
0.844453
0.846274
0.901306
0.939098
0.893479
0.920155
0.959146
0.970991
0.941259
0.925637
0.944145
0.848815
0.784946
0.86448
0.97627
0.941004
0.963819
0.975784
0.975157
0.780303
0.570582
0.570583
0.671672
0.768248
0.903342
0.893826
0.951283
0.940913
0.12145
0.514467
0.839623
0.887845
0.867915
0.865433
0.9332
0.95664
0.919914
0.844671
0.936537
0.936414
0.936423
0.96353
0.972517
0.975666
0.975894
0.975828
0.975888
0.965575
0.731425
0.689545
0.976282
0.976282
0.971489
0.966859
0.976283
0.97627
0.976101
0.97593
0.975795
0.876344
0.723025
0.910227
0.973043
0.974876
0.974472
0.974852
0.974558
0.940728
0.1192
0.118396
0.422897
0.805349
0.915958
0.856371
0.855479
0.86455
0.897784
0.908198
0.724807
0.695169
0.76815
0.699414
0.683119
0.866817
0.975393
0.975894
0.975875
0.922965
0.611822
0.650968
0.976282
0.976282
0.976282
0.976282
0.976282
0.976279
0.976237
0.95422
0.89193
0.876869
0.931136
0.974958
0.97495
0.974932
0.974922
0.974913
0.956186
0.940584
0.147821
0.116446
0.117215
0.285785
0.879494
0.963769
0.95837
0.812436
0.770845
0.767478
0.907669
0.913255
0.912959
0.789768
0.329358
0.278146
0.666555
0.960002
0.976078
0.976415
0.782161
0.506858
0.747846
0.976282
0.976282
0.976282
0.976282
0.976282
0.976279
0.974952
0.90958
0.903617
0.97513
0.974964
0.974958
0.97495
0.974923
0.974852
0.974777
0.967148
0.767617
0.258012
0.116678
0.132243
0.588009
0.97108
0.9727
0.972784
0.929954
0.732354
0.72628
0.825761
0.913271
0.852547
0.325689
0.274317
0.274307
0.714749
0.976446
0.976538
0.976546
0.646944
0.627017
0.724627
0.975732
0.976282
0.976282
0.976282
0.976282
0.976279
0.976238
0.975854
0.975342
0.97513
0.974956
0.961215
0.95577
0.97473
0.974741
0.974681
0.978854
0.973694
0.553241
0.317334
0.668874
0.970467
0.972784
0.973026
0.972967
0.972975
0.753005
0.739263
0.895906
0.868635
0.352589
0.274308
0.274317
0.562552
0.97223
0.976546
0.976552
0.976552
0.772052
0.654104
0.649783
0.754812
0.976282
0.976282
0.976279
0.961849
0.938779
0.860933
0.850459
0.910568
0.972438
0.94257
0.885832
0.918111
0.974681
0.974644
0.978867
0.978493
0.977613
0.976173
0.971356
0.96624
0.970475
0.972784
0.973029
0.972628
0.829625
0.81864
0.899256
0.899212
0.568597
0.274739
0.274302
0.54856
0.97011
0.976539
0.976552
0.976552
0.976552
0.914869
0.645094
0.645094
0.660177
0.76551
0.916608
0.818327
0.541947
0.460973
0.460865
0.46084
0.746855
0.948272
0.885828
0.886119
0.952469
0.97459
0.978493
0.977397
0.964057
0.937274
0.888857
0.80922
0.806729
0.856965
0.959034
0.972678
0.854166
0.714164
0.896741
0.899212
0.514399
0.282155
0.318769
0.876456
0.976256
0.976426
0.97655
0.976552
0.976551
0.976551
0.952795
0.880558
0.523821
0.481188
0.477267
0.461744
0.460881
0.460844
0.46084
0.460839
0.526071
0.933071
0.963645
0.885904
0.899327
0.940051
0.832386
0.634341
0.469519
0.369845
0.313121
0.204254
0.158738
0.16741
0.49947
0.841458
0.613995
0.721389
0.890964
0.8298
0.332195
0.289473
0.610005
0.973206
0.975254
0.962673
0.972692
0.976551
0.976552
0.976534
0.97642
0.976277
0.915827
0.502216
0.461133
0.460881
0.460844
0.46084
0.460839
0.46084
0.749439
0.974328
0.974359
0.91449
0.911039
0.910659
0.220061
0.163338
0.160971
0.159523
0.158895
0.158735
0.158742
0.158733
0.159988
0.30549
0.580257
0.893413
0.879489
0.437099
0.308089
0.3774
0.910586
0.971443
0.962748
0.962742
0.973575
0.976491
0.976534
0.960578
0.976277
0.976154
0.976078
0.826073
0.498969
0.460885
0.460848
0.460844
0.521267
0.834518
0.974342
0.974446
0.974355
0.935115
0.973806
0.955885
0.250282
0.198719
0.16524
0.160971
0.159523
0.158896
0.216291
0.735422
0.512332
0.500572
0.833595
0.972061
0.84452
0.38291
0.396725
0.632637
0.968276
0.970893
0.968128
0.975508
0.975508
0.972407
0.88718
0.698388
0.740187
0.974245
0.975991
0.975904
0.880808
0.786733
0.783652
0.835961
0.935379
0.974395
0.974446
0.974448
0.974213
0.973144
0.973806
0.973806
0.861466
0.772342
0.61243
0.425973
0.252341
0.240429
0.684412
0.953944
0.844394
0.569589
0.917364
0.972061
0.89366
0.383356
0.582654
0.898995
0.968331
0.956163
0.973728
0.975483
0.975508
0.838635
0.60203
0.602098
0.728181
0.975839
0.975904
0.96693
0.96685
0.969889
0.972141
0.973915
0.974395
0.974446
0.974449
0.974448
0.974446
0.96697
0.973801
0.973805
0.932288
0.93228
0.93228
0.931882
0.833959
0.582927
0.873531
0.953336
0.885278
0.64384
0.795733
0.972061
0.963263
0.655108
0.581434
0.96779
0.968309
0.922443
0.915294
0.84793
0.926746
0.794238
0.602099
0.60202
0.602199
0.746954
0.900937
0.795086
0.794761
0.795056
0.924438
0.967384
0.860184
0.805342
0.952342
0.974448
0.974446
0.974439
0.868182
0.948192
0.93228
0.932297
0.931882
0.92795
0.915907
0.862284
0.641017
0.644782
0.934915
0.671259
0.671656
0.91124
0.969958
0.946915
0.741038
0.958228
0.963438
0.917151
0.771662
0.713991
0.807615
0.9433
0.951077
0.951413
0.953599
0.954282
0.954282
0.951203
0.934384
0.970256
0.976402
0.839135
0.456881
0.408545
0.451332
0.798149
0.974439
0.900867
0.667219
0.917824
0.931149
0.931433
0.92795
0.794878
0.612508
0.677792
0.874727
0.934473
0.970487
0.779485
0.672495
0.861239
0.972424
0.952157
0.938589
0.967957
0.978861
0.978906
0.88585
0.713739
0.74857
0.574118
0.542089
0.614404
0.767453
0.818883
0.921719
0.975461
0.976403
0.976403
0.976403
0.606476
0.408243
0.40818
0.408195
0.414682
0.63005
0.443829
0.542089
0.916748
0.923608
0.92512
0.613259
0.157407
0.0551388
0.107068
0.698623
0.970488
0.971487
0.959533
0.856654
0.931301
0.976271
0.945105
0.946894
0.978861
0.978906
0.978919
0.843018
0.714471
0.714186
0.533895
0.53382
0.533821
0.53382
0.535127
0.662288
0.815254
0.937705
0.976403
0.976402
0.730449
0.40818
0.408168
0.408169
0.408175
0.408343
0.410978
0.632966
0.94068
0.920395
0.534582
0.0611698
0.0546626
0.0543721
0.0642975
0.701967
0.971488
0.971898
0.972853
0.975386
0.97717
0.97736
0.948243
0.966669
0.978906
0.978919
0.97892
0.888547
0.715208
0.804373
0.814812
0.855127
0.857296
0.8794
0.893761
0.814716
0.72701
0.73
0.902597
0.975116
0.974113
0.659527
0.408169
0.408169
0.408169
0.408175
0.430444
0.894469
0.969213
0.63287
0.0805165
0.0543797
0.0533987
0.0542361
0.0802771
0.760965
0.971267
0.971529
0.9627
0.879894
0.977315
0.977596
0.978468
0.978886
0.978918
0.97892
0.97892
0.97702
0.960019
0.976304
0.65865
0.685549
0.941368
0.955578
0.956006
0.955843
0.910345
0.776945
0.770154
0.923199
0.974164
0.973319
0.803064
0.590629
0.473308
0.504204
0.801754
0.969213
0.969213
0.0730839
0.0530295
0.052994
0.0531968
0.0533987
0.179583
0.907344
0.942193
0.762199
0.567624
0.497629
0.625011
0.790591
0.977665
0.978898
0.978919
0.97892
0.97892
0.97892
0.978889
0.978858
0.668806
0.543864
0.540388
0.539716
0.579329
0.913437
0.959603
0.959531
0.88584
0.854533
0.947399
0.975078
0.975601
0.960285
0.928886
0.930326
0.975154
0.939813
0.969213
0.0509219
0.051754
0.0526293
0.0529943
0.0534896
0.343159
0.946511
0.740579
0.499597
0.496882
0.49561
0.495412
0.495531
0.507929
0.591224
0.822817
0.978919
0.97892
0.978889
0.978855
0.978852
0.769148
0.54058
0.539684
0.539649
0.539663
0.642628
0.950461
0.959581
0.959538
0.953904
0.959174
0.975602
0.975757
0.975933
0.975947
0.975944
0.975975
0.936196
0.915293
0.0499853
0.0509364
0.0517507
0.0531039
0.22757
0.854627
0.959541
0.837718
0.703942
0.584375
0.495502
0.495531
0.495462
0.495531
0.49581
0.497279
0.722298
0.977824
0.978837
0.978852
0.978852
0.940724
0.568365
0.54012
0.539684
0.763699
0.890838
0.910669
0.890365
0.849581
0.821689
0.896262
0.975741
0.975932
0.975956
0.975975
0.975978
0.975979
0.953272
0.728553
0.0490555
0.0499874
0.0564919
0.48021
0.888906
0.959541
0.959541
0.959541
0.958169
0.944071
0.884549
0.844257
0.869761
0.622621
0.56537
0.78752
0.966465
0.978604
0.978776
0.978799
0.978807
0.896464
0.586781
0.805346
0.862157
0.86211
0.832683
0.560875
0.121413
0.0575174
0.167724
0.701182
0.975559
0.975959
0.975978
0.975978
0.975979
0.975979
0.975979
0.686203
0.0482137
0.138039
0.719644
0.958749
0.959502
0.959522
0.959541
0.959035
0.956615
0.954117
0.95224
0.950892
0.94845
0.464809
0.662966
0.970634
0.97859
0.978728
0.978742
0.978743
0.961052
0.888393
0.836348
0.655041
0.239899
0.00122981
0.000270492
0.000254376
0.000279639
0.000662735
0.00160082
0.194497
0.512233
0.762332
0.880147
0.971453
0.975978
0.975979
0.975958
0.655254
0.112329
0.658737
0.953452
0.955724
0.958575
0.956625
0.899816
0.776858
0.632182
0.673732
0.79839
0.902177
0.691961
0.361982
0.60629
0.947223
0.972984
0.970774
0.933028
0.792838
0.602288
0.341343
0.0413011
0.000150063
0.000339893
0.000270555
0.000254432
0.000251288
0.000247115
0.000279649
0.000483691
0.00169471
0.0178413
0.0699571
0.141815
0.399198
0.724583
0.975958
0.972102
0.539339
0.601155
0.930371
0.9474
0.838712
0.595217
0.44863
0.213104
0.0430399
0.0107639
0.0331028
0.0306272
0.190505
0.240875
0.361036
0.613471
0.58326
0.387185
0.160413
0.0185719
0.000258769
0.000176446
0.00014464
0.000101835
0.000109244
0.000487292
0.0010654
0.000767399
0.000253123
0.000246301
0.000247115
0.00026819
0.000378717
0.000635094
0.000413064
0.0007214
0.00914265
0.139655
0.795232
0.733
0.4333
0.379043
0.416374
0.485256
0.165605
7.89796e-05
9.71733e-05
0.000217522
0.000318996
0.000322598
0.000326445
0.000513226
0.000926476
0.0762699
0.168377
0.107687
0.00368422
0.000723064
0.000548386
0.00039025
0.00031891
0.000224761
0.000171946
9.53348e-05
9.53348e-05
0.000227871
0.00107169
0.00107169
0.00104893
0.00024659
0.00024659
0.00025071
0.000271785
0.000288978
0.000280283
0.000287681
0.000480994
0.000884862
0.197957
0.134874
0.217787
6.08135e-05
6.09503e-05
6.08285e-05
6.09503e-05
6.69932e-05
7.89796e-05
0.000303633
0.000471506
0.000517243
0.000537312
0.00055592
0.000534575
0.000313007
9.9319e-05
9.365e-05
9.75735e-05
0.00136274
0.00182649
0.00056462
3.83112e-05
2.7099e-05
6.50635e-05
0.000297427
0.000297624
0.000201442
0.000119085
0.000938651
0.00105934
0.000840477
0.000852168
0.000907612
0.000376091
0.000280283
0.000262968
0.00025696
0.000281707
0.000343591
0.00112901
0.00827925
0.00995973
6.23912e-05
6.08135e-05
6.09503e-05
0.00021076
0.000498903
0.000594898
0.000854838
0.00087933
0.000880619
0.000879649
0.00088055
0.000858538
0.000356118
7.58105e-05
8.58527e-05
9.365e-05
0.0014166
0.00183207
0.00149888
8.01932e-05
1.6998e-05
1.83486e-05
0.000116082
0.000297887
0.000293496
5.91969e-05
5.00592e-05
0.000323366
0.000995803
0.000996476
0.000997632
0.00099854
0.000871202
0.000248462
0.000245935
0.00025696
0.000281707
0.000383525
0.000469574
0.00136746
0.000531989
0.000430261
0.000189622
0.000256559
7.38374e-05
2.21256e-05
8.71744e-05
0.000448752
0.000867014
0.000880619
0.000878358
0.000676011
0.000104729
7.32611e-05
0.000121565
0.000744076
0.00140888
0.000903912
0.000269315
1.82505e-05
1.53382e-05
1.69976e-05
0.000145618
0.000292238
0.000173766
1.85985e-05
1.82847e-05
1.94861e-05
2.49988e-05
0.000776351
0.000998583
0.000996823
0.000615473
0.000213898
0.000228532
0.000551706
0.00037157
0.000275506
0.000140637
0.000534664
0.000355356
2.21325e-05
2.21593e-05
4.14228e-05
2.21256e-05
2.21256e-05
2.21256e-05
2.21259e-05
0.000181464
0.000856891
0.000252902
9.9852e-05
0.000117287
7.32647e-05
4.02499e-05
4.04555e-05
3.89519e-05
1.859e-05
1.43598e-05
1.42837e-05
1.49098e-05
5.91032e-05
0.000122309
6.81067e-05
1.8793e-05
1.82231e-05
1.83977e-05
5.98347e-05
0.000229909
0.000314238
0.000316992
0.0002704
4.72099e-05
0.000141932
0.000671268
0.000786332
0.000771631
0.000244153
7.75046e-05
6.45262e-05
2.21325e-05
2.21325e-05
2.21292e-05
2.21257e-05
2.21256e-05
2.21256e-05
2.21256e-05
2.21294e-05
2.26079e-05
9.19911e-05
0.000259996
9.88885e-05
5.34288e-05
7.29905e-05
3.45235e-05
1.43758e-05
1.42846e-05
1.42743e-05
1.42679e-05
1.42605e-05
1.79273e-05
3.15465e-05
1.558e-05
1.49341e-05
2.85204e-05
0.000205437
0.000216919
0.000137566
3.84872e-05
2.46645e-05
2.47745e-05
2.51599e-05
2.52773e-05
2.57464e-05
0.000779143
0.000790096
0.000793074
0.000472575
6.48539e-05
5.24793e-05
2.21325e-05
2.21325e-05
2.21386e-05
2.21273e-05
2.21257e-05