/*--------------------------------*- C++ -*----------------------------------*\
  =========                 |
  \\      /  F ield         | OpenFOAM: The Open Source CFD Toolbox
   \\    /   O peration     | Website:  https://openfoam.org
    \\  /    A nd           | Version:  8
     \\/     M anipulation  |
\*---------------------------------------------------------------------------*/
FoamFile
{
    version     2.0;
    format      ascii;
    class       volScalarField;
    location    "3.7";
    object      p;
}
// * * * * * * * * * * * * * * * * * * * * * * * * * * * * * * * * * * * * * //

dimensions      [1 -1 -2 0 0 0 0];

internalField   nonuniform List<scalar> 
9150
(
-204.473
-205.471
-206.058
-206.542
-206.779
-206.79
-206.56
-206.079
-205.465
-204.467
-224.514
-225.034
-225.447
-225.781
-225.953
-225.942
-225.773
-225.445
-225.031
-224.511
-244.406
-244.693
-244.941
-245.159
-245.283
-245.276
-245.167
-244.948
-244.694
-244.405
-264.145
-264.323
-264.491
-264.646
-264.729
-264.736
-264.653
-264.493
-264.325
-264.146
-283.764
-283.95
-284.087
-284.215
-284.274
-284.279
-284.217
-284.088
-283.951
-283.765
-118.29
-119.257
-119.095
-118.623
-118.464
-118.456
-118.595
-119.071
-119.236
-118.273
-133.924
-134.628
-134.86
-134.929
-134.846
-134.85
-134.946
-134.88
-134.654
-133.94
-150.445
-151.186
-151.508
-151.85
-151.916
-151.934
-151.889
-151.518
-151.213
-150.468
-167.346
-168.454
-168.896
-169.531
-169.689
-169.7
-169.531
-168.888
-168.465
-167.348
-184.264
-186.36
-187.11
-187.841
-188.078
-188.074
-187.794
-187.084
-186.341
-184.246
-25.0332
-26.3761
-28.2118
-29.2133
-29.825
-29.9022
-29.3894
-28.2621
-26.2514
-24.6449
-45.3763
-45.5287
-46.4634
-46.7859
-47.1954
-47.1575
-46.7074
-46.3533
-45.4087
-45.2031
-65.1666
-65.0869
-66.0498
-65.6236
-66.0874
-66.1119
-65.6551
-66.0091
-65.0084
-65.0721
-87.9603
-85.2351
-86.2677
-84.7047
-84.9003
-84.9144
-84.6146
-86.2211
-85.1729
-87.8923
-114.326
-104.274
-103.941
-102.357
-102.029
-102.053
-102.36
-103.959
-104.263
-114.291
700.753
698.68
696.815
691.798
686.474
680.528
674.135
668.355
665.229
668.578
668.5
669.088
669.082
666.608
662.762
656.159
651.687
649.571
647.34
647.721
646.452
648.132
648.319
647.229
644.218
642.032
640.3
637.069
634.881
635.064
630.273
630.475
629.665
628.616
627.076
624.699
625.712
625.153
624.57
622.888
623.329
622.401
619.554
615.034
612.099
612.672
616.451
616.926
615.588
613.523
609.991
611.724
611.51
611.57
606.869
600.013
600.815
600.698
600.92
599.236
590.846
592.83
592.514
590.842
589.431
585.743
586.397
587.247
583.875
580.084
576.492
581.968
581.379
578.167
573.224
568.049
565.037
562.652
563.98
564.65
563.899
565.198
563.884
558.143
549.723
543.809
541.71
541.159
541.305
540.391
539.323
539.63
535.417
526.408
516.319
512.603
514.344
516.767
518.179
518.788
493.391
494.391
491.153
482.361
480.161
484.061
490.614
496.864
498.807
496.867
440.895
445.862
450.552
454.198
464.373
483.946
490.944
488.668
486.548
476.983
386.984
392.523
404.217
417.268
430.438
453.692
465.253
465.887
459.153
449.64
335.184
345.404
354.221
364.543
386.314
402.202
411.797
416.762
412.959
405.597
318.293
332.513
339.766
342.171
352.184
368.829
382.547
389.67
392.124
389.168
311.494
323.89
331.184
335.401
339.361
343.566
356.347
368.108
375.452
378.657
330.377
316.739
325.795
332.403
336.08
339.433
343.592
355.981
363.54
371.323
307.258
319.519
321.058
330.986
336.981
340.26
343.371
351.589
362.189
371.558
285.443
303.421
319.211
327.347
337.602
344.228
350.635
354.316
363.45
375.607
281.334
281.39
305.851
319.938
326.94
345.696
363.596
371.482
371.528
380.019
284.815
283.252
296.526
316.311
333.497
352.193
364.991
382.003
391.143
377.345
288.728
287.707
295.349
313.764
333.51
352.799
371.704
386.175
392.915
397.97
288.067
289.628
302.638
315.839
329.715
344.137
360.443
375.526
381.175
397.123
288.944
295.434
305.499
314.145
326.875
338.498
353.274
368.587
377.027
382.753
295.523
298.566
302.278
310.254
320.659
330.721
341.842
356.739
365.485
372.612
284.808
290.079
297.067
304.538
313.685
322.899
330.054
339.752
348.152
354.299
282.328
288.413
295.174
302.469
309.189
316.486
318.064
323.713
328.125
331.938
282.065
288.628
293.908
297.78
303.728
305.809
307.881
309.665
310.9
311.498
288.099
293.125
296.82
300.045
301.093
297.531
297.198
296.291
294.041
289.487
296.379
300.854
303.399
304.947
300.763
296.928
289.35
284.804
275.173
264.743
298.746
304.084
305.411
304.026
299.838
293.536
284.419
274.682
263.223
257.929
290.353
292.729
291.514
288.243
283.127
268.235
251.903
238.416
235.545
241.638
259.711
259.271
252.296
245.173
222.469
205.811
192.048
186.056
187.355
192.256
210.632
196.486
180.135
154.114
128.234
105.678
88.6716
84.092
89.1763
100.507
150.824
136.488
97.982
53.8483
14.1929
-10.2428
-17.7944
-19.9999
-10.5777
2.40608
105.279
85.9898
53.145
16.3765
-28.2184
-47.8251
-51.7191
-42.5038
-31.5518
-27.074
89.7231
77.9922
56.4559
38.1159
6.77063
-6.97616
-14.9239
-15.8056
-13.1407
-12.0188
98.2489
93.8347
90.7345
79.0583
62.8832
46.8064
34.8682
22.9028
10.4243
5.52386
114.088
118.817
124.387
120.935
113.283
103.967
91.2265
74.8142
44.0195
17.0337
128.342
138.637
153.221
162.776
164.861
163.655
145.813
98.2993
42.3966
5.51036
125.306
140.155
155.465
170.381
184.972
187.279
138.214
59.4883
14.6016
2.6971
108.117
118.355
130.678
137.351
177.455
153.696
71.4803
23.6788
10.9903
6.1757
84.0963
86.5153
101.169
86.2089
120.404
90.6133
31.3042
16.2126
9.01895
8.23202
59.5802
58.5866
67.1964
54.7566
51.3113
40.3661
15.9706
12.2107
11.3665
10.0842
42.4634
44.0414
48.3364
46.9131
35.3829
22.1498
14.4774
11.9324
11.5626
10.3378
25.9536
26.9552
30.4825
32.403
34.3044
17.878
11.736
12.3758
12.3881
7.26231
12.5489
15.4246
22.3817
25.5401
26.675
9.54963
5.23196
11.2086
5.56056
10.4195
3.65999
4.74579
18.2507
16.9522
11.4921
0.883232
-1.67113
-0.789445
-0.0123474
-0.779815
-1.45103
0.513975
10.0921
16.0408
1.29576
-2.10509
-1.88456
-0.595254
-1.13956
-0.951414
-0.922002
1.76285
0.574171
1.79392
4.57382
-0.498804
-1.04319
-0.746243
-0.804486
-0.859264
-1.39984
-1.61795
-0.788891
3.80023
20.9039
17.1543
-0.933898
-0.834492
-0.820406
-0.851517
-0.580406
-0.533204
-0.0533806
1.12827
23.2093
22.9534
-0.727014
-0.81289
-0.915836
-0.927759
-0.737482
-0.898644
-1.07255
-0.0792878
24.185
25.2896
-0.950617
-0.842954
-0.959193
-0.962438
-0.977776
-1.10996
-1.13975
-0.83624
25.4167
24.2514
-0.969898
-1.01492
-0.967658
-0.97203
-1.13516
-1.13834
-0.880747
-1.11803
25.1444
24.8613
-0.971606
-0.999346
-0.979758
-0.982653
-1.10196
-1.11673
-1.10191
-1.11844
25.2278
25.3903
-0.955489
-0.953853
-0.990624
-0.992875
-1.08598
-1.11263
-1.14597
-1.11679
25.0697
25.5991
-1.02775
-1.02857
-0.996232
-1.00399
-1.0948
-1.09047
-1.18252
-1.19308
25.3756
25.6518
-0.964823
-0.984885
-0.967921
-1.03821
-1.1372
-1.11439
-1.20751
-1.21872
25.3622
25.9243
-0.916757
-0.955975
-1.06251
-1.1026
-1.05696
-1.09327
-1.21922
-1.18372
25.5183
25.9499
-1.02262
-0.845528
-1.03144
-1.07466
-1.04474
-1.06955
-1.09162
-1.02338
25.4756
26.0363
-1.19113
-1.03488
-1.0921
-1.09794
-1.15893
-0.928965
-0.793074
-0.605208
25.9323
26.159
-1.18007
-1.11886
-1.1314
-1.12992
-1.19906
-0.994155
-1.00568
-0.683581
26.1934
26.2406
-1.12743
-1.12416
-1.12702
-1.13153
-1.29429
-1.13518
-1.15916
-1.43583
26.1364
25.911
-1.13838
-1.13672
-1.13805
-1.15073
-1.26526
-1.21974
-1.10429
-1.71266
25.8712
25.7623
-1.16555
-1.16592
-1.1668
-1.17595
-1.26945
-1.25711
-1.23076
-1.42796
25.9058
26.0055
-1.2039
-1.20114
-1.19988
-1.20622
-1.28957
-1.28963
-1.2814
-1.28846
25.94
26.106
-1.23663
-1.23457
-1.23432
-1.23905
-1.29963
-1.29996
-1.29796
-1.29986
26.2175
25.8707
-1.26737
-1.26491
-1.27081
-1.27029
-1.3134
-1.31285
-1.31127
-1.31342
26.0433
25.9969
-1.29472
-1.29266
-1.29229
-1.29326
-1.32949
-1.3287
-1.32636
-1.32913
25.8132
26.243
-1.32287
-1.31668
-1.31235
-1.31186
-1.34596
-1.34533
-1.34519
-1.3485
26.1373
25.871
-1.32987
-1.32813
-1.33384
-1.32857
-1.36127
-1.36439
-1.36376
-1.36739
25.9974
25.9736
-1.34914
-1.34198
-1.35366
-1.34496
-1.37381
-1.38103
-1.38104
-1.38328
25.8938
25.9775
-1.33882
-1.33461
-1.37164
-1.36434
-1.38758
-1.39385
-1.39617
-1.40018
26.0338
25.6648
-1.37324
-1.37074
-1.37743
-1.38974
-1.40451
-1.41014
-1.407
-1.4121
25.9896
25.4372
-1.42247
-1.41761
-1.41731
-1.42466
-1.42643
-1.42372
-1.41885
-1.42773
26.1503
24.9509
-1.4476
-1.44621
-1.44717
-1.44909
-1.44135
-1.43257
-1.42909
-1.43446
24.6519
26.0866
-1.47408
-1.46465
-1.46565
-1.4667
-1.45821
-1.44496
-1.44019
-1.44076
23.7423
26.5139
-1.49956
-1.4832
-1.48237
-1.4827
-1.4794
-1.45674
-1.45732
-1.47178
25.9354
23.7388
-1.50364
-1.49681
-1.49914
-1.5007
-1.49972
-1.48733
-1.48952
-1.50558
25.4359
23.3958
-1.52675
-1.5192
-1.52212
-1.52375
-1.52826
-1.53105
-1.52296
-1.53313
23.498
24.2123
-1.56158
-1.5496
-1.55007
-1.55227
-1.55069
-1.55196
-1.53936
-1.55162
23.5539
22.9584
-1.58838
-1.57883
-1.57861
-1.58109
-1.56376
-1.56618
-1.55102
-1.56366
22.8902
22.1563
-1.61936
-1.60804
-1.60715
-1.60852
-1.59094
-1.56599
-1.57006
-1.58464
21.251
22.1082
-1.65383
-1.6357
-1.63329
-1.63381
-1.61362
-1.60145
-1.60687
-1.63134
20.1927
21.2203
-1.68158
-1.65663
-1.65525
-1.65771
-1.63836
-1.64528
-1.6348
-1.67169
19.5809
19.5581
-1.70822
-1.67274
-1.6754
-1.68005
-1.65549
-1.66427
-1.62467
-1.67186
18.8161
17.6758
-1.73655
-1.68962
-1.69437
-1.70002
-1.68518
-1.68064
-1.65636
-1.71341
17.4697
15.7028
-1.75976
-1.70977
-1.71229
-1.71538
-1.71554
-1.71652
-1.71748
-1.77687
15.0502
14.2791
-1.79204
-1.73593
-1.73489
-1.7381
-1.74506
-1.7389
-1.74574
-1.79119
11.3711
13.3267
-1.81004
-1.75998
-1.75649
-1.75794
-1.76544
-1.76553
-1.76992
-1.86047
8.91132
10.787
-1.86205
-1.77834
-1.77336
-1.77721
-1.7836
-1.78625
-1.77574
-2.04459
7.59435
6.95976
-2.06009
-1.79936
-1.79976
-1.8011
-1.80514
-1.80187
-1.80895
-2.08636
4.82127
5.02688
-2.32577
-1.85026
-1.83274
-1.83461
-1.82789
-1.82101
-1.88451
-1.84464
2.6282
2.94086
-2.13677
-1.92717
-1.85393
-1.8548
-1.84624
-1.84406
-1.97504
-1.25737
0.909699
1.50503
-2.01258
-2.05543
-1.86455
-1.86473
-1.86872
-1.87103
-2.29841
-1.27777
0.375767
0.0624218
-1.29232
-2.22925
-1.87495
-1.87293
-1.88552
-1.87589
-3.53023
-1.92833
-0.684548
-0.509592
-1.14223
-3.00328
-1.88186
-1.89208
-1.90579
-2.36063
-4.53985
-2.6476
-1.51293
-1.39781
-2.5258
-4.59167
-2.44378
-1.91536
-1.9277
-3.86659
-5.16084
-5.38634
-5.58902
-5.82207
-5.97336
-5.95716
-4.09727
-1.93474
-2.77239
-9.59459
-12.9338
-14.8637
-15.6291
-15.5274
-14.5813
-12.572
-9.32571
-2.70157
673.164
677.416
682.291
692.352
700.249
705.72
709.012
711.041
711.754
712.729
712.92
712.8
711.537
709.098
705.777
701.639
697.487
693.606
690.22
687.859
686.305
685.862
686.083
687.466
687.343
691.553
696.529
702.105
707.401
711.164
713.249
714.511
713.301
713.423
714.114
713.106
713.963
713.099
711.401
714.746
646.887
650.686
655.552
666.722
677.532
684.312
687.879
689.641
690.714
691.841
691.357
690.79
689.221
686.659
683.237
679.107
675.151
671.258
667.123
664.25
663.15
663.289
663.154
665.248
670.939
671.29
679.733
682.226
687.364
688.968
691.429
692.078
692.003
692.224
693.778
694.461
694.285
696.695
697.717
695.661
635.872
635.734
635.66
642.017
649.507
655.958
660.852
663.792
666.204
666.36
666.421
665.681
663.84
661.126
657.749
654.033
650.472
646.571
645.502
646.427
639.012
640.346
640.161
642.353
643.251
646.896
653.054
657.986
662.282
666.18
669.048
671.501
674.309
677.486
679.336
679.1
680.744
680.11
680.445
681.009
625.402
622.215
624.876
629.08
632.849
635.969
638.287
640.656
642.235
642.799
642.64
641.704
639.767
637.289
633.614
629.735
625.974
622.316
622.914
619.801
618.922
619.902
620.948
621.49
624.142
629.131
630.942
636.683
642.822
643.474
646.289
650.755
655.561
659.991
662.048
664.353
666.172
667.982
666.982
669.337
612.143
611.858
612.852
614.483
615.984
617.275
618.492
619.567
620.283
620.503
620.342
619.371
617.377
614.527
610.047
606.184
602.737
599.839
598.371
597.497
597.246
598.173
600.45
603.629
605.713
610.628
616.591
620.427
626.127
631.677
634.318
635.201
636.529
641.639
644.277
648.17
649.934
651.455
653.466
652.428
597.602
597.05
597.39
597.353
597.291
597.882
598.532
599.218
599.647
599.431
599.059
598.238
596.746
594.456
591.965
589.114
586.446
584.36
583.777
582.79
583.059
585.466
588.568
591.457
594.872
599.515
604.307
608.104
611.855
614.212
618.009
618.535
619.85
621.446
625.481
630.331
632.365
633.471
634.326
634.369
577.295
576.341
576.84
577.388
577.192
577.746
578.557
578.913
578.76
578.726
578.728
578.766
578.381
577.571
576.733
575.716
574.514
573.925
574.12
575.017
575.904
577.169
578.853
580.872
583.075
587.796
590.507
594.149
597.846
601.02
602.915
604.017
605.028
605.989
607.637
612.781
615.01
615.807
616.957
616.875
563.917
561.81
559.921
557.262
556.255
555.648
556.474
557.463
557.34
557.358
558.032
559.069
559.807
560.26
560.319
560.373
560.55
561.5
562.393
563.06
564.214
565.562
567.231
569.213
571.554
574.576
577.634
580.065
583.553
586.984
587.988
589.483
591.386
592.893
593.97
596.492
598.361
599.16
600.331
601.358
540.174
541.911
542.765
540.804
538.539
534.303
536.53
537.654
536.261
538.478
538.702
539.167
540.705
541.789
542.964
544.054
545.445
547.174
548.515
549.974
551.38
552.806
554.359
556.058
558.137
560.455
562.898
564.74
569.1
571.034
572.968
576.395
577.937
579.092
579.296
586.965
581.62
584.609
585.378
584.33
518.629
517.657
516.402
516.37
518.345
517.639
517.282
514.81
513.746
515.83
517.881
519.592
520.984
522.374
523.944
525.979
529.79
533.373
534.98
536.174
537.435
538.805
540.318
541.984
543.922
546.679
548.883
549.981
553.85
555.454
558.223
564.103
565.978
566.291
565.81
568.959
566.456
572.138
572.133
572.19
494.344
492.022
492.156
494.098
493.129
496.495
498.382
498.441
498.645
496.181
498.18
501.582
502.321
500.642
501.933
507.43
512.068
515.337
518.311
520.117
521.72
523.437
525.234
527.127
529.542
532.397
533.187
535.536
537.729
538.614
540.541
543.024
545.37
547.575
549.564
551.19
553.977
558.502
557.855
560.945
466.868
459.891
460.322
464.998
468.586
471.295
475.086
474.158
481.753
483.899
481.084
491.884
487.86
490.473
492.586
495.247
495.857
497.106
500.57
503.173
505.365
507.434
509.532
511.451
514.305
515.879
518.269
519.88
521.334
524.064
525.475
527.008
529.783
531.67
533.435
535.829
539.445
541.941
543.086
548.44
438.713
429.805
426.238
426.768
426.16
432.317
443.17
456.578
462.978
466.941
473.588
474.277
482.117
476.39
477.98
479.556
481.705
483.617
483.434
486.58
489.307
491.941
494.509
496.82
499.049
501.066
502.255
504.399
506.363
508.063
509.285
509.693
511.215
512.677
514.36
516.831
519.59
522.46
523.609
525.402
400.608
397.282
402.738
407.778
411.489
413.914
416.449
421.511
427.916
438.563
447.153
452.923
459.483
462.238
459.178
461.344
460.065
461.138
465.795
470.469
474.379
477.624
480.324
482.492
484.302
485.613
487.83
488.929
489.786
490.738
491.047
491.231
491.352
492.097
494.198
498.914
502.327
504.126
505.213
505.319
385.97
391.223
397.258
403.184
405.554
407.584
410.058
412.508
414.298
408.068
415.267
417.264
422.425
431.879
427.255
429.403
435.967
442.822
451.135
458.369
462.287
464.742
467.51
469.15
470.472
472.537
473.404
474.21
474.723
474.594
473.786
472.391
473.121
475.72
477.218
479.836
483.123
485.413
486.173
486.026
384.89
392.461
396.874
400.239
401.616
403.633
408.227
410.633
411.959
407.91
415.432
409.458
422.827
428.38
426.057
424.818
429.469
436.453
441.189
448.213
451.615
454.636
456.57
456.425
458.298
458.461
459.174
459.342
459.146
458.617
457.761
457.225
468.133
458.318
460.293
462.535
464.512
466.623
467.377
466.467
382.824
392.668
397.138
399.605
401.343
403.905
406.997
409.069
408.969
406.962
417.947
416.341
424.761
431.37
435.97
438.556
432.651
433.297
436.374
439.865
442.826
446.305
444.165
445.54
444.736
444.824
444.506
444.341
444.235
443.756
442.852
442.102
458.725
441.501
441.997
443.118
444.835
447.352
448.057
452.387
381.852
388.948
397.004
402.461
405.588
408.101
410.935
413.123
413.703
413.845
417.986
424.716
431.898
436.452
438.872
439.418
430.898
425.972
428.324
431.64
434.837
434.418
434.452
432.773
432.48
431.015
429.568
428.922
429.503
430.059
429.294
424.599
435.793
429.132
427.243
428.796
426.572
427.316
430.351
435.176
386.215
393.945
400.247
404.547
406.226
410.653
415.288
417.995
419.23
420.557
424.206
428.58
431.91
433.923
431.59
426.539
425.687
424.25
424.182
425.722
426.137
424.968
423.195
421.614
420.448
418.016
417.056
420.133
420.546
420.787
422.602
413.886
418.087
416.931
413.912
414.574
417.843
410.37
419.778
418.895
391.556
398.99
405.336
411.028
414.139
415.188
414.939
414.03
415.833
419.178
422.424
424.327
425.901
427.235
426.5
426.02
426.019
425.838
425.522
424.382
422.784
418.933
416.916
413.589
412.288
408.924
412.328
412.785
413.816
412.23
418.918
404.392
407.575
409.628
409.754
410.503
409.778
404.027
411.168
409.455
388.12
400.293
409.604
416.334
421.8
424.382
425.134
425.136
423.875
422.663
422.556
423.009
424.252
424.156
424.02
421.397
423.824
424.034
423.06
417.899
415.833
407.412
405.766
399.075
394.873
391.1
395.541
395.259
395.411
402.365
402.568
400.846
402.455
403.978
402.976
403.569
402.31
397.779
397.397
397.072
383.545
394.234
407.522
419.398
427.512
434.809
438.494
439.484
435.01
430.177
424.259
419.113
416.111
412.71
411.281
411.998
411.314
410.025
406.208
402.188
396.388
395.974
392.822
388.747
389.443
380.119
380.197
375.381
374.541
378.633
382.782
385.995
394.911
395.479
391.15
391.029
390.284
388.251
386.943
386.386
395.757
386.907
394.74
409.177
422.816
434.697
442.088
446.673
443.374
440.063
421.137
405.807
402.891
400.77
397.018
394.683
393.436
392.261
390.46
387.967
394.137
395.53
384.87
380.838
375.444
372.637
370.741
369.227
368.311
368.528
369.453
370.85
379.329
374.168
376.571
377.429
376.578
374.608
373.474
372.685
388.075
386.49
385.256
391.582
406.929
421.733
431.944
435.045
434.715
429.335
416.034
409.284
400.655
395.614
374.71
361.082
367.802
374.281
378.22
379.862
399.655
389.795
381.341
375.857
370.223
365.065
360.759
357.307
354.92
353.681
354.489
356.07
355.044
356.83
358.543
359.049
358.186
357.344
356.209
356.501
379.636
383.018
383.42
380.509
383.913
403.122
413.64
416.553
419.855
415.704
402.028
390.097
376.161
364.85
375.875
377.934
364.295
366.272
371.423
375.134
377.32
394.336
373.382
367.425
361.651
354.897
348.132
342.414
338.286
335.268
335.486
334.713
334.194
335.145
336.827
337.581
337.817
337.863
337.68
337.828
359.896
366.998
378.129
379.59
370.007
378.029
387.222
390.924
389.769
388.07
386.221
375.279
373.751
364.205
363.464
364.194
361.713
360.79
361.627
363.83
365.117
368.403
364.564
355.948
349.051
338.934
330.068
323.258
318.855
314.896
311.554
308.7
307.699
309.149
311.819
313.878
315.863
317.107
318.273
318.965
337.064
341.406
344.789
361.232
345.736
349.981
356.281
359.112
362.095
363.227
361.069
358.778
355.361
348.406
347.527
353.322
354.059
349.018
347.178
347.149
346.469
345.818
340.424
340.518
334.192
318.096
306.975
293.876
289.167
288.859
288.095
283.05
279.631
278.875
284.708
290.666
297.409
297.719
299.412
300.789
312.707
314.719
316.681
314.66
312.319
313.282
318.056
321.15
325.551
328.665
329.36
329.674
332.907
332.889
333.338
340.176
342.482
331.109
329.785
328.333
325.616
322.107
317.996
311.739
308.607
298.309
284.615
275.602
281.414
280.049
278.067
277.634
275.131
274.936
271.95
276.32
279.909
282.289
283.303
285.171
284.209
281.231
278.688
274.811
266.417
259.876
259.68
265.821
278.758
289.366
292.672
306.931
310.954
311.27
309.385
325.047
323.834
320.735
314.179
308.346
303.291
298.518
293.607
288.213
281.988
274.016
272.392
271.058
268.092
267.965
269.256
269.926
269.788
269.839
269.022
267.481
273.138
272.107
273.312
272.099
254.755
249.266
248.008
245.34
242.038
239.021
241.484
245.633
241.322
250.023
258.179
269.423
287.707
289.808
295.744
305.81
296.127
295.795
291.336
285.855
279.254
273.815
268.802
263.626
258.802
254.868
253.012
256.771
260.481
261.332
261.761
262.118
262.149
262.325
260.13
260.318
263.453
262.511
263.224
263.293
256.044
252.336
247.252
241.353
233.955
228.216
228.578
233.395
234.098
226.841
224.711
250.48
260.727
267.27
280.789
277.823
278.365
274.693
269.298
262.973
255.001
246.854
238.633
231.777
228.325
228.966
232.663
239.076
247.538
251.263
252.41
253.013
251.328
249.198
249.256
250.231
251.281
253.516
251.572
250.697
241.941
241.653
240.507
239.477
237.981
234.158
231.1
242.85
230.206
231.146
224.089
242.606
245.576
257.385
259.281
254.772
255.567
253.477
248.98
241.855
230.614
216.223
203.643
208.384
209.28
209.569
216.167
222.506
227.215
231.295
233.048
232.908
233.123
234.344
234.784
236.11
236.817
236.687
234.931
234.685
202.236
216.655
229.06
240.378
252.699
255.888
244.16
258.213
246.216
250.308
230.541
233.726
226.176
252.053
238.553
236.319
233.561
232.218
228.3
222.53
213.885
199.205
194.972
196.004
191.427
197.891
206.292
210.01
211.41
215.137
215.998
215.9
215.279
214.172
214.555
216.11
216.001
213.674
211.438
212.179
127.621
171.187
215.388
253.726
273.099
280.715
268.247
260.568
245.387
242.583
225.294
225.115
216.449
220.289
222.861
207.237
203.052
199.21
197.63
195.652
197.081
190.927
195.145
194.739
194.922
191.693
200.454
201.828
203.289
199.357
196.695
197.197
190.912
190.217
189.289
192.357
193.888
191.349
189.485
192.646
35.9203
95.0155
160.517
221.83
264.45
264.259
261.047
247.032
248.033
223.387
217.636
197.165
194.476
186.41
188.865
173.556
169.249
164.599
165.955
168.419
168.371
171.131
170.684
170.461
171.854
173.849
176.633
179.076
180.547
181.225
178.679
173.473
178.089
181.853
179.339
177.516
185.17
177.874
186.761
183.013
-4.21059
43.5553
92.5338
114.808
116.719
121.793
143.48
165.975
177.372
177.95
185.05
168.062
163.032
157.278
151.048
145.85
142.867
141.148
141.188
144.172
142.489
148.11
146.989
142.429
142.61
144.503
147.631
153.13
156.734
158.89
156.986
154.594
161.39
165.776
167.227
165.561
170.741
175.371
175.796
180.382
2.38701
30.1395
54.5885
60.0122
70.6559
72.9048
71.067
96.9339
116.298
125.207
133.427
131.952
132.336
129.641
126.842
124.016
122.989
123.677
124.49
126.828
125.81
133.142
131.588
130.406
132.99
134.661
130.989
131.336
136.089
141.957
145.024
147.921
154.254
156.911
159.296
160.877
162.596
164.958
162.274
171.602
8.89114
24.7747
31.7245
34.9712
38.6937
43.7998
44.5251
61.0522
74.2203
85.408
93.7984
99.2841
102.859
103.641
101.799
100.912
99.7777
99.0117
100.746
108.864
105.604
104.312
100.914
101.42
102.476
106.707
108.339
122.224
125.356
125.304
134.774
140.497
146.597
151.375
153.187
154.907
156.207
155.976
153.883
158.265
5.00034
5.90116
9.02282
12.7832
17.5701
26.1483
31.8608
43.591
47.118
51.6406
60.4405
67.4026
73.1055
76.8739
78.9124
78.4432
76.7987
76.5516
78.26
80.4406
81.2284
81.3018
73.6458
74.0888
77.1718
81.9842
88.5929
95.1614
108.24
118.242
119.463
129.912
135.246
138.249
141.17
146.75
145.899
141.509
141.406
142.622
-5.86792
-8.32835
-8.35565
-5.59223
0.800044
9.04918
20.4194
38.2648
33.0201
41.5533
53.8323
52.7603
52.9275
57.9745
59.5093
59.92
59.1055
57.8495
58.0816
60.7744
62.8401
61.0287
61.2454
58.4067
57.7724
59.7042
61.9072
76.1332
88.7416
99.3982
112.291
115.699
120.773
123.359
124.012
123.385
123.661
124.214
125.218
125.824
-4.98059
-8.83449
-11.0207
-11.0789
-5.63458
-2.02921
36.3945
34.7691
43.1221
48.5605
55.295
57.617
55.6056
53.3881
51.4389
48.4289
46.6348
45.2906
43.8321
44.7536
46.4183
46.5835
47.4919
46.1338
44.2827
45.0568
46.174
57.7157
69.0123
79.1402
90.8402
100.627
107.431
110.483
110.39
109.221
108.615
107.899
107.901
108.469
1.49369
-2.09256
-2.81066
-1.51672
1.88188
13.5585
32.1894
35.4733
45.4204
56.8775
64.5089
64.0529
59.6683
56.0083
54.4233
52.2635
46.0046
41.2036
37.9555
35.4762
34.0654
33.2642
33.5384
32.0614
28.597
30.0206
29.3867
28.7964
29.4738
29.6787
53.3321
72.0687
76.6958
80.1371
83.5332
85.9458
87.6982
88.8704
90.4779
99.6943
7.12376
5.74019
4.7026
4.67762
14.4168
25.3798
32.5034
39.933
47.1486
56.9103
63.3426
63.4045
60.6826
49.3604
49.5862
40.8961
37.316
33.4057
29.7156
27.6902
26.3194
23.0425
28.9105
21.2346
23.5317
15.6843
7.5157
6.74502
2.18531
2.17363
6.03235
17.3415
31.2464
40.3132
49.981
58.6157
64.4379
69.5143
73.4199
83.9259
9.14802
7.65311
7.51146
14.9682
19.2536
22.5288
26.9601
29.6553
35.1163
38.8889
42.2926
41.6502
32.7064
43.3065
33.4243
36.7818
30.2237
22.9097
17.4762
15.8524
14.6693
11.1641
4.75694
-1.43063
-1.34499
0.0679765
-0.905817
-0.724342
-0.372742
0.0380846
0.517631
1.69705
6.59877
11.1618
18.9225
29.9398
39.8347
52.1793
60.1592
67.4265
10.4762
10.7369
3.87912
4.92595
10.7475
11.8747
7.16263
0.26788
-0.255075
2.76935
7.52715
16.4729
10.6669
28.7869
20.2611
26.69
20.7238
13.2678
7.58783
6.14924
7.91974
3.16837
-0.402075
-1.01014
-0.916116
-0.717022
-0.755385
-0.837895
-0.895142
-0.887735
-0.828317
-0.791597
-0.487506
-0.266085
-1.00725
1.24991
10.043
38.0821
46.6107
52.2545
12.0394
22.7952
5.05995
-5.73304
-1.77354
0.837211
0.751712
-0.476825
-0.290787
-0.585692
-0.349457
0.00672556
1.71222
7.15711
17.9034
9.61477
2.37959
0.122982
-0.571411
-0.887196
-0.85477
-0.823208
-0.797602
-0.768373
-0.81417
-0.778494
-0.82471
-0.858427
-0.896814
-0.845495
-0.725795
-0.62288
-0.60145
-0.552463
-0.490794
-0.397406
1.16346
25.5493
24.1625
26.5404
9.90519
7.13808
11.3545
0.907835
-0.518142
-0.73403
-0.695827
-0.649922
-0.664027
-0.665191
-0.603088
-0.542683
-0.569835
4.61887
0.244011
-0.743879
-0.822297
-0.836926
-0.830864
-0.826427
-0.832934
-0.865585
-0.845383
-0.850572
-0.838105
-0.805137
-0.790879
-0.781815
-0.768326
-0.719708
-0.670296
-0.660202
-0.668009
-0.654771
-0.656946
-0.729726
-0.864707
4.32962
-1.05864
4.08403
-0.844695
-0.831182
-0.831174
-0.826795
-0.797278
-0.792252
-0.790548
-0.776241
-0.757669
-0.779864
-0.814219
-0.895018
-1.04127
-1.0528
-0.994976
-0.948382
-0.97796
-0.926123
-0.915228
-0.894249
-0.885949
-0.883747
-0.873575
-0.86465
-0.856926
-0.848825
-0.831804
-0.797305
-0.775861
-0.710931
-0.692248
-0.717629
-0.742819
-0.749799
-0.754145
-0.782598
-0.827348
-0.856986
-0.987648
-0.579861
-0.920505
-0.888447
-0.884914
-0.889746
-0.86053
-0.856425
-0.843655
-0.835592
-0.837548
-0.844534
-0.855509
-0.886841
-0.916796
-0.960243
-0.965624
-0.94379
-0.933688
-0.901619
-0.930106
-0.939449
-0.932386
-0.931152
-0.92809
-0.90851
-0.904989
-0.891317
-0.886366
-0.889047
-0.859742
-0.811503
-0.792546
-0.796845
-0.822264
-0.838682
-0.838535
-0.847637
-0.86898
-0.889141
-0.848234
-0.772043
-0.860175
-0.885792
-0.908816
-0.913189
-0.908241
-0.90312
-0.904737
-0.908313
-0.905421
-0.904259
-0.914182
-0.922974
-0.943159
-0.961283
-0.983586
-0.986717
-0.956848
-0.997482
-1.00145
-0.990375
-0.975794
-0.964875
-0.956968
-0.94404
-0.947573
-0.942904
-0.94137
-0.940682
-0.940091
-0.930649
-0.911331
-0.91722
-0.936421
-0.926601
-0.919432
-0.913311
-0.908127
-0.891431
-0.859174
-0.833872
-0.884335
-0.917187
-0.932439
-0.939337
-0.938113
-0.939002
-0.942276
-0.947597
-0.953335
-0.933919
-0.972219
-0.982441
-0.998029
-1.01575
-1.02915
-1.04086
-1.04679
-1.04224
-1.03474
-1.02294
-1.01111
-1.0006
-0.991983
-0.991207
-0.986771
-0.982825
-0.986007
-0.993815
-1.00431
-1.01496
-1.02304
-1.02409
-1.01188
-1.00576
-0.995985
-0.971281
-0.954093
-0.94118
-0.918774
-0.896675
-0.932454
-0.939346
-0.948025
-0.955791
-0.96115
-0.96587
-0.970769
-0.977561
-0.987292
-0.998569
-1.00095
-1.02081
-1.03251
-1.04442
-1.0567
-1.06384
-1.0657
-1.06269
-1.05642
-1.04821
-1.03989
-1.032
-1.02695
-1.02198
-1.0195
-1.01944
-1.02419
-1.04439
-1.05965
-1.07472
-1.08761
-1.09081
-1.08497
-1.07815
-1.06327
-1.04454
-1.02161
-1.00271
-0.984406
-0.96198
-0.962834
-0.965328
-0.968775
-0.973945
-0.979524
-0.985951
-0.992946
-1.00127
-1.00901
-1.02208
-1.03502
-1.04802
-1.05908
-1.07048
-1.07839
-1.08367
-1.08454
-1.08245
-1.07763
-1.071
-1.06405
-1.05735
-1.05209
-1.04929
-1.04236
-1.04551
-1.06875
-1.08433
-1.10494
-1.12867
-1.14839
-1.15867
-1.16115
-1.15569
-1.14392
-1.11888
-1.089
-1.0702
-1.04651
-1.02406
-0.97596
-0.979719
-0.981383
-0.989192
-0.99496
-1.00178
-1.00968
-1.01657
-1.02604
-1.04543
-1.05765
-1.06966
-1.08103
-1.09188
-1.09968
-1.10415
-1.10551
-1.1044
-1.1006
-1.0946
-1.08854
-1.08305
-1.07617
-1.06304
-1.07181
-1.08101
-1.09621
-1.12458
-1.16505
-1.21002
-1.24911
-1.26697
-1.26391
-1.2424
-1.21927
-1.19144
-1.15881
-1.14084
-1.09435
-1.0719
-0.985409
-0.98885
-0.989527
-1.00217
-1.00857
-1.01621
-1.02556
-1.02967
-1.04482
-1.06051
-1.07412
-1.08648
-1.09812
-1.10879
-1.1166
-1.12161
-1.12462
-1.12511
-1.12204
-1.11526
-1.10758
-1.09824
-1.0785
-1.09315
-1.09347
-1.10314
-1.122
-1.15641
-1.21181
-1.28978
-1.37023
-1.39634
-1.37597
-1.32447
-1.28361
-1.26134
-1.18786
-1.16666
-1.11824
-1.09108
-1.00142
-1.00208
-1.00294
-1.01712
-1.02272
-1.02965
-1.03781
-1.04285
-1.05647
-1.07005
-1.08354
-1.09624
-1.1083
-1.11838
-1.12537
-1.13005
-1.13272
-1.13323
-1.1307
-1.12524
-1.11437
-1.10277
-1.09777
-1.09531
-1.10068
-1.11108
-1.13266
-1.16817
-1.22588
-1.31803
-1.39529
-1.41007
-1.37685
-1.33225
-1.29113
-1.25796
-1.20939
-1.15578
-1.11061
-1.07808
-1.01789
-0.974921
-1.01964
-1.03467
-1.03762
-1.04313
-1.04839
-1.05585
-1.05989
-1.07888
-1.09016
-1.1017
-1.11252
-1.12123
-1.12724
-1.13111
-1.13335
-1.13377
-1.13178
-1.12246
-1.11445
-1.10996
-1.10905
-1.08597
-1.09937
-1.10584
-1.11787
-1.13826
-1.16849
-1.21299
-1.2436
-1.26839
-1.254
-1.22733
-1.20624
-1.1849
-1.14983
-1.11968
-1.09411
-1.07766
-1.04308
-1.01315
-1.06513
-1.05679
-1.05187
-1.05388
-1.05597
-1.05985
-1.07008
-1.08043
-1.09664
-1.1071
-1.11602
-1.12306
-1.12732
-1.1306
-1.13273
-1.13306
-1.13319
-1.11981
-1.11806
-1.12135
-1.10798
-1.1245
-1.1137
-1.1105
-1.11079
-1.11577
-1.11665
-1.12033
-1.11981
-1.12669
-1.12693
-1.11398
-1.10177
-1.10844
-1.10322
-1.09655
-1.09276
-1.07077
-1.09232
-1.08541
-1.07859
-1.05867
-1.05573
-1.05632
-1.06114
-1.06248
-1.07656
-1.05637
-1.09849
-1.10944
-1.11864
-1.12622
-1.13173
-1.13439
-1.13586
-1.13652
-1.1381
-1.1323
-1.13136
-1.12295
-1.1279
-1.1157
-1.11795
-1.11456
-1.10945
-1.10388
-1.09232
-1.07517
-1.05622
-1.0458
-1.04753
-1.06502
-1.06857
-1.08301
-1.08362
-1.0858
-1.08826
-1.06681
-1.07602
-1.07109
-1.06606
-1.05828
-1.05625
-1.05785
-1.06622
-1.06944
-1.07766
-1.07282
-1.07841
-1.10977
-1.11764
-1.12405