/*--------------------------------*- C++ -*----------------------------------*\
  =========                 |
  \\      /  F ield         | OpenFOAM: The Open Source CFD Toolbox
   \\    /   O peration     | Website:  https://openfoam.org
    \\  /    A nd           | Version:  8
     \\/     M anipulation  |
\*---------------------------------------------------------------------------*/
FoamFile
{
    version     2.0;
    format      ascii;
    class       volScalarField;
    location    "4.7";
    object      p_rgh;
}
// * * * * * * * * * * * * * * * * * * * * * * * * * * * * * * * * * * * * * //

dimensions      [1 -1 -2 0 0 0 0];

internalField   nonuniform List<scalar> 
9150
(
1963.35
1962.35
1961.73
1961.25
1961.02
1961.02
1961.26
1961.74
1962.34
1963.35
1962.92
1962.4
1961.99
1961.66
1961.49
1961.49
1961.66
1961.99
1962.4
1962.92
1962.65
1962.36
1962.11
1961.89
1961.78
1961.78
1961.89
1962.11
1962.36
1962.65
1962.53
1962.35
1962.18
1962.03
1961.95
1961.94
1962.03
1962.18
1962.35
1962.53
1962.53
1962.34
1962.21
1962.08
1962.02
1962.02
1962.08
1962.21
1962.35
1962.53
1951.69
1950.78
1950.97
1951.41
1951.58
1951.57
1951.4
1950.96
1950.74
1951.65
1955.66
1954.95
1954.74
1954.68
1954.76
1954.74
1954.64
1954.7
1954.91
1955.63
1958.72
1957.97
1957.66
1957.3
1957.25
1957.26
1957.32
1957.67
1957.97
1958.71
1961.44
1960.32
1959.88
1959.24
1959.07
1959.08
1959.22
1959.86
1960.31
1961.43
1964.09
1962.01
1961.26
1960.54
1960.27
1960.27
1960.53
1961.25
1962
1964.08
1947.16
1945.45
1943.37
1942.35
1941.88
1941.93
1942.49
1943.53
1945.24
1946.36
1946.2
1945.97
1944.97
1944.53
1944.02
1944.03
1944.38
1944.66
1945.6
1945.77
1945.81
1945.87
1944.87
1945.21
1944.73
1944.68
1945.12
1944.71
1945.7
1945.59
1942.55
1945.29
1944.27
1945.8
1945.59
1945.56
1945.8
1944.18
1945.22
1942.44
1936.02
1945.89
1946.27
1947.78
1948.11
1948.08
1947.73
1946.19
1945.83
1935.95
916.894
917.51
918.624
919.465
920.156
921.078
921.134
922.172
920.629
918.289
914.704
916.468
918.367
920.071
921.561
921.791
922.155
921.162
921.024
917.585
910.239
913.373
916.491
919.109
920.644
919.934
920.178
919.096
918.022
914.604
904.798
908.995
912.585
915.148
916.671
916.83
914.605
912.769
911.714
908.502
898.212
902.537
906.381
909.007
910.761
911.565
907.223
905.127
904.38
901.589
891.788
896.39
900.084
902.827
904.922
905.747
898.321
896.569
898.165
896.509
887.309
891.836
895.565
898.589
900.456
901.279
892.489
889.438
888.536
895.589
885.247
889.964
893.787
896.659
896.859
899.262
897.734
886.801
886.413
892.12
886.994
891.299
894.324
894.773
896.388
901.356
902.546
886.794
885.897
884.663
891.041
892.579
893.052
895.672
898.895
905.275
905.929
894.773
888.569
888.986
895.558
893.85
896.195
898.617
902.649
908.258
909.579
909.045
898.802
895.803
899.812
901.508
900.045
901.129
903.898
908.261
911.764
914.615
915.986
916.42
903.119
905.089
907.237
909.007
910.34
910.534
912.484
916.174
917.671
918.701
907.641
908.706
909.71
911.265
913.102
914.682
916.088
917.557
918.813
919.687
912.559
913.352
914.017
914.843
915.813
916.807
917.961
919.335
920.155
920.6
917.061
917.9
918.463
918.841
916.168
887.71
903.899
920.956
921.812
921.8
921.227
920.589
894.322
863.043
850.517
847.151
847.959
872.864
906.196
908.133
862.353
850.045
849.434
849.452
849.562
849.862
850.612
851.959
853.38
855.217
882.429
877.876
858.63
851.483
851.782
852.304
853.129
857.802
866.747
880.617
934.626
940.082
932.601
922.023
918.69
917.702
923.793
934.207
939.435
942.839
944.801
946.668
947.724
948.02
947.596
946.733
945.326
943.811
941.61
928.599
941.435
918.911
920.149
925.022
952.447
949.692
945.936
937.785
914.718
885.217
919.462
922.792
925.076
925.412
923.449
919.125
912.326
913.869
925.095
900.459
958.568
964.003
959.015
948.073
963.713
960.744
950.211
935.371
914.412
896.097
963.241
970.113
975.254
976.342
973.114
964.003
946.297
927.987
911.323
891.392
957.533
949.569
939.662
918.863
917.003
893.575
845.552
771.943
712.127
657.523
900.372
884.889
869.793
824.165
708.872
600.173
525.848
504.025
496.629
490.084
875.013
891.54
900.275
802.14
534.739
500.16
497.191
494.847
491.073
486.865
860.489
881.035
876.937
842.358
598.278
497.115
496.516
494.971
493.921
493.355
813.836
821.371
829.908
843.39
846.859
683.926
619.31
629.307
639.874
587.763
725.307
749.903
770.054
790.145
812.161
835.765
865.807
896.574
916.293
917.053
435.973
579.564
687.851
766.157
787.042
805.099
836.599
872.847
885.703
903.137
453.113
448.727
476.603
784.368
796.049
804.14
818.807
795.89
615.41
592.741
591.767
470.799
487.448
606.173
737.958
727.109
618.675
704.746
442.618
443.403
779.58
586.164
472.562
296.763
315.343
338.131
481.405
695.592
423.98
425.009
412.651
405.944
333.706
199.44
203.206
226.085
648.518
716.151
421.423
422.05
253.452
251.014
197.917
192.544
192.998
352.04
815.908
766.383
431.47
430.618
249.847
205.98
181.054
183.566
183.764
449.813
854.103
821.197
445.492
446.061
216.671
177.803
176.072
176.643
176.545
423.306
850.13
871.973
708.889
453.878
174.833
175.178
175.396
174.718
173.875
233.132
808.698
874.999
869.642
547.566
177.593
177.105
176.638
175.545
174.659
173.882
505.283
876.478
897.046
887.644
186.037
177.355
176.986
176.357
175.693
174.997
331.506
860.326
905.729
917.073
513.268
351.541
244.657
213.825
199.391
216.641
508.107
906.32
923.008
928.629
852.592
760.54
620.786
553.695
551.136
614.566
827.6
898.695
933.271
939.904
958.134
951.736
811.009
813.38
744.843
561.016
348.699
430.631
719.417
936.24
963.856
971.521
978.358
984.791
639.996
313.742
313.411
313.668
324.439
777.343
969.489
982.79
993.261
1001.96
871.425
346.722
317.711
316.05
315.294
710.336
980.477
997.275
1009.07
1018.38
559.409
334.67
326.238
319.424
595.022
951.929
998.588
1010.6
1021.79
805.7
402.422
359.072
470.215
896.777
969.798
947.853
1014.78
1025.64
1036.16
989.173
761.832
937.864
1014.48
989.363
954.137
918.346
1030.62
1044.54
1050.06
1011.37
1072.6
1060.85
1020.1
957.993
774.441
565.996
1037.38
1034.42
1005.21
1045.51
1080.56
1037.37
901.442
553.389
92.5657
74.3321
1019.56
1008.87
1020.89
1008.1
947.884
982.373
348.489
111.187
85.1351
76.9898
1014.99
1015.43
964.927
884.444
857.939
867.175
212.569
177.497
327.4
94.8698
1025.45
960.722
960.014
975.166
861.097
868.875
248.33
408.444
651.216
282.693
1059.36
995.463
1030.38
1055.12
951.424
912.335
272.691
353.435
665.932
654.283
1081.25
1085.26
1083.79
1083.01
950.375
930.703
267.483
123.439
617.722
887.122
1046.78
1103.97
1103.52
1104.21
911.889
939.023
197.87
12.6044
135.916
932.498
1053.61
1014.94
1121.08
1034.68
919.087
956.989
138.352
4.70407
0.739478
221.245
621.045
305.544
455.978
209.791
932.169
1000.23
134.816
0.846559
0.275549
0.0312609
76.9828
75.2876
77.0679
186.657
967.738
1003.75
143.132
0.102648
-0.110767
-0.219246
74.9721
72.9808
72.0663
161.741
934.756
1010.65
74.0665
-0.236431
-0.253213
-0.215625
74.9264
73.6248
73.3457
142.789
880.331
988.254
39.3045
-0.225738
-0.209135
-0.196903
483.556
162.875
80.9405
117.17
852.32
964.191
20.0083
-0.188622
-0.175256
-0.161678
56.4944
151.926
153.255
93.3121
850.186
944.202
6.54165
-0.133233
-0.0894338
-0.116624
-0.0407958
39.3889
100.423
87.6709
859.429
946.866
4.89992
-0.0610945
0.141761
-0.0643014
0.101398
0.605297
96.7862
84.5551
911.475
981.908
9.5686
-0.0070119
0.380049
-0.0183942
0.314184
0.348427
83.1484
83.1248
1065.67
1094.48
50.6549
0.022152
0.878839
0.0623882
0.668329
0.464959
92.9313
109.651
1196.91
1192.61
116.968
0.0567819
0.893326
1.04062
0.77024
0.543012
106.812
200.826
1264.67
1259.02
203.112
0.0511266
0.822021
1.0563
1.57986
0.55478
131.869
291.302
1289.54
1301.35
280.465
0.00176446
0.735029
1.0428
3.25657
0.532297
158.173
321.518
1312.86
1314.05
308.283
-0.0215759
0.0964823
0.440948
3.92143
0.533884
157.943
319.615
1315.54
1337.35
292.026
-0.061033
0.035634
0.120278
4.02905
0.576133
142.666
255.193
1302.62
1340.44
219.277
-0.0735215
0.0609512
0.107349
3.98539
0.633589
157.404
192.631
1298.46
1326.04
167.16
-0.0741341
-0.067762
0.0329124
2.0953
0.888491
183.578
166.708
1313.03
1322.13
147.337
-0.0586134
-0.0660709
-0.0737303
2.06655
7.20301
171.508
165.918
1335.3
1334.97
145.271
-0.0437766
-0.0545523
-0.0628692
7.47184
12.268
51.003
171.881
1384.08
1385.93
173.569
-0.046524
-0.0508518
-0.0552796
2.79941
3.49282
0.527091
238.732
1441.37
1443.33
240.265
-0.0438077
-0.0438874
-0.0485414
0.75283
0.316456
0.367255
309.409
1491.19
1489.08
309.282
-0.0392868
-0.0295691
-0.0175526
0.877608
0.725766
0.156638
356.604
1524.48
1522.4
356.137
-0.0311946
-0.0173662
0.107607
0.88879
0.525428
0.0889931
388.83
1550.7
1550.96
389.107
-0.024281
-0.013933
0.13879
0.682218
0.367552
0.0656194
426.973
1577.32
1579.76
428.004
-0.020158
-0.0103103
0.152697
0.263228
0.241513
0.0487112
492.005
1609.41
1609.75
492.731
-0.014532
-0.0118928
0.123936
0.0778116
0.200476
0.0318371
577.878
1642.71
1637.81
575.76
-0.00511453
-0.00614381
0.0622151
0.0358759
0.475745
0.0316577
667.073
1673.71
1662.14
659.338
0.00679066
0.00393364
-0.00590247
0.676274
0.661848
0.0604023
735.982
1696.36
1687.97
732.461
0.0047917
0.00870146
-0.00550631
0.318774
0.165786
0.0372983
793.2
1718.07
1711.88
790.316
-0.00488092
0.00214943
-0.00975256
0.0308163
0.0339184
0.0282837
865.356
1738.18
1737.61
864.965
-0.0166341
-0.00964797
0.0206582
0.0367034
0.0298428
0.0301436
988.19
1757.49
1762.5
994.144
-0.0258222
-0.0157488
0.0196685
0.187462
0.023026
0.0144965
1173.68
1781.64
1778.37
1171.89
-0.0146076
-0.0137452
0.0187096
0.233109
0.0219879
0.0326803
1353.23
1798.46
1798.77
1352.89
-0.00794139
-0.0155903
0.0314367
0.131205
0.0177198
45.5649
1492.93
1815.56
1818.45
1495.75
53.7514
-0.0134632
0.0405469
0.0547294
0.0178069
207.541
1623.9
1837.12
1835.36
1615.65
188.869
-0.0098015
0.0306903
0.0523589
0.0277108
448.303
1761.59
1855.51
1854.06
1745.4
369.992
-0.013701
-0.0136878
0.0628241
0.0436345
846.156
1854.97
1873.73
1873.47
1839.16
670.994
-0.0170838
-0.0138476
0.0670901
0.0802013
1297.21
1892
1892.7
1892.45
1890.95
1145.65
0.00640484
-0.00745712
0.048185
154.912
1630.13
1909.57
1911.11
1911.39
1910.89
1700.96
187.177
-0.00335122
0.0125813
1104.99
1926.51
1926.86
1926.72
1926.88
1926.87
1926.27
1104.68
-0.00368837
650.021
1888.87
1939.78
1937.77
1936.79
1936.54
1937.18
1938.92
1871.53
640.354
915.002
910.465
906.005
901.123
896.523
892.172
887.74
884.417
881.493
879.073
877.588
877.284
877.999
879.739
882.486
886.386
891.8
898.539
905.407
910.72
913.682
914.02
911.84
908.465
903.975
901.802
902.034
901.416
902.146
903.094
903.618
903.781
904.379
905.324
906.063
906.468
906.269
905.797
905.54
905.731
914.468
908.865
904.027
899.03
894.078
888.99
884.657
881.214
878.289
876.186
874.919
874.663
875.085
876.126
877.501
880.222
884.998
891.694
899.375
906.2
909.769
909.442
906.791
904.28
901.48
899.473
899.215
899.75
899.257
900.004
900.757
900.257
902.398
903.635
904.734
905.29
905.328
904.982
904.567
904.932
910.356
904.862
899.082
893.973
889.06
883.419
878.205
874.439
870.964
868.246
866.983
866.464
867.446
868.266
868.566
870.065
873.23
878.587
886.322
894.554
898.469
897.828
896.024
896.568
897.671
899.166
900.592
901.8
897.126
897.877
898.987
898.772
900.151
903.156
905.102
905.507
905.727
905.782
904.917
905.07
904.097
898.148
892.861
887.949
882.736
875.092
867.573
864.368
859.565
859.081
859.187
862.746
860.035
857.76
855.661
853.638
857.078
860.576
868.598
879.973
884.62
877.73
877.892
885.483
891.431
894.821
897.704
899.591
900.225
898.328
900.344
900.332
904.611
905.741
906.04
906.177
906.315
906.272
905.125
905.32
897.962
891.966
884.322
879.662
874.637
853.663
837.811
839.13
849.154
849.455
851.21
852.126
836.517
836.12
840.448
835.129
833.822
831.475
838.788
863.305
888.259
867.665
867.636
873.324
892.877
896.091
898.545
900.274
901.804
903.553
904.362
905.843
906.731
907.247
907.129
906.955
906.892
907.045
907.041
906.228
893.321
888.33
881.519
871.643
864.718
835.936
826.32
822.075
820.485
824.071
838.87
868.536
873.202
874.623
869.023
843.167
826.935
829.437
832.788
839.417
882.778
876.31
866.008
866.4
892.504
898.67
900.082
901.341
902.667
903.98
905.175
906.441
907.401
907.847
907.593
907.531
907.226
907.795
908.871
907.839
893.257
889.816
885.394
877.87
872.199
847.935
829.231
828.27
828.563
844.83
870.76
876.527
879.939
882.459
885.081
887.494
890.583
849.597
830.092
834.923
890.137
895.924
866.922
867.675
876.378
900.149
901.281
902.31
903.31
904.386
905.433
906.523
907.49
907.105
907.672
907.797
907.665
908.746
910.878
912.062
895.584
893.696
891.079
888.352
885.505
878.29
855.232
856.084
872.077
866.927
867.042
875.514
884.263
886.207
887.745
887.633
863.101
807.486
813.689
824.142
898.738
902.698
864.347
866.836
884.213
902.644
903.397
904.123
904.814
905.462
906.135
906.628
905.254
905.626
907.603
906.413
901.82
899.938
903.459
908.05
890.318
894.517
894.134
894.878
893.035
891.285
890.348
890.181
890.475
877.916
874.686
876.464
891.587
892.389
876.711
819.254
795.762
797.623
800.545
809.621
894.288
908.262
879.361
874.74
903.928
904.597
904.1
906.466
906.831
906.954
906.778
900.141
899.375
905.233
895.593
876.937
868.571
870.228
870.912
871.459
888.66
888.08
887.559
886.603
888.294
896.826
898.326
897.335
897.478
884.554
882.394
892.018
901.633
895.113
811.412
793.216
794.399
794.659
794.587
791.73
857.071
909.268
916.117
885.122
908.064
905.157
901.904
901.497
902.506
901.589
901.798
901.043
893.698
863.235
860.802
862.189
863.858
865.841
866.635
866.669
895.513
898.52
904.044
901.741
896.134
894.623
901.699
906.003
904.296
888.695
891.873
913.443
912.613
882.042
793.572
793.845
793.697
793.908
793.752
792.599
838.06
913.777
919.828
874.971
896.083
909.544
908.737
881.205
860.412
858.043
856.919
858.604
853.449
853.851
855.715
857.905
859.228
861.022
862.145
869.856
916.97
918.066
918.624
918.191
912.426
909.499
913.213
913.237
905.853
893.286
899.065
921.882
921.655
891.779
793.857
793.647
793.558
793.441
792.895
791.571
871.358
926.254
925.361
878.446
875.172
917
911.965
862.638
858.109
855.737
853.089
850.592
848.847
848.709
850.399
853.278
865.52
897.322
895.409
905.536
919.692
920.807
921.691
921.911
921.175
919.914
918.705
917.791
908.226
895.295
896.529
921.722
925.684
926.163
866.538
805.475
793.932
792.806
799.41
873.507
926.567
927.437
928.019
928.661
893.814
880.23
888.126
900.318
858.139
854.098
850.413
847.94
846.595
856.021
861.214
854.132
897.909
916.717
919.625
913.177
920.516
921.411
922.386
922.876
922.775
922.303
921.778
921.158
920.668
894.126
893.618
898.942
925.058
927.153
927.991
913.111
907.559
901.968
909.801
926.363
927.738
927.619
927.513
927.462
927.091
888.641
904.851
911.408
889.392
868.603
852.318
849.407
877.316
911.129
910.153
903.977
904.908
920.433
922.53
923.749
920.673
920.472
921.639
922.628
923.314
923.543
923.57
923.526
923.581
910.696
891.954
892.553
896.586
925.198
927.608
928.622
929.282
929.476
929.451
929.181
928.746
928.249
924.22
925.633
925.973
923.903
895.601
882.419
913.945
913.35
911.864
914.976
916.359
918.332
919.337
920.259
921.765
926.383
927.568
928.299
921.155
919.148
917.044
921.319
923.269
924.41
925.141
925.592
925.825
926.206
896.516
890.87
891.245
892.443
922.442
928.031
928.813
929.289
929.557
929.638
929.754
926.474
923.835
922.875
927.179
923.386
855.936
841.994
841.384
860.448
913.595
924.152
924.518
925.056
919.057
927.101
931.767
932.006
932.07
932.415
888.29
874.369
898.44
924.001
925.323
925.844
926.142
926.444
926.718
927.207
893.351
889.524
889.856
890.143
891.891
924.211
929.408
923.53
923.39
929.653
930.45
930.167
925.697
930.83
930.657
910.448
839.25
842.416
844.432
844.742
845.417
882.201
932.842
921.906
915.023
926.947
935.55
934.819
934.371
933.108
856.293
871.702
927.07
929.601
929.053
928.577
928.003
927.552
927.204
896.91
888.24
888.533
888.774
889.013
889.317
907.897
931.227
920.368
918.966
919.607
925.495
932.696
933.632
934.295
934.403
934.634
909.939
843.443
844.565
844.961
901.191
933.153
905.678
906.023
916.355
937.894
937.565
936.749
935.864
907.901
915.959
940.147
936.896
934.316
932.404
930.982
929.838
928.923
928.144
912.188
886.86
887.152
887.362
887.761
888.283
915.117
928.259
918.034
918.756
919.652
925.285
933.261
934.179
934.989
935.638
936.525
938.115
925.201
891.46
904.232
928.14
928.183
903.127
935.187
939.164
939.043
938.325
938.323
928.611
898.344
943.12
941.221
938.807
936.352
934.301
932.356
930.889
929.76
928.768
928.043
918.116
900.92
904.612
917.422
921.607
917.226
917.463
918.012
918.644
923.975
933.222
933.905
934.562
935.459
932.665
927.737
936.802
938
939.032
938.48
904.579
888.383
898.584
939.478
940.648
940.386
940.167
938.99
901.878
897.869
919.487
914.913
916.589
923.104
930.656
931.349
930.171
929.151
928.051
927.319
927.036
927.219
927.782
928.607
929.415
916.23
916.927
917.587
926.66
932.939
933.6
934.265
935.026
935.969
917.197
911.332
911.981
934.861
941.135
926.394
885.495
885.374
931.851
940.057
938.527
939.799
943.084
940.261
898.563
898.876
873.923
871.573
863.041
857.085
851.759
874.344
916.132
926.409
925.238
924.646
924.854
925.255
925.762
926.477
927.523
926.988
923.519
929.137
932.152
932.705
933.245
934.012
935.196
936.641
919.506
911.234
912.43
927.437
934.71
886.74
882.691
881.86
934.778
941.953
939.827
941.217
944.57
944.563
934.624
902.279
909.417
922.252
926.674
866.232
826.199
823.562
821.07
819.999
826.029
901.485
921.733
922.038
922.629
923.214
924.843
927.023
929.793
931.216
932.132
927.111
871.307
870.663
910.135
936.408
938.963
924.405
927.935
939.3
894.332
883.191
882.739
881.248
933.227
943.894
944.193
945.582
947.485
948.508
951.054
933.05
893.325
905.508
917.42
875.544
876.126
858.789
810.575
811.586
812.912
814.524
816.756
822.679
826.393
829.197
831.057
842.332
918.132
901.227
857.831
852.987
853.623
853.97
854.399
876.086
931.528
944.136
947.463
949.715
950.654
910.944
884.475
883.281
901.444
947.217
948.381
950.216
951.749
954.372
956.152
931.723
867.828
868.526
826.993
603.784
636.009
846.56
869.772
876.095
877.339
848.639
846.411
867.163
890.478
906.255
914.384
911.7
919.415
927.453
915.758
851.306
852.142
852.614
899.641
939.153
942.344
944.693
947.328
950.092
951.929
953.987
944.49
886.217
887.064
909.042
954.201
957.373
956.937
961.542
963.461
900.387
596.139
572.94
515.657
512.573
520.05
527.287
625.103
850.171
904.666
912.41
917.399
919.856
921.526
923.233
924.569
926.484
929.078
931.602
933.444
926.5
918.655
926.765
938.299
940.265
941.771
943.504
945.61
942.855
939.733
950.962
955.915
957.997
897.757
901.128
948.55
954.017
965.163
969.198
970.613
888.809
485.126
483.276
486.968
493.655
504.318
516.229
525.152
534.902
730.563
909.76
908.504
908.492
918.754
919.534
920.013
922.515
927.066
930.151
932.852
934.611
935.881
936.929
935.197
936.581
941.077
942.545
944.541
946.25
902.576
918.609
958.28
964.552
963.354
948.754
951.055
953.277
975.627
977.073
935.594
870.843
481.676
477.909
480.4
487.945
501.089
515.811
529.469
534.976
541.846
680.075
746.541
714.929
692.595
714.284
821.728
918.771
923.817
928.386
931.717
934.024
935.62
936.515
926.53
925.83
927.085
937.022
943.981
942.437
877.56
894.042
953.912
968.577
974.561
974.455
962.786
977.579
982.562
982.059
892.239
869.292
493.079
495.384
499.873
506.498
514.264
521.755
563.131
642.221
671
766.525
725.9
692.197
691.488
688.769
698.567
887.185
924.361
926.788
928.732
930.515
932.37
932.64
934.043
936.02
938.487
923.09
814.053
817.071
849.708
915.354
964.361
972.357
978.779
983.378
983.908
986.095
985.695
939.784
866.931
867.282
516.329
511.074
513.206
534.881
678.883
853.384
924.608
940.299
912.121
914.007
906.115
892.957
893.113
892.594
871.954
888.343
917.437
923.667
924.038
925.255
928.094
931.64
934.328
937.174
925.31
802.69
803.523
816.186
907.196
957.323
969.102
975.817
981.329
984.693
955.1
982.444
973.359
949.465
864.993
865.37
840.742
768.437
840.832
916.05
935.469
936.399
936.08
936.43
933.102
931.849
906.532
884.536
885.647
883.673
784.163
824.377
913.141
916.268
916.826
917.472
921.827
927.606
901.596
800.621
806.148
830.826
878.565
934.066
956.389
964.821
972.009
978.328
975.566
964.107
947.52
948.686
947.186
952.327
930.643
880.195
926.216
931.355
926.445
925.637
923.891
924.827
925.715
925.475
914.739
912.56
880.121
764.832
760.813
761.381
763.816
819.402
883.99
890.377
906.182
913.513
918.202
810.684
781.517
853.778
903.206
939.196
949.746
956.036
962.742
969.597
962.852
956.305
955.069
957.425
959.958
976.549
973.94
980.523
980.559
974.121
744.881
840.658
887.579
902.682
911.703
916.359
917.564
913.9
912.658
906.4
894.338
758.061
754.398
755.115
816.488
840.459
760.377
692.177
913.931
923.618
787.469
763.86
794.257
941.814
946.345
950.834
955.768
961.475
955.992
941.086
947.121
951.961
970.466
976.572
983.963
982.339
977.539
979.028
978.25
978.54
441.132
524.962
788.487
884.77
900.831
909.109
912.307
914.989
915.241
914.007
898.042
780.459
754.074
822.014
742.252
580.668
527.686
533.999
641.256
692.74
697.168
864.45
942.059
948.696
952.19
955.813
959.049
929.321
932.458
938.289
957.559
979.511
982.776
984.278
981.308
979.674
978.232
976.821
976.112
975.912
423.672
420.277
583.712
860.689
897.335
908.35
914.392
915.36
920.491
920.896
857.72
788.282
851.614
755.313
526.71
530.341
534.615
538.935
542.34
548.559
795.597
921.047
955.111
956.751
958.203
958.286
922.004
924.943
929.005
959.018
972.809
975.435
977.722
976.685
976.173
975.691
974.814
973.616
972.668
972.15
419.415
422.66
466.443
837.165
903.508
914.905
920.599
919.784
928.133
932.523
873.924
809.322
940.285
950.071
816.266
564.351
546.19
547.72
549.182
579.584
874.409
929.299
964.065
963.184
962.231
930.88
920.532
921.279
940.723
965.561
967.947
965.658
950.767
955.883
969.333
969.732
969.07
967.883
965.829
964.911
432.304
442.463
450.567
764.636
918.819
928.491
934.524
933.113
928.984
946.159
914.214
820.764
944.341
963.183
967.308
941.103
846.834
726.789
658.669
740.718
876.11
889.384
970.887
968.309
951.334
919.728
917.421
918.874
960.411
962.008
920.736
913.413
914.068
914.217
955.631
964.234
962.688
946.349
815.517
802.206
451.073
456.831
469.693
796.375
938.342
945.066
950.255
952.927
920.767
953.465
951.705
905.67
838.583
972.493
978.344
983.042
985.647
982.215
959.477
959.713
924.551
852.718
951.809
970.772
953.653
917.475
913.069
938.833
952.86
956.647
921.344
909.671
919.501
925.504
870.34
806.811
707.326
661.736
456.643
456.931
460.125
465.977
516.613
910.611
957.109
962.677
966.795
970.285
911.534
762.426
783.126
789.767
823.129
946.454
983.49
981.638
964.09
974.973
972.205
965.697
855.413
843.898
944.116
968.361
962.25
938.305
934.758
945.26
941.962
935.285
918.062
947.46
953.121
952.403
674.158
450.7
452.057
463.025
452.976
453.528
465.66
474.967
517.374
929.761
973.142
978.788
983.869
989.659
886.867
668.017
669.757
669.536
866.719
993.714
987.578
958.833
653.426
684.254
925.808
929.026
835.172
833.68
971.111
966.594
960.803
954.094
947.287
941.254
938.435
880.963
753.715
934.851
948.707
931.073
547.363
447.145
449.377
450.82
450.334
450.613
614.98
493.278
611.286
900.679
986.925
994.212
1002.22
1010.51
942.603
678.049
677.987
676.6
893.458
1009.54
1004.03
905.069
475.514
459.263
921.642
954.001
838.763
893.09
974.07
968.924
962.649
956.386
893.368
769.62
628.434
491.292
474.679
905.57
950.625
962.114
818.616
469.141
455.879
581.646
458.187
694.767
928.899
877.551
868.682
883.373
1000.5
1008.59
1018.62
1028.75
1034.31
843.49
687.315
687.676
830.708
1025.78
1022.94
990.65
570.42
448.649
837.038
1002.97
959.445
984.88
980.738
973.975
923.412
608.354
408.181
345.164
335.916
336.956
457.866
925.774
962.42
958.725
949.179
860.616
857.281
987.006
862.651
991.257
937.066
948.931
957.904
957.627
1009.41
1019.76
1030.69
1042.32
1051.21
1028.66
694.152
693.512
702.659
1026.86
1039.83
1036.89
842.199
450.442
552.343
1020.84
1007.52
999.17
990.14
871.922
533.057
332.64
332.796
333.303
333.505
333.942
753.923
956.118
962.139
793.962
960.886
973.754
985.243
988.987
989.843
991.424
883.233
906.808
953.926
972.755
980.822
975.995
990.34
991.372
1062.14
1064.44
757.812
702.068
699.916
962.495
1054.7
1051.16
1039.09
585.431
455.812
878.965
1014.14
1008.94
861.068
464.259
331.8
330.204
329.897
330.538
331.3
444.395
957.544
968.417
844.87
757.714
886.168
884.409
986.964
989.905
991.592
992.7
860.445
846.49
848.511
925.367
965.401
936.884
854.88
796.14
941.825
1082.36
930.631
714.309
762.616
1045.38
1064.08
1049.19
1046.38
907.575
437.408
452.501
918.05
1030.15
551.292
333.963
331.113
329.93
329.768
329.818
329.353
691.152
978.218
833.428
753.305
748.691
672.751
669.279
975.651
995.18
994.161
994.946
924.346
868.446
846.271
846.222
922.094
951.515
908.308
778.847
787.388
1038.26
1046.33
754.022
890.828
1077.33
1069.7
952.434
943.607
975.064
560.436
376.971
429.947
581.206
343.837
334.841
333.71
332.817
332.479
331.84
330.825
832.405
982.662
962.314
764.172
919.003
866.697
673.652
708.496
1007.57
881.77
926.623
942.369
938.583
867.216
845.156
914.381
949.522
973.351
990.796
704.273
906.811
1059.93
777.92
936.312
1077.81
1014.28
870.798
872.304
988.245
875.275
368.91
362.898
349.678
343.415
341.213
339.418
337.945
336.782
335.747
433.066
927.28
990.379
987.747
987.146
1008.7
1010.66
856.09
655.864
757.347
505.045
703.411
947.018
936.77
925.251
917.759
907.841
936.379
960.464
966.718
640.838
787.745
1070.78
779.459
953.757
1072.87
959.291
868.099
862.494
986.254
1012.53
581.956
388.297
410.421
405.702
409.973
405.33
422.734
441.24
529.31
872.333
996.377
987.962
975.839
976.565
1016.02
1025.6
1026.08
791.141
476.592
489.613
902.69
932.719
917.923
901.272
881.636
778.497
537.717
593.741
683.214
408.347
652.882
1053.55
752.329
907.086
1064.52
1000.24
864.168
862.62
886.997
1056.36
1015.14
909.477
937.879
957.787
966.413
967.992
980.252
988.079
1014.12
1048.02
1046.43
999.514
996.175
1026.86
1041.87
1040.06
711.885
353.285
394.204
537.395
1003.95
851.218
714.859
520.719
391.483
154.734
100.746
111.988
127.137
252.025
723.806
1024.15
868.043
867.397
1041.84
1037.83
937.947
860.295
968.676
1055.12
1055.72
1057.45
1060.34
1064.6
1062.76
1059.92
1059.36
1059.86
1060.43
1060.96
1061.35
1058.79
1058.04
1059.09
1055.16
685.452
321.521
323.795
333.203
858.763
1009.19
192.011
66.3426
62.5581
64.8049
70.852
81.5314
97.2518
183.538
615.654
942.145
1017.84
1038.5
869.961
778.848
995.086
1013.37
1019.73
1055.62
1052.58
1048.78
1046.7
1049.67
1054.12
1032.62
986.026
1045.48
1063.04
1064.08
1065.19
1067.42
1070.62
1072.16
1070.64
873.769
325.716
318.939
319.089
354.177
904.685
1018.01
63.4534
52.9035
49.3091
53.0603
61.2846
68.7213
151.941
781.007
927.609
939.041
1010.3
1041.56
859.478
730.034
729.258
802.159
890.166
917.227
858.771
824.349
882.035
1054.02
1049.04
688.259
446.902
471.862
586.257
588.293
618.54
747.526
986.93
1087.24
1033.34
470.771
316.755
316.031
314.866
428.35
692.123
1029.43
72.3859
67.2735
63.3043
61.2428
65.7783
164.127
793.842
954.665
968.67
914.597
949.602
1052.79
970.46
738.421
728.315
729.015
732.056
733.419
733.69
730.602
727.719
810.224
787.118
560.981
408.188
409.078
407.641
405.947
408.805
412.15
440.381
573.241
489.496
314.46
315.407
314.663
314.342
314.789
520.832
1032.32
93.3867
91.0966
88.7939
88.6691
393.016
894.106
1018.21
979.615
919.699
929.296
983.95
1065.06
1070.97
988.4
860.389
743.032
737.669
738.692
796.151
736.083
734.95
738.039
743.517
997.856
899.849
651.661
406.907
406.313
409.706
461.947
399.607
318.661
316.325
316.11
316.893
317.686
318.685
319.896
576.644
1028.52
108.38
106.528
346.862
885.536
1007.28
1040.5
1045.98
1044.21
982.592
985.389
1068.47
1079.37
1085.45
1091.93
1088.09
1066.14
1037.58
1034.58
1034.4
1033.94
981.514
950.092
1028.97
1088.86
1092.11
1079.16
968.814
900.812
954.018
995.689
961.653
848.965
615.665
335.693
316.574
378.395
638.175
929.094
817.384
1016.37
154.47
697.556
1049.48
1055.45
1059.62
1063.22
1067.3
1072.24
1077.36
1082.41
1087.41
1092.43
1095.73
1097.63
1097.82
984.78
906.304
931.54
922.918
884.157
892.622
990.612
1089.71
1093.56
1096.41
1098.45
1100.89
1103.08
1105.8
1107.88
1109.62
1110.78
1094.76
978.304
957.225
1017.38
1107.47
1123.52
1046.3
1054.21
780.14
947.56
1074.43
1077.1
1057.19
1042.42
1036.86
1030.81
1039.59
1028.74
987.199
1063.16
1093.42
944.455
565.412
429.378
464.839
531.375
518.67
505.824
538.413
569.219
741.016
987.924
1100.05
1102.74
1104.94
1107.43
1108.97
1111.05
1112.64
1113.58
1115.08
1116.99
1117.54
1120.24
1124.72
1129.28
1133.48
1060.21
1088.5
1088.1
1110.58
1034.54
660.254
426.423
268.386
212.74
212.165
324.366
505.114
562.904
368.853
205.661
209.027
449.905
483.511
484.451
445.293
508.344
480.282
476.547
476.745
560.645
816.337
938.485
924.58
911.46
870.364
897.665
841.775
808.36
859.439
862.45
939.538
1053.23
1124.84
1130.91
1134.01
957.641
887.643
1122.28
1126.97
950.48
293.17
133.837
1.29829
1.34077
0.972323
14.82
13.3992
8.61193
1.51005
0.56259
0.156977
-0.155427
0.575841
16.4851
144.434
355.5
488.388
487.695
479.025
420.141
320.901
294.371
300.271
304.236
310.238
441.979
598.67
474.074
475.298
477.22
491.237
537.191
724.86
1138.27
993.276
911.22
42.1186
329.21
388.302
204.505
5.32114
0.128236
1.04041
1.04831
0.83809
0.798491
0.719643
0.451698
0.0965872
-0.173098
-0.177539
-0.169366
-0.072175
-0.116501
-0.167475
-0.242526
1.80799
74.0852
106.092
84.4052
52.2473
316.722
501.153
504.725
501.469
535.62
548.73
506.603
492.263
489.746
447.933
451.066
520.871
757.189
614.388
909.909
-0.231403
-0.15704
-0.129829
-0.112356
-0.115701
0.0404043
1.08637
0.353934
-0.163406
-0.169926
0.11102
0.504951
-0.0228218
-0.180369
-0.189243
-0.192026
-0.186498
-0.187758
-0.194219
-0.201104
-0.223816
-0.229187
2.27855
30.0062
44.1469
24.0864
0.162423
0.422561
52.7397
135.093
179.888
211.149
283.343
408.943
402.629
453.659
442.526
447.622
600.137
919.996
-0.172764
0.527117
0.768068
0.0250983
-0.0551484
0.168722
1.09689
-0.013108
-0.193666
-0.215098
-0.158583
0.298733
0.0414272
-0.238016
-0.255801
-0.271679
-0.283747
-0.16673
0.196221
0.096314
-0.151191
-0.0965364
-0.0604849
-0.0350706
-0.0233903
-0.0073912
0.00522928
0.0140217
0.0257235
0.0293911
0.0289855
0.0327198
0.133233
52.3893
146.104
314.517
437.382
557.564
759.662
938.434
-0.158214
0.293546
0.851806
0.0112567
-0.0371768
0.175787
0.537215
-0.15846
-0.185127
-0.215316
-0.210268
0.106791
0.0228487
-0.292118
-0.318574
-0.344611