/*--------------------------------*- C++ -*----------------------------------*\
  =========                 |
  \\      /  F ield         | OpenFOAM: The Open Source CFD Toolbox
   \\    /   O peration     | Website:  https://openfoam.org
    \\  /    A nd           | Version:  8
     \\/     M anipulation  |
\*---------------------------------------------------------------------------*/
FoamFile
{
    version     2.0;
    format      ascii;
    class       volVectorField;
    location    "4.7";
    object      U;
}
// * * * * * * * * * * * * * * * * * * * * * * * * * * * * * * * * * * * * * //

dimensions      [0 1 -1 0 0 0 0];

internalField   nonuniform List<vector> 
9150
(
(0.00491788 -0.0779997 0)
(0.0130924 -0.0973568 0)
(0.0108544 -0.104251 0)
(0.00895243 -0.107529 0)
(0.00252308 -0.109198 0)
(-0.00227447 -0.109321 0)
(-0.00847826 -0.108019 0)
(-0.0108742 -0.10432 0)
(-0.0130711 -0.0974187 0)
(-0.00494123 -0.0780418 0)
(0.00596972 -0.0920034 0)
(0.00863587 -0.100501 0)
(0.00736514 -0.102189 0)
(0.00428189 -0.10465 0)
(0.00180777 -0.105545 0)
(-0.00194615 -0.105424 0)
(-0.00439485 -0.104393 0)
(-0.00737294 -0.102227 0)
(-0.00862337 -0.100543 0)
(-0.00597313 -0.0920345 0)
(0.00177786 -0.0954419 0)
(0.0046067 -0.0989643 0)
(0.00373397 -0.100964 0)
(0.00334671 -0.10165 0)
(0.00115094 -0.102308 0)
(-0.000708897 -0.102464 0)
(-0.00334729 -0.101701 0)
(-0.00370944 -0.101035 0)
(-0.0045868 -0.099006 0)
(-0.00177943 -0.0954659 0)
(0.00177316 -0.0984236 0)
(0.00249318 -0.100392 0)
(0.00219818 -0.100224 0)
(0.00129262 -0.100847 0)
(0.000328563 -0.100929 0)
(-0.000838009 -0.100864 0)
(-0.00136006 -0.100677 0)
(-0.00216216 -0.100301 0)
(-0.00247479 -0.100416 0)
(-0.00176294 -0.0984325 0)
(0.000194721 -0.0994967 0)
(0.000733081 -0.0995679 0)
(0.000503025 -0.0999857 0)
(0.000712231 -0.0998548 0)
(0.000292401 -0.100107 0)
(-0.00011374 -0.100123 0)
(-0.00054717 -0.0999936 0)
(-0.000446968 -0.100023 0)
(-0.000729325 -0.0995753 0)
(-0.000191369 -0.0994947 0)
(0.0763942 -0.194983 1.79165e-26)
(0.0495664 -0.185169 0)
(0.0312958 -0.176884 0)
(0.016374 -0.174458 0)
(0.00511353 -0.176112 0)
(-0.00405574 -0.176108 0)
(-0.0156927 -0.175073 0)
(-0.0309208 -0.17639 0)
(-0.049543 -0.185165 0)
(-0.0763734 -0.195075 -1.81889e-26)
(0.0583959 -0.146383 4.84212e-27)
(0.0482843 -0.14643 0)
(0.0279235 -0.156194 0)
(0.0200055 -0.157571 0)
(0.00337286 -0.1561 0)
(-0.00585266 -0.155753 0)
(-0.0213727 -0.156071 0)
(-0.0284535 -0.156404 0)
(-0.0483425 -0.146515 0)
(-0.0584287 -0.146422 -4.71654e-27)
(0.047736 -0.121609 2.28684e-27)
(0.0423689 -0.131419 0)
(0.0299388 -0.133875 0)
(0.0179381 -0.136448 0)
(0.00640938 -0.139902 0)
(-0.00572715 -0.140491 0)
(-0.0175251 -0.138936 0)
(-0.02953 -0.13422 0)
(-0.0422012 -0.131384 0)
(-0.0476568 -0.121605 -2.4538e-27)
(0.0373403 -0.0995776 3.61027e-27)
(0.0389967 -0.11032 0)
(0.0224118 -0.120468 0)
(0.0177403 -0.125527 0)
(0.00523049 -0.125341 0)
(-0.00349673 -0.125094 0)
(-0.0171746 -0.12469 0)
(-0.022458 -0.120265 0)
(-0.0390758 -0.110311 0)
(-0.0373528 -0.0995499 -3.61652e-27)
(0.0249109 -0.0814183 -1.19502e-26)
(0.0280895 -0.101076 -1.41048e-26)
(0.0198589 -0.108147 -3.55901e-27)
(0.0106085 -0.11409 -3.19478e-27)
(0.00384498 -0.116971 -1.31801e-28)
(-0.00515343 -0.116735 -1.18986e-28)
(-0.0113912 -0.113754 -3.13883e-27)
(-0.0200815 -0.108285 -3.52588e-27)
(-0.0281367 -0.10111 -1.41179e-26)
(-0.0249562 -0.0814286 -1.19662e-26)
(0.0184188 -0.144872 0)
(0.0137367 -0.204185 0)
(0.0239998 -0.215056 0)
(0.0125319 -0.222085 0)
(0.0104819 -0.22574 0)
(-0.00498904 -0.226156 0)
(-0.00574694 -0.225563 0)
(-0.0207435 -0.218405 0)
(-0.0118463 -0.205165 0)
(-0.0172841 -0.144589 0)
(0.0163234 -0.165792 0)
(0.00182284 -0.199328 0)
(0.0149576 -0.209209 0)
(0.00188931 -0.213892 0)
(0.00596867 -0.2143 0)
(-0.0052917 -0.21431 0)
(-0.00230577 -0.213186 0)
(-0.0154226 -0.208664 0)
(-0.00194907 -0.199394 0)
(-0.0161544 -0.1668 0)
(0.0149808 -0.171806 0)
(-0.00364575 -0.203047 0)
(0.0112543 -0.208052 0)
(-0.00143975 -0.209355 0)
(0.00346426 -0.209923 0)
(-0.00458458 -0.209734 0)
(0.00130192 -0.209677 0)
(-0.0108049 -0.208453 0)
(0.00371797 -0.203536 0)
(-0.0147443 -0.172433 0)
(0.0176179 -0.193946 0)
(-0.00661431 -0.203851 0)
(0.00996969 -0.20991 0)
(-0.000470305 -0.205669 0)
(0.0026803 -0.206784 0)
(-0.000901726 -0.207139 0)
(0.00161568 -0.207039 0)
(-0.00963835 -0.210176 0)
(0.00676186 -0.204056 0)
(-0.0173665 -0.194031 0)
(0.0340819 -0.217505 0)
(0.00877638 -0.203949 0)
(0.0164121 -0.203688 0)
(0.0109111 -0.197251 0)
(0.00175563 -0.193484 0)
(-0.00233004 -0.193174 0)
(-0.0111943 -0.195703 0)
(-0.0164231 -0.203548 0)
(-0.00874415 -0.204095 0)
(-0.0341721 -0.217708 0)
(0.0197556 0.00315338 0)
(-0.000849018 -0.0108274 0)
(-0.00776566 -0.0110014 0)
(-0.00829168 -0.0014515 0)
(-0.0121333 0.000865823 0)
(-0.0179071 0.00247203 0)
(-0.0256516 0.00587242 0)
(-0.0402383 0.0233476 0)
(-0.0786673 0.0568857 0)
(-0.11875 0.0548616 0)
(0.123764 0.0984222 0)
(0.0814982 0.065147 0)
(0.0402885 0.0268807 0)
(0.0182983 0.0114382 0)
(0.00724672 0.0193614 0)
(-0.0152001 0.0303678 0)
(-0.0364815 0.0494446 0)
(-0.0676291 0.0835437 0)
(-0.0891192 0.0880565 0)
(-0.10917 0.0724896 0)
(0.161379 0.148014 0)
(0.136883 0.146594 0)
(0.0969682 0.118448 0)
(0.0608831 0.0721164 0)
(0.0340252 0.0611885 0)
(0.0101378 0.0838747 0)
(-0.0140305 0.102768 0)
(-0.0426887 0.134478 0)
(-0.0789864 0.131151 0)
(-0.100685 0.123534 0)
(0.152124 0.176824 0)
(0.134771 0.179891 0)
(0.108872 0.168218 0)
(0.0840443 0.135838 0)
(0.0531428 0.11392 0)
(0.0304558 0.129883 0)
(0.0111737 0.151246 0)
(-0.0192832 0.196645 0)
(-0.0438573 0.200457 0)
(-0.0642633 0.185116 0)
(0.132542 0.206855 0)
(0.118746 0.216316 0)
(0.0997037 0.211963 0)
(0.0804988 0.184541 0)
(0.0585138 0.163384 0)
(0.0345567 0.167222 0)
(0.0273493 0.192764 0)
(-0.00560535 0.240136 0)
(-0.0166382 0.22749 0)
(-0.0210021 0.230762 0)
(0.110124 0.225561 0)
(0.0949843 0.24149 0)
(0.0842677 0.243299 0)
(0.0739206 0.225421 0)
(0.0599851 0.199444 0)
(0.041671 0.199682 0)
(0.0370228 0.227474 0)
(0.01944 0.282683 0)
(0.0132942 0.245663 0)
(0.0108129 0.224421 0)
(0.075411 0.248548 0)
(0.0667852 0.262496 0)
(0.0643196 0.260521 0)
(0.0609462 0.240082 0)
(0.0554962 0.221905 0)
(0.0448298 0.22363 0)
(0.0428825 0.237174 0)
(0.0467299 0.281515 0)
(0.0478322 0.26608 0)
(0.0289525 0.229608 0)
(0.0251124 0.260924 0)
(0.0269779 0.265358 0)
(0.0336996 0.256429 0)
(0.0373628 0.246895 0)
(0.0357128 0.241848 0)
(0.0268214 0.234666 0)
(0.0342943 0.232302 0)
(0.0419788 0.274221 0)
(0.0458928 0.27502 0)
(0.0423969 0.250993 0)
(-0.0288903 0.257454 0)
(-0.01999 0.249647 0)
(-0.0092286 0.244003 0)
(-0.00296966 0.244885 0)
(0.00717651 0.242853 0)
(0.0123086 0.228191 0)
(0.0236261 0.210139 0)
(0.0374182 0.254717 0)
(0.0473108 0.270992 0)
(0.0491876 0.25141 0)
(-0.0771802 0.2334 0)
(-0.0648534 0.226502 0)
(-0.055348 0.223658 0)
(-0.045346 0.218257 0)
(-0.0299036 0.21208 0)
(-0.0132533 0.203086 0)
(-0.00835548 0.183796 0)
(0.0126481 0.22563 0)
(0.0352722 0.258941 0)
(0.0420804 0.24347 0)
(-0.103864 0.209955 0)
(-0.0926817 0.203886 0)
(-0.0834198 0.199074 0)
(-0.0705449 0.190312 0)
(-0.0601494 0.183461 0)
(-0.0460272 0.174719 0)
(-0.03945 0.158739 0)
(-0.0219589 0.17299 0)
(0.00716069 0.211709 0)
(0.0297158 0.202386 0)
(-0.109218 0.193697 0)
(-0.0991374 0.187686 0)
(-0.0889183 0.177971 0)
(-0.0786761 0.171293 0)
(-0.0671429 0.163719 0)
(-0.0525959 0.152735 0)
(-0.0411126 0.135192 0)
(-0.0287621 0.133492 0)
(-0.00829712 0.146519 0)
(0.0146117 0.142051 0)
(-0.0963524 0.178984 0)
(-0.089271 0.167906 0)
(-0.0796613 0.152981 0)
(-0.0674634 0.142717 0)
(-0.0517949 0.131604 0)
(-0.0335089 0.119088 0)
(-0.0202822 0.111199 0)
(-0.0106971 0.109508 0)
(-0.00128525 0.116751 0)
(0.00732933 0.115283 0)
(-0.0573585 0.164332 0)
(-0.0478371 0.156135 0)
(-0.0418951 0.141634 0)
(-0.0284255 0.117171 0)
(-0.0117599 0.0947105 0)
(0.00111909 0.088362 0)
(0.0104637 0.0905633 0)
(0.0129313 0.102103 0)
(0.00704444 0.11159 0)
(0.00592921 0.11235 0)
(-0.0216512 0.130777 0)
(-0.00844961 0.130541 0)
(0.00384748 0.121691 0)
(0.0174096 0.0887106 0)
(0.0322649 0.0708725 0)
(0.033489 0.079731 0)
(0.0305343 0.0946323 0)
(0.0163009 0.108696 0)
(0.0137335 0.123022 0)
(0.0113746 0.123254 0)
(-0.0144768 0.114414 0)
(-0.00560067 0.103083 0)
(0.00789472 0.0880948 0)
(0.0205437 0.0569642 0)
(0.0332718 0.0557569 0)
(0.033287 0.0899364 0)
(0.0286395 0.119021 0)
(0.0147017 0.126982 0)
(0.0208803 0.119424 0)
(0.0337692 0.120523 0)
(-0.0216856 0.10027 0)
(-0.0156546 0.0853569 0)
(-0.00887945 0.0619893 0)
(-0.00284327 0.0365283 0)
(-0.00268004 0.0357185 0)
(0.00618651 0.0864895 0)
(0.0186216 0.131943 0)
(0.0199502 0.12348 0)
(0.0264064 0.1025 0)
(0.0299959 0.112051 0)
(-0.0298991 0.0929813 0)
(-0.0211803 0.0790832 0)
(-0.0152362 0.0584958 0)
(-0.016282 0.0502053 0)
(-0.0226333 0.0481984 0)
(-0.0290533 0.0738038 0)
(-0.01684 0.114734 0)
(-0.00970771 0.111982 0)
(-0.00105453 0.089261 0)
(0.0200632 0.0923834 0)
(-0.0567059 0.0660437 0)
(-0.0507166 0.0605904 0)
(-0.0529807 0.049577 0)
(-0.0501022 0.0448876 0)
(-0.0480687 0.0450616 0)
(-0.0445883 0.0627901 0)
(-0.0303503 0.0816353 0)
(-0.0104498 0.0784809 0)
(0.0046743 0.0474939 0)
(0.0230386 0.0344902 0)
(-0.0951268 0.0648302 0)
(-0.0847719 0.0658585 0)
(-0.0775121 0.0539036 0)
(-0.0701389 0.0462243 0)
(-0.0664101 0.0449362 0)
(-0.0581031 0.0526199 0)
(-0.0508838 0.0492747 0)
(-0.0366658 0.0400961 0)
(-0.0272351 0.0218816 0)
(-0.0142861 0.00853618 0)
(-0.145062 0.0312432 0)
(-0.12524 0.032405 0)
(-0.108862 0.0273908 0)
(-0.0962562 0.0153886 0)
(-0.0804088 0.0216982 0)
(-0.0684086 0.0345193 0)
(-0.0596203 0.0337385 0)
(-0.0518621 0.0287891 0)
(-0.0408243 0.00933125 0)
(-0.0146901 -0.0450908 0)
(-0.169007 -0.0285625 0)
(-0.145192 -0.0130131 0)
(-0.122537 -0.00735425 0)
(-0.103799 -0.0150829 0)
(-0.0811302 -0.00796094 0)
(-0.0620144 0.0167175 0)
(-0.0566458 0.0211748 0)
(-0.0520781 0.0102939 0)
(-0.0401341 -0.0419758 0)
(-0.0183309 -0.126564 0)
(-0.213275 -0.0614841 0)
(-0.188186 -0.0629383 0)
(-0.157772 -0.0688634 0)
(-0.127564 -0.0774638 0)
(-0.101041 -0.063576 0)
(-0.0697056 -0.0188443 0)
(-0.0480835 0.0023423 0)
(-0.0298685 0.00384421 0)
(-0.0204613 -0.0591911 0)
(-0.011194 -0.166491 0)
(-0.222216 -0.103592 0)
(-0.20069 -0.114885 0)
(-0.17197 -0.12501 0)
(-0.134931 -0.1293 0)
(-0.0873429 -0.113764 0)
(-0.0483879 -0.0811719 0)
(0.00646253 -0.0636742 0)
(0.0710484 -0.0525645 0)
(0.109027 -0.0903444 0)
(0.166621 -0.202534 0)
(-0.24412 -0.123029 0)
(-0.218727 -0.150213 0)
(-0.168406 -0.186848 0)
(-0.091601 -0.224075 0)
(-0.00504662 -0.234861 0)
(0.0708816 -0.166075 0)
(0.143905 -0.208301 0)
(0.242235 -0.211038 0)
(0.287438 -0.208141 0)
(0.346558 -0.207216 0)
(-0.258817 -0.176524 0)
(-0.19358 -0.260557 0)
(-0.104091 -0.374947 0)
(-0.0121204 -0.460273 0)
(0.0587201 -0.482679 0)
(0.14029 -0.409204 0)
(0.218102 -0.419524 0)
(0.277496 -0.401269 0)
(0.320928 -0.360333 0)
(0.374266 -0.314052 0)
(-0.251111 -0.292868 0)
(-0.169616 -0.473412 0)
(-0.0943927 -0.566338 0)
(-0.0344802 -0.603904 0)
(0.00737878 -0.619206 0)
(0.0701684 -0.576482 0)
(0.0921768 -0.529482 0)
(0.122381 -0.457942 0)
(0.132595 -0.42406 0)
(0.172026 -0.394213 0)
(-0.300067 -0.440176 0)
(-0.274874 -0.563098 0)
(-0.290162 -0.623645 0)
(-0.296739 -0.641994 0)
(-0.296975 -0.623371 0)
(-0.288903 -0.536428 0)
(-0.255712 -0.499678 0)
(-0.218411 -0.478322 0)
(-0.209373 -0.442593 0)
(-0.211845 -0.410189 0)
(-0.364624 -0.451565 0)
(-0.405229 -0.527755 0)
(-0.422967 -0.583706 0)
(-0.43104 -0.607278 0)
(-0.43222 -0.606409 0)
(-0.410367 -0.55998 0)
(-0.356029 -0.567593 0)
(-0.320963 -0.52961 0)
(-0.313026 -0.427858 0)
(-0.342116 -0.380325 0)
(-0.394923 -0.422669 0)
(-0.431174 -0.503506 0)
(-0.451388 -0.570027 0)
(-0.463324 -0.616996 0)
(-0.460932 -0.648011 0)
(-0.454366 -0.669832 0)
(-0.408543 -0.663347 0)
(-0.355996 -0.569312 0)
(-0.324744 -0.414195 0)
(-0.342115 -0.351824 0)
(-0.359623 -0.38554 0)
(-0.3891 -0.488025 0)
(-0.419129 -0.560358 0)
(-0.422643 -0.620946 0)
(-0.434667 -0.677649 0)
(-0.427161 -0.739249 0)
(-0.389659 -0.760348 0)
(-0.325398 -0.685917 0)
(-0.240272 -0.505449 0)
(-0.209477 -0.370192 0)
(-0.0869214 -0.16343 0)
(-0.195967 -0.395083 0)
(-0.236179 -0.522901 0)
(-0.220863 -0.604328 0)
(-0.26239 -0.645351 0)
(-0.311419 -0.757564 0)
(-0.268176 -0.86968 0)
(-0.236152 -0.88935 0)
(-0.170355 -0.76185 0)
(-0.116377 -0.5366 0)
(0.0906872 -0.00784916 0)
(0.0368551 -0.156226 0)
(-0.0332763 -0.357068 0)
(-0.0577534 -0.534633 0)
(-0.0794241 -0.554311 0)
(-0.148825 -0.612734 0)
(-0.158557 -0.876533 0)
(-0.11921 -0.936737 0)
(-0.122479 -0.824801 0)
(-0.1 -0.659904 0)
(0.0930424 -0.0841713 0)
(0.0892898 -0.118758 0)
(0.0171265 -0.256941 0)
(0.00604362 -0.503649 0)
(-0.036116 -0.490101 0)
(-0.106941 -0.511057 0)
(-0.121252 -0.867382 0)
(-0.0997879 -0.966819 0)
(-0.101471 -0.845318 0)
(-0.0450401 -0.689382 0)
(0.0152457 -0.0673191 0)
(0.0391556 -0.0779505 0)
(0.0266673 -0.23889 0)
(0.047314 -0.482828 0)
(-0.0889157 -0.389122 0)
(-0.143874 -0.452551 0)
(-0.104248 -0.878177 0)
(-0.107934 -0.970844 0)
(-0.136005 -0.932629 0)
(-0.0794973 -0.800705 0)
(0.0697247 -0.135155 0)
(0.0733224 -0.14173 0)
(0.0981568 -0.238634 0)
(0.0109211 -0.17852 0)
(-0.22561 -0.0821011 0)
(-0.162869 -0.661785 0)
(-0.107516 -0.866685 0)
(-0.140636 -0.922361 0)
(-0.176538 -0.943419 0)
(-0.171848 -0.849275 0)
(0.297533 -0.0613944 0)
(0.230544 -0.103248 0)
(0.16611 -0.0611478 0)
(0.0573246 0.0948974 0)
(-0.15334 0.0545864 0)
(-0.14403 -0.661908 0)
(-0.132735 -0.807078 0)
(-0.198348 -0.841395 0)
(-0.232925 -0.873322 0)
(-0.295938 -0.784144 0)
(0.142647 -0.0140069 0)
(0.135123 0.00574117 0)
(0.0563337 0.131399 0)
(-0.00528814 0.264895 0)
(-0.145761 0.213489 0)
(-0.139223 -0.606809 0)
(-0.15313 -0.715159 0)
(-0.241542 -0.761939 0)
(-0.258816 -0.790578 0)
(-0.326114 -0.751512 0)
(-0.032436 -0.0941788 0)
(-0.0992888 0.0432378 0)
(-0.125675 0.323625 0)
(-0.118635 0.417525 0)
(-0.122049 0.228512 0)
(-0.121582 -0.54032 0)
(-0.132132 -0.636517 0)
(-0.217747 -0.689699 0)
(-0.231518 -0.730187 0)
(-0.29369 -0.704868 0)
(-0.181869 0.0309487 0)
(-0.163558 0.172711 0)
(-0.128373 0.26922 0)
(-0.0944728 0.333833 0)
(0.0620033 0.197167 0)
(-0.0159181 -0.415664 0)
(-0.0431396 -0.542831 0)
(-0.134619 -0.591373 0)
(-0.166348 -0.653067 0)
(-0.220077 -0.655967 0)
(-0.14064 -0.023396 0)
(-0.0763999 0.0441841 0)
(-0.0363465 0.107764 0)
(0.00639897 0.118049 0)
(0.155031 -0.0149405 0)
(0.136505 -0.177624 0)
(0.0551076 -0.419058 0)
(-0.0204514 -0.484092 0)
(-0.0770298 -0.568412 0)
(-0.131464 -0.617745 0)
(-0.0105462 -0.106938 0)
(0.0615181 -0.000611302 0)
(0.0892187 0.0206934 0)
(0.142992 -0.0206159 0)
(0.205853 -0.161957 0)
(0.237175 -0.159015 0)
(0.204098 -0.248979 0)
(0.146405 -0.366996 0)
(0.109017 -0.438031 0)
(0.0627459 -0.500491 0)
(0.0543526 -0.135569 0)
(0.107859 -0.0932825 0)
(0.153569 -0.0943346 0)
(0.19675 -0.158998 0)
(0.242312 -0.229504 0)
(0.249431 -0.191855 0)
(0.245545 -0.207915 0)
(0.245417 -0.296692 0)
(0.222298 -0.367911 0)
(0.197044 -0.394802 0)
(0.248839 -0.147956 0)
(0.246558 -0.148935 0)
(0.252934 -0.156357 0)
(0.262928 -0.170588 0)
(0.259205 -0.191226 0)
(0.255407 -0.207844 0)
(0.283603 -0.24101 0)
(0.290925 -0.286018 0)
(0.268953 -0.342707 0)
(0.245123 -0.376691 0)
(0.349648 -0.0931228 0)
(0.345946 -0.106029 0)
(0.336984 -0.134807 0)
(0.324154 -0.163726 0)
(0.331885 -0.205534 0)
(0.337698 -0.229492 0)
(0.32483 -0.237554 0)
(0.306819 -0.251124 0)
(0.282934 -0.294936 0)
(0.259477 -0.342757 0)
(0.345729 -0.0719938 0)
(0.34222 -0.096171 0)
(0.342623 -0.12495 0)
(0.341403 -0.165013 0)
(0.333255 -0.216173 0)
(0.328788 -0.22656 0)
(0.314915 -0.201198 0)
(0.309539 -0.20769 0)
(0.297331 -0.264613 0)
(0.282915 -0.319297 0)
(0.298037 -0.0636788 0)
(0.30206 -0.0892377 0)
(0.304669 -0.12627 0)
(0.296878 -0.163716 0)
(0.285709 -0.182767 0)
(0.289288 -0.198232 0)
(0.308709 -0.19915 0)
(0.328994 -0.203983 0)
(0.345242 -0.256891 0)
(0.343774 -0.321661 0)
(0.255048 -0.0827987 0)
(0.256272 -0.0981132 0)
(0.24818 -0.11055 0)
(0.22247 -0.120124 0)
(0.204848 -0.183353 0)
(0.230524 -0.256571 0)
(0.281618 -0.267614 0)
(0.326166 -0.262228 0)
(0.344418 -0.285597 0)
(0.377276 -0.333228 0)
(0.191906 -0.0903615 0)
(0.187187 -0.0794307 0)
(0.16875 -0.0726995 0)
(0.154969 -0.101801 0)
(0.173924 -0.302547 0)
(0.217428 -0.376897 0)
(0.237796 -0.358486 0)
(0.284036 -0.338814 0)
(0.348596 -0.347931 0)
(0.429851 -0.418634 0)
(0.161355 -0.06739 0)
(0.153205 -0.0491595 0)
(0.155894 -0.0536989 0)
(0.173247 -0.102175 0)
(0.155166 -0.27596 0)
(0.177825 -0.358454 0)
(0.23267 -0.379472 0)
(0.325172 -0.45636 0)
(0.480468 -0.60456 0)
(0.599035 -0.719034 0)
(0.107825 -0.0559688 0)
(0.105081 -0.0567746 0)
(0.099992 -0.0708157 0)
(0.107329 -0.116187 0)
(0.089363 -0.249401 0)
(0.176984 -0.422668 0)
(0.322598 -0.639805 0)
(0.524097 -0.899453 0)
(0.621433 -0.905038 0)
(0.675789 -0.876013 0)
(0.0812202 -0.0436434 0)
(0.0548797 -0.0361044 0)
(0.0378919 -0.0507055 0)
(-0.04242 -0.0651667 0)
(0.00812691 -0.43298 0)
(0.164849 -0.931058 0)
(0.380714 -1.20288 0)
(0.522511 -1.12825 0)
(0.529025 -0.981914 0)
(0.482399 -0.851333 0)
(0.0612451 0.0156176 0)
(0.0212963 0.0348177 0)
(0.02512 0.0460781 0)
(-0.110097 0.0332896 0)
(0.079211 -0.899719 0)
(0.088088 -1.2422 0)
(0.265077 -1.36404 0)
(0.191357 -1.04723 0)
(0.00216913 -0.606314 0)
(-0.0910066 -0.503869 0)
(-0.0121327 0.0488161 0)
(-0.0353559 0.0909918 0)
(-0.0391587 0.11317 0)
(-0.0851769 -0.0382577 0)
(0.056325 -1.01489 0)
(0.0191922 -1.2978 0)
(0.0855529 -1.33023 0)
(-0.0289596 -0.528836 0)
(-0.115545 -0.351115 0)
(-0.229819 -0.459894 0)
(-0.053948 0.0875152 0)
(-0.0515767 0.102648 0)
(0.00873217 0.0885574 0)
(-0.0161779 -0.130811 0)
(0.0424811 -1.03207 0)
(0.0196863 -1.30845 0)
(0.0519193 -1.27626 0)
(-0.0699053 -0.368037 0)
(-0.115842 -0.275774 0)
(-0.147929 -0.304893 0)
(-0.0083844 0.031372 0)
(-0.0131111 0.0417412 0)
(0.0665873 0.0257346 0)
(0.0318347 -0.0627063 0)
(0.0536396 -1.02348 0)
(0.0477047 -1.2995 0)
(0.0826355 -1.25233 0)
(-0.00984651 -0.246196 0)
(-0.0703888 -0.251346 0)
(-0.0590802 -0.197012 0)
(-0.00420974 5.34491e-05 0)
(0.0149452 -0.0414561 0)
(0.0510523 -0.0433358 0)
(0.0344008 -0.0838849 0)
(0.0665134 -1.10003 0)
(0.0516834 -1.29104 0)
(0.0982719 -1.25338 0)
(-0.0753125 -0.104197 0)
(-0.147202 -0.282931 0)
(-0.118258 -0.115831 0)
(-0.0324091 -0.0730175 0)
(0.00393127 -0.0712597 0)
(0.0392948 -0.0295694 0)
(0.00755601 -0.0716051 0)
(0.0539341 -1.19047 0)
(0.0423038 -1.28714 0)
(0.064086 -1.2819 0)
(-0.00737128 0.567471 0)
(-0.130523 -0.267404 0)
(-0.125408 -0.0926182 0)
(-0.0215042 -0.191186 0)
(-0.00102694 -0.19332 0)
(0.0282552 -0.0279991 0)
(-0.017481 -0.0494903 0)
(0.047998 -1.21983 0)
(0.0144117 -1.27862 0)
(0.0387474 -1.27912 0)
(0.0889471 0.919028 0)
(-0.156915 -0.311873 0)
(-0.159389 -0.191461 0)
(0.0414105 -0.182676 0)
(-0.0364379 -0.184516 0)
(-0.109182 0.0523416 0)
(-0.0479821 -0.145841 0)
(0.0258505 -1.23407 0)
(-0.00280821 -1.26455 0)
(-0.0136925 -1.23947 0)
(0.0109041 0.855586 0)
(0.344024 0.515765 0)
(-0.0306326 -0.300545 0)
(-0.181588 0.0169526 0)
(-0.300936 0.117784 0)
(-0.282895 0.104415 0)
(0.0137327 -0.693809 0)
(0.016354 -1.22747 0)
(0.00717689 -1.25325 0)
(0.0135609 -1.23734 0)
(0.0581363 -0.603702 0)
(0.512633 0.277396 0)
(0.478335 0.364045 0)
(-0.065479 0.169618 0)
(-0.172947 0.01016 0)
(-0.00745412 -0.34007 0)
(0.000690738 -0.785568 0)
(0.0109795 -1.22068 0)
(-0.0102271 -1.2447 0)
(-0.000451836 -1.2213 0)
(-0.0189474 -0.708974 0)
(0.194177 0.224658 0)
(0.239001 0.391905 0)
(0.0567599 0.037331 0)
(0.0272194 0.0884994 0)
(0.0914733 -0.23266 0)
(-0.00429669 -0.76196 0)
(0.0109563 -1.20518 0)
(-0.012342 -1.22474 0)
(-0.00946049 -1.22088 0)
(-0.0366694 -0.762411 0)
(-0.0354197 -0.0591806 0)
(0.0813569 0.306452 0)
(0.0806852 0.0280553 0)
(0.121563 0.0745252 0)
(0.0916844 -0.14658 0)
(0.00319683 -0.659641 0)
(0.0239458 -1.1742 0)
(-0.00436475 -1.19718 0)
(-0.00362424 -1.20331 0)
(-0.0333233 -0.737034 0)
(-0.067419 -0.164823 0)
(0.0113989 0.195821 0)
(0.0492689 -0.189453 0)
(0.0703168 0.000274548 0)
(0.0279101 -0.00476104 0)
(-0.00149421 -0.647457 0)
(0.0216716 -1.15075 0)
(-0.00922307 -1.16728 0)
(-0.0189055 -1.18344 0)
(-0.0502293 -0.633082 0)
(-0.0841811 -0.182268 0)
(-0.0305038 0.13214 0)
(-0.137237 -0.0767589 0)
(-0.0414504 0.0699664 0)
(-0.0828848 0.00684549 0)
(-0.000264947 -0.835182 0)
(0.014946 -1.12843 0)
(-0.00914786 -1.13535 0)
(-0.00804578 -1.14967 0)
(-0.0313555 -0.51994 0)
(-0.080412 -0.174027 0)
(-0.0467338 0.0784281 0)
(-0.120226 -0.415998 0)
(-8.12166e-05 -0.195776 0)
(-0.0253471 -0.0232632 0)
(0.0150261 -0.888579 0)
(0.0121291 -1.0969 0)
(-0.00874909 -1.10587 0)
(-0.0156023 -1.13925 0)
(-0.0162281 -0.491191 0)
(-0.0468863 -0.152275 0)
(-0.0457118 0.0234215 0)
(0.0755926 -0.225608 0)
(0.0517465 -0.209277 0)
(-0.00590094 0.00578888 0)
(0.0175979 -0.908489 0)
(0.0107566 -1.07036 0)
(-0.0073572 -1.07815 0)
(-0.0110212 -1.126 0)
(0.00174622 -0.518228 0)
(0.00425167 -0.147212 0)
(-0.0160461 -0.0133677 0)
(0.129231 -0.0259409 0)
(0.0512066 -0.0595245 0)
(-0.00631286 0.0683641 0)
(0.00466403 -0.94223 0)
(0.0061208 -1.04819 0)
(-0.00787124 -1.05739 0)
(-0.0123986 -1.10853 0)
(-0.0129416 -0.535574 0)
(-0.00689236 -0.078353 0)
(-0.0286143 -0.0103292 0)
(0.143049 0.113125 0)
(0.0712483 0.0936952 0)
(0.0033673 0.0929322 0)
(0.00405389 -0.938302 0)
(0.000881244 -1.04076 0)
(-0.00775822 -1.04218 0)
(-0.00848611 -1.08716 0)
(-0.00568013 -0.663862 0)
(0.0387856 -0.0614414 0)
(-0.015734 0.00118222 0)
(0.139662 0.25696 0)
(0.0886677 0.260002 0)
(0.0123465 0.163349 0)
(0.0085361 -0.904342 0)
(0.00427573 -1.03464 0)
(-0.00124361 -1.0365 0)
(0.00233078 -1.06501 0)
(-0.0102298 -0.744285 0)
(0.0484546 0.00100735 0)
(-0.0140701 0.0341148 0)
(0.103282 0.346868 0)
(0.0674476 0.361206 0)
(0.0115817 0.220621 0)
(0.0120349 -0.894474 0)
(0.00798888 -1.03135 0)
(0.00301242 -1.03462 0)
(0.00583332 -1.04437 0)
(-0.0197258 -0.791607 0)
(0.0414567 0.027601 0)
(0.0688184 0.00714168 0)
(0.0824958 0.412222 0)
(0.0583004 0.432777 0)
(0.0121658 0.263847 0)
(0.0118132 -0.882681 0)
(0.00719853 -1.02707 0)
(0.000953165 -1.03021 0)
(0.000112093 -1.026 0)
(-0.0204099 -0.803594 0)
(0.0294725 -0.210778 0)
(0.0986138 -0.197464 0)
(0.0703434 0.496721 0)
(0.0411099 0.485661 0)
(0.0150765 0.298486 0)
(0.0161855 -0.859535 0)
(0.00977124 -1.01651 0)
(-0.00196604 -1.01899 0)
(-0.00419355 -1.00931 0)
(-0.0224198 -0.782531 0)
(-0.0106088 -0.270248 0)
(0.00878475 -0.236887 0)
(0.0119233 0.531454 0)
(0.0170108 0.485058 0)
(0.00647295 0.332163 0)
(0.0132047 -0.860195 0)
(0.0113526 -0.997331 0)
(-0.00612441 -0.998737 0)
(-0.0122159 -0.994173 0)
(-0.0264598 -0.760691 0)
(-0.0215496 -0.3135 0)
(-0.000872204 -0.273324 0)
(-0.0268182 0.501386 0)
(0.0158266 0.445712 0)
(0.00246751 0.358762 0)
(0.0150154 -0.88417 0)
(0.014206 -0.970963 0)
(-0.00765546 -0.97087 0)
(-0.0121352 -0.979373 0)
(-0.0240308 -0.752336 0)
(-0.021309 -0.357323 0)
(-0.00561135 -0.282772 0)
(-0.00802286 0.416731 0)
(0.0103852 0.4349 0)
(0.00227937 0.370309 0)
(0.0213596 -0.918869 0)
(0.0136439 -0.941443 0)
(-0.007392 -0.942566 0)
(-0.00930472 -0.962969 0)
(-0.0205463 -0.721548 0)
(-0.0328201 -0.357038 0)
(-0.0399838 -0.262159 0)
(-0.0780298 0.378379 0)
(-0.0607536 0.438826 0)
(-0.000219204 0.355625 0)
(0.0142242 -0.928849 0)
(0.00931124 -0.914579 0)
(-0.0104782 -0.915366 0)
(-0.0147178 -0.945397 0)
(-0.0247523 -0.705387 0)
(-0.0422031 -0.315488 0)
(-0.0582008 -0.22568 0)
(-0.2448 0.277148 0)
(-0.21041 0.354713 0)
(-0.00698295 0.26647 0)
(0.0150658 -0.918175 0)
(0.00943705 -0.889977 0)
(-0.0096425 -0.890142 0)
(-0.0137361 -0.925024 0)
(-0.023618 -0.704719 0)
(-0.0308709 -0.279607 0)
(-0.0529266 -0.194343 0)
(-0.301255 -0.0415221 0)
(-0.263785 -0.0524351 0)
(0.000959701 -0.499249 0)
(0.0106608 -0.89661 0)
(0.00693857 -0.86839 0)
(-0.00751047 -0.869795 0)
(-0.0130942 -0.901774 0)
(-0.0245189 -0.704175 0)
(-0.0299796 -0.253037 0)
(-0.0498528 -0.158344 0)
(-0.0695989 -0.053946 0)
(-0.0710674 -0.0970538 0)
(0.00652118 -0.53123 0)
(0.0118018 -0.874164 0)
(0.00557346 -0.848895 0)
(-0.00763691 -0.851273 0)
(-0.0140474 -0.877535 0)
(-0.026012 -0.690039 0)
(-0.0401481 -0.212606 0)
(-0.0558594 -0.119275 0)
(0.0151639 -0.113827 0)
(-0.00106204 -0.139399 0)
(0.0166876 -0.594427 0)
(0.0136492 -0.851991 0)
(0.00519736 -0.83042 0)
(-0.00822482 -0.83172 0)
(-0.0171393 -0.855762 0)
(-0.0266622 -0.670941 0)
(-0.0442425 -0.175071 0)
(-0.0575844 -0.0947757 0)
(0.0538047 -0.103167 0)
(0.0265309 -0.128589 0)
(0.0232225 -0.60211 0)
(0.0177871 -0.8303 0)
(0.00696093 -0.807937 0)
(-0.00759984 -0.80843 0)
(-0.0179207 -0.834431 0)
(-0.025897 -0.657296 0)
(-0.0385497 -0.153865 0)
(-0.0431473 -0.0836134 0)
(0.0560094 -0.0449107 0)
(0.0221303 -0.115404 0)
(0.0274697 -0.60765 0)
(0.018799 -0.808823 0)
(0.00882027 -0.783271 0)
(-0.00530463 -0.783299 0)
(-0.0162185 -0.811002 0)
(-0.0249239 -0.643437 0)
(-0.0389167 -0.132887 0)
(-0.0431594 -0.0725641 0)
(0.0654912 0.00614446 0)
(0.0379593 -0.11203 0)
(0.034547 -0.607861 0)
(0.0225276 -0.784036 0)
(0.0103515 -0.759741 0)
(-0.0025142 -0.759831 0)
(-0.0132462 -0.784804 0)
(-0.0212545 -0.628789 0)
(-0.0395532 -0.109879 0)
(-0.0498631 -0.0539573 0)
(0.0997632 0.0919112 0)
(0.0627349 -0.0454482 0)
(0.03506 -0.569407 0)
(0.0215722 -0.754668 0)
(0.00880086 -0.734593 0)
(-0.00271516 -0.734652 0)
(-0.012919 -0.755021 0)
(-0.0192682 -0.606674 0)
(-0.044559 -0.0666116 0)
(-0.0625671 -0.0168565 0)
(0.0774982 0.0543479 0)
(0.0707473 0.0331193 0)
(0.0338828 -0.53239 0)
(0.0189255 -0.726313 0)
(0.00738043 -0.711864 0)
(-0.00370805 -0.712515 0)
(-0.0165397 -0.7265 0)
(-0.0205726 -0.591608 0)
(-0.039336 -0.0296144 0)
(-0.0491887 0.0393946 0)
(-0.0459488 0.052363 0)
(0.00376575 0.0425316 0)
(0.0257895 -0.560327 0)
(0.0190951 -0.699494 0)
(0.00693406 -0.687821 0)
(-0.00715577 -0.689386 0)
(-0.0216184 -0.70087 0)
(-0.0272031 -0.576528 0)
(-0.0349857 -0.0274933 0)
(-0.016337 0.0755282 0)
(-0.0381749 -0.00900807 0)
(0.0253912 -0.0961189 0)
(0.0283186 -0.543386 0)
(0.0212354 -0.674511 0)
(0.00709488 -0.65931 0)
(-0.00919255 -0.660407 0)
(-0.0233015 -0.677069 0)
(-0.0353664 -0.558367 0)
(-0.043914 -0.0612589 0)
(-0.00378813 0.0633256 0)
(-0.00181636 -0.0335399 0)
(0.0331977 -0.140195 0)
(0.0352832 -0.526928 0)
(0.0233307 -0.647637 0)
(0.00757971 -0.629388 0)
(-0.00875888 -0.629169 0)
(-0.02499 -0.649493 0)
(-0.0403141 -0.531446 0)
(-0.0440095 -0.112399 0)
(-0.000608705 0.0157467 0)
(0.0202225 -0.0740181 0)
(0.0181001 -0.188126 0)
(0.045879 -0.523264 0)
(0.0252581 -0.611085 0)
(0.00707931 -0.595044 0)
(-0.00780364 -0.598154 0)
(-0.0254132 -0.614022 0)
(-0.0396295 -0.512342 0)
(-0.0190377 -0.172497 0)
(-0.0124489 -0.031121 0)
(0.0158713 -0.0955163 0)
(-0.00798792 -0.204772 0)
(0.0396474 -0.544627 0)
(0.0207444 -0.574937 0)
(0.00152874 -0.569035 0)
(-0.00961234 -0.57103 0)
(-0.0279717 -0.579034 0)
(-0.0510257 -0.526769 0)
(0.00449227 -0.196147 0)
(-0.0185912 -0.0558383 0)
(0.0166832 -0.109475 0)
(0.0289994 -0.237344 0)
(0.0418805 -0.54479 0)
(0.0257648 -0.543505 0)
(0.00788208 -0.543266 0)
(-0.00463967 -0.541694 0)
(-0.0245294 -0.546532 0)
(-0.0486391 -0.533176 0)
(-0.0192935 -0.206897 0)
(-0.0335749 -0.0460094 0)
(0.0661824 -0.105844 0)
(0.0667919 -0.249765 0)
(0.0533481 -0.497526 0)
(0.032886 -0.508783 0)
(0.0147258 -0.507623 0)
(-0.00599686 -0.506127 0)
(-0.0244343 -0.504885 0)
(-0.0556756 -0.488324 0)
(-0.0482836 -0.219583 0)
(-0.0564277 -0.0453605 0)
(0.0885162 -0.0814752 0)
(0.061559 -0.244777 0)
(0.0603395 -0.448287 0)
(0.0303844 -0.466228 0)
(0.00906365 -0.466607 0)
(-0.00868257 -0.470102 0)
(-0.0277428 -0.46556 0)
(-0.0548145 -0.45742 0)
(-0.0550672 -0.224941 0)
(-0.0643646 -0.0473321 0)
(0.0656813 -0.052776 0)
(0.0660638 -0.220804 0)
(0.0661507 -0.396461 0)
(0.0338238 -0.421251 0)
(0.0165108 -0.430862 0)
(-0.00586012 -0.429999 0)
(-0.0275417 -0.426683 0)
(-0.0585691 -0.410353 0)
(-0.0719986 -0.195209 0)
(-0.0517742 -0.0698944 0)
(-0.0136204 -0.045861 0)
(0.0695747 -0.272411 0)
(0.0600346 -0.36537 0)
(0.021065 -0.379521 0)
(0.00485151 -0.385222 0)
(-0.0239663 -0.388143 0)
(-0.0454655 -0.382755 0)
(-0.0709 -0.356814 0)
(-0.071609 -0.262723 0)
(-0.0191337 -0.0882841 0)
(0.0849107 -0.0612809 0)
(0.0777729 -0.286426 0)
(0.072043 -0.317525 0)
(0.0473138 -0.330853 0)
(0.0232184 -0.327188 0)
(-0.00544846 -0.328807 0)
(-0.0275978 -0.330792 0)
(-0.0630453 -0.312267 0)
(-0.0689203 -0.278102 0)
(-0.0783844 -0.12721 0)
(0.100274 -0.171117 0)
(0.073888 -0.223179 0)
(0.0691191 -0.263071 0)
(0.0368694 -0.286309 0)
(0.0169743 -0.290129 0)
(-0.010296 -0.285896 0)
(-0.0352895 -0.274941 0)
(-0.0694738 -0.26 0)
(-0.0753604 -0.221142 0)
(-0.0960989 -0.19573 0)
(0.0587083 -0.120455 0)
(0.0494496 -0.195484 0)
(0.0410487 -0.23451 0)
(0.0153156 -0.244821 0)
(0.00195854 -0.249143 0)
(-0.0187757 -0.247524 0)
(-0.0283301 -0.243618 0)
(-0.0454495 -0.232214 0)
(-0.0502936 -0.193268 0)
(-0.0570678 -0.131715 0)
(-0.139589 0.0306684 0)
(-0.162955 0.0108115 0)
(-0.18021 0.0109404 0)
(-0.201411 0.0201055 0)
(-0.215447 0.0144333 0)
(-0.233921 0.016783 0)
(-0.252074 0.0191392 0)
(-0.265198 0.0135517 0)
(-0.277481 0.00950373 0)
(-0.289902 0.00694803 0)
(-0.294709 0.00194763 0)
(-0.296971 0.0012031 0)
(-0.297512 0.00088831 0)
(-0.29763 0.00136193 0)
(-0.297451 -0.0021095 0)
(-0.292308 -0.0106441 0)
(-0.276775 -0.0200272 0)
(-0.250012 -0.0270246 0)
(-0.213168 -0.0343086 0)
(-0.174084 -0.0387597 0)
(-0.132074 -0.0404595 0)
(-0.0864641 -0.0466329 0)
(-0.0463809 -0.0428234 0)
(-0.0086664 -0.029673 0)
(0.0110751 -0.029229 0)
(0.0262231 0.000841457 0)
(0.00102147 0.0425214 0)
(-0.0283804 0.0235148 0)
(-0.02884 0.00345082 0)
(-0.0303037 -0.00765149 0)
(-0.042013 0.00530522 0)
(-0.0547887 0.00271491 0)
(-0.0564853 -0.00783077 0)
(-0.041588 -0.0184681 0)
(-0.0298854 -0.0215739 0)
(-0.00529575 -0.0293071 0)
(0.00794862 -0.0283407 0)
(0.0259836 -0.0164916 0)
(0.0218358 0.00571017 0)
(0.00676184 0.0214115 0)
(-0.128045 0.0616893 0)
(-0.163558 0.0570225 0)
(-0.193274 0.0556226 0)
(-0.211948 0.0483217 0)
(-0.223379 0.0438408 0)
(-0.247327 0.0496456 0)
(-0.263223 0.0410141 0)
(-0.275801 0.036142 0)
(-0.290259 0.0346733 0)
(-0.300307 0.0260622 0)
(-0.306023 0.0128957 0)
(-0.304704 0.00535403 0)
(-0.303224 0.00203375 0)