/*--------------------------------*- C++ -*----------------------------------*\
  =========                 |
  \\      /  F ield         | OpenFOAM: The Open Source CFD Toolbox
   \\    /   O peration     | Website:  https://openfoam.org
    \\  /    A nd           | Version:  8
     \\/     M anipulation  |
\*---------------------------------------------------------------------------*/
FoamFile
{
    version     2.0;
    format      ascii;
    class       surfaceScalarField;
    location    "2.85";
    object      phi;
}
// * * * * * * * * * * * * * * * * * * * * * * * * * * * * * * * * * * * * * //

dimensions      [0 3 -1 0 0 0 0];

internalField   nonuniform List<scalar> 
18095
(
1.57939e-07
-9.66103e-07
8.08164e-07
1.65135e-07
-1.24794e-06
1.24074e-06
1.22135e-07
-1.24208e-06
1.28508e-06
6.53701e-08
-1.26337e-06
1.32014e-06
1.06753e-10
-1.28036e-06
1.34562e-06
-6.5176e-08
-1.28038e-06
1.34566e-06
-1.21989e-07
-1.26343e-06
1.32024e-06
-1.65042e-07
-1.24214e-06
1.28519e-06
-1.57902e-07
-1.24799e-06
1.24085e-06
-9.66219e-07
8.08317e-07
1.10932e-07
-1.07704e-06
9.92916e-08
-1.23629e-06
7.28182e-08
-1.2156e-06
4.00652e-08
-1.23062e-06
7.18942e-11
-1.24037e-06
-3.99324e-08
-1.24038e-06
-7.27131e-08
-1.23065e-06
-9.92134e-08
-1.21564e-06
-1.10889e-07
-1.23631e-06
-1.07711e-06
6.69999e-08
-1.14404e-06
5.26428e-08
-1.22194e-06
4.20813e-08
-1.20504e-06
2.38592e-08
-1.2124e-06
4.61518e-11
-1.21655e-06
-2.3773e-08
-1.21656e-06
-4.20118e-08
-1.21241e-06
-5.25903e-08
-1.20506e-06
-6.69625e-08
-1.22194e-06
-1.14407e-06
3.94887e-08
-1.18352e-06
2.65702e-08
-1.20902e-06
2.19865e-08
-1.20046e-06
1.25187e-08
-1.20293e-06
2.63426e-11
-1.20406e-06
-1.24692e-08
-1.20406e-06
-2.19459e-08
-1.20293e-06
-2.654e-08
-1.20046e-06
-3.94636e-08
-1.20902e-06
-1.18353e-06
1.64761e-08
7.45694e-09
6.99812e-09
4.06972e-09
8.99453e-12
-4.05273e-09
-6.98425e-09
-7.44749e-09
-1.64656e-08
-1.73396e-07
-1.16419e-06
1.33759e-06
-2.17149e-07
-1.21567e-06
1.25942e-06
-1.63699e-07
-1.2122e-06
1.15875e-06
-8.59835e-08
-1.20377e-06
1.12605e-06
1.13657e-09
-1.20248e-06
1.11536e-06
8.82288e-08
-1.20265e-06
1.11556e-06
1.65727e-07
-1.20424e-06
1.12675e-06
2.18985e-07
-1.21288e-06
1.15962e-06
1.75086e-07
-1.21662e-06
1.26052e-06
-1.1653e-06
1.34038e-06
-9.31669e-08
-1.07102e-06
-9.54605e-08
-1.21337e-06
-7.87521e-08
-1.22891e-06
-4.35996e-08
-1.23892e-06
6.47122e-10
-1.24672e-06
4.48428e-08
-1.24685e-06
7.98603e-08
-1.23926e-06
9.63693e-08
-1.22939e-06
9.36876e-08
-1.21394e-06
-1.07161e-06
-5.77941e-08
-1.01323e-06
-5.4951e-08
-1.21622e-06
-4.61756e-08
-1.23768e-06
-2.67291e-08
-1.25836e-06
3.91154e-10
-1.27384e-06
2.74738e-08
-1.27393e-06
4.68131e-08
-1.2586e-06
5.54173e-08
-1.238e-06
5.80219e-08
-1.21655e-06
-1.01359e-06
-7.43542e-08
-9.38874e-07
-6.15126e-08
-1.22906e-06
-4.82562e-08
-1.25094e-06
-2.75e-08
-1.27912e-06
2.44366e-10
-1.30159e-06
2.79612e-08
-1.30165e-06
4.86392e-08
-1.27928e-06
6.17718e-08
-1.25113e-06
7.4475e-08
-1.22925e-06
-9.39113e-07
-1.3071e-07
-1.19028e-07
-8.48902e-08
-4.38747e-08
1.59703e-10
4.41743e-08
8.5135e-08
1.19195e-07
1.30795e-07
-2.19015e-08
-9.1531e-07
9.37212e-07
1.6899e-08
-1.33946e-06
1.30066e-06
1.9104e-08
-1.27558e-06
1.27337e-06
1.42505e-08
-1.22632e-06
1.23118e-06
9.62591e-09
-1.22312e-06
1.22774e-06
5.32982e-09
-1.22449e-06
1.22878e-06
-7.01154e-10
-1.2262e-06
1.23223e-06
8.88559e-09
-1.2726e-06
1.26301e-06
6.37884e-08
-1.34394e-06
1.28904e-06
-9.52982e-07
1.01677e-06
2.13349e-08
-9.36645e-07
2.89545e-08
-1.34708e-06
2.01964e-08
-1.26682e-06
1.37076e-08
-1.21983e-06
7.39322e-09
-1.21681e-06
8.23837e-10
-1.21792e-06
-5.42402e-09
-1.21995e-06
-1.01318e-08
-1.26789e-06
-4.31441e-09
-1.34976e-06
-9.57296e-07
3.29048e-08
-9.6955e-07
2.41595e-08
-1.33833e-06
1.59208e-08
-1.25858e-06
1.09941e-08
-1.21491e-06
5.061e-09
-1.21087e-06
-1.47329e-09
-1.21138e-06
-6.3991e-09
-1.21502e-06
-1.45751e-08
-1.25972e-06
-2.40447e-08
-1.34029e-06
-9.81341e-07
8.14281e-08
-1.05098e-06
5.45976e-08
-1.3115e-06
3.61498e-08
-1.24013e-06
2.37235e-08
-1.20248e-06
3.04847e-09
-1.1902e-06
-1.79158e-08
-1.19042e-06
-2.95246e-08
-1.20342e-06
-4.76433e-08
-1.2416e-06
-7.55068e-08
-1.31243e-06
-1.05685e-06
2.86608e-07
2.34526e-07
1.53142e-07
7.67111e-08
1.86916e-09
-7.29888e-08
-1.49658e-07
-2.31632e-07
-2.83536e-07
-8.4031e-08
1.52914e-09
8.25019e-08
-8.55888e-08
1.55824e-09
-8.71638e-08
1.57517e-09
-8.87445e-08
1.58084e-09
-9.03211e-08
1.57676e-09
-9.1879e-08
1.558e-09
-9.34015e-08
1.52262e-09
-9.48709e-08
1.46955e-09
-9.6269e-08
1.39827e-09
1.30674e-09
-9.75756e-08
-8.75994e-08
3.01306e-09
8.61157e-08
-8.90783e-08
3.03766e-09
-9.05445e-08
3.04168e-09
-9.19881e-08
3.02465e-09
-9.33936e-08
2.98244e-09
-9.4748e-08
2.91261e-09
-9.60366e-08
2.81135e-09
-9.72434e-08
2.67652e-09
-9.83508e-08
2.5059e-09
2.29748e-09
-9.93414e-08
-8.70593e-08
4.39848e-09
8.5674e-08
-8.84306e-08
4.40948e-09
-8.97818e-08
4.39303e-09
-9.11029e-08
4.34599e-09
-9.23846e-08
4.26427e-09
-9.36156e-08
4.14378e-09
-9.4785e-08
3.9809e-09
-9.58803e-08
3.77195e-09
-9.68883e-08
3.514e-09
3.20449e-09
-9.77953e-08
-8.60592e-08
5.71141e-09
8.47465e-08
-8.73549e-08
5.70555e-09
-8.86286e-08
5.66683e-09
-8.98731e-08
5.59071e-09
-9.10812e-08
5.47241e-09
-9.22443e-08
5.30705e-09
-9.33535e-08
5.09011e-09
-9.4399e-08
4.81745e-09
-9.53705e-08
4.48545e-09
4.09109e-09
-9.62572e-08
-8.49048e-08
6.97215e-09
8.36442e-08
-8.61493e-08
6.95039e-09
-8.73742e-08
6.89183e-09
-8.85742e-08
6.79085e-09
-8.97436e-08
6.6419e-09
-9.0876e-08
6.43946e-09
-9.19642e-08
6.17832e-09
-9.30005e-08
5.85369e-09
-9.39766e-08
5.46136e-09
4.99779e-09
-9.48835e-08
-8.36983e-08
8.1953e-09
8.24753e-08
-8.49093e-08
8.16144e-09
-8.61054e-08
8.08793e-09
-8.72831e-08
7.96861e-09
-8.84383e-08
7.79707e-09
-8.9566e-08
7.56711e-09
-9.06607e-08
7.27286e-09
-9.1716e-08
6.9089e-09
-9.27252e-08
6.47041e-09
5.9533e-09
-9.36809e-08
-8.24878e-08
9.38997e-09
8.12932e-08
-8.36763e-08
9.34971e-09
-8.48568e-08
9.26832e-09
-8.60272e-08
9.13886e-09
-8.71845e-08
8.95422e-09
-8.83249e-08
8.70749e-09
-8.94443e-08
8.39212e-09
-9.05375e-08
8.00199e-09
-9.15989e-08
7.53168e-09
6.97649e-09
-9.26222e-08
-8.12969e-08
1.05602e-08
8.01265e-08
-8.24686e-08
1.05208e-08
-8.36404e-08
1.04399e-08
-8.48115e-08
1.03098e-08
-8.59801e-08
1.01226e-08
-8.71434e-08
9.87074e-09
-8.82982e-08
9.54683e-09
-8.94403e-08
9.14407e-09
-9.05648e-08
8.65624e-09
8.07809e-09
-9.16664e-08
-8.01369e-08
1.17056e-08
7.89913e-08
-8.12922e-08
1.16752e-08
-8.24566e-08
1.16041e-08
-8.36307e-08
1.14837e-08
-8.48135e-08
1.13053e-08
-8.60034e-08
1.10606e-08
-8.71977e-08
1.07413e-08
-8.8393e-08
1.03395e-08
-8.95849e-08
9.84829e-09
9.26173e-09
-9.07683e-08
-7.9013e-08
1.28209e-08
7.78973e-08
-8.01469e-08
1.28085e-08
-8.13002e-08
1.27571e-08
-8.24742e-08
1.26575e-08
-8.36689e-08
1.25001e-08
-8.48835e-08
1.22753e-08
-8.6116e-08
1.19739e-08
-8.73634e-08
1.1587e-08
-8.86211e-08
1.11062e-08
1.05254e-08
-8.98846e-08
-7.79292e-08
1.38965e-08
7.68533e-08
-7.90325e-08
1.39114e-08
-8.01659e-08
1.38905e-08
-8.13319e-08
1.38235e-08
-8.25315e-08
1.36997e-08
-8.37644e-08
1.35082e-08
-8.50289e-08
1.32385e-08
-8.63219e-08
1.28801e-08
-8.76397e-08
1.24241e-08
1.18628e-08
-8.8977e-08
-7.68914e-08
1.49182e-08
7.58696e-08
-7.79498e-08
1.49698e-08
-7.90496e-08
1.49903e-08
-8.01947e-08
1.49686e-08
-8.13874e-08
1.48923e-08
-8.26277e-08
1.47484e-08
-8.39143e-08
1.4525e-08
-8.52443e-08
1.421e-08
-8.66133e-08
1.3793e-08
1.32649e-08
-8.80155e-08
-7.59111e-08
1.58674e-08
7.49619e-08
-7.69061e-08
1.59648e-08
-7.79536e-08
1.60378e-08
-7.90592e-08
1.60741e-08
-8.02278e-08
1.60607e-08
-8.14615e-08
1.59819e-08
-8.27579e-08
1.58211e-08
-8.41136e-08
1.55655e-08
-8.55235e-08
1.52027e-08
1.47213e-08
-8.69801e-08
-7.50083e-08
1.67219e-08
7.41538e-08
-7.59173e-08
1.68739e-08
-7.68897e-08
1.70101e-08
-7.79334e-08
1.71176e-08
-7.90548e-08
1.71819e-08
-8.0261e-08
1.71878e-08
-8.15505e-08
1.71103e-08
-8.29204e-08
1.69351e-08
-8.43607e-08
1.66428e-08
1.62208e-08
-8.58603e-08
-7.42119e-08
1.74564e-08
7.34775e-08
-7.50088e-08
1.76708e-08
-7.58792e-08
1.78804e-08
-7.68333e-08
1.80715e-08
-7.78807e-08
1.8229e-08
-7.90298e-08
1.83367e-08
-8.02973e-08
1.83776e-08
-8.16689e-08
1.83066e-08
-8.31293e-08
1.81031e-08
1.77517e-08
-8.46602e-08
-7.35616e-08
1.80433e-08
7.29746e-08
-7.42184e-08
1.83278e-08
-7.49586e-08
1.86205e-08
-7.57945e-08
1.89072e-08
-7.67377e-08
1.91722e-08
-7.78002e-08
1.93992e-08
-7.89957e-08
1.95731e-08
-8.0371e-08
1.96819e-08
-8.18442e-08
1.95764e-08
1.92881e-08
-8.33805e-08
-7.31045e-08
1.84533e-08
7.26945e-08
-7.35929e-08
1.88162e-08
-7.41762e-08
1.92038e-08
-7.48698e-08
1.96008e-08
-7.56874e-08
1.99899e-08
-7.66416e-08
2.03536e-08
-7.77413e-08
2.0673e-08
-7.90003e-08
2.09411e-08
-8.0438e-08
2.10144e-08
2.08334e-08
-8.19831e-08
-7.28795e-08
1.8648e-08
7.26848e-08
-7.31602e-08
1.90969e-08
-7.35479e-08
1.95917e-08
-7.40627e-08
2.01158e-08
-7.47228e-08
2.06503e-08
-7.55439e-08
2.11749e-08
-7.65389e-08
2.16683e-08
-7.77016e-08
2.2104e-08
-7.90452e-08
2.23583e-08
2.23257e-08
-8.05372e-08
-7.29351e-08
1.8577e-08
7.30062e-08
-7.29518e-08
1.91138e-08
-7.30812e-08
1.97214e-08
-7.33466e-08
2.03815e-08
-7.37682e-08
2.10723e-08
-7.43619e-08
2.17689e-08
-7.51362e-08
2.24429e-08
-7.60898e-08
2.3058e-08
-7.73573e-08
2.3626e-08
2.38531e-08
-7.88846e-08
-7.3379e-08
1.81915e-08
7.37645e-08
-7.30809e-08
1.88161e-08
-7.29033e-08
1.95441e-08
-7.28794e-08
2.03579e-08
-7.30424e-08
2.12356e-08
-7.34235e-08
2.21503e-08
-7.40502e-08
2.30699e-08
-7.49502e-08
2.39583e-08
-7.60673e-08
2.47433e-08
2.52721e-08
-7.74861e-08
-7.43191e-08
1.74311e-08
7.50798e-08
-7.36322e-08
1.81297e-08
-7.30571e-08
1.89693e-08
-7.26338e-08
1.9935e-08
-7.24045e-08
2.10064e-08
-7.24118e-08
2.21578e-08
-7.26965e-08
2.33548e-08
-7.3289e-08
2.4551e-08
-7.42276e-08
2.56821e-08
2.65809e-08
-7.55362e-08
-7.59655e-08
1.62499e-08
7.71468e-08
-7.48316e-08
1.69963e-08
-7.37865e-08
1.79244e-08
-7.28748e-08
1.90234e-08
-7.21458e-08
2.02776e-08
-7.16542e-08
2.16663e-08
-7.14599e-08
2.31607e-08
-7.16288e-08
2.472e-08
-7.22328e-08
2.62862e-08
2.77676e-08
-7.34195e-08
-7.85836e-08
1.46292e-08
8.02044e-08
-7.69758e-08
1.53886e-08
-7.54236e-08
1.63723e-08
-7.39752e-08
1.7575e-08
-7.26857e-08
1.89882e-08
-7.16199e-08
2.06006e-08
-7.08565e-08
2.23974e-08
-7.04934e-08
2.4357e-08
-7.06534e-08
2.64463e-08
2.86264e-08
-7.15122e-08
-8.24525e-08
1.25776e-08
8.45041e-08
-8.03731e-08
1.33091e-08
-7.83082e-08
1.43074e-08
-7.63057e-08
1.55724e-08
-7.44197e-08
1.71023e-08
-7.27137e-08
1.88947e-08
-7.12646e-08
2.09483e-08
-7.01716e-08
2.32641e-08
-6.95717e-08
2.58463e-08
2.86993e-08
-6.96446e-08
-8.78621e-08
1.01362e-08
9.03034e-08
-8.53549e-08
1.08019e-08
-8.28274e-08
1.178e-08
-8.03312e-08
1.30763e-08
-7.79242e-08
1.46954e-08
-7.56727e-08
1.66431e-08
-7.36531e-08
1.89287e-08
-7.19577e-08
2.15685e-08
-7.07068e-08
2.45953e-08
2.80605e-08
-7.00682e-08
-9.50554e-08
7.35961e-09
9.7832e-08
-9.21788e-08
7.92552e-09
-8.92568e-08
8.85811e-09
-8.63525e-08
1.0172e-08
-8.35387e-08
1.18815e-08
-8.0899e-08
1.40034e-08
-7.85295e-08
1.6559e-08
-7.65385e-08
1.95773e-08
-7.50419e-08
2.30985e-08
2.71791e-08
-7.41607e-08
-1.04169e-07
4.26622e-09
1.07263e-07
-1.00916e-07
4.67245e-09
-9.7556e-08
5.49837e-09
-9.41492e-08
6.76523e-09
-9.07592e-08
8.4914e-09
-8.74493e-08
1.06934e-08
-8.42749e-08
1.33844e-08
-8.12709e-08
1.65731e-08
-7.84372e-08
2.02645e-08
2.44591e-08
-7.57173e-08
-1.1553e-07
8.96709e-10
1.189e-07
-1.1192e-07
1.06217e-09
-1.0812e-07
1.69889e-09
-1.04191e-07
2.83594e-09
-1.00197e-07
4.49748e-09
-9.62062e-08
6.70248e-09
-9.2284e-08
9.46203e-09
-8.84883e-08
1.27773e-08
-8.48629e-08
1.66391e-08
2.10278e-08
-8.14316e-08
-1.29615e-07
-2.65875e-09
1.33171e-07
-1.25718e-07
-2.83526e-09
-1.21527e-07
-2.49195e-09
-1.17103e-07
-1.58838e-09
-1.12516e-07
-9.00208e-11
-1.07844e-07
2.03077e-09
-1.03174e-07
4.79167e-09
-9.85952e-08
8.19886e-09
-9.4204e-08
1.22478e-08
1.69267e-08
-9.01029e-08
-1.47031e-07
-6.23175e-09
1.50604e-07
-1.42996e-07
-6.87044e-09
-1.38539e-07
-6.94887e-09
-1.33715e-07
-6.41199e-09
-1.28593e-07
-5.21225e-09
-1.23249e-07
-3.31294e-09
-1.17763e-07
-6.94246e-10
-1.12207e-07
2.64302e-09
-1.06638e-07
6.67853e-09
1.13791e-08
-1.0109e-07
-1.68499e-07
-9.52537e-09
1.71793e-07
-1.64622e-07
-1.07482e-08
-1.60192e-07
-1.13787e-08
-1.55264e-07
-1.13404e-08
-1.49911e-07
-1.05649e-08
-1.44222e-07
-9.00146e-09
-1.38286e-07
-6.62983e-09
-1.3217e-07
-3.47294e-09
-1.25891e-07
3.99407e-10
4.88611e-09
-1.19397e-07
-1.94635e-07
-1.20999e-08
1.9721e-07
-1.91371e-07
-1.40131e-08
-1.87438e-07
-1.5311e-08
-1.82898e-07
-1.58813e-08
-1.77847e-07
-1.56149e-08
-1.72423e-07
-1.44253e-08
-1.66775e-07
-1.22783e-08
-1.61024e-07
-9.22373e-09
-1.55187e-07
-5.43736e-09
-1.2605e-09
-1.4904e-07
-2.25651e-07
-1.33857e-08
2.26937e-07
-2.236e-07
-1.60644e-08
-2.20786e-07
-1.81252e-08
-2.17265e-07
-1.94015e-08
-2.13175e-07
-1.97049e-08
-2.08746e-07
-1.8854e-08
-2.04275e-07
-1.67491e-08
-2.00098e-07
-1.34001e-08
-1.96497e-07
-9.0389e-09
-4.61405e-09
-1.93143e-07
-2.60944e-07
-1.2734e-08
2.60292e-07
-2.60812e-07
-1.61966e-08
-2.59845e-07
-1.9092e-08
-2.58048e-07
-2.11983e-08
-2.55542e-07
-2.22104e-08
-2.52674e-07
-2.17216e-08
-2.49962e-07
-1.9461e-08
-2.47843e-07
-1.55193e-08
-2.46907e-07
-9.97428e-09
-3.13399e-09
-2.48387e-07
-2.98787e-07
-9.44646e-09
2.955e-07
-3.01466e-07
-1.35176e-08
-3.03449e-07
-1.71089e-08
-3.04678e-07
-1.99693e-08
-3.05186e-07
-2.17023e-08
-3.05238e-07
-2.16693e-08
-3.05982e-07
-1.87168e-08
-3.07807e-07
-1.3694e-08
-3.12208e-07
-5.57321e-09
-2.23525e-09
-3.13107e-07
-3.35118e-07
-3.26673e-09
3.28938e-07
-3.41088e-07
-7.54723e-09
-3.46788e-07
-1.1409e-08
-3.52096e-07
-1.46616e-08
-3.56773e-07
-1.70251e-08
-3.60577e-07
-1.78649e-08
-3.62845e-07
-1.64483e-08
-3.64637e-07
-1.19015e-08
-3.62547e-07
-7.66297e-09
-7.18489e-09
-3.57596e-07
-3.62826e-07
4.6117e-09
3.54947e-07
-3.70652e-07
2.79681e-10
-3.78338e-07
-3.72307e-09
-3.8569e-07
-7.30974e-09
-3.92209e-07
-1.05069e-08
-3.96549e-07
-1.35252e-08
-3.97311e-07
-1.56862e-08
-3.91738e-07
-1.74744e-08
-3.77277e-07
-2.21243e-08
-2.85913e-08
-3.5587e-07
-3.7705e-07
1.21168e-08
3.69545e-07
-3.84177e-07
7.40756e-09
-3.90564e-07
2.66339e-09
-3.95771e-07
-2.10266e-09
-3.98907e-07
-7.3707e-09
-3.98873e-07
-1.35591e-08
-3.93769e-07
-2.07901e-08
-3.82389e-07
-2.88539e-08
-3.65984e-07
-3.85281e-08
-4.91598e-08
-3.45415e-07
-3.80092e-07
1.85284e-08
3.73681e-07
-3.85691e-07
1.3006e-08
-3.90189e-07
7.1611e-09
-3.92755e-07
4.62544e-10
-3.92637e-07
-7.48839e-09
-3.89233e-07
-1.69635e-08
-3.81849e-07
-2.8174e-08
-3.69697e-07
-4.10059e-08
-3.53044e-07
-5.51806e-08
-7.03564e-08
-3.31848e-07
-3.72907e-07
2.34572e-08
3.67978e-07
-3.7713e-07
1.72294e-08
-3.80037e-07
1.00687e-08
-3.81457e-07
1.88209e-09
-3.81327e-07
-7.61769e-09
-3.78454e-07
-1.98369e-08
-3.71736e-07
-3.48911e-08
-3.60593e-07
-5.21489e-08
-3.44143e-07
-7.16307e-08
-9.18771e-08
-3.22622e-07
-3.57313e-07
2.60924e-08
3.54677e-07
-3.59617e-07
1.95333e-08
-3.61682e-07
1.21331e-08
-3.63085e-07
3.28511e-09
-3.63355e-07
-7.34728e-09
-3.62152e-07
-2.10401e-08
-3.58153e-07
-3.88898e-08
-3.49092e-07
-6.12101e-08
-3.33776e-07
-8.69466e-08
-1.13851e-07
-3.11802e-07
-3.36123e-07
2.65953e-08
3.3562e-07
-3.36214e-07
1.96237e-08
-3.35863e-07
1.17829e-08
-3.35926e-07
3.34847e-09
-3.36874e-07
-6.39923e-09
-3.38112e-07
-1.98021e-08
-3.37942e-07
-3.90605e-08
-3.3256e-07
-6.65917e-08
-3.18041e-07
-1.01465e-07
-1.37568e-07
-2.94325e-07
-3.16113e-07
2.47169e-08
3.17992e-07
-3.13201e-07
1.6711e-08
-3.09545e-07
8.12741e-09
-3.07151e-07
9.53891e-10
-3.07709e-07
-5.84057e-09
-3.10536e-07
-1.69752e-08
-3.12787e-07
-3.68092e-08
-3.10542e-07
-6.88374e-08
-2.93084e-07
-1.18923e-07
-1.66246e-07
-2.64405e-07
-3.09558e-07
2.34562e-08
3.10819e-07
-3.08861e-07
1.6014e-08
-3.02454e-07
1.72074e-09
-2.95395e-07
-6.10597e-09
-2.934e-07
-7.83555e-09
-2.92291e-07
-1.80845e-08
-2.88228e-07
-4.08729e-08
-2.74543e-07
-8.25235e-08
-2.48189e-07
-1.45277e-07
-1.98843e-07
-2.15593e-07
-3.08152e-07
8.9829e-09
3.22625e-07
-2.89251e-07
-2.88687e-09
-2.745e-07
-1.30302e-08
-2.62362e-07
-1.82449e-08
-2.49816e-07
-2.03817e-08
-2.40175e-07
-2.77248e-08
-2.29119e-07
-5.19294e-08
-2.115e-07
-1.00143e-07
-1.85316e-07
-1.71459e-07
-2.27908e-07
-1.56251e-07
-3.29171e-07
-8.60452e-09
3.46759e-07
-3.03257e-07
-2.88013e-08
-2.68186e-07
-4.81008e-08
-2.29867e-07
-5.65647e-08
-1.95658e-07
-5.45917e-08
-1.68068e-07
-5.53146e-08
-1.47097e-07
-7.29011e-08
-1.28223e-07
-1.19017e-07
-1.10371e-07
-1.89311e-07
-2.48048e-07
-9.02318e-08
-3.33101e-07
-2.74799e-08
3.51977e-07
-3.10558e-07
-5.13447e-08
-2.83648e-07
-7.50109e-08
-2.46995e-07
-9.32181e-08
-1.95337e-07
-1.06249e-07
-1.41194e-07
-1.09457e-07
-9.65042e-08
-1.17591e-07
-6.28374e-08
-1.52684e-07
-4.34345e-08
-2.08714e-07
-2.64085e-07
-2.73969e-08
-3.10266e-07
-4.38134e-08
3.26599e-07
-2.89111e-07
-7.2499e-08
-2.6399e-07
-1.00132e-07
-2.32457e-07
-1.24751e-07
-1.94236e-07
-1.44471e-07
-1.44272e-07
-1.5942e-07
-8.91791e-08
-1.72685e-07
-4.12853e-08
-2.00578e-07
-8.80824e-09
-2.41191e-07
-2.87247e-07
1.43536e-08
-2.73195e-07
-5.64167e-08
2.85799e-07
-2.54995e-07
-9.06989e-08
-2.30841e-07
-1.24285e-07
-2.00455e-07
-1.55138e-07
-1.63065e-07
-1.8186e-07
-1.17332e-07
-2.05154e-07
-6.47937e-08
-2.25223e-07
-1.93523e-08
-2.4602e-07
1.48975e-08
-2.75441e-07
-3.19458e-07
4.71083e-08
-2.23921e-07
-6.17443e-08
2.29249e-07
-2.11223e-07
-1.03397e-07
-1.89886e-07
-1.45623e-07
-1.60336e-07
-1.84688e-07
-1.23091e-07
-2.19106e-07
-7.81075e-08
-2.50136e-07
-2.84689e-08
-2.74861e-07
1.52581e-08
-2.89746e-07
5.27397e-08
-3.12922e-07
-3.57875e-07
9.11584e-08
-1.56875e-07
-5.45459e-08
1.49676e-07
-1.51525e-07
-1.08747e-07
-1.32236e-07
-1.64912e-07
-1.02602e-07
-2.14322e-07
-6.70483e-08
-2.54659e-07
-2.90205e-08
-2.88164e-07
1.14859e-08
-3.15367e-07
5.63727e-08
-3.34632e-07
1.00125e-07
-3.56676e-07
-4.04823e-07
1.47074e-07
-8.14748e-08
-1.62347e-08
4.31635e-08
-8.3357e-08
-1.06865e-07
-5.99149e-08
-1.88353e-07
-2.66505e-08
-2.47587e-07
9.1807e-09
-2.9049e-07
4.49087e-08
-3.23892e-07
8.08866e-08
-3.51345e-07
1.20785e-07
-3.7453e-07
1.65799e-07
-4.01689e-07
-4.59266e-07
2.20241e-07
-6.91347e-09
3.12292e-08
-4.05512e-08
-1.48713e-08
-9.89156e-08
2.13682e-08
-2.24593e-07
5.96193e-08
-2.85838e-07
9.44706e-08
-3.25341e-07
1.26773e-07
-3.56195e-07
1.57819e-07
-3.8239e-07
1.90972e-07
-4.07684e-07
2.33867e-07
-4.44583e-07
-5.2009e-07
2.9469e-07
1.38394e-08
5.56174e-08
-3.82271e-08
4.78908e-08
-1.32959e-07
9.97835e-08
-2.76486e-07
1.39927e-07
-3.25981e-07
1.71718e-07
-3.57133e-07
1.99458e-07
-3.83934e-07
2.25772e-07
-4.08704e-07
2.52966e-07
-4.34879e-07
2.97533e-07
-4.89151e-07
-5.76786e-07
3.54229e-07
6.1408e-08
4.03145e-08
-4.61047e-08
1.35549e-07
-2.07093e-07
1.7933e-07
-3.20268e-07
2.09964e-07
-3.56614e-07
2.34579e-07
-3.81748e-07
2.5723e-07
-4.06586e-07
2.81978e-07
-4.33452e-07
3.17285e-07
-4.70186e-07
3.71705e-07
-5.43572e-07
-6.3196e-07
4.26879e-07
1.53918e-07
-4.3544e-08
-7.0058e-08
2.28321e-07
-2.81493e-07
2.50244e-07
-3.42192e-07
2.65345e-07
-3.71714e-07
2.799e-07
-3.96303e-07
2.95254e-07
-4.2194e-07
3.13597e-07
-4.51796e-07
3.50658e-07
-5.07248e-07
4.06861e-07
-5.99776e-07
-6.83956e-07
4.58858e-07
2.48736e-07
-1.76759e-07
-1.15522e-07
2.82587e-07
-3.15341e-07
2.9276e-07
-3.52365e-07
3.00199e-07
-3.79153e-07
3.10079e-07
-4.06185e-07
3.23951e-07
-4.35812e-07
3.49162e-07
-4.77007e-07
3.99658e-07
-5.57743e-07
4.53319e-07
-6.53436e-07
-7.22665e-07
4.92029e-07
3.08581e-07
-2.61003e-07
-2.24336e-07
3.12443e-07
-3.19203e-07
3.12684e-07
-3.52607e-07
3.15538e-07
-3.82007e-07
3.2068e-07
-4.11326e-07
3.29597e-07
-4.4473e-07
3.5865e-07
-5.06061e-07
4.12486e-07
-6.11578e-07
4.66352e-07
-7.07302e-07
-7.6325e-07
5.06937e-07
3.04402e-07
-2.84694e-07
-2.80711e-07
3.08526e-07
-3.23326e-07
3.11264e-07
-3.55345e-07
3.16228e-07
-3.86971e-07
3.24745e-07
-4.19843e-07
3.44074e-07
-4.64058e-07
3.90781e-07
-5.52768e-07
4.47417e-07
-6.68214e-07
4.89673e-07
-7.49558e-07
-8.00049e-07
5.26472e-07
2.97833e-07
-2.90044e-07
-2.92484e-07
2.99897e-07
-3.2539e-07
3.03102e-07
-3.5855e-07
3.06619e-07
-3.90488e-07
3.12245e-07
-4.25469e-07
3.38859e-07
-4.90671e-07
3.95365e-07
-6.09274e-07
4.51439e-07
-7.24286e-07
4.94211e-07
-7.9233e-07
-8.38054e-07
5.32216e-07
2.88551e-07
-2.94306e-07
-2.84288e-07
2.92992e-07
-3.2983e-07
2.984e-07
-3.63959e-07
3.0609e-07
-3.98178e-07
3.23297e-07
-4.42677e-07
3.64118e-07
-5.31493e-07
4.21269e-07
-6.66426e-07
4.65633e-07
-7.6865e-07
5.02207e-07
-8.28905e-07
-8.73021e-07
5.37175e-07
2.75164e-07
-3.00903e-07
-2.68568e-07
2.80453e-07
-3.35119e-07
2.84105e-07
-3.67611e-07
2.89494e-07
-4.03566e-07
3.13793e-07
-4.66976e-07
3.68821e-07
-5.8652e-07
4.22721e-07
-7.20325e-07
4.64233e-07
-8.10162e-07
4.99454e-07
-8.64126e-07
-9.06621e-07
5.33054e-07
2.66882e-07
-3.07511e-07
-2.60274e-07
2.71908e-07
-3.40146e-07
2.75936e-07
-3.71639e-07
2.8302e-07
-4.10651e-07
3.17452e-07
-5.01408e-07
3.70372e-07
-6.39441e-07
4.20712e-07
-7.70665e-07
4.58405e-07
-8.47855e-07
4.92359e-07
-8.9808e-07
-9.38681e-07
5.24419e-07
2.55855e-07
-3.14231e-07
-2.49135e-07
2.60789e-07
-3.4508e-07
2.66606e-07
-3.77456e-07
2.87093e-07
-4.31139e-07
3.28522e-07
-5.42836e-07
3.81906e-07
-6.92826e-07
4.22092e-07
-8.1085e-07
4.54036e-07
-8.79799e-07
4.84421e-07
-9.28465e-07
-9.6766e-07
5.134e-07
2.42298e-07
-3.23324e-07
-2.33205e-07
2.49655e-07
-3.52436e-07
2.57641e-07
-3.85441e-07
2.86778e-07
-4.60276e-07
3.32118e-07
-5.88176e-07
3.80017e-07
-7.40724e-07
4.1575e-07
-8.46582e-07
4.44678e-07
-9.08728e-07
4.72599e-07
-9.56386e-07
-9.94169e-07
4.99108e-07
2.30017e-07
-3.34865e-07
-2.18475e-07
2.41344e-07
-3.63764e-07
2.54815e-07
-3.98913e-07
2.87873e-07
-4.93334e-07
3.34238e-07
-6.34541e-07
3.76357e-07
-7.82843e-07
4.06685e-07
-8.76909e-07
4.3333e-07
-9.35373e-07
4.59138e-07
-9.82194e-07
-1.01833e-06
4.83299e-07
2.20054e-07
-3.49396e-07
-2.05523e-07
2.36557e-07
-3.80269e-07
2.57977e-07
-4.20333e-07
2.90517e-07
-5.25874e-07
3.36291e-07
-6.80314e-07
3.71684e-07
-8.18236e-07
3.9744e-07
-9.02666e-07
4.2188e-07
-9.59813e-07
4.45507e-07
-1.00582e-06
-1.04012e-06
4.67295e-07
2.11329e-07
-3.66434e-07
-1.94291e-07
2.31802e-07
-4.00743e-07
2.57041e-07
-4.45572e-07
2.90724e-07
-5.59556e-07
3.32609e-07
-7.22198e-07
3.63936e-07
-8.49563e-07
3.87448e-07
-9.26177e-07
4.10212e-07
-9.82577e-07
4.32034e-07
-1.02764e-06
-1.05985e-06
4.51768e-07
2.05335e-07
-3.84299e-07
-1.8747e-07
2.27316e-07
-4.22725e-07
2.55294e-07
-4.73549e-07
2.9095e-07
-5.95213e-07
3.27409e-07
-7.58656e-07
3.54484e-07
-8.76639e-07
3.76926e-07
-9.48619e-07
3.9897e-07
-1.00462e-06
4.19667e-07
-1.04834e-06
-1.07796e-06
4.37774e-07
2.02141e-07
-4.01555e-07
-1.84884e-07
2.23179e-07
-4.43763e-07
2.50772e-07
-5.01141e-07
2.89076e-07
-6.33516e-07
3.21798e-07
-7.91378e-07
3.46329e-07
-9.0117e-07
3.68781e-07
-9.71071e-07
3.90572e-07
-1.02641e-06
4.10494e-07
-1.06826e-06
-1.09489e-06
4.2742e-07
2.03661e-07
-4.17624e-07
-1.87592e-07
2.22813e-07
-4.62916e-07
2.48539e-07
-5.26867e-07
2.8645e-07
-6.71427e-07
3.18588e-07
-8.23515e-07
3.42501e-07
-9.25083e-07
3.65016e-07
-9.93585e-07
3.86328e-07
-1.04772e-06
4.05448e-07
-1.08738e-06
-1.11092e-06
4.21482e-07
2.09675e-07
-4.32899e-07
-1.944e-07
2.27679e-07
-4.80921e-07
2.53331e-07
-5.5252e-07
2.8978e-07
-7.07876e-07
3.19752e-07
-8.53488e-07
3.43113e-07
-9.48444e-07
3.65102e-07
-1.01558e-06
3.85662e-07
-1.06828e-06
4.0399e-07
-1.10571e-06
-1.12629e-06
4.19364e-07
2.18854e-07
-4.47986e-07
-2.03767e-07
2.36136e-07
-4.98203e-07
2.64021e-07
-5.80405e-07
2.95726e-07
-7.3958e-07
3.23853e-07
-8.81616e-07
3.46536e-07
-9.71126e-07
3.67896e-07
-1.03694e-06
3.87651e-07
-1.08804e-06
4.05157e-07
-1.12322e-06
-1.141e-06
4.19858e-07
2.30465e-07
-4.64209e-07
-2.14242e-07
2.50495e-07
-5.18234e-07
2.80417e-07
-6.10328e-07
3.08116e-07
-7.67279e-07
3.32382e-07
-9.05882e-07
3.53228e-07
-9.91973e-07
3.73196e-07
-1.0569e-06
3.91728e-07
-1.10657e-06
4.08131e-07
-1.13962e-06
-1.15474e-06
4.21873e-07
2.38067e-07
-4.79841e-07
-2.22435e-07
2.59774e-07
-5.3994e-07
2.89669e-07
-6.40224e-07
3.1918e-07
-7.9679e-07
3.40261e-07
-9.26963e-07
3.59802e-07
-1.01151e-06
3.78842e-07
-1.07594e-06
3.96508e-07
-1.12424e-06
4.11962e-07
-1.15508e-06
-1.16744e-06
4.24668e-07
2.40193e-07
-4.91899e-07
-2.28136e-07
2.57472e-07
-5.57219e-07
2.89751e-07
-6.72502e-07
3.20376e-07
-8.27416e-07
3.44032e-07
-9.50619e-07
3.64798e-07
-1.03228e-06
3.84252e-07
-1.0954e-06
4.01711e-07
-1.1417e-06
4.1645e-07
-1.16982e-06
-1.17904e-06
4.28047e-07
2.43069e-07
-5.01344e-07
-2.33623e-07
2.5893e-07
-5.73082e-07
2.92387e-07
-7.05958e-07
3.24685e-07
-8.59713e-07
3.49201e-07
-9.75135e-07
3.71015e-07
-1.05409e-06
3.90965e-07
-1.11535e-06
4.08257e-07
-1.15899e-06
4.22135e-07
-1.18369e-06
-1.18905e-06
4.32147e-07
2.483e-07
-5.09353e-07
-2.40291e-07
2.64928e-07
-5.89709e-07
3.00949e-07
-7.4198e-07
3.33222e-07
-8.91986e-07
3.57974e-07
-9.99888e-07
3.80445e-07
-1.07656e-06
4.00718e-07
-1.13562e-06
4.17824e-07
-1.17609e-06
4.30956e-07
-1.19683e-06
-1.1978e-06
4.39704e-07
2.59498e-07
-5.17381e-07
-2.5147e-07
2.82557e-07
-6.12769e-07
3.15457e-07
-7.74879e-07
3.47563e-07
-9.24091e-07
3.71825e-07
-1.02415e-06
3.94124e-07
-1.09886e-06
4.14166e-07
-1.15566e-06
4.30837e-07
-1.19276e-06
4.4326e-07
-1.20925e-06
-1.20558e-06
4.51035e-07
2.75132e-07
-5.30728e-07
-2.61784e-07
3.03846e-07
-6.41484e-07
3.36194e-07
-8.07227e-07
3.64088e-07
-9.51985e-07
3.86733e-07
-1.0468e-06
4.08415e-07
-1.12054e-06
4.28153e-07
-1.1754e-06
4.44612e-07
-1.20922e-06
4.5691e-07
-1.22155e-06
-1.21342e-06
4.64757e-07
2.72697e-07
-5.45779e-07
-2.57646e-07
3.08753e-07
-6.77541e-07
3.46244e-07
-8.44718e-07
3.71822e-07
-9.77563e-07
3.95171e-07
-1.07014e-06
4.17708e-07
-1.14308e-06
4.37868e-07
-1.19556e-06
4.54317e-07
-1.22567e-06
4.66516e-07
-1.23375e-06
-1.22155e-06
4.74647e-07
2.63226e-07
-5.5838e-07
-2.50625e-07
3.05226e-07
-7.19541e-07
3.4577e-07
-8.85261e-07
3.74667e-07
-1.00646e-06
4.00172e-07
-1.09565e-06
4.23325e-07
-1.16624e-06
4.42821e-07
-1.21505e-06
4.57613e-07
-1.24046e-06
4.67484e-07
-1.24362e-06
-1.22681e-06
4.72735e-07
2.74437e-07
-5.80286e-07
-2.52531e-07
3.14383e-07
-7.59488e-07
3.54812e-07
-9.25689e-07
3.81649e-07
-1.0333e-06
4.05469e-07
-1.11947e-06
4.26699e-07
-1.18747e-06
4.43695e-07
-1.23205e-06
4.55488e-07
-1.25226e-06
4.62115e-07
-1.25024e-06
-1.22868e-06
4.63986e-07
3.04407e-07
-6.08829e-07
-2.75864e-07
3.43666e-07
-7.98749e-07
3.65817e-07
-9.4784e-07
3.8515e-07
-1.05263e-06
4.05213e-07
-1.13953e-06
4.23794e-07
-1.20605e-06
4.38183e-07
-1.24644e-06
4.47512e-07
-1.26159e-06
4.52201e-07
-1.25493e-06
-1.22925e-06
4.5277e-07
2.73813e-07
-6.54567e-07
-2.28075e-07
3.15381e-07
-8.40316e-07
3.43942e-07
-9.76402e-07
3.68192e-07
-1.07688e-06
3.90966e-07
-1.16231e-06
4.09961e-07
-1.22504e-06
4.23222e-07
-1.2597e-06
4.31325e-07
-1.26969e-06
4.35935e-07
-1.25954e-06
-1.23183e-06
4.38523e-07
2.5022e-07
-6.9212e-07
-2.12667e-07
2.95145e-07
-8.85239e-07
3.24537e-07
-1.00579e-06
3.50289e-07
-1.10263e-06
3.73294e-07
-1.18531e-06
3.9058e-07
-1.24233e-06
4.00971e-07
-1.27009e-06
4.06261e-07
-1.27498e-06
4.08605e-07
-1.26189e-06
-1.23198e-06
4.08753e-07
2.45862e-07
-7.42151e-07
-1.95832e-07
2.8159e-07
-9.20969e-07
3.07017e-07
-1.03122e-06
3.31065e-07
-1.12668e-06
3.52466e-07
-1.20671e-06
3.67091e-07
-1.25695e-06
3.74916e-07
-1.27792e-06
3.78981e-07
-1.27905e-06
3.81898e-07
-1.26481e-06
-1.23439e-06
3.84306e-07
2.33387e-07
-7.85398e-07
-1.9014e-07
2.57451e-07
-9.45031e-07
2.80556e-07
-1.05433e-06
3.04404e-07
-1.15053e-06
3.246e-07
-1.22691e-06
3.36897e-07
-1.26925e-06
3.43371e-07
-1.28439e-06
3.48308e-07
-1.28398e-06
3.55102e-07
-1.2716e-06
-1.24536e-06
3.66076e-07
1.85968e-07
-8.23205e-07
-1.48161e-07
2.14046e-07
-9.73109e-07
2.4222e-07
-1.0825e-06
2.68641e-07
-1.17695e-06
2.87716e-07
-1.24599e-06
2.97396e-07
-1.27893e-06
3.02208e-07
-1.2892e-06
3.06906e-07
-1.28868e-06
3.15162e-07
-1.27986e-06
-1.26094e-06
3.30743e-07
1.41797e-07
-8.55618e-07
-1.09383e-07
1.72054e-07
-1.00337e-06
2.02787e-07
-1.11323e-06
2.29306e-07
-1.20347e-06
2.45024e-07
-1.2617e-06
2.51069e-07
-1.28497e-06
2.53212e-07
-1.29135e-06
2.55415e-07
-1.29088e-06
2.60579e-07
-1.28502e-06
-1.27243e-06
2.72064e-07
9.47924e-08
-8.94457e-07
-5.59531e-08
1.30613e-07
-1.03919e-06
1.6401e-07
-1.14663e-06
1.89223e-07
-1.22868e-06
2.00452e-07
-1.27293e-06
2.02996e-07
-1.28752e-06
2.02553e-07
-1.2909e-06
2.01804e-07
-1.29013e-06
2.0264e-07
-1.28586e-06
-1.27694e-06
2.07154e-07
6.4669e-08
-9.31545e-07
-2.75809e-08
1.00789e-07
-1.07531e-06
1.32833e-07
-1.17868e-06
1.53348e-07
-1.2492e-06
1.58954e-07
-1.27854e-06
1.58299e-07
-1.28686e-06
1.55521e-07
-1.28813e-06
1.51986e-07
-1.2866e-06
1.4889e-07
-1.28276e-06
-1.27567e-06
1.47616e-07
4.56546e-08
-9.69525e-07
-7.67511e-09
8.0629e-08
-1.11028e-06
1.09365e-07
-1.20741e-06
1.23363e-07
-1.2632e-06
1.23568e-07
-1.27874e-06
1.20216e-07
-1.28351e-06
1.1536e-07
-1.28327e-06
1.09294e-07
-1.28053e-06
1.02893e-07
-1.27636e-06
-1.2703e-06
9.75225e-08
4.13582e-08
-1.00489e-06
-5.98793e-09
7.18604e-08
-1.14078e-06
9.46432e-08
-1.23019e-06
1.00405e-07
-1.26896e-06
9.54152e-08
-1.27375e-06
8.95159e-08
-1.27761e-06
8.29516e-08
-1.27671e-06
7.48266e-08
-1.27241e-06
6.56849e-08
-1.26722e-06
-1.26169e-06
5.70771e-08
4.60611e-08
-1.03915e-06
-1.18017e-08
6.76406e-08
-1.16236e-06
8.23734e-08
-1.24493e-06
8.01288e-08
-1.26672e-06
7.15005e-08
-1.26513e-06
6.39186e-08
-1.27003e-06
5.69412e-08
-1.26973e-06
4.79888e-08
-1.26346e-06
3.68769e-08
-1.25611e-06
-1.25035e-06
2.55346e-08
3.62216e-08
-1.06653e-06
-8.84042e-09
5.17318e-08
-1.17787e-06
6.29782e-08
-1.25617e-06
5.79548e-08
-1.26169e-06
4.95257e-08
-1.2567e-06
4.17875e-08
-1.26229e-06
3.61437e-08
-1.26408e-06
2.82515e-08
-1.25556e-06
1.60183e-08
-1.24387e-06
-1.23643e-06
2.09946e-09
7.47024e-09
-1.09651e-06
2.25035e-08
3.02429e-08
-1.20064e-06
4.32776e-08
-1.26921e-06
3.89177e-08
-1.25733e-06
3.21989e-08
-1.24998e-06
2.4384e-08
-1.25448e-06
2.02944e-08
-1.25999e-06
1.58846e-08
-1.25115e-06
3.43814e-09
-1.23143e-06
-1.21798e-06
-1.50089e-08
2.4349e-09
-1.08755e-06
-1.13897e-08
2.60485e-08
-1.22426e-06
3.48784e-08
-1.27804e-06
2.80797e-08
-1.25053e-06
2.08715e-08
-1.24277e-06
1.19975e-08
-1.2456e-06
6.94577e-09
-1.25494e-06
9.63189e-09
-1.25384e-06
2.19388e-09
-1.22399e-06
-1.18918e-06
-2.66131e-08
-2.19261e-09
-1.03474e-06
-5.06256e-08