/*--------------------------------*- C++ -*----------------------------------*\
  =========                 |
  \\      /  F ield         | OpenFOAM: The Open Source CFD Toolbox
   \\    /   O peration     | Website:  https://openfoam.org
    \\  /    A nd           | Version:  8
     \\/     M anipulation  |
\*---------------------------------------------------------------------------*/
FoamFile
{
    version     2.0;
    format      ascii;
    class       volScalarField;
    location    "3.4";
    object      nut;
}
// * * * * * * * * * * * * * * * * * * * * * * * * * * * * * * * * * * * * * //

dimensions      [0 2 -1 0 0 0 0];

internalField   nonuniform List<scalar> 
9150
(
9.59998e-06
6.40648e-06
6.57178e-06
8.74329e-06
7.57075e-06
7.5685e-06
8.73837e-06
6.56934e-06
6.40649e-06
9.59989e-06
9.48764e-06
5.73786e-06
8.27623e-06
9.88635e-06
7.04457e-06
7.04285e-06
9.88204e-06
8.27253e-06
5.73781e-06
9.48757e-06
9.29565e-06
5.50078e-06
1.08007e-05
1.0262e-05
6.69764e-06
6.696e-06
1.02584e-05
1.07961e-05
5.50069e-06
9.29559e-06
9.08002e-06
5.42296e-06
1.34041e-05
1.02599e-05
6.51144e-06
6.50974e-06
1.02564e-05
1.33996e-05
5.42286e-06
9.07997e-06
8.84523e-06
5.40657e-06
1.5649e-05
1.01684e-05
6.41688e-06
6.41513e-06
1.0165e-05
1.56453e-05
5.4065e-06
8.84518e-06
5.91522e-06
1.12911e-05
1.38586e-05
1.73992e-05
1.65911e-05
1.65833e-05
1.73824e-05
1.38367e-05
1.12769e-05
5.91429e-06
6.27974e-06
8.85862e-06
1.13533e-05
1.52907e-05
1.4351e-05
1.43456e-05
1.52795e-05
1.13403e-05
8.85317e-06
6.2797e-06
6.83034e-06
7.90201e-06
9.38083e-06
1.30548e-05
1.20677e-05
1.20635e-05
1.30467e-05
9.37349e-06
7.90022e-06
6.83036e-06
7.38734e-06
7.29534e-06
7.97156e-06
1.11449e-05
1.01489e-05
1.01456e-05
1.11385e-05
7.96717e-06
7.29487e-06
7.38733e-06
8.07456e-06
6.84682e-06
7.05172e-06
9.64573e-06
8.60508e-06
8.6024e-06
9.64038e-06
7.04875e-06
6.84671e-06
8.07453e-06
1.39781e-05
1.90039e-05
1.37738e-05
1.58369e-05
1.74495e-05
1.73498e-05
1.55407e-05
1.24753e-05
1.31911e-05
1.20539e-05
7.90489e-06
1.08305e-05
1.25213e-05
1.5884e-05
1.75014e-05
1.74323e-05
1.57068e-05
1.23383e-05
1.07627e-05
7.8667e-06
7.46004e-06
1.01942e-05
1.25405e-05
1.60289e-05
1.75603e-05
1.75141e-05
1.59066e-05
1.24435e-05
1.01689e-05
7.45204e-06
7.0306e-06
9.80278e-06
1.25516e-05
1.61571e-05
1.76127e-05
1.7579e-05
1.60751e-05
1.24903e-05
9.76832e-06
7.02708e-06
6.51127e-06
1.00586e-05
1.25389e-05
1.63279e-05
1.75101e-05
1.74884e-05
1.62826e-05
1.25037e-05
1.00286e-05
6.50965e-06
1.04117e-05
1.04991e-05
1.05736e-05
1.06342e-05
1.06791e-05
1.07062e-05
1.07126e-05
1.06945e-05
1.06481e-05
1.05708e-05
9.18082e-05
9.23361e-05
9.27583e-05
9.30658e-05
9.32464e-05
9.32837e-05
9.31562e-05
9.28354e-05
9.22867e-05
9.14668e-05
0.000175724
0.000176467
0.000177005
0.000177324
0.000177409
0.000177239
0.000176783
0.000176
0.000174844
0.000173256
0.000241943
0.000242633
0.000243057
0.000243203
0.000243058
0.000242605
0.00024182
0.00024068
0.000239154
0.000237213
0.000293324
0.000293786
0.000293947
0.000293799
0.000293334
0.000292542
0.000291412
0.000289939
0.000288117
0.000285944
0.000333729
0.000333869
0.000333687
0.000333178
0.00033234
0.000331169
0.000329658
0.000327804
0.000325607
0.000323082
0.000366247
0.000366026
0.00036546
0.000364546
0.000363279
0.000361658
0.000359683
0.00035736
0.0003547
0.000351728
0.000393127
0.000392511
0.000391526
0.00039017
0.000388441
0.000386339
0.000383865
0.000381022
0.000377818
0.000374282
0.000416061
0.000415034
0.000413616
0.000411804
0.000409596
0.00040699
0.000403984
0.000400568
0.000396738
0.000392521
0.000436239
0.000434804
0.000432954
0.000430683
0.000427986
0.000424855
0.00042128
0.000417232
0.000412715
0.000407753
0.000454508
0.000452683
0.000450418
0.000447701
0.000444518
0.00044084
0.00043663
0.000431887
0.000426715
0.00042107
0.000471511
0.000469328
0.000466678
0.000463547
0.000459904
0.000455704
0.000450917
0.000445587
0.000439783
0.000433467
0.000487739
0.000485242
0.000482249
0.000478742
0.00047469
0.000470047
0.000464805
0.000458999
0.000452636
0.000445704
0.000503584
0.000500847
0.00049759
0.00049379
0.000489418
0.00048444
0.000478851
0.000472664
0.00046584
0.000458392
0.000519305
0.000516419
0.000513003
0.000509026
0.000504454
0.00049925
0.000493396
0.000486896
0.000479752
0.000471963
0.000534962
0.000532008
0.000528523
0.000524473
0.000519821
0.000514531
0.000508583
0.000501973
0.000494703
0.000486777
0.00055046
0.000547506
0.000544036
0.000540016
0.000535409
0.000530182
0.000524309
0.000517779
0.000510591
0.000502752
0.00056558
0.000562671
0.00055928
0.000555377
0.000550925
0.00054589
0.000540243
0.000533966
0.000527053
0.00051951
0.000580033
0.000577184
0.000573909
0.00057018
0.000565961
0.000561217
0.000555915
0.000550031
0.000543552
0.000536481
0.000593562
0.00059075
0.000587581
0.000584038
0.000580094
0.000575706
0.000570831
0.000565443
0.000559522
0.000553059
0.000606089
0.000603272
0.000600165
0.000596764
0.000593056
0.000589018
0.000584621
0.000579808
0.00057455
0.00056881
0.000617636
0.00061478
0.000611698
0.000608408
0.00060492
0.000601232
0.000597322
0.000593158
0.00058866
0.000583758
0.000628349
0.000625451
0.000622396
0.00061923
0.000615999
0.000612738
0.000609421
0.000605941
0.000602153
0.000597995
0.000638496
0.000635606
0.000632627
0.000629615
0.00062662
0.000623669
0.00062074
0.000617772
0.00061475
0.000611497
0.000648312
0.000645495
0.000642643
0.000639809
0.000637034
0.000634335
0.000631694
0.000629069
0.000626436
0.000623694
0.00065786
0.000655134
0.000652396
0.000649693
0.000647055
0.000644493
0.000641997
0.000639541
0.000637103
0.000634651
0.000667073
0.000664404
0.000661715
0.000659043
0.000656412
0.000653837
0.000651322
0.000648868
0.000646483
0.000644179
0.000675823
0.000673147
0.000670417
0.000667661
0.000664903
0.000662165
0.000659476
0.000656873
0.000654413
0.000652168
0.000683981
0.000681224
0.000678363
0.000675418
0.000672416
0.000669399
0.000666428
0.0006636
0.000661053
0.000658973
0.000691457
0.000688566
0.000685516
0.000682327
0.000679039
0.00067572
0.000672492
0.000669545
0.000667159
0.000665705
0.000698239
0.000695207
0.000691981
0.000688591
0.000685098
0.000681617
0.000678349
0.000675617
0.000673902
0.00067385
0.000704389
0.000701281
0.000697992
0.000694572
0.000691116
0.000687795
0.000684898
0.000682892
0.000682472
0.000684596
0.00071001
0.00070696
0.000703813
0.000700655
0.000697625
0.000694949
0.000692987
0.000692297
0.000693688
0.000698291
0.000715128
0.000712269
0.00070946
0.000706829
0.000704562
0.000702923
0.000702288
0.000703182
0.000706299
0.000712509
0.00071959
0.000716946
0.000714505
0.000712422
0.000710899
0.000710184
0.000710587
0.000712473
0.000716237
0.000722205
0.00072314
0.000720645
0.000718429
0.000716674
0.000715574
0.000715336
0.000716165
0.000718251
0.000721725
0.000726568
0.000725533
0.000723017
0.000720829
0.000719124
0.000718063
0.000717796
0.000718454
0.000720117
0.000722789
0.000726392
0.000726772
0.00072403
0.000721602
0.000719631
0.000718247
0.000717564
0.000717671
0.000718613
0.000720389
0.000722939
0.000727084
0.000723976
0.000721146
0.000718724
0.000716826
0.000715545
0.000714952
0.000715088
0.000715965
0.000717561
0.000726782
0.000723247
0.000719949
0.000717015
0.000714553
0.000712647
0.000711361
0.000710739
0.000710801
0.000711541
0.000726158
0.000722202
0.000718445
0.000715017
0.000712026
0.000709551
0.000707651
0.000706373
0.000705747
0.000705769
0.00072538
0.000721065
0.000716916
0.000713069
0.000709635
0.000706688
0.000704285
0.00070248
0.000701312
0.000700784
0.000724393
0.000719829
0.000715403
0.00071126
0.000707516
0.000704241
0.000701484
0.000699311
0.000697767
0.000696859
0.000722833
0.000718149
0.000713591
0.00070931
0.000705431
0.000702033
0.000699149
0.000696822
0.000695102
0.000694006
0.000720015
0.000715308
0.000710744
0.000706476
0.000702633
0.000699312
0.000696559
0.000694381
0.000692778
0.000691758
0.000715012
0.000710303
0.000705785
0.000701611
0.000697915
0.0006948
0.000692327
0.000690517
0.000689348
0.000688771
0.000706771
0.000701939
0.000697369
0.000693219
0.000689625
0.000686693
0.000684489
0.000683033
0.000682295
0.000682209
0.000694284
0.00068902
0.000684086
0.000679645
0.000675837
0.000672771
0.000670512
0.000669083
0.000668457
0.00066857
0.000676766
0.000670597
0.000664791
0.000659518
0.000654926
0.000651132
0.000648214
0.000646212
0.000645129
0.000644953
0.000653782
0.000646157
0.000638891
0.000632169
0.000626158
0.000620998
0.0006168
0.000613646
0.00061159
0.000610692
0.000625288
0.000615725
0.000606528
0.000597922
0.000590121
0.000583324
0.000577711
0.000573447
0.000570696
0.000569684
0.00059168
0.000579954
0.000568719
0.000558288
0.000548977
0.000541097
0.000534942
0.000530785
0.000528887
0.000529488
0.00055394
0.000540254
0.000527414
0.000515872
0.000506089
0.00049851
0.00049354
0.000491515
0.000492688
0.000497201
0.000514099
0.000499348
0.000486144
0.000475101
0.000466816
0.000461824
0.000460552
0.000463281
0.000470114
0.000480966
0.000475196
0.000461018
0.000449439
0.000441153
0.000436774
0.000436768
0.00044141
0.000450757
0.000464646
0.000482701
0.000440139
0.000428555
0.00042073
0.000417276
0.00041862
0.000424963
0.000436274
0.000452319
0.000472683
0.000496773
0.000410773
0.000403395
0.000400778
0.000403269
0.000410955
0.000423683
0.000441111
0.000462753
0.000488053
0.00051638
0.000388305
0.00038611
0.000389282
0.000397832
0.000411516
0.000429892
0.000452419
0.000478522
0.00050767
0.000539353
0.000372927
0.000376293
0.000385233
0.000399464
0.000418523
0.000441836
0.000468827
0.000498986
0.000531865
0.000567023
0.000364392
0.00037339
0.000387909
0.000407473
0.000431515
0.000459454
0.000490744
0.000524884
0.000561449
0.000600042
0.000362561
0.000377164
0.000397079
0.000421714
0.000450459
0.000482725
0.000517971
0.000555724
0.000595577
0.000637162
0.000367282
0.000387339
0.000412338
0.000441623
0.000474558
0.000510568
0.00054916
0.000589951
0.000632679
0.000677204
0.000378189
0.000403328
0.000432882
0.000466173
0.000502594
0.00054164
0.000582947
0.000626316
0.000671699
0.000718561
0.000394579
0.000424201
0.000457602
0.000494143
0.000533309
0.000574726
0.00061823
0.000663837
0.000711505
0.000756929
0.000415376
0.000448712
0.00048516
0.000524164
0.000565357
0.000608583
0.000653885
0.000701369
0.000748318
0.000781742
0.000439166
0.000475346
0.000514017
0.000554814
0.000597545
0.000642233
0.00068899
0.000736601
0.000773685
0.000782235
0.000464394
0.000502641
0.000542961
0.00058513
0.00062912
0.000675018
0.000722308
0.000762072
0.000774594
0.000761584
0.000489689
0.000529432
0.000570956
0.000614168
0.000659094
0.000705336
0.000746591
0.00076338
0.000752358
0.000735965
0.000513875
0.00055458
0.000596846
0.00064063
0.000685569
0.000727521
0.000748719
0.000740365
0.000724058
0.000714405
0.000536003
0.000577154
0.000619665
0.000663288
0.000705558
0.000731198
0.000726161
0.000709737
0.000698837
0.000698895
0.000555718
0.000597002
0.000639498
0.000682097
0.000712972
0.000712072
0.000694803
0.000681665
0.000679209
0.000690255
0.000573691
0.000615268
0.000657849
0.000694427
0.00070058
0.000682052
0.000665407
0.000658806
0.000665993
0.000688364
0.000591277
0.000633418
0.000674778
0.000691712
0.000673754
0.000652751
0.00064028
0.000641389
0.000658668
0.000691653
0.000608891
0.000651053
0.000679941
0.000671076
0.000645697
0.00062615
0.000619124
0.000628539
0.000655511
0.000697238
0.000626188
0.000665394
0.000673282
0.000645643
0.000619064
0.000602586
0.000601502
0.000618956
0.000654037
0.000701801
0.00064406
0.000668787
0.000652206
0.000620689
0.000594857
0.000581736
0.0005864
0.000610713
0.000651456
0.000702572
0.000655496
0.000661604
0.000629878
0.000596721
0.000572002
0.000562229
0.000572111
0.000601579
0.000645419
0.000698021
0.000658973
0.000644805
0.000607831
0.000573832
0.000550225
0.000543523
0.000557583
0.000590056
0.000634809
0.0006881
0.000651983
0.00062361
0.000585473
0.000551272
0.000528611
0.000524487
0.000541432
0.000574952
0.000619491
0.000673746
0.000646614
0.000606161
0.000564968
0.000529529
0.000506987
0.000504509
0.000522842
0.000556074
0.00060056
0.000656677
0.000627743
0.000586954
0.000544592
0.000507295
0.000483883
0.000482104
0.000500818
0.000533948
0.000580066
0.000639312
0.000610576
0.000567708
0.000522302
0.000481615
0.000456579
0.000455373
0.000474911
0.000510113
0.000560575
0.000624264
0.000596562
0.000548624
0.000497742
0.000452157
0.000424958
0.000424623
0.000446464
0.00048695
0.000544266
0.000613243
0.000580425
0.000527299
0.000470178
0.000418959
0.000389433
0.000390637
0.000417236
0.000466396
0.00053207
0.000606259
0.000561403
0.00050265
0.000439265
0.000382216
0.000350366
0.000354116
0.000388757
0.000449111
0.000523428
0.000602551
0.000540386
0.000476208
0.000406766
0.000343565
0.000308779
0.000316095
0.0003619
0.000433952
0.000515768
0.000598988
0.000521476
0.000452042
0.000376336
0.00030606
0.000266412
0.000277866
0.000336566
0.000418985
0.000506579
0.000592892
0.000507645
0.000432356
0.000350842
0.000272551
0.000225036
0.000240176
0.000311671
0.000402481
0.000494516
0.000583314
0.000499441
0.000417857
0.000330313
0.000244325
0.000186097
0.000202901
0.000285705
0.000383306
0.000479246
0.000570481
0.000496056
0.000408217
0.000314922
0.000221397
0.000150819
0.000165714
0.000257329
0.000360858
0.000460993
0.000555373
0.000496133
0.000402457
0.000303787
0.000203306
0.000120084
0.000128933
0.000226257
0.000334915
0.000439887
0.000538583
0.0004986
0.000399214
0.000295137
0.000188345
9.46397e-05
9.39076e-05
0.000192409
0.000305695
0.000415891
0.000519823
0.000502642
0.000396606
0.000286733
0.000174262
7.45116e-05
6.33288e-05
0.000156228
0.000272961
0.000388592
0.000498186
0.000506341
0.00039251
0.000276754
0.000159324
5.89216e-05
3.9906e-05
0.000118955
0.000236502
0.000357584
0.000473156
0.000506787
0.000385357
0.00026447
0.000142819
4.68271e-05
2.49957e-05
8.31717e-05
0.0001962
0.000322325
0.000444251
0.000501565
0.000375553
0.000250378
0.00012456
3.73462e-05
1.79684e-05
5.28161e-05
0.000152773
0.000282243
0.000410742
0.000496535
0.0003692
0.000235456
0.000103826
2.97797e-05
1.64471e-05
3.15942e-05
0.000109063
0.000237195
0.000371908
0.000525452
0.000378422
0.000215356
7.81833e-05
2.36565e-05
1.69034e-05
2.04843e-05
7.05635e-05
0.000188963
0.000327517
0.000603459
0.000372033
0.000165217
4.6545e-05
1.93518e-05
1.72088e-05
1.68235e-05
4.26646e-05
0.000144664
0.000289031
0.000612718
0.000251672
7.28631e-05
2.16405e-05
1.76344e-05
1.72844e-05
1.58783e-05
2.43819e-05
0.000106671
0.000355274
1.04647e-05
1.03529e-05
1.02466e-05
1.01532e-05
1.0087e-05
1.00616e-05
1.00856e-05
1.01581e-05
1.02678e-05
1.03985e-05
1.05372e-05
1.06822e-05
1.08317e-05
1.09365e-05
1.09928e-05
1.10008e-05
1.09618e-05
1.08828e-05
1.07739e-05
1.06511e-05
1.0533e-05
1.0427e-05
1.03223e-05
1.0202e-05
1.00544e-05
9.87126e-06
9.6432e-06
9.35802e-06
9.01e-06
8.62443e-06
8.23834e-06
7.89526e-06
7.58459e-06
7.26789e-06
6.88903e-06
6.3896e-06
5.7844e-06
5.05408e-06
4.71179e-06
4.42734e-06
9.02719e-05
8.82659e-05
8.58246e-05
8.34506e-05
8.15541e-05
8.03224e-05
7.98781e-05
8.04069e-05
8.19704e-05
8.43212e-05
8.69741e-05
8.93524e-05
9.07628e-05
9.15929e-05
9.1999e-05
9.20207e-05
9.1665e-05
9.09426e-05
8.98979e-05
8.86474e-05
8.73534e-05
8.60888e-05
8.47598e-05
8.32498e-05
8.15154e-05
7.95548e-05
7.73632e-05
7.49223e-05
7.22121e-05
6.93182e-05
6.63403e-05
6.32896e-05
5.99933e-05
5.62087e-05
5.17527e-05
4.65241e-05
4.03067e-05
3.26957e-05
2.24743e-05
8.51014e-06
0.000171069
0.000168119
0.000164886
0.000161874
0.000159524
0.000158002
0.000157361
0.00015777
0.00015929
0.000161559
0.000163954
0.000165911
0.000167067
0.000167509
0.000167305
0.000166488
0.000165075
0.000163091
0.000160596
0.00015771
0.000154612
0.000151443
0.000148073
0.000144384
0.000140353
0.000135984
0.000131278
0.000126225
0.000120823
0.000115077
0.000108967
0.000102401
9.52369e-05
8.73275e-05
7.85422e-05
6.88229e-05
5.80152e-05
4.57993e-05
3.13699e-05
1.43473e-05
0.000234716
0.000231594
0.000228262
0.000225119
0.000222551
0.000220655
0.00021934
0.000218721
0.000218983
0.000219759
0.000220491
0.000220753
0.000220375
0.000219341
0.000217663
0.000215362
0.00021247
0.000209027
0.000205091
0.000200744
0.000196077
0.000191145
0.000185941
0.000180412
0.000174548
0.000168335
0.00016175
0.000154764
0.000147353
0.000139489
0.000131103
0.000122074
0.000112281
0.000101625
9.00542e-05
7.75423e-05
6.41299e-05
4.9864e-05
3.46976e-05
1.90889e-05
0.000283279
0.000280091
0.000276722
0.000273419
0.00027038
0.000267715
0.000265464
0.000263672
0.000262317
0.000261192
0.000259893
0.000258124
0.000255796
0.000252862
0.000249323
0.000245216
0.0002406
0.000235549
0.000230137
0.000224413
0.000218394
0.000212078
0.000205483
0.000198643
0.000191562
0.000184192
0.000176445
0.000168214
0.000159448
0.000150147
0.000140287
0.000129775
0.000118458
0.000106174
9.28598e-05
7.85479e-05
6.33656e-05
4.74299e-05
3.06892e-05
1.97613e-05
0.000320126
0.000316702
0.000313095
0.000309432
0.000305805
0.000302325
0.000299011
0.000295857
0.000292795
0.000289721
0.000286429
0.000282723
0.000278434
0.000273527
0.000268014
0.000261971
0.0002555
0.000248709
0.000241695
0.000234514
0.000227171
0.000219659
0.000211999
0.000204261
0.000196454
0.000188525
0.000180282
0.000171354
0.00016167
0.000151406
0.000140752
0.000129657
0.000117831
0.000104952
9.08734e-05
7.56339e-05
5.94845e-05
4.29011e-05
2.67352e-05
1.99113e-05
0.00034832
0.000344419
0.000340303
0.000336042
0.000331689
0.000327268
0.000322772
0.000318178
0.000313448
0.000308542
0.000303376
0.000297827
0.000291712
0.000284898
0.000277418
0.00026941
0.000261021
0.000252392
0.000243649
0.000234884
0.000226136
0.000217415
0.000208743
0.000200225
0.000191908
0.000183731
0.000175537
0.00016649
0.000156266
0.000145392
0.000134528
0.0001237
0.000112411
0.000100076
8.65832e-05
7.19788e-05
5.61637e-05
3.93267e-05
2.24662e-05
1.99281e-05
0.000370259
0.000365671
0.000360812
0.000355718
0.000350405
0.000344866
0.000339081
0.000333036
0.000326716
0.000320099
0.000313158
0.000305828
0.000297954
0.00028931
0.000279929
0.000270017
0.000259753
0.0002493
0.000238797
0.000228364
0.000218091
0.000208047
0.000198311
0.000189006
0.000180204
0.000171893
0.000163906
0.000155464
0.000145919
0.000135332
0.000124737
0.0001148
0.000104863
9.41871e-05
8.28062e-05
7.06426e-05
5.69257e-05
4.08249e-05
2.22108e-05
4.93351e-06
0.000387739
0.000382285
0.00037648
0.000370344
0.000363885
0.000357093
0.000349956
0.000342463
0.000334607
0.000326371
0.000317747
0.000308736
0.000299196
0.000288828
0.00027768
0.000266011
0.00025402
0.000241878
0.000229744
0.000217764
0.000206081
0.000194834
0.000184163
0.000174204
0.000165052
0.000156749
0.000149237
0.000142006
0.000134424
0.000126058
0.000117304
0.00010905
0.000101495
9.37711e-05
8.51475e-05
7.52963e-05
6.37338e-05
4.93104e-05
3.0117e-05
5.76133e-06
0.000402121
0.000395686
0.000388807
0.000381504
0.000373793
0.000365686
0.000357193
0.000348306
0.000339007
0.000329289
0.000319136
0.000308523
0.00029735
0.00028538
0.000272698
0.000259537
0.000246101
0.000232587
0.000219177
0.00020604
0.000193362
0.000181366
0.000170274
0.000160249
0.000151386
0.000143731
0.000137285
0.000131865
0.000126939
0.000122017
0.000117137
0.000112499
0.000107811
0.00010217
9.48547e-05
8.54447e-05
7.36233e-05
5.81401e-05
3.77194e-05
6.706e-06
0.000414603
0.000407158
0.00039916
0.000390638
0.000381622
0.000372147
0.000362254
0.000351972
0.000341296
0.000330214
0.000318701
0.000306653
0.000293985
0.000280624
0.000266686
0.00025237
0.000237898
0.000223498
0.000209378
0.000195707
0.00018271
0.000170751
0.000160126
0.000150992
0.000143389
0.000137298
0.000132685
0.000129488
0.000127405
0.000125922
0.000124474
0.000122456
0.000119214
0.000114012
0.00010622
9.54406e-05
8.14314e-05
6.38672e-05
4.07401e-05
7.127e-06
0.000426219
0.000417826
0.000408771
0.000399088
0.000388814
0.000377997
0.000366696
0.000354976
0.000342876
0.000330395
0.000317485
0.000304132
0.000290234
0.00027582
0.000261032
0.000246056
0.000231122
0.000216476
0.000202341
0.00018895
0.000176653
0.000165845
0.00015676
0.000149443
0.000143839
0.000139855
0.000137389
0.000136317
0.00013637
0.000136991
0.000137373
0.00013665
0.000133908
0.000128217
0.000118835
0.000105378
8.79288e-05
6.67394e-05
4.12822e-05
7.66816e-06
0.000437769
0.000428573
0.000418626
0.000407963
0.000396629
0.000384681
0.000372189
0.000359227
0.000345855
0.000332098
0.000317969
0.000303486
0.000288673
0.000273605
0.00025843
0.000243347
0.000228595
0.000214431
0.000201118
0.000188986
0.000178399
0.000169622
0.000162687
0.000157492
0.000153903
0.00015181
0.000151063
0.000151516
0.000152973
0.000154976
0.000156676
0.000156939
0.00015449
0.000148043
0.000136623
0.000119842
9.80369e-05
7.21626e-05
4.31557e-05
8.64818e-06
0.000449896
0.000440075
0.000429455
0.000418068
0.000405962
0.000393198
0.000379853
0.000366009
0.000351745
0.000337132
0.000322234
0.00030713
0.000291922
0.000276749
0.00026179
0.000247264
0.000233429
0.000220546
0.000208875
0.000198693
0.000190256
0.000183656
0.000178752
0.000175339
0.000173243
0.000172336
0.000172563
0.00017388
0.000176122
0.000178939
0.000181798
0.000183265
0.000181505
0.000174662
0.000161337
0.000140891
0.000113568
8.06945e-05
4.50753e-05
9.67678e-06
0.000463091
0.00045287
0.000441846
0.000430047
0.000417523
0.00040434
0.00039058
0.000376335
0.000361704
0.000346787
0.000331693
0.000316552
0.000301521
0.000286805
0.000272613
0.000259163
0.00024671
0.0002355
0.000225756
0.000217657
0.000211279
0.000206489
0.000203106
0.00020088
0.000199558
0.00019901
0.000199402
0.000200818
0.00020335
0.000206896
0.00021068
0.000213354
0.000212559
0.000205586
0.000190781
0.000167222
0.000134743
9.43764e-05
5.00142e-05
1.07211e-05
0.000477753
0.000467384
0.000456233
0.00044434
0.00043176
0.000418565
0.000404842
0.00039069
0.000376217
0.000361542
0.000346796
0.000332137
0.000317753
0.000303862
0.000290693
0.000278488
0.000267453
0.000257797
0.000249684
0.000243141
0.000238052
0.000234306
0.000231723
0.000230074
0.000229136
0.000228737
0.00022882
0.000229758
0.000231859
0.000235328
0.000239908
0.000244201
0.000244546
0.000237183
0.000221146
0.000195259
0.000158659
0.000111373
5.69563e-05
1.17348e-05
0.000493825
0.000483584
0.000472604
0.000460938
0.00044865
0.000435822
0.000422544
0.000408912
0.000395035
0.000381029
0.000367026
0.000353185
0.000339695
0.00032675
0.000314574
0.000303391
0.000293391
0.000284718
0.000277455
0.000271596
0.000266986
0.0002635
0.000261023
0.000259368
0.000258341
0.000257792
0.000257697
0.000258267
0.000260071
0.000263349
0.000267562
0.00027338
0.000274761
0.000266733
0.000249948
0.000222845
0.000183726
0.000131124
6.63487e-05
1.27902e-05
0.000510914
0.000501068
0.00049054
0.000479397
0.000467716
0.00045558
0.000443078
0.000430297
0.00041733
0.000404278
0.000391259
0.000378412
0.000365882
0.000353848
0.000342505
0.000332034
0.000322596
0.000314302
0.000307201
0.000301295
0.000296562
0.000292936
0.000290301
0.000288528
0.000287463
0.000286954
0.000286925
0.000287618
0.000289684
0.000293328
0.000297981
0.000304359
0.000302714
0.000293251
0.000275709
0.000248042
0.000208163
0.000153476
8.05049e-05
1.39031e-05
0.000528418
0.000519196
0.000509365
0.000498999
0.00048818
0.000476992
0.000465512
0.000453808
0.00044195
0.000430014
0.000418092
0.000406288
0.000394709
0.000383513
0.000372871
0.000362926
0.000353825
0.000345669
0.000338525
0.00033245
0.000327486
0.000323642
0.000320893
0.000319187
0.000318449
0.000318576
0.000319344
0.000320615
0.00032276
0.000326016
0.000330838
0.000333437
0.000328913
0.000317824
0.000298562
0.000269226
0.000227762
0.000171358
9.69968e-05
1.5013e-05
0.000545688
0.000537278
0.000528344
0.000518956
0.000509195
0.000499137
0.000488844
0.000478361
0.000467728
0.000456999
0.000446238
0.000435503
0.000424908
0.000414585
0.000404681
0.000395344
0.000386721
0.000378889
0.000371952
0.000365996
0.000361099
0.000357313
0.000354657
0.000353116
0.000352649
0.000353237
0.000354886
0.000357274
0.000360167
0.000362854
0.000363684
0.000361353
0.00035425
0.00034067
0.000318723
0.000286591
0.000242078
0.000181764
0.00010286
1.56672e-05
0.000562255
0.000554805
0.000546911
0.000538631
0.000530048
0.000521223
0.000512203
0.000503019
0.000493687
0.000484237
0.000474694
0.000465128
0.000455642
0.000446371
0.000437467
0.000429079
0.000421321
0.000414302
0.000408125
0.000402879
0.000398638
0.000395452
0.000393336
0.000392252
0.000392094
0.000392733
0.000394019
0.000395741
0.000397455
0.000397446
0.000394531
0.00038861
0.000378134
0.000361316
0.00033639
0.000301375
0.000253598
0.000188826
0.000105219
1.58056e-05
0.000578089
0.000571612
0.000564783
0.00055765
0.00055028
0.000542701
0.000534967
0.000527098
0.000519102
0.000510985
0.000502779
0.000494543
0.000486373
0.000478425
0.000470841
0.000463789
0.000457363
0.00045166
0.000446762
0.000442731
0.0004396
0.00043737
0.00043604
0.000435502
0.000435588
0.00043604
0.000436495
0.000436451
0.000435233
0.000432039
0.000426027
0.000416386
0.000402128
0.000382164
0.000355045
0.00031819
0.000267603
0.00019799
0.000107917
1.63706e-05
0.000593181
0.000587644
0.0005818
0.000575735
0.000569527
0.000563229
0.000556802
0.000550266
0.000543622
0.000536882
0.000530089
0.000523315
0.000516669
0.000510294
0.000504337
0.000498898
0.000494075
0.000489964
0.000486598
0.00048397
0.000482127
0.000480982
0.000480421
0.000480285
0.000480363
0.000480362
0.000479873
0.000478338
0.000475059
0.000469243
0.000460085
0.000446955
0.000429551
0.000407658
0.000380214
0.00034332
0.00028918
0.00021458
0.000119572
1.77078e-05
0.000607639
0.000603051
0.000598149
0.000593069
0.000587899
0.000582711
0.000577542
0.000572347
0.000567116
0.000561854
0.000556594
0.000551397
0.000546384
0.000541694
0.000537457
0.000533784
0.000530753
0.000528395
0.000526651
0.000525508
0.000524874
0.000524598
0.000524519
0.000524471
0.000524262
0.000523634
0.000522209
0.00051942
0.000514491
0.000506514
0.000494716
0.000478914
0.000459783
0.000438177
0.000413437
0.000378781
0.000321
0.000244559
0.000142763
1.94168e-05
0.000620609
0.000616994
0.00061308
0.000609001
0.000604917
0.000600969
0.000597109
0.000593294
0.000589542
0.000585879
0.000582315
0.000578886
0.000575714
0.000572952
0.000570726
0.000569104
0.000568089
0.000567588
0.000567443
0.000567547
0.000567744
0.000567843
0.000567704
0.000567227
0.000566305
0.000564774
0.000562322
0.000558358
0.000551955
0.000542044
0.000528041
0.000510674
0.000492069
0.000473698
0.000453264
0.000420444
0.000365363
0.00028735
0.000166196
2.10285e-05
0.000632042
0.000629141
0.000626154
0.000623201
0.000620409
0.000617801
0.000615373
0.000613105
0.000611084
0.000609376
0.000607994
0.000606916
0.000606218
0.000606004
0.000606307
0.000607085
0.000608113
0.000609183
0.000610163
0.000610874
0.000611152
0.00061081
0.000609807
0.000608168
0.000605907
0.000602991
0.000599227
0.000594046
0.000586358
0.000574871
0.000559425
0.000542849
0.000529835
0.000522659
0.000504744
0.000464
0.000417302
0.000333926
0.000191401
2.23535e-05
0.000641896
0.000639585
0.000637477
0.000635666
0.000634229
0.000633222
0.000632679
0.000632649
0.000633194
0.000634379
0.000636151
0.000638353
0.00064089
0.000643709
0.000646614
0.000649322
0.000651574
0.000653344
0.000654547
0.000654978
0.000654366
0.000652628
0.000649903
0.000646326
0.000641997
0.00063701
0.000631356
0.000624706
0.00061611
0.000604146
0.000588953
0.000577144
0.000574618
0.000563105
0.000533481
0.000493068
0.000448569
0.000361749
0.000206818
2.33732e-05
0.000650202
0.000648569
0.000647569
0.000647317
0.000647821
0.000649116
0.00065151
0.000655011
0.00065946
0.000664627
0.000670189
0.00067575
0.000681034
0.000685868
0.000690094
0.000693493
0.000695904
0.000697349
0.000697669
0.00069668
0.000694153
0.000690085
0.000684769
0.000678332
0.000670981
0.000662921
0.000654339
0.000645464
0.00063613
0.000625549
0.000613328
0.000601811
0.000590242
0.000569921
0.000541074
0.000506132
0.000462481
0.000375156
0.000214577
2.37204e-05
0.000657637
0.000657276
0.000658296
0.000660775
0.000664657
0.000670134
0.000677317
0.000685853
0.000694936
0.000703831
0.000711895
0.000718804
0.000724614
0.000729289
0.000732933
0.000735303
0.000736039
0.000735344
0.000733326
0.000729757
0.000724392
0.000717258
0.000708529
0.000698454
0.000687322
0.00067555
0.00066368
0.000652119
0.000640837
0.000629117
0.000615795
0.000600646
0.000586423
0.000571887
0.000547231
0.000512316
0.000465248
0.00037565
0.000215159
2.34253e-05
0.000665837
0.000668113
0.000673107
0.000680824
0.000690704
0.000702617
0.0007159
0.000729014
0.000740097
0.000749212
0.000756568
0.000762316
0.000766031
0.000767493
0.000767923
0.000767407
0.000765555
0.00076227
0.0007574
0.00075077
0.000742329
0.000732208
0.000720503
0.000707319
0.000692932
0.000677889
0.000662951
0.000648569
0.000634794
0.000621073
0.000606309
0.000589361
0.000570171
0.000550452
0.000529439
0.000492911
0.000437686
0.0003469
0.000199085
2.20192e-05
0.000676694
0.000683601
0.000695526
0.000712658
0.000732025
0.00075048
0.000767728
0.000779148
0.00078292
0.000788759
0.000792105
0.000791576
0.000790936
0.000790142
0.000788841
0.000786476
0.000782683
0.000777282
0.000770111
0.000761058
0.000750105
0.00073738
0.000723033
0.000707248
0.000690355
0.000672872
0.000655385
0.000638263
0.000621407
0.000604232
0.000585915
0.00056546
0.000541886
0.000514532
0.000482848
0.000441938
0.000381679
0.000295606
0.00017004
1.9854e-05
0.000691245
0.000704597
0.00072649
0.000752822
0.000774246
0.000788842
0.000797767
0.000808901
0.00081066
0.000803844
0.000802039
0.000801896
0.000801601
0.000800464
0.000798143
0.000794386
0.000789023
0.000781945
0.000773057
0.000762272
0.000749555
0.000734976
0.000718702
0.000701001
0.000682274
0.000663026
0.000643696
0.000624399
0.000604655
0.000583452
0.000560278
0.000534439
0.000505001
0.000470891
0.000430146
0.000379634
0.000318429
0.000241493
0.000140338
1.8337e-05
0.000708684
0.000728017
0.000756943
0.000777833
0.000787213
0.000796535
0.000808743
0.000810445
0.000805917
0.000804725
0.000805323
0.000805863
0.000805326
0.000803359
0.000799898
0.000794922
0.000788378
0.000780176
0.000770197
0.000758318
0.000744464
0.000728652
0.000711039
0.000691953
0.000671905
0.000651529
0.000631273
0.00061099
0.000589598
0.000565101
0.000537705
0.000506387
0.000469777
0.000426623
0.000376062