/*--------------------------------*- C++ -*----------------------------------*\
  =========                 |
  \\      /  F ield         | OpenFOAM: The Open Source CFD Toolbox
   \\    /   O peration     | Website:  https://openfoam.org
    \\  /    A nd           | Version:  8
     \\/     M anipulation  |
\*---------------------------------------------------------------------------*/
FoamFile
{
    version     2.0;
    format      ascii;
    class       volScalarField;
    location    "3.4";
    object      p_rgh;
}
// * * * * * * * * * * * * * * * * * * * * * * * * * * * * * * * * * * * * * //

dimensions      [1 -1 -2 0 0 0 0];

internalField   nonuniform List<scalar> 
9150
(
2562.79
2535.34
2510.04
2492.91
2484.63
2484.64
2492.93
2510.07
2535.38
2562.83
2553.74
2533.6
2518.1
2506.33
2500.37
2500.38
2506.34
2518.12
2533.63
2553.77
2544.04
2529.93
2521.58
2513.8
2509.72
2509.72
2513.81
2521.6
2529.95
2544.06
2538.93
2528.4
2523.15
2517.73
2514.77
2514.78
2517.74
2523.16
2528.42
2538.96
2537.3
2527.78
2523.47
2519.25
2516.8
2516.8
2519.26
2523.49
2527.8
2537.33
2097.24
2094.1
2118.88
2132.56
2139.24
2139.34
2132.85
2119.32
2094.7
2098.05
2287.01
2263.2
2258.04
2256.66
2256.77
2256.82
2256.81
2258.28
2263.51
2287.32
2411.32
2379.96
2364.41
2354.47
2349.82
2349.86
2354.56
2364.54
2380.12
2411.47
2511.88
2469.32
2441.92
2424.57
2416.07
2416.09
2424.62
2442
2469.4
2511.95
2584.59
2529.45
2490.85
2468.81
2458.68
2458.69
2468.85
2490.89
2529.5
2584.63
1907.56
1951.27
1938.06
1949.93
1943.63
1944.87
1949.79
1938.94
1954.09
1917.55
1937.57
1959.66
1937.07
1950.23
1943.35
1944.43
1949.74
1940.9
1961.73
1944.98
1919.09
1951.26
1914.14
1927.5
1928.84
1929.25
1927.32
1916.77
1953.59
1923.53
1760.43
1888.22
1897.23
1918.74
1935.8
1935.95
1919.35
1899.11
1889.57
1763.95
1621.44
1874.12
1966.73
1997.02
2013.71
2013.85
1997.53
1967.6
1875.07
1623.84
1771.76
1771.2
1770.64
1770.07
1769.48
1768.9
1768.3
1767.7
1767.1
1766.51
1771.7
1771.13
1770.55
1769.97
1769.38
1768.8
1768.21
1767.62
1767.04
1766.48
1771.73
1771.16
1770.58
1770
1769.41
1768.83
1768.25
1767.68
1767.12
1766.57
1771.84
1771.27
1770.69
1770.11
1769.54
1768.97
1768.42
1767.86
1767.3
1766.75
1771.98
1771.41
1770.85
1770.29
1769.74
1769.21
1768.68
1768.16
1767.67
1767.22
1772.15
1771.59
1771.03
1770.48
1769.94
1769.4
1768.87
1768.36
1767.87
1767.42
1772.37
1771.81
1771.23
1770.66
1770.11
1769.56
1769.02
1768.51
1768.03
1767.6
1772.61
1772.03
1771.45
1770.85
1770.25
1769.64
1769.04
1768.49
1768.03
1767.64
1772.92
1772.33
1771.71
1771.05
1770.37
1769.63
1768.88
1768.22
1767.76
1767.5
1773.42
1772.79
1772.11
1771.4
1770.64
1769.74
1768.5
1762.97
1759.93
1763.57
1774.13
1773.52
1772.89
1772.22
1771.54
1766.18
1732.61
1727.78
1730.5
1765.29
1774.89
1774.26
1773.59
1772.82
1752.54
1724.26
1723.96
1723.73
1723.03
1735.37
1775.89
1775.38
1774.9
1773.2
1736.91
1722.4
1721.86
1721.36
1720.66
1734.67
1776.68
1776.29
1776.17
1776.04
1774.73
1747.06
1719.08
1719.32
1718.32
1749.9
1777.29
1777.04
1776.68
1776.35
1776.11
1775.54
1760.29
1743.32
1751.13
1772.46
1777.94
1777.55
1777.05
1776.57
1776.08
1775.49
1774.87
1774.27
1773.66
1772.89
1778.54
1777.97
1777.37
1776.76
1776.13
1775.48
1774.79
1774.07
1773.34
1772.61
1779
1778.4
1777.71
1776.99
1776.24
1775.46
1774.66
1773.84
1773.03
1772.24
1779.66
1778.92
1778.14
1777.3
1776.43
1775.5
1774.54
1773.56
1772.59
1771.68
1780.41
1779.6
1778.73
1777.79
1776.75
1775.63
1774.42
1773.15
1771.87
1770.68
1781.34
1780.51
1779.58
1778.5
1777.23
1775.85
1774.4
1772.92
1770.88
1768.75
1782.58
1781.83
1781.01
1780.09
1778.06
1769.75
1765.66
1765.36
1691.55
1605.66
1784.14
1783.64
1783.19
1782.85
1782.56
1721.23
1588.81
1586.87
1583.91
1582.22
1785.47
1785.09
1784.78
1784.59
1784.59
1784.89
1785.64
1772.87
1637.06
1577.48
1786.48
1786.05
1785.65
1785.28
1784.96
1784.68
1784.34
1784.02
1783.76
1784.17
1787.42
1786.96
1786.49
1786.03
1785.57
1785.11
1784.62
1784.11
1783.64
1783.36
1788.29
1787.77
1787.23
1786.64
1786.01
1785.37
1784.76
1784.09
1783.43
1782.84
1789.17
1788.61
1787.98
1787.2
1786.2
1785.38
1784.79
1783.86
1782.87
1781.87
1790.14
1789.54
1788.62
1787.71
1786.83
1785.86
1785.1
1783.92
1782.65
1781.36
1791.24
1790.35
1789.58
1788.76
1787.79
1786.99
1785.68
1784.12
1782.35
1780.41
1792.52
1791.66
1791.03
1790.25
1789.59
1788.47
1786.96
1785.1
1782.78
1779.77
1794.1
1793.68
1792.95
1792.5
1792.06
1791.09
1789.87
1788.27
1786.03
1782.81
1795.77
1795.71
1795.53
1795.32
1795.06
1794.6
1793.97
1792.98
1791.26
1789.32
1797.43
1797.67
1797.89
1798.1
1798.29
1798.46
1798.62
1798.62
1798.07
1797.62
1798.83
1799.34
1799.9
1800.53
1801.23
1802.05
1803.04
1804.25
1805.56
1806.88
1799.77
1800.44
1801.19
1802.03
1802.98
1804.04
1805.26
1806.7
1808.37
1810.15
1800.24
1800.99
1801.84
1802.77
1803.81
1804.96
1806.25
1807.71
1809.42
1811.48
1799.66
1801.04
1801.85
1802.74
1803.68
1804.67
1805.7
1806.74
1807.78
1808.81
1798.98
1800.76
1801.51
1802.3
1803.12
1803.97
1804.8
1805.59
1806.25
1806.63
1799.43
1799.84
1800.78
1801.65
1802.37
1803.12
1803.88
1804.61
1805.23
1805.61
1799.12
1799.05
1799.31
1800.67
1801.47
1802.12
1802.82
1803.57
1804.29
1804.87
1798.57
1798.94
1797.9
1793.7
1795.07
1800.9
1801.54
1802.3
1803.12
1803.9
1798.08
1798.48
1798.71
1796.54
1775.58
1760.38
1786.71
1800.72
1801.4
1802.06
1797.67
1798.06
1798.44
1798.62
1791.98
1743.65
1706.12
1717.85
1800.76
1800.88
1797.39
1797.81
1798.25
1798.67
1798.84
1787.33
1712.7
1640.43
1642.26
1748.25
1797.17
1797.67
1798.23
1798.85
1799.53
1800.23
1791.25
1710.99
1624.47
1625.14
1796.79
1797.33
1797.95
1798.63
1799.38
1800.2
1801.08
1799.26
1727.37
1659.3
1796.19
1796.79
1797.47
1798.24
1799.08
1800
1800.95
1801.88
1802.36
1789.69
1795.27
1795.91
1796.68
1797.57
1798.61
1799.76
1801.02
1802.31
1803.53
1804.64
1793.83
1794.46
1795.26
1796.27
1797.49
1798.96
1800.66
1802.6
1804.75
1807.21
1791.7
1792.21
1792.97
1794
1795.4
1797.24
1799.61
1802.71
1807.14
1738.39
1788.58
1788.72
1789.05
1789.65
1790.57
1791.89
1793.73
1796.27
1799.73
1773.74
1784.66
1784.19
1783.85
1783.68
1783.75
1784.12
1784.92
1786.3
1788.32
1790.71
1780.25
1779.01
1777.78
1776.58
1775.47
1774.52
1773.82
1773.54
1773.87
1774.96
1775.83
1773.72
1771.47
1769.09
1766.57
1763.95
1761.31
1758.84
1756.77
1753.21
1771.48
1768.94
1765.8
1762.23
1758.26
1753.81
1748.83
1720.68
1713.11
1733.71
1768.57
1765.18
1761.86
1757.47
1746.67
1686.23
1618.95
1607.09
1660.14
1718.48
1767.8
1764.31
1760.61
1755.82
1654.92
1614.58
1608.06
1600.13
1680.28
1702.26
1769.56
1766
1761.96
1757.4
1693.09
1618.46
1615.11
1705.73
1719.4
1672.86
1772.66
1769.16
1765.33
1760.97
1753.15
1722.65
1728.04
1740.51
1732.24
1169.89
1776.84
1773.93
1770.31
1766.32
1762.42
1758.16
1753.27
1747.12
1489.85
701.297
1768.74
1779.06
1776.85
1773.62
1770.07
1766.18
1761.59
1724.32
983.833
611.871
1769.98
1782.97
1784.42
1781.66
1778.67
1775.35
1770.61
1472.62
678.209
604.744
1783.51
1794.04
1792.56
1790.44
1788.18
1785.26
1755.96
1012.31
602.782
600.268
1802.28
1802.36
1801.15
1799.92
1798.55
1795.43
1499.03
693.926
598.973
596.181
1810.63
1810.26
1809.93
1809.75
1809.08
1773.01
1000.13
607.99
599.975
592.438
1817.42
1817.75
1818.47
1819.44
1818.73
1439.46
676.051
620.431
601.207
733.742
1822.06
1823.51
1825.87
1827.81
1728.46
869.831
655.123
629.734
787.901
1527.28
1825.65
1827.57
1829.48
1830.35
1180.23
710.367
670.333
810.065
1560.8
1780.55
1826.73
1828.07
1827.4
1429.45
748.185
718.369
815.795
1565.68
1791.1
1776.61
1827.55
1827.08
1688.15
783.19
700.585
770.555
1564.27
1805.6
1789.86
1769.94
1830.1
1827.51
920.128
649.349
668.622
1528.43
1822.14
1805.2
1784.65
1762.58
1834.41
1303.21
586.921
609.972
1249.09
1825.35
1816.8
1798.24
1777.4
1754.97
1753.4
679.383
564.633
778.372
1714.02
1828.65
1813.06
1793.3
1771.96
1749.4
986.939
522.19
529.537
1467.13
1842.69
1827.66
1809.14
1789.26
1768.35
1746.41
539.712
507.784
734.625
1740.21
1835.18
1821.15
1804
1785.69
1766.56
1746.83
476.14
482.153
1326.11
1847.26
1834.45
1818.34
1801.19
1783.4
1765.19
1746.71
461.868
506.52
1664.89
1838.86
1827.14
1812.39
1796.61
1780.02
1762.75
1744.88
455.259
1074.08
1823.5
1832.8
1823.2
1810
1794.93
1778.81
1762.09
1745.12
458.064
1530.49
1861.28
1846.12
1830.12
1813.41
1796.12
1778.47
1760.68
1742.97
766.551
1804.69
1859.12
1844.44
1828.89
1812.14
1794.54
1776.33
1757.8
1739.08
1459.66
1861.74
1851.5
1839.77
1825.82
1809.97
1792.59
1774.18
1755.34
1735.65
1732.24
1853.83
1848.77
1838.47
1825.11
1809.39
1791.56
1772.34
1752.43
1731.16
1864.61
1861.55
1854.58
1843.51
1829.58
1813.08
1794.18
1773.5
1751.13
1725.94
1888.73
1877.46
1865.61
1852.45
1837.72
1821.01
1802.51
1782.94
1762.62
1742.3
1892.25
1882.82
1871.32
1858.69
1844.9
1829.51
1812.9
1796.02
1779.6
1765.62
1897.27
1886.75
1875.31
1863.42
1850.99
1837.55
1823.55
1809.97
1797.57
1775.59
1897.44
1886.78
1875.82
1865.31
1854.81
1843.84
1832.76
1822.49
1813.52
1707.33
1889.45
1881.77
1872.38
1864.1
1856.22
1848.23
1840.28
1833.1
1826.98
1681.85
1874.18
1872.55
1866.2
1861.01
1856.34
1851.6
1846.78
1842.53
1839.27
1663.72
1859.77
1863.87
1860.89
1858.73
1856.97
1854.97
1852.69
1850.63
1849.36
1646.25
1844.53
1859.93
1859.35
1859.28
1859.45
1859.16
1858.48
1857.59
1856.86
1626.5
1710.63
1861.05
1861.8
1862.95
1864.26
1864.87
1865.05
1864.68
1863.59
1605.3
1643.23
1864.45
1867.33
1869.65
1871.69
1872.7
1873.22
1873.31
1871.96
1588.08
1635.06
1876.45
1877.83
1879.48
1881.25
1882.01
1882.58
1883.61
1882.56
1579.03
1640.67
1888.33
1888.73
1889.21
1890.6
1890.85
1891.38
1893.45
1891.94
1576.48
1647.22
1895.21
1897.5
1897.28
1899.34
1899.32
1899.71
1901.36
1897.67
1579.16
1693.58
1901.04
1906.54
1906.74
1909.38
1909.59
1910.15
1910.09
1906.36
1632.7
1751.64
1920.54
1922.7
1921.11
1921.64
1922.06
1923.83
1923.48
1925.2
1721.75
1828.51
1952.84
1939.8
1936.97
1934.05
1934.71
1938.31
1936.5
1950.42
1831.26
1765.89
1765.27
1764.68
1764.12
1763.6
1763.1
1762.61
1762.13
1761.64
1761.16
1760.67
1760.19
1759.72
1759.29
1758.86
1758.44
1758
1757.57
1757.14
1756.72
1756.31
1755.92
1755.55
1755.19
1754.85
1754.51
1754.19
1753.88
1753.61
1753.38
1753.19
1753.02
1752.87
1752.74
1752.62
1752.51
1752.42
1752.34
1752.29
1752.3
1765.92
1765.36
1764.84
1764.35
1763.86
1763.37
1762.85
1762.31
1761.74
1761.15
1760.56
1760
1759.5
1759.01
1758.52
1758.06
1757.61
1757.16
1756.72
1756.3
1755.88
1755.48
1755.09
1754.73
1754.38
1754.04
1753.73
1753.43
1753.11
1752.87
1752.68
1752.56
1752.57
1752.52
1752.42
1752.33
1752.27
1752.23
1752.2
1752.16
1766
1765.42
1764.8
1764.22
1763.81
1763.46
1762.7
1761.93
1761.56
1761.06
1760.52
1759.95
1759.45
1758.92
1758.37
1757.87
1757.37
1756.88
1756.37
1755.81
1755.28
1755.02
1754.73
1754.41
1754.09
1753.81
1753.56
1753.34
1752.59
1752.45
1752.32
1752.13
1751.88
1752.17
1752.16
1752.29
1752.25
1752.17
1752.07
1751.93
1766.17
1765.52
1762.46
1759.83
1759
1758.31
1757.94
1757.31
1757.26
1760.63
1760.61
1760.05
1759.49
1758.95
1758.41
1757.89
1757.37
1756.83
1755.99
1754.03
1753.31
1753.61
1754.57
1754.25
1753.9
1753.6
1753.37
1753.22
1753.11
1752.24
1751.85
1751.68
1751.69
1751.36
1751.24
1751.09
1751.27
1751.27
1751.11
1751.14
1766.77
1763.52
1759.47
1759.08
1758.3
1757.55
1756.81
1756.14
1755.3
1758.41
1761.08
1760.33
1759.69
1759.12
1758.6
1758.1
1757.62
1757.02
1753.75
1752.61
1752.13
1751.5
1750.69
1752.84
1753.22
1753.07
1753.04
1752.89
1752.83
1752.8
1752.84
1752.84
1752.81
1752.28
1751.05
1750.8
1750.66
1750.49
1750.31
1750.06
1766.96
1766.21
1765.01
1764.23
1764.27
1763.1
1756.4
1755.28
1757.11
1761.9
1760.98
1760.23
1759.65
1759.17
1758.73
1758.28
1757.84
1757.41
1756.36
1752.77
1751.51
1750.88
1750.35
1749.78
1748.98
1750.96
1752.53
1752.25
1751.98
1752.01
1752.25
1752.5
1752.39
1752.36
1752.34
1752.31
1752.32
1752.33
1751.32
1750.15
1767.17
1766.76
1766.4
1766.04
1765.64
1764.91
1763.56
1762.27
1762.09
1761.53
1760.51
1759.69
1759.3
1759.07
1758.8
1758.44
1758.07
1757.7
1757.38
1757.06
1756.67
1754.02
1750.74
1750.99
1753.23
1746.01
1742.19
1745.66
1750.19
1751.9
1752.31
1752.05
1751.77
1751.75
1751.86
1751.92
1751.91
1751.94
1751.97
1751.51
1767.26
1766.87
1766.46
1766
1765.48
1764.84
1764.1
1763.31
1762.43
1761.23
1753.96
1746.68
1752.87
1758.78
1758.85
1758.6
1758.26
1757.89
1757.52
1757.1
1756.63
1756.07
1755.48
1754.98
1754.35
1751.41
1733.68
1730.87
1735.93
1752.75
1752.68
1750.32
1747.88
1749.18
1751.04
1751.34
1750.98
1750.69
1750.65
1750.56
1767.32
1767.03
1766.65
1766.21
1765.69
1765.08
1764.36
1763.47
1755.49
1731.1
1730.03
1730.31
1730.71
1754.42
1759.64
1759.22
1758.73
1758.23
1757.73
1757.23
1756.75
1756.25
1755.75
1755.25
1754.73
1751.82
1730.34
1727.53
1726.94
1725.9
1739.13
1730.6
1727.98
1730.13
1736.88
1737.75
1737.61
1737.94
1739.89
1739.26
1767.48
1767.34
1767.04
1766.63
1766.12
1765.51
1764.21
1740.69
1729.23
1728.67
1728.23
1727.84
1727.51
1749.62
1760.69
1759.92
1759.21
1758.52
1757.84
1757.27
1756.77
1756.32
1755.89
1755.43
1755.01
1754.74
1746.2
1725.72
1725.46
1725.25
1725.45
1725.71
1726.06
1727.27
1726.84
1724.98
1723.91
1722.1
1720.82
1720.77
1768.79
1768.41
1767.97
1767.5
1767.01
1766.49
1765.85
1744.77
1727.52
1726.84
1726.13
1725.21
1757.4
1763.03
1761.64
1760.54
1759.58
1758.62
1757.05
1755.72
1755.75
1756.23
1755.78
1755.32
1754.92
1754.68
1754.83
1755.31
1748.12
1724.9
1723.01
1729.41
1751.81
1755.89
1755.6
1748.91
1736.95
1725.71
1718.66
1718.29
1770.35
1769.66
1769.07
1768.54
1768.05
1767.68
1767.46
1767.5
1765.15
1740.8
1726.6
1757.73
1763.96
1762.77
1761.65
1760.62
1759.64
1758.6
1750.36
1743.41
1754.92
1755.76
1755.11
1754.38
1753.63
1752.95
1752.35
1751.8
1751.24
1750.6
1749.94
1750.13
1750.71
1751.5
1752.23
1752.8
1753.2
1753.09
1736.92
1716.15
1771.67
1770.69
1769.9
1769.22
1768.32
1767.67
1767.54
1767.36
1766.89
1765.95
1764.85
1764.54
1763.71
1762.71
1761.69
1760.66
1759.33
1746.08
1738.88
1738.8
1755.33
1755.43
1754.37
1753.26
1751.88
1750.56
1749.43
1747.93
1746.31
1744.69
1743.43
1742.9
1743.23
1744.02
1745.3
1746.97
1748.43
1749.21
1748.7
1742.13
1772.51
1771.37
1770.39
1769.16
1768.46
1767.85
1767.75
1767.29
1766.7
1766.03
1765.28
1764.46
1763.59
1762.69
1761.68
1758.17
1739.99
1737.47
1736.68
1740.34
1756.38
1754.98
1753.6
1752.16
1750.27
1747.96
1746.21
1744.42
1741.73
1738.69
1736.11
1734.76
1734.44
1735.2
1736.84
1738.97
1741.3
1743.44
1744.13
1742.76
1772.24
1771.37
1770.12
1769.2
1768.53
1767.92
1767.88
1767.28
1766.65
1765.97
1765.21
1763.89
1762.89
1762.55
1761.24
1744.04
1737.07
1736.11
1734.97
1737.27
1756.37
1754.71
1753.05
1751.3
1749.24
1746.11
1743.46
1740.54
1737.48
1730.6
1720.2
1715.38
1723.9
1726.85
1728.57
1730.68
1733.39
1735.97
1737.6
1737.44
1772.09
1771.29
1770.49
1769.35
1768.55
1767.94
1767.91
1767.3
1766.67
1766.01
1765.3
1763.22
1757.91
1757.29
1761.7
1749.04
1736.25
1735.28
1734.14
1732.82
1744.8
1754.6
1752.8
1750.81
1748.56
1745.96
1742.87
1738.72
1732.69
1724.17
1653.89
1610.9
1714.89
1720.32
1721.98
1724.09
1726.8
1729.3
1731.24
1732.3
1771.84
1771.07
1770.36
1769.6
1768.84
1768.33
1767.92
1767.36
1766.78
1766.17
1761.61
1758.08
1757.46
1756.78
1758.15
1763.07
1762.23
1745.19
1733.57
1732.61
1731.73
1750.86
1753.18
1751.11
1748.77
1746.16
1743.15
1739.65
1735.37
1689.86
1531.47
1516.41
1685.5
1718.72
1719.82
1720.55
1722.44
1725.14
1726.68
1728.6
1771.45
1770.7
1770.03
1769.42
1768.89
1768.38
1767.9
1767.42
1766.93
1766.44
1762.23
1758.12
1757.51
1756.88
1756.23
1761.65
1762.68
1761.75
1760.57
1754.94
1745.63
1746.8
1754.02
1752.15
1749.7
1747.22
1743.93
1729.24
1594.89
1476.9
1457.26
1465.4
1671.86
1726.28
1724.49
1722.23
1717.86
1712.88
1701.08
1723.32
1770.82
1770.08
1769.45
1768.95
1768.54
1768.19
1767.84
1767.49
1767.12
1766.77
1766.41
1765.1
1758.61
1757.07
1756.6
1755.96
1759.68
1762.18
1761.11
1759.86
1758.5
1757.03
1755.5
1753.69
1751.36
1748.4
1681.13
1509.85
1450.4
1449.86
1450.66
1514.65
1718.45
1734.14
1730.09
1726.93
1721.45
1619.29
1560.88
1650.61
1769.7
1768.99
1768.47
1768.12
1767.96
1767.88
1767.77
1767.55
1767.27
1767.1
1766.92
1766.73
1766.54
1766.21
1763.56
1758.02
1757.63
1759.56
1762.27
1761.04
1760.01
1758.99
1757.86
1756.85
1756.09
1754.02
1607.55
1448.26
1446.85
1446.13
1444.22
1639.11
1746.41
1740.92
1737.24
1734.63
1726.51
1539.57
1528.72
1577.51
1767.36
1767.42
1766.71
1766.4
1767
1767.63
1767.94
1764.55
1755.98
1760.74
1767.49
1766.17
1765.65
1766.13
1766.49
1766.27
1765.53
1764.41
1762.98
1762.04
1761.43
1760.78
1759.66
1758.73
1757.96
1757.47
1749.41
1619.06
1464.51
1458.51
1623.67
1752.29
1747.02
1743.58
1741.39
1740.33
1706.69
1520.2
1522.4
1597.28
1587.56
1615.76
1612.93
1628.47
1716.53
1762.01
1769.27
1763.69
1748.97
1740.46
1740.6
1740.15
1739.3
1751.64
1761.16
1765.73
1767.49
1766.79
1765.91
1764.9
1763.76
1762.43
1761.18
1759.89
1758.7
1757.36
1755.95
1754.25
1711.88
1684.81
1730.55
1746.77
1744.76
1743.03
1742.18
1742.7
1690.19
1516.88
1516.8
1691.57
1581.07
1580.11
1579.4
1579.02
1579.44
1581.71
1583.48
1655.44
1762.58
1772.89
1772.42
1766.09
1738.72
1737.08
1737.39
1737.59
1768.87
1769.32
1768.39
1767.29
1766.03
1764.64
1763.1
1761.52
1759.81
1758
1755.99
1753.67
1751.16
1719.01
1722.14
1743.24
1743.14
1741.42
1739.65
1663.58
1682.96
1538.58
1507.34
1699.68
1576.73
1579.54
1575.24
1574.57
1609.06
1723.49
1768.45
1774.87
1775.63
1774.94
1774.57
1774.62
1775.07
1772.72
1749.58
1741.43
1763.2
1772.12
1771.24
1770
1768.55
1766.91
1765.06
1763.07
1760.96
1758.74
1756.38
1753.84
1751.06
1736.28
1707.03
1710.24
1740.28
1739.55
1649.84
1417.47
1545.56
1564.17
1525.04
1694.89
1785.31
1784.26
1771.69
1761.72
1765.02
1774.06
1773.23
1773.32
1774.12
1774.93
1775.3
1775.45
1775.92
1776.4
1776.71
1775.8
1775.02
1775.71
1774.76
1773.15
1771.22
1769.23
1766.91
1764.4
1761.83
1759.23
1756.61
1753.91
1751.1
1747.98
1726.54
1670.71
1611.63
1547.66
1377.84
1313.93
1398.01
1552.64
1660.09
1689.49
1783.26
1782.94
1772.88
1713.67
1659.03
1642.54
1656.99
1674.16
1679.08
1680.28
1685.64
1699.12
1716.18
1732.19
1744.43
1750.12
1766.83
1778.81
1778.84
1776.77
1774.29
1771.68
1768.79
1765.89
1763.04
1760.39
1757.72
1754.08
1748.1
1736.12
1682.91
1514.02
1278.16
1237.99
1238.23
1238.48
1238.8
1380.84
1677.55
1692.9
1782.27
1780.77
1699.09
1641.56
1641.35
1641.15
1634.61
1620.24
1620.83
1621.14
1621.23
1621.05
1620.68
1620.23
1620.5
1687.3
1771.57
1779.96
1778.67
1770.14
1753.63
1734.24
1708.65
1681.21
1651.34
1622.64
1598.69
1570.76
1525.96
1441.22
1300.59
1236.4
1236.02
1235.93
1235.9
1235.9
1235.87
1249.68
1609.96
1703.22
1780.84
1779.77
1772.51
1705.48
1688.33
1783.52
1785.59
1780.67
1775.04
1766.33
1756.36
1754.1
1750.05
1680.09
1612.55
1666.88
1646.87
1606.58
1589.28
1573.89
1552.12
1532.67
1492.74
1462.27
1437.47
1418.56
1401.99
1385.07
1350.14
1289.32
1247.28
1236.3
1235.97
1235.9
1235.84
1235.79
1235.71
1235.29
1574.14
1716.55
1780.05
1778.9
1778.46
1779.39
1780.53
1780.43
1780.88
1782.91
1784.34
1784.79
1787.81
1787.06
1747.44
1677.61
1530.27
1488.81
1490.09
1489.15
1491.29
1494.01
1499.03
1523.5
1592.12
1644.04
1677.51
1696.28
1710.88
1720.49
1709.4
1675.65
1541.21
1312.4
1235.23
1235.52
1235.49
1235.43
1235.31
1244.06
1586.81
1728.45
1778.26
1775.38
1762.39
1724.33
1652.04
1540.87
1498.89
1511.9
1544.15
1544.48
1429.04
1390.29
1397.85
1403.31
1468.62
1550.02
1600.63
1660.42
1717.8
1756.95
1780.9
1798.25
1796.53
1793.31
1789.54
1786
1783.56
1782.64
1783.45
1786.4
1789.86
1665.12
1356.2
1234.91
1234.66
1234.56
1233.79
1325.24
1676.04
1736.32
1774.85
1721.33
1394.62
1188.96
1188.05
1192.27
1191.77
1198.11
1211.95
1224.08
1254.24
1424.36
1634.12
1770.99
1815.05
1812.63
1810.08
1808.12
1806.3
1804.34
1802.45
1800.62
1798.41
1795.55
1792.15
1788.67
1785.67
1783.82
1783.58
1785.64
1789.26
1797.41
1761.39
1519.74
1306.66
1247.74
1384.02
1644.16
1727.86
1736.8
1720.54
1313.72
1178.38
1178.51
1178.57
1178.83
1179.56
1180.73
1184.29
1334.9
1721.68
1804.99
1805.55
1807.3
1809.23
1810.34
1810.67
1810.48
1808.81
1806.71
1805.32
1804.84
1802.71
1799.32
1795.02
1789.2
1781.65
1744.72
1718.73
1736.86
1771.58
1786.94
1791.02
1784.19
1750.92
1749.21
1753.83
1726.76
1647.26
1627.44
1616.25
1206.12
1178.03
1178.15
1178.19
1178.32
1178.43
1179.24
1342.65
1753.5
1807.51
1807.37
1808.39
1809.91
1811.37
1812.46
1813.12
1813.02
1810.87
1810.35
1809.38
1809.48
1807.83
1804.76
1799.54
1776.98
1595.92
1349.92
1285.6
1310.29
1420.95
1568.81
1668.89
1715.38
1730.5
1761.9
1760.94
1603.06
1516.36
1312.62
1703.71
1265.72
1177.25
1177.79
1177.86
1177.85
1178.21
1355.18
1778.64
1809.54
1809.26
1809.6
1809.53
1810.12
1813.15
1814.3
1815.23
1815.95
1815.74
1814.95
1816.48
1815.92
1814.98
1813.62
1809.72
1709.55
1271.09
1159.31
1158.17
1157.32
1156.57
1155.93
1197.99
1242.62
1270.3
1372.25
1447.22
1296.98
1216.34
1241.65
1810.36
1742.96
1323.83
1175.99
1177.01
1327.95
1762.59
1823.76
1815.79
1813.59
1812.79
1809.64
1789.28
1782.65
1808.94
1816.02
1817.15
1818.22
1819.25
1820.2
1821.04
1821.75
1822.4
1823.22
1823.15
1662.23
1198.45
1157.47
1157.05
1156.8
1156.55
1156.31
1155.94
1155.5
1155.28
1155.11
1154.82
1172.98
1201.27
1236.1
1812.43
1816.76
1783.72
1544.3
1443.07
1742.11
1819.36
1816.51
1814.83
1813.79
1811.8
1787.48
1776.63
1777.36
1778.29
1809.51
1818.17
1819.61
1821.14
1822.8
1824.59
1826.53
1828.69
1831.3
1834.43
1798.91
1406.55
1158.2
1157.05
1156.48
1156.23
1155.97
1155.59
1155.12
1154.63
1154.2
1153.89
1153.46
1153.01
1178.33
1813.86
1814.87
1655.95
1447.34
1423.42
1607.04
1811.64
1813.01
1812.83
1812.35
1792.37
1774.83
1775.44
1776.27
1777.07
1778.36
1811.23
1819.81
1821.76
1823.95
1826.4
1829.18
1832.34
1836.01
1840.5
1846.32
1826.3
1463.05
1238.12
1169.88
1156.61
1155.78
1155.18
1154.72
1154.44
1154.17
1153.86
1153.59
1153.48
1153.6
1807.81
1625.15
1432.97
1430.11
1424.36
1444.86
1701.71
1810.29
1810.67
1809.46
1782.3
1772.31
1773.44
1774.37
1775.17
1776.32
1802.8
1819.34
1821.35
1823.72
1826.46
1829.62
1833.25
1837.43
1842.28
1848.02
1854.92
1862.88
1824.76
1593.48
1427.85
1303.89
1235.28
1188.29
1159.72
1153.49
1153.2
1153.13
1153.07
1156.33
1779.48
1495.77
1424.4
1423.66
1420.82
1452.58
1764.74
1808.89
1809.05
1809.45
1802.15
1774.91
1771.27
1772.61
1774.03
1794.26
1811.38
1818.41
1820.17
1822.36
1825.11
1828.25
1831.77
1835.73
1840.19
1845.27
1850.96
1857.04
1863.11
1869.08
1875.25
1861.25
1775.52
1680.24
1534.4
1350.4
1208.51
1152.45
1152.18
1188.04
1793.34
1531.61
1415.71
1415.34
1414.13
1460.67
1785.27
1808.43
1808.07
1808.27
1808.91
1809.22
1786.18
1778.03
1809.42
1814.98
1794.91
1771.1
1816.15
1819.78
1822.43
1825.86
1829.33
1832.79
1836.57
1840.91
1845.81
1851.16
1856.86
1862.79
1868.95
1875.33
1881.81
1888.51
1895.91
1903.19
1733.62
1445.76
1235.54
1312.85
1805.11
1706.44
1411.29
1407.92
1407.3
1437.3
1776.68
1807.05
1806.61
1806.8
1807.49
1808.56
1809.91
1811.46
1813.24
1815.13
1802.73
1677.09
1575.6
1687.64
1735.3
1787.69
1820.96
1827.25
1830.88
1834.9
1839.39
1844.39
1850.05
1856.29
1863.08
1870.39
1878.16
1886.37
1894.9
1903.5
1912.07
1919.8
1653.84
1413.14
1804.69
1804.9
1743.87
1492.86
1402.8
1452.27
1781.9
1804.59
1804.53
1805.04
1806.02
1807.44
1809.24
1811.35
1813.64
1816.01
1818.42
1762.66
1366.54
1129.86
1154.77
1278.77
1454.57
1610.97
1715.84
1788
1824.17
1834.12
1840.49
1847.44
1854.94
1863.01
1871.64
1880.79
1890.31
1900.1
1909.97
1918.81
1784.88
1559.99
1802.69
1803.31
1802.83
1756.92
1679.66
1707.85
1796.66
1801.41
1802.05
1803.05
1804.52
1806.49
1808.94
1811.84
1815.09
1818.64
1822.54
1826.14
1626.24
1061.67
1010.19
1006.34
1003.62
1020.55
1112.29
1248.74
1424.53
1609.29
1739.48
1817.11
1843.81
1853.3
1862.94
1872.61
1882.24
1891.79
1901.23
1909.52
1815.75
1666.9
1801.15
1801.49
1801.25
1758.05
1675.62
1753.72
1799.13
1799.37
1800.27
1801.35
1802.97
1805.57
1808.63
1812.37
1816.68
1821.48
1826.89
1833.09
1832.6
1415.01
1001.7
1000.59
999.861
999.283
998.56
997.647
996.789
1012.3
1140.35
1339.54
1597.95
1781.46
1853.52
1864.88
1874.61
1883.42
1891.45
1898.16
1891.75
1852.28
1800.61
1800.87
1801.04
1784.78
1666.98
1602.83
1765.56
1796.75
1798.39
1799.82
1801.31
1804.19
1807.89
1812.47
1817.67
1823.31
1829.38
1836.02
1843.39
1735.97
1056.09
998.537
998.482
998.034
997.37
996.809
996.464
996.28
995.881
995.235
1019.94
1221.89
1573.95
1839.76
1871.05
1878.91
1885.74
1891.2
1895
1898.74
1665.52
1773.55
1800.18
1799.84
1771.42
1592.47
1651.08
1791.37
1799.64
1799.95
1798.52
1799.81
1806.23
1812.49
1818.65
1825.09
1831.41
1837.58
1843.39
1845.45
1586.1
1117.06
1002.53
996.748
996.713
996.496
996.197
995.879
995.552
995.454
995.524
995.34
1047.75
1420.78
1826.13
1877.55
1886.12
1891.01
1894.43
1891.27
1629.82
1627.75
1769.7
1800.9
1799.78
1772.3
1399.2
1427.17
1653.16
1580.79
1450.22
1431.95
1609.6
1781.07
1818.61
1828.65
1835.58
1841.81
1847.23
1851.67
1856.84
1705.68
1382.06
1129.53
1023.17
996.108
995.411
995.435
995.328
995.383
995.344
995.504
996.632
1030.55
1565.14
1875.7
1892.35
1897.71
1901.48
1868.85
1730.67
1749.93
1727.14
1738.07
1740.33
1618.23
1118.69
991.009
992.119
994.877
998.356
1001.76
1068.13
1549.16
1822.91
1837.03
1843.78
1849.75
1855.28
1860
1863.74
1867.43
1861.67
1756.81
1569.56
1380.05
1256.77
1202.98
1170.72
1129.96
1070.45
1011.54
997.745
999.197
1305.11
1863.03
1902.42
1909.49
1915.43
1882.22
1805.78
1805.71
1640.18
1221.69
1090.81
1031.63
985.578
988.378
990.705
993.361
995.882
998.419
1003.13
1373.45
1831.43
1849.88
1855.03
1860.35
1865.83
1870.3
1851.42
1844.87
1853
1864.28
1874.25
1882.36
1872.03
1846.67
1830.45
1803.26
1720.07
1497.6
1107.52
1007.48
1229.64
1851.35
1914.01
1924.22
1933.38
1901.6
1792.2
1481.63
1054.15
979.865
981.309
983.034
984.933
986.756
988.464
990.188
993.573
1056.82
1315.86
1772.09
1855.98
1861.18
1866.06
1871.53
1876.72
1805.12
1553.95
1463.06
1589.7
1745.24
1840.05
1884.85
1898.6
1905.97
1913.31
1920.7
1927.58
1933.36
1744.99
1127.2
1326.27
1868.05
1931.93
1944.05
1956.41
1929.04
1189.08
974.555
975.964
976.392
980.056
983.894
991.585
1009.18
1125.6
1318.64
1500.05
1760.36
1855.05
1860.12
1864.35
1870.4
1876.78
1881.83
1842.1
1461.77
1384.11
1391.76
1395.73
1398
1422.78
1599.77
1772.19
1886.09
1910.52
1920.25
1928.26
1935.36
1938.92
1753.79
1781.32
1929.87
1956.2
1968.83
1983.65
1977.89
1580.97
1502.39
1478.09
1431.05
1470.39
1532.61
1582.59
1655.83
1830.35
1832.53
1837.52
1846.51
1854.75
1863.21
1870.47
1875.28
1842.29
1738.09
1392.65
1380.76
1385.76
1392.08
1395.98
1399.4
1403.95
1408.22
1410.58
1631.89
1905.23
1924.21
1934.01
1941.84
1921.58
1957.56
1963.06
1969
1980.37
1994.35
2011.77
2014.72
1796.43
1802.53
1808.86
1815.6
1822.03
1828.42
1834.73
1840.92
1838.14
1818.59
1758.89
1775.81
1832.12
1791.95
1721.27
1677.66
1438.76
1401.62
1393.82
1453.69
1468.97
1395.9
1397.36
1399.08
1404.85
1412.04
1416.7
1538.61
1893.34
1935.93
1944.38
1939.34
1915.56
1929.42
1965.37
1986.79
2000.63
2016.57
2036.65
2036.89
1777.11
1780.86
1786.46
1794.63
1799.05
1776.23
1760.16
1771.6
1723.19
1678.64
1685.32
1690.19
1740.4
1719.65
1628.95
1464.39
1423.5
1408.1
1531.61
1873.91
1918.3
1734.51
1405.35
1659.46
1788
1544.32
1628.14
1898.42
1942.11
1946.83
1953.57
1961.07
1936.1
1906.99
1917
1949.88
2008.62
2033.38
2055.72
2055.18
1754.03
1754.69
1758.7
1730.34
1618.33
1599.22
1616.65
1634.23
1729.69
1769.86
1716.39
1730
1828.34
1877.13
1878.53
1867.34
1701.23
1776.44
1896.64
1902
1902.59
1900.25
1896.61
1910.2
1925.25
1929.55
1936.29
1941.21
1943.46
1947.03
1953.93
1964.46
1974.05
1951.87
1921.9
1935.18
1977.39
2043.46
2068.22
2068.01
1727.75
1700.76
1542.45
1456.13
1472.44
1580.97
1696.1
1808.8
1837.12
1847.34
1854.16
1860.04
1864.62
1866.89
1867.49
1867.9
1870.37
1875.06
1879.32
1882.27
1884.98
1888.64
1893.99
1900.24
1906.4
1912.94
1919.87
1926.71
1933.8
1941.64
1948.56
1959.26
1970.54
1983.03
1941.64
1935.41
1980.72
2046.88
2072.82
2073.51
1672.15
1369.49
1078.02
1107.09
1472.42
1756.77
1791.75
1810.88
1825.44
1836.03
1843.07
1847.78
1850.8
1852.22
1852.53
1852.51
1852.91
1854.17
1855.92
1857.97
1860.6
1864.23
1869.05
1874.96
1881.74
1889.31
1897.65
1906.53
1915.9
1925.77
1936.05
1947.12
1958.98
1971.97
1983.93
1927.31
1990.32
2041.59
2068.64
2070.91
1467.72
852.568
650.191
746.533
1047.91
1527.06
1778.87
1806.53
1817.38
1824.97
1829.57
1831.77
1832.33
1831.69
1830.25
1828.64
1827.28
1826.53
1826.51
1827.32
1829.34
1832.58
1837.1
1842.99
1850.2
1858.59
1868.19
1878.94
1890.05
1901.61
1913.61
1926.09
1939.19
1953.23
1968.68
1976.75
1988.93
2025.33
2054.57
2059.36
916.159
635.27
636.665
638.511
649.921
1205.21
1770.45
1804.44
1808.04
1810.23
1811.17
1810.34
1808.17
1805.24
1801.85
1798.4
1795.29
1792.85
1791.11
1790.62
1791.84
1794.4
1797.75
1801.56
1806.6
1814.99
1830.02
1844.21
1856.91
1870
1883.4
1896.98
1911.24
1926.38
1942.47
1959.95
1971.92
2001.24
2030.85
2035.56
629.916
628.921
630.052
632.341
640.138
1240.22
1771.99
1794.26
1792.73
1790.72
1788.25
1784.57
1779.97
1774.89
1769.63
1764.57
1759.93
1755.38
1749.66
1743.53
1729.08
1693.77
1566.13
1543.63
1637.85
1758.37
1787.06
1802.91
1817.92
1832.67
1847.2
1861.71
1876.86
1892.66
1909.42
1927.29
1943.49
1969.19
1998.25
2001.08
619.397
620.366
620.986
625.176
864.541
1638.66
1774.43
1776.9
1772.6
1767.99
1762.84
1756.75
1750.18
1743.45
1737.01
1730.4
1723.07
1669.04
1492.1
1394.26
1206.55
1072.09
1078.24
1085.88
1093.2
1327.97
1652.22
1758.29
1775.61
1792.55
1807.68
1822.48
1837.96
1854.26
1871.34
1889.4
1907.58
1931.01
1958.62
1958.55
612.405
613.523
614.675
618.303
1323.72
1759.55
1764.34
1758.8
1751.83
1744.65
1737.05
1729.08
1721.06
1713.54
1705.93
1677.18
1587.48
1094.89
1025.12
1028.02
1032.83
1039.64
1049.14
1060.3
1069.34
1076.89
1086.08
1212.62
1713.78
1753.3
1765.37
1779.79
1795.92
1812.8
1830.16
1848.23
1867.64
1888.54
1914.14
1911.5
605.939
606.539
609.886
1107.11
1723.07
1755.16
1748.97
1739.94
1730.68
1721.28
1711.81
1702.33
1693.2
1683.87
1659.78
1239.28
967.093
980.345
994.507
1002.1
1007.03
1012.39
1176.77
1343.56
1075.49
1059.31
1076.04
1190.97
1180.9
1204.21
1580.05
1732.54
1749.66
1768.99
1787.57
1805.82
1824.62
1844.26
1866.89
1862.48
599.248
601.728
929.705
1671.81
1751.51
1743.44
1732.2
1721.07
1710.01
1699.11
1688.38
1678.19
1667.77
1650.56
1151.21
900.016
917.432
938.51
1136.71
1014.74
991.769
1259.05
1631.04
1671.28
1638.12
1606.12
1565.53
1119.58
832.505
812.548
928.586
1574.18
1706.98
1727.52
1747.26
1765.32
1781.15
1801.1
1821.06
1813.99
594.036
824.152
1608.85
1752.75
1742.83
1729.21
1715.59
1702.6
1690.31