/*--------------------------------*- C++ -*----------------------------------*\
  =========                 |
  \\      /  F ield         | OpenFOAM: The Open Source CFD Toolbox
   \\    /   O peration     | Website:  https://openfoam.org
    \\  /    A nd           | Version:  8
     \\/     M anipulation  |
\*---------------------------------------------------------------------------*/
FoamFile
{
    version     2.0;
    format      ascii;
    class       surfaceScalarField;
    location    "3.4";
    object      phi;
}
// * * * * * * * * * * * * * * * * * * * * * * * * * * * * * * * * * * * * * //

dimensions      [0 3 -1 0 0 0 0];

internalField   nonuniform List<scalar> 
18095
(
1.57933e-07
-9.65663e-07
8.0773e-07
1.65091e-07
-1.24828e-06
1.24112e-06
1.22021e-07
-1.24228e-06
1.28535e-06
6.52055e-08
-1.26346e-06
1.32027e-06
-6.73762e-11
-1.28043e-06
1.3457e-06
-6.53281e-08
-1.28041e-06
1.34567e-06
-1.22114e-07
-1.26342e-06
1.3202e-06
-1.65148e-07
-1.24224e-06
1.28527e-06
-1.57955e-07
-1.24824e-06
1.24104e-06
-9.65593e-07
8.07638e-07
1.10929e-07
-1.07659e-06
9.92691e-08
-1.23662e-06
7.27454e-08
-1.21576e-06
3.99538e-08
-1.23066e-06
-4.75713e-11
-1.24042e-06
-4.00417e-08
-1.24042e-06
-7.2815e-08
-1.23064e-06
-9.93192e-08
-1.21573e-06
-1.10954e-07
-1.2366e-06
-1.07655e-06
6.71237e-08
-1.14372e-06
5.2693e-08
-1.22219e-06
4.20638e-08
-1.20513e-06
2.38054e-08
-1.21241e-06
-3.17957e-11
-1.21659e-06
-2.38648e-08
-1.21658e-06
-4.21119e-08
-1.2124e-06
-5.27288e-08
-1.20512e-06
-6.71468e-08
-1.22218e-06
-1.14369e-06
3.96774e-08
-1.18339e-06
2.66208e-08
-1.20913e-06
2.19787e-08
-1.20049e-06
1.24986e-08
-1.20293e-06
-1.81325e-11
-1.20407e-06
-1.25327e-08
-1.20407e-06
-2.20068e-08
-1.20292e-06
-2.66415e-08
-1.20048e-06
-3.96935e-08
-1.20913e-06
-1.18339e-06
1.66066e-08
7.47684e-09
6.99088e-09
4.06521e-09
-5.71944e-12
-4.07595e-09
-6.9995e-09
-7.48269e-09
-1.66131e-08
-1.74272e-07
-1.16488e-06
1.33915e-06
-2.17998e-07
-1.21622e-06
1.25994e-06
-1.64879e-07
-1.21284e-06
1.15972e-06
-8.75735e-08
-1.2043e-06
1.127e-06
-6.74866e-10
-1.20279e-06
1.11589e-06
8.62476e-08
-1.20268e-06
1.11576e-06
1.63679e-07
-1.20401e-06
1.12658e-06
2.16914e-07
-1.21242e-06
1.15918e-06
1.73283e-07
-1.21564e-06
1.25927e-06
-1.16422e-06
1.3375e-06
-9.3394e-08
-1.07149e-06
-9.57909e-08
-1.21382e-06
-7.93258e-08
-1.22931e-06
-4.44417e-08
-1.23919e-06
-3.80916e-10
-1.24685e-06
4.37102e-08
-1.24677e-06
7.86741e-08
-1.23898e-06
9.5261e-08
-1.22901e-06
9.30881e-08
-1.21347e-06
-1.07113e-06
-5.7946e-08
-1.01354e-06
-5.5286e-08
-1.21648e-06
-4.66447e-08
-1.23795e-06
-2.73016e-08
-1.25853e-06
-2.30373e-10
-1.27392e-06
2.68631e-08
-1.27386e-06
4.6269e-08
-1.25838e-06
5.50113e-08
-1.23775e-06
5.78115e-08
-1.21627e-06
-1.01332e-06
-7.47725e-08
-9.38768e-07
-6.20026e-08
-1.22925e-06
-4.86774e-08
-1.25127e-06
-2.78992e-08
-1.27931e-06
-1.45521e-10
-1.30167e-06
2.76243e-08
-1.30163e-06
4.84488e-08
-1.27921e-06
6.18468e-08
-1.25115e-06
7.46983e-08
-1.22912e-06
-9.38623e-07
-1.31037e-07
-1.19167e-07
-8.50884e-08
-4.4124e-08
-9.72706e-11
4.39412e-08
8.49381e-08
1.19064e-07
1.30985e-07
-5.40781e-08
-9.42619e-07
9.96697e-07
-1.83686e-09
-1.34316e-06
1.29092e-06
6.06979e-09
-1.27399e-06
1.26608e-06
-4.21309e-10
-1.22705e-06
1.23354e-06
-5.14153e-09
-1.22494e-06
1.22966e-06
-1.02728e-08
-1.22425e-06
1.22938e-06
-1.58036e-08
-1.22748e-06
1.23301e-06
-1.33988e-08
-1.27664e-06
1.27424e-06
2.47953e-08
-1.3407e-06
1.30251e-06
-9.19164e-07
9.4396e-07
8.1732e-09
-9.50793e-07
1.44674e-08
-1.34946e-06
9.01447e-09
-1.26854e-06
2.28676e-09
-1.22032e-06
-4.33055e-09
-1.21832e-06
-1.09615e-08
-1.21762e-06
-1.78323e-08
-1.22061e-06
-2.68616e-08
-1.26761e-06
-1.93577e-08
-1.34821e-06
-9.38522e-07
2.62884e-08
-9.77081e-07
1.72021e-08
-1.34037e-06
9.12494e-09
-1.26046e-06
4.08914e-09
-1.21529e-06
-2.86865e-09
-1.21136e-06
-9.33229e-09
-1.21116e-06
-1.46907e-08
-1.21525e-06
-2.25724e-08
-1.25973e-06
-3.17017e-08
-1.33908e-06
-9.70224e-07
7.78734e-08
-1.05495e-06
4.94997e-08
-1.312e-06
3.08964e-08
-1.24186e-06
1.91063e-08
-1.2035e-06
-1.75657e-09
-1.1905e-06
-2.25428e-08
-1.19037e-06
-3.48752e-08
-1.20291e-06
-5.3628e-08
-1.24098e-06
-8.13181e-08
-1.31139e-06
-1.05154e-06
2.84197e-07
2.32141e-07
1.50006e-07
7.35039e-08
-1.10948e-09
-7.57239e-08
-1.52057e-07
-2.33849e-07
-2.85962e-07
-7.20575e-08
-1.33676e-09
7.33942e-08
-7.04333e-08
-1.62411e-09
-6.856e-08
-1.87333e-09
-6.64852e-08
-2.07478e-09
-6.42704e-08
-2.21489e-09
-6.19953e-08
-2.27512e-09
-5.97695e-08
-2.22588e-09
-5.77444e-08
-2.02521e-09
-5.61203e-08
-1.62426e-09
-9.75105e-10
-5.51454e-08
-8.10497e-08
-1.97128e-09
8.16843e-08
-8.03029e-08
-2.37083e-09
-7.94751e-08
-2.70118e-09
-7.86057e-08
-2.9443e-09
-7.77411e-08
-3.07961e-09
-7.69369e-08
-3.07949e-09
-7.62581e-08
-2.90486e-09
-7.57936e-08
-2.48983e-09
-7.56547e-08
-1.7634e-09
-6.51816e-10
-7.59782e-08
-8.63708e-08
-2.03328e-09
8.64328e-08
-8.62762e-08
-2.46536e-09
-8.61743e-08
-2.8031e-09
-8.60884e-08
-3.03023e-09
-8.60451e-08
-3.12292e-09
-8.60493e-08
-3.07536e-09
-8.61079e-08
-2.84636e-09
-8.62338e-08
-2.36401e-09
-8.64319e-08
-1.5655e-09
-3.64654e-10
-8.67191e-08
-9.09723e-08
-1.629e-09
9.05681e-08
-9.13968e-08
-2.04084e-09
-9.18651e-08
-2.33473e-09
-9.23918e-08
-2.50357e-09
-9.29756e-08
-2.53916e-09
-9.36157e-08
-2.43518e-09
-9.42857e-08
-2.17646e-09
-9.49179e-08
-1.73184e-09
-9.5429e-08
-1.05435e-09
-3.04968e-11
-9.57631e-08
-9.5203e-08
-8.7886e-10
9.44529e-08
-9.60198e-08
-1.22399e-09
-9.69389e-08
-1.41558e-09
-9.79898e-08
-1.45268e-09
-9.91832e-08
-1.34572e-09
-1.00509e-07
-1.10907e-09
-1.01931e-07
-7.54217e-10
-1.03377e-07
-2.85979e-10
-1.04743e-07
3.11633e-10
1.09114e-09
-1.05865e-07
-9.90508e-08
4.59364e-11
9.8126e-08
-1.00075e-07
-2.00102e-10
-1.01257e-07
-2.32942e-10
-1.02639e-07
-7.05451e-11
-1.04245e-07
2.59656e-10
-1.06056e-07
7.02571e-10
-1.08008e-07
1.19727e-09
-1.09975e-07
1.68105e-09
-1.11784e-07
2.12101e-09
2.54765e-09
-1.1324e-07
-1.02517e-07
9.46779e-10
1.01616e-07
-1.03553e-07
8.36063e-10
-1.04809e-07
1.0224e-09
-1.06357e-07
1.47777e-09
-1.08245e-07
2.14792e-09
-1.10478e-07
2.93515e-09
-1.12979e-07
3.69836e-09
-1.1556e-07
4.26192e-09
-1.17927e-07
4.48812e-09
4.40681e-09
-1.19786e-07
-1.05627e-07
1.61515e-09
1.04959e-07
-1.06465e-07
1.67413e-09
-1.07591e-07
2.14797e-09
-1.0912e-07
3.00661e-09
-1.11157e-07
4.18509e-09
-1.13779e-07
5.55743e-09
-1.16953e-07
6.87259e-09
-1.20386e-07
7.69406e-09
-1.23522e-07
7.62498e-09
6.72137e-09
-1.25837e-07
-1.08438e-07
1.94354e-09
1.08109e-07
-1.08965e-07
2.20164e-09
-1.09825e-07
3.00778e-09
-1.11171e-07
4.35216e-09
-1.13187e-07
6.20123e-09
-1.16118e-07
8.48838e-09
-1.2017e-07
1.09248e-08
-1.24902e-07
1.24262e-08
-1.29185e-07
1.19083e-08
9.63175e-09
-1.32096e-07
-1.11069e-07
2.12277e-09
1.1089e-07
-1.1144e-07
2.57281e-09
-1.12137e-07
3.70483e-09
-1.13347e-07
5.56165e-09
-1.15264e-07
8.11835e-09
-1.18101e-07
1.13257e-08
-1.22559e-07
1.53828e-08
-1.29835e-07
1.97024e-08
-1.35415e-07
1.7488e-08
1.1566e-08
-1.37349e-07
-1.14327e-07
2.34964e-09
1.141e-07
-1.14777e-07
3.02271e-09
-1.156e-07
4.52831e-09
-1.17062e-07
7.02354e-09
-1.1949e-07
1.05457e-08
-1.22859e-07
1.46949e-08
-1.26861e-07
1.9385e-08
-1.29169e-07
2.20105e-08
-1.3165e-07
1.99693e-08
1.38576e-08
-1.33942e-07
-1.17357e-07
2.63645e-09
1.1707e-07
-1.1769e-07
3.35526e-09
-1.18088e-07
4.92608e-09
-1.18617e-07
7.55326e-09
-1.20193e-07
1.21215e-08
-1.2256e-07
1.70614e-08
-1.23882e-07
2.07075e-08
-1.2403e-07
2.21586e-08
-1.24631e-07
2.05698e-08
1.61646e-08
-1.26938e-07
-1.2118e-07
3.46894e-09
1.20347e-07
-1.22049e-07
4.22408e-09
-1.22875e-07
5.75226e-09
-1.23566e-07
8.24426e-09
-1.23413e-07
1.19684e-08
-1.22863e-07
1.6511e-08
-1.22006e-07
1.98507e-08
-1.20569e-07
2.07213e-08
-1.19812e-07
1.98129e-08
1.68224e-08
-1.2047e-07
-1.23609e-07
4.61837e-09
1.2246e-07
-1.2487e-07
5.48529e-09
-1.26158e-07
7.04007e-09
-1.27202e-07
9.28788e-09
-1.27398e-07
1.21648e-08
-1.26211e-07
1.53236e-08
-1.2364e-07
1.72795e-08
-1.18725e-07
1.58064e-08
-1.1639e-07
1.74782e-08
1.67823e-08
-1.1635e-07
-1.22345e-07
5.14869e-09
1.21814e-07
-1.22835e-07
5.97579e-09
-1.23132e-07
7.33681e-09
-1.23011e-07
9.16686e-09
-1.22154e-07
1.13082e-08
-1.2019e-07
1.33588e-08
-1.17761e-07
1.48507e-08
-1.17765e-07
1.58103e-08
-1.16667e-07
1.63802e-08
1.61574e-08
-1.16042e-07
-1.19271e-07
4.76387e-09
1.19656e-07
-1.18781e-07
5.48584e-09
-1.18114e-07
6.67e-09
-1.17183e-07
8.23611e-09
-1.15923e-07
1.00475e-08
-1.14468e-07
1.19039e-08
-1.13187e-07
1.35696e-08
-1.12305e-07
1.49276e-08
-1.11856e-07
1.59318e-08
1.6462e-08
-1.12161e-07
-1.15779e-07
3.39449e-09
1.17149e-07
-1.14298e-07
4.00495e-09
-1.12717e-07
5.08841e-09
-1.11064e-07
6.58309e-09
-1.09407e-07
8.39063e-09
-1.07879e-07
1.0376e-08
-1.0669e-07
1.23803e-08
-1.06012e-07
1.42503e-08
-1.0594e-07
1.58592e-08
1.7057e-08
-1.06535e-07
-1.1295e-07
1.00516e-09
1.15339e-07
-1.10427e-07
1.48165e-09
-1.0784e-07
2.50202e-09
-1.05296e-07
4.03858e-09
-1.02933e-07
6.02816e-09
-1.00924e-07
8.36681e-09
-9.94552e-08
1.09113e-08
-9.86953e-08
1.34904e-08
-9.87349e-08
1.58988e-08
1.7892e-08
-9.95699e-08
-1.11772e-07
-2.37419e-09
1.15152e-07
-1.08167e-07
-2.12411e-09
-1.04449e-07
-1.21535e-09
-1.00782e-07
3.70965e-10
-9.73709e-08
2.61755e-09
-9.44527e-08
5.44857e-09
-9.22627e-08
8.72129e-09
-9.10325e-08
1.22603e-08
-9.09093e-08
1.57756e-08
1.88278e-08
-9.18452e-08
-1.13364e-07
-6.60738e-09
1.17597e-07
-1.08739e-07
-6.74836e-09
-1.03845e-07
-6.10913e-09
-9.88835e-08
-4.59094e-09
-9.41356e-08
-2.13038e-09
-8.99098e-08
1.2228e-09
-8.65108e-08
5.32233e-09
-8.42677e-08
1.00173e-08
-8.35375e-08
1.50453e-08
1.96529e-08
-8.43626e-08
-1.18873e-07
-1.13128e-08
1.23579e-07
-1.13567e-07
-1.20547e-08
-1.07739e-07
-1.1937e-08
-1.01582e-07
-1.07475e-08
-9.55472e-08
-8.16514e-09
-9.00361e-08
-4.28819e-09
-8.53966e-08
6.82875e-10
-8.12068e-08
5.82744e-09
-7.89079e-08
1.27464e-08
1.95633e-08
-7.88183e-08
-1.2917e-07
-1.57307e-08
1.33588e-07
-1.2406e-07
-1.71649e-08
-1.18257e-07
-1.77401e-08
-1.11805e-07
-1.71994e-08
-1.04819e-07
-1.51505e-08
-9.90996e-08
-1.0008e-08
-9.31764e-08
-5.24032e-09
-8.94933e-08
2.14439e-09
-8.25034e-08
5.75657e-09
1.30117e-08
-7.59518e-08
-1.43142e-07
-1.91591e-08
1.4657e-07
-1.3916e-07
-2.11467e-08
-1.346e-07
-2.23001e-08
-1.29389e-07
-2.24099e-08
-1.23301e-07
-2.12388e-08
-1.14243e-07
-1.90657e-08
-1.05805e-07
-1.36787e-08
-8.96485e-08
-1.40115e-08
-8.12024e-08
-2.6895e-09
4.56982e-09
-7.27605e-08
-1.56695e-07
-2.19526e-08
1.59489e-07
-1.53352e-07
-2.449e-08
-1.49409e-07
-2.62427e-08
-1.44745e-07
-2.70742e-08
-1.39114e-07
-2.68694e-08
-1.32652e-07
-2.55276e-08
-1.22708e-07
-2.36226e-08
-1.16076e-07
-2.06439e-08
-1.01844e-07
-1.6921e-08
-1.12016e-08
-8.60728e-08
-1.68192e-07
-2.4736e-08
1.70975e-07
-1.64663e-07
-2.80187e-08
-1.60306e-07
-3.05996e-08
-1.55015e-07
-3.23652e-08
-1.48663e-07
-3.32214e-08
-1.41065e-07
-3.31258e-08
-1.32553e-07
-3.21345e-08
-1.22971e-07
-3.02256e-08
-1.12708e-07
-2.71844e-08
-2.26669e-08
-1.01242e-07
-1.7907e-07
-2.75025e-08
1.81836e-07
-1.75441e-07
-3.16478e-08
-1.7088e-07
-3.51604e-08
-1.65325e-07
-3.79198e-08
-1.58735e-07
-3.98119e-08
-1.51122e-07
-4.07386e-08
-1.42644e-07
-4.06129e-08
-1.3352e-07
-3.93493e-08
-1.23911e-07
-3.67935e-08
-3.28899e-08
-1.13688e-07
-1.9012e-07
-3.00117e-08
1.9263e-07
-1.86702e-07
-3.50659e-08
-1.82326e-07
-3.95364e-08
-1.76969e-07
-4.32768e-08
-1.70649e-07
-4.61326e-08
-1.63435e-07
-4.79518e-08
-1.55474e-07
-4.85747e-08
-1.46988e-07
-4.78346e-08
-1.38189e-07
-4.5593e-08
-4.17897e-08
-1.29289e-07
-2.01962e-07
-3.1877e-08
2.03827e-07
-1.99189e-07
-3.78388e-08
-1.95466e-07
-4.32599e-08
-1.90779e-07
-4.79637e-08
-1.85165e-07
-5.17464e-08
-1.78717e-07
-5.44002e-08
-1.71605e-07
-5.56865e-08
-1.64086e-07
-5.53535e-08
-1.56485e-07
-5.3194e-08
-4.90669e-08
-1.49208e-07
-2.14966e-07
-3.2634e-08
2.15723e-07
-2.13362e-07
-3.94424e-08
-2.10863e-07
-4.57589e-08
-2.07454e-07
-5.13732e-08
-2.0316e-07
-5.60401e-08
-1.98084e-07
-5.94767e-08
-1.92413e-07
-6.13572e-08
-1.86433e-07
-6.13336e-08
-1.80567e-07
-5.906e-08
-5.42414e-08
-1.75392e-07
-2.29035e-07
-3.17831e-08
2.28184e-07
-2.29166e-07
-3.93108e-08
-2.28519e-07
-4.6406e-08
-2.27058e-07
-5.28348e-08
-2.24777e-07
-5.83203e-08
-2.21722e-07
-6.25324e-08
-2.17994e-07
-6.50854e-08
-2.1378e-07
-6.5547e-08
-2.09384e-07
-6.3456e-08
-5.83638e-08
-2.05262e-07
-2.43662e-07
-2.88309e-08
2.4071e-07
-2.4613e-07
-3.68433e-08
-2.4806e-07
-4.44755e-08
-2.49415e-07
-5.14804e-08
-2.50164e-07
-5.75705e-08
-2.50296e-07
-6.24013e-08
-2.49822e-07
-6.55588e-08
-2.48808e-07
-6.65612e-08
-2.47373e-07
-6.48908e-08
-6.00914e-08
-2.45645e-07
-2.57667e-07
-2.34278e-08
2.52263e-07
-2.62953e-07
-3.15567e-08
-2.68121e-07
-3.93079e-08
-2.73167e-07
-4.64339e-08
-2.78107e-07
-5.26311e-08
-2.82974e-07
-5.75341e-08
-2.87843e-07
-6.06897e-08
-2.92861e-07
-6.15434e-08
-2.98257e-07
-5.94939e-08
-5.41636e-08
-3.04185e-07
-2.68932e-07
-1.55394e-08
2.61043e-07
-2.77111e-07
-2.33774e-08
-2.85631e-07
-3.0788e-08
-2.94546e-07
-3.75182e-08
-3.03929e-07
-4.32487e-08
-3.13879e-07
-4.75839e-08
-3.2453e-07
-5.00389e-08
-3.36062e-07
-5.00111e-08
-3.48818e-07
-4.67379e-08
-3.93188e-08
-3.63663e-07
-2.75267e-07
-5.51559e-09
2.65243e-07
-2.85914e-07
-1.273e-08
-2.97274e-07
-1.94282e-08
-3.09442e-07
-2.53497e-08
-3.22527e-07
-3.01639e-08
-3.36651e-07
-3.34602e-08
-3.51955e-07
-3.47345e-08
-3.68597e-07
-3.33693e-08
-3.8679e-07
-2.85451e-08
-1.902e-08
-4.07089e-07
-2.75095e-07
5.88742e-09
2.63692e-07
-2.87328e-07
-4.97487e-10
-3.00477e-07
-6.27838e-09
-3.14638e-07
-1.11893e-08
-3.29902e-07
-1.48999e-08
-3.46354e-07
-1.70077e-08
-3.64064e-07
-1.70249e-08
-3.83065e-07
-1.43685e-08
-4.03279e-07
-8.33069e-09
1.90812e-09
-4.24207e-07
-2.6761e-07
1.77055e-08
2.55792e-07
-2.80259e-07
1.21517e-08
-2.9377e-07
7.23248e-09
-3.08154e-07
3.19479e-09
-3.23384e-07
3.29869e-10
-3.39368e-07
-1.02403e-09
-3.5591e-07
-4.8271e-10
-3.7265e-07
2.37186e-09
-3.88945e-07
7.96417e-09
1.66859e-08
-4.03723e-07
-2.53347e-07
2.91688e-08
2.41884e-07
-2.65532e-07
2.43368e-08
-2.78421e-07
2.01216e-08
-2.91951e-07
1.67243e-08
-3.06e-07
1.43793e-08
-3.20371e-07
1.33466e-08
-3.34757e-07
1.39032e-08
-3.48708e-07
1.63231e-08
-3.61581e-07
2.08372e-08
2.75803e-08
-3.72475e-07
-2.33425e-07
3.97322e-08
2.22862e-07
-2.44572e-07
3.54842e-08
-2.56242e-07
3.1791e-08
-2.68318e-07
2.88002e-08
-2.80616e-07
2.66771e-08
-2.92868e-07
2.5599e-08
-3.04712e-07
2.57474e-08
-3.15683e-07
2.72936e-08
-3.25221e-07
3.03757e-08
3.50394e-08
-3.3268e-07
-2.09288e-07
4.91143e-08
1.99906e-07
-2.19163e-07
4.53593e-08
-2.29461e-07
4.20886e-08
-2.40064e-07
3.94029e-08
-2.50785e-07
3.73981e-08
-2.61364e-07
3.61784e-08
-2.71466e-07
3.58494e-08
-2.80699e-07
3.65268e-08
-2.8865e-07
3.83268e-08
4.13439e-08
-2.94955e-07
-1.82371e-07
5.71063e-08
1.74379e-07
-1.90829e-07
5.38175e-08
-1.99713e-07
5.09723e-08
-2.08933e-07
4.86232e-08
-2.18361e-07
4.68261e-08
-2.27789e-07
4.56058e-08
-2.36938e-07
4.49987e-08
-2.45497e-07
4.50854e-08
-2.53154e-07
4.59835e-08
4.78336e-08
-2.59643e-07
-1.53943e-07
6.35147e-08
1.47534e-07
-1.60763e-07
6.06381e-08
-1.68035e-07
5.82435e-08
-1.75767e-07
5.63558e-08
-1.83871e-07
5.49305e-08
-1.92216e-07
5.39508e-08
-2.00547e-07
5.33288e-08
-2.0855e-07
5.30888e-08
-2.15964e-07
5.33976e-08
5.43792e-08
-2.2251e-07
-1.25294e-07
6.81567e-08
1.20652e-07
-1.30224e-07
6.55677e-08
-1.35488e-07
6.3508e-08
-1.41201e-07
6.20682e-08
-1.47632e-07
6.13618e-08
-1.5471e-07
6.10284e-08
-1.61787e-07
6.04063e-08
-1.68715e-07
6.00169e-08
-1.75214e-07
5.98961e-08
6.02134e-08
-1.81048e-07
-9.8232e-08
7.10272e-08
9.53617e-08
-1.01172e-07
6.85082e-08
-1.04221e-07
6.65568e-08
-1.07436e-07
6.52831e-08
-1.10892e-07
6.48175e-08
-1.15429e-07
6.55663e-08
-1.20834e-07
6.58109e-08
-1.25517e-07
6.46999e-08
-1.29869e-07
6.42482e-08
6.38855e-08
-1.33541e-07
-7.45274e-08
7.23597e-08
7.31949e-08
-7.56813e-08
6.9662e-08
-7.66201e-08
6.74957e-08
-7.73147e-08
6.59777e-08
-7.77492e-08
6.52522e-08
-7.75705e-08
6.53878e-08
-7.8423e-08
6.66636e-08
-8.1171e-08
6.74479e-08
-8.34113e-08
6.64884e-08
6.56238e-08
-8.51498e-08
-5.57193e-08
7.26623e-08
5.54167e-08
-5.56653e-08
6.96079e-08
-5.51669e-08
6.69975e-08
-5.41099e-08
6.49209e-08
-5.23341e-08
6.34765e-08
-4.97082e-08
6.27619e-08
-4.58405e-08
6.27959e-08
-4.19339e-08
6.35413e-08
-4.06561e-08
6.52105e-08
6.67839e-08
-4.18162e-08
-4.23591e-08
7.2505e-08
4.25163e-08
-4.17597e-08
6.90086e-08
-4.06261e-08
6.58639e-08
-3.88511e-08
6.3146e-08
-3.63153e-08
6.09406e-08
-3.28872e-08
5.93338e-08
-2.84908e-08
5.83994e-08
-2.32677e-08
5.83182e-08
-1.69981e-08
5.89407e-08
5.87444e-08
-8.95858e-09
-3.43052e-08
7.23724e-08
3.44378e-08
-3.36391e-08
6.83424e-08
-3.23087e-08
6.45335e-08
-3.01629e-08
6.10001e-08
-2.70309e-08
5.78087e-08
-2.27383e-08
5.50412e-08
-1.71229e-08
5.27838e-08
-9.8675e-09
5.10627e-08
-9.81996e-10
5.00551e-08
4.93589e-08
8.40337e-09
-3.17513e-08
7.29701e-08
3.11536e-08
-3.18333e-08
6.84244e-08
-3.12439e-08
6.39442e-08
-2.98026e-08
5.95589e-08
-2.73097e-08
5.53158e-08
-2.35622e-08
5.12937e-08
-1.8394e-08
4.76157e-08
-1.17987e-08
4.44673e-08
-3.7729e-09
4.20292e-08
4.05927e-08
4.99318e-09
-3.40498e-08
7.5096e-08
3.19238e-08
-3.58727e-08
7.02474e-08
-3.72563e-08
6.53279e-08
-3.80368e-08
6.03394e-08
-3.80282e-08
5.53071e-08
-3.70397e-08
5.03052e-08
-3.49112e-08
4.54871e-08
-3.15735e-08
4.11295e-08
-2.72531e-08
3.77087e-08
3.59379e-08
-2.25983e-08
-3.91044e-08
7.93085e-08
3.4892e-08
-4.34057e-08
7.45488e-08
-4.77295e-08
6.96518e-08
-5.19866e-08
6.45965e-08
-5.60633e-08
5.93837e-08
-5.98259e-08
5.40676e-08
-6.31398e-08
4.88009e-08
-6.59029e-08
4.38926e-08
-6.80527e-08
3.98585e-08
3.7521e-08
-6.96357e-08
-4.36471e-08
8.56251e-08
3.73305e-08
-5.05093e-08
8.14109e-08
-5.79559e-08
7.70983e-08
-6.60211e-08
7.26616e-08
-7.47299e-08
6.80926e-08
-8.40868e-08
6.34246e-08
-9.40525e-08
5.87667e-08
-1.04525e-07
5.43651e-08
-1.15405e-07
5.07392e-08
4.87509e-08
-1.26635e-07
-4.35708e-08
9.31764e-08
3.60195e-08
-5.18624e-08
8.97024e-08
-6.09197e-08
8.61556e-08
-7.07264e-08
8.24683e-08
-8.119e-08
7.85563e-08
-9.20901e-08
7.43249e-08
-1.03002e-07
6.96786e-08
-1.13176e-07
6.45389e-08
-1.21258e-07
5.88216e-08
5.2087e-08
-1.24594e-07
-3.70635e-08
1.00948e-07
2.92921e-08
-4.55871e-08
9.82259e-08
-5.48477e-08
9.54162e-08
-6.47561e-08
9.23768e-08
-7.5103e-08
8.89033e-08
-8.5497e-08
8.47189e-08
-9.52892e-08
7.94708e-08
-1.03481e-07
7.2731e-08
-1.08669e-07
6.4009e-08
5.27781e-08
-1.0936e-07
-2.35964e-08
1.07985e-07
1.65592e-08
-3.13141e-08
1.05943e-07
-3.9693e-08
1.03795e-07
-4.8645e-08
1.01329e-07
-5.7968e-08
9.82264e-08
-6.72868e-08
9.40377e-08
-7.59806e-08
8.81647e-08
-8.31207e-08
7.9871e-08
-8.74957e-08
6.83839e-08
5.31177e-08
-8.78353e-08
-3.11782e-09
1.13283e-07
-2.18065e-09
-8.88908e-09
1.11715e-07
-1.51287e-08
1.10035e-07
-2.18035e-08
1.08004e-07
-2.88235e-08
1.05246e-07
-3.60195e-08
1.01234e-07
-4.30272e-08
9.51722e-08
-4.91266e-08
8.59703e-08
-5.32991e-08
7.25565e-08
5.44202e-08
-5.46017e-08
2.39634e-08
1.15714e-07
-2.63936e-08
2.15566e-08
1.14121e-07
1.92423e-08
1.12349e-07
1.7008e-08
1.10238e-07
1.48457e-08
1.07409e-07
1.28631e-08
1.03216e-07
1.08111e-08
9.72242e-08
9.0039e-09
8.77773e-08
9.25137e-09
7.23089e-08
5.16297e-08
1.20418e-08
5.60356e-08
1.14295e-07
-5.46172e-08
5.82914e-08
1.11865e-07
6.15865e-08
1.09054e-07
6.61153e-08
1.05709e-07
7.16581e-08
1.01866e-07
7.86373e-08
9.62371e-08
8.74294e-08
8.84322e-08
9.82756e-08
7.69312e-08
1.11194e-07
5.93903e-08
4.11307e-08
1.21693e-07
9.02202e-08
1.08706e-07
-8.46316e-08
9.74481e-08
1.04637e-07
1.06684e-07
9.98184e-08
1.18333e-07
9.40597e-08
1.32694e-07
8.75048e-08
1.50128e-07
7.88029e-08
1.69774e-07
6.87862e-08
1.89697e-07
5.70085e-08
2.04597e-07
4.44905e-08
2.89505e-08
2.16777e-07
1.23566e-07
9.94816e-08
-1.14341e-07
1.34775e-07
9.34282e-08
1.48092e-07
8.65017e-08
1.63516e-07
7.86356e-08
1.81301e-07
6.97191e-08
2.00073e-07
6.00307e-08
2.16963e-07
5.18963e-08
2.30307e-07
4.36648e-08
2.40011e-07
3.47862e-08
2.52044e-08
2.43757e-07
1.5394e-07
8.75613e-08
-1.42019e-07
1.67556e-07
7.98114e-08
1.8263e-07
7.14279e-08
1.98676e-07
6.25895e-08
2.14774e-07
5.36211e-08
2.29432e-07
4.53733e-08
2.42916e-07
3.8412e-08
2.53724e-07
3.28568e-08
2.60048e-07
2.84622e-08
2.71284e-08
2.58124e-07
1.80468e-07
7.39921e-08
-1.66899e-07
1.95179e-07
6.51001e-08
2.10549e-07
5.60583e-08
2.2593e-07
4.72082e-08
2.40553e-07
3.89977e-08
2.53962e-07
3.19645e-08
2.65666e-07
2.67075e-08
2.7517e-07
2.33537e-08
2.81553e-07
2.20788e-08
1.9749e-08
2.88932e-07
2.02193e-07
5.945e-08
-1.87651e-07
2.1731e-07
4.99835e-08
2.32536e-07
4.08319e-08
2.47403e-07
3.23417e-08
2.61491e-07
2.49091e-08
2.74477e-07
1.89783e-08
2.86227e-07
1.49581e-08
2.96928e-07
1.26524e-08
3.0715e-07
1.18569e-08
-2.2802e-08
3.497e-07
2.17831e-07
4.44054e-08
-2.02786e-07
2.33016e-07
3.47982e-08
2.48106e-07
2.57416e-08
2.62895e-07
1.75526e-08
2.77225e-07
1.058e-08
2.91003e-07
5.19949e-09
3.0456e-07
1.40149e-09
3.19038e-07
-1.82563e-09
3.48194e-07
-1.72998e-08
-1.19871e-07
4.45263e-07
2.266e-07
2.94726e-08
-2.11667e-07
2.41746e-07
1.96522e-08
2.57082e-07
1.04048e-08
2.72644e-07
1.99093e-09
2.88514e-07
-5.28978e-09
3.04883e-07
-1.11696e-08
3.22874e-07
-1.659e-08
3.48016e-07
-2.69668e-08
4.30622e-07
-9.99067e-08
-2.79332e-07
5.90082e-07
2.28064e-07
1.49455e-08
-2.13537e-07
2.43258e-07
4.45865e-09
2.59334e-07
-5.67138e-09
2.76603e-07
-1.52784e-08
2.95447e-07
-2.41336e-08
3.16752e-07
-3.24747e-08
3.45006e-07
-4.48431e-08
4.09809e-07
-9.17706e-08
5.68725e-07
-2.58822e-07
-4.98646e-07
7.88041e-07
2.22769e-07
1.12759e-09
-2.08951e-07
2.38009e-07
-1.07816e-08
2.5523e-07
-2.28922e-08
2.7511e-07
-3.51591e-08
2.98442e-07
-4.74659e-08
3.28537e-07
-6.25693e-08
3.79742e-07
-9.60485e-08
5.25688e-07
-2.37716e-07
7.48376e-07
-4.8151e-07
-7.10406e-07
9.60135e-07
2.11538e-07
-1.18595e-08
-1.98551e-07
2.26838e-07
-2.60822e-08
2.4548e-07
-4.15333e-08
2.6865e-07
-5.83291e-08
2.98565e-07
-7.73817e-08
3.45643e-07
-1.09647e-07
4.70406e-07
-2.20811e-07
6.92942e-07
-4.60252e-07
9.06735e-07
-6.95303e-07
-8.39229e-07
1.03556e-06
1.96929e-07
-2.40786e-08
-1.8471e-07
2.12394e-07
-4.15478e-08
2.32561e-07
-6.16997e-08
2.59645e-07
-8.54135e-08
3.03607e-07
-1.21344e-07
4.06482e-07
-2.12521e-07
6.17359e-07
-4.31689e-07
8.35918e-07
-6.7881e-07
9.73482e-07
-8.32867e-07
-8.98538e-07
1.03279e-06
1.83792e-07
-3.6286e-08
-1.71585e-07
2.00072e-07
-5.78282e-08
2.22108e-07
-8.37355e-08
2.56566e-07
-1.19872e-07
3.32998e-07
-1.97776e-07
5.22607e-07
-4.02129e-07
7.50708e-07
-6.5979e-07
8.97957e-07
-8.2606e-07
9.65208e-07
-9.00118e-07
-9.39441e-07
1.00611e-06
1.76971e-07
-4.98393e-08
-1.63418e-07
1.95222e-07
-7.60791e-08
2.21681e-07
-1.10194e-07
2.73863e-07
-1.72055e-07
4.33429e-07
-3.57342e-07
6.6266e-07
-6.3136e-07
8.19053e-07
-8.16184e-07
8.92651e-07
-8.99658e-07
9.3749e-07
-9.44957e-07
-9.75242e-07
9.73291e-07
1.73986e-07
-6.4582e-08
-1.59243e-07
1.93098e-07
-9.51917e-08
2.26096e-07
-1.43192e-07
3.43679e-07
-2.89638e-07
5.70762e-07
-5.84425e-07
7.39649e-07
-8.00248e-07
8.18008e-07
-8.94542e-07
8.64218e-07
-9.45868e-07
9.0106e-07
-9.81799e-07
-1.00657e-06
9.32388e-07
1.68583e-07
-7.93971e-08
-1.53767e-07
1.90874e-07
-1.17483e-07
2.57428e-07
-2.09746e-07
4.72493e-07
-5.04703e-07
6.54261e-07
-7.66193e-07
7.36932e-07
-8.8292e-07
7.84046e-07
-9.41656e-07
8.21245e-07
-9.83067e-07
8.52944e-07
-1.0135e-06
-1.03281e-06
8.79188e-07
1.4858e-07
-9.10209e-08
-1.36956e-07
1.75523e-07
-1.44427e-07
3.26779e-07
-3.61002e-07
5.35889e-07
-7.13813e-07
6.39213e-07
-8.69518e-07
6.93454e-07
-9.3716e-07
7.33632e-07
-9.81834e-07
7.66841e-07
-1.01628e-06
7.93765e-07
-1.04042e-06
-1.0535e-06
8.14451e-07
1.21782e-07
-9.96825e-08
-1.1312e-07
1.87093e-07
-2.09738e-07
4.21644e-07
-5.95553e-07
5.49814e-07
-8.41982e-07
6.09077e-07
-9.28781e-07
6.49059e-07
-9.77142e-07
6.82098e-07
-1.01487e-06
7.09185e-07
-1.04336e-06
7.2994e-07
-1.06118e-06
-1.06765e-06
7.44092e-07
1.34873e-07
-1.27687e-07
-1.06869e-07
3.10552e-07
-3.85417e-07
4.80175e-07
-7.65175e-07
5.3993e-07
-9.01738e-07
5.74586e-07
-9.63436e-07
6.0447e-07
-1.00703e-06
6.3057e-07
-1.04097e-06
6.51537e-07
-1.06433e-06
6.66249e-07
-1.07589e-06
-1.07553e-06
6.74132e-07
1.31012e-07
-1.81557e-07
-7.71412e-08
3.58994e-07
-6.13401e-07
4.55014e-07
-8.61195e-07
4.99659e-07
-9.46383e-07
5.3093e-07
-9.94707e-07
5.57645e-07
-1.03374e-06
5.80076e-07
-1.0634e-06
5.97001e-07
-1.08126e-06
6.07207e-07
-1.08609e-06
-1.07823e-06
6.09902e-07
2.63189e-07
-3.17921e-07
-1.26824e-07
4.0684e-07
-7.57051e-07
4.50139e-07
-9.04493e-07
4.74281e-07
-9.70526e-07
4.96829e-07
-1.01725e-06
5.18223e-07
-1.05514e-06
5.36854e-07
-1.08203e-06
5.50878e-07
-1.09528e-06
5.58735e-07
-1.09395e-06
-1.07886e-06
5.59364e-07
3.07364e-07
-5.32617e-07
-9.26684e-08
3.81819e-07
-8.31505e-07
4.14712e-07
-9.37386e-07
4.36839e-07
-9.92653e-07
4.58079e-07
-1.03849e-06
4.78682e-07
-1.07574e-06
4.9695e-07
-1.1003e-06
5.10872e-07
-1.1092e-06
5.18905e-07
-1.10198e-06
-1.08013e-06
5.20181e-07
3.12426e-07
-6.95174e-07
-1.49869e-07
3.68296e-07
-8.87375e-07
3.89898e-07
-9.58988e-07
4.07816e-07
-1.01057e-06
4.26588e-07
-1.05727e-06
4.45939e-07
-1.09509e-06
4.63777e-07
-1.11814e-06
4.77743e-07
-1.12317e-06
4.86113e-07
-1.11036e-06
-1.08199e-06
4.87972e-07
3.68872e-07
-7.72353e-07
-2.91692e-07
3.74532e-07
-8.93032e-07
3.74011e-07
-9.58466e-07
3.81132e-07
-1.01769e-06
3.95671e-07
-1.07181e-06
4.14079e-07
-1.1135e-06
4.32285e-07
-1.13634e-06
4.47209e-07
-1.13809e-06
4.57104e-07
-1.12025e-06
-1.08612e-06
4.61232e-07
2.99132e-07
-8.01824e-07
-2.69661e-07
3.02967e-07
-8.96867e-07
3.11379e-07
-9.66878e-07
3.28238e-07
-1.03455e-06
3.5065e-07
-1.09422e-06
3.74447e-07
-1.13729e-06
3.95905e-07
-1.1578e-06
4.12896e-07
-1.15509e-06
4.24737e-07
-1.13209e-06
-1.09268e-06
4.31291e-07
2.27818e-07
-8.23408e-07
-2.06233e-07
2.38246e-07
-9.07295e-07
2.57152e-07
-9.85784e-07
2.82242e-07
-1.05964e-06
3.09753e-07
-1.12173e-06
3.35848e-07
-1.16339e-06
3.57687e-07
-1.17964e-06
3.74353e-07
-1.17175e-06
3.86397e-07
-1.14413e-06
-1.10098e-06
3.94703e-07
1.82596e-07
-8.28211e-07
-1.77793e-07
1.96841e-07
-9.2154e-07
2.18793e-07
-1.00774e-06
2.44913e-07
-1.08576e-06
2.71816e-07
-1.14863e-06
2.95864e-07
-1.18744e-06
3.14763e-07
-1.19854e-06
3.28655e-07
-1.18564e-06
3.39197e-07
-1.15468e-06
-1.10951e-06
3.47727e-07
1.36473e-07
-8.41417e-07
-1.23268e-07
1.56173e-07
-9.41239e-07
1.79753e-07
-1.03132e-06
2.04754e-07
-1.11076e-06
2.28683e-07
-1.17256e-06
2.48278e-07
-1.20703e-06
2.61915e-07
-1.21218e-06
2.71028e-07
-1.19476e-06
2.78671e-07
-1.16232e-06
-1.11866e-06
2.87815e-07
8.24736e-08
-8.65737e-07
-5.81534e-08
1.07299e-07
-9.66065e-07
1.32318e-07
-1.05633e-06
1.56337e-07
-1.13478e-06
1.77295e-07
-1.19352e-06
1.92001e-07
-1.22174e-06
1.99373e-07
-1.21955e-06
2.01513e-07
-1.1969e-06
2.01341e-07
-1.16215e-06
-1.11845e-06
2.01137e-07
1.5631e-08
-9.02384e-07
2.10161e-08
4.8326e-08
-9.9876e-07
7.75402e-08
-1.08555e-06
1.02838e-07
-1.16008e-06
1.22818e-07
-1.2135e-06
1.34888e-07
-1.23381e-06
1.39124e-07
-1.22379e-06
1.38307e-07
-1.19608e-06
1.34911e-07
-1.15875e-06
-1.11416e-06
1.30619e-07
-3.21762e-08
-9.38996e-07
6.87883e-08
1.53852e-09
-1.03248e-06
3.10977e-08
-1.11511e-06
5.55277e-08
-1.18451e-06
7.37905e-08
-1.23176e-06
8.41349e-08
-1.24415e-06
8.77104e-08
-1.22736e-06
8.74696e-08
-1.19584e-06
8.53075e-08
-1.15659e-06
-1.11079e-06
8.19351e-08
-6.97331e-08
-9.7692e-07
1.07657e-07
-3.54531e-08
-1.06675e-06
-6.22173e-09
-1.14434e-06
1.67143e-08
-1.20744e-06
3.30459e-08
-1.24809e-06
4.26139e-08
-1.25372e-06
4.73145e-08
-1.23206e-06
4.96866e-08
-1.19821e-06
5.10162e-08
-1.15792e-06
-1.11099e-06
5.12145e-08
-9.96669e-08
-1.01879e-06
1.41534e-07
-6.32005e-08
-1.10322e-06
-3.37413e-08
-1.1738e-06
-1.22559e-08
-1.22893e-06
2.04168e-09
-1.26239e-06
1.13341e-08
-1.26301e-06
1.7849e-08
-1.23858e-06
2.32354e-08
-1.2036e-06
2.84437e-08
-1.16313e-06
-1.11603e-06
3.34929e-08
-1.12387e-07
-1.06497e-06
1.58568e-07
-7.49907e-08
-1.14062e-06
-4.71277e-08
-1.20166e-06
-2.85648e-08
-1.24749e-06
-1.73909e-08
-1.27357e-06
-9.0301e-09
-1.27137e-06
-1.20581e-09
-1.2464e-06
6.15777e-09
-1.21096e-06
1.37134e-08
-1.17068e-06
-1.12465e-06
2.23289e-08
-1.01617e-07
-1.1102e-06
1.46849e-07
-6.82528e-08
-1.17398e-06
-4.57124e-08
-1.2242e-06
-3.22371e-08
-1.26097e-06
-2.54767e-08
-1.28033e-06
-1.92224e-08
-1.27763e-06
-1.07351e-08
-1.25489e-06
-2.20877e-09
-1.21949e-06
6.26118e-09
-1.17915e-06
-1.13431e-06
1.59186e-08
-7.53907e-08
-1.1482e-06
1.13389e-07
-5.03557e-08
-1.19902e-06
-3.54944e-08
-1.23906e-06
-2.79187e-08
-1.26854e-06
-2.58537e-08
-1.28239e-06
-2.27779e-08
-1.2807e-06
-1.43917e-08
-1.26327e-06
-5.18083e-09
-1.2287e-06
3.50981e-09
-1.18784e-06
-1.14284e-06
1.2038e-08
-4.7043e-08
-1.17387e-06
7.27165e-08
-3.21742e-08
-1.21389e-06
-2.44832e-08
-1.24675e-06
-2.1532e-08
-1.27149e-06
-2.31056e-08
-1.28082e-06
-2.36342e-08
-1.28018e-06
-1.65533e-08
-1.27035e-06
-7.35385e-09
-1.2379e-06
7.79553e-10
-1.19598e-06
-1.14962e-06
7.55962e-09
-2.70296e-08
-1.18835e-06
4.15073e-08
-1.91663e-08
-1.22175e-06
-1.56926e-08
-1.25023e-06
-1.53599e-08
-1.27183e-06
-1.93709e-08
-1.27681e-06
-2.3231e-08
-1.27632e-06
-1.8888e-08
-1.2747e-06
-1.01299e-08
-1.24666e-06
-3.39694e-09
-1.20271e-06
-1.15486e-06
1.84944e-09
-8.00564e-09
-1.19141e-06
1.10682e-08
-7.1406e-09
-1.22261e-06
-7.1431e-09
-1.25023e-06
-9.02711e-09
-1.26994e-06
-1.51477e-08
-1.27069e-06
-2.15549e-08
-1.26991e-06
-2.10627e-08
-1.27519e-06
-1.24201e-08
-1.2553e-06
-7.68261e-09
-1.20745e-06
-1.15895e-06
-3.59684e-09
9.79017e-10
-1.19467e-06
2.27996e-09
-1.23214e-09
-1.2204e-06
-1.50511e-09
-1.24995e-06
-4.45562e-09
-1.26699e-06
-1.16183e-08
-1.26352e-06
-1.89326e-08
-1.26259e-06
-2.22511e-08
-1.27187e-06
-1.29519e-08
-1.2646e-06
-9.89768e-09
-1.2105e-06
-1.15854e-06
-1.03084e-08
4.18445e-09
-1.18892e-06
-9.93985e-09
1.39915e-10
-1.21636e-06
2.20551e-09
-1.25202e-06
-1.42301e-09
-1.26336e-06
-9.06371e-09
-1.25588e-06
-1.64873e-08
-1.25517e-06
-2.30369e-08
-1.26532e-06
-1.33509e-08
-1.27428e-06
-8.18146e-09
-1.21567e-06
-1.14653e-06
-2.01925e-08
-7.12635e-12
-1.16465e-06
-2.42569e-08
9.20965e-10
-1.21729e-06
8.01653e-09
-1.25911e-06
1.79426e-09
-1.25714e-06
-6.96454e-09
-1.24712e-06
-1.55654e-08
-1.24657e-06
-2.53925e-08
-1.25549e-06
-1.8117e-08
-1.28156e-06
-5.26795e-09
-1.22852e-06
-1.10993e-06
-4.18629e-08
-1.38637e-08
-1.11006e-06