/*--------------------------------*- C++ -*----------------------------------*\
  =========                 |
  \\      /  F ield         | OpenFOAM: The Open Source CFD Toolbox
   \\    /   O peration     | Website:  https://openfoam.org
    \\  /    A nd           | Version:  8
     \\/     M anipulation  |
\*---------------------------------------------------------------------------*/
FoamFile
{
    version     2.0;
    format      ascii;
    class       volVectorField;
    location    "3.4";
    object      U;
}
// * * * * * * * * * * * * * * * * * * * * * * * * * * * * * * * * * * * * * //

dimensions      [0 1 -1 0 0 0 0];

internalField   nonuniform List<vector> 
9150
(
(0.0539769 -0.428108 0)
(0.0880611 -0.622187 0)
(0.0730143 -0.631452 0)
(0.0485781 -0.643705 0)
(0.0169962 -0.654409 0)
(-0.0170621 -0.654398 0)
(-0.0486322 -0.643679 0)
(-0.0730522 -0.631424 0)
(-0.0880799 -0.622157 0)
(-0.0539821 -0.428068 0)
(0.0410091 -0.522922 0)
(0.0575694 -0.625734 0)
(0.0419996 -0.613248 0)
(0.0293676 -0.62245 0)
(0.0104573 -0.628844 0)
(-0.010504 -0.628839 0)
(-0.0294072 -0.622437 0)
(-0.0420299 -0.613233 0)
(-0.0575884 -0.625721 0)
(-0.0410157 -0.522893 0)
(0.0254721 -0.557995 0)
(0.0326335 -0.613833 0)
(0.0229247 -0.604504 0)
(0.0172578 -0.609993 0)
(0.00622277 -0.613181 0)
(-0.00625408 -0.613179 0)
(-0.0172848 -0.609987 0)
(-0.0229456 -0.604496 0)
(-0.0326487 -0.613829 0)
(-0.0254788 -0.55798 0)
(0.0155852 -0.584757 0)
(0.0176023 -0.60746 0)
(0.0116464 -0.601154 0)
(0.00888655 -0.603288 0)
(0.00323241 -0.604392 0)
(-0.00325019 -0.604392 0)
(-0.00890215 -0.603286 0)
(-0.0116585 -0.601151 0)
(-0.0176119 -0.60746 0)
(-0.0155899 -0.584751 0)
(0.00644432 -0.597178 0)
(0.00566322 -0.601383 0)
(0.00352071 -0.600043 0)
(0.00269504 -0.600351 0)
(0.000994037 -0.600481 0)
(-0.000999462 -0.600481 0)
(-0.00269975 -0.60035 0)
(-0.00352429 -0.600042 0)
(-0.00566643 -0.601383 0)
(-0.00644606 -0.597177 0)
(0.470951 -1.16573 1.204e-24)
(0.282676 -1.08625 0)
(0.163387 -1.06979 0)
(0.0922602 -1.05815 0)
(0.0301227 -1.05328 0)
(-0.0307934 -1.05318 0)
(-0.0928598 -1.05786 0)
(-0.163868 -1.06934 0)
(-0.283017 -1.08566 0)
(-0.470799 -1.1649 -1.19665e-24)
(0.33415 -0.844487 3.20879e-25)
(0.287032 -0.93691 0)
(0.188142 -0.936943 0)
(0.108168 -0.936873 0)
(0.0355926 -0.9392 0)
(-0.0359695 -0.939129 0)
(-0.108492 -0.936677 0)
(-0.188379 -0.936665 0)
(-0.287114 -0.936568 0)
(-0.334045 -0.844071 -3.19452e-25)
(0.279479 -0.70303 5.10591e-26)
(0.259122 -0.804792 0)
(0.177981 -0.817627 0)
(0.104554 -0.828395 0)
(0.0347472 -0.836473 0)
(-0.0349746 -0.83643 0)
(-0.104744 -0.828278 0)
(-0.178105 -0.817464 0)
(-0.259157 -0.80461 0)
(-0.279433 -0.702838 -5.06552e-26)
(0.200707 -0.554937 1.95503e-25)
(0.217093 -0.709431 0)
(0.154176 -0.72592 0)
(0.0913075 -0.742021 0)
(0.0304752 -0.753909 0)
(-0.0306184 -0.753882 0)
(-0.0914252 -0.741949 0)
(-0.154251 -0.725826 0)
(-0.217113 -0.709333 0)
(-0.200686 -0.554828 -1.95601e-25)
(0.119621 -0.44487 -3.28098e-25)
(0.157278 -0.644104 -4.71081e-25)
(0.116657 -0.663755 -1.5443e-25)
(0.0708764 -0.681174 -1.01238e-25)
(0.0239135 -0.694164 -5.79253e-27)
(-0.024009 -0.694147 -5.86856e-27)
(-0.0709544 -0.681131 -1.01426e-25)
(-0.116708 -0.663703 -1.545e-25)
(-0.157296 -0.64405 -4.71109e-25)
(-0.119617 -0.444808 -3.28057e-25)
(0.0149721 -0.933632 0)
(-0.0398362 -1.3412 0)
(0.0225555 -1.26948 0)
(-0.00817221 -1.22618 0)
(0.00277899 -1.22474 0)
(-0.00638479 -1.22414 0)
(0.00174078 -1.22657 0)
(-0.0280795 -1.27321 0)
(0.0294347 -1.33956 0)
(-0.0245943 -0.899454 0)
(0.0452198 -0.913285 0)
(-0.02401 -1.33595 0)
(0.0231378 -1.2706 0)
(-0.00338228 -1.22416 0)
(0.000255958 -1.22348 0)
(-0.00317499 -1.22278 0)
(-0.00219481 -1.22444 0)
(-0.0270423 -1.27122 0)
(0.0173745 -1.33439 0)
(-0.050294 -0.898719 0)
(0.0727557 -0.947209 0)
(-0.0243091 -1.34972 0)
(0.0186813 -1.27651 0)
(0.00247502 -1.23083 0)
(-0.00125405 -1.22676 0)
(-0.00111818 -1.22638 0)
(-0.00589026 -1.2308 0)
(-0.0209999 -1.27551 0)
(0.0201883 -1.34841 0)
(-0.0752019 -0.937796 0)
(0.137915 -1.07809 0)
(-0.00122795 -1.36655 0)
(0.0178429 -1.27296 0)
(0.0200658 -1.226 0)
(0.00445281 -1.2145 0)
(-0.00635324 -1.21433 0)
(-0.0220591 -1.22561 0)
(-0.0189967 -1.27221 0)
(-0.00142654 -1.36572 0)
(-0.1391 -1.07333 0)
(0.292599 -1.22207 0)
(0.120282 -1.32227 0)
(0.0694661 -1.21155 0)
(0.0561523 -1.16969 0)
(0.0193206 -1.15676 0)
(-0.0204801 -1.15662 0)
(-0.0571397 -1.16921 0)
(-0.0703774 -1.21083 0)
(-0.121591 -1.3216 0)
(-0.292775 -1.21996 0)
(-0.0364006 -0.000997921 0)
(-0.0356552 -0.00122796 0)
(-0.0347762 -0.00143599 0)
(-0.0337835 -0.00161641 0)
(-0.0327041 -0.00176083 0)
(-0.0315727 -0.00185686 0)
(-0.0304357 -0.00188467 0)
(-0.0293572 -0.00181356 0)
(-0.0284215 -0.00160661 0)
(-0.0277388 -0.00122609 0)
(-0.0406999 -0.00181005 0)
(-0.0403509 -0.00218113 0)
(-0.0399531 -0.00249637 0)
(-0.0395238 -0.00273979 0)
(-0.0390848 -0.00289024 0)
(-0.0386613 -0.0029224 0)
(-0.038282 -0.0027971 0)
(-0.0379856 -0.00245306 0)
(-0.0378219 -0.00182563 0)
(-0.037849 -0.000850785 0)
(-0.0432073 -0.00212174 0)
(-0.0431649 -0.00254889 0)
(-0.0431125 -0.00289249 0)
(-0.043063 -0.00313345 0)
(-0.0430288 -0.00324761 0)
(-0.0430177 -0.0032165 0)
(-0.043033 -0.00299446 0)
(-0.0430792 -0.00250753 0)
(-0.0431601 -0.00168516 0)
(-0.0432759 -0.000445434 0)
(-0.0453851 -0.00192959 0)
(-0.0455889 -0.00236331 0)
(-0.0458094 -0.00269231 0)
(-0.0460564 -0.0029041 0)
(-0.0463341 -0.00298258 0)
(-0.0466428 -0.0029184 0)
(-0.0469757 -0.00268117 0)
(-0.0473096 -0.0022179 0)
(-0.0476076 -0.00146922 0)
(-0.047826 -0.000345056 0)
(-0.047409 -0.00131949 0)
(-0.0477956 -0.00170766 0)
(-0.0482254 -0.00196392 0)
(-0.0487153 -0.00208387 0)
(-0.0492762 -0.00206629 0)
(-0.0499094 -0.00191309 0)
(-0.0506037 -0.0016193 0)
(-0.0513318 -0.00116886 0)
(-0.0520491 -0.000528729 0)
(-0.0527006 0.00036252 0)
(-0.0492862 -0.000437645 0)
(-0.0497657 -0.000740722 0)
(-0.0503107 -0.000866284 0)
(-0.0509477 -0.000821959 0)
(-0.0516941 -0.000624698 0)
(-0.0525532 -0.000305666 0)
(-0.0535059 0.000104641 0)
(-0.0545047 0.00058001 0)
(-0.0554725 0.00111693 0)
(-0.0563109 0.00174841 0)
(-0.0510234 0.000525756 0)
(-0.0514962 0.000339378 0)
(-0.0520588 0.000399315 0)
(-0.0527518 0.000682749 0)
(-0.0536074 0.00114794 0)
(-0.0546419 0.00172102 0)
(-0.0558421 0.0023087 0)
(-0.0571429 0.00280883 0)
(-0.0584163 0.00315669 0)
(-0.0595064 0.00337974 0)
(-0.0526344 0.00135709 0)
(-0.0529954 0.00132248 0)
(-0.0534715 0.00163627 0)
(-0.0541208 0.00226549 0)
(-0.0550007 0.00314353 0)
(-0.0561635 0.00415178 0)
(-0.0576334 0.00510295 0)
(-0.0593374 0.00574053 0)
(-0.061045 0.00584484 0)
(-0.0624573 0.00544594 0)
(-0.054121 0.00184745 0)
(-0.0543179 0.00200291 0)
(-0.0546469 0.00263704 0)
(-0.0551761 0.0037207 0)
(-0.0559899 0.00518926 0)
(-0.0572054 0.00691712 0)
(-0.058964 0.0086417 0)
(-0.0612583 0.00978213 0)
(-0.0636426 0.00955 0)
(-0.0654989 0.00809006 0)
(-0.0554722 0.00204011 0)
(-0.0555955 0.00238086 0)
(-0.0558437 0.003334 0)
(-0.0562915 0.00491154 0)
(-0.0570206 0.00711042 0)
(-0.0581574 0.0099082 0)
(-0.0600687 0.0132288 0)
(-0.0631123 0.0160614 0)
(-0.0664316 0.0148205 0)
(-0.0684337 0.0107165 0)
(-0.0570844 0.00223666 0)
(-0.0572397 0.00281692 0)
(-0.0575312 0.00416287 0)
(-0.0580708 0.0063541 0)
(-0.0590567 0.00943326 0)
(-0.0605387 0.0131824 0)
(-0.06237 0.017817 0)
(-0.0640326 0.0215585 0)
(-0.0653042 0.0191822 0)
(-0.0664982 0.0128768 0)
(-0.0586003 0.00242283 0)
(-0.0587507 0.0031561 0)
(-0.0589127 0.00476542 0)
(-0.0591309 0.00745165 0)
(-0.0596615 0.011604 0)
(-0.0606855 0.0163402 0)
(-0.0616586 0.0206457 0)
(-0.0619844 0.022696 0)
(-0.062102 0.0207043 0)
(-0.0628199 0.0151252 0)
(-0.0603731 0.00290852 0)
(-0.0608085 0.00363219 0)
(-0.0612586 0.00519861 0)
(-0.0616544 0.00786099 0)
(-0.0617828 0.0122251 0)
(-0.06163 0.0172694 0)
(-0.0613005 0.0209279 0)
(-0.0606183 0.021967 0)
(-0.0599246 0.0207036 0)
(-0.0599185 0.016774 0)
(-0.061502 0.00408628 0)
(-0.0621162 0.00491196 0)
(-0.0627841 0.00647506 0)
(-0.0634205 0.00886982 0)
(-0.0637643 0.0121979 0)
(-0.063567 0.0159824 0)
(-0.0625593 0.0185295 0)
(-0.0605451 0.0181828 0)
(-0.0585899 0.0186219 0)
(-0.0579895 0.0169082 0)
(-0.061041 0.00510002 0)
(-0.0613092 0.00597861 0)
(-0.0615312 0.00745393 0)
(-0.0616118 0.00946994 0)
(-0.0613774 0.0118943 0)
(-0.0606187 0.0143027 0)
(-0.0595161 0.0157331 0)
(-0.0588294 0.0155087 0)
(-0.0584794 0.0166227 0)
(-0.0580888 0.0163693 0)
(-0.0597423 0.00519069 0)
(-0.0595307 0.00596547 0)
(-0.0592504 0.00721723 0)
(-0.0588583 0.0088608 0)
(-0.0583087 0.0107478 0)
(-0.0576072 0.0126362 0)
(-0.056871 0.0142279 0)
(-0.0563088 0.0152811 0)
(-0.0559796 0.0160893 0)
(-0.055922 0.0162299 0)
(-0.0582468 0.00432615 0)
(-0.057533 0.00499227 0)
(-0.0567645 0.00610819 0)
(-0.0559495 0.00759955 0)
(-0.0551093 0.00935104 0)
(-0.054293 0.0112075 0)
(-0.05359 0.0130001 0)
(-0.0531063 0.0145795 0)
(-0.0529087 0.0158534 0)
(-0.0530365 0.0166911 0)
(-0.0570933 0.00245043 0)
(-0.0558575 0.00300627 0)
(-0.0545686 0.00405788 0)
(-0.0532706 0.00555795 0)
(-0.0520245 0.00742529 0)
(-0.0509092 0.0095432 0)
(-0.0500177 0.0117671 0)
(-0.0494444 0.0139384 0)
(-0.049259 0.0158894 0)
(-0.0494858 0.0174428 0)
(-0.0567648 -0.000448489 0)
(-0.0550069 -5.48236e-05 0)
(-0.0531587 0.000933333 0)
(-0.0512896 0.00250679 0)
(-0.0494928 0.00462131 0)
(-0.047881 0.00718536 0)
(-0.0465753 0.0100572 0)
(-0.0456973 0.0130524 0)
(-0.0453532 0.0159325 0)
(-0.0455769 0.0183827 0)
(-0.057794 -0.00430866 0)
(-0.0555676 -0.00420358 0)
(-0.0531677 -0.00337659 0)
(-0.0506741 -0.00177756 0)
(-0.0482097 0.000605992 0)
(-0.0459294 0.0037085 0)
(-0.0439859 0.0073722 0)
(-0.0425328 0.0114264 0)
(-0.041772 0.0156243 0)
(-0.0418333 0.0193668 0)
(-0.0606892 -0.00892376 0)
(-0.0581786 -0.00932375 0)
(-0.0553755 -0.00889592 0)
(-0.0523459 -0.00750077 0)
(-0.0492481 -0.00500478 0)
(-0.0463254 -0.00141566 0)
(-0.0437296 0.00293919 0)
(-0.0414807 0.00820169 0)
(-0.0398795 0.014428 0)
(-0.0393501 0.0202568 0)
(-0.0657749 -0.0137017 0)
(-0.0633947 -0.0147933 0)
(-0.0606551 -0.0149976 0)
(-0.0575467 -0.0140374 0)
(-0.0541696 -0.0114704 0)
(-0.0509257 -0.00664677 0)
(-0.0480347 -0.00108433 0)
(-0.0456534 0.00538171 0)
(-0.0430932 0.0105203 0)
(-0.0395984 0.0173999 0)
(-0.0725002 -0.0176791 0)
(-0.0706532 -0.0194133 0)
(-0.068523 -0.0202876 0)
(-0.0660606 -0.0200408 0)
(-0.0632348 -0.0182834 0)
(-0.0598237 -0.0144164 0)
(-0.0552531 -0.0089918 0)
(-0.0487968 -0.00463702 0)
(-0.0427092 0.00308212 0)
(-0.0382457 0.0106908 0)
(-0.0791177 -0.0206217 0)
(-0.0775883 -0.0228576 0)
(-0.0757776 -0.0242872 0)
(-0.0736508 -0.0247635 0)
(-0.0711311 -0.0241779 0)
(-0.0680336 -0.0225038 0)
(-0.0639545 -0.019532 0)
(-0.059938 -0.0175852 0)
(-0.0549722 -0.0106275 0)
(-0.0470947 -0.00350349 0)
(-0.0848831 -0.023322 0)
(-0.0833134 -0.0261854 0)
(-0.0813538 -0.0283018 0)
(-0.0789571 -0.0295519 0)
(-0.076056 -0.0298433 0)
(-0.0725753 -0.0291464 0)
(-0.0685124 -0.02756 0)
(-0.0640443 -0.0254797 0)
(-0.0591165 -0.0222972 0)
(-0.0536012 -0.0175788 0)
(-0.0903324 -0.0261503 0)
(-0.0887412 -0.0298482 0)
(-0.0867017 -0.0328856 0)
(-0.0841795 -0.0351513 0)
(-0.0811438 -0.0365463 0)
(-0.077583 -0.0369978 0)
(-0.0735387 -0.0364598 0)
(-0.0691241 -0.0348718 0)
(-0.0644401 -0.0320564 0)
(-0.0594738 -0.0279034 0)
(-0.0957991 -0.0288676 0)
(-0.0943236 -0.0334629 0)
(-0.0923795 -0.0374536 0)
(-0.0899473 -0.0407089 0)
(-0.0870229 -0.0430959 0)
(-0.0836256 -0.0444911 0)
(-0.0798103 -0.0447719 0)
(-0.0756743 -0.0438098 0)
(-0.0713279 -0.0414878 0)
(-0.0668591 -0.037761 0)
(-0.101558 -0.0311643 0)
(-0.100405 -0.0366809 0)
(-0.0987838 -0.041635 0)
(-0.0966806 -0.0458658 0)
(-0.0940982 -0.0491967 0)
(-0.0910662 -0.0514496 0)
(-0.0876511 -0.052428 0)
(-0.0839595 -0.0519309 0)
(-0.0801368 -0.0498014 0)
(-0.0763602 -0.0459581 0)
(-0.107774 -0.032598 0)
(-0.107191 -0.0390059 0)
(-0.106169 -0.0448955 0)
(-0.104692 -0.0500725 0)
(-0.102759 -0.0543103 0)
(-0.100401 -0.0573615 0)
(-0.0976867 -0.0589427 0)
(-0.0947334 -0.0587559 0)
(-0.0917142 -0.0565289 0)
(-0.0888762 -0.0520492 0)
(-0.11439 -0.0326775 0)
(-0.114642 -0.0398899 0)
(-0.114519 -0.046639 0)
(-0.113994 -0.0526989 0)
(-0.113057 -0.0578031 0)
(-0.111715 -0.0616375 0)
(-0.110002 -0.0638373 0)
(-0.107989 -0.0640009 0)
(-0.1058 -0.0617074 0)
(-0.103612 -0.0565716 0)
(-0.121148 -0.0308893 0)
(-0.122509 -0.0387381 0)
(-0.123613 -0.0461874 0)
(-0.124438 -0.0529954 0)
(-0.124966 -0.0588779 0)
(-0.125186 -0.0634958 0)
(-0.125093 -0.0664477 0)
(-0.124702 -0.0672731 0)
(-0.124079 -0.06548 0)
(-0.123332 -0.0606311 0)
(-0.127495 -0.0267637 0)
(-0.130167 -0.0349357 0)
(-0.132779 -0.0427433 0)
(-0.135332 -0.0499401 0)
(-0.137826 -0.0562303 0)
(-0.14027 -0.0612624 0)
(-0.142677 -0.0646063 0)
(-0.145113 -0.0657534 0)
(-0.147789 -0.0641641 0)
(-0.150897 -0.0594192 0)
(-0.132457 -0.0200729 0)
(-0.136468 -0.028151 0)
(-0.140637 -0.0358381 0)
(-0.144988 -0.0428847 0)
(-0.149554 -0.048979 0)
(-0.154368 -0.0537383 0)
(-0.159467 -0.0566897 0)
(-0.164994 -0.0572539 0)
(-0.171387 -0.0547658 0)
(-0.178536 -0.0485958 0)
(-0.135049 -0.0109726 0)
(-0.14021 -0.018568 0)
(-0.145701 -0.0256959 0)
(-0.151571 -0.0320999 0)
(-0.157873 -0.037454 0)
(-0.164657 -0.041352 0)
(-0.171963 -0.043293 0)
(-0.179908 -0.0426505 0)
(-0.188925 -0.0385984 0)
(-0.199129 -0.0300551 0)
(-0.134594 -3.20509e-05 0)
(-0.140496 -0.00685357 0)
(-0.146832 -0.0131061 0)
(-0.153649 -0.0185213 0)
(-0.160997 -0.0227606 0)
(-0.168922 -0.0254041 0)
(-0.177447 -0.0259332 0)
(-0.186588 -0.0237034 0)
(-0.196456 -0.0178599 0)
(-0.207318 -0.00719621 0)
(-0.130747 0.011805 0)
(-0.136859 0.00585398 0)
(-0.143399 0.000538987 0)
(-0.150374 -0.00387768 0)
(-0.157785 -0.00707705 0)
(-0.165608 -0.00867906 0)
(-0.173774 -0.00823799 0)
(-0.18214 -0.00524926 0)
(-0.190485 0.000851121 0)
(-0.198514 0.0107097 0)
(-0.123717 0.0236033 0)
(-0.129625 0.0184446 0)
(-0.135903 0.0139234 0)
(-0.14252 0.0102674 0)
(-0.149434 0.00774195 0)
(-0.15657 0.00664602 0)
(-0.163808 0.00730536 0)
(-0.170967 0.0100503 0)
(-0.177772 0.0151721 0)
(-0.183793 0.0228732 0)
(-0.113998 0.0347124 0)
(-0.119425 0.0302042 0)
(-0.125142 0.0262858 0)
(-0.131098 0.0231343 0)
(-0.137218 0.0209502 0)
(-0.143393 0.0199505 0)
(-0.149468 0.020359 0)
(-0.155246 0.0223854 0)
(-0.160454 0.0261847 0)
(-0.164695 0.0317816 0)
(-0.102233 0.0447416 0)
(-0.107053 0.0407515 0)
(-0.112107 0.0372782 0)
(-0.117351 0.0344436 0)
(-0.122709 0.0323765 0)
(-0.12807 0.0312144 0)
(-0.133283 0.0310966 0)
(-0.138169 0.0321583 0)
(-0.142531 0.0345164 0)
(-0.146126 0.0382306 0)
(-0.0891261 0.0534761 0)
(-0.0932425 0.0499579 0)
(-0.0975857 0.0468929 0)
(-0.102124 0.0443551 0)
(-0.106807 0.0424154 0)
(-0.111551 0.041144 0)
(-0.116229 0.0406147 0)
(-0.12069 0.0409241 0)
(-0.124801 0.0421902 0)
(-0.128454 0.044551 0)
(-0.0753159 0.0607279 0)
(-0.0786201 0.0576634 0)
(-0.0821432 0.0550441 0)
(-0.0858973 0.0528947 0)
(-0.0898676 0.0512319 0)
(-0.094007 0.0500767 0)
(-0.098209 0.0493942 0)
(-0.102319 0.0492654 0)
(-0.106215 0.0498082 0)
(-0.109826 0.0511631 0)
(-0.0614523 0.0662864 0)
(-0.0638382 0.0635958 0)
(-0.0663687 0.0614066 0)
(-0.0690997 0.0597729 0)
(-0.0721458 0.0586809 0)
(-0.0755474 0.0579463 0)
(-0.0791172 0.0572764 0)
(-0.0826554 0.0569216 0)
(-0.0860358 0.0570315 0)
(-0.0891931 0.0576848 0)
(-0.0483883 0.0700243 0)
(-0.0498417 0.0675346 0)
(-0.0513332 0.0656082 0)
(-0.052859 0.0643459 0)
(-0.05449 0.0638827 0)
(-0.0565303 0.0641476 0)
(-0.0590547 0.0638652 0)
(-0.0616112 0.0629522 0)
(-0.0638948 0.0625409 0)
(-0.0659582 0.0625396 0)
(-0.0369474 0.0720277 0)
(-0.0375744 0.069478 0)
(-0.0381083 0.0674966 0)
(-0.0385247 0.0662075 0)
(-0.038755 0.065763 0)
(-0.0387461 0.0663977 0)
(-0.0389345 0.067339 0)
(-0.0398867 0.0671549 0)
(-0.0411483 0.0661184 0)
(-0.0421942 0.0652174 0)
(-0.0278212 0.0727004 0)
(-0.0278927 0.0698547 0)
(-0.0277681 0.0675033 0)
(-0.0273987 0.0657529 0)
(-0.0267108 0.0647287 0)
(-0.0255773 0.0645615 0)
(-0.0238677 0.0653796 0)
(-0.0218352 0.0664469 0)
(-0.020602 0.0671574 0)
(-0.0205797 0.067317 0)
(-0.0212677 0.0726525 0)
(-0.0210899 0.0694011 0)
(-0.0206703 0.0665523 0)
(-0.0199589 0.0641872 0)
(-0.0188954 0.0623986 0)
(-0.0174102 0.0612884 0)
(-0.0154619 0.0609509 0)
(-0.0130695 0.0614823 0)
(-0.0100992 0.0629861 0)
(-0.00646444 0.0641121 0)
(-0.017244 0.0723655 0)
(-0.0170598 0.0686187 0)
(-0.0165787 0.0651678 0)
(-0.01573 0.0620782 0)
(-0.014433 0.0594248 0)
(-0.0125963 0.0572904 0)
(-0.0101157 0.0557606 0)
(-0.00691484 0.0548755 0)
(-0.00290831 0.0545813 0)
(0.00185189 0.0541188 0)
(-0.0157813 0.0723971 0)
(-0.0159692 0.0680842 0)
(-0.0158634 0.0639163 0)
(-0.0153788 0.0599356 0)
(-0.0144194 0.0561985 0)
(-0.0128821 0.0527827 0)
(-0.0106658 0.0497886 0)
(-0.00769299 0.0473337 0)
(-0.00394664 0.0455632 0)
(0.000246789 0.044417 0)
(-0.0165241 0.0735733 0)
(-0.0175269 0.0688018 0)
(-0.0183474 0.0640185 0)
(-0.0189096 0.0592392 0)
(-0.019125 0.0545023 0)
(-0.0188953 0.0498884 0)
(-0.0181247 0.0455422 0)
(-0.0167525 0.0416973 0)
(-0.0148178 0.0387004 0)
(-0.0124818 0.0370209 0)
(-0.0184868 0.0766462 0)
(-0.020623 0.0717273 0)
(-0.0227896 0.0666799 0)
(-0.0249472 0.06149 0)
(-0.0270452 0.0561676 0)
(-0.0290199 0.0507764 0)
(-0.0308023 0.0454735 0)
(-0.032335 0.0405652 0)
(-0.0335889 0.0365946 0)
(-0.0345486 0.0345613 0)
(-0.0201839 0.0820184 0)
(-0.0234758 0.0774448 0)
(-0.0270512 0.0727411 0)
(-0.030928 0.0678866 0)
(-0.0351211 0.0628857 0)
(-0.0396418 0.0578009 0)
(-0.0445089 0.0528042 0)
(-0.0497408 0.0482618 0)
(-0.0550768 0.0448808 0)
(-0.059634 0.0437042 0)
(-0.0198134 0.0892068 0)
(-0.0237711 0.0853445 0)
(-0.0281095 0.0814087 0)
(-0.0328337 0.0773646 0)
(-0.0379217 0.0731827 0)
(-0.0433059 0.068855 0)
(-0.0488502 0.0644134 0)
(-0.0542718 0.0599536 0)
(-0.0589268 0.0556354 0)
(-0.0618299 0.0514358 0)
(-0.0165012 0.0970975 0)
(-0.0205751 0.0940055 0)
(-0.0250289 0.0908393 0)
(-0.0298415 0.0874995 0)
(-0.0349456 0.0838476 0)
(-0.0401995 0.0797049 0)
(-0.0453547 0.0748487 0)
(-0.0500093 0.0690123 0)
(-0.0535607 0.0618616 0)
(-0.0552067 0.0528723 0)
(-0.00995874 0.104716 0)
(-0.0136477 0.102352 0)
(-0.0176793 0.0998838 0)
(-0.0220324 0.0971306 0)
(-0.026642 0.0938242 0)
(-0.0313717 0.0895944 0)
(-0.0359808 0.0839603 0)
(-0.0400786 0.0763381 0)
(-0.0431106 0.0660944 0)
(-0.0444391 0.0525833 0)
(-0.000176862 0.111136 0)
(-0.0029434 0.109394 0)
(-0.00594824 0.107535 0)
(-0.00918593 0.105323 0)
(-0.0126329 0.10239 0)
(-0.0162334 0.0982155 0)
(-0.0198679 0.0921108 0)
(-0.0232663 0.083177 0)
(-0.0259293 0.0704965 0)
(-0.0273589 0.0534017 0)
(0.0125931 0.115282 0)
(0.0113794 0.113846 0)
(0.0101979 0.112279 0)
(0.00906459 0.110362 0)
(0.00796955 0.107721 0)
(0.00689425 0.103741 0)
(0.00579022 0.0977642 0)
(0.00477887 0.0884793 0)
(0.00442226 0.0738816 0)
(0.00528944 0.0541411 0)
(0.0275785 0.116008 0)
(0.0284792 0.114225 0)
(0.0298611 0.112221 0)
(0.0317988 0.109858 0)
(0.0342257 0.106908 0)
(0.0373311 0.1024 0)
(0.0413246 0.0959383 0)
(0.0464778 0.0855043 0)
(0.0525728 0.06854 0)
(0.0582411 0.0481272 0)
(0.0435344 0.112533 0)
(0.0467098 0.109466 0)
(0.0508041 0.105845 0)
(0.0558535 0.101487 0)
(0.0623993 0.0964988 0)
(0.070512 0.0893544 0)
(0.0799885 0.0800477 0)
(0.0903389 0.0676213 0)
(0.0990221 0.0517994 0)
(0.104649 0.0340299 0)
(0.0592453 0.104925 0)
(0.064341 0.0998757 0)
(0.0704826 0.0939164 0)
(0.0775898 0.0868685 0)
(0.0859506 0.0786372 0)
(0.095403 0.0688842 0)
(0.104747 0.0592355 0)
(0.112369 0.048832 0)
(0.117708 0.0377906 0)
(0.11983 0.0258573 0)
(0.0737693 0.0940764 0)
(0.0801777 0.0870496 0)
(0.0874097 0.079176 0)
(0.0952617 0.070506 0)
(0.103358 0.061222 0)
(0.111265 0.0519721 0)
(0.118535 0.044318 0)
(0.124541 0.0376338 0)
(0.127765 0.0317419 0)
(0.129185 0.0271098 0)
(0.0866817 0.0811516 0)
(0.0937959 0.0726613 0)
(0.101389 0.0637717 0)
(0.109157 0.0547774 0)
(0.116753 0.0461269 0)
(0.12389 0.0384864 0)
(0.130326 0.0325297 0)
(0.135127 0.0285022 0)
(0.137581 0.0266642 0)
(0.14053 0.0269434 0)
(0.0973837 0.0669361 0)
(0.104839 0.0576295 0)
(0.112469 0.0484271 0)
(0.12005 0.03971 0)
(0.127365 0.0319153 0)
(0.134296 0.0255461 0)
(0.140522 0.021138 0)
(0.144712 0.0188861 0)
(0.148254 0.0188659 0)
(0.157269 0.0115352 0)
(0.105123 0.0519899 0)
(0.112714 0.0424084 0)
(0.120294 0.0333085 0)
(0.127791 0.0250335 0)
(0.135165 0.0179614 0)
(0.142441 0.0125197 0)
(0.148826 0.00904294 0)
(0.153241 0.0073707 0)
(0.16036 0.00398815 0)
(0.191028 -0.0576668 0)
(0.109538 0.0368874 0)
(0.117062 0.0272463 0)
(0.124668 0.0182157 0)
(0.132411 0.0100912 0)
(0.140447 0.0032098 0)
(0.148725 -0.00205091 0)
(0.155527 -0.00581935 0)
(0.162977 -0.0105716 0)
(0.18255 -0.0391223 0)
(0.249881 -0.183056 0)
(0.110321 0.0221063 0)
(0.117724 0.0121037 0)
(0.125505 0.00263652 0)
(0.133898 -0.00605714 0)
(0.143271 -0.0136764 0)
(0.15286 -0.0200299 0)
(0.161558 -0.0266639 0)
(0.177333 -0.0451621 0)
(0.235271 -0.163196 0)
(0.335132 -0.374887 0)
(0.107773 0.00789784 0)
(0.114966 -0.0030976 0)
(0.12303 -0.013904 0)
(0.132481 -0.024414 0)
(0.143618 -0.0344426 0)
(0.15444 -0.0445932 0)
(0.169802 -0.0628463 0)
(0.209546 -0.139802 0)
(0.316237 -0.353589 0)
(0.439055 -0.619572 0)
(0.102259 -0.00552338 0)
(0.109219 -0.0183364 0)
(0.117693 -0.0317323 0)
(0.128472 -0.0457023 0)
(0.140907 -0.0601903 0)
(0.156046 -0.079405 0)
(0.186867 -0.131247 0)
(0.285747 -0.333534 0)
(0.409755 -0.603052 0)
(0.498673 -0.802751 0)
(0.0950324 -0.0180568 0)
(0.101833 -0.0336256 0)
(0.110817 -0.0509756 0)
(0.122668 -0.0704455 0)
(0.137116 -0.093682 0)
(0.164752 -0.140109 0)
(0.243446 -0.306318 0)
(0.373691 -0.58212 0)
(0.465361 -0.791717 0)
(0.505135 -0.876832 0)
(0.0883905 -0.0300226 0)
(0.0954353 -0.0492719 0)
(0.105021 -0.0720307 0)
(0.117013 -0.0998501 0)
(0.139612 -0.148123 0)
(0.197028 -0.284603 0)
(0.325731 -0.557989 0)
(0.425153 -0.780233 0)
(0.47002 -0.875273 0)
(0.494156 -0.920439 0)
(0.0847002 -0.0427284 0)
(0.0925113 -0.0666325 0)
(0.101813 -0.0962317 0)
(0.118319 -0.140731 0)
(0.160966 -0.250295 0)
(0.277108 -0.520288 0)
(0.382609 -0.76469 0)
(0.432702 -0.872768 0)
(0.459079 -0.924828 0)
(0.478485 -0.958246 0)
(0.0829731 -0.0571155 0)
(0.0903272 -0.0859339 0)
(0.100134 -0.124236 0)
(0.127868 -0.205952 0)
(0.22663 -0.461332 0)
(0.340604 -0.744412 0)
(0.394254 -0.867219 0)
(0.422097 -0.925821 0)
(0.442144 -0.964669 0)
(0.459028 -0.992114 0)
(0.0798993 -0.0724612 0)
(0.0858834 -0.104878 0)
(0.103783 -0.164045 0)
(0.169104 -0.364931 0)
(0.297786 -0.705622 0)
(0.352772 -0.854053 0)
(0.381576 -0.921018 0)
(0.402163 -0.965554 0)
(0.419262 -0.998825 0)
(0.433704 -1.02103 0)
(0.0693343 -0.0856394 0)
(0.0767732 -0.128029 0)
(0.100993 -0.244605 0)
(0.233126 -0.644246 0)
(0.299887 -0.832362 0)
(0.335309 -0.913482 0)
(0.35755 -0.962969 0)
(0.375891 -1.00096 0)
(0.390921 -1.02842 0)
(0.402806 -1.04476 0)
(0.0549896 -0.0955551 0)
(0.0636934 -0.162707 0)
(0.150925 -0.479674 0)
(0.251479 -0.795029 0)
(0.294035 -0.906369 0)
(0.315213 -0.960186 0)
(0.33327 -1.00042 0)
(0.348555 -1.03155 0)
(0.36059 -1.05247 0)
(0.369327 -1.06232 0)
(0.0568878 -0.10702 0)
(0.0888932 -0.248209 0)
(0.219357 -0.714725 0)
(0.258233 -0.880316 0)
(0.279029 -0.948333 0)
(0.295037 -0.993435 0)
(0.309336 -1.02918 0)
(0.321256 -1.05511 0)
(0.330275 -1.06987 0)
(0.335997 -1.07304 0)
(0.0368204 -0.140278 0)
(0.125545 -0.523125 0)
(0.208161 -0.825246 0)
(0.242504 -0.928721 0)
(0.257897 -0.980911 0)
(0.272357 -1.02157 0)
(0.284998 -1.05316 0)
(0.295019 -1.07366 0)
(0.301936 -1.08179 0)
(0.305257 -1.07767 0)
(0.0781801 -0.221471 0)
(0.189451 -0.708122 0)
(0.215439 -0.88635 0)
(0.231237 -0.959407 0)
(0.242721 -1.00676 0)
(0.253982 -1.04507 0)
(0.264221 -1.07318 0)
(0.272595 -1.0886 0)
(0.278251 -1.09027 0)
(0.280431 -1.07872 0)
(0.101412 -0.432113 0)
(0.177524 -0.809259 0)
(0.202752 -0.92732 0)
(0.212819 -0.98376 0)
(0.223496 -1.02894 0)
(0.234328 -1.06599 0)
(0.244322 -1.09141 0)
(0.252595 -1.10229 0)
(0.258259 -1.09789 0)
(0.260602 -1.07931 0)
(0.127777 -0.631826 0)
(0.172553 -0.862824 0)
(0.191778 -0.950575 0)
(0.199485 -1.00353 0)
(0.208211 -1.04892 0)
(0.218035 -1.08575 0)
(0.227715 -1.10919 0)
(0.235952 -1.11597 0)
(0.241712 -1.10582 0)
(0.244334 -1.08052 0)
(0.178828 -0.74504 0)
(0.185749 -0.894393 0)
(0.186509 -0.959657 0)
(0.187959 -1.01337 0)
(0.193473 -1.06326 0)
(0.202198 -1.10315 0)
(0.211832 -1.12643 0)
(0.220404 -1.13007 0)
(0.226753 -1.11482 0)
(0.230309 -1.08354 0)
(0.13233 -0.79747 0)
(0.150021 -0.895637 0)
(0.15341 -0.960016 0)
(0.159182 -1.02348 0)
(0.169231 -1.08113 0)
(0.181346 -1.1243 0)
(0.193041 -1.14654 0)
(0.202792 -1.14633 0)
(0.21008 -1.12589 0)
(0.214708 -1.08895 0)
(0.10728 -0.82179 0)
(0.116196 -0.901323 0)
(0.123206 -0.975215 0)
(0.134264 -1.04656 0)
(0.147888 -1.10791 0)
(0.161758 -1.15064 0)
(0.173951 -1.16923 0)
(0.183581 -1.16386 0)
(0.190859 -1.13816 0)
(0.195921 -1.09618 0)
(0.093717 -0.825565 0)
(0.0950873 -0.913849 0)
(0.10286 -0.996649 0)
(0.115405 -1.07307 0)
(0.12932 -1.13593 0)
(0.142428 -1.17651 0)
(0.153232 -1.19043 0)
(0.161342 -1.18 0)
(0.167467 -1.15037 0)
(0.17156 -1.10587 0)
(0.0675675 -0.828472 0)
(0.0735195 -0.928479 0)
(0.0834479 -1.0185 0)
(0.095941 -1.09819 0)
(0.108725 -1.16117 0)
(0.119908 -1.19839 0)
(0.128182 -1.20695 0)
(0.133692 -1.19199 0)
(0.137594 -1.16033 0)
(0.139991 -1.11586 0)
(0.0353597 -0.849904 0)
(0.0476328 -0.951367 0)
(0.0599708 -1.04255 0)
(0.0724085 -1.12227 0)
(0.0840497 -1.18319 0)
(0.0931837 -1.21509 0)
(0.0985859 -1.21687 0)
(0.100688 -1.19692 0)
(0.100626 -1.16342 0)
(0.0994036 -1.11965 0)
(-0.00198143 -0.883763 0)
(0.0162066 -0.98172 0)
(0.0318954 -1.07047 0)
(0.0456876 -1.14736 0)
(0.0573174 -1.20376 0)
(0.0653683 -1.22819 0)
(0.0692091 -1.22194 0)
(0.0697041 -1.19649 0)
(0.0680744 -1.16032 0)
(0.0661649 -1.11621 0)
(-0.0260863 -0.920589 0)
(-0.0073488 -1.0157 0)
(0.00873333 -1.1005 0)
(0.0223955 -1.17265 0)
(0.033317 -1.22307 0)
(0.0403 -1.23922 0)
(0.0434861 -1.22536 0)
(0.0440014 -1.19534 0)
(0.0430185 -1.15678 0)
(0.0420429 -1.11161 0)
(-0.0461761 -0.956854 0)
(-0.0260909 -1.04903 0)
(-0.0095994 -1.12958 0)
(0.0035079 -1.19625 0)
(0.0133947 -1.24038 0)
(0.0194872 -1.24903 0)
(0.0227963 -1.22928 0)
(0.0243671 -1.19625 0)
(0.0251299 -1.1563 0)
(0.0257381 -1.10993 0)
(-0.062754 -0.996955 0)
(-0.0409161 -1.08453 0)
(-0.0231201 -1.15926 0)
(-0.0103882 -1.21883 0)
(-0.00166251 -1.25601 0)
(0.00362499 -1.25858 0)
(0.00743722 -1.23496 0)
(0.010331 -1.20029 0)
(0.0129706 -1.15973 0)
(0.0153719 -1.11246 0)
(-0.0691817 -1.04178 0)
(-0.0474864 -1.12263 0)
(-0.02927 -1.18897 0)
(-0.017636 -1.23957 0)
(-0.0106994 -1.26919 0)
(-0.00669244 -1.26768 0)
(-0.00259021 -1.24228 0)
(0.00126539 -1.20689 0)
(0.0052092 -1.16641 0)
(0.00875329 -1.11935 0)
(-0.0611668 -1.08938 0)
(-0.043341 -1.15934 0)
(-0.0273279 -1.21495 0)
(-0.0182364 -1.25592 0)
(-0.0137431 -1.27832 0)
(-0.011712 -1.27528 0)
(-0.00773958 -1.25061 0)
(-0.00318391 -1.21504 0)
(0.00144699 -1.17486 0)
(0.00517189 -1.12973 0)
(-0.0442059 -1.13112 0)
(-0.0322178 -1.18874 0)
(-0.0205426 -1.23355 0)
(-0.0148461 -1.26615 0)
(-0.0127657 -1.28251 0)
(-0.0131147 -1.28017 0)
(-0.00977751 -1.25935 0)
(-0.00476792 -1.22415 0)
(8.36313e-05 -1.18373 0)
(0.00343549 -1.13936 0)
(-0.0272411 -1.16411 0)
(-0.0204143 -1.20882 0)
(-0.0135619 -1.24438 0)
(-0.0107947 -1.27089 0)
(-0.0103131 -1.28234 0)
(-0.0129177 -1.28139 0)
(-0.0107076 -1.26739 0)
(-0.00586497 -1.23352 0)
(-0.00118271 -1.19232 0)
(0.00161599 -1.14691 0)
(-0.0152239 -1.18546 0)
(-0.0115424 -1.21981 0)
(-0.00839378 -1.2494 0)
(-0.00734913 -1.27207 0)
(-0.00756015 -1.27913 0)
(-0.0121077 -1.27879 0)
(-0.0111954 -1.27324 0)
(-0.00737253 -1.24232 0)
(-0.00294648 -1.19972 0)
(-0.000667825 -1.15236 0)
(-0.00552564 -1.18857 0)
(-0.00370063 -1.22246 0)
(-0.00332419 -1.25029 0)
(-0.00379678 -1.27089 0)
(-0.0046111 -1.27385 0)
(-0.0110181 -1.2733 0)
(-0.0109417 -1.27575 0)
(-0.00899825 -1.25059 0)
(-0.00428856 -1.20521 0)
(-0.00302374 -1.15662 0)
(0.000634519 -1.19398 0)
(-0.000424723 -1.22199 0)
(-0.000510644 -1.2497 0)
(-0.00132875 -1.26862 0)
(-0.00224811 -1.26741 0)
(-0.0101679 -1.26656 0)
(-0.00954368 -1.27466 0)
(-0.0104309 -1.25967 0)
(-0.00426776 -1.20918 0)
(-0.00495407 -1.16049 0)
(0.0031963 -1.1965 0)
(5.37082e-05 -1.2194 0)
(0.000998049 -1.25063 0)
(8.4446e-05 -1.26614 0)
(-0.00045992 -1.26028 0)
(-0.00984485 -1.25939 0)
(-0.00723679 -1.2699 0)
(-0.012833 -1.27024 0)
(-0.0032082 -1.21316 0)
(-0.00537514 -1.15881 0)
(0.000533365 -1.18144 0)
(-0.00124946 -1.21581 0)
(0.0043 -1.25493 0)
(0.00131308 -1.26161 0)
(0.00164945 -1.25179 0)
(-0.00991719 -1.25108 0)
(-0.00511843 -1.2611 0)
(-0.0186172 -1.27936 0)
(-0.00212253 -1.21979 0)
(-0.0044135 -1.13471 0)
(-0.0028252 -1.1466 0)
(-0.00492222 -1.21859 0)
(0.0123208 -1.26198 0)
(0.00176049 -1.25165 0)
(0.00385641 -1.24172 0)
(-0.00974268 -1.24131 0)
(-0.0032291 -1.24898 0)
(-0.0260525 -1.28222 0)
(0.0030155 -1.23627 0)
(-0.00374104 -1.08185 0)
(0.00290125 -1.07293 0)
(-0.016234 -1.25078 0)
(0.0210952 -1.26855 0)
(-0.00258823 -1.23736 0)
(0.00422549 -1.23183 0)
(-0.00866936 -1.23151 0)
(-0.000223428 -1.23622 0)
(-0.0300317 -1.27842 0)
(0.0140441 -1.27278 0)
(-0.0131224 -1.00684 0)
(-0.0274526 -0.000585144 0)
(-0.0278033 0.000395177 0)
(-0.0290411 0.00162869 0)
(-0.0312459 0.00288048 0)
(-0.034205 0.00391786 0)
(-0.0376128 0.00470566 0)
(-0.0413658 0.00520649 0)
(-0.0453105 0.00516935 0)
(-0.0489447 0.00442017 0)
(-0.0517187 0.00307788 0)
(-0.0533414 0.00143356 0)
(-0.0537096 -0.000183832 0)
(-0.0528657 -0.00146039 0)
(-0.0512691 -0.00234974 0)
(-0.0490687 -0.00302166 0)
(-0.0464396 -0.00340295 0)
(-0.0436269 -0.00343278 0)
(-0.0408523 -0.00323609 0)
(-0.0382906 -0.00289177 0)
(-0.0360358 -0.00257886 0)
(-0.0339897 -0.00252983 0)
(-0.0318486 -0.00283998 0)
(-0.029351 -0.00334661 0)
(-0.0264668 -0.00384253 0)
(-0.0232855 -0.00422118 0)
(-0.0199249 -0.00441607 0)
(-0.0165432 -0.00432038 0)
(-0.0133653 -0.00374607 0)
(-0.0107252 -0.00264074 0)
(-0.00886502 -0.00161123 0)
(-0.00775844 -0.000710558 0)
(-0.00693931 -0.000775276 0)
(-0.00569976 -0.00147938 0)
(-0.00376732 -0.00239712 0)
(-0.00131617 -0.00293828 0)
(0.00122041 -0.00274269 0)
(0.00337948 -0.00165651 0)
(0.00441488 0.00057216 0)
(0.00370216 0.00246392 0)
(0.002249 0.00384603 0)
(-0.0381618 0.000612115 0)
(-0.0389474 0.00264772 0)