/*--------------------------------*- C++ -*----------------------------------*\
  =========                 |
  \\      /  F ield         | OpenFOAM: The Open Source CFD Toolbox
   \\    /   O peration     | Website:  https://openfoam.org
    \\  /    A nd           | Version:  8
     \\/     M anipulation  |
\*---------------------------------------------------------------------------*/
FoamFile
{
    version     2.0;
    format      ascii;
    class       volScalarField;
    location    "3.35";
    object      p;
}
// * * * * * * * * * * * * * * * * * * * * * * * * * * * * * * * * * * * * * //

dimensions      [1 -1 -2 0 0 0 0];

internalField   nonuniform List<scalar> 
9150
(
-204.817
-205.879
-206.467
-206.942
-207.172
-207.167
-206.931
-206.459
-205.882
-204.821
-224.869
-225.422
-225.832
-226.16
-226.334
-226.331
-226.164
-225.834
-225.424
-224.872
-244.771
-245.076
-245.327
-245.548
-245.665
-245.667
-245.547
-245.328
-245.077
-244.773
-264.514
-264.704
-264.872
-265.033
-265.115
-265.116
-265.031
-264.873
-264.704
-264.515
-284.135
-284.33
-284.467
-284.598
-284.656
-284.658
-284.596
-284.466
-284.33
-284.136
-118.556
-119.512
-119.326
-118.96
-118.816
-118.835
-118.991
-119.396
-119.562
-118.607
-134.337
-135.018
-135.178
-135.255
-135.163
-135.185
-135.299
-135.238
-135.074
-134.392
-150.818
-151.577
-151.83
-152.221
-152.263
-152.264
-152.212
-151.841
-151.574
-150.816
-167.67
-168.849
-169.221
-169.893
-170.048
-170.042
-169.893
-169.212
-168.837
-167.66
-184.496
-186.746
-187.441
-188.181
-188.447
-188.45
-188.2
-187.455
-186.758
-184.507
-24.6533
-26.4382
-28.679
-29.6598
-30.0593
-29.9829
-29.3907
-28.3125
-26.6081
-25.1554
-45.3461
-45.5997
-46.7233
-47.1322
-47.6383
-47.6918
-47.2558
-47.018
-45.948
-45.729
-65.463
-65.3266
-66.5324
-66.1291
-66.6545
-66.7931
-66.1322
-66.7197
-65.4978
-65.6788
-88.3661
-85.4903
-86.8258
-85.1503
-85.4086
-85.5121
-85.0992
-86.9532
-85.5577
-88.4805
-115.009
-104.546
-104.532
-102.858
-102.474
-102.518
-102.843
-104.606
-104.59
-115.104
713.276
714.269
715.119
715.257
714.621
712.8
709.717
706.891
703.919
701.301
691.364
692.11
692.968
693.208
692.71
691.041
688.721
688.072
688.151
685.386
672.119
672.002
672.382
672.962
672.922
671.975
672.091
670.012
668.119
667.329
658.458
657.196
655.046
654.923
655.064
654.607
653.903
652.621
649.996
646.569
645.401
643.206
640.433
638.664
637.869
636.917
635.677
634.027
631.193
627.752
631.074
627.763
624.829
622.22
620.323
618.692
617.105
615.875
612.585
608.773
615.096
611.714
607.795
604.067
601.033
599.44
597.897
596.006
594.295
589.995
597.012
592.853
586.897
581.525
577.297
573.726
573.11
573.542
571.287
569.366
578.219
570.617
562.641
557.366
553.396
546.996
543.357
544.25
544.331
543.799
554.366
547.54
540.632
534.61
527.651
521.549
519.662
519.965
516.026
514.761
530.27
520.395
511.737
509.742
504.371
502.48
503.168
502.082
499.177
492.172
496.065
490.768
477.7
473.514
473.998
468.239
467.227
468.513
468.986
467.084
446.227
447.969
443.35
435.362
427.514
427.085
429.039
430.23
426.716
420.598
401.703
395.533
396.621
386.476
389.448
390.918
385.477
385.096
381.805
377.168
343.826
338.556
334
339.328
351.196
352.157
346.382
344.888
342.736
340.289
300.048
291.178
296.784
312.367
302.549
318.276
323.152
324.877
327.212
327.951
269.647
272.095
297.574
302.377
298.749
305.264
303.576
300.256
300.158
299.424
255.048
269.501
287.267
293.191
289.801
286.622
278.95
270.517
264.612
266.917
221.893
241.131
257.986
271.504
275.461
272.769
268.173
266.375
259.247
274.191
191.223
207.91
228.896
243.958
257.417
259.733
257.931
256.291
255.324
252.279
183.358
191.438
203.182
228.768
238.68
248.057
247.203
246.485
245.613
242.591
182.768
193.038
197.314
204.207
235.25
242.223
239.507
238.967
237.697
232.471
190.687
191.704
211.339
216.849
230.361
247.356
234.926
237.128
236.2
219.842
195.81
206.355
215.074
224.122
215.069
240.063
236.53
241.111
242.305
210.337
193.771
196.272
225.297
210.514
213.478
218.923
217.51
243.649
229.67
216.999
199.463
202.726
230.131
197.442
195.758
196.711
202.566
236.763
211.366
209.872
200.635
221.792
222.324
188.536
178.297
177.208
182.176
224.49
188.847
195.798
203.17
231.695
205.522
187.958
172.581
175.066
183.873
202.879
183.005
190.46
206.641
211.241
190.296
195.892
193.39
193.287
195.192
194.071
189.162
190.426
197.509
196.218
194.647
199.649
199.424
196.769
198.132
196.422
193.077
191.457
200.745
198.706
194.338
194.561
196.272
190.601
192.942
194.006
193.154
190.665
211.616
214.715
191.468
183.496
178.146
175.511
171.963
194.178
190.726
187.826
238.406
236.599
215.319
176.373
160.716
161.907
159.144
195.841
182.957
181.639
254.387
236.931
208.159
164.111
151.418
157.575
161.39
172.334
182.007
158.866
225.847
197.474
181.742
152.014
149.596
156.826
162.2
167.903
167.608
168.81
145.738
119.744
127.441
134.183
139.901
152.315
157.948
163.344
167.825
154.42
73.2275
57.2073
57.1094
83.5337
106.755
141.482
149.281
154.738
155.291
157.607
35.314
23.9795
17.9985
20.9155
57.9725
111.642
149.022
150.691
155.325
148.836
30.6415
22.1041
14.681
8.25043
42.5388
88.8446
138.242
158.664
141.493
144.889
47.3474
48.847
45.0002
40.121
36.9591
48.8111
87.6546
130.44
122.517
107.66
47.3487
55.8718
51.5326
43.4224
46.2712
47.672
71.3463
83.5377
88.2432
69.6526
24.9772
30.5146
39.8404
44.5615
51.9221
36.051
33.7879
39.4851
41.2245
35.4673
31.2132
28.1309
30.6321
34.5218
49.1683
11.747
-3.07737
-6.16035
-4.58434
-0.370189
19.4123
18.951
24.4863
29.159
34.9588
8.20328
-2.02457
-16.5133
-32.6532
7.77976
17.8273
23.4885
28.1435
34.2356
41.5656
17.4705
18.1623
8.63701
2.62534
12.3167
-2.53111
2.30387
15.0281
20.5967
28.0234
9.08717
7.41503
-0.232442
-0.575093
0.0962486
-0.515174
-1.12199
-1.73042
-7.23696
-0.666019
-0.149216
-0.223777
-0.469297
0.218046
0.214594
-1.05738
-1.05115
-0.840768
-0.615627
28.5853
0.637037
-1.68865
-0.316631
-0.138518
-0.0535655
-1.27857
-1.32716
-1.23218
-0.898823
28.7642
17.6562
0.149687
0.474735
0.21227
0.0641343
-1.54701
-1.60699
-1.55772
-1.39727
26.0321
24.1645
0.324952
0.249957
0.130912
0.0689603
-1.43757
-1.42559
-1.5195
-1.42394
28.1122
22.8221
0.0864395
0.0457564
0.015108
-0.00418954
-1.47245
-1.44033
-1.53598
-1.72795
32.1074
16.9773
0.0439683
0.00184066
-0.015524
-0.019832
-1.44347
-1.26472
-1.64965
-1.60937
18.784
29.7511
-0.0434707
-0.0372991
-0.0487608
-0.0544646
-1.07231
-1.36475
-1.66304
-0.554959
10.7581
38.2107
-0.201777
-0.100828
-0.0790212
-0.0823558
-1.8494
-2.17161
-2.49013
-3.16243
37.7878
7.84519
-0.00179951
-0.0676978
-0.0951723
-0.107681
-2.01696
-2.24902
-2.63435
-4.56189
37.995
6.13533
0.049512
-0.0520623
-0.111356
-0.130602
-1.9308
-1.91848
-1.63332
-3.83276
37.4486
6.63233
0.0532326
-0.0662239
-0.11745
-0.147509
-1.89375
-1.86337
-1.80691
-2.11404
36.7134
9.96534
0.00246436
-0.112173
-0.150899
-0.175471
-1.93414
-1.93522
-1.92558
-2.0715
27.5227
20.4118
-0.144999
-0.186039
-0.200822
-0.217439
-1.88645
-1.9109
-1.89167
-1.88891
25.0588
23.0777
-0.242058
-0.240065
-0.24552
-0.261007
-1.83333
-1.85633
-1.81412
-1.85206
31.3224
16.6251
-0.24791
-0.282296
-0.297288
-0.311545
-1.7944
-1.78924
-1.73972
-1.73066
23.8532
24.0728
-0.407791
-0.397428
-0.391701
-0.389741
-1.77622
-1.73721
-1.68773
-1.54564
6.13482
41.68
-0.687907
-0.534824
-0.491942
-0.470202
-1.78047
-1.76827
-1.77183
-1.81138
29.6257
18.999
-0.43539
-0.47582
-0.494549
-0.49056
-1.77549
-1.76585
-1.75905
-1.74005
21.5771
28.0459
-0.527801
-0.499699
-0.513216
-0.512913
-1.77547
-1.77126
-1.76255
-1.77693
27.3613
23.8341
-0.535321
-0.533609
-0.548068
-0.553639
-1.76954
-1.76918
-1.75921
-1.75937
24.1974
28.245
-0.5992
-0.568887
-0.585235
-0.588931
-1.78115
-1.80612
-1.78572
-1.80612
26.6071
26.4182
-0.578735
-0.570511
-0.604911
-0.612162
-1.83017
-1.8323
-1.78509
-1.78397
25.0413
28.0498
-0.573281
-0.561013
-0.615295
-0.618214
-1.82504
-1.84582
-1.79206
-1.81039
27.4081
25.1969
-0.591081
-0.587789
-0.644758
-0.642733
-1.93593
-1.95938
-1.91543
-1.91596
28.4932
22.8137
-0.657491
-0.650388
-0.677329
-0.690759
-1.99221
-2.00585
-2.03251
-2.09597
40.3124
9.64801
-0.565171
-0.658848
-0.693553
-0.714828
-2.01766
-2.00894
-2.04892
-2.10061
40.7164
9.50631
-0.556627
-0.658499
-0.71907
-0.733423
-2.01895
-2.01263
-2.02391
-1.99807
26.2055
24.1466
-0.748138
-0.761937
-0.767513
-0.789862
-2.00763
-2.01794
-2.05507
-2.14493
39.8206
10.2664
-0.707269
-0.80457
-0.825451
-0.85078
-1.98071
-1.97918
-1.95919
-1.87378
11.2241
39.2125
-1.05878
-0.94036
-0.92123
-0.916293
-1.96354
-1.96822
-1.97756
-2.05298
33.4222
16.3789
-0.915827
-0.944016
-0.955439
-0.959577
-1.94819
-1.94566
-1.94037
-1.9623
21.5424
28.6284
-1.06772
-0.997426
-0.997986
-0.998554
-1.93914
-1.93802
-1.92589
-1.99226
27.9072
22.1363
-1.06386
-1.03108
-1.03427
-1.04764
-1.91783
-1.9215
-1.88347
-1.89541
22.6138
26.5364
-1.1321
-1.10109
-1.10228
-1.10408
-1.93632
-1.94921
-1.90516
-1.88635
24.1144
23.4002
-1.11866
-1.14816
-1.15115
-1.14864
-1.95958
-1.92002
-1.92641
-1.87532
24.0343
21.6225
-1.12334
-1.18256
-1.18469
-1.18762
-1.97992
-1.97031
-1.96795
-1.93195
24.3542
19.8062
-1.1503
-1.20792
-1.21616
-1.21808
-1.98611
-1.97601
-1.96775
-1.98332
26.128
16.5018
-1.22713
-1.24258
-1.25046
-1.26165
-1.96064
-1.96933
-1.94873
-2.05413
24.082
17.6967
-1.37504
-1.30193
-1.30528
-1.30987
-1.96205
-1.96471
-1.92964
-2.07679
14.5783
24.8498
-1.55308
-1.36527
-1.35786
-1.35774
-1.96163
-1.96192
-1.94853
-2.07954
19.9863
16.1769
-1.50155
-1.38867
-1.39046
-1.3935
-1.9628
-1.95589
-1.95639
-1.90596
16.5261
14.9321
-1.28577
-1.42552
-1.42713
-1.4311
-1.95519
-1.95439
-1.95482
-1.92893
12.5607
16.0105
-1.01342
-1.46959
-1.46805
-1.47184
-1.95261
-1.95251
-1.95668
-1.87082
14.931
7.43477
-1.63686
-1.51861
-1.5167
-1.51742
-1.95079
-1.95151
-1.96081
-1.47856
10.9804
3.86919
-2.53226
-1.56481
-1.566
-1.5638
-1.95242
-1.95276
-1.95158
-2.13383
5.716
6.8875
-2.38366
-1.60434
-1.60438
-1.60593
-1.94981
-1.95192
-1.93729
-2.91076
2.63162
5.21353
-1.59795
-1.6742
-1.64368
-1.64666
-1.96018
-1.96084
-2.00569
-2.52301
0.647008
2.81728
-1.74032
-1.75203
-1.68698
-1.68797
-1.96533
-1.96516
-2.09307
-1.97417
-0.280662
0.918999
-1.31703
-1.89032
-1.72899
-1.72855
-1.96574
-1.96644
-2.23812
-1.15009
-0.291465
-0.0416635
-1.29992
-2.30386
-1.77277
-1.76949
-1.96343
-1.96974
-3.33882
-2.01479
-0.96436
-0.612155
-1.00305
-3.12824
-1.78646
-1.81108
-1.96483
-2.22613
-4.31453
-2.07291
-1.37577
-1.87158
-3.00698
-4.51857
-2.56042
-1.85473
-1.98038
-3.96484
-5.8644
-5.81165
-5.69798
-5.53719
-5.01336
-4.87682
-3.91339
-1.8807
-2.66166
-9.09895
-12.4197
-14.294
-15.1477
-15.2897
-14.8475
-13.3385
-10.0463
-2.86171
699.185
693.896
690.274
688.305
684.401
681.252
679.165
677.139
674.666
671.757
668.551
665.204
662.026
658.853
656.072
653.201
650.923
649.176
647.885
646.566
645.451
638.683
632.812
627.944
623.138
619.721
616.958
614.768
612.776
610.734
611.926
616.604
625.627
638.211
649.663
657.237
662.792
667.679
673.453
676.31
681.911
678.594
675.416
672.423
668.794
663.238
661.027
659.214
657.002
653.744
649.923
645.991
642.308
638.771
635.49
632.306
629.595
627.061
624.446
620.861
622.568
616.905
607.923
604.051
599.57
595.687
592.548
589.447
588.368
587.578
586.463
586.864
594.753
607.193
619.1
630.623
640.224
647
652.564
655.57
665.088
660.793
657.132
653.114
648.869
644.951
642.386
640.85
638.078
633.682
629.318
624.691
621.137
617.582
614.065
610.728
608.032
605.138
602.093
600.388
598.153
592.424
586.859
583.778
579.819
575.936
571.722
569.847
567.821
565.637
564.951
567.226
571.181
580.994
590.247
599.769
610.616
617.501
624.265
628.085
643.061
639.307
635.217
630.72
626.343
621.368
618.151
616.079
613.33
609.542
605.523
602.063
598.517
595.138
591.701
588.408
585.398
582.521
579.936
579.017
575.804
570.764
564.928
558.543
554.394
551.461
545.348
544.335
542.069
541.042
540.551
541.097
544.932
552.343
560.226
568.546
575.067
580.81
586.467
590.045
623.894
619.616
614.879
609.844
604.258
598.57
597.815
596.645
590.407
585.997
581.953
578.131
574.307
570.876
567.718
564.619
561.977
560.064
558.362
556.537
554.282
550.926
545.806
540.61
535.897
530.055
524.291
520.5
517.828
519.551
523.327
525.358
529.82
537.312
545.147
549.286
555.276
559.133
564.543
567.431
604.765
600.563
596.398
591.613
587.275
582.005
578.852
579.251
567.945
563.849
558.575
553.932
549.086
544.911
541.412
538.498
536.82
536.227
535.739
535.345
533.95
531.477
528.447
525.115
523.63
519.882
512.719
510.98
511.976
512.727
520.308
518.284
523.483
529.196
535.32
541.023
545.869
550.602
549.876
555.099
585.196
581.061
576.791
573.028
568.818
564.113
559.784
560.574
545.546
539.78
534.856
529.047
522.842
517.541
513.203
509.908
508.182
509.009
510.763
511.598
512.361
512.663
512.022
509.835
506.972
504.904
504.399
504.666
505.212
505.383
507.303
511.028
515.311
519.978
525.353
530.592
535.009
543.783
541.982
545.235
567.479
561.864
558.635
554.825
549.951
545.231
538.302
536.823
525.906
513.95
508.963
502.938
498.515
492.568
486.147
482.046
479.92
482.062
485.52
486.973
487.254
488.03
490.992
492.232
492.203
491.898
492.261
493.84
495.243
496.985
499.125
502.483
506.026
510.439
515.463
519.909
523.912
532.491
528.356
529.665
539.33
537.454
534.73
530.937
525.952
523.703
518.386
509.319
503.567
490.807
489.57
483.307
485.78
483.649
478.058
472.325
468.11
467.863
471.385
473.509
472.255
467.825
472.876
474.16
474.343
473.579
473.477
476.168
480.045
484.044
488.038
491.78
496.382
500.297
505.148
508.52
511.394
517.504
512.257
512.883
511.801
508.236
504.298
501.314
497.995
494.504
489.876
485.269
478.955
472.716
468.136
464.176
463.345
463.002
462.748
461.584
459.176
458.929
461.051
463.439
464.922
466.927
469.585
474.081
475.554
471.129
460.58
464.038
469.247
473.979
478.124
481.74
485.27
491.475
491.762
496.182
496.676
502.355
496.564
497.421
483.355
478.815
474.128
470.265
466.844
462.869
461.118
457.165
453.112
448.235
445.029
442.945
442.469
442.758
443.491
443.98
445.243
446.451
451.202
452.377
453.597
454.707
452.625
455.589
463.323
455.41
458.91
458.649
459.714
464.545
468.41
471.108
474.831
478.286
478.828
482.775
483.009
488.765
482.751
483.728
451.671
444.329
439.285
436.193
434.415
433.174
430.845
425.872
423.378
421.976
420.154
419.396
419.245
419.646
420.234
421.67
423.767
425.471
428.261
431.041
432.854
432.791
432.474
433.639
436.522
438.366
443.312
446.044
448.612
452.303
457.316
457.046
460.594
462.363
467.092
469.082
476.385
476.746
470.484
471.801
413.035
411.603
400.003
399.282
400.134
399.953
397.846
393.967
390.836
391.067
392.483
393.698
394.524
394.372
397.236
398.126
397.899
399.862
401.185
402.786
404.181
405.035
405.104
404.482
408.33
414.03
421.142
425.562
429.619
432.597
436.61
442.028
446.202
448.515
453.745
456.126
469.324
469.98
460.495
461.547
372.828
369.928
370.427
372.459
370.914
371.903
371.243
370.952
374.923
367.717
364.141
366.122
367.026
367.057
367.034
368.681
368.801
368.593
368.236
371.076
374.609
379.31
382.033
381.432
382.345
389.188
397.017
405.02
410.599
416.024
420.439
423.437
430.285
435.81
439.973
442.971
458.356
457.457
450.007
449.795
339.983
340.296
343.261
345.893
358.117
358.855
357.556
356.415
356.163
356.715
354.382
350.359
350.453
346.97
340.417
342.157
340.843
336.163
331.038
334.623
337.129
336.655
335.901
334.466
347.774
360.855
371.105
383.518
393.214
401.179
407.107
409.34
414.866
420.569
425.283
429.225
440.183
440.215
434.674
435.033
325.782
321.768
320.922
323.415
327.599
328.847
332.59
337.073
333.737
333.011
335.241
329.961
332.437
330.736
322.738
332.247
329.085
332.639
322.047
323.39
317.832
311.32
313.339
320.715
322.544
320.629
355.222
363.049
377.84
386.669
392.047
393.822
397.986
402.051
405.802
409.612
421.833
423.28
414.758
416.07
294.204
286.427
285.176
286.768
289.084
292.832
297.394
298.192
297.018
296.152
299.583
301.652
306.867
308.69
313.814
314.989
322.402
324.654
326.977
313.801
310.47
311.651
312.717
314.862
313.92
305.274
332.907
351.073
366.061
380.248
375.756
378.255
379.024
380.496
381.461
382.364
408.257
391.957
388.139
387.75
251.195
248.85
249.624
252.313
257.25
262.165
264.143
262.268
262.462
265.458
275.134
284.315
291.467
293.36
292.285
312.954
315.593
323.532
317.641
307.508
307.419
309.074
310.054
311.158
308.552
303.957
316.459
331.609
349.569
355.374
357.628
358.386
357.716
357.201
354.124
354.2
371.001
352.135
360.912
361.296
253.459
252.028
252.613
244.759
241.801
242.545
244.97
238.175
236.402
248.502
256.831
263.139
268.098
275.409
285.768
291.127
305.654
311.975
299.891
301.12
302.573
303.773
304.574
303.799
303.042
304.173
311.05
321.528
332.802
340.544
339.481
336.962
336.583
338.24
339.378
342.151
344.185
337.48
345.225
348.573
258.551
247.075
245.257
241.525
236.847
239.783
239.156
244.172
247.775
252.946
260.576
263.752
266.786
269.465
269.092
284.588
285.714
288.043
293.706
296.128
297.267
297.427
297.158
297.393
297.646
299.46
303.526
313.342
321.327
325.223
325.017
333.288
334.547
334.65
335.84
338.438
343.449
334.839
339.947
343.146
274.803
240.396
241.401
231.677
232.32
232.54
235.562
236.479
237.317
237.405
238.186
240.559
244.906
252.752
256.042
258.374
269.206
284.612
289.658
289.846
287.442
287.69
287.763
287.599
289.012
291.824
300.513
305.763
306.089
314.849
312.332
324.744
327.971
330.442
335.992
338.106
338.072
333.909
333.274
335.424
260.057
230.679
227.517
223.654
213.542
212.975
213.748
216.375
218.342
221.676
223.164
224.95
228.347
232.975
237.673
251.185
258.418
262.107
261.932
268.415
270.553
271.927
273.403
274.74
276.647
278.833
287.448
289.873
290.624
296.443
298.962
304.178
310.064
316.23
320.646
324.814
324.556
319.005
317.56
320.682
241.82
217.003
216.788
215.567
212.24
210.883
203.938
197.52
198.357
203.638
207.982
212.528
216.522
222.204
229.37
233.466
236.891
245.521
248.52
251.746
253.928
255.81
257.807
259.997
262.622
265.727
269.041
273.087
272.325
276.869
281.618
286.899
292.673
299.056
304.512
307.341
304.335
308.237
307.756
305.76
221.933
208.425
209.754
207.038
202.905
196.955
185.89
175.568
177.863
193.117
196.392
204.605
215.73
218.871
217.832
225.437
229.228
232.775
235.332
237.448
238.856
240.253
241.938
244.419
246.809
249.285
250.373
254.023
256.268
258.164
262.675
268.154
273.716
278.972
283.19
290.578
294.017
294.902
296.118
296.711
217.071
208.278
213.588
213.52
191.964
198.204
194.638
185.899
185.62
192.531
201.996
204.46
203.49
208.629
213.167
216.628
218.877
220.978
222.662
223.768
224.334
225.609
227.127
228.217
229.087
232.662
236.722
233.294
236.25
239.612
244.061
248.564
252.892
257.856
264.324
271.728
271.082
275.019
278.792
279.578
208.849
201.774
219.696
216.14
204.855
205.211
202.85
200.226
203.008
197.049
197.271
198.832
201.597
204.192
205.074
205.242
206.086
207.171
208.013
209.065
210.945
211.618
212.489
212.263
214.086
217.277
219.297
216.641
221
223.188
226.36
230.171
233.841
235.338
239.42
243.99
248.543
252.778
257.028
259.126
200.252
202.921
209.656
230.018
211.137
211.149
205.677
200.198
196.246
194.781
194.421
194.92
195.039
193.939
192.55
190.632
189.861
191.81
193.858
196.966
198.532
199.034
199.767
199.058
202.864
201.575
201.662
202.751
202.43
202.868
203.969
205.704
207.367
209.117
211.407
214.639
219.868
225.14
230.551
234.343
196.73
202.038
207.92
214.057
224.97
221.283
211.429
203.874
197.525
193.768
190.584
187.783
184.58
181.368
179.459
178.064
179.903
182.874
184.744
186.242
187.215
187.377
184.904
186.797
186.373
184.895
184.143
184.081
184.46
184.03
181.14
180.886
180.705
179.708
180.833
183.137
188.913
194.493
202.375
206.232
194.3
199.132
203.89
207.932
208.019
217.1
220.594
212.41
195.162
188.311
184.39
182.478
176.602
171.23
170.781
171.932
173.432
176.693
177.117
177.079
176.015
175.334
173.428
171.116
169.012
168.026
167.412
166.499
164.776
162.949
159.698
155.795
153.838
152.589
152.493
152.293
155.705
161.293
167.08
171.388
191.427
193.82
195.511
197.101
198.117
198.992
195.602
187.346
188.509
175.005
178.631
174.823
167.032
168.648
161.894
158.715
169.445
169.045
169.553
168.53
164.028
162.861
159.947
157.334
155.64
153.183
150.707
147.764
143.604
139.449
134.917
131.933
128.694
125.903
124.234
122.474
127.247
132.827
134.014
136.684
188.23
187.344
185.851
185.047
183.12
179.658
173.394
166.996
156.588
159.243
161.267
161.495
162.05
161.771
160.254
159.77
156.633
161.712
161.326
158.146
156.119
151.974
150.707
147.608
143.73
138.901
135.697
130.103
122.49
114.758
109.518
104.558
100.411
95.51
94.946
95.4815
96.0468
101.068
105.743
106.52
184.932
182.964
177.722
175.253
171.931
167.545
162.085
155.481
147.446
152.173
158.049
158.783
158.774
158.505
157.523
157.146
154.477
150.505
152.973
151.341
149.34
147.875
145.539
140.167
133.332
124.697
115.373
104.965
95.8924
85.1364
77.8823
76.2907
77.501
75.7621
73.6673
72.9669
76.9178
81.5734
86.0055
89.2496
176.492
171.75
167.958
166.115
164.023
161.166
157.008
152.137
148.429
150.988
154.864
155.946
156.203
156.039
155.728
155.457
151.884
144.354
144.653
144.528
143.764
140.405
137.853
132.204
123.388
110.758
94.8906
80.7359
72.1893
66.7825
71.9146
70.7197
67.0746
66.3105
69.5933
70.0904
67.5613
73.6745
78.8076
83.4959
158.97
158.164
158.139
157.994
156.696
154.58
151.719
148.079
144.643
143.7
148.182
153.698
154.668
152.83
149.466
144.469
137.834
134.677
133.539
132.37
130.837
128.563
125.638
115.73
105.339
96.8609
80.7368
68.141
60.4773
56.211
59.7103
63.2283
59.6559
60.7258
64.5266
66.3662
64.7448
68.8586
76.4554
79.6271
161.332
152.061
148.776
147.761
145.964
143.279
141.555
138.786
135.354
133.219
132.437
133.114
133.45
134.093
133.147
130.473
126.308
121.526
117.206
113.27
108.99
103.987
99.139
95.1804
89.6989
82.6393
73.937
66.5807
60.2419
56.0029
56.4939
59.9954
56.9845
59.5807
62.3058
64.8182
64.2875
69.355
75.2652
78.5857
162.908
140.843
136.995
133.474
129.523
125.685
124.27
121.977
119.595
118.069
117.875
117.907
117.67
116.999
115.537
113.068
109.235
104.39
98.4263
91.676
84.2953
79.9788
80.8355
75.8585
69.3435
65.2098
63.9189
60.5945
54.835
51.7511
53.8607
55.9092
52.077
60.9091
62.7334
61.7111
64.0005
69.9602
74.6105
77.6775
148.331
137.125
127.779
119.856
111.631
113.096
114.794
103.467
101.369
99.5923
99.3473
99.4576
99.1736
98.06
96.3405
94.1149
91.079
86.9074
81.2848
73.8831
72.3457
74.1688
76.2533
72.5339
68.4872
62.321
54.5145
50.7739
49.8732
46.5118
52.4508
51.1067
44.9461
67.2769
55.3103
59.9415
64.6676
70.9746
76.3557
80.5778
155.498
133.413
122.843
109.842
100.404
98.5509
95.4515
89.6237
82.9128
78.4587
77.9315
78.6102
79.0141
78.7751
77.6351
75.9899
73.8633
70.9174
67.3142
62.7143
60.8623
68.1049
69.0228
63.7595
56.5412
52.2005
45.9379
37.6316
32.8698
33.8195
43.9496
37.9874
55.7722
44.5203
56.6131
60.0746
65.3012
73.6057
82.6324
90.2568
144.472
131.151
117.765
100.862
87.7809
84.5546
79.9776
74.4026
69.0489
63.3326
58.2258
58.2483
59.7012
60.2049
60.3201
60.8069
59.3476
57.6953
56.1419
55.8462
59.4451
62.3239
63.6246
64.965
58.6869
44.9024
28.481
33.7526
17.8975
12.693
25.4091
42.5732
42.8917
49.9301
52.2068
47.6362
54.5651
66.1418
76.1606
81.8472
115.957
117.643
113.865
99.0105
78.5932
71.6501
65.3838
60.0001
54.8439
50.0901
45.3138
41.5193
45.1754
45.3841
45.3634
44.5673
44.0371
43.0782
41.9193
42.4122
45.263
48.6927
51.6364
53.7323
44.2464
27.6008
19.1098
17.8111
12.8991
7.83269
7.74751
15.7898
26.5564
33.4327
48.05
40.5886
44.2718
51.4736
53.723
56.0064
77.8723
85.3173
84.26
80.1801
75.5831
62.2144
49.6007
44.2677
41.0333
37.4725
32.767
31.354
29.5423
27.8859
27.8063
26.9783
27.6087
26.5906
23.7696
19.7593
15.9081
11.0781
6.36781
12.2712
11.3987
9.44138
11.4451
9.27376
5.55231
3.03252
-0.702467
4.53882
6.75775
7.69743
19.3315
23.3013
28.2552
30.5465
32.4935
34.1426
33.6933
32.7994
24.4989
42.7165
27.8758
21.7061
23.5126
21.5678
19.7611
19.6027
16.9827
12.5347
8.46506
5.62932
6.36812
7.28036
7.38431
7.71831
6.50144
4.51739
2.86454
0.823325
1.14177
0.685073
0.859245
1.19923
5.77051
2.39234
0.599958
0.64827
0.919683
1.51505
0.322593
2.10884
19.7282
19.043
14.4135
11.2867
12.8687
14.9831
4.78454
-27.5392
-10.9465
4.08444
3.23246
2.97264
-0.96914
-8.66581
-10.9719
-8.74297
-4.86054
-2.91802
-0.901687
-0.405152
-0.280856
0.52422
0.40615
0.365972
0.319492
0.303593
0.314544
0.34298
0.391301
0.396677
0.380196
0.522839
0.199058
0.25027
0.294916
0.30576
0.32429
0.323426
0.21937
7.35578
7.70001
3.0159
1.86434
1.8873
2.34432
3.33467
-5.46185
-11.841
-9.54204
-0.0566742
1.36605
-0.473385
-1.50369
-2.33173
-3.22053
-1.70955
0.0871101
-0.526675
-0.325605
0.318229
0.168232
0.160304
0.209942
0.227702
0.234528
0.238425
0.256425
0.258194
0.325355
0.33564
0.342527
0.2626
0.208966
0.23865
0.289016
0.299151
0.294282
0.306673
0.995322
0.0777086
0.0261502
0.0310871
0.121403
0.212324
0.23999
0.20966
18.8802
3.18403
3.89824
9.24931
9.0522
6.74119
4.4505
4.18314
2.06286
0.682789
-0.308968
0.00476195
0.0728004
0.120599
0.122743
0.126286
0.139008
0.152464
0.155074
0.152295
0.148452
0.158475
0.17338
0.171992
0.154597
0.15429
0.162944
0.150766
0.182526
0.112834
0.125333
0.141177
1.50896
-0.0326485
0.0506066
0.00432373
-0.0419015
-0.00231471
0.0347544
0.0367131
-0.986557
-1.48298
2.38724
7.66309
8.68257
5.95341
4.77307
2.9582
-0.313544
0.200773
0.0512142
0.0790029
0.0912346
0.0990421
0.105484
0.108482
0.10607
0.103759
0.0977163
0.0741722
0.0407808
0.00865851
-0.0147387
-0.0322714
-0.0537403
-0.0508276
0.0338121
0.00255034
0.0192487
-0.0495949
-0.0371111
-0.0128984
0.873303
-0.0254
-0.0392195
-0.0717861
-0.0854496
-0.0919697
-0.00814283
-0.0206771
0.172901
0.259897
0.46591
3.64759
3.33818
2.13486
0.361755
0.150126
0.0687739
0.107589
0.0989464
0.0648914
0.082256
0.0877974
0.0806028
0.0627392
0.0422656
0.033026
0.0121638
-0.0363737
-0.0926044
-0.151978
-0.200343
-0.223909
-0.229999
-0.204299
-0.133542
-0.144412
-0.115845
-0.162368
-0.148834
-0.136801
-0.105544
-0.116204
-0.109064
-0.116496
-0.120548
-0.118039
-0.0736508
-0.076148
0.0813703
0.109997
0.0932544
0.0589562
-0.0767654
-0.0281671
-0.0119207
0.0203799
0.0206605
0.0350813
0.0419196
0.0461552
0.0447866
0.0584664
0.0570585
0.0245515
-0.0190778
-0.0875581
-0.147069
-0.186173
-0.211231
-0.246014
-0.28935
-0.307038
-0.304532
-0.269393
-0.237474
-0.212915
-0.175514
-0.209758
-0.203186
-0.181767
-0.173417
-0.155393
-0.153938
-0.147086
-0.141546
-0.117222
-0.104839
-0.0951107
0.0543391
0.0488
0.0311119
0.0448679
0.00239128
-0.0167051
-0.0181123
0.00502905
0.0120403
0.0138228
0.00697833
-0.00367067
0.00407209
-0.0162953
-0.0498169
-0.0945329
-0.154066
-0.206311
-0.22629
-0.252426
-0.277612
-0.297222
-0.310882
-0.317851
-0.315784
-0.292255
-0.276828
-0.264537
-0.208832
-0.235669
-0.229366
-0.194017
-0.174804
-0.169839
-0.16579
-0.158092
-0.150244
-0.0780359
-0.0961164
-0.0670381
0.0496992
0.0363202
0.0286605
0.027993
0.0278362
0.0142326
-0.00474617
-0.0131456
-0.0256514
-0.0361892
-0.0511744
-0.0751533
-0.072789
-0.11488
-0.182915
-0.199912
-0.223694
-0.251054
-0.274565
-0.297221
-0.316408
-0.329754
-0.336781
-0.336499
-0.329008
-0.31477
-0.298702
-0.283197
-0.226076
-0.238061
-0.21059
-0.169701
-0.146151
-0.139715
-0.136332
-0.131501
-0.119278
-0.0631348
-0.0870989
-0.0633056
-0.0143562
-0.012255
-0.0116141
-0.00741012
0.000739825
-0.00316228
-0.0143796
-0.0346017
-0.0521675
-0.0663477
-0.096389
-0.144457
-0.142602
-0.21007
-0.220087
-0.235154
-0.257102
-0.28192
-0.304372
-0.324408
-0.339834
-0.348412
-0.351244
-0.34796
-0.338299
-0.322706
-0.3031
-0.281295
-0.251816
-0.194554
-0.166388
-0.116211
-0.0995176
-0.0950068
-0.103021
-0.121157
-0.0892716
-0.078172
-0.0820882
-0.0712104
-0.0320571
-0.0362368
-0.0453353
-0.0455982
-0.0383771
-0.0462334
-0.0556528
-0.0722203
-0.0889981
-0.104381
-0.12172
-0.189314
-0.156339
-0.249556
-0.251073
-0.253877
-0.266297
-0.287267
-0.310703
-0.333494
-0.352577
-0.364231
-0.361806
-0.352787
-0.335052
-0.32314
-0.301738
-0.281505
-0.25833
-0.223871
-0.154836
-0.11602
-0.10009
-0.106413
-0.127372
-0.105631
-0.0994972
-0.0987794
-0.0919439
-0.0917035
-0.0657307
-0.0711643
-0.0875044
-0.113628
-0.105647
-0.102385
-0.116506
-0.131889
-0.15063
-0.174355
-0.151664
-0.189074
-0.189202
-0.232305
-0.231593
-0.233146
-0.246122
-0.267552
-0.290679
-0.31589
-0.331036
-0.332873
-0.343448
-0.348029
-0.333658
-0.318783
-0.301823
-0.284361
-0.265634
-0.247759
-0.21554
-0.187704
-0.164492
-0.13286
-0.119533
-0.128333
-0.127292
-0.114976
-0.111257
-0.120357
-0.0964757
-0.105186
-0.12271
-0.144209
-0.15128
-0.151396
-0.161875
-0.172776
-0.183709
-0.198157
-0.209134
-0.192779
-0.189964
-0.192277
-0.195613
-0.199245
-0.209599
-0.228512
-0.24608
-0.265584
-0.286402
-0.299144
-0.31721
-0.325912
-0.324723
-0.319492
-0.309261
-0.295055
-0.277265
-0.252093
-0.233423
-0.201949
-0.176271
-0.170899
-0.161243
-0.151225
-0.155549
-0.151403
-0.15567
-0.149305
-0.118341
-0.128766
-0.13969
-0.149739
-0.157736
-0.157191
-0.166662
-0.185291
-0.197048
-0.210992
-0.211028
-0.209158
-0.193757
-0.184481
-0.183649
-0.189448
-0.201232
-0.216815
-0.228898
-0.248811
-0.274623
-0.298935
-0.310625
-0.318369
-0.322116
-0.321512
-0.316092
-0.308213
-0.296051
-0.249427
-0.245409
-0.252757
-0.228363
-0.212028
-0.203213
-0.195365
-0.201067
-0.190399
-0.188341
-0.193296
-0.145229
-0.150698
-0.154727
-0.158341
-0.162161
-0.169078
-0.181039
-0.195754
-0.210481
-0.224666
-0.229702
-0.226796
-0.214559
-0.203947
-0.204343
-0.211548
-0.221782
-0.23234
-0.254922
-0.270285
-0.288745
-0.309391
-0.32005
-0.328034
-0.331755
-0.332002
-0.329849
-0.32534
-0.319091
-0.315187
-0.306862
-0.293997
-0.279561
-0.264703
-0.256562
-0.247354
-0.244354
-0.242525
-0.241736
-0.241978
-0.170324
-0.172073
-0.176842
-0.180225
-0.183117
-0.193818
-0.204744
-0.218271
-0.231473
-0.248106
-0.257337
-0.25479
-0.24222
-0.239414
-0.246287
-0.250133
-0.261342
-0.261488
-0.273587
-0.305254
-0.30813
-0.318774
-0.342739
-0.349097
-0.351806
-0.352178
-0.349503
-0.342521
-0.337163
-0.329498
-0.323078
-0.316731
-0.308866
-0.299391
-0.291331
-0.283995
-0.280476
-0.275949
-0.273865
-0.274216
-0.193163
-0.201992
-0.207865
-0.212865
-0.217759
-0.22711
-0.238486
-0.251438
-0.24245
-0.260577
-0.291793
-0.285206
-0.276241
-0.283172
-0.281565
-0.290572
-0.301203
-0.314803
-0.338727
-0.343013
-0.36173
-0.339533
-0.368103
-0.377395
-0.378173
-0.377252
-0.372622
-0.365413
-0.356796
-0.348615
-0.341476
-0.33686
-0.332876