/*--------------------------------*- C++ -*----------------------------------*\
  =========                 |
  \\      /  F ield         | OpenFOAM: The Open Source CFD Toolbox
   \\    /   O peration     | Website:  https://openfoam.org
    \\  /    A nd           | Version:  8
     \\/     M anipulation  |
\*---------------------------------------------------------------------------*/
FoamFile
{
    version     2.0;
    format      ascii;
    class       volScalarField;
    location    "5.65";
    object      alpha.water;
}
// * * * * * * * * * * * * * * * * * * * * * * * * * * * * * * * * * * * * * //

dimensions      [0 0 0 0 0 0 0];

internalField   nonuniform List<scalar> 
9150
(
1
1
1
1
1
1
1
1
1
1
1
1
1
1
1
1
1
1
1
1
1
1
1
1
1
1
1
1
1
1
1
1
1
1
1
1
1
1
1
1
1
1
1
1
1
1
1
1
1
1
1
1
1
1
1
1
1
1
1
1
1
1
1
1
1
1
1
1
1
1
1
1
1
1
1
1
1
1
1
1
1
1
1
1
1
1
1
1
1
1
1
1
1
1
1
1
1
1
1
1
1
1
1
1
1
1
1
1
1
1
1
1
1
1
1
1
1
1
1
1
1
1
1
1
1
1
1
1
1
1
1
1
1
1
1
1
1
1
1
1
1
1
1
1
1
1
1
1
1
1
0.989075
0.989958
0.989436
0.99028
0.994192
0.994192
0.994192
0.994192
0.990694
0.987191
0.988892
0.994178
0.994187
0.994192
0.994192
0.994192
0.994192
0.991748
0.993374
0.993377
0.830746
0.951155
0.994192
0.994192
0.994192
0.994192
0.994192
0.9899
0.989268
0.992593
0.7566
0.763597
0.865817
0.924588
0.994192
0.994192
0.992925
0.969369
0.969295
0.969304
0.75662
0.7566
0.756767
0.758175
0.762914
0.790939
0.925652
0.99251
0.993372
0.993388
0.839898
0.823002
0.759489
0.759595
0.788124
0.872217
0.951053
0.993355
0.993385
0.993389
0.990265
0.973685
0.940462
0.950197
0.971544
0.981784
0.989155
0.993211
0.990706
0.989277
0.992213
0.993318
0.988776
0.982506
0.992976
0.993349
0.98919
0.988991
0.988992
0.991588
0.99332
0.993323
0.993324
0.993336
0.993338
0.993384
0.993322
0.990011
0.993306
0.993297
0.993323
0.993328
0.993328
0.993344
0.993384
0.99344
0.993329
0.993338
0.993327
0.993308
0.933583
0.935715
0.993328
0.993337
0.993108
0.993568
0.993379
0.993363
0.992893
0.956164
0.906258
0.906076
0.908523
0.967605
0.992241
0.994323
0.982005
0.974619
0.965369
0.965634
0.906076
0.906076
0.906076
0.910402
0.985616
0.994737
0.979299
0.972085
0.97198
0.992562
0.94344
0.907022
0.923802
0.98059
0.99473
0.99477
0.994786
0.994787
0.994787
0.994787
0.987435
0.987692
0.987639
0.963998
0.945759
0.963822
0.993923
0.994749
0.994787
0.994787
0.921389
0.984725
0.987692
0.98755
0.978661
0.916758
0.916414
0.916038
0.951581
0.994787
0.894172
0.924451
0.98696
0.987474
0.986998
0.986456
0.946794
0.914845
0.914563
0.931222
0.909199
0.95225
0.956102
0.822993
0.849307
0.977646
0.977344
0.922677
0.914576
0.955864
0.990202
0.921422
0.82068
0.820652
0.82068
0.916766
0.963615
0.952632
0.967164
0.993483
0.989738
0.974062
0.852982
0.82068
0.820657
0.820801
0.942184
0.994581
0.994693
0.994742
0.696356
0.643694
0.83472
0.918499
0.930598
0.941807
0.985016
0.994623
0.994654
0.994679
0.221979
0.217662
0.369412
0.931656
0.993883
0.994661
0.994654
0.994588
0.993891
0.993732
0.216965
0.216093
0.217662
0.523884
0.994661
0.994676
0.994675
0.994391
0.993721
0.993719
0.216093
0.215847
0.216093
0.279602
0.87932
0.994676
0.994678
0.994676
0.994378
0.993757
0.286088
0.216093
0.215847
0.21691
0.446925
0.987548
0.994677
0.994677
0.994686
0.994696
0.931977
0.425954
0.21691
0.217051
0.218735
0.390923
0.909307
0.994677
0.994677
0.994686
0.956807
0.874979
0.775699
0.552469
0.254234
0.258594
0.269359
0.520912
0.777031
0.901462
0.95251
0.943256
0.86438
0.842907
0.849868
0.64517
0.480754
0.462571
0.462571
0.498726
0.979329
0.981235
0.946776
0.895962
0.960719
0.971066
0.968119
0.898081
0.855692
0.837947
0.993774
0.993713
0.96577
0.960076
0.906802
0.975985
0.990615
0.991532
0.991512
0.991408
0.99372
0.99372
0.988148
0.936718
0.885503
0.909941
0.982587
0.991532
0.991538
0.991512
0.985982
0.993712
0.993626
0.953821
0.883865
0.874156
0.873427
0.943677
0.991512
0.978302
0.86256
0.964297
0.993415
0.98999
0.953004
0.900242
0.872313
0.871982
0.991336
0.897904
0.858376
0.858019
0.957281
0.988232
0.987546
0.982966
0.910926
0.870024
0.824979
0.707237
0.85841
0.857406
0.857324
0.914687
0.985141
0.984174
0.983477
0.957885
0.800718
0.738918
0.908027
0.857324
0.857324
0.857324
0.865235
0.933405
0.926465
0.892003
0.914422
0.945026
0.982751
0.934812
0.903162
0.89255
0.864969
0.864725
0.865217
0.864275
0.864137
0.921801
0.985222
0.985191
0.9851
0.985074
0.97387
0.929932
0.864275
0.864145
0.864145
0.864145
0.985222
0.985222
0.985191
0.985131
0.984921
0.98466
0.971899
0.864153
0.864145
0.86438
0.985222
0.985187
0.968405
0.855038
0.850598
0.85084
0.851223
0.860086
0.956973
0.984561
0.865486
0.856899
0.853798
0.851521
0.85021
0.850963
0.875926
0.967499
0.975685
0.979235
0.967146
0.967691
0.96771
0.947544
0.917397
0.890104
0.907679
0.88512
0.82571
0.872614
0.967734
0.968413
0.968847
0.969409
0.970343
0.970844
0.920893
0.848007
0.749465
0.769048
0.967273
0.967916
0.969172
0.970338
0.970839
0.97167
0.972478
0.951449
0.739366
0.739023
0.753298
0.863718
0.947812
0.968744
0.97167
0.972478
0.974516
0.977263
0.912149
0.74126
0.534055
0.534656
0.663643
0.810313
0.909495
0.96672
0.97457
0.979764
0.981633
0.972001
0.533881
0.534055
0.607573
0.701716
0.808222
0.900042
0.920833
0.961632
0.981691
0.981633
0.534055
0.538026
0.712189
0.847601
0.937871
0.940637
0.938699
0.939009
0.980644
0.981708
0.62909
0.63115
0.610831
0.67246
0.888819
0.982076
0.982178
0.982076
0.98223
0.981676
0.939971
0.906733
0.604671
0.598009
0.641518
0.963467
0.982076
0.982232
0.981546
0.979345
0.940893
0.940881
0.805554
0.597683
0.617664
0.948781
0.981097
0.981244
0.977351
0.925102
0.940881
0.940889
0.9396
0.606418
0.831062
0.974396
0.978961
0.976173
0.817139
0.459996
0.940322
0.940881
0.931144
0.825402
0.959723
0.971838
0.974874
0.76153
0.329457
0.275832
0.939533
0.940254
0.706646
0.924567
0.970169
0.97157
0.859954
0.334792
0.283744
0.280307
0.938738
0.796172
0.60168
0.863185
0.95867
0.970169
0.642661
0.29331
0.287846
0.283741
0.937548
0.745326
0.583058
0.836697
0.952972
0.922873
0.626476
0.291379
0.301462
0.675275
0.936886
0.79736
0.546245
0.823687
0.948462
0.885747
0.656534
0.283348
0.630237
0.992885
0.937015
0.822939
0.486092
0.814167
0.944093
0.873075
0.629011
0.198269
0.882382
0.992885
0.936886
0.772246
0.402747
0.822948
0.936061
0.858323
0.571463
0.179533
0.850919
0.992195
0.760885
0.260078
0.373347
0.819875
0.802609
0.83995
0.503752
0.114616
0.467501
0.976784
0.525065
0.164029
0.468193
0.815856
0.757931
0.836767
0.419173
0.0999202
0.310599
0.936148
0.338716
0.164188
0.504152
0.814399
0.757931
0.840634
0.315916
0.0885362
0.485416
0.947136
0.0579175
0.302391
0.569144
0.376685
0.774302
0.843766
0.202324
0.0813206
0.0867178
0.200942
0.168672
0.299015
0.284675
0.161919
0.786979
0.844731
0.0972934
0.0799964
0.0878869
0.104755
0.172355
0.297524
0.0892568
0.0893129
0.813742
0.844977
0.0644384
0.0763583
0.0573265
0.025785
0.0973262
0.196199
0.146381
0.0859205
0.824565
0.845031
0.0637312
0.010938
5.47668e-06
6.09847e-06
0.0413016
0.0884333
0.182667
0.0845925
0.832189
0.846437
0.0678632
5.42854e-06
5.47668e-06
5.47668e-06
0.0721203
0.112882
0.161
0.0852028
0.836315
0.851104
0.0745407
5.47668e-06
5.43402e-06
3.98713e-05
0.0753537
0.0759773
0.0447528
0.082919
0.845436
0.853404
0.0771981
5.7072e-06
9.49907e-06
6.17067e-05
0.0721372
0.045764
0.0447952
0.0885423
0.857504
0.856206
0.077938
5.92929e-06
7.24348e-06
3.86656e-06
0.00149517
0.0213953
0.047886
0.0908943
0.864594
0.864659
0.0869368
5.87914e-06
8.48615e-05
3.86122e-06
0.000282192
0.000380838
5.89011e-05
0.095821
0.8733
0.871288
0.0945577
6.65303e-06
0.000120568
3.84261e-06
0.000130712
5.89011e-05
5.89011e-05
0.105445
0.880475
0.881233
0.105624
8.06719e-06
0.000120859
6.84128e-05
5.93182e-05
5.89072e-05
5.89011e-05
0.115693
0.888032
0.890605
0.117262
9.17945e-06
0.000117467
0.00020703
5.90729e-05
5.89298e-05
5.89072e-05
0.127691
0.896147
0.898449
0.12887
1.02724e-05
0.00013315
0.000250171
5.9042e-05
5.90298e-05
5.89298e-05
0.141704
0.905083
0.906179
0.142024
1.13347e-05
0.000153108
0.000255107
6.02548e-05
5.9075e-05
5.90522e-05
0.155808
0.91316
0.91143
0.151768
1.25469e-05
0.000197507
0.000261768
0.000122466
0.000416127
5.99195e-05
0.17031
0.920721
0.91982
0.166709
1.4585e-05
0.000209231
0.000261873
0.000315236
0.00330592
6.51931e-05
0.182715
0.926388
0.927936
0.182596
1.67997e-05
0.000147608
0.000261931
5.92939e-05
0.00371742
7.49739e-05
0.198909
0.933938
0.936862
0.202812
1.67228e-05
0.000107344
0.000262034
5.91513e-05
0.00378484
0.000113725
0.21489
0.940883
0.945267
0.224379
1.63479e-05
5.738e-05
0.000212648
5.90787e-05
0.00384199
0.000175152
0.244136
0.95212
0.950689
0.241491
1.58198e-05
9.42106e-05
0.000262054
0.00171706
0.00383068
0.000196711
0.270654
0.959813
0.958291
0.2673
1.56038e-05
4.00626e-05
0.000233156
5.90676e-05
0.00309717
0.000182625
0.303659
0.967398
0.965966
0.298288
1.38151e-05
0.000138404
0.000198167
5.90675e-05
0.00139831
0.000179378
0.338078
0.973253
0.973732
0.33788
1.07032e-05
0.000259071
0.000318674
5.90676e-05
0.00184462
0.000165694
0.37165
0.978397
0.979504
0.38017
9.23075e-06
0.00024427
0.000318525
5.90675e-05
0.00186301
0.000153597
0.423454
0.984437
0.98379
0.425138
9.19299e-06
9.21151e-06
0.000107162
0.00017789
0.00185941
0.000147089
0.474614
0.988598
0.987213
0.472863
9.23075e-06
1.21536e-05
3.059e-05
0.000287817
0.00183928
0.000147089
0.538731
0.991297
0.990614
0.535957
5.65262e-06
2.53006e-05
0.000104812
0.000102714
0.000122672
7.64881e-05
0.596761
0.994189
0.993479
0.5998
5.77945e-07
3.32917e-07
4.65774e-05
3.03921e-05
5.64865e-06
5.77318e-06
0.67776
0.996248
0.995039
0.680432
3.32917e-07
3.32917e-07
3.32812e-07
0.000213181
4.94999e-06
5.81412e-06
0.753472
0.997821
0.996726
0.752414
3.38088e-07
3.32821e-07
3.93804e-07
0.000128516
3.72094e-06
0.0272474
0.824423
0.998954
0.997809
0.823
0.0336608
3.38088e-07
1.08699e-06
3.68157e-05
2.03363e-06
0.0992934
0.879452
0.999093
0.99935
0.885339
0.116436
3.65331e-07
7.06661e-07
3.46317e-07
3.46317e-07
0.172476
0.915468
0.999619
0.999482
0.958431
0.250639
2.0076e-07
1.77691e-07
3.46317e-07
3.7334e-07
0.372441
0.984865
0.99977
0.999931
0.980391
0.402781
5.63573e-07
3.42154e-08
3.74803e-07
3.18224e-06
0.583044
0.999508
0.999934
0.999968
0.999944
0.722532
1.72803e-05
3.29577e-08
2.66158e-07
0.0462931
0.848528
0.999931
0.999995
0.999997
0.999979
0.899304
0.133877
2.21244e-08
1.00472e-07
0.521907
0.99796
0.999992
1
1
0.999995
0.999789
0.619147
1.76302e-09
0.287227
0.956924
1
1
1
1
1
1
0.979352
0.36138
0.987191
0.990802
0.993389
0.99339
0.99339
0.99339
0.99339
0.991604
0.986784
0.986786
0.992848
0.992856
0.9889
0.950011
0.97799
0.993306
0.993294
0.993027
0.993027
0.993027
0.993027
0.993028
0.993217
0.993312
0.993311
0.993224
0.958064
0.943784
0.943784
0.943784
0.943789
0.943909
0.984102
0.993304
0.988643
0.939314
0.9352
0.934954
0.934915
0.934915
0.993378
0.99285
0.992577
0.99266
0.99339
0.99339
0.99339
0.987836
0.986799
0.99272
0.992856
0.992845
0.943608
0.898086
0.993306
0.993306
0.993306
0.993306
0.993306
0.993306
0.993306
0.993125
0.993312
0.993312
0.993312
0.993312
0.99331
0.982279
0.943784
0.957658
0.993307
0.993307
0.993306
0.993306
0.993304
0.993277
0.99309
0.978417
0.946829
0.939281
0.993385
0.993387
0.99288
0.99339
0.99339
0.99339
0.992231
0.987609
0.989664
0.992833
0.992845
0.937481
0.843816
0.843885
0.962543
0.993306
0.993306
0.993306
0.993306
0.993306
0.993306
0.993309
0.993312
0.993312
0.993312
0.993312
0.993312
0.993282
0.992716
0.992946
0.993308
0.993308
0.993307
0.993304
0.98989
0.986893
0.992387
0.992223
0.991964
0.99196
0.992216
0.99339
0.99339
0.99339
0.99339
0.990299
0.991934
0.987594
0.990578
0.992831
0.971169
0.843816
0.843758
0.84376
0.843805
0.871463
0.930174
0.966526
0.922411
0.922602
0.993306
0.992742
0.988557
0.990455
0.993312
0.993312
0.993312
0.993312
0.993312
0.99331
0.993309
0.993307
0.993296
0.987219
0.951143
0.951481
0.961401
0.985946
0.991957
0.99197
0.99339
0.99339
0.99339
0.99339
0.991607
0.987911
0.987784
0.9876
0.987922
0.992776
0.989757
0.887617
0.84376
0.843759
0.84376
0.843805
0.844127
0.923635
0.861741
0.83039
0.82997
0.83017
0.81811
0.872141
0.993312
0.993256
0.987419
0.987246
0.99331
0.99331
0.99331
0.993298
0.989449
0.953244
0.951143
0.951165
0.952771
0.953653
0.976683
0.991346
0.993389
0.99339
0.99339
0.991707
0.987892
0.987864
0.987809
0.99276
0.991083
0.99103
0.99366
0.987021
0.937685
0.915846
0.91957
0.930468
0.938816
0.975756
0.992608
0.942781
0.818336
0.81811
0.818091
0.818061
0.818065
0.852125
0.987482
0.974573
0.969712
0.99331
0.993302
0.987367
0.946972
0.911096
0.968829
0.98949
0.989672
0.982521
0.968295
0.989369
0.989277
0.98928
0.990531
0.993665
0.987978
0.987892
0.987888
0.99366
0.993665
0.992819
0.993665
0.993664
0.993659
0.993658
0.993662
0.993665
0.993666
0.993665
0.993666
0.993665
0.959155
0.819326
0.818061
0.818051
0.818053
0.818053
0.818185
0.918704
0.969208
0.948426
0.915141
0.89526
0.893962
0.893962
0.958208
0.989672
0.989682
0.989692
0.977152
0.989589
0.991627
0.992162
0.993665
0.993665
0.992941
0.988056
0.992635
0.993665
0.993665
0.993665
0.993666
0.993666
0.993666
0.993666
0.993666
0.993666
0.993666
0.993666
0.993666
0.993666
0.993665
0.993523
0.86708
0.818061
0.818051
0.818069
0.818088
0.81812
0.83356
0.904622
0.951668
0.894064
0.893959
0.894036
0.899097
0.985398
0.989692
0.989692
0.989692
0.989692
0.992918
0.993665
0.993665
0.993665
0.993665
0.993665
0.993665
0.993665
0.993665
0.993666
0.993666
0.993666
0.993666
0.993666
0.993666
0.993666
0.993666
0.993666
0.993116
0.992647
0.993365
0.993334
0.989817
0.987492
0.970061
0.821958
0.81812
0.818265
0.818377
0.823539
0.965259
0.98195
0.900335
0.894039
0.904226
0.985467
0.98968
0.989692
0.989692
0.974553
0.975108
0.940489
0.964366
0.993665
0.993665
0.993665
0.993665
0.993665
0.993557
0.992609
0.993164
0.993663
0.993077
0.992816
0.993666
0.993666
0.993666
0.974925
0.973947
0.973947
0.973947
0.988856
0.992929
0.992929
0.992929
0.98436
0.980814
0.917226
0.818673
0.878583
0.985814
0.987101
0.987192
0.935856
0.906856
0.97416
0.989623
0.98968
0.98891
0.970261
0.940427
0.940427
0.940316
0.940766
0.954922
0.968649
0.970607
0.970826
0.970828
0.97087
0.970932
0.971008
0.971064
0.97108
0.990762
0.99366
0.993248
0.99282
0.991826
0.991507
0.991208
0.98107
0.954825
0.967992
0.99283
0.992171
0.991689
0.991537
0.963093
0.974189
0.987021
0.987206
0.987192
0.987204
0.965468
0.974731
0.989619
0.98966
0.986762
0.970092
0.976892
0.973052
0.940217
0.940052
0.94005
0.940069
0.954796
0.98694
0.98689
0.986757
0.98363
0.984028
0.983712
0.981338
0.971915
0.979233
0.968403
0.897783
0.923879
0.926537
0.901136
0.661891
0.434061
0.426729
0.420721
0.594455
0.764855
0.629576
0.501105
0.495317
0.493241
0.499249
0.734079
0.986278
0.989321
0.989619
0.989651
0.989649
0.988673
0.969959
0.994787
0.994787
0.983571
0.940398
0.949427
0.990373
0.994149
0.993986
0.985958
0.975935
0.990503
0.98429
0.962111
0.940925
0.910902
0.792432
0.596716
0.357073
0.357073
0.369346
0.392109
0.406832
0.449812
0.443086
0.420487
0.420487
0.568128
0.677667
0.517762
0.493355
0.493283
0.509346
0.909136
0.986796
0.987755
0.96278
0.733048
0.861166
0.987814
0.970092
0.994787
0.994787
0.994787
0.994787
0.994769
0.99457
0.994416
0.991666
0.93973
0.931778
0.990714
0.933591
0.921137
0.925934
0.665609
0.399956
0.397255
0.395927
0.857872
0.992494
0.99252
0.980919
0.978379
0.974832
0.947626
0.936787
0.950028
0.962362
0.962462
0.962435
0.863504
0.56073
0.546572
0.698122
0.731544
0.653168
0.650052
0.912614
0.976509
0.977724
0.994787
0.994787
0.994787
0.991932
0.972397
0.970825
0.934662
0.811073
0.812147
0.941402
0.991365
0.991435
0.991144
0.968335
0.690727
0.638808
0.994797
0.992154
0.984272
0.99252
0.992416
0.975341
0.92245
0.876419
0.845864
0.831595
0.823033
0.846027
0.894203
0.667612
0.546576
0.546565
0.546572
0.546564
0.548499
0.632794
0.809627
0.943023
0.981799
0.981894
0.994787
0.994787
0.994787
0.955651
0.821642
0.798865
0.79916
0.799623
0.901099
0.991135
0.991429
0.926662
0.658423
0.658423
0.658453
0.909525
0.994797
0.994793
0.994766
0.991742
0.900261
0.718311
0.702897
0.702738
0.702508
0.702364
0.702406
0.702367
0.702406
0.735797
0.858322
0.788749
0.72542
0.810778
0.843136
0.922103
0.952496
0.94039
0.980723
0.981855
0.993773
0.994786
0.994785
0.984711
0.816917
0.798865
0.798865
0.824062
0.990109
0.991105
0.961206
0.68312
0.660295
0.701259
0.994831
0.994831
0.994828
0.994797
0.994522
0.944272
0.713281
0.70427
0.702846
0.712123
0.75879
0.719851
0.702363
0.702406
0.762188
0.990955
0.991981
0.991981
0.991197
0.991952
0.991859
0.990053
0.954629
0.937602
0.938302
0.953601
0.994749
0.994767
0.994767
0.990866
0.844742
0.798865
0.804138
0.97893
0.989154
0.957042
0.677623
0.65441
0.702147
0.994831
0.994831
0.994831
0.994831
0.994827
0.994794
0.994657
0.95509
0.765533
0.758115
0.982834
0.994639
0.953888
0.730559
0.704829
0.719883
0.950368
0.99198
0.991983
0.991981
0.991971
0.991952
0.991597
0.946952
0.937631
0.937602
0.937631
0.994747
0.994749
0.994747
0.986904
0.835671
0.799062
0.949084
0.976259
0.916195
0.641867
0.644799
0.648084
0.904129
0.994829
0.994832
0.994831
0.994829
0.994824
0.994848
0.994662
0.994646
0.994646
0.994646
0.994646
0.994645
0.994639
0.99459
0.992195
0.882588
0.795862
0.795574
0.846196
0.991971
0.991952
0.991892
0.991776
0.98935
0.975388
0.976043
0.988358
0.994744
0.994747
0.994695
0.959515
0.863236
0.946923
0.962959
0.872279
0.641233
0.641472
0.641867
0.689043
0.99461
0.994771
0.994829
0.994829
0.994824
0.994803
0.987464
0.977644
0.990364
0.994646
0.994646
0.994645
0.994639
0.994607
0.994552
0.994521
0.994425
0.960184
0.810146
0.808373
0.808381
0.925057
0.94379
0.935751
0.953683
0.990816
0.990867
0.990816
0.99465
0.994673
0.992097
0.978901
0.988738
0.992575
0.960092
0.683396
0.641303
0.641153
0.647051
0.938376
0.980323
0.962018
0.910012
0.986608
0.994764
0.994237
0.964967
0.950606
0.959939
0.994645
0.994645
0.994639
0.99249
0.991724
0.99452
0.994493
0.99447
0.994401
0.994194
0.992504
0.978954
0.849109
0.822874
0.820735
0.820361
0.844187
0.816377
0.795338
0.993752
0.993779
0.994547
0.994638
0.994456
0.993999
0.990209
0.808377
0.641129
0.793062
0.957575
0.977933
0.975567
0.878407
0.819484
0.83335
0.98236
0.992806
0.968501
0.950565
0.965284
0.994636
0.994631
0.994555
0.989052
0.955672
0.967779
0.99447
0.994397
0.993245
0.992251
0.992107
0.991053
0.990931
0.990931
0.990931
0.97765
0.762074
0.71013
0.71013
0.993875
0.994701
0.9947
0.994689
0.994638
0.994477
0.971812
0.933307
0.960944
0.981266
0.981255
0.980245
0.881942
0.819346
0.8194
0.819484
0.858846
0.991117
0.978564
0.957643
0.991527
0.993119
0.993469
0.994291
0.985222
0.879826
0.787363
0.827178
0.888928
0.791918
0.772773
0.852468
0.926808
0.984518
0.990931
0.99066
0.987565
0.949505
0.744363
0.719197
0.994701
0.994701
0.994701
0.9947
0.994695
0.994406
0.98323
0.988431
0.993967
0.99321
0.969287
0.833899
0.81934
0.819356
0.819485
0.843616
0.94464
0.895323
0.863616
0.985832
0.988161
0.896627
0.88776
0.988521
0.955588
0.68227
0.639111
0.637691
0.637701
0.637694
0.637701
0.63776
0.637759
0.736448
0.825369
0.841401
0.881035
0.918952
0.921873
0.900477
0.994698
0.994701
0.9947
0.994689
0.990643
0.994228
0.994469
0.994443
0.994337
0.992908
0.885078
0.821963
0.820467
0.918988
0.955863
0.954482
0.945021
0.723932
0.705675
0.984103
0.980946
0.843376
0.79312
0.949263
0.981338
0.749402
0.63869
0.637963
0.637692
0.637701
0.63776
0.63776
0.636633
0.635709
0.635508
0.635467
0.635423
0.635422
0.780758
0.817352
0.994696
0.994697
0.948482
0.614032
0.606928
0.96093
0.994471
0.994469
0.994443
0.992562
0.903347
0.859874
0.961313
0.961193
0.961181
0.844862
0.623127
0.623247
0.624228
0.764272
0.963431
0.917583
0.773448
0.958245
0.990766
0.993659
0.857027
0.666359
0.637963
0.639433
0.665257
0.698239
0.702326
0.662113
0.635667
0.635423
0.635422
0.635422
0.635422
0.635422
0.94186
0.829717
0.578973
0.527309
0.530307
0.796925
0.994472
0.994471
0.99444
0.985772
0.962384
0.962268
0.961792
0.820346
0.623208
0.623099
0.623055
0.623128
0.623247
0.639335
0.938717
0.944512
0.749509
0.855475
0.993659
0.994279
0.994842
0.995655
0.968647
0.940828
0.974226
0.995653
0.995647
0.969469
0.829561
0.651053
0.635423
0.635422
0.635422
0.635422
0.583547
0.62789
0.527384
0.528108
0.553296
0.960837
0.994472
0.994472
0.994469
0.994422
0.993917
0.896052
0.624141
0.623155
0.623099
0.623055
0.623055
0.623055
0.623188
0.719934
0.970601
0.949359
0.744657
0.740905
0.805387
0.984055
0.995051
0.995655
0.995655
0.995655
0.995654
0.995654
0.995653
0.995648
0.995556
0.909011
0.635438
0.635423
0.635423
0.635423
0.843767
0.877489
0.755306
0.659312
0.864791
0.994472
0.994472
0.994472
0.994453
0.993344
0.875896
0.818147
0.830738
0.973279
0.981532
0.786079
0.623055
0.623114
0.670751
0.954536
0.978756
0.956488
0.770707
0.740978
0.740937
0.742072
0.951681
0.995655
0.995655
0.995654
0.995654
0.995653
0.99565
0.995646
0.99559
0.964718
0.64535
0.635438
0.635437
0.635433
0.991041
0.985897
0.981998
0.983578
0.994407
0.994445
0.994472
0.994453
0.979528
0.979289
0.899009
0.86347
0.986186
0.986954
0.986954
0.984953
0.962695
0.969965
0.989482
0.98947
0.979831
0.955226
0.87564
0.740978
0.741249
0.741767
0.920234
0.995655
0.995653
0.99565
0.995646
0.99565
0.995646
0.99564
0.995635
0.99538
0.841278
0.635812
0.635811
0.641499
0.991408
0.969517
0.866455
0.861821
0.992417
0.994407
0.86242
0.79437
0.782884
0.788187
0.835798
0.868322
0.823039
0.826427
0.982635
0.989501
0.989506
0.989504
0.989505
0.984192
0.970956
0.989054
0.992836
0.840342
0.741767
0.844963
0.99563
0.995652
0.995638
0.995594
0.995554
0.995626
0.995641
0.995636
0.995591
0.995463
0.974752
0.873892
0.861016
0.93065
0.865213
0.731993
0.708476
0.710267
0.753847
0.834596
0.91159
0.844251
0.754643
0.69815
0.6963
0.695911
0.695911
0.695911
0.705102
0.962843
0.989501
0.989506
0.975262
0.964222
0.973859
0.995548
0.995553
0.995558
0.983357
0.988273
0.995593
0.99563
0.995474
0.993879
0.992583
0.995286
0.995614
0.995595
0.995467
0.99498
0.994971
0.995023
0.995023
0.995023
0.707237
0.706981
0.707564
0.708476
0.75901
0.908103
0.982916
0.980734
0.95286
0.931138
0.928129
0.894459
0.740075
0.696009
0.701169
0.787353
0.98172
0.987938
0.990876
0.976749
0.978656
0.995553
0.995558
0.995563
0.995563
0.995563
0.995593
0.995476
0.951226
0.779786
0.689484
0.947683
0.995029
0.994963
0.968641
0.992784
0.994805
0.995021
0.995023
0.995023
0.706981
0.706899
0.706943
0.761892
0.952074
0.982915
0.982915
0.982811
0.983198
0.983687
0.983349
0.983007
0.980433
0.933081
0.942607
0.942575
0.783563
0.89841
0.993388
0.993685
0.993782
0.994168
0.995551
0.995558
0.995563
0.995563
0.994909
0.935884
0.663926
0.411994
0.373764
0.532764
0.926053
0.965045
0.818103
0.887911
0.940958
0.984724
0.995023
0.995023
0.713197
0.706933
0.706925
0.706943
0.966204
0.982349
0.979351
0.919369
0.933808
0.98361
0.982249
0.983414
0.983818
0.983818
0.983818
0.915279
0.633117
0.631019
0.835981
0.986911
0.993685
0.934885
0.949022
0.976678
0.99526
0.99555
0.958006
0.635171
0.375932
0.373764
0.373762
0.373764
0.602346
0.82003
0.798729
0.78606
0.803832
0.966843
0.994766
0.995023
0.952988
0.866234
0.755621
0.709406
0.71248
0.85441
0.976612
0.968946
0.912045
0.539584
0.506961
0.729528
0.922494
0.979771
0.982923
0.97279
0.768718
0.628377
0.626352
0.669036
0.748653
0.631564
0.624206
0.702717
0.896338
0.995463
0.863319
0.387744
0.373771
0.373762
0.373762
0.373762
0.485045
0.764379
0.768758
0.775483
0.788475
0.961092
0.993916
0.995019
0.970412
0.975667
0.976639
0.941201
0.805565
0.810187
0.816903
0.857665
0.947161
0.953115
0.828784
0.335264
0.33003
0.571519
0.949419
0.976401
0.977389
0.70931
0.625435
0.6249
0.624288
0.624206
0.624206
0.624206
0.716374
0.992699
0.847295
0.376763
0.373806
0.373771
0.373762
0.373777
0.585816
0.793887
0.775483
0.787452
0.902935
0.985074
0.99464
0.994981
0.879823
0.980389
0.984855
0.98542
0.984382
0.975967
0.874075
0.863216
0.905904
0.976069
0.977707
0.968306
0.433746
0.315707
0.394303
0.928386
0.97871
0.980395
0.75619
0.628295
0.624443
0.624279
0.624206
0.624235
0.774418
0.993082
0.985549
0.529624
0.374101
0.373806
0.373777
0.373992
0.811634
0.898936
0.786469
0.874794
0.991314
0.991687
0.993471
0.994066
0.910801
0.985453
0.985587
0.985612
0.985609
0.985233
0.984456
0.967254
0.961423
0.977707
0.978199
0.978263
0.96293
0.403383
0.229039
0.307902
0.862668
0.991169
0.991415
0.919734
0.715818
0.624868
0.624501
0.818404
0.994097
0.994106
0.994107
0.826712
0.389162
0.374101
0.373773
0.584298
0.921277
0.904236
0.834028
0.978419
0.991114
0.991314
0.927594
0.919079
0.985457
0.985586
0.985609
0.985609
0.985612
0.985609
0.974636
0.959641
0.975232
0.978199
0.97826
0.97824
0.97826
0.803605
0.224271
0.163825
0.200407
0.709078
0.992263
0.993424
0.993515
0.977465
0.980886
0.994104
0.994106
0.994107
0.994107
0.978302
0.726574
0.412884
0.534012
0.924943
0.923586
0.861576
0.949259
0.990913
0.990913
0.976288
0.877622
0.877655
0.985251
0.985454
0.985587
0.979353
0.872958
0.481979
0.250344
0.515848
0.959197
0.977567
0.978202
0.978272
0.978218
0.883079
0.262759
0.150304
0.145224
0.144035
0.494349
0.974974
0.993859
0.994085
0.994107
0.994106
0.994107
0.994107
0.994107
0.994107
0.989201
0.952414
0.987918
0.970927
0.922099
0.885536
0.990594
0.990864
0.990913
0.903933
0.877707
0.877601
0.982563
0.98525
0.985377
0.537676
0.261023
0.24668
0.245573
0.245916
0.527212
0.965253
0.97764
0.978218
0.978181
0.717679
0.178737
0.144972
0.143798
0.14336
0.143438
0.42442
0.956671
0.993943
0.994096
0.994104
0.994106
0.994107
0.994107
0.992373
0.992271
0.992015
0.991689
0.917119
0.908054
0.988972
0.990615
0.990815
0.990538
0.881492
0.879401
0.877707
0.891138
0.984064
0.983402
0.831794
0.267955
0.245822
0.245916
0.245573
0.245916
0.400896
0.871193
0.895769
0.624715
0.189644
0.145267
0.143749
0.143345
0.143261
0.143254
0.143438
0.511658
0.975734
0.993628
0.99106
0.994009
0.994105
0.994069
0.981334
0.987722
0.991689
0.990192
0.760319
0.934934
0.988132
0.95001
0.988323
0.975881
0.920165
0.977873
0.918852
0.738581
0.848638
0.979609
0.979086
0.876669
0.605248
0.342921
0.245916
0.249985
0.503762
0.622497
0.316388
0.152849
0.145366
0.143749
0.143146
0.143261
0.143253
0.143254
0.143253
0.186144
0.686516
0.929101
0.977656
0.993981
0.99408
0.993866
0.982035
0.932822
0.929246
0.89355
0.760345
0.973998
0.96128
0.909673
0.929011
0.945799
0.990254
0.990258
0.990254
0.737453
0.738426
0.86932
0.967551
0.966546
0.959987
0.912237
0.856211
0.85929
0.900084
0.859325
0.722178
0.531467
0.363102
0.349929
0.37045
0.258232
0.143261
0.143253
0.143451
0.222497
0.640663
0.753202
0.875244
0.993226
0.993964
0.993848
0.992673
0.683897
0.553834
0.591202
0.787025
0.972024
0.910346
0.909659
0.911442
0.970727
0.990229
0.990254
0.990261
0.846269
0.752493
0.798328
0.764375
0.779753
0.913035
0.970259
0.97266
0.97592
0.978354
0.986517
0.98918
0.983531
0.95756
0.943507
0.955637
0.939828
0.679601
0.221572
0.342284
0.620212
0.650773
0.659803
0.765234
0.98419
0.993802
0.993892
0.987849
0.5797
0.516143
0.516247
0.683069
0.959855
0.910468
0.911593
0.97831
0.988083
0.989939
0.990122
0.990238
0.981633
0.979316
0.809111
0.72453
0.671152
0.670867
0.723748
0.960536
0.975213
0.976183
0.98918
0.98918
0.98924
0.991303
0.994138
0.994498
0.994519
0.981283
0.919413
0.943638
0.82071
0.652115
0.658045
0.81706
0.99253
0.993892
0.993942
0.989408
0.582853
0.516247
0.516141
0.573172
0.927268
0.916122
0.971189
0.982903
0.970428
0.919269
0.97453
0.985036
0.981414
0.980277
0.77552
0.751335
0.805219
0.702207
0.643587
0.636284
0.790672
0.980585
0.988571
0.955929
0.95231
0.988865
0.994567
0.99467
0.99474
0.994766
0.994539
0.991778
0.70323
0.657046
0.756017
0.975125
0.993826
0.993942
0.99395
0.993951
0.657528
0.516456
0.516247
0.628503
0.925344
0.945241
0.980066
0.979532
0.863507
0.72254
0.797616
0.968786
0.980277
0.976325
0.486366
0.347788
0.790723
0.917339
0.780835
0.627214
0.621859
0.619656
0.704294
0.898883
0.98609
0.994568
0.99467
0.99474
0.994808
0.994843
0.994766
0.815047
0.609218
0.662154
0.949534
0.99366
0.99393
0.99395
0.993952
0.993952
0.917805
0.527353
0.516456
0.647486
0.913524
0.969796
0.980241
0.978675
0.823354
0.721714
0.721857
0.955526
0.972989
0.798991
0.315088
0.274006
0.476557
0.922344
0.952186
0.657632
0.619656
0.618987
0.618578
0.635097
0.937542
0.994462
0.994732
0.994808
0.994843
0.994854
0.841631
0.609218
0.606786
0.606002
0.921017
0.993714
0.99394
0.993952
0.993952
0.993952
0.993952
0.781614
0.517017
0.686426
0.92046
0.976621
0.98038
0.980321
0.939578
0.722728
0.721742
0.953026
0.681091
0.284878
0.273235
0.273851
0.369944
0.931423
0.991339
0.870196
0.619068
0.618578
0.618578
0.618578
0.676459
0.970796
0.994714
0.994839
0.994854
0.994856
0.734316
0.606786
0.606002
0.605706
0.612072
0.810914
0.957932
0.98279
0.993952
0.993952
0.993914
0.853493
0.524331
0.696495
0.911261
0.941554
0.951741
0.980383
0.979265
0.833294
0.840613
0.968532
0.275032
0.273235
0.273235
0.273235
0.511806
0.98455
0.991379
0.991339
0.986532
0.661933
0.618578
0.618619
0.618661
0.767466
0.991868
0.994824
0.994857
0.994861
0.920751
0.608679
0.605706
0.605706
0.605483
0.605845
0.622799
0.610486
0.660646
0.854229
0.993879
0.845351
0.536211
0.675076
0.943449
0.95938
0.945313
0.965825
0.978772
0.914017
0.946542
0.969406
0.274836
0.274035
0.273235
0.292065
0.84499
0.991418
0.991418
0.991377
0.991292
0.989574
0.730135
0.618661
0.619064
0.618576
0.888354
0.994633
0.99486
0.994872
0.994925
0.933708
0.617993
0.605671
0.605695
0.605295
0.604928
0.604865
0.60485
0.604956
0.886045
0.833417
0.547526
0.645796
0.954501
0.978426
0.97846
0.978487
0.978638
0.853161
0.879785
0.969406
0.275832
0.274836
0.283906
0.599496
0.991429
0.991867
0.991308
0.991267
0.991259
0.991081
0.97759
0.656311
0.618173
0.618063
0.734019
0.990313
0.994875
0.994937
0.995002
0.994968
0.929155
0.748672
0.604947
0.604874
0.604865
0.60483
0.604797
0.60485
0.746568
0.942198
0.619709
0.700825
0.962349
0.978293
0.978444
0.978487
0.963611
0.724408
0.68933
0.966117
0.340949
0.56271
0.879389
0.993093
0.992875
0.990972
0.944777
0.91986
0.968598
0.991026
0.934699
0.618482
0.618032
0.618026
0.618063
0.864844
0.994839
0.995004
0.99503
0.995065
0.99499
0.990996
0.915036
0.653291
0.604894
0.604803
0.604802
0.604803
0.891697
0.942198
0.793731
0.675344
0.802338
0.976767
0.978293
0.923228
0.547489
0.41032
0.54643
0.956371
0.940635
0.993096
0.993093
0.993121
0.99214
0.827763
0.523243
0.449141