/*--------------------------------*- C++ -*----------------------------------*\
  =========                 |
  \\      /  F ield         | OpenFOAM: The Open Source CFD Toolbox
   \\    /   O peration     | Website:  https://openfoam.org
    \\  /    A nd           | Version:  8
     \\/     M anipulation  |
\*---------------------------------------------------------------------------*/
FoamFile
{
    version     2.0;
    format      ascii;
    class       volScalarField;
    location    "5.65";
    object      p_rgh;
}
// * * * * * * * * * * * * * * * * * * * * * * * * * * * * * * * * * * * * * //

dimensions      [1 -1 -2 0 0 0 0];

internalField   nonuniform List<scalar> 
9150
(
1963.38
1962.37
1961.74
1961.27
1961.03
1961.03
1961.26
1961.73
1962.36
1963.37
1962.94
1962.43
1962
1961.68
1961.51
1961.49
1961.67
1962
1962.42
1962.94
1962.67
1962.39
1962.13
1961.91
1961.79
1961.79
1961.91
1962.13
1962.38
1962.66
1962.55
1962.37
1962.2
1962.05
1961.97
1961.97
1962.05
1962.2
1962.37
1962.55
1962.55
1962.37
1962.23
1962.1
1962.04
1962.04
1962.1
1962.23
1962.37
1962.54
1951.5
1950.77
1951.11
1951.47
1951.65
1951.64
1951.45
1951.06
1950.72
1951.45
1955.66
1954.95
1954.79
1954.74
1954.82
1954.8
1954.68
1954.72
1954.87
1955.6
1958.78
1958.02
1957.71
1957.36
1957.28
1957.28
1957.34
1957.7
1957.99
1958.75
1961.51
1960.36
1959.89
1959.28
1959.09
1959.09
1959.25
1959.87
1960.34
1961.5
1964.03
1962
1961.23
1960.55
1960.27
1960.28
1960.55
1961.23
1962
1964.03
1947.46
1945.75
1943.71
1942.6
1941.98
1941.79
1942.2
1943.16
1945.06
1946.04
1946.42
1946.07
1945
1944.57
1944.06
1943.96
1944.43
1944.72
1945.61
1945.79
1945.74
1945.89
1944.82
1945.18
1944.73
1944.56
1945.05
1944.59
1945.6
1945.41
1942.46
1945.31
1944.38
1945.77
1945.69
1945.63
1945.82
1944.22
1945.21
1942.32
1936.67
1946
1946.58
1947.85
1948.29
1948.25
1947.83
1946.47
1945.94
1936.58
1099.1
1099.23
1099.57
1099.64
1099.59
1099.64
1099.83
1099.98
1099.94
1100.03
1098.68
1099.53
1100.09
1099.89
1099.5
1099.44
1099.58
1099.78
1099.94
1100.13
1092.73
1094.93
1098.3
1098.37
1098.56
1098.88
1099.14
1099.23
1099.21
1099.42
1081.98
1083.33
1088.16
1092.49
1098.31
1098.64
1099.03
1097.84
1097.96
1098.01
1081.58
1082.79
1082.57
1082.81
1083.09
1084.34
1093.42
1099.76
1099.87
1100.07
1089.76
1087.43
1082.83
1082.92
1084.02
1089.93
1096.63
1100.84
1100.7
1100.63
1103.21
1101.21
1097.53
1098.25
1100.55
1101.46
1101.73
1102
1101.32
1100.98
1102.11
1103.28
1103.2
1102.62
1104.09
1103.86
1102.35
1101.76
1101.43
1101.62
1101.72
1102.71
1103.52
1103.96
1104.11
1104.04
1103.71
1102.94
1102.92
1102.53
1101.3
1102.28
1103.01
1103.38
1103.58
1103.56
1103.4
1103.33
1103.15
1102.89
1091.55
1092.22
1103.33
1103.61
1103.65
1103.82
1103.82
1103.8
1103.63
1096.58
1086.87
1087.29
1086.84
1098.82
1103.76
1104.23
1100.72
1099.54
1098.57
1099.3
1086.78
1087.85
1087.13
1087.23
1104.55
1106.84
1101.53
1100.2
1100.41
1105.64
1094.01
1086.57
1090.21
1103.05
1106.12
1105.52
1105.15
1105.23
1105.89
1106.53
1102.19
1103.17
1103.48
1095.94
1091.53
1094.7
1103.24
1104.06
1105.02
1106.14
1073.43
1093.09
1095.06
1095.91
1092.98
1075.25
1076.36
1077.08
1089.72
1104.97
1051.4
1057.54
1077.62
1077.92
1079.97
1083.44
1073.82
1068.63
1073.38
1081.71
1035.59
1044.08
1042.66
1004.08
1016.99
1065.91
1074.07
1061.15
1067.31
1085.47
1057.21
1022.4
982.118
983.693
990.589
1031.37
1056.6
1062.74
1077.11
1094.25
1060.31
1050.71
997.683
985.871
989.223
995.064
1046.73
1076.01
1084.13
1091.19
936.071
918.369
992.558
1028.86
1037.38
1046.75
1068.96
1079.22
1085.39
1090.79
754.974
754.962
812.143
1047.59
1077.7
1079.78
1081.5
1084.56
1088.59
1092.76
750.372
749.591
748.903
882.615
1090.92
1090.55
1090.15
1091.66
1094.19
1096
749.792
748.472
747.601
775.445
1050.95
1104.05
1103.16
1102.74
1102.64
1101.98
781.328
746.72
746.172
745.875
852.866
1113.55
1115.79
1114.34
1112.95
1110.55
1102.56
847.259
745.155
744.768
744.061
824.172
1082.37
1124.22
1119.96
1115.57
1121.51
1081.37
1028.84
909.964
758.622
762.124
764.98
886.101
1012.63
1075.23
1120.25
1116.24
1075.45
1064.8
1066.46
952.226
867.374
858.608
858.661
871.222
1134.12
1136.65
1117.47
1091.38
1126.74
1131.85
1128.2
1085.27
1058.81
1047.18
1142.26
1143.92
1127.94
1124.29
1094.36
1131.99
1140.35
1139.44
1137.78
1135.68
1142.16
1143.9
1141.19
1109.79
1081.86
1092.44
1135.17
1139.69
1138
1135.52
1137.57
1144.76
1146.05
1121.45
1078.86
1072.62
1070
1110.87
1141.43
1128.45
1063.12
1127.96
1149.17
1147.29
1123.54
1090.01
1074.09
1072.42
1152.83
1086.26
1063.64
1064.78
1130.99
1153.09
1154.4
1151.79
1104.2
1077.07
1047.34
972.406
1066.6
1069.48
1072.02
1112.54
1162.66
1163.36
1163.09
1144.51
1039.26
999.628
1104.88
1075.34
1079.19
1082.06
1089.33
1138.32
1134.14
1110.93
1127.07
1149.62
1167.8
1137.16
1119.41
1115.82
1100.1
1102.41
1103.71
1103.36
1102.29
1142.54
1181.99
1187.92
1193.81
1198.6
1192.98
1161.56
1114.31
1114.27
1113.56
1111.5
1192.71
1200.99
1208.14
1213.63
1217.06
1218.21
1207.33
1125.62
1123.46
1119.7
1207.13
1217.75
1212.09
1131.56
1130.29
1129.25
1129.35
1131.12
1201.51
1215.52
1122.4
1127.81
1133.74
1135.82
1135.46
1135.33
1149.47
1214.92
1209.45
1197
1185.3
1197.03
1205.95
1196.13
1175.45
1154.5
1163.66
1134.98
1075.19
1093.95
1138.74
1151.52
1164.9
1177.77
1188.4
1192.76
1148.09
1079.24
989.235
988.728
1083.29
1094.06
1106.09
1118.71
1130.29
1141.18
1150.89
1137.11
956.082
952.74
851.31
952.69
1034.74
1065.49
1082.02
1097.12
1112.47
1128.36
1086.12
951.975
637.157
641.388
758.578
895.587
994.804
1060.72
1084.37
1105.57
1126.03
1140.1
631.424
633.391
702.837
793.257
895.035
983.719
1012.11
1063.85
1101.63
1124.42
624.986
631.404
795.645
929.96
1022.29
1032.24
1037.74
1044.19
1084.7
1096.9
709.075
717.92
703.191
765.145
977.698
1074.93
1082.29
1088.01
1094.32
1101.44
1024.03
992.915
703.817
706.947
751.574
1065.43
1088.4
1091.89
1095.19
1101.18
1040.58
1045.17
913.755
724.91
744.765
1068.76
1101.31
1098.52
1090.99
1038.34
1058.34
1064.16
1068.9
758.201
971.236
1116.7
1112.9
1094.91
924.76
558.372
1075.08
1081.73
1077.5
976.701
1114.84
1133.12
1115.09
879.995
428.025
368.477
1088.09
1093.42
865.69
1086.8
1142.83
1144.39
1009.2
447.733
387.226
380.16
1111.26
958.35
770.463
1030.26
1142.09
1152.04
793.367
414.928
408.007
401.652
1132.01
919.995
759.636
1016.46
1148.41
1110.21
783.151
431.303
438.917
836.486
1149.51
994.335
734.175
1022.91
1167.51
1087.36
829.624
437.062
800.26
1199.97
1162.21
1040.42
683.481
1030.86
1186.77
1093.68
819.397
363.321
1089.05
1210.61
1157.08
979.813
586.12
1036.53
1181.63
1085.97
761.833
340.298
1066.27
1220.3
933.836
380.294
513.056
1021.73
1000.94
1053.11
664.02
239.31
622.46
1210.15
649.062
247.094
598.686
1008.14
933.107
1035.94
542.659
185.238
418.65
1162.17
429.119
228.197
634.802
1014.69
943.469
1041.47
404.8
146.911
603.077
1165.28
95.2639
393.796
733.162
507.028
999.65
1054.91
253.385
107.483
113.939
252.153
226.89
399.203
378.886
242.804
1028.46
1078.79
121.942
98.8713
111.59
132.05
222.093
389.519
128.529
132.614
1062.56
1101.81
80.6146
96.1693
72.7118
32.7428
116.177
247.226
181.949
108.452
1086.04
1107.92
81.2315
14.3005
0.367516
0.320409
45.97
108.294
232.398
101.325
1109.53
1124.33
88.4443
0.329818
0.286187
0.269491
92.3099
147.814
211.158
112.471
1126.32
1160.31
98.7369
0.225026
0.218664
0.260635
102.508
103.314
62.8168
113.197
1160.8
1176.77
103.807
0.20502
0.212528
0.276024
100.188
62.9972
61.914
119.184
1205.2
1181.67
106.46
0.239538
0.222947
0.20428
2.19247
29.0393
66.4123
124.199
1225.79
1217.21
120.378
0.237626
0.335462
0.212709
0.440151
0.554468
0.144279
133.848
1254.04
1244.75
132.758
0.233186
0.385882
0.21562
0.183035
0.0612945
0.0546447
149.592
1276.77
1280.57
150.293
0.21431
0.371028
0.295931
0.0863429
0.0722606
0.0724073
166.68
1302.02
1314.6
169.095
0.201186
0.357461
0.490685
0.112891
0.117894
0.120026
186.513
1331.87
1342.56
188.342
0.198171
0.376198
0.552515
0.137194
0.157598
0.151067
209.779
1364.84
1369.41
210.336
0.199145
0.403468
0.55595
0.133487
0.154614
0.132178
233.643
1401.68
1387.32
227.782
0.211062
0.467863
0.56049
0.158948
0.628522
0.0756977
258.653
1429.73
1419.28
253.425
0.19476
0.46866
0.54466
0.360917
4.95788
0.0205858
281.02
1449.7
1455.44
281.071
0.16682
0.358898
0.528343
0.00394412
5.70881
0.0507935
309.897
1474.56
1491.38
316.106
0.134989
0.277043
0.511952
0.0635518
5.97367
0.163578
339.075
1500.88
1525.43
354.06
0.111975
0.188025
0.426924
0.0845102
6.16694
0.269215
389.946
1548.73
1541.56
385.859
0.129535
0.25025
0.507523
2.77903
6.21552
0.30419
437.61
1580.47
1569.72
432.323
0.132341
0.167587
0.462301
0.0893486
5.07076
0.292617
496.926
1611.26
1599.37
488.284
0.12545
0.313345
0.402128
0.115084
2.33134
0.316767
559.929
1634.55
1635.41
559.671
0.105708
0.498057
0.598611
0.132981
3.08409
0.326344
622.854
1654.58
1668.58
637.106
0.072435
0.460519
0.586475
0.137641
3.21992
0.311885
717.941
1688.07
1690.55
720.788
0.0584889
0.0654758
0.224402
0.332973
3.24087
0.286719
813.961
1717
1708.52
810.973
0.0590191
0.0642575
0.0901366
0.519788
3.20375
0.275525
934.463
1739.07
1731.51
929.686
0.0514404
0.083025
0.215194
0.210045
0.262286
0.169186
1046.84
1755.9
1758.81
1052.15
0.0197791
0.0267372
0.105499
0.080541
0.05026
0.0469327
1202.19
1776.89
1777.88
1206.9
0.0129498
0.0175304
0.0196947
0.396446
0.0342226
0.0389722
1351.08
1800.5
1794.52
1349.22
0.0322105
0.0184773
0.0201234
0.241399
0.0254816
49.4111
1494.43
1818.93
1814.28
1491.97
61.0329
0.0171485
0.0178895
0.0771589
0.0152986
181.906
1611.7
1835.03
1836.79
1621.91
213.336
0.0132173
0.0145807
0.00565344
0.00450319
319.325
1695.71
1853.71
1854.53
1775.27
464.059
0.0118919
0.01192
0.00484812
0.00516417
696.882
1844.45
1873.65
1873.43
1835.04
753.364
0.00144484
0.00793163
0.00628182
0.012958
1101.28
1890.44
1892.57
1892.75
1892.06
1365.54
0.0640986
0.00841296
0.0126409
88.2316
1618.94
1910.15
1911.32
1911.44
1910.38
1716.11
255.149
0.00527511
0.00339621
1005.67
1923.12
1926.75
1926.83
1926.75
1926.65
1926.4
1193
0.00647341
559.439
1858.71
1939.27
1937.27
1936.36
1936.49
1937.39
1939.25
1902.06
703.899
1100.09
1099.9
1099.84
1099.78
1099.68
1099.53
1099.35
1099.1
1099.03
1098.79
1098.58
1098.62
1098.53
1097.57
1094.54
1092.41
1090.52
1088.69
1087.19
1085.95
1084.9
1083.95
1083.25
1082.74
1082.28
1081.77
1081.55
1081.85
1082.04
1082.43
1083.24
1084.4
1085.29
1088
1090.21
1093.39
1095.43
1096.42
1097.09
1097.42
1100.1
1100
1099.9
1099.77
1099.73
1099.62
1099.43
1099.01
1098.62
1098.05
1097.37
1096.26
1094.4
1094.39
1091.77
1090.49
1089.24
1087.72
1086.19
1084.93
1083.78
1083
1082.46
1082.16
1081.89
1081.51
1081.25
1080.79
1081.17
1080.89
1082.24
1083.18
1084.58
1086.57
1089.09
1091.79
1094.17
1095.6
1096.42
1097.19
1099.76
1100.09
1100.24
1100.24
1100.17
1099.99
1099.65
1099.25
1098.61
1098.12
1097.08
1093.36
1090.64
1088.04
1088.81
1088.85
1087.78
1087.07
1085
1082.9
1082.21
1082.04
1081.54
1081.18
1081.1
1080.98
1080.61
1080.14
1079.74
1079.48
1079.47
1079.96
1080.96
1082.51
1084.48
1087.12
1090.95
1094.06
1096.36
1097.69
1099.77
1100.52
1100.9
1101.01
1100.99
1100.61
1100.37
1099.78
1099.27
1098.77
1096.43
1088.35
1087.11
1084.58
1081.17
1080.62
1082.75
1085.5
1080.59
1077.08
1079.65
1079.06
1077.89
1078.25
1079.85
1080.54
1080.04
1078.99
1077.65
1076.29
1075.1
1074.45
1074.51
1074.95
1074.92
1077.77
1081.4
1086.86
1090.69
1092.43
1100.5
1101.02
1101.43
1101.67
1101.51
1101.05
1100.74
1100.29
1099.66
1099.65
1098.53
1090.08
1085.87
1084.23
1081.93
1079.9
1077.73
1084.06
1076.69
1072.88
1068.98
1068.39
1068.51
1070.58
1081.26
1081.24
1079.95
1077.66
1075.21
1072.34
1069.66
1067.38
1065.52
1062.03
1063.4
1066.27
1070.58
1075.26
1079.88
1083.5
1100.78
1101.11
1101.37
1101.4
1101.19
1101.19
1101.03
1101.26
1100.43
1099.81
1099.55
1098.39
1092.73
1089.4
1088.17
1087.7
1087.28
1090.24
1091.15
1082.63
1069.03
1067.52
1066.25
1064.73
1064.32
1067.24
1080.29
1075.41
1070.85
1068.28
1063.55
1059.29
1052.27
1049.42
1054.08
1059.92
1063.91
1067.77
1070.88
1074.46
1100.84
1100.86
1101.19
1101.96
1101.27
1101.38
1101.35
1101.83
1101.28
1100.42
1099.75
1099.02
1098.19
1097.14
1096.21
1094.92
1093.73
1092.73
1091.58
1090.14
1084.6
1066.5
1065.1
1063.75
1062.28
1059.91
1056.58
1065.66
1068.73
1058.66
1049.21
1042.96
1038.58
1036.09
1044.49
1052.91
1058.15
1064.08
1068.47
1072.3
1101.59
1101.8
1102.34
1102.64
1102.7
1102.32
1102.8
1102.74
1102.25
1101.58
1100.75
1099.89
1098.92
1097.73
1096.62
1095.6
1094.5
1093.32
1092.03
1090.99
1090.35
1089.66
1070.09
1062.21
1060.08
1057.2
1053.69
1049.55
1047.12
1052.03
1056.36
1042.19
1039.59
1038.53
1040.28
1056.74
1063.31
1069.79
1076.16
1079.13
1102.2
1102.48
1103.05
1103.68
1104.07
1104.3
1104.26
1104.06
1103.71
1103.24
1102.61
1101.84
1100.86
1099.66
1098.43
1097.31
1095.97
1093.92
1091.54
1089.41
1088.97
1089
1088
1086.54
1081.71
1055.16
1052.11
1049.15
1046.13
1043.78
1064.91
1066.6
1048.08
1047.72
1051.04
1068.43
1075.65
1082.87
1089.41
1090.99
1099.54
1095.26
1098.99
1105.01
1105.31
1105.44
1105.36
1105.25
1105.16
1105.02
1104.95
1104.64
1103.6
1102.28
1101
1099.55
1097.63
1091.26
1088.21
1086.02
1084.74
1087.91
1089.38
1089.99
1089.87
1086.82
1084.06
1066.87
1045.4
1053.82
1073.67
1072.41
1072.02
1063.98
1065
1079.88
1090.94
1099.96
1107.53
1109.21
1094.67
1095.5
1095.84
1095.94
1098.79
1101.63
1102.03
1102.3
1102.45
1102.53
1102.43
1101.82
1100.57
1098.73
1100.83
1099.18
1096.75
1093.92
1091.01
1089.25
1087.35
1081.69
1072.92
1074.02
1081.74
1084.56
1085.67
1082.08
1071.85
1074.06
1076.81
1075.82
1077.28
1081.78
1083.06
1091.97
1104.35
1115.46
1124.78
1127.77
1102.99
1103.21
1096.14
1096.54
1096.83
1096.85
1099.6
1106.58
1106.61
1106.29
1105.39
1104.86
1103.18
1100.28
1095.27
1092.61
1084.1
1063.81
1069.31
1075.94
1070.08
1013.44
967.178
964.277
963.382
997.306
1037.66
1005.52
980.67
977.684
976.455
978.137
1025.42
1087.75
1095.45
1102.83
1111.08
1123.09
1132.64
1133.05
1106.94
1107.75
1105.59
1096.96
1098.89
1108.64
1109.92
1109.91
1107.97
1106.25
1110.21
1107.32
1100.4
1092.78
1082.26
1050.32
1002.95
951.905
957.164
956.542
958.476
961.319
968.62
965.815
961.586
963.295
993.741
1021.05
980.832
973.238
971.713
972.567
1067.18
1091.64
1093.98
1090.3
1053.71
1088.04
1122.16
1120.68
1107.3
1108.15
1108.85
1109.44
1109.91
1109.91
1109.67
1109.55
1099.44
1101.35
1118.96
1099.29
1093.89
1093.67
1023.78
960.405
958.46
956.698
1071.62
1108.69
1105.84
1101.18
1099.48
1096.83
1086.17
1082.52
1088.39
1093.59
1089.4
1085.12
1050.78
974.044
974.666
1011.09
1022.53
1011.68
1020.2
1087.67
1108.67
1111.56
1107.31
1108.54
1109.35
1108.78
1104.16
1106.12
1095.19
1063.03
1066.99
1099.61
1114.31
1113.36
1110.08
1101.24
1028.91
1016.03
1112.35
1112.52
1108.65
1109.61
1107.48
1100.4
1081.16
1064.32
1053.53
1049.33
1048.15
1054.88
1069.61
996.91
967.135
969.816
972.795
975.142
978.514
1002.58
1053.81
1093.61
1106.92
1108.46
1106.98
1108.73
1109.79
1098.61
1061.04
1055.97
1056.79
1058.08
1087.49
1114.95
1115.17
1092.46
1015.34
1017.04
1016.55
1092.88
1117.21
1115.31
1112.26
1107.4
1076.55
1021.23
1014.56
1012.71
1011.81
1011.14
1010.27
1008.11
1007.12
1017.37
1058.62
1038.29
1021.14
1046.05
1057.72
1084.69
1095.99
1093.88
1107.78
1109.35
1105.4
1109.08
1111.27
1109.35
1057.1
1053.7
1054.54
1062.94
1117.01
1118.01
1107.34
1016.46
1012.54
1025.54
1120.33
1118.74
1116.45
1114.2
1112.29
1093.78
1020.49
1016.95
1014.43
1014.5
1029.05
1015.85
1010.95
1010.12
1027.18
1104.39
1106.36
1106.8
1107.05
1108.4
1110.07
1111.02
1099.41
1095.93
1097.19
1102.33
1103.76
1107.94
1111.29
1111.29
1062.42
1050.7
1052.59
1112.85
1116.58
1103.36
1006.26
1000
1014.7
1116.16
1115.62
1114.62
1113.41
1112.3
1111.18
1109.79
1095.73
1035.78
1032.66
1107.13
1113.11
1097.22
1021.22
1013.88
1017.6
1095.1
1111.73
1112.24
1112.66
1113.93
1115.39
1116.35
1101.44
1099.38
1099.81
1099.75
1101.32
1106.08
1109.19
1108.54
1058.25
1048.91
1097.16
1109.2
1083.45
983.926
985.309
986.512
1077.78
1110.36
1109.92
1109.53
1109.1
1108.59
1108.32
1108.44
1109
1109.73
1110.92
1112.32
1112.32
1112.57
1113.31
1112.9
1073.14
1046.03
1046.85
1062.8
1115.57
1117.63
1119.33
1119.09
1118.31
1113.34
1113.84
1118.89
1097.41
1102.56
1106.1
1095.35
1065.42
1093.71
1100.01
1061.16
974.439
975.066
974.733
990.056
1103.65
1102.19
1102.12
1102.74
1103.32
1104.38
1102.51
1099.99
1105.97
1109.04
1110.78
1112.38
1112.73
1112.33
1112.75
1113.97
1115.81
1104.35
1051.51
1052.29
1051.95
1094.59
1101.73
1097.67
1104
1118.25
1117.81
1117.48
1095.73
1100.4
1103.16
1101.09
1106.48
1108.66
1094.78
985.301
970.506
969.472
969.178
1079.37
1093.42
1082.35
1063.08
1092.66
1098.38
1100.84
1091.17
1088.15
1092.78
1107.92
1109.54
1110.93
1110.74
1110.98
1111.94
1112.35
1114.02
1116.59
1119.35
1119.32
1114.8
1063.98
1054.58
1052.8
1050.63
1058.63
1047
1039.01
1095.85
1098.49
1102.53
1105.16
1106.24
1106.91
1105.65
1031.98
970.243
1025.07
1090.57
1096.24
1091.09
1048.7
1026.07
1029.92
1091.33
1098.59
1089.21
1085.2
1091.55
1104.94
1106.14
1107.1
1104.97
1090.99
1095.74
1107.7
1109.21
1110.98
1113.01
1115.93
1117.67
1119
1118.88
1119.46
1114
1022.75
1003.62
1004.63
1097.38
1099.3
1100.63
1102.05
1103.38
1104.66
1095.97
1080.97
1092.38
1101.47
1100.03
1096.91
1051.16
1023.25
1022.17
1020.92
1037.67
1099.06
1094.53
1084.94
1099.81
1100.5
1101.22
1101.11
1094.22
1046.98
1010.78
1030.64
1061.13
1020.4
1015.24
1050.81
1086.18
1114.6
1119.79
1121.38
1121.08
1103.82
1014.55
1005.95
1101.25
1100.05
1098.49
1097.84
1099.09
1101.51
1099.24
1101.98
1104.68
1104.1
1091.63
1029.51
1022.25
1021.32
1020.03
1029.39
1079.2
1054.8
1042.22
1095.39
1098.01
1054.1
1051.3
1099.14
1079.17
956.046
942.31
946.611
949.045
951.732
953.768
955.369
956.471
1000.89
1042.8
1051.09
1070.25
1090.89
1097.09
1087.25
1105.82
1099.52
1091.85
1086.68
1087.6
1094.3
1099
1100.4
1101.44
1100.92
1049.32
1022.64
1020.55
1065.78
1084.62
1082.83
1076.22
973.665
964.477
1093.88
1097.25
1027.42
1007.61
1080.56
1097.66
992.66
947.074
951.467
953.731
954.766
955.375
955.683
955.656
955.556
955.108
954.754
955.05
955.676
1025.84
1044.7
1110.74
1103.02
1069.16
899.437
893.427
1064.12
1091.43
1096.74
1099.3
1099.4
1056.93
1036.99
1086.02
1085.61
1083.92
1023.66
913.284
913.887
912.843
982.86
1089.86
1064.31
997.908
1082.59
1104.97
1112.64
1050.17
962.397
952.858
954.587
966.866
982.901
985.28
965.613
953.375
952.668
951.66
950.937
950.293
949.987
1092.66
1024.86
887.702
859.033
856.608
993.29
1100.86
1102.55
1101.71
1097.01
1085.13
1083.92
1081.61
1007.27
910.262
910.011
909.589
909.081
908.427
918.315
1074.57
1080.48
978.631
1025.28
1100.43
1106.36
1113.39
1119.92
1110.38
1099.72
1119.83
1133.81
1135.86
1122.78
1048.47
954.816
945.787
946.29
946.527
946.533
907.577
924.526
867.54
865.141
874.578
1090.35
1108.88
1107.68
1106.07
1104.46
1102.73
1047.97
906.815
907.221
907.514
907.597
906.577
905.705
904.76
955.841
1094.71
1082.1
965.765
962.996
995.834
1095.71
1106.87
1112.4
1117.43
1122.07
1125.85
1128.9
1131.53
1133.62
1134.96
1088.15
940.45
942.055
943.066
943.519
1047.08
1063.92
989.568
937.228
1044.88
1114.91
1112.59
1109.31
1106.39
1102.95
1034.23
1005.31
1012.53
1097.09
1104.1
990.529
902.183
901.518
925.903
1081.11
1096.27
1082.31
978.331
961.451
960.522
962.17
1078.96
1108.42
1113.14
1116.81
1120.55
1124.21
1127.45
1130.2
1132.95
1118.01
943.339
940.088
941.62
942.207
1132.99
1126.91
1120.39
1118.88
1122.61
1117.84
1112.98
1108.46
1095.66
1092.53
1041.12
1022.3
1094.71
1097.17
1099.02
1099.08
1086.2
1089.71
1101.04
1100.94
1094.86
1080.38
1035.5
958.292
958.777
959.118
1060.52
1106.81
1110
1112.89
1116.14
1120
1123.81
1127.33
1131.15
1135.11
1051.25
938.831
940.592
943.443
1131.89
1113.94
1050.03
1045.52
1123
1119.14
1033.27
991.489
980.651
978.484
1001.99
1021.26
994.149
996.098
1089.73
1096.35
1098.36
1098.5
1098.94
1095.93
1088.18
1098.36
1100.94
1010.99
957.184
1013.64
1102.22
1103.49
1105.08
1107.27
1110.95
1115.43
1119.85
1123.98
1127.91
1131.59
1123.8
1069.67
1064.62
1108.28
1055.09
972.161
956.458
954.871
977.078
1020.69
1065.36
1018.55
963
928.399
923.636
920.574
919.213
918.486
923.525
1078.78
1097.65
1098.45
1088.03
1081.14
1084.6
1097.82
1097.79
1097.77
1090.15
1093.04
1097.28
1097.4
1097.23
1096.45
1099.24
1106.14
1112.06
1118.21
1122.41
1125.75
1130.37
1134.83
1138.16
1140.71
962.14
960.049
957.064
953.245
979.436
1067.28
1112.34
1105.79
1083.18
1065.91
1062.44
1039.83
942.264
915.438
917.258
966.275
1088.54
1092.55
1094.57
1084.36
1083.8
1093.54
1093.32
1093.47
1093.89
1093.95
1093.46
1092.37
1062.51
952.195
896.687
1060.81
1101.72
1111.12
1099.09
1117.76
1123.11
1127.87
1131.55
1133.84
970.603
966.16
959.883
988.101
1105.77
1118.11
1110.35
1103.11
1098.12
1094.25
1091.71
1091
1088.1
1056.5
1061.86
1059.54
956.905
1026.1
1089.19
1089.78
1087.32
1086.43
1087.57
1088.91
1091.63
1093.91
1093.76
1054.56
877.518
713.737
690.092
789.049
1056.2
1094.94
1002.63
1047.75
1084.26
1116.72
1126.98
1128.58
980.745
970.442
963.868
954.109
1116.76
1115.48
1103.21
1052.44
1050.61
1077.2
1069.71
1071.48
1074.9
1078.48
1081.3
1034.75
853.857
852.774
983.066
1086.82
1088.13
1043.74
1050.61
1069.9
1088.88
1096.53
1074.59
859.446
686.367
685.363
683.591
682.715
844.995
998.646
990.157
982.906
995.458
1105.69
1128.08
1129.45
1153.33
1085.7
1000.79
961.351
948.112
1024.65
1095.87
1076.67
1022.43
762.736
739.526
876.02
1010.22
1059.71
1072.83
1073.84
939.805
847.807
845.123
870.72
926.057
841.89
836.076
889.568
1027.51
1109.42
1016.56
692.729
684.633
685.904
686.863
687.779
766.679
963.175
971.288
976.578
986.959
1106.89
1132.03
1134.11
1175.86
1174.16
1164.57
1125.71
1013.66
999.749
986.026
997.83
1049.87
1046.39
952.355
614.632
616.144
775.304
1050.72
1081.39
1089.53
902.497
844.36
844.259
843.976
844.696
845.093
845.092
909.702
1124.32
1016.75
686.234
684.936
685.916
686.741
687.616
840.113
990.309
980.166
989.242
1071.56
1130.27
1138.43
1139.47
1118.1
1184.71
1177.35
1165.52
1150.08
1125.95
1036.31
1017.89
1037.65
1083.69
1081.86
1074.58
684.441
605.446
658.333
1052.01
1096.93
1102.21
936.015
846.747
846.677
848.738
850.086
851.238
960.753
1133.72
1129.26
797.326
685.048
686.221
686.982
687.426
1008.98
1077.98
994.672
1056.38
1142.17
1142.47
1144.04
1144.79
1147.22
1194.05
1182.28
1167.48
1153.66
1139.73
1126.97
1104.29
1094.32
1102.14
1099.95
1098.68
1084.91
659.718
536.76
589.292
1008.53
1111.77
1118.79
1063.02
913.055
851.426
853.924
998.149
1133.05
1138.35
1142.57
1020.46
695.027
686.963
687.192
844.835
1098.78
1086.86
1032.36
1138.55
1149.14
1149.26
1101.92
1095.49
1205.78
1190.51
1171.79
1153.99
1138.5
1128.1
1112.15
1098.56
1110.67
1112.32
1111.48
1110.49
1108.63
970.098
520.98
475.066
498.832
893.188
1117
1122.04
1125.39
1116.39
1122.68
1135.93
1138.97
1142.74
1146.32
1137.24
947.791
719.623
807.893
1105.78
1106.72
1060.92
1123.32
1155.97
1156.48
1144.8
1069.2
1069.36
1185.63
1166.47
1143.1
1114.41
1017.83
711.481
546.209
750.69
1103.31
1118.99
1120.08
1120.62
1119.69
1041.52
544.329
456.798
452.393
449.732
727.247
1111.69
1131.77
1135.95
1139.86
1143.42
1146.3
1149.94
1153.77
1156.83
1155.82
1128.32
1160.42
1148.86
1110.63
1083.62
1163.25
1163.09
1162.99
1094.11
1073.69
1073.5
1164.21
1149.87
1128.88
751.69
532.84
525.815
529.917
532.098
761.203
1118.95
1131.58
1132.66
1131
916.239
473.796
448.071
447.776
447.091
446.574
675.494
1110.08
1145.13
1150.09
1154.15
1157.18
1160.37
1163.81
1165.5
1167.92
1169.28
1169.89
1110.08
1105.44
1168.43
1169.12
1168.98
1168.4
1080.88
1078.85
1077.16
1077.69
1149.72
1140.51
1002.89
544.472
528.277
531.437
534.401
536.36
660.79
1056.48
1077.14
843.099
481.751
445.992
445.264
445.648
446.005
446.282
446.65
752.133
1141.28
1162.26
1164.72
1170.02
1172.57
1174.36
1165.73
1170.85
1173.91
1172.37
992.622
1128.84
1172.27
1137.98
1171.72
1160.43
1114.59
1161.63
1112.87
950.428
1044.93
1156.27
1157.8
1062.81
834.442
616.236
537.694
540.757
748.224
850.56
586.924
453.192
446.599
444.379
444.041
444.626
445.374
445.972
446.303
482.588
907.141
1120.34
1166.61
1183
1183.95
1183.01
1171.78
1128.99
1123.45
1091.91
987.416
1160.38
1150.99
1106.28
1123.54
1137.91
1175.72
1175.84
1176.04
960.831
967.766
1079.85
1164.68
1158.74
1148.59
1103.3
1051.44
1053.73
1090.42
1054.1
932.218
770.207
626.698
618.577
639.414
542.915
443.771
445.003
445.516
513.683
873.945
976.473
1086.9
1190.27
1189.86
1187.87
1184.65
916.939
807.315
833.755
999.591
1162.12
1107.76
1108.36
1110.91
1162.74
1180.34
1180.56
1181.63
1051.17
985.461
1027.18
992.907
1000.65
1111.94
1159.4
1157.99
1158.47
1159.44
1166.43
1169.14
1166.4
1146.69
1139.87
1157.16
1146.78
912.401
513.723
614.764
856.072
885.891
897.776
992.53
1186.71
1194.06
1192.89
1185.98
822.511
768.129
764.066
907.877
1154.64
1112.47
1113.55
1171.83
1181.14
1183.96
1185.85
1187.48
1154.21
1181.67
1037.05
952.595
900.305
893.227
930.543
1141.78
1152.77
1153.56
1166.18
1166.85
1168.64
1173.9
1180.34
1184.85
1187.87
1178.04
1123.66
1150.73
1036.52
885.994
893.818
1036.16
1196.89
1198.59
1198.11
1193.03
823.597
762.371
761.224
808.57
1130.7
1120.21
1169.32
1178.76
1165.72
1120.3
1171.13
1182.99
1123.54
1155.88
985.48
956.1
999.111
895.054
840.809
829.01
969.27
1149.91
1159.21
1130.23
1130.69
1167.27
1176.59
1180.5
1184
1186.37
1188.03
1188.17
918.494
882.534
973.089
1181.4
1200.87
1202.1
1202.43
1202.56
890.771
760.318
760.508
858.689
1134.36
1150.51
1181.39
1178.87
1070.8
947.721
1012.18
1173.67
1115.11
1131.25
674.499
551.586
952.578
1081.36
942.045
799.193
795.678
796.869
880.525
1067.58
1155.14
1168.08
1172.53
1176.37
1179.32
1181.22
1182.28
1011.95
827.824
877.328
1155.51
1201
1202.8
1204.29
1205.32
1206.38
1135.29
766.419
758.111
874.87
1127.27
1179.62
1187.86
1184.57
1037.21
948.152
947.929
1175.44
1105.55
937.4
469.952
438.919
626.549
1068.32
1103.56
808.433
778.246
783.144
786.777
806.51
1104.08
1164.97
1170.16
1174.52
1178.18
1180.92
1035.23
813.935
815.131
816.006
1126.69
1200.21
1202.23
1203.88
1205.32
1207.38
1209.97
1004.22
760.781
914.622
1141.01
1194
1195.65
1195.23
1158.19
959.039
960.131
1185.12
793.758
402.672
394.922
402.615
506.136
1066.34
1135.02
1011.9
769.867
773.516
778.01
782.046
843.406
1140.4
1169.98
1175.26
1179.88
1183.87
930.863
809.065
810.686
811.986
818.712
1017.09
1166.25
1191.83
1203.5
1205.98
1211.71
1073.41
767.004
926.852
1139.1
1168.52
1177.32
1207.77
1210.44
1074.37
1084.09
1212.76
370.027
369.539
373.251
382.695
634.548
1118.76
1132.26
1136.29
1135.31
810.797
770.975
775.383
779.953
935.127
1168.23
1177.74
1183.26
1188.19
1118.32
809.744
809.594
811.421
812.348
813.305
831.788
821.365
871.993
1066.7
1222.3
1068.51
778.149
909.911
1181.29
1198.15
1184.81
1207.39
1223.63
1163.44
1198.28
1223.41
365.334
363.91
368.844
397.501
974.594
1133.08
1135.86
1138.87
1141.14
1142.5
879.118
769.746
776.387
781.427
1064.16
1180.95
1187.72
1193.6
1199.28
1142.45
823.056
813.14
814.834
815.909
817.249
818.885
819.801
820.249
1121.02
1066.3
790.965
885.763
1204.11
1230.01
1230.53
1232.24
1235.13
1112.31
1139.45
1232.55
375.971
379.643
393.938
725.891
1140.06
1142.29
1141.49
1141.53
1142.26
1142.13
1132.16
801.189
771.949
779.451
906.692
1182.17
1193.45
1199.24
1204.68
1210.44
1146.97
962.082
815.51
818.468
821.469
824.321
827.436
831.152
981.18
1199.83
862.207
947.327
1222.22
1240.88
1241.16
1240.85
1224.68
978.719
950.734
1237.36
460.146
695.151
1033.38
1154.67
1150.46
1143.84
1091.14
1063.08
1117.57
1144.54
1086.59
760.898
772.2
781.549
788.928
1056.42
1199.19
1203.97
1209.2
1214.9
1220.66
1222.42
1146.14
871.252
824.406
828.733
832.788
836.738
1145.8
1209.1
1045.76
931.229
1061.12
1253.51
1254.1
1191.36
788.394
650.65
790.851
1237.66
1121.86
1174.81
1171.41
1165.33
1156.95
970.948
640.714
565.063
792.401
1132.73
1092.01
791.867
780.778
788.97
794.167
817.09
1147.12
1208.64
1212.68
1216.77
1222.01
1228.35
1234.62
1215.7
994.802
833.464
837.059
1130.49
1205.69
1193.62
930.674
935.209
1068.89
1253.87
899.83
644.202
644.698
648.763
766.42
1240.36
1195.37
1190.64
1187.09
1182.33
1157.4
693.315
482.328
481.92
564.462
1094.82
1111.97
1046.5
870.342
931.67
933.557
999.028
1181.69
1210.77
1213.46
1217.61
1222.99
1228.68
1234.81
1241.43
1239.18
1092.08
1127.45
1203.38
1176.57
981.494
977.553
1184.65
817.502
643.999
643.29
643.418
649.969
656.945
1166.21
1286.29
1207.23
1198.6
1199.55
1196.52
1169.77
717.987
491.934
492.431
492.241
532.863
1002.54
1132.19
1185.16
1206.92
1209.68
1208.26
1206.14
1204.21
1206.45
1211.82
1218.8
1226.27
1234.25
1242.89
1251.47
1260.11
1223.63
1135.6
1075.8
1080.45
1236.04
1271.4
786.556
644.652
773.168
1007.36
1095.95
1283.07
1286.65
1287.51
1216.21
1204.19
1202.18
1211.35
1208.85
1114.5
563.221
497.157
497.692
498.55
499.094
641.474
1052.2
1203.29
1186.09
1059.78
744.942
776.667
972.451
1148.41
1205.05
1221.98
1230.71
1241.21
1252.33
1203.63
1087.06
1092.85
1119.48
1271.08
1277.49
1278.84
1176.44
1127.8
1287.77
1290.84
1291.72
1286.24
1248.09
1248.57
1224.75
1215.61
1220.8
1222.2
1221.96
1222.49
1116.65
566.477
499.203
498.984
498.569
498.313
920.816
1221.62
900.916
506.679
507.355
509.069
545.456
946.77
1219.78
1225.17
1232.64
1241.68
1200.24
1066.96
1073.8
1086.43
1259.25
1264.6
1268.69
1278.43
1285.82
1276.51
1259.28
1286.81
1287.41
1147.58
987.753
988.842
1228.48
1226.83
1227.46
1228.9
1230.73
1232.73
1234.37
1172.59
617.205
499.731
499.386
498.231
829.256
1232.49
781.528
510.969
510.632
511.236
513.048
864.532
1235.1
1239.49
1243.76
1248.25
1163.71
1064.64
1067.76
1176.42
1230.87
1238.77
1264.63
1278.18
1281.43
1274.92
1246.34
1246.52
1268.24
1091.04
976.622
980.035
1215.48
1223.23
1227.04
1231.99
1235.52
1238.98
1241.66
1243.66
1234.76
758.347
501.475
506.752
529.207
965.51
997.527
841.13
514.675
515.925
517.518
712.456
1253.6
1258.66
1259.38
1257.36
1179.96
1138.79
1211.99
1260.91
1246.97
1253.95
1268.66
1273.73
1278.08
1282.08
1284.62
1249.79
1258.98
1290.48
1257.05
1198.64
647.974
766.832
842.837
1024.61
1129.64
1232.74
1246.01
1249.59
1252.36
1254.42
1165.66
689.181
551.335
606.551
898.755
967.251
646.334
522.342
524.474
526.99
929.976
1280.04
1224.37
865.617
828.785
1249.58
1259.86
1263.62
1263.48
1264.11
1267.48
1272.39
1278.91
1285.23
1290.62
1295.07
1295.74
1302.82
1305.87
1310.5
57.8239
20.3062
64.966
330.701
583.269
903.595
1225.28
1250.12
1233.84
1252.5
1260.87
1263.07
1266.14
1244.01
1034.52
972.965
893.59
551.14
533.006
534.801
536.394
692.106
706.616
579.558