/*--------------------------------*- C++ -*----------------------------------*\
  =========                 |
  \\      /  F ield         | OpenFOAM: The Open Source CFD Toolbox
   \\    /   O peration     | Website:  https://openfoam.org
    \\  /    A nd           | Version:  8
     \\/     M anipulation  |
\*---------------------------------------------------------------------------*/
FoamFile
{
    version     2.0;
    format      ascii;
    class       volScalarField;
    location    "1.7";
    object      alpha.water;
}
// * * * * * * * * * * * * * * * * * * * * * * * * * * * * * * * * * * * * * //

dimensions      [0 0 0 0 0 0 0];

internalField   nonuniform List<scalar> 
9150
(
1
1
1
1
1
1
1
1
1
1
1
1
1
1
1
1
1
1
1
1
1
1
1
1
1
1
1
1
1
1
1
1
1
1
1
1
1
1
1
1
1
1
1
1
1
1
1
1
1
1
1
1
0.999999
1
1
1
1
1
1
1
1
1
1
1
1
1
1
1
1
1
1
1
1
1
1
1
1
1
1
1
1
1
1
1
1
1
1
1
1
1
1
1
1
1
1
1
1
1
1
1
1
1
1
1
1
0.999999
0.999999
0.999999
1
1
1
1
0.999999
1
1
0.999999
1
1
1
1
1
1
0.999999
1
1
0.999999
1
1
1
1
1
0.999999
0.999999
0.999999
0.999999
1
1
1
1
1
1
0.999999
0.999999
0.999999
1
1
1
1
1
1
1
1
1
1
1
1
1
1
1
1
1
1
1
1
1
1
1
1
1
1
1
1
1
1
1
1
1
1
1
1
1
1
1
1
1
1
1
1
1
1
1
1
1
1
1
1
1
1
1
1
1
1
1
1
1
1
1
1
1
1
0.999999
1
1
1
1
1
1
1
1
0.999999
0.999999
0.999999
1
1
1
1
1
1
1
0.999989
0.999999
0.999999
1
1
1
1
1
1
0.999994
0.999984
0.999999
0.999999
1
1
1
1
1
1
0.999991
0.999984
1
1
1
1
1
1
1
1
0.999992
0.999984
1
1
0.999999
0.999999
1
1
1
1
0.999991
0.999994
1
1
0.999999
0.999999
1
1
1
1
0.999992
0.999999
1
0.999999
0.999999
0.999999
0.999999
1
1
1
1
1
1
0.999999
0.999999
0.999999
0.999999
1
1
1
0.999998
0.999999
1
1
0.999999
0.999999
1
1
1
1
0.999996
0.999985
1
1
1
1
1
1
1
1
0.999998
0.999956
1
1
1
1
1
1
1
1
0.999998
0.999956
1
1
1
1
1
1
1
1
0.999998
0.99996
0.999999
1
1
1
1
1
1
1
0.999999
0.999982
0.999999
0.999999
1
1
1
1
1
1
1
0.999994
0.999999
0.999999
1
1
1
1
1
1
1
0.999998
0.999999
1
1
1
1
1
1
1
1
0.999998
1
1
1
0.999999
0.999999
0.999999
1
1
1
0.999999
1
1
1
0.999999
0.999999
0.999999
1
1
1
0.999999
1
1
0.999999
0.999999
0.999999
0.999999
1
1
1
1
1
1
1
0.999999
0.999999
1
1
1
1
1
1
1
1
0.999999
0.999999
1
1
1
1
1
1
1
1
1
1
1
1
1
1
1
1
1
1
1
1
1
1
1
1
1
1
1
1
1
1
1
1
1
1
1
1
1
1
1
1
1
0.999999
1
1
1
1
1
1
1
1
0.999999
0.999999
1
1
1
0.999999
1
1
1
0.999999
0.999999
1
1
1
1
0.999999
0.999999
1
1
0.999999
0.999999
1
1
1
1
0.999999
0.999999
0.999999
1
0.999999
1
1
1
1
1
0.999999
0.999999
0.999999
0.999999
1
1
1
1
1
1
1
0.999999
1
1
1
1
1
1
1
1
1
1
1
1
1
1
1
1
1
1
1
1
1
1
1
1
1
1
1
1
1
1
1
1
1
1
1
1
1
1
1
1
1
1
1
1
1
1
1
1
1
1
1
1
1
1
1
1
1
1
1
1
1
1
1
1
1
1
1
1
1
1
1
1
1
1
1
1
1
1
1
1
1
1
1
1
1
1
1
1
1
1
0.999999
0.999999
1
1
1
1
1
1
1
1
0.999999
0.999999
1
1
1
1
1
1
1
0.999999
0.999999
0.999999
1
1
1
1
1
1
0.999999
0.999999
1
1
1
1
0.999999
0.999998
0.999999
0.999999
0.999999
0.999999
1
1
1
1
0.999999
0.999998
0.999998
0.999999
0.999999
0.999999
1
1
1
1
1
0.999998
0.999998
0.999999
0.999999
1
1
1
1
1
1
0.999998
0.999998
1
1
1
1
1
1
1
1
0.999999
0.999999
1
1
1
1
1
1
1
1
1
1
1
1
1
1
1
1
1
1
1
1
1
1
1
1
1
1
1
1
1
1
1
1
1
1
1
1
1
1
1
1
1
1
1
1
1
1
1
1
1
1
1
1
0.999999
1
1
1
1
1
1
1
1
0.999997
0.999997
1
1
1
1
1
1
1
1
0.999994
0.999993
1
1
1
1
1
1
1
0.999999
0.999993
0.999993
0.999998
1
1
1
1
1
0.999999
0.999996
0.999996
0.999993
0.999995
1
1
1
1
0.999998
0.999983
0.999982
0.999999
0.999993
0.999996
1
1
1
1
0.999997
0.999939
0.999739
1
0.999997
1
1
1
1
1
0.999997
0.999909
0.998324
1
1
1
1
1
1
1
0.999998
0.999907
0.997103
1
1
1
1
1
1
1
0.999999
0.99993
0.996913
1
1
1
1
1
1
1
0.999999
0.999966
0.997887
1
1
1
1
1
1
1
1
0.999988
0.999287
1
1
1
1
1
1
1
1
0.999994
0.99983
1
1
1
1
1
1
1
1
0.999997
0.999923
1
1
1
1
1
1
1
1
0.999999
0.999969
1
1
1
1
1
1
1
1
0.999999
0.999988
1
1
1
1
1
1
1
1
1
0.999995
1
1
1
1
1
1
1
1
1
0.999998
1
1
1
1
1
1
1
1
1
1
1
1
1
1
1
1
1
1
1
1
1
1
0.999998
1
1
1
1
1
1
1
0.979405
0.999999
0.999989
1
1
1
1
1
1
1
0.922102
0.999998
0.999988
0.999999
0.999999
0.999999
0.999999
1
1
1
0.897195
0.999994
0.999989
0.999998
0.999998
0.999998
0.999999
1
1
1
0.886681
0.999992
0.999992
0.999998
0.999998
0.999998
0.999999
1
1
1
0.88779
0.999993
0.999993
0.999999
0.999999
0.999999
1
1
1
1
0.919748
0.999996
0.999995
0.999999
1
1
1
1
1
1
0.954618
0.999992
0.999998
1
1
1
1
1
1
1
0.980295
0.999998
0.999999
1
1
1
1
1
1
1
0.996164
0.999999
1
1
1
1
1
1
1
1.00001
0.999772
1
1
1
1
1
1
1
1
1
0.999999
1
1
1
1
1
1
1
1
1
1
1
1
1
1
1
1
1
1
1
1
1
1
1
1
1
1
1
1
1.00002
1.00001
1
1
1
1
1
1
1
1
0.959353
1.00006
1
1
1
1
1
1
1
1
0.917018
0.948546
1
1
1
1
1
1
1
1
0.907576
0.868689
1
1
1
1
1
1
1
1
0.91012
0.842902
1
1
1
1
1
1
1
1
0.913829
0.840896
1
1
1
1
1
1
1
1
0.908636
0.902814
1
1
1
1
0.999999
0.999999
0.999999
1
0.90942
0.948434
1
1
1
1
0.999999
0.999999
0.999999
1
0.956423
1
1
1
1
1
1
1
1
1
1
1
1
1
1
1
1
1
1
1
1
1
1
1
0.999998
0.999998
0.999999
1
0.999972
0.999957
0.999957
0.999991
1
1
1
0.95842
0.793931
0.793786
0.868783
0.900852
0.900887
1
1
1
1
1
1
1
1
1
1
1
1
1
1
1
1
1
1
1
1
1
1
1
1
1
1
1
0.99997
0.999957
0.999962
0.999996
0.999999
1
1
0.999137
0.968911
0.824686
0.799502
0.799589
0.88241
1
1
1
1
1
1
1
1
1
1
1
1
1
0.999996
0.999982
0.999989
1
1
1
1
1
0.999998
0.999999
1
1
1
1
0.999999
0.999959
0.999984
0.999999
0.999999
1
1
1
0.999995
0.979131
0.973226
0.843144
0.887158
1
1
1
1
1
1
1
1
1
1
1
0.999983
0.999941
0.999941
0.99995
0.999997
1
1
0.999969
0.999652
0.999935
0.999992
0.999999
0.999998
0.999999
1
1
1
0.999972
0.999966
0.999992
0.999999
1
1
1
1
0.999995
0.999996
0.971313
0.940597
1
1
1
1
1
1
1
1
1
1
0.999973
0.999893
0.999935
0.999985
0.999998
0.999999
0.999999
0.987976
0.993309
0.999542
0.9997
0.99959
0.999732
0.999997
1
1
1
0.999922
0.999871
0.999963
0.999998
0.999999
0.999999
0.999996
0.999998
0.999999
1
1
0.999996
0.9785
1
1
1
1
1
1
1
1
1
1
0.999927
0.999876
0.99998
0.999999
0.999999
0.999999
0.989067
0.9703
0.974874
0.994042
0.99818
0.999825
0.999971
0.999999
0.999999
0.998753
0.996659
0.998559
0.999955
0.999996
0.999999
0.999999
0.999997
0.999996
0.999996
0.999999
1
1
1
0.996726
0.999999
0.999999
1
1
1
0.999999
0.999999
0.999998
0.999992
0.999885
0.999873
0.999874
0.999962
0.999999
0.999999
0.994175
0.970439
0.970202
0.9703
0.980793
0.999515
0.999992
0.999995
0.999995
0.990351
0.986691
0.993358
0.999555
0.999986
0.999999
0.999999
0.999998
0.999996
0.999996
0.999996
0.999999
1
1
1
0.999634
0.999984
0.999997
1
1
0.999996
1.00002
0.999982
0.999982
0.999988
0.999989
0.999992
0.999997
0.999998
0.999998
0.999699
0.972201
0.970202
0.970236
0.979435
0.996772
0.999943
0.999965
0.968426
0.943273
0.976685
0.991011
0.998395
0.999937
0.999998
0.999999
0.999998
0.999996
0.999996
0.999996
0.999998
1
1
1
1
1
0.999984
0.999996
1
0.999997
0.999901
0.992283
0.925493
0.76798
0.727075
0.883314
0.999989
0.975857
0.949386
0.985028
0.996536
0.978383
0.976863
0.986624
0.998079
0.998053
0.931484
0.686584
0.719638
0.943289
0.990389
0.999067
0.999974
0.999997
1
0.999999
0.999996
0.999996
0.999996
0.999997
0.999999
1
1
1
1
1
0.99999
0.999997
0.999998
0.999961
0.925258
0.605087
0.186243
0.0360332
0.181464
0.461465
0.523838
0.780356
0.948131
0.993802
0.994862
0.994741
0.993407
0.993066
0.88603
0.727614
0.585005
0.578158
0.776547
0.979703
0.99916
0.999997
1
1
1
0.999999
0.999996
0.999996
0.999997
0.999999
0.999999
1
1
1
1
1
0.999997
0.999998
0.999997
0.957843
0.364148
0.00273195
0.00179871
0.00336681
0.00460973
0.0960188
0.642263
0.948093
0.992756
0.994614
0.99478
0.994614
0.939437
0.665186
0.552081
0.555359
0.560996
0.728083
0.96346
0.999882
0.999997
1
1
1
1
1
0.999999
0.999999
0.999999
0.999999
0.999999
1
1
1
1
1
0.999999
0.999999
1.00001
0.479563
0.00464515
0.00149552
0.00173585
0.00179871
0.034262
0.573432
0.960544
0.988415
0.992083
0.848356
0.751645
0.674619
0.557268
0.551638
0.552081
0.552081
0.780351
0.993225
0.999974
0.999998
0.999999
0.999999
0.999998
0.999997
0.999999
1
1
1
0.999999
0.999999
0.999999
1
1
1
1
1
0.999999
1
0.842061
0.106182
0.00149552
0.00118671
0.00159465
0.0316997
0.555315
0.944813
0.953763
0.798484
0.583947
0.553472
0.553373
0.551194
0.551194
0.551194
0.632736
0.877147
0.998964
0.99998
0.999998
1
0.999999
0.999997
0.999997
0.999997
0.999999
1
1
1
1
1
1
1
1
1
1
1
0.999999
1
0.560351
0.0131749
0.00113939
0.000873977
0.00115242
0.163893
0.850334
0.936807
0.811713
0.553982
0.553484
0.553434
0.553434
0.580426
0.707861
0.846228
0.971412
0.999879
0.99999
0.999999
1
1
1
0.999998
0.999998
0.999999
1
1
1
1
1
1
1
1
1
1
1
1
0.999999
0.991108
0.338303
0.00180163
0.00087471
0.00081284
0.00122096
0.109334
0.644849
0.785466
0.73295
0.701755
0.637438
0.75092
0.876141
0.95347
0.987592
0.999805
0.999942
0.999992
0.999999
1
1
1
1
1
1
1
1
0.999999
1
1
1
0.999999
0.999995
0.999999
1
0.999999
0.999926
1
0.999999
0.918062
0.211932
0.00127729
0.000805507
0.000790932
0.00135139
0.0184759
0.120038
0.386423
0.877101
0.999149
0.982208
0.995331
0.999819
0.999919
0.999962
0.999962
0.999992
0.999999
1
1
1
1
0.999994
0.999968
0.999968
0.999996
0.999997
1
1
1
0.999996
0.999991
0.999991
0.999995
1
1
0.999382
0.993188
0.999999
0.867204
0.130662
0.00133881
0.000790566
0.000781736
0.000846003
0.000883424
0.0029525
0.250312
0.935063
0.999984
0.999975
0.999989
0.999997
0.999996
0.999993
0.999968
0.999969
0.999985
1
1
1
0.999979
0.999945
0.999945
0.999945
0.999954
0.999996
1
1
0.999996
0.999991
0.999991
0.999991
0.999998
1
1
0.997768
0.991804
0.999997
0.835468
0.0864996
0.00209921
0.000774787
0.000781369
0.000781736
0.00079466
0.00119177
0.199535
0.915413
0.999999
0.999999
1
1
0.999999
0.999996
0.999964
0.999928
0.999929
0.999976
0.999991
0.999975
0.999945
0.999945
0.999945
0.999945
0.999958
1
1
0.999998
0.999991
0.999991
0.999991
0.999997
0.999999
1
0.999998
0.99629
0.991804
0.999988
0.822846
0.071741
0.00227738
0.00657827
0.000781355
0.000792549
0.000785327
0.00148848
0.119289
0.834038
1
1
1
1
1
0.999989
0.999929
0.999928
0.999928
0.999928
0.999929
0.999932
0.99998
0.999984
0.999945
0.999948
0.999996
1
1
0.999999
0.999993
0.999991
0.999997
0.999999
0.999999
0.999998
0.999992
0.997105
0.991804
0.999784
0.852478
0.103939
0.00202475
0.0122479
0.0111291
0.00337205
0.000827022
0.00229935
0.0331041
0.62816
1
1
1
1
1
0.999988
0.999928
0.999928
0.999928
0.999928
0.999928
0.999961
0.999995
0.999995
0.999991
0.99999
0.999994
0.999994
0.999999
1
0.999999
0.999999
1
0.999999
0.999997
0.999996
0.999965
0.999269
0.998714
0.999942
0.898183
0.179578
0.00202475
0.0116222
0.0324169
0.0298468
0.0134478
0.00322021
0.00755618
0.316081
0.97212
1
1
1
1
0.999998
0.999963
0.999928
0.999928
0.999928
0.999948
0.999995
0.999995
0.999994
0.999999
0.999999
0.999992
0.999991
0.999992
1
1
1
1
0.999999
0.999997
0.999997
0.999989
0.999989
0.999242
0.999955
0.949797
0.283295
0.00201646
0.0107177
0.0326058
0.032798
0.0326534
0.00760105
0.00758459
0.090241
0.802152
1
1
1
1
1
0.999999
0.999973
0.99994
0.999947
0.999991
0.999995
0.999993
0.999991
0.999995
1
0.999992
0.999991
0.999991
1
1
1
1
1
1
0.999999
0.999987
0.998743
0.994239
0.999967
0.987619
0.463491
0.00212127
0.00500819
0.0327683
0.0328099
0.0328662
0.0301226
0.00826218
0.00889813
0.468659
1
1
1
1
1
1
1
0.999997
0.999997
1
0.999994
0.999991
0.999991
0.999992
1
0.999997
0.999991
0.999996
1
1
1
1
1
1
1
0.999757
0.995006
0.994083
0.999979
0.999618
0.681675
0.0026754
0.00312498
0.029428
0.0328591
0.0328642
0.0329487
0.00876865
0.00512725
0.136126
0.915017
1
1
1
1
1
1
1
1
1
0.999994
0.999991
0.999991
0.999995
1
1
0.999999
1
0.999999
0.999997
0.999998
1
0.999999
1
0.999999
0.99982
0.996229
0.99502
0.999986
0.999746
0.864402
0.0744382
0.00307069
0.00719635
0.0328243
0.0328591
0.0328294
0.00960998
0.00121044
0.00699069
0.486584
0.99146
1
1
1
1
0.999999
0.999994
1
1
0.999996
0.999991
0.999991
0.999999
1
1
1
1
0.999999
0.999997
0.999997
1
0.999999
0.999988
0.999998
0.999958
0.999656
0.999676
0.999994
0.9999
0.975185
0.389007
0.00260245
0.00220135
0.0238084
0.0328243
0.0316213
0.00437495
0.00059042
0.000288546
0.0273862
0.847116
1
1
1
1
0.999995
0.999969
0.999996
1
0.999999
0.999995
0.999997
1
1
1
1
1
1
0.999997
0.999998
1
0.999999
0.999985
0.999978
0.999978
0.999978
0.999296
0.999998
0.99996
0.99948
0.680531
0.00220948
0.00213654
0.00215212
0.0231186
0.0208392
0.00317374
0.000321256
0.000194434
0.00016137
0.348776
0.962219
0.999996
1
1
0.999983
0.999968
0.999973
0.999998
1
1
1
1
1
1
1
1
0.999999
0.999999
1
1
1
0.999996
0.999995
0.999125
0.999775
0.997881
0.999999
0.999985
0.999713
0.899352
0.123973
0.00188997
0.00174938
0.00219067
0.00252884
0.0036419
0.000567507
0.000121229
6.97887e-05
0.00017423
0.662958
0.999893
0.999997
1
0.999976
0.999968
0.999968
0.999992
1
1
1
1
1
1
1
0.999998
0.999996
0.999999
1
1
1
1
1
0.991118
0.994338
0.99788
1
0.999996
0.999927
0.9967
0.539655
0.001748
0.00174926
0.00171169
0.00155912
0.00171915
0.00058659
7.40967e-05
4.6051e-05
6.32283e-05
0.125478
0.860013
0.999911
0.999995
0.999976
0.999969
0.999974
0.999997
1
1
1
1
1
1
1
0.999999
0.999996
0.999998
1
1
1
1
1
0.989545
0.988291
0.994423
1
0.999999
0.999975
0.999553
0.839622
0.0343042
0.00154204
0.00217919
0.0014992
0.000323562
0.000310795
5.71322e-05
3.73019e-05
3.84403e-05
6.41276e-05
0.402924
0.978966
0.99994
0.999986
0.999988
0.999996
1
1
1
1
1
1
1
1
0.999998
0.999996
0.999999
1
1
1
1
1
0.995319
0.989419
0.935805
1
1
0.999995
0.999893
0.988374
0.47016
0.00135688
0.00135869
0.0016624
0.000675079
6.00109e-05
3.68522e-05
3.36289e-05
3.29745e-05
3.53879e-05
0.000489489
0.682833
0.99955
0.999961
0.999998
1
1
1
1
1
1
1
0.999998
0.999991
0.999989
0.999997
1
1
1
1
1
0.999856
0.999962
0.98221
0.922195
1
1
0.999999
0.999972
0.999597
0.815461
0.0113081
0.00102476
0.00156272
0.00102236
6.44608e-05
3.28212e-05
3.27666e-05
3.19513e-05
3.14834e-05
4.6216e-05
0.20125
0.902939
0.999646
0.99998
0.999999
1
1
1
1
1
0.999999
0.99999
0.999989
0.999989
0.999995
1
1
1
1
1
0.999956
0.999962
0.950378
0.922137
1
1
1
0.999994
0.999886
0.984514
0.454587
0.00071382
0.000620852
0.000828528
0.000181616
3.23125e-05
3.13289e-05
3.14924e-05
3.11438e-05
3.24436e-05
7.45616e-05
0.549301
0.996972
0.999879
0.999992
1
1
1
1
1
0.999997
0.999989
0.999989
0.999989
0.999994
1
1
1
1
1
1
0.99706
0.923306
0.922134
1
1
1
0.999999
0.999976
0.999693
0.835
0.0285471
0.000272787
0.000256743
0.000194824
3.34793e-05
3.12936e-05
3.10115e-05
3.05566e-05
3.01668e-05
3.22099e-05
0.17757
0.887088
0.999354
0.999953
0.999997
1
1
1
1
1
0.999991
0.999989
0.999989
0.999994
1
1
1
1
1
1
0.98617
0.922134
0.922136
1
1
1
1
0.999997
0.99993
0.995843
0.521966
0.000255276
9.06542e-05
0.000134978
3.74521e-05
3.09335e-05
3.11678e-05
3.16025e-05
3.03768e-05
2.91212e-05
4.32465e-05
0.621136
0.997879
0.999819
0.999986
0.999999
1
1
1
1
0.999996
0.999989
0.999989
0.999996
1
1
1
1
1
1
0.990202
0.922409
0.939063
1
1
1
1
0.999999
0.999986
0.999714
0.881307
0.108056
3.45642e-05
3.40203e-05
3.36619e-05
3.13046e-05
3.05281e-05
3.13042e-05
3.06972e-05
3.00021e-05
2.91217e-05
0.303
0.951006
0.999454
0.999953
0.999996
1
1
1
1
1
0.999992
0.999992
0.999999
1
1
1
1
1
1
0.995241
0.973864
0.994677
1
1
1
1
1
0.999999
0.999964
0.999488
0.660039
0.000257213
3.74269e-05
4.00746e-05
3.26272e-05
3.07309e-05
3.06931e-05
3.08332e-05
3.06738e-05
3.00466e-05
0.11066
0.823621
0.998558
0.999868
0.999988
0.999999
1
1
1
1
0.999999
0.999999
1
1
0.999993
0.999997
1
1
0.999974
0.999449
0.999854
0.999852
1
1
1
1
1
1
0.999995
0.999905
0.944103
0.272544
2.87625e-05
3.56776e-05
3.81988e-05
3.02649e-05
3.25324e-05
3.08078e-05
3.08105e-05
3.07973e-05
0.0340491
0.690044
0.997397
0.999746
0.999976
0.999998
1
1
1
1
1
1
1
1
0.999987
0.99999
1
1
0.999907
0.999887
0.999928
0.99996
1
1
1
1
1
1
1
0.999993
0.999811
0.821836
0.0244438
3.28976e-05
3.21414e-05
3.20134e-05
3.51227e-05
3.35466e-05
3.07895e-05
3.10459e-05
0.0313729
0.675368
0.996971
0.999688
0.999969
0.999997
1
1
1
1
1
1
1
0.999998
0.999986
0.999986
0.999998
1
0.999897
0.999943
0.999964
0.999986
1
1
1
1
0.999999
0.999999
1
1
0.99999
0.999662
0.575933
2.43326e-05
3.30906e-05
4.30711e-05
3.19989e-05
3.14466e-05
3.1046e-05
3.13189e-05
0.116843
0.794995
0.997395
0.99974
0.999974
0.999998
1
1
1
0.999999
1
1
1
0.999995
0.999986
0.999986
0.999998
1
0.999948
0.999957
0.999991
0.999998
1
1
1
1
0.999999
0.999999
1
1
1
0.999989
0.942629
0.230325
4.15546e-05
3.22132e-05
3.17466e-05
3.1622e-05
3.14703e-05
0.132887
0.667691
0.978971
0.998119
0.999784
0.999974
0.999998
1
1
0.999998
0.999997
0.999998
1
1
0.99999
0.999986
0.999986
0.999999
1
1
0.999978
0.999997
0.999999
1
1
1
1
1
1
1
1
1
1
1
0.885039
0.00531317
3.96879e-05
0.0144595
0.198458
0.553424
0.86943
0.99305
0.999065
0.999593
0.999937
0.999989
0.999999
1
1
0.999997
0.999997
0.999998
1
0.999999
0.999986
0.999986
0.99999
1
1
1
0.999993
0.999999
0.999999
1
1
1
1
1
1
1
1
1
1
1
1
0.473257
0.0290904
0.300418
0.868633
0.988355
0.998792
0.999714
0.999943
0.999988
0.999998
0.999999
1
1
1
0.999997
0.999997
0.999998
1
0.999993
0.999986
0.999986
0.999994
1
1
1
1
1
0.999139
1
1
1
1
1
1
1
1
1
1
1
1
0.90833
0.167295
0.267338
0.856404
0.998934
0.999764
0.999946
0.999989
0.999998
1
1
1
1
1
0.999997
0.999997
0.999999
1
0.99999
0.999986
0.999986
0.999998
1
1
1
1
1
0.995679
1
1
1
1
1
1
1
1
1
1
1
1
1
0.467908
0.240465
0.47017
0.975593
0.999859
0.999969
0.999981
0.999986
0.999989
1
1
1
1
0.999998
0.999997
0.999999
1
0.99999
0.999986
0.999991
1
1
1
1
1
1
0.99519
1
1
1
1
1
1
1
1
1
1
1
1
1
0.925076
0.249232
0.248835
0.740915
0.999664
0.999922
0.99995
0.99992
0.999952
0.999996
1
1
1
1
1
1
1
0.999989
0.999986
0.999997
1
1
1
1
1
1
0.995177
1
1
1
1
1
1
1
1
1
1
1
1
1
1
0.543764
0.248799
0.387017
0.946157
0.999811
0.999917
0.999898
0.999899
0.999957
0.999996
1
1
1
1
1
0.999996
0.999987
0.999988
0.999999
1
1
1
1
1
0.999991
0.995021
1
1
1
1
1
1
1
1
1
1
1
1
1
1
0.951835
0.292608
0.279181
0.728269
0.999644
0.999916
0.999926
0.999907
0.999923
0.999953
0.999995
1
1
1
1
0.999988
0.999987
0.999994
1
1
1
1
1
1
0.997909
0.994993
1
1
1
1
1
1
1
1
1
0.999999
0.999999
0.999999
0.999999
1
1
0.539751
0.279138
0.499772
0.975907
0.999934
0.999963
0.999965
0.999923
0.999924
0.999985
1
1
1
1
0.999987
0.999987
0.999999
1
1
1
1
1
0.999903
0.995004
0.994996
0.999999
1
1
1
1
1
1
0.999999
0.999996
0.99999
0.999986
0.999986
0.999987
0.999998
1
0.814953
0.280183
0.346956
0.916047
0.999957
0.999984
0.999999
0.999926
0.999926
0.999949
0.999998
1
1
0.999999
0.999995
0.999997
1
1
1
1
1
1
0.999477
0.995015
0.995361
1
1
1
1
1
1
0.999998
0.999989
0.999963
0.999892
0.999828
0.999839
0.999797
0.999957
1
0.977265
0.324929
0.31679
0.847367
0.999931
0.999984
0.999999
0.999948
0.999927
0.999929
0.999996
1
1
1
1
1
1
0.999998
0.999998
1
1
1
0.99914
0.99504
0.998889
1
1
1
1
1
1
0.999988
0.999904
0.999638
0.998835
0.99607
0.993865
0.997045
0.999027
0.999994
0.999356
0.369088
0.31679
0.868111
0.999998
0.999989
1
0.999984
0.99993
0.99993
0.99999
1
1
1
1
1
0.999999
0.999997
0.999997
1
1
0.999996
0.999244
0.997471
0.999192
1
1
1
1
1
0.999996
0.9999
0.999197
0.9931
0.850436
0.580554
0.518461
0.729586
0.965303
0.999979
0.917148
0.331868
0.346822
0.96355
1
0.999989
1
0.999999
0.999961
0.999931
0.99999
1
1
1
1
1
1
0.999997
0.999997
1
1
0.999987
0.999801
0.999914
0.999204
1
1
1
1
1
0.999979
0.9995
0.960678
0.625857
0.223172
0.0279968
0.00527797
0.170967
0.733647
0.999355
0.639833
0.331868
0.520176
1
1
0.999995
1
1
0.999994
0.999974
0.999988
1
1
1
1
1
0.999999
0.999998
0.999999
1
0.999999
0.999987
0.999989
0.999951
0.999033
1
1
1
1
0.999998
0.999845
0.945155
0.458038
0.0604413
0.00240175
0.00235482
0.00235321
0.00379465
0.381577
0.770952
0.500633
0.335758
0.839716
1
1
1
1
1
1
0.999999
0.999995
1
1
1
1
0.999999
0.999998
0.999999
1
0.999999
0.999998
0.999994
0.999992
0.999848
0.999025
1
1
1
1
0.999983
0.992442
0.44126
0.010261
0.00243221
0.00235461
0.00235289
0.00235472
0.00235596
0.00242083
0.0701794
0.400065
0.840165
1.00001
1
1
1
1
1
1
1
0.999999
0.999999
0.999999
1
1
0.999997
0.999998
0.999999
1
0.999999
0.999998
0.999998
0.999968
0.999258
0.999025
1
1
1
0.999998
0.99991
0.616218
0.0393864
0.00253412
0.00235851
0.00235338
0.00235311
0.00235338
0.002355
0.00240183
0.0495454
0.67795
0.999789
1
1
1
1
1
1
1
1
0.999999
0.999999
0.999999
0.999999
0.999997
0.999997
0.999997
1
1
1
0.999999
0.999999
0.999956
0.999188
0.999025
1
1
1
0.999991
0.950407
0.174937
0.00292376
0.00238393
0.00235549
0.00235465
0.00235338
0.00235465
0.0023692
0.00267544
0.163184
0.89574
0.999991
1
1
1
0.999999
0.999993
0.999999
1
1
0.999999
0.999999
1
0.999998
0.999997
0.999997
0.999999
1
1
1
1
0.999999
0.999964
0.999722
0.999513
1
1
0.999998
0.999992
0.533265
0.018905
0.00396543
0.00354314
0.00606483
0.00823361
0.0302793
0.0244368
0.0026858
0.0035657
0.359503
0.999988
0.999999
1
1
0.999997
0.999964
0.999958
0.99999
1
1
1
1
1
0.999999
0.999998
0.999999
1
1
1
1
1
0.999998
0.999986
0.999998
0.999997
1
1
1.00001
0.999216
0.210968
0.00855915
0.00746639
0.0109844
0.015331
0.0739593
0.0907089
0.0820529
0.0110657
0.026951
0.563933
0.999999
1
0.999999
0.999999
0.999966
0.999956
0.999957
0.999982
1
1
1
1
1
1
1
1
1
1
0.999997
0.999999
1
0.999999
0.999999
0.999999
0.999999
0.999999
0.999997
0.999983
0.704538
0.0538784
0.00900743
0.00883397
0.010347
0.0504235
0.09107
0.0909072
0.0907089
0.0467335
0.0669451
0.695915
1
1
1
0.99998
0.999956
0.999956
0.999956
0.999995
1
1
1
1
1
1
1
1
1
0.999997
0.999996
0.999996
0.999999
0.999999
0.999999
0.999999
0.999999
0.999998
0.999987
0.999692
0.356233
0.00972029
0.00921588
0.00913949
0.0093902
0.0629625
0.0910759
0.0910693
0.0867849
0.0222218
0.0915313
0.743509
1
1
0.999999
0.999967
0.999956
0.999956
0.999971
1
1
1
1
1
1
1
1
1
0.999999
0.999996
0.999996
0.999996
0.999996
0.999998
0.999998
0.999998
0.999998
0.999989
1
0.930099
0.134422
0.00941528
0.0092693
0.00925778
0.00927064
0.0409005
0.0910696
0.0910809
0.0562824
0.00367274
0.0789223
0.740458
1
1
1
0.999976
0.999956
0.999958
1
1
1
1
1
1
0.999999
0.999996
1
1
1
0.999997
0.999996
0.999996
0.999997
0.999998
0.999998
0.999998
0.999999
0.999934
0.999804
0.530124
0.0275199
0.00932804
0.00931437
0.00928499
0.00931575
0.0469494
0.0910814
0.0908619
0.0459383
0.00170373
0.041994
0.657874
1
1
1
0.999994
0.999983
0.999991
1
1
1
1
1
1
0.999994
0.999993
0.999994
1
1
1
0.999999
0.999999
0.999999
0.999999
0.999999
0.999998
1
0.999711
0.982929
0.215271
0.00953564
0.00938787
0.00933832
0.00931566
0.0100537
0.0830112
0.0907571
0.086643
0.0206372
0.000678256
0.00986332
0.325642
0.921494
1
1
1
1
1
1
1
1
1
1
0.999998
0.999993
0.999993
0.999993
0.999994
0.999999
1
1
1
1
0.999999
1
1
1
0.997034
0.734052
0.0669636
0.0097768
0.00953328
0.00937257
0.0232132
0.0400696
0.0816677
0.0639006
0.0194479
0.00216191
0.000173271
0.00506286
0.0379893
0.366198
0.872967
1
1
1
1
1
1
1
1
1
0.999999
0.999994
0.999993
0.999993
0.999993
0.999998
1
1
1
1
0.999999
1
1
0.999999
0.972025
0.354368
0.0178172
0.0107759
0.00977579
0.0234344
0.0645089
0.0556968
0.022534
0.00381688
0.000207663
7.16071e-05
5.73606e-05
0.00151099
0.000885443
0.0106717
0.233419
0.692286
0.957867
1
1
1
1
1
1
1
1
0.999999
0.999994
0.999993
0.999994
1
1
1
1
1
0.999999
0.999999
0.99999
0.999995
0.911572
0.185197
0.0115307
0.0177005
0.0197389
0.0761893
0.0421126
0.00126007
3.81323e-05
4.75766e-05
3.34915e-05
1.18667e-05
1.66646e-05
3.37136e-05
0.000130596
0.000521712
0.00208827
0.0766525
0.352072
0.704763
0.934746
1
1
1
1
1
1
1
0.999999
0.999998
0.999999
1
1
1
1
1
0.999999
0.999995
0.999967
0.999992
0.85979
0.143126
0.0112768
0.0245805
0.0668134
0.0761478
5.13037e-06
4.17668e-06
7.51486e-06
1.87038e-05
1.16353e-05
3.40272e-06
7.60023e-06
1.47467e-05
2.07935e-05
7.14279e-05
0.000249785
0.000777813
0.00421881
0.0732278
0.286362
0.601042
0.862648
0.987103
1
1
1
1
1
1
1
1
1
1
0.999999
0.999999
0.999998
0.999971
0.999967
0.999991
0.841425
0.127963
0.0112768
0.0349535
0.172986
0.0545271
4.17668e-06
3.99802e-06
8.04916e-06
1.65211e-05
2.91977e-06
2.75774e-06
3.08089e-06
3.1716e-06
4.7296e-06
1.13054e-05
3.08925e-05
8.44656e-05
0.000222464
0.000571053
0.00152009
0.0346192
0.179329
0.447837
0.746558
0.940835
1
1
1
1
1
1
1
0.999999
0.999999
0.999999
0.999999
0.999969
0.999982
0.999991
0.863641
0.139572
0.0112768
0.0374324
0.321717
0.0912275
3.99802e-06
3.92263e-06
5.14663e-06
1.62327e-05
2.72888e-06
2.712e-06
2.71112e-06
2.75098e-06
2.88082e-06
3.47644e-06
5.63133e-06
1.01377e-05
2.09843e-05
4.69018e-05
0.000115993
0.000317917
0.00251104
0.0177646
0.108794
0.329576
0.624114
0.897137
1
1
1
1
1
0.999999
0.999999
0.999999
1
0.99998
0.999956
0.99999
0.951264
0.326481
0.00889101
0.0198196
0.347772
0.363699
3.92172e-06
3.72471e-06
7.20109e-06
1.36499e-05
2.72461e-06
2.72916e-06
2.71482e-06
2.72547e-06
2.75706e-06
2.83434e-06
3.06732e-06
3.56242e-06
4.57961e-06
6.86989e-06
1.21985e-05
8.8634e-05
0.000447067
0.0137784
0.0198912
0.0136637
0.0456648
0.265627
0.61455
0.945565
1
1
1
0.999999
1
1
1
0.999997
0.999953
0.999988
0.993944
0.630837
0.00559692
0.00511308
0.303192
0.655931
3.72288e-06
3.14719e-06
3.31703e-06
7.34991e-06
2.72199e-06
2.73265e-06
2.73037e-06
2.73034e-06
2.73645e-06
2.77277e-06
2.85586e-06
3.08e-06
3.56999e-06
4.58138e-06
6.87042e-06
0.000842898
0.0247738
0.0379837
0.0302869
0.00947898
0.000478329
0.000797975
0.0417032
0.537563
0.981346
0.999999
1
1
1
1
1
1
0.999953
0.999987
0.999432
0.832604
0.0470844
0.00511468
0.12294
0.67916
0.268374
2.73712e-06
2.72686e-06
2.72394e-06
2.72447e-06
2.73054e-06
2.73075e-06
2.72129e-06
2.76995e-06
2.76303e-06
2.78562e-06
0.000820393
0.00861855
0.0149754
0.0212819
0.0332973
0.0380195
0.03805
0.037996
0.0102034
0.000186414
0.000178172
0.000232756
0.208818
0.917712
0.99998
1
1
1
1
1
1
0.999952
0.999987
0.999856
0.930561
0.217398
0.00511468
0.0052269
0.672835
0.608383
0.00502663
2.73859e-06
2.72449e-06
2.73184e-06
2.73173e-06
2.74071e-06
2.90113e-06
2.76148e-06
0.0029409
0.0136353
0.0323406
0.036388
0.0372481
0.0378256
0.0380208
0.0380433
0.0380248
0.0238706
0.00356661
0.000158858
0.000156942
0.000178172
0.24572
0.929266
0.999897
0.999999
1
0.999963
0.999877
0.999996
0.999976
0.999952
0.999989
0.999956
0.979131
0.40356
0.0052269
0.0185664
0.720623
0.802077
0.00208175
2.74378e-06
2.73774e-06
2.73143e-06
3.041e-06
3.71909e-06
3.70619e-06
2.81308e-06
0.00979114
0.0344007
0.0344007
0.028574
0.0259789
0.0335208
0.0307127
0.0226165
0.0120496
0.00113292
0.000171339
0.000156941
0.00015843
0.0844751
0.635598
0.983226
0.99981
0.999984
0.99999
0.999849
0.999838
0.999865
0.999894
0.999965
0.999992
0.999986
0.996433
0.562026
0.00578907
0.0172872
0.752796
0.962285
0.22676
2.74143e-06
2.74273e-06
2.73597e-06
2.74749e-06
3.20402e-06
3.12877e-06
2.80831e-06
0.00658898
0.0216408
0.0174015
0.00347036
0.00135275
0.00252939
0.00175777
0.00084785
0.000251529
0.000187608
0.000184802
0.00124764
0.169623
0.676254
0.981569
0.998025
0.999798
0.999959
0.999894
0.999837
0.999838
0.999838
0.999901
0.99999
0.999996
0.999995
0.99956
0.664993
0.00780331
0.0110855
0.669322
0.996882
0.777703
0.0718132
2.73874e-06
2.7261e-06
2.74244e-06
2.7472e-06
2.7719e-06
2.80219e-06
0.000618655
0.000238875
0.000306499
0.000564132
0.000834643
0.000946802
0.00075123
0.000580928
0.000459435
0.0402296
0.187041
0.488946
0.831625
0.996161
0.999814
0.999917
0.999788
0.999787
0.999793
0.999837
0.999868
0.999861
0.99996
0.999999
1
0.999998
0.999833
0.721391
0.0378535
0.00605061
0.596968
0.996882
0.994734
0.582737
0.106624
2.72024e-06
2.73086e-06
2.75093e-06
2.75548e-06
2.77639e-06
3.58374e-06
4.35627e-05
0.000126409
0.000198723
0.00026881
0.0317016
0.0998885
0.218649
0.41592
0.658478
0.867576
0.982345
0.999602
0.999854
0.999881
0.99996
0.999879
0.999833
0.999893
0.999957
0.999992
0.999985
0.999984
0.999999
1
1
0.999714
0.753634
0.0962539
0.00593135
0.301283
0.989346
0.999443
0.978538
0.743627
0.466714
0.277934
0.188849
0.160187
0.158368
0.172927
0.197859
0.245955
0.356069
0.51814
0.662546
0.788266
0.900842
0.976069
0.998906
0.999631
0.999915
0.999964
0.9999
0.999887
0.999966
0.999995
0.999983
0.999997
1
1
0.999997
0.999989
1
1
1
0.998945
0.747738
0.168131
0.00593135
0.0484262
0.920644
0.999557
0.999702
0.998606
0.981811
0.935309
0.889654
0.869199
0.867868
0.880397
0.899099
0.926426
0.966351
0.9931
0.998611
0.999181
0.999617
0.99986
0.999943
0.99998
0.999996
0.999982
0.999957
0.999965
0.999987
1
1
1
1
1
0.999999
0.999997
1
0.999922
1
0.996358
0.560351
0.281766
0.0248461
0.00972345
0.770531
0.99969
0.99991
0.999872
0.999724
0.99948
0.999244
0.999148
0.999165
0.99926
0.999386
0.999542
0.999728
0.999849
0.999904
0.999942
0.999976
0.999992
0.999997
0.999999
1
0.999997
1
0.999999
1
1
1
1
1
1
0.999999
0.999999
0.999756
0.997564
1
0.939701
0.376384
0.41298
0.0959465
0.00950353
0.555785
0.99931
0.999928
0.999962
0.999956
0.999958
0.999937
0.999929
0.999933
0.999942
0.999953
0.999966
0.999981
0.999989
0.999991
0.99999
0.999998
0.999999
1
1
1
1
1
1
1
1
1
0.999999
0.999998
0.999994
0.999999
0.999747
0.99757
0.99726
1
0.84096
0.289002
0.442747
0.134229
0.00950353
0.409591
0.990567
0.999969
0.999967
0.999977
0.999997
0.999994
0.999994
0.999995
0.999995
0.999996
0.999998
0.999999
0.999999
0.999996
0.999993
0.999999
1
1
1
1
1
1
1
1
0.999999
0.999999
0.999997
0.99999
0.999991
0.999459
0.99751
0.99726
0.99726
0.999999
0.772984
0.259635
0.445445
0.133814
0.00950353
0.285605
0.969966
0.999969
0.999969
0.999522
0.999999
0.999999
0.999999
1
1
1
1
1
0.999999
0.999997
0.999992
0.999997
1
1
1
1
0.999877
0.999862
1
1
1
0.999999
0.999996
0.999989
0.999983
0.998484
0.997264
0.997263
0.997514
1
0.675403
0.233381
0.343289
0.0887227
0.0100508
0.294553
0.961728
0.996889
0.968776
0.99515
1
1
1
1
1
1
1
1
0.999999
0.999995
0.999993
0.999996
1
1
0.999989
0.999787
0.999654
0.999653
0.999886
1
0.999999
0.999999
0.999996
0.999992
0.999984
0.998873
0.99741
0.997865
0.999538
1.00005
0.45153
0.213663
0.259776
0.0721209
0.0115182
0.325682
0.958924
0.756949
0.624612
0.986287
1
0.999996
1
1
1
1
1
1
1
0.999996
0.999997
0.999998
1
0.999951
0.999713
0.999654
0.999654
0.999654
0.999743
1
1
0.999999
0.999998
0.999994
0.999969
0.99956
0.999487
0.999606
0.999697
0.990055
0.24917
0.203466
0.513909
0.0932552
0.014933
0.423214
0.959538
0.551273
0.548913
0.975282
1
0.99998
0.999879
0.999993
1
1
1
0.999999
1
1
1
1
0.999999
0.999818
0.999654
0.999654
0.999653
0.999653
0.99983
1
1
1
1
0.999996
0.999931
0.999722
0.999936
0.999855
0.999618
0.681442
0.146541
0.192188
0.794459
0.207834
0.0371893
0.656482
0.959727
0.548766
0.548552
0.970277
1
0.999959
0.999805
0.999854
1
1
0.999998
0.999997
0.999999
1
1
1