/*--------------------------------*- C++ -*----------------------------------*\
  =========                 |
  \\      /  F ield         | OpenFOAM: The Open Source CFD Toolbox
   \\    /   O peration     | Website:  https://openfoam.org
    \\  /    A nd           | Version:  8
     \\/     M anipulation  |
\*---------------------------------------------------------------------------*/
FoamFile
{
    version     2.0;
    format      ascii;
    class       volScalarField;
    location    "1.7";
    object      k;
}
// * * * * * * * * * * * * * * * * * * * * * * * * * * * * * * * * * * * * * //

dimensions      [0 2 -2 0 0 0 0];

internalField   nonuniform List<scalar> 
9150
(
0.00182782
0.000942831
0.000484091
0.00032119
0.000228176
0.000228173
0.000321187
0.000484089
0.000942831
0.00182782
0.00178509
0.000748677
0.000407573
0.000274938
0.000192375
0.000192373
0.000274935
0.000407569
0.000748672
0.00178509
0.00171365
0.000653385
0.000374823
0.000254326
0.000178266
0.000178263
0.000254322
0.000374819
0.000653378
0.00171365
0.00163509
0.000603394
0.000361877
0.000246189
0.000173062
0.00017306
0.000246186
0.000361873
0.000603388
0.00163509
0.00155162
0.000581942
0.000357206
0.000243397
0.000171539
0.000171538
0.000243395
0.000357203
0.000581937
0.00155162
0.00285561
0.00260056
0.00195454
0.00178277
0.00157419
0.00157436
0.0017832
0.00195517
0.00260152
0.00285571
0.00230606
0.00151626
0.00133598
0.00132448
0.00115685
0.00115691
0.00132465
0.0013362
0.00151643
0.00230605
0.0020499
0.0012581
0.000917537
0.000878498
0.000743904
0.000743924
0.000878539
0.000917597
0.00125815
0.00204989
0.00186808
0.00111439
0.000666798
0.000572974
0.000459407
0.00045941
0.000572978
0.000666812
0.0011144
0.00186807
0.00178779
0.00102364
0.00053546
0.00039882
0.000300338
0.000300338
0.000398819
0.000535463
0.00102364
0.00178778
0.0110737
0.00485289
0.0026886
0.00207457
0.00179252
0.00179147
0.00207286
0.00270722
0.00511177
0.0123874
0.00492601
0.00385786
0.0026244
0.0020722
0.00180418
0.00180362
0.00207164
0.00262377
0.00384747
0.00493787
0.00442259
0.0034843
0.00260585
0.00207046
0.00181638
0.00181628
0.00207092
0.00260656
0.0034804
0.00442357
0.00393061
0.0032059
0.00259003
0.00206704
0.00182798
0.00182817
0.00206771
0.00259097
0.00320637
0.00393099
0.00336811
0.00315115
0.00248385
0.00201912
0.0018007
0.00180098
0.00201981
0.00248477
0.00315277
0.00336829
0.246038
0.246227
0.246196
0.245902
0.245318
0.244425
0.243209
0.241655
0.239748
0.237462
0.512079
0.512131
0.511634
0.510582
0.508961
0.506756
0.50395
0.500522
0.496448
0.491706
0.638442
0.638629
0.638178
0.637082
0.635327
0.632893
0.629756
0.625888
0.621261
0.615846
0.726481
0.726869
0.726614
0.725703
0.724117
0.721828
0.718801
0.714996
0.710371
0.704883
0.799117
0.799773
0.799842
0.799304
0.798131
0.796279
0.7937
0.790334
0.786118
0.780983
0.86444
0.865445
0.865981
0.866017
0.865511
0.864403
0.862622
0.860085
0.856696
0.852351
0.926146
0.92761
0.928786
0.929635
0.930097
0.930095
0.929532
0.928295
0.926247
0.923238
0.986062
0.988128
0.990162
0.992113
0.99391
0.995458
0.996638
0.997301
0.997269
0.996333
1.04499
1.04784
1.05098
1.05438
1.05795
1.06158
1.06514
1.06846
1.07133
1.07347
1.10306
1.10689
1.11144
1.11665
1.12247
1.12878
1.13547
1.14235
1.14919
1.1557
1.15991
1.16494
1.17117
1.17857
1.18711
1.19671
1.20727
1.21867
1.2307
1.24307
1.21487
1.22128
1.22943
1.23934
1.25099
1.26439
1.27951
1.29629
1.31464
1.33437
1.26704
1.27497
1.28521
1.29781
1.31283
1.33035
1.35044
1.3732
1.39869
1.42695
1.31547
1.32499
1.33737
1.3527
1.37112
1.39278
1.4179
1.44673
1.47958
1.51681
1.35922
1.37034
1.38482
1.40277
1.42439
1.44989
1.47961
1.51394
1.55338
1.59862
1.39752
1.41024
1.4267
1.44707
1.47153
1.50036
1.53391
1.57262
1.61709
1.66803
1.42986
1.44415
1.4625
1.48505
1.512
1.54361
1.58021
1.62221
1.67014
1.72461
1.45591
1.47182
1.492
1.51658
1.54575
1.57974
1.61885
1.66342
1.71384
1.77054
1.47557
1.49315
1.51515
1.5417
1.57297
1.60918
1.65059
1.69747
1.75011
1.8088
1.48883
1.50814
1.53197
1.56045
1.59379
1.6322
1.67593
1.72525
1.78043
1.84171
1.49577
1.51681
1.54242
1.57278
1.60811
1.64867
1.69475
1.74665
1.80472
1.86925
1.49651
1.51918
1.54644
1.5785
1.61562
1.65813
1.70636
1.76072
1.82163
1.88955
1.49125
1.51535
1.54399
1.57742
1.61596
1.65996
1.70985
1.7661
1.82928
1.90002
1.48028
1.50551
1.53517
1.56953
1.60893
1.65376
1.70447
1.7616
1.82579
1.89778
1.46405
1.49007
1.52032
1.5551
1.59472
1.6396
1.69018
1.74697
1.81055
1.88159
1.4432
1.46965
1.50008
1.53476
1.57402
1.61823
1.66783
1.72328
1.78512
1.85394
1.41854
1.44509
1.47529
1.50943
1.54781
1.59077
1.63872
1.69207
1.7513
1.81695
1.39099
1.41731
1.44695
1.48017
1.51726
1.55854
1.60434
1.65503
1.71102
1.77275
1.36148
1.38728
1.41606
1.44808
1.48359
1.52288
1.56624
1.61398
1.66644
1.72395
1.33086
1.35586
1.38355
1.41415
1.4479
1.48504
1.52584
1.57056
1.61947
1.67285
1.29979
1.3238
1.35021
1.37924
1.41111
1.44603
1.48425
1.52599
1.5715
1.62101
1.26881
1.29165
1.31665
1.344
1.37392
1.4066
1.44225
1.4811
1.52337
1.56927
1.23833
1.25987
1.28334
1.30895
1.33686
1.36728
1.40039
1.43641
1.47555
1.518
1.20865
1.22879
1.25068
1.27447
1.30034
1.32848
1.35907
1.3923
1.42836
1.46745
1.18004
1.19872
1.21895
1.24089
1.26471
1.29056
1.31863
1.34908
1.38211
1.41789
1.15273
1.1699
1.18844
1.20851
1.23026
1.25382
1.27938
1.30708
1.3371
1.3696
1.1269
1.14254
1.1594
1.17759
1.19727
1.21857
1.24164
1.26662
1.29367
1.32294
1.10277
1.11688
1.13204
1.14838
1.16602
1.18508
1.2057
1.22801
1.25215
1.27825
1.0805
1.09311
1.10661
1.12113
1.13676
1.15363
1.17186
1.19156
1.21286
1.23588
1.06029
1.07142
1.08331
1.09605
1.10975
1.1245
1.14041
1.15758
1.17612
1.19614
1.04231
1.05202
1.06236
1.07339
1.08522
1.09793
1.11161
1.12636
1.14225
1.15939
1.02675
1.03511
1.04395
1.05336
1.06341
1.07418
1.08575
1.09818
1.11156
1.12595
1.0138
1.02087
1.0283
1.03616
1.04453
1.05348
1.06305
1.07333
1.08435
1.09617
1.00367
1.0095
1.01559
1.022
1.02879
1.03603
1.04376
1.05202
1.06087
1.07034
0.996572
1.00123
1.00604
1.01108
1.01638
1.02202
1.02804
1.03447
1.04134
1.04867
0.99276
0.996276
0.999861
1.00358
1.00748
1.01163
1.01606
1.0208
1.02588
1.03131
0.992514
0.994896
0.997273
0.999711
1.00227
1.005
1.00794
1.01113
1.01458
1.01831
0.996157
0.997375
0.998526
0.999683
1.00091
1.00227
1.00379
1.00552
1.00748
1.00968
1.00407
1.00404
1.00389
1.00372
1.00359
1.00357
1.0037
1.00404
1.0046
1.00539
1.01668
1.01525
1.01367
1.01205
1.01047
1.00902
1.00776
1.00672
1.00594
1.00542
1.03449
1.0314
1.02816
1.0249
1.02173
1.01874
1.016
1.01356
1.01147
1.00972
1.05804
1.05292
1.04769
1.0425
1.03748
1.03276
1.02842
1.02453
1.02111
1.01819
1.0879
1.08021
1.0725
1.06497
1.05778
1.05106
1.04494
1.03947
1.03469
1.03063
1.12457
1.11359
1.10277
1.09234
1.08252
1.07346
1.06529
1.05808
1.05188
1.04669
1.16844
1.15321
1.13845
1.12444
1.11142
1.09957
1.08902
1.07986
1.07212
1.0658
1.21964
1.19898
1.17925
1.1608
1.14389
1.12872
1.11541
1.10403
1.09462
1.08715
1.27798
1.25039
1.22447
1.20057
1.17899
1.1599
1.1434
1.12955
1.11833
1.1097
1.34275
1.30647
1.27292
1.24247
1.21537
1.19174
1.17164
1.15505
1.14194
1.13218
1.41247
1.36551
1.32281
1.28466
1.2512
1.22246
1.1984
1.17891
1.16385
1.15308
1.48457
1.4249
1.37159
1.32472
1.28423
1.24997
1.22172
1.19926
1.18234
1.17075
1.55501
1.48093
1.41592
1.35968
1.31182
1.27191
1.23951
1.21421
1.19564
1.1835
1.61807
1.52878
1.45178
1.38621
1.33121
1.28597
1.24978
1.22201
1.20216
1.1898
1.66667
1.56294
1.47491
1.401
1.33981
1.29012
1.25091
1.22133
1.20072
1.18858
1.69353
1.57815
1.48151
1.40132
1.33568
1.28299
1.24195
1.21154
1.19095
1.17956
1.69337
1.5709
1.4693
1.38577
1.31802
1.26421
1.22288
1.19287
1.17328
1.16341
1.66439
1.54047
1.43822
1.35465
1.28738
1.2345
1.19455
1.16636
1.149
1.1417
1.6096
1.48967
1.39078
1.31016
1.24566
1.19557
1.15856
1.13362
1.11988
1.11655
1.53674
1.42445
1.33155
1.25588
1.1957
1.14968
1.11682
1.09632
1.0875
1.08968
1.45543
1.35187
1.26585
1.19581
1.14055
1.09918
1.07106
1.05576
1.05288
1.06192
1.37368
1.27801
1.1983
1.13352
1.0829
1.04601
1.02261
1.01267
1.01615
1.03287
1.29608
1.20678
1.1322
1.07166
1.02484
0.991665
0.972346
0.967257
0.976791
1.00117
1.22495
1.14055
1.06971
1.01215
0.967896
0.937263
0.920856
0.919476
0.933973
0.965026
1.16225
1.08117
1.01254
0.956456
0.913294
0.88371
0.868648
0.869287
0.886903
0.922679
1.10988
1.03016
0.961954
0.905682
0.861997
0.831818
0.816339
0.816986
0.835279
0.872612
1.06872
0.98823
0.918585
0.860421
0.814611
0.78227
0.764764
0.763664
0.780587
0.816876
1.03818
0.954996
0.882198
0.820591
0.771226
0.735391
0.714612
0.710629
0.725256
0.760078
1.01642
0.929124
0.851828
0.785502
0.731384
0.69095
0.6659
0.658161
0.669803
0.702779
1.00131
0.908963
0.826174
0.754132
0.694302
0.648378
0.618257
0.60604
0.613987
0.644295
0.991292
0.893011
0.803891
0.725348
0.659079
0.60702
0.571293
0.554163
0.557985
0.584974
0.984769
0.879612
0.783474
0.697883
0.624719
0.56617
0.524629
0.502557
0.502318
0.525854
0.979177
0.866558
0.763068
0.670239
0.590066
0.525
0.477803
0.451261
0.447745
0.46863
0.971272
0.851231
0.740556
0.640726
0.553804
0.482529
0.4302
0.400217
0.395061
0.415261
0.958041
0.831066
0.713809
0.607625
0.514579
0.437725
0.381226
0.349358
0.344669
0.366759
0.936579
0.803577
0.680806
0.569347
0.47118
0.389865
0.330694
0.298897
0.29743
0.324369
0.903324
0.766272
0.639807
0.524653
0.422824
0.338736
0.278658
0.249539
0.25452
0.288978
0.855133
0.717865
0.590227
0.473266
0.369721
0.284538
0.225893
0.202852
0.217624
0.261248
0.797077
0.66149
0.534063
0.41672
0.312732
0.228347
0.17435
0.161742
0.189098
0.242148
0.73538
0.600683
0.473346
0.356043
0.252954
0.171966
0.127264
0.129863
0.170789
0.232395
0.671845
0.536287
0.408431
0.291927
0.191973
0.118304
0.0888087
0.109531
0.162232
0.230918
0.60714
0.468913
0.340437
0.226548
0.133306
0.0720572
0.0624332
0.099624
0.160894
0.235828
0.543632
0.401842
0.273369
0.164896
0.0826648
0.0383848
0.0476753
0.0954681
0.162458
0.243813
0.484906
0.338775
0.212488
0.112444
0.0449434
0.0187873
0.0396667
0.0919234
0.162396
0.24909
0.433048
0.281804
0.161048
0.0720678
0.0213465
0.00964279
0.0334933
0.0863441
0.158886
0.249712
0.38277
0.230645
0.117918
0.0433879
0.00930711
0.00579447
0.0270213
0.0779988
0.151739
0.245735
0.334554
0.184917
0.0826222
0.0239256
0.00437866
0.00400099
0.0202362
0.066814
0.140849
0.237817
0.280545
0.141251
0.0537108
0.0121296
0.00258835
0.0028821
0.013744
0.0533893
0.125836
0.225717
0.217202
0.0994169
0.0315188
0.00606776
0.00201354
0.00222869
0.00841479
0.038676
0.106078
0.206757
0.151084
0.0640702
0.0170849
0.00355327
0.00184506
0.00192813
0.00488731
0.0246252
0.0816433
0.17875
0.0978164
0.0395794
0.00924095
0.00257672
0.00179779
0.00181778
0.00302466
0.0133189
0.0538971
0.132268
0.0684819
0.0237127
0.00498417
0.00219069
0.00178711
0.0017884
0.00225658
0.00599137
0.028165
0.0787163
0.234548
0.231085
0.227111
0.22262
0.217618
0.212116
0.206134
0.1997
0.192846
0.185666
0.178705
0.17183
0.164926
0.157981
0.151024
0.1441
0.137259
0.130544
0.123995
0.117638
0.111493
0.105571
0.0998707
0.0943851
0.0890986
0.0839902
0.0790344
0.0742035
0.0694687
0.0648004
0.0601678
0.0555357
0.0508596
0.0460706
0.041008
0.035506
0.0296684
0.0233009
0.0168563
0.00795356
0.485929
0.479004
0.471198
0.462519
0.452984
0.442632
0.431513
0.419694
0.407254
0.394274
0.380821
0.367065
0.353121
0.339093
0.325079
0.311172
0.297452
0.283987
0.27083
0.258021
0.245583
0.233526
0.221849
0.210536
0.199562
0.188896
0.178498
0.168324
0.158327
0.148457
0.13866
0.12887
0.119009
0.108966
0.098587
0.0876651
0.0761602
0.0637263
0.0482131
0.0213677
0.609227
0.601207
0.592126
0.581984
0.570802
0.558624
0.545517
0.531566
0.516878
0.501567
0.48575
0.469529
0.453016
0.436323
0.419555
0.402812
0.386186
0.369754
0.353582
0.337723
0.322215
0.30708
0.29233
0.277962
0.263963
0.250311
0.236973
0.22391
0.211077
0.198419
0.185879
0.173385
0.160853
0.148174
0.135202
0.12174
0.10747
0.0915861
0.0709447
0.0322641
0.698092
0.689739
0.680163
0.669349
0.657306
0.644073
0.629723
0.614357
0.598103
0.581102
0.563499
0.545402
0.526941
0.508245
0.489433
0.470618
0.451899
0.433362
0.415076
0.397099
0.379471
0.362221
0.345362
0.328899
0.312823
0.297119
0.281758
0.266706
0.251918
0.237344
0.222922
0.208581
0.194231
0.179754
0.16498
0.149637
0.133216
0.114518
0.0897784
0.041778
0.774479
0.766279
0.756674
0.745609
0.733065
0.719066
0.703682
0.687033
0.669278
0.650602
0.631169
0.611143
0.590693
0.569982
0.549157
0.528349
0.507673
0.48722
0.467061
0.447251
0.427831
0.408823
0.39024
0.372081
0.35434
0.337
0.320033
0.303403
0.287066
0.270969
0.255046
0.23922
0.223389
0.207414
0.191085
0.174055
0.155662
0.134413
0.105818
0.0496106
0.846603
0.839038
0.829839
0.818886
0.806104
0.791478
0.775069
0.757019
0.737541
0.716897
0.695304
0.673011
0.650257
0.627257
0.604198
0.581237
0.558502
0.536088
0.514066
0.492481
0.471364
0.45073
0.430577
0.410899
0.391681
0.372903
0.354532
0.336527
0.318839
0.301406
0.284159
0.267006
0.249831
0.232467
0.214665
0.196006
0.175706
0.152024
0.119819
0.0561954
0.918841
0.912529
0.9043
0.893922
0.881211
0.86607
0.848525
0.828749
0.807056
0.783852
0.75948
0.734327
0.708735
0.682991
0.657326
0.631919
0.606903
0.582371
0.558384
0.534972
0.512146
0.489902
0.468221
0.447081
0.426459
0.406324
0.386637
0.367347
0.348395
0.329712
0.311215
0.2928
0.274331
0.255617
0.236367
0.216103
0.193935
0.167914
0.132322
0.0619796
0.994119
0.989962
0.98357
0.974512
0.962395
0.946931
0.92803
0.905902
0.881085
0.854264
0.826095
0.797188
0.768011
0.738919
0.710169
0.681945
0.654364
0.627502
0.601391
0.576038
0.551427
0.527524
0.504287
0.481673
0.459646
0.438167
0.417185
0.396635
0.376448
0.356542
0.33682
0.317163
0.297416
0.277362
0.256674
0.234821
0.21082
0.182534
0.14373
0.0671545
1.07462
1.07399
1.07085
1.06443
1.05393
1.03861
1.01803
0.992445
0.962709
0.930361
0.896808
0.862915
0.829227
0.796092
0.763733
0.73229
0.701839
0.672404
0.64398
0.616535
0.590026
0.564385
0.539517
0.51536
0.491886
0.46904
0.446748
0.424931
0.403504
0.382373
0.361426
0.340528
0.319503
0.298109
0.275988
0.252555
0.226747
0.196252
0.154357
0.0718725
1.16183
1.16672
1.16905
1.1676
1.16086
1.14712
1.12464
1.09364
1.05451
1.01342
0.972417
0.932143
0.892978
0.855114
0.81864
0.783588
0.749951
0.717696
0.686765
0.657079
0.628538
0.601013
0.574395
0.548631
0.52366
0.499402
0.475764
0.45265
0.429962
0.407588
0.385402
0.363252
0.340942
0.318205
0.29465
0.269644
0.242044
0.209373
0.164465
0.0762651
1.25616
1.26921
1.28032
1.28794
1.28998
1.28303
1.25592
1.20576
1.15432
1.10242
1.05255
1.00494
0.959567
0.916388
0.875324
0.836284
0.799165
0.763855
0.730218
0.6981
0.667341
0.637785
0.609327
0.581881
0.555348
0.529618
0.504584
0.480133
0.45615
0.432507
0.409062
0.385644
0.362037
0.337949
0.312953
0.286376
0.256989
0.222157
0.17427
0.080445
1.35651
1.38072
1.40475
1.42741
1.44734
1.43901
1.3856
1.323
1.25701
1.19444
1.13571
1.08051
1.02861
0.979777
0.933814
0.890517
0.849681
0.811095
0.77454
0.739793
0.706651
0.674956
0.644571
0.61536
0.587187
0.559924
0.533441
0.50761
0.482295
0.457355
0.432628
0.407926
0.383012
0.357569
0.331139
0.302994
0.271825
0.234837
0.183979
0.0847043
1.45984
1.49776
1.53806
1.57914
1.6168
1.58173
1.51295
1.43514
1.35903
1.28744
1.22043
1.15781
1.09935
1.04477
0.993784
0.946087
0.901375
0.859348
0.819712
0.782203
0.746595
0.712686
0.68029
0.649234
0.619355
0.5905
0.562518
0.535262
0.50858
0.482312
0.456279
0.430275
0.404041
0.377235
0.349363
0.319649
0.286701
0.247556
0.193727
0.0890278
1.56145
1.61534
1.67651
1.74524
1.79986
1.72509
1.64753
1.55203
1.46367
1.38191
1.30618
1.23602
1.17098
1.11066
1.05464
1.00251
0.953873
0.908346
0.865588
0.825289
0.787175
0.750998
0.716534
0.683579
0.651943
0.621448
0.591926
0.563208
0.535125
0.507501
0.48014
0.452815
0.425247
0.397069
0.367751
0.336467
0.301742
0.260445
0.203644
0.0934093
1.65377
1.72218
1.80322
1.9008
1.94473
1.85366
1.77489
1.66678
1.56715
1.47556
1.3913
1.31376
1.24234
1.17647
1.11558
1.05915
1.00669
0.957753
0.911936
0.868882
0.828271
0.789819
0.75327
0.71839
0.684968
0.652804
0.621709
0.5915
0.56199
0.532986
0.504276
0.475614
0.446702
0.417143
0.386377
0.353524
0.317027
0.273586
0.213812
0.0978992
1.73006
1.80681
1.89709
2.00393
2.04636
1.95718
1.88552
1.77624
1.667
1.5662
1.4739
1.38948
1.31215
1.24115
1.17576
1.11535
1.05933
1.00718
0.958457
0.912752
0.869713
0.829026
0.790409
0.753609
0.718392
0.684544
0.651859
0.620139
0.589182
0.55878
0.528705
0.498694
0.468428
0.437485
0.40527
0.370854
0.332592
0.287013
0.224256
0.102515
1.79028
1.87039
1.96291
2.06977
2.11789
2.03554
1.96579
1.88019
1.76247
1.6518
1.55197
1.46148
1.37908
1.3037
1.23444
1.17054
1.11135
1.05629
1.00488
0.956684
0.911328
0.868479
0.827839
0.789141
0.75214
0.716606
0.682323
0.649079
0.616662
0.58485
0.553399
0.522031
0.490407
0.458079
0.42442
0.388448
0.348434
0.30073
0.234984
0.107272
1.83802
1.91887
2.01015
2.11247
2.16264
2.09137
2.0157
1.94931
1.84273
1.72658
1.62222
1.52784
1.44194
1.36334
1.29108
1.22435
1.16247
1.10486
1.05102
1.00052
0.952977
0.908053
0.865447
0.824884
0.786113
0.748899
0.713016
0.678243
0.644358
0.611127
0.578294
0.545566
0.512582
0.478875
0.44378
0.406267
0.36452
0.314713
0.245989
0.112176
1.87785
1.95916
2.04871
2.14419
2.18404
2.13063
2.05558
1.99414
1.90394
1.78872
1.68379
1.58812
1.50053
1.42
1.34565
1.27675
1.21266
1.15285
1.09683
1.04419
0.99458
0.947657
0.903131
0.860731
0.820205
0.781314
0.74383
0.707523
0.672165
0.63751
0.603293
0.569204
0.534866
0.499787
0.463271
0.424237
0.380782
0.328901
0.257221
0.11721
1.9135
1.99765
2.08984
2.18747
2.21863
2.15796
2.08708
2.02211
1.9513
1.84308
1.73949
1.64409
1.55603
1.47449
1.39874
1.32816
1.26221
1.20043
1.14239
1.08773
1.03611
0.987229
0.940805
0.896577
0.854297
0.813727
0.774635
0.73679
0.699953
0.663874
0.628272
0.592827
0.557144
0.520706
0.482787
0.442256
0.397124
0.343204
0.268599
0.122339
1.94501
2.03417
2.13258
2.23954
2.26869
2.19377
2.11775
2.04782
1.98324
1.89472
1.79273
1.69823
1.6103
1.52819
1.45135
1.37929
1.3116
1.24791
1.18788
1.1312
1.07757
1.02672
0.978378
0.932304
0.888252
0.845989
0.805279
0.765887
0.727569
0.690064
0.653083
0.61629
0.579274
0.541497
0.502198
0.4602
0.413427
0.357509
0.280021
0.127515
1.96962
2.06444
2.16979
2.2852
2.31979
2.23981
2.15888
2.08427
2.0169
1.94059
1.84518
1.75287
1.66543
1.58278
1.50472
1.43102
1.36141
1.29566
1.23351
1.17468
1.11895
1.06604
1.01573
0.967762
0.921905
0.877922
0.835579
0.794632
0.75483
0.715904
0.677553
0.639427
0.601098
0.562006
0.521359
0.477929
0.429557
0.371693
0.291387
0.132696
1.98395
2.08443
2.19789
2.32554
2.37356
2.29234
2.20853
2.12968
2.05776
1.99008
1.90558
1.81301
1.72454
1.64026
1.56015
1.48415
1.41214
1.34393
1.27935
1.21816
1.16014
1.10506
1.05267
1.00274
0.955036
0.909308
0.865315
0.822809
0.781529
0.741193
0.70149
0.662055
0.622441
0.582067
0.540109
0.495292
0.445373
0.385623
0.30257
0.137816
1.98351
2.08696
2.20563
2.34374
2.42311
2.35012
2.26444
2.18357
2.11096
2.04715
1.97432
1.88064
1.78929
1.70176
1.61834
1.53907
1.46391
1.3927
1.32528
1.26142
1.20091
1.14349
1.08892
1.03697
0.987367
0.939871
0.894225
0.850168
0.807427
0.765707
0.724682
0.683972
0.643114
0.601502
0.558283
0.512135
0.460734
0.399178
0.313494
0.142853
1.9657
2.06608
2.17872
2.30388
2.43358
2.42063
2.32381
2.23885
2.16528
2.10232
2.04589
1.95902
1.8607
1.76749
1.67912
1.59546
1.51632
1.44152
1.37084
1.30402
1.24079
1.18091
1.12408
1.07005
1.01854
0.969281
0.922002
0.876424
0.83226
0.789199
0.746901
0.704969
0.66292
0.620129
0.57571
0.528298
0.47549
0.412221
0.32403
0.147775
1.93511
2.03163
2.1398
2.26071
2.39547
2.44375
2.36473
2.28517
2.21385
2.15214
2.10018
2.03638
1.93454
1.83514
1.74094
1.65205
1.56831
1.48946
1.4152
1.3452
1.27915
1.21673
1.15762
1.10152
1.04813
0.997155
0.948298
0.901261
0.85574
0.811408
0.767907
0.724824
0.681657
0.63776
0.59222
0.543625
0.489501
0.424624
0.334075
0.1525
1.89411
1.98563
2.08817
2.2034
2.3338
2.44663
2.41124
2.32969
2.25741
2.19527
2.14084
2.09774
2.01363
1.90395
1.80207
1.70708
1.61829
1.53515
1.45719
1.38398
1.31512
1.25021
1.18889
1.13081
1.07564
1.02305
0.972719
0.924329
0.877553
0.832049
0.787443
0.743306
0.699119
0.654212
0.607646
0.557968
0.502635
0.436276
0.343538
0.157024
1.84488
1.92979
2.02403
2.12843
2.24373
2.36966
2.42387
2.36264
2.29098
2.22679
2.17026
2.12289
2.06647
1.96567
1.85779
1.75745
1.664
1.57683
1.4954
1.41919
1.34771
1.28052
1.21719
1.15732
1.10054
1.04651
0.99486
0.945264
0.897375
0.850833
0.805248
0.760176
0.715082
0.669276
0.621793
0.571144
0.514719
0.44701
0.352264
0.161299
1.79075
1.86878
1.9546
2.04867
2.15138
2.26306
2.3539
2.35483
2.30532
2.24629
2.1898
2.14155
2.1003
2.01721
1.90586
1.80115
1.70362
1.61291
1.52846
1.44966
1.37596
1.30683
1.2418
1.18043
1.12232
1.06707
1.01432
0.96372
0.914898
0.867484
0.821074
0.77521
0.729344
0.682767
0.634492
0.582998
0.525614
0.45671
0.360176
0.165282
1.73454
1.80618
1.88443
1.96949
2.06139
2.15981
2.2621
2.31486
2.29793
2.25488
2.19896
2.1455
2.10241
2.05053
1.9493
1.83765
1.73575
1.64194
1.55509
1.47433
1.39897
1.3284
1.26211
1.19961
1.14049
1.08433
1.03075
0.979378
0.929839
0.881749
0.834693
0.788204
0.74172
0.694518
0.645593
0.593392
0.535196
0.465264
0.367183
0.168926
1.67807
1.74412
1.81608
1.89415
1.97849
2.06915
2.16616
2.24627
2.26361
2.24251
2.19583
2.13858
2.08733
2.03677
1.96267
1.85937
1.75678
1.66194
1.57403
1.49227
1.416
1.34461
1.27757
1.21441
1.15467
1.09794
1.04383
0.991963
0.941952
0.893408
0.845909
0.798979
0.752048
0.704383
0.654961
0.602204
0.543348
0.472557
0.37314
0.171919
1.6221
1.68319
1.74973
1.822
1.90023
1.98464
2.07536
2.16835
2.22032
2.21675
2.18116
2.12455
2.06718
2.01571
1.95898
1.86981
1.76771
1.67295
1.58497
1.50309
1.42665
1.35508
1.28785
1.22449
1.16456
1.10763
1.05333
1.00125
0.951037
0.902278
0.854554
0.807384
0.760192
0.712238
0.662487
0.609341
0.549998
0.478546
0.378072
0.174475
1.56684
1.62331
1.68486
1.75182
1.82452
1.90338
1.98896
2.08211
2.16226
2.17825
2.15218
2.10067
2.04129
1.98577
1.93113
1.862
1.76856
1.67485
1.58774
1.50656
1.4307
1.35958
1.29272
1.22965
1.16995
1.11321
1.05905
1.00708
0.956934
0.908213
0.860494
0.813295
0.76604
0.717983
0.668082
0.614725
0.555085
0.48319
0.381963
0.176635
1.51241
1.56439
1.62104
1.6827
1.74966
1.82225
1.90075
1.98532
2.07486
2.13084
2.11779
2.07184
2.01267
1.95434
1.89966
1.84058
1.75832
1.66747
1.58238
1.50276
1.42815
1.35808
1.2921
1.22978
1.17073
1.11455
1.06087
1.00932
0.95953
0.911104
0.863626
0.816618
0.769503
0.721534
0.671668
0.618288
0.558548
0.486443
0.384782
0.178381
1.45901
1.50655
1.55836
1.61474
1.67599
1.74244
1.81444
1.8925
1.97739
2.05345
2.06888
2.03536
1.97984
1.9202
1.86388
1.80728
1.73814
1.6531
1.56995
1.49215
1.41921
1.35063
1.28597
1.22484
1.16683
1.11159
1.05873
1.00791
0.958749
0.910879
0.863882
0.817284
0.770514
0.722829
0.673186
0.619969
0.56033
0.488248
0.38649
0.179734
1.40695
1.45009
1.49709
1.54822
1.60372
1.66386
1.72886
1.79893
1.87419
1.95416
2.00633
1.99029
1.94176
1.88262
1.82523
1.77003
1.70831
1.62984
1.5498
1.47455
1.40382
1.33721
1.27433
1.21479
1.15823
1.10428
1.05258
1.00279
0.954557
0.907503
0.861225
0.815258
0.769038
0.721829
0.672595
0.619724
0.560372
0.488518
0.386921
0.18029
1.35656
1.39539
1.43767
1.48365
1.53354
1.58756
1.64591
1.70877
1.77637
1.84898
1.91385
1.92986
1.89615
1.84072
1.78354
1.72948
1.67236
1.59913
1.52239
1.45008
1.38201
1.31783
1.25718
1.19966
1.14494
1.09264
1.04245
0.994001
0.946968
0.900987
0.855664
0.810545
0.765076
0.718532
0.669887
0.617541
0.558663
0.487252
0.386121
0.180355
1.30823
1.34283
1.38052
1.42149
1.46596
1.51412
1.56614
1.62217
1.68235
1.74687
1.81591
1.86578
1.84658
1.79498
1.73957
1.68724
1.63177
1.56152
1.48805
1.41891
1.35388
1.29258
1.23458
1.17953
1.12704
1.07678
1.02841
0.981618
0.936064
0.891406
0.847264
0.8032
0.758673
0.712974
0.665091
0.613442
0.55522
0.484465
0.384107
0.17983
1.2623
1.29279
1.326
1.36212
1.40137
1.44393
1.48999
1.5397
1.59306
1.64991
1.7095
1.76836
1.78791
1.74471
1.6928
1.64301
1.58618
1.5162
1.44631
1.38084
1.3194
1.2615
1.20669
1.15455
1.10473
1.05687
1.01067
0.965822
0.92201
0.878909
0.836161
0.793344
0.749936
0.705247
0.658285
0.607491
0.550092
0.480192
0.380886
0.178709
1.21911
1.2456
1.27445
1.30584
1.33999
1.37713
1.41753
1.46153
1.50954
1.56219
1.62066
1.68699
1.7328
1.69612
1.64659
1.59719
1.53296
1.46219
1.39651
1.33557
1.27855
1.2248
1.17378
1.12508
1.07835
1.03327
0.98955
0.946915
0.905081
0.863747
0.822577
0.781175
0.73904
0.695505
0.649602
0.599802
0.543376
0.474506
0.376509
0.176999
1.17902
1.20162
1.2262
1.25292
1.28197
1.31356
1.34797
1.38557
1.42688
1.47267
1.52428
1.58403
1.65539
1.63934
1.59049
1.52568
1.45778
1.39516
1.33714
1.28288
1.23169
1.18304
1.1365
1.09176
1.04852
1.00653
0.965555
0.925354
0.885685
0.84628
0.806833
0.766976
0.726235
0.683968
0.639236
0.590545
0.535216
0.467527
0.371066
0.174733
1.14239
1.16127
1.18173
1.20387
1.22782
1.25371
1.28171
1.31199
1.3448
1.3804
1.41909
1.46136
1.50768
1.52206
1.47837
1.4224
1.36961
1.31933
1.27125
1.22511
1.18069
1.13778
1.09618
1.05571
1.0162
0.977491
0.939405
0.901763
0.864364
0.826982
0.789345
0.751113
0.711842
0.670918
0.627436
0.579937
0.525802
0.459419
0.364685
0.171967
1.10963
1.12502
1.14159
1.1594
1.17849
1.19887
1.22056
1.24352
1.26764
1.29269
1.31813
1.34288
1.36456
1.37532
1.3519
1.3175
1.28055
1.24257
1.20433
1.16626
1.12856
1.09135
1.05465
1.01843
0.982629
0.947179
0.911973
0.876884
0.841759
0.806407
0.770593
0.734005
0.69623
0.656683
0.614489
0.568234
0.515357
0.450371
0.357517
0.168773
1.08108
1.09328
1.10634
1.12025
1.13497
1.15045
1.16658
1.18319
1.20002
1.21666
1.23245
1.24635
1.25673
1.26058
1.24988
1.22782
1.20132
1.17231
1.14177
1.11032
1.07837
1.04616
1.01383
0.981466
0.949084
0.916666
0.884162
0.851489
0.81853
0.785129
0.751077
0.716092
0.679786
0.641603
0.6007
0.555702
0.504118
0.440588
0.349722
0.16521
1.05697
1.06637
1.07635
1.08688
1.09789
1.10927
1.12088
1.1325
1.14384
1.15453
1.16402
1.17165
1.17655
1.17758
1.1717
1.15631
1.13537
1.11178
1.0864
1.05974
1.03216
1.00392
0.975193
0.946076
0.916628
0.886863
0.856759
0.82626
0.795274
0.763669
0.731258
0.697781
0.662873
0.626002
0.586356
0.542601
0.492312
0.430266
0.34146
0.161369
1.03746
1.04441
1.05176
1.05945
1.06739
1.07547
1.08353
1.09137
1.09871
1.10526
1.11062
1.11434
1.11593
1.11488
1.11038
1.0991
1.08131
1.06084
1.03869
1.01526
0.990795
0.965512
0.939554
0.913019
0.885962
0.858406
0.830338
0.801715
0.772459
0.74245
0.711517
0.679416
0.645801
0.61016
0.571709
0.529156
0.480141
0.419581
0.33287
0.157315
1.02257
1.0274
1.03251
1.03783
1.04328
1.04872
1.054
1.05894
1.06331
1.06684
1.06924
1.0702
1.06938
1.06647
1.0611
1.05178
1.03669
1.0181
0.997939
0.976596
0.954265
0.931091
0.907183
0.882616
0.857432
0.831647
0.805246
0.778189
0.750401
0.721769
0.692131
0.661256
0.628808
0.594297
0.556962
0.51555
0.467767
0.40867
0.324062
0.153098
1.01226
1.01525
1.01846
1.02181
1.0252
1.02851
1.03159
1.03425
1.03629
1.03747
1.03756
1.0363
1.03344
1.02876
1.02208
1.01297
0.999526
0.98216
0.963168
0.943121
0.922183
0.900453
0.878005
0.854887
0.831123
0.806715
0.781641
0.755856
0.729283
0.701813
0.673287
0.64348
0.612069
0.578577
0.542268
0.501923
0.455314
0.39764
0.315115
0.148746
1.00647
1.00786
1.00945
1.01114
1.01284
1.01441
1.0157
1.01651
1.01665
1.01589
1.01401
1.01079
1.00605
0.999635
0.991475
0.9814
0.96838
0.951853
0.933455
0.914126
0.894031
0.873236
0.851782
0.829692
0.80697
0.783602
0.759557
0.73478
0.709193
0.682684
0.655095
0.626205
0.5957
0.563116
0.527735
0.488375
0.442873
0.386566
0.306084
0.144279
1.00515
1.00514
1.00535
1.00567
1.00599
1.00616
1.00598
1.00527
1.00381
1.00134
0.997651
0.992529
0.985841
0.977534
0.967612
0.956075
0.942575
0.92622
0.907977
0.888953
0.869299
0.849052
0.828227
0.806826
0.784835
0.762226
0.738956
0.714961
0.690157
0.664429
0.637618
0.609505
0.579783
0.547997
0.513449
0.47499
0.430516
0.375507
0.297007
0.139712
1.00822
1.007
1.00607
1.00532
1.00459
1.00369
1.00241
1.0005
0.997685
0.993684
0.988211
0.981056
0.97218
0.961682
0.949703
0.936384
0.92164
0.90471
0.886232
0.867157
0.847604
0.827581
0.807084
0.786093
0.764575
0.742489
0.719777
0.696369
0.672172
0.647067
0.620892
0.593431
0.564378
0.533289
0.499481
0.461837
0.418311
0.364515
0.287901
0.135228
1.01558
1.01336
1.01157
1.01007
1.00868
1.00716
1.00523
1.00257
0.998794
0.99346
0.986129
0.976517
0.964845
0.951567
0.937058
0.921563
0.905068
0.887001
0.86789
0.84843
0.828671
0.808592
0.788161
0.767338
0.746072
0.724305
0.701968
0.678979
0.655237
0.630616
0.604954
0.578031
0.549544
0.519058
0.485905
0.448994
0.406338
0.353677
0.278873
0.130796
1.02704
1.02403
1.02169
1.01985
1.01828
1.01672
1.0148
1.01205
1.00793
1.00179
0.992846
0.980008
0.964142
0.946941
0.929181
0.911035
0.892343
0.872715
0.852638
0.832489
0.812247
0.791861
0.77127
0.750408
0.729205
0.707584
0.685463
0.662748
0.63933
0.615075
0.589816
0.563332
0.535321
0.505354
0.472776
0.436523
0.394661
0.343061
0.269991
0.126376
1.04222
1.03864
1.03607
1.03431
1.0331
1.03212
1.03091
1.02898
1.02571
1.02021
1.01108
0.993328
0.96995
0.947454
0.92576
0.904493
0.883128
0.861546
0.84016
0.819032
0.798067
0.777163
0.756223
0.735151
0.713852
0.692234
0.670197
0.647636
0.624431
0.600441
0.575492
0.549361
0.521748
0.492225
0.460153
0.424491
0.383359
0.332752
0.26134
0.122008
1.06054
1.05659
1.05409
1.05281
1.05243
1.05258
1.05288
1.05301
1.05239
1.04922
1.0318
1.0053
0.977777
0.950777
0.925376
0.900852
0.876596
0.85287
0.829945
0.807653
0.785806
0.764241
0.742816
0.721406
0.699893
0.678164
0.656106
0.633601
0.610518
0.586708
0.561993
0.536145
0.508862
0.479724
0.448099
0.412972
0.372513
0.322841
0.253015
0.117746
1.08119
1.07708
1.07495
1.07451
1.07538
1.07719
1.07967
1.0826
1.08121
1.06566
1.03753
1.00849
0.982028
0.955032
0.926325
0.898045
0.871063
0.84554
0.821222
0.797817
0.775079
0.752808
0.730835
0.709012
0.687205
0.665285
0.643127
0.620602
0.59757
0.573874
0.54933
0.523707
0.496702
0.467898
0.436675
0.402039
0.362211
0.313427
0.245114
0.113653
1.10315
1.09914
1.09776
1.09864
1.10135
1.10548
1.11045
1.11326
1.10259
1.07431
1.04155
1.00989
0.980856
0.953257
0.922822
0.893108
0.865119
0.838622
0.813351
0.789064
0.765547
0.742611
0.720087
0.697823
0.675678
0.653516
0.631203
0.608603
0.585567
0.561935
0.537514
0.512071
0.485304
0.456798