/*--------------------------------*- C++ -*----------------------------------*\
  =========                 |
  \\      /  F ield         | OpenFOAM: The Open Source CFD Toolbox
   \\    /   O peration     | Website:  https://openfoam.org
    \\  /    A nd           | Version:  8
     \\/     M anipulation  |
\*---------------------------------------------------------------------------*/
FoamFile
{
    version     2.0;
    format      ascii;
    class       volScalarField;
    location    "1.7";
    object      nut;
}
// * * * * * * * * * * * * * * * * * * * * * * * * * * * * * * * * * * * * * //

dimensions      [0 2 -1 0 0 0 0];

internalField   nonuniform List<scalar> 
9150
(
9.6009e-06
6.4195e-06
6.74877e-06
9.44784e-06
8.99555e-06
8.99549e-06
9.44793e-06
6.74883e-06
6.4195e-06
9.60091e-06
9.488e-06
5.75221e-06
8.52835e-06
1.0647e-05
8.39435e-06
8.39425e-06
1.06471e-05
8.52855e-06
5.7522e-06
9.48801e-06
9.2962e-06
5.51434e-06
1.113e-05
1.10384e-05
8.01483e-06
8.01473e-06
1.10383e-05
1.11303e-05
5.51431e-06
9.29621e-06
9.08061e-06
5.43526e-06
1.3791e-05
1.10418e-05
7.81666e-06
7.81657e-06
1.10417e-05
1.37912e-05
5.43524e-06
9.08061e-06
8.8458e-06
5.41721e-06
1.60735e-05
1.09515e-05
7.71719e-06
7.71712e-06
1.09514e-05
1.60734e-05
5.41719e-06
8.8458e-06
5.91973e-06
1.15224e-05
1.46848e-05
1.92081e-05
1.95762e-05
1.95777e-05
1.92111e-05
1.46882e-05
1.1525e-05
5.91991e-06
6.28206e-06
8.95623e-06
1.19022e-05
1.67828e-05
1.69823e-05
1.6983e-05
1.6784e-05
1.19036e-05
8.95693e-06
6.28205e-06
6.83073e-06
7.95568e-06
9.76365e-06
1.42716e-05
1.43103e-05
1.43105e-05
1.42717e-05
9.76395e-06
7.95589e-06
6.83071e-06
7.38774e-06
7.33307e-06
8.25568e-06
1.21468e-05
1.20535e-05
1.20535e-05
1.21466e-05
8.25567e-06
7.3331e-06
7.38772e-06
8.07558e-06
6.87145e-06
7.27299e-06
1.04751e-05
1.02281e-05
1.0228e-05
1.0475e-05
7.27298e-06
6.87145e-06
8.07559e-06
1.2038e-05
1.36749e-05
1.32978e-05
1.73041e-05
2.02582e-05
2.02773e-05
1.73508e-05
1.34725e-05
1.45604e-05
1.24691e-05
7.8816e-06
1.09943e-05
1.31123e-05
1.7456e-05
2.03778e-05
2.03916e-05
1.74888e-05
1.31462e-05
1.10022e-05
7.89042e-06
7.46707e-06
1.03849e-05
1.32079e-05
1.76432e-05
2.05044e-05
2.05135e-05
1.76654e-05
1.3224e-05
1.03881e-05
7.46842e-06
7.03959e-06
9.98838e-06
1.32573e-05
1.77949e-05
2.0613e-05
2.06202e-05
1.78103e-05
1.32679e-05
9.99403e-06
7.04019e-06
6.51648e-06
1.02524e-05
1.32843e-05
1.80166e-05
2.05473e-05
2.0552e-05
1.80252e-05
1.32905e-05
1.02577e-05
6.51677e-06
0.000110963
0.000111013
0.000111013
0.000110954
0.00011083
0.000110636
0.000110369
0.000110024
0.000109598
0.000109082
0.00111203
0.00111184
0.00111061
0.00110841
0.00110528
0.00110123
0.00109626
0.00109034
0.00108345
0.00107555
0.00223588
0.00223647
0.00223505
0.00223166
0.0022263
0.00221896
0.0022096
0.00219817
0.00218458
0.00216876
0.0031914
0.00319299
0.00319182
0.00318789
0.00318118
0.00317164
0.00315921
0.00314378
0.00312528
0.00310359
0.00397793
0.00398048
0.00397964
0.00397541
0.00396775
0.00395661
0.00394191
0.00392355
0.00390146
0.0038755
0.00462174
0.00462505
0.00462444
0.0046199
0.00461138
0.00459887
0.00458229
0.00456159
0.00453668
0.0045075
0.0051501
0.00515392
0.00515331
0.00514828
0.00513882
0.00512493
0.00510659
0.00508379
0.00505649
0.00502468
0.0055871
0.00559112
0.00559024
0.0055845
0.00557392
0.00555856
0.00553845
0.00551364
0.00548418
0.00545013
0.00595272
0.00595665
0.00595526
0.0059486
0.00593676
0.00591985
0.00589799
0.00587132
0.00583999
0.00580413
0.00626278
0.00626641
0.00626433
0.00625665
0.00624352
0.00622515
0.00620174
0.00617357
0.00614089
0.00610395
0.00652924
0.00653245
0.00652964
0.00652098
0.00650673
0.00648719
0.00646271
0.0064337
0.00640058
0.00636377
0.00676077
0.00676352
0.00676005
0.00675062
0.0067356
0.00671544
0.00669064
0.00666178
0.0066295
0.00659445
0.00696328
0.00696561
0.00696164
0.00695177
0.0069365
0.00691644
0.00689228
0.00686481
0.00683489
0.00680347
0.00714058
0.00714254
0.00713828
0.00712833
0.00711338
0.00709422
0.00707175
0.00704698
0.007021
0.00699506
0.00729496
0.00729654
0.0072921
0.00728239
0.00726826
0.00725071
0.00723084
0.00720987
0.00718912
0.00717011
0.00742769
0.00742876
0.00742415
0.0074148
0.00740174
0.00738618
0.0073694
0.00735277
0.00733777
0.00732598
0.00753948
0.00753979
0.00753485
0.00752575
0.00751371
0.00750009
0.00748632
0.00747387
0.00746426
0.007459
0.00763097
0.00763018
0.00762458
0.00761541
0.00760405
0.00759197
0.00758068
0.0075717
0.00756655
0.00756662
0.00770297
0.00770075
0.00769413
0.00768448
0.00767327
0.00766208
0.00765249
0.00764605
0.00764422
0.0076483
0.00775661
0.00775276
0.00774486
0.00773438
0.00772287
0.00771196
0.00770326
0.00769834
0.00769867
0.00770553
0.00779341
0.0077879
0.00777867
0.00776723
0.00775518
0.00774416
0.00773582
0.00773175
0.00773345
0.00774226
0.00781518
0.00780821
0.00779783
0.00778555
0.00777298
0.00776177
0.00775358
0.00775003
0.00775266
0.00776294
0.0078239
0.00781586
0.0078047
0.00779192
0.00777911
0.00776789
0.00775991
0.00775679
0.00776011
0.00777142
0.00782156
0.00781297
0.00780154
0.00778873
0.00777609
0.0077652
0.00775767
0.00775508
0.00775899
0.00777097
0.00781003
0.00780143
0.00779025
0.00777789
0.00776584
0.00775563
0.00774879
0.00774685
0.00775131
0.00776365
0.00779102
0.00778288
0.00777235
0.0077608
0.00774963
0.00774027
0.00773417
0.00773275
0.00773743
0.00774955
0.00776607
0.00775868
0.00774907
0.00773851
0.00772831
0.00771981
0.00771435
0.00771325
0.00771779
0.00772918
0.00773652
0.00773001
0.00772137
0.00771179
0.00770248
0.00769469
0.00768966
0.0076886
0.0076927
0.00770305
0.00770349
0.0076978
0.00769002
0.00768123
0.00767256
0.00766516
0.00766019
0.00765877
0.00766198
0.00767085
0.00766786
0.00766282
0.00765565
0.00764734
0.00763894
0.0076315
0.00762608
0.00762374
0.00762548
0.00763224
0.00763025
0.00762566
0.00761883
0.00761069
0.00760215
0.0075942
0.00758782
0.00758397
0.00758359
0.00758757
0.00759112
0.00758681
0.00758012
0.00757186
0.00756288
0.00755405
0.00754627
0.00754044
0.00753744
0.0075381
0.00755077
0.00754667
0.00754001
0.0075315
0.00752189
0.00751197
0.00750256
0.0074945
0.0074886
0.00748565
0.0075093
0.00750546
0.00749885
0.0074901
0.00747987
0.00746886
0.00745781
0.00744749
0.00743867
0.00743209
0.0074666
0.00746318
0.0074568
0.00744798
0.0074373
0.00742539
0.00741289
0.00740051
0.00738896
0.00737896
0.00742233
0.00741958
0.0074137
0.00740513
0.00739434
0.00738187
0.0073683
0.00735424
0.00734036
0.00732733
0.00737586
0.00737411
0.0073691
0.00736118
0.00735073
0.0073382
0.00732408
0.00730891
0.00729327
0.00727777
0.0073263
0.00732591
0.00732219
0.00731539
0.00730583
0.00729385
0.00727984
0.00726425
0.00724757
0.00723033
0.0072725
0.00727383
0.00727183
0.00726668
0.00725859
0.00724782
0.00723467
0.00721947
0.00720262
0.00718455
0.00721314
0.0072165
0.00721662
0.0072136
0.00720758
0.00719871
0.0071872
0.00717328
0.00715723
0.00713938
0.00714678
0.0071524
0.00715496
0.00715449
0.00715106
0.00714473
0.00713562
0.00712386
0.00710962
0.00709312
0.00707196
0.00707999
0.0070852
0.00708759
0.00708715
0.00708389
0.00707783
0.00706902
0.00705753
0.00704346
0.00698739
0.00699784
0.00700579
0.00701121
0.00701402
0.00701419
0.00701166
0.00700639
0.00699839
0.00698766
0.00689206
0.00690485
0.00691553
0.00692399
0.00693016
0.00693391
0.00693516
0.00693381
0.00692979
0.00692304
0.00678541
0.00680041
0.00681369
0.00682512
0.00683458
0.00684192
0.006847
0.00684969
0.00684986
0.00684738
0.00666744
0.0066845
0.00670022
0.00671446
0.00672707
0.00673786
0.00674667
0.0067533
0.0067576
0.0067594
0.00653882
0.0065578
0.00657581
0.0065927
0.00660826
0.0066223
0.00663459
0.00664494
0.00665314
0.00665901
0.0064009
0.00642174
0.00644194
0.00646132
0.00647965
0.0064967
0.00651221
0.00652596
0.00653772
0.00654728
0.00625575
0.00627844
0.00630079
0.00632257
0.00634352
0.00636336
0.00638181
0.00639862
0.00641355
0.00642637
0.00610602
0.00613063
0.00615515
0.00617929
0.00620273
0.00622519
0.00624633
0.00626588
0.00628358
0.00629919
0.00595493
0.00598153
0.00600823
0.00603469
0.00606054
0.00608545
0.00610905
0.00613103
0.00615113
0.0061691
0.00580599
0.00583458
0.00586343
0.00589213
0.00592027
0.00594745
0.00597328
0.0059974
0.00601954
0.00603946
0.00566284
0.00569326
0.00572408
0.00575483
0.00578504
0.00581424
0.00584202
0.00586796
0.00589177
0.00591323
0.0055289
0.00556074
0.00559314
0.00562557
0.00565747
0.00568833
0.00571766
0.00574502
0.00577009
0.00579266
0.00540711
0.00543964
0.00547297
0.00550646
0.00553947
0.00557142
0.00560176
0.00563002
0.00565582
0.00567898
0.00529962
0.0053318
0.00536509
0.00539875
0.00543206
0.00546432
0.00549493
0.00552337
0.00554923
0.00557233
0.00520774
0.00523817
0.00527012
0.00530277
0.00533528
0.00536684
0.00539675
0.00542447
0.00544954
0.0054718
0.00513191
0.0051588
0.00518779
0.00521793
0.00524825
0.00527781
0.00530582
0.00533168
0.00535495
0.00537547
0.0050717
0.00509288
0.00511694
0.00514276
0.00516919
0.00519515
0.00521976
0.00524238
0.00526263
0.00528039
0.00502577
0.00503877
0.00505563
0.00507501
0.00509554
0.005116
0.0051354
0.00515311
0.00516886
0.00518269
0.00499174
0.00499393
0.00500116
0.00501177
0.00502412
0.00503683
0.00504886
0.00505967
0.00506919
0.00507774
0.0049661
0.00495499
0.00495019
0.00494958
0.00495125
0.00495365
0.00495581
0.00495736
0.00495859
0.0049603
0.00494426
0.00491782
0.00489879
0.00488457
0.00487291
0.00486221
0.00485166
0.0048413
0.00483194
0.004825
0.00492074
0.00487766
0.00484262
0.0048125
0.00478486
0.00475816
0.00473195
0.00470688
0.00468453
0.00466712
0.00488974
0.00482953
0.00477707
0.00472899
0.00468281
0.00463733
0.00459267
0.00455032
0.00451282
0.00448337
0.00484654
0.00476879
0.0046976
0.00462963
0.0045627
0.00449614
0.0044309
0.00436945
0.00431543
0.00427308
0.00478677
0.00469082
0.00459966
0.00451032
0.00442118
0.00433232
0.00424562
0.00416465
0.00409416
0.00403935
0.00470551
0.00459086
0.00447914
0.00436803
0.00425663
0.00414587
0.00403864
0.00393957
0.00385443
0.00378923
0.00459858
0.00446553
0.00433394
0.00420225
0.00407034
0.00394001
0.00381508
0.00370113
0.00360479
0.00353266
0.00446483
0.00431476
0.00416539
0.00401591
0.00386696
0.00372103
0.00358269
0.00345829
0.00335505
0.00327989
0.00430704
0.00414209
0.00397806
0.00381482
0.00365348
0.00349695
0.00335022
0.00322008
0.00311415
0.00303939
0.00413009
0.00395301
0.00377822
0.00360594
0.00343741
0.00327553
0.0031253
0.00299363
0.0028883
0.00281629
0.00393951
0.00375372
0.00357243
0.00339593
0.00322521
0.0030627
0.00291299
0.00278281
0.00268003
0.00261176
0.00374194
0.00355097
0.00336709
0.00319046
0.00302153
0.00286191
0.00271538
0.00258826
0.00248842
0.00242319
0.00354528
0.00335188
0.00316812
0.00299394
0.00282916
0.00267438
0.0025323
0.00240851
0.00231083
0.00224691
0.00335738
0.00316295
0.00298028
0.00280924
0.0026492
0.00249979
0.00236244
0.00224174
0.0021453
0.00208137
0.00318391
0.00298853
0.00280634
0.00263746
0.0024812
0.00233655
0.00220373
0.0020861
0.00199093
0.00192712
0.00302748
0.0028304
0.00264703
0.00247811
0.00232342
0.0021819
0.00205289
0.00193853
0.00184544
0.001783
0.00288859
0.00268842
0.00250159
0.00232969
0.00217345
0.00203245
0.00190581
0.00179465
0.00170476
0.00164563
0.00276614
0.00256099
0.00236815
0.00219009
0.00202875
0.00188494
0.00175835
0.00164968
0.00156406
0.00151072
0.00265682
0.00244483
0.00224371
0.00205662
0.00188676
0.00173653
0.00160692
0.00149912
0.00141821
0.00137335
0.00255546
0.0023352
0.00212411
0.00192585
0.00174475
0.00158489
0.0014491
0.00134001
0.00126417
0.00123068
0.00245605
0.00222644
0.0020043
0.00179365
0.00159965
0.00142805
0.001284
0.00117264
0.00110277
0.0010843
0.00235197
0.00211218
0.00187852
0.00165519
0.001448
0.00126435
0.00111207
0.00099893
0.00093794
0.000939468
0.00223527
0.00198512
0.0017404
0.00150536
0.00128641
0.0010929
0.00093469
0.000823215
0.000777023
0.000803796
0.00209663
0.00183774
0.001584
0.00134003
0.00111327
0.000914158
0.000755377
0.000653076
0.000630609
0.000685551
0.00193151
0.00166618
0.00140701
0.00115909
0.000929872
0.000731542
0.00058099
0.000500346
0.000511005
0.000591775
0.00173785
0.00147004
0.00121111
0.000965674
0.000740946
0.000551557
0.000421996
0.000379154
0.000426696
0.000525391
0.00151687
0.0012532
0.00100229
0.000767412
0.000555021
0.000383876
0.000291608
0.000298794
0.000376323
0.000482815
0.00127791
0.00102763
0.000793715
0.000577457
0.000384647
0.000241394
0.000201284
0.000255981
0.000350597
0.000457727
0.00104233
0.000815194
0.000604829
0.000412161
0.000243636
0.000136945
0.000150767
0.000235983
0.000337249
0.000442531
0.000836023
0.000636552
0.000451475
0.00028233
0.000140215
7.43236e-05
0.000125132
0.000223555
0.000326316
0.000428931
0.000676767
0.00049997
0.000336692
0.000187719
7.39969e-05
4.37811e-05
0.000107943
0.000210752
0.000314166
0.000414787
0.000558782
0.000398564
0.000250787
0.000120716
3.83228e-05
3.03091e-05
9.09404e-05
0.000194794
0.000300328
0.000400753
0.000471207
0.000321654
0.00018492
7.37266e-05
2.32908e-05
2.39141e-05
7.25488e-05
0.000174419
0.000284381
0.000387453
0.000397225
0.000257755
0.000131933
4.36829e-05
1.93819e-05
2.07822e-05
5.43105e-05
0.000149664
0.000265492
0.000374582
0.000327399
0.000202439
9.02276e-05
2.77315e-05
1.96639e-05
2.00013e-05
3.8637e-05
0.000120989
0.000242403
0.000360319
0.000268107
0.000160759
6.14639e-05
2.14341e-05
2.00469e-05
2.01497e-05
2.76742e-05
9.04417e-05
0.000214212
0.000343844
0.000259158
0.000141268
4.36153e-05
1.92008e-05
2.01206e-05
2.02024e-05
2.15174e-05
6.11051e-05
0.000182682
0.00033298
0.000429962
0.000124962
2.77684e-05
1.78667e-05
2.01676e-05
2.0204e-05
1.83824e-05
3.36877e-05
0.000140957
0.000423981
0.00010842
0.000107625
0.000106703
0.00010565
0.000104462
0.000103138
0.000101677
0.000100079
9.83473e-05
9.6497e-05
9.46642e-05
9.28187e-05
9.09271e-05
8.89825e-05
8.69899e-05
8.49595e-05
8.29034e-05
8.08339e-05
7.8762e-05
7.66972e-05
7.46469e-05
7.26161e-05
7.0607e-05
6.86191e-05
6.66491e-05
6.46909e-05
6.27356e-05
6.07724e-05
5.87881e-05
5.67674e-05
5.46918e-05
5.25378e-05
5.02725e-05
4.78441e-05
4.51384e-05
4.19963e-05
3.83852e-05
3.40233e-05
2.89642e-05
1.11938e-05
0.00106607
0.0010547
0.00104192
0.00102775
0.00101221
0.000995338
0.000977209
0.000957874
0.000937296
0.000915102
0.000889983
0.000863264
0.000835921
0.000808635
0.000781881
0.000755984
0.000731148
0.000707483
0.000685016
0.000663716
0.000643503
0.000624261
0.000605845
0.000588085
0.000570797
0.00055379
0.000536873
0.000519862
0.000502574
0.000484819
0.000466369
0.000446918
0.000425998
0.000402832
0.000376022
0.00034287
0.000300481
0.000241294
0.000145922
1.83272e-05
0.00214952
0.00212618
0.00209975
0.00207021
0.00203759
0.00200196
0.00196345
0.00192218
0.00187828
0.00183172
0.00178229
0.00173063
0.00167771
0.0016244
0.00157146
0.00151948
0.00146891
0.00142006
0.0013731
0.00132807
0.00128494
0.00124354
0.00120367
0.00116504
0.00112732
0.00109014
0.00105309
0.00101573
0.000977604
0.000938136
0.000896637
0.000852179
0.000803447
0.000748491
0.000684348
0.000606525
0.000508368
0.000379855
0.000206924
2.25173e-05
0.00307704
0.0030447
0.00300798
0.00296681
0.00292123
0.00287131
0.00281724
0.00275925
0.00269763
0.00263267
0.00256465
0.0024941
0.0024219
0.00234891
0.00227595
0.00220368
0.00213268
0.00206336
0.00199597
0.00193065
0.00186738
0.00180603
0.00174636
0.00168804
0.00163062
0.00157362
0.00151644
0.00145843
0.00139883
0.0013367
0.0012709
0.00119991
0.0011217
0.00103346
0.00093128
0.000809696
0.000661256
0.000476383
0.000247069
2.56284e-05
0.00384372
0.00380499
0.00376103
0.00371178
0.00365725
0.00359755
0.00353287
0.00346353
0.00338992
0.00331252
0.00323159
0.00314785
0.00306214
0.00297529
0.00288805
0.00280111
0.00271503
0.00263025
0.00254707
0.00246563
0.00238594
0.00230787
0.00223116
0.00215543
0.00208019
0.00200483
0.00192864
0.00185078
0.00177024
0.0016858
0.00159595
0.00149874
0.00139166
0.00127139
0.00113354
0.000972395
0.00078067
0.000550066
0.000276904
2.7928e-05
0.00447186
0.00442858
0.00437961
0.00432492
0.00426453
0.00419853
0.00412712
0.00405063
0.00396949
0.00388424
0.00379513
0.00370296
0.00360853
0.00351258
0.00341582
0.00331887
0.00322224
0.00312633
0.00303143
0.00293765
0.00284499
0.00275331
0.00266232
0.0025716
0.0024806
0.00238864
0.00229492
0.00219844
0.00209804
0.00199229
0.0018794
0.00175717
0.00162278
0.00147267
0.00130232
0.00110609
0.000877216
0.000608798
0.000300588
2.97249e-05
0.00498605
0.00493942
0.00488698
0.0048287
0.00476463
0.00469484
0.0046195
0.00453891
0.00445347
0.00436371
0.00426995
0.00417297
0.00407349
0.00397217
0.0038696
0.00376631
0.00366272
0.00355915
0.00345582
0.00335283
0.00325011
0.00314749
0.00304466
0.00294116
0.00283638
0.00272959
0.00261992
0.00250629
0.00238741
0.0022617
0.00212723
0.00198163
0.00182195
0.00164455
0.00144497
0.00121783
0.000956996
0.000656867
0.000319944
3.12185e-05
0.00540911
0.00536
0.00530519
0.0052447
0.00517854
0.00510676
0.00502943
0.00494676
0.00485916
0.00476704
0.00467099
0.0045717
0.00446979
0.00436577
0.00426011
0.00415318
0.00404529
0.00393667
0.00382745
0.00371765
0.00360717
0.0034958
0.00338317
0.00326878
0.003152
0.00303205
0.00290802
0.00277876
0.0026429
0.00249879
0.00234441
0.00217731
0.00199453
0.00179247
0.00156681
0.00131251
0.00102412
0.000697157
0.000336294
3.24974e-05
0.00576137
0.0057107
0.00565467
0.00559331
0.00552654
0.00545422
0.00537625
0.00529259
0.0052036
0.00511004
0.00501288
0.0049127
0.00480992
0.00470488
0.00459784
0.00448904
0.00437864
0.00426676
0.00415342
0.00403858
0.00392207
0.00380364
0.00368284
0.00355914
0.0034319
0.00330032
0.00316343
0.00302005
0.00286877
0.00270788
0.00253534
0.00234869
0.00214501
0.00192079
0.00167195
0.00139384
0.0010816
0.000731729
0.000350554
3.36215e-05
0.00606051
0.00600969
0.00595419
0.00589394
0.00582869
0.00575795
0.00568076
0.00559628
0.00550397
0.00540809
0.00530965
0.00520881
0.00510564
0.00500022
0.0048926
0.00478282
0.0046709
0.00455682
0.0044405
0.00432182
0.00420052
0.00407626
0.00394857
0.00381688
0.00368052
0.00353867
0.00339032
0.00323427
0.00306907
0.00289301
0.00270404
0.00249973
0.00227724
0.0020332
0.00176379
0.00146472
0.00113173
0.00076209
0.000363362
3.46356e-05
0.0063213
0.0062726
0.00622055
0.00616523
0.00610645
0.00604369
0.00596624
0.00587149
0.00577416
0.00567439
0.00557355
0.00547129
0.00536728
0.00526126
0.00515303
0.00504245
0.00492935
0.00481356
0.0046949
0.00457309
0.00444781
0.00431862
0.00418502
0.00404641
0.00390209
0.00375119
0.00359268
0.00342532
0.00324765
0.00305795
0.0028542
0.00263401
0.00239463
0.00213285
0.00184507
0.00152744
0.00117618
0.000789243
0.0003751
3.5574e-05
0.00655519
0.00651171
0.00646732
0.00642288
0.00637935
0.00632084
0.00622938
0.00612812
0.00602268
0.00591802
0.00581374
0.00570901
0.00560323
0.00549587
0.00538654
0.00527484
0.00516044
0.00504301
0.00492219
0.00479759
0.00466879
0.00453528
0.00439654
0.00425189
0.00410058
0.0039417
0.00377418
0.00359675
0.00340793
0.00320601
0.00298898
0.00275452
0.00249995
0.00222224
0.00191803
0.00158373
0.001216
0.000813388
0.000385309
3.6506e-05
0.00676984
0.00673471
0.00670177
0.00667224
0.00664584
0.00657608
0.00647568
0.00636528
0.0062543
0.00614478
0.00603627
0.0059281
0.00581958
0.00571004
0.00559887
0.00548551
0.00536943
0.00525012
0.00512707
0.0049998
0.00486777
0.00473042
0.00458712
0.00443716
0.00427971
0.00411379
0.00393831
0.00375196
0.00355323
0.00334041
0.0031115
0.00286423
0.00259601
0.00230394
0.00198484
0.00163541
0.00125267
0.000835678
0.000394777
3.74286e-05
0.00696944
0.00694586
0.00692894
0.00692175
0.00691079
0.00682087
0.00671539
0.00659317
0.00647453
0.00635875
0.00624502
0.00613253
0.00602044
0.00590794
0.00579426
0.00567864
0.00556039
0.00543887
0.00531344
0.0051835
0.00504843
0.00490757
0.0047602
0.00460553
0.00444266
0.00427058
0.0040881
0.00389388
0.00368641
0.00346392
0.00322443
0.0029657
0.00268521
0.00238018
0.00204758
0.00168434
0.00128779
0.000857434
0.000404329
3.83414e-05
0.00715413
0.00714406
0.00714566
0.00716549
0.00715365
0.00705326
0.00694602
0.00681354
0.0066859
0.00656255
0.00644255
0.00632488
0.00620851
0.0060924
0.0059756
0.0058572
0.00573636
0.00561232
0.00548434
0.00535171
0.0052137
0.00506958
0.00491854
0.0047597
0.0045921
0.00441462
0.00422604
0.00402496
0.0038098
0.00357879
0.00332993
0.00306098
0.00276948
0.00245271
0.00210779
0.00173182
0.00132237
0.000879295
0.000414203
3.92553e-05
0.00731934
0.0073209
0.00733538
0.00736759
0.00735827
0.0072615
0.00715963
0.00702472
0.00688789
0.00675628
0.00662944
0.00650615
0.00638507
0.00626495
0.00614464
0.00602309
0.00589935
0.00577257
0.00564191
0.00550657
0.00536575
0.00521862
0.00506429
0.00490179
0.00473007
0.00454794
0.0043541
0.00414708
0.00392525
0.00368678
0.00342965
0.00315161
0.00285021
0.00252278
0.00216653
0.00177866
0.00135696
0.000901514
0.000424402
4.01745e-05
0.00746027
0.00747071
0.00749341
0.00753102
0.00752929
0.00744128
0.00734568
0.00722551
0.00707944
0.00693848
0.00680472
0.00667589
0.00655016
0.00642598
0.00630204
0.00617721
0.00605045
0.00592084
0.00578749
0.00564953
0.00550608
0.00535623
0.005199
0.00503335
0.00485812
0.00467205
0.00447375
0.00426167
0.0040341
0.00378916
0.00352478
0.00323867
0.00292836
0.0025912
0.00222443
0.00182536
0.00139185
0.0009242
0.000434913
4.11001e-05
0.00757419
0.00759137
0.00761969
0.00765969
0.00766442
0.00758814
0.0074947
0.00739108
0.0072516
0.00710443
0.00696563
0.00683244
0.00670276
0.00657494
0.00644763
0.00631966
0.00619
0.00605769
0.0059218
0.00578143
0.00563564
0.00548342
0.00532375
0.00515546
0.00497734
0.00478802
0.00458602
0.0043697
0.00413728
0.00388679
0.00361608
0.00332282
0.00300449
0.00265842
0.00228185
0.00187211
0.00142715
0.000947412
0.000445783
4.20341e-05
0.00766069
0.00768326
0.00771645
0.00775843
0.00776422
0.00770327
0.0076155
0.00752075
0.00739496
0.00724859
0.00710863
0.0069734
0.00684124
0.00671074
0.00658072
0.00645011
0.00631793
0.00618326
0.00604519
0.00590276
0.00575501
0.00560087
0.00543924
0.00526888
0.00508848
0.00489658
0.0046916
0.00447183
0.00423536
0.00398015
0.00370396
0.00340438
0.00307884
0.00272459
0.00233884
0.00191892
0.00146281
0.000971047
0.000456919
4.29725e-05
0.00772149
0.00774837
0.00778632
0.00783355
0.00784088
0.00778381
0.00770658
0.00761786
0.00751035
0.00737121
0.00723282
0.00709766
0.00696461
0.00683263
0.0067008
0.00656826
0.00643416
0.00629766
0.00615788
0.00601387
0.00586463
0.00570907
0.005546
0.00537413
0.00519204
0.0049982
0.00479093
0.00456841
0.00432864
0.00406947
0.00378858
0.00348344
0.00315139
0.00278962
0.00239526
0.0019656
0.00149861
0.000994929
0.000468209
4.39092e-05
0.00776107
0.00779198
0.00783548
0.00789124
0.00790252
0.00784498
0.00777354
0.00769125
0.00759644
0.00747495
0.00733954
0.00720595
0.00707329
0.00694087
0.0068081
0.00667435
0.00653896
0.0064012
0.00626024
0.00611516
0.00596494
0.00580845
0.00564446
0.0054716
0.00528839
0.00509319
0.00488425
0.00465962
0.00441722
0.00415479
0.00386988
0.00355986
0.00322197
0.00285328
0.00245083
0.00201184
0.00153427
0.0010188
0.000479491
4.48357e-05
0.0077841
0.00781868
0.0078675
0.00793083
0.0079497
0.00789628
0.00782985
0.00775346
0.00766587
0.00755848
0.00743083
0.00730041
0.00716903
0.00703684
0.00690369
0.00676928
0.00663311
0.00649458
0.00635291
0.00620721
0.00605645
0.00589949
0.00573503
0.00556165
0.0053778
0.00518176
0.00497167
0.0047455
0.00450106
0.00423597
0.00394766
0.00363338
0.00329024
0.0029152
0.00250517
0.00205729
0.00156947
0.00104245
0.000490683
4.57453e-05
0.00779431
0.0078318
0.00788557
0.0079578
0.00798795
0.0079404
0.00787913
0.00780794
0.00772629
0.00763128
0.00751417
0.0073856
0.00725505
0.00712297
0.00698952
0.00685461
0.0067179
0.00657885
0.00643677
0.00629076
0.00613979
0.00598268
0.0058181
0.00564458
0.00546047
0.005264
0.00505322
0.00482599
0.00458001
0.00431278
0.00402161
0.00370364
0.00335581
0.00297495
0.00255787
0.00210155
0.00160386
0.00106558
0.000501579
4.66279e-05
0.00779474
0.00783356
0.00788986
0.00796833
0.00801785
0.00798105
0.00792505
0.00786007
0.00778599
0.00770048
0.00759382
0.0074664
0.00733537
0.00720245
0.00706809
0.00693232
0.00679489
0.00665529
0.00651283
0.0063666
0.00621557
0.0060585
0.00589403
0.00572061
0.00553654
0.00533996
0.00512883
0.00490092
0.00465382
0.00438491
0.00409137
0.00377021
0.00341821
0.00303208
0.00260845
0.00214421
0.00163713
0.00108805
0.00051221
4.74822e-05
0.00778747
0.00782547
0.00787872
0.00794786
0.00802619
0.00802675
0.00796985
0.00790939
0.00784213
0.00776464
0.00767217
0.00754925
0.00741415
0.00727831
0.00714171
0.00700422
0.0068655
0.00672499
0.00658194
0.00643541
0.0062843
0.00612732
0.00596304
0.00578986
0.00560601
0.00540955
0.00519833
0.00497005
0.00472218
0.00445198
0.0041565
0.0038326
0.00347694
0.00308604
0.00265641
0.0021848
0.00166889
0.00110953
0.00052235
4.83107e-05
0.00777251
0.00780875
0.00785933
0.00792565
0.00800896
0.00804484
0.0080045
0.0079523
0.00789203
0.00782179
0.00773867
0.00763051
0.00749216
0.00735183
0.00721155
0.00707124
0.00693047
0.00678853
0.00664455
0.00649749
0.00634617
0.00618924
0.00602517
0.0058523
0.00566878
0.00547258
0.00526148
0.00503308
0.00478472
0.00451356
0.00421653
0.00389032
0.00353145
0.00313629
0.00270121
0.00222281
0.00169869
0.00112971
0.000531887
4.90892e-05
0.00775057
0.0077841
0.00783082
0.00789238
0.00797114
0.00804422
0.00803532
0.00798728
0.00793209
0.00786779
0.00779052
0.00769961
0.00757082
0.00742266
0.00727708
0.00713302
0.00698956
0.00684575
0.00670054
0.00655275
0.0064011
0.00624413
0.00608024
0.0059077
0.00572457
0.00552875
0.00531792
0.00508958
0.00484098
0.00456915
0.0042709
0.00394278
0.00358116
0.00318226
0.00274227
0.00225768
0.00172598
0.00114809
0.000540467
4.98189e-05
0.0077225
0.00775291
0.00779505
0.00784998
0.00791851
0.00800049
0.00804116
0.00801026
0.00795958
0.00789894
0.00782641
0.00774041
0.00763125
0.00748712
0.00733619
0.00718815
0.00704177
0.0068959
0.00674931
0.0066007
0.00644865
0.00629163
0.00612794
0.00595577
0.0057731
0.00557775
0.00536733
0.00513922
0.0048906
0.00461838
0.00431923
0.00398957
0.00362563
0.00322347
0.00277912
0.00228893
0.00175033
0.00116429
0.000547835
5.04989e-05
0.00768792
0.00771482
0.00775219
0.00780079
0.0078612
0.00793379
0.00799725
0.00800493
0.00797002
0.00791529
0.0078471
0.00776666
0.00767151
0.00753886
0.00738532
0.00723417
0.00708524
0.00693752
0.00678972
0.00664041
0.00648808
0.0063311
0.0061677
0.005996
0.0058139
0.00561916
0.0054093
0.00518163
0.00493322
0.00466087
0.00436115
0.00403036
0.00366456
0.00325966
0.00281158
0.00231651
0.0017718
0.00117851
0.000554225
5.11198e-05
0.00764628
0.00766903
0.0077011
0.0077431
0.00779523
0.00785717
0.00792645
0.00796525
0.00795423
0.00791252
0.0078486
0.00777084
0.00768232
0.00757272
0.00742542
0.00726954
0.0071181
0.00696894
0.00682035
0.00667071
0.00651839
0.0063617
0.00619882
0.00602777
0.00584644
0.00565249
0.00544338
0.00521637
0.00496841
0.00469625
0.00439631
0.00406479
0.00369762
0.00329059
0.00283945
0.00234029
0.00179038
0.00119083
0.00055972
5.16901e-05
0.00759786
0.00761571
0.00764191
0.00767704
0.00772144
0.00777514
0.00783794
0.00789266
0.00790556
0.00788159
0.00782762
0.00775291
0.00766639
0.00756513
0.00743897
0.00728937
0.00713757
0.00698822
0.00683967
0.00669033
0.00653853
0.00638254
0.0062205
0.00605042
0.00587011
0.00567721
0.00546912
0.00524302
0.00499581
0.00472413
0.00442435
0.00409254
0.00372453
0.00331598
0.00286252
0.00236012
0.00180599
0.00120128
0.000564462
5.2155e-05
0.00754406
0.00755642
0.0075762
0.00760407
0.0076405
0.00768578
0.00773996
0.0078
0.00783478
0.00782707
0.00778531
0.00771689
0.00763391
0.00754013
0.00742986
0.00729154
0.00714155
0.00699355
0.00684622
0.00669805
0.00654747
0.00639275
0.00623203
0.00606331
0.00588438
0.00569285
0.00548608
0.00526119
0.00501504
0.00474421
0.00444497
0.00411333
0.00374501
0.00333557
0.00288054
0.00237578
0.00181843
0.00120965
0.000568257
5.25509e-05
0.00748697
0.00749353
0.00750663
0.007527
0.00755529
0.007592
0.00763764
0.007693
0.0077431
0.00775206
0.00772234
0.007663
0.00758527
0.00749635
0.00739487
0.00727371
0.00713115
0.00698498
0.00683958
0.00669333
0.00654462
0.00639175
0.00623287
0.00606597
0.00588883
0.00569903
0.00549391
0.00527057
0.00502582
0.00475618
0.00445789
0.00412687
0.00375879
0.00334911
0.00289327
0.00238705
0.00182749
0.00121577
0.000570985
5.28814e-05
0.00742876
0.00742951
0.00743593
0.00744883
0.00746893
0.00749683
0.00753298
0.00757764
0.00762998
0.00766183
0.0076458
0.00759578
0.00752422
0.00744017
0.00734552
0.00723611
0.0071039
0.00696157
0.00681923
0.00667571
0.00652959
0.0063792
0.00622271
0.00605812
0.00588321
0.00569554
0.00549243
0.00527097
0.00502795
0.00475986
0.0044629
0.00413296
0.00376565
0.00335638
0.00290051
0.00239373
0.00183302
0.00121955
0.000572642
5.31476e-05
0.00737117
0.00736634
0.00736626
0.00737182
0.0073838
0.00740288
0.00742964
0.00746466
0.00750878
0.00755068
0.00755378
0.00751602
0.00745155
0.00737193
0.00728183
0.00717941
0.00705993
0.00692424
0.00678535
0.00664524
0.00650237
0.00635509
0.00620156
0.00603977
0.00586751
0.00568234
0.00548159
0.00526233
0.00502134
0.00475513
0.00445988
0.00413145
0.00376544
0.00335721
0.00290207
0.00239568
0.00183493
0.00122094
0.000573208
5.33538e-05
0.0073155
0.00730547
0.00729926
0.00729779
0.00730189
0.0073123
0.00732964
0.00735439
0.00738683
0.00742677
0.00744958
0.00742623
0.00737012
0.00729503
0.0072091
0.00711265
0.00700159
0.00687289
0.00673846
0.00660246
0.00646346
0.00631983
0.00616975
0.00601121
0.00584198
0.00565965
0.00546155
0.00524475
0.00500607
0.00474201
0.00444878
0.00412225
0.00375802
0.00335145
0.00289783
0.00239277
0.00183313
0.00121999
0.00057285
5.34442e-05
0.00726248
0.00724783
0.007236
0.00722793
0.00722449
0.0072265
0.00723466
0.00724955
0.00727169
0.00730165
0.00733023
0.00732614
0.00728171
0.00721177
0.00712939
0.00703754
0.0069328
0.00681006
0.00668015
0.00654853
0.00641378
0.00627422
0.00612798
0.00597303
0.00580714
0.0056279
0.00543266
0.00521852
0.00498233
0.00472064
0.00442969
0.00410539
0.00374338
0.00333904
0.00288767
0.00238486
0.00182745
0.00121642
0.000571226
5.34555e-05
0.00721235
0.00719385
0.0071771
0.00716302
0.00715249
0.0071464
0.00714553
0.00715055
0.00716202
0.00718038
0.00720601
0.00722006
0.00718719
0.00712224
0.00704357
0.00695544
0.00685426
0.00673596
0.00661086
0.00648411
0.00635413