/*--------------------------------*- C++ -*----------------------------------*\
  =========                 |
  \\      /  F ield         | OpenFOAM: The Open Source CFD Toolbox
   \\    /   O peration     | Website:  https://openfoam.org
    \\  /    A nd           | Version:  8
     \\/     M anipulation  |
\*---------------------------------------------------------------------------*/
FoamFile
{
    version     2.0;
    format      ascii;
    class       volScalarField;
    location    "1.15";
    object      alpha.water;
}
// * * * * * * * * * * * * * * * * * * * * * * * * * * * * * * * * * * * * * //

dimensions      [0 0 0 0 0 0 0];

internalField   nonuniform List<scalar> 
9150
(
1
1
1
1
1
1
1
1
1
1
1
1
1
1
1
1
1
1
1
1
1
1
1
1
1
1
1
1
1
1
1
1
1
1
1
1
1
1
1
1
1
1
1
1
1
1
1
1
1
1
1
1
1
1
1
1
1
1
1
1
1
1
1
1
1
1
1
1
1
1
1
1
1
1
1
1
1
1
1
1
1
1
1
1
1
1
1
1
1
1
1
1
1
1
1
1
1
1
1
1
1
1
1
1
1
1
1
1
1
1
1
1
1
1
1
1
1
1
1
1
1
1
1
1
1
1
1
1
1
1
1
1
1
1
1
1
1
1
1
1
1
1
1
1
1
1
1
1
1
1
0.999999
0.999999
1
1
1
0.999999
0.999999
1
1
1
0.999999
1
1
1
1
1
1
1
1
0.999999
0.999991
1
1
1
1
1
1
1
1
0.999992
0.99999
0.999993
1
1
0.999999
0.999999
1
1
0.999991
0.999991
0.99999
0.99999
0.999998
1
0.999999
0.999999
1
0.999995
0.999991
0.999991
0.99999
0.99999
0.999992
1
1
1
1
0.999994
0.999991
0.999991
0.999991
0.999991
0.999991
1
1
1
1
0.999993
0.999991
0.999991
0.999996
0.999991
0.999993
1
1
1
0.999999
0.999991
0.999991
0.999992
0.999997
0.999991
0.999994
0.999998
1
1
0.999999
0.999993
0.999991
0.999994
0.999998
0.999993
0.999993
0.999994
1
1
0.999998
0.999995
0.999991
0.999995
0.999998
0.999994
0.999993
0.999995
1
1
0.999996
0.999993
0.999991
0.999997
0.999997
0.999993
0.999993
0.999999
1
1
0.999995
0.999991
0.999991
0.999998
0.999998
0.999993
0.999993
0.999999
1
1
0.999997
0.999991
0.999991
0.999998
0.999998
0.999995
0.999993
0.999995
1
1
0.999998
0.999992
0.999994
0.999998
0.999998
0.999997
0.999993
0.999993
1
1
0.999997
0.999992
0.999996
0.999998
0.999998
0.999996
0.999993
0.999993
1
1
0.999996
0.999992
0.999997
0.999998
0.999998
0.999995
0.999993
0.999996
1
1
0.999998
0.999993
0.999997
0.999998
0.999998
0.999995
0.999993
0.999997
0.999999
0.999999
0.999998
0.999992
0.999996
0.999998
0.999998
0.999997
0.999993
0.999995
0.999999
0.999999
0.999995
0.999993
0.999996
0.999998
0.999999
0.999998
0.999993
0.999993
0.999999
0.999999
0.999994
0.999993
0.999996
0.999998
0.999999
0.999998
0.999993
0.999993
0.999999
0.999999
0.999997
0.999993
0.999996
0.999998
0.999999
0.999998
0.999995
0.999994
0.999999
0.999999
0.999999
0.999993
0.999997
0.999998
0.999999
0.999997
0.999996
0.999997
0.999999
0.999999
0.999999
0.999994
0.999998
0.999998
0.999999
0.999996
0.999995
0.999996
0.999999
0.999999
0.999998
0.999997
0.999998
0.999998
0.999998
0.999996
0.999995
0.999995
0.999999
0.999999
0.999997
0.999998
0.999998
0.999998
0.999998
0.999998
0.999995
0.999995
0.999999
0.999999
0.999997
0.999996
0.999998
0.999998
0.999998
0.999998
0.999995
0.999996
0.999999
0.999999
0.999997
0.999994
0.999997
0.999998
0.999998
0.999996
0.999994
0.999997
0.999999
0.999999
0.999998
0.999994
0.999995
0.999999
0.999998
0.999996
0.999994
0.999995
0.999999
0.999999
0.999998
0.999994
0.999996
0.999997
0.999998
0.999997
0.999994
0.999994
0.999999
0.999999
0.999998
0.999994
0.999996
0.999996
0.999997
0.999997
0.999994
0.999994
0.999999
0.999999
0.999998
0.999995
0.999996
0.999996
0.999997
0.999997
0.999994
0.999994
0.999999
0.999999
0.999996
0.999996
0.999996
0.999996
0.999998
0.999998
0.999997
0.999995
0.999999
0.999999
0.999994
0.999996
0.999996
0.999996
0.999998
0.999999
0.999999
0.999999
0.999999
0.999999
0.999994
0.999995
0.999996
0.999997
0.999997
0.999998
0.999999
0.999999
0.999999
0.999999
0.999994
0.999994
0.999996
1
0.999995
0.999995
0.999998
0.999998
0.999998
0.999999
0.999994
0.999995
0.999996
1.00007
0.999991
0.999987
0.999998
0.999998
0.999999
0.999999
0.999995
0.999996
0.999997
0.998777
0.999987
0.999986
0.999998
0.999998
0.999999
0.999999
0.999999
0.999999
0.999998
0.930225
0.998531
0.999994
0.999999
0.999998
0.999999
0.999999
0.999999
0.999999
0.999998
0.863375
0.998211
0.999997
0.999999
0.999999
1
1
0.999994
0.999998
0.999998
0.804182
0.999237
0.999999
0.999999
1
1
1
0.999993
0.999998
0.999997
0.732335
0.999682
0.999998
0.999998
0.999999
1
1
0.999993
0.999997
0.999996
0.657714
0.999733
0.999999
0.999998
0.999998
0.999999
0.999999
0.999995
0.999996
0.999994
0.578985
0.999908
0.999999
0.999998
0.999998
0.999999
0.999999
0.999994
0.999995
0.99999
0.506277
0.999999
0.999999
0.999999
0.999999
0.999999
0.999999
0.999989
0.999992
0.999987
0.443733
0.999999
0.999999
0.999999
0.999999
0.999999
0.999999
0.999987
0.999993
1.00003
0.396396
0.999999
0.999999
0.999999
0.999999
0.999999
0.999999
0.999984
1
0.983305
0.364482
0.999999
0.999999
0.999999
0.999998
0.999999
0.999999
0.999983
0.999867
0.967061
0.345435
1
0.999999
0.999999
0.999998
0.999999
0.999999
0.999985
0.999537
0.962119
0.33055
1.00001
0.999999
0.999998
0.999998
0.999999
0.999999
0.99999
0.999772
0.961235
0.324692
1.00004
0.999999
0.999998
0.999999
0.999999
0.999999
0.999995
0.999911
0.966882
0.327646
1.00024
0.999999
0.999999
0.999999
0.999999
0.999999
0.999998
0.999981
0.973257
0.341857
0.999615
0.999999
0.999999
0.999999
0.999999
0.999999
0.999999
0.999982
0.980692
0.362514
0.934002
0.999999
0.999999
0.999998
0.999999
0.999999
0.999999
1
0.988226
0.393425
0.857619
0.999998
0.999998
0.999996
0.999999
0.999999
0.999999
0.999989
0.993856
0.429336
0.763991
0.999998
0.999998
0.999994
0.999999
0.999999
0.999999
0.999994
0.997376
0.465272
0.644261
0.999998
0.999998
0.999994
0.999999
0.999999
0.999998
0.999997
0.998318
0.497995
0.537614
0.999998
0.999998
0.999994
0.999999
0.999999
0.999995
0.999995
0.999051
0.525315
0.46292
0.999998
0.999997
0.999994
0.999999
0.999999
0.999995
0.999996
0.999621
0.546501
0.412554
1
0.999997
0.999994
0.999999
0.999999
0.999995
0.999996
0.999996
0.562758
0.382108
0.999558
0.999997
0.999994
0.999999
0.999999
0.999997
0.999996
0.999996
0.565256
0.364376
0.984582
0.999997
0.999993
0.999999
0.999999
0.999996
0.999996
0.999996
0.53993
0.351042
0.979228
0.999997
0.999993
0.999999
0.999999
0.999994
0.999996
0.999996
0.511986
0.34011
0.976071
0.999997
0.999993
0.999999
0.999999
0.999994
0.999996
0.999997
0.474911
0.330549
0.973454
0.999997
0.999993
0.999999
0.999999
0.999994
0.999996
1
0.436358
0.321049
0.970998
0.999996
0.999993
0.999999
0.999999
0.999994
0.999996
1.00002
0.398584
0.311338
0.96833
0.999996
0.999993
0.999999
0.999999
0.999995
0.999996
1.00017
0.367151
0.301283
0.965295
0.999996
0.999993
0.999999
0.999999
0.999995
0.999996
0.987524
0.34284
0.290891
0.961836
0.999996
0.999994
0.999999
0.999999
0.999994
0.999996
0.977057
0.321173
0.28035
0.95798
0.999996
0.999994
0.999999
0.999999
0.999994
0.999996
0.969518
0.302136
0.26976
0.953769
0.999995
0.999994
0.999999
0.999999
0.999994
0.999995
0.962462
0.285258
0.259201
0.949241
0.999995
0.999994
0.999999
0.999999
0.999994
0.999995
0.955736
0.270096
0.248629
0.944426
0.999994
0.999994
0.999999
0.999999
0.999994
0.999995
0.94927
0.256304
0.238138
0.939334
0.999994
0.999994
0.999999
0.999999
0.999994
0.999994
0.942942
0.243578
0.227884
0.934059
0.999994
0.999994
0.999999
0.999999
0.999994
0.999994
0.936721
0.231641
0.217993
0.928567
0.999994
0.999994
0.999999
0.999999
0.999994
0.999994
0.930526
0.220605
0.208902
0.923324
0.999994
0.999994
0.999999
0.999999
0.999994
0.999994
0.924792
0.210796
0.201248
0.918121
0.999994
0.999994
0.999999
0.999999
0.999994
0.999994
0.919277
0.202748
0.195242
0.914363
0.999993
0.999993
0.999999
0.999999
0.999994
0.999994
0.91527
0.196427
0.192364
0.911004
0.999994
0.999993
0.999999
0.999999
0.999993
0.999994
0.911781
0.193518
0.190745
0.909502
0.999725
0.999993
0.999999
0.999999
0.999993
0.999767
0.91017
0.19176
0.190428
0.909371
0.999568
0.999993
0.999999
0.999999
0.999993
0.999581
0.910014
0.191312
0.193312
0.912453
0.999711
0.999994
0.999999
0.999999
0.999994
0.999712
0.913082
0.194352
0.198324
0.916366
0.999803
0.999994
0.999999
0.999999
0.999995
0.999805
0.916979
0.199369
0.205971
0.921682
0.999879
0.999995
0.999999
0.999999
0.999995
0.999881
0.922302
0.207074
0.216512
0.928181
0.999935
0.999996
0.999999
0.999999
0.999996
0.999936
0.928786
0.21768
0.230052
0.935698
0.999965
0.999997
0.999999
0.999999
0.999997
0.999966
0.936277
0.231288
0.246936
0.944054
0.999992
0.999998
0.999999
0.999999
0.999998
0.999992
0.944594
0.248241
0.267601
0.953007
0.999992
0.999998
1
1
0.999998
0.999992
0.953497
0.268977
0.292652
0.962314
1.00001
0.999999
1
1
0.999999
1.00001
0.962744
0.2941
0.322977
0.971596
0.999989
0.999999
1
1
0.999999
0.999989
0.971959
0.324496
0.359766
0.980776
0.999984
1
1
1
1
0.999984
0.98105
0.36135
0.405047
0.988591
0.999984
1
1
1
1
0.999984
0.988796
0.406661
0.460452
0.99584
0.999986
1
1
1
1
0.999986
0.995905
0.462076
0.530399
0.996944
0.99999
1
1
1
1
0.99999
0.997012
0.531898
0.608991
0.999586
0.999995
1
1
1
1
0.999995
0.999626
0.61032
0.696413
0.999849
0.999998
1
1
1
1
0.999998
0.999851
0.69761
0.778001
0.999945
0.999999
1
1
1
1
0.999999
0.999946
0.778979
0.871995
1
1
1
1
1
1
1
1
0.872607
0.935903
1
1
1
1
1
1
1
1
0.936168
1
1
1
0.999999
0.999998
0.999998
0.999998
0.999998
0.99999
0.999995
0.999998
0.999997
0.999997
0.999998
0.999998
0.999998
0.999997
0.999997
0.999997
0.999997
0.999997
0.999997
0.999997
0.999997
0.999994
0.999992
0.999992
0.999996
0.999998
0.999998
0.999995
0.999995
0.999999
1
0.938487
0.827139
0.827299
0.862972
0.862962
0.862682
0.999997
0.999996
0.999996
0.999991
0.99999
0.99999
0.999989
0.999988
0.999989
0.999992
0.999997
0.999997
0.999997
0.999996
0.99999
0.999989
0.99999
0.999991
0.999997
0.999997
0.999996
0.999994
0.999994
0.999994
0.999995
0.999993
0.999992
0.999992
0.999995
0.999998
0.999995
0.999994
0.999997
1
0.996289
0.965237
0.866482
0.755745
0.75563
0.778876
0.999991
0.999991
0.999991
0.999991
0.999995
0.999995
0.99999
0.999987
0.999992
0.999996
0.999997
0.999997
0.999995
0.999981
0.999987
0.999994
0.999994
0.999994
0.999996
0.999994
0.999994
0.999995
0.999995
0.999995
0.999994
0.999992
0.999992
0.999992
0.999996
0.999998
0.999995
0.999994
0.999995
0.999999
0.999999
0.99996
0.996281
0.918937
0.75563
0.755734
0.999991
0.999991
0.999991
0.999997
0.999997
0.999997
0.999996
0.99999
0.999991
0.999994
0.999992
0.999983
0.999981
0.999982
0.999987
0.999992
0.999994
0.999995
0.999995
0.999995
0.999995
0.999995
0.999995
0.999995
0.999992
0.999992
0.999992
0.999992
0.999998
0.999998
0.999996
0.999994
0.999996
0.999999
1
0.999998
0.999984
0.999891
0.889268
0.755838
0.999991
0.999994
0.999998
0.999998
0.999998
0.999997
0.999993
0.99998
0.999969
0.99997
0.999899
0.999807
0.999646
0.999521
0.999527
0.999709
0.999993
0.999995
0.999931
0.999913
0.999983
0.999995
0.999995
0.999993
0.999992
0.999993
0.999996
0.999998
0.999998
0.999998
0.999998
0.999994
0.999996
0.999999
0.999999
1
0.999999
0.999991
0.980853
0.811679
0.999993
0.999998
0.999998
0.999998
0.999998
0.999993
0.999951
0.999796
0.999599
0.999456
0.998797
0.994463
0.999739
0.9999
0.999956
0.99997
0.999981
0.999903
0.999863
0.999872
0.999984
0.999994
0.999994
0.999995
0.999998
0.999998
0.999998
0.999998
0.999998
0.999998
0.999998
0.999995
0.999994
0.999998
0.999999
1
1
0.999999
0.999991
0.962604
0.999998
0.999998
0.999998
0.999998
0.999998
0.999962
0.999543
0.998458
0.957306
0.81733
0.668861
0.565555
0.614779
0.759307
0.952229
0.999956
0.99997
0.999904
0.999898
0.999965
0.999993
0.999995
0.999995
0.999995
0.999992
0.99998
0.999995
0.999998
0.999998
0.999998
0.999998
0.999994
0.999994
0.999996
1
1
1
1
0.999999
0.998662
0.999998
0.999998
0.999998
0.999998
0.999991
0.999763
0.994858
0.748272
0.341767
0.00254885
0.000919184
0.0097681
0.0332993
0.0658769
0.351393
0.898636
0.99918
0.999913
0.999985
0.999994
0.999995
0.999995
0.999995
0.999995
0.999962
0.999952
0.999974
0.999998
0.999998
0.999998
0.999995
0.999994
0.999994
0.999995
1
1
1
1
1
0.999989
0.999998
0.999998
0.999998
0.999999
0.999959
0.998495
0.585731
0.021392
0.00253138
0.00123156
0.000567671
0.000533193
0.00057315
0.000746418
0.0321561
0.7125
0.999251
0.999775
0.999977
0.999995
0.999995
0.999995
0.99999
0.999961
0.999952
0.999952
0.999963
0.999998
0.999998
0.999996
0.999994
0.999994
0.999994
0.999997
1
1
1
1
1
0.999999
0.999998
0.999998
0.999998
1.00003
0.999802
0.75239
0.0894048
0.00299678
0.000859414
0.000553456
0.000526458
0.000520511
0.000522922
0.000581804
0.0853461
0.821187
0.996631
0.999761
0.999965
0.999995
0.999988
0.999966
0.999953
0.999952
0.999952
0.999952
0.99998
0.999998
0.999998
0.999994
0.999994
0.999994
0.999996
1
1
1
1
1
1
1
0.999998
0.999998
1
0.999994
0.997689
0.233938
0.00390084
0.000916005
0.000563641
0.000524336
0.000520511
0.000519236
0.000515085
0.000522916
0.435054
0.986372
0.99905
0.99995
0.999975
0.999996
0.999963
0.999952
0.999952
0.999952
0.999956
0.99998
0.999996
0.999997
0.999997
0.999997
0.999995
0.999997
1
1
1
0.999999
0.999999
1
1
1
0.999998
0.999998
0.999999
1.00012
0.602924
0.0255381
0.00136155
0.000584716
0.000528422
0.000527155
0.000525183
0.000513765
0.000513857
0.171607
0.963524
0.999944
0.999996
0.999997
0.999996
0.999996
0.999968
0.999953
0.999962
0.99998
0.999994
0.999995
0.999996
0.999987
0.999997
1
1
1
1
1
0.999999
0.999998
0.999999
1
0.999999
0.996159
0.999998
0.999998
0.999999
0.999839
0.273959
0.00365485
0.000762754
0.000539181
0.000533757
0.000529812
0.000524682
0.000552299
0.0874934
0.790989
0.999919
0.999997
0.999997
0.999997
0.999997
0.999997
0.999993
0.999989
0.999995
0.999995
0.999994
0.999995
0.999976
0.999987
1
1
1
1
1
1
0.999998
0.999998
0.999999
1
0.99993
0.994591
0.999998
0.999998
1.00011
0.841838
0.0870109
0.0015473
0.000581878
0.000534479
0.000534464
0.000533726
0.000563651
0.0226727
0.561416
0.999797
0.999992
0.999999
0.999997
0.999997
0.999997
0.999995
0.999996
0.999996
0.999995
0.999995
0.999945
0.999914
0.999959
0.999999
1
0.999999
1
1
0.999999
0.999998
0.999998
0.999998
1
1
0.999712
0.99458
0.999998
0.999998
1.00002
0.561129
0.0194764
0.000848568
0.000558935
0.000548672
0.00053465
0.000548579
0.000798526
0.280624
0.998729
0.99998
1
0.999999
0.999997
0.999988
0.999991
0.999996
0.999996
0.999996
0.999986
0.999905
0.99989
0.999892
0.999974
1
0.999998
0.999996
0.999999
1
0.999998
0.999998
0.999998
1
1
1
0.999677
0.994586
0.999998
1
0.99999
0.336373
0.00795741
0.00184756
0.000564043
0.000558578
0.00054923
0.000667388
0.0812634
0.798817
0.999955
1
0.999999
0.999999
0.999995
0.999976
0.999979
0.999996
0.999996
0.999956
0.999891
0.99989
0.99989
0.999896
0.999996
1
0.999996
0.999996
0.999999
1
0.999999
0.999998
1
1
1
0.999999
0.999791
0.997867
0.999998
1.00001
0.955916
0.177339
0.0145528
0.0131579
0.000863093
0.000564353
0.000578656
0.000912571
0.352606
0.999822
0.999995
1
1
0.999999
0.999998
0.999983
0.999969
0.999941
0.999903
0.99989
0.99989
0.99989
0.99989
0.999892
0.999992
1
0.999997
0.999996
0.999999
1
1
1
1
1
1
0.999998
0.999963
0.999984
0.999998
0.999999
0.786999
0.0803392
0.0149406
0.0166114
0.000694294
0.00057892
0.000712678
0.0538947
0.72273
0.999982
0.999999
1
1
1
0.999999
0.999995
0.999929
0.999891
0.999891
0.999891
0.99989
0.999912
0.99989
0.999894
0.999994
1
1
0.999999
1
1
1
0.999999
0.999999
1
1
0.999999
0.999999
0.999996
0.999998
0.999998
0.651691
0.0357177
0.0110508
0.0147228
0.000691812
0.000650327
0.000890118
0.191783
0.937663
0.999998
1
1
1
1
0.999999
0.999975
0.999891
0.999891
0.999891
0.999891
0.999937
0.999938
0.9999
0.999911
0.999991
1
1
1
1
1
0.999999
0.999999
0.999999
0.999999
0.999999
0.999999
0.999908
0.997541
0.999998
1
0.504607
0.0151603
0.00859105
0.0127472
0.000690632
0.000691787
0.000951742
0.284851
0.967775
0.999999
1
1
1
1
0.999999
0.999928
0.999891
0.999891
0.999891
0.999938
0.999942
0.999939
0.999884
0.999892
0.999977
1
1
1
1
0.999999
0.999999
0.999999
0.999999
0.999999
0.999999
0.999973
0.997395
0.993085
0.999999
1.00002
0.365924
0.00858025
0.0067812
0.0177392
0.000693146
0.000696864
0.000887316
0.284847
0.962713
1
1
1
1
1
0.999999
0.999928
0.999892
0.999891
0.999924
0.999944
0.999943
0.9999
0.999883
0.999883
0.999959
1
1
1
1
0.999999
0.999999
0.999999
1
1
0.999999
0.999805
0.994145
0.993085
0.999999
0.982009
0.254233
0.00677085
0.00562636
0.0213916
0.00306786
0.00102356
0.00134411
0.258986
0.946276
1
1
1
1
1
0.999999
0.999968
0.99991
0.999907
0.999947
0.999945
0.999892
0.999882
0.999882
0.999883
0.999979
1
1
1
1
1
1
1
1
1
0.999998
0.999846
0.99606
0.993432
0.999998
0.8894
0.167133
0.00512712
0.00449898
0.0214435
0.0195693
0.00135843
0.00138069
0.192298
0.899703
1
1
1
1
1
1
0.999999
0.999992
0.999988
0.999948
0.999883
0.999881
0.999882
0.999881
0.999914
0.999999
1
0.999992
0.999993
1
1
1
1
1
1
0.999995
0.999884
0.999605
0.999281
0.999998
0.81759
0.102946
0.00401477
0.00359155
0.0216114
0.0217274
0.00159518
0.00162684
0.0956406
0.779185
1
1
1
1
0.999999
0.999998
0.999998
0.999998
0.999988
0.999897
0.999881
0.999881
0.999881
0.999882
0.999983
0.999999
0.999995
0.999984
0.999984
0.999996
1
1
1
1
1
0.999995
0.99998
0.999997
0.999996
0.999998
0.721531
0.0561644
0.0033655
0.00303212
0.015119
0.0217274
0.00210668
0.00227913
0.0224249
0.524392
1
1
1
0.999998
0.999987
0.999988
0.999998
0.999998
0.99998
0.999881
0.999881
0.999881
0.999881
0.999901
0.999999
0.999999
0.999996
0.999984
0.999984
0.99999
1
1
1
1
0.999999
0.999998
0.999998
0.999999
0.999999
0.999998
0.604284
0.0263285
0.00537348
0.00257874
0.0036705
0.0217274
0.00835849
0.00322651
0.00465
0.21476
0.91205
1
1
0.999996
0.999986
0.999986
0.99999
0.999998
0.999991
0.999903
0.999881
0.999881
0.999881
0.999934
0.999999
0.999999
0.999999
0.999994
0.999991
0.999996
1
1
1
0.999998
0.999996
0.999997
0.999999
0.999999
0.999999
1.00001
0.474066
0.015741
0.010033
0.00196922
0.00117005
0.0204537
0.0195438
0.00397626
0.00480602
0.0308009
0.554636
0.998652
1
0.999998
0.999987
0.999986
0.999986
0.999996
0.999999
0.999978
0.9999
0.999881
0.999883
0.999986
0.999999
0.999999
0.999997
0.999999
1
1
1
1
0.999998
0.999996
0.999996
0.999996
0.999997
0.999975
0.99996
1.00008
0.353615
0.00995699
0.0103614
0.00385436
0.000777013
0.0111218
0.0179452
0.00818558
0.00560178
0.00593878
0.126103
0.788733
0.999999
0.999999
0.999997
0.999987
0.999987
0.999998
1
0.999999
0.999982
0.999939
0.999962
0.999999
0.999999
0.999999
0.99999
0.999986
0.999984
1
1
1
0.999998
0.999996
0.999996
0.999997
0.999997
0.999896
0.998969
0.985858
0.260974
0.00438399
0.00309632
0.00392398
0.000577975
0.000898682
0.016999
0.0161952
0.00605933
0.00615774
0.00750492
0.251196
0.853194
0.999999
0.999999
0.999999
0.999998
0.999999
1
1
0.999999
0.999999
0.999999
0.999999
0.999999
0.999999
0.999987
0.99988
0.999892
1
1
1
0.999999
0.999998
0.999998
1
0.999997
0.999852
0.998822
0.899424
0.183656
0.00293001
0.00156906
0.00128405
0.000465512
0.000358898
0.00771314
0.0146027
0.0115894
0.00688227
0.00682815
0.0141827
0.303366
0.829227
0.999999
0.999999
1
1
1
1
1
1
0.999999
0.999999
0.999995
0.999999
0.99999
0.999874
0.999874
0.999942
0.999995
1
1
1
1
1
0.999998
0.999869
0.998822
0.830087
0.122991
0.00501981
0.00204802
0.000487609
0.000359833
0.000218516
0.000293467
0.00507834
0.00909113
0.00834499
0.00722917
0.00586758
0.0144117
0.25484
0.725137
0.973098
1
1
1
1
1
1
1
0.999999
0.999989
0.999976
0.999932
0.999874
0.999874
0.999875
0.999979
1
1
1
1
1
0.999999
0.999924
0.998822
0.729809
0.0794063
0.0161996
0.0119771
0.00129888
0.000233773
0.00011047
0.000127307
0.000304826
0.00167645
0.00446993
0.00743283
0.0053607
0.00368031
0.00557996
0.142585
0.521546
0.811439
0.998975
1
1
1
1
0.999999
0.999999
0.999993
0.999921
0.999875
0.999874
0.999875
0.999874
0.999949
1
1
1
1
1
1
0.999969
0.999083
0.614936
0.0574827
0.0419717
0.0161224
0.000762647
0.000151962
4.79454e-05
4.81261e-05
9.33294e-05
0.000201652
0.00127144
0.00385544
0.00543715
0.00336366
0.00247468
0.00300988
0.0347865
0.214105
0.702916
0.985071
1
1
1
0.999999
0.999999
0.999999
0.999945
0.999877
0.999875
0.999875
0.999875
0.999907
0.999998
1
1
1
0.999999
1
0.999979
0.999936
0.506526
0.0466703
0.0542972
0.0120814
0.000168712
6.41667e-05
3.19546e-05
2.60169e-05
3.33176e-05
5.71411e-05
0.000166153
0.000807155
0.00397427
0.00340677
0.00192261
0.00133106
0.00155845
0.00259431
0.128931
0.593169
0.971201
1
0.999999
0.999999
0.999999
0.999999
0.999992
0.999962
0.999883
0.999875
0.999874
0.999891
0.999997
1
1
0.999946
0.999984
1
0.999996
1
0.41964
0.0293978
0.028888
0.00529684
8.82739e-05
4.27832e-05
2.74475e-05
2.15649e-05
1.46053e-05
2.14896e-05
5.38911e-05
0.000135402
0.00221032
0.00325488
0.00195845
0.00090178
0.00057231
0.000692288
0.00147743
0.0657809
0.518743
0.976295
0.999999
0.999999
0.999999
0.999999
0.999999
0.999999
0.999975
0.999877
0.999874
0.999911
0.999998
1
0.999996
0.99993
0.999939
0.999997
1
1
0.332685
0.0224432
0.00335531
0.00231408
0.000107798
5.87026e-05
5.13435e-05
1.89034e-05
9.8718e-06
7.55509e-06
1.52121e-05
5.12436e-05
0.000182152
0.00282523
0.00272562
0.000647951
0.000338337
0.000200541
0.000371663
0.000844824
0.0370441
0.616014
0.988862
0.999997
0.999999
0.999999
0.999999
0.999999
0.999999
0.999963
0.999898
0.999965
1
1
0.999963
0.99993
0.99993
0.999995
1
1
0.242572
0.0274434
0.0113933
0.00420862
0.000153791
5.17506e-05
5.42443e-05
2.95195e-05
6.71473e-06
2.76489e-06
6.26182e-06
1.79007e-05
5.18981e-05
0.00102424
0.00233422
0.000837202
0.000209312
9.55096e-05
0.000100665
0.00015606
0.000396569
0.0636159
0.807474
0.999966
0.999998
0.999999
0.999999
0.999999
0.999999
0.999998
0.999995
0.999999
1
0.999996
0.999931
0.99993
0.999934
0.999996
1
1
0.173424
0.0334289
0.0450939
0.00975622
7.12343e-05
2.76074e-05
2.44e-05
2.46512e-05
5.86365e-06
1.18407e-06
2.30167e-06
6.2963e-06
2.21479e-05
6.78354e-05
0.000576285
0.000745462
0.00019713
5.43405e-05
3.44943e-05
3.703e-05
6.38265e-05
0.000356705
0.402409
0.968635
0.99998
0.999998
0.999999
0.999997
0.999991
0.999999
1
1
1
0.999972
0.99993
0.99993
0.999955
0.999999
1
1
0.127833
0.0349366
0.0524655
0.0114933
3.19345e-05
1.43434e-05
1.093e-05
9.3522e-06
3.27674e-06
6.66377e-07
1.0762e-06
2.60918e-06
6.52028e-06
2.34278e-05
0.000112771
0.000201299
9.39359e-05
3.64743e-05
1.66999e-05
1.14219e-05
1.16447e-05
3.16303e-05
0.0971014
0.844273
0.999908
0.999992
0.999995
0.999988
0.999987
0.999991
0.999999
1
1
0.999972
0.99993
0.99993
0.999977
1
1
1
0.0915316
0.0325435
0.0532608
0.00707897
6.27661e-06
3.02909e-06
6.83558e-06
7.39829e-07
7.83216e-07
5.29476e-07
6.70772e-07
1.27221e-06
8.2616e-06
3.46811e-05
5.5876e-05
5.80677e-05
3.59359e-05
2.27908e-05
1.11866e-05
3.63932e-06
2.25014e-06
2.98058e-06
0.0279505
0.717951
0.999809
0.999986
0.999989
0.999987
0.999987
0.999987
0.999996
1
1
0.999991
0.999931
0.99993
0.999994
1
1
0.999999
0.0615779
0.0313037
0.0524655
0.00194285
4.78218e-07
4.7121e-07
4.70328e-07
4.7121e-07
4.74791e-07
4.94739e-07
5.29741e-07
5.97722e-07
2.30107e-05
7.15222e-05
8.63018e-05
0.000119995
0.000102219
3.65941e-05
9.22329e-06
1.40659e-06
4.86005e-07
3.60527e-07
0.0259079
0.688029
0.999753
0.999989
0.999995
0.999996
0.999987
0.999987
0.999995
1
1
1
0.999966
0.99998
0.999998
1
0.999996
0.999997
0.0419669
0.0254834
0.0238831
0.000539262
6.15523e-07
4.7033e-07
4.7033e-07
4.7033e-07
4.73552e-07
4.81502e-07
4.85957e-07
5.89504e-07
2.38706e-05
8.65454e-05
0.000137792
0.000138382
0.000137916
6.80579e-05
8.06069e-06
6.76811e-07
1.5542e-07
1.16028e-07
0.0358051
0.709453
0.999399
0.999986
0.999999
0.999999
0.99999
0.999989
0.999998
1
1
1
1
0.999999
0.999999
0.999867
0.999949
0.999997
0.0351553
0.0163164
0.00771286
1.08508e-06
8.60535e-07
4.70822e-07
4.7033e-07
4.70822e-07
4.72507e-07
4.76015e-07
4.80727e-07
5.76119e-07
1.4934e-05
0.000138718
0.000138485
0.000138382
0.000138382
5.98891e-05
3.74727e-06
3.24511e-07
9.62668e-08
9.44528e-08
0.0864785
0.793892
0.998513
0.999963
0.999999
1
0.999999
0.999999
1
1
1
0.999999
0.999999
0.999999
0.999982
0.999742
0.999897
0.999997
0.0261697
0.0370268
0.0552262
1.68926e-06
9.9914e-07
6.79045e-07
4.70529e-07
4.72082e-07
4.75631e-07
4.82109e-07
5.56516e-07
1.20318e-06
6.01214e-05
0.000140043
0.000139892
0.000138646
0.000138301
1.54597e-05
1.40862e-07
1.06746e-07
8.60487e-08
9.15995e-08
0.236488
0.915131
0.998581
0.999951
0.999998
1
1
1
1
0.999876
0.999987
0.999999
0.999999
0.999999
0.999869
0.999741
0.999896
0.999996
0.0157925
0.0359904
0.0887542
3.29193e-06
2.12672e-06
3.22497e-06
4.71496e-07
4.76182e-07
4.88692e-07
5.29132e-07
1.20189e-06
6.26512e-05
0.000142807
0.000142372
0.000138436
0.000141078
5.76743e-05
2.00241e-07
9.41158e-08
8.57534e-08
8.49016e-08
8.60218e-08
0.53177
0.985874
0.999279
0.999968
0.999999
1
1
1
0.99993
0.999742
0.999818
0.999998
0.999999
0.999999
0.999744
0.999741
0.999922
0.999996
0.00979664
0.0363869
0.0887179
8.54003e-06
5.75314e-06
3.66763e-05
7.49524e-07
5.16571e-07
6.74741e-07
4.55547e-05
0.000118191
0.000139076
0.000142807
0.000144333
0.000145425
5.93362e-05
6.80155e-07
1.05085e-07
8.53401e-08
8.43011e-08
8.49075e-08
0.10793
0.834445
0.99654
0.999772
0.999987
0.999999
1
1
0.999984
0.999751
0.999741
0.999739
0.999981
0.999999
0.999922
0.99974
0.999747
0.999971
0.999996
0.00556936
0.0350292
0.0847949
1.97471e-05
1.07899e-05
7.08888e-05
0.000143109
9.14469e-05
8.46364e-05
0.000141036
0.00013932
0.000138968
0.000140271
0.000144925
4.39096e-05
2.54255e-06
1.96469e-07
8.81386e-08
8.42579e-08
8.41693e-08
8.42941e-08
0.48753
0.978456
0.99884
0.999932
0.999996
1
1
1
0.999891
0.999741
0.99974
0.99974
0.999784
0.999897
0.999743
0.999739
0.999878
0.999979
0.997615
0.00273
0.0375546
0.111905
3.29323e-05
1.97162e-05
9.47137e-05
0.000142047
0.000141773
0.000141195
0.000140777
0.000140991
0.000140729
0.000128101
3.04085e-05
1.8234e-06
4.34385e-07
1.0712e-07
8.42467e-08
8.41693e-08
8.42961e-08
0.190189
0.882504
0.997003
0.999746
0.999984
0.999999
1
1
0.999971
0.99987
0.999921
0.999764
0.99974
0.99974
0.99974
0.999739
0.999739
0.999953
0.999979
0.995928
0.00156351
0.0388014
0.142528
1.99114e-05
7.85556e-06
9.69644e-05
0.000142047
0.00014239
0.0001426
0.000143
0.000143975
6.06872e-05
2.20228e-05
1.33865e-06
4.25889e-07
1.55418e-07
8.73358e-08
8.47573e-08
8.47925e-08
0.0759213
0.70046
0.993389
0.999391
0.999959
0.999997
1
1
1
0.99995
0.99991
0.999998
0.999917
0.99974
0.99974
0.999739
0.999739
0.999739
0.999967
0.999979
0.99592
0.00129945
0.0298389
0.156261
0.0518892
1.19878e-06
5.51475e-05
0.000142347
0.000129508
6.02629e-05
5.77538e-05
2.34133e-05
2.95997e-06
8.16902e-07
3.35961e-07
1.47182e-07
9.6899e-08
8.75836e-08
8.70371e-08
0.0438011
0.540615
0.980671
0.999184
0.999927
0.999992
0.999999
1
1
1
0.999972
0.999996
1
0.999997
0.999741
0.99974
0.99978
0.999742
0.999831
0.999974
0.999964
0.995918
0.00120235
0.0121306
0.157323
0.143463
4.92458e-07
6.76337e-06
2.3827e-05
1.00689e-05
1.23965e-06
1.16609e-06
7.61642e-07
3.91611e-07
2.37033e-07
1.40477e-07
1.03729e-07
9.36254e-08
9.21598e-08
0.0431782
0.471519
0.955997
0.999416
0.999917
0.999972
0.999994
0.999998
1
1
1
1
1
1
1
0.999805
0.999936
0.999981
0.999964
0.999987
0.999979
0.999855
0.995918
0.00101123
0.00121394
0.15149
0.410413
4.47642e-07
3.42227e-07
3.18742e-07
2.69105e-07
2.74129e-07
2.80184e-07
2.20609e-07
1.68959e-07
1.3406e-07
1.09338e-07
1.01805e-07
9.96288e-08
0.0687417
0.486237
0.941997
0.999335
0.999944
0.999993
0.99999
0.999992
0.999998
1
1
1
1
1
1
1
0.999991
0.999977
0.999992
0.999994
0.999994
0.999977
0.999636
0.995918
0.000865863
0.000800357
0.106418
0.610573
0.16486
2.78416e-07
2.17841e-07
2.04937e-07
1.89276e-07
1.73036e-07
1.57406e-07
1.4081e-07
1.30985e-07
1.27716e-07
1.09301e-07
0.141505
0.575478
0.952057
0.999075
0.999919
0.999993
0.999999
1
0.999997
0.999998
1
1
1
1
1
1
1
1
0.999845
0.999938
0.99996
0.999994
0.999975
0.999519
0.99601
0.000800354
0.000774421
0.0396728
0.614201
0.744957
0.0115001
2.05024e-07
1.89651e-07
1.7385e-07
1.57744e-07
1.41289e-07
1.32958e-07
1.33723e-07
0.0609345
0.315177
0.728802
0.977043
0.999077
0.99989
0.99999
0.999999
1
1
1
1
1
1
1
1
1
1
1
0.999955
0.999829
0.99983
0.999901
0.999994
0.999975
0.999579
0.999254
0.000772154
0.000771005
0.00614138
0.561016
0.982569
0.40713
0.0415187
1.785e-07
1.74236e-07
1.70792e-07
0.0164972
0.10778
0.307036
0.616397
0.899791
0.99565
0.999351
0.999891
0.999987
0.999999
1
1
1
1
1
1
1
1
1
1
1
0.999963
0.999833
0.999829
0.999829
0.999922
0.999995
0.999984
0.999931
0.999988
0.000755724
0.000770174
0.00097881
0.510642
0.986873
0.932289
0.589632
0.40662
0.358373
0.391747
0.561506
0.753497
0.918171
0.991142
0.998499
0.999613
0.999923
0.999987
0.999999
1
1
1
1
1
1
0.999994
1
1
1
1
0.999941
0.999835
0.999829
0.999829
0.999849
0.99998
0.999995
0.999995
0.999994
0.999991
0.00228142
0.000771005
0.0124782
0.533324
0.990721
0.998758
0.991707
0.973403
0.964049
0.970165
0.991165
0.996924
0.998613
0.999443
0.999819
0.999954
0.999991
0.999998
1
1
1
1
1
0.999997
0.999887
0.99985
0.999967
1
1
0.999915
0.99983
0.999829
0.999829
0.999829
0.999961
0.999995
0.999995
0.999995
0.999995
0.999661
0.010416
0.000771652
0.0210947
0.636175
0.997395
0.999691
0.999441
0.999125
0.998992
0.999051
0.999339
0.999619
0.999829
0.999932
0.999978
0.999994
0.999998
0.999999
1
0.999999
1
0.999993
0.999988
0.999945
0.999835
0.999834
0.999839
0.999903
0.999874
0.999832
0.999831
0.99984
0.99989
0.99992
0.999968
0.999994
0.999881
0.9997
0.999512
0.999072
0.013357
0.00077474
0.0106122
0.681254
0.999598
0.999838
0.999921
0.999885
0.999867
0.999877
0.999917
0.999952
0.999979
0.999991
0.999997
0.999999
0.999999
0.999999
0.999996
0.999997
0.999978
0.999939
0.999937
0.999924
0.999903
0.999834
0.999834
0.999834
0.999833
0.999832
0.999847
0.999952
0.999956
0.999956
0.999919
0.999383
0.999084
0.999065
0.999065
0.999069
0.0133254
0.000695742
0.000287233
0.660358
0.999836
0.999917
0.999981
0.99998
0.999976
0.99998
0.999989
0.999994
0.999997
0.999999
0.999999
0.999999
0.999999
0.999999
0.999992
0.999992
0.999936
0.999936
0.999936
0.999976
0.999993
0.999879
0.999834
0.999834
0.999834
0.999848
0.999945
0.999956
0.999956
0.999956
0.999869
0.999067
0.999065
0.999065
0.999065
0.999503
0.00991176
0.000374908
0.000131474
0.607849
0.999889
0.999979
0.999989
0.99999
0.99999
0.999993
0.999998
0.999999
0.999999
1
1
0.999999
0.999999
0.999969
0.999993
0.999993
0.999936
0.999936
0.99994
0.999999
1
0.999982
0.99988
0.999838
0.999884
0.99997
0.999972
0.9999
0.999856
0.999951
0.999881