/*--------------------------------*- C++ -*----------------------------------*\
  =========                 |
  \\      /  F ield         | OpenFOAM: The Open Source CFD Toolbox
   \\    /   O peration     | Website:  https://openfoam.org
    \\  /    A nd           | Version:  8
     \\/     M anipulation  |
\*---------------------------------------------------------------------------*/
FoamFile
{
    version     2.0;
    format      ascii;
    class       volScalarField;
    location    "1.15";
    object      k;
}
// * * * * * * * * * * * * * * * * * * * * * * * * * * * * * * * * * * * * * //

dimensions      [0 2 -2 0 0 0 0];

internalField   nonuniform List<scalar> 
9150
(
0.00183039
0.000947588
0.00050123
0.000356438
0.000282783
0.000282783
0.000356438
0.000501229
0.000947585
0.00183039
0.00178749
0.000753605
0.00042509
0.000307258
0.00024014
0.00024014
0.000307258
0.000425089
0.000753603
0.00178749
0.00171611
0.00065833
0.000392816
0.000285603
0.000223639
0.000223639
0.000285603
0.000392816
0.000658329
0.00171611
0.00163752
0.000608441
0.000380237
0.000277282
0.000217782
0.000217782
0.000277282
0.000380237
0.000608441
0.00163752
0.001554
0.000587128
0.000375797
0.000274567
0.000216239
0.000216239
0.000274567
0.000375797
0.000587129
0.00155399
0.00287077
0.00267769
0.00213829
0.00206122
0.00194012
0.00194015
0.00206129
0.00213839
0.00267781
0.00287079
0.00231072
0.0015397
0.00143794
0.00152263
0.00143181
0.00143182
0.00152266
0.00143798
0.00153972
0.00231072
0.00205236
0.00126939
0.000973179
0.00100303
0.000923295
0.000923299
0.00100305
0.000973194
0.0012694
0.00205236
0.00187058
0.00112249
0.000699577
0.000648682
0.000570846
0.000570847
0.000648686
0.000699581
0.00112248
0.00187058
0.00179061
0.00102958
0.00055764
0.000446958
0.000372924
0.000372924
0.000446958
0.00055764
0.00102958
0.00179061
0.0155791
0.00682732
0.00322112
0.0023984
0.00217597
0.00217596
0.00239844
0.0032226
0.006835
0.0156082
0.00499572
0.00393828
0.00284046
0.00236564
0.00218973
0.00218976
0.00236571
0.00284059
0.00393724
0.00499622
0.00445274
0.00356814
0.00282618
0.00236658
0.00220879
0.00220884
0.00236671
0.00282636
0.00356782
0.00445291
0.00395294
0.00330177
0.00281329
0.00236487
0.00222688
0.00222694
0.002365
0.00281346
0.0033019
0.00395301
0.00338524
0.00324305
0.00269956
0.00231499
0.00219983
0.00219988
0.00231511
0.00269971
0.00324326
0.00338528
0.769376
0.773662
0.776642
0.778462
0.779316
0.779596
0.779336
0.778161
0.775838
0.772198
1.58731
1.59783
1.60584
1.61139
1.6145
1.61521
1.61348
1.6093
1.60263
1.5934
1.97512
1.98786
1.99761
2.0044
2.00826
2.00917
2.00712
2.0021
1.99408
1.98303
2.24574
2.25957
2.27019
2.27763
2.2819
2.28299
2.28091
2.27562
2.2671
2.25531
2.47083
2.48517
2.49621
2.50399
2.50854
2.50984
2.50788
2.50266
2.49412
2.4822
2.67613
2.69059
2.70176
2.7097
2.71443
2.71597
2.7143
2.70938
2.70118
2.68961
2.8739
2.88813
2.89918
2.90712
2.912
2.91382
2.91256
2.9082
2.90066
2.88985
3.07082
3.08448
3.09517
3.10298
3.10795
3.11011
3.10942
3.10586
3.09933
3.08973
3.27065
3.2834
3.29349
3.30102
3.30606
3.30861
3.30867
3.30617
3.30103
3.29311
3.47534
3.48682
3.49607
3.50319
3.50826
3.51129
3.51227
3.51113
3.50777
3.50203
3.68561
3.69547
3.70363
3.71021
3.71528
3.71887
3.72096
3.72148
3.72032
3.71733
3.90129
3.9092
3.91605
3.92196
3.92701
3.93124
3.93462
3.93711
3.93859
3.93891
4.12164
4.12728
4.1326
4.13772
4.14272
4.14765
4.15251
4.15725
4.16178
4.16596
4.34558
4.34864
4.35219
4.35637
4.36127
4.36694
4.3734
4.38063
4.38854
4.39707
4.57191
4.572
4.5735
4.57654
4.58124
4.58767
4.59583
4.60571
4.61727
4.63045
4.7994
4.79595
4.79499
4.79666
4.80104
4.8082
4.81815
4.83085
4.84626
4.86432
5.02624
5.01866
5.01483
5.01488
5.01885
5.02678
5.03866
5.05444
5.07402
5.09728
5.24988
5.23776
5.2308
5.22907
5.23262
5.24146
5.25556
5.27486
5.29923
5.3285
5.46764
5.45074
5.44044
5.43684
5.44
5.44995
5.46667
5.4901
5.52011
5.55654
5.67733
5.65516
5.64118
5.63553
5.63831
5.64955
5.66928
5.69745
5.73402
5.77883
5.87671
5.84841
5.83018
5.82216
5.82443
5.83704
5.86004
5.89347
5.93733
5.99162
6.06239
6.02703
6.00398
5.99325
5.99483
6.00877
6.03513
6.07402
6.1256
6.19004
6.22934
6.18655
6.1585
6.14496
6.14578
6.16094
6.19052
6.2347
6.29382
6.3683
6.37156
6.32214
6.28965
6.27362
6.2738
6.29007
6.32251
6.37139
6.43715
6.52045
6.48437
6.42999
6.39425
6.3765
6.37637
6.39369
6.42854
6.48118
6.55213
6.64213
6.56523
6.50817
6.47076
6.45231
6.45239
6.47082
6.50764
6.56311
6.63769
6.73206
6.61441
6.55695
6.5195
6.5014
6.50227
6.52196
6.56052
6.61819
6.69539
6.79269
6.63449
6.57856
6.54241
6.52554
6.52767
6.54876
6.58892
6.64848
6.72793
6.82785
6.63018
6.5768
6.54268
6.52745
6.531
6.55337
6.59485
6.65591
6.73722
6.83968
6.60634
6.55593
6.524
6.51036
6.51504
6.5382
6.58023
6.64176
6.72369
6.82724
6.56839
6.52043
6.49026
6.47775
6.48293
6.50601
6.54739
6.60772
6.68794
6.78932
6.52031
6.47401
6.44505
6.43315
6.43819
6.4603
6.4998
6.55724
6.63342
6.7294
6.46326
6.41896
6.3914
6.38005
6.38468
6.40528
6.44208
6.49551
6.56621
6.65504
6.39832
6.35782
6.33265
6.32234
6.32667
6.34561
6.37932
6.42817
6.49267
6.57355
6.33108
6.29564
6.2736
6.26474
6.26893
6.28621
6.31672
6.36076
6.41878
6.49138
6.2695
6.23879
6.21979
6.21235
6.21641
6.23201
6.25928
6.29847
6.34995
6.41423
6.21908
6.1924
6.17604
6.16981
6.17365
6.18756
6.21163
6.24605
6.2911
6.34718
6.18307
6.16008
6.14613
6.14101
6.14461
6.15689
6.17791
6.20779
6.24673
6.29502
6.16399
6.14473
6.13321
6.12924
6.13269
6.14353
6.16175
6.18745
6.22077
6.26192
6.16468
6.14916
6.14013
6.13742
6.14091
6.15054
6.16631
6.18826
6.2165
6.25119
6.18778
6.17598
6.1695
6.16818
6.17191
6.18062
6.19431
6.21298
6.2367
6.26559
6.23561
6.22749
6.22358
6.22377
6.22796
6.23609
6.24811
6.264
6.28378
6.30753
6.31028
6.30566
6.30427
6.30605
6.31094
6.31886
6.32972
6.34343
6.35993
6.37922
6.41352
6.41197
6.4129
6.41632
6.42219
6.4304
6.44079
6.45313
6.46717
6.48264
6.54618
6.54701
6.54991
6.55499
6.56224
6.57152
6.58257
6.59496
6.60818
6.62155
6.70803
6.71024
6.71457
6.7213
6.7305
6.74199
6.7554
6.77012
6.7853
6.79985
6.89804
6.89979
6.9046
6.91287
6.92469
6.93989
6.95798
6.97819
6.99938
7.02006
7.11204
7.11124
7.11549
7.1252
7.14046
7.1611
7.18663
7.21616
7.24838
7.28144
7.34266
7.33768
7.34061
7.35178
7.3713
7.39911
7.43488
7.47788
7.52692
7.58003
7.58052
7.57085
7.57215
7.58476
7.60901
7.64512
7.6932
7.75314
7.82449
7.90608
7.81823
7.8037
7.80293
7.81645
7.84484
7.88882
7.94917
8.02679
8.12267
8.23779
8.05187
8.0318
8.02787
8.04072
8.07123
8.12049
8.18991
8.28125
8.39679
8.53959
8.27983
8.25339
8.24465
8.25443
8.28382
8.33418
8.40719
8.50493
8.63002
8.78573
8.50496
8.47041
8.45432
8.45785
8.48228
8.5291
8.60001
8.69707
8.82287
8.9808
8.73369
8.68756
8.66033
8.65366
8.66905
8.70797
8.7719
8.86238
8.98104
9.1296
8.97462
8.91029
8.86629
8.84469
8.84708
8.87476
8.92893
9.01071
9.12103
9.26021
9.23306
9.1403
9.0724
9.03089
9.01676
9.0308
9.07388
9.14717
9.25233
9.39196
9.5009
9.36912
9.27181
9.20735
9.17478
9.17368
9.20404
9.26629
9.36127
9.49031
9.73395
9.5724
9.45066
9.36611
9.31693
9.30187
9.32021
9.37163
9.45623
9.57453
9.92541
9.74334
9.60364
9.50375
9.44161
9.41564
9.42464
9.46774
9.5442
9.65309
10.0821
9.88443
9.73143
9.62044
9.54925
9.51615
9.51989
9.55962
9.6349
9.74569
10.2068
9.99773
9.83542
9.717
9.64018
9.60323
9.60493
9.64453
9.72168
9.83636
10.3009
10.0853
9.9174
9.79466
9.71495
9.67668
9.67879
9.72075
9.80252
9.92465
10.3722
10.1523
9.98075
9.85546
9.7745
9.73647
9.74044
9.78601
9.87324
10.0027
10.4295
10.2039
10.0287
9.90127
9.81982
9.78291
9.78971
9.83987
9.93351
10.0711
10.4704
10.2403
10.0619
9.93276
9.85123
9.81599
9.82632
9.88207
9.98363
10.1321
10.4991
10.2636
10.0814
9.95029
9.86861
9.83514
9.8492
9.91065
10.0199
10.1777
10.5181
10.2747
10.0873
9.95342
9.87127
9.83957
9.85762
9.9253
10.043
10.2116
10.5218
10.2703
10.0773
9.94038
9.85761
9.82775
9.85013
9.92467
10.0519
10.2327
10.5091
10.2487
10.0496
9.90911
9.82549
9.79748
9.82448
9.9065
10.0442
10.2387
10.4771
10.2078
10.0018
9.85722
9.77231
9.74601
9.77777
9.86765
10.0163
10.2252
10.4309
10.1479
9.93242
9.78201
9.69496
9.67009
9.70678
9.80498
9.96511
10.188
10.3611
10.063
9.83625
9.67878
9.5889
9.56547
9.60786
9.71605
9.8905
10.1321
10.2651
9.94846
9.7079
9.54165
9.44808
9.42605
9.47498
9.59489
9.78632
10.05
10.1398
9.79823
9.54005
9.36286
9.26459
9.24387
9.30009
9.4335
9.64504
9.93608
9.9683
9.5987
9.32114
9.13211
9.02875
9.00928
9.07306
9.22067
9.45376
9.77475
9.72978
9.33403
9.03863
8.83888
8.73107
8.71291
8.78374
8.94454
9.19777
9.54697
9.40864
8.99175
8.68282
8.47547
8.36488
8.34821
8.42477
8.59602
8.86542
9.23796
8.98978
8.56245
8.24838
8.03907
7.92861
7.91369
7.99366
8.17047
8.44865
8.8353
8.46015
8.04407
7.73819
7.53472
7.42808
7.41514
7.49532
7.67059
7.94539
8.3264
7.84984
7.45839
7.16978
6.97776
6.87763
6.86669
6.94446
7.1127
7.37522
7.7375
7.19666
6.83407
6.56639
6.38833
6.29591
6.28682
6.36065
6.51894
6.76495
7.10336
6.52715
6.19476
5.94914
5.78582
5.7014
5.69392
5.76305
5.91008
6.13778
6.45007
5.86153
5.55926
5.33552
5.18671
5.11007
5.10399
5.16818
5.30368
5.51272
5.79842
5.21685
4.94276
4.73943
4.60412
4.53466
4.52976
4.58917
4.71372
4.90513
5.16578
4.60509
4.35604
4.17086
4.04753
3.9844
3.98046
4.03552
4.15019
4.32578
4.564
4.03313
3.80563
3.63603
3.52295
3.46519
3.46202
3.51328
3.61938
3.78124
4.00001
3.50418
3.29476
3.13815
3.03355
2.98022
2.97764
3.02568
3.12458
3.27488
3.47719
3.01884
2.82428
2.67821
2.58042
2.53059
2.52844
2.57385
2.66689
2.8077
2.99636
2.57605
2.39348
2.25572
2.16318
2.11599
2.11414
2.15753
2.24599
2.37923
2.55674
2.17392
2.00085
1.8694
1.78067
1.73534
1.73369
1.77563
1.86072
1.98815
2.15674
1.81009
1.64449
1.51764
1.43145
1.38726
1.38574
1.42681
1.50964
1.63278
1.7943
1.48204
1.32254
1.19906
1.11438
1.07072
1.06929
1.10999
1.19149
1.31148
1.46716
1.18724
1.03355
0.91296
0.829198
0.785631
0.784267
0.825017
0.905727
1.02297
1.17302
0.923336
0.776796
0.66001
0.577409
0.533829
0.53256
0.573494
0.653182
0.766742
0.909744
0.688329
0.552656
0.442848
0.363322
0.320402
0.31931
0.359897
0.436741
0.54346
0.675626
0.48122
0.362956
0.266343
0.19484
0.155096
0.154321
0.192304
0.261566
0.355352
0.470144
0.30445
0.2117
0.136179
0.081127
0.050699
0.0503528
0.0798333
0.133378
0.206658
0.296274
0.167583
0.104815
0.0544048
0.0228806
0.0090828
0.00903373
0.0225953
0.0535246
0.102763
0.16355
0.0846734
0.0420168
0.0144592
0.0044851
0.0024422
0.00244147
0.00448049
0.0144282
0.0418518
0.0842104
0.766633
0.759212
0.749916
0.738657
0.72539
0.710095
0.692792
0.673544
0.652468
0.629723
0.6055
0.580039
0.554078
0.529506
0.505373
0.481407
0.45761
0.434087
0.410972
0.388386
0.366428
0.345165
0.324637
0.304852
0.285797
0.267437
0.249722
0.232588
0.215962
0.199762
0.183897
0.168264
0.152739
0.137165
0.121263
0.104148
0.0861927
0.0670042
0.0468601
0.0220529
1.58079
1.56418
1.54415
1.52066
1.49373
1.46339
1.42979
1.39311
1.35366
1.31176
1.26782
1.22221
1.17528
1.12742
1.07919
1.03096
0.98307
0.935804
0.889395
0.844029
0.799838
0.75691
0.715286
0.674971
0.635936
0.598123
0.561452
0.525821
0.491115
0.457197
0.423916
0.391095
0.358523
0.325941
0.293012
0.259301
0.224422
0.186891
0.140431
0.0615888
1.96799
1.94815
1.92428
1.89635
1.86437
1.82843
1.78867
1.74535
1.69881
1.64947
1.59779
1.54427
1.48938
1.43345
1.37689
1.32006
1.2633
1.20689
1.15111
1.09616
1.04224
0.989466
0.937945
0.887727
0.83883
0.791237
0.744901
0.699749
0.65568
0.612572
0.570276
0.528613
0.487367
0.446264
0.40493
0.362813
0.318923
0.270761
0.210024
0.0964038
2.23924
2.21796
2.19232
2.16226
2.12775
2.08885
2.04569
1.99851
1.94764
1.89355
1.83674
1.77778
1.71721
1.65544
1.59287
1.52991
1.46692
1.40422
1.34209
1.28074
1.22038
1.16115
1.10315
1.04647
0.991118
0.937112
0.884416
0.832973
0.782696
0.733474
0.685165
0.637591
0.590522
0.543646
0.496498
0.448302
0.397551
0.34072
0.266896
0.125065
2.46589
2.44418
2.41788
2.38689
2.35111
2.31052
2.26515
2.21518
2.16089
2.10273
2.04125
1.97714
1.91109
1.8436
1.77521
1.70644
1.6377
1.56935
1.50167
1.43491
1.36923
1.30477
1.24163
1.17987
1.11952
1.06057
1.00299
0.946711
0.891659
0.837713
0.784724
0.732495
0.680763
0.629148
0.577061
0.523499
0.466518
0.401702
0.315779
0.148715
2.67364
2.65221
2.62609
2.59506
2.55893
2.51754
2.47078
2.41865
2.3613
2.29907
2.2325
2.16253
2.09021
2.01625
1.94146
1.86647
1.79178
1.71777
1.6447
1.57279
1.50219
1.43301
1.3653
1.29911
1.23443
1.17124
1.10949
1.04911
0.989992
0.932002
0.874968
0.818663
0.762771
0.706836
0.650144
0.591481
0.528536
0.456144
0.358977
0.168988
2.87477
2.85433
2.82916
2.79897
2.76344
2.72224
2.675
2.62142
2.5613
2.4948
2.4221
2.3447
2.26431
2.18241
2.1001
2.01814
1.93702
1.85707
1.77849
1.70143
1.626
1.55225
1.48019
1.40982
1.34112
1.27402
1.20844
1.14429
1.08144
1.01973
0.958949
0.898831
0.839005
0.778935
0.717788
0.654164
0.585433
0.505771
0.398025
0.186944
3.07611
3.05737
3.03398
3.00558
2.97171
2.93179
2.88522
2.83141
2.76971
2.70029
2.6198
2.53041
2.43889
2.34713
2.25601
2.16619
2.07802
1.99171
1.90735
1.82499
1.74463
1.66627
1.58988
1.51539
1.44274
1.37182
1.30254
1.23475
1.1683
1.103
1.03859
0.974774
0.911114
0.846997
0.781481
0.712998
0.638626
0.551949
0.434155
0.20339
3.28155
3.26528
3.24456
3.21891
3.18766
3.15012
3.1058
3.05422
2.99263
2.912
2.81895
2.71911
2.61544
2.51247
2.41171
2.31335
2.21762
2.12455
2.03408
1.94615
1.86067
1.77755
1.6967
1.61801
1.54135
1.46659
1.39359
1.32217
1.25214
1.18327
1.11528
1.0478
0.980343
0.912226
0.842398
0.769132
0.689238
0.59574
0.468272
0.218689
3.4932
3.48023
3.46313
3.4412
3.41359
3.37944
3.33785
3.2857
3.21405
3.11738
3.00952
2.89927
2.78818
2.67651
2.56664
2.46005
2.35684
2.25692
2.16018
2.06649
1.97569
1.88763
1.80216
1.71912
1.63834
1.55965
1.48285
1.40774
1.3341
1.26164
1.19004
1.1189
1.04766
0.975567
0.901465
0.823473
0.738142
0.63796
0.501066
0.233199
3.71195
3.70324
3.69089
3.67407
3.65182
3.6232
3.58655
3.53127
3.44341
3.3287
3.20449
3.0809
2.95945
2.83895
2.72084
2.60657
2.49613
2.38946
2.28642
2.18685
2.09059
1.99743
1.90719
1.81965
1.73462
1.65188
1.57119
1.49231
1.41498
1.33888
1.26366
1.18883
1.11381
1.03775
0.959396
0.876718
0.786008
0.679232
0.533071
0.247221
3.93778
3.9344
3.92822
3.9184
3.90401
3.88382
3.85321
3.79233
3.68212
3.54442
3.40327
3.26708
3.13346
3.00259
2.87607
2.75395
2.63615
2.52259
2.41312
2.30756
2.20569
2.10729
2.01214
1.92
1.83061
1.74372
1.65907
1.57637
1.49531
1.41555
1.33667
1.25815
1.17934
1.09931
1.01673
0.929393
0.833346
0.720029
0.564685
0.260962
4.16985
4.17292
4.1744
4.17369
4.17015
4.1627
4.13821
4.05711
3.91798
3.75952
3.60536
3.45569
3.30949
3.16864
3.03306
2.90261
2.77713
2.65646
2.54038
2.42868
2.32109
2.21736
2.11721
2.02036
1.92653
1.83543
1.74675
1.66017
1.57534
1.49188
1.40932
1.32711
1.24451
1.16054
1.07375
0.981798
0.880456
0.76064
0.596148
0.275165
4.40661
4.41706
4.42747
4.43753
4.4468
4.45372
4.42856
4.31713
4.15041
3.97689
3.80981
3.64584
3.48801
3.3366
3.19142
3.05224
2.91879
2.7908
2.66799
2.55005
2.43667
2.32753
2.22233
2.12073
2.02242
1.92706
1.83432
1.74383
1.65522
1.56804
1.4818
1.39588
1.30951
1.22163
1.13066
1.03413
0.927542
0.801284
0.627717
0.289399
4.6461
4.66449
4.68468
4.70685
4.73134
4.75497
4.71933
4.57599
4.38608
4.20022
4.0171
3.83839
3.66793
3.50534
3.35018
3.20202
3.06045
2.92507
2.79547
2.67127
2.5521
2.43756
2.32731
2.22096
2.11817
2.01856
1.92175
1.82735
1.73494
1.64405
1.55414
1.46454
1.37442
1.28264
1.18753
1.08647
0.974701
0.842076
0.659518
0.303714
4.88622
4.91256
4.94219
4.9757
5.01445
5.0441
4.99464
4.8312
4.62703
4.42592
4.22292
4.02982
3.84666
3.67285
3.50775
3.3507
3.20111
3.05844
2.92217
2.79182
2.66694
2.54708
2.43184
2.32081
2.21357
2.10974
2.00889
1.91061
1.81443
1.71985
1.62629
1.53303
1.43919
1.34356
1.24437
1.13883
1.02195
0.883045
0.69159
0.318153
5.1257
5.1599
5.19787
5.2392
5.28209
5.30247
5.2659
5.08857
4.86917
4.64991
4.42564
4.21694
4.0212
3.83671
3.66224
3.49682
3.33965
3.19005
3.04739
2.91112
2.78072
2.65569
2.53559
2.41996
2.30837
2.20039
2.09556
1.99344
1.89354
1.79531
1.69813
1.60126
1.50374
1.4043
1.30108
1.19114
1.06923
0.924142
0.723883
0.332708
5.36454
5.40812
5.4566
5.50921
5.55989
5.57101
5.51701
5.29769
5.08677
4.84147
4.60951
4.39185
4.18718
3.99422
3.81185
3.63908
3.47509
3.31912
3.1705
3.02865
2.89299
2.76301
2.63821
2.51813
2.40229
2.29025
2.18152
2.07563
1.97206
1.87023
1.7695
1.66906
1.56792
1.46474
1.35756
1.24329
1.11643
0.965267
0.756318
0.347352
5.60177
5.65692
5.71872
5.78621
5.84121
5.82426
5.72867
5.48983
5.27341
5.01904
4.78033
4.55594
4.34451
4.14487
3.95598
3.77693
3.60691
3.44519
3.2911
3.14403
3.00341
2.86871
2.73941
2.61502
2.49507
2.37906
2.26652
2.15694
2.04977
1.94441
1.84018
1.73624
1.63155
1.52468
1.41361
1.29511
1.16341
1.00628
0.788762
0.362029
5.83497
5.90412
5.98237
6.06853
6.11799
6.0491
5.90302
5.66091
5.43874
5.18193
4.93955
4.71064
4.49419
4.28924
4.09493
3.91047
3.7351
3.56817
3.40903
3.25708
3.11177
2.97256
2.83894
2.71039
2.58644
2.46659
2.35033
2.23713
2.12643
2.01761
1.90995
1.80258
1.6944
1.58394
1.46906
1.34641
1.20997
1.04699
0.821049
0.376659
6.06029
6.14585
6.24387
6.3531
6.38691
6.25457
6.06961
5.82396
5.59418
5.3361
5.0912
4.85883
4.63826
4.42877
4.22968
4.04031
3.86004
3.68825
3.52435
3.36777
3.21797
3.07442
2.93661
2.80404
2.6762
2.55259
2.43268
2.31595
2.2018
2.08959
1.97857
1.86783
1.75625
1.64227
1.52368
1.39698
1.25593
1.08725
0.853045
0.391189
6.27235
6.37623
6.49695
6.63334
6.65449
6.46598
6.23921
5.9867
5.74629
5.48706
5.23964
5.00382
4.77916
4.56521
4.36143
4.1673
3.98226
3.80574
3.63721
3.47613
3.32195
3.17417
3.03228
2.89576
2.76411
2.63682
2.51335
2.39315
2.27562
2.16009
2.04578
1.93176
1.81684
1.69943
1.57723
1.4466
1.30106
1.12684
0.884589
0.405549
6.46433
6.5871
6.73218
6.89926
6.91232
6.67579
6.41478
6.15369
5.90272
5.64073
5.38922
5.14872
4.91912
4.70012
4.4913
4.29217
4.10222
3.92093
3.74775
3.58217
3.42365
3.27169
3.12575
2.98534
2.84994
2.71903
2.59206
2.46846
2.34761
2.22883
2.11131
1.99408
1.87592
1.75518
1.62947
1.49503
1.34514
1.16555
0.915486
0.419645
6.62853
6.76792
6.93452
7.12791
7.13624
6.87549
6.59908
6.32996
6.07227
5.80195
5.54276
5.29534
5.05934
4.83433
4.61981
4.41525
4.22012
4.03387
3.85594
3.68581
3.52293
3.36677
3.21682
3.07255
2.93343
2.79894
2.66852
2.54158
2.41748
2.29552
2.17486
2.05451
1.9332
1.80923
1.68013
1.54201
1.38793
1.20316
0.945547
0.433391
6.75914
6.91048
7.09229
7.30207
7.32021
7.06074
6.77663
6.50225
6.24283
5.96732
5.69864
5.44283
5.19933
4.96751
4.74672
4.53634
4.33576
4.14436
3.96156
3.7868
3.61951
3.45915
3.30518
3.15707
3.01428
2.87625
2.74243
2.6122
2.48492
2.35984
2.23613
2.11275
1.98839
1.8613
1.72893
1.58727
1.42917
1.23944
0.974577
0.446695
6.8543
7.0115
7.19859
7.40167
7.46084
7.238
6.94332
6.66407
6.405
6.13314
5.85395
5.58902
5.33751
5.0985
4.87117
4.65477
4.44857
4.25192
4.06418
3.88474
3.71302
3.54846
3.39048
3.23855
3.09211
2.9506
2.81343
2.67998
2.54958
2.42148
2.2948
2.16848
2.04118
1.91109
1.77559
1.63055
1.46862
1.27415
1.00238
0.459466
6.91814
7.0782
7.26637
7.46066
7.56238
7.38916
7.08892
6.80729
6.54719
6.28756
6.0043
5.73098
5.47179
5.22577
4.99199
4.76961
4.55783
4.35594
4.16327
3.97916
3.80302
3.63426
3.47231
3.31659
3.16655
3.0216
2.88114
2.74454
2.61111
2.48007
2.35052
2.22137
2.09125
1.95829
1.81981
1.67157
1.506
1.30706
1.02876
0.471613
6.95649
7.12028
7.3119
7.50304
7.60727
7.49211
7.211
6.92962
6.66631
6.41773
6.14698
5.8667
5.60052
5.34799
5.10812
4.88
4.66281
4.45579
4.25825
4.06953
3.88901
3.7161
3.5502
3.39075
3.23716
3.08883
2.94516
2.8055
2.66912
2.53524
2.40293
2.27108
2.13827
2.0026
1.8613
1.71004
1.54107
1.33794
1.05353
0.483044
6.97218
7.1423
7.34396
7.54282
7.63481
7.57946
7.33314
7.04218
6.77035
6.51717
6.26803
5.99492
5.72265
5.46429
5.21884
4.98534
4.76296
4.55096
4.34864
4.15537
3.97051
3.79348
3.62369
3.46055
3.30347
3.15185
3.00505
2.86242
2.7232
2.58661
2.45167
2.31726
2.18192
2.04369
1.89976
1.74568
1.57355
1.36654
1.07649
0.493668
6.96199
7.13704
7.34859
7.5705
7.69754
7.66867
7.43937
7.14315
6.86264
6.60155
6.35536
6.10557
5.83744
5.5744
5.32398
5.08542
4.85802
4.64111
4.43405
4.23623
4.04705
3.86593
3.69228
3.5255
3.36501
3.21018
3.06036
2.91486
2.77295
2.63377
2.49636
2.35954
2.22183
2.08124
1.93488
1.77822
1.60319
1.39265
1.09745
0.503397
6.92134
7.09306
7.30081
7.53616
7.72506
7.7302
7.52129
7.22743
6.93837
6.67048
6.42124
6.18312
5.93936
5.67947
5.4243
5.18059
4.94802
4.72605
4.51413
4.31168
4.11813
3.9329
3.75541
3.58506
3.42123
3.26329
3.11057
2.96236
2.8179
2.67631
2.5366
2.39756
2.25769
2.11493
1.96637
1.80737
1.62975
1.41604
1.11624
0.512143
6.85384
7.01447
7.20591
7.42464
7.64989
7.73951
7.56178
7.2707
6.98022
6.71162
6.46154
6.22681
6.00198
5.77196
5.52118
5.27136
5.03298
4.80555
4.58847
4.38119
4.18315
3.99377
3.81245
3.63859
3.47153
3.31062
3.15516
3.00442
2.85759
2.71379
2.57199
2.43096
2.28914
2.14446
1.99394
1.8329
1.65298
1.43649
1.13267
0.519817
6.76984
6.9174
7.09248
7.29526
7.51924
7.63844
7.51173
7.25904
6.97886
6.71379
6.46811
6.23739
6.01998
5.81147
5.59657
5.35607
5.11218
4.87898
4.65635
4.44395
4.24125
4.04768
3.86258
3.68532
3.5152
3.35152
3.19354
3.0405
2.89156
2.74579
2.60215
2.45937
2.31587
2.16954
2.01735
1.85455
1.67269
1.45384
1.14661
0.526477
6.67785
6.81157
6.96994
7.15413
7.36074
7.4849
7.40284
7.19889
6.94363
6.68444
6.44172
6.21595
6.00346
5.80318
5.61021
5.40933
5.18264
4.9457
4.71668
4.49873
4.29124
4.0935
3.90479
3.72434
3.55142
3.38526
3.22507
3.07004
2.91929
2.77186
2.62668
2.48245
2.33757
2.18988
2.03632
1.87209
1.68866
1.4679
1.15791
0.531952
6.58485
6.70447
6.8458
7.00952
7.18935
7.3024
7.25367
7.09052
6.86605
6.62301
6.38687
6.16655
5.96004
5.76544
5.58113
5.40089
5.20978
4.99557
4.76672
4.54333
4.33128
4.12971
3.93776
3.75455
3.57927
3.41106
3.24908
3.09247
2.9403
2.7916
2.64524
2.49991
2.35397
2.20525
2.05066
1.88536
1.70073
1.47854
1.16647
0.536154
6.49683
6.60238
6.72696
6.86972
7.02099
7.11608
7.08051
6.94477
6.74892
6.52771
6.3052
6.09357
5.89481
5.70646
5.52765
5.35623
5.18349
4.99769
4.79409
4.57459
4.35913
4.15453
3.96006
3.77479
3.59779
3.42815
3.26496
3.10729
2.9542
2.80466
2.65754
2.51149
2.36487
2.21549
2.06023
1.89422
1.70881
1.48567
1.17223
0.539051
6.419
6.51038
6.61776
6.74107
6.87345
6.95303
6.91249
6.7872
6.61063
6.40939
6.20288
6.00263
5.81288
5.63237
5.45975
5.29424
5.13166
4.9633
4.78187
4.58446
4.37313
4.16632
3.9703
3.78394
3.60614
3.43588
3.2722
3.11412
2.96068
2.81082
2.66341
2.51708
2.37018
2.22052
2.06497
1.89864
1.71286
1.48926
1.17516
0.54063
6.35666
6.43469
6.52594
6.6308
6.74664
6.81342
6.76241
6.63857
6.47217
6.28475
6.09155
5.90219
5.72106
5.54846
5.38284
5.22316
5.06739
4.90958
4.74243
4.56149
4.36587
4.16264
3.96703
3.78109
3.60372
3.43388
3.27056
3.11282
2.95966
2.81005
2.66284
2.51668
2.36992
2.22037
2.0649
1.89864
1.71292
1.48937
1.17531
0.540905
6.31427
6.3803
6.45729
6.54568
6.64373
6.69468
6.63455
6.50892
6.34658
6.16674
5.98212
5.80063
5.62617
5.45956
5.29989
5.14581
4.99538
4.84453
4.68766
4.51995
4.33851
4.14263
3.94988
3.76616
3.5906
3.42225
3.26021
3.10354
2.95131
2.8025
2.65599
2.51045
2.36424
2.21519
2.06019
1.89437
1.70911
1.48609
1.17275
0.539912
6.29514
6.35035
6.41451
6.48821
6.56829
6.5988
6.52843
6.39925
6.23775
6.0613
5.88121
5.70433
5.53412
5.37149
5.21583
5.06584
4.91961
4.77401
4.6248
4.46744
4.29748
4.1092
3.92069
3.74041
3.56771
3.40176
3.24174
3.08682
2.93609
2.7886
2.64324
2.49873
2.35345
2.20525
2.05106
1.88605
1.70164
1.47959
1.16764
0.537714
6.30196
6.34728
6.39958
6.45981
6.51877
6.52005
6.43935
6.30663
6.14461
5.96928
5.79116
5.61659
5.44876
5.28859
5.13556
4.98837
4.84525
4.7036
4.5598
4.40942
4.2472
4.06529
3.88174
3.70563
3.53646
3.37354
3.21613
3.06346
2.9147
2.76893
2.62511
2.48198
2.33796
2.19094
2.03787
1.87399
1.69077
1.47013
1.16015
0.534395
6.3371
6.37329
6.41399
6.45978
6.49454
6.46685
6.37256
6.23288
6.06731
5.8905
5.71224
5.53831
5.3716
5.21287
5.06155
4.91632
4.77536
4.63618
4.49533
4.34848
4.19046
4.01368
3.83529
3.66369
3.49844
3.33893
3.18449
3.03443
2.88797
2.74425
2.60226
2.46079
2.3183
2.17271
2.02104
1.85856
1.67685
1.45799
1.15051
0.53006
6.40279
6.43001
6.45638
6.48368
6.49188
6.43824
6.32761
6.17703
6.00465
5.82402
5.64398
5.46953
5.303
5.14484
4.99437
4.85021
4.71042
4.57241
4.43254
4.28628
4.12942
3.95665
3.78343
3.61643
3.45524
3.2993
3.14804
3.00079
2.85684
2.71537
2.57541
2.43581
2.29505
2.15111
2.00105
1.84021
1.66026
1.44349
1.139
0.524827
6.50029
6.51489
6.52123
6.52961
6.51555
6.43196
6.29886
6.13391
5.95307
5.76786
5.58553
5.41005
5.24305
5.08466
4.93409
4.78988
4.65004
4.51179
4.37107
4.22352
4.06563
3.89615
3.728
3.56552
3.40836
3.25603
3.10798
2.96362
2.82227
2.68316
2.54536
2.40775
2.26886
2.12671
1.97842
1.81938
1.64141
1.427
1.12588
0.518825
6.63505
6.6365
6.61929
6.60103
6.55416
6.43706
6.28066
6.10133
5.91228
5.72263
5.53788
5.36088
5.19266
5.03308
4.88121
4.73556
4.59403
4.4535
4.31016
4.16038
4.00095
3.83425
3.67076
3.51255
3.35926
3.21041
3.06551
2.924
2.78523
2.64849
2.51288
2.37731
2.24036
2.1001
1.95367
1.79658
1.62074
1.4089
1.11145
0.512191
6.81299
6.80136
6.75609
6.70638
6.61947
6.46564
6.28323
6.0874
5.88841
5.69278
5.50419
5.32431
5.15351
4.99136
4.83683
4.68835
4.54346
4.39893
4.25159
4.09858
3.93581
3.77207
3.61316
3.459
3.30931
3.16371
3.02175
2.88293
2.74665
2.6122
2.47874
2.34521
2.21021
2.07185
1.92735
1.77228
1.59868
1.38954
1.09602
0.505066
7.03908
7.01465
6.9335
6.84563
6.71216
6.51907
6.30971
6.0963
5.88574
5.68197
5.48718
5.30211
5.12665
4.9601
4.80121
4.64808
4.49805
4.34813
4.19499
4.03595
3.87298
3.71278
3.55735
3.40647
3.25984
3.11707
2.97774
2.84137
2.70737
2.57508
2.44366
2.31208
2.17899
2.04253
1.89996
1.74694
1.57563
1.36931
1.07986
0.497583
7.31414
7.2753
7.14678
7.01287
6.82751
6.59541
6.36057
6.12926
5.90509
5.69059
5.48686
5.29404
5.11158
4.93843
4.77296
4.6131
4.45651
4.30038
4.14153
3.97711
3.81457
3.65704
3.50429
3.356
3.21184
3.07143
2.93435
2.80011
2.66815
2.5378
2.40827
2.27853
2.14726
2.01264
1.87197
1.72099
1.552
1.34853
1.06325
0.489855
7.63657
7.58234
7.38903
7.19137
6.95336
6.68953
6.4326
6.18312
5.94361
5.71598
5.50097
5.29825
5.10672
4.9249
4.75105
4.58322
4.41903
4.2553
4.08739
3.92165
3.76105
3.60548
3.45467
3.3083
3.16604
3.0275
2.89224
2.75979
2.62958
2.50096
2.37312
2.24507
2.11551
1.98263
1.84381
1.69483
1.52813
1.32752
1.04644
0.482016
7.99969
7.93016
7.6514
7.36961
7.09182
6.80645
6.52428
6.25349
5.99639
5.7539
5.526
5.31168
5.10942
4.91748
4.73403
4.55702
4.38365
4.20929
4.0383
3.87301
3.71323
3.55868
3.40902
3.2639
3.12297
2.9858
2.85195
2.72093
2.59217
2.46502
2.33867
2.21214
2.08414
1.9529
1.81583
1.66879
1.50433
1.30655
1.02965
0.474172
8.38014
8.29741
7.92954
7.57983
7.25562
6.9376
6.6274
6.33403
6.05823
5.79976
5.55773
5.3306
5.11649
4.91349
4.71945
4.53213
4.34798
4.16918
3.99701
3.83115
3.67122
3.51683
3.36759
3.22309
3.08292
2.94665
2.81381
2.68387
2.55627
2.43032
2.30525
2.18006
2.05348
1.92376
1.78834
1.64315
1.48087
1.28585
1.01307
0.466412
8.72419
8.62654
8.18886
7.78536
7.41699
7.06742
6.73145
6.41694
6.1229
5.84837
5.59198
5.35176
5.12557
4.91119
4.70614
4.50861
4.31896
4.13726
3.96301
3.79568
3.63478
3.47983
3.33036
3.18591
3.04603
2.91023
2.77801
2.64883
2.5221
2.39713
2.27312
2.14909
2.02377
1.89544
1.76157
1.61814
1.45795
1.26562
0.99685
0.458811
8.98773
8.88664
8.41007
7.96777
7.56098
7.18512
6.83074
6.49665
6.18606
5.89694
5.62707
5.37406
5.13581
4.91017
4.69581
4.49197
4.29776
4.11247
3.93541
3.76593
3.60342
3.44733
3.29712
3.15226
3.01224
2.87654
2.74461
2.6159
2.48978
2.36556
2.24242
2.11939
1.99519
1.86812
1.73568
1.59391
1.43573
1.24598
0.981104
0.451424
9.18773
9.09956
8.60021
8.13017
7.69633
7.29558
6.9228
6.57337
6.24834
5.94564
5.66272
5.39749
5.14838
4.91368
4.69196
4.48205
4.28288
4.09353
3.91318
3.74107
3.5765
3.41885
3.2675
3.12186
2.98136
2.84545
2.71355
2.58506
2.45934
2.33567
2.21324
2.09105
1.96784
1.84191
1.71079
1.57059
1.41431
1.22704
0.965917
0.444302
9.32101
9.2674
8.76576
8.27473
7.82045
7.39989
7.00976
6.6469
6.30859
5.99316
5.69854
5.42287
5.16444
4.9216
4.69287
4.47695
4.2727
4.07909
3.8952
3.72019
3.5533
3.3938
3.24103
3.09434
2.95312
2.81677
2.68467
2.5562
2.4307
2.30743
2.18555
2.06407
1.94173
1.81684
1.68695
1.54821
1.39374
1.20885
0.951334
0.437463
9.43723
9.40684
8.91018
8.40237
7.93245
7.49669
7.09201
6.71571
6.36539
6.03889
5.73414
5.44922
5.1824
4.93205
4.69669
4.475
4.26577
4.06791
3.88043
3.70242
3.53305
3.37154
3.21718
3.06927
2.92716
2.7902
2.65775
2.52916
2.40373
2.28072
2.15928
2.03841
1.91684
1.7929
1.66415
1.5268
1.37405
1.19144
0.937377
0.430922
9.5817
9.54185
9.02728
8.51247
8.0321
7.58466
7.16814
6.7804
6.41929
6.08272
5.7687
5.4753
5.20078
4.94351
4.70198
4.47485
4.26087
4.05889
3.86788
3.68689
3.51501
3.35145
3.19541
3.04619
2.90309
2.76541
2.63251
2.50369
2.37824
2.25541
2.13432
2.01397
1.8931
1.77002
1.64235
1.50631
1.35521
1.17478
0.924035
0.424684
9.66517
9.65305
9.14757
8.61858
8.12544
7.66609
7.23837
6.84012
6.4692
6.12352
5.80107
5.49996
5.21841
4.95478
4.70758
4.47539
4.25695
4.05107
3.85669
3.6728
3.49849
3.33288
3.17518
3.02463
2.88048
2.74205
2.60864
2.47953
2.354
2.23128
2.11048
1.9906
1.87036
1.7481
1.62145
1.48667
1.33715
1.15882
0.911267
0.418731
9.73693
9.75459
9.26381
8.71932
8.2124
7.74089
7.3023
6.89421
6.51428
6.16032
5.83026
5.52216
5.23425
4.96486
4.71247
4.47565
4.25309
4.0436
3.84607
3.65946
3.48282
3.31526
3.15595
3.00409
2.85892
2.71973
2.58579
2.45637
2.33074
2.2081
2.08756
1.96811
1.84847
1.72699
1.60131
1.46775
1.31976
1.14347
0.899007
0.413046
9.80111
9.84837
9.37855
8.81298
8.29093
7.80744
7.3587
6.94163
6.55359
6.19222
5.85536
5.54103
5.24743
4.97287
4.71581
4.4748
4.24851
4.03572
3.83529
3.64617
3.46738
3.29801
3.13718
2.98409
2.83797
2.69805
2.56361
2.43391
2.30817
2.18561
2.06532
1.94629
1.82723
1.70652
1.58179
1.44941
1.30292
1.12862
0.887175
0.4076
9.90151
9.94077
9.45253
8.88287
8.35362
7.86221
7.40566
6.9812
6.58624
6.21843
5.87562
5.55581
5.25719
4.97806
4.71685
4.4721
4.24248
4.02674
3.82371
3.63233
3.4516
3.28058
3.11839
2.96419
2.8172
2.67664
2.54176
2.4118
2.286
2.16354
2.04352
1.9249
1.80644
1.68648
1.5627
1.43149
1.28648
1.11414
0.87567
0.40236
9.99809
10.0289
9.52056
8.94215
8.40537
7.90691
7.44367
7.01286
6.61193
6.23855
5.89055
5.56595
5.26294
4.9798
4.71495
4.46694
4.23439