/*--------------------------------*- C++ -*----------------------------------*\
  =========                 |
  \\      /  F ield         | OpenFOAM: The Open Source CFD Toolbox
   \\    /   O peration     | Website:  https://openfoam.org
    \\  /    A nd           | Version:  8
     \\/     M anipulation  |
\*---------------------------------------------------------------------------*/
FoamFile
{
    version     2.0;
    format      ascii;
    class       volScalarField;
    location    "1.15";
    object      nut;
}
// * * * * * * * * * * * * * * * * * * * * * * * * * * * * * * * * * * * * * //

dimensions      [0 2 -1 0 0 0 0];

internalField   nonuniform List<scalar> 
9150
(
9.6075e-06
6.44823e-06
7.09681e-06
1.07208e-05
1.12082e-05
1.12082e-05
1.07208e-05
7.09683e-06
6.44823e-06
9.6075e-06
9.49422e-06
5.78271e-06
9.02334e-06
1.20076e-05
1.04829e-05
1.04829e-05
1.20076e-05
9.02337e-06
5.7827e-06
9.49422e-06
9.30273e-06
5.54376e-06
1.1774e-05
1.24241e-05
1.00493e-05
1.00493e-05
1.24241e-05
1.17741e-05
5.54376e-06
9.30273e-06
9.08722e-06
5.46247e-06
1.45477e-05
1.24379e-05
9.8313e-06
9.8313e-06
1.24379e-05
1.45477e-05
5.46247e-06
9.08722e-06
8.85243e-06
5.44125e-06
1.69081e-05
1.2351e-05
9.72467e-06
9.72468e-06
1.2351e-05
1.69081e-05
5.44125e-06
8.85243e-06
5.93509e-06
1.19876e-05
1.6206e-05
2.22952e-05
2.4141e-05
2.41411e-05
2.22956e-05
1.62065e-05
1.19879e-05
5.93511e-06
6.28815e-06
9.14383e-06
1.29375e-05
1.93733e-05
2.10214e-05
2.10215e-05
1.93735e-05
1.29378e-05
9.14394e-06
6.28815e-06
6.8346e-06
8.05745e-06
1.04946e-05
1.64076e-05
1.77631e-05
1.77631e-05
1.64077e-05
1.04948e-05
8.05748e-06
6.8346e-06
7.39249e-06
7.40411e-06
8.80262e-06
1.39216e-05
1.49957e-05
1.49957e-05
1.39217e-05
8.80268e-06
7.40411e-06
7.39248e-06
8.08179e-06
6.92107e-06
7.70285e-06
1.19578e-05
1.27436e-05
1.27436e-05
1.19579e-05
7.70289e-06
6.92106e-06
8.08178e-06
1.39721e-05
2.19515e-05
1.71505e-05
2.05428e-05
2.46726e-05
2.46762e-05
2.05526e-05
1.71817e-05
2.20289e-05
1.39883e-05
7.9351e-06
1.14872e-05
1.45693e-05
2.03447e-05
2.48065e-05
2.48087e-05
2.03493e-05
1.45737e-05
1.14888e-05
7.93556e-06
7.49208e-06
1.07755e-05
1.46016e-05
2.05265e-05
2.50099e-05
2.50113e-05
2.05297e-05
1.46042e-05
1.07762e-05
7.49225e-06
7.05917e-06
1.03699e-05
1.46384e-05
2.06758e-05
2.51957e-05
2.51966e-05
2.06777e-05
1.46399e-05
1.03707e-05
7.05924e-06
6.53265e-06
1.06391e-05
1.46768e-05
2.09492e-05
2.51913e-05
2.51918e-05
2.09503e-05
1.46776e-05
1.06398e-05
6.53269e-06
0.00019581
0.000196358
0.000196739
0.000196972
0.000197081
0.000197117
0.000197086
0.00019694
0.00019665
0.000196192
0.00195993
0.00197046
0.0019787
0.00198456
0.00198789
0.00198851
0.00198639
0.00198169
0.00197458
0.00196515
0.00396452
0.00398539
0.00400139
0.00401252
0.00401871
0.0040199
0.00401609
0.00400731
0.00399361
0.003975
0.00568492
0.00571358
0.00573542
0.00575048
0.00575879
0.00576033
0.00575511
0.00574311
0.00572431
0.00569864
0.00711556
0.00714985
0.00717589
0.00719377
0.00720353
0.00720519
0.00719875
0.00718418
0.00716145
0.00713047
0.00830162
0.00833987
0.00836886
0.00838866
0.00839934
0.00840092
0.0083934
0.00837677
0.00835099
0.00831599
0.00929105
0.00933204
0.00936303
0.0093841
0.00939528
0.00939662
0.00938812
0.00936979
0.0093416
0.00930351
0.0101266
0.0101695
0.0102018
0.0102236
0.010235
0.010236
0.0102266
0.0102068
0.0101767
0.0101361
0.0108441
0.0108882
0.0109214
0.0109436
0.010955
0.0109556
0.0109453
0.0109242
0.0108924
0.01085
0.0114722
0.0115171
0.0115508
0.0115732
0.0115845
0.0115845
0.0115734
0.0115512
0.011518
0.0114739
0.0120331
0.0120785
0.0121124
0.0121349
0.0121459
0.0121454
0.0121335
0.0121103
0.0120759
0.0120304
0.0125432
0.0125889
0.012623
0.0126453
0.012656
0.012655
0.0126424
0.0126183
0.0125829
0.0125363
0.0130145
0.0130603
0.0130943
0.0131165
0.0131268
0.0131253
0.013112
0.0130871
0.0130509
0.0130034
0.0134551
0.0135008
0.0135347
0.0135566
0.0135666
0.0135645
0.0135506
0.013525
0.0134881
0.0134401
0.0138704
0.013916
0.0139497
0.0139714
0.0139808
0.0139782
0.0139636
0.0139373
0.0138998
0.0138513
0.0142642
0.0143096
0.0143429
0.0143641
0.0143729
0.0143696
0.0143542
0.0143271
0.0142889
0.01424
0.0146387
0.0146835
0.0147163
0.0147368
0.0147449
0.0147407
0.0147242
0.0146962
0.014657
0.0146075
0.0149946
0.0150387
0.0150709
0.0150906
0.0150978
0.0150924
0.0150747
0.0150454
0.0150051
0.0149548
0.0153318
0.0153752
0.0154066
0.0154255
0.0154316
0.0154249
0.0154059
0.0153752
0.0153336
0.0152824
0.01565
0.0156926
0.0157232
0.0157411
0.0157461
0.0157381
0.0157176
0.0156854
0.0156425
0.0155904
0.0159486
0.0159902
0.0160198
0.0160367
0.0160404
0.0160311
0.0160091
0.0159755
0.0159313
0.0158784
0.0162266
0.0162667
0.0162951
0.0163107
0.0163132
0.0163025
0.0162792
0.0162443
0.0161991
0.0161457
0.016482
0.0165202
0.0165471
0.0165614
0.0165626
0.0165506
0.0165262
0.0164903
0.0164446
0.0163912
0.0167122
0.0167482
0.0167733
0.0167862
0.0167862
0.0167732
0.0167479
0.0167116
0.0166659
0.0166131
0.0169143
0.016948
0.0169713
0.0169828
0.0169817
0.016968
0.0169423
0.0169061
0.016861
0.0168095
0.0170856
0.0171171
0.0171387
0.0171489
0.0171469
0.0171328
0.0171073
0.0170716
0.0170278
0.0169781
0.0172242
0.0172536
0.0172736
0.0172827
0.0172802
0.0172661
0.0172411
0.0172066
0.0171645
0.0171173
0.0173285
0.017356
0.0173746
0.0173829
0.0173802
0.0173665
0.0173425
0.0173097
0.01727
0.0172258
0.0173977
0.0174237
0.0174412
0.0174489
0.0174463
0.0174334
0.0174109
0.0173801
0.0173431
0.0173023
0.017432
0.0174565
0.017473
0.0174804
0.0174782
0.0174664
0.0174457
0.0174174
0.0173834
0.017346
0.017432
0.0174548
0.0174702
0.0174774
0.0174758
0.0174655
0.0174471
0.0174216
0.0173908
0.0173568
0.017398
0.0174187
0.0174331
0.0174401
0.0174393
0.0174308
0.0174151
0.0173929
0.0173657
0.0173353
0.0173298
0.0173484
0.0173616
0.0173685
0.0173688
0.0173625
0.0173498
0.0173315
0.0173086
0.0172825
0.0172272
0.0172439
0.017256
0.017263
0.0172646
0.0172606
0.0172515
0.0172376
0.0172196
0.0171986
0.0170915
0.0171064
0.0171175
0.0171246
0.0171275
0.0171262
0.0171208
0.0171116
0.0170991
0.0170839
0.0169253
0.016938
0.016948
0.016955
0.0169592
0.0169605
0.0169589
0.0169546
0.0169478
0.0169388
0.0167316
0.0167418
0.0167504
0.0167573
0.0167626
0.0167662
0.0167682
0.0167686
0.0167673
0.0167645
0.0165144
0.016522
0.016529
0.0165355
0.0165415
0.0165472
0.0165524
0.016557
0.0165609
0.016564
0.0162787
0.0162837
0.0162891
0.016295
0.0163016
0.0163088
0.0163166
0.0163249
0.0163333
0.0163417
0.016031
0.0160337
0.0160375
0.0160427
0.0160493
0.0160576
0.0160674
0.0160785
0.0160907
0.0161037
0.0157789
0.0157796
0.0157819
0.0157862
0.0157927
0.0158014
0.0158123
0.0158254
0.0158404
0.0158569
0.0155303
0.0155294
0.0155305
0.0155339
0.0155398
0.0155483
0.0155596
0.0155735
0.01559
0.0156089
0.0152931
0.0152912
0.0152915
0.0152941
0.0152992
0.0153069
0.0153174
0.0153308
0.0153473
0.015367
0.0150746
0.0150727
0.0150727
0.0150747
0.0150786
0.0150848
0.0150934
0.0151049
0.0151196
0.0151378
0.0148812
0.0148803
0.0148807
0.0148823
0.014885
0.014889
0.0148947
0.0149027
0.0149138
0.0149285
0.0147172
0.0147185
0.0147202
0.0147218
0.0147233
0.0147248
0.0147268
0.0147303
0.0147362
0.0147457
0.0145855
0.0145901
0.0145937
0.0145959
0.0145963
0.0145952
0.0145932
0.0145914
0.0145912
0.0145943
0.0144859
0.0144944
0.0145007
0.0145039
0.0145038
0.0145005
0.0144946
0.0144875
0.0144809
0.014477
0.0144144
0.0144276
0.0144373
0.0144424
0.0144426
0.0144378
0.0144289
0.0144172
0.0144047
0.014394
0.0143642
0.0143831
0.0143971
0.0144052
0.0144067
0.0144018
0.0143913
0.0143765
0.0143595
0.0143433
0.0143279
0.0143533
0.0143725
0.0143844
0.0143886
0.014385
0.0143744
0.0143582
0.0143389
0.0143194
0.0142991
0.0143311
0.0143558
0.0143724
0.0143799
0.0143786
0.014369
0.0143527
0.0143321
0.0143104
0.0142719
0.0143102
0.0143406
0.014362
0.0143734
0.0143748
0.0143665
0.0143501
0.0143276
0.0143022
0.0142421
0.0142863
0.0143223
0.0143486
0.0143639
0.0143679
0.0143608
0.0143438
0.0143188
0.0142887
0.0142079
0.0142576
0.0142989
0.0143298
0.0143488
0.0143551
0.0143487
0.0143305
0.0143022
0.014266
0.0141702
0.0142244
0.0142703
0.0143054
0.0143276
0.0143359
0.0143299
0.0143103
0.0142785
0.0142366
0.0141317
0.0141887
0.0142378
0.014276
0.0143008
0.0143105
0.0143049
0.0142842
0.0142503
0.0142056
0.0140948
0.0141515
0.0142019
0.0142416
0.0142676
0.0142781
0.0142722
0.0142503
0.0142139
0.0141653
0.0140526
0.0141093
0.01416
0.0142003
0.0142268
0.0142371
0.0142304
0.0142069
0.014168
0.0141159
0.0140023
0.0140592
0.0141102
0.0141507
0.0141769
0.0141867
0.0141788
0.0141535
0.0141121
0.0140567
0.0139432
0.0140002
0.0140513
0.0140916
0.0141175
0.0141265
0.0141174
0.0140905
0.0140473
0.0139903
0.0138745
0.0139314
0.0139824
0.0140225
0.0140479
0.0140561
0.0140459
0.0140176
0.013973
0.0139149
0.0137947
0.0138517
0.0139026
0.0139426
0.0139675
0.013975
0.0139639
0.0139347
0.0138891
0.0138304
0.013703
0.0137602
0.0138113
0.0138511
0.0138758
0.0138828
0.0138709
0.0138408
0.0137945
0.0137354
0.0136001
0.013657
0.0137081
0.0137479
0.0137724
0.0137789
0.0137665
0.0137357
0.0136888
0.0136294
0.0134851
0.0135418
0.0135928
0.0136326
0.013657
0.0136633
0.0136504
0.0136191
0.013572
0.013513
0.013358
0.0134144
0.0134654
0.0135053
0.0135297
0.0135357
0.0135224
0.0134907
0.0134434
0.0133848
0.0132194
0.013275
0.0133257
0.0133657
0.0133901
0.0133959
0.0133822
0.0133502
0.0133028
0.0132448
0.0130686
0.0131232
0.0131736
0.0132136
0.013238
0.0132437
0.0132298
0.0131974
0.0131501
0.013093
0.012905
0.0129584
0.0130085
0.0130485
0.0130731
0.0130787
0.0130645
0.013032
0.012985
0.0129291
0.0127277
0.0127799
0.0128296
0.0128698
0.0128945
0.0129002
0.0128859
0.0128533
0.0128067
0.0127523
0.012537
0.0125872
0.0126364
0.0126768
0.0127018
0.0127076
0.012693
0.0126603
0.0126142
0.0125614
0.0123316
0.0123795
0.012428
0.0124685
0.012494
0.0124999
0.0124852
0.0124524
0.012407
0.0123565
0.0121108
0.0121557
0.0122033
0.012244
0.0122699
0.012276
0.0122613
0.0122285
0.0121842
0.0121368
0.0118742
0.0119148
0.0119609
0.0120017
0.0120281
0.0120345
0.0120198
0.0119875
0.0119448
0.0119017
0.0116207
0.0116555
0.0116992
0.0117396
0.0117664
0.0117732
0.0117588
0.0117272
0.0116872
0.0116498
0.0113476
0.0113755
0.011416
0.0114554
0.0114822
0.0114893
0.0114754
0.0114454
0.0114088
0.0113785
0.0110524
0.0110726
0.011109
0.0111467
0.0111731
0.0111804
0.0111674
0.0111395
0.0111074
0.011085
0.0107343
0.0107459
0.0107771
0.010812
0.0108373
0.0108447
0.0108331
0.0108082
0.0107816
0.0107684
0.0103916
0.0103949
0.0104199
0.0104507
0.010474
0.0104814
0.0104716
0.0104508
0.0104308
0.0104267
0.0100245
0.0100193
0.0100372
0.010063
0.0100835
0.0100906
0.0100831
0.0100672
0.0100546
0.0100599
0.00963392
0.00961964
0.00962963
0.00964951
0.00966671
0.00967342
0.00966862
0.00965825
0.00965361
0.0096686
0.00922036
0.00919653
0.0091981
0.00921161
0.00922517
0.00923143
0.00922944
0.00922493
0.00922865
0.00925362
0.00878486
0.00875113
0.00874387
0.00875066
0.00876039
0.00876615
0.00876709
0.00876867
0.00878102
0.00881617
0.00832871
0.00828456
0.00826805
0.00826784
0.0082736
0.00827883
0.0082828
0.0082907
0.00831199
0.0083577
0.00785318
0.00779777
0.00777145
0.00776391
0.00776555
0.00777026
0.00777739
0.00779188
0.0078226
0.0078796
0.00735922
0.00729136
0.00725442
0.0072391
0.00723644
0.00724065
0.00725113
0.00727264
0.00731352
0.00738286
0.00684751
0.00676564
0.00671697
0.00669322
0.006686
0.00668972
0.00670384
0.006733
0.00678506
0.00686819
0.00631867
0.00622079
0.0061589
0.0061258
0.0061136
0.00611686
0.00613506
0.00617278
0.00623744
0.00633623
0.00577365
0.00565721
0.00558006
0.00553627
0.00551848
0.0055213
0.00554422
0.00559181
0.00567104
0.00578792
0.00521393
0.00507577
0.00498064
0.00492429
0.00490001
0.00490241
0.00493095
0.00499024
0.00508669
0.00522473
0.00464197
0.00447833
0.00436165
0.00429009
0.00425799
0.00425996
0.00429545
0.00436903
0.00448617
0.00464904
0.00406155
0.00386836
0.00372565
0.00363517
0.00359326
0.0035948
0.00363917
0.00373065
0.00387288
0.0040646
0.00347823
0.00325201
0.00307809
0.00296355
0.00290877
0.00290987
0.00296611
0.00308053
0.00325297
0.00347701
0.00289957
0.0026395
0.00242971
0.00228439
0.00221197
0.00221263
0.00228546
0.00242951
0.00263687
0.00289412
0.00233525
0.00204666
0.00180026
0.00161731
0.0015203
0.00152058
0.00161705
0.00179779
0.00204112
0.00232635
0.00179782
0.0014956
0.00122188
0.00100151
0.00087399
0.000874064
0.00100055
0.00121852
0.00148916
0.00178773
0.00130924
0.00101293
0.00073405
0.000501244
0.000358312
0.000358472
0.000500804
0.00073227
0.0010092
0.00130251
0.000917285
0.000619471
0.000361182
0.000177616
8.59338e-05
8.61681e-05
0.000178142
0.000362153
0.000621169
0.000920085
0.000611734
0.00028022
0.000106755
3.97136e-05
2.75829e-05
2.76101e-05
3.99218e-05
0.000107727
0.000283141
0.000619304
0.00019549
0.000194548
0.00019336
0.000191911
0.000190189
0.000188183
0.000185887
0.000183299
0.00018042
0.00017726
0.000173831
0.000170148
0.000166283
0.00016255
0.000158802
0.00015499
0.000151109
0.00014717
0.00014319
0.00013919
0.000135185
0.000131188
0.000127207
0.000123248
0.000119311
0.000115389
0.000111475
0.000107555
0.000103612
9.96227e-05
9.5558e-05
9.13805e-05
8.70392e-05
8.24611e-05
7.75169e-05
7.18301e-05
6.5332e-05
5.75878e-05
4.81143e-05
1.86148e-05
0.0019527
0.00193656
0.00191739
0.00189515
0.00186983
0.00184145
0.00181008
0.00177587
0.00173908
0.00169998
0.00165881
0.00161546
0.00156874
0.00151713
0.00146376
0.00141049
0.00135851
0.00130852
0.00126085
0.00121562
0.00117277
0.0011321
0.00109335
0.00105622
0.00102038
0.000985459
0.000951125
0.000917023
0.000882799
0.000848081
0.000812453
0.0007754
0.00073622
0.000693847
0.000646466
0.000590745
0.000520053
0.000418762
0.000253137
3.10863e-05
0.00394996
0.00391712
0.00387776
0.00383178
0.0037791
0.00371971
0.00365375
0.00358149
0.00350339
0.00342002
0.003332
0.00323981
0.00314359
0.00304295
0.00294004
0.00283683
0.00273489
0.00263538
0.00253908
0.00244641
0.00235748
0.00227219
0.00219023
0.00211116
0.00203444
0.00195945
0.00188549
0.00181179
0.00173752
0.0016617
0.00158313
0.00150028
0.00141099
0.00131207
0.0011986
0.00106269
0.000891753
0.000666217
0.000362238
3.89053e-05
0.00566398
0.00561835
0.00556356
0.00549943
0.00542583
0.0053427
0.00525019
0.00514861
0.00503857
0.00492087
0.00479652
0.00466659
0.0045321
0.00439339
0.00425234
0.00411074
0.00397013
0.00383174
0.00369647
0.00356486
0.00343716
0.00331332
0.00319307
0.00307592
0.00296121
0.00284815
0.00273577
0.00262295
0.00250838
0.00239045
0.00226718
0.00213596
0.00199327
0.00183419
0.0016517
0.00143576
0.00117227
0.000843054
0.000434111
4.43254e-05
0.00708867
0.00703367
0.00696769
0.00689051
0.00680195
0.00670194
0.00659058
0.00646822
0.00633552
0.00619345
0.00604327
0.00588649
0.00572462
0.00555835
0.00538953
0.00521985
0.00505075
0.00488336
0.00471854
0.00455681
0.00439839
0.00424325
0.00409107
0.00394133
0.00379329
0.00364599
0.00349824
0.00334864
0.00319545
0.00303654
0.00286923
0.00269009
0.00249458
0.00227669
0.00202832
0.00173874
0.00139419
0.000979158
0.000488259
4.83235e-05
0.00826889
0.00820707
0.00813307
0.00804667
0.0079477
0.00783603
0.00771172
0.00757508
0.00742679
0.00726789
0.00709978
0.00692435
0.0067434
0.00655785
0.00636955
0.00618005
0.00599062
0.00580223
0.00561557
0.00543104
0.00524879
0.0050687
0.00489038
0.00471324
0.00453643
0.00435886
0.00417917
0.00399566
0.00380629
0.00360851
0.00339911
0.00317407
0.00292822
0.00265496
0.00234579
0.00199006
0.00157508
0.00108831
0.000531509
5.15255e-05
0.00925243
0.00918562
0.00910589
0.00901307
0.00890696
0.00878744
0.00865448
0.00850824
0.0083493
0.00817874
0.00799805
0.00780975
0.00761523
0.00741631
0.00721464
0.0070115
0.00680789
0.00660453
0.00640191
0.00620026
0.00599957
0.00579961
0.0055999
0.00539975
0.00519819
0.00499401
0.00478567
0.00457127
0.00434849
0.00411447
0.00386566
0.00359765
0.00330493
0.00298064
0.00261631
0.00220178
0.00172567
0.00117826
0.000567161
5.41945e-05
0.010082
0.0100115
0.00992766
0.00983037
0.00971948
0.00959483
0.00945629
0.00930387
0.00913781
0.00895934
0.00876955
0.00857049
0.00836592
0.00815774
0.00794699
0.00773453
0.00752103
0.00730696
0.00709257
0.0068779
0.00666276
0.00644679
0.0062294
0.00600978
0.00578684
0.00555924
0.00532529
0.00508292
0.0048296
0.00456223
0.00427705
0.00396943
0.00363371
0.00326301
0.00284913
0.00238257
0.00185334
0.00125422
0.000597505
5.65317e-05
0.0107935
0.0107201
0.0106333
0.0105328
0.0104187
0.0102907
0.010149
0.00999338
0.00982322
0.00963615
0.00943751
0.00923122
0.00901917
0.00880405
0.00858687
0.00836776
0.00814712
0.00792513
0.00770178
0.0074769
0.00725015
0.00702101
0.00678876
0.00655247
0.00631093
0.00606265
0.00580582
0.00553821
0.00525713
0.00495935
0.00464093
0.00429715
0.00392235
0.00350979
0.00305162
0.00253912
0.00196359
0.00131996
0.000624208
5.86228e-05
0.0114155
0.01134
0.0112508
0.0111481
0.0110316
0.0109014
0.0107573
0.0105983
0.0104212
0.0102253
0.0100187
0.0098071
0.0095917
0.00937261
0.00915073
0.0089268
0.00870083
0.00847272
0.00824225
0.00800908
0.00777271
0.00753247
0.00728752
0.00703676
0.00677889
0.00651228
0.00623498
0.00594463
0.00563843
0.00531302
0.0049644
0.00458783
0.0041777
0.00372751
0.00322983
0.00267669
0.00206058
0.00137822
0.000648388
6.05397e-05
0.0119705
0.0118933
0.0118024
0.0116981
0.0115802
0.0114488
0.0113037
0.0111408
0.010955
0.0107506
0.0105372
0.0103204
0.010101
0.00987856
0.00965314
0.00942536
0.009195
0.00896177
0.0087253
0.00848508
0.00824045
0.00799061
0.00773456
0.0074711
0.00719876
0.0069158
0.00662014
0.00630929
0.00598037
0.00562994
0.00525397
0.00484772
0.00440571
0.00392168
0.00338868
0.00279942
0.00214746
0.00143095
0.00067079
6.23369e-05
0.0124751
0.0123967
0.0123049
0.0121997
0.0120815
0.0119504
0.0118052
0.0116379
0.0114415
0.0112273
0.0110075
0.0107861
0.0105623
0.0103357
0.0101068
0.00987529
0.00964077
0.00940281
0.00916088
0.0089143
0.00866229
0.00840387
0.00813792
0.00786309
0.00757779
0.00728013
0.00696793
0.00663862
0.00628917
0.00591611
0.00551536
0.00508225
0.00461142
0.00409688
0.00353209
0.00291043
0.00222637
0.00147931
0.000691801
6.4049e-05
0.0129415
0.0128625
0.0127704
0.0126656
0.0125485
0.0124197
0.0122747
0.0120973
0.0118879
0.0116651
0.0114403
0.0112137
0.0109849
0.0107543
0.0105214
0.0102859
0.0100471
0.00980453
0.00955739
0.00930488
0.00904606
0.00877981
0.00850486
0.00821972
0.00792267
0.0076117
0.0072845
0.0069384
0.00657031
0.00617666
0.00575339
0.00529585
0.00479882
0.00425652
0.00366279
0.00301156
0.00229804
0.00152273
0.000710035
6.57737e-05
0.0133778
0.0132987
0.0132072
0.0131037
0.012989
0.0128635
0.012716
0.0125243
0.0123027
0.0120733
0.0118429
0.0116103
0.0113765
0.0111413
0.0109041
0.0106643
0.0104212
0.0101739
0.0099217
0.00966352
0.0093983
0.00912476
0.00884151
0.00854691
0.00823912
0.007916
0.00757514
0.00721376
0.00682868
0.00641629
0.00597251
0.00549272
0.0049718
0.0044042
0.00378406
0.00310578
0.00236524
0.00156389
0.000727754
6.74586e-05
0.0137889
0.0137104
0.0136202
0.0135192
0.0134085
0.0132879
0.0131337
0.012927
0.0126945
0.012459
0.012221
0.0119816
0.0117422
0.011502
0.0112602
0.011016
0.0107684
0.0105165
0.0102592
0.00999558
0.00972425
0.00944386
0.00915287
0.00884952
0.00853184
0.00819759
0.00784423
0.00746888
0.0070683
0.00663882
0.00617631
0.00567621
0.00513349
0.00454274
0.00389839
0.00319523
0.0024297
0.00160401
0.000745475
6.91121e-05
0.0141776
0.0140998
0.0140114
0.0139135
0.0138075
0.013688
0.0135258
0.0133087
0.0130682
0.0128243
0.0125768
0.0123309
0.0120858
0.0118405
0.0115939
0.0113451
0.011093
0.0108364
0.0105742
0.0103052
0.010028
0.00974116
0.0094429
0.0091314
0.00880458
0.00846007
0.00809524
0.00770711
0.00729235
0.00684723
0.00636761
0.00584892
0.0052862
0.00467418
0.0040075
0.00328127
0.00249236
0.0016436
0.000763315
7.07419e-05
0.0145449
0.0144676
0.0143806
0.0142847
0.0141803
0.0140568
0.0138969
0.0136728
0.0134239
0.0131707
0.0129134
0.0126605
0.0124097
0.0121593
0.0119081
0.0116547
0.0113981
0.0111368
0.0108698
0.0105956
0.0103128
0.0100197
0.00971461
0.00939551
0.0090602
0.00870623
0.00833085
0.00793098
0.00750323
0.00704379
0.00654848
0.00601272
0.0054316
0.00479992
0.0041125
0.00336469
0.00255369
0.0016828
0.000781193
7.2348e-05
0.0148918
0.0148151
0.0147298
0.0146371
0.0145357
0.0144088
0.0142406
0.0140006
0.0137535
0.0134889
0.0132281
0.0129707
0.0127153
0.0124604
0.0122047
0.0119469
0.0116858
0.01142
0.0111482
0.010869
0.0105807
0.0102818
0.00997022
0.00964401
0.00930083
0.00893811
0.00855302
0.00814238
0.0077027
0.00723012
0.00672039
0.00616891
0.00557077
0.00492085
0.00421405
0.0034459
0.00261387
0.00172162
0.000799076
7.39296e-05
0.0152191
0.0151431
0.0150602
0.0149721
0.014873
0.0147363
0.0145523
0.0143043
0.0140553
0.013787
0.0135232
0.0132624
0.0130032
0.0127444
0.0124847
0.0122228
0.0119574
0.0116872
0.0114109
0.0111268
0.0108334
0.0105289
0.0102113
0.00987845
0.00952797
0.00915719
0.00876316
0.00834263
0.00789201
0.00740734
0.00688433
0.00631834
0.00570442
0.00503747
0.00431248
0.00352507
0.00267291
0.00175996
0.000816844
7.54825e-05
0.0155269
0.015452
0.015372
0.0152893
0.0151886
0.0150335
0.0148318
0.0145832
0.014333
0.0140645
0.0137992
0.0135361
0.0132741
0.013012
0.0127488
0.0124831
0.0122137
0.0119394
0.0116587
0.0113701
0.0110718
0.0107621
0.0104389
0.0100999
0.00974267
0.00936447
0.00896224
0.00853264
0.00807197
0.0075762
0.00704095
0.00646152
0.00583292
0.00515005
0.0044079
0.00360218
0.0027307
0.00179766
0.000834343
7.69997e-05
0.0158149
0.0157413
0.0156647
0.015588
0.0154805
0.0153028
0.0150887
0.0148411
0.0145901
0.0143226
0.014057
0.0137925
0.0135284
0.0132636
0.0129972
0.0127281
0.0124551
0.012177
0.0118923
0.0115994
0.0112966
0.0109821
0.0106536
0.010309
0.00994563
0.00956063
0.0091509
0.00871298
0.0082431
0.00773712
0.00719059
0.00659871
0.00595645
0.00525865
0.0045003
0.00367716
0.00278711
0.00183461
0.000851552
7.84778e-05
0.0160826
0.0160109
0.0159383
0.0158681
0.0157535
0.0155552
0.0153286
0.0150816
0.0148294
0.0145637
0.0142982
0.0140327
0.0137667
0.0134995
0.0132304
0.0129582
0.012682
0.0124004
0.012112
0.0118152
0.0115083
0.0111893
0.0108561
0.0105063
0.0101373
0.00974611
0.00932953
0.00888402
0.0084057
0.00789036
0.00733342
0.00673001
0.00607501
0.00536321
0.00458957
0.00374984
0.002842
0.00187067
0.00086839
7.99125e-05
0.0163291
0.0162601
0.0161925
0.0161304
0.0160099
0.0157936
0.0155566
0.0153092
0.0150556
0.0147908
0.0145248
0.014258
0.0139902
0.0137207
0.013449
0.0131741
0.0128948
0.01261
0.0123182
0.0120178
0.0117072
0.0113842
0.0110466
0.0106921
0.010318
0.00992116
0.00949836
0.00904593
0.00855992
0.00803598
0.00746946
0.00685537
0.00618852
0.0054636
0.00467552
0.00382003
0.00289514
0.00190567
0.000884737
8.12977e-05
0.0165528
0.0164871
0.016425
0.0163708
0.0162468
0.0160209
0.015779
0.01553
0.0152749
0.0150079
0.0147396
0.0144705
0.0142003
0.0139284
0.013654
0.0133763
0.0130942
0.0128063
0.0125114
0.0122078
0.0118936
0.0115669
0.0112255
0.0108667
0.0104879
0.010086
0.00965751
0.0091988
0.00870576
0.00817397
0.00759863
0.00697467
0.00629679
0.00555959
0.00475791
0.00388747
0.00294632
0.00193943
0.000900506
8.26276e-05
0.0167514
0.0166893
0.0166325
0.016584
0.0164623
0.0162362
0.0159915
0.0157413
0.0154858
0.0152165
0.0149443
0.0146718
0.0143984
0.0141236
0.0138463
0.0135658
0.0132808
0.01299
0.0126921
0.0123854
0.012068
0.0117379
0.0113928
0.0110302
0.0106471
0.0102406
0.009807
0.00934259
0.00884317
0.00830419
0.00772077
0.00708771
0.0063996
0.00565093
0.00483649
0.00395192
0.0029953
0.00197177
0.000915602
8.38965e-05
0.0169227
0.0168642
0.0168111
0.0167613
0.0166536
0.01644
0.0161915
0.0159402
0.0156853
0.0154165
0.0151392
0.0148624
0.0145853
0.0143071
0.0140267
0.0137431
0.0134551
0.0131615
0.0128606
0.0125509
0.0122304
0.0118972
0.0115488
0.0111826
0.0107957
0.010385
0.00994677
0.00947721
0.00897199
0.00842648
0.00783567
0.00719424
0.00649667
0.00573735
0.00491096
0.0040131
0.00304187
0.00200254
0.000929949
8.50992e-05
0.0170651
0.0170105
0.0169613
0.0169112
0.0168202
0.0166244
0.0163742
0.0161228
0.0158687
0.0156037
0.0153235
0.0150421
0.014761
0.0144791
0.0141953
0.0139086
0.0136176
0.013321
0.0130172
0.0127046
0.0123812
0.0120449
0.0116934
0.011324
0.0109336
0.0105191
0.0100767
0.00960246
0.00909201
0.00854057
0.00794304
0.00729396
0.00658769
0.00581852
0.00498103
0.00407076
0.00308581
0.00203158
0.000943473
8.62306e-05
0.0171776
0.0171282
0.0170853
0.0170399
0.0169557
0.0167811
0.0165377
0.0162864
0.0160324
0.0157725
0.0154956
0.01521
0.0149249
0.0146393
0.0143522
0.0140622
0.0137681
0.0134685
0.0131618
0.0128464
0.0125202
0.0121811
0.0118266
0.0114542
0.0110606
0.0106426
0.0101965
0.00971809
0.00920294
0.00864617
0.00804255
0.00738652
0.00667232
0.00589411
0.00504638
0.0041246
0.00312687
0.00205872
0.000956097
8.72856e-05
0.0172586
0.0172156
0.0171816
0.0171463
0.0170658
0.0169152
0.0166844
0.0164296
0.0161743
0.0159159
0.0156484
0.0153646
0.0150759
0.014787
0.0144966
0.0142035
0.0139064
0.0136038
0.0132943
0.012976
0.0126471
0.0123053
0.0119482
0.0115729
0.0111765
0.0107554
0.0103059
0.00982376
0.00930441
0.00874288
0.00813381
0.00747154
0.00675016
0.00596374
0.00510666
0.00417434
0.00316484
0.00208382
0.000967748
8.82589e-05
0.0173065
0.0172689
0.0172425
0.0172209
0.0171607
0.0170265
0.0168041
0.0165486
0.0162926
0.0160355
0.0157737
0.0155003
0.0152128
0.0149213
0.0146281
0.0143321
0.014032
0.0137266
0.0134142
0.0130932
0.0127617
0.0124173
0.0120577
0.0116799
0.0112808
0.010857
0.0104045
0.00991905
0.00939601
0.00883028
0.0082164
0.00754858
0.0068208
0.00602702
0.00516152
0.00421964
0.00319945
0.00210671
0.00097836
8.91457e-05
0.0173206
0.0172859
0.0172612
0.0172472
0.0172153
0.0171025
0.0168921
0.0166398
0.0163839
0.0161292
0.0158724
0.0156088
0.0153325
0.015042
0.0147463
0.0144475
0.0141445
0.0138362
0.0135211
0.0131975
0.0128634
0.0125166
0.0121546
0.0117745
0.0113731
0.0109468
0.0104917
0.0100035
0.00947724
0.00890788
0.00828982
0.00761715
0.00688377
0.0060835
0.00521055
0.00426018
0.00323045
0.00212721
0.000987856
8.99409e-05
0.0173024
0.0172695
0.0172431
0.0172251
0.0172088
0.017133
0.0169417
0.0166952
0.016443
0.016193
0.0159419
0.0156865
0.0154232
0.0151461
0.0148517
0.0145497
0.0142437
0.0139324
0.0136145
0.0132882
0.0129516
0.0126026
0.0122384
0.0118562
0.0114528
0.0110244
0.0105671
0.0100765
0.00954755
0.00897513
0.00835354
0.00767676
0.00693858
0.00613273
0.00525332
0.00429556
0.0032575
0.00214509
0.000996132
9.0639e-05
0.0172535
0.0172234
0.0171974
0.0171782
0.0171654
0.0171064
0.0169415
0.0167147
0.0164697
0.0162247
0.0159802
0.0157323
0.0154787
0.0152159
0.0149376
0.0146387
0.0143295
0.014015
0.013694
0.013365
0.0130259
0.0126746
0.0123084
0.0119244
0.0115192
0.0110891
0.01063
0.0101374
0.00960635
0.00903147
0.00840701
0.00772688
0.00698473
0.00617423
0.0052894
0.00432538
0.00328022
0.00215996
0.00100286
9.12424e-05
0.0171747
0.0171489
0.0171253
0.0171065
0.0170931
0.0170423
0.0169016
0.016699
0.0164668
0.0162269
0.0159872
0.0157462
0.0155006
0.015248
0.0149847
0.0147042
0.0144012
0.0140839
0.0137592
0.0134271
0.0130855
0.0127321
0.012364
0.0119784
0.0115717
0.0111403
0.0106798
0.0101858
0.00965312
0.0090764
0.00844977
0.00776706
0.00702184
0.00620768
0.00531852
0.00434946
0.00329853
0.00217188
0.00100821
9.17464e-05
0.0170661
0.017046
0.0170268
0.01701
0.0169946
0.0169468
0.0168253
0.0166444
0.0164285
0.0161982
0.0159647
0.0157303
0.0154924
0.0152481
0.0149949
0.0147289
0.0144436
0.0141353
0.0138093
0.0134738
0.0131296
0.012774
0.0124044
0.0120174
0.0116097
0.0111773
0.0107159
0.010221
0.00968731
0.00910941
0.00848136
0.0077969
0.00704954
0.00623278
0.00534048
0.00436769
0.00331243
0.00218094
0.00101226
9.214e-05
0.0169276
0.0169143
0.0169008
0.0168875
0.0168713
0.0168252
0.0167162
0.0165525
0.0163535
0.0161366
0.0159128
0.0156865
0.0154565
0.0152201
0.0149751
0.0147188
0.0144466
0.0141535
0.0138383
0.0135034
0.0131567
0.0127994
0.0124284
0.0120406
0.0116322
0.0111994
0.0107377
0.0102424
0.00970841
0.00913005
0.00850137
0.00781605
0.00706755
0.00624929
0.00535508
0.00437993
0.00332184
0.0021871
0.00101502
9.24211e-05
0.0167601
0.0167537
0.016746
0.0167373
0.0167248
0.0166829
0.0165812
0.0164304
0.016247
0.0160447
0.0158331
0.0156166
0.0153954
0.0151674
0.0149303
0.014682
0.0144196
0.0141386
0.013836
0.0135109
0.0131654
0.0128066
0.012435
0.0120469
0.0116385
0.0112059
0.0107446
0.0102497
0.00971599
0.00913794
0.00850949
0.00782425
0.00707564
0.00625704
0.0053622
0.0043861
0.00332671
0.00219035
0.00101647
9.2589e-05
0.0165661
0.0165667
0.0165653
0.0165614
0.0165538
0.0165179
0.0164234
0.0162844
0.0161152
0.0159274
0.0157287
0.0155231
0.0153114
0.0150921
0.0148632
0.0146226
0.0143682
0.0140966
0.013804
0.0134887
0.0131508
0.0127938
0.0124226
0.0120353
0.0116279
0.0111963
0.010736
0.0102423
0.00970978
0.00913288
0.00850555
0.00782137
0.00707373
0.00625597
0.00536182
0.0043862
0.00332705
0.00219068
0.00101662
9.26444e-05
0.0163501
0.0163576
0.0163628
0.0163649
0.0163622
0.0163318
0.0162459
0.0161187
0.015963
0.0157889
0.0156029
0.0154085
0.0152063
0.0149957
0.014775
0.0145421
0.014295
0.0140311
0.0137473
0.0134412
0.0131117
0.0127592
0.0123903
0.0120051
0.0115998
0.0111702
0.0107119
0.0102202
0.00968971
0.00911486
0.00848958
0.00780747
0.0070619
0.00624618
0.00535403
0.00438031
0.00332294
0.00218817
0.00101551
9.25901e-05
0.0161176
0.0161317
0.0161437
0.0161522
0.0161548
0.0161286
0.0160512
0.0159355
0.0157928
0.0156319
0.0154582
0.0152747
0.0150823
0.0148804
0.0146675
0.0144421
0.0142021
0.0139453
0.0136693
0.0133716
0.0130501
0.0127031
0.0123381
0.0119563
0.0115542
0.0111276
0.0106724
0.0101835
0.00965597
0.00908408
0.00846182
0.00778281
0.0070404
0.00622792
0.00533905
0.00436864
0.00331453
0.00218293
0.00101319
9.24305e-05
0.0158756
0.0158955
0.0159138
0.0159287
0.0159354
0.0159105
0.0158412
0.0157366
0.0156063
0.0154578
0.0152959
0.0151233
0.0149407
0.0147476
0.0145428
0.0143247
0.0140917
0.0138417
0.0135726
0.013282
0.0129675
0.0126265
0.0122666
0.0118895
0.0114916
0.0110691
0.0106177
0.0101327
0.00960901
0.00904102
0.00842274
0.00774783
0.00700967
0.00620159
0.00531726
0.00435149
0.00330208
0.00217511
0.00100974
9.2172e-05
0.0156311
0.0156559
0.0156795
0.0156993
0.015708
0.0156836
0.0156205
0.0155252
0.0154055
0.0152683
0.0151175
0.0149554
0.0147826
0.0145984
0.0144017