/*--------------------------------*- C++ -*----------------------------------*\
  =========                 |
  \\      /  F ield         | OpenFOAM: The Open Source CFD Toolbox
   \\    /   O peration     | Website:  https://openfoam.org
    \\  /    A nd           | Version:  8
     \\/     M anipulation  |
\*---------------------------------------------------------------------------*/
FoamFile
{
    version     2.0;
    format      ascii;
    class       surfaceScalarField;
    location    "1.15";
    object      phi;
}
// * * * * * * * * * * * * * * * * * * * * * * * * * * * * * * * * * * * * * //

dimensions      [0 3 -1 0 0 0 0];

internalField   nonuniform List<scalar> 
18095
(
1.5946e-07
-9.64328e-07
8.04868e-07
1.66019e-07
-1.24851e-06
1.24196e-06
1.2259e-07
-1.24252e-06
1.28595e-06
6.55048e-08
-1.26376e-06
1.32084e-06
1.13126e-12
-1.28088e-06
1.34638e-06
-6.55027e-08
-1.28088e-06
1.34638e-06
-1.22588e-07
-1.26376e-06
1.32084e-06
-1.66017e-07
-1.24252e-06
1.28595e-06
-1.59459e-07
-1.24851e-06
1.24196e-06
-9.6433e-07
8.0487e-07
1.11318e-07
-1.07565e-06
9.97976e-08
-1.23699e-06
7.31236e-08
-1.21584e-06
4.01686e-08
-1.2308e-06
6.38456e-13
-1.24071e-06
-4.01674e-08
-1.24071e-06
-7.31227e-08
-1.2308e-06
-9.97969e-08
-1.21584e-06
-1.11317e-07
-1.23699e-06
-1.07565e-06
6.7479e-08
-1.14313e-06
5.30453e-08
-1.22256e-06
4.23532e-08
-1.20515e-06
2.39712e-08
-1.21242e-06
2.64481e-13
-1.21674e-06
-2.39707e-08
-1.21674e-06
-4.23528e-08
-1.21242e-06
-5.30449e-08
-1.20515e-06
-6.74786e-08
-1.22256e-06
-1.14313e-06
3.98301e-08
-1.18296e-06
2.67772e-08
-1.20951e-06
2.214e-08
-1.20052e-06
1.26044e-08
-1.20289e-06
1.45948e-13
-1.20414e-06
-1.26041e-08
-1.20414e-06
-2.21397e-08
-1.20289e-06
-2.6777e-08
-1.20052e-06
-3.98299e-08
-1.20951e-06
-1.18296e-06
1.70442e-08
7.53631e-09
7.02091e-09
4.13584e-09
-2.319e-15
-4.13584e-09
-7.02089e-09
-7.5363e-09
-1.70442e-08
-1.76849e-07
-1.16227e-06
1.33912e-06
-2.21484e-07
-1.2168e-06
1.26144e-06
-1.66739e-07
-1.21335e-06
1.1586e-06
-8.7629e-08
-1.20449e-06
1.12538e-06
1.33658e-11
-1.20308e-06
1.11543e-06
8.76551e-08
-1.20308e-06
1.11544e-06
1.66762e-07
-1.20449e-06
1.12538e-06
2.21505e-07
-1.21336e-06
1.15862e-06
1.76867e-07
-1.21681e-06
1.26145e-06
-1.16228e-06
1.33915e-06
-9.24635e-08
-1.06981e-06
-9.55241e-08
-1.21374e-06
-7.94725e-08
-1.2294e-06
-4.43813e-08
-1.23958e-06
7.4807e-12
-1.24747e-06
4.43956e-08
-1.24747e-06
7.94851e-08
-1.23958e-06
9.5534e-08
-1.22941e-06
9.24689e-08
-1.21375e-06
-1.06981e-06
-5.8116e-08
-1.01169e-06
-5.51886e-08
-1.21667e-06
-4.65359e-08
-1.23805e-06
-2.71598e-08
-1.25895e-06
4.48103e-12
-1.27463e-06
2.71683e-08
-1.27463e-06
4.65431e-08
-1.25895e-06
5.51936e-08
-1.23806e-06
5.81182e-08
-1.21667e-06
-1.01169e-06
-7.52608e-08
-9.36429e-07
-6.2332e-08
-1.2296e-06
-4.86467e-08
-1.25174e-06
-2.7757e-08
-1.27984e-06
2.83181e-12
-1.30239e-06
2.77623e-08
-1.30239e-06
4.86511e-08
-1.27984e-06
6.23349e-08
-1.25174e-06
7.5262e-08
-1.2296e-06
-9.36432e-07
-1.31561e-07
-1.19201e-07
-8.49929e-08
-4.39917e-08
1.86819e-12
4.39952e-08
8.49957e-08
1.19203e-07
1.31561e-07
-5.3844e-08
-9.39268e-07
9.93112e-07
1.00432e-09
-1.33761e-06
1.28277e-06
1.04035e-08
-1.27215e-06
1.26275e-06
4.93946e-09
-1.22687e-06
1.23234e-06
1.24376e-10
-1.22386e-06
1.22867e-06
-4.68206e-09
-1.22388e-06
1.22869e-06
-1.01792e-08
-1.22686e-06
1.23236e-06
-7.03075e-10
-1.27213e-06
1.26265e-06
5.42808e-08
-1.33765e-06
1.28267e-06
-9.39712e-07
9.93993e-07
9.14937e-09
-9.48418e-07
1.60726e-08
-1.34454e-06
1.17165e-08
-1.26779e-06
6.59867e-09
-1.22175e-06
8.89801e-11
-1.21735e-06
-6.4316e-09
-1.21736e-06
-1.15456e-08
-1.22175e-06
-1.58677e-08
-1.26781e-06
-8.93136e-09
-1.34459e-06
-9.48644e-07
2.63255e-08
-9.74743e-07
1.86792e-08
-1.33689e-06
9.43031e-09
-1.25855e-06
5.4348e-09
-1.21776e-06
5.49571e-11
-1.21197e-06
-5.33071e-09
-1.21197e-06
-9.31087e-09
-1.21777e-06
-1.85594e-08
-1.25856e-06
-2.62192e-08
-1.33693e-06
-9.74863e-07
7.98601e-08
-1.0546e-06
5.56574e-08
-1.31269e-06
3.6154e-08
-1.23904e-06
2.1179e-08
-1.20278e-06
3.56216e-11
-1.19083e-06
-2.11073e-08
-1.19083e-06
-3.60804e-08
-1.2028e-06
-5.55797e-08
-1.23906e-06
-7.98011e-08
-1.3127e-06
-1.05466e-06
2.84515e-07
2.33261e-07
1.52823e-07
7.54142e-08
2.2359e-11
-7.53701e-08
-1.52784e-07
-2.33228e-07
-2.84483e-07
-4.16987e-07
-9.8363e-08
5.1535e-07
-3.16864e-07
-1.00123e-07
-2.15502e-07
-1.01362e-07
-1.13366e-07
-1.02136e-07
-1.10126e-08
-1.02353e-07
9.14032e-08
-1.02416e-07
1.93772e-07
-1.02369e-07
2.95571e-07
-1.01799e-07
3.96321e-07
-1.0075e-07
-9.91657e-08
4.95487e-07
-3.45411e-07
-1.79479e-07
4.26527e-07
-2.62455e-07
-1.83079e-07
-1.78093e-07
-1.85724e-07
-9.2733e-08
-1.87496e-07
-6.66012e-09
-1.88426e-07
7.94906e-08
-1.88567e-07
1.65041e-07
-1.87919e-07
2.49673e-07
-1.86431e-07
3.32983e-07
-1.8406e-07
-1.8072e-07
4.14537e-07
-2.91457e-07
-2.48299e-07
3.60277e-07
-2.21099e-07
-2.53436e-07
-1.49574e-07
-2.57249e-07
-7.72635e-08
-2.59807e-07
-4.52831e-09
-2.61162e-07
6.82406e-08
-2.61336e-07
1.40649e-07
-2.60328e-07
2.1233e-07
-2.58112e-07
2.82904e-07
-2.54634e-07
-2.49817e-07
3.52001e-07
-2.49124e-07
-3.07247e-07
3.08072e-07
-1.88885e-07
-3.13675e-07
-1.27691e-07
-3.18444e-07
-6.58599e-08
-3.21638e-07
-3.70372e-09
-3.23318e-07
5.84749e-08
-3.23514e-07
1.20373e-07
-3.22226e-07
1.81683e-07
-3.19422e-07
2.42087e-07
-3.15038e-07
-3.08985e-07
3.01254e-07
-2.13559e-07
-3.57755e-07
2.64067e-07
-1.61993e-07
-3.65241e-07
-1.09649e-07
-3.70788e-07
-5.67871e-08
-3.74499e-07
-3.66015e-09
-3.76445e-07
4.94855e-08
-3.7666e-07
1.02404e-07
-3.75145e-07
1.54848e-07
-3.71865e-07
2.0656e-07
-3.66749e-07
-3.59695e-07
2.5727e-07
-1.83234e-07
-4.00979e-07
2.26458e-07
-1.39173e-07
-4.09302e-07
-9.44963e-08
-4.15465e-07
-4.941e-08
-4.19586e-07
-4.11329e-09
-4.21742e-07
4.11996e-08
-4.21973e-07
8.63357e-08
-4.20281e-07
1.31101e-07
-4.1663e-07
1.75297e-07
-4.10945e-07
-4.03111e-07
2.18713e-07
-1.57639e-07
-4.37983e-07
1.94643e-07
-1.19994e-07
-4.46947e-07
-8.18777e-08
-4.53582e-07
-4.34474e-08
-4.58016e-07
-4.85564e-09
-4.60333e-07
3.3749e-08
-4.60577e-07
7.22196e-08
-4.58752e-07
1.1041e-07
-4.5482e-07
1.48171e-07
-4.48706e-07
-4.40289e-07
1.85348e-07
-1.36911e-07
-4.69956e-07
1.68884e-07
-1.04497e-07
-4.7936e-07
-7.17541e-08
-4.86325e-07
-3.879e-08
-4.9098e-07
-5.71161e-09
-4.93412e-07
2.73756e-08
-4.93665e-07
6.03683e-08
-4.91745e-07
9.31662e-08
-4.87618e-07
1.25672e-07
-4.81212e-07
-4.72406e-07
1.57789e-07
-1.21357e-07
-4.98251e-07
1.49652e-07
-9.28523e-08
-5.07865e-07
-6.41778e-08
-5.14999e-07
-3.5384e-08
-5.19774e-07
-6.52674e-09
-5.22269e-07
2.23369e-08
-5.22528e-07
5.11523e-08
-5.2056e-07
7.98718e-08
-5.16338e-07
1.08459e-07
-5.09799e-07
-5.00839e-07
1.36891e-07
-1.10975e-07
-5.24261e-07
1.36985e-07
-8.50216e-08
-5.33819e-07
-5.90804e-08
-5.40941e-07
-3.31344e-08
-5.4572e-07
-7.18081e-09
-5.48223e-07
1.87787e-08
-5.48488e-07
4.47464e-08
-5.46528e-07
7.07371e-08
-5.42329e-07
9.67878e-08
-5.35849e-07
-5.2702e-07
1.22969e-07
-1.04997e-07
-5.49081e-07
1.29817e-07
-8.04584e-08
-5.58358e-07
-5.60926e-08
-5.65306e-07
-3.1827e-08
-5.69985e-07
-7.60825e-09
-5.72441e-07
1.6611e-08
-5.72707e-07
4.08832e-08
-5.708e-07
6.52765e-08
-5.66722e-07
8.98882e-08
-5.60461e-07
-5.51993e-07
1.14861e-07
-1.02469e-07
-5.73574e-07
1.26962e-07
-7.84347e-08
-5.82392e-07
-5.4711e-08
-5.8903e-07
-3.1184e-08
-5.93512e-07
-7.76017e-09
-5.95865e-07
1.56474e-08
-5.96115e-07
3.91302e-08
-5.94283e-07
6.27953e-08
-5.90387e-07
8.6779e-08
-5.84445e-07
-5.76476e-07
1.11262e-07
-1.01922e-07
-5.98201e-07
1.26549e-07
-7.78579e-08
-6.06455e-07
-5.41963e-08
-6.12692e-07
-3.0802e-08
-6.16907e-07
-7.55656e-09
-6.19111e-07
1.56524e-08
-6.19324e-07
3.89404e-08
-6.17571e-07
6.24361e-08
-6.13883e-07
8.62921e-08
-6.08301e-07
-6.00881e-07
1.10697e-07
-1.01794e-07
-6.22957e-07
1.26549e-07
-7.75885e-08
-6.30661e-07
-5.38013e-08
-6.36479e-07
-3.03033e-08
-6.40405e-07
-6.97396e-09
-6.4244e-07
1.63024e-08
-6.426e-07
3.96414e-08
-6.4091e-07
6.3164e-08
-6.37405e-07
8.70036e-08
-6.3214e-07
-6.2519e-07
1.11312e-07
-1.01118e-07
-6.47645e-07
1.25806e-07
-7.69073e-08
-6.54871e-07
-5.30682e-08
-6.60318e-07
-2.94883e-08
-6.63985e-07
-6.05918e-09
-6.65869e-07
1.73234e-08
-6.65982e-07
4.07601e-08
-6.64346e-07
6.43486e-08
-6.60994e-07
8.81833e-08
-6.55975e-07
-6.49358e-07
1.12351e-07
-9.93771e-08
-6.71836e-07
1.23569e-07
-7.5502e-08
-6.78746e-07
-5.18709e-08
-6.83949e-07
-2.84054e-08
-6.8745e-07
-5.02564e-09
-6.89249e-07
1.83491e-08
-6.89357e-07
4.17996e-08
-6.87797e-07
6.54041e-08
-6.84598e-07
8.92312e-08
-6.79802e-07
-6.73455e-07
1.13328e-07
-9.76426e-08
-6.95492e-07
1.21298e-07
-7.41572e-08
-7.02232e-07
-5.0816e-08
-7.0729e-07
-2.7582e-08
-7.10684e-07
-4.40789e-09
-7.12423e-07
1.87585e-08
-7.12524e-07
4.19725e-08
-7.11011e-07
6.52875e-08
-7.07913e-07
8.87498e-08
-7.03264e-07
-6.97091e-07
1.12386e-07
-9.66643e-08
-7.18957e-07
1.20129e-07
-7.33407e-08
-7.25555e-07
-5.01782e-08
-7.30453e-07
-2.71617e-08
-7.33701e-07
-4.25981e-09
-7.35325e-07
1.85634e-08
-7.35347e-07
4.13417e-08
-7.33789e-07
6.41042e-08
-7.30676e-07
8.68713e-08
-7.26031e-07
-7.19873e-07
1.09653e-07
-9.51692e-08
-7.42229e-07
1.1844e-07
-7.20746e-08
-7.4865e-07
-4.91838e-08
-7.53344e-07
-2.64754e-08
-7.56409e-07
-3.91508e-09
-7.57885e-07
1.85297e-08
-7.57792e-07
4.08866e-08
-7.56146e-07
6.31756e-08
-7.52965e-07
8.54124e-08
-7.48268e-07
-7.42075e-07
1.07615e-07
-9.24489e-08
-7.65075e-07
1.15296e-07
-6.98465e-08
-7.71252e-07
-4.7438e-08
-7.75752e-07
-2.51816e-08
-7.78665e-07
-3.03602e-09
-7.80031e-07
1.90362e-08
-7.79864e-07
4.1065e-08
-7.78175e-07
6.30737e-08
-7.74973e-07
8.50793e-08
-7.70274e-07
-7.64091e-07
1.07095e-07
-8.95039e-08
-7.87484e-07
1.11912e-07
-6.73939e-08
-7.93362e-07
-4.54742e-08
-7.97672e-07
-2.36731e-08
-8.00466e-07
-1.93289e-09
-8.01771e-07
1.97951e-08
-8.01592e-07
4.15528e-08
-7.99932e-07
6.33728e-08
-7.96793e-07
8.52772e-08
-7.92178e-07
-7.86078e-07
1.07264e-07
-8.68243e-08
-8.09433e-07
1.08774e-07
-6.51542e-08
-8.15032e-07
-4.36575e-08
-8.19168e-07
-2.22619e-08
-8.21862e-07
-9.05531e-10
-8.23127e-07
2.04679e-08
-8.22965e-07
4.19095e-08
-8.21374e-07
6.34634e-08
-8.18347e-07
8.516e-08
-8.13875e-07
-8.07915e-07
1.06997e-07
-8.43952e-08
-8.30974e-07
1.05936e-07
-6.3072e-08
-8.36356e-07
-4.19125e-08
-8.40328e-07
-2.08638e-08
-8.42911e-07
1.33368e-10
-8.44124e-07
2.114e-08
-8.43972e-07
4.22158e-08
-8.4245e-07
6.3417e-08
-8.39548e-07
8.4789e-08
-8.35247e-07
-8.29489e-07
1.06363e-07
-8.15333e-08
-8.52145e-07
1.02705e-07
-6.05422e-08
-8.57347e-07
-3.97273e-08
-8.61143e-07
-1.90433e-08
-8.63595e-07
1.57209e-09
-8.6474e-07
2.2186e-08
-8.64586e-07
4.28684e-08
-8.63132e-07
6.36901e-08
-8.6037e-07
8.47212e-08
-8.56278e-07
-8.50793e-07
1.06025e-07
-7.76644e-08
-8.72992e-07
9.85105e-08
-5.71041e-08
-8.77907e-07
-3.67372e-08
-8.8151e-07
-1.65001e-08
-8.83832e-07
3.6703e-09
-8.8491e-07
2.38441e-08
-8.84759e-07
4.40962e-08
-8.83384e-07
6.45067e-08
-8.80781e-07
8.51583e-08
-8.76929e-07
-8.71777e-07
1.06142e-07
-7.30719e-08
-8.93342e-07
9.34223e-08
-5.29787e-08
-8.98e-07
-3.30841e-08
-9.01404e-07
-1.33196e-08
-9.03597e-07
6.38713e-09
-9.04617e-07
2.61134e-08
-9.04486e-07
4.59427e-08
-9.03214e-07
6.59632e-08
-9.00801e-07
8.627e-08
-8.97236e-07
-8.9248e-07
1.06973e-07
-6.78567e-08
-9.13153e-07
8.76681e-08
-4.82963e-08
-9.17561e-07
-2.8934e-08
-9.20767e-07
-9.69929e-09
-9.22831e-07
9.48731e-09
-9.23803e-07
2.87103e-08
-9.23709e-07
4.80582e-08
-9.22561e-07
6.7623e-08
-9.20366e-07
8.74968e-08
-9.1711e-07
-9.12768e-07
1.07785e-07
-6.21482e-08
-9.32348e-07
8.13426e-08
-4.32265e-08
-9.36482e-07
-2.45124e-08
-9.39481e-07
-5.93032e-09
-9.41413e-07
1.26009e-08
-9.42335e-07
3.11628e-08
-9.42271e-07
4.98358e-08
-9.41234e-07
6.86955e-08
-9.39226e-07
8.78019e-08
-9.36216e-07
-9.32181e-07
1.07214e-07
-5.63776e-08
-9.50939e-07
7.49685e-08
-3.81264e-08
-9.54734e-07
-2.01226e-08
-9.57484e-07
-2.27149e-09
-9.59265e-07
1.55101e-08
-9.60116e-07
3.33025e-08
-9.60063e-07
5.11812e-08
-9.59113e-07
6.92139e-08
-9.57258e-07
8.74533e-08
-9.54456e-07
-9.50644e-07
1.05917e-07
-5.07417e-08
-9.68937e-07
6.87403e-08
-3.31686e-08
-9.72307e-07
-1.5876e-08
-9.74777e-07
1.23829e-09
-9.76379e-07
1.82657e-08
-9.77144e-07
3.52922e-08
-9.77089e-07
5.23996e-08
-9.76221e-07
6.96667e-08
-9.74525e-07
8.71777e-08
-9.71967e-07
-9.68512e-07
1.05045e-07
-4.4506e-08
-9.85892e-07
6.14611e-08
-2.78593e-08
-9.88953e-07
-1.14267e-08
-9.9121e-07
4.86972e-09
-9.92675e-07
2.11085e-08
-9.93382e-07
3.73708e-08
-9.93352e-07
5.37431e-08
-9.92593e-07
7.03162e-08
-9.91098e-07
8.71932e-08
-9.88844e-07
-9.85824e-07
1.04506e-07
-3.78303e-08
-1.00164e-06
5.35802e-08
-2.22089e-08
-1.00457e-06
-6.71094e-09
-1.00671e-06
8.71464e-09
-1.0081e-06
2.41273e-08
-1.00879e-06
3.95973e-08
-1.00882e-06
5.52038e-08
-1.0082e-06
7.10358e-08
-1.00693e-06
8.72013e-08
-1.00501e-06
-1.00245e-06
1.03826e-07
-3.16064e-08
-1.01671e-06
4.6675e-08
-1.67355e-08
-1.01945e-06
-2.01009e-09
-1.02143e-06
1.26299e-08
-1.02274e-06
2.72476e-08
-1.02341e-06
4.19053e-08
-1.02348e-06
5.66684e-08
-1.02296e-06
7.16069e-08
-1.02187e-06
8.67903e-08
-1.02019e-06
-1.01792e-06
1.02262e-07
-2.57304e-08
-1.03145e-06
4.04656e-08
-1.13813e-08
-1.03379e-06
2.7242e-09
-1.03554e-06
1.66791e-08
-1.0367e-06
3.05551e-08
-1.03729e-06
4.44148e-08
-1.03734e-06
5.83163e-08
-1.03686e-06
7.23112e-08
-1.03586e-06
8.6439e-08
-1.03432e-06
-1.03221e-06
1.00724e-07
-1.95223e-08
-1.0456e-06
3.36809e-08
-5.75636e-09
-1.04756e-06
7.7247e-09
-1.04902e-06
2.10042e-08
-1.04998e-06
3.41444e-08
-1.05043e-06
4.72011e-08
-1.0504e-06
6.0225e-08
-1.04989e-06
7.32609e-08
-1.0489e-06
8.63512e-08
-1.04741e-06
-1.04542e-06
9.95673e-08
-1.23523e-08
-1.05866e-06
2.5408e-08
5.45301e-10
-1.06046e-06
1.32516e-08
-1.06173e-06
2.57733e-08
-1.0625e-06
3.81395e-08
-1.06279e-06
5.03855e-08
-1.06264e-06
6.25501e-08
-1.06205e-06
7.46788e-08
-1.06103e-06
8.68459e-08
-1.05958e-06
-1.05776e-06
9.9186e-08
-4.87438e-09
-1.07085e-06
1.70602e-08
7.20391e-09
-1.07254e-06
1.9127e-08
-1.07365e-06
3.0886e-08
-1.07426e-06
4.24918e-08
-1.0744e-06
5.39664e-08
-1.07412e-06
6.5342e-08
-1.07343e-06
7.66656e-08
-1.07235e-06
8.80085e-08
-1.07092e-06
-1.06923e-06
9.94722e-08
2.20452e-09
-1.08257e-06
9.52027e-09
1.3661e-08
-1.08399e-06
2.49076e-08
-1.0849e-06
3.59685e-08
-1.08532e-06
4.68596e-08
-1.08529e-06
5.75983e-08
-1.08486e-06
6.82064e-08
-1.08404e-06
7.87241e-08
-1.08287e-06
8.92091e-08
-1.08141e-06
-1.07971e-06
9.96894e-08
8.47624e-09
-1.09386e-06
2.80876e-09
1.94058e-08
-1.09492e-06
3.00656e-08
-1.09556e-06
4.05025e-08
-1.09575e-06
5.07342e-08
-1.09552e-06
6.0765e-08
-1.09489e-06
7.0599e-08
-1.09387e-06
8.02383e-08
-1.09251e-06
8.96984e-08
-1.09087e-06
-1.08892e-06
9.8908e-08
1.35731e-08
-1.10452e-06
-2.90472e-09
2.39371e-08
-1.10529e-06
3.40444e-08
-1.10566e-06
4.39182e-08
-1.10563e-06
5.35574e-08
-1.10516e-06
6.29416e-08
-1.10427e-06
7.20394e-08
-1.10297e-06
8.08178e-08
-1.10129e-06
8.92422e-08
-1.09929e-06
-1.09688e-06
9.72078e-08
1.70194e-08
-1.11446e-06
-7.08254e-09
2.67545e-08
-1.11502e-06
3.63077e-08
-1.11522e-06
4.56691e-08
-1.11499e-06
5.47997e-08
-1.11429e-06
6.36404e-08
-1.11311e-06
7.21163e-08
-1.11144e-06
8.01466e-08
-1.10932e-06
8.76417e-08
-1.10679e-06
-1.10367e-06
9.44267e-08
1.81294e-08
-1.12362e-06
-8.97085e-09
2.72249e-08
-1.12412e-06
3.62659e-08
-1.12426e-06
4.52071e-08
-1.12393e-06
5.39721e-08
-1.12306e-06
6.24592e-08
-1.1216e-06
7.05527e-08
-1.11954e-06
7.81267e-08
-1.11689e-06
8.50808e-08
-1.11374e-06
-1.10954e-06
9.09577e-08
1.61971e-08
-1.13197e-06
-7.8484e-09
2.46994e-08
-1.13262e-06
3.33202e-08
-1.13288e-06
4.19792e-08
-1.13259e-06
5.05632e-08
-1.13164e-06
5.89381e-08
-1.12997e-06
6.69536e-08
-1.12755e-06
7.44697e-08
-1.12441e-06
8.13736e-08
-1.12064e-06
-1.11553e-06
8.73635e-08
1.05744e-08
-1.13961e-06
-2.92845e-09
1.8611e-08
-1.14066e-06
2.69391e-08
-1.14121e-06
3.54355e-08
-1.14109e-06
4.39436e-08
-1.14015e-06
5.22776e-08
-1.13831e-06
6.02221e-08
-1.1355e-06
6.75335e-08
-1.13172e-06
7.38738e-08
-1.12698e-06
-1.12026e-06
7.86016e-08
1.27073e-09
-1.14665e-06
5.76437e-09
8.93264e-09
-1.14832e-06
1.70571e-08
-1.14933e-06
2.54728e-08
-1.1495e-06
3.39841e-08
-1.14866e-06
4.23594e-08
-1.14668e-06
5.03218e-08
-1.14346e-06
5.75057e-08
-1.1389e-06
6.34453e-08
-1.13292e-06
-1.12375e-06
6.69323e-08
-1.05196e-08
-1.15264e-06
1.65119e-08
-3.47849e-09
-1.15536e-06
4.2924e-09
-1.1571e-06
1.25485e-08
-1.15776e-06
2.1054e-08
-1.15717e-06
2.95609e-08
-1.15519e-06
3.77752e-08
-1.15167e-06
4.53247e-08
-1.14645e-06
5.17144e-08
-1.13931e-06
-1.12765e-06
5.56129e-08
-2.44984e-08
-1.15752e-06
2.93734e-08
-1.81965e-08
-1.16166e-06
-1.08962e-08
-1.1644e-06
-2.893e-09
-1.16576e-06
5.57287e-09
-1.16563e-06
1.42715e-08
-1.16389e-06
2.2959e-08
-1.16036e-06
3.13466e-08
-1.15484e-06
3.90882e-08
-1.14705e-06
-1.13387e-06
4.53086e-08
-4.05303e-08
-1.16157e-06
4.45871e-08
-3.48712e-08
-1.16732e-06
-2.80573e-08
-1.17122e-06
-2.03686e-08
-1.17345e-06
-1.20156e-08
-1.17399e-06
-3.17147e-09
-1.17273e-06
5.99214e-09
-1.16953e-06
1.52946e-08
-1.16414e-06
2.44534e-08
-1.15621e-06
-1.14236e-06
3.29439e-08
-5.77522e-08
-1.16479e-06
6.09699e-08
-5.27815e-08
-1.17229e-06
-4.65274e-08
-1.17747e-06
-3.92639e-08
-1.18071e-06
-3.11782e-08
-1.18207e-06
-2.24113e-08
-1.1815e-06
-1.30747e-08
-1.17886e-06
-3.30999e-09
-1.17391e-06
6.48817e-09
-1.16601e-06
-1.15137e-06
1.54985e-08
-7.59592e-08
-1.16731e-06
7.84814e-08
-7.15191e-08
-1.17673e-06
-6.56467e-08
-1.18334e-06
-5.86233e-08
-1.18774e-06
-5.06329e-08
-1.19006e-06
-4.17985e-08
-1.19033e-06
-3.21754e-08
-1.18848e-06
-2.18309e-08
-1.18425e-06
-1.10886e-08
-1.17675e-06
-1.16227e-06
-1.82041e-10
-9.51819e-08
-1.16983e-06
9.77014e-08
-9.06908e-08
-1.18122e-06
-8.46081e-08
-1.18942e-06
-7.71909e-08
-1.19515e-06
-6.86023e-08
-1.19865e-06
-5.89084e-08
-1.20003e-06
-4.80825e-08
-1.19931e-06
-3.59665e-08
-1.19637e-06
-2.20807e-08
-1.19064e-06
-1.17959e-06
-4.76083e-09
-1.14617e-07
-1.17276e-06
1.17539e-07
-1.09523e-07
-1.18632e-06
-1.02678e-07
-1.19627e-06
-9.43786e-08
-1.20345e-06
-8.47966e-08
-1.20823e-06
-7.39854e-08
-1.21084e-06
-6.18713e-08
-1.21142e-06
-4.81815e-08
-1.21006e-06
-3.2102e-08
-1.20672e-06
-1.20028e-06
-1.14192e-08
-1.32344e-07
-1.1764e-06
1.35993e-07
-1.26163e-07
-1.1925e-06
-1.18158e-07
-1.20427e-06
-1.08745e-07
-1.21287e-06
-9.8171e-08
-1.21881e-06
-8.65412e-08
-1.22247e-06
-7.38221e-08
-1.22414e-06
-5.98145e-08
-1.22407e-06
-4.40699e-08
-1.22246e-06
-1.219e-06
-2.53495e-08
-1.45924e-07
-1.18138e-06
1.50898e-07
-1.38031e-07
-1.20039e-06
-1.28477e-07
-1.21383e-06
-1.1776e-07
-1.22358e-06
-1.06183e-07
-1.23038e-06
-9.38957e-08
-1.23476e-06
-8.09269e-08
-1.23711e-06
-6.71697e-08
-1.23782e-06
-5.24184e-08
-1.23721e-06
-1.23482e-06
-3.65971e-08
-1.55118e-07
-1.19058e-06
1.64324e-07
-1.43979e-07
-1.21153e-06
-1.32079e-07
-1.22573e-06
-1.19703e-07
-1.23596e-06
-1.0702e-07
-1.24307e-06
-9.41031e-08
-1.24767e-06
-8.09467e-08
-1.25027e-06
-6.74598e-08
-1.25131e-06
-5.3433e-08
-1.25124e-06
-1.24965e-06
-3.85973e-08
-1.58973e-07
-1.20723e-06
1.75623e-07
-1.43131e-07
-1.22737e-06
-1.28247e-07
-1.24061e-06
-1.14044e-07
-1.25016e-06
-1.00331e-07
-1.25678e-06
-8.6968e-08
-1.26103e-06
-7.38473e-08
-1.26339e-06
-6.08608e-08
-1.2643e-06
-4.78426e-08
-1.26426e-06
-1.26294e-06
-3.45536e-08
-1.50476e-07
-1.23133e-06
1.74572e-07
-1.31362e-07
-1.24649e-06
-1.14892e-07
-1.25708e-06
-1.0007e-07
-1.26499e-06
-8.63417e-08
-1.27051e-06
-7.33721e-08
-1.274e-06
-6.09558e-08
-1.27581e-06
-4.90156e-08
-1.27624e-06
-3.76726e-08
-1.2756e-06
-1.27313e-06
-2.74831e-08
-1.21995e-07
-1.2525e-06
1.43165e-07
-1.05448e-07
-1.26303e-06
-9.11706e-08
-1.27136e-06
-7.83616e-08
-1.27779e-06
-6.6557e-08
-1.28231e-06
-5.54943e-08
-1.28507e-06
-4.50576e-08
-1.28624e-06
-3.5318e-08
-1.28598e-06
-2.66627e-08
-1.28426e-06
-1.27936e-06
-2.04376e-08
-8.58453e-08
-1.26371e-06
9.70591e-08
-7.45661e-08
-1.27431e-06
-6.39073e-08
-1.28202e-06
-5.39066e-08
-1.2878e-06
-4.44711e-08
-1.29175e-06
-3.55406e-08
-1.294e-06
-2.71298e-08
-1.29465e-06
-1.93489e-08
-1.29376e-06
-1.24155e-08
-1.29119e-06
-1.28464e-06
-7.13717e-09
-5.89674e-08
-1.2732e-06
6.84575e-08
-4.9297e-08
-1.28398e-06
-4.00333e-08
-1.29128e-06
-3.12186e-08
-1.29661e-06
-2.27863e-08
-1.30018e-06
-1.46667e-08
-1.30212e-06
-6.8113e-09
-1.30251e-06
8.1944e-10
-1.30139e-06
8.3257e-09
-1.2987e-06
-1.29227e-06
1.59578e-08
-3.73935e-08
-1.28217e-06
4.63571e-08
-2.82652e-08
-1.29311e-06
-1.95264e-08
-1.30002e-06
-1.11035e-08
-1.30503e-06
-2.89168e-09
-1.30839e-06
5.22432e-09
-1.31023e-06
1.33619e-08
-1.31065e-06
2.16594e-08
-1.30969e-06
3.03319e-08
-1.30737e-06
-1.302e-06
4.00648e-08
-2.3731e-08
-1.29299e-06
3.45517e-08
-1.37585e-08
-1.30308e-06
-4.52546e-09
-1.30925e-06
4.26499e-09
-1.31382e-06
1.28299e-08
-1.31696e-06
2.13417e-08
-1.31874e-06
2.99469e-08
-1.31925e-06
3.87938e-08
-1.31853e-06
4.80758e-08
-1.31665e-06
-1.31236e-06
5.84391e-08
-1.61095e-08
-1.30552e-06
2.86393e-08
-5.17447e-09
-1.31402e-06
4.80561e-09
-1.31923e-06
1.42271e-08
-1.32324e-06
2.33516e-08
-1.32608e-06
3.23639e-08
-1.32776e-06
4.13983e-08
-1.32829e-06
5.05572e-08
-1.32769e-06
5.99198e-08
-1.32601e-06
-1.32228e-06
6.98323e-08
-1.23597e-08
-1.31796e-06
2.48042e-08
-1.12584e-09
-1.32525e-06
9.28218e-09
-1.32964e-06
1.91417e-08
-1.3331e-06
2.866e-08
-1.3356e-06
3.79817e-08
-1.33708e-06
4.72029e-08
-1.33751e-06
5.63712e-08
-1.33686e-06
6.54759e-08
-1.33512e-06
-1.33139e-06
7.45859e-08
-1.16544e-08
-1.32989e-06
2.35849e-08
-5.35854e-10
-1.33637e-06
9.95491e-09
-1.34013e-06
1.99612e-08
-1.34311e-06
2.96073e-08
-1.34525e-06
3.89838e-08
-1.34646e-06
4.81468e-08
-1.34667e-06
5.71172e-08
-1.34583e-06
6.58741e-08
-1.34388e-06
-1.33996e-06
7.44432e-08
-1.27615e-08
-1.34123e-06
2.40941e-08
-2.027e-09
-1.3471e-06
8.23917e-09
-1.3504e-06
1.81043e-08
-1.35298e-06
2.76299e-08
-1.35477e-06
3.68616e-08
-1.35569e-06
4.58267e-08
-1.35564e-06
5.45346e-08
-1.35454e-06
6.2983e-08
-1.35232e-06
-1.34813e-06
7.11548e-08
-1.48082e-08
-1.35188e-06
2.54634e-08
-4.62733e-09
-1.35729e-06
5.21428e-09
-1.36024e-06
1.47454e-08
-1.36251e-06
2.39897e-08
-1.36402e-06
3.29617e-08
-1.36466e-06
4.16706e-08
-1.36434e-06
5.01187e-08
-1.36299e-06
5.83054e-08
-1.36051e-06
-1.35597e-06
6.61495e-08
-1.71752e-08
-1.36167e-06
2.6969e-08
-7.65847e-09
-1.3668e-06
1.65704e-09
-1.36955e-06
1.0768e-08
-1.37162e-06
1.96605e-08
-1.37291e-06
2.83248e-08
-1.37332e-06
3.67574e-08
-1.37278e-06
4.4965e-08
-1.37119e-06
5.29603e-08
-1.36851e-06
-1.36365e-06
6.06398e-08
-1.94121e-08
-1.37047e-06
2.82035e-08
-1.05997e-08
-1.37561e-06
-1.82494e-09
-1.37833e-06
6.85535e-09
-1.3803e-06
1.53987e-08
-1.38145e-06
2.37707e-08
-1.3817e-06
3.19517e-08
-1.38096e-06
3.99439e-08
-1.37919e-06
4.77733e-08
-1.37634e-06
-1.37122e-06
5.53368e-08
-2.13397e-08
-1.3783e-06
2.91736e-08
-1.31675e-08
-1.38379e-06
-4.87881e-09
-1.38662e-06
3.42655e-09
-1.3886e-06
1.16747e-08
-1.3897e-06
1.98088e-08
-1.38983e-06
2.77887e-08
-1.38894e-06
3.55955e-08
-1.38699e-06
4.32298e-08
-1.38397e-06
-1.37851e-06
5.05246e-08
-2.29535e-08
-1.38545e-06
3.01073e-08
-1.52698e-08
-1.39147e-06
-7.36193e-09
-1.39453e-06
6.50511e-10
-1.39662e-06
8.67601e-09
-1.39773e-06
1.66404e-08
-1.39779e-06
2.44846e-08
-1.39678e-06
3.21625e-08
-1.39467e-06
3.96241e-08
-1.39143e-06
-1.38543e-06
4.65467e-08
-2.4366e-08
-1.39222e-06
3.11292e-08
-1.69873e-08
-1.39885e-06
-9.33049e-09
-1.40218e-06
-1.51932e-09
-1.40443e-06
6.34866e-09
-1.40559e-06
1.41937e-08
-1.40564e-06
2.19488e-08
-1.40454e-06
2.95534e-08
-1.40227e-06
3.69288e-08
-1.39881e-06
-1.39219e-06
4.36872e-08
-2.56548e-08
-1.39882e-06
3.22576e-08
-1.83982e-08
-1.40611e-06
-1.08614e-08
-1.40972e-06
-3.16881e-09
-1.41212e-06
4.59006e-09
-1.41335e-06
1.23445e-08
-1.41339e-06
2.00355e-08
-1.41223e-06
2.76099e-08
-1.40985e-06
3.50001e-08
-1.4062e-06
-1.39909e-06
4.18986e-08
-2.66997e-08
-1.40559e-06
3.34738e-08
-1.94227e-08
-1.41338e-06
-1.19297e-08
-1.41721e-06
-4.32158e-09
-1.41973e-06
3.33748e-09
-1.42101e-06
1.10012e-08
-1.42106e-06
1.86331e-08
-1.41986e-06
2.62023e-08
-1.41742e-06
3.36691e-08
-1.41366e-06
-1.40629e-06
4.08668e-08
-2.73912e-08
-1.41276e-06
3.4553e-08
-2.00195e-08
-1.42075e-06
-1.25576e-08
-1.42467e-06
-5.05946e-09
-1.42723e-06
2.45264e-09
-1.42852e-06
9.9704e-09
-1.42857e-06
1.74916e-08
-1.42738e-06
2.50148e-08
-1.42494e-06
3.25253e-08
-1.42118e-06
-1.41373e-06
3.99698e-08
-2.74252e-08
-1.42029e-06
3.4963e-08
-2.00233e-08
-1.42816e-06
-1.26932e-08
-1.432e-06
-5.42995e-09
-1.43449e-06
1.79564e-09
-1.43575e-06
9.02065e-09
-1.4358e-06
1.62846e-08
-1.43465e-06
2.36228e-08
-1.43228e-06
3.10475e-08
-1.4286e-06
-1.42128e-06
3.85945e-08
-2.64138e-08
-1.42812e-06
3.4244e-08
-1.91832e-08
-1.43539e-06
-1.2211e-08
-1.43898e-06
-5.41431e-09
-1.44129e-06
1.29071e-09
-1.44245e-06
7.98749e-09
-1.4425e-06
1.47586e-08
-1.44142e-06
2.16844e-08
-1.43921e-06
2.88329e-08
-1.43575e-06
-1.42889e-06
3.64433e-08
-2.39287e-08
-1.43577e-06
3.15756e-08
-1.7258e-08
-1.44206e-06
-1.09932e-08
-1.44524e-06
-4.97883e-09
-1.4473e-06
9.09718e-10
-1.44834e-06
6.7869e-09
-1.44837e-06
1.27655e-08
-1.4474e-06
1.89647e-08
-1.4454e-06
2.55221e-08
-1.44231e-06
-1.43627e-06
3.2905e-08
-1.98434e-08
-1.44247e-06
2.65483e-08
-1.42298e-08
-1.44767e-06
-9.05684e-09
-1.45041e-06
-4.14759e-09
-1.45221e-06
6.30474e-10
-1.45312e-06
5.39818e-09
-1.45314e-06
1.02753e-08
-1.45227e-06
1.53909e-08
-1.45052e-06
2.09118e-08
-1.44783e-06
-1.44278e-06
2.7419e-08
-1.44422e-08
-1.44746e-06
1.94306e-08
-1.03079e-08
-1.45181e-06
-6.53873e-09
-1.45418e-06
-2.99634e-09
-1.45575e-06
4.31973e-10
-1.45655e-06
3.85269e-09
-1.45656e-06
7.37194e-09
-1.45579e-06
1.11014e-08
-1.45425e-06
1.51753e-08
-1.4519e-06
-1.44765e-06
2.00456e-08
-8.30326e-09
-1.4505e-06
1.13444e-08
-5.84236e-09
-1.45427e-06
-3.65018e-09
-1.45638e-06
-1.63251e-09
-1.45777e-06
2.95973e-10
-1.45848e-06
2.22005e-09
-1.45849e-06
4.22442e-09
-1.4578e-06
6.39489e-09
-1.45642e-06
8.82526e-09
-1.45433e-06
-1.45063e-06
1.181e-08
-1.9024e-09
-1.45169e-06
3.08742e-09
-1.14509e-09
-1.45502e-06
-5.87074e-10
-1.45693e-06
-1.58237e-10
-1.4582e-06
2.04394e-10
-1.45884e-06
5.64912e-10
-1.45885e-06
9.87638e-10
-1.45822e-06
1.53633e-09
-1.45697e-06
2.28216e-09
-1.45508e-06
-1.4518e-06
3.44468e-09
4.4911e-09
-1.45112e-06
-5.06042e-09
3.57608e-09
-1.45411e-06
2.51071e-09
-1.45587e-06
1.35198e-09
-1.45704e-06
1.4598e-10
-1.45763e-06
-1.06072e-09
-1.45764e-06
-2.22148e-09
-1.45706e-06
-3.28958e-09
-1.4559e-06
-4.2073e-09
-1.45416e-06
-1.45122e-06
-4.78589e-09
1.0752e-08
-1.44885e-06
-1.30201e-08
8.21068e-09
-1.45157e-06
5.56293e-09
-1.45322e-06
2.85322e-09
-1.45433e-06
1.12825e-10
-1.45489e-06
-2.62759e-09
-1.4549e-06
-5.33735e-09
-1.45435e-06
-7.98496e-09
-1.45325e-06
-1.05259e-08
-1.45162e-06
-1.44894e-06
-1.28001e-08
1.68331e-08
-1.44493e-06
-2.07516e-08
1.27157e-08
-1.44745e-06
8.53566e-09
-1.44904e-06
4.32438e-09
-1.45012e-06
9.83538e-11
-1.45067e-06
-4.12738e-09
-1.45067e-06
-8.33789e-09
-1.45014e-06
-1.25168e-08
-1.44907e-06
-1.66331e-08
-1.4475e-06
-1.44502e-06
-2.05556e-08
2.27409e-08
-1.43941e-06
-2.8262e-08
1.70913e-08
-1.4418e-06
1.14247e-08
-1.44337e-06
5.75954e-09
-1.44445e-06
9.65424e-11
-1.445e-06
-5.56607e-09
-1.44501e-06
-1.12302e-08
-1.44447e-06
-1.68954e-08
-1.44341e-06
-2.2544e-08
-1.44185e-06
-1.4395e-06
-2.8068e-08
2.8512e-08
-1.43232e-06
-3.5607e-08
2.13596e-08
-1.43465e-06
1.42407e-08
-1.43625e-06
7.16039e-09
-1.43737e-06
1.01719e-10
-1.43795e-06
-6.95655e-09
-1.43795e-06
-1.40357e-08
-1.43739e-06
-2.11531e-08
-1.43629e-06
-2.83047e-08
-1.4347e-06
-1.4324e-06
-3.54022e-08
3.42158e-08
-1.42365e-06
-4.2886e-08
2.55655e-08
-1.426e-06
1.7009e-08
-1.4277e-06
8.53624e-09
-1.4289e-06
1.08894e-10
-1.42952e-06
-8.31796e-09
-1.42953e-06
-1.67892e-08
-1.42892e-06
-2.53438e-08
-1.42774e-06
-3.39926e-08
-1.42605e-06
-1.42373e-06
-4.26642e-08
3.99597e-08
-1.41336e-06
-5.02478e-08
2.97831e-08
-1.41582e-06
1.97753e-08
-1.41769e-06
9.90749e-09
-1.41903e-06
1.14415e-10
-1.41973e-06
-9.67791e-09
-1.41973e-06
-1.95435e-08
-1.41906e-06
-2.9548e-08
-1.41773e-06
-3.97215e-08
-1.41588e-06
-1.41344e-06
-5.00082e-08
4.59049e-08
-1.40136e-06
-5.79012e-08
3.41314e-08
-1.40405e-06
2.26192e-08
-1.40618e-06
1.13135e-08
-1.40773e-06
1.16838e-10
-1.40853e-06
-1.10787e-08
-1.40854e-06
-2.23811e-08
-1.40775e-06
-3.3888e-08
-1.40623e-06
-4.56553e-08
-1.40411e-06
-1.40145e-06
-5.76461e-08
5.22884e-08
-1.38753e-06
-6.61252e-08
3.88007e-08
-1.39056e-06
2.56747e-08
-1.39305e-06
1.28242e-08
-1.39488e-06
1.17369e-10
-1.39582e-06
-1.25879e-08
-1.39583e-06
-2.54338e-08
-1.39491e-06
-3.8552e-08
-1.39311e-06
-5.20299e-08
-1.39063e-06
-1.38763e-06
-6.58559e-08
5.94314e-08
-1.3717e-06
-7.52544e-08
4.4066e-08
-1.37519e-06
2.91414e-08
-1.37813e-06
1.45447e-08
-1.38028e-06
1.199e-10
-1.3814e-06
-1.43031e-08
-1.38141e-06
-2.8894e-08
-1.38032e-06
-4.3809e-08
-1.37819e-06
-5.91618e-08
-1.37528e-06
-1.37182e-06
-7.49702e-08
6.76766e-08
-1.35379e-06
-8.55901e-08
5.02277e-08
-1.35775e-06
3.32269e-08
-1.36113e-06
1.65791e-08
-1.36363e-06
1.29564e-10
-1.36495e-06
-1.63182e-08
-1.36496e-06
-3.29606e-08
-1.36368e-06
-4.9952e-08
-1.3612e-06
-6.73891e-08
-1.35784e-06
-1.35392e-06
-8.52896e-08
7.71021e-08
-1.33374e-06
-9.71535e-08
5.73154e-08
-1.33796e-06
3.79024e-08
-1.34171e-06
1.88894e-08
-1.34462e-06
1.5025e-10
-1.34621e-06
-1.85884e-08
-1.34622e-06
-3.75994e-08
-1.34466e-06
-5.7009e-08
-1.34179e-06
-7.67917e-08
-1.33806e-06
-1.33387e-06
-9.68399e-08
8.6802e-08
-1.31144e-06
-1.09102e-07
6.43644e-08
-1.31552e-06
4.23648e-08
-1.31971e-06
2.10466e-08
-1.3233e-06
1.80847e-10
-1.32534e-06
-2.06875e-08
-1.32536e-06
-4.20128e-08
-1.32334e-06
-6.40231e-08
-1.31978e-06
-8.64745e-08
-1.31561e-06
-1.31155e-06
-1.0879e-07
9.38054e-08
-1.28602e-06
-1.19224e-07
6.84132e-08
-1.29013e-06
4.464e-08
-1.29594e-06
2.22842e-08
-1.30094e-06
2.12033e-10
-1.30327e-06
-2.18666e-08
-1.30328e-06
-4.42428e-08
-1.30096e-06
-6.80475e-08
-1.29598e-06
-9.3477e-08
-1.29018e-06
-1.2861e-06
-1.18932e-07
9.21471e-08
-1.25424e-06
-1.23928e-07
6.43056e-08
-1.26229e-06
4.24938e-08
-1.27413e-06
2.22541e-08
-1.2807e-06
2.27278e-10
-1.28124e-06
-2.18052e-08
-1.28124e-06
-4.20731e-08
-1.2807e-06
-6.39361e-08
-1.27411e-06
-9.18245e-08
-1.26229e-06
-1.2543e-06
-1.23625e-07
7.3416e-08
-1.20742e-06
-1.20239e-07
4.93217e-08
-1.23819e-06
3.75781e-08
-1.26239e-06
2.15408e-08