/*--------------------------------*- C++ -*----------------------------------*\
  =========                 |
  \\      /  F ield         | OpenFOAM: The Open Source CFD Toolbox
   \\    /   O peration     | Website:  https://openfoam.org
    \\  /    A nd           | Version:  8
     \\/     M anipulation  |
\*---------------------------------------------------------------------------*/
FoamFile
{
    version     2.0;
    format      ascii;
    class       volScalarField;
    location    "8.65";
    object      alpha.water;
}
// * * * * * * * * * * * * * * * * * * * * * * * * * * * * * * * * * * * * * //

dimensions      [0 0 0 0 0 0 0];

internalField   nonuniform List<scalar> 
9150
(
1
1
1
1
1
1
1
1
1
1
1
1
1
1
1
1
1
1
1
1
1
1
1
1
1
1
1
1
1
1
1
1
1
1
1
1
1
1
1
1
1
1
1
1
1
1
1
1
1
1
1
1
1
1
1
1
1
1
1
1
1
0.999999
1
1
1
1
1
1
1
1
1
1
1
1
1
1
1
1
1
1
1
1
1
1
1
1
1
1
1
1
1
1
1
1
1
1
1
1
1
1
1
1
1
1
0.999999
0.999999
1
1
1
1
1
1
1
1
0.999999
0.999999
1
1
1
0.999999
1
1
1
1
0.999999
1
1
1
1
0.999999
1
1
1
1
1
1
1
1
1
1
1
1
1
1
1
1
1
1
1
1
0.998327
0.998451
0.996806
0.99109
0.991089
0.993006
0.998765
0.998769
0.998769
0.998769
0.998446
0.998451
0.994071
0.991089
0.99109
0.994182
0.998769
0.998769
0.998769
0.998769
0.997416
0.998456
0.996485
0.99109
0.991089
0.991089
0.993398
0.998457
0.998769
0.998769
0.99807
0.998465
0.998461
0.994041
0.991089
0.99109
0.99109
0.995198
0.998769
0.998232
0.998478
0.998471
0.998465
0.998461
0.991576
0.99109
0.99109
0.995558
0.998763
0.996276
0.998476
0.99846
0.998461
0.998457
0.992737
0.99109
0.99109
0.997116
0.998189
0.996063
0.998108
0.998324
0.998457
0.998454
0.99166
0.991095
0.992186
0.998506
0.997209
0.996063
0.99636
0.998437
0.998453
0.994536
0.991478
0.992372
0.998024
0.998766
0.997834
0.996063
0.996468
0.997956
0.995056
0.993024
0.993225
0.998212
0.998766
0.998766
0.998766
0.99631
0.996743
0.995656
0.993842
0.994343
0.998522
0.998766
0.998766
0.998766
0.998766
0.998723
0.996835
0.998347
0.996274
0.9986
0.998762
0.998519
0.99681
0.998766
0.998766
0.998768
0.997558
0.99876
0.998761
0.998762
0.998763
0.997033
0.996558
0.996553
0.998617
0.99877
0.99876
0.998761
0.998762
0.998763
0.998763
0.998604
0.996551
0.996551
0.996551
0.997394
0.998761
0.998762
0.998763
0.998763
0.998764
0.998766
0.998716
0.99777
0.996565
0.996577
0.998732
0.998761
0.996873
0.992797
0.996151
0.998768
0.99877
0.998773
0.998774
0.997135
0.990073
0.996415
0.99335
0.991987
0.99207
0.993982
0.998687
0.998776
0.998776
0.998776
0.998353
0.998371
0.9951
0.991936
0.991973
0.992058
0.994572
0.998776
0.998777
0.998776
0.998537
0.998369
0.998336
0.991274
0.994494
0.998447
0.998776
0.998777
0.998777
0.998777
0.998374
0.993302
0.990049
0.990049
0.991998
0.998265
0.998777
0.998777
0.998776
0.998777
0.997472
0.994834
0.993768
0.991799
0.98628
0.986263
0.987411
0.987821
0.97936
0.975097
0.998691
0.998692
0.998691
0.998689
0.998687
0.99827
0.980293
0.975072
0.97506
0.975059
0.998692
0.998691
0.998518
0.998623
0.996211
0.995456
0.993445
0.99141
0.989051
0.990894
0.998684
0.996593
0.988712
0.991946
0.988208
0.988208
0.988898
0.988336
0.984598
0.985677
0.998614
0.987346
0.986622
0.991766
0.998738
0.998725
0.998378
0.991199
0.980141
0.966441
0.997666
0.987022
0.987935
0.998748
0.998748
0.998747
0.9862
0.967329
0.967159
0.966735
0.997894
0.988257
0.989453
0.998748
0.998748
0.998748
0.998747
0.99732
0.985046
0.984716
0.997895
0.989485
0.989329
0.998747
0.998748
0.998748
0.998747
0.998746
0.998744
0.998748
0.992086
0.996023
0.990947
0.998748
0.998748
0.998659
0.998447
0.998744
0.998748
0.998767
0.987802
0.998704
0.998712
0.998748
0.998748
0.998748
0.993007
0.989202
0.996914
0.998781
0.99523
0.998746
0.998748
0.998748
0.998748
0.998748
0.998748
0.937511
0.977648
0.998781
0.998746
0.998748
0.998748
0.998748
0.998748
0.998748
0.978605
0.896347
0.945066
0.998785
0.998743
0.998746
0.998748
0.98196
0.917092
0.921732
0.896626
0.896348
0.933934
0.998495
0.953131
0.943706
0.907923
0.897214
0.897073
0.897073
0.901163
0.897605
0.983171
0.998786
0.893338
0.894568
0.895895
0.896129
0.922492
0.959977
0.98349
0.981603
0.997433
0.998786
0.893263
0.912767
0.926436
0.962974
0.993276
0.997075
0.995775
0.998389
0.998784
0.998786
0.979245
0.992359
0.995918
0.998831
0.997989
0.997778
0.996666
0.997569
0.995244
0.998786
0.998832
0.998846
0.998851
0.998856
0.997187
0.996445
0.997306
0.998791
0.996529
0.994413
0.998845
0.998849
0.998856
0.99886
0.996865
0.996445
0.99796
0.998796
0.988304
0.958842
0.998832
0.998023
0.998829
0.998862
0.998752
0.996481
0.99886
0.998808
0.983724
0.954991
0.949741
0.998561
0.998862
0.998863
0.998862
0.998855
0.99886
0.99886
0.996934
0.966758
0.87111
0.93283
0.998837
0.998865
0.998861
0.998859
0.99886
0.99886
0.99886
0.99741
0.894443
0.990197
0.998851
0.99886
0.99886
0.99886
0.99886
0.99886
0.99886
0.99886
0.997806
0.998856
0.998859
0.99886
0.99886
0.99886
0.99886
0.99886
0.99886
0.99886
0.998855
0.998858
0.99886
0.99886
0.99886
0.94632
0.923009
0.989842
0.99886
0.99886
0.990746
0.991748
0.998014
0.99886
0.943622
0.903862
0.903408
0.903365
0.915815
0.974269
0.970484
0.970483
0.970483
0.997834
0.979278
0.903547
0.903365
0.90332
0.903275
0.903288
0.997452
0.997403
0.996793
0.997479
0.99746
0.992021
0.909214
0.903288
0.903288
0.903281
0.997455
0.997456
0.997458
0.99746
0.997458
0.997456
0.993681
0.966422
0.959716
0.981814
0.997459
0.997455
0.997456
0.997458
0.997456
0.997455
0.997456
0.997413
0.997443
0.997512
0.997461
0.997459
0.997455
0.997456
0.997457
0.997456
0.997456
0.997422
0.997389
0.997522
0.969435
0.997397
0.997451
0.997456
0.997457
0.997457
0.974882
0.975084
0.99567
0.997529
0.953672
0.99441
0.997371
0.997444
0.997451
0.99745
0.892073
0.938312
0.997481
0.997504
0.992082
0.995082
0.956183
0.961696
0.990011
0.944333
0.883621
0.889075
0.972916
0.94523
0.995259
0.994979
0.918097
0.652091
0.923143
0.943427
0.882736
0.882736
0.882736
0.883153
0.995285
0.981372
0.703562
0.636735
0.783793
0.939255
0.922326
0.882736
0.882822
0.941345
0.918298
0.698474
0.636364
0.635318
0.636226
0.835694
0.980493
0.98089
0.972164
0.989282
0.639613
0.635782
0.635216
0.635076
0.63517
0.635864
0.859907
0.996535
0.996799
0.99681
0.635782
0.635216
0.635065
0.635052
0.635054
0.635117
0.635574
0.913467
0.996671
0.996804
0.674282
0.635065
0.635054
0.635054
0.635049
0.635054
0.635117
0.847008
0.996604
0.996805
0.938457
0.850747
0.75303
0.635053
0.635054
0.635117
0.645955
0.934255
0.996664
0.996856
0.985344
0.987247
0.978387
0.901253
0.687197
0.659427
0.856768
0.985444
0.996264
0.996872
0.987348
0.987774
0.987697
0.987209
0.941581
0.922979
0.956647
0.987259
0.996795
0.996872
0.987774
0.987774
0.987774
0.987697
0.98728
0.978956
0.993122
0.995564
0.996867
0.996872
0.98772
0.987774
0.910292
0.900268
0.991907
0.996786
0.996852
0.996863
0.996864
0.996867
0.946969
0.84992
0.853454
0.857828
0.969668
0.996853
0.996861
0.996861
0.996863
0.99686
0.904096
0.84908
0.84908
0.963741
0.995294
0.996854
0.996856
0.996861
0.996859
0.996809
0.962743
0.907033
0.975501
0.99669
0.996641
0.996852
0.996856
0.954553
0.868065
0.828738
0.996432
0.996591
0.996721
0.996751
0.996712
0.996625
0.984137
0.849279
0.803423
0.797147
0.996591
0.996721
0.996751
0.996757
0.996755
0.996737
0.996607
0.96991
0.876727
0.807781
0.857774
0.928596
0.982973
0.996756
0.996757
0.996755
0.996737
0.996607
0.991667
0.97292
0.767213
0.789949
0.797275
0.806969
0.814963
0.857778
0.928931
0.988432
0.991351
0.991088
0.830867
0.830308
0.703177
0.653816
0.653829
0.653973
0.6556
0.687203
0.837537
0.960797
0.658634
0.655618
0.653816
0.65377
0.653815
0.653829
0.653973
0.715872
0.943024
0.992955
0.656614
0.656763
0.654994
0.65377
0.792161
0.899777
0.909742
0.985099
0.997073
0.997127
0.919711
0.922614
0.954418
0.978607
0.992307
0.996592
0.996864
0.996949
0.997017
0.993688
0.990965
0.990923
0.99133
0.992739
0.994107
0.996154
0.996816
0.996897
0.996885
0.985909
0.990923
0.990738
0.926935
0.880812
0.979886
0.996566
0.996759
0.996815
0.996169
0.99529
0.989603
0.970116
0.846199
0.814044
0.912242
0.996374
0.996566
0.976655
0.959184
0.980437
0.830713
0.863641
0.857778
0.816993
0.817187
0.964521
0.967196
0.886825
0.879454
0.87992
0.274976
0.309606
0.441273
0.558713
0.714198
0.775168
0.832329
0.868422
0.895617
0.885614
0.270433
0.174549
0.17337
0.173525
0.198632
0.297772
0.576518
0.942106
0.969875
0.96825
0.947689
0.369043
0.174549
0.173381
0.173871
0.174383
0.234448
0.844518
0.974993
0.969875
0.986187
0.659187
0.181115
0.174627
0.174383
0.219873
0.58771
0.981925
0.981683
0.974994
0.986158
0.687948
0.210194
0.244305
0.490335
0.954524
0.994075
0.988773
0.984737
0.938758
0.923217
0.575999
0.684172
0.934999
0.996515
0.995757
0.995222
0.971283
0.943787
0.634678
0.98591
0.732989
0.985906
0.995678
0.996838
0.996515
0.991076
0.889656
0.884174
0.632817
0.701838
0.937921
0.975265
0.971778
0.997027
0.989336
0.90964
0.947478
0.994299
0.917209
0.969835
0.969865
0.967678
0.967816
0.998174
0.974951
0.815033
0.979495
0.994335
0.994309
0.969865
0.969854
0.890974
0.965692
0.99834
0.968684
0.815033
0.991953
0.994393
0.994333
0.969854
0.969417
0.837754
0.892314
0.998508
0.968281
0.815033
0.982659
0.994403
0.994403
0.969417
0.936237
0.754779
0.85784
0.998693
0.974096
0.815035
0.970579
0.994403
0.994404
0.921084
0.845286
0.439676
0.858106
0.998865
0.981112
0.815816
0.994361
0.994404
0.994403
0.897377
0.620588
0.278269
0.859831
0.998925
0.9943
0.87606
0.908889
0.986214
0.978617
0.519682
0.607268
0.297385
0.888262
0.999171
0.999281
0.941502
0.552187
0.467539
0.547986
0.150404
0.544607
0.337953
0.876521
0.999547
0.999393
0.958276
0.457966
0.332995
0.265802
0.0137007
0.311472
0.485414
0.98539
0.999734
0.999652
0.973669
0.370579
0.205316
0.00821609
0.000520955
0.00061068
0.572727
0.999257
0.999932
0.999951
0.998507
0.555101
0.000421254
0.000233265
2.10135e-05
0.0581626
0.869759
0.999932
0.999984
0.999988
0.999953
0.883441
0.0608123
3.72666e-05
5.35281e-07
0.515457
0.996758
0.999982
0.999999
0.999999
0.999986
0.997201
0.524628
1.35654e-05
0.286692
0.960248
1
1
0.999999
0.999999
1
1
0.956689
0.284104
0.99866
0.998032
0.998033
0.998424
0.996287
0.996287
0.998482
0.998781
0.998781
0.998781
0.998779
0.997661
0.995977
0.995941
0.99693
0.99693
0.996499
0.996368
0.996632
0.997378
0.997822
0.998225
0.998788
0.998788
0.998788
0.998788
0.998788
0.998789
0.99879
0.99879
0.99879
0.994981
0.99011
0.992307
0.998445
0.998445
0.998445
0.998445
0.996469
0.994151
0.998769
0.998034
0.998772
0.998685
0.996287
0.998178
0.998781
0.998781
0.998781
0.996978
0.989174
0.983632
0.983629
0.985678
0.992434
0.991705
0.987477
0.987478
0.987485
0.988015
0.985212
0.985286
0.990947
0.996774
0.998788
0.998788
0.998788
0.998789
0.998789
0.99879
0.991949
0.99011
0.990115
0.991934
0.998434
0.998445
0.998445
0.998445
0.998445
0.994502
0.997942
0.998772
0.998773
0.998773
0.998771
0.998778
0.99878
0.998775
0.991315
0.982053
0.982028
0.984822
0.990194
0.982215
0.982199
0.982926
0.997354
0.998495
0.998441
0.974527
0.93912
0.938188
0.953802
0.976962
0.982801
0.984353
0.9861
0.979345
0.990249
0.994677
0.997093
0.997097
0.996706
0.99792
0.998445
0.998445
0.998445
0.998445
0.998445
0.995595
0.996211
0.998773
0.998773
0.998773
0.998773
0.998775
0.994976
0.992838
0.982117
0.982028
0.989445
0.998597
0.998598
0.998407
0.998598
0.998598
0.998598
0.99859
0.997863
0.963409
0.93881
0.93715
0.935336
0.937865
0.964348
0.977548
0.978543
0.959299
0.94282
0.969414
0.994116
0.997264
0.997269
0.998391
0.998444
0.998445
0.998445
0.997619
0.992581
0.995827
0.996095
0.998773
0.998773
0.998773
0.987647
0.977692
0.998653
0.996724
0.982147
0.982143
0.997052
0.998598
0.998598
0.998598
0.998598
0.998598
0.998596
0.998589
0.998583
0.998578
0.998539
0.980572
0.93209
0.931875
0.991487
0.992133
0.992148
0.984038
0.942746
0.942681
0.942651
0.954026
0.969177
0.997224
0.998444
0.997921
0.995632
0.991396
0.991363
0.995828
0.996064
0.998249
0.998771
0.998492
0.971948
0.957164
0.998819
0.998817
0.994042
0.983721
0.98836
0.997685
0.998598
0.998598
0.998598
0.998578
0.998589
0.998583
0.998581
0.99854
0.998503
0.998649
0.981011
0.918607
0.919528
0.991968
0.992438
0.992659
0.953064
0.94265
0.94265
0.94265
0.942672
0.984933
0.992751
0.996255
0.989078
0.99485
0.995063
0.996204
0.996063
0.998449
0.998767
0.993977
0.955029
0.956974
0.998823
0.998824
0.99882
0.997945
0.996763
0.995457
0.98667
0.98243
0.975086
0.967045
0.963269
0.98335
0.996866
0.998503
0.998637
0.998834
0.990586
0.926555
0.915183
0.915106
0.982386
0.993647
0.994071
0.953097
0.94265
0.942672
0.96222
0.977717
0.989369
0.986608
0.978074
0.9911
0.996204
0.996202
0.996063
0.99876
0.998768
0.994296
0.955029
0.956554
0.998824
0.998824
0.998825
0.998824
0.998823
0.998578
0.975762
0.907515
0.888337
0.888337
0.888268
0.887766
0.922006
0.969438
0.994559
0.998864
0.998901
0.998891
0.940508
0.913859
0.913301
0.961159
0.99683
0.996889
0.988404
0.987329
0.998614
0.998614
0.996033
0.962977
0.960985
0.960967
0.980514
0.982959
0.996068
0.998762
0.998769
0.998354
0.968986
0.952853
0.996784
0.998824
0.998825
0.998825
0.998825
0.998761
0.983408
0.933718
0.888729
0.888321
0.893668
0.887337
0.887306
0.887188
0.914349
0.998901
0.998903
0.998901
0.998891
0.963219
0.913136
0.912878
0.979985
0.996937
0.997029
0.997466
0.998614
0.998614
0.997405
0.995225
0.966401
0.960277
0.960257
0.960357
0.99859
0.998729
0.998772
0.998773
0.998239
0.952853
0.982767
0.998825
0.998825
0.998825
0.998825
0.998825
0.997873
0.992232
0.937387
0.954772
0.994626
0.944575
0.887188
0.887188
0.887188
0.987453
0.998905
0.998903
0.996854
0.996565
0.933219
0.912784
0.931129
0.996904
0.978526
0.97455
0.998552
0.998614
0.996356
0.992482
0.988558
0.977352
0.979657
0.986183
0.99877
0.998771
0.998773
0.998774
0.998773
0.957144
0.97981
0.99882
0.998825
0.998825
0.998825
0.998825
0.998825
0.998826
0.997509
0.998823
0.998823
0.998795
0.895123
0.887188
0.887793
0.985594
0.998906
0.998905
0.995953
0.992362
0.942223
0.912784
0.921315
0.992408
0.975404
0.975084
0.997827
0.998615
0.998615
0.998577
0.998574
0.998555
0.998432
0.998141
0.998772
0.998773
0.998774
0.998774
0.994806
0.95182
0.961138
0.998681
0.998825
0.998825
0.998825
0.998825
0.998825
0.998825
0.998825
0.998824
0.998823
0.998823
0.980503
0.903556
0.955347
0.99772
0.998909
0.998908
0.997232
0.968637
0.912383
0.912583
0.93455
0.983421
0.962442
0.984301
0.998499
0.998614
0.998615
0.996508
0.988553
0.990692
0.993124
0.98592
0.998772
0.998774
0.998774
0.998775
0.997335
0.951571
0.948638
0.973332
0.998812
0.998825
0.998825
0.998825
0.998825
0.998825
0.998825
0.998821
0.998817
0.998817
0.998901
0.998904
0.998906
0.998909
0.998909
0.998916
0.996824
0.943937
0.912383
0.912489
0.963126
0.967515
0.955047
0.959577
0.985623
0.98554
0.996905
0.996586
0.975442
0.954004
0.953993
0.954004
0.996582
0.998321
0.998775
0.998776
0.998777
0.965701
0.948096
0.947559
0.954681
0.989098
0.998825
0.998825
0.998827
0.998825
0.998825
0.998825
0.99882
0.998746
0.998766
0.998898
0.99883
0.998868
0.998922
0.998923
0.99727
0.956563
0.912383
0.982274
0.980213
0.955047
0.955047
0.955047
0.955049
0.956001
0.994368
0.996724
0.984324
0.961747
0.957267
0.953993
0.996595
0.99701
0.998776
0.998777
0.998777
0.99707
0.949047
0.947424
0.947254
0.947227
0.948195
0.965183
0.992439
0.998825
0.998825
0.998825
0.998824
0.998823
0.998822
0.99778
0.997006
0.997062
0.998923
0.998924
0.998243
0.987062
0.980768
0.997701
0.980897
0.955047
0.955047
0.955049
0.955308
0.985585
0.997959
0.996747
0.998962
0.998962
0.998962
0.963955
0.998403
0.998042
0.998777
0.998777
0.998777
0.998777
0.987257
0.947254
0.947227
0.947197
0.947167
0.947168
0.947418
0.960266
0.966722
0.97039
0.987555
0.998822
0.998822
0.99877
0.997007
0.997334
0.998921
0.998925
0.998925
0.998925
0.992005
0.9977
0.997701
0.994034
0.966689
0.964593
0.986694
0.998962
0.998962
0.998962
0.998962
0.998962
0.998962
0.998962
0.998776
0.998776
0.998757
0.998772
0.998778
0.998777
0.998778
0.995641
0.949935
0.947168
0.947168
0.947168
0.961455
0.960669
0.960806
0.961044
0.961277
0.983812
0.99881
0.998788
0.998776
0.99845
0.997623
0.998505
0.998925
0.998925
0.993023
0.985653
0.996622
0.998961
0.998962
0.998962
0.998962
0.998962
0.998962
0.998962
0.998962
0.998962
0.998957
0.998602
0.998777
0.998777
0.998777
0.998778
0.998778
0.998777
0.998777
0.998778
0.994955
0.968102
0.960059
0.982923
0.998707
0.986635
0.961044
0.961277
0.961448
0.99048
0.998779
0.998776
0.998776
0.998776
0.96851
0.976371
0.996465
0.998924
0.998913
0.995195
0.993819
0.996342
0.998961
0.998962
0.998962
0.998962
0.998962
0.998962
0.998962
0.998962
0.998894
0.995772
0.998777
0.998778
0.998778
0.998778
0.998778
0.998778
0.998777
0.998777
0.998781
0.998386
0.998187
0.998764
0.99877
0.998772
0.991519
0.967269
0.980798
0.998579
0.998767
0.998771
0.998092
0.963037
0.958636
0.958635
0.958641
0.983839
0.998904
0.998894
0.997869
0.998415
0.998961
0.998961
0.998962
0.998962
0.998962
0.998961
0.998962
0.998962
0.998953
0.995805
0.975085
0.976763
0.992814
0.998779
0.998778
0.998777
0.998777
0.998778
0.998778
0.998776
0.998773
0.998772
0.998771
0.998772
0.998776
0.998176
0.998658
0.998744
0.998739
0.977325
0.958679
0.958636
0.958632
0.958633
0.958635
0.958641
0.991381
0.998933
0.998954
0.998959
0.99896
0.998839
0.998554
0.998962
0.998331
0.996707
0.998912
0.998962
0.998962
0.998671
0.975059
0.97506
0.975066
0.987854
0.998775
0.998777
0.998777
0.998777
0.998772
0.998777
0.998773
0.998772
0.998772
0.998771
0.998773
0.99877
0.998769
0.99876
0.970763
0.95867
0.958635
0.958632
0.958632
0.958632
0.958633
0.971641
0.99844
0.998953
0.998958
0.998959
0.998959
0.998959
0.993495
0.998619
0.993024
0.990746
0.996248
0.998962
0.998962
0.998962
0.991029
0.991032
0.976735
0.985276
0.996989
0.99034
0.986567
0.986671
0.995093
0.998778
0.998776
0.998772
0.998771
0.998772
0.998772
0.998773
0.998771
0.968387
0.958667
0.958636
0.958632
0.958632
0.958632
0.958749
0.992031
0.998919
0.998939
0.998942
0.998953
0.987175
0.932564
0.935539
0.9761
0.998597
0.992564
0.990746
0.992863
0.99895
0.998962
0.998962
0.990188
0.991043
0.991017
0.986533
0.986557
0.986561
0.986562
0.987919
0.998203
0.998775
0.998771
0.99877
0.998768
0.998768
0.99877
0.99877
0.99877
0.971586
0.958663
0.958639
0.958636
0.978131
0.99724
0.99888
0.998887
0.998887
0.98999
0.919249
0.886781
0.885416
0.884239
0.885194
0.939287
0.998109
0.997018
0.990748
0.992812
0.998914
0.998962
0.998962
0.966205
0.97582
0.986949
0.988756
0.986571
0.98661
0.993024
0.998723
0.998768
0.998769
0.998769
0.998769
0.997957
0.998476
0.998769
0.998769
0.99877
0.993614
0.984635
0.986967
0.994736
0.998837
0.998875
0.998877
0.99888
0.987406
0.894178
0.884273
0.884151
0.884178
0.884163
0.884191
0.980694
0.997376
0.997988
0.996114
0.998438
0.998962
0.998962
0.998962
0.969562
0.986046
0.993863
0.993874
0.993858
0.993509
0.979535
0.979535
0.984914
0.976401
0.973767
0.983993
0.997956
0.99876
0.998763
0.975616
0.981272
0.995463
0.995463
0.9953
0.994975
0.996452
0.998696
0.998875
0.998876
0.97222
0.884274
0.884154
0.884175
0.884179
0.884155
0.884146
0.912199
0.990202
0.99895
0.998961
0.998961
0.998961
0.998959
0.998957
0.998696
0.998677
0.992337
0.97817
0.985391
0.992802
0.995611
0.994357
0.989365
0.98894
0.968548
0.968556
0.970178
0.977811
0.966086
0.965062
0.965062
0.971449
0.995077
0.981394
0.952939
0.952913
0.953052
0.984122
0.998875
0.9382
0.884156
0.884176
0.884179
0.884155
0.88414
0.884155
0.884151
0.915356
0.964237
0.998252
0.998961
0.998961
0.998961
0.998957
0.99874
0.979249
0.890646
0.851981
0.873436
0.993911
0.996907
0.996906
0.994617
0.991684
0.985122
0.97941
0.963071
0.956953
0.976875
0.981287
0.990713
0.969355
0.953032
0.952939
0.952912
0.952928
0.966924
0.997295
0.998733
0.935984
0.884235
0.884181
0.884189
0.884176
0.884155
0.923963
0.922856
0.879151
0.851967
0.967227
0.998375
0.998961
0.998961
0.99896
0.998729
0.92762
0.851931
0.851895
0.851981
0.957453
0.997027
0.995719
0.978873
0.928949
0.927368
0.927365
0.927406
0.959678
0.990716
0.990716
0.990716
0.990716
0.981889
0.973968
0.968647
0.96736
0.973578
0.993155
0.998602
0.910992
0.884936
0.884251
0.935476
0.966219
0.966227
0.942584
0.852884
0.851772
0.851739
0.86205
0.979313
0.998961
0.998961
0.998961
0.998781
0.983391
0.860444
0.85191
0.85192
0.918399
0.997245
0.958914
0.927358
0.927358
0.927358
0.927395
0.939731
0.990694
0.990717
0.990716
0.990716
0.990705
0.990687
0.98974
0.968452
0.967817
0.971553
0.984486
0.991902
0.979104
0.976166
0.987261
0.991815
0.990448
0.967419
0.90481
0.851772
0.851737
0.851734
0.851739
0.965438
0.998959
0.998961
0.998962
0.998785
0.998781
0.993856
0.886256
0.853069
0.954242
0.997341
0.996521
0.948491
0.927358
0.928177
0.956551
0.979642
0.983602
0.987463
0.988887
0.990705
0.990687
0.980166
0.950514
0.951481
0.987406
0.987927
0.987929
0.992338
0.992363
0.992306
0.992217
0.992238
0.970124
0.962732
0.95434
0.864026
0.851735
0.851737
0.864162
0.985232
0.998958
0.998961
0.998962
0.998786
0.998785
0.997936
0.913889
0.855538
0.992137
0.997336
0.997341
0.997333
0.996641
0.998008
0.998001
0.998008
0.997381
0.955613
0.933653
0.947491
0.954619
0.937494
0.937518
0.956812
0.985572
0.919119
0.783265
0.764362
0.794546
0.843311
0.803792
0.764443
0.764958
0.766741
0.809617
0.912139
0.871496
0.891151
0.960878
0.998782
0.998961
0.998962
0.998962
0.998786
0.998786
0.998771
0.949692
0.858857
0.981037
0.997341
0.986675
0.972904
0.975097
0.997643
0.998008
0.997862
0.990539
0.984909
0.914055
0.900025
0.900509
0.982741
0.993728
0.993352
0.873663
0.764121
0.763953
0.763953
0.763953
0.764072
0.764248
0.764305
0.764327
0.772371
0.958005
0.998353
0.991364
0.99518
0.998944
0.998961
0.998962
0.998962
0.998962
0.998786
0.998786
0.998786
0.994557
0.936592
0.929056
0.983072
0.991104
0.983485
0.973308
0.980014
0.996698
0.994339
0.914192
0.911066
0.901811
0.92884
0.997766
0.997872
0.993734
0.991822
0.99787
0.997382
0.946746
0.764816
0.764072
0.764143
0.764287
0.856476
0.998326
0.994609
0.997677
0.998379
0.998353
0.998265
0.997278
0.981484
0.97636
0.987476
0.985088
0.998786
0.998786
0.998786
0.998786
0.996827
0.958869
0.956447
0.956491
0.962641
0.988004
0.994104
0.998491
0.990192
0.890092
0.890067
0.890139
0.929528
0.997872
0.997873
0.997873
0.997873
0.997873
0.99787
0.997427
0.993
0.989106
0.993488
0.99839
0.99839
0.998389
0.998388
0.998388
0.998387
0.998379
0.991809
0.970044
0.970016
0.970016
0.970016
0.984268
0.998786
0.998786
0.998786
0.998786
0.99677
0.993853
0.994077
0.981096
0.975344
0.975467
0.98027
0.998587
0.992267
0.891179
0.917729
0.936932
0.919448
0.943357
0.982299
0.997873
0.997873
0.997441
0.996277
0.996385
0.995894
0.99831
0.998371
0.99839
0.998065
0.998388
0.998388
0.998387
0.99666
0.995357
0.99518
0.988698
0.983655
0.989016
0.993659
0.997009
0.998786
0.998731
0.97956
0.9691
0.955309
0.990988
0.998854
0.998854
0.998853
0.997126
0.997743
0.998798
0.979392
0.977446
0.994878
0.992714
0.937378
0.930953
0.930953
0.971169
0.997862
0.99622
0.921343
0.893896
0.995831
0.964871
0.895551
0.913577
0.968148
0.983181
0.99351
0.998353
0.99553
0.990832
0.990832
0.99088
0.989709
0.991148
0.997631
0.997631
0.996779
0.962216
0.955203
0.955325
0.955309
0.990073
0.998855
0.998855
0.998854
0.99885
0.998827
0.998807
0.969125
0.992525
0.995795
0.995792
0.990825
0.955785
0.953462
0.99076
0.989632
0.898903
0.876373
0.876373
0.876373
0.876539
0.883484
0.91787
0.879416
0.879384
0.951415
0.998265
0.997898
0.994168
0.994139
0.997109
0.997211
0.997126
0.997631
0.997631
0.957004
0.955201
0.955225
0.964309
0.998101
0.998856
0.998856
0.998855
0.998403
0.981573
0.995389
0.998618
0.894196
0.84143
0.995792
0.995794
0.995862
0.995933
0.995946
0.995886
0.96772
0.877644
0.876616
0.905121
0.954048
0.953435
0.952689
0.917394
0.879399
0.880159
0.919726
0.992264
0.997726
0.989832
0.952121
0.973424
0.997629
0.997631
0.997631
0.997631
0.954991
0.959678
0.987805
0.998844
0.998856
0.998856
0.998856
0.998856
0.989306
0.962861
0.922831
0.942558
0.834657
0.79697
0.821261
0.887267
0.985017
0.995947
0.995956
0.995954
0.993404
0.922847
0.877555
0.890067
0.955157
0.944567
0.845849
0.831637
0.953063
0.960438
0.964805
0.974543
0.992031
0.988402
0.910339
0.886874
0.995175
0.997629
0.997624
0.995131
0.969493
0.993245
0.998857
0.998857
0.998857
0.998857
0.998856
0.998854
0.978307
0.906753
0.906753
0.910094
0.899822
0.79775
0.801307
0.809755
0.844349
0.921015
0.995954
0.995955
0.995954
0.995882
0.966378
0.970408
0.955965
0.769992
0.596669
0.596669
0.66669
0.749311
0.902608
0.966607
0.974539
0.979646
0.919627
0.869651
0.869237
0.972184
0.985057
0.96014
0.997903
0.998859
0.998858
0.998801
0.998681
0.998856
0.998856
0.998854
0.990923
0.960084
0.910133
0.941895
0.9694
0.918516
0.963348
0.945274
0.843987
0.844009
0.883143
0.973925
0.935484
0.893494
0.949602
0.970544
0.970544
0.953595
0.964703
0.873013
0.448126
0.440178
0.45984
0.835816
0.965409
0.965389
0.977225
0.900075
0.868509
0.947899
0.972294
0.960237
0.99886
0.99886
0.998304
0.998244
0.998673
0.998856
0.998856
0.998853
0.979412
0.943762
0.936683
0.970418
0.97116
0.969483
0.975533
0.996019
0.968981
0.96671
0.86153
0.823271
0.820671
0.819052
0.818828
0.824897
0.954584
0.972352
0.972352
0.972352
0.521535
0.439645
0.441017
0.600992
0.975258
0.985017
0.984878
0.902186
0.868578
0.927401
0.924655
0.960141
0.99886
0.99886
0.99886
0.9984
0.998855
0.998856
0.998855
0.998855
0.997437
0.983728
0.984758
0.991573
0.998842
0.998783
0.998591
0.997859
0.997834
0.997795
0.975841
0.96171
0.824468
0.818854
0.819052
0.825568
0.967564
0.97168
0.970482
0.568556
0.445199
0.443118
0.441593
0.76379
0.959444
0.984711
0.985017
0.985017
0.985009
0.780807
0.662572
0.941393
0.99886
0.99886
0.99886
0.99886
0.998788
0.998855
0.998855
0.998855
0.998854
0.998854
0.998853
0.99885
0.998847
0.998842
0.97412
0.996647
0.997805
0.997782
0.997772
0.99768
0.968792
0.940025
0.915882
0.906788
0.698162
0.454547
0.445199
0.445147
0.445199
0.798797
0.877453
0.875101
0.745848
0.872429
0.974492
0.98106
0.791809
0.608231
0.611972
0.899632
0.998859
0.99886
0.99886
0.998858
0.998758
0.998754
0.998855
0.998854
0.998854
0.998853
0.998486
0.998847
0.998834
0.985663
0.855637
0.94842
0.997782
0.997782
0.997782
0.997771
0.997679
0.883215
0.598438
0.594917
0.595386
0.661893
0.828571
0.949912
0.992918
0.992577
0.879666
0.609653
0.735713
0.734987
0.606317
0.608539
0.606464
0.607554
0.710421
0.966048
0.903697
0.935892
0.993316
0.998856
0.998803
0.998768
0.979595
0.97423
0.997785
0.997494
0.995795
0.99566
0.995243
0.828943
0.506043
0.5101
0.725834
0.777861
0.861708
0.877562
0.873327
0.667858
0.84111
0.938337
0.887595
0.99038
0.995632
0.995632
0.99404
0.920561
0.606447
0.606364
0.606359
0.606317
0.606318
0.606317
0.606366
0.606464
0.93026
0.983057
0.903288
0.903322
0.903781
0.949847
0.998768
0.998768
0.94255
0.923645
0.926471
0.988821
0.995809
0.995635
0.995439
0.739464
0.471305
0.469974
0.470056
0.470181
0.472302
0.473017
0.471794
0.492784
0.86436
0.994715
0.994886
0.99421
0.995632
0.995632
0.98152
0.951202
0.693027
0.606363
0.606322
0.606318
0.606318
0.606381
0.630034
0.820638
0.983166
0.983111
0.96334
0.903781
0.90442
0.917938
0.993932
0.998654
0.95749
0.922623
0.922623
0.932275
0.99339
0.997711
0.995963
0.998101
0.761719
0.470056
0.469974
0.470056
0.470181
0.470334
0.470555
0.546244
0.854049
0.993111
0.995867
0.989695
0.990475
0.995254
0.982502
0.983772
0.986784
0.855436
0.802393
0.822173
0.83077
0.950702
0.983145
0.983166
0.983166
0.982559
0.997522
0.985609
0.949285
0.964288
0.99614
0.99813
0.997809
0.934893
0.922623
0.922916
0.980879
0.998094
0.998122
0.99813
0.993933
0.825327
0.631558
0.569138
0.558227
0.63466
0.7367
0.861918
0.975628
0.996496
0.996512
0.990226
0.989728
0.995988
0.996513
0.988599
0.987072
0.988559
0.983571
0.98306
0.982562
0.983102
0.983153
0.983166
0.983166
0.981134
0.997529
0.99753
0.997537
0.997542
0.997491
0.99773
0.997571
0.990192
0.922935
0.931909
0.993285
0.998122
0.998132
0.998133
0.998132
0.998037
0.980243
0.966549
0.960746
0.981887
0.995783
0.99629
0.99646
0.996512
0.996514
0.996514
0.996514
0.996514
0.996514
0.996513
0.996506
0.996455
0.989732
0.908436
0.832799
0.900588
0.983102
0.981862
0.95365
0.942279
0.997529
0.997537
0.997547
0.997553
0.997565
0.997571
0.997565
0.997555
0.985593
0.979245
0.998063
0.99813
0.998133
0.998133
0.998133
0.99813
0.998113
0.998095
0.998054
0.997816
0.997523
0.99437
0.9862
0.991081
0.996447
0.996514
0.996514
0.996514
0.996513
0.996507
0.987199
0.996417
0.989663
0.767997
0.743004
0.742989
0.892868
0.977218
0.942503
0.942272
0.988225
0.996278
0.997537
0.996677
0.996764
0.997565
0.997555
0.997552
0.997544
0.997247
0.964039
0.982192
0.99813
0.998133
0.998131
0.998129
0.998126
0.998123
0.998094
0.998054
0.997707
0.992207
0.986101
0.986101
0.986101
0.99549
0.996514
0.996512
0.987853
0.957882
0.833012
0.743323
0.745048
0.743012
0.742989
0.742987
0.752341
0.968877
0.973664
0.942273
0.939089
0.968754
0.926229
0.944004
0.992707
0.997545
0.997552
0.997549
0.997549
0.997536
0.795077
0.765389
0.937076
0.998111
0.998129
0.998126
0.998123
0.998123
0.923453
0.921587
0.992858
0.995751
0.988267
0.986103
0.992674
0.996446
0.996493
0.979748
0.899375
0.744357
0.743201
0.74311
0.743012
0.742989
0.742987
0.742987
0.742987
0.943572
0.984954
0.963374
0.962427
0.895806
0.729972
0.729651
0.729657
0.839421
0.99711
0.997548
0.997485
0.830258
0.729919
0.729583
0.905993
0.997909
0.998113
0.998122
0.998123
0.883058
0.778118
0.856412
0.993432
0.995863
0.995863
0.995863
0.994422
0.992598
0.990499
0.870206
0.87009
0.886893
0.874034
0.871291
0.865245
0.789834
0.742989
0.742987
0.847045
0.984503
0.984959
0.984957
0.996772
0.774683
0.729651
0.729651
0.729651
0.729657
0.738723
0.848282
0.781572
0.729683
0.729254
0.729086
0.944295
0.997712
0.997909
0.986764
0.848906
0.778117
0.778132
0.939003
0.995768
0.995861
0.995863
0.988059
0.956715
0.982083
0.990591
0.932126
0.980043
0.976146
0.851336
0.743571
0.743574
0.743586
0.743349
0.771661
0.984945
0.984959
0.984957
0.984958
0.99681
0.913231
0.734126
0.729651
0.729657
0.789906
0.827083
0.731178
0.729683
0.729254
0.729086
0.729035
0.842473
0.918241
0.876269
0.780478
0.771286
0.794033
0.934323
0.99569
0.995662
0.962489
0.950477
0.949957
0.94982
0.982597
0.990314
0.955503
0.992519
0.960027
0.743571
0.743571
0.743571
0.743574
0.743578
0.74364
0.880447
0.977681
0.958185
0.937047
0.99681
0.99681
0.894772
0.790706
0.900995
0.984272
0.983153
0.918858
0.825063
0.729107
0.729079