/*--------------------------------*- C++ -*----------------------------------*\
  =========                 |
  \\      /  F ield         | OpenFOAM: The Open Source CFD Toolbox
   \\    /   O peration     | Website:  https://openfoam.org
    \\  /    A nd           | Version:  8
     \\/     M anipulation  |
\*---------------------------------------------------------------------------*/
FoamFile
{
    version     2.0;
    format      ascii;
    class       volVectorField;
    location    "8.65";
    object      U;
}
// * * * * * * * * * * * * * * * * * * * * * * * * * * * * * * * * * * * * * //

dimensions      [0 1 -1 0 0 0 0];

internalField   nonuniform List<vector> 
9150
(
(0.00474568 -0.0787038 0)
(0.0131565 -0.0973276 0)
(0.0109028 -0.104761 0)
(0.00917363 -0.107537 0)
(0.00278814 -0.109343 0)
(-0.00202591 -0.109572 0)
(-0.00907462 -0.107603 0)
(-0.0108655 -0.104774 0)
(-0.013137 -0.0973459 0)
(-0.00474909 -0.0787147 0)
(0.00578796 -0.0919692 0)
(0.00853993 -0.100505 0)
(0.007463 -0.102287 0)
(0.00422356 -0.104994 0)
(0.00194233 -0.105593 0)
(-0.00183205 -0.105587 0)
(-0.00428276 -0.10488 0)
(-0.0075078 -0.102163 0)
(-0.0085256 -0.100488 0)
(-0.00578308 -0.0919652 0)
(0.00166952 -0.0954443 0)
(0.00453585 -0.098967 0)
(0.00373641 -0.101137 0)
(0.00343689 -0.101709 0)
(0.000659091 -0.102522 0)
(-0.00119676 -0.102354 0)
(-0.00342305 -0.101716 0)
(-0.00373734 -0.101131 0)
(-0.0045403 -0.0989499 0)
(-0.00166898 -0.095439 0)
(0.00169548 -0.0983879 0)
(0.00243368 -0.100387 0)
(0.00222962 -0.100157 0)
(0.0012844 -0.100877 0)
(0.000797292 -0.100892 0)
(-0.000323862 -0.100949 0)
(-0.00130092 -0.100864 0)
(-0.0022187 -0.100172 0)
(-0.00243459 -0.100376 0)
(-0.00170171 -0.0983871 0)
(0.0001663 -0.0994794 0)
(0.000707071 -0.0995887 0)
(0.00044988 -0.100088 0)
(0.000674169 -0.0998753 0)
(9.7066e-05 -0.100134 0)
(-0.000297176 -0.10011 0)
(-0.000719322 -0.099858 0)
(-0.000499756 -0.100015 0)
(-0.000704104 -0.0995867 0)
(-0.000168732 -0.0994815 0)
(0.0740518 -0.193836 3.55862e-26)
(0.0493607 -0.183735 0)
(0.029101 -0.174938 0)
(0.0147262 -0.174906 0)
(0.00389815 -0.175324 0)
(-0.00555733 -0.17526 0)
(-0.015677 -0.174257 0)
(-0.0295466 -0.175656 0)
(-0.0494591 -0.184115 0)
(-0.0741594 -0.193971 -3.52138e-26)
(0.0583525 -0.146696 8.69678e-27)
(0.0488008 -0.14648 0)
(0.0289991 -0.156111 0)
(0.0214499 -0.15471 0)
(0.0056027 -0.154924 0)
(-0.00460028 -0.155362 0)
(-0.0209113 -0.157408 0)
(-0.0286241 -0.156299 0)
(-0.0487144 -0.146401 0)
(-0.0582861 -0.146681 -8.97471e-27)
(0.0473143 -0.12122 3.65714e-27)
(0.0435749 -0.131093 0)
(0.0292884 -0.133371 0)
(0.0172881 -0.138179 0)
(0.00718195 -0.140411 0)
(-0.00497121 -0.140096 0)
(-0.0161954 -0.136865 0)
(-0.0288893 -0.133031 0)
(-0.0432879 -0.130901 0)
(-0.0472812 -0.121169 -3.56173e-27)
(0.0367427 -0.0992622 8.24425e-27)
(0.0393074 -0.110097 0)
(0.0231192 -0.120995 0)
(0.0173211 -0.124931 0)
(0.00428286 -0.125291 0)
(-0.00556794 -0.125082 0)
(-0.01811 -0.124578 0)
(-0.0236177 -0.121034 0)
(-0.0395311 -0.110121 0)
(-0.0367937 -0.0992366 -8.29867e-27)
(0.023873 -0.081923 -1.8985e-26)
(0.0275607 -0.101538 -2.28653e-26)
(0.0194191 -0.108512 -5.64617e-27)
(0.0101753 -0.114395 -5.02314e-27)
(0.00397506 -0.117228 -2.71904e-28)
(-0.00470156 -0.117251 -2.70119e-28)
(-0.0101593 -0.114602 -4.95816e-27)
(-0.0192769 -0.108456 -5.67328e-27)
(-0.0275622 -0.101546 -2.28775e-26)
(-0.0238607 -0.0819386 -1.89759e-26)
(0.0203324 -0.147517 0)
(0.0144083 -0.205803 0)
(0.0249125 -0.216897 0)
(0.0142453 -0.223869 0)
(0.0086497 -0.226824 0)
(-0.00530061 -0.227619 0)
(-0.0101535 -0.224492 0)
(-0.0234292 -0.217467 0)
(-0.0139551 -0.206171 0)
(-0.0200105 -0.147754 0)
(0.0160476 -0.165972 0)
(0.00145032 -0.199972 0)
(0.0148772 -0.210552 0)
(0.00195868 -0.215547 0)
(0.00435723 -0.215601 0)
(-0.00562661 -0.215536 0)
(-0.00308987 -0.213741 0)
(-0.0148473 -0.209935 0)
(-0.00162728 -0.199655 0)
(-0.0158986 -0.165786 0)
(0.0138819 -0.173073 0)
(-0.0047722 -0.20432 0)
(0.0102889 -0.209895 0)
(-0.000850088 -0.210022 0)
(0.00284417 -0.21113 0)
(-0.00228648 -0.211157 0)
(0.000954183 -0.210238 0)
(-0.0103319 -0.209571 0)
(0.00479851 -0.204175 0)
(-0.0139389 -0.172897 0)
(0.0193203 -0.196027 0)
(-0.00731477 -0.205069 0)
(0.00889569 -0.211196 0)
(-0.000315398 -0.206611 0)
(0.000395393 -0.20627 0)
(-0.00160633 -0.206208 0)
(-0.000278898 -0.205742 0)
(-0.00910646 -0.210909 0)
(0.00729522 -0.20497 0)
(-0.0194355 -0.195992 0)
(0.0371494 -0.216549 0)
(0.0110517 -0.203376 0)
(0.0153711 -0.201215 0)
(0.0122105 -0.194998 0)
(0.00268278 -0.191606 0)
(-0.00186404 -0.192011 0)
(-0.0122231 -0.195983 0)
(-0.015422 -0.201284 0)
(-0.0111947 -0.203498 0)
(-0.0371203 -0.21658 0)
(0.0149893 -0.00224947 0)
(0.0151675 -0.00350971 0)
(0.0157782 -0.00336379 0)
(0.0161942 -0.00232347 0)
(0.015007 0.00144892 0)
(0.0112729 0.00219283 0)
(0.0100501 0.000834234 0)
(0.00988711 -0.000178207 0)
(0.0107828 -0.00163276 0)
(0.0119207 -0.00203704 0)
(0.0279981 0.00555803 0)
(0.0222767 0.00160283 0)
(0.0185833 0.00094518 0)
(0.0158569 0.00514615 0)
(0.012361 0.00874088 0)
(0.0103699 0.00684511 0)
(0.00810032 0.00212777 0)
(0.00708479 -0.000644082 0)
(0.00640043 -0.00236852 0)
(0.00484688 -0.000301596 0)
(0.0324922 0.0182379 0)
(0.0256003 0.015134 0)
(0.0173563 0.0098625 0)
(0.0123755 0.0114386 0)
(0.00932406 0.0128725 0)
(0.0075494 0.0104304 0)
(0.00455636 0.00700759 0)
(0.00235548 0.00271926 0)
(0.00120316 0.00180893 0)
(-0.00293339 0.0117969 0)
(0.0357535 0.0337782 0)
(0.0302333 0.0318962 0)
(0.0217774 0.0258765 0)
(0.0154108 0.02122 0)
(0.0118866 0.018641 0)
(0.00979757 0.0154555 0)
(0.00785344 0.0129718 0)
(0.00574952 0.00682124 0)
(0.00218488 0.00820022 0)
(-0.00487298 0.0213205 0)
(0.0329275 0.0455265 0)
(0.0273816 0.0441424 0)
(0.0208949 0.0390314 0)
(0.0146526 0.0306205 0)
(0.0100525 0.0249104 0)
(0.00765795 0.0186009 0)
(0.00644294 0.0156127 0)
(0.00484108 0.0128642 0)
(-0.00288686 0.0224457 0)
(-0.00827254 0.0326377 0)
(0.0261012 0.0553578 0)
(0.0208618 0.0547836 0)
(0.0176679 0.0491861 0)
(0.0132008 0.0416274 0)
(0.00967444 0.033937 0)
(0.00563439 0.0232842 0)
(0.00171243 0.0208436 0)
(-0.002165 0.0253038 0)
(-0.00829957 0.0346533 0)
(-0.00890884 0.039415 0)
(0.0166085 0.0663567 0)
(0.0161558 0.0603601 0)
(0.0153039 0.0552697 0)
(0.0125396 0.0481525 0)
(0.0107448 0.0396797 0)
(0.00640517 0.0327279 0)
(0.00208882 0.0294427 0)
(-0.00131037 0.0321739 0)
(-0.00499142 0.0385166 0)
(-0.0062329 0.0398374 0)
(0.0105547 0.066347 0)
(0.0121614 0.0592534 0)
(0.0120336 0.0571252 0)
(0.0109158 0.0511423 0)
(0.0101531 0.0457853 0)
(0.00741092 0.0418903 0)
(0.00417962 0.0364696 0)
(0.00217499 0.0384058 0)
(-0.000259134 0.0424469 0)
(-0.00196667 0.0428125 0)
(0.0046281 0.0633243 0)
(0.00553357 0.0588935 0)
(0.00618522 0.0561864 0)
(0.00761327 0.0513006 0)
(0.00797686 0.0469184 0)
(0.00860511 0.0446124 0)
(0.00695201 0.0402429 0)
(0.00661877 0.0414844 0)
(0.00542287 0.0465265 0)
(0.00415491 0.0473999 0)
(-0.000596662 0.060804 0)
(0.00187399 0.0577026 0)
(0.00318552 0.0530163 0)
(0.0055462 0.0485695 0)
(0.00789725 0.0453373 0)
(0.00968154 0.043697 0)
(0.0104279 0.04107 0)
(0.0106344 0.0418368 0)
(0.0119002 0.0466973 0)
(0.0121328 0.0495753 0)
(-0.00588097 0.0550294 0)
(-0.00190239 0.0522004 0)
(0.00191664 0.0486917 0)
(0.00504812 0.0423025 0)
(0.00857647 0.0398109 0)
(0.0116227 0.0402438 0)
(0.01288 0.0398499 0)
(0.0139583 0.0396159 0)
(0.0155964 0.0419703 0)
(0.0191501 0.0472737 0)
(-0.00852977 0.0431013 0)
(-0.00226467 0.0419631 0)
(0.00263411 0.0394175 0)
(0.00590178 0.0349328 0)
(0.00899242 0.0317819 0)
(0.0117293 0.0336741 0)
(0.0147637 0.036589 0)
(0.0176441 0.0358481 0)
(0.0191453 0.0369818 0)
(0.0226083 0.0415755 0)
(-0.00649754 0.0272062 0)
(0.00144734 0.0298339 0)
(0.00707481 0.0319932 0)
(0.00835849 0.0305094 0)
(0.00989017 0.0276208 0)
(0.0110764 0.0283434 0)
(0.0135424 0.0309216 0)
(0.0166173 0.0299132 0)
(0.019219 0.0313984 0)
(0.0222575 0.032624 0)
(-0.00582591 0.00757942 0)
(0.00263646 0.0111339 0)
(0.0099614 0.0254411 0)
(0.0114275 0.0298818 0)
(0.0113855 0.027476 0)
(0.0122827 0.0249224 0)
(0.0138848 0.0261009 0)
(0.016642 0.0255138 0)
(0.0194894 0.026303 0)
(0.0236573 0.0244514 0)
(0.00199716 0.000896921 0)
(0.0052869 -0.0015032 0)
(0.00905305 0.0131651 0)
(0.0151613 0.0270355 0)
(0.0161912 0.026703 0)
(0.0175242 0.022966 0)
(0.0187366 0.0198609 0)
(0.0209323 0.0191121 0)
(0.0247714 0.0169501 0)
(0.0281498 0.0162169 0)
(0.0165819 0.000144224 0)
(0.0176483 -0.00135974 0)
(0.0182222 0.00393515 0)
(0.0232767 0.0179477 0)
(0.0278435 0.0226241 0)
(0.0304069 0.0222718 0)
(0.0319769 0.0183144 0)
(0.033686 0.0135439 0)
(0.0360441 0.0104387 0)
(0.0381513 0.00899164 0)
(0.0212464 -0.00914316 0)
(0.0272995 -0.00540488 0)
(0.0321474 -0.000908099 0)
(0.0371832 0.00664702 0)
(0.0426996 0.0149763 0)
(0.0473478 0.0180682 0)
(0.0503189 0.0156999 0)
(0.0524417 0.0109349 0)
(0.0528748 0.00812169 0)
(0.0524244 0.00708056 0)
(0.0191712 -0.0268323 0)
(0.0298172 -0.0234239 0)
(0.0396973 -0.0173259 0)
(0.0490149 -0.00800608 0)
(0.0571556 0.00204796 0)
(0.0629984 0.00838647 0)
(0.0662979 0.00957051 0)
(0.0673845 0.00953787 0)
(0.0672957 0.0101802 0)
(0.0660037 0.0119979 0)
(0.0050082 -0.0528501 0)
(0.0154779 -0.0458698 0)
(0.0236338 -0.0396084 0)
(0.0333949 -0.0296066 0)
(0.0447234 -0.0151211 0)
(0.0534066 0.000400869 0)
(0.0593622 0.00479525 0)
(0.0635121 0.0065247 0)
(0.0652147 0.00989847 0)
(0.0631278 0.0154368 0)
(0.000769526 -0.069594 0)
(0.00901135 -0.0599966 0)
(0.017151 -0.055559 0)
(0.0219886 -0.0481977 0)
(0.0285289 -0.0357418 0)
(0.0355309 -0.0214273 0)
(0.0407135 -0.010953 0)
(0.0433282 0.000578666 0)
(0.0458042 0.0146732 0)
(0.044891 0.0226141 0)
(0.00955092 -0.0914986 0)
(0.0140904 -0.0764336 0)
(0.0172634 -0.0630159 0)
(0.0174644 -0.0528317 0)
(0.0176067 -0.0380734 0)
(0.0193994 -0.0224958 0)
(0.0221701 -0.00778526 0)
(0.0253836 -0.00381814 0)
(0.0325284 0.0078418 0)
(0.038945 0.0193117 0)
(0.0153656 -0.095907 0)
(0.0163044 -0.0803798 0)
(0.0160339 -0.0645389 0)
(0.0136558 -0.0545845 0)
(0.0123915 -0.0444079 0)
(0.0135981 -0.0324191 0)
(0.0172112 -0.0223892 0)
(0.0179149 -0.0211583 0)
(0.0206452 -0.0104564 0)
(0.0273772 -0.00203014 0)
(0.0197319 -0.0897346 0)
(0.0128196 -0.0757874 0)
(-0.000389465 -0.0512281 0)
(-0.0123814 -0.0397222 0)
(-0.020061 -0.0325064 0)
(-0.0183589 -0.0253963 0)
(-0.0146516 -0.0176611 0)
(-0.0120326 -0.014102 0)
(-0.00674169 -0.0115002 0)
(-0.000828587 -0.00756485 0)
(0.00700098 -0.062518 0)
(-0.0158592 -0.0345071 0)
(-0.0250121 -0.0196666 0)
(-0.0310642 -0.0214251 0)
(-0.0346449 -0.0330773 0)
(-0.0342871 -0.0371871 0)
(-0.0340067 -0.0351429 0)
(-0.0316962 -0.0321744 0)
(-0.0293014 -0.0273782 0)
(-0.0235532 -0.0174797 0)
(0.00155388 -0.024646 0)
(-0.015658 -0.0104147 0)
(-0.0252071 -0.0120801 0)
(-0.0330769 -0.0210014 0)
(-0.0374329 -0.0272502 0)
(-0.0463268 -0.0264387 0)
(-0.0504723 -0.0267402 0)
(-0.0513124 -0.0271256 0)
(-0.0470599 -0.0306211 0)
(-0.0348825 -0.0352706 0)
(0.00734838 -0.000691109 0)
(-0.00815755 0.0129112 0)
(-0.0212052 0.013649 0)
(-0.0300128 0.00377062 0)
(-0.0401897 -0.00645586 0)
(-0.0464767 -0.0138121 0)
(-0.0472177 -0.0235702 0)
(-0.0413342 -0.0371345 0)
(-0.0329405 -0.0524403 0)
(-0.0253818 -0.0667137 0)
(0.00806146 0.0305776 0)
(-0.00727913 0.0449241 0)
(-0.0228142 0.030487 0)
(-0.0347894 0.0181718 0)
(-0.0444049 0.00402283 0)
(-0.0490272 -0.0104049 0)
(-0.0490142 -0.0293028 0)
(-0.0460508 -0.0507193 0)
(-0.0417137 -0.0701203 0)
(-0.0357266 -0.0824584 0)
(0.0185707 0.0569043 0)
(0.0130487 0.0699951 0)
(-0.00121445 0.0670096 0)
(-0.0187268 0.0442951 0)
(-0.0324903 0.019722 0)
(-0.0444273 -0.0125876 0)
(-0.0592911 -0.0346527 0)
(-0.0565201 -0.0538384 0)
(-0.0543082 -0.0776446 0)
(-0.0551895 -0.0885606 0)
(0.0317235 0.078336 0)
(0.0264774 0.0838937 0)
(0.0222811 0.0898949 0)
(0.0165987 0.0805676 0)
(0.0122233 0.0575428 0)
(0.00231708 0.0421488 0)
(-0.0117114 0.00845617 0)
(-0.0485231 -0.0463254 0)
(-0.0557737 -0.0765185 0)
(-0.0596518 -0.0866099 0)
(0.027846 0.0889113 0)
(0.0232639 0.0914439 0)
(0.0251408 0.0908057 0)
(0.0238906 0.0813003 0)
(0.0242299 0.0528592 0)
(0.0270085 0.0396466 0)
(0.0302079 0.0496191 0)
(-0.00311877 0.04366 0)
(-0.0333737 -0.049429 0)
(-0.0362286 -0.0747375 0)
(0.0124194 0.0906846 0)
(0.0173511 0.0884054 0)
(0.0232851 0.0874328 0)
(0.0223793 0.0808489 0)
(0.0232195 0.0519418 0)
(0.0186305 0.0353421 0)
(0.0189611 0.063251 0)
(-0.00273961 0.0943523 0)
(-0.0109002 -0.0237097 0)
(-0.0238002 -0.0625985 0)
(0.0129892 0.0943183 0)
(0.0109768 0.0745036 0)
(0.0162779 0.0843121 0)
(0.0141904 0.0816957 0)
(0.0117597 0.0528137 0)
(-0.000168919 0.0516844 0)
(-0.00156445 0.0805669 0)
(0.00287252 0.0961306 0)
(0.0136472 0.0117906 0)
(-0.00181547 -0.031724 0)
(0.0112924 0.109988 0)
(-0.00112471 0.0783776 0)
(-0.00944949 0.088518 0)
(-0.00868274 0.0849592 0)
(-0.0110132 0.0690647 0)
(-0.0159225 0.0641271 0)
(-0.0133515 0.0688949 0)
(0.000940386 0.065514 0)
(0.0137898 1.50066e-06 0)
(0.00336824 -0.00926547 0)
(-0.0113346 0.125073 0)
(-0.0148616 0.0997084 0)
(-0.0199028 0.0979725 0)
(-0.0180926 0.0840647 0)
(-0.0170286 0.070916 0)
(-0.013538 0.0615131 0)
(-0.00510184 0.0456307 0)
(0.00999501 0.0315654 0)
(0.0135189 0.0127312 0)
(0.0056667 0.0174484 0)
(-0.0226724 0.123427 0)
(-0.0231772 0.107728 0)
(-0.0248608 0.0956556 0)
(-0.0227337 0.0746611 0)
(-0.0208733 0.0605827 0)
(-0.0165151 0.040703 0)
(-0.0115545 0.0226044 0)
(-0.00389847 0.0153376 0)
(0.00577635 0.013669 0)
(0.0051896 0.0269305 0)
(-0.0347963 0.116202 0)
(-0.0269693 0.105101 0)
(-0.0224731 0.0932806 0)
(-0.0185879 0.0743316 0)
(-0.0157571 0.0592145 0)
(-0.0112697 0.0394788 0)
(-0.010685 0.0175456 0)
(-0.00771822 -0.00312524 0)
(-0.00326242 -0.00381073 0)
(0.00187879 0.0221041 0)
(-0.0411808 0.0950642 0)
(-0.0301247 0.0908495 0)
(-0.0199738 0.0815761 0)
(-0.0101758 0.0666027 0)
(-0.00207913 0.0516917 0)
(0.00609058 0.0351482 0)
(0.00621968 0.0228269 0)
(0.00859852 0.000622519 0)
(0.0049328 -0.00367296 0)
(0.00454383 0.0177198 0)
(-0.0435217 0.0724242 0)
(-0.0332727 0.0587162 0)
(-0.0222436 0.0480937 0)
(-0.0104338 0.0380578 0)
(-0.000930132 0.0279356 0)
(0.0058078 0.0216424 0)
(0.00778112 0.0163213 0)
(0.00845518 -0.000131363 0)
(0.00342151 -0.000499212 0)
(0.00183999 0.0251235 0)
(-0.0400935 0.0508416 0)
(-0.0290987 0.038923 0)
(-0.0178031 0.0292228 0)
(-0.00964729 0.0194834 0)
(-0.00301112 0.0140163 0)
(0.00143986 0.0131794 0)
(0.0027638 0.0161948 0)
(0.000792501 0.00875704 0)
(-0.00758456 0.0102096 0)
(-0.00765199 0.0185937 0)
(-0.00938198 0.040331 0)
(-0.00330654 0.0133564 0)
(0.0047253 0.00882902 0)
(0.0104974 0.0103962 0)
(0.0118382 0.0093975 0)
(0.0116641 0.0109525 0)
(0.00945755 0.0188479 0)
(0.00878597 0.0177116 0)
(0.00258619 0.013817 0)
(0.000649374 0.0173004 0)
(0.0525932 0.0541632 0)
(0.0535922 0.0135732 0)
(0.0523101 0.00475424 0)
(0.0522341 0.00693213 0)
(0.0512672 0.0167354 0)
(0.047544 0.020594 0)
(0.0419013 0.0222525 0)
(0.0385651 0.0303122 0)
(0.0292748 0.0304467 0)
(0.0180958 0.0260961 0)
(0.0888475 0.0349959 0)
(0.0950376 0.0101227 0)
(0.0947878 0.00644783 0)
(0.0942729 0.00858997 0)
(0.0928634 0.0187611 0)
(0.0882427 0.0338872 0)
(0.0780097 0.0345096 0)
(0.0687561 0.0367355 0)
(0.0606882 0.0511106 0)
(0.0471594 0.0598023 0)
(0.10526 0.0123914 0)
(0.111068 0.00150852 0)
(0.111277 0.00213544 0)
(0.111634 0.00975914 0)
(0.111938 0.0259923 0)
(0.110844 0.0501035 0)
(0.0970683 0.0640352 0)
(0.077093 0.0623332 0)
(0.0678724 0.0683359 0)
(0.0623857 0.0782022 0)
(0.09441 0.00105449 0)
(0.0925507 -0.000975228 0)
(0.0917104 0.00044423 0)
(0.0966164 0.00441613 0)
(0.107426 0.0196659 0)
(0.112358 0.0617814 0)
(0.104488 0.0899346 0)
(0.0968051 0.0904736 0)
(0.0892077 0.086071 0)
(0.0824492 0.0905003 0)
(0.0695467 0.0169421 0)
(0.0687191 0.0111977 0)
(0.0691298 -0.011779 0)
(0.0701469 -0.0176527 0)
(0.0740305 -0.00369842 0)
(0.0881542 0.0562434 0)
(0.0934831 0.0919218 0)
(0.0934893 0.0951693 0)
(0.0934222 0.0942337 0)
(0.0922944 0.0973474 0)
(0.0550266 -0.00434642 0)
(0.0663001 -0.00161719 0)
(0.0679768 -0.00345625 0)
(0.0600605 -0.00464834 0)
(0.050284 0.00302249 0)
(0.0517568 0.0370755 0)
(0.0651335 0.0761253 0)
(0.0776772 0.0878366 0)
(0.0873006 0.0871897 0)
(0.0924262 0.0946404 0)
(0.0298565 -0.0131457 0)
(0.0297379 -0.00835048 0)
(0.0340057 0.00482352 0)
(0.0383035 0.00916481 0)
(0.0384231 0.0143461 0)
(0.0456957 0.0275354 0)
(0.0560911 0.0375975 0)
(0.0772048 0.0516796 0)
(0.0924755 0.0744265 0)
(0.0944157 0.0875046 0)
(0.0108307 -0.0131263 0)
(0.01094 -0.0147347 0)
(0.014215 -0.0150925 0)
(0.0213619 -0.0157291 0)
(0.0290281 -0.00740808 0)
(0.043179 -0.00182082 0)
(0.0615938 0.00289982 0)
(0.0758473 0.015488 0)
(0.0882128 0.0553804 0)
(0.103369 0.0840198 0)
(0.0645164 -0.00475631 0)
(0.0412524 -0.0113093 0)
(0.0302018 -0.0122923 0)
(0.0280946 -0.0190137 0)
(0.0331151 -0.031338 0)
(0.045669 -0.0389206 0)
(0.0605917 -0.0329597 0)
(0.0760753 -0.0130169 0)
(0.088809 0.0213935 0)
(0.106915 0.0554805 0)
(0.163763 0.102004 0)
(0.118491 0.0542244 0)
(0.0836352 0.0109016 0)
(0.0608816 -0.0239237 0)
(0.0583265 -0.0561724 0)
(0.0651838 -0.0640982 0)
(0.0697702 -0.0582269 0)
(0.0776143 -0.0380797 0)
(0.0861236 -0.0126249 0)
(0.0933236 0.0104953 0)
(0.240136 0.147411 0)
(0.217818 0.14379 0)
(0.182168 0.120702 0)
(0.131853 0.0452257 0)
(0.0971878 -0.0409483 0)
(0.0836061 -0.0679496 0)
(0.0838508 -0.058332 0)
(0.0639113 -0.034951 0)
(0.0423943 -0.00295302 0)
(0.0411968 0.0226428 0)
(0.264258 0.169754 0)
(0.255823 0.180485 0)
(0.232083 0.186108 0)
(0.191748 0.164671 0)
(0.135231 0.0493213 0)
(0.0969354 -0.0324791 0)
(0.0832741 -0.00407594 0)
(0.0405173 0.0414163 0)
(0.026409 0.0259468 0)
(0.021212 0.00844868 0)
(0.260995 0.176965 0)
(0.259441 0.194614 0)
(0.239573 0.235383 0)
(0.197984 0.243165 0)
(0.146984 0.139646 0)
(0.0948838 0.0358613 0)
(0.0818063 0.0588156 0)
(0.0632457 0.0640812 0)
(0.0603781 0.0442065 0)
(0.0603125 0.0184231 0)
(0.250901 0.186246 0)
(0.242566 0.209653 0)
(0.215652 0.289189 0)
(0.166267 0.340158 0)
(0.108955 0.220903 0)
(0.0422268 0.0908239 0)
(0.0334681 0.0836813 0)
(0.0331437 0.0671685 0)
(0.0450329 0.0249348 0)
(0.071696 -0.00692984 0)
(0.220272 0.197955 0)
(0.201649 0.254565 0)
(0.15469 0.381984 0)
(0.130331 0.439291 0)
(0.11125 0.343343 0)
(0.0439307 0.15822 0)
(0.0222551 0.102977 0)
(0.00718177 0.0419264 0)
(0.0200546 -0.0510977 0)
(0.0394324 -0.0593586 0)
(0.147194 0.252232 0)
(0.12188 0.344761 0)
(0.105303 0.43313 0)
(0.107191 0.450881 0)
(0.111185 0.405006 0)
(0.0921495 0.261938 0)
(0.0507576 0.155995 0)
(0.0533559 0.068015 0)
(0.0277722 -0.0440694 0)
(0.0134794 -0.0555125 0)
(0.0828923 0.301098 0)
(0.0681534 0.363822 0)
(0.0754969 0.418663 0)
(0.0977692 0.428901 0)
(0.106098 0.398108 0)
(0.111487 0.308595 0)
(0.0959356 0.195033 0)
(0.0899688 0.120657 0)
(0.0706422 0.0395227 0)
(0.0471358 -0.0277811 0)
(0.0263106 0.311082 0)
(0.0282239 0.356281 0)
(0.0420639 0.379059 0)
(0.0681538 0.379902 0)
(0.092891 0.366133 0)
(0.102367 0.301965 0)
(0.0999658 0.205779 0)
(0.0916097 0.131198 0)
(0.0778667 0.0577398 0)
(0.0670835 -0.0124026 0)
(-0.00411771 0.28627 0)
(0.0113433 0.320035 0)
(0.0256438 0.330999 0)
(0.0420031 0.329858 0)
(0.0529992 0.312452 0)
(0.0802755 0.264722 0)
(0.0894837 0.209597 0)
(0.0871854 0.142735 0)
(0.072842 0.0738512 0)
(0.0607267 0.00877982 0)
(0.0150482 0.250735 0)
(0.0262707 0.285303 0)
(0.0329468 0.30979 0)
(0.0345533 0.314783 0)
(0.0392445 0.282575 0)
(0.0557576 0.229623 0)
(0.0731663 0.200364 0)
(0.0671324 0.152147 0)
(0.0508142 0.103081 0)
(0.0448425 0.0318517 0)
(0.0391141 0.246284 0)
(0.0354294 0.285014 0)
(0.0352095 0.311955 0)
(0.0371237 0.313529 0)
(0.0396393 0.280761 0)
(0.0299564 0.21186 0)
(0.0470434 0.197249 0)
(0.0164475 0.179562 0)
(0.0280948 0.102385 0)
(0.0196076 0.0459989 0)
(0.0256445 0.275891 0)
(0.0214585 0.305379 0)
(0.0226153 0.316116 0)
(0.0235116 0.306532 0)
(0.0247477 0.270917 0)
(0.0207784 0.234433 0)
(-0.0141377 0.237929 0)
(-0.00411456 0.167861 0)
(0.00119374 0.100954 0)
(-0.0142835 0.0818462 0)
(-0.0211478 0.289927 0)
(-0.0201578 0.291744 0)
(-0.0200922 0.304964 0)
(-0.0253117 0.306261 0)
(-0.0450424 0.307154 0)
(-0.0690161 0.277453 0)
(-0.0563388 0.223426 0)
(-0.0352557 0.145217 0)
(-0.0363385 0.118962 0)
(-0.0473829 0.107889 0)
(-0.0860933 0.259007 0)
(-0.0779073 0.328363 0)
(-0.116704 0.361797 0)
(-0.138942 0.363723 0)
(-0.148009 0.308061 0)
(-0.107914 0.248019 0)
(-0.0794866 0.162738 0)
(-0.065986 0.138204 0)
(-0.0685432 0.132106 0)
(-0.0860671 0.138073 0)
(-0.208678 0.346407 0)
(-0.224038 0.37892 0)
(-0.234006 0.381643 0)
(-0.195457 0.344963 0)
(-0.148643 0.257618 0)
(-0.106685 0.160131 0)
(-0.091484 0.129827 0)
(-0.0845897 0.135906 0)
(-0.100096 0.171703 0)
(-0.123264 0.190029 0)
(-0.319718 0.348426 0)
(-0.29389 0.350116 0)
(-0.249337 0.322928 0)
(-0.183715 0.216236 0)
(-0.141472 0.131116 0)
(-0.120547 0.109477 0)
(-0.109255 0.115714 0)
(-0.109902 0.163001 0)
(-0.127013 0.227058 0)
(-0.139526 0.236435 0)
(-0.318999 0.308329 0)
(-0.270218 0.247781 0)
(-0.222454 0.167697 0)
(-0.187883 0.118793 0)
(-0.17286 0.0934104 0)
(-0.163711 0.0919838 0)
(-0.154306 0.112705 0)
(-0.145637 0.182818 0)
(-0.140113 0.24019 0)
(-0.136683 0.247886 0)
(-0.26266 0.201938 0)
(-0.238025 0.170339 0)
(-0.220683 0.133229 0)
(-0.21715 0.0946132 0)
(-0.212137 0.0785435 0)
(-0.20881 0.07633 0)
(-0.202062 0.0911794 0)
(-0.183022 0.153356 0)
(-0.151782 0.222685 0)
(-0.133531 0.233703 0)
(-0.197314 0.208006 0)
(-0.20412 0.167284 0)
(-0.206336 0.131502 0)
(-0.210996 0.0926396 0)
(-0.20784 0.0678906 0)
(-0.210039 0.0608207 0)
(-0.209661 0.0627977 0)
(-0.19611 0.0851816 0)
(-0.167207 0.135553 0)
(-0.13103 0.165066 0)
(-0.128195 0.190812 0)
(-0.120871 0.166897 0)
(-0.115951 0.148459 0)
(-0.118932 0.117775 0)
(-0.116495 0.0958647 0)
(-0.129865 0.087999 0)
(-0.146777 0.0754799 0)
(-0.148402 0.0714416 0)
(-0.135535 0.0786079 0)
(-0.111875 0.0871767 0)
(-0.0608318 0.18548 0)
(-0.0657164 0.164436 0)
(-0.0680771 0.134867 0)
(-0.0679776 0.107342 0)
(-0.0693379 0.0912876 0)
(-0.0772434 0.100506 0)
(-0.0861588 0.0972678 0)
(-0.0920253 0.0847247 0)
(-0.0943376 0.0713519 0)
(-0.0792679 0.048089 0)
(-0.0710573 0.160782 0)
(-0.0648547 0.162332 0)
(-0.0666414 0.126965 0)
(-0.06917 0.1086 0)
(-0.0712132 0.102808 0)
(-0.0774917 0.108889 0)
(-0.079883 0.100582 0)
(-0.0741973 0.0774852 0)
(-0.0536594 0.0455955 0)
(-0.0287433 0.00676253 0)
(-0.148043 0.151588 0)
(-0.127626 0.166115 0)
(-0.114257 0.137558 0)
(-0.11221 0.127265 0)
(-0.101908 0.125419 0)
(-0.0990266 0.116799 0)
(-0.0843317 0.0787256 0)
(-0.0628185 0.032839 0)
(-0.0347657 -0.00133527 0)
(-0.024543 -0.0159797 0)
(-0.286664 0.0872848 0)
(-0.235059 0.0885197 0)
(-0.201474 0.0807696 0)
(-0.168973 0.0837162 0)
(-0.134061 0.0991756 0)
(-0.107428 0.0839303 0)
(-0.0755045 0.0348165 0)
(-0.0602788 -0.00928367 0)
(-0.0452132 -0.0271203 0)
(-0.0327552 -0.0284069 0)
(-0.295426 -0.00845904 0)
(-0.266557 -0.0141249 0)
(-0.238552 -0.00263664 0)
(-0.206754 0.00321116 0)
(-0.170435 0.00631711 0)
(-0.137673 -0.0107735 0)
(-0.109236 -0.026538 0)
(-0.0885315 -0.046512 0)
(-0.0760985 -0.0621299 0)
(-0.0599601 -0.059424 0)
(-0.329491 -0.0550346 0)
(-0.303643 -0.0552585 0)
(-0.27799 -0.0520569 0)
(-0.255273 -0.0530846 0)
(-0.232355 -0.0560953 0)
(-0.203181 -0.0582059 0)
(-0.176022 -0.0660696 0)
(-0.157392 -0.0847351 0)
(-0.141939 -0.0849193 0)
(-0.121892 -0.081864 0)
(-0.339991 -0.122475 0)
(-0.314533 -0.111478 0)
(-0.292147 -0.0854291 0)
(-0.286064 -0.0752014 0)
(-0.267776 -0.0902912 0)
(-0.24055 -0.116714 0)
(-0.213203 -0.124154 0)
(-0.190438 -0.125877 0)
(-0.170271 -0.118131 0)
(-0.150932 -0.124529 0)
(-0.279988 -0.170399 0)
(-0.27015 -0.150651 0)
(-0.254156 -0.120916 0)
(-0.247202 -0.112146 0)
(-0.227914 -0.138521 0)
(-0.204651 -0.17579 0)
(-0.186902 -0.180828 0)
(-0.169236 -0.16129 0)
(-0.15587 -0.150983 0)
(-0.136104 -0.168565 0)
(-0.165137 -0.194046 0)
(-0.155829 -0.175 0)
(-0.14319 -0.154981 0)
(-0.131926 -0.137809 0)
(-0.121356 -0.15377 0)
(-0.106798 -0.198301 0)
(-0.101389 -0.209653 0)
(-0.0947911 -0.207174 0)
(-0.0798425 -0.199146 0)
(-0.060593 -0.216671 0)
(0.0963891 -0.131671 0)
(0.0317028 -0.157059 0)
(-0.0251554 -0.192991 0)
(-0.0384754 -0.178557 0)
(-0.030021 -0.1834 0)
(-0.00986644 -0.20249 0)
(0.00997981 -0.204883 0)
(0.0417372 -0.219819 0)
(0.0686021 -0.22212 0)
(0.0996578 -0.242283 0)
(0.160031 -0.162854 0)
(0.218135 -0.00427946 0)
(0.219998 0.00351387 0)
(0.165097 -0.110569 0)
(0.10246 -0.208037 0)
(0.0667585 -0.276986 0)
(0.0958945 -0.328155 0)
(0.127979 -0.337005 0)
(0.170617 -0.322017 0)
(0.228946 -0.343142 0)
(0.119154 -0.206012 0)
(0.113537 -0.166033 0)
(0.178245 -0.0541716 0)
(0.227048 -0.0226448 0)
(0.249505 -0.0344245 0)
(0.274039 -0.133038 0)
(0.255872 -0.3076 0)
(0.270538 -0.387173 0)
(0.2979 -0.421475 0)
(0.324903 -0.432993 0)
(0.121341 -0.163363 0)
(0.0823383 -0.138387 0)
(0.0687939 -0.196338 0)
(0.119417 -0.222284 0)
(0.204201 -0.194764 0)
(0.246393 -0.233919 0)
(0.26226 -0.316146 0)
(0.312518 -0.414657 0)
(0.341408 -0.44965 0)
(0.355173 -0.450313 0)
(0.120719 -0.0708779 0)
(0.0784801 -0.096173 0)
(0.0840787 -0.232909 0)
(0.0879137 -0.292016 0)
(0.127957 -0.303141 0)
(0.173317 -0.368403 0)
(0.237477 -0.469525 0)
(0.288468 -0.515929 0)
(0.294876 -0.519221 0)
(0.293338 -0.504763 0)
(0.0761864 -0.00518751 0)
(0.05932 -0.0775828 0)
(0.0480143 -0.198573 0)
(0.0365647 -0.288061 0)
(0.0953658 -0.405488 0)
(0.137723 -0.511953 0)
(0.180605 -0.53986 0)
(0.168633 -0.517901 0)
(0.106098 -0.456845 0)
(0.0527984 -0.369863 0)
(0.0468563 0.0244476 0)
(0.0157172 -0.032215 0)
(0.0123517 -0.155071 0)
(0.00343569 -0.375533 0)
(0.0798472 -0.499001 0)
(0.0742134 -0.542499 0)
(0.0585419 -0.4876 0)
(0.0181389 -0.361521 0)
(-0.0526635 -0.284524 0)
(-0.0725565 -0.260348 0)
(-0.0433221 0.0502856 0)
(0.00725414 -0.0970352 0)
(0.00139442 -0.143771 0)
(0.00887414 -0.455477 0)
(0.0213936 -0.518289 0)
(0.0196485 -0.516277 0)
(0.0126231 -0.401946 0)
(-0.0304177 -0.244676 0)
(-0.0793835 -0.232865 0)
(-0.101963 -0.222384 0)
(-0.0386176 -0.129391 0)
(-0.0128787 -0.12673 0)
(-0.0330446 -0.155988 0)
(-0.0129033 -0.481549 0)
(-0.00944559 -0.515009 0)
(-0.00374643 -0.519441 0)
(0.000203783 -0.375984 0)
(-0.0247226 -0.181332 0)
(-0.078838 -0.171793 0)
(-0.10455 -0.144243 0)
(-0.00629474 -0.127802 0)
(-0.00548869 -0.107834 0)
(-0.037082 -0.134164 0)
(-0.0173974 -0.491127 0)
(-0.0224254 -0.532382 0)
(-0.0125665 -0.524201 0)
(-0.00739072 -0.371473 0)
(-0.0191155 -0.121564 0)
(-0.0636267 -0.109181 0)
(-0.0834078 -0.108497 0)
(0.0597778 -0.106617 0)
(0.0367715 -0.062191 0)
(-0.0116598 -0.0613749 0)
(-0.00836117 -0.497412 0)
(-0.0199111 -0.540567 0)
(-0.0125635 -0.532634 0)
(-0.0136008 -0.381416 0)
(-0.0106567 -0.0733795 0)
(-0.0463006 -0.0597751 0)
(-0.0591207 -0.0568246 0)
(0.0655805 -0.0740456 0)
(0.00986232 0.00281544 0)
(-0.0142028 -0.0633541 0)
(-0.015256 -0.50682 0)
(-0.0221668 -0.540734 0)
(-0.0154694 -0.533527 0)
(-0.0181275 -0.384202 0)
(-0.00529664 -0.0348284 0)
(-0.0405389 -0.0253944 0)
(-0.0387037 -0.0194466 0)
(0.0054871 0.0275165 0)
(0.0174894 0.0766898 0)
(-0.0113261 0.00161974 0)
(-0.0116132 -0.512444 0)
(-0.0284936 -0.531644 0)
(-0.0301106 -0.525016 0)
(-0.0245409 -0.384866 0)
(-0.0323771 -0.0144693 0)
(-0.0600034 -0.0090267 0)
(-0.0359486 -0.0126658 0)
(-0.0453486 -0.0371541 0)
(-0.0263011 0.0399656 0)
(-0.0304128 0.0951884 0)
(-0.00275531 -0.510148 0)
(-0.0346534 -0.514267 0)
(-0.031352 -0.509396 0)
(-0.0342509 -0.461849 0)
(0.0214871 0.0903153 0)
(-0.0305389 -0.0298825 0)
(-0.0237841 -0.0921373 0)
(-0.0338759 -0.0760761 0)
(-0.0415538 0.0707251 0)
(-0.0564696 -0.0801914 0)
(0.0211325 -0.497117 0)
(-0.0150531 -0.503626 0)
(-0.0116763 -0.49338 0)
(-0.0260963 -0.483331 0)
(0.0310646 -0.0556203 0)
(0.120217 0.0980006 0)
(0.0685032 0.0107884 0)
(-0.0703315 0.00457896 0)
(-0.102602 0.110742 0)
(0.0258828 -0.226388 0)
(0.0424476 -0.469362 0)
(0.0179345 -0.486991 0)
(0.00405842 -0.483754 0)
(-0.0149025 -0.484235 0)
(-0.0269693 -0.381351 0)
(0.158978 0.0186809 0)
(0.103719 -0.0106345 0)
(-0.0672626 -0.0157096 0)
(-0.0543946 0.0949172 0)
(0.0638017 -0.385842 0)
(0.0252422 -0.4305 0)
(0.0106613 -0.43174 0)
(-0.00656526 -0.443841 0)
(-0.0242533 -0.430114 0)
(-0.0587953 -0.398642 0)
(0.0284201 0.030557 0)
(0.0723757 -0.0663649 0)
(-0.0848614 -0.0840125 0)
(0.0657105 -0.292865 0)
(0.069769 -0.369433 0)
(0.0472338 -0.383953 0)
(0.0176597 -0.390908 0)
(-0.0225123 -0.381356 0)
(-0.0540217 -0.395143 0)
(-0.0767148 -0.38407 0)
(-0.0854854 -0.349612 0)
(0.00572466 0.0769794 0)
(0.0783381 -0.0799847 0)
(0.0759866 -0.28498 0)
(0.070205 -0.321539 0)
(0.0335629 -0.333151 0)
(0.0111226 -0.332222 0)
(-0.00779775 -0.341913 0)
(-0.0276818 -0.335236 0)
(-0.0666635 -0.312929 0)
(-0.0747401 -0.269986 0)
(-0.0616188 -0.0538545 0)
(0.111233 -0.160014 0)
(0.0809767 -0.223827 0)
(0.0746951 -0.265406 0)
(0.0488505 -0.285757 0)
(0.0226219 -0.29312 0)
(-0.0122866 -0.288341 0)
(-0.0485339 -0.286182 0)
(-0.0749115 -0.266013 0)
(-0.0795863 -0.223528 0)
(-0.108361 -0.161073 0)
(0.0600362 -0.117821 0)
(0.0486536 -0.19671 0)
(0.0418134 -0.237522 0)
(0.0164621 -0.249418 0)
(0.00433568 -0.250068 0)
(-0.0142766 -0.248642 0)
(-0.0214018 -0.245035 0)
(-0.0438843 -0.237515 0)
(-0.050049 -0.196767 0)
(-0.0598262 -0.118766 0)
(0.0120929 -0.00202103 0)
(0.0107235 -0.000983067 0)
(0.00793148 0.00252088 0)
(0.00240397 0.00313856 0)
(-0.00256939 0.00368967 0)
(-0.0127739 0.00960729 0)
(-0.018689 0.00900991 0)
(-0.0184959 0.00395435 0)
(-0.0143374 -0.000438972 0)
(-0.0121675 -0.00197545 0)
(-0.0108455 -0.000642477 0)
(-0.0116471 0.00282481 0)
(-0.0131591 0.00670505 0)
(-0.0125374 -0.00155162 0)
(-0.00445386 -0.0144093 0)
(0.00731941 -0.0191117 0)
(0.0192548 -0.0174485 0)
(0.0290414 -0.0124603 0)
(0.0363326 -0.0104677 0)
(0.041981 -0.00932987 0)
(0.0469529 -0.00478685 0)
(0.0477488 -0.0032437 0)
(0.0464348 -0.00211178 0)
(0.0440137 -0.00167582 0)
(0.0411019 0.00134038 0)
(0.0370996 0.00485565 0)
(0.0314125 0.00643354 0)
(0.0264497 0.00360354 0)
(0.0250521 -0.000768773 0)
(0.0259458 -0.00263658 0)
(0.026251 -0.00141962 0)
(0.024945 0.00480654 0)
(0.0164937 0.010499 0)
(0.0102802 0.00715252 0)
(0.00632766 0.00831183 0)
(0.00192346 0.00571276 0)
(-0.000642468 0.00121601 0)
(-0.0041352 -0.00357365 0)
(-0.00289124 -0.00765841 0)