/*--------------------------------*- C++ -*----------------------------------*\
  =========                 |
  \\      /  F ield         | OpenFOAM: The Open Source CFD Toolbox
   \\    /   O peration     | Website:  https://openfoam.org
    \\  /    A nd           | Version:  8
     \\/     M anipulation  |
\*---------------------------------------------------------------------------*/
FoamFile
{
    version     2.0;
    format      ascii;
    class       surfaceScalarField;
    location    "2.75";
    object      alphaPhi0.water;
}
// * * * * * * * * * * * * * * * * * * * * * * * * * * * * * * * * * * * * * //

dimensions      [0 3 -1 0 0 0 0];

internalField   nonuniform List<scalar> 
18095
(
1.57931e-07
-9.65896e-07
8.07965e-07
1.65098e-07
-1.24811e-06
1.24094e-06
1.22055e-07
-1.2422e-06
1.28524e-06
6.5249e-08
-1.26343e-06
1.32023e-06
-2.57423e-11
-1.28041e-06
1.34568e-06
-6.52959e-08
-1.2804e-06
1.34567e-06
-1.2209e-07
-1.26341e-06
1.32021e-06
-1.65121e-07
-1.24218e-06
1.28522e-06
-1.57941e-07
-1.2481e-06
1.24092e-06
-9.65866e-07
8.07925e-07
1.10926e-07
-1.07682e-06
9.92809e-08
-1.23647e-06
7.27723e-08
-1.21569e-06
3.99888e-08
-1.23064e-06
-1.64814e-11
-1.2404e-06
-4.00193e-08
-1.2404e-06
-7.27966e-08
-1.23064e-06
-9.93e-08
-1.21568e-06
-1.10937e-07
-1.23646e-06
-1.0768e-06
6.7068e-08
-1.14389e-06
5.26722e-08
-1.22207e-06
4.20663e-08
-1.20508e-06
2.38214e-08
-1.2124e-06
-9.75528e-12
-1.21657e-06
-2.38397e-08
-1.21657e-06
-4.2081e-08
-1.2124e-06
-5.26838e-08
-1.20508e-06
-6.70776e-08
-1.22207e-06
-1.14388e-06
3.95858e-08
-1.18348e-06
2.65893e-08
-1.20907e-06
2.19723e-08
-1.20046e-06
1.25006e-08
-1.20293e-06
-4.94179e-12
-1.20406e-06
-1.251e-08
-1.20406e-06
-2.19799e-08
-1.20293e-06
-2.65952e-08
-1.20046e-06
-3.95919e-08
-1.20907e-06
-1.18347e-06
1.65246e-08
7.45195e-09
6.98856e-09
4.06253e-09
-1.32773e-12
-4.06508e-09
-6.99063e-09
-7.45338e-09
-1.65269e-08
-1.74494e-07
-1.16478e-06
1.33928e-06
-2.1826e-07
-1.21627e-06
1.26003e-06
-1.64943e-07
-1.21268e-06
1.15937e-06
-8.73954e-08
-1.20409e-06
1.12654e-06
-2.95723e-10
-1.20261e-06
1.11551e-06
8.68117e-08
-1.20256e-06
1.11546e-06
1.64419e-07
-1.20397e-06
1.12637e-06
2.17784e-07
-1.21252e-06
1.15915e-06
1.74035e-07
-1.21602e-06
1.25977e-06
-1.16449e-06
1.33853e-06
-9.34858e-08
-1.0713e-06
-9.59826e-08
-1.21377e-06
-7.94121e-08
-1.22925e-06
-4.43717e-08
-1.23913e-06
-1.69038e-10
-1.24681e-06
4.4047e-08
-1.24678e-06
7.91217e-08
-1.23905e-06
9.57408e-08
-1.22914e-06
9.33461e-08
-1.21363e-06
-1.07115e-06
-5.79664e-08
-1.01333e-06
-5.52536e-08
-1.21648e-06
-4.65895e-08
-1.23792e-06
-2.72054e-08
-1.25851e-06
-1.01981e-10
-1.27391e-06
2.70109e-08
-1.27389e-06
4.64222e-08
-1.25846e-06
5.51305e-08
-1.23784e-06
5.7906e-08
-1.2164e-06
-1.01324e-06
-7.45557e-08
-9.38777e-07
-6.17576e-08
-1.22928e-06
-4.85374e-08
-1.25114e-06
-2.78014e-08
-1.27925e-06
-6.29221e-11
-1.30165e-06
2.76824e-08
-1.30164e-06
4.84381e-08
-1.27921e-06
6.16901e-08
-1.2511e-06
7.45244e-08
-1.22924e-06
-9.38716e-07
-1.30812e-07
-1.1915e-07
-8.50495e-08
-4.4068e-08
-4.00774e-11
4.39927e-08
8.49877e-08
1.19107e-07
1.30791e-07
-6.13733e-08
-9.45924e-07
1.0073e-06
-4.31753e-09
-1.34093e-06
1.28388e-06
6.66735e-09
-1.27129e-06
1.26031e-06
1.14787e-09
-1.22452e-06
1.23004e-06
-2.6256e-09
-1.22266e-06
1.22644e-06
-6.52668e-09
-1.2222e-06
1.2261e-06
-1.16293e-08
-1.22449e-06
1.2296e-06
-2.22498e-09
-1.27188e-06
1.26248e-06
5.34063e-08
-1.33982e-06
1.28419e-06
-9.36277e-07
9.89683e-07
6.35842e-09
-9.52283e-07
1.35238e-08
-1.3481e-06
9.34438e-09
-1.26711e-06
3.64309e-09
-1.21882e-06
-1.9965e-09
-1.21702e-06
-7.52545e-09
-1.21667e-06
-1.30235e-08
-1.219e-06
-1.81245e-08
-1.26678e-06
-1.0514e-08
-1.34743e-06
-9.46791e-07
2.57317e-08
-9.78014e-07
1.70362e-08
-1.3394e-06
9.19356e-09
-1.25927e-06
4.92162e-09
-1.21455e-06
-1.3465e-09
-1.21076e-06
-7.38856e-09
-1.21062e-06
-1.18544e-08
-1.21453e-06
-1.95381e-08
-1.2591e-06
-2.80035e-08
-1.33897e-06
-9.74794e-07
7.69625e-08
-1.05498e-06
4.95229e-08
-1.31196e-06
3.13273e-08
-1.24107e-06
1.97838e-08
-1.203e-06
-7.76455e-10
-1.1902e-06
-2.12568e-08
-1.19014e-06
-3.30177e-08
-1.20277e-06
-5.13955e-08
-1.24072e-06
-7.85734e-08
-1.31179e-06
-1.05337e-06
2.84302e-07
2.32374e-07
1.50667e-07
7.4205e-08
-4.81886e-10
-7.51687e-08
-1.51573e-07
-2.33141e-07
-2.8516e-07
-2.6464e-08
7.91974e-10
2.56722e-08
-2.73898e-08
9.25893e-10
-2.84451e-08
1.05505e-09
-2.96242e-08
1.17882e-09
-3.09194e-08
1.29482e-09
-3.23183e-08
1.39855e-09
-3.38054e-08
1.48661e-09
-3.53641e-08
1.55835e-09
-3.69747e-08
1.61043e-09
1.63946e-09
-3.86145e-08
-2.91179e-08
1.6763e-09
2.82335e-08
-3.00993e-08
1.90775e-09
-3.11749e-08
2.13113e-09
-3.2337e-08
2.34201e-09
-3.35769e-08
2.53552e-09
-3.48838e-08
2.70623e-09
-3.62457e-08
2.84917e-09
-3.76456e-08
2.95913e-09
-3.90657e-08
3.03152e-09
3.06266e-09
-4.0488e-08
-2.96183e-08
2.56274e-09
2.87318e-08
-3.05825e-08
2.87132e-09
-3.16195e-08
3.16776e-09
-3.27237e-08
3.44586e-09
-3.38875e-08
3.69898e-09
-3.51018e-08
3.92028e-09
-3.63568e-08
4.10328e-09
-3.76393e-08
4.24113e-09
-3.8936e-08
4.32781e-09
4.35788e-09
-4.02315e-08
-2.93919e-08
3.44542e-09
2.85092e-08
-3.0341e-08
3.82076e-09
-3.13533e-08
4.18021e-09
-3.24236e-08
4.5164e-09
-3.35458e-08
4.82146e-09
-3.47128e-08
5.08736e-09
-3.59154e-08
5.30605e-09
-3.71439e-08
5.46979e-09
-3.83872e-08
5.57132e-09
5.60412e-09
-3.96332e-08
-2.86991e-08
4.32494e-09
2.78195e-08
-2.96407e-08
4.76215e-09
-3.06415e-08
5.1809e-09
-3.16979e-08
5.57258e-09
-3.28049e-08
5.92829e-09
-3.39566e-08
6.23881e-09
-3.51457e-08
6.49505e-09
-3.63642e-08
6.68824e-09
-3.76028e-08
6.81003e-09
6.85295e-09
-3.88516e-08
-2.76469e-08
5.20142e-09
2.67705e-08
-2.85852e-08
5.70072e-09
-2.9584e-08
6.17985e-09
-3.06407e-08
6.62927e-09
-3.17514e-08
7.03895e-09
-3.29112e-08
7.39873e-09
-3.41145e-08
7.69849e-09
-3.53545e-08
7.92841e-09
-3.66235e-08
8.0792e-09
8.14241e-09
-3.79127e-08
-2.629e-08
6.07265e-09
2.54189e-08
-2.72267e-08
6.63762e-09
-2.82286e-08
7.18186e-09
-2.92942e-08
7.69481e-09
-3.04207e-08
8.16548e-09
-3.16045e-08
8.58266e-09
-3.28411e-08
8.93518e-09
-3.41247e-08
9.21219e-09
-3.54487e-08
9.40336e-09
9.49926e-09
-3.68054e-08
-2.46616e-08
6.93316e-09
2.38013e-08
-2.55939e-08
7.57019e-09
-2.6599e-08
8.18709e-09
-2.76765e-08
8.77234e-09
-2.88249e-08
9.31391e-09
-3.00416e-08
9.79945e-09
-3.1323e-08
1.02167e-08
-3.26644e-08
1.05536e-08
-3.40596e-08
1.07988e-08
1.09415e-08
-3.55017e-08
-2.27837e-08
7.77343e-09
2.19436e-08
-2.37043e-08
8.49094e-09
-2.47075e-08
9.19035e-09
-2.57941e-08
9.85908e-09
-2.69642e-08
1.04839e-08
-2.8216e-08
1.10513e-08
-2.9547e-08
1.15477e-08
-3.0953e-08
1.19596e-08
-3.24285e-08
1.22743e-08
1.24797e-08
-3.39667e-08
-2.06735e-08
8.57929e-09
1.98677e-08
-2.15698e-08
9.38732e-09
-2.25603e-08
1.01809e-08
-2.36475e-08
1.09463e-08
-2.48328e-08
1.16691e-08
-2.61158e-08
1.23343e-08
-2.74947e-08
1.29266e-08
-2.89659e-08
1.34308e-08
-3.05237e-08
1.38323e-08
1.41176e-08
-3.21616e-08
-1.83474e-08
9.33153e-09
1.75952e-08
-1.92013e-08
1.02412e-08
-2.01624e-08
1.1142e-08
-2.12353e-08
1.20192e-08
-2.24228e-08
1.28567e-08
-2.37268e-08
1.36381e-08
-2.51458e-08
1.43455e-08
-2.66771e-08
1.49623e-08
-2.83145e-08
1.54705e-08
1.58548e-08
-3.00517e-08
-1.58245e-08
1.00055e-08
1.51505e-08
-1.6612e-08
1.10286e-08
-1.75208e-08
1.20508e-08
-1.85577e-08
1.3056e-08
-1.97278e-08
1.40269e-08
-2.10341e-08
1.49449e-08
-2.24809e-08
1.57902e-08
-2.40618e-08
1.65433e-08
-2.57727e-08
1.71817e-08
1.76874e-08
-2.76043e-08
-1.31301e-08
1.05712e-08
1.25643e-08
-1.38214e-08
1.17197e-08
-1.46488e-08
1.28781e-08
-1.56217e-08
1.4029e-08
-1.6748e-08
1.51533e-08
-1.80336e-08
1.62309e-08
-1.94801e-08
1.72392e-08
-2.10992e-08
1.81559e-08
-2.28714e-08
1.89539e-08
1.96064e-08
-2.47905e-08
-1.02971e-08
1.09935e-08
9.87479e-09
-1.08569e-08
1.22795e-08
-1.15681e-08
1.35894e-08
-1.24434e-08
1.49043e-08
-1.34939e-08
1.62037e-08
-1.47285e-08
1.74656e-08
-1.61467e-08
1.86648e-08
-1.77753e-08
1.97749e-08
-1.95981e-08
2.0753e-08
2.16022e-08
-2.15939e-08
-7.36688e-09
1.12316e-08
7.12877e-09
-7.75398e-09
1.26667e-08
-8.30826e-09
1.41437e-08
-9.04628e-09
1.56423e-08
-9.98291e-09
1.71403e-08
-1.11308e-08
1.86134e-08
-1.25e-08
2.00355e-08
-1.40835e-08
2.13702e-08
-1.59409e-08
2.25705e-08
2.3664e-08
-1.80027e-08
-4.39002e-09
1.12383e-08
4.38328e-09
-4.55612e-09
1.28329e-08
-4.90454e-09
1.44921e-08
-5.45703e-09
1.61947e-08
-6.23348e-09
1.79166e-08
-7.25109e-09
1.96309e-08
-8.52376e-09
2.13082e-08
-1.00622e-08
2.29161e-08
-1.18082e-08
2.43671e-08
2.55216e-08
-1.38488e-08
-1.42829e-09
1.0959e-08
1.70767e-09
-1.31394e-09
1.27183e-08
-1.39233e-09
1.45703e-08
-1.69055e-09
1.64929e-08
-2.23336e-09
1.84594e-08
-3.04179e-09
2.04393e-08
-4.13151e-09
2.23979e-08
-5.51226e-09
2.42973e-08
-7.11124e-09
2.60706e-08
2.74272e-08
-9.05733e-09
1.42887e-09
1.03352e-08
-8.05211e-10
1.8886e-09
1.22582e-08
2.151e-09
1.43079e-08
2.18167e-09
1.64622e-08
1.94698e-09
1.86941e-08
1.41494e-09
2.09714e-08
5.56738e-10
2.32562e-08
-6.5102e-10
2.55052e-08
-2.19506e-09
2.7666e-08
2.94083e-08
-4.21654e-09
4.04422e-09
9.31533e-09
-3.02444e-09
4.90929e-09
1.13929e-08
5.5799e-09
1.36373e-08
6.01329e-09
1.60289e-08
6.16444e-09
1.85431e-08
5.98652e-09
2.11495e-08
5.43198e-09
2.38108e-08
4.45487e-09
2.64823e-08
3.00858e-09
2.91123e-08
3.15734e-08
1.10805e-09
6.27096e-09
7.85241e-09
-4.80813e-09
7.60199e-09
1.0062e-08
8.75803e-09
1.24813e-08
9.69226e-09
1.50947e-08
1.0354e-08
1.78814e-08
1.0689e-08
2.08145e-08
1.06395e-08
2.38604e-08
1.01454e-08
2.69764e-08
9.15176e-09
3.01058e-08
3.31335e-08
7.60742e-09
7.90503e-09
5.92495e-09
-5.97754e-09
9.73317e-09
8.23411e-09
1.14167e-08
1.07979e-08
1.29057e-08
1.36058e-08
1.4144e-08
1.6643e-08
1.50686e-08
1.989e-08
1.56079e-08
2.33211e-08
1.56807e-08
2.69036e-08
1.51913e-08
3.05952e-08
3.43474e-08
1.39775e-08
8.76136e-09
3.5334e-09
-6.36971e-09
1.1095e-08
5.90067e-09
1.33258e-08
8.56717e-09
1.54033e-08
1.15283e-08
1.72704e-08
1.4776e-08
1.88614e-08
1.82991e-08
2.01001e-08
2.20824e-08
2.08958e-08
2.61079e-08
2.1137e-08
3.03541e-08
3.47924e-08
2.06919e-08
8.67213e-09
7.03008e-10
-5.84167e-09
1.14906e-08
3.08225e-09
1.42533e-08
5.80451e-09
1.69102e-08
8.87142e-09
1.94041e-08
1.22823e-08
2.16689e-08
1.60344e-08
2.36281e-08
2.01233e-08
2.5192e-08
2.45442e-08
2.62523e-08
2.92939e-08
3.43728e-08
2.6672e-08
7.5463e-09
-2.53167e-09
-4.31157e-09
1.08204e-08
-1.91771e-10
1.40922e-08
2.53286e-09
1.73135e-08
5.6502e-09
2.04292e-08
9.16672e-09
2.33762e-08
1.30875e-08
2.60834e-08
1.74161e-08
2.84723e-08
2.21555e-08
3.04552e-08
2.7311e-08
3.28961e-08
3.19319e-08
5.31706e-09
-6.12264e-09
-1.72604e-09
8.99899e-09
-3.87344e-09
1.27304e-08
-1.19845e-09
1.64622e-08
1.91852e-09
2.01345e-08
5.4945e-09
2.36742e-08
9.54776e-09
2.69916e-08
1.40987e-08
2.99764e-08
1.91707e-08
3.24973e-08
2.47902e-08
3.09909e-08
3.44025e-08
2.05072e-09
-1.0044e-08
1.8707e-09
6.1312e-09
-7.95356e-09
1.03421e-08
-5.40928e-09
1.46518e-08
-2.3911e-09
1.90242e-08
1.12204e-09
2.34199e-08
5.15195e-09
2.77981e-08
9.72059e-09
3.21199e-08
1.48489e-08
3.6355e-08
2.0555e-08
2.68532e-08
4.04926e-08
-2.32702e-09
-1.4215e-08
6.49817e-09
2.05586e-09
-1.23361e-08
6.63042e-09
-9.98381e-09
1.13745e-08
-7.13528e-09
1.6262e-08
-3.76557e-09
2.12621e-08
1.51758e-10
2.6338e-08
4.6445e-09
3.14457e-08
9.7411e-09
3.65308e-08
1.54699e-08
2.18585e-08
4.15255e-08
-7.69532e-09
-1.85464e-08
1.20268e-08
-3.11845e-09
-1.69127e-08
1.69111e-09
-1.47934e-08
6.719e-09
-1.21633e-08
1.19468e-08
-8.99354e-09
1.73504e-08
-5.25203e-09
2.28974e-08
-9.0264e-10
2.85434e-08
4.09504e-09
3.4227e-08
9.78631e-09
1.62228e-08
3.98627e-08
-1.38215e-08
-2.29473e-08
1.82226e-08
-9.16395e-09
-2.15699e-08
-4.25652e-09
-1.97009e-08
8.93898e-10
-1.73138e-08
6.27795e-09
-1.43777e-08
1.18827e-08
-1.08569e-08
1.76902e-08
-6.71011e-09
2.36747e-08
-1.88947e-09
2.98007e-08
3.66031e-09
1.0004e-08
3.60194e-08
-2.03345e-08
-2.7343e-08
2.47302e-08
-1.56946e-08
-2.62097e-08
-1.08136e-08
-2.45819e-08
-5.69443e-09
-2.2433e-08
-3.40811e-10
-1.97313e-08
5.24239e-09
-1.64401e-08
1.10485e-08
-1.25161e-08
1.70686e-08
-7.90949e-09
2.32913e-08
-2.56251e-09
3.5915e-09
2.97038e-08
-2.67608e-08
-3.16934e-08
3.11113e-08
-2.21967e-08
-3.07737e-08
-1.74237e-08
-2.93549e-08
-1.24469e-08
-2.74098e-08
-7.27273e-09
-2.49054e-08
-1.90997e-09
-2.18027e-08
3.62947e-09
-1.80555e-08
9.32896e-09
-1.3609e-08
1.51655e-08
-8.3991e-09
-2.34969e-09
2.11065e-08
-3.25757e-08
-3.6018e-08
3.69004e-08
-2.80722e-08
-3.52769e-08
-2.33984e-08
-3.40286e-08
-1.85638e-08
-3.22443e-08
-1.35805e-08
-2.98885e-08
-8.46422e-09
-2.69189e-08
-3.23507e-09
-2.32846e-08
2.08007e-09
-1.89241e-08
7.44483e-09
-1.37639e-08
-7.71378e-09
1.28088e-08
-3.73248e-08
-4.04003e-08
4.17072e-08
-3.27879e-08
-3.98137e-08
-2.81077e-08
-3.87088e-08
-2.32974e-08
-3.70545e-08
-1.83734e-08
-3.48125e-08
-1.33554e-08
-3.19368e-08
-8.26772e-09
-2.83722e-08
-3.13993e-09
-2.40519e-08
1.99118e-09
-1.8895e-08
-1.28005e-08
7.07803e-09
-4.0721e-08
-4.49782e-08
4.52989e-08
-3.59888e-08
-4.4546e-08
-3.1113e-08
-4.35846e-08
-2.6107e-08
-4.20604e-08
-2.0987e-08
-3.99326e-08
-1.57716e-08
-3.71522e-08
-1.04825e-08
-3.36613e-08
-5.14351e-09
-2.93909e-08
2.20294e-10
-2.42586e-08
-1.81608e-08
5.58083e-09
-4.2715e-08
-4.9921e-08
4.76578e-08
-3.75841e-08
-4.96772e-08
-3.22702e-08
-4.88986e-08
-2.67804e-08
-4.75503e-08
-2.11228e-08
-4.55902e-08
-1.53069e-08
-4.29681e-08
-9.34295e-09
-3.96252e-08
-3.24094e-09
-3.54928e-08
2.99047e-09
-3.04899e-08
-2.45104e-08
9.34017e-09
-4.35428e-08
-5.53995e-08
4.90212e-08
-3.78076e-08
-5.54126e-08
-3.1809e-08
-5.48973e-08
-2.55387e-08
-5.38205e-08
-1.89866e-08
-5.21422e-08
-1.21405e-08
-4.98141e-08
-4.98562e-09
-4.67799e-08
2.49445e-09
-4.29728e-08
1.03138e-08
-3.83093e-08
-3.26655e-08
1.84688e-08
-4.37085e-08
-6.15527e-08
4.98617e-08
-3.72063e-08
-6.19147e-08
-3.03329e-08
-6.17706e-08
-2.30602e-08
-6.10933e-08
-1.53538e-08
-5.98486e-08
-7.17227e-09
-5.79958e-08
1.53476e-09
-5.5487e-08
1.08269e-08
-5.2265e-08
2.07703e-08
-4.82528e-08
-4.33154e-08
3.14202e-08
-4.39431e-08
-6.84598e-08
5.08504e-08
-3.65944e-08
-6.92613e-08
-2.8771e-08
-6.9593e-08
-2.04298e-08
-6.9434e-08
-1.15213e-08
-6.87571e-08
-1.98559e-09
-6.75316e-08
8.25305e-09
-6.57258e-08
1.92947e-08
-6.33068e-08
3.12817e-08
-6.02397e-08
-5.64862e-08
4.44524e-08
-4.50104e-08
-7.61767e-08
5.27276e-08
-3.67648e-08
-7.75058e-08
-2.79503e-08
-7.84074e-08
-1.85244e-08
-7.88604e-08
-8.43743e-09
-7.88443e-08
2.35536e-09
-7.83246e-08
1.3902e-08
-7.72725e-08
2.62611e-08
-7.56659e-08
3.95231e-08
-7.35016e-08
-7.08313e-08
5.38685e-08
-4.77786e-08
-8.47668e-08
5.63688e-08
-3.85686e-08
-8.67166e-08
-2.86882e-08
-8.82869e-08
-1.8085e-08
-8.94658e-08
-6.71201e-09
-9.02179e-08
5.46138e-09
-9.04977e-08
1.84545e-08
-9.02654e-08
3.22897e-08
-8.95009e-08
4.70195e-08
-8.82311e-08
-8.65582e-08
6.27466e-08
-5.32914e-08
-9.4327e-08
6.28519e-08
-4.3004e-08
-9.70009e-08
-3.19159e-08
-9.93751e-08
-1.99472e-08
-1.01435e-07
-7.05825e-09
-1.03108e-07
6.74616e-09
-1.04303e-07
2.14136e-08
-1.04932e-07
3.68383e-08
-1.04925e-07
5.28997e-08
-1.04292e-07
-1.03153e-07
6.94946e-08
-6.2969e-08
-1.05007e-07
7.36575e-08
-5.13871e-08
-1.08574e-07
-3.88056e-08
-1.11949e-07
-2.50906e-08
-1.15146e-07
-1.01969e-08
-1.18006e-07
5.85596e-09
-1.20358e-07
2.29793e-08
-1.22056e-07
4.09326e-08
-1.22878e-07
5.94307e-08
-1.2279e-07
-1.21982e-07
7.82607e-08
-7.83366e-08
-1.13904e-07
9.09394e-08
-6.45971e-08
-1.13401e-07
-5.01414e-08
-1.17416e-07
-3.45768e-08
-1.26621e-07
-1.73736e-08
-1.32586e-07
1.39712e-09
-1.3779e-07
2.16331e-08
-1.42292e-07
4.28642e-08
-1.44107e-07
6.46004e-08
-1.4452e-07
-1.43907e-07
8.65433e-08
-9.71708e-08
-1.20918e-07
1.15887e-07
-8.21044e-08
-1.28714e-07
-6.58704e-08
-1.34221e-07
-4.64715e-08
-1.411e-07
-2.832e-08
-1.46496e-07
-8.62792e-09
-1.50878e-07
1.46604e-08
-1.61733e-07
3.93541e-08
-1.66904e-07
6.35009e-08
-1.64099e-07
-1.55934e-07
8.6475e-08
-1.27558e-07
-1.3587e-07
1.4107e-07
-1.10657e-07
-1.4644e-07
-9.23315e-08
-1.52679e-07
-7.22254e-08
-1.61973e-07
-4.95363e-08
-1.71468e-07
-2.64433e-08
-1.76759e-07
-1.0814e-09
-1.80925e-07
2.49977e-08
-1.8744e-07
5.33501e-08
-1.85179e-07
-1.84125e-07
8.1026e-08
-1.60888e-07
-1.6114e-07
1.83039e-07
-1.49104e-07
-1.73292e-07
-1.31245e-07
-1.84877e-07
-1.08848e-07
-1.96092e-07
-8.31936e-08
-2.06744e-07
-5.34382e-08
-2.16415e-07
-2.2107e-08
-2.24987e-07
1.0043e-08
-2.31633e-07
4.18883e-08
-2.36105e-07
-2.24991e-07
7.63472e-08
-2.13965e-07
-1.77205e-07
2.30029e-07
-1.94349e-07
-1.92908e-07
-1.70972e-07
-2.08253e-07
-1.4403e-07
-2.23035e-07
-1.13827e-07
-2.36947e-07
-8.06289e-08
-2.49613e-07
-4.49793e-08
-2.60637e-07
-6.98969e-09
-2.69623e-07
3.33774e-08
-2.76473e-07
-2.81389e-07
7.21051e-08
-2.5509e-07
-1.93413e-07
2.71299e-07
-2.34504e-07
-2.13495e-07
-2.09311e-07
-2.33447e-07
-1.79588e-07
-2.52758e-07
-1.45647e-07
-2.70887e-07
-1.07956e-07
-2.87304e-07
-6.70394e-08
-3.01554e-07
-2.33742e-08
-3.13288e-07
2.24812e-08
-3.22328e-07
-3.28614e-07
6.97063e-08
-2.9389e-07
-2.08811e-07
3.0929e-07
-2.73138e-07
-2.34245e-07
-2.46616e-07
-2.59968e-07
-2.1431e-07
-2.85064e-07
-1.76586e-07
-3.08611e-07
-1.34101e-07
-3.29789e-07
-8.76604e-08
-3.47995e-07
-3.81166e-08
-3.62831e-07
1.36392e-08
-3.74078e-07
-3.81654e-07
6.66809e-08
-3.22721e-07
-2.21977e-07
3.35908e-07
-3.03052e-07
-2.53896e-07
-2.7604e-07
-2.86967e-07
-2.41509e-07
-3.19588e-07
-1.99941e-07
-3.50177e-07
-1.52408e-07
-3.77322e-07
-1.00187e-07
-4.00215e-07
-4.45336e-08
-4.18476e-07
1.33815e-08
-4.3199e-07
-4.40772e-07
7.24992e-08
-3.29851e-07
-2.30479e-07
3.38686e-07
-3.13513e-07
-2.69981e-07
-2.87891e-07
-3.12415e-07
-2.52405e-07
-3.54984e-07
-2.07452e-07
-3.9511e-07
-1.55007e-07
-4.29763e-07
-9.71571e-08
-4.58063e-07
-3.56912e-08
-4.79925e-07
2.79157e-08
-4.95598e-07
-5.05291e-07
9.24336e-08
-2.64965e-07
-1.24132e-07
2.63371e-07
-2.7418e-07
-2.03541e-07
-2.65142e-07
-2.92151e-07
-2.35494e-07
-3.84012e-07
-1.89834e-07
-4.40539e-07
-1.33962e-07
-4.85597e-07
-7.19796e-08
-5.19995e-07
-6.31977e-09
-5.45527e-07
6.1266e-08
-5.63181e-07
-5.73431e-07
1.29407e-07
-6.02282e-08
-6.80451e-08
8.33263e-08
-7.0868e-08
-8.12998e-08
-1.16594e-07
-1.03104e-07
-1.67813e-07
-2.15951e-07
-1.4188e-07
-4.57246e-07
-8.59897e-08
-5.41096e-07
-2.2848e-08
-5.81927e-07
4.42367e-08
-6.12514e-07
1.13052e-07
-6.3198e-07
-6.42584e-07
1.82208e-07
-5.43686e-08
-7.68677e-08
6.25375e-08
-4.88583e-08
-8.76281e-08
-5.05228e-08
-1.01271e-07
-4.75306e-08
-1.31701e-07
-6.82057e-08
-3.19312e-07
-2.0938e-08
-5.74614e-07
4.19675e-08
-6.42982e-07
1.08362e-07
-6.78678e-07
1.76162e-07
-6.99744e-07
-7.1053e-07
2.44112e-07
-5.1494e-08
-1.01703e-07
7.56846e-08
-3.87247e-08
-1.01225e-07
-2.83295e-08
-1.11114e-07
-2.35235e-08
-1.33829e-07
-9.43812e-09
-2.21557e-07
4.51091e-08
-5.74158e-07
1.08856e-07
-7.03369e-07
1.74175e-07
-7.43609e-07
2.40133e-07
-7.65654e-07
-7.76143e-07
3.05752e-07
-6.45298e-08
-2.79242e-07
1.58898e-07
-3.24075e-08
-1.35901e-07
-1.47439e-08
-1.26737e-07
-2.69862e-09
-1.45086e-07
2.56477e-08
-1.78343e-07
1.06935e-07
-5.50318e-07
1.70865e-07
-7.62947e-07
2.34764e-07
-8.07025e-07
2.98178e-07
-8.29018e-07
-8.38469e-07
3.60511e-07
-8.86801e-08
-4.58881e-07
1.73919e-07
-2.43727e-08
-3.00216e-07
-2.12453e-09
-1.49872e-07
1.44321e-08
-1.60127e-07
3.65589e-08
-1.88203e-07
1.66192e-07
-5.04204e-07
2.28701e-07
-8.18e-07
2.89188e-07
-8.67048e-07
3.48294e-07
-8.88077e-07
-8.95908e-07
4.05737e-07
-3.13805e-08
-5.09629e-07
8.19306e-08
4.54796e-09
-4.85154e-07
1.60647e-08
-1.94417e-07
3.4122e-08
-1.77478e-07
4.82584e-08
-2.03683e-07
2.13806e-07
-4.88212e-07
2.83377e-07
-8.69528e-07
3.37597e-07
-9.21053e-07
3.90063e-07
-9.40517e-07
-9.46559e-07
4.40717e-07
7.06023e-08
-5.46822e-07
-3.35618e-08
6.88125e-08
-5.51757e-07
4.46702e-08
-2.36638e-07
5.82055e-08
-1.92679e-07
7.2833e-08
-2.201e-07
2.62284e-07
-5.12666e-07
3.3238e-07
-9.20516e-07
3.78214e-07
-9.66723e-07
4.22354e-07
-9.84637e-07
-9.89054e-07
4.64852e-07
1.55025e-07
-5.75335e-07
-1.26652e-07
1.25428e-07
-5.79087e-07
6.91112e-08
-2.52946e-07
7.98335e-08
-2.06209e-07
1.03151e-07
-2.41497e-07
3.21663e-07
-6.35984e-07
3.70786e-07
-9.63485e-07
4.08104e-07
-1.00392e-06
4.43609e-07
-1.02013e-06
-1.02296e-06
4.7752e-07
2.10754e-07
-5.96293e-07
-1.89938e-07
1.56815e-07
-5.92129e-07
8.67617e-08
-2.53286e-07
9.41189e-08
-2.19611e-07
1.41333e-07
-2.83232e-07
3.61601e-07
-7.93745e-07
3.97381e-07
-9.98732e-07
4.26817e-07
-1.03329e-06
4.54156e-07
-1.04746e-06
-1.04837e-06
4.79567e-07
2.47538e-07
-6.11061e-07
-2.32909e-07
1.6237e-07
-5.81438e-07
9.54616e-08
-2.4296e-07
1.0444e-07
-2.37221e-07
2.22029e-07
-3.41746e-07
3.85747e-07
-9.26694e-07
4.14261e-07
-1.02703e-06
4.36845e-07
-1.05585e-06
4.56737e-07
-1.06735e-06
-1.06565e-06
4.74011e-07
2.73014e-07
-6.22209e-07
-2.62027e-07
1.42276e-07
-5.42285e-07
9.88333e-08
-2.42414e-07
1.16923e-07
-2.65915e-07
3.35741e-07
-5.56013e-07
4.04777e-07
-9.9245e-07
4.26116e-07
-1.04833e-06
4.42518e-07
-1.07225e-06
4.55754e-07
-1.08058e-06
-1.0757e-06
4.65801e-07
2.89461e-07
-6.33397e-07
-2.78424e-07
1.23967e-07
-4.8646e-07
1.05444e-07
-2.5806e-07
1.5458e-07
-3.27008e-07
3.91657e-07
-7.9656e-07
4.19479e-07
-1.0204e-06
4.34137e-07
-1.06299e-06
4.45199e-07
-1.08331e-06
4.53143e-07
-1.08853e-06
-1.08035e-06
4.57793e-07
2.76104e-07
-6.35111e-07
-2.74513e-07
1.50368e-07
-4.46162e-07
1.50774e-07
-2.79726e-07
2.43601e-07
-4.4482e-07
3.99778e-07
-9.61636e-07
4.21021e-07
-1.04172e-06
4.33793e-07
-1.07577e-06
4.42607e-07
-1.09213e-06
4.47479e-07
-1.0934e-06
-1.08116e-06
4.48291e-07
2.35877e-07
-6.08228e-07
-2.62829e-07
1.32277e-07
-3.98648e-07
1.57785e-07
-3.29922e-07
3.59841e-07
-7.02502e-07
4.00182e-07
-1.00659e-06
4.18721e-07
-1.06031e-06
4.31339e-07
-1.08839e-06
4.39118e-07
-1.09991e-06
4.42135e-07
-1.09642e-06
-1.07953e-06
4.4051e-07
1.61469e-07
-5.16317e-07
-2.5167e-07
1.0159e-07
-3.59548e-07
1.97872e-07
-4.49631e-07
3.73886e-07
-9.19756e-07
4.02426e-07
-1.03537e-06
4.18761e-07
-1.07667e-06
4.29639e-07
-1.09927e-06
4.35713e-07
-1.10598e-06
4.37073e-07
-1.09777e-06
-1.0763e-06
4.33841e-07
1.40272e-07
-3.74051e-07
-2.29767e-07
1.66527e-07
-3.65162e-07
3.29619e-07
-7.10488e-07
3.8434e-07
-9.95267e-07
4.03333e-07
-1.05446e-06
4.15774e-07
-1.08912e-06
4.24065e-07
-1.10756e-06
4.2827e-07
-1.11019e-06
4.28254e-07
-1.09776e-06
-1.07203e-06
4.2398e-07
1.02277e-07
-2.64751e-07
-1.73698e-07
1.93502e-07
-4.12442e-07
3.48765e-07
-9.07514e-07
3.76104e-07
-1.02277e-06
3.91543e-07
-1.06993e-06
4.02418e-07
-1.1e-06
4.09427e-07
-1.11457e-06
4.12515e-07
-1.11327e-06
4.11518e-07
-1.09676e-06
-1.06691e-06
4.06399e-07
1.19799e-07
-2.3318e-07
-1.09085e-07
2.8883e-07
-7.10552e-07
3.41471e-07
-9.79483e-07
3.58725e-07
-1.04011e-06
3.70399e-07
-1.08161e-06
3.79354e-07
-1.10896e-06
3.8541e-07
-1.12063e-06
3.87977e-07
-1.11584e-06
3.86522e-07
-1.09531e-06
-1.06122e-06
3.80833e-07
1.48364e-07
-2.70849e-07
-7.30305e-08
2.8265e-07
-8.91005e-07
3.05277e-07
-1.00227e-06
3.2016e-07
-1.05501e-06
3.32775e-07
-1.09422e-06
3.43047e-07
-1.11923e-06
3.5044e-07
-1.12802e-06
3.54343e-07
-1.11974e-06
3.54251e-07
-1.09521e-06
-1.05703e-06
3.50062e-07
1.94226e-07
-5.33054e-07
-6.47641e-08
2.39409e-07
-9.51292e-07
2.56898e-07
-1.0198e-06
2.72346e-07
-1.07046e-06
2.86531e-07
-1.10841e-06
2.98495e-07
-1.13119e-06
3.07407e-07
-1.13693e-06
3.12589e-07
-1.12493e-06
3.13418e-07
-1.09604e-06
-1.05293e-06
3.0932e-07
1.4711e-07
-6.95968e-07
-1.85954e-08
1.753e-07
-9.79573e-07
1.97364e-07
-1.04187e-06
2.17644e-07
-1.09074e-06
2.35534e-07
-1.1263e-06
2.50385e-07
-1.14604e-06
2.61749e-07
-1.1483e-06
2.69252e-07
-1.13243e-06
2.72311e-07
-1.0991e-06
-1.05027e-06
2.69645e-07
9.60092e-08
-7.90623e-07
-1.23908e-08
1.22902e-07
-1.00647e-06
1.46964e-07
-1.06593e-06
1.69078e-07
-1.11285e-06
1.88542e-07
-1.14576e-06
2.04958e-07
-1.16246e-06
2.18297e-07
-1.16163e-06
2.28822e-07
-1.14296e-06
2.36934e-07
-1.10721e-06
-1.05635e-06
2.43018e-07
5.8749e-08
-8.40202e-07
-8.74812e-09
8.39493e-08
-1.03168e-06
1.07319e-07
-1.0893e-06
1.28698e-07
-1.13423e-06
1.47424e-07
-1.16449e-06
1.63065e-07
-1.1781e-06
1.75489e-07
-1.17406e-06
1.84847e-07
-1.15231e-06
1.91497e-07
-1.11386e-06
-1.06052e-06
1.95665e-07
4.08919e-08
-8.64347e-07
-7.66268e-09
6.10279e-08
-1.05181e-06
8.07142e-08
-1.10899e-06
9.93025e-08
-1.15282e-06
1.16002e-07
-1.18119e-06
1.30186e-07
-1.19228e-06
1.41491e-07
-1.18536e-06
1.49874e-07
-1.1607e-06
1.55613e-07
-1.1196e-06
-1.06403e-06
1.59131e-07
3.01023e-08
-8.77325e-07
-5.6695e-09
4.60137e-08
-1.06772e-06
6.23481e-08
-1.12532e-06
7.8446e-08
-1.16892e-06
9.35129e-08
-1.19625e-06
1.06836e-07
-1.20561e-06
1.17928e-07
-1.19645e-06
1.26639e-07
-1.16941e-06
1.33204e-07
-1.12617e-06
-1.06893e-06
1.38101e-07
2.25599e-08
-8.74284e-07
-3.88958e-09
3.5689e-08
-1.08073e-06
4.9733e-08
-1.13936e-06
6.41658e-08
-1.18335e-06
7.82728e-08
-1.21036e-06
9.13393e-08
-1.21867e-06
1.02839e-07
-1.20795e-06
1.12579e-07
-1.17915e-06
1.2076e-07
-1.13435e-06
-1.07585e-06
1.27676e-07
1.80052e-08
-8.59669e-07
-3.02384e-09
2.91821e-08
-1.09159e-06
4.16425e-08
-1.15182e-06
5.49772e-08
-1.19668e-06
6.8503e-08
-1.22389e-06
8.15114e-08
-1.23168e-06
9.34691e-08
-1.21991e-06
1.0417e-07
-1.18985e-06
1.1381e-07
-1.14399e-06
-1.08432e-06
1.22282e-07
1.53662e-08
-8.41322e-07
-2.63883e-09
2.53063e-08
-1.10125e-06
3.68455e-08
-1.16336e-06
4.94782e-08
-1.20932e-06
6.25127e-08
-1.23692e-06
7.52756e-08
-1.24445e-06
8.72735e-08
-1.23191e-06
9.83511e-08
-1.20093e-06
1.08809e-07
-1.15445e-06
-1.09289e-06
1.17381e-07
1.50551e-08
-8.21316e-07
-2.95973e-09
2.42516e-08
-1.11029e-06
3.52157e-08
-1.17432e-06
4.71972e-08
-1.2213e-06
5.94931e-08
-1.24922e-06
7.14958e-08
-1.25645e-06
8.27606e-08
-1.24318e-06
9.3171e-08
-1.21134e-06
1.03116e-07
-1.16439e-06
-1.09684e-06
1.07065e-07
1.81843e-08
-8.09405e-07
-2.22321e-09
2.68028e-08
-1.11889e-06
3.71481e-08
-1.18467e-06
4.8244e-08
-1.23239e-06
5.94614e-08
-1.26044e-06
7.03207e-08
-1.26731e-06
8.04379e-08
-1.25329e-06
8.96805e-08
-1.22058e-06
9.84408e-08
-1.17315e-06
-1.08703e-06
8.86337e-08
2.42061e-08
-8.07536e-07
-3.82135e-09
3.24801e-08
-1.12732e-06
4.20283e-08
-1.19422e-06
5.19716e-08
-1.24234e-06
6.19032e-08
-1.27037e-06
7.15714e-08
-1.27698e-06
8.07212e-08
-1.26244e-06
8.91687e-08
-1.22903e-06
9.71021e-08
-1.18108e-06
-1.07292e-06
7.38312e-08
3.02623e-08
-8.13968e-07
-4.75813e-09
3.85264e-08
-1.13562e-06
4.73928e-08
-1.20309e-06
5.62004e-08
-1.25114e-06
6.48137e-08
-1.27898e-06
7.33083e-08
-1.28547e-06
8.16808e-08
-1.27082e-06
8.97604e-08
-1.23712e-06
9.72948e-08
-1.18862e-06
-1.03974e-06
6.54949e-08
3.21923e-08
-8.36133e-07
-4.22043e-09
4.15025e-08
-1.14493e-06
5.04557e-08
-1.21204e-06
5.86073e-08
-1.2593e-06
6.60961e-08
-1.28647e-06
7.34112e-08
-1.29279e-06
8.08748e-08
-1.27828e-06
8.84477e-08
-1.24468e-06
9.56329e-08
-1.1958e-06
-9.96411e-07
5.64931e-08
2.93968e-08
-8.60947e-07
-2.51375e-09
4.06106e-08
-1.15614e-06
5.03298e-08
-1.22176e-06
5.82851e-08
-1.26725e-06
6.50469e-08
-1.29323e-06
7.17789e-08
-1.29952e-06
7.93135e-08
-1.28581e-06
8.7683e-08
-1.25305e-06
9.51894e-08
-1.20331e-06
-9.49952e-07
4.53461e-08
2.39124e-08
-8.83288e-07
-6.59891e-10
3.68081e-08
-1.16904e-06
4.6955e-08
-1.2319e-06
5.41693e-08
-1.27447e-06
5.96263e-08
-1.29869e-06
6.54895e-08
-1.30538e-06
7.37314e-08
-1.29406e-06
8.60705e-08
-1.26539e-06
1.03653e-07
-1.22089e-06
-9.11396e-07
5.19589e-08
1.67338e-08
-8.98956e-07
-1.09781e-10
3.08296e-08
-1.18313e-06
4.05791e-08
-1.24165e-06
4.58353e-08
-1.27972e-06
4.82564e-08
-1.30111e-06
5.04132e-08
-1.30754e-06
5.43063e-08
-1.29795e-06
6.15345e-08
-1.27262e-06
7.2231e-08
-1.23159e-06
-8.7647e-07
2.8735e-08
8.30074e-09
-9.10291e-07
4.49028e-09
2.38494e-08
-1.19868e-06
3.29226e-08
-1.25073e-06
3.59182e-08
-1.28272e-06
3.53475e-08
-1.30054e-06
3.41533e-08
-1.30634e-06
3.43858e-08
-1.29818e-06
3.80206e-08
-1.27626e-06
4.56761e-08
-1.23925e-06
-8.53531e-07
1.79428e-08
-5.26859e-10
-9.18659e-07
1.13043e-08
1.73824e-08
-1.21659e-06
2.53e-08
-1.25865e-06
2.59138e-08
-1.28333e-06
2.29141e-08
-1.29754e-06
1.92302e-08
-1.30266e-06
1.66922e-08
-1.29564e-06
1.7859e-08
-1.27742e-06
2.54372e-08
-1.24683e-06
-8.41266e-07
1.26958e-08
-5.98934e-09
-9.25322e-07
1.44433e-08
1.05824e-08
-1.23316e-06
1.61595e-08
-1.26422e-06
1.54986e-08
-1.28267e-06
1.21656e-08
-1.29421e-06
8.20212e-09
-1.2987e-06
4.66906e-09
-1.29211e-06
3.52099e-09
-1.27628e-06
7.353e-09
-1.25078e-06
-8.38463e-07
5.69172e-09
-2.11282e-08
-9.28537e-07
2.64479e-08
-1.8751e-09
-1.25242e-06
4.81692e-09
-1.27091e-06
5.66901e-09
-1.28352e-06
4.19372e-09
-1.29273e-06
2.11259e-09
-1.29661e-06
8.14817e-10
-1.29081e-06
1.93228e-09
-1.27739e-06
9.1025e-09
-1.25863e-06
-8.39727e-07
9.95136e-09
-9.13012e-09
-9.30731e-07
1.36627e-08
2.77378e-10
-1.26182e-06
2.44328e-09
-1.27308e-06
1.58945e-09
-1.28267e-06
-6.47014e-10
-1.29049e-06
-3.52992e-09
-1.29373e-06
-5.63969e-09
-1.2887e-06
-7.34117e-09
-1.27569e-06
-4.59173e-09
-1.2613e-06
-8.448e-07
3.05995e-09
9.45199e-09
-9.37976e-07
2.07969e-40
8.3883e-09
-1.26075e-06
4.97302e-09
-1.26966e-06
1.33963e-09
-1.27904e-06
-3.13978e-09
-1.28602e-06
-8.5265e-09
-1.28835e-06
-1.26176e-08
-1.28461e-06
-1.79581e-08
-1.27035e-06
-2.38778e-08
-1.2554e-06
-8.67526e-07
3.38347e-30
2.45025e-08
-9.61184e-07
8.8709e-40
1.56451e-08
-1.25191e-06
8.66399e-09
-1.26268e-06
3.08536e-09
-1.27346e-06
-3.91951e-09
-1.27901e-06
-1.21111e-08
-1.28015e-06
-1.77782e-08
-1.27894e-06
-2.49972e-08
-1.26313e-06
-3.64983e-08
-1.24389e-06
-9.04756e-07
2.21697e-29
3.16236e-08
-9.9167e-07
3.31804e-42
1.91991e-08
-1.23948e-06
1.12885e-08
-1.25477e-06
5.21323e-09
-1.26738e-06
-3.96179e-09
-1.26984e-06
-1.43731e-08
-1.26974e-06
-2.10145e-08
-1.2723e-06
-2.7624e-08
-1.25652e-06
-4.10299e-08
-1.23049e-06
-9.46722e-07
1.08785e-29
3.0609e-08
-1.02157e-06
6.83489e-46
1.76087e-08
-1.22648e-06
1.23824e-08
-1.24955e-06
6.77434e-09
-1.26177e-06
-3.84323e-09
-1.25922e-06
-1.51284e-08
-1.25846e-06
-2.2406e-08
-1.26502e-06
-2.54161e-08
-1.25351e-06
-3.78562e-08
-1.21805e-06
-9.85429e-07
2.31806e-30
2.05169e-08
-1.04175e-06
7.15506e-47
1.27944e-08
-1.21876e-06
1.47534e-08
-1.25151e-06
8.13453e-09
-1.25515e-06
-3.68333e-09
-1.2474e-06
-1.53874e-08
-1.24675e-06
-2.43318e-08
-1.25608e-06
-2.07553e-08
-1.25709e-06
-2.58167e-08
-1.21299e-06
-1.01194e-06
6.49672e-31
-1.45642e-09
-1.04022e-06
6.69553e-55
1.27233e-08
-1.23294e-06
2.10226e-08
-1.25981e-06