/*--------------------------------*- C++ -*----------------------------------*\
  =========                 |
  \\      /  F ield         | OpenFOAM: The Open Source CFD Toolbox
   \\    /   O peration     | Website:  https://openfoam.org
    \\  /    A nd           | Version:  8
     \\/     M anipulation  |
\*---------------------------------------------------------------------------*/
FoamFile
{
    version     2.0;
    format      ascii;
    class       volScalarField;
    location    "2.75";
    object      alpha.water;
}
// * * * * * * * * * * * * * * * * * * * * * * * * * * * * * * * * * * * * * //

dimensions      [0 0 0 0 0 0 0];

internalField   nonuniform List<scalar> 
9150
(
1
1
1
1
1
1
1
1
1
1
1
1
1
1
1
1
1
1
1
1
1
1
1
1
1
1
1
1
1
1
1
1
1
1
1
1
1
1
1
1
1
1
1
1
1
1
1
1
1
1
1
1
1
1
1
1
1
1
1
1
1
1
1
1
1
1
1
1
1
1
1
1
1
1
1
1
1
1
1
1
1
1
1
1
1
1
1
1
1
1
1
1
1
1
1
1
1
1
1
1
1
1
1
1
1
1
1
1
1
1
1
1
1
1
1
1
1
1
1
1
1
1
1
1
1
1
1
1
1
1
1
1
1
1
1
1
1
1
1
1
1
1
1
1
1
1
1
1
1
1
0.999997
0.999996
0.999999
0.999999
0.999999
0.999999
0.999999
0.999999
0.999994
0.99999
1
0.999999
0.999999
0.999992
0.999987
0.999987
0.999991
1
1
1
0.999999
0.999998
0.999998
0.999997
0.99999
0.999987
0.999997
1
1
0.999999
0.999997
0.999998
0.999999
0.999999
0.999997
0.999994
1
1
1
1
0.999998
0.999998
1
1
0.999998
0.999998
1
1
1
1
0.999999
0.999999
0.999999
0.999997
1
1
1
1
1
1
1
1
0.999998
0.999997
0.999999
1
1
1
1
1
1
1
0.999999
0.999997
0.999999
1
1
1
1
1
1
1
0.999999
0.999997
1
1
1
1
1
1
1
1
1
0.999999
1
1
1
0.999999
0.999982
0.999967
1
1
1
1
0.999999
0.999998
1
0.999999
0.999975
0.999967
1
1
1
1
0.999999
0.999979
0.999961
0.999999
0.999991
0.999972
1
1
1
1
1
0.999993
0.999877
0.999791
0.999993
0.999993
1
1
0.999999
0.999999
0.999999
0.999999
0.999891
0.999558
0.999862
0.999993
1
0.999999
0.999999
0.999999
0.999999
0.999999
0.999988
0.999585
0.998443
0.999993
1
0.999999
0.999999
0.999999
0.999999
0.999999
0.999999
0.999916
0.997772
0.99032
1
1
1
1
1
0.999999
0.999999
0.999998
0.998407
0.98846
1
1
1
1
1
0.999999
0.999998
0.999998
0.999882
0.988461
1
1
1
1
1
0.999998
0.999998
0.999998
1
0.995358
1
1
1
1
1
0.999998
0.999998
0.999999
1
0.998826
1
1
1
1
0.999999
1
1
1
1
1
1
1
1
1
1
1
1
1
1
1
0.999999
1
1
1
1
1
1
1
1
1
0.999997
0.999999
1
1
1
1
0.999997
0.999999
1
1
1
0.999999
1
1
1
0.999997
0.999996
0.999996
0.999998
1
1
1
1
1
0.999999
0.999998
0.999997
0.999997
0.999999
1
1
1
1
1
1
1
1
1
1
1
1
1
1
1
0.999999
0.999999
0.999999
1
1
1
1
1
1
1
1
1
1
1
1
1
1
1
0.999999
0.999999
1
1
1
1
1
1
1
1
1
1
1
1
1
1
1
1
1
1
1
1
1
1
1
1
1
1
1
1
1
1
1
1
1
1
1
1
1
1
1
1
1
1
1
1
1
1
1
1
1
1
1
1
1
1
1
1
1
1
1
1
1
1
1
1
1
1
1
1
1
1
1
1
1
1
1
1
0.999999
0.999991
0.999994
0.999999
1
1
1
0.999999
1
1
0.999999
0.999971
0.999961
0.999979
0.999999
0.999999
1
1
1
1
0.999999
0.999978
0.99996
0.999966
0.999987
0.999994
0.999998
1
1
1
0.999999
0.999994
0.999971
0.999959
0.999957
0.999964
0.99999
1
1
1
0.999987
0.999981
0.999953
0.999946
0.99993
0.999945
0.999981
0.999999
0.999999
0.999999
0.994785
0.984628
0.980403
0.988687
0.994676
0.998597
0.999959
0.999993
0.999986
0.99996
0.937465
0.924614
0.924597
0.927079
0.941558
0.957685
0.991833
0.998134
0.99231
0.97185
0.924991
0.924597
0.924615
0.925939
0.927853
0.928911
0.941875
0.94639
0.93078
0.908829
0.9344
0.959969
0.980389
0.980706
0.969069
0.957565
0.930541
0.92633
0.924739
0.912259
1
1
1
1
1
1
1
1
1
0.98922
0.999999
1
1
1
1
1
1
1
0.999999
1
0.999997
0.999997
0.999998
0.999999
1
1
1
0.999999
0.999995
0.999996
0.999957
0.999964
0.999973
0.999985
0.999996
0.999999
0.999998
0.999977
0.999968
0.999991
0.999348
0.999507
0.99966
0.999821
0.999963
0.999995
0.999985
0.999848
0.99997
0.999995
0.83449
0.926033
0.976134
0.998304
0.999629
0.999955
0.999924
0.999767
0.999968
0.999997
0.268358
0.401194
0.544744
0.797658
0.993548
0.999505
0.997404
0.999737
0.999958
0.999993
0.266941
0.266903
0.266427
0.310903
0.75384
0.986296
0.994661
0.999445
0.999931
0.999989
0.267275
0.266992
0.266676
0.265719
0.409065
0.902582
0.992825
0.999224
0.999899
0.999987
0.351915
0.267538
0.267103
0.267228
0.29085
0.790401
0.99111
0.99903
0.999888
0.999986
0.907612
0.352727
0.267656
0.267448
0.267824
0.673314
0.989854
0.999014
0.999892
0.999988
0.998429
0.808501
0.295144
0.267908
0.268729
0.580652
0.986902
0.99936
0.99993
0.999992
0.998484
0.941355
0.36827
0.268837
0.268468
0.551643
0.987074
0.999613
0.999952
0.999993
0.998628
0.959243
0.389191
0.271684
0.268721
0.626127
0.994278
0.999661
0.999959
0.999994
0.998792
0.957282
0.375965
0.276921
0.27164
0.77989
0.998084
0.99978
0.999973
0.999996
0.998856
0.931058
0.348422
0.282287
0.302777
0.900076
0.998917
0.999879
0.999985
0.999997
0.998982
0.866671
0.326262
0.286822
0.520405
0.974298
0.999466
0.999942
0.999993
0.999998
0.999254
0.764098
0.3182
0.292319
0.744644
0.998113
0.999761
0.999975
0.999997
0.999999
0.999354
0.651055
0.333956
0.352729
0.913444
0.999155
0.999915
0.999991
0.999999
0.999999
0.999417
0.565152
0.354167
0.683849
0.994189
0.999709
0.999973
0.999997
0.999999
1
0.912329
0.493612
0.369337
0.876785
0.998991
0.999902
0.99999
0.999999
1
1
0.569779
0.438282
0.63013
0.97827
0.999694
0.999974
0.999997
0.999999
1
1
0.396509
0.400784
0.913428
0.999427
0.999931
0.999994
0.999999
1
1
1
0.292437
0.571288
0.978233
0.999804
0.999983
0.999998
1
0.999999
1
1
0.26812
0.916885
0.999643
0.999971
0.999998
1
1
0.999997
0.999997
1
0.474937
0.983884
0.999913
0.999994
1
1
1
0.999996
0.999996
0.999999
0.735789
0.999738
0.999987
0.999999
1
1
1
0.999996
0.999996
0.999999
0.823494
0.999894
0.999997
1
1
1
1
0.999996
0.999998
0.999999
0.86481
0.999958
0.999999
1
1
1
1
0.999996
0.999998
0.999999
0.878837
0.999979
1
1
1
1
1
0.999996
0.999998
0.999999
0.882009
0.999983
0.999998
1
1
1
1
0.999996
0.999998
0.999998
0.876823
0.999932
0.999993
1
1
1
1
0.999998
0.999998
0.999999
0.854117
0.999693
0.99999
1
1
1
1
0.999998
0.999999
0.999998
0.830217
0.999411
0.999989
1
1
1
1
0.999993
0.999998
0.999998
0.806454
0.999311
0.999989
1
1
1
1
0.999993
0.999998
0.999999
0.78783
0.999368
0.999992
1
1
1
1
0.999993
0.999998
1
0.778774
0.999722
0.999996
1
1
1
1
0.999993
0.999998
0.979373
0.776652
0.999947
0.999999
1
1
1
1
0.999998
0.999998
0.941992
0.787288
0.999978
1
1
1
1
1
0.999996
0.999998
0.902998
0.80426
0.999983
1
1
1
1
1
0.999991
0.999998
0.858452
0.815458
0.999989
1
1
1
1
1
0.999991
0.999997
0.816184
0.821855
0.999992
0.999999
1
1
1
1
0.999992
0.999995
0.767223
0.823346
0.999994
0.999995
1
1
1
1
0.999991
0.999992
0.737325
0.814484
0.999995
0.999995
1
1
1
1
0.999989
0.99999
0.715801
0.799487
0.999995
0.999995
1
1
1
1
0.999989
0.999989
0.698777
0.780971
0.999995
0.999995
1
1
1
1
0.999989
0.999123
0.689704
0.749465
0.999995
0.999995
1
1
1
1
0.999991
0.998779
0.675501
0.73889
0.999694
0.999998
1
1
1
1
0.999997
0.999767
0.673737
0.758769
1.00004
1
1
1
1
1
1
0.999988
0.719857
0.791276
1
1
1
1
1
1
1
0.99999
0.760133
0.828061
0.999997
1
1
1
1
1
1
1.00001
0.807653
0.866076
1.00001
1
1
1
1
1
1
0.999998
0.853702
0.907817
1
1
1
1
1
1
1
1
0.901592
0.952722
1
1
1
1
1
1
1
1
0.950296
0.99999
0.99999
0.999995
1
1
1
0.999999
0.999997
0.999997
0.999997
0.999998
1
1
1
1
1
1
0.999999
0.999999
0.999999
0.999999
1
1
1
1
1
1
1
1
1
0.999999
0.999999
0.999999
1
1
1
1
1
1
0.997903
0.999997
0.999996
1
1
1
1
1
0.999999
1
1
1
1
1
1
1
1
1
1
1
1
1
1
1
1
1
1
1
1
1
1
1
1
1
1
1
1
1.00001
1.00001
1.00001
0.99798
0.999998
0.999999
0.999999
1
1
0.999999
0.999999
0.999998
0.999998
0.999999
1
1
1
1
1
1
1
1
1
1
1
1
1
1
1
1
1
1
1
1
1
1
1
1
1
1
1.00001
1.00001
1.00001
0.997803
1
1
1
1
1
1
1
1
1
1
1
1
1
1
1
1
1
1
1
1
1
1
0.999999
0.999999
0.999999
0.999999
1
1
1
1
1
1
1
1
1
1
1
1
1
0.997788
1
1
1
1
0.999999
0.999999
0.999999
1
1
1
1
1
1
1
1
1
1
1
1
0.999999
0.999997
0.999997
0.999998
0.999999
0.999999
0.999999
0.999999
1
1
1
1
0.999986
0.999971
0.999996
1
1
1
1
0.999971
0.998508
1
1
1
0.999999
0.999998
0.999999
1
1
1
1
1
1
1
1
1
1
1
0.999999
0.999997
0.999992
0.999992
0.999994
1
1
1
1
1
1
1
1
1
0.999901
0.999419
0.999632
1
1
1
0.999999
0.999994
0.999964
1
1
1
0.999999
0.999999
1
1
1
1
1
1
1
1
1
1
1
0.999999
0.999996
0.999991
0.999991
0.999993
1
1
1
1
1
1
1
1
1
0.999999
0.999926
0.997085
0.996126
1
1
1
1
1
0.999999
1
0.999999
0.999999
0.999999
1
1
1
1
1
0.999999
1
1
1
1
1
1
1
0.999995
0.999991
0.999991
0.999994
1
1
1
1
1
1
1
1
1
0.999998
0.999952
0.994781
0.936967
0.884867
0.945793
0.999986
1
1
0.994899
1
1
0.999999
0.999999
1
1
1
1
0.999998
0.999998
1
1
1
1
1
1
1
0.999999
0.999992
0.999991
0.999991
0.999998
1
1
1
1
1
1
1
1
1
1
0.967501
0.862171
0.858716
0.858673
0.858673
0.858678
0.863721
0.862845
0.999989
1
1
1
1
1
1
0.999998
0.999998
0.999998
1
1
1
1
1
1
0.999999
1
0.999999
0.999993
0.999991
0.999992
1
1
1
1
1
1
1
1
1
1
1
1
0.981451
0.892401
0.860005
0.86818
0.867812
0.864212
0.999967
0.999996
1
0.999999
0.999998
0.999998
1
0.999999
0.999998
0.999999
1
1
1
1
0.999999
0.999988
0.999987
1
1
1
0.999999
0.999994
0.999995
0.999999
1
1
1
1
1
1
1
1
1
1
1
1
0.999998
0.999995
0.999992
0.995492
0.999975
1
1
0.999999
0.999998
0.999999
1
1
1
1
1
1
1
1
0.999988
0.99998
0.999983
1
1
1
1
0.999998
0.999996
1
1
1
1
1
1
1
1
1
1
0.999986
0.999952
0.999688
0.999134
0.999557
0.999972
0.999969
0.999992
0.999996
1
1
1
1
1
1
1
1
1
1
1
0.999998
0.99998
0.99998
0.999981
0.999999
1
1
1
1
1
1
1
1
1
1
1
1
1
1
1
0.999997
0.999286
0.995993
0.995131
0.995384
0.997778
0.999301
0.999993
0.999911
0.999733
0.999996
1
1
1
1
0.999993
0.999985
1
1
1
0.999999
0.999983
0.99998
0.99998
0.999998
1
1
1
1
1
1
1
1
1
1
1
1
1
1
1
0.999999
0.997748
0.995131
0.995131
0.995131
0.995131
0.995132
0.999993
0.999845
0.999682
0.999804
1
1
1
0.999892
0.999788
0.99999
1
1
1
0.999999
0.999999
0.999988
0.99998
0.999998
1
1
1
1
1
1
1
1
1
1
1
1
1
1
0.999999
0.999999
0.999325
0.996305
0.995139
0.995261
0.995199
0.995131
0.996595
0.99993
0.999747
0.99966
0.999957
1
0.999932
0.999778
0.999779
0.999896
1
1
1
0.999999
0.999994
0.999996
1
1
1
1
1
1
1
1
1
1
1
1
1
1
1
1
0.999999
0.999999
0.999999
0.999999
0.999683
0.999737
0.999212
0.997001
0.989821
0.99993
0.999901
0.99966
0.999803
1
0.999901
0.999778
0.999778
0.999915
0.999998
0.999604
0.99915
1
1
1
1
1
1
1
1
1
1
1
1
1
1
0.999999
0.999999
1
1
1
0.999999
0.999992
0.999934
0.99995
0.999949
0.999924
0.999837
0.999782
0.997611
0.999809
0.999964
0.99966
0.99973
0.999999
0.999965
0.999822
0.999832
0.999858
0.999543
0.996293
0.995985
0.999203
1
1
1
1
1
1
0.999999
0.999999
1
1
1
0.999999
0.999999
0.999999
0.999999
0.999998
0.999998
0.999999
0.999999
0.999873
0.999466
0.999744
0.998211
0.995143
0.990131
0.997437
0.979574
0.999064
0.999977
0.999763
0.99982
0.999999
0.999999
0.999977
0.999967
0.999741
0.996924
0.995983
0.995983
0.996002
0.998988
1
1
1
1
0.999999
1
1
1
1
0.999999
0.999998
0.999998
0.999999
0.999999
0.999992
0.999919
0.99939
0.99925
0.999608
0.999495
0.999748
0.992858
0.973934
0.972788
0.97472
0.976848
0.9969
0.999988
0.999985
0.999983
0.999987
0.999911
0.999978
0.999975
0.999705
0.996247
0.995983
0.995983
0.995983
0.996225
0.999943
1
1
0.999999
0.999998
1
1
1
1
0.999999
0.999998
0.999995
0.999991
0.999997
0.999964
0.98888
0.954965
0.955843
0.99498
0.999982
0.999965
0.991704
0.972794
0.972724
0.972724
0.977572
0.999988
0.999988
0.999988
0.999989
0.999912
0.99985
0.999895
0.999974
0.99993
0.998446
0.996488
0.995983
0.995983
0.997541
0.999959
1
0.999999
0.999998
0.999997
0.999998
1
1
0.999999
0.999999
0.999999
0.999993
0.997331
0.984342
0.971246
0.937868
0.925867
0.925882
0.95059
0.999995
0.999999
0.998504
0.989437
0.977495
0.972724
0.999154
0.948645
0.999988
0.999989
0.999989
0.999904
0.99985
0.99985
0.999917
0.999987
0.999969
0.999655
0.999353
0.999372
0.999876
0.999994
0.999994
0.999999
0.999999
0.999984
0.999969
0.999983
0.999998
0.999999
0.999999
0.999999
0.999999
0.97198
0.927322
0.925858
0.925859
0.925855
0.925867
0.925884
0.99852
1
1
1
0.99952
0.975675
1
0.889546
0.728701
0.988614
0.999989
0.999938
0.99985
0.99985
0.99985
0.999988
0.999997
0.999997
0.999919
0.999403
0.999891
0.999907
0.999999
0.999999
0.999999
0.999986
0.999966
0.999966
0.999986
0.999999
0.999999
0.999999
0.999992
0.951153
0.925869
0.92586
0.925855
0.92586
0.925876
0.956992
0.996965
0.999994
1
1
1
0.998648
1
0.871072
0.703099
0.826712
0.997326
0.999939
0.999912
0.99985
0.999864
0.999988
0.999997
0.999997
0.999996
0.999126
0.972099
0.958368
0.993089
0.999999
0.999999
0.999999
0.999992
0.999969
0.999984
0.999999
0.999999
0.999998
0.999986
0.966551
0.925869
0.925869
0.92586
0.925862
0.935428
0.99452
0.999991
0.999991
0.999999
1
1
1
1
0.989914
0.718236
0.561251
0.923456
0.99994
0.999942
0.999938
0.999969
0.999993
0.999996
0.999998
0.999999
0.989238
0.951267
0.951256
0.958191
0.995362
0.999997
0.999999
0.999999
0.999999
0.999999
0.999999
0.987077
0.98135
0.997855
0.99749
0.940997
0.925873
0.925853
0.945493
0.993447
0.999953
0.999943
0.999965
0.999999
1
0.999999
1
1
1
0.864736
0.558515
0.556177
0.937481
0.999994
0.999998
0.999998
0.999998
0.999998
0.999999
0.999999
0.964266
0.951256
0.951256
0.951256
0.963887
0.996259
0.999969
0.999999
0.999999
0.999999
0.997819
0.923394
0.907731
0.940524
0.985356
0.977326
0.925938
0.934965
0.995643
0.999953
0.999954
0.999955
0.999962
0.999997
1
0.999999
0.999987
1
1
0.999999
0.625211
0.550061
0.628594
0.985874
0.999998
0.999999
0.999999
0.999999
0.999999
0.999999
0.987027
0.951257
0.951256
0.951256
0.951256
0.9663
0.999106
0.999998
0.999999
0.999998
0.949021
0.907588
0.907723
0.907782
0.907802
0.959424
0.981686
0.985989
0.997217
0.999811
0.999895
0.999997
1
0.999999
1
0.999999
0.999976
1
1
1
0.960524
0.601621
0.484673
0.736121
0.999982
0.999999
0.999999
0.999999
0.999999
0.999999
0.999879
0.999997
0.971308
0.951255
0.951256
0.960528
0.99748
0.999988
0.999997
0.972297
0.907496
0.907585
0.907713
0.907739
0.90782
0.947699
0.999966
0.999992
0.999913
0.999644
0.999645
0.999947
1
1
1
1
0.999976
1
0.999999
1
1
0.917845
0.492791
0.27793
0.686795
0.994192
0.999999
0.999999
0.999999
0.999999
0.999998
0.999997
0.999997
0.986223
0.96542
0.989892
0.999776
0.99996
0.966827
0.907669
0.907548
0.907553
0.907716
0.928875
0.98121
0.999993
0.999993
0.999993
0.999993
0.999961
0.999927
0.999986
1
1
1
1
0.999976
1
0.999999
1
1
0.999994
0.599488
0.267252
0.263861
0.492238
0.738157
0.918828
0.999999
0.999999
0.999998
0.999984
0.999861
0.999967
0.999966
0.999965
0.999965
0.965816
0.908638
0.908154
0.90767
0.96239
0.999985
0.999992
0.999992
0.999992
0.999993
0.999993
0.999993
0.999945
0.999802
0.99985
0.99998
1
1
1
0.999987
1
1
1
1
1
0.62311
0.264213
0.263357
0.263435
0.268123
0.385279
0.796385
0.999801
0.999632
0.999739
0.99997
0.999967
0.999967
0.999966
0.999965
0.954097
0.909487
0.934546
0.996822
0.999985
0.999992
0.999992
0.999992
0.999992
0.999992
0.999993
0.999993
0.999991
0.999801
0.999788
0.999833
0.999994
1
1
1
1
1
1
1
0.974864
0.511221
0.263672
0.263827
0.263586
0.264366
0.264618
0.613665
0.994443
0.999205
0.999986
0.999991
0.999961
0.999751
0.999929
0.999964
0.988013
0.984273
0.983059
0.982823
0.994545
0.999986
0.999992
0.999992
0.999992
0.999981
0.999969
0.999968
0.999966
0.999968
0.99999
0.999999
1
1
1
1
1
1
1
1
0.770233
0.313817
0.264054
0.263635
0.263968
0.26409
0.342154
0.86612
0.996241
0.99954
0.999984
0.999992
0.999998
0.999473
0.999266
0.999656
0.999928
0.986306
0.859268
0.915642
0.998705
0.999981
0.999987
0.998657
0.995491
0.997661
0.999911
0.999968
0.998421
0.973298
0.98476
0.999664
1
1
1
1
1
1
1
0.887969
0.375084
0.263932
0.263635
0.263168
0.263438
0.345424
0.850519
0.995725
0.997668
0.99976
0.999982
0.999988
0.999998
1
1
1
0.999991
0.768704
0.746884
0.915755
0.999836
0.999976
0.999981
0.991165
0.978522
0.983988
0.999423
0.999965
0.992814
0.933694
0.931373
0.986174
0.999996
1
1
1
1
1
0.966641
0.514111
0.263905
0.263529
0.263168
0.262841
0.488725
0.938742
0.995968
0.999703
0.999999
1
1
1
1
1
1
1
0.765284
0.69075
0.768006
0.989115
0.99992
0.99997
0.999977
0.989092
0.97828
0.978389
0.99431
0.999939
0.951143
0.931373
0.931373
0.941634
0.996723
0.999999
1
0.999983
1
1
0.846745
0.304311
0.264391
0.263889
0.312905
0.743237
0.989556
0.993408
0.998048
0.999993
1
1
1
1
1
1
1
0.867394
0.517437
0.69031
0.972806
0.999823
0.999926
0.999959
0.999975
0.999975
0.984219
0.97828
0.986525
0.999792
0.975511
0.931397
0.931373
0.931397
0.971289
0.999993
0.999999
0.999909
1
0.980964
0.657363
0.270869
0.265226
0.481889
0.939459
0.998986
0.996764
0.992666
0.99567
0.999917
0.999999
1
1
1
1
1
1
0.531969
0.513031
0.865512
0.999515
0.999896
0.999925
0.999937
0.999968
0.999975
0.999975
0.980918
0.986635
0.999713
0.996213
0.988255
0.949844
0.931422
0.937175
0.995304
0.999988
0.999851
1
0.835631
0.403803
0.274681
0.414731
0.911796
0.999045
0.999169
0.999169
0.998114
0.998584
0.999909
0.999999
1
1
1
1
1
0.817669
0.448116
0.532829
0.930235
0.999559
0.9999
0.999929
0.999932
0.999922
0.999924
0.999925
0.999924
0.99992
0.999849
0.999848
0.999882
0.999869
0.959329
0.937796
0.978333
0.999896
0.999851
1
0.831461
0.381611
0.278982
0.492377
0.965941
0.999099
0.999163
0.999197
0.999366
0.999706
0.99987
0.999966
0.999999
1
1
1
1
0.670238
0.436024
0.493303
0.906547
0.999259
0.999801
0.999859
0.999784
0.999786
0.999867
0.999875
0.999873
0.999912
0.999904
0.999827
0.999886
0.999884
0.999717
0.939646
0.969982
0.999549
0.999848
1
0.988271
0.622724
0.281426
0.431821
0.89575
0.998807
0.999097
0.996112
0.974152
0.970595
0.988802
0.999761
0.999994
0.999999
1
1
1
0.641048
0.427247
0.425853
0.678371
0.989832
0.999612
0.999826
0.999788
0.998557
0.994119
0.995389
0.997678
0.999872
0.999903
0.999891
0.999889
0.999885
0.999884
0.958068
0.95484
0.996382
0.99984
1
0.999999
0.966482
0.499642
0.431605
0.562523
0.942092
0.998805
0.988031
0.898118
0.895331
0.911616
0.977003
0.997939
0.999978
0.999997
1
1
0.766971
0.425853
0.42465
0.424693
0.67774
0.990335
0.99967
0.999772
0.999639
0.869067
0.890271
0.990288
0.998857
0.999896
0.999889
0.999887
0.999885
0.999884
0.979771
0.918827
0.98941
0.999803
0.999999
0.999997
0.999978
0.967882
0.588234
0.55235
0.630077
0.905988
0.966888
0.911309
0.894563
0.894314
0.894367
0.913569
0.982094
0.999459
0.999992
0.999999
0.964788
0.509994
0.424693
0.424322
0.424494
0.688487
0.995057
0.999639
0.981047
0.821616
0.818162
0.915715
0.998061
0.996131
0.999884
0.999885
0.999884
0.999882
0.975118
0.917827
0.976571
0.999707
0.999939
0.999969
0.99996
0.999941
0.999941
0.845143
0.694691
0.693401
0.706301
0.882319
0.975119
0.92111
0.893725
0.893528
0.893631
0.934129
0.996171
0.999971
0.999841
0.892454
0.450821
0.424565
0.424322
0.440131
0.881384
0.998215
0.995886
0.832376
0.818159
0.836332
0.984212
0.99589
0.960226
0.97863
0.998886
0.999881
0.947743
0.917412
0.968158
0.999521
0.954822
0.964112
0.988839
0.999404
0.999963
0.999972
0.99951
0.806207
0.716241
0.798468
0.983787
0.999417
0.95259
0.893725
0.893528
0.893699
0.90446
0.986366
0.999739
0.999492
0.848429
0.434033
0.424565
0.42691
0.759883
0.996796
0.998065
0.903785
0.818517
0.82464
0.976431
0.994977
0.778658
0.694498
0.958988
0.99566
0.918838
0.917358
0.969393
0.999305
0.908834
0.90883
0.923482
0.990674
0.999948
0.999979
0.999983
0.999988
0.923077
0.93637
0.994581
0.999906
0.999968
0.980808
0.895496
0.893541
0.893847
0.899726
0.985862
0.999245
0.999048
0.763505
0.427022
0.461244
0.868459
0.998066
0.999001
0.963602
0.821851
0.840106
0.975022
0.993583
0.643887
0.539658
0.836746
0.932089
0.917379
0.917412
0.977089
0.999381
0.908835
0.908834
0.911674
0.983922
0.999952
0.999981
0.999987
0.999991
0.999992
0.999992
0.99961
0.999615
0.999982
0.999997
0.979871
0.894847
0.893741
0.894184
0.948951
0.998887
0.999168
0.997224
0.771802
0.749956
0.943636
0.998965
0.999487
0.99969
0.853803
0.840156
0.961181
0.99154
0.612889
0.539658
0.701618
0.945215
0.917702
0.928339
0.990555
0.999476
0.942739
0.947915
0.989752
1
1
0.999979
0.999894
0.999889
0.999931
0.999982
0.999998
0.999997
0.999997
0.999997
0.999997
0.942186
0.894328
0.895983
0.980139
0.999168
0.999382
0.999453
0.999498
0.998808
0.994271
0.996171
0.999696
0.999728
0.903067
0.841506
0.937403
0.984292
0.642494
0.539658
0.615317
0.955038
0.975662
0.984342
0.9978
0.999632
1
1
1
1
1
0.999994
0.99989
0.999869
0.999869
0.999869
0.999974
0.999999
0.999973
0.999976
0.999997
0.996448
0.929321
0.953338
0.993442
0.996122
0.997587
0.9995
0.999582
0.999589
0.999532
0.999256
0.999729
0.999732
0.941756
0.845795
0.915784
0.975145
0.721875
0.540561
0.545701
0.934306
0.997895
0.999635
0.999887
0.999909
0.999998
0.999998
0.999998
0.999999
1
1
1
0.999898
0.999869
0.999884
0.999991
1
0.999927
0.999867
0.999891
1
1
1
1
0.947733
0.809912
0.92051
0.999579
0.999649
0.999709
0.99973
0.999732
0.999731
0.986864
0.853546
0.854812
0.952312
0.928202
0.54762
0.548571
0.861213
0.999428
0.999929
0.999972
0.999977
0.999995
0.999995
0.999995
0.999998
1
1
1
0.999995
0.999974
0.999994
1
1
1
1
1
1
1
1
1
0.993583
0.751373
0.732803
0.761366
0.968186
0.999632
0.99971
0.999731
0.999732
0.999725
0.892875
0.854794
0.937677
0.933322
0.637677
0.548573
0.756366
0.998061
0.999954
0.999977
0.999977
0.999996
0.999998
0.999999
1
1
1
1
1
1
1
1
1
1
1
1
1
1
0.999999
1
1
0.986597
0.739844
0.715346
0.710131
0.76043
0.975446
0.999675
0.999733
0.999575
0.958548
0.85504
0.86098
0.931509
0.895217
0.55207
0.672571
0.982813
0.999929
0.999977
0.999977
1
1
1
1
1
1
1
1
1
1
1
1
1
1
1
1
1
1
1
0.998312
0.98965
0.995948
0.957828
0.71287
0.690834
0.682322
0.899267
0.999357
0.999447
0.998488
0.874448
0.859016
0.920875
0.916054
0.586777
0.702939
0.98322
0.999883
0.999976
0.999977
0.999999
1
1
1
1
1
1
1
1
1
1
1
1
1
1
1
1
1
1
0.999711
0.999724
0.999685
0.999486
0.97576
0.708363
0.675101
0.685239
0.943602
0.998488
0.996485
0.886616
0.859003
0.880081
0.917173
0.899965
0.789934
0.961273
0.999803
0.999981
0.999976
0.999999
1
1
1
1
1
0.999999
0.999999
0.999998
0.999997
0.999997
0.999997
0.999994
0.999993
0.999994
0.999996
0.999998
1
1
1
1
0.999631
0.999564
0.999402
0.880221
0.6679
0.6679
0.820147
0.993379
0.995201
0.883061
0.859186
0.869863
0.92202
0.919456
0.641342
0.871806
0.999674
0.999966
0.999973
0.999999
1
1
1
1
0.999998
0.999995
0.999991
0.999983
0.999974
0.999971
0.999972
0.999937
0.999914
0.999924
0.999949
0.999973
0.999996
1
1
0.999999
0.999999
0.999011
0.99884
0.998327
0.711949
0.667879
0.723578
0.968197
0.992688
0.971266
0.859339
0.880311
0.934257
0.92202
0.513336
0.668635
0.984833
0.999948
0.999965
0.999999
1
1
1
1
0.999988
0.999968
0.999935
0.999869
0.999772
0.999711
0.999698
0.999387
0.998988
0.999095
0.999341
0.999765
0.999995
0.999999
0.999999
0.999999
0.999472
0.992502
0.996892
0.997319
0.810462
0.668923
0.680753
0.941306
0.983562
0.980943
0.971024
0.962612
0.937065
0.914016
0.36036
0.360749
0.931522
0.999931
0.999947
0.999999
1
1
1
0.999998
0.999927
0.999805
0.999551
0.998973
0.998108
0.997091
0.975475
0.970715
0.980663
0.988359
0.993295
0.999775
0.999971
0.999996
0.999999
0.999999
0.995446
0.985298
0.994916
0.996876
0.873076
0.661726
0.678546
0.932424
0.980976
0.978133
0.978122
0.961884
0.784488
0.53117
0.111845
0.121101
0.735527
0.97298
0.99993
0.999999
1
1
1
0.999991
0.999572
0.998706
0.997696
0.974677
0.854177
0.669833
0.412745
0.376297
0.521202
0.819038
0.995031
0.999446
0.999922
0.999989
0.999998
0.999999
0.991936
0.984865
0.993746
0.99706
0.871585
0.644659
0.692108
0.952332
0.978055
0.978122
0.964789
0.789191
0.296397
0.05592
0.0140528
0.0261638
0.292505
0.693815
0.94305
0.999998
0.999999
1
0.999999
0.999956
0.997638
0.985184
0.869537
0.526627
0.174042
0.0779733
0.0753556
0.0757069
0.0755076
0.226561
0.857472
0.998082
0.999761
0.999969
0.999995
0.999998
0.989133
0.984685
0.992904
0.997232
0.846851
0.625933
0.742791
0.972265
0.975497
0.945892
0.803688
0.360664
0.022429
0.00597179
0.00405974
0.00612393
0.0206653
0.166593
0.491402
0.999998
0.999998
0.999999
1
0.999784
0.886772
0.683182
0.479483
0.157156
0.0980948
0.0806588
0.0769053
0.0760023
0.0757518
0.0760023
0.287495
0.924261
0.999135
0.999914
0.999975
0.999995
0.986133
0.984666
0.992986
0.997308
0.772674
0.617359
0.826741
0.966958
0.956932
0.86726
0.597959
0.0779987
0.00303848
0.00173285
0.00183516
0.00230881
0.00501683
0.0158434
0.0424681
0.999998
0.999998
0.999999
0.999996
0.92853
0.446154
0.402913
0.418885
0.664405
0.610302
0.356463
0.151567
0.0772007
0.0759972
0.0761708
0.0764694
0.632717
0.997867
0.999803
0.99994
0.999964
0.986511
0.984667
0.99459
0.99725
0.641732
0.617359
0.913571
0.963901
0.830414
0.806656
0.381116
0.00527208
0.00108357
0.00106784
0.00122662
0.00149551
0.0024531
0.0060856
0.0114846
0.999998
0.999998
0.999998
1.00002
0.52631
0.368384
0.377435
0.760383
0.906622
0.894503
0.84935
0.729437
0.449205
0.0792584
0.076488
0.078252
0.451594
0.984807
0.999808
0.99994
0.999945
0.990165
0.98724
0.999414
0.990892
0.527919
0.671487
0.966864
0.964529
0.827975
0.748529
0.0888551
0.000893404
0.000851985
0.000907771
0.00102288
0.00124751
0.00151953
0.00291113
0.00405279
0.999999
0.999998
1.00002
0.999885
0.37509
0.363493
0.667446
0.932158
0.921774
0.697885
0.694361
0.760943
0.688986
0.142162
0.0782559
0.079064
0.43278
0.982748
0.999792
0.999944
0.999946
0.998973
0.998973
0.999694
0.906534
0.528298
0.7898
0.997618
0.976102
0.926949
0.550338
0.000920037
0.000796989
0.000810648
0.00085628
0.000915656
0.00111593
0.00166051
0.00157339
0.00167024
0.999999
0.999999
1.00004
0.745863
0.303828
0.361767
0.911485
0.935756
0.791044
0.103191
0.130638
0.691479
0.484414
0.0878174
0.0794289
0.0791827
0.519773
0.992729
0.999788
0.999946
0.999946
0.999946
0.99987
0.999671
0.773552
0.528193
0.896037
0.999215
0.997335
0.957233
0.322746
0.000806491
0.000796107
0.000795221
0.000890521
0.00160897
0.00176966
0.00152121
0.00105693
0.000857035
0.999999
0.999999
0.999969
0.567557
0.290692
0.457197
0.933962
0.93818
0.466336
0.0320713
0.0842562
0.60688
0.448668
0.0850345
0.0792794
0.0819594
0.705826
0.997129
0.999867
0.999944
0.999867
0.999927
0.99991
0.996484
0.714205
0.524393
0.943483
0.999339
0.999258
0.949028
0.267352
0.000797159
0.000793683
0.000797159
0.00110206
0.00168282
0.00170322
0.00144774
0.000869867
0.000652891
1
1.00001
0.999867
0.409884
0.284547
0.463927
0.950893
0.941638
0.324791
0.0228944
0.239144
0.597519
0.320892
0.0792813
0.0792813
0.183125
0.899763
0.999538
0.99993
0.999943
0.999512
0.978896
0.998982
0.988874
0.693835
0.511672
0.954052
0.999509
0.999389
0.965405
0.350891
0.000793683
0.000793284
0.000793683
0.000873611
0.00167749
0.00168282
0.00165892
0.000858519
0.000832234
1
1.00005
0.938245
0.31996
0.282767
0.484734
0.970797
0.928892
0.245113
0.0173582
0.30431
0.480018
0.163485
0.0798609
0.0792813
0.494331
0.999885
0.999917
0.999924
0.999936
0.98712
0.963902
0.987871
0.979216
0.681561
0.488228
0.955925
0.999656
0.99953
0.99037
0.644862
0.0570923
0.000793683
0.000790486
0.000794463
0.000963177
0.00169222
0.00171119
0.000847654
0.000861502
1
1.00003
0.647396
0.278764
0.282767
0.585718
0.988795
0.938579
0.221175
0.0130911
0.240558
0.268054
0.11162
0.0804424
0.169521
0.957859
0.999894
0.999905
0.999917
0.994521
0.963861
0.961768
0.961649
0.970191
0.687352
0.459299
0.936197
0.999733
0.999661
0.994538
0.935978
0.424363
0.0229853
0.000790185
0.000776243
0.000793259
0.000872355
0.000917985
0.000840174
0.000843269
1
0.999954
0.424537
0.274065
0.278674
0.756378
0.997845
0.989049
0.221874
0.00953087
0.0943363
0.140678
0.0373426
0.104149
0.588355
0.999836
0.999867
0.999891
0.999396
0.975696
0.963443
0.963505
0.972371
0.978502
0.732392
0.399309
0.838789
0.999754
0.999733
0.998472
0.994205
0.903057
0.397549
0.053206
0.000770544
0.000794361
0.000802402
0.000819072
0.000841185
0.000839154
1.00002
0.946449
0.30713
0.273436
0.29075
0.920512
0.999893
0.99998
0.252931
0.00668611
0.00583959
0.0116253
0.0132141
0.341963
0.998827
0.999835
0.999838
0.999855
0.998867
0.970207
0.963443
0.963443
0.993475
0.987078
0.836117
0.338412
0.60905
0.999749
0.999759
0.999679
0.998944
0.994884
0.921384
0.559522
0.181482
0.021108
0.000819064
0.000845484
0.000836973
0.000816893
1.00001
0.590925
0.254135
0.266366
0.689889
0.997748
0.999962
0.99999
0.392299
0.00555293
0.00551071
0.00551071
0.0492993
0.665679
0.999735
0.999778
0.999829
0.9998
0.999655
0.983606
0.963443
0.977268
0.994218
0.993759
0.86597
0.306043
0.319169
0.99607
0.999764
0.999746
0.999626
0.998983
0.996393
0.974407
0.80394
0.483364
0.193386
0.0422596
0.00419277
0.336469
1
0.3846
0.25021
0.281793
0.904349
0.999942
0.99999
0.999991
0.676056
0.00669827
0.0110409
0.00659308
0.167783
0.915964
0.999599
0.999533
0.998555
0.999774
0.999317
0.998616
0.994389
0.996241
0.994817
0.994224
0.749961
0.165893
0.159473
0.794109
0.999764
0.999765
0.999756
0.999676
0.999345
0.997895
0.994527
0.966133
0.826207
0.573916
0.381095
0.619383
1.00004
0.255541
0.248662
0.677389
0.993576
0.999988
0.999993
0.999992
0.860801
0.00734848
0.0151432
0.00860785
0.170231
0.926064
0.99947
0.999454
0.998549
0.99976
0.997212
0.992283
0.996378
0.996378
0.996355
0.932062
0.395952
0.134471
0.137159
0.297961
0.897143
0.999756
0.999737
0.999776
0.999872
0.999649
0.999043
0.997741
0.994871
0.979755
0.874023
0.701671
0.830429
0.179039
0.246725
0.89369
0.999953
0.999993
0.999993
0.999991
0.944662
0.105664
0.0130563
0.0344473
0.136542
0.848461
0.998325
0.99944
0.99919
0.999698
0.996998
0.984622
0.99534
0.996341
0.996295
0.853049
0.188731
0.134959
0.135228
0.137307
0.355533
0.808063
0.994512
0.999872
0.999942
0.999933
0.999845
0.999629
0.99907
0.995131
0.849154
0.521276
0.693462
0.154273
0.338019
0.931956
0.999974
0.999993
0.999993
0.999993
0.994508
0.546326
0.0130563
0.0633356
0.198851
0.73589
0.993652
0.999437
0.998868
0.999577
0.998757
0.98537
0.929068
0.96386
0.993253
0.881352
0.219412
0.135027
0.134829
0.135228
0.138328
0.235184
0.683551
0.976564
0.999957
0.999966
0.999971
0.999938
0.999832
0.997235
0.824939
0.495469
0.604764
0.143609
0.359466
0.943947
0.999977
0.999993
0.999993
0.999993
0.99999
0.889833
0.0430022
0.0328769
0.399318
0.763161
0.988772
0.831339
0.989782
0.999449
0.999165
0.990658
0.896817
0.831619
0.961896
0.903731
0.413653
0.153199
0.13521
0.135438
0.135781
0.139011
0.186926
0.846984
0.999966
0.999975
0.999986
0.999988
0.999968
0.999057
0.861643
0.495256
0.534313
0.134976
0.341274
0.944446
0.999891
0.99998
0.999993
0.999991
0.999993
0.999936
0.552421
0.0328769
0.325057
0.781257
0.886028
0.743635
0.962807
0.999418
0.999146
0.982528
0.857311
0.829851
0.834548
0.856127
0.738021
0.633949
0.355056
0.217008
0.153568
0.150502
0.197632
0.765107
0.999161