/*--------------------------------*- C++ -*----------------------------------*\
  =========                 |
  \\      /  F ield         | OpenFOAM: The Open Source CFD Toolbox
   \\    /   O peration     | Website:  https://openfoam.org
    \\  /    A nd           | Version:  8
     \\/     M anipulation  |
\*---------------------------------------------------------------------------*/
FoamFile
{
    version     2.0;
    format      ascii;
    class       volScalarField;
    location    "2.75";
    object      epsilon;
}
// * * * * * * * * * * * * * * * * * * * * * * * * * * * * * * * * * * * * * //

dimensions      [0 2 -3 0 0 0 0];

internalField   nonuniform List<scalar> 
9150
(
0.0313122
0.0124366
0.00309646
0.000940868
0.000452011
0.000452321
0.000941463
0.00309748
0.0124383
0.0313126
0.0302252
0.00873936
0.00173004
0.000604752
0.000340646
0.000340868
0.000605165
0.00173073
0.00874074
0.0302258
0.0284266
0.00693804
0.00111622
0.000495756
0.000304726
0.000304918
0.000496097
0.00111672
0.00693926
0.0284272
0.0264937
0.00599799
0.000836609
0.000463024
0.000293671
0.000293852
0.000463341
0.000836989
0.00599912
0.0264944
0.0244909
0.00559281
0.00069766
0.000455811
0.000291869
0.000292047
0.000456122
0.000697979
0.00559391
0.0244915
0.123795
0.0527216
0.0224612
0.013721
0.00987723
0.00987732
0.0137148
0.0224382
0.0526521
0.123777
0.0761663
0.0230372
0.0130753
0.00870421
0.00612897
0.00613043
0.00870401
0.0130686
0.0230303
0.0761703
0.0553948
0.0178897
0.00759705
0.00453441
0.00300288
0.00300412
0.00453559
0.00759669
0.0178905
0.0553981
0.0425264
0.0152258
0.00478049
0.00228713
0.00136023
0.00136098
0.00228825
0.00478154
0.0152283
0.0425284
0.0356168
0.0137163
0.00351125
0.00129786
0.000686725
0.000687166
0.00129865
0.00351241
0.0137187
0.0356179
1.62541
0.177232
0.0484857
0.0206533
0.0124314
0.0125093
0.0208272
0.0479806
0.171846
1.4557
0.280335
0.116029
0.0450813
0.0204902
0.0125385
0.0125835
0.0206115
0.0453925
0.117958
0.278743
0.235515
0.102644
0.0444149
0.0203555
0.0126436
0.0126641
0.0204066
0.044529
0.103359
0.235113
0.197216
0.0913249
0.043721
0.0201284
0.0127438
0.0127496
0.0201401
0.0437482
0.0913919
0.197068
0.156532
0.0865562
0.0402251
0.0189628
0.0124102
0.0124097
0.0189565
0.0402019
0.0864284
0.156484
0.0658263
0.0654383
0.0650136
0.0645617
0.0640929
0.0636171
0.0631435
0.0626806
0.0622358
0.0618145
0.0336689
0.0335588
0.0334279
0.0332789
0.0331144
0.032937
0.0327495
0.0325543
0.0323539
0.03215
0.0280214
0.0279587
0.0278792
0.0277843
0.0276752
0.0275534
0.0274204
0.0272776
0.0271265
0.0269684
0.0261886
0.0261472
0.0260907
0.0260199
0.0259358
0.0258393
0.0257316
0.0256136
0.0254866
0.0253516
0.0255822
0.0255551
0.0255139
0.025459
0.0253913
0.0253115
0.0252206
0.0251195
0.0250092
0.0248907
0.0255424
0.0255275
0.0254989
0.0254571
0.0254029
0.0253368
0.0252597
0.0251725
0.025076
0.0249713
0.0258246
0.0258214
0.0258049
0.0257756
0.025734
0.0256807
0.0256164
0.025542
0.0254584
0.0253663
0.0263178
0.0263269
0.026323
0.0263065
0.0262777
0.0262372
0.0261858
0.0261241
0.026053
0.0259734
0.0269653
0.026988
0.0269978
0.026995
0.02698
0.0269531
0.0269151
0.0268666
0.0268083
0.0267411
0.0277365
0.0277744
0.0277994
0.0278119
0.0278119
0.0277999
0.0277763
0.0277418
0.027697
0.0276427
0.0286142
0.0286693
0.0287117
0.0287413
0.0287583
0.0287628
0.0287552
0.028736
0.0287058
0.0286653
0.0295897
0.0296645
0.0297267
0.0297759
0.0298121
0.0298354
0.0298458
0.0298438
0.0298297
0.0298042
0.0306593
0.0307569
0.0308418
0.0309137
0.0309721
0.0310169
0.031048
0.0310655
0.0310697
0.0310611
0.0318233
0.0319473
0.0320587
0.0321569
0.0322412
0.0323111
0.0323663
0.0324065
0.0324319
0.0324426
0.0330849
0.0332394
0.0333818
0.0335109
0.0336256
0.0337252
0.0338089
0.0338761
0.0339265
0.0339601
0.0344493
0.0346396
0.0348184
0.034984
0.035135
0.0352702
0.0353881
0.0354877
0.0355683
0.0356294
0.0359235
0.0361556
0.0363772
0.0365863
0.0367808
0.0369588
0.0371183
0.0372575
0.0373753
0.0374707
0.0375153
0.0377962
0.0380682
0.038329
0.0385759
0.0388061
0.0390169
0.0392059
0.0393708
0.0395095
0.0392328
0.0395706
0.0399023
0.0402249
0.0405353
0.0408298
0.0411049
0.0413569
0.0415821
0.041777
0.0410844
0.0414882
0.0418899
0.0422861
0.0426731
0.0430463
0.0434012
0.0437327
0.0440356
0.0443047
0.0430776
0.0435575
0.0440408
0.0445239
0.0450023
0.0454711
0.0459246
0.0463563
0.0467592
0.0471258
0.0452201
0.0457866
0.046364
0.0469485
0.0475353
0.048119
0.0486931
0.04925
0.049781
0.0502757
0.0475186
0.0481828
0.0488671
0.0495682
0.0502814
0.0510008
0.0517194
0.0524286
0.0531181
0.0537752
0.04998
0.050752
0.0515557
0.0523883
0.0532455
0.0541214
0.0550087
0.0558979
0.056777
0.0576307
0.0526063
0.0534994
0.0544343
0.0554121
0.0564308
0.0574857
0.0585702
0.0596751
0.060788
0.061892
0.0554008
0.0564215
0.0574994
0.0586335
0.059824
0.0610707
0.0623681
0.0637073
0.0650755
0.0664539
0.0583743
0.059522
0.0607436
0.0620378
0.0634032
0.0648376
0.0663418
0.0679068
0.0695189
0.0711589
0.0615567
0.0628286
0.0641906
0.0656439
0.0671865
0.0688167
0.0705303
0.0723289
0.0742042
0.0761423
0.0650035
0.0663996
0.0679003
0.0695096
0.0712301
0.0730594
0.0749966
0.0770386
0.0791889
0.0814443
0.0688071
0.0703316
0.0719748
0.0737425
0.0756398
0.0776712
0.0798348
0.0821306
0.0845566
0.0871177
0.0731093
0.074774
0.076571
0.078508
0.0805928
0.0828321
0.0852318
0.0877925
0.0905126
0.0933896
0.0781188
0.0799444
0.0819159
0.0840437
0.0863384
0.0888107
0.0914707
0.0943273
0.0973851
0.100642
0.0841344
0.0861513
0.0883271
0.0906754
0.0932108
0.0959488
0.0989053
0.102096
0.105537
0.109236
0.0915822
0.0938323
0.0962518
0.0988577
0.101669
0.104705
0.107988
0.111542
0.115387
0.119544
0.101077
0.103619
0.106336
0.109247
0.112374
0.115741
0.119373
0.123295
0.127532
0.132099
0.113519
0.116442
0.119534
0.122816
0.126312
0.130046
0.134043
0.138326
0.142906
0.147768
0.130247
0.133688
0.137276
0.141029
0.144968
0.149117
0.153496
0.158121
0.162978
0.168036
0.153259
0.15745
0.161738
0.166134
0.17065
0.1753
0.180098
0.185036
0.19011
0.195293
0.185526
0.190869
0.196227
0.201595
0.206964
0.212326
0.217672
0.22297
0.228223
0.23342
0.231306
0.23849
0.245579
0.252534
0.25931
0.265857
0.272111
0.278011
0.283556
0.288761
0.296309
0.306461
0.316389
0.326002
0.335186
0.343812
0.351723
0.358773
0.364921
0.370172
0.387372
0.402205
0.416675
0.430609
0.443781
0.455949
0.46683
0.476101
0.483649
0.489488
0.511252
0.533161
0.554531
0.575033
0.594295
0.611962
0.627638
0.640732
0.651008
0.658487
0.672244
0.704118
0.735168
0.76487
0.792719
0.818223
0.840852
0.859947
0.875046
0.88605
0.869187
0.913527
0.95685
0.998559
1.0379
1.07403
1.10626
1.13403
1.15665
1.17346
1.0948
1.15373
1.21163
1.26772
1.32091
1.37018
1.41451
1.45288
1.4845
1.50832
1.33764
1.41316
1.48774
1.55996
1.62824
1.69121
1.7477
1.79685
1.83788
1.8692
1.58213
1.67531
1.76752
1.85672
1.94081
2.0179
2.08659
2.1459
2.19503
2.23257
1.80962
1.92038
2.03028
2.13637
2.23574
2.32593
2.40532
2.47306
2.52878
2.57203
2.00543
2.13252
2.25887
2.38024
2.49248
2.59246
2.67871
2.75124
2.81082
2.85806
2.16811
2.30833
2.44765
2.58014
2.7
2.80319
2.88916
2.95989
3.0182
3.06578
2.31824
2.46499
2.61045
2.74635
2.86373
2.95825
3.03198
3.09069
3.14027
3.1836
2.49833
2.64274
2.78561
2.91347
3.01059
3.07725
3.12158
3.15468
3.18578
3.22013
2.73351
2.86071
3.00141
3.11945
3.17531
3.18727
3.18267
3.17732
3.18232
3.20348
3.00261
3.09808
3.21374
3.32309
3.34922
3.29314
3.2281
3.18078
3.15848
3.16619
3.19646
3.28007
3.36606
3.46331
3.47477
3.36939
3.25416
3.17247
3.12998
3.13037
3.31825
3.37333
3.44504
3.53214
3.53828
3.41043
3.26195
3.15729
3.10528
3.10838
3.50614
3.46847
3.50623
3.58643
3.58284
3.43759
3.26502
3.14569
3.0932
3.10891
3.78712
3.64277
3.62344
3.6819
3.65403
3.47526
3.27757
3.14789
3.10144
3.13804
4.10161
3.85683
3.78925
3.82497
3.75263
3.52304
3.30002
3.16536
3.13191
3.19767
4.3454
4.036
3.94894
3.96712
3.83533
3.55691
3.31943
3.19086
3.18081
3.28597
4.45772
4.13628
4.06412
4.06319
3.86644
3.56077
3.32653
3.21832
3.24424
3.4004
4.43105
4.1572
4.13001
4.10102
3.84429
3.53671
3.3235
3.2486
3.32153
3.53864
4.3042
4.13288
4.16325
4.09698
3.80001
3.50301
3.32036
3.28685
3.41389
3.69816
4.14796
4.11149
4.18582
4.05987
3.74473
3.46941
3.32314
3.33645
3.52235
3.87761
4.02773
4.13141
4.20319
3.99781
3.68649
3.4433
3.3372
3.40083
3.64865
4.07722
4.00904
4.22205
4.23528
3.96216
3.65275
3.43728
3.37013
3.48459
3.79564
4.29891
4.16235
4.41005
4.288
3.96273
3.6536
3.4579
3.42575
3.5906
3.96672
4.54755
4.48664
4.65297
4.36623
3.99061
3.67882
3.49928
3.50165
3.71953
4.16563
4.83017
4.95551
4.89274
4.47075
4.04629
3.72258
3.55613
3.59504
3.87144
4.39486
5.15133
5.50787
5.12062
4.58599
4.11359
3.77361
3.62131
3.70258
4.04587
4.65562
5.51193
6.01776
5.36856
4.70873
4.17691
3.82064
3.68842
3.82097
4.24148
4.94852
5.91494
6.40902
5.56258
4.80647
4.22581
3.86138
3.75716
3.94903
4.45529
5.26923
6.35747
6.80113
5.75771
4.90448
4.27619
3.9051
3.831
4.08542
4.68153
5.60681
6.82151
7.24794
6.0024
5.03728
4.34922
3.96204
3.91238
4.22793
4.91664
5.96096
7.31786
7.75347
6.30808
5.21639
4.45216
4.03485
4.00052
4.37371
5.15667
6.32714
7.84149
8.312
6.67058
5.44017
4.58288
4.12018
4.0915
4.51885
5.39683
6.69713
8.37869
8.91509
7.08117
5.70178
4.73469
4.21114
4.17953
4.66051
5.63834
7.0759
8.9375
9.56957
7.54239
6.00003
4.90279
4.30095
4.25894
4.79769
5.88753
7.47813
9.54096
10.2813
8.06239
6.33763
5.08385
4.38286
4.32373
4.92968
6.15239
7.92189
10.218
11.0717
8.65866
6.72082
5.27513
4.44944
4.36673
5.05461
6.43993
8.42451
10.9991
11.9981
9.35944
7.15742
5.47264
4.49142
4.37882
5.16848
6.75405
8.99622
11.891
13.1283
10.1902
7.64958
5.66713
4.49587
4.34847
5.2656
7.09797
9.6485
12.9028
14.514
11.1637
8.1882
5.84093
4.4453
4.26207
5.33991
7.47797
10.4042
14.0692
16.2274
12.2935
8.7555
5.96926
4.31972
4.10522
5.38383
7.90018
11.2962
15.4536
18.3695
13.5946
9.32578
6.02332
4.10093
3.86453
5.38392
8.35866
12.3511
17.1429
21.0621
15.0706
9.85741
5.96993
3.77626
3.53054
5.31967
8.83055
13.5831
19.2273
24.4373
16.6837
10.2781
5.77164
3.34482
3.10262
5.16142
9.27141
15.0161
21.9985
28.6026
18.3073
10.472
5.3924
2.8246
2.59322
4.85938
9.55283
16.494
25.4306
33.4281
19.6383
10.2725
4.80563
2.25251
2.03406
4.37035
9.50402
17.7234
29.2805
38.0552
20.1052
9.48451
4.01525
1.682
1.4771
3.68488
8.94929
18.26
32.9126
40.4867
18.8731
7.99714
3.09698
1.17485
0.984114
2.85738
7.78306
17.5324
35.1117
37.342
15.3938
6.01301
2.20609
0.77635
0.603037
2.01592
6.10578
15.0691
33.3001
25.5838
10.2285
3.9821
1.46351
0.489031
0.342043
1.29153
4.244
11.1457
25.9834
13.7552
5.92635
2.45671
0.931468
0.293993
0.181178
0.767079
2.66045
7.18832
17.0685
7.36179
3.42689
1.5054
0.575693
0.164955
0.0904696
0.434262
1.57537
4.29707
10.2391
4.02721
2.00473
0.91138
0.335534
0.082814
0.0435685
0.234069
0.897983
2.4428
5.70563
2.1838
1.16854
0.530288
0.174684
0.036739
0.0224358
0.117675
0.491715
1.33983
2.93131
1.16045
0.684078
0.282764
0.0754164
0.0173504
0.014742
0.0545285
0.251591
0.729173
1.38593
0.776339
0.418447
0.123317
0.0293888
0.0127602
0.0127383
0.0268462
0.111435
0.414193
0.780164
0.0614097
0.0610187
0.060672
0.0603696
0.0601084
0.0598822
0.0596824
0.0595017
0.0593437
0.0592651
0.0593633
0.059461
0.0595174
0.0595142
0.0594346
0.0592612
0.0589752
0.0585571
0.0579869
0.0572451
0.0563141
0.0551822
0.0538496
0.052324
0.0506464
0.0487631
0.0465786
0.0440718
0.0412301
0.0380576
0.0345702
0.0308015
0.0268725
0.0232331
0.0196656
0.0161392
0.0126837
0.00937678
0.00647689
0.00357323
0.0319342
0.0317053
0.0314772
0.0312508
0.0310261
0.0308033
0.0305828
0.0303668
0.0301615
0.0299814
0.0298378
0.0297054
0.0295691
0.0294195
0.0292495
0.0290526
0.0288225
0.0285527
0.0282364
0.027867
0.0274378
0.0269428
0.0263768
0.0257346
0.0250101
0.0241891
0.0232542
0.0222153
0.0210687
0.0198165
0.0184695
0.0170468
0.0155862
0.0141545
0.0126921
0.0111832
0.00964079
0.00813031
0.0068771
0.00688142
0.0267954
0.0266066
0.0264135
0.0262174
0.0260194
0.0258209
0.0256233
0.0254286
0.0252397
0.0250602
0.0248911
0.0247267
0.0245613
0.0243897
0.0242076
0.0240105
0.0237939
0.0235533
0.0232839
0.0229805
0.0226381
0.0222514
0.021815
0.0213237
0.0207718
0.0201538
0.0194652
0.0187051
0.0178735
0.0169725
0.0160167
0.015016
0.0139849
0.0129421
0.0118925
0.0108472
0.00984554
0.00899
0.00853564
0.00876981
0.0252016
0.0250356
0.0248639
0.0246879
0.0245088
0.024328
0.0241468
0.0239665
0.0237882
0.0236132
0.0234418
0.0232713
0.0230988
0.0229211
0.022735
0.0225371
0.0223238
0.0220913
0.0218356
0.0215528
0.0212386
0.0208887
0.0204989
0.0200652
0.0195837
0.0190514
0.0184659
0.0178264
0.0171333
0.0163889
0.0155984
0.0147688
0.0139115
0.0130442
0.0121939
0.0113995
0.010746
0.0104485
0.0111593
0.00884514
0.0247576
0.024609
0.0244541
0.0242943
0.0241308
0.0239646
0.0237969
0.0236283
0.0234595
0.0232907
0.0231218
0.0229515
0.022778
0.0225986
0.0224108
0.0222118
0.0219986
0.021768
0.0215169
0.0212419
0.0209398
0.0206074
0.0202419
0.0198404
0.0194008
0.0189214
0.0184009
0.0178387
0.0172346
0.0165888
0.0159019
0.0151766
0.0144214
0.0136575
0.0129255
0.0122874
0.0118541
0.0118846
0.0133004
0.00882808
0.0248526
0.0247191
0.0245789
0.0244334
0.0242836
0.0241305
0.0239747
0.0238167
0.0236568
0.0234947
0.02333
0.0231621
0.0229895
0.0228099
0.0226213
0.0224212
0.022207
0.0219761
0.0217259
0.0214539
0.0211577
0.0208352
0.0204847
0.0201049
0.019695
0.0192548
0.0187844
0.0182842
0.0177543
0.0171933
0.0165983
0.0159646
0.0152907
0.0145939
0.0139274
0.0133781
0.0130823
0.0133093
0.0151183
0.0373676
0.025261
0.0251412
0.0250146
0.0248821
0.0247449
0.0246036
0.0244587
0.0243106
0.024159
0.0240036
0.0238438
0.0236786
0.0235073
0.023328
0.0231388
0.0229373
0.0227215
0.0224891
0.022238
0.0219664
0.0216726
0.0213553
0.021014
0.0206485
0.0202595
0.0198483
0.0194172
0.0189686
0.0185049
0.018027
0.0175319
0.017009
0.0164377
0.0158037
0.0151638
0.0146499
0.0144264
0.0147592
0.0165836
0.00879721
0.0258808
0.0257742
0.0256603
0.0255402
0.0254146
0.0252842
0.0251493
0.0250101
0.0248662
0.0247172
0.0245621
0.0243998
0.0242296
0.0240504
0.0238602
0.0236571
0.0234391
0.0232043
0.022951
0.0226778
0.0223835
0.0220676
0.0217301
0.0213718
0.0209942
0.0206
0.0201929
0.0197778
0.0193604
0.0189467
0.0185411
0.0181403
0.017721
0.0172201
0.0166371
0.0161414
0.0159003
0.0162218
0.0183209
0.0377887
0.0266612
0.0265676
0.026466
0.0263575
0.0262428
0.0261224
0.0259967
0.0258656
0.0257287
0.0255854
0.0254346
0.0252753
0.0251059
0.0249263
0.0247349
0.0245297
0.0243092
0.0240715
0.0238152
0.0235391
0.0232424
0.0229249
0.0225868
0.0222292
0.0218541
0.0214643
0.0210642
0.0206594
0.0202571
0.0198668
0.0195011
0.0191757
0.0189069
0.0186721
0.018386
0.0179368
0.0175925
0.0177857
0.0198934
0.0380012
0.0275759
0.0274953
0.0274058
0.0273085
0.0272042
0.0270932
0.0269759
0.0268522
0.0267216
0.0265834
0.0264366
0.0262801
0.0261124
0.025932
0.0257392
0.0255322
0.0253093
0.0250689
0.0248099
0.024531
0.0242317
0.0239118
0.0235718
0.0232127
0.0228366
0.0224467
0.0220473
0.0216447
0.0212472
0.0208659
0.0205156
0.020214
0.0199772
0.0197947
0.0196115
0.0194064
0.0191916
0.0193007
0.0210153
0.0381334
0.0286121
0.0285448
0.0284676
0.0283815
0.0282871
0.0281852
0.0280758
0.027959
0.0278343
0.027701
0.0275582
0.0274047
0.0272391
0.0270599
0.0268663
0.0266583
0.0264344
0.0261931
0.0259333
0.0256539
0.0253543
0.0250346
0.0246952
0.0243375
0.0239635
0.0235769
0.0231825
0.0227871
0.0223999
0.0220325
0.0216981
0.0214095
0.0211711
0.0209662
0.0207547
0.0205499
0.0204227
0.0207674
0.0226423
0.0382021
0.0297658
0.0297127
0.0296482
0.0295734
0.0294891
0.0293961
0.0292946
0.0291847
0.029066
0.0289381
0.0287999
0.0286505
0.0284885
0.0283125
0.0281213
0.0279148
0.0276929
0.0274543
0.0271976
0.0269221
0.0266271
0.0263127
0.0259793
0.0256283
0.025262
0.0248839
0.0244988
0.0241133
0.0237359
0.0233762
0.0230442
0.022747
0.0224844
0.0222435
0.0220056
0.0217853
0.0216894
0.0220847
0.0241989
0.0397073
0.031039
0.0310014
0.0309506
0.030888
0.0308144
0.0307308
0.0306378
0.0305355
0.0304239
0.0303026
0.030171
0.0300279
0.0298724
0.0297033
0.0295192
0.0293191
0.0291044
0.028874
0.0286268
0.0283617
0.0280781
0.0277758
0.0274551
0.0271169
0.0267632
0.0263969
0.0260222
0.0256445
0.0252706
0.0249078
0.0245634
0.024243
0.0239482
0.0236762
0.0234278
0.0232329
0.0232072
0.0237161
0.0262341
0.0435915
0.0324392
0.032419
0.0323837
0.0323346
0.032273
0.0322003
0.0321171
0.0320243
0.0319219
0.03181
0.0316882
0.0315558
0.0314117
0.0312551
0.0310848
0.0308999
0.0306995
0.0304856
0.0302564
0.0300107
0.0297474
0.0294656
0.029165
0.028846
0.0285094
0.0281573
0.0277924
0.0274189
0.0270417
0.0266669
0.0263011
0.0259507
0.025622
0.025323
0.0250709
0.0249127
0.0249797
0.0256737
0.028672
0.048742
0.0339784
0.0339786
0.0339613
0.0339282
0.0338809
0.0338212
0.0337506
0.0336702
0.0335808
0.0334829
0.0333765
0.0332612
0.0331362
0.0330007
0.0328535
0.0326937
0.0325202
0.0323344
0.0321352
0.0319208
0.0316892
0.0314386
0.0311676
0.0308753
0.0305614
0.0302264
0.029872
0.0295007
0.0291168
0.0287258
0.0283352
0.027954
0.0275939
0.027271
0.0270147
0.0268879
0.0270484
0.027969
0.0315946
0.0544147
0.0356741
0.0356991
0.0357037
0.0356899
0.0356602
0.0356169
0.0355626
0.0354992
0.0354284
0.0353513
0.0352685
0.03518
0.0350851
0.0349829
0.0348724
0.0347525
0.034622
0.0344798
0.0343268
0.0341596
0.033975
0.0337697
0.0335409
0.0332861
0.0330034
0.032692
0.032352
0.0319854
0.0315963
0.0311911
0.0307798
0.0303759
0.0299971
0.029667
0.0294242
0.0293488
0.0296375
0.0308627
0.0353091
0.0618712
0.0375486
0.0376047
0.0376366
0.0376468
0.0376389
0.0376167
0.037584
0.0375442
0.0374999
0.0374534
0.0374057
0.0373573
0.0373078
0.0372559
0.0372004
0.0371399
0.0370725
0.0369962
0.0369112
0.0368126
0.0366954
0.0365547
0.0363857
0.0361839
0.0359459
0.0356692
0.0353532
0.0349996
0.0346133
0.0342033
0.033784
0.0333767
0.0330081
0.03271
0.0325294
0.0325633
0.0330539
0.0347086
0.0403273
0.0723235
0.0396288
0.0397237
0.0397896
0.03983
0.0398499
0.0398553
0.0398518
0.0398448
0.0398383
0.0398355
0.0398384
0.0398479
0.039864
0.0398851
0.0399093
0.0399342
0.0399571
0.0399747
0.0399857
0.0399833
0.0399604
0.0399098
0.0398242
0.0396973
0.0395235
0.0392992
0.0390232
0.0386976
0.0383292
0.0379307
0.0375239
0.0371421
0.0368268
0.0366197
0.0365756
0.0368111
0.0376253
0.0399038
0.0471707
0.0871462
0.0419501
0.0420938
0.0422016
0.0422789
0.0423335
0.0423743
0.04241
0.042448
0.0424942
0.042553
0.0426271
0.0427179
0.0428257
0.0429485
0.0430831
0.043226
0.0433733
0.0435203
0.0436623
0.0437911
0.0438966
0.0439686
0.0439973
0.043974
0.0438911
0.0437436
0.0435302
0.0432542
0.0429255
0.0425618
0.0421932
0.04187
0.0416556
0.0416012
0.0417692
0.0423126
0.0436247
0.0468101
0.0561425
0.107336
0.0445497
0.044758
0.0449195
0.0450417
0.0451382
0.0452238
0.045311
0.0454101
0.0455285
0.0456717
0.0458431
0.0460445
0.0462757
0.0465344
0.0468167
0.0471171
0.0474298
0.047748
0.0480648
0.0483674
0.0486425
0.0488768
0.0490577
0.0491739
0.0492157
0.0491768
0.0490552
0.0488563
0.0485952
0.0482958
0.0479962
0.0477619
0.0476866
0.0478295
0.0482619
0.0492028
0.0511835
0.0556272
0.067927
0.132664
0.0474667
0.0477621
0.0479902
0.0481657
0.0483145
0.0484585
0.048615
0.0487966
0.0490123
0.0492682
0.0495683
0.0499144
0.0503061
0.0507407
0.0512135
0.0517173
0.0522434
0.0527822
0.0533234
0.0538485
0.0543406
0.0547831
0.0551606
0.0554594
0.055668
0.0557785
0.0557878
0.0557013
0.05554
0.0553377
0.0551433
0.0550336
0.0551167
0.0554768
0.0562206
0.0576324
0.0604054
0.0663585
0.0824329
0.164236
0.0507494
0.0511618
0.0514716
0.0517101
0.0519257
0.0521476
0.0523968
0.052688
0.053031
0.0534325
0.0538966
0.0544251
0.0550176
0.0556713
0.0563815
0.0571393
0.0579323
0.0587472
0.0595658
0.0603659
0.0611264
0.0618275
0.062451
0.0629814
0.0634064
0.0637175
0.06391
0.0639858
0.0639668
0.0638999
0.0638473
0.0638969
0.0641638
0.0647678
0.065863
0.0678097
0.0714708
0.0791096
0.0994229
0.204336
0.0544213
0.0549952
0.0554194
0.0557459
0.0560542
0.0563815
0.0567522
0.0571841
0.0576877
0.0582699
0.0589348
0.0596841
0.0605176
0.0614333
0.0624273
0.0634902
0.0646044
0.0657509
0.0669016
0.068031
0.0691143
0.0701278
0.0710506
0.0718657
0.0725609
0.0731299
0.0735677
0.07387
0.0740533
0.074173
0.0743048
0.074548
0.0750313
0.0759066
0.0773903
0.0799418
0.0845996
0.0941127
0.119176
0.25246
0.0584896
0.0592835
0.059864
0.0603234
0.0607629
0.0612376
0.0617742
0.0623886
0.0630923
0.0638929
0.0647951
0.0658018
0.0669135
0.0681297
0.0694492
0.0708627
0.0723454
0.0738718
0.075405
0.0769175
0.0783812
0.0797668
0.08105
0.0822099
0.0832337
0.0841219
0.0848754
0.0854839
0.0859439
0.0863129
0.0866733
0.0871395
0.0878656
0.0890384
0.0909561
0.0941933
0.100009
0.111771
0.142663
0.307478
0.0630286
0.0641284
0.0649761
0.0655694
0.0661527
0.0668251
0.0675838
0.0684278
0.0693677
0.0704165
0.0715844
0.0728772
0.0742968
0.0758461
0.0775256
0.079323
0.0812052
0.083143
0.0850951
0.0870355
0.0889334
0.0907572
0.0924755
0.0940591
0.0954835
0.0967553
0.0979
0.0988938
0.0997104
0.100396
0.101039
0.101767
0.102764
0.104266
0.106644
0.110588
0.117596
0.131696
0.16872
0.36714
0.0678993
0.0693476
0.0706011
0.0715096
0.0723595
0.0733194
0.0743528
0.0754595
0.0766522
0.0779593
0.0794016
0.0809896
0.0827294
0.0846264
0.0866796
0.0888702
0.0911684
0.0935235
0.0959125
0.0983141
0.100697
0.103025
0.105262
0.107368
0.109303
0.111058
0.112662
0.114106
0.115356
0.116437
0.117446
0.118512
0.119837
0.121705
0.124558
0.129207
0.137405
0.153878
0.19726
0.431232
0.0729031
0.0747052
0.0764149
0.0778799
0.0790826
0.080416
0.081874
0.0833539
0.0848788
0.0864963
0.0882456
0.0901437
0.0922012
0.0944298
0.0968329
0.0993955
0.102094
0.104872
0.107715
0.110609
0.113529
0.116438
0.11929
0.122031
0.124607
0.126986
0.129174
0.131174
0.132963
0.134543
0.136002
0.137487
0.139208
0.141486
0.144831
0.15018
0.159556
0.178414
0.228349
0.499766
0.0782483
0.0804975
0.082723
0.0848369
0.0866923
0.0883268
0.0901375
0.0920062
0.0939177
0.0959206
0.0980336
0.100258
0.102607
0.105114
0.107809
0.110705
0.113756
0.116943
0.120257
0.12369
0.127223
0.130813
0.134401
0.137913
0.141278
0.144446
0.147396
0.150109
0.152566
0.154771
0.156799
0.158804
0.16101
0.163761
0.16763
0.173683
0.18422
0.205468
0.262139
0.573044
0.0839406
0.0866755
0.0894673
0.0922476
0.094897
0.0971286
0.0991109
0.101525
0.10393
0.106358
0.108835
0.111331
0.113859
0.116507
0.119363
0.122468
0.125801
0.129378
0.133202
0.137255
0.141507
0.145905
0.150369
0.154807
0.159138
0.163294
0.167208
0.170837
0.174154
0.177162
0.179925
0.182587
0.185381
0.18868
0.19312
0.199893
0.211589
0.235229
0.298767
0.650732
0.0899819
0.0931618
0.09646
0.0998231
0.103182
0.106273
0.108548
0.11172
0.115264
0.118197
0.120876
0.123394
0.125816
0.128332
0.131142
0.134301
0.137859
0.141835
0.146228
0.151001
0.1561
0.16145
0.166957
0.17252
0.178055
0.183456
0.188615
0.193444
0.197888
0.20193
0.20562
0.209094
0.212592
0.21652
0.221578
0.229094
0.241963
0.268028
0.338573
0.732844
0.0966178
0.100228
0.103996
0.107872
0.111802
0.115592
0.11866
0.122198
0.126858
0.130953
0.133977
0.13608
0.13787
0.139942
0.142518
0.145695
0.149516
0.15398
0.159056
0.164689
0.170805
0.177303
0.184093
0.191086
0.198171
0.205189
0.211961
0.218337
0.224212
0.229545
0.23437
0.238817
0.243137
0.247764
0.253473
0.261755
0.275855
0.304506
0.382463
0.820592
0.104312
0.108455
0.112821
0.117338
0.121923
0.126333
0.130094
0.134283
0.139446
0.14426
0.147315
0.148279
0.148995
0.150511
0.152927
0.156265
0.160518
0.165649
0.171603
0.178311
0.185691
0.193637
0.202048
0.210847
0.219906
0.228976
0.23779
0.246117
0.253786
0.26071
0.266905
0.272498
0.277748
0.283121
0.289468
0.298508
0.31399
0.345767
0.432802
0.922179
0.113444
0.118221
0.1233
0.128574
0.133913
0.138913
0.143423
0.148765
0.154595
0.158669
0.159318
0.158486
0.158532
0.159834
0.162372
0.166114
0.171018
0.17703
0.184091
0.192129
0.201055
0.210755
0.221116
0.232149
0.243646
0.255256
0.266618
0.277395
0.287313
0.29621
0.30407
0.311005
0.317286
0.323395
0.330324
0.339888
0.356305
0.390868
0.488058
1.0434
0.124299
0.12972
0.135497
0.141501
0.147426
0.152597
0.158017
0.164256
0.168751
0.169181
0.167466
0.166394
0.166626
0.168257
0.171288
0.175704
0.181485
0.188596
0.196991
0.206595
0.217299
0.228944
0.24155
0.255249
0.269634
0.28431
0.298818
0.312678
0.325445
0.336821
0.346727
0.35522
0.362543
0.369215
0.37596
0.385246
0.402063
0.439219
0.547278
1.17876
0.137303
0.143203
0.149446
0.155813
0.161367
0.166295
0.17196
0.176048
0.176341
0.174854
0.173635
0.173372
0.174339
0.176674
0.180457
0.185741
0.192562
0.200928
0.210809
0.222101
0.234605
0.24818
0.263367
0.280078
0.297875
0.316276
0.334681
0.352414
0.368798
0.383326
0.395752
0.406075
0.4145
0.42099
0.42697
0.435552
0.45234
0.491863
0.611565
1.32813
0.153199
0.159162
0.16527
0.171042
0.175409
0.179389
0.182227
0.182486
0.18171
0.180962
0.180749
0.181413
0.183209
0.186323
0.190902
0.197067
0.20491
0.214477
0.225747
0.238567
0.252581
0.268269
0.286339
0.306494
0.328326
0.35126
0.374514
0.397153
0.418189
0.436784
0.452394
0.464834
0.474008
0.480057
0.484788
0.491811
0.507631
0.548758
0.680103
1.48844
0.173513
0.179195
0.184484
0.188645
0.191104
0.192415
0.192387
0.191818
0.191224
0.19095
0.191305
0.192555
0.194928
0.198622
0.203818
0.210684
0.21937
0.229981
0.242519
0.256649
0.271736
0.289638
0.310713
0.334697
0.361194
0.389551
0.418784
0.447616
0.474626
0.498492
0.518219
0.533344
0.543185
0.548349
0.550987
0.555214
0.568557
0.609621
0.751288
1.6541
0.200826
0.206498
0.211193
0.213182
0.212624
0.211344
0.210053
0.208896
0.207946
0.207459
0.207719
0.208972
0.211422
0.215257
0.220674
0.227882
0.237087
0.248463
0.261911
0.276442
0.292482
0.312519
0.336693
0.364846
0.396636
0.431369
0.467858
0.504414
0.539036
0.569766
0.595045
0.613576
0.624438
0.62831
0.627707
0.627517
0.63635
0.674795
0.823807
1.8149
0.238862
0.244518
0.249324
0.250497
0.247676
0.243776
0.240498
0.237793
0.235529
0.233874
0.233112
0.233501
0.235227
0.238465
0.243427
0.250355
0.259504
0.271117
0.285001
0.299497
0.316054
0.337773
0.364845
0.397249
0.43477
0.476744
0.521804
0.567763
0.611881
0.651432
0.684135
0.707208
0.719488
0.721449
0.715898
0.708782
0.710587
0.744413
0.899089
1.98557
0.293954
0.299207
0.304136
0.306056
0.301927
0.295186
0.289031
0.283716
0.279027
0.274988
0.271909
0.270129
0.269868
0.271317
0.274709
0.280309
0.288408
0.299312
0.31286
0.327196
0.343693
0.366394
0.395922
0.432358
0.475726
0.525545
0.580409
0.637578
0.693385
0.744312
0.786543
0.816124
0.83074
0.830233
0.817762
0.800667
0.791529
0.816747
0.973419
2.14917
0.374847
0.378833
0.382199
0.384479
0.382552
0.374891
0.364541
0.354564
0.345576
0.337438
0.330258
0.324365
0.320182
0.318009
0.318122
0.320791
0.326306
0.335016
0.346967
0.360875
0.376966
0.399601
0.430827
0.470716
0.51963
0.577489
0.643087
0.713229
0.783181
0.848449
0.903429
0.942679
0.961523
0.958189
0.936074
0.90461
0.879448
0.89068
1.04312
2.29061
0.493973
0.496806
0.497964
0.497698
0.495371
0.488642
0.475609
0.459532
0.443863
0.429031
0.41525
0.402886
0.392421
0.384252
0.378778
0.376351
0.377282
0.381895
0.390438
0.402606
0.417832
0.439159
0.470511
0.512855
0.566585
0.632234
0.708898
0.793131
0.879571
0.962026
1.03401
1.08774
1.11428
1.10806
1.07268
1.02134
0.97427
0.965407
1.10732
2.41049
0.663576
0.66563
0.66446
0.660179
0.652776
0.642054
0.62734
0.60742
0.583846
0.559167
0.535279
0.513358
0.493812
0.476897
0.463052
0.452786
0.44652
0.444642
0.44748
0.455298
0.468189
0.487284
0.516677
0.559389
0.616407
0.688789
0.776186
0.875175
0.979391
1.0823
1.17592
1.25046
1.29082
1.28308
1.23047
1.15338
1.07762
1.04191
1.16789
2.51242
0.89323
0.895202
0.891614
0.882782
0.868898
0.850273
0.8276
0.801007
0.76995
0.735011
0.698746
0.663949
0.631933
0.603078
0.577712
0.556469
0.539953
0.528682
0.523161
0.523844
0.531359
0.546552
0.572373
0.612746
0.67056
0.747293
0.843046
0.954927
1.07753
1.20304
1.32237
1.42399
1.48739
1.48282
1.41026
1.30378
1.19456
1.12764
1.23388
2.61532
1.18445
1.18733
1.18144
1.16743
1.14637
1.11884
1.08541
1.04706
1.00462
0.958569
0.909815
0.860611
0.813213
0.769084
0.728894
0.693231
0.662966
0.638895
0.621749
0.612225
0.611067
0.619561
0.640199
0.676106
0.731246
0.808673
0.909422
1.03228
1.17304
1.32279
1.4706
1.6026
1.69131
1.69078
1.60399
1.4737
1.33424
1.23633
1.32181
2.75801
1.52448
1.52963
1.52264
1.50448
1.47696
1.44112
1.39766
1.34767
1.29238
1.23281
1.16978
1.10486
1.04032
0.978255
0.920121
0.86684
0.819373
0.778852
0.746512
0.723513
0.710751
0.709614
0.72217
0.751228
0.801013
0.87569
0.977825
1.10829
1.26439
1.43721
1.61409
1.77848
1.89527
1.90773
1.81868
1.67281
1.50907
1.38376
1.4528
2.99398
1.89112
1.89971
1.89405
1.8754
1.84491
1.80349
1.75226
1.69251
1.62546
1.55228
1.47414
1.3927
1.31015
1.22876
1.15059
1.07726
1.01004
0.95023
0.899736
0.860381
0.833372
0.819264
0.82013
0.839327
0.88115
0.949869
1.0493
1.18234
1.34845
1.54042
1.74489
1.94285
2.09487
2.13792
2.06249
1.91177
1.73209
1.58714
1.6516
3.38872
2.25941
2.27277
2.27154
2.25592
2.22624
2.18326
2.12806
2.06182
1.9858
1.90125
1.8096
1.71269
1.61278
1.51235
1.41383
1.31952
1.23131
1.1509
1.08081
1.02342
0.979357
0.949209
0.935375
0.941447
0.971589
1.03028
1.12229
1.25226
1.42247
1.62868
1.85812
2.08978
2.28389
2.37695
2.33687
2.19882
2.01686
1.86367
1.94267
3.99954
2.60427
2.62329
2.62776
2.61743
2.59214
2.55208
2.49777
2.42997
2.34965
2.258
2.15656
2.04731
1.93264
1.81523
1.69793
1.58347
1.47443
1.37341
1.28349
1.20744
1.14485
1.09646
1.0656
1.05601
1.07151
1.11662
1.19685
1.3184
1.48658
1.70126
1.95177
2.21608
2.4591
2.62243
2.64068
2.53358
2.36808
2.22535
2.34917
4.89673
2.89525
2.92061
2.93252
2.93055
2.91394
2.88203
2.83446
2.77122
2.69272
2.59983
2.49396
2.37712
2.25182
2.12097
1.98779
1.85553
1.7274
1.60673
1.49698
1.40106
1.31926
1.25269
1.2047
1.17893
1.17868
1.208
1.27313
1.38196
1.54285
1.76051
2.02878
2.3293
2.63148
2.87554
2.97402
2.92243
2.79133
2.6788
2.88445
6.13287
3.1063
3.13874
3.16089
3.17154
3.16894
3.15127
3.117
3.06511
2.99517
2.9075
2.80322
2.68423
2.55313
2.41311
2.26776
2.12087
1.9763
1.838
1.70982
1.59387
1.49239
1.40763
1.34316
1.30271
1.28737
1.30029
1.34893
1.44282
1.59301
1.80948
2.09353
2.43218
2.79494
3.12607
3.3423
3.38276
3.30323
3.2349
3.55387
7.73872
3.22568
3.26624
3.30182
3.32978
3.34682
3.34961
3.33516
3.30114
3.24611
3.16964
3.0724
2.95617
2.8237
2.67854
2.52478
2.36677