/*--------------------------------*- C++ -*----------------------------------*\
  =========                 |
  \\      /  F ield         | OpenFOAM: The Open Source CFD Toolbox
   \\    /   O peration     | Website:  https://openfoam.org
    \\  /    A nd           | Version:  8
     \\/     M anipulation  |
\*---------------------------------------------------------------------------*/
FoamFile
{
    version     2.0;
    format      ascii;
    class       volScalarField;
    location    "2.75";
    object      k;
}
// * * * * * * * * * * * * * * * * * * * * * * * * * * * * * * * * * * * * * //

dimensions      [0 2 -2 0 0 0 0];

internalField   nonuniform List<scalar> 
9150
(
0.00182759
0.000940955
0.000476307
0.000303686
0.000197096
0.000197223
0.000303875
0.000476474
0.000941059
0.0018276
0.00178504
0.000746462
0.000399631
0.000258846
0.000165081
0.000165186
0.000259017
0.000399792
0.000746553
0.00178506
0.0017135
0.000651217
0.000366693
0.000238754
0.000152285
0.000152381
0.000238915
0.000366852
0.000651301
0.00171353
0.00163492
0.00060118
0.000353592
0.000230719
0.000147436
0.000147527
0.000230876
0.000353752
0.000601259
0.00163495
0.00155145
0.00057962
0.000348828
0.000227902
0.000145928
0.000146018
0.000228058
0.000348987
0.000579696
0.00155148
0.00285287
0.00257421
0.0018657
0.00163806
0.00136352
0.00136383
0.001638
0.00186463
0.00257215
0.00285261
0.00230565
0.00150724
0.00128778
0.00122251
0.000999071
0.00099945
0.0012228
0.00128749
0.00150693
0.00230573
0.00205064
0.00125418
0.000892074
0.000815144
0.000641354
0.000641663
0.000815467
0.000892139
0.00125424
0.00205072
0.00186849
0.00111158
0.000652207
0.000534827
0.000395882
0.000396103
0.000535107
0.000652378
0.00111173
0.00186854
0.00178767
0.00102191
0.000525575
0.000374739
0.000259013
0.000259173
0.000374963
0.000525757
0.00102205
0.00178771
0.0160159
0.00646687
0.00281531
0.00192534
0.00156768
0.00157
0.00192024
0.00270652
0.00598331
0.0149188
0.004964
0.00374394
0.00251462
0.00191455
0.00157646
0.00157788
0.00191489
0.00251401
0.0037683
0.00494562
0.0044198
0.00341368
0.00249533
0.0019167
0.00158587
0.00158641
0.00191583
0.002494
0.0034233
0.00441486
0.0039267
0.00315894
0.00247641
0.00191309
0.00159482
0.00159486
0.00191193
0.00247477
0.00315749
0.00392478
0.00336615
0.00311565
0.00237442
0.00186599
0.00156967
0.00156965
0.00186516
0.00237281
0.00311139
0.00336548
0.00299514
0.00298337
0.00297045
0.00295669
0.00294237
0.0029278
0.00291327
0.00289904
0.00288532
0.0028723
0.00655752
0.00653404
0.00650771
0.00647902
0.00644852
0.00641676
0.00638428
0.00635156
0.00631908
0.00628727
0.00839137
0.00836846
0.00834178
0.00831184
0.00827916
0.00824426
0.00820766
0.00816984
0.00813128
0.00809239
0.00970859
0.00968771
0.00966239
0.00963308
0.00960025
0.00956437
0.00952594
0.00948539
0.00944317
0.00939968
0.0107886
0.0107701
0.0107466
0.0107185
0.0106861
0.01065
0.0106105
0.0105681
0.0105232
0.0104762
0.0117305
0.0117147
0.0116932
0.0116666
0.011635
0.0115991
0.011559
0.0115153
0.0114683
0.0114183
0.0125819
0.0125689
0.0125498
0.0125249
0.0124945
0.012459
0.0124187
0.0123741
0.0123254
0.012273
0.0133698
0.0133599
0.0133434
0.0133206
0.0132917
0.0132571
0.013217
0.0131718
0.0131219
0.0130675
0.0141115
0.0141052
0.0140918
0.0140714
0.0140444
0.014011
0.0139716
0.0139263
0.0138755
0.0138195
0.0148193
0.014817
0.014807
0.0147897
0.0147651
0.0147335
0.0146951
0.0146502
0.014599
0.0145419
0.015502
0.0155042
0.0154984
0.0154846
0.0154631
0.0154338
0.0153971
0.0153532
0.0153022
0.0152444
0.0161668
0.0161743
0.0161733
0.0161638
0.016146
0.0161199
0.0160856
0.0160433
0.0159931
0.0159353
0.0168195
0.016833
0.0168377
0.0168334
0.0168202
0.0167981
0.0167671
0.0167272
0.0166787
0.0166216
0.017465
0.0174855
0.0174969
0.0174989
0.0174913
0.0174743
0.0174476
0.0174112
0.0173653
0.0173098
0.0181078
0.0181365
0.0181556
0.0181651
0.0181645
0.0181538
0.0181327
0.018101
0.0180588
0.018006
0.0187518
0.0187899
0.0188182
0.0188366
0.0188445
0.0188416
0.0188277
0.0188023
0.0187652
0.0187165
0.0194004
0.0194493
0.0194884
0.0195174
0.0195355
0.0195424
0.0195374
0.0195201
0.0194901
0.0194472
0.0200565
0.0201177
0.0201693
0.0202108
0.0202413
0.0202602
0.0202666
0.0202598
0.0202393
0.0202045
0.0207223
0.0207974
0.0208635
0.0209197
0.0209651
0.0209988
0.0210196
0.0210266
0.0210186
0.0209949
0.0213994
0.0214902
0.0215728
0.0216462
0.0217092
0.0217607
0.0217993
0.0218236
0.0218322
0.0218236
0.0220885
0.0221968
0.022298
0.022391
0.0224746
0.0225473
0.0226075
0.0226535
0.0226834
0.022695
0.0227899
0.0229173
0.0230391
0.0231543
0.0232615
0.0233591
0.0234452
0.0235179
0.0235746
0.0236128
0.0235034
0.0236512
0.0237955
0.0239351
0.0240688
0.0241948
0.0243111
0.0244153
0.0245047
0.0245759
0.0242283
0.0243975
0.0245656
0.0247316
0.0248943
0.0250518
0.025202
0.0253422
0.0254693
0.0255793
0.0249631
0.0251549
0.0253478
0.0255416
0.0257353
0.0259274
0.0261157
0.0262978
0.0264702
0.0266284
0.0257065
0.0259205
0.0261387
0.0263606
0.0265855
0.0268127
0.0270403
0.0272656
0.027485
0.0276935
0.0264588
0.0266928
0.0269343
0.0271827
0.0274369
0.0276958
0.0279585
0.0282221
0.0284828
0.0287354
0.027224
0.0274755
0.0277376
0.0280099
0.0282915
0.0285811
0.0288769
0.0291778
0.0294809
0.0297821
0.0280102
0.0282775
0.0285581
0.028852
0.0291589
0.0294775
0.0298066
0.0301443
0.0304895
0.0308401
0.0288307
0.0291136
0.0294121
0.0297268
0.0300575
0.0304039
0.0307647
0.0311385
0.0315234
0.0319183
0.0297043
0.0300041
0.0303222
0.0306591
0.031015
0.0313899
0.0317834
0.0321941
0.0326201
0.033059
0.0306548
0.0309752
0.0313166
0.0316798
0.0320654
0.0324739
0.0329054
0.0333593
0.0338345
0.0343285
0.0317108
0.0320569
0.032427
0.0328224
0.0332442
0.0336934
0.0341708
0.0346768
0.0352113
0.0357732
0.0329059
0.0332835
0.0336883
0.034122
0.0345862
0.0350827
0.0356129
0.0361778
0.0367781
0.0374137
0.0342812
0.0346962
0.0351411
0.0356181
0.0361295
0.0366772
0.037263
0.0378882
0.0385533
0.0392569
0.0358913
0.036349
0.0368385
0.0373621
0.0379222
0.038521
0.0391601
0.03984
0.0405593
0.0413122
0.037814
0.0383203
0.0388579
0.0394291
0.0400362
0.0406808
0.0413643
0.0420862
0.0428416
0.0436228
0.0401659
0.0407295
0.0413208
0.0419414
0.0425925
0.0432751
0.0439895
0.0447329
0.0455018
0.0462886
0.0431207
0.0437589
0.0444174
0.0450964
0.0457956
0.0465141
0.04725
0.0479982
0.048756
0.0495178
0.0469214
0.0476667
0.048422
0.049185
0.0499528
0.0507216
0.0514856
0.0522378
0.0529756
0.0536961
0.0518737
0.0527813
0.0536861
0.0545828
0.055464
0.0563212
0.0571432
0.0579181
0.0586406
0.0593079
0.0583013
0.0594525
0.0605865
0.0616931
0.062759
0.0637701
0.0647096
0.0655562
0.066302
0.0669459
0.0664492
0.0679503
0.0694155
0.0708266
0.0721636
0.0734085
0.0745408
0.0755286
0.076359
0.0770335
0.0763399
0.0783028
0.0802039
0.0820165
0.0837164
0.0852811
0.0866866
0.0879038
0.0889119
0.0897064
0.0876498
0.0901423
0.0925538
0.0948567
0.0970176
0.0990005
0.100777
0.102326
0.10362
0.104631
0.0997688
0.102827
0.105796
0.108643
0.111321
0.113792
0.116015
0.117951
0.119571
0.120833
0.111966
0.115616
0.119172
0.122576
0.12577
0.128703
0.131333
0.133632
0.135573
0.137097
0.123425
0.127644
0.13176
0.135698
0.139383
0.142752
0.145758
0.148374
0.150571
0.152303
0.133315
0.138034
0.142649
0.147059
0.151166
0.154895
0.158197
0.16105
0.163447
0.165373
0.141096
0.1462
0.151202
0.155964
0.160358
0.164294
0.167735
0.170692
0.173194
0.175264
0.146843
0.152137
0.157323
0.162222
0.166667
0.170549
0.17387
0.176702
0.17914
0.181237
0.151499
0.156659
0.161698
0.166384
0.170476
0.173871
0.176656
0.17902
0.181149
0.183126
0.156746
0.161389
0.165886
0.169877
0.172961
0.175206
0.176878
0.178323
0.179818
0.181513
0.16348
0.167076
0.170996
0.174176
0.175541
0.175768
0.175697
0.175798
0.176401
0.177671
0.170896
0.173065
0.175706
0.178094
0.178122
0.175981
0.173839
0.172494
0.172171
0.173009
0.175542
0.177043
0.17838
0.179922
0.179099
0.175231
0.171398
0.168896
0.167911
0.168538
0.177939
0.178291
0.178811
0.179593
0.178243
0.173491
0.168552
0.165316
0.164061
0.164838
0.182481
0.179796
0.178861
0.178967
0.17696
0.171505
0.165796
0.16215
0.160971
0.162253
0.189839
0.183795
0.180745
0.179689
0.176596
0.170013
0.163564
0.159705
0.15886
0.160945
0.198031
0.188885
0.183958
0.181689
0.176998
0.168887
0.161774
0.157938
0.157698
0.160872
0.203895
0.1926
0.186553
0.183242
0.176688
0.167245
0.1599
0.15651
0.157252
0.161856
0.205663
0.193458
0.187152
0.182849
0.174496
0.164492
0.157562
0.155142
0.157302
0.1637
0.202957
0.191211
0.185424
0.180098
0.170334
0.160664
0.154804
0.153821
0.157758
0.166232
0.196514
0.186548
0.181719
0.175493
0.165152
0.156371
0.151973
0.152708
0.158617
0.169292
0.187874
0.180596
0.17667
0.169463
0.159445
0.152034
0.149335
0.15193
0.159878
0.172765
0.178658
0.174464
0.170791
0.162594
0.153701
0.148035
0.147127
0.1516
0.161558
0.176589
0.17069
0.169254
0.165168
0.156629
0.148929
0.144871
0.145623
0.151848
0.163692
0.180748
0.165994
0.166142
0.160477
0.152149
0.145571
0.142799
0.144942
0.152721
0.166315
0.185296
0.164869
0.164695
0.157152
0.149066
0.143404
0.141645
0.144965
0.154162
0.169434
0.190311
0.16718
0.164146
0.155382
0.147388
0.142214
0.141177
0.14551
0.156051
0.172982
0.195768
0.171958
0.164421
0.154723
0.146605
0.141588
0.141079
0.146353
0.158236
0.176835
0.201512
0.176883
0.16601
0.154868
0.146126
0.141048
0.141016
0.147265
0.160543
0.180856
0.207433
0.180412
0.167121
0.154818
0.145464
0.140348
0.140839
0.148104
0.162796
0.184817
0.213293
0.184364
0.168441
0.154794
0.144755
0.13957
0.140559
0.148795
0.164815
0.188392
0.218545
0.189312
0.170635
0.155348
0.144382
0.138924
0.140243
0.149315
0.16655
0.191601
0.223423
0.1951
0.173778
0.156644
0.144482
0.138486
0.139911
0.149646
0.16796
0.194381
0.227822
0.20153
0.177728
0.158614
0.145005
0.138205
0.139518
0.149752
0.169001
0.196631
0.231535
0.208372
0.182238
0.161061
0.145788
0.137945
0.138974
0.149625
0.169768
0.198542
0.234822
0.215629
0.187244
0.163886
0.146701
0.137571
0.138192
0.149289
0.170446
0.20048
0.238209
0.223284
0.192765
0.167061
0.147654
0.136958
0.137078
0.148759
0.171223
0.202829
0.242272
0.231486
0.198945
0.170628
0.148585
0.135979
0.135513
0.148014
0.172231
0.205893
0.247533
0.240791
0.20608
0.174674
0.149431
0.134482
0.13334
0.146978
0.173504
0.209778
0.254047
0.251846
0.214421
0.179221
0.150068
0.13226
0.130354
0.145538
0.175047
0.214551
0.26181
0.265068
0.224051
0.184149
0.150258
0.129029
0.126309
0.143584
0.176919
0.220414
0.271087
0.281051
0.235059
0.189245
0.149677
0.124461
0.120936
0.140999
0.179197
0.227677
0.282399
0.300578
0.247558
0.194237
0.147968
0.118243
0.113964
0.137598
0.18182
0.236542
0.296387
0.324484
0.26154
0.1987
0.144734
0.110136
0.105167
0.133121
0.184548
0.247058
0.313473
0.353582
0.276612
0.201891
0.139529
0.10007
0.0944483
0.127201
0.186943
0.259563
0.336476
0.3884
0.291574
0.202588
0.131903
0.0882725
0.0819192
0.119147
0.187446
0.272252
0.364524
0.427573
0.303646
0.198964
0.121465
0.0753047
0.0680532
0.10832
0.184022
0.28213
0.395022
0.464371
0.307656
0.18877
0.108135
0.062049
0.0537658
0.0944959
0.174557
0.285004
0.42281
0.484195
0.296077
0.170477
0.0927114
0.0495976
0.0402989
0.0783172
0.157612
0.275516
0.438671
0.463041
0.263551
0.145793
0.077118
0.0388136
0.0287955
0.0615735
0.134002
0.248994
0.423256
0.37641
0.213374
0.119116
0.0628469
0.0297464
0.019692
0.0462551
0.107122
0.20693
0.363652
0.278463
0.166607
0.0961598
0.0505148
0.0219956
0.0128332
0.033765
0.0823057
0.16168
0.286089
0.212608
0.132674
0.0776559
0.0394015
0.015125
0.00787827
0.0241256
0.0625228
0.124179
0.218697
0.16719
0.106622
0.0613282
0.0286452
0.00917311
0.00456446
0.0165065
0.0470207
0.0955804
0.166039
0.132665
0.0844577
0.0454103
0.0180777
0.004698
0.00267182
0.0102766
0.0339887
0.0738538
0.126873
0.104431
0.0631952
0.0286321
0.00869264
0.00228224
0.00183733
0.00541649
0.0216312
0.0555725
0.0982819
0.0788699
0.0378926
0.0117034
0.00302026
0.00161647
0.00159573
0.00256926
0.00957179
0.034747
0.0759238
0.00285977
0.00284764
0.00283685
0.00282743
0.00281928
0.00281221
0.00280596
0.00280029
0.00279535
0.00279296
0.00279607
0.00279913
0.00280089
0.00280077
0.00279825
0.00279278
0.00278376
0.00277056
0.0027525
0.00272894
0.00269922
0.00266288
0.00261975
0.00256994
0.00251456
0.00245175
0.0023779
0.00229174
0.00219208
0.00207809
0.00194907
0.00180467
0.00164767
0.00149529
0.001338
0.00117285
0.000998846
0.000816714
0.000638282
0.000564472
0.00625486
0.00622218
0.00619146
0.0061629
0.00613653
0.00611224
0.00608976
0.00606873
0.00604865
0.0060289
0.00600896
0.00598806
0.00596545
0.0059403
0.00591173
0.00587881
0.00584049
0.00579566
0.0057431
0.00568151
0.00560954
0.00552577
0.00542872
0.00531687
0.00518862
0.00504202
0.0048748
0.00468812
0.00448103
0.00425304
0.00400441
0.00373531
0.00344555
0.00313323
0.00280624
0.00246654
0.00211606
0.00175851
0.00140347
0.00108725
0.00805133
0.00800829
0.007966
0.00792468
0.00788436
0.00784497
0.00780629
0.00776795
0.00772949
0.00769027
0.00765002
0.00760805
0.00756355
0.00751563
0.0074633
0.0074055
0.00734109
0.00726884
0.00718746
0.00709555
0.00699166
0.0068743
0.00674193
0.00659302
0.00642607
0.00623963
0.00603251
0.00580394
0.00555325
0.00527985
0.00498566
0.00467069
0.00433476
0.003977
0.00359996
0.00320354
0.00278645
0.0023445
0.00186716
0.00138758
0.00935265
0.00930207
0.00925103
0.00919973
0.00914823
0.00909649
0.0090443
0.00899134
0.00893718
0.00888123
0.00882299
0.00876212
0.00869779
0.00862907
0.00855496
0.00847437
0.00838617
0.00828915
0.00818205
0.00806355
0.00793231
0.00778698
0.00762621
0.00744872
0.00725327
0.00703878
0.00680429
0.00654907
0.00627254
0.0059743
0.0056542
0.005312
0.00494742
0.00456004
0.00415082
0.00371819
0.003257
0.00275138
0.00214894
0.00140487
0.0104244
0.0103677
0.0103094
0.0102497
0.0101886
0.0101262
0.0100622
0.0099964
0.00992824
0.00985721
0.00978262
0.00970435
0.00962156
0.00953334
0.0094387
0.00933659
0.00922592
0.00910556
0.00897435
0.00883112
0.00867473
0.00850406
0.00831807
0.00811578
0.00789632
0.00765893
0.00740293
0.00712765
0.00683239
0.0065162
0.00617784
0.00581575
0.00542846
0.00501529
0.00457629
0.00411015
0.00360868
0.00304688
0.00235013
0.00140144
0.0113626
0.0113006
0.0112359
0.0111688
0.0110993
0.0110273
0.0109527
0.0108751
0.0107941
0.0107092
0.0106195
0.0105248
0.0104246
0.0103178
0.0102036
0.010081
0.00994884
0.00980618
0.00965197
0.00948522
0.00930499
0.00911044
0.00890082
0.00867553
0.00843408
0.00817612
0.00790134
0.00760939
0.00729963
0.0069708
0.00662062
0.00624552
0.00584105
0.00540417
0.00493517
0.00443387
0.00389132
0.00327439
0.00249204
0.00139511
0.0122138
0.0121472
0.0120769
0.0120031
0.0119258
0.011845
0.0117606
0.0116721
0.0115791
0.0114811
0.0113773
0.011267
0.0111501
0.0110256
0.0108927
0.0107504
0.0105976
0.0104336
0.0102572
0.0100679
0.00986463
0.00964697
0.0094144
0.00916663
0.00890355
0.00862524
0.00833192
0.00802379
0.00770086
0.00736244
0.00700634
0.00662767
0.00621761
0.00576582
0.00527156
0.00474111
0.00416636
0.00350321
0.00264494
0.00140003
0.0130053
0.0129346
0.0128591
0.0127791
0.0126947
0.0126057
0.0125119
0.0124131
0.0123088
0.0121984
0.0120812
0.0119563
0.0118234
0.011682
0.0115311
0.0113699
0.0111974
0.0110128
0.0108153
0.0106041
0.0103786
0.0101383
0.00988298
0.00961253
0.00932707
0.00902695
0.00871278
0.00838531
0.0080454
0.00769364
0.00732977
0.0069511
0.00654926
0.00610522
0.00560799
0.0050681
0.00447513
0.00378492
0.00286971
0.00141123
0.0137548
0.0136804
0.0136002
0.0135145
0.0134234
0.0133266
0.0132241
0.0131156
0.0130005
0.0128782
0.0127482
0.0126096
0.0124616
0.012304
0.0121361
0.0119569
0.0117657
0.0115616
0.0113439
0.0111118
0.010865
0.0106029
0.0103253
0.0100322
0.00972371
0.00940021
0.00906231
0.00871087
0.00834695
0.00797186
0.00758708
0.00719413
0.0067933
0.00637474
0.00591201
0.00536366
0.00473608
0.00400739
0.00307017
0.00141375
0.0144751
0.0143975
0.0143131
0.0142221
0.0141247
0.0140207
0.0139099
0.013792
0.0136667
0.0135332
0.0133911
0.0132395
0.0130777
0.0129048
0.0127208
0.0125249
0.0123162
0.012094
0.0118576
0.0116064
0.0113399
0.0110576
0.0107593
0.010445
0.0101148
0.00976901
0.00940817
0.0090331
0.00864493
0.00824506
0.00783516
0.00741676
0.00698961
0.00654579
0.0060627
0.00551873
0.00487671
0.00409513
0.00306495
0.00142279
0.0151761
0.0150958
0.0150077
0.0149119
0.0148087
0.0146978
0.0145793
0.0144527
0.0143177
0.0141738
0.0140203
0.0138566
0.013682
0.0134955
0.0132968
0.0130856
0.0128612
0.0126229
0.01237
0.0121019
0.0118182
0.0115185
0.0112025
0.0108703
0.0105219
0.0101576
0.00977813
0.00938426
0.00897716
0.00855814
0.00812836
0.00768793
0.00723391
0.0067566
0.00623744
0.00565849
0.00499167
0.00421321
0.00319752
0.00142061
0.0158661
0.0157837
0.0156923
0.0155924
0.0154838
0.0153667
0.015241
0.0151063
0.0149625
0.0148089
0.0146451
0.0144705
0.0142843
0.014086
0.0138747
0.0136502
0.0134124
0.0131604
0.0128938
0.0126119
0.0123143
0.0120007
0.0116709
0.0113248
0.0109625
0.0105843
0.0101908
0.00978259
0.00936062
0.00892559
0.00847764
0.0080154
0.00753439
0.00702507
0.0064721
0.005857
0.0051562
0.00433092
0.00324974
0.00145739
0.0165522
0.0164683
0.0163745
0.0162709
0.0161578
0.0160351
0.0159029
0.015761
0.0156092
0.0154471
0.0152742
0.0150902
0.0148943
0.0146859
0.0144645
0.0142294
0.0139808
0.0137183
0.0134413
0.0131492
0.0128416
0.0125181
0.0121786
0.0118227
0.0114506
0.0110624
0.0106582
0.0102386
0.00980369
0.00935356
0.00888743
0.00840307
0.00789571
0.00735689
0.00677364
0.00612822
0.00539505
0.00452603
0.00339239
0.00155099
0.017241
0.0171566
0.0170611
0.0169546
0.0168376
0.0167102
0.0165724
0.0164243
0.0162657
0.0160965
0.0159162
0.0157246
0.015521
0.0153051
0.0150763
0.0148341
0.014578
0.0143085
0.0140249
0.0137265
0.013413
0.0130838
0.0127386
0.0123769
0.0119986
0.0116034
0.0111912
0.0107618
0.0103149
0.00984992
0.00936537
0.00885864
0.00832511
0.00775724
0.00714359
0.00646707
0.00570044
0.00479167
0.00360717
0.00167114
0.0179389
0.017855
0.0177587
0.0176504
0.0175305
0.0173992
0.0172569
0.0171038
0.0169399
0.0167652
0.0165795
0.0163826
0.016174
0.0159535
0.0157204
0.0154745
0.0152153
0.0149428
0.0146568
0.0143566
0.0140415
0.0137109
0.013364
0.0130003
0.012619
0.0122197
0.0118015
0.0113639
0.010906
0.0104265
0.00992371
0.00939472
0.00883497
0.00823712
0.00758981
0.00687528
0.00606393
0.0050991
0.00383763
0.00179906
0.0186524
0.0185703
0.0184744
0.0183653
0.0182435
0.0181096
0.017964
0.0178073
0.0176398
0.0174616
0.0172728
0.0170734
0.0168629
0.0166412
0.0164078
0.0161623
0.0159044
0.0156336
0.0153499
0.0150526
0.0147406
0.0144129
0.0140686
0.0137066
0.0133258
0.0129252
0.0125035
0.0120595
0.0115919
0.0110992
0.0105793
0.0100292
0.00944432
0.00881697
0.00813478
0.00737831
0.00651536
0.00548472
0.00413143
0.00196107
0.019388
0.0193094
0.0192154
0.0191067
0.0189841
0.0188487
0.0187012
0.0185425
0.0183733
0.018194
0.018005
0.0178062
0.0175975
0.0173786
0.0171492
0.0169088
0.016657
0.0163931
0.0161171
0.0158277
0.0155238
0.0152039
0.0148666
0.0145105
0.0141339
0.0137352
0.0133129
0.0128651
0.0123903
0.0118865
0.0113518
0.0107833
0.0101766
0.00952317
0.00880892
0.00801131
0.00709385
0.00598774
0.00452138
0.00217775
0.020152
0.0200788
0.0199883
0.0198815
0.0197595
0.0196239
0.0194761
0.0193174
0.0191488
0.0189712
0.018785
0.0185905
0.0183877
0.0181764
0.0179559
0.0177258
0.0174856
0.0172342
0.0169714
0.0166955
0.0164049
0.0160979
0.0157725
0.0154267
0.0150585
0.0146657
0.0142462
0.013798
0.0133191
0.0128075
0.0122611
0.011678
0.0110541
0.0103799
0.00963848
0.00880325
0.00783212
0.00664654
0.00504918
0.00246765
0.0209522
0.0208865
0.0208011
0.0206974
0.0205773
0.020443
0.0202967
0.0201401
0.0199749
0.0198021
0.0196224
0.0194364
0.0192442
0.0190453
0.0188392
0.0186251
0.0184021
0.0181693
0.0179254
0.0176687
0.0173971
0.0171083
0.0167998
0.0164692
0.0161138
0.0157311
0.0153185
0.0148739
0.0143949
0.0138794
0.0133254
0.0127316
0.012095
0.0114042
0.0106377
0.00976544
0.00874205
0.00748091
0.0057561
0.0028363
0.0217948
0.0217402
0.0216624
0.0215632
0.0214459
0.0213142
0.0211712
0.0210193
0.0208605
0.0206962
0.0205273
0.0203543
0.0201774
0.0199962
0.0198099
0.0196175
0.0194177
0.0192092
0.0189904
0.0187588
0.0185117
0.0182465
0.0179601
0.0176495
0.0173118
0.0169438
0.0165426
0.0161058
0.0156312
0.0151166
0.0145597
0.0139593
0.0133137
0.0126078
0.0118145
0.0109008
0.00981661
0.00846277
0.00657171
0.00326638
0.0226852
0.0226466
0.0225789
0.0224854
0.0223724
0.0222453
0.0221082
0.0219643
0.0218156
0.0216638
0.0215099
0.0213546
0.021198
0.0210395
0.0208784
0.0207133
0.0205425
0.0203641
0.020176
0.0199749
0.0197576
0.019521
0.0192616
0.0189761
0.018661
0.018313
0.0179285
0.0175044
0.0170387
0.0165296
0.0159752
0.0153737
0.0147211
0.0139999
0.0131801
0.0122236
0.0110731
0.00960986
0.00751489
0.00376611
0.0236299
0.0236133
0.0235582
0.0234718
0.0233654
0.0232459
0.0231183
0.0229861
0.0228516
0.0227164
0.0225818
0.0224484
0.0223162
0.0221849
0.0220537
0.021921
0.0217844
0.0216415
0.0214888
0.0213227
0.0211397
0.0209361
0.0207081
0.0204523
0.020165
0.0198426
0.019481
0.0190761
0.0186251
0.0181269
0.0175794
0.0169797
0.0163208
0.0155848
0.014739
0.0137403
0.0125231
0.0109517
0.00865798
0.00435568
0.0246276
0.0246421
0.024606
0.0245313
0.0244362
0.0243289
0.024215
0.0240984
0.0239819
0.0238671
0.0237552
0.0236468
0.0235422
0.0234413
0.0233433
0.0232467
0.0231481
0.0230443
0.0229306
0.0228031
0.0226578
0.0224908
0.0222981
0.0220759
0.0218205
0.0215286
0.0211957
0.0208165
0.0203865
0.0199041
0.0193669
0.0187702
0.018105
0.0173517
0.0164769
0.0154335
0.0141461
0.0124606
0.00995504
0.00501233
0.0256726
0.0257293
0.0257204
0.0256663
0.0255893
0.0255015
0.0254084
0.0253136
0.0252196
0.0251285
0.0250417
0.0249603
0.0248848
0.0248153
0.0247519
0.0246929
0.0246339
0.0245705
0.0244972
0.0244101
0.024305
0.0241778
0.024024
0.0238393
0.0236197
0.0233623
0.0230634
0.0227165
0.0223135
0.0218515
0.0213265
0.0207323
0.0200583
0.0192829
0.0183719
0.0172732
0.0158996
0.014074
0.0113113
0.00571244
0.0267747
0.0268896
0.0269301
0.0268948
0.0268367
0.0267765
0.0267132
0.0266462
0.0265781
0.026512
0.0264506
0.0263957
0.0263486
0.0263101
0.0262805
0.0262576
0.0262359
0.0262105
0.0261761
0.0261294
0.026066
0.0259815
0.0258706
0.0257282
0.0255485
0.025329
0.0250687
0.0247593
0.0243889
0.0239513
0.0234408
0.0228494
0.022165
0.0213644
0.0204106
0.0192452
0.0177692
0.0157817
0.0127325
0.00642542
0.0278962
0.0280744
0.0281907
0.0282116
0.0281967
0.0281798
0.0281528
0.0281157
0.0280718
0.0280274
0.0279877
0.0279557
0.0279332
0.027922
0.0279219
0.0279297
0.0279404
0.0279469
0.0279466
0.0279371
0.0279142
0.0278733
0.0278086
0.0277138
0.0275813
0.0274064
0.0271881
0.0269191
0.0265855
0.0261773
0.0256868
0.0251028
0.0244099
0.023583
0.0225812
0.0213394
0.0197466
0.0175776
0.0142155
0.00714878
0.0289882
0.0292264
0.0294234
0.0295464
0.0295903
0.0296323
0.029669
0.0296804
0.0296723
0.0296557
0.0296398
0.0296291
0.0296267
0.029635
0.0296548
0.0296836
0.0297175
0.0297495
0.0297778
0.0298015
0.0298175
0.0298209
0.0298054
0.0297632
0.0296852
0.0295641
0.029396
0.0291738
0.0288843
0.0285131
0.0280488
0.027478
0.0267809
0.0259286
0.0248755
0.0235498
0.0218278
0.0194598
0.0157601
0.00788322
0.0300945
0.0304074
0.0306916
0.0309275
0.0310847
0.0311686
0.0312516
0.0313104
0.0313447
0.0313668
0.0313825
0.031394
0.0314049
0.0314212
0.0314477
0.031486
0.0315305
0.0315789
0.0316305
0.0316848
0.0317396
0.0317898
0.0318278
0.0318437
0.0318272
0.0317696
0.0316634
0.0314988
0.0312621
0.0309371
0.0305085
0.0299591
0.0292648
0.0283909
0.0272862
0.0258713
0.0240099
0.0214274
0.0173672
0.00863178
0.0312141
0.0316048
0.0319806
0.0323257
0.0326154
0.0327947
0.0328907
0.0330215
0.0331137
0.0331786
0.0332246
0.0332486
0.0332541
0.0332557
0.0332666
0.0332928
0.0333324
0.0333873
0.0334585
0.0335438
0.0336399
0.0337404
0.0338359
0.0339151
0.0339679
0.033984
0.0339514
0.0338573
0.0336866
0.0334211
0.0330412
0.0325244
0.0318415
0.0309521
0.0297983
0.028292
0.0262837
0.0234731
0.0190314
0.00939075
0.0323459
0.032802
0.0332527
0.0336854
0.0340845
0.0344001
0.0345336
0.0347736
0.0350301
0.0351503
0.0352003
0.0351989
0.0351569
0.0351032
0.0350667
0.0350559
0.0350771
0.0351326
0.0352214
0.0353392
0.0354792
0.035633
0.03579
0.0359394
0.0360716
0.036174
0.0362309
0.0362254
0.0361387
0.0359491
0.0356326
0.0351615
0.0345005
0.033603
0.0324038
0.0308053
0.0286444
0.0255942
0.020751
0.01016
0.0335371
0.034052
0.0345666
0.0350685
0.0355456
0.0359613
0.0362146
0.0364973
0.0369115
0.0371934
0.0372761
0.0371906
0.0370293
0.036878
0.0367687
0.0367134
0.0367165
0.0367762
0.0368871
0.0370419
0.0372314
0.0374443
0.0376713
0.037904
0.038132
0.0383392
0.0385048
0.0386068
0.0386219
0.0385245
0.0382862
0.0378739
0.037246
0.0363484
0.0351075
0.0334167
0.031099
0.0277996
0.0225364
0.0109491
0.0348702
0.0354609
0.0360587
0.036648
0.0372116
0.0377066
0.0380537
0.0384199
0.0388892
0.0392622
0.0393374
0.0390734
0.0387368
0.0384762
0.0383044
0.0382216
0.0382236
0.0383026
0.0384492
0.0386532
0.038904
0.0391898
0.0395006
0.0398312
0.0401719
0.0405014
0.0407935
0.0410209
0.0411549
0.0411654
0.0410197
0.040679
0.0400952
0.0392051
0.0379253
0.036141
0.0336662
0.0301172
0.0244273
0.0118219
0.0363963
0.037081
0.0377812
0.0384751
0.039138
0.0397037
0.0401461
0.0406649
0.0412095
0.0414579
0.0411784
0.0406473
0.0401954
0.0398743
0.0396782
0.0395981
0.0396232
0.0397415
0.039941
0.0402095
0.0405349
0.0409042
0.0413069
0.0417471
0.0422135
0.0426791
0.0431132
0.0434828
0.0437527
0.0438872
0.0438485
0.0435923
0.0430626
0.042186
0.0408709
0.0389877
0.0363358
0.0325089
0.0263711
0.0128292
0.0381232
0.0389072
0.0397103
0.0405067
0.0412448
0.0418197
0.0423793
0.0430081
0.0433441
0.0430685
0.0424483
0.041869
0.0414215
0.0411158
0.0409465
0.0409048
0.0409797
0.0411587
0.0414283
0.0417733
0.0421776
0.0426231
0.0431139
0.0436722
0.0442699
0.0448796
0.0454676
0.045995
0.0464181
0.0466929
0.046776
0.0466145
0.0461418
0.0452746
0.0438953
0.0418868
0.0390449
0.0349368
0.0283505
0.0139109
0.0400409
0.0409029
0.0417807
0.0426318
0.0433129
0.0438488
0.0444354
0.0447523
0.0444981
0.04395
0.0433886
0.0429084
0.0425442
0.0423092
0.0422059
0.0422311
0.0423772
0.0426329
0.0429825
0.0434044
0.0438704
0.0443638
0.0449439
0.0456139
0.0463435
0.0471031
0.0478547
0.0485527
0.0491444
0.049576
0.0497934
0.0497348
0.0493219
0.0484343
0.0469786
0.0448464
0.041815
0.037425
0.0303907
0.0150575
0.0421378
0.0430206
0.0438934
0.0446745
0.0452034
0.0456198
0.0458215
0.0456163
0.045218
0.0447728
0.0443509
0.0439967
0.0437394
0.0435957
0.043574
0.0436756
0.0438962
0.0442247
0.0446423
0.0451181
0.0456053
0.0461453
0.0468126
0.0475883
0.0484484
0.0493618
0.0502858
0.0511674
0.0519438
0.0525482
0.0529104
0.0529545
0.0525826
0.0516768
0.0501446
0.0478733
0.0446346
0.0399482
0.0324564
0.0162413
0.04446
0.045316
0.0460954
0.0466861
0.0469885
0.0470699
0.0469066
0.0466141
0.0462672
0.0459141
0.0455952
0.0453418
0.0451771
0.0451163
0.0451689
0.0453389
0.0456248
0.0460175
0.0464953
0.0470018
0.0474553
0.0480328
0.0487699
0.0496432
0.0506302
0.0516988
0.052803
0.0538807
0.0548567
0.0556477
0.0561653
0.0563174
0.0559802
0.0550469
0.0534215
0.0509829
0.0475004
0.042478
0.0344975
0.0174222
0.0471271
0.0479828
0.0486962
0.0490354
0.0489964
0.0487937
0.0485293
0.0482276
0.0479028
0.0475886
0.0473199
0.0471229
0.047015
0.0470079
0.0471101
0.0473265
0.0476581
0.0480982
0.0486092
0.0490655
0.049484
0.0500886
0.0508797
0.0518397
0.0529481
0.0541735
0.0554658
0.0567523
0.057942
0.0589337
0.0596218
0.0598849
0.0595878
0.0586158
0.0568667
0.0542199
0.0504384
0.0450049
0.0364738
0.0185326
0.050323
0.0511606
0.0518869
0.0521679
0.0519384
0.0515233
0.0511243
0.0507432
0.0503695
0.0500238
0.0497368
0.0495331
0.0494254
0.0494215
0.0495283
0.049751
0.0500914
0.0505453
0.0510611
0.0514451
0.0518056
0.0524006
0.0532211
0.0542494
0.0554688
0.05685
0.0583385
0.0598473
0.0612647
0.0624725
0.0633488
0.0637275
0.0634631
0.0624229
0.060495
0.0575691
0.0534365
0.0475755
0.0384771
0.0196815
0.0544395
0.0552051
0.0559279
0.0563241
0.0560665
0.0554939
0.0549345
0.0544221
0.0539396
0.0534902
0.053102
0.0528042
0.0526117
0.0525318
0.0525703
0.0527314
0.0530167
0.0534243
0.0539024
0.0542385
0.054519
0.0550628
0.055881
0.0569506
0.0582614
0.0597906
0.0614838
0.0632342
0.0649008
0.0663525
0.0674333
0.0679488
0.067715
0.0665681
0.0643887
0.061085
0.0564781
0.0500787
0.0403458
0.0207518
0.0599569
0.0605732
0.0611372
0.0615929
0.0616513
0.0611674
0.0604066
0.0596467
0.0589508
0.0583069
0.0577188
0.0572109
0.0568143
0.0565448
0.0564098
0.056411
0.0565465
0.0568142
0.0571786
0.0574801
0.0576923
0.0581365
0.0589218
0.0600041
0.0613815
0.0630455
0.0649488
0.0669655
0.0689163
0.0706546
0.0719908
0.0726953
0.0725098
0.0712105
0.0686684
0.0648334
0.0595902
0.0525015
0.0420346
0.0216676
0.0675252
0.0680165
0.068396
0.0686715
0.0687802
0.068528
0.0677642
0.0667366
0.0657187
0.0647504
0.06384
0.0630116
0.0622966
0.0617157
0.0612846
0.0610104
0.0608901
0.0609162
0.061068
0.0612717
0.0614274
0.0617252
0.0624053
0.0634666
0.0648827
0.0666647
0.0687687
0.0710549
0.0733294
0.0754026
0.0770745
0.0780619
0.0779791
0.0764775
0.0734233
0.0688649
0.0628004
0.054854
0.0435409
0.0224353
0.0775896
0.077988
0.0781979
0.0782188
0.0780383
0.0776316
0.0769418
0.0758811
0.0745512
0.0731258
0.0717334
0.0704526
0.0693056
0.0683
0.0674515
0.0667766
0.0662791
0.0659544
0.0657866
0.0657475
0.0657894
0.0659369
0.0664239
0.0673817
0.0687912
0.0706614
0.0729518
0.0755124
0.078118
0.0805839
0.0826765
0.0840779
0.0842248
0.0825113
0.0787847
0.0733023
0.0661975
0.0571902
0.0449299
0.0230778
0.090315
0.0906629
0.0907157
0.0904854
0.0899749
0.0891927
0.0881676
0.0868957
0.0853382
0.0835269
0.0816094
0.0797567
0.0780483
0.0765001
0.0751179
0.0739233
0.0729308
0.0721432
0.0715566
0.0711561
0.070932
0.0708812
0.0711393
0.0718873
0.0732049
0.0750816
0.0774665
0.0802163
0.0831499
0.0860355
0.0886194
0.0905531
0.0911441
0.0893121
0.0848022
0.0782807
0.0699967
0.0598076
0.046478
0.0237096
0.105368
0.105722
0.105645
0.105165
0.104331
0.103165
0.101686
0.099938
0.0979564
0.0957614
0.0933931
0.0909719
0.0886223
0.0864227
0.0843997
0.0825689
0.080959
0.0795892
0.0784689
0.0775997
0.0769779
0.0766259
0.0766357
0.0771173
0.0782039
0.0799516
0.0823177
0.0852019
0.0884451
0.0917627
0.0948545
0.0973289
0.0983223
0.0963282
0.0912147