/*--------------------------------*- C++ -*----------------------------------*\
  =========                 |
  \\      /  F ield         | OpenFOAM: The Open Source CFD Toolbox
   \\    /   O peration     | Website:  https://openfoam.org
    \\  /    A nd           | Version:  8
     \\/     M anipulation  |
\*---------------------------------------------------------------------------*/
FoamFile
{
    version     2.0;
    format      ascii;
    class       surfaceScalarField;
    location    "2.75";
    object      phi;
}
// * * * * * * * * * * * * * * * * * * * * * * * * * * * * * * * * * * * * * //

dimensions      [0 3 -1 0 0 0 0];

internalField   nonuniform List<scalar> 
18095
(
1.57926e-07
-9.65906e-07
8.0798e-07
1.65096e-07
-1.24811e-06
1.24093e-06
1.22054e-07
-1.24219e-06
1.28523e-06
6.52496e-08
-1.26342e-06
1.32023e-06
-2.49955e-11
-1.2804e-06
1.34568e-06
-6.52952e-08
-1.2804e-06
1.34567e-06
-1.22089e-07
-1.26341e-06
1.32021e-06
-1.65119e-07
-1.24218e-06
1.28521e-06
-1.57935e-07
-1.2481e-06
1.24091e-06
-9.65877e-07
8.07942e-07
1.10926e-07
-1.07683e-06
9.92806e-08
-1.23646e-06
7.27722e-08
-1.21568e-06
3.99893e-08
-1.23064e-06
-1.59616e-11
-1.2404e-06
-4.00188e-08
-1.2404e-06
-7.27958e-08
-1.23064e-06
-9.92991e-08
-1.21568e-06
-1.10937e-07
-1.23646e-06
-1.07681e-06
6.70662e-08
-1.1439e-06
5.26703e-08
-1.22206e-06
4.2065e-08
-1.20508e-06
2.38212e-08
-1.2124e-06
-9.41642e-12
-1.21657e-06
-2.38388e-08
-1.21657e-06
-4.20792e-08
-1.2124e-06
-5.26816e-08
-1.20508e-06
-6.70756e-08
-1.22206e-06
-1.14389e-06
3.95819e-08
-1.18348e-06
2.65872e-08
-1.20907e-06
2.19713e-08
-1.20046e-06
1.25001e-08
-1.20293e-06
-4.75178e-12
-1.20406e-06
-1.25091e-08
-1.20406e-06
-2.19787e-08
-1.20293e-06
-2.65929e-08
-1.20046e-06
-3.95878e-08
-1.20907e-06
-1.18348e-06
1.65205e-08
7.45143e-09
6.98861e-09
4.06222e-09
-1.28553e-12
-4.06467e-09
-6.9906e-09
-7.45281e-09
-1.65227e-08
-1.74489e-07
-1.16479e-06
1.33928e-06
-2.18253e-07
-1.21626e-06
1.26003e-06
-1.64938e-07
-1.21268e-06
1.15936e-06
-8.73905e-08
-1.20408e-06
1.12654e-06
-2.88495e-10
-1.2026e-06
1.1155e-06
8.68209e-08
-1.20256e-06
1.11545e-06
1.64427e-07
-1.20397e-06
1.12636e-06
2.17788e-07
-1.21251e-06
1.15915e-06
1.7404e-07
-1.21603e-06
1.25977e-06
-1.16451e-06
1.33855e-06
-9.34906e-08
-1.0713e-06
-9.59876e-08
-1.21377e-06
-7.94138e-08
-1.22925e-06
-4.437e-08
-1.23913e-06
-1.65009e-10
-1.24681e-06
4.40531e-08
-1.24678e-06
7.91302e-08
-1.23905e-06
9.57513e-08
-1.22914e-06
9.33542e-08
-1.21363e-06
-1.07115e-06
-5.79668e-08
-1.01333e-06
-5.52532e-08
-1.21648e-06
-4.6588e-08
-1.23792e-06
-2.72032e-08
-1.25851e-06
-9.95624e-11
-1.27391e-06
2.70133e-08
-1.27389e-06
4.64246e-08
-1.25846e-06
5.51328e-08
-1.23784e-06
5.79078e-08
-1.2164e-06
-1.01324e-06
-7.45485e-08
-9.38786e-07
-6.17517e-08
-1.22928e-06
-4.85337e-08
-1.25113e-06
-2.77993e-08
-1.27925e-06
-6.1363e-11
-1.30165e-06
2.76832e-08
-1.30164e-06
4.84368e-08
-1.27921e-06
6.16858e-08
-1.25109e-06
7.4518e-08
-1.22924e-06
-9.38726e-07
-1.30806e-07
-1.19149e-07
-8.5048e-08
-4.40667e-08
-3.89893e-11
4.39934e-08
8.4988e-08
1.19108e-07
1.30785e-07
-6.13301e-08
-9.45862e-07
1.00719e-06
-4.26885e-09
-1.34093e-06
1.28387e-06
6.70996e-09
-1.27127e-06
1.26029e-06
1.20205e-09
-1.22449e-06
1.23e-06
-2.56268e-09
-1.22265e-06
1.22641e-06
-6.45037e-09
-1.22218e-06
1.22607e-06
-1.15461e-08
-1.22447e-06
1.22956e-06
-2.08647e-09
-1.27184e-06
1.26238e-06
5.36332e-08
-1.33985e-06
1.28413e-06
-9.36457e-07
9.9009e-07
6.40131e-09
-9.52264e-07
1.35576e-08
-1.34809e-06
9.37736e-09
-1.26709e-06
3.68256e-09
-1.2188e-06
-1.94807e-09
-1.21701e-06
-7.46788e-09
-1.21666e-06
-1.29587e-08
-1.21898e-06
-1.80316e-08
-1.26677e-06
-1.04374e-08
-1.34745e-06
-9.46894e-07
2.57483e-08
-9.78012e-07
1.70516e-08
-1.33939e-06
9.21529e-09
-1.25925e-06
4.94931e-09
-1.21453e-06
-1.3152e-09
-1.21075e-06
-7.35777e-09
-1.21062e-06
-1.18193e-08
-1.21452e-06
-1.94954e-08
-1.25909e-06
-2.79685e-08
-1.33897e-06
-9.74863e-07
7.6963e-08
-1.05497e-06
4.95237e-08
-1.31195e-06
3.13379e-08
-1.24107e-06
1.98023e-08
-1.203e-06
-7.57497e-10
-1.19019e-06
-2.12381e-08
-1.19014e-06
-3.29854e-08
-1.20277e-06
-5.13526e-08
-1.24072e-06
-7.85386e-08
-1.31179e-06
-1.0534e-06
2.84307e-07
2.32383e-07
1.50677e-07
7.42181e-08
-4.69853e-10
-7.51578e-08
-1.51561e-07
-2.33132e-07
-2.85145e-07
-2.68033e-08
7.96018e-10
2.60073e-08
-2.77331e-08
9.29387e-10
-2.87911e-08
1.05798e-09
-2.99722e-08
1.18115e-09
-3.12687e-08
1.29653e-09
-3.26681e-08
1.39956e-09
-3.41549e-08
1.48693e-09
-3.57127e-08
1.55796e-09
-3.73218e-08
1.60932e-09
1.63762e-09
-3.89593e-08
-2.9454e-08
1.6834e-09
2.85665e-08
-3.04384e-08
1.9135e-09
-3.15161e-08
2.13557e-09
-3.26801e-08
2.3451e-09
-3.39208e-08
2.53722e-09
-3.52278e-08
2.70654e-09
-3.65889e-08
2.84807e-09
-3.79875e-08
2.95664e-09
-3.94059e-08
3.02772e-09
3.05759e-09
-4.08257e-08
-2.99481e-08
2.57227e-09
2.90592e-08
-3.09141e-08
2.87931e-09
-3.19525e-08
3.17398e-09
-3.30576e-08
3.45024e-09
-3.42219e-08
3.70147e-09
-3.54362e-08
3.92083e-09
-3.669e-08
4.10185e-09
-3.79711e-08
4.23772e-09
-3.92659e-08
4.32248e-09
4.35071e-09
-4.0559e-08
-2.97162e-08
3.45675e-09
2.88316e-08
-3.0667e-08
3.82987e-09
-3.16802e-08
4.18707e-09
-3.2751e-08
4.52092e-09
-3.38733e-08
4.82358e-09
-3.50398e-08
5.08704e-09
-3.62413e-08
5.30331e-09
-3.74683e-08
5.46464e-09
-3.87096e-08
5.56382e-09
5.59435e-09
-3.99532e-08
-2.90206e-08
4.33776e-09
2.81395e-08
-2.99631e-08
4.77241e-09
-3.09645e-08
5.18845e-09
-3.2021e-08
5.57732e-09
-3.31278e-08
5.93015e-09
-3.42787e-08
6.23778e-09
-3.54665e-08
6.49111e-09
-3.66833e-08
6.68144e-09
-3.79199e-08
6.80043e-09
6.84065e-09
-3.91661e-08
-2.7967e-08
5.21535e-09
2.70894e-08
-2.89061e-08
5.71161e-09
-2.99053e-08
6.18758e-09
-3.09618e-08
6.63375e-09
-3.20718e-08
7.04012e-09
-3.32306e-08
7.39657e-09
-3.44324e-08
7.69301e-09
-3.56705e-08
7.91966e-09
-3.69372e-08
8.06726e-09
8.12738e-09
-3.82238e-08
-2.66109e-08
6.08741e-09
2.57389e-08
-2.75481e-08
6.64891e-09
-2.85501e-08
7.18956e-09
-2.96152e-08
7.69883e-09
-3.07408e-08
8.16576e-09
-3.19233e-08
8.57916e-09
-3.31581e-08
8.92795e-09
-3.44396e-08
9.20127e-09
-3.57611e-08
9.38884e-09
9.48126e-09
-3.71149e-08
-2.49852e-08
6.9485e-09
2.41242e-08
-2.59178e-08
7.5816e-09
-2.69227e-08
8.19448e-09
-2.79995e-08
8.77562e-09
-2.91466e-08
9.313e-09
-3.03617e-08
9.79434e-09
-3.16411e-08
1.02074e-08
-3.298e-08
1.05402e-08
-3.43725e-08
1.07813e-08
1.09202e-08
-3.58114e-08
-2.31118e-08
7.78919e-09
2.22712e-08
-2.40325e-08
8.50233e-09
-2.50352e-08
9.19725e-09
-2.61209e-08
9.86139e-09
-2.72894e-08
1.04816e-08
-2.85394e-08
1.10443e-08
-2.98681e-08
1.15361e-08
-3.12713e-08
1.19434e-08
-3.27437e-08
1.22537e-08
1.24548e-08
-3.42783e-08
-2.10079e-08
8.59539e-09
2.02017e-08
-2.1904e-08
9.39855e-09
-2.28938e-08
1.01871e-08
-2.39799e-08
1.09475e-08
-2.51635e-08
1.16651e-08
-2.64443e-08
1.23251e-08
-2.78206e-08
1.29123e-08
-2.92887e-08
1.34115e-08
-3.08435e-08
1.38085e-08
1.40892e-08
-3.24779e-08
-1.86896e-08
9.34787e-09
1.79372e-08
-1.95432e-08
1.02521e-08
-2.05035e-08
1.11474e-08
-2.1575e-08
1.2019e-08
-2.27607e-08
1.28509e-08
-2.40623e-08
1.36266e-08
-2.54783e-08
1.43283e-08
-2.70063e-08
1.49395e-08
-2.86404e-08
1.54427e-08
1.5822e-08
-3.03732e-08
-1.61761e-08
1.0022e-08
1.5502e-08
-1.69633e-08
1.10391e-08
-1.78712e-08
1.20553e-08
-1.89065e-08
1.30543e-08
-2.00746e-08
1.4019e-08
-2.13789e-08
1.4931e-08
-2.28219e-08
1.57714e-08
-2.43992e-08
1.65168e-08
-2.61057e-08
1.71493e-08
1.76492e-08
-2.79327e-08
-1.34925e-08
1.05879e-08
1.29265e-08
-1.41835e-08
1.17299e-08
-1.50099e-08
1.28817e-08
-1.59812e-08
1.40258e-08
-1.71054e-08
1.51433e-08
-1.83885e-08
1.62142e-08
-1.98346e-08
1.72176e-08
-2.14469e-08
1.81292e-08
-2.32143e-08
1.89168e-08
1.95625e-08
-2.51275e-08
-1.06715e-08
1.10104e-08
1.02489e-08
-1.12308e-08
1.22893e-08
-1.19411e-08
1.3592e-08
-1.28149e-08
1.48996e-08
-1.38633e-08
1.61917e-08
-1.50954e-08
1.74463e-08
-1.65176e-08
1.86398e-08
-1.81378e-08
1.97494e-08
-1.9953e-08
2.0732e-08
2.1552e-08
-2.19425e-08
-7.75395e-09
1.12487e-08
7.51558e-09
-8.14049e-09
1.26762e-08
-8.69364e-09
1.41452e-08
-9.42989e-09
1.56359e-08
-1.03641e-08
1.71259e-08
-1.15091e-08
1.85911e-08
-1.28748e-08
2.00055e-08
-1.44653e-08
2.13397e-08
-1.63068e-08
2.25735e-08
2.36069e-08
-1.83617e-08
-4.79043e-09
1.12557e-08
4.78352e-09
-4.95562e-09
1.28416e-08
-5.30234e-09
1.44919e-08
-5.85202e-09
1.61855e-08
-6.62447e-09
1.78983e-08
-7.63688e-09
1.96035e-08
-8.90332e-09
2.12719e-08
-1.04349e-08
2.28714e-08
-1.22268e-08
2.43655e-08
2.57155e-08
-1.43354e-08
-1.84234e-09
1.09764e-08
2.12175e-09
-1.72658e-09
1.27259e-08
-1.80222e-09
1.45674e-08
-2.09576e-09
1.64789e-08
-2.63153e-09
1.8434e-08
-3.43025e-09
2.04022e-08
-4.50764e-09
2.23493e-08
-5.87412e-09
2.4238e-08
-7.53835e-09
2.60298e-08
2.76684e-08
-9.49115e-09
9.97786e-10
1.03537e-08
-3.7511e-10
1.45747e-09
1.2266e-08
1.72071e-09
1.43042e-08
1.75346e-09
1.64462e-08
1.52227e-09
1.86653e-08
9.95328e-10
2.09293e-08
1.43903e-10
2.32009e-08
-1.05553e-09
2.54375e-08
-2.61575e-09
2.75901e-08
2.96641e-08
-4.61137e-09
3.59717e-09
9.33566e-09
-2.57916e-09
4.46104e-09
1.1402e-08
5.13112e-09
1.36342e-08
5.56476e-09
1.60127e-08
5.71709e-09
1.85132e-08
5.54142e-09
2.11052e-08
4.99052e-09
2.3752e-08
4.01902e-09
2.64091e-08
2.58362e-09
2.90255e-08
3.15315e-08
7.16101e-10
5.81004e-09
7.87489e-09
-4.34932e-09
7.13942e-09
1.00727e-08
8.2944e-09
1.24794e-08
9.22828e-09
1.50791e-08
9.89061e-09
1.7851e-08
1.02273e-08
2.07686e-08
1.01811e-08
2.37983e-08
9.69258e-09
2.68976e-08
8.70781e-09
3.00102e-08
3.30538e-08
7.18545e-09
7.43288e-09
5.94936e-09
-5.50731e-09
9.25955e-09
8.24641e-09
1.09421e-08
1.0797e-08
1.24309e-08
1.35905e-08
1.36699e-08
1.66121e-08
1.45965e-08
1.98421e-08
1.51396e-08
2.32552e-08
1.52187e-08
2.68185e-08
1.47388e-08
3.04901e-08
3.42218e-08
1.35708e-08
8.28018e-09
3.55913e-09
-5.88981e-09
1.06129e-08
5.91401e-09
1.28432e-08
8.5669e-09
1.49208e-08
1.1513e-08
1.67887e-08
1.47444e-08
1.83815e-08
1.82494e-08
1.96235e-08
2.20133e-08
2.04243e-08
2.60178e-08
2.06728e-08
3.02416e-08
3.46565e-08
2.02382e-08
8.18339e-09
7.28989e-10
-5.35314e-09
1.1002e-08
3.09565e-09
1.3765e-08
5.80399e-09
1.64227e-08
8.85547e-09
1.89179e-08
1.22492e-08
2.11851e-08
1.59824e-08
2.31481e-08
2.00504e-08
2.47176e-08
2.44485e-08
2.57859e-08
2.91735e-08
3.42258e-08
2.62167e-08
7.04922e-09
-2.50651e-09
-3.81365e-09
1.03242e-08
-1.7912e-10
1.35966e-08
2.5317e-09
1.68184e-08
5.63377e-09
1.99345e-08
9.13337e-09
2.28815e-08
1.30355e-08
2.55884e-08
1.73437e-08
2.79762e-08
2.20608e-08
2.99571e-08
2.71927e-08
3.2753e-08
3.14301e-08
4.81054e-09
-6.09975e-09
-1.21723e-09
8.49459e-09
-3.86283e-09
1.22277e-08
-1.2013e-09
1.59608e-08
1.90082e-09
1.96339e-08
5.46035e-09
2.31741e-08
9.4954e-09
2.64916e-08
1.40262e-08
2.94766e-08
1.90759e-08
3.19982e-08
2.46711e-08
3.08455e-08
3.39057e-08
1.53144e-09
-1.00249e-08
2.39379e-09
5.61531e-09
-7.94626e-09
9.82882e-09
-5.4147e-09
1.414e-08
-2.41033e-09
1.85126e-08
1.08773e-09
2.2907e-08
5.10104e-09
2.72818e-08
9.65138e-09
3.15982e-08
1.47594e-08
3.5826e-08
2.04433e-08
2.6717e-08
3.99544e-08
-2.86291e-09
-1.42018e-08
7.03994e-09
1.52541e-09
-1.23341e-08
6.10438e-09
-9.99362e-09
1.08514e-08
-7.15741e-09
1.57398e-08
-3.80069e-09
2.07378e-08
1.02863e-10
2.58082e-08
4.58092e-09
3.09057e-08
9.66178e-09
3.59754e-08
1.53736e-08
2.17437e-08
4.09487e-08
-8.25304e-09
-1.85419e-08
1.25933e-08
-3.66735e-09
-1.69194e-08
1.15039e-09
-1.48114e-08
6.18531e-09
-1.21924e-08
1.14183e-08
-9.03378e-09
1.68243e-08
-5.30327e-09
2.23699e-08
-9.64753e-10
2.80094e-08
4.02223e-09
3.368e-08
9.70293e-09
1.61289e-08
3.92949e-08
-1.44095e-08
-2.29553e-08
1.88231e-08
-9.7386e-09
-2.159e-08
-4.81726e-09
-1.97327e-08
3.47265e-10
-1.7357e-08
5.74514e-09
-1.44317e-08
1.13629e-08
-1.09211e-08
1.71819e-08
-6.78371e-09
2.31757e-08
-1.97164e-09
2.93082e-08
3.57045e-09
9.90725e-09
3.55298e-08
-2.09673e-08
-2.73667e-08
2.53788e-08
-1.63096e-08
-2.62475e-08
-1.14089e-08
-2.46334e-08
-6.26819e-09
-2.24976e-08
-8.91336e-10
-1.98085e-08
4.71667e-09
-1.6529e-08
1.0549e-08
-1.2616e-08
1.65969e-08
-8.01943e-09
2.28489e-08
-2.68163e-09
3.46385e-09
2.92923e-08
-2.74589e-08
-3.17346e-08
3.18268e-08
-2.28743e-08
-3.0832e-08
-1.80777e-08
-2.94299e-08
-1.30742e-08
-2.75011e-08
-7.87029e-09
-2.50124e-08
-2.47453e-09
-2.19247e-08
3.10117e-09
-1.81916e-08
8.84018e-09
-1.37584e-08
1.47193e-08
-8.56084e-09
-2.52276e-09
2.07058e-08
-3.33636e-08
-3.60762e-08
3.77053e-08
-2.88394e-08
-3.53559e-08
-2.41409e-08
-3.41283e-08
-1.92777e-08
-3.23642e-08
-1.42616e-08
-3.00284e-08
-9.10813e-09
-2.70781e-08
-3.83735e-09
-2.34624e-08
1.52373e-09
-1.91195e-08
6.93828e-09
-1.39755e-08
-7.93945e-09
1.23549e-08
-3.82292e-08
-4.04727e-08
4.26257e-08
-3.36739e-08
-3.9911e-08
-2.89709e-08
-3.88313e-08
-2.4133e-08
-3.72021e-08
-1.91761e-08
-3.49852e-08
-1.41196e-08
-3.21345e-08
-8.98754e-09
-2.85944e-08
-3.80935e-09
-2.42977e-08
1.37761e-09
-1.91624e-08
-1.3086e-08
6.5242e-09
-4.17688e-08
-4.50595e-08
4.63557e-08
-3.7023e-08
-4.46569e-08
-3.21287e-08
-4.37256e-08
-2.70988e-08
-4.22321e-08
-2.19484e-08
-4.01356e-08
-1.66957e-08
-3.73873e-08
-1.13612e-08
-3.3929e-08
-5.96808e-09
-2.96908e-08
-5.41422e-10
-2.4589e-08
-1.85166e-08
4.88932e-09
-4.39324e-08
-5.00042e-08
4.8877e-08
-3.87951e-08
-4.97945e-08
-3.34699e-08
-4.9051e-08
-2.79631e-08
-4.77389e-08
-2.22821e-08
-4.58167e-08
-1.64352e-08
-4.32343e-08
-1.04315e-08
-3.99327e-08
-4.27987e-09
-3.58425e-08
2.01147e-09
-3.08802e-08
-2.49353e-08
8.43028e-09
-4.49544e-08
-5.54756e-08
5.04257e-08
-3.92223e-08
-5.55269e-08
-3.32225e-08
-5.50509e-08
-2.69469e-08
-5.40146e-08
-2.03854e-08
-5.23782e-08
-1.35261e-08
-5.00936e-08
-6.35484e-09
-4.71039e-08
1.1432e-09
-4.33405e-08
8.97971e-09
-3.87167e-08
-3.31039e-08
1.71483e-08
-4.5338e-08
-6.1612e-08
5.14742e-08
-3.88497e-08
-6.20153e-08
-3.19879e-08
-6.19127e-08
-2.47259e-08
-6.12766e-08
-1.70318e-08
-6.00724e-08
-8.86758e-09
-5.8258e-08
-1.88064e-10
-5.57834e-08
9.05919e-09
-5.25878e-08
1.89315e-08
-4.85891e-08
-4.36486e-08
2.94761e-08
-4.5805e-08
-6.84968e-08
5.26898e-08
-3.84737e-08
-6.93463e-08
-3.06626e-08
-6.97238e-08
-2.233e-08
-6.96092e-08
-1.34278e-08
-6.89746e-08
-3.89749e-09
-6.77883e-08
6.3353e-09
-6.60163e-08
1.73708e-08
-6.36234e-08
2.93537e-08
-6.0572e-08
-5.68227e-08
4.25278e-08
-4.71376e-08
-7.61872e-08
5.4828e-08
-3.89111e-08
-7.75724e-08
-3.01088e-08
-7.85261e-08
-2.06856e-08
-7.90324e-08
-1.05965e-08
-7.90637e-08
2.02689e-10
-7.85876e-08
1.17595e-08
-7.75731e-08
2.41337e-08
-7.59977e-08
3.74202e-08
-7.38584e-08
-7.12067e-08
5.18043e-08
-5.02103e-08
-8.47498e-08
5.87731e-08
-4.10151e-08
-8.67673e-08
-3.11355e-08
-8.84058e-08
-2.05141e-08
-8.96538e-08
-9.10627e-09
-9.04717e-08
3.11823e-09
-9.08121e-08
1.61791e-08
-9.06339e-08
3.00992e-08
-8.99177e-08
4.4933e-08
-8.86919e-08
-8.70599e-08
6.07864e-08
-5.6102e-08
-9.42779e-08
6.56302e-08
-4.58304e-08
-9.70389e-08
-3.47356e-08
-9.95007e-08
-2.27338e-08
-1.01656e-07
-9.78497e-09
-1.03421e-07
4.10366e-09
-1.04701e-07
1.88773e-08
-1.05408e-07
3.44273e-08
-1.05467e-07
5.06278e-08
-1.04892e-07
-1.03804e-07
6.73726e-08
-6.62574e-08
-1.0492e-07
7.68991e-08
-5.46973e-08
-1.08599e-07
-4.20992e-08
-1.12099e-07
-2.83273e-08
-1.15428e-07
-1.33435e-08
-1.18404e-07
2.82513e-09
-1.2087e-07
2.00898e-08
-1.22672e-07
3.82068e-08
-1.23584e-07
5.68792e-08
-1.23564e-07
-1.2281e-07
7.58847e-08
-8.28569e-08
-1.16927e-07
9.48646e-08
-6.95627e-08
-1.21893e-07
-5.49349e-08
-1.26727e-07
-3.87512e-08
-1.31612e-07
-2.1123e-08
-1.36033e-07
-2.14257e-09
-1.3985e-07
1.82523e-08
-1.43067e-07
3.96823e-08
-1.45014e-07
6.16506e-08
-1.45533e-07
-1.4504e-07
8.3881e-08
-1.08849e-07
-1.30243e-07
1.22165e-07
-9.32322e-08
-1.3751e-07
-7.55405e-08
-1.44419e-07
-5.62062e-08
-1.50946e-07
-3.54069e-08
-1.56832e-07
-1.31012e-08
-1.62156e-07
1.06268e-08
-1.66795e-07
3.56856e-08
-1.70073e-07
6.13889e-08
-1.71236e-07
-1.71462e-07
8.78103e-08
-1.41765e-07
-1.45148e-07
1.56671e-07
-1.24439e-07
-1.54837e-07
-1.04967e-07
-1.6389e-07
-8.32359e-08
-1.72677e-07
-5.90607e-08
-1.81007e-07
-3.31698e-08
-1.88047e-07
-5.81492e-09
-1.9415e-07
2.29265e-08
-1.98815e-07
5.36841e-08
-2.01994e-07
-2.03684e-07
8.59063e-08
-1.78717e-07
-1.60659e-07
1.94228e-07
-1.60477e-07
-1.73077e-07
-1.39419e-07
-1.84949e-07
-1.15618e-07
-1.96479e-07
-8.91943e-08
-2.07431e-07
-5.98589e-08
-2.17382e-07
-2.78409e-08
-2.26168e-07
6.44599e-09
-2.33102e-07
4.22609e-08
-2.37809e-07
-2.41119e-07
7.96958e-08
-2.18685e-07
-1.76527e-07
2.34553e-07
-1.99215e-07
-1.92547e-07
-1.75921e-07
-2.08242e-07
-1.49007e-07
-2.23393e-07
-1.18764e-07
-2.37674e-07
-8.54567e-08
-2.5069e-07
-4.95842e-08
-2.62041e-07
-1.13556e-08
-2.7133e-07
2.92845e-08
-2.78449e-07
-2.83569e-07
7.17353e-08
-2.59354e-07
-1.92448e-07
2.75275e-07
-2.38992e-07
-2.12909e-07
-2.13946e-07
-2.33288e-07
-1.84286e-07
-2.53053e-07
-1.50326e-07
-2.71635e-07
-1.12531e-07
-2.88484e-07
-7.14406e-08
-3.03132e-07
-2.75509e-08
-3.1522e-07
1.85608e-08
-3.2456e-07
-3.31091e-07
6.60827e-08
-2.97158e-07
-2.07437e-07
3.12147e-07
-2.76744e-07
-2.33323e-07
-2.50455e-07
-2.59577e-07
-2.18265e-07
-2.85243e-07
-1.80546e-07
-3.09354e-07
-1.37967e-07
-3.31063e-07
-9.13547e-08
-3.49744e-07
-4.15798e-08
-3.64994e-07
1.04528e-08
-3.76593e-07
-3.84449e-07
6.38106e-08
-3.244e-07
-2.20065e-07
3.37027e-07
-3.05183e-07
-2.5254e-07
-2.7849e-07
-2.8627e-07
-2.44124e-07
-3.19609e-07
-2.02597e-07
-3.50882e-07
-1.54992e-07
-3.78667e-07
-1.02616e-07
-4.02122e-07
-4.6748e-08
-4.20862e-07
1.14205e-08
-4.34762e-07
-4.4384e-07
7.08114e-08
-3.30595e-07
-2.28502e-07
3.39033e-07
-3.14312e-07
-2.68823e-07
-2.88686e-07
-3.11896e-07
-2.53101e-07
-3.55194e-07
-2.08166e-07
-3.95817e-07
-1.55732e-07
-4.311e-07
-9.78216e-08
-4.60032e-07
-3.62287e-08
-4.82455e-07
2.75362e-08
-4.98527e-07
-5.08529e-07
9.22245e-08
-3.05494e-07
-2.32178e-07
3.0917e-07
-2.9217e-07
-2.82148e-07
-2.69373e-07
-3.34694e-07
-2.34841e-07
-3.89726e-07
-1.88223e-07
-4.42435e-07
-1.32448e-07
-4.86876e-07
-7.05804e-08
-5.21899e-07
-4.98188e-09
-5.48054e-07
6.25674e-08
-5.66076e-07
-5.76666e-07
1.30705e-07
-2.46942e-07
-2.48768e-07
2.63532e-07
-2.33573e-07
-2.95515e-07
-2.16818e-07
-3.51449e-07
-1.85392e-07
-4.21153e-07
-1.39422e-07
-4.88405e-07
-8.27962e-08
-5.43501e-07
-1.97071e-08
-5.84988e-07
4.70961e-08
-6.14857e-07
1.15664e-07
-6.34644e-07
-6.45635e-07
1.84633e-07
-1.98701e-07
-2.7953e-07
2.29462e-07
-1.75741e-07
-3.18474e-07
-1.52201e-07
-3.74988e-07
-1.20957e-07
-4.52396e-07
-7.45313e-08
-5.34831e-07
-1.70621e-08
-6.00971e-07
4.58105e-08
-6.47861e-07
1.11806e-07
-6.80852e-07
1.79273e-07
-7.02111e-07
-7.13307e-07
2.46945e-07
-1.8592e-07
-3.39059e-07
2.4545e-07
-1.38934e-07
-3.65462e-07
-9.94318e-08
-4.14491e-07
-6.11881e-08
-4.9064e-07
-1.07317e-08
-5.85288e-07
4.91789e-08
-6.60882e-07
1.1251e-07
-7.11193e-07
1.77458e-07
-7.458e-07
2.4308e-07
-7.67734e-07
-7.78624e-07
3.08397e-07
-1.78547e-07
-4.10028e-07
2.49516e-07
-1.09565e-07
-4.34443e-07
-5.37895e-08
-4.70266e-07
-4.48303e-09
-5.39946e-07
4.95734e-08
-6.39344e-07
1.10717e-07
-7.22025e-07
1.74264e-07
-7.7474e-07
2.3778e-07
-8.09316e-07
3.00815e-07
-8.30768e-07
-8.40599e-07
3.6279e-07
-1.27948e-07
-4.64822e-07
1.82741e-07
-6.23052e-08
-5.00085e-07
-1.86259e-09
-5.30709e-07
5.43932e-08
-5.96202e-07
1.10816e-07
-6.95768e-07
1.71038e-07
-7.82247e-07
2.32306e-07
-8.36008e-07
2.92266e-07
-8.69276e-07
3.50834e-07
-8.89337e-07
-8.97545e-07
4.0778e-07
-2.79709e-08
-5.09961e-07
7.31098e-08
1.84862e-08
-5.46542e-07
6.75139e-08
-5.79736e-07
1.20137e-07
-6.48824e-07
1.74949e-07
-7.5058e-07
2.3166e-07
-8.38957e-07
2.87297e-07
-8.91646e-07
3.40831e-07
-9.2281e-07
3.92597e-07
-9.41103e-07
-9.47552e-07
4.42604e-07
7.90179e-08
-5.46955e-07
-4.20237e-08
1.13726e-07
-5.81251e-07
1.50973e-07
-6.16984e-07
1.91902e-07
-6.89753e-07
2.40116e-07
-7.98795e-07
2.89591e-07
-8.88432e-07
3.36474e-07
-9.38528e-07
3.81396e-07
-9.67732e-07
4.24739e-07
-9.84445e-07
-9.89309e-07
4.66497e-07
1.61212e-07
-5.75647e-07
-1.3252e-07
1.88213e-07
-6.08251e-07
2.16941e-07
-6.45711e-07
2.53177e-07
-7.25989e-07
2.96824e-07
-8.4244e-07
3.37793e-07
-9.29402e-07
3.75153e-07
-9.75888e-07
4.11147e-07
-1.00373e-06
4.45805e-07
-1.0191e-06
-1.02243e-06
4.78927e-07
2.15587e-07
-5.96882e-07
-1.94351e-07
2.3666e-07
-6.29325e-07
2.62056e-07
-6.71108e-07
3.00077e-07
-7.64009e-07
3.39986e-07
-8.82349e-07
3.727e-07
-9.62116e-07
4.01821e-07
-1.00501e-06
4.29837e-07
-1.03174e-06
4.56342e-07
-1.04561e-06
-1.04705e-06
4.80962e-07
2.51198e-07
-6.12093e-07
-2.35987e-07
2.6765e-07
-6.45777e-07
2.91805e-07
-6.95262e-07
3.34252e-07
-8.06457e-07
3.69058e-07
-9.17155e-07
3.95279e-07
-9.88337e-07
4.18426e-07
-1.02816e-06
4.39874e-07
-1.05319e-06
4.59116e-07
-1.06485e-06
-1.06369e-06
4.75758e-07
2.74538e-07
-6.23755e-07
-2.62876e-07
2.89098e-07
-6.60338e-07
3.15854e-07
-7.22017e-07
3.56478e-07
-8.47081e-07
3.88805e-07
-9.49481e-07
4.10557e-07
-1.01009e-06
4.29223e-07
-1.04682e-06
4.45286e-07
-1.06925e-06
4.58358e-07
-1.07792e-06
-1.0735e-06
4.68163e-07
2.88453e-07
-6.35658e-07
-2.76551e-07
3.06455e-07
-6.78341e-07
3.41092e-07
-7.56653e-07
3.77203e-07
-8.83192e-07
4.04101e-07
-9.76378e-07
4.21584e-07
-1.02757e-06
4.36109e-07
-1.06135e-06
4.47743e-07
-1.08089e-06
4.5607e-07
-1.08625e-06
-1.07833e-06
4.609e-07
2.86329e-07
-6.48046e-07
-2.73941e-07
3.10966e-07
-7.02979e-07
3.56687e-07
-8.02373e-07
3.90669e-07
-9.17175e-07
4.09432e-07
-9.95141e-07
4.24358e-07
-1.0425e-06
4.36843e-07
-1.07383e-06
4.45987e-07
-1.09003e-06
4.51186e-07
-1.09145e-06
-1.0794e-06
4.52254e-07
2.73459e-07
-6.58893e-07
-2.62612e-07
3.00728e-07
-7.30248e-07
3.47883e-07
-8.49528e-07
3.82774e-07
-9.52066e-07
4.04478e-07
-1.01685e-06
4.21645e-07
-1.05966e-06
4.345e-07
-1.08669e-06
4.42659e-07
-1.09819e-06
4.46029e-07
-1.09482e-06
-1.07809e-06
4.44727e-07
2.67441e-07
-6.71153e-07
-2.55181e-07
3.08091e-07
-7.70897e-07
3.52229e-07
-8.93665e-07
3.84297e-07
-9.84134e-07
4.05482e-07
-1.03803e-06
4.2137e-07
-1.07555e-06
4.32461e-07
-1.09778e-06
4.3876e-07
-1.10449e-06
4.40293e-07
-1.09635e-06
-1.07497e-06
4.37172e-07
2.74102e-07
-6.95666e-07
-2.4959e-07
3.27688e-07
-8.24482e-07
3.67461e-07
-9.33438e-07
3.88725e-07
-1.0054e-06
4.0511e-07
-1.05442e-06
4.17528e-07
-1.08797e-06
4.25966e-07
-1.10622e-06
4.30272e-07
-1.1088e-06
4.30289e-07
-1.09637e-06
-1.07064e-06
4.25956e-07
2.69007e-07
-7.32397e-07
-2.32276e-07
3.20119e-07
-8.75593e-07
3.55882e-07
-9.69201e-07
3.76693e-07
-1.02621e-06
3.9176e-07
-1.06948e-06
4.02781e-07
-1.09899e-06
4.0996e-07
-1.11339e-06
4.13194e-07
-1.11203e-06
4.1232e-07
-1.09549e-06
-1.06564e-06
4.07316e-07
2.81309e-07
-7.87339e-07
-2.26367e-07
3.22891e-07
-9.17174e-07
3.4236e-07
-9.88671e-07
3.56942e-07
-1.04079e-06
3.68703e-07
-1.08124e-06
3.77968e-07
-1.10826e-06
3.8432e-07
-1.11975e-06
3.8715e-07
-1.11486e-06
3.85946e-07
-1.09429e-06
-1.06024e-06
3.80545e-07
2.61765e-07
-8.4127e-07
-2.07833e-07
2.87155e-07
-9.42564e-07
3.0291e-07
-1.00443e-06
3.17075e-07
-1.05496e-06
3.29762e-07
-1.09393e-06
3.40289e-07
-1.11878e-06
3.47981e-07
-1.12744e-06
3.52202e-07
-1.11908e-06
3.52471e-07
-1.09456e-06
-1.05651e-06
3.48747e-07
2.16737e-07
-8.73138e-07
-1.84869e-07
2.34918e-07
-9.60746e-07
2.51379e-07
-1.02089e-06
2.67387e-07
-1.07096e-06
2.82128e-07
-1.10867e-06
2.94556e-07
-1.13121e-06
3.03846e-07
-1.13673e-06
3.09339e-07
-1.12457e-06
3.1042e-07
-1.09564e-06
-1.0526e-06
3.06507e-07
1.45906e-07
-9.08555e-07
-1.10489e-07
1.69647e-07
-9.84487e-07
1.92014e-07
-1.04325e-06
2.12779e-07
-1.09173e-06
2.311e-07
-1.12699e-06
2.46336e-07
-1.14645e-06
2.58056e-07
-1.14845e-06
2.65896e-07
-1.13241e-06
2.6927e-07
-1.09901e-06
-1.05023e-06
2.66899e-07
9.35028e-08
-9.37501e-07
-6.4557e-08
1.18654e-07
-1.00964e-06
1.4278e-07
-1.06738e-06
1.65053e-07
-1.114e-06
1.84701e-07
-1.14664e-06
2.01319e-07
-1.16307e-06
2.14871e-07
-1.162e-06
2.25611e-07
-1.14315e-06
2.33931e-07
-1.10733e-06
-1.05654e-06
2.40245e-07
5.76697e-08
-9.63411e-07
-3.17596e-08
8.17743e-08
-1.03374e-06
1.048e-07
-1.09041e-06
1.25998e-07
-1.1352e-06
1.44667e-07
-1.16531e-06
1.60347e-07
-1.17875e-06
1.72866e-07
-1.17452e-06
1.82336e-07
-1.15262e-06
1.89091e-07
-1.11409e-06
-1.06084e-06
1.93391e-07
4.09165e-08
-9.81864e-07
-2.24632e-08
6.0212e-08
-1.05304e-06
7.94755e-08
-1.10967e-06
9.78143e-08
-1.15354e-06
1.14426e-07
-1.18192e-06
1.28667e-07
-1.19299e-06
1.40136e-07
-1.18599e-06
1.48746e-07
-1.16123e-06
1.54717e-07
-1.12006e-06
-1.06457e-06
1.58443e-07
3.046e-08
-9.95771e-07
-1.65533e-08
4.58847e-08
-1.06846e-06
6.19304e-08
-1.12571e-06
7.78601e-08
-1.16947e-06
9.28986e-08
-1.19696e-06
1.06335e-07
-1.20642e-06
1.17666e-07
-1.19732e-06
1.26708e-07
-1.17027e-06
1.33628e-07
-1.12698e-06
-1.06977e-06
1.38829e-07
2.33633e-08
-1.00686e-06
-1.22743e-08
3.61956e-08
-1.08129e-06
5.00054e-08
-1.13952e-06
6.4305e-08
-1.18377e-06
7.83972e-08
-1.21105e-06
9.15744e-08
-1.2196e-06
1.03308e-07
-1.20905e-06
1.13384e-07
-1.18035e-06
1.2195e-07
-1.13555e-06
-1.07711e-06
1.29291e-07
1.91693e-08
-1.01556e-06
-1.04664e-08
3.00969e-08
-1.09222e-06
4.23692e-08
-1.1518e-06
5.55872e-08
-1.19698e-06
6.90739e-08
-1.22454e-06
8.21296e-08
-1.23266e-06
9.42321e-08
-1.22116e-06
1.05182e-07
-1.1913e-06
1.15165e-07
-1.14553e-06
-1.08643e-06
1.24485e-07
1.67898e-08
-1.02239e-06
-9.96195e-09
2.65068e-08
-1.10194e-06
3.78898e-08
-1.16318e-06
5.03997e-08
-1.20949e-06
6.33375e-08
-1.23748e-06
7.60367e-08
-1.24535e-06
8.80217e-08
-1.23314e-06
9.91593e-08
-1.20244e-06
1.09765e-07
-1.15613e-06
-1.09704e-06
1.20373e-07
1.68183e-08
-1.02755e-06
-1.16578e-08
2.58101e-08
-1.11093e-06
3.66179e-08
-1.17399e-06
4.84417e-08
-1.22132e-06
6.05732e-08
-1.24961e-06
7.24161e-08
-1.2572e-06
8.35467e-08
-1.24427e-06
9.38765e-08
-1.21277e-06
1.03815e-07
-1.16607e-06
-1.10724e-06
1.14015e-07
2.0438e-08
-1.03124e-06
-1.67456e-08
2.88388e-08
-1.11933e-06
3.89697e-08
-1.18412e-06
4.98383e-08
-1.23219e-06
6.08237e-08
-1.26059e-06
7.14587e-08
-1.26783e-06
8.13753e-08
-1.25419e-06
9.04607e-08
-1.22185e-06
9.91088e-08
-1.17472e-06
-1.11587e-06
1.0774e-07
2.66873e-08
-1.03539e-06
-2.25424e-08
3.47337e-08
-1.12738e-06
4.40078e-08
-1.19339e-06
5.36619e-08
-1.24184e-06
6.33013e-08
-1.27023e-06
7.26763e-08
-1.27721e-06
8.15277e-08
-1.26304e-06
8.96693e-08
-1.22999e-06
9.73044e-08
-1.18236e-06
-1.123e-06
1.04431e-07
3.22718e-08
-1.04129e-06
-2.63725e-08
4.03641e-08
-1.13547e-06
4.90009e-08
-1.20203e-06
5.75335e-08
-1.25037e-06
6.58261e-08
-1.27853e-06
7.39449e-08
-1.28533e-06
8.18647e-08
-1.27096e-06
8.93953e-08
-1.23753e-06
9.63308e-08
-1.18929e-06
-1.12857e-06
1.01903e-07
3.33931e-08
-1.04989e-06
-2.47893e-08
4.25968e-08
-1.14467e-06
5.14908e-08
-1.21092e-06
5.94952e-08
-1.25838e-06
6.67428e-08
-1.28577e-06
7.37178e-08
-1.2923e-06
8.07293e-08
-1.27797e-06
8.7715e-08
-1.24451e-06
9.41892e-08
-1.19577e-06
-1.13339e-06
9.90121e-08
3.00855e-08
-1.06173e-06
-1.82496e-08
4.12304e-08
-1.15582e-06
5.10363e-08
-1.22073e-06
5.90134e-08
-1.26635e-06
6.57343e-08
-1.29249e-06
7.23819e-08
-1.29895e-06
7.98136e-08
-1.2854e-06
8.80434e-08
-1.25274e-06
9.52687e-08
-1.20299e-06
-1.13212e-06
9.40005e-08
2.43146e-08
-1.07611e-06
-9.93632e-09
3.71411e-08
-1.16864e-06
4.74416e-08
-1.23103e-06
5.47751e-08
-1.27369e-06
6.03191e-08
-1.29804e-06
6.62696e-08
-1.3049e-06
7.46617e-08
-1.2938e-06
8.72469e-08
-1.26533e-06
1.05089e-07
-1.22083e-06
-1.15441e-06
1.27374e-07
1.69575e-08
-1.0924e-06
-6.6537e-10
3.09599e-08
-1.18265e-06
4.089e-08
-1.24096e-06
4.62895e-08
-1.27909e-06
4.88018e-08
-1.30055e-06
5.10024e-08
-1.3071e-06
5.49358e-08
-1.29773e-06
6.22647e-08
-1.27266e-06
7.31758e-08
-1.23174e-06
-1.16383e-06
8.25991e-08
8.52164e-09
-1.11042e-06
9.49927e-09
2.39734e-08
-1.1981e-06
3.3223e-08
-1.25021e-06
3.6364e-08
-1.28223e-06
3.58932e-08
-1.30008e-06
3.47444e-08
-1.30595e-06
3.49864e-08
-1.29797e-06
3.86475e-08
-1.27632e-06
4.65175e-08
-1.23961e-06
-1.17227e-06
5.49505e-08
-4.31613e-10
-1.13719e-06
2.71995e-08
1.76318e-08
-1.21616e-06
2.56902e-08
-1.25827e-06
2.64318e-08
-1.28297e-06
2.35335e-08
-1.29718e-06
1.9907e-08
-1.30233e-06
1.73887e-08
-1.29545e-06
1.86123e-08
-1.27754e-06
2.68073e-08
-1.24781e-06
-1.19154e-06
4.60783e-08
-5.98716e-09
-1.16825e-06
3.70464e-08
1.08673e-08
-1.23302e-06
1.66073e-08
-1.26401e-06
1.61026e-08
-1.28247e-06
1.29257e-08
-1.294e-06
9.10114e-09
-1.2985e-06
5.66496e-09
-1.29202e-06
4.58244e-09
-1.27646e-06
9.37387e-09
-1.2526e-06
-1.20549e-06
2.33253e-08
-2.12899e-08
-1.21982e-06
7.28654e-08
-1.56676e-09
-1.25274e-06
5.25646e-09
-1.27083e-06
6.24419e-09
-1.28345e-06
4.92714e-09
-1.29269e-06
3.03643e-09
-1.29661e-06
1.9274e-09
-1.29091e-06
3.24816e-09
-1.27778e-06
1.2236e-08
-1.26159e-06
-1.23668e-06
4.34306e-08
-9.75251e-09
-1.25172e-06
4.16492e-08
5.78573e-10
-1.26307e-06
2.79854e-09
-1.27305e-06
1.99664e-09
-1.28265e-06
-1.88067e-10
-1.2905e-06
-3.04606e-09
-1.29375e-06
-5.2125e-09
-1.28874e-06
-7.046e-09
-1.27594e-06
-4.67272e-09
-1.26396e-06
-1.25313e-06
1.17787e-08
9.66106e-09
-1.25693e-06
-4.44636e-09
8.62546e-09
-1.26204e-06
5.23175e-09
-1.26966e-06
1.61674e-09
-1.27904e-06
-2.85145e-09
-1.28603e-06
-8.23857e-09
-1.28836e-06
-1.24124e-08
-1.28457e-06
-1.79044e-08
-1.27045e-06
-2.41065e-08
-1.25776e-06
-1.25015e-06
-2.70864e-08
2.47175e-08
-1.24797e-06
-3.36774e-08
1.58362e-08
-1.25315e-06
8.85304e-09
-1.26267e-06
3.26961e-09
-1.27345e-06
-3.75253e-09
-1.27901e-06
-1.19623e-08
-1.28015e-06
-1.77097e-08
-1.27882e-06
-2.50753e-08
-1.26309e-06
-3.68137e-08
-1.24602e-06
-1.23706e-06
-4.99075e-08
3.19798e-08
-1.233e-06
-4.69569e-08
1.93448e-08
-1.24052e-06
1.14273e-08
-1.25476e-06
5.34199e-09
-1.26737e-06
-3.85348e-09
-1.26982e-06
-1.42751e-08
-1.26973e-06
-2.09376e-08
-1.27216e-06
-2.76585e-08
-1.25637e-06
-4.15868e-08
-1.23209e-06
-1.21882e-06
-5.98245e-08
3.12525e-08
-1.21287e-06
-5.13779e-08
1.77154e-08
-1.22698e-06
1.24868e-08
-1.24953e-06
6.869e-09
-1.26175e-06
-3.76467e-09
-1.25918e-06
-1.50594e-08
-1.25844e-06
-2.23028e-08
-1.26491e-06
-2.53895e-08
-1.25328e-06
-3.86035e-08
-1.21888e-06
-1.19547e-06
-6.19539e-08
2.11418e-08
-1.18227e-06
-5.17443e-08
1.28701e-08
-1.21871e-06
1.48341e-08
-1.25149e-06
8.20526e-09
-1.25512e-06
-3.61962e-09
-1.24736e-06
-1.53339e-08
-1.24672e-06
-2.42231e-08
-1.25602e-06
-2.06612e-08
-1.25684e-06
-2.64842e-08
-1.21306e-06
-1.16221e-06
-5.9752e-08
-1.42006e-09
-1.12652e-06
-5.43295e-08
1.27805e-08
-1.23291e-06