/*--------------------------------*- C++ -*----------------------------------*\
  =========                 |
  \\      /  F ield         | OpenFOAM: The Open Source CFD Toolbox
   \\    /   O peration     | Website:  https://openfoam.org
    \\  /    A nd           | Version:  8
     \\/     M anipulation  |
\*---------------------------------------------------------------------------*/
FoamFile
{
    version     2.0;
    format      ascii;
    class       surfaceScalarField;
    location    "3.25";
    object      alphaPhi0.water;
}
// * * * * * * * * * * * * * * * * * * * * * * * * * * * * * * * * * * * * * //

dimensions      [0 3 -1 0 0 0 0];

internalField   nonuniform List<scalar> 
18095
(
1.58386e-07
-9.65537e-07
8.07151e-07
1.65377e-07
-1.24818e-06
1.24118e-06
1.22254e-07
-1.24219e-06
1.28532e-06
6.54327e-08
-1.26343e-06
1.32026e-06
1.49056e-10
-1.28045e-06
1.34573e-06
-6.51615e-08
-1.28048e-06
1.34579e-06
-1.22048e-07
-1.26351e-06
1.3204e-06
-1.65244e-07
-1.24228e-06
1.28547e-06
-1.58333e-07
-1.24825e-06
1.24134e-06
-9.65704e-07
8.07371e-07
1.11039e-07
-1.07658e-06
9.9429e-08
-1.23656e-06
7.29013e-08
-1.21567e-06
4.01126e-08
-1.23065e-06
1.01347e-10
-1.24043e-06
-3.99252e-08
-1.24045e-06
-7.27526e-08
-1.23069e-06
-9.93181e-08
-1.21571e-06
-1.10977e-07
-1.23659e-06
-1.07668e-06
6.71597e-08
-1.14374e-06
5.27618e-08
-1.22217e-06
4.21651e-08
-1.20507e-06
2.3908e-08
-1.21239e-06
6.55713e-11
-1.21659e-06
-2.37854e-08
-1.2166e-06
-4.2066e-08
-1.21241e-06
-5.26867e-08
-1.20509e-06
-6.71062e-08
-1.22217e-06
-1.14379e-06
3.96219e-08
-1.18336e-06
2.66298e-08
-1.20917e-06
2.20294e-08
-1.20047e-06
1.25523e-08
-1.20291e-06
3.72804e-11
-1.20408e-06
-1.24821e-08
-1.20408e-06
-2.19717e-08
-1.20292e-06
-2.65868e-08
-1.20047e-06
-3.95856e-08
-1.20917e-06
-1.18337e-06
1.66425e-08
7.46819e-09
7.00043e-09
4.08929e-09
1.24981e-11
-4.06563e-09
-6.98114e-09
-7.45502e-09
-1.66274e-08
-1.73695e-07
-1.16333e-06
1.33702e-06
-2.17647e-07
-1.21576e-06
1.25971e-06
-1.63704e-07
-1.21236e-06
1.15841e-06
-8.55672e-08
-1.20373e-06
1.12559e-06
1.63385e-09
-1.20243e-06
1.11522e-06
8.87672e-08
-1.20268e-06
1.11554e-06
1.66585e-07
-1.2044e-06
1.12658e-06
2.20276e-07
-1.21332e-06
1.15963e-06
1.76097e-07
-1.21711e-06
1.26129e-06
-1.1649e-06
1.34099e-06
-9.27131e-08
-1.07061e-06
-9.50631e-08
-1.21341e-06
-7.84943e-08
-1.22893e-06
-4.33449e-08
-1.23888e-06
9.20618e-10
-1.24669e-06
4.51111e-08
-1.24687e-06
8.00715e-08
-1.23936e-06
9.63537e-08
-1.22961e-06
9.34481e-08
-1.21421e-06
-1.07145e-06
-5.77889e-08
-1.01283e-06
-5.4848e-08
-1.21635e-06
-4.60746e-08
-1.2377e-06
-2.66095e-08
-1.25835e-06
5.52231e-10
-1.27385e-06
2.76609e-08
-1.27397e-06
4.69752e-08
-1.25868e-06
5.55054e-08
-1.23814e-06
5.81096e-08
-1.21681e-06
-1.01334e-06
-7.46323e-08
-9.38193e-07
-6.17303e-08
-1.22925e-06
-4.83066e-08
-1.25112e-06
-2.74571e-08
-1.27919e-06
3.41994e-10
-1.30165e-06
2.8103e-08
-1.30174e-06
4.88431e-08
-1.27942e-06
6.20933e-08
-1.25139e-06
7.48028e-08
-1.22952e-06
-9.38535e-07
-1.31042e-07
-1.1911e-07
-8.49161e-08
-4.38556e-08
2.22311e-10
4.4273e-08
8.52577e-08
1.19344e-07
1.31164e-07
-8.49635e-09
-9.03479e-07
9.11975e-07
2.61753e-08
-1.33853e-06
1.30386e-06
2.47298e-08
-1.27765e-06
1.27909e-06
1.89495e-08
-1.22804e-06
1.23382e-06
1.31794e-08
-1.22411e-06
1.22988e-06
7.73384e-09
-1.2256e-06
1.23105e-06
1.32757e-09
-1.22785e-06
1.23426e-06
1.06979e-08
-1.27364e-06
1.26427e-06
6.54689e-08
-1.34444e-06
1.28967e-06
-9.56659e-07
1.02213e-06
2.60987e-08
-9.29577e-07
3.39551e-08
-1.34639e-06
2.42786e-08
-1.26797e-06
1.72177e-08
-1.22098e-06
1.02981e-08
-1.21719e-06
3.17574e-09
-1.21848e-06
-3.39559e-09
-1.22128e-06
-8.21233e-09
-1.26883e-06
-2.46868e-09
-1.35019e-06
-9.59127e-07
3.56824e-08
-9.6526e-07
2.71287e-08
-1.33783e-06
1.77678e-08
-1.25861e-06
1.26489e-08
-1.21586e-06
6.83913e-09
-1.21138e-06
2.07675e-10
-1.21185e-06
-4.68936e-09
-1.21638e-06
-1.33134e-08
-1.2602e-06
-2.28576e-08
-1.34064e-06
-9.81985e-07
8.38868e-08
-1.04915e-06
5.78868e-08
-1.31183e-06
3.88523e-08
-1.23958e-06
2.53705e-08
-1.20238e-06
4.3241e-09
-1.19034e-06
-1.68509e-08
-1.19067e-06
-2.9379e-08
-1.20386e-06
-4.80212e-08
-1.24156e-06
-7.55251e-08
-1.31314e-06
-1.05751e-06
2.87876e-07
2.35757e-07
1.54596e-07
7.78138e-08
2.70032e-09
-7.24327e-08
-1.49705e-07
-2.31634e-07
-2.83483e-07
-1.80874e-07
9.06037e-10
1.79968e-07
-1.81484e-07
6.10334e-10
-1.81781e-07
2.96705e-10
-1.81732e-07
-4.90159e-11
-1.8136e-07
-3.72209e-10
-1.80632e-07
-7.28132e-10
-1.79515e-07
-1.11658e-09
-1.77974e-07
-1.5412e-09
-1.75972e-07
-2.00196e-09
-2.49341e-09
-1.73479e-07
-1.91424e-07
1.40293e-09
1.90927e-07
-1.91747e-07
9.32858e-10
-1.91893e-07
4.42193e-10
-1.91865e-07
-7.64712e-11
-1.91588e-07
-6.49306e-10
-1.91044e-07
-1.2723e-09
-1.90202e-07
-1.95861e-09
-1.89035e-07
-2.70894e-09
-1.87519e-07
-3.51752e-09
-4.37156e-09
-1.85641e-07
-1.93194e-07
2.13788e-09
1.92459e-07
-1.93769e-07
1.50766e-09
-1.94174e-07
8.47126e-10
-1.94389e-07
1.38415e-10
-1.94402e-07
-6.35979e-10
-1.94185e-07
-1.4892e-09
-1.93716e-07
-2.42853e-09
-1.92972e-07
-3.45289e-09
-1.91938e-07
-4.55109e-09
-5.70208e-09
-1.90608e-07
-1.93774e-07
3.06698e-09
1.92845e-07
-1.94563e-07
2.29588e-09
-1.95205e-07
1.48864e-09
-1.95689e-07
6.23052e-10
-1.96002e-07
-3.22851e-10
-1.96123e-07
-1.36832e-09
-1.96027e-07
-2.52496e-09
-1.95688e-07
-3.79188e-09
-1.95087e-07
-5.15156e-09
-6.5706e-09
-1.94219e-07
-1.94146e-07
4.15985e-09
1.93053e-07
-1.95123e-07
3.27268e-09
-1.95985e-07
2.35014e-09
-1.96727e-07
1.36493e-09
-1.97336e-07
2.86633e-10
-1.97789e-07
-9.15714e-10
-1.98047e-07
-2.26674e-09
-1.98067e-07
-3.77151e-09
-1.97814e-07
-5.40475e-09
-7.10971e-09
-1.97275e-07
-1.9471e-07
5.39115e-09
1.93479e-07
-1.95847e-07
4.40948e-09
-1.96899e-07
3.40199e-09
-1.97871e-07
2.33679e-09
-1.98756e-07
1.17161e-09
-1.99525e-07
-1.46432e-10
-2.00115e-07
-1.67626e-09
-2.00441e-07
-3.4453e-09
-2.00423e-07
-5.42269e-09
-7.49827e-09
-2.00035e-07
-1.95797e-07
6.74212e-09
1.94446e-07
-1.97062e-07
5.67452e-09
-1.98261e-07
4.6009e-09
-1.99415e-07
3.49057e-09
-2.00538e-07
2.29479e-09
-2.01611e-07
9.27111e-10
-2.02536e-07
-7.51776e-10
-2.03136e-07
-2.84612e-09
-2.03227e-07
-5.33153e-09
-7.95786e-09
-2.02767e-07
-1.97803e-07
8.22911e-09
1.96316e-07
-1.99189e-07
7.06092e-09
-2.00501e-07
5.91255e-09
-2.01765e-07
4.75897e-09
-2.03043e-07
3.57365e-09
-2.04401e-07
2.28148e-09
-2.05679e-07
5.26727e-10
-2.06518e-07
-2.00314e-09
-2.06579e-07
-5.2658e-09
-8.77059e-09
-2.0578e-07
-2.01234e-07
9.97767e-09
1.99486e-07
-2.02867e-07
8.69357e-09
-2.04425e-07
7.47117e-09
-2.05889e-07
6.2224e-09
-2.07295e-07
4.98606e-09
-2.07362e-07
3.55892e-09
-2.0771e-07
1.76747e-09
-2.08615e-07
-8.42703e-10
-2.1043e-07
-5.54962e-09
-1.05039e-08
-2.08889e-07
-2.06632e-07
1.23133e-08
2.04297e-07
-2.08918e-07
1.09795e-08
-2.11194e-07
9.74749e-09
-2.13541e-07
8.57198e-09
-2.15411e-07
6.90285e-09
-2.07066e-07
5.86818e-09
-1.97723e-07
1.54598e-09
-1.93073e-07
-2.95281e-09
-2.1318e-07
-8.28817e-09
-1.27605e-08
-2.10923e-07
-2.13077e-07
1.52788e-08
2.10111e-07
-2.15683e-07
1.35854e-08
-2.14717e-07
1.2347e-08
-1.95207e-07
1.0447e-08
-1.96043e-07
7.13907e-09
-1.94697e-07
3.99824e-09
-1.93458e-07
-2.81258e-10
-2.16795e-07
-5.33604e-09
-2.14738e-07
-1.03449e-08
-1.46584e-08
-2.12841e-07
-2.14922e-07
1.82313e-08
2.15873e-07
-1.96235e-07
1.57492e-08
-1.97602e-07
1.29737e-08
-1.98126e-07
1.02301e-08
-1.98199e-07
6.55813e-09
-2.09398e-07
2.38261e-09
-2.20612e-07
-2.2601e-09
-2.18825e-07
-7.12331e-09
-2.17467e-07
-1.17024e-08
-1.58794e-08
-2.16246e-07
-1.98368e-07
1.91725e-08
2.00307e-07
-1.99758e-07
1.6692e-08
-2.01006e-07
1.35696e-08
-2.01363e-07
9.84606e-09
-2.25834e-07
5.91141e-09
-2.24673e-07
1.2217e-09
-2.23411e-07
-3.52236e-09
-2.22409e-07
-8.12497e-09
-2.21644e-07
-1.24668e-08
-1.64403e-08
-2.21083e-07
-2.02411e-07
2.06373e-08
2.00706e-07
-2.02954e-07
1.69943e-08
-2.13563e-07
1.34653e-08
-2.29081e-07
1.01909e-08
-2.28504e-07
5.33395e-09
-2.27823e-07
5.41262e-10
-2.27228e-07
-4.11765e-09
-2.26802e-07
-8.55134e-09
-2.26565e-07
-1.2703e-08
-1.65051e-08
-2.26501e-07
-2.06303e-07
2.16463e-08
2.05053e-07
-2.3192e-07
1.82018e-08
-2.3298e-07
1.45243e-08
-2.32558e-07
9.76875e-09
-2.32188e-07
4.96489e-09
-2.31889e-07
2.42111e-10
-2.31698e-07
-4.3094e-09
-2.31615e-07
-8.6338e-09
-2.31644e-07
-1.26736e-08
-1.63676e-08
-2.31777e-07
-2.34918e-07
2.38497e-08
2.09964e-07
-2.36263e-07
1.95463e-08
-2.36413e-07
1.46744e-08
-2.36451e-07
9.80637e-09
-2.36482e-07
4.99672e-09
-2.36536e-07
2.95626e-10
-2.3661e-07
-4.23593e-09
-2.36702e-07
-8.54185e-09
-2.36807e-07
-1.25673e-08
-1.62534e-08
-2.36709e-07
-2.39232e-07
2.52712e-08
2.37809e-07
-2.39949e-07
2.02635e-08
-2.40534e-07
1.526e-08
-2.41025e-07
1.02972e-08
-2.41433e-07
5.40452e-09
-2.41765e-07
6.27861e-10
-2.4202e-07
-3.98133e-09
-2.42192e-07
-8.36979e-09
-2.42275e-07
-1.24841e-08
-1.6271e-08
-2.42066e-07
-2.43225e-07
2.66325e-08
2.41864e-07
-2.44438e-07
2.14766e-08
-2.45501e-07
1.63227e-08
-2.46405e-07
1.11999e-08
-2.47145e-07
6.14463e-09
-2.47719e-07
1.20125e-09
-2.48119e-07
-3.58102e-09
-2.48339e-07
-8.15011e-09
-2.48371e-07
-1.24523e-08
-1.64333e-08
-2.48208e-07
-2.4833e-07
2.84184e-08
2.46545e-07
-2.49976e-07
2.3122e-08
-2.51442e-07
1.77884e-08
-2.52705e-07
1.2461e-08
-2.53745e-07
7.18457e-09
-2.54549e-07
2.00564e-09
-2.55104e-07
-3.02607e-09
-2.55396e-07
-7.85807e-09
-2.55413e-07
-1.24348e-08
-1.66978e-08
-2.55149e-07
-2.54444e-07
3.0606e-08
2.52257e-07
-2.56464e-07
2.51418e-08
-2.58286e-07
1.96091e-08
-2.59881e-07
1.40557e-08
-2.61225e-07
8.52898e-09
-2.62296e-07
3.07659e-09
-2.63071e-07
-2.2516e-09
-2.63526e-07
-7.40257e-09
-2.63642e-07
-1.23191e-08
-1.69385e-08
-2.63401e-07
-2.61006e-07
3.31561e-08
2.58455e-07
-2.63397e-07
2.75327e-08
-2.656e-07
2.18103e-08
-2.6758e-07
1.60362e-08
-2.69309e-07
1.02576e-08
-2.70754e-07
4.5222e-09
-2.71885e-07
-1.12023e-09
-2.72671e-07
-6.61663e-09
-2.73081e-07
-1.19091e-08
-1.69325e-08
-2.73087e-07
-2.67121e-07
3.62493e-08
2.64029e-07
-2.7004e-07
3.04508e-08
-2.72764e-07
2.45338e-08
-2.75268e-07
1.85403e-08
-2.77524e-07
1.25141e-08
-2.79503e-07
6.50064e-09
-2.81171e-07
5.47816e-10
-2.82495e-07
-5.29264e-09
-2.8344e-07
-1.09637e-08
-1.64002e-08
-2.83972e-07
-2.72454e-07
3.9942e-08
2.68761e-07
-2.75974e-07
3.39709e-08
-2.79306e-07
2.7866e-08
-2.8243e-07
2.16642e-08
-2.85322e-07
1.54056e-08
-2.87954e-07
9.13243e-09
-2.90296e-07
2.89012e-09
-2.92317e-07
-3.27168e-09
-2.93983e-07
-9.29783e-09
-1.51249e-08
-2.95258e-07
-2.76607e-07
4.4236e-08
2.72313e-07
-2.80743e-07
3.81073e-08
-2.84707e-07
3.183e-08
-2.88481e-07
2.54372e-08
-2.92041e-07
1.89656e-08
-2.95363e-07
1.24546e-08
-2.98421e-07
5.94755e-09
-3.01185e-07
-5.07533e-10
-3.03626e-07
-6.85671e-09
-1.30374e-08
-3.05713e-07
-2.79165e-07
4.90883e-08
2.74313e-07
-2.83876e-07
4.28183e-08
-2.88429e-07
3.63825e-08
-2.92802e-07
2.98099e-08
-2.9697e-07
2.31337e-08
-3.00905e-07
1.63902e-08
-3.04578e-07
9.61993e-09
-3.07953e-07
2.86845e-09
-3.10997e-07
-3.81249e-09
-1.03621e-08
-3.13673e-07
-2.79744e-07
5.44175e-08
2.74415e-07
-2.84944e-07
4.80177e-08
-2.8999e-07
4.14285e-08
-2.94854e-07
3.4674e-08
-2.99503e-07
2.77823e-08
-3.03897e-07
2.07847e-08
-3.07993e-07
1.37164e-08
-3.11743e-07
6.6178e-09
-3.1509e-07
-4.6524e-10
-7.47787e-09
-3.17973e-07
-2.78028e-07
6.01194e-08
2.72326e-07
-2.83606e-07
5.35962e-08
-2.89029e-07
4.68513e-08
-2.94257e-07
3.9902e-08
-2.99244e-07
3.27691e-08
-3.03935e-07
2.54762e-08
-3.08269e-07
1.80504e-08
-3.12174e-07
1.05236e-08
-3.15572e-07
2.93254e-09
-4.67691e-09
-3.18373e-07
-2.7378e-07
6.60841e-08
2.67815e-07
-2.79627e-07
5.94437e-08
-2.85316e-07
5.25404e-08
-2.90797e-07
4.53825e-08
-2.96009e-07
3.79816e-08
-3.00884e-07
3.0351e-08
-3.05341e-07
2.25075e-08
-3.0929e-07
1.4472e-08
-3.12628e-07
6.27065e-09
-2.06074e-09
-3.15243e-07
-2.66845e-07
7.22075e-08
2.60722e-07
-2.72865e-07
6.54633e-08
-2.78733e-07
5.84084e-08
-2.84391e-07
5.10406e-08
-2.8977e-07
4.33605e-08
-2.94789e-07
3.537e-08
-2.99356e-07
2.7074e-08
-3.03365e-07
1.84817e-08
-3.06702e-07
9.60767e-09
4.7802e-10
-3.09235e-07
-2.5713e-07
7.83944e-08
2.50943e-07
-2.63241e-07
7.15743e-08
-2.69226e-07
6.43931e-08
-2.75023e-07
5.68375e-08
-2.80559e-07
4.88963e-08
-2.85748e-07
4.05592e-08
-2.90493e-07
3.18192e-08
-2.94685e-07
2.26738e-08
-2.98204e-07
1.31269e-08
3.19514e-09
-3.00919e-07
-2.44586e-07
8.45542e-08
2.38426e-07
-2.50716e-07
7.7705e-08
-2.56771e-07
7.04473e-08
-2.62689e-07
6.2756e-08
-2.68401e-07
5.46078e-08
-2.73822e-07
4.59802e-08
-2.78857e-07
3.68547e-08
-2.83402e-07
2.72189e-08
-2.87343e-07
1.7068e-08
6.41236e-09
-2.9056e-07
-2.29201e-07
9.05914e-08
2.23164e-07
-2.35277e-07
8.37808e-08
-2.41352e-07
7.65224e-08
-2.47374e-07
6.87788e-08
-2.5328e-07
6.05136e-08
-2.58992e-07
5.16915e-08
-2.64419e-07
4.22823e-08
-2.69464e-07
3.22638e-08
-2.74021e-07
2.16256e-08
1.0377e-08
-2.77986e-07
-2.11008e-07
9.63952e-08
2.05204e-07
-2.16938e-07
8.97108e-08
-2.22968e-07
8.2553e-08
-2.29061e-07
7.48711e-08
-2.35161e-07
6.66137e-08
-2.41199e-07
5.77296e-08
-2.47089e-07
4.81731e-08
-2.52735e-07
3.79095e-08
-2.58031e-07
2.69215e-08
1.52202e-08
-2.62874e-07
-1.90101e-07
1.0183e-07
1.84666e-07
-1.95766e-07
9.53761e-08
-2.01657e-07
8.84443e-08
-2.07755e-07
8.09693e-08
-2.14023e-07
7.28814e-08
-2.20401e-07
6.41081e-08
-2.26808e-07
5.45801e-08
-2.33139e-07
4.42406e-08
-2.39275e-07
3.30568e-08
2.10369e-08
-2.4509e-07
-1.66656e-07
1.06724e-07
1.61763e-07
-1.71894e-07
1.00614e-07
-1.77501e-07
9.40512e-08
-1.83488e-07
8.69563e-08
-1.89844e-07
7.92379e-08
-1.96529e-07
7.07928e-08
-2.03461e-07
6.15125e-08
-2.10516e-07
5.12957e-08
-2.1753e-07
4.0071e-08
2.7828e-08
-2.24318e-07
-1.40982e-07
1.10861e-07
1.36845e-07
-1.4557e-07
1.05201e-07
-1.50679e-07
9.9156e-08
-1.5636e-07
9.26377e-08
-1.62651e-07
8.55288e-08
-1.69547e-07
7.7689e-08
-1.76981e-07
6.89464e-08
-1.84793e-07
5.91086e-08
-1.92731e-07
4.80088e-08
3.55865e-08
-2.00489e-07
-1.13572e-07
1.13985e-07
1.10449e-07
-1.17223e-07
1.08853e-07
-1.21521e-07
1.03454e-07
-1.26589e-07
9.77027e-08
-1.32538e-07
9.14785e-08
-1.39454e-07
8.46048e-08
-1.47341e-07
7.68333e-08
-1.56036e-07
6.78032e-08
-1.65046e-07
5.70199e-08
4.40624e-08
-1.73375e-07
-8.51751e-08
1.15814e-07
8.33474e-08
-8.75339e-08
1.11211e-07
-9.05875e-08
1.06507e-07
-9.45348e-08
1.01649e-07
-9.9607e-08
9.65494e-08
-1.06051e-07
9.10494e-08
-1.1411e-07
8.48922e-08
-1.23887e-07
7.75805e-08
-1.33495e-07
6.66313e-08
4.81177e-08
-1.39803e-07
-5.686e-08
1.161e-07
5.65743e-08
-5.75557e-08
1.11909e-07
-5.88365e-08
1.07788e-07
-6.09328e-08
1.03745e-07
-6.41554e-08
9.97711e-08
-6.89198e-08
9.58138e-08
-7.57008e-08
9.16728e-08
-8.01697e-08
8.45526e-08
-7.98953e-08
4.65463e-08
3.56464e-08
-1.14111e-07
-3.03084e-08
1.14828e-07
3.15807e-08
-2.9254e-08
1.10856e-07
-2.85629e-08
1.07099e-07
-2.84463e-08
1.0363e-07
-2.92194e-08
1.00544e-07
-3.13724e-08
9.79667e-08
-3.56969e-08
9.59974e-08
-2.84771e-08
7.92381e-08
-2.32199e-08
2.11519e-08
2.40496e-08
-7.52476e-08
-6.96233e-09
1.12189e-07
9.60156e-09
-4.31435e-09
1.08208e-07
-1.72663e-09
1.04511e-07
6.94043e-10
1.01209e-07
2.77766e-09
9.84608e-08
4.2345e-09
9.65098e-08
4.17549e-09
9.55185e-08
1.2425e-09
7.52505e-08
-1.07748e-09
2.26375e-08
2.185e-08
-1.39944e-08
1.12636e-08
1.08881e-07
-7.95573e-09
1.45732e-08
1.04898e-07
1.77723e-08
1.01312e-07
2.06967e-08
9.82848e-08
2.31127e-08
9.60449e-08
2.4691e-08
9.49315e-08
2.47355e-08
9.5474e-08
7.34585e-09
7.51607e-08
3.10832e-09
2.63839e-08
2.40736e-08
1.45566e-09
2.54887e-08
1.05017e-07
-2.16244e-08
2.94777e-08
1.00909e-07
3.35253e-08
9.72648e-08
3.75467e-08
9.42634e-08
4.14491e-08
9.21425e-08
4.51702e-08
9.12103e-08
4.87557e-08
9.18885e-08
2.23527e-08
8.30883e-08
1.36016e-08
2.98202e-08
2.32284e-08
1.48878e-08
3.59192e-08
1.00586e-07
-3.14884e-08
4.07662e-08
9.60625e-08
4.60904e-08
9.19406e-08
5.1983e-08
8.83707e-08
5.85863e-08
8.55393e-08
6.61303e-08
8.36662e-08
7.50155e-08
8.30033e-08
5.62608e-08
7.90794e-08
2.62019e-08
3.77138e-08
2.15749e-08
2.81642e-08
4.14288e-08
9.60324e-08
-3.68752e-08
4.65965e-08
9.0895e-08
5.24981e-08
8.60391e-08
5.92824e-08
8.15864e-08
6.71292e-08
7.76924e-08
7.62484e-08
7.45469e-08
8.68605e-08
7.23912e-08
9.45227e-08
7.14172e-08
2.50349e-08
4.80472e-08
1.8314e-08
2.82027e-08
4.18316e-08
9.19262e-08
-3.77253e-08
4.66308e-08
8.6096e-08
5.22703e-08
8.03996e-08
5.89266e-08
7.493e-08
6.68072e-08
6.98117e-08
7.61508e-08
6.52032e-08
8.72339e-08
6.13081e-08
1.00221e-07
5.84298e-08
3.40104e-08
4.88595e-08
1.61372e-08
2.77961e-08
3.77036e-08
8.88108e-08
-3.45882e-08
4.14683e-08
8.23313e-08
4.60299e-08
7.5838e-08
5.1563e-08
6.93968e-08
5.82784e-08
6.30962e-08
6.64353e-08
5.70462e-08
7.63722e-08
5.13713e-08
8.86006e-08
4.62015e-08
6.17829e-08
3.82233e-08
1.75197e-08
2.5453e-08
3.05304e-08
8.69818e-08
-2.87013e-08
3.29187e-08
7.99429e-08
3.60025e-08
7.27541e-08
3.99277e-08
6.54714e-08
4.4863e-08
5.81609e-08
5.1018e-08
5.08911e-08
5.86752e-08
4.37142e-08
6.82501e-08
3.66266e-08
7.70554e-08
2.9418e-08
1.81342e-08
1.99558e-08
2.20618e-08
8.64149e-08
-2.14949e-08
2.31783e-08
7.88264e-08
2.50037e-08
7.09285e-08
2.76794e-08
6.27955e-08
3.13394e-08
5.45007e-08
3.61312e-08
4.60993e-08
4.22399e-08
3.76054e-08
4.99105e-08
2.89559e-08
5.93984e-08
1.993e-08
9.77375e-09
5.56929e-08
1.32792e-08
8.6982e-08
-1.38462e-08
1.33929e-08
7.87128e-08
1.44478e-08
6.98735e-08
1.66425e-08
6.06008e-08
2.0139e-08
5.1004e-08
2.5085e-08
4.11531e-08
3.16261e-08
3.1064e-08
3.99162e-08
2.06659e-08
5.00929e-08
9.75322e-09
-2.12158e-09
6.19882e-08
3.92928e-09
8.88109e-08
-5.75814e-09
3.00101e-09
7.9641e-08
3.41788e-09
6.94565e-08
5.47729e-09
5.85413e-08
9.41911e-09
4.70622e-08
1.54751e-08
3.50973e-08
2.38686e-08
2.26706e-08
3.47963e-08
9.7382e-09
4.83853e-08
-3.83585e-09
-1.82898e-08
6.45534e-08
-7.10573e-09
9.26587e-08
3.25786e-09
-9.80709e-09
8.23424e-08
-1.07228e-08
7.03721e-08
-9.54242e-09
5.73608e-08
-5.9713e-09
4.34911e-08
3.04404e-10
2.88216e-08
9.58728e-09
1.33877e-08
2.21221e-08
-2.79666e-09
3.80515e-08
-1.97653e-08
-3.7545e-08
5.73068e-08
-1.83646e-08
8.13441e-08
1.26896e-08
-2.65912e-08
7.38573e-08
-3.01096e-08
7.38905e-08
-3.1259e-08
5.85102e-08
-2.95692e-08
4.18014e-08
-2.44594e-08
2.37117e-08
-1.54646e-08
4.39253e-09
-2.19267e-09
-1.60687e-08
1.5573e-08
-3.75307e-08
-5.98036e-08
3.78316e-08
-3.43438e-08
8.54412e-08
2.79226e-08
-3.35858e-08
7.14071e-08
-4.83079e-08
6.60122e-08
-6.14673e-08
5.47439e-08
-6.53268e-08
4.24676e-08
-6.24278e-08
2.08127e-08
-5.41368e-08
-3.89847e-09
-3.99101e-08
-3.02956e-08
-1.94046e-08
-5.80361e-08
-8.65576e-08
7.35002e-09
-5.59248e-08
1.02635e-07
5.50268e-08
-6.54249e-08
8.74705e-08
-6.92386e-08
7.58319e-08
-7.80758e-08
5.48213e-08
-1.05517e-07
4.35229e-08
-1.15234e-07
2.07697e-08
-1.07894e-07
-1.12387e-08
-9.20078e-08
-4.61817e-08
-6.76193e-08
-8.24125e-08
-1.19202e-07
-3.49555e-08
-9.02467e-08
1.26563e-07
8.72621e-08
-9.01461e-08
1.06047e-07
-9.99858e-08
8.987e-08
-1.07649e-07
6.37383e-08
-1.61784e-07
5.13773e-08
-1.78387e-07
2.72145e-08
-1.74073e-07
-1.55535e-08
-1.57604e-07
-6.25029e-08
-1.29028e-07
-1.08075e-07
-1.36619e-07
-8.92233e-08
-1.38444e-07
1.45206e-07
1.21196e-07
-1.55686e-07
1.41422e-07
-1.72487e-07
1.22018e-07
-1.4537e-07
7.89371e-08
-1.48625e-07
6.00773e-08
-2.07051e-07
3.63966e-08
-2.25298e-07
-1.19397e-08
-2.22663e-07
-6.99405e-08
-1.74789e-07
-1.30184e-07
-1.79218e-07
-1.27743e-07
-1.88754e-07
1.72108e-07
1.61882e-07
-2.16295e-07
1.69344e-07
-1.9327e-07
1.45868e-07
-1.45528e-07
8.9191e-08
-1.56449e-07
6.22857e-08
-1.59701e-07
2.85009e-08
-1.9105e-07
-2.25273e-08
-2.00595e-07
-9.76634e-08
-1.93128e-07
-1.70174e-07
-2.59434e-07
-1.41353e-07
-2.18112e-07
2.00978e-07
1.89253e-07
-2.24063e-07
1.86036e-07
-1.43381e-07
1.18043e-07
-1.51387e-07
8.74516e-08
-1.55643e-07
5.86101e-08
-2.04974e-07
2.58647e-08
-2.37508e-07
-3.65662e-08
-2.19141e-07
-1.1182e-07
-1.88036e-07
-1.84822e-07
-2.92128e-07
-1.36682e-07
-2.01225e-07
2.17305e-07
1.84822e-07
-1.34083e-07
1.37418e-07
-1.25531e-07
9.98501e-08
-1.26017e-07
7.87861e-08
-1.44959e-07
6.90549e-08
-1.32789e-07
1.47965e-08
-1.17743e-07
-4.86917e-08
-1.06108e-07
-1.10501e-07
-8.57919e-08
-1.20547e-07
-1.46439e-07
-4.95705e-08
-1.11499e-07
1.85396e-07
1.41249e-07
-7.28388e-08
1.09879e-07
-6.45013e-08
8.59349e-08
-5.25178e-08
8.71284e-08
-3.12678e-08
4.8969e-08
-1.22358e-08
-3.10259e-09
-5.52831e-09
-3.38623e-08
-1.04853e-09
-1.61044e-08
-1.2855e-09
-1.70316e-09
-5.71067e-09
1.19441e-08
-3.37213e-08
1.17895e-07
6.7225e-08
-1.43526e-08
1.02466e-07
5.64331e-09
9.51358e-08
3.04475e-08
7.52951e-08
4.52792e-08
3.53015e-08
2.46293e-08
-3.64588e-09
9.19947e-10
-3.502e-09
2.13181e-10
-5.28464e-10
-3.05331e-11
-1.34042e-09
-8.80337e-09
3.34049e-09
2.23092e-08
1.10652e-07
-5.9588e-09
4.6945e-08
1.04468e-07
7.57739e-08
9.71099e-08
8.78044e-08
6.51273e-08
5.76767e-08
2.69128e-08
3.66808e-09
4.47391e-10
2.69275e-11
6.84333e-11
-7.10013e-11
-4.81882e-10
1.668e-09
-3.14144e-09
-2.72724e-08
2.02344e-08
6.3946e-08
9.69858e-08
-4.35264e-08
1.20247e-07
1.04956e-07
1.30842e-07
8.1525e-08
1.40561e-07
5.96427e-08
8.3198e-09
9.9539e-09
7.03227e-10
5.1001e-10
7.65076e-10
-6.52745e-11
1.96161e-09
-1.74955e-09
1.03125e-08
-1.15909e-08
-1.01164e-07
8.49576e-08
1.30482e-07
9.2357e-08
-8.69614e-08
1.59146e-07
9.32179e-08
1.6136e-07
7.33092e-08
8.90263e-08
4.28491e-08
2.66854e-09
3.72886e-09
1.83512e-09
4.4484e-10
1.96346e-09
-7.37973e-10
6.2234e-09
-6.09535e-09
3.73303e-08
-4.33136e-08
-3.26502e-07
2.64945e-07
1.7336e-07
8.70869e-08
-9.61359e-08
1.89596e-07
7.72116e-08
1.93551e-07
6.19459e-08
5.53353e-08
3.00371e-08
3.11735e-09
2.13565e-09
2.87534e-09
-2.95954e-10
4.34067e-09
-3.15632e-09
2.34987e-08
-2.52929e-08
1.65563e-07
-1.83529e-07
-7.39215e-07
7.6591e-07
1.9873e-07
7.54019e-08
-1.2482e-07
2.13556e-07
6.24419e-08
2.25178e-07
5.05538e-08
2.41512e-08
1.79556e-08
4.36264e-09
1.30517e-09
3.83162e-09
-1.83e-09
1.28728e-08
-1.32387e-08
7.53267e-08
-8.85891e-08
4.87191e-07
-5.25866e-07
-1.07755e-06
8.89464e-07
2.03048e-07
5.86196e-08
-1.53701e-07
2.20795e-07
4.39778e-08
1.74473e-07
3.19457e-08
1.22517e-08
5.75749e-09
9.95386e-09
-1.39743e-09
1.20105e-08
-7.01151e-09
4.13082e-08
-4.3481e-08
3.21661e-07
-3.48952e-07
8.31675e-07
-1.01711e-06
-1.14902e-06
9.03866e-07
1.96879e-07
3.44899e-08
-1.72474e-07
2.23555e-07
1.68968e-08
1.3823e-07
2.75171e-09
9.30016e-09
-1.4239e-09
1.12677e-08
-7.26905e-09
3.11109e-08
-3.1888e-08
2.04533e-07
-2.19902e-07
7.61639e-07
-8.63605e-07
8.56173e-07
-1.11061e-06
-1.17149e-06
8.78822e-07
1.58192e-07
8.61878e-09
-1.3227e-07
1.96968e-07
-2.18382e-08
6.88065e-08
-3.95708e-08
2.47684e-08
-1.206e-08
3.09825e-08
-2.31292e-08
1.0879e-07
-1.14463e-07
5.60433e-07
-6.38035e-07
7.83985e-07
-1.06824e-06
8.2344e-07
-1.1499e-06
-1.18782e-06
8.39833e-07
1.11153e-07
-1.42976e-08
-8.81911e-08
1.49551e-07
-6.01913e-08
7.52378e-08
-1.17586e-07
3.74398e-08
-7.9505e-08
6.937e-08
-6.93579e-08
3.37067e-07
-3.93873e-07
7.02327e-07
-1.00694e-06
7.60745e-07
-1.12658e-06
7.85455e-07
-1.17464e-06
-1.20242e-06
8.00043e-07
1.21745e-07
-4.10545e-08
-9.49433e-08
1.58956e-07
-9.73572e-08
1.53659e-07
-1.55987e-07
5.27692e-08
-8.72947e-08
1.76376e-07
-2.0955e-07
6.21372e-07
-8.36319e-07
7.04635e-07
-1.09012e-06
7.36446e-07
-1.15836e-06
7.54414e-07
-1.19257e-06
-1.21275e-06
7.64745e-07
1.50939e-07
-6.82404e-08
-1.23708e-07
1.68958e-07
-1.1532e-07
1.02394e-07
-5.17327e-08
1.32551e-07
-1.0368e-07
4.62398e-07
-5.36948e-07
6.65319e-07
-1.03896e-06
7.04888e-07
-1.12964e-06
7.19181e-07
-1.17265e-06
7.25573e-07
-1.19896e-06
-1.21479e-06
7.27618e-07
1.04018e-07
-6.23704e-08
-1.09833e-07
4.85115e-08
-3.70799e-08
4.80409e-08
-3.44929e-08
2.01998e-07
-2.4118e-07
5.8895e-07
-9.2664e-07
6.43576e-07
-1.09369e-06
6.62034e-07
-1.14812e-06
6.70486e-07
-1.1811e-06
6.74217e-07
-1.20269e-06
-1.21492e-06
6.74339e-07
1.818e-08
-1.38033e-09
-4.95703e-08
6.92352e-09
-7.19424e-09
4.12677e-08
-6.76874e-08
4.01411e-07
-6.19461e-07
5.34546e-07
-1.06495e-06
5.72412e-07
-1.13164e-06
5.92342e-07
-1.16806e-06
6.04431e-07
-1.19319e-06
6.10863e-07
-1.20912e-06
-1.21625e-06
6.12193e-07
-3.47415e-09
-4.88909e-10
2.51615e-09
7.18645e-09
-1.79249e-08
1.16198e-07
-1.76738e-07
4.31396e-07
-9.29814e-07
4.81814e-07
-1.11541e-06
5.09872e-07
-1.15971e-06
5.29632e-07
-1.18782e-06
5.43001e-07
-1.20656e-06
5.502e-07
-1.21632e-06
-1.21738e-06
5.5133e-07
-1.15139e-09
-1.02429e-08
1.08337e-08
1.1067e-08
-3.01821e-08
2.40335e-07
-3.92909e-07
3.91981e-07
-1.07839e-06
4.3082e-07
-1.15426e-06
4.57002e-07
-1.18589e-06
4.763e-07
-1.20711e-06
4.89322e-07
-1.21958e-06
4.95772e-07
-1.22277e-06
-1.21709e-06
4.95487e-07
1.36921e-08
-2.61582e-09
-4.19177e-08
2.67056e-08
-4.43956e-08
3.25073e-07
-6.77848e-07
3.76732e-07
-1.12884e-06
4.00966e-07
-1.17847e-06
4.19849e-07
-1.20478e-06
4.34693e-07
-1.22196e-06
4.44621e-07
-1.22951e-06
4.48478e-07
-1.22663e-06
-1.21398e-06
4.45366e-07
5.69211e-09
-5.6878e-09
-3.56603e-09
7.39738e-08
-1.14419e-07
3.23881e-07
-9.08535e-07
3.49589e-07
-1.15442e-06
3.66452e-07
-1.19533e-06
3.81876e-07
-1.2202e-06
3.94696e-07
-1.23478e-06
4.03175e-07
-1.23799e-06
4.05685e-07
-1.22914e-06
-1.20902e-06
4.00728e-07
3.68653e-09
-1.11954e-08
9.21901e-10
1.31621e-07
-2.18986e-07
2.81748e-07
-1.04892e-06
3.08011e-07
-1.18064e-06
3.27843e-07
-1.21515e-06
3.44309e-07
-1.23667e-06
3.5709e-07
-1.24756e-06
3.65312e-07
-1.24621e-06
3.67737e-07
-1.23157e-06
-1.20395e-06
3.62661e-07
6.81054e-09
-1.48129e-08
-4.15171e-09
1.81934e-07
-3.85364e-07
2.63311e-07
-1.12793e-06
2.84687e-07
-1.202e-06
3.00314e-07
-1.23078e-06
3.12932e-07
-1.24928e-06
3.22855e-07
-1.25748e-06
3.29451e-07
-1.25281e-06
3.31533e-07
-1.23365e-06
-1.19969e-06
3.27274e-07
1.11091e-08
-1.46592e-08
-1.08375e-08
2.0991e-07
-5.79285e-07
2.49349e-07
-1.16691e-06
2.62207e-07
-1.21485e-06
2.71269e-07
-1.23984e-06
2.79131e-07
-1.25714e-06
2.85621e-07
-1.26397e-06
2.89715e-07
-1.2569e-06
2.90202e-07
-1.23413e-06
-1.19536e-06
2.85878e-07
1.36945e-08
-2.43494e-08
-3.18254e-09
2.06906e-07
-7.67547e-07
2.23635e-07
-1.18361e-06
2.29867e-07
-1.22108e-06
2.35553e-07
-1.24553e-06
2.41233e-07
-1.26283e-06
2.45787e-07
-1.26853e-06
2.47843e-07
-1.25896e-06
2.45928e-07
-1.23222e-06
-1.18718e-06
2.37746e-07
4.34575e-08
-6.5055e-08
-3.7252e-10
1.7185e-07
-8.95599e-07
1.83143e-07
-1.1949e-06
1.90262e-07
-1.2282e-06
1.97204e-07
-1.25247e-06
2.03482e-07
-1.2691e-06
2.08137e-07
-1.27318e-06
2.10595e-07
-1.26142e-06
2.10636e-07
-1.23226e-06
-1.18464e-06
2.08089e-07
5.43561e-08
-1.19913e-07
-6.35418e-13
1.37634e-07
-9.84275e-07
1.49743e-07
-1.20701e-06
1.58447e-07
-1.23691e-06
1.657e-07
-1.25972e-06
1.71301e-07
-1.2747e-06
1.74675e-07
-1.27656e-06
1.75641e-07
-1.26238e-06
1.74221e-07
-1.23084e-06
-1.1804e-06
1.69989e-07
5.86923e-08
-1.85963e-07
-1.90761e-12
1.23137e-07
-1.05887e-06
1.31838e-07
-1.21571e-06
1.38114e-07
-1.24318e-06
1.43584e-07
-1.26519e-06
1.47925e-07
-1.27905e-06
1.50617e-07
-1.27925e-06
1.51792e-07
-1.26356e-06
1.51681e-07
-1.23073e-06
-1.17825e-06
1.49525e-07
6.12419e-08
-2.68667e-07
-5.41634e-12
1.07764e-07
-1.11884e-06
1.15186e-07
-1.22314e-06
1.20906e-07
-1.2489e-06
1.26141e-07
-1.27043e-06
1.30533e-07
-1.28344e-06
1.33853e-07
-1.28257e-06
1.36908e-07
-1.26661e-06
1.40343e-07
-1.23416e-06
-1.17955e-06
1.41645e-07
6.3169e-08
-3.68084e-07
-1.53594e-11
9.4317e-08
-1.16228e-06
1.0112e-07
-1.22995e-06
1.0704e-07
-1.25482e-06
1.12719e-07
-1.27611e-06
1.17586e-07
-1.2883e-06
1.21893e-07
-1.28688e-06
1.27428e-07
-1.27215e-06
1.35584e-07
-1.24232e-06
-1.18302e-06
1.39051e-07
6.22092e-08
-4.70427e-07
-3.88106e-11
8.19788e-08
-1.19022e-06
8.86322e-08
-1.23661e-06
9.50498e-08
-1.26124e-06
1.01342e-07
-1.2824e-06
1.06406e-07
-1.29337e-06
1.11136e-07
-1.29161e-06
1.18337e-07
-1.27935e-06
1.3048e-07
-1.25446e-06
-1.18179e-06
1.29247e-07
5.61521e-08
-5.58659e-07
-1.0731e-10
6.92974e-08
-1.20754e-06
7.63651e-08
-1.24368e-06
8.35112e-08
-1.26839e-06
9.0166e-08
-1.28906e-06
9.46659e-08
-1.29787e-06
9.88131e-08
-1.29575e-06
1.06065e-07
-1.2866e-06
1.20177e-07
-1.26858e-06
-1.15816e-06
1.03324e-07
4.67919e-08
-6.2603e-07
-1.42671e-10
5.69877e-08
-1.21945e-06
6.44482e-08
-1.25114e-06
7.21089e-08
-1.27605e-06
7.80052e-08
-1.29495e-06
8.06734e-08
-1.30054e-06
8.28211e-08
-1.2979e-06
8.77332e-08
-1.29151e-06
9.97401e-08
-1.28058e-06
-1.12248e-06
7.22419e-08
3.83965e-08
-6.74637e-07
-9.02222e-11
4.68844e-08
-1.22838e-06
5.41132e-08
-1.25837e-06
6.17064e-08
-1.28364e-06
6.51293e-08
-1.29837e-06
6.49197e-08
-1.30033e-06
6.39459e-08
-1.29693e-06
6.42742e-08
-1.29184e-06
6.89421e-08
-1.28525e-06
-1.08969e-06
4.23218e-08
3.57377e-08
-7.11553e-07
-9.19025e-13
4.10752e-08
-1.23375e-06
4.72489e-08
-1.26454e-06
5.36203e-08
-1.29001e-06
5.30359e-08
-1.29779e-06
4.98979e-08
-1.29719e-06
4.6077e-08
-1.29311e-06
4.22158e-08
-1.28798e-06
3.98466e-08
-1.28288e-06
-1.06483e-06
1.95881e-08
4.02045e-08
-7.46321e-07
-1.63303e-11
3.95762e-08
-1.23309e-06
4.47879e-08
-1.26975e-06
4.79862e-08
-1.29321e-06
4.27743e-08
-1.29258e-06
3.7068e-08
-1.29148e-06
3.09982e-08
-1.28704e-06
2.37929e-08
-1.28078e-06
1.58039e-08
-1.27489e-06
-1.04982e-06
4.12772e-09
4.54335e-08
-7.84301e-07
-1.51257e-10
3.94378e-08
-1.2271e-06
4.55782e-08
-1.2759e-06
4.37496e-08
-1.29138e-06
3.48416e-08
-1.28367e-06
2.71805e-08
-1.28382e-06
1.9991e-08
-1.27985e-06
1.09072e-08
-1.27169e-06
-2.88769e-10
-1.26369e-06
-1.04786e-06
3.02122e-37
4.65184e-08
-8.25412e-07
-6.45399e-11
3.99987e-08
-1.22058e-06
4.76943e-08
-1.28359e-06
4.01418e-08
-1.28383e-06
2.91574e-08
-1.27269e-06
1.98653e-08
-1.27453e-06
1.28027e-08
-1.27278e-06
3.67671e-09
-1.26257e-06
-9.51643e-09
-1.2505e-06
-1.05738e-06
1.69459e-39
4.12757e-08
-8.64132e-07
-1.74186e-11
4.17974e-08
-1.2211e-06
4.84318e-08
-1.29022e-06
3.66359e-08
-1.27203e-06
2.50151e-08
-1.26106e-06
1.42007e-08
-1.26371e-06
7.87043e-09
-1.26645e-06
1.41658e-09
-1.25611e-06
-1.21202e-08
-1.23696e-06
-1.06934e-06
1.09138e-66
2.98436e-08
-8.92911e-07
-4.56261e-12
4.40806e-08
-1.23533e-06
4.62686e-08
-1.29241e-06
3.26158e-08
-1.25838e-06
2.08855e-08
-1.24933e-06
8.92071e-09
-1.25175e-06
2.03706e-09
-1.25957e-06
2.5527e-09
-1.25663e-06
-6.27276e-09
-1.22813e-06
-1.07614e-06
3.01369e-79
1.55991e-08
-9.07857e-07
-1.98951e-13
4.55075e-08
-1.26524e-06
4.1723e-08
-1.28863e-06
2.79594e-08
-1.24462e-06
1.66405e-08
-1.23802e-06
4.57582e-09
-1.23968e-06
-7.23128e-09
-1.24776e-06
-7.24041e-12