/*--------------------------------*- C++ -*----------------------------------*\
  =========                 |
  \\      /  F ield         | OpenFOAM: The Open Source CFD Toolbox
   \\    /   O peration     | Website:  https://openfoam.org
    \\  /    A nd           | Version:  8
     \\/     M anipulation  |
\*---------------------------------------------------------------------------*/
FoamFile
{
    version     2.0;
    format      ascii;
    class       volScalarField;
    location    "3.25";
    object      alpha.water;
}
// * * * * * * * * * * * * * * * * * * * * * * * * * * * * * * * * * * * * * //

dimensions      [0 0 0 0 0 0 0];

internalField   nonuniform List<scalar> 
9150
(
1
1
1
1
1
1
1
1
1
1
1
1
1
1
1
1
1
1
1
1
1
1
1
1
1
1
1
1
1
1
1
1
1
1
1
1
1
1
1
1
1
1
1
1
1
1
1
1
1
1
1
1
1
1
1
1
1
1
1
1
1
1
1
1
1
1
1
1
1
1
1
1
1
1
1
1
1
1
1
1
1
1
1
1
1
1
1
1
1
1
1
1
1
1
1
1
1
1
1
1
1
1
1
1
1
1
1
1
1
1
1
1
1
1
1
1
1
1
1
1
1
1
1
1
1
1
1
1
1
1
1
1
1
1
1
1
1
1
1
1
1
1
1
1
1
1
1
1
1
1
1
1
1
1
1
1
1
1
1
1
0.999999
1
1
1
1
1
1
1
1
1
0.999999
1
1
1
1
1
1
1
1
1
0.999998
1
1
1
1
1
1
1
1
1
1
1
1
1
1
1
1
0.999999
0.999999
1
1
1
1
1
1
0.999999
0.999997
0.999998
0.999999
1
1
1
1
0.999999
0.999996
0.999995
0.999996
0.999999
0.999999
0.999999
1
1
1
0.999993
0.999971
0.999973
0.999975
0.999953
0.999938
0.999916
1
1
1
0.999999
0.999984
0.996755
0.990559
0.988376
0.993093
1
1
1
1
0.999993
0.999792
0.975999
0.899894
0.903661
0.969925
1
1
1
0.997074
0.918905
0.878768
0.878894
0.879134
0.962018
1
1
0.997242
0.916159
0.878457
0.878491
0.878491
0.891176
0.995727
1
1
1
0.878188
0.878306
0.878424
0.878457
0.941659
1
1
1
1
1
0.878188
0.878188
0.885918
0.991241
1
1
1
1
1
1
0.878188
0.927726
0.999998
1
1
1
1
1
1
0.999992
0.970637
0.999998
1
1
1
1
1
1
0.999998
0.999582
0.999998
1
1
1
1
1
1
1
0.999999
0.999569
0.999996
0.999996
0.999995
0.999999
1
1
1
1
1
1
0.999996
0.999993
0.999993
0.999997
1
1
1
1
1
1
0.999994
0.999993
0.999994
1
1
1
1
1
1
1
0.999993
0.999993
0.999997
1
1
1
1
1
1
1
0.999996
0.999998
1
1
1
1
1
1
1
1
1
1
1
1
1
1
1
1
1
1
1
1
1
1
1
1
1
1
1
1
1
1
1
1
1
1
1
0.999999
0.999999
1
1
1
1
1
1
1
1
0.999999
0.999999
0.999998
1
1
1
1
0.999999
0.999999
0.999999
1
1
0.999999
1
1
1
1
1
1
1
1
1
0.999998
1
1
1
1
1
1
1
1
0.999999
0.999991
1
1
1
1
1
1
1
1
0.999999
0.999996
1
1
1
1
1
1
1
1
0.999999
0.999999
1
1
1
1
1
1
1
1
1
1
1
1
1
1
1
1
1
1
1
1
1
1
1
1
0.999999
0.999999
1
1
1
0.999998
1
1
1
1
1
1
0.999999
0.999999
0.999998
0.999992
0.999999
0.99999
0.999989
1
1
1
0.999999
0.999999
0.999999
0.999999
0.999995
0.99998
0.99998
0.999997
1
1
1
1
0.999999
0.99984
0.999995
0.99998
0.99998
0.999982
0.999999
1
1
0.999999
0.999992
0.989657
0.999998
0.999984
0.99998
0.99998
0.999995
1
0.999999
0.991665
0.838242
0.774726
0.999997
0.999996
0.999988
0.999988
0.999997
1
0.999983
0.884287
0.427941
0.483809
0.999998
1
1
1
1
1
0.997807
0.812834
0.221621
0.267782
1
1
1
1
1
1
1
0.743361
0.217153
0.213848
1
1
1
1
1
1
1
0.814246
0.233699
0.212913
1
1
1
1
1
1
1
0.942866
0.313669
0.21021
1
1
1
1
1
1
1
1
0.496688
0.208219
1
1
1
1
1
1
1
1
0.724761
0.214334
1
1
1
1
1
1
1
1
0.912961
0.307503
1
1
1
1
1
1
1
1
1
0.621082
1
1
1
1
1
1
1
1
1
0.975748
1
1
1
1
1
1
1
1
1
1
1
1
1
1
1
1
1
1
1
1
1
1
1
1
1
1
1
1
1
1
0.905407
0.957622
1
1
1
1
1
1
1
1
0.789779
0.787394
0.852436
0.951576
0.995895
1
1
1
1
0.999999
0.821217
0.778974
0.776457
0.793355
0.898363
0.986742
1
1
0.999988
0.999968
0.940474
0.787521
0.77448
0.77371
0.887663
0.997525
0.999998
0.999923
0.997882
0.972867
0.998604
0.941033
0.861122
0.725706
0.579158
0.836573
0.909203
0.925866
0.9139
0.845978
0.999927
0.999189
0.928206
0.549083
0.521218
0.521872
0.554851
0.858199
0.859663
0.858709
0.999912
0.98832
0.663443
0.520796
0.520706
0.566866
0.958823
0.960171
0.961103
0.97321
0.999614
0.825065
0.52299
0.520095
0.714376
0.963583
0.961615
0.955378
0.848413
0.753903
0.934081
0.549601
0.529068
0.667718
0.964167
0.963875
0.875845
0.473995
0.186751
0.0696352
0.697459
0.553061
0.612225
0.945548
0.964167
0.825303
0.252046
0.00524373
0.00544038
0.0055497
0.609159
0.598218
0.884453
0.952678
0.895793
0.238795
0.00524311
0.00524375
0.00523802
0.0054482
0.612254
0.783819
0.952382
0.951776
0.475337
0.00922121
0.00532215
0.00524076
0.00530222
0.00693607
0.629058
0.929546
0.948383
0.841471
0.157073
0.00631679
0.0058564
0.00532215
0.00581474
0.0130962
0.744879
0.942272
0.944088
0.677252
0.0550799
0.00672471
0.00634016
0.00599994
0.00829178
0.441617
0.822419
0.945323
0.942272
0.533229
0.020272
0.00940698
0.00667945
0.00857785
0.151746
0.796595
0.904149
0.948023
0.934819
0.35708
0.0147815
0.0121644
0.00906597
0.0387999
0.713424
0.991377
0.948054
0.948679
0.860022
0.204532
0.0237182
0.0147594
0.0181575
0.607606
0.98826
0.997824
0.948708
0.948705
0.693924
0.0709237
0.0345627
0.0213552
0.299527
0.902085
0.996346
0.999275
0.948745
0.948713
0.747143
0.170799
0.043676
0.113818
0.811081
0.994916
0.999107
0.99985
0.948745
0.948745
0.936905
0.353022
0.0603546
0.692159
0.993203
0.998776
0.999784
0.999952
0.948745
0.948674
0.535833
0.138758
0.342791
0.910901
0.997427
0.999563
0.999927
0.999982
0.948675
0.763411
0.072789
0.0830397
0.800265
0.996088
0.999342
0.999907
0.999984
0.999996
0.756603
0.085392
0.0492483
0.391043
0.958391
0.998852
0.999873
0.999977
0.999997
0.999999
0.0350019
0.0349929
0.035025
0.807966
0.997836
0.999714
0.999965
0.999996
0.999999
1
0.0349921
0.035025
0.235678
0.941712
0.999193
0.99992
0.999989
0.999999
1
1
0.114301
0.026007
0.544645
0.991188
0.999666
0.999966
0.999997
1
1
1
0.0155084
0.0159882
0.75427
0.998421
0.999859
0.999987
0.999999
1
1
1
0.0155178
0.110751
0.892044
0.999303
0.999946
0.999996
1
1
1
1
0.015506
0.301174
0.963897
0.999657
0.999977
0.999998
1
1
1
1
0.0156747
0.453986
0.988454
0.999837
0.99999
0.999999
1
1
1
1
0.00844601
0.614481
0.998935
0.999935
0.999996
1
1
1
1
1
0.00176103
0.738974
0.999453
0.999974
0.999999
1
1
1
1
1
0.0844046
0.818659
0.999714
0.999988
0.999999
1
1
1
1
1
0.134668
0.874641
0.999847
0.999994
1
1
1
1
1
1
0.201659
0.922661
0.999926
0.999998
1
1
1
1
1
1
0.282959
0.957647
0.999966
0.999999
1
1
1
1
1
1
0.371885
0.980121
0.999985
1
1
1
1
1
1
1.00001
0.45144
0.991888
0.999994
1
1
1
1
1
1
0.992683
0.511842
0.996921
0.999997
1
1
1
1
1
1
0.913714
0.553498
0.998665
0.999998
1
1
1
1
1
1
0.871152
0.581955
0.999538
0.999998
1
1
1
1
1
1
0.843083
0.606481
0.999894
0.999999
1
1
1
1
1
1
0.826958
0.639524
0.999928
0.999999
1
1
1
1
1
0.999865
0.823788
0.685897
0.999948
0.999999
1
1
1
1
1
1
0.842625
0.743012
0.999969
1
1
1
1
1
1
1
0.86335
0.806483
0.999988
1
1
1
1
1
1
1
0.888404
0.877191
0.999997
1
1
1
1
1
1
1
0.920262
0.944052
1
1
1
1
1
1
1
1
0.956936
1
1
1
1
1
1
1
1
1
1
1
1
1
1
1
1
1
1
1
1
0.999999
0.999988
0.999969
0.999971
0.999991
1
1
1
1
0.999998
0.999991
0.999999
0.999999
0.999999
1
1
1
1
1
0.999359
1
1
1
1
1
1
1
1
1
0.999997
0.999995
0.999998
1
1
1
1
1
0.999999
0.999991
0.999767
0.999285
0.999173
0.999793
0.999999
0.999999
0.999999
0.999999
0.999999
0.999999
0.999993
0.999884
0.999848
0.999988
0.999997
1
0.999998
0.999998
0.999997
0.9998
0.998884
1
1
0.999999
0.999994
0.999988
0.99999
0.999999
1
0.999999
0.999994
0.999691
0.995678
0.987529
0.978366
0.973751
0.97759
0.990166
0.995583
0.997853
0.998028
0.996984
0.997518
0.999999
0.999999
0.999996
0.999995
0.999998
0.999999
0.999999
0.999999
0.999969
0.9934
0.984948
0.986552
0.995305
0.999998
0.999998
0.999855
0.999028
0.998433
1
1
0.999994
0.999908
0.999757
0.99984
0.999999
1
0.999999
0.99998
0.995604
0.917922
0.896824
0.896807
0.897028
0.896688
0.896688
0.900366
0.98931
0.999998
0.998918
0.999555
0.999999
0.999984
0.999969
0.999968
0.999996
0.999999
0.999999
0.999999
0.99994
0.984242
0.972134
0.972134
0.972134
0.98483
0.990859
0.994229
0.994156
0.997133
1
0.999922
0.999756
0.999756
0.999756
0.999771
0.999986
1
1
1
0.998515
0.932172
0.896817
0.896765
0.896694
0.896687
0.896694
0.897044
0.962515
0.999998
0.999998
0.999999
0.999999
0.999865
0.999697
0.998876
0.998485
0.999999
0.999999
0.999991
0.999989
0.999941
0.989125
0.978952
0.97475
0.967481
0.967382
0.967351
0.967351
0.968077
0.999972
0.999766
0.999756
0.999756
0.99978
0.999995
1
1
1
1
1
1
0.999918
0.998309
0.938908
0.896769
0.93994
0.999998
0.999998
0.999998
0.999998
0.999998
0.999997
0.999874
0.990848
0.966342
0.960475
0.988936
0.998139
0.999989
0.999981
0.999856
0.999847
0.99986
0.999905
0.997739
0.987463
0.978358
0.97097
0.96807
0.999998
0.999982
0.999815
0.999758
0.999956
1
1
1
1
1
1
1
1
1
0.999999
0.999998
0.999998
0.999998
0.999998
0.999998
0.999998
0.999998
0.999995
0.998801
0.965559
0.954778
0.95478
0.954779
0.961145
0.987682
0.991464
0.997538
0.996828
0.998529
0.999949
0.999954
0.999954
0.999954
0.999954
0.9885
0.99998
1
1
1
1
0.999998
0.999997
0.999999
1
1
1
1
1
0.999956
0.999544
0.999452
0.999907
0.999998
0.999973
0.999992
0.999996
0.999995
0.999982
0.999949
0.981319
0.954777
0.954778
0.954791
0.954801
0.9548
0.954801
0.965861
0.960098
0.969668
0.987778
0.999858
0.999954
0.999954
0.999953
0.999941
1
1
1
1
1
1
0.999959
0.999873
0.999901
0.99999
0.999998
1
0.999998
0.999997
0.999756
0.999464
0.999132
0.998988
0.993232
0.980403
0.985537
0.999988
0.999938
0.999501
0.999411
0.995381
0.968878
0.955197
0.954801
0.954801
0.955031
0.955554
0.955901
0.956176
0.965908
0.999896
0.999954
0.999914
0.998596
0.997595
1
1
1
1
0.999999
0.999996
0.999963
0.994482
0.964858
0.951404
0.981052
0.999999
0.999997
0.999991
0.999989
0.999981
0.999619
0.985663
0.89
0.82995
0.835583
0.953284
0.976379
0.993105
0.993292
0.994245
0.999573
0.999579
0.984293
0.96481
0.979222
0.979222
0.979222
0.971012
0.989137
0.997442
0.999952
0.999906
0.993336
0.988522
1
1
1
0.999999
0.999983
0.999737
0.994216
0.92248
0.804036
0.804239
0.827052
0.99237
0.999999
0.999999
0.999998
0.999981
0.998914
0.89811
0.829915
0.82993
0.829965
0.829967
0.829436
0.865524
0.900549
0.973197
0.999602
0.999592
0.999579
0.998998
0.965578
0.958292
0.958739
0.963043
0.967674
0.982099
0.991916
0.999649
0.991834
0.988514
1
1
1
0.999997
0.999966
0.998415
0.881907
0.804434
0.804239
0.804434
0.80437
0.807183
0.968232
0.999999
0.999999
0.999994
0.999963
0.959072
0.836393
0.829947
0.829954
0.829993
0.830082
0.830692
0.866528
0.971004
0.999661
0.999684
0.999078
0.991847
0.896018
0.841531
0.841019
0.840419
0.83478
0.843759
0.87181
0.949169
0.992063
0.990666
1
0.999999
0.999997
0.999992
0.99996
0.999609
0.900034
0.804474
0.804334
0.804371
0.804048
0.805025
0.940421
1
0.999999
0.999999
0.999993
0.999976
0.999935
0.906472
0.830266
0.830105
0.87077
0.98518
1
0.998867
0.996752
0.999794
0.998884
0.993536
0.940858
0.88618
0.852609
0.830433
0.827588
0.827562
0.827562
0.833004
0.99212
0.99212
0.999999
0.999838
0.999536
0.999596
0.99997
0.999999
0.999987
0.95572
0.81007
0.804365
0.807088
0.953918
1
1
0.999998
0.999813
0.999261
0.999342
0.999953
0.999999
1
0.985165
1
1
1
1
0.999989
0.999969
0.998852
0.998703
0.999962
0.999962
0.999952
0.977299
0.902812
0.827562
0.827561
0.827562
0.958535
0.99198
0.99979
0.999106
0.999108
0.999211
1
1
1
1
0.996192
0.959712
0.955261
0.997994
1
0.999999
0.99999
0.998664
0.997036
0.997034
0.998886
1
1
1
1
1
1
1
1
1
1
0.999998
0.999979
0.999949
0.999629
0.999551
0.999551
0.92811
0.827562
0.827561
0.874912
0.969921
0.999102
0.999102
0.999103
0.999288
1
1
1
1
1
1
1
1
1
0.999999
0.999905
0.997706
0.997036
0.997036
0.997325
1
1
1
1
1
1
1
1
1
0.99999
0.999775
0.995984
0.988446
0.994117
0.999551
0.998891
0.968662
0.827596
0.827569
0.82771
0.936885
0.999102
0.999103
0.999105
0.999782
1
1
1
1
1
1
1
1
1
1
0.999998
0.999587
0.997293
0.997048
0.999097
1
1
1
1
0.999999
0.999997
0.999997
0.999998
0.999995
0.999843
0.992424
0.957396
0.944417
0.948553
0.98056
0.9962
0.980294
0.899222
0.831889
0.833441
0.935516
0.999806
0.999158
0.999476
1
1
1
1
0.999999
0.999999
1
1
1
1
0.999999
0.999999
0.999991
0.999882
0.999751
0.999973
1
0.999996
0.999984
0.999989
0.99999
0.999907
0.999781
0.999583
0.999944
0.999441
0.970983
0.944308
0.944116
0.944212
0.943822
0.953793
0.983013
0.985556
0.976359
0.975048
0.976421
1
1
1
0.999999
0.999997
1
1
1
0.999963
0.999926
0.999962
0.999992
0.999999
0.999999
0.999999
0.999999
0.999999
0.999999
0.999999
1
0.999999
0.999969
0.999899
0.999816
0.998463
0.98758
0.981015
0.992737
0.997937
0.979287
0.944076
0.943857
0.944243
0.94421
0.944178
0.952555
0.986315
0.986767
0.986922
0.986922
1
1
1
1
1
1
1
0.999999
0.99996
0.99875
0.997967
0.997726
0.998626
0.999998
0.999999
0.999999
0.999999
0.999999
0.999999
0.999999
0.999999
0.999997
0.999923
0.999384
0.984808
0.975407
0.975396
0.975446
0.989713
0.999623
0.985437
0.943663
0.943883
0.944244
0.944136
0.944232
0.95636
0.971934
0.9796
0.986922
1
1
1
1
1
1
0.999999
0.999989
0.999885
0.997665
0.905799
0.767299
0.816089
0.994601
0.999996
0.999996
0.999997
1
0.999999
0.999999
0.999998
0.999996
0.999978
0.998286
0.978087
0.975398
0.975407
0.975497
0.990305
0.999695
0.999623
0.989995
0.944966
0.944136
0.943623
0.953992
0.948889
0.94873
0.94875
0.966681
1
1
1
1
0.999999
0.999991
0.999903
0.998898
0.984748
0.808383
0.59818
0.598084
0.598021
0.721215
0.982594
0.980555
0.991163
0.997075
0.999988
0.999998
0.999997
0.999997
0.999992
0.999947
0.991681
0.975407
0.975497
0.981666
0.999702
0.999726
0.999695
0.999586
0.992414
0.960973
0.968388
0.991459
0.981598
0.952102
0.948452
0.948452
1
1
1
1
0.999996
0.999963
0.999628
0.962897
0.662833
0.598128
0.598195
0.598546
0.598219
0.595949
0.597793
0.652449
0.846341
0.851099
0.961217
0.999997
0.999997
0.999997
0.999996
0.999971
0.999955
0.995122
0.980594
0.995001
0.999725
0.999793
0.998747
0.994878
0.994829
0.993721
0.991464
0.994587
0.997048
0.998349
0.96976
0.948452
1
1
1
0.999999
0.999994
0.999943
0.999421
0.930909
0.621778
0.598692
0.598561
0.597153
0.595859
0.631047
0.797557
0.819758
0.739311
0.739311
0.739824
0.984287
0.999997
0.999996
0.999976
0.999732
0.999657
0.999837
0.999838
0.99984
0.999426
0.999834
0.999269
0.984167
0.945565
0.930835
0.944069
0.972651
0.99835
0.998753
0.999043
0.987999
1
1
1
1
0.999999
0.999998
0.999993
0.999964
0.935928
0.648984
0.59884
0.598555
0.767257
0.999937
0.99992
0.999936
0.984049
0.806976
0.773738
0.96253
0.999995
0.999996
0.99996
0.999666
0.999656
0.999729
0.99984
0.99984
0.999829
0.999834
0.999834
0.99281
0.902545
0.610789
0.324373
0.440895
0.864536
0.999046
0.999044
0.999044
0.999998
0.999999
0.999999
0.999999
0.999999
0.999999
0.999999
0.999999
0.999999
0.997063
0.907591
0.866871
0.982755
0.99994
0.999916
0.999948
0.99995
0.999951
0.999949
0.995968
0.996559
0.999994
0.999961
0.999943
0.999739
0.99972
0.999729
0.99984
0.999837
0.999834
0.999834
0.999801
0.980255
0.572189
0.0499166
0.010165
0.291417
0.999036
0.999042
0.999039
0.99997
0.999927
0.99989
0.99993
0.999999
0.999999
0.999999
0.999999
0.999999
0.999999
0.999999
0.999999
0.999999
0.999946
0.999757
0.999821
0.999951
0.999949
0.999938
0.999922
0.999928
0.999983
0.999809
0.999925
0.999766
0.999749
0.999779
0.999837
0.999832
0.999825
0.999802
0.999678
0.971988
0.518951
0.0159952
0.00734382
0.112764
0.899211
0.999032
0.998634
0.999986
0.998725
0.995658
0.997558
0.999999
0.999999
0.999999
0.999999
0.999997
0.999994
0.999999
0.999999
0.999995
0.999967
0.999873
0.999803
0.999942
0.999938
0.99992
0.999898
0.999859
0.999845
0.999636
0.999639
0.999662
0.999738
0.999758
0.999775
0.999632
0.999403
0.988235
0.870622
0.440435
0.0413714
0.00484316
0.00666422
0.104769
0.869121
0.998797
0.998416
0.999293
0.995194
0.995085
0.995072
0.995888
0.999849
0.999988
0.999999
0.999984
0.99983
0.999745
0.999989
0.999862
0.99961
0.99959
0.999502
0.999599
0.999603
0.999516
0.997127
0.983584
0.969807
0.954647
0.920623
0.969538
0.999372
0.999352
0.997626
0.926314
0.753144
0.447549
0.109168
0.00422742
0.00437925
0.0046192
0.00586551
0.206592
0.925243
0.999128
0.998893
0.998419
0.995085
0.995072
0.995063
0.995072
0.995088
0.998138
0.999998
0.99999
0.999813
0.99794
0.996915
0.998325
0.965909
0.894228
0.849271
0.87084
0.896721
0.886423
0.81784
0.776389
0.755349
0.741536
0.71356
0.830962
0.973765
0.900093
0.609112
0.256802
0.0292097
0.00418495
0.00422223
0.00404842
0.00421461
0.00466306
0.00466722
0.338074
0.961378
0.999734
0.999774
0.999999
0.999831
0.996687
0.995062
0.99508
0.995132
0.996659
0.999996
0.999975
0.999962
0.998512
0.986763
0.869024
0.64657
0.527178
0.532348
0.533516
0.566887
0.601401
0.6321
0.655167
0.671716
0.690324
0.666712
0.601859
0.461827
0.220924
0.00537792
0.0041141
0.00411144
0.00415021
0.00418327
0.00419017
0.00424111
0.00425631
0.0046325
0.503685
0.97497
0.999768
0.999775
1
0.999997
0.999991
0.999933
0.999015
0.998222
0.999771
0.999998
0.999996
0.99997
0.99917
0.957627
0.598517
0.526373
0.526058
0.527245
0.60954
0.77327
0.86758
0.928536
0.945285
0.926066
0.858487
0.649237
0.260959
0.0486387
0.00409816
0.00411922
0.00407177
0.00409801
0.00411694
0.00415186
0.0041527
0.00543102
0.00461275
0.0566409
0.680189
0.975892
0.999741
0.999777
0.999999
0.999235
0.994905
0.994024
0.999381
0.999999
0.999999
0.999999
0.999998
0.999973
0.999683
0.961762
0.637177
0.526129
0.531845
0.803904
0.999998
0.999989
0.999983
0.999935
0.999407
0.947529
0.562788
0.150573
0.0129319
0.00410526
0.00409658
0.00407209
0.00405075
0.00403893
0.00692188
0.00417493
0.00422846
0.00478334
0.0250701
0.501588
0.79352
0.959228
0.999778
0.999778
0.999973
0.99522
0.986445
0.986452
0.991424
0.999999
0.999999
0.999999
0.999996
0.999969
0.999739
0.999376
0.937935
0.778006
0.898277
1
0.999999
0.999998
0.999948
0.999264
0.956358
0.423134
0.00728386
0.00408709
0.00411422
0.00410165
0.00409281
0.00407087
0.00403702
0.00401265
0.00747392
0.00830407
0.0047525
0.0290174
0.440717
0.825629
0.809464
0.952891
0.999778
0.999779
0.999209
0.988331
0.986452
0.986443
0.986539
0.998545
0.999999
0.999999
0.999984
0.999131
0.997939
0.99924
1
1
1
1
0.999999
0.999995
0.999917
0.998898
0.848134
0.134594
0.00408709
0.00411422
0.00411363
0.00413505
0.00413403
0.00406988
0.00405247
0.00424903
0.00621385
0.0160451
0.126315
0.492784
0.856095
0.878174
0.821501
0.974799
0.999779
0.999779
0.999991
0.997615
0.986622
0.986471
0.987661
0.999345
1
0.999999
0.99992
0.998277
0.997939
0.998316
1
1
1
0.999999
0.999998
0.999989
0.999894
0.998838
0.855174
0.157502
0.00417364
0.00411382
0.00412327
0.00412759
0.00424456
0.00419575
0.00420631
0.0268116
0.17493
0.421977
0.742855
0.909223
0.913723
0.907936
0.931687
0.995641
0.999778
0.999779
0.997321
0.997493
0.999655
0.99764
0.997192
0.999716
1
1
0.999996
0.999248
0.997939
0.99864
1
1
1
0.999996
0.999973
0.999969
0.999944
0.999669
0.998481
0.645981
0.0492597
0.00419965
0.00413108
0.00415913
0.00433076
0.0392281
0.214877
0.543515
0.843782
0.954906
0.940748
0.934088
0.925124
0.91995
0.997259
0.99939
0.999773
0.999778
0.962183
0.999697
1
1
1
1
1
0.999999
0.999967
0.999942
0.999965
0.999946
1
1
1
1
0.999959
0.999792
0.999787
0.999762
0.999631
0.999205
0.768991
0.269996
0.167858
0.17466
0.325652
0.648817
0.898252
0.99851
0.997201
0.988147
0.931903
0.887017
0.898738
0.97144
0.99899
0.997429
0.999104
0.99975
0.999996
1
0.99997
0.999966
0.999988
1
1
0.999989
0.999951
0.999963
1
1
1
1
1
1
0.999999
0.99974
0.998814
0.99873
0.999015
0.998873
0.998872
0.998824
0.959134
0.925487
0.98465
0.998802
0.998822
0.998791
0.996411
0.900287
0.87306
0.899772
0.976393
0.999057
0.998645
0.993669
0.994893
0.99938
1
1
0.999993
0.999994
1
1
1
0.999999
0.999988
0.999991
1
1
1
1
1
1
1
0.999996
0.998561
0.993428
0.993457
0.998872
0.998824
0.998748
0.998711
0.998719
0.998755
0.99882
0.998791
0.99851
0.972846
0.893763
0.919884
0.9943
0.998929
0.999071
0.994481
0.993665
0.993665
0.998786
0.940344
1
1
1
1
1
1
1
1
1
1
1
1
1
1
0.999999
0.999999
0.999993
0.999905
0.993975
0.977873
0.955657
0.998651
0.998696
0.998713
0.998704
0.998629
0.998557
0.997632
0.971316
0.905888
0.879831
0.956944
0.992174
0.998227
0.998895
0.993719
0.993669
0.993685
0.998503
0.772996
1
1
0.999999
0.999999
1
1
1
1
1
1
1
1
1
1
0.999998
0.999996
0.999966
0.999762
0.999379
0.987482
0.863945
0.885149
0.964232
0.980877
0.969471
0.93564
0.858215
0.668919
0.441504
0.352785
0.396906
0.449875
0.705477
0.979295
0.997563
0.994949
0.993719
0.993724
0.998619
0.314647
0.896431
1
0.999999
0.999999
0.999999
0.999999
1
1
1
1
1
1
1
1
0.999997
0.999978
0.999688
0.999639
0.999617
0.999617
0.930229
0.435694
0.358419
0.414349
0.372814
0.289942
0.192864
0.0864417
0.0199999
0.0200423
0.02006
0.020127
0.108194
0.584235
0.964686
0.99618
0.997826
0.995979
0.999348
0.208373
0.432313
0.94748
0.999969
0.999998
0.999999
0.999999
0.999999
1
1
1
0.999999
0.999996
0.999997
0.999998
0.999987
0.994123
0.940452
0.972375
0.997553
0.999617
0.999393
0.41055
0.0245967
0.0216219
0.0203677
0.0199349
0.019862
0.0199098
0.020011
0.0199999
0.0200493
0.0201205
0.0201816
0.106523
0.800065
0.994229
0.999837
0.999916
0.999827
0.207686
0.207309
0.46557
0.956701
0.999902
0.999988
0.999995
0.999997
0.999998
0.999999
0.999999
0.999984
0.999946
0.999968
0.999974
0.999841
0.810912
0.528573
0.66477
0.955433
0.999393
0.930063
0.386551
0.0658974
0.0325839
0.0212423
0.0200736
0.0199502
0.0200112
0.0199976
0.0200489
0.0205892
0.0201705
0.0202578
0.0203454
0.569229
0.990655
0.999862
0.999919
0.999919
0.207114
0.207167
0.206896
0.413746
0.899925
0.997164
0.999888
0.999916
0.999915
0.999971
0.999978
0.99973
0.99624
0.999383
0.999641
0.962349
0.529278
0.491403
0.493402
0.840074
0.997611
0.869938
0.561183
0.615033
0.59941
0.402134
0.104323
0.0207239
0.0202221
0.0201024
0.0215409
0.0232172
0.0218916
0.0203508
0.0204298
0.425437
0.98488
0.999784
0.999919
0.999919
0.207117
0.207258
0.207003
0.207143
0.249795
0.633455
0.902778
0.960822
0.987059
0.999692
0.999772
0.911369
0.709848
0.79625
0.878345
0.589732
0.482218
0.489882
0.495496
0.850533
0.988117
0.893633
0.996183
1
1
0.981339
0.700056
0.162537
0.0216424
0.0203869
0.0216022
0.0232172
0.0230637
0.0204646
0.0205545
0.384284
0.982038
0.99987
0.999919
0.999919
0.206906
0.206984
0.207177
0.207287
0.207406
0.207638
0.24565
0.404328
0.565812
0.818841
0.888094
0.586688
0.47625
0.475742
0.475831
0.474699
0.473737
0.58623
0.889069
0.993402
0.999828
1
1
1
1
1
1
0.783804
0.159732
0.0207819
0.0208766
0.0207709
0.0207779
0.0206666
0.0207023
0.423268
0.988208
0.999894
0.999921
0.999919
0.519038
0.216391
0.207294
0.207206
0.207565
0.208036
0.215
0.2252
0.230073
0.244112
0.400629
0.606265
0.543877
0.476755
0.475546
0.477518
0.735046
0.999605
0.999957
0.999994
1
1
1
1
1
1
1
1
0.73064
0.0930648
0.0206011
0.020642
0.0207825
0.0207793
0.0206775
0.580747
0.998503
0.9999
0.999919
0.999919
1
0.915042
0.564626
0.389043
0.484736
0.647652
0.60123
0.391769
0.367672
0.475441
0.755797
0.997878
0.988326
0.724899
0.655004
0.931644
1.00004
0.999972
0.999993
0.999998
0.999999
1
1
1
1
1
1
1
1
0.561084
0.0371868
0.020993
0.0208245
0.0206961
0.0206403
0.725652
0.998648
0.99945
0.999899
0.999918
1
0.999228
0.999999
0.999998
0.999998
0.999998
0.999998
0.9999
0.999949
0.999987
0.999995
0.999997
0.999998
0.999998
0.999998
0.999998
0.999999
0.999993
0.999968
0.999989
0.999998
0.999999
1
1
1
1
1
1
1
0.962604
0.351351
0.0219834
0.0209886
0.0208355
0.120409
0.840484
0.99683
0.997209
0.999863
0.999918
1
1
1
0.999999
0.999998
0.999998
0.999997
0.999992
0.999976
0.999937
0.999979
0.999995
0.999997
0.999998
0.999998
0.999998
0.999998
0.999962
0.999943
0.999914
0.999943
0.999988
0.999999
0.999999
1
1
1
0.99999
0.999996
0.999998
0.866787
0.164674
0.0218531
0.0209901
0.261358
0.897288
0.964515
0.996062
0.999913
0.999916
1
1
0.999999
0.999996
0.999996
0.999996
0.999992
0.999979
0.999931
0.999886
0.999893
0.99988
0.99995
0.999995
0.999998
0.999994
0.999919
0.99825
0.998294
0.998145
0.99912
0.999941
0.999988
0.999996
0.999999
1
0.999999
0.999982
0.999985
0.999998
0.999998
0.579048
0.035386
0.0218528
0.382509
0.739541
0.84876
0.99573
0.999914
0.999915
0.999997
0.999989
0.999963
0.99993
0.999933
0.999958
0.999889
0.998534
0.983825
0.985829
0.993756
0.997124
0.999758
0.999974
0.999993
0.999993
0.965661
0.847087
0.860066
0.949097
0.996654
0.999595
0.999809
0.999943
0.999991
0.999998
0.999999
0.999982
0.999992
0.999998
0.999998
0.734453
0.0994162
0.0707336
0.440538
0.477041
0.765099
0.999529
0.999913
0.999913
0.999891
0.998643
0.990526
0.978807
0.987788
0.999664
0.978192
0.934219
0.87861
0.878136
0.931204
0.992448
0.999162
0.999849
0.999964
0.999975
0.869876
0.731255
0.727604
0.728842
0.871903
0.970716
0.996468
0.999441
0.999921
0.999982
0.999996
0.999997
0.999998
0.999998
0.999998
0.526212
0.112396
0.124698
0.297391
0.399834
0.757309
0.999309
0.999897
0.999913
0.941827
0.911668
0.879542
0.864828
0.890596
0.961097
0.88592
0.87861
0.878131
0.878237
0.878237
0.971068
0.998736
0.999634
0.999856
0.999912
0.975336
0.793309
0.721157
0.71836
0.71836
0.717118
0.852346
0.985203
0.999143
0.999822
0.999962
0.999993
0.999998
0.999998
0.999997
0.447512
0.124018
0.122731
0.236306
0.418462
0.757129
0.999583
0.999888
0.999912
0.845978
0.845978
0.848377
0.859767
0.878062
0.907697
0.985404
0.932235
0.87861
0.881595
0.950722
0.999741
0.999532
0.999398
0.999701
0.99981
0.999773
0.999785
0.951288
0.749181
0.717118
0.71589
0.716742
0.733161
0.944695
0.998429
0.999646
0.999941
0.999988
0.999997
0.999982
0.544774
0.131114
0.124022
0.329062
0.572684
0.812675
0.999521
0.999906
0.99991
0.877975
0.913099
0.956233
0.996797
0.999779
0.999845
0.999853
0.999863
0.994676
0.99986
0.999838
0.999793
0.999645
0.999272
0.999693
0.999773
0.999784
0.999787
0.999787
0.999787
0.94297
0.726239
0.715877
0.721198
0.832451
0.988324
0.998301
0.999681
0.999933
0.999982
0.999927
0.500828
0.142458
0.131136
0.300339
0.688515
0.953134
0.999653
0.999903
0.999906
0.98996
0.997043
0.999077
0.999651
0.999811
0.999853
0.999863
0.999864
0.999863
0.999864
0.999858
0.999835
0.999794
0.999728
0.999648
0.999768
0.99978
0.999784
0.999786
0.999787
0.999785
0.985343
0.785319
0.819536
0.975508
0.997215
0.999203
0.999804
0.999898
0.999932
0.999898
0.571705
0.149228
0.142471
0.161132
0.696258
0.994458
0.998284
0.999882
0.999892
0.805305
0.929942
0.987347
0.997585
0.999589
0.999826
0.999853
0.999863
0.999863
0.999862
0.999843
0.999814
0.999751
0.999686
0.999637
0.999629
0.999657
0.999699
0.999764
0.999785
0.999785
0.999666
0.997746
0.998866
0.998953
0.994297
0.99522
0.999365
0.999804
0.999039
0.99927
0.717475
0.162938
0.149233
0.154825
0.639678
0.997086
0.999609
0.999729
0.999726
0.231612
0.782341
0.982164
0.996143
0.999139
0.999762
0.999828
0.999848
0.999846
0.999807
0.999709
0.999562
0.999294
0.999025
0.998971
0.998783
0.997754
0.997291
0.997503
0.998329
0.999275
0.999571
0.999309
0.999366
0.999406
0.996841
0.995159
0.995215
0.998684
0.999239
0.992476
0.877231
0.314735
0.154833
0.176548
0.724846
0.997728
0.99963
0.999747
0.999753
0.0660161
0.693321
0.989583
0.99737
0.999029
0.999585
0.999737
0.999805
0.999714
0.999478
0.998769
0.997103
0.99565
0.993004
0.979369
0.963522
0.963958
0.970258
0.979274
0.982185
0.988356
0.999493
0.999416
0.999399
0.9994
0.999396
0.997514
0.996163
0.999231
0.9993
0.989991
0.826387
0.516236
0.49326
0.637129
0.889956
0.998391
0.999708
0.999759
0.99976
0.0811232
0.773899
0.991861
0.997633
0.998834
0.999267
0.99958
0.999617
0.999157
0.997618
0.993515
0.946002
0.826681
0.62424
0.44177
0.331534
0.36092
0.430104
0.558559
0.85517
0.992253
0.998005
0.999203
0.999343
0.999396
0.999395
0.999394
0.999327
0.999212
0.999245
0.999273
0.809123
0.653714
0.888824
0.985627
0.983651
0.995226
0.999742
0.99976
0.99976
0.377251
0.943984
0.995384
0.998106
0.998682
0.998916
0.999336
0.998944
0.996567
0.988904
0.756985
0.41839
0.0331199
0.0302474
0.0297656
0.0296679
0.0296791
0.0300856
0.0428125
0.29809
0.520061
0.60557
0.874476
0.999022
0.999338
0.999394
0.99452
0.998702
0.999197
0.999195
0.999227
0.938734
0.859013
0.934139
0.996114
0.998592
0.998742
0.999782
0.999761
0.999634
0.719213
0.990932
0.997401
0.998659
0.998662
0.998638
0.998818
0.997588
0.986828
0.651884
0.0802202
0.0307737
0.0295463
0.0295106
0.0292922
0.0294052
0.029551
0.0307402
0.0337277
0.0331744
0.0367353
0.0508132
0.13474
0.452059
0.454617
0.516126
0.914524
0.998025
0.999023
0.999177
0.998763
0.998253
0.996997
0.979503
0.992603
0.999604
0.999793
0.999817
0.999754
0.999533
0.956984
0.996388
0.998688
0.999162
0.998818
0.998771
0.998539
0.991528
0.55838
0.0562521
0.0329861
0.0305416
0.0293366
0.0289044
0.0292997
0.0295696
0.0295362
0.0295138
0.0292134
0.0290375
0.332924
0.670732
0.681986
0.371333
0.34573
0.340346
0.375118
0.713134
0.99021
0.998931
0.998667
0.997885
0.99821
0.999119
0.997499
0.999551
0.999819
0.999824
0.999644
0.999532
0.993656
0.998518
0.999404
0.999339
0.999164
0.999221
0.996456
0.695189
0.116119
0.0367765
0.0321464
0.0312618
0.0307572
0.0468043
0.0320647
0.0295193
0.0295081
0.0295046
0.0295091
0.362886
0.678851
0.681986
0.683487
0.684197
0.365892
0.340364
0.34034
0.341218
0.452958
0.788771
0.998023
0.998178
0.99918
0.999565
0.99977
0.999806
0.999825
0.999825
0.999586
0.999532
0.998208
0.999494
0.999677
0.999475
0.999415
0.998873
0.875685
0.236074
0.041498
0.034963
0.0333058
0.0322606
0.0394872
0.052638
0.0527323
0.0382998
0.0295353
0.029514
0.029505
0.0296236
0.375397
0.682347
0.684763
0.685761
0.58817
0.48746
0.572055
0.383399
0.398702
0.403822
0.755633
0.997083
0.999543
0.999757
0.999814
0.999824
0.999825
0.999826
0.999648
0.999547
0.999461
0.999799
0.999719
0.999691
0.999483
0.997124
0.301908
0.0466826
0.0472158
0.046664
0.0579217
0.0333406
0.0428253
0.0526749
0.0527296
0.0527306
0.0349296
0.0297037
0.0325353
0.0314812
0.0326865
0.0759309
0.536509
0.692194
0.692865
0.694983
0.693867
0.692483
0.432388
0.390198
0.390399
0.904069
0.999507
0.999793
0.999822
0.999824
0.999824
0.999825
0.999614
0.999698
0.999837
0.999909
0.999797
0.999809
0.999704
0.678294
0.0699093
0.0366994
0.0435858
0.128544
0.146225
0.0630115
0.0290149
0.0290149
0.0290234
0.0291771
0.0367806
0.168818
0.312103
0.205828
0.038956
0.0481142
0.418046
0.694127
0.694955
0.695816
0.694955
0.693867
0.428183
0.387172
0.386394
0.598091
0.972111
0.999742
0.999824
0.999824
0.999825
0.999825
0.999341
0.999701
0.999943
0.999926
0.999948
0.999846
0.997594
0.236594
0.0251898
0.0335435
0.0742232
0.146225
0.146225
0.114722
0.029789
0.0290149
0.0291677
0.14065
0.514656
0.892151
0.889084
0.880586
0.711645
0.109602
0.394564
0.69751
0.696243
0.695839
0.641737
0.442634
0.388636
0.386567
0.38524
0.3816
0.884766
0.999682
0.999822
0.999824
0.999824
0.999602
0.999307
0.999702
0.999978
0.999945
0.999945
1.00128
0.613338