/*--------------------------------*- C++ -*----------------------------------*\
  =========                 |
  \\      /  F ield         | OpenFOAM: The Open Source CFD Toolbox
   \\    /   O peration     | Website:  https://openfoam.org
    \\  /    A nd           | Version:  8
     \\/     M anipulation  |
\*---------------------------------------------------------------------------*/
FoamFile
{
    version     2.0;
    format      ascii;
    class       volScalarField;
    location    "3.25";
    object      epsilon;
}
// * * * * * * * * * * * * * * * * * * * * * * * * * * * * * * * * * * * * * //

dimensions      [0 2 -3 0 0 0 0];

internalField   nonuniform List<scalar> 
9150
(
0.0313129
0.0124325
0.00309494
0.000937087
0.000444476
0.000444166
0.000936176
0.00309226
0.0124275
0.0313137
0.0302231
0.00873883
0.00172835
0.000601302
0.000334405
0.000334242
0.000600851
0.00172675
0.00873498
0.0302232
0.0284257
0.00693557
0.00111413
0.000492337
0.000298886
0.000298776
0.000492087
0.00111325
0.00693245
0.0284254
0.0264931
0.00599449
0.000834347
0.000459571
0.000287923
0.000287835
0.000459397
0.000833894
0.00599196
0.0264927
0.0244904
0.00558914
0.00069539
0.000452323
0.000286105
0.000286026
0.000452176
0.000695172
0.00558694
0.0244899
0.12344
0.0520607
0.0222614
0.0135381
0.00967358
0.00969675
0.0136091
0.0224228
0.0524632
0.123568
0.0761152
0.0229506
0.0129948
0.00861589
0.00600765
0.00601571
0.00864242
0.0130518
0.0229975
0.0761097
0.0553558
0.017849
0.00755999
0.0044963
0.00294475
0.00294652
0.00450345
0.00757351
0.017853
0.0553483
0.0425032
0.0152033
0.00476209
0.00227122
0.00133495
0.00133495
0.00227187
0.00476293
0.0151966
0.0424997
0.0356082
0.0136964
0.00350364
0.00129086
0.00067474
0.00067444
0.00129011
0.00350142
0.0136894
0.0356069
0.709789
0.155859
0.0488522
0.0212797
0.012509
0.0122084
0.0201992
0.0482255
0.174544
1.65883
0.273296
0.124902
0.0465125
0.020777
0.0124986
0.0123141
0.0201688
0.0446727
0.114037
0.281271
0.233869
0.105576
0.0448664
0.0203386
0.0125156
0.0124361
0.0201393
0.0443061
0.101804
0.235839
0.196401
0.0915959
0.0438856
0.0200082
0.0125627
0.0125556
0.0199902
0.0438092
0.0913277
0.197153
0.155985
0.0858957
0.0401566
0.0187821
0.0121876
0.0122147
0.0188593
0.0403465
0.0866004
0.156265
0.0345032
0.0354077
0.0363536
0.0373674
0.0384728
0.0396279
0.0408252
0.0420564
0.0433065
0.0445534
0.0161398
0.0164824
0.0168465
0.0172387
0.0176636
0.0181095
0.0185703
0.0190406
0.0195136
0.0199811
0.0138179
0.0141484
0.0144978
0.0148678
0.0152588
0.0156669
0.0160877
0.0165161
0.0169461
0.0173706
0.0140998
0.0144917
0.0149038
0.0153365
0.0157894
0.0162606
0.0167454
0.0172379
0.0177313
0.018218
0.015482
0.0159737
0.0164886
0.0170264
0.0175858
0.018165
0.0187597
0.0193621
0.0199637
0.0205549
0.0176408
0.0182636
0.0189133
0.019589
0.0202887
0.0210086
0.0217456
0.0224897
0.0232287
0.02395
0.0204924
0.0212742
0.0220865
0.0229281
0.0237963
0.0246865
0.0255912
0.0265012
0.0273985
0.0282654
0.0240166
0.024982
0.0259799
0.0270091
0.0280671
0.0291489
0.0302437
0.0313372
0.0324048
0.03342
0.0281995
0.0293685
0.0305697
0.0318012
0.0330594
0.0343413
0.0356355
0.0369197
0.0381571
0.0393035
0.0329959
0.0343794
0.0357911
0.0372287
0.0386851
0.040163
0.0416515
0.0431152
0.044484
0.0457245
0.0383141
0.039907
0.0415191
0.0431526
0.0448027
0.0464686
0.0481293
0.0497111
0.0511669
0.052493
0.0440651
0.0458598
0.0476681
0.0494968
0.051341
0.0531665
0.0549339
0.056592
0.0581206
0.0595154
0.0501931
0.0521846
0.054195
0.0562098
0.0581987
0.0601258
0.0619636
0.0636792
0.065258
0.0666972
0.0566578
0.0588504
0.06104
0.0631964
0.0652879
0.0672878
0.069172
0.0709202
0.0725231
0.0739794
0.063419
0.0657886
0.0681183
0.0703848
0.0725569
0.0746093
0.0765244
0.0782889
0.0798974
0.0813516
0.0704082
0.0729281
0.0753802
0.0777379
0.0799754
0.0820711
0.0840099
0.0857834
0.0873894
0.0888328
0.077576
0.080233
0.0827938
0.0852337
0.0875302
0.0896647
0.0916247
0.0934057
0.0950079
0.0964385
0.0848754
0.0876582
0.0903199
0.0928379
0.0951916
0.0973654
0.0993494
0.101142
0.102746
0.104168
0.0922238
0.095126
0.0978853
0.100481
0.102896
0.105116
0.107134
0.108951
0.11057
0.112
0.0994962
0.102513
0.105372
0.108052
0.110539
0.112821
0.114892
0.116755
0.118415
0.119881
0.106562
0.10969
0.11265
0.115424
0.117998
0.12036
0.122507
0.124445
0.12618
0.127722
0.113325
0.116555
0.119614
0.122484
0.125152
0.12761
0.129854
0.131893
0.133739
0.135404
0.1197
0.123019
0.126166
0.129127
0.131891
0.134452
0.136811
0.138975
0.140969
0.142811
0.125595
0.128991
0.132218
0.135264
0.138123
0.140794
0.143283
0.145602
0.147786
0.149864
0.130943
0.13441
0.137714
0.140848
0.143811
0.146609
0.149257
0.151777
0.154205
0.156594
0.135711
0.139252
0.142643
0.145881
0.148975
0.151938
0.154795
0.157581
0.160343
0.163154
0.139895
0.14353
0.147034
0.150414
0.153686
0.156874
0.160016
0.163161
0.166371
0.169725
0.143518
0.147278
0.150937
0.154509
0.158021
0.161509
0.165021
0.16862
0.172381
0.176393
0.146608
0.150532
0.154392
0.158214
0.162031
0.165889
0.169847
0.173977
0.178362
0.183097
0.149185
0.153312
0.157419
0.161539
0.165712
0.169992
0.174442
0.179139
0.184169
0.189626
0.151258
0.155619
0.160006
0.164456
0.169014
0.173734
0.178682
0.18393
0.18956
0.195657
0.152822
0.157435
0.162119
0.16691
0.171853
0.176999
0.182408
0.188143
0.194272
0.200864
0.153869
0.158737
0.163716
0.168839
0.174146
0.179679
0.185485
0.191611
0.198105
0.205013
0.154392
0.159507
0.164766
0.170199
0.175836
0.181706
0.187835
0.19425
0.200969
0.208014
0.1544
0.159742
0.16526
0.170975
0.176906
0.183065
0.189455
0.196071
0.202898
0.209924
0.153922
0.159467
0.165216
0.171186
0.177385
0.183805
0.19042
0.197186
0.204043
0.210934
0.15301
0.158729
0.164683
0.170886
0.177338
0.184016
0.190863
0.197785
0.204651
0.211331
0.151738
0.157598
0.163725
0.170137
0.176831
0.183779
0.190908
0.198069
0.205018
0.211443
0.15019
0.156157
0.16242
0.169002
0.175908
0.18312
0.190571
0.198109
0.205346
0.211495
0.148464
0.154502
0.160859
0.167561
0.174623
0.182041
0.189766
0.197645
0.205034
0.211027
0.146649
0.152726
0.159131
0.16589
0.17302
0.18052
0.188364
0.196388
0.203601
0.21028
0.144859
0.150971
0.157417
0.164227
0.171424
0.179022
0.186997
0.195134
0.201968
0.208348
0.143173
0.149346
0.155875
0.162793
0.170133
0.177913
0.186096
0.194447
0.201461
0.206692
0.141683
0.147962
0.154623
0.161698
0.169213
0.177162
0.185473
0.193968
0.201785
0.207124
0.140435
0.146871
0.15372
0.161008
0.168749
0.17692
0.185427
0.194133
0.202707
0.209858
0.139447
0.1461
0.153214
0.160819
0.168938
0.17757
0.186662
0.196134
0.205946
0.215603
0.138748
0.145678
0.153135
0.161162
0.169805
0.179106
0.189091
0.199749
0.211179
0.223413
0.138478
0.145764
0.153647
0.162185
0.171442
0.181497
0.19243
0.204305
0.217199
0.231266
0.139095
0.14692
0.155436
0.164707
0.174808
0.185829
0.197871
0.211024
0.225306
0.240697
0.141579
0.150408
0.160116
0.170787
0.182522
0.195439
0.20967
0.225337
0.24251
0.261121
0.147624
0.158441
0.170569
0.184164
0.199431
0.216616
0.236005
0.257902
0.282605
0.310151
0.159954
0.174632
0.191563
0.211097
0.23373
0.260097
0.291012
0.327449
0.370211
0.418621
0.183047
0.205147
0.231588
0.263238
0.301326
0.347411
0.403651
0.473172
0.556366
0.652197
0.224655
0.261204
0.307246
0.364599
0.436202
0.526008
0.639262
0.781961
0.95209
1.14531
0.299836
0.364229
0.45051
0.564059
0.709791
0.894468
1.12809
1.41525
1.74394
2.09757
0.438648
0.557267
0.722817
0.948923
1.24349
1.60674
2.04346
2.5505
3.09664
3.65271
0.693304
0.909948
1.21114
1.62121
2.14841
2.76531
3.45175
4.20596
4.99549
5.77631
1.11
1.46629
1.93638
2.54342
3.29997
4.18882
5.15271
6.16563
7.22849
8.26027
1.63562
2.12672
2.74402
3.51462
4.46662
5.58001
6.82685
8.21091
9.69626
11.0977
2.15504
2.75368
3.50011
4.43819
5.58987
6.98051
8.67992
10.6968
12.9467
15.0165
2.62409
3.33458
4.23989
5.38599
6.84184
8.73501
11.2304
14.4229
18.2768
21.654
3.07317
3.93188
5.05588
6.54293
8.55164
11.3248
15.1706
20.4087
26.9674
32.0358
3.5588
4.61939
6.04887
8.03538
10.8604
14.9063
20.686
28.6851
39.0388
39.5664
4.09629
5.40291
7.22926
9.86074
13.6918
19.2562
27.2177
38.2789
45.7456
38.9395
4.69155
6.30407
8.63941
12.0808
17.183
24.7737
36.0362
47.6979
46.5272
36.1575
5.38999
7.37688
10.3269
14.7568
21.4427
31.5658
45.2925
51.4763
42.24
32.067
6.23384
8.69254
12.4002
18.0478
26.7132
39.7942
52.1408
47.2369
36.1932
27.7195
7.329
10.3477
14.9347
21.9773
32.8672
47.384
50.2952
40.1386
30.7014
23.7199
8.76926
12.4577
18.0227
26.5087
39.2717
50.7217
44.1791
33.7884
26.0146
20.3176
10.7275
15.3128
22.1216
32.3004
45.3123
46.1502
36.5878
28.3452
22.123
17.545
12.9865
18.3787
26.0119
36.557
45.1632
39.8157
31.1136
24.2839
19.1718
15.4368
15.3403
21.4586
29.6809
39.651
42.1231
34.4456
27.0841
21.3266
17.0004
13.8835
18.7809
26.3545
36.2258
44.2641
39.791
31.3934
24.4808
19.2323
15.3883
12.7282
24.6556
35.3614
49.1559
49.0718
37.755
28.8701
22.2671
17.4413
14.0361
11.8129
34.0011
50.0587
58.0349
45.9567
34.6411
26.2655
20.1829
15.8422
12.8963
11.1174
46.9414
65.8922
59.2953
43.2845
32.0493
24.1088
18.4627
14.5461
12.0207
10.6641
59.2115
70.648
54.4682
40.2355
29.8521
22.3854
17.1012
13.54
11.3939
10.4399
66.5124
72.8206
53.9392
39.1272
28.5769
21.1466
16.0385
12.7588
10.9695
10.4187
86.1641
79.207
54.2264
38.1583
27.3784
19.999
15.0805
12.1023
10.6983
10.5823
93.4913
71.334
50.8067
36.3101
26.0395
18.8728
14.1828
11.5402
10.5662
10.9334
93.0136
70.1511
50.3663
35.7046
25.1578
17.8903
13.3443
11.0557
10.5692
11.4877
100.697
74.3932
51.8296
35.6057
24.3049
16.83
12.465
10.6138
10.7094
12.2754
118.06
79.7954
52.9955
35.0006
23.067
15.5462
11.5069
10.2145
11.0028
13.3316
134.609
82.6615
52.317
33.4498
21.3902
14.072
10.5032
9.87385
11.4548
14.6613
119.181
76.8566
49.3686
31.3181
19.537
12.5288
9.49649
9.59105
12.0526
16.2918
119.945
75.9883
47.9281
29.5955
17.7355
10.9605
8.48366
9.32817
12.7362
18.182
121.188
75.3244
46.4377
27.716
15.7706
9.30037
7.43487
9.02653
13.4169
20.2757
120.541
73.8457
44.4565
25.4834
13.5738
7.55942
6.35339
8.62427
13.9672
22.4575
118.726
71.6844
41.9535
22.8539
11.1606
5.80955
5.26758
8.05291
14.1866
24.4214
116.611
69.0248
38.9147
19.8166
8.61164
4.16972
4.22166
7.25097
13.7993
25.479
114.485
65.8342
35.2725
16.395
6.08771
2.77499
3.26427
6.20801
12.5868
24.7752
111.819
61.8184
30.9087
12.6767
3.82179
1.72067
2.43502
5.00019
10.5677
21.8133
107.986
56.594
25.7217
8.87294
2.05474
1.01486
1.75581
3.77993
8.08291
16.9153
102.31
49.5623
19.6873
5.36057
0.914946
0.585246
1.22891
2.71526
5.73055
11.7131
91.8925
39.8844
13.1271
2.62754
0.334818
0.333808
0.834791
1.88384
3.90795
7.76986
74.6065
27.7764
7.08062
0.98965
0.10715
0.183767
0.543301
1.26313
2.57883
4.95133
50.3847
15.4119
2.86553
0.290628
0.0359893
0.0920259
0.329574
0.813701
1.64734
3.04536
26.5535
6.26462
0.850862
0.0810721
0.01733
0.0398431
0.176689
0.496093
1.02147
1.79039
9.72283
1.80519
0.21939
0.0330893
0.0133485
0.0174771
0.0768519
0.274447
0.6312
1.02447
1.44833
0.438622
0.076383
0.0232774
0.0126364
0.0124859
0.0288043
0.122111
0.405028
0.752025
0.0457762
0.0470398
0.0481701
0.0491002
0.04976
0.0500727
0.0499549
0.0493208
0.0480944
0.0462391
0.0438256
0.0411554
0.038898
0.037284
0.0362477
0.0357441
0.0357392
0.0362675
0.0372809
0.0382079
0.0387809
0.0389424
0.0386671
0.037951
0.0368121
0.0352945
0.0334378
0.0312581
0.0287485
0.0258965
0.0227163
0.0193122
0.0159302
0.0128458
0.0102189
0.00794827
0.00585831
0.00404957
0.000882935
0.0020113
0.020445
0.0209136
0.0213345
0.0216854
0.0219438
0.022087
0.0220931
0.0219436
0.0216296
0.0211607
0.0205786
0.0199695
0.0194602
0.0190455
0.018705
0.0184438
0.0182849
0.0182549
0.0183464
0.018448
0.018488
0.0184295
0.0182503
0.0179418
0.017507
0.0169536
0.0162867
0.0155024
0.014588
0.0135295
0.0123229
0.0109939
0.00961828
0.00829281
0.00706625
0.00591301
0.00481283
0.00379462
0.0029342
0.00342981
0.0177971
0.0182265
0.0186191
0.0189614
0.019241
0.019447
0.0195704
0.0196053
0.0195508
0.0194126
0.0192059
0.0189591
0.0187237
0.0185449
0.0184253
0.0183437
0.0183067
0.0183234
0.0183701
0.0183849
0.0183296
0.018187
0.0179523
0.0176289
0.0172248
0.0167516
0.0162183
0.0156229
0.0149507
0.0141838
0.013307
0.0123138
0.0112215
0.0100936
0.00899477
0.007903
0.00681733
0.0058166
0.00511239
0.00582575
0.0187095
0.0192051
0.0196646
0.0200783
0.0204392
0.0207428
0.020987
0.0211727
0.0213041
0.0213884
0.021435
0.0214482
0.0214322
0.0214112
0.0214061
0.0214095
0.0214325
0.0214632
0.0214647
0.0213952
0.0212461
0.0210175
0.0207073
0.020317
0.0198559
0.0193423
0.0187954
0.0182186
0.017595
0.0169105
0.0161601
0.0153436
0.0144477
0.0134533
0.0123379
0.0111393
0.00988615
0.00867875
0.0077175
0.00817465
0.0211515
0.021752
0.022311
0.0228222
0.0232824
0.0236922
0.0240553
0.0243785
0.0246708
0.0249434
0.0252063
0.0254586
0.025676
0.0258487
0.0259823
0.0260659
0.0260953
0.0260633
0.0259562
0.0257801
0.0255459
0.0252515
0.0248854
0.024439
0.0239147
0.0233331
0.0227222
0.0220919
0.021421
0.0207003
0.0199292
0.0191092
0.0182264
0.0172663
0.0162294
0.0151108
0.013951
0.0127522
0.011963
0.00880395
0.024674
0.0253973
0.0260686
0.0266843
0.0272454
0.0277574
0.0282293
0.0286732
0.0291025
0.0295309
0.0299688
0.0304172
0.0308544
0.0312351
0.0315096
0.0316469
0.0316403
0.0315283
0.03134
0.0311016
0.030829
0.030514
0.0301346
0.0296722
0.02912
0.0284879
0.027796
0.0270537
0.0262476
0.025384
0.0244669
0.0235121
0.022534
0.0215496
0.0205671
0.0195746
0.0185901
0.017667
0.0171516
0.00882906
0.0291264
0.0299764
0.0307587
0.0314733
0.0321256
0.0327261
0.0332893
0.0338333
0.0343772
0.0349378
0.0355232
0.0361241
0.0367037
0.0371973
0.0375377
0.0377036
0.0377104
0.0375863
0.0373792
0.037141
0.0368946
0.0366208
0.036285
0.0358643
0.0353485
0.0347267
0.0339823
0.0331056
0.032119
0.0310472
0.0299093
0.0287374
0.0275655
0.0264528
0.0254584
0.0245935
0.0238764
0.0234278
0.0236393
0.00883947
0.0344131
0.0353795
0.0362599
0.0370583
0.0377842
0.0384525
0.0390835
0.0397027
0.0403384
0.0410141
0.0417342
0.0424712
0.0431667
0.0437486
0.0441548
0.0443611
0.0443805
0.0442479
0.0440348
0.043825
0.0436543
0.0434775
0.0432309
0.0428903
0.0424482
0.0418801
0.0411375
0.040192
0.0390539
0.0377571
0.0363499
0.0348927
0.0334633
0.0321319
0.0309993
0.0301487
0.0296235
0.029645
0.0313013
0.0452913
0.0404048
0.0414661
0.0424268
0.0432933
0.0440773
0.0447968
0.0454781
0.0461558
0.0468717
0.0476615
0.0485219
0.0493938
0.0501962
0.0508622
0.0513424
0.0516131
0.0516803
0.0515831
0.0514058
0.0512533
0.051182
0.051106
0.0509342
0.0506677
0.0503163
0.0498471
0.0491765
0.0482385
0.0470045
0.045508
0.0438084
0.0420044
0.040231
0.0385661
0.0371322
0.0360957
0.0356186
0.0361217
0.0393629
0.0607904
0.0469103
0.0480504
0.0490799
0.0500056
0.0508409
0.051608
0.0523399
0.0530806
0.0538811
0.0547903
0.0557907
0.0567632
0.0576296
0.0583547
0.0589087
0.0592797
0.0594773
0.0595444
0.0595562
0.0595839
0.0596365
0.0596083
0.0594632
0.059253
0.0589895
0.0586214
0.0580274
0.057097
0.055799
0.0541354
0.0521499
0.0499645
0.0477321
0.0456248
0.0437757
0.0424172
0.0419075
0.0429227
0.0479731
0.077943
0.0537603
0.0549707
0.0560585
0.0570348
0.0579176
0.058736
0.0595329
0.0603627
0.061277
0.0623141
0.0634118
0.064427
0.0653194
0.0660828
0.066708
0.0672089
0.0676132
0.0679657
0.0683033
0.0686362
0.0688947
0.0689929
0.0689573
0.0688514
0.0686492
0.0682531
0.0675483
0.0665218
0.0651671
0.0634417
0.0612908
0.0587819
0.0561092
0.0534776
0.051058
0.0492316
0.0486078
0.0501883
0.0573129
0.0964923
0.0608456
0.0621104
0.0632446
0.0642654
0.0651981
0.0660789
0.0669557
0.0678812
0.0689072
0.0700404
0.0712076
0.0723011
0.0732468
0.074048
0.074753
0.0754054
0.0760431
0.0767084
0.0774203
0.0781377
0.0787592
0.0791736
0.0793728
0.0793736
0.0790991
0.0784975
0.0775642
0.0763695
0.0749299
0.0732464
0.0712571
0.0687568
0.065746
0.062502
0.0593721
0.0568224
0.0557528
0.0576914
0.0668823
0.117728
0.0680664
0.0693649
0.0705302
0.0715862
0.0725651
0.0735096
0.0744719
0.0754995
0.0766266
0.0778377
0.0790573
0.0802231
0.0812588
0.082171
0.0830372
0.0839077
0.0848231
0.0858273
0.0869426
0.0881179
0.0892022
0.0899975
0.0904153
0.0904759
0.0902023
0.0895482
0.0885233
0.0871979
0.085619
0.0838166
0.0817751
0.0793354
0.0763696
0.0729399
0.0692499
0.0657404
0.0635838
0.0650035
0.0755932
0.139608
0.0753607
0.0766681
0.0778436
0.0789175
0.0799277
0.0809202
0.0819481
0.0830608
0.0842838
0.0855785
0.0868653
0.0881366
0.08936
0.0905313
0.091694
0.0928917
0.0941669
0.0955536
0.097052
0.09859
0.100015
0.101178
0.102031
0.102516
0.102575
0.102157
0.101276
0.0999816
0.0983101
0.0963005
0.0939981
0.0914034
0.088451
0.085075
0.0813217
0.0771676
0.0734587
0.0729974
0.083017
0.158482
0.0827254
0.0840224
0.08519
0.0862636
0.0872846
0.0882998
0.0893579
0.0905018
0.0917541
0.0931035
0.0945385
0.0960491
0.0975979
0.0991676
0.100773
0.102442
0.104204
0.106076
0.108042
0.110037
0.111948
0.113669
0.115136
0.116277
0.117016
0.117286
0.117052
0.116295
0.114991
0.113141
0.110787
0.108
0.104813
0.101139
0.0968131
0.0917253
0.0862899
0.0832394
0.0908689
0.172106
0.0901896
0.0914653
0.0926125
0.0936702
0.0946826
0.0956975
0.0967636
0.0979271
0.0992264
0.100686
0.102319
0.104123
0.10607
0.108135
0.110303
0.112577
0.114968
0.117483
0.120105
0.122792
0.125475
0.128082
0.130553
0.132832
0.134856
0.136551
0.137829
0.13857
0.138626
0.137873
0.13626
0.133801
0.130492
0.126129
0.120419
0.113427
0.10557
0.098805
0.100999
0.187163
0.0977747
0.099023
0.10014
0.101169
0.102158
0.103159
0.104229
0.105427
0.106813
0.108439
0.110341
0.11252
0.114948
0.117583
0.12039
0.12336
0.1265
0.129823
0.133329
0.137011
0.140847
0.144814
0.148896
0.153078
0.157341
0.16164
0.165874
0.169834
0.173213
0.175729
0.177155
0.177149
0.175112
0.170355
0.162461
0.151206
0.136919
0.122059
0.115846
0.18945
0.105488
0.10671
0.107796
0.108792
0.109752
0.110738
0.111818
0.113072
0.114582
0.116427
0.118661
0.121292
0.124269
0.127524
0.131015
0.134742
0.138734
0.143032
0.147677
0.152709
0.158167
0.164103
0.170582
0.177685
0.1855
0.194104
0.203489
0.213449
0.223591
0.233542
0.242804
0.250349
0.25445
0.253058
0.24433
0.226834
0.200091
0.167157
0.141753
0.171607
0.113319
0.114533
0.115603
0.11658
0.117525
0.118508
0.119616
0.120946
0.122607
0.124706
0.12732
0.13045
0.134004
0.13788
0.142047
0.146556
0.151489
0.156938
0.162996
0.169765
0.177368
0.185964
0.195756
0.207001
0.220008
0.235122
0.252611
0.272498
0.294579
0.318648
0.344033
0.369099
0.39089
0.404924
0.405456
0.386407
0.34384
0.280039
0.211217
0.199361
0.121232
0.122475
0.123572
0.124574
0.125547
0.126571
0.127743
0.129177
0.131004
0.133357
0.13634
0.139957
0.144048
0.148488
0.153313
0.158651
0.164651
0.171457
0.179217
0.188106
0.198354
0.210274
0.224279
0.240901
0.260818
0.284837
0.313796
0.348401
0.389174
0.436528
0.490416
0.549353
0.60926
0.662576
0.697458
0.69857
0.650224
0.543557
0.392575
0.291859
0.129156
0.130491
0.131686
0.132795
0.133885
0.135041
0.136365
0.137977
0.140014
0.142603
0.145843
0.149765
0.154352
0.159437
0.165054
0.171398
0.178668
0.187058
0.196781
0.208099
0.221374
0.237111
0.255988
0.278898
0.307014
0.341849
0.385239
0.439234
0.505922
0.587273
0.684805
0.798343
0.924072
1.05179
1.16182
1.22557
1.20957
1.08212
0.825582
0.516604
0.136984
0.138496
0.139896
0.141241
0.142602
0.144067
0.14574
0.147747
0.150212
0.153237
0.156863
0.161154
0.166303
0.172192
0.17879
0.186319
0.194997
0.205106
0.216932
0.23084
0.247325
0.267071
0.291017
0.320443
0.357096
0.403378
0.462533
0.538611
0.63642
0.761091
0.917454
1.10841
1.33194
1.57614
1.81239
1.99174
2.05582
1.96125
1.66746
1.0616
0.144611
0.14641
0.148162
0.149935
0.151812
0.153895
0.156301
0.159158
0.162557
0.166565
0.171237
0.176566
0.182529
0.189245
0.196873
0.2056
0.215771
0.227643
0.241576
0.258015
0.277593
0.30112
0.329714
0.36497
0.40915
0.465496
0.538674
0.635093
0.7634
0.934393
1.1602
1.45199
1.81436
2.23489
2.66868
3.02356
3.18457
3.12232
2.90252
2.27508
0.151971
0.154185
0.156461
0.158893
0.161591
0.16469
0.168344
0.172721
0.177925
0.183881
0.19053
0.197617
0.204955
0.212765
0.221481
0.231635
0.243586
0.257449
0.273229
0.291638
0.313703
0.340329
0.372669
0.412462
0.462256
0.525755
0.608442
0.718565
0.86839
1.0758
1.36586
1.77119
2.32665
3.04286
3.8401
4.49789
4.72198
4.51716
4.31758
4.41088
0.159114
0.161892
0.164886
0.168223
0.17205
0.176538
0.181873
0.188243
0.19578
0.204423
0.213847
0.22341
0.232811
0.242625
0.253531
0.265791
0.279597
0.295364
0.313363
0.334046
0.358322
0.387415
0.422736
0.466247
0.520783
0.590349
0.680964
0.802024
0.968541
1.20464
1.54743
2.05683
2.82804
3.99236
5.57211
6.92727
7.09067
6.25182
5.72089
7.23236
0.166226
0.169747
0.173674
0.178162
0.183383
0.189523
0.19676
0.205237
0.214989
0.22587
0.237608
0.250053
0.263096
0.276719
0.291107
0.306422
0.322908
0.341076
0.361595
0.385114
0.412354
0.444603
0.483767
0.532563
0.59507
0.676164
0.78405
0.932138
1.14277
1.45277
1.92166
2.64343
3.76212
5.48325
8.05221
11.3096
10.941
8.42477
7.04182
10.1643
0.173498
0.177938
0.182983
0.188801
0.19557
0.203464
0.212628
0.223144
0.234991
0.248037
0.262137
0.277305
0.293569
0.310848
0.329122
0.348493
0.369126
0.391325
0.41565
0.442948
0.474363
0.511749
0.557854
0.61637
0.693322
0.797141
0.941181
1.14881
1.46114
1.94861
2.72683
3.97389
5.94178
8.94025
13.4428
17.4147
16.0518
10.5654
8.01346
12.4387
0.180983
0.186457
0.19271
0.19991
0.208221
0.21779
0.228727
0.241082
0.254825
0.269866
0.28613
0.303651
0.322543
0.342949
0.365039
0.388955
0.414694
0.442224
0.47186
0.504654
0.542556
0.588179
0.64517
0.720134
0.822974
0.96795
1.17833
1.49672
2.00092
2.82867
4.21445
6.52905
10.354
16.3926
21.1092
28.4191
18.8958
11.3416
8.1585
13.268
0.188554
0.195079
0.202511
0.211004
0.220697
0.231709
0.244127
0.257987
0.273273
0.289943
0.307984
0.327503
0.348774
0.372212
0.3982
0.42689
0.458078
0.491564
0.52778
0.568354
0.616119
0.674445
0.749171
0.850312
0.993831
1.20381
1.51992
2.01407
2.81914
4.17381
6.50837
10.5128
17.6219
22.917
29.0032
30.932
17.3608
10.2946
7.42506
12.6303
0.195911
0.203394
0.211849
0.221409
0.232189
0.244285
0.257769
0.272688
0.289067
0.306932
0.326378
0.347685
0.371427
0.398345
0.4288
0.462606
0.499291
0.538979
0.582986
0.633905
0.695497
0.773065
0.875275
1.01597
1.21907
1.52454
1.99535
2.73762
3.94364
5.93663
9.34131
14.0246
17.9447
22.6839
30.3326
23.5997
13.5276
8.23673
6.11762
10.8531
0.202642
0.210881
0.220086
0.230364
0.241807
0.254498
0.268516
0.28394
0.300869
0.319445
0.339949
0.362984
0.389516
0.420336
0.455344
0.494015
0.53603
0.582256
0.635357
0.699495
0.780427
0.886593
1.03042
1.2308
1.52225
1.96531
2.65384
3.72334
5.42756
7.71686
10.1171
12.7659
16.3403
20.8969
22.6291
15.8319
9.51442
6.05959
4.71835
8.75201
0.208349
0.217059
0.226651
0.237212
0.248818
0.261553
0.275523
0.290873
0.307806
0.326636
0.347884
0.372461
0.401459
0.434982
0.472437
0.514061
0.560599
0.614645
0.680785
0.765174
0.876194
1.02537
1.2291
1.51362
1.92573
2.55316
3.53124
4.78874
5.99891
7.27367
8.92154
11.1628
13.8067
15.7413
13.8961
9.50396
6.20325
4.23094
3.50797
6.82379
0.212761
0.221623
0.231224
0.241631
0.252917
0.265187
0.278603
0.293386
0.309856
0.328477
0.34992
0.37512
0.404997
0.439312
0.477743
0.521824
0.574532
0.640131
0.724298
0.83545
0.985538
1.19093
1.47368
1.8639
2.40438
3.14771
3.93399
4.58166
5.34749
6.37292
7.69951
9.24477
10.4845
10.0527
7.82128
5.5883
3.94653
2.90535
2.58067
5.25813
0.215791
0.224508
0.233776
0.243661
0.254251
0.265689
0.278196
0.292067
0.307696
0.325608
0.346476
0.371077
0.400164
0.434196
0.474112
0.522365
0.582681
0.660291
0.763041
0.902601
1.09556
1.36488
1.73973
2.24855
2.80959
3.2626
3.65641
4.16394
4.85989
5.72702
6.55376
7.06104
6.84826
5.70914
4.47346
3.40688
2.58164
2.03636
1.92498
4.06801
0.217528
0.225856
0.234519
0.243603
0.253236
0.263604
0.274978
0.287701
0.302201
0.319009
0.338764
0.362209
0.390176
0.423732
0.464606
0.515626
0.581091
0.667414
0.78418
0.945569
1.17244
1.49416
1.94181
2.44546
2.77584
3.04353
3.38071
3.85709
4.41731
4.82252
4.85386
4.50579
3.96738
3.36264
2.75944
2.22154
1.78539
1.49299
1.48558
3.20283
0.218204
0.225934
0.233777
0.241855
0.250342
0.259479
0.269572
0.280991
0.294172
0.309635
0.328
0.350024
0.37666
0.409208
0.449583
0.500672
0.566761
0.654152
0.772035
0.933739
1.15911
1.47623
1.90434
2.24072
2.41603
2.63579
2.88963
3.13674
3.24888
3.17434
2.99565
2.76983
2.49176
2.18279
1.8686
1.57649
1.33219
1.17199
1.21333
2.61781
0.218118
0.225047
0.231876
0.238791
0.246019
0.253842
0.262591
0.272642
0.284427
0.298442
0.315283
0.33568
0.360574
0.391219
0.429352
0.477393
0.538713
0.617924
0.72111
0.855712
1.03005
1.25248
1.52513
1.80571
1.98746
2.09984
2.16767
2.17314
2.14194
2.08612
1.99927
1.88516
1.74306
1.57785
1.40242
1.23389
1.09112
1.00388
1.07032
2.26679
0.217546
0.223442
0.229101
0.234771
0.240718
0.247245
0.254684
0.263404
0.273815
0.286383
0.301654
0.320292
0.343119
0.371179
0.405803
0.448686
0.501936
0.568084
0.649912
0.7499
0.868932
1.00494
1.15285
1.30069
1.41708
1.48505
1.51365
1.52094
1.51563
1.49964
1.46976
1.42178
1.3534
1.26627
1.16673
1.06687
0.983139
0.941712
1.02924
2.11323
0.216653
0.221315
0.225765
0.230236
0.234995
0.240341
0.246592
0.254095
0.263228
0.274417
0.288151
0.305002
0.32565
0.350894
0.381667
0.41901
0.46402
0.517711
0.580767
0.653075
0.733021
0.816682
0.898022
0.971004
1.03076
1.07522
1.10656
1.13066
1.1508
1.16671
1.17619
1.1753
1.15778
1.11992
1.06574
1.00666
0.959011
0.949012
1.06311
2.12943
0.215588
0.219219
0.222572
0.225946
0.229634
0.233926
0.239119
0.245527
0.253491
0.263392
0.275655
0.29077
0.30929
0.331833
0.359057
0.39161
0.430041
0.474663
0.525319
0.581014
0.639473
0.696977
0.749238
0.793409
0.829855
0.861163
0.890388
0.920498
0.953968
0.991866
1.03233
1.06899
1.08986
1.08555
1.05826
1.02005
0.990169
0.999734
1.14505
2.28226
0.214976
0.217879
0.220269
0.222644
0.225362
0.228711
0.232961
0.238388
0.24529
0.253992
0.264865
0.278322
0.294827
0.314885
0.339014
0.367699
0.401326
0.440108
0.483943
0.532084
0.58254
0.631436
0.674158
0.709229
0.739034
0.767866
0.799175
0.835633
0.880198
0.935709
1.00195
1.07066
1.12445
1.14403
1.1268
1.08977
1.06037
1.07836
1.25786
2.55011
0.213627
0.216411
0.218408
0.220266
0.222385
0.225071
0.228593
0.233211
0.239188
0.246811
0.256394
0.268294
0.28291
0.300679
0.322057
0.347483
0.377361
0.412095
0.452138
0.497727
0.54802
0.599419
0.645064
0.681661
0.713248
0.746134
0.785291
0.832967
0.891721
0.965794
1.05972
1.1656
1.25684
1.29164
1.26366
1.20731
1.16227
1.17777
1.38991
2.90984
0.212626
0.215756
0.217759
0.219473
0.221307
0.223587
0.226594
0.230582
0.235795
0.242484
0.25092
0.261409
0.274296
0.289971
0.308853
0.331358
0.357898
0.389068
0.425956
0.469856
0.521437
0.57988
0.63921
0.687447
0.727804
0.769111
0.822092
0.888295
0.969073
1.06277
1.17924
1.33739
1.49887
1.55072
1.47712
1.37259
1.29488
1.29707
1.53464
3.33663
0.212964
0.217549
0.219813
0.221453
0.223095
0.225068
0.227671
0.231154
0.23574
0.241643
0.249095
0.258357
0.269721
0.283526
0.300153
0.319991
0.343414
0.371025
0.40427
0.44506
0.494988
0.555833
0.630246
0.712691
0.759257
0.798303
0.867777
0.964902
1.07994
1.19527
1.32522
1.51014
1.7583
1.91332
1.78252
1.59142
1.46137
1.43858
1.69083
3.80549
0.215939
0.221853
0.225254
0.227048
0.22863
0.230431
0.232746
0.23585
0.239953
0.245236
0.251905
0.260201
0.270358
0.282626
0.297326
0.314832
0.33551
0.359783
0.388994
0.424571
0.467864
0.520774
0.585988
0.663055
0.736716
0.799837
0.871272
0.963026
1.08682
1.23431
1.41195
1.65163
1.97205
2.26488
2.14858
1.85363
1.65648
1.59878
1.86498
4.29963
0.223932
0.230764
0.235646
0.23811
0.239631
0.241288
0.243394
0.246219
0.249981
0.254792
0.260851
0.268472
0.277858
0.289066
0.302307
0.31797
0.33638
0.358031
0.383543
0.413285
0.448354
0.489953
0.538692
0.595758
0.662461
0.743065
0.847222
0.977938
1.10696
1.24554
1.45272
1.7709
2.21118
2.64725
2.52962
2.1276
1.85498
1.75587
2.02683
4.72975
0.235649
0.245456
0.252403
0.256728
0.258885
0.260301
0.262153
0.26481
0.268432
0.272907
0.278397
0.285464
0.294413
0.305093
0.317435
0.331855
0.348565
0.368153
0.390689
0.416348
0.446077
0.481038
0.522718
0.573393
0.636462
0.717861
0.827108
0.976593
1.16988
1.34601
1.53258
1.86822
2.39377
2.97796
2.86135
2.36049
2.02039
1.88441
2.15378
5.04728
0.247049
0.261617
0.272465
0.280209
0.285581
0.289542
0.292423
0.295442
0.299417
0.303826
0.308898
0.315604
0.324333
0.334819
0.346676
0.36033
0.375856
0.393771
0.414262
0.437597
0.464366
0.495585
0.532817
0.578554
0.636814
0.713892
0.819157
0.965602
1.16943
1.43116
1.66061
1.96234
2.5043
3.1652
3.04725
2.49062
2.11652
1.96275
2.23076
5.22575
0.258165
0.276621
0.29258
0.305345
0.315684
0.32485
0.333174
0.341498
0.349396
0.355534
0.361126
0.368027
0.377041
0.387615
0.399109
0.411758
0.426008
0.442335
0.461048
0.482383
0.506662
0.53461
0.567587
0.60799
0.659853
0.729473
0.826027
0.96241
1.15636
1.43018
1.75465
2.03906
2.51872
3.17059
3.05039
2.49064
2.12726
1.98231
2.25288
5.25308
0.282155
0.305086
0.327855
0.348524
0.366438
0.383314
0.400526
0.417584
0.432105
0.443193
0.452673
0.461677
0.470669
0.480076
0.49015
0.500837
0.512272
0.52538
0.540759
0.558663
0.579232
0.602867
0.630568
0.664344
0.707758
0.766497
0.848939
0.966858
1.13658
1.38004
1.7224
2.06373
2.43667
2.97137
2.84199
2.36266
2.06005
1.95003
2.22716
5.13891
0.341706
0.376653
0.411823
0.4461
0.479562
0.511456
0.540228
0.565046
0.586008
0.603769
0.618558
0.629946
0.63753
0.642905
0.647679
0.652143
0.656588
0.662115
0.669773
0.680122
0.693349
0.709612
0.729429
0.754124
0.786334
0.830516
0.893457
0.984803
1.11759
1.30889
1.57666
1.91276
2.19968
2.55388
2.43387
2.14502
1.94594
1.88764
2.1721
4.92068
0.47513
0.53857
0.60303
0.666158
0.72611
0.779988
0.824609
0.859315
0.885776
0.905765
0.919561
0.926491
0.926343
0.920885
0.912316
0.901887
0.890533
0.879708
0.871109
0.866016
0.864972
0.867982
0.875008
0.886495
0.903862
0.929912
0.969183
1.02822
1.11561
1.2418
1.41793
1.64698
1.85489
2.07247
2.05791
1.93032
1.8307
1.82372
2.11425
4.66114
0.764311
0.888574
1.01115
1.12534
1.22561
1.30682
1.36578
1.40386
1.425
1.43323
1.43065
1.41777
1.39518
1.36476
1.32915
1.29049
1.25006
1.2094
1.17123
1.13844
1.11235
1.09282
1.07919
1.07101
1.06847
1.07273
1.08608
1.11205
1.15518
1.22061
1.31348
1.43343
1.5579
1.70759
1.77537
1.77088
1.75125
1.78635
2.08599
4.45099
1.36632
1.59766
1.80878
1.98787
2.12811
2.2253
2.27962
2.29818
2.2884
2.2573
2.21058
2.15207