/*--------------------------------*- C++ -*----------------------------------*\
  =========                 |
  \\      /  F ield         | OpenFOAM: The Open Source CFD Toolbox
   \\    /   O peration     | Website:  https://openfoam.org
    \\  /    A nd           | Version:  8
     \\/     M anipulation  |
\*---------------------------------------------------------------------------*/
FoamFile
{
    version     2.0;
    format      ascii;
    class       volScalarField;
    location    "3.25";
    object      k;
}
// * * * * * * * * * * * * * * * * * * * * * * * * * * * * * * * * * * * * * //

dimensions      [0 2 -2 0 0 0 0];

internalField   nonuniform List<scalar> 
9150
(
0.00182761
0.000940592
0.000475296
0.000301801
0.00019364
0.000193551
0.000301691
0.000475109
0.000940308
0.00182764
0.00178496
0.000746331
0.000398591
0.000257097
0.00016203
0.000161962
0.000256991
0.000398438
0.000746095
0.00178496
0.00171347
0.000650993
0.000365603
0.000237029
0.00014937
0.000149317
0.000236937
0.000365471
0.000650793
0.00171345
0.0016349
0.000600924
0.000352476
0.000228986
0.000144555
0.000144511
0.000228906
0.000352358
0.000600754
0.00163488
0.00155143
0.000579382
0.000347696
0.00022616
0.00014305
0.00014301
0.000226087
0.000347586
0.00057923
0.00155141
0.00284737
0.00255186
0.00184997
0.00161787
0.00133688
0.00133863
0.0016232
0.00185966
0.00256518
0.00284935
0.0023046
0.00150222
0.00127955
0.00121018
0.00097999
0.000980641
0.00121252
0.00128377
0.00150474
0.00230449
0.00204965
0.00125161
0.000887315
0.000807847
0.000629218
0.000629384
0.000808731
0.000888688
0.00125192
0.00204946
0.00186779
0.00111005
0.000649257
0.000530499
0.00038853
0.00038851
0.0005307
0.000649523
0.00110973
0.00186769
0.00178737
0.00102062
0.000523817
0.000372062
0.000254354
0.000254278
0.000372017
0.000523714
0.00102024
0.00178733
0.009214
0.00462825
0.00257045
0.00190401
0.00155065
0.00154309
0.00190547
0.00283803
0.00652622
0.0162381
0.00488041
0.00386251
0.00251154
0.00189628
0.00155541
0.00155152
0.00189675
0.00250684
0.00371289
0.00497509
0.00439913
0.00345008
0.00248322
0.00189142
0.00156131
0.00156143
0.00190067
0.00249265
0.0033998
0.00442381
0.00391575
0.00315009
0.00246458
0.00188763
0.00156776
0.00157071
0.00189847
0.00247728
0.00316003
0.00392574
0.0033582
0.00309166
0.00236182
0.00184267
0.00154058
0.00154406
0.00185204
0.00237515
0.00311589
0.00336223
0.00195114
0.00198529
0.00202072
0.00205837
0.00209902
0.00214107
0.0021842
0.00222808
0.00227215
0.00231563
0.003906
0.00398037
0.00405666
0.00413533
0.00421651
0.0043001
0.00438562
0.00447227
0.00455893
0.0046442
0.0051437
0.00523969
0.00533814
0.00543926
0.00554323
0.00564985
0.00575823
0.00586717
0.00597519
0.00608055
0.00618931
0.00630675
0.00642714
0.00655048
0.00667653
0.00680528
0.00693551
0.00706569
0.00719399
0.00731834
0.00720586
0.00734785
0.00749321
0.00764172
0.00779287
0.00794631
0.00810095
0.00825486
0.00840571
0.00855107
0.00825675
0.008427
0.00860095
0.00877821
0.0089581
0.00913949
0.00932171
0.00950226
0.00967819
0.00984645
0.00937299
0.00957491
0.00978066
0.00998977
0.0102014
0.0104143
0.0106264
0.0108359
0.0110384
0.0112302
0.0105695
0.0108057
0.0110454
0.0112881
0.011533
0.0117788
0.0120229
0.0122622
0.0124913
0.0127047
0.0118497
0.0121216
0.0123961
0.0126725
0.01295
0.0132275
0.0135025
0.0137703
0.0140233
0.0142528
0.0132044
0.0135113
0.0138192
0.0141273
0.014434
0.0147397
0.015042
0.0153335
0.0156005
0.0158371
0.014613
0.0149513
0.015288
0.0156233
0.0159561
0.0162861
0.0166088
0.0169099
0.0171808
0.017421
0.0160563
0.0164223
0.0167849
0.0171452
0.017502
0.0178485
0.018177
0.0184782
0.0187486
0.0189876
0.017522
0.0179127
0.0183002
0.0186814
0.0190506
0.0194008
0.019727
0.0200235
0.0202877
0.0205193
0.0190012
0.0194151
0.0198208
0.0202125
0.0205845
0.0209317
0.0212499
0.0215356
0.0217876
0.0220057
0.0204845
0.0209149
0.0213296
0.0217242
0.0220934
0.0224325
0.0227386
0.0230095
0.0232446
0.0234444
0.0219579
0.022398
0.0228166
0.0232092
0.0235713
0.0238992
0.0241905
0.0244439
0.0246594
0.0248378
0.0234117
0.0238572
0.0242756
0.0246629
0.0250154
0.0253299
0.0256045
0.0258388
0.0260329
0.0261883
0.0248377
0.0252849
0.0257003
0.0260802
0.0264212
0.0267211
0.0269782
0.0271926
0.027365
0.0274967
0.0262232
0.0266699
0.0270804
0.0274516
0.0277808
0.0280659
0.0283061
0.0285016
0.0286533
0.0287627
0.0275515
0.0279959
0.028401
0.0287638
0.0290821
0.0293543
0.0295797
0.0297591
0.0298933
0.0299841
0.0288068
0.0292481
0.029648
0.0300038
0.0303134
0.0305755
0.0307897
0.0309572
0.0310792
0.0311574
0.0299812
0.0304185
0.0308134
0.0311632
0.0314663
0.0317215
0.0319288
0.0320896
0.0322057
0.0322795
0.0310695
0.0315025
0.0318926
0.0322376
0.0325363
0.0327881
0.0329933
0.0331534
0.0332716
0.033351
0.0320671
0.0324966
0.0328834
0.033226
0.0335236
0.0337763
0.0339854
0.0341527
0.034283
0.0343804
0.0329733
0.0334017
0.0337885
0.0341328
0.0344349
0.0346956
0.0349171
0.0351028
0.0352576
0.0353884
0.0337911
0.0342229
0.0346153
0.0349684
0.0352832
0.0355619
0.0358079
0.0360261
0.0362225
0.0364064
0.0345265
0.0349685
0.0353746
0.0357458
0.0360845
0.0363941
0.0366795
0.0369471
0.0372047
0.0374621
0.0351866
0.0356471
0.0360764
0.0364769
0.036852
0.0372064
0.0375464
0.0378796
0.0382152
0.0385639
0.0357775
0.0362652
0.0367278
0.0371684
0.0375917
0.0380035
0.0384108
0.0388223
0.0392477
0.0396979
0.0363025
0.0368255
0.0373301
0.0378202
0.038301
0.038779
0.0392618
0.039758
0.0402772
0.0408298
0.0367618
0.0373265
0.0378796
0.0384253
0.0389693
0.0395178
0.0400782
0.0406584
0.0412669
0.0419126
0.037153
0.0377636
0.0383689
0.0389732
0.0395818
0.0402004
0.040835
0.0414924
0.042179
0.0429013
0.0374727
0.0381309
0.0387895
0.0394525
0.0401241
0.0408087
0.0415109
0.0422349
0.0429847
0.0437637
0.0377182
0.0384237
0.0391347
0.0398542
0.0405853
0.0413306
0.0420922
0.0428714
0.0436691
0.0444852
0.0378889
0.0386398
0.0394006
0.0401735
0.0409601
0.0417609
0.0425748
0.0433997
0.0442321
0.0450684
0.0379872
0.0387804
0.0395879
0.0404111
0.04125
0.0421027
0.042965
0.0438297
0.0446883
0.045532
0.0380191
0.0388508
0.0397014
0.0405718
0.041461
0.0423651
0.0432762
0.0441813
0.0450635
0.0459058
0.0379936
0.0388594
0.0397487
0.0406626
0.0416002
0.0425567
0.0435219
0.0444769
0.0453911
0.0462265
0.0379223
0.0388172
0.0397397
0.0406918
0.0416733
0.0426806
0.0437043
0.0447251
0.0456951
0.0465203
0.0378188
0.0387378
0.0396878
0.0406712
0.041689
0.0427394
0.0438152
0.0448969
0.0459055
0.0467339
0.0376971
0.0386357
0.039607
0.0406134
0.0416564
0.0427347
0.0438435
0.0449616
0.045967
0.0468958
0.037574
0.0385315
0.0395232
0.040552
0.04162
0.0427274
0.0438697
0.0450186
0.0459927
0.046899
0.0374625
0.0384427
0.0394604
0.0405188
0.0416211
0.0427675
0.0439518
0.0451421
0.0461507
0.046926
0.0373766
0.0383853
0.0394349
0.0405283
0.0416673
0.0428494
0.0440628
0.0452832
0.0464013
0.0471952
0.0373212
0.0383637
0.0394506
0.0405837
0.0417626
0.0429822
0.0442278
0.0454799
0.0466946
0.0477102
0.0372946
0.0383757
0.0395057
0.0406864
0.0419177
0.0431965
0.0445127
0.0458524
0.0472068
0.04851
0.0372929
0.0384143
0.0395895
0.0408208
0.0421101
0.0434583
0.0448634
0.046318
0.0478275
0.0493873
0.0373214
0.0384819
0.0396988
0.0409744
0.0423112
0.0437123
0.0451805
0.0467146
0.0483138
0.049984
0.0374153
0.0386188
0.0398787
0.0411957
0.0425706
0.0440054
0.0455018
0.0470586
0.048664
0.0502999
0.0376512
0.03892
0.0402471
0.0416303
0.0430689
0.0445625
0.04611
0.0477073
0.0493411
0.0509805
0.0381425
0.0395295
0.0409847
0.0425049
0.0440901
0.0457409
0.0474574
0.049236
0.051066
0.0529185
0.0390292
0.0406249
0.0423148
0.0440961
0.0459745
0.047959
0.0500613
0.0522911
0.0546444
0.0570679
0.0404827
0.0424347
0.0445389
0.0467999
0.0492383
0.0518789
0.0547608
0.0579453
0.0614113
0.0650986
0.0427249
0.0452826
0.0481541
0.0513279
0.0548568
0.0588201
0.063315
0.0684511
0.0741458
0.0802677
0.0461732
0.0497038
0.0539442
0.0589272
0.0646529
0.0712112
0.0787867
0.0874199
0.0967983
0.106532
0.0517005
0.0568827
0.0634497
0.071585
0.0812228
0.0921207
0.104264
0.117498
0.131166
0.144702
0.0606692
0.0684884
0.0784882
0.0910202
0.105863
0.121962
0.138729
0.156095
0.173516
0.190267
0.0737399
0.0848285
0.0984225
0.114743
0.133641
0.15429
0.175221
0.195874
0.216428
0.235774
0.0887582
0.102579
0.118799
0.137661
0.159258
0.182611
0.20674
0.231499
0.256386
0.279089
0.102768
0.118512
0.136779
0.157984
0.181871
0.208163
0.237231
0.268654
0.301029
0.329606
0.114995
0.132669
0.153385
0.177302
0.204766
0.236795
0.274501
0.317905
0.365552
0.405039
0.126273
0.146382
0.170226
0.198526
0.232638
0.274519
0.326146
0.388925
0.459271
0.510697
0.137648
0.160742
0.188636
0.22314
0.26665
0.321788
0.391347
0.47609
0.573126
0.582304
0.14925
0.175778
0.20879
0.250937
0.305121
0.374393
0.461328
0.566819
0.633833
0.578158
0.161274
0.191961
0.231327
0.282474
0.348981
0.435222
0.545998
0.648481
0.643061
0.552777
0.1746
0.210122
0.256607
0.317783
0.39819
0.503515
0.627431
0.681806
0.607133
0.514311
0.189909
0.231199
0.285783
0.358186
0.454236
0.578854
0.684007
0.648852
0.55305
0.472108
0.208859
0.256414
0.319485
0.403411
0.515096
0.643854
0.672654
0.588841
0.501846
0.431735
0.232457
0.286899
0.358458
0.452876
0.575132
0.673402
0.623633
0.53145
0.455641
0.395617
0.262197
0.324978
0.406056
0.510948
0.627608
0.63932
0.557604
0.479333
0.415028
0.364525
0.294316
0.363571
0.449257
0.552505
0.628827
0.586136
0.506133
0.437308
0.381883
0.339263
0.325178
0.398993
0.486016
0.579086
0.602884
0.535717
0.464351
0.40386
0.355519
0.319371
0.364597
0.447672
0.542686
0.613848
0.579094
0.503115
0.434471
0.37825
0.334732
0.303821
0.424524
0.527809
0.644241
0.648861
0.556497
0.474992
0.408351
0.355837
0.316876
0.291107
0.510402
0.644969
0.708971
0.621027
0.52567
0.446642
0.383655
0.335431
0.301331
0.280896
0.615581
0.756141
0.717578
0.596247
0.498979
0.42208
0.362248
0.317991
0.288587
0.273401
0.707926
0.789009
0.679954
0.567999
0.475355
0.401245
0.344193
0.303503
0.278565
0.268515
0.758039
0.802039
0.672255
0.554576
0.459375
0.384719
0.329005
0.291366
0.270803
0.265939
0.878942
0.842356
0.671126
0.542616
0.444041
0.368877
0.314722
0.280499
0.26473
0.265417
0.926101
0.791093
0.643277
0.522982
0.426733
0.35266
0.300712
0.270502
0.260146
0.266914
0.922462
0.777761
0.633545
0.511444
0.412439
0.337237
0.287003
0.261227
0.257022
0.270554
0.957891
0.796771
0.636726
0.50372
0.39815
0.320737
0.272615
0.252315
0.255416
0.27669
1.04588
0.823495
0.63857
0.492231
0.380136
0.301503
0.256982
0.243732
0.255562
0.285779
1.12965
0.836662
0.628348
0.472946
0.357292
0.279425
0.240282
0.235674
0.257593
0.297814
1.04731
0.797855
0.601494
0.447641
0.331349
0.255433
0.222947
0.228255
0.261506
0.313121
1.04729
0.78611
0.582972
0.423825
0.304278
0.229975
0.205035
0.22118
0.266728
0.331183
1.04971
0.774844
0.562924
0.397349
0.274192
0.202408
0.186324
0.21391
0.2724
0.351423
1.03998
0.756598
0.537607
0.366307
0.24027
0.17289
0.166986
0.205859
0.277304
0.372857
1.02033
0.731409
0.506448
0.330184
0.202596
0.142444
0.14754
0.196279
0.279414
0.392853
0.995414
0.700471
0.469396
0.288908
0.162069
0.112889
0.128683
0.184317
0.275739
0.405302
0.967332
0.663885
0.426086
0.242708
0.120689
0.0864592
0.111061
0.169485
0.263591
0.402562
0.933817
0.620038
0.37566
0.192323
0.0817447
0.0649094
0.0950401
0.15211
0.242289
0.379521
0.891707
0.566503
0.317134
0.139709
0.0492805
0.0485877
0.0806162
0.13335
0.214049
0.336928
0.837431
0.499192
0.249818
0.0890939
0.0263129
0.0363845
0.0675347
0.114734
0.183791
0.285446
0.755539
0.41185
0.175676
0.0472484
0.0128622
0.0266875
0.0553636
0.0971114
0.155592
0.238376
0.632104
0.303962
0.103752
0.0201808
0.00616003
0.0183543
0.0436338
0.080437
0.130047
0.196666
0.462541
0.188972
0.0487707
0.00757524
0.00311898
0.0110964
0.031951
0.0643199
0.106987
0.161066
0.283783
0.0944417
0.0188012
0.0034024
0.00192405
0.00548237
0.0202382
0.0479734
0.0856952
0.130595
0.141545
0.0401273
0.00749085
0.00229166
0.0016032
0.00239471
0.00958387
0.0302858
0.0644327
0.104085
0.064706
0.0181895
0.00391528
0.00198768
0.0015535
0.00159145
0.00307599
0.0121565
0.0383779
0.0789867
0.00235781
0.0024009
0.00243901
0.00247
0.00249165
0.00250152
0.0024969
0.00247488
0.00243269
0.00236865
0.00228465
0.00219085
0.0021116
0.00205417
0.00201726
0.00199975
0.00200066
0.00202142
0.00205924
0.00209296
0.00211335
0.00211867
0.00210809
0.0020814
0.00203904
0.00198221
0.00191178
0.00182755
0.00172818
0.00161169
0.00147662
0.00132488
0.00116511
0.0010093
0.000866719
0.000733133
0.000598175
0.000467721
0.000441605
0.000317684
0.00472898
0.00481385
0.00489019
0.00495463
0.00500386
0.00503447
0.00504302
0.00502637
0.00498231
0.00491079
0.00481594
0.00470857
0.00460483
0.00452452
0.00447281
0.00444742
0.00444539
0.00445877
0.00447414
0.00448228
0.00447407
0.00444606
0.00439489
0.00431961
0.00422139
0.00410188
0.0039618
0.00379989
0.00361288
0.00339679
0.003149
0.00287208
0.00257875
0.00228612
0.00200213
0.0017195
0.00143071
0.00113443
0.000833008
0.00054267
0.00618543
0.006289
0.00638184
0.00646099
0.00652375
0.00656771
0.00659078
0.00659137
0.0065687
0.00652318
0.00645719
0.00637666
0.00629473
0.00622991
0.00618646
0.00615609
0.00613289
0.00611616
0.00610048
0.00607171
0.00602109
0.00594503
0.00584264
0.00571485
0.00556346
0.00539109
0.00519972
0.00498892
0.00475548
0.00449558
0.00420614
0.0038861
0.00353992
0.00318077
0.00282117
0.00245471
0.00207677
0.00169141
0.00130062
0.000921826
0.00744194
0.0075632
0.00767199
0.00776597
0.00784335
0.00790294
0.00794411
0.00796689
0.00797203
0.00796107
0.00793627
0.00789946
0.00785381
0.00780703
0.00776645
0.00772685
0.00768903
0.00764941
0.00759922
0.00752783
0.00743191
0.00731062
0.00716298
0.00698898
0.00679025
0.00657045
0.00633342
0.00607968
0.00580571
0.00550857
0.00518747
0.00484315
0.00447467
0.00408027
0.00365578
0.00320626
0.00273295
0.00224387
0.00174272
0.00129367
0.008695
0.00883542
0.00896135
0.00907113
0.00916395
0.00923979
0.00929939
0.0093442
0.00937627
0.00939816
0.0094124
0.00941944
0.00941515
0.00939872
0.00937216
0.00933231
0.00927758
0.00920559
0.00911248
0.00899802
0.00886292
0.00870583
0.00852371
0.00831427
0.00807749
0.00781694
0.00753774
0.00724142
0.00692317
0.0065806
0.00621314
0.00582093
0.0054016
0.00495265
0.00447357
0.00396003
0.0034112
0.00280418
0.00211973
0.00139712
0.010012
0.0101721
0.0103152
0.0104402
0.0105473
0.0106376
0.010713
0.0107762
0.01083
0.0108776
0.0109212
0.0109614
0.0109941
0.0110105
0.0110009
0.0109589
0.0108828
0.0107794
0.0106535
0.010509
0.0103482
0.0101685
0.00996504
0.00973373
0.00947254
0.00918267
0.00886707
0.00852658
0.0081573
0.00775882
0.00733018
0.00687232
0.00638583
0.0058711
0.00532491
0.00473746
0.00409542
0.00336916
0.00248409
0.00140203
0.0114169
0.0115953
0.0117533
0.0118907
0.0120089
0.0121097
0.0121963
0.0122723
0.0123417
0.0124079
0.0124726
0.0125342
0.0125853
0.0126133
0.0126054
0.012557
0.0124709
0.0123519
0.0122081
0.0120486
0.0118767
0.0116884
0.0114769
0.0112375
0.0109675
0.0106642
0.0103237
0.00994283
0.00952328
0.00906679
0.00857343
0.00804502
0.00748255
0.00688972
0.00626723
0.00560235
0.00487169
0.00403397
0.00297713
0.0014121
0.0129093
0.0131018
0.0132704
0.0134158
0.0135399
0.0136457
0.0137371
0.013819
0.013897
0.0139754
0.014055
0.0141306
0.0141911
0.0142229
0.0142144
0.014161
0.0140647
0.0139315
0.0137735
0.013605
0.0134315
0.013245
0.0130339
0.0127937
0.0125222
0.0122145
0.0118613
0.0114563
0.0109987
0.0104907
0.00993562
0.00933757
0.00870193
0.00803008
0.00732321
0.00657193
0.00574242
0.00477693
0.00353978
0.0015927
0.0144684
0.014669
0.0148428
0.0149913
0.0151166
0.0152223
0.0153131
0.0153955
0.0154769
0.0155637
0.015655
0.01574
0.015804
0.015835
0.015824
0.015767
0.0156647
0.0155237
0.015358
0.0151844
0.0150117
0.0148254
0.0146105
0.0143667
0.014095
0.013789
0.0134346
0.0130199
0.0125381
0.0119904
0.0113809
0.0107173
0.0100108
0.00925964
0.00846183
0.00760956
0.00666946
0.00557541
0.00416712
0.00193675
0.0160574
0.016261
0.016436
0.0165838
0.016707
0.0168097
0.0168977
0.0169786
0.0170611
0.0171533
0.0172517
0.0173356
0.0173914
0.017413
0.0173953
0.0173362
0.0172375
0.0171059
0.0169537
0.0167913
0.0166193
0.0164209
0.0161908
0.0159367
0.01566
0.0153522
0.0149945
0.0145691
0.0140691
0.0134912
0.0128364
0.012114
0.0113336
0.0105029
0.00961476
0.00865666
0.00760074
0.00637316
0.0047927
0.00228451
0.0176438
0.0178468
0.0180189
0.0181623
0.0182802
0.0183778
0.0184625
0.0185433
0.0186285
0.0187238
0.0188179
0.0188867
0.0189237
0.0189278
0.0188975
0.0188351
0.0187449
0.0186341
0.018508
0.0183676
0.0182017
0.0179972
0.0177583
0.0174948
0.0172028
0.0168681
0.0164748
0.0160198
0.0155003
0.0149073
0.0142284
0.0134639
0.0126263
0.0117232
0.0107445
0.00968284
0.00851595
0.00715945
0.00539088
0.00263349
0.0192072
0.0194047
0.0195695
0.0197048
0.0198152
0.0199067
0.0199874
0.0200654
0.0201485
0.020237
0.0203178
0.0203731
0.0203911
0.0203726
0.020325
0.0202551
0.0201685
0.0200719
0.0199676
0.0198488
0.0197003
0.0195064
0.0192666
0.0189838
0.0186488
0.018255
0.0178032
0.0173021
0.0167529
0.0161534
0.0154914
0.0147333
0.0138657
0.012901
0.011847
0.0106965
0.00943383
0.00797524
0.00605545
0.00300707
0.0207298
0.0209159
0.0210685
0.0211917
0.0212911
0.0213735
0.0214472
0.0215193
0.0215942
0.0216682
0.0217285
0.0217644
0.0217636
0.0217274
0.0216671
0.0215903
0.021503
0.0214116
0.0213189
0.0212169
0.0210841
0.0208942
0.0206367
0.020315
0.0199341
0.01949
0.0189863
0.0184335
0.0178377
0.0172018
0.0165199
0.0157663
0.0149141
0.0139511
0.0128697
0.0116574
0.0103159
0.00879398
0.00678997
0.00336891
0.0222006
0.0223692
0.022504
0.02261
0.0226931
0.0227607
0.0228206
0.0228798
0.0229408
0.0229963
0.023033
0.0230482
0.023036
0.0229953
0.0229322
0.022853
0.0227638
0.0226692
0.0225688
0.0224525
0.0222996
0.0220915
0.021823
0.021489
0.0210849
0.0206078
0.0200637
0.0194619
0.01881
0.0181137
0.0173762
0.0165914
0.0157409
0.0148004
0.0137478
0.0125294
0.0111097
0.00947498
0.00742674
0.00366603
0.0236189
0.0237649
0.0238769
0.0239605
0.0240218
0.0240677
0.024105
0.0241389
0.0241714
0.0241986
0.0242169
0.024223
0.0242098
0.0241738
0.0241165
0.0240413
0.0239521
0.0238509
0.0237351
0.0235961
0.0234193
0.0231921
0.0229079
0.0225605
0.0221441
0.0216557
0.0210974
0.0204736
0.0197892
0.0190496
0.0182606
0.0174257
0.016539
0.0155789
0.0145076
0.0132657
0.0117786
0.0100093
0.00774852
0.00387191
0.0249887
0.0251086
0.0251939
0.0252504
0.0252844
0.0253023
0.0253104
0.0253137
0.0253157
0.0253173
0.0253177
0.0253137
0.0252992
0.025269
0.0252197
0.0251508
0.0250632
0.0249567
0.0248287
0.0246729
0.0244806
0.0242431
0.0239543
0.0236093
0.0232041
0.0227358
0.0222021
0.0216009
0.0209297
0.0201883
0.0193794
0.0185061
0.0175646
0.0165333
0.0153785
0.014061
0.0125077
0.0106061
0.00810095
0.0040963
0.0263134
0.0264045
0.0264598
0.0264854
0.0264876
0.0264733
0.0264489
0.0264205
0.0263938
0.0263727
0.0263582
0.026347
0.0263322
0.0263054
0.0262604
0.0261943
0.0261063
0.0259961
0.025862
0.0257009
0.0255081
0.0252793
0.025011
0.0247006
0.0243466
0.0239468
0.0234971
0.0229889
0.0224106
0.0217557
0.0210201
0.0201881
0.0192262
0.0180991
0.0167868
0.0152545
0.0134359
0.011248
0.00847021
0.00411573
0.0275953
0.0276565
0.0276801
0.0276726
0.0276409
0.0275923
0.0275346
0.0274755
0.0274226
0.0273822
0.0273566
0.0273417
0.0273271
0.027301
0.0272555
0.0271879
0.0270988
0.0269894
0.0268604
0.0267116
0.0265422
0.0263514
0.0261397
0.0259084
0.0256598
0.0253955
0.025113
0.0247997
0.0244379
0.0240167
0.0235173
0.0228912
0.0220604
0.0209442
0.0194807
0.0176123
0.0152707
0.0124113
0.00904786
0.00386637
0.0288361
0.0288687
0.028862
0.0288226
0.0287581
0.0286768
0.0285876
0.0285003
0.0284246
0.0283687
0.0283363
0.0283213
0.0283073
0.0282784
0.0282282
0.0281585
0.0280739
0.0279786
0.0278753
0.0277664
0.0276539
0.0275413
0.0274336
0.0273375
0.0272623
0.0272171
0.0272054
0.0272166
0.0272343
0.0272478
0.0272237
0.0270864
0.0267166
0.0259575
0.0246298
0.0225523
0.019593
0.0157284
0.0110098
0.00431011
0.0300366
0.0300458
0.0300143
0.0299491
0.0298582
0.0297505
0.0296363
0.0295265
0.0294327
0.0293649
0.0293285
0.029316
0.0293029
0.0292716
0.0292226
0.0291649
0.0291072
0.0290552
0.0290128
0.0289836
0.0289723
0.0289865
0.0290367
0.0291371
0.0293062
0.029565
0.0299301
0.0304067
0.0309913
0.0316777
0.0324397
0.0331953
0.0337785
0.0339351
0.0333187
0.0315196
0.0281323
0.0228829
0.0157865
0.00561445
0.0311966
0.0311917
0.0311462
0.0310673
0.0309632
0.0308433
0.0307183
0.0305999
0.0304996
0.0304265
0.0303844
0.0303679
0.0303685
0.0303631
0.0303517
0.0303473
0.0303607
0.0303986
0.030466
0.0305676
0.0307105
0.0309059
0.0311694
0.0315226
0.0319943
0.0326212
0.0334445
0.0345028
0.0358249
0.0374262
0.0392971
0.041362
0.0434309
0.0451487
0.0459539
0.0451253
0.0418679
0.0354029
0.0250608
0.00831362
0.0323157
0.0323101
0.0322669
0.0321937
0.0320992
0.0319932
0.031887
0.0317926
0.0317207
0.0316776
0.0316616
0.0316724
0.0317215
0.0317877
0.0318621
0.0319602
0.0320927
0.0322707
0.0325009
0.0327899
0.0331453
0.0335792
0.0341101
0.0347647
0.0355811
0.0366139
0.0379367
0.0396329
0.0417904
0.0444809
0.0477381
0.0515082
0.0555801
0.0594909
0.0624266
0.0631985
0.0604515
0.0529809
0.0393622
0.0135647
0.0333977
0.0334095
0.0333915
0.0333526
0.0333031
0.0332546
0.0332198
0.0332116
0.0332369
0.0332983
0.0333961
0.0335221
0.0336658
0.0338323
0.0340304
0.0342685
0.0345673
0.0349319
0.035373
0.0358963
0.0365122
0.0372325
0.0380754
0.0390708
0.0402638
0.0417219
0.0435443
0.045863
0.0488454
0.0526742
0.0575067
0.0633973
0.0701661
0.0772077
0.0832801
0.0863501
0.0839584
0.07454
0.0570819
0.0225633
0.0344536
0.0345047
0.0345393
0.0345693
0.034608
0.0346705
0.0347738
0.0349352
0.0351631
0.0354442
0.0357663
0.0360958
0.0364077
0.0367179
0.0370612
0.0374796
0.0379932
0.038594
0.0392545
0.0400014
0.0408753
0.0418899
0.0430585
0.044411
0.0459958
0.0478855
0.0501901
0.0530756
0.0567801
0.0616254
0.0680085
0.0763399
0.0868528
0.0990733
0.110836
0.118027
0.115579
0.101482
0.0771813
0.0348312
0.0355078
0.0356236
0.0357421
0.0358781
0.0360488
0.036273
0.0365703
0.0369589
0.0374493
0.0380292
0.0386574
0.0392622
0.03981
0.0403524
0.0409471
0.0416088
0.0423413
0.0431615
0.0440676
0.0450635
0.0461783
0.0474484
0.0489027
0.0505802
0.0525375
0.0548534
0.0576484
0.061114
0.0655523
0.0714203
0.079346
0.0902084
0.105129
0.125129
0.148712
0.165113
0.161377
0.13703
0.100515
0.0480315
0.0365958
0.0368056
0.0370407
0.0373189
0.0376594
0.0380815
0.0386025
0.0392341
0.0399749
0.0408028
0.0416827
0.0425925
0.0435153
0.0444438
0.0453885
0.0463551
0.0473524
0.0484061
0.0495455
0.0507889
0.0521473
0.0536557
0.0553668
0.0573508
0.0597031
0.0625188
0.0659654
0.070321
0.0760406
0.0838234
0.0946736
0.109946
0.131318
0.160449
0.19781
0.236985
0.226428
0.180651
0.126966
0.0598575
0.037745
0.0380753
0.038454
0.0388999
0.0394312
0.0400646
0.040812
0.041677
0.0426509
0.0437124
0.0448391
0.0460241
0.0472609
0.0485334
0.0498306
0.0511502
0.0524919
0.053862
0.0552794
0.0567722
0.0583726
0.0601369
0.0621476
0.0645094
0.0673767
0.070928
0.0754295
0.0813554
0.0895085
0.101129
0.117968
0.142232
0.176249
0.221595
0.279176
0.321933
0.301453
0.221576
0.149797
0.0680668
0.0389582
0.0394257
0.039961
0.0405814
0.0413023
0.042136
0.043089
0.0441599
0.0453379
0.0466052
0.0479451
0.0493511
0.050823
0.0523615
0.0539672
0.0556356
0.0573471
0.059076
0.060816
0.0625998
0.0644968
0.0665936
0.0690048
0.0719299
0.0756271
0.0803951
0.0866827
0.0953099
0.107667
0.125901
0.153058
0.192933
0.250019
0.326811
0.377322
0.443448
0.344053
0.240274
0.159197
0.0706819
0.0402112
0.0408189
0.0415072
0.0422903
0.0431799
0.0441836
0.0453041
0.0465374
0.0478728
0.0492962
0.0507955
0.0523687
0.054027
0.0557908
0.0576724
0.0596605
0.0617125
0.063782
0.0658604
0.068004
0.0703134
0.0728985
0.075944
0.0797414
0.0846967
0.091313
0.10033
0.113012
0.131459
0.158894
0.200087
0.260845
0.351846
0.412241
0.472173
0.482686
0.335087
0.2316
0.152903
0.0680394
0.0414576
0.0421942
0.043016
0.0439338
0.0449552
0.0460843
0.0473212
0.0486617
0.050098
0.0516212
0.0532273
0.0549273
0.0567546
0.0587502
0.0609159
0.0632036
0.0655417
0.0678987
0.0703141
0.0728866
0.0757429
0.0790533
0.0830865
0.0882043
0.0949765
0.104239
0.117097
0.13517
0.161054
0.198466
0.253326
0.318772
0.367575
0.419552
0.492607
0.4209
0.294325
0.205657
0.136703
0.0612145
0.0426401
0.0434816
0.0444043
0.0454155
0.0465193
0.0477173
0.0490093
0.0503936
0.051868
0.0534333
0.0550999
0.0569039
0.0589061
0.0611426
0.063566
0.0660917
0.0686494
0.0712464
0.0739934
0.0770638
0.0806669
0.0850681
0.0906102
0.0977373
0.107205
0.120193
0.138192
0.162878
0.19688
0.236701
0.273835
0.310734
0.35692
0.410452
0.424893
0.338211
0.242638
0.173014
0.11656
0.052829
0.0437055
0.0446194
0.0456023
0.0466583
0.0477895
0.0489968
0.0502821
0.051649
0.0531048
0.0546641
0.0563571
0.0582422
0.0603839
0.0627507
0.0652471
0.0678383
0.0705157
0.0733835
0.0766429
0.0805343
0.0853412
0.0913971
0.0990989
0.109008
0.12205
0.139815
0.164278
0.191528
0.21415
0.235511
0.261668
0.295757
0.333144
0.356883
0.325879
0.254566
0.191208
0.14064
0.0966068
0.0446298
0.0446184
0.0455695
0.0465715
0.0476261
0.0487344
0.0498995
0.0511281
0.0524311
0.0538258
0.0553396
0.0570136
0.0589046
0.0610561
0.0633997
0.0658521
0.0684645
0.0713656
0.0747307
0.0787685
0.0837793
0.0901482
0.0983267
0.108811
0.122132
0.138862
0.159423
0.178341
0.191518
0.205822
0.224587
0.248114
0.273955
0.292345
0.280453
0.237096
0.189787
0.148469
0.112766
0.079117
0.0374505
0.0453652
0.0463216
0.0473069
0.0483224
0.0493708
0.0504587
0.0515989
0.0528093
0.0541139
0.0555448
0.0571412
0.0589427
0.0609735
0.0632167
0.06568
0.0684617
0.0717104
0.0756229
0.0804864
0.0867072
0.094809
0.105425
0.119201
0.136445
0.153542
0.165499
0.174361
0.185168
0.199863
0.217626
0.233343
0.241026
0.2327
0.205303
0.174281
0.144417
0.116729
0.090956
0.0649468
0.0315338
0.0459519
0.0468882
0.0478286
0.0487772
0.0497405
0.0507302
0.0517641
0.0528651
0.0540606
0.0553826
0.0568668
0.0585476
0.060454
0.0626166
0.0650959
0.0680036
0.0715088
0.0758547
0.0813879
0.0885902
0.0981228
0.110831
0.127389
0.144457
0.154307
0.161146
0.169177
0.18045
0.193238
0.20135
0.199786
0.188632
0.172292
0.15365
0.133809
0.11385
0.0941814
0.0747293
0.0540418
0.0268999
0.0464013
0.0472954
0.0481683
0.0490289
0.0498892
0.0507668
0.0516841
0.0526669
0.0537442
0.0549479
0.0563125
0.0578748
0.0596754
0.0617656
0.0642219
0.0671599
0.0707482
0.0752232
0.0809115
0.0882602
0.0979157
0.110749
0.127105
0.138875
0.144174
0.150267
0.156948
0.16299
0.164644
0.160648
0.15351
0.144761
0.134052
0.121702
0.1081
0.0936885
0.0787785
0.0633459
0.0462181
0.0235731
0.0467442
0.047573
0.0483569
0.0491129
0.0498592
0.0506182
0.0514159
0.0522802
0.0532408
0.0543298
0.0555817
0.0570347
0.0587337
0.0607345
0.0631102
0.0659582
0.0694072
0.0736231
0.0788084
0.0851862
0.0929793
0.102395
0.113369
0.124031
0.130334
0.133644
0.135026
0.134041
0.131699
0.128414
0.123908
0.118161
0.110957
0.102221
0.0921284
0.0809822
0.0689934
0.0560894
0.0412153
0.0215075
0.0470099
0.0477462
0.0484228
0.0490642
0.0496934
0.0503362
0.0510199
0.0517734
0.0526265
0.0536109
0.0547607
0.0561134
0.0577116
0.0596049
0.0618509
0.0645164
0.0676757
0.0714068
0.0757797
0.0808276
0.0864936
0.0925979
0.0988844
0.104852
0.1092
0.11134
0.111745
0.111194
0.11003
0.108275
0.105723
0.102081
0.0971015
0.0906642
0.0828047
0.0737262
0.063599
0.0522761
0.0387357
0.0206454
0.0472174
0.0478359
0.0483988
0.0489277
0.0494476
0.0499847
0.0505665
0.0512213
0.0519786
0.0528692
0.0539258
0.0551835
0.0566802
0.0584558
0.0605513
0.0630049
0.0658466
0.0690897
0.0727169
0.0766597
0.0807709
0.0848007
0.088437
0.0914304
0.0936292
0.0950116
0.0957129
0.0959918
0.0959557
0.0955247
0.0945114
0.0926279
0.0894712
0.0847376
0.0784172
0.0707112
0.06176
0.0513364
0.038334
0.0208633
0.0473832
0.0479044
0.048362
0.0487855
0.0492042
0.0496449
0.0501343
0.0506995
0.0513684
0.0521702
0.0531356
0.0542969
0.0556872
0.0573394
0.0592831
0.0615399
0.0641176
0.0670013
0.0701413
0.0734348
0.0767064
0.0797119
0.0822056
0.0840598
0.0853458
0.086244
0.0869242
0.0875141
0.0880874
0.0886225
0.0889349
0.0886165
0.0870129
0.0836006
0.078321
0.0713806
0.0629561
0.0528237
0.039752
0.0219499
0.0475793
0.0480328
0.0483948
0.0487184
0.0490408
0.0493903
0.049792
0.050271
0.0508527
0.0515638
0.0524324
0.0534879
0.0547604
0.056279
0.0580688
0.0601473
0.0625195
0.0651745
0.0680771
0.0711475
0.0742255
0.0770363
0.0792826
0.0808879
0.0820161
0.0829286
0.0838067
0.0847547
0.0858635
0.0871921
0.0886266
0.0896662
0.0894285
0.0870108
0.0821766
0.075277
0.0666962
0.0562943
0.0426839
0.0237145
0.0476654
0.0481173
0.0484438
0.0487163
0.0489767
0.0492568
0.0495836
0.049982
0.0504763
0.0510914
0.0518531
0.0527885
0.0539258
0.0552931
0.0569155
0.0588123
0.0609958
0.0634757
0.0662639
0.0693514
0.0726492
0.0758792
0.0785636
0.0804884
0.0819095
0.0832013
0.0846268
0.0862461
0.0881038
0.0903005
0.0929192
0.0954667
0.0966611
0.094786
0.0895463
0.0818783
0.0724877
0.0613329
0.0468299
0.0259513
0.0477797
0.0482766
0.0486043
0.0488572
0.049079
0.0493046
0.0495641
0.0498838
0.0502877
0.0507993
0.0514426
0.0522429
0.0532269
0.0544226
0.0558568
0.0575514
0.0595234
0.0618022
0.0644539
0.0675519
0.0711077
0.0750176
0.0788252
0.0817037
0.0838513
0.0857842
0.088117
0.0908349
0.0938742
0.096995
0.100513
0.105105
0.108885
0.107421
0.100341
0.0907717
0.0798956
0.0675651
0.0518878
0.0284651
0.0480375
0.0487038
0.0490502
0.0492764
0.0494528
0.049616
0.0497999
0.0500322
0.0503362
0.0507337
0.0512468
0.051899
0.0527149
0.0537221
0.054949
0.0564203
0.0581538
0.0601827
0.062608
0.0655561
0.0691053
0.0733264
0.0783321
0.0836587
0.0863668
0.0882764
0.0917067
0.0962684
0.101144
0.105252
0.109177
0.114574
0.121469
0.123636
0.114439
0.10163
0.0885504
0.0746071
0.0574918
0.0310937
0.0485734
0.0493809
0.0498358
0.0500436
0.0501681
0.0502609
0.050357
0.0504887
0.0506803
0.0509521
0.0513256
0.0518243
0.0524693
0.0532823
0.0542924
0.0555294
0.0570159
0.0587729
0.060898
0.0634884
0.0666143
0.0703668
0.0748701
0.0800002
0.0846608
0.0883411
0.0921583
0.0966699
0.102255
0.108149
0.114383
0.122079
0.13157
0.138427
0.129848
0.113534
0.097851
0.0819009
0.0629945
0.0337171
0.0496185
0.050495
0.0510736
0.0512979
0.0513421
0.0513376
0.0513233
0.0513334
0.0513954
0.051525
0.0517466
0.0520926
0.0525794
0.0532103