/*--------------------------------*- C++ -*----------------------------------*\
  =========                 |
  \\      /  F ield         | OpenFOAM: The Open Source CFD Toolbox
   \\    /   O peration     | Website:  https://openfoam.org
    \\  /    A nd           | Version:  8
     \\/     M anipulation  |
\*---------------------------------------------------------------------------*/
FoamFile
{
    version     2.0;
    format      ascii;
    class       volScalarField;
    location    "3.25";
    object      nut;
}
// * * * * * * * * * * * * * * * * * * * * * * * * * * * * * * * * * * * * * //

dimensions      [0 2 -1 0 0 0 0];

internalField   nonuniform List<scalar> 
9150
(
9.60034e-06
6.40455e-06
6.5693e-06
8.74792e-06
7.59248e-06
7.59081e-06
8.75005e-06
6.56982e-06
6.40321e-06
9.60043e-06
9.48765e-06
5.73656e-06
8.27303e-06
9.89334e-06
7.06582e-06
7.0633e-06
9.89262e-06
8.27434e-06
5.73546e-06
9.48766e-06
9.29571e-06
5.49936e-06
1.07975e-05
1.02703e-05
6.71835e-06
6.71605e-06
1.02676e-05
1.07983e-05
5.49846e-06
9.29568e-06
9.08008e-06
5.42162e-06
1.34015e-05
1.02686e-05
6.53183e-06
6.52984e-06
1.02652e-05
1.33999e-05
5.42084e-06
9.08003e-06
8.84525e-06
5.4054e-06
1.56463e-05
1.01772e-05
6.43712e-06
6.43532e-06
1.01738e-05
1.56414e-05
5.40468e-06
8.84519e-06
5.91121e-06
1.12576e-05
1.38363e-05
1.7401e-05
1.66281e-05
1.66317e-05
1.74243e-05
1.3881e-05
1.12882e-05
5.91327e-06
6.28005e-06
8.84947e-06
1.13394e-05
1.52984e-05
1.43874e-05
1.43872e-05
1.53104e-05
1.13645e-05
8.86104e-06
6.27989e-06
6.83027e-06
7.89885e-06
9.37296e-06
1.30631e-05
1.21003e-05
1.20994e-05
1.30709e-05
9.3852e-06
7.90103e-06
6.82996e-06
7.38713e-06
7.29441e-06
7.96669e-06
1.1152e-05
1.01771e-05
1.01761e-05
1.11572e-05
7.97184e-06
7.29343e-06
7.38693e-06
8.07464e-06
6.84481e-06
7.04826e-06
9.65149e-06
8.62943e-06
8.62812e-06
9.65474e-06
7.04997e-06
6.84327e-06
8.07454e-06
1.07649e-05
1.23693e-05
1.21724e-05
1.53325e-05
1.73e-05
1.75537e-05
1.61775e-05
1.50314e-05
2.19615e-05
1.43057e-05
7.84371e-06
1.07501e-05
1.22054e-05
1.55762e-05
1.74209e-05
1.75935e-05
1.60539e-05
1.26606e-05
1.08797e-05
7.91988e-06
7.44738e-06
1.0147e-05
1.23695e-05
1.58305e-05
1.75295e-05
1.76444e-05
1.6144e-05
1.26212e-05
1.02184e-05
7.46827e-06
7.02633e-06
9.75019e-06
1.24568e-05
1.60277e-05
1.76084e-05
1.76848e-05
1.62268e-05
1.26074e-05
9.84064e-06
7.03531e-06
6.50691e-06
1.00151e-05
1.2502e-05
1.62703e-05
1.75264e-05
1.75666e-05
1.63688e-05
1.2584e-05
1.00899e-05
6.51082e-06
9.93027e-06
1.00183e-05
1.0109e-05
1.02046e-05
1.03067e-05
1.04112e-05
1.05172e-05
1.06236e-05
1.07291e-05
1.08318e-05
8.50762e-05
8.65107e-05
8.79163e-05
8.92807e-05
9.05878e-05
9.18951e-05
9.32147e-05
9.45405e-05
9.58585e-05
9.71506e-05
0.000172326
0.000174641
0.000176897
0.000179092
0.000181237
0.000183372
0.000185492
0.000187582
0.000189617
0.000191563
0.000244519
0.000247021
0.000249448
0.000251803
0.000254085
0.000256329
0.000258526
0.000260656
0.000262688
0.000264586
0.000301848
0.000304199
0.000306474
0.000308675
0.000310797
0.000312851
0.00031484
0.000316744
0.00031853
0.000320161
0.000347811
0.000349948
0.000352021
0.000354032
0.000355976
0.00035784
0.000359635
0.000361337
0.000362916
0.000364331
0.000385839
0.000387845
0.000389809
0.00039173
0.000393599
0.000395403
0.000397125
0.000398753
0.000400251
0.000401572
0.000418642
0.00042065
0.000422636
0.000424594
0.000426512
0.000428375
0.000430158
0.000431833
0.000433357
0.000434677
0.000448145
0.000450276
0.000452396
0.000454491
0.000456545
0.000458543
0.000460457
0.000462241
0.000463836
0.000465168
0.000475575
0.000477901
0.00048021
0.000482485
0.000484701
0.000486848
0.000488901
0.000490787
0.000492399
0.000493677
0.000501603
0.000504139
0.000506632
0.000509073
0.000511439
0.00051371
0.000515835
0.000517692
0.000519205
0.000520342
0.000526546
0.000529271
0.000531925
0.000534502
0.000536973
0.00053927
0.000541313
0.000543012
0.000544316
0.000545195
0.000550511
0.000553378
0.000556153
0.000558793
0.000561237
0.000563407
0.000565236
0.000566661
0.00056764
0.000568147
0.000573515
0.000576465
0.000579255
0.000581824
0.000584103
0.000586023
0.000587522
0.000588557
0.000589095
0.000589115
0.000595489
0.000598417
0.000601095
0.000603467
0.000605465
0.000607025
0.000608093
0.000608637
0.000608634
0.000608069
0.000616313
0.000619105
0.000621565
0.000623632
0.000625247
0.000626353
0.000626905
0.000626876
0.00062625
0.000625022
0.000635889
0.000638451
0.000640598
0.000642274
0.000643424
0.000644001
0.000643966
0.000643299
0.00064199
0.000640038
0.000654159
0.000656408
0.000658167
0.000659384
0.000660009
0.000660001
0.00065933
0.00065798
0.000655946
0.000653233
0.000671077
0.000672954
0.000674272
0.000674984
0.000675046
0.000674423
0.000673092
0.000671041
0.00066827
0.000664787
0.000686634
0.000688097
0.000688944
0.000689131
0.000688619
0.000687381
0.000685397
0.000682661
0.000679176
0.000674952
0.000700861
0.000701894
0.000702265
0.000701934
0.00070087
0.000699049
0.000696456
0.000693089
0.000688956
0.000684068
0.000713862
0.000714476
0.000714396
0.000713588
0.000712023
0.000709685
0.000706565
0.000702664
0.000697993
0.000692568
0.000725801
0.00072604
0.000725568
0.000724354
0.000722378
0.000719629
0.000716102
0.000711805
0.000706754
0.000700972
0.000736871
0.000736816
0.000736046
0.000734538
0.000732278
0.000729261
0.000725491
0.000720982
0.000715758
0.00070985
0.000747282
0.000747047
0.00074611
0.000744454
0.000742076
0.000738976
0.000735167
0.000730671
0.000725521
0.00071976
0.000757238
0.000756963
0.000756015
0.000754387
0.000752082
0.000749111
0.000745494
0.000741263
0.000736458
0.000731138
0.000766908
0.000766748
0.00076596
0.000764547
0.000762518
0.000759894
0.000756703
0.000752985
0.000748789
0.000744182
0.000776408
0.000776518
0.000776059
0.00077504
0.000773479
0.000771401
0.000768843
0.000765849
0.000762476
0.000758793
0.00078579
0.000786312
0.000786331
0.000785862
0.000784929
0.000783559
0.000781792
0.000779675
0.000777265
0.000774632
0.000795046
0.000796096
0.000796713
0.000796914
0.000796725
0.000796175
0.0007953
0.000794147
0.000792767
0.000791223
0.000804115
0.000805779
0.000807078
0.00080803
0.000808658
0.000808989
0.000809054
0.00080889
0.000808537
0.000808045
0.00081291
0.000815242
0.000817272
0.000819018
0.000820498
0.000821732
0.000822742
0.000823551
0.000824185
0.00082467
0.000821338
0.000824362
0.000827142
0.000829694
0.000832031
0.000834162
0.000836099
0.000837847
0.000839411
0.000840792
0.000829318
0.000833034
0.00083656
0.000839908
0.000843085
0.000846091
0.000848922
0.000851567
0.000854005
0.000856211
0.000836797
0.000841186
0.000845435
0.000849552
0.000853539
0.000857387
0.000861076
0.000864576
0.000867841
0.000870815
0.000843757
0.000848785
0.000853719
0.000858566
0.000863323
0.000867973
0.000872485
0.000876805
0.000880861
0.000884564
0.000850208
0.000855831
0.000861402
0.000866929
0.000872408
0.000877818
0.000883116
0.000888231
0.000893056
0.000897461
0.000856189
0.000862354
0.000868506
0.000874653
0.000880795
0.000886915
0.000892967
0.000898867
0.000904468
0.000909562
0.000861767
0.00086842
0.000875091
0.000881793
0.000888531
0.000895297
0.000902058
0.00090874
0.000915156
0.000920932
0.000867039
0.000874136
0.000881274
0.000888472
0.000895742
0.000903086
0.000910488
0.000917885
0.00092501
0.000931468
0.000872127
0.000879643
0.000887219
0.000894877
0.000902632
0.000910494
0.00091845
0.000926426
0.000934018
0.000941268
0.000877145
0.000885077
0.00089309
0.000901206
0.000909441
0.000917803
0.000926273
0.000934745
0.000942619
0.000950123
0.000882219
0.00089059
0.000899061
0.000907655
0.000916387
0.000925259
0.00093424
0.000943201
0.000951501
0.000958836
0.000887413
0.000896233
0.000905166
0.000914227
0.000923423
0.000932741
0.000942122
0.000951451
0.000960315
0.000967847
0.000892646
0.000901878
0.000911213
0.000920656
0.000930201
0.000939816
0.000949428
0.00095892
0.00096807
0.000976202
0.000897688
0.000907204
0.000916781
0.000926409
0.000936072
0.000945735
0.00095533
0.000964749
0.000973866
0.000982314
0.000902129
0.000911661
0.000921147
0.000930559
0.000939865
0.000949025
0.000957979
0.000966625
0.000974874
0.000982571
0.000905268
0.000914337
0.000923154
0.000931661
0.000939798
0.000947503
0.000954709
0.000961322
0.000967222
0.000972282
0.000905792
0.000913604
0.000920816
0.000927327
0.000933039
0.000937864
0.000941709
0.000944472
0.000945989
0.000946032
0.000901157
0.000906399
0.00091049
0.000913285
0.00091465
0.00091447
0.000912636
0.000909033
0.000903504
0.000895796
0.000886958
0.000887598
0.000886308
0.00088291
0.000877268
0.000869283
0.000858873
0.000845967
0.000830475
0.000812614
0.000857088
0.000850557
0.000841233
0.000829013
0.000813882
0.00079588
0.000775061
0.000751542
0.000725912
0.000700172
0.000805786
0.000789984
0.000770916
0.00074883
0.000724122
0.000697237
0.000668616
0.000638645
0.000610068
0.000584801
0.000731287
0.000706522
0.00067924
0.00065033
0.000620891
0.000591973
0.000564386
0.000539285
0.000519682
0.000506293
0.000639939
0.000610445
0.000581338
0.00055405
0.000530014
0.000510241
0.000495229
0.000485994
0.000483556
0.000486951
0.000548424
0.000522565
0.000501271
0.000486021
0.000477479
0.000475347
0.000478787
0.000487169
0.000500028
0.000515914
0.000477809
0.000463938
0.00045778
0.000459915
0.000469473
0.000484117
0.000501805
0.000521383
0.000542427
0.000564053
0.000440884
0.000441677
0.000450237
0.000465879
0.00048709
0.000511475
0.000536266
0.000560041
0.000583207
0.000605677
0.000433487
0.000445293
0.000462896
0.000485273
0.000511056
0.000537853
0.000563472
0.000587421
0.000610134
0.00063168
0.000441069
0.000459048
0.000481061
0.000506129
0.00053256
0.000558677
0.000583541
0.000607257
0.000629942
0.000651127
0.000453543
0.000475048
0.000499403
0.000525297
0.000551553
0.000577729
0.000603858
0.000630646
0.000658021
0.000681862
0.000466957
0.000490477
0.000515821
0.000542131
0.00056958
0.000598902
0.00063105
0.000667051
0.000703949
0.000732712
0.00047916
0.000503403
0.000529439
0.000557687
0.000589223
0.000625194
0.00066633
0.000711157
0.000757263
0.000771285
0.000489417
0.000514685
0.00054271
0.000574728
0.000611966
0.000655131
0.000703739
0.000755391
0.000790392
0.000772584
0.000498947
0.000526074
0.000557459
0.000594435
0.000637894
0.000688132
0.000744537
0.000793484
0.000799906
0.00076058
0.00050903
0.000538657
0.000573866
0.000615904
0.000665491
0.000722854
0.000782254
0.000812751
0.000785392
0.000742398
0.000520691
0.000553434
0.000592767
0.000639787
0.000695152
0.00075781
0.000807582
0.000802144
0.00076058
0.000723669
0.000535676
0.00057185
0.0006151
0.000666443
0.000726534
0.000787382
0.000809652
0.000777457
0.000738286
0.000707237
0.000554578
0.000594651
0.000641651
0.000696325
0.000758051
0.000804633
0.000792289
0.000752313
0.000718244
0.000693298
0.000576764
0.000620721
0.000670807
0.000727425
0.000782355
0.000797086
0.000764819
0.00072952
0.000700735
0.000681623
0.00060031
0.0006473
0.000698329
0.000751526
0.000787989
0.000776578
0.000741007
0.000708759
0.000684605
0.000671056
0.000620369
0.000667684
0.000716254
0.000761158
0.000776588
0.000749859
0.000716507
0.000688309
0.000669127
0.000661202
0.000637019
0.000684396
0.000731682
0.000766148
0.000758501
0.000725668
0.000693966
0.000669527
0.000655308
0.000652696
0.000657859
0.000709034
0.000759912
0.000772171
0.000738233
0.000703341
0.000673978
0.000653379
0.000643833
0.000645641
0.000689562
0.000747895
0.000779489
0.000755292
0.000717921
0.000683559
0.000656357
0.000639193
0.000633675
0.000638749
0.000726535
0.000780934
0.000781556
0.000739201
0.000699178
0.000665055
0.000639673
0.000625639
0.000623542
0.000630841
0.00076175
0.000793061
0.000763939
0.000721653
0.000681245
0.000647288
0.000623478
0.000612278
0.000612948
0.000621559
0.000777541
0.000795022
0.00075406
0.000707434
0.000664601
0.000629925
0.00060741
0.000598842
0.000601674
0.000610928
0.000806932
0.000806252
0.000747548
0.000694446
0.000648158
0.000612345
0.000591124
0.000585109
0.000589565
0.000599132
0.000825634
0.000789589
0.000733023
0.000677937
0.000629392
0.000593085
0.000573827
0.000570652
0.000576447
0.000586447
0.000823366
0.000776069
0.000717229
0.000659347
0.000608541
0.000572133
0.000555546
0.000555512
0.000562522
0.000573479
0.000820084
0.000768028
0.000703995
0.000641359
0.000587004
0.000550118
0.0005366
0.000539829
0.00054824
0.000561298
0.000833885
0.000764868
0.000692501
0.000623023
0.000563803
0.000526262
0.000516526
0.000523419
0.000534238
0.000551343
0.000853203
0.000762148
0.000679203
0.000601829
0.000537125
0.000499364
0.000494724
0.000506269
0.000521343
0.000544451
0.000828295
0.000745434
0.000659559
0.000575848
0.000505773
0.000468693
0.000471066
0.000488897
0.00051065
0.000541623
0.000822983
0.000731917
0.000638186
0.000546248
0.000469829
0.000434282
0.000445981
0.000471994
0.000502734
0.000542922
0.000818315
0.000717358
0.000614144
0.000512692
0.000429045
0.000396458
0.000420247
0.000456231
0.000497743
0.000548187
0.00080753
0.000697667
0.000585108
0.000473889
0.000382772
0.000355872
0.000394998
0.000442242
0.0004955
0.000557143
0.000789184
0.000671642
0.00055023
0.000429333
0.00033099
0.000314331
0.000371922
0.000430566
0.000495291
0.000568763
0.000764737
0.000639761
0.000509574
0.000379081
0.000274509
0.000275069
0.00035302
0.000421676
0.000495885
0.000580253
0.000735608
0.000602527
0.000463234
0.000323371
0.00021534
0.00024244
0.000340082
0.000416442
0.000496806
0.000588697
0.000701857
0.000559708
0.000410915
0.000262601
0.00015736
0.000220374
0.000333852
0.000416457
0.000499953
0.000594283
0.000662702
0.00051036
0.000351908
0.000197981
0.000106374
0.000209358
0.000333127
0.000423396
0.000510152
0.000604001
0.000616912
0.000452508
0.000285303
0.000133268
6.8106e-05
0.000203581
0.000334022
0.000436332
0.000530512
0.000626064
0.000559083
0.000382752
0.000211592
7.64658e-05
4.44696e-05
0.000192026
0.000330456
0.000450547
0.00055753
0.000658196
0.000481996
0.000299368
0.000136824
3.70371e-05
3.18725e-05
0.000164987
0.00031539
0.000461008
0.000590225
0.000703037
0.000382159
0.000208535
7.47059e-05
1.77704e-05
2.43274e-05
0.00012042
0.000278778
0.000457581
0.000625344
0.000766679
0.000272957
0.000128137
3.73901e-05
1.28512e-05
1.92254e-05
6.78932e-05
0.000208629
0.000417524
0.000647036
0.000857333
0.000185455
8.02786e-05
2.3019e-05
1.42842e-05
1.73294e-05
2.95311e-05
0.000107565
0.00030079
0.000591954
0.000951735
0.000260173
6.78879e-05
1.80622e-05
1.52756e-05
1.71886e-05
1.8256e-05
2.95634e-05
0.00010892
0.00032728
0.000746651
1.093e-05
1.10287e-05
1.11145e-05
1.11828e-05
1.12288e-05
1.12473e-05
1.12323e-05
1.11769e-05
1.10744e-05
1.09203e-05
1.0719e-05
1.04964e-05
1.03167e-05
1.01857e-05
1.01039e-05
1.00691e-05
1.00796e-05
1.014e-05
1.0237e-05
1.03183e-05
1.0365e-05
1.0374e-05
1.03438e-05
1.02738e-05
1.01649e-05
1.00193e-05
9.83741e-06
9.61651e-06
9.34982e-06
9.02743e-06
8.63863e-06
8.18023e-06
7.66934e-06
7.13709e-06
6.61603e-06
6.08605e-06
5.49701e-06
4.86192e-06
1.98784e-05
4.51604e-06
9.84442e-05
9.9724e-05
0.000100881
0.000101882
0.000102693
0.000103279
0.000103602
0.00010362
0.000103289
0.000102569
0.000101435
9.99203e-05
9.80666e-05
9.67375e-05
9.62602e-05
9.65183e-05
9.72683e-05
9.80155e-05
9.81999e-05
9.80143e-05
9.74449e-05
9.65338e-05
9.52508e-05
9.35976e-05
9.161e-05
8.93194e-05
8.6735e-05
8.38276e-05
8.05291e-05
7.67531e-05
7.2423e-05
6.75279e-05
6.22247e-05
5.67204e-05
5.10551e-05
4.50028e-05
3.82776e-05
3.05234e-05
2.12839e-05
7.72759e-06
0.000193478
0.000195299
0.000196868
0.000198139
0.000199072
0.000199626
0.000199764
0.000199444
0.000198626
0.000197277
0.000195387
0.000193024
0.000190461
0.000188357
0.000186944
0.000185937
0.000184911
0.000183736
0.000182331
0.00018047
0.000178008
0.000174899
0.000171136
0.000166735
0.000161725
0.000156149
0.000150037
0.000143382
0.000136135
0.000128239
0.000119654
0.000110377
0.000100503
9.02111e-05
7.96361e-05
6.86199e-05
5.69384e-05
4.42659e-05
2.97797e-05
1.31277e-05
0.000266411
0.000268062
0.000269386
0.000270338
0.000270883
0.000270989
0.000270634
0.000269801
0.000268484
0.000266691
0.000264455
0.000261847
0.000259022
0.000256197
0.000253601
0.00025098
0.000248264
0.00024536
0.000242133
0.000238378
0.000233973
0.00022886
0.000223001
0.000216376
0.00020899
0.000200875
0.000192073
0.000182595
0.000172411
0.000161497
0.000149868
0.000137585
0.000124728
0.000111376
9.74905e-05
8.30586e-05
6.79953e-05
5.22132e-05
3.54179e-05
1.84255e-05
0.000321692
0.000322996
0.000323943
0.000324495
0.000324624
0.000324311
0.000323549
0.000322345
0.000320715
0.000318693
0.000316325
0.000313659
0.00031072
0.000307569
0.000304259
0.00030071
0.000296859
0.000292628
0.000287922
0.000282652
0.000276743
0.000270131
0.000262757
0.00025457
0.000245544
0.000235691
0.000225048
0.000213627
0.000201379
0.000188277
0.000174331
0.000159582
0.000144074
0.000127855
0.000110981
9.34009e-05
7.50673e-05
5.54969e-05
3.38036e-05
1.99541e-05
0.00036563
0.000366673
0.000367347
0.000367622
0.000367476
0.000366903
0.000365905
0.000364501
0.000362721
0.000360603
0.000358189
0.000355511
0.000352567
0.000349312
0.000345666
0.000341546
0.000336887
0.000331691
0.000325933
0.000319585
0.000312615
0.000304968
0.000296576
0.000287377
0.000277322
0.000266391
0.000254578
0.00024186
0.000228163
0.000213439
0.000197648
0.000180783
0.00016287
0.00014396
0.000124077
0.000103191
8.12001e-05
5.78259e-05
3.23796e-05
2.00375e-05
0.000402762
0.00040367
0.000404195
0.000404314
0.000404012
0.000403288
0.000402155
0.000400636
0.000398768
0.000396591
0.000394137
0.000391414
0.000388381
0.000384938
0.000380965
0.000376387
0.000371176
0.000365326
0.000358848
0.00035177
0.000344088
0.000335757
0.000326713
0.000316897
0.000306258
0.00029474
0.00028227
0.000268758
0.000254129
0.000238301
0.00022118
0.000202698
0.000182799
0.0001615
0.000138856
0.000114858
8.94608e-05
6.25141e-05
3.37446e-05
2.03024e-05
0.000435834
0.000436673
0.000437103
0.000437107
0.000436678
0.00043582
0.000434547
0.00043289
0.000430888
0.000428585
0.000426005
0.000423128
0.000419883
0.000416156
0.000411834
0.000406842
0.000401153
0.000394769
0.000387735
0.000380115
0.000371935
0.000363144
0.000353669
0.000343457
0.000332463
0.000320615
0.000307798
0.000293893
0.00027878
0.000262333
0.000244416
0.000224893
0.00020366
0.000180612
0.000155702
0.000128932
0.000100183
6.9277e-05
3.60273e-05
5.04075e-06
0.000466285
0.000467034
0.000467341
0.000467194
0.000466591
0.000465538
0.000464055
0.000462174
0.000459941
0.000457405
0.00045458
0.000451416
0.00044782
0.000443691
0.000438936
0.000433491
0.00042733
0.000420464
0.000412951
0.000404869
0.000396263
0.000387064
0.000377194
0.00036663
0.000355354
0.000343295
0.00033032
0.000316276
0.000301
0.000284332
0.000266095
0.000246103
0.00022419
0.00020009
0.000173549
0.000144379
0.000112395
7.74511e-05
3.97034e-05
5.55333e-06
0.000494683
0.000495268
0.000495371
0.000494986
0.000494115
0.000492771
0.000490979
0.000488776
0.000486208
0.000483322
0.000480115
0.000476487
0.00047235
0.000467642
0.000462303
0.000456296
0.000449611
0.000442278
0.000434352
0.000425876
0.000416829
0.000407128
0.000396762
0.00038577
0.000374154
0.000361848
0.000348715
0.000334577
0.000319264
0.000302596
0.000284365
0.000264338
0.000242195
0.0002176
0.000190058
0.000159002
0.000124069
8.51657e-05
4.30928e-05
6.02631e-06
0.000521152
0.000521475
0.000521265
0.000520527
0.00051927
0.00051752
0.000515309
0.000512683
0.000509684
0.000506344
0.00050259
0.000498294
0.000493413
0.000487924
0.000481809
0.000475064
0.000467713
0.0004598
0.000451357
0.00044238
0.000432792
0.000422518
0.000411592
0.000400083
0.000387975
0.00037519
0.000361632
0.000347212
0.000331814
0.000315258
0.000297278
0.000277547
0.000255718
0.000231293
0.000203496
0.000171397
0.000134278
9.19177e-05
4.56362e-05
6.46865e-06
0.000545687
0.000545621
0.000544976
0.000543764
0.000542006
0.000539735
0.00053699
0.000533811
0.00053023
0.00052624
0.000521757
0.00051667
0.000510902
0.000504455
0.000497367
0.000489674
0.000481428
0.000472689
0.000463487
0.000453785
0.000443492
0.000432529
0.000420901
0.000408632
0.000395705
0.000382078
0.000367769
0.000352792
0.000337108
0.000320617
0.000303108
0.000284137
0.000263182
0.000239658
0.000212755
0.00018122
0.000143665
9.92243e-05
4.93429e-05
6.91275e-06
0.000568198
0.000567617
0.000566413
0.000564607
0.000562226
0.000559307
0.000555895
0.000552021
0.000547693
0.000542876
0.000537479
0.000531419
0.000524609
0.000517057
0.000508829
0.000499987
0.0004906
0.000480748
0.00047048
0.000459773
0.000448516
0.000436578
0.000423915
0.00041053
0.000396477
0.000381776
0.000366494
0.000350712
0.000334466
0.00031773
0.000300356
0.000281992
0.00026213
0.000240158
0.000215257
0.000186043
0.00015063
0.000107072
5.48903e-05
7.3166e-06
0.00058861
0.000587394
0.000585516
0.000583
0.000579876
0.00057618
0.000571951
0.000567217
0.000561973
0.000556154
0.000549665
0.000542453
0.000534457
0.000525678
0.00051617
0.000506004
0.000495261
0.000484024
0.000472341
0.00046019
0.000447478
0.000434115
0.000420087
0.000405399
0.00039007
0.000374146
0.000357731
0.000340951
0.000323907
0.00030664
0.000289091
0.000271047
0.000252114
0.000231732
0.000209173
0.000183093
0.000151218
0.000110686
5.97959e-05
7.63229e-06
0.000606906
0.000604952
0.000602298
0.00059897
0.000594997
0.000590408
0.000585225
0.000579458
0.000573086
0.000566052
0.000558305
0.000549801
0.000540488
0.000530351
0.000519429
0.000507787
0.000495504
0.000482653
0.000469283
0.000455391
0.000440935
0.000425874
0.000410207
0.000393954
0.00037715
0.000359868
0.000342231
0.000324393
0.000306503
0.000288664
0.000270885
0.000253045
0.00023488
0.000215972
0.000195659
0.00017267
0.0001447
0.000108323
5.94655e-05
7.83969e-06
0.00062312
0.000620343
0.000616828
0.0006126
0.000607683
0.000602093
0.000595839
0.000588914
0.000581294
0.000572941
0.000563812
0.000553869
0.00054308
0.000531436
0.00051896
0.000505706
0.000491741
0.000477136
0.000461941
0.000446182
0.000429862
0.000412982
0.000395567
0.000377662
0.000359337
0.000340695
0.000321877
0.000303053
0.000284397
0.000266048
0.000248059
0.000230365
0.000212781
0.000195051
0.000176756
0.000156877
0.00013337
0.000102464
5.84785e-05
8.06872e-06
0.000637336
0.000633671
0.000629228
0.000624032
0.000618098
0.000611436
0.000604042
0.000595899
0.00058698
0.000577251
0.000566679
0.000555234
0.000542891
0.00052965
0.000515533
0.000500591
0.000484889
0.000468499
0.000451483
0.000433894
0.000415771
0.000397158
0.000378112
0.000358711
0.00033906
0.000319292
0.000299566
0.000280061
0.000260957
0.000242408
0.00022447
0.000207059
0.000189982
0.000173062
0.000156109
0.000138507
0.000118662
9.32873e-05
5.57376e-05
8.04716e-06
0.000649694
0.000645103
0.000639696
0.000633496
0.000626517
0.000618762
0.00061022
0.000600867
0.000590671
0.000579599
0.000567619
0.000554704
0.000540838
0.000526027
0.000510304
0.000493732
0.000476387
0.000458348
0.000439699
0.000420513
0.000400866
0.000380832
0.000360505
0.000339997
0.000319451
0.000299034
0.000278932
0.000259323
0.000240391
0.000222283
0.000205003
0.000188379
0.000172134
0.00015601
0.000139789
0.000123074
0.000104891
8.29378e-05
5.1976e-05
7.83995e-06
0.000660407
0.000654889
0.000648524
0.000641334
0.000633336
0.000624532
0.000614908
0.000604438
0.000593085
0.000580813
0.000567588
0.00055338
0.000538171
0.000521979
0.000504866
0.000486921
0.000468239
0.000448916
0.000429047
0.000408726
0.000388043
0.000367099
0.000346012
0.00032493
0.000304038
0.000283552
0.000263694
0.000244651
0.000226608
0.000209698
0.000193881
0.000178897
0.000164342
0.00014976
0.000134654
0.000118462
0.000100482
7.95052e-05
5.16507e-05
8.38649e-06
0.00066977
0.000663378
0.000656117
0.000648015
0.000639092
0.000629358
0.000618805
0.00060741
0.000595138
0.000581948
0.000567802
0.000552659
0.000536483
0.000519328
0.000501305
0.000482528
0.000463104
0.000443133
0.00042271
0.000401925
0.000380863
0.000359625
0.000338337
0.000317173
0.000296364
0.000276186
0.000256928
0.000238837
0.000222116
0.000206889
0.000193122
0.000180528
0.000168546
0.000156424
0.000143252
0.000127995
0.000109544
8.67002e-05
5.71338e-05
9.72036e-06
0.000678178
0.000671025
0.000662998
0.000654135
0.000644466
0.000634012
0.000622781
0.000610765
0.000597943
0.000584276
0.000569714
0.000554195
0.000537743
0.00052041
0.00050232
0.00048359
0.000464322
0.000444604
0.000424513
0.000404108
0.000383434
0.000362554
0.000341571
0.000320658
0.000300074
0.000280161
0.000261314
0.000243924
0.000228312
0.000214661
0.000202953
0.000192866
0.000183711
0.000174424
0.000163587
0.000149535
0.000130429
0.000104243
6.84654e-05
1.20411e-05
0.000686122
0.000678391
0.000669809
0.000660425
0.000650286
0.000639433
0.0006279
0.000615711
0.000602868
0.000589362
0.000575159
0.000560225
0.000544565
0.000528139
0.000511029
0.000493408
0.000475365
0.000456962
0.000438238
0.00041919
0.000399776
0.000379976
0.000359823
0.000339444
0.000319079
0.000299104
0.000280039
0.00026247
0.000246974
0.000233967
0.000223557
0.000215424
0.000208736
0.000202092
0.000193521
0.000180478
0.000159982
0.00012881
8.36269e-05
1.55993e-05
0.000694184
0.000686135
0.000677295
0.00066773
0.000657515
0.000646726
0.000635439
0.000623726
0.000611613
0.000599103
0.000586187
0.000572794
0.000558843
0.000544351
0.000529409
0.000514055
0.000498404
0.000482429
0.000466156
0.000449465
0.000432225
0.000414331
0.000395725
0.000376435
0.000356607
0.000336553
0.000316795
0.000298078
0.000281279
0.000267245
0.000256534
0.000249126
0.000244215
0.000240054
0.000233899
0.000221947
0.000199214
0.000160156
0.000101033
2.01396e-05
0.000702992
0.000694951
0.000686221
0.000676894
0.000667078
0.000656892
0.000646469
0.000635951
0.000625434
0.00061489
0.000604265
0.000593379
0.000582062
0.000570291
0.000558144
0.000545795
0.000533338
0.000520705
0.000507569
0.000493797
0.000479344
0.000464047
0.000447752
0.000430367
0.000411903
0.000392525
0.000372614
0.00035283
0.000334133
0.00031771
0.000304762
0.000296129
0.000291795
0.000290318
0.000287912
0.000278739
0.000254611
0.00020519
0.000124173
2.47544e-05
0.000713151
0.000705496
0.000697298
0.00068868
0.000679784
0.000670768
0.000661806
0.000653074
0.000644708
0.000636716
0.000628934
0.000620998
0.000612666
0.000604012
0.000595192
0.000586237
0.000577084
0.000567647
0.000557741
0.000547126
0.000535605
0.000523009
0.000509142
0.000493841
0.000477006
0.000458713
0.00043923
0.000419118
0.000399301
0.00038109
0.000366168
0.000356073
0.000351725
0.000352962
0.000357204
0.000354196
0.000330549
0.000270315
0.000158942
2.87088e-05
0.000725115
0.000718234
0.000710991
0.000703535
0.000696034
0.000688666
0.00068161
0.000675017
0.000668961
0.000663384
0.000658102
0.000652946
0.000647758
0.000642429
0.000636913
0.000631126
0.000624954
0.000618288
0.000610983
0.000602823
0.000593521
0.000582776
0.000570303
0.000555842
0.000539098
0.000520249
0.000499495
0.000477455
0.000455383
0.000435288
0.000419781
0.000411564
0.000412535
0.000422548
0.000437343
0.000446929
0.000421742
0.000348631
0.000206031
3.17249e-05
0.000739042
0.000733262
0.000727304
0.000721332
0.000715516
0.000710027
0.000705013
0.000700569
0.000696703
0.000693323
0.000690285
0.000687472
0.000684756
0.000681987
0.000679013
0.000675682
0.000671818
0.000667222
0.000661669
0.000654878
0.000646473
0.000636015
0.000623118
0.000607641
0.000589288
0.000567993
0.000544066
0.000518524
0.00049349
0.000472354
0.000459319
0.000458164
0.000470521
0.000494324
0.000521807
0.000535621
0.000509515
0.000418218
0.000252018
3.35228e-05
0.000754749
0.000750278
0.000745781
0.000741417
0.000737339
0.000733688
0.000730564
0.000728006
0.00072598
0.000724374
0.000723049
0.000721876
0.000720736
0.000719511
0.000718064
0.000716224
0.000713736
0.000710269
0.000705448
0.000698867
0.00069004
0.000678574
0.000664243
0.000646619
0.000625477
0.000600964
0.000573904
0.000546232
0.00052141
0.000504338
0.000500283
0.000513104
0.00054335
0.000586393
0.000607009
0.000622757
0.000563803
0.000458123
0.000279579
3.38885e-05
0.00077179
0.000768694
0.000765666
0.000762841
0.000760343
0.000758266
0.000756662
0.000755526
0.000754786
0.000754322
0.000753986
0.00075365
0.000753219
0.000752623
0.000751756
0.000750414
0.000748255
0.000744832
0.000739671
0.000732306
0.000722196
0.00070914
0.000692864
0.000673026
0.000649625
0.000623374
0.000596057
0.000570715
0.000551708
0.000544409
0.000553613
0.000582492
0.000632258
0.000667399
0.00069183
0.000677897
0.000582085
0.000468935
0.000283385
3.29876e-05
0.000789575
0.000787791
0.000786097
0.000784593
0.000783359
0.000782443
0.00078185
0.000781539
0.00078142
0.000781369
0.00078125
0.000780967
0.000780495
0.000779835
0.000778841
0.000777167
0.000774326
0.000769829
0.000763253
0.000754247
0.000742389
0.000727557
0.000709837
0.000689195
0.000665955
0.000641457
0.000618461
0.00060066
0.000591956
0.000597139
0.000618293
0.000652096
0.000677637
0.000698388
0.000720004
0.000675606
0.000576339
0.000462144
0.000274928
3.10741e-05
0.000807512
0.000806892
0.000806308
0.000805817
0.000805452
0.000805212
0.000805065
0.000804944
0.000804756
0.000804394
0.000803767
0.000802859
0.000801749
0.00080045
0.000798642
0.000795786
0.000791275
0.000784611
0.000775553
0.000764115
0.000750414
0.000734601
0.000717102
0.000698515
0.000679498
0.000661555
0.000647637
0.000641263
0.000642748
0.000653435
0.00066706
0.000680721
0.000701658
0.000725581
0.000718018
0.000650256
0.000556901
0.000444593
0.00025915
2.86999e-05
0.000825131
0.000825489
0.000825765
0.00082597
0.000826086
0.000826073
0.000825869
0.000825398
0.000824581
0.000823349
0.000821683
0.000819666
0.000817417
0.00081472
0.000811001
0.000805709
0.000798292
0.000788525
0.000776563
0.000762858
0.0007481
0.00073321
0.000719109
0.000706546
0.000696177
0.000689086
0.000687822
0.000689425
0.00068803
0.000686296
0.000690722
0.000705246
0.000723461
0.000728207
0.0006878
0.000613673
0.000530438
0.000420748
0.000239443
2.62705e-05
0.000842128
0.000843288
0.000844208
0.00084485
0.000845155
0.000845049
0.000844455
0.000843298
0.000841519
0.000839093
0.000836047
0.000832472
0.000828415
0.000823462
0.000816935
0.000808442
0.000797823
0.000785184
0.000770959
0.000756129
0.000742135
0.000730634
0.00072308
0.000720237
0.000721776
0.000726692
0.000727629
0.000720507
0.000712976
0.000712315
0.000719583
0.000730642
0.000733641
0.000704169