/*--------------------------------*- C++ -*----------------------------------*\
  =========                 |
  \\      /  F ield         | OpenFOAM: The Open Source CFD Toolbox
   \\    /   O peration     | Website:  https://openfoam.org
    \\  /    A nd           | Version:  8
     \\/     M anipulation  |
\*---------------------------------------------------------------------------*/
FoamFile
{
    version     2.0;
    format      ascii;
    class       volScalarField;
    location    "3.25";
    object      p;
}
// * * * * * * * * * * * * * * * * * * * * * * * * * * * * * * * * * * * * * //

dimensions      [1 -1 -2 0 0 0 0];

internalField   nonuniform List<scalar> 
9150
(
393.955
366.949
341.454
324.251
315.935
315.917
324.2
341.382
366.869
393.882
365.095
345.532
329.884
318.074
312.086
312.073
318.037
329.83
345.468
365.029
335.816
322.236
313.703
305.939
301.826
301.817
305.911
313.661
322.185
335.758
311.109
301.071
295.614
290.244
287.271
287.263
290.22
295.578
301.027
311.057
289.824
280.878
276.309
272.131
269.682
269.674
272.109
276.277
280.838
289.774
27.5405
23.5328
48.4994
62.5963
69.0792
68.8547
61.9477
47.5246
22.1759
25.703
197.277
173.226
167.796
166.514
166.564
166.441
166.162
167.257
172.53
196.58
301.547
270.327
254.428
244.524
239.836
239.765
244.325
254.132
269.98
301.229
382.078
340.031
312.278
294.923
286.408
286.365
294.806
312.111
339.85
381.928
433.021
380.196
341.59
319.543
309.391
309.363
319.467
341.485
380.089
432.943
-46.7512
-18.182
-30.2734
-23.8146
-27.144
-29.1568
-24.977
-34.3942
-26.0164
-68.0095
-42.0301
-29.1108
-47.7656
-43.4259
-46.8427
-48.4767
-44.2925
-54.9441
-36.0934
-56.8471
-87.314
-58.859
-90.0367
-84.8886
-82.2105
-82.8852
-86.0635
-95.8959
-64.3752
-96.7945
-267.237
-144.595
-127.665
-110.006
-94.4494
-94.8738
-111.895
-131.796
-147.634
-275.052
-414.779
-176.673
-80.8342
-51.0308
-35.6343
-35.9868
-52.2424
-82.7521
-178.864
-420.307
1759.35
1759.05
1758.76
1758.48
1758.2
1757.93
1757.66
1757.41
1757.15
1756.9
1739.69
1739.38
1739.07
1738.77
1738.47
1738.18
1737.89
1737.6
1737.31
1737.03
1720.08
1719.74
1719.42
1719.09
1718.77
1718.45
1718.13
1717.82
1717.5
1717.19
1700.42
1700.07
1699.73
1699.39
1699.05
1698.71
1698.38
1698.05
1697.72
1697.39
1680.75
1680.39
1680.03
1679.67
1679.31
1678.96
1678.62
1678.28
1677.94
1677.62
1661.06
1660.68
1660.3
1659.92
1659.55
1659.18
1658.82
1658.47
1658.14
1657.82
1641.35
1640.95
1640.54
1640.14
1639.74
1639.34
1638.96
1638.61
1638.29
1637.98
1621.63
1621.2
1620.76
1620.31
1619.85
1619.38
1618.96
1618.62
1618.33
1618.09
1601.91
1601.44
1600.96
1600.47
1599.93
1599.36
1598.94
1598.7
1598.5
1598.22
1582.27
1581.84
1581.4
1580.97
1580.72
1579.97
1582.4
1582.76
1579.18
1578.79
1562.6
1562.26
1561.93
1561.36
1562.54
1563.2
1563.21
1560.94
1560.1
1559.68
1542.79
1542.5
1543.24
1543.62
1543.8
1543.25
1542.16
1541.61
1540.96
1540.44
1524.17
1524.38
1524.37
1524.24
1523.49
1523.15
1522.56
1522.01
1521.49
1521
1505.13
1505.25
1504.92
1504.56
1504.12
1503.47
1502.9
1502.37
1501.86
1501.4
1485.9
1485.53
1485.23
1484.69
1484.15
1483.61
1483.08
1482.56
1482.07
1481.61
1466.4
1465.97
1465.35
1464.81
1464.27
1463.73
1463.2
1462.67
1462.17
1461.69
1446.58
1445.99
1445.44
1444.89
1444.34
1443.8
1443.25
1442.72
1442.19
1441.67
1426.67
1426.09
1425.51
1424.94
1424.38
1423.82
1423.27
1422.71
1422.16
1421.61
1406.66
1406.07
1405.49
1404.92
1404.36
1403.8
1403.24
1402.68
1402.11
1401.53
1386.47
1385.92
1385.37
1384.83
1384.29
1383.75
1383.2
1382.64
1382.07
1381.48
1366.13
1365.65
1365.17
1364.68
1364.18
1363.67
1363.15
1362.61
1362.06
1361.48
1345.84
1345.4
1344.96
1344.51
1344.04
1343.57
1343.09
1342.6
1342.08
1341.55
1325.53
1325.13
1324.71
1324.3
1323.87
1323.45
1323.01
1322.57
1322.11
1321.64
1305.19
1304.81
1304.42
1304.04
1303.65
1303.27
1302.88
1302.49
1302.1
1301.72
1284.8
1284.44
1284.07
1283.71
1283.36
1283.01
1282.66
1282.32
1281.99
1281.66
1264.36
1264
1263.65
1263.31
1262.97
1262.65
1262.33
1262.02
1261.72
1261.43
1243.87
1243.51
1243.16
1242.83
1242.51
1242.19
1241.89
1241.6
1241.33
1241.07
1223.32
1222.96
1222.62
1222.29
1221.97
1221.67
1221.38
1221.11
1220.85
1220.61
1202.74
1202.38
1202.03
1201.7
1201.38
1201.09
1200.81
1200.56
1200.33
1200.12
1182.16
1181.78
1181.42
1181.08
1180.77
1180.48
1180.21
1179.98
1179.78
1179.62
1161.58
1161.19
1160.81
1160.46
1160.14
1159.85
1159.6
1159.39
1159.22
1159.11
1141.05
1140.63
1140.23
1139.86
1139.53
1139.23
1138.97
1138.77
1138.62
1138.54
1120.59
1120.14
1119.71
1119.31
1118.95
1118.62
1118.35
1118.14
1117.99
1117.91
1100.25
1099.76
1099.29
1098.85
1098.44
1098.08
1097.78
1097.54
1097.39
1097.32
1080.07
1079.54
1079.01
1078.51
1078.04
1077.62
1077.26
1076.99
1076.81
1076.75
1060.11
1059.52
1058.92
1058.33
1057.77
1057.25
1056.8
1056.44
1056.21
1056.15
1040.43
1039.76
1039.07
1038.37
1037.66
1036.98
1036.35
1035.84
1035.56
1035.5
1021.11
1020.36
1019.56
1018.7
1017.8
1016.85
1015.88
1015.02
1014.69
1015.04
1002.24
1001.42
1000.48
999.406
998.171
996.742
995.094
993.321
996.66
1001.68
984.019
983.218
982.262
981.108
979.677
977.854
975.78
974.866
996.919
993.619
966.456
965.769
964.891
963.751
962.223
960.104
957.409
955.336
987.812
981.036
949.786
949.512
949.15
948.682
948.084
947.335
946.592
946.965
962.307
961.217
933.443
933.581
933.686
933.759
933.828
933.938
934.02
934.155
935.274
934.566
917.213
917.733
918.221
918.653
919.037
919.383
919.279
917.038
913.753
916.191
901.123
902.14
903.193
904.262
905.376
906.614
907.689
906.648
903.184
900.703
884.832
886.369
888.016
889.757
891.617
893.708
895.985
896.938
893.861
890.378
868.081
870.136
872.386
874.826
877.479
880.462
883.948
887.215
886.764
883.44
850.569
853.09
855.888
858.972
862.37
866.178
870.639
875.822
879.706
879.301
832.017
834.898
838.112
841.663
845.575
849.893
854.762
860.472
866.855
871.148
812.264
815.418
818.946
822.819
827.031
831.577
836.467
841.777
847.622
853.754
791.219
794.649
798.519
802.746
807.277
812.062
817.033
822.112
827.215
832.194
768.548
772.571
777.088
781.915
787.062
792.5
798.16
803.94
809.718
815.313
746.855
748.608
754.176
760.157
766.241
772.6
779.264
786.13
793.032
799.771
726.478
729.05
729.799
735.738
743.245
751.088
758.936
766.843
774.722
782.403
699.151
703.15
706.869
710.514
716.818
725.362
734.173
742.798
751.34
759.965
670.621
673.361
675.661
677.457
683.577
693.402
702.664
711.972
721.407
731.798
639.071
639.179
637.594
639.226
650.463
647.359
658.744
670.443
681.555
695.61
605.852
604.458
603.452
605.521
610.328
612.741
614.502
614.134
624.109
637.793
568.799
564.509
561.844
565.216
563.812
557.066
547.603
543.286
546.235
560.537
532.077
525.404
522.539
520.143
502.74
489.171
470.354
453.481
445.881
463.252
498.977
493.64
490.757
474.502
461.371
443.385
420.998
419.201
426.757
450.394
471.017
474.36
462.583
451.81
438.575
417.159
420.355
427.71
431.918
438.591
461.631
455.649
443.021
436
421.19
421.672
425.312
426.117
426.577
428.875
449.789
435.075
436.805
424.745
419.488
422.128
422.616
422.876
423.028
424.026
440.514
437.344
433.373
419.974
419.137
419.989
420.373
420.68
420.966
420.562
427.183
435.606
427.755
419.413
417.707
417.719
418.015
418.555
418.531
415.816
430.928
434.624
426.517
417.57
414.785
414.769
415.143
415.149
411.359
398.8
430.45
432.097
425.157
415.699
411.983
411.866
411.99
408.302
393.952
375.491
428.242
431.963
423.024
414.726
411.032
410.266
407.099
393.051
370.683
354.339
428.386
434.057
425.325
410.499
406.79
404.291
390.857
366.715
350.107
336.028
421.362
433.938
430.105
404.018
399.2
376.077
355.359
341.71
329.932
316.18
395.559
401.242
405.37
396.615
399.802
336.812
329.509
324.968
314.493
300.39
365.991
359.038
370.062
424.251
396.949
365.896
347.98
330.967
312.161
292.965
359.011
365.359
419.997
429.592
405.736
376.968
348.397
324.537
302.611
281.416
347.031
368.615
404.959
387.58
369.686
349.66
328.086
306.837
286.059
265.588
328.979
343.462
348.21
352.61
343.69
324.576
304.598
285.385
266.407
247.488
302.781
314.975
302.383
301.794
300.993
290.384
276.219
260.921
244.81
227.993
286.239
304.367
280.044
283.637
279
268.426
255.549
241.424
226.464
210.722
294.638
298.233
295.294
282.548
267.146
252.516
238.319
224.045
209.589
194.691
278.776
269.123
260.423
252.987
242.808
231.045
218.523
205.395
191.762
177.511
245.725
242.022
239.298
234.549
225.134
213.96
201.787
188.724
174.854
160.083
232.729
234.106
232.824
224.501
213.187
201.268
188.619
175.211
161.161
146.903
237.49
244.865
233.709
217.519
203.291
190.094
176.708
162.738
147.943
132.543
228.743
226.181
213.807
200.406
188.341
176.759
164.975
152.858
140.564
129.492
200.167
193.138
187.104
179.887
171.694
162.953
153.697
144.112
134.614
126.843
177.371
176.8
171.412
164.05
156.878
149.735
142.315
134.826
127.941
123.277
157.01
157.608
152.955
146.713
140.939
135.309
129.509
123.886
119.405
117.153
138.147
137.988
133.842
128.763
124.102
119.5
114.772
110.458
107.694
106.027
119.984
119.024
114.931
110.382
106.262
102.072
97.8061
94.2569
92.4825
89.0495
101.16
99.8279
95.8221
91.486
87.4568
83.0998
78.5933
74.8158
72.0073
62.7909
80.481
79.6703
76.2545
72.3705
68.3891
63.7852
58.7959
54.0148
48.3635
33.1176
57.0763
58.0712
56.3538
53.718
50.144
45.7567
40.7205
35.3956
28.3928
14.0286
34.6248
37.404
37.9382
36.9078
33.9884
30.1798
25.4016
19.9974
13.0316
3.19973
16.8514
20.2
23.114
23.1309
20.9142
17.8645
13.5681
8.65942
2.95587
-1.66635
5.7446
7.49745
12.5923
12.5419
10.8899
8.67212
4.94909
0.725721
-3.54516
-4.26015
-0.666518
-0.500612
5.703
4.65308
3.06675
1.59344
-1.54128
-5.16456
-8.51409
-6.13862
-5.51916
-5.51473
-0.171645
-1.55738
-3.48863
-4.70869
-7.65396
-10.9267
-14.8204
-9.0635
-7.97663
-8.22646
-6.24862
-6.62997
-8.87448
-10.3885
-13.4756
-15.6584
-22.1861
-15.489
-7.00348
-7.03836
-11.2053
-10.8892
-13.5737
-15.1107
-16.0568
-13.2087
-18.2679
-28.3295
-14.5573
-3.11585
-16.7037
-15.7093
-19.0477
-20.6081
-17.9521
-12.8589
-2.57442
-42.7155
1756.64
1756.36
1756.08
1755.8
1755.5
1755.19
1754.87
1754.55
1754.22
1753.91
1753.64
1753.42
1753.26
1753.16
1753.1
1753.07
1753.05
1753.04
1753.05
1753.08
1753.11
1753.14
1753.15
1753.14
1753.09
1753.01
1752.89
1752.73
1752.54
1752.31
1752.06
1751.82
1751.6
1751.4
1751.23
1751.09
1750.97
1750.9
1750.86
1750.88
1736.73
1736.41
1736.09
1735.77
1735.45
1735.12
1734.8
1734.49
1734.19
1733.94
1733.73
1733.6
1733.5
1733.42
1733.33
1733.26
1733.19
1733.12
1733.06
1733
1732.95
1732.93
1732.87
1732.82
1732.74
1732.65
1732.54
1732.4
1732.24
1732.07
1731.89
1731.71
1731.57
1731.46
1731.36
1731.28
1731.22
1731.18
1731.16
1731.16
1716.86
1716.51
1716.17
1715.83
1715.5
1715.18
1714.86
1714.56
1714.29
1714.05
1713.8
1713.62
1713.47
1713.42
1713.6
1713.5
1713.26
1713.1
1713.04
1713.01
1713.05
1712.9
1712.77
1712.68
1712.59
1712.5
1712.4
1712.31
1712.2
1712.09
1711.96
1711.91
1712.09
1711.82
1711.6
1711.6
1711.55
1711.5
1711.45
1711.4
1697.06
1696.71
1696.37
1696.04
1695.73
1695.42
1695.15
1694.9
1694.69
1694.54
1694.45
1695.77
1696.78
1696.55
1696.01
1695.71
1695.69
1695.6
1693.33
1693.26
1693.12
1693
1692.87
1692.75
1692.64
1692.54
1692.48
1692.45
1692.42
1692.41
1692.4
1692.56
1692.91
1692.87
1692.59
1691.94
1691.76
1691.7
1691.62
1691.58
1677.28
1676.94
1676.61
1676.29
1676
1675.73
1675.49
1675.3
1675.16
1675.11
1675.16
1676.42
1677.89
1677.52
1677.33
1677.14
1677
1676.7
1674.42
1673.81
1673.54
1673.31
1673.11
1672.93
1672.73
1672.57
1672.51
1672.56
1672.64
1672.68
1672.73
1672.78
1672.87
1672.92
1672.94
1673.03
1673
1672.77
1672.56
1672.26
1657.49
1657.16
1656.84
1656.53
1656.25
1656
1655.78
1655.63
1655.54
1655.55
1655.7
1656.03
1656.57
1656.98
1656.44
1658.23
1655.78
1655.36
1654.74
1654.2
1653.84
1653.59
1653.38
1653.17
1653.01
1653.52
1653.68
1652.85
1652.91
1652.96
1653.01
1653.08
1653.21
1653.31
1653.3
1653.16
1652.98
1653
1653.01
1652.94
1637.67
1637.35
1637.03
1636.73
1636.43
1636.16
1635.92
1635.72
1635.59
1635.54
1635.6
1635.75
1635.91
1635.95
1635.72
1635.34
1635.12
1634.81
1634.42
1634.09
1633.88
1633.76
1633.68
1633.59
1633.82
1634.11
1633.95
1633.59
1633.24
1633.14
1633.09
1633.14
1633.08
1633.1
1633.22
1633.22
1633.18
1633.1
1632.87
1632.45
1617.82
1617.52
1617.21
1616.88
1616.56
1616.24
1615.92
1615.64
1615.42
1615.32
1615.35
1615.45
1615.53
1615.5
1615.35
1615.1
1614.8
1614.43
1614.01
1613.73
1613.68
1613.78
1613.88
1613.93
1614.05
1614.5
1614.36
1614.16
1613.93
1613.67
1613.49
1613.31
1613.41
1613.27
1612.97
1613.03
1613.07
1613
1612.79
1612.48
1598.03
1597.74
1597.42
1597.07
1596.69
1596.27
1595.82
1595.34
1594.93
1594.78
1594.9
1595.14
1595.31
1595.34
1595.24
1595.01
1594.65
1594.08
1593.44
1593
1593.24
1593.77
1594.18
1594.33
1594.5
1594.51
1594.42
1594.61
1594.47
1594.29
1593.97
1593.65
1593.69
1593.49
1593.06
1592.95
1592.9
1592.77
1592.55
1592.24
1578.5
1578.17
1577.8
1577.39
1576.93
1576.4
1575.77
1574.98
1574.61
1574.42
1574.45
1575.03
1575.43
1575.56
1575.56
1575.43
1575.13
1574.69
1575.34
1577.64
1576.81
1575.11
1575.04
1574.79
1574.66
1574.83
1575.19
1575.02
1574.45
1574.44
1573.87
1573.7
1572.94
1572.69
1572.73
1572.73
1572.76
1572.7
1572.46
1572.38
1559.26
1558.85
1558.44
1558.03
1557.61
1557.13
1556.63
1556.64
1558.59
1558.83
1557.38
1556.41
1556.48
1556.51
1556.49
1556.48
1556.43
1557.07
1558.5
1558.51
1558.21
1557.73
1557.79
1557.25
1556.61
1555.36
1555.49
1555.3
1554.94
1554.25
1553.5
1552.63
1552.27
1552.17
1552.07
1551.9
1552.06
1552.48
1552.36
1552.29
1539.97
1539.52
1539.11
1538.74
1538.38
1537.99
1538.75
1540.35
1540.31
1540.14
1539.8
1539.63
1537.2
1537.21
1537.26
1537.35
1537.51
1537.99
1540.31
1540.27
1540.22
1540.22
1540.4
1540.74
1539.05
1536.74
1536.46
1536.25
1535.95
1535.54
1536.06
1537.89
1536.86
1535.63
1534.74
1533.95
1533.17
1532.38
1532.48
1532.56
1520.55
1520.13
1519.78
1519.5
1519.3
1519.21
1520.29
1522.29
1522.04
1521.9
1521.75
1521.52
1518.64
1518.05
1517.98
1518.07
1518.38
1518.97
1519.7
1519.84
1521.66
1521.62
1519.62
1519
1518.59
1517.78
1517.41
1517.07
1516.76
1516.51
1516.97
1517.82
1517.95
1517.82
1516.89
1515.66
1514.84
1514.27
1513.42
1513.78
1500.96
1500.58
1500.28
1500.07
1500
1500.15
1500.61
1501.16
1502.88
1503.52
1502.82
1500.16
1498.88
1498.31
1498.06
1498
1498.1
1498.33
1498.65
1498.83
1498.61
1498.36
1498.18
1498.16
1497.99
1497.77
1497.59
1497.46
1497.4
1497.4
1497.52
1497.88
1498.26
1497.79
1496.76
1496.18
1495.51
1494.89
1493.99
1495.46
1481.16
1480.75
1480.39
1480.1
1479.89
1479.8
1479.85
1479.95
1479.79
1479.4
1479.41
1478.05
1477.82
1477.6
1477.47
1477.44
1477.54
1477.63
1477.68
1477.76
1477.75
1477.73
1477.69
1477.69
1477.67
1477.61
1477.56
1477.52
1477.51
1477.54
1477.67
1477.94
1478.29
1478.71
1478.88
1477.91
1477.07
1476.68
1473.89
1476.43
1461.21
1460.73
1460.3
1459.89
1459.54
1459.23
1458.98
1458.72
1458.38
1458.02
1457.59
1457.19
1456.94
1456.77
1456.68
1456.67
1456.72
1456.78
1456.83
1456.87
1456.93
1456.98
1457.03
1457.09
1457.14
1457.19
1457.23
1457.28
1457.29
1457.24
1457.25
1457.5
1457.91
1458.83
1459.1
1458.29
1458.24
1457.61
1456.48
1457.46
1441.15
1440.61
1440.08
1439.56
1439.07
1438.59
1438.13
1437.68
1437.21
1436.75
1436.32
1435.98
1435.75
1435.62
1435.57
1435.58
1435.68
1435.76
1435.74
1435.82
1435.9
1435.99
1436.1
1436.21
1436.32
1436.46
1436.64
1436.83
1436.95
1437.05
1437.64
1438.47
1438.37
1438.21
1439.3
1438.24
1438.16
1440.29
1439.24
1437.62
1421.03
1420.44
1419.81
1419.18
1418.55
1417.92
1417.28
1416.64
1415.99
1415.37
1414.83
1414.43
1414.22
1414.16
1414.17
1414.23
1414.29
1414.36
1414.42
1414.5
1414.59
1414.68
1414.79
1414.91
1415.06
1415.26
1415.58
1416.05
1416.41
1416.74
1417.54
1417.92
1418.17
1418.25
1418.12
1418.41
1418.41
1417.39
1416.75
1416.74
1400.91
1400.24
1399.55
1398.82
1398.07
1397.28
1396.45
1395.58
1394.69
1393.78
1392.95
1392.4
1392.24
1392.33
1392.49
1392.62
1392.71
1392.78
1392.83
1392.87
1392.91
1392.96
1393.02
1393.1
1393.23
1393.63
1394.26
1394.5
1395.39
1395.42
1396.55
1397.09
1397.58
1397.98
1398.12
1397.92
1398.19
1397.54
1396.87
1396.24
1380.83
1380.13
1379.38
1378.58
1377.71
1376.77
1375.72
1374.58
1373.32
1371.91
1370.3
1369.13
1369.29
1370.02
1370.51
1370.78
1370.9
1370.94
1370.95
1370.92
1370.87
1370.81
1370.78
1370.78
1371.01
1371.4
1371.77
1372.18
1372.55
1373.81
1374.17
1375.1
1376.03
1376.91
1377.56
1377.76
1377.07
1376.13
1375.18
1374.41
1360.85
1360.14
1359.38
1358.55
1357.62
1356.57
1355.36
1353.97
1352.39
1350.35
1348.49
1350.91
1349.23
1347.52
1348.74
1349.03
1349.05
1348.99
1348.88
1348.72
1348.51
1348.27
1348.03
1347.84
1347.94
1347.97
1348
1348.11
1348.2
1349.12
1349.96
1350.86
1352.18
1353.75
1355.22
1356.29
1356.45
1355.66
1353.39
1350.94
1340.96
1340.32
1339.62
1338.86
1338.02
1337.08
1335.98
1334.61
1333.28
1332.3
1333.64
1334.13
1332.74
1329.12
1329.34
1328.48
1328
1327.45
1326.93
1326.52
1326.04
1325.48
1324.9
1324.34
1323.91
1323.72
1323.3
1322.47
1321.98
1321.78
1321.86
1322.37
1323.3
1325.26
1327.82
1331.98
1334.24
1334.91
1332.46
1328.29
1321.14
1320.59
1320
1319.37
1318.67
1317.91
1316.98
1315.68
1318.9
1319.11
1318.93
1318.68
1318.15
1318.14
1318.51
1314.54
1309.14
1307.24
1305.93
1304.8
1303.91
1302.84
1301.71
1300.57
1299.42
1298.26
1297.62
1295.56
1293.96
1292.32
1290.6
1289.24
1288.43
1288.92
1291.53
1297.64
1305.43
1311.62
1311.68
1306.21
1301.32
1300.91
1300.52
1300.14
1299.81
1299.55
1299.38
1299.41
1303.92
1304.16
1303.67
1303.11
1302.22
1300.78
1298.5
1296.74
1294.77
1294.44
1292.14
1285.46
1283.12
1280.96
1278.94
1276.98
1275
1272.92
1270.67
1268.05
1265
1261.43
1257.31
1252.83
1248.86
1242.86
1239.68
1249.65
1264.3
1277.41
1283.49
1278.41
1281.35
1281.05
1280.8
1280.6
1280.5
1280.54
1280.85
1281.46
1282.7
1285.5
1287.73
1287.37
1283.48
1283.89
1281.46
1278.57
1274.29
1273.86
1274.77
1263.74
1261.33
1258.68
1256.06
1253.46
1250.77
1247.87
1244.64
1240.9
1236.48
1231.13
1224.48
1216.15
1207.42
1204.37
1211.49
1208.48
1219.14
1234.24
1243.08
1243.69
1261.16
1260.91
1260.7
1260.53
1260.42
1260.38
1260.43
1260.66
1261.02
1260.91
1260.3
1261.4
1258.55
1258.14
1256.53
1254.17
1251.25
1248.13
1245.03
1242.33
1239.52
1236.44
1233.4
1230.28
1227.05
1223.59
1219.73
1215.37
1210.41
1204.75
1198.11
1189.87
1180.34
1174.19
1188.25
1194.68
1187.37
1194.33
1201.26
1206.67
1240.81
1240.58
1240.39
1240.23
1240.1
1239.99
1239.88
1239.77
1239.52
1238.96
1238.22
1237.46
1236.56
1235.49
1233.91
1231.83
1229.35
1226.58
1223.7
1220.74
1217.6
1214.26
1210.8
1207.31
1203.81
1200.12
1196.02
1191.53
1186.83
1182.15
1177.49
1172.18
1164.98
1155.08
1158.07
1165.28
1160.5
1163.69
1169.78
1176.46
1220.38
1220.18
1220.14
1219.91
1219.76
1219.63
1219.47
1219.24
1218.88
1218.28
1217.42
1216.35
1215.1
1213.53
1211.69
1209.7
1207.58
1205.21
1202.45
1199.29
1195.77
1192
1188.07
1184.25
1180.78
1177.26
1173.09
1168.47
1163.82
1159.45
1154.64
1147.06
1138.92
1134.84
1140.38
1144.74
1145.7
1146.82
1150.82
1156.46
1199.93
1199.85
1199.75
1199.63
1199.51
1199.42
1199.28
1199.05
1198.65
1198
1197.01
1195.6
1193.69
1191.45
1189.27
1187.53
1186.21
1184.74
1182.45
1179.17
1175.41
1171.27
1166.44
1162.87
1159.05
1156.54
1151.75
1145.44
1138.69
1132.2
1128.52
1127.34
1128.58
1129.04
1129.86
1131.01
1132.67
1133.92
1138.19
1142.58
1179.5
1179.49
1179.44
1179.43
1179.46
1179.49
1179.43
1179.33
1179.06
1178.49
1177.5
1175.75
1173.4
1171.3
1170.16
1169.74
1169.17
1168.83
1167.25
1163.88
1159.88
1155.3
1150.74
1146.01
1140.12
1141.29
1133.32
1124.9
1122.06
1122.92
1123.75
1124.37
1124.88
1125.43
1125.64
1124.99
1124.52
1123.99
1128.2
1132.76
1159.05
1159.07
1159.13
1159.3
1159.53
1159.81
1160.02
1160.25
1160.46
1160.55
1160.3
1159.34
1159.37
1161.82
1165.33
1166.79
1168.02
1166.03
1161.77
1156.46
1150.61
1142.84
1135.16
1127.98
1122.39
1119.95
1120.49
1121.31
1122.09
1122.48
1122.71
1123.06
1123.67
1124.2
1124.39
1123.04
1116.95
1114.18
1119.12
1123.81
1138.53
1138.63
1138.87
1139.2
1139.56
1140.09
1140.69
1141.45
1142.35
1143.44
1144.63
1145.28
1149.87
1153.26
1154.29
1154.44
1150.54
1145.26
1141.7
1138.39
1134.42
1130.02
1123.36
1118.6
1118.09
1119.79
1121.1
1121.43
1121.56
1121.86
1122.22
1122.56
1122.98
1123.38
1123.27
1120.12
1108.4
1106.19
1111.55
1115.88
1117.91
1118.03
1118.41
1118.89
1119.4
1120.2
1121.11
1122.21
1123.55
1125.26
1127.45
1129.55
1134.7
1140.85
1138.32
1132.41
1131.56
1128.28
1125.36
1122.94
1120.33
1118.17
1118.29
1118.78
1119.78
1120.35
1120.62
1120.83
1121.06
1121.36
1121.84
1121.91
1122.09
1122.01
1120.65
1110.36
1100.45
1100.56
1104.99
1108.35
1097.35
1097.59
1098.21
1098.75
1099.19
1099.99
1101.01
1102.21
1103.59
1105.21
1107.2
1109.12
1110.5
1114.64
1110.28
1109.26
1109.87
1109.95
1109.15
1107.49
1106.12
1112.11
1119
1119.6
1119.77
1119.91
1120.12
1120.34
1120.57
1120.92
1121.32
1121.34
1120.9
1118.96
1108.95
1096.35
1094.15
1094.55
1097.32
1099.56
1076.83
1077.18
1077.65
1078.22
1078.9
1079.66
1080.74
1082.01
1083.43
1085.02
1086.82
1088.59
1090.03
1090.78
1091.18
1092.39
1093.91
1095.03
1095.44
1096.06
1101.27
1115.24
1119.18
1119.31
1119.36
1119.51
1119.7
1119.92
1120.1
1120.21
1120.2
1119.52
1114.56
1101.45
1090.05
1086.96
1088.62
1086.22
1087.8
1089.05
1056.26
1056.54
1057.22
1057.87
1058.57
1059.3
1060.47
1061.83
1063.34
1065.02
1066.82
1068.62
1070.42
1072.11
1073.88
1075.88
1078.05
1080.2
1082.08
1085
1094.67
1113.36
1118.51
1119.05
1119.19
1119.28
1119.31
1119.27
1119.16
1118.51
1114.36
1103.96
1090.33
1081.29
1078.64
1078.77
1078.12
1076.83
1077.05
1077.15
1035.63
1036.03
1036.57
1037.2
1038.08
1039.07
1040.36
1041.83
1043.47
1045.26
1047.25
1049.23
1051.32
1053.54
1055.9
1058.44
1061.23
1064.25
1067.32
1070.68
1077.58
1094.86
1112.22
1116.71
1117.76
1118.11
1118.12
1117.12
1112.1
1102.36
1090.42
1080.31
1073.39
1070.59
1069.72
1068.75
1067.41
1065.68
1064.54
1063.17
1017.16
1015.48
1016.14
1017
1018.02
1019.22
1020.61
1022.18
1023.92
1025.82
1027.87
1030.06
1032.39
1034.86
1037.48
1040.26
1043.24
1046.46
1049.87
1053.3
1057.09
1064.45
1079.36
1098.27
1106.17
1107.39
1102.59
1093.04
1081.41
1071.26
1064.89
1061.2
1057.8
1059.7
1057.38
1055.26
1053.44
1051.48
1049.4
1046.59
994.097
994.958
996.012
997.201
998.462
999.838
1001.36
1003.05
1004.89
1006.88
1009.02
1011.29
1013.71
1016.26
1018.92
1021.7
1024.58
1027.56
1030.63
1033.57
1036.12
1038.18
1041.57
1048.47
1054.4
1056.39
1052.91
1047.55
1042.94
1040.08
1038.58
1037.72
1040.56
1038.68
1037.81
1036.92
1035.87
1034.13
1031.64
1028.31
977.235
976.602
977.462
978.676
979.968
981.387
982.968
984.71
986.604
988.64
990.812
993.11
995.524
998.04
1000.64
1003.29
1005.96
1008.64
1011.29
1013.99
1015.95
1017.03
1017.45
1017.73
1017.93
1017.56
1016.2
1014.01
1011.57
1009.6
1008.58
1011.66
1012.23
1015.72
1016.05
1016.02
1015.34
1014.05
1011.76
1009.07
963.289
961.027
961.032
961.795
962.845
964.147
965.681
967.408
969.298
971.328
973.481
975.739
978.084
980.492
982.927
985.348
987.713
990
992.205
994.275
996.232
996.943
994.05
991.68
990.089
988.598
986.206
982.618
977.53
972.07
970.175
974.014
980.859
989.207
993.137
993.778
993.359
992.616
991.037
989.755
937.735
941.734
943.287
944.585
946.005
947.577
949.279
951.101
953.034
955.067
957.186
959.376
961.617
963.875
966.095
968.213
970.189
972.068
973.969
975.939
977.694
983.272
975.304
965.047
960.435
959.071
956.93
951.414
942.938
936.837
935.967
937.223
942.571
956.508
967.882
972.092
972.079
971.811
971.234
971.683
925.009
926.982
929.262
930.315
931.396
932.8
934.436
936.216
938.106
940.082
942.118
944.194
946.299
948.388
950.353
952.062
953.438
954.634
956.24
958.572
960.966
960.715
962.609
949.62
933.933
933.264
934.492
931.526
929.227
929.185
929.468
930.547
932.977
935.831
943.752
951.585
953.482
953.639
954.006
956.117
912.747
911.248
914.645
917.099
918.247
919.417
920.915
922.626
924.458
926.366
928.294
930.227
932.217
934.241
936.086
937.331
937.354
937.94
939.45
943.414
948.422
948.789
942.749
946.068
940.476
935.955
931.966
929.276
927.859
927.398
927.316
927.324
927.388
927.946
930.909
934.64
937.552
938.727
940.173
943.891
898.245
896.94
898.248
903.103
906.347
907.697
908.855
910.32
912.032
913.863
915.647
917.404
919.426
921.785
923.99
925.216
925.498
937.984
932.107
930.167
937.469
932.36
930.616
936.305
934.34
931.703
929.771
928.387
927.396
926.783
926.387
926.086
925.783
925.676
926.404
924.156
924.234
926.669
930.328
934.318
887.885
886.687
886.134
887.662
893.525
897.59
898.973
899.8
901.075
902.682
904.015
904.985
907.022
911.198
915.132
915.717
915.949
921.563
922.422
918.081
925.128
918.136
924.879
920.117
925.76
927.595
926.17
925.769
925.347
924.779
924.284
924.056
923.761
923.81
923.351
919.162
914.131
916.931
922.774
928.1
881.114
880.285
879.711
879.341
879.851
881.671
887.881
890.288
891.611
894.271
895.027
892.434
898.362
899.975
906.557
901.231
906.212
909.352
911.582
907.945
910.704
911.331
911.57
914.574
919.798
923.947
923.823
923.459
922.946
922.426
921.698
921.334
921.16
921.319
920.445
914.83
906.118
909.127
916.908
923.604
877.649
876.287
876.646
876.919
877.317
878.662
879.257
878.855
879.44
884.974
890.611
886.891
893.743
893.35
893.292
894.677
895.458
897.031
897.318
897.86
899.799
901.54
903.206
905.456
908.075
910.471
912.829
916.184
918.725
919.153
918.556
917.945
917.79
917.951
916.83
909.626
898.917
902.601
911.864
919.642
873.139
874.277
873.228
874.057
874.993
876.185
877.477
878.879
881.651
883.937
878.54
879.011
880.197
884.904
886.915
886.704
885.444
886.771
886.927
887.585
888.943
890.591
892.408
894.474
896.733
898.959
901.178
904.516
910.197
914.275
914.876
914.156
913.818
913.865
912.121
902.281
891.463
896.521
906.692
915.069
859.107
860.337
859.605
864.207
862.405
865.011
863.961
865.655
868.206
866.705
863.237
873.5
873.79
870.306
873.66
869.74
872.146
873.001
873.852
875.014
876.481
878.209
880.148
882.287
884.601
887.031
889.475
892.165
896.89
904.501
909.621
910.09
909.652
909.616
906.544
892.805
883.589
890.045
900.442
908.87
836.965
840.711
842.406
842.74
845.427
849.113
850.11
848.803
848.099
849.636
852.553
855.577
856.442
855.837
856.274
857.681
858.859
859.652
860.513
861.678
863.17
864.951
866.975
869.209
871.63
874.225
876.954
879.75
883.192
889.977
899.467
903.477
903.872
903.065
897.758
882.035
876.353
883.036
892.48
900.208
820.789
825.726
829.654
832.919
836.022
838.659
840.195
840.735
841.104
841.98
843.278
844.409
844.955
845.037
845.234
845.723
846.184
846.474
846.865
847.717
849.049
850.755
852.752
855.005
857.485
860.167
863.024
865.962
868.938
873.026
880.827
886.701
894.715
891.237
883.147
870.426
867.538
873.447
881.164
887.632
806.485
812.824
818.293
822.937
826.84
829.807
831.579
832.347
832.544
832.713
833.11
833.567
833.788
833.764
833.763
833.971
834.009
833.167
832.052
832.096
833.255
834.986
836.965
839.168
841.643
844.403
847.453
850.794
854.431
858.982
867.206
876.893
879.599
877.225
850.185
847.768
851.753
857.477
864.783
870.562
790.151
797.671
804.366
810.257
815.419
819.472
821.844
822.749
822.683
822.042
821.615
821.583
821.474
821.13
820.809
820.728
820.424
822.477
818.769
815.695
815.365
816.672
818.592
820.772
823.194
825.898
828.917
832.24
835.832
840.039
846.891
855.451
858.337
857.706
832.836
832.916
834.87
839.161
846.315
852.053
769.333
778.942
787.61
795.341
802.77
809.226
811.684
812.804
814.028
813.245
810.354
808.451
807.088
805.37
803.732
802.418
802.97
807.157
806.47
803.03
798.523
797.094
796.755
798.391
800.901
803.732
806.769
809.887
812.897
816.024
822.197
832.032
837.954
836.841
822.689
820.23
817.244
820.632
828.211
834.722
744.114
757.382
769.89
781.131
788.077
795.903
798.327
799.564
799.163
797.474
795.262
791.589
788.052
783.802
779.745
776.04
773.928
777.835
781.831
782.405
780.881
778.255
774.202
772.46
773.36
776.839
780.882
784.604
787.691
790.396
797.315
812.224
821.713
823.209
811.792
805.118
799.793
802.649
811.515
819.848
711.189
727.709
742.65
754.897
764.319
771.068
777.707
776.213
775.821
773.679
769.777
765.46
759.504
753.249
747.808
743.271
739.994
739.835
741.98
745.962
749.547
750.481
750.086
748.421
743.842
745.901
751.244
756.591
760.916
764.638
773.29
791.362
804.238
808.08
792.931
787.271
782.979
786.454
797.047
807.729
655.52
677.145
698.531
716.909
729.67
738.287
743.098
743.244
740.905
737.653
733.062
726.41
718.604
711.049
704.378
699.045
695.326
693.483
693.749
697.239
702.486
708.755
714.875
716.131
713.53
714.158
719.275
725.588
730.955
735.449
745.4
766.102
780.882
785.716
772.613
767.901
764.915
770.487
783.16
795.985
588.961
623.311
652.159
674.476
690.213
699.96
704.393
704.024
700.077
693.726
685.532
675.846
665.471
655.464
646.708
639.852
635.337
633.346
633.83
636.584
641.485
649.439
664.01
669.883
669.639
674.746
682.031
689.829
696.741
702.463
712.797
735.415
753.526
759.464
753.641
744.839
741.699
750.477
765.985
780.781
517.037
570.685
608.822
632.326
646.987
655.195
657.488
654.706
647.884
637.942
625.624
611.775
597.525
584.13
572.702
564.066
558.757
556.994
558.689
563.478
570.879
580.64
592.684
604.602
614.853
625.098
635.975
646.993
657.42
666.732
679.268
703.096
725.434
734.68
730.05
716.239
712.687
725.463
744.372
761.18
480.566
533.648
578.838
594.626
600.646
603.393
601.411
594.541
583.525
569.086
552.058
533.654
515.173
497.895
483.23
472.624
467.021
466.396
470.265
477.975
488.788
502.169
517.395
533.269
548.957
564.665
580.586
596.115
611.222
625.611
641.643
665.693
692.872
712.647
706.116
683.543
681.967
698.026
719.494
738.47
447.819
493.959
543.691
551.705
548.602
544.955
537.824
526.015
510.01
490.624
468.564
444.5
418.922
392.44
369.284
354.067
350.356
355.64
368.065
384.132
400.913
418.744
438.31
458.72
478.979
498.954
518.775
538.305
557.152
575.537
595.191
618.101
648.876
662.075
657.501
646.676
651.955
669.02
690.992
711.372
436.963
472.787
503.945
502.125
493.331
484.246
472.035
455.599
435.582
412.397
383.161
345.337
305.258
273.761
261.807
257.276
255.999
258.831
273.083
293.641
314.994
335.876
360.771
386.155
409.393
431.83
454.498
476.765
498.179
518.925
540.654
565.638
593.62
596.916
603.453
607.746
618.192
634.659
656.128
676.894
435.753
456.716
460.479
451.176
439.628
426.501
410.358
391.189
369.121
339.873
299.499
260.015
249.064
242.791
239.217
238.315
238.636
239.907
241.39
243.527
251.907
271.309
295.208
326.269
347.504
367.931
392.412
416.783
439.718
461.519
483.078
505.49
526.902
537.56
549.134
561.199
574.764
591.576