/*--------------------------------*- C++ -*----------------------------------*\
  =========                 |
  \\      /  F ield         | OpenFOAM: The Open Source CFD Toolbox
   \\    /   O peration     | Website:  https://openfoam.org
    \\  /    A nd           | Version:  8
     \\/     M anipulation  |
\*---------------------------------------------------------------------------*/
FoamFile
{
    version     2.0;
    format      ascii;
    class       volScalarField;
    location    "3.25";
    object      p_rgh;
}
// * * * * * * * * * * * * * * * * * * * * * * * * * * * * * * * * * * * * * //

dimensions      [1 -1 -2 0 0 0 0];

internalField   nonuniform List<scalar> 
9150
(
2561.96
2534.96
2509.46
2492.26
2483.95
2483.93
2492.21
2509.39
2534.88
2561.89
2552.72
2533.16
2517.51
2505.7
2499.72
2499.7
2505.67
2517.46
2533.1
2552.66
2543.07
2529.49
2520.95
2513.19
2509.08
2509.07
2513.16
2520.91
2529.43
2543.01
2537.98
2527.94
2522.48
2517.11
2514.14
2514.13
2517.09
2522.45
2527.9
2537.93
2536.31
2527.37
2522.8
2518.62
2516.17
2516.16
2518.6
2522.77
2527.33
2536.26
2097.75
2093.74
2118.71
2132.8
2139.29
2139.06
2132.16
2117.73
2092.38
2095.91
2287.06
2263.01
2257.58
2256.3
2256.35
2256.22
2255.94
2257.04
2262.31
2286.36
2410.91
2379.69
2363.8
2353.89
2349.2
2349.13
2353.69
2363.5
2379.35
2410.6
2511.04
2468.99
2441.24
2423.89
2415.37
2415.33
2423.77
2441.07
2468.81
2510.89
2581.58
2528.76
2490.15
2468.11
2457.95
2457.93
2468.03
2490.05
2528.65
2581.51
1925.06
1953.63
1941.54
1948
1944.67
1942.65
1946.83
1937.42
1945.79
1903.8
1949.4
1962.32
1943.66
1948
1944.59
1942.95
1947.14
1936.49
1955.34
1934.58
1923.74
1952.19
1921.01
1926.16
1928.84
1928.16
1924.99
1915.15
1946.68
1914.26
1763.43
1886.07
1903
1920.66
1936.22
1935.8
1918.78
1898.87
1883.04
1755.62
1635.51
1873.62
1969.46
1999.26
2014.66
2014.3
1998.05
1967.54
1871.43
1629.98
1769.16
1768.86
1768.57
1768.29
1768.01
1767.74
1767.47
1767.22
1766.96
1766.71
1769.12
1768.81
1768.5
1768.2
1767.9
1767.61
1767.32
1767.03
1766.74
1766.46
1769.13
1768.79
1768.47
1768.14
1767.82
1767.5
1767.18
1766.87
1766.55
1766.24
1769.09
1768.74
1768.4
1768.06
1767.72
1767.38
1767.05
1766.72
1766.39
1766.06
1769.04
1768.68
1768.32
1767.96
1767.6
1767.25
1766.91
1766.57
1766.23
1765.91
1768.97
1768.59
1768.21
1767.83
1767.46
1767.09
1766.73
1766.38
1766.05
1765.73
1768.88
1768.48
1768.07
1767.67
1767.26
1766.87
1766.49
1766.14
1765.81
1765.51
1768.78
1768.35
1767.91
1767.46
1767
1766.52
1766.1
1765.76
1765.47
1765.23
1768.68
1768.21
1767.73
1767.24
1766.69
1765.59
1764.14
1763.53
1764.12
1764.99
1768.66
1768.23
1767.79
1767.36
1767.08
1761.89
1750.15
1751.22
1759.97
1765.18
1768.61
1768.27
1767.34
1750.68
1743.6
1744.28
1744.35
1759.13
1766.11
1765.69
1767.79
1749.24
1741.47
1741.86
1742.04
1744.35
1766.82
1767.24
1766.59
1766.07
1739.58
1739.81
1739.83
1739.72
1754.45
1768.4
1767.81
1767.26
1766.74
1766.25
1737.77
1737.89
1739.61
1767.11
1768.99
1768.34
1767.77
1767.24
1766.73
1766.27
1735.77
1749.48
1769.72
1769.18
1768.64
1768.1
1767.57
1767.05
1766.56
1766.09
1761.59
1770.08
1769.46
1768.92
1768.38
1767.84
1767.31
1766.78
1766.28
1765.67
1770.31
1769.72
1769.17
1768.62
1768.07
1767.53
1766.98
1766.45
1765.92
1765.27
1770.02
1769.43
1768.86
1768.29
1767.73
1767.17
1766.62
1766.06
1765.51
1764.96
1769.63
1769.03
1768.46
1767.89
1767.33
1766.77
1766.21
1765.65
1765.08
1764.5
1769.06
1768.51
1767.96
1767.42
1766.88
1766.34
1765.79
1765.23
1764.66
1764.07
1768.34
1767.86
1767.38
1766.89
1766.39
1765.88
1765.36
1764.82
1764.27
1763.69
1767.67
1767.23
1766.79
1766.34
1765.87
1765.4
1764.92
1764.43
1763.91
1763.38
1766.98
1766.58
1766.16
1765.75
1765.32
1764.9
1764.46
1764.02
1763.56
1763.09
1766.26
1765.88
1765.49
1765.11
1764.72
1764.34
1763.95
1763.56
1763.17
1762.79
1765.49
1765.13
1764.76
1764.4
1764.05
1763.7
1763.35
1763.01
1762.68
1762.35
1764.67
1764.31
1763.96
1763.62
1763.28
1762.96
1762.64
1762.33
1762.03
1761.74
1763.8
1763.44
1763.09
1762.76
1762.44
1762.12
1761.82
1761.53
1761.26
1761
1762.87
1762.51
1762.17
1761.84
1761.52
1761.22
1760.93
1760.66
1760.4
1760.16
1761.91
1761.55
1761.2
1760.87
1760.55
1760.26
1759.98
1759.73
1759.5
1759.28
1760.95
1760.57
1760.21
1759.87
1759.56
1759.27
1759
1758.77
1758.57
1758.4
1759.99
1759.6
1759.22
1758.87
1758.55
1758.26
1758.01
1757.8
1757.63
1757.51
1759.08
1758.66
1758.26
1757.89
1757.56
1757.26
1757
1756.8
1756.65
1756.57
1758.24
1757.79
1757.36
1756.96
1756.6
1756.27
1756
1755.79
1755.64
1755.56
1757.52
1757.03
1756.56
1756.12
1755.71
1755.35
1755.05
1754.81
1754.66
1754.59
1756.96
1756.43
1755.9
1755.4
1754.93
1754.51
1754.15
1753.88
1753.7
1753.63
1756.62
1756.02
1755.42
1754.84
1754.28
1753.76
1753.31
1752.95
1752.72
1752.66
1756.56
1755.88
1755.19
1754.5
1753.79
1753.11
1752.48
1751.97
1751.69
1751.52
1756.86
1756.1
1755.3
1754.44
1753.54
1752.6
1751.63
1750.77
1750.44
1743.19
1757.61
1756.77
1755.83
1754.76
1753.54
1752.11
1750.46
1742.4
1629.96
1587.06
1759.01
1758.2
1757.24
1756.09
1754.66
1752.84
1750.76
1660.27
1329.01
1368.97
1761.06
1760.38
1759.5
1758.36
1756.83
1754.71
1750.28
1601.37
1164.53
1194.4
1764.02
1763.74
1763.38
1762.91
1762.31
1761.56
1760.82
1552.44
1139.76
1135.98
1767.29
1767.43
1767.54
1767.61
1767.68
1767.79
1767.87
1613.27
1130.78
1112.76
1770.68
1771.2
1771.69
1772.12
1772.51
1772.85
1772.75
1721.79
1182.05
1096.27
1774.21
1775.23
1776.28
1777.35
1778.47
1779.7
1780.78
1779.74
1337.28
1083.19
1777.54
1779.08
1780.73
1782.47
1784.33
1786.42
1788.69
1789.65
1541.11
1082.42
1780.41
1782.47
1784.72
1787.16
1789.81
1792.79
1796.28
1799.55
1719.76
1164.62
1782.52
1785.04
1787.84
1790.92
1794.32
1798.13
1802.59
1807.77
1811.66
1458.47
1783.59
1786.47
1789.68
1793.23
1797.15
1801.46
1806.33
1812.04
1818.43
1799.66
1783.45
1786.61
1790.14
1794.01
1798.22
1802.77
1807.66
1812.97
1818.81
1824.94
1782.03
1785.46
1789.33
1793.56
1798.09
1802.87
1807.84
1812.92
1818.02
1823
1778.98
1783
1787.52
1792.35
1797.49
1802.93
1808.59
1814.37
1820.15
1825.74
1679.57
1735.05
1784.23
1790.21
1796.29
1802.65
1809.31
1816.18
1823.08
1829.82
1555.71
1555.78
1624.73
1734.63
1788.61
1800.76
1808.61
1816.51
1824.39
1832.07
1577.46
1536.34
1537.37
1559.06
1677.54
1780.49
1803.46
1812.09
1820.62
1829.22
1694.78
1531.13
1519.25
1520.2
1650.28
1779.62
1791.57
1800.8
1808.01
1791.19
1746.06
1682.41
1592.33
1444
1292.94
1574.91
1666.72
1696.88
1694.74
1633.57
1733.92
1731.69
1650.69
1225.48
1198.88
1202.03
1240.96
1582.47
1594.1
1606.7
1716.47
1698.89
1323.71
1163.52
1162.01
1208.19
1648.16
1645.39
1649.41
1677.59
1699.02
1488.78
1133.63
1127.86
1337.03
1614.09
1592.98
1568.83
1436.49
1343.64
1607.82
1146.56
1119.33
1267.49
1605.89
1587.56
1460.78
982.462
649.398
534.156
1312.96
1142.24
1201.78
1592.8
1602.01
1413.21
725.383
435.237
439.682
446.488
1209.09
1189.71
1527.72
1604.28
1519.78
715.428
432.961
433.767
434.22
436.775
1213.06
1411.88
1623.41
1610.59
1012.35
434.85
430.486
430.645
430.873
433.905
1237.05
1613.76
1633.61
1485.05
618.978
429.24
429.042
428.674
429.583
438.384
1384.76
1646.6
1641.08
1290.17
489.705
427.637
427.44
427.543
430.461
984.06
1504.19
1668.09
1656
1113.9
442.513
428.335
425.154
427.634
610.453
1438.41
1627.99
1687.68
1663.27
889.45
432.864
429.284
425.309
460.96
1339.15
1688.43
1702.47
1707.03
1579.06
690.68
444.221
431.427
432.822
1210.18
1698.89
1695.39
1722.1
1727.77
1371.97
508.477
455.236
434.745
800.244
1596.92
1708.72
1698.63
1733.75
1746.28
1463.91
641.416
460.936
534.737
1477.52
1717.89
1711.91
1699.18
1726.56
1732.24
1719.78
892.753
485.788
1308.22
1722.81
1726.08
1717.02
1703.15
1715.61
1708.55
1132.92
622.852
885.487
1661.73
1766.77
1752.8
1734.51
1715.39
1727.14
1466.59
526.301
550.663
1560.06
1813.4
1789.52
1766.47
1744.66
1723.48
1453.31
494.769
478.334
960.054
1770.62
1809.67
1789.59
1768.49
1747.74
1727.28
382.258
396.727
401.523
1549.74
1821.8
1805.46
1785.86
1766.69
1747.72
1728.8
356.751
368.993
657.267
1715.33
1800.71
1791.19
1777.13
1761.85
1745.74
1728.92
461.387
345.393
1108.9
1790.8
1799.04
1788.92
1776.09
1761.97
1747.01
1731.27
320.04
324.373
1457.38
1820.29
1807.1
1792.67
1778.49
1764.22
1749.76
1734.86
304.516
443.258
1651.99
1811.69
1802.51
1790.83
1778.31
1765.19
1751.55
1737.3
271.77
718.803
1761.74
1813.42
1804.51
1793.37
1781.2
1768.13
1754.26
1739.49
259.368
960.916
1813.41
1823.27
1812.2
1800.3
1787.65
1774.24
1760.19
1745.93
252.766
1240.12
1850.64
1836.06
1821.94
1808.74
1795.36
1781.39
1766.59
1751.19
233.263
1437.25
1851.18
1838.63
1826.61
1815.03
1803.24
1791.13
1778.83
1767.76
341.619
1550.69
1844.52
1837.76
1829.58
1820.84
1811.59
1802
1792.5
1784.73
404.729
1644.23
1848.67
1841.55
1834.39
1827.24
1819.82
1812.34
1805.45
1800.79
500.606
1723.62
1849.96
1843.84
1838.07
1832.44
1826.64
1821.02
1816.54
1814.28
625.147
1782.1
1850.53
1845.51
1840.85
1836.25
1831.52
1827.21
1824.44
1822.78
766.804
1820.91
1851.28
1846.75
1842.63
1838.44
1834.18
1830.63
1828.85
1825.43
894.848
1841.59
1851.8
1847.48
1843.45
1839.09
1834.58
1830.81
1828
1805.95
990.179
1849.82
1851.86
1847.98
1844
1839.4
1834.41
1829.62
1823.97
1655.67
1051.53
1850.91
1851.58
1848.95
1845.37
1840.99
1835.95
1830.63
1823.62
1578.18
1091.54
1851.42
1852.79
1851.76
1848.84
1845.03
1840.25
1834.85
1827.88
1533.55
1130.14
1854.48
1857.58
1857.6
1855.38
1852.33
1848.04
1843.13
1837.43
1515.68
1192.15
1861.45
1866.68
1866.63
1864.98
1862.76
1859.04
1854.82
1850.3
1523.44
1285.09
1873.11
1879.41
1878.36
1876.78
1875.3
1872.17
1868.55
1865.2
1572.99
1401.74
1887.76
1893.16
1891.77
1889.84
1888.62
1885.68
1882.4
1878.51
1625.8
1535.16
1904.7
1906.7
1906.32
1904.08
1902.56
1899.47
1897.29
1890.76
1684.2
1688.47
1925.53
1921.36
1921.68
1919
1917.46
1916.51
1919.36
1914.3
1750.29
1828.52
1949.07
1935.49
1936.48
1933.14
1931.58
1934.24
1939.33
1949.62
1825.49
1766.45
1766.17
1765.89
1765.61
1765.31
1765
1764.68
1764.36
1764.03
1763.72
1763.45
1763.23
1763.07
1762.97
1762.91
1762.88
1762.86
1762.85
1762.86
1762.89
1762.92
1762.95
1762.96
1762.95
1762.9
1762.82
1762.7
1762.54
1762.35
1762.12
1761.87
1761.63
1761.41
1761.21
1761.04
1760.9
1760.78
1760.71
1760.67
1760.68
1766.16
1765.84
1765.52
1765.2
1764.88
1764.55
1764.23
1763.92
1763.62
1763.37
1763.16
1763.03
1762.93
1762.85
1762.76
1762.69
1762.62
1762.55
1762.49
1762.42
1762.36
1762.33
1762.29
1762.25
1762.17
1762.08
1761.97
1761.83
1761.67
1761.5
1761.32
1761.14
1761
1760.89
1760.79
1760.71
1760.65
1760.61
1760.58
1760.56
1765.91
1765.56
1765.22
1764.88
1764.55
1764.22
1763.91
1763.61
1763.34
1763.1
1762.84
1762.46
1761.91
1761.41
1761.37
1761.45
1761.83
1761.93
1761.99
1761.96
1761.95
1761.83
1761.82
1761.73
1761.64
1761.55
1761.45
1761.36
1761.25
1761.14
1761.01
1760.64
1760.41
1760.21
1760.42
1760.65
1760.6
1760.55
1760.45
1760.37
1765.73
1765.38
1765.03
1764.7
1764.38
1764.08
1763.82
1763.57
1763.36
1763.21
1762.82
1758.81
1758.38
1758.14
1757.61
1757.3
1757.27
1757.43
1761.27
1761.93
1761.71
1761.64
1761.54
1761.42
1761.31
1761.21
1761.15
1761.12
1761.09
1761.08
1761.07
1760.15
1759.67
1759.63
1759.35
1759.56
1759.8
1759.98
1759.89
1760.06
1765.57
1765.22
1764.88
1764.56
1764.27
1764
1763.78
1763.59
1763.45
1763.4
1763.31
1758.72
1757.08
1756.7
1756.51
1756.32
1756.18
1755.91
1759.4
1762.1
1761.83
1761.6
1761.4
1761.2
1761
1760.76
1760.66
1760.85
1760.93
1760.97
1761.02
1761.06
1760.2
1759.35
1759
1758.45
1758.42
1758.18
1757.97
1757.74
1765.4
1765.04
1764.72
1764.42
1764.14
1763.91
1763.69
1763.54
1763.45
1763.46
1763.61
1763.94
1764.47
1764.7
1757.76
1755.01
1757.22
1763.27
1762.65
1762.11
1761.75
1761.5
1761.29
1761.06
1759.93
1757.81
1757.33
1759.57
1760.62
1760.87
1760.92
1760.98
1761.1
1761.21
1761.2
1760.83
1759.54
1758.57
1757.79
1757.41
1765.2
1764.87
1764.54
1764.23
1763.95
1763.69
1763.45
1763.25
1763.12
1763.07
1763.13
1763.28
1763.44
1763.48
1763.25
1762.87
1762.65
1762.34
1761.95
1761.62
1761.41
1761.29
1761.21
1760.97
1756.96
1755.88
1755.72
1755.35
1755.82
1759.1
1759.53
1760.36
1760.21
1760.45
1760.74
1760.75
1760.71
1760.63
1760.4
1758.51
1764.97
1764.67
1764.36
1764.03
1763.71
1763.39
1763.07
1762.79
1762.57
1762.47
1762.5
1762.6
1762.68
1762.65
1762.43
1762.17
1761.94
1761.58
1761.16
1760.88
1760.83
1760.93
1761.03
1761.07
1758.45
1755
1754.86
1754.66
1754.44
1754.18
1754
1755.44
1754.69
1755.96
1758.33
1760.15
1760.22
1760.14
1759.93
1759.62
1764.8
1764.52
1764.19
1763.84
1763.46
1763.04
1762.58
1762.08
1761.68
1761.55
1761.67
1761.91
1762.08
1762.11
1761.97
1761.69
1761.27
1760.68
1759.08
1756.51
1757.6
1760.54
1760.94
1761.02
1761.17
1760.52
1756.01
1753.92
1753.71
1753.53
1753.25
1753.01
1753.11
1752.96
1754.15
1759.71
1759.66
1759.53
1759.08
1758.61
1764.89
1764.56
1764.19
1763.78
1763.32
1762.79
1762.15
1760.34
1754.46
1751.76
1757.32
1761.42
1761.82
1761.95
1761.94
1761.82
1761.45
1758.41
1741.25
1732.37
1732.59
1752.8
1757.03
1759.89
1759.8
1760.15
1761.5
1761.34
1757.91
1754.28
1756.39
1756.22
1755.46
1753.68
1757.1
1758.64
1759.14
1759.07
1757.61
1756.63
1765.27
1764.86
1764.45
1764.04
1763.62
1763.09
1761.45
1746.69
1724.27
1724.55
1727.8
1760.85
1762.49
1762.52
1762.5
1762.49
1762.22
1742.11
1729.51
1729.52
1729.23
1728.74
1728.69
1735.59
1742.16
1755.85
1761.42
1761.22
1760.86
1760.06
1752.43
1750.06
1749.79
1750.57
1751.43
1754.23
1756.41
1758.42
1756.69
1755.94
1765.6
1765.15
1764.74
1764.37
1764
1763.26
1737.76
1721.9
1721.81
1721.68
1721.33
1721.8
1755.67
1762.84
1762.89
1762.98
1763.13
1754.39
1729.06
1727.57
1727.52
1727.53
1727.73
1728.2
1734.6
1755.83
1762.02
1761.81
1761.37
1759.34
1738.25
1727.8
1726.66
1725.29
1723.12
1724.36
1729.91
1746.55
1756.32
1756.08
1765.8
1765.38
1765.03
1764.75
1764.54
1764.36
1741.04
1719.63
1719.35
1719.22
1718.99
1719
1749.29
1763.3
1763.23
1763.32
1763.63
1764.21
1764.93
1742.17
1725.33
1725.24
1733.2
1760.62
1763.84
1762.75
1761.86
1762.27
1761.73
1760.18
1747.73
1735.18
1727.09
1721.52
1719.9
1718.66
1717.85
1718.61
1756.74
1757.1
1765.83
1765.4
1765.02
1764.83
1764.86
1765.02
1765.47
1754.32
1717.5
1716.62
1716.64
1752.84
1763.75
1763.18
1762.93
1762.82
1762.77
1763.03
1763.51
1763.7
1763.48
1759.31
1763.05
1763.03
1762.86
1762.64
1762.45
1762.32
1761.97
1761.92
1762.38
1762.74
1763.11
1756.65
1735.91
1715.42
1714.76
1714.13
1747.89
1758.21
1765.59
1764.98
1764.63
1764.36
1764.38
1764.29
1764.34
1764.44
1763.2
1752.44
1751.18
1761.97
1762.31
1762.09
1761.95
1761.55
1761.19
1761.27
1761.85
1762.25
1762.24
1762.22
1762.18
1762.18
1762.16
1762.1
1762.05
1762.01
1762
1762.03
1762.15
1762.42
1762.67
1763.07
1763.24
1741.97
1712.55
1712.16
1722.82
1752.37
1765.05
1764.57
1764.13
1763.79
1763.65
1763.34
1763.09
1762.83
1762.49
1762.13
1761.7
1761.3
1761.05
1760.88
1760.76
1760.08
1759.93
1759.99
1760.12
1760.98
1761.04
1761.09
1761.14
1761.2
1761.25
1761.3
1761.34
1761.39
1761.39
1761.28
1760.14
1758.1
1760.23
1762.8
1762.87
1752.88
1709.97
1709.34
1708.24
1742.4
1764.59
1764.05
1763.52
1763.22
1762.8
1762.32
1761.86
1761.41
1760.94
1760.48
1760.05
1759.71
1759.48
1759.35
1759.3
1759.18
1758.54
1758.53
1759.18
1759.55
1759.63
1759.72
1759.83
1759.93
1760.05
1760.19
1760.37
1760.55
1760.63
1758.33
1747.6
1744.22
1745.46
1755.65
1761.81
1755.59
1729.3
1709.65
1709.11
1740.5
1764.31
1763.5
1762.98
1762.53
1761.9
1761.27
1760.63
1759.99
1759.34
1758.72
1758.18
1757.78
1757.57
1757.5
1757.52
1757.57
1757.6
1757.62
1757.76
1757.85
1757.94
1758.03
1758.14
1758.26
1758.38
1758.53
1758.79
1759.38
1759.56
1750.14
1741.79
1742.1
1742.38
1742.33
1745.62
1755.93
1756.8
1752.63
1751.54
1752
1763.88
1763.21
1762.52
1761.79
1761.04
1760.25
1759.42
1758.55
1757.64
1756.72
1755.91
1755.37
1755.21
1755.3
1755.46
1755.59
1755.68
1755.75
1755.8
1755.84
1755.88
1755.92
1755.95
1756
1755.65
1752.1
1750.35
1754.83
1757.61
1750.88
1739.24
1739.7
1740.34
1740.72
1740.84
1743.69
1756.19
1755.71
1755.1
1754.46
1763.42
1762.72
1761.97
1761.17
1760.3
1759.36
1758.31
1757.17
1755.89
1754.02
1752.12
1750.85
1751.36
1752.61
1753.1
1753.37
1753.49
1753.53
1753.54
1753.51
1753.46
1753.4
1753.34
1753.13
1747.79
1744.59
1744.95
1745.39
1751.21
1756.25
1751.2
1736.16
1737.17
1738.19
1738.79
1739.03
1742.99
1747.99
1749.98
1752
1763.06
1762.35
1761.59
1760.76
1759.83
1758.78
1757.57
1756.18
1754.56
1751.62
1712.85
1659.61
1677.54
1747.56
1750.95
1751.24
1751.26
1751.2
1751.09
1750.93
1750.72
1750.47
1750.23
1749.37
1741.35
1740.3
1740.33
1740.47
1746.51
1751.2
1752.02
1749.05
1732.28
1733.51
1734.77
1740.01
1738.13
1737.27
1735.01
1739.76
1762.79
1762.15
1761.45
1760.69
1759.85
1758.91
1757.77
1755.98
1748.69
1673.38
1586.14
1586.59
1585.17
1633.47
1743.84
1742.11
1746.1
1748.05
1748.75
1748.35
1747.87
1747.31
1746.73
1746.15
1742.24
1735.18
1734.81
1736.57
1743.68
1743.49
1743.56
1744.03
1741.94
1730.64
1736.32
1750.21
1748.31
1736.55
1732.56
1728.4
1762.59
1762.04
1761.45
1760.82
1760.12
1759.34
1758.26
1740.77
1611.66
1583.33
1583.18
1583.09
1582.41
1581.4
1582.58
1602.72
1682.82
1683.03
1730.27
1746.25
1745.36
1744.29
1743.16
1742.01
1740.85
1737.56
1730.51
1734.8
1735.29
1733.67
1731.5
1728.43
1727.6
1727.6
1729.22
1736.71
1745.58
1752.34
1739.8
1724.93
1762.39
1761.98
1761.59
1761.21
1760.88
1760.6
1760.18
1728.65
1590.78
1580.38
1579.83
1578.63
1577.14
1591.91
1666.32
1674.79
1635.76
1635.43
1633.37
1739.29
1744.19
1742.03
1740
1737.93
1735.92
1733.92
1731.66
1729.05
1725.81
1722.43
1718.05
1706.61
1684.86
1672.07
1674.99
1698.12
1724.61
1737.9
1744.12
1733.95
1762.04
1761.74
1761.49
1761.29
1761.19
1761.23
1761.53
1762.13
1732.62
1597.63
1575.78
1575.28
1652.4
1764.55
1762.11
1759.23
1747.32
1661.86
1646.81
1726.44
1742.02
1739.36
1736.73
1733.99
1731.29
1728.43
1725.25
1721.51
1717.09
1711.74
1705.09
1693.39
1641.31
1498.15
1367.74
1420.69
1634.78
1714.47
1723.31
1723.92
1761.47
1761.22
1761.01
1760.84
1760.73
1760.68
1760.74
1760.97
1761.33
1759.75
1714.43
1695.17
1750.24
1758.42
1756.8
1754.45
1751.54
1748.41
1745.31
1740.62
1738.11
1736.75
1733.69
1730.56
1727.23
1723.76
1719.91
1715.6
1710.64
1704.98
1698.34
1690.08
1670.78
1460.67
1213.7
1200.26
1333.52
1694.15
1701.09
1706.5
1760.73
1760.47
1760.26
1760.13
1760.03
1759.92
1759.81
1759.7
1759.45
1758.89
1758.15
1757.39
1756.49
1755.39
1753.71
1751.67
1749.26
1746.48
1743.59
1740.63
1737.49
1734.18
1730.63
1727.2
1723.61
1719.92
1715.84
1711.37
1706.67
1701.99
1697.32
1691.94
1670.36
1425.15
1166.9
1169.62
1219.59
1631.27
1689.21
1695.68
1759.92
1759.05
1757.35
1758.14
1759.31
1759.18
1759.02
1758.79
1758.43
1757.83
1756.97
1755.9
1754.64
1753.06
1751.17
1749.15
1747.1
1744.72
1741.95
1738.78
1735.24
1731.47
1727.42
1723.6
1720.14
1716.67
1712.51
1707.9
1703.17
1698.68
1687.85
1616.88
1376.85
1157.68
1143.53
1148.87
1202.71
1615.82
1689.72
1695.15
1758.71
1756.34
1756.17
1756.05
1756.38
1758.5
1758.45
1758.22
1757.81
1757.08
1756.04
1754.76
1752.78
1750.4
1748.21
1746.43
1745.16
1743.68
1741.35
1736.73
1725.41
1713.58
1700.28
1677.7
1701.2
1715.35
1710.56
1703.28
1656.7
1553.47
1379.08
1188.88
1131.5
1132.05
1133
1134.84
1248.64
1651.33
1696.87
1701.13
1757.38
1755.44
1755.38
1755.37
1755.4
1755.44
1757.15
1758.12
1757.85
1757.18
1755.1
1752.76
1751.22
1730.38
1687.79
1661.38
1673.28
1687.9
1680.37
1637.35
1609.38
1592.63
1580.08
1559.18
1621.17
1704.91
1654.34
1477.67
1271.12
1140.38
1126.75
1127.39
1127.8
1128.45
1128.91
1128.27
1320.57
1680.45
1706.84
1711.42
1757.46
1757.38
1755.56
1754.76
1755
1755.31
1756.44
1758.66
1758.86
1758.94
1757.82
1749.84
1679.48
1548.94
1481.09
1485.63
1487.56
1505.52
1521.9
1534.93
1542.87
1545
1548.44
1527.15
1482.78
1396.63
1253.16
1125.12
1125.14
1125.53
1125.79
1126.16
1126.77
1127.33
1127.53
1126.4
1418.65
1697.63
1717.39
1722.09
1756.56
1756.66
1756.9
1757.19
1756.99
1757.02
1758.58
1759.48
1760.37
1761.45
1762.14
1737.15
1520.02
1478.86
1479.7
1480.59
1527.5
1623.31
1677.98
1712.3
1718.66
1702.4
1654.02
1520.07
1279.83
1150.44
1124.25
1124.59
1124.69
1125
1125.38
1125.74
1126.16
1127.36
1126.74
1155.71
1528.98
1709.33
1729.42
1733.77
1755.56
1755.2
1752.81
1752.73
1756.66
1757.85
1758.76
1759.86
1761.2
1762.89
1764.9
1742.84
1541.22
1476.63
1477.75
1645.15
1769.21
1765.92
1763
1760.55
1757.61
1722.39
1477.43
1215.34
1128.65
1123.61
1123.87
1124.06
1124.28
1124.57
1126.89
1125.21
1125.42
1125.7
1137.26
1430.52
1606.57
1712.24
1742.5
1745.86
1754.6
1751.72
1746.58
1747.13
1750.83
1757.26
1758.28
1759.48
1760.85
1762.46
1764.3
1765.98
1727.02
1626.15
1700.76
1766.53
1767.14
1767.22
1766.39
1764.28
1734.74
1390.6
1124.44
1122.94
1123.13
1123.26
1123.47
1123.67
1123.88
1124.21
1126.88
1127.45
1124.68
1138.67
1398.98
1639.12
1626.31
1720.89
1754.44
1756.69
1753.18
1746.17
1745.38
1745.94
1746.69
1755.57
1757.63
1758.9
1760.31
1761.32
1762.32
1764.96
1766.92
1767.67
1768.07
1769.28
1770.8
1771.92
1772.27
1772.21
1675.47
1206.93
1122.62
1122.76
1122.82
1122.98
1123.17
1123.35
1123.51
1123.76
1125.08
1131.04
1200.65
1435.35
1669.63
1681.47
1644.8
1746.07
1764.54
1765.79
1752.77
1751.39
1744.42
1744.97
1746.49
1755.35
1756.98
1758.34
1759.8
1760.33
1761.9
1763.96
1766.93
1768.62
1770.39
1772.39
1774.56
1776.7
1778.51
1780.7
1690.41
1223.65
1122.11
1122.61
1122.76
1122.84
1122.96
1122.88
1122.78
1137.86
1236.77
1398.28
1607.92
1714.64
1715.11
1711.22
1727.1
1770.31
1773.4
1773.51
1749.84
1750.36
1752.46
1751.64
1752.2
1755
1756.49
1757.96
1759.59
1760.85
1761.9
1764.39
1767.45
1769.67
1772.03
1774.57
1777.34
1780.35
1783.41
1786.57
1792.62
1557.72
1148.17
1120.43
1121.43
1121.8
1121.94
1145.9
1266.54
1491.92
1694.79
1764.18
1747.13
1739.56
1732.28
1727.62
1781.58
1781.37
1780.51
1779.14
1725.11
1751.01
1751.89
1752.75
1753.77
1754.97
1756.36
1757.93
1759.65
1761.53
1763.6
1765.77
1768.14
1770.61
1773.23
1776.01
1778.96
1782.06
1785.47
1788.88
1792.57
1799.62
1645.31
1297.45
1230.29
1236.5
1342.69
1570.66
1742.38
1805.92
1798.58
1788.24
1743.5
1712.41
1718.7
1770.01
1788.44
1785.34
1784.49
1782.15
1749.46
1750.33
1751.36
1752.55
1753.82
1755.21
1756.73
1758.41
1760.22
1762.22
1764.39
1766.66
1769.08
1771.63
1774.29
1777.07
1779.95
1782.73
1785.1
1787.98
1790.74
1792.7
1796.09
1802.95
1778.93
1755.53
1796.69
1802.02
1797.42
1794.54
1791.24
1717.84
1700.14
1718.41
1775.36
1791.58
1790.22
1784.72
1783.15
1783.21
1752.22
1751.59
1752.45
1753.66
1754.96
1756.38
1757.96
1759.7
1761.58
1763.62
1765.8
1768.1
1770.51
1773.03
1775.63
1778.28
1780.95
1783.63
1785.16
1783.89
1785.88
1791.14
1791.53
1791.75
1791.92
1791.56
1790.22
1788.09
1785.63
1783.43
1762.55
1704.4
1725.2
1786.29
1790.21
1790.29
1786.06
1784.14
1781.85
1783.12
1710.54
1755.64
1755.64
1756.4
1757.45
1758.76
1760.29
1762.02
1763.91
1765.94
1768.09
1770.35
1772.69
1775.1
1777.54
1779.96
1782.32
1784.6
1786.74
1784.1
1773.28
1756.35
1787.59
1785.25
1783.68
1782.18
1779.73
1776.08
1770.26
1743.91
1690.08
1673.23
1741.29
1777.6
1786.34
1787.51
1782.98
1782.2
1780.63
1783.18
1567.32
1755.96
1757.52
1758.81
1760.23
1761.81
1763.51
1765.33
1767.26
1769.3
1771.42
1773.61
1775.85
1778.11
1780.33
1782.44
1784.42
1786.27
1788.01
1789.66
1781.74
1686.83
1696.11
1750.18
1759.11
1748.47
1718.81
1650.31
1487.86
1296.78
1223.74
1260.89
1309.32
1531.17
1765.27
1784.34
1782.2
1780.93
1780.36
1784.79
1187.95
1674.56
1763.11
1764.16
1765.25
1766.65
1768.29
1770.07
1771.96
1773.93
1775.97
1778.04
1780.15
1782.24
1784.2
1785.91
1787.27
1788.22
1789.79
1792.1
1794.5
1736.44
1326.38
1249.02
1279.93
1244.66
1176.85
1093.02
1002.07
946.68
946.997
948.092
950.577
1026.79
1431.26
1756.02
1784.15
1785.68
1784.51
1789.42
1091.26
1280.7
1723.34
1770.54
1771.72
1772.89
1774.38
1776.1
1777.93
1779.84
1781.76
1783.7
1785.68
1787.71
1789.55
1790.79
1785.81
1740.64
1769.37
1794.8
1801.57
1801.74
1293.64
967.893
959.765
954.174
949.816
947.065
945.688
945.313
945.222
945.272
945.396
946.007
1022.59
1617.64
1786.1
1792.06
1793.57
1797.21
1080.26
1078.63
1305.2
1738.43
1779.35
1780.78
1781.94
1783.41
1785.12
1786.95
1788.74
1790.48
1792.47
1794.85
1797.06
1798.17
1633.66
1399.89
1512.8
1764.39
1810.03
1744.45
1268.64
994.655
963.633
951.104
948.152
946.661
945.724
945.098
944.747
944.917
944.25
944.218
945.023
1421.52
1789.17
1799.64
1803.35
1807.34
1073.48
1072.33
1071.54
1257.54
1696.99
1787.77
1791.58
1792.43
1793.71
1795.37
1796.7
1797.45
1796.38
1803.36
1807.52
1774.85
1388.86
1360.7
1363.34
1668.17
1815.71
1694.85
1426.24
1469.51
1461.22
1287.12
1020.1
945.144
944.274
943.599
944.387
945.654
944.177
942.852
942.464
1299.47
1793.36
1809.45
1815.41
1820.74
1070.8
1070.1
1069.29
1069.05
1108.43
1459.93
1711.6
1766.91
1792.15
1806.32
1807.15
1723.98
1546.24
1626.6
1708.01
1439.64
1346.63
1356.75
1364.1
1684.05
1812.2
1726.72
1820.42
1826.9
1832.13
1819.27
1562.78
1072.51
943.584
941.919
942.299
943.406
943.093
940.883
940.091
1265.98
1802.08
1821.34
1829.16
1835.86
1071.21
1069.93
1070.46
1070.84
1071.35
1072.91
1108.89
1256.22
1407.15
1648.26
1718.37
1434.04
1338.07
1337.21
1337.23
1337.56
1337.45
1443.75
1725.99
1823.67
1831.59
1833.49
1835.16
1837.41
1840.02
1842.42
1844.78
1646.85
1068.37
939.434
938.924
938.215
938.066
938.124
937.036
1304.63
1819.89
1834.45
1843.74
1851.52
1367.5
1080.93
1071.24
1071.98
1073.26
1074.9
1082.81
1093.91
1101.31
1116.95
1260.34
1456.29
1398.17
1339.07
1339.93
1341.59
1585.14
1837.97
1838.46
1839.15
1840.51
1842.16
1843.98
1846.04
1848.3
1850.53
1852.75
1856.09
1605.71
1003.7
935.411
934.731
934.526
934.57
932.729
1455.3
1841.61
1848
1858.18
1866.56
1830.3
1749.1
1408.39
1242.64
1333.68
1494.35
1448.26
1246.73
1225.9
1328.96
1597.5
1842.63
1833.65
1574.59
1510.13
1774.61
1843.37
1844.16
1845.04
1846.2
1847.67
1849.4
1851.34
1853.48
1855.79
1858.22
1860.67
1863.36
1868.08
1449.85
946.672
931.429
930.828
930.667
927.54
1597.82
1853.47
1860.7
1871.53
1879.98
1827.77
1830.76
1833.21
1833.55
1836.23
1839.92
1840.92
1839.51
1838.86
1840.43
1843.36
1846.38
1847.25
1846.65
1847.08
1848.49
1849.67
1850.45
1851.29
1852.48
1853.98
1855.76
1857.78
1860.02
1862.44
1865.03
1867.76
1870.56
1874
1843.77
1248.23
926.228
925.638
924.68
1017.93
1714.95
1864.03
1871.08
1883.15
1890.94
1831.22
1836.16
1840.08
1843.35
1846.45
1849.09
1850.62
1851.16
1851.51
1852.35
1853.69
1854.83
1855.38
1855.47
1855.66
1856.15
1856.61
1856.87
1857.24
1858.06
1859.42
1861.17
1863.18
1865.43
1867.91
1870.6
1873.45
1876.38
1879.36
1883.45
1756.79
1053.94
917.784
913.435
1147.98
1777.18
1842.15
1879.9
1891.51
1897.98
1836.54
1842.87
1848.34
1852.98
1856.89
1859.85
1861.62
1862.38
1862.52
1862.65
1863.05
1863.49
1863.79
1863.81
1863.81
1864.01
1863.97
1861.42
1860.35
1860.24
1862.4
1864.98
1867
1869.21
1871.69
1874.45
1877.5
1880.83
1884.47
1889.03
1897.25
1473.78
917.042
900.742
1244.82
1609.8
1726.17
1883.13
1894.74
1900.52
1839.82
1847.33
1854
1859.85
1865.02
1869.1
1871.4
1870.88
1855.39
1856.85
1864.74
1868.24
1870.89
1870.77
1870.47
1870.39
1834.09
1711.8
1721.7
1811.99
1861.53
1865.92
1868.06
1870.38
1872.86
1875.57
1878.59
1881.89
1885.49
1889.71
1896.56
1626.66
963.637
932.929
1295.84
1334.2
1638.22
1888.34
1895.89
1901.63
1838.51
1846.78
1846.78
1841.99
1859.02
1878.16
1857.68
1811.83
1753.65
1752.36
1806.15
1869.67
1875.48
1874.5
1872.98
1871.68
1733.26
1589.37
1584.78
1582.66
1730.98
1835.1
1862.27
1867.08
1870.11
1873
1876.06
1879.17
1882.19
1885.31
1891.49
1395.21
959.086
971.115
1141.44
1248.41
1627.29
1889.18
1897.39
1903.92
1769.74
1750.2
1727.76
1723
1757.98
1842.49
1763.14
1756.42
1755.5
1753.93
1751.72
1849.03
1875.59
1872.31
1868.5
1864.85
1836.01
1641.9
1567.41
1564.94
1563.42
1559.44
1702.49
1845.27
1861.34
1865.56
1869.75
1873.51
1876.6
1879.3
1886.22
1300.13
957.711
957.807
1069.94
1261.42
1624.5
1891.11
1900.3
1908.66
1649.15
1665.67
1683.27
1708.13
1737.81
1777.38
1870.07
1809.7
1749.92
1751.08
1823.74
1873.7
1867.52
1861.11
1856.01
1851.59
1848.27
1848.13
1796.57
1576.73
1544.81
1544.38
1544.93
1561.45
1791.13
1852.69
1859.38
1865.06
1869.43
1873.16
1881.8
1395.76
950.546
946.534
1158.45
1422.58
1684.06
1894.45
1905.47
1916.16
1646.15
1707.36
1777.35
1841.45
1857.57
1866.26
1871.08
1871.24
1863.05
1865.65
1861.03
1854.33
1846.35
1838.38
1832.18
1826.94
1823.23
1821.39
1821.66
1825.15
1766.36
1528.37
1522.81
1530.06
1652.85
1829.15
1845.51
1853.38
1859.03
1863.58
1873.47
1331.67
942.564
934.637
1112.23
1545
1840.25
1898.25
1911.2
1924.03
1725.22
1767.69
1798.87
1821.85
1837.77
1847.56
1852.01
1851.64
1847.69
1841.34
1833.14
1823.43
1813
1802.92
1794.07
1787.36
1782.86
1780.87
1781.35
1784.11
1789.01
1780.4
1565.62
1610.73
1789.33
1819.32
1828.89
1837.37
1844.39
1850.15
1860.45
1392.09
925.783
923.973
939.547
1544.33
1883.11
1896.28
1913.62
1928.43
1457.37
1656.37
1761.46
1796.9
1813.9
1822.38
1824.71
1821.94
1815.11
1805.17
1792.83
1778.95
1764.62
1751.15
1739.67
1731.02
1725.75
1724.03
1725.8
1730.62
1738.02
1747.64
1757.45
1770.67
1781.02
1785.84
1797.79
1813.64
1824.58
1833
1845.81
1541
916.624
909.886
911.777
1463.41
1876.68
1892.4
1911.45
1928.25
756.404
1462.55
1744.7
1777.06
1786.64
1790.12
1788.22
1781.37
1770.35
1755.87
1738.72
1720.15
1701.35
1683.75
1669.02
1658.19
1651.37
1650.19
1654.31
1663
1674.94
1688.67
1703.59
1719.53
1735.26
1747.93
1761.86
1777.45
1796.67
1811.72
1819.73
1707.12
1067.28
897.439
916.658
1544.27
1866.28
1884.6
1906.2
1925.19
528.603
1330.91
1737.76
1755.16
1754.06
1751.09
1744.14
1732.41
1716.3
1696.62
1673.71
1647.64
1620.31
1590.64
1551.05
1516.73
1513.54
1526.42
1549.71
1569.29
1593.51
1624.76
1644.24
1664.62
1684.89
1704.86
1722.41
1740.31
1762.85
1781.32
1789.76
1615.45
1272.36
1257.87
1426.72
1720.66
1856.65
1875.3
1897.33
1917.71
537.567
1422.06
1720.22
1725.48
1718.15
1709.6
1697.77
1681.38
1660.8
1635.73
1601.47
1505.44
1319.19
1039.7
804.212
664.64
699.361
786.945
958.557
1342.47
1531.75
1559.68
1586.05
1611.6
1634.9
1657.34
1680
1702.19
1723.46
1744.25
1766.01
1558.06
1395.66
1686.97
1812.1
1813.97
1838.59
1860.59
1882.08
1902.85
906.535
1632.87
1700.6
1694.69
1683.86
1671.02
1655.4
1635.74
1610.72
1571.93
1242.91
782
291.532
281.683
277.509
276.486
276.822
278.598
295.921
615.783
900.433
1026.26
1384.85
1570.92
1592.55
1613.05
1631.46
1661.04
1684.59
1706.39
1727.98
1675.11
1597.3
1701.46
1790.17
1805.32
1819.07
1837.17
1858.02
1877.98
1336.87
1683.11
1681.85
1670.13
1655.55
1638.99
1620.49
1597.77
1556.17
1095.48
348.406
276.177
271.739
271.667