/*--------------------------------*- C++ -*----------------------------------*\
  =========                 |
  \\      /  F ield         | OpenFOAM: The Open Source CFD Toolbox
   \\    /   O peration     | Website:  https://openfoam.org
    \\  /    A nd           | Version:  8
     \\/     M anipulation  |
\*---------------------------------------------------------------------------*/
FoamFile
{
    version     2.0;
    format      ascii;
    class       surfaceScalarField;
    location    "1.75";
    object      alphaPhi0.water;
}
// * * * * * * * * * * * * * * * * * * * * * * * * * * * * * * * * * * * * * //

dimensions      [0 3 -1 0 0 0 0];

internalField   nonuniform List<scalar> 
18095
(
1.97087e-08
-1.72039e-07
1.5233e-07
2.32026e-08
-1.98042e-07
1.94548e-07
1.98918e-08
-2.05993e-07
2.09303e-07
1.1097e-08
-2.10778e-07
2.19573e-07
4.58906e-10
-2.13357e-07
2.23996e-07
-1.05787e-08
-2.13428e-07
2.24466e-07
-1.98626e-08
-2.10468e-07
2.19752e-07
-2.31511e-08
-2.05819e-07
2.09108e-07
-1.96832e-08
-1.9804e-07
1.94572e-07
-1.72036e-07
1.52353e-07
1.55291e-08
-1.87568e-07
1.58053e-08
-1.98319e-07
1.20444e-08
-2.02232e-07
6.29328e-09
-2.05027e-07
-6.8509e-11
-2.06996e-07
-6.60582e-09
-2.06891e-07
-1.20653e-08
-2.05008e-07
-1.57758e-08
-2.02109e-07
-1.55081e-08
-1.98308e-07
-1.87544e-07
6.82704e-09
-1.94395e-07
8.32614e-09
-1.99818e-07
7.22484e-09
-2.0113e-07
4.02864e-09
-2.01831e-07
-1.8698e-10
-2.0278e-07
-4.29729e-09
-2.0278e-07
-7.18907e-09
-2.02116e-07
-8.29174e-09
-2.01006e-07
-6.83067e-09
-1.99769e-07
-1.94375e-07
4.52752e-09
-1.98922e-07
4.6597e-09
-1.9995e-07
3.62226e-09
-2.00093e-07
2.21072e-09
-2.00419e-07
2.37179e-10
-2.00806e-07
-1.83569e-09
-2.00708e-07
-3.61056e-09
-2.00342e-07
-4.70386e-09
-1.99913e-07
-4.54471e-09
-1.99928e-07
-1.98919e-07
1.0776e-09
1.1278e-09
1.03478e-09
6.15712e-10
-1.90751e-10
-8.98269e-10
-1.23982e-09
-1.15268e-09
-1.08077e-09
-2.68626e-08
-1.96509e-07
2.23371e-07
-2.91685e-08
-1.98856e-07
2.01162e-07
-2.34467e-08
-2.01578e-07
1.95856e-07
-1.18297e-08
-2.01129e-07
1.89512e-07
2.0453e-09
-2.01804e-07
1.87929e-07
1.5492e-08
-2.01922e-07
1.88475e-07
2.5761e-08
-2.01319e-07
1.9105e-07
3.0087e-08
-2.01221e-07
1.96895e-07
2.73709e-08
-1.98931e-07
2.01648e-07
-1.96731e-07
2.24102e-07
-9.61238e-09
-1.86896e-07
-1.50539e-08
-1.93415e-07
-1.37393e-08
-2.02892e-07
-5.91264e-09
-2.08956e-07
1.09305e-09
-2.0881e-07
7.61067e-09
-2.08439e-07
1.41687e-08
-2.07877e-07
1.5497e-08
-2.02549e-07
9.85399e-09
-1.93288e-07
-1.86877e-07
-1.06156e-08
-1.76281e-07
-8.34852e-09
-1.95682e-07
-6.03374e-09
-2.05207e-07
-4.45975e-09
-2.1053e-07
-3.60449e-10
-2.12909e-07
3.91888e-09
-2.12719e-07
6.09237e-09
-2.1005e-07
8.51263e-09
-2.0497e-07
1.06782e-08
-1.95454e-07
-1.76199e-07
-6.75578e-09
-1.69525e-07
-9.20047e-09
-1.93237e-07
-9.2046e-09
-2.05203e-07
-4.79404e-09
-2.1494e-07
-1.04027e-09
-2.16663e-07
3.08881e-09
-2.16848e-07
8.22469e-09
-2.15186e-07
8.60822e-09
-2.05353e-07
6.55595e-09
-1.93402e-07
-1.69643e-07
-1.71949e-08
-1.58839e-08
-1.17833e-08
-7.15087e-09
1.82052e-10
7.79977e-09
1.23652e-08
1.61198e-08
1.72904e-08
3.71532e-08
-1.55933e-07
1.18779e-07
4.35904e-08
-1.97648e-07
1.91211e-07
3.78813e-08
-2.09836e-07
2.15545e-07
2.54225e-08
-2.15319e-07
2.27778e-07
8.55868e-09
-2.16315e-07
2.33179e-07
-7.81443e-09
-2.1714e-07
2.33513e-07
-2.19711e-08
-2.16043e-07
2.30199e-07
-3.16376e-08
-2.1113e-07
2.20797e-07
-2.67249e-08
-2.00418e-07
1.95505e-07
-1.60218e-07
1.33493e-07
1.75381e-08
-1.73471e-07
2.03016e-08
-2.00412e-07
1.70331e-08
-2.06567e-07
1.06294e-08
-2.08915e-07
2.33194e-09
-2.08018e-07
-6.85097e-09
-2.07957e-07
-1.44812e-08
-2.08413e-07
-1.76866e-08
-2.07925e-07
-1.52429e-08
-2.02861e-07
-1.75461e-07
1.01097e-08
-1.8358e-07
1.0153e-08
-2.00455e-07
8.57108e-09
-2.04985e-07
3.64827e-09
-2.03992e-07
-2.27475e-10
-2.04142e-07
-3.48245e-09
-2.04702e-07
-6.77386e-09
-2.05121e-07
-8.43958e-09
-2.06259e-07
-9.50349e-09
-2.01798e-07
-1.84964e-07
7.56297e-09
-1.91143e-07
6.39627e-09
-1.99288e-07
7.04503e-09
-2.05634e-07
2.95259e-09
-1.999e-07
1.68822e-09
-2.02878e-07
1.30511e-10
-2.03145e-07
-5.30708e-09
-1.99684e-07
-5.12011e-09
-2.06446e-07
-6.96054e-09
-1.99957e-07
-1.91925e-07
3.22281e-08
3.41022e-08
2.43239e-08
1.39361e-08
-1.01279e-09
-1.56824e-08
-2.43163e-08
-3.38675e-08
-3.2177e-08
-1.00621e-06
9.81725e-09
8.72745e-07
-9.49022e-07
-5.70959e-08
-8.41966e-07
-1.06965e-07
-7.05775e-07
-1.361e-07
-5.6108e-07
-1.44573e-07
-3.98414e-07
-1.62468e-07
-2.71207e-07
-1.26853e-07
-1.80828e-07
-8.9349e-08
-6.88785e-08
-1.1113e-07
-1.41513e-07
7.30798e-08
-1.09702e-06
-4.27212e-08
8.07469e-07
-9.90538e-07
-1.63488e-07
-8.62371e-07
-2.3504e-07
-7.31746e-07
-2.66603e-07
-6.00221e-07
-2.75901e-07
-4.8492e-07
-2.77414e-07
-3.47527e-07
-2.25473e-07
-2.57997e-07
-1.56293e-07
-1.49659e-07
-2.19022e-07
-2.53971e-07
-3.6765e-08
-7.53755e-07
-8.57981e-08
3.22497e-07
-6.71644e-07
-2.45763e-07
-6.15338e-07
-2.90845e-07
-5.7346e-07
-3.07887e-07
-5.5036e-07
-2.98074e-07
-5.2056e-07
-2.95593e-07
-3.14463e-07
-2.05263e-07
-1.8175e-07
-1.83772e-07
-2.144e-07
-3.12624e-07
-4.06663e-07
-1.26574e-07
-2.2866e-07
-5.61596e-08
5.92757e-08
-2.62805e-07
-1.62809e-07
-2.69554e-07
-1.23444e-07
-3.13159e-07
-6.27332e-08
-3.56881e-07
-1.00694e-07
-3.1258e-07
-8.73673e-08
-2.35786e-07
-6.83825e-08
-1.62938e-07
-1.30027e-07
-2.11751e-07
-2.56584e-07
-3.55197e-07
-1.88835e-07
-5.72473e-08
-2.45355e-09
5.26326e-08
-4.31154e-08
-9.79082e-09
-4.45547e-08
-2.08091e-08
-4.50372e-08
-4.44418e-08
-3.53747e-08
-7.2334e-08
-1.82198e-08
-6.07912e-08
-1.95652e-08
-2.41004e-08
-3.32863e-08
-2.39486e-08
-4.73752e-08
-2.41539e-08
-1.05044e-07
-7.77553e-08
-4.31689e-08
7.33434e-09
3.15286e-08
-5.69242e-08
1.26309e-09
-6.33535e-08
-1.85936e-08
-7.97213e-08
-4.24295e-08
-5.58102e-08
-1.4264e-07
-4.09145e-09
-1.56181e-07
2.29381e-08
-6.98231e-08
3.23002e-08
-4.77989e-08
2.32953e-08
-2.74801e-08
-2.12054e-08
6.10686e-08
-3.83395e-08
-8.7405e-10
4.64132e-08
-2.88133e-08
-9.91558e-09
-2.79789e-08
-6.08223e-08
-3.55552e-08
-4.4291e-07
3.11031e-08
-8.46691e-07
5.65294e-08
-8.61886e-07
4.35014e-08
-5.14959e-07
6.10405e-08
-1.56456e-07
6.43938e-08
-4.57584e-08
-2.069e-08
4.74393e-08
-9.11971e-09
-1.71688e-08
2.4439e-08
-1.36999e-09
-2.13425e-08
1.30369e-07
-4.0253e-07
2.47825e-07
-8.83134e-07
3.3158e-07
-9.29379e-07
3.86356e-07
-9.15599e-07
2.91404e-07
-8.02493e-07
9.56125e-08
-6.53221e-07
7.51474e-08
-1.83975e-07
-4.35885e-08
7.95627e-08
3.01811e-08
-4.98899e-08
-7.49649e-10
1.52853e-07
-2.09128e-07
3.52832e-07
-7.94165e-07
4.36257e-07
-9.64591e-07
4.5359e-07
-9.57332e-07
4.6705e-07
-9.26913e-07
4.61361e-07
-7.95744e-07
4.02965e-07
-6.50756e-07
1.10614e-07
-5.1569e-07
-1.31983e-07
6.91671e-08
2.69282e-07
-5.68388e-07
-1.67006e-07
3.47998e-07
-6.15098e-07
4.79476e-07
-9.085e-07
5.03732e-07
-9.9998e-07
4.85646e-07
-9.70967e-07
4.60877e-07
-9.12471e-07
4.2104e-07
-7.51017e-07
4.30146e-07
-6.51547e-07
3.9831e-07
-5.1312e-07
-3.53177e-07
2.91213e-07
3.90633e-07
-6.1372e-07
-3.62852e-07
3.86041e-07
-6.762e-07
4.33801e-07
-7.58909e-07
5.03283e-07
-7.98969e-07
4.91407e-07
-9.78724e-07
3.64385e-07
-8.19353e-07
3.11092e-07
-7.07462e-07
2.68099e-07
-5.30409e-07
2.91271e-07
-4.35733e-07
-3.41055e-07
3.51626e-07
3.56909e-07
-6.10192e-07
-3.59616e-07
2.17224e-07
-3.5207e-07
2.75609e-07
-3.36681e-07
4.39222e-07
-6.91264e-07
2.37122e-07
-8.36826e-07
7.61744e-08
-4.96563e-07
2.34909e-08
-1.66697e-07
2.22573e-08
-1.24766e-07
2.6742e-08
-1.10986e-07
-8.23135e-08
-1.8902e-08
1.31596e-07
-2.80777e-07
-2.48361e-07
6.54884e-08
-1.2921e-07
1.08565e-07
-2.68331e-07
1.03725e-07
-8.01507e-07
-9.33841e-08
-6.75625e-07
-7.25428e-08
-3.14448e-07
-6.01963e-08
-1.23873e-07
-7.32989e-08
-1.12037e-07
-9.8025e-08
-8.65186e-08
-5.00918e-08
-1.30824e-07
1.67397e-08
-1.09714e-07
-1.49484e-08
1.79185e-08
-1.32104e-07
2.43926e-08
-3.39618e-07
-1.17493e-07
-7.63521e-07
-2.81896e-07
-5.52801e-07
-1.00662e-07
-4.30078e-07
-7.78458e-08
-1.46804e-07
-9.60887e-08
-9.40533e-08
-1.06705e-07
-7.59925e-08
-4.35534e-08
-1.13536e-07
-1.49768e-08
-1.16151e-07
2.09102e-08
-1.57213e-08
-1.31977e-07
-8.35292e-08
-3.31508e-07
-1.50289e-07
-7.02383e-07
-2.09038e-07
-4.9362e-07
-2.03306e-07
-4.66705e-07
-7.12194e-08
-2.92082e-07
-8.18249e-08
-8.35383e-08
-8.62169e-08
-7.16915e-08
-5.02976e-08
-7.95481e-08
-1.2979e-08
-1.23214e-07
1.95592e-08
-6.89075e-09
-1.38568e-07
-9.05209e-08
-2.66013e-07
-1.42188e-07
-6.50284e-07
-1.87283e-07
-4.47993e-07
-2.30482e-07
-4.23074e-07
-1.26643e-07
-3.91663e-07
-4.67336e-08
-1.35736e-07
-4.5579e-08
-7.29386e-08
-6.07998e-08
-3.51666e-08
-2.24082e-08
-1.29131e-07
2.78209e-08
-1.32251e-08
-1.48492e-07
-9.2387e-08
-2.61089e-07
-1.63012e-07
-5.963e-07
-1.87165e-07
-4.23308e-07
-2.05697e-07
-4.0401e-07
-1.67367e-07
-3.90511e-07
-3.427e-08
-1.28574e-07
-3.1492e-08
-7.58074e-08
-6.54985e-08
-2.68914e-08
-3.28188e-08
-1.2977e-07
3.27617e-08
-2.33183e-08
-1.59523e-07
-1.43588e-07
-3.12822e-07
-2.3275e-07
-6.1805e-07
-2.12522e-07
-4.43004e-07
-2.07813e-07
-4.08154e-07
-1.48214e-07
-3.86944e-07
-3.41536e-08
-1.19166e-07
-3.66043e-08
-7.34568e-08
-5.83572e-08
-4.38566e-08
-6.36747e-08
-1.15119e-07
4.74938e-08
-6.71883e-08
-1.5952e-07
-2.87902e-07
-3.26257e-07
-3.41944e-07
-7.17872e-07
-2.51216e-07
-5.33167e-07
-2.13316e-07
-4.45536e-07
-1.50852e-07
-4.15234e-07
-4.45339e-08
-2.15451e-07
-5.13911e-08
-6.68083e-08
-4.87688e-08
-6.15293e-08
-8.09886e-08
-8.94637e-08
5.18119e-08
-9.97403e-08
-1.46125e-07
-3.56292e-07
-2.24813e-07
-4.75866e-07
-7.72675e-07
-2.64135e-07
-7.44379e-07
-1.68843e-07
-5.40862e-07
-1.47759e-07
-4.36817e-07
-7.5346e-08
-3.85033e-07
-4.08004e-08
-1.11091e-07
-5.16948e-08
-3.87863e-08
-7.04866e-08
-6.02568e-08
2.50223e-08
-1.19199e-07
-1.14011e-07
-2.46006e-07
-1.83217e-07
-5.44966e-07
-7.76767e-07
-2.88521e-07
-1.00086e-06
-5.81949e-08
-7.71687e-07
-3.74292e-09
-4.9361e-07
8.61066e-09
-3.97416e-07
5.79627e-09
-3.3512e-07
-9.77384e-08
-3.21988e-10
2.44976e-08
-1.43559e-07
-9.60805e-08
-3.13889e-08
-8.29533e-08
-1.31555e-07
-1.51567e-07
-3.63742e-07
-8.91707e-07
-2.37381e-07
-1.13055e-06
1.65711e-08
-9.91438e-07
1.76146e-07
-6.46387e-07
1.64705e-07
-3.8091e-07
1.46124e-07
-3.09604e-07
-2.39702e-07
3.82476e-08
1.37193e-07
-1.5287e-07
-2.45427e-07
4.74571e-08
-3.1857e-08
-4.21336e-08
-2.77702e-07
-8.62832e-08
-9.44777e-07
-7.29318e-08
-1.22175e-06
5.98652e-08
-1.17377e-06
2.82699e-07
-5.44843e-07
3.29851e-07
-3.07042e-07
2.24833e-07
-2.00394e-07
-1.71274e-07
1.60673e-07
9.21518e-08
-9.01125e-08
-2.08312e-07
2.59342e-09
-3.79096e-08
-3.50188e-08
-3.03878e-07
2.66622e-09
-6.72758e-07
1.08265e-07
-1.28452e-06
1.95584e-07
-1.28193e-06
1.72079e-07
-4.84794e-07
3.11762e-07
-9.96473e-08
2.84152e-07
-7.86401e-08
-4.53925e-08
1.60374e-07
7.30427e-08
5.81e-09
-2.27853e-07
-2.47734e-08
8.01543e-08
-1.92693e-08
-2.21805e-07
-2.75393e-08
-1.48152e-07
5.99631e-08
-1.34968e-06
1.5957e-07
-1.36386e-06
8.12381e-09
-1.93666e-07
1.07338e-07
-2.39662e-08
2.95023e-07
-4.91913e-08
3.3632e-08
2.17782e-07
4.7028e-08
1.67131e-07
-3.22101e-07
1.94585e-08
1.18024e-07
-2.07726e-08
-1.43193e-08
-1.0351e-07
-3.88855e-08
-5.74387e-08
-1.37807e-06
-1.31809e-08
-1.39187e-06
3.25978e-09
-7.06498e-08
2.52755e-08
-3.06423e-08
2.98272e-07
-9.27667e-08
5.28318e-09
3.41168e-07
1.1043e-07
2.67748e-07
-3.18172e-07
7.0908e-08
4.32793e-08
1.02124e-08
1.7243e-09
-1.39679e-10
-4.17811e-09
-9.76822e-09
-1.34324e-06
-1.96575e-09
-1.36416e-06
-9.06657e-09
-6.28116e-08
-2.94233e-11
-1.81583e-08
2.13764e-07
-2.1873e-08
-3.49303e-08
2.956e-07
9.91361e-08
2.56745e-07
-2.00018e-07
1.15019e-08
-1.18587e-08
1.40478e-08
1.37255e-09
1.31625e-08
-6.66475e-10
4.31559e-08
-9.7518e-07
1.24003e-08
-1.03914e-06
-3.3647e-09
-5.15905e-08
4.18813e-09
-2.443e-08
1.37636e-08
-2.30519e-08
-3.03877e-08
2.8635e-07
1.27366e-08
6.32597e-08
-3.23647e-08
-1.3513e-09
4.00202e-10
2.01519e-10
-4.31551e-11
3.16105e-10
-7.70591e-10
1.84687e-08
-3.33158e-07
-2.8461e-09
-3.59826e-07
-1.06508e-08
-4.10591e-08
-5.64191e-09
-2.02615e-08
0
-1.85954e-08
-2.05146e-08
1.22869e-08
-5.13139e-10
1.03113e-08
1.98069e-08
-2.00381e-10
4.02488e-11
8.33279e-11
-3.8275e-10
9.20205e-10
-1.66335e-09
3.0981e-10
-3.97606e-08
-8.54372e-09
-8.09523e-08
-2.49037e-08
-3.10723e-08
-2.3527e-08
-1.52871e-08
-1.46488e-08
-9.71218e-09
-5.93423e-09
-7.13108e-09
-3.48025e-10
1.53518e-09
9.42275e-09
-3.34533e-10
8.17195e-11
-3.40433e-10
-4.32737e-10
0
-2.97035e-09
-1.43134e-09
-3.57042e-08
-4.59198e-09
-3.63595e-08
-1.31801e-08
-2.43035e-08
-3.16441e-08
-2.39971e-08
-8.04212e-09
-2.009e-08
-9.85687e-09
-3.8349e-09
0
1.13339e-08
9.41221e-11
-2.284e-10
2.0492e-09
-6.87658e-10
-2.24349e-10
-3.43191e-09
-8.52662e-09
-8.15905e-09
-3.53884e-08
-5.34309e-09
-7.25378e-08
-1.19049e-08
-1.82819e-08
-1.62401e-08
-1.2893e-08
-1.8393e-08
-1.52629e-08
-1.7958e-08
-3.00589e-09
2.21265e-09
6.11926e-09
-3.02234e-09
1.70667e-09
1.89222e-09
-1.02933e-10
9.05639e-11
-6.44115e-09
-1.8263e-08
-1.37753e-08
-6.80705e-07
-1.55815e-09
-6.84549e-07
0
-2.6502e-08
8.19485e-10
-9.66742e-09
1.68252e-09
-1.47496e-08
-1.60064e-08
1.57417e-09
1.41296e-10
4.48764e-10
-3.30719e-10
0
3.76279e-10
-8.82484e-10
7.64723e-11
-2.40057e-08
-4.3059e-08
-2.80279e-08
-1.09681e-06
-7.67469e-09
-1.04859e-06
8.54099e-09
-5.99957e-08
6.91938e-09
-1.13355e-08
1.2497e-08
-1.23969e-08
-1.23563e-08
1.05967e-08
-8.56007e-11
3.19099e-10
8.08225e-11
-1.02735e-10
1.54212e-10
-2.95606e-10
-7.2718e-11
-4.30055e-08
-7.71505e-08
-3.62921e-08
-1.10045e-06
-6.48692e-09
-1.08805e-06
6.91693e-09
-8.42073e-08
5.39262e-09
-1.17399e-08
9.00738e-09
-1.66002e-08
-1.33698e-08
9.52167e-09
-1.76903e-10
2.22897e-10
1.91669e-10
-2.18768e-10
6.02638e-11
0
-2.59611e-09
-6.16923e-08
-7.04764e-08
-4.98304e-08
-1.10927e-06
-2.8117e-08
-1.10266e-06
0
-9.88293e-08
3.79013e-10
-7.76192e-09
2.03835e-09
-1.46503e-08
-8.38208e-09
-3.0552e-09
0
3.53319e-10
1.59196e-10
0
-4.74414e-10
0
-4.28073e-09
1.56174e-08
-6.01794e-08
2.15856e-08
-1.10402e-06
3.51333e-08
-1.11391e-06
0
-7.97749e-08
2.63632e-10
-3.73342e-09
-2.28125e-11
-1.02654e-09
-5.56001e-10
-6.94688e-10
3.25688e-10
3.51273e-10
2.13942e-12
-1.68617e-11
-4.97822e-10
0
-7.93957e-10
4.82687e-09
-7.0921e-08
1.02929e-08
-1.09815e-06
8.56861e-09
-1.11082e-06
0
-6.91233e-08
5.18628e-10
-2.99871e-09
6.14629e-11
-4.03435e-10
-5.55574e-10
8.17656e-11
-1.82056e-09
1.39589e-09
0
-3.51267e-10
1.02251e-09
-7.4146e-10
2.632e-09
1.59702e-09
-8.20739e-08
2.89928e-09
-1.09182e-06
3.57732e-10
-1.1023e-06
-7.77716e-10
-7.40662e-08
0
-2.57842e-09
9.62395e-12
-1.17523e-09
-1.58393e-09
1.0505e-10
9.39172e-09
3.7605e-10
-1.28591e-09
1.25419e-08
3.47754e-09
8.19688e-10
8.85974e-09
1.16544e-09
-8.50723e-08
3.06168e-09
-1.08295e-06
-1.84548e-09
-1.08768e-06
-1.14677e-10
-8.54371e-08
5.6253e-13
-6.77869e-10
8.2182e-10
-3.6038e-10
-1.06376e-09
6.74371e-10
1.39584e-09
8.41021e-10
-4.99516e-10
-1.12193e-10
8.99564e-09
8.5969e-10
1.2936e-09
1.65485e-08
-8.89865e-08
3.33131e-08
-1.07668e-06
1.9628e-08
-1.08044e-06
0
-7.95496e-08
0
-1.10779e-10
3.72512e-10
-2.64035e-11
-5.96616e-12
4.83969e-10
-2.41875e-09
0
1.12219e-09
0
6.80239e-11
1.7437e-09
-5.77104e-11
4.20739e-09
-8.11644e-08
1.52013e-08
-1.07401e-06
8.66254e-09
-1.07303e-06
1.34555e-10
-6.74267e-08
2.64903e-11
-1.41406e-11
5.42171e-12
-5.04824e-12
-3.80762e-12
3.44646e-12
-8.34238e-11
2.88087e-12
6.65088e-11
-2.85173e-12
-2.82937e-12
2.79447e-10
-1.00001e-11
2.9172e-10
-4.76962e-08
4.3755e-09
-1.06443e-06
-1.27477e-09
-1.06486e-06
-2.44748e-11
-4.56803e-08
2.12585e-13
-3.89984e-11
2.51395e-13
-5.14875e-12
-4.65756e-12
1.41984e-12
-3.16812e-12
1.4411e-12
4.55691e-12
-5.51156e-13
-4.59124e-12
3.15443e-12
-1.17251e-11
8.59076e-09
-1.55832e-08
1.21185e-08
-1.05974e-06
7.81545e-09
-1.05834e-06
2.75034e-11
-1.35716e-08
-2.26143e-13
-1.13619e-11
1.02769e-13
-5.65566e-12
-1.06727e-11
6.86334e-12
2.80985e-13
9.51418e-13
4.07904e-14
1.1355e-12
-5.12007e-13
3.56108e-12
-1.19747e-11
-2.30334e-09
-2.00483e-10
-9.28695e-09
-1.0341e-06
-7.33543e-09
-1.03369e-06
-8.49897e-13
-1.69134e-09
-1.87787e-12
-1.06823e-11
-2.1241e-12
-5.48469e-12
-4.49768e-12
-1.30028e-12
3.00281e-12
-1.33498e-13
-1.07098e-13
4.41056e-12
-1.00099e-12
4.61676e-12
-1.26844e-11
1.02388e-09
-2.54027e-10
1.65842e-09
-9.61324e-07
-2.5894e-09
-9.61808e-07
-1.74495e-12
-3.33022e-11
-2.71374e-12
-9.80931e-12
-2.74827e-12
-5.54412e-12
0
0
2.25325e-12
-3.42178e-14
-1.40563e-12
4.88537e-12
-9.66339e-13
7.42332e-12
-1.55463e-11
5.98232e-10
-8.46352e-10
-2.9408e-09
-8.9114e-07
-9.48818e-11
-8.95838e-07
-1.40011e-12
-1.27171e-10
-2.2712e-12
-9.03219e-12
-6.10442e-13
-9.55437e-12
-3.48139e-11
-2.4767e-12
3.02753e-12
-9.97924e-12
-1.19552e-12
6.90485e-12
-6.95229e-12
2.38053e-11
-1.10186e-10
2.98638e-09
-3.88308e-09
-2.34555e-09
-8.54758e-07
-3.22647e-10
-8.52944e-07
-2.88677e-12
-4.47944e-10
-3.64641e-12
-7.95944e-12
-1.43677e-11
-5.14254e-11
-1.82792e-10
-1.01641e-10
2.97487e-11
-2.22547e-10
-4.74527e-12
6.89203e-11
-3.35786e-10
2.07923e-11
-1.66358e-10
-1.0364e-08
-2.99491e-10
-2.65277e-08
-8.38044e-07
-1.47344e-09
-8.28184e-07
-8.66169e-12
-1.30318e-09
-8.36549e-12
-4.1244e-12
-9.33279e-11
-6.6931e-11
-1.95038e-10
-2.32711e-10
1.03731e-10
-2.98848e-10
-2.70977e-11
1.40142e-10
-3.76162e-10
4.09891e-11
-2.14783e-10
1.75032e-11
-7.76394e-10
1.13102e-08
-8.58333e-07
2.78342e-09
-8.70914e-07
-9.47043e-12
-2.82024e-10
-1.15203e-11
-1.86704e-12
-8.16064e-11
-3.98238e-11
-1.67057e-10
-1.54518e-10
7.54505e-11
-3.77615e-10
3.59112e-12
7.67527e-11
-3.77091e-10
1.41681e-11
-5.4928e-11
1.19303e-09
-1.78241e-09
-3.76687e-09
-9.44933e-07
-1.70714e-09
-9.43437e-07
-2.01652e-12
-1.98694e-09
-5.04742e-13
-1.45478e-12
-1.68364e-11
-4.42427e-11
-1.7952e-10
-5.7333e-11
-2.76551e-11
-4.10984e-10
6.13827e-11
-1.20152e-11
-3.75979e-10
0
-1.31728e-11
3.23069e-09
-4.97083e-09
-1.54821e-09
-1.00819e-06
-3.32013e-09
-1.00696e-06
-1.24265e-12
-5.30372e-09
-2.70307e-13
-1.41181e-12
-1.31725e-11
-1.4262e-11
-1.34008e-10
-5.75211e-11
-1.09495e-10
-4.28e-10
1.27462e-10
0
-1.19762e-10
-3.53998e-12
-7.25081e-12
2.80387e-09
-2.25081e-08
-1.31791e-09
-1.03801e-06
-4.47659e-09
-1.03703e-06
-7.79957e-14
-2.11929e-08
0
-2.05455e-12
4.50637e-11
-1.34715e-11
-7.18014e-11
3.89948e-11
-7.9498e-11
-4.11153e-10
6.72856e-11
0
-1.05398e-10
5.97956e-13
-8.78799e-12
3.11946e-09
-6.05395e-08
-8.60995e-10
-1.04293e-06
-4.20095e-09
-1.04373e-06
-3.90398e-12
-6.0539e-08
0
-6.44853e-12
1.90443e-11
-1.4647e-11
-5.0737e-11
8.46321e-12
-4.05086e-11
-3.6341e-10
5.2552e-12
0
-2.36516e-10
1.55851e-11
-1.30861e-11
7.6491e-09
-8.9255e-08
9.12437e-09
-1.03714e-06
4.40821e-09
-1.03838e-06
-3.25411e-11
-8.90086e-08
0
-4.13915e-11
-9.58871e-13
-9.32366e-12
-1.60005e-11
-4.518e-11
5.03825e-11
-3.55088e-10
-5.55097e-11
1.91434e-11
-2.4906e-10
5.96485e-11
-5.3884e-12
7.07963e-09
-9.67539e-08
1.36281e-08
-1.03401e-06
9.67708e-09
-1.03417e-06
4.37287e-11
-9.48935e-08
0
-1.59744e-11
9.9226e-12
-5.23435e-12
1.22283e-11
-2.85036e-11
8.57971e-11
-3.6909e-10
-5.79483e-11
1.64751e-11
-1.6211e-10
1.45328e-11
-3.80882e-12
-7.80486e-09
-9.09382e-08
-5.822e-09
-1.02614e-06
-6.54346e-09
-1.02758e-06
-4.18708e-11
-9.30378e-08
0
-9.50522e-11
0
-9.97976e-13
2.68701e-11
-4.86772e-11
6.73079e-11
-2.00749e-10
-1.67246e-11
8.15112e-12
-3.71575e-11
7.17061e-12
-2.90605e-12
1.29271e-08
-6.41789e-08
1.75903e-08
-1.01939e-06
1.47917e-08
-1.0185e-06
9.32167e-11
-6.4625e-08
0
-1.84227e-12
1.41219e-12
4.74435e-15
2.15016e-11
-7.79995e-11
-5.35659e-13
-8.10071e-12
-1.58298e-11
0
-7.88404e-12
1.23235e-13
-3.09736e-12
2.29266e-09
-3.31075e-08
-9.31764e-10
-9.93346e-07
-4.92607e-09
-9.9479e-07
-8.39862e-14
-3.27845e-08
-1.25794e-14
-1.91844e-12
1.6741e-13
-1.80612e-13
2.02259e-12
1.76327e-11
-1.60512e-13
-1.15834e-12
-9.29887e-12
6.91167e-13
-1.2203e-12
6.14947e-13
-3.06719e-12
4.0101e-09
-1.29754e-08
-6.05054e-10
-9.42928e-07
-4.50372e-09
-9.4182e-07
-1.38282e-13
-1.20582e-08
-9.31427e-14
-1.96979e-12
6.5981e-14
-3.4444e-13
3.86692e-13
1.69954e-12
3.62438e-13
-2.1958e-13
-3.29673e-12
5.79569e-13
-1.48267e-12
3.10261e-13
-2.92635e-12
5.23402e-09
-6.23733e-09
-4.79881e-10
-9.03138e-07
-5.65039e-09
-8.98565e-07
-5.97903e-13
-4.83098e-09
-2.91388e-13
-2.30915e-12
-1.31597e-13
-5.0657e-13
1.29463e-12
1.32553e-12
2.41131e-12
2.34459e-12
-1.79309e-12
1.47686e-12
-1.62001e-12
1.09888e-12
-2.64794e-12
5.21435e-09
-2.75931e-09
2.38641e-09
-8.73056e-07
-5.8788e-09
-8.73938e-07
-3.04853e-12
-7.33921e-09
-5.3504e-13
-5.04881e-12
-4.64743e-13
-5.73084e-13
7.25929e-13
1.68033e-12
2.52836e-12
3.70735e-12
-7.08752e-13
1.42623e-12
-1.3205e-12
1.25628e-12
-2.48301e-12
1.74959e-08
-4.17977e-09
3.59953e-08
-8.49345e-07
1.38952e-08
-8.61239e-07
3.42913e-12
-5.17005e-09
-4.94965e-13
-1.69073e-12
-1.82051e-13
-1.30115e-12
-4.00092e-12
1.99415e-12
3.85543e-12
5.95168e-12
-5.84765e-13
5.22011e-13
-4.27116e-13
3.60905e-13
-2.32252e-12
-5.64996e-10
-9.37237e-09
-1.29321e-08
-8.60566e-07
-1.21982e-08
-8.53322e-07
-1.44891e-13
-8.99468e-09
-7.07053e-13
-1.80133e-12
-3.38524e-12
0
-4.18794e-12
-4.27435e-12
-2.94201e-14
5.89985e-13
2.60083e-12
9.47194e-14
-5.51505e-13
9.59814e-14
-2.32423e-12
4.52733e-09
-2.31139e-08
-3.99933e-09
-8.88774e-07
-7.05289e-09
-8.85472e-07
-1.99673e-12
-2.33084e-08
-1.47096e-12
-2.59491e-12
-2.09421e-13
-1.12212e-12
-6.9756e-13
-2.35111e-12
-4.87119e-14
2.63678e-14
6.07327e-13
7.67593e-14
-6.79808e-13
1.6587e-13
-2.41356e-12
7.98689e-09
-4.53374e-08
3.05355e-09
-9.17881e-07
-3.94295e-09
-9.17226e-07
-1.14353e-11
-4.53584e-08
-1.22916e-11
-1.72318e-12
-5.62704e-12
-7.61058e-11
-5.08493e-12
-1.85734e-12
-4.3252e-14
-1.08054e-13
1.72205e-13
1.09276e-14
-7.39418e-13
1.24031e-13
-2.52949e-12
4.013e-09
-6.90735e-08
-3.25405e-09
-9.36712e-07
-8.12459e-09
-9.33996e-07
-3.24004e-12
-7.04324e-08
0
-4.99485e-12
-2.24592e-11
-5.98647e-11
-1.32928e-11
-7.21598e-11
-1.32945e-13
-1.57452e-13
1.3147e-13
0
-2.81575e-12
2.10413e-13
-2.7413e-12
4.4712e-09
-8.89092e-08
-2.51112e-09
-9.42914e-07
-6.53758e-09
-9.39942e-07
-3.96862e-11
-8.96824e-08
-4.37552e-11
-9.59645e-13
-1.31032e-10
1.6105e-11
-7.00549e-12
-1.09256e-10
-8.08981e-13
-1.29659e-13
1.16685e-13
0
-2.56766e-11
5.70951e-13
-3.31729e-12
5.03745e-09
-1.01906e-07
-2.09174e-09
-9.40173e-07
-6.13334e-09
-9.38656e-07
-1.48024e-13
-1.02043e-07
0
-1.14519e-12
5.22253e-11
-6.64232e-12
-2.81947e-12
1.34611e-10
6.11019e-13
-3.44668e-12
-9.59809e-15
3.32623e-12
-3.00547e-11
4.27646e-12
-4.29666e-12
5.4453e-09
-1.08791e-07
-6.51929e-10
-9.33517e-07
-6.4177e-09
-9.31555e-07
-1.2476e-13
-1.08925e-07
0
-1.30486e-12
1.18299e-12
-4.1562e-12
-2.44798e-12
9.20871e-13
7.64844e-12
-1.64777e-11
-8.16107e-13
9.21857e-12
-3.4112e-11
1.01029e-11
-5.37661e-12
6.64092e-09
-1.12465e-07
-3.87661e-10
-9.23173e-07
-6.86814e-09
-9.2172e-07
-6.97436e-13
-1.12539e-07
-4.68281e-13
-1.57154e-12
1.89306e-13
-8.3713e-12
-8.11928e-12
8.82292e-13
1.38042e-11
-2.1963e-11
-8.32707e-12
1.07246e-11
-2.67969e-11
1.0626e-11
-5.75517e-12
7.63739e-09
-1.14961e-07
-1.01141e-10
-9.10934e-07
-7.61214e-09
-9.10183e-07
-2.37492e-12
-1.15154e-07
-2.29325e-12
-1.71616e-12
-2.90595e-12
-9.32508e-12
-6.40948e-12
-6.41559e-13
8.80868e-12
-2.35311e-11
-7.2119e-12
7.18178e-12
-2.68042e-11
7.33543e-12
-6.59382e-12
9.1182e-09
-1.17513e-07
1.23855e-09
-8.97913e-07
-7.40118e-09
-8.97665e-07
-2.39995e-12
-1.17398e-07
-2.76136e-12
-1.46429e-12
-2.5925e-12
-6.32949e-12
-4.45949e-12
-4.7878e-13
9.5194e-12
-2.7281e-11
-5.74084e-12
7.80092e-12
-3.09957e-11
7.91865e-12
-7.64283e-12
9.17703e-09
-1.20201e-07
-7.93399e-11
-8.84167e-07
-8.74791e-09
-8.84296e-07
-1.49186e-12
-1.19835e-07
-1.84995e-12
-1.30823e-12
-1.1159e-12
-4.91425e-12
-7.96114e-13
-9.94599e-13
1.93869e-11
-2.72157e-11
-1.94235e-11
1.22883e-11
-3.3974e-11
1.19546e-11
-8.38926e-12
8.09681e-09
-1.22901e-07
-2.17569e-09
-8.70593e-07
-1.10567e-08
-8.69872e-07
-1.60109e-12
-1.2295e-07
-1.97624e-12
-1.14796e-12
-1.07442e-12
-4.28168e-12
3.76696e-12
-2.45666e-12
1.54816e-11
-2.85474e-11
-1.41246e-11
1.24552e-11
-3.62524e-11
1.25978e-11
-9.34088e-12
9.73996e-09
-1.27118e-07
-1.18718e-09
-8.56502e-07
-1.06357e-08
-8.56436e-07
-1.09631e-12
-1.2705e-07
-1.4664e-12
-1.01286e-12
-4.15329e-13
-4.19623e-12
7.51975e-12
-1.76185e-13
1.88475e-11
-2.8943e-11
-1.84268e-11
1.33414e-11
-3.51969e-11
1.36044e-11
-1.00438e-11
1.02406e-08
-1.34565e-07
-8.90808e-10
-8.44173e-07
-1.12346e-08
-8.44294e-07
-8.87351e-13
-1.34938e-07
-1.16666e-12
-9.51038e-13
-2.95965e-13
-6.21132e-12
3.84697e-12
2.13628e-12
1.47478e-11
-2.62846e-11
-1.73777e-11
1.16315e-11
-3.49158e-11
1.217e-11
-1.09396e-11
1.12229e-08
-1.50077e-07
-1.65586e-09
-8.33682e-07
-1.30532e-08
-8.34006e-07
-2.58242e-12
-1.50403e-07
-2.86211e-12
-7.77398e-13
-6.97482e-12
-1.18208e-11
-1.03274e-11
-2.498e-12
1.89904e-11
-2.45916e-11
-2.06546e-11
1.18124e-11
-2.94413e-11
1.17997e-11
-1.13619e-11
1.27698e-08
-1.72492e-07
-2.84113e-10
-8.24652e-07
-1.26954e-08
-8.25612e-07
-3.4069e-12
-1.72837e-07
-3.97555e-12
-2.44813e-13
-2.65495e-11
-2.39768e-12
-1.08864e-11
-2.14837e-11
2.0383e-11
-2.11809e-11
-2.3714e-11
9.56413e-12
-1.99481e-11
8.47719e-12
-1.07404e-11
1.2923e-08
-1.97298e-07
-5.00622e-10
-8.15386e-07
-1.47539e-08
-8.14617e-07
-5.69638e-13
-1.97472e-07
-6.3377e-13
-1.97371e-13
-2.37744e-12
-1.65733e-12
-7.36091e-12
-3.81227e-12
2.38545e-11
-1.61191e-11
-2.85557e-11
6.97409e-12
-4.96428e-12
5.78866e-12
-9.96666e-12
1.28159e-08
-2.16154e-07
-5.78337e-10
-8.03665e-07
-1.3925e-08
-8.02588e-07
-5.90552e-13
-2.16216e-07
-6.73207e-13
-1.14031e-13
-4.32018e-12
-5.9299e-13
-3.84892e-12
-2.12693e-11
1.17597e-11
-1.1629e-12
-4.16081e-11
2.874e-12
-1.28112e-12
2.15649e-12
-9.59632e-12
1.42015e-08
-2.28651e-07
-1.12825e-09
-7.87753e-07
-1.50706e-08
-7.88121e-07
-1.4205e-13
-2.28819e-07
-1.6347e-13
-9.29213e-14
-3.57951e-13
-3.93571e-14
-2.23503e-12
-7.49482e-13
5.47827e-12
4.03592e-13
-1.5127e-11
2.04653e-12
-3.19084e-13
1.57288e-12
-9.44392e-12
1.66885e-08
-2.36569e-07
3.81928e-10
-7.69366e-07
-1.4405e-08
-7.72037e-07
-1.49324e-14
-2.36381e-07
-1.63885e-14
-9.13008e-14
-3.14368e-14
-2.5153e-14
-5.23869e-15
-3.91257e-13
5.37145e-13
2.10102e-13
-3.3895e-13
2.30282e-12
2.57032e-13
1.7618e-12
-9.25007e-12
1.90416e-08
-2.43891e-07
1.77565e-09
-7.50041e-07
-1.55194e-08
-7.53032e-07
-7.45235e-14
-2.42748e-07
-2.49646e-14
-1.41328e-13
-6.9743e-15
-4.33084e-14
-4.95024e-15
-7.42784e-15
2.23273e-13
1.18517e-13
-1.32081e-13
2.58623e-12
1.47385e-12
2.36379e-12
-9.34889e-12
1.62413e-08
-2.54941e-07
-1.8111e-09
-7.31654e-07
-2.25788e-08
-7.30604e-07
-4.96604e-13
-2.55387e-07
-4.12657e-13
-2.25111e-13
-1.3599e-14
-2.95091e-13
-8.54789e-15
-1.01599e-14
5.95565e-14
1.30993e-13
-7.26134e-14
6.11633e-12
7.49795e-12
7.26341e-12
-1.07821e-11
2.13378e-08
-2.78923e-07
-3.44037e-10
-7.10326e-07
-2.41891e-08
-7.06973e-07
-1.11108e-12
-2.79086e-07
-9.87316e-13
-3.47986e-13
-1.89941e-13
-1.16206e-12
-1.90457e-13
-7.96861e-15
1.99616e-11
4.54555e-11
-7.84656e-14
2.29672e-11
2.15625e-11
2.46236e-11
-1.25886e-11
2.7394e-08
-3.10586e-07
3.39721e-09
-6.86689e-07
-1.72886e-08
-6.86622e-07
-1.52407e-12
-3.06822e-07
-1.06133e-12
-8.16328e-13
-6.40741e-13
-1.75375e-12
-1.18058e-12
-1.9959e-13
3.50863e-11
5.98454e-11
-4.60516e-11
3.34208e-11
3.37112e-11
3.33793e-11
-1.26782e-11
1.9563e-08
-3.42422e-07
-6.19351e-09
-6.61915e-07
-2.94324e-08
-6.62016e-07
-3.92103e-12
-3.38874e-07
-7.2516e-13
-4.0073e-12
-1.47743e-12
-5.85639e-13
-1.82232e-12
-7.62886e-13
3.45446e-11
5.77679e-11
-2.89076e-11
1.52384e-11
1.5413e-11
2.32045e-11
-2.60054e-11
1.38508e-08
-3.67359e-07
-9.32821e-09
-6.38972e-07
-3.43466e-08
-6.36504e-07
-2.59494e-11
-3.6676e-07
-5.43371e-13
-2.936e-11
-8.60984e-13
-1.0566e-13
-1.29153e-12
-1.30903e-12
-2.62681e-12
2.77231e-13
1.73753e-11
2.82651e-12
6.69665e-13
1.91959e-10
-2.19699e-10
2.69107e-08
-3.91811e-07
-1.60215e-10
-6.11842e-07
-2.73751e-08
-6.0917e-07
-2.20529e-10
-3.91748e-07
-2.74814e-13
-2.49631e-10
-2.99359e-13
-1.02158e-13
-2.13118e-13
-7.54864e-13
-3.29429e-16
3.40024e-15
2.52312e-13
6.68859e-13
-9.00781e-16
1.71553e-09
-1.9346e-09
2.7131e-08
-4.15458e-07
1.80488e-10
-5.84963e-07
-2.59191e-08
-5.82977e-07
-1.79759e-09
-4.13212e-07
-4.21955e-14
-2.0472e-09
-5.42934e-14
-1.11081e-13
-9.66331e-14
-1.21981e-13
-1.19299e-16
1.70576e-16
2.77204e-15
5.10633e-16
-2.14536e-15
1.02444e-08
-1.2179e-08
3.14239e-08
-4.37738e-07
-1.41502e-09
-5.52114e-07
-3.15109e-08
-5.52922e-07
-1.01028e-08
-4.35101e-07
-5.75412e-14
-1.21499e-08
-5.06589e-14
-1.38995e-13
-1.92856e-13
0
9.72334e-16
6.59603e-16
-3.60893e-16
5.12753e-14
-5.17199e-14
2.09386e-08
-3.45094e-08
3.0469e-08
-4.49509e-07
-5.80347e-10
-5.21072e-07
-2.994e-08
-5.23532e-07
-1.93761e-08
-4.47626e-07
-6.02266e-13
-3.23624e-08
-2.80237e-13
-4.82045e-13
-1.26125e-13
-2.9094e-13
1.53308e-14
5.93645e-16
-1.1089e-15
1.4701e-12
-1.48803e-12
3.12699e-08
-6.56599e-08
2.70322e-08
-4.45774e-07
-6.00693e-09
-4.87973e-07
-4.10509e-08
-4.88511e-07
-3.83765e-08
-4.51146e-07
-7.98782e-12
-7.24229e-08
-2.17819e-13
-8.24246e-12
-9.92729e-16
-2.23921e-13
3.05845e-15
8.23276e-17
-1.37911e-15
3.504e-11
-3.65055e-11
4.20342e-08
-1.00772e-07
2.6537e-08
-4.27402e-07
-7.82132e-09
-4.53576e-07
-4.52677e-08
-4.51071e-07
-5.7097e-08
-4.41147e-07
-1.43693e-10
-1.34537e-07
-5.08818e-14
-1.51883e-10
-5.18385e-14
-4.64946e-17
1.57992e-15
1.95281e-17
-1.5178e-15
8.56113e-10
-8.92617e-10
7.91463e-08
-1.69771e-07
5.41937e-08
-4.0043e-07
9.97682e-09
-4.09358e-07
-3.04689e-08
-4.10624e-07
-7.0571e-08
-4.01537e-07
-2.43821e-09
-2.06303e-07
-2.27403e-12
-2.58775e-09
-2.3243e-12
-1.52926e-15
2.81926e-17
5.99285e-19
-1.70786e-17
1.23495e-08
-1.32421e-08
8.99801e-08
-2.44343e-07
4.93529e-08
-3.59803e-07
5.9844e-09
-3.65988e-07
-3.98654e-08
-3.64776e-07
-8.47498e-08
-3.56651e-07
-2.17645e-08
-2.69737e-07
-7.17182e-11
-2.42791e-08
-7.40406e-11
-1.8632e-15
6.64439e-10
-6.64439e-10
-2.98848e-16
5.33515e-08
-6.45276e-08
1.01048e-07
-2.89997e-07
5.27098e-08
-3.11465e-07
-3.37227e-10
-3.12941e-07
-5.1282e-08
-3.13831e-07
-9.4138e-08
-3.13796e-07
-7.37319e-08
-2.92238e-07
-2.26824e-09
-9.77052e-08
-2.34228e-09
-5.7205e-16
2.81996e-08
-2.88641e-08
-6.7271e-17
1.48182e-07
-1.85266e-07
1.12949e-07
-2.55112e-07
6.71748e-08
-2.65691e-07
1.8297e-08
-2.64064e-07
-3.44657e-08
-2.61069e-07
-9.03213e-08
-2.57941e-07
-1.32256e-07