/*--------------------------------*- C++ -*----------------------------------*\
  =========                 |
  \\      /  F ield         | OpenFOAM: The Open Source CFD Toolbox
   \\    /   O peration     | Website:  https://openfoam.org
    \\  /    A nd           | Version:  8
     \\/     M anipulation  |
\*---------------------------------------------------------------------------*/
FoamFile
{
    version     2.0;
    format      ascii;
    class       surfaceScalarField;
    location    "1.75";
    object      phi;
}
// * * * * * * * * * * * * * * * * * * * * * * * * * * * * * * * * * * * * * //

dimensions      [0 3 -1 0 0 0 0];

internalField   nonuniform List<scalar> 
18095
(
1.97109e-08
-1.7204e-07
1.52329e-07
2.3203e-08
-1.9804e-07
1.94548e-07
1.98899e-08
-2.05994e-07
2.09307e-07
1.10923e-08
-2.10778e-07
2.19576e-07
4.55886e-10
-2.1336e-07
2.23996e-07
-1.05819e-08
-2.13427e-07
2.24465e-07
-1.98651e-08
-2.10466e-07
2.19749e-07
-2.31524e-08
-2.05821e-07
2.09108e-07
-1.96853e-08
-1.98038e-07
1.94571e-07
-1.72037e-07
1.52352e-07
1.55286e-08
-1.87568e-07
1.58058e-08
-1.98317e-07
1.20444e-08
-2.02232e-07
6.29052e-09
-2.05024e-07
-7.50727e-11
-2.06994e-07
-6.6105e-09
-2.06891e-07
-1.2066e-08
-2.0501e-07
-1.57767e-08
-2.0211e-07
-1.55078e-08
-1.98307e-07
-1.87545e-07
6.82672e-09
-1.94395e-07
8.32657e-09
-1.99817e-07
7.22463e-09
-2.0113e-07
4.03312e-09
-2.01833e-07
-1.82029e-10
-2.02779e-07
-4.29356e-09
-2.0278e-07
-7.18802e-09
-2.02116e-07
-8.29188e-09
-2.01006e-07
-6.83029e-09
-1.99769e-07
-1.94375e-07
4.52738e-09
-1.98922e-07
4.65993e-09
-1.9995e-07
3.62036e-09
-2.00091e-07
2.20751e-09
-2.0042e-07
2.35253e-10
-2.00807e-07
-1.8371e-09
-2.00707e-07
-3.61057e-09
-2.00342e-07
-4.70378e-09
-1.99913e-07
-4.54431e-09
-1.99928e-07
-1.98919e-07
1.07751e-09
1.12788e-09
1.03698e-09
6.17194e-10
-1.89642e-10
-8.97118e-10
-1.23927e-09
-1.15225e-09
-1.08058e-09
-2.68754e-08
-1.96504e-07
2.23379e-07
-2.91765e-08
-1.98864e-07
2.01165e-07
-2.34375e-08
-2.01594e-07
1.95855e-07
-1.17938e-08
-2.01155e-07
1.89511e-07
2.09429e-09
-2.01812e-07
1.87924e-07
1.55325e-08
-2.01912e-07
1.88473e-07
2.57792e-08
-2.01293e-07
1.91047e-07
3.00997e-08
-2.01207e-07
1.96887e-07
2.73863e-08
-1.98933e-07
2.01646e-07
-1.96726e-07
2.24112e-07
-9.60817e-09
-1.86896e-07
-1.50539e-08
-1.93418e-07
-1.37549e-08
-2.02893e-07
-5.94812e-09
-2.08962e-07
1.0512e-09
-2.08811e-07
7.57322e-09
-2.08434e-07
1.41493e-08
-2.07869e-07
1.54907e-08
-2.02549e-07
9.84971e-09
-1.93292e-07
-1.86876e-07
-1.06166e-08
-1.76279e-07
-8.35494e-09
-1.9568e-07
-6.04904e-09
-2.05199e-07
-4.48904e-09
-2.10522e-07
-3.95876e-10
-2.12904e-07
3.89391e-09
-2.12724e-07
6.08642e-09
-2.10062e-07
8.50948e-09
-2.04972e-07
1.06746e-08
-1.95457e-07
-1.76202e-07
-6.7527e-09
-1.69527e-07
-9.19715e-09
-1.93235e-07
-9.1975e-09
-2.05199e-07
-4.78388e-09
-2.14935e-07
-1.03102e-09
-2.16657e-07
3.09742e-09
-2.16852e-07
8.22715e-09
-2.15192e-07
8.60803e-09
-2.05353e-07
6.55404e-09
-1.93403e-07
-1.69648e-07
-1.71976e-08
-1.5885e-08
-1.17768e-08
-7.13631e-09
2.02599e-10
7.81526e-09
1.23724e-08
1.61278e-08
1.7296e-08
3.71868e-08
-1.55924e-07
1.18737e-07
4.36481e-08
-1.97639e-07
1.91178e-07
3.79902e-08
-2.09846e-07
2.15504e-07
2.563e-08
-2.15357e-07
2.27717e-07
8.78941e-09
-2.16313e-07
2.33154e-07
-7.65995e-09
-2.17122e-07
2.33572e-07
-2.18853e-08
-2.16021e-07
2.30247e-07
-3.15933e-08
-2.11113e-07
2.20821e-07
-2.67015e-08
-2.00421e-07
1.95529e-07
-1.60243e-07
1.33541e-07
1.75359e-08
-1.7346e-07
2.02856e-08
-2.00389e-07
1.69882e-08
-2.06549e-07
1.05217e-08
-2.08891e-07
2.21212e-09
-2.08003e-07
-6.96269e-09
-2.07948e-07
-1.45298e-08
-2.08454e-07
-1.76954e-08
-2.07947e-07
-1.52378e-08
-2.02878e-07
-1.75481e-07
1.01063e-08
-1.83566e-07
1.01658e-08
-2.00449e-07
8.59095e-09
-2.04974e-07
3.67425e-09
-2.03974e-07
-1.86433e-10
-2.04143e-07
-3.41902e-09
-2.04715e-07
-6.73263e-09
-2.05141e-07
-8.41079e-09
-2.06269e-07
-9.48412e-09
-2.01805e-07
-1.84965e-07
7.56056e-09
-1.91127e-07
6.39423e-09
-1.99282e-07
7.05467e-09
-2.05634e-07
2.96698e-09
-1.99886e-07
1.70279e-09
-2.02879e-07
1.45092e-10
-2.03157e-07
-5.29929e-09
-1.99696e-07
-5.10653e-09
-2.06462e-07
-6.95259e-09
-1.99959e-07
-1.91917e-07
3.22528e-08
3.41354e-08
2.43561e-08
1.39808e-08
-9.73875e-10
-1.56578e-08
-2.43075e-08
-3.38825e-08
-3.21951e-08
-1.19415e-06
-1.79599e-09
1.19595e-06
-1.11333e-06
-8.08171e-08
-9.79582e-07
-1.33752e-07
-8.17216e-07
-1.62366e-07
-6.46546e-07
-1.7067e-07
-4.58888e-07
-1.87658e-07
-3.19409e-07
-1.39479e-07
-2.17213e-07
-1.02196e-07
-8.43637e-08
-1.3285e-07
-1.67834e-07
8.34703e-08
-1.28806e-06
-8.37882e-08
1.37005e-06
-1.14988e-06
-2.19001e-07
-9.94969e-07
-2.88662e-07
-8.42091e-07
-3.15243e-07
-6.90748e-07
-3.22013e-07
-5.61516e-07
-3.1689e-07
-4.41837e-07
-2.59159e-07
-3.34469e-07
-2.09563e-07
-1.90726e-07
-2.76593e-07
-3.07567e-07
-5.09926e-08
-9.35925e-07
-1.87085e-07
1.03922e-06
-8.09106e-07
-3.45821e-07
-7.21047e-07
-3.7672e-07
-6.72143e-07
-3.64148e-07
-6.34358e-07
-3.59798e-07
-6.19502e-07
-3.31745e-07
-5.84378e-07
-2.94282e-07
-4.96295e-07
-2.97646e-07
-3.4693e-07
-4.25959e-07
-4.66144e-07
-1.88353e-07
-4.70576e-07
-2.03621e-07
4.87111e-07
-4.43723e-07
-3.72673e-07
-4.39612e-07
-3.80831e-07
-4.82332e-07
-3.21428e-07
-5.14888e-07
-3.27243e-07
-5.59758e-07
-2.86875e-07
-6.29807e-07
-2.24233e-07
-5.73109e-07
-3.54345e-07
-4.83131e-07
-5.15937e-07
-5.72839e-07
-3.76436e-07
-5.07749e-07
1.95283e-08
2.846e-07
-7.54619e-07
-1.25803e-07
-8.9833e-07
-2.3712e-07
-7.65464e-07
-4.54294e-07
-5.00465e-07
-5.92242e-07
-2.84127e-07
-5.03213e-07
-2.26886e-07
-2.81474e-07
-2.49471e-07
-3.31758e-07
-3.04568e-07
-4.6084e-07
-5.85662e-07
-2.91745e-07
-1.35737e-06
3.85101e-07
9.91799e-07
-1.57474e-06
9.15644e-08
-1.41716e-06
-3.94692e-07
-1.05038e-06
-8.21076e-07
-5.79358e-07
-1.06327e-06
-2.71443e-08
-1.05543e-06
4.54855e-07
-7.63473e-07
7.0209e-07
-5.78994e-07
6.27154e-07
-3.85903e-07
-3.62372e-07
4.03863e-07
-1.17963e-06
-3.21275e-08
1.59685e-06
-7.88025e-07
-3.00034e-07
-3.03711e-07
-8.79006e-07
4.75932e-09
-1.12955e-06
1.69842e-07
-1.22835e-06
2.82392e-07
-1.16798e-06
5.51383e-07
-1.03246e-06
8.4104e-07
-8.68652e-07
1.04141e-06
-5.86274e-07
-3.18837e-07
9.97877e-07
-2.70762e-07
-4.91921e-07
7.30555e-07
6.11232e-08
-6.31922e-07
2.77154e-07
-1.09504e-06
4.21542e-07
-1.27393e-06
4.76054e-07
-1.28286e-06
5.30391e-07
-1.22231e-06
5.80371e-07
-1.08244e-06
6.45542e-07
-9.33823e-07
7.7334e-07
-7.14072e-07
-4.46546e-07
9.01048e-07
3.24652e-07
-7.32361e-07
-8.42122e-08
4.87114e-07
-7.94384e-07
5.34637e-07
-1.14256e-06
5.78353e-07
-1.31765e-06
6.02088e-07
-1.3066e-06
6.15422e-07
-1.23565e-06
6.07339e-07
-1.07436e-06
5.71244e-07
-8.97728e-07
6.0852e-07
-7.51347e-07
-5.36256e-07
6.98229e-07
4.69388e-07
-7.65164e-07
-4.36585e-07
5.51039e-07
-8.76035e-07
6.16797e-07
-1.20832e-06
6.38365e-07
-1.33922e-06
6.446e-07
-1.31283e-06
6.10495e-07
-1.20154e-06
5.53927e-07
-1.01779e-06
5.71618e-07
-9.1542e-07
5.72274e-07
-7.52003e-07
-6.42422e-07
6.78439e-07
4.93903e-07
-7.99528e-07
-4.59539e-07
5.65008e-07
-9.47141e-07
6.38721e-07
-1.28203e-06
6.33901e-07
-1.3344e-06
5.91243e-07
-1.27017e-06
4.73984e-07
-1.08428e-06
4.16006e-07
-9.59815e-07
3.8597e-07
-8.85384e-07
4.7297e-07
-8.39002e-07
-7.64246e-07
5.94794e-07
4.71744e-07
-8.45594e-07
-4.25678e-07
5.46986e-07
-1.02238e-06
5.59941e-07
-1.29498e-06
4.87041e-07
-1.2615e-06
2.94862e-07
-1.07799e-06
1.0896e-07
-8.98381e-07
4.58157e-08
-8.9667e-07
7.90538e-08
-9.18623e-07
2.99218e-08
-7.8987e-07
-5.18554e-07
-2.15771e-07
3.358e-07
-8.88049e-07
-2.93346e-07
3.48375e-07
-1.03496e-06
2.78178e-07
-1.22479e-06
7.82589e-08
-1.06158e-06
-2.02485e-07
-7.9725e-07
-3.75065e-07
-7.25801e-07
-4.82181e-07
-7.89555e-07
-5.79976e-07
-8.20829e-07
-7.50202e-07
-6.19644e-07
-3.27744e-07
-9.41012e-07
5.1774e-08
-9.51069e-07
1.12467e-08
9.71962e-08
-1.08038e-06
1.08796e-08
-1.13847e-06
-1.82874e-07
-8.67826e-07
-3.42015e-07
-6.38109e-07
-4.26041e-07
-6.41776e-07
-5.74304e-07
-6.41292e-07
-7.1048e-07
-6.84653e-07
-7.66916e-07
-5.63206e-07
-3.29396e-07
-7.65263e-07
-1.11539e-07
-1.01936e-06
1.79833e-07
-7.84698e-08
-1.11345e-06
-1.06907e-07
-1.11003e-06
-1.7284e-07
-8.01894e-07
-2.40986e-07
-5.69962e-07
-3.24476e-07
-5.58286e-07
-4.3681e-07
-5.28957e-07
-5.7926e-07
-5.42203e-07
-6.03075e-07
-5.39392e-07
-3.85931e-07
-5.46539e-07
-1.10806e-07
-1.0775e-06
1.6894e-07
-5.65799e-08
-1.16768e-06
-1.14063e-07
-1.05255e-06
-1.64959e-07
-7.50998e-07
-2.14941e-07
-5.1998e-07
-2.75383e-07
-4.97844e-07
-3.02069e-07
-5.02271e-07
-3.28097e-07
-5.16174e-07
-3.1313e-07
-5.54359e-07
-4.59984e-07
-2.39077e-07
-1.89635e-07
-1.1169e-06
2.29045e-07
-1.5075e-07
-1.20657e-06
-1.69676e-07
-1.03362e-06
-2.00031e-07
-7.20643e-07
-2.23085e-07
-4.96926e-07
-2.42439e-07
-4.78489e-07
-2.54188e-07
-4.90522e-07
-2.48094e-07
-5.22268e-07
-2.27166e-07
-5.75287e-07
-4.90339e-07
-1.96811e-07
-2.90644e-07
-1.09618e-06
2.69917e-07
-3.18628e-07
-1.17858e-06
-3.13372e-07
-1.03888e-06
-2.89174e-07
-7.44841e-07
-2.56507e-07
-5.29594e-07
-2.45427e-07
-4.89569e-07
-2.42295e-07
-4.93654e-07
-2.40968e-07
-5.23595e-07
-2.73362e-07
-5.42892e-07
-4.39179e-07
-3.24521e-07
-5.46443e-07
-9.46535e-07
3.968e-07
-6.1455e-07
-1.11048e-06
-5.64218e-07
-1.08921e-06
-4.18665e-07
-8.90395e-07
-2.96131e-07
-6.52128e-07
-2.44856e-07
-5.40843e-07
-2.34607e-07
-5.03904e-07
-2.6475e-07
-4.93452e-07
-3.73393e-07
-4.34249e-07
-3.69725e-07
-4.42847e-07
-6.66407e-07
-6.70387e-07
3.9026e-07
-7.73094e-07
-1.00379e-06
-7.73924e-07
-1.08838e-06
-5.7868e-07
-1.08564e-06
-3.05339e-07
-9.25469e-07
-1.73357e-07
-6.72825e-07
-1.42532e-07
-5.34729e-07
-1.66192e-07
-4.69792e-07
-2.14722e-07
-3.85719e-07
-3.40601e-07
-2.43847e-07
-4.38037e-07
-3.17867e-07
8.5517e-08
-7.09685e-07
-7.32142e-07
-7.87011e-07
-1.01105e-06
-6.58047e-07
-1.2146e-06
-3.50856e-07
-1.23266e-06
-4.6751e-08
-9.76929e-07
3.33141e-08
-6.14794e-07
4.76669e-08
-4.84145e-07
7.1314e-08
-4.09365e-07
-3.03522e-07
3.42358e-08
1.19667e-07
-2.21463e-07
-2.1607e-07
-1.55366e-07
-4.57108e-07
-4.40445e-07
-7.25971e-07
-4.62586e-07
-1.19246e-06
-3.09055e-07
-1.38619e-06
3.59037e-08
-1.32189e-06
2.65032e-07
-8.43922e-07
2.50859e-07
-4.69971e-07
2.08361e-07
-3.66868e-07
-2.80722e-07
1.85561e-07
3.11854e-07
-2.20292e-07
-3.13025e-07
1.69978e-07
-3.15233e-07
-6.6003e-08
-4.89991e-07
-1.02989e-07
-1.15548e-06
-2.61713e-08
-1.46301e-06
1.37712e-07
-1.48577e-06
4.37644e-07
-1.14385e-06
4.27325e-07
-4.59652e-07
2.90873e-07
-2.30415e-07
-1.90017e-07
2.00168e-07
2.57553e-07
-1.81239e-07
-2.96605e-07
6.62257e-09
-6.43011e-08
-7.20512e-08
-4.11317e-07
1.00395e-08
-1.23757e-06
1.6054e-07
-1.61351e-06
2.92548e-07
-1.61778e-06
4.91719e-07
-1.34303e-06
4.5657e-07
-4.24502e-07
3.25949e-07
-9.97946e-08
-4.35559e-08
1.79488e-07
1.68876e-07
-3.60651e-09
-3.46508e-07
6.92667e-11
1.04505e-07
-3.80355e-08
-3.73213e-07
-6.38701e-08
-1.21173e-06
2.39371e-08
-1.70132e-06
1.36075e-07
-1.72992e-06
2.6229e-07
-1.46924e-06
2.89206e-07
-4.51419e-07
3.08357e-07
-1.18944e-07
3.33479e-08
2.31453e-07
2.20317e-07
2.52845e-07
-4.76768e-07
1.00233e-07
2.2459e-07
-1.73755e-07
-9.92245e-08
-1.69214e-07
-1.21627e-06
-9.87762e-08
-1.77175e-06
-7.85548e-08
-1.75014e-06
-1.78799e-08
-1.52991e-06
1.94924e-07
-6.64224e-07
3.3438e-07
-2.58401e-07
-3.36699e-09
3.71095e-07
3.75595e-07
3.74238e-07
-4.96988e-07
4.53645e-07
1.46541e-07
3.26222e-07
2.81984e-08
3.50878e-08
-9.25138e-07
5.92496e-09
-1.74259e-06
-1.21897e-09
-1.74299e-06
-1.36576e-07
-1.39456e-06
-1.2136e-07
-6.79438e-07
2.66946e-07
-6.46708e-07
-6.62249e-08
3.29803e-07
2.91607e-07
4.12786e-07
-3.30156e-07
7.04003e-07
-2.65853e-07
6.18902e-07
1.133e-07
1.25013e-07
-4.31253e-07
7.67377e-08
-1.69431e-06
3.365e-08
-1.69991e-06
-8.76163e-08
-1.27329e-06
9.4462e-08
-8.61516e-07
1.53996e-07
-7.06243e-07
-2.32577e-07
3.20348e-07
1.41002e-07
3.43804e-07
-7.20171e-08
-1.99427e-07
7.4575e-08
-5.79555e-08
-2.81753e-08
1.1707e-07
-6.06275e-07
5.81497e-08
-1.63539e-06
-4.35241e-08
-1.59823e-06
-3.14006e-07
-1.00281e-06
-3.28073e-07
-8.4745e-07
-3.18891e-07
-7.15425e-07
-5.56503e-07
5.03577e-09
-1.65646e-07
4.53305e-07
5.61426e-08
-1.82773e-07
9.17045e-08
3.94902e-08
-2.50417e-07
1.50735e-07
-7.17543e-07
1.13836e-09
-1.48579e-06
-1.42594e-07
-1.4545e-06
-4.42591e-07
-7.02814e-07
-6.39563e-07
-6.50478e-07
-7.56029e-07
-5.98959e-07
-6.51691e-07
-6.60841e-07
-3.06017e-07
5.78907e-07
1.80417e-07
-3.58163e-07
1.43838e-07
-3.5932e-07
-2.49258e-07
-8.55685e-08
-9.91292e-07
-1.16771e-07
-1.45459e-06
-1.3567e-07
-1.4356e-06
-2.6971e-07
-5.68774e-07
-4.93147e-07
-4.2704e-07
-6.55054e-07
-4.37053e-07
-5.91054e-07
-7.15692e-07
3.68831e-08
4.92086e-07
4.99395e-08
-7.3432e-08
2.54154e-07
-2.83083e-07
-3.96051e-08
-1.8599e-07
-1.08839e-06
-1.44466e-07
-1.49611e-06
-1.05029e-07
-1.47504e-06
-1.21876e-07
-5.51928e-07
-2.28953e-07
-3.19961e-07
-3.49774e-07
-3.16232e-07
-3.20713e-07
-6.20113e-07
2.29265e-07
4.45154e-07
-1.82335e-07
2.03871e-07
2.79553e-07
-5.8824e-08
2.23087e-07
-4.93673e-08
-1.09784e-06
-5.89539e-08
-1.48653e-06
-5.37545e-08
-1.48024e-06
4.7152e-08
-6.52835e-07
4.77938e-08
-3.20602e-07
8.33871e-08
-3.51825e-07
-2.96921e-07
5.95959e-08
-1.79991e-08
5.53924e-07
-9.07702e-08
-1.56209e-07
4.17768e-07
-7.32273e-08
1.40109e-07
-6.22193e-08
-1.10885e-06
-4.52704e-08
-1.50347e-06
-2.38457e-08
-1.50166e-06
2.31474e-07
-9.08156e-07
2.53093e-07
-3.42222e-07
2.64318e-07
-3.6305e-07
-3.40222e-07
3.07619e-07
-2.12214e-07
6.41288e-07
1.24855e-07
-1.84443e-07
3.89997e-07
-2.16074e-08
-2.27332e-08
-6.21179e-08
-1.06834e-06
-4.97657e-08
-1.51583e-06
-3.76483e-08
-1.51378e-06
2.81624e-07
-1.22743e-06
2.22583e-07
-2.83181e-07
2.4104e-07
-3.81508e-07
-3.21484e-07
2.22302e-07
-4.42944e-07
5.34043e-07
5.50189e-07
-1.33064e-07
8.01214e-08
5.64674e-08
-2.12265e-07
-1.24235e-08
-9.99448e-07
-4.62068e-09
-1.52363e-06
-1.02116e-08
-1.50819e-06
2.19204e-07
-1.45684e-06
1.58293e-07
-2.22271e-07
2.24045e-08
-2.45619e-07
-2.4358e-07
-5.54998e-08
-1.69424e-07
3.36791e-07
3.66676e-07
5.7597e-09
-9.50506e-08
-4.21405e-08
-1.64365e-07
6.08965e-08
-1.10249e-06
5.05552e-08
-1.51329e-06
6.48979e-08
-1.52253e-06
1.02325e-07
-1.49427e-06
7.58698e-08
-1.95816e-07
-1.44884e-08
-1.5526e-07
-1.88125e-07
-6.9943e-08
2.9575e-08
2.26533e-07
8.06835e-08
-4.66605e-08
-1.88146e-08
-1.74766e-07
-3.62585e-08
8.36739e-09
-1.28562e-06
1.08445e-08
-1.51576e-06
4.9145e-09
-1.5166e-06
1.32814e-08
-1.50264e-06
7.46057e-08
-2.57139e-07
1.28532e-07
-2.09187e-07
-2.65332e-07
2.05737e-07
-7.5143e-08
1.24845e-07
1.76829e-07
-1.12674e-07
1.87188e-08
-1.92019e-07
4.3086e-08
1.20724e-08
-1.48971e-06
8.76251e-09
-1.51245e-06
7.89591e-09
-1.51573e-06
-1.36575e-08
-1.48108e-06
6.06316e-08
-3.31428e-07
6.93357e-08
-2.17891e-07
-3.28221e-07
1.32226e-07
2.7439e-07
5.49393e-08
-2.04483e-07
1.79083e-07
1.14028e-07
1.12147e-08
2.10954e-07
-6.77931e-09
-1.47172e-06
-7.76258e-09
-1.51147e-06
-1.70981e-08
-1.5064e-06
-1.12755e-08
-1.4869e-06
1.74714e-07
-5.17419e-07
1.91372e-07
-2.34549e-07
-3.13064e-07
1.76215e-07
1.04172e-07
5.50515e-08
-1.04284e-07
5.70399e-09
2.12496e-07
-1.05394e-08
2.27197e-07
7.56512e-09
-1.48982e-06
4.86009e-09
-1.50877e-06
-3.91534e-09
-1.49762e-06
-1.11656e-08
-1.47965e-06
2.26174e-07
-7.54758e-07
2.86061e-07
-2.94437e-07
-3.11806e-07
2.84803e-07
-3.81787e-07
2.23972e-08
4.14441e-07
-3.41346e-07
1.72055e-07
7.79218e-08
-1.92075e-07
6.67994e-08
-1.4787e-06
5.42492e-08
-1.49622e-06
5.82224e-08
-1.5016e-06
5.45585e-08
-1.47599e-06
1.76497e-07
-8.76697e-07
2.66285e-07
-3.84226e-07
-2.79795e-07
2.34277e-07
-7.60815e-07
7.13077e-08
7.11905e-07
-4.74581e-07
-1.14164e-07
5.64295e-08
-7.23079e-07
4.71395e-08
-1.46941e-06
4.24417e-08
-1.49152e-06
3.51542e-08
-1.49431e-06
3.092e-08
-1.47175e-06
2.75529e-08
-8.73331e-07
2.96045e-08
-3.8628e-07
-3.13402e-07
6.32107e-08
-2.44671e-07
9.59073e-08
2.20068e-07
-8.03238e-08
-2.78529e-07
3.95403e-08
-8.42958e-07
3.78709e-08
-1.46774e-06
2.47796e-08
-1.47843e-06
1.78159e-08
-1.48734e-06
9.79923e-09
-1.46374e-06
-1.87774e-08
-8.44754e-07
7.30855e-09
-4.12366e-07
-3.73138e-07
6.70471e-08
3.10287e-08
6.96042e-08
-4.725e-09
4.55462e-08
-2.93031e-07
1.49361e-08
-8.12347e-07
-9.66035e-11
-1.45271e-06
-8.41262e-09
-1.47011e-06
-2.80262e-08
-1.46773e-06
-4.37793e-08
-1.44798e-06
-1.07832e-07
-7.80704e-07
-1.12626e-07
-4.07572e-07
-3.60827e-07
-1.24941e-07
1.38889e-07
-2.35408e-08
-4.57448e-08
1.36975e-07
-2.91112e-07
6.87034e-08
-7.44078e-07
2.02414e-08
-1.40425e-06
-2.40903e-10
-1.44963e-06
-1.6719e-08
-1.45125e-06
-4.70557e-08
-1.41765e-06
-1.31442e-07
-6.96316e-07
-1.6938e-07
-3.69634e-07
-3.2724e-07
-2.02966e-07
1.34536e-07
-1.03189e-07
-5.48881e-08
1.38169e-07
-2.94752e-07
6.44868e-08
-6.70402e-07
1.48143e-08
-1.35457e-06
-3.97697e-09
-1.43084e-06
-2.51869e-08
-1.43004e-06
-7.22607e-08
-1.37058e-06
-1.43718e-07
-6.24858e-07
-1.89694e-07
-3.23657e-07
-2.67614e-07
-2.49323e-07
9.00083e-08
-1.44493e-07
-4.87026e-08
9.90413e-08
-3.03793e-07
3.82091e-08
-6.09566e-07
2.50846e-08
-1.34145e-06
1.03083e-09
-1.40679e-06
-2.2569e-08
-1.40644e-06
-6.31381e-08
-1.33001e-06
-1.21765e-07
-5.66232e-07
-1.5567e-07
-2.89752e-07
-2.07509e-07
-2.15775e-07
8.9171e-08
-2.02881e-07
-3.07836e-08
9.12742e-08
-3.05897e-07
4.63822e-08
-5.64676e-07
2.97117e-08
-1.32478e-06
9.9131e-09
-1.38699e-06
-1.36163e-08
-1.38291e-06
-3.79473e-08
-1.30568e-06
-1.1193e-07
-4.92248e-07
-1.71678e-07
-2.30004e-07
-1.67272e-07
-2.11913e-07
9.40087e-08
-2.72581e-07
-2.43084e-08
1.29542e-07
-3.41423e-07
7.18924e-08
-5.07029e-07
3.23071e-08
-1.28519e-06
7.24629e-09
-1.36192e-06
-9.02125e-09
-1.36665e-06
-2.90523e-08
-1.28564e-06
-8.36008e-08
-4.37698e-07
-1.63244e-07
-1.50362e-07
-1.24242e-07
-2.06274e-07
5.86986e-08
-3.39525e-07
8.2476e-09
6.1661e-08
-3.44388e-07
1.25574e-08
-4.57931e-07
9.05911e-09
-1.2817e-06
-6.97186e-09
-1.3459e-06
-3.00879e-08
-1.34353e-06
-2.49752e-08
-1.29075e-06
-2.60702e-09
-4.60065e-07
-3.03577e-08
-1.22613e-07
-1.14881e-07
-3.97181e-08
-3.02048e-08
-3.68005e-07
5.86858e-08
-3.56112e-08
-3.38975e-07
-3.72845e-09
-4.89809e-07
1.68626e-08
-1.30228e-06
1.40738e-10
-1.32917e-06
-1.33773e-08
-1.33001e-06
-3.92238e-09
-1.30021e-06
8.70167e-09
-4.7269e-07
-1.19007e-08
-1.02009e-07
-9.33162e-08
-3.3466e-08
-6.94272e-08
-3.82859e-07
8.42789e-08
-7.09304e-08
-3.37477e-07
-1.9772e-10
-5.60549e-07
1.23999e-08
-1.31488e-06
-6.53191e-11
-1.31671e-06
-1.51669e-08
-1.31491e-06
8.56342e-10
-1.31624e-06
6.22623e-08
-5.34098e-07
5.96689e-08
-9.94143e-08
-6.96263e-08
3.59795e-08
-1.1684e-07
-3.65097e-07
9.90809e-08
-7.40021e-08
-3.80312e-07
9.96414e-09
-6.44507e-07
9.4215e-09
-1.31434e-06
-2.25846e-09
-1.30503e-06
-1.26015e-08
-1.30457e-06
-1.88447e-08
-1.30999e-06
3.17107e-08
-5.84652e-07
2.6417e-08
-9.41203e-08
-4.99211e-08
6.71267e-09
-4.57212e-08
-3.26778e-07
7.40194e-09
-2.31948e-08
-4.02844e-07
9.97095e-09
-6.77673e-07
4.34452e-10
-1.3048e-06
-7.58298e-09
-1.29701e-06
-1.32281e-08
-1.29892e-06
-2.61784e-08
-1.29704e-06
1.58062e-08
-6.26635e-07
-1.92129e-08
-5.91057e-08
-1.52129e-08
-5.39224e-08
8.31251e-08
-3.17335e-07
-9.25726e-08
1.30448e-08
-3.3276e-07
1.57384e-09
-6.66195e-07
-1.20256e-08
-1.2912e-06
-1.09674e-08
-1.29807e-06
-1.95662e-08
-1.29032e-06
-2.79724e-08
-1.28863e-06
2.83203e-08
-6.82928e-07
5.20935e-09
-3.59966e-08
2.19582e-08
-3.19612e-08
1.38305e-07
-3.00339e-07
-1.55301e-07
2.23242e-08
-2.16779e-07
3.04495e-08
-6.74321e-07
1.99833e-08
-1.28073e-06
1.11299e-08
-1.28922e-06
1.26621e-08
-1.29186e-06
5.26438e-09
-1.28124e-06
2.84877e-08
-7.06153e-07
-7.62732e-09
1.18482e-10
5.42202e-08
-3.98882e-08
1.13463e-07
-2.69454e-07
-1.44345e-07
5.05519e-09
-1.08374e-07
7.82421e-09
-6.77084e-07
-1.85441e-09
-1.27105e-06
-8.2566e-09
-1.28281e-06
-1.86538e-08
-1.28146e-06
-2.8288e-08
-1.2716e-06
-1.26891e-08
-7.21751e-07
-1.10175e-08
-1.5501e-09
1.29757e-07
-8.6554e-08
-1.16579e-08
-1.64991e-07
-9.28047e-08
-1.65184e-08
-1.03517e-07
2.37468e-08
-7.17345e-07
1.01918e-08
-1.25749e-06
-2.63801e-09
-1.26998e-06
-1.54175e-08
-1.26868e-06
-3.19578e-08
-1.25506e-06
-1.72757e-08
-7.36432e-07
5.03666e-08
-6.91921e-08
1.63732e-07
1.63909e-08
-3.25683e-09
-8.54245e-08
-7.63085e-08
3.95916e-08
-1.46362e-07
3.55363e-08
-7.1329e-07
1.71509e-08
-1.23911e-06
1.81645e-10
-1.25302e-06
-1.66809e-08
-1.25182e-06
-3.45533e-08
-1.23719e-06
-4.43396e-08
-7.26646e-07
1.58643e-08
-1.29397e-07
1.36589e-07
4.30071e-08
7.18396e-08
-3.30613e-08
-1.24201e-07
8.98689e-08
-1.64394e-07
5.12116e-08
-6.74635e-07
2.4905e-08
-1.2128e-06
6.77359e-10
-1.22879e-06
-2.08347e-08
-1.2303e-06
-4.84313e-08
-1.20959e-06
-8.07158e-08
-6.94362e-07
-4.15376e-08
-1.68573e-07
9.4241e-08
8.12635e-10
1.29704e-07
2.58049e-08
-1.88571e-07
9.2727e-08
-1.27415e-07
3.79799e-08
-6.19881e-07
1.30942e-08
-1.18791e-06
-9.7883e-09
-1.2059e-06
-3.37619e-08
-1.20633e-06
-5.38425e-08
-1.18951e-06
-9.74626e-08
-6.50742e-07
-6.17212e-08
-2.04314e-07
1.68834e-08
1.56379e-08
8.2751e-08
7.84065e-08
-1.35353e-07
4.96488e-08
-9.43273e-08
8.30475e-09
-5.78546e-07
-1.1054e-08
-1.16855e-06
-3.03062e-08
-1.18665e-06
-5.71194e-08
-1.17952e-06
-6.20644e-08
-1.18456e-06
-8.68388e-08
-6.25966e-07
-4.88523e-08
-2.42301e-07
-5.35747e-08
2.1607e-08
3.61005e-08
7.59439e-08
-3.3638e-08
3.92553e-08
-9.74699e-08
2.53685e-08
-5.64658e-07
2.66196e-08
-1.16981e-06
-1.49029e-10
-1.15988e-06
-2.26947e-08
-1.15697e-06
-3.5091e-08
-1.17217e-06
-7.73306e-08
-5.83727e-07
-8.14208e-08
-2.38211e-07
-9.1301e-08
-4.36944e-08
-1.41807e-08
5.34859e-08
3.66377e-08
1.82174e-08
-1.29871e-07
2.3822e-08
-5.70259e-07
1.68896e-08
-1.16287e-06
-3.18616e-09
-1.13981e-06
-2.55146e-08
-1.13465e-06
-3.59313e-08
-1.16175e-06
-4.70349e-08
-5.72622e-07
-4.6852e-08
-2.38393e-07
-9.28247e-08
-4.53273e-08
-1.8096e-08
1.17582e-08
5.98231e-08
1.25813e-08
-1.60567e-07
3.88241e-08
-5.96504e-07
2.43671e-08
-1.14841e-06
2.65171e-09
-1.11809e-06
-1.3771e-08
-1.11822e-06
-2.93705e-08
-1.14615e-06
-2.28346e-08
-5.79157e-07
-1.02429e-07
-1.58798e-07
-6.75597e-08
-1.27694e-07
-1.52032e-08
-2.1228e-08
4.81894e-08
-2.7244e-09
-1.7304e-07
2.761e-08
-6.2684e-07
1.1213e-08
-1.13202e-06
-3.6783e-09
-1.1032e-06
-2.20508e-08
-1.09985e-06
-3.35736e-08
-1.13463e-06
1.00709e-08
-6.22801e-07
-8.57733e-08
-6.29541e-08
-1.61571e-08
-1.37177e-07
-2.34775e-08
-3.50699e-08
3.73194e-08
-1.0064e-08
-1.86445e-07
2.70613e-08
-6.63965e-07
9.90066e-09
-1.11486e-06
-3.69552e-09
-1.08961e-06
-1.75084e-08
-1.08604e-06
-4.1039e-08
-1.1111e-06
-3.58066e-08
-6.28034e-07
-1.21128e-07
2.23666e-08
-3.7528e-08
-9.97566e-08
-1.07257e-08
-4.93343e-08
2.49887e-08
1.40422e-09
-1.98577e-07
2.90006e-08
-6.91563e-07
1.20978e-08
-1.09796e-06
-2.33817e-09
-1.07517e-06
-1.46306e-08
-1.07374e-06
-2.96636e-08
-1.09607e-06
8.23526e-08
-7.40051e-07
2.07184e-07
-1.02465e-07
-6.37963e-08
2.33452e-07
1.58193e-08
-6.18485e-08
-3.3065e-09
1.56508e-08
-1.98416e-07
3.21273e-08
-7.08043e-07
1.48488e-08
-1.08068e-06
1.10187e-09
-1.06142e-06
-1.26893e-08
-1.05995e-06
-2.82073e-08
-1.08055e-06
1.05607e-08
-7.7882e-07
1.71627e-07
-2.63531e-07
-1.43293e-07
2.51124e-07
4.841e-08
-7.38115e-08
-3.64481e-08
3.72011e-08
-1.87207e-07
3.24214e-08
-7.03263e-07
1.58992e-08
-1.06416e-06
2.223e-10
-1.04575e-06
-1.50082e-08
-1.04472e-06
-3.21635e-08
-1.06339e-06
-2.98067e-08
-7.81176e-07
4.55993e-09
-2.97896e-07
-1.80357e-07
4.16242e-08
8.39179e-08
-7.53573e-08
-8.23728e-08
5.68191e-08
-1.60106e-07
3.57838e-08
-6.82228e-07
1.64871e-08
-1.04486e-06
-5.79786e-10
-1.02868e-06
-1.76242e-08
-1.02768e-06
-3.5057e-08
-1.04596e-06
-4.45726e-08
-7.7166e-07
-6.63819e-08
-2.76087e-07
-1.7391e-07
-7.28288e-08
3.30016e-08
-7.53765e-08
-3.2982e-08
4.25888e-08
-1.69692e-07
3.68953e-08
-6.76535e-07
1.86291e-08
-1.02659e-06
5.99821e-10
-1.01065e-06
-1.75318e-08
-1.00955e-06
-3.63423e-08
-1.02715e-06
-6.4347e-08
-7.43656e-07
-1.28673e-07
-2.11761e-07
-1.1041e-07
-1.92173e-07
3.24556e-08
-8.82565e-08
-1.95737e-08
4.8226e-08
-1.85455e-07
4.14988e-08
-6.69805e-07
2.33228e-08
-1.00842e-06
3.09679e-09
-9.90424e-07
-1.51852e-08
-9.91265e-07
-3.39751e-08
-1.00836e-06
-5.24909e-08
-7.2514e-07
-1.12541e-07
-1.51711e-07
-2.2152e-08
-2.00799e-07
6.31261e-08
-8.84405e-08
-6.294e-08
5.69858e-08
-1.79307e-07
4.07957e-08
-6.53612e-07
2.15841e-08
-9.89204e-07
1.57769e-09
-9.70417e-07
-1.87538e-08
-9.70934e-07
-3.75568e-08
-9.89555e-07
-4.74696e-08
-7.15227e-07
-7.07714e-08
-1.28409e-07
4.38497e-08
-1.36773e-07
5.68341e-08
-9.29523e-08
-5.23205e-08
4.79487e-08
-1.70422e-07
3.76122e-08
-6.43274e-07
1.9629e-08
-9.7122e-07
-1.09334e-09
-9.49695e-07
-2.22795e-08
-9.49747e-07
-4.02088e-08
-9.71626e-07
-4.10885e-08
-7.14346e-07
-1.78212e-08
-1.51676e-07
5.10108e-08
-2.49823e-08
5.98485e-08
-9.37293e-08
-5.90707e-08
4.68068e-08
-1.57384e-07
4.097e-08
-6.37436e-07
2.18565e-08
-9.52106e-07
1.18461e-10
-9.27957e-07
-2.09915e-08
-9.28637e-07
-3.95712e-08
-9.53047e-07
-3.9197e-08
-7.1472e-07
-4.0482e-09
-1.86825e-07
1.63919e-08
3.05705e-08
4.75112e-08
-8.52256e-08
-5.60153e-08
3.9665e-08
-1.4954e-07
4.038e-08
-6.38151e-07
2.06088e-08
-9.32335e-07
-2.13257e-09
-9.05216e-07
-2.52271e-08
-9.05543e-07
-4.49558e-08
-9.33318e-07
-6.09582e-08
-6.98718e-07
-7.10867e-08
-1.76696e-07
-3.87911e-08
-1.59026e-08
6.26245e-08
-8.01393e-08
-6.77109e-08
4.29851e-08
-1.299e-07
4.35724e-08
-6.38738e-07
2.25856e-08
-9.11349e-07
-4.04032e-11
-8.8259e-07
-2.17357e-08
-8.83848e-07
-4.28465e-08
-9.12207e-07
-5.82904e-08
-6.83274e-07
-9.78256e-08
-1.37159e-07
-5.71375e-08
-7.94774e-08
7.06664e-08
-6.94914e-08
-8.13149e-08
4.52343e-08
-1.04472e-07
4.38046e-08
-6.3731e-07
2.08025e-08
-8.88347e-07
-2.88792e-10
-8.61498e-07
-2.33678e-08
-8.60769e-07
-4.6062e-08
-8.89513e-07
-4.55789e-08
-6.83756e-07
-6.02181e-08
-1.22518e-07
-3.01461e-08
-8.72081e-08
9.16081e-08
-4.99537e-08
-1.11148e-07
5.27481e-08
-6.56158e-08
4.33766e-08
-6.2794e-07
1.96184e-08
-8.64589e-07
-1.44811e-10
-8.41735e-07
-2.03249e-08
-8.40588e-07
-4.39388e-08
-8.65899e-07
-5.1557e-08
-6.76136e-07
-6.79867e-08
-1.06086e-07
-1.97347e-08
-7.83973e-08
8.79255e-08
-4.04162e-09
-1.33839e-07
5.91171e-08
-3.68073e-08
4.47415e-08
-6.13563e-07
2.08668e-08
-8.40714e-07
-7.83233e-10
-8.20085e-07
-2.12745e-08
-8.20097e-07
-4.52833e-08
-8.4189e-07
-4.66428e-08
-6.74776e-07
-2.56006e-08
-1.27128e-07
-3.29898e-08
-1.23446e-08
7.8538e-08
6.31878e-08
-1.45767e-07
5.57508e-08
-1.40187e-08
4.6672e-08
-6.04484e-07
2.29587e-08
-8.17001e-07
4.18069e-10
-7.97545e-07
-2.03777e-08
-7.99301e-07
-4.41885e-08
-8.18079e-07
-4.97255e-08
-6.69239e-07
-2.6471e-08
-1.50381e-07
-4.82457e-08
-1.12141e-08
9.01512e-08
1.09803e-07
-1.36764e-07
6.59719e-08
1.01591e-08
5.02465e-08
-5.88759e-07
2.76639e-08
-7.9442e-07
3.58102e-09
-7.73462e-07
-1.93487e-08
-7.76372e-07
-4.24353e-08
-7.94993e-07
-6.04355e-08
-6.51238e-07
-6.35182e-08
-1.47296e-07
-4.38437e-08
-6.79188e-08
8.96992e-08
1.40288e-07
-1.20185e-07
7.22271e-08
2.76206e-08
4.87184e-08
-5.65254e-07
2.50815e-08
-7.70784e-07
1.04188e-09
-7.49422e-07
-2.59177e-08
-7.49412e-07
-5.00779e-08
-7.70833e-07
-6.57158e-08
-6.35599e-07
-6.99378e-08
-1.43072e-07
-4.04202e-08
-7.33596e-08
8.04056e-08
1.60672e-07
-1.00792e-07
6.79507e-08
4.00673e-08
4.83517e-08
-5.45657e-07
2.34246e-08
-7.45858e-07
-2.08018e-09
-7.23917e-07
-3.27456e-08
-7.18747e-07
-5.79085e-08
-7.4567e-07
-6.84647e-08
-6.25042e-07
-6.36068e-08
-1.47928e-07
-4.76494e-08
-5.63758e-08
1.0287e-07
1.68401e-07
-1.10603e-07
7.90079e-08
6.39264e-08
6.12592e-08
-5.27911e-07
3.40938e-08
-7.18693e-07
6.22525e-09
-6.96049e-07
-1.73086e-08
-6.95213e-07
-4.60219e-08
-7.16957e-07
-6.67516e-08
-6.04311e-07
-6.05414e-08
-1.54137e-07
-5.89407e-08
-4.92484e-08
1.35281e-07
1.39082e-07
-1.05964e-07
8.33467e-08
1.15861e-07
6.01601e-08
-5.04725e-07
3.08242e-08
-6.89357e-07
2.38698e-09
-6.67612e-07
-2.31377e-08
-6.69688e-07
-5.3718e-08
-6.86376e-07
-7.67229e-08
-5.81305e-07
-6.75433e-08
-1.63315e-07
-7.7159e-08
-4.93235e-08
8.4763e-08
1.30273e-07
-7.59542e-08
6.25268e-08
1.38099e-07
5.09733e-08
-4.93172e-07
2.04914e-08
-6.58874e-07
-4.16434e-09
-6.42956e-07
-3.14599e-08
-6.42393e-07
-6.02038e-08
-6.57632e-07
-8.44403e-08
-5.57068e-07
-7.08006e-08
-1.76953e-07
-9.46052e-08
-5.33529e-08
-3.95607e-08
1.17744e-07
5.20904e-08
5.50801e-08
4.34601e-08
5.70282e-08
-4.9512e-07
2.61744e-08
-6.2802e-07
-1.10326e-09
-6.15678e-07
-3.10919e-08
-6.12404e-07
-6.05221e-08
-6.28202e-07
-8.25688e-08
-5.3502e-07
-6.27199e-08
-1.96801e-07
-1.033e-07
-5.40243e-08
-4.91681e-08
9.42872e-08
7.26253e-08
5.13199e-08
-5.70226e-08
5.96989e-08
-5.03496e-07
2.96363e-08
-5.97957e-07
9.34666e-10
-5.86977e-07
-2.60286e-08
-5.85441e-07
-5.96647e-08
-5.94566e-07
-6.60709e-08
-5.28614e-07
-4.87848e-08
-2.14086e-07
-9.79437e-08
-5.41409e-08
-2.67411e-08
8.92905e-08
3.17383e-08
3.2293e-08
-1.16052e-07
6.48418e-08
-5.36044e-07
3.16184e-08
-5.64734e-07
-1.94718e-09
-5.53411e-07
-3.32341e-08
-5.54154e-07
-6.64984e-08
-5.61302e-07
-4.57374e-08
-5.49374e-07
-3.80703e-08
-2.21753e-07
-8.13661e-08
-5.4648e-08
3.41022e-08
8.66456e-08
-3.14554e-08
7.24145e-08
-1.54361e-07
6.77258e-08
-5.31355e-07
3.1619e-08
-5.28627e-07
-1.18318e-10
-5.21674e-07
-2.97721e-08
-5.245e-07
-6.19849e-08
-5.29089e-07
-7.9301e-08
-5.32058e-07
-7.23805e-08
-2.28674e-07
-7.45923e-08
-7.91544e-08
8.31297e-08
8.63335e-08
-8.28156e-08
1.14458e-07
-1.85687e-07
6.64662e-08
-4.83364e-07
2.62772e-08
-4.88438e-07
-6.93701e-09
-4.8846e-07
-4.25493e-08
-4.88888e-07
-8.20405e-08
-4.89598e-07
-1.30743e-07
-4.83356e-07
-1.10656e-07
-2.48761e-07
-7.88455e-08
-1.06403e-07
1.17157e-07
7.76653e-08
-1.08489e-07
1.1357e-07
-1.82106e-07
6.83995e-08
-4.38196e-07
2.69524e-08
-4.46991e-07
-7.63779e-09
-4.53869e-07
-4.53298e-08
-4.51196e-07
-8.40067e-08
-4.50921e-07
-1.29845e-07
-4.37518e-07
-1.31917e-07
-2.4669e-07
-9.58174e-08
-1.14945e-07
1.2927e-07
5.03683e-08
-1.01974e-07
1.49743e-07
-2.02567e-07
9.87502e-08
-3.87203e-07
5.49074e-08
-4.03148e-07
1.04644e-08
-4.09426e-07
-3.01834e-08
-4.10548e-07
-7.77997e-08
-4.03305e-07
-1.27203e-07
-3.88114e-07
-1.19301e-07
-2.54592e-07
-1.24426e-07
-9.06928e-08
7.09553e-08
1.88538e-09
-2.24732e-08
1.34504e-07
-2.66117e-07
9.13664e-08
-3.44065e-07
4.90535e-08
-3.60835e-07
5.54125e-09
-3.65914e-07
-4.03111e-08
-3.64696e-07
-8.6184e-08
-3.57432e-07
-1.31417e-07
-3.42881e-07
-7.69036e-08
-3.09105e-07
-1.42049e-07
-5.92807e-08
1.29256e-07