/*--------------------------------*- C++ -*----------------------------------*\
  =========                 |
  \\      /  F ield         | OpenFOAM: The Open Source CFD Toolbox
   \\    /   O peration     | Website:  https://openfoam.org
    \\  /    A nd           | Version:  8
     \\/     M anipulation  |
\*---------------------------------------------------------------------------*/
FoamFile
{
    version     2.0;
    format      ascii;
    class       volVectorField;
    location    "1.75";
    object      U;
}
// * * * * * * * * * * * * * * * * * * * * * * * * * * * * * * * * * * * * * //

dimensions      [0 1 -1 0 0 0 0];

internalField   nonuniform List<vector> 
9150
(
(0.00495847 -0.0781354 0)
(0.0130538 -0.0974493 0)
(0.0108888 -0.104272 0)
(0.00855294 -0.107975 0)
(0.00254548 -0.109156 0)
(-0.00208372 -0.109399 0)
(-0.00852978 -0.107913 0)
(-0.010876 -0.104247 0)
(-0.013029 -0.0974677 0)
(-0.00495418 -0.0781372 0)
(0.00596011 -0.0920664 0)
(0.00858629 -0.100503 0)
(0.00731575 -0.102324 0)
(0.00441677 -0.104396 0)
(0.00196718 -0.105403 0)
(-0.0020562 -0.105466 0)
(-0.00442425 -0.104243 0)
(-0.00733469 -0.102217 0)
(-0.00856829 -0.100489 0)
(-0.00595546 -0.0920583 0)
(0.0017809 -0.0954923 0)
(0.00457586 -0.0989913 0)
(0.00369385 -0.101078 0)
(0.00331032 -0.101731 0)
(0.000732336 -0.102431 0)
(-0.000931111 -0.102378 0)
(-0.00324802 -0.101679 0)
(-0.00372273 -0.100955 0)
(-0.00458366 -0.0989787 0)
(-0.00177461 -0.0954815 0)
(0.00176175 -0.098442 0)
(0.00246677 -0.100405 0)
(0.00214527 -0.100355 0)
(0.00132903 -0.10067 0)
(0.000799347 -0.100848 0)
(-0.000543858 -0.100873 0)
(-0.00127646 -0.100816 0)
(-0.00217957 -0.100267 0)
(-0.00248257 -0.100398 0)
(-0.00176278 -0.0984392 0)
(0.000189927 -0.0994938 0)
(0.000724351 -0.099574 0)
(0.000472901 -0.0999305 0)
(0.000489311 -0.10006 0)
(9.67743e-05 -0.10013 0)
(-0.000264315 -0.100079 0)
(-0.000669459 -0.0998617 0)
(-0.000485822 -0.099967 0)
(-0.00072868 -0.09957 0)
(-0.000189815 -0.099495 0)
(0.0763506 -0.194646 1.98626e-26)
(0.0494931 -0.185035 0)
(0.0313157 -0.176596 0)
(0.0168978 -0.173545 0)
(0.00555708 -0.175681 0)
(-0.0034085 -0.176283 0)
(-0.0155696 -0.175986 0)
(-0.0308293 -0.176737 0)
(-0.0492935 -0.18526 0)
(-0.0763045 -0.195021 -2.05386e-26)
(0.0585661 -0.146453 5.17512e-27)
(0.0484443 -0.146629 0)
(0.0285417 -0.156763 0)
(0.0208597 -0.158019 0)
(0.00507065 -0.156084 0)
(-0.00396808 -0.155735 0)
(-0.0202101 -0.156161 0)
(-0.0282063 -0.156434 0)
(-0.0482474 -0.146563 0)
(-0.0585017 -0.146475 -5.22978e-27)
(0.0477348 -0.12157 2.62625e-27)
(0.0422566 -0.131548 0)
(0.0298766 -0.134134 0)
(0.0178393 -0.137463 0)
(0.00584159 -0.140296 0)
(-0.00626149 -0.14011 0)
(-0.0179311 -0.137411 0)
(-0.029715 -0.13387 0)
(-0.0421516 -0.131429 0)
(-0.0477323 -0.121576 -2.64531e-27)
(0.0373336 -0.0994677 3.94521e-27)
(0.0389107 -0.110291 0)
(0.0219897 -0.120002 0)
(0.0169557 -0.125267 0)
(0.00375441 -0.125395 0)
(-0.00477388 -0.125386 0)
(-0.0175217 -0.125089 0)
(-0.0224269 -0.120131 0)
(-0.0390914 -0.110344 0)
(-0.0373994 -0.0995061 -3.90187e-27)
(0.0249456 -0.0814089 -1.27014e-26)
(0.0281978 -0.101058 -1.50866e-26)
(0.0203535 -0.108347 -3.81104e-27)
(0.0115217 -0.113601 -3.36034e-27)
(0.00477987 -0.116622 -1.28723e-28)
(-0.00456731 -0.116799 -1.31423e-28)
(-0.0111168 -0.113794 -3.30711e-27)
(-0.0201597 -0.108187 -3.7812e-27)
(-0.0281205 -0.101094 -1.50554e-26)
(-0.0249489 -0.0814496 -1.26947e-26)
(0.0191692 -0.144436 0)
(0.014901 -0.202893 0)
(0.0252893 -0.214269 0)
(0.014378 -0.221596 0)
(0.0116839 -0.225205 0)
(-0.00319497 -0.226221 0)
(-0.00375816 -0.225619 0)
(-0.0192934 -0.217885 0)
(-0.00928335 -0.206277 0)
(-0.0178053 -0.144317 0)
(0.0166747 -0.164755 0)
(0.00221884 -0.198101 0)
(0.0157438 -0.208497 0)
(0.00255414 -0.213852 0)
(0.00699231 -0.213976 0)
(-0.00463736 -0.214224 0)
(-0.00152901 -0.213088 0)
(-0.0143352 -0.209309 0)
(-0.00118601 -0.200801 0)
(-0.0154798 -0.168315 0)
(0.0151634 -0.171257 0)
(-0.00353999 -0.202509 0)
(0.0115427 -0.207602 0)
(-0.00107985 -0.209524 0)
(0.0038605 -0.209655 0)
(-0.00418142 -0.209768 0)
(0.00186102 -0.209795 0)
(-0.0104146 -0.20887 0)
(0.00408439 -0.204068 0)
(-0.015147 -0.172659 0)
(0.017564 -0.193514 0)
(-0.00670353 -0.203455 0)
(0.0101511 -0.209482 0)
(-0.000560432 -0.20589 0)
(0.00243449 -0.206675 0)
(-0.00100892 -0.207178 0)
(0.00165764 -0.207158 0)
(-0.00928291 -0.210714 0)
(0.00688865 -0.204595 0)
(-0.0170437 -0.194523 0)
(0.0346954 -0.21715 0)
(0.00894544 -0.20379 0)
(0.0165108 -0.202907 0)
(0.0112039 -0.196356 0)
(0.00128115 -0.193271 0)
(-0.00241337 -0.193533 0)
(-0.011456 -0.196518 0)
(-0.0163964 -0.204197 0)
(-0.00872413 -0.20432 0)
(-0.0349026 -0.21803 0)
(-0.609036 0.053248 0)
(-0.586149 -0.00684033 0)
(-0.523432 -0.0441698 0)
(-0.444126 -0.05799 0)
(-0.357947 -0.0619333 0)
(-0.269778 -0.0844683 0)
(-0.196018 -0.0454308 0)
(-0.137068 -0.0232462 0)
(-0.0703542 -0.0450408 0)
(-0.00459591 -0.0905201 0)
(-0.671738 -0.0704946 0)
(-0.612749 -0.174842 0)
(-0.533813 -0.250089 0)
(-0.448211 -0.288062 0)
(-0.375787 -0.298077 0)
(-0.308553 -0.305404 0)
(-0.250001 -0.234826 0)
(-0.199959 -0.162693 0)
(-0.122977 -0.206051 0)
(-0.0690324 -0.241957 0)
(-0.490854 -0.120673 0)
(-0.414711 -0.299578 0)
(-0.361621 -0.358853 0)
(-0.337942 -0.371579 0)
(-0.327933 -0.376595 0)
(-0.311491 -0.350145 0)
(-0.297733 -0.298468 0)
(-0.293294 -0.27741 0)
(-0.209451 -0.377622 0)
(-0.1384 -0.400682 0)
(-0.233182 -0.225155 0)
(-0.216167 -0.378482 0)
(-0.215637 -0.404123 0)
(-0.225858 -0.371005 0)
(-0.231785 -0.358575 0)
(-0.276459 -0.338641 0)
(-0.304753 -0.320905 0)
(-0.308553 -0.366299 0)
(-0.263995 -0.512555 0)
(-0.230337 -0.554913 0)
(-0.189343 -0.188052 0)
(-0.267466 -0.341444 0)
(-0.464955 -0.283381 0)
(-0.464458 -0.260497 0)
(-0.285768 -0.311443 0)
(-0.172317 -0.255376 0)
(-0.129055 -0.179386 0)
(-0.120898 -0.403442 0)
(-0.151113 -0.576906 0)
(-0.143873 -0.644238 0)
(-0.627871 0.276647 0)
(-0.836187 0.155187 0)
(-0.803301 -0.186075 0)
(-0.57474 -0.608323 0)
(-0.346635 -0.865548 0)
(-0.104177 -0.788609 0)
(0.0721341 -0.388328 0)
(0.272524 -0.262902 0)
(0.39758 -0.320642 0)
(0.262145 -0.523885 0)
(-0.725597 0.31502 0)
(-0.578994 -0.0660854 0)
(-0.245039 -0.74951 0)
(-0.0235312 -1.0809 0)
(0.0777072 -1.11158 0)
(0.121142 -1.07829 0)
(0.159135 -0.941468 0)
(0.286984 -0.764053 0)
(0.464001 -0.416571 0)
(0.529078 -0.209099 0)
(-0.218639 -0.340809 0)
(-0.094146 -0.498979 0)
(0.117798 -1.02809 0)
(0.203397 -1.201 0)
(0.244217 -1.2035 0)
(0.26359 -1.15914 0)
(0.257366 -1.02795 0)
(0.259779 -0.840969 0)
(0.287055 -0.618214 0)
(0.415804 -0.34591 0)
(0.119985 -0.695308 0)
(0.210832 -0.737426 0)
(0.247969 -1.09243 0)
(0.300528 -1.27145 0)
(0.307051 -1.28364 0)
(0.305111 -1.22602 0)
(0.291942 -1.06219 0)
(0.277767 -0.905145 0)
(0.264482 -0.723939 0)
(0.290618 -0.443269 0)
(0.237346 -0.727968 0)
(0.250844 -0.83934 0)
(0.286757 -1.16971 0)
(0.32442 -1.32562 0)
(0.325817 -1.31364 0)
(0.314596 -1.23173 0)
(0.285583 -1.05509 0)
(0.262226 -0.931534 0)
(0.277234 -0.797713 0)
(0.292932 -0.676868 0)
(0.2401 -0.756659 0)
(0.26353 -0.908774 0)
(0.292505 -1.27094 0)
(0.320624 -1.34842 0)
(0.317122 -1.31883 0)
(0.268854 -1.18323 0)
(0.211914 -1.02305 0)
(0.1921 -0.931795 0)
(0.205573 -0.849807 0)
(0.268683 -0.787708 0)
(0.213915 -0.796286 0)
(0.266316 -0.960889 0)
(0.281604 -1.30678 0)
(0.252825 -1.33771 0)
(0.215158 -1.23966 0)
(0.0861534 -1.02341 0)
(0.0355979 -0.941572 0)
(0.0233516 -0.920302 0)
(0.0409769 -0.903193 0)
(-0.0237711 -0.767329 0)
(0.134201 -0.8249 0)
(0.221366 -1.00008 0)
(0.151437 -1.27984 0)
(0.0865963 -1.19415 0)
(-0.0306642 -0.909347 0)
(-0.165483 -0.78651 0)
(-0.21195 -0.856274 0)
(-0.254874 -0.904597 0)
(-0.349664 -0.651289 0)
(-0.433125 -0.270012 0)
(-0.0317321 -0.886008 0)
(0.101324 -1.06997 0)
(0.0279843 -1.17335 0)
(-0.0414342 -0.928837 0)
(-0.131461 -0.693702 0)
(-0.202932 -0.685619 0)
(-0.232839 -0.72609 0)
(-0.33923 -0.725298 0)
(-0.379454 -0.549694 0)
(-0.385235 -0.315042 0)
(-0.0783627 -1.00895 0)
(-0.02731 -1.12063 0)
(-0.0441945 -1.1216 0)
(-0.0743535 -0.816771 0)
(-0.0909938 -0.595624 0)
(-0.164329 -0.584246 0)
(-0.174077 -0.556388 0)
(-0.255388 -0.596391 0)
(-0.306754 -0.528628 0)
(-0.27929 -0.321183 0)
(-0.0555662 -1.05983 0)
(-0.0369155 -1.12823 0)
(-0.0321873 -1.0675 0)
(-0.0867913 -0.76287 0)
(-0.0772106 -0.530574 0)
(-0.139456 -0.511813 0)
(-0.153256 -0.498919 0)
(-0.156186 -0.526591 0)
(-0.156221 -0.564259 0)
(-0.137772 -0.45321 0)
(-0.103927 -1.11767 0)
(-0.081282 -1.20951 0)
(-0.0747175 -1.04014 0)
(-0.110828 -0.733851 0)
(-0.0903483 -0.501965 0)
(-0.122597 -0.482908 0)
(-0.129652 -0.49029 0)
(-0.132021 -0.508025 0)
(-0.10682 -0.581458 0)
(-0.113344 -0.525395 0)
(-0.13079 -1.1217 0)
(-0.150158 -1.20973 0)
(-0.185556 -1.06429 0)
(-0.161306 -0.718714 0)
(-0.118181 -0.50644 0)
(-0.125776 -0.481228 0)
(-0.126329 -0.496769 0)
(-0.123037 -0.532774 0)
(-0.112771 -0.575441 0)
(-0.153059 -0.469304 0)
(-0.223686 -1.04773 0)
(-0.308158 -1.14246 0)
(-0.354939 -1.07532 0)
(-0.236085 -0.785133 0)
(-0.153552 -0.566557 0)
(-0.131508 -0.510601 0)
(-0.121596 -0.501384 0)
(-0.120307 -0.526625 0)
(-0.143419 -0.491802 0)
(-0.216242 -0.381777 0)
(-0.256166 -0.881165 0)
(-0.388399 -1.08389 0)
(-0.425836 -1.09641 0)
(-0.345029 -0.999588 0)
(-0.181505 -0.728233 0)
(-0.116297 -0.577492 0)
(-0.0736447 -0.509572 0)
(-0.0903509 -0.466546 0)
(-0.0758144 -0.404162 0)
(-0.121097 -0.353725 0)
(-0.0917898 -0.490069 0)
(-0.327164 -0.975892 0)
(-0.430549 -1.10106 0)
(-0.355335 -1.17746 0)
(-0.219163 -1.10656 0)
(-0.0958026 -0.752746 0)
(0.0229552 -0.554595 0)
(0.00799159 -0.466311 0)
(0.0320923 -0.393102 0)
(0.047884 -0.340994 0)
(0.0953983 -0.190666 0)
(0.0342108 -0.509617 0)
(-0.251712 -0.916556 0)
(-0.193803 -1.24298 0)
(-0.191209 -1.34612 0)
(-0.0688912 -1.1745 0)
(0.101473 -0.656147 0)
(0.148147 -0.467727 0)
(0.0927244 -0.373887 0)
(0.094022 -0.28749 0)
(0.159732 -0.213326 0)
(0.174297 -0.335348 0)
(-0.0271736 -0.542467 0)
(-0.0620321 -1.15661 0)
(-0.00842126 -1.42123 0)
(0.00691 -1.43081 0)
(0.142604 -0.958205 0)
(0.237262 -0.430987 0)
(0.202031 -0.304825 0)
(0.0825733 -0.226019 0)
(0.150964 -0.218083 0)
(0.0709834 -0.214878 0)
(-0.0546136 -0.398559 0)
(-0.0341652 -1.14622 0)
(0.0490958 -1.50318 0)
(0.119099 -1.53317 0)
(0.182413 -1.33545 0)
(0.259281 -0.492032 0)
(0.217135 -0.152629 0)
(0.128261 -0.133274 0)
(0.135738 -0.0974845 0)
(0.0327703 0.0498909 0)
(-0.029689 -0.359183 0)
(-0.0366371 -1.26456 0)
(-0.00152567 -1.70166 0)
(0.0165473 -1.72243 0)
(0.0920555 -1.45463 0)
(0.127324 -0.471195 0)
(0.212007 -0.0703992 0)
(0.138675 0.039432 0)
(0.187409 0.0789629 0)
(0.0501669 0.133786 0)
(0.00871177 -0.504603 0)
(-0.134521 -1.37422 0)
(-0.0381797 -1.74902 0)
(-0.0290661 -1.74785 0)
(-0.0359289 -1.50002 0)
(-0.0107293 -0.514632 0)
(0.19379 -0.191583 0)
(0.201283 0.0115647 0)
(0.203359 0.350871 0)
(0.110208 0.236337 0)
(0.243865 0.254003 0)
(0.0918616 -1.11273 0)
(-0.00117314 -1.76503 0)
(0.0123406 -1.75363 0)
(-0.0142815 -1.46474 0)
(-0.182598 -0.607629 0)
(0.110676 -0.269999 0)
(0.17281 -0.0119639 0)
(0.101952 0.413993 0)
(0.146239 0.126162 0)
(0.386152 -0.0498663 0)
(0.21598 -0.228983 0)
(0.0330198 -1.71271 0)
(0.0264812 -1.72806 0)
(0.00173905 -1.39089 0)
(-0.041251 -0.845574 0)
(0.0546096 -0.885671 0)
(0.169144 -0.113692 0)
(0.015537 0.401887 0)
(0.0229997 -0.227234 0)
(-0.0780668 0.24897 0)
(0.0282073 -0.736759 0)
(0.0192423 -1.67084 0)
(0.0143987 -1.6697 0)
(-0.0503962 -1.17935 0)
(-0.205187 -0.871907 0)
(-0.193743 -0.703839 0)
(-0.0944481 -0.366874 0)
(0.0207219 0.384852 0)
(-0.203948 0.125927 0)
(0.024017 -0.346504 0)
(0.0965633 -0.661801 0)
(9.37262e-05 -1.58166 0)
(-0.0146132 -1.50259 0)
(-0.122851 -0.761406 0)
(-0.330279 -0.741138 0)
(-0.341382 -0.655912 0)
(-0.341385 -0.673868 0)
(-0.0455551 0.493928 0)
(-0.268656 -0.0326552 0)
(-0.159903 -0.295628 0)
(-0.0779204 -0.863343 0)
(-0.0598162 -1.43293 0)
(-0.0414184 -1.42628 0)
(-0.0915479 -0.593541 0)
(-0.21558 -0.501288 0)
(-0.30301 -0.562553 0)
(-0.35613 -0.723911 0)
(0.00793286 0.58896 0)
(0.0440967 0.33014 0)
(-0.170993 -0.114941 0)
(-0.12668 -1.04612 0)
(-0.0626705 -1.47819 0)
(-0.0463662 -1.46251 0)
(-0.0507635 -0.518736 0)
(-0.106526 -0.311219 0)
(-0.150475 -0.303763 0)
(-0.212581 -0.404086 0)
(0.139328 0.507811 0)
(0.150368 0.1882 0)
(-0.00736207 0.149516 0)
(-0.0498568 -1.10164 0)
(-0.00885884 -1.45744 0)
(-0.033066 -1.46664 0)
(-0.00255675 -0.588969 0)
(0.0307138 -0.305251 0)
(0.025865 -0.298103 0)
(0.043053 -0.262064 0)
(0.0393411 0.439756 0)
(-0.0219969 0.320699 0)
(-0.0963717 0.2006 0)
(-0.0398922 -1.14734 0)
(-0.00589791 -1.46479 0)
(-0.0303782 -1.47287 0)
(0.0256871 -0.784718 0)
(0.149248 -0.376925 0)
(0.124514 -0.391081 0)
(0.146728 -0.307484 0)
(-0.071892 0.581074 0)
(-0.164288 0.516244 0)
(-0.0117 0.126974 0)
(-0.0397699 -1.11501 0)
(-0.00684608 -1.49148 0)
(-0.0308531 -1.49616 0)
(0.00744021 -1.02873 0)
(0.19159 -0.339746 0)
(0.0973969 -0.392655 0)
(0.10557 -0.380014 0)
(-0.251152 0.575458 0)
(-0.148448 0.236857 0)
(0.0315455 -0.177005 0)
(-0.0135621 -1.05845 0)
(0.00846809 -1.51654 0)
(-0.0128249 -1.5058 0)
(0.00555951 -1.40798 0)
(0.182784 -0.240224 0)
(0.00675638 -0.303231 0)
(0.00558968 -0.262268 0)
(-0.133479 0.440463 0)
(0.0286207 -0.0991835 0)
(-0.041888 -0.226244 0)
(0.0214765 -0.962689 0)
(0.0252407 -1.51648 0)
(0.00985073 -1.51676 0)
(0.0375122 -1.4961 0)
(0.0902366 -0.18662 0)
(-0.0116282 -0.23614 0)
(-0.000966734 -0.238656 0)
(-0.0114339 0.326376 0)
(0.0559617 -0.0293068 0)
(-0.122007 -0.0515647 0)
(-0.00828713 -1.14925 0)
(0.00967561 -1.51419 0)
(-0.00188257 -1.52048 0)
(0.00321969 -1.50578 0)
(0.0242402 -0.20198 0)
(0.0472475 -0.136483 0)
(0.0710783 -0.195025 0)
(-0.0658533 0.0921081 0)
(0.0119984 -0.00299498 0)
(-0.164403 -0.0479857 0)
(0.00726756 -1.46039 0)
(0.00822606 -1.51518 0)
(-0.00276218 -1.51574 0)
(0.00550512 -1.48762 0)
(-0.00799364 -0.284887 0)
(0.0522256 -0.2123 0)
(0.0345061 -0.303035 0)
(0.130544 0.115519 0)
(0.142412 0.0291955 0)
(0.00819468 0.127764 0)
(-0.00393597 -1.49201 0)
(0.00344058 -1.51116 0)
(-0.00580498 -1.50939 0)
(-0.00660352 -1.48307 0)
(0.00030265 -0.380847 0)
(0.123594 -0.21267 0)
(0.0993765 -0.299643 0)
(0.0451031 0.0193064 0)
(0.0331062 0.232187 0)
(-0.0296227 0.312484 0)
(0.0078564 -1.48602 0)
(0.00948299 -1.51075 0)
(-0.0015268 -1.50311 0)
(0.00319952 -1.48393 0)
(3.12538e-05 -0.622174 0)
(0.168894 -0.230263 0)
(0.146882 -0.280059 0)
(-0.227535 0.123799 0)
(-0.185918 0.262475 0)
(0.000896555 0.202028 0)
(0.0336183 -1.47258 0)
(0.0213663 -1.50156 0)
(0.0120527 -1.49906 0)
(0.0323174 -1.4799 0)
(0.035981 -0.919689 0)
(0.134845 -0.407298 0)
(0.146576 -0.338712 0)
(-0.414825 -0.0426035 0)
(-0.339231 -0.017871 0)
(0.0107639 -0.691418 0)
(0.0208397 -1.47555 0)
(0.0173434 -1.49465 0)
(0.00597374 -1.49869 0)
(0.0204072 -1.47107 0)
(0.0184811 -0.849853 0)
(0.0204063 -0.339559 0)
(0.0141929 -0.259791 0)
(-0.157714 0.106598 0)
(-0.0605295 -0.222053 0)
(0.0160116 -0.795839 0)
(0.0178829 -1.46689 0)
(0.0119216 -1.48636 0)
(-0.000430844 -1.49252 0)
(0.0125791 -1.4691 0)
(0.000322392 -0.879605 0)
(-0.00859861 -0.41317 0)
(0.0172856 -0.359223 0)
(-0.00447031 0.125071 0)
(0.0355088 -0.280836 0)
(0.0183632 -0.82444 0)
(-0.00377844 -1.46431 0)
(0.00292901 -1.47518 0)
(-0.0107014 -1.47724 0)
(-0.0135923 -1.45636 0)
(-0.0390932 -0.823973 0)
(-0.0556794 -0.419433 0)
(-0.0522509 -0.379058 0)
(0.0534078 0.043117 0)
(0.0719624 -0.267895 0)
(0.0598106 -0.762804 0)
(0.0134023 -1.43615 0)
(0.0074559 -1.46008 0)
(-0.00521453 -1.4611 0)
(-0.00842964 -1.43904 0)
(-0.0432155 -0.726437 0)
(-0.0755657 -0.387806 0)
(-0.0918874 -0.34224 0)
(0.063981 -0.0867031 0)
(0.0689777 -0.290462 0)
(0.061563 -0.70059 0)
(0.00729997 -1.37793 0)
(0.00661839 -1.44075 0)
(-0.0103453 -1.44117 0)
(-0.0141061 -1.40061 0)
(-0.0576287 -0.661969 0)
(-0.0800945 -0.34488 0)
(-0.11016 -0.30185 0)
(0.0386956 -0.11979 0)
(0.0537017 -0.30539 0)
(0.0384392 -0.653457 0)
(0.0119487 -1.32891 0)
(0.0074936 -1.4187 0)
(-0.00673267 -1.41713 0)
(-0.0106539 -1.34302 0)
(-0.0533203 -0.600574 0)
(-0.069853 -0.31174 0)
(-0.0885368 -0.238794 0)
(0.0329961 -0.177712 0)
(0.0536818 -0.313009 0)
(0.0348192 -0.594578 0)
(0.0197936 -1.361 0)
(0.00969389 -1.39668 0)
(-0.00675912 -1.39445 0)
(-0.00146684 -1.30491 0)
(-0.040479 -0.502556 0)
(-0.0739799 -0.251015 0)
(-0.0964769 -0.175818 0)
(0.0349133 -0.238631 0)
(0.0594034 -0.318722 0)
(0.0591551 -0.510371 0)
(0.0177081 -1.29133 0)
(0.0116057 -1.37344 0)
(-0.00446287 -1.37496 0)
(-0.00308296 -1.30859 0)
(-0.0258619 -0.453406 0)
(-0.0634768 -0.181513 0)
(-0.0954081 -0.139568 0)
(0.0185142 -0.31081 0)
(0.0347472 -0.338704 0)
(0.0179813 -0.465012 0)
(-0.000601234 -1.26365 0)
(0.00520444 -1.35321 0)
(-0.00971442 -1.35502 0)
(-0.0159234 -1.27346 0)
(-0.00711291 -0.452935 0)
(-0.000694999 -0.141613 0)
(-0.0266202 -0.120641 0)
(-0.016282 -0.365234 0)
(-0.0161222 -0.343785 0)
(-0.0122472 -0.464644 0)
(0.00628238 -1.30902 0)
(0.00753243 -1.33718 0)
(-0.00819262 -1.33478 0)
(-0.00259525 -1.30298 0)
(0.00208505 -0.452234 0)
(0.004725 -0.105388 0)
(-0.0202201 -0.104124 0)
(-0.0360562 -0.379594 0)
(-0.0397365 -0.332202 0)
(-0.0132323 -0.523843 0)
(0.00450527 -1.31997 0)
(0.00669598 -1.32295 0)
(-0.00714638 -1.32278 0)
(-0.00432344 -1.3167 0)
(0.0073012 -0.521474 0)
(0.0431559 -0.104882 0)
(0.020047 -0.0862178 0)
(-0.0495399 -0.376293 0)
(-0.0601154 -0.363495 0)
(0.00142639 -0.628803 0)
(0.00225477 -1.31265 0)
(0.00594465 -1.30947 0)
(-0.00747667 -1.30921 0)
(-0.00310671 -1.31127 0)
(-0.00756327 -0.554352 0)
(0.0259516 -0.100969 0)
(0.00937756 -0.0595982 0)
(-0.0143985 -0.348738 0)
(-0.0277472 -0.40611 0)
(0.00517028 -0.667283 0)
(-0.00221797 -1.29749 0)
(0.00360855 -1.2996 0)
(-0.00724651 -1.30096 0)
(-0.00351804 -1.29673 0)
(-0.0162998 -0.594673 0)
(0.0110352 -0.0720869 0)
(-0.0240146 -0.0341766 0)
(0.0550658 -0.317656 0)
(0.0135776 -0.371695 0)
(-0.00124845 -0.672569 0)
(-0.00737136 -1.28704 0)
(0.00171204 -1.29766 0)
(-0.00727312 -1.29353 0)
(-0.00584216 -1.28718 0)
(-0.0163969 -0.657118 0)
(0.024945 -0.0538814 0)
(-0.0137934 0.00611485 0)
(0.0842978 -0.311083 0)
(0.0313887 -0.267451 0)
(0.0160375 -0.643414 0)
(0.00631201 -1.28042 0)
(0.00780013 -1.29357 0)
(-0.00147283 -1.29151 0)
(0.00758135 -1.28003 0)
(0.00457076 -0.696856 0)
(0.0220139 -0.014494 0)
(-0.0216675 0.0329098 0)
(0.0786402 -0.292984 0)
(0.00821264 -0.158357 0)
(-0.00386703 -0.686745 0)
(-0.00165759 -1.27315 0)
(0.0040894 -1.28813 0)
(-0.00684334 -1.28856 0)
(-0.00625878 -1.27411 0)
(-0.0294673 -0.724332 0)
(0.0152219 0.0157253 0)
(-0.0314933 0.0901934 0)
(0.0250013 -0.22457 0)
(-0.0361846 -0.0895692 0)
(0.0225035 -0.719259 0)
(0.00209716 -1.26097 0)
(0.00562935 -1.27643 0)
(-0.00737526 -1.27517 0)
(-0.00808663 -1.26014 0)
(-0.031958 -0.734199 0)
(0.020657 -0.0209698 0)
(0.0216321 0.156421 0)
(0.00621323 -0.114465 0)
(-0.00728895 -0.122283 0)
(0.034552 -0.730122 0)
(0.0100274 -1.24708 0)
(0.00736516 -1.2628 0)
(-0.00708357 -1.26155 0)
(-0.00730549 -1.2459 0)
(-0.033886 -0.739393 0)
(-0.00442335 -0.116022 0)
(0.023393 0.154813 0)
(0.0321011 -0.0663931 0)
(0.0361045 -0.169181 0)
(0.0444883 -0.691213 0)
(0.0136331 -1.22995 0)
(0.00823541 -1.24097 0)
(-0.00825466 -1.24139 0)
(-0.014196 -1.22531 0)
(-0.0392299 -0.71366 0)
(-0.0345174 -0.14532 0)
(-0.00268319 0.121659 0)
(0.0735126 0.00498278 0)
(0.0515761 -0.138922 0)
(0.0307636 -0.628941 0)
(0.00881897 -1.19496 0)
(0.00580012 -1.21723 0)
(-0.010593 -1.21793 0)
(-0.0221532 -1.19432 0)
(-0.041435 -0.670574 0)
(-0.0441738 -0.184918 0)
(-0.0146482 0.0652394 0)
(0.0519673 0.0572806 0)
(0.0316811 -0.0991586 0)
(0.00244947 -0.588603 0)
(-0.00137708 -1.17402 0)
(0.00293288 -1.19564 0)
(-0.0145258 -1.19274 0)
(-0.0366126 -1.188 0)
(-0.0374463 -0.636594 0)
(-0.0449356 -0.232221 0)
(-0.0131778 -0.0357001 0)
(0.0174462 0.0893149 0)
(0.0220451 -0.0841236 0)
(0.0144117 -0.569478 0)
(0.0132004 -1.17536 0)
(0.00702767 -1.17324 0)
(-0.0101569 -1.16799 0)
(-0.0140936 -1.18052 0)
(-0.0219497 -0.592923 0)
(-0.0478043 -0.237564 0)
(-0.0374623 -0.0665377 0)
(-0.0154234 0.0673211 0)
(0.00266575 -0.124412 0)
(0.0126175 -0.569425 0)
(0.00954964 -1.17029 0)
(0.00754829 -1.14823 0)
(-0.00937765 -1.14455 0)
(-0.0124878 -1.16975 0)
(-0.018996 -0.574178 0)
(-0.0304669 -0.255861 0)
(-0.0257231 -0.104287 0)
(-0.018955 0.032062 0)
(0.00115186 -0.146005 0)
(0.0183453 -0.576904 0)
(0.0126383 -1.15828 0)
(0.0091273 -1.12909 0)
(-0.00694767 -1.12658 0)
(-0.0081263 -1.15719 0)
(-0.00892877 -0.575726 0)
(-0.0274804 -0.200593 0)
(-0.0681044 -0.0948755 0)
(-0.0111905 -0.00673033 0)
(-0.00721684 -0.164006 0)
(0.0105599 -0.605602 0)
(0.00558224 -1.1404 0)
(0.00584324 -1.10908 0)
(-0.008793 -1.10763 0)
(-0.0116727 -1.13916 0)
(-0.00466895 -0.600021 0)
(0.00262262 -0.105764 0)
(-0.0707432 -0.0149786 0)
(-0.0111759 -0.0326171 0)
(-0.0163432 -0.181948 0)
(0.0110697 -0.645375 0)
(0.00570882 -1.1237 0)
(0.00542652 -1.09581 0)
(-0.00751403 -1.09305 0)
(-0.00930323 -1.12188 0)
(-0.0157913 -0.581592 0)
(-0.0379672 0.0012133 0)
(-0.0690897 -0.0314234 0)
(-0.0047119 -0.0448482 0)
(-0.0104162 -0.198912 0)
(0.0140814 -0.690288 0)
(0.00752991 -1.10652 0)
(0.00542517 -1.08326 0)
(-0.00678541 -1.0803 0)
(-0.00831596 -1.106 0)
(-0.012538 -0.739928 0)
(0.0816081 0.0230908 0)
(0.1125 -0.0196528 0)
(0.010744 -0.0564684 0)
(0.000905439 -0.206362 0)
(0.0185342 -0.706086 0)
(0.00910928 -1.08895 0)
(0.0064238 -1.06785 0)
(-0.00568708 -1.06641 0)
(-0.00846804 -1.088 0)
(-0.0175113 -0.769289 0)
(0.0330193 -0.229001 0)
(0.120939 -0.131154 0)
(0.0261888 -0.068502 0)
(0.018018 -0.189198 0)
(0.0206499 -0.704056 0)
(0.010667 -1.07207 0)
(0.0062979 -1.05459 0)
(-0.00630604 -1.05324 0)
(-0.00957643 -1.07188 0)
(-0.0206137 -0.780677 0)
(-0.00730835 -0.290793 0)
(0.0098505 -0.171346 0)
(0.0470258 -0.0739279 0)
(0.0326103 -0.165869 0)
(0.0246937 -0.688386 0)
(0.0112465 -1.05418 0)
(0.00628339 -1.03672 0)
(-0.00668294 -1.0358 0)
(-0.0119237 -1.05435 0)
(-0.0212269 -0.780237 0)
(-0.0250193 -0.295058 0)
(-0.0371027 -0.193145 0)
(0.0164055 -0.0751063 0)
(0.0174853 -0.168041 0)
(0.0235946 -0.68709 0)
(0.0125709 -1.0361 0)
(0.007414 -1.02007 0)
(-0.00697898 -1.0193 0)
(-0.011546 -1.03626 0)
(-0.022235 -0.747412 0)
(-0.0440845 -0.238208 0)
(-0.0790629 -0.138713 0)
(0.0106948 -0.0825052 0)
(0.0219985 -0.181491 0)
(0.0258613 -0.672616 0)
(0.0147565 -1.01719 0)
(0.00814903 -1.00017 0)
(-0.00630615 -0.99994 0)
(-0.0112743 -1.01737 0)
(-0.0200101 -0.729384 0)
(-0.0319571 -0.169536 0)
(-0.0762344 -0.0655368 0)
(0.0316519 -0.0870834 0)
(0.0315242 -0.178418 0)
(0.0254641 -0.656549 0)
(0.0138019 -0.99881 0)
(0.00814381 -0.981202 0)
(-0.00744621 -0.981663 0)
(-0.0127955 -0.999139 0)
(-0.0218142 -0.721083 0)
(-0.0243669 -0.129675 0)
(-0.0449103 0.019247 0)
(0.0274019 -0.0919046 0)
(0.029098 -0.177936 0)
(0.0208619 -0.648572 0)
(0.0136889 -0.980059 0)
(0.00736471 -0.959689 0)
(-0.00822754 -0.959986 0)
(-0.0145462 -0.9806 0)
(-0.023137 -0.72195 0)
(-0.0157735 -0.140781 0)
(-0.00448117 0.0603511 0)
(0.0295768 -0.0935898 0)
(0.0293165 -0.162043 0)
(0.0218154 -0.638438 0)
(0.014832 -0.962728 0)
(0.00796908 -0.939257 0)
(-0.00799254 -0.939817 0)
(-0.0146117 -0.963497 0)
(-0.0205091 -0.719623 0)
(-0.0188339 -0.179393 0)
(0.0131861 0.0353635 0)
(0.0260953 -0.0913883 0)
(0.0233064 -0.156046 0)
(0.0202436 -0.638973 0)
(0.0146575 -0.942677 0)
(0.00749257 -0.916104 0)
(-0.00897645 -0.916287 0)
(-0.0166123 -0.943326 0)
(-0.0251392 -0.695944 0)
(-0.0409559 -0.177478 0)
(-0.0265686 -0.00779334 0)
(0.0333106 -0.082804 0)
(0.0275591 -0.139208 0)
(0.021858 -0.638158 0)
(0.0154507 -0.923351 0)
(0.00795777 -0.894438 0)
(-0.00789822 -0.894589 0)
(-0.0153456 -0.924267 0)
(-0.022761 -0.687882 0)
(-0.0422248 -0.157052 0)
(-0.0500627 -0.0604751 0)
(0.0389605 -0.0752585 0)
(0.0290243 -0.117173 0)
(0.0219175 -0.637627 0)
(0.015335 -0.900713 0)
(0.00764869 -0.870992 0)
(-0.0078718 -0.871834 0)
(-0.0160745 -0.901827 0)
(-0.0250983 -0.685266 0)
(-0.0248237 -0.131891 0)
(-0.0383575 -0.048089 0)
(0.0520901 -0.0632873 0)
(0.0351329 -0.0845064 0)
(0.0228108 -0.631423 0)
(0.015138 -0.87683 0)
(0.00645045 -0.850617 0)
(-0.00672191 -0.851307 0)
(-0.0148239 -0.878136 0)
(-0.0248996 -0.679275 0)
(-0.0305905 -0.104713 0)
(-0.0375367 -0.0167874 0)
(0.0531716 -0.0324529 0)
(0.0360531 -0.0506873 0)
(0.0253958 -0.622653 0)
(0.0158231 -0.85314 0)
(0.00656552 -0.830632 0)
(-0.00728608 -0.831094 0)
(-0.0159261 -0.854444 0)
(-0.0251496 -0.679033 0)
(-0.022013 -0.117302 0)
(-0.00768775 -0.0213891 0)
(0.0499652 0.026583 0)
(0.032967 -0.0292951 0)
(0.0254723 -0.614422 0)
(0.0169502 -0.828749 0)
(0.0067404 -0.809167 0)
(-0.0062742 -0.808711 0)
(-0.0165251 -0.829956 0)
(-0.0232431 -0.675185 0)
(-0.0255291 -0.146546 0)
(-0.00563109 -0.0480828 0)
(0.0510282 0.0902999 0)
(0.0429111 0.00178074 0)
(0.02723 -0.594093 0)
(0.0186482 -0.805623 0)
(0.00865846 -0.787266 0)
(-0.0057433 -0.787026 0)
(-0.0165604 -0.806431 0)
(-0.0222363 -0.657058 0)
(-0.037604 -0.146728 0)
(-0.0304263 -0.0462049 0)
(0.0481144 0.128213 0)
(0.0463577 0.0215702 0)
(0.0261633 -0.578827 0)
(0.0183369 -0.783378 0)
(0.00814672 -0.762187 0)
(-0.00753663 -0.762513 0)
(-0.018917 -0.78372 0)
(-0.0268811 -0.643168 0)
(-0.0405378 -0.14305 0)
(-0.0336677 -0.0403447 0)
(0.0429282 0.155574 0)
(0.0430501 0.0280892 0)
(0.0250224 -0.56019 0)
(0.0187113 -0.759197 0)
(0.00747709 -0.736312 0)
(-0.00945487 -0.734598 0)
(-0.0210708 -0.75885 0)
(-0.0315763 -0.630402 0)
(-0.041387 -0.144257 0)
(-0.0272648 -0.0416583 0)
(0.0534461 0.170998 0)
(0.0553645 0.0564567 0)
(0.0323058 -0.52841 0)
(0.0219217 -0.733439 0)
(0.0101384 -0.709283 0)
(-0.00499279 -0.707865 0)
(-0.015671 -0.732638 0)
(-0.0243865 -0.616046 0)
(-0.0423533 -0.150513 0)
(-0.0237168 -0.0523705 0)
(0.0621401 0.15133 0)
(0.0633807 0.08674 0)
(0.0318557 -0.511202 0)
(0.0212679 -0.704219 0)
(0.00833159 -0.681038 0)
(-0.0067801 -0.681162 0)
(-0.0192905 -0.70267 0)
(-0.0281274 -0.592358 0)
(-0.0484131 -0.155033 0)
(-0.0253608 -0.0660785 0)
(0.0433114 0.133218 0)
(0.0414909 0.135933 0)
(0.0256524 -0.503022 0)
(0.0190084 -0.674103 0)
(0.00398527 -0.655127 0)
(-0.00831912 -0.655068 0)
(-0.0226713 -0.671883 0)
(-0.0328365 -0.571915 0)
(-0.0507009 -0.170947 0)
(-0.0276528 -0.0892789 0)
(-0.0402719 0.130101 0)
(0.0127404 0.115289 0)
(0.0311666 -0.496043 0)
(0.0232986 -0.643451 0)
(0.00667569 -0.630287 0)
(-0.007886 -0.628872 0)
(-0.0236735 -0.641037 0)
(-0.0360212 -0.543082 0)
(-0.0418395 -0.187113 0)
(-0.0282218 -0.101121 0)
(-0.0416252 0.104685 0)
(-0.000443078 -0.022533 0)
(0.0424091 -0.494529 0)
(0.0245653 -0.613123 0)
(0.00709444 -0.602164 0)
(-0.0059495 -0.601343 0)
(-0.0229134 -0.61101 0)
(-0.0404916 -0.529084 0)
(-0.0194795 -0.210524 0)
(-0.0321345 -0.103535 0)
(-0.00767679 0.081274 0)
(-0.0251979 -0.0947212 0)
(0.0498286 -0.527115 0)
(0.0257561 -0.580971 0)
(0.00793292 -0.572766 0)
(-0.00960364 -0.571451 0)
(-0.0270779 -0.579873 0)
(-0.0447621 -0.543077 0)
(0.000378628 -0.216302 0)
(-0.0299361 -0.0897 0)
(0.0138524 0.0902395 0)
(0.0166252 -0.129558 0)
(0.0513219 -0.53394 0)
(0.0259224 -0.545681 0)
(0.00765338 -0.539021 0)
(-0.00743547 -0.539487 0)
(-0.0265091 -0.54577 0)
(-0.0443866 -0.544603 0)
(-0.0311355 -0.217 0)
(-0.033607 -0.0745043 0)
(0.0379466 0.0898665 0)
(0.0515799 -0.177428 0)
(0.0506148 -0.491408 0)
(0.0247776 -0.505311 0)
(0.00499447 -0.505008 0)
(-0.0129663 -0.506727 0)
(-0.0310413 -0.506628 0)
(-0.0610977 -0.491935 0)
(-0.0584696 -0.245435 0)
(-0.0542081 -0.0744955 0)
(0.0586828 0.0848571 0)
(0.0525886 -0.19452 0)
(0.0526038 -0.454883 0)
(0.0259942 -0.464439 0)
(0.00422857 -0.471078 0)
(-0.0130613 -0.470537 0)
(-0.0322342 -0.467217 0)
(-0.0606913 -0.450227 0)
(-0.0633284 -0.253897 0)
(-0.0648027 -0.0853484 0)
(0.0595753 0.0715908 0)
(0.0689892 -0.175058 0)
(0.0714213 -0.40229 0)
(0.0370713 -0.422268 0)
(0.0175797 -0.432194 0)
(-0.0060843 -0.430892 0)
(-0.0258479 -0.422306 0)
(-0.0604835 -0.401841 0)
(-0.0669274 -0.2465 0)
(-0.0467686 -0.110509 0)
(-0.00583814 0.0321807 0)
(0.0739988 -0.252328 0)
(0.0651372 -0.36108 0)
(0.0344433 -0.38072 0)
(0.0163117 -0.383765 0)
(-0.0103804 -0.383436 0)
(-0.0309114 -0.379766 0)
(-0.0630268 -0.362429 0)
(-0.0690775 -0.292339 0)
(-0.0131402 -0.127992 0)
(0.0612022 -0.0268066 0)
(0.0763819 -0.278615 0)
(0.0718086 -0.314628 0)
(0.0389138 -0.328924 0)
(0.0153697 -0.331951 0)
(-0.0154667 -0.331281 0)
(-0.0370648 -0.328305 0)
(-0.0648482 -0.311585 0)
(-0.0701903 -0.292573 0)
(-0.096675 -0.16289 0)
(0.105725 -0.161463 0)
(0.0774446 -0.21911 0)
(0.072594 -0.260784 0)
(0.0442947 -0.282565 0)
(0.0237555 -0.283994 0)
(-0.00483526 -0.282611 0)
(-0.0293878 -0.280605 0)
(-0.0648843 -0.259585 0)
(-0.0693721 -0.22617 0)
(-0.0922134 -0.221397 0)
(0.0599603 -0.114593 0)
(0.0500379 -0.192611 0)
(0.0433689 -0.233528 0)
(0.0163949 -0.245566 0)
(0.00487888 -0.249141 0)
(-0.0158434 -0.247741 0)
(-0.0237845 -0.242313 0)
(-0.0431835 -0.235172 0)
(-0.0515682 -0.194475 0)
(-0.0520201 -0.145125 0)
(0.0752894 -0.0193835 0)
(0.111009 -0.0340585 0)
(0.154146 -0.0358931 0)
(0.204826 -0.0377724 0)
(0.251224 -0.0542904 0)
(0.306573 -0.067275 0)
(0.380193 -0.0691019 0)
(0.44836 -0.0707835 0)
(0.512579 -0.0748241 0)
(0.583036 -0.075891 0)
(0.657152 -0.0759993 0)
(0.72811 -0.0781909 0)
(0.792244 -0.0756768 0)
(0.849766 -0.0671256 0)
(0.904253 -0.0572737 0)
(0.958815 -0.0450372 0)
(1.00464 -0.0262251 0)
(1.0335 -0.00343773 0)
(1.04783 0.0142777 0)
(1.05056 0.0183617 0)
(1.04777 0.0184632 0)
(1.03806 0.0181459 0)
(1.01106 0.0187048 0)
(0.975747 0.0143156 0)
(0.942029 0.0101116 0)
(0.917749 0.00218655 0)
(0.900213 0.0142775 0)
(0.88034 0.0153567 0)
(0.863178 0.0305138 0)
(0.826086 0.0445499 0)
(0.76156 0.038313 0)
(0.700196 0.0603309 0)
(0.626943 0.0576218 0)
(0.554977 0.128328 0)
(0.348173 0.212931 0)
(0.171512 0.0637748 0)
(0.10266 -0.0573186 0)
(0.0943276 -0.0444445 0)
(0.0702412 0.0109505 0)
(0.0506288 0.0600512 0)
(0.0160427 -0.135592 0)
(0.0701401 -0.154174 0)
(0.118166 -0.125405 0)
(0.167754 -0.136896 0)
(0.208306 -0.166474 0)
(0.262696 -0.175108 0)
(0.329999 -0.175869 0)
(0.380625 -0.191456 0)
(0.4467 -0.196008 0)
(0.515872 -0.190192 0)
(0.574539 -0.186546 0)
(0.624436 -0.181068 0)
(0.668794 -0.165229 0)
(0.715355 -0.147816 0)
(0.760158 -0.137456 0)
(0.811125 -0.134051 0)