/*--------------------------------*- C++ -*----------------------------------*\
  =========                 |
  \\      /  F ield         | OpenFOAM: The Open Source CFD Toolbox
   \\    /   O peration     | Website:  https://openfoam.org
    \\  /    A nd           | Version:  8
     \\/     M anipulation  |
\*---------------------------------------------------------------------------*/
FoamFile
{
    version     2.0;
    format      ascii;
    class       volScalarField;
    location    "5.8";
    object      alpha.water;
}
// * * * * * * * * * * * * * * * * * * * * * * * * * * * * * * * * * * * * * //

dimensions      [0 0 0 0 0 0 0];

internalField   nonuniform List<scalar> 
9150
(
1
1
1
1
1
1
1
1
1
1
1
1
1
1
1
1
1
1
1
1
1
1
1
1
1
1
1
1
1
1
1
1
1
1
1
1
1
1
1
1
1
1
1
1
1
1
1
1
1
1
1
1
1
1
1
1
1
1
1
1
1
1
1
1
1
1
1
1
1
1
1
1
1
1
1
1
1
1
1
1
1
1
1
1
1
1
1
1
1
1
1
1
1
1
1
1
1
1
1
1
1
1
1
1
1
1
1
1
1
1
1
1
1
1
1
1
1
1
1
1
1
1
1
1
1
1
1
1
1
1
1
1
1
1
1
1
1
1
1
1
1
1
1
1
1
1
1
1
1
1
0.979229
0.979229
0.979229
0.979233
0.985818
0.994275
0.994268
0.994261
0.99426
0.994257
0.989697
0.979229
0.98201
0.994714
0.994724
0.994274
0.993953
0.994257
0.994257
0.994256
0.988917
0.979297
0.979412
0.9917
0.994726
0.994615
0.993954
0.994254
0.994252
0.992529
0.979387
0.979385
0.988155
0.994825
0.994727
0.994825
0.994823
0.990992
0.974664
0.993659
0.993049
0.993934
0.994825
0.994825
0.994825
0.994825
0.994825
0.994825
0.966292
0.991105
0.994826
0.994825
0.994825
0.994825
0.994825
0.994825
0.994825
0.947447
0.902739
0.959641
0.992641
0.991971
0.937915
0.90995
0.909102
0.908865
0.908595
0.902777
0.902739
0.942898
0.858996
0.858996
0.963078
0.964061
0.947044
0.96159
0.971739
0.98898
0.993521
0.993511
0.992293
0.985519
0.972194
0.979668
0.989556
0.992456
0.992533
0.993536
0.993537
0.993536
0.992303
0.992303
0.978414
0.939429
0.939421
0.93955
0.977899
0.993533
0.993536
0.992267
0.992303
0.992303
0.957681
0.939421
0.940187
0.957144
0.926864
0.926955
0.969221
0.982581
0.9246
0.986037
0.964382
0.939502
0.939886
0.979506
0.983591
0.942851
0.90819
0.933919
0.789911
0.845227
0.983646
0.989062
0.989331
0.989174
0.953781
0.90819
0.90819
0.90819
0.787552
0.791332
0.959336
0.989411
0.989411
0.989383
0.911733
0.90822
0.908191
0.912523
0.787556
0.842001
0.989081
0.989234
0.964633
0.90995
0.909235
0.923793
0.923876
0.89083
0.854775
0.982459
0.976047
0.911972
0.912067
0.921708
0.908142
0.895176
0.895066
0.900508
0.976514
0.983385
0.914143
0.911972
0.911972
0.942514
0.994246
0.992415
0.994128
0.994228
0.984874
0.984846
0.915338
0.911972
0.932944
0.994246
0.994268
0.994283
0.994311
0.994283
0.9849
0.980406
0.916498
0.915978
0.992575
0.994241
0.994248
0.994296
0.99435
0.990179
0.984901
0.96812
0.917787
0.972956
0.993042
0.993402
0.988208
0.991289
0.99436
0.99435
0.976288
0.981178
0.988686
0.992052
0.991985
0.994188
0.994361
0.994366
0.994362
0.99436
0.989902
0.990413
0.991941
0.991977
0.992067
0.990629
0.994364
0.994367
0.994366
0.994359
0.989182
0.990115
0.990206
0.911423
0.841256
0.994367
0.994367
0.994367
0.994367
0.994364
0.98849
0.989182
0.926745
0.689108
0.683921
0.794601
0.987865
0.994367
0.994364
0.994344
0.98914
0.957071
0.713071
0.68319
0.683203
0.683383
0.698089
0.806607
0.866063
0.844961
0.992583
0.891161
0.68319
0.683152
0.68315
0.683159
0.683176
0.683221
0.68335
0.717001
0.99294
0.968388
0.728885
0.68315
0.683146
0.683147
0.683148
0.683149
0.68315
0.730344
0.993003
0.99294
0.984464
0.834179
0.683147
0.683147
0.683147
0.683148
0.683148
0.761476
0.99294
0.95096
0.840615
0.809934
0.793089
0.801663
0.7632
0.683149
0.708728
0.926002
0.815665
0.84803
0.801204
0.801186
0.888734
0.888801
0.888798
0.88875
0.887062
0.804519
0.963989
0.93294
0.8633
0.797934
0.755013
0.783278
0.756412
0.650091
0.526435
0.50063
0.940201
0.876662
0.666873
0.500207
0.500234
0.500196
0.499979
0.499979
0.499979
0.500172
0.9569
0.727365
0.500208
0.500207
0.500208
0.500237
0.500212
0.500169
0.531328
0.500714
0.916405
0.698405
0.500343
0.500208
0.500237
0.500631
0.507152
0.712371
0.733007
0.733649
0.309177
0.46302
0.620575
0.661605
0.716752
0.723309
0.729046
0.733007
0.736101
0.737353
0.143448
0.143448
0.140001
0.198261
0.419325
0.44295
0.447597
0.545694
0.568887
0.634651
0.380184
0.241879
0.136406
0.136065
0.135712
0.13557
0.135599
0.135635
0.135566
0.135636
0.990422
0.906753
0.613744
0.277623
0.141053
0.135711
0.135617
0.135627
0.135637
0.135631
0.960419
0.974839
0.974453
0.927816
0.701493
0.357695
0.144324
0.135665
0.135616
0.135046
0.690009
0.914992
0.975167
0.973014
0.971187
0.968271
0.510852
0.13762
0.135414
0.134447
0.687315
0.78458
0.97276
0.97334
0.951525
0.828637
0.386751
0.135691
0.135659
0.135183
0.903708
0.983162
0.980438
0.867614
0.398151
0.136511
0.135902
0.135841
0.135733
0.135772
0.983162
0.983931
0.98173
0.406104
0.141532
0.137897
0.136349
0.135977
0.135829
0.135824
0.978824
0.984719
0.954473
0.676733
0.291995
0.140217
0.13779
0.136467
0.136046
0.135295
0.977339
0.985842
0.984728
0.984728
0.926745
0.531189
0.146285
0.140557
0.215131
0.255432
0.987917
0.987373
0.985842
0.984726
0.982061
0.915186
0.539439
0.487334
0.778996
0.911912
0.987374
0.947785
0.864056
0.960034
0.97939
0.918548
0.954242
0.95375
0.954042
0.954094
0.699721
0.487964
0.733763
0.959247
0.974517
0.962735
0.957694
0.954493
0.953744
0.954042
0.256948
0.39175
0.902905
0.954956
0.96067
0.955825
0.946099
0.91372
0.900708
0.924848
0.256704
0.370076
0.909156
0.950006
0.933308
0.792645
0.655887
0.527219
0.489946
0.570406
0.256704
0.416916
0.931978
0.946344
0.754659
0.489643
0.489651
0.489646
0.489651
0.489946
0.256704
0.428627
0.749125
0.943765
0.694406
0.490524
0.489643
0.489651
0.489946
0.492908
0.256704
0.25672
0.33716
0.604695
0.753213
0.725456
0.490524
0.490629
0.597215
0.960427
0.25672
0.256893
0.257188
0.276777
0.752486
0.882741
0.79021
0.603267
0.979936
0.992022
0.257184
0.257192
0.257933
0.258523
0.32431
0.892154
0.989442
0.979732
0.95263
0.991557
0.261734
0.259214
0.258526
0.260206
0.261786
0.652739
0.990952
0.988393
0.98491
0.982323
0.601712
0.514063
0.267304
0.261827
0.26413
0.674506
0.99149
0.989981
0.986038
0.982509
0.761857
0.847518
0.72874
0.264281
0.310805
0.827704
0.992063
0.991344
0.97753
0.736401
0.382657
0.865208
0.879936
0.559066
0.321894
0.753673
0.993006
0.992613
0.816068
0.47313
0.288094
0.811629
0.896389
0.835409
0.347572
0.673549
0.993556
0.993535
0.763767
0.592725
0.254785
0.4481
0.912843
0.927199
0.892296
0.697216
0.993943
0.994201
0.98594
0.994794
0.238454
0.22138
0.609314
0.944236
0.951466
0.955814
0.985241
0.994711
0.994727
0.994763
0.430387
0.206779
0.197004
0.66695
0.946566
0.953786
0.952403
0.994698
0.994711
0.994727
0.427966
0.421901
0.181805
0.259488
0.9054
0.828413
0.993452
0.994607
0.954669
0.914859
0.347839
0.421886
0.174972
0.193068
0.842368
0.726182
0.98129
0.99256
0.798304
0.559835
0.017854
0.0189034
0.0422081
0.14786
0.866664
0.725926
0.39733
0.953921
0.950047
0.601298
0.0173663
0.027123
0.0319192
0.073766
0.867068
0.809139
0.139378
0.146605
0.228601
0.312208
0.00326509
0.00579497
2.83066e-05
0.0827065
0.868496
0.812855
0.139823
0.106665
0.100326
0.0964555
0.00123497
0.00279432
2.83562e-05
0.0902537
0.876226
0.824923
0.142367
0.18307
0.120759
0.0783606
0.00109962
0.00111322
2.83066e-05
0.0979644
0.882205
0.839156
0.139854
0.187687
0.187751
0.0776714
5.72172e-05
8.80759e-05
2.83562e-05
0.117488
0.8887
0.867493
0.139825
0.187781
0.163876
0.0732126
0.00047868
0.000316892
2.88831e-05
0.126666
0.888704
0.877243
0.140698
0.187687
0.0274078
7.99712e-05
0.000580602
0.000555109
3.2539e-05
0.135754
0.88857
0.8797
0.148261
0.159442
6.25683e-05
6.1141e-05
0.000580687
0.000498312
4.28164e-05
0.137338
0.888719
0.878609
0.147067
0.135994
6.1141e-05
6.1141e-05
0.00058068
0.000401821
3.39743e-05
0.134647
0.888719
0.880345
0.140541
0.142603
0.000584182
0.000239152
0.000580684
0.000341165
3.15534e-05
0.117723
0.884227
0.887207
0.131269
0.0484241
0.00155323
0.00164105
0.00058068
0.000379779
2.81988e-05
0.112921
0.883744
0.889465
0.118787
3.65726e-05
0.00181755
0.00252407
0.000579684
0.000378156
2.53891e-05
0.116459
0.894064
0.891815
0.112539
1.80824e-05
0.00247171
0.00254131
0.000576843
0.000342322
2.43996e-05
0.134588
0.911726
0.908794
0.134347
5.28499e-06
0.00254395
0.00255684
0.000547507
0.000280327
2.40431e-05
0.180268
0.930471
0.932334
0.184357
5.28499e-06
0.00215679
0.00252415
0.000461957
0.000252523
2.36063e-05
0.234603
0.949993
0.949022
0.231987
4.5782e-06
0.00117623
0.000103319
0.000414685
0.00027679
2.27373e-05
0.273519
0.960745
0.960828
0.273764
3.88235e-06
0.000705079
9.35164e-05
0.000418716
0.000273347
2.19655e-05
0.298707
0.966778
0.96673
0.299089
3.84634e-06
3.88173e-06
2.41484e-05
0.000415889
9.26516e-05
2.16661e-05
0.312008
0.970011
0.969965
0.312402
3.80033e-06
1.33377e-05
1.83019e-05
0.000179243
2.16683e-05
2.17112e-05
0.323385
0.973068
0.972939
0.32403
3.79308e-06
3.76785e-06
4.4112e-06
2.24509e-05
2.17112e-05
2.16711e-05
0.346236
0.977835
0.977566
0.346595
3.76786e-06
3.74611e-06
3.74608e-06
7.08405e-05
7.41341e-05
2.17112e-05
0.391046
0.983482
0.983327
0.392166
3.79455e-06
3.74604e-06
3.74604e-06
0.000189957
0.000101372
2.22887e-05
0.466668
0.988789
0.98864
0.46796
4.07946e-06
6.36698e-05
3.74608e-06
0.000190753
5.99044e-05
2.39247e-05
0.540311
0.991809
0.991483
0.541178
5.93087e-06
0.000337779
1.03524e-05
0.000185435
2.59053e-05
2.7197e-05
0.607958
0.993902
0.993447
0.607406
1.43638e-05
0.000451841
0.000667442
5.49159e-05
2.59053e-05
2.58971e-05
0.668519
0.995755
0.995351
0.667933
4.89195e-05
0.000495888
0.000667705
6.42559e-05
2.58355e-05
2.59053e-05
0.741217
0.997262
0.997003
0.742032
9.65242e-06
3.38344e-06
1.8579e-05
0.000101858
2.59053e-05
0.0192861
0.815502
0.998491
0.998211
0.815092
0.024388
5.05984e-07
4.40934e-07
2.75894e-05
2.66693e-05
0.102892
0.886533
0.99914
0.999208
0.886176
0.110266
4.40934e-07
4.36209e-07
2.81253e-05
2.73831e-05
0.196226
0.936971
0.999521
0.999716
0.952188
0.229254
4.38288e-07
4.38873e-07
2.88808e-05
2.81253e-05
0.378905
0.979429
0.999896
0.999847
0.98635
0.394654
5.6451e-07
2.22214e-07
1.92339e-05
3.39034e-05
0.654482
0.999904
0.99993
0.999983
0.999876
0.644477
1.00027e-05
4.35434e-09
9.70228e-07
0.0744273
0.853439
0.999949
0.999998
0.999995
0.999983
0.902648
0.117193
4.67542e-10
3.81714e-07
0.576927
0.999687
0.999996
1
1
0.999995
0.999788
0.592736
-5.81578e-10
0.348978
0.97582
1
1
1
1
1
1
0.973943
0.344036
0.991426
0.988933
0.988933
0.988933
0.988942
0.992198
0.99366
0.99366
0.99366
0.99366
0.992739
0.988244
0.988243
0.989151
0.993718
0.993719
0.993719
0.993719
0.980524
0.95016
0.95013
0.95799
0.969428
0.986087
0.993508
0.99345
0.980056
0.962062
0.975114
0.975915
0.975029
0.970528
0.978521
0.989656
0.990283
0.981507
0.957345
0.957246
0.957537
0.957241
0.993625
0.993633
0.988933
0.993421
0.99366
0.99366
0.99366
0.99366
0.99366
0.99366
0.988742
0.988243
0.988244
0.99177
0.993719
0.993719
0.993719
0.984865
0.950364
0.950141
0.966979
0.973937
0.964431
0.97593
0.993633
0.993508
0.950149
0.863928
0.914155
0.959971
0.863027
0.863327
0.907185
0.990283
0.990701
0.982389
0.854964
0.830189
0.844648
0.856753
0.993659
0.993659
0.993638
0.99366
0.99366
0.99366
0.99366
0.99366
0.99028
0.98946
0.991524
0.993109
0.992941
0.993719
0.993719
0.993719
0.993719
0.96387
0.950069
0.953429
0.993656
0.973782
0.964431
0.972987
0.993716
0.99353
0.912476
0.863789
0.86332
0.863027
0.863027
0.863027
0.863327
0.944652
0.990848
0.990994
0.91377
0.829509
0.829508
0.829508
0.993659
0.993659
0.993628
0.993274
0.99366
0.99366
0.99366
0.98837
0.988262
0.993493
0.993719
0.993719
0.993719
0.993719
0.993719
0.993719
0.993719
0.976503
0.950069
0.981985
0.9937
0.988763
0.967033
0.982375
0.993727
0.993718
0.975308
0.909113
0.891371
0.933803
0.93913
0.893693
0.952118
0.990658
0.990994
0.991366
0.992354
0.870155
0.829508
0.829508
0.993659
0.992484
0.991486
0.991487
0.993243
0.99366
0.99366
0.986266
0.990884
0.993719
0.993719
0.993719
0.993719
0.993719
0.993719
0.993719
0.993719
0.992989
0.982686
0.993693
0.993702
0.993703
0.993714
0.993727
0.993727
0.993727
0.993723
0.991756
0.988508
0.988599
0.988572
0.99263
0.992974
0.990759
0.967906
0.982829
0.992658
0.969206
0.830412
0.829508
0.993654
0.993645
0.991907
0.991683
0.993656
0.993657
0.990057
0.986069
0.986095
0.991394
0.993719
0.993719
0.993719
0.993317
0.993491
0.993718
0.993719
0.993478
0.980018
0.979912
0.993596
0.993709
0.993722
0.993727
0.993727
0.993727
0.993727
0.986593
0.981664
0.981671
0.98167
0.993146
0.993038
0.96353
0.951588
0.955003
0.993019
0.98255
0.83645
0.829512
0.9936
0.993642
0.993638
0.993637
0.993646
0.993655
0.98603
0.986035
0.986072
0.986095
0.991863
0.993719
0.993719
0.993284
0.993265
0.993265
0.9933
0.99374
0.993738
0.993607
0.976314
0.934075
0.864573
0.900111
0.971981
0.993727
0.993723
0.985894
0.992187
0.994329
0.994333
0.994333
0.992762
0.951947
0.951588
0.959094
0.994096
0.969161
0.833286
0.829576
0.992832
0.988082
0.989948
0.993635
0.993187
0.990233
0.978762
0.988586
0.993642
0.993678
0.993685
0.993684
0.993592
0.993716
0.993735
0.99345
0.993741
0.993741
0.993741
0.993742
0.993735
0.896603
0.856025
0.854828
0.853588
0.853509
0.864251
0.966403
0.994281
0.99433
0.994333
0.994333
0.994333
0.978937
0.951588
0.984238
0.994276
0.959333
0.839223
0.854965
0.983527
0.983257
0.98326
0.989224
0.992491
0.984773
0.980231
0.969406
0.971487
0.979099
0.987659
0.993308
0.993737
0.993739
0.99374
0.993741
0.993741
0.993741
0.993742
0.993741
0.993741
0.993102
0.874105
0.853584
0.853467
0.853202
0.853199
0.853199
0.916833
0.994197
0.99433
0.994333
0.994333
0.993089
0.976063
0.993731
0.994287
0.923394
0.836643
0.928666
0.984399
0.987587
0.98403
0.985456
0.993842
0.993724
0.993694
0.947824
0.93584
0.935833
0.93584
0.941396
0.97522
0.985271
0.992196
0.99374
0.993741
0.993741
0.993741
0.993742
0.993741
0.993741
0.992605
0.97863
0.862719
0.853199
0.847009
0.853199
0.910729
0.993549
0.994307
0.994332
0.994334
0.994334
0.9925
0.994287
0.994288
0.910033
0.836643
0.947309
0.993974
0.993973
0.993975
0.993973
0.993972
0.991538
0.984069
0.936773
0.936022
0.936493
0.935833
0.936409
0.970127
0.934637
0.934211
0.934193
0.976329
0.993742
0.993741
0.993741
0.993741
0.993743
0.993739
0.993704
0.993364
0.964327
0.843205
0.945683
0.993479
0.994287
0.99433
0.994334
0.994334
0.994334
0.992216
0.994256
0.994289
0.945277
0.83661
0.944723
0.992916
0.993975
0.993973
0.993842
0.97995
0.949218
0.949463
0.972029
0.975297
0.990027
0.98401
0.983856
0.979912
0.955854
0.935718
0.890509
0.83836
0.861783
0.908975
0.939403
0.963304
0.974549
0.988887
0.99346
0.993198
0.954392
0.746358
0.838861
0.989664
0.914681
0.838641
0.960585
0.994334
0.994334
0.994284
0.994289
0.994289
0.933141
0.836577
0.959463
0.971747
0.992611
0.982002
0.987465
0.943117
0.943093
0.961647
0.994157
0.994157
0.994157
0.994154
0.977297
0.865624
0.719994
0.700338
0.700243
0.701831
0.73892
0.759525
0.777843
0.782247
0.76741
0.768116
0.812619
0.991985
0.946165
0.741334
0.739087
0.737695
0.699959
0.699802
0.811278
0.991465
0.994305
0.994289
0.994289
0.994289
0.930075
0.836599
0.972288
0.956796
0.94456
0.969655
0.986513
0.945067
0.955254
0.994147
0.994157
0.994157
0.994154
0.994076
0.872027
0.73652
0.728006
0.783386
0.923717
0.993627
0.994852
0.994851
0.994851
0.994841
0.994416
0.993951
0.993336
0.993286
0.986998
0.975031
0.741186
0.699959
0.699672
0.699662
0.699792
0.926681
0.994272
0.994289
0.994289
0.994289
0.946706
0.874251
0.983975
0.89083
0.946232
0.993745
0.993698
0.993205
0.993191
0.994137
0.994147
0.994149
0.994076
0.992379
0.903483
0.865732
0.994857
0.994864
0.994867
0.994864
0.994857
0.994852
0.994841
0.994775
0.973091
0.937051
0.966827
0.993255
0.989876
0.98918
0.837202
0.699672
0.699662
0.699662
0.699662
0.821828
0.993353
0.994289
0.994289
0.994289
0.979952
0.987618
0.993041
0.985132
0.993875
0.993812
0.993361
0.992579
0.989848
0.9719
0.931463
0.914062
0.945949
0.988725
0.994273
0.994813
0.994862
0.994867
0.994872
0.994867
0.994862
0.99477
0.981789
0.829052
0.624986
0.526633
0.587997
0.800714
0.940998
0.97545
0.903753
0.823776
0.74814
0.699662
0.699673
0.873905
0.994289
0.994289
0.994289
0.994289
0.994289
0.994286
0.994284
0.994186
0.994142
0.974809
0.955114
0.928759
0.852422
0.725324
0.71351
0.713227
0.713363
0.800514
0.947908
0.960712
0.993387
0.994872
0.994878
0.994872
0.994832
0.986179
0.729048
0.489241
0.488588
0.489275
0.489574
0.489519
0.509994
0.734354
0.930076
0.989481
0.907585
0.746811
0.83547
0.994289
0.994289
0.994289
0.994289
0.994289
0.994289
0.994286
0.994284
0.994228
0.992438
0.937067
0.772065
0.71488
0.714732
0.715524
0.716048
0.713229
0.713222
0.713363
0.713968
0.84146
0.99364
0.992837
0.994916
0.994878
0.994619
0.913526
0.51994
0.488857
0.489172
0.489919
0.490008
0.488761
0.48796
0.584653
0.984175
0.994235
0.993577
0.984528
0.991096
0.994292
0.994291
0.994289
0.994289
0.992984
0.981613
0.978448
0.981281
0.98581
0.969489
0.764955
0.718343
0.714892
0.765924
0.893829
0.893829
0.893824
0.893534
0.801518
0.71674
0.885334
0.994147
0.994958
0.994953
0.994885
0.994121
0.837012
0.490023
0.489308
0.489983
0.490038
0.490046
0.489957
0.489333
0.613201
0.994235
0.994267
0.994272
0.99428
0.994283
0.994287
0.99429
0.99428
0.979623
0.978182
0.978173
0.978383
0.985685
0.994262
0.990541
0.889445
0.827409
0.875286
0.877136
0.879953
0.887893
0.863827
0.733272
0.73333
0.743381
0.979991
0.994969
0.994972
0.994958
0.994838
0.99406
0.941052
0.56759
0.490021
0.490034
0.490014
0.490022
0.490003
0.490481
0.497045
0.835902
0.994272
0.994276
0.994283
0.994279
0.994282
0.994283
0.994288
0.994268
0.986833
0.97815
0.985228
0.985689
0.994348
0.994256
0.993541
0.932484
0.656105
0.638957
0.638966
0.639254
0.641502
0.827348
0.994899
0.994979
0.994979
0.994979
0.994965
0.994332
0.988485
0.988098
0.987038
0.983922
0.753848
0.490015
0.490015
0.490015
0.489588
0.48852
0.487128
0.536016
0.934967
0.994272
0.994276
0.994275
0.994279
0.994277
0.994269
0.994006
0.987141
0.963805
0.940089
0.935022
0.994311
0.994008
0.98356
0.739544
0.638957
0.638957
0.638957
0.639056
0.639921
0.718986
0.993305
0.994969
0.994979
0.994969
0.994893
0.994377
0.946952
0.901019
0.980481
0.983794
0.983794
0.983318
0.944277
0.610015
0.490104
0.543966
0.891491
0.91084
0.938556
0.946684
0.939115
0.939836
0.940907
0.890871
0.879239
0.893415
0.875315
0.767849
0.76717
0.76717
0.994345
0.994264
0.993606
0.946657
0.681765
0.638957
0.639056
0.639204
0.639253
0.639946
0.754991
0.99494
0.994969
0.994914
0.994893
0.993643
0.918006
0.865858
0.867654
0.977573
0.98342
0.982975
0.982903
0.981337
0.882314
0.751831
0.719703
0.715616
0.714203
0.714213
0.714213
0.713949
0.724814
0.711659
0.711659
0.721719
0.852946
0.894466
0.818724
0.776127
0.984119
0.980519
0.991023
0.990799
0.990167
0.930423
0.667621
0.639253
0.639969
0.64088
0.641113
0.702369
0.988035
0.994898
0.995027
0.995021
0.968403
0.863992
0.863992
0.863992
0.86981
0.974022
0.979959
0.930308
0.916119
0.946223
0.946322
0.94598
0.851979
0.714796
0.713949
0.713725
0.712825
0.71226
0.904988
0.988527
0.988524
0.988524
0.988503
0.979705
0.820171
0.860664
0.990723
0.977017
0.967414
0.979186
0.980578
0.96068
0.970761
0.976663
0.961983
0.841977
0.855858
0.9866
0.995027
0.995027
0.995026
0.994992
0.975693
0.872546
0.867858
0.867858
0.869066
0.869933
0.871027
0.911417
0.946223
0.944179
0.903946
0.93253
0.936936
0.836778
0.713804
0.881822
0.984011
0.987102
0.988528
0.98852
0.984116
0.967068
0.956332
0.976602
0.946495
0.946498
0.946559
0.958396
0.986812
0.986812
0.979469
0.966185
0.984117
0.982229
0.860969
0.883422
0.995027
0.995027
0.995027
0.995026
0.995023
0.995019
0.99464
0.994681
0.994693
0.994432
0.9572
0.878073
0.860245
0.859521
0.859686
0.875241
0.940372
0.942658
0.944588
0.861919
0.841613
0.919434
0.98852
0.988374
0.823878
0.755433
0.930638
0.985793
0.985845
0.985929
0.986164
0.986639
0.986812
0.986824
0.986826
0.986825
0.986831
0.98683
0.986472
0.975964
0.935537
0.935455
0.95202
0.972838
0.987847
0.972977
0.989668
0.994695
0.994675
0.994645
0.994597
0.994581
0.994583
0.99458
0.877935
0.794903
0.794888
0.905518
0.947553
0.840647
0.840338
0.904603
0.988473
0.943557
0.730451
0.730316
0.967789
0.98521
0.985793
0.983221
0.973456
0.972273
0.977135
0.986667
0.986824
0.986826
0.986817
0.975162
0.985974
0.985413
0.985235
0.972223
0.901145
0.900954
0.900988
0.924728
0.978806
0.9828
0.994645
0.994597
0.994551
0.994517
0.994581
0.991568
0.973248
0.969702
0.794888
0.824324
0.980533
0.840437
0.883671
0.987405
0.988178
0.79111
0.730337
0.738904
0.945596
0.915352
0.867234
0.763735
0.629743
0.657916
0.836487
0.986259
0.986752
0.98682
0.986821
0.983633
0.891668
0.92761
0.982887
0.980768
0.976366
0.931919
0.944589
0.971713
0.974177
0.959068
0.899902
0.951196
0.979293
0.914821
0.939031
0.966318
0.978174
0.978141
0.795014
0.897929
0.981626
0.969379
0.988537
0.988542
0.963785
0.730898
0.730451
0.943147
0.599564
0.536428
0.551367
0.562759
0.512234
0.536523
0.745162
0.975969
0.951363
0.97518
0.986809
0.986455
0.889421
0.884056
0.883925
0.884604
0.885344
0.907434
0.956361
0.970078
0.727039
0.626727
0.627939
0.743811
0.67107
0.456558
0.689595
0.960885
0.978137
0.940784
0.795682
0.958183
0.985866
0.988572
0.988577
0.985802
0.82644
0.73071
0.765561
0.96909
0.500546
0.505577
0.549916
0.512234
0.512171
0.670728
0.856162
0.859553
0.662594
0.631099
0.893622
0.98635
0.951405
0.916259
0.942805
0.978879
0.978915
0.846963
0.633765
0.627528
0.626727
0.62672
0.705822
0.718444
0.457401
0.407372
0.608089
0.945593
0.978096
0.96946
0.885211
0.90712
0.970882
0.988577
0.988561
0.927683
0.732027
0.732184
0.936963
0.969092
0.509313
0.620561
0.609175
0.512172
0.512234
0.603823
0.845177
0.766234
0.631391
0.631099
0.700396
0.928981
0.984541
0.984761
0.988335
0.989344
0.989344
0.989344
0.777326
0.627208
0.626674
0.626727
0.651492
0.74798
0.752138
0.426295
0.384102
0.45547
0.922669
0.968836
0.869862
0.574649
0.868791
0.988561
0.988094
0.847499
0.731992
0.76902
0.969003
0.969086
0.506487
0.594663
0.513305
0.512629
0.512114
0.512692
0.74426
0.835106
0.835106
0.827282
0.548107
0.549081
0.727483
0.734017
0.961965
0.989331
0.989344
0.989342
0.98896
0.883741
0.632065
0.626677
0.639865
0.756174
0.752506
0.443852
0.380846
0.378948
0.462097
0.624858
0.455395
0.379054
0.686162
0.985438
0.987606
0.824234
0.732204
0.771979
0.949065
0.969003
0.51699
0.520201
0.5133
0.517006
0.512692
0.514651
0.75128
0.83506
0.835106
0.817954
0.529047
0.524676
0.525265
0.885472
0.98279
0.98893
0.972868
0.95817
0.964803
0.974343
0.974087
0.814395
0.647149
0.760726
0.75355
0.615768
0.378637
0.378132
0.377535
0.377388
0.377206
0.378897
0.7479
0.987509
0.987509
0.872738
0.732932
0.743097
0.897526
0.951556
0.748952
0.607773
0.755162
0.858752
0.66833
0.553485
0.657882
0.827471
0.547764
0.524759
0.524638
0.524699
0.665101
0.95732
0.988044
0.988486
0.94881
0.881832
0.881048
0.881529
0.949971
0.964849
0.873047
0.762232
0.75189
0.699111
0.379242
0.377536
0.377299
0.377118
0.377092
0.401817
0.913141
0.987168
0.987509
0.963103
0.888579
0.857297
0.920495
0.909239
0.755756
0.845113
0.878403
0.887174
0.88868
0.895704
0.848166
0.564446
0.536941
0.528675
0.524759
0.524638
0.524761
0.742579
0.946708
0.983848
0.977763
0.97402
0.945961
0.881048
0.923664
0.966637
0.935005
0.779767
0.768419
0.77166
0.459779
0.377299
0.377118
0.377092
0.377089
0.532399
0.969265
0.985836
0.981286
0.986946
0.986923
0.987144
0.987102
0.908951
0.142944
0.25966
0.433898
0.650379
0.846177
0.907156
0.916813
0.922938
0.860813
0.865182
0.620614
0.524761
0.528794
0.606114
0.867291
0.958122
0.838859
0.883993
0.931029
0.89248
0.958354
0.967591
0.967814
0.843985
0.737019
0.771814
0.605444
0.377309
0.377097
0.377087
0.377092
0.709775
0.991558
0.962142
0.771324
0.986256
0.987144
0.987144
0.987144
0.913083
0.13563
0.135628
0.135627
0.135628
0.212113
0.513584
0.826157
0.943608
0.943608
0.943608
0.809461
0.528794
0.729376
0.985339
0.987849
0.988098
0.726721
0.548893
0.546181
0.860326
0.967166
0.967939
0.96767
0.832896
0.733658
0.736756
0.897565
0.573567
0.377319
0.377097
0.632074
0.976495
0.993445
0.965903
0.640973
0.862464
0.986707
0.987144
0.987103
0.925314
0.135245
0.13563
0.135628
0.135627
0.135633
0.135642
0.199144
0.681319
0.940811
0.931843
0.774931
0.560724
0.847336
0.987718
0.988899
0.988355
0.988097
0.816054
0.35266
0.471047
0.904728
0.967556
0.96783
0.846825
0.730296
0.731711
0.957163
0.939328
0.758975
0.805927
0.969214
0.993809
0.993557
0.936571
0.542432
0.641569
0.901477
0.986995
0.987056
0.929242
0.134652
0.136415
0.136141
0.135678
0.135642
0.135647
0.135649
0.225027
0.82722
0.900595
0.748738
0.756934
0.934579
0.988908
0.989361
0.988899
0.988356
0.816347
0.327698
0.308733
0.640635
0.966076
0.967556
0.852808
0.734
0.765132
0.978866
0.994147
0.994075
0.994159
0.994356
0.994016
0.97253
0.684313
0.504681
0.500918
0.728554
0.982773
0.978231
0.924216
0.136561
0.137064
0.137069
0.137068
0.136653
0.135623
0.135652
0.156263
0.754925
0.881771
0.748738
0.82208
0.985537
0.98943
0.98958
0.989361
0.804371
0.327954
0.308099
0.30751
0.362245
0.881013
0.973893
0.914416
0.779425
0.906262
0.993563
0.994419
0.994438
0.994439
0.99443
0.979635
0.878428
0.856489
0.611016
0.454672
0.663453
0.973822
0.935938
0.927742
0.136712
0.13705
0.137064
0.137068
0.136241
0.135585
0.135624
0.144532
0.692377
0.911242
0.755355
0.886917
0.988978
0.989835
0.989649
0.924891
0.365604
0.308095
0.307473
0.307345
0.30751
0.669215
0.981007
0.989186
0.983228
0.992417
0.994429
0.994446
0.994464
0.994453
0.994439
0.944813
0.934153
0.93386
0.762187
0.450469
0.727512
0.969768
0.923489
0.924054
0.1354
0.136191
0.13653
0.135532
0.135574
0.135572
0.135585
0.292417
0.818829
0.924319
0.9437
0.959265
0.989848
0.990102
0.989835
0.861033
0.325426
0.307473
0.307345
0.30733
0.307345
0.455253
0.955963
0.993548
0.994263
0.994404
0.994453
0.994464
0.994464
0.994464
0.994403
0.984287
0.939457
0.479124
0.44877
0.45061
0.794231
0.970572
0.931889
0.904699
0.134776
0.135022
0.135523
0.135511
0.135571
0.135584
0.135672
0.572066
0.916759
0.938125
0.97442
0.989861
0.990103
0.990113
0.990102
0.824837
0.324084
0.307346
0.307331
0.307337
0.307334
0.48733
0.968141
0.994255
0.994376
0.994397
0.994415
0.994406
0.994413
0.994452
0.994425
0.994383
0.79467
0.448308
0.448308
0.464852
0.920577
0.971133
0.940175
0.883253
0.196172
0.13483
0.135043
0.135701
0.135635
0.135738
0.392797
0.891329
0.926666
0.930056
0.984921
0.990012
0.990113
0.990105
0.985236
0.742079
0.544171
0.370527
0.307348
0.309957
0.360613
0.713747
0.980641
0.994033
0.994207
0.994395
0.994389
0.994377
0.994385
0.994413
0.994416
0.994415
0.976249
0.569372
0.448308
0.691116
0.971133
0.971133
0.94572
0.882953
0.77808
0.333659
0.137769
0.136705
0.152537
0.542555
0.940167
0.936742
0.854047
0.865678
0.969677
0.989958
0.990105
0.990111
0.895329
0.728368
0.967085
0.869434
0.80849
0.816848
0.788135
0.786196
0.925509
0.947071
0.992511
0.994398
0.994414
0.994422
0.994422
0.994423
0.943744
0.967941
0.976175
0.967584
0.510807
0.843077
0.969703
0.971133
0.902732
0.882878
0.954042
0.927891
0.512931
0.48803
0.867214
0.948771
0.943529
0.940167
0.838004
0.897877
0.988095
0.989769
0.989958
0.989719
0.830694
0.830406
0.993705
0.99353
0.993369
0.99315
0.956765
0.895267
0.895678
0.947486
0.992918
0.994394
0.994405
0.994418
0.994422
0.944944
0.819418
0.842525
0.976087
0.938111
0.578746
0.88598
0.967588
0.907758
0.882878
0.882878
0.954113
0.953772
0.95343
0.95337
0.95235
0.951021
0.948771
0.819409
0.834114
0.960247
0.979119
0.971991
0.985359
0.98969
0.940873
0.938448
0.993757
0.993751
0.993732
0.993698
0.993583
0.993458
0.983007
0.987931
0.994388
0.994392
0.994395
0.994405
0.994418
0.886073
0.814646
0.854295
0.860061
0.779288
0.821914
0.953447
0.946321
0.906863
0.910374
0.882878
0.953508
0.95343
0.95337
0.910809
0.920968
0.872173
0.768056
0.792881
0.834581
0.762846
0.708896
0.778
0.94386
0.987128
0.846148
0.823203
0.993751
0.993757
0.993751
0.993732
0.993698
0.993762
0.994207
0.994384
0.994393
0.994393
0.994393
0.994395
0.951774
0.798309
0.808689
0.80787
0.808147
0.875833
0.96067
0.958409
0.870425
0.923515
0.994368
0.897057
0.720189
0.841304
0.845536
0.697217
0.698095
0.729533
0.747482
0.544747
0.424407
0.251664
0.359871
0.842586
0.941796
0.692736
0.315056
0.406695
0.805775
0.882431
0.918195
0.959192
0.983606
0.98698
0.958326
0.878556
0.707316
0.582961
0.517342
0.523669
0.420298
0.566357
0.793621
0.866623
0.910173
0.963791
0.95016
0.874509
0.905957
0.994415
0.994415
0.98463
0.491327
0.496731
0.630878
0.829437
0.8231
0.664887
0.289325
0.161521
0.162369
0.264109
0.83906
0.953004
0.568765
0.311454
0.311441
0.3116
0.318855
0.337583
0.363605
0.415771
0.467769
0.482478
0.457069
0.416965
0.402424
0.400469
0.397518
0.394491
0.397518
0.400223
0.816287
0.992467
0.990381
0.963767
0.880407
0.889439
0.994415
0.994415
0.994415
0.994414
0.701465
0.951241
0.98262
0.96051
0.504134
0.156391
0.156466
0.158435
0.237213
0.819518
0.991215
0.973157
0.509575
0.311441
0.31142
0.311406
0.3116
0.312074
0.312968
0.314702
0.317805
0.322071
0.326003
0.355975
0.464344
0.494159
0.466635
0.395344
0.395324
0.557465
0.924587
0.992755
0.992427
0.916304
0.878506
0.945343
0.994414
0.994415
0.994414
0.994413
0.991893
0.991679
0.989958
0.643689
0.156391
0.15625
0.156391
0.158988
0.518118
0.991215
0.991472
0.991378
0.970731
0.605602
0.31142
0.311467
0.311467
0.356186
0.38744
0.449007
0.541961
0.633236
0.699218
0.807749
0.888005
0.929617
0.932335
0.835424
0.804308
0.925923
0.993135
0.993373
0.96092
0.875096
0.877071
0.978307
0.994389
0.994409
0.994413
0.994392
0.992072
0.991893
0.986358
0.562671
0.15625
0.15625
0.15625
0.157788
0.312703
0.92733
0.991435
0.991655
0.991839
0.962786
0.865405
0.828628
0.846877
0.884507
0.90687
0.940281
0.966484
0.982267
0.99181
0.993163
0.993923
0.993956
0.993963
0.993898
0.993851
0.993753
0.993761
0.993731
0.955738
0.875158
0.875097
0.953822
0.974423
0.993801
0.994154
0.969089
0.991893
0.991563
0.989878
0.906193
0.321872
0.15625
0.159693
0.301508
0.588681
0.919149
0.991514
0.991839
0.991839
0.991839
0.991662
0.990727
0.985416
0.982408
0.979731
0.969725
0.972305
0.993405
0.99371
0.993923
0.994025
0.994027
0.994027
0.994024
0.994009
0.993881
0.993753
0.993762
0.991244
0.930964
0.917692
0.726218
0.755781
0.939907
0.993189
0.9522
0.99128
0.926304
0.815443
0.791974
0.9324
0.971042
0.980473
0.980473
0.967353
0.808404
0.807105
0.91656
0.991839
0.991662
0.991263