/*--------------------------------*- C++ -*----------------------------------*\
  =========                 |
  \\      /  F ield         | OpenFOAM: The Open Source CFD Toolbox
   \\    /   O peration     | Website:  https://openfoam.org
    \\  /    A nd           | Version:  8
     \\/     M anipulation  |
\*---------------------------------------------------------------------------*/
FoamFile
{
    version     2.0;
    format      ascii;
    class       volVectorField;
    location    "4.2";
    object      U;
}
// * * * * * * * * * * * * * * * * * * * * * * * * * * * * * * * * * * * * * //

dimensions      [0 1 -1 0 0 0 0];

internalField   nonuniform List<vector> 
9150
(
(0.00496329 -0.0778936 0)
(0.0130545 -0.0974031 0)
(0.010858 -0.104183 0)
(0.00866773 -0.107809 0)
(0.00260992 -0.109205 0)
(-0.00224607 -0.109298 0)
(-0.00869061 -0.107787 0)
(-0.0108677 -0.104169 0)
(-0.0130513 -0.097417 0)
(-0.00496348 -0.0779146 0)
(0.00600003 -0.0920393 0)
(0.0086434 -0.100526 0)
(0.0073199 -0.102237 0)
(0.00432482 -0.104459 0)
(0.00176477 -0.105535 0)
(-0.00222447 -0.10541 0)
(-0.00439274 -0.104357 0)
(-0.0073294 -0.102243 0)
(-0.00863307 -0.100532 0)
(-0.00599604 -0.0920497 0)
(0.00179707 -0.0954528 0)
(0.00461585 -0.0989902 0)
(0.00372723 -0.100958 0)
(0.00337106 -0.101624 0)
(0.000888477 -0.10238 0)
(-0.00073843 -0.102453 0)
(-0.00322761 -0.101727 0)
(-0.00370514 -0.100982 0)
(-0.00460881 -0.0989911 0)
(-0.00179737 -0.0954599 0)
(0.00177937 -0.0984325 0)
(0.00250475 -0.100407 0)
(0.00217179 -0.100282 0)
(0.00127191 -0.10086 0)
(0.000696706 -0.10085 0)
(-0.000581967 -0.100844 0)
(-0.00128402 -0.100823 0)
(-0.00218476 -0.100249 0)
(-0.00249611 -0.100407 0)
(-0.00178065 -0.0984364 0)
(0.000199209 -0.0994985 0)
(0.000742112 -0.0995656 0)
(0.000469495 -0.0999763 0)
(0.000659776 -0.0998715 0)
(9.23774e-05 -0.100135 0)
(-0.000176706 -0.100094 0)
(-0.000672169 -0.0998666 0)
(-0.000474381 -0.0999917 0)
(-0.000737245 -0.0995689 0)
(-0.000199362 -0.0994996 0)
(0.0768517 -0.195172 1.47688e-26)
(0.0496589 -0.185222 0)
(0.0314421 -0.17688 0)
(0.0164699 -0.175347 0)
(0.00499481 -0.176255 0)
(-0.00430083 -0.176223 0)
(-0.0161047 -0.174252 0)
(-0.0314032 -0.177019 0)
(-0.0496188 -0.185444 0)
(-0.0768647 -0.195414 -1.49946e-26)
(0.0584235 -0.146221 3.9774e-27)
(0.0482506 -0.146423 0)
(0.028681 -0.156693 0)
(0.0214054 -0.156851 0)
(0.00583271 -0.156066 0)
(-0.00337629 -0.155906 0)
(-0.0198169 -0.157258 0)
(-0.0277329 -0.156159 0)
(-0.0481052 -0.146405 0)
(-0.0583575 -0.146277 -4.1889e-27)
(0.0477423 -0.121642 2.12957e-27)
(0.0420342 -0.131447 0)
(0.0295343 -0.13429 0)
(0.0172435 -0.138872 0)
(0.00491683 -0.140343 0)
(-0.00706997 -0.13979 0)
(-0.0183918 -0.136618 0)
(-0.0300757 -0.134051 0)
(-0.0421754 -0.13145 0)
(-0.0478131 -0.121656 -1.99369e-27)
(0.0374555 -0.0996234 2.9496e-27)
(0.0389696 -0.110341 0)
(0.0223491 -0.120075 0)
(0.017366 -0.124326 0)
(0.00381987 -0.125053 0)
(-0.00447222 -0.125642 0)
(-0.0173868 -0.125822 0)
(-0.0221745 -0.120306 0)
(-0.0388656 -0.110358 0)
(-0.0374439 -0.0996544 -2.9003e-27)
(0.0251506 -0.081336 -1.06422e-26)
(0.0282506 -0.10103 -1.24464e-26)
(0.0201456 -0.108181 -3.11527e-27)
(0.0112601 -0.113795 -2.82138e-27)
(0.00502358 -0.116777 -9.72587e-29)
(-0.00420124 -0.116815 -1.01948e-28)
(-0.0111335 -0.113779 -2.79628e-27)
(-0.0201573 -0.108165 -3.11424e-27)
(-0.0282789 -0.101019 -1.2446e-26)
(-0.0251495 -0.0813492 -1.06335e-26)
(0.0176413 -0.140992 0)
(0.0126738 -0.20285 0)
(0.0233099 -0.214364 0)
(0.0123465 -0.221354 0)
(0.0118641 -0.225362 0)
(-0.00314073 -0.226451 0)
(-0.00449361 -0.224102 0)
(-0.0198617 -0.216254 0)
(-0.00942127 -0.204716 0)
(-0.018139 -0.142558 0)
(0.0162799 -0.165793 0)
(0.00200153 -0.198498 0)
(0.0151105 -0.208435 0)
(0.00146622 -0.214303 0)
(0.00500424 -0.214366 0)
(-0.00670521 -0.214304 0)
(-0.00264798 -0.212781 0)
(-0.014726 -0.208596 0)
(-0.0014506 -0.199999 0)
(-0.0153239 -0.167747 0)
(0.0151934 -0.171212 0)
(-0.00309262 -0.20264 0)
(0.0116984 -0.207254 0)
(-0.000412439 -0.208643 0)
(0.00515625 -0.209325 0)
(-0.0032622 -0.209643 0)
(0.00183513 -0.210006 0)
(-0.0108352 -0.208303 0)
(0.0036417 -0.203439 0)
(-0.0153106 -0.172036 0)
(0.0171997 -0.19324 0)
(-0.0063733 -0.203359 0)
(0.0101009 -0.209264 0)
(-0.00147438 -0.206619 0)
(0.00137032 -0.207038 0)
(-0.00274036 -0.206988 0)
(0.000923595 -0.206002 0)
(-0.00996752 -0.210124 0)
(0.00644216 -0.204099 0)
(-0.0171005 -0.193982 0)
(0.0333635 -0.217546 0)
(0.00829294 -0.203899 0)
(0.016723 -0.20345 0)
(0.01129 -0.195222 0)
(0.00282251 -0.193298 0)
(-0.00135952 -0.194199 0)
(-0.0102254 -0.198103 0)
(-0.0164671 -0.204543 0)
(-0.00810416 -0.204298 0)
(-0.0333842 -0.218053 0)
(0.0931985 -0.0106959 0)
(0.0975331 -0.0102697 0)
(0.0972457 -0.00912766 0)
(0.0961408 -0.00116391 0)
(0.0888647 0.00887154 0)
(0.082969 0.00954218 0)
(0.0768706 0.00430965 0)
(0.0723562 0.0166763 0)
(0.0490032 0.0260329 0)
(0.0285043 0.00662913 0)
(0.0753912 -0.0140887 0)
(0.0650696 1.6699e-05 0)
(0.0619195 0.0126587 0)
(0.0614008 0.0152069 0)
(0.0653519 0.0149379 0)
(0.0663312 0.0180462 0)
(0.0605013 0.0182015 0)
(0.0484055 0.0402072 0)
(0.0336944 0.0561525 0)
(0.0242705 0.0384409 0)
(-0.00211621 0.015011 0)
(0.0181718 0.0053276 0)
(0.0359973 0.0088651 0)
(0.0604113 -0.00630514 0)
(0.0661086 0.00198416 0)
(0.072228 0.0172901 0)
(0.0704207 0.046122 0)
(0.0581177 0.0665195 0)
(0.0466968 0.0808201 0)
(0.0370254 0.0764814 0)
(-0.00740465 -0.0545735 0)
(0.024181 -0.0758442 0)
(0.054074 -0.0683418 0)
(0.0725504 -0.0493354 0)
(0.0795501 -0.00845584 0)
(0.0779227 0.0185978 0)
(0.0644297 0.0516049 0)
(0.0543274 0.0791292 0)
(0.0464219 0.0906374 0)
(0.0422378 0.0932036 0)
(0.00308638 -0.117599 0)
(0.0254321 -0.13133 0)
(0.0448383 -0.11496 0)
(0.0463182 -0.0678433 0)
(0.0251366 -0.010132 0)
(0.00790701 0.0450327 0)
(0.011137 0.0790005 0)
(0.0169717 0.0901666 0)
(0.0131897 0.0981013 0)
(0.0113524 0.108318 0)
(-0.0420171 -0.13892 0)
(-0.0449928 -0.145531 0)
(-0.0562598 -0.0937324 0)
(-0.0572819 0.0298381 0)
(-0.0772147 0.060368 0)
(-0.0799847 0.0523648 0)
(-0.0716462 0.055399 0)
(-0.0572956 0.0806361 0)
(-0.0496117 0.108812 0)
(-0.0404229 0.124528 0)
(-0.065937 -0.126739 0)
(-0.0800044 -0.128775 0)
(-0.09361 -0.0824225 0)
(-0.0821708 0.00887381 0)
(-0.069893 0.0362753 0)
(-0.0699764 0.0363558 0)
(-0.0692967 0.0337744 0)
(-0.067269 0.0533965 0)
(-0.0629838 0.0817513 0)
(-0.0530728 0.10884 0)
(-0.0429101 -0.0745643 0)
(-0.0669146 -0.0882861 0)
(-0.0842581 -0.0827772 0)
(-0.0868532 -0.0273203 0)
(-0.062734 0.0162962 0)
(-0.0396402 0.0315011 0)
(-0.0314551 0.0432889 0)
(-0.0391251 0.0732774 0)
(-0.0470761 0.0721604 0)
(-0.0413271 0.0812019 0)
(0.00685794 -0.0606858 0)
(-0.00352243 -0.0531246 0)
(-0.0175493 -0.0381611 0)
(-0.0363585 -0.029802 0)
(-0.0402734 -0.0339424 0)
(-0.0399145 -0.0247686 0)
(-0.0379343 0.024499 0)
(-0.026188 0.0656915 0)
(-0.00899957 0.078695 0)
(-0.00931473 0.0896426 0)
(0.0294036 -0.0469704 0)
(0.0237483 -0.0452556 0)
(0.0215749 -0.030417 0)
(0.0229376 -0.000523239 0)
(0.0173971 0.00945627 0)
(0.0204022 0.0248762 0)
(0.00492518 0.0398408 0)
(0.00788373 0.0240635 0)
(0.00849473 0.0530903 0)
(0.0178108 0.072178 0)
(0.050243 -0.0291551 0)
(0.0421681 -0.0304244 0)
(0.0322604 -0.0297421 0)
(0.0281954 -0.0186999 0)
(0.0320651 -0.0141399 0)
(0.036223 -0.00117464 0)
(0.0414983 0.0365044 0)
(0.0490074 0.0437591 0)
(0.0560167 0.0455457 0)
(0.0660024 0.052048 0)
(0.152362 -0.0200683 0)
(0.144199 -0.0111906 0)
(0.133011 0.000764444 0)
(0.121222 0.000601841 0)
(0.112351 -0.00380078 0)
(0.100985 0.00200712 0)
(0.0844961 0.0214028 0)
(0.0735809 0.0184675 0)
(0.0689578 0.0147637 0)
(0.0748888 0.0143978 0)
(0.236899 -0.0131879 0)
(0.23611 0.00520254 0)
(0.231745 0.0152442 0)
(0.22276 0.0165045 0)
(0.208858 0.0199015 0)
(0.191548 0.0503293 0)
(0.172621 0.0767729 0)
(0.171109 0.0778787 0)
(0.164946 0.0509505 0)
(0.140795 0.0118234 0)
(0.251681 -0.019247 0)
(0.250218 0.00215678 0)
(0.247916 0.0267943 0)
(0.241392 0.0469736 0)
(0.228532 0.0590133 0)
(0.219377 0.0675653 0)
(0.217806 0.0605605 0)
(0.218277 0.0600474 0)
(0.219308 0.0713286 0)
(0.20342 0.0841264 0)
(0.261562 -0.0159287 0)
(0.268633 0.0128173 0)
(0.26441 0.0376 0)
(0.251534 0.0543824 0)
(0.24285 0.0641949 0)
(0.236495 0.0716389 0)
(0.233335 0.0698544 0)
(0.224556 0.0690087 0)
(0.219121 0.0795193 0)
(0.20387 0.114988 0)
(0.250277 -0.0539322 0)
(0.271202 -0.00319803 0)
(0.283885 0.0769309 0)
(0.268697 0.101243 0)
(0.247766 0.0927202 0)
(0.238115 0.0870313 0)
(0.23904 0.093375 0)
(0.235001 0.0975918 0)
(0.221195 0.101638 0)
(0.216267 0.12629 0)
(0.250509 -0.0852164 0)
(0.272076 -0.0807797 0)
(0.309416 0.0280685 0)
(0.306985 0.122088 0)
(0.291119 0.105015 0)
(0.272936 0.0797613 0)
(0.268062 0.0863664 0)
(0.245503 0.111043 0)
(0.213122 0.120656 0)
(0.202421 0.132543 0)
(0.269426 -0.0966324 0)
(0.25412 -0.106143 0)
(0.264063 0.0259317 0)
(0.284618 0.169105 0)
(0.289439 0.149701 0)
(0.270464 0.126848 0)
(0.2563 0.135852 0)
(0.225122 0.170252 0)
(0.214682 0.169728 0)
(0.192993 0.154506 0)
(0.0267279 -0.130937 0)
(0.0520094 -0.0840478 0)
(0.0980492 -0.0146682 0)
(0.159176 0.0783296 0)
(0.204734 0.122986 0)
(0.218628 0.170348 0)
(0.211258 0.206984 0)
(0.205488 0.204877 0)
(0.2064 0.195994 0)
(0.19612 0.173739 0)
(-0.187648 -0.248135 0)
(-0.157737 -0.204271 0)
(-0.121896 -0.148419 0)
(-0.0903202 -0.0806967 0)
(-0.0180579 -0.00637355 0)
(0.0529946 0.0961046 0)
(0.104199 0.160969 0)
(0.126962 0.182447 0)
(0.156336 0.19906 0)
(0.168608 0.175386 0)
(-0.271078 -0.243794 0)
(-0.264308 -0.184509 0)
(-0.266479 -0.133512 0)
(-0.261035 -0.12279 0)
(-0.223318 -0.101745 0)
(-0.157241 -0.0315858 0)
(-0.100879 0.0526831 0)
(-0.034392 0.0966492 0)
(0.0203479 0.117847 0)
(0.0734164 0.0558536 0)
(-0.265958 -0.251236 0)
(-0.236015 -0.209172 0)
(-0.216575 -0.159511 0)
(-0.184332 -0.159045 0)
(-0.163251 -0.167853 0)
(-0.126072 -0.14407 0)
(-0.0957556 -0.0912718 0)
(-0.0405857 -0.0510099 0)
(0.00513962 -0.0197046 0)
(0.0406674 -0.00780595 0)
(-0.150461 -0.307454 0)
(-0.118892 -0.301514 0)
(-0.105659 -0.248511 0)
(-0.0702758 -0.22827 0)
(-0.0562066 -0.195147 0)
(-0.037919 -0.1755 0)
(-0.0154971 -0.143 0)
(0.0107831 -0.120335 0)
(0.0343195 -0.0728357 0)
(0.0656647 -0.0575194 0)
(0.0393909 -0.3747 0)
(0.0339808 -0.348999 0)
(0.0340099 -0.327325 0)
(0.0468243 -0.295047 0)
(0.0658006 -0.268956 0)
(0.0846535 -0.231849 0)
(0.097019 -0.195727 0)
(0.112619 -0.164715 0)
(0.118388 -0.121807 0)
(0.128738 -0.0891251 0)
(0.205079 -0.249114 0)
(0.212122 -0.266715 0)
(0.21057 -0.281267 0)
(0.204117 -0.273399 0)
(0.199304 -0.253108 0)
(0.20648 -0.226014 0)
(0.197619 -0.20179 0)
(0.192946 -0.154983 0)
(0.184007 -0.104289 0)
(0.168982 -0.0672326 0)
(0.305485 -0.287141 0)
(0.310726 -0.301072 0)
(0.30757 -0.304747 0)
(0.296827 -0.286739 0)
(0.281589 -0.265268 0)
(0.277251 -0.227741 0)
(0.273488 -0.183878 0)
(0.254782 -0.149014 0)
(0.247597 -0.0897301 0)
(0.233156 -0.0176123 0)
(0.38514 -0.255023 0)
(0.366769 -0.270736 0)
(0.359186 -0.2682 0)
(0.343692 -0.24249 0)
(0.327183 -0.214192 0)
(0.307159 -0.198556 0)
(0.295289 -0.156078 0)
(0.283733 -0.102505 0)
(0.264533 -0.0578629 0)
(0.251052 0.0257223 0)
(0.410244 -0.249564 0)
(0.395648 -0.252893 0)
(0.380319 -0.247551 0)
(0.365415 -0.224022 0)
(0.34858 -0.185843 0)
(0.324154 -0.161934 0)
(0.304891 -0.140792 0)
(0.297219 -0.0854222 0)
(0.283892 -0.00809943 0)
(0.272585 0.0258156 0)
(0.41666 -0.223558 0)
(0.399459 -0.214596 0)
(0.38282 -0.202371 0)
(0.364223 -0.180964 0)
(0.342119 -0.146183 0)
(0.318914 -0.12098 0)
(0.297811 -0.107846 0)
(0.286325 -0.0837833 0)
(0.292734 -0.0184714 0)
(0.30537 0.0439002 0)
(0.369989 -0.185326 0)
(0.354442 -0.17724 0)
(0.350755 -0.167578 0)
(0.346758 -0.144386 0)
(0.328688 -0.102176 0)
(0.291754 -0.0673686 0)
(0.256755 -0.0555283 0)
(0.243314 -0.0519437 0)
(0.244256 -0.0407417 0)
(0.265918 0.00331173 0)
(0.320009 -0.174377 0)
(0.327629 -0.175598 0)
(0.338925 -0.162896 0)
(0.341618 -0.112034 0)
(0.296832 -0.00933266 0)
(0.238189 0.0258303 0)
(0.20856 -0.0073695 0)
(0.211817 -0.056467 0)
(0.223476 -0.0660905 0)
(0.234052 -0.0454153 0)
(0.275311 -0.212432 0)
(0.320876 -0.246582 0)
(0.34847 -0.219603 0)
(0.385795 -0.113237 0)
(0.285847 0.0648183 0)
(0.170758 0.0825382 0)
(0.152203 -0.0300319 0)
(0.175662 -0.103443 0)
(0.203835 -0.118784 0)
(0.22822 -0.0950164 0)
(0.19975 -0.298454 0)
(0.210433 -0.31552 0)
(0.215283 -0.247648 0)
(0.246308 0.0338718 0)
(0.162869 0.343242 0)
(0.168844 0.282435 0)
(0.223354 -0.0142435 0)
(0.22386 -0.132324 0)
(0.221005 -0.140501 0)
(0.211913 -0.0764333 0)
(-0.0324772 -0.285561 0)
(-0.0796054 -0.253732 0)
(-0.080266 -0.170367 0)
(-0.0880456 0.141978 0)
(0.0226031 0.25691 0)
(0.12733 0.0242535 0)
(0.233102 -0.087747 0)
(0.24658 -0.144653 0)
(0.24799 -0.150983 0)
(0.213254 -0.0780749 0)
(-0.142852 -0.219674 0)
(-0.158777 -0.264664 0)
(-0.155896 -0.269212 0)
(-0.142243 -0.177858 0)
(-0.0407364 -0.175158 0)
(-0.0293308 -0.21489 0)
(0.0221341 -0.123822 0)
(0.00555577 -0.145072 0)
(0.0891988 -0.0323394 0)
(0.104485 0.0597239 0)
(-0.279941 -0.321533 0)
(-0.269692 -0.263899 0)
(-0.264532 -0.17726 0)
(-0.243471 -0.125838 0)
(-0.230387 -0.112126 0)
(-0.215363 -0.15925 0)
(-0.197442 -0.237654 0)
(-0.189892 -0.272626 0)
(-0.143388 -0.265118 0)
(-0.103434 -0.170589 0)
(-0.347959 -0.359553 0)
(-0.321562 -0.29648 0)
(-0.285193 -0.242475 0)
(-0.256578 -0.199796 0)
(-0.245943 -0.173349 0)
(-0.239132 -0.188366 0)
(-0.246205 -0.210961 0)
(-0.216519 -0.260995 0)
(-0.186204 -0.263996 0)
(-0.178792 -0.0584793 0)
(-0.399756 -0.383064 0)
(-0.370456 -0.39153 0)
(-0.314429 -0.321386 0)
(-0.26637 -0.200016 0)
(-0.241614 -0.17144 0)
(-0.23646 -0.200474 0)
(-0.18469 -0.292917 0)
(-0.164074 -0.314477 0)
(-0.161721 -0.310718 0)
(-0.170552 -0.20823 0)
(-0.416567 -0.439667 0)
(-0.394508 -0.427972 0)
(-0.374428 -0.43748 0)
(-0.335034 -0.378433 0)
(-0.249895 -0.287708 0)
(-0.17555 -0.295741 0)
(-0.149852 -0.310279 0)
(-0.158168 -0.292708 0)
(-0.168501 -0.275528 0)
(-0.224813 -0.161853 0)
(-0.420419 -0.493249 0)
(-0.406349 -0.47397 0)
(-0.400757 -0.457967 0)
(-0.396581 -0.448713 0)
(-0.36191 -0.450627 0)
(-0.316128 -0.479308 0)
(-0.292394 -0.421976 0)
(-0.307251 -0.248196 0)
(-0.352056 -0.183236 0)
(-0.380085 -0.165329 0)
(-0.422167 -0.509261 0)
(-0.408032 -0.480285 0)
(-0.405706 -0.464495 0)
(-0.404749 -0.454541 0)
(-0.406943 -0.450498 0)
(-0.413832 -0.470366 0)
(-0.446907 -0.329277 0)
(-0.448733 -0.162669 0)
(-0.440946 -0.149997 0)
(-0.434803 -0.146524 0)
(-0.388125 -0.523598 0)
(-0.379891 -0.479086 0)
(-0.393931 -0.464395 0)
(-0.40095 -0.441145 0)
(-0.404836 -0.406629 0)
(-0.435549 -0.351116 0)
(-0.483942 -0.222489 0)
(-0.469888 -0.165632 0)
(-0.463714 -0.156808 0)
(-0.456201 -0.162662 0)
(-0.396242 -0.573787 0)
(-0.361168 -0.451301 0)
(-0.361636 -0.420972 0)
(-0.400568 -0.413485 0)
(-0.421423 -0.38793 0)
(-0.429974 -0.331107 0)
(-0.438939 -0.247911 0)
(-0.444154 -0.178017 0)
(-0.445108 -0.16304 0)
(-0.451104 -0.163503 0)
(-0.544941 -0.890085 0)
(-0.390711 -0.51652 0)
(-0.346172 -0.391898 0)
(-0.345854 -0.366203 0)
(-0.382414 -0.361282 0)
(-0.392776 -0.338866 0)
(-0.374891 -0.273971 0)
(-0.364998 -0.19368 0)
(-0.348765 -0.145016 0)
(-0.370457 -0.133182 0)
(-0.633788 -1.12507 0)
(-0.559639 -0.879469 0)
(-0.383989 -0.487173 0)
(-0.34009 -0.348736 0)
(-0.331085 -0.32836 0)
(-0.350924 -0.327111 0)
(-0.353397 -0.297404 0)
(-0.337005 -0.23352 0)
(-0.306483 -0.15975 0)
(-0.27975 -0.109752 0)
(-0.637561 -1.19234 0)
(-0.613356 -1.07198 0)
(-0.512445 -0.794794 0)
(-0.350027 -0.435182 0)
(-0.311807 -0.316231 0)
(-0.321335 -0.292611 0)
(-0.330393 -0.297778 0)
(-0.335979 -0.27225 0)
(-0.31837 -0.224801 0)
(-0.290269 -0.182682 0)
(-0.590154 -1.25682 0)
(-0.548186 -1.20591 0)
(-0.511877 -1.07687 0)
(-0.370546 -0.779945 0)
(-0.207186 -0.385003 0)
(-0.205047 -0.216065 0)
(-0.266185 -0.251353 0)
(-0.288074 -0.257218 0)
(-0.301145 -0.245891 0)
(-0.300029 -0.21719 0)
(-0.513078 -1.2854 0)
(-0.460499 -1.30257 0)
(-0.411686 -1.2611 0)
(-0.357599 -1.16649 0)
(-0.208855 -0.941065 0)
(0.0593263 -0.0729012 0)
(-0.0424539 -0.0933907 0)
(-0.207415 -0.206635 0)
(-0.241871 -0.226157 0)
(-0.266572 -0.232252 0)
(-0.26002 -1.02805 0)
(-0.329933 -1.25251 0)
(-0.303751 -1.3106 0)
(-0.265456 -1.30349 0)
(-0.207188 -1.18512 0)
(-0.156142 -0.737004 0)
(0.216207 0.263425 0)
(-0.144902 0.084892 0)
(-0.127865 -0.137216 0)
(-0.19852 -0.176173 0)
(0.0450321 -0.625312 0)
(-0.162886 -1.00435 0)
(-0.202501 -1.31499 0)
(-0.196208 -1.3502 0)
(-0.138175 -1.28412 0)
(-0.199097 -0.9704 0)
(0.0171297 0.284142 0)
(-0.0695202 0.263881 0)
(0.0313854 0.020418 0)
(-0.0853867 -0.0698137 0)
(0.0772995 -0.513918 0)
(0.0176162 -0.541392 0)
(-0.149638 -1.1866 0)
(-0.164415 -1.35548 0)
(-0.0985474 -1.30847 0)
(-0.139328 -1.03619 0)
(-0.0964311 0.0488071 0)
(-0.0399803 0.0195462 0)
(0.0228036 0.0370652 0)
(-0.0413396 0.00571424 0)
(0.0577593 -0.469672 0)
(0.122753 -0.442478 0)
(-0.161037 -1.11593 0)
(-0.169948 -1.36476 0)
(-0.0927576 -1.34615 0)
(-0.10917 -1.07345 0)
(-0.079136 0.0255866 0)
(-0.0668143 -0.00709141 0)
(-0.0477671 0.0308136 0)
(-0.031758 0.0141498 0)
(0.0621539 -0.50256 0)
(0.0767627 -0.306962 0)
(-0.0263127 -0.666319 0)
(-0.0601316 -1.35206 0)
(-0.0354892 -1.35527 0)
(-0.0620332 -1.24027 0)
(0.0158025 -0.00690284 0)
(-0.00667829 0.00141016 0)
(0.0289408 -0.0552192 0)
(0.055623 -0.0317654 0)
(-0.033109 -0.497739 0)
(-0.0660288 -0.315616 0)
(-0.0146756 -0.720913 0)
(-0.0456709 -1.3353 0)
(-0.0194099 -1.33905 0)
(-0.0523849 -1.26897 0)
(-0.00267854 -0.0414243 0)
(0.0567486 -0.039307 0)
(0.0804259 -0.107882 0)
(0.145903 -0.111304 0)
(-0.0706509 -0.360765 0)
(-0.0847149 -0.320088 0)
(-0.0347237 -0.77146 0)
(-0.0626388 -1.32167 0)
(-0.023967 -1.32016 0)
(-0.052571 -1.28476 0)
(0.0210759 -0.180743 0)
(0.0494284 -0.122166 0)
(0.0556941 -0.263009 0)
(0.236563 -0.119829 0)
(-0.0267095 -0.315984 0)
(-0.0368373 -0.407228 0)
(0.0473654 -0.753163 0)
(0.0153379 -1.28617 0)
(0.00630811 -1.29824 0)
(-0.0143029 -1.28772 0)
(0.0120405 -0.943889 0)
(0.622454 -0.133561 0)
(0.690576 -0.419169 0)
(0.424703 -0.0309178 0)
(-0.0252192 -0.305037 0)
(-0.0296933 -0.457259 0)
(0.0108911 -0.835591 0)
(0.00343569 -1.27373 0)
(0.0071593 -1.27634 0)
(-0.00717331 -1.27277 0)
(-0.0110498 -1.20527 0)
(-0.083567 -0.176253 0)
(-0.0293594 -0.112182 0)
(-0.0460994 0.117527 0)
(-0.00140399 -0.300088 0)
(-0.0133079 -0.448901 0)
(0.0068149 -0.845035 0)
(-0.00966728 -1.26275 0)
(0.000555116 -1.26382 0)
(-0.0128817 -1.26122 0)
(-0.0120733 -1.22602 0)
(-0.048956 -0.253086 0)
(-0.0919229 -0.124345 0)
(-0.0833702 0.0207063 0)
(0.00438556 -0.303705 0)
(-0.00547016 -0.460125 0)
(0.0148074 -0.858262 0)
(-0.00613891 -1.25226 0)
(0.00643278 -1.25666 0)
(-0.00858011 -1.25118 0)
(-0.00208223 -1.22163 0)
(-0.0119062 -0.213523 0)
(-0.0140904 -0.104678 0)
(-0.0163003 -0.103105 0)
(0.0076002 -0.304572 0)
(0.00558972 -0.465317 0)
(0.0257444 -0.860665 0)
(0.0101012 -1.23997 0)
(0.0103329 -1.24638 0)
(-0.00295844 -1.24273 0)
(0.00392153 -1.22013 0)
(-0.00154618 -0.24295 0)
(0.0544975 -0.0691764 0)
(0.0395739 -0.160202 0)
(0.00674158 -0.327971 0)
(0.023517 -0.485594 0)
(0.0447619 -0.877298 0)
(0.0183994 -1.23278 0)
(0.0147746 -1.23259 0)
(-0.00311398 -1.23296 0)
(0.00910758 -1.21432 0)
(0.0170463 -0.282012 0)
(0.122754 -0.0785218 0)
(0.048019 -0.156391 0)
(0.00187226 -0.381649 0)
(0.0225407 -0.519518 0)
(0.030458 -0.851652 0)
(0.00779532 -1.21492 0)
(0.00751855 -1.21154 0)
(-0.0102818 -1.21491 0)
(-0.0104658 -1.21421 0)
(-0.0215747 -0.585363 0)
(0.0757648 -0.0323208 0)
(0.0589413 -0.134357 0)
(0.00171821 -0.442883 0)
(0.0190223 -0.554686 0)
(0.0224375 -0.84128 0)
(0.00470098 -1.19067 0)
(0.00728863 -1.19509 0)
(-0.0101311 -1.19338 0)
(-0.0121486 -1.18729 0)
(-0.0340148 -0.613435 0)
(0.0553117 -0.182478 0)
(0.0719471 -0.246752 0)
(0.00660413 -0.48343 0)
(0.0214045 -0.571691 0)
(0.027792 -0.834 0)
(0.0120065 -1.18239 0)
(0.00944006 -1.17508 0)
(-0.00859274 -1.17463 0)
(-0.00498736 -1.17973 0)
(-0.0170463 -0.575536 0)
(-0.0363979 -0.207359 0)
(-0.060781 -0.14308 0)
(0.0150297 -0.50048 0)
(0.0235752 -0.57999 0)
(0.0168922 -0.825717 0)
(0.00342839 -1.17346 0)
(0.00723062 -1.15403 0)
(-0.0122798 -1.15495 0)
(-0.0152042 -1.17093 0)
(-0.012021 -0.590385 0)
(-0.0209961 -0.155364 0)
(-0.0729665 -0.179402 0)
(0.0418364 -0.493951 0)
(0.0369851 -0.570335 0)
(0.0275007 -0.798322 0)
(0.012741 -1.15907 0)
(0.0113615 -1.13312 0)
(-0.00901228 -1.13264 0)
(-0.00670666 -1.15781 0)
(-0.00922989 -0.612286 0)
(-0.00161408 -0.0403777 0)
(-0.0707144 -0.167227 0)
(0.0583788 -0.453492 0)
(0.0406727 -0.53255 0)
(0.0238332 -0.77896 0)
(0.00580892 -1.14085 0)
(0.00938977 -1.11248 0)
(-0.0106366 -1.11344 0)
(-0.00838493 -1.14011 0)
(-0.0298761 -0.64195 0)
(0.0174425 0.0217156 0)
(0.00884676 -0.0585165 0)
(0.0640074 -0.408451 0)
(0.0356501 -0.498363 0)
(0.0237162 -0.761191 0)
(0.0049427 -1.11842 0)
(0.00874275 -1.09508 0)
(-0.00915288 -1.09598 0)
(-0.00486079 -1.12008 0)
(-0.0170207 -0.711 0)
(0.0385593 -0.14036 0)
(0.0695251 -0.0343813 0)
(0.0799929 -0.338341 0)
(0.0378497 -0.440628 0)
(0.02403 -0.744058 0)
(0.00450196 -1.09734 0)
(0.00885071 -1.08415 0)
(-0.00704223 -1.08377 0)
(-0.00220389 -1.09963 0)
(-0.014977 -0.736535 0)
(0.00295887 -0.136762 0)
(-0.0091544 0.021916 0)
(0.0956945 -0.251598 0)
(0.0383055 -0.355773 0)
(0.0308422 -0.723031 0)
(0.00661672 -1.07902 0)
(0.00996852 -1.07248 0)
(-0.00442864 -1.07357 0)
(0.000887593 -1.08084 0)
(-0.0123422 -0.747334 0)
(-0.00308736 -0.147096 0)
(-0.0152296 -0.0161431 0)
(0.0884249 -0.182042 0)
(0.0329365 -0.274413 0)
(0.024335 -0.708546 0)
(0.00343883 -1.06344 0)
(0.00708633 -1.06262 0)
(-0.00583635 -1.0627 0)
(-0.00262401 -1.06441 0)
(-0.0214569 -0.740836 0)
(-0.0123463 -0.128908 0)
(-0.0250451 0.00519455 0)
(0.0740708 -0.121316 0)
(0.0309258 -0.226619 0)
(0.0283642 -0.682418 0)
(0.00499342 -1.04834 0)
(0.00796722 -1.05208 0)
(-0.00756817 -1.04967 0)
(-0.00407209 -1.04812 0)
(-0.02682 -0.721546 0)
(-0.0339862 -0.0995152 0)
(-0.0259936 0.00561837 0)
(0.066664 -0.0630535 0)
(0.0484751 -0.163984 0)
(0.0336627 -0.60978 0)
(0.0108509 -1.03165 0)
(0.0105793 -1.03456 0)
(-0.00666048 -1.03418 0)
(-0.00730223 -1.03254 0)
(-0.0249396 -0.721412 0)
(-0.00688166 -0.159679 0)
(0.0075894 -0.0682544 0)
(0.0665524 -0.0297311 0)
(0.0521737 -0.13194 0)
(0.0283693 -0.57903 0)
(0.0100039 -1.01582 0)
(0.00868971 -1.01509 0)
(-0.010502 -1.01151 0)
(-0.0149365 -1.0134 0)
(-0.0334606 -0.674491 0)
(-0.0416596 -0.157025 0)
(-0.0411167 -0.00205883 0)
(-0.00996381 -0.0819512 0)
(0.0140269 -0.145837 0)
(0.0274102 -0.570879 0)
(0.0176966 -1.00178 0)
(0.011618 -0.990273 0)
(-0.0107796 -0.986521 0)
(-0.0149351 -0.999874 0)
(-0.0306636 -0.640371 0)
(-0.0458602 -0.148375 0)
(-0.0480532 -0.0119197 0)
(-0.00616416 -0.119912 0)
(0.0189719 -0.189724 0)
(0.0331276 -0.561188 0)
(0.02293 -0.983296 0)
(0.0126333 -0.95817 0)
(-0.00832836 -0.956529 0)
(-0.0161165 -0.981752 0)
(-0.0233977 -0.626978 0)
(-0.0262316 -0.153127 0)
(-0.0187297 -0.026036 0)
(0.0522398 -0.0901622 0)
(0.0280758 -0.18615 0)
(0.027376 -0.56161 0)
(0.017809 -0.965669 0)
(0.0117054 -0.926378 0)
(-0.0108452 -0.924544 0)
(-0.0160429 -0.964665 0)
(-0.0242823 -0.626577 0)
(-0.0182698 -0.150648 0)
(-0.0194375 -0.0382772 0)
(0.0427804 -0.0334729 0)
(0.00882407 -0.152757 0)
(0.0217751 -0.586287 0)
(0.0154889 -0.94603 0)
(0.00954979 -0.897196 0)
(-0.0080163 -0.896585 0)
(-0.0143269 -0.944424 0)
(-0.019061 -0.649375 0)
(-0.00718434 -0.152503 0)
(-0.0143354 -0.0314372 0)
(0.0400807 0.0317385 0)
(0.0058572 -0.11707 0)
(0.0180589 -0.626525 0)
(0.00994345 -0.917 0)
(0.00715693 -0.875163 0)
(-0.00695693 -0.87432 0)
(-0.0112108 -0.915762 0)
(-0.0246628 -0.687426 0)
(-0.0105442 -0.123031 0)
(-0.0351654 -0.00734322 0)
(0.040379 0.0492556 0)
(0.0156889 -0.0832855 0)
(0.0209293 -0.647135 0)
(0.0086255 -0.891171 0)
(0.00411089 -0.862644 0)
(-0.00327913 -0.861885 0)
(-0.00547861 -0.887949 0)
(-0.0232332 -0.69902 0)
(-0.0117931 -0.106659 0)
(-0.0311396 0.0118826 0)
(0.0371079 0.0308375 0)
(0.0223611 -0.0594558 0)
(0.0246325 -0.64292 0)
(0.0071653 -0.866017 0)
(0.00282495 -0.855417 0)
(-0.00283758 -0.855062 0)
(-0.00502372 -0.86173 0)
(-0.0224751 -0.690448 0)
(-0.0232175 -0.0888397 0)
(-0.025749 0.0342433 0)
(0.0533698 0.0339851 0)
(0.0342347 -0.0277923 0)
(0.0180005 -0.613115 0)
(0.00711998 -0.845059 0)
(0.00104372 -0.842653 0)
(-0.00813616 -0.841751 0)
(-0.0111673 -0.840563 0)
(-0.0326104 -0.669864 0)
(-0.0373218 -0.109303 0)
(-0.0128074 0.0315186 0)
(0.0561392 0.0580213 0)
(0.0332603 -0.0166329 0)
(0.0273286 -0.584675 0)
(0.0148796 -0.827991 0)
(0.00774962 -0.824328 0)
(-0.00850367 -0.822353 0)
(-0.0167958 -0.823412 0)
(-0.0293833 -0.636279 0)
(-0.0442186 -0.144656 0)
(-0.0170115 -0.0109587 0)
(0.0673626 0.104531 0)
(0.0459627 0.00395225 0)
(0.0318895 -0.549113 0)
(0.0234506 -0.809436 0)
(0.0133955 -0.792594 0)
(-0.00776997 -0.793464 0)
(-0.0182651 -0.806303 0)
(-0.0229923 -0.59518 0)
(-0.043642 -0.143908 0)
(-0.0324314 -0.0214836 0)
(0.0775486 0.122475 0)
(0.0504509 0.0492448 0)
(0.0235602 -0.535543 0)
(0.0196674 -0.791103 0)
(0.00942896 -0.761652 0)
(-0.0113894 -0.761239 0)
(-0.0222602 -0.787803 0)
(-0.0332802 -0.560691 0)
(-0.0516406 -0.145993 0)
(-0.0231262 -0.0518653 0)
(0.0555739 0.133539 0)
(0.0200001 0.119904 0)
(0.0284671 -0.551387 0)
(0.0207495 -0.766837 0)
(0.0100539 -0.730734 0)
(-0.00753139 -0.727259 0)
(-0.0207354 -0.763634 0)
(-0.0273407 -0.549581 0)
(-0.0517099 -0.152667 0)
(-0.045531 -0.115635 0)
(-0.00979356 0.166704 0)
(0.00373355 0.11709 0)
(0.0311036 -0.575746 0)
(0.0206389 -0.733527 0)
(0.00787178 -0.704297 0)
(-0.00499461 -0.702028 0)
(-0.0178485 -0.72999 0)
(-0.0280849 -0.54352 0)
(-0.0451327 -0.0988855 0)
(-0.0748245 -0.0891758 0)
(-0.0210823 0.165896 0)
(0.0228884 0.0465676 0)
(0.0320602 -0.578193 0)
(0.0204136 -0.70006 0)
(0.00504729 -0.680407 0)
(-0.00581295 -0.679031 0)
(-0.0173583 -0.696949 0)
(-0.0262272 -0.527782 0)
(-0.0486455 -0.03583 0)
(-0.0764346 -0.0611588 0)
(-0.0120296 0.146519 0)
(0.0391285 -0.00693304 0)
(0.0300522 -0.562556 0)
(0.0201383 -0.668922 0)
(0.00537711 -0.657749 0)
(-0.00508142 -0.65652 0)
(-0.0203894 -0.666777 0)
(-0.0255037 -0.524498 0)
(-0.0338704 0.0292908 0)
(-0.0114521 -0.0437892 0)
(-0.00837586 0.0966406 0)
(0.0382674 -0.0586994 0)
(0.0344267 -0.541158 0)
(0.0206337 -0.644374 0)
(0.00649481 -0.632764 0)
(-0.0046022 -0.63172 0)
(-0.0187583 -0.642387 0)
(-0.0325717 -0.522224 0)
(-0.00999087 -0.0682703 0)
(0.0369556 -0.0406685 0)
(0.00438738 0.0602705 0)
(0.0198003 -0.117334 0)
(0.046528 -0.536207 0)
(0.0285998 -0.613936 0)
(0.0131015 -0.60056 0)
(-0.00726165 -0.602726 0)
(-0.0226735 -0.613565 0)
(-0.0429234 -0.502547 0)
(-0.0205973 -0.138172 0)
(-0.00293704 -0.0252956 0)
(0.00954955 0.018907 0)
(-0.00438971 -0.151626 0)
(0.0451321 -0.551999 0)
(0.0247338 -0.578337 0)
(0.00766495 -0.568514 0)
(-0.00681616 -0.566521 0)
(-0.0256712 -0.577636 0)
(-0.046973 -0.526541 0)
(0.0107373 -0.177503 0)
(-0.00997874 -0.0467535 0)
(0.0291105 0.0152948 0)
(0.0411034 -0.164987 0)
(0.0435038 -0.548343 0)
(0.0236698 -0.546619 0)
(0.00420303 -0.541224 0)
(-0.00347104 -0.539191 0)
(-0.0229015 -0.541085 0)
(-0.0448843 -0.53241 0)
(-0.0239972 -0.205862 0)
(-0.0188146 -0.0505705 0)
(0.0383431 -0.00689922 0)
(0.0512824 -0.213127 0)
(0.0519657 -0.496214 0)
(0.0279083 -0.507285 0)
(0.00472642 -0.505978 0)
(-0.0177384 -0.510014 0)
(-0.0323088 -0.505666 0)
(-0.0594504 -0.487434 0)
(-0.0592013 -0.232217 0)
(-0.0422379 -0.0552524 0)
(0.0672683 -0.0124556 0)
(0.0633601 -0.225233 0)
(0.0620105 -0.455229 0)
(0.0283351 -0.464719 0)
(0.0114606 -0.470509 0)
(-0.00521059 -0.465517 0)
(-0.0242856 -0.462263 0)
(-0.0527818 -0.454968 0)
(-0.0526909 -0.244231 0)
(-0.0614153 -0.0724258 0)
(0.0568757 -0.0525192 0)
(0.0694451 -0.211921 0)
(0.0644705 -0.3953 0)
(0.0326471 -0.4248 0)
(0.0118556 -0.429356 0)
(-0.0129221 -0.429793 0)
(-0.0373983 -0.425268 0)
(-0.0646252 -0.398814 0)
(-0.0750872 -0.264553 0)
(-0.048098 -0.105119 0)
(-0.00293665 -0.0804411 0)
(0.0722901 -0.25949 0)
(0.0624856 -0.363712 0)
(0.0302557 -0.375999 0)
(0.00856267 -0.3807 0)
(-0.0139384 -0.380094 0)
(-0.0344483 -0.379228 0)
(-0.0637211 -0.355969 0)
(-0.0681689 -0.309128 0)
(-0.00589086 -0.128843 0)
(0.0870845 -0.118262 0)
(0.0765914 -0.280043 0)
(0.0731832 -0.312828 0)
(0.0453092 -0.327356 0)
(0.0208032 -0.332733 0)
(-0.00344243 -0.336714 0)
(-0.0260413 -0.327565 0)
(-0.0607942 -0.31061 0)
(-0.0698781 -0.295074 0)
(-0.102924 -0.164625 0)
(0.0980418 -0.195121 0)
(0.0757263 -0.217919 0)
(0.0673536 -0.25762 0)
(0.0365304 -0.281 0)
(0.0188714 -0.28426 0)
(-0.0141724 -0.280689 0)
(-0.0394748 -0.276371 0)
(-0.0685202 -0.260364 0)
(-0.0715013 -0.226846 0)
(-0.0874721 -0.224004 0)
(0.0557468 -0.129252 0)
(0.0508708 -0.189989 0)
(0.0445316 -0.231502 0)
(0.0186581 -0.242223 0)
(0.00574256 -0.247516 0)
(-0.0143102 -0.246722 0)
(-0.0197744 -0.243387 0)
(-0.0404369 -0.234204 0)
(-0.0518778 -0.193251 0)
(-0.0517113 -0.143636 0)
(0.02387 -0.00201364 0)
(0.0194528 -0.00216175 0)
(0.0132913 -0.00180939 0)
(0.00621392 0.00105116 0)
(-0.00524645 0.00565234 0)
(-0.0240808 0.0180055 0)
(-0.0571084 0.0287409 0)
(-0.0988599 0.0200173 0)
(-0.136193 0.0444731 0)
(-0.216882 0.100009 0)
(-0.319738 0.116902 0)
(-0.404759 0.0835062 0)
(-0.474226 0.0337364 0)
(-0.535491 0.0258012 0)
(-0.553831 0.0163897 0)
(-0.554265 0.009295 0)
(-0.547289 0.0077338 0)
(-0.546257 0.0111034 0)
(-0.545177 0.00965999 0)
(-0.530162 0.00893158 0)
(-0.523668 0.0176902 0)
(-0.523175 0.0144816 0)
(-0.509772 -0.00908434 0)
(-0.49938 -0.0234548 0)
(-0.500388 -0.0315684 0)
(-0.492566 -0.0535916 0)
(-0.467565 -0.056928 0)
(-0.450997 -0.0380259 0)
(-0.44574 -0.0317498 0)
(-0.434748 -0.0429679 0)
(-0.428308 -0.0555883 0)
(-0.427769 -0.0586325 0)
(-0.438617 -0.0562211 0)
(-0.442524 -0.0548726 0)
(-0.423998 -0.0603862 0)
(-0.368961 -0.0693266 0)
(-0.323057 -0.0922802 0)
(-0.242371 -0.128781 0)
(-0.144037 -0.128325 0)
(-0.0459493 -0.0751816 0)
(0.0013235 0.0231335 0)
(-0.00946532 0.0215248 0)
(-0.0279008 0.0248815 0)
(-0.0419716 0.0335161 0)
(-0.0669598 0.0523754 0)
(-0.0930515 0.0760262 0)
(-0.113562 0.0933418 0)
(-0.156455 0.125539 0)
(-0.210849 0.170815 0)
(-0.262952 0.194259 0)
(-0.303423 0.186186 0)
(-0.352044 0.156462 0)
(-0.394509 0.160872 0)