/*--------------------------------*- C++ -*----------------------------------*\
  =========                 |
  \\      /  F ield         | OpenFOAM: The Open Source CFD Toolbox
   \\    /   O peration     | Website:  https://openfoam.org
    \\  /    A nd           | Version:  8
     \\/     M anipulation  |
\*---------------------------------------------------------------------------*/
FoamFile
{
    version     2.0;
    format      ascii;
    class       surfaceScalarField;
    location    "4.8";
    object      alphaPhi0.water;
}
// * * * * * * * * * * * * * * * * * * * * * * * * * * * * * * * * * * * * * //

dimensions      [0 3 -1 0 0 0 0];

internalField   nonuniform List<scalar> 
18095
(
1.58156e-07
-9.65518e-07
8.07362e-07
1.65248e-07
-1.24826e-06
1.24116e-06
1.22156e-07
-1.24225e-06
1.28534e-06
6.53449e-08
-1.26344e-06
1.32025e-06
7.21469e-11
-1.28043e-06
1.34571e-06
-6.52136e-08
-1.28045e-06
1.34573e-06
-1.22057e-07
-1.26348e-06
1.32032e-06
-1.65184e-07
-1.24229e-06
1.28542e-06
-1.5813e-07
-1.24829e-06
1.24124e-06
-9.65599e-07
8.07469e-07
1.11003e-07
-1.07652e-06
9.9368e-08
-1.23662e-06
7.28383e-08
-1.21572e-06
4.00514e-08
-1.23065e-06
4.8173e-11
-1.24043e-06
-3.99623e-08
-1.24044e-06
-7.27674e-08
-1.23067e-06
-9.93145e-08
-1.21574e-06
-1.10972e-07
-1.23663e-06
-1.07657e-06
6.71677e-08
-1.14369e-06
5.27458e-08
-1.2222e-06
4.21273e-08
-1.2051e-06
2.38705e-08
-1.21239e-06
3.05908e-11
-1.21659e-06
-2.38133e-08
-1.21659e-06
-4.2081e-08
-1.2124e-06
-5.27103e-08
-1.20511e-06
-6.71418e-08
-1.2222e-06
-1.14371e-06
3.96805e-08
-1.18337e-06
2.66393e-08
-1.20916e-06
2.2011e-08
-1.20048e-06
1.25339e-08
-1.20292e-06
1.71902e-11
-1.20407e-06
-1.25015e-08
-1.20407e-06
-2.19844e-08
-1.20292e-06
-2.66193e-08
-1.20048e-06
-3.96633e-08
-1.20916e-06
-1.18338e-06
1.66311e-08
7.47203e-09
6.99624e-09
4.07865e-09
5.78559e-12
-4.0677e-09
-6.98732e-09
-7.46597e-09
-1.66241e-08
-1.73752e-07
-1.16395e-06
1.3377e-06
-2.17548e-07
-1.21587e-06
1.25966e-06
-1.64007e-07
-1.21251e-06
1.15897e-06
-8.62763e-08
-1.20395e-06
1.12621e-06
7.91915e-10
-1.20257e-06
1.1155e-06
8.78289e-08
-1.20269e-06
1.11565e-06
1.65404e-07
-1.20427e-06
1.12669e-06
2.18815e-07
-1.21298e-06
1.15957e-06
1.74927e-07
-1.21652e-06
1.26041e-06
-1.16471e-06
1.33964e-06
-9.30139e-08
-1.07093e-06
-9.53254e-08
-1.21356e-06
-7.87621e-08
-1.22907e-06
-4.37269e-08
-1.23898e-06
4.47624e-10
-1.24674e-06
4.4586e-08
-1.24682e-06
7.95294e-08
-1.23921e-06
9.59551e-08
-1.2294e-06
9.33756e-08
-1.21394e-06
-1.07134e-06
-5.78553e-08
-1.01308e-06
-5.502e-08
-1.21639e-06
-4.62805e-08
-1.23781e-06
-2.6857e-08
-1.2584e-06
2.69402e-10
-1.27387e-06
2.73701e-08
-1.27393e-06
4.67203e-08
-1.25856e-06
5.53412e-08
-1.23802e-06
5.8012e-08
-1.21661e-06
-1.01333e-06
-7.47029e-08
-9.38374e-07
-6.183e-08
-1.22926e-06
-4.84416e-08
-1.2512e-06
-2.76151e-08
-1.27923e-06
1.67216e-10
-1.30165e-06
2.79311e-08
-1.30169e-06
4.87045e-08
-1.27934e-06
6.20077e-08
-1.25133e-06
7.47859e-08
-1.22939e-06
-9.3854e-07
-1.31012e-07
-1.19111e-07
-8.49677e-08
-4.3948e-08
1.08527e-10
4.41519e-08
8.51347e-08
1.19226e-07
1.31071e-07
-3.37884e-08
-9.22415e-07
9.56204e-07
1.1781e-08
-1.3394e-06
1.29383e-06
1.6464e-08
-1.27483e-06
1.27015e-06
1.15474e-08
-1.22618e-06
1.23109e-06
7.10177e-09
-1.22311e-06
1.22755e-06
2.77372e-09
-1.22412e-06
1.22845e-06
-3.18218e-09
-1.2263e-06
1.23226e-06
5.66082e-09
-1.27299e-06
1.26415e-06
5.93863e-08
-1.3429e-06
1.28917e-06
-9.47768e-07
1.00715e-06
1.71326e-08
-9.39548e-07
2.49915e-08
-1.34726e-06
1.74851e-08
-1.26732e-06
1.14302e-08
-1.22012e-06
5.30714e-09
-1.21698e-06
-1.0324e-09
-1.21778e-06
-7.2462e-09
-1.22009e-06
-1.20688e-08
-1.26817e-06
-5.82248e-09
-1.34914e-06
-9.53591e-07
3.10236e-08
-9.70571e-07
2.23743e-08
-1.33861e-06
1.43286e-08
-1.25928e-06
9.45853e-09
-1.21525e-06
3.43575e-09
-1.21096e-06
-3.13192e-09
-1.21121e-06
-7.82449e-09
-1.2154e-06
-1.60008e-08
-1.25999e-06
-2.51323e-08
-1.34001e-06
-9.78723e-07
8.09411e-08
-1.05151e-06
5.40579e-08
-1.31172e-06
3.52751e-08
-1.24049e-06
2.2765e-08
-1.20274e-06
2.07245e-09
-1.19027e-06
-1.87198e-08
-1.19042e-06
-3.06849e-08
-1.20343e-06
-4.92039e-08
-1.24147e-06
-7.68701e-08
-1.31235e-06
-1.05559e-06
2.86186e-07
2.34125e-07
1.52599e-07
7.60711e-08
1.30164e-09
-7.34684e-08
-1.50205e-07
-2.32113e-07
-2.84048e-07
4.775e-08
3.46145e-09
-5.12115e-08
4.42914e-08
3.45831e-09
4.08435e-08
3.44769e-09
3.74146e-08
3.42907e-09
3.40107e-08
3.40394e-09
3.06368e-08
3.3737e-09
2.72997e-08
3.33709e-09
2.40029e-08
3.29693e-09
2.07523e-08
3.25091e-09
3.19872e-09
1.75537e-08
4.57353e-08
7.20649e-09
-4.94803e-08
4.19668e-08
7.22685e-09
3.81903e-08
7.22412e-09
3.44213e-08
7.19824e-09
3.0674e-08
7.15136e-09
2.69616e-08
7.08627e-09
2.32935e-08
7.00531e-09
1.96845e-08
6.90612e-09
1.61434e-08
6.79217e-09
6.66435e-09
1.26779e-08
3.7514e-08
1.07937e-08
-4.11012e-08
3.39085e-08
1.08321e-08
3.03003e-08
1.08323e-08
2.67022e-08
1.07965e-08
2.31271e-08
1.07266e-08
1.9588e-08
1.06255e-08
1.60976e-08
1.04955e-08
1.26651e-08
1.03388e-08
9.29987e-09
1.01575e-08
9.95677e-09
6.00754e-09
2.92582e-08
1.42196e-08
-3.26841e-08
2.58236e-08
1.42666e-08
2.23928e-08
1.42631e-08
1.89777e-08
1.42117e-08
1.55888e-08
1.41155e-08
1.22366e-08
1.39776e-08
8.93069e-09
1.38013e-08
5.67915e-09
1.35904e-08
2.48695e-09
1.33498e-08
1.30843e-08
-6.40572e-10
2.10505e-08
1.7512e-08
-2.4343e-08
1.77561e-08
1.75609e-08
1.44701e-08
1.7549e-08
1.12014e-08
1.74803e-08
7.95916e-09
1.73575e-08
4.75141e-09
1.71853e-08
1.5841e-09
1.69686e-08
-1.53758e-09
1.67122e-08
-4.60992e-09
1.64222e-08
1.61048e-08
-7.63038e-09
1.27413e-08
2.07085e-08
-1.59378e-08
9.54385e-09
2.07582e-08
6.35298e-09
2.07397e-08
3.17641e-09
2.06568e-08
2.03819e-11
2.05134e-08
-3.11054e-09
2.03163e-08
-6.21182e-09
2.007e-08
-9.28123e-09
1.97816e-08
-1.23176e-08
1.94585e-08
1.91084e-08
-1.53213e-08
4.18933e-09
2.38616e-08
-7.34255e-09
1.02867e-09
2.39189e-08
-2.13419e-09
2.39025e-08
-5.29507e-09
2.38177e-08
-8.45061e-09
2.3669e-08
-1.15976e-08
2.34632e-08
-1.47352e-08
2.32075e-08
-1.78637e-08
2.291e-08
-2.09847e-08
2.25795e-08
2.22249e-08
-2.41012e-08
-4.75076e-09
2.70416e-08
1.57068e-09
-7.9553e-09
2.71236e-08
-1.11824e-08
2.71298e-08
-1.44302e-08
2.70655e-08
-1.76985e-08
2.69372e-08
-2.09877e-08
2.67523e-08
-2.42996e-08
2.65193e-08
-2.76372e-08
2.62474e-08
-3.10042e-08
2.59465e-08
2.56265e-08
-3.44058e-08
-1.4231e-08
3.03392e-08
1.09336e-08
-1.75824e-08
3.04752e-08
-2.09895e-08
3.05369e-08
-2.44548e-08
3.05307e-08
-2.7981e-08
3.04634e-08
-3.1572e-08
3.03432e-08
-3.52315e-08
3.01788e-08
-3.89638e-08
2.99796e-08
-4.27723e-08
2.97551e-08
2.95147e-08
-4.66605e-08
-2.43927e-08
3.38613e-08
2.08706e-08
-2.80128e-08
3.40956e-08
-3.17376e-08
3.42617e-08
-3.5573e-08
3.43661e-08
-3.95252e-08
3.44156e-08
-4.35995e-08
3.44174e-08
-4.77991e-08
3.43785e-08
-5.21252e-08
3.43056e-08
-5.65751e-08
3.4205e-08
3.40815e-08
-6.11419e-08
-3.53368e-08
3.77238e-08
3.14744e-08
-3.93553e-08
3.81142e-08
-4.35404e-08
3.84468e-08
-4.79012e-08
3.87269e-08
-5.24446e-08
3.89589e-08
-5.71734e-08
3.91464e-08
-6.2086e-08
3.92911e-08
-6.71729e-08
3.93925e-08
-7.24163e-08
3.94483e-08
3.94536e-08
-7.77883e-08
-4.70797e-08
4.20312e-08
4.27725e-08
-5.16077e-08
4.26423e-08
-5.63696e-08
4.32088e-08
-6.13748e-08
4.37306e-08
-6.66256e-08
4.42094e-08
-7.21186e-08
4.46393e-08
-7.78399e-08
4.50125e-08
-8.37629e-08
4.53161e-08
-8.98491e-08
4.55342e-08
4.56493e-08
-9.60454e-08
-5.95021e-08
4.68463e-08
5.4687e-08
-6.45963e-08
4.77369e-08
-6.99813e-08
4.85934e-08
-7.56628e-08
4.94114e-08
-8.16366e-08
5.01818e-08
-8.78859e-08
5.08886e-08
-9.4384e-08
5.15106e-08
-1.01086e-07
5.20183e-08
-1.07929e-07
5.23771e-08
5.25495e-08
-1.1483e-07
-7.23218e-08
5.21629e-08
6.70071e-08
-7.79547e-08
5.33695e-08
-8.39075e-08
5.45458e-08
-9.01788e-08
5.56814e-08
-9.67541e-08
5.6757e-08
-1.03613e-07
5.77477e-08
-1.10723e-07
5.86203e-08
-1.18033e-07
5.93282e-08
-1.25436e-07
5.97805e-08
5.9757e-08
-1.32441e-07
-8.51142e-08
5.78906e-08
7.93868e-08
-9.11539e-08
5.94112e-08
-9.75001e-08
6.08917e-08
-1.04138e-07
6.23178e-08
-1.11047e-07
6.36662e-08
-1.18211e-07
6.49114e-08
-1.25611e-07
6.60209e-08
-1.33232e-07
6.69486e-08
-1.40892e-07
6.74415e-08
6.63793e-08
-1.46885e-07
-9.73737e-08
6.38651e-08
9.13991e-08
-1.03611e-07
6.56504e-08
-1.10084e-07
6.73637e-08
-1.16754e-07
6.89877e-08
-1.23589e-07
7.05017e-08
-1.30568e-07
7.18906e-08
-1.37689e-07
7.31416e-08
-1.44855e-07
7.42107e-08
-1.51657e-07
7.40706e-08
7.27625e-08
-1.58846e-07
-1.08724e-07
6.99131e-08
1.02676e-07
-1.14968e-07
7.18947e-08
-1.21362e-07
7.37579e-08
-1.27856e-07
7.54817e-08
-1.34408e-07
7.7054e-08
-1.4099e-07
7.84729e-08
-1.476e-07
7.97525e-08
-1.53684e-07
8.08484e-08
-1.5917e-07
8.05366e-08
7.87017e-08
-1.67058e-07
-1.18704e-07
7.58759e-08
1.12741e-07
-1.24805e-07
7.79953e-08
-1.30997e-07
7.99493e-08
-1.3724e-07
8.17244e-08
-1.43506e-07
8.33197e-08
-1.4978e-07
8.47474e-08
-1.56061e-07
8.60334e-08
-1.6232e-07
8.71506e-08
-1.66001e-07
8.64754e-08
8.18034e-08
-1.65022e-07
-1.267e-07
8.1554e-08
1.21022e-07
-1.32454e-07
8.37489e-08
-1.38247e-07
8.57416e-08
-1.44054e-07
8.75315e-08
-1.49874e-07
8.91395e-08
-1.5572e-07
9.05942e-08
-1.61576e-07
9.18881e-08
-1.66381e-07
9.21366e-08
-1.58754e-07
8.69802e-08
8.37273e-08
-1.60478e-07
-1.32121e-07
8.66686e-08
1.27006e-07
-1.37213e-07
8.8841e-08
-1.42241e-07
9.077e-08
-1.47181e-07
9.24717e-08
-1.52028e-07
9.39857e-08
-1.56794e-07
9.536e-08
-1.61086e-07
9.61864e-08
-1.53163e-07
9.12093e-08
-1.53096e-07
8.73808e-08
8.507e-08
-1.54106e-07
-1.34815e-07
9.09741e-08
1.30509e-07
-1.3893e-07
9.29637e-08
-1.42916e-07
9.4669e-08
-1.46744e-07
9.62111e-08
-1.5033e-07
9.75724e-08
-1.53634e-07
9.86666e-08
-1.46492e-07
9.53782e-08
-1.43888e-07
8.97306e-08
-1.44338e-07
8.8245e-08
8.64007e-08
-1.45201e-07
-1.34947e-07
9.43121e-08
1.31632e-07
-1.37956e-07
9.59866e-08
-1.40672e-07
9.74471e-08
-1.4339e-07
9.87302e-08
-1.4576e-07
9.99527e-08
-1.45275e-07
9.95971e-08
-1.3664e-07
9.32094e-08
-1.37401e-07
9.07122e-08
-1.36941e-07
8.80721e-08
8.78011e-08
-1.45494e-07
-1.32646e-07
9.6575e-08
1.30538e-07
-1.34407e-07
9.76533e-08
-1.35692e-07
9.87971e-08
-1.36792e-07
9.98283e-08
-1.37352e-07
1.00552e-07
-1.26896e-07
9.3227e-08
-1.2477e-07
9.13843e-08
-1.23317e-07
8.95418e-08
-1.22755e-07
8.65353e-08
8.91043e-08
-1.3248e-07
-1.28548e-07
9.69712e-08
1.27441e-07
-1.28515e-07
9.77452e-08
-1.28187e-07
9.84756e-08
-1.27656e-07
9.93006e-08
-1.21384e-07
9.69671e-08
-1.13543e-07
9.09734e-08
-1.11696e-07
8.98294e-08
-1.09221e-07
8.74072e-08
-1.14314e-07
8.4329e-08
8.67626e-08
-1.16593e-07
-1.20863e-07
9.54866e-08
1.18632e-07
-1.19186e-07
9.60595e-08
-1.17506e-07
9.6788e-08
-1.14888e-07
9.74996e-08
-1.03118e-07
9.24059e-08
-1.00993e-07
8.90825e-08
-9.85044e-08
8.758e-08
-9.5516e-08
8.47116e-08
-9.65318e-08
8.08721e-08
8.26296e-08
-1.00723e-07
-1.08359e-07
9.24479e-08
1.06108e-07
-1.05968e-07
9.36598e-08
-1.03982e-07
9.47932e-08
-1.01324e-07
9.57943e-08
-9.03358e-08
9.18428e-08
-8.83489e-08
8.72762e-08
-8.57537e-08
8.5157e-08
-8.26191e-08
8.1816e-08
-8.1126e-08
7.92573e-08
7.89921e-08
-8.50966e-08
-9.48475e-08
8.84775e-08
9.88132e-08
-9.1633e-08
9.0437e-08
-8.94588e-08
9.26198e-08
-8.81393e-08
9.46247e-08
-8.59756e-08
9.58151e-08
-7.72184e-08
9.25039e-08
-7.52036e-08
8.32532e-08
-7.18223e-08
7.86069e-08
-7.36231e-08
7.84587e-08
7.6296e-08
-7.09272e-08
-8.12991e-08
8.25605e-08
8.72137e-08
-7.67221e-08
8.58523e-08
-7.37631e-08
8.96608e-08
-7.27235e-08
9.35852e-08
-7.31004e-08
9.61974e-08
-7.23587e-08
9.25718e-08
-6.77987e-08
8.78701e-08
-6.46024e-08
8.20859e-08
-6.24465e-08
7.6006e-08
7.16467e-08
-5.77974e-08
-7.15477e-08
7.44375e-08
7.96687e-08
-6.45612e-08
7.88588e-08
-5.92528e-08
8.4343e-08
-5.60333e-08
9.03604e-08
-5.41688e-08
8.50482e-08
-6.14676e-08
7.19424e-08
-5.97618e-08
8.45681e-08
-5.26749e-08
7.5001e-08
-4.70647e-08
7.03956e-08
6.77434e-08
-4.31616e-08
-7.29375e-08
6.51177e-08
8.22578e-08
-6.43422e-08
7.02629e-08
-5.49253e-08
7.41185e-08
-4.42426e-08
5.70205e-08
-3.176e-08
5.43267e-08
-2.05562e-08
5.1764e-08
-2.8549e-08
4.58554e-08
-2.89672e-08
5.1906e-08
-2.57621e-08
5.06258e-08
5.15845e-08
-2.67963e-08
-8.40515e-08
5.58424e-08
9.33258e-08
-7.02167e-08
5.89627e-08
-4.70546e-08
4.49219e-08
-3.36316e-08
4.32006e-08
-2.49018e-08
4.57376e-08
-1.87781e-08
4.58921e-08
-1.62057e-08
4.35751e-08
-1.6791e-08
4.06829e-08
-1.55246e-08
3.8152e-08
3.51116e-08
-9.82434e-09
-1.00621e-07
4.84167e-08
1.08045e-07
-8.15231e-08
5.06486e-08
-4.54865e-08
4.12841e-08
-3.79389e-08
3.5785e-08
-3.10367e-08
3.89958e-08
-2.4918e-08
3.99922e-08
-2.02737e-08
3.91826e-08
-1.68216e-08
3.75201e-08
-1.13937e-08
3.27857e-08
3.02587e-08
-6.80351e-09
-1.13285e-07
4.2619e-08
1.19105e-07
-1.06587e-07
4.53016e-08
-9.29701e-08
4.87122e-08
-7.26968e-08
4.98823e-08
-4.10626e-08
4.49671e-08
-3.19717e-08
3.10898e-08
-2.28399e-08
3.02909e-08
-1.23683e-08
3.7995e-08
-1.06876e-08
4.3017e-08
4.24693e-08
-6.65637e-09
-1.17889e-07
3.69364e-08
1.23575e-07
-1.11303e-07
3.8734e-08
-1.0323e-07
4.07653e-08
-9.17892e-08
4.25824e-08
-7.69426e-08
4.35632e-08
-6.26722e-08
4.32071e-08
-5.21788e-08
4.1758e-08
-4.43004e-08
3.95012e-08
-3.486e-08
3.65367e-08
3.29069e-08
-2.52727e-08
-1.19424e-07
3.11778e-08
1.25183e-07
-1.12939e-07
3.22496e-08
-1.05599e-07
3.34332e-08
-9.74284e-08
3.44326e-08
-8.86814e-08
3.48374e-08
-7.9796e-08
3.43241e-08
-7.09373e-08
3.29022e-08
-6.22274e-08
3.07927e-08
-5.38269e-08
2.81366e-08
2.51419e-08
-4.6062e-08
-1.2157e-07
2.56104e-08
1.27138e-07
-1.15597e-07
2.62764e-08
-1.09344e-07
2.71805e-08
-1.03026e-07
2.81146e-08
-9.68107e-08
2.86218e-08
-9.06656e-08
2.81789e-08
-8.45332e-08
2.67698e-08
-7.85635e-08
2.4823e-08
-7.3036e-08
2.26091e-08
2.01722e-08
-6.80663e-08
-1.25817e-07
2.03071e-08
1.3112e-07
-1.20345e-07
2.08043e-08
-1.14988e-07
2.1824e-08
-1.10115e-07
2.32416e-08
-1.0625e-07
2.47558e-08
-1.02713e-07
2.4642e-08
-9.87994e-08
2.28564e-08
-9.53875e-08
2.1411e-08
-9.28673e-08
2.00888e-08
1.84446e-08
-9.11397e-08
-1.33141e-07
1.53089e-08
1.38139e-07
-1.28158e-07
1.58213e-08
-1.23111e-07
1.67775e-08
-1.12367e-07
1.83467e-08
-1.02478e-07
1.9151e-08
-1.10195e-07
1.98075e-08
-1.11769e-07
2.04113e-08
-1.0979e-07
1.83732e-08
-1.11801e-07
2.04875e-08
2.05927e-08
-1.13949e-07
-1.43001e-07
1.08061e-08
1.47504e-07
-1.35998e-07
1.12424e-08
-1.15256e-07
1.14866e-08
-1.09448e-07
1.24289e-08
-1.04714e-07
1.4293e-08
-1.0111e-07
1.60942e-08
-1.02793e-07
1.75096e-08
-1.18021e-07
2.08907e-08
-1.02992e-07
1.93354e-08
2.15899e-08
-1.23254e-07
-1.54511e-07
8.12911e-09
1.57236e-07
-1.49404e-07
8.59085e-09
-1.24659e-07
9.03992e-09
-1.2191e-07
9.56438e-09
-1.18846e-07
1.11033e-08
-1.18274e-07
1.53974e-08
-1.38642e-07
2.16135e-08
-1.31326e-07
2.5179e-08
-1.14029e-07
2.2083e-08
2.30466e-08
-1.16791e-07
-1.68556e-07
6.60221e-09
1.69718e-07
-1.67168e-07
7.23287e-09
-1.62296e-07
8.54486e-09
-1.51467e-07
1.05379e-08
-1.506e-07
1.32247e-08
-1.6335e-07
1.74163e-08
-1.64271e-07
2.21129e-08
-1.56515e-07
2.61094e-08
-1.29286e-07
2.71997e-08
2.67574e-08
-1.34264e-07
-1.82825e-07
6.51561e-09
1.82872e-07
-1.8298e-07
7.36063e-09
-1.83372e-07
8.98317e-09
-1.84142e-07
1.14022e-08
-1.85433e-07
1.46781e-08
-1.86836e-07
1.88195e-08
-1.88294e-07
2.35812e-08
-1.90758e-07
2.87315e-08
-1.55524e-07
3.3945e-08
3.12327e-08
-1.51193e-07
-1.97167e-07
7.53938e-09
1.96143e-07
-1.98447e-07
8.63988e-09
-2.00042e-07
1.05775e-08
-2.02039e-07
1.3399e-08
-2.04495e-07
1.7134e-08
-2.07449e-07
2.17741e-08
-2.11098e-07
2.72299e-08
-2.157e-07
3.3344e-08
-2.21239e-07
3.98211e-08
4.60337e-08
-1.99459e-07
-2.11013e-07
9.54594e-09
2.09004e-07
-2.1328e-07
1.09064e-08
-2.15891e-07
1.31887e-08
-2.18974e-07
1.64817e-08
-2.227e-07
2.08599e-08
-2.273e-07
2.63744e-08
-2.33111e-07
3.30411e-08
-2.40455e-07
4.06882e-08
-2.49103e-07
4.84757e-08
5.46163e-08
-2.5312e-07
-2.23579e-07
1.25126e-08
2.20612e-07
-2.26752e-07
1.40799e-08
-2.3022e-07
1.66566e-08
-2.34129e-07
2.039e-08
-2.38713e-07
2.54439e-08
-2.44354e-07
3.20159e-08
-2.51706e-07
4.03931e-08
-2.61947e-07
5.09285e-08
-2.76708e-07
6.3238e-08
7.10434e-08
-2.93128e-07
-2.33747e-07
1.63743e-08
2.29886e-07
-2.37668e-07
1.80001e-08
-2.4164e-07
2.06287e-08
-2.45662e-07
2.44126e-08
-2.49757e-07
2.95389e-08
-2.53949e-07
3.62079e-08
-2.57817e-07
4.42608e-08
-1.94026e-07
3.71674e-08
-1.67853e-07
1.97999e-08
1.36645e-08
-2.02038e-07
-2.41143e-07
2.12827e-08
2.36234e-07
-2.46101e-07
2.29581e-08
-2.51061e-07
2.55893e-08
-2.55946e-07
2.92982e-08
-2.6061e-07
3.42181e-08
-2.64456e-07
4.02797e-08
-1.66305e-07
4.16e-08
-3.15486e-08
1.34522e-08
-1.20084e-08
2.89968e-09
9.92408e-10
-2.26869e-08
-2.43861e-07
2.70935e-08
2.3805e-07
-2.49832e-07
2.89289e-08
-2.5599e-07
3.17474e-08
-2.62362e-07
3.56742e-08
-2.68958e-07
4.08562e-08
-2.75473e-07
4.73499e-08
-1.71381e-07
5.05054e-08
-1.56976e-08
2.17173e-08
-9.46551e-09
3.84239e-09
3.97353e-09
-4.69682e-09
-2.401e-07
3.30147e-08
2.34179e-07
-2.46179e-07
3.50085e-08
-2.52468e-07
3.80356e-08
-2.5904e-07
4.22477e-08
-2.65992e-07
4.78285e-08
-2.73399e-07
5.50307e-08
-2.81232e-07
6.43091e-08
-1.83828e-07
7.60348e-08
-1.59632e-08
5.24021e-08
8.9351e-09
-3.06033e-09
-2.29331e-07
3.80568e-08
2.24289e-07
-2.34271e-07
3.99483e-08
-2.39058e-07
4.28228e-08
-2.43624e-07
4.68137e-08
-2.47856e-07
5.20613e-08
-2.51532e-07
5.87175e-08
-2.54165e-07
6.69713e-08
-2.54721e-07
7.69262e-08
-2.26991e-07
8.85031e-08
9.89477e-08
-1.49511e-07
-2.14119e-07
4.17948e-08
2.10381e-07
-2.17478e-07
4.33076e-08
-2.20331e-07
4.56751e-08
-2.22519e-07
4.90022e-08
-2.23799e-07
5.33405e-08
-2.23748e-07
5.8667e-08
-2.21751e-07
6.49764e-08
-2.17014e-07
7.22059e-08
-2.08187e-07
7.98028e-08
8.70578e-08
-1.92604e-07
-1.97704e-07
4.44354e-08
1.95063e-07
-1.99789e-07
4.5393e-08
-2.01163e-07
4.70493e-08
-2.01764e-07
4.96031e-08
-2.01454e-07
5.30306e-08
-1.99885e-07
5.70985e-08
-1.96486e-07
6.15786e-08
-1.90866e-07
6.65876e-08
-1.82657e-07
7.16018e-08
7.4908e-08
-1.7046e-07
-1.83608e-07
4.66207e-08
1.81423e-07
-1.85168e-07
4.69524e-08
-1.85819e-07
4.77006e-08
-1.85374e-07
4.91577e-08
-1.84449e-07
5.21052e-08
-1.82209e-07
5.48586e-08
-1.75323e-07
5.4579e-08
-1.63997e-07
5.29773e-08
-1.54348e-07
5.53374e-08
5.30527e-08
-1.4181e-07
-1.75271e-07
4.93753e-08
1.72517e-07
-1.77715e-07
4.9396e-08
-1.7823e-07
4.82153e-08
-1.75344e-07
4.64343e-08
-1.56813e-07
4.30911e-08
-1.38897e-07
3.84888e-08
-1.2478e-07
3.77892e-08
-1.15683e-07
4.11943e-08
-1.04573e-07
4.12747e-08
4.43191e-08
-9.89353e-08
-1.68138e-07
4.8151e-08
1.69362e-07
-1.5618e-07
4.83893e-08
-1.40769e-07
3.44099e-08
-1.31833e-07
3.56124e-08
-1.2431e-07
3.36715e-08
-1.2079e-07
3.30719e-08
-1.20329e-07
3.54315e-08
-1.32337e-07
4.50565e-08
-1.34971e-07
4.84814e-08
4.95806e-08
-1.33004e-07
-1.30819e-07
3.19886e-08
1.47138e-07
-1.17241e-07
3.44347e-08
-1.19345e-07
3.55713e-08
-1.50095e-07
4.10542e-08
-1.51882e-07
4.25421e-08
-1.51664e-07
4.32582e-08
-1.56929e-07
4.41537e-08
-1.59277e-07
4.66323e-08
-1.60065e-07
4.94947e-08
5.15261e-08
-1.61723e-07
-1.22025e-07
3.66913e-08
1.11913e-07
-1.57981e-07
4.47909e-08
-1.62104e-07
4.28979e-08
-1.63878e-07
4.2041e-08
-1.64213e-07
4.2906e-08
-1.6609e-07
4.51773e-08
-1.70371e-07
4.86466e-08
-1.77241e-07
5.37313e-08
-1.89023e-07
6.1476e-08
5.71881e-08
-1.94459e-07
-1.66493e-07
4.73479e-08
1.52597e-07
-1.65419e-07
4.37464e-08
-1.65027e-07
4.25389e-08
-1.66297e-07
4.33396e-08
-1.6947e-07
4.6108e-08
-1.76421e-07
5.2157e-08
-1.81617e-07
5.38851e-08
-1.67909e-07
4.93852e-08
-8.32618e-08
1.24741e-08
1.11744e-08
-5.60049e-08
-1.6177e-07
4.56731e-08
1.63504e-07
-1.61145e-07
4.31825e-08
-1.62106e-07
4.35572e-08
-1.64155e-07
4.54213e-08
-1.59144e-07
4.11269e-08
-8.67379e-08
1.89178e-08
-5.32155e-08
1.45614e-08
-2.92891e-08
1.25384e-08
-2.28301e-08
1.09132e-08
6.35005e-09
-1.46338e-08
-1.47977e-07
4.43773e-08
1.49307e-07
-1.43542e-07
3.8807e-08
-1.16126e-07
3.30308e-08
-5.58002e-08
1.41033e-08
-2.98199e-08
8.09323e-09
-1.65521e-08
5.86683e-09
-1.2198e-08
5.61309e-09
-6.40003e-09
2.14621e-09
9.97274e-11
1.78e-09
-1.26717e-08
2.55671e-08
-1.03591e-07
3.55815e-08
1.22407e-07
-4.8839e-08
1.16514e-08
-1.79035e-08
6.01472e-09
-1.07617e-08
7.22095e-09
-4.88891e-09
2.38004e-09
2.83957e-10
9.0128e-10
1.53121e-08
1.58774e-09
4.59543e-08
-9.26757e-09
9.37085e-08
-2.12485e-08
-4.4416e-08
1.2672e-07
-3.89348e-08
1.70285e-08
8.54597e-08
-1.56846e-08
4.58781e-09
-2.57329e-09
-6.86653e-10
9.63361e-09
1.39606e-09
2.72106e-08
-5.38987e-09
5.67505e-08
-1.54611e-08
9.11596e-08
-2.28165e-08
1.14856e-07
-3.42998e-08
1.39425e-07
-4.71979e-08
-5.87681e-08
1.52035e-07
-1.4684e-08
9.84719e-09
3.07423e-08
-1.59549e-09
-4.29313e-09
1.21182e-08
-1.58579e-08
3.78828e-08
-2.39416e-08
6.41821e-08
-3.18342e-08
8.79445e-08
-3.95697e-08
1.1163e-07
-4.70399e-08
1.29613e-07
-5.29418e-08
1.1811e-07
-4.45864e-08
-2.98186e-08
6.359e-08
1.89752e-08
-2.65925e-09
-6.48431e-09
3.32549e-08
-1.87252e-08
5.01715e-08
-3.29357e-08
7.10539e-08
-4.49764e-08
9.33028e-08
-5.51243e-08
1.16275e-07
-6.35852e-08
1.35289e-07
-6.67191e-08
9.65031e-08
-4.23592e-08
5.28755e-08
-2.87923e-08
-3.73667e-08
6.0645e-08
5.13847e-08
-1.59641e-08
-3.79802e-08
6.68751e-08
-3.42282e-08
8.46712e-08
-5.08877e-08
1.05191e-07
-6.55944e-08
1.26657e-07
-7.76748e-08
1.49242e-07
-8.67588e-08
1.13656e-07
-7.54242e-08
5.08714e-08
-3.40183e-08
6.57142e-08
-4.1529e-08
-6.15432e-08
8.75924e-08
8.05794e-08
-3.12619e-08
-6.4856e-08
9.77845e-08
-5.14242e-08
1.16845e-07
-7.01127e-08
1.37736e-07
-8.68791e-08
1.60742e-07
-1.01077e-07
1.79147e-07
-1.05566e-07
5.56946e-08
-6.22895e-08
6.49991e-08
-4.35589e-08
8.78118e-08
-6.21314e-08
-9.4169e-08
1.22991e-07
1.09671e-07
-4.80415e-08
-9.2976e-08
1.28372e-07
-7.01083e-08
1.48504e-07
-9.11706e-08
1.71269e-07
-1.10836e-07
1.97662e-07
-1.27872e-07
1.50871e-07
-1.24443e-07
6.92455e-08
-5.35111e-08
8.90879e-08
-6.45517e-08
1.22812e-07
-9.36211e-08
-1.48417e-07
1.79374e-07
1.36495e-07
-6.6035e-08
-1.1844e-07
1.56453e-07
-9.00262e-08
1.78125e-07
-1.14197e-07
2.04228e-07
-1.37303e-07
2.33771e-07
-1.57889e-07
8.65855e-08
-1.19191e-07
9.06886e-08
-6.86642e-08
1.18303e-07
-9.24356e-08
1.71962e-07
-1.46252e-07
-2.88961e-07
3.1339e-07
1.6033e-07
-8.41192e-08
-1.42235e-07
1.79081e-07
-1.09362e-07
2.03088e-07
-1.36983e-07
2.31155e-07
-1.66942e-07
2.26537e-07
-1.80563e-07
8.32222e-08
-9.09299e-08
1.1079e-07
-9.81158e-08
1.62953e-07
-1.45002e-07
2.81798e-07
-2.64968e-07
-6.23588e-07
6.86794e-07
1.74861e-07
-1.01447e-07
-1.57991e-07
1.93145e-07
-1.30351e-07
2.16448e-07
-1.62971e-07
2.46407e-07
-1.9708e-07
1.3665e-07
-1.71776e-07
1.17566e-07
-1.07181e-07
1.55574e-07
-1.43237e-07
2.57001e-07
-2.48449e-07
6.04557e-07
-5.9463e-07
-8.6108e-07
8.58218e-07
1.82536e-07
-1.19619e-07
-1.66277e-07
2.05255e-07
-1.54977e-07
2.31754e-07
-1.90398e-07
2.35986e-07
-2.01882e-07
9.78113e-08
-1.18079e-07
1.23782e-07
-1.38356e-07
2.19086e-07
-2.48766e-07
5.30659e-07
-5.61974e-07
7.95066e-07
-8.61029e-07
-9.44379e-07
8.78281e-07
1.90029e-07
-1.39544e-07
-1.72185e-07
2.12148e-07
-1.77371e-07
2.2989e-07
-2.13998e-07
1.11281e-07
-1.6169e-07
1.04544e-07
-1.13252e-07
1.83114e-07
-2.08923e-07
4.42355e-07
-5.10317e-07
7.30311e-07
-8.55127e-07
8.16408e-07
-9.47261e-07
-9.98692e-07
8.70694e-07
1.95574e-07
-1.58908e-07
-1.74582e-07
2.15447e-07
-1.97632e-07
1.84366e-07
-1.94393e-07
9.94174e-08
-9.18378e-08
1.4449e-07
-1.41511e-07
3.41972e-07
-4.0622e-07
6.63505e-07
-8.37305e-07
7.51789e-07
-9.43555e-07
8.05573e-07
-1.00109e-06
-1.04235e-06
8.4922e-07
1.83728e-07
-1.74579e-07
-1.68594e-07
1.86387e-07
-2.00846e-07
7.40289e-08
-1.06509e-07
1.176e-07
-1.1073e-07
2.40144e-07
-2.41384e-07
5.84476e-07
-7.72858e-07
6.79455e-07
-9.32546e-07
7.35163e-07
-9.99308e-07
7.80157e-07
-1.04609e-06
-1.0803e-06
8.18109e-07
1.58611e-07
-1.78374e-07
-1.55112e-07
9.51967e-08
-1.4642e-07
4.33422e-08
-5.10301e-08
9.96845e-08
-1.38771e-07
4.51005e-07
-5.96403e-07
5.9598e-07
-9.21059e-07
6.59949e-07
-9.96542e-07
7.08284e-07
-1.04765e-06
7.48813e-07
-1.08662e-06
-1.11339e-06
7.81909e-07
1.36929e-07
-1.6765e-07
-1.47814e-07
4.23906e-08
-6.24824e-08
6.14185e-08
-6.07012e-08
2.37336e-07
-2.84944e-07
5.29349e-07
-8.73821e-07
5.94317e-07
-9.85879e-07
6.41524e-07
-1.04373e-06
6.82147e-07
-1.08827e-06
7.16704e-07
-1.12118e-06
-1.14047e-06
7.43777e-07
6.29078e-08
-1.17709e-07
-1.24514e-07
2.113e-08
-2.61548e-08
5.78834e-08
-9.58968e-08
4.26108e-07
-5.99548e-07
5.21578e-07
-9.64907e-07
5.7244e-07
-1.0367e-06
6.14691e-07
-1.08597e-06
6.51129e-07
-1.1247e-06
6.80896e-07
-1.15095e-06
-1.16188e-06
7.02308e-07
3.24412e-08
-5.77346e-08
-1.127e-07
3.51557e-08
-3.56697e-08
1.61082e-07
-2.08387e-07
4.66702e-07
-8.85543e-07
5.17837e-07
-1.01592e-06
5.54864e-07
-1.07372e-06
5.88601e-07
-1.1197e-06
6.18525e-07
-1.15463e-06
6.42185e-07
-1.17461e-06
-1.17687e-06
6.57174e-07
1.64994e-08
-1.61885e-08
-7.25216e-08
2.78383e-08
-5.5128e-08
3.45971e-07
-4.85235e-07
4.47557e-07
-9.80183e-07
4.87597e-07
-1.05593e-06
5.2133e-07
-1.10745e-06
5.52036e-07
-1.15041e-06
5.7816e-07
-1.18075e-06
5.97048e-07
-1.19349e-06
-1.18613e-06
6.06308e-07
2.88239e-08
-6.43672e-09
-4.72572e-08
8.38162e-08
-1.19016e-07
3.96925e-07
-7.86232e-07
4.35406e-07
-1.01877e-06
4.61176e-07
-1.0817e-06
4.87287e-07
-1.13356e-06
5.12598e-07
-1.17572e-06
5.33752e-07
-1.20191e-06
5.47611e-07
-1.20735e-06
-1.19043e-06
5.51917e-07
7.26332e-09
-1.16499e-08
-5.1783e-09
1.85223e-07
-2.84764e-07
3.56619e-07
-9.5525e-07
3.87304e-07
-1.04949e-06
4.13257e-07
-1.10766e-06
4.39309e-07
-1.15962e-06
4.63052e-07
-1.19946e-06
4.81247e-07
-1.2201e-06
4.91564e-07
-1.21767e-06
-1.19152e-06
4.92646e-07
1.10798e-08
-2.4985e-08
-1.22395e-09
2.71789e-07
-5.52805e-07
3.19697e-07
-1.00407e-06
3.43485e-07
-1.0733e-06
3.67076e-07
-1.13125e-06
3.90367e-07
-1.18291e-06
4.10034e-07
-1.21913e-06
4.2329e-07
-1.23336e-06
4.2896e-07
-1.22334e-06
-1.18959e-06
4.27037e-07
4.98754e-08
-7.20799e-08
-6.41483e-09
2.64793e-07
-7.78224e-07
2.82672e-07
-1.02204e-06
2.98657e-07
-1.0893e-06
3.1852e-07
-1.15111e-06
3.38118e-07
-1.20251e-06
3.52942e-07
-1.23395e-06
3.60564e-07
-1.24098e-06
3.60442e-07
-1.22322e-06
-1.18134e-06
3.5219e-07
8.60983e-08
-1.71275e-07
-3.08624e-10
1.99127e-07
-8.99426e-07
2.21089e-07
-1.04404e-06
2.43353e-07
-1.11156e-06
2.65618e-07
-1.17338e-06
2.8395e-07
-1.22084e-06
2.95325e-07
-1.24533e-06
2.99237e-07
-1.24489e-06
2.97121e-07
-1.2211e-06
-1.17556e-06
2.91342e-07
9.89542e-08
-2.83184e-07
-2.51639e-10
1.5739e-07
-9.61493e-07
1.80074e-07
-1.06673e-06
2.02537e-07
-1.13403e-06
2.2244e-07
-1.19328e-06
2.36374e-07
-1.23477e-06
2.42346e-07
-1.2513e-06
2.40605e-07
-1.24315e-06
2.326e-07
-1.2131e-06
-1.16291e-06
2.19944e-07
9.03425e-08
-3.81521e-07
-4.05134e-10
1.29058e-07
-1.00146e-06
1.51398e-07
-1.08908e-06
1.72356e-07
-1.15498e-06
1.89336e-07
-1.21026e-06
1.99688e-07
-1.24512e-06
2.0245e-07
-1.25406e-06
1.98523e-07
-1.23922e-06
1.89106e-07
-1.20368e-06
-1.14872e-06
1.74917e-07
8.65012e-08
-4.66203e-07
-3.45462e-09
1.13245e-07
-1.02829e-06
1.34598e-07
-1.11043e-06
1.53556e-07
-1.17394e-06
1.67967e-07
-1.22467e-06
1.76138e-07
-1.25329e-06
1.78252e-07
-1.25618e-06
1.75969e-07
-1.23694e-06
1.70474e-07
-1.19819e-06
-1.14029e-06
1.62044e-07
7.60814e-08
-5.30239e-07
-7.96216e-09
1.05367e-07
-1.05742e-06
1.27089e-07
-1.13216e-06
1.44013e-07
-1.19087e-06
1.56203e-07
-1.23686e-06
1.63102e-07
-1.26019e-06
1.66098e-07
-1.25917e-06
1.67599e-07
-1.23844e-06
1.68767e-07
-1.19936e-06
-1.14028e-06
1.68763e-07
9.3015e-08
-6.10576e-07
-1.22828e-09
1.11531e-07
-1.07577e-06
1.26501e-07
-1.14713e-06
1.39082e-07
-1.20345e-06
1.4859e-07
-1.24637e-06
1.5432e-07
-1.26593e-06
1.58414e-07
-1.26327e-06
1.63895e-07
-1.24392e-06
1.72275e-07
-1.20773e-06
-1.14923e-06
1.81221e-07
8.20844e-08
-6.83834e-07
-8.35321e-12
1.0164e-07
-1.09532e-06
1.17345e-07
-1.16283e-06
1.30097e-07
-1.2162e-06
1.38996e-07
-1.25527e-06
1.44084e-07
-1.27101e-06
1.48605e-07
-1.26779e-06
1.56204e-07
-1.25152e-06
1.69216e-07
-1.22075e-06
-1.16146e-06
1.81445e-07
7.67017e-08
-7.57347e-07
-4.02003e-10
9.53077e-08
-1.11391e-06
1.09633e-07
-1.17716e-06
1.21114e-07
-1.22768e-06
1.27995e-07
-1.26215e-06
1.31393e-07
-1.27441e-06
1.35049e-07
-1.27144e-06
1.42472e-07
-1.25894e-06
1.56853e-07
-1.23513e-06
-1.16498e-06
1.6037e-07
7.30847e-08
-8.34921e-07
-2.00324e-09
8.66187e-08
-1.12745e-06
9.84862e-08
-1.18902e-06
1.08418e-07
-1.23761e-06
1.12683e-07
-1.26641e-06
1.14124e-07
-1.27585e-06
1.16354e-07
-1.27367e-06
1.22107e-07
-1.2647e-06
1.35575e-07
-1.2486e-06
-1.14549e-06
1.16017e-07
5.22838e-08
-8.93313e-07
-1.3837e-09
6.69928e-08
-1.14216e-06
8.04203e-08
-1.20245e-06
9.04609e-08
-1.24765e-06
9.25133e-08
-1.26847e-06
9.21497e-08
-1.27549e-06
9.24014e-08
-1.27392e-06
9.4336e-08
-1.26663e-06
1.01618e-07
-1.25588e-06
-1.11566e-06
7.12837e-08
2.901e-08
-9.22266e-07
-2.27623e-09
4.63941e-08
-1.15955e-06
6.1904e-08
-1.21796e-06
7.12825e-08
-1.25703e-06
7.10221e-08
-1.26821e-06
6.90584e-08
-1.27353e-06
6.77815e-08
-1.27265e-06
6.61817e-08
-1.26503e-06
6.62381e-08
-1.25593e-06
-1.08934e-06
3.9274e-08
1.56596e-08
-9.39879e-07
2.99477e-09
3.25495e-08
-1.17643e-06
4.82958e-08
-1.23371e-06
5.4778e-08
-1.26351e-06
5.18635e-08
-1.26529e-06
4.79438e-08
-1.26961e-06
4.54632e-08
-1.27017e-06
4.12961e-08
-1.26086e-06
3.50975e-08
-1.24974e-06
-1.07037e-06
1.53693e-08
1.36525e-08
-9.52899e-07
2.41611e-09
2.74822e-08
-1.19025e-06
4.15076e-08
-1.24773e-06
4.28272e-08
-1.26483e-06
3.7148e-08
-1.25961e-06
3.08816e-08
-1.26334e-06
2.75219e-08
-1.26681e-06
2.26295e-08
-1.25597e-06
1.22978e-08
-1.2394e-06
-1.0588e-06
6.96501e-39
2.02072e-08
-9.71237e-07
-2.74033e-12
2.7503e-08
-1.19755e-06
3.79675e-08
-1.2582e-06
3.35288e-08
-1.26039e-06
2.60679e-08
-1.25215e-06
1.79649e-08
-1.25524e-06
1.37414e-08
-1.26258e-06
1.13634e-08
-1.25359e-06
-1.92533e-10
-1.22785e-06
-1.05909e-06
5.64513e-49
8.94552e-09
-9.83242e-07
-1.92343e-11
2.26592e-08
-1.21126e-06
3.32238e-08
-1.26876e-06
2.55156e-08
-1.25269e-06
1.73644e-08
-1.244e-06
8.2498e-09
-1.24612e-06
1.91255e-09
-1.25625e-06
5.30039e-09
-1.25698e-06
-6.55607e-10
-1.22189e-06
-1.05997e-06
1.60923e-86
-5.48435e-09
-9.76199e-07
-1.49433e-10
2.56974e-08
-1.24244e-06
3.19431e-08
-1.27501e-06
2.07332e-08
-1.24148e-06
1.13846e-08
-1.23465e-06
1.17647e-09
-1.23591e-06
-1.04352e-08
-1.24463e-06
-2.41078e-09
-1.26501e-06
1.43547e-08
-1.23866e-06
-1.0454e-06
5.07059e-102
-2.04126e-08
4.82927e-63
3.09717e-08
2.61102e-08