/*--------------------------------*- C++ -*----------------------------------*\
  =========                 |
  \\      /  F ield         | OpenFOAM: The Open Source CFD Toolbox
   \\    /   O peration     | Website:  https://openfoam.org
    \\  /    A nd           | Version:  8
     \\/     M anipulation  |
\*---------------------------------------------------------------------------*/
FoamFile
{
    version     2.0;
    format      ascii;
    class       volScalarField;
    location    "4.8";
    object      epsilon;
}
// * * * * * * * * * * * * * * * * * * * * * * * * * * * * * * * * * * * * * //

dimensions      [0 2 -3 0 0 0 0];

internalField   nonuniform List<scalar> 
9150
(
0.0313103
0.012444
0.00309725
0.000936235
0.000440763
0.00044047
0.000935585
0.00309571
0.0124413
0.0313105
0.0302217
0.00874642
0.00172978
0.000600404
0.00033132
0.000331131
0.000600022
0.00172882
0.0087442
0.0302215
0.0284245
0.00694421
0.00111508
0.000491406
0.000295998
0.000295846
0.000491139
0.0011145
0.00694235
0.0284242
0.0264921
0.00600394
0.00083496
0.000458616
0.000285076
0.000284937
0.00045839
0.000834607
0.00600236
0.0264917
0.0244895
0.00559878
0.000695732
0.000451354
0.000283244
0.000283111
0.000451141
0.000695502
0.00559734
0.0244891
0.123494
0.0522838
0.0222769
0.0135128
0.0095965
0.00960518
0.0135434
0.0223514
0.0524768
0.123553
0.0761039
0.0229652
0.0130035
0.00859806
0.0059571
0.0059593
0.00860836
0.013029
0.0229871
0.0760999
0.05535
0.0178556
0.00756453
0.00448714
0.00291899
0.00291896
0.00448929
0.00757009
0.017857
0.0553455
0.0425015
0.0152093
0.00476628
0.00226732
0.00132332
0.0013229
0.00226701
0.00476616
0.0152056
0.0424993
0.0356069
0.0137103
0.00350742
0.0012893
0.000669007
0.000668646
0.00128862
0.00350601
0.0137064
0.0356059
1.16868
0.164499
0.0480309
0.0208274
0.0122864
0.0121119
0.0202851
0.0477043
0.170582
1.52327
0.276496
0.120524
0.0457625
0.0205206
0.0123255
0.0122203
0.0202294
0.0449145
0.115494
0.279849
0.234353
0.104066
0.0445939
0.0202312
0.0123763
0.0123334
0.020129
0.0443417
0.102298
0.235301
0.196501
0.0912131
0.0436998
0.0199424
0.0124402
0.0124332
0.0199289
0.0436602
0.0910705
0.196866
0.156049
0.0858754
0.0400198
0.0187371
0.0120861
0.0120961
0.0187702
0.0401045
0.0862131
0.156181
0.0050412
0.00500641
0.00497133
0.00493539
0.00489805
0.00485888
0.00481757
0.00477392
0.00472789
0.00467944
0.00301398
0.00300893
0.00300062
0.00298883
0.00297344
0.00295437
0.00293164
0.00290536
0.0028757
0.00284295
0.00282924
0.00283375
0.00283438
0.00283102
0.00282366
0.00281237
0.00279733
0.0027788
0.00275713
0.00273274
0.00293179
0.00294575
0.0029564
0.00296371
0.00296777
0.00296875
0.00296693
0.00296268
0.00295642
0.00294861
0.00316296
0.00319087
0.00321708
0.00324172
0.00326504
0.0032874
0.0033092
0.00333101
0.00335337
0.00337682
0.00350236
0.00355265
0.00360431
0.00365777
0.00371365
0.00377276
0.00383551
0.00390287
0.00397583
0.00405535
0.00396611
0.00405253
0.00414582
0.00424675
0.00435641
0.00447633
0.00460804
0.00475323
0.00491363
0.00509099
0.00459078
0.00473426
0.00489313
0.00506966
0.00526637
0.00548602
0.00573159
0.00600613
0.00631271
0.0066543
0.00542763
0.00565896
0.00592007
0.00621523
0.00654912
0.00692668
0.00735299
0.007833
0.00837128
0.00897169
0.00654485
0.00690776
0.00732245
0.00779618
0.00833655
0.00895123
0.00964746
0.0104315
0.0113079
0.0122791
0.00802207
0.00857307
0.00920672
0.00993368
0.0107645
0.0117089
0.0127744
0.0139658
0.0152839
0.0167245
0.00993722
0.0107406
0.0116648
0.0127231
0.0139273
0.0152863
0.0168045
0.0184805
0.0203065
0.0222674
0.0123444
0.0134602
0.014737
0.0161884
0.0178242
0.0196491
0.0216607
0.0238485
0.0261934
0.028669
0.0152491
0.0167174
0.0183814
0.0202521
0.0223354
0.0246301
0.0271272
0.0298077
0.0326433
0.0355987
0.0185948
0.0204245
0.0224729
0.0247475
0.0272506
0.0299784
0.0329202
0.0360557
0.0393533
0.0427689
0.0222743
0.0244447
0.0268448
0.0294797
0.0323509
0.0354572
0.0387936
0.0423504
0.0461072
0.0500213
0.0261592
0.0286355
0.0313475
0.0343006
0.0374992
0.0409473
0.0446483
0.0486056
0.052818
0.0572661
0.0301201
0.0328658
0.0358559
0.0391002
0.0426085
0.0463914
0.0504592
0.054822
0.0594929
0.0644881
0.0340394
0.0370197
0.0402607
0.0437791
0.0475937
0.0517236
0.0561878
0.0610048
0.0661987
0.0718232
0.0378394
0.0410264
0.0444998
0.0482859
0.0524143
0.0569163
0.0618242
0.0671736
0.0730229
0.0794867
0.0415095
0.0448931
0.0486025
0.0526764
0.0571575
0.0620924
0.0675331
0.0735485
0.0802608
0.087814
0.0451016
0.0486918
0.0526649
0.0570738
0.0619767
0.0674389
0.0735398
0.0804029
0.0882047
0.0971033
0.0487113
0.0525361
0.0568177
0.0616235
0.0670308
0.0731324
0.0800549
0.0879908
0.0971603
0.107774
0.0524768
0.0565816
0.0612304
0.066509
0.0725247
0.0794164
0.0873873
0.0967002
0.107642
0.120523
0.0565793
0.0610031
0.0660696
0.0719013
0.0786545
0.0865413
0.0958636
0.106979
0.120285
0.136259
0.061203
0.0659512
0.0714755
0.0779541
0.085618
0.0947823
0.105877
0.119392
0.135891
0.156105
0.0664996
0.0716052
0.0776519
0.0848972
0.093683
0.104473
0.117876
0.134557
0.155334
0.181325
0.0725474
0.0781158
0.084802
0.0929708
0.103114
0.115912
0.132227
0.152986
0.179357
0.213073
0.0793196
0.0855368
0.0930661
0.102402
0.11423
0.129517
0.149412
0.175125
0.208512
0.252241
0.0867328
0.0939101
0.102664
0.11361
0.127529
0.145696
0.169833
0.201392
0.243445
0.299997
0.0946138
0.103174
0.113687
0.126784
0.143465
0.165328
0.194476
0.23362
0.286745
0.358933
0.102643
0.112809
0.125471
0.141311
0.161491
0.187926
0.223294
0.271461
0.337662
0.428821
0.110622
0.122306
0.137069
0.155946
0.180401
0.212547
0.255492
0.314141
0.395785
0.50994
0.118474
0.131476
0.148055
0.169533
0.197811
0.235701
0.28744
0.359351
0.460548
0.603552
0.126203
0.140307
0.158434
0.182205
0.214022
0.257509
0.318114
0.403926
0.526624
0.702412
0.13401
0.149046
0.168509
0.194303
0.229315
0.277924
0.346738
0.445707
0.589558
0.799182
0.142189
0.157999
0.178538
0.20594
0.243475
0.296152
0.371603
0.481606
0.644115
0.885233
0.15101
0.167438
0.188763
0.217239
0.256343
0.311499
0.391134
0.508521
0.684765
0.950898
0.160687
0.177613
0.199465
0.228485
0.268142
0.323974
0.404942
0.525391
0.708089
0.98848
0.17149
0.188896
0.211137
0.240371
0.279951
0.335298
0.415209
0.533778
0.713994
0.993656
0.183858
0.20178
0.224351
0.253612
0.292703
0.34658
0.423288
0.536076
0.70707
0.9732
0.198187
0.216753
0.239725
0.268972
0.30733
0.359231
0.43179
0.536718
0.693611
0.935697
0.214787
0.234233
0.257845
0.287305
0.325129
0.375174
0.443511
0.539952
0.680738
0.893392
0.233794
0.254482
0.279167
0.309378
0.347355
0.396438
0.46172
0.551141
0.677433
0.861791
0.255042
0.277374
0.303646
0.3353
0.374413
0.424014
0.488555
0.574595
0.691855
0.855558
0.278005
0.302292
0.330538
0.364156
0.405188
0.456621
0.522864
0.610279
0.727089
0.88014
0.301891
0.328278
0.358652
0.394409
0.437599
0.491299
0.560221
0.651157
0.768039
0.919193
0.325721
0.354078
0.386333
0.423785
0.468367
0.52303
0.592476
0.683829
0.801241
0.920926
0.348857
0.378836
0.412372
0.450451
0.494439
0.546203
0.60827
0.684113
0.778052
0.892911
0.371644
0.403015
0.437488
0.475702
0.518478
0.566829
0.621905
0.684876
0.757171
0.840563
0.395641
0.428608
0.464302
0.503094
0.545417
0.591775
0.642717
0.698726
0.760122
0.827272
0.423244
0.458574
0.496507
0.537276
0.581111
0.628277
0.679081
0.733804
0.792679
0.855992
0.457206
0.496177
0.537954
0.582768
0.630823
0.682351
0.73768
0.7971
0.860857
0.929349
0.500206
0.544554
0.592276
0.643712
0.699178
0.75902
0.823681
0.893583
0.969169
1.05106
0.553739
0.605344
0.661371
0.72236
0.788819
0.861349
0.940574
1.02735
1.1228
1.22803
0.617639
0.678306
0.745241
0.819072
0.900853
0.991598
1.09259
1.20514
1.33095
1.47182
0.689312
0.761504
0.84206
0.932565
1.0345
1.14958
1.27974
1.42706
1.59379
1.78117
0.763988
0.849114
0.945809
1.05597
1.18171
1.32538
1.48928
1.67575
1.88796
2.12666
0.833603
0.932481
1.04611
1.17676
1.32684
1.49932
1.69744
1.92016
2.1683
2.45198
0.89022
1.00184
1.13131
1.2811
1.45336
1.65041
1.86849
2.11837
2.39486
2.68418
0.928007
1.05028
1.19254
1.352
1.53484
1.74468
1.97573
2.22823
2.52145
2.86971
0.947516
1.07832
1.22921
1.39876
1.59132
1.81866
2.08995
2.41697
2.82024
3.31972
0.955156
1.09432
1.26239
1.4638
1.70242
1.99209
2.35121
2.80338
3.38176
4.11929
0.979108
1.13949
1.33887
1.58757
1.89663
2.28341
2.77411
3.40681
4.23062
5.25956
1.02953
1.22353
1.47114
1.78785
2.19256
2.71108
3.38173
4.25706
5.36762
6.57202
1.11246
1.35371
1.66806
2.07723
2.60828
3.29837
4.1991
5.36426
6.68744
7.82652
1.23445
1.54016
1.94442
2.47548
3.16915
4.076
5.25893
6.6905
8.00644
8.73578
1.40747
1.80112
2.32546
3.01595
3.91931
5.09828
6.59312
8.1078
9.02017
8.84419
1.65103
2.16294
2.84499
3.74162
4.91191
6.41644
8.111
9.27369
9.26564
8.32022
1.9942
2.66106
3.54687
4.70814
6.209
8.03422
9.54343
9.76338
8.84319
7.62354
2.46184
3.33183
4.48498
5.99124
7.88728
9.76788
10.3782
9.49343
8.15453
6.9486
3.08707
4.2281
5.74231
7.69618
9.93141
11.1411
10.3556
8.85484
7.46721
6.34598
3.93013
5.4492
7.47179
10.0021
12.0166
11.5851
9.85303
8.1978
6.85065
5.82649
5.07104
7.13971
9.90206
12.8634
13.2331
11.2793
9.2406
7.56908
6.28888
5.38539
6.57927
9.40043
13.1025
15.1528
13.2656
10.7106
8.58336
6.95285
5.77848
5.03246
8.60173
12.4812
16.7811
16.2262
12.9126
10.0873
7.93999
6.38079
5.34498
4.79012
11.3848
16.859
19.6356
16.004
12.2829
9.40168
7.2949
5.85193
4.99802
4.67292
14.8799
21.5061
20.8138
15.6579
11.6159
8.68846
6.65432
5.37436
4.75098
4.69701
19.8414
25.0114
20.0635
14.7351
10.7209
7.87788
6.00202
4.95539
4.62067
4.88198
25.2369
27.1348
19.6386
13.8592
9.7854
7.0415
5.37706
4.62425
4.63178
5.24936
31.0042
26.6459
18.3848
12.5803
8.66368
6.15418
4.79407
4.40321
4.8044
5.81569
33.7689
24.6321
16.681
11.1648
7.5175
5.30756
4.30302
4.31761
5.15058
6.58772
36.6671
23.5729
15.163
9.80575
6.43421
4.54795
3.92478
4.37132
5.66499
7.55954
32.2645
20.6095
13.1453
8.39273
5.42159
3.88868
3.65616
4.5459
6.32344
8.71506
28.2452
18.1375
11.5499
7.26783
4.59343
3.35333
3.47932
4.80258
7.08681
10.0452
26.2087
16.6368
10.464
6.42206
3.92289
2.91018
3.35197
5.08649
7.89861
11.5086
24.5982
15.5866
9.66934
5.74771
3.35112
2.51796
3.22951
5.34509
8.71278
13.0919
23.5933
14.8848
9.05445
5.16907
2.83275
2.14641
3.0786
5.53818
9.50243
14.8306
22.9446
14.3711
8.52683
4.62325
2.33506
1.78021
2.87948
5.63107
10.2348
16.7823
22.9129
14.0072
7.98841
4.04942
1.84218
1.4202
2.62102
5.57552
10.81
18.8736
23.1194
13.6431
7.38104
3.4354
1.36962
1.08051
2.29776
5.30471
11.0136
20.6743
23.3316
13.1303
6.62968
2.76921
0.937559
0.777751
1.91786
4.77118
10.5833
21.3836
23.1707
12.262
5.67785
2.07328
0.57673
0.527003
1.50769
3.99466
9.3814
20.2797
22.4997
11.0174
4.58568
1.42162
0.315138
0.335117
1.10684
3.07743
7.50758
16.9879
21.0495
9.40144
3.44588
0.882116
0.153754
0.19854
0.755892
2.18382
5.4132
12.4405
18.4093
7.43116
2.35287
0.487682
0.0692532
0.10792
0.477565
1.43932
3.56789
8.1459
14.4791
5.23453
1.40457
0.235001
0.0315524
0.0532565
0.274902
0.886682
2.18004
4.8113
9.44374
3.0625
0.69439
0.0991644
0.0175602
0.0252464
0.139624
0.509651
1.26372
2.61106
4.69217
1.44543
0.285883
0.0427368
0.0134202
0.0145985
0.0609023
0.264043
0.71325
1.30936
1.33152
0.526678
0.102822
0.0245034
0.0124242
0.012248
0.0265837
0.113781
0.411576
0.785171
0.00462508
0.00456635
0.00450523
0.00444237
0.0043784
0.00431473
0.00425418
0.00419706
0.00414116
0.00408492
0.00402743
0.00396823
0.0039085
0.00385262
0.00380943
0.00378519
0.00376033
0.00375962
0.00374564
0.0037545
0.00374884
0.0037402
0.00374056
0.000885999
0.00374542
0.00374435
0.00373887
0.000884751
0.0037416
0.000884631
0.000884762
0.000883148
0.000855124
0.000803167
0.000735524
0.000655497
0.000564271
0.00046146
0.000344263
0.000527278
0.00280522
0.0027629
0.0027183
0.00267176
0.00262372
0.00257513
0.00252627
0.00247744
0.0024288
0.00238046
0.0023326
0.00228561
0.00223996
0.00219619
0.00215465
0.00211454
0.00207229
0.00202575
0.00197782
0.00192025
0.00186737
0.0018109
0.00175207
0.00168132
0.00161545
0.00153979
0.00145284
0.00135358
0.00125039
0.00113417
0.00101039
0.00088297
0.000784001
0.000709303
0.000643702
0.00058375
0.000530797
0.000493283
0.000505675
0.000812052
0.00270442
0.00267223
0.00263831
0.00260361
0.00256855
0.00253355
0.00249895
0.00246503
0.00243202
0.00240009
0.00236935
0.00233982
0.00231138
0.00228363
0.00225584
0.00222685
0.00219508
0.00215907
0.00211815
0.00207143
0.00201889
0.00196099
0.00189886
0.00183044
0.00175418
0.00166918
0.00157491
0.00147168
0.00136031
0.00124337
0.00112455
0.0010094
0.000905178
0.000814502
0.000737535
0.000675022
0.000630651
0.000616955
0.00068152
0.00114785
0.00293919
0.00292868
0.0029183
0.0029087
0.00290037
0.00289375
0.00288917
0.00288684
0.00288691
0.00288932
0.00289385
0.00289995
0.00290669
0.00291268
0.00291606
0.00291458
0.00290581
0.00288742
0.00285758
0.00281526
0.00276042
0.00269417
0.0026189
0.00253444
0.00243631
0.00232176
0.002189
0.00203794
0.00187123
0.00169357
0.00151266
0.00133785
0.0011785
0.00104153
0.000930142
0.0008455
0.000791695
0.000784957
0.000881115
0.00146021
0.00340354
0.00343491
0.00347019
0.00351011
0.00355529
0.00360623
0.00366327
0.00372657
0.00379597
0.00387094
0.00395041
0.00403262
0.00411496
0.0041939
0.00426521
0.00432431
0.00436661
0.00438783
0.00438476
0.00435591
0.00430172
0.00422439
0.00412766
0.00401816
0.00388331
0.0037137
0.00350447
0.00325471
0.00296876
0.00265622
0.00233249
0.00201703
0.00173081
0.00149078
0.0013027
0.00116231
0.00106769
0.00104237
0.00113955
0.00175982
0.00414755
0.00425592
0.00437631
0.00450981
0.00465737
0.00481972
0.00499725
0.00518986
0.00539659
0.00561543
0.00584316
0.00607507
0.00630466
0.00652389
0.00672417
0.00689737
0.00703641
0.00713483
0.00718768
0.00719347
0.00715424
0.0070736
0.00695566
0.00681063
0.00662561
0.00637766
0.00605544
0.00565679
0.00518867
0.00466681
0.00411714
0.00357338
0.00307381
0.0026532
0.00231695
0.00204356
0.00179599
0.00163067
0.00159463
0.00212011
0.00529819
0.00554311
0.00581559
0.00611731
0.00644955
0.00681312
0.00720802
0.00763279
0.00808368
0.00855426
0.00903567
0.00951648
0.00998246
0.0104179
0.010809
0.0111466
0.0114255
0.01164
0.0117834
0.0118541
0.0118585
0.0118023
0.0116882
0.0115138
0.011298
0.0110055
0.0106255
0.0101609
0.00962653
0.0090441
0.00844585
0.00786979
0.00733279
0.00684336
0.0062836
0.00553528
0.00464443
0.00366754
0.0028269
0.00275325
0.00705451
0.0075285
0.0080551
0.00863559
0.00927017
0.00995793
0.0106965
0.0114802
0.0122977
0.0131319
0.0139625
0.0147667
0.0155192
0.0161951
0.0167826
0.0172858
0.0177144
0.0180699
0.0183372
0.0185088
0.018606
0.0186492
0.0186406
0.0185837
0.0185322
0.0185253
0.0185769
0.0187384
0.019087
0.0196776
0.0204971
0.0214501
0.0222546
0.0224554
0.0215058
0.0191983
0.0157284
0.0113872
0.00710059
0.004143
0.00967246
0.0104978
0.011406
0.0123941
0.0134566
0.0145864
0.0157757
0.0170132
0.0182752
0.0195262
0.0207286
0.021846
0.0228446
0.0236983
0.0244111
0.02503
0.0255988
0.0261279
0.0265832
0.026943
0.0272699
0.0276655
0.0281563
0.0287749
0.0296221
0.0310306
0.0331376
0.0361506
0.0402771
0.0455049
0.0514218
0.0572038
0.0617335
0.0638025
0.062482
0.0572837
0.0481045
0.0355258
0.0211742
0.00674117
0.0133992
0.0146992
0.0161037
0.0175991
0.0191683
0.020792
0.0224561
0.0241494
0.0258435
0.027486
0.0290182
0.0303868
0.031545
0.0324911
0.0332614
0.0339487
0.0346595
0.0354406
0.0362435
0.0370657
0.0380579
0.0394093
0.041297
0.0438784
0.0474324
0.0523431
0.0593913
0.0688435
0.0805199
0.0936054
0.106576
0.11773
0.125606
0.129077
0.127453
0.120294
0.107175
0.0874145
0.0605124
0.0423142
0.0183554
0.0202088
0.0221644
0.0241952
0.0262727
0.0283652
0.0304515
0.0325245
0.0345739
0.0365557
0.0383967
0.0400112
0.0413225
0.0423048
0.043085
0.0438232
0.0446661
0.0457464
0.0471332
0.0489054
0.0512915
0.0546202
0.0592075
0.0654413
0.0737939
0.0846918
0.09834
0.115064
0.133879
0.152727
0.169291
0.181918
0.18981
0.192695
0.190678
0.1841
0.17287
0.155288
0.127301
0.0914896
0.0244413
0.0268575
0.0293511
0.0318851
0.0344292
0.0369554
0.0394366
0.0418593
0.0442109
0.0464606
0.0485561
0.0504076
0.0519075
0.0530157
0.053889
0.0546921
0.0556169
0.0570297
0.0593653
0.0627437
0.0672424
0.0731988
0.0810289
0.0912663
0.104433
0.120768
0.140015
0.161331
0.183732
0.204547
0.221156
0.23208
0.237313
0.237696
0.234509
0.229011
0.221978
0.213315
0.200969
0.178547
0.0313637
0.0343051
0.0372976
0.040305
0.0433015
0.0462606
0.0491529
0.0519473
0.0546174
0.0571262
0.0594614
0.0615977
0.0634587
0.0649715
0.0661584
0.0671876
0.0684479
0.0704504
0.0737292
0.0786023
0.085125
0.0933865
0.103727
0.116833
0.133326
0.153344
0.176424
0.201456
0.226808
0.249183
0.265007
0.272817
0.273826
0.270052
0.263648
0.256615
0.250827
0.248906
0.25581
0.27986
0.0387762
0.0422107
0.0456826
0.0491757
0.0526629
0.0561162
0.0595063
0.0627965
0.0659625
0.0689865
0.0718394
0.0744871
0.0768491
0.0788574
0.0805912
0.0822679
0.0842327
0.0869463
0.0910308
0.0969907
0.105089
0.11532
0.127956
0.143869
0.163539
0.186899
0.213574
0.242839
0.27254
0.297347
0.310845
0.312814
0.307276
0.29755
0.28621
0.275478
0.267839
0.267896
0.288866
0.38367
0.0464194
0.0503665
0.0543723
0.0584301
0.0625219
0.0666264
0.0707261
0.0747967
0.0788058
0.0827125
0.08646
0.0900049
0.093285
0.0962481
0.0988879
0.101381
0.104137
0.107671
0.112632
0.119782
0.129738
0.142923
0.159841
0.180576
0.204913
0.232602
0.263528
0.297501
0.332462
0.357945
0.362011
0.353071
0.338539
0.321708
0.304813
0.289836
0.279414
0.279244
0.30893
0.476801
0.054214
0.0587639
0.0634252
0.0682059
0.0731079
0.0781318
0.0832777
0.0885153
0.0937814
0.0990269
0.104186
0.109204
0.114009
0.118487
0.122569
0.126466
0.130594
0.135527
0.142023
0.151006
0.163468
0.181125
0.205452
0.233625
0.264539
0.298758
0.336321
0.377083
0.41488
0.426537
0.411352
0.389407
0.365756
0.342089
0.319938
0.300971
0.28782
0.286757
0.321292
0.549983
0.0621007
0.0673997
0.0729096
0.0786816
0.0847385
0.091079
0.0976861
0.104542
0.111589
0.118759
0.125974
0.133148
0.140175
0.146919
0.153319
0.159534
0.166003
0.173445
0.18281
0.195257
0.212168
0.235504
0.267003
0.303901
0.342243
0.383328
0.428101
0.469962
0.487072
0.47379
0.447403
0.417596
0.387306
0.358221
0.331776
0.30954
0.294091
0.291897
0.32847
0.601031
0.070057
0.0763154
0.0829529
0.0900564
0.0976681
0.105793
0.114419
0.123512
0.13301
0.142825
0.15285
0.16297
0.173062
0.183002
0.19271
0.202265
0.212165
0.223404
0.237127
0.254607
0.277247
0.306421
0.342896
0.385939
0.430064
0.474415
0.513189
0.527627
0.520477
0.498932
0.468887
0.435222
0.401172
0.36885
0.33984
0.315703
0.298942
0.296054
0.333676
0.633387
0.0782453
0.085702
0.0937997
0.10264
0.112293
0.122789
0.134119
0.146228
0.159016
0.172335
0.186011
0.199864
0.21375
0.227593
0.241317
0.254884
0.268863
0.284628
0.303423
0.326399
0.354729
0.389484
0.431426
0.47947
0.526381
0.560114
0.570084
0.561746
0.542348
0.51425
0.480273
0.443934
0.408035
0.37456
0.344962
0.32063
0.303878
0.301105
0.339547
0.654601
0.0870139
0.0959372
0.105851
0.116903
0.129205
0.142817
0.15773
0.173847
0.190974
0.208826
0.22706
0.245334
0.263378
0.281061
0.298262
0.315398
0.333652
0.353838
0.377066
0.404365
0.436667
0.474745
0.518801
0.565176
0.59802
0.607545
0.600772
0.582434
0.555186
0.52147
0.484309
0.446584
0.410562
0.377845
0.349561
0.326777
0.311477
0.309752
0.348896
0.673179
0.09672
0.107447
0.119646
0.133537
0.149299
0.167028
0.186698
0.208117
0.230905
0.254514
0.278288
0.301583
0.323906
0.345043
0.364982
0.385198
0.407514
0.431719
0.458462
0.488667
0.522965
0.561391
0.601097
0.631615
0.643473
0.63926
0.622736
0.596054
0.562126
0.524077
0.484863
0.446965
0.41222
0.381839
0.356576
0.337106
0.324968
0.325669
0.365458
0.696109
0.107739
0.120798
0.135981
0.153626
0.174007
0.197263
0.223316
0.251788
0.281977
0.312885
0.34337
0.372354
0.399098
0.423468
0.446064
0.46936
0.495433
0.52334
0.552891
0.58478
0.619368
0.654226
0.681981
0.694842
0.690902
0.673611
0.645581
0.609685
0.569163
0.527138
0.486344
0.448922
0.41635
0.389508
0.368836
0.354659
0.348035
0.353632
0.395793
0.729708
0.120684
0.136876
0.156101
0.178866
0.205583
0.236437
0.27123
0.309267
0.349309
0.389678
0.428542
0.464308
0.49604
0.523872
0.549223
0.575209
0.604022
0.634947
0.666447
0.698484
0.730228
0.755109
0.766516
0.762356
0.743635
0.71281
0.673037
0.627812
0.580634
0.534646
0.492402
0.455772
0.425979
0.403726
0.389341
0.383004
0.385342
0.39984
0.448291
0.784319
0.136521
0.157025
0.181867
0.211811
0.247456
0.289014
0.336066
0.387383
0.440887
0.493884
0.543598
0.587814
0.625466
0.6571
0.685035
0.712905
0.743307
0.775941
0.808605
0.839151
0.862094
0.870898
0.864739
0.842964
0.807614
0.761811
0.709333
0.654137
0.599921
0.549784
0.506074
0.470426
0.443932
0.427347
0.421265
0.426213
0.442847
0.473464
0.53557
0.881229
0.156533
0.183088
0.215904
0.256125
0.304603
0.361539
0.426108
0.496216
0.568507
0.638847
0.703179
0.758482
0.80362
0.839768
0.870194
0.899247
0.930327
0.963789
0.996575
1.02058
1.02735
1.01599
0.987939
0.944332
0.888599
0.824951
0.757777
0.691328
0.629333
0.5747
0.52948
0.495077
0.472562
0.463007
0.467815
0.488864
0.528443
0.589035
0.681252
1.05879
0.182332
0.21744
0.261658
0.316682
0.383707
0.462844
0.552575
0.649416
0.748131
0.842538
0.926847
0.996963
1.05176
1.0934
1.12652
1.15659
1.18775
1.22026
1.24779
1.2556
1.23699
1.19854
1.14123
1.06931
0.988119
0.902921
0.818486
0.739158
0.668509
0.609103
0.562585
0.530189
0.513032
0.512707
0.53202
0.575548
0.65139
0.769112
0.925741
1.38606
0.215801
0.26294
0.323359
0.399536
0.493099
0.603947
0.729477
0.864236
1.00034
1.12881
1.24137
1.33245
1.40093
1.45033
1.4871
1.51794
1.5471
1.57364
1.58353
1.55777
1.50075
1.42262
1.32563
1.21686
1.10376
0.992322
0.887422
0.793351
0.713172
0.648984
0.602151
0.573098
0.563153
0.575264
0.614762
0.690153
0.818275
1.04351
1.33831
1.96627
0.258802
0.322586
0.405589
0.511329
0.64197
0.797092
0.972691
1.16085
1.35034
1.52835
1.68301
1.80635
1.89665
1.95848
2.00012
2.02969
2.0509
2.05671
2.02296
1.93851
1.82422
1.68727
1.53561
1.37932
1.22686
1.084
0.955589
0.84538
0.755622
0.687654
0.640953
0.615759
0.614169
0.641469
0.708067
0.83137
1.04125
1.43796
2.00494
2.86168
0.312936
0.399132
0.512693
0.658491
0.839382
1.05467
1.29893
1.56168
1.82792
2.07998
2.30066
2.47733
2.60544
2.68886
2.73642
2.75685
2.75064
2.69494
2.56962
2.39445
2.19401
1.97542
1.75225
1.53724
1.33873
1.16203
1.01043
0.885231
0.787707
0.71669
0.670372
0.64874
0.654902
0.697392
0.79529
0.987666
1.33098
1.77603
2.93259
3.92817
0.379985
0.495164
0.648564
0.846985
1.09418
1.38948
1.72658
2.09301
2.47038
2.83546
3.16309
3.43153
3.62809
3.75148
3.807
3.79351
3.69147
3.49071
3.21687
2.90892
2.58332
2.25645
1.94621
1.66497
1.41905
1.2112
1.04085
0.905685
0.803705
0.731722
0.686692
0.668465
0.681301
0.737161
0.863398
1.11863
1.54071
1.90663
3.51782
4.77604
0.462448
0.613566
0.817842
1.08466
1.41848
1.81962
2.28221
2.79359
3.33424
3.87547
4.37934
4.80808
5.13076
5.33218
5.39851
5.27721
4.94655
4.48427
3.97615
3.46488
2.96596
2.50405
2.09551
1.74688
1.45841
1.22652
1.0448
0.906427
0.804839
0.734558
0.692247
0.677766
0.696447
0.762728
0.908156
1.19257
1.52404
1.94221
3.21036
4.4661
0.561148
0.758054
1.02672
1.3806
1.82878
2.37512
3.01711
3.74418
4.53565
5.35849
6.16797
6.90393
7.49137
7.85931
7.90613
7.45803
6.62836
5.71761
4.83823
4.02598
3.30577
2.69141
2.18409
1.77614
1.45635
1.21158
1.02788
0.892705
0.795836
0.730102
0.69183
0.681531
0.70576
0.781197
0.94271
1.22794
1.45053
1.84297
2.67581
3.74931
0.678529
0.932584
1.28341
1.75166
2.35506
3.10737
4.01703
5.08415
6.29515
7.61819
9.00228
10.367
11.5143
12.101
11.6866
10.455
8.67767
7.05007
5.6556
4.48693
3.53736
2.78364
2.19766
1.75115
1.41792
1.17406
0.997879
0.871424
0.782108
0.722483
0.689272
0.683806
0.714242
0.800571
0.982602
1.22372
1.35966
1.76319
2.07937
3.1422
0.816384
1.14039
1.59469
2.21316
3.02915
4.07808
5.39599
7.01535
8.95713
11.2196
13.7439
16.3287
18.0717
17.7445
17.3438
13.8404
10.6067
8.10708
6.18345
4.71166
3.59494
2.75573
2.13301
1.67837
1.35265
1.12332
0.962688
0.848723
0.768279
0.715006
0.686433
0.684393
0.71763
0.806427
0.982606
1.14304
1.26435
1.548
1.5344
2.65305
0.967189
1.3763
1.95928
2.76853
3.86609
5.32875
7.25271
9.74914
12.9451
16.9418
21.5862
24.0024
23.3123
25.043
22.4664
16.0422
11.5947
8.48334
6.25708
4.64159
3.46625
2.61493
2.00442
1.57269
1.27273
1.06843
0.929029
0.82881
0.756913
0.709486
0.684364
0.682954
0.712604
0.78917
0.928166
1.04767
1.16642
1.28232
1.23693
2.33938
1.11992
1.62496
2.3598
3.40467
4.86314
6.87529
9.63781
13.4319
18.6367
25.4587
28.6159
26.9303
28.2015
29.8887
23.0902
16.1438
11.4448
8.21179
5.94409
4.33713
3.19797
2.39541
1.83538
1.44904
1.18666
1.0129
0.897827
0.813224
0.749529
0.707428
0.684703
0.681701
0.703508
0.761078
0.864884
0.986728
1.06118
1.0608
1.07528
2.12614
1.26064
1.86448
2.76362
4.07448
5.95554
8.63445
12.4565
17.9652
25.9727
31.1176
29.1619
29.3001
32.5572
29.655
21.1923
14.9468
10.5846
7.53066
5.38876
3.89109
2.85241
2.13921
1.65332
1.32441
1.1042
0.959845
0.867074
0.801649
0.748739
0.71183
0.690692
0.685037
0.697385
0.733509
0.802151
0.904402
0.927856
0.905214
0.988058
1.96818
1.37267
2.06677
3.12596
4.70831
7.03285
10.4169
15.3421
22.5572
30.7602
31.1781
29.7156
32.0382
33.9101
26.9353
19.0845
13.4495
9.46014
6.65991
4.71608
3.3848
2.48596
1.88492
1.48351
1.21515
1.03688
0.920287
0.845376
0.795591
0.756302
0.726034
0.707176
0.699728
0.704154
0.721844
0.753918
0.794389
0.824085
0.853667
0.979904
1.87902
1.44106
2.20511
3.40431
5.2452
8.01493
12.1199
18.1365
26.8255
33.4981
31.4734
31.5669
35.5004
33.6932
24.4077
17.0911
11.8808
8.22559
5.70754
4.00629
2.87833
2.14092
1.65972
1.34229
1.13138
0.992004
0.901089
0.842441
0.803586
0.775587
0.754298
0.73991
0.733316
0.734556
0.743507
0.759526
0.781989
0.815439
0.876735
1.04437
1.95921
1.45473
2.25421
3.5469
5.58975
8.73792
13.4777
20.458
30.4347
36.1724
33.0472
35.1323
39.1974
31.7531
21.8355
14.9257
10.1479
6.89353
4.72655
3.3167
2.41542
1.84357
1.47731
1.23689
1.07782
0.973452
0.905916
0.863028
0.834784
0.814916
0.801093
0.792094
0.788001
0.789249
0.796082
0.808775
0.82937
0.865697
0.93971
1.13893
2.18274
1.41652
2.20333
3.51542
5.65891
9.06583
14.326
22.2031
33.5175
39.1108
35.9691
40.5114
39.8138
27.9434
18.8545
12.5763
8.3434
5.57168
3.80935
2.7116
2.03229
1.61093
1.34456
1.17072
1.05671
0.982775
0.935657
0.906298
0.887898
0.875859
0.868063
0.863739
0.862514
0.864756
0.871678
0.884393
0.90647
0.946987
1.03132
1.26093
2.49362
1.33838
2.06156
3.29799
5.38781
8.84201
14.4043
23.1354
36.3931
42.9938
40.0068
47.2762
39.0993
25.193
16.1283
10.2973
6.6311
4.38493
3.03705
2.23272
1.74776
1.45066
1.26466
1.14559
1.06905
1.0206
0.990674
0.972673
0.962075
0.95592
0.952616
0.951648
0.952697
0.956383
0.964128
0.977722
1.00222
1.04817
1.14449
1.40769
2.84732
1.2414
1.86112
2.92532
4.7512
7.82686
12.8684
20.9332
33.6521
42.8907
41.9686
47.2659
31.8084
20.1084
12.5167
7.80971
5.00416
3.37149
2.42898
1.88052
1.55422
1.3563
1.23505
1.16016
1.11434
1.08719
1.0718
1.06345
1.05902
1.0566
1.0553
1.05506
1.05634
1.06054
1.06912
1.08439
1.11202
1.16442
1.27476
1.57616
3.23343
1.15432
1.66274
2.52213
3.98934
6.46287
10.5031
16.8151
26.0979
36.465
37.349
40.4347
25.2197
15.1861
9.10418
5.61978
3.68026
2.60348
1.99473
1.64451
1.44014
1.32017
1.2507
1.21185
1.1916
1.18234
1.17905
1.17845
1.17849
1.17816
1.17726
1.17628
1.1763
1.17917
1.18715
1.20357
1.23471
1.29446
1.42071
1.76541
3.66315
1.10415
1.52136
2.20927
3.36343
5.29184
8.44851
13.4576
21.1169
28.2298
31.5686
29.7689
18.1414
10.6392
6.34279
4.01234
2.76714
2.09376
1.72105
1.51228
1.39701
1.3366
1.30872
1.29963
1.30062
1.30603
1.3123
1.3173
1.31998
1.32011
1.3182
1.31536
1.31323
1.31399
1.32057
1.33723
1.37149
1.4391
1.58299
1.97649
4.15491
1.09808
1.45466
2.03047
2.97884
4.54227
7.0813
11.0741
16.721
21.4549
25.9265
19.9815
11.7912
6.95613
4.31698
2.92309
2.18574
1.79019
1.57804
1.46874
1.41933
1.40505
1.4105
1.42553
1.4434
1.45986
1.47253
1.48041
1.48344
1.48225
1.478
1.47235
1.46736
1.4656
1.47047
1.48701
1.52405
1.59994
1.7637
2.21265
4.72745
1.12198
1.44018
1.94974
2.77869
4.10547
6.1333
8.8677
12.0738
15.8462
15.8164
10.2902
6.51214
4.22993
2.93696
2.22707
1.84296
1.64066
1.54302
1.50732
1.50844
1.53039
1.56217
1.59568
1.62528
1.64783
1.66235
1.6692
1.66954
1.66488
1.65694
1.64767
1.63934
1.63475
1.63768
1.65384
1.6934
1.77785
1.96415
2.48012
5.38654
1.10993
1.4082
1.85263
2.47985
3.28922
4.33494
5.73543
7.40299
7.93139
6.53116
4.82733
3.52955
2.67229
2.14946
1.85015
1.69299
1.62463
1.61204
1.6338
1.67523
1.72567
1.777
1.82238
1.8563
1.8769
1.88569
1.88544
1.87883
1.86807
1.85504
1.84155
1.82974
1.82239
1.82344
1.83917
1.881
1.97356
2.18271
2.76982
6.11225
1.02265
1.20751
1.4723
1.81733
2.25247
2.77231
3.24435
3.49889
3.41093
3.04572
2.60868
2.23944
1.97821
1.81882
1.74151
1.72522
1.75131
1.80508
1.87456
1.9496
2.02176
2.08471
2.13154
2.15511
2.15777
2.14713
2.12984
2.11014
2.09007
2.07066
2.05283
2.03801
2.02855
2.02835
2.04413
2.08853
2.18918
2.42098
3.0815
6.85813
0.940494
1.06425
1.21395
1.39184
1.58243
1.76811
1.9192
2.00275
2.00817
1.95643
1.8862
1.83056
1.80686
1.82053
1.87052
1.95036
2.05194
2.16555
2.28113
2.38836
2.47784
2.54609
2.57813
2.55547
2.50315
2.4469
2.39735
2.35692
2.32447
2.29823
2.27698
2.26066
2.25072
2.25073
2.26761
2.31508
2.42362
2.67732
3.41296
7.67457
0.904495
0.994637
1.09368
1.20022
1.30906
1.41494
1.51241
1.59609
1.6658
1.72767
1.79168
1.8674
1.96235
2.08152
2.22541
2.39133
2.57454
2.76052
2.93036
3.05296
3.13486
3.21784
3.25019
3.09156
2.90378
2.76474
2.66761
2.60139
2.5564
2.52543
2.50384
2.48939
2.48228
2.48544
2.50589
2.55837
2.67632
2.95324
3.76673
8.54558
0.927526
1.00881
1.09555
1.18761
1.28456
1.38618
1.49275
1.60557
1.72566
1.85671
2.00245
2.1654
2.35103
2.56675
2.8145
3.09575
3.39768
3.63356
3.75149
3.89784
3.97062
3.93586
3.79636
3.5163
3.22451
3.02227
2.89115
2.80963
2.7608
2.73269
2.71758
2.71127
2.71267
2.72407
2.75251
2.81367
2.94377
3.24489
4.13267
9.39853
1.00703
1.09604
1.19226
1.29642
1.40953
1.53297
1.66879
1.81988
1.98911
2.18035
2.39705
2.64257
2.92777
3.26145
3.63016
4.07969
4.4094
4.77977
4.92996
4.76938
4.44118
4.10537
3.80727
3.51831
3.28649
3.1197
3.00979
2.94443
2.91114
2.89936
2.90126
2.91191
2.92949
2.95579
2.99785
3.07211
3.21717
3.54301
4.50226
10.25
1.14494
1.25447
1.37563
1.50985
1.65833
1.8221
2.00234
2.2005
2.41782