/*--------------------------------*- C++ -*----------------------------------*\
  =========                 |
  \\      /  F ield         | OpenFOAM: The Open Source CFD Toolbox
   \\    /   O peration     | Website:  https://openfoam.org
    \\  /    A nd           | Version:  8
     \\/     M anipulation  |
\*---------------------------------------------------------------------------*/
FoamFile
{
    version     2.0;
    format      ascii;
    class       volScalarField;
    location    "4.8";
    object      k;
}
// * * * * * * * * * * * * * * * * * * * * * * * * * * * * * * * * * * * * * //

dimensions      [0 2 -2 0 0 0 0];

internalField   nonuniform List<scalar> 
9150
(
0.00182749
0.00094136
0.000475568
0.000301336
0.000191955
0.00019185
0.0003012
0.000475418
0.000941196
0.0018275
0.00178491
0.000746895
0.000398812
0.000256631
0.00016053
0.000160443
0.000256505
0.000398678
0.000746756
0.0017849
0.00171342
0.000651613
0.0003658
0.000236558
0.000147931
0.000147856
0.000236442
0.000365676
0.000651491
0.00171341
0.00163486
0.000601582
0.000352658
0.000228508
0.00014313
0.000143061
0.000228398
0.00035254
0.000601474
0.00163484
0.0015514
0.00058004
0.000347866
0.000225677
0.000141622
0.000141555
0.000225571
0.000347751
0.00057994
0.00155138
0.00284851
0.0025592
0.00184992
0.00161367
0.001326
0.00132649
0.00161574
0.00185423
0.00256546
0.00284941
0.00230436
0.00150312
0.00127977
0.00120702
0.000971647
0.00097168
0.00120777
0.00128156
0.00150426
0.00230428
0.00204955
0.00125213
0.000887551
0.000805829
0.000623686
0.000623574
0.000805999
0.000888061
0.00125223
0.00204944
0.00186778
0.00111053
0.000649587
0.000529316
0.000385094
0.000384961
0.000529249
0.000649615
0.00111034
0.00186771
0.00178734
0.0010215
0.000524175
0.000371373
0.000252122
0.000252003
0.000371243
0.000524052
0.00102128
0.0017873
0.0128529
0.00519413
0.00260364
0.00189308
0.00153413
0.00152897
0.00189291
0.00273617
0.00611701
0.0153358
0.00491844
0.00379717
0.0025045
0.0018892
0.00154048
0.00153769
0.0018894
0.00250357
0.00372943
0.00495814
0.00440497
0.00342786
0.00248184
0.00188813
0.00154739
0.00154703
0.00189218
0.00248667
0.00340428
0.00441685
0.00391713
0.00314644
0.00246157
0.00188475
0.00155437
0.00155538
0.00188951
0.00246749
0.0031509
0.00392197
0.00335952
0.00309403
0.00235743
0.00183889
0.00152823
0.00152953
0.00184293
0.0023634
0.00310558
0.00336142
0.000540639
0.000538151
0.000535636
0.000533054
0.000530365
0.000527537
0.000524547
0.000521378
0.000518025
0.000514484
0.00116982
0.00117125
0.00117226
0.00117275
0.00117265
0.00117189
0.00117046
0.00116832
0.00116548
0.00116194
0.00159239
0.00159505
0.00159697
0.00159809
0.00159835
0.0015977
0.00159614
0.00159367
0.00159032
0.0015861
0.00193745
0.00194206
0.00194586
0.00194881
0.00195088
0.00195204
0.00195232
0.00195173
0.00195032
0.00194811
0.00225294
0.00226089
0.00226825
0.002275
0.00228115
0.00228672
0.00229175
0.0022963
0.00230042
0.00230416
0.00256083
0.00257423
0.00258762
0.00260105
0.00261458
0.00262832
0.00264229
0.00265663
0.00267146
0.0026869
0.00287604
0.00289799
0.00292105
0.00294531
0.00297092
0.0029981
0.00302704
0.00305799
0.00309116
0.00312676
0.00321167
0.00324653
0.00328421
0.00332505
0.00336942
0.0034177
0.00347031
0.00352762
0.00359001
0.00365779
0.00358037
0.00363408
0.00369335
0.00375881
0.00383114
0.003911
0.00399902
0.00409578
0.00420171
0.0043171
0.0039955
0.00407588
0.00416577
0.0042662
0.00437819
0.00450269
0.00464048
0.0047921
0.00495775
0.00513717
0.00447037
0.00458684
0.00471801
0.00486533
0.00503007
0.00521325
0.00541543
0.00563662
0.00587609
0.00613233
0.00501628
0.00517879
0.00536211
0.00556785
0.00579722
0.00605083
0.00632844
0.00662883
0.00694969
0.00728768
0.00563949
0.00585671
0.00610085
0.00637331
0.00667476
0.00700487
0.00736213
0.00774369
0.00814541
0.00856205
0.00633849
0.00661565
0.0069248
0.00726674
0.00764128
0.00804703
0.00848121
0.00893951
0.00941616
0.00990437
0.00710324
0.00744092
0.00781383
0.00822202
0.00866457
0.00913943
0.00964326
0.0101712
0.0107166
0.011271
0.00791787
0.00831267
0.00874411
0.00921163
0.00971389
0.0102488
0.0108134
0.0114039
0.0120144
0.0126361
0.0087652
0.00921209
0.00969616
0.0102165
0.0107718
0.01136
0.0119786
0.012625
0.0132952
0.0139829
0.00962882
0.0101226
0.0106542
0.0112228
0.0118271
0.0124653
0.013135
0.0138335
0.0145581
0.0153062
0.0104944
0.0110298
0.0116043
0.0122174
0.0128681
0.013555
0.0142758
0.0150279
0.0158092
0.0166208
0.0113539
0.0119263
0.0125398
0.0131945
0.0138899
0.0146251
0.0153988
0.0162093
0.0170576
0.0179509
0.01221
0.0128167
0.0134679
0.0141643
0.0149062
0.0156936
0.0165262
0.0174052
0.0183376
0.0193315
0.0130746
0.0137151
0.0144052
0.0151464
0.0159394
0.0167853
0.0176854
0.0186458
0.0196772
0.0207849
0.0139654
0.014641
0.0153724
0.0161614
0.0170099
0.01792
0.0188971
0.0199523
0.0210969
0.0223372
0.0149058
0.0156188
0.0163939
0.0172335
0.0181411
0.0191222
0.020188
0.0213535
0.0226311
0.0240312
0.0159245
0.0166742
0.0174917
0.0183818
0.0193515
0.0204117
0.0215804
0.0228763
0.0243158
0.0259167
0.0170473
0.0178259
0.0186803
0.0196195
0.0206556
0.0218068
0.0230985
0.0245541
0.0261951
0.0280509
0.0182894
0.0190919
0.0199796
0.0209673
0.0220751
0.0233312
0.0247705
0.0264213
0.0283135
0.030493
0.0196493
0.0204813
0.0214059
0.0224459
0.023632
0.0250068
0.026619
0.028504
0.0307027
0.0332884
0.0211044
0.0219819
0.0229583
0.0240657
0.0253473
0.0268638
0.0286769
0.0308254
0.0333822
0.0364633
0.0226191
0.0235716
0.0246342
0.0258462
0.0272503
0.0289258
0.0309654
0.0333978
0.0363715
0.0400597
0.0241507
0.0252191
0.0264171
0.0277742
0.029345
0.0312194
0.0334969
0.0362927
0.0397865
0.0441814
0.025651
0.0268483
0.0282084
0.0297525
0.0315332
0.0336503
0.036231
0.0394531
0.0435373
0.0487391
0.0271092
0.0284128
0.0299108
0.0316498
0.0336926
0.0361275
0.0390832
0.042773
0.0475
0.0536116
0.0285374
0.0299234
0.0315237
0.0333994
0.0356333
0.0383446
0.0417114
0.0459921
0.0515306
0.0587527
0.0299427
0.0313919
0.0330704
0.0350532
0.0374477
0.0404107
0.0441668
0.0490285
0.0554089
0.0638222
0.0313492
0.0328523
0.0345988
0.0366764
0.0392141
0.0423984
0.0464916
0.0518605
0.0590044
0.0685558
0.0327874
0.0343414
0.0361483
0.038305
0.0409552
0.0443064
0.0486503
0.0544051
0.0621597
0.0726773
0.0342793
0.0358841
0.0377462
0.0399652
0.0426886
0.046134
0.0506141
0.0565862
0.0647269
0.0759166
0.0358326
0.0374928
0.0394097
0.0416785
0.044439
0.0479055
0.0524053
0.0584221
0.0666614
0.078111
0.0374532
0.0391798
0.0411576
0.0434735
0.0462567
0.0497102
0.0541472
0.0600279
0.0680467
0.0792471
0.0391645
0.0409709
0.0430192
0.0453891
0.0481974
0.0516214
0.0559356
0.0615627
0.0691569
0.0797174
0.0409824
0.0428865
0.0450241
0.047466
0.0503143
0.0537208
0.0579182
0.0632673
0.0703307
0.0799894
0.0429108
0.0449344
0.0471873
0.0497326
0.0526589
0.0560938
0.0602278
0.0653504
0.0719121
0.0806268
0.0449351
0.0471035
0.0495045
0.052197
0.0552605
0.0588042
0.0629822
0.068017
0.0742418
0.0821867
0.0470168
0.0493515
0.0519303
0.054813
0.0580782
0.0618297
0.0662036
0.0713745
0.077563
0.0850953
0.0490923
0.051601
0.0543691
0.0574613
0.060964
0.0649927
0.0697013
0.0752777
0.0818784
0.0894042
0.0510829
0.0537562
0.0567013
0.0599888
0.0637154
0.0680177
0.0730916
0.0791817
0.0861851
0.094143
0.0529026
0.0557075
0.0587842
0.0622032
0.0660634
0.0705081
0.0757572
0.0821186
0.0895723
0.0962306
0.0544976
0.0573812
0.0605133
0.0639483
0.0677564
0.0720243
0.0768567
0.0823814
0.0887226
0.0958352
0.0558982
0.0588148
0.0619419
0.0653144
0.0689729
0.0729619
0.0773205
0.0820707
0.0872295
0.0928097
0.0572324
0.0601688
0.0632772
0.0665757
0.0700835
0.0738196
0.0777991
0.0820247
0.086479
0.0911395
0.0586862
0.0616711
0.0648014
0.0680858
0.0715309
0.0751427
0.0789269
0.082883
0.0870024
0.0912755
0.0604517
0.0635468
0.0667785
0.0701535
0.0736748
0.0773456
0.0811722
0.0851559
0.0892915
0.0935786
0.0626838
0.0659723
0.0694064
0.072997
0.0767508
0.0806731
0.0847728
0.0890554
0.0935244
0.0981875
0.0654253
0.0689846
0.0727203
0.0766497
0.0807855
0.0851398
0.0897247
0.0945598
0.0996747
0.105096
0.0685898
0.0724776
0.0766044
0.0809852
0.0856514
0.0906288
0.0959489
0.101642
0.107747
0.114302
0.0719462
0.0762341
0.0808273
0.0857747
0.0911163
0.096894
0.103151
0.109929
0.117267
0.125161
0.0751669
0.0798736
0.0849895
0.0905649
0.09665
0.103294
0.110536
0.118403
0.126944
0.136102
0.0778142
0.0829361
0.0885568
0.0947269
0.101491
0.108908
0.117022
0.125718
0.134952
0.144963
0.0795164
0.0849728
0.0910039
0.0976495
0.104925
0.112847
0.121192
0.130217
0.139613
0.148806
0.0800074
0.0856686
0.0919344
0.0986046
0.105838
0.113652
0.121704
0.129912
0.138805
0.148658
0.0792484
0.0849311
0.0911118
0.0976222
0.104514
0.11212
0.120606
0.130143
0.14113
0.153882
0.0774469
0.0829443
0.0891462
0.096122
0.103852
0.112633
0.122822
0.134826
0.149189
0.166348
0.0758599
0.0815925
0.08828
0.0961224
0.105281
0.116048
0.128866
0.144331
0.163116
0.185081
0.0750245
0.0813986
0.0890539
0.0982862
0.109403
0.122795
0.139016
0.158738
0.182022
0.205883
0.0752302
0.0826285
0.091721
0.102884
0.116511
0.133091
0.153236
0.177372
0.203043
0.224354
0.0766736
0.0855276
0.0965578
0.110172
0.126801
0.147008
0.171364
0.198681
0.222631
0.23604
0.0796131
0.0904268
0.10392
0.120491
0.1406
0.164805
0.193047
0.219961
0.2361
0.234524
0.0844496
0.0977433
0.114194
0.134181
0.158175
0.186463
0.216004
0.235867
0.237095
0.223004
0.0916959
0.107926
0.127762
0.151584
0.179716
0.211098
0.235916
0.240748
0.227626
0.208807
0.101545
0.121185
0.144906
0.17307
0.205352
0.235261
0.245808
0.233908
0.213928
0.195135
0.114188
0.137816
0.166122
0.199128
0.233704
0.252414
0.242751
0.221318
0.200282
0.182841
0.130147
0.158659
0.192622
0.230903
0.259884
0.255866
0.232523
0.208435
0.187898
0.172135
0.149996
0.184821
0.226066
0.26632
0.27309
0.248707
0.220647
0.19608
0.176553
0.162932
0.173774
0.216144
0.265114
0.291552
0.270468
0.237762
0.208119
0.184006
0.166177
0.155367
0.202428
0.254128
0.30501
0.301268
0.262639
0.226034
0.195878
0.172763
0.15722
0.149814
0.23787
0.302179
0.333182
0.295627
0.251517
0.213718
0.183864
0.16243
0.149875
0.146496
0.277801
0.347369
0.343173
0.288535
0.240043
0.201191
0.172106
0.153089
0.144313
0.145602
0.329003
0.378897
0.333037
0.275243
0.226022
0.187539
0.160338
0.144806
0.140741
0.147348
0.378803
0.397438
0.326086
0.262376
0.211388
0.17344
0.148938
0.137919
0.139466
0.151945
0.426965
0.391896
0.311162
0.245072
0.194263
0.158416
0.138028
0.132731
0.14076
0.159506
0.449441
0.371665
0.290982
0.225525
0.176144
0.143436
0.12825
0.12964
0.144778
0.169953
0.473482
0.360029
0.272269
0.205946
0.158095
0.129162
0.120012
0.128798
0.151406
0.182981
0.439115
0.331357
0.247869
0.184836
0.140103
0.115818
0.113385
0.129991
0.160195
0.198115
0.404147
0.304542
0.226087
0.16591
0.123743
0.103929
0.108248
0.132651
0.170445
0.215022
0.383867
0.285556
0.208921
0.149837
0.109152
0.0932978
0.104044
0.135887
0.181175
0.232873
0.365757
0.270181
0.194654
0.135772
0.0957734
0.0833896
0.100057
0.138846
0.191673
0.251353
0.351676
0.257768
0.18237
0.122984
0.0830396
0.0737251
0.0957201
0.140947
0.201661
0.270892
0.339045
0.246956
0.171272
0.110763
0.0704613
0.0640317
0.0906974
0.14177
0.21093
0.292278
0.332839
0.238355
0.160453
0.0982612
0.057751
0.0543112
0.0847773
0.140693
0.21849
0.314952
0.329621
0.230356
0.149102
0.0851822
0.0451663
0.0448194
0.0777728
0.136714
0.221915
0.334801
0.32728
0.221339
0.136114
0.0711704
0.0331445
0.035889
0.0696408
0.128943
0.218118
0.344357
0.322543
0.209008
0.120477
0.0563564
0.0224478
0.0278299
0.0605591
0.117225
0.20516
0.337028
0.31414
0.192789
0.102533
0.0418015
0.0139512
0.0207946
0.050889
0.10237
0.183238
0.308504
0.299602
0.172267
0.0830805
0.028764
0.0080522
0.0147677
0.0410857
0.0860993
0.156143
0.264827
0.274871
0.146953
0.0630842
0.0181952
0.00450449
0.00972206
0.0314594
0.0698945
0.128263
0.216593
0.237678
0.117269
0.043822
0.0105174
0.00267079
0.0057755
0.0222059
0.0544833
0.102503
0.170948
0.186702
0.0847582
0.0269738
0.00568057
0.0018818
0.00314492
0.0136283
0.0397151
0.0800863
0.133016
0.131748
0.0550344
0.0145261
0.00318714
0.00161258
0.00187947
0.0066242
0.0247585
0.0594607
0.102503
0.0807614
0.0297469
0.0064611
0.00214811
0.00154176
0.0015522
0.00265103
0.0103038
0.0358532
0.0771777
0.000510496
0.000506169
0.000501645
0.000496972
0.000492197
0.000487432
0.000482898
0.000478604
0.000474378
0.000470103
0.000465708
0.000461156
0.000456536
0.000452189
0.000448804
0.00044686
0.00044488
0.00044474
0.000443605
0.000444772
0.000443658
0.000442896
0.00044287
0.000444009
0.000443527
0.000442877
0.000442727
0.000442981
0.000442603
0.000442682
0.000442833
0.000441665
0.000427503
0.00040148
0.000367631
0.000327608
0.000282002
0.000230616
0.000172042
8.33824e-05
0.00115748
0.00115196
0.00114567
0.00113862
0.00113084
0.00112244
0.00111346
0.0011039
0.00109378
0.00108314
0.001072
0.00106032
0.00104814
0.00103547
0.00102228
0.00100842
0.000993599
0.000977574
0.000960485
0.000941581
0.000922043
0.000901063
0.000878922
0.000855266
0.000829627
0.000802451
0.000773436
0.000742902
0.000710364
0.000676596
0.000641075
0.000604084
0.000564736
0.000522193
0.000476212
0.000426647
0.000372797
0.000312567
0.000239167
0.000128434
0.00158075
0.00157409
0.00156648
0.00155804
0.00154881
0.00153882
0.0015281
0.00151665
0.00150447
0.00149156
0.00147786
0.00146331
0.00144781
0.00143126
0.00141346
0.00139422
0.00137326
0.00135037
0.00132541
0.00129826
0.00126889
0.00123737
0.00120395
0.00116828
0.00112988
0.00108843
0.00104371
0.000995604
0.000944119
0.000889564
0.000832567
0.00077402
0.000714776
0.000655099
0.00059473
0.000532899
0.000468104
0.00039712
0.000310911
0.000181544
0.00194497
0.00194081
0.00193588
0.00193025
0.00192395
0.001917
0.0019094
0.00190112
0.00189207
0.00188216
0.00187122
0.00185905
0.00184537
0.00182986
0.00181215
0.00179183
0.00176851
0.00174183
0.00171154
0.00167753
0.00163983
0.00159862
0.00155422
0.00150667
0.00145489
0.00139815
0.00133591
0.00126796
0.00119471
0.00111693
0.00103611
0.000954156
0.00087296
0.000793836
0.000716834
0.000640561
0.000562567
0.000478851
0.000378038
0.000230979
0.00230783
0.00231144
0.00231487
0.00231818
0.0023214
0.00232452
0.00232748
0.00233015
0.00233232
0.00233371
0.00233391
0.00233241
0.00232859
0.00232172
0.00231103
0.0022958
0.00227534
0.00224905
0.00221651
0.00217759
0.00213243
0.00208128
0.00202449
0.00196318
0.0018949
0.00181784
0.00173105
0.00163435
0.00152851
0.00141526
0.00129751
0.0011791
0.00106435
0.000956763
0.00085681
0.000761267
0.000665384
0.000565433
0.000446365
0.000278504
0.00270403
0.00272322
0.00274358
0.00276517
0.00278802
0.00281207
0.00283715
0.00286295
0.00288896
0.00291446
0.00293852
0.00296005
0.0029777
0.00299002
0.00299562
0.00299337
0.00298234
0.00296169
0.00293075
0.00288942
0.00283803
0.00277692
0.00270617
0.00262678
0.0025366
0.00243208
0.00231152
0.00217472
0.00202302
0.00185943
0.00168899
0.00151848
0.00135578
0.00120746
0.00107368
0.000947802
0.000819976
0.000688565
0.000536333
0.000335969
0.00316721
0.00321352
0.00326347
0.0033171
0.00337432
0.00343494
0.0034985
0.00356423
0.00363087
0.00369674
0.00375984
0.00381792
0.00386845
0.00390893
0.00393741
0.00395286
0.00395482
0.00394256
0.00391502
0.00387196
0.00381429
0.00374238
0.00365578
0.00355271
0.00343513
0.00329828
0.00314068
0.00296288
0.00276756
0.00255948
0.00234642
0.00213785
0.00194086
0.00175801
0.00157497
0.00137749
0.00116855
0.000941782
0.000698734
0.000437473
0.00373537
0.00382472
0.00392128
0.00402479
0.00413474
0.00425036
0.00437054
0.00449355
0.00461662
0.00473615
0.00484829
0.00494915
0.00503482
0.00510165
0.00514831
0.00517592
0.00518603
0.00517859
0.00515085
0.00510145
0.00503318
0.00494816
0.00484501
0.00472171
0.00458181
0.00442883
0.00426382
0.00409285
0.00392589
0.00377228
0.003637
0.00351683
0.00339043
0.00321906
0.00295815
0.00259332
0.00214079
0.0016211
0.00109931
0.000660314
0.00444886
0.00459995
0.00476185
0.00493331
0.0051126
0.00529769
0.00548642
0.00567599
0.00586157
0.00603668
0.00619502
0.00633093
0.00643954
0.00651744
0.00656545
0.00659017
0.00659699
0.00658602
0.00655119
0.00648862
0.00640559
0.00631293
0.00621007
0.0060956
0.00597476
0.00587627
0.0058137
0.00580909
0.00588467
0.00604334
0.00625526
0.00645593
0.0065579
0.00646974
0.00612444
0.00548985
0.00456539
0.00340151
0.00212534
0.0010764
0.00533991
0.00556928
0.00581086
0.00606152
0.00631752
0.00657483
0.0068302
0.00708084
0.00732126
0.00754258
0.00773563
0.00789243
0.00800633
0.00807718
0.00810952
0.00811429
0.00810316
0.00807908
0.00803243
0.00795978
0.00787531
0.00779581
0.00773372
0.0076977
0.00770897
0.00780026
0.00803978
0.00846032
0.00905397
0.0097559
0.0104453
0.0109875
0.0112664
0.0111933
0.0107154
0.00980597
0.00845287
0.00664278
0.00434512
0.00153339
0.00641709
0.00673303
0.00705857
0.00738847
0.00771719
0.0080388
0.00834888
0.00864515
0.00892472
0.00917993
0.0093994
0.00957067
0.00968289
0.00973187
0.00973245
0.00970172
0.00965334
0.00959768
0.00953633
0.00947022
0.0094161
0.00940032
0.0094474
0.0095914
0.00987936
0.0103597
0.011064
0.0120232
0.0131594
0.0143045
0.01527
0.0159128
0.0161472
0.0159264
0.0152321
0.01407
0.0124364
0.0102547
0.00729612
0.00256825
0.00765627
0.0080569
0.00846116
0.00886229
0.00925442
0.00963193
0.00998928
0.0103229
0.0106294
0.0109029
0.011135
0.0113124
0.01142
0.0114511
0.0114215
0.0113466
0.0112431
0.0111454
0.0110898
0.0110745
0.0110979
0.0111903
0.0113972
0.0117823
0.0124119
0.0133251
0.0145107
0.0158989
0.0173965
0.0187763
0.0198216
0.0203907
0.0204337
0.0199536
0.0189793
0.017536
0.015616
0.013137
0.0098044
0.00398823
0.00900874
0.00948586
0.00996029
0.0104252
0.0108749
0.0113037
0.0117053
0.0120735
0.012403
0.0126874
0.0129235
0.0131061
0.0132233
0.0132631
0.0132243
0.0131223
0.012994
0.0128847
0.0128373
0.0128708
0.0129869
0.0132066
0.0135869
0.0142154
0.0151636
0.0164477
0.0180211
0.0197774
0.0215746
0.0231455
0.0242153
0.0246389
0.0244275
0.0236399
0.0223366
0.0205508
0.0182646
0.0153925
0.0116563
0.00536325
0.0104213
0.0109673
0.0115052
0.0120306
0.0125372
0.0130186
0.0134682
0.0138789
0.0142457
0.0145647
0.0148304
0.0150368
0.0151721
0.0152264
0.0152051
0.0151272
0.0150233
0.0149323
0.0149063
0.0149881
0.0152074
0.0155885
0.0161907
0.0171089
0.0183838
0.0199961
0.0218907
0.0239791
0.026082
0.0278373
0.0288153
0.0289322
0.0283475
0.0271879
0.0255303
0.0233999
0.0207578
0.0174806
0.0132647
0.00660551
0.0118533
0.012466
0.0130689
0.013658
0.0142276
0.0147719
0.0152854
0.0157624
0.0161967
0.0165815
0.0169085
0.0171715
0.0173621
0.0174734
0.0175037
0.0174696
0.017409
0.0173676
0.0174017
0.0175795
0.0179626
0.0186108
0.0195966
0.0209346
0.0225955
0.0245345
0.0267076
0.0290619
0.031434
0.0332034
0.0336541
0.0331509
0.0320337
0.0304304
0.0283995
0.0259446
0.0230051
0.0194126
0.0147631
0.00762575
0.0132878
0.0139721
0.0146472
0.01531
0.0159569
0.0165841
0.0171879
0.0177612
0.0182943
0.0187795
0.0192085
0.0195743
0.019869
0.0200819
0.0202082
0.0202703
0.020308
0.0203739
0.0205357
0.0208745
0.0214792
0.0224978
0.0240471
0.0259165
0.0280126
0.0303386
0.0328595
0.0355287
0.0379649
0.0389151
0.038272
0.0369902
0.035293
0.0332278
0.0308162
0.0280429
0.0248338
0.0209961
0.0160285
0.00838185
0.0147097
0.0154754
0.0162363
0.0169935
0.0177446
0.0184847
0.0192075
0.0199076
0.0205756
0.0212023
0.0217784
0.0222953
0.0227435
0.0231127
0.0234015
0.0236294
0.02384
0.0240985
0.024487
0.0251012
0.0260499
0.0274778
0.0294936
0.0318924
0.0344054
0.0370807
0.0399403
0.0425845
0.0438396
0.0433984
0.0420445
0.0402182
0.0380369
0.03555
0.032776
0.0296955
0.0262292
0.0221731
0.01697
0.00889114
0.016111
0.0169736
0.0178415
0.0187181
0.0196015
0.0204863
0.0213664
0.022234
0.0230801
0.0238942
0.0246656
0.025384
0.0260402
0.0266268
0.0271432
0.0276041
0.0280586
0.0285915
0.0292959
0.0302694
0.0316122
0.0334133
0.0357102
0.0384345
0.0412385
0.0440491
0.04654
0.0476894
0.0476085
0.0465985
0.0448984
0.0427128
0.0401739
0.0373542
0.0342816
0.030939
0.0272449
0.0229898
0.0175898
0.00920897
0.0175088
0.0184843
0.0194824
0.0205054
0.0215525
0.0226193
0.023699
0.0247819
0.0258563
0.026908
0.0279223
0.028886
0.0297904
0.0306333
0.0314157
0.0321453
0.0328775
0.0337205
0.0347691
0.0361059
0.0378081
0.0399371
0.0425242
0.0454837
0.0483928
0.0506095
0.0515547
0.0514551
0.0506224
0.0491259
0.0470607
0.0445673
0.0417572
0.0386973
0.0354108
0.0318744
0.0280008
0.0235752
0.018001
0.00941827
0.0189413
0.0200447
0.021193
0.0223901
0.0236364
0.0249285
0.0262582
0.0276124
0.0289724
0.0303158
0.0316182
0.0328579
0.0340206
0.0351035
0.0361063
0.0370697
0.0380876
0.0392283
0.0405735
0.0421932
0.0441448
0.0464683
0.0491616
0.0520072
0.0541608
0.0550923
0.0551019
0.0543805
0.0530145
0.05108
0.0486879
0.0459501
0.0429516
0.0397404
0.0363234
0.0326627
0.0286594
0.0240927
0.0183595
0.00960274
0.0204407
0.0216887
0.023012
0.0244172
0.0259072
0.0274787
0.0291208
0.0308127
0.0325237
0.0342157
0.0358476
0.0373828
0.0387973
0.0400865
0.0412599
0.0424244
0.0437082
0.045114
0.0466929
0.0485046
0.0505867
0.0529369
0.0553919
0.0573956
0.0584451
0.0586104
0.058039
0.056791
0.0549629
0.0526666
0.0500131
0.0470961
0.0439789
0.0406872
0.037206
0.0334755
0.0293797
0.024691
0.0188102
0.0098279
0.0220311
0.0234527
0.0249884
0.0266499
0.0284433
0.0303652
0.0323984
0.0345092
0.0366475
0.0387513
0.0407554
0.0426044
0.0442654
0.0457433
0.0470851
0.0484497
0.0499696
0.0516053
0.05336
0.0552791
0.0573835
0.0595415
0.0613679
0.0624573
0.0626658
0.0621199
0.0609012
0.0591015
0.0568327
0.0542076
0.0513276
0.0482698
0.0450766
0.0417507
0.038251
0.0344892
0.030322
0.0255015
0.0194402
0.0101518
0.0237492
0.0253877
0.0271905
0.0291765
0.0313558
0.0337232
0.036251
0.0388854
0.0415481
0.0441444
0.0465796
0.0487789
0.0507062
0.0523836
0.053901
0.055439
0.0571256
0.0589356
0.0608022
0.0627324
0.0646853
0.0663306
0.0673342
0.0675607
0.0670164
0.0657721
0.0639283
0.0616018
0.0589152
0.0559832
0.0528997
0.049727
0.0464892
0.043167
0.0396922
0.0359412
0.0317252
0.0267453
0.0203752
0.0106698
0.0256509
0.0275653
0.0297114
0.0321173
0.0347971
0.0377405
0.0409026
0.0442003
0.0475158
0.0507121
0.0536597
0.0562648
0.0584924
0.0603852
0.0620702
0.0637369
0.0655219
0.0674211
0.0693407
0.0711871
0.0727017
0.0735715
0.0737341
0.0731238
0.0717928
0.0698339
0.067367
0.064525
0.0614388
0.0582224
0.0549609
0.0517033
0.0484578
0.0451864
0.0417946
0.0381153
0.0338864
0.0287107
0.0218666
0.0115641
0.0278022
0.0300747
0.032671
0.0356305
0.0389704
0.0426691
0.046655
0.0508024
0.0549408
0.0588815
0.0624551
0.0655469
0.0681265
0.0702619
0.0721091
0.0738699
0.0757032
0.0776335
0.0795362
0.0810619
0.08184
0.0818125
0.08101
0.0794521
0.0772413
0.0745064
0.0713857
0.0680212
0.0645461
0.0610686
0.0576626
0.0543641
0.0511699
0.0480279
0.044822
0.0413346
0.0371926
0.0318208
0.0242836
0.0131264
0.0302796
0.0330218
0.0362141
0.0399093
0.0441243
0.0488182
0.0538772
0.0591147
0.0642921
0.0691574
0.0734959
0.0771702
0.0801589
0.0825631
0.0845751
0.086419
0.0882659
0.0901341
0.0917784
0.0926093
0.0923479
0.0912265
0.0892612
0.086588
0.0833749
0.0797837
0.0759626
0.0720569
0.0681977
0.0644844
0.060976
0.0577039
0.0546612
0.0517903
0.0489681
0.0459332
0.042151
0.0367787
0.0283724
0.0157971
0.0331657
0.0365242
0.0405044
0.0451729
0.0505408
0.0565341
0.0629797
0.0696122
0.0761077
0.0821397
0.0874369
0.0918357
0.0953274
0.0980528
0.100246
0.102147
0.103913
0.105518
0.106453
0.106019
0.104351
0.101786
0.0983909
0.0943896
0.0900167
0.0854548
0.0808546
0.0763667
0.072111
0.0681783
0.064633
0.0614741
0.0586918
0.0562597
0.0540944
0.0519367
0.0492078
0.0446108
0.0354196
0.0200435
0.0365305
0.0406902
0.0456979
0.0516319
0.0584882
0.0661468
0.0743601
0.0827717
0.0909613
0.0985099
0.105072
0.110445
0.114618
0.117758
0.12013
0.121992
0.12346
0.124308
0.123734
0.121344
0.117784
0.113276
0.108065
0.102467
0.0967407
0.0910614
0.0855887
0.0804714
0.0758148
0.0717002
0.0681236
0.0650785
0.0625799
0.0606754
0.0594273
0.0587587
0.0580946
0.0563297
0.0474663
0.0257591
0.0404218
0.0455998
0.0519133
0.0594472
0.068173
0.0779153
0.0883479
0.0990219
0.109415
0.119001
0.127329
0.134111
0.139285
0.142995
0.1455
0.147045
0.147637
0.146586
0.143249
0.138144
0.131969
0.12495
0.117497
0.110007
0.102743
0.0958835
0.089556
0.0838388
0.0788266
0.0745214
0.0708725
0.067863
0.065541
0.0640617
0.063771
0.0652434
0.0683375
0.0671016
0.0664841
0.0316773
0.0448954
0.0513145
0.0592223
0.0687139
0.0797257
0.0920233
0.10521
0.118758
0.132053
0.144446
0.155329
0.16424
0.170961
0.175522
0.178081
0.178614
0.176586
0.171627
0.164287
0.155534
0.145827
0.135664
0.125597
0.116034
0.107215
0.0992741
0.0922428
0.0860961
0.0808298
0.0763776
0.0726436
0.0696055
0.0673516
0.0661516
0.0665994
0.069791
0.0745451
0.0707273
0.0780031
0.0357096
0.0500265
0.0578813
0.0676814
0.0795295
0.0932961
0.108701
0.125299
0.142519
0.159693
0.176036
0.190671
0.202838
0.211993
0.217921
0.220372
0.218193
0.210776
0.199628
0.186594
0.1727
0.158443
0.144574
0.131671
0.120054
0.109856
0.101071
0.0935837
0.0872454
0.0818945
0.0773754
0.0735885
0.0705146
0.0682851
0.0672548
0.0681296
0.0719422
0.0733462
0.0707427
0.0730334
0.0337319
0.0557329
0.0652967
0.0773269
0.0919545
0.109075
0.128391
0.149443
0.171623
0.194174
0.216181
0.236623
0.254328
0.268023
0.276551
0.27799
0.268922
0.251321
0.230753
0.209528
0.188635
0.168931
0.151065
0.135392
0.12199
0.11077
0.101509
0.0938885
0.0875782
0.082287
0.0778001
0.0740055
0.0709153
0.0687128
0.0678324
0.0690516
0.0723724
0.0701931
0.0680877
0.0651975
0.0299442
0.0619724
0.0735441
0.0882287
0.106231
0.127528
0.151906
0.178989
0.208229
0.23885
0.269827
0.299952
0.327716
0.34991
0.360982
0.353302
0.330128
0.295533
0.261363
0.229679
0.201007
0.175881
0.154434
0.136559
0.121971
0.110274
0.100986
0.0935579
0.0874639
0.0823201
0.0779089
0.0741424
0.0710739
0.0689594
0.0683676
0.0702611
0.0717821
0.0671081
0.0667596
0.0568498
0.0266231
0.0686933
0.0825586
0.100343
0.122432
0.148973
0.179998
0.215419
0.254978
0.298151
0.344056
0.391063
0.435739
0.464859
0.460058
0.450028
0.392173
0.334015
0.284401
0.24239
0.207153
0.178004
0.154265
0.135269
0.120342
0.1088
0.099932
0.0929801
0.0872331
0.0822748
0.077947
0.0742074
0.0711424
0.0690575
0.068591
0.070512
0.0697629
0.0658377
0.0641988
0.0486377
0.0237819
0.0755065
0.0919738
0.113322
0.140189
0.173111
0.212623
0.259296
0.313609
0.37597
0.4461
0.520213
0.559831
0.55259
0.571728
0.530051
0.431286
0.354006
0.293263
0.244845
0.20606
0.175178
0.150878
0.132038
0.117653
0.106822
0.0987301
0.0924734
0.0871083
0.0823134
0.0780653
0.0743402
0.0712163
0.068979
0.0681814
0.0691275
0.0679196
0.0651954
0.0597496
0.0438099
0.0219177
0.0819832
0.101174
0.126424
0.158749
0.199196
0.249004
0.309799
0.383767
0.473476
0.577996
0.629086
0.612612
0.627309
0.640446
0.543597
0.43561
0.35272
0.288496
0.238268
0.19898
0.168515
0.145193
0.127566
0.114384
0.104623
0.0974765
0.09204
0.0871613
0.0825348
0.0783857
0.0746832
0.0714614
0.0689377
0.0675377
0.0675148
0.0672758
0.0637291
0.0549419
0.0407075
0.0205897
0.0876652
0.109445
0.138614
0.17667
0.22529
0.286628
0.363761
0.461279
0.585245
0.663739
0.647882
0.651205
0.686797
0.640237
0.518443
0.416938
0.336969
0.274299
0.225524
0.188009
0.159598
0.138393
0.122693
0.11109
0.102529
0.0962343
0.0915111
0.0873568
0.0831064
0.0791147
0.0754577
0.0721409
0.0692696
0.0670605
0.0657961
0.065249
0.059988
0.0504607
0.0382992
0.0195569
0.0920845
0.116022
0.148733
0.192262
0.248928
0.321681
0.414657
0.533857
0.655666
0.673669
0.661184
0.688828
0.702362
0.604151
0.485862
0.390196
0.314271
0.25493
0.209407
0.175198
0.149994
0.131639
0.118237
0.108355
0.101021
0.095543
0.0913381
0.087765
0.084131
0.0804556
0.0769506
0.0736341
0.0705012
0.0675449
0.0646678
0.0612556
0.0560017
0.0480381
0.0369707
0.0190093
0.0948856
0.120252
0.155746
0.204063
0.268201
0.35174
0.459106
0.595112
0.694919
0.682314
0.68646
0.728684
0.694053
0.564657
0.450649
0.35936
0.287724
0.232869
0.191959
0.162202
0.140946
0.125776
0.114737
0.106545
0.100409
0.0957452
0.092061
0.0888727
0.0857853
0.0826248
0.079438
0.0762737
0.0730818
0.0697425
0.0660177
0.0615156
0.0558422
0.0482852
0.0374705
0.0196185
0.0959139
0.121672
0.158648
0.210271
0.280237
0.372617
0.49185
0.641505
0.728448
0.702369
0.726993
0.763208
0.661786
0.521362
0.410524
0.3242
0.258414
0.209744
0.174801
0.150274
0.133223
0.121204
0.112401
0.105811
0.100831
0.0969915
0.0939099
0.0911772
0.088513
0.0858181
0.0830203
0.080089
0.0769709
0.0735393
0.069577
0.0647958
0.0588459
0.0510725
0.0398943
0.0211302
0.0955035
0.120344
0.156965
0.209622
0.282958
0.381917
0.511462
0.674664
0.75885
0.732927
0.780702
0.757074
0.602751
0.469603
0.365518
0.286504
0.228607
0.187695
0.159553
0.14038
0.12728
0.118093
0.111323
0.106228
0.102342
0.0992947
0.0967879
0.0945418
0.0923363
0.0900517
0.0876116
0.0849296
0.0819202
0.0784866
0.0744316
0.0695081
0.0633483
0.0552549
0.0434711
0.023101
0.0943061
0.116966
0.151062
0.201585
0.274404
0.376204
0.514687
0.697329
0.790908
0.767054
0.834428
0.729531
0.551407
0.417887
0.319613
0.249458
0.201103
0.168746
0.147362
0.133106
0.123412
0.116604
0.11162
0.107866
0.104976
0.102669
0.10071
0.0989013
0.0970851
0.0951429
0.0929852
0.0905073
0.0876146
0.0841918
0.0800465
0.0749615
0.0685504
0.0600543
0.0475391
0.0252322
0.0932419
0.11292
0.14257
0.187159
0.252741
0.346181
0.475646
0.652316
0.772277
0.770585
0.808585
0.628031
0.471299
0.354045
0.270737
0.21435
0.177471
0.153737
0.138439
0.128353
0.121506
0.116738
0.113295
0.110729
0.108757
0.107154
0.105731
0.104332
0.102828
0.101116
0.0991074
0.096716
0.0938672
0.0904258
0.0861929
0.080921
0.0742071
0.0652332
0.0518767
0.0274617
0.0932649
0.110022
0.134788
0.171837
0.226531
0.304608
0.411045
0.547657
0.682708
0.699862
0.715757
0.532906
0.391987
0.292565
0.226847
0.185209
0.159251
0.14294
0.132552
0.125821
0.121356
0.118339
0.116258
0.114776
0.113657
0.112713
0.111791
0.110761
0.109517
0.107973
0.106053
0.103685
0.100792
0.0972487
0.0928738
0.0873903
0.0803428
0.0708399
0.0565563
0.0298465
0.0950957
0.109642
0.130554
0.161235
0.206119
0.270441
0.359663
0.478798
0.576983
0.621187
0.589396
0.434267
0.318155
0.241127
0.193244
0.164296
0.146801
0.136077
0.129428
0.125316
0.122811
0.121327
0.120475
0.119979
0.119635
0.119286
0.118804
0.118087
0.117049
0.115625
0.113755
0.111378
0.108415
0.104747
0.100194