/*--------------------------------*- C++ -*----------------------------------*\
  =========                 |
  \\      /  F ield         | OpenFOAM: The Open Source CFD Toolbox
   \\    /   O peration     | Website:  https://openfoam.org
    \\  /    A nd           | Version:  8
     \\/     M anipulation  |
\*---------------------------------------------------------------------------*/
FoamFile
{
    version     2.0;
    format      ascii;
    class       volScalarField;
    location    "4.9";
    object      p_rgh;
}
// * * * * * * * * * * * * * * * * * * * * * * * * * * * * * * * * * * * * * //

dimensions      [1 -1 -2 0 0 0 0];

internalField   nonuniform List<scalar> 
9150
(
1962.85
1961.84
1961.24
1960.76
1960.52
1960.52
1960.75
1961.23
1961.85
1962.85
1962.42
1961.9
1961.49
1961.15
1960.99
1960.99
1961.16
1961.49
1961.9
1962.42
1962.15
1961.86
1961.61
1961.39
1961.28
1961.28
1961.39
1961.61
1961.86
1962.15
1962.03
1961.85
1961.68
1961.53
1961.44
1961.45
1961.53
1961.69
1961.85
1962.03
1962.03
1961.85
1961.71
1961.58
1961.52
1961.52
1961.58
1961.71
1961.85
1962.03
1951.14
1950.23
1950.41
1950.89
1951.06
1951.08
1950.93
1950.5
1950.3
1951.21
1955.14
1954.43
1954.21
1954.16
1954.26
1954.26
1954.16
1954.22
1954.44
1955.16
1958.22
1957.48
1957.17
1956.81
1956.76
1956.75
1956.81
1957.17
1957.47
1958.22
1960.92
1959.81
1959.36
1958.73
1958.58
1958.57
1958.74
1959.38
1959.82
1960.94
1963.59
1961.5
1960.75
1960.04
1959.78
1959.78
1960.05
1960.76
1961.51
1963.6
1945.11
1944.47
1942.97
1942.11
1941.6
1941.63
1942.14
1943.26
1945.48
1947.29
1944.98
1944.9
1944.07
1943.85
1943.52
1943.67
1944.21
1944.7
1945.78
1946.06
1944.92
1945.08
1944.11
1944.61
1944.13
1944.26
1944.7
1944.5
1945.55
1945.52
1941.87
1944.64
1943.59
1945.26
1945
1945.12
1945.33
1943.89
1944.88
1942.17
1935.35
1945.31
1945.67
1947.25
1947.57
1947.61
1947.26
1945.8
1945.43
1935.59
938.106
940.886
943.268
946.002
945.9
946.644
946.719
946.158
945.253
944.299
935.573
938.31
940.703
943.4
944.075
945.307
945.747
944.933
943.668
942.691
931.732
933.289
935.715
937.327
939.171
940.841
941.479
940.446
938.552
937.101
926.858
928.868
931.163
933.086
935.49
935.695
934.637
932.94
933.456
932.702
926.096
928.409
930.286
931.406
932.474
933.302
924.402
924.653
921.715
934.929
929.157
928.944
928.503
928.093
923.32
913.54
914.832
925.775
926.255
911.708
930.275
929.144
927.631
909.715
889.566
894.398
925.271
928.75
921.755
896.119
933.108
927.755
905.347
876.904
876.174
889.714
924.324
924.957
919.298
899.626
937.694
904.019
873.938
871.889
866.959
875.944
920.311
919.237
916.044
912.89
940.603
902.831
869.475
866.826
862.876
858.198
887.767
919.289
919.556
919.652
942.473
924.878
872.893
864.668
862.646
859.868
860.109
921.085
925.779
924.773
928.55
924.621
916.798
885.946
869.16
872.546
893.356
931.187
932.466
931.313
926.882
931.285
944.549
940.98
934.521
935.498
939.055
939.936
935.863
932.983
935.162
941.147
943.868
944.945
945.277
945.677
945.5
944.905
938.905
938.142
939.773
943.233
945.608
947.216
947.941
948.753
948.674
948.385
947.201
942.118
940.496
943.883
941.293
941.882
943.061
949.523
949.91
950.173
950.446
950.372
922.745
924.108
926.241
935.037
946.176
949.353
950.184
951.03
951.915
952.709
917.764
918.102
925.753
943.567
948.531
949.481
950.528
951.566
952.622
953.489
919.336
920.947
938.905
946.306
941.562
943.386
944.522
944.044
944.112
948.945
928.393
936.11
945.741
945.596
946.013
938.419
931.751
930.531
930.008
931.963
943.971
946.483
945.777
944.544
944.06
934.767
931.183
932.195
923.636
891.11
949.919
950.472
912.351
863.205
886.125
927.152
924.358
922.391
906.965
884.061
956.6
955.859
854.879
818.377
813.134
812.245
814.272
817.798
851.604
876.831
810.864
811.453
818.189
822.466
819.413
811.893
842.505
838.398
831.481
831.384
768.366
859.569
956.142
959.078
955.853
949.008
942.206
936.119
929.26
920.976
937.846
937.046
937.234
967.136
960.503
950.911
937.232
904.755
851.845
776.778
864.546
820.614
808.551
822.847
820.761
766.722
650.052
557.015
534.806
531.099
970.175
984.55
781.89
671.443
636.211
605.334
576.397
561.173
547.274
539.799
1005.22
1008.54
1008.46
1005.23
1001.56
972.471
898.159
869.931
871.318
887.058
980.308
985.59
988.183
989.556
991.17
992.874
993.85
994.683
996.37
997.861
945.67
965.142
971.582
976.235
980.638
985.613
989.892
993.43
996.304
998.29
720.5
877.296
902.985
950.827
972.433
979.324
985.779
991.251
995.154
996.887
655.402
658.31
655.16
701.662
844.626
935.692
982.335
989.939
995.383
998.68
904.363
718.162
649.115
652.637
656.591
676.798
920.677
989.066
999.764
1003.07
906.377
916.464
844.97
671.81
658.414
672.362
687.708
821.204
973.212
1010.47
892.958
877.043
894.456
936.772
934.43
893.842
856.814
765.268
767.838
981.118
813.624
823.494
831.885
932.522
988.533
998.285
1006.24
900.84
766.934
775.262
807.362
815.848
824.065
902.547
978.55
985.985
992.078
996.14
995.876
894.717
803.451
810.673
844.569
945.844
967.431
969.382
965.409
871.46
718.865
677.504
821.986
897.403
950.49
963.535
967.039
968.63
935.582
503.181
256.919
256.677
941.806
954.54
961.375
966.356
970.741
974.111
896.356
463.59
255.306
254.276
896.787
872.451
919.105
958.447
969.121
977.701
975.349
898.413
377.364
272.593
639.44
388.299
458.412
778.718
954.993
978.029
989.282
996.117
873.036
749.892
354.571
211.243
208.628
292.801
699.266
961.035
997.276
1000.59
994.372
978.812
247.246
211.151
208.57
206.492
307.793
656.033
894.644
921.938
821.322
618.389
260.051
213.752
213.088
212.265
211.352
328.221
452.085
462.977
352.974
355.544
324.227
217.098
216.34
216.331
216.016
269.073
286.039
305.362
319.893
504.26
370.096
221.648
220.517
220.245
219.527
375.834
517.266
438.673
590.098
821.715
447.932
227.801
226.096
225.673
224.84
369.217
738.054
881.433
864.055
842.622
756.595
268.569
233.162
232.287
231.362
533.735
913.587
901.261
884.074
829.96
1057.69
550.247
243.512
241.289
300.001
858.704
933.857
918.549
892.285
432.691
1075.97
689.651
273.345
263.995
782.592
957.292
940.113
924.288
468.131
405.633
953.97
578.311
309.619
704.644
976.885
962.4
937.704
586.832
319.335
395.534
237.091
250.891
645.534
856.742
848.611
987.744
900.911
324.106
309.807
579.709
221.69
493.739
898.809
673.015
742.476
1005.72
792.878
302.78
307.151
549.669
220.428
897.141
900.659
557.674
933.407
975.038
762.798
293.886
298.561
842.47
236.058
891.635
631.849
519.42
979.941
961.16
695.845
270.218
271.535
914.58
469.094
883.782
353.427
473.333
986.927
978.954
615.44
269.477
381.28
1085.23
797.164
787.997
342.348
313.921
991.887
979.412
899.067
874.03
1092.75
1095.77
914.664
1132.9
428.117
258.334
978.741
944.414
1104.53
1107.5
1108.76
1110.35
1173.31
1172.24
456.685
228.145
948.878
800.228
815.647
1122.01
929.843
950.767
1184.78
1178.62
515.388
178.724
918.426
931.786
342.939
543.167
215.408
143.205
1195.21
1184.14
525.217
132.362
928.136
928.327
75.219
42.177
0.845642
0.144254
1213.47
1131.41
497.918
134.089
915.316
996.461
49.8808
46.0772
30.0284
7.56854
1212.56
1165.24
842.672
145.779
985.006
1040.86
55.57
48.654
22.3165
11.4251
424.404
564.33
700.117
120.185
1042.94
1081.53
60.1169
33.5348
0.35553
0.340106
49.2412
159.542
437.108
114.459
1108.84
1129.64
82.9853
67.2426
0.41912
0.402651
51.0682
58.2972
62.3924
101.094
1156.58
1154.04
91.4288
84.7722
12.6893
0.489872
45.1428
44.0911
18.7305
114.723
1189.55
1187.45
110.749
10.7789
13.2917
11.2229
11.2462
42.2516
11.1279
123.013
1210.8
1212.15
120.146
0.666504
10.1818
11.2277
4.58792
5.71964
2.68953
133.502
1236.76
1236.86
132.861
0.353192
1.02352
2.1395
0.0549519
0.0458787
0.201161
141.896
1259.94
1260.89
141.956
0.160424
0.175666
0.173525
0.0065883
0.0442252
0.119845
152.979
1283.86
1285.93
153.031
0.128899
0.27518
0.145197
-0.0114944
-0.00702622
0.0133283
164.901
1309.16
1309.63
164.673
0.111413
0.332186
0.112745
-0.0176168
0.0435098
-0.0149819
178.142
1335.89
1333.42
177.141
0.104567
0.368616
0.104939
-0.0208161
0.239094
-0.0164742
194.44
1361.6
1363.26
194.343
0.10364
0.373971
0.197047
-0.021894
0.28328
-0.0214826
217.579
1393.08
1393.21
216.891
0.109586
0.38276
0.326203
-0.0257382
0.28454
-0.0253437
246.538
1426.07
1425.92
245.622
0.113645
0.268777
0.344487
0.274782
0.257829
-0.0126823
279.344
1457.98
1459.36
279.483
0.113987
0.119924
0.263699
0.799159
0.120383
0.000527451
322.642
1494.39
1491.29
320.793
0.121793
0.120405
0.346074
0.804805
0.129018
-0.00193678
369.415
1529.25
1520.89
364.466
0.135332
0.182656
0.772499
1.1258
0.576744
-0.0154141
424.095
1563
1552.03
416.346
0.136247
0.283033
0.886676
0.779068
0.730957
-0.021741
473.749
1589.69
1583.97
468.923
0.111236
0.205287
0.878631
0.0715299
0.133977
-0.0176307
526.785
1612.95
1617.91
527.815
0.0678035
0.100414
0.540989
-0.011626
-0.0071441
-0.00437196
577.727
1636.1
1646.59
581.866
0.0328966
0.0664969
0.0983738
0.0249218
-0.00107038
0.00194764
640.075
1662.99
1671.66
643.281
0.023329
0.0542023
0.0805239
0.0587863
0.00054763
-0.00219972
709.363
1692.01
1692
706.696
0.0315889
0.0514612
0.0839886
0.364451
0.0722915
0.0035617
801.392
1718.53
1714.29
793.71
0.0332624
0.0370587
0.0633677
0.56086
0.144461
0.0158531
902.17
1735.29
1743.22
904.811
0.014901
0.0225276
0.0289322
0.0825515
-0.00668778
-0.0092936
1040.98
1756.63
1764.44
1045.64
0.0101036
0.0189025
0.0205121
-0.0175493
-0.0184629
-0.0223255
1195.33
1779.01
1782.1
1193.35
0.0123736
0.0193752
0.0316639
-0.0141374
-0.0213998
0.0119348
1344.45
1796.78
1803.28
1367.96
0.0159755
0.0172459
0.0363818
-0.0157955
-0.0157822
70.865
1488.6
1819.75
1816.55
1463.15
40.5396
0.0101806
0.0270414
-0.0189165
-0.0182183
324.237
1712.55
1835.98
1834.17
1471.42
87.6552
0.00912239
0.0137093
-0.0164208
-0.019578
573.789
1796.37
1854.49
1853.13
1684.86
253.653
0.00938302
0.00952225
-0.0112059
-0.0117884
993.268
1868.31
1873.3
1872.52
1795.38
528.864
0.00609476
0.00924355
-0.0127279
0.0327485
1348.45
1891.17
1892.49
1892.42
1891.45
1122.13
0.0196422
0.0110853
-0.0365649
360.95
1727.77
1909.75
1910.73
1911.12
1910.46
1620.04
74.9257
0.00870054
-0.0201997
1322.13
1927.3
1927.08
1926.71
1926.54
1926.44
1911.83
962.838
0.00131754
753.125
1899.13
1938.79
1937.21
1936.69
1936.86
1937.78
1939.72
1856.63
561.244
942.608
940.208
938.868
938.774
938.707
939.149
939.735
940.449
941.3
942.014
942.158
941.813
941.484
941.625
942.614
944.435
946.412
947.634
948.324
948.604
948.857
949.09
949.267
949.542
950.062
950.759
951.366
951.945
952.651
953.438
954.79
957.31
960.595
961.89
961.415
959.405
957.95
958.815
959.312
959.553
940.776
938.114
936.218
934.752
934.949
935.656
936.416
937.491
938.693
939.72
939.974
939.583
939.178
939.413
941.09
943.306
945.54
947.406
948.456
948.712
948.863
948.775
948.74
949.529
950.231
950.434
950.998
950.793
950.953
950.97
950.888
951.967
954.867
957.506
957.721
955.073
955.517
956.864
957.746
958.725
934.893
930.994
928.028
927.145
928.456
930.092
930.956
932.745
934.528
936.423
937.597
937.82
938.161
939.168
941.302
943.725
945.889
947.826
948.817
949.38
949.412
949.22
947.064
947.409
947.852
949.697
949.931
949.532
948.807
946.87
937.448
937.955
938.821
948.484
951.05
953.749
956.225
957.644
958.944
958.329
924.008
915.374
911.448
920.475
923.003
925.223
926.004
927.739
930.181
932.221
935.084
936.754
938.711
941.247
943.154
945.189
947.086
948.706
949.783
951.003
948.709
946.783
947.346
947.403
946.47
946.7
950.145
949.015
940.116
929.45
928.291
927.431
927.666
928.861
933.179
948.387
954.876
959.52
959.149
958.926
905.085
902.062
897.921
907.466
918.475
921.249
922.41
922.56
924.589
927.751
931.863
936.072
939.89
943.602
944.99
944.363
945.352
950.441
951.52
952.597
953.969
954.951
949.831
947.598
946.978
945.487
948.931
947.624
929.177
925.737
922.452
920.005
920.376
921.676
923.707
927.462
942.097
957.773
962.783
958.031
897.988
895.866
892.411
889.11
910.448
914.494
904.876
908.107
917.322
924.237
929.65
935.251
941.285
946.106
943.492
944.023
944.846
943.48
946.396
945.454
945.175
955.841
959.33
959.159
954.073
951.497
952.585
950.567
933.107
924.447
921.476
917.966
919.166
920.798
922.213
926.039
928
954.184
962.83
956.852
896.441
894.331
891.612
898.716
908.326
905.947
883.459
876.711
902.047
923.023
930.036
936.305
942.151
947.305
952.871
957.433
959.849
955.744
947.361
946.083
945.051
944.112
943.528
943.867
956.201
958.834
957.859
956.602
954.171
949.298
936.943
928.226
924.27
928.322
927.569
926.581
928.858
954.493
960.866
960.362
899.516
921.148
924.984
924.776
922.533
898.369
872.51
871.82
871.695
911.672
931.904
937.131
942.149
947.127
952.053
956.169
959.818
962.609
964.421
962.95
960.094
954.515
948.2
947.807
954.371
960.663
960.032
959.465
958.833
958.389
958.497
959.094
960.087
961.926
961.274
936.25
949.054
959.085
960.312
961.503
921.587
927.084
929.659
900.697
871.279
872.334
873.365
873.576
873.477
909.258
931.863
934.689
941.932
946.413
950.629
954.35
957.956
961.734
964.256
966.224
963.117
958.219
960.256
961.504
962.277
962.251
961.834
961.528
961.288
961.214
961.783
963.081
963.994
964.813
962.444
963.235
962.105
952.895
946.832
962.227
921.508
924.128
926.635
929.27
924.58
891.011
887.574
885.406
912.01
936.698
934.693
935.29
938.234
946.399
948.981
946.747
951.694
959.273
962.633
964.739
965.54
965.767
965.526
956.268
952.988
952.576
960.931
963.344
963.572
963.741
964.623
966.002
966.864
959.195
959.61
968.113
957.763
938.018
935.312
946.34
925.165
926.863
928.853
930.981
933.444
935.645
936.263
936.252
938.394
939.011
935.544
936.64
940.888
947.623
939.941
939.491
940.93
956.172
957.245
954.088
961.875
964.288
964.474
964.026
963.43
942.132
947.274
965.456
966.673
958.146
946.966
948.072
950.997
951.848
964.921
970.124
939.915
936.183
935.35
935.841
931.076
931.881
933.264
934.796
936.19
937.378
938.135
938.92
939.564
938.799
937.29
939.169
945.615
948.907
937.155
940.008
946.559
953.427
935.317
934.954
946.756
966.917
967.098
946.288
931.192
934.005
950.34
960.453
958.745
958.921
962.162
955.45
949.086
958.578
968.192
965.989
949.72
934.445
933.263
933.691
932.877
937.354
937.968
938.707
939.494
940.201
940.638
941.147
941.795
941.546
938.908
942.335
946.047
948.946
942.895
941.439
958.364
959.881
929.826
931.152
932.309
965.392
966.325
932.201
931.844
939.347
968.682
967.581
965.49
965.045
963.115
948.496
941.379
960.037
959.9
960.358
961.516
960.935
938.67
927.709
937.692
937.408
937.486
940.147
943.708
944.143
944.572
944.772
945.031
941.449
943.489
945.307
947.589
949.778
952.51
955.01
957.219
958.827
938.068
927.828
927.739
960.382
945.906
931.289
930.127
966.489
969.733
968.57
966.166
954.653
949.451
948.307
949.391
955.479
953.675
953.373
954.897
958.286
959.524
924.449
941.929
941.902
942.029
942.228
942.533
945.181
948.669
948.962
949.348
940.652
942.003
947.916
950.365
952.612
955.03
957.298
959.141
959.95
951.119
928.005
937.637
968.878
947.285
928.183
927.359
963.077
964.504
966.449
944.632
935.873
950.686
953.827
957.402
956.524
948.331
942.269
951.833
959.341
963.518
926.673
949.525
945.131
945.648
946.047
946.44
950.503
953.077
953.376
953.959
940.693
934.321
939.781
949.654
955.451
958.92
961.499
963.594
959.59
962.527
968.833
968.963
970.093
969.668
929.728
927.648
949.512
966.417
968.011
966.473
966.645
967.102
968.22
966.366
944.483
861.199
855.131
915.46
967.622
972.832
931.702
953.448
954.223
951.426
954.251
956.105
956.597
957.154
957.768
943.391
935.231
937.287
938.546
939.344
951.811
963.068
965.573
968.323
965.032
969.798
975.534
974.007
973.249
972.9
962.736
953.914
963.308
973.512
973.253
973.481
959.468
956.736
939.56
860.985
836.514
835.698
834.995
875.486
978.151
967.272
933.625
951.441
946.82
949.615
956.697
958.261
958.884
954.272
931.003
932.225
937.013
950.952
941.435
941.916
957.732
964.648
962.905
968.808
975.289
967.317
980.944
977.307
974.701
974.486
976.038
977.708
979.188
980.287
980.705
977.797
901
873.883
866.068
853.648
840.953
841.72
843.348
930.447
988.047
936.426
935.116
943.739
945.805
942.759
939.183
942.3
941.167
923.676
918.795
931.984
966.171
966.914
966.501
966.241
965.768
961.427
960.55
965.727
970.634
958.158
980.098
976.832
973.225
973.416
976.338
959.856
948.137
949.707
943.309
940.282
963.754
986.172
985.126
985.393
979.927
971.105
974.776
968.514
899.863
898.96
940.702
940.951
935.062
927.193
934.096
911.192
913.136
914.692
916.297
935.688
964.14
967.456
967.185
966.596
965.762
963.986
958.337
962.014
960.751
939.574
868.513
946.678
970.827
972.492
948.382
950.765
960.41
983.857
985.89
986.198
986.349
986.172
985.933
974.154
916.528
877.682
878.2
879.045
881.625
935.571
977.913
891.449
892.543
893.942
895.964
929.351
931.744
918.311
914.038
917.07
926.189
964.361
969.378
968.698
967.31
964.526
961.185
957.232
952.103
852.701
744.032
801.403
937.158
967.665
954.362
964.828
977.602
980.547
982.59
984.619
985.661
986.778
977.063
898.262
877.909
878.439
879.656
880.178
879.961
973.224
992.988
886.339
886.509
889.53
897.29
945.257
949.458
953.227
944.087
919.43
923.279
951.74
973.998
973.78
972.746
970.445
967.315
962.064
877.276
720.92
725.653
725.128
751.905
834.111
911.971
962.533
974.55
978.838
982.258
984.895
986.808
978.237
947.115
907.893
878.967
879.849
880.708
880.881
917.785
988.687
996.257
883.045
888.552
887.255
892.405
942.517
951.421
957.114
961.789
956.343
948.677
965.361
976.249
981.007
980.131
967.178
980.546
978.385
836.444
721.691
726.12
726.275
726.809
727.585
734.67
829.257
971.906
981.995
985.456
987.929
987.879
957.597
942.932
944.458
933.913
912.458
946.521
949.232
992.927
997.01
998.496
830.224
893.951
941.043
944.653
947.492
952.549
954.459
959.399
974.624
979.846
977.238
971.923
980.048
986.074
922.93
899.656
977.589
871.76
727.242
729.574
728.206
727.66
728.207
729.708
777.409
970.029
988.062
990.453
992.079
979.344
977.029
995.501
997.114
998.278
999.357
997.058
1000.47
1001.01
1000.29
1000.37
913.731
903.503
878.136
885.991
926.914
951.874
954.493
882.84
934.044
983.635
988.078
978.086
988.59
978.837
852.03
847.791
853.307
884.704
805.83
764.829
764.34
767.501
833.371
904.203
854.265
931.927
995.581
996.239
996.533
996.419
996.205
996.751
997.968
999.148
1000.33
997.52
1000.62
1001.48
1000
1000.54
715.127
676.346
579.893
568.526
677.009
867.891
858.996
865.149
911.291
984.483
990.816
961.91
990.216
957.659
847.722
848.401
848.843
850.557
858.165
870.547
917.537
977.02
1002.49
1002.16
975.623
931.553
949.821
994.005
998.512
998.242
997.792
997.936
998.495
990.638
976.829
972.208
981.338
1002.77
980.907
976.416
526.391
520.61
515.001
514.502
517.625
569.189
851.487
953.157
973.858
978.2
961.883
945.394
997.652
976.817
848.192
849.005
849.343
849.909
898.124
869.784
900.41
1000.1
1006.89
1005.43
979.091
931.877
931.89
963.308
1002.05
1001.95
1001.8
1001.95
1002.7
962.205
964.065
972.251
974.544
987.054
976.535
977.414
537.423
528.704
520.279
648.383
811.782
932.631
970.743
975.776
976.707
945.886
922.862
950.833
1005.16
1003.78
956.477
933.944
944.644
930.449
990.314
987.335
962.617
1001.21
1007.32
1003.77
937.488
932.811
932.505
964.635
1007.49
1007.4
1007.4
1007.01
992.938
963.076
980.291
992.948
994.148
1009.89
1005.22
989.683
892.804
878.95
818.35
789.078
891.792
921.303
922.894
924.221
946.439
918.127
922.028
994.127
1004.29
1005.83
1007.96
1009.31
995.642
981.008
999.716
1002.44
1002.54
1006.45
993.984
940.395
934.339
934.651
938.347
1003.51
1012.19
1011.69
1011.32
1002.43
963.64
964.659
989.131
992.021
1006.71
1012.16
1011.95
1011.85
998.108
996.475
993.998
980.921
980.083
990.08
990.511
985.64
979.444
941.52
918.884
988.399
1002.25
1002.7
1004.54
980.006
901.247
952.688
1002.98
1003.83
1006.08
997.139
937.971
939.38
948.226
959.839
1007.89
1017.29
1016.11
1015.62
1016.11
966.008
966.399
991.621
990.89
977.188
996.847
1013.59
1014.01
1013.91
998.496
994.107
997.828
1000.53
1001.84
1003.75
1006.41
1009.71
1012.17
1004.2
908.008
872.756
969.661
999.611
1000.07
993.075
877.608
803.143
841.112
1004.73
1010.14
1011.13
992.559
1002.15
1018.18
1020.4
1020.06
1012.24
979.657
967.206
953.071
989.713
994.087
970.201
957.692
977.445
1014.52
1015.36
1015.93
1016.23
987.563
989.184
990.363
1000.37
1006.97
1009.7
1012.43
1015.13
1016.72
1012.71
899.484
862.415
860.576
860.852
947.963
953.659
830.86
798.858
797.718
800.698
892.14
1022.19
1023.85
1024.03
1024.44
1023.97
973.296
938.884
937.874
937.181
936.095
1005.47
969.025
946.955
947.609
965.831
1016.02
1018.62
1019.25
1019.57
995.92
990.773
992.642
997.322
1008.85
1011.63
1014.12
1015.78
1016.25
1015.52
981.157
888.286
915.699
873.138
894.893
1015.45
997.097
811.03
800.221
800.564
800.88
954.804
1012.94
1027.87
1027.09
1026.56
991.766
940.505
939.347
943.276
963.762
1004.82
941.897
962.546
994.677
1000.34
1020.17
1020.53
1021.35
1021.85
1005.07
1006.22
1002.67
1007.06
1009.24
1011.77
1013.46
1013.73
980.869
920.769
952.181
1001.3
1005.24
1001.53
1005.38
1023.44
1023.75
978.258
800.609
799.976
800.413
854.057
1006.26
1009.89
1015.71
1030.54
1029.35
1017.82
1012.2
1012.45
1010.05
982.315
949.815
1016.87
1016.13
1014.41
1007.31
1020.29
1024.56
1023.37
1011.3
1010.1
1008.05
1007.38
1008.69
1009.95
1010.22
1009.93
926.263
824.044
828.187
863.213
997.288
1007.18
1015.88
1029.21
1029.1
1007.48
806.066
799.795
799.952
822.958
1016.2
1011.08
1009.86
1032.16
1032.86
1022.8
1006.58
972.203
972.919
971.891
1012.76
1016.65
1007.16
958.339
899.794
952.314
1011.6
982.295
1022.2
1015.34
1009.18
1004.95
1002.7
1001.57
1002.53
1003.85
940.266
816.981
825.252
832.893
838.376
841.535
904.679
950.077
1035.77
1011.05
800.132
801.037
800.394
883.803
1039.87
1015.85
1014
1037.6
1003.58
952.346
952.079
951.158
992.713
1030.85
1027.39
989.753
835.137
837.033
840.801
917.848
961.937
921.907
1021.65
995.374
957.981
946.669
962.305
971.088
977.049
982.447
988.738
938.421
821.994
833.766
841.436
846.1
847.908
848.842
912.245
991.934
803.106
804.407
845.827
1026.43
1048.52
1039.85
1043.61
1041.73
993.589
956.368
1023.78
1027.56
1031.28
1029.05
992.583
830.933
802.796
873.828
1005.62
1007.9
1008.04
953.516
795.348
805.752
566.376
452.471
518.838
616.28
717.814
816.849
870.716
868.999
890.363
904.066
848.376
854.147
857.498
870.307
1015.87
1058.93
973.273
970.523
1021.41
1052.98
1054
1050.68
1046.94
1043.15
1024.78
925.259
913.219
909.373
992.433
1021.11
1016.38
937.664
780.65
953.919
987.659
994.1
998.772
1001.63
761.988
752.282
388.516
238.841
234.034
232.317
233.774
300.289
455.454
618.81
729.361
737.134
830.502
887.782
872.123
987.959
1083.35
1076.14
1070.38
1066.18
1065.46
1060.94
1056.8
1040.19
949.556
934.372
928.917
923.528
918.775
893.433
868.114
861.986
849.987
836.29
730.029
934.249
966.204
976.743
985.317
990.06
353.299
543.456
314.068
234.652
230.089
228.571
230.781
233.339
263.509
559.052
662.056
721.476
758.606
913.353
965.818
904.345
944.922
1096.65
1079.18
1076.93
1070.21
1062.79
1056.3
1014.68
962.455
1038.85
1034.1
1027.27
1022.5
1011.5
964.451
968.289
921.65
777.813
704.367
771.576
872.507
939.862
972.842
977.026
253.693
251.739
242.321
237.745
233.756
231.334
231.977
234.215
236.363
471.538
797.584
848.704
784.143
847.104
1012.78
941.71
908.884
896.772
954.147
1085.5
1070.9
1058.82
1048.76
1024.16
1022.23
1024.78
1020.46
1013.47
969.414
951.841
974.703
973.989
972.483
843.114
700.672
624.666
640.677
697.657
966.267
971.665
258.511
267.83
262.965
248.505
241.927
238.35
236.185
235.811
236.497
491.405
793.141
836.526
791.474
837.014
1023.96
1065.94
924.138
889.98
872.735
920.172
1062.35
1048.25
1037.6
1022.12
984.491
978.514
1010.03
983.833
749.502
685.503
944.366
973.789
975.425
916.016
639.031
623.319
622.188
627.363
942.477
975.632
690.221
707.782
643.685
533.001
385.711
250.019
255.553
255.31
401.234
748.843
769.193
796.661
810.962
818.355
973.807
1033.32
1019.61
858.7
845.088
831.404
859.721
999.133
1027.13
1017.87
988.57
969.048
970.32
947.808
691.436
671.103
668.537
673.168
796.689
797.541
616.989
618.978
661.33
879.951
960.261
982.693
981.173
999.532
1021.71
1017.6
888.791
593.967
698.391
718.672
701.27
684.384
563.609
609.435
654.444
468.864
652.011
940.12
962.061
960.162
905.475
886.051
841.578
901.715
1020.57
1015.11
1010.05
1000.01
967.763
973.677
1012.25
947.327
833.847
636.68
634.087
622.253
613.121
710.106
955.379
1005.79
1007.44
1009.14
734.199
949.917
970.828
908.655
788.627
725.19
610.03
609.332
571.619
269.8
170.956
176.349
212.812
215.688
296.103
781.988
918.901
931.039
936.579
931.142
871.466
974.221
1019.82
1017.25
1013.97
1011.4
1008
1008.3
1008.79
1006.89
1007.63
1011.53
983.308
757.497
614.862
690.231
910.89
1015.9
1018.86
1020.65
589.408
917.413
738.255
377.531
161.364
151.068
144.638
141.454
142.8
148.087
154.193
161.159
168.221
185.425
281.152
803.82
912.239
921.785
878.108
672.339
647.566
759.207
943.205
968.551
919.543
927.059
998.751
1013.27
1013.79
1014.15
1014.68
1017.15
1020.5
1024.06
935.795
698.978
760.238
1009.84
1026.09
1026.66
812.17
792.753
306.071
148.123
140.232
134.883
130.627
127.76
128.822
134.193
141.578
150.027
160.855
434.215
549.53
822.201
837.315
675.558
578.223
585.386
628.782
690.037
759.314
732.088
722.444
721.877
721.849
801.109
1003.77
1019.46
1020.88
1023.54
1027.17
1031.74
912.647
712.725
828.236
1027.49
1028.35
1029.1
796.648
732.7
205.497
141.212
134.55
128.854
125.704
124.298
124.085
128.79
135.407
143.009
277.346
613.253
626.482
553.302
519.367
532.048
541.836
708.445
940.757
1007.72
869.654
722.977
722.464
722.342
721.463
785.979
1010.27
1022.39
1023.59
1025.98
1029.28
1033.73
822.347
714.724
781.074
1023.65
1030.87
1032.72
817.307
590.88
165.351
146.737
139.348
132.474
129.437
126.694
128.248
131.853
137.292
154.472
437.905
625.083
508.742
508.079
514.06
604.185
836.485
995.597
1008.34
1006.74
1003.24
981.671
925.525
819.408
864.741
991.839
1022.32
1022.26
1023.33
1025.52
1028.49
859.707
723.744
734.772
992.867
1043.59
988.288
973.208
617.055
531.398
307.147
156.293
150.564
145.08
141.443
137.398
136.95
140.406
144.112
148.088
315.618
492.166
498.347
519.812
736.648
957.541
997.85
1004.58
1005.84
1004.78
1001.89
999.01
997.002
961.176
983.189
1021.69
1018.43
1016.69
1017.28
1020.03
774.543
711.602
716.737
987.83
1046.02
1040.96
786.852
570.414
436.342
1016.32
637.087
164.662
161.702
158.845
156.298
154.64
154.171
154.618
155.377
156.405
272.536
619.141
708.07
840.834
979.098
977.609
874.426
904.157
956.807
992.045
991.221
991.854
991.816
949.401
973.795
993.64
981.794
999.366
1014.47
917.824
690.919
709.954
968.013
1055.16
1054.02
906.906
301.88
206.653
569.317
1051.49
901.021
228.066
170.252
168.878
166.969
165.204
164.482
165.672
167.812
302.329
643.59
961.12
1022.86
1020.04
1006.02
909.869
799.287
684.154
551.953
718.608
844.55
776.22
807.4
892.016
744.86
527.025
459.388
499.306
905.051
753.504
833.059
972.728
1052.06
1059.56
1064.29
574.901
201.944
203.72
1021.03
1048.95
1042.26
766.739
200.672
173.443
172.631
307.22
525.605
676.891
793.63
922.121
1048.05
1056.69
1046.36
1034.95
832.358
514.869
719.442
734.333
554.467
212.681
368.162
397.333
509.934
509.049
216.267
166.576
126.486
277.259
453.504
629.197
910.098
1051.93
1059.32
1065.84
1071.58
652.355
199.962
201.829
1052.07
1056.25
1056.1
1054.34
943.322
823.302
814.206
992.719
1074.51
1092.53
1090.25
1086.57
1080.52
1072.74
1061.86
907.605
481.958
466.37
618.154
753.422
633.613
186.845
92.419
91.6174
88.1661
68.3907
50.6985
20.1178
6.43269
136.092
385.71
529.646
765.992
1017.89
1067.15
1071.58
1075.7
972.569
685.367
664.962
1064.42
1067.08
1068.59
1070.32
1073.45
1076.7
1079.95
1090.79
1090.9
1112.77
1105.03
1096.61
1089.91
1083.44
1003.35
519.086
477.003
472.153
618.785
767.695
755.027
487.957
76.6275
40.4103
22.1659
23.9322
27.5349
1.7638
1.29467
0.770503
129.671
579.643
909.333
1036.51
1077.03
1080.74
1086.34
1088.92
1092.94
872.687
1078.9
1079.01
1078.31
1062.67
942.353
920.548
927.313
941.933
838.29
822.376
859.289
1000.68
1095.28
1090.92
846.991
531.886
576.399
736.609
727.852
512.053
219.476
232.109
65.551
8.4294
0.799553
0.730039
1.6067
1.24716
0.740373
0.70575
0.74704
1.13216
419.975
983.481
1087.77
1092.57
1096.28
1098.6
1101.28
925.019
1085.31
1086.14
1084.88
983.102
807.485
798.457
791.354
792.982
814.202
825.104
798.165
540.745
553.392
910.993
920.304
920.915
711.868
193.796
52.2161
11.3577
4.7635
43.4331
16.6362
0.622397
0.657676
0.647067
0.635024
0.670198
0.722601
0.728381
0.757227
0.543887
0.453072
197.881
738.435
1012.67
1048.51
1085.06
1036.51
929.097
1088.86
1090.64
1090.93
1089.49
1085.81
1056.09
889.949
543.57
371.013
493.162
557.477
533.089
323.55
420.306
770.397
933.041
920.127
740.544
134.144
3.83503
1.76588
1.52434
0.842065
0.627036
0.606981
0.594254
0.598308
0.606865
0.849853
0.926556
0.815422
0.484446
0.493631
0.458209
0.528431
92.675
206.283
325.557
397.835
585.95
1098.53
1098.81
1097.55
1094.98
974.443
560.237
227.608
4.11249
0.234037
0.160395
0.24367
23.3933
46.0343
41.7889
40.9136
54.921
225.188
259.466
82.5644
2.07163
0.659655
0.58043
0.484088
0.50498
0.508841
0.514587
0.653306
0.911059
0.903894
0.800865
0.461417
0.447642
0.471751
0.493091
0.488092
0.462673
0.448294
1.63515
5.32117
33.0012
1109.35
1095.58
1010.46
701.56
190.072
0.354295
0.101507
0.162124
0.213383
0.196199
1.21702
0.646337
0.600127
0.349938
0.375088
0.30517
0.314696
1.5492
5.73024
0.663529
0.136496
0.251709
0.306964
0.375471
0.412325
0.429123
0.513333
0.546798
0.465385
0.43022
0.420032
0.418027
0.724091
0.864193
0.800684
0.453127
0.445325
0.441384
0.435929
0.430305
750.883
458.441
175.865
0.122525
-0.00387351
0.0641669
0.0717056
0.0875633
0.116406
0.129002
1.33041
0.747191
0.194922
0.346284
0.379636
0.432643
0.284488
0.0953361
-0.0100477
0.0473085
0.140491
0.256609
0.312053
0.350098
0.370993
0.382498
0.394907
0.395322
0.394692
0.39035
0.38157
0.373749
0.561086
0.833392
0.822317
0.760972
0.463503
0.431393
0.429844
0.42635
-0.0541438
-0.098832
-0.0893519
-0.0379118
-0.0293845
-0.0159877
0.00342186
0.0335086
0.0776565
0.129049
1.38019
0.978895
0.141102
0.161791
0.191076
0.155797
0.132369
0.124183
0.15682
0.220671
0.288645
0.373459
0.474543
0.504135
0.663049
0.726033
0.758813
0.593091
0.365944
0.361123
0.353339
0.344784
0.336942
0.331738
0.545644
1.02977
1.05557
0.719471
0.736469
0.53549
-0.00421907
-0.0670086
-0.102096
-0.118664
-0.117787
-0.102295
-0.0734066
0.0860044
0.038759
0.283545
1.3974
0.389632
0.153353
0.155102
0.153275
0.160105
0.180093
0.216166
0.267206