/*--------------------------------*- C++ -*----------------------------------*\
  =========                 |
  \\      /  F ield         | OpenFOAM: The Open Source CFD Toolbox
   \\    /   O peration     | Website:  https://openfoam.org
    \\  /    A nd           | Version:  8
     \\/     M anipulation  |
\*---------------------------------------------------------------------------*/
FoamFile
{
    version     2.0;
    format      ascii;
    class       surfaceScalarField;
    location    "4.9";
    object      phi;
}
// * * * * * * * * * * * * * * * * * * * * * * * * * * * * * * * * * * * * * //

dimensions      [0 3 -1 0 0 0 0];

internalField   nonuniform List<scalar> 
18095
(
1.96438e-08
-1.72031e-07
1.52387e-07
2.30918e-08
-1.98031e-07
1.94583e-07
1.96337e-08
-2.05888e-07
2.09346e-07
1.05116e-08
-2.10791e-07
2.19913e-07
-3.09824e-10
-2.13543e-07
2.24365e-07
-1.1394e-08
-2.1327e-07
2.24354e-07
-2.03084e-08
-2.10554e-07
2.19468e-07
-2.32127e-08
-2.05959e-07
2.08863e-07
-1.96598e-08
-1.97978e-07
1.94425e-07
-1.71954e-07
1.52294e-07
1.55302e-08
-1.87561e-07
1.58466e-08
-1.98347e-07
1.20524e-08
-2.02094e-07
6.20861e-09
-2.04947e-07
-2.95269e-10
-2.07039e-07
-6.64756e-09
-2.06918e-07
-1.20455e-08
-2.05156e-07
-1.58964e-08
-2.02108e-07
-1.5562e-08
-1.98313e-07
-1.87516e-07
6.82614e-09
-1.94388e-07
8.31092e-09
-1.99832e-07
7.29291e-09
-2.01076e-07
4.17373e-09
-2.01828e-07
-1.66326e-10
-2.02699e-07
-4.2623e-09
-2.02822e-07
-7.1605e-09
-2.02258e-07
-8.29185e-09
-2.00977e-07
-6.84594e-09
-1.99759e-07
-1.94362e-07
4.53089e-09
-1.98919e-07
4.65623e-09
-1.99957e-07
3.59309e-09
-2.00013e-07
2.17597e-09
-2.00411e-07
3.79349e-10
-2.00903e-07
-1.68366e-09
-2.00759e-07
-3.61487e-09
-2.00327e-07
-4.71414e-09
-1.99877e-07
-4.55291e-09
-1.9992e-07
-1.98915e-07
1.08149e-09
1.12406e-09
1.11124e-09
7.00154e-10
-2.02653e-10
-9.61385e-10
-1.28792e-09
-1.16534e-09
-1.08524e-09
-2.72409e-08
-1.97006e-07
2.24247e-07
-2.976e-08
-1.99108e-07
2.01628e-07
-2.48581e-08
-2.01574e-07
1.96672e-07
-1.34492e-08
-2.01686e-07
1.90277e-07
2.60329e-10
-2.02119e-07
1.8841e-07
1.39356e-08
-2.01912e-07
1.88237e-07
2.44407e-08
-2.00907e-07
1.90402e-07
2.89386e-08
-2.00694e-07
1.96196e-07
2.6464e-08
-1.98538e-07
2.01013e-07
-1.96455e-07
2.22919e-07
-9.93029e-09
-1.87076e-07
-1.5604e-08
-1.93435e-07
-1.42161e-08
-2.02962e-07
-7.01569e-09
-2.08887e-07
-3.80759e-10
-2.08754e-07
6.03926e-09
-2.08332e-07
1.29248e-08
-2.07793e-07
1.4864e-08
-2.02633e-07
9.58059e-09
-1.93255e-07
-1.86875e-07
-1.0793e-08
-1.76283e-07
-8.90802e-09
-1.9532e-07
-6.96497e-09
-2.04905e-07
-5.77863e-09
-2.10073e-07
-1.69778e-09
-2.12835e-07
3.02184e-09
-2.13051e-07
5.77348e-09
-2.10544e-07
8.28092e-09
-2.0514e-07
1.04821e-08
-1.95456e-07
-1.76393e-07
-6.58832e-09
-1.69695e-07
-8.47759e-09
-1.9343e-07
-8.03012e-09
-2.05352e-07
-3.62242e-09
-2.14481e-07
-4.33472e-10
-2.16024e-07
3.34705e-09
-2.16832e-07
8.38061e-09
-2.15578e-07
8.68209e-09
-2.05442e-07
6.67455e-09
-1.93448e-07
-1.69718e-07
-1.73074e-08
-1.61549e-08
-1.21607e-08
-6.72814e-09
1.61267e-09
9.13485e-09
1.30254e-08
1.64468e-08
1.74241e-08
2.53784e-08
-1.61455e-07
1.36077e-07
2.89609e-08
-2.01228e-07
1.97645e-07
1.99535e-08
-2.11544e-07
2.20551e-07
4.63764e-09
-2.1597e-07
2.31286e-07
-1.26642e-08
-2.17244e-07
2.34546e-07
-2.89591e-08
-2.17038e-07
2.33333e-07
-4.02942e-08
-2.15356e-07
2.26691e-07
-4.56311e-08
-2.0929e-07
2.14627e-07
-3.8887e-08
-1.96555e-07
1.89811e-07
-1.54321e-07
1.15434e-07
1.44968e-08
-1.75952e-07
1.68201e-08
-2.03551e-07
1.38665e-08
-2.0859e-07
7.49335e-09
-2.09597e-07
-1.2134e-09
-2.08537e-07
-1.02197e-08
-2.08032e-07
-1.77774e-08
-2.07798e-07
-2.12229e-08
-2.05844e-07
-1.82742e-08
-1.99504e-07
-1.72595e-07
9.3976e-09
-1.8535e-07
8.04922e-09
-2.02202e-07
5.94971e-09
-2.06491e-07
1.30276e-09
-2.0495e-07
-2.54755e-09
-2.04687e-07
-6.33496e-09
-2.04244e-07
-1.0007e-08
-2.04126e-07
-1.10815e-08
-2.0477e-07
-1.04537e-08
-2.00131e-07
-1.83049e-07
7.15644e-09
-1.92506e-07
5.08273e-09
-2.00129e-07
5.52033e-09
-2.06928e-07
6.17117e-10
-2.00047e-07
-7.37753e-10
-2.03332e-07
-2.48227e-09
-2.025e-07
-7.46007e-09
-1.99149e-07
-6.8186e-09
-2.05411e-07
-8.05033e-09
-1.989e-07
-1.91099e-07
3.17413e-08
3.32401e-08
2.29834e-08
1.32139e-08
-1.70806e-09
-1.59714e-08
-2.4718e-08
-3.39334e-08
-3.18206e-08
5.55151e-08
4.38979e-08
-9.9413e-08
9.86234e-09
4.56529e-08
-4.04618e-08
5.03242e-08
-9.05156e-08
5.00538e-08
-1.34652e-07
4.41361e-08
-1.85871e-07
5.12189e-08
-2.36729e-07
5.08588e-08
-2.74084e-07
3.73546e-08
-3.17718e-07
4.36336e-08
4.65897e-08
-3.64307e-07
5.35866e-08
5.90647e-08
-6.87534e-08
1.88341e-08
8.04057e-08
-2.60092e-08
9.51675e-08
-7.92079e-08
1.03252e-07
-1.36151e-07
1.01079e-07
-1.82353e-07
9.74211e-08
-2.21925e-07
9.04307e-08
-2.72363e-07
8.77923e-08
-3.17984e-07
8.92543e-08
8.77413e-08
-3.59135e-07
3.34248e-08
8.42307e-08
-5.85907e-08
4.67746e-09
1.09153e-07
-1.70263e-08
1.16871e-07
-4.07529e-08
1.26979e-07
-6.91091e-08
1.29435e-07
-1.02602e-07
1.30914e-07
-1.63948e-07
1.51777e-07
-2.30987e-07
1.5483e-07
-2.55809e-07
1.14076e-07
1.00157e-07
-2.68225e-07
-2.99949e-08
8.98319e-08
2.43938e-08
-2.96747e-08
1.08833e-07
-2.98619e-08
1.17058e-07
-3.20359e-08
1.29153e-07
-4.11141e-08
1.38513e-07
-7.90374e-08
1.68837e-07
-1.40331e-07
2.13071e-07
-2.00412e-07
2.14911e-07
-2.1166e-07
1.25325e-07
1.03269e-07
-2.14772e-07
-6.35899e-08
7.20688e-08
8.1353e-08
-4.96246e-08
9.4867e-08
-5.18048e-08
1.19238e-07
-7.26249e-08
1.49973e-07
-1.31212e-07
1.971e-07
-2.03376e-07
2.41001e-07
-2.14551e-07
2.24246e-07
-1.80015e-07
1.80375e-07
-1.98431e-07
1.43741e-07
1.41481e-07
-2.36643e-07
-6.3858e-08
5.79901e-08
7.79365e-08
-6.14374e-08
9.24465e-08
-8.27876e-08
1.40589e-07
-1.4916e-07
2.16345e-07
-2.3426e-07
2.822e-07
-2.7243e-07
2.79171e-07
-2.4813e-07
1.99946e-07
-2.32774e-07
1.65019e-07
-2.36262e-07
1.47228e-07
1.44924e-07
-2.39704e-07
-7.25937e-08
6.14735e-08
6.91104e-08
-9.69819e-08
1.16835e-07
-1.58222e-07
2.01828e-07
-2.31434e-07
2.89556e-07
-2.82602e-07
3.33368e-07
-2.86167e-07
2.82736e-07
-2.60444e-07
1.74223e-07
-2.52138e-07
1.56714e-07
-2.51993e-07
1.47083e-07
1.22694e-07
-2.29764e-07
-8.64798e-08
7.18368e-08
7.61165e-08
-1.19255e-07
1.4961e-07
-1.86652e-07
2.69225e-07
-2.34525e-07
3.37429e-07
-2.53184e-07
3.52027e-07
-2.46892e-07
2.76443e-07
-2.5066e-07
1.77991e-07
-2.48053e-07
1.54107e-07
-2.39025e-07
1.38056e-07
8.96145e-08
-2.05945e-07
-8.30809e-08
1.00688e-07
5.42297e-08
-9.85507e-08
1.65079e-07
-1.13661e-07
2.84336e-07
-1.07983e-07
3.31751e-07
-1.01743e-07
3.45786e-07
-1.25328e-07
3.00029e-07
-1.65424e-07
2.18086e-07
-1.76531e-07
1.65214e-07
-1.72552e-07
1.34078e-07
8.69828e-08
-1.6992e-07
-9.31923e-08
1.41607e-07
5.22727e-08
-1.00491e-07
1.72377e-07
-8.0001e-08
2.63846e-07
-5.56551e-08
3.07405e-07
-1.40322e-09
2.91534e-07
2.98554e-08
2.68771e-07
9.09417e-09
2.38848e-07
-1.24999e-08
1.86808e-07
-2.34147e-08
1.44993e-07
1.00967e-07
-3.73989e-08
-4.75411e-08
1.93396e-07
-4.24813e-09
-6.77062e-08
1.92543e-07
-4.35741e-08
2.39714e-07
-1.53279e-08
2.79159e-07
3.56957e-08
2.40511e-07
8.23417e-08
2.22125e-07
1.02611e-07
2.18579e-07
9.61595e-08
1.9326e-07
9.17541e-08
1.49398e-07
1.0946e-07
8.32612e-08
6.02349e-08
2.25101e-07
-9.19395e-08
3.50327e-08
2.17745e-07
4.01085e-08
2.34638e-07
6.75953e-08
2.51672e-07
8.43976e-08
2.23709e-07
1.05095e-07
2.01428e-07
1.30148e-07
1.93526e-07
1.49566e-07
1.73843e-07
1.52819e-07
1.46145e-07
1.1318e-07
1.491e-07
9.23641e-08
2.50692e-07
-1.17955e-07
6.4704e-08
2.45405e-07
6.13596e-08
2.37982e-07
8.49802e-08
2.28052e-07
1.00073e-07
2.08617e-07
1.17941e-07
1.83559e-07
1.44838e-07
1.6663e-07
1.70182e-07
1.48499e-07
1.84709e-07
1.31618e-07
1.07595e-07
1.90294e-07
4.91976e-08
2.68483e-07
-6.69887e-08
3.62953e-08
2.58307e-07
4.15984e-08
2.32679e-07
5.94814e-08
2.10169e-07
8.27977e-08
1.853e-07
1.09703e-07
1.56655e-07
1.40671e-07
1.35662e-07
1.67861e-07
1.21309e-07
1.89074e-07
1.10406e-07
9.60239e-08
2.00645e-07
-6.04879e-08
2.49119e-07
7.98519e-08
-3.58209e-08
2.3364e-07
-8.26851e-09
2.05127e-07
2.23303e-08
1.7957e-07
5.85277e-08
1.49103e-07
9.7511e-08
1.17672e-07
1.28605e-07
1.04569e-07
1.5309e-07
9.68234e-08
1.74191e-07
8.93053e-08
8.52399e-08
1.84975e-07
-1.27065e-07
2.19574e-07
1.5661e-07
-9.81836e-08
2.04758e-07
-5.46361e-08
1.61579e-07
-2.78263e-09
1.27716e-07
4.16384e-08
1.04682e-07
7.14163e-08
8.78938e-08
9.17005e-08
8.42846e-08
1.06341e-07
8.21834e-08
1.184e-07
7.72462e-08
7.16021e-08
1.32037e-07
-9.78599e-08
1.82568e-07
1.34865e-07
-6.1488e-08
1.68386e-07
-1.71104e-08
1.17202e-07
2.03932e-08
9.02123e-08
4.37724e-08
8.13026e-08
5.28693e-08
7.8797e-08
5.83643e-08
7.87897e-08
6.55273e-08
7.50202e-08
8.15225e-08
6.1251e-08
5.1975e-08
1.0115e-07
-1.77381e-08
1.36909e-07
6.33974e-08
1.75143e-08
1.33133e-07
3.62918e-08
9.84247e-08
4.828e-08
7.82242e-08
4.69471e-08
8.26353e-08
3.86361e-08
8.71079e-08
3.62072e-08
8.12186e-08
3.93899e-08
7.18375e-08
5.13955e-08
4.92455e-08
4.00076e-08
6.33628e-08
-1.21994e-08
1.08699e-07
4.04099e-08
1.30888e-08
1.07845e-07
2.3542e-08
8.79715e-08
1.8388e-08
8.33779e-08
1.11106e-08
8.99125e-08
1.76637e-09
9.64524e-08
-5.57566e-09
8.85608e-08
-9.31322e-09
7.55748e-08
-1.88346e-08
5.8767e-08
4.72562e-08
-2.60825e-08
-8.92795e-08
8.06959e-08
1.17283e-07
-6.29827e-08
8.15476e-08
-6.06516e-08
8.56403e-08
-7.77668e-08
1.00493e-07
-9.88192e-08
1.10965e-07
-1.12103e-07
1.09736e-07
-1.07872e-07
8.43304e-08
-9.39861e-08
6.16891e-08
-7.67399e-08
4.1521e-08
4.42016e-08
-7.36853e-08
-1.38334e-07
5.79738e-08
1.61056e-07
-1.2775e-07
7.09632e-08
-1.46569e-07
1.0446e-07
-1.93649e-07
1.47574e-07
-2.30328e-07
1.47644e-07
-2.31584e-07
1.10992e-07
-2.01497e-07
5.42434e-08
-1.60313e-07
2.05055e-08
-1.21452e-07
2.66053e-09
1.17901e-08
-8.90403e-08
-1.70464e-07
3.51032e-08
1.93335e-07
-1.3428e-07
3.47791e-08
-1.04088e-07
7.42678e-08
-1.25548e-07
1.69034e-07
-1.56635e-07
1.7873e-07
-1.57938e-07
1.12296e-07
-1.37641e-07
3.3946e-08
-1.07722e-07
-9.4129e-09
-7.44727e-08
-3.05889e-08
-4.95586e-08
-1.3124e-08
-1.58863e-07
3.97337e-08
1.54233e-07
-1.43009e-07
1.89247e-08
-8.57675e-08
1.70259e-08
1.35762e-08
6.96908e-08
1.0549e-07
8.68168e-08
1.65971e-07
5.18155e-08
2.14015e-07
-1.40979e-08
2.6283e-07
-5.82279e-08
3.11017e-07
-7.87747e-08
-1.17261e-07
3.78718e-07
2.88385e-08
9.50171e-09
1.39515e-09
7.90761e-08
-3.13129e-08
1.63313e-07
-6.72111e-08
2.88575e-07
-5.55708e-08
4.27666e-07
-5.22749e-08
5.24231e-07
-4.47489e-08
5.78308e-07
-6.81753e-08
6.15695e-07
-9.56148e-08
6.57587e-07
-1.20666e-07
-1.5725e-07
6.97577e-07
2.60043e-07
-5.76134e-08
-1.92929e-07
3.40091e-07
-1.11361e-07
4.02557e-07
-1.29676e-07
4.77511e-07
-1.30525e-07
5.4794e-07
-1.22704e-07
6.06393e-07
-1.03201e-07
6.4216e-07
-1.03942e-07
6.66378e-07
-1.19833e-07
7.03177e-07
-1.57465e-07
-1.81625e-07
7.27552e-07
4.30816e-07
-1.1851e-07
-3.69919e-07
4.29279e-07
-1.09824e-07
4.46924e-07
-1.4732e-07
5.01509e-07
-1.8511e-07
5.48973e-07
-1.70168e-07
5.66487e-07
-1.20715e-07
5.79424e-07
-1.16879e-07
5.9323e-07
-1.33639e-07
6.13784e-07
-1.78019e-07
-2.13708e-07
6.45866e-07
2.92985e-09
-7.32897e-08
-4.81499e-08
-6.25395e-09
-1.00642e-07
1.4926e-08
-1.68501e-07
5.25929e-08
-2.22777e-07
9.73473e-08
-2.14922e-07
1.47284e-07
-1.70652e-07
1.96392e-07
-1.65988e-07
2.37406e-07
-1.74654e-07
2.34111e-07
-1.74724e-07
-1.7802e-07
1.98422e-07
-9.70929e-07
-2.05075e-07
1.10271e-06
-8.32021e-07
-2.3955e-07
-6.98601e-07
-3.0192e-07
-6.16888e-07
-3.04491e-07
-5.20602e-07
-3.11207e-07
-4.12067e-07
-2.79187e-07
-3.37142e-07
-2.40913e-07
-2.7689e-07
-2.34906e-07
-2.332e-07
-2.18414e-07
-1.86655e-07
-2.24564e-07
-8.75661e-07
-2.71304e-07
9.4189e-07
-8.10069e-07
-3.05143e-07
-7.85369e-07
-3.2662e-07
-7.56485e-07
-3.33376e-07
-7.32166e-07
-3.35528e-07
-6.8428e-07
-3.27073e-07
-6.15259e-07
-3.09934e-07
-5.59112e-07
-2.91053e-07
-5.17328e-07
-2.60199e-07
-2.29755e-07
-4.74228e-07
-8.76919e-07
-2.98564e-07
9.04179e-07
-8.53537e-07
-3.28525e-07
-8.36478e-07
-3.43678e-07
-8.12823e-07
-3.5703e-07
-7.77864e-07
-3.70486e-07
-7.35055e-07
-3.69882e-07
-6.89272e-07
-3.55717e-07
-6.4793e-07
-3.32395e-07
-6.02179e-07
-3.0595e-07
-2.82571e-07
-5.49364e-07
-8.80811e-07
-2.95409e-07
8.77656e-07
-8.61626e-07
-3.47712e-07
-8.48961e-07
-3.56343e-07
-8.36289e-07
-3.69702e-07
-8.1722e-07
-3.89555e-07
-7.92047e-07
-3.95056e-07
-7.55982e-07
-3.91781e-07
-7.1526e-07
-3.73117e-07
-6.75911e-07
-3.45299e-07
-3.15838e-07
-6.42644e-07
-7.25513e-07
-2.89387e-07
7.19491e-07
-7.75623e-07
-2.97603e-07
-7.82922e-07
-3.49043e-07
-7.79002e-07
-3.73622e-07
-7.69177e-07
-3.9938e-07
-7.54503e-07
-4.09729e-07
-7.32881e-07
-4.13403e-07
-7.06468e-07
-3.99531e-07
-6.79208e-07
-3.72558e-07
-3.39622e-07
-6.55424e-07
-5.07517e-07
-3.51275e-07
5.69405e-07
-4.73465e-07
-3.31655e-07
-5.26503e-07
-2.96004e-07
-5.97562e-07
-3.02564e-07
-6.34691e-07
-3.62251e-07
-6.46237e-07
-3.98183e-07
-6.45522e-07
-4.14118e-07
-6.3899e-07
-4.06063e-07
-6.24616e-07
-3.86933e-07
-3.54003e-07
-6.10235e-07
-4.38854e-07
-3.94964e-07
4.82543e-07
-4.05656e-07
-3.64852e-07
-3.68685e-07
-3.32975e-07
-3.60691e-07
-3.10559e-07
-4.10165e-07
-3.12777e-07
-4.82241e-07
-3.26108e-07
-5.2832e-07
-3.68039e-07
-5.57621e-07
-3.76762e-07
-5.65785e-07
-3.78769e-07
-3.53997e-07
-5.65791e-07
-2.79633e-07
-3.81255e-07
2.65925e-07
-2.80789e-07
-3.63695e-07
-2.68163e-07
-3.45601e-07
-2.43144e-07
-3.35578e-07
-2.25912e-07
-3.30009e-07
-2.3007e-07
-3.2195e-07
-3.0839e-07
-2.89719e-07
-4.13494e-07
-2.71658e-07
-4.87463e-07
-3.048e-07
-3.21459e-07
-5.20001e-07
-1.069e-07
-3.961e-07
1.21745e-07
-9.93921e-08
-3.71203e-07
-8.8911e-08
-3.56083e-07
-6.4891e-08
-3.59598e-07
-5.8073e-08
-3.36827e-07
-7.39829e-08
-3.0604e-07
-8.65588e-08
-2.77143e-07
-1.5049e-07
-2.07728e-07
-2.84758e-07
-1.70532e-07
-1.93904e-07
-4.12313e-07
-6.94698e-08
-4.24773e-07
9.81423e-08
-4.41572e-08
-3.96516e-07
-9.53288e-09
-3.90707e-07
2.64914e-08
-3.95623e-07
6.2787e-08
-3.73123e-07
1.00546e-07
-3.43798e-07
1.11937e-07
-2.88534e-07
1.00904e-07
-1.96695e-07
8.13292e-08
-1.50957e-07
-5.73055e-08
-5.52697e-08
-9.09142e-08
-4.45014e-07
1.11155e-07
-4.83956e-08
-4.39034e-07
7.79949e-09
-4.46902e-07
6.30196e-08
-4.50843e-07
1.10849e-07
-4.20952e-07
1.54626e-07
-3.87575e-07
2.04453e-07
-3.38361e-07
2.69059e-07
-2.613e-07
2.96609e-07
-1.78507e-07
-1.02845e-07
3.42149e-07
-1.10827e-07
-4.52541e-07
1.18354e-07
-7.83023e-08
-4.71559e-07
-2.13296e-08
-5.03875e-07
3.13891e-08
-5.03562e-07
9.2508e-08
-4.82071e-07
1.74523e-07
-4.6959e-07
2.84281e-07
-4.4812e-07
3.90338e-07
-3.67357e-07
3.61193e-07
-1.49362e-07
-7.60879e-08
3.34435e-07
-1.15147e-07
-4.35804e-07
9.84092e-08
-1.12041e-07
-4.74666e-07
-8.93231e-08
-5.26593e-07
-4.93086e-08
-5.43576e-07
-1.07847e-09
-5.30301e-07
4.19904e-08
-5.12659e-07
8.88252e-08
-4.94954e-07
1.55865e-07
-4.34397e-07
2.4882e-07
-2.42318e-07
-1.84522e-07
3.57253e-07
-1.10363e-07
-3.73556e-07
4.81151e-08
-1.43761e-07
-4.41269e-07
-1.38074e-07
-5.3228e-07
-1.10073e-07
-5.71577e-07
-6.81446e-08
-5.72228e-07
-4.98931e-08
-5.3091e-07
-6.03969e-08
-4.84451e-07
-8.10151e-08
-4.1378e-07
-1.40685e-08
-3.09268e-07
-3.60301e-07
1.61707e-07
-6.08138e-08
-2.7041e-07
-4.2332e-08
-1.81308e-07
-3.20773e-07
-1.95568e-07
-5.1802e-07
-1.49323e-07
-6.17822e-07
-9.28233e-08
-6.28728e-07
-6.60454e-08
-5.57688e-07
-6.55703e-08
-4.84926e-07
-9.62711e-08
-3.83079e-07
-1.20904e-07
-2.84633e-07
-3.31675e-07
-1.49528e-07
1.10878e-07
-1.764e-07
-2.04888e-07
-1.22332e-07
-8.75636e-08
-2.20748e-07
-4.19603e-07
-1.43553e-07
-6.95017e-07
-7.70333e-08
-6.95248e-07
-2.93618e-08
-6.0536e-07
-1.10692e-08
-5.03218e-07
-6.13958e-09
-3.88009e-07
-9.95792e-09
-2.80815e-07
-3.01668e-07
-3.99661e-08
3.51715e-07
-1.7976e-07
-3.48355e-07
3.12537e-07
-4.83891e-08
1.32938e-07
-2.40005e-07
4.55544e-08
-6.07632e-07
4.42116e-08
-6.93905e-07
6.58371e-08
-6.26985e-07
6.67898e-08
-5.04171e-07
5.48772e-08
-3.76096e-07
6.27982e-08
-2.88736e-07
-3.42476e-07
1.03606e-07
4.25943e-07
-2.087e-07
-3.97003e-07
5.43144e-07
-1.6559e-07
5.26733e-07
-2.23595e-07
3.78427e-07
-4.59326e-07
2.93835e-07
-6.09314e-07
2.64573e-07
-5.97724e-07
2.55253e-07
-4.94851e-07
2.47923e-07
-3.68766e-07
2.80324e-07
-3.21137e-07
-4.22937e-07
3.60784e-07
4.67855e-07
-2.31072e-07
-4.45482e-07
5.48048e-07
-2.45782e-07
6.05358e-07
-2.80904e-07
5.98753e-07
-4.52722e-07
5.52891e-07
-5.63451e-07
5.03462e-07
-5.48297e-07
4.84094e-07
-4.75483e-07
5.27474e-07
-4.12146e-07
6.45196e-07
-4.38859e-07
-5.98008e-07
8.20269e-07
5.04379e-07
-2.45478e-07
-4.89972e-07
5.44637e-07
-2.86041e-07
5.95917e-07
-3.32185e-07
6.14368e-07
-4.71174e-07
5.72838e-07
-5.21921e-07
5.35979e-07
-5.1144e-07
5.45691e-07
-4.85195e-07
6.32477e-07
-4.98933e-07
7.65238e-07
-5.7162e-07
-7.90084e-07
9.57314e-07
5.35595e-07
-2.51514e-07
-5.29558e-07
5.63278e-07
-3.13726e-07
6.02697e-07
-3.71603e-07
6.18918e-07
-4.87394e-07
6.19467e-07
-5.22467e-07
5.99669e-07
-4.91641e-07
6.05855e-07
-4.91381e-07
6.48411e-07
-5.41488e-07
7.8015e-07
-7.03359e-07
-8.74613e-07
8.64678e-07
5.98842e-07
-2.48889e-07
-6.01466e-07
5.97312e-07
-3.12195e-07
5.93668e-07
-3.67959e-07
5.85509e-07
-4.79236e-07
5.77293e-07
-5.14252e-07
5.83382e-07
-4.97732e-07
6.13338e-07
-5.21338e-07
6.86506e-07
-6.14655e-07
7.8763e-07
-8.04483e-07
-9.22933e-07
8.3595e-07
6.08215e-07
-2.40964e-07
-6.1614e-07
5.69955e-07
-2.73932e-07
5.52168e-07
-3.50169e-07
5.34006e-07
-4.6107e-07
4.83106e-07
-4.63351e-07
4.94971e-07
-5.09596e-07
5.68171e-07
-5.94538e-07
7.10225e-07
-7.5671e-07
7.77978e-07
-8.72235e-07
-8.97465e-07
7.52509e-07
5.4833e-07
-2.03149e-07
-5.86145e-07
4.57748e-07
-1.8335e-07
4.41692e-07
-3.34113e-07
3.86381e-07
-4.05758e-07
3.54281e-07
-4.31251e-07
4.20474e-07
-5.75789e-07
5.98805e-07
-7.72869e-07
7.19903e-07
-8.77808e-07
7.39241e-07
-8.91574e-07
-7.8648e-07
6.28257e-07
4.82836e-07
-1.55691e-07
-5.30294e-07
4.68821e-07
-1.69335e-07
4.33267e-07
-2.98558e-07
3.19283e-07
-2.91772e-07
3.44203e-07
-4.5617e-07
5.33278e-07
-7.64863e-07
6.70527e-07
-9.10118e-07
7.0104e-07
-9.08321e-07
6.3127e-07
-8.21803e-07
-4.97722e-07
3.42512e-07
3.59594e-07
-2.23216e-09
-5.13052e-07
1.54433e-07
3.5825e-08
9.27605e-08
-2.36886e-07
1.82203e-07
-3.81216e-07
3.94859e-07
-6.68825e-07
6.00302e-07
-9.70306e-07
6.66404e-07
-9.76221e-07
6.47701e-07
-8.89617e-07
3.35407e-07
-5.09511e-07
-1.67372e-07
5.05653e-09
-1.08257e-07
1.97849e-07
-9.18249e-08
-3.19382e-08
-4.04955e-08
8.05328e-08
-3.49356e-07
1.82094e-07
-4.82777e-07
4.41038e-07
-9.27769e-07
5.25377e-07
-1.05465e-06
4.89513e-07
-9.40356e-07
1.83964e-07
-5.84068e-07
-1.5131e-07
-1.74237e-07
-1.16653e-07
-2.0203e-07
-2.27502e-07
2.98237e-07
1.27115e-07
-2.25887e-08
-2.45411e-07
-4.35857e-09
-3.67587e-07
1.97418e-07
-6.84554e-07
3.43996e-07
-1.07435e-06
3.54054e-07
-1.0647e-06
2.34127e-07
-8.20429e-07
-2.74983e-08
-3.22443e-07
-1.73624e-07
-2.81121e-08
-1.16645e-07
-1.73633e-07
-6.41411e-08
3.29404e-07
3.2974e-08
-5.47328e-08
-2.5482e-07
-8.75389e-08
-3.34781e-07
1.33839e-07
-9.05932e-07
2.17302e-07
-1.15781e-06
2.37933e-07
-1.08534e-06
8.81036e-08
-6.70599e-07
-7.28476e-08
-1.61492e-07
-1.67799e-07
6.68392e-08
-1.33149e-07
-1.51297e-07
6.20929e-11
1.52758e-07
1.76583e-07
-5.40418e-08
-2.00716e-07
-6.98388e-08
-3.18984e-07
4.71703e-08
-1.02294e-06
1.13306e-07
-1.22395e-06
1.68931e-07
-1.14096e-06
6.55686e-08
-5.67237e-07
2.81903e-08
-1.24115e-07
9.54474e-09
8.54845e-08
-9.23444e-08
-3.12597e-08
1.5754e-07
-3.33309e-08
2.85471e-08
4.35389e-08
-8.67155e-08
-5.489e-09
-2.69956e-07
3.32233e-08
-1.06165e-06
4.30786e-08
-1.2338e-06
2.80191e-08
-1.1259e-06
-1.87681e-07
-3.51536e-07
-1.81878e-07
-1.29919e-07
-7.83507e-08
-1.80438e-08
-1.36918e-07
-3.37774e-08
1.03531e-07
-7.07372e-09
-1.29788e-07
5.26916e-08
-3.58772e-08
1.58678e-09
-2.18851e-07
1.05283e-08
-1.0706e-06
6.26401e-09
-1.22954e-06
7.6078e-09
-1.12725e-06
-1.54088e-07
-1.89841e-07
-1.92167e-07
-9.18397e-08
-6.53555e-08
-1.44855e-07
-2.08046e-07
5.77255e-09
1.86235e-07
2.68074e-08
-2.20117e-07
1.18209e-07
3.21494e-08
-2.8532e-08
-7.21105e-08
-9.94359e-08
-9.99692e-07
-7.87943e-08
-1.25018e-06
-6.10114e-08
-1.14503e-06
-9.8163e-08
-1.52689e-07
-3.50515e-08
-1.54951e-07
6.73953e-08
-2.47302e-07
-2.34544e-07
9.3894e-08
2.48149e-07
6.52049e-08
-2.86546e-07
1.80776e-07
9.95212e-08
6.52567e-08
4.34087e-08
-8.83603e-08
-8.46076e-07
-9.9551e-08
-1.23899e-06
-5.58417e-08
-1.18874e-06
1.94198e-08
-2.2795e-07
4.57451e-08
-1.81277e-07
7.93175e-08
-2.80874e-07
-2.38283e-07
8.30568e-08
3.4739e-07
1.11504e-07
-3.93689e-07
2.46571e-07
2.00341e-07
1.1471e-07
1.7527e-07
-1.10103e-07
-6.21264e-07
-1.2766e-07
-1.22143e-06
-1.08279e-07
-1.20812e-06
2.40291e-07
-5.76521e-07
2.43977e-07
-1.84963e-07
1.97806e-07
-2.34704e-07
-1.63938e-07
1.23465e-07
3.13221e-07
1.83061e-07
-3.84778e-07
2.50571e-07
2.62991e-07
2.27712e-07
1.98129e-07
-4.92659e-09
-3.88626e-07
-4.01326e-08
-1.18622e-06
-5.26066e-08
-1.19564e-06
4.10705e-07
-1.03983e-06
5.10359e-07
-2.84615e-07
4.82457e-07
-2.06802e-07
-2.1092e-07
5.29437e-07
8.81818e-08
2.22958e-07
-1.28079e-07
9.62172e-08
2.54956e-07
1.39502e-07
1.54844e-07
1.53638e-08
-2.64487e-07
1.77104e-09
-1.17263e-06
-2.52062e-08
-1.16867e-06
3.30599e-08
-1.0981e-06
3.76459e-08
-2.892e-07
6.02189e-08
-2.29377e-07
-2.57335e-07
1.06636e-07
3.43164e-08
2.10959e-07
-2.23181e-08
1.27302e-07
1.61971e-07
1.43998e-07
1.38148e-07
4.78373e-08
-1.68327e-07
1.02486e-08
-1.13504e-06
-8.24032e-09
-1.15018e-06
-3.48165e-08
-1.07152e-06
-1.47053e-07
-1.76963e-07
-1.97614e-08
-3.5667e-07
-3.8973e-07
1.12639e-07
-6.99745e-08
2.7408e-07
6.85323e-09
-5.66673e-08
1.48664e-07
-2.08675e-07
2.90155e-07
1.72104e-08
-3.94209e-07
7.15001e-09
-1.12498e-06
-3.0983e-08
-1.11205e-06
-4.53038e-09
-1.09797e-06
-8.51361e-08
-9.63597e-08
-1.17226e-07
-3.24586e-07
-4.04839e-07
-1.02112e-07
-9.68939e-08
1.37972e-07
2.33003e-07
-1.14461e-07
1.66226e-07
-3.86116e-07
5.6181e-07
4.11677e-08
-8.21494e-07
1.59869e-08
-1.0998e-06
9.9243e-09
-1.10598e-06
8.53746e-09
-1.09659e-06
-1.30065e-07
4.22418e-08
-3.97753e-07
-5.68964e-08
-2.64592e-07
-5.37998e-07
-1.93126e-07
1.30525e-07
2.00572e-07
-2.55028e-07
2.28128e-07
-2.10291e-07
5.17073e-07
3.07173e-08
-1.0625e-06
1.36142e-08
-1.0827e-06
-2.77623e-09
-1.08959e-06
-1.47869e-08
-1.08458e-06
-6.01328e-09
3.3469e-08
-2.1725e-07
1.54342e-07
4.97562e-09
-4.86818e-07
9.33272e-08
2.46769e-08
1.25214e-08
1.1612e-07
2.05334e-07
1.51618e-08
6.18032e-07
8.61776e-09
-1.05596e-06
4.12402e-09
-1.07821e-06
-7.25528e-09
-1.07821e-06
1.62456e-08
-1.10808e-06
1.80305e-07
-1.3059e-07
-6.81743e-09
3.41464e-07
1.49762e-07
-1.51605e-07
1.10921e-07
5.51129e-08
-1.41357e-07
-3.79683e-08
3.54222e-07
1.0236e-08
5.69826e-07
2.05221e-08
-1.06625e-06
4.21022e-09
-1.06189e-06
-1.4302e-08
-1.0597e-06
-4.44622e-08
-1.07792e-06
1.26942e-07
-3.02e-07
-5.58841e-08
5.2429e-07
1.9019e-07
-9.63143e-08
-4.22205e-07
1.61489e-08
4.61169e-07
-2.75582e-07
2.07594e-07
2.39854e-08
2.70254e-07
1.78712e-08
-1.06013e-06
-3.04788e-10
-1.04372e-06
-1.44e-08
-1.04561e-06
-3.46583e-08
-1.05766e-06
2.29343e-07
-5.66e-07
3.5918e-07
3.94453e-07
3.18125e-07
2.31244e-07
-8.50454e-07
-4.60528e-08
9.12654e-07
-5.85842e-07
-5.70178e-08
3.47974e-08
-3.50389e-07
1.77648e-08
-1.0431e-06
9.80471e-10
-1.02693e-06
-1.91632e-08
-1.02546e-06
-3.37484e-08
-1.04307e-06
5.16269e-08
-6.51376e-07
2.83208e-07
1.62869e-07
2.52724e-07
3.48614e-07
-3.40533e-07
-1.33576e-08
3.07837e-07
-2.6093e-07
-1.36634e-07
3.55261e-08
-6.46849e-07
1.7932e-08
-1.02551e-06
-1.242e-09
-1.00776e-06
-1.91782e-08
-1.00753e-06
-3.62972e-08
-1.02595e-06
-4.73391e-08
-6.40332e-07
1.26546e-07
-1.10154e-08
1.58437e-07
2.2083e-07
-1.18074e-08
-3.21082e-08
3.05558e-08
2.93464e-09
-1.51383e-07
3.71348e-08
-6.81047e-07
2.11003e-08
-1.00947e-06
2.38604e-09
-9.89045e-07
-1.67325e-08
-9.88408e-07
-3.5066e-08
-1.00762e-06
-3.25745e-08
-6.42822e-07
1.02319e-08
-5.38137e-08
9.61131e-08
7.25552e-08
4.17908e-08
-2.51714e-08
-4.8732e-08
3.98857e-08
-1.49482e-07
4.04313e-08
-6.81591e-07
2.10091e-08
-9.90049e-07
8.7255e-10
-9.68909e-07
-1.86687e-08
-9.68867e-07
-3.70049e-08
-9.89284e-07
-3.71582e-08
-6.42668e-07
-4.73252e-08
-4.36449e-08
6.779e-08
-1.90002e-08
4.79817e-08
-3.08753e-09
-7.00661e-08
3.91629e-08
-1.40657e-07
3.87233e-08
-6.81148e-07
1.88974e-08
-9.7022e-07
-1.44863e-09
-9.48563e-07
-2.30199e-08
-9.47295e-07
-4.27821e-08
-9.69522e-07
-4.87474e-08
-6.367e-07
-7.95116e-08
-1.28807e-08
6.6419e-08
-7.81392e-08
3.03418e-08
8.32564e-09
-4.1752e-08
4.02845e-08
-1.50603e-07
4.29324e-08
-6.83804e-07
2.39939e-08
-9.51287e-07
9.58035e-10
-9.25527e-07
-2.00739e-08
-9.26264e-07
-3.90204e-08
-9.50575e-07
-4.23482e-08
-6.33371e-07
-8.4216e-08
2.89897e-08
8.76425e-08
-1.05445e-07
2.62881e-08
-1.50516e-08
-2.91004e-09
3.60736e-08
-1.60369e-07
3.94116e-08
-6.87129e-07
1.92382e-08
-9.31108e-07
-1.10292e-09
-9.05186e-07
-2.20181e-08
-9.05348e-07
-4.2421e-08
-9.30172e-07
-4.15735e-08
-6.34214e-07
-6.20101e-08
4.94309e-08
1.24468e-07
-9.88399e-08
3.23975e-08
-4.76298e-08
1.78705e-10
5.51734e-08
-1.8316e-07
4.43356e-08
-6.76308e-07
2.32835e-08
-9.10065e-07
6.13119e-10
-8.82515e-07
-2.24019e-08
-8.82333e-07
-4.34489e-08
-9.09125e-07
-4.27373e-08
-6.34924e-07
-4.01787e-08
4.68724e-08
1.50528e-07
-6.62385e-08
7.42727e-08
-1.06182e-07
-1.57184e-08
7.96563e-08
-1.88524e-07
4.67652e-08
-6.43395e-07
2.41952e-08
-8.87486e-07
3.70643e-09
-8.62026e-07
-1.64279e-08
-8.62199e-07
-3.7944e-08
-8.87609e-07
-4.83195e-08
-6.24552e-07
-6.84719e-08
6.70232e-08
1.8561e-07
-1.03551e-07
4.09251e-08
-1.32552e-07
-1.45586e-08
7.0308e-08
-2.17943e-07
5.22941e-08
-6.25399e-07
2.92079e-08
-8.644e-07
4.99835e-09
-8.37817e-07
-1.75189e-08
-8.39682e-07
-3.98193e-08
-8.65309e-07
-5.71098e-08
-6.0726e-07
-1.0279e-07
1.12704e-07
1.93471e-07
-1.1065e-07
5.48448e-08
-2.05359e-07
1.79641e-08
4.91665e-08
-2.12243e-07
4.63799e-08
-6.22601e-07
2.34258e-08
-8.41444e-07
2.85309e-09
-8.17244e-07
-1.69642e-08
-8.19864e-07
-4.06209e-08
-8.41652e-07
-4.9334e-08
-5.98543e-07
-9.362e-08
1.56993e-07
2.12566e-07
-1.12711e-07
8.49686e-08
-2.5286e-07
-3.74654e-08
4.19239e-08
-1.69185e-07
4.57406e-08
-6.26412e-07
2.16693e-08
-8.17369e-07
-2.04011e-09
-7.93535e-07
-2.60501e-08
-7.95854e-07
-4.92628e-08
-8.18439e-07
-4.88509e-08
-5.98953e-07
-6.21009e-08
1.70244e-07
2.38092e-07
-8.76235e-08
2.665e-08
-1.74897e-07
-1.04607e-07
2.39021e-08
-1.66437e-07
4.1058e-08
-6.43572e-07
1.56423e-08
-7.91954e-07
-4.51178e-09
-7.73381e-07
-2.65399e-08
-7.73826e-07
-5.11339e-08
-7.93846e-07
-4.41509e-08
-6.05934e-07
-7.01389e-09
1.3311e-07
2.54423e-07
-2.3343e-08
4.64151e-08
-1.15673e-07
-1.05637e-07
5.60949e-08
-1.76105e-07
4.44056e-08
-6.31885e-07
1.97771e-08
-7.6733e-07
-5.02046e-09
-7.48583e-07
-3.05344e-08
-7.48312e-07
-5.52551e-08
-7.69125e-07
-5.20783e-08
-6.0911e-07
3.13328e-10
8.07223e-08
2.3539e-07
1.93465e-08
9.09106e-08
-8.28121e-08
-1.23773e-07
7.46612e-08
-1.59845e-07
5.10458e-08
-6.08263e-07
2.46258e-08
-7.40907e-07
9.22488e-10
-7.2488e-07
-2.16959e-08
-7.25694e-07
-4.73993e-08
-7.43421e-07
-6.21647e-08
-5.94346e-07
-3.9009e-08
5.75674e-08
2.01765e-07
-5.38579e-09
8.39802e-08
-6.1828e-08
-1.04968e-07
7.96902e-08
-1.55572e-07
6.2715e-08
-5.91302e-07
3.69186e-08
-7.15114e-07
7.34106e-09
-6.95302e-07
-1.81798e-08
-7.00173e-07
-4.46441e-08
-7.16957e-07
-6.77926e-08
-5.71199e-07
-6.69629e-08
5.67369e-08
1.78174e-07
-4.33754e-08
9.60461e-08
-5.49958e-08
-1.02878e-07
8.47071e-08
-1.44221e-07
5.46693e-08
-5.6126e-07
2.66881e-08
-6.87134e-07
9.45558e-10
-6.6956e-07
-2.54885e-08
-6.73739e-07
-5.3879e-08
-6.88567e-07
-7.15436e-08
-5.53534e-07
-6.216e-08
4.73519e-08
1.62279e-07
-4.62674e-08
1.0113e-07
-9.6337e-08
-5.97902e-08
8.97443e-08
-1.32842e-07
4.90201e-08
-5.20529e-07
2.14017e-08
-6.59511e-07
-4.04691e-09
-6.44111e-07
-4.19918e-08
-6.35794e-07
-7.08722e-08
-6.59686e-07
-8.194e-08
-5.42466e-07
-5.01288e-08
1.55398e-08
1.41215e-07
-2.90668e-08
7.8848e-09
-1.09209e-07
4.98703e-09
7.27626e-08
-1.97736e-07
6.74216e-08
-5.15201e-07
3.64072e-08
-6.28499e-07
5.77493e-09
-6.13479e-07
-2.05804e-08
-6.09439e-07
-5.38568e-08
-6.2641e-07
-7.31774e-08
-5.23147e-07
-2.89591e-08
-2.86814e-08
1.1044e-07
1.81422e-09
1.42138e-08
-1.18105e-07
-5.31449e-09
5.59895e-08
-2.39485e-07
5.89373e-08
-5.18132e-07
2.62434e-08
-5.95804e-07
-9.08657e-09
-5.78149e-07
-3.262e-08
-5.85905e-07
-6.88045e-08
-5.90225e-07
-6.97262e-08
-5.22226e-07
-2.13524e-08
-7.70567e-08
7.84082e-08
1.06767e-08
9.36835e-09
-1.18437e-07
-9.03715e-09
3.41696e-08
-2.643e-07
5.46998e-08
-5.3867e-07
2.10537e-08
-5.62158e-07
8.1415e-09
-5.65237e-07
-2.88528e-08
-5.48911e-07
-5.85438e-08
-5.60534e-07
-3.19204e-08
-5.4885e-07
-6.68035e-09
-1.02297e-07
6.83317e-08
3.39466e-09
9.73706e-08
-1.35227e-07
-8.05769e-08
1.10321e-07
-2.77231e-07
1.11846e-07
-5.40193e-07
8.45288e-08
-5.3484e-07
4.33417e-08
-5.2405e-07
1.83541e-08
-5.23923e-07
-1.99233e-08
-5.22257e-07
-4.54073e-08
-5.23366e-07
-3.29901e-08
-1.14715e-07
7.46747e-08
-3.93332e-08
1.02273e-07
-1.56833e-07
-8.06647e-08
1.20868e-07
-2.95843e-07
6.34068e-08
-4.82733e-07
1.82398e-08
-4.89673e-07
-1.62301e-08
-4.8958e-07
-4.75289e-08
-4.92625e-07
-8.39319e-08
-4.85854e-07
-1.24733e-07
-4.82565e-07
-9.25621e-08
-1.46888e-07
7.02619e-08
-8.81488e-08
1.46904e-07
-1.6235e-07
-1.41385e-07
1.35569e-07
-2.84491e-07
8.87086e-08
-4.35869e-07
4.95036e-08
-4.50469e-07
8.47382e-09
-4.4855e-07
-3.30783e-08
-4.51073e-07
-7.029e-08
-4.48642e-07
-1.14232e-07
-4.38623e-07
-1.00939e-07
-1.60182e-07
6.26128e-08
-9.32902e-08
1.17397e-07
-1.69407e-07
-1.10342e-07
1.05005e-07
-2.72097e-07
5.92268e-08
-3.90097e-07
1.30306e-08
-4.04272e-07
-2.60905e-08
-4.09429e-07
-6.80481e-08
-4.09115e-07
-1.16985e-07
-3.99706e-07
-1.70345e-07
-3.85263e-07
-1.37844e-07
-1.92683e-07
2.69903e-08
-1.02222e-07
6.59015e-08
-1.59179e-07
-7.61288e-08
1.31508e-07
-3.37661e-07
8.47595e-08
-3.43349e-07
3.55343e-08
-3.55047e-07
-1.17042e-08
-3.6219e-07
-5.69027e-08
-3.63916e-07
-9.59202e-08
-3.60688e-07
-1.38781e-07
-3.42402e-07
-7.60748e-08
-2.55388e-07
-1.96252e-08
-2.94595e-08
1.99906e-07
-1.64299e-07
-1.94784e-07
1.42083e-07
-2.79828e-07
9.74354e-08
-2.98701e-07
5.63074e-08
-3.13919e-07
8.10943e-09
-3.13992e-07
-4.33566e-08
-3.1245e-07
-9.66374e-08
-3.07407e-07
-1.42402e-07
-2.96638e-07
-1.16491e-07
-2.81299e-07
-6.53822e-08
-7.07346e-08
1.82328e-07
-2.46995e-07
-9.96304e-08
1.23746e-07
-2.21245e-07