/*--------------------------------*- C++ -*----------------------------------*\
  =========                 |
  \\      /  F ield         | OpenFOAM: The Open Source CFD Toolbox
   \\    /   O peration     | Website:  https://openfoam.org
    \\  /    A nd           | Version:  8
     \\/     M anipulation  |
\*---------------------------------------------------------------------------*/
FoamFile
{
    version     2.0;
    format      ascii;
    class       volScalarField;
    location    "3.95";
    object      alpha.water;
}
// * * * * * * * * * * * * * * * * * * * * * * * * * * * * * * * * * * * * * //

dimensions      [0 0 0 0 0 0 0];

internalField   nonuniform List<scalar> 
9150
(
1
1
1
1
1
1
1
1
1
1
1
1
1
1
1
1
1
1
1
1
1
1
1
1
1
1
1
1
1
1
1
1
1
1
1
1
1
1
1
1
1
1
1
1
1
1
1
1
1
1
1
1
1
1
1
1
1
1
1
1
1
1
1
1
1
1
1
1
1
1
1
1
1
1
1
1
1
1
1
1
1
1
1
1
1
1
1
1
1
1
1
1
1
1
1
1
1
1
1
1
1
1
1
1
1
1
1
1
1
1
1
1
1
1
1
1
1
1
1
1
1
1
1
1
1
1
1
1
1
1
1
1
1
1
1
1
1
1
1
1
1
1
1
1
1
1
1
1
1
1
0.985629
0.985633
0.985757
0.985754
0.903339
0.851746
0.851417
0.893808
0.983495
0.983489
0.985634
0.985788
0.985835
0.908089
0.852344
0.851771
0.951636
0.983502
0.9835
0.98349
0.98561
0.983104
0.88854
0.842962
0.983411
0.98351
0.983511
0.983516
0.983308
0.983204
0.976213
0.732498
0.606198
0.74062
0.98351
0.983512
0.983516
0.983538
0.983564
0.983343
0.753386
0.606198
0.605549
0.605493
0.636899
0.918223
0.983534
0.983568
0.983616
0.983597
0.98365
0.815471
0.60547
0.605264
0.604954
0.605053
0.606688
0.811355
0.983632
0.983626
0.985592
0.985298
0.880697
0.614615
0.604929
0.604935
0.60497
0.605302
0.619237
0.912132
0.985602
0.985561
0.983562
0.748513
0.604928
0.604929
0.604935
0.60497
0.605283
0.731366
0.985587
0.985411
0.902604
0.604929
0.604929
0.604928
0.604933
0.605006
0.624292
0.939435
0.854299
0.640666
0.605033
0.604936
0.604928
0.604933
0.605015
0.627142
0.943879
0.983559
0.608678
0.614662
0.673538
0.605033
0.604936
0.60504
0.743831
0.983531
0.983534
0.983542
0.604432
0.818727
0.970457
0.783386
0.605314
0.789511
0.983491
0.983527
0.983531
0.983534
0.67021
0.970457
0.971074
0.967602
0.933007
0.975324
0.983477
0.983495
0.983527
0.983487
0.539994
0.849531
0.970955
0.971074
0.970945
0.913508
0.683405
0.653155
0.846954
0.868253
0.539337
0.540768
0.673447
0.720214
0.670273
0.583621
0.541146
0.541136
0.542195
0.544224
0.539337
0.539329
0.539632
0.541476
0.541392
0.541146
0.541138
0.541146
0.697268
0.957044
0.539333
0.58145
0.600658
0.627391
0.635943
0.667686
0.768115
0.938845
0.948688
0.951744
0.842568
0.845625
0.845846
0.845824
0.845824
0.834374
0.806495
0.714756
0.602907
0.612955
0.891773
0.80117
0.713329
0.595951
0.403556
0.202269
0.0669898
0.0639834
0.074091
0.0541161
0.729791
0.277299
0.0580959
0.0561635
0.0552364
0.0544054
0.0537107
0.0533257
0.0531809
0.0531392
0.484657
0.311712
0.0806093
0.0580961
0.0672708
0.0599893
0.0542877
0.0537084
0.0533168
0.0531753
0.0804115
0.0804209
0.0794691
0.250592
0.630404
0.603743
0.386725
0.257915
0.287203
0.28
0.0804218
0.080412
0.0807979
0.217406
0.85941
0.975729
0.959307
0.93966
0.958073
0.968929
0.0832982
0.0807995
0.0855905
0.544241
0.971328
0.982039
0.983138
0.983218
0.983246
0.983249
0.634575
0.43663
0.624444
0.954095
0.981858
0.983149
0.983104
0.983201
0.983236
0.983247
0.972756
0.97278
0.97278
0.974225
0.976046
0.981365
0.982986
0.983104
0.983201
0.983236
0.97213
0.972756
0.97278
0.941552
0.855218
0.814852
0.838201
0.926011
0.960238
0.960885
0.934454
0.888948
0.759591
0.432491
0.144647
0.120801
0.189285
0.467791
0.489304
0.251966
0.613285
0.316799
0.0675509
0.0654903
0.064627
0.0716837
0.072578
0.0742873
0.0993379
0.102146
0.521912
0.396057
0.11429
0.0663556
0.0638385
0.0801657
0.103512
0.0995288
0.109745
0.122583
0.819707
0.794007
0.200348
0.0637792
0.0635195
0.0869119
0.337872
0.441756
0.546969
0.440771
0.658981
0.466445
0.241016
0.0635194
0.0638112
0.264476
0.845135
0.959006
0.959602
0.956593
0.0656306
0.0643787
0.0641733
0.0638112
0.0634812
0.226229
0.606305
0.896703
0.961832
0.963558
0.0719658
0.0650331
0.0640167
0.0634812
0.0634812
0.0634812
0.0634968
0.306647
0.920801
0.967585
0.370016
0.399961
0.270654
0.100482
0.0634812
0.0634968
0.0638146
0.0643703
0.450321
0.968519
0.969846
0.966745
0.881185
0.454012
0.131222
0.0638146
0.0643703
0.069532
0.226145
0.892883
0.970654
0.967938
0.931898
0.573147
0.303406
0.209661
0.179628
0.143683
0.6146
0.968278
0.941998
0.942967
0.847209
0.461332
0.319469
0.480587
0.559832
0.564823
0.727729
0.968171
0.920101
0.920013
0.964924
0.730951
0.435747
0.42614
0.538611
0.686752
0.652979
0.879136
0.979144
0.946494
0.980181
0.980665
0.744757
0.438587
0.308756
0.666771
0.826399
0.54545
0.980217
0.980647
0.980667
0.980661
0.777816
0.729769
0.308756
0.435511
0.929418
0.440433
0.920076
0.971905
0.980655
0.980661
0.583774
0.722676
0.308756
0.67199
0.931271
0.959783
0.675026
0.878586
0.980468
0.980096
0.583482
0.703255
0.369678
0.941741
0.960974
0.960038
0.675712
0.798934
0.980287
0.980291
0.583311
0.810889
0.773789
0.961546
0.962018
0.962004
0.675712
0.869792
0.979358
0.979723
0.584182
0.811087
0.811006
0.738817
0.950306
0.962018
0.887651
0.978119
0.978234
0.926429
0.587058
0.81205
0.790201
0.145647
0.752719
0.961944
0.978179
0.978196
0.978119
0.629991
0.77657
0.812607
0.610059
0.0254284
0.453939
0.936067
0.978198
0.868428
0.728356
0.229164
0.784984
0.812607
0.445436
0.0130538
0.0734455
0.384473
0.950063
0.710032
0.206264
0.16113
0.754246
0.812607
0.317979
0.00349182
0.000542235
0.0106336
0.666346
0.635318
0.472146
0.161222
0.754972
0.812491
0.221039
0.000420516
2.16397e-05
3.15877e-05
0.0775198
0.0979667
0.165462
0.168158
0.780459
0.812082
0.0936024
1.42357e-05
1.39328e-05
1.43414e-05
0.0018666
0.00381102
0.00408142
0.0434982
0.784646
0.808392
0.0153341
1.39304e-05
1.39012e-05
1.45205e-05
0.00471616
0.00718161
0.0130361
0.0279034
0.717376
0.73946
0.00261019
1.39012e-05
1.39328e-05
0.000219476
0.000408729
0.00603209
0.0242083
0.0153027
0.626162
0.641792
0.000844489
1.39495e-05
1.40035e-05
1.40423e-05
0.000404121
0.000420115
0.0241588
0.000399536
0.563313
0.565094
1.58888e-05
1.62232e-05
1.40423e-05
1.41117e-05
0.000679407
0.000743358
0.00860899
0.000399536
0.530954
0.530282
1.58218e-05
7.22037e-05
0.000178584
2.86106e-05
0.000625956
0.000638384
0.0238981
0.000789396
0.524404
0.518284
1.74358e-05
0.00010209
0.000348726
0.000332894
0.000418603
0.00403932
0.0241742
0.000409965
0.542314
0.547249
2.37725e-05
5.26197e-05
0.000350416
0.000349146
0.000403626
0.00477259
0.015988
0.000406846
0.644436
0.653632
1.1207e-05
1.1207e-05
0.000186495
0.000254099
0.000409086
0.00598735
0.00345371
0.00104415
0.762926
0.767712
0.00107238
1.12069e-05
1.1207e-05
1.16617e-05
0.00595474
0.00590586
0.00064617
0.0276438
0.837032
0.839066
0.0292394
1.1207e-05
1.90868e-05
1.95505e-05
0.00590137
0.00151847
0.000214375
0.0842394
0.875153
0.876138
0.0833342
1.12071e-05
0.000245835
0.00028741
0.000776945
1.52418e-05
1.49416e-05
0.121893
0.88904
0.889218
0.121693
1.12091e-05
0.000355955
0.000355913
1.73054e-05
1.49416e-05
1.49416e-05
0.135388
0.891014
0.891014
0.135638
1.12279e-05
0.000269926
0.000355958
0.000188296
5.24947e-05
1.49308e-05
0.136129
0.890786
0.890994
0.136469
1.14044e-05
0.000102573
0.00035587
0.000223929
8.94669e-05
1.49416e-05
0.115103
0.884999
0.884307
0.114368
1.17623e-05
7.68652e-05
0.000354665
0.000183469
0.000130065
1.5085e-05
0.0811919
0.860627
0.859262
0.0805146
1.18073e-05
4.28215e-05
0.00026865
8.6733e-05
0.000489773
1.56757e-05
0.0558405
0.829352
0.830276
0.0563266
1.0819e-05
3.53913e-05
0.00018154
0.000146292
0.000522055
1.18543e-05
0.0437406
0.810915
0.811456
0.0430762
8.9546e-06
0.00015886
0.000311388
0.000772529
0.000520255
6.6156e-06
0.0392625
0.804694
0.805807
0.038988
7.7332e-06
0.000179554
0.000322599
0.000776126
0.000498888
4.28182e-06
0.0379433
0.803304
0.80475
0.0384369
7.1181e-06
0.000199553
0.000337312
0.000384364
0.000232839
4.26962e-06
0.0412359
0.812405
0.81319
0.0408009
6.79607e-06
0.000175925
0.000341261
4.12606e-06
0.000234813
4.24119e-06
0.0543759
0.837213
0.83627
0.0536324
6.66192e-06
5.36094e-05
0.000340945
4.4998e-06
0.000108903
4.17939e-06
0.0832105
0.869306
0.870518
0.0840571
6.54871e-06
6.66192e-06
0.00025968
4.14275e-06
6.47914e-06
4.17043e-06
0.120212
0.897223
0.897116
0.119641
6.47848e-06
1.10067e-05
3.19295e-05
4.18055e-06
4.17043e-06
4.17161e-06
0.15698
0.918263
0.918968
0.157797
6.34844e-06
6.00244e-05
2.43114e-05
3.29423e-05
4.31463e-06
4.17043e-06
0.186638
0.932382
0.932422
0.186325
5.74924e-06
0.000120882
0.00019179
0.000267977
6.77446e-06
4.17836e-06
0.207756
0.941573
0.941621
0.207637
5.07213e-06
0.000153188
0.000385545
0.000378565
9.30267e-06
4.23688e-06
0.218494
0.945772
0.945845
0.218444
4.71653e-06
7.28731e-05
0.00037466
0.000299019
7.23925e-06
4.34433e-06
0.224767
0.948331
0.948419
0.224692
4.5019e-06
5.43872e-05
9.79168e-05
0.000270703
3.0491e-05
4.42744e-06
0.226192
0.94954
0.94964
0.225946
4.40825e-06
8.50536e-06
2.47849e-06
0.000253604
8.56557e-05
4.63114e-06
0.232596
0.952825
0.953153
0.232265
4.2674e-06
4.15767e-06
2.4475e-06
0.000156598
0.000116597
5.15748e-06
0.243709
0.956744
0.95728
0.242953
4.40825e-06
1.26021e-05
1.3416e-05
0.000151583
0.000150383
5.87774e-06
0.282621
0.967056
0.968028
0.282061
4.61042e-06
0.000158463
3.89809e-05
0.000402456
0.000229848
6.78535e-06
0.321504
0.974681
0.975634
0.320662
5.50149e-06
0.000267719
0.00034966
0.00041513
0.000324996
8.36056e-06
0.376952
0.983198
0.983916
0.376109
7.6858e-06
0.00029056
0.000349592
0.000414833
0.000255737
1.0436e-05
0.420128
0.987328
0.987899
0.419577
9.92077e-06
0.000224199
0.000349678
0.000198666
2.87324e-05
1.20904e-05
0.474427
0.99131
0.991857
0.47412
1.13793e-05
0.000145787
0.000339523
2.42188e-05
1.95886e-05
1.26698e-05
0.519443
0.993701
0.994341
0.519125
1.27886e-05
0.000178946
0.000308524
9.46474e-05
2.0766e-05
7.17665e-06
0.590478
0.995688
0.996447
0.590045
1.46784e-05
0.000264682
0.000307034
2.03963e-06
3.46252e-07
3.46252e-07
0.656235
0.997234
0.998157
0.655309
1.36467e-05
4.38584e-05
0.000203803
3.46322e-07
3.46105e-07
3.46322e-07
0.745949
0.998038
0.999118
0.74966
3.00085e-06
2.97441e-06
5.02203e-06
6.27288e-07
3.46322e-07
0.0386316
0.809253
0.999377
0.999251
0.807959
0.0147432
2.97445e-06
2.97225e-06
4.38939e-07
1.82854e-07
0.157892
0.923891
0.999687
0.999341
0.821202
0.054779
2.97225e-06
2.97225e-06
2.27246e-12
5.95081e-10
0.262916
0.959893
0.999863
0.999774
0.9097
0.149688
2.9958e-06
2.97225e-06
1.33667e-12
5.29021e-08
0.452512
0.988688
0.999975
0.999917
0.978146
0.338748
4.022e-06
7.49035e-06
9.08699e-13
3.05928e-06
0.719149
0.99998
0.99998
0.999986
0.999808
0.588387
7.07557e-06
8.44549e-06
-8.92396e-14
0.185956
0.895293
0.999988
1
0.999996
0.999986
0.855903
0.0464588
3.29631e-06
-2.17145e-10
0.695891
0.999972
1
1
1
0.999996
0.990133
0.500754
4.95852e-08
0.394964
0.978596
1
1
1
1
1
1
0.9618
0.305388
0.983486
0.98348
0.983456
0.964886
0.934978
0.934971
0.93521
0.935091
0.935091
0.936348
0.972948
0.978394
0.979289
0.979304
0.979305
0.979305
0.971365
0.970316
0.970315
0.970318
0.970348
0.978357
0.979133
0.979133
0.956776
0.940598
0.967188
0.975285
0.975285
0.975285
0.975282
0.961468
0.923831
0.959163
0.97113
0.971281
0.971366
0.971437
0.946516
0.885158
0.983469
0.983467
0.983461
0.983251
0.979035
0.979607
0.98123
0.98123
0.979069
0.859352
0.762207
0.762424
0.85205
0.953158
0.979305
0.979305
0.979305
0.979274
0.978263
0.979113
0.979122
0.979129
0.979133
0.979129
0.910076
0.890329
0.890329
0.914609
0.975285
0.975285
0.975278
0.855069
0.771317
0.800389
0.907171
0.931187
0.95051
0.971511
0.956618
0.885158
0.983204
0.983204
0.983286
0.983584
0.983591
0.983485
0.950171
0.762648
0.761975
0.761963
0.761981
0.762279
0.783731
0.964099
0.979305
0.979305
0.979305
0.979302
0.979283
0.979187
0.979114
0.979122
0.979129
0.978895
0.968363
0.921417
0.913935
0.934869
0.975285
0.973705
0.865063
0.771317
0.771314
0.771314
0.771314
0.771385
0.858515
0.971472
0.971512
0.901196
0.983204
0.983208
0.983408
0.983623
0.983633
0.983606
0.86798
0.762629
0.761963
0.761981
0.903223
0.979306
0.979306
0.979306
0.979305
0.979305
0.979303
0.979284
0.971949
0.916341
0.866052
0.85554
0.902855
0.950306
0.957115
0.945921
0.968284
0.974835
0.975272
0.953757
0.864679
0.823937
0.78994
0.771357
0.794146
0.895224
0.971515
0.971547
0.956192
0.913034
0.983585
0.983556
0.983613
0.983614
0.983624
0.983614
0.983592
0.98179
0.902383
0.851541
0.979306
0.979306
0.979306
0.979305
0.979305
0.979295
0.978866
0.916855
0.728747
0.651137
0.651121
0.651158
0.654337
0.864207
0.713017
0.652457
0.652457
0.867188
0.974928
0.941186
0.834192
0.833335
0.94794
0.97198
0.971984
0.971968
0.971827
0.949958
0.89537
0.895239
0.983595
0.983594
0.983603
0.983613
0.983614
0.98359
0.983393
0.955316
0.908239
0.954892
0.979305
0.979306
0.979305
0.979304
0.979282
0.979142
0.836355
0.651072
0.651064
0.651072
0.651145
0.670559
0.854398
0.860548
0.655315
0.652357
0.795508
0.973557
0.974077
0.969909
0.966846
0.970567
0.971865
0.97198
0.970459
0.96447
0.964072
0.945316
0.90793
0.940313
0.983592
0.983591
0.983592
0.983602
0.983587
0.967723
0.92955
0.929525
0.931218
0.979282
0.979305
0.979305
0.979304
0.979299
0.979274
0.977512
0.770019
0.651067
0.651072
0.651264
0.787716
0.978214
0.978207
0.978134
0.974483
0.702876
0.480153
0.914962
0.973557
0.97329
0.971767
0.971665
0.971745
0.888279
0.601587
0.440176
0.545802
0.83066
0.971998
0.976992
0.983591
0.983588
0.983578
0.981376
0.962585
0.973493
0.980585
0.977526
0.936211
0.937734
0.97452
0.979268
0.979299
0.979273
0.97926
0.979166
0.954965
0.702781
0.651511
0.723781
0.978217
0.978217
0.978214
0.978173
0.977663
0.807148
0.446269
0.421173
0.726578
0.972647
0.950298
0.846509
0.612238
0.298971
0.165424
0.16545
0.164607
0.219539
0.750444
0.977002
0.983588
0.983579
0.983487
0.943939
0.934929
0.943387
0.980956
0.980956
0.980956
0.980895
0.934758
0.878164
0.947531
0.979255
0.979222
0.979193
0.979106
0.952279
0.815932
0.875016
0.978217
0.978217
0.978217
0.978216
0.978211
0.974904
0.678737
0.421209
0.418973
0.418746
0.404309
0.396165
0.284232
0.234406
0.227162
0.164607
0.164326
0.164396
0.543957
0.971761
0.983579
0.983559
0.983295
0.938215
0.934758
0.934667
0.947179
0.980956
0.980895
0.98081
0.938798
0.877914
0.877914
0.887741
0.978814
0.976329
0.977824
0.969757
0.967885
0.978199
0.978217
0.978217
0.978217
0.978217
0.978216
0.978202
0.977603
0.916713
0.764324
0.574461
0.543484
0.698642
0.856709
0.857064
0.835003
0.371622
0.164607
0.164342
0.65045
0.937674
0.983559
0.983525
0.983348
0.982765
0.959378
0.93484
0.934819
0.968911
0.98081
0.980708
0.980919
0.952701
0.877914
0.878681
0.879594
0.879757
0.939414
0.938874
0.959331
0.962783
0.974049
0.978217
0.978217
0.978217
0.978209
0.978205
0.978112
0.978007
0.977793
0.972955
0.976238
0.97691
0.976975
0.976976
0.976976
0.95605
0.458096
0.192296
0.843227
0.885412
0.983525
0.968646
0.933869
0.924997
0.940402
0.939143
0.937602
0.913639
0.963859
0.980919
0.981285
0.982643
0.983366
0.967853
0.916335
0.893864
0.894105
0.894393
0.95075
0.978201
0.978214
0.978217
0.965107
0.96538
0.967108
0.949236
0.963178
0.948813
0.897583
0.892802
0.89241
0.939521
0.976912
0.976976
0.976977
0.976976
0.736898
0.417401
0.863659
0.861751
0.983019
0.93571
0.698759
0.670837
0.699956
0.775005
0.76427
0.818602
0.876734
0.913766
0.925563
0.956833
0.98794
0.988328
0.988352
0.988345
0.987947
0.982177
0.794303
0.92427
0.977441
0.978214
0.902376
0.796158
0.796158
0.796158
0.80783
0.791316
0.786294
0.786285
0.786292
0.786285
0.909632
0.976952
0.976976
0.976969
0.755084
0.477446
0.85779
0.90994
0.907104
0.934571
0.767825
0.668125
0.667198
0.667198
0.667198
0.66765
0.724248
0.733041
0.759233
0.824785
0.898161
0.963461
0.988345
0.988385
0.988385
0.988385
0.795117
0.713122
0.838581
0.942968
0.886412
0.842609
0.867598
0.892528
0.856404
0.787962
0.786358
0.786294
0.786276
0.786292
0.863124
0.976909
0.976952
0.976926
0.577787
0.441517
0.864957
0.947616
0.697136
0.934742
0.957174
0.851373
0.7446
0.667198
0.696458
0.888307
0.978422
0.914661
0.799676
0.751131
0.751275
0.808357
0.918841
0.987106
0.988385
0.985517
0.864946
0.71224
0.71224
0.769375
0.926071
0.96157
0.97518
0.975181
0.97518
0.938296
0.881318
0.849078
0.786392
0.812525
0.958285
0.976919
0.976927
0.79017
0.261498
0.325741
0.80029
0.94767
0.957202
0.957243
0.957282
0.956692
0.955284
0.796931
0.94252
0.989592
0.989901
0.989985
0.990146
0.903922
0.770156
0.754998
0.755466
0.871192
0.979474
0.989267
0.99043
0.778501
0.71224
0.712959
0.863897
0.955419
0.975181
0.97518
0.975157
0.974545
0.972942
0.9703
0.930773
0.974859
0.976916
0.976919
0.97692
0.43154
0.179099
0.179122
0.562673
0.947226
0.957107
0.953281
0.897713
0.851714
0.813504
0.860961
0.940336
0.983113
0.989597
0.990065
0.990453
0.990505
0.99053
0.888776
0.762376
0.763609
0.867438
0.990178
0.990716
0.98453
0.950888
0.870066
0.886447
0.97216
0.975059
0.949675
0.870105
0.819247
0.807541
0.87258
0.955177
0.976632
0.976896
0.976916
0.976919
0.557883
0.179122
0.179099
0.398482
0.934248
0.610657
0.506466
0.25461
0.127869
0.161263
0.227421
0.340782
0.523471
0.743416
0.917133
0.987911
0.990507
0.990635
0.990644
0.990903
0.833907
0.863145
0.985065
0.99104
0.99106
0.991041
0.990893
0.972939
0.964302
0.959418
0.739254
0.30532
0.177611
0.182376
0.264441
0.508951
0.868173
0.976632
0.976896
0.976916
0.956611
0.281425
0.179122
0.373503
0.923977
0.0531397
0.0531551
0.0531712
0.0531705
0.053171
0.053171
0.053171
0.053171
0.053171
0.239231
0.612115
0.931513
0.990467
0.990903
0.991015
0.991064
0.991079
0.985004
0.991074
0.991072
0.990975
0.991116
0.991266
0.991295
0.991305
0.975771
0.419918
0.142191
0.140685
0.140574
0.140672
0.259532
0.818335
0.976581
0.976892
0.976645
0.812528
0.2079
0.380563
0.915308
0.05314
0.0531398
0.0531678
0.0531716
0.053171
0.053171
0.053171
0.053171
0.053171
0.053171
0.0531711
0.312273
0.893944
0.99033
0.991001
0.991079
0.991085
0.991077
0.991085
0.991079
0.990816
0.991148
0.9913
0.991311
0.991313
0.99131
0.99125
0.61523
0.146842
0.140685
0.140564
0.14083
0.358022
0.908335
0.976517
0.976625
0.97627
0.62145
0.447172
0.905388
0.05314
0.0531551
0.0531712
0.053171
0.0560683
0.0583497
0.0583815
0.0550702
0.053171
0.0531711
0.0531716
0.0561708
0.637264
0.98799
0.990688
0.991017
0.991079
0.991084
0.990544
0.98882
0.991091
0.991319
0.99131
0.991313
0.991313
0.991314
0.991314
0.991281
0.572288
0.144152
0.140978
0.140881
0.235884
0.766733
0.88815
0.975096
0.976227
0.70788
0.474945
0.902013
0.159735
0.0534419
0.0532179
0.0537398
0.0583429
0.0583832
0.0583832
0.0583832
0.0552714
0.0531888
0.0531824
0.105633
0.711432
0.987647
0.990414
0.990802
0.990484
0.988775
0.988755
0.988754
0.988754
0.990817
0.99131
0.991313
0.991314
0.991314
0.991314
0.991314
0.710131
0.15813
0.14444
0.156426
0.651623
0.863957
0.815611
0.884079
0.975705
0.749042
0.488319
0.902132
0.766995
0.168643
0.0546456
0.0540907
0.053807
0.0536836
0.0535777
0.0534981
0.0534754
0.0533371
0.0812563
0.637746
0.988578
0.990458
0.990723
0.99077
0.990777
0.990778
0.990778
0.990776
0.990763
0.990474
0.991279
0.991269
0.991313
0.991314
0.946283
0.457002
0.186471
0.17025
0.369351
0.898713
0.957801
0.90252
0.76853
0.845621
0.97103
0.835073
0.523575
0.935975
0.983247
0.757534
0.133315
0.0548402
0.0537603
0.0535785
0.0535184
0.0534907
0.053483
0.228348
0.857614
0.988785
0.990446
0.990717
0.99077
0.990776
0.990776
0.990777
0.990778
0.99077
0.990765
0.842853
0.567981
0.56799
0.571209
0.574936
0.617386
0.880984
0.957859
0.958492
0.958444
0.958536
0.958391
0.791392
0.768531
0.915827
0.963103
0.839491
0.759192
0.964609
0.983249
0.983247
0.983244
0.861499
0.221174
0.0537638
0.104698
0.592263
0.974227
0.981897
0.979442
0.941801
0.971651
0.990596
0.990738
0.99077
0.990776
0.990767
0.990749
0.932467
0.464057
0.433134
0.433134
0.823595
0.955809
0.956813
0.956976
0.957188
0.957072
0.948568
0.95765
0.907889
0.716282
0.716117
0.84634
0.930312
0.880529
0.46123
0.920751
0.965548
0.983247
0.983244
0.983078
0.981281
0.958167
0.947407
0.957931
0.979714
0.982051
0.981897
0.88225
0.882488
0.980316
0.9904
0.990562
0.990738
0.990038
0.931771
0.449583
0.408268
0.408358
0.449187
0.867071
0.953652
0.954926
0.956083
0.955406
0.925075
0.95679
0.640138
0.491701
0.54454
0.781138
0.873461
0.861455
0.668112
0.337592
0.252264
0.894946
0.965549
0.930951
0.797312
0.820184
0.933344
0.98169
0.982358
0.982632
0.982523
0.887534
0.682083
0.696029
0.910837
0.989098
0.989825
0.990392
0.924146
0.427661
0.395096
0.395096
0.424717
0.83378
0.954413
0.951476
0.951293
0.920784
0.898565
0.752644
0.203568
0.167002
0.537244
0.793439
0.908532
0.968544
0.96121
0.619227
0.236627
0.237506
0.245118
0.890423
0.965549
0.224759
0.319475
0.251129
0.205538
0.397462
0.89231
0.868414
0.431054
0.388857
0.624535
0.97526
0.988631
0.988772
0.952432
0.43664
0.400626
0.400755
0.477284
0.892856
0.955637
0.955637
0.955664
0.939168
0.833423
0.253371
0.0415217
0.0480043
0.0559885
0.561718
0.966698
0.977154
0.977107
0.975654
0.935161
0.396714
0.234018
0.235128
0.299702
0.957061
0.962925
0.120567
0.182512
0.188759
0.191917
0.371229
0.353182
0.194042
0.167356
0.526604
0.978444
0.981805
0.922848
0.469654
0.458153
0.494665
0.892814
0.920617
0.868964
0.913396
0.955016
0.955637
0.861685
0.217014
0.0412427
0.0411546
0.0411787
0.0415212
0.119496
0.822926
0.977154
0.977274
0.977255
0.977107
0.949517
0.436137
0.234018
0.234018
0.789462
0.978692
0.962948
0.15608
0.642249
0.641134
0.522903
0.104344
0.0910564
0.0910964
0.0916565
0.305571
0.892734
0.911603
0.727534
0.735423
0.889215
0.971444
0.970685
0.928126
0.769708
0.81812
0.953372
0.89975
0.296986
0.0412428
0.0411487
0.0411464
0.0411484
0.0411785
0.0750007
0.602702
0.972256
0.977255
0.977269
0.977255
0.976814
0.671367
0.248893
0.366042
0.903341
0.978723
0.967275
0.696665
0.696619
0.101982
0.091054
0.091054
0.0910542
0.0910554
0.0910706
0.105259
0.503019
0.723208
0.866035
0.973891
0.973796
0.973729
0.893232
0.753237
0.746161
0.910854
0.918594
0.885983
0.306841
0.0411487
0.0411464
0.0411461
0.0411462
0.0411484
0.0424884
0.143187
0.365642
0.651164
0.911801
0.976919
0.97688
0.957943
0.826394
0.865161
0.879883
0.974627
0.986486
0.405046
0.091054
0.091054
0.091054
0.091054
0.091053
0.0910522
0.0910506
0.0910355
0.0941942
0.290379
0.678794
0.974116
0.971511
0.917052
0.797884
0.739988
0.741742
0.874531
0.910864
0.909823
0.90555
0.524041
0.0411462
0.0411462
0.0411461
0.0411462
0.0411521
0.0414356
0.042146
0.0660956
0.188378
0.506127
0.854333
0.968344
0.982507
0.985696
0.965768
0.980904
0.986499
0.708055
0.0980303
0.091054
0.091054
0.091054
0.0910546
0.0910643
0.132768
0.340767
0.477713
0.617078
0.9725
0.974116
0.900197
0.866101
0.866101
0.734453
0.57962
0.678707
0.818501
0.652811
0.582128
0.581657
0.487751
0.25714
0.0416846
0.0411484
0.0411499
0.0411764
0.0412741
0.0413094
0.0413862
0.0448377
0.164287
0.472644
0.820353
0.985957
0.986406
0.986501
0.986499
0.947879
0.424204
0.0910541
0.0910541
0.0910561
0.148672
0.266666
0.624456
0.953581
0.978549
0.978515
0.978544
0.968472
0.922924
0.935759
0.773104
0.57962
0.57962
0.57962
0.57962
0.579628
0.579666
0.580653
0.658203
0.673164
0.281293
0.0411499
0.04115
0.0411528
0.0411825
0.0412117
0.0412215
0.0412388
0.0413273
0.0449844
0.127871
0.63989
0.964554
0.986499
0.986499
0.96906
0.910822
0.586354
0.54542
0.521664
0.651891
0.848407
0.97854
0.978504
0.978514
0.978546
0.978557
0.978559
0.978549
0.978379
0.875612
0.579637
0.57962
0.57962
0.579628
0.579666
0.611934
0.890639
0.973627
0.973305
0.876168
0.34805
0.0609516
0.0411825
0.0412003
0.0412003
0.0412117
0.0412215
0.0412388
0.0413273
0.0416332
0.083995
0.760311
0.986487
0.986504
0.968877
0.969071
0.907688
0.799124
0.967727
0.978472
0.978541
0.978569
0.978535
0.978545
0.978557
0.978559
0.978561
0.978562
0.978558
0.9785
0.873993
0.580586
0.579703
0.64094
0.962768
0.973664
0.973667
0.973665
0.973649
0.973479
0.927171
0.640072
0.33082
0.140245
0.0780298
0.0600373
0.0432893
0.0413273
0.0415641
0.0416509
0.0876206
0.772111
0.986495
0.986509
0.969061
0.924574
0.888642
0.973028
0.97848
0.978492
0.978496
0.97854
0.9785
0.9785
0.97855
0.978561
0.978562
0.978562
0.978562
0.978558
0.978499
0.959152
0.872493
0.887025
0.973664
0.973667
0.973667
0.973667
0.973666
0.973657
0.973565
0.972407
0.91697
0.806828
0.750427
0.71349
0.649616
0.575877
0.604264
0.463886
0.508177
0.912684
0.986509
0.98651
0.9551
0.885926
0.885926
0.964581
0.978483
0.978485
0.978491
0.978496
0.978494
0.967972
0.978512
0.978567
0.978561
0.978562
0.978558
0.97853
0.972543
0.95614
0.957501
0.965844
0.966777
0.972118
0.973667
0.973667
0.973667
0.973666
0.973657
0.973565
0.955387
0.914565
0.957291
0.962511
0.968932
0.968901
0.968845
0.965532
0.962345
0.986495
0.986509
0.986509
0.974388
0.891273
0.887287
0.928522
0.978479
0.978483
0.959216
0.611007
0.405329
0.442715
0.748781
0.891563
0.970514
0.97854
0.978529
0.978307
0.911407
0.802317
0.802317
0.802201
0.809286
0.964013
0.973667
0.973667
0.973666
0.973657
0.973565
0.880771
0.801785
0.801792
0.821671
0.942701
0.968932
0.968936
0.968901
0.968845
0.968647
0.907293
0.920564
0.955657
0.974304
0.974934
0.934607
0.960259
0.978423
0.978411
0.848645
0.218461
0.0426688
0.0426326
0.0426073
0.0434447
0.496898
0.856472
0.978307
0.977335
0.974522
0.841958
0.802263
0.802085
0.802085
0.802085
0.802389
0.803493
0.918506
0.973432
0.973223
0.943765
0.801792
0.801783
0.801792
0.801969
0.811906
0.884447
0.955318
0.968265
0.899839
0.843705
0.841946
0.841964
0.685396
0.9774
0.978056
0.978323
0.978355
0.978323
0.848618
0.173283
0.0426326
0.0426068
0.042606
0.0426051
0.0425996
0.0425983
0.560905
0.957979
0.978632
0.978643
0.978672
0.978346
0.870503
0.802333
0.802343
0.849255
0.82009
0.819968
0.820149
0.820481
0.909311
0.920316
0.90312
0.818065
0.805702
0.805644
0.806262
0.807964
0.837701
0.870684
0.841964
0.841946
0.577342
0.495898
0.645411
0.87815
0.937338
0.962799
0.946732
0.831559
0.367747
0.0426326
0.042605
0.0425996
0.0425983
0.0425983
0.0425983
0.487532
0.976298
0.978673
0.978676
0.978675
0.974332
0.961229
0.956063
0.977635
0.940242
0.90375
0.888183
0.876904
0.881309
0.925084
0.978468
0.972843
0.93883
0.910004
0.893085
0.905015
0.955608
0.977917
0.94512
0.918726
0.604051
0.376253
0.372841
0.384632
0.388996
0.394903
0.505214
0.829347
0.797785
0.380425
0.042916
0.0426241
0.0425996
0.0425983
0.0587238
0.700316
0.978622
0.978677
0.978679
0.978677
0.978676
0.978674
0.978701
0.978675
0.978671
0.97867
0.978669
0.978665
0.970137
0.971866
0.978502
0.978498
0.978485
0.97846
0.978427
0.978398
0.978398
0.978401
0.978394
0.978376
0.897376
0.44197
0.373604
0.374389
0.631146
0.751127
0.766885
0.767519
0.670503
0.555707
0.316743
0.248142
0.327428
0.563284
0.922472
0.978619
0.978677
0.978679
0.978679
0.978679
0.978678
0.978675
0.978674
0.978686
0.978674
0.978674
0.978674
0.978674
0.978665
0.97859
0.978508
0.978501
0.978498
0.978485
0.97846
0.978427
0.978405
0.978398
0.978399
0.978394
0.961944
0.899058
0.776677
0.835613
0.944898
0.910075
0.705962
0.704851
0.848448
0.927287
0.928377
0.934363
0.961354
0.976629
0.97804
0.978339
0.978137
0.978678
0.978679
0.978678
0.978675
0.978674
0.97871
0.978675
0.978674
0.978674
0.978674
0.978674
0.978674
0.978652
0.974609
0.964304
0.9503
0.936495
0.927007
0.921988
0.914679
0.908238
0.914531
0.92491
0.96187
0.96187
0.961402
0.960246
0.959701
0.959843
0.896538
0.849125
0.927381
0.912041
0.912201
0.955827
0.976403
0.976534
0.972628
0.945934
0.945938
0.968536
0.969295
0.951224
0.878022
0.842333
0.788169
0.755344
0.735638
0.737241
0.687633
0.615141
0.524673
0.428425
0.364992
0.30866
0.266029
0.235001
0.218283
0.209183
0.208106
0.218103
0.221839
0.225031
0.958859
0.960968
0.959388
0.959336
0.959843
0.95989
0.95989
0.95989
0.959824
0.959752
0.959637
0.876237
0.767006
0.825717
0.967885
0.96992
0.969877
0.967008
0.877093
0.633999
0.335408
0.198131
0.128399
0.0882536
0.063567
0.0581809
0.0424769
0.0248262
0.00854568
0.00123499
0.000509166
0.000493771
0.000393199
0.000580959
0.000815501
0.000754456
0.000590976
0.000252774
0.000257784
0.000171692
0.494094
0.609121
0.681575
0.760703
0.856472
0.945664
0.95989
0.959824
0.959754
0.959637
0.959417
0.863675
0.761551
0.759301
0.888679
0.947353
0.860536
0.63442
0.327987
0.0661271
0.0061592
0.00119782
0.00153734
0.00117012
0.000437299
0.000235301
0.00017554
8.21479e-05
5.34667e-05
0.00010516
0.000315202
0.000347267
0.000245699
0.000523998
0.000930235
0.000748016
0.000371399
0.00020361
0.000147797
8.54894e-05
0.012045
0.00616338
0.017143
0.0657429
0.174318
0.379776
0.639097
0.764915
0.813111
0.846862
0.876966
0.873964
0.793394
0.755407
0.783508
0.801877
0.802462
0.674655
0.224032
0.00366768
0.00125841
0.00020735
6.71639e-05
5.61886e-05
2.79792e-05
2.0134e-05
2.06005e-05
2.07188e-05
1.92778e-05
1.85833e-05
1.90221e-05
1.87411e-05
0.000120472
0.00100355
0.00132843
0.000721973
0.000683475
0.000747814
0.000237548
8.54894e-05
0.00015013
9.83338e-05
1.90118e-05
1.43988e-05
1.42643e-05
1.43988e-05
0.00325696
0.0491297
0.0908324
0.117439
0.151356
0.221541
0.274074
0.224384
0.0964986
0.000130148
0.000186111
0.000417169
0.00100124
0.00328512
0.00144263
3.64935e-05
2.18558e-05
1.96439e-05
1.84431e-05
1.82226e-05
1.82259e-05
1.82212e-05
1.81581e-05
1.81101e-05
1.81048e-05
1.81012e-05
1.95553e-05
0.000731748
0.00132941
0.00132938
0.0013294
0.00131155
0.00050617
0.000119326
1.49493e-05
1.52133e-05
1.44194e-05
1.42643e-05
1.42643e-05
1.42643e-05
1.4539e-05
1.65323e-05
2.1315e-05
2.67624e-05
3.86724e-05
5.91094e-05
8.32126e-05
9.72289e-05
9.8532e-05
0.00011897
0.000217815
0.000718573
0.000418297
0.000297932
0.000139217
1.97261e-05
1.8672e-05
1.82957e-05
1.81497e-05
1.81204e-05
1.81108e-05
1.81007e-05
1.80921e-05
1.80886e-05
1.80952e-05
1.81012e-05
1.81012e-05
0.000199167
0.0012193
0.00132942
0.00132938
0.0013048
0.000321272
0.000185912
1.45892e-05
1.51682e-05
0.000124684
0.000407547
0.000360668
7.55881e-05
0.000174825
0.000336516
0.000343904
0.00100362
0.00130948
0.00130054
0.000419178
9.8532e-05
0.000833309
0.0010374
0.000804442
0.000361249
0.000164557
7.62387e-05
1.97261e-05
1.8672e-05
1.82957e-05
1.81497e-05
1.81204e-05
1.81108e-05
1.81007e-05
1.80921e-05
1.80886e-05
1.80882e-05
2.0985e-05
2.44903e-05
1.83017e-05
1.84021e-05
7.24572e-05
0.000920737
0.00132922
0.00132642
0.000662501
9.29329e-05
0.00111961
0.00130835
0.00130763
0.00132105
0.00132105
0.000798308
0.00131128
0.0013156