/*--------------------------------*- C++ -*----------------------------------*\
  =========                 |
  \\      /  F ield         | OpenFOAM: The Open Source CFD Toolbox
   \\    /   O peration     | Website:  https://openfoam.org
    \\  /    A nd           | Version:  8
     \\/     M anipulation  |
\*---------------------------------------------------------------------------*/
FoamFile
{
    version     2.0;
    format      ascii;
    class       volScalarField;
    location    "3.95";
    object      p_rgh;
}
// * * * * * * * * * * * * * * * * * * * * * * * * * * * * * * * * * * * * * //

dimensions      [1 -1 -2 0 0 0 0];

internalField   nonuniform List<scalar> 
9150
(
1962.64
1961.62
1961.04
1960.56
1960.32
1960.33
1960.56
1961.05
1961.63
1962.64
1962.22
1961.69
1961.29
1960.96
1960.79
1960.78
1960.95
1961.29
1961.69
1962.23
1961.95
1961.65
1961.4
1961.18
1961.06
1961.07
1961.19
1961.41
1961.65
1961.95
1961.83
1961.64
1961.47
1961.31
1961.23
1961.23
1961.31
1961.48
1961.64
1961.83
1961.83
1961.63
1961.5
1961.37
1961.31
1961.31
1961.37
1961.5
1961.64
1961.83
1951.24
1950.11
1950.11
1950.69
1950.8
1950.82
1950.71
1950.21
1950.18
1951.31
1954.93
1954.24
1953.99
1953.92
1954.02
1954.03
1953.95
1954.04
1954.29
1954.98
1957.98
1957.23
1956.93
1956.58
1956.54
1956.55
1956.61
1956.96
1957.26
1958
1960.68
1959.56
1959.17
1958.52
1958.37
1958.38
1958.53
1959.19
1959.58
1960.69
1963.53
1961.32
1960.6
1959.84
1959.59
1959.6
1959.85
1960.61
1961.33
1963.54
1944.74
1944.17
1942.68
1941.76
1941.25
1941.25
1941.76
1942.94
1945.14
1946.95
1944.65
1944.65
1943.83
1943.61
1943.28
1943.41
1943.96
1944.43
1945.52
1945.72
1944.79
1944.94
1943.92
1944.47
1943.96
1944.17
1944.64
1944.36
1945.42
1945.41
1941.85
1944.55
1943.26
1945.1
1944.68
1944.84
1945.09
1943.56
1944.76
1942.13
1934.2
1945.04
1945.01
1946.92
1947.15
1947.19
1946.9
1945.13
1945.14
1934.41
772.224
771.353
771.795
772.956
771.065
772.375
772.765
770.673
771.097
771.334
770.686
768.912
767.065
764.389
767.756
767.026
768.226
768.924
768.461
768.193
769.876
765.9
760.352
760.561
764.135
764.161
764.16
764.624
764.508
763.803
768.4
749.799
743.977
740.287
753.624
754.807
756.447
756.779
757.094
757.51
745.611
732.693
727.558
721.98
720.171
743.355
748.001
746.513
746.968
749.152
761.438
741.585
714.694
710.545
707.043
704.05
701.279
718.508
737.966
740.298
757.695
755.7
739.164
699.166
696.027
693.778
691.564
689.283
689.879
724.769
752.802
750.605
747.548
707.302
685.413
685.161
684.126
682.696
681.484
698.115
745.112
742.733
725.867
673.792
674.558
675.458
675.636
675.336
678.04
726.76
712.536
672.348
666.879
666.253
665.163
664.089
663.817
667.301
723.627
730.164
665.589
662.925
672.84
655.56
654.46
651.429
677.299
724.916
723.455
723.816
659.057
705.233
744.335
687.166
652.044
678.638
717.311
712.682
711.128
711.36
665.509
735.425
729.086
721.037
705.326
708.081
700.706
690.44
685.579
687.912
628.314
686.219
712.676
708.596
703.923
678.842
611.398
594.064
630.477
640.404
612.015
603.092
625.483
631.407
613.197
587.575
573.135
566.818
560.835
560.48
609.661
603.591
593.591
588.283
584.48
581.247
577.65
572.986
612.744
691.634
612.318
619.188
618.403
619.968
618.195
624.833
654.949
710.02
706.141
701.224
707.052
708.32
703.826
697.654
691.999
683.699
669.286
632.054
590.75
593.799
708.111
675.838
639.13
593.42
520.403
450.722
405.401
404.219
406.735
398.348
643.095
474.989
398.19
398.231
398.827
399.009
399.331
399.418
399.023
398.127
556.407
488.582
400.755
396.104
401.267
399.687
398.054
398.168
397.19
395.475
390.493
392.936
394.2
467.092
646.183
633.545
536.255
482.56
493.145
489.186
391.456
392.307
393.493
453.166
741.066
797.88
787.222
776.932
788.715
799.372
393.573
393.143
395.357
600.243
793.272
799.128
797.694
795.821
795.205
797.412
651.944
552.025
633.546
781.769
789.635
787.645
787.526
787.062
789.817
794.76
799.686
789.169
778.54
769.574
765.95
767.292
769.262
770.819
773.646
780.488
781.108
764.321
751.513
723.139
670.291
647.896
664.757
715.728
728.88
728.779
741.516
697.648
622.149
447.102
296.213
282.564
315.561
466.127
470.812
345.13
566.227
391.201
253.847
250.824
251.237
256.134
256.892
256.869
269.487
272.417
523.555
442.841
280.07
253.126
252.312
261.136
275.613
274.185
281.418
290.052
719.594
694.987
332.658
251.644
251.582
264.316
418.881
479.149
540.42
475.504
619.822
495.964
352.445
252.157
251.989
376.415
746.091
822.107
817.851
815.611
246.341
244.29
246.329
247.844
248.419
353.548
600.122
784.879
829.224
830.318
249.995
247.972
248.899
248.919
248.472
248.325
248.314
405.678
807.013
842.593
428.724
461.604
383.677
269.83
245.659
245.826
246.129
246.524
504.305
851.751
816.367
841.443
799.18
509.76
287.624
243.644
244.413
246.744
351.086
806.851
774.93
801.782
807.136
572.556
398.637
340.509
320.399
299.006
628.137
875.68
745.498
770.623
727.077
474.994
405.564
530.909
597.38
608.894
732.105
906.269
727.997
740.858
802.943
660.046
471.806
498.007
601.396
722.441
703.783
867.18
812.729
798.661
834.522
847.494
695.819
514.192
453.995
718.782
860.378
637.26
847.137
858.429
870.96
886.057
727.64
722.284
439.648
526.799
950.057
559.712
831.063
880.683
898.329
907.409
591.806
716.812
424.757
684.704
919.877
936.787
663.422
828.798
925.596
930.077
605.557
707.476
465.83
923.165
948.184
928.311
676.324
779.969
946.727
945.413
622.163
815.554
808.052
983.812
974.378
967.434
686.02
853.812
958.193
959.6
640.465
827.519
869.183
842.476
981.901
980.171
874.722
957.631
962.696
916.622
658.702
832.97
804.811
281.344
786.734
962.975
957.109
955.106
958.415
631.888
802.191
801.364
572.444
79.6879
435.556
885.76
952.448
839.94
706.387
272.399
770.07
790.745
404.316
18.9984
67.7152
360.295
931.145
692.346
230.104
192.412
731.562
803.946
302.842
3.75562
0.669397
9.88737
660.346
633.886
476.776
199.382
733.304
815.188
214.093
0.179566
-0.0451813
-0.0254739
77.4111
97.8437
160.65
172.527
805.233
811.666
92.4921
-0.0985025
-0.0136636
-0.0603027
2.34052
4.12106
4.70828
44.4714
820.362
842.555
15.4832
0.0140235
0.0320127
0.0363521
5.33821
7.67552
13.344
28.0796
763.786
786.519
2.77745
0.117476
0.11654
0.305043
0.979832
6.91784
26.3332
17.2316
679.471
695.519
0.974693
0.101504
0.103944
0.0904092
1.09679
1.13734
26.9932
1.99179
621.774
623.295
0.105025
0.104539
0.096128
0.0908628
1.44483
1.53358
10.0311
1.89477
597.157
594.549
0.157271
0.206808
0.31012
0.138913
1.32579
1.34025
27.0907
1.65404
606.818
583.708
0.248634
0.303519
0.544151
0.506259
1.05347
5.11913
28.1652
0.928678
628.979
636.029
0.218978
0.239192
0.545673
0.530278
0.984356
5.98495
18.6042
1.02847
760.873
773.305
0.147847
0.152424
0.335143
0.405155
0.903301
7.65046
4.70591
1.90796
916.691
923.266
1.35796
0.123474
0.111969
0.102635
7.65618
7.53199
1.75013
33.4743
1021.09
1024.51
34.7396
0.103042
0.0992737
0.0921427
7.57671
2.5459
1.24712
102.355
1084.05
1084.7
100.53
0.0965829
0.349797
0.401432
1.32486
0.524564
0.625339
149.933
1116.91
1117.03
149.181
0.0840219
0.469738
0.483489
0.286166
0.313428
0.339318
168.874
1133.9
1138.33
168.904
0.068628
0.379524
0.49614
0.384063
0.237053
0.188452
172.322
1152
1154.91
172.645
0.0882918
0.205885
0.526372
0.371771
0.208276
0.112894
147.889
1164.44
1162.3
146.958
0.116014
0.20224
0.563549
0.29997
0.239137
0.0856515
105.892
1149.93
1146.55
105.064
0.131222
0.17676
0.466861
0.182394
0.709228
0.0836207
73.9352
1123.49
1126.01
74.6426
0.142021
0.179203
0.364825
0.299327
0.813666
0.135039
58.8389
1115.45
1116.16
57.9732
0.154423
0.346624
0.551786
1.22693
0.890847
0.23492
53.7306
1120.61
1126.74
53.2148
0.141455
0.367437
0.562384
1.25982
0.892663
0.280004
52.7452
1131.62
1144.49
53.1272
0.10424
0.366923
0.560703
0.697228
0.506862
0.209031
57.9781
1165.07
1166.64
57.2554
0.102237
0.319052
0.546506
0.122368
0.456124
0.139214
77.3784
1217.5
1214.85
76.2814
0.0921599
0.148454
0.533541
0.0969394
0.24932
0.107549
119.965
1279.22
1282.31
121.126
0.0599634
0.0561968
0.398733
0.0817802
0.0881324
0.0884711
175.618
1337.75
1337.15
174.713
0.020863
0.0244326
0.0436386
0.0743499
0.0779292
0.0807374
232.398
1385.21
1387.53
233.501
-0.00836156
0.0617547
0.014073
0.121225
0.0836984
0.0840687
279.957
1424.67
1424.35
279.391
-0.00881938
0.151413
0.26346
0.489392
0.110042
0.105743
315.718
1456.5
1456.4
315.439
0.00843149
0.226778
0.574172
0.675215
0.131377
0.123041
336.321
1480.91
1481.05
336.129
0.00899984
0.113568
0.565054
0.561788
0.129233
0.124831
350.365
1503.33
1503.35
350.116
-0.0057484
0.0720766
0.136038
0.516769
0.158401
0.119702
356.992
1524.02
1523.26
356.479
-0.00834947
-0.000985022
-0.0119428
0.491136
0.238203
0.116022
371.618
1547.28
1547.74
370.968
-0.00603825
-0.00493584
-0.00882526
0.340033
0.28038
0.109039
394.115
1571.97
1572.5
392.786
-0.00247992
0.0118211
0.0113241
0.32663
0.328405
0.102858
462.585
1606.5
1608.58
461.568
0.000688973
0.248801
0.0532869
0.744018
0.457991
0.102518
532.551
1637.11
1638.86
531.077
0.0206349
0.440678
0.576317
0.774994
0.617732
0.10613
631.799
1669.37
1670.39
630.312
0.0306676
0.487727
0.584541
0.767507
0.499334
0.0991792
712.382
1694.06
1695.08
711.377
0.0274151
0.376639
0.587217
0.38869
0.110464
0.0795942
813.684
1718.33
1719.91
813.117
0.0370576
0.259306
0.587977
0.083619
0.0819125
0.0659833
901.015
1739.9
1741.92
900.436
0.0436107
0.320335
0.544611
0.206045
0.0832906
0.0554958
1035.8
1760.42
1762.47
1035
0.0434378
0.463801
0.540983
0.0416315
0.0368062
0.0272306
1163.92
1780.93
1783.02
1162.34
0.0278602
0.087441
0.357696
0.032273
0.0240117
0.0559931
1337.46
1797.95
1804.27
1344.51
-0.00656977
0.000943976
-0.00277935
0.0218347
0.0217815
70.0351
1466.35
1819.55
1816.7
1464.74
26.7084
-0.0122283
-0.0140907
0.0239441
0.0246654
289.341
1693.46
1835.95
1833.73
1504.02
100.308
-0.0117612
-0.0116424
0.0182215
0.0165631
486.802
1777.89
1854.93
1854.05
1684.95
277.11
-0.00329517
-0.00349222
0.0146978
0.00842836
846.361
1851.07
1873.52
1873.09
1831.62
633.796
-0.000467137
0.00823785
0.0130963
0.0499541
1358.54
1891.87
1892.59
1892.22
1890.86
1111.63
0.0162137
0.0146431
-0.0108547
354.51
1708.02
1909.78
1910.89
1911.28
1910.84
1633.25
88.4831
0.00379339
0.0201248
1341.54
1927.71
1927.54
1927.03
1926.87
1926.64
1907.3
964.696
-0.00500879
769.227
1899.9
1938.76
1937.22
1936.67
1936.84
1937.72
1939.8
1868.67
594.934
770.727
769.696
768.832
768.403
769.213
769.52
769.885
770.472
771.264
771.768
774.245
775.676
777.067
778.968
781.169
782.8
783.602
783.911
783.825
783.514
783.177
782.84
782.855
782.883
782.755
783.763
788.044
792.278
796.332
800.519
804.456
807.24
810.047
815.647
821.411
826.425
830.741
833.625
834.397
835.993
767.584
766.799
766.322
766.578
767.291
768.104
769.37
770.608
772.494
769.491
772.686
775.069
775.192
778.753
781.799
783.458
783.896
783.616
782.87
781.939
780.93
780.132
779.986
780.363
779.418
781.773
784.963
788.235
794.129
799.096
803.81
804.587
808.061
810.301
817.165
822.715
828.036
833.946
835.783
836.514
763.213
762.862
763.146
764.17
765.467
766.75
766.225
763.114
764.512
766.361
768.54
770.945
773.142
780.308
783.177
784.036
783.547
782.162
780.113
777.767
775.749
774.917
775.42
776.203
775.928
774.549
778.236
783.588
792.993
798.624
799.368
801.321
806.441
811.881
817.876
822.959
829.048
837.987
841.279
837.237
758.143
759.124
760.267
761.74
763.578
765.934
761.395
760.179
762.036
763.23
772.645
780.225
781.259
782.136
782.611
781.896
780.203
777.54
773.453
766.885
762.741
761.787
765.043
767.909
765.634
766.308
773.754
781.623
788.939
794.627
797.523
803.743
810.282
816.056
820.787
830.753
841.059
845.911
846.974
846.335
751.76
754.415
757.206
759.969
762.688
765.342
767.98
770.383
764.738
765.176
774.414
776.655
778.79
780.371
780.325
779.707
777.987
770.671
753.704
746.976
746.817
747.72
747.003
764.332
745.116
743.766
747.624
767.02
789.374
792.336
793.255
799.275
816.339
827.186
834.153
841.657
850.338
854.332
854.297
856.358
744.059
748.346
752.584
756.488
760.328
763.778
766.631
764.442
762.908
768.096
772.835
774.812
776.832
778.667
779.038
778.881
763.695
745.937
745.512
746.374
747.786
748.997
768.016
766.665
745.859
744.262
754.626
779.473
785.022
789.714
794.862
799.764
803.43
804.915
806.166
810.103
820.729
832.683
844.004
856.824
737.665
743.397
748.589
753.063
757.074
758.434
757.143
760.288
762.365
769.973
771.851
773.667
775.418
777.054
778.875
780.408
756.452
744.766
745.292
744.927
762.167
788.243
787.901
786.979
785.933
747.617
730.245
765.077
775.248
778.146
781.891
785.343
781.56
762.985
720.886
699.382
710.071
754.856
798.468
822.38
736.28
741.025
745.055
748.349
749.918
755.153
760.56
763.437
761.046
763.821
770.047
772.424
774.269
776.264
778.783
782.052
781.88
749.568
747.193
754.833
791.378
791.073
790.73
789.992
788.954
762.54
715.624
707.238
726.541
764.725
766.019
754.853
722.064
678.786
662.208
656.405
654.969
666.902
748.744
797.636
735.15
737.979
741.03
738.124
741.02
745.975
756.357
760.778
765.372
769.337
763.851
759.95
768.612
776.479
780.316
783.745
787.19
785.707
768.783
777.814
793.64
794.364
794.707
794.253
793.273
791.329
739.945
696.483
687.05
679.298
679.533
684.429
678.517
674.373
671.725
660.1
658.4
657.918
719.368
807.577
731.399
733.158
735.563
730.711
734.124
738.175
744.968
756.613
762.245
767.484
764.884
758.702
760.911
763.827
783.323
786.289
791.025
793.364
794.374
796.529
798.16
799.579
799.541
798.564
798.358
798.374
797.84
780.968
745.012
710.703
704.817
733.764
769.292
778.031
778.913
691.755
662.371
662.367
745.597
806.42
724.475
725.651
727.921
731.616
729.843
729.928
735.066
748.797
757.812
764.342
771.343
771.073
761.666
765.706
769.159
772.347
785.971
789.288
794.965
796.52
801.533
806.038
802.106
798.398
796.931
795.926
795.966
795.064
792.14
787.248
786.912
792.55
798.035
804.834
810.062
810.595
709.91
673.29
774.266
786.629
712.299
710.329
704.704
705.179
714.449
720.777
726.699
728.791
747.174
759.541
767.328
774.783
781.374
782.767
776.024
775.585
779.105
783.004
795.077
800.575
800.577
798.875
793.15
792.049
786.77
779.879
784.084
783.279
772.032
771.892
773.076
787.831
801.571
806.964
811.645
815.535
762.563
704.062
784.431
784.768
694.5
689.583
642.478
640.596
649.631
673.553
677.454
697.639
719.052
736.653
747.827
763.421
779.504
786.068
791.556
795.638
798.651
799.128
761.712
785.136
801.24
798.531
776.816
754.099
753.861
753.402
754.811
751.443
750.701
751.969
754.551
757.857
789.836
810.412
814.794
819.751
768.244
711.241
788.38
804.284
660.072
679.044
646.072
630.876
635.605
642.048
648.81
656.41
679.011
690.837
704.681
727.072
752.974
777.65
791.713
797.354
802.229
804.721
759.627
742.097
766.201
795.651
780.197
770.521
776.323
781.138
769.35
752.86
754.2
756.311
757.974
760.212
781.868
814.434
817.814
821.39
722.114
696.942
792.775
820.152
603.281
679.247
698.173
671.301
647.632
635.952
648.675
709.633
746.555
734.368
710.355
708.56
715.998
736.548
773.893
800.977
809.109
813.521
784.809
744.31
743.675
754.154
795.04
799.154
799.697
798.676
798.343
787.813
772.827
768.238
756.252
765.656
807.817
817.361
820.594
770.504
639.787
658.946
781.991
833.354
692.035
692.702
695.892
702.391
707.335
662.129
713.412
736.853
745.438
754.502
764.309
747.193
717.59
723.751
731.903
772.142
813.449
824.574
829.229
767.133
747.474
743.93
778.404
798.466
797.524
791.892
788.033
787.297
789.63
792.244
784.93
806.238
814.66
822.704
833.268
677.062
617.42
619.034
728.698
859.088
700.753
699.042
679.519
662.293
651.741
670.587
703.493
724.854
734.584
744.865
756.82
769.816
783.088
761.282
734.5
746.15
783.283
830.542
837.679
838.522
823.981
794.339
790.527
801.369
787.741
769.336
735.616
710.541
707.485
735.38
776.089
797.558
813.724
829.012
847.959
735.18
623.49
625.977
684.996
876.084
595.343
557.547
468.209
425.355
435.165
456.194
494.71
556.615
632.71
702.894
741.61
759.516
775.875
791.164
805.623
766.132
784.308
829.566
838.2
841.259
839.95
838.084
823.49
798.65
776.034
687.551
541.68
499.459
498.657
527.037
613.703
749.067
810.264
836.204
860.605
881.568
661.683
635.386
691.013
897.805
397.185
396.687
396.421
396.047
395.212
394.315
393.735
393.251
393.693
459.641
596.307
724.426
765.188
785.013
801.018
813.897
823.007
827.826
834.882
838.589
837.481
832.874
826.123
810.865
793.61
774.986
578.316
484.621
483.147
485.696
488.874
535.679
752.102
840.395
872.008
898.357
851.576
661.059
716.728
923.569
397.156
396.187
395.371
394.857
394.228
393.565
392.951
392.549
392.077
391.479
391.306
488.788
720.147
779.859
798.408
810.838
819.037
824.994
830.065
833.496
833.847
832.794
828.838
821.916
813.448
805.053
803.339
663.77
488.312
487.952
490.788
493.371
581.275
815.435
882.252
915.568
937.975
817.652
768.285
939.835
394.264
393.382
392.757
392.419
393.349
394.027
393.637
391.844
390.764
390.399
389.915
392.517
622.708
780.014
798.744
809.769
816.662
820.432
823.215
825.461
827.389
825.468
822.118
820.721
820.087
819.544
820.901
826.184
657.56
486.066
487.803
489.322
534.063
767.965
862.033
940.672
967.888
875.49
801.833
962.953
435.833
389.415
389.375
389.718
391.848
391.892
391.853
391.853
390.471
389.573
389.459
412.544
665.019
790.734
803.111
810.757
815.073
815.879
815.861
815.972
815.67
814.488
813.051
812.694
814.182
816.619
818.788
823.096
708.299
486.545
483.894
491.374
703.358
821.31
843.032
912.675
986.14
902.056
817.44
980.017
704.821
436.522
386.805
386.903
387.235
387.6
387.939
388.17
388.322
388.685
401.769
645.009
800.234
806.127
810.134
812.228
813.38
813.39
812.02
809.768
806.906
801.588
799.528
801.925
805.995
812.771
796.927
587.039
487.4
484.622
566.834
806.517
842.516
833.455
814.29
876.074
970.767
929.626
819.843
986.499
798.483
694.797
418.377
385.148
385.23
385.821
386.016
386.508
386.94
464.012
754.158
814.347
817.034
818.764
818.126
815.706
812.916
809.909
806.73
804.448
804.181
732.475
607.47
614.885
621.036
622.357
640.116
761.309
801.522
800.051
801.634
800.093
804.329
733.24
744.155
840.158
894.841
862.808
868.031
931.861
798.237
800.754
804.597
760.161
459.498
386.018
406.44
633.458
822.661
823.383
822.816
805.381
819.461
827.438
824.762
819.966
814.691
809.944
805.361
772.949
550.763
539.808
538.042
713.715
778.346
776.309
770.059
762.872
754.753
739.945
736.128
694.318
612.344
635.054
710.095
764.172
751.787
598.502
831.109
858.104
784.888
788.046
790.378
797.426
795.9
794.112
806.397
818.773
818.482
818.363
772.325
781.052
827.369
831.623
829.824
824.977
817.944
781.654
542.991
522.652
523.87
537.177
732.058
765.578
755.891
747.362
736.345
706.481
697.741
536.358
488.71
517.555
621.434
662.847
662.151
563.73
439.206
421.17
740.736
791.565
719.407
661.055
678.403
745.508
787.397
800.188
798.998
795.311
744.918
657.262
676.819
785.778
831.959
832.629
831.41
791.511
537.631
519.172
517.965
527.866
725.623
779.182
757.872
741.024
710.474
685.409
602.076
333.554
333.523
491.545
605.859
671.936
715.653
721.403
547.001
358.71
368.319
375.429
706.677
769.797
341.786
404.3
376.711
361.436
464.342
745.775
730.55
491.217
483.137
608.037
804.475
822.886
829.801
816.409
547.29
531.376
525.539
557.724
770.336
795.028
775.912
758.017
729.945
657.425
341.735
232.219
237.719
244.715
505.712
731.06
739.88
743.664
750.389
738.748
459.106
379.873
385.596
426.816
764.609
779.379
284.317
321.936
333.761
341.778
445.47
430.639
343.364
333.639
530.544
799.727
818.067
802.174
569.464
565.478
577.552
792.874
799.788
759.043
774.275
787.476
764.054
687.049
323.091
226.284
226.319
226.866
228.185
272.108
667.41
759.415
763.908
769.235
776.058
770.686
495.745
400.25
401.631
720.819
812.562
800.402
307.912
595.682
611.662
527.283
284.948
278.197
279.648
282.418
406.119
759.367
781.014
677.127
695.56
788.926
837.519
830.757
797.279
699.855
716.044
784.727
725.094
367.848
224.23
224.16
224.65
224.845
224.656
240.179
544.897
767.136
776.325
783.761
792.222
801.685
635.238
415.44
474.324
774.226
816.826
809.189
642.133
642.676
284.669
278.042
276.888
276.622
277.78
279.272
288.39
526.589
656.372
747.421
821.65
827.059
827.262
774.334
690.419
682.957
771.461
766.726
729.816
377.463
222.011
221.843
221.982
221.507
220.498
218.762
277.533
410.645
585.292
748.418
797.99
808.764
804.62
727.639
752.046
762.019
817.153
824.667
468.871
280.094
279.139
279.309
279.63
280.022
281.045
283.289
287.047
292.872
406.917
632.88
824.349
824.188
787.562
712.604
677.339
676.13
756.289
773.656
765.277
757.42
516.406
220.499
220.182
219.476
218.575
217.675
217.18
217.923
232.813
307.868
505.881
727.691
807.398
823.757
827.82
815.312
824.971
829.028
667.204
286.251
281.552
281.062
280.195
279.909
279.525
305.953
440.835
531.961
622.287
836.269
835.533
780.05
756.961
754.946
669.822
577.328
633.781
722.668
606.539
559.826
559.061
499.801
355.217
218.022
217.52
217.855
217.647
217.78
217.803
217.774
220.278
296.197
492.945
717.948
828.189
831.279
832.964
834.171
829.481
491.689
279.112
279.276
279.146
315.84
391.8
625.653
849.106
866.085
860.931
853.315
840.31
805.78
809.783
699.632
573.769
573.572
570.638
566.149
562.803
560.696
560.594
614.775
630.525
374.644
217.388
217.975
218.309
218.5
218.348
218.397
218.77
218.878
221.491
274.258
607.751
823.067
840.235
842.091
853.038
813.135
600.228
573.837
560.987
649.503
782.871
869.885
868.641
865.79
863.116
858.827
854.158
850.55
847.582
776.067
578.18
576.847
574.44
571.462
569.078
588.079
773.703
833.216
835.503
772.184
421.209
231.844
219.621
219.482
219.528
219.459
219.526
219.56
219.778
220.395
247.171
695.863
850.196
852.139
857.861
858.005
815.898
750.359
870.444
877.697
875.096
872.762
869.974
866.915
863.853
861.023
858.327
856.206
854.733
853.425
780.76
580.51
579.94
618.155
841.831
847.352
845.43
844.404
845.165
849.24
823.4
627.36
414.939
286.872
246.673
235.161
222.68
220.336
220.05
220.302
250.017
713.437
861.596
862.453
872.758
835.871
811.157
871.868
876.274
874.545
870.794
867.028
864.527
862.743
861.292
860.128
859.249
859.157
859.785
860.425
860.86
847.072
785.714
796.613
858.51
858.79
859.206
859.987
862.184
865.437
869.015
871.523
834.404
759.367
722.944
698.104
650.544
596.236
613.736
505.112
534.57
813.763
867.245
868.244
891.371
834.05
827.732
876.982
879.317
872.414
866.627
859.976
854.185
844.086
853.242
855.949
859.026
861.778
864.718
867.753
865.79
854.838
857.17
865.207
867.017
871.814
873.493
874.114
875.668
877.979
880.194
881.976
869.51
840.434
876.679
881.628
883.988
880.109
874.523
863.489
856.384
873.006
874.079
874.554
934.946
855.454
839.896
855.697
880.198
868.118
843.349
574.4
412.349
438.599
671.678
784.72
851.4
863.63
869.239
874.545
828.583
752.161
754.05
755.027
760.281
876.249
883.027
883.286
884.404
885.796
886.911
816.783
759.631
759.6
771.97
863.997
882.813
878.854
873.968
869.051
865.879
819.151
829.878
857.553
940.636
928.872
881.91
887.46
887.693
873.708
761.671
277.313
144.579
141.357
140.715
142.146
490.075
774.814
875.468
880.832
883.942
787.115
760.024
761.424
762.52
762.891
762.982
762.503
847.195
890.579
891.259
868.301
760.496
759.216
757.139
755.387
760.606
813.331
867.29
876.232
820.315
779.447
779.317
779.218
725.202
946.313
928.495
914.817
900.723
889.705
777.164
244.337
143.037
141.192
140.739
141.283
141.997
142.558
549.343
867.778
893.564
900.896
905.885
908.003
821.004
768.724
767.146
800.221
774.833
773.993
773.6
773.84
843.462
851.309
834.846
766.914
756.457
755.338
755.127
756.195
778.139
805.399
783.133
783.599
618.05
549.237
654.661
841.396
879.03
888.192
870.152
774.393
405.804
140.88
140.873
140.988
141
141.505
141.578
494.28
898.437
907.493
909.92
910.379
905.925
893.863
887.763
902.572
868.161
836.311
823.526
815.21
818.869
852.681
895.635
888.37
858.267
833.719
818.912
827.389
869.202
890.033
862.189
840.113
636.801
449.329
443.449
447.902
445.533
439.219
514.511
801.214
770.238
418.942
141.241
141.447
141.684
141.746
155.05
674.262
906.059
908.646
909.927
909.425
907.622
905.165
902.651
899.962
897.286
895.228
893.881
892.871
884.839
885.315
889.195
887.464
885.843
884.63
883.65
883.043
883.266
883.945
884.079
883.71
899.418
508.66
449.269
444.908
650.936
746.427
756.101
751.479
664.83
565.409
365.191
306.925
374.341
571.224
873.97
914.557
911.075
909.004
907.258
905.054
902.698
900.296
897.846
895.521
893.265
891.086
888.781
886.975
885.756
884.041
882.153
880.811
879.803
878.565
877.582
877.04
876.83
877.265
877.571
877.838
961.402
895.466
781.866
825.337
917.603
881.888
700.61
699.846
817.854
887.106
886.254
889.109
912.6
924.332
921.763
916.909
912.01
908.042
902.738
899.072
896.086
893.255
891.103
889.457
887.883
886.414
883.364
880.461
878.215
875.838
870.085
859.297
845.802
832.954
824.425
820.01
813.834
808.622
814.335
823.565
951.526
944.74
939.3
933.146
927.977
923.822
865.348
823.176
890.588
877.259
875.14
910.301
926.204
922.514
916.738
890.347
887.577
902.043
895.772
872.673
802.906
768.481
717.383
684.239
665.288
666.914
622.7
556.6
473.616
385.792
328.883
278.396
239.946
212.064
197.139
188.991
188.044
197.159
200.561
203.44
918.239
923.853
924.418
924.774
924.479
923.358
922.267
921.871
920.868
918.967
916.055
836.748
739.947
788.163
915.621
917.148
915.594
905.046
812.889
582.785
306.999
181.437
118.433
81.5776
58.9662
54.0255
39.5018
23.187
8.25762
1.5978
0.91646
0.878954
0.788892
0.986415
1.23905
1.2033
1.04383
0.717843
0.714601
0.641242
467.722
573.768
640.649
716.771
809.899
897.39
915.186
918.151
918.88
918.038
916.742
823.093
730.666
725.868
845.419
903.762
816.683
599.943
307.41
62.4547
6.63494
1.80153
1.9937
1.63917
0.945405
0.719313
0.614058
0.476664
0.428615
0.474581
0.662158
0.68801
0.605409
0.87643
1.28671
1.13552
0.804176
0.655716
0.601437
0.544764
11.629
6.16495
16.4696
62.7857
166.933
364.674
615.937
738.675
784.965
816.481
845.679
845.527
769.439
733.576
756.938
769.392
783.338
659.244
214.669
4.23214
1.82252
0.799202
0.609265
0.570032
0.514636
0.467232
0.429702
0.394326
0.357246
0.324752
0.306216
0.294805
0.385049
1.2428
1.62161
1.05542
1.05302
1.14288
0.655825
0.514528
0.117031
0.106953
0.0514528
0.0687329
0.0736514
0.0478441
3.2345
48.1156
89.2285
115.131
148.137
217.67
271.27
221.343
93.9965
0.285815
-0.209593
-0.137287
0.343079
3.05595
1.53734
0.302571
0.355746
0.386827
0.38262
0.358705
0.336761
0.313624
0.287951
0.263433
0.247903
0.242608
0.24223
0.944511
1.58736
1.62223
1.65845
1.67411
0.888683
0.518314
0.00768544
0.0490982
0.06486
0.0557974
0.0609235
0.07199
0.0827621
0.0806567
0.0835012
0.0744789
0.0552607
0.0305899
0.00912817
-0.0154245
-0.0643179
-0.0843988
-0.0399249
0.422525
0.0965507
0.0793285
0.0637541
0.0655322
0.160419
0.218397
0.247298
0.253964
0.250159
0.241471
0.230774
0.222398
0.220642
0.226378
0.236391
0.42773
1.47027
1.61306
1.63965
1.64047
0.674026
0.544997
0.0615306
0.101033
0.242535
0.532482
0.477172
0.180021
0.265042
0.409116
0.417345
1.04366
1.3321
1.28669
0.38503
0.0661008
0.715011
0.899312
0.626542
0.179264
0.00426056
-0.0314153
-0.0221869
0.0450317
0.103825
0.148262
0.176383
0.192442
0.19955
0.200384
0.198935
0.199604
0.207014
0.218382
0.223037
0.235282
0.302451
1.17575
1.6341
1.65678
0.981898
0.42554
1.24546
1.45407
1.45681
1.47304
1.45793
0.899341
1.41583
1.41762
1.41185
1.40581
1.38924
1.08063
0.393333
0.557314
1.02106
0.517381
0.102575
-0.0236022
0.263073
0.452096
0.251914
0.0942603
0.16862
0.214667
0.249117
0.231028
0.196844
0.198084
0.197046
0.198278
0.206763
0.21737
0.228406
0.23688
0.248882
0.261347
0.800615
1.69331
0.627863
0.386501
0.857115
1.45041
1.45464
1.42371
1.20843
1.16958
0.608337
0.685724
1.09952
1.11069
0.737968
0.504627
0.543994
0.0995504
0.411785
0.0104858
0.0187041
0.0345468
0.374759
0.516518
0.330082
0.454803
0.667216
0.713916
0.754707
0.770169
0.67982
0.347745
0.205294
0.207873
0.213599
0.221638
0.23207
0.244621
0.256884
0.269201
0.282093
1.05537
0.499097
0.390298
0.115313
0.132975
0.41669
0.126603
0.0707128
0.0655111
0.0639853
0.0602278
0.0562519
0.055134
0.0552281
0.420992
0.810926
0.125547
0.0565549
0.059735
0.0688007
0.0821999
0.174494
0.35585
0.314246
0.327011
0.374463
0.493055
0.737983
0.752961
0.768091
0.682766
0.222811
0.212241
0.220825
0.229897
0.240064
0.252488
0.265682
0.278947
0.290528
0.843343
0.469569
0.391377
0.205123
0.176634
0.0994966
0.0898974
0.0824861
0.0763523
0.0716227
0.0672951
0.0689978
0.0645521
0.0635524
0.0665537
0.124928
0.451632
0.465164
0.276786
0.103597
0.118414
0.135012
0.151689
0.472347
1.08831
0.321832
0.321225
0.333603
0.487007
0.595393
0.375747
0.200064
0.211068
0.218479
1.33176
1.04655
0.273877
0.26649
0.277251
0.286669
0.988544
0.543672
0.389187
0.499727
0.349619
0.107218
0.0946547
0.0850942
0.079806
0.0807997
0.0886429
0.085544
0.0841382
0.0747068
0.0651077
0.0695843
0.128828
0.478651
0.465913
0.555289
0.701088
0.658902
1.01996
1.59047
1.60009
1.58257
0.460386
0.165537
0.158564
0.171702
0.179664
0.192362
0.652295
1.62973
1.67065
1.68713
0.944368
0.262085
0.270242
0.276325
1.48103
0.959743
0.395023
0.445639
0.199193
0.106684
0.113234
0.155529
0.148069
0.104351
0.05784
0.0543923
0.0693188
0.0663497
0.0522165
0.0561705
0.059785
0.113934
0.119216
0.378762
0.800822
1.55938
1.57278
1.57343
1.56456
1.55658
0.644652
0.126201
0.146608
0.159256
0.164583
0.949931
1.64995
1.65916
1.66564
1.67415
0.551826
0.255985
0.257572
0.722024
1.61863
1.62264
0.468538
0.108972
0.0980063
0.0894364
0.295362
0.30998
0.163118
0.0476283
0.0415021
0.0365039
0.0342362
0.0327143
0.0355974
0.0396053
0.0438505
0.0479462
0.0524431
0.0814139
0.19234
0.352044
0.609787
1.21473
1.21211
0.763541
0.209259
0.106227
0.119982
0.132351
0.142336
1.07824
1.65152
1.64868
1.36403
0.598203
0.313418
0.268868
0.759198
1.58652
1.59186
1.59599
0.446192
0.0930478
0.0824799
0.142223
0.305994
0.292862
0.18028
0.0331509
0.0304004
0.135312
0.157499
0.0514889
0.0167643
0.0220086
0.0275538
0.0345756
0.0432288
0.0504781
0.0559443
0.0588708
0.0583238
0.101533
0.116156
0.0666139
0.083525
0.0992722
0.112389
0.123266
0.133276
1.35482
1.65942
1.0171
0.891214
0.891568
1.43271
1.32721
1.50332
1.56286
1.56846
1.41155
0.361722
0.0753764
0.062771
0.263501
0.282668
0.270218
0.151174
0.0234431
0.312575
0.526311
0.527979
0.352497
0.0108774
0.0143847
0.0212807
0.0298586
0.0400721
0.0491492
0.0558396
0.0591444
0.0594228
0.061285
0.0670604
0.0761411
0.087818
0.0990974
0.108357
0.112787
0.298263
1.10813
0.981757
0.82527
1.16881
1.44902
1.4563
1.43556
0.649948
0.630993
0.958438
0.755444
0.395526
0.252585
0.113655