/*--------------------------------*- C++ -*----------------------------------*\
  =========                 |
  \\      /  F ield         | OpenFOAM: The Open Source CFD Toolbox
   \\    /   O peration     | Website:  https://openfoam.org
    \\  /    A nd           | Version:  8
     \\/     M anipulation  |
\*---------------------------------------------------------------------------*/
FoamFile
{
    version     2.0;
    format      ascii;
    class       surfaceScalarField;
    location    "3.95";
    object      phi;
}
// * * * * * * * * * * * * * * * * * * * * * * * * * * * * * * * * * * * * * //

dimensions      [0 3 -1 0 0 0 0];

internalField   nonuniform List<scalar> 
18095
(
1.94507e-08
-1.71817e-07
1.52366e-07
2.31412e-08
-1.98279e-07
1.94589e-07
1.99574e-08
-2.05994e-07
2.09178e-07
1.1385e-08
-2.11041e-07
2.19613e-07
7.42366e-10
-2.13528e-07
2.2417e-07
-1.05374e-08
-2.1321e-07
2.2449e-07
-1.99153e-08
-2.10318e-07
2.19696e-07
-2.31726e-08
-2.05722e-07
2.08979e-07
-1.94571e-08
-1.98287e-07
1.94571e-07
-1.71804e-07
1.52347e-07
1.56206e-08
-1.87437e-07
1.57575e-08
-1.98416e-07
1.18282e-08
-2.02065e-07
5.8947e-09
-2.05108e-07
-7.45185e-10
-2.06888e-07
-7.06745e-09
-2.06888e-07
-1.21832e-08
-2.05202e-07
-1.57668e-08
-2.02138e-07
-1.56227e-08
-1.98431e-07
-1.87427e-07
6.88571e-09
-1.94323e-07
8.3134e-09
-1.99844e-07
7.33854e-09
-2.0109e-07
4.27399e-09
-2.02043e-07
1.27113e-10
-2.02741e-07
-3.98382e-09
-2.02777e-07
-7.11008e-09
-2.02076e-07
-8.26948e-09
-2.00979e-07
-6.89173e-09
-1.99809e-07
-1.94319e-07
4.57966e-09
-1.98903e-07
4.676e-09
-1.9994e-07
3.57862e-09
-1.99993e-07
1.99848e-09
-2.00463e-07
1.19644e-10
-2.00862e-07
-1.93825e-09
-2.00719e-07
-3.68951e-09
-2.00324e-07
-4.71896e-09
-1.99949e-07
-4.58674e-09
-1.99941e-07
-1.98906e-07
1.09723e-09
1.15685e-09
1.1642e-09
7.01359e-10
-1.60728e-10
-8.7986e-10
-1.20422e-09
-1.15364e-09
-1.09444e-09
-2.59188e-08
-1.97415e-07
2.23334e-07
-2.81965e-08
-1.98924e-07
2.01201e-07
-2.33431e-08
-2.01731e-07
1.96878e-07
-1.24591e-08
-2.00633e-07
1.8975e-07
4.06958e-10
-2.0154e-07
1.88674e-07
1.33515e-08
-2.01763e-07
1.88819e-07
2.3375e-08
-2.00895e-07
1.90872e-07
2.77703e-08
-2.01395e-07
1.97e-07
2.53265e-08
-1.98624e-07
2.01068e-07
-1.97078e-07
2.22405e-07
-1.00659e-08
-1.87349e-07
-1.55065e-08
-1.93483e-07
-1.44939e-08
-2.02744e-07
-6.38551e-09
-2.08742e-07
7.9096e-10
-2.08717e-07
7.41122e-09
-2.08384e-07
1.44108e-08
-2.07895e-07
1.53577e-08
-2.02342e-07
9.92524e-09
-1.93192e-07
-1.87153e-07
-1.1022e-08
-1.76327e-07
-8.96087e-09
-1.95544e-07
-6.4481e-09
-2.05256e-07
-4.79109e-09
-2.10399e-07
-6.92707e-10
-2.12815e-07
3.68141e-09
-2.12758e-07
6.12399e-09
-2.10338e-07
8.84886e-09
-2.05067e-07
1.09558e-08
-1.95299e-07
-1.76197e-07
-7.11127e-09
-1.69216e-07
-9.32834e-09
-1.93327e-07
-8.7275e-09
-2.05857e-07
-4.04297e-09
-2.15083e-07
-3.34194e-10
-2.16524e-07
3.72595e-09
-2.16818e-07
8.54566e-09
-2.15157e-07
9.05352e-09
-2.05575e-07
7.01382e-09
-1.93259e-07
-1.69183e-07
-1.68499e-08
-1.55879e-08
-1.22671e-08
-7.73716e-09
-9.08381e-11
7.5811e-09
1.21194e-08
1.55239e-08
1.6836e-08
2.46333e-08
-1.61282e-07
1.36649e-07
2.87423e-08
-2.01604e-07
1.97495e-07
2.09429e-08
-2.12279e-07
2.20079e-07
6.55783e-09
-2.16583e-07
2.30968e-07
-9.65652e-09
-2.1723e-07
2.33445e-07
-2.57164e-08
-2.16624e-07
2.32684e-07
-3.7905e-08
-2.14406e-07
2.26595e-07
-4.40786e-08
-2.08662e-07
2.14836e-07
-3.73134e-08
-1.9675e-07
1.89985e-07
-1.54578e-07
1.17265e-07
1.42601e-08
-1.75542e-07
1.58676e-08
-2.03212e-07
1.1989e-08
-2.084e-07
4.47103e-09
-2.09065e-07
-4.08695e-09
-2.08672e-07
-1.25588e-08
-2.08152e-07
-1.86045e-08
-2.0836e-07
-2.12717e-08
-2.05995e-07
-1.80658e-08
-1.99956e-07
-1.72644e-07
1.00869e-08
-1.85629e-07
8.60664e-09
-2.01732e-07
6.39986e-09
-2.06194e-07
2.35032e-09
-2.05015e-07
-1.33106e-09
-2.04991e-07
-5.12602e-09
-2.04357e-07
-9.39025e-09
-2.04096e-07
-1.09116e-08
-2.04474e-07
-1.10543e-08
-1.99813e-07
-1.83699e-07
7.16628e-09
-1.92795e-07
5.28007e-09
-1.99845e-07
5.13253e-09
-2.06046e-07
2.88643e-10
-2.00171e-07
-1.31982e-09
-2.03382e-07
-3.19193e-09
-2.02485e-07
-7.70197e-09
-1.99586e-07
-7.16759e-09
-2.05008e-07
-7.90978e-09
-1.99071e-07
-1.91608e-07
3.05385e-08
3.18944e-08
2.27259e-08
1.2304e-08
-2.40421e-09
-1.60706e-08
-2.47848e-08
-3.27932e-08
-3.07962e-08
-4.54806e-07
1.06881e-08
4.44118e-07
-4.82268e-07
2.74622e-08
-5.2983e-07
4.75617e-08
-5.85655e-07
5.58254e-08
-6.41634e-07
5.59784e-08
-6.84842e-07
4.32085e-08
-6.94795e-07
9.95296e-09
-6.65056e-07
-2.97393e-08
-6.13531e-07
-5.15245e-08
-5.60986e-08
-5.57433e-07
-6.12217e-07
4.01258e-08
5.8278e-07
-6.61474e-07
7.67192e-08
-7.14256e-07
1.00343e-07
-7.4847e-07
9.00395e-08
-7.41532e-07
4.90403e-08
-7.02871e-07
4.5482e-09
-6.62476e-07
-3.04419e-08
-6.32571e-07
-5.9645e-08
-6.10234e-07
-7.38615e-08
-8.17826e-08
-5.8455e-07
-6.57569e-07
6.64385e-08
6.31256e-07
-7.01997e-07
1.21148e-07
-7.50427e-07
1.48773e-07
-7.9398e-07
1.33592e-07
-7.9344e-07
4.85009e-08
-7.63948e-07
-2.49436e-08
-7.37984e-07
-5.64062e-08
-7.25727e-07
-7.19021e-08
-7.12531e-07
-8.70574e-08
-1.02777e-07
-6.91537e-07
-5.49902e-07
7.47483e-08
5.41592e-07
-5.88847e-07
1.60093e-07
-6.35838e-07
1.95763e-07
-6.7244e-07
1.70194e-07
-7.12451e-07
8.85118e-08
-7.54366e-07
1.69716e-08
-7.81422e-07
-2.93506e-08
-7.88813e-07
-6.45112e-08
-7.79837e-07
-9.60326e-08
-1.16776e-07
-7.65838e-07
-4.54972e-07
5.3608e-08
4.76112e-07
-4.27002e-07
1.32124e-07
-4.32089e-07
2.0085e-07
-4.77805e-07
2.15911e-07
-5.75067e-07
1.85773e-07
-6.81535e-07
1.2344e-07
-7.61517e-07
5.06306e-08
-7.95525e-07
-3.05028e-08
-7.94593e-07
-9.69642e-08
-1.27442e-07
-7.83928e-07
-4.29172e-07
5.20702e-08
4.30709e-07
-3.93876e-07
9.68287e-08
-3.679e-07
1.74874e-07
-3.85766e-07
2.33776e-07
-4.41319e-07
2.41327e-07
-5.29229e-07
2.1135e-07
-6.24904e-07
1.46305e-07
-7.07801e-07
5.23936e-08
-7.53792e-07
-5.0973e-08
-1.23726e-07
-7.57508e-07
-4.04314e-07
6.88687e-08
3.87515e-07
-4.09776e-07
1.0229e-07
-3.89401e-07
1.54499e-07
-3.86865e-07
2.31241e-07
-4.0608e-07
2.60542e-07
-4.43755e-07
2.49025e-07
-4.96904e-07
1.99455e-07
-5.6202e-07
1.17509e-07
-6.26769e-07
1.37761e-08
-9.66195e-08
-6.53876e-07
-3.72792e-07
9.94056e-08
3.42256e-07
-4.05229e-07
1.34727e-07
-4.28523e-07
1.77793e-07
-4.35698e-07
2.38416e-07
-4.42802e-07
2.67646e-07
-4.57216e-07
2.63438e-07
-4.80481e-07
2.2272e-07
-5.05063e-07
1.4209e-07
-5.27658e-07
3.6371e-08
-8.40305e-08
-5.40247e-07
-4.01975e-07
1.5896e-07
3.4242e-07
-4.60631e-07
1.93382e-07
-5.20278e-07
2.3744e-07
-5.40072e-07
2.5821e-07
-5.36077e-07
2.63651e-07
-5.27472e-07
2.54834e-07
-5.1786e-07
2.13108e-07
-5.08405e-07
1.32635e-07
-4.87956e-07
1.59225e-08
-8.53325e-08
-4.86654e-07
-5.54949e-07
2.26787e-07
4.87122e-07
-5.97691e-07
2.36125e-07
-6.08532e-07
2.48282e-07
-6.05657e-07
2.55334e-07
-5.92939e-07
2.50933e-07
-5.73375e-07
2.3527e-07
-5.53631e-07
1.93364e-07
-5.21902e-07
1.00906e-07
-4.89255e-07
-1.67235e-08
-8.73361e-08
-4.87252e-07
-5.74358e-07
2.51546e-07
5.49599e-07
-5.93124e-07
2.54891e-07
-6.0552e-07
2.60677e-07
-6.08075e-07
2.57889e-07
-5.681e-07
2.10959e-07
-5.18687e-07
1.85857e-07
-4.89226e-07
1.63903e-07
-4.67075e-07
7.87547e-08
-4.64723e-07
-1.90758e-08
-7.57525e-08
-4.76306e-07
-5.35274e-07
2.73184e-07
5.13636e-07
-5.38404e-07
2.5802e-07
-5.2625e-07
2.48524e-07
-4.97926e-07
2.29564e-07
-4.85419e-07
1.98453e-07
-4.85436e-07
1.85874e-07
-4.78486e-07
1.56953e-07
-4.86189e-07
8.64574e-08
-4.81931e-07
-2.33336e-08
-7.99743e-08
-4.7771e-07
-4.72976e-07
3.22601e-07
4.23558e-07
-4.99228e-07
2.84272e-07
-4.77394e-07
2.2669e-07
-4.35089e-07
1.8726e-07
-4.05753e-07
1.69116e-07
-3.925e-07
1.7262e-07
-3.94693e-07
1.59147e-07
-4.42224e-07
1.33988e-07
-4.75217e-07
9.65982e-09
-9.50691e-08
-4.60122e-07
-3.52395e-07
3.6754e-07
3.07456e-07
-3.97137e-07
3.29014e-07
-3.94338e-07
2.23892e-07
-3.53442e-07
1.46364e-07
-2.8923e-07
1.04904e-07
-2.28631e-07
1.12021e-07
-2.17411e-07
1.47926e-07
-2.07374e-07
1.23951e-07
-2.3208e-07
3.4366e-08
-9.42142e-08
-2.32935e-07
-1.5209e-07
3.00368e-07
2.19263e-07
-1.16044e-07
2.92968e-07
-1.13958e-07
2.21805e-07
-1.06234e-07
1.38641e-07
-8.5394e-08
8.40637e-08
-4.17462e-08
6.83736e-08
2.82159e-08
7.79641e-08
9.64562e-08
5.5711e-08
1.26839e-07
3.98323e-09
-7.7892e-08
1.10517e-07
-8.11504e-08
2.02778e-07
1.7874e-07
-2.64884e-09
2.14466e-07
3.67392e-08
1.82417e-07
7.25799e-08
1.028e-07
1.16636e-07
4.00081e-08
1.56208e-07
2.8801e-08
1.92284e-07
4.18881e-08
2.36496e-07
1.14993e-08
2.59289e-07
-1.88095e-08
-7.53566e-08
2.56753e-07
-1.06711e-07
1.06623e-07
2.02865e-07
-1.50263e-08
1.22782e-07
6.42214e-08
1.0317e-07
1.24057e-07
4.29649e-08
1.99768e-07
-3.57031e-08
2.7827e-07
-4.97012e-08
3.498e-07
-2.96418e-08
3.88169e-07
-2.687e-08
4.34274e-07
-6.4914e-08
-1.00314e-07
4.59231e-07
-6.85429e-08
-2.88019e-09
1.78046e-07
5.59694e-08
-1.73028e-09
1.82981e-07
-2.38415e-08
2.86063e-07
-6.01177e-08
4.11602e-07
-1.61242e-07
5.26434e-07
-1.64534e-07
6.15064e-07
-1.18271e-07
6.70096e-07
-8.19025e-08
6.84061e-07
-7.88787e-08
-1.14038e-07
6.97785e-07
1.95813e-07
-1.24931e-07
-7.37619e-08
2.94055e-07
-9.99724e-08
3.56816e-07
-8.66018e-08
5.11859e-07
-2.15161e-07
6.2532e-07
-2.74702e-07
7.52445e-07
-2.91659e-07
8.97493e-07
-2.63319e-07
1.02125e-06
-2.05664e-07
1.11499e-06
-1.72616e-07
-1.65047e-07
1.166e-06
5.76864e-07
-2.65174e-07
-4.36621e-07
7.38028e-07
-2.61137e-07
9.02354e-07
-2.50928e-07
9.79695e-07
-2.92502e-07
1.02905e-06
-3.24061e-07
1.06476e-06
-3.27362e-07
1.12939e-06
-3.2795e-07
1.22784e-06
-3.04121e-07
1.31684e-06
-2.61615e-07
-1.95504e-07
1.3473e-06
1.00377e-06
-4.03754e-07
-8.65189e-07
1.10308e-06
-3.60452e-07
1.17539e-06
-3.23228e-07
1.25098e-06
-3.68093e-07
1.25451e-06
-3.27594e-07
1.26418e-06
-3.37028e-07
1.31716e-06
-3.80929e-07
1.41108e-06
-3.98042e-07
1.50146e-06
-3.51997e-07
-2.54394e-07
1.56035e-06
1.34507e-06
-3.68741e-07
-1.38008e-06
1.35033e-06
-3.65712e-07
1.37097e-06
-3.43872e-07
1.34757e-06
-3.44695e-07
1.361e-06
-3.41026e-07
1.38105e-06
-3.57076e-07
1.39694e-06
-3.96814e-07
1.39562e-06
-3.96722e-07
1.40037e-06
-3.56748e-07
-2.63293e-07
1.40927e-06
1.46468e-06
-3.01567e-07
-1.53185e-06
1.41078e-06
-3.11812e-07
1.38772e-06
-3.20806e-07
1.38956e-06
-3.46544e-07
1.40201e-06
-3.53469e-07
1.40368e-06
-3.58749e-07
1.37387e-06
-3.6701e-07
1.32489e-06
-3.47738e-07
1.26211e-06
-2.93966e-07
-2.49941e-07
1.24876e-06
1.44161e-06
-2.55999e-07
-1.48718e-06
1.42231e-06
-2.92513e-07
1.39749e-06
-2.95984e-07
1.38153e-06
-3.30583e-07
1.36805e-06
-3.39991e-07
1.34293e-06
-3.33625e-07
1.29253e-06
-3.16608e-07
1.23388e-06
-2.89093e-07
1.19451e-06
-2.54593e-07
-2.08959e-07
1.15353e-06
1.44651e-06
-2.66147e-07
-1.43637e-06
1.43197e-06
-2.77971e-07
1.42937e-06
-2.93384e-07
1.402e-06
-3.03212e-07
1.36198e-06
-2.99971e-07
1.31339e-06
-2.85032e-07
1.26369e-06
-2.66915e-07
1.22214e-06
-2.47539e-07
1.18171e-06
-2.1416e-07
-1.52869e-07
1.12562e-06
1.39567e-06
-3.09307e-07
-1.35251e-06
1.42513e-06
-3.07431e-07
1.42074e-06
-2.88998e-07
1.38457e-06
-2.67038e-07
1.33054e-06
-2.45943e-07
1.27414e-06
-2.28625e-07
1.23086e-06
-2.23636e-07
1.20384e-06
-2.20518e-07
1.18579e-06
-1.96115e-07
-1.168e-07
1.14972e-06
1.31632e-06
-3.4631e-07
-1.27932e-06
1.33833e-06
-3.29441e-07
1.33768e-06
-2.8835e-07
1.3127e-06
-2.42058e-07
1.25658e-06
-1.89818e-07
1.20209e-06
-1.74143e-07
1.18548e-06
-2.07016e-07
1.20658e-06
-2.41627e-07
1.21989e-06
-2.09424e-07
-7.26196e-08
1.17571e-06
1.0125e-06
-3.7296e-07
-9.85848e-07
1.02734e-06
-3.4428e-07
1.01241e-06
-2.73423e-07
9.95499e-07
-2.25147e-07
9.52014e-07
-1.46333e-07
9.30289e-07
-1.52418e-07
9.19063e-07
-1.9579e-07
9.01321e-07
-2.23886e-07
7.92588e-07
-1.0069e-07
4.28024e-08
6.77166e-07
2.44669e-07
-3.41703e-07
-2.75926e-07
2.17409e-07
-3.1702e-07
1.39387e-07
-1.954e-07
6.13914e-08
-1.47151e-07
2.55006e-08
-1.10442e-07
-2.48761e-08
-1.02041e-07
-8.05837e-08
-1.40082e-07
-1.70345e-07
-1.34125e-07
-2.26339e-07
-4.4695e-08
5.88697e-08
-2.42406e-07
-2.36216e-07
-3.39974e-07
2.34488e-07
-2.2001e-07
-3.33226e-07
-1.84916e-07
-2.30494e-07
-2.02267e-07
-1.29801e-07
-2.15975e-07
-9.67321e-08
-2.21446e-07
-9.65695e-08
-2.3781e-07
-1.23718e-07
-2.14754e-07
-1.5718e-07
-1.09901e-07
-1.49548e-07
-4.88953e-08
-2.13547e-09
-3.79162e-07
-3.92995e-07
4.32183e-07
-3.67058e-07
-3.4533e-07
-3.61845e-07
-2.35707e-07
-3.521e-07
-1.39546e-07
-2.80355e-07
-1.68476e-07
-1.96728e-07
-1.80197e-07
-1.2523e-07
-1.95216e-07
-8.27394e-08
-1.99671e-07
-2.7221e-08
-2.05067e-07
-1.1816e-07
4.20438e-08
-4.56991e-07
-4.68583e-07
5.32578e-07
-4.068e-07
-3.95521e-07
-4.26846e-07
-2.15661e-07
-4.54042e-07
-1.12349e-07
-4.6007e-07
-1.62448e-07
-3.25603e-07
-3.14664e-07
-1.89692e-07
-3.31127e-07
-1.20686e-07
-2.68677e-07
-1.55743e-07
-1.7001e-07
-5.02681e-08
-2.23635e-07
-8.62883e-07
-5.05942e-07
9.00243e-07
-7.95562e-07
-4.62841e-07
-6.80508e-07
-3.30716e-07
-5.32638e-07
-2.6022e-07
-3.82235e-07
-3.12851e-07
-3.01654e-07
-3.95244e-07
-2.19848e-07
-4.12933e-07
-1.778e-07
-3.10725e-07
-1.69603e-07
-1.78206e-07
-8.13322e-08
-1.38539e-07
-1.0233e-06
-6.06437e-07
1.12379e-06
-8.73085e-07
-6.13055e-07
-6.29924e-07
-5.73878e-07
-4.45143e-07
-4.45002e-07
-3.26172e-07
-4.31821e-07
-2.80792e-07
-4.40624e-07
-2.69903e-07
-4.23822e-07
-2.23278e-07
-3.5735e-07
-2.07889e-07
-1.93595e-07
-1.31043e-07
-1.58178e-07
-1.03143e-06
-7.01834e-07
1.12682e-06
-8.7379e-07
-7.70693e-07
-7.23304e-07
-7.24364e-07
-5.43757e-07
-6.24548e-07
-4.48843e-07
-5.26736e-07
-3.7636e-07
-5.13107e-07
-2.84014e-07
-5.16168e-07
-2.0823e-07
-4.33135e-07
-2.23692e-07
-1.78133e-07
-1.44419e-07
-2.10316e-07
-1.01804e-06
-7.60181e-07
1.07639e-06
-9.37366e-07
-8.51365e-07
-7.85719e-07
-8.76011e-07
-5.92714e-07
-8.17552e-07
-4.70513e-07
-6.48937e-07
-3.80245e-07
-6.03373e-07
-2.75503e-07
-6.20911e-07
-1.73502e-07
-5.35135e-07
-1.65146e-07
-1.86489e-07
-1.07241e-07
-2.02324e-07
-9.75304e-07
-7.12761e-07
9.27884e-07
-9.69622e-07
-8.57047e-07
-9.02507e-07
-9.43127e-07
-7.40809e-07
-9.7925e-07
-4.74285e-07
-9.15461e-07
-3.24568e-07
-7.5309e-07
-3.46064e-07
-5.99415e-07
-3.09284e-07
-5.71916e-07
-3.0342e-07
-1.92353e-07
-4.90082e-08
-3.61652e-07
-6.00422e-07
-4.93644e-07
3.81305e-07
-8.06557e-07
-6.50913e-07
-9.18946e-07
-8.30738e-07
-9.02652e-07
-9.95544e-07
-6.85499e-07
-1.13261e-06
-3.57644e-07
-1.08094e-06
-2.65866e-07
-6.91193e-07
-3.54128e-07
-4.83654e-07
-3.54025e-07
-1.92457e-07
-3.28165e-09
-3.99751e-07
-1.55489e-08
-4.08681e-07
-6.94146e-08
-2.04922e-07
-4.6154e-07
-4.68046e-07
-5.67614e-07
-7.134e-07
-7.50189e-07
-7.3314e-07
-1.11287e-06
-4.87749e-07
-1.32634e-06
-2.00432e-07
-9.78509e-07
-2.21961e-07
-4.62125e-07
-2.46932e-07
-1.67486e-07
4.21105e-08
-2.92324e-07
1.61041e-07
-4.21963e-07
-1.47759e-07
1.40012e-07
-4.4051e-07
4.53041e-08
-4.72906e-07
-1.77787e-07
-5.27099e-07
-3.58335e-07
-9.32326e-07
-3.32404e-07
-1.35227e-06
-1.75547e-07
-1.13537e-06
-1.32107e-07
-5.05564e-07
-1.41863e-07
-1.57731e-07
1.16459e-07
-2.16211e-07
1.71783e-07
-4.2291e-07
-1.70837e-07
1.59748e-07
-4.28475e-07
1.29086e-07
-4.42245e-07
4.4373e-08
-4.42386e-07
-9.65473e-08
-7.91405e-07
-9.07466e-08
-1.35807e-06
-2.53616e-08
-1.20075e-06
1.83755e-08
-5.49301e-07
6.16659e-08
-2.01021e-07
3.02618e-08
1.47864e-07
1.96551e-07
-3.86801e-07
-2.3266e-07
1.59619e-07
-3.91543e-07
1.10814e-07
-3.9344e-07
4.45975e-08
-3.76169e-07
-2.13553e-08
-7.25453e-07
-4.05586e-08
-1.33886e-06
-9.70227e-09
-1.23161e-06
9.65632e-09
-5.6866e-07
9.46676e-08
-2.86033e-07
-3.20879e-08
1.57017e-07
2.32824e-07
-3.30183e-07
-2.89441e-07
1.79408e-07
-3.38127e-07
1.12556e-07
-3.26589e-07
4.37716e-08
-3.07384e-07
1.5533e-08
-6.97214e-07
-3.30086e-08
-1.29032e-06
-1.58673e-08
-1.24875e-06
-2.75169e-08
-5.5701e-07
2.80714e-08
-3.41621e-07
-8.54333e-09
4.52686e-09
3.03439e-07
-2.76851e-07
-3.56771e-07
2.40617e-07
-2.75305e-07
1.53893e-07
-2.39865e-07
6.35449e-08
-2.17036e-07
2.50082e-08
-6.58678e-07
-1.48468e-08
-1.25047e-06
1.37028e-08
-1.2773e-06
3.53043e-08
-5.78612e-07
1.9809e-08
-3.26126e-07
-3.26552e-08
4.39207e-08
3.31152e-07
-2.07863e-07
-4.0014e-07
2.62246e-07
-2.06399e-07
1.82231e-07
-1.59849e-07
1.02194e-07
-1.36999e-07
1.33904e-07
-6.90388e-07
1.14414e-07
-1.23098e-06
7.7908e-08
-1.24079e-06
1.73983e-07
-6.74687e-07
8.58948e-08
-2.38037e-07
-5.25044e-08
1.05744e-07
2.56064e-07
-1.65337e-07
-2.9859e-07
2.05333e-07
-1.55668e-07
1.47702e-07
-1.02218e-07
6.32288e-08
-5.25263e-08
2.60065e-07
-8.87224e-07
2.9254e-07
-1.26345e-06
3.07108e-07
-1.25536e-06
2.99748e-07
-6.67327e-07
1.1189e-07
-5.01792e-08
-3.20794e-08
9.14649e-08
1.51879e-07
-1.7868e-07
-1.38536e-07
1.65915e-07
-1.69705e-07
1.36445e-07
-7.27472e-08
2.29667e-08
6.09518e-08
2.60105e-07
-1.12436e-06
3.35176e-07
-1.33852e-06
4.47567e-07
-1.36775e-06
2.91766e-07
-5.11526e-07
3.15703e-08
2.10016e-07
5.63975e-09
-6.14888e-09
8.5161e-08
-2.28737e-07
-3.51037e-08
1.4937e-07
-2.33913e-07
1.23782e-07
-4.71597e-08
1.43722e-08
1.70362e-07
1.31306e-07
-1.2413e-06
1.83391e-07
-1.39061e-06
2.5477e-07
-1.43913e-06
6.17226e-07
-8.73981e-07
1.74963e-07
6.5228e-07
7.11909e-08
1.09411e-07
-5.80759e-08
-2.28165e-07
5.75044e-08
-6.89895e-08
-2.23e-07
-9.76664e-08
-1.84832e-08
2.42328e-08
4.84627e-08
8.86336e-08
-1.3057e-06
1.06973e-07
-1.40895e-06
7.47702e-08
-1.40693e-06
4.25446e-07
-1.22466e-06
6.06985e-07
4.70742e-07
2.36614e-07
4.41561e-07
-1.51605e-07
-1.82091e-07
1.0553e-07
-1.99724e-07
-1.74881e-07
-1.74148e-07
-4.40585e-08
1.63039e-08
-1.4199e-07
1.00265e-07
-1.38966e-06
9.13404e-08
-1.40002e-06
9.43604e-08
-1.40995e-06
1.2726e-07
-1.25756e-06
4.90422e-07
1.07583e-07
2.22331e-07
5.04705e-07
-3.39115e-07
-3.4303e-08
1.91327e-07
-5.3305e-07
1.90547e-08
-3.56091e-07
-2.21018e-07
1.58075e-07
-6.56156e-07
1.37732e-07
-1.36932e-06
1.63206e-07
-1.4255e-06
1.54932e-07
-1.40167e-06
-1.56263e-07
-9.46367e-07
7.7408e-08
-1.26085e-07
4.11356e-08
2.58605e-07
-3.91938e-07
-6.30609e-08
4.20696e-07
-2.91011e-07
-8.18747e-08
-1.34613e-07
-3.77416e-07
1.38136e-08
-8.04582e-07
2.67348e-08
-1.38224e-06
2.8515e-09
-1.40161e-06
-4.05605e-08
-1.35826e-06
-2.66871e-07
-7.20059e-07
-2.93305e-07
-9.96524e-08
8.01177e-09
-2.60176e-07
1.04113e-07
-4.02936e-07
2.35762e-07
3.09399e-07
-2.87165e-07
2.25689e-07
-2.93704e-07
1.56997e-08
-5.94593e-07
5.97435e-09
-1.37251e-06
-2.0017e-08
-1.37562e-06
-6.23745e-08
-1.31591e-06
-1.22147e-07
-6.60286e-07
-1.68705e-07
-5.30947e-08
7.82368e-08
-2.38931e-07
1.50888e-07
-5.44964e-07
-8.86204e-09
2.70531e-07
-4.06814e-07
1.90276e-07
-2.13446e-07
4.53933e-08
-4.49712e-07
1.76869e-08
-1.34481e-06
-3.30408e-09
-1.35463e-06
-2.89516e-08
-1.29026e-06
-7.55088e-09
-6.81683e-07
1.23324e-07
-1.83973e-07
7.20613e-08
1.29504e-07
-4.24427e-08
-4.59593e-07
-4.29305e-08
-3.87723e-08
-4.10489e-07
-1.14665e-07
-1.37551e-07
2.51806e-08
-5.89555e-07
3.90167e-09
-1.32353e-06
-2.27321e-08
-1.32799e-06
-5.23482e-08
-1.26064e-06
-6.54685e-08
-6.68565e-07
6.88829e-08
-3.18326e-07
-4.83165e-08
1.89257e-07
-2.26415e-08
-2.25422e-07
-2.11529e-07
-2.11826e-07
-2.21311e-07
-2.56557e-07
-9.28188e-08
3.25227e-08
-8.7863e-07
6.07464e-09
-1.29709e-06
-2.24963e-08
-1.29942e-06
-6.11745e-08
-1.22197e-06
-1.10914e-07
-6.18821e-07
-9.44766e-08
-3.34762e-07
-1.60441e-07
1.76511e-08
1.95319e-07
-8.15086e-08
-3.39231e-07
6.23606e-08
-8.836e-08
-9.49697e-08
6.45121e-08
2.16799e-08
-9.95284e-07
-6.91705e-09
-1.26849e-06
-4.23764e-08
-1.26396e-06
-6.65023e-08
-1.19785e-06
-1.16191e-07
-5.6913e-07
-1.00907e-07
-3.50048e-07
-2.44453e-07
-1.68922e-08
1.08368e-07
1.11305e-07
-3.01184e-07
5.08073e-09
1.49327e-08
-9.80888e-08
1.67675e-07
3.62068e-08
-1.12958e-06
3.1782e-09
-1.23546e-06
-2.36031e-08
-1.23718e-06
-2.76147e-08
-1.19383e-06
-5.75524e-08
-5.39191e-07
-6.56513e-08
-3.41948e-07
-3.11097e-07
9.89758e-10
1.05467e-07
2.8476e-07
-2.78922e-07
2.86807e-08
9.17254e-08
-3.82855e-08
2.34642e-07
2.52655e-08
-1.19313e-06
-8.81865e-10
-1.20932e-06
-3.06243e-08
-1.20744e-06
-8.52753e-09
-1.21592e-06
2.62144e-08
-5.73936e-07
2.28885e-08
-3.38624e-07
-3.14404e-07
2.61964e-08
2.29063e-07
3.42349e-07
-2.8665e-07
6.50606e-08
2.55732e-07
2.05881e-08
2.79113e-07
2.16861e-08
-1.19423e-06
1.01929e-09
-1.18865e-06
-1.85339e-08
-1.18789e-06
-3.60388e-09
-1.23085e-06
5.50632e-08
-6.32607e-07
8.08797e-08
-3.64439e-07
-3.16169e-07
8.26435e-08
1.92176e-07
3.42584e-07
-1.92412e-07
5.31572e-08
3.94751e-07
1.66393e-08
3.15629e-07
1.48615e-08
-1.19245e-06
3.33426e-10
-1.17412e-06
-1.57038e-08
-1.17185e-06
-1.82328e-08
-1.22832e-06
4.04859e-08
-6.91325e-07
7.55139e-08
-3.99467e-07
-3.45261e-07
1.04607e-07
-1.71072e-07
3.99835e-07
1.13822e-07
-3.25201e-07
5.48877e-07
-1.97747e-08
1.02158e-08
7.64509e-09
-1.21987e-06
1.7553e-09
-1.16823e-06
-3.23567e-09
-1.16686e-06
-1.16982e-08
-1.21986e-06
4.75475e-08
-7.50571e-07
3.83014e-08
-3.90221e-07
-3.58292e-07
5.133e-08
-6.80311e-07
4.83109e-07
5.97038e-07
-4.43314e-07
3.11871e-07
1.27564e-08
-4.45857e-07
3.38558e-09
-1.21049e-06
5.15862e-10
-1.16536e-06
-2.6607e-09
-1.16369e-06
-1.45575e-08
-1.20796e-06
9.3001e-09
-7.74429e-07
-2.79834e-08
-3.52935e-07
-3.62694e-07
-2.35822e-08
-5.15676e-07
2.85492e-07
7.1329e-07
-2.05961e-07
2.15763e-09
1.71533e-08
-6.68981e-07
-3.21627e-09
-1.19013e-06
-3.39309e-09
-1.16519e-06
-4.27023e-09
-1.16281e-06
-2.04526e-08
-1.19178e-06
-1.2908e-08
-7.81975e-07
-6.15664e-08
-3.04276e-07
-3.22508e-07
-1.01754e-07
-2.34698e-07
3.38103e-08
4.86378e-07
-6.35558e-08
-1.6896e-07
1.39678e-08
-7.46497e-07
5.81326e-10
-1.17674e-06
-2.09931e-09
-1.16251e-06
-5.79151e-09
-1.15912e-06
-2.32484e-08
-1.17432e-06
-4.92387e-08
-7.55986e-07
-1.07422e-07
-2.46093e-07
-2.41809e-07
-1.88122e-07
-7.4213e-08
-7.76722e-08
1.85695e-07
1.47966e-08
-2.57981e-07
3.13349e-08
-7.63044e-07
1.12445e-08
-1.15665e-06
2.94042e-09
-1.1542e-06
-1.43071e-09
-1.15474e-06
-2.34275e-08
-1.15233e-06
-8.72369e-08
-6.92176e-07
-1.73718e-07
-1.5961e-07
-1.30599e-07
-2.84928e-07
2.60723e-09
-1.33625e-07
5.33464e-08
6.71537e-08
-3.22523e-07
3.23533e-08
-7.28241e-07
1.32432e-08
-1.13754e-06
1.1273e-10
-1.14107e-06
-1.48798e-08
-1.13975e-06
-3.32323e-08
-1.13397e-06
-9.09339e-08
-6.34475e-07
-1.36406e-07
-1.14137e-07
-4.79402e-08
-2.19064e-07
5.89262e-08
-1.6724e-07
-2.53128e-08
6.17578e-08
-3.25351e-07
3.65973e-08
-7.0309e-07
1.84834e-08
-1.11943e-06
-4.44352e-10
-1.12214e-06
-1.97585e-08
-1.12044e-06
-3.90854e-08
-1.11465e-06
-9.96595e-08
-5.73901e-07
-1.52879e-07
-6.09196e-08
4.39175e-08
-2.44737e-07
1.48897e-07
-1.70496e-07
-1.45639e-07
9.83972e-08
-2.74841e-07
4.58207e-08
-6.50506e-07
2.44925e-08
-1.09809e-06
9.46669e-10
-1.0986e-06
-2.38152e-08
-1.09568e-06
-4.47245e-08
-1.09374e-06
-1.10625e-07
-5.08e-07
-1.99529e-07
2.79867e-08
1.30687e-07
-2.86298e-07
1.56932e-07
-1.75385e-07
-1.52043e-07
1.12029e-07
-2.29946e-07
4.93378e-08
-5.87814e-07
3.13106e-08
-1.08007e-06
7.25633e-09
-1.07454e-06
-1.791e-08
-1.07051e-06
-3.62031e-08
-1.07544e-06
-6.26419e-08
-4.81559e-07
-1.41874e-07
1.07219e-07
2.24307e-07
-2.35494e-07
9.1342e-08
-2.32246e-07
-3.44806e-08
5.77735e-08
-1.96374e-07
5.96036e-08
-5.89644e-07
4.56067e-08
-1.06607e-06
1.46051e-08
-1.04354e-06
-7.92838e-09
-1.04798e-06
-2.06663e-08
-1.0627e-06
-3.19284e-08
-4.70295e-07
-1.0903e-07
1.8432e-07
2.80804e-07
-1.6553e-07
-9.07038e-08
-2.5067e-07
1.09129e-07
-1.69549e-08
-2.70127e-07
3.34392e-08
-6.40043e-07
1.86931e-08
-1.05133e-06
-1.52285e-09
-1.02333e-06
-2.8849e-08
-1.02065e-06
-4.41333e-08
-1.04742e-06
-1.56001e-08
-4.98828e-07
-4.81083e-08
2.16829e-07
3.17056e-07
-8.43606e-08
-1.33175e-07
-2.74775e-07
1.57279e-07
-3.87988e-08
-3.64498e-07
4.28933e-08
-7.21729e-07
2.65381e-08
-1.03497e-06
2.22236e-10
-9.97009e-07
-2.52512e-08
-9.95177e-07
-4.29566e-08
-1.02972e-06
-5.42688e-09
-5.36358e-07
-1.2595e-09
2.12664e-07
3.33375e-07
-1.75773e-08
-1.0019e-08
-2.89856e-07
2.50985e-08
9.17046e-09
-3.83695e-07
4.2208e-08
-7.54771e-07
2.24138e-08
-1.01518e-06
1.42684e-09
-9.76023e-07
-1.85704e-08
-9.7518e-07
-3.76475e-08
-1.01064e-06
1.80253e-08
-5.92031e-07
9.09299e-08
1.39764e-07
3.2475e-07
9.95549e-08
3.58167e-08
-2.83996e-07
-4.16748e-08
2.54718e-08
-3.73357e-07
3.72621e-08
-7.66563e-07
1.80091e-08
-9.95927e-07
-2.12933e-09
-9.55884e-07
-2.41485e-08
-9.53161e-07
-4.28772e-08
-9.9191e-07
6.16938e-09
-6.41076e-07
1.1475e-07
3.1182e-08
2.94798e-07
1.44703e-07
4.97279e-08
-2.77283e-07
-5.64452e-08
3.59585e-08
-3.59589e-07
3.906e-08
-7.69665e-07
1.62025e-08
-9.73071e-07
1.57733e-10
-9.39839e-07
-1.50658e-08
-9.37937e-07
-3.57811e-08
-9.71195e-07
2.58577e-09
-6.7944e-07
5.377e-08
-2.00049e-08
2.46951e-07
1.01619e-07
8.57024e-08
-2.28305e-07
-1.34681e-07
5.04539e-08
-3.24335e-07
4.07825e-08
-7.59996e-07
1.88594e-08
-9.5115e-07
1.05003e-10
-9.21085e-07
-1.75135e-08
-9.20319e-07
-4.00035e-08
-9.48705e-07
-3.62358e-08
-6.83208e-07
-5.93676e-08
3.12908e-09
1.90557e-07
-2.97173e-09
1.56506e-07
-1.55086e-07
-2.29724e-07
8.00394e-08
-2.47879e-07
3.82764e-08
-7.18236e-07
1.41851e-08
-9.27059e-07
-5.14232e-10
-9.06385e-07
-1.43097e-08
-9.06523e-07
-3.78206e-08
-9.25194e-07
-5.08566e-08
-6.70172e-07
-7.00958e-08
2.23708e-08
1.45397e-07
-2.49356e-08
1.70261e-07
-8.41071e-08
-2.41244e-07
8.68747e-08
-1.64496e-07
4.15471e-08
-6.72907e-07
1.96197e-08
-9.05131e-07
1.57804e-10
-8.86924e-07
-1.96609e-08
-8.86704e-07
-4.02449e-08
-9.04609e-07
-4.54618e-08
-6.64953e-07
-3.22644e-08
9.17407e-09
1.17983e-07
-4.84905e-09
1.25491e-07
-2.79054e-08
-1.81694e-07
7.10259e-08
-1.10024e-07
3.94491e-08
-6.41332e-07
1.71848e-08
-8.82868e-07
1.24894e-10
-8.69864e-07
-1.69838e-08
-8.69596e-07
-3.87227e-08
-8.8287e-07
-3.37612e-08
-6.69914e-07
-1.99349e-09
-2.25915e-08
1.1381e-07
2.18279e-09
1.15228e-07
2.50601e-08
-1.6819e-07
7.23098e-08
-6.71058e-08
4.48097e-08
-6.13832e-07
2.44613e-08
-8.62521e-07
2.75257e-10
-8.45678e-07
-2.36785e-08
-8.45642e-07
-4.34662e-08
-8.63082e-07
-5.48228e-08
-6.58559e-07
-3.28286e-08
-4.4582e-08
1.0905e-07
-2.80668e-08
1.08477e-07
7.2993e-08
-1.56411e-07
6.35562e-08
-2.21913e-08
4.24464e-08
-5.92719e-07
2.07069e-08
-8.40779e-07
-7.39574e-10
-8.24231e-07
-2.08071e-08
-8.25574e-07
-4.26817e-08
-8.41208e-07
-6.02592e-08
-6.4098e-07
-4.04981e-08
-6.43407e-08
9.97364e-08
-3.11837e-08
8.25863e-08
1.22401e-07
-1.31997e-07
5.75902e-08
2.80804e-09
5.09937e-08
-5.86126e-07
2.99348e-08
-8.1972e-07
-5.40499e-11
-7.94242e-07
-2.95274e-08
-7.96101e-07
-5.04562e-08
-8.20279e-07
-6.81385e-08
-6.23294e-07
-4.18043e-08
-9.06734e-08
8.20318e-08
-2.40971e-08
7.35004e-08
1.62341e-07
-1.13436e-07
5.45278e-08
2.17934e-08
4.50305e-08
-5.76629e-07
2.10032e-08
-7.95694e-07
1.02669e-10
-7.73342e-07
-2.16056e-08
-7.74393e-07
-4.56645e-08
-7.9622e-07
-5.14273e-08
-6.1753e-07
-4.12427e-08
-1.00855e-07
5.81563e-08
-1.73637e-08
8.60872e-08
1.58278e-07
-8.20225e-08
6.88211e-08
3.90573e-08
5.61595e-08
-5.63967e-07
3.18768e-08
-7.7141e-07
1.17919e-09
-7.42644e-07
-3.03347e-08
-7.42879e-07
-5.58027e-08
-7.70753e-07
-8.54535e-08
-5.87878e-07
-1.0617e-07
-8.01363e-08
2.07846e-08
-6.87969e-08
8.60715e-08
1.29291e-07
-5.70871e-08
6.01425e-08
6.49884e-08
4.72695e-08
-5.5109e-07
1.99335e-08
-7.44071e-07
1.23893e-09
-7.2395e-07
-1.90522e-08
-7.22588e-07
-4.74918e-08
-7.42313e-07
-6.43023e-08
-5.71066e-07
-7.61428e-08
-6.82952e-08
-2.76733e-09
-5.25914e-08
7.36311e-08
7.35511e-08
-1.7891e-08
6.27928e-08
7.58332e-08
5.69331e-08
-5.45228e-07
2.97802e-08
-7.16918e-07
-1.48897e-10
-6.9402e-07
-2.96538e-08
-6.93083e-07
-5.74364e-08
-7.1453e-07
-5.73097e-08
-5.71191e-07
-5.07982e-08
-7.48062e-08
9.42042e-10
-5.45078e-08
-2.47475e-08
5.42081e-08
4.40954e-08
4.62022e-08
4.89352e-09
4.85643e-08
-5.47587e-07
1.93099e-08
-6.87664e-07
-1.3109e-09
-6.734e-07
-2.09994e-08
-6.73394e-07
-4.96986e-08
-6.85831e-07
-8.34238e-08
-5.37467e-07
-1.15573e-07
-4.26556e-08
3.125e-08
-1.45881e-07
9.25025e-09
3.04949e-08
1.4465e-08
7.56666e-08
-6.15243e-08
6.11895e-08
-5.33108e-07
3.216e-08
-6.58634e-07
-1.3638e-09
-6.39876e-07
-3.54883e-08
-6.3927e-07
-6.18767e-08
-6.59443e-07
-8.35097e-08
-5.15835e-07
-1.37966e-07
1.18008e-08
5.5033e-08
-1.61748e-07
4.51042e-08
-2.095e-09
-1.25151e-08
9.14057e-08
-1.07829e-07
5.6332e-08
-4.98033e-07
2.41408e-08
-6.26441e-07
3.18241e-10
-6.16053e-07
-2.28968e-08
-6.16055e-07
-5.29639e-08
-6.29375e-07
-6.04328e-08
-5.08365e-07
-1.14906e-07
6.62735e-08
5.45225e-08
-1.14395e-07
-5.5888e-09
-2.78837e-08
3.13776e-08
6.41649e-08
-1.77581e-07
6.81893e-08
-5.02056e-07
3.3806e-08
-5.92057e-07
-5.63146e-09
-5.76616e-07
-3.61299e-08
-5.85556e-07
-6.83604e-08
-5.97145e-07
-5.66641e-08
-5.20061e-07
1.14161e-09
8.46698e-09
6.39315e-08
-8.26784e-09
-1.8896e-08
-1.69201e-08
7.9339e-09
2.16594e-08
-2.1813e-07
5.19804e-08
-5.32375e-07
1.97064e-08
-5.59783e-07
5.35074e-09
-5.6226e-07
-2.8813e-08
-5.51393e-07
-6.25716e-08
-5.63387e-07
-2.25362e-08
-5.60096e-07
7.14121e-08
-8.54815e-08
6.99038e-08
6.54388e-08
8.21554e-08
-3.36504e-08
-6.54232e-08
1.16476e-07
-2.52442e-07
1.14161e-07
-5.30062e-07
8.44426e-08
-5.30064e-07
4.73516e-08
-5.25169e-07
1.69901e-08
-5.21031e-07
-2.19955e-08
-5.24401e-07
-4.42924e-08
-5.378e-07
-9.38246e-09
-1.20392e-07
7.34811e-08
-1.29603e-08
9.51453e-08
-4.95636e-08
-7.92298e-08
1.11071e-07
-2.68371e-07
6.53906e-08
-4.84382e-07
2.86614e-08
-4.93335e-07
-4.59515e-09
-4.91913e-07
-3.21763e-08
-4.9345e-07
-7.58299e-08
-4.80747e-07
-1.41136e-07
-4.72494e-07
-1.00469e-07
-1.6106e-07
6.62964e-08
-9.32841e-08
1.26157e-07
-7.53273e-08
-1.00395e-07
1.23686e-07
-2.65922e-07
7.44232e-08
-4.35119e-07
3.01699e-08
-4.49081e-07
-1.11598e-08
-4.50583e-07
-5.38728e-08
-4.50737e-07
-8.74818e-08
-4.47138e-07
-1.21709e-07
-4.38267e-07
-9.78782e-08
-1.8489e-07
5.65436e-08
-8.81251e-08
1.27193e-07
-1.16734e-07
-8.57923e-08
1.29643e-07
-2.68375e-07
8.61564e-08
-3.91631e-07
4.80535e-08
-4.10978e-07
7.74827e-09
-4.10278e-07
-3.80883e-08
-4.049e-07
-9.21692e-08
-3.93058e-07
-1.49032e-07
-3.81405e-07
-1.25592e-07
-2.0833e-07
3.33418e-08
-1.0239e-07
4.05785e-08
-1.31867e-07
-2.54477e-08
1.18831e-07
-3.46612e-07
6.67763e-08
-3.39577e-07
8.09476e-09
-3.52297e-07
-3.91145e-08
-3.63068e-07
-7.89537e-08
-3.65061e-07
-1.09667e-07
-3.62344e-07
-1.4861e-07
-3.42461e-07
-8.77655e-08
-2.69174e-07
-8.32363e-09
-4.61003e-08
2.18262e-07
-1.5389e-07
-1.96234e-07
1.48465e-07
-2.76813e-07
1.05028e-07
-2.9614e-07
6.48975e-08
-3.12166e-07
1.56872e-08
-3.13858e-07
-3.60761e-08
-3.13298e-07
-8.91886e-08
-3.09232e-07
-1.34599e-07