/*--------------------------------*- C++ -*----------------------------------*\
  =========                 |
  \\      /  F ield         | OpenFOAM: The Open Source CFD Toolbox
   \\    /   O peration     | Website:  https://openfoam.org
    \\  /    A nd           | Version:  8
     \\/     M anipulation  |
\*---------------------------------------------------------------------------*/
FoamFile
{
    version     2.0;
    format      ascii;
    class       volScalarField;
    location    "2.25";
    object      alpha.water;
}
// * * * * * * * * * * * * * * * * * * * * * * * * * * * * * * * * * * * * * //

dimensions      [0 0 0 0 0 0 0];

internalField   nonuniform List<scalar> 
9150
(
1
1
1
1
1
1
1
1
1
1
1
1
1
1
1
1
1
1
1
1
1
1
1
1
1
1
1
1
1
1
1
1
1
1
1
1
1
1
1
1
1
1
1
1
1
1
1
1
1
1
1
1
1
1
1
1
1
1
1
1
1
1
1
1
1
1
1
1
1
1
1
1
1
1
1
1
1
1
1
1
1
1
1
1
1
1
1
1
1
1
1
1
1
1
1
1
1
1
1
1
1
1
1
1
1
1
1
1
1
1
1
1
1
1
1
1
1
1
1
1
1
1
1
1
1
1
1
1
1
1
1
1
1
1
1
1
1
1
1
1
1
1
1
1
1
1
1
1
1
1
0.54717
0.547163
0.535279
0.425902
0.425806
0.426072
0.566049
0.710046
0.702829
0.494283
0.107443
0.0895239
0.179037
0.561436
0.740119
0.584789
0.569249
0.747094
0.56284
0.0535367
0.0859984
0.083918
0.0818376
0.415392
0.836965
0.838756
0.841262
0.846502
0.850553
0.562675
0.465242
0.0818376
0.077361
0.0744417
0.132513
0.458471
0.817293
0.850553
0.852073
0.853311
0.71441
0.686428
0.232
0.0691247
0.0691899
0.0692393
0.0740694
0.466828
0.850113
0.853575
0.711043
0.534307
0.0712692
0.0690782
0.0690792
0.0690779
0.0690712
0.0690845
0.0692244
0.169986
0.50715
0.250415
0.0690797
0.0690797
0.069077
0.0690712
0.0690661
0.0690677
0.0690845
0.0692245
0.0370428
0.355222
0.432607
0.434656
0.428754
0.236009
0.0690677
0.0690666
0.0691986
0.069174
0.0147895
0.0160511
0.015168
0.0167056
0.207767
0.635379
0.687656
0.693932
0.696982
0.543436
0.0147783
0.0147895
0.0148021
0.0148056
0.0148056
0.0151249
0.0353053
0.184988
0.703104
0.764289
0.0209084
0.0495262
0.0498757
0.0487682
0.0859582
0.0559845
0.193208
0.422474
0.721008
0.766284
0.188144
0.264521
0.423573
0.424469
0.421002
0.397342
0.293405
0.26854
0.317656
0.476089
0.0908017
0.0958783
0.0992522
0.0985033
0.0778998
0.0819476
0.0931017
0.123439
0.202795
0.195462
0.15436
0.153045
0.078957
0.0702053
0.0744952
0.243952
0.390462
0.557394
0.647144
0.652437
0.15609
0.136051
0.0553143
0.0829716
0.466224
0.668242
0.665437
0.662633
0.656765
0.653775
0.0677455
0.0362627
0.0479205
0.490018
0.668242
0.668242
0.668242
0.515799
0.528756
0.652437
0.0363162
0.0364189
0.268922
0.648389
0.664917
0.668242
0.411576
0.0408187
0.0507185
0.3848
0.193094
0.0362708
0.419003
0.640216
0.443558
0.547963
0.1027
0.0227903
0.0225818
0.0375251
0.113028
0.0377789
0.392148
0.561393
0.291447
0.292199
0.186301
0.0253306
0.0213369
0.0209592
0.099225
0.331493
0.640179
0.348715
0.296676
0.291447
0.51231
0.240261
0.0274444
0.0210923
0.099225
0.457306
0.640179
0.436499
0.296676
0.304594
0.523167
0.525451
0.267851
0.08052
0.108165
0.442901
0.640179
0.614479
0.299276
0.301228
0.447815
0.559125
0.564338
0.441612
0.123175
0.578521
0.638762
0.636002
0.378642
0.302538
0.307949
0.431262
0.577606
0.576499
0.188845
0.230777
0.217
0.219202
0.503765
0.39468
0.31341
0.320778
0.457188
0.577606
0.190068
0.0259601
0.0259601
0.0265717
0.427332
0.768925
0.495573
0.32688
0.331664
0.534086
0.0454088
0.024773
0.0258981
0.0316411
0.607604
0.817429
0.817542
0.626821
0.343467
0.362618
0.0231599
0.0238802
0.0259113
0.458903
0.815848
0.817541
0.817696
0.817541
0.703377
0.47599
0.0227907
0.122657
0.652489
0.715669
0.714596
0.782694
0.817541
0.817696
0.815587
0.813478
0.334477
0.82871
0.826311
0.679731
0.618794
0.618951
0.743805
0.732255
0.806627
0.609259
0.879711
0.848295
0.647295
0.617887
0.696424
0.714572
0.289204
0.124856
0.509901
0.485604
0.855117
0.505364
0.497244
0.70867
0.853004
0.717068
0.115877
0.0765389
0.275283
0.254618
0.418272
0.46036
0.809475
0.8581
0.858001
0.394569
0.0595646
0.0593797
0.143847
0.265707
0.0771483
0.608402
0.8581
0.85821
0.85863
0.411948
0.0595646
0.0597929
0.152871
0.26841
0.00188416
0.146977
0.778244
0.858648
0.859335
0.757801
0.119031
0.0602101
0.123849
0.268326
0.00082053
0.00188415
0.385381
0.859335
0.859358
0.85948
0.551796
0.0605499
0.0633585
0.203459
0.000458018
0.00082053
0.200349
0.859358
0.859503
0.859648
0.82252
0.214146
0.0654265
0.0654286
0.000241516
0.000396219
0.0629808
0.708866
0.859648
0.860056
0.860464
0.781475
0.123667
0.0660495
0.00020762
0.000252425
0.00155787
0.34975
0.859144
0.860464
0.860466
0.860468
0.844918
0.342782
0.000202568
0.000215891
0.000379029
0.110097
0.777572
0.845449
0.860468
0.860468
0.860468
0.860453
0.000197515
0.000625541
0.000480383
0.0294676
0.646174
0.608475
0.860468
0.860468
0.860468
0.860441
0.000567155
0.000938101
0.000473993
0.00530533
0.594065
0.558116
0.632073
0.860468
0.860441
0.680489
0.000938267
0.000938101
0.000369487
8.44819e-05
0.523421
0.557248
0.0551228
0.492439
0.513597
0.306848
0.000938101
0.000938256
0.000345564
8.3881e-05
0.486649
0.490317
0.000124057
0.00749989
6.03975e-05
0.000527739
0.000580093
0.000938101
0.000401243
8.39485e-05
0.477768
0.480245
0.000124802
0.000143988
4.24521e-05
2.99757e-05
6.80991e-06
0.000935374
0.000358645
8.38811e-05
0.512393
0.516479
0.000124057
0.00303843
0.000325288
3.01087e-05
6.72062e-06
0.000354103
0.000205846
7.21687e-05
0.629437
0.624942
0.000124802
0.00608614
0.000182294
2.74413e-05
6.72061e-06
6.72096e-06
4.89205e-05
5.40305e-05
0.717576
0.718552
0.000135037
0.00608611
0.00232919
0.0011479
6.72058e-06
6.7262e-06
7.11945e-05
6.48402e-05
0.755548
0.754368
0.00019619
0.0060863
0.00376902
0.00229662
6.72056e-06
4.18566e-05
0.000258326
0.00574429
0.762568
0.762839
0.00513031
0.00433788
0.00201694
0.00100805
6.72056e-06
0.000426892
0.00023773
0.0276606
0.762824
0.763
0.027692
1.69108e-05
1.53584e-05
1.66044e-05
6.2997e-05
0.000622565
3.41219e-05
0.0477396
0.763373
0.76296
0.0459466
1.45955e-05
1.49662e-05
1.75136e-05
0.000333951
0.00062375
2.47497e-05
0.0540604
0.763392
0.763354
0.0528015
1.45869e-05
1.50935e-05
2.49196e-05
0.000517891
0.00062337
2.34203e-05
0.0549283
0.763321
0.762385
0.0518686
1.45661e-05
0.000263614
3.83478e-05
0.000542768
0.000623646
2.13194e-05
0.0399666
0.761343
0.76217
0.0404765
1.36667e-05
0.000655626
0.000540932
0.000594554
0.000527246
1.87957e-05
0.0226354
0.754652
0.755642
0.0218718
1.14466e-05
0.000655754
0.000658348
0.000596104
0.00052874
1.53803e-05
0.0100792
0.740994
0.741085
0.00989285
9.60708e-06
0.00036434
0.000658348
0.000597881
0.000551084
1.07346e-05
0.00516196
0.729685
0.729895
0.00498046
8.02418e-06
0.000223978
0.000658348
0.0005981
0.000596058
7.38508e-06
0.00405334
0.726206
0.726556
0.00380268
6.60092e-06
0.000236118
0.000657549
0.000598035
0.000596735
5.52977e-06
0.00482203
0.729142
0.725883
0.00319995
5.89479e-06
0.000170867
0.000365838
0.000597769
0.00059675
4.28093e-06
0.00491731
0.744901
0.744978
0.00489088
5.53311e-06
0.000138718
2.01397e-05
0.00059695
0.000519341
3.56502e-06
0.0113979
0.776445
0.778379
0.0130348
4.99596e-06
0.000154416
1.96554e-05
0.000594645
0.000373176
3.56322e-06
0.0241525
0.804429
0.804004
0.0242841
4.23336e-06
0.000154513
0.00010579
0.000564923
6.30131e-05
3.56131e-06
0.0380608
0.822835
0.822861
0.0381784
3.80002e-06
0.000125918
0.000177731
0.000119218
5.87112e-05
3.5657e-06
0.0500951
0.835103
0.834193
0.0498674
3.65453e-06
0.000126761
0.000179873
2.28375e-05
7.01751e-05
3.56131e-06
0.0566433
0.840438
0.839942
0.0566876
3.56741e-06
0.000114819
0.000181792
0.000629591
0.000158866
3.58115e-06
0.0600936
0.842879
0.842613
0.0602751
3.52147e-06
7.73374e-05
0.000181178
0.000919266
0.000345155
3.26566e-06
0.0622988
0.844251
0.844027
0.062388
3.49136e-06
2.20761e-05
0.000111711
0.000919388
0.000338384
2.78062e-06
0.0640296
0.845258
0.845122
0.064077
3.37138e-06
6.64512e-05
2.80662e-05
0.000919379
0.00023523
2.62192e-06
0.0662553
0.847048
0.847063
0.0663139
3.12317e-06
0.000232113
0.000526667
0.000665746
9.43346e-05
2.60581e-06
0.0707062
0.85184
0.851768
0.0706426
2.41167e-06
0.000291223
0.000588991
5.13699e-05
1.40742e-05
2.60581e-06
0.0770845
0.858685
0.858782
0.0769467
1.82303e-06
0.000205149
0.000588951
7.13772e-06
7.00909e-06
2.60581e-06
0.0863719
0.868296
0.868368
0.0862098
1.79253e-06
1.82303e-06
0.000504536
9.05754e-06
1.3945e-05
2.60961e-06
0.0998894
0.880593
0.880789
0.0997396
1.68577e-06
5.86294e-05
0.000145342
1.74365e-05
1.75271e-05
2.62907e-06
0.114539
0.892034
0.892304
0.114371
1.51707e-06
5.9694e-05
6.61688e-05
1.27051e-05
2.54164e-05
2.66885e-06
0.129315
0.902243
0.902483
0.129155
1.30382e-06
5.79116e-05
5.8151e-05
1.74562e-06
2.54299e-05
2.72626e-06
0.143351
0.910948
0.911133
0.143296
1.05762e-06
7.12483e-05
0.000133775
1.73927e-06
1.78816e-05
2.79643e-06
0.156983
0.918665
0.918696
0.156838
8.8759e-07
5.86177e-05
0.000187313
1.7391e-06
1.57805e-05
2.85631e-06
0.169457
0.925164
0.925096
0.169319
8.22572e-07
2.17036e-05
0.000187125
1.73901e-06
2.32539e-05
2.90762e-06
0.182293
0.931375
0.931285
0.182234
7.84501e-07
1.07242e-05
0.000106906
1.7391e-06
2.61536e-05
2.98377e-06
0.196664
0.93779
0.937682
0.196647
7.39869e-07
1.20398e-05
1.70079e-05
1.44966e-05
2.63641e-05
3.07965e-06
0.215087
0.945097
0.944973
0.215074
6.90008e-07
1.05503e-05
3.3882e-05
0.000111689
1.45297e-05
3.18248e-06
0.236939
0.952656
0.952526
0.236931
6.55144e-07
7.71989e-06
3.65835e-05
0.000113722
4.457e-05
3.03401e-06
0.263639
0.960586
0.960432
0.263591
6.46175e-07
1.1498e-06
6.17919e-06
6.78411e-05
5.71531e-05
2.75637e-06
0.294598
0.9682
0.968055
0.294651
6.33034e-07
6.21712e-07
5.27027e-07
4.10073e-05
6.20592e-05
2.45639e-06
0.33025
0.975334
0.975215
0.330604
6.46175e-07
1.07668e-06
1.87405e-06
8.9636e-05
6.68775e-05
2.03901e-06
0.37064
0.981721
0.98162
0.371281
6.55921e-07
1.23631e-06
2.3004e-06
0.000104104
9.30612e-05
1.56608e-06
0.416278
0.987229
0.987145
0.416995
6.70015e-07
9.57122e-07
2.2749e-06
0.000104104
5.13375e-05
1.35813e-06
0.468187
0.991806
0.991656
0.468866
6.83162e-07
9.3476e-07
2.67405e-06
3.61388e-05
6.80331e-06
9.43261e-07
0.527651
0.995014
0.994846
0.528151
7.12736e-07
1.42233e-06
5.0035e-05
2.11e-06
5.09485e-07
5.20785e-07
0.597105
0.996845
0.996691
0.597364
9.82637e-07
4.27585e-06
0.000140798
2.06002e-06
5.05792e-07
5.09485e-07
0.671551
0.997889
0.997766
0.671919
3.34047e-06
4.62487e-06
0.000165629
7.98174e-06
5.06383e-07
5.06123e-07
0.753105
0.998599
0.998488
0.753521
2.06343e-06
1.85772e-06
0.000128516
6.87063e-06
5.05881e-07
0.0306427
0.820136
0.999362
0.999029
0.819749
0.0307989
1.59508e-06
3.2831e-05
1.80434e-06
5.17036e-07
0.10341
0.885943
0.999418
0.999786
0.886063
0.11456
1.41524e-06
2.83677e-06
6.91729e-07
5.39727e-07
0.17397
0.92075
0.999863
0.999899
0.960398
0.257826
1.20828e-06
1.21639e-06
7.11952e-07
7.27345e-07
0.357172
0.980837
0.99996
0.999986
0.987191
0.436157
1.26137e-06
1.20559e-06
9.02669e-07
9.57409e-07
0.581176
0.999832
0.999986
0.999997
0.999991
0.720449
2.32891e-06
1.26137e-06
9.57409e-07
0.0614448
0.837191
0.999983
1
1
0.999998
0.909819
0.144045
7.17522e-07
2.04237e-06
0.557865
0.999895
1
1
1
0.999999
0.99996
0.604596
5.23816e-08
0.316033
0.959028
1
1
1
1
1
1
0.980148
0.378172
0.316279
0.400453
0.508785
0.509095
0.4786
0.377988
0.391846
0.377998
0.444023
0.456794
0.456298
0.290621
0.309982
0.618429
0.892838
0.913699
0.913732
0.913733
0.913733
0.913734
0.913767
0.915483
0.915484
0.915484
0.915484
0.915484
0.915484
0.911694
0.792679
0.792627
0.792626
0.792626
0.792626
0.818149
0.841573
0.925877
0.932076
0.932064
0.846384
0.815633
0.0224798
0.021943
0.0212849
0.0175362
0.0157806
0.0155402
0.0169605
0.0449208
0.0919114
0.125143
0.130669
0.136978
0.136219
0.124
0.13411
0.207276
0.268517
0.312408
0.490933
0.869595
0.915358
0.915457
0.914514
0.915484
0.915484
0.915484
0.915484
0.915484
0.915484
0.799053
0.792627
0.792626
0.792626
0.808881
0.869685
0.932079
0.932084
0.931996
0.931729
0.815633
0.133678
0.0924218
0.0978974
0.0245854
0.0155402
0.0153395
0.0152873
0.0152347
0.0151719
0.0151154
0.0150672
0.0150442
0.0150395
0.0150398
0.0150401
0.0150402
0.0150469
0.0151287
0.0195806
0.162005
0.250609
0.289729
0.560328
0.769305
0.540149
0.51966
0.797462
0.915263
0.915468
0.915379
0.820386
0.792627
0.792626
0.871046
0.932115
0.932104
0.932086
0.932086
0.931564
0.830375
0.857147
0.868528
0.698852
0.175565
0.0419037
0.0427824
0.0202132
0.0152873
0.0152347
0.0151719
0.0151152
0.0150361
0.0150442
0.0150355
0.0150388
0.0150464
0.0151287
0.0158113
0.0546932
0.245445
0.389016
0.465085
0.505748
0.421175
0.350175
0.347193
0.344317
0.345287
0.543574
0.910076
0.91003
0.802772
0.821385
0.932105
0.932094
0.932107
0.932097
0.93208
0.932079
0.90605
0.853138
0.875835
0.87721
0.878357
0.862909
0.665462
0.387971
0.348275
0.419632
0.332715
0.22089
0.154811
0.0951714
0.0735859
0.0614945
0.0569833
0.0859831
0.200727
0.466061
0.771941
0.905675
0.927424
0.927352
0.927647
0.820363
0.8589
0.827686
0.649872
0.554628
0.556606
0.633188
0.887722
0.932145
0.932107
0.932088
0.932088
0.93207
0.932025
0.932025
0.932094
0.697468
0.87721
0.878357
0.882673
0.843944
0.680189
0.889672
0.893064
0.896024
0.89828
0.879344
0.852984
0.770715
0.728538
0.703835
0.695622
0.743081
0.84427
0.92025
0.927531
0.927525
0.927535
0.927647
0.928074
0.928168
0.928171
0.928171
0.928171
0.928151
0.753001
0.354735
0.708496
0.932013
0.93209
0.932088
0.932099
0.932101
0.932097
0.932092
0.932094
0.0701799
0.222879
0.815575
0.885998
0.791186
0.685872
0.687666
0.752959
0.901598
0.906323
0.914086
0.922616
0.924883
0.925712
0.925727
0.925727
0.925737
0.926021
0.92692
0.927525
0.927535
0.902975
0.891903
0.891708
0.928085
0.92817
0.928171
0.92817
0.885398
0.659388
0.350531
0.571913
0.930048
0.932082
0.932098
0.932109
0.932102
0.932098
0.932097
0.932094
0.0694978
0.257767
0.856927
0.886002
0.886006
0.735457
0.689003
0.732619
0.791248
0.744643
0.745007
0.855473
0.842008
0.890716
0.925723
0.925738
0.925737
0.883646
0.819907
0.901155
0.927525
0.820698
0.526262
0.522117
0.803072
0.928135
0.92817
0.856426
0.380881
0.350392
0.350396
0.411063
0.884515
0.932078
0.932105
0.932101
0.847641
0.900624
0.932094
0.932094
0.313472
0.335388
0.863041
0.886006
0.886006
0.886006
0.885194
0.832613
0.763001
0.765558
0.764442
0.76702
0.761186
0.761912
0.900863
0.925723
0.925736
0.805212
0.791289
0.791428
0.922421
0.819317
0.4742
0.4742
0.484655
0.88311
0.928135
0.625569
0.350388
0.350389
0.350392
0.350396
0.741346
0.917852
0.885092
0.882348
0.843479
0.93197
0.932093
0.932093
0.759787
0.57799
0.763554
0.885926
0.886006
0.870565
0.66653
0.361179
0.300325
0.366402
0.554011
0.634953
0.781856
0.861325
0.925412
0.925587
0.925705
0.925574
0.807495
0.791289
0.859343
0.91258
0.70445
0.4742
0.47545
0.806529
0.924649
0.514867
0.350388
0.350387
0.350389
0.350469
0.752242
0.916209
0.907473
0.882647
0.929365
0.931418
0.886667
0.82465
0.766363
0.766363
0.767678
0.768246
0.732878
0.510913
0.130006
0.0201614
0.0200851
0.02008
0.020083
0.0971197
0.52316
0.912206
0.92514
0.925412
0.925569
0.925051
0.924633
0.801212
0.871922
0.914055
0.914083
0.603112
0.474923
0.794292
0.926692
0.710123
0.350388
0.350389
0.350469
0.595919
0.913196
0.914937
0.872875
0.78489
0.785734
0.801949
0.806306
0.802019
0.629876
0.551733
0.340225
0.139334
0.0981949
0.0618663
0.0201135
0.0200832
0.0200798
0.0200798
0.0200799
0.020082
0.119673
0.794737
0.92358
0.925166
0.924971
0.924622
0.924571
0.89663
0.91308
0.914083
0.914087
0.886967
0.477226
0.864075
0.927361
0.802226
0.350399
0.444534
0.862123
0.926581
0.920848
0.788249
0.784771
0.784829
0.78489
0.832422
0.894797
0.889175
0.0831855
0.0439745
0.0403344
0.0240615
0.0200146
0.0199929
0.0200832
0.0200798
0.0200794
0.0200797
0.0200796
0.0201736
0.368879
0.898531
0.915211
0.923564
0.607431
0.567748
0.841486
0.913748
0.914063
0.914087
0.914088
0.914088
0.666091
0.88083
0.927604
0.905813
0.733124
0.793395
0.927781
0.927185
0.926581
0.792729
0.784776
0.784776
0.794395
0.894797
0.894796
0.894797
0.538349
0.176584
0.0216459
0.018631
0.0194472
0.0200932
0.020083
0.0200794
0.020079
0.0200794
0.0200924
0.213273
0.840878
0.896588
0.907999
0.692078
0.115423
0.0324107
0.499643
0.912679
0.913999
0.914083
0.914088
0.914088
0.69276
0.843145
0.927984
0.928199
0.92811
0.928134
0.927951
0.927782
0.863398
0.869493
0.870009
0.800919
0.78387
0.792524
0.887885
0.844214
0.653418
0.411574
0.0293463
0.0183753
0.0201005
0.0200707
0.0200794
0.0200791
0.0200792
0.0200791
0.112284
0.756651
0.875603
0.88539
0.60847
0.0387618
0.0111064
0.011098
0.0363754
0.141156
0.396985
0.87099
0.914083
0.914088
0.672122
0.726763
0.927901
0.928189
0.928186
0.928185
0.92816
0.907805
0.773338
0.79676
0.872811
0.861064
0.783785
0.783782
0.783781
0.783781
0.653852
0.436224
0.0305938
0.0200902
0.0200715
0.0200804
0.0200797
0.0200794
0.0200792
0.0688521
0.683439
0.851329
0.861853
0.61513
0.0459725
0.0110684
0.0110427
0.0110612
0.011098
0.0116081
0.0555415
0.576606
0.912521
0.785982
0.613149
0.731753
0.928189
0.92819
0.928189
0.928188
0.928185
0.91723
0.77328
0.773256
0.796829
0.867401
0.801068
0.783785
0.783781
0.78378
0.635979
0.22864
0.0200848
0.020084
0.0200827
0.0200816
0.0200804
0.0200701
0.0985926
0.696228
0.826815
0.837586
0.621838
0.0614019
0.0110684
0.011041
0.0110414
0.0110427
0.0110612
0.0175641
0.181588
0.613117
0.616216
0.613149
0.613415
0.856184
0.92819
0.92819
0.92819
0.928189
0.928191
0.81513
0.773252
0.773252
0.781634
0.836367
0.80212
0.807896
0.790053
0.783781
0.128939
0.0562799
0.0200858
0.0200848
0.020084
0.0200827
0.0665433
0.318993
0.806455
0.809351
0.81753
0.575096
0.0378456
0.0110754
0.011041
0.011041
0.011041
0.0110414
0.0772623
0.210967
0.365884
0.610227
0.616458
0.654797
0.803701
0.928188
0.928188
0.92819
0.928189
0.886422
0.817939
0.773252
0.773252
0.773252
0.773252
0.773266
0.808839
0.908569
0.908369
0.78639
0.0209841
0.0249558
0.0200851
0.0200858
0.0368816
0.28157
0.791974
0.805975
0.806422
0.796994
0.399055
0.0111616
0.0111133
0.0110911
0.0110754
0.011041
0.0468812
0.200038
0.366425
0.458021
0.774533
0.895119
0.914565
0.916473
0.928041
0.928115
0.928188
0.91858
0.793583
0.789429
0.787897
0.786869
0.773252
0.776656
0.780014
0.894106
0.908991
0.908731
0.908569
0.900868
0.0203279
0.0201879
0.0201375
0.0200935
0.393148
0.795789
0.79865
0.803342
0.748622
0.230428
0.0157297
0.0134585
0.0416597
0.0243255
0.0540739
0.242969
0.452501
0.782016
0.923578
0.915783
0.926311
0.926801
0.927167
0.927387
0.92759
0.928041
0.915873
0.870211
0.852747
0.84315
0.884178
0.925366
0.917269
0.905258
0.909569
0.909475
0.909261
0.908909
0.90853
0.907712
0.0211326
0.0203279
0.0201879
0.0362011
0.548604
0.776371
0.748642
0.435174
0.434673
0.589058
0.685881
0.542738
0.673677
0.63836
0.399361
0.426831
0.903598
0.925664
0.92583
0.926023
0.926064
0.926352
0.926801
0.861587
0.631626
0.623432
0.794703
0.92542
0.925421
0.925421
0.925423
0.925385
0.918484
0.910962
0.910735
0.904047
0.862515
0.813754
0.819809
0.828504
0.0872081
0.021955
0.0208938
0.263774
0.566404
0.403188
0.457652
0.924945
0.928289
0.932454
0.931964
0.929926
0.91959
0.618616
0.418706
0.737801
0.92573
0.925724
0.925726
0.925843
0.926023
0.923458
0.676325
0.614141
0.615176
0.616204
0.719271
0.925431
0.92543
0.925429
0.925422
0.925365
0.845976
0.845942
0.866541
0.732481
0.653926
0.653873
0.653872
0.653873
0.332382
0.244452
0.403886
0.413119
0.805791
0.932228
0.931256
0.932553
0.93255
0.93252
0.932454
0.931987
0.741861
0.56362
0.585192
0.925757
0.925742
0.92573
0.925723
0.925727
0.870976
0.612859
0.613059
0.61366
0.614134
0.723246
0.92543
0.92543
0.925431
0.92543
0.925429
0.923015
0.846329
0.846833
0.848826
0.849397
0.824642
0.696586
0.653873
0.653872
0.566599
0.641237
0.933502
0.933501
0.932484
0.932385
0.932559
0.932553
0.932813
0.93255
0.932518
0.931758
0.785789
0.563864
0.893926
0.925802
0.925768
0.925743
0.925626
0.794993
0.612787
0.612773
0.612859
0.613058
0.734887
0.925347
0.925378
0.92543
0.92543
0.925429
0.925401
0.925463
0.92578
0.925805
0.925806
0.925806
0.925806
0.925806
0.716346
0.653875
0.661793
0.72465
0.933501
0.933502
0.933432
0.932598
0.932547
0.933147
0.935052
0.926173
0.831576
0.833324
0.882985
0.925532
0.925808
0.925809
0.925802
0.925624
0.843475
0.612787
0.612724
0.612746
0.612773
0.652831
0.92531
0.925339
0.925352
0.903275
0.883145
0.885077
0.891058
0.84955
0.874807
0.923386
0.925805
0.925806
0.925806
0.925806
0.831486
0.653976
0.590524
0.551485
0.930528
0.933432
0.933161
0.932713
0.932579
0.932638
0.925589
0.831075
0.831167
0.831082
0.900167
0.925808
0.925809
0.925808
0.925808
0.925732
0.903384
0.627229
0.612748
0.612724
0.612819
0.823666
0.925275
0.92531
0.877756
0.876126
0.879256
0.875643
0.78204
0.763454
0.763536
0.782484
0.923109
0.925805
0.925806
0.925806
0.921193
0.654099
0.520947
0.62462
0.853497
0.933161
0.932593
0.931264
0.931258
0.931983
0.932264
0.931757
0.84655
0.83112
0.831213
0.861326
0.925808
0.925809
0.917365
0.925371
0.925214
0.908224
0.803677
0.797712
0.899226
0.925177
0.92524
0.925275
0.893712
0.882644
0.898251
0.898261
0.898258
0.826219
0.763448
0.764094
0.850718
0.92579
0.925805
0.925806
0.925805
0.757639
0.631195
0.408339
0.677683
0.932749
0.93252
0.932457
0.932286
0.932473
0.932473
0.834706
0.779157
0.864971
0.879564
0.879225
0.863252
0.789031
0.788925
0.861772
0.925024
0.925078
0.925013
0.924947
0.925012
0.925096
0.925177
0.838746
0.512903
0.646755
0.850957
0.897919
0.893415
0.765431
0.764174
0.801264
0.925771
0.925805
0.925805
0.925805
0.925805
0.925805
0.58642
0.359322
0.633788
0.93252
0.932478
0.932448
0.932422
0.932238
0.802533
0.777656
0.777691
0.830658
0.87943
0.879564
0.859067
0.787598
0.788906
0.788925
0.789331
0.836104
0.924842
0.924948
0.924947
0.924949
0.859072
0.424679
0.16818
0.257026
0.405235
0.480528
0.655211
0.840695
0.902404
0.925325
0.92565
0.925802
0.925805
0.925805
0.925805
0.925805
0.402702
0.360037
0.537183
0.932478
0.932449
0.932436
0.932435
0.930823
0.783354
0.777691
0.777662
0.777691
0.798485
0.87028
0.823568
0.786253
0.805166
0.911718
0.913064
0.914437
0.919666
0.921778
0.918875
0.754792
0.652657
0.388958
0.164515
0.164515
0.190426
0.258289
0.806335
0.921008
0.922709
0.92422
0.891329
0.870459
0.916061
0.915636
0.925805
0.925805
0.153742
0.394724
0.575558
0.932449
0.932437
0.932457
0.932477
0.932482
0.926386
0.906394
0.901995
0.812374
0.687352
0.820806
0.829931
0.789304
0.701955
0.699616
0.749247
0.735701
0.600808
0.569862
0.575749
0.559775
0.63871
0.766964
0.511496
0.238274
0.171483
0.172495
0.593205
0.832497
0.841692
0.551773
0.275704
0.277948
0.463299
0.84664
0.917734
0.715534
0.107215
0.375651
0.565104
0.918024
0.932457
0.932477
0.932484
0.9325
0.932527
0.932499
0.932305
0.924022
0.555716
0.233838
0.182676
0.15867
0.147128
0.144414
0.147693
0.144548
0.191233
0.385842
0.44464
0.625817
0.766796
0.76704
0.766837
0.766634
0.628436
0.225282
0.220883
0.289194
0.341164
0.0994641
0.0471511
0.279819
0.489131
0.501617
0.493696
0.503412
0.102552
0.158408
0.361033
0.384509
0.420572
0.471625
0.717738
0.927188
0.932499
0.93247
0.932311
0.755813
0.198546
0.144594
0.14441
0.14441
0.14441
0.144412
0.144414
0.144429
0.144548
0.44145
0.706906
0.717353
0.723926
0.73966
0.736529
0.720288
0.702304
0.694451
0.689809
0.684651
0.378283
0.0472252
0.0471511
0.0572783
0.25702
0.296021
0.323836
0.323958
0.101856
0.0537626
0.0512174
0.0475801
0.0466146
0.0481239
0.087214
0.514271
0.690515
0.758977
0.852604
0.895296
0.895324
0.736332
0.229856
0.14441
0.144412
0.144414
0.144429
0.144548
0.252306
0.442988
0.316958
0.221439
0.143917
0.138443
0.13035
0.117605
0.0888846
0.0649645
0.0859838
0.168828
0.235244
0.233548
0.230487
0.100427
0.00583703
0.000397721
0.00020187
0.00161718
0.188612
0.0515537
0.0475801
0.0466146
0.046414
0.0464482
0.115533
0.370647
0.230505
0.0998449
0.13248
0.139788
0.23601
0.55412
0.654287
0.559997
0.175616
0.144456
0.186272
0.405174
0.260382
0.0393168
0.000128009
6.01147e-05
4.93093e-05
4.56117e-05
4.33465e-05
4.25252e-05
4.33465e-05
4.57509e-05
5.39129e-05
6.1381e-05
7.40434e-05
0.000109237
0.0381281
0.0464723
0.00495057
0.00020187
0.000193962
0.00020187
0.164159
0.143032
0.066697
0.0473638
0.084007
0.200855
0.20369
0.171765
0.043309
0.0394665
0.0394464
0.0394426
0.0394425
0.0394425
0.0852445
0.396836
0.411069
0.200389
0.554484
0.539167
0.10801
0.000437703
0.000251802
0.00020419
0.000264858
0.000124742
8.70827e-05
3.88373e-05
0.000105532
0.000520167
0.000268945
0.000958975
0.00530041
0.00713973
0.00788089
0.00633577
0.000425551
0.000193988
0.000194385
0.00111566
0.0657519
0.150393
0.16801
0.16553
0.195609
0.197516
0.124884
0.0395647
0.0391042
0.0393789
0.0394108
0.0394425
0.0394425
0.0394425
0.0394425
0.0394425
0.0703277
0.546635
0.558671
0.301619
0.00293524
0.00127498
0.00142212
0.00207044
0.000991165
0.000143109
0.000144052
3.52857e-05
0.000557976
0.00151641
0.0015183
0.000855035
0.000363696
0.00123339
0.000869804
0.00056138
0.00019458
0.000193988
0.000318183
0.00154836
0.101358
0.102637
0.120631
0.166012
0.14324
0.049651
0.0441654
0.043061
0.0401568
0.0394409
0.0394411
0.0394426
0.0394425
0.0394425
0.0394425
0.134801
0.576658
0.58295
0.43371
0.0179269
0.00223488
0.0022082
0.00265001
0.00262587
0.000653834
2.05076e-05
6.10825e-05
2.12725e-05
2.12613e-05
5.78666e-05
6.90767e-05
3.0647e-05
2.77849e-05
0.000150768
0.000814574
0.00110766
0.000529855
0.000194038
0.000415171
0.00157332
0.544892
0.140908
0.0725917
0.0722751
0.072343
0.123704
0.410557
0.372869
0.346589
0.364237
0.393708
0.330555
0.232837
0.252528
0.386973
0.595451
0.595011
0.522446
0.0774225
0.00248297
0.00243776
0.00269904
0.00268008
0.00167709
2.05076e-05
2.05058e-05
2.05076e-05
2.14641e-05
4.44871e-05
4.62181e-05
2.67855e-05
2.67822e-05
2.68614e-05
2.77849e-05
0.000341522
0.0011076
0.00093931
0.000194038
0.000740447
0.00206871
0.849711
0.366651
0.119765
0.428096
0.594347
0.601388
0.601416
0.601871
0.602331
0.602365
0.602365
0.602365
0.602238
0.600223
0.597245
0.595713
0.49981
0.0620458
0.00384563
0.00283114
0.00258986
0.00272806
0.0022685
0.000496111
2.05066e-05
2.05076e-05
2.05318e-05
2.0931e-05
0.000276792
0.000808513
0.000705151
2.6866e-05
5.73245e-05
0.000332001
0.000598107
0.000989517
0.00125197
0.00161187
0.00206871
0.00206871
0.390341
0.217757
0.182306
0.227203
0.165476
0.0646664
0.135042
0.11283
0.151062
0.255844
0.285699
0.324062
0.337751
0.327839
0.234059
0.0597684
0.000505688
0.000609782
0.00138703
0.00278818
0.00277254
0.00275133
0.00262399
0.000593086
2.0518e-05
2.05318e-05
2.07547e-05
2.12856e-05
5.27881e-05
0.000709774
0.000941362
0.000943871
0.000943884
0.000943871
0.000943871
0.000575314
0.000796394
0.00176966
0.00189495
0.00197684
0.0340476
0.00609718
0.018121
0.00618415
0.00124918
0.00115141
4.56582e-05
4.54494e-05
4.56582e-05
4.0563e-05
3.03807e-05
2.49631e-05
2.48419e-05
2.48742e-05
2.48873e-05
9.4141e-05
0.000408771
0.00051744
0.000596178
0.00087209
0.00179776
0.00272806
0.002701
0.00200521
2.10417e-05
2.06139e-05
4.981e-05
0.00032536
0.000308525
0.000123066
0.000122984
0.000123311
0.000125114
0.000614915
0.000796342
0.000202398
0.000194938
0.000229178
0.000110563
0.00011059
0.00869952
0.00522747
0.00430818
0.00942305
0.00931385
0.00413414
6.59369e-05
4.56582e-05
4.56209e-05
0.00101097
0.00157477
0.00126084
2.48403e-05
2.48416e-05
2.49734e-05
2.73066e-05
0.000442387
0.000938261
0.000944703
0.000864911
0.000455473
0.00047139
0.00215336
0.0022369
0.00174943
2.22621e-05
3.39232e-05
0.000618485
0.00138645
0.000123014
0.000123074
0.000139721
0.000634161
0.000929469
0.000603067
0.000299847
0.000175629
0.000143716
0.00011059
0.000110566
2.99757e-05
2.99735e-05
3.46671e-05
0.00189829
0.00387405
0.00137274
5.39898e-05
4.95448e-05
0.000110024
0.00128549
0.00157825
0.000991473
2.48216e-05
2.48403e-05
2.52375e-05
0.000213597
0.000949456
0.000949456
0.000949456
0.000692291
0.000100013
0.000100051
0.000124933
0.00149923
0.00197707
0.00175133
0.000147007
0.000958166
0.00157692
0.00131072
0.000151956
0.00130369
0.00262333
0.00262333
0.00262333
0.00262296
0.00177933
0.00181744
0.00135092
0.00113452
5.88323e-05
0.000145884
9.78231e-05
7.41418e-05
0.000262532
0.000429675
6.16793e-05
5.32225e-05
9.5427e-05
0.000915828
0.00157482
0.000428707
2.48187e-05
2.48216e-05
2.49461e-05
9.88422e-05
0.000603299
0.000667674
0.000163538
0.000100241
0.000100051
0.000100007
0.000100051
0.000101465
0.00011465
0.000388681
0.00152046
0.00157692
0.00157733
0.00172797
0.00261113
0.00261996
0.00262333
0.00262336
0.00262331
0.00262287
0.00262029
0.00259945
0.00256269
0.00252293
1.28498e-05
1.62525e-05
1.10613e-05
5.95611e-05
0.000378805
0.00045673
6.97888e-05
6.17568e-05
6.94915e-05
0.00016103
0.000562354
0.000413894
2.48216e-05
2.48185e-05
2.4825e-05
2.49864e-05
3.01608e-05
3.0507e-05
0.000346678
0.000734292
0.00073801
0.000653462
0.000428763
0.000267443
0.000139001
6.4965e-05
5.54051e-05
9.02787e-05
0.000429824
0.000533104
0.00139939
0.00149992
0.00160949
0.00262331
0.00262287
0.00254996
0.00132711
0.000596442
0.000570414
0.00127388
2.09142e-05
1.07876e-05
1.07876e-05
1.52491e-05
0.000169717
0.000446149
0.00045126
0.00044564
0.000197487
0.000139091
0.000135273
0.00013334
5.35588e-05
5.19014e-05
4.4122e-05
3.961e-05
2.96397e-05
2.96397e-05
0.000257471
0.000738151
0.000738944
0.000738944
0.000738944
0.000738926
0.000736546
0.00023481
5.13494e-05
4.28642e-05
4.18855e-05
4.23154e-05
0.000124676
0.000970482
0.00065891
0.000372362
0.000847184
0.00033716
6.9575e-05
6.9575e-05
6.95311e-05
6.96336e-05
0.00060605
1.07956e-05
1.07876e-05
1.08156e-05
1.08531e-05
0.00011003
0.000147613
0.000381629
0.000381573
0.000375068
0.000369865
0.000180792
5.62815e-05
5.29524e-05
0.000109435
0.000160692
0.000156067
6.69259e-05
5.07981e-05
4.90058e-05
0.000460825
0.000738906
0.000738926
0.000738931
0.0007385
0.000330855
0.000123735
0.000174463
0.000175494
6.37981e-05
4.7711e-05
5.24086e-05
0.000597743
0.000138333
6.97981e-05
6.97782e-05
6.96397e-05
6.95098e-05
6.96336e-05
6.96093e-05
0.00130009
0.000134027
3.9653e-05
2.04601e-05
1.33584e-05
1.34786e-05
1.43445e-05
2.94897e-05
5.75305e-05
0.000146197
0.000361642
0.000356545
0.000350855
0.000193539
0.000125029
0.000163487
0.000161653
0.000161653
0.000160513
4.80077e-05
1.84443e-05
6.78465e-06
0.000168217
0.000725096
0.000737207
0.000731896
0.000387772
0.000174499
0.000174713
0.000161238
4.76284e-05
4.81528e-05
0.000442765
0.000171512
7.01317e-05
6.97981e-05
7.85787e-05
7.19877e-05
0.00028137
9.89143e-05
0.000594527
0.0010006