/*--------------------------------*- C++ -*----------------------------------*\
  =========                 |
  \\      /  F ield         | OpenFOAM: The Open Source CFD Toolbox
   \\    /   O peration     | Website:  https://openfoam.org
    \\  /    A nd           | Version:  8
     \\/     M anipulation  |
\*---------------------------------------------------------------------------*/
FoamFile
{
    version     2.0;
    format      ascii;
    class       volScalarField;
    location    "2.25";
    object      p;
}
// * * * * * * * * * * * * * * * * * * * * * * * * * * * * * * * * * * * * * //

dimensions      [1 -1 -2 0 0 0 0];

internalField   nonuniform List<scalar> 
9150
(
-205.109
-206.153
-206.661
-207.155
-207.39
-207.4
-207.175
-206.675
-206.148
-205.108
-225.111
-225.685
-226.067
-226.41
-226.578
-226.555
-226.398
-226.064
-225.682
-225.11
-245.014
-245.335
-245.572
-245.79
-245.914
-245.91
-245.802
-245.58
-245.336
-245.014
-264.759
-264.958
-265.122
-265.287
-265.368
-265.373
-265.288
-265.125
-264.959
-264.76
-284.375
-284.583
-284.714
-284.849
-284.911
-284.919
-284.852
-284.717
-284.585
-284.377
-118.279
-119.597
-119.693
-119.205
-119.124
-119.134
-119.175
-119.707
-119.597
-118.274
-134.596
-135.219
-135.464
-135.551
-135.45
-135.432
-135.52
-135.426
-135.186
-134.572
-151.113
-151.848
-152.086
-152.446
-152.492
-152.49
-152.481
-152.089
-151.859
-151.114
-168.016
-169.131
-169.422
-170.15
-170.248
-170.262
-170.132
-169.42
-169.137
-168.02
-184.569
-186.943
-187.586
-188.426
-188.638
-188.657
-188.409
-187.576
-186.934
-184.562
-25.1181
-26.6152
-28.5027
-29.4615
-30.1445
-30.3235
-29.9625
-29.0938
-27.0895
-25.9216
-45.9126
-45.9946
-47.1099
-47.3617
-47.7812
-47.8091
-47.3212
-47.154
-46.1668
-46.1467
-65.6089
-65.5357
-66.6705
-66.1729
-66.8007
-66.877
-66.3036
-66.8655
-65.6893
-65.8082
-88.4032
-85.7714
-87.2161
-85.4292
-85.8508
-85.9186
-85.4054
-87.2996
-85.8336
-88.4696
-116.487
-105.122
-105.48
-103.235
-103.111
-103.113
-103.22
-105.517
-105.153
-116.599
388.042
396.503
407.241
414.167
420.949
428.116
427.152
425.436
411.122
400.725
374.416
380.003
381.939
386.036
404.388
396.154
398.009
406.454
401.692
406.295
370.116
368.032
367.018
363.732
369.408
368.271
368.215
376.655
381.932
388.798
354.712
355.057
352.842
344.456
333.061
324.302
338.36
350.302
362.247
369.916
344.635
348.347
327.362
330.121
327.996
326.483
326.223
323.997
333.592
340.242
337.709
321.843
324.357
327.651
326.975
325.507
324.007
322.933
321.788
316.634
339.162
326.325
332.179
330.361
328.863
326.454
322.936
319.466
316.217
311.834
322.215
316.969
335.451
347.253
336.217
325.738
324.64
321.073
317.208
313.374
321.639
321.842
322.243
322.577
320.841
337.974
335.941
335.616
317.775
298.647
323.342
322.696
322.448
322.549
323.469
324.098
323.534
317.288
316.297
301.582
323.783
322.704
321.176
321.82
323.409
326.987
322.126
324.994
330.074
312.601
320.752
324.635
335.331
348.487
346.38
351.51
360.396
368.994
371.51
360.416
309.955
315.905
322.573
331.146
342.956
353.605
353.212
339.503
298.261
229.165
305.973
313.08
315.363
322.336
327.669
320.156
297.237
255.634
203.071
150.477
296.505
296.562
302.792
304.317
306.189
290.311
253.559
209.615
166.849
129.576
286.012
288.262
288.361
284.538
260.425
227.309
181.129
147.814
132.322
122.538
280.368
279.613
275.255
254.791
227.733
184.044
139.671
146.826
141.427
128.581
258.29
267.414
239.022
231.072
201.593
167.207
134.351
135.789
134.848
129.36
235.784
247.881
215.206
206.659
178.396
151.872
132.827
132.878
130.665
127.901
220.161
212.831
204.107
177.315
168.221
157.628
154.999
128.205
126.03
124.661
211.219
179.893
183.595
156.796
158.66
148.974
148.981
134.503
119.965
117.653
194.961
166.864
170.757
157.241
150.592
145.779
132.305
138.184
130.49
116.632
177.879
151.904
142.228
142.876
142.688
148.695
147.327
148.226
158.578
146.351
159.555
154.65
150.976
154.817
161.556
162.564
173.865
183.542
192.785
205.462
172.365
171.024
171.19
171.27
166.235
192.427
189.008
214.98
240.688
260.075
172.941
174.712
174.723
174.114
171.886
185.871
202.715
222.959
260.253
289.205
174.703
176.176
175.541
169.481
171.006
172.042
178.732
200.215
223.023
242.691
173.722
173.194
170.405
172.719
161.087
144.363
127.944
119.086
108.658
114.962
171.089
182.239
204.223
174.771
146.443
110.002
75.561
57.2777
44.3893
3.46329
224.654
246.959
220.817
179.901
116.266
67.1672
55.8112
58.1484
37.8795
28.8538
239.434
242.046
208.735
123.779
68.6914
36.2441
40.1776
46.7931
37.0887
43.962
195.835
181.533
117.127
42.2511
18.4527
32.4267
36.6735
38.1765
32.5651
34.4285
103.232
69.288
54.6701
35.2614
26.4503
31.1658
34.5944
34.444
27.7893
31.6178
25.5795
12.876
18.0585
28.8807
34.1547
27.5261
28.2659
30.1341
25.7593
29.599
2.72516
2.80891
2.03447
12.5404
23.238
23.6942
28.9444
29.7191
29.3041
22.1318
0.253207
0.295402
-0.151468
4.87073
17.0575
32.2399
33.4103
32.5543
32.9346
31.9826
-0.850307
-0.911596
-0.840233
3.20216
29.4535
63.1422
44.4082
35.1935
36.1469
36.0193
-1.55114
-1.65839
-1.47231
-0.879208
23.8287
81.6669
47.2545
43.4379
33.4747
28.2237
-1.71659
-1.83837
-1.66623
-1.51336
13.8862
63.1837
35.0402
40.2674
32.2197
28.3685
-1.36031
-1.43626
-1.44737
-1.29951
1.30876
31.3695
23.6723
28.1884
26.1664
23.5394
-1.18155
-1.20723
-1.19578
-1.18213
-1.35941
9.8952
7.97798
15.534
21.1544
10.4516
-1.15976
-1.1818
-1.15873
-1.15181
3.76427
9.69926
2.22895
-8.14058
21.0165
5.60743
-1.17291
-1.17352
-1.14231
-1.13764
14.2495
11.8927
1.29634
-0.088404
-0.243853
-0.0564831
-1.20907
-1.17352
-1.17522
-1.14785
13.1185
17.3421
0.295754
-0.018692
-0.177443
-0.240429
-1.2241
-1.17844
-1.18962
-1.17643
15.643
17.8115
-0.0997893
-0.259377
-0.275898
-0.293582
-1.24056
-1.22841
-1.22014
-1.2161
21.6402
21.4429
-0.200647
-0.241815
-0.278708
-0.283206
-1.26272
-1.26386
-1.25513
-1.25824
24.4302
25.846
-0.212034
-0.250111
-0.277748
-0.296888
-1.29321
-1.29091
-1.28919
-1.28708
26.1902
26.0417
-0.123394
-0.242346
-0.244536
-0.300807
-1.31656
-1.31364
-1.31967
-1.31496
26.2782
25.2918
-0.150957
-0.12527
-0.26844
-0.291286
-1.32765
-1.32227
-1.29914
-1.19019
16.4324
33.6554
-0.510476
-0.299863
-0.321666
-0.317542
-1.35341
-1.37257
-1.39728
-1.48919
43.3458
5.30772
-0.271967
-0.342409
-0.371847
-0.386028
-1.36475
-1.40382
-1.42948
-1.50576
42.9978
5.70891
-0.274596
-0.369712
-0.397897
-0.413606
-1.3643
-1.402
-1.43442
-1.51287
41.4569
6.43824
-0.333813
-0.439693
-0.479094
-0.47735
-1.34723
-1.35468
-1.35581
-1.31765
21.0007
27.7487
-0.609842
-0.578798
-0.608755
-0.593836
-1.32145
-1.33298
-1.30917
-1.29474
24.1147
25.2467
-0.643885
-0.636073
-0.670229
-0.65718
-1.31377
-1.31818
-1.28934
-1.29689
24.2493
24.7018
-0.671079
-0.668907
-0.691861
-0.693147
-1.29983
-1.29721
-1.26
-1.25498
23.8834
24.5645
-0.689875
-0.688867
-0.703532
-0.707361
-1.29292
-1.28492
-1.23499
-1.21112
22.9045
25.3993
-0.713505
-0.700007
-0.713635
-0.715528
-1.29545
-1.29059
-1.24804
-1.25995
30.1508
17.9692
-0.700109
-0.715316
-0.732662
-0.746346
-1.29783
-1.29295
-1.24629
-1.24805
24.4044
24.8789
-0.755059
-0.753131
-0.759664
-0.760628
-1.30113
-1.29895
-1.24828
-1.26033
23.897
27.5321
-0.77718
-0.76943
-0.77327
-0.773059
-1.30785
-1.31995
-1.27205
-1.29579
26.2808
26.4828
-0.767653
-0.764031
-0.774979
-0.781353
-1.32354
-1.32505
-1.30944
-1.31448
26.2859
26.8636
-0.770933
-0.763142
-0.777443
-0.782964
-1.37925
-1.37122
-1.36646
-1.37069
27.8495
25.3145
-0.790131
-0.788206
-0.807531
-0.808283
-1.41516
-1.41907
-1.41407
-1.41689
27.4947
25.3717
-0.841978
-0.835414
-0.855883
-0.859741
-1.42659
-1.42691
-1.41486
-1.42122
26.5854
25.9913
-0.918433
-0.914246
-0.927945
-0.932553
-1.43628
-1.44155
-1.41195
-1.42842
27.1377
25.2257
-0.995976
-1.00203
-1.00292
-1.01216
-1.46986
-1.44466
-1.41675
-1.4281
26.5432
25.6185
-1.07115
-1.07329
-1.0736
-1.07625
-1.49698
-1.45706
-1.43895
-1.44032
25.6438
26.3587
-1.09984
-1.09402
-1.10586
-1.10218
-1.52135
-1.48524
-1.48081
-1.48482
26.0463
25.8753
-1.11689
-1.11436
-1.1356
-1.13185
-1.54319
-1.52881
-1.5333
-1.53895
25.8421
26.0804
-1.12939
-1.12384
-1.13792
-1.15746
-1.57822
-1.57234
-1.57212
-1.58131
25.8459
26.0155
-1.16498
-1.1566
-1.15342
-1.19104
-1.60302
-1.60367
-1.59943
-1.60576
25.7283
26.1308
-1.21823
-1.21086
-1.21731
-1.22588
-1.6182
-1.61916
-1.61724
-1.61914
25.586
26.0869
-1.25339
-1.24922
-1.25617
-1.25615
-1.63422
-1.6356
-1.63474
-1.63616
25.4554
25.9133
-1.27808
-1.27622
-1.28135
-1.28207
-1.64755
-1.64914
-1.64869
-1.64853
25.1727
25.7944
-1.30131
-1.30074
-1.30595
-1.30916
-1.65887
-1.66019
-1.66025
-1.66042
25.2886
25.2354
-1.32573
-1.326
-1.33044
-1.33616
-1.66997
-1.67059
-1.67073
-1.67431
25.1906
24.8232
-1.35858
-1.35616
-1.35624
-1.36732
-1.68027
-1.68022
-1.68057
-1.68932
24.8282
24.6041
-1.40513
-1.39679
-1.39586
-1.40301
-1.68973
-1.68926
-1.68981
-1.7039
24.4596
24.3257
-1.44962
-1.43512
-1.43569
-1.43878
-1.6994
-1.69802
-1.6977
-1.71457
24.0372
23.9274
-1.47923
-1.46267
-1.46359
-1.46464
-1.70573
-1.70556
-1.70729
-1.72706
23.5471
23.4257
-1.50436
-1.48535
-1.48506
-1.48605
-1.72038
-1.72236
-1.72148
-1.74431
22.9487
22.7025
-1.53184
-1.50966
-1.50894
-1.50981
-1.74075
-1.73964
-1.73716
-1.76162
22.0783
21.995
-1.55919
-1.53461
-1.53388
-1.53419
-1.75246
-1.75316
-1.74944
-1.77567
20.7858
21.2346
-1.58955
-1.56118
-1.55987
-1.55969
-1.76297
-1.76052
-1.75638
-1.78704
19.3228
20.3562
-1.62295
-1.58898
-1.587
-1.58686
-1.77054
-1.77074
-1.76445
-1.80402
17.7545
19.066
-1.65944
-1.61652
-1.61393
-1.6141
-1.77957
-1.77851
-1.77594
-1.83042
16.2648
17.4269
-1.70112
-1.64339
-1.64018
-1.64094
-1.79299
-1.79012
-1.79089
-1.8496
14.4539
15.2995
-1.73006
-1.66853
-1.66493
-1.66871
-1.80527
-1.80322
-1.80465
-1.8494
12.218
12.7829
-1.74381
-1.69651
-1.69133
-1.69911
-1.81664
-1.81548
-1.81915
-1.91598
9.07983
10.5077
-1.83806
-1.73525
-1.72126
-1.726
-1.83272
-1.83564
-1.82349
-2.06115
6.7298
7.62524
-2.01955
-1.70893
-1.74621
-1.74334
-1.85943
-1.85526
-1.87325
-2.15125
5.83488
4.23291
-2.05529
-1.79014
-1.77007
-1.77324
-1.8744
-1.87214
-1.93631
-1.64961
2.42755
3.17363
-2.38444
-1.87612
-1.795
-1.79578
-1.88738
-1.8891
-2.04977
-1.8293
0.404043
1.52607
-1.35111
-1.97721
-1.81871
-1.81884
-1.89857
-1.90017
-2.2632
-0.812033
0.163625
0.237915
-1.63287
-2.39391
-1.85689
-1.84402
-1.91018
-1.90701
-3.52812
-1.87845
-0.705975
-0.613818
-1.30495
-3.0936
-1.8162
-1.85756
-1.92737
-2.28838
-4.88104
-3.23231
-1.93487
-1.39818
-1.96254
-4.12042
-2.69074
-1.89147
-1.93449
-3.693
-4.76051
-4.84214
-5.23687
-5.58181
-5.80547
-6.08527
-4.38894
-1.90151
-2.73257
-9.49219
-12.8825
-14.6716
-15.3457
-15.274
-14.4018
-12.4753
-9.40426
-2.7373
395.588
402.529
414.045
424.736
421.139
414.427
413.007
416.897
418.132
415.539
415.131
418.725
422.599
430.613
443.204
442.896
442.291
443.552
448.467
455.777
463.92
471.856
479.393
487.832
494.371
499.339
503.828
507.54
511.949
514.194
516.946
519.185
519.664
518.849
518.768
518.768
519.541
519.738
520.573
521.841
408.315
408.005
408.176
408.046
407.764
407.534
407.383
406.861
405.197
403.339
404.268
407.408
411.582
413.828
414.703
416.132
419.078
419.968
416.6
425.859
443.951
459.269
471.847
477.692
479.745
483.064
487.277
490.466
494.528
495.611
497.862
499.694
500.586
501.067
501.112
501.061
501.617
501.759
502.169
505.809
401.407
404.339
404.801
405.584
406.341
406.606
406.877
406.995
407.176
407.816
408.868
410.208
411.295
412.413
413.66
415.143
416.944
418.616
419.408
416.834
430.311
448.329
449.795
465.779
471.986
478.678
474.668
478.304
480.552
483.617
482.143
484.277
484.304
483.929
484.113
484.032
484.168
484.528
484.913
488.699
379.142
389.636
396.681
400.427
404.596
405.625
405.808
405.806
406.076
406.739
407.908
409.347
410.843
412.103
413.259
414.317
415.531
416.9
417.861
421.69
436.901
450.537
460.456
471.142
481.776
484.501
483.265
479.71
468.374
465.845
468.058
465.171
465.233
463.213
462.734
462.709
463.509
465.374
466.615
468.481
348.034
357.081
363.493
374.899
386.317
391.253
395.002
398.121
401.694
402.309
403.963
405.547
406.162
407.78
409.467
410.642
410.291
407.518
407.286
413.646
426.256
436.256
443.768
448.392
452.11
453.874
451.667
447.729
445.169
440.483
433.242
435.036
439.458
440.985
441.991
443.505
445.742
449.141
451.75
453.06
310.42
311.104
314.867
327.867
337.81
348.647
345.34
349.72
357.199
364.347
371.842
379.898
385.347
389.779
392.083
391.894
391.775
394.019
399.391
406.282
414.318
420.044
421.848
424.572
426.398
426.112
423.763
420.102
415.021
402.233
422.636
405.972
412.571
417.749
422.258
426.538
430.968
437.174
441.592
443.743
307.999
301.094
291.168
298.25
297.087
297.356
292.366
288.79
297.555
302.98
311.464
325.804
340.593
352.83
363.294
370.508
375.91
381.641
387.844
392.835
397.786
401.837
400.844
400.954
401.538
400.141
396.711
389.399
380.654
372.555
393.381
382.242
389.718
398.342
405.622
411.772
418.276
424.162
427.764
429.303
310.052
297.266
275.975
263.174
255.134
250
247.242
239.453
240.482
242.512
252.092
270.494
289.88
309.152
329.22
344.921
355.922
363.713
373.771
379.242
385.945
384.411
396.163
395.411
386.995
384.249
378.168
365.293
364.015
363.525
367.719
368.077
372.185
381.034
388.397
394.39
406.773
409.367
411.228
413.055
290.917
285.831
254.108
233.073
220.055
200.992
192.648
180.838
182.228
186.07
195.932
212.645
240.615
268.665
293.098
318.581
338.646
352.905
363.161
369.216
379.472
377.123
384.792
385.25
382.442
377.53
373.918
351.676
351.5
349.185
351.425
353.943
353.073
358.9
366.807
379.522
390.265
393.895
396.2
396.826
274.489
254.731
220.629
195.524
174.767
154.804
138.38
132.347
127.972
123.825
123.548
143.891
176.336
220.528
261.689
296.143
325.203
343.943
354.601
362.648
365.499
369.55
369.995
381.012
379.631
373.276
374.446
347.758
346.367
340.665
340.05
341.593
341.2
350.938
359.705
368.425
377.092
381.715
383.426
385.98
277.127
226.4
183.351
151.264
135.663
127.442
122.99
123.95
123.368
123.004
123.66
123.352
129.623
168.394
225.384
275.752
311.947
328.986
339.68
351.026
353.126
359.827
362.253
366.604
377.93
359.066
365.837
349.203
349.313
346.255
342.994
337.745
335.542
343.637
349.508
359.567
366.689
371.948
376.335
377.693
308.04
173.56
118.024
107.397
106.996
114.354
118.06
120.13
121.316
122.002
121.969
121.576
121.365
133.735
179.768
220.028
257.882
284.93
296.404
308.477
320.215
332.369
342.137
349.469
376.359
351.316
352.013
339.133
355.124
343.496
332.932
330.449
327.758
327.854
332.897
338.141
345.038
352.567
359.828
361.579
153.082
112.563
104.748
107.772
114.065
118.945
120.619
121.134
121.443
121.444
121.368
121.991
119.533
126.682
145.989
156.428
169.97
170.206
202.749
238.139
264.61
288.389
308.887
326.95
348.263
341.188
341.886
335.851
333.429
323.31
313.649
307.581
303.317
304.843
309.323
310.762
313.253
321.667
327.742
330.088
107.554
96.3302
95.3922
100.023
107.743
112.463
115.734
118.993
120.602
121.232
121.428
121.288
121.997
127.179
132.289
132.513
136.077
139.871
132.74
173.879
204.099
232.637
258.676
277.541
304.791
310.015
314.863
315.984
311.181
300.703
290.299
280.176
273.085
274.392
279.694
283.045
285.726
288.009
295.955
297.14
98.9758
94.5819
94.1117
97.3037
103.794
110.865
116.548
119.492
120.827
121.263
121.336
120.985
128.653
128.402
129.394
129.326
129.299
130.012
129.214
131.728
142.851
172.608
210.962
227.412
253.894
267.05
271.206
275.765
275.206
269.813
262.243
252.902
247.164
239.416
246.562
253.648
257.89
261.206
266.601
269.826
106.884
100.089
99.5824
102.844
107.003
111.784
115.973
118.865
120.087
120.482
118.81
131.009
132.15
129.314
129.193
129.692
129.726
130.457
131.357
132.802
132.692
137.816
174.447
182.483
214.781
224.451
230.321
238.184
241.716
241.507
239.263
235.044
229.665
226.339
225.454
239.381
241.414
245.314
249.081
251.895
130.44
108.571
106.961
108.254
111.073
114.493
116.828
118.283
118.647
117.809
128.571
130.224
128.824
128.099
128.909
129.284
129.493
130.012
130.864
131.768
129.579
134.7
148.66
161.507
177.54
192.669
204.74
214.204
221.226
225.694
227.966
228.228
228.343
228.182
228.535
231.541
233.395
235.692
237.904
240.16
126.89
118.296
114.77
114.129
114.25
114.562
115.987
115.717
118.338
122.175
123.916
124.485
125.943
127.345
127.404
127.844
128.226
128.259
128.05
130.321
130.296
135.402
147.719
159.31
169.646
181.358
191.38
201.189
210.566
217.584
222.337
225.956
226.785
226.754
226.5
226.285
225.653
229.907
231.711
233.078
125.781
122.938
120.139
118.285
117.228
115.283
111.969
113.263
115.84
112.87
115.955
125.611
126.139
125.973
126.779
127.073
127.255
127.164
128.186
131.169
130.784
136.847
146.003
155.817
166.439
175.432
186.061
196.428
208.17
216.159
220.074
221.795
221.893
220.954
219.491
217.483
216.907
217.789
217.455
217.48
123.169
122.294
120.313
118.967
119.114
118.592
111.586
101.401
98.4406
111.944
124.272
123.827
123.818
125.377
126.354
123.924
124.829
129.434
131.397
130.937
133.767
139.077
145.348
153.077
161.422
170.329
181.123
192.038
202.292
208.695
211.161
213.436
212.817
209.942
207.631
205.713
203.939
202.953
202.753
202.885
117.537
117.076
115.67
114.001
106.357
104.941
115.691
117.318
108.887
94.3904
97.6562
100.763
117.598
124.559
116.859
120.026
119.759
124.241
127.818
130.617
134.018
138.68
144.054
149.551
161.529
171.037
172.842
184.164
193.007
198.298
201.062
201.095
199.654
196.72
193.999
191.22
189.007
186.856
184.859
185.809
112.962
111.53
110.008
103.268
105.517
104.029
92.0227
88.9134
97.5599
102.472
107.391
112.111
118.628
114.297
123.858
112.713
116.851
120.202
123.67
127.163
131.109
134.943
138.569
143.781
150.383
157.908
163.138
171.007
178.725
183.443
185.437
185.213
184.743
182.369
179.631
180.023
182.242
180.748
179.101
180.723
135.813
112.642
97.4876
96.7459
95.3641
107.027
110.929
111.967
111.418
111.368
111.39
111.877
109.335
120.135
116.681
114.335
115.916
118.453
120.695
122.996
125.371
128.151
130.188
131.68
133.865
138.606
145.459
152.381
157.991
162.247
165.021
166.146
167.224
166.813
165.897
166.107
166.936
168.187
168.928
171.645
208.943
208.521
187.955
173.305
159.373
149.624
140.769
133.218
126.658
121.09
116.939
113.487
111.205
124.494
110.66
111.407
112.881
114.486
115.727
118.302
120.736
121.954
122.557
122.228
122.724
126.284
130.562
134.769
138.734
141.937
144.37
146.014
147.467
148.545
149.549
151.049
152.383
153.898
151.746
154.965
297.318
308.137
270.726
234.559
205.969
182.867
164.784
150.636
138.463
128.249
122.698
117.216
111.676
110.116
108.596
107.752
108.2
109.288
110.916
115.644
116.685
117.086
116.683
115.412
114.496
114.844
117.594
119.45
122.417
124.797
126.731
129.41
129.508
130.987
132.854
135.429
136.645
137.58
137.551
143.674
311.344
324.386
290.63
253.608
223.111
196.76
174.927
156.203
140.554
128.95
119.667
112.379
106.822
104.661
102.772
101.805
101.922
103.088
104.566
111.305
112.805
113.009
112.688
109.334
110.423
109.451
107.373
108.947
109.42
109.738
112.704
115.367
115.359
115.366
115.965
119.24
121.266
122.427
123.278
132.099
253.125
262.134
263.902
233.271
206.976
183.643
163.578
146.748
131.547
118.871
108.275
102.626
97.2157
92.4325
90.441
88.4936
87.896
89.7976
92.6833
95.4292
98.9717
99.7677
97.1042
94.5361
95.2666
95.4188
94.3204
93.9634
94.4433
95.4025
95.6376
93.9211
99.0869
99.0804
98.3207
100.078
102.672
105.402
106.958
113.299
124.582
169.481
184.884
177.337
163.954
149.726
136.021
123.686
111.653
100.775
95.748
85.3546
81.1752
77.6357
76.1461
77.92
75.6776
72.3351
74.4026
77.2315
79.4333
80.9401
80.2503
78.3422
75.264
71.7926
80.2205
76.2824
78.2002
80.3287
78.8963
78.1489
79.9902
78.4197
77.1693
77.6297
79.8416
83.2574
85.7519
87.8977
37.3572
83.9336
94.2867
105.366
106.994
103.252
97.86
92.0431
87.6484
82.754
74.9003
65.7879
62.3521
61.0709
59.385
59.6939
58.5419
57.8786
58.0822
59.8135
64.0509
67.6598
68.4851
68.2786
64.9436
62.2429
75.1852
68.3616
65.6945
65.443
62.6289
61.1329
60.3789
58.4701
55.0492
53.7587
54.8471
57.6962
62.1151
66.0874
30.9724
43.8216
47.8812
58.2615
63.5887
65.3078
64.9909
63.3181
64.0965
60.685
55.6386
49.5019
43.2826
44.523
42.1671
42.9062
41.516
44.0581
45.3967
46.6262
49.3308
55.0691
58.3094
54.5206
55.3373
59.4484
67.7773
68.1023
64.2208
57.7305
52.2587
51.8889
47.5866
33.485
16.0462
9.66902
21.6534
29.9391
39.8716
39.986
46.4185
38.4611
26.6503
30.1469
33.6937
37.4032
39.133
39.7584
40.4354
39.6768
37.6459
32.129
30.9318
22.865
22.8597
20.4845
18.7502
19.1506
20.7945
21.9814
25.5095
33.0965
40.3221
45.49
47.5437
57.5594
56.1833
59.442
62.076
60.0781
45.5653
42.6839
43.0513
29.2329
26.3353
23.4409
15.8204
21.9213
30.5444
29.8337
34.411
36.3032
24.9699
25.2031
17.6368
15.2922
15.1268
14.8754
16.5471
18.2332
18.7415
12.9877
9.53586
15.6796
13.0929
11.218
10.5685
10.3845
10.1421
9.47494
8.63108
8.34693
22.1464
30.6258
40.7775
45.7507
51.1218
53.9873
45.7726
36.8384
33.5486
29.3464
33.4278
34.4623
33.3142
13.707
17.8949
20.9856
18.0081
20.3254
24.7309
19.2238
18.1503
9.98577
3.56713
-0.245076
-2.79938
-3.10729
-1.3307
0.351524
1.73131
-0.00122835
4.086
9.53009
8.49846
5.34752
4.31234
4.2154
4.34099
2.86785
2.36807
1.41667
13.044
17.3647
18.0483
19.2157
20.1822
22.9426
23.8948
25.1157
24.2482
22.3195
22.031
24.5174
22.3909
18.7738
18.5224
2.21022
4.79908
5.11075
15.122
14.4525
11.5848
7.61081
5.03243
4.69202
1.95431
-4.17211
-3.58271
-0.267656
2.93848
12.3547
20.9626
8.85687
1.82624
0.412133
-1.60318
-0.852489
-0.611634
-0.714468
-1.54975
8.39125
0.403995
0.459328
0.7128
1.01724
1.37826
1.28961
0.980601
0.47977
0.0869994
1.20136
3.72596
13.0722
7.11693
2.36036
2.30319
1.21008
1.37188
1.52989
19.4658
13.5978
13.2812
10.5341
8.28608
7.46797
3.12158
9.80166
3.93844
5.89453
5.9642
6.27632
4.11748
5.78742
25.7843
4.27319
-7.47199
-5.40743
-6.00731
6.14222
-3.87382
-1.0745
-0.0067109
-0.0227801
-0.0451425
-0.0777819
-0.103847
-0.136878
-0.195134
-0.298904
-0.436689
-0.589005
-0.815075
-1.03124
-0.937959
0.318595
0.311784
0.829982
0.959781
0.976712
25.4871
19.3108
17.4194
16.6804
12.2895
9.87954
8.36682
3.21685
3.08593
3.08107
3.52395
3.97234
4.46222
4.65772
3.16084
3.77621
5.6038
6.57833
12.4339
9.97647
-0.729263
0.0138741
-0.00109042
-0.0311276
-0.0767253
-0.112029
-0.137797
-0.165715
-0.216343
-0.296361
-0.370559
-0.525
-0.818726
-0.943709
-1.04364
-0.668105
-0.228379
0.233245
0.392336
0.50228
33.0999
25.3809
22.7753
18.3308
15.1581
12.3723
8.27197
8.57702
6.39832
5.60425
5.32356
5.3265
5.91812
6.74916
7.28783
8.5781
7.35024
9.49087
16.4875
0.766533
-0.0101159
0.124945
0.0277138
-0.01234
-0.10835
-0.137889
-0.155788
-0.18194
-0.228295
-0.253518
-0.295583
-0.41953
-0.468751
-0.436487
-0.387402
-0.275783
-0.12059
0.0351606
0.125072
0.210506
27.3632
25.1978
21.9784
19.1377
10.8089
12.4079
11.2217
7.53223
5.47835
4.93231
5.06889
5.24489
5.52659
6.24908
6.95071
4.96396
0.647584
5.03525
0.407741
0.41522
0.377083
0.242902
0.134974
0.0021118
-0.105557
-0.132513
-0.149359
-0.179001
-0.211253
-0.233123
-0.254082
-0.27501
-0.289425
-0.276318
-0.236718
-0.108251
-0.0113078
0.0663187
0.083599
0.128287
21.3492
18.077
22.8831
21.646
19.5427
16.9148
17.5303
7.27562
0.250237
-4.71099
0.324325
0.229161
1.07993
0.703216
-0.360225
4.86755
3.5304
0.242173
0.372993
0.470879
0.415411
0.30285
0.110287
-0.0530349
-0.114167
-0.140775
-0.162657
-0.181399
-0.202445
-0.222521
-0.230412
-0.227668
-0.216522
-0.195594
-0.166212
-0.0657123
-0.0137688
0.058399
0.0588733
0.0933436
21.3689
14.9352
25.1288
17.3845
15.4403
26.6722
22.3903
20.846
17.7059
15.5476
14.8198
13.443
14.1214
14.5995
13.7613
11.9735
5.58455
0.970178
0.50422
0.367925
0.259616
0.146002
-0.0236309
-0.106028
-0.142198
-0.164208
-0.181557
-0.193782
-0.204626
-0.179143
-0.192779
-0.196087
-0.187166
-0.174078
-0.141318
-0.0983748
-0.0509728
-0.00900192
0.032088
0.0339339
5.56788
2.08242
2.35591
4.97727
0.780219
0.779491
1.08052
0.659484
0.845568
3.19052
3.57523
3.82562
5.27484
6.43173
2.99704
-0.909279
-0.215026
0.0116835
0.0401819
-0.0170761
-0.049178
-0.0871924
-0.140195
-0.168414
-0.185601
-0.200089
-0.210827
-0.217463
-0.222375
-0.222164
-0.208319
-0.202464
-0.191239
-0.16784
-0.139983
-0.102441
-0.0915027
-0.0469761
-0.0340747
-0.0330644
1.86051
1.60653
0.413441
-0.574691
-0.309406
-0.233965
-0.272187
-0.256857
-0.219967
-0.248356
-0.29293
-0.34569
-0.398793
-0.443209
-0.492965
-0.546993
-0.508069
-0.40016
-0.312867
-0.298255
-0.283199
-0.253224
-0.245945
-0.255575
-0.241043
-0.245427
-0.250626
-0.24736
-0.245018
-0.23469
-0.226766
-0.215312
-0.198935
-0.188536
-0.140647
-0.107556
-0.0880626
-0.0814249
-0.0822344
-0.0798746
0.132381
-0.0761009
-0.327407
-0.381205
-0.194539
-0.0870899
0.0022009
-0.0282783
-0.0269802
-0.0830241
-0.230477
-0.331985
-0.359882
-0.414771
-0.4879
-0.494532
-0.459633
-0.414832
-0.395752
-0.385266
-0.357704
-0.359143
-0.357203
-0.30278
-0.28848
-0.286757
-0.278937
-0.295153
-0.23335
-0.263612
-0.249215
-0.241989
-0.224333
-0.188156
-0.154896
-0.121843
-0.104448
-0.0998372
-0.10147
-0.0994722
-0.271634
-0.31492
-0.339879
-0.364082
-0.293517
-0.29442
-0.229349
-0.191464
-0.169268
-0.168247
-0.21693
-0.318674
-0.348173
-0.370094
-0.404189
-0.435372
-0.431229
-0.41856
-0.440099
-0.456523
-0.435559
-0.43387
-0.439854
-0.43258
-0.364522
-0.365115
-0.328671
-0.361444
-0.312412
-0.325198
-0.254023
-0.281385
-0.254409
-0.236532
-0.207139
-0.181916
-0.177052
-0.180691
-0.182773
-0.175684
-0.325047
-0.358441
-0.403986
-0.465586
-0.48457
-0.430517
-0.375543
-0.329742
-0.308995
-0.310459
-0.295283
-0.386493
-0.402892
-0.424907
-0.454921
-0.483451
-0.488836
-0.505763
-0.5331
-0.52874
-0.523999
-0.518209
-0.513554
-0.506464
-0.495796
-0.480702
-0.438356
-0.415843
-0.402791
-0.378935
-0.305784
-0.279346
-0.311701
-0.327582
-0.316227
-0.295238
-0.27693
-0.268623
-0.251955
-0.244006
-0.291775
-0.301314
-0.314792
-0.332438
-0.349163
-0.341233
-0.353567
-0.350906
-0.3639
-0.394818
-0.406282
-0.420772
-0.441203
-0.465659
-0.497233
-0.532398
-0.569922
-0.605475
-0.643762
-0.650732
-0.650524
-0.643537
-0.62957
-0.596328
-0.556197
-0.52628
-0.509054
-0.49123
-0.475599
-0.464657
-0.432074
-0.407377
-0.402306
-0.415934
-0.43195
-0.406152
-0.403472
-0.392762
-0.386574
-0.382549
-0.29615
-0.303898
-0.310782
-0.324253
-0.32834
-0.32819
-0.326225
-0.348004
-0.382863
-0.41048
-0.428782
-0.448817
-0.472598
-0.506818
-0.541021
-0.583173
-0.628916
-0.680885
-0.738789
-0.7612
-0.764685
-0.751918
-0.715427
-0.664899
-0.60905
-0.572954
-0.540851
-0.519924
-0.504534
-0.493324
-0.483596
-0.456785
-0.455568
-0.465787
-0.47061
-0.457858
-0.436693
-0.434371
-0.426167
-0.425687
-0.315822
-0.319331
-0.3223
-0.327367
-0.330653
-0.340063
-0.354419
-0.37052
-0.391926
-0.426269
-0.457994
-0.487615
-0.510627
-0.541036
-0.577605
-0.615765
-0.658608
-0.697452
-0.726729
-0.748261
-0.754034
-0.73738
-0.715893
-0.677504
-0.630933
-0.590232
-0.558083
-0.540528
-0.523053
-0.507585
-0.496323
-0.487541
-0.456548
-0.467287
-0.463126
-0.45818
-0.44743
-0.441392
-0.440772
-0.436328
-0.303784
-0.328352
-0.327033
-0.331557
-0.339327
-0.352683
-0.37014
-0.392551
-0.420078
-0.454923
-0.489107
-0.514903
-0.544771
-0.576788
-0.605801
-0.638329
-0.67047
-0.700208
-0.722891
-0.733437
-0.733653
-0.725244
-0.710138
-0.679907
-0.640994
-0.601053
-0.564156
-0.545094
-0.530562
-0.519169
-0.50285
-0.496464
-0.470865
-0.479151
-0.470485
-0.46518
-0.460092
-0.454496
-0.448335
-0.442144
-0.337266
-0.343459
-0.334164
-0.340388
-0.352654
-0.377375
-0.416281
-0.439906
-0.465211
-0.492316
-0.520533
-0.550877
-0.577661
-0.601593
-0.62858
-0.65875
-0.678678
-0.703369
-0.717651
-0.723903
-0.72018
-0.70543
-0.686062
-0.663873
-0.643144
-0.591613
-0.562838
-0.550741
-0.536427
-0.52861
-0.518517
-0.510316
-0.489849
-0.492091
-0.479691
-0.479123
-0.473132
-0.460061
-0.441554
-0.450635
-0.390944
-0.399885
-0.415594
-0.429676
-0.433896
-0.457537
-0.480757
-0.492419
-0.514245
-0.547136
-0.580414
-0.599643
-0.622014
-0.630393
-0.655611
-0.677134
-0.692285
-0.704751
-0.712588
-0.707068
-0.705752
-0.692625
-0.672638
-0.650651
-0.629832
-0.598399
-0.559249
-0.565382
-0.545959
-0.544758
-0.533123
-0.528076
-0.52071
-0.517738
-0.508319
-0.488409
-0.490273
-0.484524
-0.492169
-0.493592
-0.429458
-0.453497
-0.481692
-0.518913
-0.56292
-0.586601
-0.597303
-0.611966
-0.621719
-0.628365
-0.63883
-0.646558
-0.664108
-0.673077
-0.696043
-0.709029
-0.717107
-0.721066
-0.721224
-0.717387
-0.707961
-0.693785
-0.674695
-0.653848
-0.633659
-0.60542
-0.575555
-0.576776
-0.560438
-0.559129
-0.546269
-0.5438
-0.539519
-0.543341
-0.50562
-0.536459
-0.536544
-0.549444
-0.546692
-0.538216
-0.504078
-0.522789
-0.553479
-0.593847
-0.626576
-0.644018
-0.655572
-0.664533
-0.67283
-0.681022
-0.688826
-0.697678
-0.71075
-0.724425
-0.737274
-0.747096
-0.750836
-0.750856
-0.745816
-0.737773
-0.726883
-0.711863
-0.693252
-0.672018
-0.650735
-0.627464
-0.596577
-0.59702
-0.582997
-0.581896
-0.57374
-0.569569
-0.567028
-0.568036
-0.538695
-0.57923
-0.584394
-0.568026
-0.574147
-0.571219
-0.607105
-0.62659
-0.648253
-0.66592
-0.683996
-0.697469
-0.705121
-0.71228
-0.719539
-0.727132
-0.735408
-0.745022
-0.756818
-0.768881
-0.779172
-0.786071
-0.789088
-0.788531
-0.784436
-0.776258
-0.763529
-0.746451
-0.726187
-0.703501
-0.680156
-0.659381
-0.639609
-0.625018
-0.611127
-0.606379
-0.60466
-0.602777
-0.609126
-0.570991
-0.580067
-0.601002
-0.603328
-0.600232
-0.600322
-0.598098
-0.688714
-0.688752
-0.694341
-0.708101
-0.720294
-0.734238
-0.744746
-0.754309
-0.763445
-0.772564
-0.782073
-0.792228
-0.802506
-0.812769
-0.821702
-0.828094
-0.831078
-0.830485
-0.826205
-0.817898
-0.805371
-0.78807
-0.767771
-0.744295
-0.719374
-0.695898
-0.675058
-0.65752
-0.643444
-0.635223
-0.628253
-0.631936
-0.611012
-0.62395
-0.624614
-0.623898
-0.623181
-0.625507
-0.625541
-0.62437
-0.719901
-0.721793
-0.729755
-0.739565
-0.752799
-0.767339
-0.779283
-0.789553
-0.799321
-0.809216
-0.819583
-0.830347
-0.84119
-0.851497
-0.860458
-0.866985
-0.870645
-0.870663
-0.867279
-0.860155
-0.84864
-0.83238
-0.811779
-0.787747
-0.76248
-0.73848
-0.716461
-0.696924
-0.680885
-0.668719
-0.657806
-0.643107
-0.673322
-0.664147
-0.660253
-0.654739
-0.654833
-0.657869
-0.657889
-0.65925
-0.739921
-0.748659
-0.757008
-0.770503
-0.780351
-0.796418
-0.808255
-0.817105
-0.826174
-0.835952
-0.846329
-0.85707
-0.868047
-0.878697
-0.88814
-0.895175
-0.899607
-0.901161
-0.89926
-0.893511
-0.883229
-0.86811
-0.848754