/*--------------------------------*- C++ -*----------------------------------*\
  =========                 |
  \\      /  F ield         | OpenFOAM: The Open Source CFD Toolbox
   \\    /   O peration     | Website:  https://openfoam.org
    \\  /    A nd           | Version:  8
     \\/     M anipulation  |
\*---------------------------------------------------------------------------*/
FoamFile
{
    version     2.0;
    format      ascii;
    class       volVectorField;
    location    "2.25";
    object      U;
}
// * * * * * * * * * * * * * * * * * * * * * * * * * * * * * * * * * * * * * //

dimensions      [0 1 -1 0 0 0 0];

internalField   nonuniform List<vector> 
9150
(
(0.00505198 -0.0777448 0)
(0.012993 -0.0974487 0)
(0.0108115 -0.104052 0)
(0.00803334 -0.108101 0)
(0.00165361 -0.109685 0)
(-0.00284485 -0.109022 0)
(-0.00888692 -0.107547 0)
(-0.0108029 -0.104077 0)
(-0.0130513 -0.0973941 0)
(-0.00502307 -0.0776931 0)
(0.00603381 -0.0920837 0)
(0.00862077 -0.100551 0)
(0.0072957 -0.10217 0)
(0.00472914 -0.103922 0)
(0.00232113 -0.105242 0)
(-0.00193105 -0.105396 0)
(-0.00426384 -0.104614 0)
(-0.0072649 -0.10228 0)
(-0.00865092 -0.100551 0)
(-0.00604252 -0.0920724 0)
(0.00182517 -0.0954596 0)
(0.00461961 -0.0990055 0)
(0.00369814 -0.100963 0)
(0.00313594 -0.101909 0)
(0.000853548 -0.102389 0)
(-0.000699469 -0.102429 0)
(-0.0033352 -0.101622 0)
(-0.0037255 -0.100954 0)
(-0.00463226 -0.099009 0)
(-0.00182944 -0.0954587 0)
(0.00179796 -0.0984368 0)
(0.0025135 -0.10041 0)
(0.00218398 -0.100274 0)
(0.00129871 -0.10075 0)
(0.000501512 -0.10086 0)
(-0.000785828 -0.10086 0)
(-0.00132333 -0.100763 0)
(-0.00215511 -0.100339 0)
(-0.00251264 -0.100417 0)
(-0.00179626 -0.0984354 0)
(0.000215893 -0.0995011 0)
(0.000751337 -0.0995681 0)
(0.000489237 -0.0999586 0)
(0.000666856 -0.0998617 0)
(0.000258754 -0.100086 0)
(-9.3688e-05 -0.100133 0)
(-0.000585083 -0.0999429 0)
(-0.000469506 -0.0999548 0)
(-0.000753373 -0.0995681 0)
(-0.000215509 -0.0994997 0)
(0.0775537 -0.195963 6.54697e-27)
(0.0501493 -0.1852 0)
(0.0318545 -0.177374 0)
(0.0164754 -0.175471 0)
(0.00460612 -0.176634 0)
(-0.00478191 -0.17638 0)
(-0.0164193 -0.17455 0)
(-0.031742 -0.177648 0)
(-0.0500545 -0.1857 0)
(-0.0777274 -0.196499 -6.63303e-27)
(0.0581856 -0.145809 2.77119e-27)
(0.0481357 -0.146211 0)
(0.0284594 -0.156386 0)
(0.0208763 -0.156438 0)
(0.00512772 -0.155932 0)
(-0.00384885 -0.156012 0)
(-0.0199767 -0.157887 0)
(-0.0278726 -0.156488 0)
(-0.0479042 -0.146296 0)
(-0.0582012 -0.145985 -2.84237e-27)
(0.0478103 -0.121671 1.28808e-27)
(0.0420312 -0.131405 0)
(0.029646 -0.134221 0)
(0.0182686 -0.137851 0)
(0.00635765 -0.140321 0)
(-0.00550721 -0.140224 0)
(-0.0177986 -0.137075 0)
(-0.0297877 -0.134005 0)
(-0.0418932 -0.131438 0)
(-0.047884 -0.121742 -1.15381e-27)
(0.0375922 -0.0998289 1.56806e-27)
(0.038751 -0.110315 0)
(0.0220758 -0.120155 0)
(0.0169022 -0.125452 0)
(0.00334975 -0.125428 0)
(-0.00511656 -0.125383 0)
(-0.0178383 -0.124951 0)
(-0.0222557 -0.120184 0)
(-0.0388098 -0.110433 0)
(-0.0376389 -0.0998648 -1.56512e-27)
(0.0254847 -0.0812955 -7.50387e-27)
(0.0285656 -0.10096 -8.28673e-27)
(0.0204439 -0.108227 -1.93633e-27)
(0.0118724 -0.113535 -1.88595e-27)
(0.00531476 -0.116328 -4.24316e-29)
(-0.00385848 -0.116574 -4.1622e-29)
(-0.0109126 -0.113876 -1.96808e-27)
(-0.0201024 -0.108066 -1.92571e-27)
(-0.0284803 -0.100981 -8.27189e-27)
(-0.0254375 -0.0812902 -7.497e-27)
(0.0183273 -0.144432 0)
(0.0137467 -0.203424 0)
(0.022545 -0.215847 0)
(0.00733209 -0.223833 0)
(0.00651401 -0.225739 0)
(-0.00884536 -0.2251 0)
(-0.00927246 -0.222048 0)
(-0.0214462 -0.215576 0)
(-0.0108946 -0.205169 0)
(-0.0173995 -0.143841 0)
(0.016315 -0.165184 0)
(0.00241091 -0.198292 0)
(0.0161498 -0.207523 0)
(0.00355032 -0.212608 0)
(0.00806721 -0.214071 0)
(-0.00440294 -0.214349 0)
(0.000220999 -0.214635 0)
(-0.0139078 -0.209642 0)
(-0.00117917 -0.200528 0)
(-0.0154197 -0.167533 0)
(0.0147983 -0.171443 0)
(-0.00294735 -0.202639 0)
(0.0114208 -0.207332 0)
(-0.00155783 -0.209858 0)
(0.00399658 -0.209349 0)
(-0.0047273 -0.209442 0)
(0.00141826 -0.209143 0)
(-0.0114446 -0.208104 0)
(0.00325154 -0.203613 0)
(-0.015133 -0.172134 0)
(0.016976 -0.191808 0)
(-0.00577088 -0.203171 0)
(0.0105757 -0.208739 0)
(-0.00125709 -0.205086 0)
(0.00228147 -0.206763 0)
(-0.00267557 -0.20713 0)
(0.00145902 -0.207116 0)
(-0.0101928 -0.209888 0)
(0.00584248 -0.204162 0)
(-0.0168088 -0.192825 0)
(0.0312227 -0.217791 0)
(0.00728179 -0.203942 0)
(0.0169204 -0.204159 0)
(0.0104233 -0.196283 0)
(0.00299602 -0.19347 0)
(-0.00146617 -0.194026 0)
(-0.00954275 -0.197376 0)
(-0.0168726 -0.205013 0)
(-0.00707013 -0.204486 0)
(-0.0314273 -0.218649 0)
(-0.0941592 0.0334166 0)
(-0.150809 0.016498 0)
(-0.191886 -0.0144926 0)
(-0.264459 -0.00287419 0)
(-0.305854 -0.031203 0)
(-0.313196 -0.0492419 0)
(-0.307729 -0.0418495 0)
(-0.288961 -0.0184381 0)
(-0.254444 -0.0182106 0)
(-0.201127 -0.0254469 0)
(-0.432047 0.135665 0)
(-0.544665 0.183308 0)
(-0.624264 0.237637 0)
(-0.700424 0.183952 0)
(-0.728625 0.13808 0)
(-0.744618 0.100691 0)
(-0.72335 -0.042014 0)
(-0.689828 -0.122486 0)
(-0.658362 -0.144288 0)
(-0.646139 -0.144265 0)
(-0.5064 0.299943 0)
(-0.499968 0.403301 0)
(-0.585473 0.368732 0)
(-0.733642 0.162066 0)
(-0.781376 0.0328083 0)
(-0.753067 -0.0864745 0)
(-0.71558 -0.126064 0)
(-0.695924 -0.132011 0)
(-0.68746 -0.136192 0)
(-0.684338 -0.13032 0)
(-0.534631 -0.00427081 0)
(-0.392014 0.389933 0)
(-0.330377 0.592029 0)
(-0.37272 0.516287 0)
(-0.574576 0.220911 0)
(-0.647381 0.0139373 0)
(-0.658916 -0.112956 0)
(-0.657205 -0.144656 0)
(-0.659787 -0.148033 0)
(-0.67556 -0.138907 0)
(-0.595948 -0.101654 0)
(-0.521424 0.0547184 0)
(-0.403484 0.290666 0)
(-0.324665 0.51991 0)
(-0.358528 0.453557 0)
(-0.436037 0.222392 0)
(-0.52526 -0.0261036 0)
(-0.570005 -0.117959 0)
(-0.601247 -0.137569 0)
(-0.654777 -0.118961 0)
(-0.625695 -0.2103 0)
(-0.58584 -0.0989288 0)
(-0.507029 0.252993 0)
(-0.455888 0.437097 0)
(-0.408575 0.433021 0)
(-0.375911 0.314165 0)
(-0.386241 0.151922 0)
(-0.433643 0.0491203 0)
(-0.497201 0.0558293 0)
(-0.586681 0.0117615 0)
(-0.682951 -0.226702 0)
(-0.685134 -0.159406 0)
(-0.652643 0.144384 0)
(-0.56735 0.303765 0)
(-0.438405 0.277585 0)
(-0.333324 0.221298 0)
(-0.314598 0.127186 0)
(-0.331472 0.0802216 0)
(-0.339088 0.0843688 0)
(-0.343928 0.0880178 0)
(-0.567384 -0.0838437 0)
(-0.619682 -0.0996748 0)
(-0.606385 -0.10849 0)
(-0.485958 -0.0930431 0)
(-0.335085 -0.0471055 0)
(-0.268462 0.00212705 0)
(-0.144925 0.119076 0)
(-0.143765 0.260397 0)
(-0.115358 0.0995236 0)
(-0.0745399 0.0673605 0)
(-0.0241141 0.286367 0)
(-0.0933403 0.0703022 0)
(-0.141856 -0.0372729 0)
(-0.274864 -0.254531 0)
(-0.275449 -0.110916 0)
(-0.263467 -0.106414 0)
(-0.235372 -0.108558 0)
(-0.139948 -0.105844 0)
(-0.0488674 -0.10775 0)
(-0.00762755 -0.102798 0)
(-0.018078 0.232238 0)
(0.0718135 0.100666 0)
(0.14585 0.127233 0)
(0.0839269 0.108079 0)
(0.0626663 -0.090196 0)
(0.0776449 -0.209483 0)
(0.139348 -0.0973089 0)
(0.130664 -0.14929 0)
(0.110748 -0.116662 0)
(0.142973 -0.121424 0)
(-0.0526878 -0.217482 0)
(-0.0389332 -0.193694 0)
(0.0239359 -0.0935083 0)
(0.0769509 0.122928 0)
(0.0467014 -0.05321 0)
(0.0780606 -0.298952 0)
(0.110872 -0.1729 0)
(0.161227 -0.122166 0)
(0.221192 -0.139199 0)
(0.256858 -0.168029 0)
(-0.118842 -0.00691349 0)
(-0.189219 0.0037514 0)
(-0.179623 -0.0141803 0)
(-0.107299 -0.0247604 0)
(-0.00572655 -0.109241 0)
(0.1088 -0.128098 0)
(0.213315 -0.221606 0)
(0.37097 -0.285402 0)
(0.512536 -0.205136 0)
(0.563752 -0.117596 0)
(-0.0619021 -0.145105 0)
(-0.0172719 -0.142653 0)
(0.045903 -0.210228 0)
(0.103004 -0.232051 0)
(0.160348 -0.410365 0)
(0.397328 -0.786319 0)
(0.589913 -0.829667 0)
(0.754854 -0.842782 0)
(0.979048 -0.729409 0)
(1.17062 -0.557162 0)
(0.106618 -0.13299 0)
(0.128425 -0.22188 0)
(0.0752568 -0.264773 0)
(0.133256 -0.308351 0)
(0.251325 -0.710028 0)
(0.31445 -1.06195 0)
(0.410454 -1.12496 0)
(0.493889 -1.12211 0)
(0.540376 -1.05093 0)
(0.564273 -0.964386 0)
(0.230007 -0.154337 0)
(0.191216 -0.197719 0)
(0.0496197 -0.120832 0)
(0.0989096 -0.43928 0)
(0.168869 -0.939552 0)
(0.215094 -1.16471 0)
(0.282731 -1.19203 0)
(0.332368 -1.14567 0)
(0.329539 -1.06754 0)
(0.350167 -1.00067 0)
(0.290666 -0.100581 0)
(0.0636883 0.125233 0)
(0.0636229 -0.0891388 0)
(0.149586 -0.637066 0)
(0.186265 -1.03052 0)
(0.206801 -1.2876 0)
(0.253172 -1.29638 0)
(0.278728 -1.17636 0)
(0.207603 -1.07393 0)
(0.241183 -1.0207 0)
(0.23456 0.262821 0)
(0.116626 0.417236 0)
(0.149628 -0.376256 0)
(0.166192 -0.654587 0)
(0.213387 -1.05834 0)
(0.185313 -1.35697 0)
(0.233663 -1.34616 0)
(0.232352 -1.0909 0)
(0.0940334 -1.00392 0)
(0.12512 -1.05465 0)
(0.226511 0.0636888 0)
(0.186196 0.37148 0)
(0.129644 -0.4097 0)
(0.143959 -0.656451 0)
(0.183394 -1.07555 0)
(0.0154698 -1.36026 0)
(0.0672793 -1.2993 0)
(0.0434665 -0.887331 0)
(0.0635802 -0.900766 0)
(-0.00671467 -1.11096 0)
(0.123068 0.140204 0)
(0.127155 0.697678 0)
(0.178422 -0.364013 0)
(0.147638 -0.564546 0)
(0.0951634 -0.964483 0)
(-0.0734118 -1.22184 0)
(-0.0505999 -1.20859 0)
(-0.0298964 -0.990705 0)
(-0.0148219 -0.943308 0)
(-0.0414834 -1.04376 0)
(-0.0292835 0.392057 0)
(0.106311 -0.020069 0)
(0.179874 -0.362788 0)
(0.164813 -0.406331 0)
(0.0539599 -0.776958 0)
(-0.0181297 -1.07512 0)
(-0.0771513 -1.19918 0)
(-0.0617755 -1.05666 0)
(-0.039011 -0.954341 0)
(-0.060422 -1.03866 0)
(0.202577 0.389625 0)
(0.180533 0.0579593 0)
(0.125943 -0.290836 0)
(0.137317 -0.38022 0)
(0.115237 -0.609008 0)
(0.0323667 -0.987376 0)
(-0.0549753 -1.14643 0)
(-0.0587421 -1.11074 0)
(-0.0218369 -1.02022 0)
(-0.00467543 -1.07473 0)
(0.249389 0.509347 0)
(0.215175 0.173978 0)
(0.174334 -0.22659 0)
(0.177226 -0.385967 0)
(0.165861 -0.516311 0)
(0.0822577 -0.804226 0)
(-0.0158262 -1.0721 0)
(-0.0300927 -1.15925 0)
(-0.00827392 -1.04174 0)
(0.0215571 -1.0554 0)
(0.255162 0.508892 0)
(0.214727 0.107289 0)
(0.167819 -0.240085 0)
(0.189246 -0.415676 0)
(0.177895 -0.486838 0)
(0.159324 -0.584739 0)
(0.0845699 -0.882743 0)
(0.0150727 -1.14285 0)
(0.0147996 -1.06168 0)
(0.0485877 -1.00169 0)
(0.293186 0.520257 0)
(0.321692 0.364605 0)
(0.271792 0.0153928 0)
(0.300779 -0.343495 0)
(0.288649 -0.432621 0)
(0.20803 -0.474141 0)
(0.176564 -0.679851 0)
(0.0840127 -0.988468 0)
(0.0157522 -1.07246 0)
(0.0148502 -0.972731 0)
(0.346841 0.429032 0)
(0.371585 0.310251 0)
(0.366541 -0.191236 0)
(0.337057 -0.490467 0)
(0.289772 -0.36572 0)
(0.23781 -0.381686 0)
(0.218477 -0.590197 0)
(0.20407 -0.810779 0)
(0.116019 -0.937712 0)
(0.00611232 -0.896201 0)
(0.261551 0.335358 0)
(0.272952 0.285099 0)
(0.338079 -0.0500596 0)
(0.33074 -0.28526 0)
(0.286045 -0.290618 0)
(0.256775 -0.351164 0)
(0.32978 -0.602928 0)
(0.353282 -0.750962 0)
(0.313729 -0.73097 0)
(0.209004 -0.676349 0)
(-0.00944304 0.348655 0)
(0.169659 -0.0043629 0)
(0.216323 -0.225444 0)
(0.274789 -0.247817 0)
(0.265632 -0.281205 0)
(0.315588 -0.472134 0)
(0.439442 -0.7589 0)
(0.445947 -0.774309 0)
(0.416257 -0.708116 0)
(0.374756 -0.532376 0)
(0.0049159 -0.158353 0)
(0.113526 -0.277652 0)
(0.170567 -0.236944 0)
(0.194436 -0.263365 0)
(0.26937 -0.399068 0)
(0.425793 -0.751975 0)
(0.475735 -0.822686 0)
(0.472674 -0.797513 0)
(0.424323 -0.695618 0)
(0.377637 -0.474406 0)
(0.018397 -0.258441 0)
(0.0500382 -0.256675 0)
(0.0875678 -0.295101 0)
(0.20122 -0.496047 0)
(0.420964 -0.79805 0)
(0.477117 -0.845957 0)
(0.44885 -0.826577 0)
(0.355955 -0.705381 0)
(0.140592 -0.451883 0)
(0.114024 -0.244277 0)
(-0.0754138 -0.175399 0)
(-0.0599888 -0.357811 0)
(0.153511 -0.542574 0)
(0.332495 -0.956659 0)
(0.426103 -0.896014 0)
(0.372004 -0.796209 0)
(0.244906 -0.48035 0)
(-0.0249867 -0.122761 0)
(-0.0859994 -0.239332 0)
(-0.19424 0.335044 0)
(-0.168299 -0.21252 0)
(-0.103548 -0.70295 0)
(0.161988 -1.10838 0)
(0.175784 -1.12547 0)
(0.188761 -0.879893 0)
(0.0509846 -0.484721 0)
(0.0305051 -0.144989 0)
(-0.114602 -0.0230183 0)
(-0.127849 -0.232482 0)
(-0.163714 0.250808 0)
(-0.229365 -0.267107 0)
(-0.160973 -1.12611 0)
(-0.127096 -1.27658 0)
(-0.0996974 -1.1242 0)
(-0.0246677 -0.607451 0)
(-0.143497 -0.385802 0)
(-0.148533 -0.0679501 0)
(-0.0496334 0.0714017 0)
(-0.0842832 -0.0464641 0)
(-0.124127 0.165646 0)
(-0.341519 -0.44159 0)
(-0.316589 -1.23573 0)
(-0.281927 -1.32084 0)
(-0.212297 -1.1831 0)
(-0.0962832 -0.622579 0)
(-0.102772 -0.361187 0)
(-0.129431 -0.240492 0)
(-0.0292804 -0.160834 0)
(-0.00892837 0.0213338 0)
(-0.131085 0.155991 0)
(-0.331913 -0.209192 0)
(-0.326119 -1.35685 0)
(-0.295903 -1.45797 0)
(-0.260663 -1.35731 0)
(-0.151035 -0.785326 0)
(-0.0638637 -0.37384 0)
(-0.107818 -0.285403 0)
(-0.0497015 -0.177879 0)
(-0.0163079 0.0827057 0)
(-0.112249 0.188402 0)
(-0.277422 0.895837 0)
(-0.271531 -1.36314 0)
(-0.253296 -1.49831 0)
(-0.234711 -1.45081 0)
(-0.185247 -1.10815 0)
(-0.0728341 -0.373917 0)
(-0.0958206 -0.248853 0)
(-0.143273 -0.233353 0)
(-0.0961371 -0.000356681 0)
(-0.122507 0.212588 0)
(-0.222522 0.629987 0)
(-0.254461 -1.30361 0)
(-0.249911 -1.51588 0)
(-0.237359 -1.49648 0)
(-0.219111 -1.25175 0)
(-0.101351 -0.480327 0)
(-0.0623629 -0.178893 0)
(-0.149801 -0.148154 0)
(-0.128245 0.0547607 0)
(-0.148975 0.221509 0)
(-0.214371 0.638659 0)
(-0.259186 -1.24098 0)
(-0.273918 -1.53273 0)
(-0.259816 -1.51946 0)
(-0.226963 -1.37335 0)
(-0.12221 -0.760754 0)
(-0.0294199 -0.162767 0)
(-0.0969827 -0.114388 0)
(-0.0515039 0.0259277 0)
(-0.0239865 0.205769 0)
(-0.210262 0.497315 0)
(-0.217384 -1.12457 0)
(-0.283498 -1.53015 0)
(-0.253279 -1.54102 0)
(-0.218838 -1.46337 0)
(-0.111918 -1.03027 0)
(-0.0128796 -0.145134 0)
(-0.0660412 -0.127366 0)
(-0.0369991 -0.0494141 0)
(-0.000363769 0.0570992 0)
(-0.0802617 0.460523 0)
(0.0686651 -0.822979 0)
(-0.157435 -1.52198 0)
(-0.144951 -1.61495 0)
(-0.112063 -1.57348 0)
(-0.0842324 -1.38006 0)
(0.0113329 -0.137322 0)
(-0.0675805 -0.125129 0)
(-0.0590647 -0.0926669 0)
(-0.0436818 -0.0477591 0)
(0.161882 -0.0530404 0)
(0.206776 -0.633038 0)
(0.00227382 -1.06803 0)
(-0.046394 -1.55913 0)
(-0.0276838 -1.56282 0)
(-0.0455633 -1.48841 0)
(-0.000477291 -0.0940382 0)
(-0.09537 -0.0718206 0)
(-0.0979672 -0.0660374 0)
(-0.113728 -0.0448318 0)
(0.103723 -0.516929 0)
(0.151729 -0.641032 0)
(0.0527317 -0.854583 0)
(-0.0120714 -1.55374 0)
(0.00223976 -1.55755 0)
(-0.0138824 -1.52775 0)
(0.00571986 0.0560527 0)
(-0.0427202 0.0197498 0)
(-0.0800656 -0.0555132 0)
(-0.0944591 -0.00778875 0)
(0.0279345 -0.548829 0)
(0.0613658 -0.63324 0)
(0.0785352 -0.819398 0)
(0.027579 -1.42216 0)
(0.0107135 -1.53138 0)
(-0.00122918 -1.53161 0)
(-0.022932 -0.0755776 0)
(-0.022061 0.115551 0)
(0.00132204 0.00681965 0)
(0.0728072 0.0144309 0)
(0.0126355 -0.56433 0)
(0.0213088 -0.690467 0)
(0.0572022 -0.821578 0)
(0.0306013 -1.36858 0)
(-0.000313736 -1.49194 0)
(-0.0139889 -1.49059 0)
(0.0649607 0.175879 0)
(0.281651 -0.0367267 0)
(0.401508 -0.285585 0)
(0.403793 -0.291252 0)
(0.0243204 -0.558878 0)
(0.0212601 -0.705158 0)
(0.0275031 -0.812025 0)
(-0.00316825 -1.34626 0)
(0.00496984 -1.46904 0)
(-0.0147271 -1.46297 0)
(0.0178007 -1.05464 0)
(0.382147 -0.267695 0)
(0.491853 -0.205298 0)
(0.488979 -0.202075 0)
(0.0445961 -0.547295 0)
(0.0399499 -0.704685 0)
(0.0333513 -0.774257 0)
(0.0150613 -1.32132 0)
(0.00974696 -1.43875 0)
(-0.00592321 -1.44124 0)
(0.0117786 -1.20863 0)
(0.031672 -0.467037 0)
(0.0858918 -0.328824 0)
(0.0996376 -0.231048 0)
(0.0371631 -0.558488 0)
(0.0345979 -0.689317 0)
(0.0101234 -0.735017 0)
(0.00775761 -1.32131 0)
(0.00549447 -1.41574 0)
(-0.00704913 -1.41532 0)
(-9.54412e-05 -1.25521 0)
(-0.0165968 -0.379792 0)
(-0.0707463 -0.260922 0)
(-0.0356071 -0.232161 0)
(0.0244477 -0.565042 0)
(0.000269056 -0.643672 0)
(-0.00561489 -0.736628 0)
(0.00516238 -1.33148 0)
(0.00962911 -1.40133 0)
(-0.0057807 -1.39999 0)
(0.0058852 -1.30386 0)
(-0.00335885 -0.344544 0)
(-0.0154144 -0.303082 0)
(0.0168488 -0.263195 0)
(0.0231148 -0.56175 0)
(-0.000976947 -0.611443 0)
(-0.00194222 -0.75203 0)
(0.0007846 -1.34877 0)
(0.00504472 -1.38572 0)
(-0.00724942 -1.38655 0)
(0.00143696 -1.29237 0)
(-0.0120826 -0.302664 0)
(-0.0155771 -0.35237 0)
(0.0155717 -0.297648 0)
(0.0386586 -0.540472 0)
(0.0245605 -0.591365 0)
(0.0027151 -0.748013 0)
(0.00202028 -1.35323 0)
(0.00623819 -1.37579 0)
(-0.00565885 -1.37619 0)
(-0.00380628 -1.32568 0)
(-0.00616628 -0.241149 0)
(0.0471717 -0.355555 0)
(0.0195412 -0.299068 0)
(0.0703322 -0.487351 0)
(0.049005 -0.540557 0)
(0.0111617 -0.673678 0)
(0.00148972 -1.3462 0)
(0.00586348 -1.36887 0)
(-0.00543532 -1.36483 0)
(-0.00159417 -1.34993 0)
(0.0549669 -0.561088 0)
(0.176177 -0.326518 0)
(0.129163 -0.239332 0)
(0.0803689 -0.428086 0)
(0.0435022 -0.46332 0)
(0.0250559 -0.632532 0)
(0.0140937 -1.34322 0)
(0.0121307 -1.36176 0)
(0.00352313 -1.35966 0)
(0.0141325 -1.34951 0)
(0.0153853 -0.704094 0)
(0.114764 -0.381468 0)
(0.0934354 -0.163131 0)
(0.0778964 -0.350206 0)
(0.0203444 -0.393297 0)
(0.0306963 -0.650317 0)
(0.0127992 -1.33989 0)
(0.0124902 -1.35542 0)
(0.0027067 -1.35637 0)
(0.0145186 -1.34404 0)
(0.00515196 -0.744232 0)
(0.0382507 -0.363133 0)
(0.046067 -0.149353 0)
(0.0599638 -0.28918 0)
(0.0125429 -0.34917 0)
(0.0303316 -0.667105 0)
(0.00910297 -1.33486 0)
(0.00965847 -1.34954 0)
(-0.00127342 -1.35338 0)
(0.00782287 -1.33842 0)
(-0.000547149 -0.777973 0)
(0.00837018 -0.474537 0)
(0.0618005 -0.263051 0)
(0.0710913 -0.227918 0)
(0.0326809 -0.286015 0)
(0.0207114 -0.623701 0)
(0.00318154 -1.32411 0)
(0.007003 -1.34144 0)
(-0.00483798 -1.34393 0)
(-0.0031098 -1.33115 0)
(-0.0147503 -0.784406 0)
(-0.00507905 -0.488207 0)
(-0.00132312 -0.391821 0)
(0.0744106 -0.189576 0)
(0.0489662 -0.257655 0)
(0.0395722 -0.575164 0)
(0.00891574 -1.31402 0)
(0.00824558 -1.33039 0)
(-0.00492929 -1.33153 0)
(-0.00405233 -1.3215 0)
(-0.0208297 -0.750862 0)
(-0.0418622 -0.460242 0)
(-0.0459495 -0.44065 0)
(0.053527 -0.160676 0)
(0.0303258 -0.245526 0)
(0.0354055 -0.545317 0)
(0.00810926 -1.28865 0)
(0.00574244 -1.3137 0)
(-0.00781227 -1.31482 0)
(-0.0135501 -1.30225 0)
(-0.0337421 -0.72344 0)
(-0.0359672 -0.443969 0)
(-0.0373285 -0.467743 0)
(0.0751307 -0.12692 0)
(0.0474861 -0.211141 0)
(0.0368645 -0.474789 0)
(0.0127074 -1.26153 0)
(0.00744815 -1.29557 0)
(-0.00782983 -1.294 0)
(-0.0131276 -1.28115 0)
(-0.0362998 -0.699503 0)
(-0.034506 -0.45012 0)
(-0.036324 -0.469317 0)
(0.0548855 -0.116245 0)
(0.0331605 -0.19133 0)
(0.0255485 -0.446584 0)
(0.0150744 -1.24063 0)
(0.00825685 -1.27268 0)
(-0.00549196 -1.27243 0)
(-0.00891592 -1.25371 0)
(-0.0245869 -0.628446 0)
(-0.0552292 -0.429483 0)
(-0.0804303 -0.432705 0)
(0.0530375 -0.101937 0)
(0.0268839 -0.150157 0)
(0.0201887 -0.429783 0)
(0.0142458 -1.23992 0)
(0.00945528 -1.25365 0)
(-0.00582992 -1.25632 0)
(-0.00613568 -1.24445 0)
(-0.0134075 -0.604326 0)
(-0.0367823 -0.368 0)
(-0.0747385 -0.38669 0)
(0.054069 -0.0955868 0)
(0.0181531 -0.110335 0)
(0.0101621 -0.427194 0)
(0.00979317 -1.23301 0)
(0.00738676 -1.23436 0)
(-0.00876905 -1.23447 0)
(-0.0134899 -1.24048 0)
(-0.0175975 -0.6013 0)
(-0.0159526 -0.346815 0)
(-0.0374551 -0.316888 0)
(0.0701344 -0.0765427 0)
(0.0246914 -0.0457157 0)
(0.00830334 -0.420079 0)
(0.0106831 -1.22449 0)
(0.00784518 -1.21447 0)
(-0.00663312 -1.21436 0)
(-0.00819375 -1.23057 0)
(-0.0152117 -0.592265 0)
(-0.0248631 -0.326312 0)
(-0.0492459 -0.261427 0)
(0.0537942 -0.049941 0)
(-0.000658846 0.0466751 0)
(0.00746114 -0.457912 0)
(0.00818193 -1.21151 0)
(0.0081424 -1.19924 0)
(-0.00794503 -1.19867 0)
(-0.00854225 -1.21456 0)
(-0.0185018 -0.543338 0)
(-0.0535423 -0.236372 0)
(-0.095716 -0.201839 0)
(0.00832759 0.020372 0)
(-0.0103675 0.0889528 0)
(0.0160452 -0.473776 0)
(0.00930101 -1.19629 0)
(0.00738004 -1.18129 0)
(-0.00598255 -1.18179 0)
(-0.00719156 -1.19757 0)
(-0.0181331 -0.532287 0)
(-0.0419322 -0.146956 0)
(-0.115857 -0.125581 0)
(-0.0275225 0.0937376 0)
(-0.0333405 0.047252 0)
(0.0163703 -0.54393 0)
(0.00720347 -1.18044 0)
(0.00716698 -1.16819 0)
(-0.00608002 -1.16846 0)
(-0.00534042 -1.18189 0)
(-0.00989791 -0.535075 0)
(-0.00675222 -0.0443748 0)
(-0.0945731 0.00235805 0)
(-0.00656265 0.175022 0)
(-0.0193949 -0.0136595 0)
(0.0139364 -0.569516 0)
(0.00782955 -1.16721 0)
(0.00683549 -1.15606 0)
(-0.00647232 -1.15611 0)
(-0.00731298 -1.16877 0)
(-0.0100468 -0.532044 0)
(-0.00309797 0.0783669 0)
(-0.0903822 0.145525 0)
(0.0546366 0.234112 0)
(0.031438 0.0361151 0)
(0.0159525 -0.5686 0)
(0.00886646 -1.15362 0)
(0.00649654 -1.14129 0)
(-0.00689078 -1.1424 0)
(-0.00907143 -1.15565 0)
(-0.0136711 -0.604873 0)
(0.0317145 0.144391 0)
(-0.0252234 0.250451 0)
(0.063825 0.241609 0)
(0.0311352 0.103062 0)
(0.0147818 -0.563002 0)
(0.00998051 -1.13738 0)
(0.00687918 -1.12598 0)
(-0.00671828 -1.12611 0)
(-0.00928477 -1.14015 0)
(-0.0203939 -0.658658 0)
(0.0393926 0.119691 0)
(0.0303266 0.282282 0)
(0.0601633 0.239828 0)
(0.0176861 0.17182 0)
(0.0152745 -0.583776 0)
(0.0103404 -1.12092 0)
(0.00699591 -1.11009 0)
(-0.00737561 -1.11109 0)
(-0.0105763 -1.12451 0)
(-0.0212814 -0.684336 0)
(0.0251705 0.0362752 0)
(0.0180027 0.315262 0)
(0.0441124 0.263356 0)
(-0.00386158 0.224005 0)
(0.0197224 -0.596933 0)
(0.0115565 -1.10552 0)
(0.00735954 -1.09183 0)
(-0.00764729 -1.09207 0)
(-0.0120856 -1.1088 0)
(-0.0241283 -0.682987 0)
(-0.030544 0.0579832 0)
(-0.0143045 0.307266 0)
(-0.00562558 0.335156 0)
(-0.021363 0.230759 0)
(0.0252456 -0.625573 0)
(0.0116561 -1.08859 0)
(0.00780616 -1.07303 0)
(-0.00779147 -1.0743 0)
(-0.0113502 -1.09131 0)
(-0.0206519 -0.69243 0)
(-0.00781367 0.0140933 0)
(-0.00739956 0.261804 0)
(-0.0644295 0.367769 0)
(-0.0255067 0.167084 0)
(0.0253878 -0.648414 0)
(0.0115705 -1.07371 0)
(0.00740166 -1.05439 0)
(-0.00794779 -1.05465 0)
(-0.0125635 -1.07597 0)
(-0.0255964 -0.670079 0)
(-0.0288261 0.0656508 0)
(-0.0242034 0.204889 0)
(-0.0666819 0.350786 0)
(-0.00194727 0.027286 0)
(0.0208743 -0.671222 0)
(0.0124487 -1.05684 0)
(0.00828215 -1.03465 0)
(-0.00863012 -1.03588 0)
(-0.0128902 -1.0586 0)
(-0.0262921 -0.694328 0)
(0.00132579 0.00842682 0)
(0.0232781 0.16715 0)
(-0.0264136 0.268359 0)
(0.0147888 -0.0220071 0)
(0.0187889 -0.681933 0)
(0.0114582 -1.03868 0)
(0.00737433 -1.01426 0)
(-0.00822271 -1.01464 0)
(-0.0129231 -1.04013 0)
(-0.0203413 -0.704596 0)
(0.000982529 -0.0524491 0)
(0.0214312 0.146508 0)
(0.00779998 0.19266 0)
(0.0204523 -0.0411078 0)
(0.0211561 -0.686802 0)
(0.0116753 -1.02042 0)
(0.00740883 -0.996373 0)
(-0.0082141 -0.996371 0)
(-0.0127643 -1.02205 0)
(-0.021502 -0.709451 0)
(-0.0192454 -0.0585478 0)
(-0.0101046 0.14589 0)
(0.0197881 0.158013 0)
(0.0175468 -0.0493414 0)
(0.0209069 -0.689849 0)
(0.0114603 -1.00167 0)
(0.00731899 -0.976841 0)
(-0.00795264 -0.977206 0)
(-0.0125479 -1.00255 0)
(-0.0233593 -0.709637 0)
(-0.0255322 -0.0607226 0)
(-0.024809 0.148188 0)
(0.0309657 0.152203 0)
(0.0236132 -0.0289937 0)
(0.0220631 -0.686898 0)
(0.0127022 -0.981591 0)
(0.00750253 -0.958745 0)
(-0.00761587 -0.957772 0)
(-0.0130869 -0.982378 0)
(-0.0228586 -0.704834 0)
(-0.027176 -0.0522973 0)
(-0.0262918 0.149989 0)
(0.0360818 0.155962 0)
(0.0261736 -0.0183499 0)
(0.0231645 -0.685289 0)
(0.0131629 -0.96193 0)
(0.0075643 -0.939127 0)
(-0.00702917 -0.938822 0)
(-0.0128405 -0.962327 0)
(-0.0230408 -0.699906 0)
(-0.023128 -0.039704 0)
(-0.0253179 0.146578 0)
(0.0377824 0.170054 0)
(0.0274341 0.000505751 0)
(0.0236268 -0.678155 0)
(0.0139721 -0.941343 0)
(0.00767414 -0.919388 0)
(-0.00729259 -0.918778 0)
(-0.0137578 -0.941636 0)
(-0.0247996 -0.698098 0)
(-0.0163391 -0.0393565 0)
(-0.0150149 0.141868 0)
(0.0393252 0.191409 0)
(0.0276736 0.0199349 0)
(0.0232333 -0.671551 0)
(0.0144437 -0.92092 0)
(0.00744559 -0.899617 0)
(-0.00748158 -0.898782 0)
(-0.0144573 -0.921111 0)
(-0.0244645 -0.705285 0)
(-0.00774974 -0.076279 0)
(0.0147085 0.136068 0)
(0.0386958 0.216965 0)
(0.0266015 0.0408224 0)
(0.0244598 -0.663328 0)
(0.0155326 -0.900522 0)
(0.00785648 -0.877103 0)
(-0.0080888 -0.876467 0)
(-0.0154984 -0.900705 0)
(-0.0245035 -0.707406 0)
(-0.017286 -0.123274 0)
(0.0246306 0.113881 0)
(0.0321807 0.24929 0)
(0.025945 0.0569921 0)
(0.0253252 -0.655767 0)
(0.015834 -0.878163 0)
(0.00761196 -0.855683 0)
(-0.00785546 -0.85471 0)
(-0.015953 -0.878297 0)
(-0.0244626 -0.701028 0)
(-0.031495 -0.160724 0)
(0.00683765 0.0640349 0)
(0.0113233 0.259977 0)
(0.0223527 0.0448778 0)
(0.0277602 -0.652912 0)
(0.0165345 -0.857044 0)
(0.0082509 -0.831804 0)
(-0.00822346 -0.831076 0)
(-0.0165771 -0.857135 0)
(-0.0263978 -0.68727 0)
(-0.0391406 -0.181137 0)
(-0.0166167 0.00340412 0)
(-0.00307169 0.241847 0)
(0.0279016 0.00715355 0)
(0.0268141 -0.648412 0)
(0.0171948 -0.833255 0)
(0.0080387 -0.808814 0)
(-0.00778181 -0.808348 0)
(-0.0169617 -0.833333 0)
(-0.0261534 -0.677101 0)
(-0.0347158 -0.197128 0)
(-0.0134781 -0.0452454 0)
(-0.00143011 0.207052 0)
(0.0312017 -0.0145739 0)
(0.0269118 -0.639152 0)
(0.0177879 -0.809628 0)
(0.00829653 -0.783972 0)
(-0.0079922 -0.783774 0)
(-0.0175115 -0.809626 0)
(-0.0269078 -0.65981 0)
(-0.0407537 -0.20153 0)
(-0.0236307 -0.0710432 0)
(0.00810292 0.151289 0)
(0.0368467 -0.0509964 0)
(0.0270436 -0.632814 0)
(0.018596 -0.784544 0)
(0.00790158 -0.760107 0)
(-0.00792259 -0.760014 0)
(-0.0182445 -0.78439 0)
(-0.027596 -0.646403 0)
(-0.0415077 -0.205835 0)
(-0.0268549 -0.0997776 0)
(0.0213378 0.130307 0)
(0.0494443 -0.0446367 0)
(0.028227 -0.607906 0)
(0.0187391 -0.758516 0)
(0.00757852 -0.734609 0)
(-0.00815786 -0.734668 0)
(-0.0189746 -0.758342 0)
(-0.0285514 -0.631069 0)
(-0.0419944 -0.207458 0)
(-0.0261679 -0.11623 0)
(0.0337915 0.0720817 0)
(0.0494474 -0.0628293 0)
(0.0271221 -0.595067 0)
(0.0196447 -0.731685 0)
(0.00729439 -0.709677 0)
(-0.00801269 -0.709266 0)
(-0.0203241 -0.731198 0)
(-0.0293265 -0.615702 0)
(-0.043249 -0.211039 0)
(-0.0248251 -0.128053 0)
(0.0487007 0.0663435 0)
(0.0508434 -0.0306178 0)
(0.0281278 -0.569836 0)
(0.0197637 -0.703755 0)
(0.00714265 -0.683601 0)
(-0.0080409 -0.683267 0)
(-0.0208352 -0.703296 0)
(-0.0304391 -0.599187 0)
(-0.0442939 -0.221981 0)
(-0.021818 -0.140458 0)
(0.0466154 0.0721594 0)
(0.0451318 -0.0264678 0)
(0.0286279 -0.556929 0)
(0.0218518 -0.674578 0)
(0.00730443 -0.656097 0)
(-0.0084084 -0.656037 0)
(-0.0230833 -0.674003 0)
(-0.0321117 -0.576571 0)
(-0.0466475 -0.236171 0)
(-0.0232521 -0.155239 0)
(0.0445681 0.0961413 0)
(0.0475883 -0.00273108 0)
(0.0317043 -0.527313 0)
(0.0216865 -0.64394 0)
(0.00610715 -0.629664 0)
(-0.00794705 -0.629152 0)
(-0.0229223 -0.643754 0)
(-0.0371443 -0.552032 0)
(-0.0456205 -0.258728 0)
(-0.0307585 -0.188379 0)
(0.021717 0.107809 0)
(0.0247244 -0.0146132 0)
(0.0409436 -0.515093 0)
(0.0234922 -0.6122 0)
(0.00721858 -0.601693 0)
(-0.0085483 -0.60072 0)
(-0.0252622 -0.612464 0)
(-0.0452773 -0.543837 0)
(-0.0247005 -0.28108 0)
(-0.0372645 -0.218 0)
(0.00323012 0.114819 0)
(-0.0308109 -0.0674795 0)
(0.0494817 -0.531705 0)
(0.0226295 -0.579265 0)
(0.00674325 -0.571114 0)
(-0.00513438 -0.572336 0)
(-0.0241469 -0.580397 0)
(-0.0437841 -0.545033 0)
(0.0292583 -0.283876 0)
(-0.0348564 -0.217795 0)
(0.00861269 0.127391 0)
(0.0297235 -0.0999383 0)
(0.0490178 -0.536549 0)
(0.0285649 -0.544439 0)
(0.00957978 -0.538519 0)
(-0.00800772 -0.543008 0)
(-0.0242287 -0.545965 0)
(-0.0483005 -0.543185 0)
(-0.0436298 -0.266335 0)
(-0.057858 -0.193273 0)
(0.0201591 0.118907 0)
(0.0490964 -0.17599 0)
(0.0385952 -0.49635 0)
(0.0127676 -0.50499 0)
(-0.00849033 -0.506662 0)
(-0.0235588 -0.507479 0)
(-0.0386693 -0.508928 0)
(-0.067988 -0.493183 0)
(-0.0685408 -0.279651 0)
(-0.0678614 -0.180735 0)
(0.0500699 0.110328 0)
(0.058869 -0.189466 0)
(0.0610644 -0.451494 0)
(0.0356015 -0.465713 0)
(0.0188012 -0.471533 0)
(-0.00187431 -0.471547 0)
(-0.021927 -0.469743 0)
(-0.0501533 -0.457574 0)
(-0.0600037 -0.288186 0)
(-0.0743818 -0.167968 0)
(0.052532 0.0831551 0)
(0.0632686 -0.2042 0)
(0.0613768 -0.403275 0)
(0.0292746 -0.421377 0)
(0.00925036 -0.426765 0)
(-0.0139475 -0.429062 0)
(-0.0357892 -0.42549 0)
(-0.0675557 -0.402504 0)
(-0.0774987 -0.272883 0)
(-0.0753427 -0.158669 0)
(-0.00234981 0.0528421 0)
(0.0784307 -0.254803 0)
(0.0694262 -0.362468 0)
(0.0362404 -0.379683 0)
(0.0153694 -0.38417 0)
(-0.0109685 -0.383696 0)
(-0.0295664 -0.380687 0)
(-0.0575959 -0.360319 0)
(-0.0652758 -0.29442 0)
(0.00764422 -0.143532 0)
(0.0737494 -0.0262834 0)
(0.0772 -0.279782 0)
(0.0707952 -0.312742 0)
(0.0482951 -0.33211 0)
(0.0276288 -0.332418 0)
(-0.0018817 -0.328222 0)
(-0.0243223 -0.324414 0)
(-0.0617683 -0.314455 0)
(-0.0701297 -0.292085 0)
(-0.10391 -0.137411 0)
(0.0955648 -0.167188 0)
(0.0727783 -0.218568 0)
(0.0675551 -0.260206 0)
(0.0293831 -0.281743 0)
(0.00467153 -0.283796 0)
(-0.0239811 -0.28584 0)
(-0.0424139 -0.282566 0)
(-0.0691046 -0.263524 0)
(-0.0736457 -0.226109 0)
(-0.0926503 -0.205157 0)
(0.0609294 -0.115962 0)
(0.0513684 -0.192625 0)
(0.0473897 -0.232517 0)
(0.0273485 -0.240979 0)
(0.0191368 -0.246987 0)
(-0.00164513 -0.248337 0)
(-0.0129224 -0.244562 0)
(-0.0395834 -0.23397 0)
(-0.0493334 -0.195736 0)
(-0.0543562 -0.134305 0)
(-0.174827 -0.011076 0)
(-0.180863 -0.0124508 0)
(-0.172116 -0.0248407 0)
(-0.132811 0.026242 0)
(-0.096937 0.0435911 0)
(-0.0449074 0.0185731 0)
(0.0128328 0.00906255 0)
(0.0280951 0.00959901 0)
(0.0520896 -0.0441578 0)
(0.129955 -0.105645 0)
(0.167649 -0.0939197 0)
(0.146252 -0.0413908 0)
(0.11347 -0.00760782 0)
(0.126559 -0.00898841 0)
(0.15648 -0.0152098 0)
(0.182948 0.00320558 0)
(0.179085 0.019893 0)
(0.158928 0.025194 0)
(0.146343 0.0278248 0)
(0.138366 0.034107 0)
(0.122103 0.0347849 0)
(0.104012 0.01926 0)
(0.0935639 0.00141265 0)
(0.0969932 -0.00738875 0)
(0.105841 -0.0118293 0)
(0.112839 -0.0149075 0)
(0.1199 -0.0137906 0)
(0.126413 -0.00877313 0)
(0.130958 -0.00162155 0)
(0.128513 0.0144182 0)
(0.104123 0.0415438 0)
(0.0673454 0.0457388 0)
(0.0220763 0.0235951 0)
(-0.000835657 0.00611408 0)
(-0.0207313 -0.00553594 0)
(-0.0199759 -0.0117974 0)
(-0.0117393 0.00307352 0)
(-0.016721 0.00830619 0)
(-0.0161303 -0.0129646 0)
(-0.0103221 -0.0244846 0)
(-0.608632 -0.0183697 0)
(-0.590666 0.00916831 0)
(-0.552516 -0.0470567 0)
(-0.531027 -0.150285 0)
(-0.521773 -0.191538 0)
(-0.506391 -0.182346 0)
(-0.449114 -0.129081 0)
(-0.367551 -0.121899 0)
(-0.311243 -0.146205 0)
(-0.225483 -0.0525356 0)
(-0.162425 0.0707514 0)
(-0.124521 0.137141 0)
(-0.0618521 -0.00645799 0)
(-0.0320051 -0.0602115 0)
(-0.0196631 -0.0827878 0)
(0.0180447 -0.0212742 0)
(0.0588435 0.0237732 0)
(0.0917737 0.0269573 0)