/*--------------------------------*- C++ -*----------------------------------*\
  =========                 |
  \\      /  F ield         | OpenFOAM: The Open Source CFD Toolbox
   \\    /   O peration     | Website:  https://openfoam.org
    \\  /    A nd           | Version:  8
     \\/     M anipulation  |
\*---------------------------------------------------------------------------*/
FoamFile
{
    version     2.0;
    format      ascii;
    class       surfaceScalarField;
    location    "5.15";
    object      alphaPhi0.water;
}
// * * * * * * * * * * * * * * * * * * * * * * * * * * * * * * * * * * * * * //

dimensions      [0 3 -1 0 0 0 0];

internalField   nonuniform List<scalar> 
18095
(
1.98642e-08
-1.7211e-07
1.52246e-07
2.31306e-08
-1.9772e-07
1.94453e-07
1.98911e-08
-2.06019e-07
2.09259e-07
1.08633e-08
-2.10811e-07
2.19839e-07
-3.58815e-10
-2.13529e-07
2.24752e-07
-1.15265e-08
-2.13194e-07
2.24361e-07
-2.01805e-08
-2.10645e-07
2.19299e-07
-2.3209e-08
-2.06155e-07
2.09184e-07
-1.98739e-08
-1.97718e-07
1.94383e-07
-1.72099e-07
1.52225e-07
1.5507e-08
-1.87617e-07
1.60181e-08
-1.98231e-07
1.20461e-08
-2.02047e-07
6.20745e-09
-2.04972e-07
-3.91504e-10
-2.0693e-07
-6.5874e-09
-2.06998e-07
-1.19741e-08
-2.05258e-07
-1.59959e-08
-2.02133e-07
-1.55084e-08
-1.98205e-07
-1.87608e-07
6.79763e-09
-1.94414e-07
8.35007e-09
-1.99783e-07
7.3519e-09
-2.01049e-07
4.40056e-09
-2.02021e-07
1.87821e-10
-2.02718e-07
-4.05377e-09
-2.02756e-07
-7.18009e-09
-2.02132e-07
-8.35304e-09
-2.0096e-07
-6.80452e-09
-1.99754e-07
-1.94412e-07
4.51153e-09
-1.98926e-07
4.6786e-09
-1.9995e-07
3.5664e-09
-1.99937e-07
2.00196e-09
-2.00457e-07
1.4517e-10
-2.00861e-07
-1.87646e-09
-2.00735e-07
-3.63271e-09
-2.00376e-07
-4.70637e-09
-1.99887e-07
-4.51584e-09
-1.99944e-07
-1.98928e-07
1.0741e-09
1.12383e-09
1.18709e-09
7.30491e-10
-1.30466e-10
-8.65075e-10
-1.24089e-09
-1.12768e-09
-1.07205e-09
-2.81216e-08
-1.96227e-07
2.24348e-07
-3.05782e-08
-1.99085e-07
2.01541e-07
-2.52265e-08
-2.0141e-07
1.96058e-07
-1.37076e-08
-2.02037e-07
1.90518e-07
4.98892e-10
-2.02192e-07
1.87985e-07
1.45876e-08
-2.01865e-07
1.87776e-07
2.53979e-08
-2.01194e-07
1.90384e-07
3.04162e-08
-2.00899e-07
1.95881e-07
2.79513e-08
-1.98944e-07
2.01408e-07
-1.96149e-07
2.241e-07
-9.50073e-09
-1.86726e-07
-1.4952e-08
-1.93633e-07
-1.2781e-08
-2.03581e-07
-5.7251e-09
-2.09093e-07
3.6949e-10
-2.08286e-07
6.37437e-09
-2.0787e-07
1.28847e-08
-2.07704e-07
1.48704e-08
-2.02885e-07
9.40586e-09
-1.93479e-07
-1.86743e-07
-1.03772e-08
-1.76349e-07
-8.77649e-09
-1.95234e-07
-7.94368e-09
-2.04414e-07
-7.54264e-09
-2.09494e-07
-3.16955e-09
-2.12659e-07
2.26409e-09
-2.13304e-07
5.65881e-09
-2.11099e-07
7.9681e-09
-2.05194e-07
1.01662e-08
-1.95677e-07
-1.76577e-07
-6.22276e-09
-1.70126e-07
-7.91676e-09
-1.9354e-07
-7.11605e-09
-2.05214e-07
-2.21395e-09
-2.14396e-07
1.34762e-09
-2.16221e-07
5.08243e-09
-2.17038e-07
9.17553e-09
-2.15192e-07
8.96162e-09
-2.0498e-07
6.57758e-09
-1.93293e-07
-1.69999e-07
-1.78806e-08
-1.69673e-08
-1.29231e-08
-7.48004e-09
1.05078e-09
8.37375e-09
1.24808e-08
1.66845e-08
1.77741e-08
3.46029e-08
-1.58046e-07
1.23443e-07
3.66423e-08
-1.98951e-07
1.96912e-07
2.71015e-08
-2.11216e-07
2.20757e-07
1.05459e-08
-2.1572e-07
2.32275e-07
-7.41616e-09
-2.17221e-07
2.35183e-07
-2.48913e-08
-2.17099e-07
2.34574e-07
-3.77568e-08
-2.15681e-07
2.28546e-07
-4.35664e-08
-2.10375e-07
2.16185e-07
-3.78543e-08
-1.98465e-07
1.92753e-07
-1.57226e-07
1.19371e-07
1.71119e-08
-1.75158e-07
1.98754e-08
-2.01714e-07
1.6144e-08
-2.07485e-07
8.35985e-09
-2.07936e-07
-8.64124e-10
-2.07997e-07
-9.89699e-09
-2.08066e-07
-1.66719e-08
-2.08906e-07
-1.98038e-08
-2.07243e-07
-1.72595e-08
-2.0101e-07
-1.74485e-07
8.41624e-09
-1.83574e-07
8.59067e-09
-2.01889e-07
7.19203e-09
-2.06086e-07
3.46724e-09
-2.04211e-07
1.64743e-10
-2.04695e-07
-3.26867e-09
-2.04633e-07
-7.76285e-09
-2.04412e-07
-9.05468e-09
-2.05951e-07
-8.64664e-09
-2.01418e-07
-1.83132e-07
7.51805e-09
-1.91092e-07
5.21565e-09
-1.99586e-07
6.10941e-09
-2.0698e-07
1.41683e-09
-1.99518e-07
-1.00159e-10
-2.03178e-07
-1.65369e-09
-2.03079e-07
-6.50617e-09
-1.99559e-07
-5.6463e-09
-2.06811e-07
-7.70239e-09
-1.99362e-07
-1.90834e-07
3.32561e-08
3.52109e-08
2.4289e-08
1.52885e-08
9.56975e-11
-1.52069e-08
-2.43825e-08
-3.53128e-08
-3.32661e-08
-2.22234e-07
2.08726e-08
2.00953e-07
-2.474e-07
2.5197e-08
-2.77011e-07
2.96364e-08
-3.01409e-07
2.43815e-08
-3.17908e-07
1.64836e-08
-3.27352e-07
9.24588e-09
-3.24817e-07
-2.53425e-09
-3.16826e-07
-7.9913e-09
-3.07419e-07
-9.40693e-09
-1.02476e-08
-2.97172e-07
-3.09317e-07
6.72736e-08
2.62943e-07
-3.43246e-07
5.9154e-08
-3.58589e-07
4.50449e-08
-3.58709e-07
2.44851e-08
-3.52863e-07
1.04546e-08
-3.46382e-07
2.76526e-09
-3.42628e-07
-6.28839e-09
-3.384e-07
-1.22193e-08
-3.3213e-07
-1.56774e-08
-2.07482e-08
-3.21629e-07
-3.4518e-07
9.15675e-08
3.21617e-07
-3.58847e-07
7.12102e-08
-3.60264e-07
4.64907e-08
-3.59073e-07
2.32993e-08
-3.59624e-07
1.1047e-08
-3.62182e-07
5.32167e-09
-3.66827e-07
-1.6394e-09
-3.68046e-07
-1.09748e-08
-3.64178e-07
-1.95849e-08
-3.04969e-08
-3.54412e-07
-3.56493e-07
9.46144e-08
3.49836e-07
-3.56922e-07
7.06294e-08
-3.56974e-07
4.65478e-08
-3.62791e-07
2.91206e-08
-3.73177e-07
2.14699e-08
-3.85695e-07
1.78389e-08
-3.94834e-07
7.49375e-09
-3.9757e-07
-8.24986e-09
-3.93428e-07
-2.37652e-08
-4.30284e-08
-3.80891e-07
-3.48944e-07
9.57369e-08
3.43943e-07
-3.50554e-07
7.22391e-08
-3.56874e-07
5.28694e-08
-3.70293e-07
4.26068e-08
-3.86445e-07
3.76217e-08
-3.97127e-07
2.85196e-08
-3.99609e-07
9.97454e-09
-3.95862e-07
-1.20174e-08
-3.86472e-07
-3.32244e-08
-5.96684e-08
-3.69826e-07
-3.28824e-07
9.72723e-08
3.23621e-07
-3.35106e-07
7.85208e-08
-3.46568e-07
6.43317e-08
-3.58052e-07
5.41526e-08
-3.66353e-07
4.59222e-08
-3.67858e-07
3.00241e-08
-3.62974e-07
5.02201e-09
-3.54463e-07
-2.05211e-08
-3.44672e-07
-4.30073e-08
-6.62312e-08
-3.38103e-07
-2.87349e-07
1.06569e-07
2.74706e-07
-2.99638e-07
9.08105e-08
-3.11059e-07
7.5752e-08
-3.15071e-07
5.81645e-08
-3.09896e-07
4.07674e-08
-2.98737e-07
1.88722e-08
-2.86846e-07
-6.86347e-09
-2.74004e-07
-3.33566e-08
-2.66412e-07
-5.05913e-08
-6.0887e-08
-2.71368e-07
-2.13055e-07
1.14496e-07
2.00683e-07
-2.20498e-07
9.82529e-08
-2.21756e-07
7.70099e-08
-2.1138e-07
4.77888e-08
-1.86739e-07
1.61264e-08
-1.61226e-07
-6.61842e-09
-1.49078e-07
-1.90053e-08
-1.39477e-07
-4.29494e-08
-1.26041e-07
-6.37508e-08
-5.73435e-08
-1.27245e-07
-1.38984e-07
1.21582e-07
1.31898e-07
-1.41436e-07
1.00705e-07
-1.41293e-07
7.68663e-08
-1.31175e-07
3.76714e-08
-1.0504e-07
-1.00086e-08
-6.9788e-08
-4.09221e-08
-4.56294e-08
-3.71317e-08
-4.27158e-08
-4.05455e-08
-4.6294e-08
-4.75483e-08
-3.65088e-08
-4.54721e-08
-4.79909e-08
1.51922e-07
1.07795e-08
-7.01265e-08
1.22841e-07
-8.09419e-08
8.76819e-08
-8.47464e-08
4.14761e-08
-8.81046e-08
-6.65009e-09
-6.98314e-08
-5.87679e-08
-2.65661e-08
-7.06152e-08
-7.66691e-09
-4.6067e-08
-3.34317e-08
-9.23196e-09
1.15958e-09
-7.11006e-08
1.02606e-07
1.50076e-07
-1.01327e-07
7.76521e-08
1.42902e-07
4.16324e-08
1.21856e-07
7.85733e-09
7.52515e-08
-3.87902e-08
3.99824e-08
-8.43611e-08
-1.36363e-08
-8.25232e-08
-6.8242e-08
-6.19175e-08
-4.58607e-08
-6.53981e-08
-5.75184e-09
1.32088e-08
-7.74478e-08
1.37308e-07
1.36187e-07
-1.23954e-07
1.4409e-07
1.35652e-07
1.44201e-07
1.24088e-07
1.179e-07
1.01754e-07
5.99092e-08
9.79669e-08
-1.21866e-08
4.47732e-08
-7.46514e-08
-9.90188e-09
-8.22904e-08
-2.68028e-08
-6.20811e-08
-2.59601e-08
-1.11972e-08
-3.76756e-08
1.32965e-07
1.20391e-07
-1.17639e-07
1.42796e-07
1.25344e-07
1.46648e-07
1.28675e-07
1.17765e-07
1.20441e-07
5.64166e-08
1.29988e-07
-8.29878e-09
1.10679e-07
-5.26752e-08
3.29311e-08
-7.59402e-08
-3.5336e-09
-8.7555e-08
-1.33812e-08
-1.45426e-08
-8.47314e-08
1.13573e-07
1.33414e-07
-1.17602e-07
1.11262e-07
1.33849e-07
1.01562e-07
1.33647e-07
6.5074e-08
1.31244e-07
3.86196e-08
1.56157e-07
7.20362e-09
1.43574e-07
-3.74148e-08
7.81652e-08
-7.00283e-08
2.90822e-08
-8.28517e-08
-9.01889e-10
-2.27599e-08
-7.49288e-08
1.17467e-07
1.55218e-07
-1.39265e-07
1.04386e-07
1.46929e-07
8.22417e-08
1.41906e-07
6.24614e-08
1.50738e-07
6.03261e-08
1.58076e-07
5.73847e-08
1.46315e-07
2.89815e-08
1.08955e-07
-7.04028e-09
6.51043e-08
-3.02486e-08
2.23067e-08
-1.28718e-08
-4.01363e-08
1.46315e-07
1.88897e-07
-1.79992e-07
1.15888e-07
1.77351e-07
8.62672e-08
1.65986e-07
7.52017e-08
1.59871e-07
7.24259e-08
1.60659e-07
6.81151e-08
1.50427e-07
6.55589e-08
1.14225e-07
4.09115e-08
8.95867e-08
1.47681e-08
4.84504e-08
1.10286e-08
-9.13201e-09
1.85038e-07
2.11785e-07
-2.0793e-07
1.58353e-07
2.0403e-07
1.33316e-07
1.91023e-07
1.10299e-07
1.90359e-07
9.81869e-08
1.72588e-07
9.84994e-08
1.49922e-07
9.86715e-08
1.13869e-07
8.79931e-08
1.0327e-07
4.97962e-08
8.66481e-08
5.17242e-08
9.10079e-09
2.07841e-07
2.28625e-07
-2.24682e-07
1.9714e-07
2.14731e-07
1.85251e-07
2.02918e-07
1.76488e-07
1.99123e-07
1.5884e-07
1.97237e-07
1.44158e-07
1.81025e-07
1.28432e-07
1.29436e-07
1.38555e-07
1.13741e-07
1.1466e-07
1.1534e-07
9.73892e-08
6.8996e-08
2.11854e-07
2.42905e-07
-2.26123e-07
2.07463e-07
2.19128e-07
2.04421e-07
2.05964e-07
2.04324e-07
1.99223e-07
2.06766e-07
1.94806e-07
2.03495e-07
1.87849e-07
1.81474e-07
1.71756e-07
1.7521e-07
1.46453e-07
1.68926e-07
1.27122e-07
1.18763e-07
1.47565e-07
2.09695e-07
2.43408e-07
-2.07075e-07
2.04657e-07
2.24154e-07
2.03523e-07
2.07103e-07
2.04759e-07
1.97992e-07
2.08015e-07
1.91552e-07
2.12007e-07
1.8388e-07
2.11583e-07
1.72563e-07
2.05447e-07
1.54034e-07
1.99549e-07
1.3433e-07
1.2178e-07
1.96291e-07
2.05216e-07
2.40386e-07
-1.87418e-07
2.02951e-07
2.26439e-07
1.97725e-07
2.12335e-07
1.95397e-07
2.00323e-07
1.95505e-07
1.91444e-07
1.98175e-07
1.81219e-07
2.00965e-07
1.69774e-07
2.03152e-07
1.51836e-07
2.06411e-07
1.31072e-07
1.15233e-07
2.1295e-07
1.96959e-07
2.40142e-07
-1.7521e-07
1.98332e-07
2.25092e-07
1.93573e-07
2.17098e-07
1.83168e-07
2.10729e-07
1.72879e-07
2.01732e-07
1.65359e-07
1.88739e-07
1.66491e-07
1.68642e-07
1.7699e-07
1.41338e-07
1.90005e-07
1.18056e-07
9.94179e-08
2.05821e-07
1.77457e-07
2.34055e-07
-1.68616e-07
1.8271e-07
2.19844e-07
1.85501e-07
2.14306e-07
1.79794e-07
2.16435e-07
1.63404e-07
2.18123e-07
1.45875e-07
2.06266e-07
1.37348e-07
1.77169e-07
1.4042e-07
1.38265e-07
1.53718e-07
1.04758e-07
7.84224e-08
1.74713e-07
1.59702e-07
2.18586e-07
-1.44221e-07
1.74992e-07
2.04555e-07
1.84631e-07
2.04668e-07
1.88511e-07
2.12555e-07
1.79391e-07
2.25273e-07
1.61071e-07
2.24586e-07
1.44143e-07
1.94096e-07
1.3837e-07
1.44038e-07
1.42956e-07
1.00172e-07
6.14376e-08
1.5994e-07
1.34159e-07
2.02044e-07
-1.17617e-07
1.52207e-07
1.86508e-07
1.71115e-07
1.85759e-07
1.8317e-07
2.005e-07
1.74774e-07
2.08769e-07
1.72151e-07
1.94232e-07
1.78179e-07
1.80318e-07
1.69555e-07
1.45468e-07
1.59261e-07
1.04534e-07
5.5438e-08
1.6526e-07
8.04709e-08
1.82776e-07
-6.12027e-08
1.06587e-07
1.60392e-07
1.35692e-07
1.56654e-07
1.62407e-07
1.73785e-07
1.56967e-07
1.76552e-07
1.70397e-07
1.80614e-07
1.83067e-07
1.6761e-07
1.86336e-07
1.42175e-07
1.83577e-07
1.07273e-07
5.34093e-08
1.91028e-07
4.93812e-08
1.48754e-07
-1.53583e-08
7.55338e-08
1.34241e-07
9.68964e-08
1.35292e-07
1.1396e-07
1.4989e-07
1.33223e-07
1.51596e-07
1.58942e-07
1.54863e-07
1.77994e-07
1.48542e-07
1.86393e-07
1.3376e-07
1.92136e-07
1.01515e-07
4.82167e-08
2.07866e-07
9.90182e-10
1.21453e-07
2.63099e-08
2.53706e-08
1.09541e-07
4.91781e-08
1.09819e-07
6.2706e-08
1.22626e-07
1.03045e-07
1.11225e-07
1.36249e-07
1.21642e-07
1.65833e-07
1.18943e-07
1.96136e-07
1.03442e-07
2.2889e-07
6.87457e-08
3.6723e-08
2.75824e-07
-5.48367e-08
9.27706e-08
8.35171e-08
-2.85004e-08
8.32087e-08
-1.61413e-09
8.19792e-08
2.89038e-08
9.08424e-08
4.63054e-08
9.44959e-08
9.09882e-08
7.84594e-08
1.52662e-07
6.51121e-08
2.15033e-07
4.89075e-08
2.61788e-07
2.78832e-08
4.06462e-08
2.57898e-07
-1.18989e-07
7.67538e-08
1.35003e-07
-9.36546e-08
5.78695e-08
-5.64641e-08
4.47796e-08
-1.229e-08
4.32292e-08
7.62224e-09
6.83224e-08
3.60124e-08
4.56476e-08
6.46282e-08
3.34458e-08
7.87496e-08
2.95742e-08
7.85354e-08
2.27857e-08
2.59347e-08
8.68499e-08
-2.15848e-07
4.50263e-08
2.52734e-07
-1.79659e-07
1.83134e-08
-1.46755e-07
7.80727e-09
-1.27321e-07
1.65199e-08
-6.66927e-08
4.91226e-09
-2.26604e-08
-1.12525e-09
1.02944e-08
-2.15942e-09
3.26918e-08
4.48414e-09
3.34434e-08
1.93017e-08
1.68878e-08
5.74947e-08
-3.39107e-07
-2.65656e-09
3.78697e-07
-3.19922e-07
-3.78834e-08
-2.61623e-07
-4.05514e-08
-1.87374e-07
-4.80877e-08
-1.11076e-07
-6.18034e-08
-5.53035e-08
-6.05545e-08
-8.7639e-09
-5.37972e-08
4.00515e-08
-3.64792e-08
9.66282e-08
-2.95088e-08
-2.203e-08
1.43325e-07
-4.20784e-07
-6.99877e-08
4.92215e-07
-3.5952e-07
-7.34372e-08
-2.47455e-07
-8.90879e-08
-1.53807e-07
-9.71596e-08
-7.40269e-08
-1.28894e-07
-7.67175e-09
-1.20764e-07
6.11659e-08
-1.03183e-07
1.30581e-07
-9.23131e-08
1.95507e-07
-8.69367e-08
-8.1208e-08
2.71358e-07
-3.50535e-07
-9.35664e-08
5.45785e-07
-2.8086e-07
-1.92122e-07
-1.66939e-07
-2.50466e-07
-6.4093e-08
-2.46936e-07
3.13426e-08
-2.76992e-07
1.048e-07
-2.53449e-07
1.72448e-07
-2.11847e-07
2.43865e-07
-2.02672e-07
3.10742e-07
-1.92754e-07
-1.98384e-07
3.88977e-07
-3.05642e-07
-1.59989e-07
3.68531e-07
-1.82128e-07
-4.06441e-07
-7.64799e-08
-4.57308e-07
2.68863e-08
-4.24083e-07
9.00758e-08
-3.92212e-07
1.62412e-07
-3.64574e-07
2.29573e-07
-3.56411e-07
2.4868e-07
-3.60961e-07
3.39767e-07
-3.73203e-07
-3.75561e-07
4.93612e-07
-1.39538e-07
-2.71163e-07
2.02791e-07
-8.53333e-08
-4.97475e-07
-2.87622e-08
-5.13895e-07
1.58217e-08
-4.68647e-07
4.50144e-08
-4.21312e-07
8.49946e-08
-4.04439e-07
1.29176e-07
-4.00477e-07
1.80152e-07
-4.11839e-07
2.45884e-07
-4.38842e-07
-4.67842e-07
3.38253e-07
1.32702e-09
-4.95059e-07
3.69868e-08
-1.41798e-09
-5.18037e-07
-2.56719e-08
-4.89647e-07
-6.8303e-08
-4.26019e-07
-1.13144e-07
-3.75607e-07
-1.26168e-07
-3.91323e-07
-9.69622e-08
-4.29568e-07
-3.92597e-08
-4.69426e-07
3.76583e-08
-5.15663e-07
-5.58998e-07
1.28905e-07
3.80741e-08
-5.09698e-07
-2.3418e-08
-1.2152e-08
-4.74891e-07
-1.13853e-07
-3.87918e-07
-2.07964e-07
-3.28401e-07
-2.59944e-07
-3.24751e-07
-2.63499e-07
-3.92739e-07
-2.36579e-07
-4.56229e-07
-1.88434e-07
-5.17222e-07
-1.15245e-07
-5.8862e-07
-6.4015e-07
-3.39512e-08
-3.97397e-08
-4.74369e-07
4.43362e-09
-1.56566e-07
-3.58041e-07
-2.56463e-07
-2.87999e-07
-3.0494e-07
-2.79895e-07
-3.13277e-07
-3.21007e-07
-2.94403e-07
-3.905e-07
-2.83073e-07
-4.51047e-07
-2.77471e-07
-4.87573e-07
-2.67855e-07
-5.96537e-07
-6.49319e-07
-2.58112e-07
-3.15513e-07
-4.41078e-07
2.82237e-07
-3.47476e-07
-3.26054e-07
-3.42049e-07
-2.93401e-07
-3.30293e-07
-2.91608e-07
-3.18522e-07
-3.32532e-07
-2.93963e-07
-3.56741e-07
-2.56962e-07
-2.77089e-07
-2.38425e-07
-3.10265e-07
-3.146e-07
-3.92575e-07
-5.90032e-07
-3.38641e-07
-5.20341e-07
-4.93121e-07
5.72388e-07
-4.29002e-07
-4.17369e-07
-3.67931e-07
-3.54428e-07
-3.23194e-07
-3.36249e-07
-3.03579e-07
-3.51697e-07
-1.87989e-07
-3.48895e-07
-1.92932e-07
-2.78107e-07
-1.98282e-07
-3.1039e-07
-2.36779e-07
-3.59684e-07
-4.03091e-07
-2.59672e-07
-6.50357e-07
-5.26977e-07
6.84172e-07
-5.48859e-07
-5.18833e-07
-4.31723e-07
-4.71468e-07
-3.43249e-07
-4.24452e-07
-2.82357e-07
-4.11895e-07
-1.78941e-07
-4.1791e-07
-1.32686e-07
-3.28118e-07
-1.27074e-07
-3.22142e-07
-1.47725e-07
-3.46209e-07
-3.80176e-07
-1.79472e-07
-7.14154e-07
-3.90885e-07
5.75712e-07
-6.91906e-07
-5.40989e-07
-6.03927e-07
-5.59177e-07
-4.87799e-07
-5.39843e-07
-3.62657e-07
-5.21318e-07
-2.17235e-07
-5.43624e-07
-9.54543e-08
-5.06415e-07
-3.80797e-08
-3.99063e-07
-2.05155e-08
-3.78493e-07
-3.55253e-07
-5.03988e-08
-4.44922e-07
-1.82601e-07
2.41774e-07
-6.41306e-07
-3.30227e-07
-6.46605e-07
-5.52725e-07
-5.48547e-07
-5.82097e-07
-4.44297e-07
-5.23156e-07
-3.02213e-07
-6.0522e-07
-1.59888e-07
-6.66944e-07
-1.7316e-08
-6.39582e-07
6.66438e-08
-6.16524e-07
-4.93007e-07
6.34772e-08
-8.14254e-08
-1.39696e-07
3.86867e-08
-1.97042e-07
-2.35018e-07
-3.01412e-07
-4.14179e-07
-3.58848e-07
-4.72261e-07
-3.68223e-07
-5.30598e-07
-3.67018e-07
-6.23243e-07
-2.46328e-07
-7.61382e-07
-8.07383e-08
-8.44954e-07
7.18381e-08
-7.90882e-07
-5.71473e-07
1.46167e-07
8.63806e-08
-1.4752e-07
-8.00227e-08
1.06779e-07
-3.49769e-07
6.75214e-08
-4.34257e-07
-1.51824e-08
-4.7372e-07
-9.43856e-08
-5.12537e-07
-1.64747e-07
-5.67841e-07
-1.63814e-07
-7.94094e-07
-8.43001e-08
-9.75274e-07
2.91725e-08
-9.15257e-07
-6.68171e-07
1.23582e-07
1.61205e-07
-2.89057e-07
-1.24636e-07
1.45857e-07
-3.852e-07
1.37949e-07
-4.26379e-07
1.31316e-07
-4.67085e-07
1.02698e-07
-5.09491e-07
4.11312e-08
-5.9872e-07
2.92105e-08
-8.98178e-07
4.53206e-08
-1.01997e-06
4.8053e-08
-6.82719e-07
-3.22112e-07
9.85e-08
1.18523e-07
-3.13617e-07
-9.20446e-08
1.18926e-07
-3.85496e-07
1.22527e-07
-4.29974e-07
1.22516e-07
-4.67098e-07
1.06004e-07
-4.92979e-07
8.24435e-08
-5.75159e-07
1.12153e-07
-9.27887e-07
1.06454e-07
-1.02597e-06
5.56826e-08
-4.31735e-07
-2.75541e-07
4.93344e-08
5.3046e-08
-1.83847e-07
4.86853e-09
8.06375e-08
-3.81118e-07
9.8872e-08
-4.48401e-07
1.00703e-07
-4.68928e-07
8.91475e-08
-4.81424e-07
1.04903e-07
-5.90915e-07
1.61525e-07
-9.84508e-07
9.05481e-08
-7.62529e-07
4.23658e-08
-2.72115e-07
-2.25749e-07
5.11498e-08
5.09901e-08
-6.08494e-08
-8.86094e-09
1.13861e-07
-3.05296e-07
1.17284e-07
-4.5055e-07
1.06605e-07
-4.58273e-07
9.32461e-08
-4.68066e-07
1.40989e-07
-6.38679e-07
1.94238e-07
-1.03776e-06
1.0069e-07
-5.01627e-07
7.34171e-08
-2.51043e-07
-2.14175e-07
8.62118e-08
3.40887e-08
-6.44238e-08
-3.41716e-08
2.02138e-07
-2.84654e-07
1.80056e-07
-4.27823e-07
1.465e-07
-4.24721e-07
1.12429e-07
-4.34023e-07
1.38837e-07
-6.65128e-07
1.44727e-07
-1.04368e-06
5.67856e-08
-3.97097e-07
3.7002e-08
-2.39171e-07
-2.2574e-07
1.45759e-08
9.43354e-08
-7.26265e-08
-7.42402e-08
2.46446e-07
-3.03038e-07
2.21126e-07
-4.02224e-07
1.82642e-07
-3.86084e-07
1.40435e-07
-3.91862e-07
1.20731e-07
-6.45378e-07
7.73822e-08
-1.01428e-06
2.04458e-08
-3.7236e-07
7.24913e-10
-2.27361e-07
-2.03846e-07
-3.60862e-08
2.1536e-07
-7.92831e-08
-1.14894e-07
3.26399e-07
-3.1889e-07
2.86514e-07
-3.62183e-07
2.4459e-07
-3.44187e-07
2.0611e-07
-3.53353e-07
1.69515e-07
-6.08814e-07
1.00024e-07
-9.9356e-07
2.02611e-08
-4.1558e-07
2.34852e-09
-2.1736e-07
-1.26263e-07
1.07842e-08
3.81105e-07
-1.91813e-07
-1.19988e-07
4.03352e-07
-2.89221e-07
3.51891e-07
-3.10392e-07
3.04122e-07
-2.96369e-07
2.66104e-07
-3.15365e-07
2.69014e-07
-6.11773e-07
2.51705e-07
-9.85151e-07
7.52913e-08
-4.30027e-07
6.43559e-08
-2.16512e-07
-8.84165e-08
8.80271e-08
4.20842e-07
-2.40908e-07
-3.23717e-07
3.89474e-07
-2.52718e-07
3.4623e-07
-2.65486e-07
3.08274e-07
-2.58304e-07
2.882e-07
-2.95239e-07
3.72189e-07
-6.95817e-07
3.54059e-07
-9.67199e-07
1.46528e-07
-3.83682e-07
1.01064e-07
-1.88421e-07
-1.43947e-07
1.57994e-07
3.55027e-07
-2.29436e-07
-3.66523e-07
3.28066e-07
-2.28639e-07
3.09446e-07
-2.30337e-07
2.74814e-07
-2.23648e-07
2.82396e-07
-3.02712e-07
4.22526e-07
-8.36129e-07
3.3636e-07
-9.68223e-07
1.45818e-07
-2.37019e-07
7.98272e-08
-1.63757e-07
-1.57673e-07
1.52548e-07
3.08384e-07
-2.09804e-07
-3.38212e-07
2.74035e-07
-1.95282e-07
2.59296e-07
-2.02454e-07
2.36204e-07
-1.98748e-07
3.44149e-07
-4.10628e-07
4.69356e-07
-9.62408e-07
2.60415e-07
-8.66178e-07
1.28056e-07
-1.41907e-07
8.26986e-08
-6.6494e-08
-9.0056e-08
3.85928e-08
2.77172e-07
-1.70842e-07
-3.17094e-07
2.54942e-07
-1.74046e-07
2.42498e-07
-1.81102e-07
2.05621e-07
-1.61267e-07
4.05676e-07
-6.28899e-07
4.29693e-07
-1.02042e-06
1.75329e-07
-7.25548e-07
7.75507e-08
-6.66811e-08
4.9693e-08
4.415e-09
-2.90166e-08
5.0282e-08
3.01547e-07
-1.45344e-07
-3.1924e-07
2.96434e-07
-1.61135e-07
2.44423e-07
-1.28488e-07
1.80715e-07
-9.69669e-08
3.05172e-07
-7.74539e-07
2.913e-07
-1.0182e-06
5.00441e-08
-5.44742e-07
9.01473e-10
-2.45665e-08
1.56601e-08
2.08595e-09
-8.2665e-09
4.94523e-08
3.29966e-07
-1.13388e-07
-3.55943e-07
2.79143e-07
-1.08581e-07
2.20216e-07
-6.89654e-08
1.21353e-07
2.50034e-09
2.04648e-07
-8.54736e-07
1.95971e-07
-1.01617e-06
1.38609e-09
-3.98916e-07
0
-1.91623e-08
6.17877e-10
6.66299e-10
1.91883e-10
-5.74575e-11
2.54559e-07
-8.72923e-08
-2.80115e-07
1.40717e-07
5.12762e-09
4.39311e-09
6.82213e-08
8.72219e-08
-6.47016e-08
1.6258e-07
-9.16806e-07
1.55555e-07
-1.0149e-06
0
-2.63802e-07
7.34465e-11
-1.94533e-08
3.49227e-11
2.11707e-10
2.97142e-11
1.52398e-10
-6.01284e-08
4.27778e-08
4.54187e-08
-8.63498e-08
2.8827e-08
-2.09181e-08
6.39823e-11
4.32054e-08
-1.43951e-07
9.0476e-08
-9.54095e-07
7.2029e-08
-1.00272e-06
0
-1.95595e-07
0
-1.85524e-08
3.20785e-12
3.66019e-11
4.23723e-12
4.41721e-11
-5.72468e-08
2.58195e-08
7.1638e-08
-4.00622e-08
8.71156e-09
-2.92964e-08
-1.325e-08
1.51711e-08
-1.60922e-07
3.86419e-08
-9.62091e-07
1.87974e-08
-9.82587e-07
0
-1.50642e-07
-3.16308e-11
-1.46127e-08
0
8.18738e-12
1.6904e-11
3.17868e-11
-3.09856e-08
6.49023e-10
5.32251e-08
-3.02131e-09
-1.99775e-08
-3.87029e-10
-2.14077e-08
7.90743e-09
-1.17525e-07
1.75702e-08
-9.50904e-07
1.25011e-08
-9.55231e-07
-1.17504e-09
-9.48154e-08
-7.42342e-12
-7.45552e-09
1.50227e-12
-8.6903e-13
4.45607e-12
1.61715e-11
-1.48063e-09
-5.38832e-11
2.22787e-08
9.72234e-09
-5.68335e-10
2.14439e-08
-1.43407e-08
1.48385e-08
-7.90498e-08
1.69326e-08
-9.21438e-07
1.87661e-10
-9.21132e-07
-1.83565e-09
-7.39503e-08
-2.47293e-12
-6.13388e-09
7.19295e-13
-4.19198e-12
-4.00471e-12
9.04935e-12
1.61135e-10
-1.81035e-10
-5.98325e-11
4.23044e-10
-8.69353e-10
5.47023e-09
-8.32168e-09
1.27934e-08
-6.37018e-08
2.08858e-08
-8.95322e-07
1.52124e-09
-8.96229e-07
-1.32691e-10
-6.3563e-08
-2.47795e-12
-4.9835e-09
0
-7.1287e-12
-5.54142e-11
2.33921e-11
2.9159e-10
-1.41561e-10
-1.77919e-10
7.23188e-09
-9.20341e-10
1.41021e-08
-5.98606e-10
2.51695e-08
-5.61861e-08
5.12126e-08
-8.77172e-07
2.05245e-08
-8.75038e-07
0
-5.11209e-08
-1.28671e-11
-3.94636e-09
-8.8742e-12
-1.12521e-11
-5.01068e-11
-4.44499e-12
0
-7.97538e-12
6.19445e-11
-4.80632e-10
-5.37777e-11
2.05177e-09
-4.45729e-12
1.73311e-08
-5.18016e-08
2.16345e-08
-8.67184e-07
5.04454e-09
-8.5944e-07
0
-4.87629e-08
-8.47756e-11
-2.41628e-09
-8.05873e-11
-1.06932e-11
-6.22918e-11
-6.94568e-11
-7.90173e-12
-7.10735e-12
7.93412e-12
-2.84881e-12
-5.45292e-11
7.20337e-13
-4.96484e-12
2.94131e-09
-5.17196e-08
-7.00417e-09
-8.69023e-07
-1.21469e-08
-8.57303e-07
-8.79804e-10
-5.06975e-08
-1.13689e-10
-1.42778e-09
-1.10386e-10
-3.11228e-12
-3.3978e-11
-1.93559e-10
-8.029e-12
-3.64623e-12
4.03449e-13
0
-1.51717e-10
1.94543e-12
-5.22073e-12
8.91711e-09
-6.06972e-08
-2.18335e-10
-8.81153e-07
-7.06345e-09
-8.74201e-07
-7.54566e-10
-6.11801e-08
-8.83482e-11
-9.64574e-10
-8.53342e-11
4.16136e-12
-4.74388e-12
-4.69119e-11
5.08498e-12
0
-2.61065e-11
1.00664e-11
-1.37224e-10
8.3577e-12
-5.47482e-12
-2.16537e-10
-8.65549e-08
-1.39841e-08
-8.9788e-07
-1.55043e-08
-8.94231e-07
-1.87189e-09
-8.68605e-08
-6.31081e-11
-7.34779e-10
-5.86702e-11
7.66491e-12
1.43241e-11
-4.93006e-11
0
-2.01719e-11
-1.81802e-11
3.22301e-11
-1.49896e-10
2.67961e-11
-3.03298e-12
1.6055e-08
-1.2325e-07
7.86035e-09
-9.06503e-07
-2.78114e-09
-9.04566e-07
-7.42012e-10
-1.17804e-07
0
-9.03944e-12
0
1.82639e-11
2.15663e-11
1.43039e-11
1.47713e-12
-1.10108e-10
-6.05426e-12
1.9507e-11
-1.4805e-10
1.56067e-11
-1.83585e-12
6.88585e-09
-1.45969e-07
1.8038e-09
-9.07289e-07
-8.61302e-09
-9.03653e-07
-8.08156e-12
-1.43475e-07
0
-1.70942e-11
6.33194e-11
-7.78479e-12
4.36056e-11
1.4596e-12
1.94277e-11
-7.6522e-11
-9.13908e-12
1.49513e-11
-3.54301e-11
1.07971e-11
-6.61365e-13
6.75679e-09
-1.51317e-07
3.81666e-09
-8.97888e-07
-5.20817e-09
-8.96699e-07
-2.29508e-12
-1.57051e-07
1.97327e-12
-2.13691e-11
1.56885e-11
-2.14751e-11
2.42804e-11
5.99197e-11
-1.29417e-12
-2.17269e-14
5.52377e-12
3.91401e-13
-2.02994e-14
1.56048e-12
-3.33719e-12
2.41966e-08
-1.56005e-07
2.2432e-08
-8.82184e-07
1.39942e-08
-8.86131e-07
-1.6118e-13
-1.51627e-07
-8.31578e-13
-2.13462e-11
-2.28577e-11
-9.8566e-12
5.03152e-11
-1.19462e-11
-4.56926e-15
-2.42142e-14
6.31067e-15
1.51914e-15
-2.74522e-14
1.5509e-11
-1.88457e-11
1.34945e-08
-1.56941e-07
3.54854e-09
-8.67466e-07
-6.66024e-09
-8.70946e-07
-4.16955e-12
-1.49771e-07
-7.22526e-12
-1.98233e-11
-1.27091e-11
-5.06724e-12
4.52358e-11
-3.3463e-11
-1.336e-15
-2.89375e-14
5.63669e-15
9.1931e-15
-3.8659e-14
-1.87923e-11
-4.71685e-14
-1.36654e-08
-1.55753e-07
-2.95875e-08
-8.58681e-07
-3.24431e-08
-8.50167e-07
-7.26034e-12
-1.54873e-07
-1.04016e-11
-1.81333e-11
-5.10036e-12
-2.52152e-12
7.05804e-11
-3.91939e-11
7.9641e-16
-3.63952e-14
4.67004e-15
4.8472e-15
-4.33544e-14
3.62293e-15
-5.13752e-14
1.55362e-08
-1.62076e-07
2.23392e-09
-8.40446e-07
-8.03059e-09
-8.39303e-07
-7.91046e-12
-1.60131e-07
-1.08216e-11
-1.65634e-11
-2.22036e-11
3.31857e-12
9.62526e-11
-1.06402e-10
2.82738e-15
-7.06055e-14
1.37521e-14
1.11156e-14
-5.41387e-14
2.33906e-14
-6.626e-14
1.28552e-08
-1.73543e-07
-1.39204e-10
-8.27069e-07
-1.26652e-08
-8.26441e-07
-1.50837e-11
-1.71768e-07
-1.95709e-11
-1.39519e-11
-8.07086e-11
3.41479e-11
1.39262e-10
-1.20888e-10
3.45323e-14
-2.70491e-12
3.13776e-14
5.33885e-14
-1.26538e-12
8.40097e-14
-9.93772e-14
1.47156e-08
-1.89265e-07
1.14182e-09
-8.14405e-07
-1.28393e-08
-8.1284e-07
-1.70999e-11
-1.86634e-07
-1.93178e-11
-1.35274e-11
-4.85585e-11
6.92993e-11
1.80471e-10
-8.6741e-11
1.38546e-13
-2.73425e-12
-5.13018e-15
2.02462e-13
-2.78847e-12
2.38803e-13
-1.43177e-13
6.569e-09
-2.03235e-07
-9.89e-09
-8.01005e-07
-2.20159e-08
-7.98182e-07
-4.02333e-11
-2.03236e-07
-4.3057e-11
-1.0899e-11
-5.68134e-11
9.37227e-11
1.86813e-10
-5.99314e-11
2.25014e-13
-2.76591e-12
-7.9476e-14
3.94113e-13
-2.87659e-12
4.22705e-13
-1.777e-13
1.36207e-08
-2.16353e-07
-2.87074e-09
-7.84209e-07
-1.69659e-08
-7.83623e-07
-2.06724e-11
-2.17734e-07
-2.12446e-11
-9.33304e-12
-2.57202e-11
7.6616e-11
1.79973e-10
-1.33105e-11
2.1712e-13
-1.70651e-12
-3.90032e-13
3.27838e-13
-1.57355e-12
3.53972e-13
-1.9542e-13
1.65202e-08
-2.2807e-07
1.62012e-09
-7.67413e-07
-1.54819e-08
-7.66846e-07
-6.86736e-12
-2.30666e-07
-6.12496e-12
-8.91765e-12
3.17016e-11
1.54017e-11
1.41538e-10
1.096e-10
8.24912e-14
0
-2.32266e-13
1.89227e-13
-1.05844e-12
2.31238e-13
-2.16425e-13
3.14955e-08
-2.43811e-07
1.43935e-08
-7.4617e-07
-4.00637e-09
-7.51101e-07
-1.28811e-11
-2.42198e-07
-1.34641e-11
-7.80358e-12
-2.25462e-12
3.04407e-11
7.17607e-11
7.10508e-11
5.5016e-13
-3.91314e-13
-5.99569e-13
1.65431e-13
-9.19746e-13
1.96612e-13
-2.43867e-13
2.53041e-08
-2.62604e-07
6.61445e-09
-7.26831e-07
-1.51803e-08
-7.29969e-07
-1.47814e-11
-2.60048e-07
-1.68488e-11
-6.05313e-12
-1.89967e-11
2.79515e-11
1.98378e-11
3.36994e-11
1.1588e-12
-4.91051e-12
-1.51968e-12
1.81168e-13
-4.54338e-13
2.6597e-13
-3.63419e-13
1.7932e-08
-2.84563e-07
-1.77925e-09
-7.07645e-07
-2.52884e-08
-7.06887e-07
-2.14274e-12
-2.85698e-07
-2.24493e-12
-6.4244e-12
1.32527e-11
0
1.82141e-13
1.45188e-11
7.3898e-14
-8.31854e-12
-1.07966e-11
1.5805e-13
-5.8315e-13
8.56818e-13
-1.12403e-12
2.96376e-08
-3.13586e-07
7.19406e-09
-6.85148e-07
-1.49335e-08
-6.85908e-07
-9.27373e-13
-3.12257e-07
-1.23189e-12
-6.91278e-12
7.54739e-14
-2.16323e-12
3.30289e-13
3.31198e-14
1.8283e-13
-2.57248e-11
-2.42966e-11
4.34474e-13
-1.57924e-12
5.00881e-12
-5.77609e-12
2.9315e-08
-3.44393e-07
3.55521e-09
-6.60378e-07
-1.751e-08
-6.64795e-07
-5.91668e-12
-3.40879e-07
-3.21792e-12
-1.0085e-11
-5.53145e-13
-1.69659e-12
4.33778e-13
-5.1792e-13
3.0319e-12
-2.37989e-11
-8.48547e-11
1.24975e-12
-1.37418e-12
3.17987e-11
-3.64553e-11
1.84008e-08
-3.72549e-07
-8.16103e-09
-6.34863e-07
-3.48641e-08
-6.37046e-07
-2.86858e-11
-3.73108e-07
-5.74415e-12
-3.32644e-11
-5.71887e-13
-3.60572e-12
4.10054e-13
-3.72673e-13
4.62728e-12
-6.29998e-12
-1.18872e-10
3.00101e-12
-6.89059e-13
2.28081e-10
-2.63067e-10
1.87796e-08
-3.93536e-07
-5.60003e-09
-6.10122e-07
-3.2076e-08
-6.10742e-07
-1.94357e-10
-3.97464e-07
-8.03388e-12
-2.19546e-10
-7.24788e-12
-4.7056e-13
-1.36484e-12
-2.44992e-12
2.41554e-12
-2.68246e-12
-1.93817e-11
1.44815e-12
-5.67949e-13
1.74123e-09
-2.00379e-09
2.94378e-08
-4.11697e-07
2.92652e-09
-5.83526e-07
-2.05548e-08
-5.87391e-07
-1.46146e-09
-4.12891e-07
-2.93557e-12
-1.67844e-09
-3.37676e-12
-4.77741e-13
-1.10362e-12
-7.73512e-13
1.31116e-12
-6.3924e-13
-1.39342e-11
4.66909e-13
-4.73309e-13
9.18799e-09
-1.11922e-08
3.28979e-08
-4.3092e-07
1.1455e-09
-5.51978e-07
-2.7056e-08
-5.59127e-07
-8.07829e-09
-4.28008e-07
-7.77295e-13
-9.75636e-09
-1.12445e-12
-5.60852e-13
1.04377e-13
-2.9296e-12
1.80584e-12
3.03543e-13
-4.87e-12
1.01778e-12
-3.72614e-13
2.08968e-08
-2.9886e-08
3.09788e-08
-4.41613e-07
7.47646e-09
-5.28588e-07
-3.55112e-08
-5.16158e-07
-2.00847e-08
-4.4358e-07
-2.96882e-13
-2.92796e-08
-7.18339e-13
-5.69274e-13
1.20845e-13
-2.16711e-12
6.08802e-13
1.8916e-13
-8.32848e-13
2.93259e-12
-3.23794e-12
3.68135e-08
-6.79272e-08
4.87001e-08
-4.55799e-07
8.82144e-09
-4.88711e-07
-2.43726e-08
-4.83014e-07
-3.0963e-08
-4.38949e-07
-2.85807e-12
-6.23512e-08
-9.26582e-13
-2.91217e-12
2.03765e-13
-1.98822e-12
4.79308e-13
1.34049e-13
-6.62824e-13
7.40539e-11
-7.7151e-11
4.31323e-08
-1.11012e-07
2.38408e-08
-4.3623e-07
-1.54831e-08
-4.49415e-07
-4.46836e-08
-4.53797e-07
-5.14436e-08
-4.34521e-07
-5.42869e-11
-1.16346e-07
-1.00366e-12
-5.64956e-11
1.3724e-13
-1.1466e-12
2.5722e-12
1.30875e-13
-2.649e-12
1.58782e-09
-1.66258e-09
7.69641e-08
-1.92491e-07
4.85195e-08
-4.08803e-07
1.09156e-08
-4.11811e-07
-3.7162e-08
-4.05722e-07
-7.49683e-08
-3.95857e-07
-1.14512e-09
-1.83584e-07
-3.08596e-13
-1.20151e-09
6.69196e-14
-4.20217e-13
2.16627e-14
2.94425e-14
7.49519e-17
1.73993e-08
-1.90619e-08
7.79579e-08
-2.55642e-07
2.07139e-08
-3.51559e-07
-2.62933e-08
-3.64805e-07
-6.23431e-08
-3.69672e-07
-9.25937e-08
-3.65609e-07
-1.40013e-08
-2.58482e-07
-1.21082e-12
-1.52013e-08
-1.19192e-12
-9.41047e-14
7.22369e-10
-7.21321e-10
-1.12603e-12
6.48689e-08
-8.32998e-08
1.04913e-07
-2.97048e-07
6.86853e-08
-3.15331e-07
2.0545e-08
-3.16664e-07
-3.36011e-08
-3.15526e-07
-8.76358e-08
-3.11574e-07
-5.1605e-08
-2.93033e-07
-7.4537e-10
-6.51495e-08
-7.46543e-10
-1.35371e-13
2.87655e-08
-2.94869e-08
-2.67637e-14
1.3447e-07
-1.86793e-07
8.43495e-08
-2.46925e-07
2.71889e-08
-2.5817e-07
-2.3777e-08
-2.65699e-07
-7.0784e-08
-2.68519e-07
-1.14713e-07
-2.67646e-07
-1.49664e-07
-2.58413e-07
-2.78959e-08
-1.88272e-07
-2.86396e-08
-2.91823e-12
9.2767e-08