/*--------------------------------*- C++ -*----------------------------------*\
  =========                 |
  \\      /  F ield         | OpenFOAM: The Open Source CFD Toolbox
   \\    /   O peration     | Website:  https://openfoam.org
    \\  /    A nd           | Version:  8
     \\/     M anipulation  |
\*---------------------------------------------------------------------------*/
FoamFile
{
    version     2.0;
    format      ascii;
    class       volScalarField;
    location    "5.15";
    object      p_rgh;
}
// * * * * * * * * * * * * * * * * * * * * * * * * * * * * * * * * * * * * * //

dimensions      [1 -1 -2 0 0 0 0];

internalField   nonuniform List<scalar> 
9150
(
1963.48
1962.46
1961.84
1961.37
1961.14
1961.13
1961.37
1961.84
1962.46
1963.48
1963.04
1962.52
1962.1
1961.77
1961.6
1961.6
1961.77
1962.1
1962.52
1963.04
1962.77
1962.48
1962.23
1962.01
1961.89
1961.9
1962.01
1962.23
1962.48
1962.77
1962.65
1962.47
1962.3
1962.15
1962.07
1962.06
1962.15
1962.31
1962.47
1962.65
1962.65
1962.47
1962.33
1962.2
1962.14
1962.14
1962.2
1962.33
1962.47
1962.65
1951.63
1950.84
1951.13
1951.55
1951.73
1951.74
1951.56
1951.18
1950.88
1951.66
1955.73
1955.02
1954.86
1954.81
1954.91
1954.91
1954.8
1954.85
1955.01
1955.72
1958.86
1958.12
1957.82
1957.45
1957.39
1957.38
1957.44
1957.8
1958.11
1958.87
1961.59
1960.44
1959.98
1959.35
1959.19
1959.2
1959.38
1960.02
1960.46
1961.62
1964.17
1962.1
1961.35
1960.66
1960.38
1960.39
1960.66
1961.35
1962.11
1964.18
1947.13
1945.6
1943.8
1942.64
1942.02
1941.94
1942.37
1943.44
1945.61
1947.4
1946.16
1945.85
1944.83
1944.48
1944.02
1944.04
1944.54
1945.03
1946.09
1946.42
1945.65
1945.81
1944.74
1945.18
1944.67
1944.72
1945.21
1944.89
1945.94
1945.81
1942.47
1945.33
1944.31
1945.88
1945.71
1945.74
1945.91
1944.39
1945.4
1942.56
1936.47
1946.03
1946.5
1947.91
1948.32
1948.33
1947.94
1946.54
1946.08
1936.54
1012.48
1012.38
1012.1
1011.48
1010.72
1010.12
1009.54
1009.08
1008.82
1008.61
1012.29
1011.55
1010.99
1010.4
1009.74
1009.28
1008.95
1008.52
1008.27
1008.17
1010.4
1009.68
1008.93
1008.47
1007.99
1007.57
1007.38
1007.22
1007.15
1007.28
1007.64
1007.25
1006.87
1006.39
1005.92
1005.56
1005.36
1005.21
1005.23
1005.48
1005.19
1005.2
1004.48
1003.8
1003
1002.27
1001.84
1001.67
1001.76
1002.17
1004.02
1003.1
1001.85
1000.78
999.664
998.526
997.78
997.651
997.904
998.335
1002.08
1001.14
999.347
997.83
996.38
994.916
994.068
994.249
994.798
995.395
1001.58
999.792
997.479
995.76
994.704
993.749
993.012
993.431
994.782
994.724
1003.39
1000.49
998.176
996.741
996.257
995.567
988.486
986.173
986.386
969.528
1001.25
1000.92
999.05
998.212
998.261
998.667
971.49
949.503
940.88
937.837
995.311
994.386
1002.16
1002.27
1002.62
999.967
976.265
939.528
935.992
936.306
997.8
995.773
995.381
1010.93
1011.06
989.012
1006.45
982.58
935.893
935.886
1001.28
999.999
1002.19
1012.91
990.15
979.414
1010.82
1015.09
1012.92
1003.44
1011.43
1013.93
1012.26
982.148
971.265
973.194
1015.9
1015.31
1012.83
1013.58
1024.43
1023.16
1009.57
967.704
966.569
964.627
1009.01
1015.38
1014.65
1014.24
1026.1
1024.45
1020.58
966.806
964.662
962.774
978.844
1015.92
1015.71
1015.55
1026.17
1025.21
1024.26
1007.75
962.963
961.491
960.277
993.292
1017.81
1017.74
1025.9
1025.46
1024.97
1024.45
1013.05
970.724
962.122
970.144
1017.84
1019.59
1025.85
1026
1025.83
1025.48
1024.97
1020.24
991.947
991.318
1013.45
1020.55
1020.99
1027.56
1027.66
1027.52
1027.2
1026.72
1026.03
1024.79
1023.64
1020.91
1013.78
1029.89
1030.18
1030.34
1030.19
1029.87
1029.49
1028.77
1027.71
1026.46
1022.42
1033.16
1033.58
1033.74
1033.62
1033.27
1032.85
1032.42
1031.74
1030.72
1035.83
1037.16
1037.43
1037.42
1037.24
1036.82
1036.24
1035.86
1035.39
1034.74
1041.39
1041.94
1042.02
1041.87
1041.12
1040.31
1039.25
1038.72
1038.45
1037.93
1047.35
1047.87
1047.96
1047.45
1038.67
1005.24
1002.96
1021.29
1040.54
1040.99
1055.34
1055.72
1055.5
1054.9
1017.27
993.591
992.352
990.322
988.482
1013.6
1064.22
1064.4
1064.11
1063.47
1001.66
999.941
998.628
996.55
994.076
991.63
1072.73
1072.55
1072.75
1043.13
1008.25
1007.55
1006.07
1003.62
1000.34
1029.27
1081.2
1082.23
1080.03
1061.57
1059.69
1054.84
1050.12
1056.96
1072.03
1073.3
1088.91
1090.76
1092.32
1060.27
1016.23
999.249
996.914
992.177
973.631
959.308
965.453
950.173
949.412
948.286
945.455
944.568
941.133
936.533
931.294
950.105
967.864
1010.96
1047.17
1050.87
1051.62
1042.68
1029.88
1042.92
1036.92
1025.17
1047.94
1047.47
988.651
946.81
951.079
979.8
975.031
953.992
953.455
932.901
968.192
859.702
868.75
870.763
865.717
860.448
845.202
836.775
830.35
821.247
793.95
942.628
1006.46
1043.91
1077.96
1097
1079.9
1016.86
873.012
894.811
745.99
1035.41
1057.23
1061.8
1064.78
1068.04
1069.4
1067.68
1061.28
1050.24
894.834
997.183
1037.07
1043.69
1046.32
1048.79
1048.68
1046.68
1039.99
1026.01
1017.96
1020.52
1027.39
1025.1
1014.24
1019.45
1032.84
1028.6
1020.53
1006.9
1010.86
1010.07
1011.29
1013.65
1001.98
979.974
1007.5
996.596
999.227
987.592
992.492
992.923
999.737
1001.47
1001.15
952.814
813.981
764.201
884.844
968.702
988.473
991.72
995.537
996.982
997.09
886.226
692.689
689.765
685.25
766.306
979.389
983.52
989.181
996.042
1000.54
897.379
688.832
686.263
685.373
683.301
934.285
958.814
972.847
985.851
990.198
972.379
813.832
696.31
690.918
686.162
508.125
880.838
946.525
939.87
869.526
898.666
947.282
942.744
926.576
786.921
368.565
533.181
864.272
861.04
821.629
829.308
930.74
980.81
982.211
979.709
385.471
560.666
815.104
825.442
822.443
822.535
849.498
972.183
977.779
979.524
695.798
964.123
985.86
987.523
989.701
919.757
949.947
987.749
792.963
678.164
995.011
997.177
998.953
1002.32
1007.39
1012.89
1021.83
1033.87
560.119
458.1
775.16
978.358
1006.84
1013.69
1019.62
1024.11
1034.85
916.45
415.461
431.125
274.607
829.961
1018.79
1026.93
1032.08
1036.36
1042.64
582.076
342.101
412.981
189.078
697.967
1037.1
1045.29
1050.84
1054.01
1065.41
439.953
338.577
508.599
197.219
750.936
1058.88
1065.36
1069.59
1071.84
1090.34
430.07
353.673
594.036
308.266
933.755
1082.19
1085.98
1086.85
1086.72
1096.61
481.243
373.408
539.897
510.658
1056.04
1102.69
1107.1
1109.56
1108.24
1116.4
540.5
376.619
395.569
1031.51
1106.09
1121.94
1126.31
1129.35
1133.04
1137.07
540.679
366.439
449.623
1129.81
1068.89
1094.58
1140.59
1142.04
1148.03
1133.08
367.512
360.892
868.655
1140.4
1081.32
1105.39
1151.27
1149.26
1140.76
928.88
223.553
400.436
1068.58
1094.46
1095.44
1144.01
1173.93
1163.77
1111.5
758.7
123.549
228.423
926.9
1040.2
1108.65
1191.25
1193.52
1081.71
1038.07
579.908
55.7308
46.9826
323.054
1043.52
1188.66
1199.33
1199.47
1005.12
1015.16
413.468
23.6534
12.9243
28.3212
1090.31
1084.55
1199.4
595.102
986.182
1023.83
319.422
33.8073
1.18227
0.912507
766.838
149.424
157.113
314.849
1035.16
1030.9
224.732
43.3198
0.667897
0.602608
132.305
132.488
131.503
209.957
1027.36
1046.85
182.076
46.3997
0.396534
0.415561
126.258
126.396
132.294
157.554
1023.62
1032.59
141.614
29.6253
0.32841
0.312818
136.314
131.524
222.696
102.985
1027.55
1022.15
97.9447
19.1567
0.286948
0.279844
1.04796
1.03761
184.407
79.9299
1023.91
1041.1
83.1582
18.1176
0.187517
0.322368
0.813682
8.61492
155.092
71.7609
1024.67
1062.36
72.5908
15.2336
0.137581
0.526687
1.12557
11.7548
28.1755
62.7618
1085.6
1035.98
64.1804
14.6315
0.215167
0.576083
0.0959081
0.135152
0.240084
60.3771
1101.55
1081.37
62.0602
12.0997
0.27446
0.731805
0.0788753
0.265895
0.117467
64.9784
1146.04
1140.74
70.5124
11.4812
0.310663
0.75424
0.137346
0.628141
0.081477
93.4813
1210.42
1204.37
95.7828
11.845
0.303879
0.691896
0.296425
0.635564
0.0834832
137.898
1263.39
1267.6
139.791
9.57868
0.372795
0.622933
0.612367
0.653314
0.086359
187.993
1316.24
1303.28
182.359
0.230997
0.458738
0.266546
0.554942
0.521184
0.0937716
212.623
1334.01
1343.38
214.691
0.0878284
0.0805562
0.367068
0.0894902
0.0656448
0.0788959
222.451
1343.7
1373.78
229.642
0.0617633
0.190501
0.527084
0.00427945
-3.8706e-05
-0.0183611
236.167
1393.56
1362.65
225.511
0.181197
0.217833
0.521425
-0.0167655
-0.026186
-0.0510907
243.919
1415.82
1384.68
233.752
0.235904
0.249371
0.68683
-0.0239347
-0.022758
-0.0174353
251.327
1416.68
1434.36
257.717
0.206871
0.346747
0.979805
-0.0367215
-0.039117
-0.0443162
282.451
1458.85
1450.33
278.099
0.221498
0.550321
1.07158
-0.0418212
-0.0444839
-0.047724
316.109
1486.68
1486.08
315.178
0.184676
0.740678
1.063
-0.0433905
-0.0437985
-0.0521976
358.47
1519.65
1516.88
355.327
0.158062
0.974918
1.05005
-0.039752
-0.0326123
-0.0352395
396.857
1542.69
1553.66
400.832
0.113975
0.865209
1.03799
-0.030165
-0.0223612
-0.0177001
437.993
1569.52
1583.79
444.336
0.0870871
0.273958
0.792263
-0.0196313
-0.0116078
-0.00340685
482.821
1598.07
1611.67
490.62
0.0688341
0.564264
1.20979
0.00258047
-0.00135838
-0.00446113
545.938
1635.63
1631.13
541.062
0.0591955
0.690746
1.21111
0.0377145
0.0165255
0.0140193
620.348
1662.3
1661.69
617.838
0.0156851
0.212312
0.127042
0.0640764
0.0313272
0.0339212
711.25
1686.43
1691.37
715.165
0.00299965
0.0102289
-0.00417641
0.0993667
0.0422884
0.0345606
828.161
1717.8
1708.96
820.125
0.0203692
0.039083
0.00597861
0.220317
0.061311
0.0502999
953.162
1740.11
1731.72
941.718
0.027081
0.0684322
0.0120106
0.255754
0.0798154
0.0799474
1076
1755.18
1758.59
1075.81
0.019663
0.0653991
0.211418
0.114816
0.0847979
0.0856353
1196.19
1774.64
1779.66
1198.78
-0.00067077
0.00513094
0.209931
0.109271
0.089801
0.100733
1327.04
1797.68
1796.99
1324.53
0.0124681
0.00294487
0.0902564
0.103764
0.103465
43.2846
1470.28
1816.18
1817.24
1470.55
30.8721
0.00813833
0.0154564
0.0896718
0.0935951
191.929
1619.3
1836.1
1835.28
1619.13
190.105
0.0114192
0.0115629
0.078725
0.0799438
407.828
1758.03
1854.98
1854.55
1743.97
398.82
0.0100148
0.00926558
0.0782447
0.079802
733.919
1838.86
1873.94
1873.54
1847.87
754.805
0.00652561
0.00805401
0.0786638
0.086096
1260.42
1891.74
1892.56
1892.43
1891.25
1215.72
0.0154269
0.0111265
0.0616462
190.606
1666.2
1909.87
1911.11
1911.52
1910.61
1662.92
118.881
0.0117136
0.0225245
1136.87
1927.39
1927.53
1927.04
1926.82
1926.67
1921.6
1017.21
0.00346329
604.162
1861.56
1938.94
1937.4
1936.98
1937.13
1937.9
1939.77
1873.27
589.045
1008.43
1008.24
1007.95
1007.5
1007.04
1006.79
1006.46
1006.02
1005.54
1004.98
1004.29
1003.64
1003.06
1002.46
1001.91
1001.62
1000.86
999.773
998.883
997.974
997.056
995.97
994.487
992.425
990.967
990.499
990.452
990.457
991.683
992.624
994.093
995.111
995.18
995.181
995.323
996.393
996.311
996.655
996.996
996.762
1008.06
1007.98
1007.34
1006.68
1006.6
1005.92
1006.32
1005.57
1004.95
1004.56
1003.98
1003.41
1002.94
1002.71
1002.29
1001.74
1001.06
999.794
998.576
997.515
996.612
995.851
994.263
991.483
988.77
987.597
988.275
989.855
990.845
992.047
993.321
993.983
992.648
993.625
993.691
993.037
992.291
993.787
994.329
993.825
1006.31
1006.47
1006.49
1006.11
1005.62
1004.97
1003.87
1003.38
1003.65
1003.78
1002.94
1002.68
1002.49
1002.57
1002.2
1001.75
1001.07
999.77
998.537
998.139
997.931
998.046
992.697
989.575
986.791
983.989
982.808
988.915
986.492
982.018
981.716
987.506
992.368
990.587
990.614
989.954
989.358
989.982
990.688
991.056
1005.38
1004.16
1004
1003.23
1003.01
1005.12
1003.43
1001.55
1000.22
999.154
999.444
1000.2
1001.17
1001.78
1001.08
1000.9
1000.57
999.091
997.955
996.876
997.805
997.61
995.919
991.302
985.627
979.416
978.926
994.159
977.209
978.766
976.426
985.414
992.758
995.163
996.895
994.91
988.541
990.052
991.355
991.811
1002.98
1003.5
1003.61
1003.1
1001.58
1000.2
997.843
994.149
991.594
992.257
995.12
999.057
999.894
999.885
999.905
999.019
999.001
998.485
997.61
996.389
995.118
994.735
995.385
994.102
992.383
989.744
988.183
989.088
985.667
986.677
993.147
986.578
982.733
991.473
999.211
1000.76
997.135
990.389
991.574
992.34
999.136
999.89
1000.3
997.921
992.651
987.869
982.823
983.572
985.522
987.128
997.326
1000.95
1000.98
1000.92
1001.14
1001.4
1001.29
1001.16
998.078
995.972
994.477
994.665
993.065
991.616
990.579
989.996
989.973
990.25
990.702
991.478
992.703
989.871
979.112
984.841
998.524
999.452
1000.87
1002.21
998.78
999.431
995.64
998.05
998.224
983.724
982.208
981.938
981.439
981.92
996.011
1001.13
1001.01
1001.17
1001.42
1001.65
1001.99
1002.12
1001.69
1000.89
999.478
997.174
994.861
992.383
989.956
987.848
986.621
986.31
986.688
987.006
987.599
988.228
988.107
984.204
965.329
968.922
992.721
998.592
999.676
1001.61
1003.43
1003.91
995.587
998.083
997.428
981.226
979.357
979.409
980.81
1001.95
1000.83
1000.15
999.882
999.96
1000.13
1000.39
1000.71
1000.64
1000.04
999.034
997.137
995.542
993.002
990.129
986.784
978.271
974.92
977.895
984.154
975.099
975.289
981.262
962.589
948.388
954.529
958.216
987.895
1001.15
1002.1
1003.06
1004.06
1002.8
964.397
962.317
967.376
994.604
995.8
978.611
979.195
999.003
998.473
997.743
997.432
997.6
998.168
998.843
999.288
999.311
998.911
995.435
992.897
992.721
993.064
990.699
986.646
954.714
945.631
944.728
945.127
945.235
946.229
947.898
949.45
952.177
955.042
956.443
994.698
1004.57
1005.46
1006.07
1004.44
1001.13
937.513
937.23
937.801
985.412
1001.09
1003.34
983.896
979.053
995.133
996.745
996.999
996.762
993.091
995.983
999.967
1000.31
996.323
993.297
992.426
991.431
993.943
992.166
991.06
991.123
980.614
958.139
944.22
946.029
947.652
949.838
952.207
955.125
956.843
988.58
1008.84
1009.43
1009.99
1009.72
1003.89
1002.76
936.299
935.151
934.249
962.466
1000.87
1006.43
1006.3
979.1
971.893
998.767
999.12
999.015
991.594
991.363
996.689
1001.44
996.062
993.907
994.114
997.078
995.295
993.551
992.044
991.24
992.19
993.055
984.401
972.666
969.858
974.762
981.468
983.323
993.874
1012.41
1012.8
1012.09
1010.73
1006.43
1005.81
1004.14
935.415
934.351
987.655
1007.9
1006.96
1006.32
1005.49
995.873
968.482
978.524
1000.59
1001.11
994.769
991.144
992.016
992.463
995.272
1000.75
1000.31
998.667
996.904
994.854
992.451
982.713
968.556
966.822
989.946
1000.76
1003.67
1006.2
1007.65
1008.74
1011.13
1011.32
1008.34
1010.14
1008.92
995.971
986.979
1004.2
1003.14
1012.03
1011.56
1009.5
1007.62
1006.71
1005.99
998.519
972.767
935.675
949.08
982.93
989.201
994.038
994.613
993.355
994.152
1004.46
1002.76
1001.3
999.271
997.045
991.73
958.72
957.842
959.034
961.011
963.872
995.12
1008.04
989.3
980.94
983.503
983.612
993.58
1013.03
1009.27
980.779
975.095
1001.51
1013.21
1012.59
1011.46
1001.84
995.507
993.97
1004.99
998.851
954.873
932.262
931.517
930.375
945.214
994.746
998.91
996.449
996.041
1005.41
1004.37
1002.3
999.993
998.575
998.335
987.549
959.59
959.746
960.538
962.484
965.539
968.377
985.107
1007.45
1012.07
1014.5
1014.07
1013.06
1011.42
979.084
972.084
973.971
1013.83
1013.09
997.631
981.447
980.85
982.261
1011.76
996.873
941.673
931.643
929.03
927.885
927.217
927.87
998.382
999.227
996.198
1005.53
1002.81
1000.05
998.217
997.98
999.043
1000.03
1000.43
998.828
971.976
957.64
993.702
1003.36
1007.22
1010.23
1011.68
1012.38
1012.43
1011.65
1010.98
1009.12
970.666
971.902
1015.62
1003.53
982.225
981.618
981.734
1009.31
1011.38
1010.05
998.213
974.926
962.065
955.865
927.953
924.423
951.18
990.116
990.094
996.05
998.3
994.928
992.771
993.612
995.35
996.414
977.121
969.228
989.039
992.221
994.063
996.936
1000.89
1004.33
1006.58
1006.98
1007.05
1006.68
1006.21
1006.2
995.874
976.486
1017.38
998.571
983.119
981.163
999.676
1012.38
1011.09
1006.99
1006.47
1005.04
1002.35
971.009
967.894
956.07
982.935
997.954
994.914
990.964
992.748
972.118
949.329
980.445
988.973
990.656
959.73
945.601
942.177
940.191
957.31
966.421
991.102
996.772
996.44
1000.97
1001.79
1001.73
1001.3
1001.28
1001.91
995.003
1019.28
1013.72
981.464
980.294
991.148
1011.09
1004.81
998.83
1005.28
1003.03
964.059
875.538
884.343
990.079
998.872
998.883
998.012
996.007
992.897
985.145
926.072
876.375
959.702
989.378
986.671
948.269
943.85
939.941
936.51
945.728
983.83
981.789
982.391
987.864
997.25
996.062
975.044
971.565
998.07
942.927
1019.9
1018.79
1009.03
988.17
1003.34
1009.48
999.567
999.193
1001.62
1005.27
944.885
870.124
869.277
887.061
994.551
1000.78
1000.11
998.631
990.108
909.072
871.085
868.461
866.221
985.324
998.181
999.439
967.045
940.947
938.961
967.559
922.874
927.746
958.805
949.056
972.43
937.375
877.185
868.925
928.437
871.602
1019.53
1018.01
1017.21
1014.85
1013.49
1011.71
1010.54
1005.16
1003.03
1005.28
1002.97
902.751
866.707
864.55
863.936
896.194
904.065
877.797
874.768
874.325
874.513
871.926
932.387
997.529
999.93
1001.56
1002.18
993.793
992.447
983.664
855.903
848.277
941.438
944.806
918.367
862.708
864.327
865.48
864.407
866.065
1023.36
1020.03
1017.77
1018.93
1016.26
1014.36
1013.56
1013.95
1010.13
1001.48
1017.31
1021.94
1001.76
890.512
863.503
861.376
859.878
882.44
918.176
947.884
991.856
1007.57
1004.86
1002.95
1002.66
1002.35
991.93
970.623
989.516
982.477
844.548
837.73
916.953
1012.63
945.531
866.302
872.852
866.171
865.586
872.64
1029.38
1025.95
1021.71
1019.33
1016.98
1018.39
1016.87
1015.57
1016.33
1001.45
1006.62
1018.46
1018.73
1016.67
998.738
985.203
999.204
1011.21
1011.01
1010.71
1010.27
1009.48
1008.43
1007.08
1005.62
973.86
879.792
827.998
869.484
874.676
830.935
833.82
935.826
1015.62
1007.44
889.469
1011.47
868.557
874.118
989.43
1033.71
1032.32
1027.81
1024.09
1021.82
1019.75
1019.2
1020.46
1019.25
1017.89
986.614
987.157
1013.99
1015.48
1014.39
1012.93
1012.14
1012.34
1012.66
1012.86
1012.95
1013.16
1013.51
1012.96
973.039
833.338
826.534
826.595
826.025
825.529
828.735
913.81
993.329
1017.42
1017.33
1008.58
1018.01
872.127
977.975
1002.28
1037.13
1035.95
1034.26
1028.11
1025.59
1023.63
1022.65
1024.13
1022
1020.5
976.413
964.917
1005.01
1015.75
1017.05
1017.82
1017.22
1017.02
1015.85
1015.18
1015.58
1016.57
1017.87
1016.58
879.595
840.647
831.505
825.101
826.178
827.522
909.139
1002.96
1002.96
1019.12
1017.52
1016.81
1015.49
949.1
998.849
999.683
1040.15
1038.9
1037.24
1034.13
1028.46
1029.6
1029.03
1027.37
1025
1023.42
1000.28
897.678
931.871
1002.74
1015.32
1014.98
1015.12
1011.23
1010.49
1009.72
1013.22
1016.34
1017.7
996.172
977.18
1006.58
991.116
958.625
944.812
968.223
1002.96
1001.91
1018.03
1018.5
1016.71
1016.35
1014.85
1015.01
993.5
948.306
1044.54
1043.2
1041.46
1039.25
1036.63
1034.26
1032.12
1029.75
909.854
860.9
860.677
860.241
858.828
855.835
966.971
1015.58
1015.85
994.522
912.639
914.116
980.04
1019.58
1022.04
1016.45
1021.77
1021.14
1021.97
1021.56
1021.22
1013.73
1000.74
1018.39
1018.2
1016.48
1014.88
1012.65
974.351
950.015
929.561
920.715
1044.11
1048.92
1046.57
1043.72
1040.38
1036.77
937.99
856.463
856.063
856.105
856.292
947.122
1016.75
920.224
898.363
897.364
910.937
937.59
873.624
913.669
1004.67
1021.6
1023.98
1022.73
1020.7
1019.73
1019.33
1018.37
997.768
983.468
993.738
1015.46
1014.89
1013.81
1012.1
970.119
908.906
911.837
914.518
936.844
1059.09
1055.58
1052.11
1048.61
1044.54
931.502
854.062
851.852
852.011
994.672
1029.82
1026.65
1022.95
1019.77
1017.13
1011.27
871.581
787.458
787.692
786.767
933.329
1019.1
1018.54
1008.7
1011.53
1012.7
1012.5
1011.24
983.635
977.132
1007.67
1006.66
1005.2
1003.41
989.027
900.008
897.284
901.964
971.422
983.415
1068.71
1064.53
1059.73
1052.92
907.707
859.563
855.07
878.441
1020.66
1031.03
1027.7
1024.74
1021.95
1018.94
972.789
790.884
780.686
780.105
779.375
778.229
777.176
913.123
971.642
975.356
1002.28
1004.71
1006.99
1005.23
994.783
983.849
998.467
996.155
993.549
990.559
942.909
876.362
875.651
878.974
951.499
962.635
961.558
964.044
907.118
870.667
867.445
861.38
901.53
1035.51
1036.13
1030.62
1025.46
1020.99
1018.17
1011.16
943.026
799.438
779.898
778.866
777.056
774.899
772.375
770.217
778.124
923.937
995.979
979.339
979.996
998.264
994.334
989.81
985.99
984.115
981.992
979.325
947.811
866.778
860.793
867.018
873.988
931.039
1014.61
1015.33
1012.08
1007.96
1013.55
1007.73
1016.43
1013.83
1007.51
1007.79
1010.11
1012.05
1012.54
1013.66
1011.4
906.513
777.681
862.092
848.431
771.057
767.98
765.041
760.555
929.986
996.705
996.454
962.077
900.481
892.019
887.98
957.474
981.183
977.975
977.701
978.085
935.856
917.875
890.489
878.878
906.857
1010.44
975.849
903.778
917.525
1008.13
1023.58
954.329
737.192
724.026
708.797
714.24
897.629
987.842
998.86
1005.16
1011.64
961.859
864.434
946.886
973.486
932.29
760.069
781.954
965.043
993.043
992.567
985.656
980.639
892.008
881.094
880.137
880.021
903.085
959.07
918.992
857.997
853.409
855.658
905.06
1004.49
811.366
801.711
796.482
985.06
1043.77
1033.77
1006.44
806.396
695.944
681.489
669.172
659.246
657.955
661.273
870.492
996.621
1004.88
940.831
955.699
982.12
972.35
942.278
941.784
980.167
973.034
928.726
925.845
967.635
965.7
968.447
974.29
980.454
901.078
833.357
835.084
838.84
844.298
850.195
938.316
1025.01
809.247
804.008
960.18
1027.48
1009.86
997.258
987.702
981.726
977.238
936.423
662.149
628.322
628.678
629.826
639.018
900.515
976.502
984.389
947.516
942.939
939.752
976.756
975.828
970.424
968.574
970.499
946.738
824.306
813.868
814.022
897.138
962.615
975.405
986.37
869.289
849.897
855.132
859.406
968.827
1034.9
1053.55
1046.88
1017.61
988.222
964.495
947.167
937.274
932.947
931.23
929.195
868.422
614.334
665.645
838.746
930.796
940.1
945.236
950.358
953.799
918.185
914.8
932.479
956.054
955.133
955.191
959.053
962.5
957.403
824.6
817.233
827.983
841.651
919.239
1007.22
990.176
861.641
866.173
869.301
1016.7
1046.4
1033.47
1007.5
973.283
933.829
870.161
801.316
740.447
716.833
711.761
713.556
721.966
730.371
745.214
779.023
852.17
887.956
895.973
905.027
914.469
917.005
917.19
931.989
937.423
941.755
946.764
953.688
961.722
971.462
976.622
844.607
845.142
859.656
873.318
979.944
1027.52
933.304
883.039
934.576
1043.8
1061.17
1003.46
967.083
874.152
612.063
389.622
278.555
230.071
220.971
220.801
223.012
231.511
245.285
263.52
288.5
325.94
378.384
464.334
615.091
783.585
891.896
900.566
907.781
917.482
928.016
938.147
949.472
961.465
975.543
992.374
988.59
999.701
883.591
889.795
937.208
1046.41
981.16
899.993
953.944
1058.85
1078.35
983.457
903.921
464.617
221.542
216.735
214.917
213.568
211.813
209.986
208.438
207.161
206.161
205.267
204.656
205.401
205.408
204.837
211.129
244.146
317.232
415.448
532.911
676.643
858.413
919.593
930.985
947.437
967.039
988.213
1010.04
1030.24
1038.79
900.793
972.322
1055.12
1032.97
917.577
939.136
1047.46
1094.41
966.111
838.725
351.476
218.609
214.964
212.783
210.989
209.26
207.584
206.249
203.999
202.62
201.81
201.528
204.665
202.352
201.76
202.17
202.376
202.659
203.312
204.714
219.607
270.552
366.197
513.01
750.378
947.731
973.414
999.841
1023.03
1044.25
1056.01
847.566
1001.13
1067.55
919.819
916.666
1013.26
1106.91
967.872
920.428
705.735
276.829
213.952
211.213
209.409
207.81
209.652
208.235
206.49
203.869
199.305
200.034
203.344
203.27
200.598
200.903
200.937
201.045
201.355
201.821
202.479
203.737
205.746
210.401
242.047
449.826
875.601
989.228
1014.54
1034.78
1054.8
790.953
868.73
1088.21
918.352
920.375
1063.16
1114.89
884.733
926.234
904.562
730.163
303.156
211.711
208.648
207.152
209.393
208.482
203.089
202.135
201.354
203.773
203.104
202.244
200.716
200.607
200.537
200.398
200.426
200.737
201.304
202.426
204.032
206.616
211.442
428.978
883.674
985.061
1006.58
1025.06
981.442
758.57
784.525
1101.09
942.046
916.854
1116.46
1112.92
679.043
868.536
917.526
913.462
791.388
380.568
208.831
205.781
204.852
204.084
203.192
202.475
202.164
229.739
349.462
373.84
344.453
259.922
201.941
201.78
201.564
201.256
201.141
201.739
203.113
204.517
274.037
672.336
951.867
991.107
1006.4
1023.7
745.458
743.414
810.554
1103.15
961.981
907.859
1103.13
1081.07
685.657
682.505
846.415
945.412
950.104
888.763
477.87
205.296
203.234
203.011
202.909
202.779
202.814
264.038
811.225
965.044
962.564
959.885
541.62
204.157
203.642
202.878
202.38
202.625
203.416
204.015
400.335
905.36
991.577
997.229
994.975
759.586
715.519
731.454
979.999
1117.51
976.204
901.645
1045.38
1027.2
688.162
687.814
686.899
845.615
977.895
978.573
957.944
536.617
203.123
202.086
202.682
202.819
202.992
265.954
800.687
971.725
971.307
970.717
964.535
902.148
627.1
256.024
202.87
203.154
203.878
204.416
450.124
852.061
968.078
826.319
699.694
692.62
705.921
803.333
1087.12
1106.56
1037.85
946.638
1026.52
1039.3
839.287
691.274
693.448
694.474
877.228
1004.12
1002.03
986.95
513.2
203.417
203.008
203.009
205.022
270.054
527.866
899.689
960.725
744.063
630.659
609.405
598.14
641.436
315.709
204.699
202.778
218.282
596.585
903.757
731.518
675.028
681.911
688.872
764.198
1039.21
1074.83
1088.51
1101.77
1106.55
1105.68
1105.61
978.069
839.169
697.468
701.231
703.171
941.831
1022.15
1017.25
1009.42
657.553
419.459
365.753
487.189
765.469
793.031
757.093
560.245
445.586
446.007
447.677
599.705
903.191
867.747
709.978
590.506
565.226
912.575
970.518
755.963
686.152
704.296
850.675
1008.87
1051.89
1055.97
1018.64
932.996
1073.09
1081.53
1085.26
972.266
1041.96
858.441
710.653
714.614
758.612
1030.77
1035.21
1027.94
1022.71
1021.12
1021.3
896.508
715.51
505.762
422.498
422.457
519.194
797.893
888.021
864.902
897.816
902.61
913.404
932.621
965.118
977.794
984.931
980.024
935.921
995.246
1036.48
1045.13
1045.65
948.296
764.099
780.272
1057.24
1068.43
1073.7
846.523
1046.21
1060.4
976.119
773.497
771.286
863.739
1048.08
1044.18
1041.41
1035.6
892.345
425.24
422.581
418.859
415.622
773.239
916.76
906.822
903.422
902.731
903.177
875.463
543.008
460.538
791.383
990.824
995.328
996.301
998.475
1035.77
1038.82
1043.91
981.294
775.816
771.985
976.257
1057.59
1057.25
1067.23
783.713
1051.99
1062.99
1070.08
1071.34
890.043
844.835
841.78
1058.97
1053.94
1047.59
963.47
507.41
426.274
422.025
418.326
585.139
946.925
938.502
900.515
745.734
562.909
434.011
433.057
435.303
435.401
588.675
688.767
597.193
542.532
727.897
909.178
931.687
868.227
901.618
949.865
1028.28
922.489
795.116
916.657
851.724
1064.14
1071.76
1077.19
1081.19
1084.44
903.411
810.753
826.042
1065.35
1063.53
1060.91
984.061
494.048
425.902
425.103
423.548
422.327
423.896
558.537
762.865
766.072
639.855
439.399
440.574
439.879
440.236
441.608
444.614
447.757
451.103
457.765
566.469
919.292
1038.78
1038.97
838.851
692.194
691.855
693.24
974.497
1073.21
1080.69
1085.6
1089.28
1092.05
1093.17
858.456
520.066
967.891
1071.96
1075.1
1078.43
1026.24
532.97
432.085
432.054
431.556
430.814
429.967
671.035
780.625
781.121
775.406
721.271
460.219
448.473
451.179
454.294
457.014
459.49
461.939
460.503
766.719
992.837
1037.55
943.82
695.162
696.53
699.234
1059.85
1090.44
1086.9
1096.78
1099.41
1100.26
1090.57
860.856
454.557
468.653
934.972
1085.36
1093.21
1100
957.273
452.367
437.951
438.981
438.07
436.943
436.198
457.928
563.085
628.912
723.858
748.28
749.483
716.467
619.045
565.55
564.41
611.887
691.496
827.758
1036.5
1056.08
1056.31
746.996
705.632
707.166
1092.19
1107.35
1091.52
1108.62
1113.69
951.088
745.251
626.682
440.139
437.918
432.435
682.228
1094.84
1111.15
1118.4
843.027
518.88
512.379
594.561
436.76
435.932
435.873
436.703
438.596
442.312
456.279
602.09
903.6
1065.36
1040.48
1034.84
1049.37
1068.48
1073.57
1070.92
1067.19
895.831
714.904
713.632
899.565
948.346
1123.79
1110.15
1060.83
907.381
627.858
285.064
549.109
702.099
701.286
433.425
435.085
503.931
1067.27
1128.31
1131.52
1097.63
961.096
938.336
933.96
782.441
727.472
689.736
663.841
578.866
573.564
622.829
962.513
1071.99
1075.68
1078.14
1079.37
1078.6
1076.44
1073.69
861.213
724.314
724.42
917.68
913.591
712.149
1018.33
990.578
527.509
268.236
219.722
216.596
216.251
564.641
710.82
480.039
434.176
434.974
728.975
1134.79
1137.5
1134.99
992.079
957.096
1107.46
1113.55
1116.66
1123.58
1114.32
1067.65
988.148
957.516
821.113
929.863
950.417
912.438
843.643
758.816
747.777
733.133
724.156
725.23
942.713
970.135
859.334
1083.74
614.02
215.022
214.812
215.446
216.029
216.368
216.156
318.167
712.081
752.239
492.13
444.698
886.607
1139.77
1140.43
1140.14
1103.34
982.811
983.363
1013.6
1121.61
1128.42
1125.88
1122.58
908.397
743.412
731.984
726.709
721.835
718.151
717.428
717.647
717.78
828.119
1031.41
1091.67
1118.65
1004.74
858.348
1086.29
962.296
517.325
333.254
213.868
212.879
214.237
350.353
726.435
687.095
682.247
720.691
466.145
1096.45
1143.53
1142.51
1141.58
1140.5
1060.1
985.891
986.966
1064.8
1127.33
1125.3
1117.21
829.704
730.202
731.076
805.59
928.735
820.938
775.817
804.817
976.818
1110.27
1118.44
1118.18
1116.9
1098.47
1049.4
1076.99
1072.93
1075.69
982.851
797.057
965.078
1025.57
1095.29
927.192
714.882
973.837
1043.38
991.757
1152.62
1148.27
1144.26
1141.33
1139.51
1138.32
1103.49
1062.71
1128.31
1127.91
1127.47
1127.8
1092.53
1005.74
1034.58
1103.37
1107.09
1111.53
1115.25
1120.7
1122.74
1120.04
1116.99
1114.64
1107.64
1090.8
1085.38
403.158
549.962
778.212
887.342
955.914
996.766
1083.83
1086.76
962.077
1040.49
1093.65
1126.43
1138.63
1135.18
1102.47
1083.92
1085.96
1094.61
1085.28
1065.08
1050.28
1055.84
1057.09
1068.92
1073.88
1062.59
1019.7
990.091
976.846
968.086
949.536
888.135
795.709
764.914
744.66
669.974
586.378
491.435
437.727
418.484
0.836922
0.893705
1.08511
70.5645
183.228
453.109
1042.29
1079.31
1086.09
1086.52
1088.65
1052.01
608.641
235.454
113.805
78.3391
91.0126
120.854
135.561
136.223
98.7695
78.5412
75.3309
93.5627
133.75
195.893
226.801
227.814
226.795
226.093
197.622
146.565
110.275
91.3892
69.7342
49.2381
36.8298
30.5717
22.2627
7.63165
0.885971
1.01471
12.3961
215.162
662.021
1064.12
1060.74
1047.44
935.464
929.164
778.556
398.195
37.875
2.1354
0.891691
0.518349
0.469227
0.450805
0.44033
0.437575
0.441126
0.440904
0.436973
0.42858
0.410122
0.398003
0.414482
0.429832
0.389646
0.32979
0.310333
0.307326
0.310579
0.322596
0.397622
0.326496
0.418789
0.5268
0.58281
0.706732
0.720039
0.681428
91.1492
574.644
677.823
650.835
541.918
348.07
177.811
164.956
75.9299
3.99711
1.19534
0.649437
0.52585
0.479061
0.488829
0.532342
0.516731
0.393786
0.395975
0.397759
0.394647
0.392456
0.389914
0.388018
0.410419
0.44054
0.404027
0.317989
0.302434
0.299638
0.297246
0.298882
0.314521
0.318495
0.304073
0.314633
0.494953
0.618022
0.621296
1.20859
2.85586
52.0008
296.077
68.8018
6.98946
2.49612
2.85399
1.70455
1.62674
1.31493
1.11619
0.987538
1.58401
3.97358
3.96045
3.31671
5.9293
5.0863
3.13678
1.87679
0.415402
0.35416
0.359066
0.357282
0.445172
0.429197
0.408685
0.308961
0.294281
0.291149
0.289841
0.289286
0.306327
0.318596
0.307271