/*--------------------------------*- C++ -*----------------------------------*\
  =========                 |
  \\      /  F ield         | OpenFOAM: The Open Source CFD Toolbox
   \\    /   O peration     | Website:  https://openfoam.org
    \\  /    A nd           | Version:  8
     \\/     M anipulation  |
\*---------------------------------------------------------------------------*/
FoamFile
{
    version     2.0;
    format      ascii;
    class       volScalarField;
    location    "9.5";
    object      p_rgh;
}
// * * * * * * * * * * * * * * * * * * * * * * * * * * * * * * * * * * * * * //

dimensions      [1 -1 -2 0 0 0 0];

internalField   nonuniform List<scalar> 
9150
(
1956.19
1955.18
1954.55
1954.09
1953.86
1953.88
1954.12
1954.6
1955.23
1956.24
1955.76
1955.24
1954.82
1954.5
1954.34
1954.34
1954.52
1954.85
1955.28
1955.8
1955.49
1955.21
1954.96
1954.75
1954.63
1954.64
1954.76
1954.98
1955.24
1955.52
1955.37
1955.2
1955.04
1954.88
1954.81
1954.81
1954.9
1955.05
1955.23
1955.4
1955.37
1955.2
1955.06
1954.94
1954.88
1954.88
1954.95
1955.09
1955.22
1955.4
1944.02
1943.3
1943.68
1944.18
1944.48
1944.59
1944.49
1944.2
1943.89
1944.63
1948.31
1947.6
1947.48
1947.49
1947.64
1947.69
1947.66
1947.74
1947.92
1948.64
1951.53
1950.78
1950.48
1950.14
1950.11
1950.15
1950.25
1950.65
1950.95
1951.7
1954.32
1953.16
1952.69
1952.1
1951.92
1951.95
1952.13
1952.77
1953.24
1954.38
1956.84
1954.81
1954.04
1953.38
1953.11
1953.13
1953.42
1954.1
1954.87
1956.9
1931.12
1932.13
1933.6
1934.91
1935.94
1936.99
1938.3
1940.12
1942.92
1945.11
1934
1934.68
1935.21
1936.17
1936.92
1937.94
1939.18
1940.21
1942.02
1942.77
1935.78
1936.34
1935.98
1937.03
1937.35
1938.15
1939.11
1939.29
1940.69
1940.75
1933.71
1936.9
1936.16
1938.16
1938.42
1938.98
1939.17
1938.27
1939.18
1936.63
1928.55
1938.18
1938.82
1940.5
1941.08
1941.28
1940.96
1940.01
1939.49
1930.39
1786.21
1786.23
1786.19
1786.14
1786.13
1786.14
1786.2
1786.27
1786.33
1786.43
1785.94
1786.08
1786.04
1786
1785.93
1785.9
1786.01
1786.12
1786.18
1786.31
1785.66
1785.6
1785.52
1785.83
1785.76
1785.76
1785.95
1785.92
1786.14
1786.32
1785.48
1785.4
1785.3
1785.2
1785.18
1785.29
1785.51
1785.89
1786.44
1786.6
1785.89
1785.81
1785.19
1785.2
1785.21
1785.38
1786.05
1786.24
1786.4
1786.56
1785.97
1785.98
1785.84
1785.64
1785.7
1785.95
1786.11
1786.25
1786.37
1786.5
1786.19
1786.21
1786.2
1786.18
1786.18
1786.21
1786.15
1786.21
1786.29
1786.48
1786.55
1786.51
1786.45
1786.38
1786.31
1786.28
1786.19
1786.18
1786.24
1786.35
1786.9
1786.79
1786.65
1786.52
1786.41
1786.33
1786.22
1786.18
1786.19
1784.85
1787.1
1786.94
1786.75
1786.56
1786.19
1786.07
1786.13
1784.96
1785.07
1785.87
1787.13
1786.67
1786.51
1786.49
1786.43
1783.6
1783.13
1782.89
1784.06
1785.36
1787.18
1786.73
1782.4
1780.39
1780.4
1781.44
1785.52
1785.92
1785.86
1785.26
1780.65
1780.17
1780.18
1780.17
1781.65
1787.18
1786.88
1786.58
1786.27
1785.93
1780.39
1780.41
1780.32
1782.89
1787.42
1787.89
1787.58
1787.3
1787.01
1786.79
1780.52
1783.91
1787.58
1781.45
1782.3
1788.39
1788.24
1788.06
1787.87
1787.72
1780.8
1788.57
1788.26
1779.44
1778.86
1783.52
1788.94
1788.91
1788.81
1788.62
1781.66
1787.38
1789.1
1781.01
1778.39
1778.11
1781.09
1789.8
1789.67
1789.64
1781.97
1784.56
1789.33
1788.76
1779.48
1778.32
1778.14
1778.06
1781.31
1787.74
1786.44
1784.05
1785.31
1790.33
1790.06
1783.99
1778.13
1778.14
1778.03
1783.73
1791.65
1788.22
1785.96
1787.75
1791
1791.03
1789.42
1787.62
1788.29
1789.6
1791.86
1791.68
1791.39
1790.69
1790.73
1791.26
1791.65
1791.49
1791.3
1791.1
1792.06
1792.13
1792.24
1792.3
1792.22
1792.07
1792.01
1791.74
1791.42
1791.17
1792.15
1792.26
1791.72
1791.95
1792.95
1792.81
1792.56
1792.09
1780.97
1765.81
1788.73
1788.09
1788.36
1789.31
1793.68
1793.42
1782.59
1761.84
1761.25
1760.69
1787.22
1787.63
1790.03
1793.11
1793.23
1792.79
1778.82
1768.55
1767
1760.47
1786.15
1791.27
1791.73
1791.96
1792.14
1792.34
1792.52
1792.81
1793.21
1781.42
1786.64
1788.13
1789.56
1789.53
1789.77
1790.97
1791.47
1791.94
1792.32
1792.5
1786.25
1786.94
1785.43
1784.07
1784.72
1787.5
1790.14
1790.72
1791.18
1791.5
1784.29
1784.99
1783.01
1782.07
1782.85
1783.6
1785.15
1789.38
1789.97
1790.43
1782.43
1783.01
1783.71
1781.6
1780.79
1781.84
1782.91
1786.89
1789.32
1790.21
1779.36
1777.44
1776.18
1780.53
1782.26
1782.83
1782.94
1787.01
1789
1790.32
1778.79
1766.97
1732.18
1754.45
1779.78
1783.04
1785.15
1786.99
1788.56
1790.26
1782.16
1782.26
1734.31
1708.24
1747.36
1783.63
1785.36
1787.04
1788.78
1790.38
1786.12
1777.65
1709.37
1708.01
1726.67
1784.09
1786.51
1787.68
1789.16
1790.67
1783.37
1713.6
1708.13
1707.8
1748.59
1787.3
1787.71
1787.73
1789.29
1790.77
1717.02
1713.43
1760.63
1782.45
1781.38
1765.36
1749.37
1772.44
1789.31
1790.29
1714.65
1744.48
1794.1
1789.61
1724.3
1720.77
1720.54
1754.32
1790.66
1788.4
1731.83
1794.69
1798.07
1752.08
1721.94
1722.47
1727.93
1785.27
1792.7
1787.1
1797.59
1798.95
1798.63
1752.74
1725.2
1744.23
1796.66
1795.53
1794.11
1788.56
1794.15
1734.6
1732.96
1732.44
1777.1
1800.05
1798.44
1796.64
1795.07
1792.53
1729.59
1745.91
1794.92
1800.19
1799.99
1799.14
1798.01
1796.58
1795.37
1793.87
1722.92
1793.85
1795.82
1784.01
1784.27
1785.82
1778.62
1793.3
1786.69
1794.78
1789
1796.41
1761.26
1699.09
1696.9
1699.34
1695.42
1730.38
1750.29
1791.14
1803.14
1728.06
1696.25
1695.93
1695.09
1694.64
1695.09
1695.76
1740.88
1775.95
1744.34
1697.38
1697.32
1696.94
1696.39
1720.94
1696.88
1721.89
1776.69
1771.42
1753.07
1704.59
1698.46
1712.88
1786.39
1789
1776
1795.39
1791.72
1772.19
1755.6
1800.47
1806.74
1806.62
1805.22
1783.17
1804.75
1805.53
1788.54
1784.6
1806.76
1807.02
1807.03
1796.47
1744.62
1775.93
1809.88
1808.47
1807.32
1806.17
1805.29
1804.61
1799.78
1770.48
1745.51
1809.87
1809.69
1809.16
1808.2
1807.36
1804.64
1798.1
1783.2
1734.11
1675.82
1793.35
1807.35
1808.15
1807.51
1807.16
1802.2
1801.67
1771.56
1666.6
1634.33
1633.11
1689.38
1807.48
1807.47
1807.39
1805.23
1803.64
1715.02
1631.64
1631.09
1629.73
1628.56
1662.75
1797.51
1807.62
1804.58
1727.4
1686.21
1681.24
1677.63
1626.86
1626.64
1626
1678.06
1808.51
1713.52
1691.2
1690.15
1748.78
1815.08
1691.65
1625.75
1625.58
1688.17
1808.7
1689.85
1690.15
1740.98
1814.64
1814.24
1806.19
1747.66
1719.59
1762.61
1808.24
1719.37
1799.65
1813.02
1814.76
1813.98
1812.53
1810.76
1809.26
1808.36
1807.82
1808.98
1814.33
1813.97
1813.37
1812.37
1810.76
1808.67
1806.61
1788.53
1783.67
1813.25
1812.79
1812.11
1811.25
1810.14
1808.52
1806.37
1797.5
1672.25
1585.07
1811.89
1811.16
1810.34
1809.57
1808.83
1807.86
1806.56
1800.75
1632.59
1536.51
1797.65
1791.21
1796.83
1807.81
1808.48
1807.9
1802.31
1796.4
1747.3
1593.85
1704.51
1704.16
1703.17
1702.55
1739.1
1808.41
1804.26
1802.64
1803.63
1778.32
1715.98
1795.5
1794.33
1792.16
1762.55
1780.52
1801.53
1801.88
1802.86
1803.72
1798.46
1797.06
1794.68
1791.08
1622.03
1515.23
1512.87
1515.28
1613.74
1766.46
1794
1791.72
1790.21
1781.26
1728.25
1505.54
1507.37
1508.96
1510.15
1514.65
1776.74
1552.78
1382.48
1488.63
1681.84
1694.58
1699
1702.51
1584.43
1516.43
1608.9
1034.91
1019.63
1017.05
1219.59
1660.36
1700.58
1704.73
1707.78
1706.12
1360.84
1016.52
1012.69
1010.76
1011.17
1054.64
1618.54
1694.27
1557.48
1672.88
1319.07
1012.88
1009.83
1007.86
1007.8
1008.45
1304.54
1569.24
1455.87
1456.63
1144.08
1008.47
1008.03
1007.79
1007.93
1008.13
1009.99
1519.42
1637.87
1532.58
1012.01
1011.88
1011.72
1022.64
1007.27
1006.39
1005.15
1003.73
1482.38
1798.04
1017.27
1017.5
1016.23
1020.26
1013.74
1006.98
1005.38
1003.61
1002.19
1511.37
1164.85
1311.2
1434.55
1469.22
1532.45
1500.86
1186.72
1016.1
1312.31
1739.54
1872.13
1873.77
1873.77
1871.74
1867.62
1860.83
1852.78
1844.38
1838.53
1833.23
1867.12
1867.02
1864.77
1859.44
1853.41
1846.18
1839.01
1831.55
1824.77
1818.49
1849.42
1850.37
1847.62
1822.93
1796.07
1816.17
1814.41
1790.11
1786.22
1797.42
1827.51
1829.38
1829.12
1800.02
1765.56
1760.68
1774.63
1625.62
1400.28
1359.78
1795.76
1814.77
1816.93
1813.03
1766.12
1741.01
1750.07
1561.96
1238.28
1205
1597.7
1808.36
1811.77
1814.2
1814.6
1742.3
1720.65
1790.21
1725.29
1400.11
1508
1785.84
1811.74
1815.89
1819.12
1760.65
1700.1
1810.19
1820.86
1823.4
1690.94
1783.98
1813.83
1817.59
1819.86
1796.82
1699.19
1713.3
1822.4
1824.51
1814.23
1815.14
1815.91
1819.12
1820.88
1816.85
1705.49
1691.73
1781.75
1822.36
1815.77
1817.2
1818.25
1819.56
1821.33
1822.34
1799.86
1689.58
1707.19
1819.03
1817.51
1818.57
1819.41
1819.16
1821.84
1822.12
1810.61
1687.04
1688.45
1781.55
1819.69
1820.36
1820.53
1818.96
1819.87
1820.72
1812.65
1766.67
1688.43
1706.43
1821.23
1822.14
1822.96
1823.02
1734.57
1659.39
1813.25
1804.45
1689.82
1692.82
1822.9
1824.4
1826.25
1828.07
1630.32
1491.41
1716.74
1807.72
1771.78
1700.37
1825.34
1826.94
1829.18
1831.21
1606.88
1486.89
1506.02
1795.14
1842.8
1779.45
1829.9
1828.21
1821.57
1836.37
1618.97
1486.51
1487.09
1744.47
1849.23
1853.67
1836.45
1713.47
1809
1845.26
1594.07
1490.81
1489.9
1763.91
1854.47
1856.78
1621.1
1608.78
1803.89
1854.97
1538.79
1496.93
1593.18
1848.16
1858.96
1861.26
1244.49
1616.64
1829.34
1785.44
1507.24
1501.1
1785.83
1860.5
1861.65
1862.86
1241.62
1714.26
1839.85
1725.05
1518.6
1585.12
1854.26
1865.05
1863.92
1769.12
1329.92
1846.95
1848.16
1707.47
1532.38
1728.98
1871.4
1870.03
1867.36
1687.54
1772.39
1867.6
1855.39
1632.23
1543.6
1815.49
1878.35
1876.03
1873.16
1780.74
1873.28
1873.84
1789.19
1636.32
1692.09
1879.31
1883.45
1878.74
1853.2
1745.72
1887.1
1886.23
1790.39
1645.74
1837.94
1895.95
1887.84
1877.67
1285.97
1010.32
1895.7
1861.06
1767.81
1840.2
1916.39
1909.52
1900.62
1861.34
595.529
282.083
1890.11
1783.89
1816.43
1935.34
1929.42
1923.01
1914.11
1604.99
150.625
0.153122
1901.79
1896.48
1940.74
1936.54
1933.88
1930.78
1926.9
1685.57
447.237
0.060748
1925.46
1925.64
1931.93
1933.85
1934.82
1935.25
1935.53
1936.79
1533.07
178.526
1786.56
1786.72
1786.87
1787.02
1787.17
1787.33
1787.5
1787.49
1787.61
1787.64
1787.65
1787.64
1787.59
1787.5
1787.4
1787.27
1787.11
1786.95
1786.78
1786.62
1786.49
1786.38
1786.33
1786.38
1786.45
1786.52
1786.58
1786.66
1786.71
1786.72
1786.69
1786.68
1786.63
1786.58
1786.49
1786.58
1786.5
1786.39
1786.36
1786.33
1786.46
1786.57
1786.78
1786.99
1787.14
1787.29
1787.37
1787.54
1787.55
1787.7
1787.71
1787.7
1787.64
1787.58
1787.45
1787.3
1787.13
1786.93
1786.71
1786.5
1786.27
1786.11
1786.08
1786.26
1786.47
1786.55
1786.62
1786.73
1786.78
1786.77
1786.72
1786.67
1786.62
1786.57
1786.51
1786.44
1786.39
1786.37
1786.32
1786.28
1786.46
1786.59
1786.74
1786.88
1787.06
1787.31
1787.65
1787.76
1787.73
1787.77
1787.81
1787.85
1787.77
1787.68
1787.56
1787.36
1787.06
1786.81
1786.44
1786.03
1785.8
1785.65
1785.68
1785.87
1786.17
1786.33
1786.43
1786.54
1786.61
1786.64
1786.63
1786.6
1786.53
1786.42
1786.21
1785.97
1785.75
1785.49
1785.33
1785.25
1786.43
1786.4
1786.61
1786.79
1787.29
1787.44
1787.61
1787.93
1787.89
1787.93
1787.95
1788.13
1788.12
1788.01
1787.8
1787.56
1787.28
1786.47
1786
1785.7
1785.43
1785.29
1785.3
1785.33
1785.65
1786.22
1786.34
1786.48
1786.59
1786.65
1786.69
1786.75
1786.74
1786.11
1785.09
1785.03
1785.13
1784.91
1784.86
1784.87
1786.73
1786.9
1786.7
1786.94
1787.39
1787.63
1787.72
1788.19
1788.51
1788.19
1788.33
1788.44
1788.45
1788.31
1787.66
1787.03
1786.7
1786.28
1786.62
1786.58
1786.23
1786.01
1785.88
1785.73
1785.89
1786.19
1786.23
1786.43
1786.62
1786.82
1786.94
1786.05
1784.9
1785.14
1785.29
1785.9
1786.06
1786.27
1785.82
1784.47
1786.63
1786.78
1786.94
1787.13
1786.5
1786.73
1787.14
1788.25
1788.6
1788.2
1788.31
1788.59
1788.56
1788.43
1787.99
1787.47
1787.51
1787.14
1786.59
1785.94
1784.95
1784.17
1784.63
1785.83
1785.93
1786
1786.2
1786.11
1784.47
1784.34
1784.38
1784.22
1784.94
1786.9
1786.9
1786.84
1786.78
1786.73
1786.63
1786.37
1786.58
1786.62
1785.63
1785.7
1785.92
1786.14
1786.73
1788
1788.33
1788.05
1788.26
1788.71
1788.63
1788.48
1788.22
1787.95
1787.6
1787.17
1786.74
1783.82
1781.99
1781.97
1782
1782.01
1784.57
1784.73
1783.1
1783.69
1784.13
1784.24
1786.64
1787.38
1787.06
1786.76
1786.51
1786.28
1786.14
1786.1
1786.06
1786.05
1786.4
1785.26
1785.37
1785.64
1785.71
1785.87
1787.14
1787.75
1787.23
1787.53
1788.13
1788.3
1788.21
1788.04
1787.84
1787.53
1787.2
1786.98
1786.67
1784.01
1781.91
1781.77
1781.63
1781.51
1781.6
1781.89
1786.73
1787.47
1787.62
1787.7
1787.53
1787.26
1786.76
1786.09
1785.44
1785.03
1785.07
1785.24
1785.48
1786.08
1784.74
1784.85
1785.46
1786.77
1786.31
1786.44
1786.82
1786.6
1786.8
1787.11
1787.7
1787.62
1787.48
1787.25
1786.95
1786.73
1786.53
1786.45
1786.38
1786.44
1786.54
1786.06
1785.41
1785.02
1785.15
1785.62
1786.6
1787.42
1787.73
1787.58
1787.5
1787.5
1786.41
1784.43
1781.83
1779.33
1780.3
1782.29
1783.69
1784.79
1785.5
1785.24
1785.84
1786.17
1786.41
1786.56
1785.76
1785.92
1786.15
1786.96
1786.83
1786.64
1786.42
1786.19
1785.99
1785.69
1785.52
1785.55
1785.81
1786.08
1786.22
1786.29
1786.3
1784.95
1782.91
1781.73
1783.15
1785.94
1786.63
1787
1787.05
1786.77
1786.14
1779.57
1765.13
1763.41
1762.45
1767.4
1777.92
1783.03
1785.03
1784.94
1785.02
1785.24
1785.46
1784.88
1784.95
1785.13
1786.17
1786.08
1785.85
1785.55
1785.24
1784.99
1784.85
1784.8
1784.84
1785.05
1785.37
1785.68
1785.44
1782.73
1779.42
1775.48
1774.35
1774.16
1774.9
1784.54
1786.46
1786.61
1786.49
1786.14
1785.55
1784.82
1781.11
1760.24
1759.46
1760.25
1764.12
1785.64
1784.91
1784.77
1784.76
1784.86
1784.31
1784.22
1784.36
1785.55
1785.51
1785.3
1785
1784.58
1784.11
1783.71
1783.52
1783.53
1783.7
1784.1
1784.71
1785.28
1783.49
1773.36
1773.53
1773.78
1773.91
1773.97
1777.29
1784.48
1785.87
1785.56
1785.09
1784.41
1783.8
1783.4
1783.64
1774.16
1759.97
1761.37
1761.88
1787.92
1785.69
1785.54
1785.47
1785.46
1784.48
1784.5
1785.27
1785.46
1785.27
1784.96
1783.91
1781.23
1781.95
1782.95
1782.62
1782.55
1782.41
1782.31
1783.58
1785.01
1784.75
1777.06
1772.92
1773.13
1774.23
1781.23
1787.1
1786.54
1785.88
1785.16
1783.48
1777.85
1774.27
1779.26
1769.33
1756.65
1757.7
1759.48
1770.32
1790.65
1786.62
1786.49
1786.16
1786.14
1786.11
1785.8
1786
1785.79
1785.52
1783.5
1780.96
1780.47
1779.81
1779.99
1780.64
1780.51
1780.52
1781.23
1783.64
1783.54
1783.73
1784.26
1777.34
1780.13
1787.34
1787.41
1787.19
1786.65
1785.49
1784.89
1781.7
1771.89
1755.49
1755.43
1755.74
1756.37
1757.07
1757.8
1778.14
1790.01
1787.15
1785.7
1785.6
1786.91
1787.09
1786.92
1786.64
1786.33
1785.25
1781.56
1781.14
1780.65
1780.11
1779.63
1779.42
1779.46
1782.46
1784.1
1784.5
1782.63
1782.71
1783.16
1786.61
1786.87
1787.04
1787.07
1787.04
1786.67
1786.29
1785.84
1784.21
1778.19
1760.9
1754.16
1755.24
1755.75
1756.38
1756.76
1776.64
1790.4
1786.7
1786.48
1786.37
1786.22
1787.76
1787.5
1787.09
1786.67
1786.2
1783.25
1781.25
1780.82
1780.36
1779.98
1781.03
1783.13
1783.99
1784.4
1784.75
1784.57
1783.72
1785.54
1786.29
1786.59
1786.76
1786.9
1787
1787.13
1787.22
1787.28
1787.44
1787.82
1786.3
1756.5
1755.22
1755.63
1756.24
1758.16
1787.73
1790.08
1789.24
1787.29
1787.14
1786.9
1786.58
1786.75
1786.9
1786.47
1785.89
1785.81
1785.32
1784.35
1784.22
1784.31
1784.47
1784.51
1784.58
1784.65
1784.95
1785.47
1785.84
1786.08
1786.21
1786.31
1786.42
1786.59
1786.87
1787.2
1787.53
1787.85
1788.28
1788.82
1789.46
1790.22
1785.62
1778.03
1777.95
1784.3
1790.28
1789.63
1789.7
1788.67
1787.91
1787.75
1787.98
1787.67
1787.14
1786.58
1786.19
1786.77
1786.3
1785.88
1785.46
1785.1
1784.83
1784.65
1784.71
1784.97
1785.24
1785.68
1786
1785.91
1786.15
1786.35
1786.07
1784.98
1786.22
1787.21
1787.56
1787.66
1788.29
1789.16
1789.65
1790.08
1790.15
1788.87
1785.52
1789.15
1790.43
1788.97
1787.82
1789.16
1788.84
1788.73
1789.64
1789.54
1789
1788.46
1788.04
1787.39
1786.72
1786.22
1785.89
1785.51
1784.95
1784.27
1783.78
1784.31
1785.02
1785.67
1786.17
1786.14
1786.68
1786.77
1782.46
1775.8
1784.64
1787.56
1787.95
1787.77
1788.2
1788.95
1789.73
1789.96
1788.7
1785.71
1786.46
1787.28
1790.32
1788.88
1790.02
1790.36
1790.77
1790.66
1789
1786.97
1788
1788.9
1788.47
1785.61
1781.78
1784.72
1786.59
1786.19
1783.8
1761.48
1769.78
1781.48
1785.49
1786.4
1786.8
1786.99
1787.14
1787.38
1778.42
1774.15
1783.23
1788.05
1788.58
1788.56
1788.58
1788.93
1789.91
1790.11
1789.61
1785.62
1785.81
1785.78
1789.06
1788.81
1790.92
1790.73
1790.65
1790.51
1788.69
1786.86
1786.69
1788.92
1779.38
1771.81
1771.27
1770.51
1774.73
1769.16
1759.45
1759.58
1759.49
1763.95
1786
1787.61
1786.54
1782.83
1785.05
1776.78
1772.27
1773.05
1787.14
1788.93
1789.25
1789.48
1788.98
1789.48
1790.19
1790.12
1789.73
1786.73
1785.79
1785.93
1790.09
1788.95
1789.13
1786.92
1789.3
1790.59
1790.6
1789.96
1788.59
1788.42
1786.62
1776.89
1776.84
1779.64
1760.88
1760.3
1760.12
1760.05
1760.18
1778.29
1788.29
1788.46
1775.88
1771.99
1771.89
1771.9
1772.02
1783.66
1789.41
1789.66
1789.87
1790
1789.42
1789.97
1790.58
1789.98
1789.41
1789.68
1789.31
1790.26
1790.71
1790.68
1761.2
1761.12
1766.46
1786.57
1789.05
1788.51
1790.33
1790.22
1790.08
1790.03
1790.33
1790.17
1789.91
1767.17
1760.69
1774.57
1787.32
1787.6
1779.73
1772.52
1772.27
1772.03
1772.01
1775.89
1789.01
1789.89
1789.95
1790.11
1790.32
1790.51
1790.06
1790.46
1791.05
1790.63
1789.9
1790.3
1790.94
1790.95
1791
1789.56
1760.38
1760.13
1759.82
1777.08
1778.03
1787.27
1790.64
1789.91
1790.37
1790.74
1790.69
1788.51
1786.32
1776.46
1770.18
1777
1777.22
1783.01
1787.32
1788.13
1788.07
1781.82
1778.08
1784.48
1786.89
1785.96
1787.35
1790.01
1790.74
1790.95
1791.16
1791.2
1791.5
1791.6
1791.64
1789.98
1787.71
1785.12
1785.17
1785.2
1759.4
1759.13
1763.11
1789.83
1787.27
1787.4
1791.13
1791.3
1789.9
1786.76
1773.67
1770.82
1770.86
1770.98
1771.54
1770.48
1769.96
1781.14
1789.53
1789.59
1789.42
1779.74
1777.87
1778.13
1778.25
1778.55
1778.82
1781.56
1787.55
1789.25
1790.93
1791.48
1791.75
1792.01
1792.08
1791.97
1787.38
1785.26
1785.27
1786.7
1758.44
1758.41
1769.5
1791.83
1791.98
1790.78
1791.61
1791.65
1791.1
1771.65
1771.08
1771.19
1775.8
1778.05
1772.07
1770.66
1769.97
1779.98
1789.82
1789.69
1789.59
1789.5
1781.17
1784.87
1789.75
1789.88
1789.99
1780.46
1776.25
1776.63
1777.39
1791.08
1792.34
1792.31
1792.31
1792.33
1792.33
1792.29
1787.21
1790.6
1786
1757.7
1763.55
1791.89
1791.68
1791.35
1790.67
1791.48
1789.57
1772.6
1773.87
1788.43
1793.45
1793.61
1791.79
1791.21
1784.02
1780.97
1781.16
1787.04
1789.54
1789.12
1788.7
1788.44
1788.35
1788.38
1788.52
1788.64
1788.52
1788.55
1784.16
1764.32
1783.71
1791.52
1791.86
1792.17
1792.32
1792.35
1787.22
1790.57
1791.44
1779.91
1756.62
1780.54
1790.65
1791.05
1791.32
1791.5
1790.84
1788.53
1789.08
1791.62
1792.56
1792.6
1780.82
1770.96
1772.26
1787.74
1788.86
1788.42
1788.26
1787.67
1786.77
1782.68
1779.28
1784.29
1786.19
1787.07
1787.59
1787.86
1766.75
1759.4
1759.85
1773.33
1791.7
1792.35
1792.56
1792.55
1790.69
1792.32
1787.76
1756.95
1754.09
1753.89
1777.06
1788.18
1790.39
1789.67
1789.89
1789.13
1789.12
1790.98
1792.12
1792.15
1791.61
1770.32
1768.09
1768.94
1788.27
1788.04
1786.96
1786.46
1778.42
1719.6
1708.84
1734.1
1776.11
1785.93
1787.68
1788.83
1782.72
1758.2
1758.61
1758.84
1773.46
1792.69
1792.8
1792.45
1792.36
1792.32
1790.84
1779.62
1756.68
1754.65
1754.38
1754.03
1762.4
1765.28
1767.19
1773.11
1785.82
1790.28
1790.68
1791.15
1790.82
1790.27
1786.85
1787.12
1785.87
1763.87
1761.19
1753.62
1696.77
1693.63
1692.58
1692.67
1744.89
1786.63
1788.62
1789.72
1790.14
1774.94
1757.97
1762.03
1779.45
1782.77
1772.23
1786.43
1791.8
1791.86
1791.65
1793.04
1794.26
1786.8
1769.26
1753.78
1753.12
1752.8
1752.51
1752.18
1771.06
1791.74
1791.3
1790.58
1789.72
1788.7
1787.17
1786.36
1778.23
1702.12
1693.83
1693.62
1693.73
1693.72
1693.47
1693.6
1744.79
1787.69
1788.91
1789.59
1789.49
1786.5
1776.06
1777.23
1777.5
1754.05
1754.2
1762.62
1789.73
1791.95
1791.82
1793.39
1794.6
1795.04
1795.35
1795.5
1771.06
1752.67
1752.63
1752.26
1779.64
1792.76
1791.97
1790.97
1789.08
1777.29
1761.38
1711.39
1691.71
1692.86
1693.81
1694.09
1694.05
1693.8
1693.45
1738.24
1788.27
1788.27
1788.78
1789.43
1789.57
1789.25
1788.68
1770.02
1751.78
1751.54
1752.27
1755.18
1789.94
1792.2
1791.9
1793.17
1794.14
1795.08
1795.43
1795.58
1795.66
1784.62
1756.29
1785.43
1794.72
1794.06
1793.32
1789.56
1776.47
1739
1701.27
1693.28
1693.39
1693.62
1693.97
1694.06
1693.7
1745.07
1791.48
1790.33
1788.44
1787.08
1774.89
1785.72
1789.9
1789.51
1778.67
1749.68
1750.24
1750.75
1751.38
1771.31
1792.18
1792.49
1792.12
1793.33
1793.8
1794.43
1794.79
1795.46
1795.77
1795.91
1796.13
1796.21
1795.93
1795.43
1794.39
1782.15
1772.46
1784.31
1792.05
1777.29
1745.12
1744.83
1769.83
1793.24
1793.47
1792.37
1791.31
1790.07
1788.01
1768.87
1724.76
1744.73
1789.63
1786.82
1778.81
1754.94
1750.28
1750.61
1764.98
1791.54
1792.67
1792.73
1791.95
1792.95
1793.72
1794.2
1794.46
1794.84
1795.27
1795.96
1796.44
1796.89
1796.88
1796.21
1795.17
1794.4
1793.31
1792.52
1791.95
1792.21
1792.52
1792.36
1792.15
1793.02
1792.27
1790.39
1788.57
1776.85
1767.11
1722.83
1722.29
1722.94
1731.16
1735.55
1780.41
1789.87
1781.71
1785.13
1792.17
1792.67
1792.71
1792.79
1786.82
1791.01
1793.11
1793.69
1794.24
1794.88
1795.57
1794.45
1793.16
1796.32
1797.47
1796.96
1795.23
1792.79
1793.79
1784.54
1777.13
1776.24
1776.83
1777.84
1783.28
1789.46
1788.72
1774.91
1756.73
1753.77
1732.51
1722.66
1722.94
1723.12
1723.29
1723.59
1773.58
1792
1792.28
1789.53
1763.51
1761.79
1770.43
1771.26
1785.7
1786.36
1791.84
1792.53
1793.14
1793.89
1794.74
1792.85
1792.54
1794.16
1797.98
1797.74
1782.04
1773.92
1780.18
1757.68
1757.54
1757.65
1759.37
1784.89
1789.15
1787.41
1786.83
1769.09
1751.64
1747.2
1740.74
1722.69
1722.97
1723.4
1723.29
1733.26
1785.82
1793.04
1787.37
1752.7
1751.54
1751.74
1766.98
1767.11
1785.5
1784.92
1789.48
1790.97
1791.44
1792.18
1793.17
1794.36
1793.29
1793.42
1797.35
1795.04
1773.19
1770.29
1766.78
1758.21
1757.39
1781.78
1786.68
1784.81
1778.28
1756.89
1761.06
1777.15
1784.36
1782.79
1776.88
1761.12
1753.06
1734.54
1740.8
1784
1794.3
1794.26
1780.6
1751.38
1751.41
1776.13
1784.34
1784.01
1786.05
1784.98
1789.93
1789.93
1790.04
1790.51
1791.48
1792.6
1791.4
1792.23
1795.84
1796.67
1784.17
1770.19
1794.38
1776.39
1778.08
1784.66
1773.43
1721.65
1680.41
1667.49
1669.57
1764.82
1785.9
1787.02
1788.05
1788.86
1788.8
1777.46
1777.06
1794.44
1794.65
1794.72
1791.02
1758.66
1750.76
1782.65
1783.4
1783.8
1786.59
1786.22
1790.25
1789.42
1789
1789.21
1790.29
1791.87
1791.32
1792.06
1792.79
1793.69
1757.18
1794.74
1795.17
1795.29
1795.26
1768.34
1670.76
1670
1668.65
1668.38
1678.38
1787.49
1789.28
1789.22
1789.3
1789.8
1790.32
1774.35
1767.49
1792.07
1795.31
1795.31
1793.38
1767.94
1749.69
1772.88
1780.98
1781.24
1786.87
1782.42
1789.52
1788.39
1783.57
1770.73
1763.76
1791.25
1791.71
1791.33
1781.66
1737.32
1725.76
1790.16
1795.58
1796.1
1796.25
1747.05
1669.51
1668.84
1667.95
1667.82
1734.6
1790.67
1789.62
1791.17
1791.65
1791.89
1792.24
1774.66
1761.28
1794.74
1796.51
1796.3
1792.41
1779.98
1761.71
1775.51
1776.89
1777.58
1789.08
1784.3
1791.71
1785.3
1697.67
1648.42
1655.48
1763.06
1789.04
1698.9
1654.56
1660.21
1760.02
1796.08
1796.58
1797.12
1797.47
1795.47
1710.42
1666.74
1666.59
1673.47
1762.58
1763.72
1724.27
1752.78
1789.08
1781.21
1768.02
1759.51
1761.75
1792.77
1798.47
1780.45
1766.01
1765.84
1772.11
1777.67
1681.82
1627.99
1792.78
1788.93
1784.84
1751.84
1648.86
1648.79
1648.72
1649.33
1656.58
1649.81
1651.1
1692.27
1797.13
1797.64
1797.87
1798.12
1798.44
1798.97
1798.02
1710.28
1665.67
1666.04
1669.61
1725.12
1724.98
1715.2
1715.86
1716.09
1716.58
1717.32
1717.27
1716.92
1716.49
1714.79
1723.9
1726.62
1705.18
1637.07
1623.36
1624.11
1795.32
1799.89
1782.73
1774.03
1669
1650.18
1649.62
1648.98
1649.19
1649.56
1648.9
1761.75
1799.08
1799.23
1792.41
1789.94
1798.29
1798.97
1800.07
1801.04
1733.33
1677.21
1680.19
1702.79
1691.34
1738.16
1793.37
1800.35
1800.35
1793.54
1791.33
1792.35
1789.17
1773.93
1765.68
1764.27
1736.83
1618.65
1620.14
1620.72
1781.92
1805.28
1802.78
1779.14
1753.18
1670.45
1650.18
1649.59
1649.11
1672.79
1730.01
1798.51
1801.19
1800.95
1795.13
1786.91
1789.68
1799.96
1798.51
1795.6
1787.46
1791.44
1794.16
1800.61
1764.47
1701.74
1701.86
1758.84
1801.18
1800.36
1799.83
1799.43
1798.8
1798.17
1797.73
1746.39
1718.54
1628.93
1617.87
1618.49
1778.5
1804.73
1805.07
1784.38
1765.19
1784.43
1749.19
1731.14
1755.21
1790.17
1803.57
1803.96
1803.65
1803.31
1799.18
1788.71
1791.96
1788.47
1772.99
1772.87
1779.18
1788.93
1797.95
1797.86
1797.91
1798.27
1789.18
1757.25
1791.21
1800.12
1800.55
1799.67
1799.38
1799.04
1798.22
1729.58
1663.72
1632.81
1681.82
1680.21
1804.12
1803.89
1803.39
1793.78
1793.45
1805.21
1805.57
1805.66
1805.85
1805.97
1806.01
1805.94
1805.79
1805.53
1805.23
1800.33
1781.25
1766.11
1764.77
1781.25
1790.6
1795.49
1795.37
1794.71
1794.13
1793.55
1792.95
1791.33
1786.11
1796.06
1797.14
1797.42
1797.56
1798.25
1799.35
1769.5
1683.62
1669.29
1737.05
1733.03
1805.09
1803.97
1803.52
1803.87
1804.65
1805.05
1805.42
1805.87
1806.38
1806.92
1807.46
1807.83
1807.88
1807.69
1807.42
1788.29
1773.54
1776.45
1798.06
1796.7
1794.71
1793.18
1792.65
1791.87
1791.18
1790.65
1789.57
1700.71
1647.24
1684.2
1734.99
1747.85
1768.18
1800.13
1790.89
1770.98
1785.72
1787
1734.78
1730.25
1806.54
1805.95
1805.37
1805.38
1805.28
1805.34
1805.68
1806.23
1806.85
1807.48
1808.13
1809.03
1809.62
1790.01
1760.4
1775.15
1805.07
1802.72
1799.03
1795.27
1786.47
1767.69
1748.81
1759.66
1773.64
1778.67
1780.21
1725.3
1644.22
1649.14
1651.74
1654.52
1656.61
1682.94
1664.44
1664.92
1755.48
1805.45
1806.57
1793.5
1806.78
1806.59
1806.4
1806.36
1806.16
1806.09
1806.27
1806.68
1807.55
1808.19
1783.64
1735.21
1736.38
1737.21
1737.06
1782.03
1805.53
1800.97
1753.11
1672.14
1600.31
1541.67
1533.52
1566.61
1684.17
1735.63
1766
1765.51
1714.51
1678.73
1681.16
1671.3
1691.6
1666.01
1666.01
1666.41
1761.98
1806.18
1807.09
1793.72
1807.35
1807.35
1807.2
1807.02
1806.97
1806.83
1806.85
1806.43
1755.14
1731.04
1732.45
1733.38
1755.95
1810.22
1809.85
1807.76
1791.27
1652.18
1519.31
1518.17
1517.86
1519.75
1536.96
1528.61
1529.65
1528.79
1611.44
1734.49
1733.67
1757.67
1789.66
1790.08
1791.08
1790.04
1794.91
1800.32
1798.06
1805.9
1807.38
1778.97
1807.79
1808.08
1808.28
1808.46
1808.43
1808.07
1788.51
1726.01
1727.37
1729.84
1798.32
1806.56
1807.06
1807.95
1806.04
1800.63
1624.06
1517.36
1516.29
1515.74
1580.81
1781.52
1807.78
1726.54
1541.9
1532.87
1536.53
1539.8
1542.58
1622.04
1774.33
1777.66
1793.94
1809.41
1807.28
1805.35
1807.08
1806.62
1806.51
1774.25
1808.33
1808.51
1808.71
1808.98
1809.04
1807.78
1750.2
1724.53
1736.68
1801.39
1801.22
1801.03
1800.68
1800.1
1799
1797.73
1781.04
1601.73
1545.32
1787.5
1802.24
1803.6
1804.91
1806.12
1807.82
1776.32
1596.5
1541.32
1550.61
1570.8
1652.99
1770.96
1810.13
1809.44
1808.88
1808.48
1807.78
1807.48
1804.29
1773.92
1808.21
1807.94
1808
1808
1806.85
1805.37
1759.4
1719.05
1794.14
1794.81
1794.19
1793.32
1792.08
1790.5
1789.02
1788.14
1788.82
1790.51
1792.76
1795.23
1797.83
1800.21
1802.16
1803.57
1805.11
1806.77
1808.49
1809.73
1810.39
1810.47
1800.4
1796.42
1776.61
1759.77
1793.04
1807.01
1808.68
1807.85
1806.21
1797.75
1807.71
1806.8
1806.16
1805
1792.86
1635.17
1653.62
1789.58
1788.3
1787.88
1786.96
1785.26
1769.4
1749.24
1743.93
1734.9
1755.64
1779.09
1782.6
1787.06
1791.73
1795.63
1798.5
1800.29
1802.45
1804.54
1806.52
1807.81
1808.29
1808.48
1808.59
1808.62
1797.03
1669.17
1661.29
1688.37
1710.73
1692.04
1716.17
1745.65
1806.97
1804.17
1791.51
1688.69
1551.51
1509.96
1555.68
1784.54
1782.95
1782.53
1781.68
1779.97
1776.39
1661.55
1570.54
1566.51
1566.23
1654.17
1734.1
1763.35
1784.07
1789.47
1792.9
1778.94
1780.44
1802.54
1805.06
1806.71
1807.31
1807.39
1807.4
1807.66
1808.4
1781.01
1664.45
1626.77
1623.95
1622.16
1621.12
1620.79
1767.62
1755.71
1664.44
1507.72
1505.5
1501.79
1496.42
1579.79
1762
1780.59
1780.41
1779.72
1778.18
1749.73
1586.79
1565.8
1565.1
1565.88
1568.84
1672.41
1783.27
1787.84
1790.79
1769.5
1742.47
1752.1
1778.58
1775.05
1788.02
1803.67
1806.13
1805.83
1806.73
1808.36
1809.94
1806.12
1773.68
1724.76
1617.23
1617.42
1567.87
1629.2
1521.19
1504.17
1502.13
1499.52
1496.27
1492.77
1517.48
1704.2
1782.54
1782.52
1781.88
1773.2
1612.35
1569.01
1568.4
1568.15
1569.18
1658.56
1782.71
1766.06
1788.66
1789.32
1744.42
1691.1
1683.1
1680.46
1669.08
1663.88
1694.07
1757.05
1799.15
1805.92
1807.5
1809.17
1811.08
1812.69
1689.6
1617.31
1532.98
1530.91
1520.22
1514.55
1500.78
1499.42
1497.6
1495.04
1492.4
1683.34
1787.5
1786.64
1785.39
1781.68
1639.79
1569.3
1568.76
1568.2
1615.29
1680.44
1577.16
1523.06
1706.16
1782.32
1789.11
1794.16
1792.11
1759.19
1687.65
1587.65
1565.3
1564.57
1643.71
1768.95
1805.08
1806.96
1808.93
1810.57
1763.17
1758.11
1535.59
1531.18
1622.65
1791.99
1706.44
1545.84
1510.14
1559.22
1665.72
1765.59
1791.7
1790.05
1788.22
1786.52
1768.2
1623.78
1568.38
1573.88
1747.62
1608.73
1487.17
1487.53
1487.37
1657.76
1785.6
1791.97
1794.06
1748.75
1677.56
1694.27
1614.98
1552.91
1544.95
1542.64
1715.34
1803
1806.85
1808.08
1729.57
1755.03
1655.49
1599.39
1760.99
1808.31
1807.04
1781.68
1774.17
1783.09
1798.74
1796.77
1791.52
1786.45
1789.8
1787.84
1786.13
1770.77
1689.14
1694.37
1758.88
1526.13
1481.34
1481.29
1481.44
1485.66
1770.47
1790.01
1792.09
1680.53
1507.65
1547.73
1610.99
1636.95
1547.13
1508.79
1510.79
1726.8
1806.16
1806.4
1758.71
1684.87
1802.17
1796.57
1807.65
1807.52
1806.73
1805.23
1803.46
1801.55
1799.76
1798.02
1794.94
1765.01
1760.14
1786.78
1769.14
1746.13
1745.5
1762.51
1762.3
1633.02
1476.82
1477
1477.37
1479.59
1776.32
1791.12
1793.85
1713.21
1501.31
1502.23
1500.59
1587.8
1542.73
1501.99
1506.27
1674.93
1807.41
1807.36
1755.72
1351.03
1808.13
1808.79
1808.37
1807.49
1806.74
1805.4
1803.52
1801.49
1800.11
1799.1
1797.81
1782.35
1737.33
1722.73
1719.74
1752.54
1763.17
1762.39
1762.53
1753.81
1489.04
1473.52
1474.21
1503.81
1789.68
1793.04
1795.79
1792.15
1621.09
1498.19
1497.7
1496.95
1496.15
1498.69
1509.06
1780.89
1810.18
1810.47
1732.46
1302.46
1635.64
1781.66
1811.42
1810.02
1808.34
1807.06
1714.76
1649.3
1676.15
1750.62
1799.72
1799.04
1795.8
1718.79
1746.24
1763.84
1762.36
1760.85
1761.28
1763.81
1689.32
1470.94
1472.16
1510.44
1788.18
1795.06
1797.7
1800.46
1802.27
1577.12
1496.99
1497.67
1499.37
1501.46
1576.68
1802.1
1815.39
1815.82
1745.23
1301.07
1518.61
1525.29
1617.87
1679.15
1681.05
1633.4
1564.5
1562.12
1559.1
1554.44
1587.53
1672.03
1623.05
1637.94