/*--------------------------------*- C++ -*----------------------------------*\
  =========                 |
  \\      /  F ield         | OpenFOAM: The Open Source CFD Toolbox
   \\    /   O peration     | Website:  https://openfoam.org
    \\  /    A nd           | Version:  8
     \\/     M anipulation  |
\*---------------------------------------------------------------------------*/
FoamFile
{
    version     2.0;
    format      ascii;
    class       volScalarField;
    location    "8.25";
    object      alpha.water;
}
// * * * * * * * * * * * * * * * * * * * * * * * * * * * * * * * * * * * * * //

dimensions      [0 0 0 0 0 0 0];

internalField   nonuniform List<scalar> 
9150
(
1
1
1
1
1
1
1
1
1
1
1
1
1
1
1
1
1
1
1
1
1
1
1
1
1
1
1
1
1
1
1
1
1
1
1
1
1
1
1
1
1
1
1
1
1
1
1
1
1
1
1
1
1
1
1
1
1
1
1
1
1
1
1
1
1
1
1
1
1
1
1
1
1
1
1
1
1
1
1
1
1
1
1
1
1
1
1
1
1
1
1
1
1
1
1
1
1
1
1
1
1
1
1
1
1
1
1
1
1
1
1
1
1
1
1
1
1
1
1
1
1
1
1
1
1
1
1
1
1
1
1
1
1
1
1
1
1
1
1
1
1
1
1
1
1
1
1
1
1
1
0.995731
0.995733
0.991451
0.991599
0.997969
0.998661
0.998661
0.998661
0.998661
0.998353
0.995742
0.995731
0.991426
0.991009
0.991008
0.991004
0.992031
0.99837
0.998661
0.998074
0.995747
0.993995
0.993994
0.998398
0.993031
0.990999
0.991
0.994914
0.998535
0.998197
0.997272
0.994008
0.994341
0.998679
0.998691
0.994385
0.991583
0.997903
0.998491
0.998695
0.99866
0.994104
0.997403
0.998695
0.998691
0.993878
0.995659
0.998694
0.998695
0.998695
0.994353
0.996934
0.998695
0.998695
0.997293
0.993871
0.99504
0.998695
0.998695
0.998695
0.99281
0.997162
0.998695
0.998695
0.997637
0.993871
0.994604
0.998694
0.998695
0.998695
0.992811
0.998103
0.998695
0.998695
0.998695
0.996093
0.997411
0.998695
0.998695
0.998695
0.996329
0.998695
0.998695
0.998695
0.998695
0.998695
0.998695
0.998695
0.998695
0.998695
0.998695
0.998695
0.998695
0.998695
0.998695
0.998695
0.998695
0.998695
0.998632
0.997203
0.998694
0.998694
0.998688
0.998694
0.998695
0.998695
0.998695
0.998695
0.997972
0.994963
0.998441
0.99844
0.998695
0.998695
0.998695
0.998695
0.998695
0.990772
0.989092
0.996107
0.998692
0.99856
0.998695
0.998695
0.985803
0.981988
0.976136
0.975526
0.975541
0.982563
0.998692
0.998692
0.995372
0.976512
0.969977
0.97005
0.970153
0.983322
0.997617
0.997667
0.998692
0.985
0.969994
0.969976
0.969994
0.979219
0.997009
0.998237
0.996604
0.963054
0.975201
0.972733
0.972924
0.987814
0.997602
0.998379
0.998379
0.980951
0.978326
0.980167
0.975172
0.982827
0.998525
0.998527
0.998524
0.967049
0.91009
0.985652
0.998009
0.998093
0.99003
0.998504
0.998527
0.995575
0.917637
0.883259
0.89233
0.995494
0.998119
0.998116
0.998505
0.998505
0.993782
0.912749
0.881588
0.882117
0.920966
0.998198
0.998167
0.996764
0.998505
0.998481
0.98795
0.88618
0.88156
0.881567
0.931757
0.9982
0.9982
0.996939
0.979509
0.99844
0.998142
0.927722
0.881567
0.881509
0.902265
0.998201
0.998204
0.998204
0.972168
0.991435
0.99861
0.990956
0.895073
0.8815
0.881509
0.949464
0.998204
0.998208
0.978978
0.979624
0.998614
0.998635
0.970908
0.881508
0.8815
0.8817
0.969652
0.998208
0.987419
0.971201
0.997603
0.998652
0.998493
0.935891
0.881529
0.88152
0.883095
0.945548
0.987419
0.970592
0.993216
0.998653
0.998652
0.995571
0.919246
0.881578
0.88156
0.881631
0.984613
0.970441
0.980522
0.998652
0.998654
0.998651
0.993086
0.940542
0.909892
0.925899
0.987034
0.970449
0.970444
0.993293
0.998653
0.998657
0.998656
0.998121
0.99595
0.997445
0.996885
0.977364
0.970557
0.970875
0.992358
0.998657
0.998662
0.998668
0.998669
0.998669
0.996893
0.996776
0.98554
0.976411
0.980169
0.996544
0.998585
0.998668
0.998669
0.998669
0.906652
0.996531
0.995545
0.994407
0.992141
0.996929
0.998669
0.998669
0.998669
0.99867
0.825491
0.831373
0.919217
0.998491
0.99864
0.998668
0.998669
0.998669
0.99867
0.998671
0.823121
0.82222
0.820918
0.831439
0.922897
0.998641
0.998669
0.99867
0.998671
0.998673
0.966498
0.846273
0.820243
0.819595
0.818937
0.844543
0.961952
0.99867
0.998672
0.998675
0.982071
0.958726
0.907344
0.818937
0.818601
0.818153
0.818029
0.895139
0.998651
0.998677
0.879549
0.955695
0.99346
0.92118
0.818157
0.818068
0.817938
0.817939
0.847327
0.971869
0.879621
0.927201
0.99462
0.995173
0.851729
0.817914
0.817959
0.817908
0.817998
0.819359
0.879654
0.943035
0.995173
0.9952
0.912528
0.817954
0.817934
0.817965
0.817959
0.817963
0.879653
0.96435
0.9952
0.9952
0.988793
0.848682
0.81795
0.817959
0.817956
0.817955
0.879653
0.959954
0.9952
0.9952
0.9952
0.964125
0.84711
0.817956
0.817955
0.817955
0.879653
0.895798
0.973708
0.988381
0.995159
0.995118
0.961105
0.862006
0.817956
0.817955
0.883783
0.911804
0.940132
0.977784
0.993678
0.97507
0.968968
0.965792
0.949913
0.935452
0.982087
0.981875
0.960412
0.960524
0.962904
0.963892
0.967322
0.98976
0.988444
0.972782
0.982123
0.962271
0.960524
0.9612
0.970217
0.992917
0.994333
0.996322
0.987545
0.982512
0.972496
0.96263
0.968995
0.997092
0.996358
0.996525
0.996557
0.996469
0.993935
0.993828
0.993126
0.987029
0.994309
0.997143
0.99714
0.996451
0.991442
0.991403
0.993616
0.993482
0.997136
0.997141
0.997144
0.997144
0.997144
0.997143
0.997061
0.994605
0.990102
0.983992
0.997138
0.997139
0.997143
0.997139
0.997138
0.997141
0.99715
0.997143
0.996089
0.985982
0.997139
0.997138
0.997139
0.997138
0.99714
0.997143
0.997147
0.997143
0.997137
0.996996
0.997138
0.997139
0.997139
0.997139
0.99714
0.997142
0.997143
0.997142
0.99714
0.997135
0.718408
0.68443
0.827897
0.912062
0.978167
0.99714
0.997142
0.989865
0.932968
0.899712
0.666849
0.666853
0.666853
0.667835
0.666456
0.739775
0.844062
0.743315
0.710534
0.711247
0.986219
0.96235
0.701009
0.66605
0.66605
0.66605
0.666772
0.747835
0.856829
0.867947
0.991047
0.991047
0.988595
0.977686
0.716557
0.666772
0.667913
0.668333
0.737725
0.977135
0.93563
0.986017
0.993015
0.993449
0.989986
0.994378
0.804951
0.669389
0.674926
0.715743
0.935755
0.935928
0.949855
0.9943
0.995231
0.995263
0.995266
0.995008
0.827139
0.719631
0.976747
0.993034
0.99507
0.99523
0.995263
0.995266
0.995266
0.995266
0.995254
0.834148
0.960832
0.926033
0.93264
0.963571
0.993055
0.995263
0.995266
0.995256
0.99525
0.995246
0.835106
0.835106
0.835106
0.835639
0.909322
0.989213
0.995205
0.99525
0.911505
0.744589
0.835225
0.84388
0.891924
0.910285
0.895157
0.895605
0.947558
0.99506
0.99289
0.90938
0.986212
0.994189
0.99405
0.994115
0.993541
0.992646
0.99164
0.990476
0.984606
0.981745
0.994215
0.994261
0.994189
0.990649
0.975704
0.943467
0.950636
0.927282
0.889001
0.887157
0.994264
0.98207
0.968302
0.939888
0.896278
0.896278
0.896278
0.903424
0.893926
0.883387
0.99416
0.970556
0.941682
0.94092
0.95046
0.942694
0.975155
0.990456
0.990452
0.966949
0.988983
0.980252
0.985078
0.989801
0.989966
0.990148
0.990366
0.990451
0.990464
0.990451
0.764768
0.856299
0.967439
0.989868
0.990002
0.989212
0.981608
0.990366
0.990451
0.982568
0.629263
0.6294
0.86375
0.988737
0.989868
0.972245
0.968822
0.988311
0.990039
0.719684
0.6294
0.631087
0.820499
0.985761
0.988918
0.986563
0.9819
0.928041
0.945165
0.614959
0.634178
0.790067
0.978343
0.984961
0.986868
0.985424
0.984134
0.79957
0.697856
0.72765
0.968107
0.98385
0.982345
0.982897
0.985024
0.984135
0.847158
0.61363
0.639479
0.936055
0.984456
0.984233
0.983854
0.982127
0.952593
0.850227
0.598338
0.608148
0.843801
0.968675
0.984944
0.984153
0.960675
0.894252
0.629225
0.58167
0.589857
0.660948
0.96397
0.987709
0.978103
0.860259
0.628862
0.562841
0.564844
0.568736
0.629647
0.865895
0.995569
0.995756
0.69479
0.547934
0.552386
0.558839
0.562841
0.661904
0.928915
0.996104
0.995794
0.995569
0.53173
0.536514
0.543684
0.555655
0.710304
0.963972
0.99615
0.996166
0.996113
0.99577
0.529478
0.53173
0.544132
0.775368
0.98975
0.99615
0.996166
0.996166
0.996166
0.996174
0.529551
0.530733
0.858501
0.994514
0.994821
0.994865
0.993941
0.993554
0.995812
0.996328
0.577349
0.944698
0.977897
0.978927
0.9507
0.9507
0.9507
0.960301
0.996421
0.996422
0.498554
0.495716
0.77723
0.990438
0.991732
0.98655
0.984098
0.994988
0.996487
0.996421
0.495716
0.493402
0.491088
0.716076
0.996528
0.996573
0.996574
0.996573
0.996562
0.996484
0.67085
0.491088
0.49093
0.490851
0.561589
0.950428
0.996573
0.996574
0.996573
0.996559
0.941482
0.934195
0.587407
0.4916
0.490772
0.499519
0.759473
0.996574
0.996574
0.996573
0.945431
0.946725
0.947856
0.919881
0.645814
0.494345
0.49386
0.579816
0.788067
0.99657
0.790463
0.947856
0.948942
0.952721
0.860354
0.7958
0.687587
0.556998
0.556198
0.58854
0.662062
0.791952
0.956347
0.962858
0.824954
0.794382
0.902348
0.864649
0.626818
0.578768
0.65994
0.622648
0.854526
0.972788
0.910249
0.801195
0.840043
0.962619
0.964439
0.861599
0.979574
0.627434
0.445516
0.979236
0.994933
0.825092
0.616864
0.800101
0.988637
0.992066
0.979612
0.904926
0.37178
0.809946
0.995727
0.94925
0.616755
0.617548
0.835511
0.992649
0.632657
0.651568
0.365498
0.761318
0.996326
0.958991
0.639547
0.620908
0.958175
0.992651
0.219551
0.294285
0.321434
0.726755
0.996793
0.973203
0.709006
0.707093
0.892833
0.948549
0.126936
0.242302
0.240131
0.664373
0.99714
0.9857
0.659533
0.611501
0.627742
0.48718
0.00536113
0.0817879
0.0366225
0.602435
0.997272
0.997249
0.625649
0.184446
0.00191428
0.00508942
0.00823692
0.00279311
0.00339909
0.658592
0.99774
0.998754
0.679304
0.000322268
0.00022229
0.00283882
0.0081945
0.00244734
0.00279311
0.713481
0.998663
0.999389
0.905077
0.0846178
0.000221447
0.00286735
0.00210082
0.0022124
0.0044761
0.794601
0.999381
0.999786
0.95315
0.227612
0.000220336
0.00286694
7.99087e-06
7.10783e-05
0.0959248
0.876879
0.999784
0.99987
0.987919
0.384993
0.000138922
0.000805103
3.74854e-06
7.35638e-06
0.233389
0.944433
0.999868
0.999927
0.999339
0.554414
4.72648e-05
3.56482e-05
3.52681e-06
3.74854e-06
0.548212
0.998803
0.999938
0.999956
0.999934
0.758626
3.87562e-05
1.92856e-05
3.53868e-06
0.0182122
0.826304
0.99993
0.999982
0.999999
0.999952
0.900561
0.185797
8.10705e-15
3.17151e-06
0.473857
0.98864
0.999981
1
1
0.999999
0.999893
0.678376
3.24684e-17
0.271513
0.952125
1
1
1
1
1
1
0.976956
0.369261
0.997613
0.997613
0.998615
0.998689
0.998689
0.998689
0.998688
0.996033
0.995044
0.995043
0.995044
0.997675
0.998682
0.998682
0.998657
0.998613
0.998613
0.998612
0.998534
0.987514
0.983215
0.983213
0.983216
0.988909
0.998399
0.9984
0.994344
0.991626
0.996693
0.99726
0.99726
0.99726
0.99726
0.99726
0.99726
0.99726
0.99726
0.99726
0.99689
0.996453
0.998047
0.998688
0.998689
0.998689
0.998689
0.998689
0.998689
0.998576
0.995047
0.995044
0.996423
0.998684
0.998683
0.99862
0.993035
0.992459
0.998414
0.998604
0.998597
0.998483
0.987813
0.983216
0.984779
0.998399
0.998401
0.998403
0.9925
0.981588
0.981213
0.981197
0.979993
0.979998
0.981553
0.996868
0.99726
0.991781
0.990179
0.991275
0.995111
0.996389
0.998692
0.998691
0.99869
0.991344
0.985655
0.998689
0.998689
0.998688
0.998531
0.997428
0.998228
0.998684
0.998684
0.998683
0.998678
0.987916
0.968452
0.99518
0.998522
0.99844
0.997962
0.990391
0.988041
0.993925
0.998403
0.998405
0.998406
0.998406
0.998406
0.998406
0.998406
0.992612
0.993148
0.996802
0.977665
0.936643
0.935903
0.935903
0.954883
0.993154
0.998694
0.998692
0.979182
0.947437
0.947451
0.983616
0.998688
0.998689
0.998689
0.998688
0.998686
0.998684
0.998684
0.998682
0.998647
0.982171
0.961337
0.961346
0.961618
0.984436
0.981109
0.962262
0.962243
0.971266
0.997211
0.998403
0.998405
0.998406
0.998406
0.998406
0.998405
0.976131
0.951526
0.95243
0.935913
0.935904
0.935903
0.935903
0.935903
0.98395
0.998695
0.998535
0.965823
0.947421
0.9474
0.947417
0.98028
0.998689
0.998689
0.998689
0.998688
0.998504
0.98528
0.977981
0.988094
0.962429
0.961322
0.961309
0.961293
0.961293
0.961293
0.963937
0.976846
0.984523
0.987409
0.990988
0.987178
0.99671
0.998406
0.998398
0.997394
0.995082
0.996329
0.992975
0.976619
0.948413
0.935904
0.936288
0.990767
0.99821
0.998695
0.998694
0.989721
0.949241
0.947409
0.9474
0.947417
0.981914
0.998689
0.998688
0.998684
0.978992
0.961278
0.961271
0.961272
0.961271
0.961278
0.981291
0.983251
0.961293
0.970511
0.998179
0.997841
0.989664
0.966739
0.934498
0.929906
0.977491
0.98979
0.981243
0.987764
0.995896
0.996348
0.993353
0.993303
0.993137
0.990677
0.992204
0.997866
0.998343
0.998695
0.998695
0.998693
0.992049
0.963863
0.947412
0.947413
0.97554
0.998688
0.998688
0.998685
0.989063
0.961282
0.961278
0.961271
0.961323
0.989102
0.997901
0.996183
0.993431
0.998655
0.998357
0.984705
0.929764
0.929764
0.929764
0.92977
0.929854
0.93409
0.972299
0.987469
0.990735
0.996348
0.983445
0.973201
0.975225
0.981627
0.996459
0.998343
0.998343
0.998695
0.998695
0.998695
0.998693
0.997479
0.988133
0.972058
0.985973
0.997991
0.998291
0.99868
0.99868
0.996029
0.984501
0.969839
0.987771
0.997901
0.997917
0.99809
0.998895
0.998894
0.998878
0.973421
0.929766
0.929764
0.92977
0.95054
0.986441
0.997443
0.99738
0.99595
0.996838
0.99563
0.994677
0.976702
0.96905
0.96905
0.971979
0.995772
0.998156
0.998695
0.998695
0.998678
0.998683
0.998681
0.998663
0.991191
0.985978
0.989149
0.99761
0.99868
0.99868
0.99868
0.99802
0.9934
0.993323
0.984091
0.984193
0.992641
0.998894
0.998895
0.998894
0.998785
0.991827
0.983292
0.993609
0.99756
0.997618
0.998444
0.998443
0.998444
0.995643
0.981318
0.984141
0.995636
0.995943
0.971286
0.969422
0.983904
0.995116
0.997299
0.997227
0.997116
0.997115
0.99865
0.998642
0.995628
0.986247
0.98638
0.995376
0.998674
0.997932
0.996754
0.9981
0.998099
0.988633
0.983604
0.987975
0.998894
0.998895
0.998894
0.998806
0.998782
0.998762
0.998761
0.998755
0.995502
0.991794
0.998147
0.998444
0.996323
0.958594
0.94405
0.94405
0.967523
0.996029
0.99573
0.978255
0.97843
0.978745
0.994962
0.996256
0.998384
0.997117
0.998639
0.99864
0.99864
0.997102
0.994959
0.995286
0.988676
0.981367
0.995093
0.9981
0.998049
0.986065
0.983593
0.993363
0.998871
0.998894
0.995984
0.986957
0.986629
0.998761
0.998755
0.998007
0.991794
0.991791
0.992849
0.9984
0.989492
0.944077
0.944044
0.944077
0.951352
0.997634
0.997638
0.996475
0.979585
0.975686
0.998264
0.998435
0.998431
0.998435
0.998226
0.992718
0.998596
0.998538
0.993116
0.976571
0.976591
0.979544
0.997375
0.9981
0.997445
0.983512
0.983577
0.998905
0.998905
0.998252
0.924683
0.878682
0.890691
0.98646
0.99363
0.998566
0.997816
0.991705
0.991612
0.998055
0.997666
0.975952
0.944077
0.944245
0.985803
0.997635
0.997627
0.993931
0.975686
0.975639
0.998409
0.99843
0.991577
0.966171
0.972975
0.98898
0.98083
0.981176
0.975402
0.975402
0.979957
0.995237
0.998081
0.9981
0.994014
0.994002
0.995165
0.998907
0.998907
0.998643
0.957158
0.878545
0.878536
0.878545
0.937001
0.998557
0.998566
0.995263
0.991611
0.991475
0.997278
0.996986
0.986024
0.97421
0.997874
0.995733
0.994075
0.99158
0.97685
0.97561
0.982623
0.957609
0.954541
0.954791
0.975617
0.979359
0.975157
0.975157
0.984283
0.989305
0.995547
0.995541
0.990536
0.977383
0.988082
0.998905
0.998907
0.998907
0.998907
0.998907
0.980827
0.883466
0.878536
0.878536
0.923971
0.998565
0.998529
0.998376
0.993212
0.990635
0.990496
0.996776
0.998243
0.998267
0.998289
0.977278
0.965066
0.96469
0.963347
0.975669
0.954405
0.954405
0.954405
0.965092
0.993526
0.990332
0.97858
0.990835
0.993401
0.993305
0.990211
0.974838
0.970245
0.970633
0.990329
0.998907
0.998907
0.998907
0.998907
0.998113
0.927524
0.878542
0.878536
0.880862
0.983629
0.997562
0.992622
0.997077
0.997309
0.996329
0.986745
0.983543
0.992535
0.998302
0.998316
0.998329
0.977144
0.953017
0.947946
0.950718
0.984739
0.959987
0.954649
0.991137
0.998223
0.998222
0.998012
0.997948
0.993419
0.974185
0.970019
0.970034
0.970122
0.975796
0.998907
0.998907
0.998907
0.998907
0.998905
0.985646
0.893607
0.878604
0.960451
0.977088
0.97744
0.921166
0.893436
0.92969
0.991775
0.998712
0.998712
0.985749
0.979541
0.995956
0.998329
0.998329
0.998329
0.998324
0.963562
0.950779
0.997827
0.982874
0.955476
0.99811
0.998224
0.998224
0.998224
0.998209
0.988132
0.970019
0.970019
0.970019
0.970955
0.997737
0.998907
0.998907
0.998907
0.998907
0.998905
0.952041
0.876601
0.95915
0.960204
0.932956
0.902208
0.87344
0.87344
0.87344
0.963994
0.998726
0.998721
0.998712
0.988823
0.97092
0.995205
0.998329
0.998324
0.998291
0.993965
0.967893
0.998013
0.978136
0.970881
0.998224
0.998224
0.998224
0.998224
0.998224
0.998017
0.992499
0.977272
0.973996
0.993827
0.998907
0.998907
0.998907
0.998907
0.998907
0.966296
0.870949
0.870169
0.876933
0.878031
0.878785
0.879047
0.873535
0.87344
0.873725
0.969807
0.998749
0.998734
0.99872
0.998286
0.96646
0.976585
0.996008
0.998291
0.998237
0.986867
0.975791
0.981854
0.97826
0.98836
0.998224
0.998224
0.998224
0.998224
0.998225
0.998222
0.992841
0.997976
0.998327
0.998906
0.998907
0.998907
0.998907
0.977126
0.927385
0.87076
0.870169
0.870169
0.870169
0.871902
0.960866
0.996363
0.96261
0.901392
0.977046
0.99876
0.99876
0.99875
0.980688
0.893774
0.953313
0.976393
0.898576
0.949726
0.997676
0.98622
0.967716
0.981177
0.978761
0.992124
0.998224
0.998224
0.998224
0.992557
0.920667
0.872778
0.879338
0.959529
0.998769
0.998842
0.996817
0.951091
0.895667
0.870682
0.8702
0.870185
0.870192
0.870169
0.874467
0.978075
0.997676
0.998716
0.998757
0.99876
0.99876
0.99876
0.99876
0.99876
0.853953
0.752164
0.797093
0.81755
0.750934
0.794876
0.97581
0.991529
0.967767
0.991938
0.985988
0.99803
0.998224
0.998221
0.995392
0.907064
0.87182
0.87177
0.871772
0.871789
0.873349
0.893999
0.95686
0.979325
0.964246
0.928104
0.934861
0.961539
0.96024
0.975097
0.998612
0.995838
0.986843
0.989092
0.996772
0.998758
0.99876
0.99876
0.99876
0.990873
0.799977
0.751934
0.751436
0.75092
0.750903
0.750934
0.944538
0.991535
0.97951
0.99821
0.998214
0.998222
0.998223
0.998222
0.998206
0.976806
0.883566
0.871772
0.871771
0.871772
0.871789
0.871831
0.91038
0.980074
0.99472
0.995256
0.994074
0.995852
0.998791
0.998792
0.998792
0.998792
0.986155
0.984931
0.9864
0.998437
0.998758
0.998683
0.998295
0.998416
0.978769
0.796251
0.75092
0.750903
0.750914
0.771892
0.974506
0.991388
0.989056
0.998211
0.998214
0.998217
0.998222
0.992821
0.989493
0.991388
0.986502
0.96019
0.943547
0.933278
0.93957
0.959932
0.977689
0.985523
0.993157
0.995371
0.998036
0.998791
0.998792
0.998792
0.998792
0.998792
0.997042
0.984931
0.991329
0.998685
0.998735
0.998242
0.998791
0.998797
0.998797
0.998797
0.920887
0.752029
0.768176
0.96822
0.990421
0.95952
0.93507
0.981101
0.987136
0.988774
0.972175
0.971726
0.971727
0.973966
0.986027
0.994703
0.994702
0.99439
0.994023
0.994135
0.996278
0.996686
0.996707
0.996696
0.996477
0.99873
0.998792
0.998792
0.998792
0.998792
0.998421
0.998077
0.998796
0.99862
0.998242
0.998242
0.998763
0.998797
0.998797
0.998797
0.997332
0.986794
0.986519
0.990728
0.990728
0.91045
0.906468
0.896235
0.943639
0.960797
0.975337
0.979577
0.987898
0.993653
0.994703
0.994703
0.994703
0.929038
0.869002
0.868814
0.941833
0.981646
0.875104
0.913809
0.990512
0.998785
0.998793
0.998792
0.99872
0.998732
0.998796
0.998796
0.998796
0.998322
0.998242
0.998637
0.998797
0.998797
0.998797
0.998797
0.987223
0.95998
0.959759
0.98005
0.925252
0.906467
0.906467
0.95721
0.968506
0.979348
0.995199
0.998644
0.995841
0.990661
0.994487
0.994703
0.994702
0.8856
0.868814
0.868793
0.86877
0.868774
0.86877
0.868975
0.94881
0.998795
0.998796
0.998796
0.998719
0.998718
0.998794
0.998796
0.998796
0.998604
0.99879
0.998798
0.998797
0.998797
0.998797
0.998797
0.99868
0.994133
0.922118
0.906476
0.906467
0.906467
0.906467
0.998663
0.99861
0.998616
0.99866
0.998648
0.978421
0.969325
0.986409
0.994135
0.987905
0.901506
0.877642
0.908957
0.945769
0.967885
0.995505
0.998795
0.998796
0.998794
0.998796
0.998796
0.998796
0.998796
0.998796
0.998796
0.998796
0.998796
0.998797
0.998798
0.998797
0.998797
0.998797
0.998798
0.998798
0.998798
0.998798
0.95782
0.906472
0.906467
0.906467
0.998669
0.998669
0.998664
0.998661
0.985162
0.956308
0.97978
0.984575
0.969737
0.969729
0.977971
0.98165
0.985078
0.986153
0.992619
0.993513
0.998796
0.998796
0.998796
0.998796
0.998796
0.998796
0.998796
0.998796
0.998796
0.998796
0.998796
0.998795
0.998796
0.998796
0.997701
0.997778
0.99871
0.998798
0.998798
0.998798
0.998798
0.982459
0.906574
0.906467
0.99867
0.998669
0.996403
0.972273
0.952704
0.955891
0.995595
0.996905
0.987534
0.969911
0.992226
0.998267
0.996276
0.979954
0.926553
0.977815
0.998796
0.998796
0.998796
0.998793
0.998077
0.998187
0.998426
0.998795
0.998796
0.998795
0.998321
0.98605
0.97567
0.979197
0.954176
0.955446
0.984168
0.998664
0.998798
0.998798
0.998798
0.998798
0.97351
0.915402
0.998671
0.998667
0.986933
0.952686
0.952685
0.959634
0.996918
0.998739
0.99864
0.997507
0.998021
0.998741
0.998714
0.990686
0.922465
0.951439
0.998796
0.998796
0.998795
0.995262
0.98631
0.986544
0.989734
0.996187
0.998776
0.997205
0.969634
0.943789
0.943748
0.943745
0.943745
0.943745
0.94375
0.977611
0.998782
0.998797
0.998798
0.998798
0.990954
0.945302
0.998673
0.998659
0.994977
0.952685
0.952685
0.95474
0.995478
0.998741
0.998741
0.998741
0.998741
0.998741
0.998741
0.995846
0.922465
0.937203
0.998794
0.998795
0.998739
0.990141
0.985287
0.985175
0.985659
0.984755
0.96781
0.934951
0.935968
0.946998
0.94379
0.943748
0.943745
0.94375
0.943755
0.988464
0.998306
0.942123
0.942159
0.987189
0.982372
0.94996
0.998675
0.998663
0.998631
0.961737
0.952685
0.95269
0.993549
0.998741
0.998741
0.998741
0.998741
0.998741
0.998742
0.998409
0.973089
0.937861
0.976044
0.993079
0.99466
0.99018
0.993759
0.992704
0.972944
0.932291
0.925431
0.925431
0.947692
0.993448
0.975887
0.948683
0.976114
0.988718
0.991696
0.991684
0.906693
0.845065
0.84512
0.948595
0.992819
0.948339
0.998677
0.99868
0.998677
0.994425
0.95269
0.964088
0.997147
0.998741
0.998741
0.998741
0.998741
0.998742
0.998742
0.99872
0.998691
0.988503
0.950153
0.97039
0.98888
0.992879
0.997206
0.979102
0.925758
0.925651
0.925697
0.944214
0.99112
0.998825
0.998825
0.998824
0.998772
0.983416
0.880515
0.846924
0.845
0.84498
0.845013
0.908126
0.992917
0.948082
0.99868
0.998681
0.99868
0.994444
0.986925
0.993516
0.998727
0.998741
0.998741
0.998741
0.998741
0.998741
0.991312
0.996428
0.998685
0.998685
0.967356
0.971937
0.996024
0.998706
0.997161
0.95062
0.925678
0.941055
0.986451
0.998818
0.998069
0.998825
0.998825
0.99502
0.995176
0.867399
0.845024
0.844978
0.844976
0.844976
0.844977
0.867511
0.99291
0.949289
0.998681
0.998696
0.998645
0.997459
0.998737
0.998737
0.998729
0.998607
0.998738
0.998741
0.998741
0.974837
0.952642
0.987649
0.998685
0.998685
0.943812
0.92425
0.998706
0.998725
0.996939
0.964479
0.955654
0.998829
0.998829
0.998828
0.998825
0.998825
0.998825
0.998823
0.996975
0.959557
0.849507
0.844976
0.844976
0.844976
0.844976
0.870714
0.992645
0.972341
0.9578
0.99872
0.998733
0.998737
0.998737
0.998737
0.998737
0.998737
0.998176
0.998091
0.963873
0.948035
0.948148
0.976249
0.998638
0.995646
0.907468
0.907463
0.998437
0.998759
0.998123
0.99883
0.99883
0.99883
0.998829
0.998384
0.998816
0.998824
0.998824
0.998795
0.993298
0.974457
0.930401
0.844977
0.844976
0.844976
0.846959
0.940255
0.997635
0.998725
0.818048
0.928584
0.998725
0.998737
0.998737
0.998737
0.998737
0.998737
0.998737
0.970054
0.948046
0.948104
0.973812
0.998553
0.998566
0.93084
0.90746
0.940001
0.998586
0.998802
0.998827
0.99883
0.99883
0.998829
0.998825
0.995781
0.990683
0.99879
0.998304
0.997885
0.997794
0.997759
0.995712
0.967468
0.947429
0.957147
0.978092
0.998278
0.998782
0.998778
0.817958
0.818024
0.926447
0.998713
0.998737
0.998737
0.998737
0.998737
0.998011
0.953239
0.948082
0.984112
0.998299
0.998391
0.998548
0.86414
0.925477
0.989601
0.985999
0.977503
0.998791
0.998827
0.998829
0.998825
0.998818
0.997813
0.960365
0.944092
0.982918
0.997826
0.997759
0.997632
0.997497
0.997757
0.998184
0.998537
0.998758
0.998777
0.998779
0.998775
0.817955
0.817958
0.930095
0.998683
0.998735
0.998737
0.998737
0.998737
0.969313
0.94951
0.949411
0.987891
0.998117
0.973028
0.879112
0.863322
0.90467
0.989596
0.989601
0.957856
0.955097
0.996835
0.998822
0.998818
0.998793
0.998711
0.955767
0.756
0.745601
0.930641
0.927433
0.87301
0.821801
0.854765
0.942421
0.970924
0.978249
0.941475
0.900887
0.890594
0.819775
0.917617
0.995574
0.998703
0.998715
0.980364
0.960568
0.965254
0.966156
0.965893
0.965435
0.889775
0.863333
0.863547
0.863321
0.863334
0.889593
0.98779
0.98957
0.989533
0.926076
0.878984
0.98692
0.998793
0.998708
0.998604
0.956704
0.735594
0.722235
0.722235
0.722235
0.722238
0.722284
0.723001
0.771887
0.940818
0.975566
0.922184
0.875166
0.875166
0.947941
0.957729
0.963998
0.957068
0.955799
0.954094
0.954141
0.96832
0.965984
0.929933
0.897993
0.863354
0.863324
0.863323
0.863325
0.863589
0.894746
0.981874
0.989533
0.930748
0.916132
0.826223
0.824937
0.941518
0.997908
0.997508
0.997602
0.975523
0.760446
0.722235
0.851989
0.995611
0.978428
0.98223
0.995808
0.995808
0.995808
0.995804
0.993827
0.933003
0.961186
0.952235
0.952207
0.952227
0.957264
0.978551
0.978075
0.970188
0.888486
0.850048
0.893773
0.893529
0.891687
0.890146
0.888687
0.88827
0.885566
0.911326
0.944037
0.934516
0.934026
0.931535
0.792827
0.740352
0.889705
0.98015
0.99791
0.99791
0.99791
0.967921
0.964223
0.995766
0.995808
0.995808
0.995808
0.995808
0.995804
0.995763
0.995619
0.990435
0.967261
0.952235
0.961481
0.978606
0.978657
0.978624
0.97852
0.970516
0.859356
0.780549
0.893585
0.892988
0.892241
0.889788
0.847284
0.814447
0.84201
0.830279
0.842246
0.76122
0.745649
0.824492
0.792018
0.73597
0.73597
0.742957
0.910656
0.989487
0.997797
0.997674
0.984134
0.9943
0.995807
0.995807
0.995778
0.995519
0.995749
0.995619
0.995134
0.980937
0.989627
0.978688
0.978704
0.978575
0.924843
0.679154
0.664165
0.700479
0.669094
0.671064
0.673001
0.712031
0.723729
0.714181
0.714225
0.763448
0.819294
0.719579
0.596163
0.585241
0.58457
0.584802
0.654449
0.811375
0.867023
0.764223
0.763657
0.764048
0.847967
0.993657
0.995516
0.995837
0.989615
0.986156
0.992107
0.995792
0.947869
0.905833
0.963955
0.971434
0.992688
0.846698
0.67185
0.665897
0.663886
0.663886
0.663881
0.664165
0.666175
0.703882
0.787888
0.826103
0.847334
0.823074
0.834473
0.941069
0.943289
0.942329
0.95301
0.942509
0.67723
0.584802
0.587423
0.590277
0.86536
0.976852
0.977313
0.977269
0.801896
0.785491
0.786079
0.871499
0.994731
0.996471
0.996476
0.996473
0.880348
0.810068
0.898469
0.972859
0.943959
0.690693
0.667057
0.667057
0.665554
0.765317
0.896696
0.933354
0.978384
0.997239
0.99724
0.997174
0.993256
0.982434
0.976589
0.967399
0.930993
0.876918
0.954599
0.960039
0.959884
0.854978
0.737312
0.896021
0.977253
0.977567
0.977615
0.977621
0.977616
0.885916
0.785243
0.786069
0.890167
0.996135
0.996473
0.967497
0.812114
0.809888
0.874968
0.972643
0.969539
0.821647
0.680437
0.945084
0.997134
0.997178
0.997219
0.997237
0.997239
0.99724
0.994995
0.915346
0.819123
0.766251
0.768227
0.79393
0.821462
0.882976
0.932754
0.959325
0.96247
0.967267
0.975204
0.977256
0.977567
0.977615
0.977621
0.977621
0.977621
0.977616
0.840667
0.785243
0.786103
0.952123
0.99635
0.928351
0.809888
0.809852
0.879122
0.972172
0.990287
0.919942
0.840043
0.952248
0.997115
0.997056
0.997178
0.997219
0.997237
0.997239
0.960462
0.764989
0.765023
0.764995
0.824037
0.921707
0.921557
0.920511
0.823718
0.733064
0.677093
0.615372
0.635425
0.757882
0.908678
0.951289
0.944654
0.976936
0.977616
0.977408
0.91562
0.78651
0.786192
0.961673
0.997187
0.951175
0.809852
0.809852
0.858436
0.971809
0.99711
0.93834
0.933945
0.92916
0.835709
0.787902
0.841891
0.939342
0.993395
0.997232
0.951589
0.766248
0.764975
0.819314
0.921707
0.921707
0.921707
0.765362
0.513914
0.372718
0.370179
0.369773
0.369719
0.369706
0.369708
0.406165
0.846241
0.976761
0.977408
0.977291
0.955468
0.791022
0.826165
0.98586
0.997695
0.997784
0.858804
0.809852
0.84769
0.969398
0.885748
0.878398
0.891399
0.713863
0.594696
0.594512
0.594515
0.595974
0.85966
0.996242
0.996528
0.901596
0.76534
0.826553
0.91971
0.91419
0.758946
0.640112
0.635116
0.550412
0.380804
0.369948
0.369706
0.369693
0.369695
0.369766
0.716122
0.976789
0.977227
0.977291
0.977227
0.896209
0.933277
0.996317
0.997795
0.997812
0.979969
0.848792
0.848228
0.951651
0.791177
0.798535
0.645057
0.597547
0.594793
0.594528
0.594503
0.594528
0.685586
0.9824
0.996843
0.996857
0.852694
0.796575
0.893383
0.831626
0.771226
0.995985
0.996331
0.986118
0.776211
0.400862
0.369693
0.369693
0.369693
0.402201
0.847154
0.976998
0.977211
0.977227
0.977211
0.968158
0.948614
0.996881
0.997812
0.997813
0.997812
0.976643
0.856801
0.951121
0.94099
0.99201
0.992201
0.992213
0.95945
0.638237
0.594528
0.594531
0.880782
0.996576
0.996858
0.996846
0.988708
0.806259
0.805933
0.931091
0.937252
0.996305
0.996872
0.997119
0.997414
0.856649
0.580764
0.632415
0.847668
0.86926
0.975716
0.977189
0.977204
0.977211
0.882379
0.817196
0.964994
0.997812
0.997813
0.997813
0.997813
0.993112
0.86937
0.950617
0.991912
0.992188
0.992213
0.992224
0.99222
0.992221
0.870138
0.87397
0.980436
0.996134
0.996768
0.996864
0.996831
0.930783
0.806355
0.921682
0.979747
0.963307
0.985939
0.997414
0.997515
0.997569
0.997811
0.894392
0.658906
0.521502
0.524102
0.681652
0.792373
0.719538
0.52421
0.568763
0.953501
0.997813
0.997813
0.997813
0.997813
0.958509
0.911299
0.938163
0.730821
0.772447
0.93509
0.99186
0.992157
0.916105
0.837442
0.819236
0.908022
0.934929
0.964566
0.995381
0.996865
0.996759
0.861836
0.845696
0.972902
0.831068
0.85752
0.966815
0.997569
0.997864
0.998158
0.835515
0.536506
0.521052
0.520982
0.521035
0.521341
0.521982
0.522418
0.52421
0.893543
0.997812
0.997813
0.997813
0.99294
0.900792
0.953645
0.955304
0.732411
0.742773
0.744765
0.744485
0.745751
0.854945
0.880987
0.800241
0.798677
0.798677
0.798677
0.953781
0.996623
0.996768
0.984538
0.898992
0.87358
0.812146
0.808601
0.808579
0.954114
0.995916
0.998187
0.99844
0.989318
0.618271
0.521035
0.52101
0.521035
0.521341
0.521982
0.619746
0.965974
0.997806
0.997812
0.990815
0.914842
0.899898
0.98001
0.992527
0.740283
0.742324
0.746362
0.942473
0.967842
0.968208
0.968194
0.968322
0.820906
0.798677
0.801729
0.919734
0.996193
0.996746
0.996748
0.961523
0.875672
0.874298
0.871064
0.74809
0.746263
0.951389
0.99777
0.998444
0.99844
0.980313
0.824842
0.69528
0.620734
0.639819
0.661795
0.879226
0.966251
0.965787
0.950548
0.90549
0.899729
0.899897
0.996589
0.998258
0.808766
0.742079
0.741656
0.741593
0.74168
0.741967
0.845527
0.9798
0.98079
0.971061
0.983955
0.98851
0.991373
0.996749
0.996737
0.954532
0.876635
0.872067
0.92546
0.883759
0.69432
0.898384
0.998444
0.998444