/*--------------------------------*- C++ -*----------------------------------*\
  =========                 |
  \\      /  F ield         | OpenFOAM: The Open Source CFD Toolbox
   \\    /   O peration     | Website:  https://openfoam.org
    \\  /    A nd           | Version:  8
     \\/     M anipulation  |
\*---------------------------------------------------------------------------*/
FoamFile
{
    version     2.0;
    format      ascii;
    class       surfaceScalarField;
    location    "8.25";
    object      phi;
}
// * * * * * * * * * * * * * * * * * * * * * * * * * * * * * * * * * * * * * //

dimensions      [0 3 -1 0 0 0 0];

internalField   nonuniform List<scalar> 
18095
(
1.99076e-08
-1.72032e-07
1.52124e-07
2.31947e-08
-1.97517e-07
1.9423e-07
2.0556e-08
-2.06208e-07
2.08847e-07
1.25479e-08
-2.11593e-07
2.19601e-07
1.17206e-09
-2.13373e-07
2.24748e-07
-1.07885e-08
-2.12918e-07
2.24878e-07
-1.99981e-08
-2.10456e-07
2.19666e-07
-2.31542e-08
-2.06113e-07
2.09269e-07
-1.98763e-08
-1.9767e-07
1.94392e-07
-1.7212e-07
1.52244e-07
1.55429e-08
-1.87575e-07
1.61552e-08
-1.98129e-07
1.17747e-08
-2.01827e-07
5.41635e-09
-2.05235e-07
-1.30962e-09
-2.06647e-07
-6.91851e-09
-2.07309e-07
-1.20349e-08
-2.0534e-07
-1.60361e-08
-2.02112e-07
-1.55093e-08
-1.98197e-07
-1.87629e-07
6.8096e-09
-1.94384e-07
8.42718e-09
-1.99747e-07
7.53378e-09
-2.00934e-07
4.82263e-09
-2.02524e-07
9.44929e-10
-2.02769e-07
-3.7609e-09
-2.02603e-07
-7.16681e-09
-2.01934e-07
-8.3636e-09
-2.00915e-07
-6.7968e-09
-1.99764e-07
-1.94426e-07
4.53647e-09
-1.98921e-07
4.71647e-09
-1.99927e-07
3.64243e-09
-1.9986e-07
1.53723e-09
-2.00419e-07
-3.82475e-10
-2.00849e-07
-2.1198e-09
-2.00865e-07
-3.72094e-09
-2.00333e-07
-4.71867e-09
-1.99918e-07
-4.50712e-09
-1.99975e-07
-1.98933e-07
1.07917e-09
1.15247e-09
1.29252e-09
8.73829e-10
2.46085e-11
-8.4088e-10
-1.17374e-09
-1.0913e-09
-1.06668e-09
-2.7933e-08
-1.9584e-07
2.23773e-07
-3.04732e-08
-1.98842e-07
2.01382e-07
-2.52398e-08
-2.00927e-07
1.95693e-07
-1.47024e-08
-2.01297e-07
1.90759e-07
-5.70376e-10
-2.02055e-07
1.87923e-07
1.38821e-08
-2.02152e-07
1.87699e-07
2.57174e-08
-2.0218e-07
1.90345e-07
3.10915e-08
-2.01411e-07
1.96037e-07
2.85773e-08
-1.9908e-07
2.01594e-07
-1.96217e-07
2.24795e-07
-9.50385e-09
-1.86336e-07
-1.50505e-08
-1.93295e-07
-1.21895e-08
-2.03788e-07
-4.99386e-09
-2.08493e-07
1.16138e-09
-2.0821e-07
7.11376e-09
-2.08104e-07
1.31734e-08
-2.0824e-07
1.52228e-08
-2.0346e-07
9.56932e-09
-1.93426e-07
-1.86648e-07
-9.91051e-09
-1.76426e-07
-8.15602e-09
-1.9505e-07
-7.45478e-09
-2.04489e-07
-5.93192e-09
-2.10015e-07
-9.56322e-10
-2.13186e-07
3.96554e-09
-2.13026e-07
6.24803e-09
-2.10522e-07
7.89212e-09
-2.05104e-07
9.96706e-09
-1.95501e-07
-1.76681e-07
-6.48228e-09
-1.69943e-07
-8.20868e-09
-1.93323e-07
-7.31441e-09
-2.05383e-07
-2.41742e-09
-2.14912e-07
8.84606e-10
-2.16488e-07
4.51452e-09
-2.16656e-07
8.72175e-09
-2.1473e-07
8.67316e-09
-2.05056e-07
6.57428e-09
-1.93402e-07
-1.70107e-07
-1.78192e-08
-1.69125e-08
-1.34492e-08
-8.76012e-09
-4.99617e-10
7.72276e-09
1.26592e-08
1.68729e-08
1.78628e-08
4.07689e-08
-1.54996e-07
1.14227e-07
4.63329e-08
-1.96229e-07
1.90665e-07
3.90644e-08
-2.08918e-07
2.16186e-07
2.48992e-08
-2.13961e-07
2.28126e-07
5.42095e-09
-2.15436e-07
2.34914e-07
-1.19549e-08
-2.17492e-07
2.34868e-07
-2.37876e-08
-2.1669e-07
2.28523e-07
-3.14244e-08
-2.13074e-07
2.2071e-07
-2.84818e-08
-2.01608e-07
1.98666e-07
-1.61597e-07
1.33115e-07
1.82516e-08
-1.73248e-07
2.1842e-08
-1.99819e-07
1.91927e-08
-2.06269e-07
1.37497e-08
-2.08518e-07
6.38346e-09
-2.0807e-07
-2.81363e-09
-2.08295e-07
-1.14655e-08
-2.08038e-07
-1.61828e-08
-2.08356e-07
-1.46146e-08
-2.03177e-07
-1.76211e-07
9.15567e-09
-1.82403e-07
1.01389e-08
-2.00802e-07
9.13581e-09
-2.05265e-07
4.09489e-09
-2.03477e-07
-3.5632e-11
-2.03939e-07
-3.20215e-09
-2.05129e-07
-6.37303e-09
-2.04867e-07
-7.66846e-09
-2.07061e-07
-8.14202e-09
-2.02703e-07
-1.84353e-07
8.19561e-09
-1.90599e-07
6.62677e-09
-1.99233e-07
7.7654e-09
-2.06404e-07
4.00915e-09
-1.99721e-07
2.79182e-09
-2.02722e-07
8.89823e-10
-2.03227e-07
-4.61229e-09
-1.99365e-07
-4.22581e-09
-2.07447e-07
-7.17101e-09
-1.99758e-07
-1.91524e-07
3.31741e-08
3.53228e-08
2.46119e-08
1.56508e-08
8.52254e-10
-1.46756e-08
-2.36957e-08
-3.51063e-08
-3.327e-08
-9.1187e-10
-3.39255e-09
4.30442e-09
6.1949e-09
-7.10827e-09
9.36828e-09
-3.17367e-09
1.11176e-08
-1.74959e-09
6.5662e-09
4.55115e-09
4.20657e-09
2.35945e-09
1.3617e-09
2.84475e-09
2.09771e-09
-7.36071e-10
6.77431e-09
-4.67659e-09
-3.50935e-09
1.02837e-08
2.00133e-08
4.1956e-09
-2.76021e-08
1.17244e-08
1.17943e-09
4.73719e-09
3.81316e-09
-1.94952e-10
3.18228e-09
2.84066e-10
4.07193e-09
1.96995e-09
6.73467e-10
2.28769e-09
2.52701e-09
2.01212e-09
-4.60391e-10
1.21895e-09
-3.88321e-09
1.68038e-09
-3.97046e-09
3.72955e-08
1.38769e-08
-4.69771e-08
2.97448e-08
8.72956e-09
2.34156e-08
1.01421e-08
1.60758e-08
1.05219e-08
1.24338e-08
7.71378e-09
1.13132e-08
1.79389e-09
1.05103e-08
3.32981e-09
5.29506e-09
4.75484e-09
-5.43725e-09
6.84915e-09
1.47236e-08
-1.84804e-08
4.22836e-08
2.18239e-08
-5.02309e-08
3.38264e-08
1.71868e-08
3.02138e-08
1.37547e-08
2.75082e-08
1.32275e-08
2.2785e-08
1.24369e-08
1.47318e-08
9.84698e-09
5.07698e-09
1.29846e-08
-5.54824e-09
1.53799e-08
-2.17482e-08
2.3049e-08
2.71771e-08
-3.42019e-08
4.458e-08
3.01927e-08
-5.29488e-08
3.36155e-08
2.81514e-08
2.7422e-08
1.99481e-08
2.51669e-08
1.54825e-08
2.28017e-08
1.48019e-08
1.44673e-08
1.81812e-08
4.51269e-09
2.2939e-08
-8.25742e-09
2.81498e-08
-2.59728e-08
4.07641e-08
4.48047e-08
-4.36007e-08
4.66868e-08
3.85036e-08
-5.49976e-08
3.9043e-08
3.57952e-08
3.22873e-08
2.67037e-08
2.72794e-08
2.04903e-08
2.23712e-08
1.97099e-08
1.73979e-08
2.31543e-08
1.08639e-08
2.94726e-08
1.92614e-09
3.70872e-08
-9.77828e-09
5.24682e-08
6.5005e-08
-2.99791e-08
3.96861e-08
4.4851e-08
-4.60334e-08
3.81242e-08
3.73568e-08
3.76495e-08
2.71782e-08
3.52802e-08
2.28593e-08
3.22965e-08
2.26933e-08
3.02052e-08
2.52453e-08
2.58104e-08
3.38671e-08
1.84805e-08
4.44168e-08
1.27744e-08
5.81739e-08
7.46672e-08
3.11182e-09
3.28013e-08
4.35021e-08
-3.14525e-08
3.91764e-08
3.09811e-08
4.31124e-08
2.3242e-08
4.37883e-08
2.21831e-08
4.2013e-08
2.44684e-08
3.70268e-08
3.02313e-08
3.14596e-08
3.94341e-08
2.68537e-08
4.90223e-08
2.6432e-08
5.85953e-08
7.19197e-08
2.91791e-08
3.05486e-08
3.06509e-08
-1.76976e-08
4.1308e-08
2.02211e-08
4.58133e-08
1.87365e-08
4.51768e-08
2.28195e-08
4.02907e-08
2.93543e-08
3.38408e-08
3.66811e-08
2.90594e-08
4.42153e-08
2.69451e-08
5.11365e-08
2.80764e-08
5.74638e-08
6.60867e-08
3.39093e-08
2.90503e-08
1.74437e-08
-1.58434e-08
3.43134e-08
1.49578e-08
3.32073e-08
1.98425e-08
2.83539e-08
2.76728e-08
2.12196e-08
3.64886e-08
1.54396e-08
4.24609e-08
1.22658e-08
4.7389e-08
9.43114e-09
5.3971e-08
8.03397e-09
5.88608e-08
5.85339e-08
1.55867e-08
1.78845e-08
1.51373e-08
-1.55782e-08
1.68767e-08
1.59656e-08
1.27177e-08
2.40015e-08
1.06833e-08
2.97071e-08
1.01188e-08
3.70529e-08
3.93544e-09
4.86442e-08
-5.81531e-09
5.71396e-08
-1.24074e-08
6.05629e-08
-1.47234e-08
6.11768e-08
4.31186e-08
6.91762e-10
1.4533e-08
2.17041e-08
-2.10997e-08
1.21333e-08
1.83654e-08
1.11355e-08
2.49992e-08
1.25744e-08
2.82682e-08
1.2678e-08
3.69491e-08
1.09541e-08
5.0368e-08
6.09344e-09
6.20001e-08
2.30322e-09
6.4353e-08
1.08105e-08
5.26693e-08
1.82907e-08
3.56383e-08
1.06263e-08
2.58644e-08
-1.47866e-08
8.51161e-09
2.048e-08
7.61541e-09
2.58953e-08
6.17817e-09
2.97053e-08
5.40505e-09
3.77221e-08
1.02098e-08
4.55632e-08
2.4257e-08
4.79527e-08
5.70501e-08
3.15597e-08
9.17354e-08
1.79839e-08
-5.61348e-09
1.15639e-07
1.39181e-10
2.37566e-08
1.96853e-09
-3.30779e-09
2.39268e-08
-7.93117e-09
3.05186e-08
-8.63283e-09
3.04069e-08
-2.05541e-09
3.11446e-08
2.28903e-08
2.06174e-08
5.51442e-08
1.56987e-08
8.80976e-08
-1.39382e-09
9.34216e-08
1.26598e-08
2.16606e-08
6.61474e-08
-2.32045e-08
2.00462e-08
2.69148e-08
-2.33546e-08
2.40771e-08
-1.27675e-08
1.99317e-08
1.05473e-08
7.09209e-09
3.18714e-08
9.82066e-09
5.09401e-08
1.54875e-09
5.07235e-08
1.59154e-08
2.35752e-08
2.57546e-08
-2.18609e-08
5.80959e-08
6.13133e-08
-6.15136e-08
-4.49297e-08
1.03993e-08
5.45767e-08
-2.24642e-08
1.61243e-09
1.76189e-09
-4.29408e-09
1.78155e-08
-8.96114e-09
2.15652e-08
6.07129e-09
-1.44476e-08
3.75617e-08
-7.26815e-08
7.41496e-08
-1.27033e-07
8.01062e-08
-1.40048e-07
7.11114e-08
6.77693e-08
-1.46504e-07
-5.62161e-08
-8.37139e-09
7.49871e-08
-3.6192e-08
-1.84103e-08
-2.31369e-08
-1.73486e-08
-3.71918e-08
5.09417e-09
-8.43119e-08
5.31918e-08
-1.48747e-07
1.01997e-07
-1.89623e-07
1.15026e-07
-1.89999e-07
8.04816e-08
-1.8337e-07
6.44832e-08
6.38071e-08
-1.79408e-07
-8.76512e-08
-2.12822e-08
1.00562e-07
-7.9712e-08
-2.63482e-08
-8.63424e-08
-1.07177e-08
-1.22026e-07
4.07781e-08
-1.67324e-07
9.84901e-08
-1.86772e-07
1.21445e-07
-1.89586e-07
1.17841e-07
-1.83539e-07
7.44349e-08
-1.82065e-07
6.30092e-08
6.27599e-08
-1.81017e-07
-9.5694e-08
-2.38669e-08
9.82793e-08
-9.94786e-08
-2.25629e-08
-1.13536e-07
3.33948e-09
-1.4212e-07
6.93628e-08
-1.62239e-07
1.18609e-07
-1.68772e-07
1.27978e-07
-1.65729e-07
1.14798e-07
-1.65566e-07
7.42721e-08
-1.67814e-07
6.52575e-08
6.47697e-08
-1.69823e-07
-8.06645e-08
-8.67428e-09
6.54721e-08
-9.46314e-08
-8.59606e-09
-1.01042e-07
9.75024e-09
-1.02296e-07
7.0616e-08
-1.11883e-07
1.28197e-07
-1.1914e-07
1.35235e-07
-1.25487e-07
1.21145e-07
-1.32317e-07
8.11019e-08
-1.35677e-07
6.86176e-08
6.78432e-08
-1.3875e-07
-4.8903e-08
6.75518e-09
3.34735e-08
-6.90816e-08
1.15816e-08
-7.93439e-08
2.00122e-08
-6.74094e-08
5.86813e-08
-5.94498e-08
1.20237e-07
-6.47363e-08
1.40521e-07
-7.77812e-08
1.3419e-07
-1.00567e-07
1.03887e-07
-1.1043e-07
7.84815e-08
7.41818e-08
-1.16769e-07
-1.42548e-08
2.98821e-08
-8.87248e-09
-3.30147e-08
3.03404e-08
-4.88513e-08
3.58485e-08
-4.48582e-08
5.46878e-08
-2.4187e-08
9.95655e-08
-2.24541e-08
1.38788e-07
-3.26809e-08
1.44417e-07
-6.02418e-08
1.31448e-07
-8.66015e-08
1.04841e-07
8.82216e-08
-1.00641e-07
6.83736e-09
5.76868e-08
-3.46425e-08
-2.73612e-08
6.45382e-08
-4.56677e-08
5.41547e-08
-4.95656e-08
5.85855e-08
-3.29181e-08
8.29178e-08
-1.75708e-08
1.2344e-07
-1.51147e-08
1.41961e-07
-2.17204e-08
1.38054e-07
-3.82592e-08
1.2138e-07
1.03483e-07
-5.35201e-08
1.31875e-08
7.95275e-08
-3.50285e-08
-1.7211e-08
9.49365e-08
-4.21946e-08
7.91383e-08
-5.68669e-08
7.32578e-08
-5.6627e-08
8.26779e-08
-4.20484e-08
1.08862e-07
-3.14057e-08
1.31318e-07
-2.87214e-08
1.35369e-07
-2.99433e-08
1.22602e-07
1.05838e-07
-3.2299e-08
-3.15852e-08
9.7087e-08
1.40256e-08
-4.61136e-08
1.09465e-07
-6.09452e-08
9.397e-08
-7.45778e-08
8.68905e-08
-8.21116e-08
9.02118e-08
-7.66881e-08
1.03439e-07
-6.50952e-08
1.19725e-07
-5.53635e-08
1.25638e-07
-4.40179e-08
1.11256e-07
9.57261e-08
-3.39061e-08
-4.46508e-08
1.05077e-07
3.66606e-08
-5.18832e-08
1.16698e-07
-6.62818e-08
1.08369e-07
-7.71899e-08
9.77989e-08
-8.35422e-08
9.65643e-08
-7.91321e-08
9.90286e-08
-6.35443e-08
1.04137e-07
-4.29375e-08
1.05031e-07
-3.0944e-08
9.92623e-08
8.52882e-08
-2.05063e-08
-4.95574e-08
1.03527e-07
5.11073e-08
-4.90922e-08
1.16234e-07
-5.88996e-08
1.18177e-07
-6.72123e-08
1.06112e-07
-7.21308e-08
1.01483e-07
-7.06676e-08
9.75655e-08
-6.25245e-08
9.59942e-08
-4.93139e-08
9.18201e-08
-3.35536e-08
8.35019e-08
6.7583e-08
-1.58485e-08
-4.56481e-08
1.0066e-07
4.85159e-08
-3.77525e-08
1.08339e-07
-3.66119e-08
1.17037e-07
-3.75698e-08
1.0707e-07
-4.16391e-08
1.05552e-07
-4.57667e-08
1.01693e-07
-4.45746e-08
9.48021e-08
-3.85759e-08
8.58214e-08
-2.9964e-08
7.489e-08
5.69307e-08
-1.93118e-08
-2.72214e-08
1.10772e-07
1.71098e-08
-2.03226e-08
1.01442e-07
-1.26011e-08
1.09315e-07
-1.11712e-08
1.0564e-07
-1.09507e-08
1.05332e-07
-8.92627e-09
9.96688e-08
-8.1644e-09
9.40403e-08
-8.12902e-09
8.57861e-08
-8.1607e-09
7.49218e-08
5.59228e-08
-7.15256e-09
7.26593e-08
1.50188e-07
-1.12075e-07
4.51354e-08
1.28967e-07
3.41471e-08
1.20304e-07
2.51072e-08
1.14681e-07
2.15503e-08
1.08889e-07
2.0458e-08
1.00761e-07
2.15155e-08
9.29831e-08
2.2392e-08
8.49099e-08
2.1651e-08
7.56632e-08
6.2096e-08
1.54783e-08
1.73356e-07
1.47815e-07
-1.70983e-07
1.54388e-07
1.47936e-07
1.20862e-07
1.5383e-07
9.17032e-08
1.4384e-07
6.82186e-08
1.32374e-07
5.2127e-08
1.16853e-07
4.33295e-08
1.01781e-07
3.91226e-08
8.91171e-08
3.59882e-08
7.8798e-08
6.70559e-08
3.10287e-08
1.62457e-07
1.22874e-07
-1.37515e-07
1.83952e-07
1.2644e-07
1.8938e-07
1.48402e-07
1.7722e-07
1.56e-07
1.48869e-07
1.60725e-07
1.13689e-07
1.52033e-07
8.16735e-08
1.33797e-07
5.90624e-08
1.11729e-07
4.83011e-08
8.95596e-08
7.3665e-08
4.16924e-08
1.41729e-07
1.00015e-07
-1.1887e-07
1.664e-07
1.01768e-07
1.96994e-07
1.17809e-07
2.08513e-07
1.44481e-07
2.02913e-07
1.66325e-07
1.78634e-07
1.76312e-07
1.40721e-07
1.7171e-07
9.8086e-08
1.54364e-07
6.57391e-08
1.21907e-07
8.96233e-08
4.97812e-08
1.21175e-07
1.19064e-07
-1.40225e-07
1.24922e-07
9.80198e-08
1.49424e-07
9.33061e-08
1.7915e-07
1.14754e-07
1.95504e-07
1.49972e-07
1.9172e-07
1.80096e-07
1.74167e-07
1.89263e-07
1.40829e-07
1.87703e-07
9.40883e-08
1.68648e-07
1.26271e-07
5.7441e-08
1.19039e-07
1.46568e-07
-1.46544e-07
1.06847e-07
1.10212e-07
1.1205e-07
8.81023e-08
1.42064e-07
8.474e-08
1.70608e-07
1.21429e-07
1.78541e-07
1.72163e-07
1.73037e-07
1.94767e-07
1.62624e-07
1.98117e-07
1.37073e-07
1.942e-07
1.70163e-07
9.31814e-08
9.90863e-08
1.42809e-07
-9.53271e-08
1.10716e-07
9.85828e-08
1.12633e-07
8.61855e-08
1.20129e-07
7.72436e-08
1.42204e-07
9.93539e-08
1.55129e-07
1.59238e-07
1.59575e-07
1.90321e-07
1.59461e-07
1.98232e-07
1.57823e-07
1.95837e-07
1.85592e-07
1.42394e-07
5.23696e-08
1.29095e-07
-3.86549e-08
6.2533e-08
8.84197e-08
6.7954e-08
8.07648e-08
7.61505e-08
6.90472e-08
9.31096e-08
8.23952e-08
1.1498e-07
1.37368e-07
1.30596e-07
1.74706e-07
1.41895e-07
1.86934e-07
1.48151e-07
1.89581e-07
1.8361e-07
1.50133e-07
3.31126e-08
1.24172e-07
-2.81901e-08
2.62132e-08
9.53195e-08
2.62192e-08
8.07591e-08
2.64293e-08
6.88375e-08
3.56156e-08
7.32091e-08
5.99238e-08
1.1306e-07
7.57551e-08
1.58875e-07
9.3876e-08
1.68812e-07
1.19514e-07
1.63943e-07
1.67025e-07
1.36099e-07
4.33444e-08
1.16508e-07
-3.56799e-08
3.4097e-08
1.04568e-07
2.24428e-08
9.24136e-08
1.32249e-08
7.80556e-08
1.0641e-08
7.5793e-08
1.9329e-08
1.04372e-07
3.23447e-08
1.45859e-07
4.78563e-08
1.533e-07
7.47063e-08
1.37092e-07
1.331e-07
1.0863e-07
3.63182e-08
1.03381e-07
-2.31911e-08
3.42944e-08
1.06592e-07
2.72945e-08
9.94135e-08
1.80883e-08
8.72617e-08
1.09637e-08
8.29174e-08
8.79272e-09
1.06542e-07
1.90628e-08
1.35588e-07
3.41837e-08
1.38179e-07
5.14805e-08
1.19795e-07
1.07607e-07
7.69741e-08
4.98392e-09
8.73993e-08
1.09982e-08
1.22068e-08
9.93696e-08
1.52856e-08
9.63343e-08
7.18704e-09
9.53598e-08
-5.94204e-09
9.60461e-08
-1.12108e-08
1.11811e-07
-1.10034e-09
1.25477e-07
1.55499e-08
1.21528e-07
3.10856e-08
1.04259e-07
9.30319e-08
4.56604e-08
-9.96407e-08
5.81386e-08
1.28902e-07
-7.1831e-08
7.15591e-08
-5.53883e-08
7.98914e-08
-5.28462e-08
9.28175e-08
-5.87809e-08
1.0198e-07
-5.67573e-08
1.09787e-07
-4.70871e-08
1.15807e-07
-3.74698e-08
1.11911e-07
-3.51086e-08
1.01898e-07
9.41159e-08
-3.61923e-08
-2.35457e-07
4.50325e-08
2.48562e-07
-2.19721e-07
5.58228e-08
-2.08409e-07
6.85797e-08
-2.03435e-07
8.78441e-08
-2.0398e-07
1.02526e-07
-2.05406e-07
1.11213e-07
-2.06557e-07
1.16959e-07
-2.12879e-07
1.18233e-07
-2.2238e-07
1.114e-07
1.08444e-07
-2.36708e-07
-2.9647e-07
4.16892e-08
2.99813e-07
-2.95173e-07
5.45276e-08
-2.97352e-07
7.07588e-08
-3.02442e-07
9.29344e-08
-3.10123e-07
1.10208e-07
-3.21044e-07
1.22134e-07
-3.33353e-07
1.29268e-07
-3.43558e-07
1.28439e-07
-3.48306e-07
1.16149e-07
1.02747e-07
-3.42609e-07
-3.04781e-07
4.24751e-08
3.03995e-07
-3.06683e-07
5.64316e-08
-3.0839e-07
7.24661e-08
-3.08275e-07
9.28208e-08
-3.13468e-07
1.154e-07
-3.27025e-07
1.35692e-07
-3.43848e-07
1.46091e-07
-3.6149e-07
1.46081e-07
-3.78992e-07
1.33651e-07
1.15219e-07
-3.91464e-07
-2.87935e-07
4.44838e-08
2.85927e-07
-2.87079e-07
5.55767e-08
-2.84773e-07
7.01604e-08
-2.82304e-07
9.03527e-08
-2.82115e-07
1.15211e-07
-2.84757e-07
1.38335e-07
-2.93676e-07
1.55011e-07
-3.08942e-07
1.61347e-07
-3.33731e-07
1.58439e-07
1.45462e-07
-3.63974e-07
-1.98537e-07
3.92519e-08
2.03769e-07
-2.00429e-07
5.74684e-08
-2.07962e-07
7.76939e-08
-2.1537e-07
9.77608e-08
-2.17195e-07
1.17036e-07
-2.14106e-07
1.35247e-07
-2.10488e-07
1.51393e-07
-2.09009e-07
1.59868e-07
-2.11512e-07
1.60943e-07
1.57293e-07
-2.23343e-07
-1.06438e-07
3.99582e-08
1.05731e-07
-1.25054e-07
7.6085e-08
-1.49848e-07
1.02489e-07
-1.68e-07
1.15913e-07
-1.71164e-07
1.202e-07
-1.61279e-07
1.25361e-07
-1.43329e-07
1.33443e-07
-1.27166e-07
1.43705e-07
-1.14693e-07
1.48469e-07
1.44693e-07
-1.02094e-07
-1.22834e-07
2.91052e-08
1.33687e-07
-1.30263e-07
8.35136e-08
-1.36755e-07
1.08982e-07
-1.47334e-07
1.26492e-07
-1.53142e-07
1.26008e-07
-1.41353e-07
1.13572e-07
-1.1787e-07
1.09959e-07
-9.26253e-08
1.1846e-07
-7.32239e-08
1.29067e-07
1.20802e-07
-4.93333e-08
-9.17071e-08
4.04621e-08
8.03503e-08
-7.91827e-08
7.09895e-08
-5.79772e-08
8.77763e-08
-5.2479e-08
1.20994e-07
-5.97204e-08
1.33249e-07
-6.18371e-08
1.15689e-07
-3.78863e-08
8.60085e-08
-1.44695e-08
9.50433e-08
-1.07415e-08
1.25339e-07
8.11255e-08
2.89349e-08
1.61454e-07
5.31147e-08
-1.74106e-07
1.60818e-07
7.16258e-08
1.4433e-07
1.04265e-07
1.51302e-07
1.14023e-07
1.70196e-07
1.14355e-07
1.66427e-07
1.19458e-07
1.43816e-07
1.08619e-07
1.42923e-07
9.59367e-08
2.13306e-07
5.49559e-08
1.67775e-08
2.77654e-07
3.36961e-07
2.20149e-09
-2.86048e-07
3.73872e-07
3.47171e-08
4.00913e-07
7.72245e-08
4.15726e-07
9.92103e-08
4.0783e-07
1.22251e-07
4.01919e-07
1.25368e-07
3.94378e-07
1.1616e-07
3.86921e-07
1.03393e-07
3.68619e-07
7.32585e-08
2.42535e-08
3.61144e-07
3.31619e-07
-1.03833e-08
-3.19034e-07
3.68317e-07
-1.98019e-09
4.26885e-07
1.86569e-08
4.89036e-07
3.70586e-08
5.47378e-07
6.39085e-08
5.93035e-07
7.97124e-08
6.11382e-07
9.7813e-08
6.10922e-07
1.03854e-07
5.92176e-07
9.20035e-08
5.51256e-08
5.61304e-07
4.25065e-07
-1.2219e-10
-4.35326e-07
4.24918e-07
-1.83331e-09
4.4611e-07
-2.53546e-09
4.83764e-07
-5.94942e-10
5.36346e-07
1.1326e-08
5.89932e-07
2.61261e-08
6.4537e-07
4.23757e-08
6.94313e-07
5.49119e-08
7.12988e-07
7.33281e-08
7.37057e-08
6.94408e-07
5.20158e-07
-1.31513e-08
-5.0713e-07
5.23183e-07
-4.85956e-09
5.23136e-07
-2.48853e-09
5.23404e-07
-8.63111e-10
5.33441e-07
1.28939e-09
5.56329e-07
3.23764e-09
5.90937e-07
7.76783e-09
6.25785e-07
2.00643e-08
6.57838e-07
4.12756e-08
6.47018e-08
6.66842e-07
4.66765e-07
-3.40601e-08
-4.45857e-07
4.92144e-07
-3.02374e-08
5.1791e-07
-2.82547e-08
5.4129e-07
-2.42434e-08
5.63932e-07
-2.13522e-08
5.82784e-07
-1.56143e-08
5.98014e-07
-7.46298e-09
6.12791e-07
5.28802e-09
6.25392e-07
2.86744e-08
6.02667e-08
6.29826e-07
3.64208e-07
-6.57629e-08
-3.32506e-07
3.99742e-07
-6.5769e-08
4.328e-07
-6.13125e-08
4.717e-07
-6.31426e-08
5.10509e-07
-6.01605e-08
5.41013e-07
-4.61182e-08
5.61388e-07
-2.7839e-08
5.75437e-07
-8.7616e-09
5.89046e-07
1.50654e-08
4.4641e-08
6.04671e-07
2.77601e-07
-1.17496e-07
-2.25868e-07
3.36197e-07
-1.24366e-07
3.85656e-07
-1.10772e-07
4.26466e-07
-1.03953e-07
4.70728e-07
-1.04422e-07
5.16497e-07
-9.18876e-08
5.55496e-07
-6.6837e-08
5.86844e-07
-4.01097e-08
6.10251e-07
-8.34226e-09
1.14408e-08
6.43451e-07
2.55298e-07
-1.67792e-07
-2.05e-07
2.89505e-07
-1.58571e-07
3.28261e-07
-1.49529e-07
3.76699e-07
-1.52391e-07
4.21664e-07
-1.49388e-07
4.54978e-07
-1.25202e-07
4.93785e-07
-1.05644e-07
5.35044e-07
-8.13683e-08
5.78924e-07
-5.22225e-08
-5.03148e-08
6.40679e-07
1.76901e-07
-1.80211e-07
-1.64482e-07
2.10458e-07
-1.92125e-07
2.4923e-07
-1.88301e-07
2.85267e-07
-1.88428e-07
3.17988e-07
-1.82108e-07
3.70397e-07
-1.77611e-07
4.30961e-07
-1.66207e-07
4.8988e-07
-1.40287e-07
5.48363e-07
-1.10704e-07
-1.1335e-07
6.11397e-07
1.11258e-07
-2.0987e-07
-8.15993e-08
1.38845e-07
-2.19713e-07
1.74405e-07
-2.23861e-07
2.1468e-07
-2.28703e-07
2.72481e-07
-2.39908e-07
3.33678e-07
-2.38808e-07
3.97778e-07
-2.3031e-07
4.65881e-07
-2.08391e-07
5.46365e-07
-1.91188e-07
-1.85606e-07
6.1862e-07
-7.78177e-08
-2.30782e-07
9.87296e-08
-4.70255e-08
-2.50505e-07
-2.60234e-10
-2.70625e-07
4.77217e-08
-2.76684e-07
1.06598e-07
-2.98784e-07
1.93345e-07
-3.25555e-07
2.71645e-07
-3.08611e-07
3.6073e-07
-2.97477e-07
4.57894e-07
-2.88353e-07
-2.87569e-07
5.59857e-07
-1.51035e-07
-2.55073e-07
1.75327e-07
-1.10824e-07
-2.90716e-07
-5.85646e-08
-3.22885e-07
4.9332e-09
-3.40182e-07
8.44313e-08
-3.78283e-07
1.48819e-07
-3.89943e-07
2.26904e-07
-3.86695e-07
3.12921e-07
-3.83495e-07
4.05775e-07
-3.81208e-07
-3.6389e-07
4.82097e-07
-9.04836e-08
-3.04329e-07
1.3974e-07
-2.90617e-08
-3.52139e-07
3.94149e-08
-3.91361e-07
1.16743e-07
-4.17511e-07
1.67789e-07
-4.29329e-07
2.22963e-07
-4.45117e-07
2.86865e-07
-4.50597e-07
3.46511e-07
-4.4314e-07
4.00253e-07
-4.34951e-07
-4.20063e-07
4.56426e-07
8.84784e-08
-3.55681e-07
-3.71266e-08
1.46514e-07
-4.10175e-07
2.01967e-07
-4.46814e-07
2.51373e-07
-4.66917e-07
2.9721e-07
-4.75166e-07
3.30998e-07
-4.78905e-07
3.5391e-07
-4.7351e-07
3.70594e-07
-4.59823e-07
3.86803e-07
-4.51161e-07
-4.19871e-07
3.86611e-07
3.48985e-07
-3.95481e-07
-3.09185e-07
3.79018e-07
-4.40202e-07
4.1098e-07
-4.78776e-07
4.3148e-07
-4.87417e-07
4.39475e-07
-4.8316e-07
4.37119e-07
-4.76548e-07
4.27645e-07
-4.64037e-07
3.99172e-07
-4.31349e-07
3.58171e-07
-4.1016e-07
-3.40662e-07
2.78963e-07
5.57732e-07
-4.28009e-07
-5.25203e-07
5.72576e-07
-4.55043e-07
5.68002e-07
-4.74202e-07
5.57677e-07
-4.77092e-07
5.46923e-07
-4.72406e-07
5.27321e-07
-4.56947e-07
4.96358e-07
-4.33074e-07
4.24136e-07
-3.59128e-07
3.07606e-07
-2.93631e-07
-2.47809e-07
2.14752e-07
6.473e-07
-4.52336e-07
-6.22972e-07
6.51798e-07
-4.59539e-07
6.42268e-07
-4.64673e-07
6.26506e-07
-4.6133e-07
6.00501e-07
-4.464e-07
5.61075e-07
-4.17521e-07
5.04933e-07
-3.76932e-07
4.02806e-07
-2.57001e-07
2.90123e-07
-1.80947e-07
-1.81734e-07
2.24048e-07
6.7568e-07
-4.70968e-07
-6.57048e-07
6.79376e-07
-4.63238e-07
6.67815e-07
-4.53111e-07
6.4475e-07
-4.38265e-07
5.99539e-07
-4.0119e-07
5.23914e-07
-3.41896e-07
4.07076e-07
-2.60094e-07
2.6883e-07
-1.18753e-07
1.72367e-07
-8.44825e-08
-6.57758e-08
5.64068e-08
6.74275e-07
-4.77222e-07
-6.68021e-07
6.66938e-07
-4.55901e-07
6.33039e-07
-4.19213e-07
5.74785e-07
-3.80011e-07
4.68209e-07
-2.94615e-07
3.02078e-07
-1.75766e-07
8.51446e-08
-4.31611e-08
-5.47649e-08
2.11559e-08
-1.08807e-07
-3.04398e-08
-2.01453e-08
-1.54439e-07
5.66354e-07
-4.6652e-07
-5.77057e-07
5.25114e-07
-4.1466e-07
4.41823e-07
-3.35922e-07
2.92806e-07
-2.30996e-07
9.41341e-08
-9.59408e-08
-8.23827e-08
7.5142e-10
-1.86819e-07
6.1277e-08
-2.14553e-07
4.88915e-08
-2.52558e-07
7.56429e-09
-1.46672e-08
-2.58031e-07
2.82826e-07
-4.01344e-07
-3.48003e-07
1.62865e-07
-2.94702e-07
1.08934e-08
-1.8395e-07
-1.41725e-07
-7.83775e-08
-2.63167e-07
2.54998e-08
-3.37857e-07
7.54402e-08
-3.64191e-07
8.76098e-08
-3.6801e-07
5.27109e-08
-3.66304e-07
5.85154e-09
-3.05479e-08
-3.50422e-07
-1.15457e-07
-2.89465e-07
3.57874e-09
-2.42003e-07
-1.68159e-07
-3.46968e-07
-7.89843e-08
-4.51654e-07
2.63095e-08
-5.15772e-07
8.96158e-08
-5.49365e-07
1.09037e-07
-5.5275e-07
9.09935e-08
-5.44569e-07
4.45288e-08
-5.4076e-07
2.04403e-09
-3.39532e-08
-5.37356e-07
-3.65814e-07
-1.96413e-07
2.72761e-07
-4.56949e-07
-7.7024e-08
-5.41511e-07
5.57492e-09
-6.01467e-07
8.62686e-08
-6.25959e-07
1.14103e-07
-6.27727e-07
1.10806e-07
-6.16388e-07
7.96546e-08
-6.09426e-07
3.75631e-08
-6.17913e-07
1.05351e-08
-1.49421e-08
-6.36925e-07
-6.06814e-07
-1.23569e-07
5.33968e-07
-6.65848e-07
-1.79876e-08
-7.12289e-07
5.20153e-08
-7.07584e-07
8.15647e-08
-6.87462e-07
9.39828e-08
-6.67632e-07
9.09738e-08
-6.53182e-07
6.52035e-08
-6.4325e-07
2.76295e-08
-6.42078e-07
9.36356e-09
-1.27642e-09
-6.55743e-07
-7.44054e-07
-1.00495e-07
7.2098e-07
-7.66178e-07
4.13485e-09
-7.66061e-07
5.18982e-08
-7.54214e-07
6.97157e-08
-7.35456e-07
7.52284e-08
-7.12859e-07
6.83739e-08
-6.86785e-07
3.91309e-08
-6.62685e-07
3.53078e-09
-6.49479e-07
-3.84401e-09
-1.96318e-09
-6.48792e-07
-7.90429e-07
-6.88917e-08
7.58831e-07
-7.76501e-07
-9.79503e-09
-7.58309e-07
3.37079e-08
-7.46488e-07
5.78914e-08
-7.33942e-07
6.26826e-08
-7.12529e-07
4.69599e-08
-6.73607e-07
2.09964e-10
-6.49878e-07
-2.01963e-08
-6.32731e-07
-2.09916e-08
-1.27168e-08
-6.21978e-07
-6.96655e-07
-9.95706e-08
7.27337e-07
-6.91822e-07
-1.46278e-08
-6.97465e-07
3.93538e-08
-6.93067e-07
5.3494e-08
-6.8213e-07
5.17458e-08
-6.62656e-07
2.74863e-08
-6.40536e-07
-2.19115e-08
-6.25013e-07
-3.57189e-08
-6.09861e-07
-3.61427e-08
-2.49748e-08
-5.97604e-07
-5.24512e-07
-1.42925e-07
5.67866e-07
-5.30269e-07
-8.87634e-09
-5.41506e-07
5.05909e-08
-5.56078e-07
6.8066e-08
-5.6011e-07
5.57786e-08
-5.5331e-07
2.06885e-08
-5.55925e-07
-1.92969e-08
-5.59253e-07
-3.23904e-08
-5.61556e-07
-3.3837e-08
-2.42248e-08
-5.62306e-07
-3.89105e-07
-2.55319e-07
5.01498e-07
-2.85177e-07
-1.12803e-07
-2.49903e-07
1.53146e-08
-2.81892e-07
1.00056e-07
-3.30434e-07
1.04319e-07
-3.86916e-07
7.71711e-08
-4.38504e-07
3.22915e-08
-4.61456e-07
-9.43973e-09
-4.78773e-07
-1.65206e-08
-4.77976e-09
-4.98218e-07
-4.27412e-07
-3.92826e-07
5.6492e-07
-2.35007e-07
-3.05208e-07
-8.51717e-08
-1.34518e-07
-2.39042e-08
3.87913e-08
-9.9976e-09
9.04111e-08
-1.07139e-07
1.74313e-07
-2.39179e-07
1.64333e-07
-3.31124e-07
8.25041e-08
-3.9467e-07
4.70232e-08
2.40104e-08
-4.23459e-07
-5.42319e-07
-4.27044e-07
5.76536e-07
-4.25223e-07
-4.22306e-07
-2.30814e-07
-3.28927e-07
-6.6434e-08
-1.25588e-07
1.79004e-09
2.21869e-08
7.221e-08
1.03894e-07
1.03896e-07
1.32648e-07
-3.64428e-09
1.90045e-07
-1.56545e-07
1.99924e-07
1.29588e-07
-2.62123e-07
-6.06048e-07
-4.04101e-07
5.83105e-07
-5.68766e-07
-4.59584e-07
-4.24449e-07
-4.73245e-07
-1.83687e-07
-3.66349e-07
-2.01083e-08
-1.41391e-07
8.61358e-08
-2.35214e-09
1.27861e-07
9.09208e-08
1.7791e-07
1.39996e-07
1.98126e-07
1.79708e-07
2.08075e-07
1.19639e-07
-6.33733e-07
-2.81354e-07
5.10987e-07
-6.55809e-07
-4.37505e-07
-6.04665e-07
-5.24387e-07
-4.29792e-07
-5.41222e-07
-1.61789e-07
-4.09393e-07
1.98165e-08
-1.83957e-07
1.0059e-07
1.01478e-08
1.85023e-07
5.55632e-08
2.55773e-07
1.08957e-07
1.50575e-07
3.13271e-07
-3.67043e-07
-1.04226e-07
1.89916e-07
-5.65534e-07
-2.39019e-07
-5.51758e-07
-5.38163e-07
-4.61454e-07
-6.31526e-07
-2.78299e-07
-5.92549e-07
-4.33633e-08
-4.18894e-07
9.71104e-08
-1.30326e-07
1.11899e-07
4.07755e-08
1.69485e-07
5.13739e-08
9.0326e-08
2.29734e-07
1.04461e-07
-7.18406e-08
-1.36846e-07
-7.9618e-08
-5.49379e-08
-3.07856e-07
-3.09925e-07
-2.74967e-07
-6.64415e-07
-2.20244e-07
-6.47272e-07
-4.98027e-08
-5.89335e-07
1.12044e-07
-2.92173e-07
9.79489e-08
5.48693e-08
7.8576e-08
7.07462e-08
6.31213e-08
1.0578e-07
2.0309e-07
-1.03366e-07
-1.71565e-07
1.69319e-07
-2.1169e-08
-1.03311e-07
-3.72963e-08
-1.0935e-07
-6.58378e-07
-1.00154e-07
-6.56468e-07
-5.92786e-08
-6.30211e-07
5.38501e-08
-4.05301e-07
4.17322e-08
6.69898e-08
2.3359e-08
8.91195e-08
7.00002e-08
1.64797e-08
1.71054e-07
-1.45288e-08
-2.59892e-07
1.04293e-07
4.55927e-08
-8.81648e-08
1.55161e-07
-8.51857e-08
-6.61356e-07
-8.74197e-08
-6.54234e-07
-7.82879e-08
-6.39343e-07
-3.50818e-08
-4.48506e-07
-8.37882e-08
1.15698e-07
-5.73234e-08
6.26547e-08
4.63717e-08
-3.36949e-08
-1.54891e-07
9.89577e-08
4.14048e-08
-1.37185e-07
2.78865e-08
-5.24781e-08
7.0452e-08
-7.37066e-08
-6.40129e-07
-9.01128e-08
-6.37828e-07
-9.45786e-08
-6.34879e-07
-1.5767e-08
-5.27317e-07
-3.23011e-08
1.32233e-07
1.42762e-08
1.6078e-08
1.90753e-09
5.8741e-08
-1.82277e-07
7.31525e-08
2.08084e-07
-1.70102e-07
1.57131e-08
-7.54449e-08
-2.42051e-08
-8.65818e-08
-6.28992e-07
-9.12044e-08
-6.33206e-07
-9.4824e-08
-6.31258e-07
-2.73587e-08
-5.94782e-07
6.06247e-08
4.42491e-08
5.24548e-08
2.42457e-08
3.52462e-08
1.91172e-08
2.99638e-07
1.88277e-07
-4.14764e-07
1.6454e-08
2.9893e-07
-8.83789e-09
1.07849e-09
-3.51531e-08
-6.02689e-07
-6.42331e-08
-6.04126e-07
-8.85651e-08
-6.06925e-07
-5.44347e-08
-6.28911e-07
3.71392e-07
-3.81579e-07
3.44519e-07
5.11171e-08
2.50399e-08
3.54732e-07
-1.72217e-07
2.12329e-07
1.48167e-07
-1.49153e-07
2.75901e-07
3.211e-08
-1.80134e-07
-1.59236e-08
-5.54628e-07
-6.01913e-08
-5.59859e-07
-1.1783e-07
-5.49285e-07
-1.71314e-07
-5.75426e-07
-3.12442e-08
-5.21641e-07
-1.54295e-08
3.53141e-08
6.58829e-08
-5.62529e-08
-1.25915e-07
1.49889e-07
1.88351e-07
-1.30173e-07
2.80062e-07
6.96438e-08
-3.80006e-07
2.67862e-08
-5.11772e-07
-5.15459e-09
-5.27919e-07
-2.70074e-08
-5.27432e-07
-6.82179e-08
-5.34215e-07
-6.33211e-08
-5.26532e-07
2.44998e-08
-5.25089e-08
8.5745e-08
4.65558e-09
-2.28057e-07
2.27876e-07
1.50092e-07
-7.8886e-08
1.30961e-07
6.80945e-08
-5.26992e-07
4.32948e-08
-4.86972e-07
3.10406e-09
-4.87727e-07
-3.60969e-08
-4.88231e-07
-7.98529e-08
-4.90459e-07
-1.23637e-07
-4.82745e-07
-4.20977e-09
-1.71934e-07
1.46772e-07
-6.523e-08
7.2122e-09
1.86667e-07
3.39755e-08
1.65337e-07
-2.7167e-08
8.0002e-08
-4.41652e-07
4.06093e-08
-4.47579e-07
9.64217e-09
-4.5676e-07
-1.87798e-08
-4.5981e-07
-6.17036e-08
-4.47535e-07
-1.07078e-07
-4.37372e-07
-2.93336e-08
-2.49652e-07
8.58705e-08
3.15752e-08
4.53785e-08
1.83535e-07
-4.22674e-08
1.7318e-07
-1.54958e-07
1.15626e-07
-3.84083e-07
7.40337e-08
-4.05986e-07
2.46401e-08
-4.07367e-07
-2.83859e-08
-4.06784e-07
-7.23946e-08
-4.03526e-07
-1.18769e-07
-3.91005e-07
-1.03432e-07
-2.6498e-07
-4.52744e-08
2.77142e-08
8.36107e-08
1.27907e-07
-2.79775e-08
1.44769e-07
-2.16199e-07
9.98778e-08
-3.3919e-07
5.53406e-08
-3.61449e-07
1.68579e-08
-3.68884e-07
-2.12657e-08
-3.6866e-07
-6.40709e-08
-3.60721e-07
-1.077e-07
-3.47376e-07
-3.81139e-08
-3.34565e-07
-1.12703e-07
2.93138e-08
6.4745e-08
-7.08179e-10
6.3865e-08
1.45682e-07
-2.97106e-07
1.02865e-07
-2.96373e-07
4.90385e-08
-3.07622e-07
-1.02567e-08
-3.09589e-07
-6.43529e-08
-3.14564e-07
-1.05723e-07
-3.19352e-07
-1.46349e-07
-3.0675e-07
-2.00368e-07
-2.80546e-07
-1.49118e-07
-1.63943e-07
2.45318e-07
-1.72605e-07
-7.34232e-08
1.64993e-07
-2.16777e-07
1.24297e-07
-2.55677e-07
8.05096e-08
-2.63835e-07
3.52967e-08
-2.64376e-07
-1.537e-08
-2.63897e-07
-7.30027e-08
-2.61719e-07
-1.26552e-07
-2.532e-07
-1.82988e-07
-2.2411e-07
-2.25366e-07
-1.06734e-07
1.28595e-07
-1.86971e-07
1.02483e-07
6.29928e-08
2.7284e-08
-2.17809e-09
-3.12067e-08
-6.4403e-08
-9.68933e-08
-1.22337e-07
-2.14588e-07
8.52078e-09