/*--------------------------------*- C++ -*----------------------------------*\
  =========                 |
  \\      /  F ield         | OpenFOAM: The Open Source CFD Toolbox
   \\    /   O peration     | Website:  https://openfoam.org
    \\  /    A nd           | Version:  8
     \\/     M anipulation  |
\*---------------------------------------------------------------------------*/
FoamFile
{
    version     2.0;
    format      ascii;
    class       volScalarField;
    location    "3.45";
    object      p;
}
// * * * * * * * * * * * * * * * * * * * * * * * * * * * * * * * * * * * * * //

dimensions      [1 -1 -2 0 0 0 0];

internalField   nonuniform List<scalar> 
9150
(
-204.368
-205.367
-205.987
-206.459
-206.696
-206.701
-206.462
-205.991
-205.363
-204.366
-224.42
-224.933
-225.352
-225.68
-225.857
-225.845
-225.679
-225.353
-224.932
-224.419
-244.311
-244.592
-244.844
-245.065
-245.182
-245.176
-245.068
-244.848
-244.593
-244.311
-264.05
-264.224
-264.392
-264.546
-264.628
-264.638
-264.548
-264.392
-264.224
-264.049
-283.67
-283.851
-283.989
-284.117
-284.175
-284.183
-284.11
-283.986
-283.849
-283.669
-118.332
-119.174
-118.923
-118.498
-118.323
-118.333
-118.505
-118.954
-119.199
-118.35
-133.842
-134.569
-134.772
-134.827
-134.74
-134.743
-134.837
-134.782
-134.584
-133.869
-150.356
-151.1
-151.414
-151.766
-151.828
-151.833
-151.772
-151.426
-151.102
-150.354
-167.237
-168.364
-168.827
-169.455
-169.611
-169.604
-169.424
-168.798
-168.337
-167.212
-184.225
-186.273
-187.038
-187.74
-188.004
-188
-187.735
-187.033
-186.269
-184.222
-24.4638
-26.0593
-27.9536
-29.0191
-29.5819
-29.6476
-29.1805
-28.1552
-26.1648
-24.5693
-44.9916
-45.2492
-46.2595
-46.6072
-47.0328
-47.0155
-46.5348
-46.1941
-45.2721
-45.0458
-64.9981
-64.9118
-65.91
-65.5147
-66.0042
-66.0442
-65.633
-65.9912
-64.9668
-65.058
-87.887
-85.106
-86.0957
-84.5941
-84.7562
-84.7561
-84.5638
-86.0855
-85.1153
-87.8909
-113.739
-104.07
-103.629
-102.198
-101.833
-101.834
-102.217
-103.637
-104.099
-113.769
599.062
600.692
603.116
606.106
609.199
612.255
615.374
618.464
621.027
623.471
573.942
574.942
577.305
580.977
585.066
589.137
592.978
597.375
602.16
604.675
544.328
544.021
546.019
551.259
557.25
562.123
567.082
571.947
576.628
581.69
506.658
498.736
504.735
515.9
525.451
532.93
539.576
545.761
552.535
559.431
482.466
478.891
490.166
501.549
504.404
506.638
513.021
520.912
531.199
542.1
471.613
477.945
482.533
484.116
489.835
491.451
488.374
489.984
502.174
520.278
466.348
467.716
464.55
470.004
465.572
466.144
465.889
466.807
482.296
514.084
455.781
466.536
472.401
476.927
479.809
482.207
492.97
499.283
502.435
516.416
451.465
458.778
466.375
473.424
479.127
486.446
495.27
505.317
512.12
515.466
448.037
444.792
450.963
461.6
472.317
483.215
488.878
495.315
500.2
502.149
425.784
430.842
443.085
451.062
458.299
476.128
477.83
490.347
492.758
492.129
396.885
401.649
407.494
417.849
428.737
439.5
451.009
459.547
468.906
480.594
364.023
368.56
372.566
377.428
385.262
395.533
406.311
418.65
433.107
444.31
322.593
321.048
319.654
320.002
322.622
327.038
330.9
336.731
349.504
369.01
280.463
269.608
256.528
252.466
252.776
253.327
254.042
256.096
258.095
269.181
250.833
247.375
244.594
240.92
239.753
240.002
240.648
241.78
244.196
249.561
237.758
242.008
240.48
237.733
236.707
237.286
238.45
239.39
240.201
241.444
235.104
240.615
240.785
239.398
238.25
237.654
238.151
238.967
240.061
241.483
233.531
237.286
237.876
238.187
238.432
238.655
239.022
239.641
240.482
241.129
226.661
232.206
235.465
237.28
238.238
238.93
239.503
240.032
240.671
240.84
213.897
224.649
232.001
235.4
237.486
238.66
239.374
240.114
241.213
241.607
203.245
214.956
224.676
232.324
236.329
237.542
238.055
238.434
239.785
240.044
194.089
206.415
216.296
224.526
230.346
234.809
236.269
236.683
237.384
236.83
187.607
191.917
204.98
216.234
223.522
224.982
227.825
238.796
242.376
231.534
187.178
183.131
195.359
207.724
212.974
214.838
213.751
216.078
222.602
223.436
186.093
182.613
190.437
197.305
199.699
203.324
208.094
211.772
217.098
223.422
183.302
181.388
196.574
192.257
200.348
198.784
200.772
204.545
208.256
211.325
185.572
192.765
189.56
192.944
196.237
198.553
197.851
198.09
197.848
196.562
194.805
193.005
195.12
196.253
197.994
198.896
196.161
193.404
189.779
183.956
195.607
198.063
199.641
200.458
201.28
200.279
199.496
196.23
188.624
178.537
200.633
205.254
207.205
206.78
208.194
208.209
202.334
188.536
169.872
159.06
206.734
210.837
209.493
213.274
216.986
208.728
179.467
151.022
120.694
99.6865
209.44
202.719
210.61
216.171
228.676
201.212
159.244
128.944
116.813
103.71
189.114
196.79
205.001
204.798
219.256
191.078
151.959
109.904
98.6804
93.8282
163.274
168.916
173.75
171.911
165.744
148.495
140.278
101.034
119.886
111.151
127.511
124.912
111.129
98.4863
86.3695
106.689
137.922
129.69
122.362
113.923
85.0632
89.0418
60.5626
54.1665
47.9544
74.4042
116.666
157.876
117.312
112.098
72.3471
72.4825
67.2297
66.5938
73.2525
69.7279
88.9251
130.062
99.8859
95.2928
74.6136
75.2365
73.6959
67.1638
77.7666
65.983
59.6514
73.6786
63.2479
66.7968
55.9404
52.5191
53.4796
43.9129
43.9262
40.3837
36.1772
41.1483
29.5847
42.5021
42.7042
39.1813
37.223
29.9786
28.6499
30.7204
32.0694
33.426
11.8173
31.5988
33.5849
31.5612
29.4864
25.5467
22.1788
-0.10875
18.6978
17.8334
23.7749
26.4409
25.1993
24.1416
22.1617
23.7577
20.6588
-12.7578
2.484
-6.14065
26.9564
16.4633
17.3082
20.2095
10.1212
14.965
8.75957
-16.224
4.38302
-2.00578
9.9306
13.1004
16.8358
21.5902
-2.50689
25.2604
22.0631
12.1282
6.65035
5.94602
-0.217703
8.92556
4.23564
4.83865
5.87446
8.29361
25.1531
20.2347
6.9303
6.00567
1.36364
0.0788272
0.611807
2.10304
4.60667
4.06332
21.7648
25.859
5.32408
2.71096
-0.148563
0.160177
-0.928704
0.79189
1.58673
3.33035
22.4183
31.0361
4.18855
2.00878
0.0224741
0.0253088
-1.20062
0.0436598
0.336307
1.98962
25.5557
29.6858
2.21629
0.0212725
0.0763752
-0.286726
-1.35667
-1.48606
-1.61388
-0.188837
21.7385
30.1808
-0.27435
0.168976
-0.0567166
-0.121425
-1.39037
-1.32183
-1.21065
-1.36882
4.42207
45.008
-0.445904
-0.059748
-0.0569925
-0.0540686
-1.45436
-1.43183
-1.39572
-1.61949
41.2803
7.22224
0.0194892
-0.0147092
-0.0494709
-0.0769556
-1.54883
-1.5816
-1.60865
-1.69745
41.61
6.52739
0.129769
0.0222025
-0.0397468
-0.0640342
-1.62524
-1.65791
-1.71393
-1.79046
39.644
8.17753
0.0851434
-0.0316922
-0.0697485
-0.0906139
-1.64207
-1.6694
-1.72161
-1.78089
35.0628
14.2015
-0.0396334
-0.114429
-0.131932
-0.145316
-1.63459
-1.65558
-1.67159
-1.65808
23.3739
26.8224
-0.215705
-0.209068
-0.201061
-0.199081
-1.61552
-1.62086
-1.62142
-1.62569
23.6774
24.4283
-0.257683
-0.246414
-0.239393
-0.23571
-1.60608
-1.57793
-1.57697
-1.5798
21.8294
23.3489
-0.261628
-0.251868
-0.251659
-0.26164
-1.59472
-1.56132
-1.55845
-1.55302
22.2147
21.5473
-0.261553
-0.260632
-0.266058
-0.28281
-1.59559
-1.55752
-1.56389
-1.56063
22.5004
21.0039
-0.279587
-0.28691
-0.299873
-0.31146
-1.61008
-1.59499
-1.56942
-1.59874
25.244
21.8021
-0.311354
-0.319703
-0.342963
-0.352723
-1.62073
-1.61578
-1.55136
-1.55612
24.3848
27.7416
-0.382657
-0.368006
-0.388182
-0.387968
-1.65291
-1.65621
-1.57269
-1.59077
27.0657
27.0297
-0.41726
-0.404061
-0.431052
-0.431453
-1.69754
-1.72135
-1.63729
-1.65877
27.6248
26.1326
-0.442216
-0.437805
-0.469929
-0.47725
-1.74333
-1.76478
-1.72764
-1.74998
31.2952
20.9172
-0.438092
-0.472721
-0.511678
-0.532699
-1.79692
-1.82252
-1.84062
-1.91511
41.6418
9.17275
-0.38981
-0.508869
-0.570238
-0.600151
-1.80631
-1.84454
-1.87816
-1.92199
40.3446
10.1242
-0.502203
-0.622529
-0.653819
-0.687699
-1.78505
-1.8346
-1.87085
-1.91774
36.5248
14.1756
-0.67137
-0.761773
-0.779917
-0.796301
-1.75115
-1.76763
-1.76281
-1.72744
20.2354
30.8546
-0.957214
-0.913453
-0.910982
-0.901039
-1.68849
-1.68803
-1.65157
-1.6881
28.1302
23.2794
-0.961319
-0.967569
-0.968901
-0.963483
-1.62893
-1.61672
-1.54811
-1.54611
21.3139
30.0177
-1.03886
-1.02263
-1.01499
-1.0075
-1.62232
-1.58542
-1.49957
-1.38756
7.77542
44.4619
-1.21563
-1.09018
-1.05882
-1.04412
-1.64217
-1.61816
-1.61635
-1.66522
30.1795
20.6747
-1.03316
-1.05893
-1.06482
-1.06452
-1.65962
-1.6496
-1.64733
-1.66531
25.7468
25.8172
-1.12321
-1.09664
-1.09705
-1.09741
-1.67905
-1.67402
-1.66999
-1.68833
25.6241
26.3311
-1.15503
-1.1327
-1.13395
-1.13588
-1.69623
-1.69315
-1.69191
-1.69583
26.0238
25.6851
-1.17937
-1.17566
-1.17823
-1.18058
-1.71319
-1.71348
-1.71251
-1.70457
25.8346
24.9295
-1.21886
-1.22978
-1.23096
-1.23217
-1.72908
-1.72805
-1.71919
-1.70434
24.8717
24.8107
-1.26837
-1.28191
-1.28226
-1.2817
-1.71556
-1.71716
-1.69065
-1.66683
22.9305
25.6994
-1.31772
-1.32672
-1.3251
-1.32132
-1.72487
-1.7215
-1.68817
-1.66115
22.3825
25.2693
-1.35013
-1.36543
-1.36256
-1.3581
-1.73919
-1.7329
-1.69862
-1.66353
21.2323
25.6119
-1.38468
-1.40125
-1.39676
-1.39212
-1.74723
-1.73966
-1.70416
-1.67317
20.2182
26.1359
-1.4328
-1.43467
-1.42873
-1.42491
-1.73581
-1.73078
-1.70105
-1.7043
21.6284
24.3873
-1.48185
-1.45879
-1.45515
-1.45173
-1.73827
-1.73728
-1.71095
-1.78572
24.0705
21.2839
-1.53241
-1.47251
-1.47463
-1.47502
-1.76466
-1.76197
-1.72533
-1.84823
20.9715
23.0892
-1.62842
-1.49587
-1.49763
-1.49575
-1.77823
-1.77362
-1.73683
-1.86771
20.7893
20.6512
-1.65357
-1.52265
-1.52384
-1.52723
-1.7842
-1.77984
-1.74149
-1.77943
18.1549
19.3884
-1.60107
-1.56011
-1.55665
-1.56244
-1.80259
-1.78447
-1.77885
-1.69894
14.8484
18.2018
-1.52373
-1.60006
-1.59505
-1.59785
-1.82234
-1.81485
-1.81701
-1.70249
12.8476
15.2987
-1.52462
-1.63182
-1.62773
-1.62942
-1.83668
-1.83403
-1.83624
-1.80555
11.5475
11.7339
-1.63291
-1.65649
-1.65467
-1.65514
-1.8483
-1.84549
-1.84537
-2.00881
8.74863
10.6093
-1.86279
-1.68502
-1.68234
-1.68077
-1.86177
-1.86227
-1.85651
-2.20984
6.44669
8.27965
-2.0761
-1.71197
-1.71468
-1.71133
-1.87882
-1.87647
-1.88854
-2.23974
5.48103
4.04975
-2.0351
-1.7613
-1.74518
-1.74587
-1.89291
-1.89169
-1.97056
-1.96598
2.36058
2.85507
-2.17136
-1.84004
-1.77553
-1.77564
-1.9072
-1.90869
-2.08409
-1.83594
0.414278
1.32606
-1.64851
-1.94547
-1.80145
-1.79995
-1.91779
-1.91925
-2.36085
-1.2614
0.331691
0.228863
-1.38436
-2.15515
-1.82737
-1.82546
-1.92368
-1.92745
-3.36524
-2.16391
-0.827475
-0.522762
-1.25656
-3.23113
-1.84155
-1.85528
-1.93668
-2.4351
-3.84781
-1.87419
-1.5166
-1.86619
-3.18911
-5.07024
-2.32453
-1.88539
-1.95761
-4.19917
-5.9806
-5.91875
-5.62474
-5.62544
-5.49839
-5.12371
-3.7669
-1.90929
-2.71205
-9.44312
-12.8661
-14.9363
-15.7059
-15.4547
-14.4739
-12.5767
-9.42113
-2.75351
625.537
627.72
630.821
635.06
639.466
643.819
647.882
651.803
656.262
660.546
662.684
664.87
666.568
668.433
669.83
670.511
669.978
666.465
660.259
653.328
646.764
640.639
635.849
632.149
630.427
630.116
630.699
631.742
633.321
635.183
637.14
639.242
641.542
644.012
646.28
647.111
652.089
653.448
659.759
662.23
605.883
606.812
609.464
613.505
618.663
623.849
628.336
632.586
636.726
641.122
645.328
645.603
646.975
647.998
649.285
649.53
648.591
648.452
638.156
630.268
623.756
617.511
612.156
608.502
606.923
606.831
607.496
608.869
610.971
613.168
615.4
617.76
619.828
622.689
625.375
627.04
628.283
630.854
635.258
637.534
584.943
586.245
587.518
589.435
595.96
603.198
609.338
613.953
617.86
621.221
624.713
631.143
625.234
626.828
626.357
625.623
623.544
622.148
619.122
601.693
595.942
591.986
586.248
580.477
578.381
579.113
580.264
582.368
585.365
588.557
591.873
595.394
598.963
603.23
606.55
608.139
608.333
608.772
610.839
612.046
565.32
569.517
579.082
586.169
579.346
584.09
590.704
595.793
599.353
601.787
603.298
610.765
606.885
604.789
603.788
601.552
597.888
591.789
591.603
578.36
573.034
568.454
560.396
557.834
546.054
547.847
549.314
552.69
557.086
561.617
566.266
570.994
575.656
581.335
586.072
588.784
589.023
587.592
587.987
588.367
554.306
564.537
570.429
575.072
578.341
576.465
576.084
579.433
582.247
584.303
585.549
587.771
586.66
583.077
581.485
579.152
575.824
571.367
564.848
559.761
553.217
545.927
540.984
535.506
528.67
526.739
526.083
525.398
529.764
534.734
539.624
544.694
549.921
555.092
560.106
564.794
567.004
565.331
564.802
566.429
540.087
558.105
569.654
573.064
574.586
568.06
564.273
566.115
567.88
568.874
568.992
569.295
568.004
565.192
561.262
558.186
555.171
551.84
547.624
540.921
535.052
532.148
525.893
519.527
514.469
511.733
509.027
507.529
507.225
509.377
513.63
519.051
524.669
529.421
533.643
538.247
540.412
544.373
546.457
545.343
544.282
558.187
561.33
564.944
565.474
560.77
558.041
556.868
557.159
557.218
555.6
553.729
551.447
547.474
543.982
540.534
535.359
532.112
528.357
523.531
517.741
514.015
510.113
506.79
502.338
499.245
496.42
494.609
494.002
494.37
495.335
499.265
506.163
513.001
513.997
516.72
519.637
523.623
525.396
525.248
529.323
538.651
544.756
546.096
545.831
542.67
540.313
542.28
544.254
545.216
542.786
537.749
532.13
526.847
525.25
522.322
515.216
511.976
508.867
505.74
502.152
498.859
495.91
493.058
490.734
489.603
489.193
486.497
486.579
486.036
486.261
487.608
495.759
498.869
498.751
495.794
501.596
504.294
506.33
506.162
516.141
518.953
521.229
522.557
521.366
513.263
504.351
509.516
513.587
516.008
512.064
505.95
502.251
499.451
498.095
498.208
492.516
490.737
489.359
487.736
485.672
483.747
481.972
480.428
479.475
479.321
479.472
478.045
479.138
479.152
476.484
480.34
480.038
480.759
481.8
490.721
480.922
489.282
492.939
491.081
502.467
501.239
500.698
496.275
490.058
482.487
480.155
475.685
473.378
474.495
470.489
465.867
466.239
467.613
468.692
469.188
469.406
469.718
469.662
469.347
469.201
468.92
468.347
468.109
468.072
468.119
468.361
468.255
472.266
467.407
472.702
471.982
474.134
474.717
474.974
475.367
470.805
481.022
482.128
479.905
492.872
489.685
485.273
477.358
472.988
468.889
465.399
458.752
448.706
438.417
429.295
425.518
428.832
434.499
439.229
442.852
445.989
448.376
450.086
451.802
453
453.497
454.102
454.911
456.024
456.825
457.766
462.174
462.345
464.28
464.601
464.566
464.687
464.389
464.34
464.201
462.086
470.894
470.888
469.752
485.305
481.033
473.77
465.593
461.159
456.966
453.045
444.883
431.227
415.254
405.236
400.663
403.073
409.187
415.288
420.432
424.914
428.565
431.552
434.245
436.148
437.268
438.444
440.204
442.543
445.177
450.105
451.796
454.37
450.778
452.941
454.211
455.187
455.761
456.084
456.885
456.325
460.768
461.504
460.121
450.959
454.779
450.217
442.677
443.281
441.356
432.878
426.73
414.904
397.926
391.759
389.03
389.864
393.677
398.142
402.729
406.938
410.615
413.9
416.746
418.814
420.411
422.091
424.226
427.288
431.498
435.628
439.479
439.858
441.449
444.015
445.555
446.459
447.175
448.138
448.954
449.637
450.526
452.196
449.926
392.54
413.917
424.741
420.924
414.027
421.972
401.02
397.295
390.76
381.347
377.315
376.678
377.223
379.922
383.541
386.998
390.234
393.298
396.339
399.02
401.27
403.2
404.807
406.669
409.618
416.526
418.614
426.009
424.641
432.008
433.791
435.601
436.989
437.991
438.456
436.973
438.347
436.442
443.554
439.731
298.883
337.416
373.349
386.492
372.757
367.719
364.099
361.78
362.194
360.247
356.747
358.809
360.909
362.828
366.093
370.079
373.034
376.668
378.884
381.818
384.388
386.664
388.662
390.921
393.833
405.974
402.375
407.978
412.031
413.29
419.803
424.493
425.925
422.614
423.657
423.527
424.376
424.892
432.18
428.165
253.849
267.08
316.84
340.026
329.197
339.481
333.742
348.543
335.145
335.206
337.696
338.729
342.58
345.695
347.677
353.757
356.489
360.719
363.413
365.36
368.36
371.416
374.071
376.994
380.617
384.708
386.131
387.847
392.324
395.2
397.525
399.92
402.911
403.895
405.578
407.923
410.548
412.815
416.244
414.477
242.098
243.246
274.939
292.098
314.476
297.174
315.264
314.504
321.379
321.708
321.55
322.129
324.421
327.727
330.928
334.856
340.263
343.171
347.347
350.01
352.394
356.754
359.595
363.5
367.077
368.248
368.58
369.843
373.837
377.707
381.211
384.119
386.625
389.069
391.358
393.419
395.232
403.009
401.266
400.084
241.983
243.933
271.766
263.279
284.352
281.58
280.015
304.714
298.828
301.908
303.85
296.619
302.511
308.32
311.751
316.822
322.491
326.826
329.492
335.009
338.068
342.462
345.159
348.737
351.903
352.172
351.854
352.855
356.914
361.289
365.132
368.484
371.535
374.27
376.881
379.522
382.921
389.101
383.134
384.005
242.435
245.691
273.265
250.4
255.246
261.388
259.356
273.124
278.519
277.508
281.189
284.209
284.619
286.394
288.48
295.526
300.828
306.984
312.08
316.716
320.394
324.61
328.266
330.988
337.441
337.267
337.254
339.881
344.089
347.991
351.231
354.311
357.287
360.189
362.267
367.058
368.529
369.825
369.384
369.221
240.1
264.205
249.468
247.07
243.617
247.854
251.245
253.022
262.184
263.951
266.345
272.647
276.197
278.201
279.724
280.431
278.693
280.757
289.703
296.62
300.634
304.312
308.605
313.28
325.57
323.049
323.802
328.893
333.301
336.799
339.645
342.115
343.716
347.206
350.467
351.974
351.451
356.596
352.12
357.239
248.013
266.555
240.884
241.205
239.959
242.463
246.624
249.356
254.542
257.184
262.198
268.525
272.229
275.563
277.32
277.753
278.306
277.624
272.018
277.289
281.675
284.465
289.094
294.603
299.47
304.604
311.058
316.818
321.954
326.281
329.555
332.219
335.993
334.54
332.634
334.578
336.593
337.911
337.847
342.098
252.551
269.691
243.039
243.77
244.983
248.795
252.351
256.617
258.42
259.454
260.862
269.174
274.115
275.429
275.369
273.927
272.397
271.468
261.671
262.021
261.785
264.241
269.008
274.752
280.869
286.875
294.755
301.706
307.516
312.891
316.588
323.38
317.789
316.341
316.588
317.014
318.315
320.539
325.147
327.965
239.402
259.539
243.165
259.233
261.661
266.671
268.74
268.467
267.511
266.8
266.207
266.641
266.745
267.307
265.736
266.018
256.372
246.657
238.099
235.591
238.729
243.446
247.873
253.645
260.423
268.534
275.5
281.493
287.638
295.128
305.192
299.479
297.722
296.586
296.774
298.612
302.189
302.97
306.571
309.248
231.476
249.543
255.304
284.051
283.466
283.132
280.458
277.437
274.446
271.017
268.137
265.398
262.446
258.33
251.419
247.335
241.077
234.444
231.01
228.574
229.372
228.223
229.977
236.496
241.047
245.963
250.471
253.903
256.722
266.871
270.019
271.129
271.737
271.803
272.652
273.862
273.989
273.126
277.29
280.4
231.249
250.685
276.12
290.42
297.753
286.827
284.688
280.864
277.468
272.081
267.077
261.971
256.573
251.117
245.292
238.167
231.466
229.975
221.96
220.009
220.612
222.232
224.858
220.605
221.212
224.832
228.364
232.83
242.75
238.885
236.958
242.628
243.04
243.556
243.005
238.357
234.412
224.644
222.38
231.493
228.241
242.451
269.226
284.024
296.21
292.476
287.277
280.12
275.132
267.535
261.629
255.79
249.791
243.738
237.75
231.666
225.67
221.07
218.192
216.482
214.787
212.063
207.671
211.792
218.279
219.15
217.508
218.781
220.818
218.66
217.085
222.656
221.57
223.16
219.341
218.661
211.883
211.442
226.776
215.188
214.506
228.495
256.078
272.845
290.418
287.142
282.065
279.205
269.401
263.565
253.954
247.741
241.578
235.223
228.776
222.554
216.679
211.67
207.724
205.017
203.121
200.646
196.853
194.495
197.62
199.817
199.508
204.234
207.25
207.464
206.093
206.965
207.217
208.211
210.669
210.581
208.854
221.133
222.008
217.397
196.095
208.351
237.548
260.455
283.792
279.095
272.83
268.311
259.954
252.531
244.947
238.248
231.868
225.333
218.614
211.797
204.131
195.77
188.95
191.653
191.017
190.304
189.879
188.989
189.447
186.7
185.083
190.639
195.962
200.379
201.033
198.864
199.741
201.513
202.271
202.937
208.842
215.345
215.849
232.425
179.278
188.358
218.611
240.077
261.971
260.356
256.975
254.45
242.911
237.503
231.175
225.608
220.394
214.999
209.239
202.725
195.347
189.58
192.332
192.287
191.43
188.522
190.133
191.764
182.477
177.312
181.206
185.55
189.732
193.779
192.315
189.852
190.196
189.444
191.126
192.751
196.895
213.528
207.076
218.628
173.397
175.737
190.765
202.013
223.701
226.249
227.7
227.595
223.807
217.192
214.45
208.706
206.456
203.07
198.871
194.281
188.789
186.38
188.212
186.733
185.445
183.427
181.203
178.827
177.426
178.857
182.489
184.813
186.646
185.559
179.352
175.146
172.335
173.518
175.379
176.017
177.501
184.098
191.176
192.5
153.917
147.293
146.756
153.112
165.739
174.477
182.765
189.942
191.468
190.461
190.78
193.832
189.035
187.149
186.212
184.829
181.828
180.17
183.848
182.485
181.662
180.633
179.69
178.825
179.245
180.517
182.763
184.014
180.861
177.301
171.409
166.805
164.045
163.094
161.967
159.128
158.576
169.979
161.181
174.747
96.1446
95.9277
100.274
108.96
123.371
132.901
139.427
156.681
164.133
167.359
170.064
172.56
178.477
172.2
172.963
173.837
174.579
175.212
175.984
177.089
178.116
178.069
178.193
177.875
177.335
176.689
174.803
175.895
174.957
172.336
168.395
164.242
160.355
158.141
156.073
154.747
158.222
157.502
151.567
165.359
92.5839
85.9053
85.0418
91.4418
104.851
118.882
119.083
134.768
144.979
147.696
149.568
150.681
157.646
156.643
158.251
160.401
162.415
164.935
167.773
169.399
169.546
172.072
176.171
172.715
167.261
165.411
164.534
163.852
163.115
161.913
158.34
155.337
152.685
149.622
154.743
153.553
153.826
154.315
148.872
158.673
97.4227
97.0977
95.1454
99.9191
127.988
115.724
119.784
124.337
124.941
125.568
130.633
134.202
135.133
141.108
145.457
143.719
147.878
151.174
153.825
156.286
156.383
156.018
154.613
153.274
150.709
148.612
147.048
146.477
146.557
145.92
143.243
140.617
147.686
153.639
151.505
150.383
150.259
150.661
144.219
153.13
103.235
114.434
107.611
121.354
124.676
117.974
119.603
122.714
117.923
115.996
117.977
118.397
120.386
123.911
129.772
133.493
136.562
137.985
139.431
140.711
144.842
143.404
140.493
137.376
133.685
130.498
128.539
127.953
128.358
128.166
126.478
125.284
138.617
137.322
139.917
139.271
147.569
136.488
131.954
132.869
106.646
105.718
95.7503
93.1242
106.225
104.928
116.715
118.959
103.934
105.179
105.699
105.489
106.068
108.758
112.762
118.82
122.776
122.738
126.311
129.144
129.237
127.119
124.393
118.307
114.155
111.244
108.999
108.073
108.369
108.276
108.217
108.48
109.861
114.822
122.136
127.034
122.889
125.801
122.383
129.164
97.1597
76.4929
90.6127
85.7642
84.898
89.3325
102.889
85.5626
88.1402
90.5097
89.5301
88.4272
88.6738
89.2614
90.4485
93.5655
99.7983
105.42
106.975
103.604
109.942
105.182
104.873
101.486
97.1596
91.3604
87.4031
86.0847
85.0064
84.3787
85.2446
87.6633
91.1871
95.2677
97.5478
96.8835
103.162
103.573
100.653
108.896
93.3712
72.148
79.8272
81.8475
67.9668
69.9866
73.5375
75.4738
75.1488
75.365
73.9632
72.1429
69.6636
65.501
65.7236
68.8479
60.0219
71.6813
79.7936
80.6486
81.2874
83.9216
86.4253
84.5605
82.7681
79.2556
75.5941
71.4784
70.3082
70.0431
71.2891
74.8535
79.6237
85.806
89.6078
98.6076
105.44
94.4221
102.027
101.436
72.9414
63.6468
69.9447
70.6259
68.4518
67.3774
63.7719
64.2491
63.8733
64.3606
62.2114
61.5471
60.6838
58.5641
66.0685
68.7569
67.0448
65.7999
67.7916
71.2218
73.2137
75.9583
81.0447
81.0591
78.0179
74.1061
71.3325
68.85
67.5313
65.4743
65.5537
68.0631
71.5113
75.9224
79.0262
90.856
99.4517
96.2556
97.968
106.783
52.4709
55.3468
61.3472
65.3199
66.98
68.8023
69.7358
68.9393
58.6635
55.5139
54.883
52.683
52.7045
53.5214
67.7385
67.1797
67.008
63.4947
58.7674
67.504
65.573
69.6903
72.294
74.5113
72.6399
69.2745
64.0138
62.7841
61.7599
61.0769
61.2382
60.885
63.0446
65.8016
68.0124
69.7922
81.0302
77.1975
80.1884
82.6409
40.9426
45.2331
52.2943
54.2963
61.6971
64.2291
64.122
64.589
54.7056
48.2181
46.27
42.6292
40.3636
48.8774
53.0003
54.427
47.6745
54.024
48.0331
54.1545
58.959
62.1145
63.3058
62.4106
61.1451
60.772
58.6246
52.916
53.0721
54.2383
56.0612
56.2582
56.3927
57.9317
59.1393
61.013
64.2462
64.8254
65.1932
68.0869
24.3242
22.8623
31.1896
40.7917
44.3367
44.3794
44.7685
41.3629
39.2211
39.0726
37.3925
30.838
20.0355
18.4837
26.1019
29.5339
31.6109
36.2044
42.214
44.6527
47.1148
47.6849
47.1677
45.5941
43.5796
40.6398
37.834
38.2812
42.9831
46.1012
47.5779
47.3609
46.0893
46.4009
46.3683
46.2824
47.2738
46.9476
56.0277
47.6317
23.1545
22.8706
21.8088
25.2936
35.6834
34.6884
34.5467
33.6419
32.062
30.1856
25.8143
19.4461
8.82977
0.349621
0.321785
-0.519782
2.43266
11.4895
21.3965
26.8061
31.3004
35.068
35.8706
33.5936
31.7388
27.4311
25.9885
26.8981
30.2241
36.2871
37.5874
34.2081
34.4676
32.52
31.4328
30.6554
27.9115
32.5015
30.5124
32.2499
2.3726
-5.7284
2.8714
6.19808
0.567602
-3.09843
7.83799
9.668
12.6692
12.328
9.01742
2.39595
0.464172
0.0942916
0.346042
0.547629
0.394783
1.57975
4.47267
11.1959
20.1632
28.5171
28.9834
20.4359
16.3571
11.7721
13.9866
15.5052
18.4702
21.5901
26.2548
26.2878
22.2316
18.8065
15.9751
12.9251
11.8232
13.0868
13.9202
16.8738
0.126937
0.118778
-0.145171
0.0305
-0.0662161
0.0650576
0.140583
0.04315
0.088174
0.0848259
0.0798791
0.0762803
0.105114
0.0880441
0.0718657
0.0792337
0.113448
0.11941
0.186262
1.1631
7.13969
17.7501
16.9744
6.39833
-0.0192148
-1.30739
0.479629
2.88839
6.02716
8.2514
13.276
16.1783
11.4275
7.52284
3.04892
-1.45233
0.379807
3.35641
3.52538
3.82707
0.0805718
0.0914453
-0.0120918
-0.0380163
-0.0067794
0.0162603
0.00221306
0.0146189
0.0412646
0.0384667
0.0736847
0.064672
0.09028
0.074878
0.0919083
0.13875
0.136553
0.0991099
0.0234988
-0.0363895
-0.0770177
0.0576274
-0.0629099
0.201038
-0.0707932
-0.385016
-0.221722
-0.0445142
-0.056459
0.0475075
0.804698
1.97265
0.87732
0.40995
-0.0670902
-0.0374234
-0.0528494
-0.0688214
-0.084957
-0.114261
0.0844722
0.0593198
0.0322524
0.0239868
0.00522564
-0.0168699
-0.0266703
-0.0249487
0.0030737
0.0822929
0.0327642
0.0150512
0.0193555
-0.00428015
0.0259784
0.0706644
0.038902
-0.0317122
-0.10983
-0.169389
-0.238146
-0.339533
-0.445578
-0.243274
-0.241312
-0.223747
-0.235707
-0.236724
-0.26549
-0.27643
-0.289297
-0.296974
-0.30562
-0.309328
-0.270044
-0.222008
-0.227648
-0.215066
-0.213617
-0.213654
-0.017032
-0.00802143
0.0265354
0.0321815
0.00619758
-0.0109206
-0.0225693
-0.023662
-0.0235427
-0.0225623
-0.0304067
-0.0760122
-0.0714946
-0.0830389
-0.104553
-0.105565
-0.117861
-0.161739
-0.219838
-0.267791
-0.297464
-0.334021
-0.388936
-0.174689
-0.318361
-0.316806
-0.313593
-0.311131
-0.310743
-0.309504
-0.311236
-0.314128
-0.315692
-0.307781
-0.297585
-0.285101
-0.27733
-0.236657
-0.264276
-0.251983
-0.147376
-0.0711037
-0.0464929
-0.0396044
-0.041362
-0.0510171
-0.059831
-0.0311088
-0.0646673
-0.100157
-0.141634
-0.16337
-0.164451
-0.175874
-0.195538
-0.217954
-0.237261
-0.273373
-0.314867
-0.340534
-0.345702
-0.36267
-0.36954
-0.357289
-0.348556
-0.361907
-0.34811
-0.33749
-0.333469
-0.331789
-0.32927
-0.325868
-0.325248
-0.328044
-0.325084
-0.320391
-0.313506
-0.251237
-0.277949
-0.263482
-0.11288
-0.0730234
-0.063143
-0.061213
-0.0669964
-0.072333
-0.0663675
-0.0384149
-0.126701
-0.18661
-0.204805
-0.22666
-0.252075
-0.273571
-0.290518
-0.319502
-0.339479
-0.365554
-0.401112
-0.411757
-0.409835
-0.38889
-0.368346
-0.359384
-0.361776
-0.368407
-0.36385
-0.358652
-0.350578
-0.347616
-0.345967
-0.343777
-0.341303
-0.338796
-0.334864
-0.328538
-0.321714
-0.262379
-0.283947
-0.274913
-0.0643862
-0.0686846
-0.0762563
-0.0906507
-0.095398
-0.102515
-0.118357
-0.145269
-0.163591
-0.221948
-0.263314
-0.283401
-0.307807
-0.340706
-0.386527
-0.421683
-0.421146
-0.440448
-0.447134
-0.450799
-0.464365
-0.42864
-0.398638
-0.38392
-0.383708
-0.38604
-0.38337
-0.375702
-0.367857
-0.361751
-0.356318
-0.352367
-0.34762
-0.341612
-0.335954
-0.330604
-0.326146
-0.272367
-0.295119
-0.28139
-0.0793781
-0.09494
-0.102595
-0.110075
-0.118836
-0.130999
-0.157689
-0.204688
-0.250153
-0.274668
-0.311314
-0.359448
-0.392291
-0.421635
-0.451545
-0.474384
-0.478855
-0.485046
-0.493722
-0.468771
-0.48692
-0.45749
-0.435125
-0.423714
-0.419556
-0.411501
-0.405599
-0.396848
-0.388324
-0.380019
-0.372141
-0.365439
-0.357709
-0.34871
-0.341031
-0.334784
-0.331833
-0.282689
-0.314316
-0.307769
-0.0849118
-0.107948
-0.119175
-0.129496
-0.140602
-0.160293
-0.195662
-0.237249
-0.288528
-0.346506
-0.379339
-0.394373
-0.419662
-0.445209
-0.469303
-0.488829
-0.499409
-0.508893
-0.516142
-0.512529
-0.495277
-0.478424
-0.464905
-0.454738
-0.446455
-0.441827
-0.434177
-0.425945
-0.41587
-0.407575
-0.398725
-0.389649
-0.379865
-0.36467
-0.353564
-0.343437
-0.338918
-0.342712
-0.337135
-0.343527
-0.116651
-0.130667
-0.142901
-0.15373
-0.162325
-0.198158
-0.242632
-0.298367
-0.342935
-0.359027
-0.384414
-0.413171
-0.440981
-0.4672
-0.490729
-0.508183
-0.519788
-0.527918
-0.530854
-0.525637
-0.514197
-0.501012
-0.488809
-0.47805
-0.470829
-0.461027
-0.454884
-0.45061
-0.441046
-0.43597
-0.428351
-0.41836
-0.400968
-0.38788
-0.380536
-0.369848
-0.370607
-0.370611
-0.370724
-0.371537
-0.156171
-0.164952
-0.175305
-0.184597
-0.19037
-0.228312
-0.290071
-0.300357
-0.32625
-0.36855
-0.407628
-0.442436
-0.469857
-0.490145
-0.508702
-0.523089
-0.53514
-0.544182
-0.547791
-0.544446
-0.538776
-0.530398
-0.520489
-0.511408
-0.502322
-0.491888
-0.482914
-0.474315
-0.463204
-0.454128
-0.44492
-0.432754
-0.425394
-0.416627
-0.410883
-0.389635
-0.383264
-0.408322
-0.41251
-0.412747
-0.200157
-0.204851
-0.211507
-0.223077
-0.19833
-0.257565
-0.273877
-0.288714
-0.340275
-0.370786
-0.391488
-0.43211
-0.476339
-0.500543
-0.519667
-0.53353
-0.54759
-0.559142
-0.560219
-0.557213
-0.553153
-0.549822
-0.545403
-0.537535
-0.526752
-0.513997
-0.501185
-0.490595
-0.481352
-0.472004
-0.461716
-0.452788
-0.447458
-0.440089
-0.435188
-0.428048
-0.44284
-0.445099
-0.440821
-0.434943
-0.234738
-0.238736
-0.243061
-0.245785
-0.260082
-0.281047
-0.316895
-0.338807
-0.362892
-0.392638
-0.420855
-0.451057
-0.478079
-0.50374
-0.531081
-0.534631
-0.545845
-0.556251
-0.547971
-0.557212
-0.555938
-0.553507
-0.550676
-0.545528
-0.537114
-0.52727
-0.517022
-0.509891
-0.500881
-0.487934
-0.487166
-0.473928
-0.47431
-0.474443
-0.470156
-0.452787
-0.476113
-0.477181
-0.469214
-0.468871
-0.26441
-0.273026
-0.264434
-0.275225
-0.268203
-0.323062
-0.338183
-0.374315
-0.405179
-0.434337
-0.462629
-0.48302
-0.494957
-0.509542
-0.517596
-0.526939
-0.555087
-0.549728
-0.564794
-0.546105
-0.549755
-0.559488
-0.557602
-0.552728
-0.548056
-0.542281
-0.527922
-0.519657
-0.51373
-0.508191
-0.507122
-0.510891
-0.487545
-0.502721
-0.504317
-0.500213
-0.516759
-0.510946
-0.499574
-0.499698
-0.29471
-0.309123
-0.313145
-0.345445
-0.339303
-0.37771
-0.401342
-0.43749
-0.464107
-0.487852
-0.519315
-0.514009