/*--------------------------------*- C++ -*----------------------------------*\
  =========                 |
  \\      /  F ield         | OpenFOAM: The Open Source CFD Toolbox
   \\    /   O peration     | Website:  https://openfoam.org
    \\  /    A nd           | Version:  8
     \\/     M anipulation  |
\*---------------------------------------------------------------------------*/
FoamFile
{
    version     2.0;
    format      ascii;
    class       surfaceScalarField;
    location    "3.45";
    object      phi;
}
// * * * * * * * * * * * * * * * * * * * * * * * * * * * * * * * * * * * * * //

dimensions      [0 3 -1 0 0 0 0];

internalField   nonuniform List<scalar> 
18095
(
1.97278e-08
-1.71977e-07
1.52249e-07
2.3144e-08
-1.97888e-07
1.94471e-07
1.99867e-08
-2.05914e-07
2.09072e-07
1.08945e-08
-2.10883e-07
2.19975e-07
-4.41153e-10
-2.13449e-07
2.24785e-07
-1.15172e-08
-2.13112e-07
2.24188e-07
-2.01756e-08
-2.10761e-07
2.1942e-07
-2.32449e-08
-2.0609e-07
2.09159e-07
-1.97438e-08
-1.97954e-07
1.94453e-07
-1.71972e-07
1.52228e-07
1.55561e-08
-1.87533e-07
1.59376e-08
-1.98269e-07
1.19962e-08
-2.01973e-07
6.12642e-09
-2.05013e-07
-5.67581e-10
-2.06755e-07
-6.50941e-09
-2.0717e-07
-1.1949e-08
-2.05322e-07
-1.59081e-08
-2.0213e-07
-1.5577e-08
-1.98286e-07
-1.87549e-07
6.8366e-09
-1.94369e-07
8.33666e-09
-1.99769e-07
7.3545e-09
-2.00991e-07
4.6938e-09
-2.02353e-07
6.69181e-10
-2.02731e-07
-3.70177e-09
-2.02799e-07
-7.1923e-09
-2.01831e-07
-8.36387e-09
-2.00959e-07
-6.84008e-09
-1.99809e-07
-1.94389e-07
4.54902e-09
-1.98918e-07
4.70907e-09
-1.99929e-07
3.60608e-09
-1.99888e-07
1.65802e-09
-2.00405e-07
-3.35093e-10
-2.00737e-07
-2.23818e-09
-2.00896e-07
-3.72207e-09
-2.00347e-07
-4.69738e-09
-1.99984e-07
-4.53541e-09
-1.99971e-07
-1.98924e-07
1.08171e-09
1.15254e-09
1.26484e-09
8.60222e-10
1.22732e-10
-7.73343e-10
-1.1206e-09
-1.10417e-09
-1.07553e-09
-2.73018e-08
-1.96504e-07
2.23806e-07
-2.99724e-08
-1.9887e-07
2.01541e-07
-2.55143e-08
-2.00769e-07
1.96311e-07
-1.54094e-08
-2.00771e-07
1.90666e-07
-1.9823e-09
-2.01736e-07
1.88309e-07
1.21168e-08
-2.02022e-07
1.87923e-07
2.39624e-08
-2.01923e-07
1.90077e-07
2.94856e-08
-2.01776e-07
1.96253e-07
2.72023e-08
-1.99052e-07
2.01335e-07
-1.96575e-07
2.23778e-07
-9.76418e-09
-1.8674e-07
-1.53643e-08
-1.9327e-07
-1.29996e-08
-2.03134e-07
-5.31732e-09
-2.08453e-07
1.40043e-09
-2.08454e-07
7.82755e-09
-2.08449e-07
1.40968e-08
-2.08192e-07
1.51563e-08
-2.02836e-07
9.58787e-09
-1.93484e-07
-1.86988e-07
-1.05744e-08
-1.76166e-07
-8.65991e-09
-1.95185e-07
-7.06981e-09
-2.04724e-07
-5.57095e-09
-2.09952e-07
-9.52067e-10
-2.13073e-07
3.74852e-09
-2.1315e-07
5.9201e-09
-2.10364e-07
8.227e-09
-2.05143e-07
1.05081e-08
-1.95765e-07
-1.76479e-07
-6.44542e-09
-1.6972e-07
-8.13219e-09
-1.93498e-07
-7.42014e-09
-2.05436e-07
-2.76129e-09
-2.14611e-07
5.7728e-10
-2.16412e-07
4.3296e-09
-2.16902e-07
9.14808e-09
-2.15182e-07
9.23249e-09
-2.05227e-07
6.81781e-09
-1.9335e-07
-1.69662e-07
-1.74714e-08
-1.64981e-08
-1.28627e-08
-7.49845e-09
8.74811e-10
8.16091e-09
1.23984e-08
1.63302e-08
1.74335e-08
3.49673e-08
-1.56864e-07
1.21897e-07
3.8426e-08
-1.97927e-07
1.94468e-07
2.79316e-08
-2.09747e-07
2.20242e-07
1.146e-08
-2.15471e-07
2.31942e-07
-6.50464e-09
-2.17781e-07
2.35746e-07
-2.28821e-08
-2.17859e-07
2.34236e-07
-3.42424e-08
-2.16514e-07
2.27875e-07
-4.00555e-08
-2.11264e-07
2.17078e-07
-3.48169e-08
-1.98928e-07
1.93689e-07
-1.57644e-07
1.22827e-07
1.76609e-08
-1.74525e-07
2.11005e-08
-2.01367e-07
1.88855e-08
-2.07532e-07
1.3232e-08
-2.09817e-07
4.16988e-09
-2.08719e-07
-5.45867e-09
-2.0823e-07
-1.38288e-08
-2.08144e-07
-1.83212e-08
-2.06772e-07
-1.65714e-08
-2.00678e-07
-1.74215e-07
9.51615e-09
-1.84041e-07
9.35201e-09
-2.01203e-07
7.70306e-09
-2.05883e-07
2.86261e-09
-2.04977e-07
-1.15149e-09
-2.04705e-07
-4.89393e-09
-2.04488e-07
-8.80106e-09
-2.04237e-07
-1.00042e-08
-2.05569e-07
-9.70647e-09
-2.00975e-07
-1.83921e-07
7.43527e-09
-1.91477e-07
5.92306e-09
-1.9969e-07
6.4374e-09
-2.06397e-07
1.43918e-09
-1.99979e-07
-8.28731e-11
-2.03183e-07
-1.67088e-09
-2.029e-07
-6.27401e-09
-1.99634e-07
-5.66704e-09
-2.06176e-07
-7.34927e-09
-1.99293e-07
-1.91271e-07
3.23292e-08
3.41799e-08
2.40936e-08
1.47812e-08
-9.26188e-11
-1.50696e-08
-2.46263e-08
-3.45492e-08
-3.2507e-08
4.70489e-07
2.64886e-08
-4.96977e-07
4.33519e-07
3.69701e-08
3.86031e-07
4.74872e-08
3.34326e-07
5.17048e-08
2.83017e-07
5.1309e-08
2.35951e-07
4.7066e-08
1.92281e-07
4.36701e-08
1.49031e-07
4.325e-08
1.06369e-07
4.2662e-08
4.23507e-08
6.40184e-08
5.76047e-07
2.25794e-08
-5.72138e-07
5.6043e-07
5.25871e-08
5.18331e-07
8.95866e-08
4.63133e-07
1.06902e-07
4.08864e-07
1.05579e-07
3.61768e-07
9.41609e-08
3.21057e-07
8.43816e-08
2.74549e-07
8.97581e-08
2.17002e-07
1.00209e-07
1.06515e-07
1.52838e-07
5.14003e-07
-1.58036e-08
-4.7562e-07
5.30812e-07
3.57778e-08
5.04943e-07
1.15456e-07
4.65475e-07
1.4637e-07
4.28725e-07
1.42328e-07
4.00992e-07
1.21894e-07
3.81451e-07
1.03923e-07
3.69664e-07
1.01545e-07
3.61951e-07
1.07923e-07
1.34355e-07
3.3411e-07
3.82418e-07
-1.07455e-07
-2.90766e-07
3.91923e-07
2.62724e-08
3.9225e-07
1.15129e-07
3.83137e-07
1.55483e-07
3.78095e-07
1.4737e-07
3.88566e-07
1.11422e-07
3.98688e-07
9.38005e-08
3.96243e-07
1.0399e-07
3.96631e-07
1.07535e-07
1.20412e-07
4.10574e-07
-1.02799e-07
-2.17712e-07
2.13056e-07
2.46906e-09
-7.89959e-08
1.00676e-07
1.69216e-08
2.25086e-07
3.10723e-08
3.2178e-07
5.06763e-08
3.969e-07
3.63028e-08
4.56977e-07
3.37232e-08
4.83239e-07
7.77282e-08
4.76027e-07
1.14747e-07
1.51745e-07
4.44693e-07
-4.15243e-07
-2.92466e-07
4.89997e-07
-2.82034e-07
-2.12205e-07
-1.13302e-07
-1.5181e-07
3.54267e-08
-1.17657e-07
1.56953e-07
-7.08501e-08
2.32934e-07
-3.9678e-08
2.80145e-07
-1.34882e-08
3.13788e-07
4.40851e-08
3.01384e-07
1.27151e-07
1.91408e-07
2.61721e-07
-7.65344e-07
-2.62929e-07
7.35807e-07
-7.22775e-07
-2.54774e-07
-6.60758e-07
-2.13826e-07
-6.27533e-07
-1.50882e-07
-5.81626e-07
-1.16758e-07
-5.2179e-07
-9.95134e-08
-4.58317e-07
-7.69612e-08
-3.99954e-07
-1.42784e-08
-3.52845e-07
8.00424e-08
1.14101e-07
-2.75538e-07
-8.41123e-07
-2.50663e-07
8.28858e-07
-8.56894e-07
-2.39004e-07
-8.61939e-07
-2.08781e-07
-8.53058e-07
-1.59763e-07
-8.34996e-07
-1.3482e-07
-8.2689e-07
-1.07619e-07
-8.15984e-07
-8.78668e-08
-7.72917e-07
-5.73463e-08
-6.90621e-07
-2.25281e-09
9.41734e-09
-5.85938e-07
-8.37813e-07
-2.53495e-07
8.40645e-07
-8.30005e-07
-2.46811e-07
-8.15424e-07
-2.23363e-07
-7.85628e-07
-1.89559e-07
-7.40332e-07
-1.80117e-07
-6.91561e-07
-1.5639e-07
-6.45695e-07
-1.33733e-07
-5.85596e-07
-1.17445e-07
-4.99888e-07
-8.79614e-08
-7.37522e-08
-4.16718e-07
-8.16484e-07
-2.8849e-07
8.51479e-07
-7.71574e-07
-2.91721e-07
-7.05364e-07
-2.89572e-07
-6.40125e-07
-2.54798e-07
-5.56791e-07
-2.63451e-07
-4.55237e-07
-2.57944e-07
-3.62125e-07
-2.26846e-07
-2.52497e-07
-2.27073e-07
-1.62247e-07
-1.78212e-07
-1.47818e-07
-8.81807e-08
-8.64011e-07
-2.96321e-07
8.71842e-07
-8.50302e-07
-3.05429e-07
-8.08761e-07
-3.31114e-07
-7.17773e-07
-3.45786e-07
-6.27728e-07
-3.53497e-07
-5.37416e-07
-3.48255e-07
-4.30216e-07
-3.34045e-07
-2.96924e-07
-3.60365e-07
-1.48407e-07
-3.26729e-07
-2.68622e-07
-2.7603e-08
-8.49989e-07
-3.15262e-07
8.6893e-07
-8.2578e-07
-3.29638e-07
-8.15648e-07
-3.41246e-07
-8.12328e-07
-3.49106e-07
-7.96742e-07
-3.69083e-07
-7.48997e-07
-3.96e-07
-6.65244e-07
-4.17798e-07
-6.03615e-07
-4.21995e-07
-4.82083e-07
-4.4826e-07
-4.65015e-07
-2.85689e-07
-9.55951e-07
-3.00703e-07
9.41392e-07
-9.74384e-07
-3.11204e-07
-9.85003e-07
-3.30627e-07
-9.79919e-07
-3.5419e-07
-9.71243e-07
-3.77759e-07
-9.61852e-07
-4.05392e-07
-9.35319e-07
-4.44331e-07
-8.53791e-07
-5.03523e-07
-7.36065e-07
-5.65985e-07
-5.94692e-07
-6.06388e-07
-9.87018e-07
-2.61436e-07
9.47751e-07
-1.03635e-06
-2.61877e-07
-1.07484e-06
-2.92129e-07
-1.0887e-06
-3.40329e-07
-1.09148e-06
-3.74986e-07
-1.08888e-06
-4.07989e-07
-1.08442e-06
-4.48787e-07
-1.0589e-06
-5.2905e-07
-9.89303e-07
-6.35579e-07
-7.29761e-07
-8.54234e-07
-8.55099e-07
-2.17566e-07
8.11229e-07
-9.43724e-07
-1.73253e-07
-1.05394e-06
-1.81917e-07
-1.09498e-06
-2.99286e-07
-1.08882e-06
-3.81146e-07
-1.07986e-06
-4.16947e-07
-1.08859e-06
-4.40062e-07
-1.08859e-06
-5.29049e-07
-1.03926e-06
-6.8491e-07
-8.17787e-07
-9.51232e-07
-5.89463e-07
-2.27662e-07
5.99559e-07
-6.89465e-07
-7.32515e-08
-8.45542e-07
-2.58393e-08
-9.51715e-07
-1.93114e-07
-9.72296e-07
-3.60564e-07
-9.39409e-07
-4.49833e-07
-8.66386e-07
-5.13084e-07
-7.85995e-07
-6.09439e-07
-7.15154e-07
-7.5575e-07
-8.69703e-07
-6.63238e-07
-3.83724e-07
-2.85777e-07
4.41839e-07
-2.63429e-07
-1.93545e-07
-2.01681e-07
-8.75876e-08
-2.10399e-07
-1.84396e-07
-2.2653e-07
-3.44432e-07
-1.99252e-07
-4.77111e-07
-1.30513e-07
-5.81823e-07
-7.5071e-08
-6.64881e-07
-5.91497e-08
-7.71671e-07
-8.7279e-07
-5.60632e-08
-1.42135e-07
-2.86049e-07
1.42408e-07
-4.95305e-08
-2.8615e-07
9.426e-08
-2.31377e-07
1.80262e-07
-2.70397e-07
1.99402e-07
-3.63572e-07
2.02649e-07
-4.80357e-07
1.7928e-07
-5.58455e-07
1.34334e-07
-6.19935e-07
7.29076e-08
-7.10245e-07
-8.21708e-07
2.18268e-08
8.81019e-08
-3.05706e-07
-6.84445e-08
8.31667e-08
-2.81215e-07
1.30158e-07
-2.78368e-07
2.16199e-07
-3.56438e-07
2.77954e-07
-4.25327e-07
2.74316e-07
-4.76718e-07
2.48475e-07
-5.32613e-07
1.9179e-07
-5.6325e-07
1.38248e-07
-6.56703e-07
-7.62782e-07
7.9324e-08
1.37939e-07
-3.41002e-07
-1.02644e-07
1.89871e-07
-3.33147e-07
2.37321e-07
-3.25818e-07
2.45704e-07
-3.64821e-07
2.60245e-07
-4.39868e-07
2.48489e-07
-4.64962e-07
1.96894e-07
-4.81018e-07
1.4681e-07
-5.13164e-07
1.37892e-07
-6.47785e-07
-7.21003e-07
9.6113e-08
1.11881e-07
-3.60939e-07
-9.1944e-08
1.52284e-07
-3.7355e-07
2.07242e-07
-3.80775e-07
2.20253e-07
-3.77832e-07
1.97816e-07
-4.17431e-07
1.39047e-07
-4.06192e-07
6.16326e-08
-4.03603e-07
2.42343e-08
-4.75765e-07
3.40703e-08
-6.5762e-07
-7.10551e-07
2.36174e-08
9.22508e-08
-4.16163e-07
-3.70267e-08
1.24753e-07
-4.06052e-07
1.45457e-07
-4.01479e-07
1.50149e-07
-3.82523e-07
1.20744e-07
-3.88026e-07
6.44257e-08
-3.49874e-07
1.03384e-08
-3.49515e-07
-3.74556e-09
-4.61683e-07
-2.27603e-08
-6.38605e-07
-6.71286e-07
-6.20248e-08
8.48573e-08
-4.53587e-07
-4.74334e-08
1.41453e-07
-4.62649e-07
1.90758e-07
-4.50785e-07
2.12007e-07
-4.03772e-07
1.80003e-07
-3.56022e-07
1.51088e-07
-3.20957e-07
1.02164e-07
-3.0059e-07
7.82454e-08
-4.37764e-07
5.44775e-08
-6.14837e-07
-6.13735e-07
-3.0736e-09
1.96678e-07
-4.59547e-07
-1.90717e-07
2.38042e-07
-5.04013e-07
2.91182e-07
-5.03924e-07
3.53982e-07
-4.66572e-07
3.84734e-07
-3.86774e-07
3.79321e-07
-3.15545e-07
3.58957e-07
-2.80226e-07
3.23703e-07
-4.0251e-07
2.41165e-07
-5.32299e-07
-5.27444e-07
1.54872e-07
3.66123e-07
-4.50951e-07
-3.7472e-07
3.97779e-07
-5.35669e-07
4.28266e-07
-5.34411e-07
4.52506e-07
-4.90814e-07
4.6745e-07
-4.01717e-07
4.81957e-07
-3.30052e-07
5.10728e-07
-3.08997e-07
4.59234e-07
-3.51016e-07
3.3751e-07
-4.10575e-07
-4.43616e-07
2.53683e-07
5.3634e-07
-4.75789e-07
-5.11498e-07
5.26532e-07
-5.25858e-07
5.16759e-07
-5.24639e-07
4.94184e-07
-4.68238e-07
4.7285e-07
-3.80383e-07
4.78591e-07
-3.35794e-07
4.88913e-07
-3.19319e-07
4.63927e-07
-3.2603e-07
3.99114e-07
-3.45763e-07
-3.69017e-07
3.24516e-07
6.29285e-07
-4.58225e-07
-6.46849e-07
5.85999e-07
-4.82572e-07
5.31879e-07
-4.70518e-07
4.63339e-07
-3.99697e-07
4.33375e-07
-3.50418e-07
4.28302e-07
-3.30721e-07
4.29748e-07
-3.20766e-07
4.25851e-07
-3.22133e-07
4.04547e-07
-3.24459e-07
-3.36957e-07
3.72486e-07
5.75178e-07
-4.10068e-07
-6.23334e-07
5.07379e-07
-4.14773e-07
4.31001e-07
-3.94141e-07
3.96788e-07
-3.65484e-07
3.91328e-07
-3.44958e-07
3.96553e-07
-3.35947e-07
4.12461e-07
-3.36673e-07
4.21532e-07
-3.31204e-07
4.23829e-07
-3.26756e-07
-3.41253e-07
4.28125e-07
4.68791e-07
-3.49738e-07
-5.29121e-07
4.1713e-07
-3.63111e-07
3.82097e-07
-3.59109e-07
3.66551e-07
-3.49938e-07
3.69265e-07
-3.47672e-07
3.96566e-07
-3.63248e-07
4.34716e-07
-3.74823e-07
4.72485e-07
-3.68972e-07
5.13329e-07
-3.676e-07
-3.9473e-07
5.66806e-07
4.65662e-07
-3.13118e-07
-5.02283e-07
4.20907e-07
-3.18356e-07
3.8571e-07
-3.23912e-07
3.71511e-07
-3.35739e-07
3.75518e-07
-3.51679e-07
4.08492e-07
-3.96222e-07
4.79142e-07
-4.45472e-07
5.76772e-07
-4.66603e-07
6.97687e-07
-4.88516e-07
-5.41344e-07
8.44301e-07
4.87419e-07
-2.70083e-07
-5.30453e-07
4.41124e-07
-2.72062e-07
4.0053e-07
-2.83318e-07
3.69803e-07
-3.05012e-07
3.55044e-07
-3.3692e-07
4.19006e-07
-4.60184e-07
5.80458e-07
-6.06925e-07
7.86591e-07
-6.72735e-07
9.56451e-07
-6.58376e-07
-6.52906e-07
1.06801e-06
4.43854e-07
-2.30337e-07
-4.836e-07
3.92605e-07
-2.20813e-07
3.40025e-07
-2.30737e-07
2.86956e-07
-2.51944e-07
2.86853e-07
-3.36817e-07
5.11737e-07
-6.85069e-07
8.06348e-07
-9.01536e-07
1.01734e-06
-8.83732e-07
1.1009e-06
-7.41927e-07
-6.59241e-07
1.10723e-06
3.40782e-07
-1.60592e-07
-4.10527e-07
2.71245e-07
-1.51275e-07
2.09771e-07
-1.69263e-07
1.26809e-07
-1.68982e-07
2.81275e-07
-4.91282e-07
6.2557e-07
-1.02936e-06
8.81788e-07
-1.15775e-06
9.13885e-07
-9.15829e-07
8.05651e-07
-6.33692e-07
-4.80678e-07
6.27087e-07
2.3668e-07
-6.36323e-08
-3.3364e-07
1.50719e-07
-6.53147e-08
4.38466e-08
-6.23899e-08
-2.406e-08
-1.01076e-07
2.19037e-07
-7.34379e-07
3.99437e-07
-1.20976e-06
4.22334e-07
-1.18065e-06
1.93298e-07
-6.86793e-07
4.00803e-09
-4.44402e-07
-3.69687e-07
-1.06983e-07
2.04232e-07
6.35392e-08
-3.31404e-07
6.27633e-08
7.61539e-08
-9.60336e-08
9.64071e-08
-9.50775e-08
-1.02032e-07
4.33564e-10
-8.2989e-07
2.40177e-08
-1.23335e-06
3.70091e-08
-1.19364e-06
-4.66673e-08
-6.03116e-07
-9.05239e-08
-4.00545e-07
-3.31076e-07
-1.29134e-07
7.14493e-08
1.81423e-07
-1.89333e-07
-5.21222e-08
1.99725e-07
-1.30704e-07
1.74989e-07
-6.29699e-08
-1.69766e-07
-1.19689e-07
-7.73171e-07
-9.12414e-08
-1.2618e-06
-4.60047e-08
-1.23888e-06
-1.10275e-08
-6.38094e-07
-1.59944e-08
-3.95578e-07
-3.48435e-07
1.3643e-09
-1.72029e-08
1.47748e-07
5.08779e-08
7.50392e-09
1.75018e-07
5.47351e-08
1.27758e-07
3.71862e-08
-1.52217e-07
-1.96679e-08
-7.16317e-07
-3.66301e-09
-1.2778e-06
1.59482e-08
-1.25849e-06
1.62783e-07
-7.84928e-07
1.20141e-07
-3.52936e-07
-3.157e-07
8.74053e-08
-3.05035e-10
9.32706e-08
5.47824e-08
7.52322e-08
9.94813e-08
1.56949e-07
4.60409e-08
1.04179e-07
-9.9447e-08
1.61504e-07
-7.73641e-07
2.01877e-07
-1.31817e-06
2.23092e-07
-1.2797e-06
3.44851e-07
-9.06687e-07
2.20454e-07
-2.2854e-07
-2.08101e-07
1.12855e-07
-9.23858e-08
-4.75615e-09
1.90413e-07
5.11309e-08
-4.40359e-08
1.57651e-07
-6.04792e-08
1.4348e-07
-8.52757e-08
2.54477e-07
-8.84638e-07
2.93661e-07
-1.35736e-06
3.2116e-07
-1.3072e-06
2.54385e-07
-8.39911e-07
1.14591e-07
-8.87457e-08
-1.09635e-07
1.61261e-08
-1.19949e-08
-8.88476e-08
9.60864e-08
5.28483e-08
-1.0888e-07
7.58949e-08
-8.35258e-08
6.44665e-08
-7.38469e-08
1.87254e-07
-1.00743e-06
2.52893e-07
-1.423e-06
2.7366e-07
-1.32797e-06
4.94918e-08
-6.15744e-07
-5.57215e-08
1.64679e-08
-4.69163e-08
-1.1844e-07
7.17678e-08
-1.29174e-07
-3.1442e-08
9.28417e-08
-1.29953e-07
1.09113e-07
-9.97972e-08
1.11878e-07
-7.66114e-08
2.24378e-07
-1.11993e-06
2.65093e-07
-1.46371e-06
1.92258e-07
-1.25513e-06
-1.5777e-07
-2.65716e-07
-1.90109e-07
4.88072e-08
-2.66711e-08
-2.10355e-07
9.62234e-08
-1.39989e-07
-8.54076e-08
1.08742e-07
-1.42472e-07
1.29377e-07
-1.20432e-07
1.36848e-07
-8.40821e-08
2.88556e-07
-1.27163e-06
3.17644e-07
-1.4928e-06
8.79516e-08
-1.02544e-06
-2.13148e-07
3.53851e-08
-2.05429e-07
4.10879e-08
8.43606e-09
-2.40536e-07
1.25287e-07
-1.21112e-07
-1.44165e-07
1.13839e-07
-1.31024e-07
9.35207e-08
-1.00114e-07
9.59866e-08
-8.6548e-08
2.37465e-07
-1.41311e-06
2.49334e-07
-1.50467e-06
-1.70531e-07
-6.05576e-07
-3.26171e-07
1.91025e-07
-3.57832e-07
7.27483e-08
3.52796e-09
-3.52923e-07
4.29615e-08
-6.56931e-08
-9.83801e-08
-2.27774e-08
-6.52851e-08
-1.06618e-07
-1.62732e-08
9.63459e-09
-2.02801e-07
5.06731e-08
-1.45415e-06
-4.3553e-09
-1.44964e-06
-3.75351e-07
-2.3458e-07
-3.38553e-07
1.54227e-07
-2.25701e-07
-4.0104e-08
-7.33268e-08
-1.48847e-07
-2.67375e-07
-9.35365e-08
2.95219e-07
-1.65287e-07
-1.67372e-07
-1.67413e-07
-1.41479e-08
2.16038e-09
-3.72375e-07
-1.68772e-08
-1.43511e-06
-7.57448e-08
-1.39077e-06
-1.70347e-07
-1.39979e-07
-4.74591e-08
3.13388e-08
-2.15268e-08
-6.6037e-08
-2.72039e-08
-6.76495e-08
-5.26691e-07
-1.38262e-07
5.71418e-07
-5.28818e-07
-1.65251e-07
-4.22063e-07
-1.20899e-07
1.61794e-08
-8.10617e-07
-2.12065e-08
-1.39773e-06
-3.10365e-08
-1.38094e-06
-1.0512e-07
-6.5897e-08
-6.74887e-08
-6.29138e-09
-7.01169e-08
-6.34079e-08
-9.67787e-08
-5.4242e-10
-1.70321e-07
-1.53212e-07
1.8527e-07
-7.10962e-08
-2.64477e-07
8.54455e-08
-2.77441e-07
-3.70058e-08
-6.88166e-07
-3.53581e-08
-1.39937e-06
-4.12847e-08
-1.37502e-06
1.46723e-07
-2.53905e-07
9.50062e-08
4.54272e-08
1.73765e-07
-1.42166e-07
-8.78711e-08
1.6486e-07
1.19271e-08
-1.61772e-07
-3.36561e-09
6.46566e-08
-3.17207e-07
-1.49742e-08
-1.97811e-07
1.89475e-08
-7.22081e-07
-8.40271e-09
-1.37203e-06
-1.05227e-08
-1.3729e-06
4.12702e-07
-6.77128e-07
1.62934e-07
2.95195e-07
-1.87534e-08
3.95206e-08
-5.83741e-08
-4.82542e-08
5.77307e-09
-2.68029e-07
1.00482e-07
-1.21486e-07
-1.89955e-07
-3.17196e-07
-2.10126e-09
1.22317e-08
-1.0515e-06
1.28527e-10
-1.35993e-06
-4.81118e-09
-1.36796e-06
4.36049e-07
-1.11799e-06
2.91004e-07
4.40242e-07
1.86788e-07
1.43736e-07
-1.48703e-07
2.77119e-07
-1.34792e-07
-3.81031e-07
2.47791e-07
-2.02495e-07
-1.22257e-07
-2.19574e-07
1.49803e-08
3.8657e-09
-1.27495e-06
-3.65585e-09
-1.3524e-06
-1.4811e-08
-1.3568e-06
2.63134e-07
-1.39594e-06
8.31157e-07
-1.27775e-07
9.3454e-07
4.03502e-08
-1.06873e-07
8.9271e-07
-6.34571e-07
-3.10199e-07
5.63733e-07
-5.34355e-07
-2.22497e-07
-1.11571e-07
-4.07804e-07
-2.3303e-08
-1.36322e-06
-1.82868e-08
-1.35742e-06
-2.87242e-08
-1.34637e-06
-6.81047e-08
-1.35655e-06
2.96743e-07
-4.9263e-07
4.3197e-07
-9.48692e-08
-7.00284e-08
3.95123e-07
-3.37701e-07
-2.8733e-07
3.14829e-07
-2.22904e-07
-3.3729e-07
7.59414e-08
-7.06648e-07
5.37925e-08
-1.34107e-06
3.90115e-08
-1.34264e-06
4.40581e-08
-1.35141e-06
2.22213e-08
-1.33471e-06
8.78364e-08
-5.58247e-07
5.39922e-08
-6.10314e-08
-4.09417e-08
2.49002e-08
-8.19704e-08
-2.91995e-07
8.6635e-08
-6.31402e-08
-3.56134e-07
2.16452e-08
-7.91441e-07
8.05173e-09
-1.32747e-06
9.04263e-09
-1.34363e-06
-9.88439e-10
-1.34138e-06
-8.52854e-09
-1.32717e-06
4.68833e-08
-6.13661e-07
4.44598e-08
-5.86046e-08
-5.94538e-09
9.46213e-09
-4.1604e-08
-2.71708e-07
2.13187e-08
1.11582e-08
-4.089e-07
3.25417e-08
-8.12828e-07
2.56466e-08
-1.32059e-06
1.60989e-08
-1.33408e-06
1.53439e-08
-1.34063e-06
7.33193e-09
-1.31915e-06
2.3104e-08
-6.29437e-07
2.26972e-08
-5.81977e-08
3.27874e-08
-1.60382e-08
1.83885e-08
-2.6445e-07
-2.56496e-08
4.7863e-08
-4.38362e-07
1.31342e-08
-7.78089e-07
2.9426e-09
-1.3104e-06
-3.37072e-10
-1.3308e-06
-1.3436e-08
-1.32753e-06
-2.20516e-08
-1.31054e-06
-2.90331e-08
-6.22457e-07
-2.47244e-08
-6.25039e-08
5.30362e-08
-4.49713e-08
8.85354e-08
-2.73956e-07
-7.9033e-08
9.99016e-08
-4.49748e-07
3.59751e-08
-7.14166e-07
1.78381e-08
-1.29227e-06
9.17472e-10
-1.31388e-06
-1.07278e-08
-1.31588e-06
-2.73061e-08
-1.29396e-06
-8.40893e-08
-5.65675e-07
-8.68833e-08
-5.97105e-08
5.7938e-08
-9.17838e-08
1.31563e-07
-2.81207e-07
-1.24313e-07
1.1378e-07
-4.31962e-07
6.24106e-08
-6.62796e-07
1.92588e-08
-1.24912e-06
-1.84297e-09
-1.29278e-06
-2.29442e-08
-1.29478e-06
-6.36257e-08
-1.25328e-06
-1.25372e-07
-5.03928e-07
-1.35131e-07
-4.99543e-08
5.79372e-08
-1.35129e-07
1.40707e-07
-2.84404e-07
-1.37512e-07
1.09561e-07
-4.00819e-07
7.29372e-08
-6.26175e-07
2.20561e-08
-1.19824e-06
-9.51594e-10
-1.26977e-06
-2.66981e-08
-1.26903e-06
-7.16277e-08
-1.20835e-06
-1.10072e-07
-4.65483e-07
-1.33224e-07
-2.6801e-08
6.29569e-08
-1.38244e-07
1.27632e-07
-2.7795e-07
-1.34082e-07
8.00258e-08
-3.53218e-07
4.31189e-08
-5.89259e-07
2.56562e-08
-1.18078e-06
2.36595e-10
-1.24435e-06
-2.53388e-08
-1.24346e-06
-4.48276e-08
-1.18886e-06
-6.8976e-08
-4.41333e-07
-1.04642e-07
8.86445e-09
8.97879e-08
-1.31472e-07
6.60871e-08
-2.34054e-07
-1.09983e-07
5.70999e-08
-3.44236e-07
2.26801e-08
-5.54832e-07
3.0583e-08
-1.18868e-06
1.7804e-10
-1.21394e-06
-2.38386e-08
-1.21944e-06
-2.0068e-08
-1.19263e-06
-1.52721e-08
-4.46127e-07
-3.49193e-08
2.85078e-08
1.3609e-07
-8.12207e-08
5.18318e-08
-2.36556e-07
-4.9331e-08
4.90753e-08
-3.41478e-07
4.55667e-09
-5.1031e-07
1.86728e-08
-1.2028e-06
-4.9182e-10
-1.19478e-06
-2.8897e-08
-1.19104e-06
-2.06276e-08
-1.2009e-06
-1.3825e-08
-4.52926e-07
-2.91264e-08
4.38046e-08
1.49659e-07
-4.26954e-08
7.3483e-08
-2.80748e-07
-2.92915e-08
5.76011e-08
-3.25593e-07
2.10581e-08
-4.73756e-07
2.47897e-08
-1.20654e-06
2.23279e-09
-1.17222e-06
-1.47639e-08
-1.17404e-06
-9.36779e-09
-1.2063e-06
1.64683e-08
-4.78761e-07
-1.98243e-08
8.00942e-08
1.87805e-07
-5.79729e-08
6.42168e-08
-2.90756e-07
-5.42083e-08
9.5674e-09
-2.70956e-07
2.4101e-08
-4.88288e-07
1.44315e-08
-1.19687e-06
-2.06461e-09
-1.15572e-06
-1.79031e-08
-1.1582e-06
-2.4236e-08
-1.19996e-06
1.84964e-08
-5.21496e-07
-2.45286e-08
1.23117e-07
2.50448e-07
-8.71773e-08
2.35147e-08
-2.95276e-07
-1.89948e-08
-4.23324e-08
-2.05116e-07
2.98749e-08
-5.60491e-07
1.03862e-08
-1.17738e-06
8.33199e-10
-1.14617e-06
-1.32469e-08
-1.14412e-06
-4.21139e-08
-1.17109e-06
1.67101e-08
-5.80322e-07
-2.02313e-09
1.41848e-07
3.11305e-07
-6.28849e-08
6.71735e-10
-2.61976e-07
-3.39733e-08
-4.70819e-08
-1.57364e-07
4.07749e-08
-6.48337e-07
1.62812e-08
-1.15289e-06
6.82876e-09
-1.13672e-06
-1.79545e-09
-1.1355e-06
-1.88145e-08
-1.15407e-06
4.38599e-08
-6.42999e-07
2.89207e-08
1.56785e-07
3.65354e-07
-2.513e-08
-4.85425e-08
-1.48975e-07
-6.44588e-08
-3.69369e-08
-1.68976e-07
4.15785e-08
-7.26855e-07
2.39685e-08
-1.13527e-06
1.67815e-08
-1.12953e-06
1.16304e-08
-1.13035e-06
-5.57365e-09
-1.13687e-06
4.77566e-08
-6.96332e-07
4.20301e-08
1.6251e-07
4.19619e-07
-1.22385e-08
-1.71647e-08
-8.39121e-08
-4.7896e-08
1.17275e-08
-1.97868e-07
3.28103e-08
-7.47942e-07
2.08405e-08
-1.12331e-06
1.25203e-08
-1.12121e-06
7.00604e-09
-1.12483e-06
-5.4973e-09
-1.12437e-06
3.36983e-08
-7.35528e-07
9.29026e-08
1.03306e-07
4.50895e-07
6.16234e-08
9.46675e-08
-3.20543e-08
-1.46527e-07
5.22237e-08
-1.55415e-07
2.29445e-08
-7.18654e-07
9.81113e-09
-1.11017e-06
7.16876e-10
-1.11212e-06
-1.23331e-08
-1.11178e-06
-2.4377e-08
-1.11233e-06
-1.52581e-09
-7.58381e-07
8.85846e-08
1.31966e-08
4.28396e-07
1.11081e-07
9.35491e-08
-1.77523e-08
-1.07853e-07
7.97114e-08
-1.41582e-07
3.12752e-08
-6.70227e-07
1.38158e-08
-1.09271e-06
-2.49598e-09
-1.0958e-06
-1.83776e-08
-1.0959e-06
-3.6426e-08
-1.09428e-06
-3.17137e-08
-7.63095e-07
1.40668e-08
-3.25834e-08
3.4903e-07
9.34328e-08
1.72956e-07
-2.33524e-08
-1.67353e-07
1.10206e-07
-7.88276e-08
4.54925e-08
-6.05504e-07
2.44892e-08
-1.07171e-06
2.88097e-09
-1.0742e-06
-1.53508e-08
-1.07767e-06
-3.55159e-08
-1.07412e-06
-7.01515e-08
-7.2846e-07
-7.77663e-08
-2.49678e-08
2.66967e-07
4.29474e-09
1.65937e-07
1.16955e-08
-2.00987e-07
4.60232e-08
4.10693e-08
2.79294e-08
-5.87417e-07
1.17017e-08
-1.05548e-06
-9.32875e-09
-1.05317e-06
-3.09788e-08
-1.05602e-06
-4.71239e-08
-1.05797e-06
-9.08764e-08
-6.84708e-07
-9.84816e-08
-1.73645e-08
2.32446e-07
-6.39603e-08
9.97586e-08
5.65976e-08
-1.44661e-07
5.58319e-09
1.35255e-07
4.99298e-09
-5.8682e-07
-8.31911e-09
-1.04217e-06
-2.61642e-08
-1.03532e-06
-5.55241e-08
-1.02666e-06
-6.7724e-08
-1.04577e-06
-8.36618e-08
-6.68771e-07
-9.45115e-08
-6.51676e-09
2.2245e-07
-8.45128e-08
-1.32777e-07
8.35703e-08
1.05805e-07
-6.79328e-09
9.2697e-09
5.25011e-08
-6.46127e-07
4.02016e-08
-1.02988e-06
1.14403e-08
-1.00656e-06
-7.02126e-09
-1.0082e-06
-2.12818e-08
-1.03151e-06
-4.58318e-08
-6.4422e-07
-7.39726e-08
2.16223e-08
2.30619e-07
-8.21399e-08
-8.55835e-08
7.34627e-08
9.56916e-08
3.01832e-08
-1.0648e-07
4.40172e-08
-6.5995e-07
2.61736e-08
-1.01203e-06
2.38592e-09
-9.82773e-07
-2.13494e-08
-9.84461e-07
-3.93327e-08
-1.01353e-06
-4.13841e-08
-6.42168e-07
-5.8199e-08
3.84349e-08
2.51658e-07
-7.92392e-08
-1.81444e-08
5.2956e-08
3.86479e-08
2.65117e-08
-1.51151e-07
4.39141e-08
-6.77352e-07
2.25744e-08
-9.90685e-07
-3.43941e-10
-9.59854e-07
-2.39566e-08
-9.60849e-07
-4.49761e-08
-9.92508e-07
-3.37268e-08
-6.53417e-07
-3.54829e-08
4.01902e-08
2.7688e-07
-6.07043e-08
1.00645e-09
2.25909e-08
2.93612e-08
3.24787e-08
-1.82607e-07
4.01089e-08
-6.84985e-07
1.85592e-08
-9.69135e-07
-1.24765e-09
-9.40048e-07
-2.13875e-08
-9.40709e-07
-4.24004e-08
-9.71495e-07
-2.32663e-08
-6.72551e-07
-7.37013e-09
2.42932e-08
2.80703e-07
-1.11937e-08
1.70089e-08
-8.80395e-09
1.43926e-08
3.71799e-08
-2.02753e-07
4.13944e-08
-6.89199e-07
2.03683e-08
-9.48106e-07
1.88967e-09
-9.21569e-07
-1.65319e-08
-9.22287e-07
-3.74941e-08
-9.50533e-07
-1.99823e-08
-6.90061e-07
8.16821e-09
-3.85603e-09
2.55825e-07
3.30449e-08
2.55678e-08
-2.6533e-08
-7.83562e-09
3.33216e-08
-2.10507e-07
3.63244e-08
-6.92205e-07
1.57521e-08
-9.27533e-07
-1.31734e-09
-9.045e-07
-1.97168e-08
-9.03888e-07
-4.05014e-08
-9.29748e-07
-3.17413e-08
-6.98821e-07
-6.48262e-09
-2.91119e-08
2.1833e-07
3.10104e-08
1.14426e-07
-5.593e-08
-8.50291e-08
8.06786e-08
-1.76764e-07
4.04768e-08
-6.52002e-07
1.86184e-08
-9.05672e-07
2.59919e-10
-8.86141e-07
-1.77373e-08
-8.85891e-07
-3.9221e-08
-9.08264e-07
-4.32602e-08
-6.94783e-07
-3.42685e-08
-3.8101e-08
1.78979e-07
5.08278e-09
6.07349e-08
-7.28549e-08
-4.38111e-08
5.37513e-08
-1.69788e-07
4.17422e-08
-6.39992e-07
1.93544e-08
-8.83283e-07
-9.49676e-11
-8.66692e-07
-1.79854e-08
-8.68e-07
-4.06746e-08
-8.85575e-07
-4.96708e-08
-6.85788e-07
-3.95822e-08
-4.81883e-08
1.4537e-07
-5.9707e-09
3.44663e-08
-8.75427e-08
-1.97788e-08
4.74132e-08
-1.82734e-07
3.94781e-08
-6.32052e-07
1.74163e-08
-8.6122e-07
-2.23969e-09
-8.47036e-07
-2.22171e-08
-8.48023e-07
-4.38652e-08
-8.63927e-07
-5.88285e-08
-6.70824e-07
-4.9861e-08
-5.7156e-08
1.13917e-07
-1.8407e-08
6.62393e-08
-1.02505e-07
-5.12775e-08
5.68964e-08
-1.73392e-07
3.82294e-08
-6.13378e-07
1.66478e-08
-8.39634e-07
-2.06194e-09
-8.28326e-07
-2.36631e-08
-8.26422e-07
-4.55865e-08
-8.42003e-07
-6.27055e-08
-6.53703e-07
-5.26109e-08
-6.72509e-08
9.70215e-08
-3.57145e-08
1.30799e-07
-6.50282e-08
-1.68274e-07
8.58669e-08
-1.28462e-07
4.55365e-08
-5.73049e-07
2.46124e-08
-8.18711e-07
6.8504e-10
-8.04398e-07
-2.27301e-08
-8.03007e-07
-4.50224e-08
-8.19711e-07
-6.11752e-08
-6.37549e-07
-6.70802e-08
-6.13457e-08
8.48757e-08
-5.49333e-08
1.15334e-07
-2.30924e-08
-1.57267e-07
7.91056e-08
-9.22245e-08
4.89254e-08
-5.42862e-07
2.65456e-08
-7.96328e-07
9.4889e-10
-7.78802e-07
-2.4832e-08
-7.77226e-07
-4.72081e-08
-7.97335e-07
-6.99955e-08
-6.14762e-07
-8.37708e-08
-4.75701e-08
8.72128e-08
-8.61077e-08
6.85072e-08
-1.57967e-08
-7.58024e-08
5.21777e-08
-7.5903e-08
5.12279e-08
-5.4192e-07
2.83135e-08
-7.73418e-07
4.84563e-10
-7.50973e-07
-2.81057e-08
-7.48636e-07
-5.19509e-08
-7.7349e-07
-7.17392e-08
-5.94973e-07
-8.88659e-08
-3.0442e-08
8.61944e-08
-8.7847e-08
1.25765e-07
-4.71301e-10
-1.4109e-07
6.49414e-08
-1.50733e-08
5.39762e-08
-5.30946e-07
2.87222e-08
-7.48162e-07
-5.61311e-10
-7.21689e-07
-3.13823e-08
-7.17815e-07
-5.73038e-08
-7.47568e-07
-6.9857e-08
-5.82419e-07
-7.2431e-08
-2.78677e-08
6.51034e-08
-5.13389e-08
1.60668e-07
2.31212e-08
-1.84263e-07
7.01093e-08
7.54709e-08
5.66328e-08
-5.1748e-07
2.72287e-08
-7.18761e-07
-3.13328e-09
-6.91327e-07
-2.84877e-08
-6.9246e-07
-5.73424e-08
-7.18714e-07
-6.61241e-08
-5.73637e-07
-5.24263e-08
-4.15669e-08
4.2161e-08
-2.94847e-08
5.0887e-08
9.62613e-08
-1.24027e-07
3.9404e-08
8.69615e-08
5.18688e-08
-5.29947e-07
2.05718e-08
-6.87467e-07
-7.94773e-09
-6.62808e-07
-3.11977e-08
-6.6921e-07
-6.18217e-08
-6.8809e-07
-7.40706e-08
-5.61388e-07
-5.83098e-08
-5.73304e-08
2.34589e-08
-3.96094e-08
2.88121e-08
1.38407e-07
-7.09598e-08
5.88608e-08
5.69133e-08
5.08148e-08
-5.21906e-07
1.94363e-08
-6.56086e-07
-3.09897e-09
-6.40273e-07
-2.94475e-08
-6.42862e-07
-5.84142e-08
-6.59123e-07
-8.11819e-08
-5.38621e-07
-7.36262e-08
-6.4888e-08
2.08104e-08
-7.09797e-08
4.80398e-08
1.39524e-07
-4.91587e-08
7.33857e-08
3.1555e-08
5.31314e-08
-5.01661e-07
2.51502e-08
-6.28105e-07
1.25403e-09
-6.16376e-07
-2.69495e-08
-6.14658e-07
-5.63807e-08
-6.29692e-07
-8.12444e-08
-5.13758e-07
-7.96173e-08
-6.65174e-08
3.70883e-08
-9.58973e-08
1.67811e-08
1.3643e-07
-1.36885e-08
5.76011e-08
-9.26244e-09
5.64509e-08
-5.00511e-07
2.7183e-08
-5.98838e-07
-2.16324e-09
-5.8703e-07
-2.76398e-08
-5.89182e-07
-6.3233e-08
-5.94099e-07
-6.28106e-08
-5.14182e-07
-4.71763e-08
-8.21527e-08
6.0784e-08
-7.08735e-08
-2.26724e-08
1.49139e-07
9.95967e-09
3.1529e-08
-6.3469e-08
6.49604e-08
-5.33945e-07
2.70267e-08
-5.60904e-07
-1.30161e-10
-5.59873e-07
-3.56554e-08
-5.53656e-07
-6.37546e-08
-5.66e-07
-3.46387e-08
-5.43298e-07
6.61358e-09
-1.23405e-07
9.13238e-08
-2.39268e-08
3.2242e-08
1.67129e-07
-5.02339e-08
7.01776e-08
-1.0141e-07
7.25337e-08
-5.36302e-07
3.8878e-08
-5.27248e-07
-2.03953e-09
-5.18956e-07
-2.62546e-08
-5.29441e-07
-6.43863e-08
-5.27868e-07
-7.36322e-08
-5.34052e-07
-3.49944e-08
-1.62044e-07
1.00179e-07
-4.38502e-08
6.56729e-08
1.6454e-07
-6.30873e-08
1.14679e-07
-1.50417e-07
4.76162e-08
-4.6924e-07
6.64656e-09
-4.86279e-07
-2.51317e-08
-4.87177e-07
-6.51918e-08
-4.89381e-07
-9.60737e-08
-4.96986e-07
-1.42113e-07
-4.88013e-07
-9.93092e-08
-2.04849e-07
8.42695e-08
-8.34017e-08
8.56891e-08
1.3489e-07
-5.60378e-08
1.17411e-07
-1.8213e-07
8.94097e-08
-4.41235e-07
5.48652e-08
-4.51734e-07
2.2982e-08
-4.55294e-07
-1.88226e-08
-4.47576e-07
-6.4227e-08
-4.51582e-07
-1.14195e-07
-4.38045e-07
-1.13692e-07
-2.05354e-07
6.04066e-08
-8.98318e-08
1.0178e-07
7.72045e-08
-4.40948e-08
1.34762e-07
-2.15123e-07
7.88913e-08
-3.85366e-07
2.87823e-08
-4.01625e-07
-1.67297e-08
-4.09782e-07
-5.15307e-08
-4.12775e-07
-9.73216e-08
-4.05791e-07
-1.44945e-07
-3.90422e-07
-1.34313e-07
-2.15987e-07
1.43741e-08
-8.82812e-08
8.17223e-08
-3.72826e-09
-7.87445e-10
1.51428e-07
-2.84831e-07
1.10257e-07
-3.44195e-07
6.89253e-08
-3.60294e-07
2.47987e-08
-3.65656e-07
-2.26139e-08
-3.65363e-07
-6.94579e-08
-3.58947e-07
-1.14688e-07
-3.45192e-07
-4.9912e-08
-2.80764e-07
-3.99882e-08
4.44978e-09
1.28836e-07
-7.60587e-08
-5.65093e-08
1.23207e-07
-2.79202e-07
7.85744e-08
-2.99562e-07
2.91392e-08
-3.10859e-07
-1.84906e-08
-3.18026e-07
-6.72182e-08
-3.16635e-07
-1.12393e-07
-3.13772e-07
-1.54394e-07