/*--------------------------------*- C++ -*----------------------------------*\
  =========                 |
  \\      /  F ield         | OpenFOAM: The Open Source CFD Toolbox
   \\    /   O peration     | Website:  https://openfoam.org
    \\  /    A nd           | Version:  8
     \\/     M anipulation  |
\*---------------------------------------------------------------------------*/
FoamFile
{
    version     2.0;
    format      ascii;
    class       volScalarField;
    location    "2.4";
    object      alpha.water;
}
// * * * * * * * * * * * * * * * * * * * * * * * * * * * * * * * * * * * * * //

dimensions      [0 0 0 0 0 0 0];

internalField   nonuniform List<scalar> 
9150
(
1
1
1
1
1
1
1
1
1
1
1
1
1
1
1
1
1
1
1
1
1
1
1
1
1
1
1
1
1
1
1
1
1
1
1
1
1
1
1
1
1
1
1
1
1
1
1
1
1
1
1
1
1
1
1
1
1
1
1
1
1
1
1
1
1
1
1
1
1
1
1
1
1
1
1
1
1
1
1
1
1
1
1
1
1
1
1
1
1
1
1
1
1
1
1
1
1
1
1
1
1
1
1
1
1
1
1
1
1
1
1
1
1
1
1
1
1
1
1
1
1
1
1
1
1
1
1
1
1
1
1
1
1
1
1
1
1
1
1
1
1
1
1
1
1
1
1
1
1
1
0.999995
0.999996
1
0.999996
0.999994
0.999994
0.999994
0.999994
0.999998
1
1
1
1
1
1
0.999999
0.999997
1
1
1
1
0.999995
0.999994
0.999994
0.999996
1
0.999999
0.999998
0.999998
0.999999
1
0.999998
0.999994
0.999994
0.999998
1
1
1
1
1
0.999999
0.999994
0.999994
0.999997
1
1
1
1
1
1
0.999997
0.999995
0.999999
1
1
1
1
1
1
1
0.999998
1
1
0.999999
1
1
1
1
1
1
1
1
1
0.999998
1
1
1
1
1
1
1
1
0.999999
0.999998
0.999999
1
1
1
1
1
1
0.999999
0.999999
0.999998
0.999999
1
1
1
1
1
1
0.999998
0.999994
0.999999
1
1
1
1
1
1
1
0.999996
0.999994
0.999994
1
1
1
1
1
1
1
0.999996
0.999994
0.999994
0.999995
1
1
1
0.999999
0.999999
1
0.999999
0.999994
0.999994
0.999994
0.999996
1
1
0.999999
0.999999
1
1
0.999997
0.999994
0.999994
0.999994
0.999998
1
1
1
1
1
1
0.999996
0.999994
0.999994
0.999995
1
1
1
1
1
1
0.999999
0.999994
0.999994
0.999998
1
1
1
0.999999
0.999999
0.999999
0.999998
0.999997
0.999999
1
1
1
1
1
0.999999
0.999998
0.999998
1
1
1
1
1
1
1
1
0.999999
0.999998
0.999998
0.999999
1
1
1
1
1
1
1
1
0.999998
0.999998
0.999998
0.999999
1
1
1
1
1
1
1
0.999998
0.999998
0.999998
1
1
1
1
1
1
1
1
0.999999
0.999999
1
1
0.99999
0.999988
1
1
1
1
1
1
1
0.999999
0.999358
0.999994
1
1
1
1
1
1
1
0.999999
0.997256
1
1
1
1
1
1
1
1
1
1
1
1
1
1
1
1
1
1
0.999999
1
1
1
1
1
1
1
1
1
0.999999
1
1
1
1
1
1
1
1
1
1
1
1
1
1
1
1
0.999999
1
1
1
1
1
1
1
0.999999
0.999996
0.999999
1
1
1
1
1
1
0.999995
0.999984
0.999994
1
1
1
1
1
0.999996
0.999965
0.99989
0.999957
1
1
1
1
1
0.999999
0.999822
0.99916
0.999385
1
1
1
1
1
1
0.999848
0.998537
0.998437
0.999402
1
1
1
1
1
1
0.998215
0.998105
0.998653
1
1
1
1
1
1
1
0.998046
0.998742
1
1
1
1
1
1
1
1
0.999273
0.999999
0.999999
1
1
1
1
1
1
1
0.999994
0.999994
0.999997
1
1
1
1
1
1
1
0.999984
0.999961
0.999985
1
1
1
1
1
1
1
0.999907
0.999964
0.999999
0.999999
0.999998
0.999999
1
1
1
1
0.999993
0.999999
0.999999
0.999992
0.999995
1
1
1
1
1
0.999999
0.999999
0.999994
0.999991
0.999992
1
1
1
0.999997
0.999986
0.999999
0.999999
0.999998
0.999996
1
1
1
1
1
0.999946
0.998979
0.999052
0.999916
0.999998
0.999996
0.999896
0.999883
1
0.999999
0.999995
0.998978
0.998983
0.999806
0.999998
0.999998
0.999993
0.999901
0.977653
0.95016
0.972371
0.999859
0.999702
0.997399
0.965602
0.958295
0.99906
0.9914
0.950133
0.950133
0.950947
0.999925
0.998142
0.919473
0.873686
0.874177
0.949191
0.998412
0.998027
0.96526
0.945387
0.999732
0.981523
0.873686
0.873554
0.873686
0.87931
0.991239
0.999991
0.99978
0.978288
0.959566
0.984295
0.945683
0.873403
0.873554
0.901346
0.999998
0.999999
0.999929
0.998058
0.811113
0.91296
0.978097
0.977121
0.948982
0.974851
1
1
0.999992
0.999986
0.810887
0.811048
0.919995
0.99997
0.999986
1
1
1
0.999999
1
0.821494
0.815817
0.942798
0.999981
0.999993
1
1
1
1
1
0.982047
0.971332
0.991885
0.999036
0.999755
0.999952
0.999995
1
0.99996
0.999824
0.949105
0.999637
0.999731
0.999731
0.99973
0.999866
0.999964
0.999996
0.999948
0.999792
0.292461
0.602805
0.932609
0.999982
0.999983
0.999981
0.999987
0.999995
0.999991
0.999951
0.0296554
0.152371
0.695432
0.997303
0.999999
0.999999
1
0.999999
1
0.999999
0.131262
0.414658
0.806587
0.995429
0.999985
1
1
1
1
1
0.788111
0.945763
0.986173
0.99756
0.999644
0.999811
1
1
1
0.999987
0.999807
0.999786
0.999896
0.999851
0.999715
0.999611
0.999739
1
0.999178
0.996335
0.999893
0.9998
0.999899
0.999896
0.999895
0.999885
0.999668
0.996562
0.995943
0.995943
0.999938
0.999912
0.99991
0.997981
0.995555
0.998918
0.998978
0.995957
0.995943
0.996281
0.999941
0.999939
0.98946
0.952161
0.952903
0.990146
0.999045
0.998813
0.998431
0.998403
0.99994
0.995341
0.955759
0.952161
0.952161
0.970757
0.999054
0.99903
0.997498
0.960111
0.999798
0.990635
0.952251
0.952161
0.956503
0.996605
0.998941
0.952911
0.717074
0.501385
0.99955
0.996408
0.969787
0.968036
0.987598
0.986659
0.730165
0.407614
0.344449
0.344449
0.999475
0.999464
0.999258
0.998861
0.893429
0.31747
0.23705
0.24469
0.463398
0.67921
0.999488
0.999433
0.995496
0.504731
0.0717996
0.0553782
0.270145
0.813677
0.998604
0.999772
0.999557
0.934866
0.307645
0.0500355
0.0502393
0.0503086
0.589488
0.997412
0.999561
0.999884
0.917468
0.295786
0.050005
0.0500513
0.0500951
0.0502358
0.662533
0.997102
0.999589
0.99989
0.326681
0.0500094
0.0499294
0.049991
0.0500389
0.116763
0.794473
0.996854
0.999596
0.999916
0.0500395
0.0499088
0.0499191
0.0499284
0.0505499
0.421317
0.959539
0.998402
0.999738
0.999944
0.0499088
0.0499088
0.0499088
0.0501958
0.121539
0.814893
0.997283
0.999506
0.999918
0.999982
0.050759
0.0499088
0.0500898
0.0528424
0.704546
0.99635
0.999379
0.999909
0.999985
0.999994
0.222812
0.0512488
0.0532151
0.484006
0.978837
0.999189
0.999886
0.999984
0.999998
0.999997
0.19781
0.0545012
0.305781
0.936632
0.999074
0.999876
0.999986
0.999998
1
0.999998
0.0612232
0.0976886
0.856828
0.998881
0.999876
0.999991
0.999999
1
1
1
0.0612232
0.63214
0.998502
0.999862
0.999986
0.999999
1
1
1
1
0.135473
0.93175
0.999748
0.999977
0.999998
1
1
1
1
1
0.524824
0.995766
0.999949
0.999998
1
1
1
1
1
1
0.633804
0.999315
0.999966
0.999998
1
1
1
1
1
1.00015
0.644472
0.999417
0.999974
0.999999
1
1
1
1
1
1
0.637384
0.999465
0.999982
0.999999
1
1
1
1
1
1.00001
0.618678
0.999716
0.999989
1
1
1
1
1
1
0.892674
0.64227
0.999526
0.999993
1
1
1
1
1
1
0.797062
0.640084
0.999046
0.999993
1
1
1
1
1
1
0.735646
0.609877
0.9995
0.999995
1
1
1
1
1
1
0.658131
0.603719
0.99978
0.999997
1
1
1
1
1
1
0.564899
0.653148
0.9999
0.999998
1
1
1
1
1
0.999999
0.48736
0.717453
0.999947
0.999999
1
1
1
1
1
0.999998
0.440197
0.773145
0.99998
1
1
1
1
0.999999
1
0.992275
0.422379
0.815532
0.999995
1
1
1
1
0.999999
0.999953
0.989063
0.421669
0.836413
1
1
1
1
1
1
0.999984
0.993338
0.454242
0.836528
1
1
1
1
1
1
0.999999
0.997261
0.489737
0.833697
0.999893
1
1
1
1
1
0.999999
0.999475
0.568202
0.845654
1
1
1
1
1
1
0.999999
0.999936
0.631068
0.872788
1
1
1
1
1
1
0.999999
0.999957
0.708286
0.896739
1
1
1
1
1
1
1
0.999979
0.787506
0.924779
1
1
1
1
1
1
1
0.999995
0.867628
0.958796
1
1
1
1
1
1
1
1
0.941247
0.999999
0.999998
0.999998
0.999999
0.999998
0.999997
0.999995
0.999995
0.999995
0.999995
0.999996
0.999995
0.999995
0.999999
0.999999
0.999999
0.999999
0.999999
1
1
1
1
1
1
1
1
1
1
1
1
1
1
1
1
1
1
1
1
1
0.994844
1
1
1
0.999999
0.999996
0.999996
1
1
1
1
1
1
1
1
1
1
1
1
1
1
1
1
1
1
1
1
1
1
0.999999
0.999998
0.999998
0.999998
1
1
1
1
1
1
1
0.995863
1
0.999997
0.999996
0.999996
0.999996
0.999998
1
0.999999
0.999999
1
1
1
1
1
1
1
1
1
1
1
1
1
1
1
1
1
1
0.999999
0.999998
0.999998
1
1
1
1
1
1
1
1
1
0.99919
1
0.999999
0.999998
1
1
1
1
1
1
1
1
1
1
1
1
1
1
1
1
1
1
1
1
1
1
0.999999
0.999999
1
1
1
1
1
1
1
1
1
1
1
1
1
1
0.999999
0.999998
0.999999
1
1
1
1
1
1
1
1
1
1
1
1
1
1
1
1
1
1
1
1
1
1
1
1
1
1
1
1
1
1
1
1
1
1
1
1
0.999999
0.999998
0.999998
0.999999
1
1
1
1
1
1
1
1
1
1
1
1
1
1
1
1
1
0.999999
0.999999
1
1
1
1
1
1
1
1
1
1
1
1
0.999996
1
1
1
1
0.999999
0.999998
0.999999
1
1
1
1
1
1
1
1
1
1
0.999999
0.999999
1
1
1
1
0.999999
0.999999
0.999999
1
1
1
1
1
1
1
1
1
0.999999
1
0.999999
0.999993
0.998939
0.991924
0.990027
0.9975
1
0.999999
0.999999
1
1
1
1
1
1
1
1
1
0.999999
0.999998
0.999998
1
1
1
1
0.999999
0.999999
0.999999
1
1
1
1
1
1
1
1
0.999999
0.999997
0.999997
0.999999
0.999999
0.999995
0.991777
0.870667
0.826671
0.821057
0.842956
1
1
1
1
1
1
0.999997
0.999984
0.99998
0.999992
1
1
0.999999
0.999998
1
1
1
0.999999
0.999998
0.999999
0.999999
0.999999
1
1
1
1
1
1
0.999998
0.999996
0.999996
0.999996
0.999999
0.999999
1
0.99247
0.861662
0.810458
0.810423
0.810424
1
1
0.999994
0.999983
0.999996
1
0.999973
0.999875
0.999875
0.999934
1
1
0.999998
0.999997
0.999999
1
1
1
0.999998
0.999995
0.999995
0.999999
1
1
1
1
1
0.999998
0.999996
0.999996
0.999996
0.999999
0.999999
0.999999
1
1
0.999705
0.8924
0.810424
0.810424
1
1
1
0.99982
0.999614
0.999832
0.99987
0.999875
0.999963
1
1
0.999983
0.999961
0.999969
1
1
1
1
0.999996
0.999995
0.999995
0.999997
1
1
1
1
0.999999
0.999996
0.999996
0.999997
0.999999
0.999999
0.999999
1
1
1
1
1
0.984916
0.955397
1
1
1
0.999964
0.996574
0.994798
0.999356
0.999991
0.999991
0.999966
0.999542
0.999299
0.999865
0.999999
0.999999
0.999999
1
1
0.999997
0.999995
0.999995
0.999998
1
1
0.999999
0.999999
0.999998
0.999997
0.999998
0.999999
0.999997
0.999994
0.999996
1
1
1
1
1
1
1
0.999999
1
1
0.999999
0.997756
0.960217
0.957725
0.999991
0.999946
0.998166
0.997645
0.998316
0.999999
0.999999
0.999996
0.999998
1
1
1
0.999998
0.999995
0.999998
1
0.999999
0.999998
0.999998
0.999999
0.999999
0.999999
0.999998
0.999992
0.999992
0.999994
1
1
1
1
1
0.999999
1
0.999999
0.999999
0.999999
0.999999
0.999993
0.948995
0.871202
0.98779
0.999936
0.998662
0.99765
0.999999
0.999986
0.999988
1
1
1
0.999998
0.999981
0.999964
0.999988
1
1
0.999998
0.999998
0.999998
0.999999
0.999999
0.999999
0.999992
0.999992
0.999992
0.999999
1
1
1
0.999999
0.999999
0.999999
0.999999
1
1
0.999999
0.999999
0.999994
0.957105
0.681476
0.788773
0.999925
0.999092
0.997985
0.999999
0.999999
0.999999
0.999999
1
1
1
0.999851
0.999706
0.999832
1
1
1
1
0.999997
0.999992
0.999996
0.999999
0.999992
0.999992
0.999998
0.999999
0.999999
0.999997
0.999997
0.999998
0.999998
0.999998
0.999999
1
1
1
1
0.999998
0.996423
0.624337
0.290962
0.87995
0.99945
0.999454
0.999856
0.999999
0.999998
0.999996
0.999997
1
0.999996
0.9998
0.999706
0.999706
0.999811
1
1
1
1
0.999987
0.999977
0.999992
1
0.999999
0.999999
0.999998
0.999991
0.99999
0.999995
1
1
1
1
1
1
1
1
0.999999
0.999917
0.675084
0.225358
0.259981
0.857865
0.999998
0.999998
0.999999
0.999934
0.999857
0.999891
1
0.999999
0.999992
0.999789
0.999707
0.99974
1
1
1
1
0.999996
0.999977
0.999978
1
1
0.999999
0.999991
0.99999
0.999991
0.999998
1
1
1
1
1
1
1
1
1
0.999991
0.888652
0.305625
0.197799
0.226244
0.641777
0.993516
0.999999
0.999993
0.999856
0.999811
0.999836
0.999999
0.999996
0.999996
0.999936
0.999837
0.99997
1
1
1
1
0.999985
0.999973
1
1
0.999996
0.99999
0.99999
0.999998
1
1
1
1
1
1
1
1
1
1
1
0.999999
0.954342
0.430945
0.202434
0.202148
0.347044
0.894632
0.999995
0.999971
0.999864
0.999806
0.999811
0.999972
0.999983
0.999917
0.999382
0.999076
0.999816
1
1
0.999987
0.999955
0.999953
1
1
0.999997
0.99999
0.999995
1
1
1
1
1
1
1
1
1
1
1
1
1
1
0.998704
0.715005
0.241129
0.184811
0.228458
0.813716
0.999971
0.999971
0.999936
0.999811
0.999952
0.999975
0.999941
0.997999
0.996518
0.997203
0.999183
0.999723
0.999949
0.999881
0.999953
1
1
1
0.999999
1
1
1
1
1
1
1
1
1
1
1
0.999999
0.999999
1
1
1
0.999915
0.812319
0.26132
0.165507
0.194884
0.72521
0.999971
0.999971
0.999948
0.999949
0.999957
0.999949
0.99834
0.996513
0.996513
0.996513
0.996712
0.998663
0.999774
0.99999
1
1
1
1
1
1
1
1
1
1
1
1
1
1
0.999999
0.999997
0.999997
1
1
1
1
1
0.93769
0.381274
0.169291
0.201343
0.479339
0.855401
0.999949
0.999948
0.999955
0.999955
0.999955
0.998675
0.996638
0.996514
0.996515
0.996515
0.997945
1
1
1
1
1
1
1
1
1
0.999999
0.999982
0.999822
1
1
1
0.999998
0.999997
0.999997
0.999997
1
1
1
1
1
0.998258
0.785319
0.34375
0.327646
0.333975
0.779372
0.999955
0.999955
0.999954
0.999938
0.999938
0.999938
0.998916
0.996554
0.996522
0.996558
0.999986
1
1
1
1
1
1
1
1
0.999998
0.999636
0.998051
0.999999
0.999999
1
1
0.999998
0.999997
0.999997
0.999998
1
1
1
1
1
0.999996
0.931988
0.461701
0.304185
0.313776
0.760378
0.999955
0.999955
0.999954
0.999838
0.999673
0.999668
0.999618
0.997201
0.997561
1
1
1
1
1
1
1
1
1
0.999996
0.998976
0.997706
0.999999
0.999999
1
1
1
0.999999
0.999998
0.999999
1
1
1
1
1
1
0.999996
0.960154
0.506247
0.305182
0.311133
0.682162
0.998485
0.999953
0.99953
0.997811
0.99905
0.999673
0.999873
0.999895
0.999998
0.999996
1
1
1
1
1
1
1
0.999994
0.99865
0.997706
0.999999
0.999999
1
1
1
1
1
1
1
1
1
1
1
1
1
0.999996
0.972058
0.565897
0.310658
0.315714
0.714949
0.99995
0.999694
0.993064
0.980564
0.988109
1
1
0.999994
0.999993
1
1
1
1
1
1
1
0.999997
0.998906
0.997706
0.999999
0.999999
1
1
1
1
1
1
1
1
1
1
1
1
1
1
0.999989
0.952434
0.487083
0.316402
0.37753
0.866243
0.99964
0.988917
0.90872
0.922026
1
1
1
1
1
1
1
1
1
1
1
0.999995
0.999689
0.9985
0.999999
0.999999
1
1
1
1
1
1
1
1
1
1
1
1
1
1
0.999998
0.99992
0.796959
0.343137
0.332985
0.643094
0.999498
0.974318
0.89529
0.89854
0.99566
1
1
1
1
1
1
1
1
1
0.999999
0.999959
0.999933
0.999924
0.999999
0.999999
0.999999
1
1
1
1
0.999999
1
1
1
1
1
1
1
1
0.999999
0.999978
0.961485
0.495649
0.324679
0.484078
0.997591
0.980657
0.902541
0.89926
0.977355
1
1
1
1
0.999999
1
1
1
1
1
0.999911
0.999339
0.999883
1
0.999999
1
1
1
1
0.999999
0.999999
0.999999
1
1
1
1
1
1
1
1
0.999992
0.997202
0.65247
0.315852
0.384555
0.915666
0.979931
0.919805
0.900326
0.969517
1
1
1
1
0.999999
1
1
1
1
1
0.999924
0.998705
0.997677
1
1
1
1
1
1
0.999999
0.999999
0.999999
1
1
1
1
1
1
1
1
0.999991
0.999714
0.732865
0.302727
0.362238
0.829245
0.978777
0.926064
0.90118
0.954737
1
1
1
1
1
1
1
1
1
1
0.999999
0.998711
0.995086
1
1
1
1
1
1
1
0.999999
0.999999
1
1
1
1
1
1
1
1
0.999988
0.999661
0.760338
0.282825
0.391779
0.862009
0.977761
0.926366
0.902051
0.962229
1
1
0.999993
0.999975
0.999983
1
1
1
1
0.999999
0.999998
0.998828
0.995086
1
1
1
1
1
1
1
1
0.999999
1
1
1
1
1
1
1
0.999999
0.999983
0.999591
0.749188
0.258298
0.417281
0.949401
0.976535
0.928978
0.907362
0.998852
1
1
0.99996
0.999928
0.999929
0.999995
1
1
0.999998
0.999995
0.999986
0.998833
0.995086
1
1
1
1
1
1
1
1
0.999999
0.999999
1
1
1
1
1
1
0.999998
0.999954
0.989337
0.553913
0.258298
0.296588
0.837684
0.975668
0.955905
0.976873
0.993874
1
0.999998
0.999941
0.999928
0.999928
0.999975
1
0.999987
0.999985
0.999993
0.999929
0.998015
0.995086
1
1
1
1
1
1
1
1
1
0.999999
0.999999
1
1
1
1
0.999999
0.999985
0.999679
0.862448
0.310989
0.258298
0.418208
0.973473
0.976041
0.916324
0.912759
0.954916
1
1
0.999956
0.999928
0.999936
0.999985
0.99999
0.99998
0.999985
0.999995
0.999808
0.99602
0.995086
1
1
1
1
0.999999
0.999999
1
1
1
0.999999
0.999999
1
1
1
1
0.999998
0.999952
0.998979
0.645919
0.156073
0.33787
0.843922
0.972776
0.973835
0.894637
0.971792
1
1
1
0.999995
0.999984
0.999992
0.999983
0.99998
0.999982
1
0.999999
0.999752
0.995318
0.995086
1
1
0.999999
0.999999
0.999999
0.999999
1
0.999999
0.999995
0.999995
0.999997
1
1
1
1
0.999993
0.999862
0.947003
0.353726
0.096759
0.65948
0.969665
0.971781
0.879113
0.889361
1
1
1
1
1
1
1
0.999983
0.99998
0.999998
1
1
0.999905
0.998515
0.995105
1
1
0.999999
0.999999
0.999999
1
1
1
0.999932
0.999742
0.999728
0.999884
1
1
0.999993
0.999886
0.978395
0.420932
0.0702653
0.0792994
0.564074
0.892025
0.855139
0.814394
0.860652
1
1
1
1
0.999999
0.999998
0.999992
0.999991
0.999996
1
1
1
0.99999
1
0.998642
1
1
1
1
1
1
0.999999
0.999995
0.999953
0.990692
0.955702
0.942994
0.957322
0.966262
0.672883
0.245494
0.117168
0.0715492
0.0694018
0.0702653
0.0714494
0.247314
0.78467
0.991912
1
1
1
1
1
0.999992
0.999976
0.999981
0.999999
1
1
1
1
1
1
1
1
1
1
1
1
0.999998
0.999979
0.999774
0.997316
0.917451
0.365501
0.0668646
0.0808588
0.119705
0.117574
0.0672529
0.0668209
0.0678217
0.0684847
0.0769509
0.461968
0.9482
0.999998
0.999999
1
1
1
1
0.999998
0.999984
0.999968
0.999984
0.999999
0.999999
1
1
1
1
1
1
1
1
1
1
1
0.999997
0.999962
0.999512
0.929495
0.287644
0.0668018
0.0667819
0.0668751
0.0665914
0.0667602
0.0667138
0.0657362
0.0671345
0.125762
0.685827
0.999895
0.999973
0.999998
0.999998
0.999997
0.999998
0.999998
0.999999
0.999965
0.999911
0.999917
0.999944
0.999984
0.999989
0.999994
0.999998
0.999999
1
1
1
1
1
1
1
1
0.999996
0.999958
0.999512
0.955895
0.352755
0.0668014
0.0667004
0.0664271
0.0667471
0.0667259
0.0655761
0.0650161
0.221285
0.847096
0.995211
0.995857
0.995817
0.999945
0.999964
0.99986
0.999927
0.999744
0.999986
0.999488
0.990192
0.976535
0.987864
0.998918
0.999828
0.999906
0.999967
0.999992
1
1
1
0.999986
0.999995
0.999999
0.999999
0.999999
0.999998
0.999993
0.999945
0.99948
0.970892
0.434559
0.0666594
0.0667096
0.0665774
0.0665583
0.0662833
0.341995
0.931728
0.974964
0.974207
0.890258
0.845326
0.930267
0.967188
0.970137
0.947857
0.966745
0.999018
0.977298
0.897408
0.868567
0.884384
0.929375
0.951828
0.980681
0.996711
0.999907
0.999999
1
1
0.999632
0.999632
0.999879
0.999983
0.999999
0.99985
0.999434
0.999393
0.999386
0.998765
0.989716
0.951814
0.883692
0.656113
0.398195
0.398452
0.825947
0.960896
0.955986
0.813659
0.813662
0.813655
0.813743
0.814036
0.824367
0.865514
0.934509
0.975402
0.884397
0.868567
0.868449
0.868379
0.868418
0.868411
0.876422
0.922354
0.982631
0.999994
1
0.999999
0.99995
0.987746
0.965741
0.989311
0.999992
0.999967
0.995464
0.971566
0.972122
0.998771
0.998797
0.998775
0.998734
0.998756
0.998808
0.999129
0.995437
0.873047
0.818629
0.815893
0.813745
0.820699
0.826344
0.82844
0.890072
0.961042
0.9839
0.955749
0.877892
0.868639
0.868665
0.868445
0.868398
0.868465
0.86895
0.869331
0.892619
0.985387
0.999999
0.999999
0.999448
0.971342
0.939092
0.939105
0.977891
0.999609
0.969405
0.94623
0.946179
0.946291
0.97654
0.998776
0.99878
0.998732
0.998738
0.999161
0.999746
0.999979
0.997515
0.976999
0.974147
0.989065
0.99664
0.99666
0.999997
0.999998
0.999999
1
0.995075
0.980783
0.976567
0.953905
0.917059
0.880651
0.869328
0.869532
0.87036
0.904245
0.999985
0.999999
0.962821
0.939092
0.939092
0.939092
0.939105
0.939191
0.939317
0.960399
0.979217
0.949007
0.948053
0.948155
0.9903
0.999753
0.999079
0.995651
0.996894
0.999997
0.999997
0.999997
0.999997
0.999997
0.999997
0.999997
0.999997
0.999995
0.999999
1
1
1
1
1
1
0.998447
0.950027
0.88359
0.870929
0.872401
0.985029
0.999999
0.945051
0.944935
0.964309
0.946455
0.939191
0.939351
0.984039
0.999851
0.977044
0.948087
0.947972
0.966196
0.999987
0.999777
0.99535
0.994319
0.994319
0.998158
0.999997
0.999997
0.999997
0.999997
0.999997
0.999997
0.999988
0.99998
0.999981
0.999994
0.999999
1
1
1
1
1
0.999999
0.994567
0.912044
0.873612
0.955508
0.999985
0.945387
0.972227
0.999989
0.992181
0.971658
0.982493
0.999999
0.999946
0.996853
0.993962
0.995506
0.999319
0.999998
0.999937
0.996299
0.994319
0.995805
0.999905
0.999995
0.999994
0.999995
0.999973
0.999989
0.999997
0.99999
0.99998
0.99998
0.99998
0.999998
1
0.999999
0.999999
0.999999
0.999999
0.999999
0.999999
0.999996
0.959786
0.943296
0.997491
0.995774
0.997375
0.999999
0.999983
0.999981
0.999998
0.999999
0.999997
0.999996
0.999996
0.999999
0.999999
0.999999
0.999998
0.999993
0.99952
0.9982
0.998166
0.999383
0.998692
0.998803
0.99995
0.999978
0.999995
0.999993
0.999992
0.999983
0.99999
0.999999
1
0.999999
0.999996
0.999996
0.999997
0.999999
0.999998
0.999998
0.999972
0.94326
0.990637
0.999997
0.999999
0.999999
0.999999
0.999999
0.999999
0.999999
0.999999
0.999999
0.999996
0.999986
0.999974
0.999858
0.999126
0.997707
0.992361
0.947874
0.834164
0.757722
0.785507
0.946554
0.989023
0.997031
0.999882
0.999994
0.999999
1
1
1
1
1
0.999998
0.999996
0.999996
0.999996
0.999998
0.999999
0.998359
0.943351
0.985546
1
1
1
1
1
0.999999
0.999999
0.999999
0.999991
0.999965
0.999855
0.998191
0.996899
0.984668
0.892424
0.679296
0.465506
0.405152
0.405152
0.577626
0.86549
0.916083
0.95123
0.995558
0.99999
0.999803
0.999999
1
1
1
1
1
0.999999
0.999997
0.999996
0.999996
1
0.99905
0.948862
0.979864
1
1
1
1
0.999999
0.999994
0.999994
0.999999
0.999999
0.999583
0.998431
0.998332
0.887677
0.490978
0.254483
0.257906
0.299647
0.435765
0.728233
0.882265
0.900099
0.911392
0.925378
0.984445
0.999688
0.999219
0.999994
0.999997
0.999999
1
1
1
1
1
0.999997
0.999996
1
0.999941
0.996194
0.976868
0.999832
1
1
1
1
0.999999
0.999998
0.999771
0.99952
0.999572
0.992041
0.516216
0.118009
0.119898
0.1449
0.498155
0.83007
0.990897
0.998848
0.998851
0.998848
0.998848
0.995539
0.976716
0.994906
0.998889
0.999887
0.999962
0.999988
0.999997
0.999999
1
1
1
1
0.999999
1
1
0.999976
0.976867
0.999792
0.999865
1
1
1
1
1
0.999923
0.999959
0.951078
0.494766
0.117732
0.111147
0.162682
0.827274
0.998572
0.998578
0.998707
0.998847
0.998848
0.998851
0.998841
0.98089
0.913042
0.901457
0.961387
0.998496
0.999525
0.999854
0.999965
0.999993
0.999999
1
1
1
1
1
1
0.997281
0.976868
0.999834
1
0.997184
0.995753
0.990912
0.996591
1
0.999996
0.99994
0.827466
0.25239
0.0644762
0.110527
0.737259
0.997854
0.998038
0.998571
0.998567
0.998677
0.998663
0.998781
0.998831
0.794965
0.386017
0.318127
0.463934
0.746364
0.942263
0.998349
0.999622
0.999924
0.999988
0.999998
1
1
1
1
1
0.994479
0.976882
0.999992
1
1
0.98574
0.934689
0.934689
0.947874
0.998571
0.999465
0.722579
0.0817743
0.0191302
0.195505
0.805617
0.993815
0.99409
0.961465
0.874053
0.81751
0.849264
0.970385
0.998645
0.65153
0.191052
0.189916
0.191052
0.219111
0.429424
0.766558
0.977392
0.999246
0.999883
0.999984
0.999998
1
1
1
1
0.994856
0.976911
1
1
1
1
0.978713
0.953949
0.982573
0.998304
0.900036
0.283255
0.00420155
0.00317507
0.0123377
0.155547
0.515459
0.518491
0.367087
0.176346
0.12151
0.175546
0.493079
0.968534
0.76513
0.328693
0.191052
0.188982
0.188048
0.189006
0.231071
0.565423
0.941998
0.998904
0.999857
0.999982
0.999996
1
1
1
0.998754
0.97695
0.999996
0.999999
1
1
1
1
0.999992
0.986362
0.460732
0.00918041
0.00315081
0.0031274
0.00451419
0.00461013
0.00309566
0.0031133
0.00311313
0.00311293
0.00358822
0.0179984
0.077741
0.446242
0.829478
0.89259
0.654723
0.291786
0.189006
0.188048
0.188802
0.189556
0.452445
0.93163
0.997933
0.999603
0.99996
0.999997
0.999999
1
1
0.977191
0.998464
0.999986
1
1
1
0.999992
0.999977
0.57174
0.0256363
0.00314853
0.00312731
0.00312695
0.00312688
0.00312641
0.00312579
0.00311847
0.0031133
0.00311319
0.0103935
0.103966
0.181494
0.28129
0.771024
0.98946
0.992255
0.951326
0.599736
0.220545
0.189556
0.189658
0.190915
0.479292
0.957887
0.998084
0.999811
0.999976
0.999994
1
1
0.980684
0.996498
0.999703
0.999999
0.999997
0.999986
0.932474
0.416248
0.00728101
0.00317534
0.00315228
0.00314973
0.0031273
0.00312689
0.00312799
0.00306542
0.00312571
0.00311916
0.00312121
0.00328718
0.00607048
0.0656762
0.389901
0.926144
0.992262
0.994991
0.995618
0.995713
0.872258
0.342163
0.191331
0.190464
0.195328
0.690496
0.994673
0.999564
0.999936
0.99999
1
1
0.985553
0.999293
0.999681
0.99948
0.968641
0.705739
0.142185
0.00414718
0.00394355
0.00344049
0.00315951
0.00313004
0.00312915
0.00315139
0.00319877
0.00314462
0.00314586
0.00316953
0.00323529
0.00356623
0.0070156
0.0111366
0.0987185
0.699499
0.987844
0.99445
0.99571
0.995909
0.995914
0.967365
0.439578
0.193927
0.201499
0.410413
0.950157
0.999412
0.999917
0.999989
1
1
0.988345
0.999253
0.957556
0.728565
0.410338
0.128731
0.0134476
0.00698757
0.00414665
0.00386998
0.00377721
0.00542151
0.00972964
0.0227521
0.0495559
0.0479202
0.0363161
0.0476023
0.121085
0.150878
0.0875943
0.0135217
0.0417909
0.506196
0.973014
0.995669
0.995452
0.995914
0.995984
0.99596
0.974209
0.396741
0.205609
0.337912
0.900644
0.999044
0.999922
0.999989
1
1
0.989515
0.790957
0.499741
0.287348
0.11722
0.0742828
0.0555045
0.0877318
0.15772
0.249153
0.358567
0.450247
0.523246
0.633695
0.748906
0.720741
0.627061
0.675463
0.872997
0.939634
0.772276
0.479322
0.618376
0.940228
0.999461
0.998742
0.994554
0.994772
0.99588
0.995987
0.995961
0.885844
0.252119
0.365212
0.890245
0.998649
0.999877
0.999988
1
1
0.990145
0.308329
0.297439
0.286903
0.323433
0.431968
0.63762
0.81791
0.925283
0.999867
0.999831
0.999801
0.999776
0.999748
0.999718
0.999687
0.999664
0.999646
0.999621
0.99959
0.999552
0.999509
0.999476
0.999468
0.999469
0.999506
0.996459
0.986583
0.986361
0.992934
0.995987
0.995722
0.621522
0.493422
0.879271
0.998488
0.999845
0.999984
0.999999
1
0.990579
0.394604
0.51984
0.673125
0.925312
0.999912
0.999911
0.999908
0.999888
0.999854
0.999829
0.999818
0.999806
0.999778
0.99975
0.999722
0.999686
0.999546
0.999553
0.999465
0.999171
0.999253
0.999506
0.999469
0.999506
0.999538
0.999524
0.993635
0.986133
0.986134
0.992779
0.990566
0.978646
0.955594
0.964096
0.996166
0.999913
0.99997
0.999993
0.999999
0.990699
0.960609
0.999912
0.999928
0.999932
0.999927
0.999917
0.99991
0.999907
0.999888
0.999855
0.999814
0.999766
0.999747
0.999717
0.999656
0.999604
0.999451
0.997243
0.990844
0.99317
0.999203
0.99954
0.999499
0.999439
0.999517
0.99953
0.998278
0.98635
0.986133
0.987637
0.998275
0.999792
0.999839
0.998959
0.998788
0.999864
0.999963
0.99999
0.999999
0.991004
0.999916
0.999926
0.999928
0.999928
0.999928
0.999927
0.999918
0.999895
0.99986
0.999796
0.999672
0.999528
0.999425
0.999393
0.99843
0.980994
0.890296
0.851231
0.949355
0.996244
0.998684
0.999365
0.999443
0.999433
0.999445
0.999519
0.999474
0.995351
0.986389
0.995308
0.999776
0.999932
0.999971
0.999979
0.99994
0.999962
0.99996
0.999987
0.999998
0.991343
0.999922
0.999927
0.999928
0.999928
0.999927
0.999921
0.999891
0.999766
0.999549
0.999101
0.998405
0.997054
0.95855
0.957724
0.899358
0.628421
0.624401
0.704299
0.953274
0.994004
0.997717
0.9987
0.998968
0.997636
0.997654
0.998951
0.999414
0.999255
0.998311
0.998756
0.999931
0.999971
0.99998
0.999986
0.999992
0.999992
0.999977
0.999989
0.999998
0.991812
0.999928
0.999929
0.999927
0.999926
0.999922
0.999876
0.999647
0.998766
0.998006
0.941804
0.865891
0.818879
0.639116
0.615957
0.616898
0.598831
0.622312
0.742461
0.965042
0.99425
0.996786
0.997445
0.996218
0.998182
0.99929
0.99929
0.999336
0.99929
0.999278
0.99819
0.998148
0.999657
0.999986
0.999992
0.999992
0.999993
0.999994
0.999994
0.999998
0.992171
0.999942
0.999935
0.99993
0.999932
0.999829
0.999387
0.99808
0.930626
0.886376
0.561788
0.572724
0.589685
0.598343
0.622858
0.597151
0.598761
0.790788
0.909383
0.916262
0.929985
0.964843
0.997458
0.998756
0.999205
0.999263
0.999293
0.999289
0.999275
0.999264
0.998122
0.997081
0.99866
0.999982
0.999991
0.999992
0.999992
0.999992
0.999992
0.999998
0.991909
0.999963
0.999945
0.999941
0.999894
0.99932
0.9965
0.924255
0.56483
0.522107
0.545332
0.558247
0.687943
0.75819
0.73355
0.727567
0.600243
0.303338
0.302019
0.377551
0.335623
0.278964
0.31615
0.485275
0.838318
0.999312
0.999297
0.9993
0.999263
0.99926
0.998496
0.996921
0.996801
0.999589
0.99999
0.999992
0.999992
0.999977
0.999985
0.999997
0.991569
0.999971
0.999966
0.999948
0.999679
0.996294
0.855678
0.470846
0.484363
0.503091
0.651519
0.851119
0.811508
0.754304
0.648347
0.224214
0.00409805
0.00384302
0.00377353
0.00384225
0.00388932
0.00432497
0.00502088
0.010323
0.105927
0.413604
0.879085
0.998929
0.999197
0.999231
0.999127
0.997199
0.99678
0.997312
0.999798
0.999992
0.999992
0.999936
0.999982
0.999995
0.991534
0.999981
0.999977
1.00001
0.998013
0.834516
0.43284
0.44589
0.473427
0.81601
0.925815
0.872951
0.684179
0.0833267
0.004149
0.00378439
0.00378591
0.00376669
0.00372051
0.00366478
0.00365164
0.00357807
0.00368549
0.00366209
0.00417141
0.00689477
0.290569
0.849219
0.998822
0.99919
0.998967
0.996815
0.996769
0.996777
0.998805
0.99999
0.999992
0.999932
0.999972
0.999995
0.991598
0.999996
1.00005
0.999404
0.897366
0.420591
0.401954
0.450686
0.885992
0.975712
0.956023
0.352145
0.00577147
0.00394126
0.00382106
0.00380074
0.00376557
0.0037172
0.00369119
0.00367232
0.00360645
0.00356849
0.00353202
0.00358512
0.00362584
0.00391575
0.00794884
0.443795
0.908977
0.9998
0.997286
0.996769
0.996769
0.996769
0.998572
0.999979
0.99999
0.999931
0.99994
0.999994
0.998672
1.00002
0.999955
0.997525
0.419819
0.352433
0.40275
0.892011
0.995559
0.986261
0.455836
0.00587815
0.00400223
0.0038744
0.0038544
0.00382839
0.00380616
0.00376928
0.0050113
0.00554064
0.00364798
0.0035953
0.00346034
0.00357517
0.00362044
0.00367671
0.00403829
0.17485
0.842803
0.999947
0.99737
0.99724
0.996769
0.996771
0.999113
0.999955
0.999954
0.99993
0.999942
0.999994
0.998693
1.00001
1.00009
0.559019
0.286583
0.317386
0.87833
0.995559
0.996288
0.913562
0.135337
0.00402611
0.00391999
0.00389491
0.0038738
0.00385334
0.00383563
0.00543497
0.00642752
0.00563488
0.00362615
0.00359217
0.00359195
0.00364173
0.00362044
0.00360975
0.00385229
0.232275
0.927677
0.999975
0.999189
0.999635
0.998004
0.998887
0.999753
0.999948
0.99993
0.99993
0.999971
0.999969
0.986057
1.00001
0.977548
0.277865
0.256567
0.662532
0.994947
0.996288
0.99631
0.821875
0.081192
0.00402429
0.00399499
0.003976
0.00390581
0.00387375
0.00388183
0.00679203
0.00665815
0.00464139
0.00359198
0.00359213
0.0035738
0.00363327
0.00359994
0.00361581
0.00598723
0.511136
0.999981
0.999981
0.999947
0.999973
0.999951
0.999982
0.99999
0.999968
0.999937
0.99993
0.999971
0.999762
0.981236
1.00038
0.4307
0.171485
0.290054
0.9425
0.99622
0.996314
0.996301
0.912536
0.26914
0.00410744
0.00402779
0.00607131
0.0134884
0.0121695
0.00673011
0.00890135
0.00587757
0.00364221
0.00365941
0.00359235
0.00361058
0.00360757
0.00362218
0.00369362
0.211808
0.946592
0.999981
0.999982
0.999982
0.999984
0.99999
0.999996
0.999997
0.999997
0.999984
0.999949
0.999974
0.999148
0.981154
0.999868
0.160525
0.160419
0.744241
0.996498
0.996004
0.99622
0.996288
0.991724
0.70461
0.034717
0.00411726
0.0385389
0.0589433
0.0589433
0.037172
0.00385379
0.00376805
0.00372724
0.0041989
0.00411327
0.00360641
0.00362814
0.00371681
0.0957944
0.758154
0.999961
0.999983
0.999983
0.999985
0.999989
0.999995
0.999998
0.999999
1
0.999999
0.999996
0.999989
0.997753
0.981142
0.668465
0.0606654
0.157634
0.922498
0.997453
0.996231
0.996004
0.996114
0.994884
0.986784
0.52333
0.0051898
0.0149131
0.0289147
0.0585559
0.0479957
0.00390594
0.00384411
0.0041407
0.0041989
0.0039287
0.00366053
0.00369321
0.0120105
0.555514
0.999835
0.999984
0.999981
0.999981
0.999983
0.999987
0.999889
0.999663
0.99997
1
1
0.999999
0.999994
0.997509
0.981152
0.3089
0.0324635
0.501259
0.993492
0.997701
0.96592