/*--------------------------------*- C++ -*----------------------------------*\
  =========                 |
  \\      /  F ield         | OpenFOAM: The Open Source CFD Toolbox
   \\    /   O peration     | Website:  https://openfoam.org
    \\  /    A nd           | Version:  8
     \\/     M anipulation  |
\*---------------------------------------------------------------------------*/
FoamFile
{
    version     2.0;
    format      ascii;
    class       surfaceScalarField;
    location    "2.4";
    object      alphaPhi0.water;
}
// * * * * * * * * * * * * * * * * * * * * * * * * * * * * * * * * * * * * * //

dimensions      [0 3 -1 0 0 0 0];

internalField   nonuniform List<scalar> 
18095
(
1.57694e-07
-9.65728e-07
8.08034e-07
1.6498e-07
-1.24829e-06
1.24101e-06
1.21944e-07
-1.24234e-06
1.28538e-06
6.51134e-08
-1.26346e-06
1.32029e-06
-1.79298e-10
-1.28044e-06
1.34573e-06
-6.54398e-08
-1.2804e-06
1.34566e-06
-1.22192e-07
-1.26336e-06
1.32012e-06
-1.65139e-07
-1.24224e-06
1.28519e-06
-1.57757e-07
-1.2482e-06
1.24082e-06
-9.6553e-07
8.07773e-07
1.10931e-07
-1.07666e-06
9.92622e-08
-1.23662e-06
7.27065e-08
-1.21578e-06
3.99014e-08
-1.23065e-06
-1.21356e-10
-1.24042e-06
-4.01258e-08
-1.2404e-06
-7.28847e-08
-1.23061e-06
-9.93953e-08
-1.21573e-06
-1.11005e-07
-1.23659e-06
-1.07654e-06
6.71496e-08
-1.14381e-06
5.26839e-08
-1.22216e-06
4.20176e-08
-1.20512e-06
2.37668e-08
-1.2124e-06
-7.78448e-11
-1.21657e-06
-2.39123e-08
-1.21656e-06
-4.21354e-08
-1.21238e-06
-5.27735e-08
-1.20509e-06
-6.72133e-08
-1.22215e-06
-1.14375e-06
3.96804e-08
-1.18349e-06
2.65916e-08
-1.20907e-06
2.19376e-08
-1.20046e-06
1.24682e-08
-1.20293e-06
-4.35872e-11
-1.20406e-06
-1.25502e-08
-1.20406e-06
-2.20051e-08
-1.20293e-06
-2.66421e-08
-1.20046e-06
-3.97233e-08
-1.20907e-06
-1.18347e-06
1.65107e-08
7.4421e-09
6.97859e-09
4.04558e-09
-1.40473e-11
-4.07216e-09
-7.00024e-09
-7.45685e-09
-1.65281e-08
-1.74825e-07
-1.16558e-06
1.34041e-06
-2.18628e-07
-1.21667e-06
1.26047e-06
-1.65886e-07
-1.21313e-06
1.16039e-06
-8.88122e-08
-1.20455e-06
1.12748e-06
-1.92286e-09
-1.20293e-06
1.11604e-06
8.50257e-08
-1.20263e-06
1.11569e-06
1.62474e-07
-1.20375e-06
1.1263e-06
2.15552e-07
-1.21198e-06
1.1589e-06
1.71985e-07
-1.21507e-06
1.25864e-06
-1.16371e-06
1.33569e-06
-9.39402e-08
-1.07164e-06
-9.65069e-08
-1.2141e-06
-8.00391e-08
-1.22959e-06
-4.51742e-08
-1.23942e-06
-1.08912e-09
-1.24702e-06
4.3083e-08
-1.24681e-06
7.81776e-08
-1.23884e-06
9.49815e-08
-1.22878e-06
9.30578e-08
-1.21314e-06
-1.07065e-06
-5.81774e-08
-1.01346e-06
-5.55671e-08
-1.21671e-06
-4.69873e-08
-1.23817e-06
-2.76948e-08
-1.25871e-06
-6.56668e-10
-1.27405e-06
2.64449e-08
-1.27391e-06
4.59174e-08
-1.25832e-06
5.47834e-08
-1.23765e-06
5.77953e-08
-1.21616e-06
-1.01286e-06
-7.46889e-08
-9.38776e-07
-6.19139e-08
-1.22949e-06
-4.87655e-08
-1.25132e-06
-2.81003e-08
-1.27938e-06
-4.09364e-10
-1.30174e-06
2.73272e-08
-1.30164e-06
4.81229e-08
-1.27911e-06
6.14792e-08
-1.25101e-06
7.44855e-08
-1.22916e-06
-9.3837e-07
-1.30742e-07
-1.19221e-07
-8.51683e-08
-4.42543e-08
-2.67529e-10
4.37519e-08
8.47568e-08
1.1894e-07
1.30597e-07
-6.37672e-08
-9.56515e-07
1.02028e-06
-9.73982e-09
-1.34592e-06
1.2919e-06
-1.62736e-09
-1.27502e-06
1.2669e-06
-9.18317e-09
-1.22924e-06
1.2368e-06
-1.56618e-08
-1.227e-06
1.23348e-06
-2.26525e-08
-1.22519e-06
1.23218e-06
-3.00185e-08
-1.22935e-06
1.23672e-06
-3.44459e-08
-1.27933e-06
1.28376e-06
-1.17573e-09
-1.33813e-06
1.30486e-06
-8.94301e-07
8.93125e-07
3.03643e-09
-9.59552e-07
8.72356e-09
-1.35161e-06
3.01243e-09
-1.26931e-06
-4.66087e-09
-1.22157e-06
-1.22449e-08
-1.21942e-06
-1.97131e-08
-1.21773e-06
-2.78623e-08
-1.2212e-06
-3.88382e-08
-1.26835e-06
-3.01144e-08
-1.34685e-06
-9.24415e-07
2.35192e-08
-9.83071e-07
1.34882e-08
-1.34158e-06
4.83045e-09
-1.26065e-06
-1.17042e-09
-1.21557e-06
-8.38842e-09
-1.2122e-06
-1.46722e-08
-1.21144e-06
-2.0601e-08
-1.21527e-06
-3.06337e-08
-1.25832e-06
-3.88239e-08
-1.33866e-06
-9.63239e-07
7.46666e-08
-1.05774e-06
4.5803e-08
-1.31272e-06
2.77546e-08
-1.2426e-06
1.61757e-08
-1.20399e-06
-5.11747e-09
-1.19091e-06
-2.60348e-08
-1.19052e-06
-3.8911e-08
-1.2024e-06
-5.72186e-08
-1.24001e-06
-8.4606e-08
-1.31127e-06
-1.04785e-06
2.8267e-07
2.30423e-07
1.48209e-07
7.17002e-08
-3.16775e-09
-7.80061e-08
-1.54101e-07
-2.35212e-07
-2.87849e-07
-8.25232e-08
-3.70018e-09
8.62232e-08
-7.87862e-08
-3.73706e-09
-7.50527e-08
-3.73356e-09
-7.13606e-08
-3.69187e-09
-6.77481e-08
-3.61261e-09
-6.42507e-08
-3.49741e-09
-6.09021e-08
-3.3487e-09
-5.77326e-08
-3.16955e-09
-5.47682e-08
-2.9646e-09
-2.73708e-09
-5.20311e-08
-8.23245e-08
-6.50424e-09
8.51286e-08
-7.9472e-08
-6.58978e-09
-7.6602e-08
-6.60358e-09
-7.37465e-08
-6.54744e-09
-7.0936e-08
-6.42317e-09
-6.8199e-08
-6.23434e-09
-6.55626e-08
-5.98523e-09
-6.30501e-08
-5.68204e-09
-6.06832e-08
-5.33154e-09
-4.94198e-09
-5.84782e-08
-8.04115e-08
-8.73942e-09
8.26467e-08
-7.81229e-08
-8.87823e-09
-7.58073e-08
-8.91918e-09
-7.34913e-08
-8.86347e-09
-7.12008e-08
-8.71402e-09
-6.89598e-08
-8.47539e-09
-6.67911e-08
-8.15375e-09
-6.4716e-08
-7.75713e-09
-6.27524e-08
-7.29507e-09
-6.77894e-09
-6.09155e-08
-7.82625e-08
-1.05688e-08
8.00918e-08
-7.63751e-08
-1.07652e-08
-7.44541e-08
-1.08402e-08
-7.25225e-08
-1.0795e-08
-7.06041e-08
-1.06328e-08
-6.87204e-08
-1.03589e-08
-6.68933e-08
-9.98074e-09
-6.51425e-08
-9.50785e-09
-6.34856e-08
-8.95199e-09
-8.32733e-09
-6.19372e-08
-7.60727e-08
-1.20996e-08
7.76036e-08
-7.44797e-08
-1.23581e-08
-7.28466e-08
-1.24733e-08
-7.1196e-08
-1.2446e-08
-6.95494e-08
-1.22793e-08
-6.79294e-08
-1.19788e-08
-6.63573e-08
-1.15528e-08
-6.48532e-08
-1.10119e-08
-6.34356e-08
-1.03696e-08
-9.64218e-09
-6.21208e-08
-7.39345e-08
-1.34151e-08
7.52504e-08
-7.25513e-08
-1.37414e-08
-7.1122e-08
-1.39029e-08
-6.96679e-08
-1.39e-08
-6.82119e-08
-1.37352e-08
-6.67767e-08
-1.3414e-08
-6.53851e-08
-1.29445e-08
-6.4059e-08
-1.2338e-08
-6.28194e-08
-1.16092e-08
-1.07761e-08
-6.16856e-08
-7.19196e-08
-1.4584e-08
7.30882e-08
-7.06755e-08
-1.49854e-08
-6.93771e-08
-1.52013e-08
-6.80466e-08
-1.52303e-08
-6.67076e-08
-1.50742e-08
-6.53842e-08
-1.47373e-08
-6.41015e-08
-1.42272e-08
-6.28847e-08
-1.35549e-08
-6.17589e-08
-1.27351e-08
-1.17873e-08
-6.07477e-08
-7.00949e-08
-1.56621e-08
7.1173e-08
-6.89307e-08
-1.61495e-08
-6.77012e-08
-1.64306e-08
-6.64291e-08
-1.65023e-08
-6.5139e-08
-1.63644e-08
-6.3857e-08
-1.60194e-08
-6.26113e-08
-1.54731e-08
-6.14312e-08
-1.47351e-08
-6.03472e-08
-1.38192e-08
-1.27447e-08
-5.939e-08
-6.85329e-08
-1.66924e-08
6.95633e-08
-6.74016e-08
-1.72807e-08
-6.61897e-08
-1.76424e-08
-6.49198e-08
-1.77722e-08
-6.36171e-08
-1.76673e-08
-6.23095e-08
-1.73271e-08
-6.10283e-08
-1.67544e-08
-5.98077e-08
-1.59558e-08
-5.86848e-08
-1.49422e-08
-1.37309e-08
-5.76987e-08
-6.73125e-08
-1.7702e-08
6.83222e-08
-6.61831e-08
-1.841e-08
-6.49524e-08
-1.8873e-08
-6.3642e-08
-1.90827e-08
-6.22766e-08
-1.90328e-08
-6.08849e-08
-1.87189e-08
-5.95002e-08
-1.81391e-08
-5.81611e-08
-1.7295e-08
-5.69113e-08
-1.61921e-08
-1.48425e-08
-5.57997e-08
-6.65189e-08
-1.86971e-08
6.75141e-08
-6.53811e-08
-1.95476e-08
-6.41165e-08
-2.01373e-08
-6.27443e-08
-2.04552e-08
-6.12861e-08
-2.04911e-08
-5.97697e-08
-2.02354e-08
-5.82284e-08
-1.96805e-08
-5.67024e-08
-1.8821e-08
-5.52403e-08
-1.76542e-08
-1.61832e-08
-5.38996e-08
-6.62377e-08
-1.96597e-08
6.72002e-08
-6.51079e-08
-2.06769e-08
-6.3823e-08
-2.14222e-08
-6.2397e-08
-2.18815e-08
-6.08476e-08
-2.20406e-08
-5.9198e-08
-2.18851e-08
-5.74781e-08
-2.14005e-08
-5.57261e-08
-2.05731e-08
-5.39903e-08
-1.93901e-08
-1.7842e-08
-5.23315e-08
-6.65439e-08
-2.05451e-08
6.74294e-08
-6.54679e-08
-2.17525e-08
-6.42083e-08
-2.26818e-08
-6.27733e-08
-2.33165e-08
-6.11752e-08
-2.3639e-08
-5.94301e-08
-2.36302e-08
-5.7561e-08
-2.32697e-08
-5.55987e-08
-2.25354e-08
-5.35848e-08
-2.14041e-08
-1.98522e-08
-5.15746e-08
-6.74848e-08
-2.12871e-08
6.82268e-08
-6.65334e-08
-2.27036e-08
-6.53745e-08
-2.38408e-08
-6.4011e-08
-2.468e-08
-6.24488e-08
-2.52012e-08
-6.06976e-08
-2.53819e-08
-5.87707e-08
-2.51968e-08
-5.66887e-08
-2.46175e-08
-5.44808e-08
-2.36121e-08
-2.2145e-08
-5.21879e-08
-6.90632e-08
-2.18084e-08
6.95846e-08
-6.83196e-08
-2.34472e-08
-6.73514e-08
-2.48086e-08
-6.61587e-08
-2.58727e-08
-6.47425e-08
-2.66174e-08
-6.31063e-08
-2.70181e-08
-6.12567e-08
-2.70468e-08
-5.92025e-08
-2.66717e-08
-5.6959e-08
-2.58556e-08
-2.45566e-08
-5.45473e-08
-7.12323e-08
-2.20379e-08
7.14618e-08
-7.07727e-08
-2.39066e-08
-7.00798e-08
-2.55015e-08
-6.91514e-08
-2.68007e-08
-6.79882e-08
-2.77806e-08
-6.65913e-08
-2.8415e-08
-6.49641e-08
-2.86742e-08
-6.31111e-08
-2.85247e-08
-6.10393e-08
-2.79274e-08
-2.68374e-08
-5.87585e-08
-7.38994e-08
-2.19287e-08
7.37903e-08
-7.37711e-08
-2.40349e-08
-7.34013e-08
-2.58712e-08
-7.27879e-08
-2.74139e-08
-7.19303e-08
-2.86379e-08
-7.08285e-08
-2.95167e-08
-6.94823e-08
-3.00207e-08
-6.78885e-08
-3.01184e-08
-6.60406e-08
-2.97752e-08
-2.89537e-08
-6.39241e-08
-7.69694e-08
-2.14643e-08
7.65051e-08
-7.71862e-08
-2.38182e-08
-7.71514e-08
-2.59059e-08
-7.68642e-08
-2.7701e-08
-7.63261e-08
-2.91759e-08
-7.55409e-08
-3.03022e-08
-7.45111e-08
-3.10503e-08
-7.32393e-08
-3.139e-08
-7.17245e-08
-3.12899e-08
-3.07179e-08
-6.99602e-08
-8.03526e-08
-2.06606e-08
7.95489e-08
-8.08897e-08
-2.32811e-08
-8.11557e-08
-2.56398e-08
-8.11507e-08
-2.77059e-08
-8.08784e-08
-2.94482e-08
-8.03448e-08
-3.08356e-08
-7.95574e-08
-3.18376e-08
-7.85231e-08
-3.24243e-08
-7.72465e-08
-3.25664e-08
-3.22359e-08
-7.57284e-08
-8.39951e-08
-1.9553e-08
8.28874e-08
-8.48043e-08
-2.24719e-08
-8.53088e-08
-2.51352e-08
-8.55096e-08
-2.7505e-08
-8.54131e-08
-2.95447e-08
-8.50289e-08
-3.12199e-08
-8.43679e-08
-3.24985e-08
-8.34409e-08
-3.33513e-08
-8.22562e-08
-3.37511e-08
-3.36739e-08
-8.08181e-08
-8.78816e-08
-1.81812e-08
8.65098e-08
-8.89036e-08
-2.14499e-08
-8.95697e-08
-2.44692e-08
-8.98844e-08
-2.71903e-08
-8.98596e-08
-2.95695e-08
-8.9511e-08
-3.15684e-08
-8.88556e-08
-3.3154e-08
-8.79088e-08
-3.42981e-08
-8.66831e-08
-3.49769e-08
-3.51709e-08
-8.51862e-08
-9.2032e-08
-1.65828e-08
9.04336e-08
-9.32004e-08
-2.02816e-08
-9.39398e-08
-2.37298e-08
-9.42664e-08
-2.68637e-08
-9.42044e-08
-2.96314e-08
-9.3781e-08
-3.19917e-08
-9.30229e-08
-3.39121e-08
-9.19531e-08
-3.53678e-08
-9.05898e-08
-3.63402e-08
-3.68159e-08
-8.89448e-08
-9.64857e-08
-1.48001e-08
9.4703e-08
-9.77155e-08
-1.90516e-08
-9.84193e-08
-2.30259e-08
-9.86406e-08
-2.66423e-08
-9.84275e-08
-2.98446e-08
-9.78257e-08
-3.25934e-08
-9.68761e-08
-3.48617e-08
-9.56117e-08
-3.66323e-08
-9.40573e-08
-3.78946e-08
-3.86437e-08
-9.22295e-08
-1.01257e-07
-1.2907e-08
9.93639e-08
-1.02416e-07
-1.7893e-08
-1.02935e-07
-2.25075e-08
-1.0291e-07
-2.66671e-08
-1.02427e-07
-3.03275e-08
-1.01556e-07
-3.34644e-08
-1.00353e-07
-3.60652e-08
-9.88582e-08
-3.81266e-08
-9.71029e-08
-3.965e-08
-4.06409e-08
-9.51056e-08
-1.06222e-07
-1.10233e-08
1.04326e-07
-1.07093e-07
-1.70431e-08
-1.07224e-07
-2.23768e-08
-1.06802e-07
-2.7089e-08
-1.05951e-07
-3.1179e-08
-1.04759e-07
-3.46567e-08
-1.03288e-07
-3.75356e-08
-1.01583e-07
-3.98323e-08
-9.96695e-08
-4.1563e-08
-4.27443e-08
-9.75659e-08
-1.11116e-07
-1.00683e-08
1.07947e-07
-1.11246e-07
-1.69123e-08
-1.10757e-07
-2.28663e-08
-1.09831e-07
-2.80148e-08
-1.08593e-07
-3.24173e-08
-1.07119e-07
-3.61305e-08
-1.05458e-07
-3.91971e-08
-1.03638e-07
-4.16522e-08
-1.01677e-07
-4.35239e-08
-4.4837e-08
-9.95842e-08
-1.1456e-07
-1.04144e-08
1.14906e-07
-1.13763e-07
-1.77091e-08
-1.12664e-07
-2.39649e-08
-1.11365e-07
-2.93141e-08
-1.09921e-07
-3.38614e-08
-1.08363e-07
-3.76887e-08
-1.06706e-07
-4.08536e-08
-1.0496e-07
-4.33987e-08
-1.03127e-07
-4.53572e-08
-4.67564e-08
-1.01207e-07
-1.15292e-07
-1.19885e-08
1.16866e-07
-1.13884e-07
-1.91171e-08
-1.12555e-07
-2.52937e-08
-1.11251e-07
-3.06182e-08
-1.09935e-07
-3.51776e-08
-1.08586e-07
-3.90377e-08
-1.07191e-07
-4.22487e-08
-1.05741e-07
-4.48486e-08
-1.0423e-07
-4.68682e-08
-4.83331e-08
-1.02653e-07
-1.13016e-07
-1.31643e-08
1.14191e-07
-1.12013e-07
-2.01198e-08
-1.111e-07
-2.6207e-08
-1.1022e-07
-3.14977e-08
-1.09341e-07
-3.60571e-08
-1.08439e-07
-3.99391e-08
-1.075e-07
-4.31879e-08
-1.06511e-07
-4.58378e-08
-1.05463e-07
-4.79159e-08
-4.9445e-08
-1.04351e-07
-1.11522e-07
-1.42518e-08
1.1261e-07
-1.10713e-07
-2.09288e-08
-1.10104e-07
-2.68156e-08
-1.09619e-07
-3.19827e-08
-1.09197e-07
-3.6479e-08
-1.08793e-07
-4.03431e-08
-1.08374e-07
-4.36069e-08
-1.07915e-07
-4.62965e-08
-1.07399e-07
-4.84318e-08
-5.0029e-08
-1.06815e-07
-1.10297e-07
-1.5024e-08
1.11069e-07
-1.09927e-07
-2.12988e-08
-1.09821e-07
-2.69215e-08
-1.0988e-07
-3.1923e-08
-1.10031e-07
-3.63283e-08
-1.10214e-07
-4.01592e-08
-1.10387e-07
-4.34349e-08
-1.10514e-07
-4.6169e-08
-1.10574e-07
-4.83723e-08
-5.00522e-08
-1.10551e-07
-1.10286e-07
-1.51765e-08
1.10439e-07
-1.10532e-07
-2.10532e-08
-1.11051e-07
-2.64024e-08
-1.11741e-07
-3.12313e-08
-1.12525e-07
-3.55431e-08
-1.13338e-07
-3.9348e-08
-1.14127e-07
-4.26453e-08
-1.14857e-07
-4.54395e-08
-1.15499e-07
-4.77302e-08
-4.95151e-08
-1.16036e-07
-1.12038e-07
-1.44822e-08
1.11344e-07
-1.13064e-07
-2.00265e-08
-1.14308e-07
-2.51466e-08
-1.15702e-07
-2.98247e-08
-1.1717e-07
-3.40882e-08
-1.1863e-07
-3.78882e-08
-1.20043e-07
-4.12318e-08
-1.21371e-07
-4.41114e-08
-1.22585e-07
-4.65165e-08
-4.84349e-08
-1.23665e-07
-1.1633e-07
-1.29283e-08
1.14777e-07
-1.18085e-07
-1.82015e-08
-1.20012e-07
-2.31189e-08
-1.22223e-07
-2.7733e-08
-1.24341e-07
-3.19705e-08
-1.26435e-07
-3.57945e-08
-1.28455e-07
-3.92111e-08
-1.30363e-07
-4.22034e-08
-1.32128e-07
-4.47522e-08
-4.68355e-08
-1.33727e-07
-1.23498e-07
-1.06492e-08
1.21312e-07
-1.25881e-07
-1.56841e-08
-1.28646e-07
-2.0483e-08
-1.31446e-07
-2.50279e-08
-1.34189e-07
-2.92274e-08
-1.36891e-07
-3.30927e-08
-1.395e-07
-3.6602e-08
-1.41973e-07
-3.97307e-08
-1.44274e-07
-4.24508e-08
-4.47306e-08
-1.46379e-07
-1.33209e-07
-7.7451e-09
1.30461e-07
-1.364e-07
-1.25759e-08
-1.39855e-07
-1.72393e-08
-1.43211e-07
-2.1672e-08
-1.46579e-07
-2.58597e-08
-1.49896e-07
-2.97761e-08
-1.53105e-07
-3.33929e-08
-1.56157e-07
-3.66784e-08
-1.59011e-07
-3.95965e-08
-4.21056e-08
-1.61636e-07
-1.45055e-07
-4.14946e-09
1.41497e-07
-1.49131e-07
-8.77153e-09
-1.53093e-07
-1.32764e-08
-1.57131e-07
-1.76341e-08
-1.61175e-07
-2.18164e-08
-1.65159e-07
-2.57923e-08
-1.69022e-07
-2.95291e-08
-1.72711e-07
-3.29897e-08
-1.76176e-07
-3.61312e-08
-3.89035e-08
-1.79378e-07
-1.58487e-07
2.90782e-10
1.53763e-07
-1.63115e-07
-4.14393e-09
-1.67868e-07
-8.5233e-09
-1.72682e-07
-1.28207e-08
-1.77492e-07
-1.70065e-08
-1.82235e-07
-2.10494e-08
-1.86849e-07
-2.49147e-08
-1.91276e-07
-2.85629e-08
-1.9546e-07
-3.19472e-08
-3.5012e-08
-1.99351e-07
-1.72425e-07
5.65712e-09
1.67058e-07
-1.77953e-07
1.38294e-09
-1.83586e-07
-2.89115e-09
-1.89267e-07
-7.1393e-09
-1.94941e-07
-1.1333e-08
-2.00548e-07
-1.5442e-08
-2.0603e-07
-1.94322e-08
-2.11329e-07
-2.32644e-08
-2.16384e-07
-2.68921e-08
-3.02589e-08
-2.21137e-07
-1.86554e-07
1.19952e-08
1.80217e-07
-1.93032e-07
7.8561e-09
-1.99598e-07
3.67238e-09
-2.06207e-07
-5.30737e-10
-2.12813e-07
-4.72623e-09
-2.19371e-07
-8.88486e-09
-2.25829e-07
-1.29742e-08
-2.32136e-07
-1.69573e-08
-2.38238e-07
-2.07902e-08
-2.44204e-08
-2.44076e-07
-2.00286e-07
1.92848e-08
1.92984e-07
-2.07696e-07
1.52587e-08
-2.15179e-07
1.11553e-08
-2.22709e-07
6.99984e-09
-2.30255e-07
2.81988e-09
-2.37785e-07
-1.35534e-09
-2.45266e-07
-5.49353e-09
-2.52665e-07
-9.55853e-09
-2.59947e-07
-1.35081e-08
-1.72915e-08
-2.67075e-07
-2.12985e-07
2.74283e-08
2.04802e-07
-2.21218e-07
2.34914e-08
-2.2952e-07
1.94577e-08
-2.37872e-07
1.53537e-08
-2.46263e-07
1.12082e-08
-2.54671e-07
7.05319e-09
-2.63089e-07
2.92386e-09
-2.71505e-07
-1.14169e-09
-2.79914e-07
-5.09923e-09
-8.89257e-09
-2.88313e-07
-2.23939e-07
3.62508e-08
2.15117e-07
-2.32823e-07
3.23754e-08
-2.4176e-07
2.83964e-08
-2.50744e-07
2.43373e-08
-2.59767e-07
2.02293e-08
-2.68825e-07
1.61113e-08
-2.77928e-07
1.20266e-08
-2.87083e-07
8.01343e-09
-2.96292e-07
4.11312e-09
3.97537e-10
-3.05581e-07
-2.32478e-07
4.54902e-08
2.23238e-07
-2.41768e-07
4.16656e-08
-2.51096e-07
3.77243e-08
-2.60446e-07
3.36868e-08
-2.69801e-07
2.95851e-08
-2.79168e-07
2.54785e-08
-2.88576e-07
2.1434e-08
-2.9804e-07
1.74783e-08
-3.07535e-07
1.36078e-08
9.92067e-09
-3.17003e-07
-2.37537e-07
5.49203e-08
2.28094e-07
-2.47105e-07
5.11076e-08
-2.56775e-07
4.7214e-08
-2.66238e-07
4.3152e-08
-2.75598e-07
3.8952e-08
-2.84855e-07
3.47509e-08
-2.94152e-07
3.06894e-08
-3.0348e-07
2.68063e-08
-3.12864e-07
2.2992e-08
1.90073e-08
-3.21948e-07
-2.39066e-07
6.44965e-08
2.29478e-07
-2.48598e-07
6.06097e-08
-2.58307e-07
5.66193e-08
-2.67736e-07
5.2583e-08
-2.76916e-07
4.81338e-08
-2.8564e-07
4.3479e-08
-2.94096e-07
3.91729e-08
-2.91258e-07
3.46184e-08
-2.98972e-07
3.02215e-08
2.60647e-08
-3.17233e-07
-2.37368e-07
7.3951e-08
2.27952e-07
-2.46546e-07
6.98111e-08
-2.51278e-07
6.40574e-08
-2.5453e-07
5.87953e-08
-2.70277e-07
5.15173e-08
-2.82322e-07
5.08706e-08
-2.77894e-07
4.66449e-08
-2.83052e-07
4.09821e-08
-2.90007e-07
3.67025e-08
3.31919e-08
-2.993e-07
-2.32875e-07
8.29007e-08
2.23933e-07
-2.3857e-07
7.79142e-08
-2.23323e-07
6.72993e-08
-2.25725e-07
6.14057e-08
-2.31552e-07
5.68687e-08
-2.73278e-07
5.27837e-08
-2.79032e-07
5.36314e-08
-2.84337e-07
4.86731e-08
-2.77561e-07
4.37247e-08
3.82498e-08
-2.81565e-07
-2.24173e-07
9.10904e-08
2.16069e-07
-2.11849e-07
8.41737e-08
-2.10994e-07
7.22124e-08
-2.15907e-07
6.6666e-08
-2.20834e-07
6.20043e-08
-2.36736e-07
5.73038e-08
-2.6172e-07
5.75278e-08
-2.66173e-07
5.31317e-08
-2.70583e-07
4.83925e-08
4.39667e-08
-2.64227e-07
-2.11153e-07
8.76535e-08
1.75051e-07
-2.08672e-07
9.12679e-08
-1.99466e-07
8.19982e-08
-2.03808e-07
7.13046e-08
-2.06593e-07
6.51366e-08
-2.35725e-07
6.32559e-08
-2.39101e-07
6.09001e-08
-2.41343e-07
5.53744e-08
-2.43315e-07
5.04696e-08
4.61667e-08
-2.44578e-07
-1.56535e-07
8.65293e-08
1.57266e-07
-1.997e-07
8.24201e-08
-1.99608e-07
8.80317e-08
-1.99955e-07
8.08889e-08
-1.99037e-07
7.46589e-08
-2.1057e-07
6.73474e-08
-2.10711e-07
6.10409e-08
-2.10735e-07
5.53985e-08
-2.10734e-07
5.04742e-08
4.62375e-08
-2.10803e-07
-1.4687e-07
8.8558e-08
1.44441e-07
-1.47314e-07
8.26919e-08
-1.80654e-07
8.31647e-08
-1.8129e-07
8.15275e-08
-1.7997e-07
7.33403e-08
-1.78429e-07
6.5806e-08
-1.76517e-07
5.91292e-08
-1.74481e-07
5.33624e-08
-1.72463e-07
4.84563e-08
4.43475e-08
-1.70573e-07
-1.2619e-07
9.84054e-08
1.46849e-07
-1.34039e-07
8.57371e-08
-1.55069e-07
8.44539e-08
-1.51459e-07
7.79172e-08
-1.47341e-07
6.92203e-08
-1.43026e-07
6.14908e-08
-1.38673e-07
5.4776e-08
-1.34373e-07
4.9063e-08
-1.30217e-07
4.43001e-08
4.04206e-08
-1.2629e-07
-1.24854e-07
1.0154e-07
1.29561e-07
-1.2271e-07
9.24624e-08
-1.20336e-07
8.27313e-08
-1.155e-07
7.24791e-08
-1.09648e-07
6.32575e-08
-1.03503e-07
5.53184e-08
-9.7313e-08
4.85819e-08
-9.11975e-08
4.29474e-08
-8.52205e-08
3.83273e-08
3.46471e-08
-7.94447e-08
-9.36434e-08
7.62107e-08
8.22375e-08
-8.98258e-08
8.87075e-08
-8.3769e-08
7.67288e-08
-7.67502e-08
6.552e-08
-6.93997e-08
5.59054e-08
-6.20248e-08
4.79317e-08
-5.46951e-08
4.12437e-08
-4.74073e-08
3.56582e-08
-4.01408e-08
3.10696e-08
2.74153e-08
-3.29105e-08
-1.48523e-08
6.97523e-09
5.26509e-09
-3.80326e-08
2.5311e-08
-4.47241e-08
5.84827e-08
-3.65408e-08
5.73451e-08
-2.89407e-08
4.83146e-08
-2.15776e-08
4.05737e-08
-1.42122e-08
3.38795e-08
-6.68062e-09
2.81266e-08
1.11695e-09
2.32735e-08
1.93106e-08
9.22613e-09
-6.13667e-10
6.06318e-09
5.68583e-10
-2.53577e-09
1.47977e-08
-2.5176e-09
4.3696e-08
2.39311e-09
5.1834e-08
7.47942e-09
4.32284e-08
1.29731e-08
3.50801e-08
1.91283e-08
2.77244e-08
2.60477e-08
2.12072e-08
3.37589e-08
1.55622e-08
1.08303e-08
4.22391e-08
1.2608e-09
3.30128e-08
6.8821e-10
7.52521e-09
4.89114e-08
1.47949e-08
5.13112e-08
1.96321e-08
4.69727e-08
2.46982e-08
3.81593e-08
3.03277e-08
2.94505e-08
3.6737e-08
2.1315e-08
4.40454e-08
1.38988e-08
5.23014e-08
7.30626e-09
1.62909e-09
6.15026e-08
1.59273e-09
7.28641e-08
3.86607e-09
7.21772e-09
6.17548e-08
1.23114e-08
5.13769e-08
1.79975e-08
4.14837e-08
2.41419e-08
3.20058e-08
3.07893e-08
2.27987e-08
3.80948e-08
1.40096e-08
4.61876e-08
5.80617e-09
5.51515e-08
-1.65753e-09
-8.22386e-09
6.50157e-08
-1.52975e-08
6.388e-08
2.42768e-08
-7.96259e-09
5.44222e-08
-1.40952e-09
4.48234e-08
4.92186e-09
3.51847e-08
1.14404e-08
2.54856e-08
1.84006e-08
1.58295e-08
2.60039e-08
6.40696e-09
3.44089e-08
-2.59865e-09
4.36105e-08
-1.09562e-08
-1.84365e-08
5.38991e-08
-3.37682e-08
5.6328e-08
4.13153e-08
-2.74165e-08
4.80685e-08
-2.18376e-08
3.92437e-08
-1.64985e-08
2.98453e-08
-1.08851e-08
1.98719e-08
-4.58653e-09
9.53319e-09
2.63989e-09
-8.22422e-10
1.09065e-08
-1.0893e-08
2.04475e-08
-2.05051e-08
-2.91716e-08
3.11756e-08
-5.56275e-08
5.15888e-08
6.03679e-08
-5.17663e-08
4.42029e-08
-4.84296e-08
3.59027e-08
-4.51363e-08
2.63946e-08
-4.14334e-08
1.56117e-08
-3.62785e-08
4.34298e-09
-2.94928e-08
-7.58339e-09
-2.09553e-08
-1.94449e-08
-1.04694e-08
-3.09974e-08
-4.14389e-08
1.61627e-09
-8.11249e-08
5.03851e-08
8.23292e-08
-8.06513e-08
4.37302e-08
-7.76264e-08
3.47883e-08
-7.62317e-08
2.49223e-08
-7.47665e-08
1.34205e-08
-7.37779e-08
1.11676e-10
-6.64943e-08
-1.48156e-08
-5.61914e-08
-2.99107e-08
-4.24381e-08
-4.47135e-08
-5.85266e-08
-2.52321e-08
-1.08258e-07
5.30734e-08
1.05571e-07
-1.09742e-07
4.67677e-08
-1.09503e-07
3.74821e-08
-1.11652e-07
2.69943e-08
-1.1169e-07
1.33807e-08
-1.12569e-07
-4.05103e-09
-1.02869e-07
-2.4465e-08
-8.59918e-08
-4.67138e-08
-5.98359e-08
-6.83701e-08
-7.28873e-08
-2.08212e-08
-1.34175e-07
5.96063e-08
1.27692e-07
-1.34988e-07
5.39079e-08
-1.41726e-07
4.40548e-08
-1.47012e-07
3.22026e-08
-1.53624e-07
1.54369e-08
-1.51296e-07
-8.33217e-09
-1.34259e-07
-4.11267e-08
-9.00089e-08
-5.77914e-08
-2.0799e-08
-4.84741e-08
-8.4192e-08
3.36643e-08
-1.55029e-07
6.93092e-08
1.4554e-07
-1.63695e-07
6.48912e-08
-1.72584e-07
5.68663e-08
-1.84966e-07
4.23204e-08
-1.88115e-07
2.20983e-08
-1.79499e-07
-1.05364e-08
-9.25703e-08
-2.10564e-08
-6.01668e-09
-8.82466e-08
5.16411e-08
-1.52119e-07
-2.18442e-07
1.38548e-07
-1.68186e-07
8.10951e-08
1.56404e-07
-1.81503e-07
7.81208e-08
-1.95855e-07
7.12399e-08
-2.07981e-07
5.45957e-08
-1.3557e-07
2.39441e-08
-4.03134e-08
-1.36029e-08
3.042e-10
-8.08132e-08
9.60315e-08
-2.18278e-07
2.94458e-07
-4.40602e-07
-5.15097e-07
4.66661e-07
-1.69039e-07
9.25895e-08
1.57464e-07
-1.80506e-07
8.94857e-08
-1.76479e-07
7.35429e-08
-5.65618e-08
2.1688e-08
-1.44924e-08
3.4153e-10
3.62606e-09
-1.51734e-08
1.53009e-07
-2.30702e-07
3.18672e-07
-5.17622e-07
4.63755e-07
-5.86338e-07
-6.22654e-07
5.7124e-07
-1.56853e-07
1.00039e-07
1.49484e-07
-1.20585e-07
7.75228e-08
-2.75983e-08
1.85302e-08
-8.65236e-09
2.75603e-09
-3.21647e-10
-7.97341e-09
2.29786e-08
-3.8361e-08
3.24095e-07
-3.56733e-07
4.43106e-07
-6.35478e-07
5.43043e-07
-6.86091e-07
-7.17149e-07
6.37576e-07
-9.91138e-08
8.06148e-08
1.33052e-07
-2.11253e-08
1.91598e-08
-7.46614e-09
4.89232e-09
-1.57269e-09
-3.20654e-09
9.35148e-09
-1.89284e-08
9.47782e-08
-5.92473e-08
4.24436e-07
-4.96213e-07
5.29651e-07
-7.38552e-07
6.2454e-07
-7.80759e-07
-8.08488e-07
7.15918e-07
-1.97232e-08
2.13273e-08
8.86819e-08
-6.9397e-09
6.37313e-09
-2.56928e-09
4.77344e-10
5.26495e-09
-1.10988e-08
2.53009e-08
-3.90282e-08
2.08741e-07
-1.57031e-07
5.23696e-07
-7.20473e-07
6.20468e-07
-8.32689e-07
7.06846e-07
-8.66981e-07
-8.92805e-07
7.91189e-07
-6.63309e-09
7.09282e-09
2.08616e-08
-3.13355e-09
2.84403e-09
3.5941e-09
-6.28736e-09
1.72741e-08
-2.48211e-08
8.10051e-08
-1.02882e-07
4.6626e-07
-5.1511e-07
6.18037e-07
-8.59339e-07
6.96976e-07
-9.11142e-07
7.72255e-07
-9.42204e-07
-9.68712e-07
8.48169e-07
-3.33241e-09
3.92272e-09
6.47295e-09
1.69649e-09
-2.21557e-09
1.2001e-08
-1.66214e-08
4.96238e-08
-6.25964e-08
2.64659e-07
-3.50674e-07
5.98367e-07
-8.56539e-07
6.77653e-07
-9.38698e-07
7.42956e-07
-9.7645e-07
8.09804e-07
-1.00905e-06
-1.03763e-06
8.78722e-07
1.38131e-10
-3.3907e-09
6.05032e-09
7.51568e-09
-9.62467e-09
3.39916e-08
-4.31594e-08
1.71473e-07
-2.01563e-07
5.53307e-07
-8.00733e-07
6.41742e-07
-9.45538e-07
6.98488e-07
-9.95679e-07
7.57424e-07
-1.0354e-06
8.19757e-07
-1.07139e-06
-1.10126e-06
8.83384e-07
1.88587e-08
-1.88128e-08
-1.98901e-10
2.51035e-08
-1.49558e-08
1.18317e-07
-1.37821e-07
4.71216e-07
-6.93889e-07
5.84178e-07
-9.41134e-07
6.39421e-07
-1.00111e-06
6.92209e-07
-1.04851e-06
7.49068e-07
-1.09227e-06
8.08253e-07
-1.13057e-06
-1.15935e-06
8.66339e-07
1.4848e-08
-1.20561e-08
-8.82532e-10
6.08161e-08
-6.08416e-08
3.39979e-07
-5.50988e-07
5.13139e-07
-9.20792e-07
5.67191e-07
-9.95599e-07
6.15608e-07
-1.04958e-06
6.67906e-07
-1.10082e-06
7.23271e-07
-1.14763e-06
7.78361e-07
-1.18566e-06
-1.20994e-06
8.28956e-07
1.21245e-08
-3.50497e-08
2.68764e-09
1.6725e-07
-2.86591e-07
4.26696e-07
-8.79444e-07
4.84435e-07
-9.78999e-07
5.29148e-07
-1.04037e-06
5.77912e-07
-1.09836e-06
6.30103e-07
-1.15301e-06
6.82537e-07
-1.20007e-06
7.30932e-07
-1.23406e-06
-1.24977e-06
7.70755e-07
5.1324e-08
-8.90823e-08
-5.47273e-09
3.11105e-07
-7.10889e-07
3.82487e-07
-9.56949e-07
4.2994e-07
-1.02655e-06
4.78748e-07
-1.08919e-06
5.29943e-07
-1.14955e-06
5.81133e-07
-1.2042e-06
6.28638e-07
-1.24757e-06
6.68299e-07
-1.27372e-06
-1.27763e-06
6.9616e-07
1.20488e-07
-3.08805e-07
-5.54313e-09
2.79115e-07
-9.11876e-07
3.29217e-07
-1.00722e-06
3.78091e-07
-1.07544e-06
4.28684e-07
-1.13978e-06
4.78768e-07
-1.19964e-06
5.25344e-07
-1.25078e-06
5.64935e-07
-1.28716e-06
5.94608e-07
-1.30339e-06
-1.2954e-06
6.12378e-07
1.54479e-07
-5.19322e-07
-7.35615e-09
2.21571e-07
-9.8418e-07
2.77904e-07
-1.06361e-06
3.31113e-07
-1.12865e-06
3.80944e-07
-1.18961e-06
4.26371e-07
-1.24506e-06
4.6538e-07
-1.28979e-06
4.95453e-07
-1.31724e-06
5.15267e-07
-1.32321e-06
-1.30353e-06
5.23397e-07
1.53788e-07
-6.11859e-07
-1.25471e-08
2.07386e-07
-1.0375e-06
2.54584e-07
-1.11082e-06
2.98017e-07
-1.17208e-06
3.3734e-07
-1.22893e-06
3.71784e-07
-1.27951e-06
3.99556e-07
-1.31756e-06
4.19023e-07
-1.3367e-06
4.31743e-07
-1.33593e-06
-1.3065e-06
4.34817e-07
1.33805e-07
-6.54895e-07
-8.30513e-09
1.80459e-07
-1.08411e-06
2.21022e-07
-1.15137e-06
2.56395e-07
-1.20745e-06
2.86288e-07
-1.25883e-06
3.10079e-07
-1.3033e-06
3.25692e-07
-1.33317e-06
3.31541e-07
-1.34255e-06
3.29512e-07
-1.3339e-06
-1.276e-06
2.99023e-07
1.09529e-07
-6.64913e-07
-6.54707e-09
1.53389e-07
-1.12819e-06
1.88813e-07
-1.18679e-06
2.16793e-07
-1.23543e-06
2.38338e-07
-1.28037e-06
2.53428e-07
-1.31839e-06
2.60036e-07
-1.33978e-06
2.57061e-07
-1.33958e-06
2.4641e-07
-1.32325e-06
-1.20019e-06
1.70597e-07
1.07169e-07
-7.05787e-07
-3.07058e-11
1.3772e-07
-1.15866e-06
1.62043e-07
-1.21111e-06
1.81573e-07
-1.25496e-06
1.9621e-07
-1.29501e-06
2.05431e-07
-1.32761e-06
2.07238e-07
-1.34159e-06
2.00964e-07
-1.3333e-06
1.88111e-07
-1.31039e-06
-1.07209e-06
9.00469e-08
7.42775e-08
-7.32999e-07
-1.28238e-11
1.03631e-07
-1.1877e-06
1.27656e-07
-1.23513e-06
1.462e-07
-1.2735e-06
1.59107e-07
-1.30792e-06
1.66442e-07
-1.33494e-06
1.67411e-07
-1.34256e-06
1.61956e-07
-1.32785e-06
1.51062e-07
-1.2995e-06
-9.75737e-07
5.08997e-08
6.26379e-08
-7.25605e-07
-5.72778e-10
8.74035e-08
-1.21207e-06
1.07918e-07
-1.25564e-06
1.23276e-07
-1.28886e-06
1.33395e-07
-1.31803e-06
1.38915e-07
-1.34046e-06
1.40317e-07
-1.34396e-06
1.37424e-07
-1.32495e-06
1.30234e-07
-1.29231e-06
-8.81668e-07
3.3967e-08
7.17693e-08
-7.20976e-07
-1.86327e-09
8.72925e-08
-1.22794e-06
1.00112e-07
-1.26846e-06
1.09546e-07
-1.2983e-06
1.15454e-07
-1.32394e-06
1.18561e-07
-1.34357e-06
1.20547e-07
-1.34594e-06
1.20968e-07
-1.32537e-06
1.20001e-07
-1.29134e-06
-7.71652e-07
2.36559e-08
7.69284e-08
-7.38605e-07
-2.15572e-09
8.5521e-08
-1.23643e-06
9.19376e-08
-1.27487e-06
9.65031e-08
-1.30286e-06
9.8782e-08
-1.32622e-06
9.91793e-08
-1.34397e-06
1.00409e-07
-1.34717e-06
1.01205e-07
-1.32617e-06
1.01154e-07
-1.29129e-06
-6.60438e-07
1.12549e-08
7.15197e-08
-8.06219e-07
-2.59407e-09
7.64274e-08
-1.24134e-06
7.9299e-08
-1.27775e-06
8.10294e-08
-1.30459e-06
8.08135e-08
-1.32601e-06
7.88599e-08
-1.34201e-06
7.90681e-08
-1.34738e-06
7.93767e-08
-1.32648e-06
7.82603e-08
-1.29018e-06
-5.74778e-07
4.36377e-09
5.93756e-08
-8.80124e-07
-2.7901e-09
6.26148e-08
-1.2446e-06
6.36591e-08
-1.27879e-06
6.35382e-08
-1.30447e-06
6.11383e-08
-1.32361e-06
5.67294e-08
-1.33761e-06
5.53129e-08
-1.34596e-06
5.42266e-08
-1.32539e-06
4.73719e-08
-1.28332e-06
-5.30528e-07
4.12656e-09
4.15725e-08
-9.54569e-07
-1.33993e-09
4.55811e-08
-1.24862e-06
4.58403e-08
-1.27905e-06
4.4357e-08
-1.30299e-06
4.01184e-08
-1.31937e-06
3.36364e-08
-1.33112e-06
3.03191e-08
-1.34265e-06
2.70908e-08
-1.32216e-06
1.78882e-08
-1.27429e-06
-5.22372e-07
1.76767e-09
2.92891e-08
-9.99943e-07
-3.61366e-09
2.8798e-08
-1.24814e-06
2.67352e-08
-1.27699e-06
2.38679e-08
-1.30012e-06
1.8327e-08
-1.31383e-06
1.06733e-08
-1.32347e-06
6.03143e-09
-1.338e-06
2.25419e-09
-1.31839e-06
-3.96235e-09
-1.26866e-06
-5.3636e-07
-1.88282e-10
-1.08547e-09
-1.02198e-06
9.4761e-09
5.2264e-09
-1.25448e-06
6.05636e-09
-1.27782e-06
4.00155e-09
-1.29806e-06
-2.16266e-09
-1.30766e-06
-1.11891e-08
-1.31444e-06
-1.8068e-08
-1.33113e-06
-2.12847e-08
-1.31517e-06
-2.72668e-08
-1.26293e-06
-5.69472e-07
-5.12157e-11
-5.50115e-09
-1.03382e-06
9.4846e-09
-3.13552e-09
-1.2569e-06
-4.47216e-09
-1.27648e-06
-7.97074e-09
-1.29457e-06
-1.56539e-08
-1.29998e-06
-2.64863e-08
-1.30361e-06
-3.71086e-08
-1.3205e-06
-4.26578e-08
-1.30962e-06
-5.91754e-08
-1.24639e-06
-6.30122e-07
-2.81932e-10
1.75311e-09
-1.03939e-06
3.59124e-10
-2.53533e-09
-1.25261e-06
-7.33099e-09
-1.27168e-06
-1.29231e-08
-1.28897e-06
-2.21433e-08
-1.29076e-06
-3.34625e-08
-1.29229e-06
-4.47893e-08
-1.30918e-06
-4.53978e-08
-1.30901e-06
-5.83809e-08
-1.23342e-06
-6.90527e-07
-1.51162e-11
9.88089e-09
-1.05472e-06
6.20889e-26
-3.84098e-10
-1.24235e-06
-6.95235e-09
-1.26512e-06
-1.41079e-08
-1.28182e-06
-2.49178e-08
-1.27995e-06
-3.71236e-08
-1.28009e-06
-5.05932e-08
-1.29571e-06
-5.06407e-08
-1.30897e-06
-5.92392e-08
-1.22482e-06
-7.5146e-07
-3.99937e-12
1.01418e-08
-1.06961e-06
1.10857e-29
-9.09412e-10
-1.2313e-06
-5.23083e-09
-1.2608e-06
-1.30969e-08
-1.27395e-06
-2.48011e-08
-1.26824e-06
-3.73041e-08
-1.26758e-06
-5.2117e-08
-1.28089e-06
-5.34064e-08
-1.30768e-06
-5.37351e-08
-1.22449e-06
-8.08608e-07
-3.27764e-12
3.79758e-09
-1.07594e-06
3.77299e-30
-2.07368e-09