/*--------------------------------*- C++ -*----------------------------------*\
  =========                 |
  \\      /  F ield         | OpenFOAM: The Open Source CFD Toolbox
   \\    /   O peration     | Website:  https://openfoam.org
    \\  /    A nd           | Version:  8
     \\/     M anipulation  |
\*---------------------------------------------------------------------------*/
FoamFile
{
    version     2.0;
    format      ascii;
    class       volScalarField;
    location    "2.4";
    object      epsilon;
}
// * * * * * * * * * * * * * * * * * * * * * * * * * * * * * * * * * * * * * //

dimensions      [0 2 -3 0 0 0 0];

internalField   nonuniform List<scalar> 
9150
(
0.0313086
0.0124466
0.00310049
0.000946968
0.00046301
0.000463311
0.000947882
0.00310329
0.0124515
0.0313072
0.0302238
0.00874588
0.0017335
0.000609817
0.000349668
0.000349818
0.000610244
0.00173515
0.00874973
0.0302233
0.0284258
0.00694611
0.00111931
0.000500488
0.000313126
0.00031322
0.000500693
0.00112017
0.0069491
0.0284257
0.0264935
0.00600592
0.000839259
0.000467693
0.00030192
0.000301991
0.000467812
0.000839639
0.00600817
0.0264937
0.024491
0.00559993
0.000700024
0.000460503
0.000300135
0.000300195
0.000460592
0.000700146
0.00560175
0.0244912
0.123895
0.0530638
0.0227049
0.0139721
0.0101629
0.0101331
0.0138829
0.0225086
0.0525774
0.123735
0.0761217
0.0230442
0.013168
0.00883398
0.00629692
0.00628616
0.00880021
0.0130984
0.0229864
0.0761255
0.0553702
0.0178855
0.00763022
0.00459039
0.00308252
0.00307988
0.0045809
0.00761286
0.0178782
0.0553772
0.042516
0.0152294
0.00479465
0.00231055
0.00139546
0.00139523
0.00230928
0.00479273
0.0152355
0.0425189
0.0356124
0.0137307
0.0035187
0.00130854
0.000703962
0.000704208
0.00130916
0.00352076
0.0137378
0.0356133
1.72527
0.175398
0.0480092
0.0205867
0.0127156
0.0130785
0.0219875
0.0502483
0.160795
0.706235
0.281261
0.114655
0.0449757
0.0206052
0.0128239
0.013037
0.0213265
0.0472715
0.127761
0.272256
0.23586
0.102186
0.0444708
0.0205796
0.0129494
0.01304
0.0207995
0.0451758
0.1067
0.233591
0.197386
0.0912942
0.0438243
0.0204053
0.0130787
0.0130837
0.0204014
0.0439098
0.0916573
0.196496
0.156682
0.0868235
0.0404012
0.019249
0.0127541
0.012717
0.0191465
0.0401696
0.0860206
0.156345
0.299268
0.299019
0.298164
0.296724
0.29472
0.292178
0.289127
0.285604
0.281647
0.277284
0.140666
0.140526
0.140172
0.139609
0.138844
0.137883
0.136736
0.135411
0.133922
0.13228
0.111625
0.111506
0.111249
0.110856
0.110329
0.109674
0.108893
0.107994
0.106982
0.105866
0.101183
0.101073
0.100857
0.100533
0.100105
0.0995752
0.0989455
0.09822
0.0974026
0.0964982
0.0967103
0.0966062
0.0964116
0.096127
0.0957536
0.0952926
0.0947458
0.0941155
0.0934044
0.0926156
0.094981
0.0948792
0.094698
0.0944378
0.0940991
0.0936825
0.093189
0.0926199
0.0919768
0.0912618
0.0947837
0.0946817
0.0945087
0.0942649
0.0939504
0.0935655
0.0931104
0.0925856
0.0919916
0.0913296
0.0955555
0.0954509
0.0952823
0.0950498
0.0947535
0.0943932
0.0939686
0.0934795
0.0929255
0.0923066
0.0969953
0.0968855
0.0967179
0.096493
0.0962109
0.0958711
0.095473
0.0950157
0.0944981
0.0939189
0.0989246
0.0988061
0.0986362
0.0984155
0.0981442
0.097822
0.0974482
0.0970214
0.0965398
0.096001
0.101228
0.101097
0.10092
0.100699
0.100435
0.100128
0.0997761
0.0993791
0.0989344
0.0984389
0.103827
0.103677
0.103488
0.103261
0.102999
0.102701
0.102368
0.101999
0.101592
0.101142
0.106663
0.106487
0.106277
0.106037
0.105769
0.105474
0.105153
0.104807
0.104434
0.104031
0.109694
0.109483
0.109244
0.10898
0.108695
0.108392
0.108073
0.10774
0.107394
0.107032
0.112891
0.112633
0.112352
0.112052
0.111738
0.111413
0.111083
0.11075
0.110417
0.110085
0.116231
0.115916
0.11558
0.11523
0.114871
0.11451
0.114151
0.113801
0.113464
0.113145
0.119701
0.119315
0.118912
0.118498
0.11808
0.117666
0.117263
0.116877
0.116515
0.116185
0.123291
0.122825
0.122342
0.121851
0.12136
0.120877
0.12041
0.119968
0.119558
0.119188
0.126998
0.126441
0.125868
0.125289
0.124711
0.124145
0.123599
0.123083
0.122605
0.122171
0.130821
0.130168
0.129498
0.12882
0.128145
0.127483
0.126846
0.126241
0.125678
0.125164
0.134769
0.134017
0.133243
0.132459
0.131677
0.13091
0.130169
0.129464
0.128804
0.128195
0.138861
0.138007
0.137123
0.136225
0.135327
0.134445
0.133591
0.132776
0.132008
0.131295
0.143118
0.142158
0.141156
0.140135
0.139112
0.138107
0.137132
0.136201
0.13532
0.134496
0.147568
0.14649
0.145358
0.1442
0.143044
0.141909
0.14081
0.13976
0.138765
0.13783
0.152232
0.151011
0.149726
0.148419
0.147122
0.145855
0.144636
0.143472
0.142371
0.141333
0.157095
0.155692
0.154231
0.152767
0.151333
0.149948
0.148623
0.147364
0.146173
0.145049
0.162057
0.160436
0.158805
0.15721
0.155671
0.154201
0.152803
0.151479
0.150226
0.149042
0.166874
0.165116
0.1634
0.161748
0.16017
0.158669
0.157246
0.155896
0.154617
0.153404
0.171488
0.169752
0.168073
0.166461
0.164921
0.163454
0.162058
0.160729
0.159463
0.158254
0.176076
0.1745
0.172964
0.171481
0.170056
0.168687
0.167374
0.166111
0.164897
0.163728
0.18086
0.179542
0.178241
0.176968
0.175727
0.174518
0.173339
0.17219
0.171068
0.169973
0.186125
0.185121
0.184114
0.183108
0.182105
0.181104
0.180107
0.179112
0.178122
0.177138
0.192073
0.191422
0.190748
0.190051
0.189329
0.188582
0.18781
0.187013
0.186195
0.185362
0.198826
0.198554
0.198246
0.197896
0.197498
0.19705
0.196549
0.195999
0.195403
0.194768
0.206395
0.206539
0.20664
0.206683
0.206659
0.206563
0.206392
0.206146
0.205833
0.20546
0.214747
0.215361
0.215923
0.216417
0.216828
0.217148
0.217373
0.217505
0.217548
0.217513
0.223894
0.225025
0.226101
0.227101
0.228008
0.228812
0.229508
0.230096
0.230582
0.23098
0.233881
0.235562
0.237187
0.238736
0.240191
0.241541
0.24278
0.243909
0.244934
0.245869
0.244739
0.246982
0.249175
0.251299
0.25334
0.255286
0.257134
0.258885
0.260548
0.262135
0.256427
0.259253
0.262025
0.264734
0.267381
0.269959
0.272467
0.27491
0.2773
0.279651
0.268875
0.272277
0.275644
0.278964
0.282226
0.285448
0.288645
0.291825
0.295005
0.298205
0.281998
0.28596
0.289913
0.293851
0.297769
0.301672
0.305573
0.309505
0.313502
0.317586
0.295748
0.300264
0.304802
0.309364
0.313952
0.318579
0.323257
0.328003
0.33284
0.337814
0.310159
0.31525
0.320404
0.325629
0.330936
0.336342
0.341869
0.347536
0.353358
0.359355
0.325409
0.331128
0.336971
0.342951
0.349083
0.355394
0.361919
0.368684
0.375689
0.382931
0.34178
0.348209
0.354861
0.361758
0.368905
0.376329
0.384096
0.392248
0.400774
0.409647
0.359561
0.366805
0.37443
0.38247
0.390915
0.399784
0.409158
0.419092
0.429589
0.440626
0.379032
0.387198
0.395953
0.405356
0.415448
0.426252
0.437799
0.450145
0.463278
0.477136
0.40037
0.409647
0.419787
0.430907
0.443091
0.456388
0.470793
0.4863
0.502862
0.520383
0.423677
0.434449
0.446434
0.459806
0.474649
0.491024
0.508941
0.528352
0.549173
0.571273
0.449291
0.462001
0.476315
0.492465
0.510572
0.530672
0.552787
0.576873
0.602826
0.630488
0.477767
0.49276
0.509861
0.529278
0.55115
0.575566
0.60256
0.632101
0.664094
0.698372
0.509711
0.527264
0.547466
0.570528
0.596619
0.625873
0.658374
0.694133
0.733081
0.775072
0.545494
0.56578
0.589323
0.616349
0.647086
0.681728
0.720418
0.763227
0.810139
0.861044
0.585952
0.609178
0.636285
0.667584
0.703419
0.744094
0.789838
0.840787
0.896974
0.958317
0.633195
0.659503
0.690311
0.726305
0.768048
0.815928
0.870228
0.931126
0.9987
1.07292
0.691327
0.720053
0.754546
0.79653
0.846271
0.903893
0.969619
1.04361
1.12593
1.21648
0.753313
0.789081
0.832856
0.885569
0.947675
1.01951
1.10142
1.19375
1.29668
1.4102
0.824891
0.874957
0.934198
1.00385
1.08489
1.17813
1.28435
1.40424
1.53841
1.68698
0.918955
0.988752
1.07021
1.16515
1.27504
1.40124
1.54518
1.7083
1.89128
2.09364
1.0484
1.14635
1.26067
1.39373
1.54778
1.72508
1.92808
2.15911
2.41763
2.70479
1.23636
1.37623
1.54049
1.73255
1.95569
2.21315
2.50873
2.84312
3.21763
3.63434
1.51656
1.72126
1.96383
2.2494
2.58262
2.96772
3.40937
3.90511
4.45402
5.05727
1.93786
2.24558
2.61387
3.0507
3.56299
4.15592
4.82933
5.57319
6.37708
7.23295
2.56815
3.04012
3.61113
4.29391
5.0977
6.02593
7.06958
8.18901
9.32011
10.3865
3.48803
4.21536
5.10597
6.18121
7.45251
8.91809
10.5367
12.0904
13.1109
13.3408
4.7631
5.86493
7.23318
8.91037
10.926
13.2575
15.4068
15.9498
15.0383
13.7875
6.38883
7.99036
10.0161
12.5616
15.7344
19.0241
18.7624
16.6127
14.6351
12.9631
8.25022
10.4424
13.2686
16.9109
21.4966
22.4809
19.0501
16.1113
13.8162
11.983
10.1418
12.9105
16.4782
20.9963
24.6692
22.608
18.449
15.2525
12.8271
10.9238
12.0359
15.4551
20.0078
25.1708
26.1331
21.8012
17.4081
14.1313
11.6731
9.78345
14.0753
18.414
24.0745
28.2841
25.6729
20.2122
15.9302
12.7574
10.3903
8.61006
16.4811
22.0592
27.9945
28.7671
23.4537
18.1314
14.1536
11.2183
9.0514
7.46764
19.4189
25.9757
30.503
26.636
20.5121
15.7671
12.227
9.61956
7.73425
6.42405
22.5253
29.9153
29.7414
23.1556
17.6208
13.422
10.3148
8.06939
6.52362
5.55921
27.085
31.7626
26.4287
19.8989
14.8833
11.1831
8.50614
6.65597
5.50801
4.96327
32.8775
30.7615
22.7179
16.697
12.3095
9.126
6.88964
5.4657
4.77269
4.72206
32.9517
25.8918
19.0719
13.8968
10.095
7.36271
5.53926
4.56127
4.3807
4.90133
32.7599
23.3456
16.5654
11.7565
8.31181
5.92007
4.47602
3.96798
4.36179
5.53455
28.9416
20.7126
14.5309
10.0676
6.88598
4.76828
3.68739
3.67921
4.70824
6.61946
28.498
19.6188
13.3078
8.86288
5.78676
3.86965
3.13745
3.6556
5.37355
8.13062
28.7806
19.114
12.4973
7.94898
4.90691
3.15515
2.76956
3.82898
6.27121
10.0083
29.5147
19.0765
11.9666
7.22276
4.17908
2.57577
2.53013
4.11504
7.27508
12.0797
31.5304
19.3922
11.5586
6.58454
3.54558
2.08894
2.3651
4.42925
8.26829
14.1733
32.7853
19.29
10.9929
5.92969
2.96233
1.66469
2.22928
4.70473
9.16866
16.183
33.1532
18.9254
10.3649
5.29738
2.43942
1.29619
2.09297
4.89806
9.92148
18.023
33.093
18.4041
9.68796
4.6781
1.96651
0.976193
1.93965
4.99023
10.4994
19.6334
32.495
17.5701
8.86515
4.02587
1.52675
0.701749
1.76301
4.97577
10.8897
20.9651
31.323
16.3639
7.86335
3.33424
1.12378
0.477038
1.56044
4.8438
11.0528
21.8825
29.7839
14.8416
6.72531
2.63873
0.776454
0.306626
1.33344
4.58756
10.9665
22.3098
27.8943
13.0483
5.52237
1.98949
0.502284
0.189194
1.09007
4.20729
10.6354
22.282
25.5862
11.0549
4.34552
1.43376
0.307464
0.116536
0.847923
3.71531
10.0765
21.8819
22.1442
8.85609
3.27648
1.00111
0.184487
0.0765989
0.631346
3.14322
9.28272
20.999
17.8381
6.77536
2.41783
0.696277
0.115167
0.0520186
0.431798
2.47934
8.22188
19.871
12.2497
4.81825
1.73352
0.481501
0.0740477
0.0345846
0.266195
1.76893
6.70669
17.3701
8.64578
3.37932
1.21912
0.326848
0.0479299
0.0240232
0.155491
1.17665
5.20025
14.1097
4.98024
2.14354
0.814509
0.211112
0.0308527
0.018032
0.0870411
0.7202
3.89554
11.7467
2.85704
1.34567
0.520325
0.123796
0.0200618
0.0150194
0.0492381
0.392432
2.68101
9.89135
1.57341
0.813283
0.292347
0.0606885
0.0144982
0.0137183
0.0311669
0.184561
1.50765
7.35475
0.918382
0.456286
0.124192
0.0270257
0.0128285
0.0132354
0.0240774
0.0808252
0.559521
2.65037
0.272396
0.266853
0.261052
0.255077
0.249008
0.242917
0.236869
0.230918
0.225107
0.219469
0.214023
0.208775
0.20372
0.198842
0.194118
0.189515
0.184994
0.180511
0.176019
0.171465
0.166796
0.161957
0.156894
0.15156
0.145926
0.139943
0.133672
0.126922
0.119522
0.11139
0.102452
0.092668
0.0820429
0.0707952
0.0601217
0.0493995
0.038511
0.0274847
0.0168751
0.00642643
0.130413
0.128281
0.126021
0.123657
0.121213
0.118711
0.116173
0.113617
0.111059
0.108514
0.105991
0.103498
0.101039
0.0986152
0.0962245
0.0938627
0.0915229
0.0891962
0.0868719
0.0845373
0.0821786
0.0797807
0.0773279
0.0748042
0.0721928
0.0694745
0.0666284
0.0636153
0.0604044
0.0570036
0.0533911
0.0495681
0.0455612
0.0414471
0.0373927
0.0332862
0.0291545
0.0252703
0.022896
0.0375275
0.104584
0.103115
0.101547
0.099893
0.0981676
0.0963835
0.0945537
0.09269
0.0908032
0.0889031
0.0869977
0.0850935
0.0831954
0.0813065
0.0794284
0.0775608
0.0757021
0.073849
0.071997
0.0701401
0.0682714
0.0663827
0.0644652
0.0625089
0.0605034
0.0584372
0.0562983
0.0540743
0.0517555
0.0493374
0.0468157
0.0442119
0.0415469
0.0388559
0.0361996
0.0336638
0.0314472
0.0301693
0.0323472
0.0609455
0.0954551
0.0942549
0.092968
0.0916039
0.0901724
0.0886837
0.0871477
0.0855738
0.0839711
0.0823475
0.0807102
0.0790652
0.0774171
0.0757695
0.0741244
0.0724828
0.0708445
0.0692081
0.0675711
0.0659302
0.0642811
0.0626189
0.0609383
0.0592334
0.0574982
0.0557271
0.0539147
0.0520573
0.0501534
0.0482047
0.0462169
0.0442027
0.0421812
0.0401919
0.0383056
0.0366573
0.0355789
0.0359562
0.0413029
0.0828206
0.0917023
0.0906476
0.089512
0.0883032
0.0870293
0.085699
0.0843211
0.082904
0.0814561
0.0799848
0.0784969
0.0769979
0.0754924
0.0739838
0.0724744
0.0709654
0.0694572
0.0679491
0.0664398
0.0649274
0.0634094
0.0618832
0.0603457
0.0587944
0.0572266
0.055641
0.0540369
0.0524159
0.0507818
0.0491415
0.0475062
0.0458922
0.0443241
0.0428415
0.041517
0.0405122
0.0402352
0.0417559
0.0493153
0.100085
0.0904308
0.0894673
0.0884257
0.0873123
0.0861342
0.0848994
0.0836162
0.0822929
0.0809378
0.0795582
0.0781608
0.0767512
0.075334
0.0739124
0.0724888
0.0710646
0.0696403
0.0682158
0.0667906
0.0653638
0.0639341
0.0625005
0.061062
0.0596183
0.0581696
0.0567173
0.0552647
0.053817
0.0523826
0.0509734
0.0496067
0.048306
0.0471044
0.0460507
0.0452257
0.0447901
0.045153
0.0475285
0.056759
0.112576
0.0905574
0.0896583
0.0886816
0.0876326
0.0865175
0.085344
0.0841201
0.0828544
0.0815553
0.0802309
0.0788879
0.0775324
0.076169
0.0748012
0.0734313
0.072061
0.0706911
0.0693217
0.067953
0.0665847
0.0652167
0.0638491
0.0624824
0.0611177
0.0597574
0.058405
0.0570661
0.0557489
0.0544652
0.0532314
0.0520713
0.0510181
0.05012
0.0494483
0.0491106
0.0492769
0.0502691
0.0533318
0.0639997
0.124385
0.091582
0.0907342
0.089808
0.0888073
0.0877374
0.0866051
0.0854186
0.084187
0.0829194
0.0816245
0.0803101
0.0789828
0.0776477
0.0763088
0.0749687
0.0736292
0.0722915
0.0709562
0.0696238
0.0682945
0.0669691
0.0656485
0.064334
0.0630281
0.061734
0.0604566
0.0592027
0.0579818
0.0568075
0.0556985
0.054682
0.0537976
0.0531055
0.0526999
0.052733
0.0534529
0.0551915
0.0590747
0.0721098
0.159291
0.0932384
0.0924378
0.0915574
0.0905987
0.0895654
0.0884632
0.0873004
0.0860865
0.0848319
0.0835465
0.0822396
0.0809189
0.0795908
0.0782599
0.0769296
0.0756021
0.0742788
0.0729607
0.0716487
0.0703437
0.0690467
0.0677592
0.0664834
0.065222
0.063979
0.0627597
0.0615715
0.0604242
0.0593312
0.0583113
0.057391
0.0566093
0.0560254
0.0557343
0.0558962
0.0567975
0.0589238
0.0632794
0.0756835
0.153736
0.0953663
0.0946158
0.0937839
0.092869
0.0918718
0.090796
0.0896489
0.0884412
0.0871847
0.0858913
0.0845725
0.0832382
0.0818972
0.0805556
0.0792175
0.0778857
0.0765619
0.0752475
0.0739436
0.0726516
0.0713729
0.0701093
0.0688635
0.0676386
0.0664391
0.0652708
0.0641414
0.063061
0.0620436
0.0611082
0.0602818
0.0596038
0.0591344
0.0589698
0.0592733
0.0603409
0.0627405
0.0677452
0.0801687
0.141352
0.0978555
0.097163
0.0963892
0.0955281
0.0945751
0.0935289
0.0923948
0.0911829
0.0899085
0.088589
0.0872401
0.0858748
0.0845033
0.0831338
0.0817726
0.0804226
0.079086
0.0777644
0.0764593
0.0751722
0.0739049
0.0726597
0.0714394
0.070248
0.0690903
0.067973
0.0669047
0.0658969
0.0649651
0.0641308
0.0634243
0.0628894
0.0625922
0.0626358
0.0631893
0.0645469
0.0672733
0.0726852
0.0855867
0.146745
0.100616
0.0999932
0.0992931
0.0985043
0.097614
0.0966107
0.0954907
0.094264
0.0929552
0.0915904
0.0901923
0.0887785
0.0873616
0.0859507
0.0845537
0.0831744
0.0818154
0.0804784
0.0791651
0.0778771
0.0766164
0.0753859
0.0741887
0.0730293
0.0719136
0.0708491
0.0698457
0.0689167
0.06808
0.0673598
0.0667901
0.0664193
0.0663188
0.0665977
0.0674324
0.0691325
0.0723194
0.0785696
0.0938518
0.16669
0.103567
0.103024
0.102416
0.101726
0.10093
0.0999972
0.0989011
0.0976501
0.0962879
0.0948567
0.0933902
0.091912
0.0904368
0.0889744
0.0875319
0.0861151
0.0847263
0.0833674
0.0820402
0.0807464
0.0794883
0.0782688
0.0770918
0.0759623
0.0748868
0.0738739
0.0729349
0.0720847
0.0713429
0.0707362
0.0703013
0.0700902
0.0701784
0.0706816
0.0717893
0.0738432
0.0775597
0.0848251
0.102898
0.190754
0.10663
0.106174
0.105675
0.105113
0.104453
0.103641
0.102594
0.101313
0.099874
0.098355
0.0968048
0.0952503
0.093707
0.0921846
0.0906897
0.0892286
0.0878038
0.0864172
0.0850707
0.0837659
0.0825054
0.0812923
0.0801307
0.0790261
0.0779858
0.0770193
0.0761386
0.0753598
0.0747042
0.0741999
0.073886
0.0738171
0.0740735
0.0747798
0.0761435
0.0785485
0.082817
0.0911396
0.111983
0.214646
0.109735
0.109362
0.108979
0.108566
0.108087
0.107469
0.106527
0.10523
0.103689
0.102068
0.10043
0.0987949
0.0971759
0.0955837
0.0940268
0.0925121
0.0910429
0.0896211
0.0882483
0.0869261
0.0856568
0.0844435
0.0832906
0.0822039
0.081191
0.080262
0.0794298
0.0787111
0.078128
0.0777104
0.0774988
0.0775511
0.0779531
0.0788397
0.0804397
0.0831824
0.0879952
0.0973579
0.120868
0.237652
0.11283
0.112526
0.112253
0.112002
0.111746
0.111413
0.110749
0.109371
0.107717
0.106027
0.104319
0.102595
0.10088
0.0991952
0.0975564
0.0959711
0.0944444
0.092977
0.0915692
0.0902217
0.0889361
0.0877154
0.0865636
0.0854867
0.0844925
0.0835913
0.0827964
0.0821251
0.0816002
0.0812525
0.0811246
0.0812777
0.0818034
0.0828479
0.0846619
0.0877192
0.0930475
0.103396
0.129414
0.25951
0.115876
0.115606
0.1154
0.115262
0.11518
0.115119
0.114912
0.113777
0.112017
0.110305
0.108546
0.106699
0.10484
0.103024
0.101275
0.0995999
0.0980024
0.0964796
0.0950291
0.0936497
0.0923419
0.0911078
0.0899509
0.0888771
0.087894
0.087012
0.0862444
0.085609
0.085129
0.0848363
0.0847751
0.0850098
0.0856383
0.0868178
0.08882
0.0921611
0.0979617
0.10922
0.137568
0.28011
0.118844
0.118547
0.118322
0.118168
0.118079
0.118034
0.117997
0.117716
0.116386
0.114507
0.112795
0.110866
0.108875
0.10694
0.105095
0.103344
0.101682
0.100107
0.098616
0.0972055
0.0958752
0.0946267
0.093463
0.0923895
0.0914135
0.0905452
0.089798
0.0891897
0.088744
0.0884933
0.0884836
0.0887823
0.0894928
0.0907829
0.0929439
0.0965304
0.102748
0.114826
0.145299
0.299357
0.121765
0.121404
0.121113
0.120888
0.120717
0.120572
0.12041
0.120135
0.119569
0.118491
0.116626
0.114733
0.112743
0.110777
0.108903
0.107124
0.105432
0.103829
0.102313
0.100882
0.0995388
0.0982833
0.0971185
0.0960491
0.095082
0.0942271
0.0934978
0.0929118
0.0924928
0.092274
0.0923025
0.0926484
0.0934203
0.0947949
0.097081
0.100868
0.107438
0.120227
0.152596
0.317143
0.124675
0.124228
0.123851
0.123538
0.123273
0.123035
0.122787
0.122486
0.122086
0.121542
0.120579
0.118559
0.11647
0.114515
0.112668
0.11091
0.109229
0.107623
0.106105
0.104676
0.103339
0.102094
0.100943
0.099891
0.0989425
0.0981075
0.0973993
0.0968354
0.0964397
0.0962456
0.0963014
0.0966792
0.0974915
0.0989232
0.101298
0.105234
0.112083
0.125461
0.159468
0.333364
0.127608
0.127059
0.126579
0.126161
0.12579
0.125446
0.125101
0.124718
0.124258
0.123679
0.122919
0.121792
0.11997
0.117986
0.116264
0.114619
0.113001
0.11144
0.109959
0.108571
0.107277
0.106077
0.10497
0.103958
0.103048
0.102248
0.101571
0.101035
0.100664
0.100492
0.100567
0.100963
0.101796
0.103257
0.105681
0.109713
0.116758
0.130591
0.165948
0.347942
0.130599
0.129934
0.129338
0.128801
0.12831
0.127843
0.127377
0.126879
0.126312
0.125639
0.124823
0.123836
0.12265
0.121147
0.119461
0.118079
0.116621
0.115179
0.113816
0.112543
0.111359
0.110259
0.10924
0.108306
0.107464
0.106723
0.106097
0.105602
0.105262
0.105112
0.105202
0.105606
0.106442
0.107905
0.110341
0.114413
0.12157
0.135716
0.172115
0.36084
0.133684
0.132897
0.132178
0.131516
0.130898
0.130306
0.129716
0.129104
0.12844
0.127695
0.126843
0.125874
0.124797
0.123657
0.122473
0.121133
0.119935
0.11881
0.117703
0.116649
0.115656
0.114718
0.113836
0.11302
0.112281
0.11163
0.111078
0.110642
0.110346
0.110225
0.110328
0.110732
0.111556
0.112999
0.115411
0.119469
0.126659
0.140983
0.178124
0.372107
0.136903
0.135995
0.135154
0.134371
0.133631
0.13292
0.13222
0.131512
0.130777
0.129997
0.129162
0.12827
0.127337
0.126391
0.125441
0.124382
0.123296
0.122489
0.12179
0.12106
0.120324
0.119594
0.118884
0.118218
0.117617
0.11709
0.116642
0.116286
0.116047
0.115961
0.116079
0.116477
0.117277
0.118679
0.121038
0.12504
0.132192
0.146575
0.184208
0.382056
0.140299
0.13928
0.138328
0.137433
0.136584
0.135769
0.134973
0.134184
0.13339
0.132582
0.131757
0.130919
0.130076
0.129239
0.128412
0.127604
0.126863
0.126295
0.126094
0.1259
0.125513
0.125027
0.124516
0.124031
0.12361
0.12325
0.122937
0.122679
0.122507
0.122461
0.122593
0.122981
0.123749
0.125097
0.127381
0.131294
0.138357
0.152704
0.190611
0.391574
0.143926
0.142813
0.141767
0.140779
0.139839
0.138937
0.138063
0.137208
0.136365
0.135532
0.134707
0.133898
0.133114
0.132371
0.131687
0.131092
0.130649
0.130427
0.130573
0.131123
0.131364
0.131198
0.130903
0.130617
0.130413
0.13027
0.130117
0.129965
0.129863
0.129855
0.129997
0.13037
0.131098
0.132384
0.134585
0.138395
0.145346
0.159615
0.19771
0.40163
0.147855
0.146673
0.145557
0.144499
0.143491
0.142525
0.141595
0.140695
0.139823
0.138979
0.138167
0.137396
0.13668
0.136041
0.135508
0.135124
0.134949
0.135064
0.135579
0.136668
0.137843
0.138185
0.138145
0.138078
0.138133
0.138249
0.138278
0.138243
0.138217
0.138245
0.138389
0.138737
0.139417
0.140635
0.142751
0.146463
0.153314
0.16753
0.205886
0.413396
0.152183
0.15096
0.149801
0.148699
0.147648
0.146644
0.145684
0.144767
0.143893
0.143068
0.142299
0.141599
0.140988
0.140493
0.14015
0.140007
0.140124
0.140568
0.141424
0.142797
0.144629
0.145736
0.146146
0.146451
0.146867
0.147291
0.147543
0.147646
0.147684
0.147723
0.147842
0.148139
0.14875
0.149885
0.151911
0.155536
0.162329
0.176598
0.21552
0.428192
0.15703
0.155797
0.154622
0.153502
0.152434
0.151419
0.150456
0.14955
0.148707
0.147935
0.147247
0.14666
0.146199
0.145894
0.145785
0.145921
0.146361
0.147165
0.148403
0.150157
0.152643
0.154741
0.155694
0.156404
0.157149
0.157819
0.158231
0.158397
0.158419
0.158398
0.158426
0.158613
0.1591
0.160107
0.162014
0.165551
0.172341
0.186839
0.226853
0.447337
0.162534
0.161321
0.160159
0.159047
0.157989
0.156989
0.156053
0.155191
0.154412
0.153732
0.153168
0.152743
0.152483
0.152424
0.152605
0.153079
0.153907
0.155161
0.156949
0.159433
0.162897
0.166179
0.167662
0.168597
0.169508
0.170254
0.170638
0.170687
0.170554
0.170357
0.170191
0.170168
0.170434
0.171222
0.172934
0.176346
0.183172
0.198113
0.239929
0.471877
0.168842
0.167682
0.166561
0.165487
0.164467
0.163513
0.162637
0.161855
0.161184
0.160646
0.160265
0.16007
0.160095
0.160378
0.160965
0.161913
0.163269
0.165106
0.167534
0.170735
0.174993
0.179271
0.181334
0.182473
0.18352
0.184319
0.184629
0.184495
0.184123
0.183649
0.183169
0.182799
0.1827
0.183124
0.184509
0.1877
0.194551
0.210125
0.254552
0.501996
0.176106
0.175032
0.173987
0.172984
0.172038
0.171166
0.170391
0.169737
0.169229
0.168897
0.168775
0.1689
0.169314
0.170061
0.171193
0.172761
0.174791
0.177334
0.180469
0.184332
0.189147
0.194147
0.196807
0.198201
0.199321
0.200092
0.200278
0.199925
0.199242
0.19837
0.197417
0.196521
0.195866
0.195735
0.196616
0.199438
0.206235
0.222523
0.270164
0.537088
0.184469
0.183525
0.182599
0.181709
0.180882
0.180143
0.179526
0.179062
0.178789
0.178748
0.178981
0.179537
0.180466
0.181823
0.183662
0.186009
0.188891
0.192346
0.196462
0.201397
0.20739
0.213461
0.216354
0.21767
0.2185
0.218832
0.218505
0.217599
0.216303
0.214746
0.213057
0.211389
0.209949
0.209054
0.20924
0.211524
0.218131
0.235078
0.286184
0.575633
0.194067
0.193308
0.192555
0.191839
0.191193
0.190658
0.190276
0.190094
0.190161
0.190528
0.191252
0.192393
0.194017
0.196195
0.198997
0.202442
0.206563
0.211396
0.217023
0.2236
0.231512
0.239066
0.241527
0.241953
0.241878
0.241265
0.23993
0.237954
0.235561
0.232919
0.230169
0.22747
0.225037
0.223204
0.222544
0.224147
0.230412
0.247844
0.30226
0.615384
0.205017
0.204514
0.204011
0.203547
0.203172
0.202938
0.202907
0.203139
0.203699
0.204651
0.206064
0.208014
0.210589
0.213895
0.218024
0.22303
0.228971
0.235889
0.243797
0.252558
0.262198
0.269479
0.270784
0.270182
0.269003
0.267035
0.264122
0.260552
0.256677
0.252673
0.248663
0.244798
0.241288
0.238464
0.236913
0.237776
0.243585
0.261273
0.318511
0.654441
0.217413
0.217261
0.217106
0.217001
0.217013
0.217216
0.217694
0.218532
0.219815
0.22162
0.224026
0.227116
0.231003
0.235828
0.241701
0.248729
0.257007
0.266591
0.277383
0.289283
0.300638
0.305246
0.304781
0.302418
0.299191
0.294989
0.28995
0.284559
0.279096
0.273699
0.26847
0.26353
0.259057
0.255362
0.253021
0.253193
0.258508
0.276238
0.335634
0.692059
0.231326
0.231641
0.231958
0.232345
0.232891
0.233701
0.234894
0.236598
0.238932
0.241999
0.245878
0.250637
0.256387
0.263314
0.271573
0.28132
0.292756
0.306155
0.32145
0.337287
0.349254
0.349406
0.345165
0.339127
0.332259
0.324775
0.317161
0.309817
0.302829
0.296225
0.290025
0.284277
0.279107
0.274782
0.271852
0.271476
0.27634
0.293971
0.35491
0.729114
0.246784
0.247707
0.248647
0.249687
0.250939
0.252549
0.254691
0.257561
0.261358
0.266249
0.272327
0.279603
0.288118
0.298069
0.309812
0.323559
0.339317
0.357367
0.378742
0.402682
0.409965
0.402315
0.390947
0.378777
0.366767
0.355584
0.345556
0.336603
0.328486
0.321065
0.314258
0.308046
0.302494
0.297823
0.294553
0.293831
0.29838
0.315934
0.37814
0.76815
0.263756
0.265452
0.267193
0.269074
0.271228
0.273837
0.27714
0.281434
0.287058
0.294355
0.303581
0.314728
0.32722
0.3412
0.357525
0.377116
0.399075
0.421036
0.447862
0.479477
0.480465
0.455243
0.431388
0.412661
0.397744
0.385288
0.374554
0.365122
0.356675
0.349033
0.342097
0.335823
0.330238
0.325529
0.322198
0.321395
0.325889
0.343638
0.407469
0.813221
0.28212
0.284764
0.287506
0.290443
0.293715
0.297524
0.302155
0.307992
0.315535
0.325395
0.338266
0.354696
0.373679
0.392787
0.412487
0.432322
0.454555
0.485599
0.520972
0.52313
0.496001
0.471262
0.451919
0.436765
0.424434
0.413881
0.404525
0.396035
0.388226
0.381048
0.374503
0.368582
0.363301
0.358839
0.355721
0.355144
0.359969
0.378461
0.444951
0.86966
0.301631
0.305369
0.309283
0.313465
0.318047
0.323223
0.329276
0.336607
0.345787
0.357576
0.372705
0.39055
0.411017
0.432839
0.454037
0.477237
0.507454
0.535316
0.534987
0.517058
0.499617
0.484753
0.472599
0.46255
0.453929
0.446205
0.439009
0.432073
0.425318
0.418902
0.412985
0.407609
0.402762
0.398654
0.395914
0.395844
0.401463
0.421499
0.492416
0.943258
0.322016
0.326911
0.332071
0.337577
0.343545
0.350147
0.357622
0.366308
0.376727
0.389547
0.405208
0.423172
0.443486
0.466318
0.491942
0.519393
0.540243
0.542385
0.535107
0.526398
0.518046
0.510604
0.504039
0.498061
0.492481
0.487142
0.4818
0.476171
0.470293
0.464568
0.459219
0.454261
0.449656
0.445752
0.443383
0.444013
0.450893
0.473435
0.551151
1.03925
0.343254
0.349303
0.35569
0.362477
0.369765
0.377712
0.386527
0.396483
0.407968
0.421581
0.437951
0.457784
0.480836
0.506506
0.533929
0.553
0.558586
0.558607
0.557186
0.555188
0.552929
0.550657
0.548048
0.544977
0.541625
0.538026
0.533929
0.529135
0.524011
0.519025
0.514152
0.509299
0.504603
0.500689
0.498625
0.500053
0.508579
0.534622
0.621871
1.16164
0.365885
0.373137
0.380762
0.38879
0.397306
0.406455
0.416424
0.427428
0.43975
0.453742
0.469887
0.488617
0.50987
0.532664
0.554058
0.570044
0.579737
0.586473
0.591609
0.595406
0.598123
0.599982
0.600813
0.600486
0.599135
0.596861
0.593639
0.5897
0.585544
0.581206
0.576605
0.571849
0.567226
0.563485
0.561829
0.56417
0.574682
0.605212
0.704939
1.31284
0.390835
0.399606
0.408766
0.41827
0.428181
0.438645
0.449802
0.46178
0.474767
0.48907
0.50495
0.522463
0.541379
0.560912
0.579525
0.595905
0.609958
0.622132
0.632537
0.64123
0.648527
0.654492
0.658837
0.661304
0.661908
0.66101
0.659037
0.656283
0.652865
0.648853
0.644489
0.640079
0.635937
0.632813
0.632031
0.63579
0.648958
0.685137
0.800563
1.4941
0.419338
0.430033
0.441141
0.45263
0.464494
0.47677
0.489504
0.502798
0.516857
0.531913
0.548105
0.565481
0.583861
0.602697
0.621193
0.63885
0.655411
0.670752
0.684759
0.69733
0.708358
0.717503
0.72439
0.728849
0.731086
0.731524
0.730516
0.728244
0.72495
0.721017
0.716819
0.712687
0.709063
0.706838
0.707422
0.713379
0.730353
0.773951
0.908935
1.70651
0.452736
0.466054
0.479803
0.493942
0.508419
0.523185
0.538222
0.553604
0.569499
0.586074
0.603473
0.621788
0.640952
0.66059
0.680328
0.699801
0.718708
0.736757
0.753631
0.768974
0.782398
0.793458
0.801795
0.807311
0.810239
0.810968
0.809865
0.807233
0.803448
0.798975
0.794289
0.789866
0.786354
0.784793
0.786828
0.795482
0.817319
0.870422
1.02981
1.95192
0.492394
0.509222
0.526551
0.54424
0.562199
0.580327
0.598547
0.616885
0.635477
0.654475
0.674019
0.694247
0.715135
0.736531
0.758199
0.779835
0.8011
0.821598
0.840845
0.858256
0.873192
0.885111
0.893729
0.899076
0.901448
0.901279
0.899021
0.89512
0.890049
0.884331
0.878525
0.873255
0.869328
0.867922
0.870954
0.882037
0.909021
0.973503
1.16256
2.23277
0.539717
0.561032
0.582953
0.605292
0.627871
0.650471
0.67296
0.695321
0.717639
0.74003
0.762633
0.785598
0.809037
0.832867
0.856915
0.880906
0.904474
0.92716
0.948344
0.967175
0.982727
0.994335
1.00188
1.00563
1.00605
1.00371
0.999176
0.993013
0.985789
0.978092
0.970556
0.963911
0.959092
0.957462
0.96125
0.97463
1.0068
1.08318
1.3052
2.55022
0.595733
0.622752
0.650571
0.678902
0.707462
0.735955
0.76415
0.791926
0.81927
0.846236
0.872932
0.899499
0.926202
0.953033
0.97987
1.00645
1.03233
1.05698
1.07963
1.09902
1.11384
1.12342
1.1281
1.12858
1.12555
1.1197
1.11173
1.10227
1.09197
1.08149
1.07152
1.0629
1.05669
1.05445
1.05876
1.07443
1.11213
1.20115
1.45917
2.90239
0.661258
0.695395
0.730682
0.766706
0.80305
0.839305
0.875107
0.910181
0.944352
0.97754
1.00975
1.04106
1.07166
1.10193
1.13183
1.1612
1.18948
1.21594
1.23957
1.25807
1.26968
1.27475
1.27456
1.27007
1.26212
1.25149
1.23893
1.22515
1.21081
1.19665
1.18345
1.17214
1.16393
1.16062
1.16512
1.18299
1.22637
1.32862
1.62425
3.28689
0.736758
0.779618
0.824207
0.869993
0.916415
0.962902
1.00891
1.05394
1.09757
1.13946
1.17934
1.217
1.2524
1.28607
1.3184
1.3498
1.38044
1.40894
1.43237
1.44628
1.45154
1.45041
1.44401
1.43323
1.41906
1.40245
1.3842
1.36499
1.34556
1.3267
1.30928
1.29439
1.28341
1.27836
1.28258
1.30237
1.35153
1.46787
1.80345
3.70268
0.822475
0.87582
0.931776
0.98971
1.04892
1.10867
1.16821
1.22678
1.28364
1.338
1.38902
1.43586
1.47761
1.51345
1.54378
1.57601
1.60776
1.63347
1.65062