/*--------------------------------*- C++ -*----------------------------------*\
  =========                 |
  \\      /  F ield         | OpenFOAM: The Open Source CFD Toolbox
   \\    /   O peration     | Website:  https://openfoam.org
    \\  /    A nd           | Version:  8
     \\/     M anipulation  |
\*---------------------------------------------------------------------------*/
FoamFile
{
    version     2.0;
    format      ascii;
    class       volScalarField;
    location    "2.4";
    object      k;
}
// * * * * * * * * * * * * * * * * * * * * * * * * * * * * * * * * * * * * * //

dimensions      [0 2 -2 0 0 0 0];

internalField   nonuniform List<scalar> 
9150
(
0.00182744
0.000941591
0.000477433
0.000306319
0.000202078
0.000202156
0.000306393
0.000477581
0.000941869
0.00182738
0.00178499
0.000746928
0.000400785
0.000261258
0.000169471
0.000169531
0.000261335
0.000400897
0.000747156
0.00178497
0.00171347
0.000651771
0.000367871
0.000241094
0.000156473
0.000156518
0.000241159
0.000367958
0.000651957
0.00171347
0.00163492
0.000601723
0.000354773
0.000233053
0.000151568
0.000151603
0.000233105
0.000354843
0.000601872
0.00163492
0.00155146
0.000580107
0.000350009
0.000230245
0.000150057
0.000150087
0.00023029
0.00035007
0.000580234
0.00155147
0.00285453
0.00258833
0.00188477
0.00166565
0.00140105
0.00139871
0.00165882
0.00187285
0.00257216
0.00285206
0.00230477
0.00150869
0.00129707
0.00123999
0.00102577
0.00102483
0.00123694
0.00129187
0.00150557
0.00230485
0.00205008
0.00125453
0.000896674
0.000825408
0.000658261
0.000657969
0.000824215
0.000894909
0.00125401
0.00205026
0.00186822
0.00111209
0.000654801
0.000540861
0.00040622
0.000406188
0.000540531
0.000654372
0.00111235
0.00186831
0.00178754
0.00102287
0.000527236
0.000378474
0.000265674
0.000265728
0.000378459
0.000527269
0.00102323
0.00178757
0.0166767
0.00648201
0.00279367
0.00194421
0.00160641
0.00161537
0.00195257
0.00260326
0.00466885
0.00933236
0.00497608
0.00372959
0.00253168
0.00194412
0.0016159
0.00161971
0.00194209
0.00254031
0.00391511
0.0048695
0.00442439
0.00341511
0.00251477
0.00194912
0.00162665
0.00162595
0.00193628
0.00250397
0.00347525
0.00439584
0.00392926
0.00316725
0.00249486
0.00194631
0.00163722
0.00163328
0.00193151
0.00247947
0.00315642
0.00391739
0.00336853
0.00312902
0.00239243
0.00189748
0.00161225
0.00160758
0.00188534
0.00237606
0.0031009
0.00336368
0.00821513
0.00821046
0.00819471
0.00816823
0.00813133
0.00808443
0.00802801
0.00796263
0.00788888
0.00780719
0.017221
0.0172256
0.0172109
0.0171773
0.0171252
0.0170551
0.0169676
0.0168635
0.0167439
0.0166097
0.0216095
0.0216156
0.0215999
0.0215627
0.0215044
0.0214255
0.0213266
0.0212087
0.0210725
0.0209194
0.0246379
0.0246449
0.024629
0.0245906
0.02453
0.0244475
0.0243439
0.0242198
0.0240761
0.0239139
0.0270525
0.0270602
0.0270446
0.0270061
0.0269448
0.026861
0.0267554
0.0266285
0.0264811
0.026314
0.0291158
0.0291241
0.029109
0.0290708
0.0290097
0.028926
0.0288199
0.0286921
0.028543
0.0283734
0.0309512
0.0309598
0.0309453
0.0309078
0.0308475
0.0307645
0.0306591
0.0305316
0.0303825
0.0302122
0.0326267
0.0326354
0.0326214
0.0325848
0.0325256
0.0324441
0.0323403
0.0322144
0.0320665
0.0318971
0.0341836
0.034192
0.0341783
0.0341426
0.0340849
0.0340054
0.033904
0.0337807
0.0336357
0.0334687
0.0356484
0.0356561
0.0356423
0.0356072
0.0355511
0.035474
0.0353757
0.0352562
0.0351153
0.0349528
0.0370388
0.0370448
0.0370303
0.0369955
0.0369407
0.0368659
0.0367711
0.0366562
0.0365208
0.0363646
0.0383666
0.0383699
0.0383536
0.0383181
0.0382639
0.038191
0.0380996
0.0379896
0.0378606
0.0377121
0.0396399
0.039639
0.0396195
0.0395819
0.0395269
0.0394548
0.0393659
0.0392602
0.0391376
0.0389977
0.0408647
0.0408577
0.0408329
0.0407913
0.0407334
0.0406601
0.0405719
0.0404691
0.0403518
0.04022
0.0420454
0.0420301
0.0419978
0.0419495
0.0418862
0.0418091
0.0417188
0.0416162
0.0415019
0.0413762
0.0431859
0.0431598
0.0431172
0.0430594
0.0429878
0.0429036
0.042808
0.0427023
0.0425874
0.0424644
0.0442895
0.04425
0.0441944
0.0441242
0.044041
0.0439463
0.0438418
0.0437289
0.0436091
0.043484
0.0453591
0.0453039
0.0452326
0.045147
0.045049
0.0449404
0.044823
0.0446986
0.0445688
0.0444353
0.0463974
0.0463243
0.046235
0.0461314
0.0460158
0.04589
0.0457562
0.0456164
0.0454722
0.0453253
0.0474072
0.0473147
0.0472053
0.0470815
0.0469454
0.0467997
0.0466465
0.0464879
0.0463259
0.0461619
0.0483919
0.0482787
0.0481476
0.0480013
0.0478426
0.0476743
0.0474989
0.0473188
0.0471359
0.0469518
0.0493557
0.0492207
0.049066
0.0488951
0.0487113
0.048518
0.048318
0.048114
0.0479078
0.047701
0.0503032
0.0501446
0.049964
0.049766
0.0495547
0.0493341
0.0491074
0.0488774
0.048646
0.0484147
0.0512385
0.0510533
0.0508436
0.0506153
0.0503739
0.0501239
0.049869
0.0496118
0.0493542
0.0490976
0.0521638
0.0519468
0.0517029
0.0514407
0.051167
0.0508865
0.0506029
0.0503188
0.0500356
0.0497543
0.0530749
0.0528173
0.052534
0.0522358
0.0519295
0.0516197
0.0513094
0.0510005
0.0506939
0.0503903
0.0539505
0.0536452
0.0533225
0.0529915
0.0526574
0.0523233
0.0519911
0.0516618
0.051336
0.0510138
0.0547444
0.0544046
0.0540563
0.0537047
0.0533531
0.0530034
0.0526565
0.0523131
0.0519733
0.0516372
0.0554452
0.0550973
0.0547433
0.0543866
0.0540296
0.0536739
0.0533203
0.0529694
0.0526212
0.052276
0.0560826
0.0557481
0.0554046
0.0550561
0.0547049
0.0543525
0.054
0.0536479
0.0532969
0.0529474
0.0566903
0.0563833
0.0560636
0.0557348
0.0553991
0.0550584
0.0547139
0.0543667
0.054018
0.0536686
0.0573112
0.0570385
0.0567496
0.0564473
0.0561337
0.0558106
0.0554796
0.0551423
0.0548003
0.0544551
0.0579742
0.0577385
0.0574838
0.0572119
0.0569244
0.0566233
0.0563102
0.0559871
0.0556561
0.0553193
0.0586929
0.0584949
0.0582758
0.0580367
0.0577787
0.0575034
0.0572125
0.0569083
0.0565931
0.0562696
0.0594618
0.0593033
0.0591225
0.0589196
0.0586951
0.0584503
0.058187
0.0579072
0.0576138
0.0573098
0.0602684
0.0601535
0.0600153
0.0598532
0.0596675
0.059459
0.0592295
0.0589811
0.0587167
0.05844
0.0611082
0.0610402
0.0609481
0.0608311
0.0606891
0.0605228
0.0603337
0.0601242
0.0598974
0.059657
0.0619829
0.0619625
0.0619179
0.0618483
0.0617534
0.0616339
0.0614914
0.0613282
0.0611477
0.0609539
0.0628938
0.0629191
0.0629208
0.0628984
0.0628519
0.0627822
0.0626911
0.062581
0.0624555
0.0623188
0.0638364
0.0639048
0.0639503
0.0639729
0.0639741
0.063955
0.063918
0.0638659
0.0638026
0.0637326
0.0648035
0.0649105
0.0649967
0.0650623
0.0651086
0.0651386
0.0651558
0.0651636
0.0651664
0.0651691
0.0657885
0.0659289
0.0660512
0.0661565
0.0662467
0.0663247
0.0663942
0.0664604
0.0665288
0.0666047
0.0667898
0.0669603
0.0671156
0.0672578
0.0673896
0.0675149
0.0676378
0.0677628
0.0678952
0.0680414
0.0678164
0.068017
0.0682058
0.0683856
0.0685603
0.0687343
0.068913
0.0691013
0.0693039
0.0695256
0.0688934
0.0691273
0.0693538
0.0695768
0.0698006
0.0700308
0.0702745
0.0705375
0.070823
0.0711339
0.0700553
0.0703278
0.0706004
0.0708778
0.0711634
0.0714633
0.0717878
0.0721447
0.0725364
0.0729636
0.0713336
0.0716513
0.0719808
0.0723281
0.072695
0.0730873
0.073517
0.0739932
0.0745201
0.0750989
0.0727556
0.0731237
0.0735186
0.0739485
0.0744201
0.0749389
0.0755128
0.0761506
0.0768556
0.0776258
0.0743357
0.0747663
0.0752431
0.075779
0.0763841
0.0770661
0.0778282
0.0786742
0.0796039
0.0806131
0.076079
0.0766024
0.0771951
0.0778742
0.0786492
0.0795277
0.0805136
0.0816064
0.0828027
0.0840954
0.0780108
0.0786611
0.0794042
0.0802608
0.0812417
0.0823518
0.0835947
0.0849691
0.0864697
0.0880873
0.0801727
0.0809737
0.0818971
0.0829593
0.0841713
0.0855399
0.0870683
0.0887553
0.0905948
0.0925766
0.082603
0.0835696
0.0846881
0.0859724
0.0874335
0.0890794
0.0909149
0.0929399
0.0951491
0.0975322
0.0853061
0.0864421
0.0877613
0.0892758
0.0909983
0.0929383
0.0951023
0.0974919
0.100103
0.102927
0.0882934
0.0896013
0.0911208
0.0928675
0.0948589
0.0971097
0.0996285
0.102418
0.105476
0.10879
0.0916367
0.0931058
0.0948084
0.0967847
0.0990647
0.101664
0.104591
0.107846
0.111422
0.11531
0.0954986
0.0970435
0.0988819
0.101125
0.103775
0.106823
0.110266
0.114098
0.118307
0.122875
0.0991275
0.101025
0.103333
0.106092
0.10931
0.112983
0.11711
0.121686
0.126703
0.132141
0.102707
0.105368
0.10844
0.111977
0.116008
0.120549
0.12561
0.131198
0.137309
0.143926
0.106843
0.110438
0.114491
0.119067
0.124209
0.129945
0.136299
0.14329
0.150912
0.159124
0.111904
0.116641
0.121947
0.127887
0.134512
0.141862
0.149977
0.158887
0.168548
0.178962
0.118557
0.12472
0.13163
0.139357
0.147953
0.157459
0.167923
0.179327
0.191676
0.204993
0.127554
0.135562
0.144582
0.154692
0.165935
0.178334
0.19192
0.206609
0.222362
0.2392
0.139754
0.150244
0.162129
0.175492
0.190367
0.206731
0.224468
0.243362
0.263237
0.283976
0.156113
0.169991
0.185815
0.203675
0.223548
0.245281
0.268555
0.292736
0.316829
0.339537
0.177435
0.195846
0.216985
0.240939
0.26757
0.296511
0.326948
0.3557
0.37554
0.382263
0.203822
0.227962
0.255881
0.287756
0.323472
0.362096
0.396664
0.407551
0.396467
0.378726
0.233994
0.264727
0.300637
0.342275
0.390119
0.435847
0.435088
0.407327
0.379226
0.353547
0.265275
0.302726
0.346916
0.398894
0.458181
0.471328
0.429152
0.389014
0.354785
0.325291
0.29451
0.33762
0.388181
0.446038
0.488719
0.464337
0.410628
0.365209
0.327694
0.29599
0.321388
0.370331
0.428922
0.487732
0.496669
0.44401
0.385547
0.337671
0.298593
0.266214
0.347638
0.404631
0.470247
0.513233
0.481566
0.413645
0.354909
0.307198
0.268484
0.237062
0.37564
0.442286
0.504192
0.508322
0.445599
0.377126
0.320687
0.275064
0.238433
0.209479
0.405861
0.476502
0.518563
0.474237
0.400369
0.336891
0.284669
0.242541
0.209369
0.184283
0.432612
0.50535
0.499252
0.424963
0.355437
0.296824
0.248928
0.210963
0.182336
0.162503
0.470202
0.511219
0.454346
0.37805
0.312222
0.257971
0.214512
0.181431
0.158557
0.145481
0.514255
0.491567
0.405427
0.33163
0.270654
0.221082
0.18249
0.155194
0.139439
0.134695
0.506388
0.435133
0.356896
0.289145
0.232784
0.187494
0.153984
0.13345
0.126306
0.13138
0.496361
0.400226
0.319549
0.253508
0.199704
0.157902
0.129748
0.117113
0.120038
0.136018
0.452445
0.363807
0.286822
0.222883
0.171084
0.132495
0.110199
0.106607
0.120688
0.148043
0.437229
0.342012
0.26298
0.198431
0.147252
0.111334
0.095269
0.101571
0.127282
0.166115
0.428911
0.326867
0.244715
0.178586
0.12729
0.0937108
0.0842394
0.10082
0.137953
0.188425
0.424796
0.31751
0.230978
0.162378
0.110429
0.0788994
0.0761747
0.102679
0.150222
0.211894
0.432418
0.313216
0.220192
0.148533
0.0957297
0.0660581
0.0699731
0.105432
0.162028
0.234118
0.435779
0.30659
0.208904
0.135339
0.0822621
0.0544868
0.0646694
0.10778
0.172151
0.254032
0.433108
0.298357
0.197628
0.122961
0.0700004
0.0439897
0.059634
0.108943
0.179972
0.271066
0.427686
0.289224
0.186277
0.111085
0.0586952
0.0344561
0.0545087
0.108615
0.185331
0.285031
0.41874
0.277719
0.173637
0.0989274
0.0479955
0.0259094
0.0491294
0.106719
0.188261
0.295867
0.406119
0.263199
0.159145
0.0862131
0.0379126
0.018565
0.0433807
0.103042
0.188362
0.302543
0.391495
0.246055
0.14309
0.0732949
0.0287985
0.0126837
0.0372063
0.0973846
0.185347
0.304461
0.375239
0.226611
0.126154
0.0608408
0.0210873
0.00838742
0.0306872
0.0896051
0.179149
0.301878
0.357016
0.205422
0.109355
0.0496193
0.015083
0.00557389
0.0241575
0.0797435
0.169814
0.295366
0.330925
0.182157
0.0936991
0.0402617
0.0108332
0.00395332
0.0181886
0.06819
0.157201
0.283954
0.297289
0.159677
0.0806738
0.0330923
0.00809258
0.00300742
0.0127976
0.0550024
0.141226
0.269838
0.249813
0.137834
0.0699047
0.027535
0.00622356
0.00238588
0.00841822
0.0409802
0.119845
0.24352
0.21712
0.12066
0.0610093
0.0227992
0.00478785
0.00201498
0.00548573
0.0287694
0.0979289
0.209495
0.178242
0.103732
0.0523464
0.0180594
0.00357329
0.00179977
0.0036906
0.0189494
0.0778101
0.182602
0.149976
0.0882983
0.0422868
0.0126349
0.00254466
0.0016849
0.00270722
0.011613
0.0583479
0.161237
0.121169
0.0688032
0.0283321
0.00681902
0.00186368
0.00163354
0.0022266
0.0066527
0.0383838
0.133913
0.0847648
0.0399679
0.0116723
0.00275261
0.00162554
0.00161686
0.00201973
0.00378772
0.0193322
0.0806347
0.00771519
0.00761021
0.00749957
0.0073848
0.00726732
0.00714847
0.00702949
0.00691146
0.00679525
0.00668157
0.00657083
0.00646325
0.00635877
0.00625715
0.00615793
0.00606046
0.00596395
0.00586745
0.00576992
0.00567017
0.00556694
0.00545888
0.00534462
0.00522286
0.00509261
0.00495241
0.00480324
0.00464013
0.00445793
0.00425328
0.00402252
0.00376206
0.00346858
0.0031437
0.00281907
0.00247296
0.00209463
0.00167273
0.00120831
0.00101473
0.0164543
0.0162747
0.0160822
0.0158788
0.0156667
0.0154478
0.0152241
0.0149972
0.0147686
0.0145394
0.0143106
0.0140827
0.0138559
0.0136302
0.0134051
0.01318
0.012954
0.0127258
0.0124941
0.0122571
0.0120129
0.0117595
0.0114944
0.011215
0.0109186
0.0106019
0.0102612
0.00989216
0.0094905
0.00905538
0.00858221
0.00806762
0.00750813
0.00689956
0.00623406
0.00552058
0.00475109
0.0039064
0.00290883
0.00140043
0.0207407
0.0205333
0.0203098
0.0200723
0.019823
0.019564
0.0192972
0.0190245
0.0187474
0.0184672
0.0181849
0.0179011
0.0176162
0.01733
0.0170424
0.0167525
0.0164594
0.016162
0.0158586
0.0155476
0.015227
0.0148945
0.0145479
0.0141843
0.0138011
0.013395
0.0129629
0.0125012
0.0120066
0.0114757
0.0109041
0.0102907
0.00963187
0.00892227
0.0081541
0.00732552
0.0064213
0.00540289
0.00413267
0.00193829
0.0237237
0.0235021
0.0232621
0.0230059
0.0227355
0.0224531
0.0221606
0.0218598
0.0215525
0.0212399
0.0209231
0.0206027
0.020279
0.0199521
0.0196216
0.0192868
0.0189468
0.0186004
0.018246
0.017882
0.0175065
0.0171174
0.0167125
0.0162892
0.0158452
0.0153777
0.0148841
0.0143615
0.013807
0.0132179
0.0125908
0.0119221
0.0112065
0.0104384
0.00961
0.00870696
0.00771024
0.00656147
0.00507115
0.0023777
0.0261173
0.025887
0.0256365
0.0253678
0.025083
0.024784
0.0244729
0.0241516
0.0238217
0.0234847
0.0231415
0.022793
0.0224393
0.0220805
0.0217163
0.021346
0.0209685
0.0205828
0.0201873
0.0197805
0.0193606
0.0189256
0.0184735
0.0180023
0.0175096
0.0169934
0.0164513
0.0158811
0.0152804
0.0146468
0.0139773
0.0132679
0.012513
0.0117038
0.0108262
0.00986121
0.00877989
0.00750615
0.0058108
0.00269763
0.0281729
0.027937
0.0276793
0.0274015
0.0271057
0.0267937
0.0264678
0.0261297
0.0257812
0.0254238
0.0250586
0.0246862
0.0243072
0.0239214
0.0235284
0.0231277
0.0227181
0.0222987
0.0218678
0.0214241
0.0209658
0.0204913
0.0199985
0.0194857
0.018951
0.0183923
0.0178079
0.0171959
0.0165542
0.0158807
0.0151728
0.0144267
0.0136368
0.0127932
0.0118791
0.0108649
0.00970151
0.00829325
0.00636749
0.00291804
0.0300098
0.0297707
0.029508
0.0292235
0.028919
0.0285963
0.0282577
0.027905
0.0275401
0.0271645
0.0267795
0.0263859
0.025984
0.0255738
0.025155
0.0247269
0.0242885
0.0238387
0.0233761
0.0228992
0.0224065
0.0218963
0.0213668
0.0208164
0.0202431
0.0196453
0.0190211
0.0183688
0.0176865
0.0169721
0.0162234
0.0154374
0.0146092
0.0137309
0.0127864
0.0117413
0.0105186
0.0089903
0.00686864
0.00311839
0.0316948
0.0314545
0.0311891
0.0309
0.0305887
0.0302571
0.0299073
0.0295414
0.0291614
0.0287689
0.0283653
0.0279515
0.027528
0.0270949
0.0266518
0.0261981
0.0257329
0.025255
0.0247631
0.0242557
0.0237313
0.0231883
0.022625
0.0220396
0.0214303
0.0207952
0.0201323
0.0194396
0.0187149
0.0179558
0.0171595
0.0163228
0.0154414
0.0145094
0.0135163
0.0124378
0.0111968
0.00963638
0.0075162
0.00367788
0.0332686
0.0330296
0.0327639
0.0324725
0.0321566
0.0318179
0.0314584
0.0310803
0.0306859
0.0302769
0.029855
0.0294214
0.0289767
0.0285212
0.0280547
0.0275765
0.0270858
0.0265814
0.0260621
0.0255263
0.0249727
0.0243994
0.0238049
0.0231872
0.0225443
0.0218742
0.0211745
0.0204426
0.0196755
0.0188698
0.0180212
0.0171247
0.0161737
0.0151597
0.0140703
0.0128858
0.0115572
0.00993859
0.00770275
0.00359364
0.0347572
0.0345222
0.0342592
0.0339685
0.0336507
0.033307
0.0329394
0.0325503
0.0321419
0.0317165
0.0312759
0.0308219
0.0303556
0.0298778
0.0293881
0.0288861
0.028371
0.0278415
0.0272964
0.0267344
0.0261539
0.0255531
0.0249303
0.0242837
0.0236109
0.0229096
0.0221772
0.0214105
0.0206059
0.0197589
0.0188641
0.0179146
0.0169011
0.0158112
0.0146267
0.0133189
0.0118323
0.0100335
0.00757107
0.00339724
0.036176
0.0359484
0.035692
0.0354061
0.0350901
0.0347444
0.0343706
0.0339706
0.0335475
0.0331046
0.0326448
0.0321702
0.0316821
0.0311815
0.0306689
0.0301437
0.0296051
0.0290519
0.028483
0.0278969
0.027292
0.0266668
0.0260192
0.0253475
0.0246492
0.0239219
0.0231627
0.0223684
0.0215349
0.0206576
0.0197304
0.0187458
0.0176938
0.0165605
0.0153254
0.0139552
0.0123885
0.0104931
0.00792098
0.00348116
0.037533
0.0373165
0.0370712
0.0367954
0.0364867
0.0361434
0.0357652
0.0353541
0.0349151
0.0344533
0.0339729
0.0334768
0.0329668
0.0324439
0.0319087
0.0313611
0.0308001
0.0302248
0.0296339
0.0290259
0.0283994
0.0277526
0.0270838
0.0263908
0.0256715
0.0249233
0.0241434
0.0233283
0.0224742
0.0215762
0.0206283
0.0196227
0.0185489
0.017392
0.0161294
0.0147242
0.0131093
0.0111452
0.0084683
0.00378956
0.0388299
0.0386277
0.0383986
0.0381394
0.0378457
0.0375119
0.0371329
0.0367105
0.0362538
0.0357709
0.0352682
0.0347496
0.0342175
0.0336728
0.0331158
0.0325467
0.0319646
0.0313687
0.0307575
0.0301298
0.0294839
0.0288182
0.0281309
0.02742
0.0266832
0.0259181
0.0251217
0.0242908
0.0234213
0.0225084
0.0215458
0.0205254
0.019436
0.0182614
0.016977
0.015543
0.0138876
0.0118642
0.00908786
0.00414633
0.0400641
0.0398785
0.03967
0.0394345
0.0391657
0.0388526
0.0384791
0.0380461
0.0375687
0.0370623
0.0365362
0.0359949
0.0354407
0.0348745
0.0342965
0.0337069
0.0331049
0.0324896
0.0318597
0.0312137
0.0305502
0.0298675
0.0291638
0.0284369
0.0276849
0.0269051
0.0260946
0.0252501
0.0243674
0.0234415
0.0224658
0.0214315
0.0203266
0.0191336
0.0178262
0.0163618
0.014665
0.0125811
0.00969917
0.004486
0.0412307
0.0410617
0.0408759
0.0406697
0.0404356
0.0401591
0.039804
0.0393644
0.0388631
0.0383324
0.0377839
0.0372208
0.0366448
0.036057
0.0354579
0.0348478
0.0342262
0.033592
0.032944
0.0322807
0.0316006
0.0309018
0.0301827
0.029441
0.0286746
0.0278809
0.027057
0.0261992
0.0253034
0.0243641
0.0233742
0.0223243
0.0212016
0.0199874
0.0186537
0.0171559
0.0154147
0.0132677
0.0102783
0.00480129
0.0423261
0.0421711
0.0420074
0.0418332
0.041643
0.0414226
0.0411213
0.0406641
0.0401387
0.0395918
0.0390264
0.0384417
0.0378415
0.0372292
0.0366066
0.0359743
0.035332
0.0346786
0.0340125
0.0333321
0.0326356
0.0319212
0.0311869
0.0304306
0.0296499
0.0288422
0.0280044
0.0271327
0.0262225
0.0252681
0.024262
0.023194
0.0220506
0.0208119
0.0194489
0.0179145
0.0161265
0.0139147
0.0108189
0.00509146
0.043347
0.0431986
0.0430483
0.0428966
0.0427411
0.0425744
0.0423633
0.041954
0.0414077
0.0408562
0.0402793
0.0396679
0.0390358
0.0383928
0.0377427
0.037086
0.036422
0.035749
0.0350648
0.0343675
0.0336549
0.032925
0.0321757
0.0314046
0.0306094
0.0297871
0.0289344
0.0280475
0.0271214
0.0261499
0.025125
0.0240362
0.022869
0.0216029
0.0202074
0.018634
0.0167972
0.0145198
0.0113199
0.00535751
0.0442911
0.044137
0.0439825
0.0438275
0.0436702
0.0435068
0.0433296
0.0430888
0.042628
0.0420442
0.0414768
0.0408488
0.040189
0.0395202
0.0388475
0.0381708
0.037488
0.0367977
0.0360972
0.0353843
0.0346567
0.0339121
0.0331483
0.0323627
0.0315527
0.0307153
0.029847
0.0289435
0.0279996
0.0270089
0.0259629
0.0248504
0.0236564
0.0223597
0.0209288
0.0193137
0.017426
0.0150823
0.0117812
0.00560017
0.0451679
0.0450004
0.0448325
0.0446633
0.0444898
0.044307
0.0441058
0.0438672
0.0435561
0.0431293
0.0425326
0.0419123
0.0412531
0.040577
0.0398966
0.0392112
0.0385181
0.0378162
0.0371036
0.0363784
0.0356384
0.0348812
0.0341045
0.0333055
0.0324813
0.0316288
0.0307441
0.0298229
0.0288597
0.0278476
0.0267777
0.0256386
0.0244147
0.0230841
0.0216145
0.0199545
0.0180134
0.0156023
0.0122024
0.00581977
0.0459871
0.0458018
0.0456163
0.0454291
0.0452375
0.0450364
0.044819
0.044576
0.044298
0.0439758
0.043555
0.0429111
0.0422335
0.0415593
0.0408828
0.0401993
0.0395047
0.0387975
0.0380781
0.0373452
0.036597
0.0358309
0.0350444
0.0342344
0.0333976
0.0325307
0.0316298
0.0306901
0.029706
0.0286704
0.0275741
0.0264053
0.0251479
0.0237797
0.0222674
0.0205588
0.018561
0.0160804
0.0125832
0.00601646
0.0467563
0.0465496
0.0463428
0.0461345
0.0459217
0.0457002
0.0454641
0.0452059
0.0449169
0.0445885
0.0442075
0.0437366
0.0431115
0.0424326
0.0417795
0.0411162
0.0404309
0.0397281
0.03901
0.0382773
0.0375281
0.0367595
0.0359684
0.0351515
0.0343051
0.0334257
0.0325092
0.0315509
0.0305449
0.0294838
0.0283584
0.0271565
0.0258619
0.0244516
0.0228922
0.0211303
0.0190713
0.0165178
0.0129239
0.00619048
0.0474819
0.0472508
0.0470197
0.046787
0.0465498
0.046304
0.0460441
0.0457635
0.0454543
0.0451081
0.0447165
0.0442731
0.0437705
0.0431847
0.0425393
0.0419254
0.0412685
0.0405845
0.0398835
0.0391653
0.0384275
0.0376665
0.0368787
0.0360607
0.035209
0.03432
0.0333897
0.0324131
0.0313843
0.030296
0.0291388
0.0279003
0.0265642
0.0251072
0.0234953
0.0216745
0.0195487
0.0169173
0.0132251
0.00634241
0.0481702
0.0479125
0.0476551
0.0473961
0.0471328
0.0468612
0.0465766
0.0462732
0.0459446
0.0455842
0.0451856
0.0447453
0.0442636
0.0437474
0.043199
0.0425939
0.0419855
0.0413581
0.0406998
0.0400154
0.0393038
0.0385611
0.0377844
0.0369711
0.0361186
0.0352233
0.034281
0.0332867
0.0322345
0.0311172
0.0299254
0.0286468
0.0272647
0.0257558
0.0240855
0.0221992
0.0199996
0.0172834
0.0134884
0.00647366
0.048827
0.0485422
0.048258
0.0479726
0.0476833
0.0473869
0.0470794
0.0467564
0.0464133
0.0460457
0.04565
0.0452247
0.044771
0.0442927
0.0437892
0.0432372
0.042649
0.0420777
0.0414892
0.0408563
0.0401815
0.0394638
0.0387025
0.0378976
0.0370476
0.0361489
0.0351963
0.0341846
0.033108
0.0319597
0.0307305
0.0294079
0.0279754
0.0264092
0.0246745
0.0227158
0.0204347
0.0176253
0.01372
0.00658862
0.0494584
0.0491473
0.0488375
0.0485271
0.0482138
0.0478947
0.0475667
0.0472267
0.0468712
0.0464977
0.046104
0.045689
0.0452529
0.0447954
0.0443148
0.0438091
0.0432837
0.0427538
0.0422503
0.0417051
0.0410814
0.0403933
0.0396495
0.0388549
0.038011
0.0371126
0.0361514
0.0351217
0.0340192
0.0328375
0.0315676
0.0301974
0.0287101
0.0270818
0.0252773
0.0232401
0.0208704
0.0179602
0.0139381
0.00669796
0.0500714
0.0497367
0.0494039
0.0490713
0.0487368
0.0483982
0.0480528
0.0476983
0.0473324
0.046953
0.0465588
0.046149
0.0457236
0.0452829
0.0448275
0.0443598
0.0438865
0.0434163
0.0429693
0.0425463
0.042019
0.0413699
0.0406434
0.0398588
0.0390239
0.0381302
0.0371613
0.0361124
0.0349819
0.0337643
0.0324509
0.0310298
0.0294843
0.0277901
0.0259114
0.0237908
0.0213267
0.0183085
0.0141614
0.00681285
0.0506757
0.0503213
0.0499692
0.0496182
0.0492665
0.0489122
0.0485536
0.0481886
0.0478156
0.0474332
0.0470404
0.0466368
0.0462228
0.0457995
0.0453692
0.044936
0.0445064
0.0440896
0.0436993
0.0433572
0.0429728
0.0423902
0.0416846
0.0409111
0.0400899
0.0392062
0.0382322
0.0371651
0.036007
0.0347524
0.0333938
0.0319197
0.0303136
0.0285513
0.0265959
0.0243887
0.0218259
0.0186935
0.0144121
0.00694636
0.0512844
0.0509145
0.0505475
0.0501823
0.0498177
0.0494525
0.0490853
0.0487149
0.04834
0.04796
0.0475741
0.0471827
0.0467864
0.046387
0.0459873
0.0455918
0.0452059
0.0448363
0.0444907
0.0441792
0.043883
0.0434042
0.0427488
0.0420101
0.041218
0.0403515
0.0393789
0.0382978
0.0371117
0.0358182
0.034412
0.0328829
0.0312147
0.0293829
0.0273495
0.0250541
0.02239
0.0191383
0.0147126
0.0071126
0.0519131
0.0515322
0.0511545
0.0507794
0.0504063
0.0500347
0.0496639
0.0492934
0.0489225
0.048551
0.0481789
0.0478067
0.0474355
0.047067
0.0467042
0.0463507
0.0460112
0.04569
0.045392
0.0451224
0.0449058
0.0445571
0.0439619
0.0432597
0.0424889
0.0416285
0.040648
0.0395434
0.0383209
0.0369824
0.0355241
0.033937
0.0322046
0.0303018
0.0281893
0.0258047
0.0230379
0.0196639
0.0150851
0.00732481
0.0525788
0.0521913
0.0518068
0.0514258
0.0510483
0.0506748
0.0503052
0.0499399
0.0495789
0.0492225
0.0488713
0.0485258
0.0481873
0.0478573
0.0475381
0.047233
0.0469462
0.0466834
0.0464547
0.0462765
0.046182
0.0459832
0.0454418
0.0447467
0.0439712
0.043092
0.042078
0.0409282
0.0396551
0.0382624
0.0367464
0.0350969
0.0332969
0.0313202
0.0291263
0.0266508
0.02378
0.0202823
0.0155447
0.00759197
0.0532985
0.0529083
0.0525209
0.0521378
0.0517601
0.051389
0.0510257
0.0506712
0.0503266
0.049993
0.0496713
0.0493628
0.0490686
0.0487902
0.0485297
0.0482895
0.0480716
0.0478808
0.0477269
0.0476291
0.0476193
0.0475324
0.0470482
0.0463574
0.0455757
0.0446797
0.0436334
0.0424385
0.0411138
0.039665
0.0380875
0.0363709
0.0344979
0.0324416
0.0301612
0.0275907
0.0246136
0.0209906
0.016089
0.00791294
0.0540876
0.0536987
0.0533125
0.0529313
0.0525576
0.0521939
0.0518423
0.0515052
0.0511846
0.0508825
0.0506006
0.0503407
0.0501044
0.0498931
0.049708
0.0495499
0.0494171
0.0493099
0.0492331
0.0491989
0.0492299
0.0492049
0.0487759
0.0480988
0.0473069
0.046389
0.0453122
0.0440781
0.0427046
0.0411971
0.0395518
0.0377594
0.0358035
0.0336581
0.0312827
0.0286108
0.0255238
0.0217751
0.0167086
0.00827823
0.0549587
0.0545758
0.0541953
0.053821
0.0534568
0.0531063
0.0527733
0.0524613
0.0521736
0.051913
0.0516823
0.0514839
0.0513199
0.0511915
0.0510992
0.0510401
0.0510105
0.051009
0.0510403
0.0511182
0.0512655
0.0513382
0.0509133
0.0502085
0.0493634
0.0483761
0.0472257
0.045918
0.0444672
0.0428757
0.0411406
0.0392534
0.0371982
0.0349498
0.0324681
0.0296865
0.0264846
0.0226093
0.0173807
0.00866965
0.0559212
0.0555499
0.0551812
0.0548203
0.0544724
0.0541432
0.0538378
0.0535612
0.053318
0.0531121
0.0529473
0.0528269
0.052754
0.0527308
0.0527583
0.0528323
0.0529485
0.0531036
0.0533004
0.0535514
0.0538976
0.0541069
0.0536051
0.0527766
0.0518086
0.0506974
0.0494214
0.0479858
0.0464075
0.0446917
0.0428352
0.0408286
0.0386552
0.0362892
0.0336898
0.0307897
0.0274667
0.023462
0.0180725
0.00906372
0.0569804
0.0566284
0.0562794
0.0559403
0.0556183
0.0553211
0.0550557
0.054829
0.0546468
0.0545141
0.0544354
0.0544152
0.0544583
0.0545702
0.0547538
0.0550075
0.0553285
0.0557115
0.0561481
0.0566133
0.0571058
0.0572293
0.0565757
0.0556225
0.0545234
0.0532562
0.0518037
0.0501923
0.0484506
0.0465836
0.0445854
0.0424445
0.0401421
0.0376505
0.0349271
0.0319026
0.0284522
0.0243119
0.018758
0.00944259
0.0581383
0.0578151
0.0574959
0.0571896
0.0569058
0.0566546
0.0564461
0.0562893
0.0561918
0.0561595
0.0561965
0.0563072
0.056498
0.0567778
0.0571511
0.0576201
0.0581841
0.0588372
0.0595561
0.0603205
0.0609355
0.0607151
0.0598564
0.058712
0.0573942
0.0558919
0.0542174
0.0524144
0.0505019
0.0484805
0.0463415
0.0440696
0.0416425
0.0390287
0.0361824
0.0330313
0.0294472
0.0251608
0.019431
0.00980085
0.0593934
0.0591107
0.0588337
0.0585735
0.0583424
0.0581542
0.058023
0.0579621
0.0579824
0.0580907
0.0582895
0.0585792
0.0589649
0.0594597
0.0600728
0.0608092
0.0616777
0.0626925
0.0638272
0.0649228
0.0655164
0.0648113
0.0635684
0.0620592
0.0603797
0.0585506
0.0566169
0.0546112
0.0525323
0.05037
0.048107
0.0457208
0.0431831
0.0404573
0.0374931
0.034214
0.0304874
0.0260383
0.0201102
0.0101484
0.0607402
0.0605117
0.0602915
0.0600926
0.0599303
0.0598227
0.0597901
0.0598531
0.0600299
0.0603323
0.0607609
0.0613059
0.0619624
0.062746
0.063685
0.064786
0.0660322
0.0674363
0.069081
0.0708576
0.0708944
0.0694394
0.0675419
0.0654697
0.0633128
0.0611337
0.0589619
0.0567853
0.0545733
0.0523002
0.0499391
0.0474601
0.0448285
0.0420018
0.0389242
0.0355139
0.0316324
0.0269969
0.0208353
0.0105093
0.0621679
0.0620091
0.0618625
0.061742
0.0616653
0.0616547
0.0617371
0.0619434
0.0623055
0.0628517
0.0635957
0.0645181
0.0655471
0.0666942
0.0680378
0.069648
0.0714052
0.0730599
0.075079
0.0773942
0.0768132
0.0738156
0.0708182
0.0681623
0.06574
0.0634348
0.06118
0.0589339
0.0566592
0.0543259
0.0519046
0.0493615
0.0466564
0.0437412
0.0405545
0.0370085
0.032957
0.0281057
0.0216626
0.0109196
0.0636572
0.0635843
0.0635294
0.0635065
0.0635337
0.063635
0.0638416
0.0641928
0.0647362
0.0655256
0.0666162
0.0680419
0.0696742
0.0712591
0.0728506
0.0743907
0.0760685
0.0784508
0.0810892
0.0807149
0.077716
0.0747692
0.0721628
0.0698111
0.0676027
0.065448
0.0632937
0.0611054
0.0588563
0.0565256
0.0540897
0.0515154
0.0487584
0.0457661
0.042473
0.0387852
0.0345467
0.0294471
0.0226655
0.0114236
0.0651779
0.0652029
0.065254
0.0653443
0.0654903
0.0657143
0.0660464
0.0665267
0.0672091
0.0681617
0.0694408
0.0709622
0.0726901
0.0744869
0.0761619
0.0779485
0.0802731
0.0822708
0.0817677
0.079665
0.0774558
0.0753374
0.0733386
0.0714169
0.0695182
0.067596
0.0656146
0.0635438
0.061364
0.0590684
0.0566424
0.0540534
0.0512515
0.0481807
0.0447742
0.0409324
0.036486
0.0311017
0.0239163
0.0120645
0.0666991
0.0668246
0.0669854
0.0671925
0.0674601
0.067807
0.0682575
0.068844
0.0696145
0.0706273
0.0719117
0.0733969
0.0750623
0.0769045
0.0789306
0.0810333
0.0824665
0.0822298
0.0811058
0.0797356
0.0782725
0.0767739
0.0752458
0.073669
0.0720287
0.0703086
0.0684822
0.0665172
0.0644012
0.0621422
0.0597262
0.0571146
0.054251
0.0510815
0.0475419
0.0435247
0.0388431
0.033133
0.0254717
0.0128749
0.0682179
0.0684396
0.0687038
0.0690193
0.0693976
0.0698549
0.0704113
0.0710907
0.0719258
0.0729661
0.0742623
0.0758594
0.0777065
0.0797271
0.0818266
0.0831301
0.0832308
0.0827804
0.082103
0.0812669
0.0803019
0.0792343
0.0780433
0.0767212
0.0752805
0.073718
0.0720055
0.070116
0.0680593
0.0658435
0.0634331
0.0607767
0.057824
0.0545306
0.0508328
0.0466115
0.0416599
0.0355779
0.0273645
0.013871
0.0697862
0.0701034
0.0704675
0.0708827
0.0713584
0.0719089
0.0725505
0.0733002
0.0741793
0.0752154
0.076442
0.0778821
0.0795094
0.0812175
0.0827338
0.083719
0.0841066
0.0841623
0.0839917
0.0836164
0.0830591
0.0823402
0.0814487
0.0803746
0.0791234
0.0776949
0.0760765
0.0742698
0.0722895
0.0701097
0.0676875
0.0649807
0.0619415
0.0585226
0.0546522
0.0502003
0.0449418
0.0384402
0.0296001
0.0150526
0.0714951
0.071926
0.0724068
0.0729346
0.073516
0.0741635
0.0748878
0.0756972
0.076604
0.0776281
0.0787821
0.0800575
0.0814179
0.0827795
0.083999
0.0849657
0.0856646
0.086128
0.0863645
0.0863795
0.0861979
0.0858255
0.0852403
0.0844207
0.0833616
0.0820788
0.0805884
0.0788921
0.076974
0.0748073
0.0723666
0.0696168
0.066504
0.0629687
0.0589287
0.0542398
0.048656
0.0416959
0.0321623
0.0164087
0.0734537
0.0740246
0.0746476
0.075321
0.0760448
0.0768214
0.0776526
0.0785429
0.0795036
0.0805462
0.0816724
0.0828742
0.0841224