/*--------------------------------*- C++ -*----------------------------------*\
  =========                 |
  \\      /  F ield         | OpenFOAM: The Open Source CFD Toolbox
   \\    /   O peration     | Website:  https://openfoam.org
    \\  /    A nd           | Version:  8
     \\/     M anipulation  |
\*---------------------------------------------------------------------------*/
FoamFile
{
    version     2.0;
    format      ascii;
    class       volScalarField;
    location    "2.4";
    object      nut;
}
// * * * * * * * * * * * * * * * * * * * * * * * * * * * * * * * * * * * * * //

dimensions      [0 2 -1 0 0 0 0];

internalField   nonuniform List<scalar> 
9150
(
9.59983e-06
6.41088e-06
6.61661e-06
8.91774e-06
7.93763e-06
7.9386e-06
8.91346e-06
6.61475e-06
6.41212e-06
9.59969e-06
9.48779e-06
5.74111e-06
8.33954e-06
1.00735e-05
7.39223e-06
7.39431e-06
1.00724e-05
8.33624e-06
5.7421e-06
9.48774e-06
9.29576e-06
5.50416e-06
1.08814e-05
1.04525e-05
7.03721e-06
7.03912e-06
1.04538e-05
1.08782e-05
5.50492e-06
9.29575e-06
9.08017e-06
5.42571e-06
1.34973e-05
1.04518e-05
6.84802e-06
6.8496e-06
1.04538e-05
1.34966e-05
5.42635e-06
9.08019e-06
8.84536e-06
5.4085e-06
1.57502e-05
1.03608e-05
6.75208e-06
6.75345e-06
1.03628e-05
1.5753e-05
5.4091e-06
8.84539e-06
5.91913e-06
1.13628e-05
1.40812e-05
1.78711e-05
1.73833e-05
1.73761e-05
1.78387e-05
1.40249e-05
1.1325e-05
5.91655e-06
6.28045e-06
8.88953e-06
1.14987e-05
1.56647e-05
1.5039e-05
1.50371e-05
1.56476e-05
1.14672e-05
8.8751e-06
6.28055e-06
6.83139e-06
7.91961e-06
9.48363e-06
1.33577e-05
1.26512e-05
1.26509e-05
1.33467e-05
9.46787e-06
7.9163e-06
6.83168e-06
7.38832e-06
7.30868e-06
8.04832e-06
1.13946e-05
1.06425e-05
1.06427e-05
1.13869e-05
8.04098e-06
7.30923e-06
7.3885e-06
8.07515e-06
6.85783e-06
7.11002e-06
9.85208e-06
9.02386e-06
9.02438e-06
9.8466e-06
7.10673e-06
6.85917e-06
8.07522e-06
1.4508e-05
2.15595e-05
1.46308e-05
1.6525e-05
1.82648e-05
1.79568e-05
1.56055e-05
1.21383e-05
1.22009e-05
1.10988e-05
7.92333e-06
1.09187e-05
1.28257e-05
1.65086e-05
1.83253e-05
1.81108e-05
1.59171e-05
1.22862e-05
1.07977e-05
7.83851e-06
7.46957e-06
1.02721e-05
1.27986e-05
1.66143e-05
1.83899e-05
1.82465e-05
1.62228e-05
1.24909e-05
1.01871e-05
7.44509e-06
7.03958e-06
9.88924e-06
1.27826e-05
1.67079e-05
1.84456e-05
1.835e-05
1.6458e-05
1.26008e-05
9.78286e-06
7.02884e-06
6.51785e-06
1.0149e-05
1.27505e-05
1.6834e-05
1.83426e-05
1.82895e-05
1.67083e-05
1.26491e-05
1.00604e-05
6.51311e-06
2.0296e-05
2.02899e-05
2.027e-05
2.02369e-05
2.01909e-05
2.01324e-05
2.00618e-05
1.99798e-05
1.98869e-05
1.97837e-05
0.000189745
0.000190035
0.000190191
0.000190212
0.000190102
0.000189862
0.000189496
0.00018901
0.00018841
0.000187704
0.000376504
0.000377118
0.000377442
0.000377478
0.00037723
0.000376705
0.000375911
0.000374859
0.000373562
0.000372035
0.000539938
0.000540827
0.000541294
0.000541342
0.000540977
0.000540208
0.000539046
0.000537506
0.000535606
0.000533365
0.000681061
0.00068218
0.000682773
0.000682842
0.000682395
0.000681442
0.000679995
0.000678071
0.000675689
0.000672872
0.000803276
0.000804591
0.000805298
0.0008054
0.000804904
0.000803821
0.000802163
0.000799947
0.000797192
0.00079392
0.00090963
0.000911114
0.000911926
0.000912072
0.000911556
0.000910388
0.000908581
0.000906149
0.00090311
0.000899486
0.00100261
0.00100425
0.00100516
0.00100536
0.00100484
0.00100363
0.00100172
0.000999138
0.00099589
0.000991998
0.00108425
0.00108601
0.00108702
0.00108727
0.00108678
0.00108555
0.00108359
0.0010809
0.00107751
0.00107342
0.00115616
0.00115804
0.00115914
0.00115946
0.001159
0.00115778
0.00115579
0.00115304
0.00114955
0.00114533
0.00121971
0.00122169
0.00122287
0.00122325
0.00122283
0.00122163
0.00121964
0.00121687
0.00121332
0.00120902
0.00127597
0.00127803
0.00127928
0.00127972
0.00127935
0.00127817
0.0012762
0.00127343
0.00126987
0.00126553
0.00132585
0.00132798
0.00132929
0.00132977
0.00132944
0.0013283
0.00132635
0.0013236
0.00132005
0.0013157
0.00137011
0.00137228
0.00137362
0.00137414
0.00137384
0.00137272
0.0013708
0.00136807
0.00136455
0.00136023
0.00140936
0.00141155
0.00141291
0.00141343
0.00141314
0.00141204
0.00141013
0.00140742
0.00140392
0.00139964
0.00144413
0.0014463
0.00144764
0.00144815
0.00144784
0.00144673
0.00144481
0.00144211
0.00143862
0.00143435
0.00147485
0.00147698
0.00147826
0.00147872
0.00147835
0.00147719
0.00147523
0.00147249
0.00146898
0.0014647
0.00150189
0.00150393
0.00150512
0.00150547
0.00150501
0.00150375
0.0015017
0.00149888
0.0014953
0.00149096
0.00152558
0.00152747
0.00152851
0.00152871
0.0015281
0.00152669
0.0015245
0.00152155
0.00151784
0.00151341
0.00154616
0.00154785
0.00154868
0.00154867
0.00154785
0.00154623
0.00154385
0.00154071
0.00153684
0.00153226
0.00156386
0.00156528
0.00156584
0.00156555
0.00156445
0.00156256
0.00155992
0.00155654
0.00155245
0.00154766
0.00157884
0.00157993
0.00158013
0.00157949
0.00157804
0.00157581
0.00157284
0.00156916
0.00156478
0.00155973
0.00159125
0.00159192
0.00159169
0.00159061
0.00158872
0.00158607
0.0015827
0.00157863
0.00157389
0.00156851
0.00160118
0.00160134
0.00160058
0.00159897
0.00159656
0.0015934
0.00158953
0.001585
0.00157983
0.00157406
0.0016087
0.00160824
0.00160684
0.0016046
0.00160157
0.00159781
0.00159338
0.00158831
0.00158263
0.00157638
0.00161383
0.00161261
0.00161047
0.00160749
0.00160375
0.00159932
0.00159423
0.00158855
0.0015823
0.00157551
0.00161646
0.00161437
0.00161138
0.00160759
0.00160307
0.00159789
0.00159209
0.00158574
0.00157886
0.00157148
0.00161634
0.00161333
0.00160947
0.00160483
0.00159949
0.00159352
0.00158697
0.00157989
0.00157234
0.00156434
0.00161338
0.00160948
0.00160475
0.00159924
0.00159305
0.00158625
0.00157891
0.00157107
0.00156281
0.00155415
0.00160768
0.00160291
0.00159727
0.00159088
0.00158382
0.00157616
0.00156799
0.00155937
0.00155036
0.00154102
0.00159925
0.0015936
0.00158707
0.00157979
0.00157184
0.00156333
0.00155432
0.00154491
0.00153515
0.00152511
0.00158825
0.00158169
0.00157428
0.00156611
0.00155729
0.00154791
0.00153808
0.00152787
0.00151737
0.00150663
0.00157487
0.00156741
0.0015591
0.00155005
0.00154036
0.00153014
0.00151949
0.00150851
0.00149727
0.00148585
0.00155934
0.00155096
0.00154175
0.00153183
0.0015213
0.00151027
0.00149883
0.0014871
0.00147516
0.00146309
0.00154177
0.00153249
0.00152242
0.00151167
0.00150035
0.00148855
0.00147639
0.00146397
0.00145138
0.00143871
0.00152228
0.00151216
0.0015013
0.0014898
0.00147776
0.00146529
0.00145249
0.00143946
0.0014263
0.00141311
0.00150106
0.00149019
0.00147863
0.00146648
0.00145383
0.00144079
0.00142746
0.00141394
0.00140033
0.00138673
0.0014784
0.00146688
0.00145473
0.00144205
0.00142892
0.00141544
0.00140171
0.00138783
0.0013739
0.00136001
0.00145464
0.00144259
0.00142997
0.00141687
0.00140338
0.0013896
0.00137561
0.00136151
0.0013474
0.00133338
0.00143026
0.00141771
0.0014047
0.00139132
0.00137759
0.00136362
0.0013495
0.00133533
0.00132121
0.00130722
0.00140569
0.00139272
0.00137935
0.0013657
0.00135183
0.0013378
0.00132368
0.00130957
0.00129557
0.00128177
0.00138133
0.00136801
0.00135437
0.00134048
0.00132645
0.00131238
0.00129834
0.0012844
0.00127064
0.00125716
0.0013575
0.00134392
0.00133006
0.00131601
0.00130186
0.00128773
0.00127372
0.00125993
0.00124648
0.00123342
0.00133453
0.00132076
0.00130673
0.00129255
0.00127833
0.00126418
0.00125022
0.00123656
0.00122333
0.00121062
0.00131271
0.00129881
0.00128467
0.0012704
0.00125612
0.00124197
0.00122808
0.00121458
0.00120161
0.00118926
0.00129234
0.00127837
0.00126415
0.00124981
0.00123549
0.00122135
0.00120755
0.00119424
0.00118156
0.00116962
0.00127367
0.00125966
0.00124539
0.001231
0.00121666
0.00120254
0.00118885
0.00117576
0.00116342
0.00115197
0.0012569
0.00124287
0.00122855
0.00121413
0.00119979
0.00118575
0.00117222
0.00115941
0.0011475
0.00113661
0.00124215
0.00122813
0.0012138
0.00119938
0.0011851
0.00117121
0.00115794
0.00114552
0.00113413
0.00112391
0.00122953
0.00121559
0.00120134
0.00118701
0.00117289
0.00115925
0.00114634
0.0011344
0.00112363
0.00111415
0.00121906
0.00120537
0.00119134
0.00117726
0.00116344
0.00115017
0.00113774
0.00112638
0.00111629
0.00110762
0.00121082
0.00119756
0.00118393
0.00117028
0.00115691
0.00114415
0.0011323
0.00112162
0.00111229
0.00110448
0.00120479
0.0011921
0.00117904
0.00116596
0.00115319
0.00114107
0.0011299
0.00111997
0.00111147
0.00110458
0.00120064
0.00118863
0.00117624
0.00116381
0.00115172
0.0011403
0.0011299
0.00112079
0.00111321
0.00110732
0.00119739
0.00118611
0.00117443
0.00116269
0.00115129
0.00114062
0.00113102
0.00112283
0.00111626
0.0011115
0.00119356
0.00118298
0.0011719
0.00116075
0.00114999
0.00114006
0.00113135
0.00112419
0.0011188
0.00111535
0.00118728
0.00117709
0.00116625
0.00115547
0.0011453
0.0011362
0.00112856
0.00112269
0.0011188
0.00111703
0.00117397
0.00116408
0.00115384
0.00114389
0.00113475
0.00112688
0.00112066
0.00111638
0.00111425
0.00111438
0.00115093
0.00114201
0.00113289
0.00112418
0.00111644
0.00111013
0.00110563
0.0011032
0.00110299
0.00110512
0.00111799
0.00111019
0.00110234
0.00109507
0.00108899
0.00108455
0.00108205
0.00108171
0.00108376
0.00108846
0.00107499
0.00106815
0.00106165
0.00105613
0.00105209
0.00104995
0.00104995
0.00105231
0.00105754
0.00106569
0.00102318
0.00101724
0.00101226
0.00100882
0.00100738
0.00100825
0.0010116
0.00101798
0.00102764
0.00104062
0.000965545
0.00096089
0.000958011
0.000957435
0.000959523
0.000964467
0.000972322
0.000983805
0.000999109
0.00101823
0.000907083
0.000904707
0.000905065
0.000908566
0.000915399
0.000925523
0.000939
0.00095641
0.000977944
0.00100344
0.000854087
0.000855465
0.000860525
0.000869488
0.000882289
0.000898556
0.000918154
0.000941812
0.000969331
0.000998958
0.000812348
0.000818916
0.000829894
0.000845248
0.000864602
0.000887265
0.000913049
0.000941826
0.000968105
0.000985795
0.00078497
0.000797454
0.000814685
0.000836364
0.000861895
0.000890079
0.000919128
0.000937245
0.000940715
0.000936281
0.000771315
0.000789357
0.000812134
0.000839359
0.000870531
0.000898681
0.000908045
0.000898853
0.00088439
0.000867819
0.00076766
0.000789845
0.000816327
0.000846817
0.000878913
0.000889352
0.000870094
0.000845363
0.00081994
0.000794735
0.000769713
0.000794614
0.000823003
0.000852796
0.000871375
0.000858316
0.000822557
0.000787018
0.000753447
0.00072181
0.000772365
0.00079864
0.000827563
0.000850566
0.000849542
0.000813856
0.000768506
0.000726187
0.00068741
0.000651946
0.000772751
0.000800227
0.00082668
0.000838163
0.000812979
0.000761874
0.000711629
0.000665755
0.000624379
0.000587434
0.00077055
0.000798103
0.000817263
0.000808394
0.00076194
0.000705967
0.000653943
0.00060699
0.000565273
0.00052886
0.000763434
0.000786692
0.000793419
0.000759915
0.000703321
0.000647845
0.000596487
0.000550376
0.000510094
0.00047578
0.000747771
0.000768305
0.00075426
0.000701921
0.000645272
0.000590777
0.000540667
0.000496379
0.000458669
0.000427516
0.000734652
0.000740526
0.000702977
0.000646415
0.000589481
0.000535579
0.000486868
0.000445098
0.000410788
0.000383785
0.000723937
0.000706968
0.000651177
0.000592805
0.000535589
0.000482022
0.000435035
0.000396593
0.000366648
0.000345793
0.000700378
0.000658149
0.000601078
0.000541451
0.000483105
0.000429712
0.000385249
0.000351395
0.000327752
0.000316948
0.000676855
0.000617517
0.000554773
0.000491982
0.000431839
0.000379045
0.000338496
0.000311089
0.000297312
0.000300853
0.000636578
0.00057511
0.000509536
0.000444089
0.000382558
0.000331346
0.000296401
0.000278009
0.000278426
0.000297985
0.000603734
0.000536601
0.000467714
0.000399842
0.00033723
0.000288285
0.000260357
0.000253995
0.000271343
0.000305446
0.000575275
0.000503077
0.000431269
0.000361099
0.000297184
0.000250496
0.000230602
0.000238921
0.000273121
0.000319274
0.000550256
0.000475617
0.000401247
0.000328545
0.000262618
0.000217512
0.000206405
0.000230585
0.000279173
0.000334521
0.000533729
0.000455307
0.000377522
0.000301554
0.000232621
0.000188005
0.000186318
0.000225868
0.000285764
0.00034805
0.00052131
0.000438558
0.000357292
0.000278009
0.000205593
0.000160507
0.000168841
0.000222219
0.000290908
0.000358888
0.000509224
0.000423322
0.000339135
0.00025687
0.000180783
0.000134362
0.000152921
0.000218082
0.000293815
0.000366915
0.000497458
0.000409071
0.000322351
0.000237403
0.000157671
0.000109456
0.000137864
0.000212767
0.000294425
0.000372417
0.000485641
0.000395075
0.000306084
0.000218784
0.000135793
8.60942e-05
0.000123217
0.000205998
0.00029292
0.000375783
0.000473899
0.000381001
0.000289882
0.000200628
0.000115114
6.50249e-05
0.00010854
0.000197282
0.000288907
0.000376459
0.000463141
0.000367135
0.000273997
0.000183229
9.61317e-05
4.72197e-05
9.34334e-05
0.000186055
0.000281933
0.000373948
0.000454299
0.000354204
0.000259371
0.000167453
7.96772e-05
3.34651e-05
7.77504e-05
0.000171753
0.000271593
0.000368088
0.000448347
0.000343544
0.000247675
0.000154549
6.65922e-05
2.39937e-05
6.19426e-05
0.000154042
0.000257559
0.000358823
0.000445084
0.000337202
0.00024116
0.000145729
5.72521e-05
1.8363e-05
4.71597e-05
0.00013314
0.000239596
0.000345572
0.000445914
0.000338684
0.00024226
0.000141552
5.11785e-05
1.56484e-05
3.41366e-05
0.000109817
0.000218325
0.000329782
0.000458507
0.000354869
0.000253703
0.000141715
4.7077e-05
1.48134e-05
2.39598e-05
8.54437e-05
0.00019274
0.000307262
0.000490723
0.000387738
0.000274781
0.000143131
4.30444e-05
1.52109e-05
1.74183e-05
6.33074e-05
0.000165974
0.000279946
0.000574133
0.000451792
0.000302775
0.000139039
3.72466e-05
1.61671e-05
1.40835e-05
4.48725e-05
0.000139877
0.00025547
0.00070855
0.000521443
0.000309299
0.000116059
2.90491e-05
1.70114e-05
1.33964e-05
3.09288e-05
0.000114286
0.000236547
0.000839813
0.000523864
0.000247116
6.89573e-05
2.15611e-05
1.75067e-05
1.43164e-05
2.15824e-05
8.79505e-05
0.000219441
0.000704125
0.000315084
9.87335e-05
2.52321e-05
1.85379e-05
1.77768e-05
1.52483e-05
1.59754e-05
6.01159e-05
0.000220791
1.96669e-05
1.95327e-05
1.93905e-05
1.92419e-05
1.90887e-05
1.89326e-05
1.87751e-05
1.86176e-05
1.84614e-05
1.83073e-05
1.81561e-05
1.8008e-05
1.78631e-05
1.7721e-05
1.75811e-05
1.74426e-05
1.73043e-05
1.71648e-05
1.70225e-05
1.68756e-05
1.67221e-05
1.65596e-05
1.63859e-05
1.61985e-05
1.59953e-05
1.57734e-05
1.55336e-05
1.52674e-05
1.49644e-05
1.46165e-05
1.4214e-05
1.37456e-05
1.31979e-05
1.25638e-05
1.18966e-05
1.11417e-05
1.02535e-05
9.16227e-06
7.78666e-06
1.44204e-05
0.000186846
0.000185827
0.00018471
0.00018351
0.000182242
0.00018092
0.000179557
0.000178165
0.000176753
0.000175329
0.000173896
0.000172457
0.00017101
0.000169551
0.000168072
0.000166564
0.000165014
0.000163406
0.000161723
0.000159944
0.000158045
0.000155998
0.000153771
0.000151327
0.000148622
0.000145607
0.000142227
0.00013844
0.0001342
0.000129465
0.000124157
0.000118176
0.000111355
0.000103369
9.354e-05
8.24038e-05
6.96824e-05
5.43482e-05
3.32598e-05
4.70344e-06
0.000370189
0.000367992
0.000365584
0.000362996
0.000360258
0.0003574
0.000354449
0.000351428
0.000348356
0.000345245
0.000342102
0.000338927
0.000335711
0.000332442
0.000329099
0.000325656
0.000322081
0.000318336
0.000314382
0.000310172
0.000305655
0.000300775
0.000295472
0.00028968
0.000283327
0.000276336
0.000268626
0.00026011
0.000250685
0.000240228
0.000228577
0.000215574
0.000200967
0.00018439
0.000165307
0.000143469
0.000118007
8.70821e-05
4.75191e-05
5.54802e-06
0.000530651
0.000527413
0.00052385
0.000520004
0.000515915
0.000511623
0.000507164
0.000502569
0.000497862
0.000493058
0.000488163
0.000483174
0.000478078
0.000472853
0.000467467
0.00046188
0.000456047
0.000449915
0.000443423
0.000436509
0.000429102
0.000421128
0.000412509
0.00040316
0.000392993
0.00038191
0.00036981
0.000356581
0.000342092
0.000326196
0.000308709
0.0002894
0.000267957
0.000243992
0.000216984
0.00018613
0.000150378
0.000107763
5.60369e-05
6.14356e-06
0.00066945
0.000665348
0.000660813
0.000655892
0.00065063
0.000645073
0.00063926
0.000633227
0.000626998
0.00062059
0.000614009
0.000607246
0.000600285
0.000593096
0.00058564
0.000577867
0.00056972
0.000561136
0.000552042
0.000542363
0.000532017
0.000520918
0.000508975
0.000496092
0.000482168
0.000467098
0.000450766
0.000433051
0.000413814
0.000392898
0.000370116
0.000345229
0.000317925
0.000287761
0.000254081
0.000216031
0.000172431
0.000121439
6.16215e-05
6.54395e-06
0.000789929
0.000785124
0.000779784
0.000773958
0.000767693
0.000761035
0.000754027
0.000746704
0.000739091
0.000731204
0.000723046
0.000714607
0.000705864
0.000696783
0.000687318
0.000677413
0.000667003
0.000656017
0.000644374
0.000631991
0.000618778
0.000604639
0.000589476
0.000573186
0.00055566
0.000536785
0.000516443
0.000494505
0.000470836
0.000445283
0.000417667
0.000387772
0.000355309
0.000319865
0.00028082
0.0002372
0.000187601
0.000130238
6.42902e-05
6.80735e-06
0.000895045
0.000889671
0.00088367
0.000877087
0.00086997
0.000862364
0.000854311
0.000845845
0.000836991
0.000827762
0.000818159
0.000808169
0.000797765
0.000786908
0.000775549
0.000763625
0.000751067
0.000737796
0.000723729
0.000708775
0.000692837
0.000675815
0.000657604
0.000638094
0.000617171
0.000594716
0.000570607
0.000544713
0.000516898
0.000487019
0.000454915
0.000420402
0.000383253
0.000343154
0.000299616
0.000251787
0.000198089
0.000136397
6.63447e-05
7.03613e-06
0.000987207
0.000981381
0.000974842
0.000967632
0.000959798
0.000951381
0.000942423
0.000932955
0.000923002
0.000912573
0.000901666
0.000890264
0.000878339
0.000865848
0.000852738
0.000838943
0.000824389
0.000808995
0.000792672
0.000775325
0.000756852
0.00073715
0.000716108
0.000693609
0.000669535
0.000643759
0.000616152
0.000586579
0.000554899
0.000520965
0.000484627
0.000445725
0.000404089
0.00035953
0.000311798
0.000260471
0.000204437
0.000141471
7.0509e-05
7.64271e-06
0.00106836
0.00106218
0.00105521
0.00104749
0.00103906
0.00102996
0.00102023
0.0010099
0.000998987
0.000987499
0.000975429
0.000962761
0.000949462
0.000935491
0.00092079
0.000905291
0.000888918
0.000871586
0.000853202
0.00083367
0.000812885
0.000790739
0.000767117
0.000741899
0.000714958
0.000686163
0.000655376
0.00062245
0.000587235
0.000549571
0.000509293
0.000466232
0.000420222
0.000371107
0.000318761
0.000263108
0.000204012
0.000140485
7.05558e-05
7.56028e-06
0.00114008
0.00113364
0.00112634
0.00111821
0.0011093
0.00109963
0.00108926
0.0010782
0.00106646
0.00105406
0.00104096
0.00102716
0.00101263
0.00099734
0.000981217
0.000964193
0.000946189
0.000927119
0.000906888
0.000885398
0.000862543
0.000838212
0.000812289
0.00078465
0.000755165
0.000723699
0.000690107
0.000654235
0.000615924
0.000575001
0.000531288
0.000484599
0.000434743
0.000381541
0.000324845
0.000264587
0.000200831
0.000133742
6.43506e-05
7.3484e-06
0.00120364
0.00119702
0.00118948
0.00118105
0.00117175
0.00116163
0.00115072
0.00113903
0.00112658
0.00111337
0.00109939
0.00108463
0.00106904
0.00105259
0.00103522
0.00101685
0.000997415
0.000976814
0.000954956
0.000931743
0.00090707
0.000880825
0.000852892
0.000823147
0.000791462
0.000757699
0.000721715
0.000683356
0.000642464
0.000598871
0.000552405
0.000502889
0.000450157
0.000394064
0.000334521
0.000271544
0.000205323
0.000136335
6.59772e-05
7.4324e-06
0.00126009
0.00125335
0.00124566
0.00123701
0.00122744
0.00121696
0.0012056
0.00119338
0.00118031
0.00116642
0.0011517
0.00113611
0.00111963
0.00110219
0.00108375
0.00106423
0.00104355
0.00102162
0.000998357
0.000973654
0.000947411
0.000919518
0.000889862
0.000858322
0.000824771
0.000789077
0.000751101
0.000710698
0.000667717
0.000622004
0.000573402
0.000521755
0.00046692
0.000408772
0.000347225
0.000282245
0.000213869
0.000142287
6.87689e-05
7.75371e-06
0.00131025
0.00130347
0.0012957
0.00128694
0.0012772
0.00126647
0.00125475
0.00124209
0.00122851
0.00121404
0.00119869
0.00118242
0.00116518
0.00114692
0.00112757
0.00110707
0.00108534
0.00106228
0.00103781
0.00101184
0.000984259
0.000954967
0.000923852
0.000890798
0.000855684
0.000818382
0.000778762
0.000736686
0.000692013
0.000644599
0.000594299
0.000540965
0.000484453
0.000424621
0.000361332
0.000294442
0.000223799
0.000149348
7.22364e-05
8.11144e-06
0.00135479
0.00134804
0.00134028
0.0013315
0.0013217
0.00131084
0.00129889
0.00128587
0.00127187
0.00125693
0.00124106
0.00122422
0.00120636
0.00118741
0.0011673
0.00114598
0.00112335
0.00109934
0.00107385
0.00104681
0.0010181
0.000987623
0.00095528
0.000920954
0.000884529
0.000845884
0.000804894
0.000761426
0.000715347
0.000666516
0.000614786
0.000560003
0.000502004
0.000440606
0.000375602
0.000306739
0.000233715
0.000156305
7.56064e-05
8.43797e-06
0.00139425
0.00138756
0.00137987
0.00137117
0.00136143
0.0013506
0.00133855
0.00132529
0.00131095
0.00129564
0.00127936
0.00126206
0.00124368
0.00122416
0.00120342
0.0011814
0.00115801
0.00113319
0.00110685
0.00107889
0.00104923
0.00101776
0.000984377
0.000948976
0.000911442
0.000871658
0.000829501
0.000784845
0.000737554
0.000687485
0.000634483
0.000578377
0.000518974
0.000456046
0.000389318
0.000318447
0.000243026
0.000162727
7.86635e-05
8.73002e-06
0.00142901
0.00142239
0.0014148
0.00140624
0.00139668
0.00138605
0.00137416
0.0013607
0.00134612
0.00133057
0.00131401
0.00129635
0.00127754
0.00125753
0.00123625
0.00121363
0.0011896
0.0011641
0.00113703
0.0011083
0.00107783
0.0010455
0.00101124
0.000974912
0.000936422
0.000895651
0.000852478
0.000806775
0.000758405
0.000707217
0.000653044
0.000595695
0.000534946
0.000470528
0.000402108
0.000329275
0.000251547
0.000168535
8.14005e-05
8.99028e-06
0.00145937
0.00145279
0.00144527
0.00143683
0.00142744
0.00141707
0.00140558
0.00139231
0.0013776
0.00136196
0.00134522
0.00132727
0.0013081
0.00128767
0.00126593
0.0012428
0.00121824
0.00119216
0.00116447
0.00113509
0.00110393
0.00107088
0.00103584
0.000998711
0.000959382
0.000917738
0.000873658
0.000827011
0.000777657
0.000725439
0.000670175
0.000611655
0.00054963
0.000483792
0.000413765
0.000339085
0.000259214
0.000173725
8.38327e-05
9.22228e-06
0.00148558
0.00147896
0.00147142
0.00146297
0.00145359
0.00144328
0.00143199
0.0014195
0.00140517
0.00138939
0.00137266
0.00135457
0.00133515
0.00131444
0.00129237
0.00126888
0.0012439
0.00121736
0.00118916
0.00115924
0.00112748
0.0010938
0.0010581
0.00102026
0.000980182
0.000937752
0.000892847
0.000845336
0.000795076
0.000741902
0.000685622
0.000626012
0.000562798
0.000495646
0.000424143
0.000347784
0.000265987
0.000178296
8.59721e-05
9.42876e-06
0.00150793
0.00150122
0.00149362
0.00148511
0.00147569
0.00146535
0.00145403
0.00144163
0.00142798
0.00141286
0.00139601
0.00137796
0.00135852
0.00133768
0.00131545
0.00129174
0.00126648
0.00123959
0.00121101
0.00118063
0.00114838
0.00111416
0.00107786
0.0010394
0.000998646
0.000955502
0.000909841
0.000861534
0.000810435
0.000756376
0.00069916
0.000638549
0.000574256
0.000505923
0.000433111
0.000355281
0.000271816
0.00018223
8.78186e-05
9.61167e-06
0.00152664
0.00151981
0.00151211
0.00150353
0.00149406
0.00148369
0.00147236
0.00146002
0.00144659
0.001432
0.00141595
0.00139781
0.00137829
0.00135743
0.00133514
0.00131132
0.00128589
0.00125876
0.00122987
0.00119913
0.00116646
0.00113177
0.00109497
0.00105594
0.00101459
0.000970794
0.000924439
0.000875396
0.000823522
0.00076865
0.00071058
0.00064907
0.000583822
0.000514465
0.000440538
0.000361478
0.000276635
0.000185492
8.93622e-05
9.77249e-06
0.00154186
0.00153486
0.00152702
0.00151834
0.0015088
0.00149838
0.00148703
0.00147469
0.0014613
0.00144675
0.00143092
0.00141356
0.0013943
0.00137344
0.00135122
0.00132743
0.00130193
0.00127466
0.00124556
0.00121454
0.00118154
0.00114647
0.00110923
0.00106972
0.00102783
0.000983442
0.000936451
0.000886732
0.000834148
0.000778535
0.0007197
0.000657399
0.000591332
0.000521121
0.000446294
0.000366266
0.000280363
0.000188033
9.05848e-05
9.91253e-06
0.00155368
0.00154645
0.00153842
0.00152958
0.00151991
0.00150939
0.00149796
0.00148557
0.00147214
0.00145756
0.00144173
0.00142454
0.00140584
0.00138544
0.00136331
0.00133974
0.00131433
0.00128704
0.00125784
0.00122666
0.00119344
0.00115808
0.0011205
0.00108058
0.00103821
0.000993298
0.000945728
0.000895391
0.00084216
0.000785883
0.000726374
0.000663397
0.000596655
0.00052577
0.000450264
0.000369544
0.000282912
0.000189791
9.14581e-05
1.00331e-05
0.00156214
0.00155462
0.00154633
0.00153727
0.00152741
0.00151672
0.00150516
0.00149267
0.00147915
0.00146453
0.00144869
0.00143153
0.00141297
0.00139293
0.00137135
0.00134796
0.0013228
0.00129572
0.00126661
0.00123542
0.0012021
0.00116657
0.00112872
0.00108846
0.00104568
0.00100028
0.000952186
0.000901287
0.000847475
0.000790613
0.000730528
0.000666995
0.000599725
0.000528347
0.000452386
0.000371245
0.000284217
0.000190694
9.19267e-05
1.01362e-05
0.00156729
0.0015594
0.00155078
0.00154143
0.00153133
0.00152044
0.00150871
0.00149609
0.00148251
0.00146787
0.00145208
0.00143506
0.00141672
0.00139699
0.00137574
0.0013527
0.00132774
0.00130092
0.00127204
0.00124096
0.00120765
0.00117201
0.00113396
0.0010934
0.00105025
0.00100441
0.000955834
0.00090443
0.000850109
0.000792752
0.000732199
0.000668237
0.000600592
0.000528903
0.000452706
0.000371409
0.000284298
0.000190747
9.19695e-05
1.0226e-05
0.00156916
0.00156083
0.00155182
0.00154213
0.00153174
0.00152061
0.0015087
0.00149595
0.00148229
0.00146765
0.00145192
0.00143504
0.00141689
0.00139738
0.00137636
0.00135365
0.0013291
0.00130259
0.00127411
0.00124336
0.00121017
0.00117451
0.0011363
0.00109548
0.00105198
0.00100577
0.000956774
0.000904947
0.000850215
0.000792475
0.00073158
0.000667334
0.000599474
0.000527658
0.000451436
0.000370232
0.000283338
0.000190115
9.17282e-05
1.03113e-05
0.00156777
0.00155894
0.0015495
0.00153943
0.00152872
0.00151733
0.00150523
0.00149235
0.00147862
0.00146396
0.00144829
0.00143151
0.00141351
0.00139418
0.00137338
0.00135096
0.00132678
0.00130071
0.00127264
0.00124248
0.00120964
0.00117404
0.00113572
0.00109469
0.00105095
0.00100447
0.000955189
0.000903082
0.000848092
0.000790128
0.000729057
0.000664694
0.000596795
0.000525034
0.000448981
0.000368079
0.000281636
0.000189006
9.12909e-05
1.0401e-05
0.00156317
0.0015538
0.00154389
0.00153342
0.00152237
0.00151073
0.00149843
0.00148543
0.00147164
0.00145699
0.00144138
0.00142471
0.00140686
0.0013877
0.0013671
0.00134493
0.00132105
0.00129532
0.00126765
0.00123794
0.00120572
0.00117034
0.00113203
0.00109094
0.00104717
0.00100067
0.000951362
0.000899225
0.000844218
0.000786258
0.000725223
0.000660948
0.000593201
0.000521674
0.000445955
0.000365504
0.000279645
0.000187729
9.07965e-05
1.05049e-05
0.00155542
0.00154548
0.00153507
0.00152418
0.00151281
0.00150091
0.00148845
0.00147536
0.00146156
0.00144697
0.00143148
0.00141497
0.00139733
0.00137841
0.00135808
0.00133619
0.00131257
0.0012871
0.00125967
0.00123015
0.00119834
0.00116342
0.00112539
0.00108457
0.0010411
0.000994915
0.000945913
0.000894062
0.000839326
0.000781633
0.000720881
0.00065692
0.00058953
0.00051841
0.000443152
0.00036322
0.000277942
0.000186665
9.03927e-05
1.06331e-05
0.00154459
0.00153405
0.00152313
0.00151183
0.00150013
0.00148801
0.00147542
0.00146228
0.00144853
0.00143406
0.00141877
0.00140252
0.00138517
0.00136659
0.00134661
0.00132507
0.0013018
0.00127668
0.00124957
0.00122034
0.00118897
0.0011547
0.00111718
0.00107686
0.0010339
0.000988245
0.000939786
0.000888476
0.000834271
0.000777112
0.000716906
0.000653508
0.000586691
0.00051614
0.000441428
0.000362
0.000277165
0.000186258
9.02801e-05
1.07944e-05
0.0015308
0.00151966
0.00150822
0.0014965
0.00148449
0.00147217
0.00145947
0.00144634
0.0014327
0.00141842
0.0014034
0.00138748
0.00137052
0.00135234
0.00133278
0.00131165
0.0012888
0.00126411
0.00123749
0.00120889
0.00117835
0.00114516
0.00110846
0.00106884
0.00102657
0.00098161
0.000933853
0.00088326
0.000829808
0.000773442
0.000714058
0.000651483
0.000585457
0.000515622
0.000441502
0.000362491
0.000277849
0.00018688
9.06416e-05
1.09932e-05
0.00151423
0.00150246
0.00149051
0.00147837
0.00146606
0.00145355
0.00144079
0.00142771
0.00141422
0.0014002
0.00138553
0.00137003
0.00135354
0.00133587
0.00131682
0.00129618
0.00127384
0.00124969
0.00122367
0.00119581
0.00116624
0.00113426
0.00109862
0.00105994
0.00101866
0.000974747
0.000928071
0.000878573
0.000826245
0.000771025
0.00071278
0.000651294
0.000586258
0.000517252
0.000443731
0.000365009
0.000280258
0.000188718
9.1522e-05
1.12258e-05
0.00149508
0.0014827
0.00147022
0.00145768
0.00144508
0.0014324
0.00141959
0.0014066
0.00139331
0.00137961
0.00136535
0.00135036
0.00133445
0.0013174
0.001299
0.00127904
0.00125741
0.00123401
0.0012088
0.00118183
0.00115319
0.00112235
0.00108796
0.00105052
0.0010105
0.000967925
0.000922656
0.000874623
0.000823779
0.000770019
0.000713164
0.000652954
0.000589026
0.000520899
0.000447952
0.000369399
0.000284297
0.000191773
9.30027e-05
1.14834e-05
0.00147364
0.00146065
0.00144767
0.00143473
0.00142185
0.00140902
0.00139619
0.00138331
0.00137026
0.00135692
0.00134313
0.00132872
0.00131346
0.00129715
0.00127954
0.00126046
0.0012398
0.00121745
0.00119341
0.00116773
0.00114053
0.00111123
0.0010783
0.00104232
0.00100369
0.000962484
0.000918626
0.000872071
0.000822731
0.000770441
0.000714972
0.000656016
0.00059316
0.000525864
0.000453431
0.000374973
0.000289408
0.000195707
9.50011e-05
1.17517e-05
0.00145025
0.00143668
0.00142321
0.0014099
0.00139676
0.00138381
0.00137099
0.00135824
0.00134546
0.00133251
0.00131924
0.00130546
0.00129096
0.00127551
0.00125886
0.00124091
0.00122151
0.00120059
0.00117814
0.00115428
0.00112929
0.00110213
0.00107075
0.00103608
0.000998735
0.000958783
0.000916195
0.000870917
0.00082284
0.000771774
0.00071746
0.000659549
0.000597591
0.000530999
0.000459011
0.000380645
0.00029468
0.000199891
9.72514e-05
1.20146e-05
0.00142529
0.0014112
0.00139729
0.00138365
0.0013703
0.00135725
0.00134447
0.00133189
0.00131942
0.00130691
0.00129421
0.00128112
0.00126746
0.00125301
0.00123756
0.00122102
0.00120326
0.0011842
0.00116381
0.00114214
0.00111937
0.00109384
0.00106385
0.00103059
0.000994607
0.000955908
0.000914449
0.000870207
0.000823102
0.000772949
0.000719478
0.000662333
0.000601046
0.000535009
0.000463423
0.000385235
0.000299105
0.000203603
9.94234e-05
1.22618e-05
0.00139921
0.00138466
0.00137039
0.00135648
0.00134298
0.00132991
0.00131724
0.0013049
0.0012928
0.00128079
0.00126871
0.00125638
0.00124363
0.00123028