/*--------------------------------*- C++ -*----------------------------------*\
  =========                 |
  \\      /  F ield         | OpenFOAM: The Open Source CFD Toolbox
   \\    /   O peration     | Website:  https://openfoam.org
    \\  /    A nd           | Version:  8
     \\/     M anipulation  |
\*---------------------------------------------------------------------------*/
FoamFile
{
    version     2.0;
    format      ascii;
    class       volScalarField;
    location    "2.4";
    object      p;
}
// * * * * * * * * * * * * * * * * * * * * * * * * * * * * * * * * * * * * * //

dimensions      [1 -1 -2 0 0 0 0];

internalField   nonuniform List<scalar> 
9150
(
398.414
371.33
345.952
328.768
320.48
320.5
328.823
346.03
371.416
398.49
369.616
349.941
334.389
322.581
316.625
316.639
322.62
334.446
350.009
369.685
340.334
326.639
318.221
310.433
306.357
306.368
310.463
318.266
326.694
340.395
315.669
305.469
300.141
294.735
291.792
291.801
294.76
300.179
305.515
315.724
294.43
285.237
280.834
276.63
274.195
274.203
276.652
280.869
285.28
294.484
29.9128
27.07
52.1852
66.2444
73.1603
73.4114
66.9817
53.2909
28.5912
32.0333
200.98
177.108
171.859
170.609
170.863
171.002
171.005
172.464
177.893
201.771
305.305
274.388
258.728
248.834
244.262
244.34
249.055
259.057
274.774
305.659
385.893
344.216
316.755
299.383
290.917
290.964
299.512
316.938
344.414
386.053
438.468
384.728
346.137
324.07
313.939
313.969
324.152
346.25
384.842
438.548
-65.6908
-22.5898
-31.7711
-21.5515
-26.1823
-23.5687
-20.1667
-26.2156
-13.2579
-42.5094
-53.3417
-32.2288
-51.4619
-39.0802
-44.809
-42.5185
-38.4067
-42.9106
-24.4635
-36.8056
-89.7878
-58.934
-92.8898
-79.9493
-78.493
-77.3993
-79.2522
-85.4755
-53.4628
-79.0455
-267.336
-140.621
-129.561
-107.514
-90.5484
-90.0632
-105.663
-124.418
-137.475
-258.365
-422.422
-173.182
-79.4828
-48.7146
-31.9469
-31.5702
-47.3664
-77.1979
-170.818
-415.972
1847.93
1848.05
1848.17
1848.28
1848.39
1848.49
1848.59
1848.69
1848.78
1848.88
1827.74
1827.85
1827.97
1828.09
1828.21
1828.32
1828.45
1828.57
1828.69
1828.82
1807.64
1807.74
1807.85
1807.97
1808.09
1808.22
1808.36
1808.5
1808.64
1808.8
1787.71
1787.8
1787.9
1788.02
1788.14
1788.27
1788.41
1788.56
1788.71
1788.87
1767.89
1767.97
1768.07
1768.17
1768.29
1768.42
1768.55
1768.7
1768.85
1769.02
1748.14
1748.21
1748.3
1748.4
1748.51
1748.62
1748.75
1748.89
1749.04
1749.2
1728.44
1728.51
1728.58
1728.67
1728.77
1728.88
1728.99
1729.12
1729.26
1729.4
1708.79
1708.84
1708.91
1708.98
1709.07
1709.16
1709.26
1709.37
1709.49
1709.62
1689.16
1689.21
1689.26
1689.32
1689.39
1689.47
1689.55
1689.64
1689.73
1689.83
1669.57
1669.61
1669.65
1669.7
1669.76
1669.81
1669.87
1669.93
1669.99
1670.06
1650.02
1650.05
1650.09
1650.12
1650.16
1650.2
1650.23
1650.26
1650.28
1650.3
1630.51
1630.55
1630.58
1630.6
1630.63
1630.64
1630.65
1630.65
1630.63
1630.61
1611.06
1611.1
1611.13
1611.16
1611.17
1611.18
1611.17
1611.14
1611.09
1611.02
1591.68
1591.73
1591.77
1591.8
1591.82
1591.83
1591.82
1591.79
1591.73
1591.63
1572.36
1572.43
1572.49
1572.55
1572.59
1572.62
1572.62
1572.61
1572.56
1572.48
1553.11
1553.21
1553.3
1553.39
1553.48
1553.55
1553.61
1553.65
1553.68
1553.69
1533.92
1534.05
1534.18
1534.32
1534.44
1534.56
1534.68
1534.78
1534.87
1534.94
1514.76
1514.94
1515.11
1515.3
1515.49
1515.68
1515.87
1516.08
1516.29
1516.52
1495.61
1495.83
1496.05
1496.29
1496.54
1496.79
1497.06
1497.35
1497.66
1497.99
1476.43
1476.69
1476.97
1477.26
1477.56
1477.88
1478.22
1478.57
1478.94
1479.35
1457.18
1457.5
1457.84
1458.18
1458.54
1458.91
1459.3
1459.71
1460.13
1460.58
1437.84
1438.23
1438.63
1439.04
1439.46
1439.89
1440.32
1440.77
1441.22
1441.69
1418.36
1418.85
1419.36
1419.85
1420.34
1420.83
1421.31
1421.78
1422.25
1422.72
1398.73
1399.4
1400.04
1400.65
1401.22
1401.77
1402.29
1402.79
1403.27
1403.74
1379.11
1380
1380.8
1381.53
1382.19
1382.8
1383.35
1383.86
1384.34
1384.78
1359.79
1360.98
1361.85
1362.65
1363.38
1364.01
1364.57
1365.06
1365.51
1365.92
1341.71
1342.71
1343.49
1344.26
1344.94
1345.52
1346.02
1346.45
1346.83
1347.17
1323.8
1324.83
1325.65
1326.33
1326.88
1327.33
1327.71
1328.03
1328.31
1328.54
1308.77
1308.87
1309.04
1309.19
1309.35
1309.51
1309.66
1309.8
1309.93
1310.03
1292.02
1291.81
1291.74
1291.68
1291.64
1291.61
1291.6
1291.59
1291.57
1291.55
1274.89
1274.61
1274.33
1274.08
1273.86
1273.68
1273.52
1273.37
1273.22
1273.08
1257.46
1257.04
1256.63
1256.26
1255.94
1255.64
1255.36
1255.1
1254.84
1254.59
1239.86
1239.29
1238.77
1238.3
1237.88
1237.49
1237.12
1236.76
1236.42
1236.07
1221.86
1221.22
1220.68
1220.15
1219.66
1219.21
1218.77
1218.35
1217.94
1217.52
1203.42
1202.85
1202.33
1201.75
1201.26
1200.79
1200.33
1199.87
1199.41
1198.95
1184.69
1184.2
1183.67
1183.18
1182.71
1182.26
1181.8
1181.33
1180.85
1180.35
1165.78
1165.31
1164.88
1164.47
1164.06
1163.64
1163.2
1162.75
1162.27
1161.76
1146.68
1146.34
1146
1145.66
1145.31
1144.94
1144.55
1144.14
1143.68
1143.19
1127.52
1127.27
1127.01
1126.75
1126.47
1126.17
1125.85
1125.49
1125.09
1124.64
1108.26
1108.09
1107.91
1107.73
1107.53
1107.31
1107.07
1106.79
1106.48
1106.11
1088.88
1088.77
1088.67
1088.56
1088.44
1088.31
1088.16
1087.99
1087.8
1087.57
1069.32
1069.27
1069.23
1069.19
1069.14
1069.1
1069.04
1068.99
1068.93
1068.86
1049.56
1049.55
1049.55
1049.56
1049.57
1049.59
1049.61
1049.64
1049.69
1049.76
1029.5
1029.54
1029.57
1029.61
1029.66
1029.72
1029.77
1029.85
1029.96
1030.11
1009.28
1009.31
1009.31
1009.36
1009.43
1009.48
1009.49
1009.5
1009.61
1009.95
988.947
988.847
988.749
988.72
988.812
988.996
988.942
989.179
990.868
989.61
968.259
967.993
967.723
968.341
968.853
969.514
969.154
968.836
969.173
968.794
947.947
947.85
948.95
951.715
951.568
949.085
948.913
949.315
948.203
948.63
928.932
928.666
929.912
930.557
930.572
929.949
928.544
928.785
928.586
928.428
907.892
910.112
908.681
911.193
911.861
910.062
908.513
908.286
908.081
907.852
888.641
887.631
889.449
889.891
889.589
888.818
888.332
888.261
888.075
887.803
869.888
870.111
868.498
869.718
869.763
869.5
869.322
869.144
868.886
868.523
851.492
852.724
848.648
849.451
850.079
850.395
850.523
850.502
850.325
849.983
828.777
829.606
830.573
831.463
832.226
832.704
832.959
833.014
832.869
832.53
807.647
810.98
813.39
814.798
815.688
816.258
816.589
816.695
816.573
816.228
796.799
797.525
798.248
800.504
801.201
801.444
801.623
801.668
801.527
801.178
800.294
796.849
791.289
790.871
789.903
788.949
788.442
788.135
787.842
787.464
791.478
783.866
776.485
774.88
774.606
774.358
774.297
774.335
774.36
774.28
764.375
759.226
757.383
757.704
758.568
759.329
760.052
760.755
761.395
761.912
739.709
739.552
740.428
741.669
743.039
744.479
745.953
747.466
748.91
750.37
720.729
721.719
723.021
724.688
726.716
729.007
731.432
733.99
736.543
738.942
699.876
701.314
703.134
705.57
708.749
712.27
715.974
719.71
723.491
727.093
677.243
679.15
681.712
686.372
690.295
693.378
698.452
703.605
709.024
715.544
652.919
655.001
658.143
662.024
666.116
670.732
677.326
685.385
696.86
710.569
626.406
628.031
630.863
633.501
636.168
643.58
655.787
675.177
693.715
702.654
597.461
597.5
598.262
597.832
600.479
613.293
638.641
665.936
681.31
689.282
567.1
564.592
560.703
556.252
561.956
592.089
625.914
642.909
656.71
666.265
537.144
531.977
526.44
525.341
540.811
567.53
587.851
625.287
638.216
631.68
510.594
505.355
506.318
510.011
514.17
528.51
561.914
601.643
606.593
598.657
489.792
488.937
491.607
494.008
495.537
502.938
534.115
571.761
573.25
561.883
474.209
475.7
477.903
479.783
483.615
490.124
514.104
535.607
529.833
516.299
461.452
463.282
464.975
466.801
471.354
480.63
495.192
495.269
482.566
467.383
451.005
452.098
453.86
456.78
457.732
462.356
463.076
451.77
435.944
418.606
440.975
440.219
442.873
443.36
440.986
434.541
423.559
408.8
391.551
371.768
438.229
433.719
429.419
420.856
411.301
401.28
387.463
370.574
350.856
328.096
412.763
428.422
406.748
395.191
385.188
372.346
355.97
336.496
313.883
288.02
408.621
403.766
391.563
378.072
363.775
347.23
328.013
305.89
280.689
252.462
397.993
386.818
368.529
354.925
339.781
321.753
300.928
277.144
250.383
220.915
363.636
357.81
347.255
332.062
314.736
295.561
274.042
249.796
222.892
193.315
318.637
319.369
314.534
302.367
286.537
267.964
246.535
222.286
195.903
167.943
310.329
312.6
298.962
281.568
263.7
244.217
222.148
197.056
168.572
135.574
285.805
288.693
274.298
256.908
240.064
222.296
202.471
180.196
155.215
129.094
249.243
254.179
245.147
231.581
217.493
202.481
185.852
167.496
147.851
131.338
240.068
235.268
222.36
208.946
196.379
183.743
170.274
155.91
141.642
132.748
196.999
198.53
191.356
182.099
172.932
163.581
153.611
143.19
133.719
130.246
165.761
168.365
163.962
157.213
150.28
143.128
135.526
127.813
121.56
120.656
144.246
144.837
140.5
134.686
128.802
122.64
116.007
109.036
102.596
99.0797
126.013
123.744
119.001
113.609
108.22
102.485
96.341
89.8033
83.5159
79.9972
104.892
101.76
97.8742
93.3117
88.4334
82.8836
76.7167
69.7148
62.2411
57.706
84.7153
81.3362
78.3973
74.8166
70.5128
65.0918
58.768
51.1375
42.2677
36.5752
65.7364
65.369
63.3895
59.9909
55.4866
49.6644
43.002
35.2204
26.1271
21.1711
73.7167
62.6219
54.0205
47.9581
42.4798
36.1978
29.2747
21.3773
10.8463
6.59284
41.5019
41.425
36.7969
33.0397
29.545
24.777
19.0147
11.7012
0.573512
-5.61457
14.3266
21.2944
20.7721
19.658
18.4332
15.7599
12.5653
9.20491
3.70204
5.51451
1.59578
6.90312
8.45082
9.07863
9.36298
7.92365
6.25278
4.63215
-0.978735
-0.557062
-1.43223
-2.19595
-0.31664
0.989974
2.12321
1.46681
1.09055
0.664366
-4.31361
-2.68954
-5.95926
-10.7975
-7.96603
-6.28413
-4.24011
-4.11967
-3.47255
-3.60345
-7.27641
-4.51253
-12.1077
-18.8834
-13.1176
-12.3067
-9.49887
-8.46513
-7.03176
-7.55816
-8.72674
-5.81769
-24.7162
-15.7741
-11.5122
-14.3607
-13.5153
-11.9922
-9.57445
-9.99954
-5.45613
-5.614
-41.244
-0.0991632
-11.2951
-15.8056
-18.3344
-16.3822
-13.1403
-14.0612
0.570169
-10.8672
1848.98
1849.08
1849.19
1849.3
1849.42
1849.55
1849.68
1849.81
1849.95
1850.1
1850.25
1850.4
1850.56
1850.71
1850.87
1851.02
1851.17
1851.31
1851.44
1851.56
1851.66
1851.74
1851.8
1851.84
1851.85
1851.84
1851.79
1851.72
1851.63
1851.52
1851.4
1851.28
1851.18
1851.1
1851.06
1851.05
1851.08
1851.12
1851.14
1851.38
1828.96
1829.1
1829.25
1829.41
1829.56
1829.72
1829.88
1830.04
1830.19
1830.35
1830.51
1830.66
1830.81
1830.95
1831.09
1831.22
1831.34
1831.45
1831.54
1831.62
1831.69
1831.74
1831.77
1831.78
1831.77
1831.74
1831.7
1831.64
1831.57
1831.49
1831.42
1831.37
1831.33
1831.32
1831.36
1831.41
1831.48
1831.55
1831.62
1831.93
1808.96
1809.14
1809.32
1809.5
1809.68
1809.87
1810.05
1810.23
1810.4
1810.57
1810.73
1810.88
1811.03
1811.16
1811.29
1811.4
1811.5
1811.59
1811.67
1811.73
1811.78
1811.82
1811.83
1811.84
1811.83
1811.81
1811.78
1811.74
1811.7
1811.66
1811.63
1811.62
1811.62
1811.64
1811.67
1811.71
1811.75
1811.79
1811.88
1812.09
1789.05
1789.24
1789.43
1789.63
1789.83
1790.03
1790.22
1790.41
1790.59
1790.77
1790.94
1791.1
1791.25
1791.38
1791.51
1791.63
1791.73
1791.82
1791.9
1791.97
1792.02
1792.06
1792.09
1792.11
1792.11
1792.11
1792.1
1792.08
1792.05
1792.03
1792.01
1791.99
1791.97
1791.96
1791.95
1791.95
1791.95
1791.98
1792.08
1792.26
1769.19
1769.39
1769.59
1769.79
1769.99
1770.2
1770.4
1770.6
1770.79
1770.97
1771.15
1771.32
1771.48
1771.63
1771.77
1771.9
1772.02
1772.13
1772.23
1772.31
1772.39
1772.45
1772.5
1772.54
1772.57
1772.59
1772.6
1772.6
1772.59
1772.57
1772.54
1772.49
1772.44
1772.36
1772.28
1772.19
1772.13
1772.15
1772.23
1772.37
1749.37
1749.56
1749.76
1749.96
1750.16
1750.36
1750.57
1750.77
1750.97
1751.17
1751.36
1751.55
1751.73
1751.9
1752.06
1752.21
1752.36
1752.49
1752.62
1752.73
1752.84
1752.93
1753.02
1753.1
1753.16
1753.21
1753.25
1753.27
1753.28
1753.27
1753.23
1753.15
1753.04
1752.89
1752.68
1752.46
1752.29
1752.3
1752.46
1752.56
1729.56
1729.74
1729.92
1730.11
1730.31
1730.51
1730.72
1730.93
1731.14
1731.35
1731.56
1731.76
1731.97
1732.16
1732.35
1732.54
1732.72
1732.89
1733.05
1733.21
1733.36
1733.49
1733.62
1733.74
1733.85
1733.95
1734.03
1734.09
1734.13
1734.14
1734.11
1734.03
1733.88
1733.64
1733.3
1732.81
1732.33
1732.05
1732.4
1732.6
1709.76
1709.91
1710.07
1710.24
1710.43
1710.62
1710.82
1711.03
1711.25
1711.48
1711.71
1711.95
1712.18
1712.42
1712.65
1712.87
1713.1
1713.31
1713.52
1713.72
1713.92
1714.11
1714.29
1714.46
1714.62
1714.78
1714.91
1715.04
1715.14
1715.21
1715.24
1715.21
1715.11
1714.9
1714.53
1713.88
1715.12
1715.78
1714.95
1714.56
1689.94
1690.06
1690.19
1690.33
1690.48
1690.65
1690.84
1691.06
1691.29
1691.54
1691.81
1692.08
1692.36
1692.64
1692.92
1693.2
1693.47
1693.74
1694
1694.26
1694.51
1694.76
1694.99
1695.22
1695.45
1695.66
1695.87
1696.07
1696.26
1696.44
1696.61
1696.75
1696.87
1696.96
1697
1696.95
1698.34
1699.29
1698.64
1698.46
1670.13
1670.2
1670.27
1670.36
1670.46
1670.58
1670.75
1670.96
1671.22
1671.5
1671.81
1672.13
1672.47
1672.81
1673.16
1673.5
1673.83
1674.16
1674.49
1674.8
1675.11
1675.41
1675.71
1676
1676.29
1676.57
1676.84
1677.12
1677.39
1677.67
1677.96
1678.26
1678.59
1678.95
1679.35
1679.83
1680.35
1681.06
1682.26
1681.83
1650.32
1650.32
1650.32
1650.32
1650.32
1650.35
1650.45
1650.66
1650.95
1651.3
1651.68
1652.08
1652.5
1652.93
1653.35
1653.77
1654.17
1654.57
1654.96
1655.34
1655.71
1656.07
1656.42
1656.77
1657.1
1657.44
1657.77
1658.09
1658.42
1658.76
1659.1
1659.45
1659.81
1660.2
1660.6
1661
1661.35
1661.53
1661.31
1660.91
1630.55
1630.47
1630.36
1630.22
1630.15
1629.95
1629.84
1630.02
1630.41
1630.86
1631.37
1631.92
1632.44
1632.98
1633.5
1634.01
1634.5
1634.98
1635.44
1635.88
1636.31
1636.72
1637.13
1637.52
1637.9
1638.27
1638.64
1639
1639.35
1639.7
1640.05
1640.39
1640.73
1641.06
1641.36
1641.61
1641.75
1641.67
1641.28
1640.64
1610.9
1610.72
1610.48
1610.18
1609.77
1610.64
1610
1609.02
1609.54
1610.19
1610.99
1611.65
1612.32
1613
1613.64
1614.25
1614.84
1615.39
1615.92
1616.43
1616.91
1617.38
1617.83
1618.26
1618.67
1619.07
1619.46
1619.84
1620.2
1620.54
1620.87
1621.18
1621.47
1621.72
1621.91
1622.03
1622.03
1621.82
1621.36
1620.78
1591.48
1591.24
1590.92
1590.5
1589.98
1590.05
1592.03
1587.36
1588
1589.15
1590.35
1591.23
1592.16
1593.01
1593.8
1594.53
1595.21
1595.85
1596.45
1597.01
1597.55
1598.06
1598.55
1599.01
1599.45
1599.87
1600.27
1600.64
1601
1601.33
1601.64
1601.91
1602.14
1602.32
1602.44
1602.46
1602.36
1602.08
1601.62
1601.09
1572.34
1572.1
1571.74
1571.26
1570.69
1569.74
1580.97
1569.37
1565.93
1567.86
1569.66
1570.97
1572.14
1573.17
1574.09
1574.92
1575.69
1576.39
1577.05
1577.68
1578.25
1578.79
1579.3
1579.79
1580.25
1580.68
1581.08
1581.46
1581.81
1582.12
1582.4
1582.64
1582.83
1582.95
1583.01
1582.98
1582.83
1582.52
1582.07
1581.59
1553.68
1553.64
1553.58
1553.56
1553.7
1554.01
1557.49
1574.32
1545.47
1547.22
1549.33
1551.02
1552.41
1553.59
1554.6
1555.51
1556.33
1557.08
1557.78
1558.43
1559.03
1559.6
1560.13
1560.63
1561.1
1561.54
1561.94
1562.31
1562.65
1562.95
1563.21
1563.42
1563.57
1563.66
1563.68
1563.61
1563.44
1563.12
1562.69
1562.26
1534.99
1534.98
1534.9
1534.73
1534.39
1532.91
1529.82
1554.83
1544.2
1534.35
1532.98
1533.09
1533.95
1534.82
1535.66
1536.46
1537.24
1537.98
1538.67
1539.32
1539.94
1540.51
1541.05
1541.56
1542.03
1542.47
1542.87
1543.24
1543.57
1543.85
1544.09
1544.28
1544.41
1544.48
1544.47
1544.38
1544.19
1543.88
1543.47
1543.08
1516.77
1517.08
1517.45
1517.95
1518.64
1519.28
1519.85
1525.32
1530.61
1522.03
1512.26
1513.25
1514.87
1515.91
1516.7
1517.5
1518.28
1519.02
1519.71
1520.36
1520.97
1521.54
1522.08
1522.59
1523.06
1523.5
1523.9
1524.26
1524.58
1524.85
1525.08
1525.25
1525.36
1525.41
1525.39
1525.29
1525.1
1524.79
1524.4
1524.04
1498.37
1498.84
1499.39
1500.06
1500.91
1502.05
1503.66
1505.43
1506.13
1510.12
1509.21
1495.74
1494.67
1496.4
1497.66
1498.58
1499.42
1500.2
1500.9
1501.55
1502.15
1502.72
1503.25
1503.74
1504.22
1504.65
1505.04
1505.4
1505.71
1505.97
1506.19
1506.35
1506.45
1506.49
1506.46
1506.35
1506.15
1505.85
1505.47
1505.12
1479.82
1480.36
1480.99
1481.72
1482.58
1483.58
1484.79
1486.44
1489.12
1489.35
1488.39
1489.38
1482.76
1479.76
1479.95
1480.62
1481.22
1481.81
1482.38
1482.97
1483.54
1484.09
1484.69
1485.09
1485.52
1485.94
1486.32
1486.67
1486.97
1487.23
1487.44
1487.59
1487.68
1487.71
1487.67
1487.55
1487.35
1487.04
1486.66
1486.32
1461.08
1461.66
1462.3
1463.02
1463.83
1464.74
1465.75
1466.9
1468.31
1470.08
1470.35
1469.65
1474.1
1468.72
1461.7
1462.55
1463.13
1463.63
1464.07
1464.57
1465.09
1465.61
1466.13
1466.57
1466.98
1467.37
1467.72
1468.06
1468.37
1468.62
1468.83
1468.98
1469.07
1469.09
1469.04
1468.91
1468.69
1468.37
1467.98
1467.63
1442.2
1442.77
1443.37
1444.02
1444.71
1445.46
1446.25
1447.07
1447.87
1448.72
1449.7
1449.35
1448.29
1460.45
1453.76
1442.94
1442.79
1444.26
1445.41
1446.08
1446.64
1447.17
1447.65
1448.11
1448.53
1448.91
1449.27
1449.6
1449.9
1450.16
1450.37
1450.52
1450.61
1450.63
1450.57
1450.42
1450.18
1449.83
1449.41
1449.03
1423.22
1423.76
1424.31
1424.87
1425.45
1426.05
1426.65
1427.25
1427.81
1428.3
1428.69
1428.96
1429.07
1426.64
1428.52
1429.44
1426.87
1425.76
1426.94
1427.97
1428.51
1428.95
1429.36
1429.76
1430.12
1430.51
1430.91
1431.27
1431.55
1431.83
1432.05
1432.21
1432.3
1432.32
1432.25
1432.08
1431.82
1431.43
1430.97
1430.59
1404.22
1404.71
1405.19
1405.67
1406.15
1406.61
1407.06
1407.49
1407.87
1408.18
1408.37
1408.37
1408.29
1409.07
1409.31
1405.58
1414.23
1410.83
1409.9
1410.51
1410.95
1411.07
1411.22
1411.47
1411.79
1412.18
1412.61
1413
1413.29
1413.61
1413.86
1414.04
1414.14
1414.15
1414.07
1413.89
1413.6
1413.17
1412.64
1412.19
1385.23
1385.67
1386.08
1386.48
1386.86
1387.23
1387.56
1387.86
1388.12
1388.33
1388.45
1388.47
1388.39
1388.28
1388.03
1386.96
1384.66
1396
1392.79
1392.67
1392.58
1392.97
1392.91
1392.96
1393.2
1393.68
1394.23
1394.71
1395.14
1395.5
1395.79
1396
1396.11
1396.12
1396.03
1395.82
1395.48
1394.99
1394.39
1393.84
1366.31
1366.68
1367.02
1367.34
1367.64
1367.91
1368.16
1368.38
1368.56
1368.7
1368.8
1368.83
1368.8
1368.66
1368.38
1367.81
1366.9
1363.62
1378.71
1376
1374.18
1374.29
1374.51
1374.23
1374.51
1375.11
1375.85
1376.54
1377.06
1377.49
1377.83
1378.06
1378.18
1378.19
1378.07
1377.83
1377.44
1376.87
1376.18
1375.54
1347.48
1347.77
1348.03
1348.26
1348.47
1348.67
1348.84
1349
1349.14
1349.27
1349.4
1349.52
1349.65
1349.8
1349.99
1350.21
1350.59
1351.33
1350.56
1360.68
1355.94
1354.29
1355.92
1356.85
1357.69
1358.36
1357.54
1358.4
1359.06
1359.57
1359.96
1360.21
1360.33
1360.32
1360.17
1359.88
1359.42
1358.76
1357.96
1357.2
1328.75
1328.94
1329.1
1329.24
1329.36
1329.47
1329.57
1329.67
1329.77
1329.88
1330.02
1330.21
1330.47
1330.86
1331.44
1332.29
1333.63
1336
1338.83
1341.74
1344.43
1330.13
1334.74
1336.4
1338.87
1339.97
1339.82
1340.62
1341.29
1341.81
1342.18
1342.41
1342.51
1342.46
1342.27
1341.91
1341.38
1340.63
1339.73
1338.85
1310.11
1310.18
1310.23
1310.26
1310.28
1310.3
1310.31
1310.33
1310.35
1310.39
1310.47
1310.59
1310.79
1311.1
1311.56
1312.2
1313.13
1314.66
1317.1
1317.9
1328.44
1319.28
1320.96
1322.66
1321.64
1323.5
1321.53
1322.69
1323.46
1324.01
1324.38
1324.59
1324.64
1324.54
1324.28
1323.86
1323.24
1322.4
1321.41
1320.44
1291.51
1291.45
1291.38
1291.3
1291.22
1291.13
1291.04
1290.95
1290.88
1290.82
1290.78
1290.78
1290.82
1290.92
1291.08
1291.31
1291.57
1291.91
1292.61
1292.32
1311.9
1307
1305.3
1308.91
1305.76
1307.65
1304.55
1305.41
1305.98
1306.36
1306.6
1306.71
1306.67
1306.49
1306.15
1305.65
1304.95
1304.04
1302.97
1301.97
1272.92
1272.74
1272.55
1272.36
1272.17
1271.97
1271.77
1271.58
1271.39
1271.22
1271.07
1270.94
1270.85
1270.78
1270.75
1270.72
1270.61
1270.38
1270.34
1270.35
1296.29
1292.14
1290.08
1291.17
1288.97
1290.01
1287.23
1287.77
1288.21
1288.47
1288.6
1288.6
1288.47
1288.21
1287.8
1287.23
1286.47
1285.5
1284.38
1283.5
1254.32
1254.03
1253.73
1253.43
1253.12
1252.81
1252.5
1252.19
1251.89
1251.6
1251.34
1251.1
1250.88
1250.7
1250.54
1250.38
1250.13
1249.74
1249.59
1249.76
1279.19
1272.69
1271.19
1275.6
1271.85
1273.44
1269.71
1269.94
1270.19
1270.3
1270.32
1270.22
1270.01
1269.67
1269.19
1268.56
1267.76
1266.75
1265.62
1264.76
1235.71
1235.31
1234.91
1234.5
1234.08
1233.66
1233.23
1232.8
1232.39
1231.99
1231.62
1231.28
1230.97
1230.71
1230.49
1230.29
1230.07
1229.82
1230.04
1230
1260.1
1252.19
1253.05
1254.6
1252.84
1253.91
1251.56
1251.68
1251.77
1251.79
1251.72
1251.55
1251.27
1250.87
1250.34
1249.67
1248.84
1247.83
1246.71
1245.9
1217.08
1216.59
1216.09
1215.58
1215.05
1214.51
1213.96
1213.42
1212.89
1212.39
1211.93
1211.52
1211.17
1210.88
1210.68
1210.57
1210.53
1210.85
1212.71
1214.84
1236.56
1234.18
1231.8
1232.43
1231.99
1232.21
1232.57
1232.82
1232.9
1232.88
1232.79
1232.6
1232.29
1231.86
1231.31
1230.62
1229.79
1228.79
1227.73
1226.98
1198.44
1197.87
1197.28
1196.67
1196.03
1195.37
1194.7
1194.03
1193.38
1192.77
1192.23
1191.76
1191.38
1191.08
1190.88
1190.82
1190.97
1192.2
1196.62
1204.82
1215.95
1208.83
1206.82
1210.65
1210.75
1213.48
1212.39
1212.96
1213.42
1213.58
1213.57
1213.43
1213.14
1212.73
1212.19
1211.51
1210.7
1209.74
1208.76
1208.05
1179.8
1179.17
1178.5
1177.79
1177.04
1176.25
1175.45
1174.63
1173.84
1173.09
1172.44
1171.9
1171.41
1170.85
1170.13
1169.19
1167.87
1167.09
1167.29
1194.14
1187.86
1187.29
1189.57
1191.86
1194.51
1192.02
1193.08
1193.72
1194.14
1194.35
1194.37
1194.25
1193.99
1193.6
1193.08
1192.43
1191.65
1190.74
1189.83
1189.15
1161.18
1160.51
1159.78
1158.98
1158.11
1157.19
1156.22
1155.23
1154.26
1153.39
1152.73
1152.38
1152.18
1151.77
1151.04
1150.11
1148.42
1145.16
1146.11
1175.09
1150.53
1165.09
1171.32
1172.68
1174.68
1173.82
1174.68
1175.05
1175.27
1175.37
1175.34
1175.19
1174.94
1174.56
1174.07
1173.45
1172.7
1171.8
1170.89
1170.32
1142.61
1141.92
1141.15
1140.28
1139.32
1138.25
1137.11
1135.92
1134.77
1133.79
1133.23
1133.48
1134.75
1134.93
1132.36
1130.23
1129.36
1120.17
1134.54
1137.6
1140.95
1157.61
1161.16
1164.49
1159.27
1157.15
1157.13
1156.93
1156.78
1156.65
1156.5
1156.3
1156.03
1155.67
1155.2
1154.6
1153.86
1152.96
1152
1151.28
1124.1
1123.44
1122.67
1121.77
1120.71
1119.47
1118.03
1116.4
1114.63
1112.66
1109.99
1107.66
1114.16
1120.55
1113.09
1112.15
1115.3
1118.22
1122.1
1124.5
1129.45
1135.57
1137.72
1140.77
1139.83
1138.59
1138.25
1138.08
1137.92
1137.75
1137.59
1137.41
1137.17
1136.86
1136.42
1135.85
1135.11
1134.19
1133.17
1132.31
1105.66
1105.1
1104.41
1103.55
1102.48
1101.12
1099.32
1096.84
1093.56
1090.97
1093.92
1100.69
1099.69
1099.23
1101.39
1103.88
1106.91
1109.87
1112.64
1115.63
1117.18
1116.33
1117.57
1118.42
1118.73
1118.9
1118.98
1118.96
1118.83
1118.65
1118.51
1118.4
1118.25
1118.01
1117.63
1117.11
1116.38
1115.43
1114.33
1113.32
1087.29
1086.94
1086.51
1085.98
1085.3
1084.4
1083.09
1081.33
1080.19
1088.55
1094.5
1094.74
1094.69
1094.96
1095.88
1097.58
1099.73
1101.6
1103.42
1103.02
1100.94
1098.95
1098.88
1099.4
1099.74
1099.92
1100
1099.9
1099.59
1099.25
1099.11
1099.14
1099.15
1099.01
1098.71
1098.25
1097.57
1096.6
1095.41
1094.26
1068.79
1068.73
1068.68
1068.68
1068.72
1068.8
1068.9
1069.37
1071.97
1083.65
1091.54
1092.33
1092.49
1092.44
1092.41
1092.92
1093.64
1093.7
1089.61
1084.08
1081.36
1080.25
1080.67
1081.02
1081.02
1081
1081.12
1081.03
1080.27
1079.64
1079.52
1079.67
1079.96
1079.93
1079.67
1079.26
1078.61
1077.65
1076.39
1075.13
1049.86
1050.03
1050.31
1050.75
1051.41
1052.36
1053.72
1055.81
1059.67
1067.03
1077.76
1087.22
1087.2
1086.24
1085.45
1084.69
1080.43
1075.71
1070.65
1065.4
1062.07
1064.11
1061.66
1062.57
1062.82
1063.58
1063.24
1064.06
1062.25
1062.4
1063.39
1062.21
1061.34
1060.92
1060.58
1060.17
1059.56
1058.6
1057.27
1055.95
1030.26
1030.43
1030.8
1031.4
1032.22
1033.27
1034.65
1036.58
1039.43
1043.21
1049.23
1057.85
1065
1064.11
1061.43
1055.61
1040.28
1044.49
1045.01
1045.17
1046.31
1046.6
1046.84
1047.73
1048.39
1046.95
1045.2
1046.62
1044.32
1045.29
1045.09
1044.51
1043.71
1043.08
1042.31
1041.24
1040.41
1039.47
1038.12
1036.75
1010.26
1010.21
1011.4
1010.95
1011.74
1012.69
1013.37
1015.22
1016.57
1018.55
1021.2
1023.87
1026.1
1026.34
1023.15
1020.06
1019.07
1020.16
1025.22
1026.36
1026.36
1026.36
1026.6
1027.06
1025.29
1024.77
1025.93
1025.54
1027.48
1027.35
1026.75
1026.23
1025.78
1024.98
1024
1022.96
1021.75
1020.34
1018.98
1017.56
990.811
989.575
991.317
991.357
990.832
992.165
991.574
993.176
994.43
994.759
995.481
996.926
997.504
997.267
996.419
995.991
996.657
997.394
997.958
998.826
1000.13
1001.03
1001.41
1001.27
1001.53
1002.42
1003.65
1004.49
1005.21
1005.91
1006.59
1006.51
1005.91
1005.68
1005.12
1004.3
1003.21
1001.48
999.778
998.391
968.92
969.103
969.754
969.864
969.838
969.966
970.182
970.026
971.415
971.216
971.809
971.907
971.123
970.988
970.629
970.419
970.569
971.075
971.834
972.818
973.937
975.089
976.163
977.167
978.236
979.45
980.693
981.865
982.952
983.998
984.948
985.697
986.24
986.407
985.45
984.691
984.579
983.144
980.282
979.247
948.895
948.524
948.941
948.611
949.272
948.986
947.932
948.663
947.453
948.027
947.764
946.436
945.349
944.813
944.152
944.009
944.026
944.368
945.21
946.424
947.911
949.494
951.065
952.609
954.156
955.718
957.261
958.744
960.144
961.445
962.612
963.599
964.383
964.952
965.199
964.759
964.2
965.99
959.919
959.999
929.812
928.248
928.631
927.607
927.113
926.244
925.391
924.684
923.611
922.731
921.732
920.658
919.566
918.488
917.566
916.945
916.445
916.586
917.426
919.095
921.23
923.393
925.489
927.536
929.551
931.537
933.482
935.357
937.135
938.787
940.276
941.559
942.602
943.364
943.784
943.788
943.234
942.356
941.989
940.793
907.615
907.289
906.836
906.083
905.172
904.185
903.071
901.814
900.427
898.967
897.4
895.717
893.957
892.184
890.463
888.784
887.316
886.654
887.858
890.893
894.501
897.487
900.069
902.543
904.983
907.388
909.751
912.049
914.25
916.316
918.207
919.881
921.297
922.411
923.172
923.528
923.423
922.789
924.791
922.54
887.432
886.891
886.162
885.223
884.092
882.79
881.314
879.665
877.85
875.877
873.752
871.442
868.884
866.053
863.07
860.64
859.257
858.969
864.53
869.692
869.877
873.283
875.849
878.381
881.045
883.751
886.486
889.207
891.859
894.389
896.745
898.881
900.754
902.32
903.538
904.362
904.725
904.502
907.53
905.544
868.014
867.302
866.381
865.23
863.847
862.244
860.426
858.403
856.2
853.889
851.532
848.864
845.046
840.687
838.27
838.146
845.795
855.327
860.111
853.679
851.047
852.393
853.637
855.424
858.04
860.866
863.918
867.076
870.223
873.276
876.168
878.847
881.266
883.389
885.181
886.606
887.614
888.116
890.406
889.557
849.435
848.617
847.538
846.183
844.548
842.647
840.502
838.153
835.712
833.357
830.954
826.836
820.248
815.901
828.042
835.197
833.807
831.341
828.597
828.586
829.025
829.903
830.636
831.952
834.891
838.145
841.819
845.637
849.437
853.128
856.651
859.955
863.001
865.757
868.197
870.299
872.03
873.324
874.128
875.204
831.93
830.997
829.749
828.153
826.198
823.904
821.304
818.456
815.43
811.819
806.244
802.263
806.598
810.586
810.399
803.214
803.828
804.92
803.607
803.471
804.576
806.046
807.502
808.435
810.735
815.098
820.052
824.969
829.686
834.168
838.401
842.379
846.092
849.517
852.631
855.414
857.835
859.816
861.206
862.925
815.588
814.56
813.14
811.26
808.886
806.061
802.854
799.199
794.727
788.703
783.945
782.916
785.939
785.326
784.475
783.169
780.974
780.065
780.104
781.05
782.709
784.39
784.764
785.189
786.005
791.892
799.217
805.73
811.467
816.808
821.787
826.425
830.776
834.867
838.686
842.205
845.394
848.179
850.396
852.93
800.541
799.51
798.092
796.089
793.42
789.689
786.078
782.027
775.97
766.113
757.107
761.606
762.305
768.451
769.423
766.006
763.664
761.446
760.228
761.364
765.02
768.893
771.683
781.409
783.942
782.259
785.551
791.085
796.397
801.774
807.184
812.382
817.295
821.989
826.505
830.821
834.903
838.7
842.024
845.396
786.876
785.959
784.66
782.882
781.886
778.987
773.433
770.697
763.461
750.617
740.872
741.183
734.667
750.865
760.765
757.831
750.234
742.452
735.895
735.831
744.897
758.017
760.687
775.976
779.94
781.382
783.12
784.591
786.939
789.814
794.258
799.778
805.399
810.794
816.051
821.247
826.371
831.389
836.038
840.526
773.977
773.29
772.138
770.334
768.279
766.44
762.952
758.832
749.751
738.97
735.262
735.513
734.769
738.2
748.353
748.259
740.227
735.737
732.778
729.454
720.327
736.069
735.495
757.416
772.248
779.753
784.063
787.142
788.534
787.528
786.08
788.529
794.305
800.779
807.068
813.302
819.651
826.137
832.404
838.358
762.22
762.137
761.539
760.314
758.528
756.441
753.373
746.99
738.33
734.598
734.451
734.555
734.578
734.969
735.891
736.466
736.149
735.321
734.499
733.155
729.85
719.483
720.569
737.649
748.99
768.043
782.689
790.628
794.708
795.68
791.561
784.371
784.335
791.006
798.933
806.635
814.461
822.726
831.024
838.785
751.406
752.142
752.31
751.868
750.91
749.272
745.855
738.993
734.256
734.285
734.449
734.646
734.877
735.214
735.577
735.848
735.976
736.053
736.07
735.155
732.74
727.83
722.333
728.609
734.938
746.271
764.962
785.971
798.438
803.334
802.867
793.949
780.785
781.256
790.514
800.515
810.314
820.748
831.574
841.432
741.098
742.983
744.59
746.2
747.136
744.117
736.599
733.061
733.374
733.717
734.037
734.342
734.683
735.101
735.529
735.888
736.232
736.715
737.405
737.974
737.536
732.252
724.897
723.427
727.888
733.02
741.846
761.736
787.747
805.05
812.164
807.296
788.328
774.972
781.449
794.12
806.553
819.642
833.586
846.005
731.138
736.107
742.473
747.95
744.942
736.683
733.096
732.774
733.284
733.68
733.814
733.845
734.001
734.605
735.464
736.086
736.678
738.161
741.317
745.11
746.804
741.167
721.266
712.134
718.519
727.131
733.562
740.65
759.452
789.589
814.616
818.645
796.417
773.301
772.897
787.096
802.461
818.601
836.243
851.885
724.79
737.322
745.044
742.514
731.733
724.213
723.799
726.993
729.958
731.979
733.067
733.593
733.817
733.99
734.708
736.274
738.019
740.481
743.495
747.794
759.763
764.303
740.718
718.104
715.661
721.865
727.617
732.023
738.064
759.027
792.941
821.352
804.621
774.982
766.488
779.808
797.244
816.366
838.06
857.429
721.565
727.813
723.215
713.59
707.176
706.616
708.795
713.322
713.973
713.287
712.807
712.852
715.351
719.385
719.217
720.541
728.205
738.991
743.88
738.359
744.866
747.976
729.319
713.772
709.02
710.542
713.912
717.463
721.144
729.911
757.228
809.329
803.712
765.836
756.358
769.584
788.668