/*--------------------------------*- C++ -*----------------------------------*\
  =========                 |
  \\      /  F ield         | OpenFOAM: The Open Source CFD Toolbox
   \\    /   O peration     | Website:  https://openfoam.org
    \\  /    A nd           | Version:  8
     \\/     M anipulation  |
\*---------------------------------------------------------------------------*/
FoamFile
{
    version     2.0;
    format      ascii;
    class       volVectorField;
    location    "2.4";
    object      U;
}
// * * * * * * * * * * * * * * * * * * * * * * * * * * * * * * * * * * * * * //

dimensions      [0 1 -1 0 0 0 0];

internalField   nonuniform List<vector> 
9150
(
(0.0539981 -0.42811 0)
(0.0880251 -0.622126 0)
(0.0729263 -0.631476 0)
(0.0485425 -0.64371 0)
(0.0169416 -0.654418 0)
(-0.0171173 -0.654393 0)
(-0.0486863 -0.643645 0)
(-0.0730281 -0.63141 0)
(-0.0880794 -0.622057 0)
(-0.0540157 -0.427994 0)
(0.0411605 -0.523021 0)
(0.0576325 -0.625767 0)
(0.0419222 -0.613273 0)
(0.0293695 -0.622446 0)
(0.010417 -0.628841 0)
(-0.010536 -0.628829 0)
(-0.0294702 -0.622412 0)
(-0.0419995 -0.613237 0)
(-0.0576853 -0.625743 0)
(-0.0411823 -0.522941 0)
(0.025617 -0.55802 0)
(0.0326473 -0.613803 0)
(0.0228291 -0.604499 0)
(0.0172749 -0.60999 0)
(0.0061933 -0.613171 0)
(-0.00626958 -0.613165 0)
(-0.0173407 -0.609974 0)
(-0.0228795 -0.604481 0)
(-0.0326873 -0.613797 0)
(-0.025637 -0.557978 0)
(0.0156642 -0.584823 0)
(0.01758 -0.607432 0)
(0.0115705 -0.601141 0)
(0.00889852 -0.60329 0)
(0.00321576 -0.604384 0)
(-0.00325808 -0.604382 0)
(-0.0089355 -0.603285 0)
(-0.0115988 -0.601134 0)
(-0.0176044 -0.607433 0)
(-0.0156772 -0.584807 0)
(0.00638982 -0.597205 0)
(0.00559427 -0.601361 0)
(0.00350702 -0.600038 0)
(0.00269041 -0.600351 0)
(0.000987738 -0.60048 0)
(-0.00100087 -0.60048 0)
(-0.00270192 -0.600351 0)
(-0.00351582 -0.600037 0)
(-0.00560246 -0.601362 0)
(-0.00639448 -0.597203 0)
(0.471144 -1.16573 1.32103e-24)
(0.282656 -1.08663 0)
(0.162968 -1.07023 0)
(0.091775 -1.05839 0)
(0.0295008 -1.0534 0)
(-0.0314111 -1.05313 0)
(-0.0934761 -1.05758 0)
(-0.164348 -1.06896 0)
(-0.283643 -1.08501 0)
(-0.470732 -1.16339 -1.2991e-24)
(0.334149 -0.844779 3.5351e-25)
(0.28681 -0.937253 0)
(0.187761 -0.937195 0)
(0.107884 -0.937079 0)
(0.035222 -0.939338 0)
(-0.0362985 -0.939143 0)
(-0.108807 -0.93654 0)
(-0.188455 -0.936442 0)
(-0.287056 -0.936316 0)
(-0.333859 -0.843589 -3.49369e-25)
(0.279852 -0.703435 6.33939e-26)
(0.259085 -0.805034 0)
(0.177731 -0.817841 0)
(0.104426 -0.828554 0)
(0.0345424 -0.836589 0)
(-0.0351906 -0.836473 0)
(-0.104971 -0.828237 0)
(-0.178095 -0.817401 0)
(-0.259191 -0.804544 0)
(-0.279733 -0.702902 -6.22654e-26)
(0.201203 -0.554957 2.03925e-25)
(0.217152 -0.709568 0)
(0.154024 -0.725991 0)
(0.0912479 -0.742089 0)
(0.0303625 -0.753969 0)
(-0.0307656 -0.753897 0)
(-0.0915797 -0.741898 0)
(-0.15424 -0.725749 0)
(-0.217209 -0.709314 0)
(-0.201148 -0.554653 -2.04117e-25)
(0.119953 -0.444567 -3.53832e-25)
(0.157224 -0.644082 -5.10245e-25)
(0.116564 -0.663767 -1.70763e-25)
(0.0708243 -0.681189 -1.1203e-25)
(0.023839 -0.694188 -6.35579e-27)
(-0.0241018 -0.694145 -6.55155e-27)
(-0.0710389 -0.681077 -1.12517e-25)
(-0.116706 -0.663638 -1.70945e-25)
(-0.157275 -0.64395 -5.1028e-25)
(-0.119947 -0.444394 -3.53685e-25)
(0.0110392 -0.953167 0)
(-0.0437888 -1.34343 0)
(0.0191835 -1.2706 0)
(-0.0138053 -1.22869 0)
(-0.00161386 -1.22741 0)
(-0.0108883 -1.2256 0)
(-0.00679833 -1.22903 0)
(-0.0339631 -1.27859 0)
(0.0186855 -1.33536 0)
(-0.0345432 -0.868306 0)
(0.0436456 -0.923574 0)
(-0.0274098 -1.33881 0)
(0.0211083 -1.27112 0)
(-0.00765859 -1.22541 0)
(-0.00254465 -1.22486 0)
(-0.00678646 -1.22305 0)
(-0.00805561 -1.22521 0)
(-0.0311109 -1.27227 0)
(0.0104299 -1.33361 0)
(-0.0550764 -0.88098 0)
(0.0722809 -0.953764 0)
(-0.027172 -1.35107 0)
(0.0173495 -1.27704 0)
(-0.000262962 -1.23135 0)
(-0.00327379 -1.22761 0)
(-0.00375533 -1.22649 0)
(-0.0100623 -1.23081 0)
(-0.0229522 -1.27489 0)
(0.0161254 -1.34736 0)
(-0.0792157 -0.926803 0)
(0.138537 -1.08276 0)
(-0.00357316 -1.36734 0)
(0.0165592 -1.27349 0)
(0.0183605 -1.2266 0)
(0.00270323 -1.21512 0)
(-0.00810491 -1.21457 0)
(-0.024018 -1.22541 0)
(-0.0197514 -1.27107 0)
(-0.00415099 -1.36554 0)
(-0.141749 -1.06897 0)
(0.29453 -1.22398 0)
(0.120276 -1.32298 0)
(0.0684416 -1.21219 0)
(0.0553567 -1.17023 0)
(0.0182155 -1.15707 0)
(-0.0215273 -1.15669 0)
(-0.0581606 -1.16889 0)
(-0.0710192 -1.21021 0)
(-0.124093 -1.32119 0)
(-0.295005 -1.21797 0)
(-0.042176 -0.00254874 0)
(-0.0403189 -0.00256277 0)
(-0.0384539 -0.00255274 0)
(-0.0366006 -0.00251797 0)
(-0.0347779 -0.00245831 0)
(-0.0330042 -0.00237475 0)
(-0.031297 -0.00226861 0)
(-0.0296722 -0.002142 0)
(-0.0281435 -0.0019986 0)
(-0.0267229 -0.00184192 0)
(-0.0418611 -0.00528016 0)
(-0.0404487 -0.00533975 0)
(-0.0390203 -0.00534195 0)
(-0.0375914 -0.00528809 0)
(-0.0361776 -0.00517961 0)
(-0.0347939 -0.0050192 0)
(-0.033454 -0.00481046 0)
(-0.0321707 -0.0045582 0)
(-0.0309553 -0.00426809 0)
(-0.0298168 -0.00394685 0)
(-0.0407672 -0.00769914 0)
(-0.0396381 -0.0078087 0)
(-0.0384891 -0.00783288 0)
(-0.0373334 -0.00777311 0)
(-0.0361841 -0.00763194 0)
(-0.0350539 -0.0074135 0)
(-0.0339546 -0.00712328 0)
(-0.0328971 -0.0067684 0)
(-0.0318912 -0.00635719 0)
(-0.0309451 -0.00589961 0)
(-0.039595 -0.00969598 0)
(-0.0386675 -0.00986058 0)
(-0.0377171 -0.0099152 0)
(-0.0367559 -0.00986124 0)
(-0.0357954 -0.00970192 0)
(-0.0348471 -0.00944226 0)
(-0.0339221 -0.00908922 0)
(-0.0330305 -0.0086517 0)
(-0.0321818 -0.00814046 0)
(-0.0313838 -0.00756829 0)
(-0.0384287 -0.0113489 0)
(-0.037649 -0.0115727 0)
(-0.0368439 -0.0116641 0)
(-0.0360244 -0.0116243 0)
(-0.0352017 -0.0114567 0)
(-0.0343869 -0.0111669 0)
(-0.033591 -0.0107628 0)
(-0.0328242 -0.0102546 0)
(-0.0320963 -0.0096552 0)
(-0.031416 -0.00897982 0)
(-0.0373085 -0.0127474 0)
(-0.0366347 -0.0130352 0)
(-0.0359325 -0.0131693 0)
(-0.0352126 -0.0131502 0)
(-0.0344862 -0.0129812 0)
(-0.0337647 -0.0126679 0)
(-0.0330595 -0.0122186 0)
(-0.0323816 -0.0116445 0)
(-0.0317421 -0.0109599 0)
(-0.0311508 -0.0101821 0)
(-0.0362664 -0.0139686 0)
(-0.0356638 -0.0143267 0)
(-0.0350288 -0.0145101 0)
(-0.0343721 -0.0145184 0)
(-0.0337054 -0.014354 0)
(-0.0330404 -0.0140218 0)
(-0.0323897 -0.0135302 0)
(-0.0317657 -0.0128905 0)
(-0.0311811 -0.0121177 0)
(-0.0306481 -0.0112308 0)
(-0.0353335 -0.0150745 0)
(-0.0347732 -0.015512 0)
(-0.0341751 -0.0157538 0)
(-0.0335498 -0.015798 0)
(-0.0329094 -0.0156456 0)
(-0.0322664 -0.0153002 0)
(-0.0316345 -0.014769 0)
(-0.0310282 -0.0140625 0)
(-0.0304624 -0.0131956 0)
(-0.0299525 -0.012188 0)
(-0.0345428 -0.016115 0)
(-0.0340025 -0.0166446 0)
(-0.0334167 -0.0169577 0)
(-0.0327961 -0.0170505 0)
(-0.0321526 -0.0169216 0)
(-0.0314996 -0.0165723 0)
(-0.0308518 -0.0160075 0)
(-0.0302257 -0.0152355 0)
(-0.0296392 -0.0142696 0)
(-0.0291114 -0.0131286 0)
(-0.03393 -0.0171263 0)
(-0.0333953 -0.0177648 0)
(-0.0328052 -0.0181671 0)
(-0.0321696 -0.0183268 0)
(-0.0315001 -0.0182393 0)
(-0.03081 -0.0179025 0)
(-0.030115 -0.0173174 0)
(-0.0294328 -0.0164885 0)
(-0.0287842 -0.015425 0)
(-0.0281923 -0.0141425 0)
(-0.0335328 -0.018126 0)
(-0.0329998 -0.0188946 0)
(-0.0323993 -0.0194095 0)
(-0.0317398 -0.0196612 0)
(-0.0310316 -0.0196413 0)
(-0.0302871 -0.0193433 0)
(-0.0295216 -0.0187627 0)
(-0.0287533 -0.017898 0)
(-0.0280045 -0.0167517 0)
(-0.0273014 -0.0153325 0)
(-0.0333881 -0.0191093 0)
(-0.0328655 -0.0200321 0)
(-0.0322621 -0.0206874 0)
(-0.0315843 -0.0210624 0)
(-0.0308401 -0.0211448 0)
(-0.0300398 -0.0209229 0)
(-0.0291967 -0.0203856 0)
(-0.0283275 -0.0195236 0)
(-0.0274537 -0.0183299 0)
(-0.0266024 -0.0168021 0)
(-0.0335269 -0.0200448 0)
(-0.0330372 -0.0211465 0)
(-0.0324537 -0.0219718 0)
(-0.0317803 -0.0225051 0)
(-0.0310221 -0.0227302 0)
(-0.0301861 -0.0226304 0)
(-0.0292822 -0.0221879 0)
(-0.0283237 -0.0213847 0)
(-0.0273283 -0.0202029 0)
(-0.0263199 -0.0186265 0)
(-0.0339675 -0.0208754 0)
(-0.0335446 -0.022178 0)
(-0.0330173 -0.0232004 0)
(-0.032387 -0.0239248 0)
(-0.0316557 -0.0243322 0)
(-0.0308272 -0.0244013 0)
(-0.0299074 -0.0241088 0)
(-0.0289048 -0.023429 0)
(-0.0278313 -0.0223336 0)
(-0.026704 -0.0207925 0)
(-0.0347084 -0.0215265 0)
(-0.0343919 -0.0230462 0)
(-0.0339638 -0.0242865 0)
(-0.0334233 -0.0252279 0)
(-0.0327706 -0.0258494 0)
(-0.0320069 -0.0261268 0)
(-0.0311346 -0.0260333 0)
(-0.0301576 -0.0255384 0)
(-0.0290818 -0.0246069 0)
(-0.0279156 -0.0231993 0)
(-0.0357277 -0.0219194 0)
(-0.0355544 -0.0236657 0)
(-0.0352651 -0.0251358 0)
(-0.0348584 -0.0263086 0)
(-0.0343339 -0.0271613 0)
(-0.0336918 -0.0276679 0)
(-0.0329332 -0.0277991 0)
(-0.0320599 -0.0275215 0)
(-0.0310747 -0.0267957 0)
(-0.0299815 -0.0255762 0)
(-0.0369856 -0.0219919 0)
(-0.0369788 -0.0239716 0)
(-0.0368522 -0.0256789 0)
(-0.036604 -0.0270916 0)
(-0.0362335 -0.0281851 0)
(-0.0357404 -0.0289329 0)
(-0.0351246 -0.0293054 0)
(-0.0343852 -0.0292696 0)
(-0.0335199 -0.0287884 0)
(-0.0325232 -0.0278193 0)
(-0.0384419 -0.0217108 0)
(-0.0386098 -0.0239315 0)
(-0.0386527 -0.0258839 0)
(-0.0385692 -0.0275435 0)
(-0.0383596 -0.0288844 0)
(-0.0380251 -0.0298791 0)
(-0.0375673 -0.0304989 0)
(-0.0369877 -0.0307133 0)
(-0.0362865 -0.0304902 0)
(-0.0354625 -0.0297961 0)
(-0.0400595 -0.021076 0)
(-0.0403926 -0.0235508 0)
(-0.0405907 -0.0257612 0)
(-0.040653 -0.0276792 0)
(-0.0405803 -0.0292759 0)
(-0.0403754 -0.0305217 0)
(-0.0400418 -0.0313869 0)
(-0.0395832 -0.0318418 0)
(-0.0390027 -0.0318561 0)
(-0.0383023 -0.0314002 0)
(-0.0418163 -0.0201169 0)
(-0.042294 -0.0228698 0)
(-0.0426201 -0.0253637 0)
(-0.0427936 -0.027565 0)
(-0.0428165 -0.0294403 0)
(-0.0426933 -0.0309571 0)
(-0.0424295 -0.0320842 0)
(-0.0420306 -0.0327921 0)
(-0.0415018 -0.0330525 0)
(-0.040847 -0.0328393 0)
(-0.043706 -0.0188737 0)
(-0.0443035 -0.0219446 0)
(-0.044723 -0.0247633 0)
(-0.044965 -0.0272876 0)
(-0.045034 -0.0294778 0)
(-0.0449376 -0.0312977 0)
(-0.0446843 -0.0327145 0)
(-0.0442825 -0.0336992 0)
(-0.0437395 -0.0342262 0)
(-0.043061 -0.0342732 0)
(-0.045739 -0.0173855 0)
(-0.0464293 -0.0208377 0)
(-0.0469026 -0.0240424 0)
(-0.0471643 -0.0269445 0)
(-0.0472256 -0.0294966 0)
(-0.0471002 -0.0316583 0)
(-0.0468017 -0.0333962 0)
(-0.0463431 -0.0346832 0)
(-0.0457348 -0.0354973 0)
(-0.0449848 -0.0358218 0)
(-0.0479381 -0.01569 0)
(-0.0486871 -0.0196208 0)
(-0.049163 -0.0232959 0)
(-0.0493862 -0.0266435 0)
(-0.0493807 -0.0296079 0)
(-0.0491709 -0.0321471 0)
(-0.0487787 -0.0342299 0)
(-0.0482225 -0.0358338 0)
(-0.0475169 -0.0369433 0)
(-0.0466726 -0.0375487 0)
(-0.0503225 -0.0138451 0)
(-0.0510722 -0.0183996 0)
(-0.0514759 -0.0226508 0)
(-0.0515857 -0.0265135 0)
(-0.0514478 -0.0299304 0)
(-0.0511011 -0.032865 0)
(-0.0505767 -0.0352948 0)
(-0.0498988 -0.0372074 0)
(-0.0490848 -0.0385974 0)
(-0.048147 -0.0394647 0)
(-0.0528771 -0.0119308 0)
(-0.0535041 -0.0173322 0)
(-0.0537185 -0.0222759 0)
(-0.0536259 -0.0267033 0)
(-0.0532944 -0.0305795 0)
(-0.0527744 -0.0338911 0)
(-0.0521027 -0.0366354 0)
(-0.0513053 -0.0388176 0)
(-0.0503991 -0.0404463 0)
(-0.0493951 -0.0415325 0)
(-0.0556271 -0.0102479 0)
(-0.0557823 -0.0167157 0)
(-0.0556241 -0.0224032 0)
(-0.0552496 -0.0273661 0)
(-0.054699 -0.0316365 0)
(-0.0540147 -0.0352488 0)
(-0.0532258 -0.038232 0)
(-0.0523531 -0.0406133 0)
(-0.051407 -0.0424162 0)
(-0.0503939 -0.0436625 0)
(-0.0576961 -0.00983151 0)
(-0.0572378 -0.0170425 0)
(-0.0567077 -0.0232369 0)
(-0.0560993 -0.0285413 0)
(-0.0554075 -0.0330472 0)
(-0.0546528 -0.0368323 0)
(-0.0538446 -0.0399529 0)
(-0.0529918 -0.0424515 0)
(-0.0520961 -0.0443615 0)
(-0.0511579 -0.0457104 0)
(-0.0582691 -0.0111407 0)
(-0.0574796 -0.0184125 0)
(-0.0567557 -0.0246524 0)
(-0.0560745 -0.0299948 0)
(-0.0554015 -0.0345432 0)
(-0.0547238 -0.0383759 0)
(-0.054029 -0.04155 0)
(-0.0533127 -0.0441074 0)
(-0.0525695 -0.0460807 0)
(-0.0517959 -0.047497 0)
(-0.0567278 -0.0128074 0)
(-0.056306 -0.0198031 0)
(-0.0558502 -0.0258947 0)
(-0.0554027 -0.0311696 0)
(-0.0549624 -0.0357022 0)
(-0.0545172 -0.0395494 0)
(-0.0540566 -0.0427572 0)
(-0.0535742 -0.0453608 0)
(-0.0530647 -0.0473886 0)
(-0.0525247 -0.0488646 0)
(-0.055927 -0.0138084 0)
(-0.0555348 -0.0206376 0)
(-0.0552254 -0.0266254 0)
(-0.0549695 -0.0318457 0)
(-0.0547539 -0.0363598 0)
(-0.0545545 -0.0402157 0)
(-0.0543537 -0.0434524 0)
(-0.0541371 -0.0461006 0)
(-0.0538949 -0.0481845 0)
(-0.0536207 -0.0497237 0)
(-0.0552827 -0.0148179 0)
(-0.0550592 -0.021278 0)
(-0.0549626 -0.027018 0)
(-0.0549629 -0.0320852 0)
(-0.0550249 -0.0365165 0)
(-0.055115 -0.0403429 0)
(-0.0552084 -0.0435896 0)
(-0.0552857 -0.0462769 0)
(-0.0553336 -0.0484201 0)
(-0.055343 -0.0500312 0)
(-0.0551678 -0.0153278 0)
(-0.0552218 -0.0213756 0)
(-0.0554247 -0.0268356 0)
(-0.0557366 -0.0317267 0)
(-0.0561127 -0.0360623 0)
(-0.0565164 -0.0398554 0)
(-0.0569195 -0.0431163 0)
(-0.0573004 -0.0458533 0)
(-0.0576434 -0.0480715 0)
(-0.0579377 -0.0497732 0)
(-0.0558522 -0.0150901 0)
(-0.0562966 -0.0207645 0)
(-0.0568756 -0.0259677 0)
(-0.0575451 -0.0306982 0)
(-0.0582625 -0.0349532 0)
(-0.0589941 -0.0387282 0)
(-0.0597133 -0.042021 0)
(-0.0603984 -0.0448285 0)
(-0.0610327 -0.047145 0)
(-0.0616045 -0.0489629 0)
(-0.0577862 -0.0139427 0)
(-0.0586371 -0.0193293 0)
(-0.0595956 -0.0243361 0)
(-0.0606204 -0.0289557 0)
(-0.0616738 -0.0331676 0)
(-0.0627271 -0.0369553 0)
(-0.063755 -0.0403088 0)
(-0.0647354 -0.0432153 0)
(-0.0656509 -0.0456595 0)
(-0.0664889 -0.0476241 0)
(-0.0612246 -0.0119929 0)
(-0.0624239 -0.0171509 0)
(-0.0637156 -0.022009 0)
(-0.0650606 -0.0265509 0)
(-0.0664273 -0.0307435 0)
(-0.0677876 -0.0345676 0)
(-0.0691133 -0.038006 0)
(-0.0703806 -0.0410376 0)
(-0.0715703 -0.0436383 0)
(-0.0726675 -0.045781 0)
(-0.0659965 -0.00941333 0)
(-0.0675092 -0.0143526 0)
(-0.0691115 -0.0190678 0)
(-0.0707689 -0.0235319 0)
(-0.0724489 -0.0277109 0)
(-0.0741183 -0.0315833 0)
(-0.0757464 -0.035123 0)
(-0.0773072 -0.0383015 0)
(-0.0787784 -0.0410857 0)
(-0.0801421 -0.0434385 0)
(-0.0717376 -0.00619883 0)
(-0.0735967 -0.0109202 0)
(-0.0755429 -0.0154879 0)
(-0.0775419 -0.0198724 0)
(-0.0795608 -0.0240441 0)
(-0.0815643 -0.0279733 0)
(-0.0835215 -0.0316283 0)
(-0.0854036 -0.0349736 0)
(-0.0871851 -0.0379683 0)
(-0.088844 -0.0405653 0)
(-0.0781079 -0.0022156 0)
(-0.0803751 -0.00673702 0)
(-0.0827191 -0.0111725 0)
(-0.0851089 -0.015492 0)
(-0.0875116 -0.0196652 0)
(-0.0898952 -0.0236607 0)
(-0.0922285 -0.0274433 0)
(-0.0944816 -0.0309733 0)
(-0.096626 -0.034204 0)
(-0.0986352 -0.0370802 0)
(-0.0848416 0.00265571 0)
(-0.0875615 -0.00169595 0)
(-0.0903483 -0.00601929 0)
(-0.0931728 -0.0102872 0)
(-0.0960068 -0.0144706 0)
(-0.0988212 -0.018538 0)
(-0.101587 -0.022454 0)
(-0.104274 -0.0261774 0)
(-0.106853 -0.0296596 0)
(-0.109295 -0.0328417 0)
(-0.0916598 0.00848399 0)
(-0.0948579 0.00427853 0)
(-0.0981124 5.072e-05 0)
(-0.1014 -0.00417364 0)
(-0.104698 -0.00836686 0)
(-0.107983 -0.0124989 0)
(-0.11123 -0.0165358 0)
(-0.114413 -0.0204384 0)
(-0.117507 -0.0241602 0)
(-0.120482 -0.0276444 0)
(-0.0982809 0.015292 0)
(-0.101948 0.0112101 0)
(-0.105663 0.0070665 0)
(-0.109411 0.00288647 0)
(-0.113174 -0.00130292 0)
(-0.116937 -0.00547253 0)
(-0.120683 -0.00959001 0)
(-0.124396 -0.0136187 0)
(-0.12806 -0.0175153 0)
(-0.131654 -0.0212275 0)
(-0.104403 0.0230219 0)
(-0.108489 0.0190428 0)
(-0.112617 0.0149764 0)
(-0.116775 0.0108481 0)
(-0.120955 0.00668597 0)
(-0.12515 0.00252032 0)
(-0.129352 -0.00161516 0)
(-0.133556 -0.00568331 0)
(-0.137759 -0.0096407 0)
(-0.141957 -0.0134342 0)
(-0.109695 0.0315428 0)
(-0.114113 0.0276409 0)
(-0.118564 0.0236395 0)
(-0.123039 0.0195644 0)
(-0.127536 0.0154458 0)
(-0.132052 0.0113187 0)
(-0.13659 0.00722142 0)
(-0.141154 0.00319378 0)
(-0.145747 -0.000717132 0)
(-0.150373 -0.00444747 0)
(-0.11384 0.0406142 0)
(-0.118467 0.0367715 0)
(-0.123117 0.0328216 0)
(-0.127783 0.0287886 0)
(-0.132456 0.0247066 0)
(-0.137133 0.0206217 0)
(-0.141824 0.0165842 0)
(-0.146543 0.0126318 0)
(-0.151289 0.0087999 0)
(-0.156048 0.00515762 0)
(-0.116412 0.0499933 0)
(-0.121155 0.0461948 0)
(-0.125901 0.0422749 0)
(-0.13064 0.0382514 0)
(-0.135347 0.0341491 0)
(-0.14 0.0300377 0)
(-0.144625 0.0260247 0)
(-0.149276 0.0221361 0)
(-0.153969 0.0183392 0)
(-0.158627 0.0146325 0)
(-0.117137 0.0595716 0)
(-0.121908 0.0557546 0)
(-0.126657 0.0518108 0)
(-0.131391 0.0477189 0)
(-0.136061 0.0434527 0)
(-0.140547 0.0390783 0)
(-0.144834 0.0350303 0)
(-0.149114 0.031309 0)
(-0.153508 0.0275481 0)
(-0.157888 0.0236174 0)
(-0.116227 0.0690768 0)
(-0.120848 0.0651379 0)
(-0.125394 0.0611953 0)
(-0.130047 0.0571948 0)
(-0.134737 0.0525893 0)
(-0.139072 0.0476143 0)
(-0.143046 0.0433665 0)
(-0.146866 0.0395112 0)
(-0.150466 0.0355545 0)
(-0.153997 0.0316978 0)
(-0.114187 0.078284 0)
(-0.118536 0.074128 0)
(-0.122781 0.0702598 0)
(-0.127013 0.0662686 0)
(-0.131053 0.0612693 0)
(-0.134863 0.0556247 0)
(-0.138299 0.0506793 0)
(-0.141352 0.0462062 0)
(-0.144215 0.0418662 0)
(-0.14697 0.038019 0)
(-0.110899 0.0872817 0)
(-0.114922 0.0824735 0)
(-0.118625 0.0782092 0)
(-0.121937 0.0734891 0)
(-0.124718 0.0679855 0)
(-0.127346 0.062087 0)
(-0.129777 0.0563725 0)
(-0.131945 0.0513226 0)
(-0.134005 0.0466981 0)
(-0.135934 0.0425639 0)
(-0.105371 0.0957367 0)
(-0.108844 0.0896597 0)
(-0.111723 0.0843846 0)
(-0.11415 0.0787878 0)
(-0.116034 0.0721354 0)
(-0.11744 0.0659635 0)
(-0.118701 0.0599881 0)
(-0.119857 0.0546266 0)
(-0.120926 0.0498077 0)
(-0.12194 0.0455316 0)
(-0.0978624 0.1031 0)
(-0.100678 0.0955078 0)
(-0.102658 0.0886237 0)
(-0.103799 0.0819224 0)
(-0.104528 0.0744394 0)
(-0.104982 0.0675486 0)
(-0.105122 0.061301 0)
(-0.10513 0.0557278 0)
(-0.105104 0.0508229 0)
(-0.105085 0.0465587 0)
(-0.0896201 0.10775 0)
(-0.0906769 0.0990135 0)
(-0.0911385 0.0904895 0)
(-0.0909639 0.0823895 0)
(-0.0903473 0.0744707 0)
(-0.0895238 0.0670134 0)
(-0.0885981 0.0604295 0)
(-0.0875778 0.0546993 0)
(-0.0865242 0.049769 0)
(-0.0854966 0.045582 0)
(-0.0796738 0.10877 0)
(-0.0793395 0.0989908 0)
(-0.0783196 0.0891233 0)
(-0.0767075 0.0800321 0)
(-0.0747354 0.0715992 0)
(-0.0725846 0.0639541 0)
(-0.0703838 0.0572359 0)
(-0.068182 0.051463 0)
(-0.0660203 0.046597 0)
(-0.0639394 0.0425765 0)
(-0.0649456 0.107426 0)
(-0.063773 0.0965412 0)
(-0.0619021 0.0854078 0)
(-0.0594523 0.0753316 0)
(-0.056574 0.0663528 0)
(-0.0534854 0.058492 0)
(-0.0503423 0.0517335 0)
(-0.0472109 0.0460313 0)
(-0.0441284 0.0413217 0)
(-0.0411212 0.037535 0)
(-0.0481075 0.105526 0)
(-0.046673 0.0931015 0)
(-0.0441211 0.0803674 0)
(-0.0407223 0.0690815 0)
(-0.0370229 0.0595177 0)
(-0.0332691 0.0514523 0)
(-0.0295321 0.0446712 0)
(-0.0258162 0.0390279 0)
(-0.0221113 0.0344171 0)
(-0.0184082 0.0307631 0)
(-0.0311497 0.104062 0)
(-0.0288132 0.0883354 0)
(-0.0252572 0.0733073 0)
(-0.0211937 0.061121 0)
(-0.0171001 0.0514603 0)
(-0.013253 0.0435056 0)
(-0.00952381 0.0368173 0)
(-0.00574656 0.0311861 0)
(-0.0018449 0.0265117 0)
(0.00221568 0.0227488 0)
(-0.0143627 0.103148 0)
(-0.00717662 0.0786475 0)
(-0.00383052 0.0644252 0)
(-0.00122244 0.0537335 0)
(0.00146973 0.0448057 0)
(0.00425979 0.0369048 0)
(0.0072249 0.0299283 0)
(0.010545 0.0238329 0)
(0.0142714 0.018611 0)
(0.0184011 0.0142782 0)
(-0.00145636 0.0822337 0)
(0.00252185 0.0677796 0)
(0.00537828 0.0574624 0)
(0.00770354 0.0486526 0)
(0.0101346 0.0400598 0)
(0.0128332 0.0316924 0)
(0.01586 0.0239042 0)
(0.0193135 0.0168628 0)
(0.0232471 0.0106631 0)
(0.0276717 0.00537885 0)
(-0.00129608 0.0764508 0)
(0.00190696 0.0648436 0)
(0.00433272 0.0541245 0)
(0.00681903 0.0442608 0)
(0.00963001 0.0347613 0)
(0.0127778 0.0256366 0)
(0.0162403 0.017031 0)
(0.0200805 0.00908728 0)
(0.0243606 0.00193242 0)
(0.0291122 -0.00431363 0)
(-0.0100749 0.0691653 0)
(-0.00617053 0.0584769 0)
(-0.00296608 0.0480388 0)
(5.08838e-05 0.0379908 0)
(0.003131 0.0281974 0)
(0.00640767 0.0186257 0)
(0.00998709 0.00939784 0)
(0.0139613 0.000681241 0)
(0.0183991 -0.00734932 0)
(0.0233492 -0.0145149 0)
(-0.0191769 0.0599108 0)
(-0.0158724 0.0508932 0)
(-0.0130861 0.0415588 0)
(-0.0105408 0.0319251 0)
(-0.00796426 0.0219998 0)
(-0.0051141 0.0119128 0)
(-0.00181142 0.00193071 0)
(0.00205122 -0.00771465 0)
(0.00655074 -0.0168104 0)
(0.0117115 -0.0250611 0)
(-0.0295666 0.0537146 0)
(-0.027585 0.0458012 0)
(-0.0260038 0.0371562 0)
(-0.0245877 0.0277371 0)
(-0.0230318 0.017406 0)
(-0.0209501 0.0063478 0)
(-0.0180437 -0.00487954 0)
(-0.014203 -0.0159626 0)
(-0.00936427 -0.0266561 0)
(-0.00358083 -0.0365105 0)
(-0.0415013 0.0509261 0)
(-0.0412774 0.043833 0)
(-0.041341 0.0357326 0)
(-0.0414517 0.0261943 0)
(-0.0410757 0.0147297 0)
(-0.0396962 0.00188672 0)
(-0.0369337 -0.0115017 0)
(-0.0324754 -0.0251266 0)
(-0.0262699 -0.0385237 0)
(-0.0182505 -0.0505898 0)
(-0.054038 0.0519084 0)
(-0.0557494 0.0455555 0)
(-0.0576753 0.0375463 0)
(-0.0593862 0.0272414 0)
(-0.0601966 0.0141266 0)
(-0.0594214 -0.00201344 0)
(-0.056173 -0.0200199 0)
(-0.0494935 -0.038585 0)
(-0.0379379 -0.0555704 0)
(-0.0207444 -0.070537 0)
(-0.0657513 0.0568407 0)
(-0.0693435 0.0511679 0)
(-0.0731532 0.0430069 0)
(-0.076646 0.0311977 0)
(-0.0792594 0.014832 0)
(-0.079616 -0.00698754 0)
(-0.0744521 -0.0321413 0)
(-0.0598826 -0.0583195 0)
(-0.0327387 -0.0890431 0)
(0.0107736 -0.130077 0)
(-0.0748081 0.0652449 0)
(-0.0798538 0.0603366 0)
(-0.0854579 0.0521196 0)
(-0.0916325 0.0384326 0)
(-0.0972902 0.0175687 0)
(-0.0967 -0.0104992 0)
(-0.0853274 -0.0485954 0)
(-0.0463603 -0.115576 0)
(0.0320174 -0.210073 0)
(0.124882 -0.305063 0)
(-0.0798222 0.0760945 0)
(-0.0858024 0.0721507 0)
(-0.0929633 0.0642735 0)
(-0.101986 0.050447 0)
(-0.11015 0.0298998 0)
(-0.105084 -0.0142648 0)
(-0.0529998 -0.141893 0)
(0.0573559 -0.32499 0)
(0.153327 -0.424094 0)
(0.225284 -0.477986 0)
(-0.079513 0.0877388 0)
(-0.0855407 0.085383 0)
(-0.0923571 0.0800674 0)
(-0.101362 0.0717821 0)
(-0.117675 0.0493087 0)
(-0.0460956 -0.141929 0)
(0.0810062 -0.38996 0)
(0.151112 -0.496263 0)
(0.207228 -0.548362 0)
(0.260207 -0.580139 0)
(-0.075079 0.0979132 0)
(-0.0802446 0.0971927 0)
(-0.0856938 0.0943376 0)
(-0.0953507 0.0788354 0)
(-0.0884157 -0.054914 0)
(0.0873111 -0.40273 0)
(0.151643 -0.541138 0)
(0.197834 -0.60388 0)
(0.247094 -0.643145 0)
(0.296903 -0.67356 0)
(-0.0682804 0.106007 0)
(-0.0729222 0.108631 0)
(-0.0789769 0.107436 0)
(-0.0577245 0.00526365 0)
(0.00841012 -0.229054 0)
(0.147961 -0.558399 0)
(0.201849 -0.660783 0)
(0.242179 -0.708274 0)
(0.290069 -0.741573 0)
(0.338314 -0.768558 0)
(-0.0627255 0.114877 0)
(-0.0688649 0.124204 0)
(-0.056432 0.0606644 0)
(-0.00424958 -0.13035 0)
(0.105061 -0.445219 0)
(0.206788 -0.699393 0)
(0.254396 -0.772231 0)
(0.290967 -0.805613 0)
(0.334733 -0.832282 0)
(0.378224 -0.856435 0)
(-0.0625406 0.127499 0)
(-0.0539512 0.0985843 0)
(-0.00829192 -0.046394 0)
(0.0715817 -0.306066 0)
(0.211499 -0.672574 0)
(0.266372 -0.808586 0)
(0.299897 -0.857078 0)
(0.332978 -0.884996 0)
(0.370634 -0.910767 0)
(0.408447 -0.935401 0)
(-0.053784 0.116838 0)
(-0.0159785 0.0157527 0)
(0.0524942 -0.203459 0)
(0.177813 -0.538588 0)
(0.26893 -0.814408 0)
(0.303725 -0.887468 0)
(0.328247 -0.92092 0)
(0.358057 -0.949893 0)
(0.390773 -0.979129 0)
(0.424685 -1.00647 0)
(-0.0383903 0.0265873 0)
(0.0301863 -0.125821 0)
(0.12683 -0.410956 0)
(0.253387 -0.788573 0)
(0.291354 -0.890859 0)
(0.313814 -0.936523 0)
(0.337584 -0.97237 0)
(0.365449 -1.00799 0)
(0.395901 -1.04235 0)
(0.427707 -1.0723 0)
(0.0102467 -0.0650834 0)
(0.0715092 -0.23125 0)
(0.21626 -0.70336 0)
(0.263071 -0.86774 0)
(0.288493 -0.935237 0)
(0.308893 -0.980519 0)
(0.33329 -1.02354 0)
(0.360902 -1.06534 0)
(0.390408 -1.10332 0)
(0.420287 -1.13369 0)
(0.0200267 -0.155871 0)
(0.125676 -0.508857 0)
(0.219017 -0.821154 0)
(0.253609 -0.92313 0)
(0.273298 -0.97744 0)
(0.295198 -1.02697 0)
(0.320494 -1.0759 0)
(0.348042 -1.12199 0)
(0.376294 -1.16123 0)
(0.403347 -1.18891 0)
(0.0267853 -0.264595 0)
(0.1657 -0.781307 0)
(0.211686 -0.905023 0)
(0.232068 -0.964583 0)
(0.252244 -1.01956 0)
(0.275618 -1.075 0)
(0.301501 -1.12878 0)
(0.328355 -1.17678 0)
(0.354201 -1.21386 0)
(0.376874 -1.23478 0)
(0.0828324 -0.62829 0)
(0.150373 -0.851813 0)
(0.18151 -0.941183 0)
(0.202194 -1.00471 0)
(0.225693 -1.06611 0)
(0.251302 -1.12612 0)
(0.277554 -1.18165 0)
(0.302778 -1.22765 0)
(0.325044 -1.25834 0)
(0.342258 -1.2685 0)
(0.0880387 -0.784848 0)
(0.129592 -0.91898 0)
(0.151144 -0.9888 0)
(0.175414 -1.05396 0)
(0.201055 -1.11786 0)
(0.226745 -1.1785 0)
(0.25128 -1.23174 0)
(0.273084 -1.27174 0)
(0.290662 -1.29265 0)
(0.302291 -1.29005 0)
(0.0625096 -0.846958 0)
(0.0985465 -0.964972 0)
(0.124895 -1.0397 0)
(0.152601 -1.10697 0)
(0.178536 -1.16997 0)
(0.202294 -1.22755 0)
(0.223297 -1.27528 0)
(0.240398 -1.30695 0)
(0.252746 -1.31743 0)
(0.258531 -1.30353 0)
(0.0661777 -0.922639 0)
(0.0911473 -1.02513 0)
(0.116112 -1.09368 0)
(0.13946 -1.15603 0)
(0.159709 -1.21443 0)
(0.177675 -1.26698 0)
(0.192873 -1.30811 0)
(0.204276 -1.33131 0)
(0.211474 -1.33384 0)
(0.213085 -1.31541 0)
(0.0615435 -1.00035 0)
(0.0785923 -1.07557 0)
(0.100943 -1.13658 0)
(0.12078 -1.19414 0)
(0.136546 -1.24764 0)
(0.149448 -1.29455 0)
(0.158989 -1.32806 0)
(0.163924 -1.34195 0)
(0.163221 -1.33702 0)
(0.157009 -1.31623 0)
(0.049469 -1.03758 0)
(0.0664063 -1.11706 0)
(0.0859378 -1.1734 0)
(0.102337 -1.22463 0)
(0.114327 -1.27183 0)
(0.123196 -1.31221 0)
(0.128485 -1.33713 0)
(0.128979 -1.34094 0)
(0.123631 -1.32768 0)
(0.115747 -1.30129 0)
(0.0466021 -1.07914 0)
(0.0600971 -1.15172 0)
(0.0743492 -1.2012 0)
(0.0860206 -1.24651 0)
(0.0944958 -1.28832 0)
(0.100478 -1.32296 0)
(0.103268 -1.33994 0)
(0.101791 -1.33484 0)
(0.0954605 -1.31437 0)
(0.0889384 -1.28158 0)
(0.0293612 -1.11982 0)
(0.0431881 -1.18057 0)
(0.057208 -1.22504 0)
(0.0686807 -1.26549 0)
(0.0766073 -1.30202 0)
(0.0816534 -1.331 0)
(0.0836984 -1.34085 0)
(0.0822708 -1.32832 0)
(0.0771587 -1.3016 0)
(0.0732325 -1.26125 0)
(0.0291577 -1.15005 0)
(0.0387168 -1.20766 0)
(0.049653 -1.24792 0)
(0.0588499 -1.28293 0)
(0.0650051 -1.31376 0)
(0.0685757 -1.33755 0)
(0.0700818 -1.34213 0)
(0.0695453 -1.32425 0)
(0.0665654 -1.29258 0)
(0.0651922 -1.2447 0)
(0.0362927 -1.16795 0)
(0.0413151 -1.22596 0)
(0.0479685 -1.2632 0)
(0.0534774 -1.2943 0)
(0.0570723 -1.32113 0)
(0.0587781 -1.34169 0)
(0.0597237 -1.34403 0)
(0.0603315 -1.32363 0)
(0.059599 -1.28963 0)
(0.0607356 -1.23657 0)
(0.0388401 -1.18028 0)
(0.041533 -1.2357 0)
(0.0448935 -1.27102 0)
(0.0475745 -1.30003 0)
(0.0492894 -1.32447 0)
(0.0493117 -1.34319 0)
(0.049404 -1.34569 0)
(0.0500574 -1.32457 0)
(0.0493163 -1.2901 0)
(0.0506277 -1.23365 0)
(0.0347115 -1.18537 0)
(0.0370768 -1.24 0)
(0.0386322 -1.2747 0)
(0.0398321 -1.30255 0)
(0.0405668 -1.32513 0)
(0.0393105 -1.34224 0)
(0.0387146 -1.34636 0)
(0.0391906 -1.3252 0)
(0.0378222 -1.29107 0)
(0.0394095 -1.2322 0)
(0.0265855 -1.18689 0)
(0.0296594 -1.24246 0)
(0.0305992 -1.27657 0)
(0.0309853 -1.30324 0)
(0.031044 -1.32374 0)
(0.0285641 -1.339 0)
(0.0271896 -1.3457 0)
(0.0270454 -1.32469 0)
(0.0244996 -1.29146 0)
(0.0258228 -1.2335 0)
(0.0162218 -1.19328 0)
(0.0206177 -1.24539 0)
(0.0219216 -1.27739 0)
(0.0217529 -1.30247 0)
(0.0211324 -1.32055 0)
(0.017448 -1.33373 0)
(0.0153159 -1.34361 0)
(0.0143059 -1.32255 0)
(0.0103161 -1.28939 0)
(0.0100742 -1.23369 0)
(0.0107859 -1.19889 0)
(0.0136822 -1.24649 0)
(0.013919 -1.27669 0)
(0.0124393 -1.30047 0)
(0.010998 -1.31594 0)
(0.00625081 -1.32692 0)
(0.00375399 -1.34011 0)
(0.00225682 -1.31956 0)
(-0.00221736 -1.28527 0)
(-0.00354023 -1.23291 0)
(-0.00302181 -1.21353 0)
(-0.000262057 -1.25109 0)
(0.00267183 -1.27715 0)
(0.00237605 -1.29855 0)
(0.00121748 -1.31043 0)
(-0.00432537 -1.31861 0)
(-0.00720688 -1.33421 0)
(-0.0102828 -1.31555 0)
(-0.0146471 -1.27749 0)
(-0.0178761 -1.2351 0)
(-0.00142139 -1.23444 0)
(-0.00323079 -1.25766 0)
(-0.00215758 -1.27763 0)
(-0.00312964 -1.29601 0)
(-0.0048983 -1.30371 0)
(-0.0118312 -1.30872 0)
(-0.0152819 -1.32537 0)
(-0.0209423 -1.31015 0)
(-0.0258567 -1.26091 0)
(-0.0351593 -1.22521 0)
(0.00336694 -1.24392 0)
(-0.000662251 -1.25667 0)
(-0.00295783 -1.27396 0)
(-0.00505002 -1.2911 0)
(-0.00757368 -1.29526 0)
(-0.0157342 -1.29775 0)
(-0.0181026 -1.31479 0)
(-0.0245271 -1.30754 0)
(-0.0253875 -1.2427 0)
(-0.0328264 -1.19925 0)
(0.00676502 -1.23862 0)
(0.00217213 -1.24842 0)
(-0.00236231 -1.26744 0)
(-0.00512581 -1.28455 0)
(-0.00831726 -1.28532 0)
(-0.0178895 -1.28607 0)
(-0.0190186 -1.30255 0)
(-0.0289918 -1.30782 0)
(-0.0266207 -1.23022 0)
(-0.0322391 -1.16987 0)
(0.00603096 -1.22348 0)
(0.00190445 -1.23734 0)
(-0.00172272 -1.26157 0)
(-0.00432917 -1.27765 0)
(-0.00762236 -1.27426 0)
(-0.0185505 -1.27378 0)
(-0.0177993 -1.28842 0)
(-0.0326689 -1.30766 0)
(-0.0251261 -1.22309 0)
(-0.0283879 -1.12944 0)
(0.0022875 -1.20408 0)
(-0.000448023 -1.22775 0)
(0.00063424 -1.25935 0)
(-0.00282422 -1.26991 0)
(-0.00547397 -1.26201 0)
(-0.018073 -1.26088 0)
(-0.0155592 -1.27298 0)
(-0.0363408 -1.30548 0)
(-0.0203776 -1.22668 0)
(-0.0228106 -1.08007 0)
(-0.00312632 -1.17107 0)
(-0.00561151 -1.22413 0)
(0.00685184 -1.26205 0)
(-0.0026904 -1.25814 0)
(-0.00257575 -1.24873 0)
(-0.0166666 -1.24753 0)
(-0.0129366 -1.25662 0)
(-0.0394573 -1.29916 0)
(-0.0110969 -1.24421 0)
(-0.0195533 -1.01824 0)
(-0.000165666 -1.0992 0)
(-0.017765 -1.2516 0)
(0.0160431 -1.26912 0)
(-0.00789668 -1.24184 0)
(-0.00122822 -1.23636 0)
(-0.0143462 -1.23501 0)
(-0.00961604 -1.24095 0)
(-0.039234 -1.28903 0)
(0.00327135 -1.28026 0)
(-0.0265189 -0.944031 0)
(-0.0253441 -0.00166343 0)
(-0.0240416 -0.00146141 0)
(-0.0229025 -0.00125451 0)
(-0.0219257 -0.00105134 0)
(-0.0211045 -0.000858751 0)
(-0.0204275 -0.000682578 0)
(-0.0198785 -0.000528521 0)
(-0.019437 -0.000401727 0)
(-0.0190786 -0.000306155 0)
(-0.0187762 -0.000245403 0)
(-0.0185004 -0.000221558 0)
(-0.0182205 -0.000236088 0)
(-0.0179052 -0.000288771 0)
(-0.017524 -0.000379105 0)
(-0.0170473 -0.000505347 0)
(-0.0164473 -0.000665326 0)
(-0.0156986 -0.000856034 0)
(-0.0147788 -0.00107372 0)
(-0.013669 -0.00131408 0)
(-0.0123547 -0.00157204 0)
(-0.010826 -0.00184167 0)
(-0.00907873 -0.00211574 0)
(-0.00711563 -0.00238568 0)
(-0.00494729 -0.00264093 0)
(-0.00259393 -0.0028683 0)
(-8.71055e-05 -0.00305166 0)
(0.00252764 -0.00317171 0)
(0.00518947 -0.00320582 0)
(0.0078187 -0.00312798 0)
(0.0103142 -0.00290758 0)
(0.0125513 -0.00250828 0)
(0.0143806 -0.00188872 0)
(0.0156356 -0.000999086 0)
(0.0161691 0.000186772 0)