/*--------------------------------*- C++ -*----------------------------------*\
  =========                 |
  \\      /  F ield         | OpenFOAM: The Open Source CFD Toolbox
   \\    /   O peration     | Website:  https://openfoam.org
    \\  /    A nd           | Version:  8
     \\/     M anipulation  |
\*---------------------------------------------------------------------------*/
FoamFile
{
    version     2.0;
    format      ascii;
    class       surfaceScalarField;
    location    "4.4";
    object      alphaPhi0.water;
}
// * * * * * * * * * * * * * * * * * * * * * * * * * * * * * * * * * * * * * //

dimensions      [0 3 -1 0 0 0 0];

internalField   nonuniform List<scalar> 
18095
(
1.97628e-08
-1.72007e-07
1.52244e-07
2.31649e-08
-1.97805e-07
1.94403e-07
2.01258e-08
-2.06013e-07
2.09052e-07
1.13298e-08
-2.10793e-07
2.19589e-07
2.39068e-10
-2.1341e-07
2.24501e-07
-1.0822e-08
-2.13409e-07
2.2447e-07
-1.98065e-08
-2.10682e-07
2.19666e-07
-2.314e-08
-2.05938e-07
2.09272e-07
-1.97705e-08
-1.97878e-07
1.94508e-07
-1.72065e-07
1.52294e-07
1.55392e-08
-1.87546e-07
1.59716e-08
-1.98237e-07
1.19773e-08
-2.02019e-07
6.31457e-09
-2.0513e-07
-2.58039e-10
-2.06837e-07
-6.54789e-09
-2.07119e-07
-1.21249e-08
-2.05105e-07
-1.59515e-08
-2.02112e-07
-1.55354e-08
-1.98294e-07
-1.876e-07
6.83146e-09
-1.94378e-07
8.33275e-09
-1.99739e-07
7.26223e-09
-2.00949e-07
4.44407e-09
-2.02312e-07
4.19541e-10
-2.02813e-07
-3.87982e-09
-2.0282e-07
-7.25397e-09
-2.01731e-07
-8.33877e-09
-2.01027e-07
-6.81541e-09
-1.99817e-07
-1.94416e-07
4.54157e-09
-1.98919e-07
4.72389e-09
-1.99921e-07
3.6362e-09
-1.99861e-07
1.65066e-09
-2.00326e-07
-4.15767e-10
-2.00747e-07
-2.3805e-09
-2.00855e-07
-3.74178e-09
-2.00369e-07
-4.6661e-09
-2.00103e-07
-4.5119e-09
-1.99972e-07
-1.98928e-07
1.08072e-09
1.15972e-09
1.29875e-09
9.72516e-10
2.26012e-10
-6.29103e-10
-9.98357e-10
-1.10092e-09
-1.07243e-09
-2.7463e-08
-1.96547e-07
2.2401e-07
-2.97224e-08
-1.99111e-07
2.0137e-07
-2.44693e-08
-2.01585e-07
1.96332e-07
-1.31479e-08
-2.01902e-07
1.9058e-07
9.55806e-10
-2.02155e-07
1.88051e-07
1.48162e-08
-2.0183e-07
1.8797e-07
2.55793e-08
-2.01001e-07
1.90238e-07
3.00944e-08
-2.00594e-07
1.96079e-07
2.75164e-08
-1.98808e-07
2.01386e-07
-1.96467e-07
2.23983e-07
-9.65401e-09
-1.86893e-07
-1.53787e-08
-1.93386e-07
-1.43356e-08
-2.02628e-07
-8.23659e-09
-2.08001e-07
-2.15772e-09
-2.08234e-07
4.28863e-09
-2.08276e-07
1.21168e-08
-2.08829e-07
1.49505e-08
-2.03428e-07
9.63588e-09
-1.93493e-07
-1.86831e-07
-1.04517e-08
-1.76441e-07
-8.3713e-09
-1.95467e-07
-5.98796e-09
-2.05011e-07
-3.84374e-09
-2.10145e-07
7.25078e-10
-2.12803e-07
5.48434e-09
-2.13036e-07
7.10724e-09
-2.10452e-07
8.60056e-09
-2.04921e-07
1.04717e-08
-1.95365e-07
-1.76359e-07
-6.53157e-09
-1.69909e-07
-8.57709e-09
-1.93421e-07
-8.28211e-09
-2.05306e-07
-3.14368e-09
-2.15283e-07
6.77701e-10
-2.16624e-07
3.90066e-09
-2.16259e-07
7.9277e-09
-2.14479e-07
8.23803e-09
-2.05232e-07
6.39847e-09
-1.93525e-07
-1.69961e-07
-1.76652e-08
-1.66836e-08
-1.29374e-08
-8.63213e-09
-7.55632e-10
7.45592e-09
1.26431e-08
1.66832e-08
1.76666e-08
3.49801e-08
-1.5685e-07
1.2187e-07
3.83013e-08
-1.98156e-07
1.94834e-07
2.91022e-08
-2.099e-07
2.19099e-07
1.3247e-08
-2.14764e-07
2.30619e-07
-3.75883e-09
-2.17393e-07
2.34399e-07
-1.83448e-08
-2.17232e-07
2.31818e-07
-2.8774e-08
-2.1636e-07
2.2679e-07
-3.55591e-08
-2.11135e-07
2.1792e-07
-2.87059e-08
-1.9947e-07
1.92617e-07
-1.58739e-07
1.30034e-07
1.7292e-08
-1.74142e-07
2.04298e-08
-2.01293e-07
1.76973e-08
-2.07167e-07
1.17935e-08
-2.0886e-07
3.0368e-09
-2.08637e-07
-6.0848e-09
-2.08111e-07
-1.4048e-08
-2.08397e-07
-1.80729e-08
-2.0711e-07
-1.58434e-08
-2.017e-07
-1.74583e-07
9.49909e-09
-1.83641e-07
9.27782e-09
-2.01072e-07
7.69407e-09
-2.05584e-07
2.60091e-09
-2.03767e-07
-1.50266e-09
-2.04533e-07
-4.83382e-09
-2.04779e-07
-7.9892e-09
-2.05242e-07
-9.14905e-09
-2.0595e-07
-9.20685e-09
-2.01642e-07
-1.8379e-07
7.66257e-09
-1.91304e-07
6.05543e-09
-1.99465e-07
7.13403e-09
-2.06662e-07
3.46561e-09
-2.00098e-07
2.08622e-09
-2.03154e-07
3.27526e-10
-2.03021e-07
-5.80189e-09
-1.99112e-07
-5.58977e-09
-2.06162e-07
-7.64922e-09
-1.99583e-07
-1.91439e-07
3.2706e-08
3.46116e-08
2.42812e-08
1.47633e-08
-3.39006e-10
-1.53902e-08
-2.42648e-08
-3.43478e-08
-3.25444e-08
3.76478e-07
5.97308e-08
-4.54813e-07
2.74764e-07
8.66682e-08
2.11124e-07
7.69889e-08
1.5503e-07
5.61732e-08
1.06659e-07
4.71336e-08
6.92281e-08
3.65496e-08
4.27389e-08
2.64845e-08
2.32513e-08
1.94877e-08
7.23854e-09
1.59268e-08
2.44781e-08
-1.77306e-08
2.61265e-07
1.03351e-07
-3.59845e-07
2.30193e-07
1.16792e-07
2.13059e-07
1.06091e-07
1.93505e-07
8.4363e-08
1.71055e-07
6.95525e-08
1.44039e-07
6.35649e-08
1.04821e-07
6.56948e-08
6.2153e-08
6.2151e-08
2.47921e-08
5.32878e-08
6.23698e-08
-1.28497e-08
1.75737e-07
1.09548e-07
-1.82452e-07
1.75837e-07
1.1601e-07
2.06841e-07
1.05985e-07
2.06278e-07
9.56361e-08
1.88209e-07
8.76197e-08
1.63398e-07
8.83746e-08
1.29782e-07
9.93103e-08
9.05638e-08
1.01362e-07
5.37053e-08
9.01416e-08
1.01634e-07
1.4113e-08
1.44907e-07
9.93791e-08
-1.35202e-07
1.89455e-07
1.12257e-07
2.11222e-07
1.09489e-07
2.03796e-07
1.03092e-07
1.89696e-07
1.0172e-07
1.73092e-07
1.04978e-07
1.51279e-07
1.18925e-07
1.17607e-07
1.34686e-07
7.47928e-08
1.32956e-07
1.40042e-07
3.67103e-08
1.53923e-07
9.88694e-08
-1.28381e-07
1.75998e-07
1.01038e-07
1.83914e-07
1.01586e-07
1.83936e-07
1.03072e-07
1.76917e-07
1.08738e-07
1.62205e-07
1.19691e-07
1.46324e-07
1.33043e-07
1.30921e-07
1.49817e-07
1.06685e-07
1.5724e-07
1.60021e-07
8.66858e-08
1.30107e-07
8.2244e-08
-1.13476e-07
1.43012e-07
8.81353e-08
1.50841e-07
9.37573e-08
1.55681e-07
9.82322e-08
1.53012e-07
1.11407e-07
1.44139e-07
1.28563e-07
1.36096e-07
1.41128e-07
1.33045e-07
1.55098e-07
1.2659e-07
1.63672e-07
1.67545e-07
1.19044e-07
1.07705e-07
8.04365e-08
-1.05897e-07
1.1234e-07
8.35002e-08
1.28068e-07
7.80293e-08
1.39532e-07
8.67682e-08
1.31911e-07
1.19028e-07
1.26273e-07
1.34201e-07
1.27748e-07
1.39653e-07
1.27631e-07
1.55216e-07
1.23889e-07
1.67389e-07
1.68748e-07
1.22662e-07
8.41293e-08
9.78755e-08
-1.01568e-07
6.84297e-08
9.91997e-08
8.23025e-08
6.41565e-08
9.81504e-08
7.09203e-08
8.66079e-08
1.17656e-07
8.7738e-08
1.28457e-07
9.78281e-08
1.29563e-07
9.5684e-08
1.57329e-07
9.70185e-08
1.66022e-07
1.6243e-07
1.03301e-07
1.27931e-08
1.17281e-07
-4.44278e-08
-1.96651e-08
1.20324e-07
-3.6788e-08
7.73432e-08
-3.61856e-08
6.99523e-08
-1.70081e-08
9.90849e-08
-7.99644e-09
1.10552e-07
7.09161e-09
1.07883e-07
2.34128e-08
1.30985e-07
5.11043e-08
1.3059e-07
1.24029e-07
7.78324e-08
-7.30283e-08
1.18673e-07
7.1367e-08
-6.38915e-08
1.10915e-07
-8.22755e-08
8.4257e-08
-1.08663e-07
8.68543e-08
-8.82084e-08
9.35421e-08
-7.84769e-08
9.95623e-08
-8.61907e-08
1.04457e-07
-7.55798e-08
1.10475e-07
-5.71233e-08
1.02157e-07
9.64207e-08
-2.98871e-08
-9.39289e-08
1.04634e-07
1.07698e-07
-7.59077e-08
9.26258e-08
-8.02066e-08
8.82835e-08
-1.01045e-07
1.0058e-07
-9.82997e-08
1.12864e-07
-8.28087e-08
8.27965e-08
-6.56466e-08
8.6037e-08
-6.34805e-08
9.23204e-08
-8.48811e-08
1.1012e-07
8.91418e-08
-7.81478e-08
-9.51716e-08
9.06288e-08
1.2831e-07
-7.76469e-08
7.48287e-08
-6.62237e-08
8.18115e-08
-5.62866e-08
8.77015e-08
-3.51125e-08
9.16981e-08
-7.74233e-09
7.01116e-08
1.15463e-08
7.32827e-08
2.02648e-08
8.24086e-08
2.89023e-08
9.96237e-08
8.88044e-08
1.83068e-08
-1.14508e-07
7.59726e-08
1.32672e-07
-9.90451e-08
6.88238e-08
-8.19546e-08
6.80059e-08
-5.86136e-08
6.43897e-08
-1.81126e-08
5.11974e-08
2.17322e-08
3.02675e-08
6.59674e-08
3.0841e-08
8.89773e-08
5.56627e-08
1.14848e-07
7.29997e-08
7.09767e-08
1.31912e-07
-9.99258e-08
7.23343e-08
1.03562e-07
-9.56969e-08
6.45843e-08
-8.73467e-08
5.96459e-08
-7.0028e-08
4.70711e-08
-4.55888e-08
2.67584e-08
-2.58784e-08
1.05567e-08
2.66321e-09
2.30002e-09
5.00213e-08
8.31082e-09
1.01264e-07
2.24346e-08
3.89535e-08
1.24662e-07
1.6816e-08
7.68105e-08
-2.13027e-08
8.14441e-09
7.32353e-08
9.4135e-09
5.83663e-08
2.08778e-08
3.56068e-08
3.36605e-08
1.39756e-08
4.18024e-08
2.41489e-09
5.08707e-08
-6.76967e-09
7.18515e-08
-1.26675e-08
1.05448e-07
-1.11831e-08
1.03425e-09
1.42301e-07
1.17922e-07
5.08428e-08
-1.1089e-07
1.50479e-07
4.03493e-08
1.86531e-07
3.29535e-08
2.11534e-07
2.21663e-08
2.25693e-07
-1.67608e-10
2.42184e-07
-1.17876e-08
2.60536e-07
-2.06224e-08
2.79637e-07
-2.97236e-08
2.89517e-07
-2.11355e-08
-2.63109e-09
2.931e-07
1.91955e-07
2.30683e-08
-1.64622e-07
2.08594e-07
2.3305e-08
2.20605e-07
2.05738e-08
2.39044e-07
3.85373e-09
2.61505e-07
-2.21643e-08
2.94101e-07
-4.35657e-08
4.08656e-07
-4.92228e-08
4.42189e-07
-4.70523e-08
4.56565e-07
-3.55119e-08
-1.08637e-08
4.64716e-07
2.14237e-07
-1.79377e-08
-1.73673e-07
2.47191e-07
-1.00903e-08
2.7792e-07
-1.06201e-08
3.17869e-07
-3.66115e-08
3.94204e-07
-6.40145e-08
4.86665e-07
-7.11914e-08
5.07759e-07
-6.91606e-08
5.23981e-07
-6.32765e-08
5.39302e-07
-5.06965e-08
-1.90743e-08
5.47555e-07
2.18037e-07
-5.48991e-08
-1.83846e-07
2.98877e-07
-6.07057e-08
3.78908e-07
-6.57764e-08
4.2385e-07
-8.1104e-08
4.56796e-07
-9.65488e-08
4.85889e-07
-9.9982e-08
5.11306e-07
-9.4282e-08
5.3302e-07
-8.4826e-08
5.48955e-07
-6.66057e-08
-3.24204e-08
5.62247e-07
1.88871e-07
-7.1236e-08
-1.72262e-07
2.17172e-07
-8.87133e-08
2.57201e-07
-1.05534e-07
3.03877e-07
-1.27488e-07
3.508e-07
-1.43091e-07
3.88475e-07
-1.30615e-07
4.29093e-07
-1.19324e-07
4.76909e-07
-1.15562e-07
5.09423e-07
-9.67485e-08
-5.57789e-08
5.32754e-07
-5.51147e-08
-8.81862e-08
6.86359e-08
-2.70909e-08
-1.16454e-07
2.45939e-08
-1.53991e-07
9.13255e-08
-1.87619e-07
1.35329e-07
-1.73577e-07
1.80742e-07
-1.79899e-07
2.42758e-07
-1.8083e-07
3.0646e-07
-1.48504e-07
3.43399e-07
-1.1683e-07
-7.41732e-08
3.75861e-07
-4.01337e-07
-1.28575e-07
4.62108e-07
-3.23568e-07
-1.79127e-07
-2.02948e-07
-2.68658e-07
-7.26224e-08
-3.21709e-07
1.72871e-08
-2.68627e-07
9.8092e-08
-2.65849e-07
1.64758e-07
-2.26455e-07
1.6789e-07
-1.89206e-07
1.52194e-07
-1.43747e-07
-1.10791e-07
1.44749e-07
-4.23277e-07
-2.1376e-07
5.62983e-07
-3.09085e-07
-3.11948e-07
-1.97773e-07
-4.17584e-07
-1.00126e-07
-4.59116e-07
1.91374e-08
-4.21508e-07
1.07048e-07
-3.75738e-07
1.92216e-07
-2.8819e-07
2.32322e-07
-1.95476e-07
2.36338e-07
-1.43615e-07
-1.00693e-07
2.29462e-07
-3.63955e-07
-2.24329e-07
3.44067e-07
-3.31017e-07
-2.31213e-07
-2.60914e-07
-3.86342e-07
-1.27065e-07
-5.92737e-07
4.40867e-08
-5.91731e-07
1.98081e-07
-5.28803e-07
2.92509e-07
-4.38039e-07
3.27885e-07
-2.70003e-07
3.59013e-07
-1.15513e-07
-2.07023e-08
3.02638e-07
-4.40642e-08
-7.11562e-08
3.86926e-08
-2.99813e-08
-9.28723e-08
-6.31511e-08
-1.60519e-07
-1.01735e-08
-4.39757e-07
1.15707e-07
-7.10107e-07
2.59149e-07
-6.71337e-07
3.63214e-07
-5.40957e-07
3.71216e-07
-3.83397e-07
4.5351e-07
-1.88337e-07
2.40511e-08
4.22458e-07
1.10196e-07
-6.59799e-08
-1.21998e-07
1.04637e-07
-9.39386e-08
1.28484e-07
-1.90992e-07
4.01573e-07
-4.89919e-07
4.35503e-07
-7.19232e-07
4.5135e-07
-6.86037e-07
4.47821e-07
-5.35354e-07
4.46239e-07
-3.8034e-07
4.66711e-07
-2.05455e-07
1.7211e-08
3.09434e-07
1.0404e-07
-1.22066e-07
-1.0357e-07
1.46794e-07
-1.43319e-07
3.49566e-07
-4.23843e-07
5.42918e-07
-7.23045e-07
5.75657e-07
-7.50774e-07
5.34776e-07
-6.41493e-07
4.66654e-07
-3.73323e-07
4.0721e-07
-2.55614e-07
3.83346e-07
-1.86892e-07
7.81413e-09
3.82723e-07
8.09637e-08
-1.53101e-07
-2.87625e-07
2.45926e-07
-4.33214e-07
5.15895e-07
-7.63673e-07
5.68403e-07
-7.73751e-07
5.25217e-07
-7.04648e-07
2.88481e-07
-3.09148e-07
1.77212e-07
-7.83698e-08
1.99255e-07
-3.22299e-08
2.39436e-07
-1.08999e-07
-1.80551e-08
2.62625e-07
1.6507e-07
-2.60742e-07
-1.99955e-07
3.35463e-07
-7.14532e-07
3.75099e-07
-8.01283e-07
3.4395e-07
-7.40265e-07
1.51331e-07
-4.21538e-07
5.41997e-08
-1.1334e-07
3.24776e-08
-5.66998e-08
1.89774e-08
-1.87882e-08
7.08071e-08
-8.96073e-08
-4.76899e-08
1.08563e-07
4.59939e-08
-3.18787e-07
6.61395e-09
1.1512e-07
-7.81634e-07
9.37183e-08
-7.77858e-07
4.38374e-08
-6.8836e-07
1.99721e-09
-3.60554e-07
-8.11933e-09
-1.03271e-07
1.03292e-09
-6.59105e-08
8.63603e-09
-2.64357e-08
2.45487e-08
-6.58685e-08
-3.65871e-08
1.23412e-08
-7.45752e-08
-1.3099e-07
7.12148e-08
-1.05616e-07
-6.92613e-07
-9.29371e-08
-7.88504e-07
-8.8476e-08
-6.91625e-07
-2.638e-08
-4.45983e-07
-2.72264e-08
-1.02506e-07
-1.62974e-08
-7.68888e-08
-2.46477e-09
-4.03268e-08
-1.65591e-08
-3.20759e-08
-2.64817e-08
-2.90369e-08
-3.56299e-08
-5.1578e-08
3.13239e-08
-1.65206e-07
-3.80693e-07
-1.73846e-07
-7.77569e-07
-1.76961e-07
-6.86788e-07
-8.83453e-08
-5.72938e-07
-3.99485e-08
-1.51354e-07
-3.23846e-08
-8.4534e-08
-1.99768e-08
-5.35335e-08
-3.84513e-08
-3.38318e-08
-2.51058e-08
-5.96083e-08
-1.57518e-08
-3.54606e-08
-4.04614e-10
-1.32039e-07
-1.3206e-07
-1.95e-07
-7.12886e-07
-1.97785e-07
-6.83531e-07
-1.91985e-07
-5.98103e-07
-7.84682e-08
-3.79144e-07
-5.92558e-08
-1.04195e-07
-4.63508e-08
-6.79255e-08
-5.25755e-08
-3.9383e-08
-2.75131e-08
-1.00406e-07
4.14391e-09
-2.89677e-08
-1.06965e-08
-3.14527e-08
-5.43123e-08
-1.57561e-07
-2.66572e-07
-1.75428e-07
-6.64114e-07
-1.80736e-07
-5.91451e-07
-1.49074e-07
-4.65736e-07
-9.37872e-08
-2.76946e-07
-6.52381e-08
-1.07151e-07
-3.86517e-08
-7.38527e-08
-4.14646e-08
-8.50528e-08
1.72877e-08
-3.4582e-08
-1.17356e-08
8.3048e-09
-4.53892e-08
-4.23546e-08
-5.9969e-08
-9.96314e-08
-4.63868e-07
-9.32561e-08
-5.98131e-07
-7.86713e-08
-4.80011e-07
-5.45835e-08
-3.66091e-07
-4.77315e-08
-2.91911e-07
-5.45361e-08
-2.28883e-07
-1.83071e-07
-2.61087e-08
2.84508e-08
-4.0723e-08
-2.23696e-08
2.85969e-08
-4.55993e-08
1.66039e-08
-4.82015e-08
3.26301e-08
-1.89585e-07
-7.5784e-10
-5.26097e-07
8.7171e-09
-4.89468e-07
2.44517e-09
-3.59818e-07
-2.21773e-09
-2.87247e-07
-3.32024e-09
-2.27779e-07
-1.86806e-07
4.12153e-10
5.44792e-08
-4.15775e-08
-5.37626e-08
6.16356e-08
-5.29747e-08
6.13452e-08
-4.81703e-08
2.09806e-07
-1.19209e-07
2.20204e-07
-4.34143e-07
1.74034e-07
-4.43146e-07
1.23069e-07
-3.08842e-07
5.02199e-08
-2.14391e-07
-1.80042e-09
-1.75761e-07
-1.38284e-07
-5.03267e-08
1.21788e-07
-1.18338e-07
-1.10785e-07
1.11401e-07
-1.24006e-07
1.62771e-07
-9.96601e-08
3.90382e-07
-2.07358e-07
4.28991e-07
-3.76966e-07
3.34799e-07
-3.48635e-07
2.58698e-07
-2.3271e-07
1.69437e-07
-1.25119e-07
9.45053e-08
-1.00835e-07
-6.46099e-08
2.08389e-08
4.47571e-07
-2.43309e-07
-4.00213e-07
3.8282e-07
-1.69519e-07
4.44354e-07
-1.81656e-07
5.33782e-07
-2.34561e-07
4.52291e-07
-2.89148e-07
3.19264e-07
-2.15366e-07
2.15583e-07
-1.28883e-07
1.58799e-07
-6.8305e-08
1.20487e-07
-6.2515e-08
-1.14486e-10
4.01772e-08
2.7221e-07
-3.08838e-07
-2.35817e-07
3.72051e-07
-1.86121e-07
3.53337e-07
-1.68576e-07
2.71485e-07
-1.89235e-07
1.33852e-07
-1.50856e-07
-1.71691e-09
-7.92964e-08
-8.66461e-08
-4.25692e-08
-1.33114e-07
-8.04824e-09
-7.67615e-08
-6.34295e-09
5.04719e-09
-8.2116e-08
-3.83702e-08
-1.72477e-07
3.06969e-08
-7.41018e-08
-1.75037e-07
-2.06793e-07
-1.99331e-07
-3.55092e-07
-1.46289e-07
-4.40096e-07
-6.3049e-08
-4.96329e-07
-2.18796e-08
-1.94551e-07
-5.93876e-09
-1.97659e-07
-6.58281e-09
-1.961e-07
-8.54248e-09
-9.07568e-09
-1.84052e-07
-2.79743e-07
-1.70749e-07
2.45603e-07
-6.4928e-07
-2.81301e-07
-6.26193e-07
-2.15426e-07
-6.58665e-07
-1.07986e-07
-6.81784e-07
-3.48835e-08
-4.65984e-07
-9.47235e-09
-3.09574e-07
-9.43767e-09
-2.64553e-07
-4.82777e-08
-3.87042e-07
-2.83502e-08
-6.36386e-09
-4.61643e-07
-5.81415e-07
-1.58829e-07
3.59099e-07
-7.98618e-07
-2.24496e-07
-8.34053e-07
-1.73794e-07
-7.54904e-07
-7.40248e-08
-5.19521e-07
-5.31033e-08
-5.12611e-07
-8.37501e-08
-5.50725e-07
-1.17681e-07
-6.31826e-07
-1.18721e-07
-5.60053e-07
-9.96587e-08
-7.71451e-08
-4.88833e-07
-3.91411e-07
-1.45e-07
3.54343e-07
-4.43968e-07
-1.61367e-07
-3.20157e-07
-1.06245e-07
-3.99827e-07
-8.75414e-08
-6.92668e-07
-1.32651e-07
-6.57503e-07
-1.84033e-07
-5.93314e-07
-1.81753e-07
-5.38193e-07
-1.73693e-07
-4.8666e-07
-1.5102e-07
-1.18157e-07
-4.43184e-07
-3.37981e-07
-3.11436e-07
4.87714e-07
-2.91044e-07
-2.27846e-07
-2.68718e-07
-1.52539e-07
-2.9282e-07
-9.93868e-08
-5.18086e-07
-1.97679e-07
-4.92052e-07
-2.09905e-07
-4.75463e-07
-1.98218e-07
-4.66755e-07
-1.82237e-07
-4.40996e-07
-1.58274e-07
-1.34173e-07
-4.25732e-07
-5.10903e-07
-6.68581e-07
7.3473e-07
-2.68797e-07
-5.2198e-07
-1.71939e-07
-2.75212e-07
-2.79689e-07
-1.17011e-07
-4.28459e-07
-2.05799e-07
-4.41522e-07
-1.96698e-07
-4.50511e-07
-1.89201e-07
-4.4535e-07
-1.79834e-07
-4.32944e-07
-1.7196e-07
-1.60185e-07
-4.08419e-07
-7.67997e-07
-7.15801e-07
8.13101e-07
-5.0047e-07
-7.95144e-07
-2.91086e-07
-6.24384e-07
-3.41516e-07
-2.5719e-07
-4.11865e-07
-1.81972e-07
-4.32144e-07
-1.76439e-07
-4.47551e-07
-1.73803e-07
-4.45493e-07
-1.81891e-07
-4.33281e-07
-1.84085e-07
-1.80784e-07
-4.13006e-07
-6.86105e-07
-4.11693e-07
4.35048e-07
-6.85234e-07
-8.03401e-07
-4.43939e-07
-8.69485e-07
-2.3403e-07
-5.14271e-07
-2.60478e-07
-1.89984e-07
-2.95453e-07
-1.29537e-07
-3.61585e-07
-1.08951e-07
-3.8855e-07
-1.5495e-07
-4.05815e-07
-1.66931e-07
-1.71543e-07
-4.15484e-07
-3.58256e-07
-2.72726e-07
2.11357e-07
-6.1335e-07
-4.20357e-07
-5.11182e-07
-9.71366e-07
-2.13444e-07
-8.11745e-07
-1.10738e-07
-2.99086e-07
-8.45258e-08
-1.64455e-07
-1.64961e-07
-3.76472e-08
-3.19315e-07
-2.49162e-08
-4.05265e-07
-8.14215e-08
-1.5394e-07
-4.23702e-07
-1.75728e-07
-2.23061e-07
1.16231e-07
-4.11355e-07
-1.55406e-07
-5.64658e-07
-8.26835e-07
-3.5796e-07
-1.01831e-06
-1.45028e-07
-5.11984e-07
-1.11996e-07
-1.95956e-07
-5.47065e-08
-9.90185e-08
-7.08138e-08
-3.70493e-08
-1.98916e-07
3.33998e-08
-1.81373e-08
-3.35244e-07
-5.64486e-08
-1.99987e-07
5.41758e-08
-1.28694e-07
-5.30325e-08
-4.80374e-07
-4.9148e-07
-4.02015e-07
-1.09664e-06
-1.58278e-07
-7.55712e-07
-8.10517e-08
-2.73178e-07
1.70036e-08
-1.97069e-07
1.20393e-07
-1.40258e-07
6.42927e-08
6.91719e-08
1.97376e-07
-1.56668e-07
-1.35421e-08
-1.80969e-07
8.07742e-09
-2.2788e-08
-1.43126e-08
-3.20719e-07
-1.87037e-07
-3.94256e-07
-1.02288e-06
-1.64033e-07
-9.85872e-07
-1.04356e-10
-4.37101e-07
8.81851e-08
-2.85355e-07
1.57843e-07
-2.05592e-07
9.40819e-08
7.53404e-08
3.43222e-07
-6.4428e-08
-1.95125e-08
-1.0145e-07
2.09901e-08
-7.99551e-09
6.12155e-09
-1.28282e-07
-5.66167e-08
-3.48733e-07
-7.60904e-07
-2.20171e-07
-1.11425e-06
-2.63791e-08
-6.30865e-07
2.34015e-08
-3.3513e-07
5.00115e-08
-2.47037e-07
5.41876e-08
3.81528e-08
3.09174e-07
5.42251e-08
-1.57244e-08
-2.39464e-09
-3.46278e-09
-9.2794e-09
1.20729e-08
-3.66797e-08
-3.06326e-08
-2.08292e-07
-6.00698e-07
-1.90589e-07
-1.12513e-06
-2.32954e-08
-7.87472e-07
-8.52597e-09
-3.49315e-07
3.00624e-08
-3.04225e-07
6.36719e-08
-2.84681e-08
1.86688e-07
1.48504e-07
-1.5637e-08
0
2.48832e-09
0
8.205e-09
-1.19095e-08
-2.00183e-08
-1.40445e-07
-4.98676e-07
-1.64152e-07
-1.11738e-06
-9.8932e-08
-8.68744e-07
-1.37244e-07
-3.10307e-07
-1.22931e-07
-3.03954e-07
-7.89606e-10
-1.60023e-07
9.15418e-08
5.32029e-08
-4.92226e-09
-8.43636e-11
2.67956e-10
-3.13635e-11
5.38695e-12
-1.40125e-08
-6.79055e-09
-1.13906e-07
-4.14466e-07
-1.40806e-07
-1.10304e-06
-9.0766e-08
-9.46842e-07
-1.33327e-07
-2.66957e-07
-1.68358e-07
-2.68134e-07
-9.66706e-08
-2.53003e-07
-5.92794e-08
1.13199e-08
-8.69471e-11
-2.59613e-11
5.24391e-11
-4.11299e-12
-7.9902e-11
-2.91051e-09
-4.05498e-09
-1.02008e-07
-3.30849e-07
-1.32904e-07
-1.06165e-06
-1.13881e-07
-9.27009e-07
-1.59884e-07
-2.20165e-07
-1.95622e-07
-2.31589e-07
-2.08773e-07
-2.39024e-07
-2.09659e-07
-7.48965e-08
-1.27215e-11
-2.15731e-11
3.41855e-11
-6.16321e-11
-1.154e-11
-1.77153e-09
-2.29535e-09
-8.31118e-08
-2.43553e-07
-9.18291e-08
-1.04e-06
-7.5006e-08
-9.00607e-07
-1.21316e-07
-1.72968e-07
-1.75029e-07
-1.77047e-07
-1.94173e-07
-2.18875e-07
-2.17635e-07
-1.84062e-07
1.31725e-13
-5.10123e-12
5.54226e-12
-9.59238e-12
-1.86552e-12
-1.99425e-09
-2.96513e-10
-7.27386e-08
-1.3526e-07
-7.17521e-08
-1.03316e-06
-4.687e-08
-9.07225e-07
-2.84996e-09
-1.0113e-07
-5.39621e-08
-1.20076e-07
-5.64347e-08
-1.69879e-07
-1.03388e-07
-1.06348e-07
6.97336e-13
-1.60106e-12
-2.67156e-12
4.08919e-13
-1.60311e-12
-2.92294e-10
-3.82009e-12
-2.3029e-08
-5.70077e-08
-5.02809e-08
-9.86713e-07
-1.25581e-08
-9.26536e-07
2.37075e-08
-4.60304e-08
7.20927e-08
-1.10823e-08
3.46335e-08
-9.56714e-09
-4.40657e-09
2.98748e-08
2.04106e-13
-1.25818e-12
-6.02712e-13
7.40579e-13
-2.14231e-12
5.424e-13
-3.61842e-12
-1.82719e-09
-4.07628e-08
-2.67191e-08
-9.48641e-07
-1.98102e-08
-9.05468e-07
9.23974e-09
-4.92236e-08
1.08193e-08
-1.12342e-08
6.59658e-09
-3.97968e-09
-2.13613e-09
5.59438e-09
3.64902e-13
-1.24138e-12
-4.37423e-13
1.59489e-12
-8.64536e-12
1.99003e-12
-4.0156e-12
6.96057e-09
-3.59746e-08
-6.23449e-09
-9.21296e-07
-8.3733e-09
-8.88098e-07
-1.89349e-10
-4.41388e-08
0
-7.40641e-09
1.87543e-10
-2.62109e-09
-2.25562e-09
1.50804e-09
7.58375e-13
-1.48612e-12
-5.56662e-13
7.47022e-12
-3.08918e-11
7.35352e-12
-4.07042e-12
1.11102e-08
-3.45487e-08
7.99144e-09
-9.01421e-07
-2.99336e-10
-8.80366e-07
0
-3.76204e-08
1.35725e-11
-8.65416e-09
-5.65393e-10
-8.07529e-11
-4.26854e-10
-3.51442e-10
3.41731e-13
-1.20616e-12
-1.10714e-12
6.10244e-12
-2.94325e-11
5.40259e-12
-4.28419e-12
6.5995e-09
-3.42989e-08
2.30487e-09
-9.04916e-07
-5.46607e-09
-8.91157e-07
0
-3.88491e-08
7.86399e-11
-5.50737e-09
0
-2.75232e-12
-3.40546e-11
7.28383e-10
0
-3.3572e-12
-5.78932e-12
4.38157e-12
-2.30008e-11
4.37569e-12
-4.7411e-12
4.1785e-09
-4.17717e-08
-3.78139e-09
-9.25171e-07
-7.90578e-09
-9.1372e-07
-1.94807e-10
-4.41874e-08
-1.02553e-12
-3.27894e-09
-2.00756e-12
-3.06034e-12
-3.71848e-11
5.21061e-13
0
-5.07876e-11
-1.66219e-11
3.05558e-12
-2.03283e-11
5.11541e-12
-5.33229e-12
6.02475e-09
-6.14295e-08
-9.45548e-10
-9.43463e-07
-6.04412e-09
-9.33358e-07
-5.6279e-10
-6.17151e-08
-1.63411e-11
-2.13431e-09
-1.72735e-11
-2.72954e-12
-5.43038e-11
-5.33473e-11
4.95649e-12
-8.82848e-11
-1.62757e-11
3.63461e-12
-4.75134e-11
6.30272e-12
-5.96652e-12
5.44611e-09
-8.49499e-08
-2.16947e-09
-9.5325e-07
-7.24806e-09
-9.44776e-07
-8.82906e-10
-8.61268e-08
-2.84079e-11
-1.39106e-09
-3.00438e-11
-1.66919e-12
-3.62221e-11
-2.6213e-11
1.8987e-11
-8.84993e-11
-1.87005e-11
6.61987e-12
-6.50051e-11
7.89963e-12
-6.65171e-12
6.18486e-09
-1.04669e-07
-2.62401e-10
-9.50894e-07
-5.56172e-09
-9.46399e-07
-1.10103e-09
-1.02445e-07
-2.07668e-11
-6.58196e-10
-2.01714e-11
-3.11149e-12
-2.62471e-11
-5.27938e-12
2.14796e-11
-8.29344e-11
-2.69633e-11
7.8302e-12
-6.27389e-11
8.59007e-12
-7.84555e-12
2.44506e-09
-1.07998e-07
7.55029e-09
-9.40294e-07
-3.89674e-09
-9.3672e-07
-8.67973e-10
-1.14111e-07
0
-5.39071e-10
-2.3528e-12
6.88357e-13
-8.21924e-12
-1.89955e-12
1.93108e-11
-6.81464e-11
-3.39606e-11
9.92167e-12
-3.41469e-11
1.17172e-11
-8.90562e-12
2.70445e-08
-1.14087e-07
3.47537e-08
-9.2464e-07
2.71689e-08
-9.27874e-07
0
-1.08209e-07
0
-4.36206e-11
0
2.4375e-12
2.91283e-12
-1.33123e-12
2.71312e-12
-1.22873e-11
-6.35053e-12
5.55532e-12
-2.33504e-11
1.04321e-11
-9.68559e-12
1.26107e-08
-1.06344e-07
2.31986e-08
-9.1333e-07
7.56146e-09
-9.1547e-07
-1.84511e-11
-1.07378e-07
-3.83576e-13
-8.99482e-11
7.80782e-12
0
1.36252e-11
6.69277e-12
2.41701e-12
-1.48741e-11
-1.36922e-12
7.5046e-12
-1.71668e-11
1.12705e-11
-1.00037e-11
2.08975e-08
-1.04607e-07
2.32753e-08
-8.98089e-07
7.7425e-09
-9.02572e-07
0
-1.03303e-07
-3.32064e-10
-1.21685e-09
-8.02344e-11
-2.29082e-10
-7.37894e-12
-3.04804e-11
5.33834e-12
-7.73095e-12
-3.32689e-12
8.21364e-12
-2.4512e-11
6.82254e-12
-1.00724e-11
6.37625e-09
-1.04341e-07
-3.29332e-09
-8.84599e-07
-1.27389e-08
-8.84407e-07
-2.59678e-09
-1.03317e-07
0
-2.40197e-12
9.73859e-10
-1.68711e-12
-1.01272e-12
4.06832e-11
6.86422e-12
-1.35335e-11
-2.74035e-12
9.89645e-12
-2.69247e-11
6.8971e-12
-1.05311e-11
8.10653e-09
-1.06593e-07
3.17501e-10
-8.72521e-07
-8.21953e-09
-8.73215e-07
-2.00169e-13
-1.06864e-07
2.00099e-12
-4.60379e-12
3.34621e-12
-3.03596e-12
-1.33896e-12
3.66797e-12
1.20928e-11
-1.61426e-11
-3.74903e-12
1.26215e-11
-2.35932e-11
1.04307e-11
-9.842e-12
1.18614e-08
-1.18618e-07
1.50407e-09
-8.62917e-07
-9.42931e-09
-8.63674e-07
-3.42537e-13
-1.18508e-07
3.65388e-15
-4.94738e-12
-4.74814e-14
-2.94169e-12
-1.00619e-12
-3.8475e-13
1.27925e-11
-1.52864e-11
-5.75089e-12
1.21153e-11
-2.47314e-11
9.75544e-12
-8.81734e-12
8.93318e-09
-1.34572e-07
-1.93527e-09
-8.57044e-07
-1.17904e-08
-8.56068e-07
-1.74838e-12
-1.33771e-07
-1.77091e-12
-4.92081e-12
-1.02339e-12
-2.38556e-12
-6.7477e-13
-1.35931e-12
1.80076e-11
-2.60503e-12
-2.78378e-11
1.36694e-11
-2.16165e-11
1.1713e-11
-8.05437e-12
1.10454e-08
-1.52416e-07
-7.02281e-10
-8.48936e-07
-1.11787e-08
-8.49331e-07
-1.64744e-12
-1.51699e-07
-1.7467e-12
-4.803e-12
-9.95136e-13
-1.81693e-12
-1.95334e-13
-1.47972e-12
1.99676e-11
1.09604e-11
-3.09726e-11
1.53827e-11
-1.47068e-11
1.39078e-11
-7.24512e-12
1.24685e-08
-1.69998e-07
1.60089e-09
-8.4035e-07
-1.12609e-08
-8.39383e-07
-1.58434e-12
-1.69301e-07
-1.6287e-12
-4.71859e-12
-1.22982e-12
-8.91892e-13
2.70073e-13
-1.72319e-12
1.8935e-11
2.74284e-11
-3.32599e-11
1.65895e-11
-5.31222e-12
1.5491e-11
-6.29575e-12
1.22501e-08
-1.83179e-07
3.78501e-10
-8.28918e-07
-1.12305e-08
-8.28963e-07
-1.35925e-12
-1.83163e-07
-1.35055e-12
-4.6658e-12
-1.06173e-12
2.28082e-13
8.19447e-13
-1.64994e-12
1.6313e-11
2.53199e-11
-1.23369e-11
1.82917e-11
1.18564e-12
1.71621e-11
-5.22125e-12
1.36071e-08
-1.93652e-07
1.02224e-09
-8.15445e-07
-1.2776e-08
-8.15062e-07
-6.07061e-13
-1.94667e-07
-5.34411e-13
-4.65177e-12
-5.49373e-13
8.10767e-13
1.42517e-12
-1.27189e-12
1.42805e-11
7.64939e-12
5.21732e-12
1.42266e-11
1.70964e-12
1.31851e-11
-4.30464e-12
1.45501e-08
-2.02677e-07
8.24018e-10
-8.00077e-07
-1.28881e-08
-8.01029e-07
-7.34783e-13
-2.04535e-07
-4.07736e-13
-4.85332e-12
-6.99612e-13
1.28919e-12
2.16058e-12
-5.38781e-13
5.01685e-12
2.15925e-12
-9.90831e-12
4.80093e-12
1.96766e-14
4.27909e-12
-3.86885e-12
2.03386e-08
-2.15716e-07
5.75014e-09
-7.83255e-07
-1.10536e-08
-7.85002e-07
-3.18867e-12
-2.15709e-07
-2.56408e-12
-5.29136e-12
0
1.28786e-11
2.84105e-12
-7.00235e-13
1.03477e-12
0
-1.89534e-12
9.44543e-13
-1.92551e-14
8.72727e-13
-3.86747e-12
2.19868e-08
-2.34157e-07
5.96958e-09
-7.66607e-07
-1.15259e-08
-7.68411e-07
-6.66326e-12
-2.31166e-07
-5.76805e-12
-5.86729e-12
-1.15746e-13
8.03414e-12
2.34186e-12
-1.04938e-13
4.64934e-13
8.38504e-13
-8.21921e-13
3.49797e-13
2.54457e-14
2.64825e-13
-3.85425e-12
1.30498e-08
-2.55071e-07
-5.09523e-09
-7.50667e-07
-2.40628e-08
-7.48347e-07
-9.73681e-12
-2.53962e-07
-8.48204e-12
-6.52234e-12
-1.54396e-12
4.21985e-12
1.60057e-11
4.14455e-13
3.20557e-14
5.09884e-12
-5.20649e-12
1.3427e-12
2.55918e-13
1.32997e-12
-3.91196e-12
1.08847e-08
-2.75526e-07
-8.3804e-09
-7.33297e-07
-2.7697e-08
-7.2781e-07
-1.18844e-11
-2.75932e-07
-1.05805e-11
-6.95841e-12
-4.85136e-12
2.56796e-12
1.70063e-11
-6.33235e-13
1.62242e-12
1.02509e-11
-5.28276e-12
3.08272e-12
3.82498e-13
3.0895e-12
-3.67578e-12
1.76901e-08
-2.93045e-07
-5.45157e-09
-7.10397e-07
-2.3634e-08
-7.09171e-07
-1.11575e-11
-2.93592e-07
-1.02035e-11
-7.10948e-12
-8.14876e-12
3.08933e-12
1.52864e-11
-1.21014e-12
3.00786e-12
8.52922e-12
-1.18055e-12
4.21539e-12
-1.69538e-13
4.16043e-12
-3.33677e-12
2.23429e-08
-3.09932e-07
-2.66611e-09
-6.85378e-07
-2.30879e-08
-6.88683e-07
-7.4367e-12
-3.09978e-07
-6.48228e-12
-7.53746e-12
-6.78602e-12
2.1927e-12
1.54224e-11
-1.70324e-12
3.68951e-12
5.25492e-12
-3.06759e-13
2.85523e-12
-6.53715e-13
2.68509e-12
-2.97377e-12
2.44981e-08
-3.31657e-07
2.69925e-09
-6.63944e-07
-2.57362e-08
-6.60771e-07
-8.60311e-12
-3.32254e-07
-4.18996e-12
-1.16143e-11
-4.42953e-13
6.94531e-13
1.31655e-11
0
4.18567e-12
1.85151e-12
-6.76605e-13
1.12086e-12
-3.34589e-14
1.30576e-11
-1.47489e-11
2.79031e-08
-3.63814e-07
1.08536e-08
-6.4724e-07
-1.8545e-08
-6.32082e-07
-4.19819e-11
-3.54453e-07
-5.38606e-12
-4.7236e-11
-3.56177e-13
-3.1288e-13
1.12939e-11
5.90682e-13
9.50862e-14
3.74697e-15
-5.67569e-14
1.15441e-13
-1.28993e-14
1.34919e-10
-1.4947e-10
2.70375e-08
-3.96702e-07
-1.18233e-08
-6.08735e-07
-1.80249e-08
-6.2618e-07
-3.50605e-10
-3.78172e-07
-1.246e-12
-3.94899e-10
8.0838e-14
-1.05189e-12
6.43781e-12
9.3497e-12
3.96077e-14
2.70649e-14
-1.42197e-13
6.08125e-14
-8.99277e-15
9.56606e-10
-1.10597e-09
-2.16327e-08
-3.73334e-07
-3.82834e-08
-5.92346e-07
-8.07466e-08
-5.83962e-07
-3.32975e-09
-4.52935e-07
-2.78896e-12
-3.72196e-09
-2.08549e-12
-1.89664e-12
-4.79012e-13
6.65888e-12
1.7212e-13
3.58755e-14
-1.39722e-13
1.80602e-13
-1.07833e-14
1.00631e-08
-1.11689e-08
6.21227e-08
-4.14676e-07
4.06424e-08
-5.7101e-07
4.90669e-09
-5.48397e-07
-8.86667e-09
-4.38731e-07
-1.84143e-13
-1.19894e-08
1.66524e-13
-2.38827e-12
-1.62474e-12
1.17096e-12
2.56373e-14
6.3089e-15
-1.68933e-14
1.77271e-13
-1.59043e-13
3.46167e-08
-4.3228e-08
8.91763e-08
-4.65319e-07
3.52179e-08
-5.1721e-07
1.12771e-08
-5.24569e-07
-1.07221e-08
-4.20986e-07
-4.57835e-12
-2.37199e-08
-4.28194e-12
-2.826e-12
-4.52326e-12
-1.38392e-12
6.81656e-15
1.40729e-17
-5.40974e-16
4.11497e-12
-4.26685e-12
3.64664e-08
-7.82448e-08
2.37496e-08
-4.51519e-07
-8.13899e-09
-4.8537e-07
-3.86892e-08
-4.94128e-07
-2.58234e-08
-4.38432e-07
-9.00694e-12
-5.12402e-08
-8.01996e-12
-3.94226e-12
-2.82868e-12
-8.37233e-12
1.08081e-16
-4.305e-17
-5.2492e-18
9.61556e-11
-1.00422e-10
6.26995e-08
-1.42762e-07
5.86678e-08
-4.47745e-07
2.33866e-08
-4.50113e-07
-2.16353e-08
-4.49146e-07
-4.04483e-08
-4.186e-07
-5.4081e-11
-8.98177e-08
-4.3894e-12
-5.24759e-11
-6.6102e-13
-4.95391e-12
1.13561e-13
-1.13603e-13
-1.45287e-18
2.04037e-09
-2.14069e-09
6.91272e-08
-2.12812e-07
1.3896e-08
-3.92777e-07
-2.70282e-08
-4.09198e-07
-6.41581e-08
-4.12046e-07
-7.80281e-08
-4.04207e-07
-1.22086e-09
-1.65453e-07
-2.63397e-12
-1.2684e-09
-8.22229e-13
-2.99288e-13
1.6074e-11
-1.61877e-11
-8.28354e-21
2.17194e-08
-2.38444e-08
9.63974e-08
-2.86842e-07
6.27552e-08
-3.5914e-07
1.93434e-08
-3.65787e-07
-2.74401e-08
-3.65287e-07
-7.87092e-08
-3.52954e-07
-1.51851e-08
-2.31636e-07
-4.88915e-11
-1.64039e-08
-4.97137e-11
-4.47822e-17
1.09967e-09
-1.11586e-09
-5.73991e-23
6.15834e-08
-7.63969e-08
7.19514e-08
-2.93117e-07
2.1555e-08
-3.08745e-07
-3.10444e-08
-3.13188e-07
-7.93284e-08
-3.17003e-07
-1.15716e-07
-3.16584e-07
-6.48616e-08
-2.88879e-07
-1.7292e-09
-8.64189e-08
-1.77891e-09
-5.1312e-20
2.95461e-08
-3.0662e-08
-7.50544e-26
1.55033e-07
-1.93927e-07
1.19348e-07
-2.57303e-07
7.68263e-08
-2.66224e-07
2.87124e-08