/*--------------------------------*- C++ -*----------------------------------*\
  =========                 |
  \\      /  F ield         | OpenFOAM: The Open Source CFD Toolbox
   \\    /   O peration     | Website:  https://openfoam.org
    \\  /    A nd           | Version:  8
     \\/     M anipulation  |
\*---------------------------------------------------------------------------*/
FoamFile
{
    version     2.0;
    format      ascii;
    class       volScalarField;
    location    "3";
    object      alpha.water;
}
// * * * * * * * * * * * * * * * * * * * * * * * * * * * * * * * * * * * * * //

dimensions      [0 0 0 0 0 0 0];

internalField   nonuniform List<scalar> 
9150
(
1
1
1
1
1
1
1
1
1
1
1
1
1
1
1
1
1
1
1
1
1
1
1
1
1
1
1
1
1
1
1
1
1
1
1
1
1
1
1
1
1
1
1
1
1
1
1
1
1
1
1
1
1
1
1
1
1
1
1
1
1
1
1
1
1
1
1
1
1
1
1
1
1
1
1
1
1
1
1
1
1
1
1
1
1
1
1
1
1
1
1
1
1
1
1
1
1
1
1
1
1
1
1
1
1
1
1
1
1
1
1
1
1
1
1
1
1
1
1
1
1
1
1
1
1
1
1
1
1
1
1
1
1
1
1
1
1
1
1
1
1
1
1
1
1
1
1
1
1
1
0.73925
0.739122
0.924724
0.955252
0.955397
0.955413
0.95542
0.955421
0.955421
0.955421
0.821389
0.714046
0.5501
0.739521
0.952473
0.955397
0.949508
0.944309
0.944386
0.939956
0.37681
0.270082
0.242461
0.482575
0.731145
0.829252
0.744043
0.643803
0.62923
0.709661
0.194901
0.197527
0.200254
0.359607
0.868306
0.946972
0.946972
0.946972
0.946824
0.946879
0.194846
0.213596
0.201574
0.20229
0.602128
0.946973
0.946973
0.946973
0.946972
0.946948
0.194901
0.473592
0.447475
0.805813
0.946973
0.946973
0.946973
0.946973
0.946962
0.941236
0.627261
0.516799
0.478497
0.797949
0.946973
0.946973
0.938075
0.946962
0.946938
0.946022
0.953929
0.862738
0.827769
0.750608
0.717466
0.71682
0.788509
0.946938
0.946934
0.946863
0.584223
0.572756
0.655784
0.694972
0.746256
0.816301
0.848347
0.861285
0.886154
0.928399
0.0695102
0.054601
0.0670141
0.0978182
0.101041
0.234042
0.518227
0.701808
0.807349
0.916812
0.0365417
0.0284843
0.0254191
0.0241871
0.024008
0.0239971
0.0239988
0.137551
0.377348
0.483081
0.0378081
0.0253064
0.0247417
0.0241503
0.0240335
0.024008
0.0239969
0.0240113
0.256383
0.719564
0.0291607
0.0255175
0.024324
0.0241283
0.0240621
0.0240335
0.0240113
0.0977767
0.732864
0.777072
0.0252736
0.0243393
0.0241621
0.0241266
0.0241147
0.0240458
0.442984
0.902761
0.894547
0.75701
0.0242665
0.0241717
0.0241453
0.0241621
0.117098
0.783376
0.95254
0.939023
0.564672
0.325629
0.0242487
0.0242537
0.0241589
0.419853
0.944331
0.957747
0.95423
0.825218
0.351867
0.322619
0.100915
0.564336
0.938332
0.959477
0.958591
0.957526
0.691029
0.331421
0.32635
0.325342
0.88507
0.959626
0.959712
0.959618
0.947178
0.78152
0.58345
0.593772
0.716377
0.838503
0.959626
0.959712
0.959626
0.959692
0.942077
0.935408
0.954641
0.930022
0.958325
0.968565
0.856103
0.813306
0.731905
0.901695
0.929343
0.965603
0.968248
0.96841
0.968459
0.968473
0.190775
0.159963
0.0691009
0.03452
0.183046
0.576615
0.768608
0.936025
0.967888
0.96847
0.0334186
0.0283868
0.0269258
0.0265448
0.0264151
0.0264089
0.0263758
0.271256
0.545843
0.761185
0.122982
0.0478849
0.027571
0.0264981
0.0264088
0.0263758
0.0263473
0.0263439
0.0263437
0.0263439
0.832586
0.587387
0.322274
0.0738754
0.0264998
0.0264089
0.0263758
0.0263473
0.0263439
0.0263437
0.970995
0.972018
0.973028
0.584935
0.177803
0.10503
0.254494
0.0593196
0.0271817
0.0263474
0.972018
0.973005
0.973578
0.973005
0.658648
0.402934
0.830071
0.677652
0.397153
0.414272
0.88832
0.973578
0.974024
0.973891
0.76922
0.409657
0.893529
0.92261
0.922698
0.92443
0.489321
0.967321
0.974338
0.974902
0.902815
0.459744
0.389866
0.48979
0.890988
0.904156
0.39574
0.664038
0.974898
0.97521
0.975201
0.799525
0.388548
0.388548
0.388548
0.388667
0.39254
0.504494
0.975211
0.975516
0.975817
0.972588
0.633912
0.388548
0.388667
0.389101
0.62985
0.26796
0.974863
0.975817
0.975897
0.975981
0.975984
0.875088
0.463795
0.390288
0.546954
0.151784
0.917558
0.975707
0.975981
0.975984
0.975984
0.975984
0.975984
0.975984
0.443002
0.0317283
0.391855
0.972535
0.975793
0.975984
0.975984
0.975984
0.975983
0.975983
0.33271
0.0228577
0.0584735
0.630781
0.972704
0.975967
0.975984
0.975982
0.974076
0.974236
0.11837
0.0196115
0.0194966
0.270285
0.824614
0.93471
0.975982
0.975982
0.97547
0.974243
0.0209716
0.0186
0.0116063
0.205647
0.725638
0.83261
0.975981
0.975981
0.975978
0.97597
0.0292457
0.0149756
0.00460475
0.163238
0.716605
0.815002
0.975952
0.975978
0.975971
0.975958
0.00556938
0.00425231
0.000642957
0.0951509
0.706679
0.750072
0.950222
0.975782
0.944948
0.946818
2.68656e-05
0.000123235
0.00036074
0.0459227
0.682184
0.531326
0.320453
0.693421
0.584244
0.53839
0.0001573
0.000468055
0.000382323
0.026907
0.676126
0.679591
0.0235715
0.0578399
0.0344814
0.00341306
0.00031942
0.000616696
0.00037585
0.0279929
0.678115
0.679913
0.0216555
0.000253773
0.000213577
0.000213986
9.16397e-05
0.000398902
0.000382323
0.0044474
0.673251
0.671414
0.00671898
0.000213573
0.000213577
0.000213338
2.34066e-05
2.35209e-05
0.00182333
0.00174457
0.621353
0.618216
0.000970701
0.00313234
0.000213577
0.000195336
2.34585e-05
9.17223e-05
0.00881801
0.00112342
0.580371
0.578682
0.000971854
0.00694655
0.000266608
0.000169413
2.35886e-05
0.00210884
0.00886253
0.00162554
0.569956
0.564496
0.000968902
0.00696494
0.000995362
0.000162874
2.52107e-05
0.0047232
0.0088784
0.00158717
0.613786
0.615842
0.0010215
0.00693611
0.000952818
0.000162874
0.000917317
0.00408945
0.00838902
0.0015809
0.720889
0.717196
0.00132424
0.00189575
0.00102734
0.000162874
0.00178454
0.000370175
5.73861e-05
0.0107223
0.782268
0.783308
0.00985769
2.26705e-05
0.000674077
0.000298751
2.11159e-05
2.10253e-05
2.66182e-05
0.044828
0.801927
0.801037
0.0441445
2.04093e-05
2.04093e-05
0.000112172
2.13437e-05
6.28229e-05
3.66751e-05
0.0736191
0.803411
0.801555
0.0693804
2.07798e-05
2.03606e-05
2.07798e-05
9.37091e-05
0.000153321
5.22887e-06
0.0819813
0.803411
0.801462
0.0808844
1.25615e-05
4.38204e-05
2.38636e-05
0.000142876
0.000153365
5.22887e-06
0.0760066
0.799972
0.801711
0.0821406
2.90001e-06
8.4973e-05
2.62883e-05
0.00014601
0.000144639
5.22674e-06
0.0514609
0.797798
0.801673
0.0528373
2.63397e-06
8.54752e-05
2.32575e-05
0.000147062
0.000117445
4.49829e-06
0.0193638
0.778159
0.77912
0.0205758
2.30595e-06
5.01239e-05
2.87392e-05
0.000148769
0.000100851
3.31906e-06
0.00325886
0.692174
0.690379
0.00373548
1.6843e-06
3.99796e-05
0.000144017
0.000149914
5.18542e-05
2.6168e-06
3.31906e-06
0.584073
0.582249
1.6843e-06
1.10057e-06
3.98892e-05
0.000195358
0.000148574
2.19376e-05
2.3324e-06
2.6168e-06
0.523663
0.522579
1.10057e-06
9.1388e-07
8.96135e-06
0.00020742
0.000114715
4.20867e-06
2.27836e-06
2.3324e-06
0.510686
0.511038
9.1388e-07
8.50953e-07
2.79114e-06
0.000265288
3.40548e-05
8.97362e-06
2.21753e-06
2.27836e-06
0.584131
0.582896
8.50952e-07
8.37674e-07
2.39219e-06
0.000155269
6.26219e-05
4.86132e-05
2.14909e-06
2.20173e-06
0.724087
0.720003
8.37674e-07
8.37674e-07
2.19586e-06
8.19795e-05
8.51396e-06
8.67025e-06
2.14909e-06
0.0140274
0.815473
0.814432
0.0123331
8.37674e-07
1.96461e-06
5.79667e-05
2.16436e-06
2.14909e-06
2.14592e-06
0.0612853
0.85745
0.857294
0.0601144
8.59618e-07
1.50517e-06
0.000106679
2.21126e-06
2.16436e-06
2.14909e-06
0.101871
0.871443
0.872373
0.102703
1.25546e-06
1.93276e-05
2.06721e-05
1.42006e-05
9.15903e-06
2.18991e-06
0.118286
0.87305
0.87417
0.12198
7.36482e-06
0.000241558
5.35358e-05
3.55088e-05
0.000173208
2.44273e-06
0.120673
0.871055
0.87417
0.124184
8.36641e-07
0.000318054
0.000385446
0.00017942
0.000235187
3.41111e-06
0.0993963
0.867634
0.86721
0.0997524
8.36641e-07
9.97381e-05
0.000401068
0.000252267
0.000221455
5.13393e-06
0.0656603
0.838675
0.839544
0.064126
8.35019e-07
2.88604e-05
0.00036551
0.000252211
0.000106137
5.17713e-06
0.0435644
0.80949
0.809981
0.0431435
1.04443e-06
0.000163996
0.000393407
0.000252274
9.35606e-05
4.01822e-06
0.0349486
0.7964
0.798042
0.0359292
2.20781e-06
0.000243647
0.000401725
0.000252211
0.000110955
3.0745e-06
0.0327009
0.793734
0.79737
0.0352694
1.65466e-06
0.000246677
0.00040174
0.000249974
9.9968e-05
2.64057e-06
0.0450908
0.818565
0.820358
0.0468946
7.93315e-07
0.000202865
0.000401743
0.000243439
6.86072e-05
2.45528e-06
0.0787199
0.862894
0.862209
0.078346
6.9757e-07
0.000126595
0.00040174
0.000127336
4.84615e-05
2.38209e-06
0.117033
0.895825
0.89507
0.115868
6.80573e-07
4.62697e-05
0.000390981
0.000149154
4.95712e-05
2.29733e-06
0.144317
0.911487
0.911233
0.144019
6.80755e-07
9.30035e-06
8.4105e-05
0.000168308
7.22477e-05
2.05202e-06
0.157379
0.917008
0.916261
0.156906
6.76334e-07
2.63859e-05
4.32558e-05
0.000168703
8.19785e-05
1.7382e-06
0.161223
0.918369
0.916555
0.158844
5.5829e-07
3.63345e-05
6.81297e-05
0.000168703
8.48708e-05
1.35184e-06
0.159518
0.918253
0.916856
0.158442
3.83247e-07
2.52812e-05
6.81593e-05
0.000168669
5.74205e-05
1.04669e-06
0.159002
0.919609
0.919148
0.158891
3.21412e-07
1.08457e-05
6.80427e-05
7.69243e-05
2.15282e-05
9.63459e-07
0.170755
0.92535
0.92524
0.171148
3.20817e-07
5.99518e-07
2.88287e-05
2.53123e-06
5.08267e-06
9.47433e-07
0.192567
0.935377
0.935299
0.19295
3.21412e-07
2.98441e-07
1.06827e-05
2.52303e-06
4.45989e-06
9.29787e-07
0.21895
0.945583
0.945612
0.219339
2.95652e-07
2.49553e-07
1.85466e-07
2.53001e-06
6.30275e-06
9.04929e-07
0.247612
0.954639
0.955576
0.250153
3.32819e-07
2.17843e-05
1.86244e-07
2.53255e-06
8.52967e-06
8.45582e-07
0.277651
0.962672
0.963781
0.281548
5.19439e-07
9.17869e-05
7.40817e-06
2.53631e-06
1.5596e-05
7.2627e-07
0.312404
0.970759
0.970669
0.313176
1.10131e-06
9.56363e-05
0.000120861
2.20164e-05
2.18904e-05
5.33241e-07
0.347253
0.977363
0.976288
0.343076
1.88971e-06
5.13282e-05
0.000120861
5.34319e-05
2.07054e-05
4.12247e-07
0.38321
0.982711
0.981751
0.376855
2.41423e-06
2.53163e-05
0.000120861
5.33911e-05
4.64213e-06
3.31437e-07
0.419294
0.986677
0.986516
0.416701
2.71797e-06
4.38769e-06
3.19266e-05
8.04271e-06
1.41708e-07
1.96246e-07
0.465046
0.990161
0.990389
0.466748
2.95675e-06
3.95262e-05
1.10825e-05
1.41891e-07
1.41547e-07
1.41708e-07
0.528552
0.992975
0.993263
0.529005
3.62548e-06
5.04476e-05
5.04845e-05
1.41542e-07
1.41542e-07
1.41547e-07
0.602269
0.995
0.995288
0.603861
6.45052e-06
4.52172e-05
0.000189286
7.74534e-07
1.41547e-07
1.43926e-07
0.679467
0.996626
0.996682
0.680414
5.09931e-06
4.20211e-06
0.000189596
3.06413e-06
1.43926e-07
1.48414e-07
0.758703
0.99772
0.99778
0.758292
4.20211e-06
4.01819e-06
0.000159738
4.49197e-06
1.48414e-07
0.0330044
0.823747
0.998625
0.998706
0.823773
0.0309305
2.54942e-06
0.000109128
5.30575e-06
1.8743e-07
0.110288
0.886482
0.999325
0.999426
0.886647
0.10737
1.47191e-06
4.09283e-05
2.1789e-06
6.05098e-07
0.222144
0.946588
0.999814
0.999714
0.946363
0.219785
3.47471e-10
3.11848e-10
2.04033e-06
1.58286e-06
0.412147
0.987643
0.999924
0.999933
0.982967
0.39804
5.0878e-09
1.48244e-10
1.33454e-10
5.31407e-06
0.650779
0.999943
0.999977
0.999971
0.999947
0.666166
1.08533e-06
1.84199e-11
6.07279e-11
0.121013
0.885415
0.999977
0.999999
0.999996
0.999976
0.864246
0.0672652
1.32539e-11
-2.14533e-10
0.621454
0.999903
0.999999
1
1
0.999995
0.997602
0.533276
-8.67569e-12
0.35958
0.975032
1
1
1
1
1
1
0.964242
0.313187
0.955421
0.955421
0.955421
0.955421
0.91913
0.693071
0.758545
0.948711
0.953679
0.953223
0.784293
0.566163
0.950087
0.950264
0.950433
0.95388
0.953939
0.942641
0.900801
0.900491
0.908737
0.958401
0.960019
0.958465
0.958424
0.958434
0.958484
0.958523
0.958516
0.932106
0.910334
0.909748
0.91044
0.909768
0.908286
0.906051
0.904428
0.88403
0.877923
0.877872
0.954656
0.955421
0.955421
0.813814
0.733028
0.691466
0.825393
0.954678
0.954205
0.702611
0.535771
0.535507
0.535531
0.535887
0.763157
0.953939
0.953963
0.952499
0.947496
0.947863
0.957561
0.958405
0.9584
0.958459
0.958425
0.958492
0.958523
0.958523
0.958523
0.958516
0.958442
0.953928
0.837643
0.735128
0.737977
0.792733
0.887308
0.868416
0.877945
0.877908
0.954356
0.849178
0.537353
0.318444
0.388564
0.843018
0.954777
0.954791
0.954678
0.881866
0.543692
0.53552
0.535507
0.53552
0.53586
0.769995
0.815614
0.68708
0.687169
0.687258
0.687258
0.75792
0.958361
0.897415
0.837433
0.924524
0.958484
0.958523
0.958516
0.958431
0.95811
0.909057
0.48237
0.424819
0.424716
0.425046
0.554971
0.573302
0.584205
0.658163
0.854257
0.376615
0.291623
0.296162
0.415509
0.954777
0.954791
0.954788
0.95479
0.952393
0.898192
0.888823
0.946034
0.954957
0.954888
0.925191
0.753932
0.68708
0.840941
0.824162
0.700039
0.57614
0.577469
0.527761
0.509246
0.509389
0.785302
0.958472
0.958395
0.941516
0.931539
0.924006
0.738773
0.478939
0.444806
0.496225
0.459533
0.451442
0.45145
0.451441
0.744601
0.290698
0.29088
0.291623
0.47123
0.954746
0.954777
0.954546
0.935846
0.955109
0.955101
0.955095
0.955085
0.955082
0.955067
0.954913
0.834103
0.776936
0.849954
0.849954
0.848224
0.703418
0.647151
0.509246
0.509246
0.509246
0.510653
0.861322
0.955523
0.773323
0.771948
0.922277
0.955624
0.955626
0.955618
0.955506
0.916964
0.787032
0.695375
0.725222
0.529533
0.290643
0.290668
0.29088
0.504263
0.954638
0.950106
0.852566
0.884057
0.955109
0.955109
0.955101
0.955095
0.955074
0.954952
0.921112
0.819183
0.818805
0.841083
0.773548
0.871984
0.941899
0.929643
0.706666
0.576939
0.637107
0.617222
0.859498
0.843234
0.76348
0.767503
0.952604
0.955626
0.955624
0.955586
0.955346
0.954993
0.954864
0.954865
0.954863
0.598156
0.290658
0.290627
0.290668
0.637049
0.954239
0.913361
0.852566
0.874025
0.955109
0.95511
0.955109
0.955085
0.954843
0.886482
0.499574
0.350104
0.350104
0.649444
0.875197
0.941899
0.942107
0.942114
0.942145
0.923531
0.913196
0.899141
0.855908
0.763813
0.76315
0.824875
0.955574
0.955624
0.955586
0.955346
0.954874
0.954792
0.954853
0.95486
0.954869
0.902491
0.417748
0.290668
0.317161
0.907244
0.95363
0.92093
0.852566
0.930297
0.95511
0.955109
0.95509
0.954691
0.795071
0.486847
0.354703
0.350104
0.351961
0.353818
0.35494
0.616408
0.88777
0.940963
0.942639
0.942655
0.942488
0.878575
0.764259
0.76315
0.822818
0.955538
0.955581
0.955568
0.949219
0.769188
0.654205
0.869559
0.954101
0.941525
0.945535
0.933841
0.843445
0.516069
0.584555
0.953052
0.953168
0.952174
0.916436
0.952899
0.955109
0.95511
0.955096
0.869407
0.624658
0.424811
0.787789
0.839323
0.528092
0.356545
0.354194
0.354194
0.354194
0.746644
0.942639
0.942545
0.814056
0.762694
0.76369
0.812964
0.955497
0.955547
0.955529
0.938921
0.645871
0.230864
0.111231
0.288705
0.726621
0.962092
0.962092
0.914518
0.904761
0.927143
0.937531
0.951579
0.953052
0.9529
0.9348
0.880227
0.891237
0.769108
0.472169
0.274901
0.238837
0.076626
0.342061
0.863198
0.912489
0.912489
0.654137
0.501839
0.869263
0.915189
0.942545
0.879871
0.762694
0.762694
0.762694
0.913929
0.955383
0.955497
0.861833
0.503336
0.153829
0.111218
0.111205
0.111231
0.270128
0.876724
0.962093
0.722
0.937068
0.938192
0.938192
0.921984
0.951631
0.952796
0.95272
0.912734
0.669168
0.205329
0.0777962
0.0711474
0.0666677
0.0658446
0.0687606
0.255065
0.907947
0.912207
0.911925
0.810941
0.751584
0.785081
0.941486
0.941409
0.90471
0.76274
0.765173
0.877788
0.955319
0.952197
0.609676
0.141003
0.111218
0.111205
0.111218
0.111416
0.182019
0.742409
0.96209
0.522097
0.533803
0.897826
0.938192
0.934665
0.916888
0.742243
0.624868
0.849124
0.844427
0.644756
0.179792
0.0666743
0.0658446
0.0656316
0.0655355
0.0655555
0.303296
0.861408
0.910096
0.902434
0.74907
0.734887
0.734936
0.808835
0.941273
0.94137
0.935368
0.950065
0.952763
0.942541
0.640117
0.116556
0.111228
0.111218
0.111416
0.124961
0.175887
0.720943
0.962052
0.546629
0.328654
0.526544
0.926496
0.932799
0.890899
0.619329
0.611219
0.605905
0.605378
0.833828
0.874148
0.625549
0.093777
0.0657685
0.0655555
0.0655169
0.0655555
0.0772959
0.638561
0.945494
0.954201
0.882351
0.734832
0.727815
0.727867
0.88044
0.965433
0.965634
0.965838
0.960302
0.860934
0.498042
0.303029
0.191571
0.273767
0.63766
0.411579
0.738418
0.961356
0.343967
0.322738
0.32297
0.682098
0.933546
0.949831
0.656181
0.605905
0.605002
0.604892
0.607453
0.910982
0.957261
0.765457
0.149767
0.0660531
0.0655555
0.0655636
0.0655559
0.117015
0.746313
0.955503
0.956806
0.956745
0.932486
0.730776
0.734859
0.926707
0.965942
0.965969
0.918074
0.773206
0.745041
0.770601
0.801015
0.857874
0.905119
0.768515
0.753587
0.958398
0.322619
0.322118
0.322102
0.41855
0.911425
0.96424
0.804453
0.606271
0.604934
0.605002
0.611346
0.922896
0.961921
0.961712
0.541604
0.0735081
0.0659054
0.0655536
0.0655636
0.319294
0.785632
0.814286
0.833822
0.948282
0.95586
0.949898
0.880654
0.94164
0.966076
0.966102
0.843522
0.229628
0.091623
0.2979
0.843344
0.905238
0.904791
0.765038
0.750302
0.954623
0.322118
0.322097
0.322118
0.566149
0.9578
0.967807
0.933926
0.615973
0.606271
0.605002
0.867779
0.963068
0.962923
0.96204
0.577164
0.0717923
0.0662437
0.0659054
0.28317
0.89347
0.889724
0.789068
0.789068
0.789068
0.917781
0.965876
0.966067
0.966097
0.966106
0.966106
0.966102
0.377036
0.077967
0.0778218
0.369018
0.899376
0.905236
0.492966
0.743917
0.954571
0.384349
0.525677
0.735045
0.940371
0.968106
0.968403
0.968322
0.836057
0.748347
0.889247
0.964013
0.964278
0.963191
0.909881
0.328237
0.069502
0.0681004
0.255239
0.887495
0.966389
0.914617
0.790069
0.789068
0.885668
0.965821
0.966111
0.966097
0.966106
0.966106
0.966106
0.85443
0.188584
0.0761917
0.0769573
0.278259
0.874682
0.904791
0.427531
0.815978
0.954564
0.913875
0.953543
0.968222
0.9684
0.968476
0.968469
0.968459
0.968314
0.968056
0.965832
0.964211
0.964013
0.806939
0.313951
0.0741792
0.0689731
0.0875733
0.676702
0.966389
0.967808
0.941214
0.796161
0.89675
0.965821
0.96611
0.966126
0.96611
0.966097
0.868425
0.397892
0.0899355
0.0756396
0.0758745
0.0762024
0.40979
0.86563
0.867902
0.391532
0.823668
0.954564
0.968474
0.968486
0.968499
0.968503
0.9685
0.968476
0.96846
0.968458
0.968278
0.96554
0.75531
0.35704
0.123366
0.0699868
0.0688226
0.06864
0.0992212
0.710171
0.967808
0.969767
0.956163
0.886582
0.951252
0.96601
0.966124
0.96611
0.906982
0.289244
0.0895083
0.0758501
0.0755359
0.0758501
0.128285
0.6102
0.810726
0.835058
0.621409
0.348895
0.705955
0.930807
0.968486
0.968499
0.968506
0.968506
0.968503
0.96636
0.965416
0.887967
0.570771
0.220926
0.0875347
0.0686577
0.0684254
0.0682642
0.0683402
0.0685533
0.14561
0.784943
0.969767
0.9712
0.971361
0.971381
0.950694
0.94107
0.951883
0.966126
0.965919
0.595453
0.0982378
0.0785774
0.100942
0.542326
0.665578
0.654444
0.164184
0.175897
0.113607
0.423585
0.64457
0.722942
0.968497
0.968506
0.968506
0.968506
0.964836
0.738779
0.36533
0.156125
0.0734283
0.06849
0.0681637
0.0681074
0.0680842
0.0680752
0.0682642
0.0683971
0.498442
0.958633
0.970795
0.971318
0.971381
0.971389
0.954924
0.94052
0.940539
0.963371
0.965884
0.939378
0.742896
0.664791
0.851021
0.886644
0.40011
0.0803428
0.0801882
0.0803038
0.0805473
0.202974
0.644029
0.64431
0.946448
0.966746
0.968506
0.968506
0.95997
0.759427
0.41984
0.132546
0.0684899
0.0681637
0.0681074
0.0680842
0.0680783
0.0680842
0.105783
0.578975
0.961489
0.970789
0.971303
0.971378
0.971389
0.97139
0.971188
0.94067
0.94052
0.940539
0.957522
0.970358
0.970346
0.970301
0.970279
0.897647
0.315527
0.0801882
0.080184
0.0801873
0.0802092
0.145606
0.817904
0.912913
0.325344
0.454645
0.669921
0.95236
0.959575
0.958853
0.923044
0.799137
0.604926
0.458707
0.387434
0.367461
0.392736
0.545375
0.833394
0.967657
0.970809
0.971303
0.971378
0.971389
0.971391
0.971393
0.97139
0.971356
0.942627
0.959322
0.970392
0.970387
0.970377
0.97035
0.970333
0.96113
0.407454
0.101003
0.0801873
0.0801853
0.0801873
0.578543
0.965052
0.946029
0.0263474
0.0266584
0.0268978
0.0269316
0.117019
0.61296
0.9183
0.907949
0.90131
0.893293
0.87167
0.854058
0.876707
0.891658
0.900171
0.906717
0.864669
0.787975
0.780626
0.812488
0.934325
0.971393
0.971359
0.971225
0.97113
0.970755
0.970393
0.970395
0.970381
0.970356
0.970345
0.970326
0.794254
0.499178
0.215847
0.291191
0.549216
0.956063
0.966107
0.876566
0.0290546
0.0271117
0.0269316
0.0268974
0.0271482
0.0391627
0.106418
0.190028
0.232791
0.279655
0.447901
0.600539
0.610638
0.559074
0.423963
0.260329
0.169043
0.115208
0.114983
0.133102
0.20178
0.325096
0.533246
0.844129
0.970701
0.970402
0.970389
0.970382
0.968872
0.968504
0.969815
0.969908
0.969789
0.956818
0.891936
0.907298
0.961137
0.967201
0.966504
0.864249
0.42967
0.264436
0.211437
0.150869
0.111593
0.133656
0.164956
0.181924
0.241991
0.316443
0.127237
0.0871109
0.078585
0.0557988
0.0309086
0.0282769
0.0273651
0.0268864
0.0265137
0.0264584
0.0261104
0.0260119
0.0288139
0.0916529
0.481241
0.970154
0.970363
0.970376
0.969828
0.968488
0.968488
0.968488
0.969342
0.96927
0.968899
0.967286
0.967201
0.96721
0.962074
0.863661
0.926723
0.897582
0.89086
0.878655
0.872158
0.937817
0.958136
0.945216
0.81302
0.520574
0.299718
0.145878
0.0833567
0.040643
0.0283292
0.0274189
0.027018
0.0267828
0.0264607
0.0260947
0.0255827
0.0257047
0.0256542
0.0257319
0.0263211
0.254753
0.764397
0.970353
0.970038
0.969522
0.969349
0.969271
0.969268
0.969331
0.957166
0.963914
0.967217
0.967201
0.913436
0.863734
0.933443
0.967932
0.975195
0.975236
0.975195
0.975115
0.973169
0.972291
0.97133
0.966321
0.822482
0.71813
0.65297
0.572391
0.605657
0.472567
0.325143
0.0681496
0.0260826
0.0257121
0.0257047
0.0256542
0.0255837
0.025562
0.0256008
0.0262663
0.224673
0.88516
0.969503
0.969354
0.969344
0.969272
0.969303
0.969203
0.885522
0.926447
0.967078
0.967201
0.839323
0.897406
0.410464
0.652554
0.894038
0.975245
0.975236
0.975187
0.975068
0.965241
0.836715
0.751753
0.854603
0.89497
0.900721
0.90124
0.90124
0.90124
0.90019
0.777587
0.392992
0.0856254
0.0253982
0.0255837
0.025562
0.025562
0.025562
0.0755019
0.475813
0.769413
0.589984
0.586089
0.853201
0.969268
0.954748
0.887288
0.885522
0.947311
0.9661
0.85206
0.837722
0.968162
0.389409
0.398455
0.793541
0.975242
0.975245
0.975117
0.974516
0.955604
0.655224
0.527209
0.52721
0.527209
0.527298
0.716605
0.819872
0.696299
0.49103
0.649326
0.616987
0.542473
0.323962
0.057029
0.0255837
0.025562
0.0362558
0.218744
0.276068
0.260146
0.301473
0.649765
0.931647
0.965924
0.910728
0.891269
0.941434
0.942511
0.86095
0.835285
0.912161
0.970531
0.456702
0.827818
0.975914
0.975551
0.9721
0.959071
0.973205
0.969106
0.891852
0.643447
0.532677
0.550595
0.628162
0.554284
0.324006
0.182772
0.124672
0.144341
0.267677
0.371422
0.296204
0.0340194
0.0260623
0.0274627
0.059134
0.073176
0.0745641
0.379966
0.757867
0.886384
0.924185
0.933742
0.937614
0.939174
0.939418
0.911416
0.834056
0.834727
0.970531
0.970535
0.975983
0.975983
0.975978
0.975914
0.956135
0.845594
0.884437
0.965728
0.964843
0.964949
0.964843
0.943172
0.931214
0.488469
0.0580221
0.0557581
0.0578984
0.0974102
0.104807
0.0885209
0.0551873
0.0267295
0.0265192
0.0267295
0.0280539
0.225158
0.686888
0.803271
0.803271
0.704615
0.7476
0.934701
0.935918
0.913482
0.829238
0.821182
0.905332
0.96422
0.970535
0.970535
0.975983
0.975982
0.975975
0.975804
0.963158
0.840449
0.789151
0.854308
0.964949
0.964949
0.964949
0.964843
0.948713
0.392481
0.0557581
0.0551543
0.0485689
0.0459296
0.0394513
0.0353313
0.0317699
0.0275918
0.0471559
0.351101
0.571774
0.692344
0.730047
0.733825
0.655289
0.654059
0.654547
0.749955
0.816499
0.667695
0.678443
0.893953
0.970327
0.970534
0.970535
0.970535
0.975982
0.97598
0.975975
0.919742
0.904006
0.939091
0.787786
0.761441
0.904779
0.964949
0.964843
0.964466
0.963276
0.657323
0.0750169
0.0507641
0.0458903
0.0437425
0.0416493
0.0374613
0.0353313
0.403521
0.851475
0.95979
0.969019
0.859176
0.654717
0.654021
0.654025
0.654025
0.654059
0.654547
0.657823
0.664286
0.708335
0.952921
0.969277
0.928031
0.888363
0.89304
0.975933
0.975975
0.97597
0.915148
0.891556
0.939347
0.939347
0.762245
0.693725
0.875974
0.948915
0.96311
0.962217
0.910118
0.292318
0.0514017
0.0516079
0.044891
0.0437425
0.0435557
0.23735
0.86652
0.96988
0.969832
0.969821
0.969549
0.82653
0.654717
0.654023
0.742671
0.762865
0.687174
0.66615
0.786946
0.92123
0.961777
0.880812
0.795711
0.795672
0.795711
0.975959
0.97597
0.975964
0.975795
0.92523
0.939347
0.939214
0.90064
0.582092
0.727526
0.95835
0.909798
0.937357
0.963862
0.697817
0.0848728
0.0521239
0.047181
0.0469765
0.0550148
0.493898
0.969883
0.969871
0.969835
0.96984
0.969846
0.967974
0.93887
0.927508
0.964249
0.967924
0.94887
0.936413
0.964764
0.967236
0.963658
0.822529
0.795829
0.822419
0.83559
0.975938
0.975914
0.9758
0.975355
0.934731
0.878639
0.85125
0.760607
0.580806
0.75266
0.963211
0.939335
0.930384
0.965071
0.946664
0.388678
0.0524583
0.0504735
0.0491054
0.197489
0.88339
0.969885
0.969844
0.969838
0.969845
0.969847
0.969844
0.969825
0.969783
0.96979
0.96976
0.969715
0.969526
0.968546
0.967739
0.947992
0.810232
0.833689
0.83559
0.835611
0.957327
0.924489
0.857928
0.697172
0.48185
0.373454
0.245037
0.336865
0.581729
0.907513
0.965568
0.96557
0.964199
0.965569
0.965433
0.867006
0.257029
0.0874304
0.255247
0.764501
0.969849
0.969874
0.969842
0.969845
0.969847
0.969847
0.969847
0.969844
0.969832
0.969798
0.969786
0.96975
0.969708
0.963866
0.89963
0.78643
0.811666
0.781807
0.778182
0.798811
0.392388
0.239181
0.112092
0.000354782
0.00249285
0.0148328
0.262015
0.803103
0.921089
0.965567
0.96557
0.965579
0.965578
0.965578
0.965569
0.965331
0.873079
0.746605
0.883155
0.969682
0.96986
0.96986
0.969858
0.969848
0.969847
0.969847
0.969847
0.969844
0.969842
0.969833
0.969798
0.969757
0.969676
0.811919
0.58448
0.575183
0.462809
0.244557
0.240581
0.483109
0.000222167
0.00022863
0.000240322
0.000248705
0.000354788
0.0420314
0.263044
0.315918
0.564932
0.815883
0.960635
0.965578
0.965578
0.965578
0.965578
0.965566
0.965285
0.890814
0.778271
0.763127
0.740257
0.784369
0.857868
0.895963
0.876108
0.847269
0.85624
0.90274
0.950877
0.969798
0.969758
0.9697
0.918973
0.546165
0.297588
0.234811
0.00238005
0.00659028
0.00720615
0.0404001
0.000218443
0.000222167
0.00022863
0.000255256
0.000419009
0.00875992
0.0569386
0.00261312
0.055693
0.1454
0.215765
0.311539
0.459091
0.567854
0.739679
0.802437
0.685971
0.45044
0.218548
0.11375
0.083194
0.115458
0.166386
0.192188
0.169712
0.16949
0.152497
0.217722
0.428268
0.671411
0.762774
0.754483
0.421372
0.16011
0.0082121
0.00192072
0.00206606
0.0106354
0.0127447
0.00666592
0.00025629
0.000536577
0.000781226
0.00137661
0.000689573
0.00191768
0.0019715
0.00261293
0.00217549
0.000190353
0.000174369
0.000181339
0.00229518
0.0162982
0.0883672
0.14445
0.0773197
0.0152574
0.00244426
0.0018694
0.00903859
0.0211255
0.0211519
0.0154107
0.0161052
0.00921011
0.00425534
0.00166107
0.00427954
0.045837
0.081933
0.0826401
0.00715072
0.000896914
0.00141063
0.00181639
0.00692741
0.0110034
0.010515
0.00665171
0.00107309
0.00346405
0.00363163
0.00364272
0.00361454
0.00373167
0.00373366
0.00373167
0.00365442
0.000513621
0.000152774
0.00015076
0.000155004
0.000193428
0.000699155
0.00176995
0.00120127
0.000682092
0.000413443
0.000421569
0.00396269
0.00188507
0.000209337
0.00145764
0.0025933
0.00907946
0.00366033
0.00119791
0.00120013
0.00127016
0.00128674
0.00102643
0.000903993
0.000883824
0.000849789
0.000821466
0.000430324
0.00868373
0.0105928
0.00665298
0.00172003
0.00361021
0.00364736
0.00250536
0.00157713
0.000424451
0.000499654
0.000685058
0.000660282
0.00025436
0.000149594
0.000149212
0.000149822
0.000151652
0.000180984
0.000305446
0.000243133
0.000208913
0.000192686
0.000180873
0.00171888
0.000412602
0.000189704
0.000356918
0.000340545
0.00213504
0.003957
0.00119802
0.00119791
0.00117586
0.00106479
0.000911205
0.000895316
0.000896396
0.00118154
0.00105626
0.000399774
0.000343015
0.00816086
0.0102409
0.000169056
0.00159855
0.00255848
0.000149226
0.000149075
0.00014904
0.000149031
0.00014904
0.000149203
0.000149397
0.000149363
0.000148873
0.000149212
0.000149822
0.000151652
0.000163576
0.000174428
0.000174948
0.000172833
0.000172467
0.000172776
0.000243616
0.000191826
5.52836e-05
5.40594e-05
5.27619e-05
0.00358656
0.00311203
0.0036165
0.00420179
0.00427595
0.00376441
0.00153607
0.00319141
0.00343809
0.00342749
0.00227466
0.000328532
0.0083842
0.0103107
0.000191116
0.00106222
0.000728253
0.000149505
0.000149192
0.000149036
0.00014904
0.000149036
0.000149053
0.00014909
0.000148893
0.000148973
0.000148987
0.000149227
0.000149893
0.000152818
0.000164686
0.000172833
0.000172225
0.000172776
0.000172242
0.0006855
0.000879223
0.000273041
5.26181e-05
4.58583e-05
6.08417e-05
6.74821e-05
8.39754e-05
0.0037461
0.00430674
0.00430674
0.00430674
0.00337285
0.000444194
0.000186239
0.000285232
0.00030531
0.00535279
0.0103107
0.000778572
0.00284677
0.00260029
0.000248212
0.000370053
0.000537367
0.000149036
0.00014904
0.000149053
0.000149083
0.000149034
0.000148973
0.000299567
0.00137993
0.00170297
0.00152663
0.00150641
0.00162823
0.0016248
0.0017852
0.00183577
0.00185198
0.00184796
0.00136404
5.89158e-05
3.3551e-05
8.67513e-05
0.000231124
0.000399147
0.000508068
0.00087319
0.00100721
0.00087525
0.000581462
0.000194572
0.000161395
0.000149272
0.000382817
0.00160229
0.00967645
0.00104115
0.00284677
0.00285076
0.00201664
0.000890923
0.0023096
0.000760448
0.000149053
0.000149083
0.000149228
0.000296536
0.00189043
0.00192218
0.00192218
0.00191878
0.000269107
0.00142696
0.00170445
0.000637287
0.000604834
0.000699568
0.00057035
0.000356708
0.000110774
3.15437e-05
3.2992e-05
3.50032e-05
5.60749e-05
7.69883e-05
0.000114192
0.000233914
0.000235303
0.000241263
0.000451471
0.000461785
0.000411786
0.000139398
0.000475554
0.000244653
0.00182748
0.00029917
0.00216775
0.0028586
0.00234967
0.000926888
0.00243895
0.00312527
0.0020399
0.000150044
0.000151959
0.00132956
0.00193607
0.00183803
0.000168763
0.000257086
0.00026964
0.000340673
0.00116297
0.000209977
0.000198962
5.78554e-05
3.03951e-05
2.94958e-05
2.94958e-05
2.96228e-05
0.000206227
0.000592175
0.000724764
0.000724383
0.000721901
0.000704669
0.000672293
0.000638235
0.00046095
0.000348133
0.000143622
0.000129493
0.000163988
0.00013645
0.00015884
2.27339e-05
0.000537492
0.00284831
0.00307509
0.00311024
0.00312527
0.00312527
0.00312527
0.00286843
0.00248785
0.00286057
0.00144685
0.000113504
7.50229e-05
0.000343686
0.00128022
0.00128142
0.00128032
0.00128031
0.00122464
0.000180591
3.16769e-05
3.03951e-05
0.000117427
0.000733432
0.000741274
0.000746555
0.00074055
0.00067401
0.000216566
9.50585e-05
0.000219224
0.000385509
0.000191534
0.000129393
0.000128731
0.000129112
0.000129493
0.00013128
0.000185087
2.43139e-05
2.46533e-05
0.000211097
0.00120465