/*--------------------------------*- C++ -*----------------------------------*\
  =========                 |
  \\      /  F ield         | OpenFOAM: The Open Source CFD Toolbox
   \\    /   O peration     | Website:  https://openfoam.org
    \\  /    A nd           | Version:  8
     \\/     M anipulation  |
\*---------------------------------------------------------------------------*/
FoamFile
{
    version     2.0;
    format      ascii;
    class       volScalarField;
    location    "3";
    object      p;
}
// * * * * * * * * * * * * * * * * * * * * * * * * * * * * * * * * * * * * * //

dimensions      [1 -1 -2 0 0 0 0];

internalField   nonuniform List<scalar> 
9150
(
-204.772
-205.776
-206.386
-206.86
-207.101
-207.092
-206.85
-206.375
-205.775
-204.77
-224.819
-225.339
-225.753
-226.078
-226.244
-226.247
-226.077
-225.75
-225.336
-224.816
-244.711
-244.998
-245.249
-245.467
-245.572
-245.578
-245.464
-245.242
-244.993
-244.709
-264.449
-264.627
-264.796
-264.951
-265.036
-265.028
-264.946
-264.793
-264.625
-264.447
-284.068
-284.252
-284.385
-284.512
-284.589
-284.579
-284.519
-284.39
-284.253
-284.067
-118.635
-119.554
-119.365
-118.921
-118.751
-118.739
-118.891
-119.315
-119.511
-118.6
-134.269
-134.973
-135.184
-135.24
-135.151
-135.155
-135.252
-135.192
-134.97
-134.254
-150.77
-151.518
-151.829
-152.175
-152.232
-152.224
-152.164
-151.812
-151.502
-150.76
-167.634
-168.752
-169.179
-169.831
-169.996
-169.997
-169.844
-169.189
-168.762
-167.642
-184.57
-186.669
-187.407
-188.133
-188.385
-188.394
-188.135
-187.404
-186.668
-184.568
-25.8583
-26.7697
-28.4954
-29.4128
-29.9903
-30.0289
-29.5435
-28.448
-26.3158
-24.6037
-45.8548
-45.957
-46.8641
-47.1526
-47.5508
-47.4623
-46.9819
-46.5531
-45.5199
-45.2872
-65.6055
-65.4857
-66.4601
-65.9773
-66.5042
-66.4613
-66.0014
-66.2906
-65.2389
-65.298
-88.3611
-85.5953
-86.6626
-85.0371
-85.2514
-85.2196
-84.9397
-86.5143
-85.4583
-88.2022
-114.549
-104.582
-104.251
-102.651
-102.325
-102.327
-102.639
-104.201
-104.504
-114.431
530.623
525.709
528.955
527.716
525.433
522.643
519.628
517.14
514.891
515.241
507.576
504.612
512.234
508.262
508.369
506.098
501.655
496.774
491.45
490.694
496.606
497.949
501.069
492.165
487.9
488.085
484.025
486.321
485.907
470.686
489.492
488.837
486.997
478.406
472.268
472.011
467.298
462.217
456.795
451.066
482.05
480.048
477.694
475.183
464.871
459.605
454.608
446.661
441.746
436.596
476.211
465.769
459.916
463.087
452.3
443.995
437.1
431.135
426.06
421.577
444.28
436.504
435.642
424.368
422.94
417.565
414.566
412.444
411.524
411.658
413.636
399.55
392.986
385.277
383.927
383.69
382.817
386.476
391.639
398.436
353.159
332.561
326.652
325.876
329.606
337.927
348.231
360.173
370.382
381.445
326.72
313.598
308.191
303.374
301.148
300.576
304.788
320.685
340.907
364.37
305.476
303.039
301.418
299.31
299.032
299.871
300.196
300.799
319.084
346.751
296.839
297.998
297.078
296.63
297.08
297.936
298.851
300.222
299.805
325.901
288.274
292.436
294.332
295.557
296.246
296.871
296.802
293.725
285.134
288.874
283.163
287.371
290.62
292.612
294.009
293.934
290.528
279.797
272.296
251.48
279.874
283.524
286.297
287.701
287.519
287.44
286.464
273.011
253.437
253.443
279.247
281.304
282.074
277.562
275.153
279.567
275.354
262.083
256.481
253.211
273.904
276.462
277.386
275.436
275.304
269.335
259.395
258.23
250.609
246.41
269.594
271.921
270.622
267.356
264.553
262.287
267.626
254.679
239.281
236.427
273.023
267.844
263.792
259.642
256.289
255.906
252.176
246.892
243.535
242.905
254.102
249.521
244.36
236.43
240.358
243.609
243.93
241.862
240.794
240.861
240.799
239.684
238.909
238.951
234.234
234.345
234.723
234.923
233.523
231.899
244.257
241.961
239.162
236.931
235.201
234.118
233.085
228.386
227.972
230.55
241.577
240.182
237.863
235.819
233.926
232.503
231.3
230.418
230.142
229.718
241.326
236.469
235.259
231.395
231.138
229.903
227.379
226.426
226.701
227.096
221.944
231.852
230.507
224.062
226.433
225.888
221.383
221.965
225.2
225.869
150.272
177.658
191.066
196.036
204.741
214.395
217.799
219.973
219.55
221.648
89.1489
120.451
148.491
164.126
178.433
206.939
187.094
200.157
203.517
206.866
81.9582
104.038
130.132
146.642
160.903
167.677
174.915
169.048
178.045
179.971
100.204
107.229
117.251
127.901
142.685
152.088
158.996
159.913
160.849
162.209
144.565
134.008
116.978
113.769
126.737
139.615
147.362
152.186
153.071
154.06
159.822
178.032
110.452
119.545
135.277
144.008
145.039
142.504
144.205
147.333
145.271
169.158
117.083
151.739
178.007
169.34
150.975
135.378
125.615
117.725
93.515
106.662
78.0931
115.518
167.148
173.979
137.882
122.153
109.503
100.215
25.482
35.8441
31.6557
43.5208
103.844
136.91
102.323
101.958
88.6888
82.8106
4.25332
6.3456
7.89242
13.7051
50.6271
77.7705
62.496
79.6558
68.6835
66.9528
1.75032
2.46121
1.91236
3.87562
24.0609
53.4033
59.4876
61.7331
57.5612
55.7136
1.31456
0.846471
0.952498
1.2011
14.374
49.1778
56.9175
53.9926
51.1953
46.6868
-0.803845
-0.760323
-0.576932
-0.56758
7.74764
40.4035
51.1975
40.6859
35.6435
30.4034
-0.917495
-0.867021
-0.968394
-0.892475
4.64233
13.5468
35.098
8.37964
11.5002
6.85093
-0.968441
-0.928893
-0.978044
-0.970089
20.8216
14.9479
10.4999
0.855032
0.481508
0.836055
-1.03627
-1.03728
-1.08305
-1.29461
33.5728
11.3386
0.604635
0.738418
0.566709
0.639081
-1.02852
-1.01702
-1.00557
-1.06718
22.7607
24.0113
0.415396
0.617966
0.607314
0.617317
-1.00906
-0.980271
-0.919665
-0.723821
21.6907
21.3024
0.678814
0.625614
0.61517
0.613997
-1.04155
-1.03797
-1.0003
-0.693009
19.5521
19.4586
0.679601
0.552904
0.512439
0.510274
-1.09661
-1.10618
-1.03839
-1.04686
21.1994
15.9414
0.508679
0.442366
0.294976
0.32157
-1.12421
-1.11648
-1.13128
-1.10198
19.5253
21.5242
0.329599
0.220523
0.223045
0.24679
-1.16528
-1.13761
-1.10954
-0.994838
24.9649
24.8578
0.178724
0.146761
0.16205
0.190994
-1.12635
-1.09209
-1.03563
-1.26499
26.164
27.4652
0.0135096
0.118166
0.064404
0.0886052
-1.21603
-1.21447
-1.18322
-1.26297
27.591
24.8387
-0.0118387
0.0190466
-0.00502438
-0.0271425
-1.27027
-1.29915
-1.31246
-1.41343
43.5475
7.16224
0.0445361
-0.0745856
-0.127319
-0.153975
-1.28168
-1.3126
-1.3439
-1.44269
39.574
10.545
-0.0823599
-0.222487
-0.278594
-0.285819
-1.25882
-1.26812
-1.2575
-1.17425
7.50975
41.8437
-0.484249
-0.425162
-0.410227
-0.393747
-1.25811
-1.26889
-1.26493
-1.23002
20.7195
31.0331
-0.486092
-0.478901
-0.470705
-0.45523
-1.26203
-1.27585
-1.28257
-1.2737
25.4556
27.07
-0.522167
-0.524488
-0.514966
-0.502347
-1.25112
-1.26077
-1.2637
-1.26231
23.2853
23.5262
-0.568146
-0.560526
-0.550808
-0.537984
-1.22814
-1.23193
-1.23061
-1.2361
19.0168
19.127
-0.58932
-0.58068
-0.576539
-0.566603
-1.20652
-1.19789
-1.18937
-1.19034
16.4509
16.4585
-0.592627
-0.589743
-0.592997
-0.594808
-1.18741
-1.17162
-1.15865
-1.15187
15.4375
16.2093
-0.611232
-0.615196
-0.621986
-0.630229
-1.17909
-1.16658
-1.15495
-1.14655
18.8783
19.1107
-0.648115
-0.650477
-0.655942
-0.664699
-1.17679
-1.16216
-1.16071
-1.15358
24.9826
24.3824
-0.675772
-0.675309
-0.682079
-0.690694
-1.19004
-1.17603
-1.1746
-1.18712
27.9341
27.2785
-0.699646
-0.695825
-0.704333
-0.71494
-1.22536
-1.2146
-1.20003
-1.21162
27.7531
27.1179
-0.742221
-0.736483
-0.746352
-0.75527
-1.25842
-1.25149
-1.22657
-1.20206
23.8408
29.2358
-0.802402
-0.817836
-0.821058
-0.816729
-1.28378
-1.27062
-1.23053
-1.09805
8.66058
42.9449
-1.00428
-0.946279
-0.933524
-0.907601
-1.31499
-1.30363
-1.27806
-1.1625
13.308
38.2417
-1.07857
-1.03705
-1.02765
-0.987026
-1.34375
-1.34327
-1.33883
-1.31718
25.6516
26.4025
-1.04504
-1.06911
-1.05586
-1.04993
-1.36896
-1.37134
-1.36288
-1.3614
25.8479
25.6576
-1.09974
-1.10069
-1.0851
-1.09862
-1.38897
-1.3761
-1.37194
-1.3808
24.9174
25.4065
-1.13474
-1.12902
-1.13071
-1.137
-1.40123
-1.38369
-1.36941
-1.35522
20.7772
29.0516
-1.18738
-1.15451
-1.16134
-1.15579
-1.41523
-1.40223
-1.37943
-1.35687
18.669
30.7452
-1.21063
-1.16046
-1.17047
-1.16686
-1.45038
-1.44337
-1.42715
-1.43949
23.8137
26.676
-1.16219
-1.14047
-1.16146
-1.17426
-1.4971
-1.4912
-1.47646
-1.48632
26.2795
25.9561
-1.15642
-1.1389
-1.16146
-1.18122
-1.54281
-1.53867
-1.52863
-1.51678
27.0011
25.6822
-1.14834
-1.16161
-1.17229
-1.19414
-1.59632
-1.60005
-1.59581
-1.56491
26.4883
25.4218
-1.16092
-1.19271
-1.19402
-1.20332
-1.65524
-1.66691
-1.67195
-1.65532
28.9089
21.9682
-1.15982
-1.19759
-1.20505
-1.21467
-1.70427
-1.72683
-1.7531
-1.82712
41.3527
10.2699
-1.08255
-1.17538
-1.20275
-1.22014
-1.72675
-1.74755
-1.76804
-1.84589
37.5836
12.7705
-1.14756
-1.20271
-1.22622
-1.24094
-1.72514
-1.73388
-1.73693
-1.76842
26.3654
23.6442
-1.28645
-1.2632
-1.26994
-1.27737
-1.72888
-1.7299
-1.73026
-1.7596
24.3799
25.0654
-1.34057
-1.30894
-1.31081
-1.31633
-1.73418
-1.73389
-1.73332
-1.75207
24.0737
24.7051
-1.37117
-1.34863
-1.34931
-1.35189
-1.74018
-1.7393
-1.73892
-1.74869
23.3644
24.3552
-1.40223
-1.38702
-1.3864
-1.38714
-1.74846
-1.74618
-1.74381
-1.74366
20.3786
25.9411
-1.44389
-1.42621
-1.42266
-1.42086
-1.76067
-1.75848
-1.75423
-1.74781
18.6234
26.0925
-1.4767
-1.45849
-1.45298
-1.45055
-1.77725
-1.77738
-1.77794
-1.78217
21.0245
22.4554
-1.47889
-1.47192
-1.47473
-1.47453
-1.79571
-1.79816
-1.80471
-1.82632
24.8439
16.0576
-1.48408
-1.4839
-1.49154
-1.49909
-1.80579
-1.81027
-1.81889
-1.86386
25.0114
13.6338
-1.52536
-1.50963
-1.51848
-1.52982
-1.8124
-1.81375
-1.82075
-1.90405
22.1023
15.6239
-1.60982
-1.5543
-1.55709
-1.56407
-1.81754
-1.81635
-1.81631
-1.91104
14.9474
18.9287
-1.70111
-1.60177
-1.59896
-1.59822
-1.82397
-1.82251
-1.82341
-1.89777
13.5365
16.0167
-1.70729
-1.63163
-1.62909
-1.62897
-1.83177
-1.82933
-1.82924
-1.837
9.86042
14.6895
-1.68882
-1.66054
-1.65664
-1.65411
-1.84357
-1.84335
-1.84478
-1.90585
8.09626
11.1958
-1.75332
-1.6863
-1.68061
-1.68902
-1.85787
-1.86126
-1.85338
-2.0991
7.26215
6.60373
-1.93568
-1.7025
-1.71339
-1.72147
-1.8757
-1.87485
-1.89067
-2.1334
4.70725
5.09398
-2.08969
-1.7568
-1.74169
-1.74946
-1.88889
-1.88897
-1.96251
-1.93485
2.42166
3.07709
-1.98248
-1.84549
-1.77446
-1.77809
-1.90043
-1.90268
-2.05533
-1.80114
1.1803
0.910042
-1.41368
-1.98081
-1.80572
-1.80555
-1.91321
-1.91698
-2.41855
-1.2753
0.415319
-0.0532709
-1.30905
-2.14569
-1.83512
-1.83291
-1.92411
-1.91636
-3.60068
-2.00278
-0.669275
-0.537124
-1.26586
-3.03366
-1.84811
-1.85967
-1.936
-2.5462
-4.38191
-2.60364
-1.86431
-1.56789
-2.68623
-4.72604
-2.29762
-1.88534
-1.94361
-4.03616
-5.25802
-5.46822
-5.67173
-5.89281
-6.00159
-5.9693
-3.99974
-1.91346
-2.84588
-9.97111
-13.1791
-14.9994
-15.5931
-15.3856
-14.4281
-12.4425
-9.18621
-2.66266
516.924
519.88
523.001
524.153
523.056
533.838
526.432
520.351
515.751
510.9
503.544
509.468
498.508
495.987
492.744
490.758
487.616
483.685
479.006
475.3
472.08
471.349
472.353
474.346
477.634
482.4
488.535
494.776
499.438
501.621
501.162
497.354
491.338
485.461
483.294
484.749
488.933
491.26
491.787
492.55
489.74
488.312
490.165
494.744
501.877
508.295
501.034
500.966
494.824
491.29
491.062
488.056
484.289
482.487
473.273
470.6
469.545
465.169
458.223
450.157
444.285
442.308
445.643
450.034
453.318
456.422
461.526
466.819
470.379
470.815
469.234
463.136
455.038
450.362
456.47
463.863
471.721
474.932
474.263
476.664
468.818
448.728
453.082
479.318
482.724
478.077
477.161
475.695
472.386
469.809
475.983
473.901
471.639
469.324
466.496
452.651
449.652
443.875
439.433
433.175
428.189
423.256
426.236
426.853
427.734
427.229
431.896
438.393
444.364
448.257
449.647
445.995
448.378
452.544
456.734
461.956
461.063
461.994
462.696
464.337
441.021
438.442
443.66
449.841
450.682
451.814
452.149
451.475
449.459
446.521
446.297
444.726
442.132
440.125
438.424
433.98
427.264
430.523
418.662
415.273
412.453
414.502
413.096
417.122
420.34
420.299
416.685
420.514
427.029
428.324
427.615
426.976
434.248
446.764
452.068
454.878
456.891
458.599
460.471
461.665
430.737
431.676
433.196
432.975
430.446
428.535
428.913
426.855
424.097
420.609
417.782
414.417
411.971
411.298
409.694
405.981
398.569
396.56
396.228
396.496
395.007
398.838
401.558
406.796
408.057
408.52
408.133
406.616
415.888
412.538
411.655
407.208
412.094
417.922
425.147
431.387
433.887
436.149
441.017
442.679
420.728
423.113
423.583
421.958
417.64
413.882
412.146
408.218
401.61
395.077
390.707
386.549
383.334
379.949
371.716
361.139
353.847
358.728
365.699
374.4
378.682
385.352
385.667
387.501
391.656
390.204
392.03
389.786
388.001
388.284
386.293
383.719
385.046
388.788
394.601
401.369
408.149
414.069
419.613
422.2
414.053
417.2
417.09
414.401
407.186
399.925
391.209
386.425
377.309
370.151
365.832
363.522
363.136
357.892
345.089
337.491
341.643
342.705
340.769
352.895
361.356
363.107
365.518
368.235
369.534
370.587
371.188
370.247
370.408
368.407
361.904
357.661
355.959
357.383
360.827
366.087
373.905
383.565
391.725
394.655
403.362
406.367
412.347
408.787
395.2
381.831
372.252
367.265
354.047
346.665
341.59
341.322
343.255
337.267
328.539
330.456
333.62
338.685
344.098
346.456
342.574
343.329
346.584
349.246
350.333
351.657
351.014
349.362
348.27
341.921
338.734
334.777
331.434
329.023
327.809
327.675
333.414
346.494
357.034
362.892
389.206
387.862
392.767
390.838
371.745
360.634
350.471
340.102
328.424
317.299
308.971
304.729
304.529
298.628
294.347
296.366
320.445
320.18
333.8
338.325
339.095
338.215
333.198
334.817
335.386
330.696
332.421
331.503
327.52
325.092
321.992
319.662
317.892
315.853
318.803
324.869
317.317
318.021
326.791
333.169
380.047
380.353
374.496
366.265
352.481
340.401
329.002
315.611
303.106
290.485
281.93
277.945
277.136
279.581
279.004
262.875
283.745
304.578
311.33
313.6
323.243
311.962
316.742
321.623
318.901
320.274
319.125
317.143
312.619
310.421
307.609
306.471
307.726
308.958
309.46
310.157
309.957
309.264
310.042
316.801
370.928
374.352
362.61
349.395
335.927
321.479
308.166
295.794
284.557
273.843
277.215
280.799
278.411
275.855
272.695
269.775
270.527
281.111
291.208
299.74
304.501
311.037
313.479
315.399
315.295
310.521
309.401
307.279
300.028
298.892
296.752
298.37
304.355
305.936
305.535
305.251
305.461
304.089
300.384
310.008
354.239
349.108
334.593
324.966
313.844
299.841
288.757
279.445
262.895
262.47
260.999
273.459
274.751
272.919
270.937
267.766
265.313
264.405
266.331
282.152
294.729
304.063
312.288
314.717
312.295
307.515
300.931
290.584
292.737
287.517
288.602
292.49
300.767
301.066
301.443
300.808
301.398
301.44
293.3
301.953
277.81
300.232
290.954
286.157
286.298
278.29
272.795
265.808
259.828
257.759
266.433
274.551
268.944
267.808
266.695
264.007
261.879
259.604
260.563
261.374
275.979
293.151
297.016
303.636
303.935
300.531
293.088
288.289
285.214
282.796
281.639
284.586
286.853
288.502
294.505
292.27
291.354
296.722
289.458
296.369
247.353
258.291
264.889
264.567
271.403
269.878
264.147
263.331
261.613
259.81
260.076
267.459
272.35
264.659
260.909
260.121
259.225
259.391
259.848
260.564
258.644
274.71
284.216
289.473
291.028
298.81
296.832
282.257
278.946
273.219
271.644
273.295
271.294
279.706
283.258
288.079
293.485
292.688
296.468
298.688
250.138
253.176
258.473
260.456
258.172
264.058
257.877
260.277
260.533
259.978
259.884
257.471
259.91
259.529
255.25
254.619
255.224
256.5
258.289
256.932
254.507
261.723
268.441
275.362
280.044
279.516
280.499
275.451
272.465
269.357
268.022
278.343
289.012
278.361
282.575
292.362
297.478
302.651
306.61
309.263
251.363
253.158
255.463
253.109
250.321
252.249
252.283
257.489
259.846
258.478
253.025
250.318
250.082
249.47
244.128
244.55
248.208
250.521
253.284
254.503
256.295
256.908
261.466
264.771
265.286
268.321
269.597
268.927
268.112
269.918
270.912
271.883
286.306
287.292
280.284
289.576
306.306
316.996
308.822
312.037
245.914
245.463
244.512
242.454
242.488
243.804
244.902
248.103
250.432
243.978
241.482
238.479
236.554
234.183
229.844
232.464
236.678
233.883
239.784
246.344
246.881
252.255
255.465
254.262
256.138
258.292
259.693
262.028
265.075
272.192
277.992
271.046
279.865
279.874
278.602
288.563
310.14
320.257
305.38
304.724
238.333
241.045
241.732
240.807
239.615
238.964
239.293
239.603
239.189
234.906
229.622
224.848
220.187
215.369
217.614
220.455
219.562
219.808
227.409
233.051
235.559
247.482
243.796
246.905
249.33
250.75
251.46
253.995
259.196
262.28
267.688
270.394
272.232
273.042
269.212
290.071
301.344
317.234
300.25
298.385
242.61
241.905
239.781
236.545
233.613
231.382
230.511
230.019
226.533
221.907
214.787
210.093
210.643
211.44
211.722
212.265
213.738
210.555
216.903
222.588
226.767
234.382
235.936
240.495
243.018
244.86
246.312
257.362
266.894
268.688
268.404
268.901
268.373
269.91
275.739
274.066
271.122
300.895
267.866
283.172
239.294
236.133
231.936
227.172
222.076
218.015
216.371
213.818
209.247
209.776
211.27
211.155
210.707
210.532
210.827
209.97
209.311
206.713
210.821
216.048
220.773
225.066
228.466
232.639
234.977
237.735
240.276
246.693
264.21
265.936
264.284
259.421
270.998
259.427
255.239
255.439
258.155
256.517
251.026
256.215
230.509
227.696
223.26
217.788
211.013
206.12
209.753
213.989
215.231
214.295
213.334
212.439
212.055
212.088
211.155
210.256
204.501
201.335
203.332
206.395
209.765
213.889
217.628
221.769
224.415
226.963
229.382
231.535
239.987
243.395
254.018
261.414
249.058
252.475
250.822
252.342
249.972
246.758
246.141
247.287
230.347
226.687
222.629
216.873
210.776
203.026
204.697
213.426
215.249
213.929
213.002
212.877
212.998
212.65
211.23
206.236
198.417
194.683
194.108
194.219
195.328
198.568
202.926
207.362
211.063
214.432
218.107
224.077
231.098
237.073
243.636
245.548
247.559
252.748
252.966
253.063
252.849
251.135
248.936
254.301
226.247
223.66
227.986
231.191
226.014
220.384
212.785
204.194
200.316
203.794
205.583
204.82
203.705
200.357
199.109
190.028
181.348
177.651
175.326
173.499
174.829
178.224
182.135
186.538
192.173
197.05
202.787
209.092
215.71
222.555
229.599
236.448
244.828
250.702
252.779
252.872
254.81
250.091
251.424
255.32
226.666
225.567
225.258
225.391
222.502
213.57
215.555
212.563
207.931
204.184
193.559
186.288
179.354
171.101
160.622
148.695
141.459
139.134
138.988
139.815
142.701
147.105
152.465
160.105
168.342
176.385
184.492
192.03
199.465
206.855
214.113
221.075
229.249
237.34
246.653
243.981
242.958
242.143
248.057
250.628
225.565
224.258
222.781
222.126
222.147
220.362
213.789
202.013
187.928
172.062
159.647
149.851
142.862
135.959
126.061
124.659
126.14
127.642
127.576
127.203
126.479
126.336
127.045
133.414
144.015
155.224
164.768
173.505
182.251
190.668
198.387
205.597
211.938
217.38
221.197
225.333
230.57
236.171
242.541
249.548
222.494
216.249
213.789
213.463
214.439
212.386
204.539
190.673
169.371
149.507
146.051
143.033
137.498
132.655
129.941
128.293
126.677
124.906
123.852
123.314
123.371
124.098
124.733
124.309
125.283
135.129
144.265
155.164
165.887
175.766
184.521
192.077
198.806
205.512
212.279
218.115
224.454
231.094
237.911
244.814
207.557
203.039
200.232
198.362
198.199
196.596
187.253
172.737
153.569
134.467
125.043
124.78
126.752
127.896
127.083
125.245
122.731
120.901
120.122
120.493
121.109
121.667
122.136
122.194
122.126
121.283
121.782
134.325
148.065
158.965
168.425
177.274
185.047
192.516
200.802
209.036
216.793
223.642
228.751
234.033
180.449
182.067
181.319
179.882
177.5
173.29
165.987
156.086
146.008
136.019
125.766
123.314
122.279
120.515
124.373
120.506
113.92
111.888
113.968
116.447
118.098
118.953
119.605
119.959
120.064
118.883
112.735
119.66
137.451
147.203
156.481
164.508
171.469
179.039
191.495
197.548
206.97
212.097
217.309
217.914
163.189
158.688
156.445
157.655
156.304
152.472
146.495
138.532
132.839
129.375
125.65
125.616
121.587
122.989
124.855
126.062
124.343
113.49
108.294
113.121
115.548
116.293
117.135
117.969
118.139
118.37
118.785
131.424
128.667
139.206
136.428
144.916
150.846
160.495
173.05
182.45
191.824
197.566
202.694
199.647
154.47
153.331
145.086
141.716
138.938
135.894
131.903
126.264
124.316
127.006
122.631
117.741
112.834
106.42
107.336
98.8443
96.7867
103.079
112.01
112.158
112.383
112.464
115.129
117.276
118.578
122.068
123.482
128.51
129.495
118.165
116.389
122.253
127.328
138.543
149.128
160.119
173.374
181.353
178.503
181.249
141.572
132.826
128.458
126.053
123.877
122.155
120.258
116.834
112.121
113.682
113.689
104.764
97.7777
90.0349
92.214
92.4703
93.5414
93.5244
92.7885
97.514
102.654
107.702
112.98
116.194
119.113
121.308
123.765
118.078
108.748
103.708
102.91
105.817
110.391
118.892
129.384
139.335
152.823
160.209
160.307
161.584
113.609
109.528
108.163
108.776
109.764
115.55
111.912
109.208
108.984
106.754
102.908
100.121
98.4904
92.5819
97.3311
96.8011
96.5975
96.3335
94.9467
94.4934
100.689
106.708
110.499
114.07
117.218
115.905
112.66
108.014
98.2884
93.3197
94.3875
97.5271
101.884
105.675
114.415
123.111
126.644
135.147
138.465
139.33
92.5377
87.1072
86.605
90.6284
96.6873
102.968
110.445
106.791
107.549
106.827
104.753
102.772
99.3911
98.4422
99.9908
99.4375
99.1846
98.8597
98.7205
99.5543
102.06
104.868
106.752
106.737
105.76
104.456
103.046
98.3165
90.5552
90.178
90.3508
91.4638
95.6268
100.969
104.069
99.8803
104.76
108.606
111.828
112.989
74.4732
69.8514
70.7785
77.5126
84.3407
91.9022
102.362
109.691
105.118
107.497
108.159
106.812
103.305
101.972
102.908
101.62
100.695
99.8899
99.1806
99.0422
98.9004
100.671
104.906
106.786
104.761
98.3047
94.3979
93.2913
91.4796
90.2599
90.1476
90.9425
93.5426
94.1251
91.4639
86.1128
87.3259
87.3433
90.17
91.1531
62.2727
59.7732
62.1363
67.5291
73.7707
80.4014
93.2385
104.216
113.024
108.618
109.144
108.134
106.626
104.049
103.957
101.854
100.374
99.048
98.0019
96.6716
95.3819
96.671
95.6345
93.88
91.5501
88.5354
86.9536
91.0278
91.5582
89.1789
88.1606
86.9183
87.0767
81.3504
79.3107
80.4684
76.2554
78.0541
77.502
77.2114
51.1387
48.2536
48.8565
54.0338
57.8219
65.5543
76.1561
85.3547
105.847
96.0712
97.5335
102.352
105.912
108.265
102.768
99.932
98.4096
97.4646
96.122
94.8949
91.5471
88.3365
84.6165
81.3743
78.7746
76.839
76.1463
77.0366
79.2737
79.9939
76.9189
72.6794
70.0717
67.4416
64.6227
62.7983
62.4814
63.2501
59.9753
59.6167
40.2134
34.2423
29.9705
29.4241
31.6658
38.2736
43.3374
51.5447
68.9319
67.5478
73.3253
79.9851
86.9198
92.8337
94.7837
94.3067
94.6882
94.6936
93.266
91.0082
83.4386
76.4942
71.4221
67.2371
64.1863
62.412
61.6242
61.9042
62.7189
62.6671
59.8984
55.587
51.1221
46.7171
41.3057
34.4866
32.6422
34.2167
35.2235
36.7003
24.2996
18.367
11.6128
4.07867
-7.47642
-2.25446
24.7184
26.9876
28.6042
40.7126
50.9376
59.5761
66.66
72.7121
76.4574
78.7096
84.6317
91.5888
82.7417
73.0258
66.4248
59.2113
53.2504
48.4557
45.1214
43.4445
43.2808
43.4631
43.5953
42.7551
40.3985
36.3193
30.5293
23.7879
17.3556
4.53183
1.27358
9.53939
15.5578
19.4426
4.64116
3.15092
1.70678
1.26597
0.64244
-0.0734004
-6.19123
4.78793
19.6245
29.3525
35.0363
41.1084
47.1983
52.3132
55.9383
57.4102
55.5234
51.3954
52.8007
48.6044
41.8789
37.0551
33.6124
29.358
25.3505
23.8333
24.0186
24.444
25.5944
25.6871
23.7728
21.3626
17.4045
11.4382
11.4389
2.44973
-1.92587
-2.15119
1.43302
9.66693
0.880006
0.923492
0.947384
0.977156
0.896442
0.0953782
3.83107
2.27237
9.37268
15.7337
19.58
21.5865
25.4221
31.1864
37.4491
41.7454
41.7315
30.0804
19.3785
13.8226
10.8511
13.0981
14.4611
13.5399
10.7659
8.12681
5.73973
7.46573
12.6184
16.1227
17.3619
15.7186
10.4112
3.37269
0.26386
-0.353325
0.692279
1.04191
0.992768
1.0219
0.763801
0.844855
0.866029
0.915914
0.773666
0.594131
1.43175
0.402442
-0.0350497
1.69295
2.24885
2.61526
3.10043
6.60055
16.581
23.8616
16.65
7.28974
1.8976
1.94125
4.40412
5.21559
4.82961
3.99283
3.64981
3.14647
1.07671
0.422699
3.85621
11.1523
17.5816
15.9198
6.16647
0.784048
0.610899
0.749352
0.753439
0.457704
0.514543
0.419472
0.643652
0.677186
0.676394
0.650693
0.579988
0.366628
0.2756
0.337674
0.317841
0.30792
0.318126
0.320692
0.310324
0.367484
1.56178
2.73935
0.817849
0.274794
0.445972
0.589637
0.711277
0.758699
0.316697
0.295694
0.541885
0.548795
0.501125
0.51899
0.474906
0.476072
0.795221
0.988604
0.0740425
0.080106
0.128803
0.110999
0.0399185
0.333176
0.398654
0.516491
0.566535
0.62192
0.570739
0.488715
0.394609
0.270252
0.171201
0.130702
0.0790882
0.134481
0.164589
0.166134
0.144795
0.103164
0.0662406
0.0166208
-0.059795
-0.0930324
-0.136911
-0.24001
-0.238568
-0.0790105
-0.0271668
-0.0395453
-0.0177992
0.198988
0.0328492
0.128244
0.109256
-0.00636373
-0.100008
-0.106079
-0.0665574
-0.0578013
0.02416
-0.0253108
-0.0247432
0.108349
0.49105
0.622451
0.390412
0.421301
0.352847
0.193969
0.136243
0.100089
0.0617816
0.0301103
0.0267682
0.0426965
0.0633234
0.0691012
0.0595523
0.0397476
0.0185224
0.00515121
-0.0202836
-0.0770176
-0.175471
-0.270713
-0.236041
-0.174294
-0.129175
-0.146878
-0.133312
-0.12082
0.0131971
-0.0454678
-0.00125276
-0.0333711
-0.0619309
-0.0684445
-0.0570481
-0.0248424
0.0082017
0.025551
0.105244
0.173778
0.174628
0.567709
0.301626
0.265519
0.21314
0.113464
0.0854638
0.0553714
0.0260797
-0.00284664
-0.0157805
-0.00303484
0.00882885
0.0126896
0.0080032
0.000752156
0.00634225
0.00250285
-0.0130508
-0.0366712
-0.0802741
-0.138466
-0.178381
-0.1828
-0.162102
-0.139115
-0.115975
-0.0914308
-0.0682041
-0.0794869
-0.089748
-0.0516728
-0.0552248
-0.10578
-0.0696545
-0.0959308
-0.0701762
-0.0993449
-0.111689
0.161172
0.384096
0.58646
0.233715
0.181891
0.11531
0.0953799
0.0667241
0.038485
0.0107322
-0.0147737
-0.0263499
-0.0236566
-0.0151159
-0.00737213
-0.00257266
-0.000291322
0.0140092
0.0377701
0.0442033
0.0347673
-0.000908817
-0.0519579
-0.0971904
-0.133654
-0.132983
-0.158508
-0.163634
-0.167286
-0.158642
-0.157774
-0.183691
-0.163238
-0.13002
-0.131164
-0.142277
-0.219547
-0.227917
-0.198622
-0.154139
-0.096016
-0.0148925
0.288749
0.150293
0.215009
0.14325
0.0885452
0.0621579
0.0396393
0.0179189
0.00759276
-0.00333248
-0.00759469
-0.008135
-0.0046214
-0.00151438
0.0137804
0.0492223
0.0684298
0.0781502
0.0647882
0.00763708
-0.0335266
-0.0750905
-0.0961919
-0.117836
-0.159353
-0.184767
-0.189124
-0.208196
-0.2392
-0.271722
-0.30919
-0.328991
-0.350112
-0.360921
-0.346901
-0.320297
-0.295206
-0.275267
-0.242719
-0.21182
0.169596
0.0735615
0.0869318
0.0849434
0.0449936
0.0720488
0.0599704
-2.20618e-05
0.00238746
0.00842348
0.000277431
-0.0193189
-0.0149823
-0.019115
-0.0260976
-0.0436837
0.0140894
-0.0233052
-0.0472816
-0.146932
-0.164775
-0.190694
-0.209656
-0.21759
-0.220318
-0.221415
-0.232857
-0.255693
-0.289419
-0.329434
-0.369253
-0.407163
-0.427093
-0.430835
-0.426191
-0.411911
-0.410114
-0.375137
-0.346786
-0.364368
-0.273629
-0.0485577
-0.0605015
-0.00433713
-0.00289399
0.0910227
0.0576273
0.0800526
-0.00605467
0.0229475
0.0147236
-0.0629684
-0.0630191
-0.0839194
-0.0988169
-0.0897026
-0.0723367
-0.0905313
-0.0935867
-0.167642
-0.197728
-0.219127
-0.23774
-0.247201
-0.251235
-0.255212
-0.270876
-0.298163
-0.337693
-0.38777
-0.44119
-0.492123
-0.522154
-0.536103
-0.52853
-0.494068
-0.464973
-0.430551
-0.399566
-0.376246
-0.348368
-0.178423
-0.206624
-0.213964
-0.162183
-0.0719858
-0.0500741
-0.024806
-0.0314055
-0.0437484
-0.0582164
-0.0840337
-0.154297
-0.150908
-0.150327
-0.162748
-0.162036
-0.17807
-0.199688
-0.232269
-0.267334
-0.290419
-0.29575
-0.296973
-0.300857
-0.293037
-0.318415
-0.354901
-0.400458
-0.453246
-0.501521
-0.525583
-0.548461
-0.55151
-0.549264
-0.525757
-0.492685
-0.452528
-0.412926
-0.368787
-0.332488
-0.296899
-0.315791
-0.345583
-0.340941
-0.317038
-0.295821
-0.253509
-0.203471
-0.167711
-0.155622
-0.198079
-0.246584
-0.227015
-0.249611
-0.260504
-0.270133
-0.287536
-0.305796
-0.317852
-0.332232
-0.343231
-0.36218
-0.347886
-0.36055
-0.360724
-0.380225
-0.40641
-0.444586
-0.470705
-0.499169
-0.519237
-0.532043
-0.534175
-0.526555
-0.517727
-0.515098
-0.509836
-0.47485
-0.422769
-0.38109
-0.383614
-0.373464
-0.36797
-0.383396
-0.391068
-0.401404
-0.431456
-0.424364
-0.358503
-0.281496
-0.324916
-0.345179
-0.349731
-0.372332
-0.384935
-0.396373
-0.413025
-0.42519
-0.420335
-0.420332
-0.39005
-0.410993
-0.41984
-0.417789
-0.430844
-0.433969
-0.447653
-0.469588
-0.494884
-0.501619
-0.50647
-0.507352
-0.501299
-0.500548
-0.507896
-0.529634
-0.556168
-0.544316
-0.502375
-0.482861
-0.442502
-0.410972
-0.41615
-0.430923
-0.441898
-0.462013
-0.487927
-0.494487
-0.474638
-0.449184
-0.442566
-0.441386
-0.448351
-0.469834
-0.489936
-0.468039
-0.48148
-0.469501
-0.470379
-0.474386
-0.469256
-0.471346
-0.475498
-0.472938
-0.475906
-0.477185
-0.490386
-0.49767
-0.501445
-0.499375
-0.497207
-0.496495
-0.482474
-0.485112
-0.489613
-0.504987
-0.524282
-0.524332
-0.509756
-0.502132
-0.488055
-0.479002
-0.475257
-0.476638
-0.482946
-0.493881
-0.505317
-0.506051
-0.503421
-0.50508
-0.493507
-0.490337
-0.502917
-0.517868
-0.535846
-0.518278
-0.490845
-0.51504
-0.512115
-0.505683
-0.500427
-0.501177
-0.50529
-0.508662
-0.512921
-0.51463
-0.519063
-0.52511
-0.515639
-0.533339
-0.524799
-0.51174
-0.49365
-0.480995
-0.47808
-0.48098
-0.491536
-0.499025
-0.497353
-0.497227
-0.52851
-0.521703
-0.519
-0.518633
-0.519754
-0.516485
-0.523098
-0.522201
-0.524502
-0.529055
-0.527178
-0.527208
-0.534241
-0.543629
-0.553095
-0.560138
-0.4853
-0.529471
-0.528225
-0.524248
-0.522494
-0.525286
-0.537699
-0.545379
-0.553035
-0.558957
-0.55482
-0.550749
-0.553768
-0.542534
-0.53312
-0.519698
-0.504692
-0.491017
-0.484479
-0.484356
-0.489894
-0.497011
-0.501963
-0.503402
-0.565857
-0.553569
-0.555223
-0.569768
-0.569527
-0.565309
-0.562673
-0.56007
-0.557405
-0.55972
-0.55702
-0.554253
-0.560653
-0.56472
-0.567568
-0.570098
-0.512632
-0.548121
-0.55031
-0.550597
-0.555289
-0.558863
-0.575548
-0.581967
-0.598236
-0.603327
-0.603718
-0.600789
-0.599348
-0.579873
-0.570642
-0.521453
-0.492757
-0.495182
-0.504448
-0.501862
-0.509456
-0.515326
-0.521397
-0.522867
-0.593259
-0.595296
-0.605409
-0.61631
-0.620108
-0.617269
-0.615453
-0.609144
-0.605972
-0.600292
-0.5939
-0.590172
-0.591966
-0.588329
-0.584458
-0.582917
-0.579388
-0.571388
-0.576176
-0.585084
-0.597577
-0.60131
-0.620575
-0.623771
-0.654106
-0.659656
-0.657382
-0.655983
-0.659408
-0.624239
-0.641069
-0.608633
-0.580482
-0.56457
-0.555213
-0.552197
-0.544529
-0.542106
-0.559131
-0.565941
-0.621794
-0.638699
-0.65583
-0.662326
-0.664782
-0.664016
-0.661383
-0.656452
-0.648672
-0.636276
-0.627855
-0.622095