/*--------------------------------*- C++ -*----------------------------------*\
  =========                 |
  \\      /  F ield         | OpenFOAM: The Open Source CFD Toolbox
   \\    /   O peration     | Website:  https://openfoam.org
    \\  /    A nd           | Version:  8
     \\/     M anipulation  |
\*---------------------------------------------------------------------------*/
FoamFile
{
    version     2.0;
    format      ascii;
    class       volVectorField;
    location    "3";
    object      U;
}
// * * * * * * * * * * * * * * * * * * * * * * * * * * * * * * * * * * * * * //

dimensions      [0 1 -1 0 0 0 0];

internalField   nonuniform List<vector> 
9150
(
(0.00497525 -0.0781158 0)
(0.013044 -0.097479 0)
(0.010839 -0.104271 0)
(0.00857388 -0.107912 0)
(0.00221684 -0.109216 0)
(-0.00230167 -0.109202 0)
(-0.00853612 -0.107982 0)
(-0.010822 -0.104229 0)
(-0.0130302 -0.0974766 0)
(-0.00498592 -0.078119 0)
(0.00596179 -0.0920743 0)
(0.00854796 -0.100503 0)
(0.00726868 -0.102328 0)
(0.00447488 -0.104128 0)
(0.00235369 -0.105204 0)
(-0.00139414 -0.105475 0)
(-0.00437095 -0.104332 0)
(-0.00730919 -0.102233 0)
(-0.00855104 -0.100481 0)
(-0.00595133 -0.0920627 0)
(0.00178003 -0.0954929 0)
(0.00458402 -0.0989984 0)
(0.00375824 -0.100912 0)
(0.00283459 -0.102097 0)
(0.000461942 -0.102668 0)
(-0.00145479 -0.102333 0)
(-0.00330828 -0.101637 0)
(-0.00374046 -0.100923 0)
(-0.00459028 -0.0989764 0)
(-0.00177117 -0.0954761 0)
(0.00176144 -0.0984409 0)
(0.00248425 -0.100415 0)
(0.00218992 -0.100282 0)
(0.00174128 -0.100403 0)
(0.000810548 -0.100827 0)
(-0.000348417 -0.100908 0)
(-0.00124678 -0.100889 0)
(-0.00214161 -0.100311 0)
(-0.0024965 -0.100388 0)
(-0.00176267 -0.0984317 0)
(0.000192699 -0.0994937 0)
(0.000724999 -0.0995786 0)
(0.000437703 -0.100035 0)
(0.000460852 -0.100074 0)
(0.000148386 -0.100084 0)
(-0.000217551 -0.100093 0)
(-0.000691719 -0.0998711 0)
(-0.000510797 -0.0999003 0)
(-0.000737002 -0.0995634 0)
(-0.000194373 -0.099494 0)
(0.0765177 -0.195258 1.75329e-26)
(0.0495275 -0.185278 0)
(0.0311302 -0.176965 0)
(0.0162813 -0.174663 0)
(0.0050063 -0.176004 0)
(-0.00407276 -0.175946 0)
(-0.0156985 -0.17507 0)
(-0.0307567 -0.176307 0)
(-0.049486 -0.184961 0)
(-0.076378 -0.194987 -1.74663e-26)
(0.058499 -0.14644 4.80604e-27)
(0.0482667 -0.14661 0)
(0.0281706 -0.1567 0)
(0.0199835 -0.157961 0)
(0.00356694 -0.156214 0)
(-0.00553218 -0.156018 0)
(-0.0212239 -0.156564 0)
(-0.0286017 -0.156695 0)
(-0.0482115 -0.146424 0)
(-0.0584322 -0.146196 -4.52781e-27)
(0.0477914 -0.121611 2.33151e-27)
(0.0422708 -0.131529 0)
(0.0300804 -0.133996 0)
(0.0180937 -0.136631 0)
(0.00633171 -0.139865 0)
(-0.00569001 -0.140109 0)
(-0.0177165 -0.138252 0)
(-0.029739 -0.134079 0)
(-0.0421437 -0.131328 0)
(-0.047693 -0.121445 -2.36574e-27)
(0.0373872 -0.0995652 3.44902e-27)
(0.0389328 -0.110343 0)
(0.0219424 -0.119991 0)
(0.0169605 -0.125679 0)
(0.00429312 -0.125684 0)
(-0.00415896 -0.125491 0)
(-0.0173087 -0.124609 0)
(-0.0223187 -0.119903 0)
(-0.0391036 -0.110287 0)
(-0.0373955 -0.099472 -3.49781e-27)
(0.0250133 -0.0814483 -1.17736e-26)
(0.0282151 -0.101099 -1.37891e-26)
(0.0203434 -0.108316 -3.43113e-27)
(0.0114988 -0.113591 -3.07056e-27)
(0.00450692 -0.116669 -1.17412e-28)
(-0.00516209 -0.116724 -1.00003e-28)
(-0.011343 -0.113765 -3.11204e-27)
(-0.0202968 -0.108232 -3.43097e-27)
(-0.0282711 -0.101061 -1.37531e-26)
(-0.0249922 -0.0814293 -1.17657e-26)
(0.0173553 -0.143885 0)
(0.0104709 -0.205457 0)
(0.0203095 -0.217262 0)
(0.00623618 -0.223765 0)
(0.00414749 -0.226636 0)
(-0.0110716 -0.225694 0)
(-0.0124614 -0.222132 0)
(-0.0241897 -0.215318 0)
(-0.0142601 -0.20358 0)
(-0.0189407 -0.144406 0)
(0.0157656 -0.16719 0)
(0.00129209 -0.199994 0)
(0.0146173 -0.208952 0)
(0.00172858 -0.213238 0)
(0.00659529 -0.214879 0)
(-0.00568186 -0.214606 0)
(-0.00199512 -0.214399 0)
(-0.0157786 -0.208651 0)
(-0.00214261 -0.198682 0)
(-0.0166543 -0.165156 0)
(0.0149716 -0.17195 0)
(-0.00387399 -0.203572 0)
(0.0107589 -0.208411 0)
(-0.00187905 -0.209776 0)
(0.00292684 -0.210108 0)
(-0.00500362 -0.209721 0)
(0.000550512 -0.209407 0)
(-0.0114979 -0.207962 0)
(0.00342673 -0.203092 0)
(-0.0150535 -0.17152 0)
(0.0175618 -0.194026 0)
(-0.00658425 -0.204275 0)
(0.00983542 -0.210162 0)
(-0.000564606 -0.205691 0)
(0.00238522 -0.206964 0)
(-0.00120385 -0.207337 0)
(0.00110263 -0.206978 0)
(-0.0100294 -0.209888 0)
(0.00658226 -0.203904 0)
(-0.0175656 -0.193605 0)
(0.0341853 -0.21784 0)
(0.00860819 -0.204236 0)
(0.0164826 -0.203907 0)
(0.0109895 -0.1971 0)
(0.00167153 -0.19315 0)
(-0.00224678 -0.192842 0)
(-0.0113989 -0.195538 0)
(-0.0165099 -0.203494 0)
(-0.00859872 -0.204135 0)
(-0.0341478 -0.217501 0)
(0.205911 0.0165305 0)
(0.208017 0.019817 0)
(0.201449 0.0155909 0)
(0.193572 -0.000608339 0)
(0.196645 -0.00678644 0)
(0.208599 -0.0119265 0)
(0.211823 -0.0164848 0)
(0.211278 -0.0166264 0)
(0.206468 -0.013916 0)
(0.187208 -0.00801636 0)
(0.233885 -0.0635436 0)
(0.215985 -0.0156855 0)
(0.156564 0.041606 0)
(0.126045 -9.67619e-05 0)
(0.113294 -0.0207376 0)
(0.121862 -0.0111514 0)
(0.123973 0.00264056 0)
(0.134759 0.0358057 0)
(0.157759 0.0754453 0)
(0.147905 0.0568419 0)
(0.0360269 0.0602683 0)
(-0.00776868 0.141004 0)
(-0.0778754 0.192252 0)
(-0.0993621 0.0642413 0)
(-0.0686885 -0.0229247 0)
(-0.0490002 -0.0315733 0)
(-0.0427525 -0.0457309 0)
(-0.000845828 -0.109022 0)
(0.0582132 -0.0432196 0)
(0.0770856 -0.0503551 0)
(-0.0334559 0.203485 0)
(-0.0250981 0.236249 0)
(-0.0160618 0.226264 0)
(-0.0149261 -0.00343943 0)
(-0.0105566 -0.10718 0)
(-0.0066719 -0.0968059 0)
(0.0227816 -0.0740783 0)
(0.00891305 -0.137783 0)
(-0.0160373 -0.0373275 0)
(-0.00201127 -0.0103259 0)
(0.0297051 0.146103 0)
(0.055377 0.150537 0)
(0.0713601 0.162019 0)
(0.0948904 0.103979 0)
(0.0520938 -0.0463505 0)
(0.0270901 -0.077842 0)
(0.00853903 -0.0651689 0)
(-0.0140663 -0.0512849 0)
(-0.030487 -0.0574906 0)
(-0.0305343 -0.046833 0)
(0.0259606 0.167718 0)
(0.00446997 0.0772866 0)
(0.0080239 0.145843 0)
(0.00767924 0.0889026 0)
(-0.00768329 -0.0100115 0)
(-0.0331579 0.000627532 0)
(-0.0599069 -0.01769 0)
(-0.063962 -0.0329256 0)
(-0.0738604 -0.0243261 0)
(-0.0967064 0.0141111 0)
(0.00549997 0.192167 0)
(0.00197144 0.17623 0)
(-0.0466481 0.15329 0)
(-0.0415733 0.0721338 0)
(-0.0735503 0.0282514 0)
(-0.0951069 0.0337412 0)
(-0.103839 -0.00658354 0)
(-0.105537 -0.0166728 0)
(-0.115329 0.00942564 0)
(-0.126038 0.0538373 0)
(-0.0609385 0.214589 0)
(-0.069276 0.214649 0)
(-0.0674123 0.205579 0)
(-0.0709901 0.179249 0)
(-0.105139 0.128727 0)
(-0.0885785 0.0656917 0)
(-0.0905951 -0.00416807 0)
(-0.119329 -0.028169 0)
(-0.13733 0.00936214 0)
(-0.120709 0.0441751 0)
(-0.0994554 0.168094 0)
(-0.160832 0.130239 0)
(-0.173661 0.107679 0)
(-0.168555 0.0993134 0)
(-0.143007 0.0301679 0)
(-0.0948954 -0.021797 0)
(-0.0509045 0.0739655 0)
(-0.0218938 0.0888126 0)
(-0.0291675 0.0509975 0)
(-0.0224608 -0.0128857 0)
(0.250229 0.488413 0)
(0.119469 0.350661 0)
(-0.0662766 0.206283 0)
(-0.128693 0.149856 0)
(-0.133383 -0.0435554 0)
(-0.111955 -0.17496 0)
(-0.0682882 -0.164852 0)
(-0.0116714 -0.0944543 0)
(0.0577594 -0.00758995 0)
(0.124562 0.0972546 0)
(0.705441 0.804758 0)
(0.590842 0.84566 0)
(0.394887 0.574626 0)
(0.294952 0.286137 0)
(0.262736 0.0806637 0)
(0.0958994 -0.0346313 0)
(0.0123473 -0.10401 0)
(0.0785131 -0.217025 0)
(0.0938361 -0.196387 0)
(0.113401 -0.0816186 0)
(0.709886 0.684955 0)
(0.637485 0.808342 0)
(0.636243 0.754211 0)
(0.618427 0.525322 0)
(0.554806 0.252123 0)
(0.498207 0.117051 0)
(0.462005 0.0632418 0)
(0.478705 -0.0785924 0)
(0.496224 -0.177264 0)
(0.473562 -0.151751 0)
(0.573619 0.7721 0)
(0.540133 0.817017 0)
(0.555957 0.742453 0)
(0.563831 0.497633 0)
(0.54722 0.309712 0)
(0.543844 0.12993 0)
(0.559741 -0.0699517 0)
(0.640632 -0.168884 0)
(0.636714 -0.175508 0)
(0.610509 -0.142659 0)
(0.275036 0.837828 0)
(0.310891 0.838848 0)
(0.320295 0.730744 0)
(0.346467 0.527459 0)
(0.404589 0.211661 0)
(0.531598 -0.0496699 0)
(0.538122 -0.158863 0)
(0.525563 -0.157462 0)
(0.502381 -0.105926 0)
(0.482054 -0.00848546 0)
(-0.0216292 0.7381 0)
(0.0400493 0.704574 0)
(0.152584 0.606306 0)
(0.347675 0.283367 0)
(0.473854 -0.10781 0)
(0.466752 -0.114564 0)
(0.430544 -0.0747126 0)
(0.395672 -0.064315 0)
(0.373115 -0.0547422 0)
(0.359124 0.00755105 0)
(-0.0160409 0.632224 0)
(0.140759 0.356392 0)
(0.402648 0.089188 0)
(0.493028 0.0155165 0)
(0.480137 0.0119186 0)
(0.411759 0.0164175 0)
(0.368809 -0.000481466 0)
(0.36594 -0.0209033 0)
(0.36183 -0.0220141 0)
(0.333319 0.0304598 0)
(0.27232 0.165905 0)
(0.333841 0.0759329 0)
(0.342253 0.0648207 0)
(0.320947 0.0651984 0)
(0.276129 0.0696737 0)
(0.255125 0.0632402 0)
(0.257612 0.0117939 0)
(0.26761 -0.0520579 0)
(0.278829 -0.0117252 0)
(0.242545 0.139854 0)
(0.103357 0.158205 0)
(0.120252 0.122673 0)
(0.108516 0.116647 0)
(0.112246 0.106735 0)
(0.104741 0.102907 0)
(0.106159 0.0817083 0)
(0.0969968 -0.0278154 0)
(0.0685915 -0.022741 0)
(0.0628883 0.0940853 0)
(0.0672848 0.158709 0)
(-0.0287364 0.168411 0)
(-0.0539195 0.116675 0)
(-0.0551639 0.0955153 0)
(-0.0450283 0.108638 0)
(-0.0160723 0.0877737 0)
(0.012528 0.0793829 0)
(0.0169118 0.0248602 0)
(0.0030467 0.0116475 0)
(0.0095937 0.0388425 0)
(0.0356363 0.0713338 0)
(-0.00356047 0.239716 0)
(-0.0584817 0.1715 0)
(-0.121765 0.0630685 0)
(-0.121459 0.000241143 0)
(-0.0986482 -0.0138316 0)
(-0.0646543 0.0122227 0)
(-0.0249294 -0.0148572 0)
(-0.00261609 -0.00584954 0)
(0.0139868 0.00914684 0)
(0.036625 0.0216031 0)
(-0.0451127 0.251302 0)
(-0.057868 0.310506 0)
(-0.0912533 0.195959 0)
(-0.0885349 0.0603978 0)
(-0.1567 -0.0615908 0)
(-0.0916858 -0.0694156 0)
(-0.0640065 -0.0883758 0)
(-0.0326526 -0.0489435 0)
(-0.00948647 -0.0276778 0)
(0.00590098 -0.0280279 0)
(-0.0453898 0.135457 0)
(0.113587 0.354182 0)
(0.169045 0.276799 0)
(0.198216 0.192671 0)
(0.150068 0.086221 0)
(0.094491 -0.182147 0)
(-0.0249935 -0.130316 0)
(-0.0789285 -0.113785 0)
(-0.035661 -0.0494207 0)
(1.23078e-05 -0.0392783 0)
(-0.207418 -0.407021 0)
(-0.0213413 -0.164184 0)
(0.184889 0.0123302 0)
(0.287868 0.141499 0)
(0.340133 0.18576 0)
(0.359248 0.183971 0)
(0.330908 0.216225 0)
(0.335901 0.0513235 0)
(0.21857 -0.127235 0)
(0.129921 -0.105604 0)
(-0.269799 -0.531348 0)
(-0.187383 -0.451264 0)
(-0.105866 -0.355635 0)
(-0.00695637 -0.234739 0)
(0.189954 -0.0042606 0)
(0.250245 -0.223413 0)
(0.336423 -0.0498841 0)
(0.432235 0.0717566 0)
(0.411603 0.196203 0)
(0.3067 0.222569 0)
(-0.367672 -0.695835 0)
(-0.254674 -0.564719 0)
(-0.160071 -0.389367 0)
(-0.10951 -0.281172 0)
(-0.0833785 -0.265559 0)
(-0.0315144 -0.398573 0)
(-0.0828378 -0.0599276 0)
(0.00198469 0.217621 0)
(-0.0854068 0.0650084 0)
(0.111269 0.0561805 0)
(-0.451877 -1.06606 0)
(-0.33175 -0.927177 0)
(-0.191694 -0.589978 0)
(-0.127674 -0.307643 0)
(-0.12501 -0.226249 0)
(-0.223072 -0.141274 0)
(-0.250804 -0.0328719 0)
(-0.195775 0.00753314 0)
(-0.133192 -0.0306019 0)
(-0.115327 -0.113431 0)
(-0.447137 -1.19659 0)
(-0.369273 -1.17633 0)
(-0.280474 -0.933833 0)
(-0.162469 -0.356044 0)
(-0.166488 -0.154463 0)
(-0.228 -0.0646755 0)
(-0.243927 -0.0697228 0)
(-0.23067 -0.0881848 0)
(-0.194567 -0.0909169 0)
(-0.184391 -0.113073 0)
(-0.335147 -1.23487 0)
(-0.326412 -1.25651 0)
(-0.282749 -1.0832 0)
(-0.213297 -0.474539 0)
(-0.16154 -0.15086 0)
(-0.170574 -0.0312296 0)
(-0.145619 -0.00133933 0)
(-0.187276 -0.0852963 0)
(-0.213283 -0.118387 0)
(-0.212481 -0.128257 0)
(-0.227664 -1.07463 0)
(-0.250304 -1.25559 0)
(-0.258402 -1.14617 0)
(-0.206475 -0.654459 0)
(-0.170204 -0.182045 0)
(-0.16329 -0.0958113 0)
(-0.154949 -0.00690183 0)
(-0.131533 0.0226439 0)
(-0.155435 -0.0380672 0)
(-0.180836 -0.114952 0)
(-0.1503 -0.77417 0)
(-0.23034 -1.2024 0)
(-0.258889 -1.15703 0)
(-0.208719 -0.715781 0)
(-0.193535 -0.184709 0)
(-0.208371 -0.102479 0)
(-0.217673 -0.0734341 0)
(-0.191685 -0.0314935 0)
(-0.179711 -0.0363063 0)
(-0.181747 -0.0397527 0)
(-0.17477 -0.655308 0)
(-0.362172 -1.10687 0)
(-0.368899 -1.12975 0)
(-0.29079 -0.761755 0)
(-0.205541 -0.187977 0)
(-0.234285 -0.0889048 0)
(-0.242474 -0.0697501 0)
(-0.23128 -0.0460546 0)
(-0.225801 -0.0433099 0)
(-0.212327 -0.0574354 0)
(-0.126354 -0.309684 0)
(-0.447792 -1.00405 0)
(-0.455343 -1.1389 0)
(-0.361836 -0.921937 0)
(-0.162089 -0.256949 0)
(-0.143812 -0.0618298 0)
(-0.173409 -0.0492264 0)
(-0.199385 -0.0739007 0)
(-0.200748 -0.075443 0)
(-0.192076 -0.0973327 0)
(-0.0434967 -0.031207 0)
(-0.401205 -0.715376 0)
(-0.483619 -1.22756 0)
(-0.439124 -1.26452 0)
(-0.203389 -0.746251 0)
(-0.0361097 -0.0825075 0)
(-0.0122608 0.0409121 0)
(-0.064246 0.0274582 0)
(-0.0776961 -0.0406438 0)
(-0.102647 -0.0848994 0)
(-0.0691945 0.169438 0)
(-0.205153 0.170544 0)
(-0.438535 -1.26082 0)
(-0.364726 -1.45677 0)
(-0.267801 -1.28408 0)
(-0.0589526 -0.443003 0)
(0.0791576 0.0552696 0)
(0.00473464 0.0448836 0)
(0.0314458 0.00747903 0)
(-0.0100509 -0.0382547 0)
(-0.207522 0.551556 0)
(-0.2476 0.698458 0)
(-0.317444 -0.988006 0)
(-0.221691 -1.50725 0)
(-0.192338 -1.47367 0)
(-0.146032 -1.00982 0)
(0.0827864 0.0089429 0)
(-0.0147008 0.0413214 0)
(0.0595596 0.0237577 0)
(0.0320527 -0.0151118 0)
(-0.291473 0.504258 0)
(-0.177912 0.621121 0)
(-0.151023 -0.802471 0)
(-0.160759 -1.53079 0)
(-0.124463 -1.52724 0)
(-0.144014 -1.16872 0)
(-0.00849496 -0.0789084 0)
(-0.0257303 -0.00288056 0)
(0.0520048 -0.0125426 0)
(0.0449852 -0.0425265 0)
(-0.16907 -0.175097 0)
(-0.11675 -0.0847607 0)
(-0.116533 -0.704275 0)
(-0.123071 -1.54506 0)
(-0.0931162 -1.55164 0)
(-0.0978732 -1.31698 0)
(-0.0443155 -0.167404 0)
(-0.000151509 -0.0923201 0)
(0.0589063 -0.0721047 0)
(0.0799448 -0.088412 0)
(-0.0271973 -0.196761 0)
(-0.0415328 0.403087 0)
(-0.0952298 -0.975916 0)
(-0.0826219 -1.51652 0)
(-0.0526753 -1.55692 0)
(-0.083078 -1.44223 0)
(-0.0186486 -0.255187 0)
(0.0398421 -0.201241 0)
(0.0696479 -0.171839 0)
(0.109311 -0.164652 0)
(-0.177782 -0.144481 0)
(0.0255167 0.272773 0)
(0.0352813 -0.561859 0)
(-0.0329134 -1.47902 0)
(-0.00169742 -1.54958 0)
(-0.03848 -1.51552 0)
(0.046885 -0.33756 0)
(0.12126 -0.227584 0)
(0.0961028 -0.253271 0)
(0.112568 -0.234347 0)
(-0.11265 -0.357698 0)
(0.0265046 -0.350117 0)
(0.0928996 -0.524179 0)
(0.0228963 -1.42806 0)
(0.0134667 -1.54137 0)
(-0.00510801 -1.52434 0)
(0.117959 -1.06901 0)
(0.297963 -0.116345 0)
(0.311143 -0.203016 0)
(0.197517 -0.180877 0)
(0.0632706 -0.394752 0)
(0.0663225 -0.415724 0)
(0.136773 -0.524403 0)
(0.0129671 -1.3994 0)
(0.0127779 -1.52269 0)
(0.00133683 -1.52621 0)
(-0.000943886 -1.20952 0)
(0.111273 -0.278909 0)
(0.393781 -0.156294 0)
(0.391398 -0.0973746 0)
(0.0873873 -0.405566 0)
(0.0818197 -0.427177 0)
(0.109007 -0.508659 0)
(0.0268312 -1.15465 0)
(0.00743415 -1.51162 0)
(-0.00453257 -1.51118 0)
(-0.00847609 -1.31862 0)
(-0.128769 -0.355601 0)
(-0.110732 -0.269103 0)
(-0.0575241 -0.0615921 0)
(0.044217 -0.384037 0)
(-0.00176664 -0.41647 0)
(0.0333463 -0.506108 0)
(-0.00723626 -1.10559 0)
(0.00411794 -1.48794 0)
(-0.0119569 -1.48882 0)
(-0.0212346 -0.994604 0)
(-0.0916466 -0.416693 0)
(-0.113895 -0.259462 0)
(-0.143504 -0.134496 0)
(0.0128019 -0.357943 0)
(-0.0232322 -0.397254 0)
(0.0188349 -0.467038 0)
(-0.0264155 -1.17676 0)
(0.00765033 -1.4683 0)
(-0.0080887 -1.4658 0)
(0.0163806 -1.12843 0)
(-0.0121732 -0.38101 0)
(0.0246615 -0.1219 0)
(-0.0776142 -0.0988325 0)
(0.0158393 -0.327128 0)
(0.0131146 -0.375288 0)
(-0.00316493 -0.399463 0)
(-0.0168789 -1.31841 0)
(0.00414157 -1.44431 0)
(-0.0123246 -1.44307 0)
(0.0169866 -1.22255 0)
(0.0166759 -0.367981 0)
(0.0200097 -0.151905 0)
(0.0601139 -0.0167714 0)
(0.0586718 -0.287071 0)
(0.0603423 -0.331526 0)
(-0.00445938 -0.30189 0)
(-0.00100918 -1.32776 0)
(0.00910821 -1.41895 0)
(-0.00680814 -1.41573 0)
(0.00672779 -1.29171 0)
(0.0113941 -0.295276 0)
(-0.0179682 -0.151055 0)
(-0.0268747 -0.0559989 0)
(0.0819718 -0.288853 0)
(0.0635259 -0.307002 0)
(0.0313891 -0.201587 0)
(-0.000831366 -1.37303 0)
(0.00645214 -1.39794 0)
(-0.00809258 -1.39631 0)
(-0.00457172 -1.36131 0)
(0.0159341 -0.234003 0)
(-0.0136276 -0.115794 0)
(0.000269109 -0.0293603 0)
(-0.035031 -0.21344 0)
(-0.14562 -0.203929 0)
(-0.0290098 -0.166443 0)
(0.00163761 -1.38451 0)
(0.00637353 -1.38561 0)
(-0.00741763 -1.38367 0)
(-0.000122233 -1.37875 0)
(0.00987818 -0.259347 0)
(0.0977673 -0.113582 0)
(0.048825 0.0953685 0)
(-0.176181 -0.0847046 0)
(-0.18684 -0.265492 0)
(-0.0149673 -0.61694 0)
(-0.0014904 -1.38102 0)
(0.00595755 -1.38079 0)
(-0.00568724 -1.37772 0)
(0.00483272 -1.37596 0)
(0.00187503 -0.510166 0)
(0.154396 -0.101128 0)
(0.0989725 0.198477 0)
(-0.0551177 -0.0380156 0)
(-0.0414007 -0.30024 0)
(0.019985 -0.694716 0)
(0.00105292 -1.37216 0)
(0.00879743 -1.37864 0)
(-0.00279714 -1.37781 0)
(0.0101118 -1.36845 0)
(0.010829 -0.674409 0)
(0.115423 -0.19622 0)
(0.135141 0.188867 0)
(0.0589336 -0.0538295 0)
(0.00485775 -0.246632 0)
(0.0132961 -0.733862 0)
(-0.00391645 -1.36328 0)
(0.00495469 -1.37648 0)
(-0.00554004 -1.38015 0)
(0.00549324 -1.36047 0)
(0.00453638 -0.770651 0)
(0.0599236 -0.268888 0)
(0.106702 0.101967 0)
(0.0683196 0.0296929 0)
(-0.00472069 -0.14914 0)
(-0.0107652 -0.728501 0)
(-0.022885 -1.3584 0)
(-0.0042484 -1.37933 0)
(-0.014005 -1.37765 0)
(-0.0129828 -1.3568 0)
(-0.0303677 -0.843556 0)
(0.0154301 -0.289259 0)
(0.015608 -0.0437626 0)
(0.0568905 0.0450743 0)
(-0.00207744 -0.0989543 0)
(0.0153193 -0.748876 0)
(-0.00236751 -1.34864 0)
(0.00743379 -1.3802 0)
(-0.00677702 -1.37467 0)
(0.00361695 -1.34588 0)
(-0.0255587 -0.833724 0)
(-0.0138065 -0.281877 0)
(-0.0366251 -0.049285 0)
(0.0615124 0.0605575 0)
(0.0114501 -0.0822584 0)
(0.0302245 -0.745525 0)
(0.00437819 -1.3424 0)
(0.00796325 -1.37251 0)
(-0.00538857 -1.37045 0)
(0.00122791 -1.33996 0)
(-0.0275294 -0.798698 0)
(-0.0256946 -0.293304 0)
(-0.0468783 -0.120787 0)
(0.0817594 0.0870426 0)
(0.0454767 -0.0184929 0)
(0.0480622 -0.658399 0)
(0.00646743 -1.32351 0)
(0.00839508 -1.35804 0)
(-0.00893034 -1.35704 0)
(-0.00815538 -1.32417 0)
(-0.0476096 -0.747424 0)
(-0.0527707 -0.279686 0)
(-0.06356 -0.127654 0)
(0.0701313 0.0875711 0)
(0.0486935 -0.036632 0)
(0.0620362 -0.621777 0)
(0.0214579 -1.29243 0)
(0.0100258 -1.33388 0)
(-0.00883612 -1.33316 0)
(-0.0164397 -1.28607 0)
(-0.0675794 -0.682067 0)
(-0.0639807 -0.283245 0)
(-0.0573039 -0.16722 0)
(0.0564276 0.102213 0)
(0.0526029 -0.0113461 0)
(0.062567 -0.566412 0)
(0.0218944 -1.22662 0)
(0.0100052 -1.30046 0)
(-0.0103414 -1.29958 0)
(-0.0206312 -1.22211 0)
(-0.0612243 -0.619167 0)
(-0.0543271 -0.297591 0)
(-0.0510305 -0.213646 0)
(0.0305996 0.0921584 0)
(0.025252 -0.0417544 0)
(0.0375408 -0.557797 0)
(0.0162837 -1.18842 0)
(0.0104436 -1.2643 0)
(-0.00981425 -1.26415 0)
(-0.0151186 -1.19948 0)
(-0.0391835 -0.594281 0)
(-0.0368989 -0.303228 0)
(-0.0406227 -0.226969 0)
(0.0293865 0.096751 0)
(0.0108279 -0.0309229 0)
(0.0174609 -0.543153 0)
(0.0120273 -1.19644 0)
(0.00950571 -1.23006 0)
(-0.0102732 -1.22994 0)
(-0.0121626 -1.20466 0)
(-0.0181829 -0.567082 0)
(-0.0291235 -0.30058 0)
(-0.0319883 -0.230838 0)
(0.0100534 0.131694 0)
(-0.0154345 -0.00322096 0)
(0.0148472 -0.545167 0)
(0.00682562 -1.22085 0)
(0.00866588 -1.2013 0)
(-0.00881326 -1.20179 0)
(-0.00930118 -1.21982 0)
(-0.0177383 -0.525575 0)
(-0.0327694 -0.272894 0)
(-0.0561501 -0.206468 0)
(-0.0550769 0.218346 0)
(-0.0316547 -0.0639138 0)
(0.0082899 -0.586615 0)
(0.00451014 -1.21926 0)
(0.00780368 -1.18262 0)
(-0.00764758 -1.18218 0)
(-0.00181411 -1.21784 0)
(-0.00755542 -0.501541 0)
(-0.0324137 -0.206862 0)
(-0.0789157 -0.115193 0)
(-0.117048 0.214901 0)
(-0.0370261 -0.203023 0)
(0.00276243 -0.626757 0)
(0.00157985 -1.20546 0)
(0.00644304 -1.1701 0)
(-0.00566524 -1.17023 0)
(0.000117641 -1.20246 0)
(-0.00769302 -0.487723 0)
(-0.0198773 -0.12898 0)
(-0.0654515 -0.0181311 0)
(-0.0955871 0.125819 0)
(-0.0405848 -0.248252 0)
(0.00100474 -0.690488 0)
(-0.00225273 -1.18926 0)
(0.00325113 -1.16485 0)
(-0.00562328 -1.16562 0)
(-3.83694e-05 -1.18766 0)
(-0.0112391 -0.50678 0)
(0.0148541 -0.0767065 0)
(-0.0271472 0.0644468 0)
(-0.0148818 -0.0716246 0)
(-0.0339586 -0.2651 0)
(-0.00261362 -0.755572 0)
(-0.00945942 -1.17425 0)
(-0.0010285 -1.16382 0)
(-0.00734696 -1.16247 0)
(-0.006975 -1.17263 0)
(-0.0216609 -0.574773 0)
(0.0365508 -0.0665249 0)
(-0.00234028 0.127601 0)
(0.0210466 -0.0744271 0)
(-0.0123596 -0.27221 0)
(0.0124951 -0.787912 0)
(0.00154666 -1.16189 0)
(0.00311362 -1.16294 0)
(-0.00277072 -1.16069 0)
(0.00138285 -1.15997 0)
(-0.0209408 -0.631527 0)
(0.0124047 -0.0193321 0)
(-0.0134319 0.125574 0)
(0.0415981 -0.0845771 0)
(0.0169174 -0.241973 0)
(0.0211689 -0.774168 0)
(0.00213399 -1.14876 0)
(0.00340906 -1.15824 0)
(-0.004174 -1.15722 0)
(-0.00425284 -1.14603 0)
(-0.0244062 -0.68049 0)
(0.0248403 -0.0339905 0)
(0.0109583 0.0664141 0)
(0.0497382 -0.125084 0)
(0.0341788 -0.223069 0)
(0.0313194 -0.731421 0)
(0.00750526 -1.13628 0)
(0.00457267 -1.14681 0)
(-0.00655111 -1.1459 0)
(-0.0101364 -1.13221 0)
(-0.0335251 -0.679407 0)
(0.00853367 -0.074909 0)
(0.0279356 -0.00275814 0)
(0.0415783 -0.155226 0)
(0.03436 -0.233132 0)
(0.0367568 -0.695949 0)
(0.0150195 -1.12186 0)
(0.00739496 -1.1274 0)
(-0.00733611 -1.12646 0)
(-0.0137787 -1.12051 0)
(-0.0391058 -0.665063 0)
(-0.00859241 -0.166421 0)
(0.0161483 -0.0802272 0)
(0.0511825 -0.16053 0)
(0.0415333 -0.231229 0)
(0.0284583 -0.644762 0)
(0.0147943 -1.10608 0)
(0.00835247 -1.102 0)
(-0.00951435 -1.1004 0)
(-0.019229 -1.10499 0)
(-0.0341078 -0.625426 0)
(-0.0338873 -0.18588 0)
(-0.0324211 -0.101023 0)
(0.0561859 -0.123739 0)
(0.0344407 -0.208366 0)
(0.0255562 -0.616721 0)
(0.016048 -1.09452 0)
(0.0102958 -1.07253 0)
(-0.00897695 -1.07265 0)
(-0.0153514 -1.09237 0)
(-0.0266675 -0.609272 0)
(-0.0312226 -0.186354 0)
(-0.0348144 -0.121047 0)
(0.0414293 -0.0817859 0)
(0.0225228 -0.187665 0)
(0.0168454 -0.608851 0)
(0.0102192 -1.079 0)
(0.00706359 -1.04597 0)
(-0.0105578 -1.04433 0)
(-0.0188126 -1.07774 0)
(-0.025365 -0.608308 0)
(-0.0281176 -0.167256 0)
(-0.038705 -0.12685 0)
(0.0433753 -0.0644377 0)
(0.0160116 -0.15838 0)
(0.020217 -0.614032 0)
(0.014099 -1.06056 0)
(0.00968604 -1.02274 0)
(-0.00701814 -1.02082 0)
(-0.00882989 -1.05943 0)
(-0.0117467 -0.634287 0)
(-5.35655e-05 -0.136451 0)
(-0.0259732 -0.126266 0)
(0.0700329 0.00360299 0)
(0.016248 -0.095109 0)
(0.0192577 -0.634835 0)
(0.0101932 -1.03978 0)
(0.00772066 -1.00432 0)
(-0.00557819 -1.00296 0)
(-0.00789657 -1.03837 0)
(-0.0147997 -0.673103 0)
(0.00577405 -0.105117 0)
(-0.0254005 -0.109943 0)
(0.0324639 0.0540911 0)
(-0.00447445 -0.068611 0)
(0.0188 -0.671169 0)
(0.00896584 -1.01846 0)
(0.00704275 -0.989073 0)
(-0.00581311 -0.988289 0)
(-0.00730183 -1.0173 0)
(-0.0195239 -0.718184 0)
(0.0213412 -0.111497 0)
(0.0123571 -0.0573451 0)
(0.0345392 0.106983 0)
(0.00865772 -0.034278 0)
(0.0241452 -0.680368 0)
(0.0108812 -0.997254 0)
(0.00629667 -0.977178 0)
(-0.00420948 -0.974312 0)
(-0.00804075 -0.996329 0)
(-0.0184876 -0.728721 0)
(-0.00223477 -0.15617 0)
(0.0152471 -0.0242168 0)
(0.0249729 0.10461 0)
(0.0166654 -0.0344183 0)
(0.0340034 -0.685495 0)
(0.0150878 -0.97819 0)
(0.0100459 -0.961406 0)
(-0.00128061 -0.959682 0)
(-0.00306964 -0.976808 0)
(-0.0119859 -0.723807 0)
(-0.0196037 -0.163502 0)
(-0.0140346 -0.0455388 0)
(0.0285917 0.0964677 0)
(0.0249114 -0.0362604 0)
(0.0316977 -0.681434 0)
(0.0165418 -0.96016 0)
(0.00897806 -0.942224 0)
(-0.00354917 -0.943556 0)
(-0.0066749 -0.958792 0)
(-0.0160238 -0.70458 0)
(-0.0269224 -0.160932 0)
(-0.0286837 -0.0548146 0)
(0.0377156 0.0941374 0)
(0.030882 -0.0174235 0)
(0.0246755 -0.669077 0)
(0.0147128 -0.94103 0)
(0.00772261 -0.92167 0)
(-0.00816538 -0.921467 0)
(-0.015324 -0.939707 0)
(-0.0239978 -0.685736 0)
(-0.0348427 -0.141772 0)
(-0.0418688 -0.0409541 0)
(0.0304386 0.0954342 0)
(0.0192049 -0.0192008 0)
(0.0234602 -0.668421 0)
(0.0162071 -0.921518 0)
(0.00849557 -0.897959 0)
(-0.0080475 -0.898492 0)
(-0.0160467 -0.920995 0)
(-0.0229437 -0.675408 0)
(-0.0301238 -0.1331 0)
(-0.0343697 -0.027889 0)
(0.030569 0.116428 0)
(0.0243298 -0.00817965 0)
(0.0230749 -0.664357 0)
(0.0157252 -0.901566 0)
(0.00867647 -0.875564 0)
(-0.00815364 -0.87477 0)
(-0.0156617 -0.900446 0)
(-0.0242377 -0.664653 0)
(-0.0323081 -0.114105 0)
(-0.0370516 -0.00335748 0)
(0.0280546 0.136367 0)
(0.0254286 -0.00313991 0)
(0.0231087 -0.663726 0)
(0.0155392 -0.879857 0)
(0.00693433 -0.851601 0)
(-0.00891516 -0.852739 0)
(-0.0168193 -0.879404 0)
(-0.0267746 -0.66041 0)
(-0.032421 -0.110546 0)
(-0.0290138 0.00912221 0)
(0.0238016 0.147022 0)
(0.0253694 -0.0017652 0)
(0.0226159 -0.659012 0)
(0.0136369 -0.856137 0)
(0.00601775 -0.830284 0)
(-0.00877388 -0.828671 0)
(-0.0170708 -0.855685 0)
(-0.028049 -0.653981 0)
(-0.0349621 -0.110924 0)
(-0.0284224 0.0115758 0)
(0.018575 0.152417 0)
(0.0284878 -0.00591798 0)
(0.027917 -0.652784 0)
(0.0174509 -0.83273 0)
(0.00821756 -0.808471 0)
(-0.00641999 -0.806057 0)
(-0.0152558 -0.832514 0)
(-0.024379 -0.64501 0)
(-0.0329554 -0.100231 0)
(-0.0286832 0.0130316 0)
(0.0112493 0.14714 0)
(0.0326529 -0.0278284 0)
(0.035086 -0.650496 0)
(0.0201936 -0.807645 0)
(0.0112784 -0.783708 0)
(-0.00181479 -0.783376 0)
(-0.0111069 -0.80752 0)
(-0.0192843 -0.626325 0)
(-0.0392552 -0.0866895 0)
(-0.0346305 0.00268725 0)
(0.00703445 0.124493 0)
(0.0393687 -0.0520864 0)
(0.0362556 -0.641559 0)
(0.0216011 -0.782711 0)
(0.0109942 -0.760255 0)
(-0.00273434 -0.762073 0)
(-0.0128792 -0.782635 0)
(-0.0183499 -0.611967 0)
(-0.0333388 -0.0840643 0)
(-0.0259404 -0.0122661 0)
(0.0144172 0.0815457 0)
(0.0460122 -0.0764161 0)
(0.0288987 -0.628414 0)
(0.0167792 -0.756982 0)
(0.00618823 -0.733993 0)
(-0.00656673 -0.737489 0)
(-0.0172333 -0.75693 0)
(-0.0262371 -0.594874 0)
(-0.0388528 -0.0759917 0)
(-0.0299841 -0.0175845 0)
(0.0226317 0.0260725 0)
(0.0453117 -0.0901757 0)
(0.0203003 -0.605743 0)
(0.0132786 -0.731323 0)
(0.00142757 -0.710857 0)
(-0.0116103 -0.71218 0)
(-0.0226511 -0.730898 0)
(-0.0360056 -0.590004 0)
(-0.0388305 -0.0909797 0)
(-0.0201747 -0.0158727 0)
(0.0288937 0.0083292 0)
(0.0444813 -0.0861713 0)
(0.0200992 -0.580792 0)
(0.0154588 -0.704595 0)
(0.00225222 -0.684557 0)
(-0.0128907 -0.682723 0)
(-0.0246437 -0.704345 0)
(-0.0373296 -0.57495 0)
(-0.0505263 -0.0957271 0)
(-0.034654 -0.00136107 0)
(0.0363882 0.0107785 0)
(0.0503002 -0.0804526 0)
(0.0277005 -0.554825 0)
(0.0210765 -0.675504 0)
(0.00602367 -0.656818 0)
(-0.0107579 -0.655587 0)
(-0.0244476 -0.675541 0)
(-0.0342576 -0.556145 0)
(-0.0525718 -0.0983249 0)
(-0.0381766 -0.001683 0)
(0.0281862 0.0112423 0)
(0.0417142 -0.0862187 0)
(0.0311713 -0.525508 0)
(0.0214357 -0.644222 0)
(0.00533215 -0.628957 0)
(-0.00946369 -0.62813 0)
(-0.0237759 -0.644901 0)
(-0.0384648 -0.527347 0)
(-0.048039 -0.101235 0)
(-0.034359 -0.0132 0)
(0.0202142 0.00535909 0)
(0.0150257 -0.12051 0)
(0.0420468 -0.512337 0)
(0.0248464 -0.611133 0)
(0.00775721 -0.60004 0)
(-0.00739366 -0.600544 0)
(-0.023921 -0.612876 0)
(-0.0426406 -0.516171 0)
(-0.017609 -0.127595 0)
(-0.0250765 -0.0458618 0)
(0.0179421 0.0120101 0)
(-0.0161417 -0.146844 0)
(0.0473734 -0.534742 0)
(0.0252543 -0.578204 0)
(0.0065692 -0.571998 0)
(-0.00528868 -0.573586 0)
(-0.0243151 -0.579859 0)
(-0.0452194 -0.539434 0)
(0.0163735 -0.151336 0)
(-0.0170775 -0.056883 0)
(0.0227958 0.0287989 0)
(0.0225224 -0.16886 0)
(0.0481918 -0.537574 0)
(0.0264668 -0.543312 0)
(0.00714218 -0.540443 0)
(-0.00851237 -0.541503 0)
(-0.0268322 -0.545068 0)
(-0.0472647 -0.542088 0)
(-0.0246493 -0.153209 0)
(-0.0406885 -0.0373713 0)
(0.0412675 0.0200388 0)
(0.0559902 -0.207174 0)
(0.0560543 -0.491567 0)
(0.0280852 -0.505172 0)
(0.0105236 -0.508408 0)
(-0.00931601 -0.507337 0)
(-0.0299203 -0.506448 0)
(-0.0545026 -0.495084 0)
(-0.0552591 -0.187594 0)
(-0.0440281 -0.0224754 0)
(0.0589729 0.00139581 0)
(0.0604338 -0.22306 0)
(0.0614586 -0.452384 0)
(0.0316619 -0.467513 0)
(0.0155346 -0.47043 0)
(-0.00425147 -0.470807 0)
(-0.026694 -0.466666 0)
(-0.053354 -0.455212 0)
(-0.0557539 -0.215221 0)
(-0.0583633 -0.00554966 0)
(0.0416984 -0.0509246 0)
(0.0686829 -0.216523 0)
(0.0613595 -0.404694 0)
(0.0269039 -0.42537 0)
(0.00698902 -0.428558 0)
(-0.0155859 -0.428078 0)
(-0.0368712 -0.421961 0)
(-0.0687996 -0.399553 0)
(-0.0703884 -0.201749 0)
(-0.0618102 -0.00882879 0)
(0.00587732 -0.0919804 0)
(0.0720316 -0.275902 0)
(0.064619 -0.362194 0)
(0.0364124 -0.382868 0)
(0.0145361 -0.385305 0)
(-0.0119261 -0.381606 0)
(-0.0299621 -0.377654 0)
(-0.0601672 -0.36076 0)
(-0.0714306 -0.264696 0)
(0.00821085 -0.0308319 0)
(0.0925045 -0.148484 0)
(0.0700984 -0.284421 0)
(0.0658757 -0.312792 0)
(0.036498 -0.331118 0)
(0.0143848 -0.333027 0)
(-0.0140178 -0.330568 0)
(-0.0362382 -0.326934 0)
(-0.0702404 -0.315347 0)
(-0.0749347 -0.283358 0)
(-0.0786109 -0.0684081 0)
(0.0940366 -0.211259 0)
(0.0711767 -0.222823 0)
(0.0654914 -0.260156 0)
(0.0289084 -0.281709 0)
(0.00347629 -0.282073 0)
(-0.0264292 -0.285548 0)
(-0.0455501 -0.283085 0)
(-0.0729112 -0.262442 0)
(-0.0764999 -0.22131 0)
(-0.103602 -0.166756 0)
(0.0541668 -0.13849 0)
(0.0505704 -0.193634 0)
(0.0436176 -0.233492 0)
(0.0231097 -0.241677 0)
(0.0162502 -0.248409 0)
(-0.00368861 -0.250196 0)
(-0.0159547 -0.245473 0)
(-0.0436007 -0.234334 0)
(-0.0494464 -0.193996 0)
(-0.0603683 -0.117065 0)
(0.175262 0.00737996 0)
(0.173485 0.0614254 0)
(0.116423 0.094222 0)
(0.0505236 0.0235012 0)
(0.0100741 -0.00454659 0)
(-0.0158691 0.0316511 0)
(-0.102746 0.0512947 0)
(-0.126076 0.0183749 0)
(-0.133697 0.0102291 0)
(-0.151777 0.0095324 0)
(-0.163824 -0.00102201 0)
(-0.19293 0.0113264 0)
(-0.205519 -0.00990822 0)
(-0.206226 -0.0080207 0)
(-0.21205 0.0180709 0)
(-0.221723 0.0269107 0)
(-0.240701 0.0230555 0)
(-0.26454 0.033826 0)
(-0.299566 0.0487091 0)
(-0.328581 0.0343578 0)
(-0.340144 0.0161544 0)
(-0.339672 0.00400219 0)
(-0.330136 -0.00399422 0)
(-0.316589 -0.00174989 0)
(-0.30662 0.00162269 0)
(-0.293378 -0.00827463 0)
(-0.266547 -0.0237478 0)
(-0.22591 -0.0383845 0)
(-0.178623 -0.0498338 0)
(-0.126524 -0.0630655 0)
(-0.0711924 -0.0644724 0)
(-0.0153395 -0.0497702 0)
(0.031414 -0.0470549 0)
(0.07732 -0.0173786 0)
(0.0943459 -0.00323302 0)
(0.0974971 0.0331567 0)
(0.0705971 0.0473983 0)
(0.0342999 0.0436084 0)
(0.00931055 0.0127645 0)
(0.000688188 -0.020018 0)
(0.17033 0.0130834 0)
(0.190441 0.032157 0)
(0.188411 0.118422 0)
(0.129494 0.176896 0)
(0.00811725 0.132071 0)
(-0.0910451 0.156933 0)
(-0.11352 0.108186 0)
(-0.108019 0.049472 0)