/*--------------------------------*- C++ -*----------------------------------*\
  =========                 |
  \\      /  F ield         | OpenFOAM: The Open Source CFD Toolbox
   \\    /   O peration     | Website:  https://openfoam.org
    \\  /    A nd           | Version:  8
     \\/     M anipulation  |
\*---------------------------------------------------------------------------*/
FoamFile
{
    version     2.0;
    format      ascii;
    class       volScalarField;
    location    "6.3";
    object      p;
}
// * * * * * * * * * * * * * * * * * * * * * * * * * * * * * * * * * * * * * //

dimensions      [1 -1 -2 0 0 0 0];

internalField   nonuniform List<scalar> 
9150
(
-205.298
-206.308
-206.954
-207.418
-207.649
-207.645
-207.406
-206.947
-206.311
-205.302
-225.36
-225.871
-226.3
-226.628
-226.795
-226.795
-226.626
-226.302
-225.873
-225.362
-245.253
-245.531
-245.79
-246.011
-246.119
-246.123
-246.007
-245.788
-245.531
-245.254
-264.992
-265.164
-265.335
-265.492
-265.571
-265.573
-265.489
-265.333
-265.164
-264.991
-284.615
-284.792
-284.929
-285.059
-285.117
-285.114
-285.054
-284.927
-284.79
-284.615
-119.463
-120.144
-119.758
-119.389
-119.198
-119.206
-119.403
-119.762
-120.127
-119.448
-134.824
-135.541
-135.654
-135.716
-135.612
-135.62
-135.718
-135.666
-135.543
-134.828
-151.261
-152.02
-152.311
-152.686
-152.746
-152.74
-152.667
-152.312
-152.007
-151.246
-168.102
-169.275
-169.754
-170.365
-170.557
-170.538
-170.351
-169.736
-169.255
-168.088
-185.211
-187.225
-188.006
-188.65
-188.953
-188.962
-188.689
-188.015
-187.237
-185.221
-26.1355
-26.9875
-28.7271
-29.7089
-30.3131
-30.3802
-29.9443
-28.9484
-26.9547
-25.9236
-46.1265
-46.3739
-47.3248
-47.6398
-48.0689
-48.038
-47.5638
-47.1483
-46.1648
-45.9186
-66.3089
-66.0798
-67.1101
-66.6789
-67.1603
-67.1187
-66.6806
-67.0118
-65.9785
-66.173
-89.0551
-86.1523
-87.0931
-85.6015
-85.6756
-85.6436
-85.5379
-86.9997
-86.0719
-88.9635
-114.174
-105.004
-104.384
-103.121
-102.665
-102.626
-103.073
-104.303
-104.94
-114.088
1232.23
1232.16
1232.15
1232.21
1232.33
1232.43
1232.52
1232.77
1232.84
1232.69
1212.69
1212.63
1212.71
1212.82
1212.83
1212.95
1213.15
1213.15
1213.34
1213.54
1192.48
1192.42
1192.5
1192.72
1192.83
1193.17
1193.28
1193.52
1193.71
1193.88
1172.5
1172.99
1172.91
1173
1173.22
1173.43
1173.76
1174.02
1174.23
1174.4
1152.24
1152.57
1152.89
1153.99
1154.24
1154.03
1154.31
1154.56
1154.85
1155
1132.19
1132.77
1133.37
1134
1134.77
1135.08
1135.4
1135.28
1135.41
1135.54
1112.45
1113.12
1113.8
1114.41
1114.84
1116.2
1116.25
1116.09
1116.03
1115.97
1093.54
1093.86
1094.2
1094.43
1094.75
1096.46
1096.52
1096.41
1096.33
1096.18
1073.31
1073.59
1073.97
1074.32
1074.84
1075.61
1076.61
1075.52
1075.88
1075.95
1052.44
1052.7
1053.13
1053.62
1054.12
1054.51
1055.75
1055.17
1055.54
1055.72
1031.09
1031.33
1031.68
1032.18
1032.82
1033.35
1034.45
1034.88
1035.08
1035.36
1009.55
1009.64
1010.14
1010.91
1011.56
1012.67
1013.64
1014.43
1014.56
1014.9
989.102
989.027
989.516
990.298
991.259
992.146
992.958
993.698
994.139
994.642
969.907
970.156
971.137
971.754
971.418
972.383
973.142
973.709
974.206
974.673
950.446
950.667
952.11
951.804
952.059
952.654
953.242
953.793
954.284
954.736
930.765
931.156
931.593
932.05
932.514
932.994
933.491
934.022
934.552
934.965
910.929
911.446
911.937
912.44
912.923
913.384
913.822
914.33
914.781
915.192
891.156
891.804
892.344
892.82
893.255
893.899
894.715
894.747
895.047
895.344
871.64
872.399
873.022
873.598
874.205
874.783
875.222
875.479
875.447
875.321
852.669
853.559
854.254
855.073
855.623
856.041
856.35
856.439
856.075
856.298
833.929
835.483
836.286
837.273
837.852
838.054
838.088
837.935
837.948
838.212
816.193
816.58
817.949
818.39
819.253
819.424
819.828
820.171
820.511
821.015
799.266
798.492
799.215
800.137
800.761
801.307
801.926
802.557
803.313
804.166
782.934
780.286
780.396
781.272
782.073
782.73
783.622
784.56
785.671
786.945
760.852
761.102
762.391
763.366
763.538
764.339
765.39
765.87
766.803
768.415
741.778
742.496
743.414
745.029
744.456
746.537
747.567
747.708
752.912
751.201
722.647
723.147
723.846
724.656
725.611
727.11
728.716
730.072
731.809
733.273
703.489
703.728
703.994
704.689
706.098
708.85
710.749
712.037
713.329
714.742
684.085
684.172
684.451
685.777
687.926
690.16
691.851
693.226
694.813
696.147
664.861
664.984
665.989
668.264
670.726
672.719
674.123
675.36
676.368
677.107
646.57
647.654
649.958
652.687
655.055
656.848
658.107
658.58
657.469
658.79
632.079
633.896
636.436
638.798
640.808
641.948
642.284
641.183
639.977
632.117
619.872
621.973
624.131
625.869
626.875
626.723
630.6
626.313
618.556
620.758
608.59
610.69
612.675
614.195
615.22
615.873
620.149
612.152
615.37
615.789
596.727
599.276
601.509
603.176
603.738
606.235
607.396
604.82
609.805
611.09
582.916
586.413
588.469
590.025
591.867
594.065
596.052
597.691
600.27
603.465
570.314
572.634
575.142
577.553
579.911
582.289
584.621
586.702
588.756
589.909
556.918
559.741
561.902
564.22
566.576
568.792
570.512
571.963
573.072
573.54
545.741
546.151
548.367
550.415
552.308
553.659
554.544
554.816
554.824
555.629
534.251
535.769
535.965
537.122
538.757
539.366
538.509
536.768
536.343
537.267
523.697
525.518
526.318
526.746
526.808
529.999
526.489
526.464
526.387
526.273
515.343
517.335
518.382
518.757
518.47
519.799
519.404
518.216
518.49
519.057
508.139
510.114
511.708
511.879
511.6
511.231
513.65
510.474
510.269
510.083
502.253
504.161
504.717
503.881
502.545
501.686
500.318
499.303
498.211
496.756
495.938
497.952
499.047
498.68
495.709
491.347
488.145
484.522
481.551
479.151
487.629
489.508
490.999
490.013
486.985
482.138
474.97
467.354
460.66
456.434
476.187
478.881
476.887
473.043
467.071
459.849
449.852
439.822
432.142
424.639
443.565
447.405
446.11
441.55
435.127
425.632
414.551
404.742
396.721
390.596
391.258
397.673
397.551
392.084
382.507
365.894
358.132
355.749
354.293
354.12
338.031
344.237
345.607
342.159
335.997
307.322
306.906
311.71
314.098
316.877
294.133
299.918
301.416
294.842
283.584
273.061
274.409
277.977
274.738
278.831
257.134
262.42
266.325
264.935
257.726
253.739
253.345
253.663
253.391
257.033
232.12
238.337
241.652
241.764
245.357
250.173
253.954
255.221
257.078
261.025
214.528
220.986
226.687
236.212
242.854
260.294
270.171
286.269
287.139
291.716
202.988
208.837
213.727
224.089
240.011
255.843
281.458
312.441
324.295
327.229
191.793
197.356
204.784
213.394
220.127
240.021
262.905
289.978
320.61
318.738
178.957
183.783
189.279
196.626
204.961
215.415
233.004
274.76
295.566
297.324
168.389
171.527
175.449
181.649
188.53
194.438
210.014
242.099
267.854
276.874
165.906
166.486
167.161
169.451
172.757
176.925
188.635
210.033
224.334
245.025
164.126
165.419
165.35
160.041
157.694
158.969
164.124
177.822
187.293
197.053
160.948
161.853
161.64
155.186
149.161
139.854
130.366
130.191
134.752
140.155
160.826
162.891
161.608
153.819
145.186
115.967
84.116
72.5256
71.6918
77.4399
161.079
165.272
167.117
160.391
134.956
82.1477
58.0202
46.73
41.6768
40.6703
156.511
168.748
182.39
169.985
122.053
69.8323
58.7379
56.8437
58.3581
69.0347
158.441
151.979
170.14
138.421
107.525
83.9952
83.9561
87.714
88.6161
92.7753
126.458
118.727
139.976
101.791
102.37
105.205
100.923
107.84
108.378
98.3201
84.8475
70.2329
78.0858
63.9715
84.2656
114.439
109.423
106.964
111.38
114.648
53.2212
40.715
45.8435
47.6106
73.4727
110.897
101.589
104.149
101.211
101.952
42.8861
37.8412
47.6048
47.0415
89.5792
94.3643
138.721
88.4155
100.282
96.3737
32.0369
34.5767
47.991
47.8157
86.658
90.7014
104.749
93.4789
75.4333
81.0062
29.2305
31.4112
32.373
33.272
73.6199
76.453
74.6456
71.2946
56.0433
55.8648
16.7443
11.3959
22.2645
23.3378
57.9554
59.5932
56.3436
55.6729
31.8027
35.4516
-1.54112
0.718709
6.10222
8.59429
32.6232
48.6009
40.6046
43.9623
17.6011
20.8319
-2.46469
-5.83589
-6.96809
-11.2399
25.8561
0.000864022
33.3704
14.965
31.4561
0.28753
-2.19642
-1.76393
-1.90165
-6.55976
23.5535
18.444
6.16198
-1.75544
-3.49822
-1.42902
-1.7869
-1.92054
-1.87212
-1.76433
12.2266
33.5342
-4.49658
-1.44416
-1.51398
-1.4495
-1.52653
-1.65975
-1.79036
0.473358
12.347
35.9246
-2.88728
-0.99757
-1.2249
-1.3432
-1.5713
-1.55568
-1.66662
0.751992
17.0253
33.3372
-1.98484
-1.3526
-1.38791
-1.41879
-1.61268
-1.61346
-1.86941
-2.26723
26.2207
19.0706
-1.48105
-1.4643
-1.4439
-1.44302
-1.65629
-1.6591
-1.77653
-3.30282
28.3752
15.6645
-1.42406
-1.43905
-1.44501
-1.45662
-1.69765
-1.69521
-1.84946
-3.962
29.2269
11.8524
-1.36295
-1.39313
-1.43752
-1.44835
-1.73517
-1.77773
-1.70635
-3.68723
28.1061
13.0526
-1.35929
-1.37853
-1.43805
-1.45493
-1.70915
-1.71885
-0.745739
-3.21443
26.3123
14.5263
-1.40229
-1.40234
-1.45235
-1.47266
-1.76186
-1.76737
-1.75744
-2.72956
27.5048
13.8639
-1.4337
-1.41936
-1.46081
-1.47755
-1.78333
-1.78497
-1.78948
-2.50488
25.9608
16.0958
-1.46046
-1.44321
-1.47905
-1.49363
-1.76311
-1.76416
-1.76299
-1.78757
17.2636
21.4238
-1.53455
-1.50139
-1.53672
-1.54374
-1.7739
-1.76962
-1.76179
-1.80446
14.2579
21.3383
-1.59495
-1.56053
-1.59303
-1.59567
-1.79873
-1.79788
-1.78565
-1.8423
14.0691
19.1086
-1.65258
-1.58668
-1.61488
-1.61512
-1.82521
-1.82697
-1.82478
-1.88041
19.6719
8.84438
-1.67767
-1.60859
-1.65488
-1.6602
-1.83523
-1.82281
-1.83266
-1.8747
15.9445
8.78615
-1.70138
-1.66367
-1.67188
-1.69325
-1.84021
-1.83572
-1.84318
-1.94721
10.1037
9.47999
-1.77799
-1.71516
-1.71339
-1.72292
-1.85853
-1.85726
-1.85463
-2.08689
6.60763
7.32498
-1.99219
-1.75065
-1.75514
-1.75845
-1.8727
-1.8706
-1.87788
-2.18984
4.17098
5.51353
-2.17221
-1.794
-1.78545
-1.78731
-1.8853
-1.88539
-1.96561
-1.99886
2.14704
2.96708
-1.94176
-1.86716
-1.81104
-1.81064
-1.90051
-1.90246
-2.06087
-2.0512
1.25379
0.617867
-1.23288
-1.99135
-1.83678
-1.83527
-1.91395
-1.91698
-2.35877
-1.21306
0.433359
-0.11177
-1.37003
-2.22256
-1.86465
-1.85989
-1.92333
-1.9104
-3.41068
-1.76518
-0.584798
-0.468922
-1.43474
-3.2852
-1.87053
-1.87968
-1.93377
-2.55218
-4.20238
-2.32852
-1.55448
-1.81457
-3.01593
-4.85064
-2.22532
-1.89598
-1.9487
-4.33847
-5.89949
-6.08113
-6.09811
-6.1842
-6.02761
-5.61179
-3.96651
-1.92547
-2.8575
-10.1921
-13.5211
-15.4616
-16.1421
-15.8828
-14.9313
-13.0197
-9.82965
-2.74509
1233.03
1233.01
1233.15
1233.16
1233.15
1233.14
1233.18
1232.9
1232.66
1232.22
1231.63
1230.95
1230.09
1229.1
1228.04
1226.85
1225.61
1224.35
1223.18
1222.24
1221.6
1221.38
1221.52
1221.86
1222.18
1222.29
1221.69
1220.86
1221.46
1221.64
1221.69
1220.63
1222.72
1223.28
1224.49
1227.14
1227.88
1228.22
1228.17
1227.92
1213.42
1213.71
1213.73
1213.68
1213.7
1213.69
1213.65
1213.52
1213.28
1212.86
1212.21
1211.37
1210.28
1209.17
1207.92
1206.52
1205.01
1203.46
1202.04
1200.95
1200.12
1199.55
1199.52
1200
1200.62
1201.16
1201.19
1201.76
1204.51
1204.88
1204.59
1204.94
1205.85
1207.07
1208.42
1209.01
1207.72
1208.56
1208.92
1209.77
1194.11
1194.31
1194.52
1194.22
1194.37
1194.37
1194.23
1194.15
1194.17
1192.97
1192.29
1191.4
1190.15
1188.76
1187.32
1185.83
1184.08
1181.97
1179.9
1178.57
1177.74
1177.13
1176.52
1176.78
1177.91
1179.45
1181.31
1183.57
1185.32
1186.22
1188
1189.64
1190.58
1191.21
1191.14
1191.52
1191.18
1192.55
1193.24
1193.34
1174.55
1174.63
1174.87
1174.73
1174.8
1174.82
1174.6
1174.53
1174.27
1172.83
1172.02
1170.92
1169.58
1167.98
1166.19
1164.41
1162.48
1160.07
1158.8
1157.06
1155.62
1154.58
1154.48
1155.63
1157.22
1157.86
1160.08
1162.35
1165.2
1167.99
1169.71
1170.76
1171.51
1171.97
1172.33
1172.66
1172.47
1172.11
1172.07
1172.72
1155.06
1155.05
1155.17
1154.97
1154.92
1154.67
1154.45
1154.12
1153.83
1152.59
1151.63
1150.2
1148.77
1147.06
1145.1
1143.33
1141.57
1139.68
1138.94
1136.63
1135.81
1135.46
1134.65
1135.17
1137.86
1140.61
1143.07
1145.61
1146.58
1147.18
1149.38
1151.52
1152.07
1152.34
1152.62
1152.92
1153.07
1153.05
1153
1153.06
1135.56
1135.57
1135.54
1135.07
1134.95
1134.65
1134.31
1133.97
1133.48
1132.56
1131.26
1129.73
1128.25
1126.56
1124.59
1122.96
1121.51
1119.9
1118.77
1117.58
1117.99
1116.31
1117.72
1117.9
1118.91
1121.58
1124.45
1126.31
1127.5
1131.59
1132.17
1131.3
1131.71
1132.29
1132.84
1133.25
1133.5
1133.68
1133.83
1133.86
1115.83
1116.07
1115.7
1115.39
1115.08
1114.65
1114.29
1113.89
1113.26
1112.47
1111.51
1110.29
1108.84
1107.09
1105.32
1103.68
1102.18
1101.02
1100.23
1099.34
1098.35
1099.74
1099.45
1101.11
1102.36
1104.34
1106.51
1108.46
1110.17
1111.23
1112.97
1114.35
1112.38
1112.8
1113.34
1113.83
1114.21
1114.5
1114.65
1114.92
1096
1096.38
1095.78
1095.47
1095.1
1094.62
1094.34
1093.79
1093.3
1092.63
1091.78
1090.89
1089.93
1088.78
1087.53
1086.36
1085.38
1084.5
1083.98
1083.74
1083.56
1083.37
1084.06
1084.9
1085.73
1086.3
1087.13
1088.64
1090.14
1091.44
1091.55
1095.39
1093.9
1094.04
1094.52
1094.83
1095.15
1095.51
1095.71
1095.99
1075.89
1076.3
1075.73
1075.45
1075.07
1074.65
1074.3
1073.96
1073.53
1073.03
1072.46
1071.91
1071.37
1070.72
1070.01
1069.65
1069.17
1068.62
1067.99
1067.65
1067.16
1066.77
1066.46
1066.34
1068.01
1067.04
1067.49
1068.7
1069.86
1070.91
1071.25
1075.24
1075.01
1074.95
1075.7
1076.19
1076.36
1076.7
1077.06
1077.18
1055.74
1055.72
1055.83
1055.31
1055.02
1054.68
1054.37
1054.12
1053.82
1053.42
1053
1052.63
1052.26
1051.93
1051.58
1051.24
1051.17
1051.39
1051.35
1050.46
1049.37
1048.6
1048.12
1047.69
1047.25
1046.98
1047.25
1048.39
1049.9
1051.11
1051.72
1053.73
1054.85
1055.07
1056.62
1057.06
1057.84
1057.87
1058.44
1058.57
1035.47
1035.47
1035.6
1035.47
1035.07
1034.81
1034.59
1034.35
1034.08
1033.82
1033.53
1033.17
1032.81
1032.47
1032.12
1031.93
1031.74
1031.69
1031.42
1030.64
1029.76
1030.42
1029.63
1028.77
1028.23
1027.57
1028.05
1028.83
1030.32
1032.21
1033.56
1034.67
1035.6
1036.06
1037.51
1037.89
1038.95
1039.32
1039.88
1040.2
1015.17
1015.33
1015.48
1015.51
1015.43
1015.16
1015.01
1014.82
1014.59
1014.34
1013.91
1013.36
1012.94
1012.61
1012.08
1011.44
1010.94
1010.36
1010.05
1009.82
1009.16
1009.61
1009.69
1010
1010.78
1011
1013.56
1014.77
1015.47
1016
1016.3
1016.54
1015.95
1017.32
1017.96
1019.49
1020.32
1020.86
1021.6
1022
995.053
995.337
995.637
995.806
995.868
995.723
995.568
995.358
995.146
994.905
994.471
994.916
993.48
993.441
992.519
992.174
990.005
988.607
988.169
987.622
986.965
988.187
989.731
991.149
992.347
993.252
994.191
994.875
995.783
996.714
996.562
996.852
997.2
997.625
998.143
999.901
1000.32
1001.17
1002.13
1002.78
975.075
975.432
975.779
976.179
976.237
976.349
976.261
976.091
975.937
975.657
975.452
975.217
974.773
973.896
973.524
972.773
971.672
970.215
970.777
971.135
971.326
970.434
971.091
972.475
973.949
974.797
975.237
975.58
975.946
976.294
976.588
976.734
976.932
977.263
977.788
978.635
979.738
980.707
981.66
982.294
955.171
955.665
956.184
956.615
956.888
957.012
956.913
956.87
956.93
956.78
956.838
956.612
956.287
955.589
955.189
954.868
954.403
953.883
953.874
954.002
953.783
953.56
953.069
953.938
954.976
955.74
956.145
956.349
956.49
956.508
956.328
955.96
955.387
955.129
955.261
956.081
957.998
959.962
961.715
961.908
935.45
936.022
936.586
937.208
937.66
938.185
938.459
937.589
937.701
937.794
937.619
938.464
937.435
936.846
936.501
936.142
935.582
935.377
936.389
936.665
936.786
936.953
935.475
935.33
935.931
936.373
936.635
936.766
936.8
936.653
936.027
935.518
937.953
935.966
932.805
934.078
936.667
940.229
942.732
944.671
915.743
916.204
916.931
917.951
919.095
919.765
919.874
919.406
918.843
918.309
918.413
918.433
918.184
917.952
917.783
917.548
917.193
917.101
919.216
919.126
918.563
917.396
916.613
916.599
916.909
917.276
917.638
917.967
918.351
918.345
918.832
928.119
918.669
918.529
914.777
917.839
922.85
922.116
923.678
925.248
895.498
895.805
896.232
897.054
898.664
900.153
900.516
899.851
898.945
898.634
898.703
898.893
899.04
899.151
899.184
898.758
898.175
897.614
897.955
899.284
897.371
896.637
896.277
895.937
896.135
896.827
897.854
899.503
901.446
902.074
903.132
904.258
897.917
903.405
895.83
898.035
900.707
903.431
903.071
903.627
875.025
873.707
872.647
872.65
874.107
876.391
877.643
877.453
877.134
877.761
878.277
878.686
879.763
880.758
880.726
879.992
879.098
878.217
877.461
876.527
875.686
875.104
874.626
874.256
874.037
874.542
875.383
876.207
877.655
878.71
879.604
879.467
877.003
879.39
872.872
875.096
876.906
878.786
880.562
880.064
855.692
854.68
853.627
853.085
853.647
856.94
856.858
860.169
857.489
856.646
857.319
859.559
861.978
862.253
862.078
861.449
860.153
858.649
857.005
855.491
854.297
853.116
851.531
850.172
849.346
848.961
849.521
850.772
852.076
854.669
855.441
854.55
854.719
853.136
855.02
855.573
853.749
857.73
856.637
858.399
838.536
839.339
839.992
838.751
838.262
839.354
839.802
839.907
839.494
840.278
840.826
842.78
843.262
843.832
843.532
842.41
840.51
838.156
835.534
833.403
832.645
833.59
832.551
828.447
826.665
826.05
825.715
826.957
829.999
831.265
831.808
832.259
832.459
832.13
831.964
832.507
831.068
832.811
830.727
838.32
821.624
824.75
824.065
825.662
823.847
824.495
824.206
824.438
823.997
824.008
823.454
824.234
824.937
825.148
824.759
823.646
821.077
816.879
811.96
809.278
811.723
812.25
811.658
810.4
808.981
807.735
805.784
808.209
807.293
807.185
806.71
806.81
808.057
809.095
809.718
810.26
810.323
808.299
808.347
815.337
804.821
806.442
807.297
807.564
808.751
809.662
809.563
809.532
809.053
808.831
807.491
807.322
807.558
807.653
807.462
806.552
804.193
800.174
796.196
800.04
801.659
796.526
795.647
796.804
795.881
791.916
793.793
785.107
785.065
782.169
780.111
779.035
780.887
784.62
787.641
790.024
791.26
789.762
788.962
792.402
788.016
789.057
790.726
791.3
791.507
792.278
792.734
793.277
792.898
791.726
790.316
789.921
789.77
789.636
789.44
788.496
786.245
783.857
782.293
784.973
787.655
786.157
784.849
784.276
784.236
781.109
775.52
765.543
760.421
759.685
759.022
758.452
761.975
766.934
769.395
769.251
769.213
769.499
791.575
782.125
770.148
771.269
772.809
772.574
774.119
774.694
774.646
776.692
775.39
773.618
772.833
772.165
771.487
770.737
769.834
769.015
767.057
767.229
766.558
767.714
766.891
765.186
764.019
763.464
764.189
762.911
758.222
752.509
746.437
749.745
750.781
751.165
755.325
756.742
757.124
757.67
762.824
762.98
765.806
774.992
750.716
752.275
753.96
754.835
755.544
755.967
756.067
756.194
756.372
755.821
755.536
754.677
753.703
752.565
751.753
751.085
750.816
749.758
746.488
747.933
748.175
747.631
747.078
747.288
745.809
743.454
741.864
741.527
740.822
750.306
746.627
754.212
751.889
748.603
756.475
757.173
758.053
759.087
754.68
762.46
733.996
734.387
735.992
737.303
738.095
738.236
738.179
738.803
738.786
738.715
738.267
737.19
736.165
735.292
734.315
735.267
734.997
731.146
728.98
727.204
725.039
722.998
722.151
723.774
726.107
727.869
725.912
724.783
729.288
739.995
740.71
740.291
742.994
746.704
747.391
748.23
746.313
746.43
741.933
744.735
716.33
717.165
719.267
721.655
722.859
722.438
722.135
722.585
721.533
721.231
720.561
719.704
718.872
718.557
719.548
719.04
716.979
714.387
711.63
708.558
705.311
703.687
706.507
707.064
709.916
710.914
712.748
715.357
720.246
725.305
730.291
729.638
729.799
730.521
730.599
730.042
729.683
727.732
726.169
727.622
697.992
699.668
702.933
706.859
708.612
707.903
707.59
704.805
703.837
702.943
702.157
701.596
702.073
702.692
702.772
702.963
701.825
699.664
695.835
693.423
695.047
693.756
693.449
693.451
693.658
694.115
694.608
696.214
701.574
707.962
715.822
713.928
717.263
716.368
714.054
710.849
708.197
707.368
704.802
707.259
679.712
681.945
685.088
688.416
690.902
690.537
688.279
685.14
683.749
683.057
683.128
683.643
684.086
684.393
684.81
684.349
682.666
680.302
678.155
676.743
683.532
674.622
672.861
673.444
674.609
674.152
674.717
679.746
683.836
683.47
686.374
686.758
689.751
690.355
686.143
688.927
690.46
686.678
686.118
689.296
658.083
657.433
660.991
660.59
660.617
663.8
661.899
662.707
661.554
663.874
664.709
665.255
665.613
665.92
666.378
665.645
664.098
662.854
661.188
658.761
656.416
655.297
653.995
653.408
653.223
653.055
652.626
652.002
653.927
651.55
657.962
654.042
659.307
663.102
663.29
670.912
671.782
670.573
670.21
676.424
629.658
633.003
636.049
634.586
640.916
632.994
636.376
641.766
641.661
645.233
647.284
648.484
648.36
647.685
647.484
646.515
645.283
644.723
643.854
640.943
637.103
633.935
630.929
629.897
630.343
630.265
628.368
625.551
628.591
631.432
634.434
631.683
634.297
639.701
644.503
646.674
647.111
652.693
652.017
652.832
622.736
622.119
621.654
622.159
621.826
617.506
617.427
623.289
628.802
627.167
631.192
632.567
631.099
630.778
630.23
628.656
626.489
625.034
624.172
621.314
616.294
610.895
610.299
607.687
608.142
607.278
607.626
607.953
605
605.206
606.548
609.227
613.727
618.513
622.308
626.037
629.722
630.7
635.057
631.06
616.264
616.631
616.441
615.152
612.527
609.036
607.898
609.651
612.185
614.654
614.267
615.151
615.192
614.799
613.479
616.383
609.968
610.05
607.576
601.337
602.252
601.187
599.255
597.285
595.708
595.557
595.062
593.184
589.951
586.256
587.367
590.6
594.082
597.667
602.349
606.255
608.965
610.102
619.066
614.942
611.465
611.697
610.123
609.041
607.887
605.627
604.304
601.921
598.273
598.759
599.417
599.967
600.114
599.639
597.875
597.32
596.187
595.363
592.271
588.557
584.452
580.645
578.964
578.017
575.163
573.61
573.195
572.8
570.601
569.919
570.708
573.105
575.97
579.271
583.821
585.398
589.722
592.443
602.765
598.615
604.91
604.742
602.221
601.562
600.644
599.544
598.598
601.028
603.337
598.601
590.881
586.724
586.096
586.122
586.278
584.529
584.938
582.711
578.836
571.784
570.541
565.497
560.139
556.837
555.595
554.51
554.965
554.862
553.965
552.367
551.055
550.979
554.002
558.091
563.336
566.73
571.473
575.52
587.984
584.092
592.685
596.364
591.521
590.331
590.274
593.387
590.362
584.463
581.783
581.933
583.827
584.665
578.673
576.662
576.32
574.526
570.042
567.819
564.816
555.799
549.048
539.466
533.165
528.425
525.424
525.439
524.825
527.315
530.155
530.846
531.755
532.364
530.515
534.507
543.381
551.731
557.799
562.715
571.984
569.703
573.79
573.218
574.301
573.73
571.733
571.044
570.057
568.754
568.424
568.257
566.461
565.048
564.702
564.645
565.413
559.771
560.854
556.163
548.447
542.076
528.955
519.536
514.257
512.373
513.058
519.487
520.308
520.072
520.279
520.324
520.11
519.307
521.199
523.906
530.695
540.998
549.982
556.035
560.825
562.804
556.605
557.035
556.63
554.429
552.529
550.959
549.946
550.269
550.707
551.337
550.873
550.434
549.976
547.619
549.685
548.718
544.155
540.84
535.066
527.983
518.8
511.101
507.812
504.429
500.262
514.495
505.745
508.709
509.541
512.795
513.142
514.05
515.504
518.41
523.086
532.167
543.016
551.172
555.188
560.615
540.82
538.681
539.181
537.736
535.657
533.56
532.569
532.569
533.131
533.653
533.835
534.658
534.752
533.356
533.511
530.189
529.244
527.837
522.396
515.53
507.757
507.437
499.684
497.557
504.782
499.362
501.381
502.974
504.053
503.504
504.575
507.032
510.032
513.416
517.082
524.465
537.925
546.101
550.437
557.773
527.682
526.444
525.406
523.998
522.107
519.033
517.13
516.888
517.058
517.511
517.74
518.311
518.137
517.505
515.58
517.565
513.826
508.026
504.787
499.857
502.794
497.085
493.552
494.867
497.597
489.626
491.971
492.178
492.676
493.747
496.594
499.027
502.637
506.646
511.273
521.535
536.856
544.027
547.087
554.839
518.756
516.443
513.741
511.213
508.699
506.277
503.112
502.173
501.829
501.727
501.578
502.466
502.222
501.296
499.027
497.837
494.822
490.696
487.855
484.534
485.035
483.567
483.79
486.557
488.037
485.618
486.775
485.279
488.461
487.245
488.634
490.684
494.85
499.518
501.196
514.363
528.552
537.338
541.364
550.494
508.419
504.848
500.835
497.18
493.877
490.586
487.525
486.005
485.129
484.581
484.253
486.558
487.88
482.158
480.522
478.043
473.909
467.259
466.097
472.307
473.257
476.181
478.257
481.061
483.903
485.419
482.336
474.616
475.283
469.947
472.095
469.908
480.062
488.725
492.519
500.923
510.432
514.732
518.738
526.419
493.994
489.53
484.61
480.117
476.631
472.561
469.922
468.577
468.177
468.083
468.207
468.762
468.365
468.028
465.331
464.225
460.607
457.14
456.299
460.025
467.997
469.226
471.899
471.636
473.518
475.637
468.346
459.618
450.225
444.177
443.429
441.369
449.13
453.425
464.312
470.582
475.54
481.198
498.38
497.716
476.22
471.322
466.068
460.637
456.199
453.135
450.955
449.965
450.065
450.571
452.029
453.253
452.717
450.798
448.733
447.234
446.051
445.069
444.674
447.09
446.73
449.174
453.217
460.862
459.534
454.333
446.513
437.928
428.909
423.958
423.372
423.957
427.113
432.294
437.963
446.119
454.43
457.25
472.356
469.564
453.307
450.609
444.253
438.57
433.778
431.596
429.572
428.112
428.249
429.712
432.653
435.213
434.866
432.303
432.439
431.798
429.958
429.371
425.151
433.917
428.473
428.222
433.263
439.805
437.615
432.652
425.608
418.546
414.2
412.561
411.465
411.527
413.685
417.485
421.433
429.519
437.327
442.51
446.544
449.55
423.635
419.567
412.473
407.309
404.804
404.599
402.211
399.039
398.626
403.193
410.315
415.746
413.914
414.327
414.54
416.331
414
417.186
418.452
420.919
422.165
422.183
417.047
418.597
416.754
413.086
407.189
405.527
404.465
404.072
404.08
404.577
406.114
408.532
411.657
412.86
416.016
423.926
429.342
430.72
395.124
384.038
387.815
385.516
381.086
386.253
378.565
378.412
384.805
383.812
391.002
399.81
407.733
415.215
411.962
409.956
409.972
409.655
409.955
411.127
412.346
410.441
405.176
404.51
402.647
398.737
394.435
397.647
397.196
397.338
397.681
398.309
399.741
402.238
405.913
407.595
401.22
408.607
411.084
413.961
355.962
356.816
356.399
359.95
361.431
363.359
362.266
367.014
371.792
376.229
382.517
387.112
393.726
401.116
396.674
400.666
400.647
400.84
401.087
399.677
397.25
395.224
393.623
392.091
389.831
387.298
384.869
387.955
389.349
390.005
390.61
390.31
392.076
392.109
390.43
390.12
390.831
393.521
394.01
394.904
320.278
326.59
328.506
331.745
337.686
341.994
347.609
353.269
358.344
363.37
368.013
368.152
378.896
381.426
378.495
379.591
382.458
381.989
381.428
381.067
379.879
378.384
377.295
376.378
375.529
374.516
374.003
375.287
377.192
380.904
385.584
379.341
379.527
378.676
377.768
375.415
373.465
373.06
373.721
375.304
288.429
299.527
310.931
319.485
325.179
331.075
335.104
340.164
344.648
349.017
352.227
355.718
358.78
360.682
361.689
362.01
362.021
361.63
360.628
359.572
358.216
356.823
356.483
357.47
358.303
358.799
360.19
362.926
365.559
366.904
367.424
369.816
369.083
362.659
358.467
355.962
355.4
354.572
354.654
358.32
267.37
282.946
298.292
309.991
318.833
324.8
328.005
331.287
333.911
336.436
339.052
341.459
343.176
344.529
344.255
343.271
342.213
340.925
338.826
336.15
333.701
332.439
332.975
335.023
338.1
342.19
344.72
348.327
351.72
353.9
353.513
354.194
353.142
349.412
345.516
344.168
343.232
343.037
340.175
343.849
269.267
282.871
296.044
306.337
313.898
319.749
323.105
323.613
324.266
324.717
326.317
326.166
325.091
324.596
323.856
322.676
320.873
318.029
313.107
307.37
302.669
300.43
303.803
309.318
315.398
321.727
328.029
332.469
335.268
338.166
338.197
336.045
333.271
331.737
330.467
327.786
324.992
331.43
327.976
332.235
295.934
299.151
303.899
308.595
312.143
314.731
320.466
313.955
311.219
309.824
308.105
305.141
302.65
300.766
299.553
298.798
296.015
291.328
283.401
276.015
275.487
279.036
284.182
288.29
292.908
302.851
312.003
318.957
321.876
321.615
318.763
315.624
312.59
310.347
309.245
308.71
309.002
315.667
313.818
314.907
326.559
322.168
315.901
309.216
304.134
309.134
315.952
293.52
289.788
285.849
281.314
276.653
272.616
269.932
266.944
265.77
265.807
266.072
264.045
266.998
266.864
267.338
269.463
271.822
272.501
276.971
283.761
290.674
295.186
294.599
290.474
285.443
284.472
285.518
286.652
287.795
289.894
292.319
297.119
295.981
323.402
317.75
311.326
302.61
292.955
288.552
278.288
268.872
261.803
255.576
250.249
245.385
242.039
241.538
243.365
241.851
239.001
243.772
244.872
251.391
256.853
259.399
261.322
263.205
262.842
257.354
256.649
260.377
262.691
265.27
262.692
259.212
263.726
263.484
265.792
268.91
271.831
274.946
276.711
278.17
300.982
298.699
290.563
281.934
272.966
261.887
251.772
242.669
233.577
225.379
219.335
216.05
214.745
214.024
216.299
221.405
222.127
224.93
230.201
235.304
239.94
243.344
243.846
246.253
243.263
235.881
235.767
235.33
241.129
239.967
241.756
246.617
247.105
249.242
250.903
254.041
257.23
260.07
261.401
261.853
272.384
265.887
260.165
250.524
242.374
231.405
220.333
210.298
200.824
191.081
183.342
179.027
180.398
185.513
191.872
196.192
199.775
204.016
208.099
211.957
214.285
218.016
225.236
227.974
224.062
217.039
221.733
227.411
228.248
228.913
233.363
233.782
239.423
238.816
237.958
242.56
244.722
246.37
247.691
248.097
225.543
222.361
219.704
212.717
206.285
196.999
186.748
175.995
163.462
151.049
146.616
146.292
137.393
145.402
159.357
169.297
176.869
183.181
189.105
193.19
199.484
203.559
206.637
206.903
206.959
206.229
205.679
209.05
215.357
220.706
225.142
226.515
225.524
227.701
225.339
229.17
229.489
231.723
230.921
231.516
181.203
179.594
181.605
175.317
171.445
164.602
156.149
146.616
135.197
129.774
127.671
124.104
116.566
122.633
136.055
146.156
154.573
161.697
168.064
173.557
178.797
182.851
187.242
190.382
191.295
193.794
196.068
199.685
201.728
203.566
207.188
210.475
220.208
209.84
210.366
210.523
217.982
222.161
220.902
218.266
136.104
140.55
148.464
146.53
143.431
137.104
129.505
121.875
116.324
115.295
112.355
108.7
107.348
113.947
121.637
128.65
135.502
141.877
148.009
153.832
159.337
164.369
168.584
172.067
174.354
176.793
178.757
181.921
185.021
184.116
187.5
189.988
191.273
196.889
196.377
201.182
199.516
195.777
198.772
198.346
86.5622
97.2975
108.789
120.381
121.409
115.885
110.17
105.03
103.833
103.176
102.459
98.9474
100.615
103.171
106.861
111.499
116.647
122.052
127.575
133.138
138.628
143.802
148.555
152.519
155.965
158.732
159.074
160.885
161.909
161.573
167.899
168.543
175.932
174.783
180.164
178.029
178.178
176.137
176.782
177.377
64.7618
78.594
81.2347
101.222
103.42
95.4578
94.9099
94.7014
94.2386
92.7699
90.2372
88.8
86.8706
85.9798
88.0334
92.0328
96.8298
101.999
107.331
112.659
118.118
123.587
128.892
133.508
137.894
140.277
140.644
141.286
141.789
140.522
144.891
141.215
144.935
144.896
153.511
149.88
148.092