/*--------------------------------*- C++ -*----------------------------------*\
  =========                 |
  \\      /  F ield         | OpenFOAM: The Open Source CFD Toolbox
   \\    /   O peration     | Website:  https://openfoam.org
    \\  /    A nd           | Version:  8
     \\/     M anipulation  |
\*---------------------------------------------------------------------------*/
FoamFile
{
    version     2.0;
    format      ascii;
    class       volScalarField;
    location    "6.3";
    object      p_rgh;
}
// * * * * * * * * * * * * * * * * * * * * * * * * * * * * * * * * * * * * * //

dimensions      [1 -1 -2 0 0 0 0];

internalField   nonuniform List<scalar> 
9150
(
1962.71
1961.7
1961.06
1960.59
1960.36
1960.36
1960.6
1961.06
1961.7
1962.71
1962.27
1961.76
1961.33
1961
1960.83
1960.83
1961
1961.33
1961.76
1962.27
1962
1961.72
1961.46
1961.24
1961.13
1961.13
1961.24
1961.46
1961.72
1962
1961.88
1961.71
1961.54
1961.38
1961.3
1961.3
1961.38
1961.54
1961.71
1961.88
1961.87
1961.7
1961.56
1961.43
1961.37
1961.38
1961.44
1961.56
1961.7
1961.88
1950.74
1950.06
1950.45
1950.82
1951.01
1951
1950.8
1950.45
1950.08
1950.76
1954.96
1954.24
1954.13
1954.07
1954.17
1954.16
1954.06
1954.12
1954.24
1954.95
1958.11
1957.35
1957.06
1956.68
1956.62
1956.63
1956.7
1957.06
1957.36
1958.12
1960.86
1959.69
1959.21
1958.6
1958.41
1958.42
1958.61
1959.23
1959.71
1960.87
1963.35
1961.34
1960.56
1959.91
1959.61
1959.6
1959.87
1960.55
1961.33
1963.34
1945.67
1944.82
1943.08
1942.1
1941.5
1941.43
1941.87
1942.86
1944.86
1945.89
1945.3
1945.06
1944.11
1943.79
1943.36
1943.39
1943.87
1944.28
1945.27
1945.51
1944.74
1944.97
1943.94
1944.37
1943.89
1943.93
1944.37
1944.04
1945.07
1944.88
1941.61
1944.52
1943.58
1945.07
1944.99
1945.03
1945.13
1943.67
1944.6
1941.71
1936.12
1945.29
1945.91
1947.17
1947.62
1947.66
1947.22
1945.99
1945.35
1936.2
1241.9
1241.83
1241.83
1241.89
1242
1242.1
1242.2
1242.53
1242.61
1242.39
1241.98
1241.91
1241.99
1242.11
1242.09
1241.97
1242.17
1242.23
1242.64
1242.83
1241.29
1241.23
1241.31
1241.53
1241.52
1241.54
1241.91
1242.35
1242.54
1242.71
1239.51
1239.71
1239.63
1240.77
1241.57
1241.79
1242.12
1242.38
1242.59
1242.76
1240.12
1240.46
1239.48
1238.59
1238.83
1239.42
1242.16
1242.45
1242.74
1242.89
1239.61
1240.2
1240.79
1240.17
1238.14
1238.45
1238.78
1241.65
1242.83
1242.97
1239.4
1240.08
1240.77
1241.37
1239.19
1238.36
1238.41
1241.74
1242.98
1242.93
1239.91
1240.35
1240.69
1240.92
1239.95
1237.5
1237.54
1242.24
1242.82
1242.67
1239.33
1239.62
1240
1240.35
1240.87
1236.33
1236.47
1240.01
1241.9
1241.97
1238
1238.26
1238.69
1239.18
1239.69
1236.07
1234.4
1236.11
1241.08
1241.28
1235.9
1236.42
1236.78
1237.27
1237.91
1232.3
1231.86
1232.33
1238.79
1240.45
1234.19
1234.27
1234.76
1235.54
1229.3
1228.89
1229.86
1230.65
1238.48
1239.53
1233.27
1233.09
1228.62
1225.57
1226.56
1227.66
1231.84
1234.25
1238.16
1238.8
1233.61
1229.74
1225.22
1225.84
1228.75
1235.38
1236.83
1237.4
1237.9
1238.37
1233.68
1232.77
1228.01
1230.21
1235.09
1235.89
1236.47
1237.02
1237.51
1237.97
1233.53
1233.92
1234.33
1234.81
1235.28
1235.76
1236.26
1236.79
1237.32
1237.73
1233.23
1233.75
1234.24
1234.74
1235.22
1235.68
1236.12
1236.63
1237.08
1236.6
1232.99
1233.64
1234.18
1234.65
1235.09
1232.51
1231.27
1234.94
1235.87
1235.42
1233.01
1233.77
1234.39
1234.78
1230.05
1228.38
1228.82
1229.08
1230.97
1235.82
1233.57
1234.46
1234.61
1228.8
1228.34
1228.75
1229.06
1229.15
1232.66
1237.03
1229.02
1235.91
1236.42
1229.1
1229.68
1229.88
1229.91
1233.17
1238.15
1238.47
1180.53
1232.38
1237.56
1236.21
1232.67
1235.62
1239.12
1239.95
1240.29
1240.8
1172.41
1200.13
1238.15
1239.17
1239.96
1240.59
1241.23
1241.87
1242.62
1243.48
1178.86
1200.26
1223.56
1229.02
1240.71
1241.56
1242.46
1243.39
1244.5
1245.78
1238.07
1225.52
1221.28
1222.24
1228.95
1242.68
1243.75
1244.23
1233.01
1226.05
1240.34
1241.04
1225.79
1222.63
1230.07
1244.38
1245.43
1226.61
1175.35
1195.33
1240.76
1241.26
1241.57
1235.3
1236.46
1237.78
1203.18
1168.67
1170.15
1171.62
1241.15
1241.39
1241.66
1242.33
1231.11
1175.84
1165.66
1166.91
1168.19
1169.61
1241.3
1241.39
1241.67
1236.2
1171.73
1161.58
1163.26
1164.63
1166.22
1167.55
1241.63
1241.75
1231.38
1169.76
1158.69
1160.66
1162.06
1163.3
1164.31
1174.06
1242.89
1231.85
1159.5
1157.19
1159.53
1161.32
1162.58
1163.06
1188.55
1241.3
1206.27
1154.94
1157.43
1159.82
1161.82
1162.96
1163.3
1213.68
1230
1210.43
1157.41
1159.52
1161.69
1163.43
1164.43
1164.27
1240.48
1245.7
1098.27
907.368
1162.69
1164.79
1166.78
1168.29
1169.31
1225.18
1271.52
1201.38
879.723
858.785
1167.37
1169.92
1172.15
1173.81
1219.91
1278.49
1279.5
1230.57
905.485
861.25
1228.06
1213.47
1222.98
1252.73
1279.82
1285.83
1287.81
1287.89
1177.48
896.08
1281.06
1283.8
1286.34
1288.78
1291.16
1293.54
1295.87
1297.95
1299.61
1219.26
1282.68
1290.44
1292.6
1294.92
1297.27
1299.15
1301.24
1302.7
1303.81
1304.16
1204.54
1257.52
1298.56
1300.6
1302.5
1303.85
1302.57
1305.04
1305.05
1305.85
1206.51
1207.62
1229.27
1290.74
1308.43
1309.02
1295.35
1303.27
1272.27
1278.61
1224.36
1214.29
1215.08
1215.51
1268
1315.89
1277.28
1207.08
1196.05
1196.61
1291.21
1223.1
1224.14
1224.52
1224.25
1263.83
1259.85
1204.37
1204.64
1204.74
1338.31
1294.96
1234.48
1234.65
1234.37
1240.28
1272.21
1213.24
1212.78
1212.77
1351.98
1353.86
1340.64
1291.29
1250.32
1220.99
1219.56
1218.53
1217.43
1215.97
1365.17
1367.07
1368.01
1367.53
1345.82
1282.89
1234.06
1226.15
1224.13
1214.9
1375.1
1375.92
1379.35
1378.04
1369.42
1360.43
1348.09
1335.71
1318.5
1259.18
1243.59
1208.79
1263.21
1270.98
1241.28
1215.97
1216.46
1145.28
1138.09
1237.92
1109.37
1113.31
1117.38
1113.92
1102.3
1090.75
1079.31
1069.47
1061.48
1056.05
1070.99
1077.5
1078.11
1087.56
1150.72
1065.13
1037.25
1034.5
1033.01
1032.96
1031.84
1038.49
1083.91
1213.8
1291.06
1224
1013.27
1005
1006.94
1056.36
1002.39
1009.09
1013.45
1208.39
1258.73
1249.89
1175.03
1109.17
1119.84
1235.93
980.349
987.949
994.424
1208.32
1253.9
1251.81
1253.79
1255.96
1256.19
1259.84
987.049
982.536
998.669
1102.64
1240.32
1265.69
1271.41
1275.36
1279.22
1283.3
1243.61
1218.44
1108.05
1031.8
1049.59
1236.14
1143.89
1073.09
1239.13
1333.43
1252.45
1258.3
1263.08
1073.73
989.207
995.683
929.587
866.613
866.491
1331.43
1260.52
1265.97
1273.06
1281.46
1045.53
1002.96
1180.97
968.985
830.722
968.11
1266.54
1271.3
1276.59
1283.5
1259.7
1127.73
1316.18
1352.65
889.503
822.309
1230.44
1267.63
1280.93
1287.45
1293.36
1298.62
1314.02
1344.44
1034.22
710.036
832.125
967.881
1162.63
1289.11
1296.2
1300.13
1310.41
1329.31
845.244
606.961
750.496
751.953
773.15
1162.31
1297.95
1299.92
1302.53
1240.79
606.238
558.217
757.34
758.006
758.032
1033.51
1296.61
1296.45
1282.17
788.431
501.985
505.3
768.844
769.14
776.082
1132.3
1295.77
1284.66
1079.31
478.326
442.886
448.634
781.009
844.048
1180.25
1139.78
1262.64
1149.33
535.133
428.614
422.16
497.186
865.857
1254.28
1267.93
1162.51
1119.87
1033.57
473.478
444.838
446.352
912.244
1364.29
1244.39
843.017
1184.18
1253.16
1182.78
575.643
481.818
483.448
975.48
1382.32
817.669
460.561
1091.48
1265.77
1271.99
855.748
508.794
514.41
784.675
1335.66
654.482
388.701
628.998
1268.86
1304.5
1301.38
1220.32
624.124
632.126
1269.46
630.701
353.435
415.682
1250.46
1170.05
1263.16
1360.31
1268.94
775.04
1108.9
497.05
355.421
362.456
1246.72
1158.24
385.879
1166.43
1404.79
1394.29
906.988
479.773
360.098
395.707
1257.69
1239.45
352.598
333.051
647.134
1386.51
348.548
348.003
348.796
403.893
1267.61
1279.92
317.665
313.781
621.371
1394.79
895.727
672.864
342.575
378.118
1264.3
1326.74
308.14
301.599
810.239
1425.49
401.527
476.336
330.908
357.816
1249.99
1337.72
318.519
307.634
1239.37
1434.31
68.399
329.88
336.443
334.321
1262.11
1302.73
306.182
585.124
1227.94
686.798
99.9409
297.756
345.166
323.943
1291.91
1326.97
283.319
566.292
224.569
0.697044
-0.232894
70.6705
310.004
330.092
1298.57
1406.06
279.756
192.44
17.2908
0.0441232
0.0471696
26.86
308.605
341.448
1329.61
1439.85
301.172
0.556545
0.288216
0.161476
0.0230491
4.90607
199.497
355.23
1382.57
1462.65
312.919
0.229751
0.137891
0.103887
0.0022474
0.00484445
142.004
378.965
1436.11
1469.69
329.164
0.0867029
0.10189
0.0997637
0.0334741
-0.018789
154.194
404.46
1473.17
1492.37
356.991
0.135129
0.266456
0.26817
0.00949846
-0.0309932
147.727
427.635
1510.34
1513.01
381.652
0.20043
0.95611
1.23519
0.0647827
-0.0879636
186.895
448.385
1544.13
1541.27
416.808
0.246228
1.22636
1.26166
0.0220195
26.512
223.702
472.207
1578.38
1569.04
456.217
0.264592
1.09206
1.27785
-0.0108941
-0.0167285
-0.0066605
509.349
1613.91
1595.07
497.606
0.284745
0.89338
1.30429
0.16695
-0.00725692
-0.0178741
569.571
1640.2
1628.12
563.633
0.296279
0.835029
1.29621
0.315827
0.0829514
0.0297256
641.88
1658.07
1663.57
645.005
0.274715
1.03615
1.24878
0.414051
0.113057
0.0530946
721.971
1681.74
1689.53
727.291
0.249158
1.06705
1.22896
0.467589
0.306272
0.0525291
816.088
1709.22
1711.03
823.794
0.250773
1.0504
1.24855
0.467171
0.36007
0.0402261
941.048
1740.09
1727.59
915.522
0.258572
1.09375
1.23443
0.483021
0.0721497
0.00207175
1064.41
1759.75
1752.58
1057.24
0.176975
0.302227
0.492271
-0.00269878
-0.0512227
-0.0578614
1199.43
1777.06
1776.74
1199.12
0.0629721
0.063065
0.0535337
-0.0541957
-0.0531737
-0.050416
1357.14
1795.9
1796.85
1357.72
0.0454333
0.0409393
0.037637
-0.0439924
-0.047422
47.6492
1493.14
1815.45
1816.92
1493.92
48.9137
0.0302699
0.0283984
-0.0450682
-0.047005
200.429
1629.42
1834.76
1835.77
1630.23
200.752
0.0243635
0.0247141
-0.0464182
-0.0482915
421.569
1758.73
1854.8
1853.62
1755.59
400.797
0.0182905
0.0197137
-0.0402378
-0.0411336
814.134
1853.53
1873.87
1873.27
1837.18
702.665
0.0101553
0.0138223
-0.0299956
0.0323683
1285.16
1891.34
1892.67
1892.69
1891.61
1204.97
0.0568451
0.0136488
-0.0208233
238.772
1714.52
1910.55
1911.39
1911.12
1909.78
1622.71
115.414
0.0169743
-0.0161754
1163.78
1926.15
1926.48
1926.47
1926.39
1926.52
1924.73
1071
0.00709506
665.507
1888.8
1938.67
1936.73
1936.05
1936.31
1937.26
1939.17
1882.63
620.721
1242.71
1242.69
1242.92
1242.92
1242.91
1242.87
1242.89
1242.64
1242.4
1241.96
1241.39
1240.71
1239.85
1238.86
1237.8
1236.62
1235.38
1234.11
1232.94
1232
1231.37
1231.15
1231.28
1231.62
1231.95
1232.05
1231.41
1229.87
1230.14
1230.38
1230.46
1229.26
1230.9
1231.46
1233.23
1236.61
1237.37
1237.72
1237.66
1237.41
1242.59
1242.74
1242.78
1242.97
1242.99
1242.98
1242.78
1242.66
1242.47
1242.15
1241.5
1240.63
1239.57
1238.46
1237.21
1235.81
1234.31
1232.75
1231.33
1230.25
1229.42
1228.84
1228.82
1229.3
1229.91
1230.45
1230.47
1228.38
1229.09
1229.43
1229.14
1229.49
1230.39
1231.61
1232.96
1233.62
1234.92
1236.15
1236.76
1236.05
1242.94
1242.73
1242.89
1242.94
1243.19
1243.18
1242.88
1242.47
1242.17
1241.79
1241.11
1240.15
1238.95
1237.59
1236.14
1234.65
1232.9
1230.79
1228.72
1227.29
1225.58
1224.49
1224.14
1224.87
1226.41
1228.24
1230.06
1232.29
1234.01
1233.61
1229.77
1230.56
1231.48
1232.12
1233.74
1235.99
1235.24
1235.18
1235.82
1235.92
1242.91
1242.65
1242.58
1242.6
1243.14
1243.17
1242.81
1241.87
1241.42
1241.17
1240.36
1239.26
1237.93
1236.33
1234.54
1232.76
1230.83
1227.78
1220.81
1217.89
1216.45
1216.85
1215.59
1216.74
1218.34
1222.76
1226.16
1228.74
1232.53
1236.21
1237.95
1239.01
1239.32
1239.4
1240.51
1241.01
1240.82
1240.45
1238.25
1237.09
1242.95
1242.37
1242.24
1242.21
1242.78
1242.33
1242.11
1241.06
1240.17
1239.27
1239.51
1238.07
1236.65
1234.94
1232.98
1231.2
1229.45
1224.71
1217.15
1214.84
1214.03
1213.68
1213.49
1215.66
1216.69
1219.52
1222.07
1224.72
1225.81
1230.84
1235.77
1239.36
1239.93
1240.21
1240.49
1240.79
1240.94
1240.92
1240.87
1240.93
1242.98
1242.01
1241.95
1242.15
1242.25
1241.57
1241.35
1241.16
1239.01
1238.1
1237
1236.44
1235.66
1233.97
1232
1230.37
1228.92
1226.72
1221.93
1216.39
1214.54
1218.32
1224.73
1224.91
1223.91
1225.74
1231.7
1232.92
1227.8
1227.65
1228.22
1232.6
1237.28
1238.79
1240.24
1240.65
1240.9
1241.08
1241.23
1240.81
1242.71
1241.87
1241.73
1242.34
1242.04
1241.01
1240.63
1240.82
1239.97
1237.51
1236.38
1235.15
1233.73
1232.5
1231.62
1230.53
1229.12
1227.95
1227.15
1226.25
1222.24
1220.29
1223.12
1227.06
1228.83
1231.24
1233.42
1235.37
1237.08
1236.83
1226.3
1227.57
1232.16
1237.28
1240.03
1240.76
1241.14
1241.42
1241.52
1241.03
1242.47
1241.54
1241.72
1241.95
1241.58
1240.76
1240.26
1240.27
1239.78
1239.11
1237.49
1236.22
1234.6
1233.46
1232.24
1231.09
1230.22
1230.92
1230.42
1230.18
1230
1225.76
1224.28
1225.08
1225.91
1227.01
1233.35
1235.08
1236.57
1237.88
1231.26
1225.87
1226.57
1238.23
1239.97
1240.35
1241.57
1241.96
1242.13
1241.5
1241.92
1240.89
1241.54
1241.47
1241.08
1240.67
1240.31
1239.97
1239.55
1239.04
1238.48
1237.93
1237.38
1236.7
1234.94
1233.72
1233.27
1232.72
1233.43
1233.61
1233.12
1232.73
1232.42
1232.28
1227.87
1230.44
1233.46
1234.66
1235.82
1236.87
1231.32
1222.93
1223.78
1237.51
1240.17
1239.09
1240.12
1242.67
1243.04
1242.1
1241.3
1240.96
1240.15
1240.81
1240.56
1240.22
1239.92
1239.65
1239.35
1238.96
1238.55
1238.18
1237.8
1237.47
1236.26
1235.78
1236.41
1236.87
1236.83
1235.94
1234.85
1233.74
1233.48
1233.17
1232.74
1232.47
1232.74
1233.88
1235.39
1234.29
1217.74
1218.77
1219.91
1235.14
1241
1239.11
1239.87
1241.93
1243.95
1243.63
1240.56
1240.53
1239.29
1239.13
1240.04
1239.89
1239.67
1239.41
1239.14
1238.89
1238.61
1238.25
1237.89
1237.55
1236.65
1236.94
1236.75
1236.7
1236.43
1235.65
1234.66
1228.26
1228.9
1233.62
1233.24
1232.09
1233.06
1231.11
1219.02
1214.61
1215.96
1217.08
1220.53
1239.62
1241.29
1239.26
1240.14
1241.59
1244.94
1245.26
1239.8
1239.82
1238.54
1238.57
1238.48
1239.53
1239.61
1239.43
1239.2
1238.95
1238.52
1237.59
1236.77
1237.21
1235.57
1235.29
1235.47
1234.9
1234.59
1233.86
1227.43
1225.96
1226.16
1230.69
1233.77
1221.69
1213.62
1214.59
1215.25
1215.77
1216.07
1216.32
1235.75
1241.91
1240.98
1239.84
1240.67
1244.41
1246.19
1246.59
1239.22
1239.47
1238.09
1238.26
1238.32
1239.45
1239.71
1239.5
1239.29
1239.04
1238.25
1232.52
1234.57
1237.55
1232.22
1230.86
1229.91
1228.13
1223.04
1217.15
1219.69
1223.36
1226.02
1227.15
1228.35
1233.48
1235.29
1233.57
1226.2
1224.24
1229.98
1239.18
1241.32
1241.75
1241
1239.47
1241.91
1245.29
1246.25
1246.9
1238.77
1239.13
1238.79
1238.37
1239.55
1240.02
1239.93
1239.76
1239.61
1239.23
1232.6
1231.78
1231.34
1233.98
1236.99
1236.13
1235.33
1231.06
1196.1
1193.17
1193.34
1217.34
1229.43
1232.47
1237.55
1238.45
1238.89
1239.23
1239.46
1239.82
1240.24
1240.39
1240.59
1240.92
1241.32
1241.69
1243.35
1244.35
1245.31
1245.94
1238.4
1238.88
1239.4
1239.82
1240.09
1240.21
1240.12
1240.07
1240.13
1238.86
1232.41
1232.18
1231.85
1235.04
1238.37
1238.06
1237.59
1234.18
1194.26
1192.46
1192.23
1192.01
1214.82
1237.09
1238.16
1238.92
1239.33
1239.46
1239.63
1239.69
1239.51
1239.15
1238.57
1238.31
1238.45
1239.26
1241.18
1243.14
1244.89
1243.57
1237.1
1237.68
1238.62
1239.17
1238.73
1235.51
1234.37
1237.98
1240.42
1240.48
1238.84
1233.04
1235.65
1239.56
1239.22
1238.86
1238.3
1221.02
1191.35
1191.56
1191.68
1191.85
1213.61
1238
1238.64
1239.08
1239.3
1239.4
1239.46
1239.37
1238.74
1238.23
1231.99
1238.68
1235.52
1236.79
1239.38
1242.94
1238.79
1233.32
1236.67
1237.39
1236.26
1233.13
1233.77
1234.43
1234.53
1234.07
1233.54
1235.33
1240.6
1240.68
1240.43
1240.2
1240.03
1239.8
1239.45
1227.11
1190.67
1190.47
1189.91
1215.81
1238.82
1238.84
1239.15
1239.52
1239.83
1240.2
1240.6
1240.59
1217.85
1176.22
1227.63
1240.77
1229.59
1182.73
1173.25
1202.82
1229.43
1232.52
1236.27
1237
1237.35
1235.83
1237.06
1240.23
1241.17
1239.82
1237.35
1239.31
1240.48
1240.67
1240.82
1240.93
1240.96
1240.54
1239.96
1239.39
1225.79
1210.71
1224.89
1238.3
1238.05
1237.71
1237.91
1238.58
1239.63
1241.28
1243.22
1231.18
1158.27
1160.3
1186.64
1244.59
1173.45
1162
1164.9
1168.03
1225.04
1229.54
1236.2
1234.48
1227.36
1225.06
1230.52
1236.46
1237.76
1237.45
1238.19
1239.07
1239.59
1240
1241.07
1242.07
1242.03
1241.31
1240.41
1239.43
1235.48
1234.9
1236.48
1236.41
1235.93
1235.56
1235.34
1235.85
1236.69
1237.51
1235.15
1149.51
1149.32
1149.18
1217.82
1232.82
1151.92
1154.14
1155.95
1203.58
1224.84
1224.56
1236.39
1226.89
1205.44
1204.98
1207.86
1230.97
1229.98
1186.67
1206.97
1237.39
1238.16
1239.28
1240.63
1242.76
1242.92
1242.29
1241
1239.48
1237.83
1236.33
1235.13
1233.95
1232.37
1231.01
1230.18
1229.8
1230.36
1225.61
1142.62
1139.11
1139.74
1212.18
1226.64
1220.11
1154.93
1149.7
1151.64
1225.71
1217.02
1162.52
1238.79
1211.22
1209.84
1224.99
1224.03
1188.73
1182.48
1182.58
1187.74
1234.61
1240.58
1232.84
1240.97
1244.2
1243.9
1242.78
1240.88
1238.53
1235.9
1233.77
1233.01
1233.96
1232.92
1228.81
1227.03
1226.42
1216.44
1132.28
1130.13
1131.27
1216.15
1223.27
1223.49
1223.15
1211.62
1191.19
1195.34
1221.81
1192.12
1130.77
1236.32
1214.96
1225.43
1232.09
1215.92
1183.89
1183.59
1183.82
1183.38
1186.33
1213.88
1236.09
1244.68
1245.05
1244.66
1243.54
1240.98
1236.78
1227.7
1210.8
1201.32
1232.15
1231.55
1230.3
1228.88
1224.31
1143.69
1128.55
1138.04
1211.83
1216.79
1216.91
1218.16
1219.2
1219.62
1220.02
1220.08
1216.62
1185.25
1122.03
1237.57
1224.36
1232.62
1232.8
1195.11
1185.77
1185.67
1185.63
1185.16
1184.94
1212.69
1246.06
1246.99
1247.08
1246.89
1245.98
1243.62
1239.59
1181.44
1117.12
1116.16
1145.5
1202.96
1220.44
1215.91
1146.21
1101.24
1146.08
1212.75
1211.33
1209.29
1208.21
1210.06
1213.8
1216.82
1219.18
1220.24
1188.73
1113.47
1130.18
1239.07
1233.38
1218.66
1219.26
1221.86
1201.78
1185.55
1186.09
1185.72
1197.37
1240.47
1248.88
1248.73
1248.59
1248.4
1247.45
1245.2
1242.8
1240.64
1175.2
1116.27
1114.63
1113.76
1112.29
1109.06
1101.88
1096.19
1099.83
1200.99
1207.88
1207.25
1199.63
1209.78
1215.18
1217.62
1205.32
1159.49
1153.88
1022.56
1211.4
1237.68
1226.78
1224.99
1238.3
1250.58
1249.76
1225.38
1199.37
1209.62
1242.86
1251.32
1250.65
1249.98
1249.23
1248.32
1247.5
1242.3
1222.23
1244.41
1245.7
1217.01
1170.88
1160.23
1154.7
1123.24
1097.26
1092.64
1086.84
1121.05
1194.42
1163.17
1176.19
1222.16
1222.58
1154.78
1115.23
983.439
1000.23
1003.95
1226.14
1226.44
1229.6
1247.99
1250.74
1251.46
1251.88
1251.96
1248.66
1252.72
1253.84
1253.55
1252.7
1251.72
1250.59
1249.77
1247.51
1202.16
1201.48
1229.99
1245.43
1245.68
1244.88
1243.03
1242.82
1226.95
1169.33
1134.39
1133.88
1131.83
1063.9
1145.55
1228.49
1228.64
1099.35
964.468
965.167
966.047
967.178
1111.41
1252.08
1179.3
1236.56
1251.35
1252.66
1253.45
1253.59
1253.54
1248.93
1256.33
1256.26
1255.82
1254.74
1253.72
1252.84
1232.83
1197.65
1197.38
1210.89
1245.99
1244.22
1241.61
1239.8
1238.97
1240.56
1242.79
1230.14
1173.01
1131.34
1095.52
1037.02
1091.74
1050.31
988.671
965.386
964.856
964.877
1010.1
1049.9
1218.78
1253.91
1171.22
1236.73
1254.07
1256.46
1257.67
1257.24
1255.27
1251.41
1258.3
1258.31
1257.64
1256.78
1248.55
1202.13
1199.31
1198.99
1222.77
1250.89
1248.15
1245.08
1228.62
1128.69
1083.48
1083.86
1059.91
1049.01
1029.98
1026.15
1028.58
1032.71
1036.23
1035.08
1035.02
1160.24
1193.19
1182.55
1228.65
1234.25
1241.02
1256.13
1188.57
1251.8
1257.18
1261.11
1262.87
1261.4
1252.13
1257.85
1260.43
1259.55
1258.76
1218.73
1189.22
1190.86
1200.37
1257.47
1257.73
1255.68
1251.43
1150.8
1079.29
1077.83
1077.53
1077.53
1155.44
1090.44
1088.78
1129.32
1131.75
1064.43
1034.48
1074.36
1256.61
1256.26
1254.01
1247.68
1230.75
1246.87
1252.53
1254.99
1247.25
1255.63
1258.78
1262.11
1264.6
1264.11
1251.93
1260.54
1259.85
1253.08
1194.67
1186.84
1187.81
1193.6
1260.05
1259.68
1257.99
1255.72
1253.34
1199.22
1112.72
1159.87
1229.03
1238.42
1247.76
1239.78
1242.17
1253.25
1250.84
1190.81
1101.98
1221.1
1248.27
1249.26
1222.63
1106.17
1078.61
1108.38
1232.96
1256.24
1251.17
1250.55
1254.12
1253.73
1251.79
1220.36
1256.25
1257.56
1244.4
1183.98
1184.63
1185.34
1185.86
1234.75
1261.21
1260.48
1258.93
1257.68
1255.22
1250.3
1247.72
1249.19
1248.53
1247.93
1247.64
1247.32
1246.64
1245.64
1246.87
1177.68
1076.05
1160.05
1236.73
1240.37
1174.26
1072.5
1071.76
1070.6
1080.34
1229.94
1088.1
1066.7
1125.93
1067.8
946.629
1111.61
1249.86
1255.67
1219.19
1182.2
1184.25
1185.45
1191.29
1262.01
1261.81
1260.85
1259.62
1259.06
1258.19
1255.25
1251.34
1248.05
1244.96
1243.92
1244.36
1244.17
1240.77
1070.63
966.219
972.241
980.021
1075.04
1200.48
1232.02
1254.54
1231.34
1125.43
1065.75
1064.92
1159.74
858.935
858.696
860.684
859.397
858.648
880.042
1183.83
1255.94
1260.43
1205.52
1185.21
1186.6
1240.3
1263.14
1255.77
1259.45
1260.33
1258.87
1258.01
1255.13
1247.68
1145.15
1085.06
1102.57
1149.16
1120.54
990.652
955.506
952.74
953.415
1066.09
1240.08
1244.58
1249.37
1252.81
1255.99
1259.48
1092.17
1060.58
1165.27
859.172
859.578
859.469
858.271
855.838
852.476
885.844
1203.37
1264.31
1266.8
1248.98
1250.87
1266.64
1266.3
1258.29
1209.45
1263.31
1255.44
1246.36
1135.21
987.166
972.902
968.214
963.131
957.642
954.505
953.256
951.549
948.225
1042.12
1219.42
1240.86
1244.35
1247.93
1232.51
1255.13
1258.1
1166.26
1056.93
1165.74
861.585
861.819
860.257
859.218
858.263
856.2
855.01
879.631
1099.59
1217.96
1270.04
1270.84
1271
1270.55
1268.09
1201.58
1115.63
1058.42
1047.48
1043.68
1035.03
1055.86
1021.94
1005.36
1027.2
1088.92
1119.7
1087.7
1156.57
1228.88
1240.1
1242.76
1245.64
1248.67
1225.98
1231.56
1257.48
1160.1
1053.7
1152.33
862.282
862.112
859.593
858.947
858.072
919.562
912.763
879.522
881.831
901.131
1036.95
1189.98
1276.42
1276.45
1276.61
1242.32
1045.31
1042.68
1038.57
1096.01
1223.48
1231.65
1223.89
1218.04
1230.76
1233.44
1234.95
1235.87
1235.56
1234.82
1234.72
1226.85
1241.33
1244.24
1225.44
1228.58
1256.74
1169.43
1051.99
1151.84
1007.81
922.159
1018
1100.99
1173.94
1262.03
1248.08
1113.21
1108.01
1134.75
1059.63
1063.04
1101.61
1269.48
1286.05
1283.75
1205.13
1057.62
1037.53
1071.14
1230.26
1224.6
1218.29
1201.56
1163.78
1104.76
1088.04
1118.9
1130.7
1083.96
988.343
949.602
1036.02
1192.78
1231.17
1253.57
1262.43
1215.57
1049.39
1133.03
1281.15
1260.16
1295.81
1304.49
1303.87
1303.58
1302.64
1301.17
1300.98
1300.78
1273.71
1254.67
1256.54
1161.32
1134.15
1165.23
1214.42
1209.73
1075.8
1070.38
1112.2
1223.35
1218.17
1216.19
971.59
820.246
819.241
818.82
819.01
819.067
818.833
818.031
819.93
935.424
1208.28
1264.93
1273.93
1257.13
1064.44
1065.99
1306.67
1306.59
1307.41
1306.09
1304.6
1303.11
1302.11
1302.45
1302.89
1303.52
1287
1281.33
1280.31
1248.45
1128.61
1127.55
1144.37
1137
1078.17
1072.37
1079.33
1228.95
1230.4
1206.89
981.798
831.596
954.486
966.082
857.076
819.51
819.859
820.747
822.198
825.108
997.325
1270.38
1286.28
1294.39
1173.42
1076.76
1215.82
1260.42
1293.72
1305.24
1307.35
1305.25
1304.25
1304.29
1304.85
1305.37
1300.21
1217.29
1206.41
1244.81
1244.17
1233.04
1121.11
1090.93
1083.24
1075.08
1176.38
1255.67
1219.86
964.521
839.927
967.433
970.634
972.266
973.363
907.498
819.496
821.723
824.695
828.078
915.372
1262.44
1300.45
1308.67
1238.51
1092.43
1196.91
1196.17
1197.88
1197.58
1205.53
1252.13
1307.5
1308.14
1308.31
1308.77
1282.8
1197.84
1197.27
1196.5
1213.75
1300.19
1292.1
1235.14
1170.83
1217.74
1285.26
1271.13
1109.23
834.2
832.837
949.089
972.951
973.351
973.763
881.539
819.785
821.815
825.292
829.28
921.576
1275.76
1318.56
1325.86
1252.25
1105.97
1204.91
1202.59
1199.89
1197.36
1194.86
1196.54
1299.65
1312.92
1312.62
1312.52
1284.62
1198.37
1197.93
1197.09
1238.92
1305.71
1302.23
1297.5
1294.19
1289.03
1287.6
1145.34
834.733
829.46
830.782
889.839
977.53
888.779
820.816
818.414
819.439
821.428
825.555
830.144
1103.27
1313.47
1329.4
1338.35
1293.93
1117.38
1211.1
1207.53
1203.51
1199.86
1196.56
1229.22
1315.13
1316.32
1315.46
1314.92
1314.59
1226.26
1200.97
1287.88
1307.92
1305.44
1301.31
1212.48
1004.61
864.39
855.22
829.328
829.422
831.99
835.068
836.387
837.948
1099.36
1214.38
1171.46
941.557
1053.7
1238.06
1276.66
1282.92
1318.81
1330.67
1334.88
1259.12
1148.43
1213.2
1208.74
1203.82
1199.32
1195.84
1290.69
1319.68
1318.44
1318.05
1317.96
1317.99
1307.61
1311.59
1317.89
1278.48
1210.16
1202.3
1194.92
1116.15
915.806
831.66
831.976
833.072
947.74
1162.89
1307.01
1315.28
1301.83
1225.62
1108.47
1105.74
929.317
857.997
976.718
1255.48
1309.74
1314.89
1313.65
1176.43
1292.86
1211.97
1207.07
1201.81
1220.17
1310.53
1322.52
1320.36
1319.38
1319.48
1319.98
1321.44
1322.66
1322.13
1320.21
1305.69
1272.05
1280.57
1273.5
1237.31
1219.62
1194.86
1178.14
1173.62
1121.39
1198.41
1319.83
1313.21
1304.33
1266.54
929.468
841.081
841.754
844.98
850.521
1179.05
1304.1
1312.88
1273.59
1165.99
1283.62
1278.96
1311.17
1317.97
1325.13
1322.68
1320.54
1318.52
1317.06
1317.2
1318.66
1321.6
1324.16
1323.81
1321.25
1315.77
1314.89
1312.62
1307.47
973.195
754.306
879.975
1026.4
1180.72
1286.32
1323.95
1318.97
1311.92
1292.91
938.498
839.949
838.845
838.584
840.793
844.78
993.651
1305.61
1314.58
1296.51
1237.42
1281.96
1282.5
1280.65
1274.38
1282.33
1300.6
1305.93
1308.44
1307.53
1307.11
1311.68
1318.8
1324.23
1317.71
1155.16
1133.21
1155.4
927.489
743.055
744.835
747.871
749.596
760.065
1137.33
1324.41
1322.57
1318.86
1295.57
959.789
841.174
840.817
840.852
841.35
841.809
844.748
849.133
1008.27
1164.19
1211.57
1189.96
1179.5
1268.35
1166.99
1026.1
1022.18
1070.78
1254.97
1184.58
893.014
748.094
899.714
1037.74
1093.7
820.758
745.645
742.393
742.228
742.203
742.057
742.692
744.512
746.33
865.324
1260.59
1329.8
1327.94
1323.98
1219
843.747
843.287
843.438
843.819
844.474
845.389
848.007
851.961
873.832
1164.43
1251.39
1143.01
1145.88
1220.13
1252.41
1016.69
1010.01
1118.98
1160.05
823.748
663.196
668.444
675.173
690.663
724.761
1033.36
1129.16
793.591
739.891
739.811
740.065
740.486
813.642
1018.65
1266.31
1338.4
1336.86
1334.6
1331.99
1305.22
954.48
844.84
845.49
846.129
845.871
996.242
1083.85
1129.26
1215.47
1287.54
1307
1288.86
1304.26
1269.21
1290.39
1255.21
1075.29
934.716
853.854
649.797
655.195
660.633
666.138
686.209
1185.47
1342.92
1343.91
1230.92
1080.63
1025.71
1082.41
1175.18
1285.67
1337.66
1342.64
1341.55
1340.63
1339.78
1338.75
1338.01
1307.11
1088.21
912.501
851.084
1011.6
1246.14
1250.52
1254.08
1255.86
1256
1306.73
1310.63
1325.47
1271.76
1282.83
1273.9
1094.43
1023.11
649.899
643.129
648.189
652.673
658.166
1095.96
1339.38
1342.49
1342.99
1334.25
1338.77
1344.8
1345.16
1344.21
1343.22
1341.88
1340.52
1339.28
1334.75
1335.8
1342.28
1343.5
1346.05
1346.61
1291.04
1140.35
1077.49
1082.78
1116.74
1119.12
1127.01
1104.23
1112.5
1131.65
1314.7
1270.18
1285.75
1301.06
1283.95
1118.34
639.025
642.179
645.411
648.753
930.909
1342.2
1344.67
1346.39
1347.72
1347.43
1346.44
1345.41
1344.06
1341.95
1339.29
1336.84
1335.58
1336.12
1338.12
1340.29
1330.73
1345.37
1350.72
1354.11
1355.94
1300.17
1193.36
1168.36
1202.17
1188.97
1112.01
1106.79
1106.63
1188.75
1318.98
1291.55
1305.15
1318.28
1328.04
1194.68
660.469
643.431
644.305
807.216
1347.23
1349.01
1348.86
1347.79
1347.29
1346.53
1345.34
1343.53
1340.78
1335.71
1328.67
1307.74
1294.22
1308.99
1331.76
1337.49
1327.8
1332.92
1351.08
1334.47
1269.67
1267.71
1267.87
1280.44
1305.46
1337.74
1319.31
1262.25
1109.82
1191.27
1325.89
1337.68
1340.88
1345.59
1349.95
1276.52
742.395
647.318
732.186
1295.01
1351.98
1350.28
1347.32
1344.83
1342.94
1341.72
1340.95
1338.17
1333.44
1315.11
1130.16
824.009
787.313
795.301
921.915
1249.42
1335.61
1345.92
1353.48
1340.08
1336.29
1341.61
1347.2
1344.67
1342.73
1341.93
1341.66
1341.92
1165.54
1214.79
1325.78
1387.76
1383.36
1377.09
1370.29
1328.6
897.875
714.614
1201.61
1351.19
1347.36
1342.95
1338.32
1321.43
1296.17
1321.35
1327.35
1327.13
1325.19
1067.82
784.169
783.948
784.473
786.979
791.273
964.257
1326.03
1335.82
1343.41
1346.85
1343.47
1336.05
1301.38
1288.59
1333.72
1338.51
1340.07
1342.16
1293.62
1232.82
1324.3
1078.68
1398.41
1391.99
1383.25
1331.88
1199.49
1240.13
1349.38
1342.72
1336.49
1331.25
1326.35
1318.09
1189.11
1117.39
1108.53
1204.21
1306.35
1274.94
927.501
783.479
785.976
787.946
790.216
791.627
872.86
1256.19
1330.7
1301.59
1315.13
1274.61
1056.89
1022.38
1136.27
1330.4
1340.48
1343.41
1346.51
1283.03
1283.11
776.194
793.729
1301.93
1379.2
1358.86
1360.41
1351.29
1343.02
1333.97
1325.77
1319.73
1316.42
1314.79
1291.09
1180.02
1084.2
1084.92
1087.74
1095.26
1296.63
1302.79
1305.76
1156.66
932.536
964.925
1130.51
1165.96
1024.83
886.281
949.688
978.073
944.387
1020.33
1085.57
1286.95
1344.92
1348.1
1350.93
1325.93
1318.86
737.149
760.647
1277.34
1369.21
1361.66
1350.73
1340.07
1330.13
1320.68
1310.95
1303.2
1298.7
1280.03
1277.88
1314.63
1300.9
1261.45
1208.25
1105.43
1080.25
1082.37
1151.05
1330.35
1333.47
1321.63
1022.38
840.178
841.361
841.562
842.231
846.678
934.42
1215.2
1081.73
1173.27
1351.84
1352.61
1355.61
1356.7
1356.87
876.906
779.922
1294.85
1351.64
1345.18
1335.87
1325.56
1315.18
1302.79
1091.62
744.046
665.752
971.608
1246.02
1301.96
1311.9
1319.47
1325.73
1321.97
1255.1
1096.15
1068.89
1071.93
1073.63
1223.06
1259.7
1258.89
1262.32
918.851
844.687
876.242
962.412
1221.87
1229.23
1098.12
1101.7
1124.29
1317.16
1261.43
1325.61
842.663
753.528
1314.86
1333.71
1329.84
1322.98
1314.48
1304.87
1050.22
490.062
445.485
460.341
734.572
1265.74
1298.19
1308.29
1316.7
1323.83
1330.2
1335.64
1312.42
1311.59
1335.96
1326.58
1223.4
1115.86
1087.11
1086.28
1086.97
1221.13
1238.01
1121.79
1039.17
1236.01
1236.72
1198.88
1044.41
1041.84
1040.58
1055.5
609.678
706.506
1276.01
1324.4
1321.3
1314.97
1307.35
1167.6
508.029
426.106
429.339
497.459
1119.4
1295.61
1303.3
1310.31
1317.16
1323.54
1329.67
1335.5
1341
1346.03
1350.25
1353.73
1331.19
1298.93
1336.54
1358.76
1362.71
1250.86
1234.01
1269.23
1261.37
1170.58
1226.2
1356.26
1355.73
1343.33
1190.88
1367.53
497.171
759.925
1124.56
1317.71
1318.74
1313.21
1175.73
622.725
412.362
416.3
422.175
994.817
1301.18
1304.37
1308.05
1312.69
1317.82
1323.21
1328.77
1334.33
1339.82
1345
1349.75
1353.71
1277.35
1255.78
1321.93
1358.49
1359.63
1334.76
1232.54
1265.34
1371.73
1238.78
1224.59
1300.62
1355.33
1356.72
1365.29
1365.89
888.848
489.205
668.531
1276.72
1240.54
946.181
557.026
408.246
405.99
414.416
829.831
1302.84
1307.6
1306.71
1308.76
1312.76
1317.55
1322.72
1328.06
1333.24
1338.84
1344.31
1349.62
1338.14
1255.1
1255.16
1269.04
1356.64
1359.14
1338.67
1233.86
1312.98
1362.11
1359.2
1000.39
1088.44
1244.42
1266.43
1356.74
1360.48
1085.56
444.325
425.509
587.26
521.032
413.205
405.485
403.537
400.145
683.181
1237.37
1298.31
1265.53
1241.68
1276.79
1306.48
1314.77
1322.27
1328.94
1334.25
1340.26