/*--------------------------------*- C++ -*----------------------------------*\
  =========                 |
  \\      /  F ield         | OpenFOAM: The Open Source CFD Toolbox
   \\    /   O peration     | Website:  https://openfoam.org
    \\  /    A nd           | Version:  8
     \\/     M anipulation  |
\*---------------------------------------------------------------------------*/
FoamFile
{
    version     2.0;
    format      ascii;
    class       surfaceScalarField;
    location    "6.3";
    object      phi;
}
// * * * * * * * * * * * * * * * * * * * * * * * * * * * * * * * * * * * * * //

dimensions      [0 3 -1 0 0 0 0];

internalField   nonuniform List<scalar> 
18095
(
1.99815e-08
-1.72048e-07
1.52066e-07
2.32686e-08
-1.97388e-07
1.94101e-07
2.06123e-08
-2.06117e-07
2.08773e-07
1.20503e-08
-2.11141e-07
2.19703e-07
2.73382e-10
-2.1316e-07
2.24937e-07
-1.10252e-08
-2.13445e-07
2.24743e-07
-1.97814e-08
-2.10963e-07
2.19719e-07
-2.31691e-08
-2.06137e-07
2.09525e-07
-1.99891e-08
-1.97472e-07
1.94292e-07
-1.7213e-07
1.52141e-07
1.55594e-08
-1.87607e-07
1.62632e-08
-1.98092e-07
1.20484e-08
-2.01902e-07
6.39325e-09
-2.05485e-07
1.6027e-10
-2.06927e-07
-6.16753e-09
-2.07117e-07
-1.19985e-08
-2.05132e-07
-1.61795e-08
-2.01956e-07
-1.55165e-08
-1.98135e-07
-1.87647e-07
6.80424e-09
-1.94411e-07
8.41902e-09
-1.99707e-07
7.41786e-09
-2.00901e-07
4.38147e-09
-2.02449e-07
2.17505e-10
-2.02763e-07
-4.28545e-09
-2.02614e-07
-7.40011e-09
-2.02018e-07
-8.39569e-09
-2.00961e-07
-6.78451e-09
-1.99746e-07
-1.94431e-07
4.51918e-09
-1.9893e-07
4.74698e-09
-1.99934e-07
3.68145e-09
-1.99835e-07
1.59021e-09
-2.00358e-07
-3.99744e-10
-2.00773e-07
-2.09658e-09
-2.00917e-07
-3.65142e-09
-2.00463e-07
-4.71881e-09
-1.99893e-07
-4.50195e-09
-1.99963e-07
-1.98933e-07
1.06959e-09
1.1353e-09
1.30012e-09
9.42369e-10
1.69389e-10
-7.4754e-10
-1.21031e-09
-1.10354e-09
-1.06658e-09
-2.88583e-08
-1.95969e-07
2.24827e-07
-3.13683e-08
-1.99245e-07
2.01755e-07
-2.64459e-08
-2.00793e-07
1.95871e-07
-1.61808e-08
-2.01441e-07
1.91176e-07
-1.85077e-09
-2.02105e-07
1.87775e-07
1.3224e-08
-2.02413e-07
1.87339e-07
2.5018e-08
-2.01896e-07
1.90103e-07
3.10782e-08
-2.01327e-07
1.95267e-07
2.87251e-08
-1.99079e-07
2.01432e-07
-1.95731e-07
2.24456e-07
-9.42482e-09
-1.86544e-07
-1.50125e-08
-1.93658e-07
-1.18039e-08
-2.04002e-07
-5.05464e-09
-2.08191e-07
7.63887e-10
-2.07923e-07
6.38227e-09
-2.08032e-07
1.26576e-08
-2.08172e-07
1.49766e-08
-2.03646e-07
9.32696e-09
-1.93429e-07
-1.86404e-07
-9.78727e-09
-1.76757e-07
-8.17844e-09
-1.95266e-07
-7.64609e-09
-2.04534e-07
-6.45442e-09
-2.09382e-07
-1.33173e-09
-2.13046e-07
3.81966e-09
-2.13183e-07
6.29569e-09
-2.10648e-07
7.64676e-09
-2.04997e-07
9.70285e-09
-1.95486e-07
-1.76701e-07
-6.30663e-09
-1.7045e-07
-7.77562e-09
-1.93797e-07
-6.77179e-09
-2.05538e-07
-1.1911e-09
-2.14963e-07
2.26545e-09
-2.16503e-07
5.11616e-09
-2.16034e-07
8.82272e-09
-2.14354e-07
8.75936e-09
-2.04934e-07
6.52707e-09
-1.93253e-07
-1.70174e-07
-1.83841e-08
-1.80806e-08
-1.48459e-08
-1.01063e-08
-1.67197e-09
7.03722e-09
1.24024e-08
1.69936e-08
1.80324e-08
2.91771e-08
-1.59607e-07
1.3043e-07
3.39722e-08
-1.99147e-07
1.94352e-07
2.40066e-08
-2.10068e-07
2.20033e-07
8.61621e-09
-2.15117e-07
2.30508e-07
-8.88066e-09
-2.16502e-07
2.33998e-07
-2.55154e-08
-2.1631e-07
2.32945e-07
-3.69247e-08
-2.15733e-07
2.27143e-07
-4.11339e-08
-2.10494e-07
2.14703e-07
-3.2328e-08
-1.98831e-07
1.90025e-07
-1.58193e-07
1.25865e-07
1.56268e-08
-1.75234e-07
1.86327e-08
-2.02153e-07
1.6397e-08
-2.07832e-07
1.02071e-08
-2.08927e-07
1.24349e-09
-2.07538e-07
-7.44702e-09
-2.0762e-07
-1.49594e-08
-2.08221e-07
-1.84343e-08
-2.07019e-07
-1.6284e-08
-2.00981e-07
-1.74477e-07
7.90001e-09
-1.83134e-07
7.88353e-09
-2.02136e-07
6.6626e-09
-2.06611e-07
2.81521e-09
-2.0508e-07
5.41726e-11
-2.04777e-07
-3.10103e-09
-2.04465e-07
-7.74713e-09
-2.03575e-07
-8.85371e-09
-2.05912e-07
-8.1234e-09
-2.01711e-07
-1.826e-07
7.59837e-09
-1.90732e-07
5.00474e-09
-1.99542e-07
5.86612e-09
-2.07472e-07
1.92543e-10
-1.99406e-07
-1.5876e-09
-2.02997e-07
-2.99034e-09
-2.03062e-07
-6.5552e-09
-2.0001e-07
-5.43078e-09
-2.07037e-07
-7.87044e-09
-1.99272e-07
-1.90471e-07
3.40953e-08
3.63082e-08
2.47071e-08
1.6477e-08
1.25486e-09
-1.44683e-08
-2.43757e-08
-3.61455e-08
-3.39848e-08
1.30922e-07
5.5965e-09
-1.36519e-07
1.26092e-07
4.83081e-09
1.21553e-07
4.5384e-09
1.16397e-07
5.15605e-09
1.09597e-07
6.80057e-09
1.01521e-07
8.07544e-09
9.30291e-08
8.49243e-09
8.55598e-08
7.4693e-09
8.09031e-08
4.65679e-09
3.23328e-09
7.76698e-08
1.18959e-07
1.34545e-08
-1.26817e-07
1.15952e-07
7.83806e-09
1.18892e-07
1.59831e-09
1.23906e-07
1.42393e-10
1.28025e-07
2.68169e-09
1.28946e-07
7.15471e-09
1.26177e-07
1.12612e-08
1.19703e-07
1.39433e-08
1.10898e-07
1.34611e-08
1.1308e-08
1.02824e-07
1.10559e-07
2.67494e-08
-1.23854e-07
9.69661e-08
2.14312e-08
9.38241e-08
4.74024e-09
9.66797e-08
-2.71329e-09
1.05047e-07
-5.68577e-09
1.15274e-07
-3.07228e-09
1.2431e-07
2.2257e-09
1.2754e-07
1.07129e-08
1.26127e-07
1.48744e-08
1.59781e-08
1.21457e-07
1.54253e-07
2.7494e-08
-1.54997e-07
1.58564e-07
1.71191e-08
1.50037e-07
1.32674e-08
1.35779e-07
1.15445e-08
1.24504e-07
5.58948e-09
1.22895e-07
-1.46372e-09
1.26417e-07
-1.29631e-09
1.30455e-07
6.67504e-09
1.30376e-07
1.4954e-08
1.88583e-08
1.27495e-07
1.83269e-07
2.37111e-08
-1.79487e-07
1.857e-07
1.46873e-08
1.8598e-07
1.29882e-08
1.80074e-07
1.74496e-08
1.63824e-07
2.18399e-08
1.46411e-07
1.59489e-08
1.3672e-07
8.39481e-09
1.34275e-07
9.1206e-09
1.31883e-07
1.73453e-08
2.5337e-08
1.25405e-07
2.17253e-07
2.38527e-08
-2.17395e-07
2.13833e-07
1.81066e-08
2.1047e-07
1.63507e-08
2.06448e-07
2.1472e-08
1.97161e-07
3.1127e-08
1.82569e-07
3.05406e-08
1.67022e-07
2.3942e-08
1.56886e-07
1.92565e-08
1.49282e-07
2.49492e-08
3.62443e-08
1.38375e-07
2.8585e-07
2.69186e-08
-2.88916e-07
2.76784e-07
2.71722e-08
2.65413e-07
2.77216e-08
2.53359e-07
3.35259e-08
2.3721e-07
4.72758e-08
2.16766e-07
5.0985e-08
1.95715e-07
4.49919e-08
1.77002e-07
3.79703e-08
1.61086e-07
4.08644e-08
4.97015e-08
1.47629e-07
3.19295e-07
4.23478e-08
-3.34725e-07
3.03152e-07
4.33148e-08
2.878e-07
4.30737e-08
2.74797e-07
4.65291e-08
2.62016e-07
6.00562e-08
2.405e-07
7.25004e-08
2.14692e-07
7.08004e-08
1.88246e-07
6.4416e-08
1.68112e-07
6.0998e-08
6.2978e-08
1.54836e-07
3.12928e-07
4.93218e-08
-3.19902e-07
3.01658e-07
5.45842e-08
2.88858e-07
5.58732e-08
2.76725e-07
5.86623e-08
2.64026e-07
7.27551e-08
2.44411e-07
9.21153e-08
2.21721e-07
9.34906e-08
1.98817e-07
8.732e-08
1.78367e-07
8.14484e-08
7.63987e-08
1.64946e-07
3.11559e-07
5.71766e-08
-3.19413e-07
3.0318e-07
6.2963e-08
2.91013e-07
6.80395e-08
2.74785e-07
7.48903e-08
2.57447e-07
9.0093e-08
2.4224e-07
1.07322e-07
2.24365e-07
1.11366e-07
2.07482e-07
1.04202e-07
1.89227e-07
9.97042e-08
9.48761e-08
1.70749e-07
2.98908e-07
6.13477e-08
-3.03079e-07
2.92306e-07
6.95655e-08
2.80687e-07
7.96586e-08
2.61745e-07
9.38315e-08
2.41868e-07
1.0997e-07
2.29722e-07
1.19468e-07
2.20941e-07
1.20147e-07
2.08111e-07
1.17032e-07
1.91754e-07
1.1606e-07
1.13361e-07
1.7327e-07
2.40176e-07
5.79729e-08
-2.36802e-07
2.37677e-07
7.20654e-08
2.26641e-07
9.06942e-08
2.11273e-07
1.092e-07
1.99971e-07
1.21272e-07
1.93813e-07
1.25626e-07
1.88083e-07
1.25876e-07
1.80137e-07
1.24979e-07
1.70687e-07
1.2551e-07
1.22195e-07
1.61853e-07
1.38602e-07
5.80932e-08
-1.38722e-07
1.39203e-07
7.14652e-08
1.41422e-07
8.84755e-08
1.42197e-07
1.08424e-07
1.4212e-07
1.2135e-07
1.39759e-07
1.27987e-07
1.36541e-07
1.29094e-07
1.34398e-07
1.27122e-07
1.34976e-07
1.24932e-07
1.2217e-07
1.35e-07
8.76634e-08
6.19768e-08
-9.15468e-08
8.5469e-08
7.366e-08
8.9618e-08
8.43266e-08
9.26971e-08
1.05345e-07
9.42634e-08
1.19783e-07
9.605e-08
1.26201e-07
9.78442e-08
1.273e-07
9.90531e-08
1.25913e-07
1.01335e-07
1.2265e-07
1.19623e-07
1.03882e-07
7.65523e-08
6.44143e-08
-7.89896e-08
7.5479e-08
7.47335e-08
7.16877e-08
8.81178e-08
7.29445e-08
1.04088e-07
7.56651e-08
1.17063e-07
7.74916e-08
1.24374e-07
7.93343e-08
1.25457e-07
8.0616e-08
1.24631e-07
8.25884e-08
1.20678e-07
1.18404e-07
8.3807e-08
7.48394e-08
6.50878e-08
-7.55127e-08
7.32934e-08
7.62793e-08
7.30953e-08
8.8316e-08
7.3906e-08
1.03277e-07
7.4731e-08
1.16238e-07
7.35814e-08
1.25524e-07
7.19168e-08
1.27122e-07
7.17002e-08
1.24848e-07
7.05962e-08
1.21782e-07
1.21614e-07
6.73865e-08
7.51436e-08
6.33819e-08
-7.34376e-08
7.54812e-08
7.59411e-08
7.5557e-08
8.824e-08
7.559e-08
1.03244e-07
7.52373e-08
1.1659e-07
7.0748e-08
1.30013e-07
6.12705e-08
1.36599e-07
5.37407e-08
1.32377e-07
4.20015e-08
1.33521e-07
1.36385e-07
2.72301e-08
7.48621e-08
6.38773e-08
-7.53576e-08
7.35881e-08
7.72145e-08
7.25845e-08
8.92433e-08
6.94335e-08
1.06395e-07
6.24951e-08
1.23529e-07
5.19156e-08
1.40593e-07
4.09646e-08
1.4755e-07
2.80739e-08
1.45268e-07
1.54373e-08
1.46157e-07
1.45621e-07
6.20101e-09
7.01421e-08
6.94839e-08
-7.57492e-08
6.59465e-08
8.14096e-08
5.79079e-08
9.72815e-08
4.99181e-08
1.14385e-07
4.04318e-08
1.33015e-07
3.44358e-08
1.46589e-07
3.17002e-08
1.50286e-07
2.54393e-08
1.51529e-07
2.05846e-08
1.51012e-07
1.471e-07
1.91057e-08
6.53617e-08
8.44587e-08
-8.03368e-08
5.8338e-08
8.8433e-08
5.18611e-08
1.03758e-07
4.66585e-08
1.19587e-07
4.09041e-08
1.38769e-07
3.79703e-08
1.49522e-07
3.77704e-08
1.50486e-07
4.03834e-08
1.48916e-07
4.84612e-08
1.42934e-07
1.30009e-07
6.55523e-08
8.10588e-08
1.11773e-07
-1.08374e-07
6.57448e-08
1.03747e-07
6.07564e-08
1.08747e-07
5.75984e-08
1.22745e-07
5.9382e-08
1.36985e-07
6.09378e-08
1.47967e-07
6.35837e-08
1.4784e-07
7.04578e-08
1.42042e-07
8.65214e-08
1.26871e-07
1.07832e-07
1.08699e-07
1.27792e-07
1.3332e-07
-1.49339e-07
1.06377e-07
1.25162e-07
9.54712e-08
1.19652e-07
9.32332e-08
1.24983e-07
9.48978e-08
1.35321e-07
1.02363e-07
1.40501e-07
1.11076e-07
1.39127e-07
1.23238e-07
1.2988e-07
1.36999e-07
1.13109e-07
1.00262e-07
1.44569e-07
1.83638e-07
1.36249e-07
-1.86568e-07
1.66735e-07
1.42065e-07
1.43376e-07
1.43012e-07
1.28649e-07
1.39709e-07
1.2217e-07
1.418e-07
1.26191e-07
1.3648e-07
1.36448e-07
1.2887e-07
1.46558e-07
1.19771e-07
1.49721e-07
1.09946e-07
1.02006e-07
1.47977e-07
1.93358e-07
1.40914e-07
-1.98023e-07
1.87836e-07
1.47587e-07
1.77698e-07
1.5315e-07
1.59208e-07
1.582e-07
1.47317e-07
1.53691e-07
1.44349e-07
1.39448e-07
1.48427e-07
1.24792e-07
1.46456e-07
1.21742e-07
1.3241e-07
1.23992e-07
1.15105e-07
1.1931e-07
1.90663e-07
1.42509e-07
-1.92257e-07
1.92875e-07
1.45374e-07
1.93532e-07
1.52493e-07
1.81771e-07
1.69961e-07
1.63887e-07
1.71576e-07
1.54952e-07
1.48383e-07
1.5163e-07
1.28115e-07
1.36605e-07
1.36767e-07
1.0088e-07
1.59717e-07
1.25071e-07
9.09145e-08
1.73343e-07
1.30539e-07
-1.61374e-07
1.84937e-07
1.3378e-07
1.9108e-07
1.46351e-07
1.83132e-07
1.77908e-07
1.67034e-07
1.87674e-07
1.47899e-07
1.67517e-07
1.29138e-07
1.46876e-07
1.04455e-07
1.6145e-07
8.80368e-08
1.76135e-07
1.266e-07
8.65072e-08
1.51199e-07
1.15638e-07
-1.36298e-07
1.65425e-07
1.19555e-07
1.76754e-07
1.35022e-07
1.79011e-07
1.7565e-07
1.68639e-07
1.98047e-07
1.41132e-07
1.95024e-07
1.02381e-07
1.85626e-07
7.61298e-08
1.87701e-07
8.07861e-08
1.71479e-07
1.29517e-07
7.78694e-08
1.30858e-07
1.00809e-07
-1.16029e-07
1.40121e-07
1.10291e-07
1.44863e-07
1.30281e-07
1.42616e-07
1.77897e-07
1.29099e-07
2.11563e-07
1.06886e-07
2.17238e-07
8.19851e-08
2.10527e-07
7.26676e-08
1.97019e-07
8.25066e-08
1.6164e-07
1.31754e-07
8.02693e-08
9.92639e-08
8.6235e-08
-8.46901e-08
1.02118e-07
1.07437e-07
8.39726e-08
1.48427e-07
6.92775e-08
1.92592e-07
6.49663e-08
2.15874e-07
6.47859e-08
2.17418e-07
6.67157e-08
2.08597e-07
7.92322e-08
1.84503e-07
9.63197e-08
1.44553e-07
1.21365e-07
1.06709e-07
5.60089e-08
7.96853e-08
-4.9459e-08
4.69573e-08
1.16488e-07
2.73108e-08
1.68073e-07
2.23246e-08
1.97578e-07
3.20924e-08
2.06107e-07
5.1594e-08
1.97917e-07
7.17636e-08
1.88428e-07
9.8322e-08
1.57944e-07
1.28829e-07
1.14046e-07
8.51362e-08
1.65057e-07
-3.74923e-08
8.23249e-08
3.4853e-08
-5.5066e-08
1.34062e-07
-5.30768e-08
1.66084e-07
-3.2161e-08
1.76663e-07
-2.69311e-09
1.76639e-07
2.37629e-08
1.71461e-07
5.62494e-08
1.55941e-07
1.10588e-07
1.03605e-07
1.59235e-07
6.53998e-08
5.20905e-08
1.92281e-07
-1.33131e-07
8.14299e-08
1.34026e-07
-1.26753e-07
1.27684e-07
-1.02476e-07
1.41806e-07
-6.93889e-08
1.43576e-07
-3.0955e-08
1.38205e-07
1.05232e-08
1.29983e-07
6.80539e-08
9.84104e-08
1.24813e-07
4.6845e-08
1.6017e-07
3.00429e-08
8.41099e-08
1.28151e-07
-1.76431e-07
7.92383e-08
1.78623e-07
-1.52802e-07
1.04055e-07
-1.243e-07
1.13304e-07
-9.11518e-08
1.10428e-07
-5.23636e-08
9.94163e-08
-2.44726e-09
8.00665e-08
3.2359e-08
6.36043e-08
3.67195e-08
4.24844e-08
7.35856e-09
5.94036e-08
1.57417e-07
-6.59483e-08
-2.08904e-07
6.98875e-08
2.18254e-07
-1.86282e-07
8.14339e-08
-1.57699e-07
8.47204e-08
-1.25268e-07
7.79966e-08
-9.98281e-08
7.39763e-08
-8.04673e-08
6.07057e-08
-8.62383e-08
6.93753e-08
-1.04266e-07
6.0512e-08
-1.39934e-07
9.50721e-08
1.86748e-07
-1.69264e-07
-2.31427e-07
6.11578e-08
2.40157e-07
-2.09716e-07
5.97228e-08
-1.79054e-07
5.40585e-08
-1.57347e-07
5.629e-08
-1.44562e-07
6.11914e-08
-1.43971e-07
6.0114e-08
-1.44446e-07
6.98506e-08
-1.65359e-07
8.14251e-08
-1.85633e-07
1.15346e-07
1.77313e-07
-1.76198e-07
-2.02699e-07
4.74297e-08
2.16427e-07
-1.84805e-07
4.18288e-08
-1.66022e-07
3.52754e-08
-1.50385e-07
4.06529e-08
-1.38688e-07
4.94946e-08
-1.31105e-07
5.25307e-08
-1.29684e-07
6.84303e-08
-1.40973e-07
9.27136e-08
-1.53796e-07
1.28169e-07
1.70345e-07
-1.46826e-07
-1.67454e-07
2.16418e-08
1.93242e-07
-1.48753e-07
2.31281e-08
-1.36183e-07
2.27057e-08
-1.21798e-07
2.62682e-08
-1.04071e-07
3.17674e-08
-8.86975e-08
3.71573e-08
-7.27884e-08
5.25211e-08
-5.88454e-08
7.87708e-08
-4.61919e-08
1.15516e-07
1.78744e-07
-5.4591e-08
-1.35579e-07
4.02452e-08
1.16976e-07
-1.32417e-07
1.99664e-08
-1.23242e-07
1.3531e-08
-1.0811e-07
1.11363e-08
-8.14791e-08
5.13661e-09
-5.04472e-08
6.12579e-09
-2.29964e-08
2.50703e-08
3.13032e-09
5.26439e-08
1.53369e-08
1.0331e-07
1.9495e-07
-8.68865e-10
-6.75797e-08
6.93108e-08
3.85143e-08
-1.0077e-07
5.31585e-08
-1.13929e-07
2.669e-08
-1.08928e-07
6.13614e-09
-8.19771e-08
-2.18142e-08
-3.9514e-08
-3.63371e-08
-1.24611e-09
-1.31972e-08
1.91903e-08
3.22076e-08
2.55224e-08
9.69774e-08
2.04494e-07
1.59782e-08
-3.0247e-08
7.45944e-08
2.49639e-08
-4.57634e-08
6.86756e-08
-7.07377e-08
5.16647e-08
-8.61502e-08
2.1549e-08
-8.00788e-08
-2.7885e-08
-4.61667e-08
-7.02491e-08
-1.25374e-08
-4.6827e-08
-1.28221e-08
3.24923e-08
-1.12965e-08
9.54521e-08
2.00274e-07
-7.07662e-09
-4.26127e-08
6.87927e-08
4.84154e-08
-4.11369e-08
6.72006e-08
-4.2179e-08
5.27077e-08
-5.14583e-08
3.08287e-08
-6.76656e-08
-1.16776e-08
-7.26151e-08
-6.5299e-08
-6.64227e-08
-5.30192e-08
-7.85099e-08
4.45794e-08
-6.82214e-08
8.51639e-08
1.7263e-07
-4.05772e-08
-8.33966e-08
4.56248e-08
1.06565e-07
-6.22039e-08
4.60082e-08
-5.07341e-08
4.12384e-08
-4.70482e-08
2.71434e-08
-6.16604e-08
2.9348e-09
-1.00502e-07
-2.64579e-08
-1.27665e-07
-2.58553e-08
-1.16852e-07
3.37664e-08
-9.74547e-08
6.57662e-08
1.19588e-07
-4.44125e-08
-1.49024e-07
9.98791e-09
1.84662e-07
-1.10525e-07
7.5102e-09
-7.75652e-08
8.27834e-09
-5.54579e-08
5.03628e-09
-4.91086e-08
-3.41396e-09
-7.05629e-08
-5.0035e-09
-9.84617e-08
2.04324e-09
-8.21219e-08
1.74267e-08
-5.60473e-08
3.96916e-08
6.92149e-08
-5.67428e-09
-1.95552e-07
-3.64552e-08
2.41996e-07
-1.45673e-07
-4.23693e-08
-9.70275e-08
-4.03668e-08
-5.87289e-08
-3.32625e-08
-3.47651e-08
-2.73781e-08
-2.32924e-08
-1.64763e-08
-1.33989e-08
-7.85039e-09
2.00665e-08
-1.60389e-08
6.56855e-08
-5.92723e-09
1.71998e-08
1.17701e-07
-2.60003e-07
-9.47277e-08
3.18276e-07
-2.03614e-07
-9.87587e-08
-1.39087e-07
-1.04894e-07
-7.11118e-08
-1.01238e-07
-9.03645e-09
-8.94539e-08
3.49881e-08
-6.05011e-08
6.31407e-08
-3.60027e-08
9.74742e-08
-5.03724e-08
1.43772e-07
-5.22249e-08
-4.69486e-08
2.0792e-07
-3.29777e-07
-1.70502e-07
4.05551e-07
-2.55797e-07
-1.72738e-07
-1.70705e-07
-1.89986e-07
-8.10376e-08
-1.90905e-07
1.32295e-08
-1.83721e-07
9.54714e-08
-1.42743e-07
1.40995e-07
-8.15258e-08
1.66332e-07
-7.57097e-08
1.96313e-07
-8.22054e-08
-8.78004e-08
2.37164e-07
-3.48475e-07
-2.91521e-07
4.69494e-07
-2.40047e-07
-2.81167e-07
-1.24786e-07
-3.05247e-07
-1.66445e-08
-2.99046e-07
9.87909e-08
-2.99156e-07
2.12318e-07
-2.5627e-07
2.84027e-07
-1.53234e-07
3.05487e-07
-9.71692e-08
3.16017e-07
-9.27349e-08
-1.13467e-07
3.41683e-07
-3.36546e-07
-4.5547e-07
5.00496e-07
-1.68857e-07
-4.48857e-07
-2.32103e-08
-4.50894e-07
1.05463e-07
-4.2772e-07
2.35816e-07
-4.29509e-07
3.50462e-07
-3.70916e-07
4.17364e-07
-2.20137e-07
4.52478e-07
-1.32283e-07
4.51987e-07
-9.2244e-08
-9.48691e-08
4.33389e-07
-3.81289e-07
-5.78952e-07
5.04771e-07
-2.2546e-07
-6.04686e-07
-6.20078e-08
-6.14346e-07
1.07181e-07
-5.96909e-07
2.37085e-07
-5.59414e-07
3.14957e-07
-4.48789e-07
3.65715e-07
-2.70895e-07
4.10654e-07
-1.77222e-07
4.13373e-07
-9.49635e-08
-8.55457e-08
4.04049e-07
-4.51217e-07
-6.30487e-07
5.02753e-07
-3.65264e-07
-6.90638e-07
-2.56381e-07
-7.2323e-07
-1.27211e-07
-7.26078e-07
-1.8172e-08
-6.68453e-07
5.27106e-08
-5.19671e-07
1.21223e-07
-3.39408e-07
2.10871e-07
-2.6687e-07
2.54146e-07
-1.38238e-07
-8.93113e-08
2.57912e-07
-4.77587e-07
-6.26994e-07
4.74093e-07
-4.5955e-07
-7.08676e-07
-4.24343e-07
-7.58436e-07
-3.78282e-07
-7.72139e-07
-3.04501e-07
-7.42234e-07
-2.17661e-07
-6.06512e-07
-1.18799e-07
-4.3827e-07
-2.63293e-08
-3.5934e-07
8.37831e-08
-2.48351e-07
-1.20764e-07
1.15235e-07
-4.73037e-07
-5.74919e-07
4.20963e-07
-5.07156e-07
-6.74558e-07
-5.1751e-07
-7.48083e-07
-5.07727e-07
-7.81922e-07
-4.61736e-07
-7.88226e-07
-3.56047e-07
-7.122e-07
-2.4827e-07
-5.46046e-07
-1.83741e-07
-4.23869e-07
-1.0583e-07
-3.26263e-07
-1.51408e-07
-7.5186e-08
-3.80165e-07
-4.82766e-07
2.88013e-07
-4.72883e-07
-5.81839e-07
-5.39532e-07
-6.81434e-07
-5.68007e-07
-7.53447e-07
-5.68278e-07
-7.87955e-07
-4.97681e-07
-7.82798e-07
-3.73513e-07
-6.70214e-07
-3.27372e-07
-4.7001e-07
-2.95165e-07
-3.5847e-07
-1.85058e-07
-2.61514e-07
-1.83115e-07
-4.18111e-07
1.18459e-07
-3.00608e-07
-4.64347e-07
-4.36432e-07
-5.4561e-07
-5.5593e-07
-6.33948e-07
-6.01666e-07
-7.42218e-07
-5.85347e-07
-7.99117e-07
-4.73675e-07
-7.81886e-07
-3.82758e-07
-5.60928e-07
-3.61537e-07
-3.79691e-07
-1.97389e-07
-3.49206e-07
-2.04449e-08
-4.08438e-07
1.07721e-08
-5.48465e-08
-4.29944e-07
-1.35946e-07
-4.64511e-07
-2.79939e-07
-4.89955e-07
-4.3925e-07
-5.82908e-07
-5.15025e-07
-7.23342e-07
-4.87578e-07
-8.09333e-07
-3.31712e-07
-7.16794e-07
-2.74423e-07
-4.36979e-07
-2.18055e-07
-2.53758e-07
6.95417e-08
-3.98441e-07
-7.95389e-08
5.87047e-08
-4.19106e-07
4.98844e-08
-4.55691e-07
2.63493e-08
-4.66421e-07
-7.60147e-08
-4.80544e-07
-2.13155e-07
-5.86203e-07
-2.79348e-07
-7.4314e-07
-1.89712e-07
-8.0643e-07
-2.71317e-08
-5.9956e-07
-2.30294e-07
-1.48937e-08
1.53834e-07
-3.78545e-07
-1.7373e-07
1.37889e-07
-4.0316e-07
1.28652e-07
-4.46454e-07
1.23766e-07
-4.61534e-07
1.13096e-07
-4.69874e-07
5.51783e-08
-5.28285e-07
2.83459e-08
-7.16307e-07
2.5263e-09
-7.8061e-07
1.04221e-07
-7.01255e-07
-2.79707e-07
1.53634e-07
2.77439e-07
-3.53867e-07
-3.02117e-07
2.46347e-07
-3.72069e-07
2.1546e-07
-4.15567e-07
2.03449e-07
-4.49524e-07
2.00695e-07
-4.6712e-07
1.91094e-07
-5.18684e-07
1.98924e-07
-7.24137e-07
1.92268e-07
-7.73954e-07
2.04762e-07
-7.1375e-07
-2.83897e-07
2.08951e-07
4.33622e-07
-3.177e-07
-4.69789e-07
3.92831e-07
-3.31278e-07
3.54241e-07
-3.76977e-07
3.31281e-07
-4.26564e-07
3.20206e-07
-4.56044e-07
3.41647e-07
-5.40125e-07
3.64282e-07
-7.46772e-07
3.71206e-07
-7.80878e-07
3.49483e-07
-6.92026e-07
-2.11316e-07
2.76902e-07
4.80005e-07
-2.85638e-07
-5.12068e-07
4.45741e-07
-2.97016e-07
4.1901e-07
-3.50246e-07
4.06334e-07
-4.13887e-07
4.15317e-07
-4.65027e-07
5.00279e-07
-6.25087e-07
5.29789e-07
-7.76282e-07
4.98839e-07
-7.49928e-07
3.74698e-07
-5.67884e-07
-9.3919e-08
2.57301e-07
4.40051e-07
-2.59203e-07
-4.66486e-07
4.21799e-07
-2.78765e-07
4.22962e-07
-3.51408e-07
4.313e-07
-4.22224e-07
5.07616e-07
-5.41344e-07
6.27325e-07
-7.44795e-07
6.39415e-07
-7.88372e-07
5.75175e-07
-6.85688e-07
4.30852e-07
-4.23563e-07
2.17835e-08
3.1515e-07
3.21059e-07
-2.38784e-07
-3.41479e-07
3.24208e-07
-2.81913e-07
3.48679e-07
-3.75879e-07
3.95316e-07
-4.68862e-07
5.94006e-07
-7.40033e-07
6.76428e-07
-8.27216e-07
6.69446e-07
-7.81391e-07
5.69752e-07
-5.85993e-07
3.29318e-07
-1.8313e-07
1.9656e-07
1.54543e-07
1.46248e-07
-2.14669e-07
-1.70362e-07
1.74599e-07
-3.10268e-07
1.95369e-07
-3.96648e-07
3.65078e-07
-6.38572e-07
5.41723e-07
-9.16679e-07
5.26156e-07
-8.11649e-07
3.4977e-07
-6.05004e-07
9.5117e-08
-3.31339e-07
-1.42105e-07
5.40922e-08
2.19491e-07
-1.65036e-07
1.01371e-08
-1.8494e-07
-3.9867e-08
-3.71803e-08
-2.62952e-07
-9.82789e-09
-4.24e-07
1.8155e-07
-8.2995e-07
2.13671e-07
-9.48799e-07
7.7205e-08
-6.75182e-07
-1.87919e-07
-3.39881e-07
-3.63626e-07
-1.55632e-07
-3.61524e-07
5.19912e-08
2.11186e-07
-3.53219e-07
-6.54767e-08
-1.16769e-07
-2.69493e-09
-1.9066e-07
-1.37767e-07
-1.64658e-07
-4.50003e-07
-1.20583e-07
-8.74026e-07
-1.33398e-07
-9.35983e-07
-2.16867e-07
-5.91713e-07
-3.80308e-07
-1.7644e-07
-4.03846e-07
-1.32094e-07
-3.643e-07
1.24451e-08
1.68233e-07
-3.21349e-07
-1.32702e-07
-7.96012e-09
2.38937e-08
-2.9296e-07
2.2489e-08
-3.17372e-07
-4.25589e-07
-3.00859e-07
-8.90539e-07
-2.64375e-07
-9.72467e-07
-1.90102e-07
-6.65986e-07
-2.99665e-07
-6.68777e-08
-3.66143e-07
-6.56171e-08
-3.32601e-07
-2.10971e-08
7.12255e-08
-2.35594e-07
3.00191e-09
4.34758e-08
-5.44378e-08
-1.56728e-07
1.82219e-07
-3.49929e-07
-2.32388e-07
-3.94201e-07
-8.46268e-07
-3.46465e-07
-1.0202e-06
-1.59949e-07
-8.52501e-07
-1.95674e-07
-3.1153e-08
-2.55723e-07
-5.5688e-09
-2.73728e-07
-3.09216e-09
1.22127e-08
-2.14715e-07
1.64181e-07
2.40348e-08
-1.4474e-07
1.30722e-07
2.15679e-07
-9.71966e-08
-4.4692e-09
-2.55176e-07
-6.88289e-07
-2.1113e-07
-1.06425e-06
-1.1107e-07
-9.52562e-07
-2.04506e-07
6.22824e-08
-2.21796e-07
1.17207e-08
-2.25193e-07
3.04639e-10
6.34596e-09
-2.19327e-07
1.47508e-07
-2.47384e-08
-9.8735e-08
1.78098e-07
1.85086e-07
7.88892e-08
9.47401e-08
-8.1839e-09
-6.01215e-07
-6.94377e-08
-1.003e-06
-2.25498e-08
-9.9945e-07
1.16591e-07
-7.68586e-08
3.22564e-08
9.60547e-08
1.1002e-08
2.15586e-08
5.53396e-08
-3.79913e-08
7.119e-09
-2.52674e-08
-6.5905e-09
2.71537e-08
1.65051e-07
1.37338e-08
1.08162e-07
-1.58804e-08
-5.716e-07
-3.92269e-08
-9.7965e-07
-4.32896e-08
-9.95388e-07
3.95682e-07
-5.15831e-07
3.31273e-07
1.60465e-07
1.86036e-07
1.66796e-07
1.53717e-07
8.76586e-08
-1.66937e-07
-4.19873e-08
1.83657e-07
-9.83159e-08
9.64245e-08
-8.55442e-08
9.53903e-08
-2.39021e-08
-6.33241e-07
-2.49053e-08
-9.78647e-07
-3.01767e-08
-9.90115e-07
1.93376e-07
-7.39384e-07
1.54705e-07
1.99137e-07
9.27524e-08
2.28748e-07
1.93732e-07
5.27387e-08
-1.43395e-08
-1.70723e-07
1.43075e-07
1.08311e-07
-2.62262e-08
-4.41975e-09
2.0812e-07
-1.03954e-09
-6.36621e-07
-5.45486e-09
-9.74232e-07
-6.2392e-09
-9.89331e-07
4.43065e-08
-7.8993e-07
1.99796e-08
2.23465e-07
3.49538e-08
2.13774e-07
1.81546e-07
4.71399e-08
-1.18791e-07
-1.85448e-07
1.33516e-07
-8.84144e-08
-5.66033e-08
-7.01279e-08
1.89834e-07
-2.77866e-08
-6.78962e-07
-1.39442e-08
-9.88073e-07
-1.46868e-08
-9.88588e-07
5.35924e-08
-8.5821e-07
1.81568e-08
2.58902e-07
5.88594e-08
1.73071e-07
1.07856e-07
1.3255e-07
-2.67771e-07
-2.59963e-07
3.42285e-07
-1.64074e-07
-1.603e-07
-3.92678e-08
6.50293e-08
3.01989e-08
-7.4843e-07
3.02864e-08
-9.88162e-07
5.84083e-08
-1.01671e-06
3.53853e-08
-8.35186e-07
-6.38677e-08
3.58155e-07
1.66127e-08
9.25912e-08
-1.09045e-08
1.35371e-07
-9.12357e-08
-6.1491e-07
4.46184e-07
-3.80409e-08
-2.13498e-07
2.03911e-08
6.59802e-09
7.2854e-09
-7.35324e-07
-2.33681e-08
-9.57508e-07
-6.83861e-08
-9.71691e-07
5.72301e-08
-9.60803e-07
3.39951e-08
3.81391e-07
-5.86315e-09
1.32446e-07
-1.95946e-08
2.82661e-09
-3.51594e-08
-3.56482e-07
-2.23259e-07
-7.30343e-08
-1.75634e-07
-4.48436e-09
-6.1952e-08
-1.53539e-08
-7.24455e-07
-2.20088e-08
-9.50853e-07
-4.75296e-08
-9.4617e-07
-1.86273e-08
-9.89705e-07
3.09924e-07
5.28499e-08
4.82766e-07
-4.04089e-08
-1.90708e-07
6.53891e-07
1.23225e-09
-4.75135e-08
-3.10198e-07
-3.14737e-08
-1.42936e-07
1.96924e-08
-1.13119e-07
3.41769e-08
-7.38939e-07
9.85568e-09
-9.26532e-07
-8.24012e-09
-9.28074e-07
-4.46419e-08
-9.53293e-07
6.68241e-07
-6.60054e-07
8.53045e-07
-2.25221e-07
-1.32104e-07
7.94443e-07
8.91097e-08
9.13207e-08
-2.27946e-07
5.23261e-08
-1.06151e-07
4.83236e-08
-1.09118e-07
7.60379e-08
-7.66654e-07
5.15153e-08
-9.0201e-07
3.3611e-08
-9.10171e-07
8.18154e-09
-9.27862e-07
1.46138e-07
-7.98004e-07
2.02128e-07
-2.81202e-07
-9.22171e-08
1.62238e-07
1.72939e-07
1.16075e-07
-1.97704e-07
7.47109e-08
-7.92027e-09
5.2603e-08
-8.70087e-08
7.23724e-08
-7.86423e-07
5.20823e-08
-8.8172e-07
3.1691e-08
-8.8978e-07
1.11018e-08
-9.07273e-07
-4.30274e-08
-7.43883e-07
-1.69258e-08
-3.07292e-07
-1.24636e-07
1.55009e-08
1.32657e-07
1.34751e-07
-1.51346e-07
7.53866e-08
4.93473e-08
5.35784e-08
-6.51931e-08
6.30651e-08
-7.95911e-07
4.30988e-08
-8.61754e-07
2.0955e-08
-8.67636e-07
-9.06144e-10
-8.85418e-07
-4.60685e-08
-6.98712e-07
-1.8448e-08
-3.34915e-07
-1.39093e-07
-4.00891e-09
3.09262e-08
1.06773e-07
-2.94976e-09
5.49349e-08
2.53109e-08
4.31754e-08
-5.34623e-08
5.21191e-08
-8.04854e-07
3.12204e-08
-8.40856e-07
8.5434e-09
-8.44959e-07
-1.34324e-08
-8.63447e-07
-7.97232e-08
-6.32397e-07
-1.21475e-07
-2.93166e-07
-1.74225e-07
-8.63618e-08
3.76259e-08
7.25278e-09
6.19014e-08
8.40287e-08
-2.09892e-08
3.80558e-08
-7.49112e-09
4.1037e-08
-8.07835e-07
1.94893e-08
-8.19309e-07
-7.27161e-09
-8.18198e-07
-3.05782e-08
-8.40141e-07
-6.84309e-08
-5.94538e-07
-1.24863e-07
-2.36726e-07
-1.9514e-07
-1.03943e-07
-3.81533e-07
-6.29894e-08
4.5176e-07
-3.42788e-07
-5.97403e-08
3.87963e-08
-3.89076e-07
4.02295e-08
-8.09269e-07
1.57388e-08
-7.94818e-07
-6.41879e-09
-7.9604e-07
-3.02994e-08
-8.1626e-07
-4.47621e-08
-5.80085e-07
-7.50996e-08
-2.06396e-07
-1.95214e-07
-7.50117e-08
-2.75159e-07
-4.30953e-08
2.5527e-07
-1.7188e-07
-1.63018e-07
3.64005e-08
-5.97352e-07
2.91195e-08
-8.0199e-07
2.88846e-09
-7.68587e-07
-1.50689e-08
-7.78083e-07
-3.90281e-08
-7.92305e-07
-6.87139e-08
-5.50377e-07
-1.06724e-07
-1.68392e-07
-1.41796e-07
-1.60143e-07
1.20236e-07
4.49951e-08
-2.08326e-07
2.66229e-08
-6.94357e-08
3.42354e-08
-6.0498e-07
5.46361e-09
-7.73216e-07
-1.5041e-08
-7.48082e-07
-4.54452e-08
-7.47679e-07
-6.97017e-08
-7.68049e-07
-1.06774e-07
-5.13309e-07
-1.81429e-07
-9.37478e-08
-4.45871e-08
-2.78601e-07
1.47526e-07
8.36773e-08
-1.86202e-07
9.08924e-08
-1.27961e-08
3.84104e-08
-5.52496e-07
3.50072e-09
-7.38303e-07
-2.07308e-08
-7.2385e-07
-4.6046e-08
-7.22364e-07
-7.22665e-08
-7.41825e-07
-8.82204e-08
-4.97371e-07
-1.59793e-07
-2.21669e-08
6.94728e-09
-2.11325e-07
1.24688e-07
1.25295e-07
-1.66303e-07
6.97143e-08
4.21696e-08
4.06574e-08
-5.23442e-07
1.67689e-08
-7.14421e-07
-8.23634e-09
-6.98845e-07
-3.67448e-08
-6.93855e-07
-6.38316e-08
-7.14734e-07
-5.71331e-08
-5.04084e-07
-8.53277e-08
6.03149e-09
2.51381e-08
-1.03487e-07
1.06936e-07
1.39734e-07
-1.21376e-07
7.40742e-08
7.50282e-08
6.18191e-08
-5.11167e-07
3.34115e-08
-6.86005e-07
4.30343e-09
-6.69737e-07
-1.75707e-08
-6.71981e-07
-4.55615e-08
-6.86746e-07
-7.92559e-08
-4.70382e-07
-1.40293e-07
6.70482e-08
5.10073e-08
-1.66125e-07
8.77108e-08
1.30836e-07
-7.88202e-08
7.28098e-08
8.99137e-08
6.42156e-08
-5.026e-07
3.58493e-08
-6.57652e-07
5.91021e-09
-6.39798e-07
-2.4401e-08
-6.4167e-07
-5.25939e-08
-6.58554e-07
-5.86681e-08
-4.64314e-07
-1.41202e-07
1.49586e-07
5.28326e-08
-1.43032e-07
4.56999e-09
7.91469e-08
4.7123e-08
7.2754e-08
2.18038e-08
5.72544e-08
-4.87063e-07
2.76598e-08
-6.28039e-07
7.03204e-10
-6.12841e-07
-2.74609e-08
-6.13506e-07
-5.8226e-08
-6.27787e-07
-4.10703e-08
-4.81481e-07
6.10592e-08
4.7484e-08
6.28352e-08
5.10616e-08
-9.41091e-08
-2.14301e-08
1.94682e-07
5.0128e-08
-1.2254e-07
6.24328e-08
-4.994e-07
2.72574e-08
-5.9287e-07
-2.29316e-09
-5.83291e-07
-3.38224e-08
-5.81977e-07
-6.77422e-08
-5.93866e-07
-4.98277e-08
-4.99395e-07
1.1197e-07
-1.1431e-07
-1.10657e-08
1.85883e-07
-6.06444e-08
-9.12333e-08
1.30462e-07
3.06624e-08
-2.13794e-07
5.94349e-08
-5.28153e-07
2.72261e-08
-5.60661e-07
-4.71905e-10
-5.55593e-07
-2.9387e-08
-5.53061e-07
-6.19667e-08
-5.61286e-07
-3.20869e-08
-5.29272e-07
4.80265e-08
-1.94429e-07
-4.64615e-08
8.34469e-08
5.4615e-08
-9.8286e-08
-4.75684e-08
6.39335e-08
-2.23112e-07
6.44083e-08
-5.28626e-07
3.2457e-08
-5.2871e-07
-1.41012e-09
-5.21725e-07
-3.1265e-08
-5.23207e-07
-6.60014e-08
-5.26549e-07
-6.4371e-08
-5.30906e-07
-5.46764e-08
-2.04125e-07
-4.34175e-08
-5.76876e-08
1.21252e-07
-1.05343e-07
-1.14186e-07
1.21907e-07
-2.23765e-07
7.46403e-08
-4.8136e-07
3.36698e-08
-4.8774e-07
-3.3967e-10
-4.87716e-07
-3.81023e-08
-4.85444e-07
-7.48466e-08
-4.89805e-07
-1.2263e-07
-4.83122e-07
-1.14023e-07
-2.12722e-07
-5.1189e-08
-1.0625e-07
1.29889e-07
-1.23151e-07
-1.12076e-07
1.30358e-07
-2.24222e-07
8.65849e-08
-4.37585e-07
5.13745e-08
-4.52529e-07
1.35334e-08
-4.49875e-07
-2.15653e-08
-4.50345e-07
-6.47818e-08
-4.46588e-07
-1.11567e-07
-4.36337e-07
-1.31475e-07
-1.92817e-07
-7.0507e-08
-1.12153e-07
1.11266e-07
-1.43542e-07
-9.08762e-08
1.31107e-07
-2.44051e-07
7.87457e-08
-3.85225e-07
2.8516e-08
-4.02299e-07
-1.3285e-08
-4.08074e-07
-5.39304e-08
-4.097e-07
-9.62519e-08
-4.04267e-07
-1.45932e-07
-3.86656e-07
-1.31014e-07
-2.07738e-07
-1.0282e-07
-9.87011e-08
8.13095e-08
-1.56817e-07
-6.80274e-08
1.35037e-07
-2.97768e-07
9.23994e-08
-3.42588e-07
4.84153e-08
-3.58315e-07
5.20882e-09
-3.64867e-07
-3.90851e-08
-3.65406e-07
-8.37684e-08
-3.59584e-07
-1.27402e-07
-3.43023e-07
-7.51772e-08
-2.59956e-07
-1.33279e-07
-4.47174e-08
1.47956e-07
-1.56896e-07
-1.47879e-07
1.32083e-07
-2.81891e-07
8.77588e-08
-2.98264e-07
4.16981e-08
-3.12255e-07
-9.40574e-09
-3.13764e-07
-6.07813e-08
-3.1403e-07
-1.07499e-07
-3.12866e-07
-1.50071e-07
-3.00451e-07
-1.26912e-07
-2.83115e-07
-1.36605e-07
-1.23595e-07
2.09474e-07
-2.25357e-07
-1.41014e-07
1.47128e-07
-2.19544e-07
1.00561e-07
-2.51698e-07
4.48764e-08
-2.5657e-07
-8.16347e-09
-2.60724e-07
-5.76331e-08
-2.64561e-07
-1.05785e-07
-2.64714e-07
-1.52146e-07
-2.5409e-07
-2.19189e-07
-2.16073e-07
-2.12794e-07
-1.43003e-07
1.21164e-07
-2.16091e-07
9.59719e-08
6.4307e-08
3.82451e-08
1.15199e-08
-2.00957e-08
-5.7667e-08