/*--------------------------------*- C++ -*----------------------------------*\
  =========                 |
  \\      /  F ield         | OpenFOAM: The Open Source CFD Toolbox
   \\    /   O peration     | Website:  https://openfoam.org
    \\  /    A nd           | Version:  8
     \\/     M anipulation  |
\*---------------------------------------------------------------------------*/
FoamFile
{
    version     2.0;
    format      ascii;
    class       surfaceScalarField;
    location    "1.9";
    object      alphaPhi0.water;
}
// * * * * * * * * * * * * * * * * * * * * * * * * * * * * * * * * * * * * * //

dimensions      [0 3 -1 0 0 0 0];

internalField   nonuniform List<scalar> 
18095
(
1.95388e-08
-1.71949e-07
1.5241e-07
2.31759e-08
-1.98217e-07
1.9458e-07
2.01631e-08
-2.05861e-07
2.08873e-07
1.10844e-08
-2.10544e-07
2.19622e-07
-8.81604e-11
-2.1308e-07
2.24253e-07
-1.0599e-08
-2.13574e-07
2.24084e-07
-1.95808e-08
-2.10828e-07
2.1981e-07
-2.31015e-08
-2.05817e-07
2.09338e-07
-1.95584e-08
-1.9817e-07
1.94627e-07
-1.71961e-07
1.52403e-07
1.55508e-08
-1.87499e-07
1.57548e-08
-1.98421e-07
1.20151e-08
-2.02121e-07
6.73108e-09
-2.0526e-07
7.31733e-10
-2.07081e-07
-6.06389e-09
-2.06778e-07
-1.19814e-08
-2.0491e-07
-1.57322e-08
-2.02066e-07
-1.5527e-08
-1.98376e-07
-1.87488e-07
6.85451e-09
-1.94354e-07
8.27558e-09
-1.99842e-07
7.14091e-09
-2.00986e-07
3.68288e-09
-2.01802e-07
-5.39341e-10
-2.02858e-07
-4.53626e-09
-2.02781e-07
-7.24833e-09
-2.02198e-07
-8.27748e-09
-2.01037e-07
-6.85217e-09
-1.99801e-07
-1.9434e-07
4.5572e-09
-1.98911e-07
4.67379e-09
-1.99959e-07
3.71693e-09
-2.00029e-07
2.27314e-09
-2.00358e-07
2.45538e-10
-2.00831e-07
-1.7966e-09
-2.00739e-07
-3.56833e-09
-2.00426e-07
-4.6884e-09
-1.99917e-07
-4.5664e-09
-1.99923e-07
-1.98907e-07
1.0888e-09
1.13019e-09
1.1009e-09
7.43058e-10
-8.77969e-11
-8.26697e-10
-1.2531e-09
-1.17013e-09
-1.09318e-09
-2.63856e-08
-1.97019e-07
2.23405e-07
-2.89521e-08
-1.98753e-07
2.0132e-07
-2.42591e-08
-2.01505e-07
1.96812e-07
-1.3427e-08
-2.00986e-07
1.90154e-07
-2.70286e-10
-2.01659e-07
1.88502e-07
1.32034e-08
-2.01979e-07
1.88505e-07
2.39047e-08
-2.01106e-07
1.90404e-07
2.85817e-08
-2.01392e-07
1.96715e-07
2.6001e-08
-1.98673e-07
2.01254e-07
-1.96928e-07
2.22929e-07
-1.00447e-08
-1.86975e-07
-1.56568e-08
-1.93141e-07
-1.46957e-08
-2.02466e-07
-7.32464e-09
-2.08357e-07
-5.09141e-10
-2.08475e-07
6.22482e-09
-2.08713e-07
1.35987e-08
-2.0848e-07
1.50237e-08
-2.02817e-07
9.80686e-09
-1.93456e-07
-1.87121e-07
-1.06827e-08
-1.76292e-07
-8.29454e-09
-1.95529e-07
-5.75275e-09
-2.05008e-07
-4.51273e-09
-2.09597e-07
-4.76909e-10
-2.1251e-07
3.86877e-09
-2.13058e-07
6.40016e-09
-2.11011e-07
8.894e-09
-2.05311e-07
1.09341e-08
-1.95496e-07
-1.76187e-07
-6.78282e-09
-1.69509e-07
-8.82311e-09
-1.93489e-07
-7.99156e-09
-2.05839e-07
-1.97134e-09
-2.15618e-07
2.50985e-09
-2.16992e-07
6.13295e-09
-2.16682e-07
9.74473e-09
-2.14623e-07
9.4828e-09
-2.05049e-07
7.01997e-09
-1.93033e-07
-1.69167e-07
-1.70991e-08
-1.60085e-08
-1.29742e-08
-8.96937e-09
-1.70839e-09
5.69442e-09
1.08812e-08
1.51698e-08
1.67637e-08
3.02324e-08
-1.58762e-07
1.2853e-07
3.58614e-08
-2.00374e-07
1.94745e-07
3.08126e-08
-2.12188e-07
2.17237e-07
2.03396e-08
-2.16818e-07
2.27291e-07
5.01226e-09
-2.17757e-07
2.33084e-07
-1.19139e-08
-2.17296e-07
2.34222e-07
-2.79512e-08
-2.15104e-07
2.31141e-07
-3.85208e-08
-2.08983e-07
2.19552e-07
-3.43746e-08
-1.97187e-07
1.93041e-07
-1.55531e-07
1.21156e-07
1.55424e-08
-1.74305e-07
1.72287e-08
-2.02061e-07
1.27997e-08
-2.07759e-07
5.07353e-09
-2.09092e-07
-4.06617e-09
-2.08617e-07
-1.30054e-08
-2.08356e-07
-1.92368e-08
-2.08873e-07
-2.15354e-08
-2.06684e-07
-1.79264e-08
-2.00796e-07
-1.73457e-07
1.06954e-08
-1.85e-07
9.98484e-09
-2.0135e-07
8.36774e-09
-2.06142e-07
4.30159e-09
-2.05026e-07
4.53716e-10
-2.04769e-07
-3.6122e-09
-2.0429e-07
-8.29444e-09
-2.04191e-07
-1.01372e-08
-2.04842e-07
-1.04852e-08
-2.00448e-07
-1.83943e-07
7.45456e-09
-1.92455e-07
6.00967e-09
-1.99905e-07
6.09041e-09
-2.06223e-07
1.706e-09
-2.00641e-07
1.14191e-10
-2.03177e-07
-1.71823e-09
-2.02458e-07
-6.99482e-09
-1.98914e-07
-6.67653e-09
-2.0516e-07
-7.80347e-09
-1.99321e-07
-1.91746e-07
3.09503e-08
3.2365e-08
2.29536e-08
1.24665e-08
-2.20832e-09
-1.61611e-08
-2.46706e-08
-3.31152e-08
-3.11825e-08
-9.56535e-07
-5.61121e-08
1.01275e-06
-8.63519e-07
-9.25591e-08
-7.61241e-07
-1.01522e-07
-6.57136e-07
-9.41405e-08
-5.58057e-07
-4.4933e-08
-5.21599e-07
-1.02993e-08
-5.24355e-07
1.87921e-09
-5.39386e-07
1.198e-08
-5.436e-07
-3.07386e-08
-8.67824e-08
-4.52153e-07
-8.84634e-07
-1.94862e-08
6.94109e-07
-1.01712e-06
-3.94754e-08
-9.89216e-07
-4.37858e-08
-5.26586e-07
-2.63637e-08
-2.75348e-07
-1.56965e-08
-2.80139e-07
-9.23843e-10
-2.75798e-07
-4.24654e-09
-4.43793e-07
-2.75026e-08
-7.20095e-07
-1.05592e-07
-2.56943e-07
-5.45224e-07
-2.80108e-07
-2.25797e-08
2.8059e-07
-2.78648e-07
-4.48934e-08
-2.66814e-07
-6.32168e-08
-2.20138e-07
-8.29159e-08
-2.05469e-07
-3.50215e-08
-1.60596e-07
-2.59843e-08
-1.07064e-07
-5.10511e-08
-6.0348e-08
-7.75634e-08
-9.05997e-08
-1.43042e-07
-2.61541e-07
-5.52443e-08
-1.60346e-07
-6.50398e-08
1.98819e-07
-2.37591e-07
-1.94522e-07
-2.69846e-07
-3.21444e-07
-2.23939e-07
-3.54325e-07
-1.55288e-07
-3.46806e-07
-7.10249e-08
-3.54029e-07
-2.95972e-08
-3.28894e-07
1.79226e-08
-3.63894e-07
9.17917e-08
-2.97126e-07
-4.85735e-07
2.36648e-07
-2.47642e-07
-2.7707e-07
1.27023e-07
-3.05811e-07
-3.3069e-07
-2.59785e-07
-3.6961e-07
-2.06794e-07
-4.07962e-07
-1.4731e-07
-4.06347e-07
-8.43666e-08
-4.1696e-07
1.2755e-08
-4.2608e-07
8.74398e-08
-4.49504e-07
1.64851e-07
-4.83406e-07
-6.7925e-07
3.21873e-07
-2.39239e-07
-3.10937e-07
2.78877e-07
-1.96951e-07
-3.71171e-07
-1.49155e-07
-4.17162e-07
-1.13442e-07
-4.43586e-07
-7.38479e-08
-4.45905e-07
-3.35817e-08
-4.57241e-07
2.6196e-08
-4.8582e-07
9.86306e-08
-5.21842e-07
2.31733e-07
-5.94635e-07
-7.08361e-07
3.3279e-07
-1.59398e-07
-2.02032e-07
1.50496e-07
-1.75976e-07
-2.50252e-07
-1.51465e-07
-4.19891e-07
-1.15274e-07
-4.79239e-07
-8.52451e-08
-4.75858e-07
-5.7058e-08
-4.85407e-07
-1.30519e-08
-5.2975e-07
4.50698e-08
-4.72637e-07
7.41768e-08
-3.81932e-07
-4.69628e-07
9.39046e-08
-3.45502e-08
-7.01446e-08
4.64166e-08
-3.42325e-08
-4.61565e-08
-9.10207e-08
-5.32495e-08
-1.0104e-07
-3.13578e-07
-7.76485e-08
-4.98982e-07
-5.17931e-08
-5.11186e-07
-2.62511e-08
-5.49299e-07
2.9849e-09
-3.23411e-07
1.45887e-08
-4.05486e-07
-4.76688e-07
1.02557e-08
1.74857e-08
-7.87114e-08
-2.3668e-08
1.15161e-08
-5.03829e-08
4.6224e-09
-5.67047e-08
2.52368e-08
-5.58226e-08
1.28831e-08
-3.83004e-07
-1.03507e-08
-4.87685e-07
-1.98543e-08
-5.22043e-07
-2.55338e-08
-3.31929e-07
-3.76823e-08
-4.04642e-07
-5.14714e-07
-5.78944e-08
8.57764e-08
-2.91501e-07
-2.62078e-07
4.44715e-08
-1.40627e-07
3.68414e-08
-5.92705e-08
3.06455e-08
-5.36881e-08
1.7503e-07
-1.97052e-07
8.57878e-08
-3.87052e-07
7.99129e-09
-4.53882e-07
-3.68887e-08
-4.22017e-07
-3.82972e-08
-4.27387e-07
-4.77313e-07
-6.25219e-08
4.81728e-07
-2.50582e-07
-5.24248e-07
1.56314e-07
-2.62463e-07
4.83177e-08
-1.13906e-07
4.93523e-08
-5.39299e-08
1.94591e-07
-1.33721e-07
1.96303e-07
-2.26769e-07
9.66386e-08
-3.1409e-07
3.9115e-09
-4.47665e-07
-4.66314e-08
-6.34824e-07
-4.41121e-07
-9.22884e-08
5.56957e-07
-2.21507e-07
-5.84923e-07
5.23471e-07
-2.28049e-07
1.24158e-07
-2.35279e-07
5.35823e-08
-8.06233e-08
1.97286e-07
-1.05758e-07
2.28373e-07
-1.61172e-07
1.6514e-07
-2.8811e-07
9.41588e-08
-3.7658e-07
-1.41988e-08
-5.26712e-07
-3.84384e-07
-7.8514e-08
6.78549e-07
-1.85024e-07
-7.13225e-07
6.30486e-07
-1.80857e-07
5.62602e-07
-1.67341e-07
9.76613e-08
-1.06015e-07
1.883e-07
-6.67944e-08
2.4957e-07
-1.30061e-07
2.21586e-07
-2.63217e-07
1.769e-07
-3.3176e-07
6.89677e-08
-4.18623e-07
-3.0187e-07
-3.99724e-08
7.51068e-07
-1.45064e-07
-7.9102e-07
7.03295e-07
-1.33079e-07
6.4254e-07
-1.06583e-07
2.27767e-07
-5.64175e-08
2.33741e-07
-3.03768e-08
2.71614e-07
-8.36208e-08
2.29897e-07
-2.21137e-07
1.9784e-07
-2.99546e-07
1.28694e-07
-3.49337e-07
-3.9316e-07
9.2158e-10
7.82304e-07
-9.56945e-08
-8.31669e-07
7.18533e-07
-6.93058e-08
6.25005e-07
-1.30504e-08
2.60195e-07
3.45792e-08
2.25135e-07
1.64005e-08
2.5451e-07
-2.69734e-08
2.31298e-07
-1.97611e-07
2.09346e-07
-2.7711e-07
1.79567e-07
-3.19452e-07
-3.49174e-07
1.03498e-07
7.59718e-07
-5.55159e-08
-7.99889e-07
7.05319e-07
-1.49025e-08
5.91094e-07
1.01175e-07
4.49089e-07
1.46323e-07
1.24366e-07
1.02922e-07
2.53079e-07
1.01212e-08
2.54426e-07
-1.69777e-07
2.57186e-07
-2.79409e-07
2.65941e-07
-3.2808e-07
-3.46825e-07
2.63608e-07
6.56022e-07
-1.03159e-08
-6.7608e-07
6.06014e-07
3.5147e-08
5.81325e-07
1.25873e-07
5.36794e-07
1.9104e-07
1.38545e-07
1.32182e-07
1.74041e-07
5.39734e-08
2.99662e-07
-4.45352e-08
3.6448e-07
-2.64804e-07
3.86785e-07
-3.49941e-07
-3.68338e-07
4.08358e-07
2.65956e-08
1.28111e-09
-8.50578e-08
6.42282e-08
2.21766e-09
2.13234e-07
0
2.20201e-07
3.47248e-08
7.94027e-08
6.7442e-08
5.72449e-08
1.68428e-08
1.45835e-07
-4.22865e-08
4.2394e-07
-2.76585e-07
4.55505e-07
-3.83992e-07
-3.94524e-07
4.81949e-07
5.81531e-09
4.87979e-09
-9.39877e-09
-6.09208e-10
8.3764e-09
-1.36326e-08
1.13068e-08
-2.82503e-08
8.78624e-09
-8.09861e-09
1.96277e-08
1.73615e-08
-8.00024e-08
1.85227e-07
-2.7773e-07
3.72124e-07
-3.39351e-07
4.69167e-07
-4.75086e-07
-4.68038e-07
5.40767e-07
-1.18942e-08
1.33621e-08
3.46106e-09
-1.93069e-08
1.58814e-08
-2.35252e-08
1.54126e-08
-2.40783e-08
6.97937e-09
-4.17131e-08
-1.21765e-07
4.25262e-08
-3.52049e-07
1.67862e-07
-5.04793e-07
3.1506e-07
-3.95197e-07
5.00672e-07
-6.70446e-07
-6.08424e-07
6.45916e-07
-1.61665e-08
1.55518e-08
1.4018e-08
-1.71351e-08
1.68193e-08
-1.51587e-08
1.27045e-08
-8.83908e-08
-4.9579e-08
-1.73057e-07
-2.36726e-07
-6.9511e-08
-4.53926e-07
1.37429e-07
-7.10044e-07
4.1137e-07
-7.08065e-07
6.05949e-07
-9.35904e-07
-7.14224e-07
7.56144e-07
-9.63012e-09
1.6253e-08
8.98053e-09
-8.29324e-09
1.55777e-08
-7.95752e-09
6.33463e-09
-1.07858e-07
-2.43656e-08
-1.30085e-07
-2.06581e-07
-4.74415e-10
-5.81575e-07
1.94337e-07
-9.03413e-07
4.23816e-07
-9.35211e-07
3.87067e-07
-8.43692e-07
-1.69166e-07
1.22191e-07
4.66073e-09
1.42959e-08
-2.65577e-09
9.03143e-09
1.1256e-08
4.00321e-08
5.67743e-09
9.55003e-08
3.0276e-10
1.5451e-07
-4.13723e-08
2.11312e-07
-5.75684e-07
2.92187e-07
-9.81955e-07
3.79088e-07
-1.01989e-06
8.20611e-08
-3.00862e-07
-3.42051e-08
5.06332e-08
1.63192e-08
1.08839e-08
-1.27516e-08
1.9071e-08
8.55166e-09
2.06578e-08
4.20851e-09
2.08118e-08
1.47229e-10
2.11814e-07
-2.44113e-09
3.70333e-07
-4.64991e-07
4.06678e-07
-1.01047e-06
2.55855e-07
-9.10785e-07
2.41015e-08
-8.94934e-08
-2.22317e-08
1.15851e-08
1.24559e-08
7.44879e-09
-9.00913e-09
1.42417e-08
6.8835e-09
1.40233e-08
4.45435e-09
1.368e-08
5.06884e-10
1.46161e-07
-1.69146e-09
4.25961e-07
-4.8595e-07
4.15881e-07
-9.77061e-07
7.53919e-08
-7.11103e-07
1.21093e-08
-5.24406e-08
-1.66463e-08
5.77229e-09
5.33691e-09
6.66374e-09
-4.38595e-09
5.75039e-09
6.38925e-09
7.27032e-09
3.01602e-09
7.4696e-09
3.35107e-10
1.72778e-07
-1.55308e-08
4.52768e-07
-6.7166e-07
4.57334e-07
-9.46471e-07
3.6078e-08
-3.89046e-07
8.92695e-09
-3.3348e-08
-9.12551e-09
6.6741e-10
2.05103e-10
7.64101e-09
-1.17745e-09
-7.09033e-10
7.34788e-09
-1.02424e-09
3.36671e-09
0
-1.30611e-09
2.08285e-07
-2.61897e-07
3.78948e-07
-8.56925e-07
3.20886e-07
-8.69826e-07
1.91971e-08
-9.90182e-08
4.94437e-09
-2.14762e-08
-2.49223e-09
-3.65069e-09
1.2828e-09
8.2637e-09
-1.90353e-09
3.93114e-10
8.24849e-09
-1.4862e-09
5.27954e-09
-3.23071e-08
1.15887e-09
1.96585e-07
-6.16588e-07
3.09776e-07
-9.66074e-07
7.2123e-08
-5.73415e-07
1.70239e-08
-3.61868e-08
3.14302e-09
-1.46682e-08
8.10587e-09
-9.72794e-09
3.58201e-09
8.30602e-09
-3.62496e-09
3.912e-09
7.95307e-09
4.22323e-09
5.06384e-09
4.40645e-08
1.45717e-08
1.84074e-07
-7.52556e-07
2.13435e-07
-9.91393e-07
2.42391e-08
-3.65054e-07
8.75609e-10
-1.53863e-08
-2.27052e-08
-9.66429e-10
3.53602e-08
-2.27346e-07
6.7702e-09
8.45165e-09
-6.88274e-09
5.93689e-09
8.86301e-09
6.93101e-09
4.20371e-09
1.0081e-07
7.31299e-08
1.68118e-07
-8.17031e-07
2.03426e-07
-1.02266e-06
1.21279e-08
-2.0147e-07
-2.54157e-10
-4.80751e-09
-8.60518e-09
1.00384e-09
1.3001e-08
-1.0461e-07
1.46547e-07
1.56572e-07
-1.8944e-07
7.00353e-08
2.05889e-07
3.95774e-08
3.4716e-08
7.57807e-08
1.17286e-07
1.04365e-07
-8.49006e-07
9.47108e-08
-1.01738e-06
3.45809e-09
-1.33502e-07
-9.98618e-10
-1.13618e-09
-3.09343e-09
1.24237e-09
1.71889e-09
-7.72936e-08
3.25798e-07
1.3379e-07
-2.97477e-07
2.51931e-07
2.72604e-07
7.61854e-08
1.51912e-07
6.44925e-08
1.20983e-07
6.67936e-08
-8.72201e-07
6.00219e-08
-1.03278e-06
7.55635e-10
-8.57739e-08
-2.36416e-10
-2.33919e-10
-1.19437e-09
4.18219e-10
-6.0851e-10
-2.65385e-09
1.33284e-07
3.15675e-08
-1.25165e-07
7.31351e-08
1.71287e-07
7.14581e-10
1.41154e-07
1.03222e-08
5.48776e-08
2.00612e-08
-8.92752e-07
2.05631e-08
-1.07784e-06
8.83104e-11
-7.60506e-08
0
-1.53674e-10
2.74717e-10
1.02867e-10
0
2.98219e-10
1.24202e-08
1.01997e-08
-1.22965e-09
-1.97278e-08
4.00361e-09
0
6.74182e-08
-4.73712e-09
3.04968e-08
-1.54664e-08
-9.34076e-07
-1.61106e-08
-1.09668e-06
-5.15797e-11
-1.10249e-07
2.07094e-11
-2.38635e-10
1.08338e-10
9.32553e-12
4.86375e-11
1.2922e-10
2.50075e-10
2.45502e-08
-4.41922e-09
-8.96908e-09
2.11205e-08
5.17835e-09
1.45057e-08
6.21482e-09
2.77852e-08
1.20772e-08
-9.74354e-07
-3.35089e-10
-1.08154e-06
-3.26087e-10
-1.34705e-07
2.30439e-11
-5.93679e-10
3.92975e-11
-1.28401e-11
9.59894e-12
2.24124e-10
-2.02313e-08
5.4324e-08
3.77894e-08
-1.49247e-08
2.72622e-08
1.9758e-09
1.44734e-08
1.41883e-08
2.19547e-08
4.4091e-08
-1.00845e-06
3.26904e-08
-1.06741e-06
0
-1.17296e-07
3.32759e-11
-6.387e-10
7.49231e-11
-6.03995e-11
4.2399e-12
1.61477e-10
-3.65284e-08
6.98372e-08
8.09217e-08
-2.03142e-08
1.20876e-08
-2.15687e-08
1.3363e-08
5.32596e-08
-8.91098e-09
7.11727e-08
-1.02103e-06
9.0625e-08
-1.08413e-06
4.26092e-10
-3.22269e-08
0
-5.86869e-11
4.97232e-11
-1.69892e-10
-8.18999e-12
3.75351e-11
-1.26487e-08
5.41206e-08
9.80183e-08
-1.26847e-08
9.75876e-09
-9.23046e-09
6.10989e-09
-2.64171e-08
-2.87487e-08
-4.6775e-09
-1.04902e-06
-1.32057e-08
-1.05749e-06
-2.45115e-11
-4.59568e-08
-1.03853e-10
-8.53159e-11
5.11973e-12
-2.47546e-10
-4.4983e-11
2.99435e-12
-2.86494e-08
3.91137e-08
6.49791e-08
-8.47299e-10
1.20774e-08
0
2.20148e-09
-8.53808e-09
-4.85892e-08
-4.87463e-09
-1.04985e-06
-8.59864e-09
-1.04794e-06
-3.39216e-10
-7.87389e-08
0
-3.04092e-10
9.76241e-12
-2.24662e-10
-3.68399e-11
0
-2.80652e-08
0
1.85487e-08
-3.64512e-09
1.27952e-08
0
7.83624e-09
2.69757e-08
-6.15112e-08
4.37174e-08
-1.04242e-06
5.34412e-08
-1.05471e-06
1.32407e-10
-7.1553e-08
0
-6.71404e-12
2.07479e-12
-4.3094e-12
-1.61106e-11
4.23209e-13
-1.52633e-08
0
8.14562e-09
-6.1326e-09
1.17328e-09
-5.86137e-09
4.27665e-09
-4.64055e-09
-5.87124e-08
-4.60413e-09
-1.04552e-06
-5.09351e-09
-1.04819e-06
-6.9224e-12
-5.56548e-08
2.50302e-13
-6.77218e-12
3.98439e-13
-3.38541e-12
-2.75341e-12
1.17158e-12
-6.52517e-10
0
1.68811e-09
-6.49472e-11
6.96417e-11
0
1.48697e-09
1.62272e-10
-5.50217e-08
-7.892e-09
-1.03838e-06
-4.77756e-09
-1.04031e-06
-2.58178e-13
-4.81805e-08
5.27076e-15
-7.02582e-12
2.99281e-13
-3.68516e-12
-3.01897e-12
6.28862e-13
-5.94535e-11
-4.7268e-12
4.79139e-11
-2.29059e-11
-1.29936e-11
1.10248e-09
-7.02295e-12
4.00243e-09
-3.95761e-08
3.14236e-09
-1.03194e-06
-5.13582e-10
-1.03141e-06
-8.39703e-14
-3.62669e-08
-1.04015e-13
-7.01636e-12
1.16466e-13
-3.91138e-12
-4.03764e-12
1.0917e-12
-2.67188e-11
-8.179e-13
3.70413e-12
0
-6.899e-11
-2.73e-12
-6.32275e-12
-2.4764e-09
-1.54004e-08
-1.07767e-08
-1.02463e-06
-6.52955e-09
-1.02071e-06
-6.63372e-13
-1.1234e-08
-6.58704e-13
-7.0202e-12
-1.91949e-13
-4.36829e-12
-2.3014e-11
1.37241e-12
-9.57899e-12
-1.72001e-11
6.79605e-13
0
-9.25865e-11
1.72389e-12
-1.00424e-11
-5.86427e-09
-3.65756e-10
-1.75833e-08
-1.01015e-06
-9.89709e-09
-1.00525e-06
-1.82813e-12
-1.52565e-09
-1.46807e-12
-7.09781e-12
-5.11787e-13
-4.95584e-12
-7.12856e-11
-1.33195e-11
1.7104e-12
-1.43512e-10
7.72407e-13
1.89878e-11
-1.31378e-10
1.19547e-11
-4.71624e-12
2.10122e-09
-5.8114e-12
3.50911e-09
-9.73132e-07
-1.27924e-09
-9.69553e-07
-3.24978e-12
-4.34711e-11
-1.83852e-12
-7.84147e-12
-1.58774e-12
-4.98747e-12
-7.36283e-11
-6.31126e-11
1.39876e-11
-3.5915e-12
-2.64599e-12
2.98727e-12
-2.0919e-12
7.10223e-13
-2.33246e-12
3.80209e-12
-4.79863e-12
1.41751e-09
-9.32098e-07
-2.28364e-10
-9.29631e-07
-1.9691e-12
-2.7144e-10
-4.47914e-13
-9.10596e-12
-1.89377e-12
-5.11123e-12
-3.72621e-11
-6.07121e-11
-6.41321e-14
-3.61816e-12
3.97504e-14
1.37614e-13
-2.01578e-12
3.4506e-13
-2.14075e-12
6.95014e-13
-4.67458e-12
1.04812e-10
-9.0505e-07
-1.01775e-09
-9.07929e-07
-5.47869e-12
-1.33053e-09
-6.39491e-12
-3.16042e-11
0
-7.54969e-11
-3.15827e-11
-3.87447e-11
1.03415e-13
-3.02919e-12
-5.07832e-13
3.73869e-13
-2.00585e-12
1.69215e-13
-1.99578e-12
1.00422e-12
-5.2292e-12
1.79126e-08
-8.87968e-07
4.30467e-09
-8.95333e-07
-3.91041e-12
-3.87173e-11
-2.91725e-11
-2.79979e-11
0
-9.38823e-11
-2.88102e-11
-4.16094e-11
0
-1.84975e-10
4.81351e-12
8.08223e-13
-3.44386e-11
1.54507e-13
-1.68606e-12
3.17538e-12
-8.79908e-12
8.97915e-10
-9.0598e-07
-7.45813e-13
-9.01966e-07
-3.25314e-12
-6.49034e-11
-1.27594e-11
-5.3332e-11
0
-9.54355e-11
-2.52657e-11
-3.26216e-11
1.13297e-11
-4.44885e-10
3.04533e-11
1.06196e-12
-1.11939e-10
1.99575e-13
-7.50917e-13
2.19452e-11
-3.01147e-11
2.11035e-09
-9.37586e-07
-1.08969e-10
-9.39276e-07
-5.53668e-12
-8.6341e-11
-1.71767e-11
-4.69206e-11
-1.36534e-11
-8.71956e-11
-2.31744e-11
-3.09123e-11
2.97456e-11
-4.49861e-10
6.87572e-12
1.12708e-12
-1.01457e-10
4.99807e-13
-1.23687e-13
1.16068e-10
-1.44973e-10
-6.02102e-10
-9.69134e-07
-1.52511e-10
-9.65817e-07
-4.32665e-12
-1.62817e-10
-1.27788e-11
-2.93579e-11
-7.89418e-12
-8.03815e-11
-2.02281e-11
-1.52525e-11
-1.90437e-11
-8.04432e-13
1.5444e-11
-4.96796e-15
-1.55747e-11
3.60695e-15
-1.32302e-13
5.53595e-10
-6.98564e-10
5.85665e-10
-9.88587e-07
-4.7766e-10
-9.87914e-07
-2.82682e-12
-6.30744e-10
-8.38513e-12
-1.47467e-11
-4.97872e-12
-7.20893e-11
-1.41879e-11
-1.25567e-11
-6.65135e-13
-2.78321e-13
2.04212e-14
0
-1.5424e-13
1.23421e-14
-1.44683e-13
1.81821e-09
-2.51676e-09
-1.14214e-09
-1.0035e-06
-1.87558e-09
-1.00208e-06
-3.5265e-12
-2.49796e-09
-4.36735e-12
-8.34561e-12
-3.86807e-12
-6.08899e-11
-1.91573e-11
-1.43721e-12
-7.42192e-15
-2.96842e-13
2.74556e-14
4.73439e-16
-1.59252e-13
4.85773e-15
-1.48851e-13
3.91498e-09
-9.79825e-09
1.62707e-09
-1.01008e-06
-2.67224e-09
-1.0103e-06
0
-9.60584e-09
-2.27478e-12
-7.73397e-12
-5.89085e-13
-3.43611e-11
-5.87952e-11
-3.1804e-12
0
-1.65107e-12
0
1.5768e-14
-1.27142e-13
3.54236e-14
-1.65623e-13
3.92839e-09
-2.08096e-08
1.42645e-09
-1.01233e-06
-2.78008e-09
-1.01204e-06
-1.18502e-13
-2.11386e-08
-4.88273e-13
-8.68809e-12
-6.82778e-12
-3.45247e-11
-5.8759e-11
-6.15605e-12
0
-1.98429e-11
0
5.54015e-14
-2.6512e-13
1.87986e-13
-2.69955e-13
3.1875e-09
-3.08216e-08
-1.10614e-09
-1.0067e-06
-3.97169e-09
-1.00609e-06
-9.50846e-12
-3.0484e-08
-2.41186e-12
-1.71086e-11
-8.35634e-12
-2.97225e-11
-5.4339e-11
-1.16748e-11
0
-4.47255e-11
-9.64007e-11
1.52867e-13
-1.28051e-12
1.05162e-12
-8.91902e-13
2.31081e-10
-4.25981e-08
-4.98599e-09
-9.94495e-07
-8.89061e-09
-9.93012e-07
-9.45712e-11
-5.16922e-08
-4.58039e-12
-1.12525e-10
-1.05189e-11
-1.86795e-11
-4.14225e-11
-6.40015e-13
0
-2.56152e-11
-2.04334e-10
1.14968e-12
-1.04795e-11
6.20689e-12
-3.16927e-12
2.20662e-08
-5.8618e-08
3.60594e-08
-9.80674e-07
3.58337e-08
-9.90519e-07
1.12368e-10
-5.87351e-08
3.94554e-12
-8.93706e-12
-3.45467e-13
-2.18007e-11
-4.29858e-12
-3.71833e-13
0
-2.38787e-12
-7.67943e-11
0
-1.03089e-11
2.106e-11
-2.53535e-11
7.19087e-09
-6.83509e-08
7.91547e-09
-9.71901e-07
-1.75954e-09
-9.77994e-07
-4.59477e-13
-6.98944e-08
0
-1.23429e-11
-7.59339e-13
-1.70329e-11
-6.39618e-14
-2.48457e-13
0
4.30679e-12
-2.79165e-11
0
-8.86558e-12
0
-3.92342e-11
-9.88004e-09
-7.37033e-08
-2.15754e-08
-9.66516e-07
-1.4148e-08
-9.64671e-07
-2.61862e-11
-7.20609e-08
0
-3.52872e-11
-1.31088e-12
-1.31389e-11
2.50444e-12
-3.95649e-13
-3.26494e-13
7.89807e-12
-7.13083e-12
0
-7.3832e-12
-4.01541e-11
-6.16309e-13
-1.64719e-08
-7.03715e-08
-1.95751e-08
-9.5651e-07
-1.63059e-08
-9.52067e-07
-2.02765e-10
-7.36391e-08
-1.27134e-11
-2.26942e-10
-1.96e-11
-1.97097e-12
5.38029e-12
-4.14193e-12
-1.72842e-12
7.00844e-12
-1.26226e-12
4.37923e-12
-9.73595e-12
3.90464e-12
-4.36846e-13
2.37804e-08
-5.89487e-08
3.30229e-08
-9.40496e-07
3.47932e-08
-9.49318e-07
2.07846e-10
-6.37002e-08
-1.96115e-12
-9.87088e-12
-2.0658e-11
4.50409e-12
2.0714e-11
-6.04949e-12
-6.9296e-13
7.61838e-12
6.40189e-12
1.32907e-12
-2.07665e-12
1.34798e-12
-3.07919e-13
1.70447e-09
-4.34385e-08
-3.62302e-09
-9.30595e-07
-8.64159e-09
-9.33721e-07
-8.75045e-12
-4.30603e-08
-5.63204e-12
-9.35744e-12
3.25501e-12
-3.37511e-13
4.11864e-11
-3.57622e-14
-1.11228e-13
2.77105e-12
1.14957e-11
3.57801e-13
-1.83657e-12
1.03506e-12
-1.98137e-13
6.35684e-09
-3.16791e-08
2.36903e-09
-9.1141e-07
-4.69385e-09
-9.11309e-07
-4.2209e-12
-3.10443e-08
-3.04114e-12
-8.63477e-12
5.54723e-12
-1.52714e-11
4.63502e-11
5.86425e-12
-1.14189e-14
-1.2399e-11
1.23805e-11
4.41482e-13
-2.71523e-12
8.92735e-13
-1.25518e-13
4.70947e-09
-2.65241e-08
-6.64501e-10
-8.86045e-07
-7.30115e-09
-8.8624e-07
-2.0936e-12
-2.75134e-08
-1.28884e-11
-9.65259e-12
-2.40727e-12
-2.81891e-11
3.60349e-11
7.54812e-13
2.85654e-12
-6.7857e-12
-3.22424e-12
8.41307e-13
-9.7887e-14
7.44082e-13
-2.63629e-14
1.16656e-08
-2.67061e-08
1.46534e-08
-8.65207e-07
-1.57652e-09
-8.64012e-07
-2.87106e-11
-2.72464e-08
-2.50151e-11
-2.25052e-11
-2.59923e-11
-2.49515e-11
3.28679e-11
-1.14905e-12
0
-3.10243e-13
-6.11234e-12
1.133e-14
-4.53265e-14
1.2679e-14
-2.5513e-14
1.88606e-08
-2.9057e-08
2.80545e-08
-8.44664e-07
9.86035e-09
-8.52295e-07
1.00605e-11
-2.93673e-08
-6.25862e-12
-4.60598e-12
2.32529e-11
-7.11487e-11
1.17424e-11
3.41563e-11
0
-7.51444e-14
-4.09275e-13
1.2983e-14
-2.39065e-13
1.56221e-14
-2.63923e-14
8.16601e-09
-4.29053e-08
3.6246e-09
-8.61716e-07
-6.86502e-09
-8.63917e-07
-6.2414e-12
-4.23633e-08
-4.98864e-12
-4.53763e-12
0
-6.93219e-11
4.56562e-12
4.08954e-12
2.2945e-14
-3.77694e-13
-6.12198e-15
6.73887e-14
-6.78673e-13
6.40916e-14
-2.24075e-14
6.41698e-09
-7.99515e-08
-2.63017e-09
-8.97469e-07
-1.01416e-08
-8.9475e-07
-1.2441e-11
-7.82116e-08
-1.19999e-11
-4.38141e-12
0
-7.42328e-11
1.01057e-12
-7.08244e-13
1.84441e-14
-1.20861e-12
1.49109e-14
2.08285e-14
-6.42001e-13
1.90511e-14
-2.14373e-14
7.07466e-09
-1.28105e-07
-1.91263e-09
-9.19431e-07
-9.44962e-09
-9.18869e-07
-1.17886e-11
-1.2883e-07
-1.28298e-11
-3.32865e-12
-5.63083e-11
-2.37064e-11
-2.5256e-11
0
3.94591e-14
-1.24351e-12
2.95168e-15
1.38814e-14
-1.51494e-13
1.17808e-14
-2.07833e-14
8.0738e-09
-1.69318e-07
-1.69889e-10
-9.23789e-07
-6.91743e-09
-9.23848e-07
-2.35603e-13
-1.69233e-07
0
-3.61496e-12
1.19654e-11
-2.97639e-12
-1.17035e-12
4.35401e-11
4.70971e-14
-7.92564e-13
-6.28561e-14
4.36381e-15
-1.22058e-14
2.87494e-15
-2.08214e-14
5.46266e-09
-1.85536e-07
-1.37233e-09
-9.17343e-07
-6.12578e-09
-9.16409e-07
-1.05178e-12
-1.84839e-07
3.29447e-14
-4.60862e-12
1.57105e-12
-4.39359e-12
-7.07602e-13
1.20167e-12
6.00024e-15
-3.46319e-14
-8.7035e-14
1.43057e-15
-9.12309e-15
7.77676e-16
-2.16555e-14
8.75449e-11
-1.8385e-07
-7.28103e-09
-9.07688e-07
-1.13971e-08
-9.05819e-07
-7.04861e-12
-1.83466e-07
-5.32586e-12
-6.38195e-12
-2.77238e-13
-4.34307e-11
-7.55e-13
-1.7573e-13
4.77485e-16
-3.74977e-15
-3.15821e-14
2.31092e-15
-8.57793e-15
8.37383e-15
-2.91525e-14
6.89246e-09
-1.73545e-07
-1.67345e-09
-8.94835e-07
-5.15132e-09
-8.93237e-07
-2.66869e-11
-1.73351e-07
-2.90845e-11
-4.23172e-12
-8.18487e-12
-4.36876e-11
-7.64555e-12
-8.60654e-13
1.23765e-15
-3.97756e-15
-1.16229e-15
1.26681e-14
-2.02309e-14
7.70365e-14
-9.44521e-14
1.01022e-08
-1.51153e-07
1.25608e-09
-8.74241e-07
-8.42573e-09
-8.74032e-07
-2.11941e-11
-1.52043e-07
-2.2236e-11
-3.55508e-12
-1.55393e-11
-2.96612e-11
-1.67822e-11
-7.44191e-12
4.78301e-15
-5.27814e-15
-3.88252e-15
2.05928e-13
-1.12365e-12
5.63745e-13
-4.5428e-13
8.1787e-09
-1.3332e-07
-3.60522e-09
-8.50991e-07
-1.23941e-08
-8.50515e-07
-2.85377e-11
-1.34321e-07
-3.09747e-11
-1.21898e-12
-3.03578e-11
-9.10517e-12
-7.30967e-12
-2.32182e-11
4.02586e-13
-3.03497e-13
-1.0519e-13
3.85687e-12
-1.49974e-11
4.22422e-12
-8.26856e-13
1.13519e-08
-1.25423e-07
-1.61586e-09
-8.28001e-07
-1.29414e-08
-8.27468e-07
-1.73484e-12
-1.26203e-07
-1.72322e-12
-1.18799e-12
2.5954e-12
-1.20251e-11
-4.64632e-12
-2.87927e-12
7.70854e-13
-2.28136e-12
-2.84417e-13
5.99831e-12
-1.70674e-11
6.32135e-12
-1.135e-12
1.07277e-08
-1.22315e-07
-3.42044e-09
-8.06815e-07
-1.52554e-08
-8.05058e-07
-4.70704e-12
-1.22914e-07
-4.99575e-12
-8.51986e-13
0
-1.08361e-11
-5.4244e-12
0
2.62915e-12
-5.9263e-12
-1.98402e-13
5.6713e-12
-1.69385e-11
6.06262e-12
-1.4027e-12
1.59181e-08
-1.37803e-07
1.90102e-09
-7.94874e-07
-1.28815e-08
-7.95242e-07
-3.32777e-12
-1.38742e-07
-3.76509e-12
-4.57379e-13
-3.86084e-12
-1.44846e-12
-1.2985e-11
0
4.94173e-12
-6.26753e-12
-1.6284e-13
4.88111e-12
-1.37056e-11
5.2623e-12
-1.6349e-12
1.50129e-08
-1.76682e-07
-4.92825e-10
-7.87751e-07
-1.47238e-08
-7.89571e-07
-8.41975e-14
-1.77404e-07
-1.30934e-13
-4.58515e-13
-4.71743e-13
-1.52592e-13
-1.75816e-13
1.34905e-12
5.83036e-12
-5.83898e-12
-2.10415e-14
4.44164e-12
-1.03626e-11
4.62203e-12
-1.79224e-12
1.5574e-08
-2.14761e-07
-1.17519e-09
-7.77405e-07
-1.62231e-08
-7.81001e-07
-4.42951e-14
-2.15648e-07
-4.71553e-14
-5.03752e-13
-1.65341e-14
-2.31523e-13
-8.15287e-14
-1.2141e-13
4.01909e-12
-4.17371e-12
-2.82746e-14
3.2556e-12
-7.62356e-12
3.37259e-12
-2.01045e-12
1.4647e-08
-2.40102e-07
-3.00092e-10
-7.65131e-07
-1.49377e-08
-7.69181e-07
-5.02778e-13
-2.40865e-07
-4.95976e-13
-5.58426e-13
-2.37856e-13
-8.26885e-13
-1.38259e-13
-3.52398e-14
3.61826e-12
-2.35663e-12
-3.4101e-14
3.70295e-12
-5.54613e-12
3.90254e-12
-2.20499e-12
1.67028e-08
-2.5789e-07
8.72828e-10
-7.49653e-07
-1.7025e-08
-7.51757e-07
-1.10092e-12
-2.58399e-07
-1.12784e-12
-5.80989e-13
-1.02149e-12
-1.12036e-12
-1.05185e-13
-2.7717e-15
2.88634e-12
-1.42123e-13
-4.19465e-14
4.09356e-12
-3.53935e-12
4.49321e-12
-2.39536e-12
1.78698e-08
-2.7162e-07
1.04289e-09
-7.32305e-07
-1.76225e-08
-7.32776e-07
-9.18137e-13
-2.7191e-07
-9.8002e-13
-5.1327e-13
-9.95256e-13
-1.00003e-12
3.59338e-14
-7.07481e-13
2.70907e-12
1.96763e-12
-3.64128e-14
4.82768e-12
-1.66113e-12
5.25984e-12
-2.62027e-12
2.08462e-08
-2.87551e-07
2.80404e-10
-7.11273e-07
-2.06888e-08
-7.11403e-07
-6.14494e-13
-2.87504e-07
-6.04298e-13
-4.60712e-13
-1.12965e-12
-6.48073e-13
1.03922e-13
-7.68748e-13
1.07e-11
2.77576e-12
-3.37435e-14
5.75361e-12
4.06987e-13
6.4007e-12
-3.06188e-12
2.25832e-08
-3.08613e-07
-6.07152e-10
-6.87976e-07
-2.26916e-08
-6.89151e-07
-3.66597e-13
-3.08068e-07
-3.52397e-13
-4.12395e-13
-9.70643e-13
-2.70756e-13
6.48245e-14
-5.02652e-13
7.42364e-12
4.55019e-12
-5.73592e-14
6.33709e-12
4.37063e-12
9.05212e-12
-5.51851e-12
2.59011e-08
-3.37845e-07
-1.23033e-09
-6.60995e-07
-2.66409e-08
-6.63789e-07
-1.07723e-12
-3.37108e-07
-1.60449e-13
-1.26299e-12
-2.05289e-13
-8.57854e-14
5.8387e-17
-3.81838e-14
7.18806e-12
1.73618e-11
-2.69269e-13
9.2634e-12
4.49579e-12
3.0914e-11
-2.69056e-11
2.46104e-08
-3.67327e-07
5.51666e-11
-6.36883e-07
-2.62199e-08
-6.37574e-07
-1.10763e-11
-3.6716e-07
-1.27404e-13
-1.21753e-11
-1.32308e-13
-1.06383e-14
-2.20617e-14
-8.30818e-16
8.37954e-12
2.53775e-11
-8.3263e-14
1.27507e-11
6.7869e-12
2.33007e-10
-2.46948e-10
3.08542e-08
-4.01379e-07
3.63642e-09
-6.1011e-07
-2.75721e-08
-6.06514e-07
-1.20653e-10
-3.96831e-07
-2.23932e-13
-1.32602e-10
-2.24916e-13
-8.88226e-15
-2.22981e-14
-1.17024e-15
4.63885e-12
2.7185e-11
-1.64168e-13
1.10198e-11
1.7917e-13
2.23099e-09
-2.46648e-09
2.26304e-08
-4.23148e-07
-9.22735e-09
-5.78381e-07
-3.14213e-08
-5.84749e-07
-1.27927e-09
-4.28691e-07
-1.51012e-13
-1.41172e-09
-1.4847e-13
-8.76131e-15
5.59692e-15
-1.62848e-13
-1.57581e-13
1.08661e-11
2.62207e-11
4.02537e-14
-2.49963e-13
1.15094e-08
-1.39761e-08
1.97045e-08
-4.25955e-07
1.91845e-09
-5.61025e-07
-2.96359e-08
-5.53256e-07
-1.22999e-08
-4.50723e-07
-3.29515e-14
-1.43912e-08
-3.09777e-14
-8.24208e-15
6.97245e-15
-6.00308e-14
6.32596e-13
3.77368e-12
2.46401e-12
1.0366e-12
-8.81863e-13
4.41492e-08
-6.38062e-08
9.18612e-08
-4.76798e-07
5.34487e-08
-5.22707e-07
2.55702e-08
-5.25463e-07
-2.62016e-09
-4.13153e-07
-6.73933e-14
-1.53515e-08
-5.20133e-14
-1.82424e-14
1.91019e-15
-4.59823e-14
8.70441e-13
1.61679e-12
-2.10745e-12
5.73054e-12
-5.94535e-12
4.12579e-08
-1.09757e-07
3.14699e-08
-4.71226e-07
-2.76331e-09
-4.88428e-07
-3.66136e-08
-4.91752e-07
-2.46036e-08
-4.08196e-07
-6.69054e-13
-2.87583e-08
-1.35518e-14
-6.70366e-13
6.8071e-16
-6.70498e-15
2.25813e-12
1.10293e-12
-5.03136e-12
1.03617e-10
-1.07489e-10
4.82551e-08
-1.45452e-07
1.77343e-08
-4.3732e-07
-1.76436e-08
-4.53049e-07
-5.39548e-08
-4.55422e-07
-4.46611e-08
-4.31427e-07
-2.38474e-11
-8.463e-08
-2.71123e-15
-2.4515e-11
1.73427e-17
-2.29924e-15
4.16212e-12
2.81977e-14
-6.43952e-12
2.10862e-09
-2.21364e-09
8.87512e-08
-2.31786e-07
5.89962e-08
-4.07165e-07
1.70582e-08
-4.1111e-07
-3.05289e-08
-4.07832e-07
-6.69645e-08
-3.94731e-07
-7.71567e-10
-1.49187e-07
-1.64962e-15
-7.9608e-10
-1.58882e-15
-4.72146e-17
5.59503e-12
-9.36232e-12
5.47373e-13
2.0053e-08
-2.2264e-08
6.30183e-08
-2.7518e-07
1.63824e-08
-3.60528e-07
-2.7078e-08
-3.67648e-07
-7.11705e-08
-3.63741e-07
-1.11125e-07
-3.54759e-07
-1.36058e-08
-2.46216e-07
-7.4721e-12
-1.43945e-08
-7.47361e-12
-8.48205e-17
1.44752e-09
-1.45558e-09
-1.30211e-12
8.02619e-08
-9.97841e-08
1.05433e-07
-2.98235e-07
5.88348e-08
-3.13929e-07
4.97444e-09
-3.13788e-07
-4.49104e-08
-3.13856e-07
-8.97651e-08
-3.09906e-07
-5.05479e-08
-2.86807e-07
-7.72701e-10
-6.40796e-08
-7.80174e-10
-2.3723e-16
3.29053e-08
-3.43609e-08
-3.4397e-16
1.31126e-07
-1.97943e-07
8.69687e-08
-2.54079e-07
3.86602e-08
-2.65621e-07
-1.03036e-08
-2.64824e-07
-6.21735e-08
-2.61986e-07
-1.13588e-07
-2.58491e-07
-1.48547e-07
-2.5143e-07
-2.82842e-08
-1.83007e-07
-2.90644e-08
-5.77041e-17
9.59931e-08
-1.1031e-17
9.39669e-08
5.7125e-08
1.8795e-08
-1.29452e-08
-4.07093e-08
-6.80585e-08
-9.99358e-08
-9.10291e-08
-7.98201e-17