/*--------------------------------*- C++ -*----------------------------------*\
  =========                 |
  \\      /  F ield         | OpenFOAM: The Open Source CFD Toolbox
   \\    /   O peration     | Website:  https://openfoam.org
    \\  /    A nd           | Version:  8
     \\/     M anipulation  |
\*---------------------------------------------------------------------------*/
FoamFile
{
    version     2.0;
    format      ascii;
    class       volScalarField;
    location    "1.9";
    object      p_rgh;
}
// * * * * * * * * * * * * * * * * * * * * * * * * * * * * * * * * * * * * * //

dimensions      [1 -1 -2 0 0 0 0];

internalField   nonuniform List<scalar> 
9150
(
1963.36
1962.36
1961.75
1961.27
1961.04
1961.05
1961.29
1961.77
1962.36
1963.36
1962.94
1962.41
1962.01
1961.68
1961.51
1961.5
1961.68
1962.01
1962.42
1962.94
1962.66
1962.38
1962.13
1961.91
1961.8
1961.79
1961.91
1962.13
1962.38
1962.67
1962.55
1962.37
1962.2
1962.04
1961.95
1961.96
1962.05
1962.2
1962.37
1962.55
1962.55
1962.36
1962.23
1962.1
1962.03
1962.04
1962.1
1962.23
1962.36
1962.55
1951.8
1950.81
1950.92
1951.43
1951.57
1951.56
1951.41
1950.93
1950.79
1951.79
1955.67
1954.96
1954.72
1954.66
1954.75
1954.73
1954.64
1954.7
1954.95
1955.66
1958.7
1957.96
1957.65
1957.29
1957.26
1957.26
1957.34
1957.67
1958
1958.74
1961.41
1960.31
1959.89
1959.25
1959.08
1959.09
1959.25
1959.9
1960.33
1961.44
1964.14
1962.04
1961.29
1960.57
1960.31
1960.31
1960.55
1961.29
1962.03
1964.13
1946.31
1945.13
1943.31
1942.33
1941.91
1942.07
1942.7
1943.8
1945.69
1947.28
1945.8
1945.72
1944.86
1944.62
1944.18
1944.2
1944.61
1944.97
1945.99
1946.2
1945.67
1945.77
1944.78
1945.19
1944.77
1944.85
1945.33
1944.98
1945.96
1945.93
1942.58
1945.25
1944.2
1945.84
1945.52
1945.63
1945.8
1944.31
1945.34
1942.67
1935.68
1945.84
1946.11
1947.76
1948.04
1948.05
1947.74
1946.14
1945.86
1935.75
306.862
317.762
327.069
333.026
336.178
346.874
367.573
395.39
426.247
456.398
280.975
302.694
318.068
320.074
327.479
333.138
337.418
348.063
375.883
419.04
252.207
265.514
283.752
304.719
321.035
329.484
334.216
339.196
349.802
375.518
233.056
252.872
282.91
307.827
323.181
331.067
333.675
343.419
344.519
351.974
249.132
282.053
303.783
321.634
336.311
345.602
353.717
357.801
354.459
351.094
272.127
282.28
294.898
307.253
318.558
328.24
336.148
340.158
337.924
321.859
249.743
255.994
273.452
286.77
298.231
307.516
315.176
313.174
277.127
264.794
160.987
166.127
198.228
259.017
283.88
296.601
305.607
258.896
254.566
249.066
148.719
151.157
152.191
181.013
280.391
305.499
308.642
242.659
244.123
246.309
233.378
157.852
156.54
158.067
230.662
319.251
315.234
250.202
239.023
255.396
315.523
280.044
170.974
167.994
199.214
278.362
306.764
316.533
300.557
247.052
328.124
334.239
282.878
182.254
210.512
249.967
308.869
335.374
336.602
252.508
339.387
347.699
356.217
263.79
230.985
259.105
347.159
351.415
352.329
265.815
352.602
359.124
366.991
317.741
245.679
292.933
365.871
364.746
364.568
318.634
361.796
366.871
375.177
339.709
254.404
307.094
370.752
366.072
363.104
361.394
358.492
362.443
376.674
390.715
271.908
279.2
357.72
358.454
356.482
352.687
339.05
346.88
368.05
385.682
304.416
222.016
254.539
356.33
365.879
366.129
82.7033
82.9209
117.04
268.298
234.787
159.812
163.122
323.339
390.074
386.718
68.766
71.7191
73.8435
91.4996
115.133
142.488
192.682
332.614
413.968
410.135
65.2241
66.5591
68.5274
72.8863
120.823
301.83
395.264
374.161
445.692
442.228
60.6595
60.0582
59.4758
112.362
306.975
379.051
408.397
403.209
424.301
430.098
57.9518
54.1811
52.3539
195.548
309.963
296.646
343.673
353.71
317.55
159.279
57.5953
52.9712
51.5123
77.8396
196.156
258.414
287.844
309.48
156.335
7.17811
58.4427
56.3939
54.22
53.0609
60.7322
275.766
330.81
309.764
29.9044
1.06554
60.0385
60.5723
60.9472
61.3858
62.4109
304.557
364.521
214.477
9.2781
3.05733
61.5477
62.5013
63.4561
64.0642
90.4416
358.921
386.151
162.279
7.25093
5.32416
61.8133
62.4277
64.0914
64.539
177.315
416.711
376.601
67.8287
8.33389
7.38824
60.4566
60.2818
60.8332
87.3712
370.216
398.744
226.773
16.0723
8.54726
7.44942
59.0249
58.3941
57.861
106.298
393.135
383.493
126.973
9.50566
8.69881
162.356
58.6593
58.6435
58.9957
222.961
420.835
390.488
96.2448
6.54287
8.60753
79.3338
369.003
176.329
67.6623
251.232
434.441
394.025
55.0341
4.50961
4.78457
53.6702
486.055
473.439
153.219
230.122
439.21
397.79
43.0406
2.67767
3.203
13.9126
332.258
428.058
123.967
140.464
412.827
436.87
32.7287
1.67845
1.7446
1.82588
113.162
168.077
94.1053
68.2715
434.087
474.978
31.9335
1.45621
1.42771
1.60935
121.146
40.6695
71.8856
54.2269
458.832
504.927
55.3324
1.37186
1.35198
1.63164
141.604
41.9954
27.6585
46.2352
487.76
517.891
62.3765
1.21754
1.21369
1.2526
148.059
20.3051
22.3677
100.742
545.379
507.332
38.5933
0.948909
1.26373
0.987501
112.803
19.2265
18.2829
27.5456
561.983
514.506
14.4426
0.935333
1.30199
0.989223
136.534
20.9507
15.1755
35.5228
529.371
567.536
30.5791
0.819561
1.21816
0.939212
63.198
54.7993
13.5687
43.5076
545.49
580.279
42.2026
0.671808
0.789096
0.765987
28.0589
27.9959
6.45732
34.6569
590.895
559.791
34.3755
0.72007
0.702176
0.703578
0.0550598
-0.600475
5.15141
26.9785
599.603
576.297
28.1605
0.710231
0.687453
0.670699
-0.391399
-0.373116
-0.208679
27.1656
617.582
584.225
25.0575
0.664884
0.645387
0.627122
-0.298733
-0.228271
-0.22118
15.9552
629.484
597.938
15.2097
0.59618
0.573232
0.567236
-0.223713
0.237336
-0.259221
4.52566
629.961
620.17
3.67689
0.493738
0.485414
0.560629
0.368226
0.332726
-0.166381
-0.173686
626.465
631.607
0.78839
0.407789
0.40755
0.550151
0.673569
0.238336
-0.0747839
-0.0771069
624.093
618.752
0.361827
0.357136
0.351908
0.467356
-0.0314833
-0.0224872
-0.00916076
0.00264207
617.169
626.139
0.325666
0.31861
0.377917
0.367998
0.00954817
0.0238449
0.047328
0.0959436
611.434
650.771
0.706755
0.278236
0.505456
0.326778
0.225545
0.0568703
0.0381772
0.0364254
656.722
650.055
0.226518
0.308497
0.512389
0.309941
1.12033
0.258218
0.0515461
0.0487041
701.671
696.904
0.255362
0.315725
0.527006
0.314399
1.40516
0.437997
0.0746651
0.0722781
744.826
747.892
0.269142
0.298207
0.535922
0.320747
0.9133
0.271126
0.072986
0.0709067
789.262
784.6
0.25725
0.262988
0.535912
0.318082
0.0640849
0.076172
0.0751257
0.0745697
823.195
822.652
0.222855
0.224939
0.517676
0.298671
0.0997629
0.104385
0.10576
1.69944
855.622
854.456
1.57627
0.18909
0.387146
0.499666
0.151717
0.155712
0.157832
12.9984
881.098
880.97
13.1605
0.139475
0.254516
0.512162
0.231274
0.226077
0.233105
22.6621
900.874
904.095
22.7605
0.0835286
0.242679
0.475738
0.429427
0.309062
0.345537
32.6497
899.132
939.998
33.0993
0.0224429
0.174052
0.425305
0.5974
0.372198
0.406573
44.6296
909.732
957.552
52.2068
-0.0556565
0.126356
0.161213
0.474186
0.419483
0.344538
60.3726
942.7
957.483
59.1635
-0.0540501
0.220774
0.0595554
0.316575
0.390445
0.227389
68.8373
969.023
962.007
67.7221
0.0235636
0.251764
0.0912354
0.256574
0.352892
0.153178
73.2887
1000.45
964.577
71.396
0.0797904
0.27925
0.0579183
0.263924
0.380287
0.261867
65.1005
975.838
1018.22
74.4693
-0.0900525
0.220813
0.137631
0.271805
0.26157
0.250902
53.5389
996.608
1028.44
55.2081
-0.115435
0.0957922
0.206521
0.284743
0.198208
0.189003
39.8433
1026.43
1021.53
38.7931
-0.0537499
-0.00470812
0.0861062
0.214234
0.192282
0.185946
31.7269
1027.93
1031.87
31.7138
-0.0412951
0.228164
0.349492
0.407226
0.204237
0.218008
28.8218
1024.26
1051.66
30.7306
-0.0388123
0.312453
0.434882
0.175968
0.16736
0.182375
31.1344
1050.37
1052.28
32.3642
-0.0196456
0.301344
0.266574
0.132031
0.141036
0.150064
39.1003
1089.72
1092.01
39.8581
0.00217043
0.506925
0.218573
0.106397
0.11267
0.116502
74.5889
1170.45
1167.72
72.3757
0.0405765
0.544814
0.26502
0.0893591
0.0803974
0.0866966
136.08
1247.47
1245.31
134.474
0.0827031
0.488368
0.76332
0.0623909
0.048272
0.051191
201.457
1297.91
1299.96
203.083
0.0650478
0.201556
0.582721
0.0325393
0.013765
0.00844354
247.478
1331.41
1325.91
246.925
0.0260241
0.0218918
0.0101487
0.00256774
-0.0141705
-0.0387047
264.3
1362.52
1333.42
262.691
0.0411523
0.157526
0.0126923
0.00200099
-0.00289414
-0.00778209
264.021
1364.6
1364.65
265.561
0.0152745
0.42026
0.0119969
0.00603661
0.00385054
0.00127617
244.843
1378.25
1379.27
244.468
0.0224238
0.435104
0.198664
0.0104005
0.0108751
0.0102197
219.974
1386.85
1389.08
221.292
0.0386578
0.441709
0.45779
0.0126276
0.0724615
0.0135927
206.83
1399.86
1400.62
208.152
0.0328269
0.101153
0.210398
0.0175461
0.112741
0.0135385
204.781
1418.66
1414.94
205.453
0.0375481
0.144105
0.230168
0.0617213
0.116855
0.019882
218.498
1450.16
1448.35
218.809
0.0385406
0.135778
0.365015
0.0913689
0.119355
0.0229168
286.657
1500.51
1500.42
288.06
0.0232558
0.0252206
0.245206
0.0916619
0.100215
0.0226395
377.445
1547.52
1546.9
377.497
0.00950645
0.00856286
0.00702058
0.0939906
0.0824032
0.0230608
457.305
1585.81
1585.9
457.041
0.00921662
0.0160703
0.00817029
0.096809
0.0843177
0.025839
518.621
1616.38
1616.45
517.704
0.0099786
0.0288968
0.0291441
0.100829
0.0897013
0.0314694
574.929
1643.62
1643.93
573.615
0.0100732
0.028589
0.0346273
0.104104
0.0987456
0.0357842
633.836
1669.23
1670.01
632.243
0.00878055
0.0218959
0.0340137
0.089093
0.115096
0.0349192
710.656
1694.6
1695.5
708.809
0.00746296
0.0154445
0.0332751
0.0582216
0.124295
0.0312474
811.203
1718.37
1719.5
809.403
0.00521548
0.00834944
0.0100142
0.0711724
0.160013
0.0298125
938.879
1740.17
1741.44
937.491
0.00280669
0.00493106
0.00877099
0.293674
0.194398
0.0457082
1075.13
1760.94
1761.16
1073.85
-0.00127149
0.00269992
0.0066541
0.322013
0.0480547
0.0544568
1226.45
1777.91
1782.34
1226.17
-0.00919178
0.00119723
0.00496276
0.222965
0.0356841
0.0441325
1354.82
1796.86
1803.9
1378.24
0.245374
0.00154301
0.0009664
0.112891
0.021605
93.9942
1477.98
1819.87
1816.62
1457.7
53.8643
-0.00511413
-0.00322408
0.0358126
0.0133687
361.039
1726.59
1835.54
1833.07
1434.73
57.1856
-0.00450253
-0.00386875
0.0342903
0.00658269
584.893
1805.63
1854.43
1853.4
1661.77
245.118
0.00204246
0.000390892
0.0414102
0.0237834
873.026
1854.66
1873.37
1873.33
1833.09
619.044
-0.00298707
-0.00204133
0.037164
0.0647063
1391.72
1891.94
1892.6
1892.38
1890.76
1097.21
0.00167344
-0.000398699
-0.0100891
286.182
1694.95
1909.98
1911.23
1911.39
1910.67
1658.03
116.432
0.00236428
0.0176169
1241.17
1927.33
1927.07
1926.78
1926.72
1926.52
1921.71
1017.45
-0.00128495
716.475
1898.92
1939.38
1937.56
1936.74
1936.56
1937.35
1939.33
1866.76
612.24
481.651
504.101
521.048
525.254
520.989
510.174
492.151
469.978
427.424
384.844
350.388
328.467
312.668
299.819
288.85
281.517
283.43
285.929
283.931
287.33
294.249
304.59
315.848
323.903
325.388
334.405
340.875
348.387
354.254
388.119
389.563
401.006
406.351
409.34
426.414
434.902
436.829
438.124
438.451
438.932
455.505
469.933
481.102
487.094
479.828
464.034
446.859
421.26
395.869
360.171
332.418
311.474
297.579
283.712
264.577
261.366
268.963
273.517
260.781
268.878
283.406
294.937
306.184
311.17
319.484
324.31
329.604
349.433
364.331
380.385
395.589
400.31
406.12
413.724
419.844
432.908
433.871
435.314
437.531
438.094
405.664
414.547
413.726
411.494
401.389
380.882
356.839
342.9
320.9
289.921
270.546
265.43
244.83
234.848
238.361
240.593
247.872
238.945
243.748
250.798
262.763
292
306.799
312.332
320.678
331.077
338.523
345.63
354.974
364.564
378.213
395.901
393.933
401.986
402.581
412.848
427.442
432.258
436.498
438.266
378.572
369.461
344.35
314.574
280.908
238.106
211.455
231.728
232.198
208.998
196.464
196.748
206.659
211.276
220.956
223.708
220.9
222.033
222.381
237.016
269.102
280.129
290.123
296.755
303.643
311.805
320.308
329.404
340.702
352.434
363.902
378.187
392.973
376.148
380.513
381.33
403.298
428.706
437.464
441.454
337.054
304.82
251.89
212.869
182.982
174.135
173.066
179.474
180.01
165.3
167.563
180.261
191.583
197.444
196.555
192.278
191.548
226.449
257.334
259.599
265.78
271.239
274.501
278.366
280.782
283.038
285.139
273.455
266.386
286.005
317.843
343.965
363.942
363.158
352.357
361.164
369.378
417.243
437.327
445.57
283.508
217.753
172.788
165.86
163.273
162.284
163.092
163.429
168.285
169.487
179.689
205.28
218.643
200.133
192.034
187.392
181.697
192.379
252.544
263.667
266.954
266.267
262.627
264.488
262.878
254.822
237.278
204.325
180.945
183.81
198.749
257.635
318.951
347.015
325.829
339.301
350.101
399.856
434.105
448.249
248.371
182.568
162.477
159.575
160.007
159.858
160.161
174.373
199.615
202.408
207.195
216.308
225.165
228.896
223.466
185.03
178.754
174.881
204.695
269.78
273.617
270.846
267.297
267.575
255.452
181.263
168.386
168.414
169.033
171.01
175.393
183.345
244.106
320.201
323.88
315.7
334.077
391.864
421.893
439.436
247.651
242.63
166.398
158.04
158.461
157.875
157.636
160.711
188.607
196.876
183.815
179.751
189.219
207.681
211.758
205.143
170.097
169.52
181.145
268.666
286.428
288.25
291.083
280.259
191.409
164.835
166.142
166.408
167.679
169.856
172.877
184.118
251.755
299.501
318.398
316.777
343.115
366.112
388.578
406.246
294.828
281.206
212.398
157.488
157.655
157.674
158.053
158.641
159.394
158.299
158.058
157.545
156.051
158.394
185.08
156.365
156.204
161.731
193.495
293.556
304.437
304.057
295.509
200.485
160.699
162.385
163.712
166.612
206.508
243.85
259.237
268.213
279.361
281.802
288.48
297.852
313.672
333.226
351.47
364.107
285.327
289.71
270.529
157.728
157.773
157.918
158.539
158.962
158.956
158.661
158.351
158.042
156.417
152.812
147.325
144.967
154.098
212.585
249.296
247.377
245.397
295.766
253.461
167.392
153.564
156.095
157.346
225.657
315.18
310.828
299.756
287.101
273.52
251.814
243.163
256.353
266.005
284.679
312.445
339.452
245.788
300.823
299.329
195.579
158.468
158.796
158.761
158.842
158.759
158.409
157.979
157.427
156.739
155.614
169.597
180.476
204.964
208.029
213.574
259.465
272.624
263.679
208.795
141.021
143.554
146.571
148.478
237.078
317.496
314.792
303.104
290.11
253.857
247.245
248.47
256.68
271.287
288.261
323.09
345.907
251.809
259.293
317.805
292.747
187.64
200.817
199.247
199.201
193.935
206.603
215.883
213.989
193.202
176.564
181.394
194.538
251.843
251.65
244.286
235.468
211.671
164.368
148.006
134.116
137.635
140.841
143.092
182.216
204.336
268.109
290.445
277.386
270.999
273.454
278.115
298.889
306.254
329.937
371.912
381.746
265.667
264.419
331.362
370.211
341.856
363.016
362.444
362.414
354.957
353.252
361.415
366.143
349.16
298.061
280.789
262.206
177.076
168.128
140.588
132.974
135.905
140.732
142.882
135.455
138.209
140.685
142.983
144.27
146.1
169.41
286.219
333.635
325.001
327.486
356.801
373.056
385.858
397.808
407.298
418.529
279.111
299.545
336.619
403.634
407.256
407.484
404.521
401.035
397.857
392.807
387.681
382.392
376.246
330.75
239.57
166.885
136.605
135.771
134.589
134.655
135.165
136.559
148.222
138.491
140.346
142.184
143.722
144.562
145.024
191.393
348.939
366.078
373.987
383.498
394.061
406.303
420.285
427.731
432.976
437.662
352.777
360.981
343.381
348.487
417.813
426.013
426.304
419.692
412.849
406.176
398.583
389.649
353.313
174.631
141.281
139.325
137.58
136.64
136.558
136.945
138.764
141.755
142.161
140.726
142.07
143.352
144.264
144.773
174.544
345.029
383.835
390.151
397.569
407.485
417.753
428.14
437.033
437.168
443.983
448.158
347.434
345.363
366.716
317.74
306.188
375.257
441.707
436.791
429.066
420.148
410.475
392.835
206.899
145.091
142.987
140.83
138.993
138.266
138.336
138.816
139.647
141.279
141.421
142.228
143.114
143.974
144.93
228.205
367.957
402.299
408.024
413.141
418.851
425.548
433.712
441.537
448.013
451.145
446.296
448.818
364.788
356.691
362.779
405.518
277.582
260.513
370.876
453.007
444.057
432.816
420.998
315.895
149.434
144.133
142.372
140.06
138.572
138.301
138.661
139.837
141.33
142.753
142.931
143.115
144.014
207.384
350.081
410.438
423.224
426.027
427.908
430.451
434.664
440.471
446.411
451.478
455.71
458.969
460.507
456.241
382.43
375.364
374.781
400.739
342.87
258.372
276.532
454.411
460.062
445.801
430.352
262.321
140.303
138.485
136.368
134.921
173.42
313.78
337.674
211.477
148.78
145.112
166.878
280.775
359.075
402.083
418.784
428.64
430.446
438.12
443.832
445.781
448.358
450.153
429.65
416.855
437.083
462.738
465.199
466.068
399.322
386.057
379.805
396.032
396.11
245.117
257.362
440.99
471.508
455.346
437.797
250.389
130.17
128.667
126.309
128.043
308.713
438.308
440.118
438.057
379.099
236.079
208.089
382.766
410.637
415.265
398.634
400.687
462.176
418.31
361.089
333.792
319.404
307.476
303.359
297.192
303.758
403.95
472.486
472.973
418.369
396.668
388.129
390.892
386.81
199.385
226.564
431.903
471.006
456.892
441.759
284.898
117.016
116.064
114.114
111.179
213.025
411.103
441.08
445.56
448.663
382.384
269.977
277.822
296.664
382.951
458.048
468.879
471.889
453.546
397.627
407.395
387.103
337.803
296.522
298.02
297.365
406.368
482.179
482.039
377.063
352.233
373.555
369.799
206.164
97.8534
169.764
412.224
452.324
448.592
441.781
322.971
103.555
103.693
103.114
101.859
102.4
218.625
422.733
444.166
450.544
455.894
354.733
288.34
339.811
467.938
472.108
474.175
475.347
474.85
474.617
475.456
478.187
474.231
416.435
319.885
323.563
482.908
490.139
491.428
63.9993
59.1261
80.0059
61.9027
19.896
43.9867
165.072
402.84
414.75
439.241
438.037
346.034
93.4109
94.7127
94.9611
94.548
93.5237
94.0662
247.529
447.485
452.718
456.8
457.384
443.616
458.066
469.171
470.107
470.617
470.665
470.554
472.024
475.203
480.313
486.908
493.152
476.524
475.184
497.294
500.173
502.387
2.66115
-0.0187486
-0.629494
0.448864
2.24593
39.6583
312.111
406.262
424.218
440.022
441.052
273.479
87.1401
88.3778
89.0737
89.2052
88.4932
87.3403
89.0656
185.924
393.928
458.983
463.703
464.813
465.065
465.005
458.431
430.625
471.567
473.189
475.401
479.662
486.014
493.207
500.399
503.993
506.096
508.721
511.12
504.836
-0.0529679
-0.707412
-0.609788
-0.422891
2.20808
178.113
407.696
431.236
441.704
449.394
453.477
332.077
85.2117
85.0877
86.0106
89.9474
89.5461
87.0029
83.5156
82.0833
102.484
271.563
463.054
473.14
474.533
423.236
392.054
393.42
452.001
480.273
483.144
487.194
490.538
431.138
451.556
513.956
515.289
447.423
403.442
393.643
2.35357
1.64777
1.58489
2.72083
132.997
417.214
434.118
420.386
440.761
463.696
469.189
453.324
168.863
83.0256
83.9016
86.402
88.6198
87.6914
82.8783
81.2201
80.202
98.7627
367.248
486.715
490.355
432.037
396.764
396.017
395.349
449.063
489.386
451.61
402.69
409.547
415.25
391.951
394.999
393.557
392.947
392.052
4.94156
4.4726
4.89693
158.092
428.241
451.805
453.767
439.998
471.923
479.398
484.654
473.46
185.359
81.6734
82.819
83.7126
88.6065
88.2508
87.1115
81.6596
80.7023
79.917
190.26
495.016
501.22
498.418
416.274
397.748
393.484
451.595
482.136
485.658
482.228
487.55
502.135
509.847
518.087
522.473
513.004
389.766
6.3599
29.5429
294.796
459.574
466.656
471.667
477.217
459.875
491.273
497.214
461.02
393.3
297.606
108.424
83.4232
84.0776
85.7448
89.0232
85.7778
82.5104
81.7991
81.2009
84.8066
362.208
510.979
508.642
433.548
455.763
469.895
478.81
476.846
479.836
485.164
491.318
499.064
506.138
512.002
517.317
510.801
402.283
132.449
428.59
481.069
483.522
486.987
491.182
494.729
500.535
506.231
512.053
477.404
352.574
293.116
129.349
85.5038
85.5796
85.4943
85.1574
84.6796
84.0266
83.3058
82.6077
81.9305
300.778
507.289
476.564
440.167
463.032
486.203
479.803
466.356
469.36
485.356
489.947
497.944
504.042
509.002
514.681
500.992
487.996
466.291
500.226
500.632
502.365
504.814
508.37
512.53
517.2
521.709
525.896
529.717
431.921
300.699
183.611
88.1973
86.6926
86.5582
86.2945
85.8413
85.1893
84.4389
83.9293
113.238
410.087
523.698
476.126
449.092
454.389
494.113
490.304
486.316
483.673
396.138
271.628
362.264
494.685
516.8
520.887
522.879
524.263
453.869
511.257
512.704
516.462
519.783
523.389
527.618
531.801
535.722
539.304
542.265
543.266
498.056
478.073
418.543
308.516
260.506
249.62
237.535
241.156
276.105
327.146
428.836
533.159
531.067
525.508
513.108
518.965
516.316
514.843
514.652
449.398
309.227
117.419
27.093
59.4704
380.336
523.57
529.24
531.12
303.24
337.933
313.433
400.702
446.118
534.449
541.736
544.941
547.106
549.66
552.585
554.002
554.437
554.327
554.32
553.695
543.568
535.326
542.721
551.87
560.503
560.235
555.693
549.346
543.611
539.371
536.329
538.533
540.372
479.763
274.711
3.72741
1.32808
1.46601
1.93178
52.3713
456.187
539.375
542.426
542.704
19.231
1.51791
2.7027
44.3228
106.149
251.846
408.874
466.307
489.746
485.44
507.312
494.316
445.126
414.106
391.206
440.774
495.974
533.471
566.761
572.237
571.423
568.094
565.309
561.833
558.212
513.451
420.334
277.595
79.5462
1.50153
1.04222
1.24853
1.36282
1.37464
1.51917
185.922
551.76
559.597
561.146
560.515
1.42589
1.40603
1.45597
2.23953
2.52422
5.8007
37.7094
77.7177
93.2295
77.4228
94.2422
102.863
75.4595
51.4423
37.2262
54.909
111.959
172.179
228.916
260.062
294.536
310.144
306.707
260.258
162.873
74.6422
3.76026
1.5045
1.45331
1.39049
1.06565
1.07813
1.12161
1.35075
81.5705
454.728
521.014
578.7
579.88
582.248
1.36586
1.33516
1.28133
1.22176
1.18569
1.1578
1.24352
1.19654
1.51156
1.28251
1.16281
1.10094
1.1249
1.0895
1.49963
1.27779
1.51513
1.64489
1.40965
1.83115
4.05614
5.27977
4.87221
4.40985
4.5995
2.33401
2.26981
2.26645
1.35365
0.953122
0.967515
0.977399
0.928926
5.72835
117.508
163.091
221.689
353.67
537.225
603.278
1.67861
1.45716
1.21224
1.1714
1.13246
1.11363
1.1162
1.10937
1.40864
1.19326
1.08505
0.980744
0.815557
0.736292
0.676666
0.623946
0.729639
1.61902
1.26374
0.875764
0.687198
0.644896
0.634004
0.626176
2.9654
1.94327
1.55333
1.58559
3.38582
1.01488
0.902444
0.882654
0.817483
4.35736
22.2838
0.877525
1.0448
22.3832
174.566
341.816
1.60175
1.56809
1.543
1.51134
1.48951
1.46649
1.15864
1.07704
1.12483
1.32123
1.30804
0.993882
0.776541
0.717013
0.676664
0.641571
0.638622
1.59771
1.64203
0.993101
0.641439
0.632016
0.628963
0.632969
1.32649
1.70548
1.61669
2.06059
12.8148
5.65609
0.836134
0.794275
0.727168
3.2566
4.0588
0.679159
3.44399
15.5811
18.4494
19.825
0.965681
1.38179
1.52789
1.49628
1.38346
0.842196
0.759456
1.09168
1.28641
1.27867
1.26594
1.18801
0.728335
0.692682
0.662955
0.638733
0.622792
1.48967
1.67907
0.799995
0.620194
0.619661
0.62154
0.629058
0.643313
2.28778
4.24826
12.8761
13.0323
12.8866
6.16185
0.894229
0.730676
1.01661
0.664677
0.501622
0.442357
3.99126
15.2987
22.0149
0.81218
0.826712
0.930691
0.896538
0.767952
0.712377
0.703819
0.669172
0.828227
1.27859
1.03238
0.728077
0.695086
0.669086
0.639094
0.614925
0.606053
0.889349
0.818575
0.662844
0.66898
0.617621
0.59354
0.595891
0.588185
1.31122
4.80821
13.1027
13.1587
12.0221
6.14631
3.14157
2.58358
1.51069
0.536574
0.506709
0.487132
0.49427
3.09076
13.4991
0.75522
0.746329
0.731326
0.711345
0.689442
0.666633
0.640558
0.616304
0.909482
1.2279
1.23747
1.24201
1.22992
0.679564
0.597586
0.578487
0.566005
0.554636
0.553293
0.555747
0.558137
0.831203
0.900694
0.545901
0.530633
0.502708
1.22812
5.96732
13.3193
3.36982
3.7348
3.79344
3.99906
4.08839
3.97742
1.33087
0.580291
0.582068
2.77152
10.7926
0.715665
0.713226
0.701715
0.684066
0.660518
0.630438
0.592882
0.553597
0.525735
0.903642
1.16284
1.16588
1.16093
1.14015
1.11326
1.07707
0.954707
0.531043
0.495014
0.494646
0.481238
0.832434
1.09782
1.1024
0.634225
0.500049
0.46911
0.469718
1.52979
2.25923
0.978977
0.82609
2.67329
4.13475
4.18269
4.12105
1.1584
0.558761
0.553244
5.12069
0.690953
0.680732
0.668649
0.651752
0.633269
0.667849
0.622765
0.526149
0.479708
0.455099
0.997784
1.06555
0.695358
0.463076
0.723935
0.956073
0.943281
0.941586
0.686125
0.403342
0.384526
0.951038
1.04879
1.06484
1.07159
0.699517
0.453139
0.445175
0.446527
1.00151
0.744648
0.529037
0.515065
0.549763
1.91646
3.52541
1.02313
0.531377
0.540333
4.13147
0.655771
0.641992
0.644065
0.707718
0.886718
1.00549
0.953418
0.54205
0.403444
0.372656
0.514824
0.501154
0.354457
0.339213
0.316949
0.295964
0.514829
0.854913
0.722374
0.298028
0.297066
0.634754
0.989519
1.01963
1.0384
1.06586
0.535815
0.431371
0.445091
0.552434
0.739951
0.511652
0.463627
0.459726
0.460402
1.90516
1.08553
0.527501
0.531117
4.10311
0.609126
0.794883
1.01704
1.0091
0.970362
0.922794
0.86306
0.577744
0.404383
0.349677
0.314441
0.383556
0.451968
0.429919
0.301019
0.165404
0.172442
0.466502
0.431405
0.193924
0.209935
0.236542
0.877371
0.979031
1.00649
1.04221
0.614885
0.411514
0.44031
0.460843
0.534143
0.499079
0.476849
0.480107
0.47975
0.556508
0.884049
0.528674
0.534774
6.71496
0.714249
1.06955
1.03526
0.906011
0.675739
0.532209
0.49205
0.570979
0.511283
0.453675
0.402382
0.345568
0.324931
0.307845
0.0895382
0.062976
0.089644
0.253873
0.281893
0.120392
0.137145
0.172667
0.7264
0.942742
0.965526
0.944602
0.44672
0.399866
0.432332
0.453218
0.464363
0.48403
0.487822
0.493523
0.497424
0.495448
0.505768
0.528371
0.747015
18.9199
1.03617
1.00265
0.75838
0.403231
0.378944
0.445327
0.546233
0.481945
0.419497
0.307506
0.125315
-0.0136199
-0.0297743
-0.0227738
-0.0213322
-0.00184301
0.0234962
0.200705
0.203273
0.0472252
0.0757503
0.112009
0.650734
0.901907
0.750641
0.402684
0.336195
0.376951
0.413763
0.436913
0.453298
0.522281
0.478198
0.490978
0.498618
0.499761
0.500583
0.608699
7.63683
19.3669
0.985389
0.883715
0.370181
0.355008
0.578358
0.551991
0.486865
0.421947
0.188505
-0.0146094
-0.043633
-0.0385518
-0.00571573
-0.0222403
0.0551778
0.0867491
0.112168
0.0507659
0.0188625
0.0141359
0.0474337
0.125938
0.275399
0.355382
0.23664
0.264381
0.315704
0.360081
0.429557
0.674668
0.576325
0.485965
0.483627
0.761721
0.574259
0.509754
0.929195
3.4605
6.03585
14.5695
0.947719
0.749555
0.323149
0.337836
0.575997
0.526568
0.465426
0.305994
0.0178327
-0.0151129
0.0536583
0.174724
0.15793
0.148863
0.150535
0.159612
0.0245895
-0.0495354
-0.0221821
0.016609
0.0616851
0.0976935
0.121653
0.166134
0.216922
0.264959
0.303398
0.97731
1.61849
1.31859
0.460841
0.464394
0.752373
1.49645
2.00772
3.13142
3.45656
3.36604
1.63065
1.62559
0.637231
0.98395
0.269221
0.248839
0.424354
0.530065
0.473098
0.130535
0.0435236
0.022346
0.207664
0.20767
0.189317
0.179265
0.179978
0.188303
0.0362999
-0.0324861
-0.00911654
0.0365274
0.0709677
0.0940382
0.13421
0.175938
0.215225
0.252504
0.695507
1.54873
1.57762
0.570799
0.389481
0.488352
0.877329
1.47822
3.23558
3.24449
3.17421
1.40568
1.12578
1.12835
0.606997
0.975223
0.473152
0.230781
0.232127
0.510765
0.322154
0.098244
0.0700159
0.0408605
0.0137713
0.111692
0.230643
0.220251
0.220056
0.22606
0.0367866
-0.00519156
0.0121451
0.0502981
0.0684372
0.0948928
0.128229
0.164211
1.14899
3.54426
2.78647
0.588987
0.511372
0.286828
0.292675
0.41598
0.426484
0.685652
2.2735
2.18458
0.594814
0.630488
1.07895
1.10878
0.539612
0.974543
0.758274
0.223336
0.20775
0.183665
0.178084
0.121261
0.0953711
0.0695878
0.0457915
0.0255649
0.0241568
0.0428298
0.0838397
0.162368
0.0658503
0.0261661
0.0387585
0.0537965
0.0703327
0.0914527
0.150954
2.62612
3.82811
3.77527
2.20491
0.26092
0.25176
0.237456
0.214617
0.196743
0.364445
0.860974
0.733219
0.192952
0.209171
0.221936
0.226022
0.35126
0.484276
0.985871
0.966611
0.24285
0.221389
0.203263
0.176129
0.145638
0.120558
0.0974576
0.0765336
0.0593504
0.0467414
0.0403639
0.0399015
0.0477562
0.0681426
0.0649548
0.0709162
0.0790862
0.0828549
0.197649
2.68336
3.86444
3.89665
3.90505
2.11295
0.260936
0.239555
0.204536
0.161119
0.122715
0.137333
0.278151
0.209749
0.13665
0.159519
0.177911
0.187596
0.189456
0.447524
0.996443
1.00706
0.618368
0.243154
0.230913
0.344457
0.383598
0.14792
0.123509
0.105839
0.0915533
0.0825816
0.0789072
0.0802819
0.0848318
0.0909928
0.0986558
0.104854
0.105644
0.1063
0.369451
3.54068
3.95178
3.96382
3.97823
3.94742
0.758331
0.243026
0.209382
0.173466
0.134765
0.113367
0.114818
0.137411
0.129196
0.130628
0.172571
0.150546
0.156655
0.438088
1.00643
1.01754
0.794502
0.262691
0.259102
0.584984
1.01917
0.3868
0.150268
0.136446
0.123017
0.115745
0.114393
0.117522
0.124101
0.132713
0.140384
0.14189
0.137339
0.135182
0.235792
1.31445
2.40768
2.73425
2.54803
3.10546
3.8991
3.14884
0.486475
0.232716
0.203934
0.173896
0.155188
0.684337
0.257106
0.16759
0.180803
0.136791
0.141089
0.375605
0.748681
1.01319
0.849457
0.267227
0.267974
0.789779
1.04014
1.01363
0.316532
0.156997
0.148052
0.144275
0.145211
0.149616
0.158556
0.171103
0.181166
0.182799
0.175499
0.164481
0.171368
0.148894
0.169998
0.192046
0.191017
0.618456
3.94109
5.32704
5.3045
3.541
4.12686
4.38833
5.45431
4.10519
0.460886
0.183406
0.166014
0.137592
0.142567
0.503956
0.386676
0.822495
0.951831
0.486177
0.250914
0.353595
1.05044
1.04033
1.02905
1.00899
0.336436
0.158787
0.164461
0.188702
0.256738
0.257691
0.207812
0.21485
0.209039
0.194306
0.177118
0.164809
0.159842
0.160161
0.159741
0.190302
0.917311
4.25697
5.71858
5.71644
5.74017
5.77952
5.77303
3.33872
0.163838
0.19921
0.178538
0.143491
0.145751
0.517983
0.208852
0.405741
0.916844
0.921654
0.297688
0.228052
0.220811
0.612302
1.01931
1.01896
1.02303
1.01666
0.912806
0.536336
1.09357
1.10963
1.09483
0.645444
0.314731
0.216586
0.214324
0.187802
0.168263
0.161884
0.157607
0.188628
0.221372
0.454302
1.90189
3.40292
4.06329
3.5278
2.04452
0.257025
0.154052
0.259786
0.212889
0.148864
0.151167
0.258294
0.0989554
0.109428
0.48129
0.895533
0.870146
0.307527
0.176578
0.167838
0.246702
0.481834
0.740472
0.56042
0.290155
0.784882
1.06653
1.07672
1.09305
1.11303
1.1243
0.91279
0.22113
0.169075
0.163467
0.158978
0.154466
0.168729
0.144563
0.138173
0.129557
0.149091
0.166839
0.162194
0.151068
0.148702
0.155092
0.272961
0.220444
0.151433
0.152155
0.0395907
0.0590965
0.0712129
0.0846885
0.348387
0.71785
0.71198
0.388779
0.143413
0.136944
0.132326
0.132337
0.135673
0.118515
0.146297
0.198917
0.285525
0.843179
1.08397
1.09956
0.623663
0.157359
0.156559
0.154875
0.152545
0.149945
0.146953
0.143436
0.139414
0.135077
0.130718
0.126954
0.1376
0.148777
0.181805
0.282017
0.287168
0.225425
0.147735
0.180793
0.0203473
0.0363428
0.0479677
0.0557521
0.0624744
0.190039
0.601506
0.823459
0.606256
0.124542
0.122704
0.119163
0.115198
0.106542
0.104659
0.1065
0.111844
0.39154
1.09444
0.891374
0.138766
0.142176
0.143509
0.143687
0.143312
0.142884
0.142307
0.14136
0.139719
0.137261
0.133839
0.130385
0.128763
0.247308
0.278581
0.2808
0.283169
0.170858
0.144012
0.310191
0.00981427
0.0201752
0.0289817
0.0355632
0.0418109
0.0478942
0.128048
0.758768