/*--------------------------------*- C++ -*----------------------------------*\
  =========                 |
  \\      /  F ield         | OpenFOAM: The Open Source CFD Toolbox
   \\    /   O peration     | Website:  https://openfoam.org
    \\  /    A nd           | Version:  8
     \\/     M anipulation  |
\*---------------------------------------------------------------------------*/
FoamFile
{
    version     2.0;
    format      ascii;
    class       surfaceScalarField;
    location    "1.9";
    object      phi;
}
// * * * * * * * * * * * * * * * * * * * * * * * * * * * * * * * * * * * * * //

dimensions      [0 3 -1 0 0 0 0];

internalField   nonuniform List<scalar> 
18095
(
1.95385e-08
-1.71948e-07
1.52409e-07
2.31767e-08
-1.98217e-07
1.94579e-07
2.01673e-08
-2.05863e-07
2.08873e-07
1.10978e-08
-2.10548e-07
2.19617e-07
-6.69633e-11
-2.1308e-07
2.24245e-07
-1.058e-08
-2.13574e-07
2.24088e-07
-1.9574e-08
-2.10823e-07
2.19817e-07
-2.31005e-08
-2.05814e-07
2.0934e-07
-1.95578e-08
-1.98171e-07
1.94629e-07
-1.71961e-07
1.52403e-07
1.55513e-08
-1.87499e-07
1.5755e-08
-1.98421e-07
1.20122e-08
-2.0212e-07
6.72427e-09
-2.0526e-07
7.25929e-10
-2.07082e-07
-6.07036e-09
-2.06778e-07
-1.1985e-08
-2.04908e-07
-1.57319e-08
-2.02067e-07
-1.55269e-08
-1.98376e-07
-1.87488e-07
6.85474e-09
-1.94354e-07
8.27579e-09
-1.99842e-07
7.14261e-09
-2.00987e-07
3.68416e-09
-2.01801e-07
-5.40331e-10
-2.02858e-07
-4.53712e-09
-2.02781e-07
-7.24692e-09
-2.02198e-07
-8.27697e-09
-2.01037e-07
-6.85218e-09
-1.99801e-07
-1.9434e-07
4.55721e-09
-1.98911e-07
4.67364e-09
-1.99959e-07
3.71595e-09
-2.00029e-07
2.27292e-09
-2.00358e-07
2.46813e-10
-2.00832e-07
-1.7958e-09
-2.00739e-07
-3.56839e-09
-2.00426e-07
-4.68834e-09
-1.99917e-07
-4.5664e-09
-1.99923e-07
-1.98907e-07
1.08879e-09
1.13021e-09
1.10072e-09
7.42541e-10
-8.89987e-11
-8.27751e-10
-1.25341e-09
-1.1703e-09
-1.0932e-09
-2.63843e-08
-1.97018e-07
2.23402e-07
-2.89473e-08
-1.98751e-07
2.01314e-07
-2.42459e-08
-2.01506e-07
1.96804e-07
-1.33982e-08
-2.00986e-07
1.90138e-07
-2.42701e-10
-2.01655e-07
1.885e-07
1.32203e-08
-2.01977e-07
1.88514e-07
2.39028e-08
-2.01104e-07
1.90422e-07
2.85782e-08
-2.01397e-07
1.96722e-07
2.5999e-08
-1.98677e-07
2.01256e-07
-1.96929e-07
2.22928e-07
-1.00416e-08
-1.86977e-07
-1.56487e-08
-1.93144e-07
-1.46911e-08
-2.02463e-07
-7.32619e-09
-2.08351e-07
-5.09143e-10
-2.08472e-07
6.22528e-09
-2.08711e-07
1.36048e-08
-2.08484e-07
1.50265e-08
-2.02819e-07
9.80711e-09
-1.93458e-07
-1.87122e-07
-1.0681e-08
-1.76295e-07
-8.28939e-09
-1.95535e-07
-5.74087e-09
-2.05012e-07
-4.48758e-09
-2.09604e-07
-4.45635e-10
-2.12514e-07
3.90123e-09
-2.13058e-07
6.42246e-09
-2.11005e-07
8.90654e-09
-2.05303e-07
1.09387e-08
-1.9549e-07
-1.76183e-07
-6.78758e-09
-1.69508e-07
-8.83538e-09
-1.93488e-07
-8.00701e-09
-2.0584e-07
-1.98419e-09
-2.15627e-07
2.49825e-09
-2.16997e-07
6.11729e-09
-2.16677e-07
9.72812e-09
-2.14616e-07
9.47287e-09
-2.05048e-07
7.01693e-09
-1.93034e-07
-1.69166e-07
-1.70984e-08
-1.60069e-08
-1.29746e-08
-8.98442e-09
-1.73583e-09
5.67436e-09
1.08754e-08
1.5168e-08
1.67627e-08
3.01501e-08
-1.58778e-07
1.28628e-07
3.5775e-08
-2.00375e-07
1.9475e-07
3.0709e-08
-2.12196e-07
2.17262e-07
2.02785e-08
-2.16819e-07
2.27249e-07
4.97779e-09
-2.17763e-07
2.33064e-07
-1.19489e-08
-2.173e-07
2.34227e-07
-2.80017e-08
-2.15086e-07
2.31139e-07
-3.85628e-08
-2.0897e-07
2.19531e-07
-3.4412e-08
-1.97188e-07
1.93037e-07
-1.55525e-07
1.21113e-07
1.55413e-08
-1.74319e-07
1.72254e-08
-2.02059e-07
1.27818e-08
-2.07752e-07
5.05124e-09
-2.09088e-07
-4.09675e-09
-2.08615e-07
-1.30385e-08
-2.08359e-07
-1.92414e-08
-2.08883e-07
-2.15305e-08
-2.06681e-07
-1.79284e-08
-2.0079e-07
-1.73453e-07
1.06889e-08
-1.85008e-07
9.98024e-09
-2.0135e-07
8.37081e-09
-2.06143e-07
4.33168e-09
-2.05049e-07
4.84337e-10
-2.04768e-07
-3.58872e-09
-2.04286e-07
-8.2971e-09
-2.04175e-07
-1.01392e-08
-2.04839e-07
-1.04855e-08
-2.00444e-07
-1.83939e-07
7.44397e-09
-1.92452e-07
5.99525e-09
-1.99901e-07
6.06634e-09
-2.06214e-07
1.64559e-09
-2.00628e-07
6.3058e-11
-2.03185e-07
-1.76555e-09
-2.02457e-07
-7.01038e-09
-1.9893e-07
-6.68386e-09
-2.05165e-07
-7.80564e-09
-1.99322e-07
-1.91744e-07
3.09505e-08
3.2363e-08
2.29533e-08
1.2463e-08
-2.2227e-09
-1.61656e-08
-2.46742e-08
-3.31179e-08
-3.11838e-08
-1.14119e-06
-7.91538e-08
1.22035e-06
-1.02484e-06
-1.16353e-07
-9.03093e-07
-1.21748e-07
-7.91047e-07
-1.12046e-07
-7.11277e-07
-7.97701e-08
-6.84574e-07
-2.67027e-08
-6.94254e-07
9.67995e-09
-7.12906e-07
1.86525e-08
-6.70391e-07
-4.25147e-08
-1.11235e-07
-5.59156e-07
-1.25618e-06
-8.95285e-08
1.26655e-06
-1.22984e-06
-1.42689e-07
-1.2068e-06
-1.4479e-07
-1.21545e-06
-1.03394e-07
-1.25126e-06
-4.39668e-08
-1.27734e-06
-6.17887e-10
-1.24479e-06
-2.2868e-08
-1.10529e-06
-1.20854e-07
-9.04771e-07
-2.43029e-07
-3.53771e-07
-6.62235e-07
-1.61171e-06
-1.10973e-07
1.63316e-06
-1.56209e-06
-1.92316e-07
-1.46509e-06
-2.41787e-07
-1.30294e-06
-2.65538e-07
-1.10581e-06
-2.41097e-07
-8.61492e-07
-2.44939e-07
-6.26417e-07
-2.57943e-07
-3.84753e-07
-3.62517e-07
-2.0812e-07
-4.19662e-07
-5.11366e-07
-5.05249e-08
-9.831e-07
-2.45693e-07
1.11782e-06
-8.25569e-07
-3.49847e-07
-6.78603e-07
-3.88753e-07
-5.25389e-07
-4.18753e-07
-3.61125e-07
-4.05361e-07
-1.90605e-07
-4.15459e-07
-5.8573e-08
-3.89975e-07
3.85878e-08
-4.59678e-07
1.51873e-07
-5.32948e-07
-6.63382e-07
3.03889e-07
-4.1148e-07
-3.42614e-07
5.08401e-07
-3.56715e-07
-4.04612e-07
-3.01119e-07
-4.44348e-07
-2.39643e-07
-4.80229e-07
-1.70066e-07
-4.74937e-07
-9.76108e-08
-4.87914e-07
1.44593e-08
-5.02044e-07
1.05098e-07
-5.50316e-07
2.16309e-07
-6.44159e-07
-8.58579e-07
4.11506e-07
-2.86617e-07
-3.90052e-07
3.34054e-07
-2.37301e-07
-4.53929e-07
-1.80963e-07
-5.00686e-07
-1.38605e-07
-5.22587e-07
-9.17106e-08
-5.21832e-07
-4.46612e-08
-5.34964e-07
2.42618e-08
-5.70968e-07
1.14655e-07
-6.40709e-07
3.01692e-07
-8.31196e-07
-1.04706e-06
4.90168e-07
-2.1916e-07
-3.78028e-07
2.07137e-07
-2.33056e-07
-4.40033e-07
-1.93759e-07
-5.39983e-07
-1.44349e-07
-5.71996e-07
-1.07154e-07
-5.59027e-07
-7.31704e-08
-5.68947e-07
-2.20921e-08
-6.22046e-07
6.90102e-08
-7.31812e-07
2.21391e-07
-9.83576e-07
-1.10674e-06
2.81075e-07
-2.26474e-07
-3.62593e-07
2.11039e-07
-2.45096e-07
-4.21412e-07
-1.85117e-07
-5.99962e-07
-1.32299e-07
-6.24814e-07
-9.4823e-08
-5.96503e-07
-6.50843e-08
-5.98686e-07
-4.12322e-08
-6.45898e-07
-7.39781e-09
-7.65646e-07
1.40151e-08
-1.00499e-06
-1.0916e-06
-1.12308e-09
2.02724e-07
-3.42987e-07
-2.22331e-07
1.48121e-07
-3.66808e-07
6.42304e-08
-5.16072e-07
5.06473e-08
-6.11231e-07
2.10265e-08
-5.66883e-07
-9.65302e-09
-5.68007e-07
-4.18015e-08
-6.1375e-07
-7.14485e-08
-7.35999e-07
-1.03021e-07
-9.73417e-07
-1.08708e-06
-1.07546e-07
4.31615e-07
-3.34451e-07
-4.40152e-07
4.16674e-07
-3.51867e-07
3.29315e-07
-4.28713e-07
2.84771e-07
-5.66687e-07
2.10179e-07
-4.92291e-07
1.13972e-07
-4.71799e-07
1.90438e-08
-5.18822e-07
-6.05221e-08
-6.56433e-07
-1.42448e-07
-8.91491e-07
-1.06384e-06
-1.65686e-07
5.67328e-07
-2.88057e-07
-6.13722e-07
5.16759e-07
-3.01298e-07
4.122e-07
-3.24154e-07
3.19837e-07
-4.74323e-07
2.8519e-07
-4.57644e-07
2.17692e-07
-4.04301e-07
1.20651e-07
-4.21781e-07
1.71077e-08
-5.5289e-07
-9.76203e-08
-7.76763e-07
-9.74241e-07
-1.87217e-07
6.47426e-07
-2.57111e-07
-6.78373e-07
6.08902e-07
-2.62774e-07
5.53704e-07
-2.68956e-07
4.02664e-07
-3.23284e-07
3.40303e-07
-3.95282e-07
2.83961e-07
-3.4796e-07
2.31937e-07
-3.69757e-07
1.32258e-07
-4.53211e-07
-1.63564e-08
-6.28149e-07
-8.27801e-07
-1.62796e-07
7.86072e-07
-2.1236e-07
-8.30823e-07
7.31398e-07
-2.081e-07
6.53951e-07
-1.91509e-07
5.25381e-07
-1.94713e-07
4.04828e-07
-2.74729e-07
3.22552e-07
-2.65684e-07
2.78563e-07
-3.25768e-07
2.26814e-07
-4.01462e-07
9.86852e-08
-5.0002e-07
-6.559e-07
-7.32158e-08
8.63229e-07
-1.65465e-07
-9.10124e-07
8.09241e-07
-1.54112e-07
7.43674e-07
-1.25942e-07
6.42004e-07
-9.30435e-08
4.74114e-07
-1.06839e-07
3.4816e-07
-1.39729e-07
2.88697e-07
-2.66305e-07
2.48302e-07
-3.61067e-07
1.68184e-07
-4.19902e-07
-5.03531e-07
1.58149e-08
8.95891e-07
-1.10653e-07
-9.50703e-07
8.24891e-07
-8.31127e-08
7.23571e-07
-2.46217e-08
5.92158e-07
3.83689e-08
4.41334e-07
4.39844e-08
3.31789e-07
-3.01838e-08
2.91118e-07
-2.25634e-07
2.62825e-07
-3.32774e-07
2.29729e-07
-3.86806e-07
-4.21112e-07
1.4731e-07
8.68324e-07
-6.71738e-08
-9.11804e-07
8.08111e-07
-2.28999e-08
6.82535e-07
1.00955e-07
5.60145e-07
1.60759e-07
4.20102e-07
1.84027e-07
3.30093e-07
5.98262e-08
3.08203e-07
-2.03744e-07
3.21e-07
-3.45572e-07
3.37772e-07
-4.03577e-07
-4.27028e-07
3.43688e-07
7.66994e-07
-3.9313e-08
-7.94855e-07
6.87648e-07
5.64461e-08
6.58199e-07
1.30403e-07
6.10692e-07
2.08267e-07
5.57738e-07
2.3698e-07
3.85707e-07
2.31857e-07
3.87035e-07
-2.05072e-07
4.41988e-07
-4.00525e-07
4.80005e-07
-4.41594e-07
-4.5691e-07
5.09886e-07
7.37838e-07
3.81322e-08
-8.15283e-07
6.50767e-07
1.43518e-07
5.60736e-07
2.20433e-07
4.75737e-07
2.93266e-07
2.92557e-07
4.20161e-07
3.84876e-07
1.39537e-07
4.64039e-07
-2.84235e-07
5.13605e-07
-4.50091e-07
5.60674e-07
-4.88663e-07
-4.94347e-07
5.98111e-07
1.98813e-07
2.60018e-07
-4.20699e-07
-1.10661e-07
4.52996e-07
-4.66823e-07
5.76595e-07
-6.2859e-07
4.55032e-07
-4.16633e-07
2.08205e-07
-5.76313e-09
-2.71333e-07
2.96011e-07
-5.86009e-07
4.32993e-07
-5.87073e-07
5.64097e-07
-6.19766e-07
-5.98484e-07
6.68233e-07
-6.4004e-07
6.8828e-07
2.11778e-07
-9.76299e-07
7.89253e-07
-1.08188e-06
6.82176e-07
-7.5193e-07
1.25082e-07
-2.36398e-07
-3.07328e-07
1.46434e-08
-5.22375e-07
1.79294e-07
-7.50659e-07
3.61803e-07
-7.69584e-07
6.02226e-07
-8.60189e-07
-7.98803e-07
8.02545e-07
-7.72116e-07
7.82907e-07
6.77488e-07
-7.94031e-07
8.11172e-07
-5.92782e-07
4.80928e-07
-3.2275e-07
-1.44948e-07
-2.7356e-07
-3.56518e-07
-1.20645e-07
-6.75289e-07
1.75163e-07
-1.04647e-06
4.71466e-07
-1.06589e-06
7.50065e-07
-1.13879e-06
-1.05589e-06
1.00715e-06
-4.27359e-07
7.9616e-07
4.14105e-07
-3.66452e-07
7.50268e-07
-1.22653e-07
2.37129e-07
-1.46493e-07
-1.21108e-07
-1.36515e-07
-3.66497e-07
4.15762e-08
-8.53381e-07
2.8942e-07
-1.29431e-06
6.17964e-07
-1.39443e-06
9.10649e-07
-1.43147e-06
-1.37535e-06
1.23011e-06
2.68177e-07
6.97008e-07
-1.69024e-07
4.63632e-07
5.54814e-07
5.22116e-07
1.78646e-07
4.15505e-07
-1.44976e-08
2.95754e-07
-2.46746e-07
3.50591e-07
-9.08218e-07
4.55421e-07
-1.39914e-06
6.21506e-07
-1.56052e-06
7.83547e-07
-1.59351e-06
-1.55432e-06
9.62521e-07
8.32056e-07
5.03381e-07
-6.38428e-07
9.71831e-07
4.15039e-07
9.52302e-07
1.98176e-07
9.62334e-07
-2.45296e-08
7.78537e-07
-6.29486e-08
6.58344e-07
-7.88025e-07
6.59575e-07
-1.40037e-06
6.7867e-07
-1.57961e-06
6.88457e-07
-1.6033e-06
-1.61157e-06
7.45704e-07
6.248e-07
3.59055e-07
-4.80473e-07
7.04253e-07
3.35587e-07
6.80503e-07
2.21925e-07
6.57959e-07
-1.98246e-09
6.41222e-07
-4.62144e-08
6.87779e-07
-8.34581e-07
7.12648e-07
-1.42524e-06
7.1416e-07
-1.58112e-06
7.01482e-07
-1.59062e-06
-1.40452e-06
4.94432e-07
2.50083e-07
3.27338e-07
-2.18366e-07
2.67312e-07
3.18358e-07
3.38957e-07
1.50279e-07
3.16898e-07
2.00778e-08
4.37395e-07
-1.66711e-07
6.91653e-07
-1.08884e-06
7.5715e-07
-1.49074e-06
7.66544e-07
-1.59052e-06
6.51237e-07
-1.47531e-06
-8.38195e-07
8.49087e-08
-1.9106e-08
3.84415e-07
-3.79711e-08
-7.81853e-08
3.77438e-07
-1.18154e-07
1.90247e-07
-6.45425e-08
-3.35349e-08
4.02509e-07
-6.33762e-07
6.77017e-07
-1.36335e-06
7.50793e-07
-1.56451e-06
7.4595e-07
-1.58568e-06
3.4039e-07
-1.06975e-06
-1.6622e-07
-3.31587e-07
5.19766e-08
4.15058e-07
-8.26197e-08
1.12391e-08
4.18177e-07
-6.99418e-08
2.71426e-07
-1.00463e-07
-3.01238e-09
3.23464e-07
-1.05769e-06
4.74533e-07
-1.51442e-06
5.15641e-07
-1.60562e-06
5.71588e-07
-1.64162e-06
7.16571e-08
-5.69823e-07
1.48277e-07
-2.42836e-07
1.8644e-07
4.12591e-07
-1.83971e-07
2.12713e-07
3.91902e-07
2.42235e-07
2.41905e-07
1.57141e-07
8.20813e-08
2.93359e-07
-1.19391e-06
3.3363e-07
-1.55469e-06
3.65417e-07
-1.63741e-06
5.01262e-08
-1.32634e-06
-4.62067e-07
-5.76304e-08
1.34355e-07
-4.48145e-07
3.2309e-07
3.8872e-07
-2.99218e-07
2.93682e-07
4.2131e-07
3.47348e-07
1.8824e-07
2.34746e-07
1.94681e-07
3.21125e-07
-1.28029e-06
3.69814e-07
-1.60338e-06
3.45139e-07
-1.61273e-06
-3.04528e-08
-9.5074e-07
-2.49894e-07
1.61811e-07
1.2989e-07
-2.45428e-07
5.31472e-07
2.54651e-07
-3.97403e-07
5.34353e-07
4.18428e-07
2.88388e-07
4.34205e-07
1.41736e-07
3.41332e-07
2.14761e-07
-1.35331e-06
2.27376e-07
-1.61599e-06
2.18766e-07
-1.60412e-06
-2.16693e-07
-5.15285e-07
-4.10582e-07
3.55702e-07
2.09905e-08
-3.01684e-07
4.66163e-07
1.83366e-07
-3.94878e-07
5.22127e-07
3.62464e-07
2.61689e-07
6.94642e-07
1.05441e-07
4.97581e-07
1.75925e-07
-1.4238e-06
1.55997e-07
-1.59606e-06
1.30249e-07
-1.57837e-06
-5.28643e-08
-3.32161e-07
-1.73947e-07
4.76785e-07
-6.57648e-08
-8.7192e-08
2.64609e-07
1.65381e-07
-2.46624e-07
1.87316e-07
4.39757e-07
1.02175e-08
8.7174e-07
1.28368e-08
4.94962e-07
4.21041e-08
-1.45306e-06
4.52137e-08
-1.59917e-06
4.24158e-08
-1.57558e-06
1.94307e-07
-4.84053e-07
4.39953e-07
2.31137e-07
6.71519e-08
3.07036e-07
8.56366e-08
9.51555e-08
-1.5411e-08
-5.93552e-08
5.84748e-07
-1.23749e-07
9.36135e-07
-7.32624e-09
3.78539e-07
-1.57615e-08
-1.44463e-06
-4.26243e-08
-1.57231e-06
-4.7062e-08
-1.57114e-06
9.56934e-08
-6.2681e-07
2.83298e-07
4.35321e-08
1.10043e-07
2.40408e-07
1.60388e-08
1.24762e-07
-4.56448e-08
-6.92533e-08
6.7004e-07
7.58317e-09
8.59298e-07
1.47454e-08
3.71378e-07
1.50301e-08
-1.44491e-06
-6.46205e-09
-1.55082e-06
-1.88224e-08
-1.55878e-06
6.58839e-08
-7.11514e-07
1.43613e-07
-3.41973e-08
2.43222e-08
2.29333e-07
-3.48838e-07
2.68351e-07
2.05249e-07
-2.14576e-07
5.35778e-07
1.2798e-08
6.31924e-07
3.8248e-08
3.45928e-07
6.2113e-08
-1.46878e-06
4.28412e-08
-1.53155e-06
3.67497e-08
-1.55269e-06
1.29364e-07
-8.04129e-07
2.39927e-07
-1.44756e-07
2.98953e-08
2.34356e-07
-5.43103e-07
3.96834e-07
4.1462e-07
-6.1802e-07
6.10696e-07
-5.57901e-07
5.71805e-07
1.32604e-07
-3.44576e-07
1.40422e-07
-1.4766e-06
1.67594e-07
-1.55872e-06
1.39067e-07
-1.52416e-06
2.09015e-08
-6.85964e-07
1.65779e-07
-2.89628e-07
-3.40324e-08
2.29708e-07
-5.83159e-07
4.28959e-07
5.51035e-07
-5.83861e-07
6.11396e-07
-5.34938e-07
5.22878e-07
6.96214e-09
-8.86478e-07
3.77437e-08
-1.50738e-06
9.87185e-09
-1.53085e-06
-1.63896e-08
-1.4979e-06
-7.93595e-08
-6.22994e-07
2.13818e-08
-3.90372e-07
-1.73174e-07
1.60523e-07
-2.5638e-07
3.25244e-07
3.60095e-07
-4.83145e-08
4.03333e-07
-2.26577e-07
7.0114e-07
-4.06621e-08
-1.07239e-06
-2.45545e-08
-1.52349e-06
-4.77395e-08
-1.50766e-06
-4.30469e-08
-1.50259e-06
3.30148e-08
-6.99056e-07
3.51031e-08
-3.92463e-07
-2.23888e-07
8.58143e-08
-2.32506e-07
2.4542e-07
3.1233e-07
-8.58842e-08
2.5671e-07
-1.82246e-07
7.97502e-07
3.53563e-08
-1.28999e-06
2.24416e-08
-1.51057e-06
2.52133e-08
-1.51043e-06
1.98713e-08
-1.49725e-06
5.61928e-08
-7.35378e-07
2.73881e-08
-3.63657e-07
-2.46877e-07
5.03759e-08
-3.51915e-07
2.24176e-07
3.73159e-07
-4.10616e-07
3.1541e-07
-1.65519e-07
5.52404e-07
3.22908e-08
-1.4878e-06
2.85025e-08
-1.50678e-06
2.63436e-08
-1.50827e-06
1.24906e-08
-1.4834e-06
3.50247e-08
-7.57912e-07
4.87117e-08
-3.77341e-07
-2.72031e-07
7.38667e-08
-4.41902e-07
6.17976e-08
6.04278e-07
-3.0872e-07
1.82239e-07
-1.33086e-10
2.43817e-07
2.77402e-08
-1.51568e-06
1.93827e-08
-1.49842e-06
9.37626e-09
-1.49827e-06
1.95456e-10
-1.47421e-06
1.88598e-08
-7.76578e-07
4.59809e-08
-4.04463e-07
-3.03149e-07
7.70982e-08
-7.37927e-07
-8.92138e-08
8.88935e-07
-4.19375e-07
-1.36308e-07
9.85692e-08
-2.74125e-07
4.39974e-08
-1.4611e-06
3.37366e-08
-1.48816e-06
2.70577e-08
-1.49159e-06
2.13164e-08
-1.46847e-06
1.14559e-08
-7.66715e-07
2.64406e-08
-4.19443e-07
-3.40042e-07
6.33381e-08
-3.646e-07
-1.11362e-07
3.86752e-07
-2.77401e-07
-2.23505e-07
2.70091e-08
-5.78534e-07
2.75327e-08
-1.46162e-06
1.638e-08
-1.47701e-06
5.87403e-09
-1.48108e-06
-7.21485e-09
-1.45538e-06
-3.01875e-08
-7.43741e-07
-1.68976e-08
-4.32728e-07
-3.73878e-07
1.69397e-08
-1.40321e-08
-1.30397e-07
3.30698e-08
-2.45444e-08
-2.13001e-07
2.31594e-08
-6.26237e-07
1.84725e-09
-1.44031e-06
-8.95125e-09
-1.46621e-06
-2.87814e-08
-1.46125e-06
-5.44188e-08
-1.42975e-06
-7.84113e-08
-7.19748e-07
-6.40407e-08
-4.47099e-07
-4.00214e-07
-3.77054e-08
7.29613e-08
-2.00434e-07
-2.92442e-09
7.80933e-08
-2.18132e-07
6.62631e-08
-6.14403e-07
2.07996e-08
-1.39485e-06
2.31641e-09
-1.44773e-06
-1.10991e-08
-1.44784e-06
-5.29356e-08
-1.38791e-06
-9.18363e-08
-6.80849e-07
-9.63234e-08
-4.42612e-07
-4.06713e-07
-8.98251e-08
7.54265e-08
-2.57514e-07
-1.83461e-08
8.10616e-08
-2.23763e-07
6.30001e-08
-5.96342e-07
2.27191e-08
-1.35457e-06
2.24055e-09
-1.42725e-06
-1.54357e-08
-1.43016e-06
-5.42761e-08
-1.34907e-06
-9.14982e-08
-6.43626e-07
-1.07687e-07
-4.26424e-07
-3.86888e-07
-1.27512e-07
-2.10112e-08
-2.44751e-07
8.2512e-09
2.80789e-08
-2.72857e-07
3.49963e-08
-6.03255e-07
1.11062e-08
-1.33068e-06
-7.31956e-09
-1.40882e-06
-2.77568e-08
-1.40972e-06
-3.48013e-08
-1.34203e-06
-7.20681e-08
-6.06357e-07
-9.90565e-08
-3.99436e-07
-3.44586e-07
-1.4136e-07
2.8386e-08
-2.45021e-07
-2.81179e-08
5.24343e-08
-2.96919e-07
1.66483e-08
-5.67468e-07
-5.98066e-09
-1.30805e-06
-2.02096e-08
-1.39459e-06
-4.13697e-08
-1.38856e-06
-3.8893e-08
-1.34451e-06
-7.53534e-08
-5.69897e-07
-1.02516e-07
-3.72276e-07
-3.21123e-07
-1.2598e-07
4.19573e-08
-2.99365e-07
1.23869e-08
5.02476e-08
-3.0521e-07
2.82439e-08
-5.45467e-07
2.75228e-08
-1.30733e-06
5.26933e-09
-1.37234e-06
-9.09232e-09
-1.3742e-06
-3.83483e-08
-1.31525e-06
-5.50138e-08
-5.53237e-07
-9.51922e-08
-3.32098e-07
-2.87144e-07
-1.29173e-07
3.75003e-08
-3.67973e-07
3.1108e-08
3.85198e-08
-3.06231e-07
2.85401e-08
-5.35486e-07
1.82669e-08
-1.29706e-06
3.58402e-09
-1.35766e-06
-1.22172e-08
-1.3584e-06
-4.40733e-08
-1.2834e-06
-6.62755e-08
-5.31037e-07
-1.08674e-07
-2.89699e-07
-2.53705e-07
-1.42115e-07
2.32047e-08
-3.99901e-07
8.72533e-09
2.10645e-08
-3.04088e-07
3.63446e-08
-5.50768e-07
1.34177e-08
-1.27413e-06
-1.36492e-09
-1.34287e-06
-1.88652e-08
-1.3409e-06
-3.08047e-08
-1.27146e-06
-4.41204e-08
-5.17725e-07
-7.0841e-08
-2.62981e-07
-2.16773e-07
-1.07776e-07
-3.25806e-08
-3.89614e-07
2.22933e-08
-2.85197e-08
-3.08146e-07
1.30273e-08
-5.9232e-07
1.82596e-08
-1.27937e-06
1.66987e-09
-1.32628e-06
-1.22596e-08
-1.32697e-06
-1.97284e-08
-1.26399e-06
-2.56187e-08
-5.11837e-07
-5.28178e-08
-2.35784e-07
-1.72806e-07
-9.67857e-08
-7.77794e-08
-3.63137e-07
5.13028e-08
-5.14784e-08
-3.34438e-07
9.13311e-10
-6.44702e-07
1.31702e-08
-1.29163e-06
-8.23855e-10
-1.31229e-06
-1.65322e-08
-1.31126e-06
-9.25406e-09
-1.27127e-06
-8.19063e-09
-5.12902e-07
-2.55e-08
-2.18476e-07
-1.57477e-07
-4.08282e-08
-2.84909e-08
-3.50997e-07
1.63507e-08
3.13352e-09
-3.66073e-07
9.19551e-09
-6.50765e-07
1.65702e-08
-1.299e-06
2.43995e-09
-1.29816e-06
-1.01013e-08
-1.29872e-06
2.0476e-09
-1.28342e-06
-8.80232e-09
-5.02053e-07
-1.43294e-08
-2.12951e-07
-1.57681e-07
-1.41256e-08
3.88385e-08
-3.1755e-07
-7.22839e-08
2.94336e-08
-3.56671e-07
1.90805e-08
-6.40409e-07
1.38706e-08
-1.29379e-06
7.01836e-10
-1.28499e-06
-1.15955e-08
-1.28642e-06
-1.02461e-08
-1.28477e-06
-7.78629e-09
-5.04512e-07
-2.28812e-08
-1.97854e-07
-1.58622e-07
-2.1941e-08
9.76048e-08
-2.57301e-07
-1.57853e-07
3.69994e-08
-2.96069e-07
2.52208e-08
-6.28631e-07
1.09383e-08
-1.27951e-06
-5.70531e-09
-1.26835e-06
-1.57169e-08
-1.27641e-06
-2.66323e-08
-1.27385e-06
-2.13782e-08
-5.09768e-07
-3.55215e-08
-1.83712e-07
-1.33726e-07
-6.04178e-08
8.91577e-08
-1.84568e-07
-1.61889e-07
5.31801e-09
-2.12223e-07
-1.23012e-08
-6.11013e-07
-3.18435e-08
-1.25997e-06
-3.68914e-08
-1.2633e-06
-6.08648e-08
-1.25243e-06
-7.36738e-08
-1.26104e-06
-4.56926e-08
-5.3775e-07
-9.50769e-08
-1.34328e-07
-1.05114e-07
-1.23687e-07
7.05342e-08
-1.10211e-07
-1.44891e-07
6.93985e-09
-1.48623e-07
3.31949e-08
-6.3726e-07
1.73875e-08
-1.24416e-06
-1.61153e-09
-1.2443e-06
-5.64136e-09
-1.2484e-06
-2.30258e-08
-1.24366e-06
1.03091e-08
-5.71084e-07
-2.01001e-08
-1.03916e-07
-4.1072e-08
-8.41418e-08
4.11656e-08
-2.00161e-08
-1.31361e-07
-1.80035e-08
-8.94573e-08
1.63329e-08
-6.716e-07
3.28902e-09
-1.23111e-06
-9.1228e-09
-1.23189e-06
-2.41134e-08
-1.23341e-06
-3.80605e-08
-1.22971e-06
2.16297e-09
-6.11307e-07
-1.94994e-08
-8.22532e-08
-4.1191e-09
-5.64519e-08
8.34877e-09
8.51023e-08
-1.13464e-07
-1.79551e-08
-6.31371e-08
1.47025e-08
-7.04259e-07
-1.70575e-10
-1.21624e-06
-1.05539e-08
-1.2215e-06
-2.73476e-08
-1.21662e-06
-3.95394e-08
-1.21752e-06
8.05236e-10
-6.51653e-07
-1.81567e-08
-6.32925e-08
2.43849e-08
-4.666e-08
8.24488e-09
1.67583e-07
-9.07249e-08
7.33019e-09
-6.22121e-08
4.17778e-08
-7.38704e-07
2.99631e-08
-1.20443e-06
1.54386e-08
-1.20698e-06
6.94489e-09
-1.20813e-06
-6.16011e-09
-1.20441e-06
-9.61373e-09
-6.48201e-07
-7.73996e-08
4.49138e-09
6.97813e-08
-1.22796e-07
-1.93631e-08
1.93419e-07
-6.47307e-09
3.60954e-09
-8.51966e-08
2.25651e-08
-7.57662e-07
1.53477e-08
-1.19721e-06
-6.68184e-10
-1.19096e-06
-9.41179e-09
-1.19938e-06
-1.8024e-08
-1.1958e-06
-2.31091e-08
-6.43116e-07
-6.60913e-08
4.74728e-08
1.39303e-07
-1.35613e-07
-2.10346e-08
1.43376e-07
7.10783e-08
2.11944e-08
-1.27426e-07
-4.8215e-09
-7.31643e-07
-2.03328e-08
-1.1817e-06
-2.99949e-08
-1.1813e-06
-5.43743e-08
-1.175e-06
-6.75089e-08
-1.18267e-06
-6.09331e-08
-6.4969e-07
-1.60593e-09
-1.18546e-08
1.54575e-07
-1.68787e-08
-2.00155e-08
2.90804e-08
1.3431e-07
5.334e-08
-2.00783e-07
4.84192e-08
-7.26723e-07
3.01131e-08
-1.16339e-06
6.97556e-09
-1.15816e-06
-7.05701e-09
-1.16097e-06
-2.78469e-08
-1.16188e-06
-6.20777e-08
-6.1546e-07
3.11113e-08
-1.05045e-07
1.47339e-07
3.83455e-08
-7.53792e-09
-7.17732e-08
1.08391e-07
4.12056e-08
-2.49524e-07
3.6872e-08
-7.22389e-07
1.58895e-08
-1.14241e-06
-3.26869e-09
-1.13901e-06
-2.63647e-08
-1.13787e-06
-4.71571e-08
-1.14108e-06
-4.89833e-08
-6.13634e-07
-2.86865e-08
-1.25343e-07
1.15459e-07
3.19203e-09
5.27254e-08
-1.1779e-07
-6.70797e-09
5.36851e-08
-2.50479e-07
3.09127e-08
-6.99615e-07
1.34319e-08
-1.12493e-06
-6.18228e-09
-1.11939e-06
-3.33006e-08
-1.11076e-06
-4.9732e-08
-1.12465e-06
-8.38851e-08
-5.79482e-07
-8.27699e-08
-1.26457e-07
8.97062e-08
-5.7017e-08
2.93547e-08
-1.16564e-07
-3.05789e-08
4.92787e-08
-2.70402e-07
6.40681e-08
-7.14403e-07
5.77014e-08
-1.11856e-06
2.56963e-08
-1.08739e-06
1.04212e-08
-1.09548e-06
-2.91665e-10
-1.11394e-06
-1.79096e-08
-5.61866e-07
4.56865e-08
-1.90053e-07
5.24182e-08
8.29744e-08
2.34283e-08
-1.19158e-07
-2.08346e-08
3.1545e-08
-2.78518e-07
3.53409e-08
-7.18199e-07
2.27073e-08
-1.10593e-06
7.32828e-10
-1.06541e-06
-2.6719e-08
-1.06803e-06
-3.72899e-08
-1.10337e-06
-1.34875e-08
-5.8567e-07
-1.01806e-08
-1.93359e-07
2.2812e-08
1.94251e-08
1.49577e-08
-1.29868e-07
-4.24921e-09
1.62485e-08
-2.79811e-07
3.72092e-08
-7.39161e-07
1.88429e-08
-1.08756e-06
-1.97925e-09
-1.04459e-06
-2.66383e-08
-1.04337e-06
-4.28114e-08
-1.08719e-06
-1.76795e-08
-6.10802e-07
-4.67408e-08
-1.64295e-07
2.17112e-09
-2.60991e-08
4.10413e-09
-1.38748e-07
4.776e-09
6.83797e-09
-2.82547e-07
3.84768e-08
-7.70804e-07
1.66189e-08
-1.0657e-06
-1.08425e-09
-1.02689e-06
-1.94183e-08
-1.02504e-06
-4.33133e-08
-1.0633e-06
-3.12999e-08
-6.22815e-07
-1.03879e-07
-9.17164e-08
-6.41734e-08
-3.75332e-08
5.6015e-09
-1.43748e-07
-6.0164e-10
9.85608e-09
-2.868e-07
3.53977e-08
-7.96345e-07
1.36292e-08
-1.04394e-06
-5.95109e-10
-1.01266e-06
-1.37589e-08
-1.01187e-06
-3.55419e-08
-1.04152e-06
1.59399e-08
-6.74297e-07
3.27272e-08
-1.08504e-07
-9.5615e-08
6.41696e-08
1.93322e-08
-1.51183e-07
-1.19e-08
2.37709e-08
-2.91244e-07
3.2893e-08
-8.05466e-07
1.22588e-08
-1.0233e-06
3.24343e-09
-1.00365e-06
-8.54482e-09
-1.00008e-06
-2.70989e-08
-1.02296e-06
3.09035e-08
-7.32298e-07
1.39367e-07
-2.16968e-07
-1.16368e-07
1.6012e-07
3.72458e-08
-1.60954e-07
-2.74762e-08
4.53886e-08
-2.99394e-07
4.88535e-08
-8.08932e-07
2.92924e-08
-1.00374e-06
1.51841e-08
-9.89539e-07
8.32723e-09
-9.93227e-07
-1.13236e-08
-1.00331e-06
-2.21551e-08
-7.21466e-07
-1.907e-08
-2.20055e-07
-1.1365e-07
-2.17892e-08
4.87301e-08
-1.67006e-07
-4.26768e-08
4.91309e-08
-2.99797e-07
2.76165e-08
-7.87418e-07
7.85738e-09
-9.83982e-07
-3.13847e-09
-9.78543e-07
-1.83827e-08
-9.77983e-07
-3.75985e-08
-9.84096e-07
-6.98363e-08
-6.89227e-07
-1.27833e-07
-1.62061e-07
-9.88025e-08
-1.42681e-07
6.21628e-08
-1.71544e-07
-5.76248e-08
6.17415e-08
-2.99375e-07
3.73632e-08
-7.6304e-07
1.86381e-08
-9.65257e-07
7.61036e-10
-9.60666e-07
-1.62361e-08
-9.60986e-07
-3.47599e-08
-9.65573e-07
-5.2692e-08
-6.71296e-07
-1.10854e-07
-1.039e-07
-5.88744e-08
-1.50783e-07
6.65689e-08
-1.71542e-07
-6.65715e-08
6.30984e-08
-2.95901e-07
3.25618e-08
-7.32502e-07
1.44418e-08
-9.47135e-07
-5.61524e-09
-9.40609e-07
-2.62016e-08
-9.40399e-07
-4.56127e-08
-9.46162e-07
-7.48024e-08
-6.42106e-07
-1.04546e-07
-7.41567e-08
-5.85973e-08
-1.04824e-07
7.13354e-08
-1.6894e-07
-7.39377e-08
6.55319e-08
-2.90097e-07
3.93098e-08
-7.06281e-07
2.20385e-08
-9.29864e-07
-2.5194e-09
-9.16051e-07
-2.7128e-08
-9.15791e-07
-4.23195e-08
-9.30971e-07
-3.57484e-08
-6.48677e-07
1.52845e-08
-1.25189e-07
-3.55468e-08
-7.76634e-09
7.4838e-08
-1.63521e-07
-8.02547e-08
6.2819e-08
-2.7808e-07
4.37599e-08
-6.87224e-07
2.47638e-08
-9.10869e-07
-1.31306e-09
-8.89974e-07
-2.76845e-08
-8.89419e-07
-4.62905e-08
-9.12364e-07
-5.76565e-08
-6.37311e-07
-4.91783e-08
-1.33667e-07
-2.81229e-08
-5.66027e-08
7.39415e-08
-1.55188e-07
-8.22766e-08
5.76616e-08
-2.61803e-07
5.09401e-08
-6.80504e-07
3.13208e-08
-8.91251e-07
2.44165e-09
-8.61095e-07
-2.47965e-08
-8.62181e-07
-4.38433e-08
-8.93318e-07
-5.18177e-08
-6.29337e-07
-6.85219e-08
-1.16961e-07
-5.3133e-08
-4.35118e-08
7.16403e-08
-1.4297e-07
-8.38603e-08
4.93413e-08
-2.39506e-07
4.68534e-08
-6.78017e-07
2.49136e-08
-8.69312e-07
-1.05022e-09
-8.35131e-07
-2.58105e-08
-8.37421e-07
-4.76368e-08
-8.71491e-07
-3.61377e-08
-6.40836e-07
-1.84475e-08
-1.3465e-07
-7.66031e-08
5.02305e-09
8.77894e-08
-1.21608e-07
-1.09152e-07
5.65953e-08
-2.08318e-07
4.87502e-08
-6.70172e-07
2.35287e-08
-8.44091e-07
-1.02456e-09
-8.10578e-07
-2.39973e-08
-8.14448e-07
-4.82664e-08
-8.47222e-07
-3.44418e-08
-6.54662e-07
-2.24642e-08
-1.46627e-07
-5.13872e-08
-4.76796e-08
8.75414e-08
-8.78359e-08
-1.21314e-07
5.90443e-08
-1.79824e-07
4.66868e-08
-6.57814e-07
2.03262e-08
-8.1773e-07
-6.47772e-11
-7.90187e-07
-2.0355e-08
-7.94158e-07
-4.64302e-08
-8.21147e-07
-6.03175e-08
-6.40774e-07
-8.8088e-08
-1.18856e-07
-2.32532e-08
-1.16221e-07
1.05379e-07
-4.99111e-08
-1.43304e-07
6.78911e-08
-1.42336e-07
4.79143e-08
-6.37838e-07
2.23955e-08
-7.92211e-07
1.30809e-09
-7.69099e-07
-2.20294e-08
-7.7082e-07
-4.79634e-08
-7.95213e-07
-6.1898e-08
-6.26839e-07
-8.36312e-08
-9.71228e-08
-7.17119e-09
-9.97126e-08
1.201e-07
-2.65928e-09
-1.67352e-07
7.26631e-08
-9.48949e-08
4.77327e-08
-6.12907e-07
2.2915e-08
-7.67394e-07
1.40583e-09
-7.4759e-07
-2.19681e-08
-7.47446e-07
-4.73096e-08
-7.69872e-07
-6.31673e-08
-6.10981e-07
-7.58996e-08
-8.43911e-08
2.32504e-09
-8.5396e-08
1.28155e-07
4.95009e-08
-1.80315e-07
7.5344e-08
-4.20828e-08
5.05182e-08
-5.88083e-07
2.55146e-08
-7.4239e-07
5.50496e-10
-7.22626e-07
-2.48758e-08
-7.2202e-07
-5.06956e-08
-7.44052e-07
-6.59309e-08
-5.95745e-07
-7.05575e-08
-7.97654e-08
6.55132e-09
-7.47845e-08
1.21429e-07
1.03049e-07
-1.74976e-07
7.37298e-08
5.61412e-09
5.28332e-08
-5.67189e-07
2.64594e-08
-7.16017e-07
-2.44701e-10
-6.95922e-07
-2.57968e-08
-6.96468e-07
-5.34286e-08
-7.1642e-07
-7.02937e-08
-5.7888e-07
-7.15498e-08
-7.85098e-08
4.93589e-09
-6.99348e-08
1.07291e-07
1.52162e-07
-1.56405e-07
7.21971e-08
4.07065e-08
5.69578e-08
-5.5195e-07
2.86835e-08
-6.87743e-07
-8.43492e-10
-6.66395e-07
-2.85633e-08
-6.68748e-07
-5.76252e-08
-6.87358e-07
-7.48286e-08
-5.61677e-07
-6.99736e-08
-8.33651e-08
9.32067e-10
-6.597e-08
9.46006e-08
1.86358e-07
-1.28798e-07
7.67222e-08
5.85855e-08
5.64576e-08
-5.31684e-07
2.61242e-08
-6.5741e-07
3.83589e-10
-6.40654e-07
-2.74142e-08
-6.4095e-07
-5.70774e-08
-6.57695e-07
-7.78823e-08
-5.40872e-07
-6.98542e-08
-9.13927e-08
-3.64793e-09
-6.5274e-08
1.07991e-07
1.73082e-07
-9.4715e-08
8.78939e-08
7.86813e-08
6.17737e-08
-5.05565e-07
3.17085e-08
-6.27344e-07
3.40391e-09
-6.1235e-07
-2.87821e-08
-6.08764e-07
-6.18484e-08
-6.24628e-07
-7.89976e-08
-5.23723e-07
-6.02565e-08
-1.10132e-07
-4.3518e-09
-5.95516e-08
1.79213e-08
1.69602e-07
-1.44413e-08
6.31254e-08
3.34798e-08
5.41808e-08
-4.96621e-07
2.11356e-08
-5.94299e-07
-1.1095e-08
-5.80119e-07
-3.40002e-08
-5.85859e-07
-6.98819e-08
-5.88747e-07
-6.62366e-08
-5.27368e-07
-4.06093e-08
-1.35758e-07
3.85601e-09
-4.88155e-08
-9.218e-08
1.70418e-07
9.13648e-08
1.16609e-08
-7.03573e-08
5.53853e-08
-5.40346e-07
2.14575e-08
-5.60371e-07
4.08871e-09
-5.6275e-07
-2.79884e-08
-5.53782e-07
-5.1775e-08
-5.6496e-07
-2.6529e-08
-5.52613e-07
-2.06276e-08
-1.41659e-07
2.39002e-08
-4.06703e-08
9.29559e-09
1.29736e-07
3.13856e-08
1.34099e-07
-1.95158e-07
1.24286e-07
-5.30535e-07
9.321e-08
-5.29296e-07
5.34175e-08
-5.22958e-07
2.62867e-08
-5.26651e-07
-8.70787e-09
-5.29966e-07
-4.15602e-08
-5.19761e-07
-5.237e-08
-1.30848e-07
3.83342e-08
-6.68025e-08
5.13087e-08
1.03897e-07
-2.54691e-08
1.13061e-07
-2.56903e-07
6.7057e-08
-4.84529e-07
2.94096e-08
-4.91648e-07
-4.70458e-09
-4.88844e-07
-3.90486e-08
-4.92307e-07
-8.11628e-08
-4.87851e-07
-1.31283e-07
-4.6964e-07
-1.09345e-07
-1.52786e-07
2.91446e-08
-1.00154e-07
1.17732e-07
6.37949e-08
-7.76308e-08
1.1233e-07
-2.51508e-07
6.45645e-08
-4.36764e-07
1.93897e-08
-4.46473e-07
-1.62301e-08
-4.53224e-07
-5.30069e-08
-4.5553e-07
-8.78255e-08
-4.53033e-07
-1.13015e-07
-4.4445e-07
-9.61135e-08
-1.69687e-07
2.44155e-08
-9.13844e-08
1.48598e-07
1.62713e-09
-8.64287e-08
1.40718e-07
-2.43618e-07
9.70454e-08
-3.93091e-07
5.88483e-08
-4.08276e-07
1.68036e-08
-4.11179e-07
-3.09617e-08
-4.07765e-07
-8.64721e-08
-3.97523e-07
-1.48606e-07
-3.82316e-07
-1.09745e-07
-2.08548e-07
-1.59313e-09
-8.37373e-08
2.1294e-08
-6.83334e-08
4.86668e-08
1.07962e-07
-3.30284e-07
6.31756e-08
-3.48304e-07
1.58347e-08
-3.60935e-07
-2.77506e-08
-3.67594e-07
-7.17039e-08
-3.63812e-07
-1.13532e-07
-3.55695e-07
-1.56886e-07
-3.38962e-07
-8.97321e-08
-2.75702e-07
-4.71452e-08
-4.41806e-08
2.02029e-07
-1.17094e-07
-1.53266e-07
1.51493e-07
-2.79749e-07
1.06294e-07
-3.03105e-07
5.94173e-08
-3.14059e-07
5.59246e-09
-3.13769e-07
-4.43708e-08
-3.13848e-07