/*--------------------------------*- C++ -*----------------------------------*\
  =========                 |
  \\      /  F ield         | OpenFOAM: The Open Source CFD Toolbox
   \\    /   O peration     | Website:  https://openfoam.org
    \\  /    A nd           | Version:  8
     \\/     M anipulation  |
\*---------------------------------------------------------------------------*/
FoamFile
{
    version     2.0;
    format      ascii;
    class       volScalarField;
    location    "2.6";
    object      alpha.water;
}
// * * * * * * * * * * * * * * * * * * * * * * * * * * * * * * * * * * * * * //

dimensions      [0 0 0 0 0 0 0];

internalField   nonuniform List<scalar> 
9150
(
1
1
1
1
1
1
1
1
1
1
1
1
1
1
1
1
1
1
1
1
1
1
1
1
1
1
1
1
1
1
1
1
1
1
1
1
1
1
1
1
1
1
1
1
1
1
1
1
1
1
1
1
1
1
1
1
1
1
1
1
1
1
1
1
1
1
1
1
1
1
1
1
1
1
0.999999
0.999999
1
1
1
1
1
1
1
1
1
0.999999
1
1
1
1
1
1
1
1
1
1
1
1
1
1
1
1
1
1
1
1
1
1
1
1
1
1
1
1
1
1
1
1
1
1
1
1
1
1
1
1
1
1
1
1
1
1
1
1
1
1
1
1
1
1
1
1
1
1
1
1
1
1
1
1
0.999998
1
1
1
1
1
1
0.999999
0.999999
0.999999
0.999993
0.999999
1
0.999999
0.999998
0.999995
0.999989
0.999989
0.999989
0.99999
1
1
1
1
1
1
0.999994
0.999989
0.999995
1
1
0.999999
0.999999
0.999999
1
1
0.999997
0.999995
1
1
1
1
1
1
1
1
0.999998
0.999997
1
1
1
0.999999
1
1
0.999998
0.999998
0.999998
1
1
1
1
1
1
1
0.999998
0.999998
0.999998
1
1
1
1
1
1
1
0.999998
0.999998
1
1
1
1
1
1
1
1
0.999999
1
1
1
1
0.999999
1
1
1
1
1
0.999998
0.999998
0.999999
1
1
1
1
1
1
1
1
1
0.99996
0.999897
0.999961
1
1
1
1
1
1
1
0.999894
0.99967
0.999788
1
1
1
1
0.999999
1
1
0.999995
0.999734
0.997979
1
1
1
1
0.999999
0.999999
0.999999
0.999999
0.999991
0.997535
1
1
1
1
1
1
1
1
0.999998
0.999558
1
1
1
1
1
1
1
0.999999
0.999999
0.999977
1
1
1
1
1
0.999999
0.999999
0.999999
0.999999
0.999993
1
1
1
1
1
0.999999
0.999999
0.999999
0.999999
0.999986
1
1
1
1
0.999999
0.999999
1
0.999999
0.999999
0.99999
1
1
1
1
1
1
1
1
1
0.999998
1
1
1
1
1
1
1
1
1
0.999996
1
1
1
1
1
0.999999
0.999997
0.999998
0.999999
0.999995
0.999997
0.999998
1
1
1
0.999999
0.999996
0.999996
0.999998
0.999998
0.999997
0.999998
1
1
1
0.999999
0.999996
0.999996
0.999997
0.999999
0.999997
1
1
1
1
0.999998
0.999996
0.999998
1
1
0.999998
1
1
1
0.999999
0.999999
1
1
1
1
0.999999
1
1
1
0.999999
1
1
1
1
1
1
1
1
1
1
1
0.999999
0.999999
1
1
1
1
1
1
1
0.999999
0.999999
0.999999
1
1
1
1
1
1
0.999999
0.999999
0.999999
1
1
1
1
1
1
1
0.999999
0.999999
0.999999
1
1
1
1
1
1
0.999999
0.999999
1
1
1
1
1
0.999999
0.999999
1
1
1
1
1
1
1
1
1
1
1
1
1
1
1
1
1
1
0.999999
1
1
1
1
1
1
1
1
1
1
1
1
1
1
1
1
1
1
0.999996
1
1
1
1
1
1
1
1
0.999998
0.999958
1
1
1
1
1
1
1
0.999999
0.999976
0.999686
1
1
1
0.999999
1
1
0.999999
0.999993
0.999853
0.94053
0.999995
0.999965
0.999976
1
1
1
0.999999
0.999982
0.998304
0.751048
0.99997
0.999928
0.99993
0.999995
1
1
0.999994
0.999918
0.916197
0.556869
0.999968
0.999928
0.999928
0.99995
1
0.999999
0.999961
0.973329
0.677541
0.561801
0.999991
0.999935
0.999928
0.99996
0.999999
0.999994
0.999527
0.813799
0.587573
0.569
1
0.999987
0.999965
0.999993
0.999994
0.99998
0.967602
0.648526
0.590105
0.687593
1
1
1
1
0.999996
0.9999
0.980541
0.691648
0.595303
0.919988
1
1
1
1
0.999999
0.99997
0.999085
0.904439
0.765581
0.999748
1
1
1
1
1
1
0.999999
0.960085
0.996455
0.999819
0.99871
0.986228
0.95612
0.983414
1
0.999999
0.844179
0.689578
0.999819
0.999821
0.995407
0.820737
0.421509
0.326318
0.46375
0.596158
0.32748
0.096145
0.555423
0.832063
0.999918
0.549815
0.0555927
0.0291075
0.0269677
0.0343099
0.0250946
0.0234845
0.0389532
0.116582
0.999819
0.720841
0.0771567
0.0260749
0.0247479
0.0236029
0.0230904
0.0230417
0.0233249
0.0230857
0.999755
0.999853
0.738827
0.0971071
0.0236835
0.0233826
0.0227704
0.0233506
0.0232425
0.0232226
0.999717
0.999874
0.999954
0.930065
0.66682
0.251703
0.0231796
0.0231157
0.0233765
0.0232383
0.99968
0.999888
0.999963
0.999975
0.999754
0.964851
0.863694
0.698765
0.48935
0.278983
0.998894
0.999832
0.999975
0.999977
0.999978
0.999979
0.999972
0.999949
0.994037
0.965675
0.999809
0.999909
0.999975
0.999978
0.999979
0.999979
0.999979
0.999978
0.999979
0.999977
0.991469
0.999361
0.999752
0.999792
0.99985
0.999942
0.999978
0.999979
0.999979
0.99998
0.868006
0.913355
0.948211
0.962603
0.984093
0.997506
0.999629
0.999955
0.99998
0.999982
0.879843
0.785714
0.783207
0.781799
0.788651
0.92142
0.989435
0.999596
0.999946
0.999903
0.981587
0.980871
0.837134
0.779961
0.780122
0.78056
0.803306
0.972243
0.986442
0.958294
0.951465
0.889991
0.781445
0.780573
0.781143
0.78135
0.948578
0.962452
0.774695
0.737198
0.797119
0.787944
0.784615
0.782766
0.780221
0.891825
0.995134
0.920602
0.746265
0.737236
0.999992
0.971371
0.830093
0.787663
0.893661
0.998654
0.998046
0.997422
0.996901
0.874132
0.999996
0.999992
0.999987
0.999921
0.99967
0.999207
0.998611
0.998006
0.997436
0.995963
0.999994
0.999991
0.99999
0.999753
0.999231
0.998705
0.998062
0.997494
0.996949
0.992346
0.999507
0.999926
0.999252
0.986067
0.943786
0.875668
0.812991
0.760697
0.727146
0.741287
0.99825
0.999788
0.92559
0.685149
0.333113
0.158465
0.0833085
0.0506959
0.0373424
0.0406806
0.99857
0.997223
0.78937
0.435528
0.0431007
0.00853041
0.00304798
0.00122603
0.000642057
0.000469876
0.999993
0.999869
0.913402
0.786902
0.518838
0.0818309
0.00846536
0.00301164
0.00114606
0.000545367
0.999999
0.99999
0.99997
0.999745
0.974819
0.609745
0.157459
0.0101983
0.00325748
0.00110149
1
1
0.999999
0.99999
0.999941
0.999289
0.759305
0.299813
0.0280482
0.0033849
1
1
1
1
1.00001
0.999971
0.999762
0.923741
0.499804
0.0952037
1
1
1
1
1
0.999997
0.999979
0.999724
0.997762
0.710877
1
1
1
1
1
0.999987
0.999979
0.999938
0.99963
0.997569
1
1
1
1
1
0.999951
0.999832
0.99981
0.988916
0.971331
1
1
1
1
1
0.999992
0.999909
0.999879
0.985416
0.871172
1
1
1
1
1
1
0.999999
0.999988
0.999114
0.902557
1.00001
1
1
1
1
1
1
0.999999
0.999993
0.993585
1.00006
1
1
1
1
1
1
0.999999
0.999998
0.999996
1.00001
1
1
1
1
1
0.999999
0.999994
0.999999
0.999999
1.00017
1
1
1
1
1
0.999999
0.999994
0.999999
0.999999
0.999975
0.999998
1
1
1
1
1
0.999994
0.999999
1.00002
0.928217
1.00004
1
1
1
1
1
0.999994
0.999999
1
0.636034
0.99998
0.999999
1
1
1
1
0.999998
0.999999
1.00001
0.492689
0.998969
0.999828
0.999997
1
1
1
1
0.999999
0.992208
0.444803
0.988746
0.999853
0.999997
1
1
1
0.999998
0.999998
0.878339
0.445141
0.991414
0.999982
1
1
1
1
0.999998
0.999998
0.803081
0.533603
0.997655
0.999992
1
1
1
1
1
0.999999
0.74148
0.610354
0.999666
0.999996
1
1
1
1
1
0.999998
0.681623
0.66238
0.999896
0.999998
1
1
1
1
0.999997
0.999995
0.638264
0.695328
0.99996
0.999999
1
1
1
1
0.99999
0.999989
0.612317
0.71309
0.999545
0.999998
1
1
1
1
0.999986
0.997905
0.605273
0.716418
0.999252
0.999998
1
1
1
1
0.999989
0.999445
0.621226
0.711037
0.999809
1
1
1
1
1
0.999998
0.999977
0.649088
0.747038
0.999991
1
1
1
1
1
1
0.999977
0.688121
0.781871
0.999992
1
1
1
1
1
1
1.0001
0.733091
0.823657
1.00003
1
1
1
1
1
1
0.99999
0.782648
0.864001
1
1
1
1
1
1
1
0.999996
0.833989
0.908089
1
1
1
1
1
1
1
1
0.891367
0.95277
1
1
1
1
1
1
1
1
0.947619
0.999996
0.999991
0.999991
0.999991
0.999991
0.999994
1
1
0.999999
0.999998
0.999998
0.999998
0.999998
0.999999
1
1
1
1
1
1
0.999998
0.999998
0.999999
1
1
1
1
1
1
0.999999
0.999999
1
1
1
1
1
1
1
1
0.996681
0.999999
0.999999
0.999998
0.999998
0.999999
0.999999
1
1
1
1
1
1
1
1
1
1
1
1
1
1
0.999999
0.999999
1
1
1
1
0.999999
0.999999
0.999999
1
1
1
1
1
1
1
1
1
1
0.996682
0.999999
0.999999
0.999999
0.999999
0.999999
1
1
1
1
0.999999
0.999999
0.999999
1
1
1
1
0.999999
0.999999
0.999999
1
1
1
1
1
1
1
1
1
1
1
1
1
1
1
1
1
1
1
1
0.997053
1
1
1
1
1
1
1
1
1
1
1
1
1
1
0.999999
0.999999
0.999999
1
1
1
1
1
1
1
1
1
1
1
1
1
1
1
1
1
1
1
1
1
1
0.99948
1
1
1
1
1
1
1
0.999999
0.999999
0.999999
0.999999
1
1
1
1
1
1
1
1
1
1
1
1
1
1
0.999999
0.999999
0.999999
1
1
1
1
0.999994
0.999982
1
1
1
1
1
0.999999
1
1
1
1
1
0.999999
0.999998
0.999999
1
1
1
1
1
1
1
1
1
1
1
1
1
1
1
0.999999
0.999997
0.999997
0.999997
0.999997
0.999999
1
1
1
0.999979
0.999707
0.999784
1
1
1
1
0.999999
0.999999
0.999999
0.999999
0.999999
0.999999
0.999999
0.999998
0.999999
1
1
1
1
1
1
1
1
1
1
1
1
1
0.999999
0.999994
0.999993
0.999993
0.999999
1
1
1
1
1
1
0.999997
0.998595
0.988347
0.991533
1
1
1
1
1
1
1
0.999999
0.999998
0.999998
0.999999
1
1
1
1
0.999999
0.999996
0.999999
1
1
1
1
1
1
0.999999
0.999993
0.999993
0.999993
0.999998
1
1
1
1
1
1
1
0.999996
0.999834
0.951647
0.854462
0.881208
0.958244
0.995427
0.985908
0.999996
0.999993
0.999995
1
1
1
0.999999
0.999999
1
1
1
0.999997
0.999996
0.999998
1
1
1
1
1
1
0.999999
0.999993
0.999993
0.999993
0.999998
1
1
1
1
1
1
1
1
0.999999
0.946486
0.830023
0.82937
0.829249
0.829128
0.829212
0.999964
0.999945
0.999945
0.999976
1
1
0.999999
0.999998
1
1
0.999998
0.999996
0.999996
0.999999
1
1
1
1
1
1
1
0.999998
0.999993
0.999993
0.999993
0.999999
1
1
1
1
1
1
1
1
1
1
0.910373
0.82973
0.82926
0.829127
0.999991
0.999985
0.999976
0.999997
1
1
0.999996
0.999995
0.999996
1
1
0.999997
0.999996
1
1
1
1
1
0.999999
0.999996
0.999997
1
0.999999
0.999994
0.999993
0.999995
0.999998
0.999996
0.999998
1
1
1
1
1
1
1
1
1
0.997357
0.976268
0.999991
0.999991
0.999988
0.999984
0.999999
1
0.999999
1
1
1
1
0.999998
0.999998
1
1
1
1
1
0.999997
0.999983
0.999983
1
1
1
1
0.999994
0.999992
0.999992
0.999996
1
1
1
1
1
1
1
1
1
1
1
0.998637
0.999991
0.999991
0.999739
0.999425
0.999815
1
1
1
1
0.999986
0.999974
0.999979
0.999999
1
1
1
1
0.999991
0.999981
0.999981
0.999988
1
1
1
0.999996
0.999992
0.999993
1
1
1
1
1
1
1
0.999997
0.999979
1
1
1
0.990534
0.998211
0.999987
0.999714
0.999425
0.999481
1
1
1
1
0.999937
0.999762
0.999826
1
1
1
1
1
0.999992
0.999981
0.999981
0.999981
0.999998
1
1
0.999999
0.999998
0.999999
1
1
1
1
1
1
1
0.999997
0.999776
0.999614
0.999996
1
0.986553
0.979961
0.999983
0.999885
0.999425
0.999425
0.99989
1
1
0.99988
0.999761
0.999762
0.99978
0.999998
1
1
1
1
1
0.999987
0.999981
0.999982
0.999997
1
1
1
1
1
1
1
1
1
1
1
0.999999
0.999999
0.999729
0.998429
0.999181
0.999631
0.985625
0.97292
0.99937
0.999979
0.999612
0.99944
0.999949
1
1
0.999885
0.999762
0.999761
0.999762
0.999889
0.999971
0.999885
0.99995
1
1
0.999997
0.999985
0.999991
1
1
1
1
1
1
1
1
1
1
1
1
0.999999
0.999995
0.999909
0.998406
0.996285
0.99746
0.987007
0.973227
0.999979
0.999981
0.999866
0.999793
0.999999
1
0.999988
0.999967
0.999957
0.999959
0.999962
0.99996
0.998221
0.996205
0.998972
1
1
0.999998
0.999997
1
1
1
1
1
1
1
1
1
1
1
1
0.999999
0.999999
0.999969
0.999334
0.996802
0.995056
0.995056
0.987016
0.926735
0.987941
0.999995
0.999996
0.999995
0.999993
0.999929
0.999847
0.999958
0.999985
0.999985
0.999983
0.998043
0.996203
0.996202
0.996205
0.997756
1
1
0.999997
1
1
1
1
1
1
1
1
1
1
1
1
1
1
0.999925
0.996923
0.995058
0.995056
0.995056
0.998911
0.793635
0.540795
0.953876
0.999996
0.999996
0.999986
0.999856
0.999847
0.999847
0.999951
0.999984
0.999849
0.996902
0.996202
0.9962
0.996202
0.996205
0.997669
1
1
1
1
1
1
1
1
1
1
1
1
1
1
1
1
0.999889
0.996629
0.995061
0.995058
0.995056
0.999881
0.758876
0.380544
0.543741
0.999996
0.999996
0.999995
0.999904
0.999847
0.999847
0.999847
0.999939
0.999995
0.99984
0.997407
0.996199
0.996203
0.996202
0.997995
1
1
1
1
1
1
1
1
1
1
1
1
1
1
1
1
1
0.999498
0.998258
0.997261
0.995284
0.999673
0.856729
0.378144
0.316301
0.69231
0.999996
0.999996
0.999995
0.999939
0.999847
0.999851
0.999974
0.999995
0.999995
0.999994
0.999877
0.997897
0.997127
1
1
1
1
1
1
1
1
1
1
1
1
1
1
1
1
1
0.999999
0.999998
0.999998
0.999998
0.999684
0.999789
0.982546
0.596014
0.316301
0.318705
0.749114
0.999996
0.999996
0.999995
0.999976
0.999971
0.999994
0.999996
0.999987
0.999982
0.999985
0.999999
1
1
0.999999
0.999998
0.999999
1
1
1
1
1
1
1
1
0.999999
0.999998
0.999999
0.999999
0.999997
0.99999
0.999998
0.999998
0.999997
0.999996
0.999982
0.999759
0.917891
0.410797
0.312076
0.322587
0.756106
0.999996
0.999996
0.999996
0.999996
0.999996
0.999996
0.999993
0.999056
0.997489
0.997105
0.999833
1
0.999999
0.999997
0.999996
1
1
1
1
0.999995
0.999987
0.999995
0.999994
0.999985
0.999949
0.999961
0.999974
0.999589
0.99867
0.999998
0.999994
0.999986
0.999994
0.999999
0.999982
0.999303
0.75533
0.312135
0.311536
0.32414
0.766427
0.999996
0.999996
0.999996
0.999996
0.999996
0.999992
0.992955
0.95908
0.967538
1
1
0.999998
0.999967
0.99995
0.999992
1
1
0.999999
0.999883
0.998528
0.995567
0.995914
0.997511
0.986809
0.974351
0.986281
0.991107
0.997777
0.999326
0.998978
0.996521
0.999979
0.999999
0.999997
0.999925
0.974697
0.515027
0.311596
0.310995
0.335551
0.82162
0.999996
0.999996
0.999996
0.99999
0.993649
0.953338
0.950791
0.961655
1
1
0.999993
0.999947
0.999944
0.999969
1
0.999999
0.999979
0.992834
0.958254
0.938139
0.939143
0.946304
0.928906
0.929395
0.940332
0.98737
0.999289
0.99717
0.982006
0.973216
0.992147
1
0.999999
0.999985
0.999726
0.860872
0.346531
0.310947
0.310995
0.395706
0.928468
0.999996
0.999993
0.995984
0.955686
0.950511
0.95051
0.987114
1
1
0.999998
0.999967
0.999944
0.999978
0.999994
0.999965
0.989749
0.942439
0.92897
0.928911
0.928862
0.928862
0.928862
0.928906
0.946137
0.991223
0.99995
0.996492
0.972038
0.97199
0.971995
1
0.999999
0.999997
0.999925
0.989687
0.582935
0.310995
0.310947
0.311139
0.600531
0.999993
0.999931
0.996138
0.954332
0.95051
0.953916
0.999619
1
0.999999
0.999993
0.999977
0.999958
0.999967
0.999896
0.989676
0.938452
0.929084
0.928963
0.93545
0.933736
0.928862
0.92952
0.970947
0.999703
0.999199
0.999955
0.998404
0.985591
0.972023
0.97199
1
1
0.999999
0.999987
0.999739
0.854179
0.338898
0.311068
0.311188
0.445747
0.994847
0.999867
0.99876
0.962579
0.950552
0.962237
0.999999
1
0.999922
0.999664
0.998712
0.999856
0.999958
0.99906
0.952744
0.929151
0.929144
0.960091
0.998866
0.99617
0.962477
0.983531
1
1
1
0.999957
0.999921
0.999997
0.989958
0.971996
1
1
0.999999
0.999992
0.999836
0.92324
0.410677
0.311188
0.311284
0.500524
0.999828
0.999814
0.999119
0.965222
0.950705
0.976576
0.999999
0.999997
0.997791
0.961
0.934886
0.960497
0.995141
0.995127
0.943066
0.929195
0.965145
1
1
1
1
1
1
1
1
1
1
0.999999
0.999997
0.975745
1
1
0.999999
0.99999
0.999795
0.908261
0.393129
0.311284
0.311559
0.712114
0.999828
0.999828
0.998452
0.964315
0.951046
0.992943
0.999997
0.997266
0.949512
0.909461
0.909439
0.909461
0.952111
0.982679
0.982725
0.979937
1
1
1
1
1
1
1
0.999999
0.999999
1
0.999999
0.999995
0.99979
0.997701
1
1
0.999999
0.99998
0.999626
0.834356
0.324865
0.31156
0.409899
0.972057
0.999828
0.999828
0.997197
0.972693
0.973447
0.997993
0.995086
0.938132
0.909589
0.909439
0.91038
0.935895
0.948291
0.976447
0.999997
0.999999
1
1
1
1
1
1
1
0.999999
0.99999
0.999967
0.999967
0.999928
0.999737
0.999205
1
1
0.999997
0.999952
0.98972
0.586641
0.317134
0.317257
0.795256
0.999828
0.999828
0.999828
0.995844
0.992625
0.992912
0.988831
0.927846
0.909745
0.909559
0.920541
0.97901
0.999999
0.999999
0.996088
0.999456
0.999957
0.99999
1
1
1
1
1
1
0.999999
0.999994
0.999902
0.9996
0.999035
0.999007
0.998517
1
0.999999
0.999981
0.99974
0.824917
0.345667
0.318011
0.624309
0.999804
0.999816
0.999587
0.997442
0.996032
0.994719
0.976116
0.914365
0.90974
0.90974
0.931525
0.99535
0.999999
0.999999
0.999999
0.999999
0.999999
0.99995
0.999976
1
1
1
1
0.999999
1
0.999997
0.999985
0.999801
0.782612
0.736267
0.833384
0.810664
0.999999
0.99999
0.999869
0.914905
0.461574
0.351931
0.533868
0.99953
0.999613
0.997082
0.990658
0.992258
0.996266
0.972954
0.909716
0.909711
0.909726
0.941801
1
0.999997
0.999997
0.999999
0.999999
0.999999
0.999999
0.999998
0.999994
0.999998
0.999998
0.999997
0.999993
0.999991
0.999986
0.999956
0.999769
0.797598
0.304887
0.388219
0.419408
0.273217
0.999994
0.999933
0.958847
0.533888
0.442006
0.485516
0.979696
0.997692
0.997234
0.990673
0.990643
0.996159
0.999863
0.96761
0.909713
0.909728
0.95065
1
1
0.999984
0.999926
0.999996
0.999996
0.999997
0.999998
0.999994
0.999986
0.999976
0.999959
0.999929
0.999846
0.999665
0.999373
0.946961
0.664803
0.21858
0.227452
0.401819
0.292446
0.223684
0.99994
0.980653
0.602836
0.462427
0.48061
0.959328
0.997311
0.996723
0.990692
0.990643
0.994773
1
1
0.99994
0.983583
0.969958
1
1
1
0.999966
0.999739
0.998823
0.998939
0.999914
0.999958
0.999918
0.999799
0.999562
0.99923
0.98755
0.940874
0.825154
0.631654
0.312116
0.128667
0.150858
0.315358
0.403836
0.403327
0.276281
0.994978
0.687789
0.469584
0.471384
0.920785
0.998798
0.997458
0.990781
0.99067
0.997198
1
1
1
1
1
1
1
1
1
0.999973
0.999745
0.997567
0.98632
0.980658
0.997518
0.990898
0.939897
0.83241
0.669187
0.457753
0.274445
0.111675
0.0300368
0.0237215
0.0779808
0.1347
0.239042
0.337456
0.385954
0.258074
0.819716
0.476007
0.469584
0.789325
0.998927
0.998905
0.994715
0.990777
0.996291
1
1
1
1
1
1
1
1
1
0.999999
0.999993
0.999791
0.99709
0.981075
0.958309
0.872871
0.553906
0.295778
0.129949
0.025163
0.00255739
0.00250145
0.00248775
0.00247167
0.00298244
0.00939635
0.0190497
0.00236822
0.0023584
0.00339675
0.127383
0.573473
0.479385
0.654994
0.998927
0.998937
0.998927
0.998147
0.998074
1
1
0.999999
0.999995
1
1
1
1
1
0.999999
0.999992
0.999969
0.999762
0.997962
0.984114
0.92655
0.473457
0.0673114
0.00773631
0.00509645
0.00336523
0.00268474
0.00250561
0.00241637
0.00241393
0.00276888
0.0023398
0.00233026
0.0023479
0.00232906
0.00233167
0.0376284
0.528543
0.530203
0.945152
0.998937
0.998936
0.998932
0.996337
0.996479
0.999987
1
1
0.999979
0.99997
0.999997
0.999999
0.999996
0.999995
0.999977
0.999708
0.99943
0.99926
0.997507
0.992522
0.871118
0.248523
0.0638611
0.0320809
0.0108269
0.00522532
0.00346311
0.00264653
0.00235699
0.00233876
0.00234001
0.00231743
0.00233931
0.00233297
0.00230468
0.00230999
0.0137533
0.528543
0.770876
0.996718
0.997488
0.950628
0.944997
1
0.999961
1
1
1
0.999981
0.999855
0.999856
0.999943
0.999906
0.999884
0.999736
0.992408
0.928988
0.896539
0.979352
0.995415
0.910772
0.65895
0.604448
0.646143
0.481517
0.293082
0.0999617
0.00628003
0.00275008
0.00236236
0.00234239
0.00233985
0.00233766
0.00234807
0.00234845
0.0025588
0.0224809
0.623347
0.994218
0.995686
0.923934
0.858216
0.916767
1
1
1
1
1
0.999978
0.999524
0.998889
0.998437
0.996327
0.978757
0.9499
0.8114
0.51866
0.490346
0.908203
0.995417
0.995415
0.995422
0.995427
0.995321
0.994527
0.956405
0.75145
0.371523
0.0443942
0.00298499
0.00236384
0.00234287
0.00245383
0.00243914
0.00243892
0.00261584
0.0244713
0.807803
0.987155
0.953434
0.855689
0.856446
0.925746
1
1
1
1
0.999996
0.999415
0.994457
0.958723
0.887818
0.743185
0.59578
0.518429
0.43572
0.431251
0.432791
0.847395
0.995414
0.995418
0.995409
0.99534
0.99429
0.994949
0.996329
0.997606
0.99836
0.620389
0.129091
0.0029601
0.00238061
0.00245103
0.00248457
0.00256942
0.00271745
0.015417
0.997079
0.940932
0.855511
0.855593
0.855696
0.9496
1
1
1
0.999982
0.999923
0.977231
0.753441
0.543985
0.414763
0.397634
0.398324
0.39961
0.406048
0.433341
0.682798
0.960414
0.995411
0.995409
0.995697
0.983117
0.946132
0.956476
0.990583
0.998492
0.9996
0.998556
0.789817
0.160765
0.00289389
0.00249482
0.00248527
0.00250318
0.00266607
0.00261614
0.999246
0.909039
0.855586
0.855613
0.860787
0.990482
1
1
0.999998
0.999715
0.962792
0.59869
0.393317
0.393746
0.394124
0.394727
0.430991
0.681487
0.813917
0.896995
0.98008
0.999317
0.994675
0.995313
0.996831
0.974275
0.935099
0.935096
0.935119
0.994153
0.999707
0.999633
0.998694
0.809518
0.143568
0.00289724
0.00249309
0.00250624
0.00250796
0.00251729
0.999781
0.958253
0.872622
0.866338
0.967152
1
1
1
0.999996
0.999839
0.742712
0.394217
0.393746
0.394211
0.394746
0.525507
0.938659
0.999883
0.999883
0.999884
0.999883
0.999883
0.999835
0.999838
0.998355
0.998049
0.95836
0.935099
0.936139
0.95897
0.99971
0.999705
0.999724
0.999364
0.813705
0.167202
0.00290668
0.00249411
0.00251729
0.00252307
0.99982
0.997571
0.987994
0.986024
0.998182
0.999743
1
1
0.999999
0.999993
0.838077
0.432023
0.394217
0.394829
0.584551
0.965794
0.999883
0.999883
0.999884
0.999884
0.999884
0.999883
0.99988
0.999848
0.999796
0.999723
0.999613
0.967866
0.937494
0.974704
0.999709
0.999709
0.999776
0.999894
0.999946
0.909185
0.311058
0.0385142
0.00252373
0.0025355
0.999819
0.999821
0.999752
0.999147
0.997593
0.996947
0.999173
0.999999
0.999995
0.999993
0.999998
0.905364
0.624732
0.690908
0.962658
0.99988
0.999883
0.999883
0.999884
0.999884
0.999883
0.999884
0.999841
0.999772
0.999731
0.999275
0.998683
0.998781
0.998942
0.998042
0.999702
0.999582
0.999581
0.999913
1
0.999999
1.00002
0.781554
0.30699
0.0832664
0.985082
0.999767
0.999708
0.999704
0.997579
0.996759
0.996759
0.999564
0.999993
0.999992
0.999998
0.992119
0.999242
0.999569
0.99972
0.999752
0.999753
0.999855
0.999884
0.999884
0.999884
0.999885
0.997895
0.99691
0.997947
0.998418
0.998345
0.999212
0.99953
0.999608
0.999632
0.999137
0.999129
0.999576
0.999999
0.999999
0.999999
0.999998
0.999988
0.951289
0.224078
0.502689
0.954689
0.9997
0.999136
0.997032
0.996924
0.999295
0.999997
0.999998
0.999998
0.999998
0.977804
0.96539
0.986141
0.998862
0.999221
0.999867
0.999884
0.999884
0.999884
0.966193
0.661256
0.552896
0.608198
0.749709
0.908984
0.993115
0.999194
0.99953
0.999604
0.999275
0.999129
0.999129
0.999995
0.999999
0.999999
0.999999
0.999998
0.999988
0.0235059
0.0238084
0.117311
0.65501
0.999057
0.999647
0.999802
0.999882
0.99999
0.999998
0.999998
0.999998
0.985106
0.850386
0.877617
0.97466
0.999293
0.999838
0.999881
0.999883
0.999884
0.800913
0.164158
0.014416
0.0392586
0.112892
0.262739
0.581656
0.885738
0.997458
0.999357
0.999293
0.999266
0.999432
0.999937
0.999999
0.999995
0.999997
0.999792
0.998073
0.0232425
0.0234323
0.0233547
0.0639725
0.663966
0.997821
0.999673
0.999961
0.999995
0.999998
0.999998
0.999998
0.959857
0.842142
0.842102
0.841034
0.948056
0.997626
0.999805
0.999879
0.999883
0.613466
0.0277724
0.00559802
0.00532796
0.00533818
0.00532362
0.0381461
0.235898
0.66186
0.968088
0.999518
0.999859
0.999908
0.999942
0.999997
0.999929
0.99997
0.999647
0.987295
0.0233765
0.0232714
0.0235078
0.0384795
0.6294
0.994776
0.999312
0.999911
0.999988
0.999997
0.999998
0.999998
0.994033
0.854534
0.84145
0.841341
0.841396
0.945011
0.999478
0.999864
0.999899
0.624179
0.0320999
0.00538615
0.00533382
0.00514835
0.005324
0.00531426
0.00529744
0.0718365
0.458278
0.923244
0.999457
0.999935
0.999969
0.999974
0.999904
0.999929
0.999797
0.987095
0.138987
0.120063
0.19661
0.570756
0.957453
0.998335
0.999744
0.999963
0.999994
0.999998
0.999998
0.999998
0.999998
0.914789
0.842012
0.84145
0.841392
0.907759
0.998506
0.999886
0.999957
0.874021
0.212033
0.00675591
0.00514773
0.0049753
0.00529406
0.00530715
0.00528941
0.00527185
0.0079511
0.349866
0.917969
0.999274
0.999833
0.999914
0.999901
0.999905
0.99999
0.987095
0.913462
0.897397
0.918885
0.969471
0.99411
0.999809
0.999967
0.999808
0.99977
0.999785
0.999952
0.999998
0.999998
0.999997
0.892848
0.842012
0.848515
0.973269
0.99955
0.999962
0.999993
0.999996
0.81663
0.195753
0.00742451
0.00516754
0.00491306
0.00526756
0.00528827
0.00525545
0.00524629
0.00526286
0.373264
0.951551
0.998724
0.999813
0.999915
0.999975
0.99999
0.987153
0.99994
0.999862
0.999703
0.999483
0.999597
0.999921
0.999982
0.999818
0.999761
0.999761
0.999772
0.999974
0.999997
0.999997
0.993811
0.951721
0.965983
0.996741
0.999998
0.999998
0.999998
0.999998
0.999997
0.94478
0.431224
0.0260459
0.00511461
0.00520801
0.00521012
0.00527185
0.00526286
0.00522733
0.011422
0.554745
0.988733
0.999302
0.999895
0.999986
0.99999
0.991262
0.999973
0.999866
0.999896
0.999962
0.999982
0.999982
0.999982
0.999982
0.999975
0.999959
0.999933
0.999959
0.999996
0.999997
0.999998
0.999998
0.999998
0.999998
0.999998
0.999998
0.999998
0.999998
0.999997
0.999997
0.999997
0.918451
0.324675
0.0056366
0.00527663
0.00528774
0.00529358
0.00532838
0.00537149
0.108996
0.815542
0.998101
0.999808
0.999989
0.99999
0.993753
0.999984
0.999985
0.999985
0.999985
0.999985
0.999885
0.999857
0.999856
0.99986
0.999969
0.99999
0.999991
0.999995
0.999998
0.999998
0.999998
0.999998
0.999998
0.999998
0.999998
0.999998
0.999997
0.999994
0.999986
0.999976
0.999976
0.999976
0.965075
0.415853
0.00666271
0.00540943
0.00537016
0.00545406
0.00553411
0.43377
0.982392
0.999657
0.999986
0.999989
0.993962
0.999814
0.999779
0.99982
0.999928
0.999977
0.999972
0.999968
0.99995
0.99981
0.999862
0.999955
0.999996
0.999997
0.999997
0.999997
0.999998
0.999996
0.999993
0.999994
0.999995
0.999943
0.999688
0.999306
0.999262
0.999627
0.999976
0.999976
0.999972
0.999937
0.937223
0.352418
0.00606666
0.00553411
0.00558009
0.157556
0.868832
0.999509
0.999975
0.999987
0.99412
0.950301
0.96784
0.992324
0.999756
0.999966
0.999884
0.999968
0.999949
0.999862
0.999532
0.99973
0.99999
0.999996
0.999997
0.999997
0.999997
0.999997
0.999997
0.995762
0.972831
0.94321
0.944136
0.961004
0.988739
0.999775
0.999952
0.999972
0.999958
0.999947
0.999926
0.999627
0.649017
0.0358794
0.00651979
0.0580963
0.716431
0.998819
0.999944
0.999975
0.994755
0.736786
0.736221
0.911401
0.998615
0.999697
0.999803
0.917347
0.775091
0.898586
0.998008
0.999019
0.995404
0.977739
0.925965
0.923312
0.976918
0.999997
0.999997
0.998576
0.641455
0.335187
0.333046
0.534728
0.939001
0.997774
0.999247
0.998522
0.99979
0.999909
0.999858
0.999834
0.999602
0.57983
0.0269394
0.0472887
0.586855
0.996184
0.999875
0.999943
0.995134
0.736139
0.736493
0.739347
0.962389
0.852259
0.736574
0.733408
0.733025
0.7334
0.895434
0.996321
0.81336
0.521111
0.511607
0.66371
0.968055
0.924902
0.514217
0.334685
0.335051
0.333046
0.331353
0.330767
0.330005
0.330005
0.64014
0.987805
0.999745
0.999858
0.999834
0.99975
0.999675
0.997442
0.317037
0.070009
0.521051
0.991049
0.999764
0.999873
0.99541
0.737236
0.7777
0.964516
0.987006
0.80073
0.735
0.733039
0.733031
0.73303
0.907196
0.982237
0.703219
0.510763
0.50783
0.50783
0.507803
0.50839
0.634667
0.54894
0.330517
0.332035
0.331074
0.330656
0.330349
0.330312
0.33085
0.651585
0.985337
0.992047
0.993631
0.999395
0.999434
0.999085
0.725038
0.128836
0.550397
0.991303
0.999629
0.999758
0.995624
0.954585
0.941275
0.980623
0.992516
0.9931
0.993251
0.993164
0.912435
0.769815
0.777085
0.865408
0.979086
0.987744
0.993788
0.788328
0.508037
0.508459
0.627861
0.928084
0.973076
0.986598
0.722067
0.331074
0.330656
0.33085
0.525049
0.92898
0.993709
0.997741
0.998541
0.994175
0.992806
0.993603
0.850497
0.591312
0.753421
0.987891
0.99964
0.999736
0.99606
0.981828
0.980991
0.984047
0.988744
0.992603
0.993112
0.993276
0.993276
0.99306
0.991663
0.992189
0.994216
0.99452
0.994674
0.991385
0.962408
0.925113
0.93769
0.980591
0.997209
0.99768
0.99265
0.930943
0.76142
0.756433
0.883394
0.992474
0.998237
0.998669
0.998812
0.995673
0.921258
0.906994
0.922277
0.978925
0.977115
0.990212
0.999728
0.999782
0.99782
0.771792
0.789045
0.802531
0.825218
0.858718
0.89576
0.928191
0.951988
0.969259
0.98141
0.991806
0.994525
0.994664
0.994659
0.994673
0.994619
0.994193
0.994458
0.99583
0.99769
0.997879
0.997943
0.997925
0.997877
0.997867
0.996647
0.99683
0.998814
0.998849
0.998866
0.99513
0.906994
0.906994
0.930646
0.993256
0.998278
0.998909
0.999782
0.999788
0.999782
0.04745
0.0573965
0.0725002
0.0939041
0.125339
0.170805
0.223323
0.267862
0.313487
0.396032
0.532736
0.664861
0.741799
0.796457
0.857068
0.916471
0.977361
0.995957
0.997471
0.997871
0.997934
0.997925
0.997941
0.998054
0.998361
0.998635
0.998814
0.998873
0.998861
0.998867
0.998869
0.936452
0.906994
0.957996
0.998313
0.999239
0.999524
0.99959
0.999788
0.999788
0.000425979
0.000417793
0.000421121
0.000425206
0.000425385
0.000425366
0.000427543
0.000433702
0.000440775
0.000448001
0.00137744
0.00808462
0.029004
0.0635549
0.0904232
0.10299
0.158466
0.390083
0.663558
0.710706
0.688625
0.692776
0.780973
0.97226
0.998072
0.998489
0.998807
0.998876
0.998867
0.998874
0.998876
0.988257
0.969156
0.991106
0.997957
0.998398
0.996016
0.999135
0.999792
0.999782
0.000412399
0.000425789
0.000425281
0.000425401
0.000425824
0.000425983
0.000431526
0.000440405
0.000448
0.00062116
0.000941746
0.00150902
0.00155653
0.00194522
0.00236117
0.00243039
0.00247143
0.00464236
0.0195233
0.0358672
0.0451622
0.0502856
0.0804662
0.266007
0.515229
0.538593
0.6383
0.956459
0.998867
0.998874
0.998828
0.998697
0.997691
0.995501
0.948946
0.941575
0.983135
0.999725
0.999796
0.994345
0.000472583
0.000425602
0.000427278
0.000426643
0.000426921
0.00493374
0.0150225
0.0163716
0.0234004
0.0133186
0.00818188
0.00171628
0.002051
0.00240389
0.00243501
0.00243405
0.00243501
0.00247282
0.00286433
0.00397636
0.00472764
0.00534538
0.00571879
0.00653329
0.0152291
0.0152695
0.0686356
0.457892
0.758941
0.906132
0.997645
0.997698
0.996407
0.991084
0.788567
0.807732
0.978973
0.999734
0.999796
0.991174
0.000966874
0.000457322
0.000430861
0.00042852
0.000427978
0.0239468
0.0454483
0.0459069
0.0458803
0.0444186
0.039665
0.0883365
0.0977583
0.0503437
0.00549183
0.00243501
0.00544912
0.0114421
0.00562199
0.00459861
0.00485877
0.00501765
0.00524122
0.00543352
0.00579647
0.00632495
0.00746039
0.03612
0.156316
0.377381
0.719418
0.861153
0.905741
0.836275
0.785822
0.831186
0.985147
0.999604
0.999781
0.991163
0.00467237
0.000937412
0.000468729
0.000431461
0.000429011
0.00043875
0.000451261
0.00220528
0.0245449
0.135177
0.491975
0.770487
0.818578
0.706378
0.421754
0.136482
0.00981911
0.0123122
0.00778923
0.00486007
0.00494861
0.00503628
0.00510219
0.00524221
0.00543744
0.00579877
0.0063252
0.00727091
0.0189381
0.257599
0.537803
0.571771
0.64803
0.733389
0.827377
0.937569
0.994346
0.999806
0.999683
0.991179
0.230846
0.00941928
0.00103972
0.000475401
0.000447411
0.000451274
0.000470889
0.000473157
0.000473831
0.176922
0.883392
0.999927
0.999984
0.999985
0.994498
0.820122
0.289296
0.00958856
0.00815001
0.00665378
0.00504462
0.029628
0.0707027
0.0356274
0.00579865
0.00627368
0.00651784
0.00715117
0.0800852
0.489583
0.744405
0.812081
0.842122
0.910745
0.971566
0.997955
0.998985
0.99986
0.99977
0.999098
0.85816
0.39286
0.0363335
0.00129535
0.000494776
0.000472715
0.000470432
0.000473817
0.000473847
0.328238
0.966102
0.999945
0.999985
0.999986
0.999985
0.999961
0.929528
0.157096
0.0083652
0.0771902
0.0887392
0.383664
0.637336
0.465576
0.104603
0.00651717
0.00687416
0.00848298
0.345193
0.918656
0.984489
0.996027
0.996696
0.997982
0.99903
0.999725
0.999921
0.999869
0.999625
0.997103
0.968659
0.947685
0.588545
0.105999
0.00131689
0.000490339
0.000476053
0.00047397
0.000475125
0.375777
0.977924
0.999931
0.999986
0.999989
0.994798