/*--------------------------------*- C++ -*----------------------------------*\
  =========                 |
  \\      /  F ield         | OpenFOAM: The Open Source CFD Toolbox
   \\    /   O peration     | Website:  https://openfoam.org
    \\  /    A nd           | Version:  8
     \\/     M anipulation  |
\*---------------------------------------------------------------------------*/
FoamFile
{
    version     2.0;
    format      ascii;
    class       surfaceScalarField;
    location    "2.6";
    object      alphaPhi0.water;
}
// * * * * * * * * * * * * * * * * * * * * * * * * * * * * * * * * * * * * * //

dimensions      [0 3 -1 0 0 0 0];

internalField   nonuniform List<scalar> 
18095
(
1.584e-07
-9.65602e-07
8.07202e-07
1.65322e-07
-1.24823e-06
1.24131e-06
1.22142e-07
-1.24225e-06
1.28543e-06
6.52714e-08
-1.2635e-06
1.32037e-06
-3.87008e-11
-1.28048e-06
1.34579e-06
-6.5342e-08
-1.28048e-06
1.34578e-06
-1.22196e-07
-1.26347e-06
1.32033e-06
-1.65355e-07
-1.24223e-06
1.28539e-06
-1.58412e-07
-1.2482e-06
1.24126e-06
-9.65562e-07
8.07149e-07
1.11012e-07
-1.07661e-06
9.93738e-08
-1.23659e-06
7.28187e-08
-1.2157e-06
4.00002e-08
-1.23068e-06
-2.73171e-11
-1.24046e-06
-4.00509e-08
-1.24045e-06
-7.28592e-08
-1.23067e-06
-9.94028e-08
-1.21568e-06
-1.11026e-07
-1.23658e-06
-1.07659e-06
6.71348e-08
-1.14375e-06
5.27248e-08
-1.22218e-06
4.21118e-08
-1.20508e-06
2.38349e-08
-1.2124e-06
-1.84756e-11
-1.2166e-06
-2.38696e-08
-1.2166e-06
-4.21402e-08
-1.2124e-06
-5.2746e-08
-1.20508e-06
-6.7148e-08
-1.22218e-06
-1.14374e-06
3.96043e-08
-1.18335e-06
2.66088e-08
-1.20918e-06
2.19986e-08
-1.20047e-06
1.2511e-08
-1.20291e-06
-1.10018e-11
-1.20408e-06
-1.25318e-08
-1.20408e-06
-2.20158e-08
-1.20291e-06
-2.66217e-08
-1.20047e-06
-3.96138e-08
-1.20918e-06
-1.18335e-06
1.6647e-08
7.46244e-09
6.98938e-09
4.0766e-09
-3.83054e-12
-4.08391e-09
-6.99539e-09
-7.46665e-09
-1.66511e-08
-1.75375e-07
-1.16426e-06
1.33964e-06
-2.19478e-07
-1.21663e-06
1.26073e-06
-1.65615e-07
-1.21297e-06
1.15911e-06
-8.76058e-08
-1.20415e-06
1.12614e-06
-3.91043e-10
-1.20259e-06
1.11537e-06
8.68394e-08
-1.20253e-06
1.1153e-06
1.64919e-07
-1.20398e-06
1.1259e-06
2.18851e-07
-1.21272e-06
1.15879e-06
1.74831e-07
-1.2163e-06
1.26032e-06
-1.16389e-06
1.33872e-06
-9.31647e-08
-1.0711e-06
-9.58924e-08
-1.2139e-06
-7.95093e-08
-1.22935e-06
-4.44622e-08
-1.23919e-06
-2.20854e-10
-1.24683e-06
4.40383e-08
-1.24678e-06
7.9133e-08
-1.23907e-06
9.559e-08
-1.22918e-06
9.2993e-08
-1.2137e-06
-1.07089e-06
-5.79956e-08
-1.0131e-06
-5.52643e-08
-1.21664e-06
-4.66428e-08
-1.23797e-06
-2.72677e-08
-1.25857e-06
-1.33235e-10
-1.27396e-06
2.70141e-08
-1.27393e-06
4.6426e-08
-1.25848e-06
5.5107e-08
-1.23786e-06
5.79185e-08
-1.21651e-06
-1.01297e-06
-7.47569e-08
-9.38343e-07
-6.19719e-08
-1.22942e-06
-4.86445e-08
-1.2513e-06
-2.78582e-08
-1.27935e-06
-8.38606e-11
-1.30174e-06
2.76997e-08
-1.30171e-06
4.85126e-08
-1.2793e-06
6.18822e-08
-1.25123e-06
7.47145e-08
-1.22934e-06
-9.3826e-07
-1.31141e-07
-1.19255e-07
-8.51253e-08
-4.41123e-08
-5.58306e-11
4.40071e-08
8.50385e-08
1.19196e-07
1.31111e-07
-5.55217e-08
-9.4229e-07
9.97812e-07
-1.24722e-09
-1.34172e-06
1.28744e-06
7.37609e-09
-1.273e-06
1.26438e-06
1.51866e-09
-1.22606e-06
1.23191e-06
-3.1306e-09
-1.22394e-06
1.22858e-06
-7.93765e-09
-1.22355e-06
1.22835e-06
-1.32157e-08
-1.22623e-06
1.23151e-06
-7.81027e-09
-1.27418e-06
1.26877e-06
3.91639e-08
-1.34067e-06
1.29369e-06
-9.28373e-07
9.67537e-07
8.05593e-09
-9.50346e-07
1.44567e-08
-1.34812e-06
9.61523e-09
-1.26816e-06
3.65791e-09
-1.2201e-06
-2.65198e-09
-1.21763e-06
-8.97005e-09
-1.21723e-06
-1.49526e-08
-1.22025e-06
-2.157e-08
-1.26756e-06
-1.5285e-08
-1.34695e-06
-9.43658e-07
2.63989e-08
-9.76745e-07
1.75742e-08
-1.33929e-06
8.98701e-09
-1.25957e-06
4.74695e-09
-1.21586e-06
-1.66881e-09
-1.21121e-06
-7.79924e-09
-1.2111e-06
-1.23637e-08
-1.21569e-06
-2.07904e-08
-1.25913e-06
-2.93426e-08
-1.3384e-06
-9.73001e-07
7.80377e-08
-1.05478e-06
5.13302e-08
-1.31258e-06
3.24437e-08
-1.24069e-06
1.97844e-08
-1.2032e-06
-1.04503e-09
-1.19038e-06
-2.18498e-08
-1.19029e-06
-3.47036e-08
-1.20283e-06
-5.36445e-08
-1.24019e-06
-7.98973e-08
-1.31215e-06
-1.0529e-06
2.84853e-07
2.33003e-07
1.51422e-07
7.4358e-08
-6.50766e-10
-7.56491e-08
-1.52585e-07
-2.33988e-07
-2.85819e-07
-6.06714e-08
1.11249e-11
6.066e-08
-6.08157e-08
1.44392e-10
-6.11033e-08
2.87495e-10
-6.15412e-08
4.37857e-10
-6.21321e-08
5.90881e-10
-6.28746e-08
7.42357e-10
-6.37627e-08
8.87923e-10
-6.47857e-08
1.02297e-09
-6.59285e-08
1.14263e-09
1.23968e-09
-6.71682e-08
-6.42955e-08
3.5714e-10
6.39494e-08
-6.47443e-08
5.92577e-10
-6.53001e-08
8.4308e-10
-6.5964e-08
1.10168e-09
-6.67345e-08
1.36118e-09
-6.76053e-08
1.6138e-09
-6.8569e-08
1.85152e-09
-6.96118e-08
2.06565e-09
-7.07171e-08
2.24787e-09
2.3885e-09
-7.18662e-08
-6.48628e-08
8.703e-10
6.43495e-08
-6.54521e-08
1.18146e-09
-6.61207e-08
1.51153e-09
-6.687e-08
1.85079e-09
-6.76981e-08
2.18925e-09
-6.86008e-08
2.51645e-09
-6.95701e-08
2.82132e-09
-7.0597e-08
3.09244e-09
-7.16679e-08
3.31848e-09
3.48723e-09
-7.27666e-08
-6.45301e-08
1.50138e-09
6.38988e-08
-6.52246e-08
1.87569e-09
-6.5985e-08
2.27183e-09
-6.68128e-08
2.67847e-09
-6.77068e-08
3.0833e-09
-6.86638e-08
3.47343e-09
-6.96776e-08
3.83541e-09
-7.07406e-08
4.15537e-09
-7.18415e-08
4.41934e-09
4.61326e-09
-7.29675e-08
-6.36765e-08
2.22326e-09
6.29546e-08
-6.44576e-08
2.6566e-09
-6.53008e-08
3.11504e-09
-6.62081e-08
3.58572e-09
-6.71793e-08
4.05453e-09
-6.82123e-08
4.50641e-09
-6.93024e-08
4.92562e-09
-7.04432e-08
5.296e-09
-7.16251e-08
5.60126e-09
5.82522e-09
-7.2837e-08
-6.24537e-08
3.01541e-09
6.16616e-08
-6.33068e-08
3.50966e-09
-6.42253e-08
4.03346e-09
-6.52121e-08
4.5725e-09
-6.62684e-08
5.11087e-09
-6.73936e-08
5.63143e-09
-6.85842e-08
6.11613e-09
-6.98347e-08
6.54633e-09
-7.11368e-08
6.9033e-09
7.1685e-09
-7.24802e-08
-6.09527e-08
3.85873e-09
6.01093e-08
-6.18634e-08
4.42032e-09
-6.28479e-08
5.01782e-09
-6.3911e-08
5.63546e-09
-6.50556e-08
6.25544e-09
-6.62827e-08
6.85841e-09
-6.75906e-08
7.42371e-09
-6.89743e-08
7.92994e-09
-7.04265e-08
8.35545e-09
8.67881e-09
-7.19368e-08
-5.92416e-08
4.73249e-09
5.83678e-08
-6.01927e-08
5.37113e-09
-6.12298e-08
6.05474e-09
-6.23605e-08
6.76604e-09
-6.35904e-08
7.4852e-09
-6.49224e-08
8.19031e-09
-6.63566e-08
8.85775e-09
-6.78894e-08
9.46267e-09
-6.95138e-08
9.97978e-09
1.0384e-08
-7.1219e-08
-5.73795e-08
5.61206e-09
5.64998e-08
-5.83483e-08
6.33964e-09
-5.94184e-08
7.12477e-09
-6.06012e-08
7.94868e-09
-6.19054e-08
8.78936e-09
-6.33373e-08
9.62205e-09
-6.48991e-08
1.04196e-08
-6.65892e-08
1.11527e-08
-6.84009e-08
1.17915e-08
1.23055e-08
-7.03225e-08
-5.54231e-08
6.46743e-09
5.45676e-08
-5.63804e-08
7.29663e-09
-5.74562e-08
8.20047e-09
-5.86663e-08
9.1588e-09
-6.00244e-08
1.01474e-08
-6.15408e-08
1.11385e-08
-6.32221e-08
1.21008e-08
-6.50696e-08
1.3e-08
-6.70773e-08
1.37991e-08
1.44606e-08
-6.92323e-08
-5.34346e-08
7.26228e-09
5.26397e-08
-5.43432e-08
8.20498e-09
-5.53877e-08
9.24491e-09
-5.65898e-08
1.03609e-08
-5.79692e-08
1.15268e-08
-5.95424e-08
1.27117e-08
-6.13216e-08
1.388e-08
-6.33093e-08
1.49912e-08
-6.55138e-08
1.60028e-08
1.68587e-08
-6.79191e-08
-5.14887e-08
7.95428e-09
5.07967e-08
-5.23035e-08
9.01966e-09
-5.327e-08
1.02114e-08
-5.44171e-08
1.1508e-08
-5.57723e-08
1.2882e-08
-5.73603e-08
1.42997e-08
-5.92016e-08
1.57212e-08
-6.12902e-08
1.70992e-08
-6.36805e-08
1.83824e-08
1.94936e-08
-6.6353e-08
-4.96799e-08
8.49641e-09
4.91378e-08
-5.03488e-08
9.68852e-09
-5.1181e-08
1.10435e-08
-5.22141e-08
1.2541e-08
-5.34855e-08
1.41533e-08
-5.50308e-08
1.58448e-08
-5.68814e-08
1.75717e-08
-5.90626e-08
1.9282e-08
-6.15331e-08
2.09107e-08
2.23627e-08
-6.43594e-08
-4.81306e-08
8.84027e-09
4.77867e-08
-4.85974e-08
1.01551e-08
-4.92317e-08
1.16777e-08
-5.00818e-08
1.33911e-08
-5.11981e-08
1.52696e-08
-5.26311e-08
1.72779e-08
-5.44291e-08
1.93697e-08
-5.6634e-08
2.14869e-08
-5.92779e-08
2.3559e-08
2.54424e-08
-6.2092e-08
-4.69941e-08
8.94027e-09
4.68941e-08
-4.72003e-08
1.03611e-08
-4.75647e-08
1.20421e-08
-4.81465e-08
1.39728e-08
-4.90107e-08
1.61338e-08
-5.02272e-08
1.84944e-08
-5.18674e-08
2.101e-08
-5.39993e-08
2.36189e-08
-5.66789e-08
2.62388e-08
2.87557e-08
-5.97938e-08
-4.64681e-08
8.76371e-09
4.66446e-08
-4.63631e-08
1.02561e-08
-4.63858e-08
1.20648e-08
-4.66028e-08
1.41898e-08
-4.70921e-08
1.66232e-08
-4.79438e-08
1.93462e-08
-4.92587e-08
2.2325e-08
-5.11447e-08
2.55051e-08
-5.37091e-08
2.88033e-08
3.20974e-08
-5.70156e-08
-4.67995e-08
8.30813e-09
4.72551e-08
-4.63617e-08
9.81832e-09
-4.59944e-08
1.16975e-08
-4.5763e-08
1.39584e-08
-4.57483e-08
1.66086e-08
-4.60499e-08
1.96478e-08
-4.67889e-08
2.30641e-08
-4.81108e-08
2.6827e-08
-5.01837e-08
3.08762e-08
3.51026e-08
-5.31879e-08
-4.82686e-08
7.62415e-09
4.89526e-08
-4.75379e-08
9.08762e-09
-4.68024e-08
1.0962e-08
-4.61163e-08
1.32723e-08
-4.55505e-08
1.60427e-08
-4.51979e-08
1.92952e-08
-4.51811e-08
2.30473e-08
-4.56635e-08
2.73094e-08
-4.68655e-08
3.20781e-08
3.73137e-08
-4.90769e-08
-5.11131e-08
6.82313e-09
5.1914e-08
-5.02051e-08
8.17952e-09
-4.92161e-08
9.9729e-09
-4.81808e-08
1.22369e-08
-4.71459e-08
1.50078e-08
-4.61756e-08
1.83248e-08
-4.53602e-08
2.22318e-08
-4.48296e-08
2.67786e-08
-4.47767e-08
3.20252e-08
3.80421e-08
-4.55016e-08
-5.54088e-08
6.05439e-09
5.61774e-08
-5.44905e-08
7.26129e-09
-5.34335e-08
8.91577e-09
-5.22511e-08
1.10545e-08
-5.09607e-08
1.37172e-08
-4.95849e-08
1.69489e-08
-4.81554e-08
2.08022e-08
-4.67197e-08
2.53429e-08
-4.53582e-08
3.06635e-08
3.69012e-08
-4.42172e-08
-6.11091e-08
5.50059e-09
6.16629e-08
-6.04085e-08
6.56088e-09
-5.95761e-08
8.08337e-09
-5.8633e-08
1.01114e-08
-5.76109e-08
1.26951e-08
-5.65567e-08
1.58948e-08
-5.55412e-08
1.97867e-08
-5.46702e-08
2.44719e-08
-5.4094e-08
3.00873e-08
3.68243e-08
-5.40174e-08
-6.77499e-08
5.24559e-09
6.80049e-08
-6.73485e-08
6.15984e-09
-6.68105e-08
7.54541e-09
-6.61476e-08
9.44856e-09
-6.53745e-08
1.19222e-08
-6.45082e-08
1.50286e-08
-6.35637e-08
1.88422e-08
-6.2545e-08
2.3453e-08
-6.14253e-08
2.89678e-08
3.55093e-08
-6.01093e-08
-7.4969e-08
5.33501e-09
7.48796e-08
-7.4912e-08
6.10287e-09
-7.47104e-08
7.34386e-09
-7.43646e-08
9.10281e-09
-7.38721e-08
1.14298e-08
-7.32247e-08
1.43814e-08
-7.24042e-08
1.80219e-08
-7.1374e-08
2.2423e-08
-7.00687e-08
2.76624e-08
3.38173e-08
-6.83764e-08
-8.24481e-08
5.79197e-09
8.19911e-08
-8.27641e-08
6.41859e-09
-8.2935e-08
7.51486e-09
-8.29533e-08
9.12121e-09
-8.28052e-08
1.12818e-08
-8.24685e-08
1.4045e-08
-8.19101e-08
1.74636e-08
-8.10821e-08
2.1595e-08
-7.99196e-08
2.64999e-08
3.22392e-08
-7.83415e-08
-8.98808e-08
6.61657e-09
8.90559e-08
-9.05782e-08
7.11554e-09
-9.11409e-08
8.07751e-09
-9.15563e-08
9.53666e-09
-9.18041e-08
1.15295e-08
-9.18542e-08
1.40952e-08
-9.16662e-08
1.72757e-08
-9.11871e-08
2.1116e-08
-9.03509e-08
2.56637e-08
3.09685e-08
-8.90802e-08
-9.69885e-08
7.79308e-09
9.58116e-08
-9.80633e-08
8.19021e-09
-9.90288e-08
9.04299e-09
-9.98706e-08
1.03783e-08
-1.00566e-07
1.22245e-08
-1.01082e-07
1.46113e-08
-1.01376e-07
1.75701e-08
-1.01395e-07
2.11345e-08
-1.01072e-07
2.5341e-08
3.02279e-08
-1.00331e-07
-1.03492e-07
9.29285e-09
1.01992e-07
-1.04928e-07
9.62654e-09
-1.06294e-07
1.04091e-08
-1.07576e-07
1.166e-08
-1.08751e-07
1.33995e-08
-1.09789e-07
1.56485e-08
-1.10648e-07
1.8429e-08
-1.11278e-07
2.17649e-08
-1.11619e-07
2.56823e-08
3.02098e-08
-1.11601e-07
-1.09109e-07
1.10796e-08
1.07322e-07
-1.1088e-07
1.13973e-08
-1.12628e-07
1.21574e-08
-1.1434e-07
1.33722e-08
-1.15996e-07
1.50546e-08
-1.17565e-07
1.72177e-08
-1.19011e-07
1.98753e-08
-1.20289e-07
2.30426e-08
-1.21343e-07
2.67364e-08
3.09759e-08
-1.22109e-07
-1.13573e-07
1.31184e-08
1.11534e-07
-1.15646e-07
1.34699e-08
-1.17744e-07
1.4256e-08
-1.19854e-07
1.54823e-08
-1.21955e-07
1.71548e-08
-1.24016e-07
1.92795e-08
-1.26004e-07
2.18624e-08
-1.27871e-07
2.49102e-08
-1.29565e-07
2.84299e-08
3.24291e-08
-1.31018e-07
-1.16667e-07
1.53856e-08
1.144e-07
-1.19013e-07
1.58163e-08
-1.21427e-07
1.66699e-08
-1.23891e-07
1.79458e-08
-1.26379e-07
1.96433e-08
-1.28861e-07
2.17615e-08
-1.31298e-07
2.42988e-08
-1.3364e-07
2.72525e-08
-1.35828e-07
3.06182e-08
3.43892e-08
-1.37789e-07
-1.18264e-07
1.78771e-08
1.15773e-07
-1.20871e-07
1.84234e-08
-1.23578e-07
1.93761e-08
-1.26361e-07
2.07288e-08
-1.29192e-07
2.24751e-08
-1.32039e-07
2.46084e-08
-1.34861e-07
2.71206e-08
-1.37611e-07
3.00019e-08
-1.40231e-07
3.32382e-08
3.68099e-08
-1.42651e-07
-1.18338e-07
2.06056e-08
1.15609e-07
-1.21206e-07
2.12911e-08
-1.24191e-07
2.23612e-08
-1.27265e-07
2.38032e-08
-1.30395e-07
2.56054e-08
-1.33543e-07
2.77558e-08
-1.36663e-07
3.02411e-08
-1.39707e-07
3.30454e-08
-1.42614e-07
3.61456e-08
3.95054e-08
-1.4531e-07
-1.16975e-07
2.35866e-08
1.13994e-07
-1.20111e-07
2.44274e-08
-1.23375e-07
2.56244e-08
-1.26731e-07
2.71593e-08
-1.30141e-07
2.90154e-08
-1.33563e-07
3.11777e-08
-1.36955e-07
3.3633e-08
-1.40279e-07
3.63691e-08
-1.43505e-07
3.93716e-08
4.2615e-08
-1.46614e-07
-1.14326e-07
2.68306e-08
1.11082e-07
-1.17738e-07
2.78402e-08
-1.21282e-07
2.91678e-08
-1.2491e-07
3.07876e-08
-1.28571e-07
3.26764e-08
-1.32207e-07
3.48137e-08
-1.35758e-07
3.71839e-08
-1.39168e-07
3.97792e-08
-1.42395e-07
4.25979e-08
4.56378e-08
-1.45417e-07
-1.1055e-07
3.03688e-08
1.07011e-07
-1.14272e-07
3.15627e-08
-1.18132e-07
3.30277e-08
-1.22073e-07
3.47286e-08
-1.26028e-07
3.66321e-08
-1.29922e-07
3.87069e-08
-1.33666e-07
4.09283e-08
-1.37171e-07
4.32841e-08
-1.40354e-07
4.57808e-08
4.8448e-08
-1.43164e-07
-1.05801e-07
3.423e-08
1.01939e-07
-1.09874e-07
3.56359e-08
-1.14107e-07
3.72612e-08
-1.1844e-07
3.90609e-08
-1.22797e-07
4.09897e-08
-1.27091e-07
4.3001e-08
-1.31214e-07
4.50513e-08
-1.35039e-07
4.71085e-08
-1.38424e-07
4.91655e-08
5.12613e-08
-1.41236e-07
-1.00147e-07
3.84301e-08
9.59467e-08
-1.04604e-07
4.00934e-08
-1.09268e-07
4.19245e-08
-1.14079e-07
4.38718e-08
-1.18972e-07
4.58831e-08
-1.23872e-07
4.79014e-08
-1.28687e-07
4.98661e-08
-1.33293e-07
5.17145e-08
-1.37517e-07
5.33891e-08
5.47687e-08
-1.41018e-07
-9.35463e-08
4.29688e-08
8.90077e-08
-9.84062e-08
4.49532e-08
-1.03541e-07
4.7059e-08
-1.08906e-07
4.9237e-08
-1.14467e-07
5.14441e-08
-1.20209e-07
5.36429e-08
-1.26145e-07
5.58024e-08
-1.32328e-07
5.78969e-08
-1.38801e-07
5.98636e-08
6.06303e-08
-1.44662e-07
-8.57543e-08
4.77812e-08
8.09418e-08
-9.09334e-08
5.01319e-08
-9.64103e-08
5.25359e-08
-1.02109e-07
5.49356e-08
-1.0795e-07
5.72846e-08
-1.13856e-07
5.95492e-08
-1.19767e-07
6.17137e-08
-1.25651e-07
6.37818e-08
-1.31368e-07
6.56033e-08
5.7899e-08
-1.14241e-07
-7.67066e-08
5.28452e-08
7.16435e-08
-8.22071e-08
5.56309e-08
-8.80588e-08
5.83806e-08
-9.41399e-08
6.10166e-08
-1.00311e-07
6.34555e-08
-1.06396e-07
6.5634e-08
-1.12186e-07
6.7504e-08
-1.17409e-07
6.90062e-08
-1.18405e-07
6.86152e-08
4.25499e-08
-6.63738e-08
-6.61937e-08
5.81495e-08
6.0892e-08
-7.20793e-08
6.15163e-08
-7.84768e-08
6.47753e-08
-8.52913e-08
6.78265e-08
-9.24113e-08
7.05755e-08
-9.97283e-08
7.2951e-08
-1.07129e-07
7.49048e-08
-1.14073e-07
7.59552e-08
-9.50645e-08
6.24489e-08
4.40621e-08
-7.97702e-08
-5.3513e-08
6.3491e-08
4.81753e-08
-5.95672e-08
6.75703e-08
-6.62453e-08
7.14533e-08
-7.34163e-08
7.49925e-08
-8.08912e-08
7.80504e-08
-8.84274e-08
8.04874e-08
-9.5615e-08
8.20946e-08
-9.1829e-08
7.6145e-08
-7.04235e-08
4.63508e-08
5.26635e-08
-6.19781e-08
-3.86997e-08
6.8756e-08
3.34373e-08
-4.49235e-08
7.3798e-08
-5.20589e-08
7.85885e-08
-6.00017e-08
8.2935e-08
-6.85995e-08
8.66482e-08
-7.76425e-08
8.95297e-08
-8.65498e-08
9.08718e-08
-7.77718e-08
6.34817e-08
-7.67535e-08
5.46467e-08
6.04039e-08
-6.75766e-08
-2.08953e-08
7.35236e-08
1.61279e-08
-2.6886e-08
7.9792e-08
-3.406e-08
8.57674e-08
-4.227e-08
9.11465e-08
-5.12974e-08
9.56751e-08
-6.09036e-08
9.9137e-08
-6.06228e-08
9.80654e-08
-5.37804e-08
6.91398e-08
-5.34163e-08
6.37595e-08
8.29211e-08
-8.33845e-08
-2.5985e-10
7.73841e-08
-3.60068e-09
-5.75813e-09
8.52901e-08
-1.291e-08
9.29194e-08
-2.15038e-08
9.97403e-08
-3.12112e-08
1.05383e-07
-4.18304e-08
1.09779e-07
-4.7776e-08
1.1152e-07
-4.60749e-08
9.09513e-08
-5.45419e-08
8.01258e-08
1.03057e-07
-7.74976e-08
2.34655e-08
7.9634e-08
-2.57154e-08
1.89467e-08
8.98091e-08
1.19834e-08
9.98828e-08
3.06411e-09
1.0866e-07
-7.04731e-09
1.15495e-07
-1.82255e-08
1.20974e-07
-3.05483e-08
1.24791e-07
-3.47932e-08
1.20413e-07
-5.17938e-08
1.19555e-07
1.14124e-07
-6.28503e-08
5.02065e-08
7.9098e-08
-4.96705e-08
4.7563e-08
9.2453e-08
4.08357e-08
1.0661e-07
3.13022e-08
1.18193e-07
2.18417e-08
1.24956e-07
1.22131e-08
1.30602e-07
-5.80135e-10
1.30791e-07
-1.62538e-08
1.16206e-07
-2.70404e-08
1.33314e-07
1.2189e-07
-3.47926e-08
7.90621e-08
7.32008e-08
-7.38668e-08
7.89826e-08
8.44522e-08
7.11784e-08
8.26893e-08
5.78552e-08
9.72937e-08
5.2348e-08
1.30463e-07
5.03795e-08
1.32571e-07
2.74217e-08
8.2433e-08
7.2342e-09
4.84162e-08
2.23427e-09
1.38328e-07
1.24309e-07
-1.73212e-10
1.01856e-07
5.82023e-08
-9.77152e-08
6.26158e-08
5.0671e-08
3.18345e-08
1.24115e-08
4.0887e-08
9.34715e-09
5.2154e-08
7.49353e-09
4.20558e-08
1.78081e-08
1.3105e-08
4.66887e-09
1.58497e-08
4.95376e-09
5.37982e-08
2.38312e-08
5.88991e-08
6.01432e-08
1.2993e-07
3.94944e-08
-1.11521e-07
1.55681e-08
2.67392e-08
3.07463e-09
5.63194e-09
7.82828e-09
2.74721e-09
7.69481e-09
4.947e-09
7.51313e-09
4.87253e-09
5.71917e-09
3.19367e-09
7.23542e-09
3.86457e-09
1.57104e-08
4.75527e-09
4.28248e-09
3.70516e-08
1.37332e-07
2.34449e-08
-1.21421e-07
4.55324e-08
1.88123e-08
7.18105e-09
5.89766e-09
5.897e-09
3.18387e-09
7.11035e-09
3.53052e-09
7.66419e-09
4.69773e-09
8.34629e-09
2.9607e-09
9.13685e-09
4.21762e-09
9.38673e-09
4.01733e-09
4.57296e-09
9.58238e-09
1.4339e-07
1.2562e-08
-1.3272e-07
1.46666e-07
1.54941e-08
5.33415e-08
1.61132e-08
8.5977e-09
8.90401e-09
6.86829e-09
5.36933e-09
7.42794e-09
3.8234e-09
8.42534e-09
3.41349e-09
9.38577e-09
3.21461e-09
1.03487e-08
3.72646e-09
3.57288e-09
1.04315e-08
1.6205e-07
2.52519e-09
-1.52038e-07
1.70437e-07
7.12065e-09
1.73969e-07
1.25831e-08
1.36629e-07
1.94682e-08
5.82441e-08
2.87242e-08
1.921e-08
2.60157e-08
1.01839e-08
1.25683e-08
8.53476e-09
5.80211e-09
9.06824e-09
3.19653e-09
3.47452e-09
9.89206e-09
1.91967e-07
-9.26083e-09
-1.8017e-07
2.03113e-07
-4.0344e-09
2.13534e-07
2.16745e-09
2.23455e-07
9.55115e-09
2.32803e-07
1.82494e-08
2.23948e-07
2.79824e-08
1.87182e-07
3.87005e-08
1.33022e-07
5.12039e-08
7.98739e-08
5.90165e-08
5.26575e-08
4.68577e-08
2.29617e-07
-2.34043e-08
-2.15398e-07
2.4355e-07
-1.79331e-08
2.57371e-07
-1.16495e-08
2.71467e-07
-4.53932e-09
2.86363e-07
3.36021e-09
3.02398e-07
1.19526e-08
3.19922e-07
2.11768e-08
3.40222e-07
3.09063e-08
3.59263e-07
4.02991e-08
4.83312e-08
3.67924e-07
2.7616e-07
-4.05952e-08
-2.5893e-07
2.9297e-07
-3.47188e-08
3.09438e-07
-2.8109e-08
3.25873e-07
-2.09676e-08
3.42764e-07
-1.3525e-08
3.60562e-07
-5.8386e-09
3.79607e-07
2.13693e-09
4.00176e-07
1.03446e-08
4.22015e-07
1.84665e-08
2.60584e-08
4.44293e-07
3.32856e-07
-5.38611e-08
-3.10292e-07
3.53897e-07
-5.51636e-08
3.73354e-07
-4.7506e-08
3.9208e-07
-3.96341e-08
4.10796e-07
-3.21661e-08
4.30078e-07
-2.50732e-08
4.50145e-07
-1.79225e-08
4.70906e-07
-1.04108e-08
4.91973e-07
-2.59492e-09
5.16481e-09
5.12871e-07
3.47636e-07
-7.90019e-08
-3.23355e-07
4.12776e-07
-7.26156e-08
4.37419e-07
-5.71307e-08
4.6184e-07
-4.87424e-08
4.90048e-07
-4.6814e-08
5.13213e-07
-4.57329e-08
5.34892e-07
-3.93467e-08
5.56617e-07
-3.20999e-08
5.77792e-07
-2.37653e-08
-1.48593e-08
5.97819e-07
3.48891e-07
-1.24059e-07
-3.67716e-07
3.88426e-07
-1.14169e-07
4.19704e-07
-9.05784e-08
4.45009e-07
-7.43647e-08
5.34629e-07
-6.18112e-08
6.10433e-07
-5.43386e-08
6.34291e-07
-5.25933e-08
6.56626e-07
-5.38292e-08
6.77379e-07
-4.45021e-08
-3.30985e-08
6.9562e-07
5.19092e-07
-1.58835e-07
-4.78596e-07
5.47149e-07
-1.40148e-07
4.8455e-07
-1.14844e-07
5.07968e-07
-1.00132e-07
5.33666e-07
-8.85336e-08
5.57338e-07
-8.13192e-08
6.92005e-07
-8.00004e-08
7.61793e-07
-7.80473e-08
7.64595e-07
-5.66172e-08
-3.7776e-08
7.59298e-07
5.32836e-07
-1.89856e-07
-5.16864e-07
5.13686e-07
-1.67131e-07
5.49302e-07
-1.4873e-07
5.80124e-07
-1.326e-07
6.08818e-07
-1.19277e-07
7.21162e-07
-1.09619e-07
7.83585e-07
-1.1528e-07
7.32423e-07
-9.24949e-08
6.70853e-07
-6.51572e-08
-5.12418e-08
6.75342e-07
5.09843e-07
-2.69298e-07
-4.55717e-07
5.63653e-07
-2.29844e-07
6.04494e-07
-1.9121e-07
6.43556e-07
-1.73167e-07
6.92606e-07
-1.67308e-07
8.33321e-07
-1.60902e-07
8.63364e-07
-1.44562e-07
6.98988e-07
-1.27073e-07
7.19201e-07
-1.05779e-07
-7.15204e-08
7.31201e-07
6.65124e-07
-3.33213e-07
-6.05879e-07
6.21596e-07
-3.14273e-07
6.2462e-07
-2.90753e-07
7.2182e-07
-2.61597e-07
8.57959e-07
-2.30661e-07
8.99598e-07
-2.02321e-07
9.30348e-07
-1.75275e-07
9.53873e-07
-1.50754e-07
9.58528e-07
-1.27979e-07
-1.02764e-07
7.91956e-07
6.27062e-07
-4.01173e-07
-5.59103e-07
6.9047e-07
-3.77681e-07
7.4753e-07
-3.4781e-07
7.97673e-07
-3.11719e-07
8.40109e-07
-2.72992e-07
8.74241e-07
-2.36212e-07
9.02214e-07
-2.03004e-07
9.24612e-07
-1.73086e-07
9.43844e-07
-1.47346e-07
-1.24788e-07
9.50593e-07
5.31071e-07
-4.75637e-07
-4.56607e-07
6.01998e-07
-4.48608e-07
6.65109e-07
-4.10943e-07
7.1709e-07
-3.63709e-07
7.57835e-07
-3.13581e-07
7.89259e-07
-2.67957e-07
8.15184e-07
-2.29166e-07
8.37982e-07
-1.96078e-07
8.58431e-07
-1.68033e-07
-1.45331e-07
8.72466e-07
3.67736e-07
-5.51667e-07
-2.91053e-07
4.44398e-07
-5.25211e-07
5.08957e-07
-4.7453e-07
5.45828e-07
-3.86105e-07
5.46356e-07
-2.65179e-07
5.32082e-07
-1.65248e-07
5.22839e-07
-1.11629e-07
5.27941e-07
-8.22652e-08
5.58631e-07
-6.58223e-08
-5.89648e-08
6.04658e-07
1.31425e-07
-6.19143e-07
-6.4213e-08
1.9914e-07
-5.92852e-07
2.03222e-07
-4.56333e-07
1.23236e-07
-2.50162e-07
4.96014e-08
-6.33212e-08
3.78341e-08
-2.98252e-08
3.29569e-08
-1.30087e-08
2.94277e-08
-5.7271e-09
3.12624e-08
-2.46997e-09
-9.72158e-10
3.70804e-08
-1.27034e-07
-6.69844e-07
1.77153e-07
-7.10978e-08
-6.50502e-07
2.63814e-10
-5.32564e-07
7.90681e-09
-3.5398e-07
1.01634e-08
-1.16342e-07
7.90419e-09
-3.24835e-08
4.5188e-09
-1.12295e-08
2.39196e-09
-4.10642e-09
1.11262e-09
-1.33468e-09
-4.45915e-10
5.52129e-10
-3.21979e-07
-7.11768e-07
3.63892e-07
-2.74885e-07
-6.9798e-07
-2.2097e-07
-6.82617e-07
-1.4281e-07
-6.54113e-07
-3.73595e-08
-5.32108e-07
3.20975e-12
-1.72172e-07
1.13118e-09
-1.72418e-08
8.5254e-10
-5.4531e-09
4.93717e-10
-1.47557e-09
-3.77815e-10
3.57622e-10
-4.42598e-07
-7.52863e-07
4.83691e-07
-4.03237e-07
-7.37361e-07
-3.6369e-07
-7.22235e-07
-3.11251e-07
-7.07157e-07
-2.84196e-07
-6.89047e-07
-1.30068e-07
-6.12464e-07
-3.15522e-08
-2.86703e-07
-5.3796e-09
-3.79359e-08
-3.25186e-10
-8.18611e-09
-1.2548e-09
5.55591e-11
-5.13582e-07
-7.98103e-07
5.58823e-07
-4.72365e-07
-7.78578e-07
-4.36057e-07
-7.58544e-07
-4.0457e-07
-7.38658e-07
-3.745e-07
-7.1916e-07
-3.25886e-07
-6.98216e-07
-2.28898e-07
-6.48874e-07
-6.7287e-08
-4.45942e-07
-1.25331e-08
-1.01259e-07
-1.35334e-08
-2.33056e-09
-5.56418e-07
-8.49527e-07
6.07842e-07
-5.08912e-07
-8.26083e-07
-4.6641e-07
-8.01047e-07
-4.29907e-07
-7.75159e-07
-4.00032e-07
-7.49028e-07
-3.75245e-07
-7.23064e-07
-3.27838e-07
-6.968e-07
-3.04567e-07
-6.61895e-07
-1.23721e-07
-5.6592e-07
-2.22727e-07
-2.67248e-08
-5.85374e-07
-9.0603e-07
6.41878e-07
-5.31313e-07
-8.80144e-07
-4.8104e-07
-8.51319e-07
-4.35776e-07
-8.20423e-07
-3.96667e-07
-7.88137e-07
-3.64722e-07
-7.55011e-07
-3.40155e-07
-7.2145e-07
-3.15051e-07
-6.87147e-07
-2.80102e-07
-6.48888e-07
-5.79769e-07
-1.83492e-07
-6.06554e-07
-9.63888e-07
6.64411e-07
-5.48618e-07
-9.38079e-07
-4.92286e-07
-9.07651e-07
-4.39036e-07
-8.73672e-07
-3.90237e-07
-8.36936e-07
-3.47201e-07
-7.98039e-07
-3.11176e-07
-7.57464e-07
-2.83059e-07
-7.15247e-07
-2.64151e-07
-6.67728e-07
-6.07917e-07
-2.35712e-07
-6.17656e-07
-1.01811e-06
6.71875e-07
-5.60274e-07
-9.9546e-07
-5.01733e-07
-9.66192e-07
-4.43732e-07
-9.31673e-07
-3.87813e-07
-8.92855e-07
-3.35441e-07
-8.50437e-07
-2.88002e-07
-8.04917e-07
-2.468e-07
-7.56489e-07
-2.1145e-07
-6.9533e-07
-5.96287e-07
-1.905e-07
-6.12178e-07
-1.06432e-06
6.58388e-07
-5.59695e-07
-1.04794e-06
-5.03256e-07
-1.02263e-06
-4.44728e-07
-9.90201e-07
-3.85717e-07
-9.51866e-07
-3.27723e-07
-9.08452e-07
-2.72179e-07
-8.60593e-07
-2.20029e-07
-8.08818e-07
-1.66323e-07
-7.50423e-07
-6.07433e-07
-1.21001e-07
-5.85442e-07
-1.1002e-06
6.21325e-07
-5.40495e-07
-1.09289e-06
-4.89178e-07
-1.07395e-06
-4.33547e-07
-1.04583e-06
-3.75243e-07
-1.01017e-06
-3.15738e-07
-9.67957e-07
-2.56494e-07
-9.19838e-07
-1.98884e-07
-8.66441e-07
-1.43323e-07
-8.08164e-07
-7.22658e-07
-7.16764e-08
-5.38898e-07
-1.12581e-06
5.64499e-07
-5.01806e-07
-1.12998e-06
-4.56529e-07
-1.11923e-06
-4.05297e-07
-1.09706e-06
-3.49722e-07
-1.06575e-06
-2.91133e-07
-1.02655e-06
-2.30867e-07
-9.80105e-07
-1.70446e-07
-9.26862e-07
-1.11407e-07
-8.67223e-07
-8.00811e-07
-5.36602e-08
-4.79196e-07
-1.14297e-06
4.96346e-07
-4.48554e-07
-1.16062e-06
-4.08849e-07
-1.15893e-06
-3.62268e-07
-1.14364e-06
-3.10288e-07
-1.11773e-06
-2.54031e-07
-1.0828e-06
-1.94565e-07
-1.03957e-06
-1.33127e-07
-9.88299e-07
-7.12659e-08
-9.29083e-07
-8.61633e-07
-1.0452e-08
-4.12135e-07
-1.15432e-06
4.23517e-07
-3.86423e-07
-1.18634e-06
-3.51838e-07
-1.19352e-06
-3.10032e-07
-1.18545e-06
-2.62274e-07
-1.16548e-06
-2.09488e-07
-1.13559e-06
-1.52461e-07
-1.0966e-06
-9.20222e-08
-1.04874e-06
-2.9252e-08
-9.91854e-07
-9.24633e-07
3.37477e-08
-3.3871e-07
-1.14104e-06
3.25687e-07
-3.18296e-07
-1.20675e-06
-2.89262e-07
-1.22255e-06
-2.52738e-07
-1.22197e-06
-2.10013e-07
-1.20821e-06
-1.61915e-07
-1.18369e-06
-1.0895e-07
-1.14956e-06
-5.13353e-08
-1.10635e-06
1.10082e-08
-1.0542e-06
-9.91319e-07
7.76938e-08
-2.58232e-07
-1.09075e-06
2.07949e-07
-2.45114e-07
-1.21987e-06
-2.22586e-07
-1.24508e-06
-1.92115e-07
-1.25245e-06
-1.55256e-07
-1.24507e-06
-1.13022e-07
-1.22592e-06
-6.59043e-08
-1.19668e-06
-1.40877e-08
-1.15817e-06
4.2694e-08
-1.11098e-06
-1.05178e-06
1.03261e-07
-1.76772e-07
-9.06791e-07
9.7221e-08
-1.71797e-07
-1.22488e-06
-1.55435e-07
-1.26144e-06
-1.30813e-07
-1.27707e-06
-9.97835e-08
-1.2761e-06
-6.34082e-08
-1.2623e-06
-2.20829e-08
-1.238e-06
2.39635e-08
-1.20422e-06
7.46799e-08
-1.1617e-06
-1.09991e-06
1.22817e-07
-1.06377e-07
-6.66811e-07
2.06962e-08
-1.05598e-07
-1.22563e-06
-9.24639e-08
-1.27457e-06
-7.25672e-08
-1.29696e-06
-4.72959e-08
-1.30137e-06
-1.71446e-08
-1.29245e-06
1.80546e-08
-1.2732e-06
5.85231e-08
-1.24469e-06
1.04e-07
-1.20717e-06
-1.12646e-06
1.30533e-07
-3.483e-08
-5.37688e-07
4.51984e-09
-3.83358e-08
-1.21971e-06
-2.96632e-08
-1.2831e-06
-1.68082e-08
-1.30982e-06
2.32554e-10
-1.31841e-06
2.16123e-08
-1.31383e-06
4.79898e-08
-1.29958e-06
8.01761e-08
-1.27688e-06
1.18594e-07
-1.24559e-06
-1.1078e-06
1.15046e-07
3.04447e-08
-5.10388e-07
-1.06023e-08
3.04644e-08
-1.21181e-06
2.95249e-08
-1.28219e-06
3.24449e-08
-1.31274e-06
3.95739e-08
-1.32554e-06
5.08968e-08
-1.32515e-06
6.68357e-08
-1.31552e-06
8.81554e-08
-1.2982e-06
1.15596e-07
-1.27303e-06
-1.03881e-06
7.54624e-08
6.89497e-08
-5.41464e-07
-1.71737e-08
7.14295e-08
-1.21356e-06
6.64651e-08
-1.27724e-06
6.39517e-08
-1.31022e-06
6.47468e-08
-1.32633e-06
6.90596e-08
-1.32946e-06
7.74073e-08
-1.32387e-06
9.07374e-08
-1.31153e-06
1.10146e-07
-1.29244e-06
-9.79167e-07
5.29145e-08
8.2654e-08
-6.35479e-07
-1.16421e-08
8.43029e-08
-1.21591e-06
8.05496e-08
-1.27348e-06
7.68078e-08
-1.30648e-06
7.45888e-08
-1.32411e-06
7.46088e-08
-1.32948e-06
7.76275e-08
-1.32689e-06
8.4793e-08
-1.3187e-06
9.75174e-08
-1.30517e-06
-9.16387e-07
3.60862e-08
7.70219e-08
-7.17764e-07
-3.99028e-09
8.1297e-08
-1.22038e-06
7.98716e-08
-1.27206e-06
7.62181e-08
-1.30283e-06
7.24086e-08
-1.3203e-06
6.95915e-08
-1.32666e-06
6.86133e-08
-1.32591e-06
7.06381e-08
-1.32072e-06
7.69807e-08
-1.31151e-06
-8.58263e-07
2.15233e-08
6.30505e-08
-7.81659e-07
-2.77459e-09
7.02298e-08
-1.22755e-06
7.03599e-08
-1.27219e-06
6.6668e-08
-1.29914e-06
6.17632e-08
-1.3154e-06
5.69466e-08
-1.32185e-06
5.28794e-08
-1.32184e-06
5.05226e-08
-1.31837e-06
5.03676e-08
-1.31136e-06
-8.15231e-07
1.07531e-08
4.41126e-08
-8.27617e-07
-2.64305e-10
5.41843e-08
-1.23762e-06
5.50805e-08
-1.27308e-06
5.1298e-08
-1.29535e-06
4.58453e-08
-1.30995e-06
3.98699e-08
-1.31587e-06
3.36386e-08
-1.31561e-06
2.78097e-08
-1.31254e-06
2.12678e-08
-1.30482e-06
-7.94447e-07
4.46084e-09
2.51227e-08
-8.58589e-07
8.85132e-11
3.54512e-08
-1.24796e-06
3.66625e-08
-1.2743e-06
3.34379e-08
-1.29213e-06
2.82498e-08
-1.30476e-06
2.19858e-08
-1.30961e-06
1.45817e-08
-1.3082e-06
6.27978e-09
-1.30424e-06
-1.95312e-09
-1.29647e-06
-7.92061e-07
2.00974e-19
8.59605e-09
-8.84399e-07
9.16063e-09
1.9985e-08
-1.25933e-06
2.12465e-08
-1.27556e-06
1.86549e-08
-1.28954e-06
1.35204e-08
-1.29962e-06
6.95874e-09
-1.30305e-06
-9.47595e-10
-1.3003e-06
-1.08645e-08
-1.29432e-06
-2.19542e-08
-1.28535e-06
-8.09102e-07
4.85216e-19
1.95559e-08
-9.11099e-07
-1.25435e-13
1.92528e-08
-1.259e-06
1.57224e-08
-1.27203e-06
1.13038e-08
-1.28512e-06
4.36882e-09
-1.29269e-06
-3.53068e-09
-1.29515e-06
-1.1452e-08
-1.29238e-06
-2.22409e-08
-1.28353e-06
-3.57487e-08
-1.27184e-06
-8.40561e-07
3.51052e-19
2.87782e-08
-9.43169e-07
-6.08225e-13
1.99645e-08
-1.25019e-06
1.36706e-08
-1.26573e-06
8.22426e-09
-1.27967e-06
-7.0838e-10
-1.28376e-06
-1.04761e-08
-1.28538e-06
-1.77771e-08
-1.28508e-06
-2.79166e-08
-1.27339e-06
-4.31864e-08
-1.25657e-06
-8.79786e-07
7.00786e-20
3.32358e-08
-9.78521e-07
2.15877e-23
2.05637e-08
-1.23752e-06
1.3881e-08
-1.25905e-06
7.73843e-09
-1.27353e-06
-3.03627e-09
-1.27298e-06
-1.4682e-08
-1.27373e-06
-2.15996e-08
-1.27816e-06
-2.86894e-08
-1.2663e-06
-4.45369e-08
-1.24073e-06
-9.20981e-07
-4.99116e-18
3.03417e-08
-1.0105e-06
6.36791e-25
1.76652e-08
-1.22484e-06
1.41585e-08
-1.25554e-06
7.4981e-09
-1.26687e-06
-4.10246e-09
-1.26138e-06
-1.64401e-08
-1.26139e-06
-2.45353e-08
-1.27006e-06
-2.60051e-08
-1.26483e-06
-3.98435e-08
-1.22689e-06
-9.58355e-07
-5.07778e-18
1.91415e-08
-1.03064e-06
5.02864e-28
1.32205e-08
-1.21892e-06
1.63947e-08
-1.25872e-06
7.86634e-09
-1.25834e-06
-4.15658e-09
-1.24936e-06
-1.64896e-08
-1.24906e-06
-2.767e-08
-1.25888e-06
-2.30296e-08
-1.26947e-06
-2.62863e-08
-1.22363e-06
-9.83113e-07
-8.99129e-18
-2.68846e-09
-1.02846e-06
1.0677e-31
1.44291e-08
-1.23604e-06
2.19427e-08
-1.26623e-06
8.62159e-09
-1.24502e-06
-3.46408e-09
-1.23727e-06
-1.55827e-08
-1.23694e-06