/*--------------------------------*- C++ -*----------------------------------*\
  =========                 |
  \\      /  F ield         | OpenFOAM: The Open Source CFD Toolbox
   \\    /   O peration     | Website:  https://openfoam.org
    \\  /    A nd           | Version:  8
     \\/     M anipulation  |
\*---------------------------------------------------------------------------*/
FoamFile
{
    version     2.0;
    format      ascii;
    class       volScalarField;
    location    "0.15";
    object      alpha.water;
}
// * * * * * * * * * * * * * * * * * * * * * * * * * * * * * * * * * * * * * //

dimensions      [0 0 0 0 0 0 0];

internalField   nonuniform List<scalar> 
9150
(
1
1
1
1
1
1
1
1
1
1
1
1
1
1
1
1
1
1
1
1
1
1
1
1
1
1
1
1
1
1
1
1
1
1
1
1
1
1
1
1
1
1
1
1
1
1
1
1
1
1
1
1
1
1
1
1
1
1
1
1
1
1
1
1
1
1
1
1
1
1
1
1
1
1
1
1
1
1
1
1
1
1
1
1
1
1
1
1
1
1
1
1
1
1
1
1
1
1
1
1
1
1
1
1
1
1
1
1
1
1
1
1
1
1
1
1
1
1
1
1
1
1
1
1
1
1
1
1
1
1
1
1
1
1
1
1
1
1
1
1
1
1
1
1
1
1
1
1
1
1
1.4477e-118
2.22202e-118
2.87526e-118
3.47107e-118
4.09549e-118
4.45394e-118
3.81381e-118
3.07002e-118
2.27135e-118
1.44456e-118
8.76554e-118
1.01982e-117
1.15384e-117
1.27767e-117
1.35908e-117
1.37873e-117
1.34314e-117
1.2531e-117
1.12161e-117
9.60906e-118
5.34262e-114
6.28133e-114
7.13696e-114
7.82472e-114
8.23548e-114
8.30287e-114
8.06026e-114
7.46983e-114
6.63145e-114
5.67143e-114
1.94785e-110
2.31118e-110
2.6454e-110
2.90464e-110
3.05235e-110
3.06978e-110
2.96065e-110
2.72578e-110
2.405e-110
2.04471e-110
5.81827e-107
6.92255e-107
7.93679e-107
8.72119e-107
9.15805e-107
9.19991e-107
8.84299e-107
8.11623e-107
7.1394e-107
6.05316e-107
1.37492e-103
1.63168e-103
1.86638e-103
2.04774e-103
2.14752e-103
2.15563e-103
2.0694e-103
1.89887e-103
1.67157e-103
1.41944e-103
2.68023e-100
3.1657e-100
3.60684e-100
3.94688e-100
4.13244e-100
4.14527e-100
3.97886e-100
3.65529e-100
3.22565e-100
2.74862e-100
4.43629e-97
5.20935e-97
5.90801e-97
6.44434e-97
6.735e-97
6.75182e-97
6.48367e-97
5.96817e-97
5.28479e-97
4.52369e-97
6.35383e-94
7.41514e-94
8.36811e-94
9.09683e-94
9.48904e-94
9.50769e-94
9.13752e-94
8.43148e-94
7.49565e-94
6.44899e-94
7.97744e-91
9.25235e-91
1.03876e-90
1.12531e-90
1.17155e-90
1.17329e-90
1.12877e-90
1.04434e-90
9.32363e-91
8.06535e-91
8.85765e-88
1.02091e-87
1.14026e-87
1.23096e-87
1.27909e-87
1.28045e-87
1.2333e-87
1.14424e-87
1.02601e-87
8.92502e-88
8.74887e-85
1.00196e-84
1.11347e-84
1.19788e-84
1.24245e-84
1.24337e-84
1.19909e-84
1.1157e-84
1.00481e-84
8.7898e-85
7.71662e-82
8.78091e-82
9.71109e-82
1.04119e-81
1.07808e-81
1.07861e-81
1.04157e-81
9.71933e-82
8.79177e-82
7.73403e-82
6.09298e-79
6.88984e-79
7.58407e-79
8.10462e-79
8.37805e-79
8.38043e-79
8.10349e-79
7.58346e-79
6.88958e-79
6.09465e-79
4.31335e-76
4.84792e-76
5.31203e-76
5.65849e-76
5.84011e-76
5.84072e-76
5.65536e-76
5.30756e-76
4.84261e-76
4.30766e-76
2.73974e-73
3.06135e-73
3.33951e-73
3.5464e-73
3.65466e-73
3.65453e-73
3.54337e-73
3.33486e-73
3.05551e-73
2.7328e-73
1.56178e-70
1.73536e-70
1.88494e-70
1.99585e-70
2.05379e-70
2.05353e-70
1.99378e-70
1.88166e-70
1.7311e-70
1.5565e-70
7.98973e-68
8.82997e-68
9.55195e-68
1.00857e-67
1.03642e-67
1.03622e-67
1.00742e-67
9.53354e-68
8.80556e-68
7.95839e-68
3.66725e-65
4.03197e-65
4.34454e-65
4.57497e-65
4.69504e-65
4.69395e-65
4.56959e-65
4.33579e-65
4.02021e-65
3.65183e-65
1.50959e-62
1.65149e-62
1.77274e-62
1.86193e-62
1.90832e-62
1.90781e-62
1.85972e-62
1.76914e-62
1.64658e-62
1.50315e-62
5.57e-60
6.06436e-60
6.48542e-60
6.79468e-60
6.95511e-60
6.95311e-60
6.78662e-60
6.47246e-60
6.04637e-60
5.54679e-60
1.84103e-57
1.99497e-57
2.12586e-57
2.22181e-57
2.27148e-57
2.27082e-57
2.21929e-57
2.12181e-57
1.9893e-57
1.83373e-57
5.44729e-55
5.87517e-55
6.23928e-55
6.50542e-55
6.64305e-55
6.64126e-55
6.49876e-55
6.22837e-55
5.85997e-55
5.42709e-55
1.44178e-52
1.54794e-52
1.63844e-52
1.70441e-52
1.7385e-52
1.73809e-52
1.70288e-52
1.63589e-52
1.5444e-52
1.43683e-52
3.41113e-50
3.6463e-50
3.84696e-50
3.99293e-50
4.06831e-50
4.06745e-50
3.98984e-50
3.84168e-50
3.63895e-50
3.40042e-50
7.20895e-48
7.6736e-48
8.07024e-48
8.35831e-48
8.50691e-48
8.50535e-48
8.35277e-48
8.06061e-48
7.66007e-48
7.18848e-48
1.35994e-45
1.44172e-45
1.51159e-45
1.56226e-45
1.58838e-45
1.58814e-45
1.56141e-45
1.51008e-45
1.43957e-45
1.35652e-45
2.28851e-43
2.41665e-43
2.52623e-43
2.60556e-43
2.64645e-43
2.64614e-43
2.60444e-43
2.52416e-43
2.4137e-43
2.28353e-43
3.43321e-41
3.61179e-41
3.76454e-41
3.87502e-41
3.93195e-41
3.93159e-41
3.87373e-41
3.76209e-41
3.60824e-41
3.42687e-41
4.58876e-39
4.80976e-39
4.99886e-39
5.13555e-39
5.20601e-39
5.20567e-39
5.13435e-39
4.99644e-39
4.80611e-39
4.58172e-39
5.46094e-37
5.70347e-37
5.91125e-37
6.06135e-37
6.13879e-37
6.13857e-37
6.06051e-37
5.90934e-37
5.70044e-37
5.45418e-37
5.78294e-35
6.01876e-35
6.2211e-35
6.36723e-35
6.44272e-35
6.44263e-35
6.3669e-35
6.22002e-35
6.01682e-35
5.77737e-35
5.44588e-33
5.64879e-33
5.82313e-33
5.94909e-33
6.01426e-33
6.01432e-33
5.94925e-33
5.82292e-33
5.64799e-33
5.44197e-33
4.55761e-31
4.71179e-31
4.84458e-31
4.94058e-31
4.99035e-31
4.99052e-31
4.94107e-31
4.84501e-31
4.71187e-31
4.55528e-31
3.38717e-29
3.49043e-29
3.57972e-29
3.6443e-29
3.67789e-29
3.67809e-29
3.64489e-29
3.58039e-29
3.49096e-29
3.38599e-29
2.23363e-27
2.29447e-27
2.34735e-27
2.38564e-27
2.40562e-27
2.40578e-27
2.38613e-27
2.34797e-27
2.29505e-27
2.23315e-27
1.30574e-25
1.33718e-25
1.36469e-25
1.38465e-25
1.3951e-25
1.39521e-25
1.38498e-25
1.36513e-25
1.33761e-25
1.30558e-25
6.7592e-24
6.90114e-24
7.02651e-24
7.11769e-24
7.16572e-24
7.16633e-24
7.11957e-24
7.02905e-24
6.9037e-24
6.75885e-24
3.09436e-22
3.15004e-22
3.19987e-22
3.23623e-22
3.25552e-22
3.25581e-22
3.23713e-22
3.20109e-22
3.15128e-22
3.09432e-22
1.25087e-20
1.26971e-20
1.28688e-20
1.29948e-20
1.30622e-20
1.30633e-20
1.29985e-20
1.28738e-20
1.27022e-20
1.25088e-20
4.45533e-19
4.50959e-19
4.56046e-19
4.59808e-19
4.61844e-19
4.61885e-19
4.59937e-19
4.56225e-19
4.51138e-19
4.45537e-19
1.39301e-17
1.406e-17
1.41879e-17
1.42834e-17
1.4336e-17
1.43373e-17
1.42874e-17
1.41933e-17
1.40654e-17
1.39299e-17
3.84092e-16
3.86578e-16
3.89261e-16
3.91303e-16
3.9246e-16
3.92492e-16
3.91407e-16
3.894e-16
3.86711e-16
3.84066e-16
9.74216e-15
9.77733e-15
9.82358e-15
9.8606e-15
9.88276e-15
9.88351e-15
9.86311e-15
9.82684e-15
9.7803e-15
9.74127e-15
2.17821e-13
2.17956e-13
2.18457e-13
2.18932e-13
2.19252e-13
2.19267e-13
2.18981e-13
2.18519e-13
2.18006e-13
2.17792e-13
2.63904e-12
2.64367e-12
2.64975e-12
2.65493e-12
2.6581e-12
2.65825e-12
2.6554e-12
2.65045e-12
2.64399e-12
2.63801e-12
1.37209e-11
1.38309e-11
1.39076e-11
1.39582e-11
1.39821e-11
1.39827e-11
1.39602e-11
1.39119e-11
1.38304e-11
1.37066e-11
8.12457e-11
8.08444e-11
8.06643e-11
8.05789e-11
8.05626e-11
8.0564e-11
8.05843e-11
8.06664e-11
8.07978e-11
8.10627e-11
1.0669e-09
1.05677e-09
1.05148e-09
1.04848e-09
1.04747e-09
1.04747e-09
1.04851e-09
1.05139e-09
1.05608e-09
1.06454e-09
1.3767e-08
1.36197e-08
1.35393e-08
1.34925e-08
1.34756e-08
1.34754e-08
1.34924e-08
1.35373e-08
1.36117e-08
1.37424e-08
1.61716e-07
1.59548e-07
1.58279e-07
1.57535e-07
1.57252e-07
1.57249e-07
1.57529e-07
1.58239e-07
1.59466e-07
1.615e-07
1.76818e-06
1.74312e-06
1.72803e-06
1.71909e-06
1.71564e-06
1.71558e-06
1.71897e-06
1.72747e-06
1.74227e-06
1.76619e-06
1.77084e-05
1.74503e-05
1.72902e-05
1.71943e-05
1.71573e-05
1.71566e-05
1.71927e-05
1.72833e-05
1.74418e-05
1.76896e-05
0.00016525
0.000162814
0.000161213
0.000160265
0.000159887
0.000159876
0.000160233
0.000161128
0.000162704
0.000165056
0.00144053
0.00141919
0.00140406
0.00139537
0.00139177
0.00139173
0.00139509
0.00140341
0.00141802
0.00143891
0.0782043
0.0759052
0.0742697
0.0733394
0.0729642
0.0729577
0.0733026
0.0741856
0.0757697
0.0780283
0.747148
0.742696
0.739488
0.737529
0.736742
0.736728
0.737452
0.739309
0.742435
0.746812
1
1
1
1
1
1
1
1
1
1
1
1
1
1
1
1
1
1
1
1
1
1
1
1
1
1
1
1
1
1
1
1
1
1
1
1
1
1
1
1
1
1
1
1
1
1
1
1
1
1
1
1
1
1
1
1
1
1
1
1
1
1
1
1
1
1
1
1
1
1
1
1
1
1
1
1
1
1
1
1
1
1
1
1
1
1
1
1
1
1
1
1
1
1
1
1
1
1
1
1
1
1
1
1
1
1
1
1
1
1
1
1
1
1
1
1
1
1
1
1
1
1
1
1
1
1
1
1
1
1
1
1
1
1
1
1
1
1
1
1
1
1
1
1
1
1
1
1
1
1
1
1
1
1
1
1
1
1
1
1
1
1
1
1
1
1
1
1
1
1
1
1
1
1
1
1
1
1
1
1
1
1
1
1
1
1
1
1
1
1
1
1
1
1
1
1
1
1
1
1
1
1
1
1
1
1
1
1
1
1
1
1
1
1
1
1
1
1
1
1
1
1
1
1
1
1
1
1
1
1
1
1
1
1
1
1
1
1
1
1
1
1
1
1
1
1
1
1
1
1
1
1
1
1
1
1
1
1
1
1
1
1
1
1
1
1
1
1
1
1
1.00001
1
1
1
1
1
1
1
1
1.00001
0.961473
1
1
1
1
1
1
1
1
0.961445
0.891907
1
0.999995
1
1
1
1
0.999995
1
0.891887
0.847865
1
0.999994
1
1
1
1
0.999994
1
0.847845
0.804217
0.999999
0.999994
1
1
1
1
0.999994
0.999999
0.804196
0.766378
0.999996
0.999995
1
1
1
1
0.999995
0.999996
0.766358
0.73767
0.999994
0.999993
1
1
1
1
0.999993
0.999994
0.737652
0.719697
0.999993
0.999992
1
1
1
1
0.999992
0.999992
0.719681
0.710249
0.998926
0.999992
1
1
1
1
0.999992
0.998926
0.710235
0.708209
0.999476
0.999996
1
1
1
1
0.999996
0.999476
0.708197
0.730919
0.999899
0.999999
1
1
1
1
0.999999
0.999899
0.73091
0.756329
0.999991
1
1
1
1
1
1
0.999991
0.756322
0.793924
0.999991
1
1
1
1
1
1
0.999991
0.79392
0.837932
0.999997
1
1
1
1
1
1
0.999997
0.83793
0.88876
1
1
1
1
1
1
1
1
0.888759
0.944451
1
1
1
1
1
1
1
1
0.944451
7.37659e-119
2.92915e-119
8.89188e-120
2.02762e-120
3.40541e-121
4.15876e-122
3.59131e-123
2.06329e-124
7.41952e-126
1.70737e-127
2.36966e-129
1.89485e-131
8.35016e-134
1.87452e-136
1.79611e-139
6.1085e-143
2.1671e-145
9.81329e-148
4.55677e-149
4.46987e-150
3.13603e-152
1.31777e-154
4.2547e-157
1.16054e-159
2.8038e-162
6.1624e-165
1.25139e-167
2.36572e-170
4.16694e-173
6.80086e-176
1.01688e-178
1.36982e-181
1.62631e-184
1.65481e-187
1.39171e-190
9.20661e-194
4.45599e-197
1.40716e-200
2.37008e-204
1.35899e-208
7.88864e-118
5.93848e-118
3.39554e-118
1.39512e-118
4.01772e-119
8.00164e-120
1.10839e-120
9.43005e-122
3.67035e-123
1.17805e-125
1.62005e-127
1.48961e-130
8.36709e-134
2.66847e-136
5.32152e-139
7.94681e-142
1.17241e-144
2.23059e-147
3.96828e-148
2.11751e-148
3.40813e-149
5.27174e-151
2.98329e-153
1.12462e-155
3.35658e-158
8.54641e-161
1.9304e-163
3.95476e-166
7.43789e-169
1.29011e-171
2.05952e-174
3.00116e-177
3.93597e-180
4.55402e-183
4.52786e-186
3.73637e-189
2.43809e-192
1.1672e-195
3.56495e-199
4.83807e-203
4.59313e-114
3.2727e-114
1.82379e-114
7.50861e-115
2.22158e-115
4.518e-116
6.63093e-117
6.14886e-118
2.86927e-119
1.47019e-121
2.83703e-123
2.28418e-125
7.11685e-130
2.68748e-132
5.53085e-135
6.8047e-138
7.1669e-141
7.68913e-144
1.04771e-146
2.10476e-144
7.8106e-147
4.25611e-149
4.98542e-150
3.32575e-152
1.30969e-154
3.91357e-157
9.75609e-160
2.12552e-162
4.15193e-165
7.37478e-168
1.19849e-170
1.78095e-173
2.40293e-176
2.90411e-179
3.08008e-182
2.78512e-185
2.05972e-188
1.16587e-191
4.44843e-195
8.18963e-199
1.64245e-110
1.16185e-110
6.47909e-111
2.70928e-111
8.26622e-112
1.75588e-112
2.69729e-113
2.71095e-114
1.47096e-115
1.03937e-117
2.40154e-119
2.78073e-121
8.98975e-126
3.75012e-128
8.45903e-131
1.07551e-133
1.09026e-136
1.12069e-139
1.35372e-142
1.65177e-140
6.28346e-143
4.10037e-146
8.58484e-149
2.4418e-149
2.17562e-151
9.64045e-154
3.02249e-156
7.61495e-159
1.6362e-161
3.09498e-164
5.24399e-167
8.02311e-170
1.10893e-172
1.37505e-175
1.50663e-178
1.42237e-181
1.11195e-184
6.73877e-188
2.79018e-191
5.69788e-195
4.81898e-107
3.3445e-107
1.84284e-107
7.72835e-108
2.39997e-108
5.28733e-109
8.43157e-110
9.14149e-111
5.64372e-112
7.73217e-114
1.35597e-115
1.90449e-117
1.561e-120
3.50929e-124
8.79243e-127
1.18498e-129
1.17339e-132
1.15505e-135
1.30154e-138
1.07644e-136
4.53808e-139
2.80478e-142
4.045e-145
5.91423e-148
3.91846e-149
1.11507e-150
6.13235e-153
2.07502e-155
5.34723e-158
1.1406e-160
2.09695e-163
3.39205e-166
4.87099e-169
6.20732e-172
6.95188e-175
6.6989e-178
5.34941e-181
3.31531e-184
1.40473e-187
2.94512e-191
1.13085e-103
7.82193e-104
4.3197e-104
1.83689e-104
5.85673e-105
1.34767e-105
2.2107e-106
2.54288e-107
1.73598e-108
3.94194e-110
5.76345e-112
9.33665e-114
3.11919e-116
2.4804e-120
6.99697e-123
1.02752e-125
1.02219e-128
9.77361e-132
1.03734e-134
3.47516e-134
1.25081e-135
1.94805e-138
2.62897e-141
3.78424e-144
5.31114e-147
4.31795e-149
7.29199e-150
4.4779e-152
1.57014e-154
4.06167e-157
8.5177e-160
1.51246e-162
2.32131e-165
3.10033e-168
3.58679e-171
3.53318e-174
2.86195e-177
1.78848e-180
7.59928e-184
1.58925e-187
2.1994e-100
1.52522e-100
8.48945e-101
3.67463e-101
1.20566e-101
2.89974e-102
4.93769e-103
6.08173e-104
4.61332e-105
1.41923e-106
1.9637e-108
3.59344e-110
1.87897e-112
1.40844e-116
4.51719e-119
7.39614e-122
7.62987e-125
7.23504e-128
7.32999e-131
1.4472e-130
7.34426e-132
1.23624e-134
1.69197e-137
2.49991e-140
3.59716e-143
4.9995e-146
9.278e-149
2.72926e-149
2.47045e-151
1.01653e-153
2.82671e-156
6.06673e-159
1.06342e-161
1.5598e-164
1.92469e-167
1.97693e-170
1.64073e-173
1.036e-176
4.39747e-180
9.09514e-184
3.64335e-97
2.54284e-97
1.4319e-97
6.32553e-98
2.13881e-98
5.37378e-99
9.52093e-100
1.25218e-100
1.04722e-101
4.10023e-103
5.57457e-105
1.13814e-106
7.71429e-109
6.65593e-113
2.44183e-115
4.53383e-118
4.99602e-121
4.80766e-124
4.74953e-127
7.63312e-130
4.04574e-128
1.30173e-130
1.08017e-133
1.65938e-136
2.4877e-139
3.59852e-142
4.98329e-145
6.70388e-148
4.02141e-149
1.43616e-150
7.34813e-153
2.19753e-155
4.77284e-158
8.12405e-161
1.11389e-163
1.23081e-166
1.07101e-169
6.94028e-173
2.96847e-176
6.08802e-180
5.23393e-94
3.68557e-94
2.10499e-94
9.50753e-95
3.31604e-95
8.69218e-96
1.61947e-96
2.25021e-97
2.05947e-98
9.7144e-100
1.3518e-101
3.05378e-103
2.48273e-105
2.67604e-109
1.12658e-111
2.40006e-114
2.89727e-117
2.8949e-120
2.93453e-123
3.84435e-126
2.21074e-124
9.12882e-127
6.79154e-130
1.09787e-132
1.73855e-135
2.65263e-138
3.86824e-141
5.33578e-144
6.88049e-147
4.37594e-149
1.07931e-149
6.27085e-152
1.94874e-154
4.18676e-157
6.76234e-160
8.41014e-163
7.95997e-166
5.45595e-169
2.40895e-172
4.98637e-176
6.60003e-91
4.69629e-91
2.72511e-91
1.25997e-91
4.53584e-92
1.23925e-92
2.44376e-93
3.56381e-94
3.54929e-95
1.95279e-96
2.85017e-98
7.09171e-100
6.61176e-102
9.28046e-106
4.49117e-108
1.10645e-110
1.4932e-113
1.58288e-116
1.67487e-119
2.24837e-122
1.14947e-120
5.84982e-123
4.15877e-126
7.14967e-129
1.21063e-131
1.97173e-134
3.06328e-137
4.48925e-140
6.11724e-143
7.59809e-146
1.09956e-148
3.31532e-149
3.7533e-151
1.42553e-153
3.23643e-156
5.0606e-159
5.62594e-162
4.31574e-165
2.05208e-168
4.42318e-172
7.36584e-88
5.30122e-88
3.12874e-88
1.48197e-88
5.5086e-89
1.56836e-89
3.26845e-90
5.00442e-91
5.40147e-92
3.39645e-93
5.28026e-95
1.44393e-96
1.50791e-98
2.80148e-102
1.56029e-104
4.46774e-107
6.84703e-110
7.85062e-113
8.8099e-116
1.22806e-118
5.63021e-117
3.13061e-119
2.4272e-122
4.50562e-125
8.24059e-128
1.44784e-130
2.42243e-133
3.81383e-136
5.56178e-139
7.34646e-142
8.479e-145
8.19032e-148
4.22057e-149
3.03377e-150
1.3092e-152
2.90899e-155
4.07534e-158
3.68077e-161
1.96488e-164
4.57063e-168
7.31628e-85
5.32879e-85
3.20096e-85
1.55395e-85
5.96507e-86
1.76933e-86
3.89192e-87
6.25702e-88
7.29591e-89
5.17017e-90
1.16671e-91
2.60466e-93
2.98285e-95
7.41176e-99
4.75303e-101
1.58651e-103
2.79356e-106
3.52234e-109
4.25238e-112
6.23239e-115
2.57252e-113
1.57576e-115
1.34334e-118
2.71686e-121
5.41774e-124
1.03663e-126
1.88596e-129
3.22133e-132
5.07903e-135
7.21224e-138
8.85126e-141
8.59684e-144
4.81237e-147
4.67698e-149
2.03465e-149
1.03542e-151
2.26718e-154
2.73704e-157
1.7894e-160
4.78912e-164
6.49163e-82
4.78633e-82
2.92743e-82
1.45687e-82
5.77524e-83
1.78405e-83
4.13781e-84
6.98378e-85
8.7745e-86
6.93832e-87
2.20379e-88
4.17659e-90
5.20813e-92
1.72753e-95
1.27503e-97
4.96829e-100
1.01371e-102
1.42511e-105
1.87394e-108
2.92075e-111
1.08855e-109
7.39727e-112
6.98699e-115
1.55174e-117
3.40127e-120
7.14474e-123
1.42482e-125
2.66187e-128
4.57587e-131
7.04821e-134
9.28866e-137
9.42574e-140
4.64317e-143
1.74402e-146
7.66902e-149
3.8601e-149
5.97761e-151
1.38515e-153
1.31442e-156
4.48725e-160
5.1574e-79
3.84979e-79
2.39791e-79
1.22336e-79
5.00744e-80
1.6104e-80
3.93464e-81
6.97517e-82
9.41681e-83
8.24856e-84
3.35852e-85
5.96964e-87
8.11975e-89
3.55974e-92
3.02078e-94
1.37468e-96
3.27004e-99
5.18364e-102
7.50192e-105
1.25602e-107
4.23073e-106
3.20725e-108
3.37548e-111
8.28121e-114
2.0079e-116
4.66075e-119
1.0258e-121
2.11155e-124
3.98977e-127
6.72744e-130
9.6261e-133
1.03563e-135
4.4507e-139
2.21621e-142
2.38612e-145
2.8819e-148
4.39046e-149
4.61023e-150
8.35909e-153
4.0854e-156
3.67413e-76
2.77663e-76
1.76134e-76
9.21098e-77
3.89214e-77
1.30261e-77
3.34968e-78
6.24303e-79
9.02989e-80
8.71197e-81
4.32597e-82
7.63184e-84
1.13981e-85
6.49949e-89
6.33222e-91
3.36439e-93
9.37082e-96
1.69031e-98
2.71553e-101
4.92683e-104
1.49796e-102
1.27284e-104
1.50087e-107
4.08578e-110
1.10138e-112
2.84004e-115
6.9382e-118
1.58362e-120
3.31278e-123
6.16736e-126
9.68712e-129
1.12417e-131
4.30779e-135
2.79601e-138
3.22998e-141
3.18475e-144
2.60677e-147
4.91301e-149
1.99862e-149
2.24195e-152
2.34896e-73
1.7971e-73
1.16088e-73
6.2218e-74
2.71332e-74
9.44591e-75
2.55128e-75
5.06367e-76
7.74296e-77
8.18746e-78
4.80918e-79
8.74368e-81
1.45055e-82
1.05294e-85
1.17576e-87
7.2885e-90
2.38426e-92
4.93058e-95
8.85471e-98
1.75388e-100
4.81715e-99
4.60536e-101
6.10944e-104
1.85205e-106
5.57465e-109
1.60418e-111
4.37094e-114
1.11186e-116
2.58937e-119
5.35692e-122
9.31517e-125
1.18286e-127
4.23293e-131
3.4279e-134
4.26125e-137
4.49406e-140
3.80984e-143
2.42452e-146
6.89466e-149
3.26714e-149
1.34806e-70
1.04395e-70
6.86607e-71
3.77053e-71
1.69651e-71
6.14068e-72
1.74057e-72
3.67858e-73
5.93794e-74
6.85393e-75
4.6658e-76
8.99342e-78
1.68208e-79
1.51437e-82
1.93489e-84
1.39806e-86
5.3829e-89
1.28425e-91
2.59336e-94
5.64272e-97
1.39327e-95
1.50598e-97
2.2624e-100
7.66363e-103
2.5851e-105
8.33312e-108
2.54253e-110
7.23891e-113
1.88554e-115
4.35823e-118
8.44997e-121
1.18886e-123
4.27773e-127
4.01048e-130
5.35654e-133
6.02742e-136
5.42468e-139
3.65093e-142
1.63118e-145
1.08604e-148
6.94398e-68
5.44208e-68
3.64341e-68
2.04948e-68
9.51059e-69
3.57752e-69
1.06344e-69
2.39051e-70
4.0708e-71
5.11317e-72
3.97533e-73
9.34922e-75
1.78544e-76
1.93382e-79
2.82248e-81
2.37435e-83
1.07755e-85
2.98195e-88
6.80525e-91
1.63495e-93
3.59497e-92
4.42104e-94
7.60063e-97
2.87883e-99
1.09102e-101
3.95034e-104
1.35349e-106
4.32639e-109
1.26482e-111
3.28009e-114
7.13158e-117
1.12358e-119
4.43464e-123
4.41881e-126
6.31114e-129
7.51851e-132
7.09485e-135
4.98525e-138
2.37898e-141
7.09949e-145
3.20938e-65
2.54477e-65
1.73384e-65
9.98732e-66
4.77813e-66
1.86694e-66
5.81585e-67
1.38903e-67
2.49383e-68
3.39985e-69
2.98494e-70
1.05543e-71
1.7341e-73
2.19238e-76
3.64928e-78
3.56942e-80
1.91109e-82
6.16344e-85
1.59684e-87
4.25419e-90
6.8024e-89
1.03365e-90
2.29854e-93
9.7557e-96
4.16157e-98
1.69643e-100
6.54197e-103
2.35312e-105
7.74057e-108
2.25879e-110
5.52805e-113
9.82096e-116
4.51577e-119
4.53534e-122
6.90781e-125
8.64754e-128
8.40626e-131
6.11442e-134
3.53859e-137
1.20182e-140
1.33017e-62
1.06679e-62
7.39537e-63
4.36074e-63
2.15e-63
8.72154e-64
2.84534e-64
7.21276e-65
1.36538e-65
2.01459e-66
1.98054e-67
9.29729e-69
1.51171e-70
2.20584e-73
4.18055e-75
4.74766e-77
3.00021e-79
1.13243e-81
3.34503e-84
9.91753e-87
2.79271e-86
1.35636e-87
6.76669e-90
2.98143e-92
1.42719e-94
6.56996e-97
2.8592e-99
1.16039e-101
4.30661e-104
1.41815e-106
3.91978e-109
7.89365e-112
4.38011e-115
4.29786e-118
6.98396e-121
9.14541e-124
8.9603e-127
8.45465e-130
5.51251e-133
1.99546e-136
4.94075e-60
4.00663e-60
2.82536e-60
1.70483e-60
8.65858e-61
3.64474e-61
1.24446e-61
3.34429e-62
6.6877e-63
1.06364e-63
1.16281e-64
6.80689e-66
1.17921e-67
1.96862e-70
4.2411e-72
5.5835e-74
4.16462e-76
1.84664e-78
6.24505e-81
2.06693e-83
1.85268e-83
2.46393e-84
1.97395e-86
8.25844e-89
4.42116e-91
2.30069e-93
1.13082e-95
5.18343e-98
2.17325e-100
8.08851e-103
2.53014e-105
5.79461e-108
3.94504e-111
3.68246e-114
6.12505e-117
7.68005e-120
9.47181e-123
9.80593e-126
7.16579e-129
3.20308e-132
1.64362e-57
1.34735e-57
9.66208e-58
5.96386e-58
3.11884e-58
1.3616e-58
4.86231e-59
1.38212e-59
2.95247e-60
5.00305e-61
6.04501e-62
4.25227e-63
8.19928e-65
1.55737e-67
3.80765e-69
5.80169e-71
5.10562e-73
2.66825e-75
1.03738e-77
3.84317e-80
2.74136e-80
4.63061e-81
4.5251e-83
2.03983e-85
1.22865e-87
7.23026e-90
4.01717e-92
2.08161e-94
9.86901e-97
4.15635e-99
1.47365e-101
3.84747e-104
3.23442e-107
2.86077e-110
4.676e-113
6.19165e-116
8.59889e-119
1.02545e-121
8.76507e-125
4.32383e-128
4.89372e-55
4.05408e-55
2.95559e-55
1.86547e-55
1.00407e-55
4.54384e-56
1.6959e-56
5.08973e-57
1.16831e-57
2.09549e-58
2.78387e-59
2.29644e-60
5.11329e-62
3.33569e-64
3.02301e-66
5.32183e-68
5.52121e-70
3.41027e-72
1.53059e-74
6.36144e-77
2.85981e-77
7.74055e-78
9.64573e-80
4.51036e-82
3.05137e-84
2.03281e-86
1.278e-88
7.49418e-91
4.0224e-93
1.91948e-95
7.72722e-98
2.30643e-100
2.41135e-103
2.00361e-106
2.98605e-109
4.65226e-112
7.62305e-115
1.06785e-117
1.01651e-120
5.21929e-124
1.30316e-52
1.09072e-52
8.08116e-53
5.21359e-53
2.88682e-53
1.35347e-53
5.27607e-54
1.67022e-54
4.1131e-55
7.80573e-56
1.13607e-56
1.07909e-57
3.9897e-59
3.49878e-61
2.12063e-63
4.30571e-65
5.25984e-67
3.84838e-69
2.00237e-71
9.35414e-74
7.95159e-75
1.15056e-74
2.27814e-76
8.97772e-79
6.76112e-81
5.10467e-83
3.63456e-85
2.41432e-87
1.46884e-89
7.95369e-92
3.64228e-94
1.24653e-96
1.62789e-99
1.26215e-102
1.71586e-105
3.20753e-108
6.36753e-111
9.61041e-114
1.00646e-116
6.18546e-120
3.10156e-50
2.62206e-50
1.97361e-50
1.30098e-50
7.40726e-51
3.59587e-51
1.46298e-51
4.88019e-52
1.28713e-52
2.58634e-53
4.10837e-54
4.43551e-55
2.31939e-56
2.61372e-58
1.31334e-60
3.06994e-62
4.40866e-64
3.82703e-66
2.31859e-68
1.22968e-70
9.17359e-73
1.51561e-71
4.04627e-73
1.59692e-75
1.33354e-77
1.1414e-79
9.20859e-82
6.93318e-84
4.7848e-86
2.94334e-88
1.53578e-90
6.04372e-93
9.88669e-96
7.19896e-99
9.81417e-102
2.20878e-104
4.6485e-107
8.77158e-110
1.08009e-112
6.4321e-116
6.59302e-48
5.62848e-48
4.30239e-48
2.89662e-48
1.695e-48
8.51481e-49
3.61295e-49
1.26871e-49
3.57663e-50
7.63456e-51
1.31645e-51
1.59936e-52
1.0775e-53
1.53401e-55
7.17533e-58
1.92724e-59
3.24691e-61
3.34685e-63
2.37083e-65
1.43788e-67
1.18848e-69
1.78195e-68
5.59794e-70
2.49979e-72
2.33069e-74
2.26183e-76
2.06865e-78
1.76617e-80
1.38349e-82
9.67618e-85
5.76094e-87
2.61343e-89
5.36225e-92
3.7486e-95
4.86154e-98
1.33874e-100
3.5508e-103
7.53025e-106
1.0508e-108
7.26867e-112
1.25089e-45
1.07811e-45
8.36612e-46
5.75036e-46
3.45656e-46
1.79574e-46
7.94062e-47
2.93242e-47
8.80251e-48
2.03138e-48
3.74076e-49
5.06688e-50
4.18481e-51
7.48773e-53
3.4564e-55
1.06432e-56
2.09846e-58
2.56842e-60
2.13517e-62
1.48459e-64
1.37479e-66
1.85419e-65
6.93113e-67
3.48567e-69
3.60724e-71
3.96942e-73
4.11629e-75
3.98581e-77
3.54447e-79
2.81938e-81
1.91623e-83
1.00289e-85
2.56391e-88
1.77274e-91
2.44842e-94
7.68463e-97
2.43875e-99
5.8304e-102
9.2728e-105
7.56043e-108
2.11689e-43
1.84152e-43
1.45018e-43
1.01718e-43
6.27764e-44
3.37068e-44
1.55208e-44
6.02167e-45
1.92031e-45
4.80734e-46
9.41136e-47
1.41247e-47
1.38278e-48
4.67302e-50
2.8267e-52
5.16569e-54
1.18879e-55
1.72642e-57
1.68993e-59
1.35059e-61
1.40134e-63
1.70046e-62
7.60906e-64
4.32238e-66
4.93521e-68
6.15503e-70
7.23533e-72
7.94333e-74
8.01721e-76
7.251e-78
5.62414e-80
3.39355e-82
1.06897e-84
7.58724e-88
1.11296e-90
4.1984e-93
1.4966e-95
4.04085e-98
7.68385e-101
7.14683e-104
3.19331e-41
2.80319e-41
2.23939e-41
1.60225e-41
1.01472e-41
5.62744e-42
2.6962e-42
1.09784e-42
3.71382e-43
1.00567e-43
2.09699e-44
3.46911e-45
3.93862e-46
2.12197e-47
2.51537e-49
2.20114e-51
5.89772e-53
1.01487e-54
1.17328e-56
1.08146e-58
1.25755e-60
1.37221e-59
7.0979e-61
4.67885e-63
5.94183e-65
8.39437e-67
1.1182e-68
1.39126e-70
1.59293e-72
1.63723e-74
1.44821e-76
1.00595e-78
3.85519e-81
2.9216e-84
4.47355e-87
2.0326e-89
8.12881e-92
2.71277e-94
5.99725e-97
6.19983e-100
4.29117e-39
3.80034e-39
3.07876e-39
2.24601e-39
1.45888e-39
8.35111e-40
4.15986e-40
1.77585e-40
6.36332e-41
1.85791e-41
4.14587e-42
7.50976e-43
9.73887e-44
7.11612e-45
1.20173e-46
8.22797e-49
2.56082e-50
5.21046e-52
7.12955e-54
7.60879e-56
9.92258e-58
9.73697e-57
5.82591e-58
4.47126e-60
6.29894e-62
1.0073e-63
1.51966e-65
2.14084e-67
2.7772e-69
3.23862e-71
3.26013e-73
2.59788e-75
1.19307e-77
9.92837e-81
1.57039e-83
8.6246e-86
4.10937e-88
1.59136e-90
4.07904e-93
4.96844e-96
5.13378e-37
4.58585e-37
3.76615e-37
2.80015e-37
1.86443e-37
1.10089e-37
5.69662e-38
2.54697e-38
9.65331e-39
3.02004e-39
7.40452e-40
1.43636e-40
2.0978e-41
1.93549e-42
4.69789e-44
2.69827e-46
9.7279e-48
2.33364e-49
3.78196e-51
4.68794e-53
6.86179e-55
6.08059e-54
4.20529e-55
3.76747e-57
5.87057e-59
1.06148e-60
1.81229e-62
2.88801e-64
4.23989e-66
5.60123e-68
6.40198e-70
5.82809e-72
3.15816e-74
2.9302e-77
5.17964e-80
3.19366e-82
1.82744e-84
8.09344e-87
2.39127e-89
3.40423e-92
5.46452e-35
4.92237e-35
4.0966e-35
3.10289e-35
2.11667e-35
1.28835e-35
6.91957e-36
3.23674e-36
1.29573e-36
4.33358e-37
1.16305e-37
2.41885e-38
3.95101e-39
4.38835e-40
2.07356e-41
2.5735e-43
3.231e-45
9.10908e-47
1.74792e-48
2.52405e-50
4.15102e-52
3.33227e-51
2.6637e-52
2.79654e-54
4.80623e-56
9.81305e-58
1.89442e-59
3.41086e-61
5.65896e-63
8.45473e-65
1.09462e-66
1.13381e-68
7.15063e-71
7.41927e-74
1.49853e-76
1.06464e-78
7.0387e-81
3.54635e-83
1.19905e-85
1.97486e-88
5.17182e-33
4.69682e-33
3.9598e-33
3.05411e-33
2.1333e-33
1.33757e-33
7.45027e-34
3.64217e-34
1.53785e-34
5.48711e-35
1.60387e-35
3.6026e-36
6.52047e-37
8.46732e-38
6.06034e-39
1.23271e-40
9.37455e-43
3.09685e-44
7.02833e-46
1.18581e-47
2.19473e-49
1.60145e-48
1.47952e-49
1.82846e-51
3.45665e-53
7.95747e-55
1.73557e-56
3.52618e-58
6.60045e-60
1.11285e-61
1.62737e-63
1.90951e-65
1.38459e-67
1.59749e-70
3.76969e-73
3.13744e-75
2.3424e-77
1.33469e-79
5.12389e-82
9.65837e-85
4.34924e-31
3.9812e-31
3.39902e-31
2.66834e-31
1.90745e-31
1.23113e-31
7.10553e-32
3.62643e-32
1.61275e-32
6.12698e-33
1.93493e-33
4.82723e-34
9.46301e-35
1.40634e-35
1.33926e-36
4.011e-38
2.37433e-40
9.16928e-42
2.45655e-43
4.85139e-45
1.01228e-46
6.74407e-46
7.1971e-47
1.05198e-48
2.18267e-50
5.65555e-52
1.39257e-53
3.18957e-55
6.72776e-57
1.27802e-58
2.10597e-60
2.78789e-62
2.29746e-64
2.89478e-67
8.24385e-70
8.02807e-72
6.74639e-74
4.32726e-76
1.87423e-78
4.0067e-81
3.24744e-29
2.9956e-29
2.58909e-29
2.06787e-29
1.51195e-29
1.00387e-29
5.9984e-30
3.19262e-30
1.49338e-30
6.02925e-31
2.05028e-31
5.65284e-32
1.20506e-32
2.02502e-33
2.37728e-34
1.33587e-35
2.63891e-37
2.36567e-39
7.46205e-41
1.72651e-42
4.06997e-44
2.49559e-43
3.06823e-44
5.32361e-46
1.21062e-47
3.52355e-49
9.78652e-51
2.52402e-52
5.99072e-54
1.28005e-55
2.37204e-57
3.53203e-59
3.28263e-61
4.39e-64
1.5682e-66
1.78469e-68
1.68314e-70
1.21078e-72
5.88765e-75
1.41759e-77
2.15117e-27
1.99924e-27
1.74867e-27
1.4203e-27
1.06159e-27
7.2458e-28
4.4785e-28
2.48318e-28
1.22001e-28
5.22473e-29
1.90787e-29
5.76344e-30
1.36109e-30
2.5408e-31
3.52577e-32
2.99879e-33
8.81991e-35
5.3135e-37
1.96858e-38
5.33565e-40
1.42369e-41
8.10259e-41
1.14491e-41
2.36807e-43
5.90042e-45
1.92486e-46
6.02674e-48
1.74881e-49
4.66515e-51
1.1195e-52
2.32796e-54
3.88646e-56
4.04227e-58
5.48706e-61
2.68582e-63
3.45738e-65
3.64961e-67
2.93729e-69
1.59815e-71
4.3124e-74
1.26303e-25
1.18238e-25
1.04625e-25
8.63805e-26
6.5965e-26
4.62518e-26
2.95453e-26
1.70474e-26
8.78533e-27
3.98359e-27
1.55803e-27
5.11755e-28
1.35519e-28
2.78308e-29
4.45661e-30
4.96202e-31
2.59036e-32
5.9652e-34
4.51362e-36
1.43232e-37
4.48883e-39
2.38362e-38
3.43734e-39
8.37025e-41
2.46976e-42
9.08405e-44
3.20491e-45
1.04729e-46
3.14204e-48
8.47006e-50
1.97601e-51
3.69458e-53
4.28163e-55
5.69321e-58
4.0396e-60
5.85388e-62
6.89174e-64
6.1974e-66
3.76619e-68
1.13629e-70
6.56571e-24
6.19003e-24
5.5394e-24
4.64693e-24
3.62364e-24
2.60822e-24
1.72043e-24
1.0319e-24
5.57043e-25
2.66962e-25
1.11555e-25
3.96875e-26
1.16553e-26
2.67921e-27
4.85437e-28
6.56663e-29
5.6062e-30
1.88495e-31
3.10201e-33
3.34713e-35
9.96674e-36
7.39656e-36
5.95048e-37
2.12121e-38
8.67808e-40
3.63644e-41
1.44135e-42
5.31095e-44
1.79468e-45
5.43911e-47
1.42387e-48
2.97991e-50
3.83375e-52
5.74099e-55
5.20925e-57
8.48377e-59
1.11687e-60
1.12275e-62
7.62423e-65
2.57392e-67
3.01806e-22
2.86497e-22
2.59206e-22
2.20842e-22
1.75752e-22
1.2977e-22
8.83119e-23
5.50018e-23
3.10598e-23
1.57054e-23
6.99515e-24
2.68623e-24
8.65947e-25
2.25912e-25
4.58282e-26
7.26647e-27
8.23314e-28
5.32864e-29
1.62695e-30
3.97401e-32
5.07532e-33
1.72467e-33
1.27419e-34
5.9474e-36
2.83288e-37
1.33458e-38
5.94035e-40
2.45806e-41
9.3175e-43
3.16321e-44
9.26012e-46
2.16138e-47
3.06803e-49
4.82056e-52
5.6092e-54
1.02893e-55
1.51655e-57
1.70722e-59
1.2981e-61
4.91809e-64
1.22487e-20
1.17054e-20
1.07035e-20
9.25779e-21
7.51487e-21
5.688e-21
3.9899e-21
2.57752e-21
1.52056e-21
8.09837e-22
3.83577e-22
1.58473e-22
5.57921e-23
1.62763e-23
3.77747e-24
6.8514e-25
9.50286e-26
9.1214e-27
5.10156e-28
1.81475e-29
2.09132e-30
3.50619e-31
2.68322e-32
1.50064e-33
8.15724e-35
4.31702e-36
2.1563e-37
1.00071e-38
4.24955e-40
1.61397e-41
5.27624e-43
1.37112e-44
2.13863e-46
3.84689e-49
5.59196e-51
1.15392e-52
1.90039e-54
2.39135e-56
2.03244e-58
8.63143e-61
4.37954e-19
4.2126e-19
3.89194e-19
3.41599e-19
2.82677e-19
2.19176e-19
1.58334e-19
1.05981e-19
6.52279e-20
3.65285e-20
1.83576e-20
8.13404e-21
3.11338e-21
1.0054e-21
2.66409e-22
5.55324e-23
9.0791e-24
1.11537e-24
9.57121e-26
5.94064e-27
4.90072e-28
6.27176e-29
5.15022e-30
3.33043e-31
2.05187e-32
1.22026e-33
6.8414e-35
3.56038e-36
1.69313e-37
7.1895e-39
2.62231e-40
7.57647e-42
1.29269e-43
2.78682e-46
4.9097e-48
1.13954e-49
2.09913e-51
2.95419e-53
2.80882e-55
1.33914e-57
1.37438e-17
1.33044e-17
1.2415e-17
1.1053e-17
9.31908e-18
7.39816e-18
5.50035e-18
3.81124e-18
2.44433e-18
1.43711e-18
7.64698e-19
3.62304e-19
1.50134e-19
5.33356e-20
1.58778e-20
3.85548e-21
7.33639e-22
1.08899e-22
1.21785e-23
1.02368e-24
8.81614e-26
9.95843e-27
8.76815e-28
6.48566e-29
4.52935e-30
3.03004e-31
1.9076e-32
1.11339e-33
5.92873e-35
2.81373e-36
1.14433e-37
3.6717e-39
6.81982e-41
1.80726e-43
3.75496e-45
9.81018e-47
2.02221e-48
3.18499e-50
3.39037e-52
1.81665e-54
3.8028e-16
3.70417e-16
3.48874e-16
3.14727e-16
2.69997e-16
2.19032e-16
1.67209e-16
1.19659e-16
7.97869e-17
4.91371e-17
2.76206e-17
1.39517e-17
6.23447e-18
2.42331e-18
8.03997e-19
2.22736e-19
5.01491e-20
8.89125e-21
1.21637e-21
1.29719e-22