/*--------------------------------*- C++ -*----------------------------------*\
  =========                 |
  \\      /  F ield         | OpenFOAM: The Open Source CFD Toolbox
   \\    /   O peration     | Website:  https://openfoam.org
    \\  /    A nd           | Version:  8
     \\/     M anipulation  |
\*---------------------------------------------------------------------------*/
FoamFile
{
    version     2.0;
    format      ascii;
    class       surfaceScalarField;
    location    "0.15";
    object      alphaPhi0.water;
}
// * * * * * * * * * * * * * * * * * * * * * * * * * * * * * * * * * * * * * //

dimensions      [0 3 -1 0 0 0 0];

internalField   nonuniform List<scalar> 
18095
(
1.57397e-07
-9.60616e-07
8.0322e-07
1.66129e-07
-1.24852e-06
1.23979e-06
1.22708e-07
-1.24475e-06
1.28817e-06
6.55684e-08
-1.2647e-06
1.32184e-06
-9.87534e-14
-1.28141e-06
1.34698e-06
-6.55685e-08
-1.28141e-06
1.34698e-06
-1.22708e-07
-1.2647e-06
1.32184e-06
-1.66129e-07
-1.24475e-06
1.28817e-06
-1.57397e-07
-1.24852e-06
1.23979e-06
-9.60616e-07
8.03219e-07
1.11211e-07
-1.07183e-06
1.00981e-07
-1.23829e-06
7.35955e-08
-1.21736e-06
4.03204e-08
-1.23143e-06
-3.85778e-14
-1.24109e-06
-4.03204e-08
-1.24109e-06
-7.35956e-08
-1.23143e-06
-1.00981e-07
-1.21736e-06
-1.11211e-07
-1.23829e-06
-1.07183e-06
6.8462e-08
-1.14029e-06
5.42037e-08
-1.22403e-06
4.27774e-08
-1.20594e-06
2.41552e-08
-1.21281e-06
-5.2075e-14
-1.21694e-06
-2.41553e-08
-1.21694e-06
-4.27775e-08
-1.21281e-06
-5.42038e-08
-1.20594e-06
-6.84621e-08
-1.22403e-06
-1.14029e-06
4.15176e-08
-1.18181e-06
2.77264e-08
-1.21024e-06
2.25417e-08
-1.20075e-06
1.2774e-08
-1.20304e-06
1.72556e-14
-1.20416e-06
-1.2774e-08
-1.20416e-06
-2.25417e-08
-1.20304e-06
-2.77265e-08
-1.20075e-06
-4.15177e-08
-1.21024e-06
-1.18181e-06
1.81931e-08
7.95256e-09
7.20073e-09
4.16297e-09
-6.93327e-14
-4.16304e-09
-7.20072e-09
-7.95255e-09
-1.81932e-08
-1.73508e-07
-1.16029e-06
1.33379e-06
-2.1675e-07
-1.21534e-06
1.25858e-06
-1.63829e-07
-1.21514e-06
1.16222e-06
-8.68948e-08
-1.20551e-06
1.12858e-06
6.41243e-14
-1.20372e-06
1.11683e-06
8.68949e-08
-1.20372e-06
1.11683e-06
1.63829e-07
-1.20551e-06
1.12858e-06
2.1675e-07
-1.21514e-06
1.16222e-06
1.73508e-07
-1.21534e-06
1.25858e-06
-1.16028e-06
1.33379e-06
-9.26844e-08
-1.0676e-06
-9.59706e-08
-1.21205e-06
-7.91945e-08
-1.23191e-06
-4.42138e-08
-1.24049e-06
7.85704e-14
-1.24794e-06
4.42139e-08
-1.24794e-06
7.91947e-08
-1.24049e-06
9.59708e-08
-1.23191e-06
9.26845e-08
-1.21205e-06
-1.0676e-06
-5.82138e-08
-1.00939e-06
-5.57021e-08
-1.21457e-06
-4.68159e-08
-1.2408e-06
-2.72587e-08
-1.26005e-06
-3.67004e-14
-1.2752e-06
2.72586e-08
-1.2752e-06
4.68158e-08
-1.26005e-06
5.57019e-08
-1.2408e-06
5.82134e-08
-1.21457e-06
-1.00939e-06
-7.51714e-08
-9.34216e-07
-6.23098e-08
-1.22743e-06
-4.87661e-08
-1.25434e-06
-2.78244e-08
-1.28099e-06
-7.06279e-14
-1.30302e-06
2.78242e-08
-1.30302e-06
4.8766e-08
-1.28099e-06
6.23097e-08
-1.25434e-06
7.51713e-08
-1.22743e-06
-9.34215e-07
-1.30996e-07
-1.18636e-07
-8.48103e-08
-4.39617e-08
-2.95149e-14
4.39616e-08
8.48101e-08
1.18636e-07
1.30996e-07
-6.67301e-08
-9.47597e-07
1.01433e-06
-9.42753e-09
-1.32865e-06
1.27135e-06
5.64995e-09
-1.27288e-06
1.2578e-06
2.12177e-09
-1.22754e-06
1.23107e-06
-6.52101e-13
-1.22333e-06
1.22546e-06
-2.12306e-09
-1.22333e-06
1.22546e-06
-5.65134e-09
-1.22754e-06
1.23107e-06
9.42613e-09
-1.27288e-06
1.2578e-06
6.67288e-08
-1.32865e-06
1.27135e-06
-9.47595e-07
1.01432e-06
4.02479e-09
-9.51622e-07
1.38378e-08
-1.33846e-06
1.05059e-08
-1.26955e-06
4.9221e-09
-1.22196e-06
-3.45063e-13
-1.21841e-06
-4.92294e-09
-1.21841e-06
-1.05066e-08
-1.22196e-06
-1.38385e-08
-1.26955e-06
-4.02531e-09
-1.33846e-06
-9.51621e-07
2.38289e-08
-9.75451e-07
1.82091e-08
-1.33284e-06
1.09996e-08
-1.26234e-06
6.30211e-09
-1.21726e-06
-2.94261e-13
-1.21211e-06
-6.30261e-09
-1.21211e-06
-1.1e-08
-1.21726e-06
-1.82095e-08
-1.26234e-06
-2.38293e-08
-1.33284e-06
-9.7545e-07
7.57586e-08
-1.05121e-06
5.11995e-08
-1.30828e-06
3.25599e-08
-1.2437e-06
2.05238e-08
-1.20522e-06
-2.72988e-13
-1.19159e-06
-2.05243e-08
-1.19159e-06
-3.25604e-08
-1.20522e-06
-5.11999e-08
-1.2437e-06
-7.57589e-08
-1.30828e-06
-1.05121e-06
2.82584e-07
2.32882e-07
1.51401e-07
7.47577e-08
1.4736e-13
-7.47575e-08
-1.51401e-07
-2.32882e-07
-2.82584e-07
-2.03116e-127
-4.77419e-128
1.52814e-127
-1.98388e-127
-7.10279e-128
-1.46475e-127
-9.10281e-128
-5.61868e-128
-1.11916e-127
7.63229e-128
-1.33702e-127
2.23439e-127
-1.46743e-127
2.8753e-127
-1.26491e-127
3.10231e-127
-1.01946e-127
2.76198e-127
-7.52341e-128
-4.76948e-128
1.94165e-127
-9.6881e-126
-1.80635e-125
9.76952e-126
-8.42171e-126
-2.22141e-125
-5.96627e-126
-2.61548e-125
-2.45252e-126
-2.95206e-125
1.7358e-126
-3.16511e-125
5.98601e-126
-3.20715e-125
9.46748e-126
-3.06412e-125
1.169e-125
-2.75823e-125
1.25211e-125
-2.34767e-125
-1.89545e-125
1.20557e-125
-5.58289e-122
-1.1341e-121
5.53351e-122
-4.96236e-122
-1.40574e-121
-3.6388e-122
-1.65969e-121
-1.70638e-122
-1.86419e-121
5.86296e-123
-1.98376e-121
2.88735e-122
-1.99756e-121
4.77125e-122
-1.90161e-121
6.00902e-122
-1.71088e-121
6.52253e-122
-1.45948e-121
-1.18398e-121
6.35794e-122
-2.0827e-118
-4.74055e-118
2.06331e-118
-1.86876e-118
-5.85607e-118
-1.40348e-118
-6.89496e-118
-7.19793e-119
-7.71718e-118
9.94484e-120
-8.18499e-118
9.23458e-119
-8.22477e-118
1.60708e-118
-7.82476e-118
2.07019e-118
-7.0504e-118
2.28108e-118
-6.03579e-118
-4.92333e-118
2.25179e-118
-6.01239e-115
-1.5186e-114
5.97768e-115
-5.40473e-115
-1.87135e-114
-4.11399e-115
-2.19911e-114
-2.22723e-115
-2.45745e-114
4.32198e-117
-2.60326e-114
2.32884e-115
-2.61427e-114
4.25068e-115
-2.48701e-114
5.58672e-115
-2.24282e-114
6.24185e-115
-1.92349e-114
-1.57321e-114
6.23773e-115
-1.41385e-111
-4.13011e-111
1.41401e-111
-1.26919e-111
-5.04856e-111
-9.72809e-112
-5.89568e-111
-5.44493e-112
-6.55949e-111
-2.92775e-113
-6.93117e-111
4.89255e-112
-6.95552e-111
9.30287e-112
-6.62386e-111
1.24383e-111
-5.99189e-111
1.40716e-111
-5.16475e-111
-4.25328e-111
1.42281e-111
-2.81618e-108
-9.21567e-108
2.83647e-108
-2.51919e-108
-1.1172e-107
-1.93564e-108
-1.29628e-107
-1.10462e-108
-1.43579e-107
-1.08381e-109
-1.51336e-107
8.93362e-109
-1.51774e-107
1.7532e-108
-1.44719e-107
2.37626e-108
-1.3134e-107
2.71719e-108
-1.138e-107
-9.43689e-108
2.77685e-108
-4.8673e-105
-1.73935e-104
4.94001e-105
-4.33321e-105
-2.09145e-104
-3.32781e-105
-2.41132e-104
-1.91888e-105
-2.65899e-104
-2.38637e-106
-2.79582e-104
1.44903e-105
-2.80234e-104
2.90841e-105
-2.67567e-104
3.98371e-105
-2.43642e-104
4.59685e-105
-2.12207e-104
-1.7719e-104
4.74339e-105
-7.40948e-102
-2.83315e-101
7.5802e-102
-6.55923e-102
-3.37998e-101
-5.02433e-102
-3.8729e-101
-2.90885e-102
-4.25234e-101
-4.01981e-103
-4.46062e-101
2.11328e-102
-4.46873e-101
4.3018e-102
-4.27268e-101
5.93857e-102
-3.90359e-101
6.90555e-102
-3.41753e-101
-2.87297e-101
7.18831e-102
-1.00301e-98
-4.03684e-98
1.03443e-98
-8.82437e-99
-4.77971e-98
-6.73265e-99
-5.44422e-98
-3.89687e-99
-5.95286e-98
-5.59707e-100
-6.23036e-98
2.78555e-99
-6.23888e-98
5.71181e-99
-5.97365e-98
7.93018e-99
-5.47566e-98
9.28219e-99
-4.81821e-98
-4.07737e-98
9.73961e-99
-1.21437e-95
-5.07774e-95
1.26258e-95
-1.0615e-95
-5.96855e-95
-8.05944e-96
-6.75969e-95
-4.65002e-96
-7.36185e-95
-6.66725e-97
-7.6886e-95
3.32316e-96
-7.69619e-95
6.82998e-96
-7.37962e-95
9.52201e-96
-6.78647e-95
1.12093e-95
-6.00134e-95
-5.11146e-95
1.18486e-95
-1.31941e-92
-5.67304e-92
1.3828e-92
-1.14582e-92
-6.62179e-92
-8.65284e-93
-7.45874e-92
-4.9673e-93
-8.09226e-92
-6.92551e-94
-8.43438e-92
3.58653e-93
-8.44003e-92
7.36405e-93
-8.10461e-92
1.02983e-92
-7.47712e-92
1.21851e-92
-6.64421e-92
-5.69468e-92
1.29691e-92
-1.28865e-89
-5.65229e-89
1.36121e-89
-1.11186e-89
-6.55344e-89
-8.34886e-90
-7.34333e-89
-4.76306e-90
-7.93803e-89
-6.3369e-91
-8.25784e-89
3.49768e-90
-8.26122e-89
7.16002e-90
-7.94445e-89
1.0037e-89
-7.35248e-89
1.19316e-89
-6.56443e-89
-5.66086e-89
1.27826e-89
-1.13212e-86
-5.03497e-86
1.20503e-86
-9.70558e-87
-5.80027e-86
-7.24579e-87
-6.46687e-86
-4.10523e-87
-6.96621e-86
-5.13781e-88
-7.2337e-86
3.07786e-87
-7.23513e-86
6.27473e-87
-6.96781e-86
8.81333e-87
-6.4686e-86
1.05231e-86
-5.80202e-86
-5.0334e-86
1.13447e-86
-8.9459e-84
-4.0158e-83
9.5931e-84
-7.62095e-84
-4.59765e-83
-5.65672e-84
-5.10134e-83
-3.18149e-84
-5.47688e-83
-3.70319e-85
-5.67735e-83
2.44014e-84
-5.67751e-83
4.95204e-84
-5.47565e-83
6.96759e-84
-5.09882e-83
8.35431e-84
-4.59409e-83
-4.00889e-83
9.06175e-84
-6.35487e-81
-2.86982e-80
6.86412e-81
-5.38031e-81
-3.26609e-80
-3.97092e-81
-3.60705e-80
-2.21666e-81
-3.86018e-80
-2.37719e-82
-3.99487e-80
1.74037e-81
-3.99447e-80
3.51581e-81
-3.85799e-80
4.95486e-81
-3.60322e-80
5.96526e-81
-3.26091e-80
-2.86193e-80
6.50909e-81
-4.05526e-78
-1.8379e-77
4.41122e-78
-3.4127e-78
-2.07963e-77
-2.50478e-78
-2.28642e-77
-1.38785e-78
-2.43933e-77
-1.35897e-79
-2.52047e-77
1.11536e-78
-2.51998e-77
2.24314e-78
-2.43736e-77
3.16625e-78
-2.28309e-77
3.82711e-78
-2.07515e-77
-1.83158e-77
4.20053e-78
-2.32261e-75
-1.05461e-74
2.5439e-75
-1.94311e-75
-1.18663e-74
-1.41849e-75
-1.29894e-74
-7.80236e-76
-1.38171e-74
-6.91509e-77
-1.42551e-74
6.41487e-76
-1.42514e-74
1.28467e-75
-1.38037e-74
1.81619e-75
-1.29673e-74
2.20386e-75
-1.18363e-74
-1.05055e-74
2.43288e-75
-1.19276e-72
-5.41954e-72
1.31519e-72
-9.92172e-73
-6.06461e-72
-7.2052e-73
-6.61053e-72
-3.93508e-73
-7.01163e-72
-3.1276e-74
-7.22342e-72
3.30715e-73
-7.22125e-72
6.59706e-73
-7.00423e-72
9.34124e-73
-6.59844e-72
1.13792e-72
-6.04807e-72
-5.39772e-72
1.26334e-72
-5.48663e-70
-2.49261e-69
6.0895e-70
-4.53853e-70
-2.77435e-69
-3.27927e-70
-3.01162e-69
-1.77861e-70
-3.18553e-69
-1.25457e-71
-3.27714e-69
1.52661e-70
-3.2761e-69
3.03428e-70
-3.18207e-69
4.30339e-70
-3.00605e-69
5.26243e-70
-2.76661e-69
-2.48265e-69
5.87527e-70
-2.25833e-67
-1.02526e-66
2.52255e-67
-1.85794e-67
-1.13513e-66
-1.33588e-67
-1.22726e-66
-7.19739e-68
-1.29464e-66
-4.45497e-69
-1.33008e-66
6.30212e-68
-1.32965e-66
1.24855e-67
-1.29327e-66
1.77371e-67
-1.22507e-66
2.1773e-67
-1.13202e-66
-1.02134e-66
2.44433e-67
-8.30896e-65
-3.76824e-64
9.33938e-65
-6.7998e-65
-4.15025e-64
-4.86614e-65
-4.46954e-64
-2.60513e-65
-4.70265e-64
-1.39968e-66
-4.82501e-64
2.32374e-65
-4.82354e-64
4.59079e-65
-4.69796e-64
6.53307e-65
-4.4621e-64
8.05019e-65
-4.13949e-64
-3.75483e-64
9.08698e-65
-2.72976e-62
-1.23643e-61
3.08718e-62
-2.22257e-62
-1.35473e-61
-1.58335e-62
-1.45339e-61
-8.42613e-63
-1.52529e-61
-3.89236e-64
-1.56297e-61
7.64334e-63
-1.56252e-61
1.50652e-62
-1.52389e-61
2.14781e-62
-1.45118e-61
2.65668e-62
-1.35149e-61
-1.2324e-61
3.01504e-62
-7.99935e-60
-3.61841e-59
9.10122e-60
-6.48097e-60
-3.94427e-59
-4.59703e-60
-4.21571e-59
-2.43292e-60
-4.41319e-59
-9.58957e-62
-4.51654e-59
2.23999e-60
-4.51536e-59
4.40707e-60
-4.40952e-59
6.29519e-60
-4.20992e-59
7.81648e-60
-3.93569e-59
-3.60767e-59
8.91823e-60
-2.08866e-57
-9.43531e-57
2.39035e-57
-1.68413e-57
-1.02327e-56
-1.18965e-57
-1.0897e-56
-6.26453e-58
-1.13794e-56
-2.09968e-59
-1.16315e-56
5.84191e-58
-1.16288e-56
1.14793e-57
-1.13709e-56
1.64311e-57
-1.08836e-56
2.048e-57
-1.02129e-56
-9.40979e-57
2.349e-57
-4.85399e-55
-2.19009e-54
5.58705e-55
-3.89592e-55
-2.36325e-54
-2.74131e-55
-2.5077e-54
-1.43708e-55
-2.61234e-54
-4.10917e-57
-2.66702e-54
1.35436e-55
-2.66647e-54
2.65948e-55
-2.61066e-54
3.81505e-55
-2.50496e-54
4.77341e-55
-2.35924e-54
-2.18465e-54
5.50345e-55
-1.00302e-52
-4.5208e-52
1.16094e-52
-8.01508e-53
-4.85414e-52
-5.61895e-53
-5.13291e-52
-2.93405e-53
-5.33432e-52
-7.22541e-55
-5.4396e-52
2.78867e-53
-5.43869e-52
5.47504e-53
-5.33152e-52
7.87219e-53
-5.12808e-52
9.88738e-53
-4.84717e-52
-4.51041e-52
1.14579e-52
-1.84114e-50
-8.291e-50
2.14246e-50
-1.46503e-50
-8.85964e-50
-1.02349e-50
-9.33652e-50
-5.32591e-51
-9.68019e-50
-1.14411e-52
-9.86e-50
5.09602e-51
-9.85875e-50
1.00078e-50
-9.67634e-50
1.44242e-50
-9.32928e-50
1.81853e-50
-8.84929e-50
-8.27349e-50
2.11796e-50
-2.99954e-48
-1.34975e-47
3.5084e-48
-2.37701e-48
-1.43568e-47
-1.65518e-48
-1.5079e-47
-8.5861e-49
-1.55984e-47
-1.62208e-50
-1.58706e-47
8.26084e-49
-1.58692e-47
1.62318e-48
-1.55943e-47
2.34522e-48
-1.50701e-47
2.96775e-48
-1.43438e-47
-1.3472e-47
3.47334e-48
-4.33379e-46
-1.94898e-45
5.09399e-46
-3.42068e-46
-2.06394e-45
-2.37439e-46
-2.16066e-45
-1.22802e-46
-2.23013e-45
-2.02738e-48
-2.26657e-45
1.18745e-46
-2.26647e-45
2.33467e-46
-2.22981e-45
3.38139e-46
-2.15978e-45
4.29454e-46
-2.06259e-45
-1.94584e-45
5.05022e-46
-5.54899e-44
-2.49427e-43
6.55334e-44
-4.36271e-44
-2.63032e-43
-3.01891e-44
-2.7447e-43
-1.5567e-44
-2.82684e-43
-2.19226e-46
-2.86996e-43
1.51291e-44
-2.86992e-43
2.97622e-44
-2.82671e-43
4.32074e-44
-2.74407e-43
5.50703e-44
-2.62918e-43
-2.49108e-43
6.50631e-44
-6.29204e-42
-2.82727e-41
7.46536e-42
-4.92786e-42
-2.96944e-41
-3.39956e-42
-3.08874e-41
-1.74765e-42
-3.17447e-41
-2.01985e-44
-3.21947e-41
1.70735e-42
-3.21949e-41
3.36038e-42
-3.17455e-41
4.88958e-42
-3.08849e-41
6.25363e-42
-2.96868e-41
-2.82463e-41
7.42214e-42
-6.31412e-40
-2.83647e-39
7.52585e-40
-4.92654e-40
-2.96734e-39
-3.38844e-40
-3.07695e-39
-1.73678e-40
-3.15581e-39
-1.58966e-42
-3.19718e-39
1.70508e-40
-3.19725e-39
3.35767e-40
-3.15603e-39
4.89664e-40
-3.07706e-39
6.28398e-40
-2.967e-39
-2.83469e-39
7.49161e-40
-5.604e-38
-2.51686e-37
6.7097e-38
-4.35654e-38
-2.62267e-37
-2.98777e-38
-2.71129e-37
-1.52733e-38
-2.7751e-37
-1.10747e-40
-2.80859e-37
1.50528e-38
-2.80869e-37
2.96646e-38
-2.77541e-37
4.33602e-38
-2.71166e-37
5.58327e-38
-2.62273e-37
-2.51588e-37
6.68558e-38
-4.39595e-36
-1.97357e-35
5.28671e-36
-3.4055e-36
-2.04854e-35
-2.32919e-36
-2.1115e-35
-1.18801e-36
-2.15684e-35
-7.25127e-39
-2.18068e-35
1.17364e-36
-2.1808e-35
2.31548e-36
-2.1572e-35
3.39249e-36
-2.11198e-35
4.38297e-36
-2.04886e-35
-1.97313e-35
5.27102e-36
-3.04522e-34
-1.36635e-33
3.67815e-34
-2.35122e-34
-1.4128e-33
-1.604e-34
-1.45202e-33
-8.16595e-35
-1.48026e-33
-4.53901e-37
-1.49517e-33
8.07663e-35
-1.49528e-33
1.59565e-34
-1.48061e-33
2.34346e-34
-1.45248e-33
3.03768e-34
-1.41321e-33
-1.36618e-33
3.66865e-34
-1.86097e-32
-8.34309e-32
2.25721e-32
-1.43217e-32
-8.59424e-32
-9.74595e-33
-8.8079e-32
-4.95286e-33
-8.96177e-32
-2.54856e-35
-9.04343e-32
4.90307e-33
-9.04427e-32
9.70038e-33
-8.96436e-32
1.42801e-32
-8.8113e-32
1.85702e-32
-8.59761e-32
-8.3426e-32
2.25203e-32
-1.00192e-30
-4.48748e-30
1.22021e-30
-7.6856e-31
-4.60568e-30
-5.21717e-31
-4.70709e-30
-2.6464e-31
-4.7802e-30
-1.19293e-33
-4.81923e-30
2.6232e-31
-4.81972e-30
5.19625e-31
-4.78173e-30
7.66675e-31
-4.70906e-30
1.00013e-30
-4.60772e-30
-4.48739e-30
1.21776e-30
-4.7446e-29
-2.12296e-28
5.80131e-29
-3.62788e-29
-2.17117e-28
-2.45668e-29
-2.2129e-28
-1.24372e-29
-2.2431e-28
-4.60524e-32
-2.25931e-28
1.23478e-29
-2.25954e-28
2.44867e-29
-2.24382e-28
3.62071e-29
-2.21385e-28
4.73764e-29
-2.17214e-28
-2.12298e-28
5.79127e-29
-1.97244e-27
-8.81769e-27
2.42106e-27
-1.50346e-27
-8.98687e-27
-1.0157e-27
-9.1349e-27
-5.13266e-28
-9.24273e-27
-1.57117e-30
-9.30094e-27
5.10217e-28
-9.30186e-27
1.01298e-27
-9.2456e-27
1.50107e-27
-9.13882e-27
1.97002e-27
-8.99067e-27
-8.81803e-27
2.41746e-27
-7.17946e-26
-3.20544e-25
8.84603e-26
-5.45584e-26
-3.25582e-25
-3.67742e-26
-3.30072e-25
-1.85526e-26
-3.3337e-25
-5.02803e-29
-3.35166e-25
1.84555e-26
-3.35198e-25
3.6689e-26
-3.33471e-25
5.44853e-26
-3.30213e-25
7.17205e-26
-3.25714e-25
-3.2056e-25
8.83453e-26
-2.27951e-24
-1.01489e-23
2.81935e-24
-1.72709e-24
-1.02732e-23
-1.16149e-24
-1.0388e-23
-5.85051e-25
-1.04732e-23
-1.42965e-27
-1.05203e-23
5.82305e-25
-1.05212e-23
1.15912e-24
-1.04762e-23
1.72507e-24
-1.03922e-23
2.27745e-24
-1.02771e-23
-1.0149e-23
2.8159e-24
-6.29193e-23
-2.84272e-22
7.81119e-23
-4.75305e-23
-2.86773e-22
-3.18942e-23
-2.89233e-22
-1.60409e-23
-2.91095e-22
-3.57686e-26
-2.92152e-22
1.59721e-23
-2.92177e-22
3.18345e-23
-2.91177e-22
4.74775e-23
-2.89341e-22
6.28622e-23
-2.86872e-22
-2.84256e-22
7.80115e-23
-1.51272e-21
-7.39091e-21
1.8847e-21
-1.13939e-21
-7.42967e-21
-7.62953e-22
-7.47328e-21
-3.83198e-22
-7.50797e-21
-8.65266e-25
-7.52855e-21
3.81524e-22
-7.52917e-21
7.61472e-22
-7.50995e-21
1.13804e-21
-7.47589e-21
1.51118e-21
-7.43196e-21
-7.39038e-21
1.8821e-21
-3.07009e-20
-1.57388e-19
3.83716e-20
-2.30558e-20
-1.57336e-19
-1.54069e-20
-1.57627e-19
-7.72789e-21
-1.57954e-19
-1.79184e-23
-1.58197e-19
7.69324e-21
-1.58208e-19
1.5376e-20
-1.57989e-19
2.30276e-20
-1.57667e-19
3.06694e-20
-1.57363e-19
-1.5736e-19
3.83233e-20
-4.46805e-19
-1.58965e-18
5.60365e-19
-3.34803e-19
-1.5966e-18
-2.23349e-19
-1.60301e-18
-1.11865e-19
-1.60793e-18
-2.35551e-22
-1.61068e-18
1.11408e-19
-1.61078e-18
2.22929e-19
-1.60822e-18
3.34408e-19
-1.60347e-18
4.4628e-19
-1.59672e-18
-1.58878e-18
5.59368e-19
-4.92219e-18
-5.35145e-18
6.19427e-18
-3.67834e-18
-5.53637e-18
-2.44821e-18
-5.65155e-18
-1.22457e-18
-5.72194e-18
-2.1545e-21
-5.75173e-18
1.22033e-18
-5.75224e-18
2.44412e-18
-5.72332e-18
3.67387e-18
-5.65595e-18
4.91551e-18
-5.54143e-18
-5.35892e-18
6.18089e-18
-6.83875e-17
-9.361e-18
8.67335e-17
-5.0805e-17
-8.39217e-18
-3.36791e-17
-7.78546e-18
-1.68056e-17
-7.47663e-18
-2.62292e-20
-7.3704e-18
1.67529e-17
-7.3714e-18
3.36246e-17
-7.47223e-18
5.0737e-17
-7.76281e-18
6.82852e-17
-8.45998e-18
-9.71477e-18
8.65478e-17
-1.02456e-15
-2.68067e-16
1.30302e-15
-7.59106e-16
-2.45362e-16
-5.02136e-16
-2.29865e-16
-2.5015e-16
-2.21283e-16
-2.49776e-19
-2.17769e-16
2.49644e-16
-2.17776e-16
5.01571e-16
-2.21124e-16
7.58272e-16
-2.29293e-16
1.02318e-15
-2.45818e-16
-2.71956e-16
1.30049e-15
-1.3785e-14
-7.20519e-15
1.7563e-14
-1.01993e-14
-6.80498e-15
-6.73815e-15
-6.53846e-15
-3.35363e-15
-6.38458e-15
-2.11047e-18
-6.32002e-15
3.34924e-15
-6.31997e-15
6.73296e-15
-6.38236e-15
1.01898e-14
-6.52879e-15
1.37702e-14
-6.80592e-15
-7.23182e-15
1.75333e-14
-1.64626e-13
-1.28691e-13
2.09938e-13
-1.2175e-13
-1.23993e-13
-8.03857e-14
-1.21059e-13
-3.99997e-14
-1.1926e-13
-1.945e-17
-1.1853e-13
3.99607e-14
-1.18528e-13
8.03627e-14
-1.19262e-13
1.21691e-13
-1.20959e-13
1.6457e-13
-1.24004e-13
-1.28661e-13
2.09696e-13
-1.73474e-12
-1.69505e-12
2.21133e-12
-1.2833e-12
-1.64001e-12
-8.46586e-13
-1.60676e-12
-4.20826e-13
-1.58478e-12
5.919e-16
-1.57618e-12
4.21951e-13
-1.57609e-12
8.47893e-13
-1.58491e-12
1.28375e-12
-1.60517e-12
1.73577e-12
-1.64035e-12
-1.69178e-12
2.20969e-12
-1.5802e-11
-1.93985e-11
2.0089e-11
-1.16869e-11
-1.88891e-11
-7.70523e-12
-1.85442e-11
-3.81542e-12
-1.83205e-11
2.92575e-14
-1.82241e-11
3.86854e-12
-1.8218e-11
7.74655e-12
-1.83069e-11
1.17116e-11
-1.8516e-11
1.58086e-11
-1.88645e-11
-1.93512e-11
2.00735e-11
-1.2149e-10
-1.91549e-10
1.54688e-10
-8.95916e-11
-1.87142e-10
-5.91028e-11
-1.83603e-10
-2.94241e-11
-1.81495e-10
-1.63598e-13
-1.80537e-10
2.91437e-11
-1.80555e-10
5.88594e-11
-1.81449e-10
8.94238e-11
-1.83521e-10
1.21279e-10
-1.86896e-10
-1.91284e-10
1.54482e-10
-8.17576e-10
-1.72799e-09
1.04673e-09
-5.9989e-10
-1.68712e-09
-3.93664e-10
-1.65425e-09
-1.94826e-10
-1.63437e-09
4.63166e-13
-1.62559e-09
1.95591e-10
-1.62555e-09
3.94013e-10
-1.63377e-09
5.99487e-10
-1.65293e-09
8.16201e-10
-1.68484e-09
-1.72546e-09
1.04466e-09
-8.91058e-09
-1.53614e-07
1.14733e-08
-6.52271e-09
-1.5035e-07
-4.27364e-09
-1.48006e-07
-2.11457e-09
-1.46576e-07
1.46353e-12
-1.45993e-07
2.11656e-09
-1.45983e-07
4.27245e-09
-1.46521e-07
6.5152e-09
-1.47881e-07
8.89693e-09
-1.50166e-07
-1.53375e-07
1.14516e-08
-6.72496e-08
-5.53651e-07
8.45136e-08
-5.01789e-08
-5.53212e-07
-3.3305e-08
-5.52867e-07
-1.66018e-08
-5.52624e-07
1.05447e-11
-5.525e-07
1.66205e-08
-5.52499e-07
3.33184e-08
-5.52622e-07
5.0182e-08
-5.52862e-07
6.7245e-08
-5.53211e-07
-5.53646e-07
8.44996e-08
-9.14553e-08
-5.76147e-07
1.1395e-07
-6.87562e-08
-5.75912e-07
-4.59117e-08
-5.75712e-07
-2.29673e-08
-5.75569e-07
2.5852e-11
-5.75493e-07
2.30204e-08
-5.75493e-07
4.59666e-08
-5.75568e-07
6.88167e-08
-5.75713e-07
9.15185e-08
-5.75914e-07
-5.7615e-07
1.14022e-07
-9.04145e-08
-5.98361e-07
1.12629e-07
-6.79828e-08
-5.98344e-07
-4.53974e-08
-5.98297e-07
-2.27074e-08
-5.98259e-07
3.49685e-11
-5.98236e-07
2.27775e-08
-5.98236e-07
4.54685e-08
-5.98259e-07
6.80559e-08
-5.983e-07
9.04891e-08
-5.98347e-07
-5.9837e-07
1.12709e-07
-8.91294e-08
-6.20241e-07
1.1101e-07
-6.70278e-08
-6.20445e-07
-4.476e-08
-6.20565e-07
-2.23838e-08
-6.20635e-07
4.77659e-11
-6.20667e-07
2.24796e-08
-6.20668e-07
4.48571e-08
-6.20637e-07
6.71253e-08
-6.20568e-07
8.92289e-08
-6.2045e-07
-6.20249e-07
1.11108e-07
-8.7469e-08
-6.41674e-07
1.08902e-07
-6.57966e-08
-6.42118e-07
-4.39448e-08
-6.42416e-07
-2.19745e-08
-6.42605e-07
5.49576e-11
-6.42697e-07
2.20845e-08
-6.42697e-07
4.4055e-08
-6.42607e-07
6.59072e-08
-6.4242e-07
8.75805e-08
-6.42123e-07
-6.41681e-07
1.09013e-07
-8.52346e-08
-6.62478e-07
1.06039e-07
-6.41513e-08
-6.63201e-07
-4.2861e-08
-6.63706e-07
-2.1434e-08
-6.64032e-07
6.0631e-11
-6.64191e-07
2.15553e-08
-6.64192e-07
4.29821e-08
-6.64034e-07
6.42724e-08
-6.6371e-07
8.53554e-08
-6.63206e-07
-6.62485e-07
1.06159e-07
-8.23837e-08
-6.8246e-07
1.02366e-07
-6.20618e-08
-6.83522e-07
-4.14896e-08
-6.84278e-07
-2.07528e-08
-6.84768e-07
6.55423e-11
-6.8501e-07
2.08839e-08
-6.8501e-07
4.16206e-08
-6.8477e-07
6.21925e-08
-6.84282e-07
8.25137e-08
-6.83527e-07
-6.82466e-07
1.02495e-07
-7.91703e-08
-7.01529e-07
9.82402e-08
-5.97024e-08
-7.0299e-07
-3.99399e-08
-7.04041e-07
-1.99836e-08
-7.04725e-07
6.8948e-11
-7.05062e-07
2.01214e-08
-7.05063e-07
4.00776e-08
-7.04726e-07
5.98397e-08
-7.04043e-07
7.93073e-08
-7.02994e-07
-7.01535e-07
9.83764e-08
-7.60815e-08
-7.1977e-07
9.43223e-08
-5.74145e-08
-7.21657e-07
-3.84289e-08
-7.23026e-07
-1.92317e-08
-7.23922e-07
7.10196e-11
-7.24365e-07
1.93737e-08
-7.24365e-07
3.85708e-08
-7.23923e-07
5.75562e-08
-7.23029e-07
7.62227e-08
-7.21661e-07
-7.19775e-07
9.44629e-08
-7.36987e-08
-7.37447e-07
9.13762e-08
-5.56171e-08
-7.39738e-07
-3.72273e-08
-7.41416e-07
-1.863e-08
-7.42519e-07
7.15258e-11
-7.43066e-07
1.8773e-08
-7.43067e-07
3.73701e-08
-7.4252e-07
5.57595e-08
-7.41418e-07
7.38405e-08
-7.39742e-07
-7.37452e-07
9.15172e-08
-7.25294e-08
-7.54955e-07
9.0037e-08
-5.46887e-08
-7.57579e-07
-3.6586e-08
-7.59519e-07
-1.83035e-08
-7.60801e-07
7.03886e-11
-7.6144e-07
1.84441e-08
-7.6144e-07
3.67262e-08
-7.60802e-07
5.48282e-08
-7.5952e-07
7.26679e-08
-7.57581e-07
-7.54958e-07
9.01744e-08
-7.28838e-08
-7.72737e-07
9.06661e-08
-5.48729e-08
-7.7559e-07
-3.66723e-08
-7.77719e-07
-1.83374e-08
-7.79136e-07
6.67738e-11
-7.79844e-07
1.84708e-08
-7.79844e-07
3.68051e-08
-7.79137e-07
5.50048e-08
-7.7772e-07
7.30146e-08
-7.75591e-07
-7.72739e-07
9.07952e-08
-7.47795e-08
-7.91185e-07
9.32271e-08
-5.62075e-08
-7.94162e-07
-3.75223e-08
-7.96404e-07
-1.87528e-08
-7.97906e-07
6.13268e-11
-7.98658e-07
1.88753e-08
-7.98658e-07
3.76443e-08
-7.97906e-07
5.63287e-08
-7.96404e-07
7.48993e-08
-7.94162e-07
-7.91184e-07
9.33448e-08
-7.80336e-08
-8.10602e-07
9.74506e-08
-5.85743e-08
-8.13621e-07
-3.90661e-08
-8.15913e-07
-1.95171e-08
-8.17455e-07
5.46443e-11
-8.1823e-07
1.96262e-08
-8.1823e-07
3.91747e-08
-8.17454e-07
5.8682e-08
-8.15911e-07
7.81398e-08
-8.13619e-07
-8.10599e-07
9.75547e-08
-8.22476e-08
-8.31149e-07
1.02794e-07
-6.1696e-08
-8.34173e-07
-4.11289e-08
-8.3648e-07
-2.05457e-08
-8.38038e-07
4.72558e-11
-8.38823e-07
2.064e-08
-8.38823e-07
4.12228e-08
-8.38037e-07
6.1789e-08
-8.36478e-07
8.23391e-08
-8.3417e-07
-8.31144e-07
1.02884e-07
-8.70515e-08
-8.52889e-07
1.08792e-07
-6.52935e-08
-8.55931e-07
-4.35243e-08
-8.58249e-07
-2.17454e-08
-8.59817e-07
3.92614e-11
-8.60608e-07
2.18236e-08
-8.60607e-07
4.3602e-08
-8.59815e-07
6.53701e-08
-8.58246e-07
8.71266e-08
-8.55926e-07
-8.52882e-07
1.08865e-07
-9.21069e-08
-8.75863e-07
1.15081e-07
-6.90973e-08
-8.7894e-07
-4.60669e-08
-8.81279e-07
-2.30219e-08
-8.82862e-07
3.05906e-11
-8.8366e-07
2.3083e-08
-8.83659e-07
4.61277e-08
-8.8286e-07
6.91574e-08
-8.81275e-07
9.21661e-08
-8.78935e-07
-8.75855e-07
1.15139e-07
-9.68701e-08
-8.99914e-07
1.20921e-07
-7.27232e-08
-9.03087e-07
-4.85099e-08
-9.05493e-07
-2.42542e-08
-9.07118e-07
2.2423e-11
-9.07937e-07
2.4299e-08
-9.07936e-07
4.85545e-08
-9.07115e-07
7.27676e-08
-9.05489e-07
9.69141e-08
-9.03081e-07
-8.99905e-07
1.20965e-07
-1.01397e-07
-9.2496e-07
1.26443e-07
-7.61672e-08
-9.28317e-07
-5.08263e-08
-9.30833e-07
-2.54213e-08
-9.32523e-07
1.44456e-11
-9.33372e-07
2.54502e-08
-9.33372e-07
5.08553e-08
-9.32521e-07
7.61963e-08
-9.3083e-07
1.01426e-07
-9.28311e-07
-9.24952e-07
1.26473e-07
-1.05434e-07
-9.50952e-07
1.31426e-07
-7.92104e-08
-9.54541e-07
-5.28634e-08
-9.5718e-07
-2.64451e-08
-9.58941e-07
7.50425e-12
-9.59825e-07
2.64603e-08
-9.59825e-07
5.28789e-08
-9.58939e-07
7.92264e-08
-9.57177e-07
1.05451e-07
-9.54536e-07
-9.50945e-07
1.31444e-07
-1.08389e-07
-9.77716e-07
1.35153e-07
-8.14382e-08
-9.81491e-07
-5.43617e-08
-9.84257e-07
-2.72008e-08
-9.86102e-07
2.4823e-12
-9.87028e-07
2.72059e-08
-9.87028e-07
5.43672e-08
-9.861e-07
8.14446e-08
-9.84255e-07
1.08396e-07
-9.81487e-07
-9.77711e-07
1.35162e-07
-1.10466e-07
-1.00504e-06
1.3779e-07
-8.30189e-08
-1.00894e-06
-5.54291e-08
-1.01185e-06
-2.77399e-08
-1.01379e-06
-6.96662e-13
-1.01477e-06
2.77387e-08
-1.01477e-06
5.54285e-08
-1.01379e-06
8.30193e-08
-1.01185e-06
1.10468e-07
-1.00894e-06
-1.00504e-06
1.37795e-07
-1.11894e-07
-1.03255e-06
1.39405e-07
-8.41218e-08
-1.03671e-06
-5.61677e-08
-1.0398e-06
-2.81088e-08
-1.04185e-06
-1.8268e-12
-1.04287e-06
2.81053e-08
-1.04287e-06
5.61647e-08
-1.04185e-06
8.41197e-08
-1.0398e-06
1.11894e-07
-1.03671e-06
-1.03255e-06
1.39407e-07
-1.12176e-07
-1.06003e-06
1.39652e-07
-8.42963e-08
-1.06459e-06
-5.62573e-08
-1.06784e-06
-2.81456e-08
-1.06996e-06
-1.71094e-12
-1.07102e-06
2.81423e-08
-1.07102e-06
5.62548e-08
-1.06996e-06
8.42949e-08
-1.06784e-06
1.12176e-07
-1.06459e-06
-1.06003e-06
1.39654e-07
-1.10736e-07
-1.08758e-06
1.38289e-07
-8.30957e-08
-1.09223e-06
-5.54213e-08
-1.09551e-06
-2.77182e-08
-1.09766e-06
-5.90749e-13
-1.09874e-06
2.77172e-08
-1.09874e-06
5.54209e-08
-1.09767e-06
8.30964e-08
-1.09552e-06
1.10738e-07
-1.09223e-06
-1.08758e-06
1.38293e-07
-1.07893e-07
-1.11435e-06
1.34663e-07
-8.08434e-08
-1.11928e-06
-5.38775e-08
-1.12248e-06
-2.69357e-08
-1.12461e-06
1.90267e-13
-1.12567e-06
2.69362e-08
-1.12567e-06
5.38786e-08
-1.12461e-06
8.08452e-08
-1.12248e-06
1.07896e-07
-1.11928e-06
-1.11435e-06
1.34667e-07
-1.03628e-07
-1.13833e-06
1.27603e-07
-7.76229e-08
-1.14529e-06
-5.17178e-08
-1.14839e-06
-2.58517e-08
-1.15047e-06
8.18979e-13
-1.15152e-06
2.58534e-08
-1.15152e-06
5.17199e-08
-1.15047e-06
7.76254e-08
-1.14839e-06
1.03631e-07
-1.14529e-06
-1.13833e-06
1.27606e-07
-9.78859e-08
-1.15473e-06
1.14295e-07
-7.33564e-08
-1.16981e-06
-4.88849e-08
-1.17286e-06
-2.4437e-08
-1.17492e-06
9.68905e-13
-1.17596e-06
2.4439e-08
-1.17596e-06
4.88872e-08
-1.17492e-06
7.33591e-08
-1.17286e-06
9.7889e-08
-1.16982e-06
-1.15474e-06
1.14295e-07
-9.05327e-08
-1.15347e-06
8.92667e-08
-6.78979e-08
-1.19245e-06
-4.5257e-08
-1.1955e-06
-2.26244e-08
-1.19755e-06
8.56553e-13
-1.19859e-06
2.26262e-08
-1.19859e-06
4.52589e-08
-1.19756e-06
6.79e-08
-1.1955e-06
9.05349e-08
-1.19245e-06
-1.15347e-06
8.92594e-08
-8.1723e-08
-1.11165e-06
6.83686e-08
-6.12565e-08
-1.21292e-06
-4.08147e-08
-1.21594e-06
-2.03996e-08
-1.21797e-06
4.76146e-13
-1.21899e-06
2.04006e-08
-1.21899e-06
4.08157e-08
-1.21797e-06
6.12575e-08
-1.21594e-06
8.17239e-08
-1.21292e-06
-1.11163e-06
6.83636e-08
-7.17299e-08
-1.07106e-06
4.87796e-08
-5.36468e-08
-1.231e-06
-3.57102e-08
-1.23387e-06
-1.78413e-08
-1.23584e-06
1.36845e-13
-1.23683e-06
1.78415e-08
-1.23683e-06
3.57104e-08
-1.23584e-06
5.36469e-08
-1.23387e-06
7.17299e-08
-1.231e-06
-1.07104e-06
4.87762e-08
-6.05909e-08
-1.02954e-06
3.55562e-08
-4.52799e-08
-1.24631e-06
-3.0119e-08
-1.24903e-06
-1.5042e-08
-1.25091e-06
2.15856e-14
-1.25187e-06
1.5042e-08
-1.25187e-06
3.01189e-08
-1.25092e-06
4.52796e-08
-1.24903e-06
6.05903e-08
-1.24631e-06
-1.02952e-06
3.55533e-08
-4.85989e-08
-9.88534e-07
2.44648e-08
-3.63193e-08
-1.25859e-06
-2.41578e-08
-1.26119e-06
-1.20655e-08
-1.26301e-06
2.4462e-14
-1.26394e-06
1.20655e-08
-1.26394e-06
2.41576e-08
-1.26301e-06
3.6319e-08
-1.2612e-06
4.85982e-08
-1.25859e-06
-9.88511e-07
2.44624e-08
-3.60817e-08
-9.53266e-07
1.57712e-08
-2.70264e-08
-1.26764e-06
-1.79962e-08
-1.27022e-06
-8.9965e-09
-1.27201e-06
1.0601e-13
-1.27293e-06
8.99665e-09
-1.27293e-06
1.79962e-08
-1.27201e-06
2.70261e-08
-1.27023e-06
3.60809e-08
-1.26765e-06
-9.53245e-07
1.57695e-08
-2.31904e-08
-9.26651e-07
9.10697e-09
-1.7624e-08
-1.27321e-06
-1.1795e-08
-1.27605e-06
-5.91915e-09
-1.27788e-06
1.63342e-13
-1.27885e-06
5.91939e-09
-1.27885e-06
1.1795e-08
-1.27788e-06
1.76236e-08
-1.27605e-06
2.31895e-08
-1.27321e-06
-9.26631e-07
9.10583e-09
-9.78456e-09
-9.09925e-07
3.82975e-09
-8.3355e-09
-1.27466e-06
-5.7126e-09
-1.27867e-06
-2.91749e-09
-1.28068e-06
1.53614e-13
-1.28177e-06
2.9177e-09
-1.28177e-06
5.71252e-09
-1.28068e-06
8.33495e-09
-1.27868e-06
9.78325e-09
-1.27466e-06
-9.09906e-07
3.82897e-09
1.48838e-09
-9.0292e-07
1.10742e-24
6.63435e-10
-1.27374e-06
1.15425e-10
-1.27813e-06
-6.97983e-11
-1.28049e-06
1.07893e-13
-1.28184e-06
6.99044e-11
-1.28184e-06
-1.15647e-10
-1.28049e-06
-6.64179e-10
-1.27813e-06
-1.48978e-09
-1.27374e-06
-9.02904e-07
1.05308e-24
1.33543e-08
-9.09518e-07
3.19603e-23
9.20011e-09
-1.2698e-06
5.5392e-09
-1.27447e-06
2.52908e-09
-1.27748e-06
4.84073e-14
-1.27931e-06
-2.52912e-09
-1.27931e-06
-5.53963e-09
-1.27748e-06
-9.2012e-09
-1.27447e-06
-1.33561e-08
-1.2698e-06
-9.09505e-07
3.03973e-23
2.4392e-08
-9.2962e-07
1.36871e-23
1.69274e-08
-1.26236e-06
1.02801e-08
-1.26782e-06
4.73237e-09
-1.27193e-06
-1.50882e-14
-1.27458e-06
-4.73255e-09
-1.27458e-06
-1.02807e-08
-1.27193e-06
-1.69288e-08
-1.26782e-06
-2.43943e-08
-1.26236e-06
-9.29609e-07
1.35391e-23
3.3608e-08
-9.60013e-07
1.67029e-25
2.29305e-08
-1.25168e-06
1.38555e-08
-1.25875e-06
6.50845e-09
-1.26459e-06
-1.97281e-13
-1.26807e-06
-6.50895e-09
-1.26807e-06
-1.38563e-08
-1.26459e-06
-2.2932e-08
-1.25875e-06
-3.36104e-08
-1.25168e-06
-9.60005e-07
1.66286e-25
3.87004e-08
-9.97576e-07
1.37612e-28
2.52439e-08
-1.23823e-06
1.58479e-08
-1.24935e-06
8.4486e-09
-1.25719e-06
-4.65169e-13
-1.25962e-06
-8.44956e-09