/*--------------------------------*- C++ -*----------------------------------*\
  =========                 |
  \\      /  F ield         | OpenFOAM: The Open Source CFD Toolbox
   \\    /   O peration     | Website:  https://openfoam.org
    \\  /    A nd           | Version:  8
     \\/     M anipulation  |
\*---------------------------------------------------------------------------*/
FoamFile
{
    version     2.0;
    format      ascii;
    class       volScalarField;
    location    "0.15";
    object      p_rgh;
}
// * * * * * * * * * * * * * * * * * * * * * * * * * * * * * * * * * * * * * //

dimensions      [1 -1 -2 0 0 0 0];

internalField   nonuniform List<scalar> 
9150
(
2541.23
2514.63
2489.18
2472.22
2463.93
2463.93
2472.22
2489.18
2514.63
2541.23
2532.38
2513.14
2497.43
2485.75
2479.77
2479.77
2485.75
2497.43
2513.14
2532.38
2522.95
2509.66
2501.05
2493.32
2489.21
2489.21
2493.32
2501.05
2509.66
2522.95
2518.23
2508.34
2502.78
2497.33
2494.33
2494.33
2497.33
2502.78
2508.34
2518.23
2517.02
2507.9
2503.21
2498.88
2496.37
2496.37
2498.88
2503.21
2507.9
2517.02
2076.53
2072.14
2097.12
2111.39
2118.04
2118.04
2111.39
2097.12
2072.14
2076.53
2266.4
2241.62
2236.44
2235.5
2235.59
2235.59
2235.5
2236.44
2241.62
2266.4
2390.42
2358.52
2342.98
2333.39
2328.74
2328.74
2333.39
2342.98
2358.52
2390.42
2490.49
2448.06
2420.69
2403.62
2395.12
2395.12
2403.62
2420.69
2448.06
2490.49
2562.89
2508.57
2469.87
2448.03
2437.86
2437.86
2448.03
2469.87
2508.57
2562.89
1888.57
1930.12
1922.93
1932.48
1927.03
1927.03
1932.48
1922.93
1930.12
1888.58
1916.68
1938.25
1918.95
1930.96
1924.23
1924.23
1930.96
1918.95
1938.26
1916.68
1898.91
1929.49
1894.72
1907.43
1908.37
1908.37
1907.43
1894.72
1929.49
1898.91
1741.22
1865.75
1876.33
1898.25
1914.7
1914.7
1898.25
1876.33
1865.75
1741.22
1601.76
1851.23
1944.58
1975.96
1992.6
1992.6
1975.96
1944.58
1851.23
1601.76
10.3082
10.3083
10.3084
10.3085
10.3085
10.3086
10.3087
10.3087
10.3088
10.3088
10.3081
10.3082
10.3083
10.3084
10.3085
10.3086
10.3086
10.3087
10.3087
10.3088
10.3081
10.3082
10.3083
10.3084
10.3084
10.3085
10.3086
10.3086
10.3087
10.3087
10.3081
10.3082
10.3082
10.3083
10.3084
10.3085
10.3085
10.3086
10.3087
10.3087
10.308
10.3081
10.3082
10.3083
10.3084
10.3085
10.3085
10.3086
10.3087
10.3087
10.308
10.3081
10.3082
10.3083
10.3084
10.3085
10.3086
10.3086
10.3087
10.3087
10.308
10.3081
10.3082
10.3083
10.3084
10.3085
10.3086
10.3086
10.3087
10.3087
10.3081
10.3082
10.3083
10.3084
10.3085
10.3085
10.3086
10.3087
10.3087
10.3088
10.3081
10.3082
10.3083
10.3084
10.3085
10.3086
10.3087
10.3087
10.3088
10.3088
10.3082
10.3083
10.3084
10.3085
10.3086
10.3087
10.3088
10.3088
10.3089
10.3089
10.3083
10.3084
10.3085
10.3086
10.3087
10.3088
10.3089
10.3089
10.309
10.309
10.3084
10.3085
10.3087
10.3088
10.3089
10.309
10.309
10.3091
10.3092
10.3092
10.3086
10.3087
10.3089
10.309
10.3091
10.3092
10.3093
10.3093
10.3094
10.3094
10.3089
10.309
10.3092
10.3093
10.3094
10.3095
10.3096
10.3097
10.3097
10.3098
10.3093
10.3094
10.3096
10.3097
10.3099
10.31
10.3101
10.3101
10.3102
10.3102
10.3098
10.31
10.3102
10.3103
10.3105
10.3106
10.3107
10.3108
10.3108
10.3108
10.3105
10.3107
10.3109
10.3111
10.3113
10.3114
10.3115
10.3116
10.3117
10.3117
10.3115
10.3117
10.312
10.3122
10.3124
10.3125
10.3127
10.3128
10.3128
10.3129
10.3129
10.3131
10.3134
10.3136
10.3139
10.3141
10.3142
10.3143
10.3144
10.3144
10.3147
10.315
10.3153
10.3156
10.3159
10.3161
10.3163
10.3164
10.3165
10.3165
10.3171
10.3175
10.3178
10.3182
10.3185
10.3188
10.319
10.3191
10.3192
10.3192
10.3203
10.3207
10.3211
10.3216
10.3219
10.3222
10.3224
10.3226
10.3227
10.3227
10.3244
10.3248
10.3253
10.3258
10.3262
10.3265
10.3268
10.3269
10.327
10.3269
10.3294
10.3299
10.3305
10.331
10.3314
10.3317
10.3319
10.332
10.332
10.3319
10.3352
10.3359
10.3365
10.337
10.3374
10.3376
10.3378
10.3378
10.3377
10.3375
10.3418
10.3426
10.3432
10.3437
10.344
10.3441
10.3442
10.344
10.3438
10.3434
10.3488
10.3496
10.3502
10.3506
10.3508
10.3509
10.3507
10.3504
10.35
10.3494
10.3557
10.3566
10.3572
10.3575
10.3575
10.3574
10.3572
10.3567
10.3561
10.3553
10.3622
10.3631
10.3637
10.3639
10.3639
10.3637
10.3633
10.3627
10.3619
10.361
10.368
10.369
10.3696
10.3699
10.3698
10.3696
10.3692
10.3685
10.3677
10.3666
10.3735
10.3745
10.3752
10.3756
10.3757
10.3755
10.3751
10.3745
10.3737
10.3726
10.379
10.3802
10.3811
10.3817
10.382
10.382
10.3817
10.3812
10.3803
10.3793
10.3855
10.3869
10.388
10.3889
10.3894
10.3895
10.3894
10.3889
10.388
10.3869
10.3936
10.3952
10.3965
10.3976
10.3982
10.3985
10.3983
10.3978
10.3969
10.3956
10.4037
10.4055
10.4069
10.408
10.4086
10.4089
10.4086
10.408
10.4069
10.4054
10.4156
10.4175
10.419
10.42
10.4205
10.4206
10.4202
10.4193
10.418
10.4163
10.4288
10.4309
10.4323
10.4333
10.4337
10.4336
10.4331
10.432
10.4305
10.4285
10.443
10.4452
10.4468
10.4477
10.4481
10.448
10.4474
10.4462
10.4445
10.4423
10.4581
10.4606
10.4624
10.4635
10.464
10.4639
10.4633
10.462
10.4602
10.4578
10.4747
10.4775
10.4796
10.4809
10.4817
10.4817
10.4811
10.4798
10.4778
10.4752
10.4937
10.4967
10.4991
10.5007
10.5015
10.5017
10.501
10.4996
10.4975
10.4947
10.5152
10.5186
10.5212
10.523
10.5239
10.524
10.5233
10.5218
10.5195
10.5164
10.5391
10.5428
10.5456
10.5475
10.5484
10.5485
10.5477
10.546
10.5434
10.54
10.5649
10.5689
10.5718
10.5738
10.5748
10.5748
10.5739
10.5721
10.5692
10.5655
10.5926
10.5968
10.6
10.6021
10.6032
10.6033
10.6023
10.6003
10.5973
10.5933
10.6224
10.627
10.6305
10.6329
10.6341
10.6343
10.6332
10.6311
10.6279
10.6236
10.6547
10.6597
10.6635
10.6661
10.6675
10.6677
10.6666
10.6644
10.6609
10.6563
10.6896
10.6949
10.6989
10.7017
10.7032
10.7033
10.7022
10.6998
10.696
10.6911
10.727
10.7327
10.7369
10.7398
10.7412
10.7412
10.7399
10.7372
10.7332
10.728
10.7672
10.7731
10.7777
10.7807
10.782
10.7819
10.7803
10.7774
10.7732
10.7678
10.8126
10.8187
10.8237
10.8272
10.829
10.8292
10.8277
10.8248
10.8204
10.8148
10.8643
10.8707
10.8765
10.8809
10.8838
10.8849
10.8841
10.8815
10.8769
10.8706
10.9445
10.95
10.9551
10.9589
10.9613
10.9623
10.9615
10.9588
10.9544
10.949
11.2641
11.2732
11.2769
11.2785
11.2789
11.278
11.2765
11.2741
11.27
11.2624
12.0479
12.0609
12.0622
12.0609
12.0609
12.0611
12.0611
12.062
12.0607
12.0474
87.9363
85.6977
84.0845
83.1688
82.8088
82.8045
83.1368
84.0048
85.5664
87.7621
780.007
775.164
771.83
769.836
769.065
769.056
769.764
771.652
774.899
779.66
1062.06
1061.68
1061.41
1061.23
1061.15
1061.13
1061.2
1061.34
1061.57
1061.96
1103.62
1103.26
1102.92
1102.68
1102.56
1102.56
1102.66
1102.87
1103.19
1103.53
1142.63
1142.29
1142.01
1141.82
1141.74
1141.74
1141.85
1142.05
1142.35
1142.72
1179.27
1178.93
1178.66
1178.49
1178.41
1178.43
1178.54
1178.74
1179.05
1179.41
1215.49
1215.1
1214.78
1214.57
1214.48
1214.49
1214.6
1214.83
1215.16
1215.58
1250.92
1250.41
1250.01
1249.74
1249.61
1249.61
1249.74
1250.01
1250.42
1250.96
1285.3
1284.64
1284.13
1283.79
1283.62
1283.61
1283.77
1284.1
1284.62
1285.3
1318.31
1317.51
1316.91
1316.52
1316.32
1316.31
1316.5
1316.9
1317.51
1318.33
1349.74
1348.87
1348.22
1347.8
1347.6
1347.61
1347.82
1348.26
1348.92
1349.81
1379.51
1378.66
1378.02
1377.62
1377.44
1377.45
1377.67
1378.09
1378.74
1379.6
1407.56
1406.86
1406.32
1405.97
1405.81
1405.82
1406.01
1406.37
1406.92
1407.61
1434.02
1433.58
1433.2
1432.93
1432.8
1432.81
1432.94
1433.2
1433.58
1434.01
1459.01
1458.9
1458.75
1458.61
1458.53
1458.53
1458.6
1458.74
1458.88
1458.98
1483.15
1483.2
1483.27
1483.27
1483.26
1483.26
1483.28
1483.29
1483.21
1483.15
1506.56
1506.61
1506.93
1507.09
1507.15
1507.17
1507.14
1506.99
1506.68
1506.62
1529.48
1529.36
1529.87
1530.21
1530.35
1530.38
1530.28
1529.97
1529.47
1529.58
1553.03
1552.05
1552.44
1552.86
1553.04
1553.07
1552.93
1552.55
1552.17
1553.15
1575.69
1573.93
1574.19
1574.72
1574.97
1574.99
1574.77
1574.28
1574.04
1575.8
1597.49
1595.29
1595.3
1595.88
1596.19
1596.2
1595.91
1595.35
1595.35
1597.57
1619.95
1617.17
1616.25
1616.58
1616.87
1616.88
1616.6
1616.28
1617.2
1620
1640.52
1638.07
1636.22
1636.25
1636.52
1636.53
1636.26
1636.24
1638.1
1640.56
1657.22
1656.66
1654.56
1654.47
1654.79
1654.79
1654.48
1654.58
1656.69
1657.27
1671.83
1674.45
1672.14
1671.75
1672.03
1672.03
1671.76
1672.16
1674.48
1671.87
1683.77
1692.21
1689.48
1688.33
1688.39
1688.39
1688.34
1689.5
1692.24
1683.79
1693.85
1707.69
1705.06
1703.34
1703.22
1703.22
1703.35
1705.07
1707.71
1693.87
1702.01
1720.43
1718.49
1716.56
1716.33
1716.34
1716.57
1718.51
1720.44
1702.02
1709
1730.92
1730.06
1728.17
1727.92
1727.92
1728.18
1730.07
1730.92
1709
1716.41
1740.19
1740.43
1738.71
1738.44
1738.44
1738.71
1740.43
1740.19
1716.41
1659.55
1748.69
1750.25
1748.68
1748.34
1748.34
1748.68
1750.25
1748.68
1659.5
1549.15
1756.55
1759.45
1758.14
1757.75
1757.75
1758.14
1759.45
1756.55
1549.11
1481.7
1764.53
1768.1
1767.15
1766.81
1766.81
1767.15
1768.1
1764.53
1481.66
1414.61
1772.8
1776.59
1776.07
1775.86
1775.86
1776.07
1776.59
1772.8
1414.57
1357.35
1781.66
1785.29
1785.24
1785.21
1785.21
1785.24
1785.29
1781.66
1357.32
1316.05
1791.32
1794.5
1794.98
1795.19
1795.19
1794.98
1794.5
1791.32
1316.02
1293.82
1801.86
1804.52
1805.6
1806.11
1806.11
1805.6
1804.53
1801.87
1293.79
1286.91
1811.37
1815.57
1817.36
1818.24
1818.24
1817.36
1815.58
1811.38
1286.89
1293.69
1824.8
1827.84
1830.47
1831.84
1831.84
1830.47
1827.84
1824.81
1293.67
1346.51
1838.9
1841.37
1845.08
1847.12
1847.12
1845.08
1841.37
1838.9
1346.49
1405.16
1852.63
1855.74
1860.8
1863.45
1863.45
1860.8
1855.74
1852.63
1405.15
1486.28
1864.46
1869.78
1875.97
1878.5
1878.5
1875.97
1869.78
1864.46
1486.28
1575.76
1875.64
1886.31
1891.09
1892.94
1892.94
1891.09
1886.31
1875.64
1575.76
1673.03
1903.44
1913.23
1909
1908.73
1908.73
1909
1913.23
1903.44
1673.03
1792.57
1939.98
1931.47
1924.09
1920.68
1920.68
1924.09
1931.47
1939.98
1792.57
10.3089
10.3089
10.3089
10.3089
10.3089
10.3089
10.3089
10.3089
10.3089
10.3089
10.3088
10.3088
10.3087
10.3087
10.3087
10.3086
10.3085
10.3085
10.3084
10.3084
10.3083
10.3083
10.3082
10.3081
10.3081
10.308
10.308
10.3079
10.3079
10.3079
10.3078
10.3078
10.3078
10.3078
10.3077
10.3077
10.3077
10.3077
10.3077
10.3078
10.3088
10.3088
10.3089
10.3089
10.3089
10.3089
10.3089
10.3089
10.3088
10.3088
10.3088
10.3088
10.3087
10.3087
10.3086
10.3086
10.3085
10.3085
10.3084
10.3084
10.3083
10.3083
10.3082
10.3082
10.3081
10.3081
10.308
10.308
10.3079
10.3079
10.3079
10.3078
10.3078
10.3078
10.3078
10.3078
10.3078
10.3078
10.3078
10.3078
10.3088
10.3088
10.3088
10.3088
10.3089
10.3089
10.3089
10.3088
10.3088
10.3088
10.3088
10.3087
10.3087
10.3087
10.3086
10.3086
10.3085
10.3085
10.3084
10.3084
10.3083
10.3083
10.3082
10.3082
10.3081
10.3081
10.308
10.308
10.3079
10.3079
10.3079
10.3078
10.3078
10.3078
10.3078
10.3077
10.3077
10.3077
10.3078
10.3078
10.3088
10.3088
10.3088
10.3088
10.3088
10.3088
10.3088
10.3088
10.3088
10.3088
10.3088
10.3087
10.3087
10.3087
10.3086
10.3086
10.3085
10.3085
10.3084
10.3084
10.3083
10.3082
10.3082
10.3081
10.3081
10.308
10.308
10.3079
10.3079
10.3079
10.3078
10.3078
10.3078
10.3077
10.3077
10.3077
10.3077
10.3077
10.3077
10.3077
10.3087
10.3088
10.3088
10.3088
10.3088
10.3088
10.3088
10.3088
10.3088
10.3088
10.3087
10.3087
10.3087
10.3086
10.3086
10.3085
10.3085
10.3084
10.3084
10.3083
10.3083
10.3082
10.3081
10.3081
10.308
10.308
10.3079
10.3079
10.3078
10.3078
10.3078
10.3077
10.3077
10.3077
10.3076
10.3076
10.3076
10.3076
10.3077
10.3077
10.3088
10.3088
10.3088
10.3088
10.3088
10.3088
10.3088
10.3088
10.3088
10.3088
10.3087
10.3087
10.3086
10.3086
10.3085
10.3085
10.3084
10.3084
10.3083
10.3083
10.3082
10.3081
10.3081
10.308
10.308
10.3079
10.3078
10.3078
10.3077
10.3077
10.3077
10.3076
10.3076
10.3076
10.3075
10.3075
10.3075
10.3075
10.3076
10.3076
10.3088
10.3088
10.3088
10.3088
10.3088
10.3088
10.3088
10.3088
10.3088
10.3087
10.3087
10.3087
10.3086
10.3086
10.3085
10.3084
10.3084
10.3083
10.3082
10.3082
10.3081
10.308
10.308
10.3079
10.3078
10.3078
10.3077
10.3077
10.3076
10.3076
10.3075
10.3075
10.3074
10.3074
10.3074
10.3074
10.3074
10.3074
10.3075
10.3075
10.3088
10.3088
10.3089
10.3089
10.3089
10.3088
10.3088
10.3088
10.3088
10.3087
10.3087
10.3086
10.3086
10.3085
10.3084
10.3084
10.3083
10.3082
10.3081
10.3081
10.308
10.3079
10.3078
10.3078
10.3077
10.3076
10.3076
10.3075
10.3074
10.3074
10.3073
10.3073
10.3073
10.3072
10.3072
10.3072
10.3072
10.3073
10.3073
10.3073
10.3089
10.3089
10.3089
10.3089
10.3089
10.3089
10.3088
10.3088
10.3088
10.3087
10.3087
10.3086
10.3085
10.3084
10.3084
10.3083
10.3082
10.3081
10.308
10.3079
10.3078
10.3078
10.3077
10.3076
10.3075
10.3074
10.3074
10.3073
10.3072
10.3072
10.3071
10.3071
10.3071
10.307
10.307
10.307
10.307
10.3071
10.3071
10.3071
10.3089
10.309
10.309
10.309
10.3089
10.3089
10.3089
10.3088
10.3088
10.3087
10.3086
10.3086
10.3085
10.3084
10.3083
10.3082
10.3081
10.308
10.3079
10.3078
10.3077
10.3076
10.3075
10.3074
10.3073
10.3072
10.3071
10.307
10.307
10.3069
10.3069
10.3068
10.3068
10.3068
10.3068
10.3068
10.3068
10.3068
10.3069
10.3069
10.3091
10.3091
10.3091
10.3091
10.309
10.309
10.3089
10.3089
10.3088
10.3087
10.3086
10.3085
10.3084
10.3083
10.3082
10.3081
10.308
10.3078
10.3077
10.3076
10.3075
10.3074
10.3072
10.3071
10.307
10.3069
10.3068
10.3068
10.3067
10.3066
10.3066
10.3065
10.3065
10.3065
10.3065
10.3065
10.3065
10.3065
10.3066
10.3066
10.3092
10.3092
10.3092
10.3092
10.3091
10.3091
10.309
10.3089
10.3088
10.3087
10.3086
10.3085
10.3084
10.3083
10.3081
10.308
10.3078
10.3077
10.3075
10.3074
10.3073
10.3071
10.307
10.3069
10.3067
10.3066
10.3065
10.3064
10.3064
10.3063
10.3062
10.3062
10.3061
10.3061
10.3061
10.3061
10.3062
10.3062
10.3063
10.3063
10.3095
10.3094
10.3094
10.3094
10.3093
10.3092
10.3092
10.3091
10.3089
10.3088
10.3087
10.3085
10.3084
10.3082
10.308
10.3079
10.3077
10.3075
10.3073
10.3072
10.307
10.3068
10.3067
10.3065
10.3064
10.3063
10.3062
10.3061
10.306
10.3059
10.3058
10.3058
10.3058
10.3057
10.3057
10.3058
10.3058
10.3059
10.3059
10.306
10.3098
10.3098
10.3097
10.3097
10.3096
10.3095
10.3094
10.3092
10.3091
10.3089
10.3088
10.3086
10.3084
10.3082
10.308
10.3078
10.3076
10.3074
10.3072
10.307
10.3068
10.3066
10.3064
10.3062
10.306
10.3059
10.3058
10.3056
10.3055
10.3054
10.3054
10.3053
10.3053
10.3053
10.3053
10.3053
10.3054
10.3055
10.3055
10.3056
10.3102
10.3102
10.3101
10.3101
10.31
10.3098
10.3097
10.3095
10.3093
10.3091
10.3089
10.3087
10.3085
10.3082
10.308
10.3077
10.3075
10.3072
10.307
10.3067
10.3065
10.3063
10.306
10.3058
10.3056
10.3055
10.3053
10.3052
10.305
10.3049
10.3049
10.3048
10.3048
10.3048
10.3048
10.3048
10.3049
10.305
10.3051
10.3052
10.3108
10.3108
10.3107
10.3106
10.3105
10.3103
10.3102
10.31
10.3097
10.3095
10.3092
10.309
10.3087
10.3084
10.3081
10.3078
10.3074
10.3071
10.3068
10.3065
10.3062
10.306
10.3057
10.3054
10.3052
10.305
10.3048
10.3046
10.3045
10.3044
10.3043
10.3043
10.3042
10.3042
10.3043
10.3043
10.3044
10.3045
10.3046
10.3047
10.3117
10.3116
10.3115
10.3114
10.3113
10.3111
10.3108
10.3106
10.3103
10.31
10.3097
10.3094
10.309
10.3086
10.3083
10.3079
10.3075
10.3071
10.3067
10.3064
10.306
10.3057
10.3054
10.3051
10.3048
10.3045
10.3043
10.3041
10.3039
10.3038
10.3037
10.3036
10.3036
10.3036
10.3036
10.3037
10.3038
10.3039
10.3041
10.3041
10.3128
10.3128
10.3127
10.3125
10.3123
10.3121
10.3118
10.3115
10.3112
10.3108
10.3104
10.31
10.3095
10.3091
10.3086
10.3082
10.3077
10.3072
10.3068
10.3063
10.3059
10.3055
10.3051
10.3047
10.3044
10.3041
10.3038
10.3035
10.3033
10.3032
10.303
10.303
10.3029
10.3029
10.303
10.3031
10.3032
10.3033
10.3035
10.3036
10.3144
10.3143
10.3142
10.314
10.3138
10.3135
10.3131
10.3128
10.3124
10.3119
10.3114
10.3109
10.3104
10.3098
10.3093
10.3087
10.3081
10.3076
10.307
10.3064
10.3059
10.3054
10.3049
10.3044
10.304
10.3036
10.3033
10.303
10.3027
10.3025
10.3024
10.3023
10.3022
10.3022
10.3023
10.3024
10.3025
10.3027
10.3028
10.303
10.3165
10.3164
10.3162
10.316
10.3157
10.3154
10.315
10.3145
10.314
10.3134
10.3129
10.3122
10.3116
10.3109
10.3102
10.3095
10.3088
10.3081
10.3074
10.3068
10.3061
10.3055
10.3048
10.3043
10.3037
10.3033
10.3028
10.3024
10.3021
10.3019
10.3017
10.3015
10.3015
10.3014
10.3015
10.3016
10.3018
10.302
10.3022
10.3023
10.3192
10.3191
10.3189
10.3186
10.3182
10.3178
10.3173
10.3168
10.3162
10.3155
10.3148
10.314
10.3132
10.3124
10.3116
10.3107
10.3099
10.309
10.3082
10.3073
10.3065
10.3057
10.305
10.3043
10.3036
10.303
10.3025
10.302
10.3016
10.3012
10.301
10.3008
10.3007
10.3007
10.3007
10.3008
10.301
10.3013
10.3015
10.3016
10.3226
10.3225
10.3222
10.3219
10.3214
10.3209
10.3203
10.3196
10.3189
10.3181
10.3172
10.3163
10.3153
10.3144
10.3134
10.3123
10.3113
10.3103
10.3092
10.3082
10.3072
10.3063
10.3053
10.3045
10.3037
10.3029
10.3022
10.3016
10.3011
10.3007
10.3003
10.3001
10.2999
10.2999
10.2999
10.3
10.3002
10.3005
10.3008
10.3009
10.3268
10.3266
10.3262
10.3258
10.3252
10.3246
10.3238
10.323
10.3221
10.3211
10.3201
10.319
10.3179
10.3167
10.3155
10.3143
10.313
10.3118
10.3105
10.3093
10.3081
10.307
10.3059
10.3048
10.3039
10.3029
10.3021
10.3014
10.3007
10.3002
10.2997
10.2994
10.2992
10.2991
10.2991
10.2992
10.2994
10.2997
10.3
10.3002
10.3317
10.3313
10.3309
10.3303
10.3296
10.3288
10.3279
10.3269
10.3258
10.3246
10.3233
10.322
10.3207
10.3193
10.3179
10.3164
10.3149
10.3135
10.312
10.3106
10.3092
10.3078
10.3065
10.3053
10.3041
10.303
10.302
10.3012
10.3004
10.2997
10.2992
10.2988
10.2985
10.2983
10.2983
10.2984
10.2986
10.2989
10.2992
10.2994
10.3371
10.3366
10.336
10.3352
10.3343
10.3333
10.3322
10.331
10.3296
10.3282
10.3267
10.3252
10.3236
10.3219
10.3203
10.3186
10.3169
10.3152
10.3135
10.3118
10.3102
10.3086
10.3071
10.3057
10.3043
10.303
10.3019
10.3009
10.2999
10.2992
10.2985
10.298
10.2977
10.2974
10.2974
10.2974
10.2976
10.2979
10.2982
10.2985
10.3428
10.3421
10.3413
10.3403
10.3392
10.3379
10.3366
10.3351
10.3335
10.3318
10.3301
10.3282
10.3264
10.3244
10.3225
10.3205
10.3185
10.3166
10.3146
10.3127
10.3109
10.3091
10.3074
10.3057
10.3042
10.3028
10.3015
10.3003
10.2993
10.2984
10.2977
10.2971
10.2967
10.2964
10.2963
10.2963
10.2965
10.2968
10.2971
10.2974
10.3486
10.3477
10.3466
10.3454
10.344
10.3425
10.3408
10.3391
10.3372
10.3352
10.3331
10.331
10.3288
10.3266
10.3243
10.3221
10.3198
10.3176
10.3154
10.3132
10.3111
10.3091
10.3072
10.3054
10.3037
10.3021
10.3007
10.2994
10.2982
10.2973
10.2964
10.2958
10.2953
10.295
10.2948
10.2949
10.295
10.2953
10.2957
10.296
10.3543
10.3532
10.3518
10.3504
10.3487
10.3469
10.345
10.3429
10.3407
10.3384
10.336
10.3335
10.331
10.3284
10.3258
10.3233
10.3207
10.3181
10.3156
10.3132
10.3108
10.3086
10.3065
10.3044
10.3026
10.3008
10.2993
10.2979
10.2966
10.2956
10.2947
10.294
10.2935
10.2931
10.293
10.293
10.2931
10.2935
10.2939
10.2942
10.3598
10.3585
10.3569
10.3552
10.3533
10.3512
10.349
10.3466
10.3441
10.3415
10.3387
10.3359
10.333
10.3301
10.3272
10.3242
10.3213
10.3184
10.3156
10.3128
10.3102
10.3077
10.3053
10.303
10.3009
10.299
10.2973
10.2958
10.2944
10.2933
10.2923
10.2916
10.291
10.2906
10.2905
10.2905
10.2907
10.2911
10.2916
10.2919
10.3654
10.3639
10.3622
10.3602
10.3581
10.3558
10.3532
10.3505
10.3477
10.3447
10.3416
10.3385
10.3352
10.3319
10.3286
10.3252
10.3219
10.3186
10.3154
10.3123
10.3094
10.3065
10.3038
10.3013
10.299
10.2968
10.2949
10.2932
10.2917
10.2904
10.2893
10.2885
10.2879
10.2875
10.2873
10.2873
10.2875
10.288
10.2886
10.2891
10.3713
10.3697
10.3678
10.3657
10.3633
10.3607
10.3579
10.3549
10.3517
10.3484
10.3449
10.3414
10.3377
10.334
10.3302
10.3264
10.3227
10.319
10.3154
10.3119
10.3085
10.3053
10.3023
10.2994
10.2968
10.2943
10.2921
10.2902
10.2885
10.287
10.2858
10.2848
10.2841
10.2836
10.2834
10.2834
10.2837
10.2843
10.285
10.2855
10.3779
10.3762
10.3742
10.3718
10.3692
10.3664
10.3632
10.3599
10.3563
10.3526
10.3487
10.3446
10.3405
10.3363
10.3321
10.3279
10.3237
10.3195
10.3155
10.3115
10.3077
10.304
10.3006
10.2973
10.2943
10.2915
10.2889
10.2867
10.2847
10.283
10.2815
10.2804
10.2795
10.2789
10.2787
10.2787
10.2791
10.2798
10.2806
10.2813
10.3854
10.3836
10.3813
10.3788
10.3759
10.3726
10.3691
10.3654
10.3614
10.3572
10.3528
10.3483
10.3436
10.3389
10.3342
10.3294
10.3247
10.32
10.3154
10.3109
10.3066
10.3025
10.2985
10.2948
10.2913
10.2881
10.2851
10.2825
10.2802
10.2782
10.2765
10.2751
10.2741
10.2734
10.2731
10.2732
10.2737
10.2745
10.2755
10.2763
10.3939
10.3918
10.3894
10.3865
10.3832
10.3796
10.3756
10.3714
10.3669
10.3621
10.3572
10.3521
10.3469
10.3416
10.3363
10.3309
10.3256
10.3203
10.3151
10.31
10.3051
10.3004
10.2959
10.2916
10.2876
10.2839
10.2805
10.2774
10.2747
10.2723
10.2703
10.2688
10.2676
10.2669
10.2666
10.2668
10.2674
10.2684
10.2696
10.2705
10.4035
10.4011
10.3982
10.395
10.3913
10.3872
10.3827
10.378
10.3729
10.3676
10.3621
10.3564
10.3505
10.3445
10.3385
10.3325
10.3264
10.3204
10.3146
10.3088
10.3032
10.2978
10.2926
10.2877
10.2831
10.2788
10.2748
10.2712
10.268
10.2653
10.263
10.2612
10.26
10.2592
10.2589
10.2592
10.26
10.2612
10.2627
10.2637
10.4141
10.4114
10.4082
10.4045
10.4004
10.3958
10.3908
10.3855
10.3798
10.3738
10.3676
10.3612
10.3546
10.3479
10.3411
10.3342
10.3274
10.3206
10.3139
10.3073
10.3009
10.2947
10.2887
10.283
10.2776
10.2726
10.268
10.2638
10.2601
10.257
10.2544
10.2524
10.251
10.2502
10.25
10.2504
10.2514
10.2529
10.2545
10.2558
10.4261
10.4231
10.4195
10.4154
10.4107
10.4056
10.4001
10.3941
10.3877
10.381
10.374
10.3668
10.3593
10.3517
10.344
10.3362
10.3284
10.3206
10.3129
10.3053
10.298
10.2908
10.2839
10.2773
10.271
10.2652
10.2599
10.2551
10.2508
10.2472
10.2443
10.242
10.2405
10.2397
10.2396
10.2402
10.2414
10.2431
10.2451
10.2465
10.4396
10.4362
10.4323
10.4277
10.4225
10.4168
10.4106
10.4039
10.3968
10.3893
10.3814
10.3732
10.3647
10.3561
10.3473
10.3384
10.3294
10.3205
10.3116
10.3029
10.2943
10.286
10.2779
10.2703
10.263
10.2563
10.2501
10.2446
10.2397
10.2356
10.2323
10.2299
10.2282
10.2274
10.2274
10.2281
10.2296
10.2317
10.234
10.2357
10.4548
10.451
10.4466
10.4416
10.4359
10.4295
10.4226
10.4152
10.4072
10.3987
10.3898
10.3806
10.371
10.3612
10.3511
10.341
10.3307
10.3204
10.3101
10.3
10.29
10.2803
10.2709
10.262
10.2536
10.2457
10.2386
10.2322
10.2266
10.2219
10.2182
10.2154
10.2136
10.2128
10.2129
10.2139
10.2157
10.2183
10.2211
10.2231
10.4719
10.4678
10.463
10.4573
10.451
10.444
10.4363
10.428
10.4191
10.4096
10.3997
10.3893
10.3785
10.3673
10.3558
10.3442
10.3324
10.3205
10.3086
10.2969
10.2853
10.274
10.263
10.2526
10.2428
10.2336
10.2253
10.2178
10.2114
10.2059
10.2016
10.1984
10.1964
10.1955
10.1957
10.197
10.1993
10.2026
10.206
10.2084
10.4912
10.4867
10.4814
10.4752
10.4682
10.4604
10.4518
10.4426
10.4326
10.4221
10.4109
10.3992
10.387
10.3743
10.3613
10.348
10.3344
10.3208
10.3071
10.2934
10.28
10.2669
10.2541
10.242
10.2305
10.2198
10.21
10.2013
10.1937
10.1874
10.1823
10.1785
10.1761
10.1751
10.1754
10.177
10.18
10.184
10.1882
10.1911
10.5125
10.5076
10.5017
10.4949
10.4871
10.4785
10.469
10.4587
10.4476
10.4358
10.4233
10.4101
10.3963
10.382
10.3672
10.352
10.3365
10.3208
10.3051
10.2894
10.2738
10.2586
10.2439
10.2297
10.2164
10.2039
10.1925
10.1822
10.1732
10.1657
10.1596
10.155
10.1521
10.1509
10.1513
10.1534
10.1571
10.1621
10.1673
10.1708
10.5356
10.5302
10.5238
10.5163
10.5077
10.4982
10.4877
10.4762
10.4639
10.4507
10.4367
10.4219
10.4064
10.3902
10.3735
10.3562
10.3385
10.3206
10.3025
10.2845
10.2666
10.249
10.232
10.2156
10.2
10.1854
10.172
10.1599
10.1493
10.1402
10.1328
10.1273
10.1237
10.1221
10.1226
10.1252
10.1299
10.1361
10.1426
10.1469
10.5608
10.5549
10.5478
10.5396
10.5302
10.5198
10.5082
10.4955
10.4819
10.4672
10.4515
10.4349
10.4175
10.3992
10.3803
10.3607
10.3406
10.3201
10.2994
10.2787
10.2581
10.2378
10.218
10.199
10.1809
10.1638
10.1481
10.1337
10.121
10.1101
10.1011
10.0944
10.0899
10.0879
10.0885
10.0916
10.0974
10.1052
10.1134
10.1187
10.5882
10.5818
10.5742
10.5653
10.5551
10.5436
10.531
10.517
10.5019
10.4855
10.468
10.4495
10.4299
10.4093
10.3879
10.3657
10.3428
10.3194
10.2958
10.272
10.2482
10.2248
10.2019
10.1797
10.1585
10.1384
10.1198
10.1028
10.0875
10.0744
10.0635
10.0552
10.0496
10.047
10.0475
10.0513
10.0583
10.0682
10.0785
10.0852
10.6181
10.6111
10.6029
10.5932
10.5821
10.5697
10.5558
10.5405
10.5238
10.5057
10.4862
10.4655
10.4435
10.4204
10.3962
10.3711
10.3451
10.3185
10.2914
10.2641
10.2368
10.2097
10.183
10.1571
10.1322
10.1085
10.0864
10.066
10.0478
10.0319
10.0187
10.0084
10.0015
9.99801
9.99833
10.0026
10.0111
10.0235
10.0367
10.0453
10.6503
10.6428
10.6338
10.6233
10.6113
10.5977
10.5825
10.5657
10.5474
10.5274
10.5059
10.4828
10.4582
10.4323
10.4051
10.3766
10.3472
10.3168
10.2858
10.2545
10.2229
10.1915
10.1605
10.1302
10.1009
10.073
10.0467
10.0224
10.0004
9.9812
9.96507
9.95243
9.94364
9.93903
9.93894
9.94375
9.95396
9.96935
9.98624
9.99721
10.6847
10.6767
10.667
10.6557
10.6427
10.6279
10.6114
10.5931
10.573
10.551
10.5272
10.5016
10.4743
10.4453
10.4147
10.3826
10.3492
10.3146
10.2791
10.2429
10.2065
10.17
10.1338
10.0982
10.0637
10.0305
9.99923
9.97015
9.94373
9.92042
9.9007
9.88504
9.87389
9.86772
9.86698
9.87226
9.8844
9.90344
9.92497
9.93905
10.7212
10.7127
10.7024
10.6903
10.6764
10.6605
10.6427
10.6228
10.6008
10.5767
10.5504
10.522
10.4917
10.4593
10.425
10.3888
10.3509
10.3115
10.2708
10.2291
10.1869
10.1444
10.1019
10.06
10.0191
9.97961
9.94213
9.90717
9.87525
9.84693
9.82277
9.80334
9.78923
9.78103
9.77936
9.78506
9.79935
9.82275
9.85012
9.86818
10.7607
10.7517
10.7409
10.7281
10.7134
10.6965
10.6773
10.6558
10.6318
10.6054
10.5764
10.5449
10.5111
10.4749
10.4364
10.3955
10.3524
10.3072
10.2603
10.212
10.1628
10.1132
10.0634
10.0139
9.96531
9.91818
9.87317
9.83098
9.79226
9.7577
9.72799
9.70382
9.68593
9.6751
9.67215
9.67815
9.69483
9.72342
9.75805
9.78122
10.8073
10.7979
10.7867
10.7735
10.7581
10.7403
10.72
10.6969
10.6708
10.6416
10.6094
10.5742
10.5363
10.4957
10.4522
10.4056
10.356
10.3036
10.2488
10.1922
10.1344
10.0758
10.017
9.95821
9.90017
9.84359
9.78931
9.73818
9.69103
9.6487
9.61204
9.58192
9.55925
9.54503
9.54031
9.54646
9.5658
9.60052
9.64418
9.6738
10.8622
10.8519
10.8404
10.8272
10.8119
10.7941
10.7733
10.7492
10.7214
10.6896
10.6541
10.615
10.5729
10.5278
10.4789
10.4256
10.3677
10.3058
10.2405
10.1727
10.1034
10.0334
9.96299
9.89239
9.8222
9.75347
9.68736
9.62492
9.56711
9.51493
9.46944
9.43173
9.40299
9.38443
9.37735
9.38347
9.40582
9.4478
9.50254
9.54022
10.9433
10.9341
10.923
10.9099
10.8943
10.8755
10.853
10.8262
10.7946
10.7578
10.7158
10.67
10.6225
10.574
10.5217
10.4625
10.3955
10.3213
10.2417
10.1586
10.074
9.98943
9.90448
9.81838
9.73162
9.64621
9.56419
9.48689
9.41528
9.35044
9.29359
9.24614
9.20953
9.18531
9.17506
9.18091
9.20668
9.25723
9.32546
9.3731
11.2499
11.2384
11.2289
11.2137
11.1929
11.1648
11.1285
11.0835
11.0285
10.9619
10.8828
10.7983
10.7205
10.6584
10.6026
10.5396
10.4602
10.3638
10.2595
10.1514
10.0457
9.94557
9.84579
9.74092
9.63067
9.52092
9.41688
9.31991
9.23014
9.14845
9.07648
9.0161
8.96918
8.93758
8.92324
8.92861
8.95836
9.01899
9.10339
9.16323
12.0252
12.0343
12.0838
12.099
12.0917
12.0546
11.99
11.9034
11.7896
11.6436
11.4762
11.3155
11.1848
11.055
10.932
10.8465
10.7188
10.5412
10.3591
10.1752
10.0185
9.90571
9.80159
9.67266
9.52483
9.3764
9.24107
9.11906
9.00617
8.90212
8.80952
8.73143
8.67048
8.62901
8.60929
8.61411
8.64875
8.72134
8.82503
8.89991
90.1502
93.6202
98.3582
98.4017
96.2242
90.7534
82.2029
71.6469
59.2709
45.5883
32.2196
21.648
15.5304
14.4452
13.5968
12.6756
12.0108
11.5508
10.9924
10.3842
10.0384
9.90952
9.81217
9.64712
9.4025
9.18282
9.01924
8.87653
8.73829
8.6049
8.48352
8.38033
8.29957
8.2443
8.2173
8.22174
8.26299
8.3494
8.47551
8.57348
785.369
792.615
801.863
802.735
799.741
790.868
774.71
751.655
720.292
674.786
609.511
523.396
438.538
350.531
255.074
150.374
59.9429
18.8458
13.4342
11.2492
10.2317
10.184
10.2609
10.0898
9.32057
8.82923
8.69931
8.58066
8.42187
8.24693
8.08312
7.94396
7.83503
7.75977
7.72109
7.72223
7.76693
7.85837
7.99487
8.17194
1062.63
1063.59
1064.93
1066.52
1068.25
1070.09
1072.05
1074.18
1076.53
1079.18
1082.38
1085.53
1070.44
1041.16
988.84
882.341
666.613
381.864
154.794
61.8134
29.6007
16.1776
15.3472
12.0491
8.9768
8.53213
8.46761
8.38688
8.15754
7.86332
7.60214
7.39885
7.24857
7.1462
7.09102
7.08542
7.13627
7.24971
7.40856
7.61697
1103.84
1104.41
1105.23
1106.16
1107.11
1108.02
1108.85
1109.55
1110.1
1110.47
1110.66
1110.71
1110.72
1110.83
1111.16
1111.99
1110.59
1036.43
876.103
715.617
568.542
325.751
68.8943
14.2019
9.6493
8.47858
8.39531
8.25649
7.8998
7.4282
6.99499
6.69859
6.50398
6.38093
6.31945
6.31891
6.38739
6.53369
6.72564
6.91796
1143.07
1143.46
1143.92
1144.42
1144.87
1145.19
1145.29
1145.05
1144.36
1143.14
1141.34
1138.98
1136.06
1132.62
1129.43
1127.62
1117.51
1112.62
1114.26
1119.03
1097.39
945.89
516.396
125.546
24.6964
10.1971
9.7004
9.29328
7.45627
6.44369
5.93894
5.66673
5.5088
5.41861
5.38802
5.4183
5.51789
5.6966
5.9179
6.10679
1179.76
1180.07
1180.38
1180.68
1180.88
1180.84
1180.41
1179.41
1177.7
1175.1
1171.43
1166.14
1158.89
1125.07
1057.25
1061.34
1111.83
1130.14
1123.5
1086.54
1061.05
1041.26
936.965
730.625
504.274
277.457
91.3598
25.1257
8.43283
5.35509
4.56817
4.36807
4.31948
4.30992
4.34097
4.41998
4.55618
4.75994
4.99862
5.18653
1215.98
1216.34
1216.74
1217.15
1217.46
1217.57
1217.42
1217.04
1215.85
1212.09
1185.7
1045.18
821.053
500.873
287.257
319.47
497.912
656.27
603.463
498.913
557.295
857.176
955.306
953.158
958.734
921.462
679.612
210.654
14.1331
4.34024
3.20486
3.06335
3.11056
3.18393
3.27945
3.40615
3.57134
3.78493
4.02096
4.20161
1251.52
1252.12
1252.82
1253.64
1254.5
1255.6
1257.35
1258.55
1249.03
1047.67
607.718
235.89
49.9061
-0.702314
-0.905792
-0.893002
-0.724895
-0.601866
-0.76415
-1.1942
-1.53111
203.125
910.665
982.398
988.852
993.12
995.574
534.339
16.0251
2.60808
1.76897
1.82387
1.97785
2.13317
2.29244
2.45978
2.6414
2.84748
3.0612
3.22309
1286.09
1287
1288.12
1289.47
1291.4
1294.7
1297.93
1272.4
835.07
247.396
0.64534
-0.298556
-0.576696
-0.577046
-0.54347
-0.518686
-0.503687
-0.501603
-0.529078
-0.589527
-0.650759
-0.694448
401.575
993.308
1010.72
1009.87
1008.12
528.618
11.0877
0.218239
0.547029
0.809364
1.04309
1.25873
1.46393
1.65383
1.83447
2.01632
2.1924
2.32555