/*--------------------------------*- C++ -*----------------------------------*\
  =========                 |
  \\      /  F ield         | OpenFOAM: The Open Source CFD Toolbox
   \\    /   O peration     | Website:  https://openfoam.org
    \\  /    A nd           | Version:  8
     \\/     M anipulation  |
\*---------------------------------------------------------------------------*/
FoamFile
{
    version     2.0;
    format      ascii;
    class       surfaceScalarField;
    location    "0.15";
    object      phi;
}
// * * * * * * * * * * * * * * * * * * * * * * * * * * * * * * * * * * * * * //

dimensions      [0 3 -1 0 0 0 0];

internalField   nonuniform List<scalar> 
18095
(
1.57301e-07
-9.60682e-07
8.03381e-07
1.66077e-07
-1.24851e-06
1.23974e-06
1.22685e-07
-1.24473e-06
1.28812e-06
6.55611e-08
-1.26468e-06
1.32181e-06
-7.94646e-14
-1.2814e-06
1.34696e-06
-6.55612e-08
-1.2814e-06
1.34696e-06
-1.22685e-07
-1.26468e-06
1.32181e-06
-1.66077e-07
-1.24473e-06
1.28812e-06
-1.57301e-07
-1.24851e-06
1.23973e-06
-9.60682e-07
8.0338e-07
1.11195e-07
-1.07188e-06
1.00957e-07
-1.23827e-06
7.35816e-08
-1.21735e-06
4.03151e-08
-1.23142e-06
-3.63086e-14
-1.24108e-06
-4.03151e-08
-1.24108e-06
-7.35817e-08
-1.23142e-06
-1.00957e-07
-1.21735e-06
-1.11195e-07
-1.23827e-06
-1.07188e-06
6.84464e-08
-1.14032e-06
5.41851e-08
-1.22401e-06
4.2765e-08
-1.20593e-06
2.41502e-08
-1.2128e-06
-3.28338e-14
-1.21693e-06
-2.41502e-08
-1.21693e-06
-4.27651e-08
-1.2128e-06
-5.41852e-08
-1.20593e-06
-6.84465e-08
-1.22401e-06
-1.14032e-06
4.15104e-08
-1.18183e-06
2.77177e-08
-1.21022e-06
2.25336e-08
-1.20075e-06
1.27705e-08
-1.20304e-06
2.45822e-14
-1.20416e-06
-1.27704e-08
-1.20416e-06
-2.25336e-08
-1.20304e-06
-2.77178e-08
-1.20075e-06
-4.15105e-08
-1.21022e-06
-1.18183e-06
1.81662e-08
7.94738e-09
7.19839e-09
4.15961e-09
-8.06057e-14
-4.15971e-09
-7.19838e-09
-7.94735e-09
-1.81662e-08
-1.73214e-07
-1.1604e-06
1.33361e-06
-2.16447e-07
-1.21527e-06
1.2585e-06
-1.63697e-07
-1.21508e-06
1.16233e-06
-8.68666e-08
-1.20551e-06
1.12868e-06
3.86786e-14
-1.20374e-06
1.11687e-06
8.68667e-08
-1.20374e-06
1.11687e-06
1.63698e-07
-1.20551e-06
1.12868e-06
2.16448e-07
-1.21508e-06
1.16233e-06
1.73214e-07
-1.21527e-06
1.2585e-06
-1.1604e-06
1.33361e-06
-9.27511e-08
-1.06765e-06
-9.59761e-08
-1.21204e-06
-7.91713e-08
-1.23189e-06
-4.42015e-08
-1.24048e-06
6.42751e-14
-1.24794e-06
4.42015e-08
-1.24794e-06
7.91715e-08
-1.24048e-06
9.59763e-08
-1.23189e-06
9.27512e-08
-1.21204e-06
-1.06765e-06
-5.82194e-08
-1.00943e-06
-5.57016e-08
-1.21456e-06
-4.68065e-08
-1.24078e-06
-2.72502e-08
-1.26004e-06
-4.46534e-14
-1.27519e-06
2.72501e-08
-1.27519e-06
4.68064e-08
-1.26004e-06
5.57014e-08
-1.24078e-06
5.82191e-08
-1.21456e-06
-1.00943e-06
-7.51415e-08
-9.34288e-07
-6.22636e-08
-1.22744e-06
-4.8744e-08
-1.2543e-06
-2.78147e-08
-1.28097e-06
-7.1183e-14
-1.303e-06
2.78146e-08
-1.303e-06
4.87439e-08
-1.28097e-06
6.22635e-08
-1.2543e-06
7.51415e-08
-1.22744e-06
-9.34288e-07
-1.30907e-07
-1.18611e-07
-8.47943e-08
-4.39547e-08
-3.89001e-14
4.39545e-08
8.4794e-08
1.18611e-07
1.30907e-07
-6.68462e-08
-9.47618e-07
1.01446e-06
-9.4638e-09
-1.32876e-06
1.27138e-06
5.69246e-09
-1.27285e-06
1.25769e-06
2.11249e-09
-1.22748e-06
1.23106e-06
-6.701e-13
-1.22329e-06
1.22541e-06
-2.11381e-09
-1.22329e-06
1.22541e-06
-5.69378e-09
-1.22748e-06
1.23106e-06
9.46254e-09
-1.27285e-06
1.25769e-06
6.68451e-08
-1.32876e-06
1.27138e-06
-9.47616e-07
1.01446e-06
4.12411e-09
-9.51742e-07
1.38972e-08
-1.33854e-06
1.05389e-08
-1.26949e-06
4.90956e-09
-1.22185e-06
-3.53396e-13
-1.21838e-06
-4.9104e-09
-1.21838e-06
-1.05397e-08
-1.22185e-06
-1.3898e-08
-1.26949e-06
-4.12466e-09
-1.33854e-06
-9.51741e-07
2.39676e-08
-9.75709e-07
1.83279e-08
-1.3329e-06
1.11168e-08
-1.26228e-06
6.30373e-09
-1.21704e-06
-2.80058e-13
-1.21208e-06
-6.30421e-09
-1.21208e-06
-1.11172e-08
-1.21704e-06
-1.83284e-08
-1.26228e-06
-2.3968e-08
-1.3329e-06
-9.75709e-07
7.55352e-08
-1.05124e-06
5.09292e-08
-1.30829e-06
3.23985e-08
-1.24375e-06
2.05182e-08
-1.20516e-06
-2.35605e-13
-1.19156e-06
-2.05186e-08
-1.19156e-06
-3.23989e-08
-1.20516e-06
-5.09296e-08
-1.24375e-06
-7.55356e-08
-1.30829e-06
-1.05124e-06
2.8237e-07
2.32579e-07
1.51168e-07
7.46914e-08
1.44e-13
-7.46912e-08
-1.51168e-07
-2.32579e-07
-2.8237e-07
-1.16929e-09
-3.24613e-10
1.4939e-09
-8.5132e-10
-3.18103e-10
-5.35008e-10
-3.16455e-10
-2.13438e-10
-3.2173e-10
1.12701e-10
-3.26308e-10
4.42281e-10
-3.29747e-10
7.73533e-10
-3.31403e-10
1.10461e-09
-3.31203e-10
1.434e-09
-3.29488e-10
-3.26471e-10
1.76041e-09
-1.23006e-09
-6.45909e-10
1.55126e-09
-9.0159e-10
-6.46653e-10
-5.69447e-10
-6.48579e-10
-2.38826e-10
-6.52287e-10
9.17043e-11
-6.56741e-10
4.22149e-10
-6.6008e-10
7.51968e-10
-6.61116e-10
1.08054e-09
-6.59692e-10
1.40704e-09
-6.55946e-10
-6.49983e-10
1.73053e-09
-1.23403e-09
-9.56987e-10
1.54502e-09
-9.15591e-10
-9.65445e-10
-5.92677e-10
-9.71649e-10
-2.68249e-10
-9.76864e-10
5.55209e-11
-9.80648e-10
3.77698e-10
-9.82375e-10
6.98058e-10
-9.81564e-10
1.01634e-09
-9.78026e-10
1.33216e-09
-9.71768e-10
-9.62771e-10
1.64496e-09
-1.22264e-09
-1.26043e-09
1.52604e-09
-9.14897e-10
-1.27316e-09
-6.03713e-10
-1.28281e-09
-2.90828e-10
-1.28975e-09
2.23641e-11
-1.29387e-09
3.34968e-10
-1.29503e-09
6.46408e-10
-1.29307e-09
9.56188e-10
-1.28788e-09
1.26382e-09
-1.27947e-09
-1.2678e-09
1.56878e-09
-1.2288e-09
-1.5609e-09
1.52924e-09
-9.25197e-10
-1.57681e-09
-6.19119e-10
-1.58892e-09
-3.11518e-10
-1.59739e-09
-3.26452e-12
-1.60217e-09
3.0489e-10
-1.60321e-09
6.12295e-10
-1.60047e-09
9.18354e-10
-1.59389e-09
1.22252e-09
-1.58357e-09
-1.56949e-09
1.52427e-09
-1.25304e-09
-1.86376e-09
1.55589e-09
-9.47669e-10
-1.88215e-09
-6.40381e-10
-1.89624e-09
-3.31785e-10
-1.90606e-09
-2.25214e-11
-1.91151e-09
2.86792e-10
-1.91258e-09
5.95556e-10
-1.90924e-09
9.03175e-10
-1.90149e-09
1.2091e-09
-1.88945e-09
-1.87317e-09
1.51281e-09
-1.29651e-09
-2.17459e-09
1.60735e-09
-9.83546e-10
-2.19509e-09
-6.68928e-10
-2.21089e-09
-3.53151e-10
-2.22187e-09
-3.67608e-11
-2.22792e-09
2.79683e-10
-2.22901e-09
5.9562e-10
-2.22514e-09
9.10494e-10
-2.2163e-09
1.22378e-09
-2.20266e-09
-2.1843e-09
1.53497e-09
-1.36004e-09
-2.49901e-09
1.68447e-09
-1.03373e-09
-2.52149e-09
-7.05834e-10
-2.53884e-09
-3.76864e-10
-2.55087e-09
-4.73445e-11
-2.55745e-09
2.82188e-10
-2.55854e-09
6.11197e-10
-2.55413e-09
9.39152e-10
-2.54423e-09
1.26555e-09
-2.52903e-09
-2.50865e-09
1.5899e-09
-1.44459e-09
-2.84273e-09
1.78829e-09
-1.09906e-09
-2.86714e-09
-7.51947e-10
-2.88597e-09
-4.03816e-10
-2.89901e-09
-5.51867e-11
-2.90608e-09
2.93407e-10
-2.90714e-09
6.41443e-10
-2.90218e-09
9.88404e-10
-2.8912e-09
1.33379e-09
-2.87441e-09
-2.85197e-09
1.67712e-09
-1.55137e-09
-3.2116e-09
1.92021e-09
-1.1806e-09
-3.23801e-09
-8.08254e-10
-3.25835e-09
-4.3491e-10
-3.2724e-09
-6.10877e-11
-3.27994e-09
3.12681e-10
-3.28095e-09
6.85864e-10
-3.27539e-09
1.05793e-09
-3.26328e-09
1.42835e-09
-3.24484e-09
-3.22025e-09
1.79663e-09
-1.68193e-09
-3.61179e-09
2.08209e-09
-1.27965e-09
-3.64028e-09
-8.75808e-10
-3.66222e-09
-4.70942e-10
-3.67733e-09
-6.55889e-11
-3.68538e-09
3.39703e-10
-3.68631e-09
7.44377e-10
-3.68012e-09
1.14786e-09
-3.66679e-09
1.5496e-09
-3.6466e-09
-3.61971e-09
1.94906e-09
-1.83808e-09
-4.04984e-09
2.27613e-09
-1.39777e-09
-4.08061e-09
-9.55792e-10
-4.10427e-09
-5.12721e-10
-4.12049e-09
-6.91222e-11
-4.12905e-09
3.74413e-10
-4.12989e-09
8.1728e-10
-4.12299e-09
1.25887e-09
-4.10837e-09
1.69857e-09
-4.08629e-09
-4.0569e-09
2.13577e-09
-2.02205e-09
-4.53278e-09
2.50498e-09
-1.53664e-09
-4.56607e-09
-1.04937e-09
-4.59159e-09
-5.60919e-10
-4.609e-09
-7.18939e-11
-4.61813e-09
4.17053e-10
-4.61887e-09
9.05257e-10
-4.61121e-09
1.39206e-09
-4.59518e-09
1.8768e-09
-4.57105e-09
-4.53888e-09
2.35875e-09
-2.23634e-09
-5.06819e-09
2.77172e-09
-1.69811e-09
-5.10428e-09
-1.15785e-09
-5.13186e-09
-6.16281e-10
-5.15059e-09
-7.40846e-11
-5.16034e-09
4.68019e-10
-5.16098e-09
1.0093e-09
-5.15249e-09
1.54904e-09
-5.13492e-09
2.0865e-09
-5.10855e-09
-5.07329e-09
2.62084e-09
-2.4839e-09
-5.66436e-09
3.08007e-09
-1.88442e-09
-5.70361e-09
-1.28274e-09
-5.7335e-09
-6.79616e-10
-5.7537e-09
-7.57919e-11
-5.76415e-09
5.27922e-10
-5.76469e-09
1.13072e-09
-5.75531e-09
1.73182e-09
-5.73605e-09
2.33041e-09
-5.70719e-09
-5.66845e-09
2.92549e-09
-2.76815e-09
-6.33056e-09
3.4344e-09
-2.09823e-09
-6.37338e-09
-1.42586e-09
-6.40585e-09
-7.51867e-10
-6.42767e-09
-7.70998e-11
-6.43891e-09
5.97546e-10
-6.43934e-09
1.27118e-09
-6.42894e-09
1.94296e-09
-6.40781e-09
2.61197e-09
-6.37618e-09
-6.33354e-09
3.27704e-09
-3.09328e-09
-7.07704e-09
3.83983e-09
-2.34268e-09
-7.12392e-09
-1.58926e-09
-7.15925e-09
-8.34042e-10
-7.18286e-09
-7.7954e-11
-7.19498e-09
6.77998e-10
-7.19529e-09
1.43282e-09
-7.18377e-09
2.18559e-09
-7.16058e-09
2.93531e-09
-7.12588e-09
-7.07884e-09
3.68061e-09
-3.46415e-09
-7.91526e-09
4.3024e-09
-2.62132e-09
-7.96673e-09
-1.77531e-09
-8.00523e-09
-9.273e-10
-8.03085e-09
-7.83043e-11
-8.04395e-09
7.70552e-10
-8.04413e-09
1.61816e-09
-8.03137e-09
2.46349e-09
-8.00591e-09
3.30543e-09
-7.96782e-09
-7.91585e-09
4.14245e-09
-3.88633e-09
-8.85806e-09
4.82914e-09
-2.93833e-09
-8.91475e-09
-1.98678e-09
-8.95677e-09
-1.03297e-09
-8.98464e-09
-7.80398e-11
-8.99886e-09
8.76756e-10
-8.99892e-09
1.83016e-09
-8.98478e-09
2.78105e-09
-8.95681e-09
3.72817e-09
-8.91494e-09
-8.85748e-09
4.66984e-09
-4.36634e-09
-9.91995e-09
5.42823e-09
-3.29861e-09
-9.98259e-09
-2.2269e-09
-1.00285e-08
-1.15262e-09
-1.00589e-08
-7.70598e-11
-1.00744e-08
9.98388e-10
-1.00744e-08
2.07229e-09
-1.00587e-08
3.14342e-09
-1.0028e-08
4.21036e-09
-9.98189e-09
-9.91836e-09
5.27125e-09
-4.91182e-09
-1.11173e-08
6.10917e-09
-3.70784e-09
-1.11867e-08
-2.49942e-09
-1.1237e-08
-1.28808e-09
-1.12703e-08
-7.52758e-11
-1.12873e-08
1.13742e-09
-1.12871e-08
2.34844e-09
-1.12698e-08
3.55638e-09
-1.12359e-08
4.75965e-09
-1.11852e-08
-1.1115e-08
5.95624e-09
-5.53147e-09
-1.24688e-08
6.88288e-09
-4.17254e-09
-1.25457e-08
-2.80872e-09
-1.26008e-08
-1.44156e-09
-1.26375e-08
-7.27584e-11
-1.26561e-08
1.29595e-09
-1.26558e-08
2.66284e-09
-1.26367e-08
4.02631e-09
-1.25994e-08
5.38458e-09
-1.25435e-08
-1.2466e-08
6.73557e-09
-6.23508e-09
-1.39954e-08
7.76167e-09
-4.70016e-09
-1.40808e-08
-3.1598e-09
-1.41412e-08
-1.61564e-09
-1.41817e-08
-6.96495e-11
-1.42021e-08
1.47626e-09
-1.42017e-08
3.02016e-09
-1.41806e-08
4.56023e-09
-1.41395e-08
6.09457e-09
-1.40779e-08
-1.39925e-08
7.62106e-09
-7.03365e-09
-1.57211e-08
8.75928e-09
-5.29894e-09
-1.58156e-08
-3.55821e-09
-1.5882e-08
-1.81321e-09
-1.59267e-08
-6.62196e-11
-1.59491e-08
1.68068e-09
-1.59486e-08
3.42537e-09
-1.59253e-08
5.1658e-09
-1.588e-08
6.89995e-09
-1.58121e-08
-1.57183e-08
8.62572e-09
-7.93931e-09
-1.76728e-08
9.89089e-09
-5.97803e-09
-1.77768e-08
-4.01018e-09
-1.78497e-08
-2.03764e-09
-1.78992e-08
-6.28981e-11
-1.79239e-08
1.91172e-09
-1.79233e-08
3.88392e-09
-1.78975e-08
5.85143e-09
-1.78475e-08
7.81208e-09
-1.77727e-08
-1.76699e-08
9.76381e-09
-8.96538e-09
-1.98805e-08
1.11732e-08
-6.74771e-09
-1.99943e-08
-4.52274e-09
-2.00747e-08
-2.29267e-09
-2.01293e-08
-6.0181e-11
-2.01564e-08
2.17217e-09
-2.01557e-08
4.40189e-09
-2.01272e-08
6.62643e-09
-2.0072e-08
8.84347e-09
-1.99897e-08
-1.98774e-08
1.1051e-08
-1.01268e-08
-2.23781e-08
1.26245e-08
-7.61936e-09
-2.25017e-08
-5.10361e-09
-2.25905e-08
-2.58237e-09
-2.26505e-08
-5.84639e-11
-2.26803e-08
2.46534e-09
-2.26795e-08
4.98627e-09
-2.26481e-08
7.50145e-09
-2.25872e-08
1.00084e-08
-2.24967e-08
-2.23741e-08
1.2505e-08
-1.14402e-08
-2.5203e-08
1.42651e-08
-8.60535e-09
-2.53366e-08
-5.7611e-09
-2.54347e-08
-2.91094e-09
-2.55007e-08
-5.77615e-11
-2.55335e-08
2.79539e-09
-2.55326e-08
5.6454e-09
-2.54981e-08
8.48908e-09
-2.54308e-08
1.13236e-08
-2.53312e-08
-2.51972e-08
1.41468e-08
-1.29242e-08
-2.83968e-08
1.6118e-08
-9.71949e-09
-2.85413e-08
-6.50436e-09
-2.86498e-08
-3.28269e-09
-2.87224e-08
-5.74967e-11
-2.87587e-08
3.16776e-09
-2.87579e-08
6.38954e-09
-2.87199e-08
9.60429e-09
-2.86455e-08
1.28089e-08
-2.85358e-08
-2.83889e-08
1.60006e-08
-1.45998e-08
-3.20065e-08
1.82095e-08
-1.09775e-08
-3.21637e-08
-7.34345e-09
-3.22839e-08
-3.70203e-09
-3.23638e-08
-5.65581e-11
-3.24041e-08
3.58902e-09
-3.24034e-08
7.23076e-09
-3.23616e-08
1.08647e-08
-3.22795e-08
1.44872e-08
-3.21584e-08
-3.19969e-08
1.80952e-08
-1.64914e-08
-3.60853e-08
2.05702e-08
-1.23969e-08
-3.62581e-08
-8.28972e-09
-3.6391e-08
-4.174e-09
-3.64794e-08
-5.37652e-11
-3.65243e-08
4.06658e-09
-3.65237e-08
8.18267e-09
-3.64777e-08
1.22901e-08
-3.63869e-08
1.63848e-08
-3.6253e-08
-3.6075e-08
2.0463e-08
-1.86266e-08
-4.06942e-08
2.32356e-08
-1.39985e-08
-4.0886e-08
-9.35671e-09
-4.10328e-08
-4.70511e-09
-4.11309e-08
-4.86426e-11
-4.11807e-08
4.60786e-09
-4.11802e-08
9.25959e-09
-4.11293e-08
1.39017e-08
-4.1029e-08
1.85298e-08
-4.0881e-08
-4.06848e-08
2.31395e-08
-2.10378e-08
-4.59029e-08
2.62466e-08
-1.58069e-08
-4.61169e-08
-1.05611e-08
-4.62785e-08
-5.30429e-09
-4.63877e-08
-4.23069e-11
-4.64426e-08
5.21958e-09
-4.6442e-08
1.04762e-08
-4.63858e-08
1.57222e-08
-4.6275e-08
2.09528e-08
-4.61116e-08
-4.58955e-08
2.61635e-08
-2.37636e-08
-5.17906e-08
2.96513e-08
-1.78516e-08
-5.20287e-08
-1.19234e-08
-5.22067e-08
-5.9831e-09
-5.23279e-08
-3.72537e-11
-5.23884e-08
5.90843e-09
-5.23876e-08
1.18483e-08
-5.23257e-08
1.77767e-08
-5.22034e-08
2.36884e-08
-5.20234e-08
-5.17856e-08
2.95785e-08
-2.68482e-08
-5.84469e-08
3.35045e-08
-2.01667e-08
-5.87101e-08
-1.3467e-08
-5.89064e-08
-6.75446e-09
-5.90405e-08
-3.56805e-11
-5.91072e-08
6.68301e-09
-5.91063e-08
1.33954e-08
-5.90381e-08
2.00955e-08
-5.89034e-08
2.67774e-08
-5.87053e-08
-5.84439e-08
3.34357e-08
-3.03412e-08
-6.59733e-08
3.78674e-08
-2.27892e-08
-6.6262e-08
-1.52168e-08
-6.64788e-08
-7.63059e-09
-6.66267e-08
-3.72918e-11
-6.67005e-08
7.55617e-09
-6.66999e-08
1.51429e-08
-6.66249e-08
2.27162e-08
-6.64768e-08
3.02697e-08
-6.62588e-08
-6.59716e-08
3.77973e-08
-3.42953e-08
-7.44842e-08
4.28062e-08
-2.57579e-08
-7.47995e-08
-1.71976e-08
-7.5039e-08
-8.62254e-09
-7.52017e-08
-3.94416e-11
-7.52836e-08
8.54412e-09
-7.52834e-08
1.71204e-08
-7.52012e-08
2.56821e-08
-7.50383e-08
3.4222e-08
-7.47987e-08
-7.44831e-08
4.27335e-08
-3.8767e-08
-8.41089e-08
4.83917e-08
-2.91136e-08
-8.4453e-08
-1.94357e-08
-8.4717e-08
-9.74193e-09
-8.48956e-08
-3.9307e-11
-8.49863e-08
9.66383e-09
-8.49866e-08
1.93591e-08
-8.48965e-08
2.90384e-08
-8.47176e-08
3.86943e-08
-8.44546e-08
-8.41081e-08
4.83194e-08
-4.382e-08
-9.49929e-08
5.47041e-08
-3.29039e-08
-9.53691e-08
-2.19625e-08
-9.56583e-08
-1.10042e-08
-9.5854e-08
-3.66238e-11
-9.59539e-08
1.09312e-08
-9.59545e-08
2.18906e-08
-9.58558e-08
3.28329e-08
-9.56599e-08
4.37503e-08
-9.53721e-08
-9.49931e-08
5.46352e-08
-4.95268e-08
-1.073e-07
6.1834e-08
-3.71837e-08
-1.07712e-07
-2.48155e-08
-1.08027e-07
-1.24288e-08
-1.08241e-07
-3.30606e-11
-1.0835e-07
1.23626e-08
-1.0835e-07
2.47492e-08
-1.08242e-07
3.71181e-08
-1.08029e-07
4.94614e-08
-1.07715e-07
-1.07303e-07
6.17712e-08
-5.59604e-08
-1.21215e-07
6.98756e-08
-4.20084e-08
-1.21664e-07
-2.80315e-08
-1.22003e-07
-1.40357e-08
-1.22236e-07
-3.10258e-11
-1.22354e-07
1.39736e-08
-1.22355e-07
2.79692e-08
-1.22238e-07
4.1947e-08
-1.22007e-07
5.58994e-08
-1.21668e-07
-1.21222e-07
6.98187e-08
-6.31788e-08
-1.36942e-07
7.89052e-08
-4.74209e-08
-1.37422e-07
-3.1639e-08
-1.37785e-07
-1.58403e-08
-1.38035e-07
-3.29002e-11
-1.38162e-07
1.57749e-08
-1.38163e-07
3.15747e-08
-1.38038e-07
4.73582e-08
-1.3779e-07
6.31184e-08
-1.37428e-07
-1.36952e-07
7.88484e-08
-7.12203e-08
-1.54693e-07
8.89714e-08
-5.3448e-08
-1.55194e-07
-3.56556e-08
-1.55578e-07
-1.78504e-08
-1.5584e-07
-3.76317e-11
-1.55975e-07
1.77758e-08
-1.55976e-07
3.55827e-08
-1.55845e-07
5.33767e-08
-1.55584e-07
7.11526e-08
-1.55204e-07
-1.54705e-07
8.89054e-08
-8.01009e-08
-1.74683e-07
1.00091e-07
-6.01e-08
-1.75195e-07
-4.00879e-08
-1.7559e-07
-2.00671e-08
-1.75861e-07
-4.15206e-11
-1.76e-07
1.99843e-08
-1.76002e-07
4.00059e-08
-1.75866e-07
6.00198e-08
-1.75598e-07
8.00236e-08
-1.75208e-07
-1.74697e-07
1.00016e-07
-8.9778e-08
-1.97119e-07
1.12215e-07
-6.73437e-08
-1.9763e-07
-4.49118e-08
-1.98022e-07
-2.2479e-08
-1.98294e-07
-4.569e-11
-1.98434e-07
2.23882e-08
-1.98436e-07
4.48223e-08
-1.98301e-07
6.72573e-08
-1.98033e-07
8.96945e-08
-1.97645e-07
-1.9714e-07
1.12137e-07
-1.00126e-07
-2.22191e-07
1.25198e-07
-7.50825e-08
-2.22673e-07
-5.00606e-08
-2.23044e-07
-2.50514e-08
-2.23303e-07
-4.76973e-11
-2.23437e-07
2.49572e-08
-2.23441e-07
4.9969e-08
-2.23312e-07
7.49943e-08
-2.23059e-07
1.00041e-07
-2.22691e-07
-2.22218e-07
1.25119e-07
-1.10945e-07
-2.5003e-07
1.38784e-07
-8.31692e-08
-2.50449e-07
-5.54368e-08
-2.50776e-07
-2.77314e-08
-2.51009e-07
-3.95036e-11
-2.51129e-07
2.76521e-08
-2.51132e-07
5.53562e-08
-2.51016e-07
8.30873e-08
-2.5079e-07
1.10862e-07
-2.50466e-07
-2.5006e-07
1.38704e-07
-1.21891e-07
-2.80673e-07
1.52534e-07
-9.1348e-08
-2.80992e-07
-6.08776e-08
-2.81246e-07
-3.04471e-08
-2.81439e-07
-3.95768e-11
-2.81537e-07
3.03677e-08
-2.8154e-07
6.07962e-08
-2.81445e-07
9.1268e-08
-2.81261e-07
1.21807e-07
-2.81005e-07
-2.8071e-07
1.52458e-07
-1.32367e-07
-3.14001e-07
1.65695e-07
-9.91773e-08
-3.14182e-07
-6.60822e-08
-3.14341e-07
-3.30369e-08
-3.14484e-07
-2.10023e-11
-3.14553e-07
3.29947e-08
-3.14556e-07
6.60361e-08
-3.14486e-07
9.91297e-08
-3.14355e-07
1.32307e-07
-3.14182e-07
-3.14044e-07
1.65641e-07
-1.41402e-07
-3.49616e-07
1.77017e-07
-1.05962e-07
-3.49622e-07
-7.06063e-08
-3.49697e-07
-3.52963e-08
-3.49794e-07
-1.09034e-11
-3.49838e-07
3.5275e-08
-3.49841e-07
7.05847e-08
-3.49796e-07
1.05942e-07
-3.49713e-07
1.41379e-07
-3.49619e-07
-3.49667e-07
1.77002e-07
-1.47454e-07
-3.86713e-07
1.84551e-07
-1.10556e-07
-3.8652e-07
-7.36847e-08
-3.86569e-07
-3.68415e-08
-3.86638e-07
5.1815e-12
-3.86685e-07
3.68544e-08
-3.86691e-07
7.37194e-08
-3.86661e-07
1.10609e-07
-3.86603e-07
1.47548e-07
-3.86558e-07
-3.86762e-07
1.84643e-07
-1.48098e-07
-4.23828e-07
1.85212e-07
-1.11132e-07
-4.23486e-07
-7.40446e-08
-4.23656e-07
-3.69937e-08
-4.23689e-07
8.1142e-11
-4.2376e-07
3.71574e-08
-4.23767e-07
7.42363e-08
-4.2374e-07
1.11309e-07
-4.23676e-07
1.48362e-07
-4.2361e-07
-4.23804e-07
1.85404e-07
-1.39203e-07
-4.5821e-07
1.73586e-07
-1.04456e-07
-4.58234e-07
-6.95666e-08
-4.58545e-07
-3.46132e-08
-4.58642e-07
3.33299e-10
-4.58706e-07
3.52266e-08
-4.5866e-07
7.00662e-08
-4.58579e-07
1.0483e-07
-4.5844e-07
1.394e-07
-4.5818e-07
-4.58105e-07
1.73701e-07
-1.18708e-07
-4.88039e-07
1.48536e-07
-8.87871e-08
-4.88155e-07
-5.91776e-08
-4.88155e-07
-2.9679e-08
-4.88141e-07
-2.61669e-10
-4.88123e-07
2.92151e-08
-4.88137e-07
5.87994e-08
-4.88164e-07
8.85607e-08
-4.88201e-07
1.18544e-07
-4.88163e-07
-4.88067e-07
1.48507e-07
-9.46971e-08
-5.12554e-07
1.19213e-07
-7.06422e-08
-5.1221e-07
-4.69121e-08
-5.11885e-07
-2.33916e-08
-5.11661e-07
3.7647e-11
-5.11553e-07
2.34567e-08
-5.11556e-07
4.69556e-08
-5.11663e-07
7.06391e-08
-5.11885e-07
9.46761e-08
-5.122e-07
-5.12545e-07
1.19154e-07
-9.33273e-08
-5.36231e-07
1.17004e-07
-6.98621e-08
-5.35675e-07
-4.65067e-08
-5.3524e-07
-2.32233e-08
-5.34944e-07
1.74158e-11
-5.34793e-07
2.32529e-08
-5.34792e-07
4.653e-08
-5.3494e-07
6.98768e-08
-5.35232e-07
9.3344e-08
-5.35668e-07
-5.3622e-07
1.17018e-07
-9.22975e-08
-5.58999e-07
1.15066e-07
-6.93593e-08
-5.58613e-07
-4.62975e-08
-5.58302e-07
-2.31603e-08
-5.58082e-07
1.49148e-11
-5.57968e-07
2.31907e-08
-5.57967e-07
4.63307e-08
-5.5808e-07
6.93972e-08
-5.58298e-07
9.23415e-08
-5.58612e-07
-5.58997e-07
1.15119e-07
-9.0846e-08
-5.81341e-07
1.13187e-07
-6.83015e-08
-5.81157e-07
-4.561e-08
-5.80994e-07
-2.28167e-08
-5.80875e-07
2.69806e-11
-5.80812e-07
2.2872e-08
-5.80812e-07
4.56672e-08
-5.80875e-07
6.83637e-08
-5.80995e-07
9.0911e-08
-5.81159e-07
-5.81346e-07
1.1326e-07
-8.97577e-08
-6.03393e-07
1.11809e-07
-6.74904e-08
-6.03425e-07
-4.50688e-08
-6.03415e-07
-2.25425e-08
-6.03401e-07
3.64952e-11
-6.03391e-07
2.26157e-08
-6.03391e-07
4.51429e-08
-6.03402e-07
6.75661e-08
-6.03418e-07
8.98348e-08
-6.03428e-07
-6.03402e-07
1.11891e-07
-8.84202e-08
-6.25094e-07
1.10122e-07
-6.64967e-08
-6.25348e-07
-4.44062e-08
-6.25506e-07
-2.22064e-08
-6.25601e-07
4.9057e-11
-6.25647e-07
2.23048e-08
-6.25647e-07
4.45058e-08
-6.25603e-07
6.65968e-08
-6.25509e-07
8.85222e-08
-6.25353e-07
-6.25102e-07
1.10223e-07
-8.66825e-08
-6.46325e-07
1.07914e-07
-6.52089e-08
-6.46822e-07
-4.3554e-08
-6.47161e-07
-2.17791e-08
-6.47376e-07
5.55969e-11
-6.47481e-07
2.18903e-08
-6.47482e-07
4.36654e-08
-6.47378e-07
6.53207e-08
-6.47164e-07
8.6795e-08
-6.46828e-07
-6.46333e-07
1.08026e-07
-8.43526e-08
-6.66898e-07
1.04926e-07
-6.34943e-08
-6.6768e-07
-4.2425e-08
-6.6823e-07
-2.12163e-08
-6.68585e-07
6.13553e-11
-6.68759e-07
2.1339e-08
-6.6876e-07
4.25475e-08
-6.68587e-07
6.36166e-08
-6.68233e-07
8.44743e-08
-6.67685e-07
-6.66906e-07
1.05047e-07
-8.14338e-08
-6.86632e-07
1.01167e-07
-6.13547e-08
-6.87759e-07
-4.10206e-08
-6.88564e-07
-2.05189e-08
-6.89086e-07
6.59962e-11
-6.89344e-07
2.06508e-08
-6.89344e-07
4.11525e-08
-6.89088e-07
6.14864e-08
-6.88567e-07
8.15648e-08
-6.87764e-07
-6.86638e-07
1.01297e-07
-7.82214e-08
-7.0546e-07
9.70493e-08
-5.89931e-08
-7.06987e-07
-3.94683e-08
-7.08089e-07
-1.9748e-08
-7.08807e-07
6.92749e-11
-7.09161e-07
1.98865e-08
-7.09162e-07
3.96066e-08
-7.08808e-07
5.91311e-08
-7.08092e-07
7.83589e-08
-7.06992e-07
-7.05466e-07
9.71861e-08
-7.5224e-08
-7.23494e-07
9.32584e-08
-5.67682e-08
-7.25443e-07
-3.79968e-08
-7.2686e-07
-1.90153e-08
-7.27788e-07
7.11327e-11
-7.28248e-07
1.91575e-08
-7.28248e-07
3.8139e-08
-7.2779e-07
5.69102e-08
-7.26863e-07
7.53656e-08
-7.25447e-07
-7.23499e-07
9.33995e-08
-7.302e-08
-7.41024e-07
9.05503e-08
-5.50983e-08
-7.43365e-07
-3.68771e-08
-7.45082e-07
-1.84535e-08
-7.46212e-07
7.16317e-11
-7.46773e-07
1.85967e-08
-7.46773e-07
3.702e-08
-7.46213e-07
5.52408e-08
-7.45084e-07
7.31617e-08
-7.43368e-07
-7.41029e-07
9.06911e-08
-7.2088e-08
-7.58454e-07
8.95179e-08
-5.43431e-08
-7.6111e-07
-3.6349e-08
-7.63076e-07
-1.81831e-08
-7.64378e-07
7.02164e-11
-7.65026e-07
1.83233e-08
-7.65026e-07
3.64887e-08
-7.64379e-07
5.44822e-08
-7.63077e-07
7.22261e-08
-7.61112e-07
-7.58457e-07
8.96547e-08
-7.26967e-08
-7.76224e-07
9.04663e-08
-5.47168e-08
-7.79089e-07
-3.65609e-08
-7.81232e-07
-1.82797e-08
-7.82659e-07
6.63708e-11
-7.83372e-07
1.84122e-08
-7.83372e-07
3.66929e-08
-7.82659e-07
5.48479e-08
-7.81232e-07
7.28265e-08
-7.7909e-07
-7.76225e-07
9.05944e-08
-7.48261e-08
-7.94712e-07
9.33141e-08
-5.62286e-08
-7.97687e-07
-3.75298e-08
-7.9993e-07
-1.87548e-08
-8.01434e-07
6.07306e-11
-8.02188e-07
1.88761e-08
-8.02188e-07
3.76506e-08
-8.01434e-07
5.63486e-08
-7.9993e-07
7.49446e-08
-7.97687e-07
-7.94711e-07
9.34306e-08
-7.82596e-08
-8.14205e-07
9.77527e-08
-5.87342e-08
-8.17212e-07
-3.91681e-08
-8.19497e-07
-1.95669e-08
-8.21035e-07
5.39113e-11
-8.21808e-07
1.96746e-08
-8.21808e-07
3.92753e-08
-8.21034e-07
5.88405e-08
-8.19495e-07
7.83644e-08
-8.1721e-07
-8.14202e-07
9.78553e-08
-8.25738e-08
-8.34837e-07
1.03205e-07
-6.1938e-08
-8.37848e-07
-4.12887e-08
-8.40146e-07
-2.06254e-08
-8.41698e-07
4.65471e-11
-8.4248e-07
2.07183e-08
-8.4248e-07
4.13812e-08
-8.41697e-07
6.20295e-08
-8.40144e-07
8.26638e-08
-8.37845e-07
-8.34832e-07
1.03293e-07
-8.74273e-08
-8.56668e-07
1.09259e-07
-6.55756e-08
-8.597e-07
-4.37124e-08
-8.62009e-07
-2.18397e-08
-8.63571e-07
3.84688e-11
-8.64358e-07
2.19164e-08
-8.64358e-07
4.37885e-08
-8.63569e-07
6.56507e-08
-8.62006e-07
8.75009e-08
-8.59695e-07
-8.56661e-07
1.09331e-07
-9.24466e-08
-8.79717e-07
1.15496e-07
-6.93569e-08
-8.82789e-07
-4.62424e-08
-8.85124e-07
-2.31107e-08
-8.86703e-07
2.98603e-11
-8.87499e-07
2.31703e-08
-8.87498e-07
4.63018e-08
-8.86701e-07
6.94156e-08
-8.8512e-07
9.25045e-08
-8.82784e-07
-8.79709e-07
1.15553e-07
-9.71338e-08
-9.03816e-07
1.21232e-07
-7.2929e-08
-9.06994e-07
-4.86507e-08
-9.09402e-07
-2.43259e-08
-9.11028e-07
2.17134e-11
-9.11847e-07
2.43693e-08
-9.11846e-07
4.86939e-08
-9.11025e-07
7.2972e-08
-9.09398e-07
9.71765e-08
-9.06988e-07
-9.03807e-07
1.21274e-07
-1.01586e-07
-9.28895e-07
1.26665e-07
-7.63136e-08
-9.32267e-07
-5.09258e-08
-9.3479e-07
-2.54718e-08
-9.36482e-07
1.38198e-11
-9.37332e-07
2.54995e-08
-9.37332e-07
5.09535e-08
-9.36479e-07
7.63415e-08
-9.34786e-07
1.01614e-07
-9.32261e-07
-9.28887e-07
1.26693e-07
-1.05486e-07
-9.54899e-07
1.3149e-07
-7.92494e-08
-9.58503e-07
-5.28903e-08
-9.61149e-07
-2.64591e-08
-9.62913e-07
7.03395e-12
-9.63798e-07
2.64733e-08
-9.63798e-07
5.29048e-08
-9.62911e-07
7.92646e-08
-9.61146e-07
1.05502e-07
-9.58498e-07
-9.54892e-07
1.31507e-07
-1.08281e-07
-9.81647e-07
1.35029e-07
-8.13588e-08
-9.85426e-07
-5.43098e-08
-9.88198e-07
-2.71753e-08
-9.90047e-07
2.18613e-12
-9.90976e-07
2.71798e-08
-9.90976e-07
5.43148e-08
-9.90046e-07
8.13647e-08
-9.88196e-07
1.08289e-07
-9.85422e-07
-9.81642e-07
1.35038e-07
-1.10255e-07
-1.00892e-06
1.37525e-07
-8.2861e-08
-1.01282e-06
-5.53237e-08
-1.01574e-06
-2.7687e-08
-1.01768e-06
-8.16128e-13
-1.01866e-06
2.76856e-08
-1.01866e-06
5.53228e-08
-1.01768e-06
8.28611e-08
-1.01573e-06
1.10257e-07
-1.01282e-06
-1.00891e-06
1.37529e-07
-1.1156e-07
-1.03634e-06
1.38979e-07
-8.38686e-08
-1.04051e-06
-5.59965e-08
-1.04361e-06
-2.80224e-08
-1.04566e-06
-1.85004e-12
-1.04668e-06
2.80188e-08
-1.04668e-06
5.59935e-08
-1.04566e-06
8.38666e-08
-1.04361e-06
1.11559e-07
-1.04051e-06
-1.03634e-06
1.3898e-07
-1.11664e-07
-1.06374e-06
1.39069e-07
-8.39017e-08
-1.06827e-06
-5.599e-08
-1.07152e-06
-2.80107e-08
-1.07364e-06
-1.63056e-12
-1.07469e-06
2.80076e-08
-1.07469e-06
5.59876e-08
-1.07364e-06
8.39003e-08
-1.07152e-06
1.11664e-07
-1.06827e-06
-1.06374e-06
1.39071e-07
-1.10072e-07
-1.0913e-06
1.37631e-07
-8.25813e-08
-1.09576e-06
-5.50727e-08
-1.09903e-06
-2.75425e-08
-1.10117e-06
-6.19215e-13
-1.10223e-06
2.75414e-08
-1.10223e-06
5.50723e-08
-1.10117e-06
8.25819e-08
-1.09903e-06
1.10074e-07
-1.09577e-06
-1.0913e-06
1.37634e-07
-1.07104e-07
-1.11842e-06
1.34221e-07
-8.02437e-08
-1.12262e-06
-5.3474e-08
-1.1258e-06
-2.67329e-08
-1.12791e-06
2.01615e-13
-1.12897e-06
2.67334e-08
-1.12897e-06
5.3475e-08
-1.12791e-06
8.02454e-08
-1.1258e-06
1.07107e-07
-1.12263e-06
-1.11842e-06
1.34224e-07
-1.02727e-07
-1.14443e-06
1.28737e-07
-7.69478e-08
-1.1484e-06
-5.12673e-08
-1.15148e-06
-2.56262e-08
-1.15355e-06
7.78809e-13
-1.15459e-06
2.56279e-08
-1.15459e-06
5.12692e-08
-1.15355e-06
7.69502e-08
-1.15148e-06
1.0273e-07
-1.14841e-06
-1.14443e-06
1.28741e-07
-9.68819e-08
-1.16884e-06
1.21291e-07
-7.26076e-08
-1.17268e-06
-4.83867e-08
-1.1757e-06
-2.4188e-08
-1.17775e-06
9.53341e-13
-1.17878e-06
2.419e-08
-1.17878e-06
4.83889e-08
-1.17775e-06
7.26102e-08
-1.1757e-06
9.68848e-08
-1.17268e-06
-1.16884e-06
1.21294e-07
-8.945e-08
-1.19118e-06
1.11794e-07
-6.70873e-08
-1.19504e-06
-4.47157e-08
-1.19807e-06
-2.23533e-08
-1.20011e-06
8.41504e-13
-1.20114e-06
2.23551e-08
-1.20114e-06
4.47176e-08
-1.20011e-06
6.70894e-08
-1.19807e-06
8.94521e-08
-1.19504e-06
-1.19118e-06
1.11796e-07
-8.06039e-08
-1.21138e-06
1.00803e-07
-6.04042e-08
-1.21524e-06
-4.02436e-08
-1.21823e-06
-2.01136e-08
-1.22024e-06
4.85879e-13
-1.22125e-06
2.01146e-08
-1.22125e-06
4.02447e-08
-1.22024e-06
6.04052e-08
-1.21823e-06
8.06048e-08
-1.21524e-06
-1.21138e-06
1.00804e-07
-7.05927e-08
-1.22935e-06
8.85689e-08
-5.27897e-08
-1.23304e-06
-3.51364e-08
-1.23588e-06
-1.75538e-08
-1.23782e-06
1.77121e-13
-1.2388e-06
1.75541e-08
-1.23881e-06
3.51368e-08
-1.23783e-06
5.27899e-08
-1.23589e-06
7.05927e-08
-1.23305e-06
-1.22936e-06
8.85687e-08
-5.9465e-08
-1.24458e-06
7.46914e-08
-4.44325e-08
-1.24808e-06
-2.95541e-08
-1.25076e-06
-1.47594e-08
-1.25262e-06
8.11219e-14
-1.25356e-06
1.47596e-08
-1.25357e-06
2.95541e-08
-1.25262e-06
4.44324e-08
-1.25077e-06
5.94645e-08
-1.24808e-06
-1.24459e-06
7.46906e-08
-4.75359e-08
-1.2568e-06
5.97586e-08
-3.55073e-08
-1.2601e-06
-2.36169e-08
-1.26265e-06
-1.17953e-08
-1.26444e-06
7.83425e-14
-1.26536e-06
1.17954e-08
-1.26536e-06
2.36169e-08
-1.26444e-06
3.55071e-08
-1.26266e-06
4.75353e-08
-1.26011e-06
-1.25681e-06
5.97576e-08
-3.51425e-08
-1.26587e-06
4.42072e-08
-2.62669e-08
-1.26898e-06
-1.74908e-08
-1.27143e-06
-8.74419e-09
-1.27319e-06
1.4034e-13
-1.2741e-06
8.74441e-09
-1.2741e-06
1.74908e-08
-1.27319e-06
2.62667e-08
-1.27143e-06
3.51419e-08
-1.26898e-06
-1.26587e-06
4.42061e-08
-2.25418e-08
-1.27162e-06
2.82906e-08
-1.69297e-08
-1.27459e-06
-1.13332e-08
-1.27703e-06
-5.68874e-09
-1.27883e-06
1.77741e-13
-1.27979e-06
5.68901e-09
-1.27979e-06
1.13332e-08
-1.27883e-06
1.69293e-08
-1.27703e-06
2.2541e-08
-1.27459e-06
-1.27162e-06
2.82893e-08
-1.00111e-08
-1.27394e-06
1.23364e-08
-7.71401e-09
-1.27689e-06
-5.29938e-09
-1.27944e-06
-2.71127e-09
-1.28142e-06
1.53182e-13
-1.2825e-06
2.71148e-09
-1.2825e-06
5.29932e-09
-1.28142e-06
7.7135e-09
-1.27944e-06
1.00101e-08
-1.27689e-06
-1.27394e-06
1.23347e-08
2.21527e-09
-1.27284e-06
-3.32133e-09
1.20643e-09
-1.27588e-06
4.7835e-10
-1.27871e-06
1.11979e-10
-1.28105e-06
9.9325e-14
-1.28239e-06
-1.11885e-10
-1.28239e-06
-4.78577e-10
-1.28105e-06
-1.20718e-09
-1.27871e-06
-2.21665e-09
-1.27588e-06
-1.27284e-06
-3.32349e-09
1.39889e-08
-1.26835e-06
-1.84739e-08
9.6779e-09
-1.27157e-06
5.85897e-09
-1.27489e-06
2.68975e-09
-1.27788e-06
4.07619e-14
-1.2797e-06
-2.6898e-09
-1.2797e-06
-5.85941e-09
-1.27788e-06
-9.67898e-09
-1.27489e-06
-1.39907e-08
-1.27157e-06
-1.26835e-06
-1.84766e-08
2.49291e-08
-1.26054e-06
-3.27442e-08
1.73353e-08
-1.26398e-06
1.05557e-08
-1.26811e-06
4.87179e-09
-1.2722e-06
-3.92941e-14
-1.27483e-06
-4.872e-09
-1.27483e-06
-1.05564e-08
-1.2722e-06
-1.73367e-08
-1.26811e-06
-2.49313e-08
-1.26398e-06
-1.26054e-06
-3.27474e-08
3.41e-08
-1.24923e-06
-4.54099e-08
2.32702e-08
-1.25315e-06
1.40858e-08
-1.25893e-06
6.6248e-09
-1.26474e-06
-2.16768e-13
-1.26821e-06
-6.62533e-09
-1.26821e-06
-1.40867e-08
-1.26474e-06
-2.32717e-08
-1.25893e-06
-3.41023e-08
-1.25314e-06
-1.24923e-06
-4.54131e-08
3.94082e-08
-1.23301e-06
-5.56273e-08
2.55216e-08
-1.23926e-06
1.60289e-08
-1.24944e-06
8.53751e-09
-1.25725e-06
-4.49404e-13
-1.25967e-06
-8.53843e-09
-1.25967e-06
-1.60298e-08
-1.25725e-06
-2.55228e-08
-1.24944e-06
-3.94101e-08
-1.23926e-06
-1.23301e-06
-5.563e-08
3.50762e-08
-1.20497e-06
-6.3116e-08
2.14697e-08
-1.22565e-06
1.77275e-08