/*--------------------------------*- C++ -*----------------------------------*\
  =========                 |
  \\      /  F ield         | OpenFOAM: The Open Source CFD Toolbox
   \\    /   O peration     | Website:  https://openfoam.org
    \\  /    A nd           | Version:  8
     \\/     M anipulation  |
\*---------------------------------------------------------------------------*/
FoamFile
{
    version     2.0;
    format      ascii;
    class       volVectorField;
    location    "0.15";
    object      U;
}
// * * * * * * * * * * * * * * * * * * * * * * * * * * * * * * * * * * * * * //

dimensions      [0 1 -1 0 0 0 0];

internalField   nonuniform List<vector> 
9150
(
(0.0546545 -0.42541 0)
(0.0877162 -0.621604 0)
(0.0738329 -0.632716 0)
(0.0487505 -0.644427 0)
(0.0170442 -0.654961 0)
(-0.0170443 -0.654961 0)
(-0.0487505 -0.644427 0)
(-0.073833 -0.632716 0)
(-0.0877164 -0.621604 0)
(-0.0546545 -0.425409 0)
(0.0422067 -0.520311 0)
(0.0575015 -0.62638 0)
(0.0429215 -0.614315 0)
(0.0295642 -0.622917 0)
(0.0105283 -0.629237 0)
(-0.0105283 -0.629237 0)
(-0.0295643 -0.622917 0)
(-0.0429216 -0.614315 0)
(-0.0575016 -0.62638 0)
(-0.0422067 -0.520311 0)
(0.0272999 -0.555937 0)
(0.0327793 -0.614856 0)
(0.0236305 -0.605039 0)
(0.0174604 -0.610252 0)
(0.00630353 -0.613405 0)
(-0.00630354 -0.613405 0)
(-0.0174605 -0.610252 0)
(-0.0236305 -0.605039 0)
(-0.0327794 -0.614856 0)
(-0.0272999 -0.555937 0)
(0.0176405 -0.583379 0)
(0.0177877 -0.608227 0)
(0.0121285 -0.60136 0)
(0.00907389 -0.603396 0)
(0.00329972 -0.604478 0)
(-0.00329968 -0.604478 0)
(-0.00907391 -0.603396 0)
(-0.0121285 -0.60136 0)
(-0.0177878 -0.608227 0)
(-0.0176405 -0.583379 0)
(0.00798363 -0.596639 0)
(0.00576292 -0.601618 0)
(0.0037004 -0.600053 0)
(0.00277359 -0.600368 0)
(0.00102146 -0.600494 0)
(-0.00102153 -0.600494 0)
(-0.00277361 -0.600367 0)
(-0.00370039 -0.600053 0)
(-0.00576292 -0.601618 0)
(-0.00798364 -0.596639 0)
(0.468448 -1.1612 1.19101e-24)
(0.283088 -1.0865 0)
(0.165511 -1.07215 0)
(0.092661 -1.05935 0)
(0.0303036 -1.05409 0)
(-0.0303036 -1.05409 0)
(-0.0926609 -1.05935 0)
(-0.165511 -1.07215 0)
(-0.283088 -1.0865 0)
(-0.468448 -1.1612 -1.19101e-24)
(0.332405 -0.841313 3.06659e-25)
(0.285879 -0.935288 0)
(0.189295 -0.938763 0)
(0.108263 -0.937866 0)
(0.035609 -0.940003 0)
(-0.035609 -0.940003 0)
(-0.108263 -0.937866 0)
(-0.189295 -0.938763 0)
(-0.285879 -0.935287 0)
(-0.332404 -0.841312 -3.06658e-25)
(0.278194 -0.700589 4.174e-26)
(0.258203 -0.803685 0)
(0.178828 -0.819506 0)
(0.10454 -0.829386 0)
(0.0347423 -0.837295 0)
(-0.0347424 -0.837295 0)
(-0.10454 -0.829386 0)
(-0.178828 -0.819506 0)
(-0.258203 -0.803685 0)
(-0.278194 -0.700589 -4.17387e-26)
(0.200048 -0.552877 1.96683e-25)
(0.216261 -0.70831 0)
(0.154928 -0.727643 0)
(0.0913191 -0.742969 0)
(0.0304973 -0.754686 0)
(-0.0304974 -0.754686 0)
(-0.0913191 -0.742969 0)
(-0.154928 -0.727644 0)
(-0.216261 -0.70831 0)
(-0.200048 -0.552877 -1.96684e-25)
(0.119435 -0.442171 -3.26227e-25)
(0.156765 -0.643048 -4.705e-25)
(0.117499 -0.66523 -1.55531e-25)
(0.0709798 -0.682014 -1.01496e-25)
(0.0239602 -0.694841 -5.89857e-27)
(-0.0239602 -0.694841 -5.89884e-27)
(-0.0709799 -0.682014 -1.01496e-25)
(-0.117499 -0.66523 -1.55532e-25)
(-0.156765 -0.643048 -4.705e-25)
(-0.119435 -0.442171 -3.26227e-25)
(0.00363615 -0.943443 0)
(-0.0410575 -1.32184 0)
(0.0192227 -1.2665 0)
(-0.0073876 -1.22533 0)
(0.0055098 -1.22221 0)
(-0.0055105 -1.22221 0)
(0.00738699 -1.22533 0)
(-0.0192234 -1.2665 0)
(0.0410569 -1.32184 0)
(-0.00363637 -0.943441 0)
(0.0396073 -0.91528 0)
(-0.0231537 -1.32397 0)
(0.0231665 -1.27054 0)
(-0.00262245 -1.22522 0)
(0.00255781 -1.22286 0)
(-0.00255812 -1.22286 0)
(0.00262192 -1.22522 0)
(-0.0231671 -1.27054 0)
(0.0231534 -1.32397 0)
(-0.0396073 -0.915279 0)
(0.067785 -0.946156 0)
(-0.0230594 -1.34001 0)
(0.0197017 -1.27779 0)
(0.00290975 -1.23232 0)
(0.000105939 -1.22722 0)
(-0.000106195 -1.22722 0)
(-0.00290994 -1.23232 0)
(-0.0197018 -1.27779 0)
(0.0230591 -1.34001 0)
(-0.0677852 -0.946155 0)
(0.133894 -1.07416 0)
(-0.000927695 -1.36082 0)
(0.0194021 -1.27489 0)
(0.0203433 -1.22789 0)
(0.0052256 -1.21549 0)
(-0.00522582 -1.21549 0)
(-0.0203436 -1.22789 0)
(-0.0194022 -1.27489 0)
(0.000927479 -1.36081 0)
(-0.133894 -1.07416 0)
(0.289433 -1.21812 0)
(0.120163 -1.32021 0)
(0.0713097 -1.21398 0)
(0.0564672 -1.17155 0)
(0.0196715 -1.15778 0)
(-0.0196713 -1.15778 0)
(-0.0564672 -1.17155 0)
(-0.0713096 -1.21398 0)
(-0.120163 -1.32021 0)
(-0.289433 -1.21812 0)
(-0.000667068 -0.000196424 0)
(-0.000510656 -0.000182389 0)
(-0.000346598 -0.000175996 0)
(-0.000182514 -0.000183253 0)
(-2.67541e-05 -0.000188919 0)
(0.000137471 -0.000192411 0)
(0.000303541 -0.00019455 0)
(0.0004695 -0.000195358 0)
(0.00063489 -0.000195136 0)
(0.000799143 -0.000194339 0)
(-0.000695552 -0.000487853 0)
(-0.000533319 -0.000483789 0)
(-0.000368016 -0.000483338 0)
(-0.000201947 -0.000486046 0)
(-3.69129e-05 -0.000491124 0)
(0.000128409 -0.000495625 0)
(0.000293593 -0.000497737 0)
(0.000458282 -0.000497392 0)
(0.000622191 -0.000494899 0)
(0.000784987 -0.000490531 0)
(-0.000695274 -0.000803331 0)
(-0.000538021 -0.000809621 0)
(-0.000377438 -0.000814111 0)
(-0.000215385 -0.000818809 0)
(-5.30983e-05 -0.000822727 0)
(0.000108494 -0.00082496 0)
(0.000269176 -0.000824881 0)
(0.000428866 -0.000822262 0)
(0.000587485 -0.000817115 0)
(0.00074489 -0.000809459 0)
(-0.000687437 -0.00110992 0)
(-0.000534858 -0.00112067 0)
(-0.000379977 -0.00112881 0)
(-0.000223828 -0.00113484 0)
(-6.71032e-05 -0.0011386 0)
(8.94401e-05 -0.00113986 0)
(0.000245524 -0.00113835 0)
(0.000400876 -0.00113392 0)
(0.000555318 -0.00112655 0)
(0.00070872 -0.0011162 0)
(-0.000689611 -0.00141067 0)
(-0.000538804 -0.00142524 0)
(-0.000386346 -0.00143631 0)
(-0.000232859 -0.00144409 0)
(-7.87263e-05 -0.00144853 0)
(7.54618e-05 -0.00144958 0)
(0.000229437 -0.00144715 0)
(0.000382859 -0.00144119 0)
(0.000535501 -0.00143174 0)
(0.000687228 -0.00141878 0)
(-0.000702238 -0.00171102 0)
(-0.000550399 -0.00172828 0)
(-0.000397231 -0.00174147 0)
(-0.000243218 -0.00175066 0)
(-8.86152e-05 -0.00175578 0)
(6.61027e-05 -0.00175683 0)
(0.000220706 -0.00175376 0)
(0.000374856 -0.00174658 0)
(0.00052832 -0.00173536 0)
(0.00068097 -0.00172015 0)
(-0.000725933 -0.00201654 0)
(-0.000570187 -0.00203604 0)
(-0.000413305 -0.00205103 0)
(-0.000255672 -0.00206147 0)
(-9.75115e-05 -0.00206724 0)
(6.0762e-05 -0.00206832 0)
(0.000218937 -0.00206471 0)
(0.000376689 -0.00205641 0)
(0.000533801 -0.00204355 0)
(0.000690155 -0.00202621 0)
(-0.000761076 -0.00233282 0)
(-0.000598583 -0.00235433 0)
(-0.000435061 -0.00237092 0)
(-0.000270804 -0.00238245 0)
(-0.00010608 -0.00238878 0)
(5.87443e-05 -0.00238987 0)
(0.000223457 -0.00238574 0)
(0.000387744 -0.00237638 0)
(0.000551399 -0.00236196 0)
(0.000714318 -0.00234259 0)
(-0.000808171 -0.0026655 0)
(-0.00063603 -0.00268894 0)
(-0.000462913 -0.00270703 0)
(-0.000289051 -0.00271957 0)
(-0.000114774 -0.0027264 0)
(5.95922e-05 -0.00272748 0)
(0.000233826 -0.00272281 0)
(0.00040762 -0.00271237 0)
(0.000580771 -0.00269639 0)
(0.000753181 -0.00267499 0)
(-0.000867857 -0.00302034 0)
(-0.000683092 -0.00304573 0)
(-0.000497372 -0.0030653 0)
(-0.000310884 -0.00307884 0)
(-0.000124022 -0.00308615 0)
(6.29396e-05 -0.00308719 0)
(0.000249756 -0.00308194 0)
(0.000436113 -0.00307041 0)
(0.000621796 -0.00305281 0)
(0.000806706 -0.00302933 0)
(-0.000940987 -0.00340333 0)
(-0.000740482 -0.00343074 0)
(-0.000539027 -0.00345186 0)
(-0.000336766 -0.00346643 0)
(-0.000134156 -0.00347422 0)
(6.85744e-05 -0.0034752 0)
(0.000271147 -0.00346934 0)
(0.000473234 -0.00345664 0)
(0.000674603 -0.00343736 0)
(0.000875143 -0.00341168 0)
(-0.00102856 -0.00382081 0)
(-0.000809044 -0.00385039 0)
(-0.000588563 -0.00387316 0)
(-0.000367192 -0.00388881 0)
(-0.000145488 -0.00389712 0)
(7.63734e-05 -0.00389802 0)
(0.00029806 -0.00389149 0)
(0.000519225 -0.00387755 0)
(0.000739612 -0.00385646 0)
(0.000959085 -0.00382839 0)
(-0.0011318 -0.00427956 0)
(-0.000889744 -0.00431152 0)
(-0.00064669 -0.00433608 0)
(-0.00040262 -0.00435288 0)
(-0.000158235 -0.00436173 0)
(8.63468e-05 -0.00436253 0)
(0.000330727 -0.00435528 0)
(0.000574536 -0.00433999 0)
(0.000817489 -0.00431695 0)
(0.00105942 -0.00428627 0)
(-0.0012521 -0.00478687 0)
(-0.000983673 -0.00482147 0)
(-0.000714197 -0.00484798 0)
(-0.000443556 -0.00486604 0)
(-0.00017263 -0.00487548 0)
(9.85477e-05 -0.00487619 0)
(0.000369494 -0.00486815 0)
(0.000639812 -0.0048514 0)
(0.000909187 -0.00482622 0)
(0.00117742 -0.00479263 0)
(-0.00139112 -0.00535065 0)
(-0.00109211 -0.00538822 0)
(-0.000792016 -0.00541691 0)
(-0.000490576 -0.00543636 0)
(-0.000188899 -0.00544646 0)
(0.000113105 -0.00544707 0)
(0.000414842 -0.00543818 0)
(0.000715889 -0.00541982 0)
(0.00101589 -0.00539228 0)
(0.00131462 -0.00535543 0)
(-0.00155081 -0.00597966 0)
(-0.00121659 -0.00602057 0)
(-0.000881269 -0.0060517 0)
(-0.000544357 -0.00607269 0)
(-0.000207298 -0.00608354 0)
(0.000130194 -0.00608405 0)
(0.000467382 -0.0060742 0)
(0.000803815 -0.00605407 0)
(0.00113911 -0.00602391 0)
(0.00147296 -0.00598337 0)
(-0.0017335 -0.0066836 0)
(-0.00135891 -0.00672831 0)
(-0.000983247 -0.00676214 0)
(-0.000605662 -0.00678483 0)
(-0.000228066 -0.00679651 0)
(0.000150105 -0.00679689 0)
(0.000527926 -0.00678598 0)
(0.000904916 -0.00676388 0)
(0.00128065 -0.0067308 0)
(0.00165478 -0.00668612 0)
(-0.00194192 -0.00747325 0)
(-0.00152119 -0.00752226 0)
(-0.00109942 -0.0075591 0)
(-0.000675362 -0.00758367 0)
(-0.00025148 -0.00759626 0)
(0.000173169 -0.00759651 0)
(0.000597424 -0.0075844 0)
(0.00102076 -0.00756012 0)
(0.0014427 -0.00752381 0)
(0.00186287 -0.00747446 0)
(-0.00217922 -0.00836065 0)
(-0.00170586 -0.00841454 0)
(-0.00123154 -0.00845471 0)
(-0.000754485 -0.00848137 0)
(-0.000277843 -0.00849498 0)
(0.000199799 -0.00849507 0)
(0.000677002 -0.00848163 0)
(0.00115319 -0.00845494 0)
(0.00162783 -0.00841502 0)
(0.00210052 -0.00836045 0)
(-0.00244907 -0.00935931 0)
(-0.0019158 -0.00941875 0)
(-0.00138161 -0.00946261 0)
(-0.00084424 -0.00949163 0)
(-0.000307522 -0.00950638 0)
(0.000230464 -0.0095063 0)
(0.000767972 -0.00949137 0)
(0.00130436 -0.009462 0)
(0.00183902 -0.00941806 0)
(0.00237154 -0.00935766 0)
(-0.00275574 -0.0104845 0)
(-0.00215435 -0.0105502 0)
(-0.001552 -0.0105982 0)
(-0.000946052 -0.0106299 0)
(-0.000340948 -0.0106459 0)
(0.000265679 -0.0106456 0)
(0.000871801 -0.0106291 0)
(0.00147668 -0.0105967 0)
(0.00207964 -0.0105483 0)
(0.00268021 -0.0104815 0)
(-0.00310412 -0.0117533 0)
(-0.00242539 -0.0118262 0)
(-0.00174543 -0.0118787 0)
(-0.00106163 -0.0119135 0)
(-0.000378693 -0.011931 0)
(0.00030595 -0.0119306 0)
(0.000990071 -0.0119122 0)
(0.00167281 -0.0118766 0)
(0.00235339 -0.0118233 0)
(0.00303133 -0.0117494 0)
(-0.0034997 -0.0131856 0)
(-0.0027333 -0.0132665 0)
(-0.00196504 -0.013324 0)
(-0.00119293 -0.0133623 0)
(-0.000421431 -0.0133815 0)
(0.00035181 -0.013381 0)
(0.00112451 -0.0133607 0)
(0.00189568 -0.0133215 0)
(0.0026644 -0.0132627 0)
(0.00343018 -0.0131812 0)
(-0.00394862 -0.0148037 0)
(-0.00308295 -0.0148934 0)
(-0.0022143 -0.0149565 0)
(-0.00134216 -0.0149989 0)
(-0.00046996 -0.0150201 0)
(0.000403779 -0.0150195 0)
(0.00127696 -0.0149971 0)
(0.00214842 -0.014954 0)
(0.00301714 -0.0148893 0)
(0.00388254 -0.0147996 0)
(-0.00445768 -0.0166332 0)
(-0.00347973 -0.0167323 0)
(-0.0024971 -0.0168017 0)
(-0.0015118 -0.0168487 0)
(-0.000525228 -0.0168721 0)
(0.000462372 -0.0168716 0)
(0.0014494 -0.0168471 0)
(0.00243452 -0.0167996 0)
(0.00341657 -0.0167285 0)
(0.00439482 -0.0166303 0)
(-0.00503439 -0.0187033 0)
(-0.0039295 -0.0188122 0)
(-0.00281783 -0.0188887 0)
(-0.00170455 -0.0189408 0)
(-0.000588304 -0.0189668 0)
(0.000528167 -0.0189663 0)
(0.00164404 -0.0189395 0)
(0.00275781 -0.0188873 0)
(0.00386816 -0.0188092 0)
(0.00497407 -0.0187021 0)
(-0.00568713 -0.0210467 0)
(-0.00443872 -0.0211655 0)
(-0.00318131 -0.02125 0)
(-0.00192327 -0.0213077 0)
(-0.000660315 -0.0213365 0)
(0.000601893 -0.0213362 0)
(0.00186346 -0.0213068 0)
(0.00312271 -0.0212494 0)
(0.00437817 -0.0211637 0)
(0.00562841 -0.0210469 0)
(-0.00642527 -0.0236997 0)
(-0.0050144 -0.0238285 0)
(-0.0035927 -0.023922 0)
(-0.00217083 -0.0239855 0)
(-0.000742317 -0.0240174 0)
(0.000684593 -0.0240171 0)
(0.00211079 -0.0239849 0)
(0.00353446 -0.0239214 0)
(0.00495395 -0.0238271 0)
(0.00636733 -0.0236996 0)
(-0.00725935 -0.0267018 0)
(-0.00566431 -0.0268409 0)
(-0.00405765 -0.0269444 0)
(-0.00245027 -0.0270141 0)
(-0.000835232 -0.0270491 0)
(0.000777768 -0.0270487 0)
(0.00238998 -0.027013 0)
(0.00399939 -0.0269427 0)
(0.00560418 -0.0268386 0)
(0.00720199 -0.0266988 0)
(-0.00820136 -0.0300961 0)
(-0.00639744 -0.0302467 0)
(-0.00458243 -0.030361 0)
(-0.00276488 -0.0304372 0)
(-0.000939873 -0.0304756 0)
(0.000883349 -0.0304748 0)
(0.00270569 -0.030435 0)
(0.00452492 -0.0303568 0)
(0.00633904 -0.0302415 0)
(0.00814536 -0.0300876 0)
(-0.00926495 -0.0339304 0)
(-0.00722429 -0.0340946 0)
(-0.00517409 -0.0342207 0)
(-0.00311866 -0.0343041 0)
(-0.00105719 -0.034346 0)
(0.00100348 -0.0343448 0)
(0.00306317 -0.0343003 0)
(0.00511939 -0.0342134 0)
(0.00716993 -0.0340855 0)
(0.00921202 -0.0339157 0)
(-0.0104657 -0.0382593 0)
(-0.0081573 -0.0384403 0)
(-0.00584104 -0.0385791 0)
(-0.00351688 -0.0386709 0)
(-0.0011887 -0.038717 0)
(0.00114011 -0.0387153 0)
(0.00346783 -0.038666 0)
(0.00579167 -0.0385697 0)
(0.00810919 -0.0384283 0)
(0.0104178 -0.0382409 0)
(-0.0118216 -0.0431466 0)
(-0.00921139 -0.0433481 0)
(-0.00659371 -0.0435009 0)
(-0.00396654 -0.0436031 0)
(-0.00133694 -0.0436542 0)
(0.00129463 -0.0436527 0)
(0.00392499 -0.0435985 0)
(0.00655103 -0.0434926 0)
(0.0091701 -0.0433368 0)
(0.0117797 -0.0431307 0)
(-0.0133543 -0.0486678 0)
(-0.010404 -0.0488929 0)
(-0.00744488 -0.0490618 0)
(-0.00447632 -0.0491762 0)
(-0.00150545 -0.0492335 0)
(0.00146808 -0.0492327 0)
(0.00444027 -0.0491738 0)
(0.00740774 -0.0490576 0)
(0.0103676 -0.0488866 0)
(0.0133174 -0.0486605 0)
(-0.0150885 -0.0549101 0)
(-0.0117549 -0.0551608 0)
(-0.00840934 -0.0553479 0)
(-0.00505569 -0.0554761 0)
(-0.00169801 -0.0555405 0)
(0.0016621 -0.0555405 0)
(0.00502074 -0.0554764 0)
(0.00837432 -0.055349 0)
(0.0117196 -0.0551611 0)
(0.0150539 -0.0549127 0)
(-0.0170524 -0.0619724 0)
(-0.0132851 -0.0622491 0)
(-0.0095028 -0.0624564 0)
(-0.00571365 -0.0625988 0)
(-0.00191755 -0.0626704 0)
(0.00188001 -0.062671 0)
(0.005676 -0.0626005 0)
(0.00946655 -0.0624602 0)
(0.013248 -0.0622531 0)
(0.0170173 -0.0619798 0)
(-0.0192756 -0.0699641 0)
(-0.0150166 -0.0702665 0)
(-0.010741 -0.0704951 0)
(-0.00645837 -0.0706515 0)
(-0.00216609 -0.0707302 0)
(0.00212657 -0.0707305 0)
(0.00641756 -0.0706525 0)
(0.0107027 -0.0704976 0)
(0.0149777 -0.0702693 0)
(0.0192395 -0.0699684 0)
(-0.0217899 -0.0790051 0)
(-0.0169735 -0.0793339 0)
(-0.0121403 -0.0795851 0)
(-0.00729835 -0.0797554 0)
(-0.0024458 -0.0798412 0)
(0.00240671 -0.0798409 0)
(0.00725734 -0.0797547 0)
(0.0121016 -0.0795839 0)
(0.0169348 -0.079333 0)
(0.0217541 -0.0790026 0)
(-0.0246312 -0.0892273 0)
(-0.0191835 -0.0895856 0)
(-0.0137201 -0.0898612 0)
(-0.00824488 -0.0900467 0)
(-0.00276061 -0.0901406 0)
(0.00272433 -0.09014 0)
(0.0082072 -0.090045 0)
(0.0136831 -0.0898575 0)
(0.0191474 -0.0895823 0)
(0.024597 -0.0892201 0)
(-0.0278404 -0.100779 0)
(-0.021679 -0.101172 0)
(-0.0155033 -0.101473 0)
(-0.00931277 -0.101676 0)
(-0.00311605 -0.10178 0)
(0.00308296 -0.101779 0)
(0.00927974 -0.101675 0)
(0.0154691 -0.10147 0)
(0.0216464 -0.101169 0)
(0.0278086 -0.100772 0)
(-0.0314595 -0.113832 0)
(-0.0244925 -0.114263 0)
(-0.0175128 -0.11459 0)
(-0.0105177 -0.114813 0)
(-0.00351762 -0.114927 0)
(0.00348595 -0.114927 0)
(0.0104874 -0.114815 0)
(0.0174815 -0.114592 0)
(0.0244629 -0.114264 0)
(0.0314298 -0.113834 0)
(-0.0355207 -0.128593 0)
(-0.0276501 -0.129059 0)
(-0.0197664 -0.12941 0)
(-0.0118715 -0.129653 0)
(-0.0039693 -0.129776 0)
(0.0039357 -0.129777 0)
(0.011839 -0.129657 0)
(0.0197355 -0.129417 0)
(0.0276198 -0.129067 0)
(0.0354913 -0.128606 0)
(-0.0400449 -0.14528 0)
(-0.0311679 -0.145773 0)
(-0.0222766 -0.146149 0)
(-0.0133792 -0.146408 0)
(-0.00447255 -0.146539 0)
(0.00443497 -0.146541 0)
(0.013341 -0.146413 0)
(0.0222414 -0.146158 0)
(0.0311319 -0.145787 0)
(0.0400124 -0.145299 0)
(-0.0450418 -0.164105 0)
(-0.0350506 -0.164615 0)
(-0.0250484 -0.165009 0)
(-0.0150407 -0.165279 0)
(-0.00502732 -0.165417 0)
(0.00498614 -0.165419 0)
(0.0149985 -0.165285 0)
(0.025007 -0.165019 0)
(0.0350091 -0.16463 0)
(0.0450056 -0.164121 0)
(-0.0504911 -0.185268 0)
(-0.0392766 -0.185784 0)
(-0.0280649 -0.186181 0)
(-0.0168479 -0.186455 0)
(-0.00563144 -0.186595 0)
(0.00558529 -0.186597 0)
(0.0168027 -0.186461 0)
(0.0280194 -0.186191 0)
(0.0392342 -0.185797 0)
(0.0504514 -0.185283 0)
(-0.0563221 -0.208978 0)
(-0.0437935 -0.209481 0)
(-0.0312829 -0.209865 0)
(-0.0187776 -0.210133 0)
(-0.00627476 -0.21027 0)
(0.00622653 -0.210271 0)
(0.0187304 -0.210136 0)
(0.0312386 -0.209872 0)
(0.0437519 -0.209489 0)
(0.0562794 -0.208992 0)
(-0.0624162 -0.235409 0)
(-0.0485186 -0.235868 0)
(-0.0346455 -0.236224 0)
(-0.0207905 -0.236474 0)
(-0.00694162 -0.236602 0)
(0.00690259 -0.236604 0)
(0.02075 -0.23648 0)
(0.0346063 -0.236235 0)
(0.0484766 -0.235884 0)
(0.0623755 -0.235434 0)
(-0.0685824 -0.26465 0)
(-0.0532961 -0.265028 0)
(-0.0380493 -0.265327 0)
(-0.0228273 -0.265544 0)
(-0.00762003 -0.265655 0)
(0.00758051 -0.265659 0)
(0.0227871 -0.265552 0)
(0.0380088 -0.265343 0)
(0.0532544 -0.265046 0)
(0.068545 -0.264684 0)
(-0.0744878 -0.296699 0)
(-0.0578677 -0.296959 0)
(-0.041304 -0.29717 0)
(-0.0247773 -0.297342 0)
(-0.00826269 -0.297429 0)
(0.00824019 -0.297435 0)
(0.0247528 -0.297355 0)
(0.0412833 -0.297197 0)
(0.0578414 -0.296981 0)
(0.0744607 -0.296756 0)
(-0.0795735 -0.33136 0)
(-0.0618246 -0.331458 0)
(-0.0441247 -0.331571 0)
(-0.0264796 -0.331693 0)
(-0.00882366 -0.331753 0)
(0.00881062 -0.331764 0)
(0.0264598 -0.331714 0)
(0.0441242 -0.331615 0)
(0.0618112 -0.331488 0)
(0.0795668 -0.331439 0)
(-0.0829704 -0.367874 0)
(-0.0644942 -0.36779 0)
(-0.0460379 -0.367831 0)
(-0.0276414 -0.367905 0)
(-0.0092016 -0.367936 0)
(0.00920665 -0.367939 0)
(0.0276395 -0.367904 0)
(0.0460776 -0.367839 0)
(0.0645249 -0.367773 0)
(0.0830254 -0.367906 0)
(-0.083314 -0.405759 0)
(-0.0648224 -0.405432 0)
(-0.0462683 -0.40545 0)
(-0.0277716 -0.405469 0)
(-0.00921087 -0.405481 0)
(0.00930289 -0.405443 0)
(0.0278491 -0.405389 0)
(0.0463885 -0.405321 0)
(0.0649167 -0.405302 0)
(0.083434 -0.405625 0)
(-0.0782413 -0.443937 0)
(-0.0609197 -0.4437 0)
(-0.0435034 -0.444071 0)
(-0.0260537 -0.444129 0)
(-0.00855887 -0.44427 0)
(0.00890473 -0.44431 0)
(0.0263322 -0.444298 0)
(0.0437267 -0.444233 0)
(0.0610655 -0.444093 0)
(0.0782945 -0.444054 0)
(-0.0667911 -0.456291 0)
(-0.0518448 -0.457062 0)
(-0.0370706 -0.457476 0)
(-0.0221429 -0.45772 0)
(-0.00754005 -0.457792 0)
(0.00724757 -0.45776 0)
(0.0219948 -0.457654 0)
(0.0368333 -0.457414 0)
(0.0517925 -0.456913 0)
(0.0667716 -0.456232 0)
(-0.0533123 -0.508095 0)
(-0.041325 -0.507434 0)
(-0.0293872 -0.506918 0)
(-0.0175667 -0.506586 0)
(-0.00582977 -0.506431 0)
(0.00587018 -0.506437 0)
(0.0175911 -0.506579 0)
(0.0293999 -0.506906 0)
(0.041315 -0.507401 0)
(0.0532902 -0.508062 0)
(-0.0525156 -0.533711 0)
(-0.040785 -0.533148 0)
(-0.0290892 -0.532785 0)
(-0.0174276 -0.532539 0)
(-0.00579687 -0.532413 0)
(0.00581433 -0.532411 0)
(0.0174404 -0.532534 0)
(0.0290987 -0.532777 0)
(0.0407918 -0.533141 0)
(0.0525234 -0.533703 0)
(-0.0518476 -0.548552 0)
(-0.0404241 -0.548083 0)
(-0.0289243 -0.547728 0)
(-0.0173713 -0.547478 0)
(-0.00578771 -0.547351 0)
(0.00580295 -0.54735 0)
(0.0173862 -0.547477 0)
(0.0289425 -0.547724 0)
(0.040444 -0.548084 0)
(0.0518716 -0.548549 0)
(-0.0510325 -0.56922 0)
(-0.0398056 -0.568937 0)
(-0.028495 -0.568696 0)
(-0.0171143 -0.568523 0)
(-0.00570161 -0.568432 0)
(0.00572805 -0.568432 0)
(0.0171441 -0.568523 0)
(0.0285225 -0.568697 0)
(0.0398383 -0.568942 0)
(0.051067 -0.569225 0)
(-0.0504241 -0.592381 0)
(-0.0393375 -0.592307 0)
(-0.0281568 -0.592212 0)
(-0.0169128 -0.592143 0)
(-0.00562961 -0.592104 0)
(0.00566636 -0.592104 0)
(0.0169492 -0.592142 0)
(0.028194 -0.592214 0)
(0.0393754 -0.592306 0)
(0.0504631 -0.592386 0)
(-0.0496694 -0.614396 0)
(-0.0387552 -0.614534 0)
(-0.0277428 -0.614605 0)
(-0.0166637 -0.614644 0)
(-0.0055426 -0.61466 0)
(0.00559176 -0.614661 0)
(0.0167128 -0.614645 0)
(0.0277931 -0.614607 0)
(0.0388057 -0.614537 0)
(0.0497204 -0.614402 0)
(-0.0486863 -0.635841 0)
(-0.0380005 -0.636208 0)
(-0.0272096 -0.636452 0)
(-0.0163444 -0.636605 0)
(-0.00543459 -0.636679 0)
(0.0054902 -0.63668 0)
(0.0164 -0.636607 0)
(0.0272653 -0.636457 0)
(0.0380568 -0.636216 0)
(0.0487427 -0.635851 0)
(-0.0473635 -0.656801 0)
(-0.0369941 -0.657426 0)
(-0.0265019 -0.657861 0)
(-0.0159231 -0.65814 0)
(-0.00529305 -0.658277 0)
(0.00535439 -0.658278 0)
(0.0159845 -0.658143 0)
(0.0265629 -0.657865 0)
(0.0370552 -0.657433 0)
(0.0474242 -0.656809 0)
(-0.0457029 -0.67699 0)
(-0.0357359 -0.677928 0)
(-0.0256202 -0.678594 0)
(-0.0154003 -0.679025 0)
(-0.00511832 -0.679237 0)
(0.00518424 -0.679238 0)
(0.0154662 -0.679027 0)
(0.025686 -0.678598 0)
(0.0358018 -0.677934 0)
(0.0457682 -0.676997 0)
(-0.0438774 -0.696267 0)
(-0.0343483 -0.697584 0)
(-0.0246459 -0.698529 0)
(-0.0148221 -0.699144 0)
(-0.00492568 -0.699447 0)
(0.00499482 -0.699447 0)
(0.0148911 -0.699145 0)
(0.0247149 -0.698532 0)
(0.0344173 -0.697589 0)
(0.0439461 -0.696273 0)
(-0.0421821 -0.714647 0)
(-0.033045 -0.716387 0)
(-0.0237239 -0.717646 0)
(-0.0142724 -0.718467 0)
(-0.0047426 -0.718874 0)
(0.00481356 -0.718874 0)
(0.0143435 -0.718469 0)
(0.0237949 -0.717648 0)
(0.033116 -0.71639 0)
(0.042253 -0.714652 0)
(-0.0409492 -0.732339 0)
(-0.0320736 -0.734498 0)
(-0.023025 -0.736074 0)
(-0.0138513 -0.737108 0)
(-0.00460182 -0.73762 0)
(0.00467334 -0.737621 0)
(0.013923 -0.737109 0)
(0.0230964 -0.736076 0)
(0.0321448 -0.734501 0)
(0.0410199 -0.732343 0)
(-0.0404467 -0.749708 0)
(-0.0316443 -0.752231 0)
(-0.0226992 -0.754089 0)
(-0.013649 -0.755315 0)
(-0.00453349 -0.755925 0)
(0.00460378 -0.755925 0)
(0.0137191 -0.755316 0)
(0.0227691 -0.754091 0)
(0.0317136 -0.752234 0)
(0.0405153 -0.749712 0)
(-0.040818 -0.767203 0)
(-0.0318798 -0.76999 0)
(-0.0228386 -0.772064 0)
(-0.0137219 -0.773442 0)
(-0.00455723 -0.774129 0)
(0.00462367 -0.774129 0)
(0.0137882 -0.773443 0)
(0.0229046 -0.772066 0)
(0.031945 -0.769993 0)
(0.0408824 -0.767206 0)
(-0.0420394 -0.785248 0)
(-0.0327795 -0.78819 0)
(-0.0234519 -0.790401 0)
(-0.0140787 -0.791878 0)
(-0.00467596 -0.792618 0)
(0.00473672 -0.792618 0)
(0.0141393 -0.791879 0)
(0.0235123 -0.790402 0)
(0.032839 -0.788191 0)
(0.0420982 -0.785248 0)
(-0.0439833 -0.80419 0)
(-0.0342536 -0.807192 0)
(-0.0244825 -0.809466 0)
(-0.014688 -0.810995 0)
(-0.00487947 -0.811763 0)
(0.00493347 -0.811762 0)
(0.0147416 -0.810994 0)
(0.024536 -0.809465 0)
(0.0343063 -0.80719 0)
(0.0440351 -0.804188 0)
(-0.046408 -0.824224 0)
(-0.0361227 -0.827236 0)
(-0.0258108 -0.829531 0)
(-0.0154812 -0.831079 0)
(-0.00514527 -0.831858 0)
(0.00519202 -0.831858 0)
(0.0155276 -0.831078 0)
(0.0258568 -0.829528 0)
(0.036168 -0.827233 0)
(0.0464524 -0.824219 0)
(-0.049131 -0.845454 0)
(-0.0382337 -0.848464 0)
(-0.0273241 -0.850764 0)
(-0.0163909 -0.852321 0)
(-0.00545083 -0.853105 0)
(0.00548962 -0.853105 0)
(0.0164291 -0.852319 0)
(0.0273619 -0.850761 0)
(0.0382708 -0.84846 0)
(0.0491672 -0.845448 0)
(-0.0519633 -0.867907 0)
(-0.0404223 -0.870949 0)
(-0.0288993 -0.873262 0)
(-0.0173423 -0.874827 0)
(-0.00577147 -0.875616 0)
(0.00580156 -0.875615 0)
(0.0173722 -0.874825 0)
(0.0289289 -0.873258 0)
(0.0404513 -0.870944 0)
(0.051992 -0.8679 0)
(-0.05464 -0.891493 0)
(-0.0424798 -0.894614 0)
(-0.0303892 -0.896976 0)
(-0.0182503 -0.898572 0)
(-0.00607866 -0.899376 0)
(0.00610058 -0.899376 0)
(0.0182721 -0.89857 0)
(0.0304109 -0.896972 0)
(0.0425012 -0.894608 0)
(0.0546611 -0.891485 0)
(-0.0572382 -0.916137 0)
(-0.044439 -0.91938 0)
(-0.0317957 -0.921832 0)
(-0.0191057 -0.923485 0)
(-0.0063681 -0.924318 0)
(0.00638209 -0.924317 0)
(0.0191196 -0.923483 0)
(0.0318096 -0.921828 0)
(0.0444531 -0.919375 0)
(0.0572522 -0.916129 0)
(-0.0595656 -0.941689 0)
(-0.0461637 -0.945177 0)
(-0.033011 -0.947759 0)
(-0.0198408 -0.949484 0)
(-0.00661716 -0.950351 0)
(0.0066242 -0.95035 0)
(0.0198481 -0.949482 0)
(0.0330183 -0.947756 0)
(0.0461714 -0.945172 0)
(0.0595744 -0.941681 0)
(-0.061412 -0.968051 0)
(-0.0474459 -0.971796 0)
(-0.0338831 -0.97452 0)
(-0.0203676 -0.976328 0)
(-0.00679678 -0.977235 0)
(0.00679899 -0.977234 0)
(0.0203698 -0.976327 0)
(0.0338858 -0.974517 0)
(0.0474492 -0.971791 0)
(0.0614165 -0.968045 0)
(-0.062815 -0.995194 0)
(-0.0484114 -0.999023 0)
(-0.0345076 -1.00186 0)
(-0.0207397 -1.00376 0)
(-0.00692379 -1.00471 0)
(0.00692294 -1.00471 0)
(0.020739 -1.00375 0)
(0.0345075 -1.00186 0)
(0.0484118 -0.99902 0)
(0.0628172 -0.995189 0)
(-0.0636848 -1.02268 0)
(-0.0490977 -1.02665 0)
(-0.0349367 -1.02963 0)
(-0.0209834 -1.03162 0)
(-0.00700511 -1.03262 0)
(0.00700321 -1.03262 0)
(0.0209816 -1.03162 0)
(0.0349356 -1.02963 0)
(0.0490972 -1.02665 0)
(0.0636854 -1.02268 0)
(-0.0637575 -1.04998 0)
(-0.049265 -1.05439 0)
(-0.0349615 -1.0576 0)
(-0.0209679 -1.0597 0)
(-0.00699711 -1.06074 0)
(0.00699544 -1.06074 0)
(0.0209664 -1.0597 0)
(0.0349606 -1.0576 0)
(0.049265 -1.05439 0)
(0.0637581 -1.04998 0)
(-0.0626597 -1.07752 0)
(-0.048751 -1.0821 0)
(-0.0344464 -1.0854 0)
(-0.0206078 -1.08755 0)
(-0.00687223 -1.08862 0)
(0.00687159 -1.08862 0)
(0.0206074 -1.08756 0)
(0.0344464 -1.0854 0)
(0.0487519 -1.0821 0)
(0.062661 -1.07753 0)
(-0.0606609 -1.10507 0)
(-0.0475924 -1.10941 0)
(-0.0335101 -1.11264 0)
(-0.0199967 -1.11477 0)
(-0.00666298 -1.11584 0)
(0.00666324 -1.11584 0)
(0.019997 -1.11477 0)
(0.0335108 -1.11264 0)
(0.0475937 -1.10942 0)
(0.0606622 -1.10508 0)
(-0.0577368 -1.13178 0)
(-0.0457885 -1.13585 0)
(-0.0321862 -1.13896 0)
(-0.0191681 -1.14105 0)
(-0.00638207 -1.1421 0)
(0.00638293 -1.1421 0)
(0.019169 -1.14105 0)
(0.0321873 -1.13896 0)
(0.0457899 -1.13585 0)
(0.0577384 -1.13178 0)
(-0.0539304 -1.15712 0)
(-0.0433009 -1.16099 0)
(-0.030431 -1.16401 0)
(-0.0180949 -1.16606 0)
(-0.0060206 -1.1671 0)
(0.00602164 -1.1671 0)
(0.018096 -1.16607 0)
(0.0304321 -1.16402 0)
(0.0433023 -1.16099 0)
(0.0539319 -1.15712 0)
(-0.0493027 -1.18054 0)
(-0.0400622 -1.18438 0)
(-0.0281718 -1.1874 0)
(-0.0167276 -1.18945 0)
(-0.0055614 -1.19048 0)
(0.00556231 -1.19048 0)
(0.0167285 -1.18945 0)
(0.0281726 -1.1874 0)
(0.0400632 -1.18438 0)
(0.0493039 -1.18054 0)
(-0.0440416 -1.2018 0)
(-0.0360772 -1.2057 0)
(-0.0254226 -1.20874 0)
(-0.0150615 -1.21078 0)
(-0.00500182 -1.2118 0)
(0.00500235 -1.2118 0)
(0.0150621 -1.21078 0)
(0.025423 -1.20874 0)
(0.0360776 -1.20571 0)
(0.0440422 -1.20181 0)
(-0.0382577 -1.221 0)
(-0.0315017 -1.2248 0)
(-0.0222724 -1.22772 0)
(-0.013159 -1.22971 0)
(-0.0043628 -1.2307 0)
(0.00436303 -1.23071 0)
(0.0131591 -1.22971 0)
(0.0222725 -1.22773 0)
(0.0315018 -1.2248 0)
(0.0382577 -1.22101 0)
(-0.0319619 -1.2377 0)
(-0.0264859 -1.24129 0)
(-0.0187847 -1.24406 0)
(-0.0110751 -1.24595 0)
(-0.00366685 -1.24691 0)
(0.00366696 -1.24691 0)
(0.0110751 -1.24595 0)
(0.0187846 -1.24406 0)
(0.0264857 -1.2413 0)
(0.0319617 -1.23771 0)
(-0.025337 -1.25146 0)
(-0.0211301 -1.25487 0)
(-0.0150448 -1.25748 0)
(-0.00885865 -1.2593 0)
(-0.00293016 -1.26022 0)
(0.00293024 -1.26023 0)
(0.00885869 -1.2593 0)
(0.0150447 -1.25748 0)
(0.0211299 -1.25487 0)
(0.0253367 -1.25147 0)
(-0.018571 -1.26215 0)
(-0.0155922 -1.26535 0)
(-0.0111587 -1.26784 0)
(-0.00657168 -1.2696 0)
(-0.00217326 -1.27051 0)
(0.0021734 -1.27051 0)
(0.00657177 -1.2696 0)
(0.0111587 -1.26784 0)
(0.015592 -1.26535 0)
(0.0185706 -1.26215 0)
(-0.0117843 -1.26959 0)
(-0.00999617 -1.27261 0)
(-0.00722467 -1.27503 0)
(-0.00427564 -1.27679 0)
(-0.00141717 -1.27771 0)
(0.00141734 -1.27771 0)
(0.00427575 -1.27679 0)
(0.00722464 -1.27503 0)
(0.00999584 -1.27262 0)
(0.0117837 -1.26959 0)
(-0.00509535 -1.27364 0)
(-0.00446145 -1.27657 0)
(-0.00334215 -1.27903 0)
(-0.00203213 -1.28088 0)
(-0.000683013 -1.28188 0)
(0.000683157 -1.28188 0)
(0.00203221 -1.28089 0)
(0.00334207 -1.27903 0)
(0.00446101 -1.27657 0)
(0.00509468 -1.27364 0)
(0.00140859 -1.27425 0)
(0.000917373 -1.27721 0)
(0.000404021 -1.27986 0)
(0.000102976 -1.28196 0)
(9.21583e-06 -1.28314 0)
(-9.12165e-06 -1.28314 0)
(-0.000102975 -1.28197 0)
(-0.000404214 -1.27986 0)
(-0.000917964 -1.27721 0)
(-0.00140945 -1.27425 0)
(0.00767612 -1.27143 0)
(0.00607335 -1.27455 0)
(0.00393919 -1.27757 0)
(0.00206849 -1.28015 0)
(0.000634689 -1.28166 0)
(-0.000634649 -1.28166 0)
(-0.00206857 -1.28015 0)
(-0.00393953 -1.27757 0)
(-0.00607412 -1.27455 0)
(-0.00767723 -1.27143 0)
(0.0135186 -1.26526 0)
(0.0108242 -1.26857 0)
(0.00708695 -1.2722 0)
(0.00375546 -1.2756 0)
(0.00115808 -1.27772 0)
(-0.00115812 -1.27772 0)
(-0.00375563 -1.2756 0)
(-0.00708743 -1.2722 0)
(-0.0108251 -1.26857 0)
(-0.0135199 -1.26526 0)
(0.0184504 -1.25573 0)
(0.0146948 -1.25929 0)
(0.00948402 -1.26397 0)
(0.00507008 -1.26871 0)
(0.00159967 -1.27181 0)
(-0.00159989 -1.27181 0)
(-0.00507041 -1.26871 0)
(-0.00948457 -1.26397 0)
(-0.0146957 -1.25929 0)
(-0.0184517 -1.25573 0)
(0.0213305 -1.24249 0)
(0.0166766 -1.24705 0)
(0.0105018 -1.25405 0)
(0.00614551 -1.2608 0)
(0.00225924 -1.26464 0)
(-0.00225969 -1.26464 0)
(-0.00614601 -1.2608 0)
(-0.0105023 -1.25405 0)
(-0.0166773 -1.24705 0)
(-0.0213314 -1.24249 0)
(0.0196371 -1.2234 0)
(0.0148698 -1.2325 0)
(0.00986076 -1.24545 0)
(0.00746735 -1.25398 0)
(0.00405086 -1.25492 0)
(-0.00405157 -1.25492 0)
(-0.00746805 -1.25398 0)
(-0.00986125 -1.24545 0)
(-0.0148702 -1.2325 0)
(-0.0196375 -1.2234 0)
(0.0119408 -1.18792 0)
(0.00725504 -1.21841 0)
(0.0106631 -1.24406 0)
(0.00809662 -1.24764 0)
(0.00724049 -1.23995 0)
(-0.0072414 -1.23995 0)
(-0.00809754 -1.24764 0)
(-0.0106638 -1.24406 0)
(-0.00725531 -1.21841 0)
(-0.0119409 -1.18792 0)
(0.00544321 -1.1004 0)
(-0.011479 -1.23427 0)
(0.0171268 -1.25745 0)
(0.00114466 -1.23556 0)
(0.00753795 -1.22722 0)
(-0.00753904 -1.22722 0)
(-0.00114574 -1.23556 0)
(-0.0171279 -1.25745 0)
(0.0114783 -1.23427 0)
(-0.00544372 -1.1004 0)
(0.00097077 -0.000192904 0)
(0.00114991 -0.000189823 0)
(0.00132473 -0.000185346 0)
(0.00149436 -0.000179573 0)
(0.00165778 -0.000172538 0)