/*--------------------------------*- C++ -*----------------------------------*\
  =========                 |
  \\      /  F ield         | OpenFOAM: The Open Source CFD Toolbox
   \\    /   O peration     | Website:  https://openfoam.org
    \\  /    A nd           | Version:  8
     \\/     M anipulation  |
\*---------------------------------------------------------------------------*/
FoamFile
{
    version     2.0;
    format      ascii;
    class       surfaceScalarField;
    location    "2.35";
    object      phi;
}
// * * * * * * * * * * * * * * * * * * * * * * * * * * * * * * * * * * * * * //

dimensions      [0 3 -1 0 0 0 0];

internalField   nonuniform List<scalar> 
18095
(
1.9504e-08
-1.7199e-07
1.52486e-07
2.31174e-08
-1.98225e-07
1.94612e-07
1.98591e-08
-2.05909e-07
2.09167e-07
1.13543e-08
-2.10833e-07
2.19338e-07
1.0941e-09
-2.13354e-07
2.23614e-07
-9.77792e-09
-2.13548e-07
2.2442e-07
-1.94464e-08
-2.10321e-07
2.1999e-07
-2.30005e-08
-2.056e-07
2.09154e-07
-1.94711e-08
-1.98214e-07
1.94685e-07
-1.72006e-07
1.52535e-07
1.55188e-08
-1.87509e-07
1.57182e-08
-1.98425e-07
1.19133e-08
-2.02104e-07
6.21925e-09
-2.05139e-07
-8.94055e-11
-2.07045e-07
-6.86389e-09
-2.06773e-07
-1.22297e-08
-2.04955e-07
-1.56867e-08
-2.02143e-07
-1.54873e-08
-1.98413e-07
-1.87493e-07
6.85007e-09
-1.94359e-07
8.28571e-09
-1.9986e-07
7.21069e-09
-2.01029e-07
3.81891e-09
-2.01747e-07
-4.39307e-10
-2.02787e-07
-4.3972e-09
-2.02816e-07
-7.08734e-09
-2.02265e-07
-8.22788e-09
-2.01003e-07
-6.84506e-09
-1.99796e-07
-1.94338e-07
4.55029e-09
-1.98909e-07
4.65009e-09
-1.9996e-07
3.73818e-09
-2.00117e-07
2.36206e-09
-2.00371e-07
4.0974e-10
-2.00834e-07
-1.65518e-09
-2.00751e-07
-3.58708e-09
-2.00333e-07
-4.68276e-09
-1.99907e-07
-4.56506e-09
-1.99914e-07
-1.98904e-07
1.09113e-09
1.13089e-09
1.01403e-09
6.42747e-10
-1.91722e-10
-9.42381e-10
-1.27561e-09
-1.18245e-09
-1.09646e-09
-2.56771e-08
-1.97059e-07
2.22736e-07
-2.83532e-08
-1.98394e-07
2.0107e-07
-2.42426e-08
-2.01061e-07
1.96951e-07
-1.40271e-08
-2.00754e-07
1.90539e-07
-8.50567e-10
-2.01813e-07
1.88637e-07
1.24779e-08
-2.01981e-07
1.88653e-07
2.36622e-08
-2.01409e-07
1.90225e-07
2.84932e-08
-2.01846e-07
1.97015e-07
2.58581e-08
-1.98595e-07
2.0123e-07
-1.97087e-07
2.22945e-07
-9.90509e-09
-1.87154e-07
-1.48939e-08
-1.93406e-07
-1.35338e-08
-2.02421e-07
-6.69967e-09
-2.07588e-07
-1.80231e-10
-2.08333e-07
6.55923e-09
-2.08721e-07
1.42788e-08
-2.09128e-07
1.53748e-08
-2.02942e-07
1.00496e-08
-1.9327e-07
-1.87037e-07
-1.06726e-08
-1.76481e-07
-8.27505e-09
-1.95803e-07
-5.27775e-09
-2.05419e-07
-2.09274e-09
-2.10773e-07
2.46695e-09
-2.12893e-07
6.23734e-09
-2.12491e-07
6.92845e-09
-2.0982e-07
8.83555e-09
-2.04849e-07
1.08627e-08
-1.95297e-07
-1.76175e-07
-7.20534e-09
-1.69276e-07
-9.89531e-09
-1.93113e-07
-9.90169e-09
-2.05412e-07
-5.23936e-09
-2.15436e-07
-1.02832e-09
-2.17104e-07
3.12359e-09
-2.16643e-07
8.16996e-09
-2.14866e-07
8.74279e-09
-2.05422e-07
6.76247e-09
-1.93317e-07
-1.69412e-07
-1.679e-08
-1.52911e-08
-1.15363e-08
-7.63386e-09
-1.12359e-09
6.65342e-09
1.17771e-08
1.55094e-08
1.68773e-08
3.40086e-08
-1.55793e-07
1.21785e-07
3.74524e-08
-1.97617e-07
1.94173e-07
2.70948e-08
-2.09566e-07
2.19924e-07
1.15909e-08
-2.15687e-07
2.31191e-07
-6.00128e-09
-2.17467e-07
2.35059e-07
-2.22594e-08
-2.17775e-07
2.34033e-07
-3.36695e-08
-2.16732e-07
2.28142e-07
-3.82419e-08
-2.11343e-07
2.15915e-07
-3.11289e-08
-1.99911e-07
1.92798e-07
-1.58109e-07
1.2698e-07
1.7795e-08
-1.73588e-07
2.14843e-08
-2.01306e-07
1.91014e-08
-2.07183e-07
1.27907e-08
-2.09376e-07
3.83501e-09
-2.08512e-07
-5.39156e-09
-2.08548e-07
-1.33991e-08
-2.08725e-07
-1.75655e-08
-2.07177e-07
-1.59014e-08
-2.01575e-07
-1.7401e-07
1.05928e-08
-1.84181e-07
1.00872e-08
-2.008e-07
8.18097e-09
-2.05277e-07
3.74539e-09
-2.04941e-07
-2.66376e-10
-2.045e-07
-4.17413e-09
-2.04641e-07
-8.5841e-09
-2.04315e-07
-1.02454e-08
-2.05515e-07
-1.05246e-08
-2.01296e-07
-1.84535e-07
8.01301e-09
-1.92194e-07
6.64664e-09
-1.99434e-07
6.64926e-09
-2.0528e-07
1.08594e-09
-1.99377e-07
-7.26249e-10
-2.02688e-07
-2.43247e-09
-2.02934e-07
-6.621e-09
-2.00126e-07
-6.41074e-09
-2.05725e-07
-7.96355e-09
-1.99743e-07
-1.92498e-07
3.05416e-08
3.21778e-08
2.38488e-08
1.50102e-08
9.59416e-10
-1.33222e-08
-2.32238e-08
-3.19342e-08
-3.04467e-08
-1.45369e-06
4.66285e-09
1.44902e-06
-1.42887e-06
-2.48196e-08
-1.40728e-06
-2.15853e-08
-1.4516e-06
4.43187e-08
-1.57337e-06
1.21767e-07
-1.69405e-06
1.20685e-07
-1.73227e-06
3.8217e-08
-1.68926e-06
-4.30035e-08
-1.60071e-06
-8.85516e-08
-1.18471e-07
-1.48224e-06
-1.44598e-06
2.02378e-07
1.24827e-06
-1.42895e-06
-4.18586e-08
-1.30982e-06
-1.40707e-07
-1.26517e-06
-3.31833e-10
-1.3984e-06
2.54994e-07
-1.55177e-06
2.74049e-07
-1.56703e-06
5.34791e-08
-1.44328e-06
-1.66753e-07
-1.31293e-06
-2.18901e-07
-1.61435e-07
-1.26997e-06
-6.50243e-07
2.78472e-07
5.7415e-07
-7.60403e-07
6.83042e-08
-8.74905e-07
-2.62039e-08
-8.86969e-07
1.17334e-08
-7.85582e-07
1.53608e-07
-6.79454e-07
1.67921e-07
-6.47062e-07
2.10869e-08
-6.4475e-07
-1.69065e-07
-6.29469e-07
-2.34182e-07
-3.21585e-07
-4.69316e-07
-1.62846e-07
1.37574e-07
3.03744e-07
-1.58919e-07
6.43778e-08
-2.2733e-07
4.22061e-08
-2.22061e-07
6.46431e-09
-5.62345e-08
-1.22178e-08
1.07578e-07
4.10723e-09
2.23988e-07
-9.53257e-08
2.23852e-07
-1.68929e-07
1.83646e-07
-1.93976e-07
-2.79344e-07
1.41404e-07
-3.94973e-07
-5.80921e-08
5.90639e-07
-2.21656e-07
-1.0894e-07
9.63499e-09
-1.89083e-07
1.55931e-07
-1.39831e-07
3.12834e-07
-1.69121e-07
4.57288e-07
-1.40347e-07
5.56121e-07
-1.94157e-07
5.49144e-07
-1.61951e-07
5.07499e-07
-1.52329e-07
-2.60745e-07
4.88898e-07
-2.76808e-08
-2.00707e-07
1.70297e-07
1.04028e-07
-2.40649e-07
2.35126e-07
-3.20182e-07
3.95411e-07
-3.00115e-07
4.56134e-07
-2.29844e-07
5.42418e-07
-2.2663e-07
5.45946e-07
-1.97686e-07
5.67591e-07
-1.83597e-07
6.3155e-07
-2.16288e-07
-2.26367e-07
5.97171e-07
2.17716e-07
-2.60254e-07
-1.58169e-07
3.00132e-07
-3.23066e-07
3.97436e-07
-4.17486e-07
4.44854e-07
-3.47533e-07
4.69154e-07
-2.54143e-07
4.74775e-07
-2.32252e-07
5.11843e-07
-2.34753e-07
5.82378e-07
-2.54131e-07
6.19031e-07
-2.52941e-07
-2.47623e-07
6.40287e-07
3.2384e-07
-3.49135e-07
-2.34959e-07
4.06301e-07
-4.05526e-07
4.08086e-07
-4.19271e-07
4.30109e-07
-3.69556e-07
4.78446e-07
-3.02481e-07
5.47465e-07
-3.01271e-07
6.17037e-07
-3.04325e-07
6.73595e-07
-3.10689e-07
7.16849e-07
-2.96195e-07
-2.55294e-07
7.2452e-07
3.27742e-07
-4.21888e-07
-2.54989e-07
3.75503e-07
-4.53287e-07
4.49433e-07
-4.932e-07
5.40418e-07
-4.60541e-07
6.71195e-07
-4.33258e-07
7.69643e-07
-3.99719e-07
8.36068e-07
-3.7075e-07
8.79466e-07
-3.54086e-07
9.06412e-07
-3.23142e-07
-2.42427e-07
8.93544e-07
3.82171e-07
-5.66623e-07
-2.37435e-07
5.62069e-07
-6.33186e-07
7.19378e-07
-6.50509e-07
8.70313e-07
-6.11476e-07
1.00163e-06
-5.64576e-07
1.11495e-06
-5.13036e-07
1.20206e-06
-4.57865e-07
1.2544e-06
-4.06424e-07
1.28002e-06
-3.48758e-07
-2.5823e-07
1.29582e-06
7.90642e-07
-6.75344e-07
-6.81921e-07
8.47844e-07
-6.90389e-07
8.98529e-07
-7.01194e-07
9.69246e-07
-6.82192e-07
1.04613e-06
-6.41462e-07
1.14562e-06
-6.12523e-07
1.25313e-06
-5.65373e-07
1.33768e-06
-4.90982e-07
1.39339e-06
-4.04468e-07
-3.08312e-07
1.44348e-06
9.5869e-07
-6.78349e-07
-9.55685e-07
9.63552e-07
-6.9525e-07
9.56431e-07
-6.94074e-07
9.54661e-07
-6.80421e-07
9.66676e-07
-6.53477e-07
9.84707e-07
-6.30554e-07
1.01651e-06
-5.97175e-07
1.03382e-06
-5.08296e-07
1.07337e-06
-4.44018e-07
-3.3907e-07
1.10413e-06
9.93924e-07
-6.73966e-07
-9.98307e-07
9.79008e-07
-6.80334e-07
9.54937e-07
-6.70002e-07
9.34066e-07
-6.59551e-07
8.98999e-07
-6.18411e-07
8.09388e-07
-5.40942e-07
6.95939e-07
-4.83726e-07
6.38998e-07
-4.51355e-07
6.12422e-07
-4.17441e-07
-3.39681e-07
6.13032e-07
9.51182e-07
-6.72398e-07
-9.5275e-07
9.28357e-07
-6.57509e-07
8.84477e-07
-6.26123e-07
8.15783e-07
-5.90857e-07
7.0238e-07
-5.05007e-07
5.81797e-07
-4.2036e-07
5.11538e-07
-4.13467e-07
4.88771e-07
-4.28588e-07
4.89391e-07
-4.18061e-07
-3.54318e-07
5.04028e-07
7.19558e-07
-6.39562e-07
-7.52395e-07
6.59433e-07
-5.97383e-07
5.72178e-07
-5.38868e-07
5.01604e-07
-5.20283e-07
4.52508e-07
-4.5591e-07
3.94006e-07
-3.61858e-07
3.66023e-07
-3.85484e-07
3.6078e-07
-4.23345e-07
3.4438e-07
-4.0166e-07
-3.1587e-07
3.05932e-07
1.23313e-07
-5.12319e-07
-2.50555e-07
-4.22405e-08
-4.31829e-07
-1.98484e-07
-3.82625e-07
-2.73783e-07
-4.44983e-07
-2.25363e-07
-5.04331e-07
-4.35789e-08
-5.4364e-07
3.27926e-08
-4.61854e-07
-4.47038e-08
-3.45847e-07
-1.51109e-07
-2.95255e-07
-1.95581e-07
-2.71398e-07
-6.20879e-07
-3.73826e-07
4.82386e-07
-6.99945e-07
-3.52762e-07
-7.07145e-07
-3.75426e-07
-6.16758e-07
-5.35368e-07
-5.36519e-07
-5.84569e-07
-5.55622e-07
-5.24536e-07
-6.9871e-07
-3.18765e-07
-8.77968e-07
-1.66589e-07
-1.10311e-06
-7.01107e-08
7.43234e-09
-1.30613e-06
-7.22888e-07
-3.1666e-07
6.65722e-07
-7.66757e-07
-3.08893e-07
-7.87339e-07
-3.54844e-07
-7.37862e-07
-5.84844e-07
-7.17938e-07
-6.04492e-07
-7.50864e-07
-4.9161e-07
-8.39284e-07
-2.30345e-07
-8.48345e-07
-1.57528e-07
-8.44905e-07
-7.35507e-08
-2.80268e-10
-8.37192e-07
-7.53045e-07
-2.75119e-07
7.11504e-07
-7.88915e-07
-2.73024e-07
-7.18633e-07
-4.25126e-07
-6.31221e-07
-6.72256e-07
-5.42332e-07
-6.93381e-07
-4.48254e-07
-5.85687e-07
-3.46774e-07
-3.31826e-07
-4.04995e-07
-9.93066e-08
-5.02887e-07
2.43411e-08
1.6344e-08
-5.19511e-07
-7.33634e-07
-2.80898e-07
7.39414e-07
-7.12534e-07
-2.94124e-07
-6.51951e-07
-4.85709e-07
-6.04418e-07
-7.19792e-07
-5.4034e-07
-7.57458e-07
-4.31804e-07
-6.9422e-07
-3.4008e-07
-4.2355e-07
-4.193e-07
-2.00851e-08
-5.43537e-07
1.48577e-07
1.61233e-07
-6.88426e-07
-6.60287e-07
-3.0687e-07
6.8626e-07
-6.38422e-07
-3.15989e-07
-7.14964e-07
-4.09166e-07
-8.30192e-07
-6.04566e-07
-8.77373e-07
-7.10277e-07
-8.41546e-07
-7.30047e-07
-7.3821e-07
-5.26885e-07
-7.05618e-07
-5.26772e-08
-7.1071e-07
1.53667e-07
2.07024e-07
-7.56501e-07
-6.49059e-07
-3.15295e-07
6.57484e-07
-6.62932e-07
-3.02116e-07
-7.76683e-07
-2.95414e-07
-9.8268e-07
-3.98568e-07
-1.12678e-06
-5.66171e-07
-1.15517e-06
-7.01664e-07
-1.04639e-06
-6.35659e-07
-9.19686e-07
-1.79379e-07
-9.63028e-07
1.97009e-07
2.61569e-07
-1.01757e-06
-6.53329e-07
-3.30789e-07
6.68823e-07
-6.38243e-07
-3.17201e-07
-6.3616e-07
-2.97497e-07
-7.41411e-07
-2.93319e-07
-9.83466e-07
-3.24116e-07
-1.2505e-06
-4.34626e-07
-1.36702e-06
-5.19142e-07
-1.24044e-06
-3.05957e-07
-1.05392e-06
1.04826e-08
2.06782e-07
-9.9913e-07
-7.11913e-07
-3.81964e-07
7.63088e-07
-6.56875e-07
-3.72239e-07
-6.0103e-07
-3.53342e-07
-5.6364e-07
-3.30709e-07
-5.72017e-07
-3.15738e-07
-6.89953e-07
-3.1669e-07
-8.89858e-07
-3.19236e-07
-8.8033e-07
-3.15485e-07
-6.3902e-07
-2.30828e-07
-7.57865e-08
-3.56452e-07
-8.47986e-07
-4.99059e-07
9.6508e-07
-7.60372e-07
-4.59852e-07
-6.56134e-07
-4.5758e-07
-5.52481e-07
-4.34362e-07
-4.58393e-07
-4.09826e-07
-3.9207e-07
-3.83012e-07
-3.56065e-07
-3.55241e-07
-3.08473e-07
-3.63077e-07
-1.74893e-07
-3.64408e-07
-3.12009e-07
6.13295e-08
-1.06398e-06
-6.20254e-07
1.18517e-06
-9.54099e-07
-5.69731e-07
-8.53448e-07
-5.58231e-07
-7.25914e-07
-5.61897e-07
-5.2752e-07
-6.0822e-07
-3.20163e-07
-5.9037e-07
-1.79961e-07
-4.95442e-07
-1.39485e-07
-4.03553e-07
-1.30779e-07
-3.73114e-07
-2.9951e-07
-1.43278e-07
-1.16371e-06
-6.89749e-07
1.23321e-06
-1.07606e-06
-6.57383e-07
-1.00805e-06
-6.26243e-07
-9.16148e-07
-6.53799e-07
-7.33981e-07
-7.90387e-07
-4.64549e-07
-8.59801e-07
-1.64642e-07
-7.9535e-07
-3.29187e-08
-5.35277e-07
-4.28192e-08
-3.63214e-07
-2.7638e-07
-6.59494e-08
-9.58656e-07
-6.25619e-07
8.94526e-07
-9.321e-07
-6.83939e-07
-8.7602e-07
-6.82323e-07
-8.16742e-07
-7.13077e-07
-7.58407e-07
-8.48722e-07
-5.67621e-07
-1.05059e-06
-2.14723e-07
-1.14825e-06
1.293e-07
-8.79299e-07
1.63436e-07
-3.9735e-07
-2.07771e-07
9.48274e-08
-6.62985e-08
-3.42647e-07
-2.16674e-07
-1.36849e-07
-6.13387e-07
-5.43824e-08
-7.6479e-07
-7.77928e-08
-6.89666e-07
-2.19221e-07
-7.07294e-07
-3.01166e-07
-9.68642e-07
-1.41411e-07
-1.308e-06
2.11278e-07
-1.23199e-06
4.82382e-07
-6.68454e-07
-9.74208e-08
3.72032e-07
5.69241e-07
-5.96149e-08
-8.52274e-07
3.86525e-07
-4.30668e-07
3.5507e-07
-7.33334e-07
3.42925e-07
-6.77521e-07
2.32222e-07
-5.9659e-07
1.59232e-07
-8.95652e-07
2.12388e-07
-1.36116e-06
3.65462e-07
-1.38506e-06
7.30368e-07
-1.03336e-06
1.09993e-07
5.22954e-07
7.86327e-07
5.73763e-08
-9.03317e-07
6.37733e-07
-2.82074e-07
4.76117e-07
-5.71718e-07
3.27998e-07
-5.29401e-07
2.52658e-07
-5.2125e-07
3.06431e-07
-9.49426e-07
3.76603e-07
-1.43133e-06
4.47291e-07
-1.45575e-06
5.84577e-07
-1.17065e-06
1.78379e-07
5.1619e-07
7.80161e-07
1.26136e-07
-8.48921e-07
6.71812e-07
-1.73724e-07
4.5871e-07
-3.58617e-07
3.05538e-07
-3.76229e-07
2.67871e-07
-4.83583e-07
4.04472e-07
-1.08603e-06
4.44027e-07
-1.47089e-06
4.57791e-07
-1.46951e-06
4.1569e-07
-1.12855e-06
2.16487e-07
3.77582e-07
6.54099e-07
2.03674e-07
-7.31638e-07
4.85971e-07
-5.59549e-09
3.18559e-07
-1.91204e-07
2.33501e-07
-2.9117e-07
2.62894e-07
-5.12977e-07
4.10067e-07
-1.2332e-06
4.43965e-07
-1.50478e-06
4.49298e-07
-1.47485e-06
3.26941e-07
-1.00619e-06
2.18164e-07
3.25263e-07
5.13272e-07
2.44861e-07
-5.54459e-07
3.57618e-07
1.50058e-07
2.63711e-07
-9.72973e-08
1.9232e-07
-2.19779e-07
2.88384e-07
-6.0904e-07
3.93742e-07
-1.33856e-06
4.15634e-07
-1.52667e-06
3.69854e-07
-1.42907e-06
8.4713e-08
-7.21048e-07
2.36444e-07
6.64333e-08
5.10138e-07
2.28647e-07
-4.93923e-07
4.67621e-07
1.92574e-07
3.46522e-07
2.38015e-08
2.48707e-07
-1.21963e-07
3.27212e-07
-6.87546e-07
3.76997e-07
-1.38834e-06
3.79283e-07
-1.52896e-06
2.35232e-07
-1.28502e-06
-1.8286e-07
-3.02956e-07
1.78547e-07
-1.24964e-07
4.4396e-07
2.27685e-07
-4.42998e-07
3.99705e-07
2.36829e-07
3.09329e-07
1.14177e-07
2.34792e-07
-4.74256e-08
3.12437e-07
-7.65191e-07
3.46273e-07
-1.42218e-06
3.3428e-07
-1.51697e-06
1.30726e-07
-1.08146e-06
-1.31223e-07
-4.10073e-08
1.34202e-07
-8.68796e-08
3.59476e-07
2.23478e-07
-3.55269e-07
3.37101e-07
2.59204e-07
2.79484e-07
1.71795e-07
2.13807e-07
1.82513e-08
3.22175e-07
-8.7356e-07
3.52447e-07
-1.45245e-06
3.46422e-07
-1.51094e-06
2.224e-07
-9.57441e-07
2.1342e-07
-3.20269e-08
3.96591e-08
3.07963e-07
3.61431e-07
1.3767e-07
-2.75622e-07
3.97308e-07
2.23327e-07
3.40673e-07
2.2843e-07
2.13104e-07
1.45821e-07
3.65041e-07
-1.0255e-06
3.85055e-07
-1.47247e-06
3.89579e-07
-1.51547e-06
2.63341e-07
-8.31204e-07
3.37686e-07
-1.06373e-07
-1.84325e-08
3.95777e-07
3.86461e-07
8.80473e-08
-3.36838e-07
4.04235e-07
2.05553e-07
2.8418e-07
3.48485e-07
1.64756e-07
2.65245e-07
3.48305e-07
-1.20905e-06
3.75112e-07
-1.49927e-06
3.73056e-07
-1.51341e-06
2.64691e-07
-7.22838e-07
2.78462e-07
-1.20142e-07
1.6773e-08
2.43257e-07
3.84799e-08
1.19689e-07
-7.01214e-08
2.47089e-08
2.19324e-07
8.35822e-08
2.89611e-07
1.53227e-07
1.95601e-07
2.80263e-07
-1.33608e-06
2.89017e-07
-1.50803e-06
2.86395e-07
-1.51079e-06
1.04018e-07
-5.40461e-07
1.45944e-07
-1.62067e-07
-6.04549e-08
2.23173e-07
1.20144e-07
1.37634e-07
-1.38089e-07
6.00366e-08
2.79432e-07
1.12271e-07
2.37378e-07
1.51537e-07
1.56335e-07
2.24795e-07
-1.40934e-06
2.16038e-07
-1.49927e-06
2.10289e-07
-1.50504e-06
2.6803e-08
-3.56975e-07
1.30224e-07
-2.65488e-07
-8.78047e-08
1.57573e-07
8.73772e-08
3.61748e-07
-3.11492e-07
5.14471e-09
3.61664e-07
-4.49032e-08
2.87426e-07
1.02939e-07
8.4925e-09
1.4041e-07
-1.44681e-06
1.56562e-07
-1.51542e-06
7.33829e-08
-1.42186e-06
-3.90939e-08
-2.44497e-07
-5.54474e-08
-2.49133e-07
-1.08644e-07
-3.46075e-08
-8.23857e-07
2.54367e-07
9.31239e-07
-6.56313e-07
1.94118e-07
-6.2245e-07
2.53564e-07
1.9952e-08
-6.33905e-07
3.75916e-08
-1.46445e-06
1.32526e-09
-1.47916e-06
-2.26527e-08
-1.39788e-06
-1.01112e-07
-1.66038e-07
-1.33817e-07
-2.16429e-07
-1.76902e-07
-6.55579e-08
-1.28071e-06
1.82182e-07
1.35289e-06
-1.16648e-06
7.98732e-08
-7.52419e-07
-1.60507e-07
-2.05615e-08
-1.36577e-06
-1.8481e-08
-1.46653e-06
-4.69973e-08
-1.45064e-06
-2.01997e-08
-1.42468e-06
-7.94972e-08
-1.0674e-07
-9.28365e-08
-2.03088e-07
-3.25941e-07
5.6203e-08
-3.9832e-07
4.98549e-08
5.30648e-07
-2.31679e-07
-8.67505e-08
-5.04748e-08
-3.41706e-07
4.78948e-08
-1.46414e-06
3.10948e-08
-1.44973e-06
3.01507e-08
-1.4497e-06
-1.20172e-08
-1.38251e-06
1.15671e-07
-2.3443e-07
2.83269e-07
-3.70685e-07
-4.02041e-07
3.59367e-07
3.81502e-08
2.47608e-08
-1.30543e-08
6.13397e-08
-1.09942e-07
9.02069e-08
-3.70578e-07
4.70382e-08
-1.42097e-06
3.48122e-08
-1.4375e-06
2.0637e-08
-1.43552e-06
4.56565e-08
-1.40753e-06
3.9613e-07
-5.84905e-07
4.63296e-07
-4.37852e-07
-3.57857e-07
4.19112e-07
-1.92184e-07
2.44492e-08
1.92496e-07
-8.88561e-08
-2.1327e-07
6.26085e-08
-5.22044e-07
5.64533e-08
-1.41481e-06
3.47689e-08
-1.41582e-06
3.01322e-08
-1.43089e-06
-4.36992e-09
-1.37302e-06
5.44114e-08
-6.4369e-07
9.56774e-08
-4.79118e-07
-3.56261e-07
9.40834e-08
-1.1686e-07
-1.66861e-07
3.08172e-07
1.42417e-08
-3.44374e-07
5.88533e-08
-5.66657e-07
-1.07578e-08
-1.3452e-06
-1.55915e-08
-1.41098e-06
-4.50547e-08
-1.40142e-06
-7.07977e-08
-1.34728e-06
-5.44132e-08
-6.60075e-07
-5.68769e-08
-4.76655e-07
-3.93068e-07
-2.00718e-08
2.03809e-08
-2.95865e-07
1.08624e-07
3.98967e-08
-3.63893e-07
6.36599e-08
-5.9042e-07
3.05103e-08
-1.31205e-06
5.52614e-09
-1.386e-06
-5.60327e-09
-1.39029e-06
-5.30976e-08
-1.29979e-06
-6.86219e-08
-6.44547e-07
-6.09006e-08
-4.84377e-07
-4.1491e-07
-3.90591e-08
-2.00667e-09
-3.31181e-07
3.73241e-08
1.34217e-08
-3.79324e-07
2.48097e-08
-6.01813e-07
6.12049e-09
-1.29337e-06
-4.17319e-09
-1.37571e-06
-2.06349e-08
-1.37383e-06
-4.09024e-08
-1.27952e-06
-7.40836e-08
-6.11367e-07
-8.03294e-08
-4.78131e-07
-4.27348e-07
-6.78925e-08
-2.24769e-08
-3.10702e-07
1.99583e-09
-2.17806e-08
-3.80013e-07
1.37496e-08
-6.37337e-07
1.64708e-08
-1.29608e-06
7.90617e-11
-1.35931e-06
-1.24724e-08
-1.36128e-06
-2.78319e-08
-1.26416e-06
-7.52584e-08
-5.6394e-07
-8.85414e-08
-4.64848e-07
-4.49387e-07
-6.65019e-08
-1.01658e-08
-2.94478e-07
-6.05817e-09
-5.74426e-09
-3.84444e-07
1.51716e-08
-6.5826e-07
1.42522e-08
-1.29517e-06
8.14817e-10
-1.34588e-06
-1.35064e-08
-1.34696e-06
-1.89473e-08
-1.25872e-06
-3.36044e-08
-5.49281e-07
-3.25127e-08
-4.65939e-07
-4.89333e-07
7.43303e-09
-1.12324e-08
-3.07335e-07
2.40886e-08
2.6713e-09
-3.98339e-07
8.36302e-09
-6.63949e-07
1.2864e-08
-1.29967e-06
-1.41276e-09
-1.3316e-06
-1.54301e-08
-1.33295e-06
2.71538e-09
-1.27686e-06
2.89412e-08
-5.75507e-07
1.97445e-08
-4.56742e-07
-4.96309e-07
2.67217e-08
3.70135e-09
-3.22993e-07
1.19539e-08
5.50189e-09
-4.0015e-07
4.70318e-09
-6.63156e-07
1.20172e-08
-1.30699e-06
-6.15703e-10
-1.31897e-06
-1.34058e-08
-1.32016e-06
8.51775e-09
-1.29878e-06
2.90749e-08
-5.96064e-07
7.0639e-09
-4.3473e-07
-4.63205e-07
-2.60404e-08
4.4793e-08
-3.37024e-07
-3.07611e-08
2.20415e-08
-3.77394e-07
1.31522e-08
-6.54268e-07
9.03221e-09
-1.30287e-06
-6.79694e-09
-1.30314e-06
-1.9013e-08
-1.30794e-06
-2.30634e-08
-1.29473e-06
-1.08657e-08
-6.0826e-07
-2.08718e-08
-4.24724e-07
-4.29501e-07
-5.45769e-08
3.24353e-08
-3.32786e-07
-3.66726e-08
9.79266e-09
-3.54752e-07
1.22228e-09
-6.45699e-07
-1.32166e-08
-1.28843e-06
-2.47452e-08
-1.29161e-06
-4.09523e-08
-1.29173e-06
-5.06065e-08
-1.28508e-06
-6.75336e-09
-6.52113e-07
1.66893e-08
-4.48166e-07
-4.08866e-07
-3.94544e-09
9.66899e-09
-3.08079e-07
-3.43744e-08
1.22293e-09
-3.46308e-07
4.89069e-09
-6.49366e-07
-9.19365e-09
-1.27434e-06
-2.22528e-08
-1.27855e-06
-3.62552e-08
-1.27773e-06
-5.01008e-08
-1.27123e-06
-2.78327e-08
-6.74382e-07
-1.64341e-08
-4.59565e-07
-3.99133e-07
-2.61667e-08
6.30021e-08
-2.54386e-07
-1.16696e-07
2.32621e-08
-3.06569e-07
7.0527e-09
-6.33156e-07
-8.32997e-09
-1.25896e-06
-2.46743e-08
-1.26221e-06
-3.99893e-08
-1.26241e-06
-5.15691e-08
-1.25965e-06
-7.28011e-08
-6.5315e-07
-9.08561e-08
-4.41512e-07
-3.9026e-07
-9.97295e-08
8.86937e-08
-1.95859e-07
-1.47223e-07
3.53463e-08
-2.53226e-07
8.00929e-09
-6.0582e-07
-7.43775e-09
-1.24351e-06
-2.11884e-08
-1.24846e-06
-3.80896e-08
-1.24551e-06
-5.38258e-08
-1.24392e-06
-1.04072e-07
-6.02903e-07
-1.53267e-07
-3.92318e-07
-3.65477e-07
-1.7805e-07
1.16486e-07
-1.33254e-07
-1.79092e-07
4.47762e-08
-1.81513e-07
1.53535e-08
-5.76395e-07
3.94094e-09
-1.2321e-06
-1.36201e-08
-1.2309e-06
-3.15491e-08
-1.22758e-06
-4.22009e-08
-1.23327e-06
-6.01662e-08
-5.84938e-07
-1.08298e-07
-3.44183e-07
-3.06624e-07
-1.67151e-07
8.46747e-08
-6.5998e-08
-1.51932e-07
3.89268e-08
-1.35765e-07
3.24013e-08
-5.6987e-07
2.21078e-08
-1.22181e-06
3.40524e-09
-1.21219e-06
-1.14569e-08
-1.21272e-06
-2.37875e-08
-1.22094e-06
-5.52426e-08
-5.53482e-07
-1.19199e-07
-2.80225e-07
-2.41651e-07
-1.84171e-07
7.40083e-08
-1.61438e-08
-1.23863e-07
3.5482e-08
-9.72386e-08
3.32596e-08
-5.67649e-07
1.8133e-08
-1.20668e-06
-1.39972e-09
-1.19266e-06
-2.21037e-08
-1.19202e-06
-3.80175e-08
-1.20502e-06
-6.53809e-08
-5.26117e-07
-1.29337e-07
-2.16269e-07
-1.8506e-07
-1.85927e-07
7.47554e-08
2.71137e-08
-1.18014e-07
3.46766e-08
-5.71589e-08
3.37143e-08
-5.66689e-07
1.75353e-08
-1.1905e-06
7.07093e-10
-1.17583e-06
-1.63453e-08
-1.17497e-06
-3.14419e-08
-1.18992e-06
-3.72722e-08
-5.20286e-07
-1.07537e-07
-1.46003e-07
-1.15292e-07
-1.77306e-07
3.14747e-08
5.99349e-08
-6.42944e-08
9.36657e-09
-3.50466e-08
3.26141e-08
-5.89935e-07
1.97678e-08
-1.17766e-06
4.73125e-10
-1.15654e-06
-1.83425e-08
-1.15615e-06
-3.2393e-08
-1.17587e-06
-2.67446e-08
-5.25933e-07
-1.01491e-07
-7.12551e-08
-3.53081e-08
-1.81475e-07
5.12061e-08
4.96742e-08
-4.09455e-08
2.51234e-08
-8.9696e-09
3.22677e-08
-5.9708e-07
1.49684e-08
-1.16036e-06
2.15581e-10
-1.14178e-06
-1.45706e-08
-1.14136e-06
-3.21085e-08
-1.15834e-06
-1.59344e-08
-5.42109e-07
-6.28235e-08
-2.43658e-08
8.92518e-08
-1.87384e-07
-2.55545e-08
5.29894e-08
2.22379e-08
-1.9518e-08
-1.50137e-08
2.96851e-08
-6.46288e-07
1.48973e-08
-1.14557e-06
-4.61371e-10
-1.12643e-06
-1.64205e-08
-1.12541e-06
-3.0079e-08
-1.14468e-06
3.33437e-08
-6.05532e-07
1.38911e-08
-4.9152e-09
2.49259e-07
-1.46118e-07
1.9807e-08
6.34554e-08
-3.02737e-08
2.35725e-08
-1.87787e-08
3.21543e-08
-6.54871e-07
1.24771e-08
-1.1259e-06
1.41829e-09
-1.11537e-06
-1.16591e-08
-1.11233e-06
-2.89942e-08
-1.12734e-06
1.38227e-08
-6.48349e-07
4.31019e-09
4.59778e-09
3.14472e-07
-6.0904e-08
-2.16533e-08
9.61894e-08
-1.10815e-08
2.4361e-08
-6.47956e-08
4.85098e-08
-6.7902e-07
3.08918e-08
-1.10828e-06
1.51624e-08
-1.09964e-06
3.19478e-09
-1.10036e-06
-1.49361e-08
-1.10921e-06
-2.59881e-08
-6.37298e-07
-3.78576e-08
1.6469e-08
2.52141e-07
2.44739e-08
5.49703e-09
1.3876e-07
-4.80684e-08
5.73119e-08
-1.16618e-07
4.22077e-08
-6.63912e-07
2.44497e-08
-1.09052e-06
1.02573e-08
-1.08544e-06
-1.88556e-09
-1.08822e-06
-1.9748e-08
-1.09135e-06
-2.69531e-08
-6.30093e-07
-4.71588e-08
3.66756e-08
1.38849e-07
6.6134e-08
4.75166e-08
1.79573e-07
-8.83311e-08
5.53554e-08
-1.24472e-07
2.97653e-08
-6.38324e-07
1.50726e-08
-1.07583e-06
8.71055e-11
-1.07046e-06
-1.64838e-08
-1.07165e-06
-3.3476e-08
-1.07436e-06
-3.5257e-08
-6.2831e-07
-9.89024e-08
1.00321e-07
4.54827e-08
-5.53631e-09
2.23644e-07
1.34998e-07
-1.79071e-07
1.41127e-07
-4.1958e-08
3.40918e-08
-5.31292e-07
1.4853e-08
-1.05659e-06
-2.39303e-09
-1.05321e-06
-1.88201e-08
-1.05522e-06
-3.40105e-08
-1.05917e-06
4.6152e-09
-6.66935e-07
7.80355e-08
2.68987e-08
3.16837e-08
9.18333e-08
1.37568e-07
1.03426e-07
-1.05998e-07
8.54002e-08
1.02119e-08
3.33962e-08
-4.7929e-07
1.67083e-08
-1.0399e-06
-5.41377e-09
-1.03109e-06
-2.54855e-08
-1.03515e-06
-4.10567e-08
-1.0436e-06
-4.25745e-08
-6.65417e-07
8.7696e-08
-1.03373e-07
7.44377e-09
1.11935e-07
1.22882e-07
7.77143e-08
-9.71716e-08
3.69066e-08
9.61857e-08
1.8413e-08
-4.608e-07
3.21801e-09
-1.02471e-06
-1.70254e-08
-1.01085e-06
-4.2701e-08
-1.00947e-06
-5.65981e-08
-1.0297e-06
-6.55631e-08
-6.56454e-07
-3.87947e-08
-1.30143e-07
1.38338e-08
-4.51856e-08
1.00325e-07
7.08335e-08
-9.34446e-08
1.38906e-08
1.82621e-07
3.68408e-08
-4.83751e-07
2.00638e-08
-1.00793e-06
-6.89988e-09
-9.83884e-07
-3.18136e-08
-9.84558e-07
-4.8417e-08
-1.0131e-06
-6.03111e-08
-6.44562e-07
-8.66448e-08
-1.0381e-07
2.41022e-08
-9.69143e-08
-2.90138e-08
9.40411e-08
5.80576e-09
-9.91645e-09
1.63526e-07
4.56877e-08
-5.39358e-07
2.74235e-08
-9.89667e-07
1.48454e-10
-9.56609e-07
-2.42947e-08
-9.60115e-07
-4.47908e-08
-9.92602e-07
-6.06708e-08
-6.28683e-07
-7.09711e-08
-9.35103e-08
-5.91387e-10
-4.62777e-08
-1.11208e-07
1.2717e-07
7.80792e-08
-2.18316e-08
7.41569e-08
3.69425e-08
-5.98134e-07
1.87482e-08
-9.71474e-07
-3.16125e-09
-9.34699e-07
-2.8146e-08
-9.3513e-07
-4.49841e-08
-9.75763e-07
-3.20003e-09
-6.70468e-07
2.34758e-08
-1.20186e-07
-1.51597e-08
3.80444e-08
-2.60913e-08
1.66981e-07
-1.3719e-08
1.29014e-08
3.5168e-08
4.31921e-08
-6.28427e-07
2.2279e-08
-9.50561e-07
1.23642e-09
-9.13657e-07
-1.86538e-08
-9.1524e-07
-4.21128e-08
-9.52303e-07
-4.63152e-08
-6.66266e-07
-1.10657e-07
-5.58442e-08
-2.67526e-08
-9.90636e-08
5.16773e-08
1.77769e-07
-6.24626e-08
3.52705e-08
5.15721e-08
4.17865e-08
-6.34942e-07
1.83182e-08
-9.27093e-07
1.71984e-09
-8.97059e-07
-1.52329e-08
-8.98287e-07
-3.80729e-08
-9.29463e-07
2.09614e-08
-7.25299e-07
1.19067e-07
-1.5395e-07
-1.9091e-08
1.11406e-07
1.23817e-07
1.42265e-07
-8.83135e-08
4.89339e-08
1.26448e-07
3.83509e-08
-6.24358e-07
1.55532e-08
-9.04294e-07
7.94829e-10
-8.823e-07
-1.46273e-08
-8.82865e-07
-3.80732e-08
-9.06017e-07
-2.88944e-08
-7.34477e-07
5.34614e-08
-2.36305e-07
-6.20413e-08
9.64122e-08
8.99414e-08
1.23225e-07
-7.09022e-08
3.29942e-08
1.8339e-07
3.84522e-08
-6.29819e-07
1.63315e-08
-8.82173e-07
5.77302e-10
-8.66546e-07
-1.65876e-08
-8.657e-07
-3.96909e-08
-8.82915e-07
-5.22676e-08
-7.21899e-07
-5.09786e-08
-2.37594e-07
-9.63066e-08
-1.67139e-08
-8.47346e-09
1.42615e-07
-1.09176e-08
3.00469e-08
1.44874e-07
4.05356e-08
-6.40309e-07
1.95387e-08
-8.61176e-07
1.32743e-09
-8.48335e-07
-1.76718e-08
-8.46701e-07
-4.0094e-08
-8.60493e-07
-6.43372e-08
-6.97655e-07
-7.96607e-08
-2.22272e-07
-1.07639e-07
-6.83295e-08
-4.56891e-08
1.54639e-07
3.36657e-08
3.75828e-08
6.16133e-08
4.27729e-08
-6.45496e-07
2.23428e-08
-8.40745e-07
6.35892e-10
-8.26628e-07
-2.1584e-08
-8.24481e-07
-4.30754e-08
-8.39001e-07
-7.24772e-08
-6.68255e-07
-9.08946e-08
-2.03856e-07
-1.17484e-07
-8.10511e-08
2.60074e-08
1.65158e-07
-3.65259e-08
6.02238e-08
2.73986e-08
4.5862e-08
-6.31133e-07
2.3601e-08
-8.18484e-07
-1.0332e-09
-8.01994e-07
-2.50479e-08
-8.00466e-07
-4.75935e-08
-8.16456e-07
-6.15775e-08
-6.54273e-07
-6.11131e-08
-2.04321e-07
-1.41195e-07
-3.74044e-08
6.18885e-08
1.73869e-07
-7.0599e-08
6.32367e-08
2.60503e-08
4.95857e-08
-6.17481e-07
2.60085e-08
-7.94907e-07
-9.80874e-10
-7.75004e-07
-2.61179e-08
-7.75329e-07
-4.92565e-08
-7.93317e-07
-5.48503e-08
-6.48681e-07
-4.00112e-08
-2.19161e-07
-1.51344e-07
-2.98617e-08
6.42849e-08
1.75985e-07
-6.64007e-08
6.33718e-08
2.69664e-08
5.13184e-08
-6.05429e-07
2.53456e-08
-7.68935e-07
1.52427e-10
-7.49811e-07
-2.57783e-08
-7.49399e-07
-5.03375e-08
-7.68757e-07
-5.38645e-08
-6.45155e-07
-3.51146e-08
-2.37911e-07
-1.54174e-07
-3.22825e-08
6.32991e-08
1.75322e-07
-6.26348e-08
6.57316e-08
2.45388e-08
5.49926e-08
-5.94691e-07
2.73389e-08
-7.41282e-07
2.49477e-09
-7.24967e-07
-2.63165e-08
-7.20587e-07
-5.21147e-08
-7.42959e-07
-6.53843e-08
-6.31885e-07
-5.9646e-08
-2.43649e-07
-1.65067e-07
-4.87524e-08
7.29336e-08
1.65481e-07
-6.30921e-08
7.06266e-08
2.68456e-08
5.35778e-08
-5.77641e-07
2.6444e-08
-7.14148e-07
1.45252e-09
-6.99975e-07
-2.44873e-08
-6.94648e-07
-5.05506e-08
-7.16896e-07
-6.6773e-08
-6.15661e-07
-7.02978e-08
-2.40122e-07
-1.65732e-07
-6.96302e-08
8.28401e-08
1.56448e-07
-7.38075e-08
7.28869e-08
3.67941e-08
5.35322e-08
-5.58286e-07
2.79402e-08
-6.88556e-07
-2.44797e-09
-6.69587e-07
-2.24353e-08
-6.7466e-07
-4.77169e-08
-6.91615e-07
-7.20712e-08
-5.91305e-07
-8.73699e-08
-2.24822e-07
-1.50699e-07
-1.02402e-07
7.68881e-08
1.57383e-07
-7.78239e-08
7.07237e-08
4.29519e-08
5.11788e-08
-5.38746e-07
2.32109e-08
-6.60589e-07
-2.54102e-09
-6.43835e-07
-2.18732e-08
-6.55328e-07
-4.60863e-08
-6.67402e-07
-8.1206e-08
-5.56184e-07
-9.78179e-08
-2.08211e-07
-1.35248e-07
-1.13267e-07
6.00856e-08
1.63493e-07
-6.61967e-08
6.86013e-08
3.44353e-08
5.44873e-08
-5.24632e-07
2.42791e-08
-6.30381e-07
7.2439e-10
-6.20281e-07
-4.10908e-08
-6.13513e-07
-7.38903e-08
-6.34602e-07
-1.01312e-07
-5.28762e-07
-1.02478e-07
-2.07045e-07
-1.34007e-07
-1.0372e-07
2.73772e-08
1.59135e-07
-2.30204e-08
8.41514e-08
-2.23421e-08
7.47421e-08
-5.15225e-07
4.1745e-08
-5.97384e-07
8.93165e-09
-5.87467e-07
-2.4613e-08
-5.79968e-07
-6.95651e-08
-5.89647e-07
-7.62547e-08
-5.22074e-07
-7.13064e-08
-2.11994e-07
-1.2356e-07
-8.1753e-08
-3.21441e-08
1.58364e-07
3.29132e-08
3.539e-08
-8.98746e-08
8.18645e-08
-5.61702e-07
4.59777e-08
-5.61497e-07
1.07657e-08
-5.52255e-07
-6.27148e-09
-5.62931e-07
-3.08461e-08
-5.65073e-07
-3.44684e-09
-5.49474e-07
-1.41584e-08
-2.01283e-07
-7.84769e-08
-5.92433e-08
3.66571e-08
1.25816e-07
-4.10951e-09
8.80678e-08
-1.41279e-07
6.02828e-08
-5.33916e-07
2.59675e-08
-5.27182e-07
-7.13653e-09
-5.19151e-07
-4.44344e-08
-5.25633e-07
-8.0667e-08
-5.2884e-07
-8.66053e-08
-5.43535e-07
-7.17496e-08
-2.16139e-07
-6.0606e-08
-8.96212e-08
6.28172e-08
1.03171e-07
-4.01723e-08
9.9187e-08
-1.77648e-07
3.65163e-08
-4.71246e-07
-2.60499e-09
-4.8806e-07
-2.82971e-08
-4.93459e-07
-6.80746e-08
-4.85856e-07
-1.06709e-07
-4.90205e-07
-1.62569e-07
-4.87676e-07
-1.36514e-07
-2.42194e-07
-5.78175e-08
-1.39302e-07
1.13418e-07
8.22375e-08
-9.24836e-08
1.26079e-07
-1.90307e-07
9.36204e-08
-4.38789e-07
5.69616e-08
-4.51401e-07
1.57985e-08
-4.52296e-07
-2.29701e-08
-4.47087e-07
-6.06411e-08
-4.52534e-07
-1.10414e-07
-4.37904e-07
-1.25976e-07
-2.26631e-07
-4.98633e-08
-1.3393e-07
1.06909e-07
5.29312e-08
-7.76029e-08
1.32229e-07
-2.15623e-07
7.96227e-08
-3.86183e-07
3.07744e-08
-4.02553e-07
-1.1692e-08
-4.0983e-07
-4.83078e-08
-4.10471e-07
-9.85568e-08
-4.02285e-07
-1.48404e-07
-3.88056e-07
-1.42613e-07
-2.32422e-07
-6.65381e-08
-1.25939e-07
7.71725e-08
-5.73481e-09
-1.85074e-08
1.48326e-07
-2.86777e-07
1.03582e-07
-3.41439e-07
5.12935e-08
-3.50264e-07
1.0841e-09
-3.5962e-07
-4.26895e-08
-3.66698e-07
-8.10209e-08
-3.63954e-07
-1.22012e-07
-3.47065e-07
-5.94218e-08
-2.95013e-07
-8.4586e-08
-4.13744e-08
1.52747e-07
-7.31073e-08
-8.53756e-08
1.42169e-07
-2.762e-07
9.85512e-08
-2.97821e-07
6.34771e-08
-3.1519e-07
2.14531e-08
-3.17596e-07