/*--------------------------------*- C++ -*----------------------------------*\
  =========                 |
  \\      /  F ield         | OpenFOAM: The Open Source CFD Toolbox
   \\    /   O peration     | Website:  https://openfoam.org
    \\  /    A nd           | Version:  8
     \\/     M anipulation  |
\*---------------------------------------------------------------------------*/
FoamFile
{
    version     2.0;
    format      ascii;
    class       surfaceScalarField;
    location    "4.45";
    object      alphaPhi0.water;
}
// * * * * * * * * * * * * * * * * * * * * * * * * * * * * * * * * * * * * * //

dimensions      [0 3 -1 0 0 0 0];

internalField   nonuniform List<scalar> 
18095
(
1.58589e-07
-9.65415e-07
8.06825e-07
1.65456e-07
-1.24824e-06
1.24137e-06
1.22266e-07
-1.24224e-06
1.28543e-06
6.54047e-08
-1.26348e-06
1.32034e-06
1.04632e-10
-1.28049e-06
1.34579e-06
-6.52143e-08
-1.2805e-06
1.34582e-06
-1.22121e-07
-1.26353e-06
1.32044e-06
-1.65361e-07
-1.24229e-06
1.28553e-06
-1.58549e-07
-1.24828e-06
1.24147e-06
-9.65534e-07
8.06985e-07
1.11055e-07
-1.07647e-06
9.94522e-08
-1.23664e-06
7.29025e-08
-1.21569e-06
4.00895e-08
-1.23067e-06
6.79566e-11
-1.24046e-06
-3.9964e-08
-1.24047e-06
-7.28029e-08
-1.23069e-06
-9.93755e-08
-1.21572e-06
-1.11009e-07
-1.23665e-06
-1.07654e-06
6.71841e-08
-1.14365e-06
5.2783e-08
-1.22224e-06
4.21749e-08
-1.20508e-06
2.38969e-08
-1.21239e-06
4.1945e-11
-1.21661e-06
-2.38185e-08
-1.21661e-06
-4.21117e-08
-1.2124e-06
-5.27341e-08
-1.20509e-06
-6.7146e-08
-1.22224e-06
-1.14369e-06
3.96386e-08
-1.18329e-06
2.66389e-08
-1.20924e-06
2.20332e-08
-1.20048e-06
1.25473e-08
-1.2029e-06
2.34425e-11
-1.20408e-06
-1.25032e-08
-1.20408e-06
-2.19968e-08
-1.20291e-06
-2.66115e-08
-1.20048e-06
-3.96138e-08
-1.20923e-06
-1.1833e-06
1.67083e-08
7.47228e-09
6.99666e-09
4.09244e-09
8.44041e-12
-4.07646e-09
-6.98357e-09
-7.4633e-09
-1.66979e-08
-1.74352e-07
-1.16329e-06
1.33764e-06
-2.18492e-07
-1.21609e-06
1.26023e-06
-1.64369e-07
-1.21263e-06
1.1585e-06
-8.60676e-08
-1.20385e-06
1.12554e-06
1.17832e-09
-1.20243e-06
1.11518e-06
8.83725e-08
-1.20261e-06
1.11541e-06
1.66449e-07
-1.20432e-06
1.12624e-06
2.20411e-07
-1.21331e-06
1.15935e-06
1.76136e-07
-1.21707e-06
1.26134e-06
-1.16443e-06
1.34057e-06
-9.26532e-08
-1.07064e-06
-9.51661e-08
-1.21357e-06
-7.87276e-08
-1.22906e-06
-4.36057e-08
-1.23897e-06
6.68449e-10
-1.2467e-06
4.48889e-08
-1.24683e-06
7.98802e-08
-1.23931e-06
9.6118e-08
-1.22955e-06
9.31947e-08
-1.21414e-06
-1.07124e-06
-5.78469e-08
-1.01279e-06
-5.4939e-08
-1.21648e-06
-4.62172e-08
-1.23779e-06
-2.67714e-08
-1.25841e-06
4.03392e-10
-1.27388e-06
2.75401e-08
-1.27396e-06
4.68776e-08
-1.25865e-06
5.54215e-08
-1.23809e-06
5.8081e-08
-1.2168e-06
-1.01316e-06
-7.47644e-08
-9.38025e-07
-6.18867e-08
-1.22936e-06
-4.84322e-08
-1.25124e-06
-2.75669e-08
-1.27928e-06
2.49956e-10
-1.30169e-06
2.80392e-08
-1.30175e-06
4.88248e-08
-1.27943e-06
6.21514e-08
-1.25142e-06
7.48869e-08
-1.22954e-06
-9.3827e-07
-1.31199e-07
-1.19185e-07
-8.49955e-08
-4.39308e-08
1.60753e-10
4.42324e-08
8.52415e-08
1.19353e-07
1.31286e-07
-1.30901e-08
-9.0737e-07
9.2046e-07
1.76146e-08
-1.34207e-06
1.31137e-06
1.72535e-08
-1.27892e-06
1.27929e-06
1.22152e-08
-1.22862e-06
1.23366e-06
7.05455e-09
-1.22438e-06
1.22954e-06
2.3551e-09
-1.22516e-06
1.22986e-06
-3.39166e-09
-1.22701e-06
1.23276e-06
6.15882e-09
-1.27319e-06
1.26364e-06
6.13307e-08
-1.34271e-06
1.28754e-06
-9.50571e-07
1.0119e-06
2.50805e-08
-9.3245e-07
3.05418e-08
-1.34753e-06
2.0406e-08
-1.26879e-06
1.33292e-08
-1.22155e-06
6.43326e-09
-1.21748e-06
-4.69168e-10
-1.21826e-06
-6.42615e-09
-1.22105e-06
-1.09912e-08
-1.26863e-06
-4.70097e-09
-1.349e-06
-9.55272e-07
3.43736e-08
-9.66824e-07
2.49689e-08
-1.33813e-06
1.53998e-08
-1.25922e-06
1.02838e-08
-1.21643e-06
4.38102e-09
-1.21158e-06
-2.12623e-09
-1.21175e-06
-6.51104e-09
-1.21667e-06
-1.51984e-08
-1.25994e-06
-2.42749e-08
-1.33992e-06
-9.79547e-07
8.33289e-08
-1.05015e-06
5.75138e-08
-1.31231e-06
3.80117e-08
-1.23972e-06
2.41663e-08
-1.20259e-06
2.99548e-09
-1.19041e-06
-1.81243e-08
-1.19063e-06
-3.11657e-08
-1.20363e-06
-5.00885e-08
-1.24102e-06
-7.68905e-08
-1.31312e-06
-1.05644e-06
2.87489e-07
2.35404e-07
1.54189e-07
7.71477e-08
1.91936e-09
-7.32983e-08
-1.50685e-07
-2.32355e-07
-2.84132e-07
7.78927e-08
2.1834e-09
-8.00756e-08
7.56591e-08
2.23349e-09
7.33843e-08
2.27569e-09
7.10743e-08
2.31003e-09
6.87391e-08
2.33527e-09
6.63863e-08
2.35283e-09
6.40224e-08
2.36388e-09
6.1654e-08
2.36837e-09
5.92878e-08
2.36611e-09
2.35642e-09
5.69313e-08
7.69333e-08
4.26733e-09
-7.90171e-08
7.47914e-08
4.37543e-09
7.25983e-08
4.46719e-09
7.03688e-08
4.54036e-09
6.81098e-08
4.59482e-09
6.58285e-08
4.63403e-09
6.35344e-08
4.65794e-09
6.12358e-08
4.66694e-09
5.89408e-08
4.66094e-09
4.63979e-09
5.66572e-08
6.87436e-08
6.36936e-09
-7.08457e-08
6.6605e-08
6.51323e-09
6.4441e-08
6.63069e-09
6.22577e-08
6.72348e-09
6.00606e-08
6.79182e-09
5.78592e-08
6.83635e-09
5.5659e-08
6.85804e-09
5.34689e-08
6.85701e-09
5.12963e-08
6.83346e-09
6.78759e-09
4.91483e-08
5.99003e-08
8.50208e-09
-6.20345e-08
5.77499e-08
8.66354e-09
5.55873e-08
8.79312e-09
5.34198e-08
8.89162e-09
5.12531e-08
8.95887e-09
4.90936e-08
8.99582e-09
4.69489e-08
9.00277e-09
4.48258e-08
8.98008e-09
4.27313e-08
8.9279e-09
8.84662e-09
4.0672e-08
5.04638e-08
1.06606e-08
-5.26225e-08
4.82995e-08
1.08283e-08
4.61343e-08
1.09584e-08
4.39746e-08
1.10514e-08
4.18261e-08
1.11074e-08
3.96951e-08
1.11269e-08
3.75879e-08
1.111e-08
3.55109e-08
1.10571e-08
3.34705e-08
1.09683e-08
1.08439e-08
3.14731e-08
4.03543e-08
1.28384e-08
-4.25319e-08
3.81794e-08
1.30034e-08
3.60121e-08
1.31257e-08
3.38581e-08
1.32055e-08
3.17229e-08
1.32427e-08
2.96123e-08
1.32376e-08
2.75321e-08
1.31903e-08
2.5488e-08
1.31013e-08
2.34858e-08
1.29706e-08
1.27983e-08
2.15315e-08
2.95338e-08
1.50311e-08
-3.17265e-08
2.73501e-08
1.51873e-08
2.51797e-08
1.52962e-08
2.30282e-08
1.53572e-08
2.09011e-08
1.537e-08
1.88041e-08
1.53347e-08
1.67424e-08
1.52521e-08
1.47208e-08
1.51229e-08
1.27439e-08
1.49476e-08
1.47253e-08
1.08168e-08
1.79738e-08
1.72382e-08
-2.01808e-08
1.57784e-08
1.73829e-08
1.35996e-08
1.7475e-08
1.1444e-08
1.75128e-08
9.31786e-09
1.74962e-08
7.22705e-09
1.74256e-08
5.17669e-09
1.73026e-08
3.16968e-09
1.713e-08
1.20749e-09
1.69098e-08
1.66399e-08
-7.07111e-10
5.63453e-09
1.94655e-08
-7.86168e-09
3.41706e-09
1.96003e-08
1.2172e-09
1.96749e-08
-9.55225e-10
1.96853e-08
-3.09227e-09
1.96333e-08
-5.18634e-09
1.95197e-08
-7.23079e-09
1.9347e-08
-9.22648e-09
1.91256e-08
-1.11799e-08
1.8863e-08
1.85547e-08
-1.30948e-08
-7.55027e-09
2.1727e-08
5.28873e-09
-9.81279e-09
2.18627e-08
-1.20605e-08
2.19226e-08
-1.42731e-08
2.18979e-08
-1.6442e-08
2.18022e-08
-1.85548e-08
2.16325e-08
-2.05968e-08
2.13889e-08
-2.25753e-08
2.1104e-08
-2.45152e-08
2.08027e-08
2.04783e-08
-2.64388e-08
-2.16904e-08
2.40467e-08
1.93707e-08
-2.40429e-08
2.42151e-08
-2.63838e-08
2.42634e-08
-2.86704e-08
2.41844e-08
-3.09049e-08
2.40366e-08
-3.30704e-08
2.37979e-08
-3.51253e-08
2.34437e-08
-3.70567e-08
2.30354e-08
-3.89738e-08
2.27197e-08
2.23633e-08
-4.08589e-08
-3.69525e-08
2.64459e-08
3.45532e-08
-3.94824e-08
2.6745e-08
-4.19963e-08
2.67771e-08
-4.43512e-08
2.65393e-08
-4.66051e-08
2.62905e-08
-4.8944e-08
2.61302e-08
-5.10422e-08
2.55419e-08
-5.29259e-08
2.4919e-08
-5.45687e-08
2.44263e-08
2.4081e-08
-5.63087e-08
-5.35732e-08
2.88273e-08
5.11918e-08
-5.62825e-08
2.94544e-08
-5.93662e-08
2.98611e-08
-6.15261e-08
2.87044e-08
-6.31299e-08
2.8121e-08
-6.48943e-08
2.76574e-08
-6.68886e-08
2.72988e-08
-6.89597e-08
2.68062e-08
-7.08485e-08
2.64226e-08
2.59562e-08
-7.27471e-08
-7.17575e-08
3.1085e-08
6.99152e-08
-7.30854e-08
3.10519e-08
-7.44229e-08
3.08347e-08
-7.91419e-08
3.03584e-08
-8.13271e-08
3.03066e-08
-8.32833e-08
2.99041e-08
-8.47985e-08
2.93151e-08
-8.67056e-08
2.86758e-08
-8.86244e-08
2.8304e-08
2.81709e-08
-9.11128e-08
-8.81374e-08
3.23113e-08
8.6603e-08
-9.00182e-08
3.26246e-08
-9.23287e-08
3.28371e-08
-9.73704e-08
3.3049e-08
-9.9667e-08
3.26032e-08
-1.01982e-07
3.22197e-08
-1.04312e-07
3.18662e-08
-1.0682e-07
3.15272e-08
-1.09709e-07
3.11574e-08
3.07789e-08
-1.124e-07
-1.08139e-07
3.40249e-08
1.06117e-07
-1.1208e-07
3.53312e-08
-1.15104e-07
3.58428e-08
-1.17917e-07
3.57209e-08
-1.20802e-07
3.5488e-08
-1.23936e-07
3.53555e-08
-1.27284e-07
3.52144e-08
-1.30677e-07
3.49192e-08
-1.33977e-07
3.44579e-08
3.39748e-08
-1.37172e-07
-1.32649e-07
3.84893e-08
1.26912e-07
-1.35903e-07
3.8586e-08
-1.38941e-07
3.88813e-08
-1.42285e-07
3.90653e-08
-1.45988e-07
3.91909e-08
-1.49932e-07
3.92999e-08
-1.54316e-07
3.95982e-08
-1.58802e-07
3.94057e-08
-1.62665e-07
3.83245e-08
3.74128e-08
-1.65231e-07
-1.57118e-07
4.26264e-08
1.52982e-07
-1.61414e-07
4.28835e-08
-1.65797e-07
4.32657e-08
-1.70569e-07
4.38376e-08
-1.75209e-07
4.38476e-08
-1.79519e-07
4.42213e-08
-1.79448e-07
4.33249e-08
-1.83123e-07
4.23617e-08
-1.86734e-07
4.12206e-08
4.00237e-08
-1.90138e-07
-1.85622e-07
4.78128e-08
1.80438e-07
-1.90775e-07
4.80373e-08
-1.96102e-07
4.86729e-08
-1.95645e-07
4.83913e-08
-2.00278e-07
4.78566e-08
-2.05048e-07
4.8327e-08
-2.10825e-07
4.84125e-08
-2.17108e-07
4.79613e-08
-2.26085e-07
4.72411e-08
4.57379e-08
-2.33257e-07
-2.11026e-07
5.31459e-08
2.10822e-07
-2.15579e-07
5.1955e-08
-2.20427e-07
5.28003e-08
-2.26323e-07
5.35802e-08
-2.33458e-07
5.43793e-08
-2.45008e-07
5.63312e-08
-2.54216e-07
5.77467e-08
-2.62645e-07
5.65439e-08
-2.69619e-07
5.43289e-08
5.18874e-08
-2.75512e-07
-2.4142e-07
5.74663e-08
2.3674e-07
-2.4891e-07
5.88086e-08
-2.59835e-07
6.10173e-08
-2.67231e-07
6.22364e-08
-2.75612e-07
6.35643e-08
-2.85836e-07
6.54281e-08
-2.95355e-07
6.73542e-08
-3.05822e-07
6.71021e-08
-3.14083e-07
6.27919e-08
5.7808e-08
-3.19746e-07
-2.86781e-07
6.67488e-08
2.7594e-07
-2.94755e-07
6.73118e-08
-3.01989e-07
6.83135e-08
-3.0915e-07
6.95246e-08
-3.15902e-07
7.04693e-08
-3.22161e-07
7.22287e-08
-3.12269e-07
6.71998e-08
-3.24484e-07
6.94176e-08
-3.56181e-07
6.89555e-08
6.06536e-08
-3.51148e-07
-3.2867e-07
7.50936e-08
3.20426e-07
-3.37275e-07
7.60228e-08
-3.46722e-07
7.7861e-08
-3.57397e-07
8.03014e-08
-3.62894e-07
7.62109e-08
-3.52039e-07
7.17389e-08
-2.6975e-07
6.11566e-08
-2.61486e-07
5.65564e-08
-2.50983e-07
5.35739e-08
4.92736e-08
-2.44189e-07
-3.68323e-07
8.37397e-08
3.59751e-07
-3.70937e-07
7.87453e-08
-3.34497e-07
7.85098e-08
-2.81163e-07
6.32675e-08
-2.67813e-07
5.83171e-08
-2.62644e-07
5.80369e-08
-2.69451e-07
6.09016e-08
-2.75711e-07
5.81343e-08
-2.88414e-07
6.17721e-08
6.82531e-08
-4.15418e-07
-3.32112e-07
7.92015e-08
3.94235e-07
-2.77566e-07
6.49762e-08
-2.66115e-07
6.30726e-08
-2.70868e-07
6.33934e-08
-2.78708e-07
6.15287e-08
-2.85444e-07
6.01459e-08
-3.45034e-07
7.50092e-08
-4.15794e-07
8.63212e-08
-4.31361e-07
8.44292e-08
7.47932e-08
-4.41977e-07
-2.72073e-07
6.47788e-08
3.11747e-07
-2.76048e-07
6.4848e-08
-2.84267e-07
6.55167e-08
-2.94099e-07
6.92389e-08
-3.8024e-07
8.60742e-08
-4.36855e-07
9.72182e-08
-4.51774e-07
9.46595e-08
-4.54817e-07
9.05396e-08
-4.52536e-07
8.37715e-08
7.38231e-08
-3.82592e-07
-2.94087e-07
7.27217e-08
3.23786e-07
-3.01417e-07
6.69392e-08
-3.57468e-07
8.31783e-08
-4.55002e-07
1.03635e-07
-4.70782e-07
1.04007e-07
-4.74114e-07
1.00732e-07
-4.75213e-07
9.73601e-08
-4.56882e-07
9.26425e-08
-3.79746e-07
7.73171e-08
6.99079e-08
-3.74724e-07
-3.83886e-07
1.11709e-07
4.27456e-07
-4.24345e-07
1.09661e-07
-4.82917e-07
1.09747e-07
-4.87586e-07
1.0826e-07
-4.89159e-07
1.05591e-07
-4.90875e-07
1.02496e-07
-4.92598e-07
9.9387e-08
-4.9474e-07
9.63966e-08
-4.38226e-07
9.28603e-08
7.79994e-08
-3.83862e-07
-4.84462e-07
1.18859e-07
4.78367e-07
-4.89921e-07
1.15991e-07
-4.9345e-07
1.13183e-07
-4.95441e-07
1.1025e-07
-4.97039e-07
1.07191e-07
-4.98574e-07
1.04041e-07
-5.00061e-07
1.00922e-07
-5.0139e-07
9.79471e-08
-5.00971e-07
9.51568e-08
9.23092e-08
-4.75468e-07
-4.84009e-07
1.23611e-07
4.79277e-07
-4.87841e-07
1.19743e-07
-4.90786e-07
1.16024e-07
-4.92925e-07
1.12387e-07
-4.94521e-07
1.08787e-07
-4.95701e-07
1.05223e-07
-4.96482e-07
1.01711e-07
-4.96656e-07
9.82566e-08
-4.95503e-07
9.48253e-08
9.1303e-08
-4.94031e-07
-4.74697e-07
1.27718e-07
4.70651e-07
-4.77837e-07
1.23013e-07
-4.80559e-07
1.18513e-07
-4.82358e-07
1.14179e-07
-4.83503e-07
1.09932e-07
-4.84046e-07
1.05767e-07
-4.83997e-07
1.01666e-07
-4.83317e-07
9.76053e-08
-4.82015e-07
9.35406e-08
8.93902e-08
-4.80103e-07
-4.59768e-07
1.30903e-07
4.56633e-07
-4.62145e-07
1.25507e-07
-4.64086e-07
1.20293e-07
-4.6516e-07
1.15252e-07
-4.65543e-07
1.10314e-07
-4.65248e-07
1.05472e-07
-4.64283e-07
1.00702e-07
-4.62655e-07
9.59776e-08
-4.6038e-07
9.12659e-08
8.65192e-08
-4.57509e-07
-4.3997e-07
1.3301e-07
4.37885e-07
-4.41459e-07
1.27003e-07
-4.42305e-07
1.21136e-07
-4.42442e-07
1.15389e-07
-4.41873e-07
1.09746e-07
-4.40593e-07
1.04191e-07
-4.38602e-07
9.87106e-08
-4.35911e-07
9.32873e-08
-4.32548e-07
8.79022e-08
8.253e-08
-4.28559e-07
-4.1566e-07
1.34095e-07
4.14576e-07
-4.16147e-07
1.2749e-07
-4.1598e-07
1.20969e-07
-4.15116e-07
1.14525e-07
-4.13526e-07
1.08156e-07
-4.11192e-07
1.01857e-07
-4.0811e-07
9.56283e-08
-4.04288e-07
8.94655e-08
-3.9975e-07
8.33648e-08
7.73178e-08
-3.94538e-07
-3.87437e-07
1.34317e-07
3.87215e-07
-3.87033e-07
1.27085e-07
-3.85944e-07
1.1988e-07
-3.84124e-07
1.12705e-07
-3.81539e-07
1.05571e-07
-3.78169e-07
9.84869e-08
-3.74005e-07
9.14644e-08
-3.69054e-07
8.45148e-08
-3.63338e-07
7.7649e-08
7.08738e-08
-3.56883e-07
-3.56178e-07
1.33854e-07
3.56641e-07
-3.55032e-07
1.2594e-07
-3.5315e-07
1.17998e-07
-3.50489e-07
1.10044e-07
-3.47015e-07
1.02097e-07
-3.42707e-07
9.41798e-08
-3.37559e-07
8.63159e-08
-3.31575e-07
7.85305e-08
-3.24775e-07
7.08495e-08
6.3299e-08
-3.17196e-07
-3.22863e-07
1.32869e-07
3.23848e-07
-3.21135e-07
1.24211e-07
-3.18616e-07
1.15479e-07
-3.15271e-07
1.06698e-07
-3.11071e-07
9.78969e-08
-3.05999e-07
8.91081e-08
-3.0005e-07
8.03663e-08
-2.93228e-07
7.17082e-08
-2.85551e-07
6.31726e-08
5.48012e-08
-2.77053e-07
-2.88484e-07
1.31497e-07
2.89855e-07
-2.86317e-07
1.22045e-07
-2.83318e-07
1.12481e-07
-2.7946e-07
1.0284e-07
-2.74726e-07
9.3163e-08
-2.6911e-07
8.34916e-08
-2.62614e-07
7.38705e-08
-2.55252e-07
6.43459e-08
-2.47046e-07
5.49659e-08
4.57806e-08
-2.38025e-07
-2.53953e-07
1.29831e-07
2.5562e-07
-2.51452e-07
1.19544e-07
-2.48093e-07
1.09122e-07
-2.43863e-07
9.86101e-08
-2.38761e-07
8.80611e-08
-2.328e-07
7.75297e-08
-2.26002e-07
6.70733e-08
-2.18407e-07
5.6751e-08
-2.10065e-07
4.66236e-08
3.67526e-08
-2.01037e-07
-2.20037e-07
1.27899e-07
2.21969e-07
-2.17243e-07
1.1675e-07
-2.13572e-07
1.0545e-07
-2.0902e-07
9.40584e-08
-2.03598e-07
8.26393e-08
-1.9733e-07
7.12611e-08
-1.90251e-07
5.99945e-08
-1.82412e-07
4.89115e-08
-1.73873e-07
3.80845e-08
2.75837e-08
-1.64704e-07
-1.87391e-07
1.25697e-07
1.89592e-07
-1.84309e-07
1.13667e-07
-1.80335e-07
1.01476e-07
-1.75471e-07
8.91949e-08
-1.69734e-07
7.69019e-08
-1.63152e-07
6.46787e-08
-1.55766e-07
5.26086e-08
-1.47631e-07
4.07766e-08
-1.38814e-07
2.92674e-08
1.81604e-08
-1.29391e-07
-1.56562e-07
1.2321e-07
1.59045e-07
-1.5319e-07
1.10295e-07
-1.48922e-07
9.7208e-08
-1.4376e-07
8.40335e-08
-1.37723e-07
7.0865e-08
-1.30843e-07
5.77984e-08
-1.23165e-07
4.49309e-08
-1.14752e-07
3.23637e-08
-1.05687e-07
2.02017e-08
8.54485e-09
-9.60713e-08
-1.27943e-07
1.20444e-07
1.30708e-07
-1.24307e-07
1.0666e-07
-1.19781e-07
9.26823e-08
-1.14363e-07
7.86153e-08
-1.08069e-07
6.45716e-08
-1.00935e-07
5.06639e-08
-9.30073e-08
3.70033e-08
-8.43514e-08
2.37078e-08
-7.50582e-08
1.09084e-08
-1.24117e-09
-6.52693e-08
-1.01739e-07
1.17486e-07
1.04688e-07
-9.79349e-08
1.02823e-07
-9.32531e-08
8.79468e-08
-8.76681e-08
7.30302e-08
-8.12071e-08
5.81106e-08
-7.39099e-08
4.33666e-08
-6.58237e-08
2.89172e-08
-5.69998e-08
1.48838e-08
-4.7515e-08
1.42358e-09
-1.11389e-08
-3.73532e-08
-7.80355e-08
1.14532e-07
8.09925e-08
-7.4203e-08
9.89772e-08
-6.95158e-08
8.32144e-08
-6.39507e-08
6.73605e-08
-5.74283e-08
5.15882e-08
-5.00189e-08
3.59572e-08
-4.17484e-08
2.04779e-08
-3.27333e-08
5.80752e-09
-2.28511e-08
-8.1814e-09
-2.12487e-08
-1.23363e-08
-5.68854e-08
1.11921e-07
5.95519e-08
-5.33846e-08
9.54668e-08
-4.89165e-08
7.87366e-08
-4.35126e-08
6.19166e-08
-3.70051e-08
4.50395e-08
-2.91122e-08
2.80033e-08
-2.04319e-08
1.17929e-08
-1.10506e-08
-3.58017e-09
-9.86137e-10
-1.8254e-08
-3.21051e-08
9.70025e-09
-3.83131e-08
1.10099e-07
4.01648e-08
-3.54952e-08
9.2751e-08
-3.16087e-08
7.49258e-08
-2.65569e-08
5.68752e-08
-2.0251e-08
3.87806e-08
-1.23641e-08
2.05921e-08
-3.77093e-09
3.19506e-09
5.77299e-09
-1.32162e-08
1.61717e-08
-2.90119e-08
-4.33534e-08
2.70335e-08
-2.20724e-08
1.09538e-07
2.26363e-08
-2.03733e-08
9.1066e-08
-1.73297e-08
7.18935e-08
-1.29147e-08
5.24598e-08
-7.1343e-09
3.30411e-08
-1.41181e-10
1.38616e-08
7.87234e-09
-4.78585e-09
1.71552e-08
-2.26172e-08
2.73134e-08
-3.91701e-08
-5.40244e-08
3.79843e-08
-8.20986e-09
1.10944e-07
6.80346e-09
-8.16968e-09
9.10259e-08
-6.44804e-09
7.01722e-08
-3.22714e-09
4.92384e-08
1.35765e-09
2.84602e-08
7.18825e-09
8.02897e-09
1.42373e-08
-1.18349e-08
2.23616e-08
-3.07415e-08
3.13867e-08
-4.81953e-08
-6.35926e-08
4.09535e-08
3.29626e-09
1.15534e-07
-7.88621e-09
1.334e-09
9.29881e-08
1.11703e-09
6.84836e-08
2.68719e-09
4.76785e-08
5.30275e-09
2.58438e-08
9.00753e-09
4.32405e-09
1.37814e-08
-1.66086e-08
1.95395e-08
-3.64995e-08
2.60592e-08
-5.47152e-08
-7.04953e-08
3.29608e-08
8.92431e-09
8.45109e-08
-1.20948e-08
6.01187e-09
6.51263e-08
5.20179e-09
6.82683e-08
4.24623e-09
4.86459e-08
3.90899e-09
2.61798e-08
4.28087e-09
3.95207e-09
5.39711e-09
-1.77247e-08
7.17846e-09
-3.82808e-08
9.36595e-09
-5.69028e-08
-7.26301e-08
1.15009e-08
1.36931e-08
8.42867e-08
-1.48344e-08
1.10511e-08
7.31594e-08
7.36723e-09
7.45633e-08
2.4039e-09
5.36161e-08
-2.26192e-09
3.08455e-08
-6.54881e-09
8.23877e-09
-1.04553e-08
-1.38181e-08
-1.41558e-08
-3.45801e-08
-1.80118e-08
-5.30467e-08
-6.80515e-08
-2.25867e-08
1.89175e-08
9.02046e-08
-2.60222e-08
1.70352e-08
1.03906e-07
7.68164e-09
8.46905e-08
-2.39249e-09
6.14252e-08
-1.20109e-08
4.04643e-08
-2.13919e-08
1.76196e-08
-3.07832e-08
-4.42653e-09
-4.05106e-08
-2.48524e-08
-5.10001e-08
-4.2556e-08
-5.62391e-08
-6.28051e-08
3.10154e-08
1.2736e-07
-3.23096e-08
1.73709e-08
1.18429e-07
3.56917e-09
9.92666e-08
-1.08937e-08
7.26523e-08
-2.38614e-08
5.34325e-08
-3.69107e-08
3.06687e-08
-5.04908e-08
9.15381e-09
-6.50705e-08
-1.02724e-08
-8.10505e-08
-2.65763e-08
-3.84684e-08
-9.88201e-08
3.10874e-08
1.32545e-07
-4.02039e-08
1.24075e-08
1.03306e-07
-5.70995e-09
9.15533e-08
-1.9395e-08
8.64042e-08
-3.27443e-08
6.67819e-08
-4.63758e-08
4.43002e-08
-6.08581e-08
2.36364e-08
-7.65789e-08
5.44888e-09
-9.37043e-08
-9.45194e-09
-2.00359e-08
-1.12141e-07
1.68834e-08
1.23902e-07
-4.30184e-08
5.30923e-09
4.46476e-08
-4.81429e-09
6.06631e-08
-1.77015e-08
1.02622e-07
-3.01362e-08
7.92166e-08
-4.26544e-08
5.68186e-08
-5.56901e-08
3.66719e-08
-6.94616e-08
1.92214e-08
-8.39419e-08
5.02844e-09
-5.24483e-09
-9.87343e-08
6.26895e-09
7.20796e-08
-3.54271e-08
4.60062e-09
4.65791e-08
5.12644e-10
7.93668e-08
-1.02567e-08
1.14218e-07
-1.96259e-08
8.85857e-08
-2.84162e-08
6.56089e-08
-3.71141e-08
4.53696e-08
-4.58645e-08
2.79717e-08
-5.44486e-08
1.36126e-08
2.5106e-09
-6.22036e-08
7.96609e-10
5.64874e-08
-1.84488e-08
-1.0209e-09
4.80045e-08
-1.05859e-09
1.02644e-07
-2.0585e-09
1.15218e-07
-3.34621e-09
8.98733e-08
-5.25524e-09
6.75176e-08
-7.7843e-09
4.78987e-08
-1.0687e-08
3.08744e-08
-1.34616e-08
1.63869e-08
4.39652e-09
-1.53471e-08
5.23809e-09
5.92632e-08
-1.95006e-08
3.81786e-09
4.86046e-08
2.2918e-08
9.7793e-08
2.81995e-08
1.09933e-07
3.17622e-08
8.63102e-08
3.40603e-08
6.5219e-08
3.54595e-08
4.64992e-08
3.64668e-08
2.98668e-08
3.76964e-08
1.51578e-08
2.23884e-09
3.98548e-08
2.29304e-08
6.2017e-08
-3.50876e-08
2.22536e-08
4.7777e-08
8.62782e-08
1.00365e-07
8.66398e-08
1.09673e-07
8.7325e-08
8.56261e-08
8.84778e-08
6.40657e-08
9.01808e-08
4.47962e-08
9.26326e-08
2.74145e-08
9.61502e-08
1.16399e-08
-2.76096e-09
1.0115e-07
3.05412e-08
5.48798e-08
-2.4219e-08
5.32516e-08
4.71486e-08
1.23865e-07
1.09572e-07
1.29179e-07
1.04443e-07
1.33537e-07
8.12763e-08
1.37813e-07
5.97899e-08
1.42551e-07
4.0059e-08
1.48179e-07
2.17861e-08
1.5511e-07
4.70844e-09
-1.14175e-08
1.63766e-07
3.13267e-08
4.88165e-08
-2.44019e-08
8.42919e-08
5.59006e-08
1.57654e-07
1.0618e-07
1.67782e-07
9.45437e-08
1.76172e-07
7.29027e-08
1.84072e-07
5.18903e-08
1.92329e-07
3.18019e-08
2.0158e-07
1.25351e-08
2.12365e-07
-6.07589e-09
-2.42097e-08
2.25157e-07
4.40599e-08
4.24299e-08
-3.53512e-08
1.31346e-07
6.94942e-08
1.95095e-07
1.00188e-07
2.06236e-07
8.36757e-08
2.16426e-07
6.27369e-08
2.26735e-07
4.15837e-08
2.37928e-07
2.06089e-08
2.50614e-07
-1.49821e-10
2.65301e-07
-2.07637e-08
-4.13135e-08
2.82405e-07
5.04726e-08
3.44442e-08
-4.19364e-08
2.09333e-07
9.3782e-08
2.28983e-07
9.21777e-08
2.39901e-07
7.28642e-08
2.51085e-07
5.15638e-08
2.63464e-07
2.92061e-08
2.77558e-07
6.51538e-09
2.93853e-07
-1.64441e-08
3.12735e-07
-3.96476e-08
-6.30078e-08
3.34427e-07
1.9885e-07
9.43033e-08
-5.4258e-08
2.41777e-07
9.39347e-08
2.53564e-07
8.06451e-08
2.65556e-07
6.09021e-08
2.78573e-07
3.85562e-08
2.93977e-07
1.38073e-08
3.11718e-07
-1.12232e-08
3.32525e-07
-3.72497e-08
3.56643e-07
-6.36891e-08
-9.03782e-08
3.84048e-07
2.24927e-07
1.02668e-07
-2.13834e-07
2.47978e-07
8.53949e-08
2.44683e-07
6.04384e-08
2.54874e-07
4.00624e-08
2.93549e-07
1.738e-08
3.17876e-07
-5.38114e-09
3.39309e-07
-2.75841e-08
3.67574e-07
-5.92065e-08
4.01523e-07
-9.45235e-08
-1.25181e-07
4.36388e-07
2.14213e-07
8.49061e-08
-2.0424e-07
1.8718e-07
6.27678e-08
2.00981e-07
3.9666e-08
2.21903e-07
1.9515e-08
2.42569e-07
-3.00067e-09
2.67536e-07
-2.83883e-08
2.96261e-07
-5.39577e-08
4.03293e-07
-9.15149e-08
4.45701e-07
-1.34216e-07
-1.69014e-07
4.89967e-07
1.61432e-07
6.22002e-08
-1.51469e-07
1.80881e-07
4.26254e-08
1.9916e-07
2.14933e-08
2.20544e-07
-1.8568e-09
2.45469e-07
-2.76024e-08
2.81273e-07
-6.20541e-08
3.3319e-07
-1.02793e-07
4.3277e-07
-1.43489e-07
4.83516e-07
-1.83405e-07
-2.2344e-07
5.39281e-07
1.50793e-07
4.97804e-08
-1.39066e-07
1.67679e-07
2.45904e-08
1.90575e-07
-1.46077e-09
2.20877e-07
-3.26282e-08
2.63535e-07
-7.20693e-08
3.4755e-07
-1.11675e-07
4.0272e-07
-1.55823e-07
4.55721e-07
-1.97183e-07
5.16227e-07
-2.42189e-07
-2.87169e-07
5.81601e-07
1.37984e-07
4.10026e-08
-1.3267e-07
1.48511e-07
4.43607e-09
1.88285e-07
-3.55794e-08
2.60852e-07
-7.7195e-08
3.06915e-07
-1.20525e-07
3.58196e-07
-1.66555e-07
4.1385e-07
-2.15818e-07
4.76874e-07
-2.64138e-07
5.30496e-07
-2.92954e-07
-2.77837e-07
5.2302e-07
1.36223e-07
1.84423e-08
-1.13665e-07
1.65562e-07
-2.51455e-08
2.03013e-07
-7.29766e-08
2.48829e-07
-1.23019e-07
3.02252e-07
-1.75414e-07
3.63109e-07
-2.29601e-07
4.26547e-07
-2.81001e-07
4.34417e-07
-2.75206e-07
4.55116e-07
-3.04096e-07
-3.64837e-07
5.12234e-07
1.06759e-07
-7.13927e-09
-8.1185e-08
1.42172e-07
-6.05634e-08
1.86618e-07
-1.17426e-07
2.40166e-07
-1.76551e-07
3.00806e-07
-2.35882e-07
3.45962e-07
-2.6559e-07
3.68367e-07
-2.76655e-07
4.24138e-07
-3.44031e-07
5.06658e-07
-4.09633e-07
-5.17976e-07
6.33029e-07
7.44221e-08
-3.49021e-08
-4.56793e-08
1.15849e-07
-1.01942e-07
1.66618e-07
-1.6818e-07
2.25418e-07
-2.3518e-07
2.51856e-07
-2.60155e-07
3.03633e-07
-2.86868e-07
3.85731e-07
-3.62148e-07
5.09189e-07
-4.71214e-07
6.89773e-07
-6.18421e-07
-7.24017e-07
8.43605e-07
4.49374e-08
-6.87818e-08
-8.41611e-09
8.87043e-08
-1.45642e-07
1.35994e-07
-2.07465e-07
1.55698e-07
-1.86697e-07
2.23157e-07
-3.25688e-07
3.4576e-07
-4.03454e-07
5.36203e-07
-5.74831e-07
6.70282e-07
-7.00077e-07
8.22575e-07
-7.7719e-07
-8.29637e-07
9.28148e-07
1.32584e-08
-1.01103e-07
1.2028e-08
4.86297e-08
-1.57116e-07
9.35925e-08
-1.42356e-07
1.57024e-07
-2.61581e-07
3.11141e-07
-4.54974e-07
5.09174e-07
-6.51259e-07
6.37702e-07
-7.51508e-07
7.51406e-07
-8.13902e-07
8.41645e-07
-8.67439e-07
-9.11864e-07
9.23889e-07
-2.39983e-08
-1.12781e-07
4.4504e-08
2.59702e-08
-7.94263e-08
9.27698e-08
-2.48962e-07
2.83121e-07
-5.30821e-07
4.31859e-07
-6.95623e-07
5.61554e-07
-7.81253e-07
6.55358e-07
-8.45333e-07
7.42748e-07
-9.0134e-07
8.24401e-07
-9.49092e-07
-9.86659e-07
8.99196e-07
-3.46167e-09
-4.62538e-08
2.90764e-08
4.13323e-08
-1.10091e-07
2.31806e-07
-4.88386e-07
3.68438e-07
-7.12012e-07
4.69743e-07
-7.97174e-07
5.56014e-07
-8.67549e-07
6.3927e-07
-9.28583e-07
7.18723e-07
-9.80791e-07
7.92119e-07
-1.02249e-06
-1.0517e-06
8.57164e-07
1.13742e-08
-2.97578e-08
1.57206e-08
1.17638e-07
-2.3109e-07
2.91311e-07
-6.90248e-07
3.80358e-07
-8.01185e-07
4.61183e-07
-8.77999e-07
5.38664e-07
-9.4502e-07
6.13136e-07
-1.00305e-06
6.8272e-07
-1.05038e-06
7.45083e-07
-1.08485e-06
-1.10462e-06
7.97995e-07
1.61093e-08
-3.2431e-08
1.6006e-08
1.9636e-07
-3.99432e-07
2.95549e-07
-7.88648e-07
3.73034e-07
-8.78639e-07
4.44533e-07
-9.49493e-07
5.12431e-07
-1.01292e-06
5.76295e-07
-1.06692e-06
6.34207e-07
-1.10829e-06
6.8393e-07
-1.13457e-06
-1.14422e-06
7.23537e-07
2.58069e-08
-3.31388e-08
3.40326e-09
2.30379e-07
-5.34095e-07
3.02619e-07
-8.60205e-07
3.64494e-07
-9.40396e-07
4.22851e-07
-1.00785e-06
4.78751e-07
-1.06882e-06
5.30643e-07
-1.11881e-06
5.75881e-07
-1.15352e-06
6.12105e-07
-1.1708e-06
-1.17002e-06
6.37905e-07
6.61504e-08
-6.30198e-08
-3.06518e-09
2.46756e-07
-6.56297e-07
2.98396e-07
-9.1144e-07
3.45141e-07
-9.87058e-07
3.91742e-07
-1.05445e-06
4.37258e-07
-1.11433e-06
4.78526e-07
-1.16008e-06
5.12275e-07
-1.18727e-06
5.36238e-07
-1.19476e-06
-1.18327e-06
5.49485e-07
8.99215e-08
-1.13709e-07
-5.03636e-10
2.26893e-07
-7.67183e-07
2.70952e-07
-9.55389e-07
3.11472e-07
-1.02756e-06
3.52064e-07
-1.09504e-06
3.90806e-07
-1.15307e-06
4.2395e-07
-1.19322e-06
4.48613e-07
-1.21194e-06
4.63479e-07
-1.20963e-06
-1.18843e-06
4.68638e-07
1.05239e-07
-2.03356e-07
-6.64027e-10
2.06617e-07
-8.63618e-07
2.42143e-07
-9.9091e-07
2.77177e-07
-1.06259e-06
3.13217e-07
-1.13108e-06
3.46578e-07
-1.18644e-06
3.7297e-07
-1.21961e-06
3.90156e-07
-1.22912e-06
3.97546e-07
-1.21702e-06
-1.1859e-06
3.9502e-07
1.17834e-07
-3.18137e-07
-1.52153e-09
1.80202e-07
-9.25287e-07
2.10539e-07
-1.02125e-06
2.43667e-07
-1.09572e-06
2.7799e-07
-1.1654e-06
3.08335e-07
-1.21678e-06
3.30943e-07
-1.24222e-06
3.45095e-07
-1.24327e-06
3.51161e-07
-1.22308e-06
-1.18333e-06
3.48589e-07
1.19501e-07
-4.15211e-07
-4.42496e-09
1.5535e-07
-9.58581e-07
1.83357e-07
-1.04925e-06
2.15834e-07
-1.12819e-06
2.48596e-07
-1.19816e-06
2.75875e-07
-1.24406e-06
2.95617e-07
-1.26196e-06
3.09313e-07
-1.25697e-06
3.19046e-07
-1.23282e-06
-1.19015e-06
3.25871e-07
1.07773e-07
-4.72741e-07
-1.04526e-08
1.35044e-07
-9.83317e-07
1.63807e-07
-1.078e-06
1.95549e-07
-1.15993e-06
2.25307e-07
-1.22792e-06
2.47802e-07
-1.26655e-06
2.63032e-07
-1.27719e-06
2.73801e-07
-1.26774e-06
2.8212e-07
-1.24114e-06
-1.19447e-06
2.86433e-07
1.02439e-07
-5.09575e-07
-1.19773e-08
1.28092e-07
-1.0073e-06
1.55693e-07
-1.10558e-06
1.84277e-07
-1.18852e-06
2.09169e-07
-1.25281e-06
2.26267e-07
-1.28365e-06
2.37755e-07
-1.28868e-06
2.47433e-07
-1.27742e-06
2.57411e-07
-1.25111e-06
-1.19951e-06
2.62451e-07
1.03514e-07
-5.41733e-07
-1.19861e-08
1.27497e-07
-1.03028e-06
1.51914e-07
-1.12999e-06
1.76119e-07
-1.21272e-06
1.95369e-07
-1.27206e-06
2.072e-07
-1.29548e-06
2.15727e-07
-1.29721e-06
2.2537e-07
-1.28706e-06
2.38985e-07
-1.26473e-06
-1.20429e-06
2.43767e-07
9.89342e-08
-5.71438e-07
-7.79741e-09
1.22272e-07
-1.05317e-06
1.44282e-07
-1.15199e-06
1.64969e-07
-1.23341e-06
1.78706e-07
-1.2858e-06
1.85542e-07
-1.30232e-06
1.90832e-07
-1.3025e-06
1.98903e-07
-1.29513e-06
2.13503e-07
-1.27933e-06
-1.1933e-06
2.02533e-07
8.8216e-08
-6.008e-07
-3.63001e-09
1.11056e-07
-1.0759e-06
1.31664e-07
-1.17259e-06
1.49573e-07
-1.25132e-06
1.5789e-07
-1.29412e-06
1.60094e-07
-1.30452e-06
1.6151e-07
-1.30391e-06
1.65289e-07
-1.29891e-06
1.74802e-07
-1.28884e-06
-1.16059e-06
1.30722e-07
7.45306e-08
-6.4597e-07
-2.06456e-10
9.62567e-08
-1.09758e-06
1.16074e-07
-1.19241e-06
1.31121e-07
-1.26636e-06
1.34232e-07
-1.29723e-06
1.32787e-07
-1.30308e-06
1.31004e-07
-1.30213e-06
1.30717e-07
-1.29863e-06
1.34301e-07
-1.29242e-06
-1.11113e-06
7.76466e-08
6.00833e-08
-7.21105e-07
-2.57467e-10
7.9528e-08
-1.11702e-06
9.94351e-08
-1.21231e-06
1.10893e-07
-1.27782e-06
1.09189e-07
-1.29552e-06
1.04844e-07
-1.29873e-06
1.00205e-07
-1.29749e-06
9.59035e-08
-1.29432e-06
9.32646e-08
-1.28979e-06
-1.06736e-06
4.42158e-08
4.44319e-08
-7.89583e-07
-4.49932e-10
6.3733e-08
-1.13631e-06
8.45625e-08
-1.23314e-06
9.0966e-08
-1.28422e-06
8.52027e-08
-1.28976e-06
7.86968e-08
-1.29223e-06
7.18485e-08
-1.29064e-06
6.42123e-08
-1.28669e-06
5.65097e-08
-1.28208e-06
-1.03531e-06
2.1555e-08
4.38648e-08
-8.37113e-07
-2.32669e-09
5.57986e-08
-1.14824e-06
7.29528e-08
-1.2503e-06
7.21996e-08
-1.28347e-06
6.35298e-08
-1.28109e-06
5.57193e-08
-1.28442e-06
4.78582e-08
-1.28278e-06
3.83072e-08
-1.27714e-06
2.7276e-08
-1.27105e-06
-1.01673e-06
6.96239e-09
1.52946e-08
-8.69146e-07
2.72356e-10
3.77807e-08
-1.17073e-06
5.68365e-08
-1.26935e-06
5.29773e-08
-1.27961e-06
4.42005e-08
-1.27231e-06
3.61282e-08
-1.27634e-06
2.86572e-08
-1.27531e-06
1.87264e-08
-1.26721e-06
5.48497e-09
-1.25798e-06
-1.01339e-06
1.00161e-27
5.95425e-09
-8.94357e-07
4.90279e-09
3.11038e-08
-1.19588e-06
4.55404e-08
-1.28379e-06
3.84896e-08
-1.27256e-06
2.968e-08
-1.2635e-06
2.09659e-08
-1.26763e-06
1.44911e-08
-1.26884e-06
5.63145e-09
-1.25835e-06
-8.2723e-09
-1.24405e-06
-1.02391e-06
-1.38649e-37
6.00423e-09
-9.1088e-07
2.62362e-10
3.08331e-08
-1.22071e-06
3.78205e-08
-1.29078e-06
2.85664e-08
-1.26331e-06
1.96768e-08
-1.25461e-06
1.00836e-08
-1.25804e-06
4.32961e-09
-1.26308e-06
-1.09921e-09
-1.25292e-06
-1.46695e-08
-1.23054e-06
-1.04023e-06
-1.9184e-37
6.15481e-09
-9.23265e-07
-6.60049e-11
3.19135e-08
-1.24647e-06
3.20664e-08
-1.29093e-06
2.13346e-08
-1.25258e-06
1.19183e-08
-1.2452e-06
1.43639e-09
-1.24755e-06
-4.99464e-09
-1.25665e-06
-2.9255e-09
-1.25499e-06
-1.06808e-08
-1.22281e-06
-1.05288e-06
-3.39099e-39
3.3826e-09
-9.29228e-07
-3.02965e-10
3.1645e-08
-1.27473e-06
2.65483e-08
-1.28583e-06
1.55716e-08
-1.2416e-06
6.3609e-09
-1.23599e-06
-3.93899e-09
-1.23725e-06
-1.53588e-08
-1.24523e-06
-6.97908e-09
-1.26337e-06
7.34384e-09
-1.23713e-06
-1.04723e-06
3.69687e-56
-1.02661e-08
8.96996e-110
2.63694e-08
1.98234e-08
1.18882e-08
5.44202e-09
-1.95382e-09