/*--------------------------------*- C++ -*----------------------------------*\
  =========                 |
  \\      /  F ield         | OpenFOAM: The Open Source CFD Toolbox
   \\    /   O peration     | Website:  https://openfoam.org
    \\  /    A nd           | Version:  8
     \\/     M anipulation  |
\*---------------------------------------------------------------------------*/
FoamFile
{
    version     2.0;
    format      ascii;
    class       volScalarField;
    location    "4.45";
    object      epsilon;
}
// * * * * * * * * * * * * * * * * * * * * * * * * * * * * * * * * * * * * * //

dimensions      [0 2 -3 0 0 0 0];

internalField   nonuniform List<scalar> 
9150
(
0.0313133
0.0124369
0.00309704
0.000936517
0.000440813
0.000440552
0.000935815
0.00309495
0.012433
0.0313141
0.0302216
0.00874506
0.00172971
0.000600544
0.000331329
0.000331186
0.000600206
0.0017285
0.00874199
0.0302217
0.0284246
0.00694218
0.00111501
0.000491463
0.000295989
0.00029589
0.000491282
0.00111438
0.00693971
0.0284245
0.0264921
0.00600193
0.000834901
0.00045863
0.00028506
0.000284977
0.000458506
0.000834594
0.00599991
0.0264919
0.0244895
0.00559742
0.000695725
0.000451353
0.000283228
0.000283151
0.000451247
0.000695583
0.00559563
0.0244892
0.123366
0.0519547
0.0222688
0.0134965
0.00958168
0.00959824
0.0135478
0.0223887
0.0522547
0.123465
0.0761026
0.0229437
0.0130015
0.00859697
0.00595148
0.00595719
0.00861652
0.0130447
0.022979
0.0760988
0.0553397
0.0178405
0.00755941
0.00448799
0.00291726
0.00291844
0.00449335
0.00756986
0.0178432
0.055334
0.0424944
0.0151982
0.00476044
0.00226762
0.00132286
0.00132278
0.00226809
0.00476106
0.0151928
0.0424919
0.0356063
0.0136926
0.00350389
0.00128945
0.000668967
0.000668694
0.00128885
0.00350212
0.0136869
0.0356054
0.635534
0.15131
0.0480875
0.021022
0.0123388
0.0121247
0.0202799
0.0480314
0.17368
1.59692
0.273238
0.124275
0.0463981
0.0206566
0.0123687
0.0122313
0.0201993
0.0449068
0.115183
0.280521
0.234014
0.10528
0.0448812
0.0202664
0.0124051
0.012349
0.0201102
0.0444554
0.102224
0.235579
0.196385
0.0916387
0.0439997
0.0199686
0.0124603
0.012453
0.0199433
0.043921
0.0914045
0.196977
0.15589
0.0859223
0.0402562
0.0187488
0.0120832
0.0121017
0.0188016
0.0403903
0.0864506
0.156109
0.00786291
0.00776063
0.00765668
0.00755076
0.00744268
0.00733226
0.00721935
0.00710387
0.00698578
0.00686486
0.00414379
0.00411501
0.00408431
0.00405163
0.00401685
0.00397992
0.00394076
0.00389933
0.00385552
0.0038092
0.00356767
0.00355298
0.00353665
0.00351852
0.00349846
0.00347635
0.00345209
0.0034256
0.00339681
0.00336566
0.00348286
0.0034729
0.00346144
0.0034483
0.00343329
0.00341628
0.00339715
0.00337579
0.00335212
0.0033261
0.00357921
0.00357115
0.00356159
0.00355034
0.00353719
0.00352198
0.00350456
0.00348482
0.00346267
0.00343808
0.00378318
0.00377602
0.00376726
0.00375666
0.00374401
0.00372909
0.00371175
0.00369187
0.00366938
0.00364425
0.00407532
0.00406903
0.0040609
0.00405064
0.00403797
0.00402267
0.00400456
0.00398354
0.00395958
0.00393271
0.00445798
0.00445336
0.0044465
0.00443698
0.00442447
0.00440868
0.00438946
0.00436675
0.00434066
0.00431129
0.00494852
0.00494741
0.00494342
0.00493594
0.00492451
0.00490881
0.00488868
0.00486423
0.00483584
0.00480391
0.00557969
0.00558545
0.00558742
0.00558466
0.00557655
0.00556274
0.00554304
0.00551776
0.00548787
0.00545438
0.00640349
0.00642188
0.00643538
0.00644204
0.00644132
0.00643332
0.00641751
0.00639422
0.00636554
0.00633366
0.00749726
0.00753746
0.0075721
0.00759588
0.00760876
0.00761355
0.00760966
0.00759643
0.00757716
0.00755574
0.0089723
0.00904714
0.00911874
0.00917498
0.00921434
0.00924579
0.00927093
0.0092874
0.00929769
0.00930657
0.010986
0.0111148
0.0112469
0.0113674
0.0114671
0.0115578
0.0116428
0.0117209
0.0117937
0.011866
0.0137739
0.0139967
0.0142292
0.0144559
0.0146651
0.0148651
0.0150605
0.0152503
0.0154346
0.0156171
0.0176502
0.0180223
0.0184072
0.0187931
0.0191697
0.0195409
0.0199128
0.0202842
0.0206517
0.0210172
0.0229633
0.0235361
0.0241221
0.0247193
0.0253242
0.025941
0.0265782
0.0272331
0.0278896
0.0285458
0.0299628
0.0307879
0.031624
0.0324895
0.0333932
0.0343476
0.0353671
0.036451
0.0375688
0.0386974
0.0387298
0.0398329
0.0409607
0.0421561
0.043455
0.0448844
0.0464669
0.048186
0.0499826
0.0518031
0.0491541
0.0505433
0.0519934
0.0535795
0.0553688
0.0574157
0.0597477
0.062303
0.0649354
0.0675416
0.0609834
0.0626608
0.0644611
0.0664654
0.0687754
0.0714934
0.0746833
0.0782088
0.0816872
0.0849309
0.0738986
0.0758775
0.0780342
0.0804275
0.0831222
0.0862955
0.0901765
0.0946133
0.0989146
0.102705
0.0871156
0.0893935
0.0918994
0.0946399
0.0974846
0.10059
0.10439
0.109053
0.114185
0.119026
0.0994917
0.101842
0.10442
0.107275
0.110244
0.113351
0.117178
0.121982
0.127437
0.132981
0.110347
0.112684
0.11517
0.117926
0.121089
0.124654
0.128937
0.134012
0.139646
0.145676
0.119571
0.121891
0.124682
0.127996
0.131812
0.136038
0.140795
0.146208
0.152139
0.158516
0.128427
0.131205
0.134581
0.13855
0.142987
0.147835
0.153105
0.158877
0.16515
0.171915
0.137416
0.140833
0.144764
0.149297
0.154331
0.159805
0.165707
0.172077
0.178971
0.186458
0.146113
0.150248
0.154894
0.160089
0.165815
0.172049
0.178792
0.186075
0.193959
0.202523
0.15456
0.159534
0.165028
0.171074
0.177686
0.184878
0.192674
0.201113
0.210251
0.220157
0.162773
0.16868
0.175142
0.182198
0.189884
0.198233
0.207283
0.217082
0.227684
0.239151
0.17069
0.177589
0.185105
0.193287
0.202181
0.211836
0.222298
0.233619
0.245853
0.259061
0.178211
0.186119
0.194724
0.204086
0.214261
0.225304
0.237271
0.250216
0.264195
0.279263
0.185194
0.194081
0.203759
0.214297
0.22576
0.238212
0.251711
0.266316
0.282082
0.29906
0.191459
0.201261
0.211957
0.223624
0.236336
0.250162
0.265167
0.281412
0.298952
0.317835
0.196846
0.207485
0.219124
0.231848
0.245741
0.260879
0.277335
0.295175
0.314456
0.335225
0.201292
0.212689
0.225193
0.2389
0.253903
0.270292
0.288151
0.307557
0.328578
0.35127
0.204866
0.21696
0.230271
0.244908
0.26098
0.278594
0.297856
0.318866
0.341718
0.366495
0.207781
0.220547
0.234649
0.250215
0.267379
0.286276
0.307047
0.329833
0.354778
0.382023
0.21036
0.223831
0.23878
0.255362
0.273749
0.294126
0.316691
0.341657
0.36925
0.399709
0.213
0.227289
0.243236
0.261043
0.28094
0.303189
0.328083
0.355951
0.387157
0.422097
0.216122
0.231441
0.248661
0.268057
0.289949
0.314718
0.342806
0.374725
0.411059
0.452462
0.220134
0.23681
0.25573
0.277269
0.301888
0.330148
0.362721
0.400405
0.444126
0.494939
0.225413
0.243909
0.265123
0.289581
0.317951
0.351064
0.389944
0.435824
0.490156
0.554597
0.232312
0.253229
0.277515
0.305911
0.339381
0.379161
0.426791
0.484151
0.553467
0.636688
0.241154
0.26523
0.293544
0.32714
0.367403
0.416135
0.475594
0.548552
0.638023
0.746887
0.252212
0.280293
0.313731
0.353977
0.40299
0.463335
0.538253
0.631786
0.747178
0.888058
0.26568
0.298656
0.338342
0.386704
0.446457
0.521194
0.615432
0.7336
0.880436
1.06058
0.28157
0.320279
0.367178
0.424876
0.49707
0.588463
0.704607
0.851273
1.03464
1.26027
0.299501
0.344561
0.399224
0.466825
0.55212
0.661084
0.800693
0.978292
1.2015
1.47696
0.31861
0.369932
0.43169
0.508498
0.606424
0.732499
0.89495
1.10301
1.36604
1.69229
0.335794
0.392679
0.460612
0.545067
0.653279
0.793193
0.974129
1.20736
1.50452
1.87637
0.349861
0.410467
0.482633
0.571263
0.683646
0.828559
1.01699
1.26145
1.57571
1.97324
0.360127
0.421985
0.494308
0.58027
0.686293
0.822316
1.00006
1.23213
1.53227
1.91463
0.364231
0.424797
0.492477
0.56669
0.655132
0.768255
0.915891
1.10935
1.35954
1.67632
0.361137
0.417523
0.476379
0.533843
0.599633
0.682989
0.790956
0.932016
1.11513
1.34657
0.353124
0.401578
0.449496
0.490816
0.53542
0.590882
0.662393
0.755591
0.876122
1.02894
0.342109
0.381504
0.416605
0.444334
0.473197
0.508795
0.554873
0.615021
0.692684
0.79091
0.327138
0.359567
0.385052
0.403236
0.422452
0.446624
0.478339
0.520029
0.574078
0.642763
0.314548
0.344063
0.362959
0.374878
0.3886
0.407029
0.43215
0.465911
0.51037
0.567697
0.310276
0.337411
0.350357
0.358745
0.370284
0.387351
0.411756
0.445462
0.49074
0.550245
0.308978
0.3306
0.340125
0.349156
0.362951
0.383624
0.413231
0.454275
0.509891
0.58352
0.307551
0.322814
0.332724
0.346238
0.366673
0.39614
0.437375
0.494016
0.570736
0.67137
0.303635
0.316498
0.331597
0.353789
0.385651
0.430032
0.491064
0.574494
0.685238
0.828337
0.299951
0.318308
0.343727
0.379553
0.429192
0.497074
0.589936
0.714791
0.877051
1.08119
0.307642
0.338312
0.379919
0.437149
0.515233
0.621525
0.765717
0.953699
1.18952
1.47475
0.336333
0.386411
0.454406
0.547527
0.674992
0.848721
1.07349
1.35183
1.68362
2.06743
0.395645
0.477268
0.589819
0.745983
0.961031
1.23734
1.57464
1.9693
2.41612
2.90614
0.504581
0.643015
0.836215
1.10318
1.44395
1.85509
2.3302
2.85786
3.41979
3.99476
0.697946
0.938125
1.27107
1.69208
2.19832
2.77485
3.39671
4.03677
4.6669
5.25211
1.03637
1.44222
1.96496
2.58892
3.28663
4.02002
4.74929
5.43386
6.01794
6.4243
1.61718
2.26125
3.02396
3.86542
4.73327
5.56593
6.2944
6.83727
7.0977
7.05913
2.55867
3.49031
4.51728
5.57146
6.55323
7.32008
7.74221
7.77585
7.50923
7.07309
3.92895
5.18709
6.50853
7.7331
8.57333
8.79279
8.51258
7.97291
7.36212
6.78884
5.7373
7.45817
9.13308
10.1504
10.086
9.36178
8.49662
7.69283
7.00328
6.44409
8.1808
10.6376
12.1725
11.7796
10.4989
9.22591
8.14803
7.27557
6.60654
6.13731
11.6528
14.641
14.2679
12.2614
10.4098
8.89297
7.7024
6.8243
6.24648
5.94726
17.1274
18.3629
15.2929
12.4463
10.1947
8.46345
7.20677
6.39633
5.99724
5.95555
22.8517
20.3529
15.9419
12.4362
9.82289
7.93716
6.69793
6.04967
5.9244
6.22791
28.3961
22.0262
16.3326
12.222
9.31417
7.35395
6.22224
5.83202
6.07522
6.80989
34.3212
23.5711
16.4833
11.812
8.69058
6.74086
5.80884
5.77222
6.4775
7.72955
34.8719
23.3155
15.904
11.0849
7.93294
6.10636
5.47089
5.88025
7.14017
9.00252
33.4368
22.3161
15.0471
10.2413
7.12817
5.48805
5.2193
6.15053
8.05673
10.6443
32.5114
21.4451
14.2223
9.39746
6.31956
4.89922
5.04416
6.55671
9.20799
12.6815
31.543
20.6696
13.4699
8.57737
5.51582
4.3348
4.91525
7.04946
10.5626
15.1719
30.6867
20.1112
12.8402
7.79703
4.72561
3.78866
4.79105
7.55542
12.0607
18.1838
30.6047
19.9372
12.3568
7.05359
3.95508
3.25502
4.62231
7.96688
13.5512
21.6289
31.299
20.0277
11.9158
6.29075
3.19596
2.72691
4.36118
8.15471
14.7811
25.1788
32.4734
20.1466
11.3653
5.44419
2.45141
2.20892
3.97649
7.98906
15.3853
28.0783
33.8861
20.1203
10.6046
4.50014
1.75571
1.72069
3.46684
7.38216
14.953
29.0568
35.2403
19.7991
9.57551
3.49487
1.15707
1.2864
2.87142
6.36929
13.2924
26.7391
36.3365
19.0526
8.25477
2.50127
0.692817
0.923425
2.26195
5.15636
10.8712
21.8859
36.6788
17.7213
6.67669
1.61662
0.374411
0.635625
1.70068
3.96753
8.41603
16.8974
36.3156
15.8167
4.97052
0.925278
0.183251
0.416368
1.21949
2.91156
6.20723
12.4408
33.8569
12.9898
3.26275
0.456852
0.0829843
0.255411
0.830313
2.03759
4.35608
8.69336
30.7074
9.89259
1.89493
0.203492
0.0378102
0.14295
0.531505
1.3593
2.91025
5.72545
25.9829
6.62843
0.94333
0.087381
0.0199888
0.0708494
0.31295
0.860609
1.85201
3.56191
18.9026
3.6127
0.395804
0.0419505
0.0141354
0.0315732
0.162505
0.509692
1.1227
2.06402
10.6813
1.48092
0.149697
0.0265218
0.0126429
0.0159046
0.0699528
0.272451
0.666556
1.12486
1.56679
0.39498
0.0658209
0.0220607
0.0123559
0.0123422
0.0279868
0.119047
0.408849
0.759597
0.00673076
0.00659235
0.00645157
0.0063089
0.00616473
0.00601934
0.00587289
0.0057254
0.0055768
0.005427
0.00527569
0.00512247
0.00496699
0.00480904
0.0046486
0.0044859
0.00432142
0.00415588
0.00399015
0.00382674
0.000885729
0.00375186
0.00374051
0.00374692
0.00374059
0.000884249
0.000885189
0.00374944
0.000885152
0.0037406
0.000884713
0.000883237
0.000886093
0.000877328
0.000836894
0.000768191
0.000675668
0.000563213
0.000435381
0.000761277
0.00375697
0.00370056
0.00364161
0.00358022
0.00351653
0.00345069
0.00338284
0.00331312
0.00324165
0.00316845
0.00309361
0.00301718
0.00293917
0.00285965
0.00277869
0.00269641
0.00261295
0.00252846
0.00244277
0.00235381
0.00224382
0.00214942
0.00205733
0.00196558
0.00187666
0.00178086
0.00169172
0.00160572
0.00150811
0.00141729
0.00130817
0.00120722
0.0010878
0.000976718
0.000887677
0.000809838
0.000741327
0.000695094
0.000723079
0.00116482
0.00332999
0.00329008
0.00324746
0.00320221
0.0031544
0.00310416
0.00305161
0.00299688
0.00294009
0.00288133
0.00282072
0.00275834
0.00269429
0.00262869
0.00256164
0.0024933
0.0024238
0.00235327
0.0022817
0.00220877
0.00213357
0.00205689
0.00197996
0.00190314
0.00182617
0.00174876
0.00167073
0.00159197
0.00151167
0.0014298
0.00134646
0.00126202
0.00117708
0.00109477
0.0010215
0.000960928
0.000920095
0.000919068
0.00102955
0.00173823
0.00329593
0.00326142
0.00322405
0.00318387
0.00314094
0.00309538
0.0030473
0.00299683
0.00294408
0.00288917
0.00283221
0.00277329
0.00271254
0.00265006
0.00258601
0.00252053
0.00245379
0.00238595
0.00231714
0.00224744
0.00217685
0.00210546
0.00203354
0.00196124
0.0018885
0.00181517
0.00174106
0.00166599
0.00158975
0.00151243
0.00143461
0.00135752
0.0012831
0.00121455
0.00115687
0.00111684
0.00110544
0.00114784
0.00134237
0.00231607
0.00340932
0.00337599
0.00333962
0.00330023
0.00325792
0.00321278
0.00316494
0.00311453
0.00306167
0.00300647
0.00294901
0.00288939
0.00282769
0.00276404
0.00269856
0.00263141
0.00256278
0.00249292
0.00242205
0.00235045
0.00227833
0.00220594
0.00213353
0.00206129
0.00198921
0.00191708
0.00184453
0.00177112
0.00169648
0.00162062
0.00154427
0.00146911
0.00139779
0.00133439
0.00128505
0.00125882
0.00127094
0.00135503
0.0016243
0.00285706
0.00361474
0.00358029
0.00354255
0.00350157
0.00345745
0.00341031
0.00336031
0.00330756
0.00325218
0.00319426
0.00313386
0.00307101
0.00300578
0.00293822
0.00286845
0.00279661
0.00272293
0.00264771
0.00257133
0.0024942
0.0024168
0.00233964
0.00226327
0.00218817
0.00211451
0.00204204
0.00196998
0.00189723
0.00182279
0.00174636
0.00166873
0.00159186
0.00151892
0.00145481
0.00140649
0.00138357
0.00140617
0.00152189
0.00184115
0.00321642
0.00390109
0.00386404
0.0038234
0.00377926
0.00373174
0.00368099
0.00362715
0.00357042
0.00351087
0.00344853
0.0033834
0.00331544
0.00324463
0.00317096
0.0030945
0.00301536
0.00293377
0.0028501
0.00276487
0.00267867
0.00259227
0.00250663
0.00242284
0.00234193
0.00226453
0.00219039
0.00211801
0.00204495
0.00196897
0.00188945
0.0018076
0.00172597
0.00164836
0.00158097
0.00153142
0.00150982
0.00153738
0.00165755
0.00198939
0.00338776
0.00427673
0.00423623
0.00419181
0.00414357
0.00409171
0.00403645
0.00397794
0.00391628
0.00385148
0.00378348
0.00371218
0.00363747
0.00355921
0.00347732
0.00339176
0.0033026
0.00321006
0.00311454
0.00301667
0.00291728
0.00281754
0.002719
0.00262352
0.00253307
0.00244915
0.00237186
0.00229842
0.00222369
0.00214323
0.00205666
0.00196701
0.00187842
0.00179546
0.00172477
0.0016741
0.00165366
0.0016866
0.00181108
0.0021369
0.00352034
0.00476658
0.00472287
0.0046748
0.00462247
0.00456625
0.0045064
0.00444299
0.00437602
0.00430536
0.00423084
0.00415223
0.00406932
0.00398188
0.0038897
0.00379261
0.00369059
0.00358377
0.00347256
0.0033577
0.00324031
0.00312203
0.00300509
0.00289238
0.00278716
0.00269268
0.00261031
0.00253539
0.00245739
0.00236806
0.00226797
0.00216573
0.00206876
0.00198089
0.00190609
0.00185349
0.00183483
0.0018765
0.00202416
0.00239583
0.00367977
0.00541568
0.00537054
0.0053205
0.0052657
0.00520678
0.00514389
0.00507683
0.00500535
0.00492917
0.004848
0.00476156
0.00466958
0.00457172
0.00446763
0.00435691
0.00423934
0.00411491
0.00398399
0.00384745
0.00370675
0.00356388
0.00342161
0.00328406
0.00315666
0.00304505
0.00295331
0.00287551
0.00279185
0.0026849
0.00256048
0.00243905
0.00233222
0.00224138
0.00216665
0.00210977
0.00208355
0.00212674
0.00229411
0.00272869
0.00412648
0.00629765
0.00625606
0.00620927
0.00615737
0.00610104
0.00603976
0.00597278
0.0058996
0.00581991
0.00573354
0.00564036
0.00554016
0.0054325
0.00531676
0.00519219
0.00505819
0.00491457
0.00476171
0.00460085
0.00443193
0.00425716
0.00408092
0.00390977
0.00375165
0.00361548
0.00350663
0.00341894
0.00331895
0.00317492
0.00301355
0.00286222
0.00273247
0.0026227
0.00254032
0.00248122
0.0024405
0.00245969
0.00261635
0.00311693
0.00482152
0.00753234
0.00750563
0.00747462
0.0074381
0.00739562
0.00734537
0.00728593
0.00721705
0.00713902
0.00705238
0.00695763
0.0068549
0.00674353
0.00662235
0.0064901
0.00634587
0.00618967
0.00602266
0.0058407
0.00564404
0.00543648
0.00522481
0.00501883
0.00483121
0.00466722
0.00452739
0.00439337
0.00421794
0.004
0.00377799
0.00356449
0.00336145
0.00318197
0.00304604
0.00296499
0.00291458
0.00290957
0.00303676
0.00352962
0.00553002
0.00931614
0.00932499
0.00933066
0.00933103
0.00932268
0.00930052
0.0092622
0.00920943
0.0091448
0.00907072
0.00898933
0.00890136
0.00880553
0.00869942
0.00858112
0.00845031
0.00830946
0.00815276
0.00797597
0.00777888
0.00756495
0.00733971
0.00711038
0.00688307
0.00666302
0.00643345
0.00618
0.00587095
0.00551827
0.00515436
0.00478769
0.00443071
0.00410184
0.00382184
0.00360283
0.00345089
0.0033887
0.00348639
0.00396726
0.00609611
0.0119426
0.0120221
0.0120992
0.0121716
0.0122322
0.0122671
0.0122719
0.012256
0.0122282
0.0121952
0.0121623
0.01213
0.0120947
0.012051
0.0119958
0.0119314
0.0118596
0.0117689
0.0116599
0.0115351
0.011394
0.0112179
0.0109867
0.0107033
0.0103748
0.00998275
0.00950523
0.00893376
0.00829224
0.00760817
0.00691771
0.00624367
0.00561517
0.00505884
0.00459351
0.00423762
0.00401442
0.00400421
0.0044695
0.00661203
0.0158109
0.0160156
0.0162189
0.0164183
0.0166038
0.0167436
0.0168275
0.0168828
0.0169348
0.0169989
0.0170843
0.0171888
0.0173021
0.0174121
0.0175133
0.0176143
0.0176993
0.0177743
0.0178454
0.017906
0.0179265
0.0178668
0.0177023
0.0173993
0.016918
0.0162495
0.0153895
0.0143546
0.013184
0.0119289
0.0106385
0.00936753
0.00817664
0.00711634
0.00622089
0.00551272
0.00501754
0.00481353
0.00517429
0.00741053
0.0214056
0.0218197
0.0222346
0.0226471
0.0230404
0.0233619
0.0235827
0.0237615
0.023955
0.0242028
0.0245195
0.0248953
0.025304
0.0257173
0.0261213
0.0265088
0.0268783
0.0272764
0.0277331
0.0282264
0.0286707
0.0289419
0.0289159
0.0285115
0.0277173
0.0265874
0.0251703
0.0234803
0.0215241
0.0193445
0.0170295
0.0147074
0.0125137
0.0105588
0.00890966
0.00759564
0.00663382
0.00608523
0.0062163
0.00830199
0.0292495
0.0300139
0.0307789
0.0315479
0.0322727
0.0328631
0.0332861
0.0336374
0.0340376
0.0345795
0.0352887
0.0361419
0.0370875
0.038055
0.0389904
0.0398248
0.0406617
0.0416599
0.042906
0.0443332
0.0456955
0.0466283
0.0468027
0.0461213
0.0447459
0.0429314
0.0408248
0.0383524
0.0353569
0.0317996
0.0278368
0.0237466
0.0198278
0.0163259
0.013386
0.011057
0.0093371
0.00828121
0.00838908
0.00874593
0.0399133
0.0412413
0.0425537
0.0438247
0.0450015
0.0459481
0.0466172
0.0471664
0.0478403
0.0488217
0.0501551
0.051817
0.0537459
0.0557417
0.0575788
0.0591276
0.0607205
0.0627645
0.0654396
0.068558
0.0715176
0.0734751
0.0737881
0.0725364
0.0703392
0.0677976
0.0651585
0.0620346
0.0578672
0.0524289
0.045983
0.0390607
0.0322649
0.0261354
0.0210011
0.0169757
0.0140324
0.0121827
0.0119923
0.00881907
0.0537515
0.0558697
0.0578895
0.0597381
0.0613682
0.0626614
0.0636104
0.0644895
0.0656857
0.0674357
0.0698087
0.0728773
0.0766683
0.0806017
0.0839089
0.0864941
0.0892245
0.0929165
0.0977138
0.103146
0.108007
0.110864
0.111001
0.109314
0.106991
0.104576
0.102161
0.0987113
0.0933269
0.0856413
0.0759461
0.0649318
0.053586
0.0430982
0.0342314
0.0273116
0.0223261
0.0192351
0.0190452
0.0373759
0.0702728
0.0732526
0.0760879
0.0785547
0.080615
0.0822449
0.0835986
0.0851208
0.0873108
0.0903682
0.094293
0.0994788
0.10616
0.113111
0.118451
0.122492
0.12733
0.13383
0.141317
0.148414
0.153701
0.156263
0.156495
0.156489
0.157046
0.157327
0.156021
0.152117
0.145551
0.136098
0.123478
0.107782
0.0898963
0.0724946
0.0573354
0.0453584
0.0367975
0.0315303
0.0306923
0.0480681
0.0882822
0.092052
0.0957696
0.0989078
0.101391
0.103412
0.105334
0.107739
0.111213
0.115823
0.121413
0.128625
0.138197
0.148169
0.155454
0.162167
0.170801
0.180831
0.190266
0.19796
0.203135
0.206225
0.208797
0.212983
0.217789
0.221365
0.222781
0.220797
0.2154
0.206575
0.193802
0.175695
0.150361
0.123037
0.0972923
0.0763329
0.0612905
0.052149
0.0512423
0.0866378
0.106559
0.110988
0.115619
0.119699
0.122888
0.125575
0.128168
0.131419
0.136122
0.142438
0.149822
0.158371
0.169114
0.181189
0.1915
0.200638
0.210671
0.221431
0.23257
0.243353
0.253414
0.261816
0.268416
0.27459
0.280762
0.286859
0.291966
0.294103
0.292263
0.287052
0.279489
0.268308
0.247055
0.208461
0.163875
0.128071
0.101751
0.085173
0.0831088
0.152118
0.123703
0.128823
0.134338
0.139678
0.14411
0.147871
0.151549
0.155958
0.161806
0.169446
0.179006
0.190518
0.203825
0.21717
0.229041
0.240952
0.253817
0.267214
0.280986
0.294683
0.307873
0.319707
0.329874
0.339483
0.348862
0.357185
0.362746
0.364515
0.363303
0.361075
0.358871
0.356191
0.351546
0.335822
0.282425
0.216338
0.166265
0.134993
0.129976
0.250351
0.138592
0.144747
0.151295
0.157688
0.163257
0.16829
0.173524
0.179753
0.187723
0.197967
0.210748
0.225343
0.240302
0.255514
0.270748
0.286165
0.302054
0.318411
0.335122
0.351818
0.367892
0.382737
0.396361
0.409119
0.42074
0.430332
0.436718
0.439456
0.439303
0.437628
0.435242
0.432255
0.429526
0.429959
0.423289
0.362288
0.272187
0.204123
0.186522
0.381256
0.152163
0.159234
0.166483
0.173631
0.180335
0.187032
0.194389
0.202976
0.213334
0.225838
0.240566
0.257125
0.274794
0.293232
0.31218
0.331514
0.351324
0.371535
0.391937
0.412161
0.431733
0.4502
0.467299
0.482893
0.496673
0.508085
0.51649
0.521614
0.523723
0.52334
0.520808
0.516216
0.509711
0.502061
0.491837
0.465253
0.398005
0.29417
0.218277
0.353792
0.165473
0.173153
0.181215
0.18964
0.198157
0.207027
0.216808
0.227932
0.24078
0.255618
0.272521
0.291286
0.311492
0.332818
0.355173
0.378425
0.402368
0.426747
0.451241
0.475456
0.498945
0.52127
0.542067
0.561046
0.577909
0.592318
0.603983
0.612797
0.618868
0.622408
0.623539
0.622163
0.617869
0.609692
0.59546
0.570852
0.52891
0.450973
0.329229
0.316156
0.179416
0.188001
0.197324
0.207345
0.217926
0.229223
0.241601
0.255385
0.270865
0.288251
0.307626
0.328912
0.351898
0.376359
0.402176
0.429143
0.456988
0.485379
0.51393
0.542207
0.569753
0.596116
0.620893
0.643741
0.664385
0.68262
0.698354
0.711641
0.722673
0.731717
0.739012
0.744677
0.748591
0.750129
0.747587
0.737197
0.712217
0.658581
0.54061
0.404007
0.194892
0.204719
0.215524
0.227306
0.240025
0.253802
0.268866
0.28545
0.303767
0.323979
0.34617
0.370326
0.396334
0.424011
0.453269
0.483843
0.515434
0.547686
0.580193
0.612507
0.644153
0.674656
0.703575
0.73053
0.755237
0.777544
0.79746
0.815165
0.830983
0.845291
0.85844
0.870708
0.882334
0.893483
0.90392
0.912024
0.912281
0.888505
0.803689
0.655566
0.212201
0.223528
0.23598
0.249636
0.26454
0.280802
0.298577
0.318021
0.339283
0.362479
0.387676
0.414882
0.444028
0.474982
0.507655
0.541773
0.577029
0.61307
0.649494
0.685853
0.721665
0.756432
0.789667
0.82093
0.849882
0.876349
0.900379
0.922263
0.942477
0.961509
0.979649
0.996903
1.01321
1.02883
1.04461
1.06169
1.07977
1.09211
1.07711
0.988662
0.231321
0.244361
0.258694
0.274403
0.291586
0.310355
0.330827
0.353117
0.377327
0.403537
0.431796
0.462111
0.494439
0.528679
0.564693
0.602248
0.641065
0.680816
0.721122
0.761558
0.801654
0.840904
0.878778
0.914754
0.948383
0.979394
1.00781
1.03405
1.05883
1.08287
1.10632
1.12836
1.14774
1.16393
1.17799
1.19294
1.21389
1.24824
1.30867
1.36618
0.252044
0.267046
0.283476
0.301433
0.321023
0.342355
0.365528
0.390632
0.417743
0.446918
0.47819
0.511568
0.547022
0.584482
0.623724
0.664593
0.706868
0.75027
0.794467
0.839079
0.883677
0.927779
0.970839
1.01225
1.05142
1.08789
1.12159
1.15303
1.18334
1.21381
1.24445
1.27284
1.2954
1.31035
1.3191
1.32672
1.34322
1.38883
1.51778
1.83294
0.273885
0.291064
0.309798
0.33018
0.352309
0.376281
0.402181
0.43008
0.460034
0.492085
0.526262
0.562575
0.601015
0.641546
0.683881
0.727976
0.773695
0.820831
0.869115
0.918225
0.967793
1.01739
1.06651
1.11446
1.16043
1.20367
1.24402
1.28221
1.31974
1.35901
1.40036
1.43758
1.46304
1.47384
1.47274
1.46784
1.47393
1.52186
1.70569
2.36214
0.296158
0.315664
0.336847
0.359783
0.384553
0.411233
0.439889
0.470569
0.50331
0.538142
0.575094
0.614199
0.655496
0.698752
0.744007
0.791304
0.840609
0.891812
0.944741
0.999156
1.05473
1.11107
1.16774
1.22397
1.27841
1.32956
1.37719
1.42314
1.4702
1.52009
1.57826
1.62935
1.65559
1.65708
1.63945
1.61515
1.60459
1.64814
1.87491
2.91678
0.318093
0.339997
0.363696
0.389248
0.416713
0.446146
0.477585
0.511052
0.546555
0.584104
0.623725
0.66549
0.709201
0.754978
0.803046
0.853596
0.906736
0.962489
1.02086
1.08184
1.14518
1.21026
1.27701
1.3451
1.41097
1.47025
1.52305
1.57425
1.63083
1.69624
1.76049
1.85218
1.88146
1.86552
1.82197
1.76923
1.73399
1.76592
2.02455
3.46102
0.339016
0.36333
0.389562
0.417754
0.447953
0.4802
0.514508
0.550862
0.589231
0.629607
0.671934
0.716043
0.762115
0.810435
0.861392
0.91537
0.972611
1.03321
1.0974
1.16556
1.23795
1.31443
1.39394
1.47826
1.56469
1.63263
1.68358
1.73232
1.79041
1.86523
1.94402
2.05041
2.14632
2.10966
2.02628
1.93239
1.86222
1.87375
2.153
3.96651
0.358561
0.385313
0.414127
0.445036
0.478092
0.513344
0.550796
0.590381
0.632024
0.675449
0.720613
0.767653
0.816745
0.868246
0.922719
0.980755
1.04268
1.10847
1.17861
1.25389
1.33478
1.42241
1.51894
1.61848
1.72076
1.82517
1.86617
1.89874
1.94525
2.01505
2.10881
2.21213
2.38783
2.39365
2.25667
2.10374
1.9865
1.96874
2.25723
4.41155
0.376855
0.406214
0.437849
0.471778
0.508077
0.546839
0.588111
0.63172
0.677227
0.724504
0.773749
0.825177
0.8789
0.93523
0.994754
1.05821
1.12599
1.19799
1.27497
1.35774
1.44647
1.54226
1.64882
1.7701
1.8833
2.0175
2.08356
2.08005
2.0983
2.14912
2.23421
2.35284
2.54614
2.65498
2.50474
2.27585
2.1001
2.04638
2.33351
4.77659
0.394611
0.427034
0.462147
0.499966
0.540537
0.583969
0.630129
0.678842
0.729894
0.783064
0.838548
0.896632
0.957416
1.0211
1.08803
1.15884
1.23413
1.31417
1.3995
1.49035
1.58648
1.68892
1.80136
1.92961
2.08103
2.23918
2.28582
2.26018
2.25821
2.29312
2.36749
2.48779
2.66775
2.80737
2.70883
2.428
2.19253
2.10241
2.38009
5.04013
0.413243
0.449594
0.489396
0.532764
0.579661
0.629743
0.682835
0.739065
0.79844
0.860774
0.925773
0.993543
1.06431
1.13818
1.21546
1.29665
1.38218
1.47208
1.56673
1.66579
1.76865
1.87618
1.99215
2.12314
2.2782
2.42213
2.44392
2.42507
2.42328
2.45268
2.52325
2.64241
2.78544
2.86777
2.79553
2.52567
2.25005
2.1343
2.40021
5.18251
0.435075
0.476802
0.523126
0.57417
0.629739
0.689777
0.754132
0.822554
0.89483
0.97068
1.04978
1.13199
1.21724
1.30547
1.3967
1.49109
1.58877
1.68952
1.7934
1.89999
2.0079
2.11744
2.23177
2.35454
2.48746
2.60107
2.62556
2.61151
2.60803
2.63511
2.70317
2.79873
2.87236
2.88499
2.79305
2.53903
2.25981
2.13992
2.4037
5.20264
0.463352
0.512873
0.568633
0.630719
0.699245
0.774151
0.85524
0.942056
1.03407
1.13055
1.23069
1.33383
1.43945
1.54707
1.6563
1.76685
1.87845
1.99074
2.10358
2.21653
2.32859
2.43926
2.54928
2.65952
2.76815
2.84722
2.84867
2.82188
2.80662
2.81915
2.85844
2.88566
2.87736
2.81794
2.67876
2.44056
2.20847
2.11721
2.39792
5.13037
0.502329
0.563271
0.632821
0.711473
0.799423
0.896565
1.00246
1.11627
1.23693
1.3631
1.49315
1.62553
1.75901
1.89252
2.02489
2.15507
2.2823
2.40608
2.52613
2.6421
2.75319
2.85812
2.95494
3.04121
3.11157
3.14139
3.1102
3.05669
3.01363
2.98777
2.94746
2.86936
2.76434
2.63456
2.47225
2.28213
2.11744
2.07279
2.38487
5.06438
0.557403
0.634825
0.724656
0.82763
0.943914
1.07326
1.21487
1.36673
1.52721
1.69415
1.86508
2.03738
2.2085
2.37602
2.53773
2.69104
2.83448
2.96726
3.08904
3.19958
3.29823
3.38347
3.45255
3.50138
3.51837
3.48287
3.40627
3.31989
3.23459
3.1138
2.95675
2.79637
2.63604
2.47294
2.306
2.14527
2.02588
2.02183
2.3662
5.08074
0.634871
0.736018
0.854836
0.992472
1.14829
1.32153
1.5108
1.71389
1.928
2.1498
2.37545
2.60077
2.82137
3.03295
3.23086
3.41061
3.56974
3.70687
3.82157
3.91385
3.98357
4.03039
4.05501
4.05519
4.00969
3.90531
3.77092
3.62198
3.42623
3.19432
2.96876
2.75592
2.5547
2.3657
2.1928
2.04755
1.95719
1.98439
2.35984
5.18956
0.741945
0.876319
1.0345
1.21748
1.42501
1.65572
1.9073
2.17661
2.45973
2.75202
3.04807
3.34163
3.62586
3.89344
4.13522
4.34554
4.52024
4.65695
4.75519
4.81579
4.83998
4.83095
4.79634
4.73601
4.61441
4.41071
4.16734
3.88911
3.57684
3.269
2.98407
2.72378
2.48921
2.28319
2.11046
1.98076
1.91582
1.97219
2.38108
5.35054
0.885411
1.06212
1.27083
1.51206
1.78487
2.08704
2.41537
2.76579
3.13344
3.51248
3.89584
4.27485
4.6394
4.97494
5.27001
5.51793
5.71127
5.84593
5.92202
5.94139
5.9037
5.81418
5.70123
5.57211
5.32365
4.92978
4.51042
4.09016
3.68287
3.30571
2.96815
2.67231
2.41921
2.21001
2.04691
1.93708
1.8978
1.98325
2.42974
5.51657
1.06831
1.2983
1.56938
1.88125
2.23195
2.61826
3.03611
3.48073
3.94664
4.42758
4.91579
5.4
5.86321
6.28122
6.6368
6.91726
7.11756
7.23517
7.26978
7.22976
7.13091
6.96101
6.75555
6.44299
5.90652
5.29489
4.71767
4.18668
3.70394
3.27559
2.90591
2.59479
2.34104
2.14253
1.99878
1.91264
1.89936
2.01213
2.49064
5.6482
1.29136
1.58504
1.92945
2.32302
2.76236
3.24301
3.75998
4.30825
4.88307
5.4807
6.09714
6.71342
7.27781
7.75755
8.14152
8.42698
8.61594
8.70443
8.68054
8.52925
8.30417
8.06122
7.50439
6.78077
6.04005
5.33808
4.69486
4.11574
3.60386
3.16254
2.79293
2.49231
2.25785
2.08386
1.96652
1.90749
1.92114
2.06054
2.56933
5.79082
1.54931
1.91597
2.34362
2.82878
3.36603
3.9493
4.57307
5.23331
5.92499
6.64798
7.40718
8.16821
8.81238
9.31606
9.67969
9.92029
10.0619
10.0644
9.87713
9.73024
9.35178
8.44755
7.54918
6.69138
5.88635
5.14948
4.48944
3.90939
3.40994
2.99004
2.64975
2.38263
2.18178
2.04055
1.9546
1.92518
1.96659
2.1332
2.67517
5.98967
1.83009
2.27776
2.79803
3.38494
4.02987
4.72344
5.46066
6.24177
7.04648
7.83843
8.61191
9.31042
9.88221
10.2801
10.5087
10.6303
10.7125
10.8079
10.9902
10.5341
9.35547
8.26294
7.27455
6.37567
5.55965
4.83113
4.19403
3.64707
3.18745
2.81124
2.51362
2.28785
2.12616
2.02136
1.96895
1.97018
2.03987
2.23506
2.81637
6.26949
2.11217
2.64675
3.26894
3.96977
4.73397
5.53714
6.37468
7.18597
7.91666
8.55903
9.09613
9.55388
9.97351
10.3369
10.6478
10.9183
11.1416
11.1188
10.6247
9.66108
8.59611
7.60557
6.69426
5.86208
5.112
4.4476
3.87106
3.38139
2.97525
2.6496
2.39987
2.21895
2.09867