/*--------------------------------*- C++ -*----------------------------------*\
  =========                 |
  \\      /  F ield         | OpenFOAM: The Open Source CFD Toolbox
   \\    /   O peration     | Website:  https://openfoam.org
    \\  /    A nd           | Version:  8
     \\/     M anipulation  |
\*---------------------------------------------------------------------------*/
FoamFile
{
    version     2.0;
    format      ascii;
    class       volScalarField;
    location    "4.45";
    object      nut;
}
// * * * * * * * * * * * * * * * * * * * * * * * * * * * * * * * * * * * * * //

dimensions      [0 2 -1 0 0 0 0];

internalField   nonuniform List<scalar> 
9150
(
9.60037e-06
6.40685e-06
6.57096e-06
8.72937e-06
7.52376e-06
7.52213e-06
8.73126e-06
6.57161e-06
6.40575e-06
9.60045e-06
9.48747e-06
5.7395e-06
8.27465e-06
9.8729e-06
7.00001e-06
6.99775e-06
9.87251e-06
8.27595e-06
5.73859e-06
9.48749e-06
9.29558e-06
5.50222e-06
1.07996e-05
1.02493e-05
6.65359e-06
6.6515e-06
1.02473e-05
1.08005e-05
5.50148e-06
9.29557e-06
9.07996e-06
5.42442e-06
1.34057e-05
1.02471e-05
6.46729e-06
6.46543e-06
1.02447e-05
1.34047e-05
5.42379e-06
9.07993e-06
8.84515e-06
5.40809e-06
1.56539e-05
1.01555e-05
6.37264e-06
6.3709e-06
1.01531e-05
1.56506e-05
5.40752e-06
8.84511e-06
5.90989e-06
1.12578e-05
1.38258e-05
1.73374e-05
1.64797e-05
1.6481e-05
1.73531e-05
1.38588e-05
1.12802e-05
5.91141e-06
6.27955e-06
8.85001e-06
1.13345e-05
1.52507e-05
1.42581e-05
1.42569e-05
1.52591e-05
1.13537e-05
8.85879e-06
6.27944e-06
6.82949e-06
7.89913e-06
9.36981e-06
1.3026e-05
1.19908e-05
1.19893e-05
1.30319e-05
9.37959e-06
7.90076e-06
6.82926e-06
7.38655e-06
7.29509e-06
7.96447e-06
1.11224e-05
1.00846e-05
1.00833e-05
1.11268e-05
7.96886e-06
7.29429e-06
7.3864e-06
8.07446e-06
6.84561e-06
7.04767e-06
9.62796e-06
8.55094e-06
8.54952e-06
9.63086e-06
7.04935e-06
6.84438e-06
8.07439e-06
1.03347e-05
1.20451e-05
1.22284e-05
1.53792e-05
1.72102e-05
1.73912e-05
1.59543e-05
1.45052e-05
2.08851e-05
1.41497e-05
7.84392e-06
1.07497e-05
1.22439e-05
1.55705e-05
1.73062e-05
1.74315e-05
1.59032e-05
1.25897e-05
1.08609e-05
7.91277e-06
7.44909e-06
1.01533e-05
1.23877e-05
1.57949e-05
1.74e-05
1.74806e-05
1.60183e-05
1.25765e-05
1.02073e-05
7.46513e-06
7.0261e-06
9.75989e-06
1.24653e-05
1.5975e-05
1.7469e-05
1.75232e-05
1.61185e-05
1.25781e-05
9.82859e-06
7.03289e-06
6.50548e-06
1.00209e-05
1.25068e-05
1.62116e-05
1.73783e-05
1.74061e-05
1.6282e-05
1.25673e-05
1.00773e-05
6.5084e-06
6.04586e-06
6.01949e-06
5.99257e-06
5.96483e-06
5.93626e-06
5.90676e-06
5.87629e-06
5.84479e-06
5.81222e-06
5.77847e-06
4.68387e-05
4.66615e-05
4.64844e-05
4.6305e-05
4.6122e-05
4.59331e-05
4.57367e-05
4.55319e-05
4.53184e-05
4.50968e-05
9.44524e-05
9.40906e-05
9.37031e-05
9.32889e-05
9.28471e-05
9.23762e-05
9.18756e-05
9.13452e-05
9.07857e-05
9.01982e-05
0.000136866
0.000136385
0.000135842
0.000135238
0.000134573
0.000133849
0.000133067
0.000132229
0.000131338
0.000130396
0.000173678
0.000173118
0.000172459
0.000171704
0.000170856
0.000169919
0.000168897
0.000167795
0.000166616
0.000165366
0.000205569
0.00020493
0.00020416
0.000203265
0.00020225
0.000201122
0.000199888
0.000198554
0.000197126
0.000195613
0.000233207
0.000232459
0.000231557
0.000230507
0.00022932
0.000228003
0.000226566
0.000225018
0.000223368
0.000221623
0.000257098
0.00025619
0.000255114
0.00025388
0.000252498
0.00025098
0.000249338
0.000247582
0.000245722
0.000243766
0.000277569
0.000276444
0.000275146
0.000273687
0.000272081
0.000270342
0.000268483
0.000266516
0.000264453
0.000262301
0.000294817
0.000293416
0.000291851
0.000290135
0.000288282
0.000286305
0.000284218
0.000282032
0.000279762
0.000277414
0.000309001
0.000307283
0.000305417
0.000303417
0.000301295
0.000299065
0.000296737
0.000294322
0.000291835
0.000289284
0.000320333
0.000318278
0.000316103
0.00031381
0.000311412
0.000308927
0.000306359
0.000303715
0.000301009
0.000298251
0.000329214
0.000326844
0.000324392
0.000321841
0.000319196
0.000316488
0.000313723
0.000310895
0.000308012
0.000305082
0.000336337
0.00033373
0.000331098
0.000328402
0.000325637
0.00032283
0.000319983
0.000317086
0.000314133
0.000311125
0.000342863
0.000340203
0.000337576
0.000334943
0.000332275
0.000329579
0.000326843
0.000324047
0.000321176
0.000318222
0.000350328
0.000347885
0.000345523
0.000343199
0.000340866
0.0003385
0.000336075
0.000333561
0.000330931
0.00032817
0.000360308
0.000358333
0.000356446
0.000354607
0.000352762
0.000350867
0.000348891
0.000346796
0.000344541
0.000342116
0.000373814
0.000372432
0.000371108
0.000369813
0.000368498
0.000367122
0.000365662
0.000364087
0.000362355
0.000360446
0.000390874
0.00039007
0.000389284
0.000388508
0.000387714
0.000386879
0.000385995
0.000385039
0.000383961
0.000382722
0.000410831
0.000410488
0.000410137
0.000409796
0.000409474
0.000409171
0.000408896
0.00040861
0.00040821
0.000407617
0.000432674
0.000432632
0.000432586
0.000432561
0.000432591
0.000432717
0.000432978
0.0004333
0.000433437
0.000433233
0.000455334
0.000455452
0.000455558
0.000455676
0.000455817
0.000456062
0.000456548
0.000457207
0.000457626
0.000457538
0.000477582
0.000477703
0.00047779
0.000477848
0.000477782
0.000477654
0.000477712
0.0004781
0.000478588
0.000478672
0.000498237
0.000498101
0.000497865
0.000497575
0.000497139
0.000496553
0.000496134
0.000496062
0.000496161
0.000496028
0.000516545
0.000516006
0.000515282
0.000514458
0.000513635
0.000512818
0.000512153
0.000511669
0.000511199
0.00051056
0.000532236
0.000531224
0.000530205
0.000529223
0.000528275
0.000527299
0.000526334
0.000525384
0.000524318
0.000523011
0.000546043
0.000544825
0.000543667
0.000542569
0.000541451
0.000540254
0.000538939
0.000537484
0.000535817
0.000533857
0.000558444
0.000557139
0.000555839
0.000554565
0.00055324
0.00055179
0.000550158
0.000548302
0.000546185
0.000543778
0.000569492
0.000568196
0.000566858
0.000565472
0.000563996
0.000562371
0.000560549
0.000558493
0.000556179
0.000553596
0.000579464
0.000578284
0.000577028
0.000575677
0.000574201
0.000572567
0.000570743
0.000568708
0.000566451
0.000563972
0.000588644
0.000587689
0.00058664
0.000585479
0.000584185
0.00058274
0.000581131
0.000579352
0.000577407
0.000575308
0.000597279
0.000596647
0.000595928
0.000595101
0.000594156
0.000593088
0.000591897
0.000590592
0.000589189
0.000587714
0.00060558
0.000605351
0.000605055
0.000604677
0.000604213
0.000603668
0.000603055
0.000602394
0.000601711
0.00060104
0.000613692
0.000613914
0.000614102
0.000614243
0.000614343
0.000614413
0.000614477
0.000614562
0.000614702
0.000614936
0.00062167
0.000622362
0.000623055
0.000623744
0.000624438
0.000625157
0.00062593
0.000626792
0.00062778
0.000628936
0.000629503
0.000630659
0.000631848
0.000633071
0.000634342
0.000635686
0.000637138
0.000638737
0.000640525
0.000642545
0.000637165
0.000638757
0.000640406
0.000642114
0.0006439
0.000645795
0.000647836
0.00065007
0.000652543
0.000655301
0.000644647
0.000646632
0.000648681
0.000650796
0.000652998
0.000655322
0.00065781
0.000660514
0.000663488
0.000666788
0.000651974
0.000654294
0.00065666
0.000659074
0.000661557
0.000664145
0.000666887
0.00066984
0.000673067
0.000676637
0.000659179
0.000661755
0.000664329
0.0006669
0.000669488
0.00067213
0.000674877
0.000677798
0.000680968
0.000684475
0.000666262
0.000668982
0.000671615
0.000674153
0.00067661
0.000679023
0.000681452
0.000683978
0.0006867
0.000689731
0.00067314
0.000675845
0.000678331
0.000680577
0.000682592
0.000684415
0.000686121
0.000687815
0.000689639
0.00069176
0.000679619
0.000682092
0.000684159
0.000685785
0.000686979
0.000687792
0.000688331
0.000688759
0.000689295
0.000690211
0.000685402
0.00068737
0.000688694
0.000689331
0.000689299
0.00068869
0.000687682
0.000686548
0.000685648
0.000685423
0.000690141
0.000691303
0.000691548
0.000690842
0.000689242
0.000686924
0.000684196
0.000681507
0.000679435
0.000678805
0.000693529
0.0006936
0.000692485
0.000690184
0.000686838
0.000682766
0.000678477
0.000674661
0.00067224
0.000672273
0.000695402
0.000694178
0.000691541
0.000687558
0.000682504
0.0006769
0.000671508
0.000667314
0.000665771
0.000668031
0.000695831
0.000693248
0.000689098
0.000683538
0.000677014
0.000670296
0.000664478
0.000661119
0.000661694
0.000667322
0.000695134
0.000691297
0.000685804
0.000678913
0.000671277
0.000664015
0.000658655
0.000656951
0.000660397
0.000670046
0.000693822
0.000688989
0.000682427
0.000674504
0.000666159
0.000658853
0.000654371
0.00065462
0.000661132
0.000674849
0.000692292
0.000686859
0.000679542
0.000670857
0.00066201
0.000654744
0.000651091
0.000653047
0.000662202
0.000679429
0.000690863
0.000685292
0.000677633
0.000668414
0.000659011
0.00065141
0.000647925
0.000650678
0.000661369
0.000680896
0.000690493
0.000685092
0.000677544
0.000668076
0.000657929
0.00064932
0.000644766
0.000646717
0.000657069
0.000676837
0.000691425
0.000686752
0.000679821
0.000670359
0.000659432
0.000649125
0.000642169
0.000641392
0.000649001
0.000666166
0.000693268
0.0006899
0.00068415
0.000675118
0.000663603
0.000651573
0.000641703
0.000636887
0.000639685
0.000651542
0.0006954
0.000693638
0.000689451
0.000681331
0.000669883
0.000656893
0.000644674
0.000635871
0.000632949
0.000637768
0.000697112
0.000696472
0.000693845
0.000686964
0.000676342
0.000663488
0.000650276
0.000638899
0.000631518
0.000629865
0.000698022
0.000697968
0.000695841
0.000689826
0.000680263
0.000668249
0.000655182
0.000642727
0.000632617
0.000626389
0.0006967
0.000697058
0.000694953
0.000689037
0.000679828
0.000668113
0.000654881
0.000641363
0.000628926
0.00061889
0.000693978
0.000694583
0.000691762
0.000684652
0.000674227
0.000661087
0.00064598
0.000629901
0.000614017
0.000599541
0.000690432
0.000690439
0.000685396
0.000675644
0.000662322
0.00064596
0.000627245
0.000607131
0.000586798
0.000567532
0.000685087
0.000682471
0.000673774
0.000660351
0.00064307
0.000622494
0.000599447
0.000575085
0.000550825
0.000528501
0.000676359
0.000669007
0.000655736
0.000637875
0.000616108
0.000591204
0.000564352
0.000537129
0.000511381
0.000489675
0.000662132
0.000648847
0.000630434
0.000607783
0.000581713
0.00055344
0.000524642
0.000497316
0.000474355
0.000457646
0.000639321
0.000620334
0.000597003
0.000570244
0.000541369
0.00051213
0.000484617
0.000461675
0.000445659
0.000437438
0.00060632
0.000582569
0.000555593
0.000526881
0.000498236
0.000471727
0.000450015
0.00043583
0.000429903
0.000431743
0.000562944
0.000536064
0.000508077
0.000480988
0.000456761
0.000437727
0.00042686
0.000424416
0.000429533
0.000440797
0.000512186
0.000485132
0.00046007
0.000439127
0.000424247
0.000418046
0.000420253
0.000429487
0.000444123
0.000462485
0.000459558
0.000437271
0.000420471
0.000410709
0.000410039
0.000417395
0.000431118
0.000449382
0.000470323
0.000492324
0.00041395
0.000402144
0.000398119
0.00040328
0.000416067
0.000434362
0.000455987
0.000479061
0.000502038
0.00052354
0.000385535
0.000387491
0.000398198
0.000415947
0.000438222
0.000462648
0.000487342
0.000510766
0.000531344
0.000547269
0.000379059
0.000394746
0.000416602
0.000441862
0.000468307
0.000494058
0.000517346
0.000536243
0.000548785
0.000554404
0.000391892
0.000417205
0.000444712
0.000472603
0.000499155
0.000521901
0.000538147
0.000546661
0.000548313
0.000544957
0.000416527
0.000445585
0.000474394
0.000501713
0.000523985
0.000537108
0.000541284
0.000539235
0.000533651
0.000526304
0.000443045
0.000472617
0.000501109
0.000523529
0.000533417
0.000532865
0.000527469
0.000520277
0.000512372
0.000504122
0.000465908
0.00049644
0.000520585
0.000528165
0.000523341
0.000514698
0.000505629
0.00049706
0.000489074
0.000481478
0.000486929
0.000515602
0.000524664
0.00051626
0.000503846
0.000491652
0.000481293
0.000473066
0.000466384
0.000460618
0.000511501
0.000528018
0.000516692
0.000499038
0.000481646
0.000467186
0.000456971
0.000450507
0.000446221
0.000443298
0.000527858
0.000525973
0.000503698
0.000479334
0.000458033
0.000442684
0.000434227
0.000430752
0.000429676
0.000430718
0.000540734
0.000519765
0.000488535
0.00045848
0.000434188
0.000419267
0.000413932
0.000414266
0.000417211
0.000423647
0.000557354
0.000515116
0.000474034
0.00043778
0.000410679
0.000397185
0.000396056
0.000400877
0.000409037
0.000422321
0.000553751
0.000504337
0.000456821
0.000415312
0.000386199
0.000375584
0.000379907
0.00039026
0.000405234
0.000426271
0.000540836
0.000488626
0.000436431
0.000390199
0.000359849
0.000353831
0.00036504
0.000382432
0.000405711
0.000434626
0.000530186
0.000472483
0.000414349
0.000362692
0.000331424
0.000331802
0.000351455
0.000377568
0.000410094
0.000446437
0.000518183
0.000454698
0.000390152
0.000332554
0.000300694
0.000309518
0.000339268
0.000375609
0.000417903
0.000461453
0.000502934
0.000434649
0.000364028
0.000300244
0.000268
0.000287369
0.000328609
0.000376137
0.000428637
0.000480226
0.000485453
0.000413311
0.000337231
0.000266942
0.000234187
0.000265986
0.000319391
0.00037816
0.000441001
0.000502055
0.000467075
0.000391853
0.000310712
0.00023343
0.0002001
0.000246027
0.000311353
0.000380505
0.000453302
0.000525214
0.000449247
0.000370733
0.000284348
0.000199666
0.000166508
0.000228095
0.000304247
0.000382179
0.000463677
0.000546736
0.000432881
0.00034981
0.00025751
0.000165508
0.000134504
0.000212649
0.000297966
0.000382694
0.000470581
0.000562674
0.000417388
0.00032825
0.000229315
0.000131239
0.00010555
0.000199717
0.000292566
0.000382569
0.000474302
0.000570631
0.000401761
0.000304864
0.000198785
9.7903e-05
8.10739e-05
0.00018846
0.000287897
0.00038293
0.000477642
0.000575221
0.00038367
0.000278051
0.000165293
6.7546e-05
6.183e-05
0.000176941
0.000283108
0.000384007
0.000482098
0.000580972
0.000362016
0.000247009
0.000129462
4.27506e-05
4.74903e-05
0.000162598
0.000276949
0.000386019
0.000489195
0.000590672
0.00033234
0.000209755
9.3138e-05
2.53337e-05
3.68322e-05
0.000142729
0.000267119
0.000388524
0.000500271
0.000605806
0.000296583
0.000168555
6.12055e-05
1.56679e-05
2.82964e-05
0.000115368
0.0002493
0.000389328
0.000517009
0.000630721
0.000253649
0.000125586
3.73072e-05
1.21252e-05
2.18542e-05
8.14111e-05
0.000216391
0.000381661
0.000539463
0.000673822
0.000202154
8.62194e-05
2.30707e-05
1.26259e-05
1.82759e-05
4.72851e-05
0.00016017
0.000347956
0.000558339
0.000748216
0.00015169
5.93667e-05
1.72793e-05
1.44193e-05
1.72108e-05
2.46511e-05
8.38363e-05
0.000254511
0.000523659
0.000850993
0.000217238
5.40544e-05
1.5675e-05
1.52579e-05
1.71296e-05
1.78772e-05
2.64026e-05
9.65312e-05
0.000306655
0.000722611
5.74058e-06
5.70092e-06
5.65999e-06
5.61789e-06
5.57469e-06
5.53044e-06
5.48514e-06
5.43876e-06
5.39122e-06
5.34244e-06
5.29227e-06
5.2405e-06
5.18692e-06
5.13134e-06
5.07366e-06
5.0138e-06
4.95182e-06
4.88783e-06
4.82206e-06
4.7559e-06
2.00753e-05
4.71712e-06
4.7093e-06
4.7082e-06
4.70271e-06
1.99721e-05
1.99804e-05
4.70747e-06
1.99556e-05
4.69664e-06
1.99565e-05
1.99143e-05
1.99538e-05
1.97326e-05
1.88173e-05
1.727e-05
1.51885e-05
1.26598e-05
9.78524e-06
1.71215e-06
4.48546e-05
4.4589e-05
4.43126e-05
4.40265e-05
4.37305e-05
4.3424e-05
4.3106e-05
4.27742e-05
4.24271e-05
4.20649e-05
4.16832e-05
4.12786e-05
4.08486e-05
4.03919e-05
3.99079e-05
3.93974e-05
3.88624e-05
3.83061e-05
3.77332e-05
3.71621e-05
3.68369e-05
3.6226e-05
3.56663e-05
3.50977e-05
3.45071e-05
3.40626e-05
3.34486e-05
3.27579e-05
3.24015e-05
3.18878e-05
3.1866e-05
3.16962e-05
3.20445e-05
3.2146e-05
3.108e-05
2.87987e-05
2.51616e-05
1.96859e-05
1.16863e-05
2.61932e-06
8.95459e-05
8.88282e-05
8.80798e-05
8.73027e-05
8.64976e-05
8.56649e-05
8.48044e-05
8.39146e-05
8.29938e-05
8.20393e-05
8.10477e-05
8.00154e-05
7.89392e-05
7.78165e-05
7.66459e-05
7.54271e-05
7.41613e-05
7.28504e-05
7.14987e-05
7.01156e-05
6.87257e-05
6.73198e-05
6.58775e-05
6.43861e-05
6.28443e-05
6.12529e-05
5.96066e-05
5.79152e-05
5.62048e-05
5.44601e-05
5.2663e-05
5.07829e-05
4.87713e-05
4.64428e-05
4.34008e-05
3.92895e-05
3.36584e-05
2.58887e-05
1.53979e-05
3.90798e-06
0.000129344
0.00012818
0.000126963
0.000125697
0.000124385
0.000123027
0.000121625
0.000120177
0.000118682
0.000117139
0.000115542
0.000113889
0.000112177
0.000110401
0.000108561
0.000106656
0.000104684
0.000102648
0.000100551
9.83964e-05
9.61922e-05
9.3941e-05
9.16396e-05
8.92826e-05
8.6865e-05
8.43804e-05
8.18197e-05
7.91742e-05
7.64309e-05
7.35596e-05
7.05122e-05
6.7226e-05
6.3606e-05
5.94903e-05
5.46154e-05
4.86185e-05
4.10011e-05
3.11307e-05
1.85569e-05
5.20594e-06
0.000163968
0.000162415
0.00016079
0.000159098
0.000157341
0.000155524
0.000153646
0.000151707
0.000149706
0.000147641
0.000145508
0.000143303
0.000141023
0.000138664
0.000136224
0.000133701
0.000131095
0.000128406
0.000125637
0.000122791
0.000119872
0.000116885
0.00011383
0.000110706
0.000107509
0.000104229
0.000100851
9.73485e-05
9.36903e-05
8.98266e-05
8.56905e-05
8.11969e-05
7.62297e-05
7.06226e-05
6.41336e-05
5.64217e-05
4.70137e-05
3.5336e-05
2.10816e-05
6.42007e-06
0.00019392
0.000192038
0.000190069
0.000188019
0.000185891
0.000183688
0.00018141
0.000179057
0.000176628
0.000174119
0.000171527
0.000168848
0.000166077
0.000163212
0.000160248
0.000157184
0.000154018
0.000150751
0.000147383
0.000143919
0.000140363
0.000136718
0.000132988
0.000129173
0.000125268
0.000121261
0.000117128
0.000112832
0.000108322
0.000103533
9.83836e-05
9.27731e-05
8.65722e-05
7.96124e-05
7.16652e-05
6.24214e-05
5.15167e-05
3.85652e-05
2.31229e-05
7.22574e-06
0.000219677
0.000217516
0.00021526
0.000212913
0.000210478
0.000207956
0.000205347
0.000202651
0.000199865
0.000196986
0.000194009
0.000190929
0.000187742
0.000184443
0.000181029
0.000177495
0.00017384
0.000170063
0.000166166
0.000162151
0.000158022
0.000153784
0.00014944
0.000144992
0.000140436
0.000135756
0.000130919
0.000125876
0.00012056
0.000114891
0.000108775
0.000102096
9.47098e-05
8.64717e-05
7.71694e-05
6.65448e-05
5.43407e-05
4.02953e-05
2.40133e-05
7.60647e-06
0.000241595
0.000239194
0.000236695
0.000234101
0.000231413
0.00022863
0.000225751
0.000222773
0.000219692
0.000216504
0.000213204
0.000209786
0.000206245
0.000202576
0.000198772
0.000194831
0.000190748
0.000186523
0.000182156
0.000177651
0.00017301
0.00016824
0.000163344
0.000158326
0.000153179
0.000147887
0.000142409
0.00013668
0.000130615
0.000124122
0.000117094
0.00010941
0.000100931
9.15002e-05
8.09384e-05
6.90227e-05
5.55767e-05
4.06255e-05
2.41044e-05
7.90358e-06
0.000259929
0.000257318
0.000254609
0.0002518
0.000248893
0.000245884
0.000242771
0.00023955
0.000236215
0.000232762
0.000229184
0.000225474
0.000221626
0.000217633
0.000213488
0.000209186
0.000204724
0.000200102
0.00019532
0.000190382
0.000185295
0.000180064
0.000174695
0.000169188
0.000163541
0.000157738
0.000151729
0.000145428
0.000138728
0.000131521
0.000123712
0.000115184
0.000105787
9.53299e-05
8.36032e-05
7.04548e-05
5.58615e-05
3.98089e-05
2.29568e-05
8.26321e-06
0.000274848
0.000272036
0.000269125
0.000266113
0.000262998
0.000259776
0.000256443
0.000252994
0.000249424
0.000245726
0.000241891
0.000237911
0.000233778
0.000229481
0.000225015
0.000220374
0.000215557
0.000210564
0.000205402
0.000200081
0.000194612
0.000189007
0.00018327
0.000177401
0.000171396
0.000165244
0.000158887
0.000152194
0.000145016
0.000137293
0.00012896
0.000119907
0.00010999
9.90077e-05
8.66765e-05
7.27698e-05
5.73804e-05
4.07845e-05
2.39065e-05
9.26894e-06
0.000286516
0.000283497
0.000280379
0.000277154
0.000273822
0.000270378
0.000266817
0.000263134
0.000259323
0.000255374
0.000251277
0.000247019
0.00024259
0.000237977
0.000233174
0.000228178
0.000222988
0.00021761
0.000212053
0.000206351
0.000200539
0.000194645
0.000188682
0.000182642
0.000176502
0.000170251
0.000163794
0.000156897
0.00014947
0.000141558
0.000133101
0.000123971
0.000114018
0.000103124
9.1042e-05
7.74643e-05
6.21734e-05
4.51364e-05
2.71469e-05
1.08351e-05
0.000295279
0.000292049
0.000288715
0.00028527
0.000281708
0.000278024
0.000274217
0.000270282
0.000266213
0.000261997
0.00025762
0.000253063
0.000248313
0.000243357
0.000238187
0.000232802
0.000227199
0.000221377
0.00021539
0.000209304
0.000203179
0.000197063
0.000191004
0.000184975
0.000178943
0.000172789
0.000166303
0.000159322
0.000151913
0.000144183
0.000136007
0.000127173
0.000117517
0.000106923
9.52621e-05
8.21603e-05
6.72342e-05
5.02986e-05
3.12084e-05
1.24308e-05
0.000301935
0.000298513
0.000294981
0.000291328
0.000287543
0.000283623
0.000279572
0.000275394
0.000271079
0.000266612
0.000261972
0.000257139
0.000252093
0.000246823
0.000241323
0.000235586
0.000229602
0.000223416
0.000217108
0.000210746
0.000204404
0.000198142
0.000192002
0.000185955
0.000179905
0.000173752
0.000167281
0.000160411
0.000153259
0.000145888
0.000138174
0.000129884
0.000120813
0.000110722
9.93012e-05
8.62111e-05
7.11155e-05
5.37313e-05
3.37036e-05
1.3713e-05
0.000307889
0.000304349
0.000300684
0.000296883
0.000292941
0.000288847
0.000284615
0.00028027
0.000275805
0.000271197
0.000266425
0.00026146
0.000256281
0.000250877
0.000245241
0.000239367
0.000233265
0.000227031
0.00022072
0.000214388
0.000208077
0.000201819
0.00019564
0.000189505
0.000183299
0.000176933
0.000170264
0.000163258
0.000156011
0.0001486
0.000140932
0.000132821
0.000124028
0.000114237
0.000103049
9.00082e-05
7.45888e-05
5.63144e-05
3.54036e-05
1.48884e-05
0.000315022
0.000311486
0.000307801
0.000303975
0.000300014
0.000295897
0.000291642
0.000287309
0.000282905
0.0002784
0.000273761
0.000268955
0.000263954
0.000258743
0.000253313
0.000247661
0.000241858
0.000235961
0.000229985
0.00022393
0.000217796
0.000211601
0.000205377
0.000199078
0.000192577
0.000185753
0.000178504
0.000170838
0.000162867
0.000154694
0.000146325
0.000137647
0.000128458
0.000118439
0.000107151
9.40463e-05
7.84967e-05
5.99196e-05
3.83557e-05
1.67009e-05
0.000325152
0.000321771
0.000318228
0.000314565
0.000310803
0.000306902
0.000302873
0.000298805
0.000294727
0.000290614
0.000286415
0.000282082
0.000277574
0.000272859
0.000267915
0.000262753
0.000257464
0.000252058
0.000246507
0.000240771
0.000234827
0.00022868
0.000222325
0.000215694
0.000208663
0.000201119
0.000192988
0.000184292
0.000175144
0.000165681
0.000155968
0.000145982
0.0001356
0.000124556
0.00011243
9.86562e-05
8.25557e-05
6.34306e-05
4.11205e-05
1.87201e-05
0.000339448
0.000336432
0.00033327
0.000330027
0.000326719
0.000323276
0.000319699
0.000316091
0.000312511
0.000308956
0.000305361
0.000301661
0.000297795
0.000293687
0.000289264
0.000284574
0.000279696
0.000274656
0.000269432
0.000263976
0.000258219
0.00025208
0.000245469
0.000238305
0.000230522
0.000222074
0.000212925
0.00020308
0.000192618
0.000181654
0.00017027
0.000158504
0.000146315
0.000133506
0.00011967
0.000104211
8.63611e-05
6.51415e-05
3.93162e-05
1.9787e-05
0.000358341
0.000355942
0.000353401
0.00035079
0.000348109
0.000345249
0.000342176
0.000339004
0.000335864
0.000332796
0.000329743
0.000326632
0.000323401
0.000319863
0.000315814
0.000311344
0.000306591
0.000301678
0.000296658
0.000291468
0.000285919
0.000279737
0.000272695
0.000264763
0.000256043
0.000246631
0.000236545
0.000225724
0.000214142
0.000201824
0.000188815
0.000175187
0.000160979
0.00014605
0.000129976
0.000112042
9.13203e-05
6.66786e-05
3.71307e-05
1.99876e-05
0.000381344
0.000379711
0.000377882
0.00037589
0.000373739
0.000371317
0.000368579
0.000365691
0.000362847
0.000360104
0.000357425
0.000354803
0.000352209
0.000349244
0.000345383
0.000340757
0.000335772
0.000330766
0.000325846
0.000320845
0.000315315
0.00030874
0.000300897
0.000292064
0.000282539
0.000272459
0.000261785
0.000250329
0.000237994
0.000224731
0.000210498
0.000195354
0.000179418
0.000162597
0.000144456
0.000124069
0.000100213
7.14522e-05
3.65235e-05
4.69096e-06
0.000406873
0.000405885
0.000404641
0.000403093
0.000401227
0.000398944
0.000396283
0.000393466
0.000390707
0.000388036
0.000385395
0.000382968
0.000380864
0.000378386
0.000374481
0.000369411
0.00036415
0.000359171
0.000354334
0.00034904
0.000342636
0.000334817
0.000325921
0.000316643
0.000307178
0.000297275
0.000286482
0.00027459
0.000261797
0.000248108
0.000233315
0.000217343
0.000200362
0.000182376
0.000163062
0.00014117
0.000115065
8.27189e-05
4.26385e-05
5.21735e-06
0.000432825
0.000432193
0.00043131
0.000429913
0.00042793
0.000425385
0.000422414
0.000419279
0.000416212
0.000413196
0.000410149
0.000407412
0.000405317
0.000402847
0.000398446
0.000392963
0.000387661
0.000382717
0.000377493
0.000371246
0.000363638
0.000354677
0.000345141
0.00033583
0.000326577
0.000316865
0.000306357
0.000294873
0.000282461
0.000269134
0.000254676
0.000238749
0.000221326
0.000202884
0.000183622
0.000161519
0.00013465
9.98841e-05
5.31977e-05
6.35553e-06
0.000457162
0.000456501
0.000455631
0.000454167
0.000451826
0.000448764
0.000445132
0.000441259
0.000437495
0.000433894
0.000430223
0.000426644
0.000423585
0.000420461
0.000415886
0.000410222
0.000404251
0.000398131
0.000391702
0.000384644
0.000376866
0.000368167
0.000358746
0.000349074
0.000339196
0.000329154
0.000318741
0.000307623
0.000295702
0.000283089
0.000269881
0.00025577
0.000239545
0.000220905
0.000201491
0.000179924
0.00015406
0.000119106
6.7191e-05
7.65681e-06
0.00047829
0.000477371
0.000476162
0.000474376
0.000471556
0.000467802
0.000463357
0.000458608
0.000453912
0.000449463
0.000445343
0.000441606
0.000438139
0.000434048
0.000428611
0.000422472
0.000415982
0.00040918
0.000402072
0.000394543
0.000386495
0.000377742
0.00036829
0.000358478
0.000348399
0.000337911
0.000326689
0.000314533
0.000301619
0.000288378
0.000275154
0.000261972
0.000248434
0.000233088
0.000213425
0.000191033
0.0001662
0.000133122
7.88508e-05
9.03413e-06
0.000495471
0.00049427
0.000492583
0.000490164
0.000486632
0.000482091
0.000476853
0.000471323
0.000465924
0.000460998
0.000456736
0.000452801
0.000448576
0.000443747
0.000438219
0.000432084
0.000425523
0.000418646
0.000411501
0.000404031
0.000396103
0.000387572
0.000378426
0.000368741
0.00035846
0.000347371
0.000335198
0.000321816
0.000307386
0.000292282
0.000276862
0.000261365
0.000246026
0.000231172
0.000215299
0.000193731
0.000167318
0.000135484
8.30291e-05
1.0348e-05
0.000509585
0.000507859
0.000505439
0.000502179
0.000497868
0.000492697
0.000486994
0.000481099
0.000475367
0.000470053
0.000465213
0.000460631
0.000456005
0.000451139
0.00044595
0.000440401
0.000434566
0.000428507
0.000422223
0.000415643
0.000408635
0.000401044
0.000392745
0.000383625
0.000373524
0.000362218
0.000349475
0.00033516
0.000319302
0.000302063
0.000283664
0.000264346
0.000244419
0.000224308
0.000204065
0.000182184
0.0001562
0.000124404
7.74103e-05
1.0074e-05
0.000521335
0.000518848
0.00051567
0.000511751
0.000506966
0.000501484
0.000495605
0.000489617
0.000483787
0.000478305
0.000473235
0.000468498
0.000463937
0.000459451
0.000455001
0.000450555
0.000446083
0.000441549
0.000436875
0.000431931
0.000426542
0.000420504
0.0004136
0.00040561
0.000396296
0.000385406
0.000372709
0.000358034
0.000341305
0.000322534
0.000301803
0.000279247
0.000255062
0.000229476
0.000202664
0.000174573
0.000144781
0.000111367
6.83987e-05
9.74671e-06
0.00053151
0.000528392
0.00052469
0.000520372
0.000515407
0.000509941
0.000504216
0.000498468
0.000492918
0.00048773
0.000482987
0.000478696
0.000474813
0.000471291
0.000468101
0.000465197
0.000462502
0.000459903
0.000457251
0.000454353
0.000450978
0.000446865
0.000441733
0.000435292
0.000427247
0.000417309
0.000405218
0.000390761
0.000373791
0.000354232
0.000332076
0.000307371
0.000280231
0.000250821
0.000219337
0.000185942
0.000150676
0.000112818
6.83169e-05
1.06671e-05
0.000541023
0.000537561
0.000533619
0.000529211
0.000524373
0.000519247
0.000514026
0.000508909
0.000504082
0.000499693
0.000495845
0.000492587
0.000489928
0.000487844
0.000486312
0.000485253
0.000484552
0.000484048
0.000483544
0.0004828
0.000481543
0.00047947
0.000476256
0.000471562
0.000465048
0.000456382
0.000445258
0.000431415
0.000414652
0.000394822
0.000371826
0.0003456
0.000316121
0.000283431
0.000247677
0.000209105
0.000167921
0.000123816
7.44223e-05
1.25326e-05
0.000550718
0.000547212
0.00054335
0.000539192
0.000534822
0.000530376
0.000526017
0.00052191
0.000518213
0.000515058
0.000512544
0.000510732
0.000509644
0.000509264
0.000509558
0.000510423
0.000511713
0.000513242
0.000514784
0.00051608
0.000516835
0.000516723
0.000515394
0.000512479
0.000507593
0.000500357
0.00049041
0.000477441
0.000461199
0.000441491
0.000418141
0.000390933
0.000359597
0.000323865
0.000283587
0.000238873
0.000190119
0.000137703
8.09006e-05
1.42783e-05
0.000561278
0.000558075
0.000554649
0.000551096
0.000547528
0.000544074
0.000540876
0.000538072
0.000535792
0.000534145
0.000533214
0.000533053
0.000533677
0.000535063
0.000537152
0.000539824
0.000542925
0.00054626
0.000549598
0.000552676
0.000555199
0.000556845
0.000557255
0.000556044
0.000552792
0.000547063
0.000538429
0.000526508
0.000511013
0.000491745
0.000468513
0.00044097
0.000408528
0.000370437
0.000325978
0.000274724
0.000216836
0.000153339
8.62009e-05
1.58858e-05
0.000573103
0.000570536
0.000567888
0.00056527
0.000562799
0.000560597
0.000558783
0.000557473
0.000556768
0.000556751
0.000557486
0.000559007
0.000561318
0.000564388
0.000568114
0.000572378
0.000577028
0.000581874
0.000586694
0.000591236
0.000595222
0.000598348
0.000600277
0.000600627
0.000598961
0.000594788
0.000587589
0.000576874
0.000562285
0.000543661
0.000520908
0.000493636
0.000460917
0.000421456
0.000373856
0.000316924
0.000250128
0.00017444
9.41938e-05
1.75032e-05
0.000586261
0.000584615
0.00058302
0.000581592
0.000580438
0.000579667
0.000579376
0.000579656
0.000580581
0.000582211
0.000584584
0.000587718
0.000591604
0.0005962
0.000601363
0.000606989
0.000612937
0.000619028
0.000625049
0.000630763
0.000635912
0.000640223
0.000643403
0.000645111
0.000644925
0.000642323
0.000636698
0.000627422
0.000613943
0.000596063
0.000573955
0.000547308
0.000514835
0.000474719
0.000424904
0.000363375
0.000288586
0.0002006
0.000104832
1.90198e-05
0.000600528
0.000599997
0.000599635
0.000599549
0.000599835
0.000600582
0.000601868
0.000603757
0.0006063
0.000609531
0.000613471
0.000618123
0.00062347
0.000629387
0.000635793
0.000642595
0.000649661
0.00065682
0.000663868
0.000670573
0.000676682
0.000681941
0.000686111
0.000688927
0.000690036
0.000688915
0.000684893
0.000677251
0.0006653
0.000648406
0.000626986
0.000601044
0.00056877