/*--------------------------------*- C++ -*----------------------------------*\
  =========                 |
  \\      /  F ield         | OpenFOAM: The Open Source CFD Toolbox
   \\    /   O peration     | Website:  https://openfoam.org
    \\  /    A nd           | Version:  8
     \\/     M anipulation  |
\*---------------------------------------------------------------------------*/
FoamFile
{
    version     2.0;
    format      ascii;
    class       surfaceScalarField;
    location    "4.45";
    object      phi;
}
// * * * * * * * * * * * * * * * * * * * * * * * * * * * * * * * * * * * * * //

dimensions      [0 3 -1 0 0 0 0];

internalField   nonuniform List<scalar> 
18095
(
1.58588e-07
-9.65413e-07
8.06824e-07
1.65455e-07
-1.24824e-06
1.24137e-06
1.22266e-07
-1.24224e-06
1.28543e-06
6.54052e-08
-1.26348e-06
1.32034e-06
1.0559e-10
-1.28048e-06
1.34578e-06
-6.52131e-08
-1.2805e-06
1.34582e-06
-1.2212e-07
-1.26353e-06
1.32044e-06
-1.65359e-07
-1.24229e-06
1.28553e-06
-1.58548e-07
-1.24828e-06
1.24147e-06
-9.65533e-07
8.06985e-07
1.11055e-07
-1.07647e-06
9.94527e-08
-1.23664e-06
7.29031e-08
-1.21569e-06
4.00905e-08
-1.23067e-06
6.89514e-11
-1.24046e-06
-3.99631e-08
-1.24047e-06
-7.28022e-08
-1.23069e-06
-9.93754e-08
-1.21572e-06
-1.11009e-07
-1.23665e-06
-1.07654e-06
6.71848e-08
-1.14365e-06
5.27836e-08
-1.22224e-06
4.21756e-08
-1.20508e-06
2.3898e-08
-1.21239e-06
4.31417e-11
-1.21661e-06
-2.38174e-08
-1.21661e-06
-4.21107e-08
-1.2124e-06
-5.27337e-08
-1.20509e-06
-6.71466e-08
-1.22224e-06
-1.14369e-06
3.96391e-08
-1.18329e-06
2.66394e-08
-1.20924e-06
2.2034e-08
-1.20048e-06
1.25485e-08
-1.2029e-06
2.47098e-11
-1.20408e-06
-1.2502e-08
-1.20408e-06
-2.19958e-08
-1.20291e-06
-2.66108e-08
-1.20048e-06
-3.96139e-08
-1.20923e-06
-1.1833e-06
1.67086e-08
7.47276e-09
6.99735e-09
4.09318e-09
9.12654e-12
-4.0759e-09
-6.98319e-09
-7.46305e-09
-1.66978e-08
-1.74351e-07
-1.16329e-06
1.33764e-06
-2.18484e-07
-1.21608e-06
1.26021e-06
-1.64356e-07
-1.21262e-06
1.15849e-06
-8.60548e-08
-1.20384e-06
1.12554e-06
1.1911e-09
-1.20243e-06
1.11518e-06
8.83845e-08
-1.20261e-06
1.11541e-06
1.66459e-07
-1.20432e-06
1.12624e-06
2.2042e-07
-1.21331e-06
1.15935e-06
1.7614e-07
-1.21707e-06
1.26135e-06
-1.16444e-06
1.34058e-06
-9.26519e-08
-1.07063e-06
-9.51633e-08
-1.21357e-06
-7.87227e-08
-1.22906e-06
-4.35994e-08
-1.23896e-06
6.75216e-10
-1.2467e-06
4.48955e-08
-1.24683e-06
7.9886e-08
-1.23931e-06
9.61219e-08
-1.22955e-06
9.31966e-08
-1.21415e-06
-1.07124e-06
-5.78462e-08
-1.01279e-06
-5.49372e-08
-1.21648e-06
-4.62143e-08
-1.23778e-06
-2.67679e-08
-1.25841e-06
4.0708e-10
-1.27388e-06
2.75434e-08
-1.27396e-06
4.688e-08
-1.25865e-06
5.5423e-08
-1.23809e-06
5.80818e-08
-1.2168e-06
-1.01316e-06
-7.47635e-08
-9.38024e-07
-6.18851e-08
-1.22936e-06
-4.84301e-08
-1.25124e-06
-2.75648e-08
-1.27928e-06
2.51994e-10
-1.30169e-06
2.80408e-08
-1.30175e-06
4.88257e-08
-1.27943e-06
6.2152e-08
-1.25142e-06
7.4887e-08
-1.22954e-06
-9.38272e-07
-1.31199e-07
-1.19185e-07
-8.49946e-08
-4.39298e-08
1.61951e-10
4.42336e-08
8.52426e-08
1.19354e-07
1.31287e-07
-1.25617e-08
-9.07333e-07
9.19894e-07
1.79623e-08
-1.34194e-06
1.31141e-06
1.75547e-08
-1.27881e-06
1.27922e-06
1.25138e-08
-1.22856e-06
1.2336e-06
7.34932e-09
-1.22436e-06
1.22953e-06
2.64859e-09
-1.22516e-06
1.22986e-06
-3.11424e-09
-1.22705e-06
1.23281e-06
6.40275e-09
-1.27327e-06
1.26375e-06
6.15551e-08
-1.34281e-06
1.28766e-06
-9.50704e-07
1.01226e-06
2.51199e-08
-9.32453e-07
3.0631e-08
-1.34745e-06
2.05452e-08
-1.26872e-06
1.34914e-08
-1.22151e-06
6.60129e-09
-1.21747e-06
-3.00148e-10
-1.21826e-06
-6.27094e-09
-1.22108e-06
-1.08676e-08
-1.26867e-06
-4.6181e-09
-1.34906e-06
-9.55323e-07
3.43772e-08
-9.6683e-07
2.50071e-08
-1.33808e-06
1.54678e-08
-1.25918e-06
1.03716e-08
-1.21641e-06
4.47251e-09
-1.21157e-06
-2.03449e-09
-1.21175e-06
-6.43013e-09
-1.21668e-06
-1.51396e-08
-1.25997e-06
-2.42456e-08
-1.33996e-06
-9.79568e-07
8.33209e-08
-1.05015e-06
5.75253e-08
-1.31228e-06
3.80421e-08
-1.2397e-06
2.42088e-08
-1.20258e-06
3.04266e-09
-1.19041e-06
-1.80786e-08
-1.19063e-06
-3.1126e-08
-1.20364e-06
-5.00609e-08
-1.24103e-06
-7.68798e-08
-1.31314e-06
-1.05645e-06
2.87486e-07
2.35417e-07
1.54209e-07
7.71711e-08
1.94422e-09
-7.32762e-08
-1.50669e-07
-2.32345e-07
-2.8413e-07
7.76933e-08
2.18926e-09
-7.98826e-08
7.54608e-08
2.24016e-09
7.31792e-08
2.28168e-09
7.08638e-08
2.31542e-09
6.85236e-08
2.3401e-09
6.61665e-08
2.35708e-09
6.37988e-08
2.36757e-09
6.14272e-08
2.37149e-09
5.90585e-08
2.36867e-09
2.35842e-09
5.66999e-08
7.67318e-08
4.28008e-09
-7.88225e-08
7.4583e-08
4.38769e-09
7.23848e-08
4.47898e-09
7.01481e-08
4.55161e-09
6.78825e-08
4.60536e-09
6.55956e-08
4.64382e-09
6.32963e-08
4.66689e-09
6.0993e-08
4.67497e-09
5.86939e-08
4.66799e-09
4.64579e-09
5.64068e-08
6.85373e-08
6.38874e-09
-7.06459e-08
6.63932e-08
6.53191e-09
6.42234e-08
6.6488e-09
6.20341e-08
6.74084e-09
5.98312e-08
6.80823e-09
5.76234e-08
6.85162e-09
5.54182e-08
6.87207e-09
5.32234e-08
6.86972e-09
5.10466e-08
6.84475e-09
6.79735e-09
4.8895e-08
5.96914e-08
8.52802e-09
-6.18307e-08
5.7535e-08
8.68887e-09
5.53665e-08
8.81751e-09
5.31925e-08
8.91502e-09
5.10198e-08
8.98104e-09
4.8855e-08
9.01663e-09
4.67052e-08
9.02208e-09
4.45774e-08
8.99773e-09
4.24787e-08
8.94373e-09
8.86047e-09
4.04158e-08
5.02522e-08
1.06929e-08
-5.24169e-08
4.80815e-08
1.08598e-08
4.59102e-08
1.09889e-08
4.37446e-08
1.10807e-08
4.15904e-08
1.11354e-08
3.94538e-08
1.11533e-08
3.73413e-08
1.11346e-08
3.52594e-08
1.10797e-08
3.32143e-08
1.09888e-08
1.0862e-08
3.12129e-08
4.01411e-08
1.28768e-08
-4.23249e-08
3.796e-08
1.30411e-08
3.57865e-08
1.31625e-08
3.36262e-08
1.3241e-08
3.14849e-08
1.32768e-08
2.93683e-08
1.32699e-08
2.72823e-08
1.32207e-08
2.52327e-08
1.31294e-08
2.32252e-08
1.29963e-08
1.28212e-08
2.12661e-08
2.93209e-08
1.5076e-08
-3.152e-08
2.71303e-08
1.52316e-08
2.49532e-08
1.53396e-08
2.27948e-08
1.53993e-08
2.06609e-08
1.54107e-08
1.85571e-08
1.53737e-08
1.64888e-08
1.5289e-08
1.44608e-08
1.51574e-08
1.24776e-08
1.49794e-08
1.4754e-08
1.05447e-08
1.77622e-08
1.72902e-08
-1.99764e-08
1.55592e-08
1.74344e-08
1.33729e-08
1.75258e-08
1.12096e-08
1.75626e-08
9.07557e-09
1.75446e-08
6.97692e-09
1.74723e-08
4.91876e-09
1.73471e-08
2.90402e-09
1.71721e-08
9.34259e-10
1.69491e-08
1.66758e-08
-9.87562e-10
5.42553e-09
1.95253e-08
-7.66077e-09
3.19965e-09
1.96601e-08
9.91041e-10
1.97343e-08
-1.19043e-09
1.9744e-08
-3.3367e-09
1.96908e-08
-5.44006e-09
1.95755e-08
-7.49379e-09
1.94007e-08
-9.49884e-09
1.91771e-08
-1.14616e-08
1.89118e-08
1.85998e-08
-1.33857e-08
-7.7553e-09
2.17958e-08
5.48477e-09
-1.00272e-08
2.19319e-08
-1.22849e-08
2.19919e-08
-1.45081e-08
2.19672e-08
-1.66881e-08
2.18707e-08
-1.8812e-08
2.16993e-08
-2.08651e-08
2.14537e-08
-2.28551e-08
2.11671e-08
-2.48069e-08
2.08636e-08
2.05351e-08
-2.67422e-08
-2.18898e-08
2.41253e-08
1.95602e-08
-2.42524e-08
2.42944e-08
-2.66039e-08
2.43434e-08
-2.89027e-08
2.42659e-08
-3.11508e-08
2.41187e-08
-3.33295e-08
2.3878e-08
-3.53974e-08
2.35217e-08
-3.73426e-08
2.31123e-08
-3.92759e-08
2.27968e-08
2.2462e-08
-4.12028e-08
-3.71459e-08
2.65362e-08
3.4735e-08
-3.96854e-08
2.68338e-08
-4.22086e-08
2.68666e-08
-4.45753e-08
2.66326e-08
-4.68509e-08
2.63942e-08
-4.92042e-08
2.62314e-08
-5.13191e-08
2.56365e-08
-5.32694e-08
2.50626e-08
-5.51198e-08
2.46472e-08
2.4352e-08
-5.70099e-08
-5.37665e-08
2.8937e-08
5.13656e-08
-5.64953e-08
2.95627e-08
-5.95802e-08
2.99515e-08
-6.19121e-08
2.89644e-08
-6.39367e-08
2.84189e-08
-6.57252e-08
2.80198e-08
-6.76949e-08
2.76062e-08
-6.97025e-08
2.70701e-08
-7.17062e-08
2.66507e-08
2.62622e-08
-7.36166e-08
-7.28139e-08
3.15135e-08
7.02375e-08
-7.54195e-08
3.21686e-08
-7.76148e-08
3.21469e-08
-7.97429e-08
3.10926e-08
-8.17657e-08
3.04417e-08
-8.37923e-08
3.00464e-08
-8.56845e-08
2.94983e-08
-8.76042e-08
2.89897e-08
-8.95698e-08
2.8616e-08
2.83685e-08
-9.16764e-08
-9.17463e-08
3.38316e-08
8.94283e-08
-9.36319e-08
3.40542e-08
-9.54499e-08
3.39648e-08
-9.7652e-08
3.32947e-08
-9.99756e-08
3.27653e-08
-1.02314e-07
3.23852e-08
-1.04845e-07
3.20283e-08
-1.07542e-07
3.16865e-08
-1.10244e-07
3.13178e-08
3.09379e-08
-1.12813e-07
-1.11642e-07
3.54124e-08
1.10061e-07
-1.13578e-07
3.59902e-08
-1.15641e-07
3.60274e-08
-1.18246e-07
3.59e-08
-1.21153e-07
3.56719e-08
-1.24312e-07
3.55441e-08
-1.27682e-07
3.53982e-08
-1.31085e-07
3.50899e-08
-1.34391e-07
3.46234e-08
3.4149e-08
-1.37602e-07
-1.33392e-07
3.87414e-08
1.30063e-07
-1.36191e-07
3.87898e-08
-1.3925e-07
3.90868e-08
-1.42626e-07
3.92755e-08
-1.46358e-07
3.94035e-08
-1.50328e-07
3.95148e-08
-1.54742e-07
3.98118e-08
-1.59266e-07
3.96138e-08
-1.63334e-07
3.86915e-08
3.79929e-08
-1.67178e-07
-1.57301e-07
4.28711e-08
1.53171e-07
-1.61647e-07
4.31357e-08
-1.66083e-07
4.35235e-08
-1.70945e-07
4.41371e-08
-1.75869e-07
4.43274e-08
-1.81101e-07
4.47469e-08
-1.8608e-07
4.47905e-08
-1.9088e-07
4.44143e-08
-1.95479e-07
4.329e-08
4.18259e-08
-1.99312e-07
-1.8584e-07
4.81657e-08
1.80545e-07
-1.91253e-07
4.85487e-08
-1.9697e-07
4.92404e-08
-2.02681e-07
4.98485e-08
-2.08733e-07
5.03793e-08
-2.14794e-07
5.08077e-08
-2.20842e-07
5.08385e-08
-2.26692e-07
5.02639e-08
-2.31888e-07
4.84862e-08
4.62318e-08
-2.36294e-07
-2.17912e-07
5.44651e-08
2.11612e-07
-2.24124e-07
5.4761e-08
-2.3034e-07
5.54564e-08
-2.36782e-07
5.62896e-08
-2.43438e-07
5.7036e-08
-2.50395e-07
5.77644e-08
-2.57963e-07
5.8407e-08
-2.65096e-07
5.73967e-08
-2.71627e-07
5.5017e-08
5.23421e-08
-2.77737e-07
-2.51942e-07
6.01941e-08
2.46213e-07
-2.58454e-07
6.12725e-08
-2.65149e-07
6.2151e-08
-2.72029e-07
6.31692e-08
-2.79641e-07
6.46479e-08
-2.88308e-07
6.64316e-08
-2.97983e-07
6.8082e-08
-3.08528e-07
6.79418e-08
-3.17144e-07
6.3633e-08
5.90561e-08
-3.23858e-07
-2.89149e-07
6.75634e-08
2.8178e-07
-2.96098e-07
6.82216e-08
-3.03391e-07
6.94437e-08
-3.10777e-07
7.05553e-08
-3.17925e-07
7.17953e-08
-3.25712e-07
7.4219e-08
-3.37519e-07
7.98892e-08
-3.52334e-07
8.2757e-08
-3.65336e-07
7.66343e-08
6.80619e-08
-3.74341e-07
-3.29872e-07
7.59062e-08
3.21529e-07
-3.38634e-07
7.69843e-08
-3.48499e-07
7.93087e-08
-3.60709e-07
8.27645e-08
-3.71582e-07
8.2669e-08
-3.81861e-07
8.44981e-08
-3.9043e-07
8.84574e-08
-3.96654e-07
8.89811e-08
-4.03061e-07
8.30421e-08
7.22209e-08
-4.0722e-07
-3.71565e-07
8.6084e-08
3.61388e-07
-3.82025e-07
8.74435e-08
-3.93732e-07
9.10158e-08
-4.05471e-07
9.45032e-08
-4.17244e-07
9.44427e-08
-4.273e-07
9.45536e-08
-4.33082e-07
9.42395e-08
-4.34e-07
8.98995e-08
-4.3514e-07
8.41826e-08
7.65213e-08
-4.39441e-07
-4.08525e-07
9.68651e-08
3.97743e-07
-4.21658e-07
1.00577e-07
-4.33408e-07
1.02765e-07
-4.42414e-07
1.0351e-07
-4.48786e-07
1.00814e-07
-4.48971e-07
9.47383e-08
-4.49717e-07
9.49859e-08
-4.50373e-07
9.0556e-08
-4.51763e-07
8.55726e-08
7.95603e-08
-4.54801e-07
-4.42543e-07
1.0546e-07
4.33948e-07
-4.48958e-07
1.06992e-07
-4.54014e-07
1.07821e-07
-4.56303e-07
1.05798e-07
-4.58054e-07
1.02566e-07
-4.61867e-07
9.85513e-08
-4.62511e-07
9.56306e-08
-4.64531e-07
9.25762e-08
-4.68066e-07
8.91072e-08
8.62735e-08
-4.74779e-07
-4.63684e-07
1.08627e-07
4.60518e-07
-4.63701e-07
1.07008e-07
-4.66077e-07
1.10197e-07
-4.68446e-07
1.08167e-07
-4.70854e-07
1.04974e-07
-4.73669e-07
1.01366e-07
-4.76146e-07
9.81074e-08
-4.78807e-07
9.52379e-08
-4.82851e-07
9.31505e-08
9.14018e-08
-4.87979e-07
-4.78581e-07
1.1421e-07
4.72998e-07
-4.84671e-07
1.13098e-07
-4.85647e-07
1.11174e-07
-4.86558e-07
1.09078e-07
-4.8787e-07
1.06286e-07
-4.89673e-07
1.03169e-07
-4.91708e-07
1.00142e-07
-4.93941e-07
9.74712e-08
-4.96133e-07
9.53425e-08
9.35156e-08
-4.98247e-07
-4.86392e-07
1.19288e-07
4.81314e-07
-4.89829e-07
1.16535e-07
-4.92444e-07
1.13789e-07
-4.94254e-07
1.10888e-07
-4.95809e-07
1.07841e-07
-4.97355e-07
1.04715e-07
-4.98855e-07
1.01641e-07
-5.00119e-07
9.87356e-08
-5.00781e-07
9.6004e-08
9.31453e-08
-5.00411e-07
-4.83689e-07
1.23878e-07
4.79099e-07
-4.87271e-07
1.20116e-07
-4.89963e-07
1.1648e-07
-4.91975e-07
1.129e-07
-4.93482e-07
1.09348e-07
-4.94594e-07
1.05827e-07
-4.95312e-07
1.02359e-07
-4.95524e-07
9.89475e-08
-4.95068e-07
9.55486e-08
9.20081e-08
-4.93931e-07
-4.74312e-07
1.27871e-07
4.70319e-07
-4.77471e-07
1.23275e-07
-4.7985e-07
1.1886e-07
-4.81524e-07
1.14573e-07
-4.82559e-07
1.10383e-07
-4.82998e-07
1.06266e-07
-4.82846e-07
1.02206e-07
-4.82076e-07
9.81772e-08
-4.80657e-07
9.41294e-08
8.99736e-08
-4.78623e-07
-4.59347e-07
1.30972e-07
4.56246e-07
-4.61735e-07
1.25663e-07
-4.63405e-07
1.2053e-07
-4.64368e-07
1.15536e-07
-4.64638e-07
1.10653e-07
-4.64229e-07
1.05857e-07
-4.63147e-07
1.01124e-07
-4.61397e-07
9.64273e-08
-4.58998e-07
9.17303e-08
8.69838e-08
-4.56008e-07
-4.39487e-07
1.33013e-07
4.37446e-07
-4.40893e-07
1.2707e-07
-4.41626e-07
1.21263e-07
-4.4166e-07
1.15571e-07
-4.40983e-07
1.09976e-07
-4.3959e-07
1.04463e-07
-4.37482e-07
9.90165e-08
-4.34673e-07
9.36181e-08
-4.3119e-07
8.82478e-08
8.28791e-08
-4.27085e-07
-4.1515e-07
1.34031e-07
4.14132e-07
-4.15558e-07
1.27478e-07
-4.15301e-07
1.21007e-07
-4.1434e-07
1.1461e-07
-4.12647e-07
1.08283e-07
-4.10205e-07
1.02022e-07
-4.07012e-07
9.58237e-08
-4.03079e-07
8.96847e-08
-3.9843e-07
8.35994e-08
7.75586e-08
-3.9311e-07
-3.86937e-07
1.34179e-07
3.86789e-07
-3.86451e-07
1.26992e-07
-3.85273e-07
1.19829e-07
-3.83359e-07
1.12696e-07
-3.80677e-07
1.056e-07
-3.77206e-07
9.85513e-08
-3.72941e-07
9.15588e-08
-3.6789e-07
8.46335e-08
-3.62075e-07
7.7785e-08
7.10207e-08
-3.55538e-07
-3.55694e-07
1.33634e-07
3.56239e-07
-3.54463e-07
1.25761e-07
-3.52493e-07
1.17859e-07
-3.49742e-07
1.09945e-07
-3.46177e-07
1.02036e-07
-3.4178e-07
9.4154e-08
-3.36543e-07
8.63216e-08
-3.30472e-07
7.85631e-08
-3.23591e-07
7.09036e-08
6.33682e-08
-3.15939e-07
-3.22388e-07
1.32563e-07
3.23459e-07
-3.20574e-07
1.23947e-07
-3.17972e-07
1.15257e-07
-3.14544e-07
1.06517e-07
-3.10264e-07
9.77562e-08
-3.05115e-07
8.90057e-08
-2.99093e-07
8.02994e-08
-2.92203e-07
7.16733e-08
-2.84465e-07
6.31655e-08
5.48172e-08
-2.75914e-07
-2.87998e-07
1.31108e-07
2.89453e-07
-2.85751e-07
1.217e-07
-2.82676e-07
1.12183e-07
-2.78747e-07
1.02588e-07
-2.73948e-07
9.29567e-08
-2.68272e-07
8.33298e-08
-2.61723e-07
7.37513e-08
-2.54317e-07
6.42667e-08
-2.46075e-07
5.49234e-08
4.57717e-08
-2.37029e-07
-2.53428e-07
1.29366e-07
2.5517e-07
-2.50858e-07
1.1913e-07
-2.47436e-07
1.08761e-07
-2.43151e-07
9.83029e-08
-2.38001e-07
8.78074e-08
-2.32001e-07
7.73293e-08
-2.25175e-07
6.69255e-08
-2.17563e-07
5.66547e-08
-2.09216e-07
4.65769e-08
3.67538e-08
-2.00198e-07
-2.19442e-07
1.27373e-07
2.21435e-07
-2.16594e-07
1.16282e-07
-2.12875e-07
1.05043e-07
-2.08285e-07
9.37129e-08
-2.02834e-07
8.23565e-08
-1.96547e-07
7.10419e-08
-1.89461e-07
5.98393e-08
-1.81627e-07
4.88207e-08
-1.73108e-07
3.80579e-08
2.76208e-08
-1.63975e-07
-1.86698e-07
1.25129e-07
1.88942e-07
-1.83579e-07
1.13163e-07
-1.79575e-07
1.01039e-07
-1.7469e-07
8.88278e-08
-1.6894e-07
7.66068e-08
-1.62356e-07
6.44575e-08
-1.5498e-07
5.24634e-08
-1.46869e-07
4.07092e-08
-1.3809e-07
2.92795e-08
1.82535e-08
-1.28723e-07
-1.55754e-07
1.22618e-07
1.58265e-07
-1.52362e-07
1.09772e-07
-1.4808e-07
9.67572e-08
-1.42912e-07
8.36592e-08
-1.36876e-07
7.05708e-08
-1.30006e-07
5.75878e-08
-1.22351e-07
4.48076e-08
-1.13973e-07
3.23316e-08
-1.04959e-07
2.02649e-08
8.70757e-09
-9.5413e-08
-1.27024e-07
1.19842e-07
1.29799e-07
-1.2338e-07
1.06128e-07
-1.18851e-07
9.22276e-08
-1.13434e-07
7.82424e-08
-1.07149e-07
6.42857e-08
-1.00031e-07
5.04699e-08
-9.21306e-08
3.6907e-08
-8.35147e-08
2.37156e-08
-7.42774e-08
1.10276e-08
-1.00394e-09
-6.45659e-08
-1.00728e-07
1.16884e-07
1.03686e-07
-9.69231e-08
1.02323e-07
-9.22351e-08
8.75395e-08
-8.6652e-08
7.26593e-08
-8.01986e-08
5.78323e-08
-7.29157e-08
4.3187e-08
-6.48531e-08
2.88441e-08
-5.60683e-08
1.49307e-08
-4.66432e-08
1.60249e-09
-1.09508e-08
-3.66964e-08
-7.69761e-08
1.13935e-07
7.99252e-08
-7.31793e-08
9.8526e-08
-6.84799e-08
8.28402e-08
-6.28446e-08
6.7024e-08
-5.63184e-08
5.13061e-08
-4.89428e-08
3.58113e-08
-4.07149e-08
2.06162e-08
-3.17241e-08
5.93986e-09
-2.19944e-08
-8.12719e-09
-2.1298e-08
-1.16472e-08
-5.58324e-08
1.11297e-07
5.84704e-08
-5.23037e-08
9.49973e-08
-4.77986e-08
7.83351e-08
-4.23134e-08
6.15387e-08
-3.57789e-08
4.47714e-08
-2.82303e-08
2.82626e-08
-1.96327e-08
1.20187e-08
-1.00723e-08
-3.62051e-09
2.37219e-10
-1.84367e-08
-3.2061e-08
1.10001e-08
-3.72109e-08
1.09394e-07
3.91135e-08
-3.43484e-08
9.21346e-08
-3.04074e-08
7.43941e-08
-2.52864e-08
5.64176e-08
-1.89679e-08
3.84527e-08
-1.13115e-08
2.06061e-08
-2.43907e-09
3.14621e-09
7.28657e-09
-1.33463e-08
1.76624e-08
-2.88126e-08
-4.2908e-08
2.85093e-08
-2.10087e-08
1.08741e-07
2.16618e-08
-1.92282e-08
9.03542e-08
-1.61076e-08
7.12734e-08
-1.16142e-08
5.19241e-08
-5.76225e-09
3.26007e-08
1.32323e-09
1.35207e-08
9.46883e-09
-4.9994e-09
1.87814e-08
-2.26589e-08
2.89633e-08
-3.89945e-08
-5.35779e-08
3.96332e-08
-7.25545e-09
1.10023e-07
5.97313e-09
-7.11419e-09
9.02129e-08
-5.2984e-09
6.94574e-08
-1.97458e-09
4.86001e-08
2.72205e-09
2.7904e-08
8.6702e-09
7.57255e-09
1.58278e-08
-1.2157e-08
2.40485e-08
-3.08796e-08
3.31426e-08
-4.80886e-08
-6.31753e-08
4.274e-08
4.0813e-09
1.14422e-07
-8.47977e-09
2.18586e-09
9.21081e-08
2.09395e-09
6.95492e-08
3.79033e-09
4.69037e-08
6.55292e-09
2.51414e-08
1.04035e-08
3.72196e-09
1.53137e-08
-1.7067e-08
2.11892e-08
-3.6755e-08
2.77966e-08
-5.46959e-08
-7.01278e-08
3.47492e-08
1.11512e-08
1.22554e-07
-1.92836e-08
6.9926e-09
9.62663e-08
6.05016e-09
7.04916e-08
5.22539e-09
4.77286e-08
5.02939e-09
2.53376e-08
5.53657e-09
3.21491e-09
6.77725e-09
-1.83077e-08
8.66471e-09
-3.86425e-08
1.09325e-08
-5.69637e-08
-7.23127e-08
1.31174e-08
2.05864e-08
1.26383e-07
-2.44153e-08
1.45077e-08
1.02345e-07
8.65243e-09
7.63468e-08
3.49669e-09
5.28845e-08
-1.15256e-09
2.99869e-08
-5.41128e-09
7.47374e-09
-9.28112e-09
-1.44378e-08
-1.29432e-08
-3.49803e-08
-1.67684e-08
-5.31387e-08
-6.7756e-08
-2.1325e-08
2.86808e-08
1.35854e-07
-3.81522e-08
1.90463e-08
1.1198e-07
8.44641e-09
8.69468e-08
-1.55579e-09
6.28868e-08
-1.11729e-08
3.9604e-08
-2.05752e-08
1.68759e-08
-2.99893e-08
-5.02373e-09
-3.97322e-08
-2.52374e-08
-5.02277e-08
-4.26437e-08
-5.59514e-08
-6.20319e-08
3.39169e-08
1.48579e-07
-4.66416e-08
1.87358e-08
1.27161e-07
4.48131e-09
1.01201e-07
-1.01693e-08
7.75375e-08
-2.32671e-08
5.27019e-08
-3.64504e-08
3.00591e-08
-5.01557e-08
8.68152e-09
-6.48359e-08
-1.05572e-08
-8.08819e-08
-2.6598e-08
-3.81357e-08
-9.86972e-08
3.5346e-08
1.64534e-07
-5.13011e-08
1.53514e-08
1.47156e-07
-6.05338e-09
1.22606e-07
-1.86472e-08
9.01311e-08
-3.22828e-08
6.63376e-08
-4.61773e-08
4.39535e-08
-6.08917e-08
2.3396e-08
-7.68036e-08
5.35449e-09
-9.40622e-08
-9.33935e-09
-1.96385e-08
-1.1256e-07
3.63508e-08
1.7915e-07
-5.0967e-08
9.79369e-09
1.73714e-07
-5.26728e-09
1.37667e-07
-1.78969e-08
1.02761e-07
-3.03754e-08
7.88163e-08
-4.30191e-08
5.65971e-08
-5.62261e-08
3.66032e-08
-7.01819e-08
1.93099e-08
-8.48253e-08
5.3044e-09
-4.73141e-09
-9.97326e-08
2.61989e-08
1.94112e-07
-4.11605e-08
1.44264e-08
1.85486e-07
2.96658e-09
1.49127e-07
-8.8566e-09
1.14584e-07
-1.89376e-08
8.88971e-08
-2.82812e-08
6.59406e-08
-3.73963e-08
4.57184e-08
-4.64424e-08
2.83556e-08
-5.52082e-08
1.40702e-08
3.09554e-09
-6.30352e-08
6.29772e-09
2.15367e-07
-2.75519e-08
2.97905e-10
1.91486e-07
2.33097e-10
1.49192e-07
-1.50812e-09
1.16325e-07
-3.39915e-09
9.07882e-08
-5.68902e-09
6.82307e-08
-8.43917e-09
4.84684e-08
-1.14395e-08
3.13557e-08
-1.42081e-08
1.68389e-08
4.87952e-09
-1.59924e-08
2.10835e-08
2.2704e-07
-3.27575e-08
1.84795e-08
1.94089e-07
2.30163e-08
1.44655e-07
2.69638e-08
1.12378e-07
3.02094e-08
8.75423e-08
3.25242e-08
6.59159e-08
3.40937e-08
4.68989e-08
3.53414e-08
3.01077e-08
3.68492e-08
1.53311e-08
2.4097e-09
3.93188e-08
6.96594e-08
2.33938e-07
-7.65569e-08
7.1324e-08
1.92424e-07
7.69998e-08
1.38979e-07
8.0598e-08
1.0878e-07
8.34142e-08
8.47261e-08
8.58714e-08
6.34585e-08
8.84221e-08
4.43482e-08
9.14714e-08
2.70584e-08
9.54544e-08
1.13479e-08
-2.99578e-09
1.0086e-07
1.04821e-07
2.23531e-07
-9.44144e-08
1.19838e-07
1.77408e-07
1.25055e-07
1.33763e-07
1.29191e-07
1.04643e-07
1.33117e-07
8.08004e-08
1.37283e-07
5.92926e-08
1.42071e-07
3.95602e-08
1.47838e-07
2.1291e-08
1.54961e-07
4.22459e-09
-1.18796e-08
1.63845e-07
1.20806e-07
2.01512e-07
-9.87868e-08
1.44052e-07
1.5416e-07
1.58162e-07
1.19653e-07
1.67935e-07
9.487e-08
1.76143e-07
7.25929e-08
1.83993e-07
5.14433e-08
1.92271e-07
3.12821e-08
2.01592e-07
1.19701e-08
2.12481e-07
-6.66412e-09
-2.48008e-08
2.25402e-07
1.57896e-07
1.71021e-07
-1.27405e-07
1.80264e-07
1.31793e-07
1.94845e-07
1.05072e-07
2.0617e-07
8.35443e-08
2.16475e-07
6.22881e-08
2.26863e-07
4.10554e-08
2.38119e-07
2.00256e-08
2.50866e-07
-7.76024e-10
2.65622e-07
-2.14208e-08
-4.19824e-08
2.82804e-07
1.9757e-07
1.40191e-07
-1.6674e-07
2.16276e-07
1.13086e-07
2.28796e-07
9.25515e-08
2.39922e-07
7.24183e-08
2.51276e-07
5.09345e-08
2.63772e-07
2.856e-08
2.7796e-07
5.83762e-09
2.94342e-07
-1.71578e-08
3.13338e-07
-4.0417e-08
-6.38211e-08
3.35177e-07
2.29702e-07
1.1905e-07
-2.08562e-07
2.43135e-07
9.96532e-08
2.54444e-07
8.1242e-08
2.65839e-07
6.10237e-08
2.78828e-07
3.79459e-08
2.94414e-07
1.2974e-08
3.12336e-07
-1.20839e-08
3.33311e-07
-3.8133e-08
3.57703e-07
-6.48097e-08
-9.15508e-08
3.85433e-07
2.38825e-07
1.04907e-07
-2.24683e-07
2.52546e-07
8.59325e-08
2.66198e-07
6.75898e-08
2.80433e-07
4.67884e-08
2.99002e-07
1.93774e-08
3.19999e-07
-8.02319e-09
3.43457e-07
-3.55414e-08
3.7086e-07
-6.55351e-08
4.02857e-07
-9.68078e-08
-1.2701e-07
4.38317e-07
2.24125e-07
9.01758e-08
-2.09394e-07
2.38969e-07
7.10891e-08
2.57974e-07
4.85846e-08
2.81495e-07
2.32682e-08
3.06021e-07
-5.14913e-09
3.34405e-07
-3.64069e-08
3.68393e-07
-6.95293e-08
4.06778e-07
-1.0392e-07
4.4769e-07
-1.3772e-07
-1.71595e-07
4.92274e-07
2.07768e-07
7.6305e-08
-1.93897e-07
2.26788e-07
5.20699e-08
2.49875e-07
2.5498e-08
2.77313e-07
-4.17016e-09
3.09479e-07
-3.73151e-08
3.47921e-07
-7.48485e-08
3.90749e-07
-1.12357e-07
4.36912e-07
-1.50084e-07
4.87123e-07
-1.87931e-07
-2.26888e-07
5.42416e-07
1.87203e-07
5.89974e-08
-1.69895e-07
2.09809e-07
2.94643e-08
2.39035e-07
-3.72852e-09
2.73767e-07
-3.89016e-08
3.14328e-07
-7.78768e-08
3.5818e-07
-1.187e-07
4.0686e-07
-1.61038e-07
4.60924e-07
-2.04148e-07
5.22089e-07
-2.49097e-07
-2.96119e-07
5.91321e-07
1.58688e-07
3.96992e-08
-1.3939e-07
1.84968e-07
3.18347e-09
2.1982e-07
-3.85802e-08
2.61094e-07
-8.01754e-08
3.07382e-07
-1.24165e-07
3.59858e-07
-1.71175e-07
4.1923e-07
-2.2041e-07
4.8653e-07
-2.71448e-07
5.64207e-07
-3.26773e-07
-3.88064e-07
6.56152e-07
1.33216e-07
1.69573e-08
-1.10474e-07
1.63583e-07
-2.71832e-08
2.00644e-07
-7.56416e-08
2.46856e-07
-1.26387e-07
3.01779e-07
-1.79088e-07
3.65426e-07
-2.34823e-07
4.39429e-07
-2.94413e-07
5.2738e-07
-3.59399e-07
6.32789e-07
-4.32183e-07
-5.10804e-07
7.55529e-07
1.03196e-07
-8.83427e-09
-7.74041e-08
1.38885e-07
-6.28724e-08
1.83688e-07
-1.20445e-07
2.38103e-07
-1.80802e-07
3.03273e-07
-2.44257e-07
3.82642e-07
-3.14192e-07
4.79815e-07
-3.91586e-07
5.98305e-07
-4.77888e-07
7.27725e-07
-5.61603e-07
-6.38313e-07
8.55234e-07
7.05085e-08
-3.78087e-08
-4.1534e-08
1.11864e-07
-1.04229e-07
1.63031e-07
-1.71611e-07
2.27491e-07
-2.45262e-07
3.15132e-07
-3.31899e-07
4.26764e-07
-4.25824e-07
5.56654e-07
-5.21476e-07
6.88367e-07
-6.09601e-07
8.1011e-07
-6.83346e-07
-7.42936e-07
9.14734e-07
4.0993e-08
-7.38169e-08
-4.98501e-09
8.5075e-08
-1.48311e-07
1.43236e-07
-2.29771e-07
2.29641e-07
-3.31667e-07
3.55217e-07
-4.57475e-07
4.95771e-07
-5.66378e-07
6.27753e-07
-6.53458e-07
7.41782e-07
-7.2363e-07
8.40918e-07
-7.82482e-07
-8.31667e-07
9.29649e-07
9.12703e-09
-1.00761e-07
1.78166e-08
5.20253e-08
-1.91208e-07
1.41807e-07
-3.19553e-07
2.8155e-07
-4.71411e-07
4.26927e-07
-6.02852e-07
5.51613e-07
-6.91064e-07
6.56974e-07
-7.58819e-07
7.51222e-07
-8.17878e-07
8.38615e-07
-8.69875e-07
-9.13682e-07
9.2063e-07
-3.94782e-08
-1.21504e-07
6.02212e-08
4.32187e-08
-2.73904e-07
2.00509e-07
-4.76843e-07
3.51872e-07
-6.22774e-07
4.64499e-07
-7.15479e-07
5.60833e-07
-7.87397e-07
6.51343e-07
-8.49329e-07
7.38124e-07
-9.04659e-07
8.20063e-07
-9.51813e-07
-9.88839e-07
8.9522e-07
-1.29532e-08
-1.54296e-07
4.57453e-08
1.32298e-07
-4.19156e-07
2.78426e-07
-6.2297e-07
3.81477e-07
-7.25825e-07
4.68857e-07
-8.02859e-07
5.52735e-07
-8.71276e-07
6.35338e-07
-9.31932e-07
7.14455e-07
-9.83777e-07
7.87664e-07
-1.02502e-06
-1.05375e-06
8.52578e-07
5.26572e-08
-2.4257e-07
3.56168e-08
2.0338e-07
-5.69879e-07
3.00008e-07
-7.19598e-07
3.81108e-07
-8.06925e-07
4.59508e-07
-8.81259e-07
5.35953e-07
-9.47721e-07
6.09577e-07
-1.00556e-06
6.78414e-07
-1.05261e-06
7.40136e-07
-1.08674e-06
-1.1061e-06
7.92487e-07
8.25915e-08
-4.33345e-07
1.08184e-07
2.07626e-07
-6.94914e-07
2.95032e-07
-8.07004e-07
3.71338e-07
-8.83231e-07
4.42195e-07
-9.52116e-07
5.09399e-07
-1.01493e-06
5.72453e-07
-1.06861e-06
6.29514e-07
-1.10968e-06
6.78394e-07
-1.13562e-06
-1.14489e-06
7.17181e-07
1.33171e-07
-6.08008e-07
4.1493e-08
2.32626e-07
-7.9437e-07
3.02408e-07
-8.76787e-07
3.63399e-07
-9.44223e-07
4.20913e-07
-1.00963e-06
4.75942e-07
-1.06996e-06
5.26925e-07
-1.11959e-06
5.71243e-07
-1.15399e-06
6.0656e-07
-1.17094e-06
-1.16983e-06
6.31494e-07
2.00852e-07
-7.08456e-07
-1.00405e-07
2.54522e-07
-8.4804e-07
3.00055e-07
-9.2232e-07
3.4483e-07
-9.88998e-07
3.90247e-07
-1.05505e-06
4.34825e-07
-1.11453e-06
4.75256e-07
-1.16002e-06
5.08218e-07
-1.18696e-06
5.31444e-07
-1.19417e-06
-1.18242e-06
5.4404e-07
1.89021e-07
-7.66332e-07
-1.31145e-07
2.3277e-07
-8.9179e-07
2.71503e-07
-9.61054e-07
3.10551e-07
-1.02805e-06
3.50409e-07
-1.0949e-06
3.88632e-07
-1.15276e-06
4.21334e-07
-1.19273e-06
4.45602e-07
-1.21122e-06
4.60133e-07
-1.2087e-06
-1.18737e-06
4.65083e-07
1.75129e-07
-8.20159e-07
-1.21303e-07
2.0891e-07
-9.25571e-07
2.40958e-07
-9.93102e-07
2.75448e-07
-1.06254e-06
3.1141e-07
-1.13087e-06
3.44798e-07
-1.18614e-06
3.7125e-07
-1.21918e-06
3.88536e-07
-1.22851e-06
3.961e-07
-1.21626e-06
-1.1852e-06
3.93923e-07
1.52856e-07
-8.59643e-07
-1.13373e-07
1.79402e-07
-9.52116e-07
2.08545e-07
-1.02224e-06
2.41899e-07
-1.09589e-06
2.76611e-07
-1.16558e-06
3.07367e-07
-1.2169e-06
3.3041e-07
-1.24222e-06
3.45055e-07
-1.24315e-06
3.51703e-07
-1.22291e-06
-1.18346e-06
3.49972e-07
1.33738e-07
-8.75239e-07
-1.18143e-07
1.54343e-07
-9.72721e-07
1.82326e-07
-1.05023e-06
2.15222e-07
-1.12879e-06
2.4843e-07
-1.19879e-06
2.76207e-07
-1.24468e-06
2.96522e-07
-1.26253e-06
3.10894e-07
-1.25753e-06
3.21424e-07
-1.23344e-06
-1.19167e-06
3.29632e-07
1.14539e-07
-8.82686e-07
-1.07091e-07
1.36073e-07
-9.94255e-07
1.6497e-07
-1.07913e-06
1.96845e-07
-1.16066e-06
2.26795e-07
-1.22874e-06
2.49637e-07
-1.26752e-06
2.65353e-07
-1.27825e-06
2.76761e-07
-1.26893e-06
2.85912e-07
-1.24259e-06
-1.19858e-06
2.92825e-07
1.09137e-07
-8.93045e-07
-9.87779e-08
1.31821e-07
-1.01694e-06
1.59134e-07
-1.10644e-06
1.87385e-07
-1.18891e-06
2.1212e-07
-1.25347e-06
2.29281e-07
-1.28468e-06
2.40968e-07
-1.28994e-06
2.50977e-07
-1.27894e-06
2.61464e-07
-1.25308e-06
-1.20915e-06
2.72034e-07
1.1146e-07
-9.08814e-07
-9.56908e-08
1.33082e-07
-1.03856e-06
1.56765e-07
-1.13012e-06
1.80328e-07
-1.21248e-06
1.99192e-07
-1.27234e-06
2.10809e-07
-1.2963e-06
2.1917e-07
-1.2983e-06
2.28662e-07
-1.28843e-06
2.42158e-07
-1.26657e-06
-1.22776e-06
2.60765e-07
1.07643e-07
-9.29698e-07
-8.67585e-08
1.28536e-07
-1.05945e-06
1.49603e-07
-1.15119e-06
1.6959e-07
-1.23246e-06
1.829e-07
-1.28565e-06
1.89373e-07
-1.30277e-06
1.94258e-07
-1.30318e-06
2.01817e-07
-1.29599e-06
2.1571e-07
-1.28047e-06
-1.25198e-06
2.3993e-07
9.64558e-08
-9.53573e-07
-7.25805e-08
1.16808e-07
-1.07981e-06
1.36568e-07
-1.17095e-06
1.53978e-07
-1.24987e-06
1.62003e-07
-1.29367e-06
1.63886e-07
-1.30465e-06
1.64943e-07
-1.30424e-06
1.68302e-07
-1.29935e-06
1.77267e-07
-1.28943e-06
-1.27157e-06
1.96853e-07
8.0396e-08
-9.78478e-07
-5.54919e-08
1.00042e-07
-1.09945e-06
1.19602e-07
-1.19051e-06
1.34655e-07
-1.26493e-06
1.37746e-07
-1.29676e-06
1.36139e-07
-1.30305e-06
1.34133e-07
-1.30223e-06
1.33569e-07
-1.29879e-06
1.3679e-07
-1.29265e-06
-1.28229e-06
1.47516e-07
6.29452e-08
-1.00016e-06
-4.12625e-08
8.12659e-08
-1.11777e-06
1.01665e-07
-1.21091e-06
1.13659e-07
-1.27692e-06
1.12173e-07
-1.29528e-06
1.07793e-07
-1.29867e-06
1.03027e-07
-1.29747e-06
9.85473e-08
-1.29431e-06
9.56942e-08
-1.2898e-06
-1.283e-06
9.6402e-08
4.74395e-08
-1.02818e-06
-1.94207e-08
6.65979e-08
-1.13693e-06
8.76249e-08
-1.23193e-06
9.41699e-08
-1.28346e-06
8.82857e-08
-1.28939e-06
8.15754e-08
-1.29196e-06
7.45369e-08
-1.29043e-06
6.67363e-08
-1.28651e-06
5.89574e-08
-1.28202e-06
-1.27669e-06
5.26433e-08
5.05636e-08
-1.02304e-06
-5.57016e-08
6.01568e-08
-1.14652e-06
7.66219e-08
-1.2484e-06
7.54118e-08
-1.28225e-06
6.63623e-08
-1.28034e-06
5.82928e-08
-1.28389e-06
5.02437e-08
-1.28238e-06
4.05634e-08
-1.27683e-06
2.9665e-08
-1.27112e-06
-1.26619e-06
1.91688e-08
1.72505e-08
-1.03949e-06
-7.98489e-10
3.94588e-08
-1.16873e-06
5.87668e-08
-1.26771e-06
5.49974e-08
-1.27849e-06
4.62057e-08
-1.27155e-06
3.80925e-08
-1.27577e-06
3.0556e-08
-1.27485e-06
2.05745e-08
-1.26685e-06
7.85843e-09
-1.25841e-06
-1.25293e-06
-5.39819e-09
5.45199e-09
-1.05721e-06
1.22651e-08
3.15358e-08
-1.19482e-06
4.65221e-08
-1.28269e-06
3.97241e-08
-1.27169e-06
3.10465e-08
-1.26287e-06
2.24122e-08
-1.26714e-06
1.59745e-08
-1.26841e-06
7.13929e-09
-1.25801e-06
-6.74525e-09
-1.24452e-06
-1.23677e-06
-2.2904e-08
5.28255e-09
-1.06456e-06
2.06211e-09
3.08341e-08
-1.22037e-06
3.82335e-08
-1.29009e-06
2.92529e-08
-1.26271e-06
2.05499e-08
-1.25417e-06
1.10822e-08
-1.25767e-06
5.44335e-09
-1.26277e-06
7.37364e-11
-1.25264e-06
-1.37023e-08
-1.23075e-06
-1.21639e-06
-3.40911e-08
5.64323e-09
-1.05177e-06
-1.84309e-08
3.17356e-08
-1.24646e-06
3.21838e-08
-1.29054e-06
2.17251e-08
-1.25225e-06
1.253e-08
-1.24498e-06
2.23228e-09
-1.24737e-06
-4.08446e-09
-1.25645e-06
-1.97533e-09
-1.25475e-06
-9.99024e-09
-1.22273e-06
-1.186e-06
-4.03773e-08
3.03106e-09
-1.00528e-06
-4.95171e-08
3.15013e-08
-1.27493e-06
2.66505e-08
-1.28569e-06
1.58799e-08
-1.24148e-06
6.82241e-09
-1.23592e-06
-3.36189e-09
-1.23719e-06
-1.45992e-08
-1.24522e-06
-6.03475e-09
-1.26332e-06
8.42324e-09
-1.23719e-06
-1.1306e-06
-4.69749e-08
-9.88463e-09
-7.55021e-08
2.65995e-08
2.01259e-08
1.22501e-08
5.85809e-09
-1.4689e-09
-1.38703e-08
-1.34313e-08
3.70375e-08