/*--------------------------------*- C++ -*----------------------------------*\
  =========                 |
  \\      /  F ield         | OpenFOAM: The Open Source CFD Toolbox
   \\    /   O peration     | Website:  https://openfoam.org
    \\  /    A nd           | Version:  8
     \\/     M anipulation  |
\*---------------------------------------------------------------------------*/
FoamFile
{
    version     2.0;
    format      ascii;
    class       volVectorField;
    location    "4.45";
    object      U;
}
// * * * * * * * * * * * * * * * * * * * * * * * * * * * * * * * * * * * * * //

dimensions      [0 1 -1 0 0 0 0];

internalField   nonuniform List<vector> 
9150
(
(0.053691 -0.428938 0)
(0.0878911 -0.622354 0)
(0.0731864 -0.631473 0)
(0.0486785 -0.643727 0)
(0.017095 -0.654441 0)
(-0.0169914 -0.654455 0)
(-0.0485937 -0.643764 0)
(-0.0731262 -0.631509 0)
(-0.0878568 -0.622391 0)
(-0.0536785 -0.42901 0)
(0.0406303 -0.522759 0)
(0.0573086 -0.625714 0)
(0.0421286 -0.613217 0)
(0.029419 -0.622455 0)
(0.0105269 -0.628866 0)
(-0.0104591 -0.628873 0)
(-0.0293616 -0.622474 0)
(-0.0420847 -0.613237 0)
(-0.0572767 -0.625725 0)
(-0.0406155 -0.522807 0)
(0.0251403 -0.557966 0)
(0.0324272 -0.613865 0)
(0.0230361 -0.604476 0)
(0.017271 -0.609988 0)
(0.0062674 -0.613195 0)
(-0.00622493 -0.613198 0)
(-0.0172344 -0.609997 0)
(-0.0230082 -0.604487 0)
(-0.032404 -0.613867 0)
(-0.0251278 -0.557991 0)
(0.0152815 -0.584714 0)
(0.017416 -0.607499 0)
(0.0117404 -0.60114 0)
(0.0088746 -0.603279 0)
(0.00325325 -0.6044 0)
(-0.00322903 -0.604401 0)
(-0.00885337 -0.603282 0)
(-0.0117241 -0.601144 0)
(-0.0174019 -0.607499 0)
(-0.0152738 -0.584723 0)
(0.00623307 -0.597155 0)
(0.00553582 -0.601409 0)
(0.00358821 -0.60004 0)
(0.00267851 -0.600347 0)
(0.000996209 -0.600483 0)
(-0.0009875 -0.600483 0)
(-0.00267082 -0.600347 0)
(-0.00358225 -0.600041 0)
(-0.00553062 -0.601408 0)
(-0.00623029 -0.597157 0)
(0.468978 -1.16085 1.62338e-24)
(0.283228 -1.08563 0)
(0.163571 -1.06896 0)
(0.0925955 -1.05733 0)
(0.0309524 -1.05279 0)
(-0.0297726 -1.05296 0)
(-0.0915401 -1.05782 0)
(-0.162694 -1.06971 0)
(-0.282614 -1.08664 0)
(-0.469225 -1.16229 -1.64035e-24)
(0.333973 -0.843914 4.50611e-25)
(0.287483 -0.936626 0)
(0.188595 -0.936653 0)
(0.108449 -0.936554 0)
(0.0360725 -0.938968 0)
(-0.0354037 -0.939086 0)
(-0.107872 -0.936879 0)
(-0.188153 -0.937108 0)
(-0.287327 -0.937196 0)
(-0.334152 -0.844653 -4.53993e-25)
(0.278734 -0.702173 7.25827e-26)
(0.25915 -0.804647 0)
(0.178343 -0.817415 0)
(0.104747 -0.828234 0)
(0.0350446 -0.836371 0)
(-0.0346416 -0.836441 0)
(-0.104407 -0.828425 0)
(-0.178113 -0.817678 0)
(-0.259084 -0.804941 0)
(-0.278802 -0.702499 -7.35397e-26)
(0.199444 -0.554082 2.88949e-25)
(0.216593 -0.709457 0)
(0.154443 -0.725834 0)
(0.0914413 -0.741956 0)
(0.0306635 -0.75388 0)
(-0.0304146 -0.753923 0)
(-0.0912361 -0.74207 0)
(-0.154308 -0.725976 0)
(-0.216557 -0.709605 0)
(-0.199475 -0.55427 -2.88754e-25)
(0.118257 -0.445468 -4.63495e-25)
(0.156138 -0.644347 -6.62712e-25)
(0.116782 -0.663778 -2.25056e-25)
(0.0709826 -0.681182 -1.47525e-25)
(0.0240429 -0.694184 -8.5293e-27)
(-0.0238834 -0.694209 -8.34588e-27)
(-0.0708523 -0.681247 -1.4706e-25)
(-0.116695 -0.663851 -2.24871e-25)
(-0.156106 -0.644421 -6.62632e-25)
(-0.118259 -0.445576 -4.63599e-25)
(0.0290339 -0.883911 0)
(-0.024257 -1.33912 0)
(0.0266311 -1.27656 0)
(0.00145811 -1.22754 0)
(0.00560681 -1.2242 0)
(-0.000309815 -1.22492 0)
(0.00819172 -1.22575 0)
(-0.0196731 -1.26861 0)
(0.0436529 -1.33944 0)
(-0.0160332 -0.945009 0)
(0.0558448 -0.890234 0)
(-0.0147623 -1.33481 0)
(0.0264217 -1.2727 0)
(0.0057418 -1.22551 0)
(0.00308795 -1.22279 0)
(0.00190099 -1.22359 0)
(0.00282662 -1.22479 0)
(-0.0203467 -1.27032 0)
(0.0273354 -1.33574 0)
(-0.0482268 -0.9181 0)
(0.0806757 -0.934844 0)
(-0.0184378 -1.34762 0)
(0.0181247 -1.27556 0)
(0.00927302 -1.23188 0)
(0.00196581 -1.22665 0)
(0.00234705 -1.22706 0)
(-0.00363979 -1.23207 0)
(-0.0145297 -1.2763 0)
(0.026403 -1.34948 0)
(-0.0767663 -0.952344 0)
(0.146769 -1.07401 0)
(0.00644852 -1.36626 0)
(0.0154502 -1.27124 0)
(0.0235308 -1.22581 0)
(0.00768154 -1.2145 0)
(-0.00429721 -1.21473 0)
(-0.0203 -1.22662 0)
(-0.0134093 -1.27226 0)
(-0.00127206 -1.36739 0)
(-0.14479 -1.08274 0)
(0.299693 -1.21588 0)
(0.129521 -1.32162 0)
(0.0695181 -1.20985 0)
(0.0570413 -1.16843 0)
(0.0211553 -1.15626 0)
(-0.0191261 -1.1565 0)
(-0.0553495 -1.16926 0)
(-0.0678216 -1.21097 0)
(-0.127098 -1.32271 0)
(-0.299434 -1.21966 0)
(0.0394028 0.00126146 0)
(0.0382956 0.00128757 0)
(0.0371657 0.0013088 0)
(0.0360155 0.001326 0)
(0.0348507 0.00133822 0)
(0.0336756 0.00134661 0)
(0.0324937 0.00135214 0)
(0.031308 0.00135476 0)
(0.0301221 0.00135415 0)
(0.0289393 0.00135022 0)
(0.038897 0.00325101 0)
(0.0378355 0.00333401 0)
(0.0367478 0.00340428 0)
(0.035638 0.00346108 0)
(0.0345112 0.00350353 0)
(0.0333721 0.00353423 0)
(0.0322245 0.00355392 0)
(0.0310729 0.00356275 0)
(0.0299213 0.0035606 0)
(0.0287739 0.00354734 0)
(0.034801 0.00532837 0)
(0.0337367 0.00545929 0)
(0.0326573 0.00556838 0)
(0.0315666 0.00565538 0)
(0.0304677 0.00572043 0)
(0.0293641 0.00576538 0)
(0.0282599 0.00579089 0)
(0.0271589 0.00579726 0)
(0.0260651 0.00578454 0)
(0.0249822 0.00575291 0)
(0.0303835 0.00744949 0)
(0.0293086 0.00760468 0)
(0.0282265 0.00773057 0)
(0.0271401 0.00782826 0)
(0.0260527 0.00789778 0)
(0.0249675 0.00794003 0)
(0.0238879 0.00795554 0)
(0.0228177 0.00794462 0)
(0.0217602 0.00790743 0)
(0.020719 0.00784431 0)
(0.0256686 0.0096041 0)
(0.024584 0.00977063 0)
(0.0234977 0.0099019 0)
(0.0224127 0.00999887 0)
(0.021332 0.0100615 0)
(0.0202586 0.0100903 0)
(0.0191955 0.0100857 0)
(0.0181461 0.0100478 0)
(0.0171136 0.00997706 0)
(0.0161012 0.00987361 0)
(0.0206166 0.0117801 0)
(0.0195247 0.0119477 0)
(0.0184354 0.0120747 0)
(0.0173512 0.0121616 0)
(0.0162751 0.0122085 0)
(0.0152099 0.0122155 0)
(0.0141586 0.012183 0)
(0.013124 0.0121112 0)
(0.0121091 0.0120002 0)
(0.0111167 0.0118503 0)
(0.0152096 0.0139726 0)
(0.0141115 0.0141338 0)
(0.0130189 0.0142496 0)
(0.0119343 0.01432 0)
(0.0108606 0.0143449 0)
(0.00980048 0.0143242 0)
(0.00875682 0.0142584 0)
(0.00773218 0.0141479 0)
(0.00672889 0.0139928 0)
(0.00574918 0.0137928 0)
(0.00943363 0.0161789 0)
(0.00832871 0.0163292 0)
(0.00723057 0.0164295 0)
(0.00614234 0.0164788 0)
(0.00506727 0.0164768 0)
(0.00400841 0.0164236 0)
(0.0029687 0.0163201 0)
(0.00195024 0.0161677 0)
(0.000953963 0.015967 0)
(-1.94914e-05 0.0157168 0)
(0.00327076 0.0184013 0)
(0.0021547 0.0185399 0)
(0.00104489 0.0186228 0)
(-5.37884e-05 0.0186472 0)
(-0.0011367 0.0186134 0)
(-0.00219996 0.0185219 0)
(-0.0032396 0.0183749 0)
(-0.00425382 0.0181773 0)
(-0.00524504 0.0179323 0)
(-0.00621694 0.0176365 0)
(-0.00330958 0.0206495 0)
(-0.00444645 0.0207815 0)
(-0.00558112 0.0208474 0)
(-0.00670324 0.0208425 0)
(-0.00780531 0.0207702 0)
(-0.0088828 0.0206308 0)
(-0.00992769 0.0204267 0)
(-0.0109364 0.0201749 0)
(-0.011919 0.0198909 0)
(-0.0128899 0.0195637 0)
(-0.0103587 0.0229426 0)
(-0.0115339 0.023085 0)
(-0.0127183 0.0231376 0)
(-0.0138843 0.0230904 0)
(-0.0150207 0.0229726 0)
(-0.0161306 0.0227764 0)
(-0.0171944 0.0224768 0)
(-0.0181942 0.0221389 0)
(-0.0191569 0.0218354 0)
(-0.0201213 0.0215155 0)
(-0.0179597 0.0252982 0)
(-0.019199 0.0255091 0)
(-0.0204809 0.0255705 0)
(-0.0217126 0.025419 0)
(-0.0228705 0.0252691 0)
(-0.0240253 0.0250771 0)
(-0.0251422 0.0246019 0)
(-0.0261592 0.0240981 0)
(-0.0271064 0.0237285 0)
(-0.0280372 0.0234169 0)
(-0.0262633 0.0277076 0)
(-0.0275611 0.0281953 0)
(-0.0290334 0.0284262 0)
(-0.0304019 0.0278527 0)
(-0.0314915 0.0274643 0)
(-0.0324272 0.0271721 0)
(-0.0333586 0.0266526 0)
(-0.0343492 0.0260779 0)
(-0.035352 0.025642 0)
(-0.0363308 0.0252809 0)
(-0.0357675 0.0302909 0)
(-0.0370606 0.0309868 0)
(-0.0382729 0.0311422 0)
(-0.039366 0.0300823 0)
(-0.0403908 0.0294094 0)
(-0.0413911 0.0289871 0)
(-0.0423658 0.0284827 0)
(-0.0433172 0.0279508 0)
(-0.0442873 0.0275491 0)
(-0.0453058 0.0272219 0)
(-0.0452997 0.0327737 0)
(-0.046351 0.033207 0)
(-0.0472737 0.0330872 0)
(-0.0482634 0.0321415 0)
(-0.0493842 0.0314953 0)
(-0.0505543 0.0310589 0)
(-0.0517778 0.0305865 0)
(-0.0530918 0.0301544 0)
(-0.0544461 0.0297968 0)
(-0.0557636 0.0294894 0)
(-0.055459 0.0345218 0)
(-0.0563008 0.0348744 0)
(-0.0572664 0.0348484 0)
(-0.058425 0.0344377 0)
(-0.0598117 0.0340385 0)
(-0.0613385 0.033752 0)
(-0.0629813 0.0334892 0)
(-0.0646912 0.0331751 0)
(-0.0663775 0.0327642 0)
(-0.0680135 0.0323671 0)
(-0.0658734 0.0367718 0)
(-0.0673832 0.0370652 0)
(-0.0688318 0.0372542 0)
(-0.070429 0.0373088 0)
(-0.072204 0.0372691 0)
(-0.0741404 0.0372819 0)
(-0.0762547 0.0373606 0)
(-0.0785091 0.0371489 0)
(-0.0806836 0.0365309 0)
(-0.0826648 0.0360355 0)
(-0.0776043 0.040521 0)
(-0.0797199 0.0406636 0)
(-0.0819079 0.0409798 0)
(-0.0842273 0.0413708 0)
(-0.0866836 0.0415685 0)
(-0.0892289 0.0419049 0)
(-0.0917906 0.0421345 0)
(-0.0942796 0.0418952 0)
(-0.096649 0.0409485 0)
(-0.0987771 0.0399193 0)
(-0.0915749 0.0452647 0)
(-0.094257 0.0455802 0)
(-0.097032 0.0461715 0)
(-0.0998786 0.0468139 0)
(-0.102831 0.0471795 0)
(-0.105865 0.047546 0)
(-0.108931 0.0475832 0)
(-0.111937 0.0470771 0)
(-0.114737 0.0455759 0)
(-0.117131 0.043677 0)
(-0.107366 0.0511879 0)
(-0.110486 0.0515854 0)
(-0.113606 0.0522337 0)
(-0.116752 0.0529111 0)
(-0.12 0.0534762 0)
(-0.123426 0.0539364 0)
(-0.127078 0.0541399 0)
(-0.130795 0.0533576 0)
(-0.134266 0.0512838 0)
(-0.137416 0.0488005 0)
(-0.124537 0.0572468 0)
(-0.127602 0.0579337 0)
(-0.130873 0.058725 0)
(-0.134237 0.0596791 0)
(-0.137826 0.0607807 0)
(-0.141853 0.061814 0)
(-0.146465 0.0626448 0)
(-0.151654 0.0619422 0)
(-0.156608 0.0587621 0)
(-0.160507 0.0555495 0)
(-0.142744 0.0636273 0)
(-0.146286 0.064413 0)
(-0.149858 0.0653825 0)
(-0.153523 0.0665351 0)
(-0.157093 0.0679072 0)
(-0.160705 0.0700642 0)
(-0.165541 0.0737038 0)
(-0.172463 0.0748216 0)
(-0.179759 0.0699307 0)
(-0.185184 0.0639298 0)
(-0.162785 0.0713875 0)
(-0.167017 0.0721058 0)
(-0.171713 0.0735815 0)
(-0.177277 0.0754634 0)
(-0.183183 0.0764772 0)
(-0.188396 0.0796258 0)
(-0.193083 0.0855597 0)
(-0.196999 0.088037 0)
(-0.20001 0.081757 0)
(-0.202701 0.071162 0)
(-0.183215 0.0804293 0)
(-0.188374 0.0817118 0)
(-0.193707 0.085178 0)
(-0.199627 0.0890988 0)
(-0.206028 0.0892596 0)
(-0.21154 0.0901941 0)
(-0.21539 0.0925364 0)
(-0.21696 0.0905955 0)
(-0.217294 0.0840585 0)
(-0.21866 0.0739378 0)
(-0.201295 0.0917331 0)
(-0.207366 0.0945075 0)
(-0.214014 0.0976988 0)
(-0.219359 0.100412 0)
(-0.223133 0.0992479 0)
(-0.224758 0.0957894 0)
(-0.224812 0.0948481 0)
(-0.225 0.0898434 0)
(-0.225334 0.0844549 0)
(-0.226346 0.0775374 0)
(-0.219078 0.10238 0)
(-0.223193 0.10523 0)
(-0.225909 0.106929 0)
(-0.227673 0.105722 0)
(-0.228773 0.101686 0)
(-0.230141 0.0965534 0)
(-0.23106 0.0948409 0)
(-0.23165 0.0911373 0)
(-0.232923 0.0869378 0)
(-0.23539 0.0829796 0)
(-0.231217 0.107347 0)
(-0.231999 0.107261 0)
(-0.232502 0.109114 0)
(-0.233702 0.106903 0)
(-0.234831 0.103893 0)
(-0.236104 0.0999637 0)
(-0.237457 0.0969203 0)
(-0.238658 0.0940524 0)
(-0.24024 0.0915047 0)
(-0.2426 0.0894017 0)
(-0.238082 0.11118 0)
(-0.241086 0.109925 0)
(-0.242708 0.110366 0)
(-0.243073 0.108603 0)
(-0.243572 0.10574 0)
(-0.244348 0.102405 0)
(-0.245329 0.0992682 0)
(-0.246396 0.0966132 0)
(-0.247529 0.0947741 0)
(-0.248631 0.0932398 0)
(-0.242065 0.11682 0)
(-0.244225 0.114742 0)
(-0.245708 0.11245 0)
(-0.246723 0.109885 0)
(-0.247528 0.107025 0)
(-0.248299 0.104003 0)
(-0.249078 0.10104 0)
(-0.249795 0.098309 0)
(-0.250282 0.0959072 0)
(-0.250357 0.0935686 0)
(-0.240828 0.121694 0)
(-0.24286 0.118402 0)
(-0.244405 0.115153 0)
(-0.245558 0.111915 0)
(-0.24642 0.108659 0)
(-0.247068 0.105402 0)
(-0.247533 0.102196 0)
(-0.247782 0.0990717 0)
(-0.24773 0.0959943 0)
(-0.247313 0.0927838 0)
(-0.236262 0.126062 0)
(-0.238046 0.121849 0)
(-0.239422 0.117807 0)
(-0.240427 0.113877 0)
(-0.241097 0.110025 0)
(-0.241463 0.106236 0)
(-0.241536 0.102499 0)
(-0.241309 0.0987957 0)
(-0.240761 0.0950711 0)
(-0.239886 0.091218 0)
(-0.228986 0.129671 0)
(-0.23036 0.124695 0)
(-0.231373 0.119908 0)
(-0.23203 0.115265 0)
(-0.232336 0.110735 0)
(-0.232301 0.10629 0)
(-0.231927 0.101906 0)
(-0.231218 0.0975512 0)
(-0.230177 0.0931833 0)
(-0.228821 0.088738 0)
(-0.21931 0.132257 0)
(-0.220177 0.126619 0)
(-0.220715 0.121141 0)
(-0.220909 0.115797 0)
(-0.22075 0.110562 0)
(-0.220232 0.105414 0)
(-0.219356 0.100333 0)
(-0.218124 0.0952947 0)
(-0.216548 0.0902709 0)
(-0.214645 0.0852259 0)
(-0.207394 0.133756 0)
(-0.207757 0.12751 0)
(-0.2078 0.121374 0)
(-0.2075 0.115335 0)
(-0.206839 0.109382 0)
(-0.205806 0.103504 0)
(-0.204397 0.0976918 0)
(-0.202613 0.0919342 0)
(-0.200465 0.0862186 0)
(-0.197968 0.0805276 0)
(-0.193508 0.134296 0)
(-0.19343 0.127438 0)
(-0.19302 0.120632 0)
(-0.192252 0.113878 0)
(-0.191106 0.107177 0)
(-0.189569 0.100534 0)
(-0.187635 0.0939505 0)
(-0.185304 0.0874307 0)
(-0.182585 0.0809764 0)
(-0.179493 0.0745863 0)
(-0.178067 0.134055 0)
(-0.177629 0.12654 0)
(-0.176834 0.119021 0)
(-0.175658 0.11151 0)
(-0.174083 0.10402 0)
(-0.172094 0.0965656 0)
(-0.169685 0.0891646 0)
(-0.166856 0.0818342 0)
(-0.163616 0.0745922 0)
(-0.159977 0.0674543 0)
(-0.161553 0.133209 0)
(-0.160837 0.124978 0)
(-0.159737 0.116695 0)
(-0.158234 0.108378 0)
(-0.156309 0.100051 0)
(-0.153953 0.0917421 0)
(-0.15116 0.0834789 0)
(-0.14793 0.0752926 0)
(-0.144271 0.0672157 0)
(-0.140195 0.0592821 0)
(-0.14446 0.131916 0)
(-0.143539 0.122915 0)
(-0.142212 0.113819 0)
(-0.140464 0.104656 0)
(-0.138283 0.0954613 0)
(-0.135664 0.0862698 0)
(-0.132606 0.0771204 0)
(-0.129115 0.0680537 0)
(-0.125201 0.059113 0)
(-0.120876 0.0503456 0)
(-0.127252 0.130301 0)
(-0.126177 0.120488 0)
(-0.124681 0.110549 0)
(-0.122755 0.100524 0)
(-0.120396 0.0904586 0)
(-0.117606 0.0803997 0)
(-0.114395 0.0703974 0)
(-0.11078 0.0605033 0)
(-0.106785 0.0507709 0)
(-0.102438 0.0412565 0)
(-0.110326 0.128432 0)
(-0.109118 0.117775 0)
(-0.107477 0.106974 0)
(-0.105399 0.0960823 0)
(-0.102887 0.0851567 0)
(-0.099948 0.0742588 0)
(-0.0965989 0.0634523 0)
(-0.092862 0.0528028 0)
(-0.0887665 0.0423764 0)
(-0.0843464 0.0322387 0)
(-0.0940195 0.126317 0)
(-0.0926803 0.114792 0)
(-0.0908993 0.103113 0)
(-0.0886757 0.091344 0)
(-0.0860141 0.0795561 0)
(-0.082926 0.067824 0)
(-0.0794296 0.0562244 0)
(-0.0755501 0.0448352 0)
(-0.0713195 0.0337338 0)
(-0.0667747 0.0229936 0)
(-0.078615 0.123944 0)
(-0.077141 0.111537 0)
(-0.0752221 0.0989669 0)
(-0.0728578 0.086312 0)
(-0.0700535 0.0736573 0)
(-0.066822 0.0610906 0)
(-0.0631835 0.048702 0)
(-0.0591661 0.0365831 0)
(-0.0548076 0.0248256 0)
(-0.050156 0.0135156 0)
(-0.0643138 0.121291 0)
(-0.0627116 0.108006 0)
(-0.0606688 0.0945464 0)
(-0.0581809 0.0810042 0)
(-0.0552521 0.0674815 0)
(-0.0518961 0.0540812 0)
(-0.048134 0.0409076 0)
(-0.0439944 0.0280701 0)
(-0.0395184 0.0156866 0)
(-0.0347658 0.00388245 0)
(-0.0512086 0.11839 0)
(-0.0495221 0.10425 0)
(-0.0474003 0.0899085 0)
(-0.0448318 0.0754769 0)
(-0.0418193 0.0610851 0)
(-0.0383804 0.0468526 0)
(-0.0345373 0.0328976 0)
(-0.0303136 0.0193575 0)
(-0.0257484 0.00637336 0)
(-0.0208983 -0.00588242 0)
(-0.039329 0.115377 0)
(-0.0376497 0.100395 0)
(-0.0355278 0.0851663 0)
(-0.0329444 0.0698306 0)
(-0.0299045 0.0545693 0)
(-0.0264219 0.0395249 0)
(-0.0225144 0.0248025 0)
(-0.0182067 0.0105494 0)
(-0.0135184 -0.00312698 0)
(-0.00846999 -0.0159926 0)
(-0.0286801 0.112492 0)
(-0.0271501 0.0966487 0)
(-0.0251478 0.0804978 0)
(-0.0226515 0.0642248 0)
(-0.0196562 0.0480335 0)
(-0.016139 0.0320919 0)
(-0.0120824 0.0164138 0)
(-0.00752088 0.00127013 0)
(-0.00254087 -0.0131865 0)
(0.00275804 -0.0266366 0)
(-0.0191885 0.110107 0)
(-0.0180187 0.093354 0)
(-0.0163281 0.0761934 0)
(-0.0140681 0.0588516 0)
(-0.0112172 0.0415324 0)
(-0.00772143 0.0243774 0)
(-0.00357219 0.00753495 0)
(0.00110815 -0.00854002 0)
(0.00617165 -0.0236771 0)
(0.0115055 -0.0375113 0)
(-0.0107854 0.108683 0)
(-0.0102112 0.0909026 0)
(-0.00899801 0.0725559 0)
(-0.00709246 0.0539419 0)
(-0.0045 0.0353148 0)
(-0.0012678 0.0168542 0)
(0.00256224 -0.00113557 0)
(0.00694798 -0.0181825 0)
(0.0118469 -0.0340398 0)
(0.0171107 -0.0483629 0)
(-0.00343483 0.108866 0)
(-0.00378024 0.0897561 0)
(-0.00328983 0.0699257 0)
(-0.00200075 0.0498532 0)
(2.87412e-05 0.0298576 0)
(0.00269885 0.0101517 0)
(0.00598407 -0.00897125 0)
(0.0098521 -0.027161 0)
(0.014214 -0.0439575 0)
(0.018939 -0.0588203 0)
(0.00307397 0.111679 0)
(0.00138016 0.0910107 0)
(0.000792955 0.0693241 0)
(0.00127599 0.0473809 0)
(0.00244404 0.0259764 0)
(0.00411523 0.00499852 0)
(0.00631208 -0.0153304 0)
(0.00902663 -0.0346019 0)
(0.0121854 -0.0522431 0)
(0.0156414 -0.0675751 0)
(0.00749056 0.117914 0)
(0.00443522 0.0935693 0)
(0.00291442 0.0692888 0)
(0.00267034 0.0464807 0)
(0.00249806 0.0243203 0)
(0.00256897 0.00246116 0)
(0.003003 -0.0187872 0)
(0.00380748 -0.0389035 0)
(0.00490522 -0.057157 0)
(0.00610189 -0.0726985 0)
(0.0112522 0.124492 0)
(0.00855668 0.098347 0)
(0.00559965 0.0719857 0)
(0.00310028 0.0490374 0)
(0.000545066 0.0264719 0)
(-0.00168746 0.00407794 0)
(-0.00369732 -0.0177387 0)
(-0.00552994 -0.0383047 0)
(-0.00731099 -0.0566999 0)
(-0.00938996 -0.0718785 0)
(0.016799 0.130255 0)
(0.0115364 0.106 0)
(0.00696732 0.0805089 0)
(0.00185616 0.0567397 0)
(-0.0032681 0.033589 0)
(-0.00794314 0.0109522 0)
(-0.0125979 -0.0110543 0)
(-0.0173076 -0.0315796 0)
(-0.0222869 -0.0495356 0)
(-0.0281071 -0.0636822 0)
(0.0199586 0.141019 0)
(0.0130314 0.118569 0)
(0.00625781 0.0938443 0)
(-0.00163041 0.0698388 0)
(-0.00849744 0.0456996 0)
(-0.0148766 0.0229302 0)
(-0.0215335 0.00117465 0)
(-0.0285459 -0.0186662 0)
(-0.0361964 -0.0354445 0)
(-0.0450972 -0.0477726 0)
(0.0215682 0.155724 0)
(0.0133162 0.136396 0)
(0.00264241 0.111758 0)
(-0.00718715 0.0840064 0)
(-0.0128416 0.0596344 0)
(-0.0194497 0.0370689 0)
(-0.0266138 0.016102 0)
(-0.034243 -0.00249087 0)
(-0.0425162 -0.0177373 0)
(-0.0516776 -0.0284159 0)
(0.0224651 0.172611 0)
(0.0133691 0.16065 0)
(-0.000320384 0.130487 0)
(-0.00682529 0.0966056 0)
(-0.011787 0.0728758 0)
(-0.018176 0.0507887 0)
(-0.0247358 0.0307039 0)
(-0.0315225 0.0132434 0)
(-0.038669 -0.000852186 0)
(-0.0461557 -0.0106805 0)
(0.0182911 0.187348 0)
(0.0109217 0.18258 0)
(0.0025147 0.145186 0)
(-0.00166719 0.110075 0)
(-0.00666282 0.0853248 0)
(-0.0117763 0.0627025 0)
(-0.0164435 0.0425908 0)
(-0.020979 0.0253095 0)
(-0.0254718 0.0112575 0)
(-0.0297298 0.000860435 0)
(0.00953873 0.204788 0)
(-0.000613266 0.189239 0)
(-0.000773044 0.15041 0)
(2.92246e-05 0.11741 0)
(-0.00107764 0.0916867 0)
(-0.00223036 0.0686797 0)
(-0.00350408 0.0484998 0)
(-0.00496875 0.0311561 0)
(-0.00648198 0.0166997 0)
(-0.00772813 0.00517413 0)
(0.0135474 0.221836 0)
(0.00754125 0.193452 0)
(0.0100019 0.147641 0)
(0.0127407 0.114735 0)
(0.0143912 0.0894117 0)
(0.0157623 0.067373 0)
(0.0167121 0.048116 0)
(0.0173599 0.0313046 0)
(0.0179714 0.016774 0)
(0.0188751 0.00440253 0)
(0.0360102 0.233017 0)
(0.0342461 0.195426 0)
(0.03735 0.142765 0)
(0.0395512 0.110675 0)
(0.0410321 0.0861346 0)
(0.0423142 0.0648201 0)
(0.0435359 0.0459393 0)
(0.0448855 0.029073 0)
(0.0465873 0.0139722 0)
(0.0488721 0.000442085 0)
(0.0486625 0.232063 0)
(0.0571662 0.187093 0)
(0.0613204 0.137761 0)
(0.063541 0.107895 0)
(0.0655543 0.0837835 0)
(0.0675714 0.0623008 0)
(0.0697647 0.0428321 0)
(0.072344 0.0250531 0)
(0.075512 0.00869722 0)
(0.0794598 -0.00647984 0)
(0.0534334 0.21501 0)
(0.067571 0.16691 0)
(0.0765456 0.127601 0)
(0.0815419 0.100635 0)
(0.0860088 0.0775099 0)
(0.0900327 0.0561493 0)
(0.0939934 0.0362273 0)
(0.0983086 0.0174981 0)
(0.103295 -0.000269285 0)
(0.10919 -0.0172994 0)
(0.0714022 0.18827 0)
(0.0860303 0.143007 0)
(0.0946481 0.112233 0)
(0.100175 0.0892641 0)
(0.105622 0.0677337 0)
(0.110781 0.0467578 0)
(0.116115 0.0263442 0)
(0.12203 0.0064458 0)
(0.128843 -0.0130524 0)
(0.136778 -0.0322862 0)
(0.0926332 0.153976 0)
(0.10472 0.120984 0)
(0.111553 0.0981993 0)
(0.117073 0.0778098 0)
(0.12271 0.0567841 0)
(0.128595 0.0353017 0)
(0.135196 0.01369 0)
(0.142773 -0.00799312 0)
(0.151574 -0.029767 0)
(0.161755 -0.0516337 0)
(0.110793 0.126782 0)
(0.11858 0.105584 0)
(0.124369 0.086867 0)
(0.130005 0.0671384 0)
(0.135981 0.0451504 0)
(0.14299 0.0216073 0)
(0.151326 -0.00220872 0)
(0.161012 -0.0264878 0)
(0.172327 -0.0511916 0)
(0.18536 -0.0760776 0)
(0.115972 0.111515 0)
(0.122898 0.0935146 0)
(0.129499 0.0756295 0)
(0.136432 0.0554254 0)
(0.14469 0.030439 0)
(0.154355 0.00464974 0)
(0.165407 -0.0211635 0)
(0.178101 -0.0491044 0)
(0.192906 -0.0783531 0)
(0.2098 -0.106997 0)
(0.10852 0.0985165 0)
(0.115457 0.0797185 0)
(0.123834 0.059484 0)
(0.134414 0.0365267 0)
(0.146418 0.00904601 0)
(0.159472 -0.0199986 0)
(0.175295 -0.050041 0)
(0.19359 -0.0823442 0)
(0.213046 -0.114819 0)
(0.234333 -0.146703 0)
(0.100156 0.0839017 0)
(0.10831 0.0621723 0)
(0.118536 0.0380752 0)
(0.131209 0.0113599 0)
(0.146148 -0.0190618 0)
(0.163544 -0.053521 0)
(0.18405 -0.0896246 0)
(0.20674 -0.125546 0)
(0.230429 -0.160676 0)
(0.256546 -0.196481 0)
(0.0885384 0.0678058 0)
(0.0987207 0.0416134 0)
(0.111643 0.0128232 0)
(0.127377 -0.0194342 0)
(0.146252 -0.0562975 0)
(0.167815 -0.0956984 0)
(0.190636 -0.134755 0)
(0.215974 -0.174357 0)
(0.244928 -0.215406 0)
(0.277453 -0.257472 0)
(0.0736972 0.0502783 0)
(0.0846388 0.0175468 0)
(0.100367 -0.0208 0)
(0.119824 -0.0592421 0)
(0.141318 -0.0993479 0)
(0.165812 -0.142141 0)
(0.193816 -0.187417 0)
(0.225228 -0.234115 0)
(0.261815 -0.282114 0)
(0.302921 -0.333508 0)
(0.0601026 0.0290324 0)
(0.0731161 -0.0109489 0)
(0.089933 -0.0552185 0)
(0.110877 -0.100854 0)
(0.136095 -0.14916 0)
(0.165661 -0.200438 0)
(0.199866 -0.253382 0)
(0.239831 -0.308087 0)
(0.287316 -0.370767 0)
(0.345835 -0.443297 0)
(0.0439373 0.00501169 0)
(0.0593017 -0.0434072 0)
(0.0794532 -0.0960967 0)
(0.104086 -0.151602 0)
(0.133647 -0.209014 0)
(0.170139 -0.268426 0)
(0.212911 -0.333824 0)
(0.267079 -0.410664 0)
(0.331617 -0.494251 0)
(0.396189 -0.578299 0)
(0.0264258 -0.0222725 0)
(0.0440766 -0.0824946 0)
(0.0670988 -0.145225 0)
(0.0957491 -0.210316 0)
(0.13287 -0.279185 0)
(0.182137 -0.35885 0)
(0.245498 -0.450099 0)
(0.311539 -0.544766 0)
(0.376172 -0.628592 0)
(0.433524 -0.697229 0)
(0.00950953 -0.0542204 0)
(0.029256 -0.126662 0)
(0.0547842 -0.197612 0)
(0.0893845 -0.277303 0)
(0.142903 -0.382338 0)
(0.213007 -0.493505 0)
(0.281903 -0.592995 0)
(0.344779 -0.674096 0)
(0.397285 -0.738256 0)
(0.443173 -0.789768 0)
(-0.00427231 -0.0912159 0)
(0.0126442 -0.167406 0)
(0.0427734 -0.257995 0)
(0.102168 -0.386835 0)
(0.178304 -0.53477 0)
(0.247993 -0.638795 0)
(0.303705 -0.713235 0)
(0.352231 -0.77393 0)
(0.398262 -0.827223 0)
(0.440691 -0.873777 0)
(-0.0287832 -0.112382 0)
(-0.00540065 -0.217982 0)
(0.0563887 -0.387379 0)
(0.141369 -0.559669 0)
(0.207165 -0.669939 0)
(0.25686 -0.744422 0)
(0.303431 -0.80589 0)
(0.347909 -0.862448 0)
(0.390268 -0.912508 0)
(0.429766 -0.953508 0)
(-0.0199237 -0.134514 0)
(0.0183093 -0.320621 0)
(0.108619 -0.564781 0)
(0.166949 -0.683412 0)
(0.212488 -0.761896 0)
(0.255789 -0.830507 0)
(0.297447 -0.8924 0)
(0.337998 -0.946554 0)
(0.376357 -0.99115 0)
(0.411193 -1.02434 0)
(-0.00629423 -0.151507 0)
(0.0691845 -0.517601 0)
(0.128092 -0.678656 0)
(0.169879 -0.767823 0)
(0.210322 -0.843645 0)
(0.249305 -0.911743 0)
(0.2869 -0.97145 0)
(0.322706 -1.02121 0)
(0.355604 -1.05917 0)
(0.384416 -1.08345 0)
(-0.0157685 -0.345047 0)
(0.0767661 -0.636371 0)
(0.128791 -0.765188 0)
(0.1664 -0.848019 0)
(0.203691 -0.919916 0)
(0.238449 -0.984481 0)
(0.2711 -1.04022 0)
(0.301324 -1.08444 0)
(0.328054 -1.11471 0)
(0.350243 -1.12918 0)
(0.0191617 -0.533966 0)
(0.0979103 -0.751529 0)
(0.134158 -0.847442 0)
(0.166046 -0.918066 0)
(0.196404 -0.984252 0)
(0.224697 -1.04535 0)
(0.251368 -1.09699 0)
(0.275462 -1.13491 0)
(0.295643 -1.15654 0)
(0.31086 -1.16061 0)
(0.0878576 -0.67943 0)
(0.117189 -0.828785 0)
(0.13721 -0.903304 0)
(0.160573 -0.968986 0)
(0.18394 -1.03428 0)
(0.206702 -1.09422 0)
(0.228237 -1.14209 0)
(0.246882 -1.17308 0)
(0.26117 -1.18535 0)
(0.270015 -1.17887 0)
(0.0831528 -0.731577 0)
(0.108263 -0.871183 0)
(0.124944 -0.943104 0)
(0.144977 -1.00978 0)
(0.165415 -1.07614 0)
(0.185308 -1.135 0)
(0.203361 -1.17807 0)
(0.217848 -1.20102 0)
(0.227648 -1.20343 0)
(0.231976 -1.18701 0)
(0.0757957 -0.800135 0)
(0.097467 -0.911679 0)
(0.111303 -0.978727 0)
(0.128581 -1.04618 0)
(0.146893 -1.11351 0)
(0.164722 -1.17026 0)
(0.179985 -1.20695 0)
(0.191064 -1.22071 0)
(0.197238 -1.21284 0)
(0.197904 -1.18604 0)
(0.06935 -0.845051 0)
(0.0831815 -0.940632 0)
(0.0957419 -1.00821 0)
(0.112098 -1.07936 0)
(0.129902 -1.14853 0)
(0.146782 -1.20224 0)
(0.160357 -1.23152 0)
(0.169716 -1.23625 0)
(0.174894 -1.2192 0)
(0.17572 -1.1829 0)
(0.0643124 -0.872704 0)
(0.0710626 -0.963248 0)
(0.0827981 -1.03622 0)
(0.0989744 -1.1125 0)
(0.11643 -1.18283 0)
(0.132069 -1.2319 0)
(0.143954 -1.25347 0)
(0.152387 -1.25103 0)
(0.158393 -1.22842 0)
(0.162447 -1.18765 0)
(0.0561782 -0.880232 0)
(0.0617885 -0.983299 0)
(0.0740067 -1.06484 0)
(0.0902897 -1.14544 0)
(0.106726 -1.21491 0)
(0.120082 -1.25743 0)
(0.129338 -1.27136 0)
(0.13578 -1.26355 0)
(0.140717 -1.23768 0)
(0.144447 -1.19415 0)
(0.0526291 -0.885121 0)
(0.0595643 -1.00527 0)
(0.0717564 -1.09343 0)
(0.0867368 -1.17586 0)
(0.100875 -1.24246 0)
(0.111194 -1.27742 0)
(0.117793 -1.28484 0)
(0.1228 -1.27386 0)
(0.127999 -1.24673 0)
(0.133383 -1.20151 0)
(0.0516571 -0.898127 0)
(0.0603063 -1.02746 0)
(0.0717808 -1.11878 0)
(0.0846768 -1.2015 0)
(0.0959982 -1.26418 0)
(0.103112 -1.29178 0)
(0.107349 -1.29499 0)
(0.111458 -1.28404 0)
(0.11774 -1.2594 0)
(0.124684 -1.21681 0)
(0.0475404 -0.917857 0)
(0.0580684 -1.04884 0)
(0.0690854 -1.14089 0)
(0.0805723 -1.22303 0)
(0.0893711 -1.28026 0)
(0.0934644 -1.30078 0)
(0.0955826 -1.30175 0)
(0.0985788 -1.29316 0)
(0.104726 -1.27436 0)
(0.110292 -1.24024 0)
(0.0405565 -0.941174 0)
(0.05235 -1.06981 0)
(0.0630514 -1.16129 0)
(0.0738247 -1.24178 0)
(0.0803049 -1.29102 0)
(0.0816738 -1.30481 0)
(0.0819333 -1.30466 0)
(0.0832246 -1.29882 0)
(0.0868899 -1.28657 0)
(0.0879419 -1.2639 0)
(0.031802 -0.966776 0)
(0.0443773 -1.09022 0)
(0.0548354 -1.18092 0)
(0.0651588 -1.25824 0)
(0.069315 -1.2966 0)
(0.0684901 -1.30474 0)
(0.067465 -1.30405 0)
(0.067066 -1.30018 0)
(0.0675751 -1.29279 0)
(0.0651897 -1.27975 0)
(0.0231003 -0.990963 0)
(0.0354533 -1.10957 0)
(0.0460905 -1.20088 0)
(0.0557532 -1.27213 0)
(0.0574561 -1.29721 0)
(0.0548453 -1.30148 0)
(0.0527801 -1.30047 0)
(0.0505643 -1.29745 0)
(0.0480084 -1.29254 0)
(0.0436911 -1.28452 0)
(0.0166773 -1.01574 0)
(0.0280988 -1.12783 0)
(0.0395169 -1.22128 0)
(0.0472357 -1.28151 0)
(0.0463826 -1.29303 0)
(0.042132 -1.2956 0)
(0.0392167 -1.29426 0)
(0.0354609 -1.29095 0)
(0.0306505 -1.28674 0)
(0.0253707 -1.28094 0)
(0.0191489 -1.0255 0)
(0.0258391 -1.14024 0)
(0.036241 -1.23967 0)
(0.0391803 -1.28401 0)
(0.0363612 -1.28507 0)
(0.0306593 -1.28798 0)
(0.0273762 -1.2864 0)
(0.0228594 -1.28188 0)
(0.0167774 -1.27708 0)
(0.011086 -1.27221 0)
(0.00500457 -1.03057 0)
(0.01198 -1.15638 0)
(0.0280905 -1.25885 0)
(0.0282313 -1.28151 0)
(0.0268123 -1.27604 0)
(0.0203398 -1.27989 0)
(0.0173646 -1.27833 0)
(0.0130264 -1.2717 0)
(0.00643616 -1.26504 0)
(0.000570809 -1.26019 0)
(0.00224042 -1.04924 0)
(0.00564373 -1.18191 0)
(0.0251706 -1.27728 0)
(0.0191444 -1.276 0)
(0.0200241 -1.26737 0)
(0.0122769 -1.27169 0)
(0.00964395 -1.27122 0)
(0.00614478 -1.26182 0)
(-0.00036102 -1.2515 0)
(-0.00615722 -1.24548 0)
(0.00593882 -1.06461 0)
(0.00271977 -1.20796 0)
(0.0256799 -1.2885 0)
(0.01216 -1.26764 0)
(0.015673 -1.25862 0)
(0.00634077 -1.26279 0)
(0.00399981 -1.26572 0)
(0.00174313 -1.25436 0)
(-0.00340692 -1.23764 0)
(-0.00868433 -1.22778 0)
(0.010998 -1.06499 0)
(-0.000731576 -1.23306 0)
(0.0274863 -1.29149 0)
(0.00699708 -1.25744 0)
(0.0125612 -1.24947 0)
(0.00157483 -1.25263 0)
(-0.000277484 -1.26066 0)
(-0.00223658 -1.252 0)
(-0.00255654 -1.22545 0)
(-0.00594189 -1.20466 0)
(0.0148695 -1.03382 0)
(-0.00597974 -1.25798 0)
(0.0287238 -1.28825 0)
(0.0031835 -1.24653 0)
(0.00985462 -1.24012 0)
(-0.00216159 -1.24168 0)
(-0.00241187 -1.25159 0)
(-0.00893353 -1.2562 0)
(0.00241297 -1.22001 0)
(-0.000393653 -1.16776 0)
(0.0166193 -0.974682 0)
(-0.0149609 -1.28922 0)
(0.0277751 -1.28242 0)
(0.000746479 -1.23602 0)
(0.00762771 -1.23125 0)
(-0.00262584 -1.23188 0)
(0.00191119 -1.23699 0)
(-0.0174627 -1.26536 0)
(0.0155464 -1.24678 0)
(-0.00383437 -1.09226 0)
(0.0276915 0.00134328 0)
(0.026384 0.00133109 0)
(0.0250949 0.00131241 0)
(0.02383 0.00128669 0)
(0.0225951 0.00125535 0)
(0.021395 0.00121895 0)
(0.0202346 0.00117743 0)
(0.0191175 0.00113446 0)
(0.018045 0.00109195 0)
(0.0170209 0.00104101 0)
(0.016048 0.000989672 0)
(0.0151261 0.000941187 0)
(0.0142531 0.000896164 0)
(0.0134268 0.000854666 0)
(0.012644 0.000817429 0)
(0.0119016 0.000783286 0)
(0.0111964 0.000750406 0)
(0.0105267 0.000716043 0)
(0.00989524 0.000675655 0)
(0.00929458 0.000671395 0)
(0.0086954 0.000753389 0)
(0.00811606 0.000775745 0)
(0.00756392 0.000718065 0)
(0.00703322 0.000677249 0)
(0.00651817 0.000657571 0)
(0.00600827 0.000636336 0)
(0.0054589 0.00075328 0)
(0.00486336 0.00079587 0)
(0.00424308 0.000784258 0)
(0.00361453 0.000812215 0)
(0.00296271 0.0008451 0)
(0.00224148 0.000933425 0)
(0.00143596 0.0010365 0)
(0.000579331 0.00109155 0)
(-0.000317731 0.0010625 0)
(-0.00118788 0.000897082 0)
(-0.00187064 0.000498795 0)
(-0.00214648 -0.000160425 0)
(-0.00188108 -0.000943858 0)
(-0.00103008 -0.00155695 0)
(0.0275623 0.00352163 0)
(0.0262937 0.0034801 0)
(0.0250461 0.00342301 0)
(0.0238253 0.00335022 0)
(0.0226362 0.0032639 0)
(0.0214834 0.00316483 0)
(0.0203711 0.00305438 0)
(0.0193036 0.00293459 0)
(0.0182855 0.00280719 0)
(0.0173186 0.00267267 0)
(0.0164034 0.00253587 0)
(0.0155411 0.00239992 0)
(0.0147321 0.00226797 0)
(0.0139755 0.00214235 0)
(0.0132691 0.00202505 0)
(0.0126095 0.00191671 0)
(0.0119921 0.0018169 0)
(0.0114106 0.00172395 0)
(0.0108569 0.00163646 0)
(0.0103289 0.00155504 0)
(0.00983092 0.0014804 0)
(0.00936014 0.00141238 0)
(0.00890366 0.00135662 0)
(0.00844658 0.00131896 0)
(0.00798482 0.00131584 0)
(0.00751446 0.00133627 0)
(0.00704308 0.00144379 0)
(0.00656766 0.00152638 0)