/*--------------------------------*- C++ -*----------------------------------*\
  =========                 |
  \\      /  F ield         | OpenFOAM: The Open Source CFD Toolbox
   \\    /   O peration     | Website:  https://openfoam.org
    \\  /    A nd           | Version:  8
     \\/     M anipulation  |
\*---------------------------------------------------------------------------*/
FoamFile
{
    version     2.0;
    format      ascii;
    class       surfaceScalarField;
    location    "1.1";
    object      phi;
}
// * * * * * * * * * * * * * * * * * * * * * * * * * * * * * * * * * * * * * //

dimensions      [0 3 -1 0 0 0 0];

internalField   nonuniform List<scalar> 
18095
(
1.93857e-08
-1.72031e-07
1.52645e-07
2.29417e-08
-1.98371e-07
1.94815e-07
1.88868e-08
-2.05525e-07
2.0958e-07
9.22907e-09
-2.10454e-07
2.20111e-07
-7.91681e-10
-2.13797e-07
2.23818e-07
-1.12788e-08
-2.13074e-07
2.23561e-07
-2.00685e-08
-2.10434e-07
2.19223e-07
-2.30942e-08
-2.05978e-07
2.09004e-07
-1.93954e-08
-1.98373e-07
1.94674e-07
-1.71963e-07
1.52567e-07
1.54687e-08
-1.875e-07
1.55664e-08
-1.98469e-07
1.23141e-08
-2.02273e-07
6.74641e-09
-2.04886e-07
-4.73678e-10
-2.06577e-07
-6.74476e-09
-2.06803e-07
-1.19203e-08
-2.05258e-07
-1.55913e-08
-2.02307e-07
-1.55106e-08
-1.98453e-07
-1.87473e-07
6.84624e-09
-1.94346e-07
8.24083e-09
-1.99863e-07
7.01585e-09
-2.01048e-07
4.13982e-09
-2.0201e-07
3.37802e-10
-2.02775e-07
-3.46162e-09
-2.03004e-07
-6.84632e-09
-2.01873e-07
-8.27022e-09
-2.00883e-07
-6.86827e-09
-1.99855e-07
-1.94342e-07
4.55958e-09
-1.98905e-07
4.62188e-09
-1.99926e-07
3.62644e-09
-2.00053e-07
2.04384e-09
-2.00427e-07
-8.78125e-11
-2.00644e-07
-2.46232e-09
-2.00629e-07
-3.95862e-09
-2.00377e-07
-4.66252e-09
-2.00179e-07
-4.56739e-09
-1.9995e-07
-1.98909e-07
1.09451e-09
1.16873e-09
1.11595e-09
6.88721e-10
4.50219e-11
-5.8435e-10
-9.61394e-10
-1.14047e-09
-1.09087e-09
-2.52807e-08
-1.97351e-07
2.22631e-07
-2.81074e-08
-1.98681e-07
2.01508e-07
-2.3944e-08
-2.0158e-07
1.97416e-07
-1.4e-08
-2.00709e-07
1.90765e-07
-1.11679e-09
-2.01703e-07
1.88819e-07
1.18762e-08
-2.01369e-07
1.88376e-07
2.29328e-08
-2.00794e-07
1.89738e-07
2.77434e-08
-2.01849e-07
1.97038e-07
2.51951e-08
-1.98621e-07
2.0117e-07
-1.97343e-07
2.22538e-07
-1.02424e-08
-1.87108e-07
-1.58045e-08
-1.93119e-07
-1.48863e-08
-2.02498e-07
-7.01045e-09
-2.08585e-07
9.9369e-11
-2.08812e-07
7.44251e-09
-2.08712e-07
1.50291e-08
-2.08381e-07
1.55229e-08
-2.02342e-07
1.01112e-08
-1.9321e-07
-1.87232e-07
-1.10699e-08
-1.76038e-07
-8.96671e-09
-1.95222e-07
-6.17877e-09
-2.05286e-07
-4.24066e-09
-2.10523e-07
-5.16317e-10
-2.12537e-07
3.3948e-09
-2.12623e-07
5.11383e-09
-2.101e-07
8.22928e-09
-2.05458e-07
1.07966e-08
-1.95777e-07
-1.76435e-07
-7.0431e-09
-1.68995e-07
-9.25755e-09
-1.93008e-07
-9.10544e-09
-2.05438e-07
-4.9607e-09
-2.14668e-07
-1.18865e-09
-2.16309e-07
3.44217e-09
-2.17254e-07
9.27821e-09
-2.15936e-07
9.7691e-09
-2.05949e-07
7.24844e-09
-1.93256e-07
-1.69187e-07
-1.635e-08
-1.45428e-08
-1.04005e-08
-4.95741e-09
2.55193e-09
8.85954e-09
1.2147e-08
1.52018e-08
1.66193e-08
3.30756e-08
-1.56847e-07
1.23771e-07
3.87747e-08
-1.98789e-07
1.9309e-07
3.16407e-08
-2.10066e-07
2.172e-07
1.85456e-08
-2.15353e-07
2.28448e-07
3.16968e-09
-2.17438e-07
2.32814e-07
-1.26969e-08
-2.17905e-07
2.33772e-07
-2.69676e-08
-2.16517e-07
2.30788e-07
-3.49953e-08
-2.11096e-07
2.19124e-07
-3.18492e-08
-1.98875e-07
1.95729e-07
-1.57114e-07
1.25264e-07
1.67822e-08
-1.73629e-07
1.94686e-08
-2.01476e-07
1.65747e-08
-2.07172e-07
1.06714e-08
-2.09449e-07
1.89372e-09
-2.0866e-07
-7.55818e-09
-2.08453e-07
-1.52412e-08
-2.08834e-07
-1.92815e-08
-2.07056e-07
-1.66185e-08
-2.01539e-07
-1.73732e-07
1.07629e-08
-1.84392e-07
1.0115e-08
-2.00828e-07
8.13669e-09
-2.05194e-07
3.13017e-09
-2.04443e-07
-6.96489e-10
-2.04833e-07
-4.37052e-09
-2.04779e-07
-8.37121e-09
-2.04834e-07
-1.00826e-08
-2.05345e-07
-1.07771e-08
-2.00844e-07
-1.84509e-07
8.09523e-09
-1.92487e-07
7.01781e-09
-1.9975e-07
7.22181e-09
-2.05398e-07
2.58992e-09
-1.99811e-07
4.62062e-10
-2.02706e-07
-1.5813e-09
-2.02736e-07
-6.52447e-09
-1.9989e-07
-6.57939e-09
-2.0529e-07
-7.88869e-09
-1.99535e-07
-1.92398e-07
3.01446e-08
3.19021e-08
2.3921e-08
1.48756e-08
9.89454e-10
-1.33705e-08
-2.35232e-08
-3.1775e-08
-3.01402e-08
-1.50485e-06
1.70429e-08
1.48781e-06
-1.5211e-06
1.62533e-08
-1.47374e-06
-4.73632e-08
-1.43871e-06
-3.50331e-08
-1.38049e-06
-5.82214e-08
-1.2977e-06
-8.27841e-08
-1.20674e-06
-9.09627e-08
-1.09833e-06
-1.08414e-07
-9.63062e-07
-1.35263e-07
-2.04198e-07
-7.58864e-07
-5.02308e-07
-5.48066e-08
5.74158e-07
-3.81457e-07
-1.04598e-07
-2.15157e-07
-2.13663e-07
4.52321e-09
-2.54712e-07
1.73429e-07
-2.27126e-07
2.71937e-07
-1.81293e-07
3.38867e-07
-1.57893e-07
3.69951e-07
-1.39498e-07
4.25984e-07
-1.91296e-07
-2.76974e-07
4.9876e-07
9.10825e-07
-1.08704e-07
-8.56928e-07
9.46983e-07
-1.40757e-07
9.91277e-07
-2.57957e-07
1.09151e-06
-3.54941e-07
1.23423e-06
-3.69852e-07
1.36671e-06
-3.13774e-07
1.47524e-06
-2.66418e-07
1.53549e-06
-1.99754e-07
1.44886e-06
-1.04667e-07
-1.80677e-07
1.35257e-06
7.52343e-07
-1.70224e-07
-6.90823e-07
8.30615e-07
-2.19028e-07
8.55018e-07
-2.8236e-07
8.56904e-07
-3.56827e-07
8.82004e-07
-3.94953e-07
9.39763e-07
-3.71534e-07
1.05074e-06
-3.77393e-07
1.19582e-06
-3.44836e-07
1.33502e-06
-2.43862e-07
-3.01635e-07
1.45597e-06
5.35729e-07
-1.79971e-07
-5.25983e-07
5.5314e-07
-2.36439e-07
5.68228e-07
-2.97448e-07
5.88523e-07
-3.77122e-07
6.4876e-07
-4.5519e-07
7.62251e-07
-4.85025e-07
9.15689e-07
-5.30831e-07
1.05951e-06
-4.8866e-07
1.3164e-06
-5.00749e-07
-6.48983e-07
1.66375e-06
2.32467e-07
-1.29622e-07
-2.82816e-07
1.81183e-07
-1.85154e-07
1.75512e-07
-2.91777e-07
2.3847e-07
-4.4008e-07
4.53176e-07
-6.69897e-07
7.22968e-07
-7.54816e-07
1.00356e-06
-8.11422e-07
1.30248e-06
-7.8758e-07
1.63915e-06
-8.37422e-07
-9.43121e-07
1.93329e-06
1.61758e-08
-3.7e-08
-1.08798e-07
-5.50385e-08
-1.1394e-07
-2.96339e-08
-3.17181e-07
2.156e-07
-6.85315e-07
6.281e-07
-1.0824e-06
9.70597e-07
-1.09731e-06
1.22954e-06
-1.07036e-06
1.50326e-06
-1.0613e-06
1.7603e-06
-1.09446e-06
-1.05679e-06
1.87397e-06
-2.60808e-07
-4.89266e-09
2.28701e-07
-2.86553e-07
-8.81953e-08
-6.27172e-08
-5.41017e-07
3.8772e-07
-1.13575e-06
7.34166e-07
-1.42884e-06
9.36011e-07
-1.29916e-06
1.1277e-06
-1.26205e-06
1.15596e-06
-1.08956e-06
9.37101e-07
-8.75605e-07
-5.8733e-07
4.67641e-07
-4.97037e-07
-2.1437e-08
5.13582e-07
-3.74548e-07
-2.10685e-07
-2.76611e-08
-8.87905e-07
2.19382e-07
-1.38279e-06
2.50763e-07
-1.46022e-06
8.4825e-08
-1.13322e-06
-6.54173e-08
-1.11181e-06
-6.87549e-08
-1.08622e-06
-2.49318e-07
-6.95042e-07
-2.7062e-07
-5.66025e-07
-5.20155e-07
-8.29001e-08
5.81618e-07
-3.45328e-07
-3.85511e-07
-1.70397e-07
-1.06284e-06
-6.21381e-08
-1.49105e-06
-1.8314e-07
-1.33922e-06
-4.22509e-07
-8.93852e-07
-4.63696e-07
-1.07062e-06
-4.56721e-07
-1.0932e-06
-5.98541e-07
-5.53221e-07
-2.41407e-07
-6.27756e-07
-2.58052e-07
-1.28366e-07
3.03517e-07
-2.96589e-07
-3.46976e-07
-2.80256e-07
-1.07917e-06
-1.00394e-07
-1.67092e-06
-2.07669e-07
-1.23195e-06
-3.41481e-07
-7.60039e-07
-5.48891e-07
-8.63208e-07
-6.1078e-07
-1.03131e-06
-6.88111e-07
-4.7589e-07
-2.28609e-07
-7.00905e-07
4.08638e-08
-6.04834e-08
-1.08746e-07
-4.5885e-08
-2.60226e-07
-2.58009e-07
-8.67045e-07
-2.58682e-07
-1.67024e-06
-2.36067e-07
-1.25456e-06
-3.11201e-07
-6.84907e-07
-6.18164e-07
-5.56246e-07
-7.05425e-07
-9.44051e-07
-6.23162e-07
-5.58156e-07
-1.96283e-07
-6.55489e-07
1.96128e-07
-2.07691e-08
-2.35843e-07
4.66287e-08
-1.10726e-07
-3.38157e-07
-4.8226e-07
-4.1948e-07
-1.58892e-06
-2.14498e-07
-1.45954e-06
-1.29092e-07
-7.70312e-07
-3.09734e-07
-3.75604e-07
-8.37735e-07
-4.1605e-07
-1.01185e-06
-3.84034e-07
-4.07798e-07
-8.00338e-07
4.07969e-07
-1.3528e-08
-4.1521e-07
2.82019e-07
1.5224e-08
-4.36487e-08
-1.56591e-07
-4.7593e-07
-1.15664e-06
-4.47785e-07
-1.48769e-06
-4.60015e-08
-1.1721e-06
-3.83686e-08
-3.83237e-07
-1.56006e-07
-2.98415e-07
-2.37761e-07
-3.02278e-07
-3.01057e-07
-3.44503e-07
1.20254e-07
5.2125e-08
-1.85907e-07
4.1279e-08
9.41994e-08
-1.19423e-07
4.11122e-09
-1.84445e-07
-1.09162e-06
-2.00182e-07
-1.47195e-06
9.25891e-08
-1.46487e-06
4.73366e-07
-7.64014e-07
4.61499e-07
-2.86547e-07
3.38884e-07
-1.79663e-07
-1.21158e-07
1.58984e-07
9.80232e-08
6.71029e-08
-1.13001e-07
4.36079e-08
1.48615e-07
-8.7149e-08
1.34868e-07
2.35891e-08
-1.20235e-06
4.84884e-09
-1.45321e-06
6.57584e-08
-1.52578e-06
5.28275e-07
-1.22653e-06
6.25448e-07
-3.8372e-07
4.85087e-07
-3.93031e-08
-3.05619e-08
3.94491e-07
1.33296e-07
1.30044e-07
-1.96238e-07
3.09809e-08
2.50931e-07
-1.91265e-07
3.57113e-07
-1.13534e-08
-1.38227e-06
1.28058e-07
-1.59262e-06
2.28276e-07
-1.626e-06
4.51649e-07
-1.4499e-06
6.96484e-07
-6.28556e-07
6.34294e-07
2.28875e-08
3.30281e-08
5.70704e-07
-8.04636e-08
3.45065e-07
-1.34557e-07
-3.63032e-07
5.33499e-07
-2.96277e-07
2.90359e-07
-5.29454e-08
-1.6256e-06
7.68237e-08
-1.72239e-06
1.94228e-07
-1.7434e-06
2.91165e-07
-1.54684e-06
4.32852e-07
-7.70243e-07
5.0064e-07
-4.49001e-08
-3.55353e-08
5.69203e-07
-2.34084e-07
5.04315e-07
7.48346e-08
-2.75617e-07
5.7503e-07
-1.02051e-07
1.16792e-07
-4.97607e-08
-1.67789e-06
1.48491e-08
-1.787e-06
6.03771e-08
-1.78893e-06
1.13091e-07
-1.59955e-06
3.7246e-08
-6.94398e-07
2.06692e-07
-2.14346e-07
-3.23106e-07
4.94263e-07
2.8902e-08
5.63899e-07
-8.84878e-08
-2.40666e-08
6.28004e-07
5.28285e-08
3.98985e-08
-1.26907e-08
-1.61237e-06
-6.19346e-09
-1.7935e-06
-5.53256e-09
-1.78959e-06
-1.87759e-07
-1.41733e-06
-4.52983e-07
-4.29174e-07
-4.20377e-07
-2.46953e-07
-4.39558e-07
-3.03924e-07
-1.28686e-07
5.89717e-07
1.02869e-07
-8.95861e-08
5.88906e-07
7.7592e-08
-1.27281e-07
-2.89719e-08
-1.50581e-06
-2.3964e-08
-1.79851e-06
-2.9396e-08
-1.78416e-06
-2.44831e-07
-1.20189e-06
-3.50856e-07
-3.23148e-07
-2.93076e-07
-3.04734e-07
-3.37446e-07
-3.95186e-07
-1.47327e-07
4.77229e-07
2.59817e-07
2.37908e-08
4.17784e-07
7.90895e-08
-1.82581e-07
6.73274e-09
-1.43345e-06
1.01726e-09
-1.79279e-06
6.11081e-09
-1.78925e-06
-1.61787e-07
-1.034e-06
-2.39551e-07
-2.45382e-07
-3.1624e-07
-2.28046e-07
-2.19856e-07
-4.33831e-07
-1.34633e-08
1.306e-07
3.60093e-07
1.21886e-07
2.82433e-07
5.29023e-08
-1.13596e-07
-2.55754e-08
-1.35497e-06
-9.96973e-09
-1.8084e-06
-1.11039e-08
-1.78811e-06
-1.20139e-07
-9.24961e-07
-1.60318e-07
-2.05202e-07
-1.9754e-07
-1.90825e-07
-9.42175e-08
-3.23181e-07
-7.35236e-08
-9.61722e-08
3.00295e-07
2.46949e-07
-3.80391e-08
1.44378e-07
-1.10245e-08
5.77012e-09
-1.21636e-06
3.15154e-09
-1.80578e-06
-2.51005e-09
-1.78245e-06
-1.45028e-07
-7.82442e-07
-1.12918e-07
-2.37311e-07
-1.19068e-07
-1.84677e-07
-4.94926e-08
-1.63796e-07
6.08021e-08
-2.00957e-07
4.39826e-08
1.86053e-07
-1.6329e-07
1.61617e-07
1.34113e-08
1.09827e-09
-1.05584e-06
5.27449e-09
-1.80995e-06
-2.23514e-08
-1.75483e-06
-2.17746e-07
-5.87047e-07
-2.20042e-07
-2.35017e-07
-2.0287e-07
-2.01851e-07
-1.10674e-07
-1.41685e-07
6.26561e-08
-2.87386e-07
2.37731e-08
6.77513e-08
-1.68383e-07
1.82631e-07
-1.01469e-07
1.65748e-07
-1.03896e-06
6.98461e-08
-1.71405e-06
-1.38326e-07
-1.54666e-06
-2.47994e-07
-4.7738e-07
-3.60477e-07
-1.22535e-07
-4.57898e-07
-1.04431e-07
-1.85442e-07
-3.8313e-07
-4.80607e-08
-3.9908e-07
1.59757e-07
5.41325e-08
-2.70576e-07
2.17535e-07
-2.64871e-07
2.67306e-07
-1.08873e-06
1.09604e-07
-1.55635e-06
-1.52118e-07
-1.28494e-06
-2.27449e-07
-4.02049e-07
-2.78118e-07
-7.18651e-08
-3.02125e-07
-8.0423e-08
-1.73175e-07
-3.14394e-07
-2.598e-07
-1.08026e-07
-3.1253e-08
-4.6855e-07
-6.18244e-08
-4.87756e-07
-2.45668e-07
-3.06374e-07
-1.27012e-06
-3.67052e-07
-1.49567e-06
-3.12039e-07
-1.33995e-06
-2.29919e-07
-4.84169e-07
-1.92803e-07
-1.08981e-07
-1.50428e-07
-1.22798e-07
-1.63116e-07
-1.60488e-07
-3.72606e-07
1.74324e-07
9.02573e-08
-5.8275e-07
1.4832e-07
-5.20605e-07
-3.07814e-07
-4.20988e-07
-1.36973e-06
-4.28955e-07
-1.48771e-06
-3.49076e-07
-1.41983e-06
2.17292e-08
-8.54975e-07
-3.2928e-08
-5.43243e-08
-5.45241e-08
-1.01201e-07
-2.39864e-08
-1.93652e-07
-2.27455e-07
3.29649e-07
7.21296e-08
-2.30461e-07
1.51318e-07
-1.38162e-07
-4.00113e-07
-2.62157e-08
-1.48168e-06
-1.37451e-08
-1.50018e-06
4.12766e-08
-1.47485e-06
4.17461e-07
-1.23116e-06
2.66065e-07
9.7073e-08
8.0384e-08
8.44805e-08
2.08979e-07
-1.52583e-07
-2.84581e-07
3.82022e-07
2.32209e-07
-2.56568e-07
1.23308e-07
-7.39165e-08
-5.82765e-07
-4.11569e-08
-1.51443e-06
2.46558e-09
-1.5438e-06
4.29838e-08
-1.51537e-06
2.20446e-07
-1.40862e-06
1.41438e-07
1.76081e-07
8.0673e-08
1.45246e-07
2.23569e-07
6.60809e-08
-3.14301e-07
3.5949e-07
3.36831e-07
-2.35521e-07
4.45289e-08
-6.79477e-08
-7.50336e-07
-4.07514e-08
-1.54163e-06
-1.26923e-08
-1.57186e-06
2.06736e-08
-1.54873e-06
1.39716e-07
-1.52766e-06
4.69804e-07
-1.54007e-07
4.18198e-07
1.96852e-07
1.26526e-07
5.15241e-07
-8.33023e-08
2.8807e-07
1.54726e-07
-5.11265e-08
1.23531e-08
7.62583e-09
-8.09089e-07
1.71435e-08
-1.55115e-06
1.79977e-08
-1.57271e-06
4.66327e-08
-1.57737e-06
6.63437e-08
-1.54738e-06
5.5971e-07
-6.47374e-07
7.99894e-07
-4.33307e-08
4.82092e-08
8.78211e-07
-6.24424e-09
2.71008e-07
2.33077e-08
6.84805e-08
-6.23717e-08
1.07254e-08
-7.51333e-07
5.74408e-09
-1.54616e-06
4.41542e-09
-1.57138e-06
2.86699e-09
-1.57582e-06
1.4801e-09
-1.54599e-06
1.42517e-07
-7.88412e-07
3.88031e-07
-2.88844e-07
-1.12971e-07
5.49212e-07
-1.21656e-07
2.8109e-07
1.11573e-07
-7.08618e-09
-1.76945e-07
-4.02564e-09
-7.54395e-07
-5.75912e-09
-1.54443e-06
-5.35163e-09
-1.57179e-06
-8.85816e-09
-1.57231e-06
-1.19997e-08
-1.54285e-06
2.10318e-08
-8.21443e-07
8.78679e-08
-3.55681e-07
-2.08564e-07
1.8346e-07
-1.35631e-07
2.28422e-07
1.88298e-07
-4.61396e-08
-2.66439e-07
4.16464e-09
-8.04697e-07
2.95603e-09
-1.54322e-06
-6.09702e-10
-1.56823e-06
-3.29663e-09
-1.56963e-06
-6.83396e-09
-1.53931e-06
1.90767e-08
-8.47353e-07
4.95687e-08
-3.86173e-07
-2.57179e-07
9.81853e-08
-9.21014e-08
7.91932e-08
2.41331e-07
-6.38453e-08
-2.947e-07
3.34424e-09
-8.71883e-07
1.38108e-09
-1.54126e-06
-1.74025e-09
-1.56511e-06
-4.36045e-09
-1.56701e-06
-8.02129e-09
-1.53565e-06
2.17547e-08
-8.77129e-07
3.1445e-08
-3.95864e-07
-2.7532e-07
4.95845e-08
-7.50295e-08
-6.55409e-08
2.19763e-07
-4.86423e-08
-3.2109e-07
-1.05835e-08
-9.09946e-07
-1.25451e-08
-1.5393e-06
-9.47921e-09
-1.56817e-06
-1.53988e-08
-1.56109e-06
-1.71287e-08
-1.53392e-06
1.14747e-08
-9.05732e-07
1.20589e-08
-3.96449e-07
-2.74636e-07
1.13737e-08
-9.60605e-08
-1.69114e-07
1.99634e-07
-2.56219e-08
-3.91521e-07
2.35949e-08
-9.59168e-07
2.39966e-08
-1.5397e-06
1.62588e-08
-1.56043e-06
2.16394e-08
-1.56647e-06
1.63974e-08
-1.52868e-06
-4.16973e-09
-8.85166e-07
-1.61766e-08
-3.84442e-07
-2.62481e-07
-2.83339e-08
-6.38141e-08
-2.28907e-07
1.23608e-07
-7.64276e-09
-4.47687e-07
1.96493e-09
-9.68775e-07
-2.80102e-09
-1.53494e-06
-3.52622e-09
-1.55971e-06
-1.25891e-08
-1.5574e-06
-2.17447e-08
-1.51952e-06
-5.2856e-08
-8.54056e-07
-5.5287e-08
-3.82013e-07
-2.5854e-07
-5.92299e-08
8.66927e-08
-2.13561e-07
-1.02037e-07
7.15806e-08
-4.32584e-07
3.24844e-08
-9.29677e-07
1.11506e-08
-1.5136e-06
-1.05242e-09
-1.5475e-06
-9.01055e-09
-1.54945e-06
-3.79909e-08
-1.49054e-06
-8.51339e-08
-8.06915e-07
-8.31802e-08
-3.83967e-07
-2.65537e-07
-7.61858e-08
1.73586e-07
-1.78213e-07
-2.08936e-07
1.32868e-07
-3.91872e-07
6.11366e-08
-8.57944e-07
1.58972e-08
-1.46836e-06
-3.83511e-09
-1.52777e-06
-2.44095e-08
-1.52887e-06
-6.73434e-08
-1.44761e-06
-1.16001e-07
-7.58259e-07
-1.06325e-07
-3.93644e-07
-2.83602e-07
-8.82611e-08
1.57012e-07
-1.53426e-07
-1.81801e-07
1.36955e-07
-3.71812e-07
9.1704e-08
-8.12693e-07
3.57727e-08
-1.41243e-06
2.29286e-09
-1.49429e-06
-3.32554e-08
-1.49332e-06
-7.77982e-08
-1.40307e-06
-1.20104e-07
-7.15954e-07
-1.10616e-07
-4.0313e-07
-3.03315e-07
-9.09033e-08
1.24232e-07
-1.50962e-07
-1.26697e-07
1.15406e-07
-3.62981e-07
8.66261e-08
-7.83912e-07
3.5405e-08
-1.36121e-06
1.40187e-10
-1.45903e-06
-3.75645e-08
-1.45562e-06
-7.45596e-08
-1.36607e-06
-1.0464e-07
-6.85874e-07
-9.82448e-08
-4.09524e-07
-3.18232e-07
-8.33277e-08
8.59387e-08
-1.57785e-07
-7.91143e-08
8.6541e-08
-3.63587e-07
6.05861e-08
-7.57955e-07
3.82829e-08
-1.3389e-06
1.49894e-09
-1.42224e-06
-2.92294e-08
-1.42489e-06
-5.49816e-08
-1.34031e-06
-7.57403e-08
-6.65117e-07
-7.40095e-08
-4.11255e-07
-3.25629e-07
-6.66125e-08
4.68356e-08
-1.7609e-07
-2.85302e-08
5.19601e-08
-3.68712e-07
2.68903e-08
-7.32882e-07
1.77512e-08
-1.32977e-06
-3.142e-09
-1.40135e-06
-3.41029e-08
-1.39393e-06
-3.51886e-08
-1.33922e-06
-5.44451e-08
-6.45861e-07
-6.39085e-08
-4.01791e-07
-3.30468e-07
-5.90679e-08
3.83746e-09
-1.96047e-07
1.61168e-08
1.31594e-08
-3.78031e-07
3.12523e-09
-7.22845e-07
1.62408e-08
-1.34288e-06
-2.14428e-09
-1.38297e-06
-1.58203e-08
-1.38026e-06
-1.21265e-08
-1.34292e-06
-2.60828e-08
-6.31905e-07
-4.22547e-08
-3.85621e-07
-3.2813e-07
-4.45923e-08
-2.0972e-08
-2.15364e-07
4.02845e-08
-1.09742e-08
-3.88029e-07
-1.16881e-08
-7.22135e-07
4.25372e-09
-1.35883e-06
-4.94405e-09
-1.37377e-06
-1.4072e-08
-1.37113e-06
1.04698e-10
-1.35709e-06
3.89154e-09
-6.35692e-07
-5.34665e-09
-3.76385e-07
-3.20199e-07
-1.32781e-08
-3.65718e-08
-2.35136e-07
5.63426e-08
-1.98319e-08
-4.04759e-07
2.79888e-09
-7.4477e-07
1.08362e-08
-1.36687e-06
2.85531e-10
-1.36322e-06
-1.98892e-09
-1.36885e-06
9.69057e-10
-1.36005e-06
1.19769e-08
-6.46699e-07
5.08348e-09
-3.69493e-07
-3.13841e-07
-1.27267e-09
-6.22185e-08
-2.54977e-07
8.20609e-08
-4.43241e-08
-4.22648e-07
-2.78585e-08
-7.61237e-07
-3.13429e-08
-1.36339e-06
-2.72016e-08
-1.36736e-06
-4.04906e-08
-1.35557e-06
-4.3565e-08
-1.35698e-06
1.81137e-10
-6.90444e-07
-1.50524e-10
-3.69159e-07
-2.99179e-07
-1.48112e-08
-5.20687e-08
-2.85062e-07
8.2153e-08
-2.26518e-08
-4.5208e-07
1.80626e-08
-8.01946e-07
1.27682e-08
-1.35809e-06
7.15136e-09
-1.36174e-06
6.09298e-09
-1.35451e-06
-1.07277e-09
-1.34981e-06
3.66118e-08
-7.28127e-07
3.99818e-08
-3.72527e-07
-2.9624e-07
3.70439e-08
-4.15154e-08
-3.21268e-07
7.77168e-08
-7.40876e-09
-4.862e-07
5.38062e-08
-8.63162e-07
4.92256e-08
-1.35351e-06
3.65922e-08
-1.34911e-06
4.24048e-08
-1.36032e-06
3.50101e-08
-1.34242e-06
4.02575e-08
-7.33372e-07
4.63482e-08
-3.78615e-07
-2.98241e-07
4.83495e-08
-3.63519e-08
-3.5891e-07
7.39935e-08
-7.43033e-09
-5.15108e-07
5.7958e-09
-8.76386e-07
-2.76073e-09
-1.34495e-06
-7.35688e-10
-1.35114e-06
-1.35676e-08
-1.34749e-06
-2.07462e-08
-1.33524e-06
-8.3621e-09
-7.45755e-07
2.217e-08
-4.09146e-07
-3.08322e-07
3.22504e-08
-1.2355e-08
-4.05647e-07
5.90944e-08
2.21633e-08
-5.49616e-07
2.3013e-08
-8.77236e-07
1.29634e-08
-1.3349e-06
2.15619e-09
-1.34033e-06
-6.20055e-09
-1.33913e-06
-1.80167e-08
-1.32342e-06
-3.53115e-08
-7.28461e-07
-3.83236e-09
-4.40625e-07
-3.04016e-07
-8.13863e-09
5.78376e-09
-4.57578e-07
4.61502e-08
4.43901e-08
-5.88219e-07
3.17759e-08
-8.64622e-07
1.38678e-08
-1.317e-06
-4.87622e-10
-1.32597e-06
-1.34463e-08
-1.32617e-06
-3.63737e-08
-1.3005e-06
-1.27592e-07
-6.37243e-07
-1.649e-07
-4.03317e-07
-2.65341e-07
-2.03575e-07
1.13311e-08
-5.23688e-07
5.47789e-08
6.44813e-08
-6.41368e-07
5.5015e-08
-8.5515e-07
1.76407e-08
-1.27962e-06
-5.63604e-10
-1.30777e-06
-1.91864e-08
-1.30755e-06
-6.18892e-08
-1.25779e-06
-2.08425e-07
-4.90708e-07
-3.25736e-07
-2.86005e-07
-2.55438e-07
-3.35639e-07
-5.35924e-09
-6.07024e-07
8.86945e-08
6.05895e-08
-7.07328e-07
6.45827e-08
-8.59147e-07
1.89901e-08
-1.23403e-06
9.2501e-11
-1.28887e-06
-2.20439e-08
-1.28541e-06
-6.35694e-08
-1.21627e-06
-1.57588e-07
-3.96689e-07
-2.80712e-07
-1.62881e-07
-2.32781e-07
-3.03369e-07
-5.45963e-08
-7.02516e-07
1.50088e-07
2.10601e-08
-7.82982e-07
4.35781e-08
-8.81665e-07
2.72362e-08
-1.21769e-06
5.33206e-09
-1.26697e-06
-1.54976e-08
-1.26458e-06
-2.57945e-08
-1.20597e-06
-2.86143e-08
-3.93869e-07
-1.33038e-07
-5.84571e-08
-1.75897e-07
-1.89922e-07
-1.21321e-07
-8.08027e-07
2.2683e-07
-3.26859e-08
-8.7162e-07
2.38379e-08
-9.38191e-07
3.47487e-08
-1.2286e-06
1.05758e-08
-1.24279e-06
-7.53336e-09
-1.24647e-06
-2.69765e-09
-1.2108e-06
3.85948e-08
-4.35162e-07
4.12225e-08
-6.10855e-08
-8.96195e-08
-4.50559e-08
-1.74332e-07
-9.19856e-07
2.86161e-07
-7.71616e-08
-9.68791e-07
9.68724e-10
-1.01632e-06
1.17657e-08
-1.23939e-06
-4.99837e-09
-1.22603e-06
-2.88116e-08
-1.22266e-06
-1.67601e-08
-1.22286e-06
-2.298e-08
-4.28942e-07
-1.3346e-08
-7.07204e-08
-4.12293e-08
-6.17367e-08
-1.76457e-07
-1.02885e-06
2.85455e-07
-7.77017e-08
-1.06755e-06
1.6559e-08
-1.11058e-06
2.28076e-08
-1.24565e-06
1.99973e-09
-1.20522e-06
-1.52124e-08
-1.20545e-06
-2.03647e-08
-1.2177e-06
-3.77844e-08
-4.11523e-07
-1.01838e-07
-6.66823e-09
1.51679e-08
-1.58236e-07
-1.43107e-07
-1.11719e-06
2.31447e-07
-5.80735e-08
-1.15258e-06
2.2205e-08
-1.19086e-06
1.30854e-08
-1.23653e-06
-2.60843e-09
-1.18953e-06
-1.9826e-08
-1.18823e-06
-3.56992e-08
-1.20183e-06
-3.84742e-08
-4.08749e-07
-1.50058e-07
1.04914e-07
1.04118e-07
-2.39009e-07
-9.1684e-08
-1.17642e-06
1.50908e-07
-3.0621e-08
-1.21365e-06
3.37451e-08
-1.25523e-06
1.42926e-08
-1.21708e-06
-8.35232e-10
-1.1744e-06
-1.57616e-08
-1.17331e-06
-2.88479e-08
-1.18875e-06
2.87808e-10
-4.37885e-07
-1.0241e-07
2.07611e-07
2.29279e-07
-2.27571e-07
-3.66405e-08
-1.20621e-06
6.64334e-08
-3.19566e-09
-1.24711e-06
3.55892e-08
-1.29402e-06
1.35018e-08
-1.19499e-06
3.17795e-10
-1.16122e-06
-1.17401e-08
-1.16125e-06
-2.58917e-08
-1.17459e-06
1.66344e-08
-4.80411e-07
-4.83561e-08
2.72602e-07
3.32599e-07
-1.51677e-07
1.74434e-08
-1.2068e-06
-1.68547e-08
1.75339e-08
-1.2472e-06
3.04175e-08
-1.3069e-06
1.40222e-08
-1.17859e-06
7.28458e-10
-1.14792e-06
-1.2688e-08
-1.14783e-06
-2.73025e-08
-1.15998e-06
1.8419e-08
-5.26133e-07
-1.89951e-08
3.10016e-07
3.83424e-07
-6.98197e-08
7.9683e-08
-1.18056e-06
-1.05928e-07
4.73824e-08
-1.2149e-06
3.21108e-08
-1.29163e-06
1.45218e-08
-1.16101e-06
4.99568e-10
-1.1339e-06
-1.39197e-08
-1.13341e-06
-2.8862e-08
-1.14504e-06
1.06186e-08
-5.65614e-07
1.76377e-08
3.02997e-07
3.98088e-07
2.97311e-09
1.4485e-07
-1.12363e-06
-2.01786e-07
8.09357e-08
-1.15098e-06
3.53876e-08
-1.24608e-06
1.51181e-08
-1.14074e-06
-2.28349e-10
-1.11855e-06
-1.58714e-08
-1.11777e-06
-3.09169e-08
-1.12999e-06
7.04449e-09
-6.03575e-07
6.77788e-08
2.42263e-07
3.97797e-07
6.80704e-08
2.06428e-07
-1.03525e-06
-2.948e-07
1.12014e-07
-1.05658e-06
3.66752e-08
-1.17075e-06
1.78878e-08
-1.12195e-06
4.75529e-10
-1.10114e-06
-1.64643e-08
-1.10083e-06
-3.26734e-08
-1.11378e-06
-1.66107e-08
-6.19638e-07
5.00239e-08
1.75628e-07
3.89107e-07
5.87134e-08
2.50172e-07
-9.23628e-07
-3.61797e-07
1.33492e-07
-9.39897e-07
3.77027e-08
-1.07496e-06
1.72587e-08
-1.1015e-06
2.76579e-10
-1.08416e-06
-1.70653e-08
-1.08349e-06
-3.38692e-08
-1.09698e-06
-3.24847e-08
-6.21022e-07
-6.09259e-09
1.49237e-07
3.68292e-07
1.47231e-08
2.75518e-07
-7.91016e-07
-4.08132e-07
1.43845e-07
-8.08221e-07
3.73639e-08
-9.68476e-07
1.94763e-08
-1.08362e-06
-1.10497e-10
-1.06457e-06
-1.92782e-08
-1.06432e-06
-3.57531e-08
-1.0805e-06
-4.13533e-08
-6.15422e-07
-4.98522e-08
1.57736e-07
3.61229e-07
-4.27887e-08
3.00987e-07
-6.39292e-07
-4.52711e-07
1.54459e-07
-6.61693e-07
3.80412e-08
-8.52058e-07
1.88327e-08
-1.06441e-06
-2.41049e-10
-1.0455e-06
-1.98007e-08
-1.04476e-06
-3.67608e-08
-1.06354e-06
-3.99056e-08
-6.12277e-07
-6.65419e-08
1.84372e-07
3.76184e-07
-8.14977e-08
3.03592e-07
-4.78401e-07
-4.64483e-07
1.52357e-07
-5.1046e-07
3.8825e-08
-7.38527e-07
1.95339e-08
-1.04512e-06
-4.89228e-10
-1.02548e-06
-2.04513e-08
-1.0248e-06
-3.76906e-08
-1.0463e-06
-3.37949e-08
-6.16173e-07
-6.2649e-08
2.13226e-07
4.08478e-07
-9.49427e-08
3.24824e-07
-2.95231e-07
-5.07993e-07
1.53351e-07
-3.38988e-07
3.79593e-08
-6.23136e-07
1.93075e-08
-1.02647e-06
-3.48586e-10
-1.00582e-06
-1.99504e-08
-1.0052e-06
-3.78033e-08
-1.02845e-06
-2.46602e-08
-6.29316e-07
-4.47893e-08
2.33355e-07
4.43389e-07
-7.97008e-08
3.26362e-07
-1.08722e-07
-5.12871e-07
1.47961e-07
-1.60589e-07
4.009e-08
-5.15265e-07
2.04788e-08
-1.00685e-06
-2.79704e-10
-9.85062e-07
-2.10737e-08
-9.84402e-07
-3.91014e-08
-1.01042e-06
-2.03593e-08
-6.48058e-07
-2.77878e-08
2.40785e-07
4.69889e-07
-5.42866e-08
1.97734e-07
9.16178e-09
-3.1562e-07
8.18599e-08
-4.47131e-08
3.7864e-08
-4.71269e-07
1.87987e-08
-9.87789e-07
-2.56463e-10
-9.66006e-07
-1.92737e-08
-9.65385e-07
-3.82418e-08
-9.91455e-07
-1.86605e-08
-6.67639e-07
-1.27304e-08
2.34856e-07
4.79421e-07
-2.22611e-08
1.75077e-07
1.44129e-07
-3.10044e-07
5.88016e-08
7.15674e-08
3.9238e-08
-4.51703e-07
2.04849e-08
-9.69035e-07
-3.43883e-10
-9.45178e-07
-2.08512e-08
-9.44877e-07
-4.00398e-08
-9.72266e-07
-2.16864e-08
-6.85992e-07
5.64844e-10
2.12605e-07
4.73169e-07
6.81651e-09
2.00996e-07
2.98993e-07
-3.55859e-07
6.3136e-08
2.09433e-07
3.95608e-08
-4.28126e-07
1.90824e-08
-9.48556e-07
-3.05041e-10
-9.2579e-07
-1.96325e-08
-9.2555e-07
-3.97707e-08
-9.52128e-07
-2.74036e-08
-6.98358e-07
9.5807e-09
1.75621e-07
4.58621e-07
2.41295e-08
1.49687e-07
4.27022e-07
-2.77713e-07
3.5922e-08
3.23202e-07
4.10103e-08
-4.33214e-07
2.15452e-08
-9.29091e-07
-8.77986e-11
-9.04157e-07
-2.18883e-08
-9.03749e-07
-4.16399e-08
-9.32376e-07
-3.23661e-08
-7.07632e-07
1.95868e-08
1.23668e-07
4.46208e-07
3.19999e-08
8.39694e-08
5.15321e-07
-1.72267e-07
1.09013e-08
3.96271e-07
4.04357e-08
-4.62747e-07
1.96358e-08
-9.0829e-07
-2.8289e-10
-8.84239e-07
-1.9828e-08
-8.84204e-07
-4.12856e-08
-9.10919e-07
-3.6047e-08
-7.1287e-07
7.80462e-09
7.98164e-08
4.34629e-07
1.93832e-08
2.08201e-08
5.64427e-07
-6.99262e-08
-1.12916e-10
4.17205e-07
4.32182e-08
-5.06078e-07
2.24015e-08
-8.87473e-07
-2.57535e-10
-8.6158e-07
-2.27736e-08
-8.61688e-07
-4.40213e-08
-8.89671e-07
-4.19611e-08
-7.14931e-07
1.40624e-09
3.64486e-08
4.15897e-07
2.01382e-08
-2.18114e-08
5.65536e-07
2.07023e-08
3.01194e-09
3.92383e-07
4.28244e-08
-5.45889e-07
2.02661e-08
-8.64914e-07
-2.22294e-10
-8.41091e-07
-2.05506e-08
-8.4136e-07
-4.34227e-08
-8.66799e-07
-4.90954e-08
-7.09258e-07
-6.02508e-09
-6.62255e-09
3.77924e-07
3.19469e-08
-3.83903e-08
5.29509e-07
7.44183e-08
1.84018e-08
3.35594e-07
4.53774e-08
-5.72863e-07
2.28962e-08
-8.42433e-07
-2.62841e-10
-8.17932e-07
-2.29794e-08
-8.18643e-07
-4.58503e-08
-8.43928e-07
-5.28412e-08
-7.02268e-07
-2.12184e-08
-3.82461e-08
3.00144e-07
5.65604e-08
-3.97937e-08
4.70068e-07
9.92358e-08
3.35464e-08
2.62256e-07
4.53534e-08
-5.8467e-07
2.09749e-08
-8.18054e-07
-6.296e-11
-7.96894e-07
-2.10473e-08
-7.97659e-07
-4.58934e-08
-8.19082e-07
-7.76824e-08
-6.7048e-07
-6.73041e-08
-4.8625e-08
1.83355e-07
4.9485e-08
-2.24889e-08
3.99622e-07
9.2936e-08
4.51532e-08
1.94614e-07
4.78321e-08
-5.87349e-07
2.39918e-08
-7.94215e-07
-2.72992e-10
-7.72629e-07
-2.43153e-08
-7.73617e-07
-4.80235e-08
-7.95374e-07
-7.09672e-08
-6.47536e-07
-7.92731e-08
-4.03197e-08
1.09128e-07
-5.04721e-09
4.82484e-10
3.31847e-07
6.72922e-08
5.22868e-08
1.42808e-07
4.80633e-08
-5.83126e-07
2.24508e-08
-7.68603e-07
-3.24723e-11
-7.50146e-07
-2.26434e-08
-7.51006e-07
-4.83852e-08
-7.69632e-07
-6.687e-08
-6.29052e-07
-6.78379e-08
-3.9352e-08
8.20245e-08
-4.07343e-08
1.91069e-08
2.72949e-07
3.979e-08
5.90854e-08
1.02828e-07
5.10366e-08
-5.75078e-07
2.65628e-08
-7.44129e-07
3.30272e-10
-7.23914e-07
-2.65983e-08
-7.24077e-07
-5.13807e-08
-7.4485e-07
-6.42977e-08
-6.16135e-07
-6.36615e-08
-3.99884e-08
6.76438e-08
-4.9281e-08
3.07341e-08
2.23233e-07
1.89817e-08
6.21875e-08
7.13744e-08
5.13274e-08
-5.64218e-07
2.44047e-08
-7.17206e-07
6.8549e-10
-7.00194e-07
-2.41816e-08
-6.9921e-07
-5.17012e-08
-7.1733e-07
-6.83071e-08
-5.99529e-07
-7.3845e-08
-3.44507e-08
7.64331e-08
-8.26345e-08
3.9331e-08
1.80237e-07
3.6647e-09
6.88807e-08
4.18272e-08
5.68092e-08
-5.52146e-07
3.02507e-08
-6.90647e-07
2.6538e-10
-6.70209e-07
-2.97856e-08
-6.69159e-07
-5.70349e-08
-6.90081e-07
-7.72308e-08
-5.79333e-07
-8.9659e-08
-2.20229e-08
9.40565e-08
-1.07283e-07
3.93752e-08
1.42946e-07
-2.08299e-09
6.87674e-08
1.24367e-08
5.46016e-08
-5.3798e-07
2.48127e-08
-6.60858e-07
-5.26384e-10
-6.4487e-07
-2.45236e-08
-6.45162e-07
-5.43094e-08
-6.60295e-07
-7.68276e-08
-5.56815e-07
-8.18202e-08
-1.70304e-08
1.08336e-07
-9.60996e-08
3.42011e-08
1.06631e-07
2.11482e-09
7.5447e-08
-2.88099e-08
6.19979e-08
-5.24531e-07
3.23177e-08
-6.31178e-07
1.59163e-11
-6.12568e-07
-3.16523e-08
-6.13494e-07
-6.18171e-08
-6.3013e-07
-8.25005e-08
-5.36132e-07
-5.48586e-08
-4.46724e-08
9.86961e-08
-4.52189e-08
1.46437e-08
7.84526e-08
1.35342e-08
5.98149e-08
-7.39834e-08
5.84576e-08
-5.23174e-07
2.35745e-08
-5.96296e-07
1.52258e-10
-5.89146e-07
-2.56703e-08
-5.87671e-07
-6.11639e-08
-5.94636e-07
-7.23618e-08
-5.24934e-07
-1.63386e-08
-1.00696e-07
7.36992e-08
8.65817e-09
-2.34355e-09
7.64468e-08
4.34824e-09
3.63024e-08
-1.12632e-07
6.48941e-08
-5.51766e-07
3.26326e-08
-5.64034e-07
-1.61817e-09
-5.54895e-07
-3.68314e-08
-5.52458e-07
-6.64864e-08
-5.64981e-07
-2.018e-08
-5.7124e-07
2.383e-08
-1.44706e-07
7.7381e-08
2.01478e-08
4.24835e-08
6.43522e-08
-3.03896e-08
8.34025e-08
-1.5355e-07
6.57062e-08
-5.34069e-07
3.049e-08
-5.28818e-07
-1.23046e-09
-5.23175e-07
-2.23954e-08
-5.31293e-07
-6.10411e-08
-5.26336e-07
-1.01257e-07
-5.31025e-07
-5.07175e-08
-1.95245e-07
5.87276e-08
-3.20649e-08
8.03061e-08
5.32213e-08
-6.91746e-08
1.24001e-07
-1.97243e-07
7.00499e-08
-4.80118e-07
2.73455e-08
-4.86113e-07
-1.14055e-08
-4.84424e-07
-5.90167e-08
-4.83682e-07
-9.13126e-08
-4.9404e-07
-1.34539e-07
-4.87799e-07
-9.18972e-08
-2.37887e-07
4.60796e-08
-7.92505e-08
1.09295e-07
3.55533e-08
-9.16257e-08
1.20286e-07
-2.08234e-07
7.64656e-08
-4.36298e-07
3.83882e-08
-4.48036e-07
8.90071e-09
-4.54936e-07
-2.3329e-08
-4.51452e-07
-6.64617e-08
-4.50907e-07
-1.17009e-07
-4.37252e-07
-1.25515e-07
-2.29382e-07
2.63632e-08
-1.058e-07
1.29227e-07
-7.15893e-10
-9.29576e-08
1.50885e-07
-2.29898e-07
9.93427e-08
-3.84756e-07
4.75465e-08
-3.9624e-07
-6.97366e-09
-4.00416e-07
-4.96413e-08
-4.08785e-07
-8.99542e-08
-4.10594e-07
-1.37168e-07
-3.90038e-07
-1.40767e-07
-2.25783e-07
-1.37452e-08
-1.0066e-07
6.89391e-08
-4.72945e-08
-2.23625e-08
1.33438e-07
-2.94402e-07
9.287e-08
-3.44188e-07
5.70407e-08
-3.6041e-07
2.21513e-08
-3.65527e-07
-2.17839e-08
-3.64849e-07
-7.88601e-08
-3.53518e-07
-1.2851e-07
-3.40388e-07
-5.74609e-08
-2.96833e-07
-5.84249e-08
-1.2782e-08
1.49941e-07
-9.19567e-08
-1.05281e-07
1.3147e-07
-2.75933e-07
8.51189e-08
-2.97837e-07
3.40461e-08
-3.09338e-07
-1.77724e-08
-3.13708e-07