/*--------------------------------*- C++ -*----------------------------------*\
  =========                 |
  \\      /  F ield         | OpenFOAM: The Open Source CFD Toolbox
   \\    /   O peration     | Website:  https://openfoam.org
    \\  /    A nd           | Version:  8
     \\/     M anipulation  |
\*---------------------------------------------------------------------------*/
FoamFile
{
    version     2.0;
    format      ascii;
    class       volVectorField;
    location    "1.1";
    object      U;
}
// * * * * * * * * * * * * * * * * * * * * * * * * * * * * * * * * * * * * * //

dimensions      [0 1 -1 0 0 0 0];

internalField   nonuniform List<vector> 
9150
(
(0.0050756 -0.0778478 0)
(0.0129014 -0.0975139 0)
(0.0108094 -0.104018 0)
(0.00757505 -0.108268 0)
(0.00174646 -0.109584 0)
(-0.00255447 -0.108898 0)
(-0.00880833 -0.107557 0)
(-0.0108001 -0.104027 0)
(-0.0129825 -0.09742 0)
(-0.0050226 -0.0777658 0)
(0.00604108 -0.0921445 0)
(0.00858411 -0.100521 0)
(0.00720432 -0.102266 0)
(0.00480989 -0.103827 0)
(0.00195011 -0.10526 0)
(-0.00238594 -0.10511 0)
(-0.00444261 -0.104161 0)
(-0.00718536 -0.102373 0)
(-0.00861489 -0.100523 0)
(-0.00605338 -0.0921296 0)
(0.00183999 -0.0954976 0)
(0.00459706 -0.099016 0)
(0.00373309 -0.100921 0)
(0.00308923 -0.10193 0)
(0.000953506 -0.102304 0)
(-0.000587305 -0.102526 0)
(-0.00289083 -0.102051 0)
(-0.00374884 -0.100918 0)
(-0.00461222 -0.0990088 0)
(-0.0018466 -0.0954941 0)
(0.00179953 -0.0984609 0)
(0.00250287 -0.100416 0)
(0.00216427 -0.100365 0)
(0.00131891 -0.10067 0)
(0.000710596 -0.100803 0)
(-0.000803226 -0.100801 0)
(-0.00163268 -0.100456 0)
(-0.00218357 -0.10035 0)
(-0.00250544 -0.100422 0)
(-0.00180462 -0.0984614 0)
(0.00020986 -0.0995042 0)
(0.000744651 -0.0995654 0)
(0.00049087 -0.0998787 0)
(0.000556078 -0.0999949 0)
(0.000152458 -0.1001 0)
(-0.000117778 -0.100098 0)
(-0.000431573 -0.100127 0)
(-0.00046974 -0.0999267 0)
(-0.00073947 -0.0995703 0)
(-0.000210923 -0.0995048 0)
(0.0777448 -0.195835 1.05625e-26)
(0.0499 -0.185896 0)
(0.0320037 -0.17758 0)
(0.0163519 -0.175431 0)
(0.00408799 -0.17647 0)
(-0.00528794 -0.175875 0)
(-0.0170314 -0.174252 0)
(-0.0321609 -0.177501 0)
(-0.0498526 -0.185656 0)
(-0.0777793 -0.195685 -1.05588e-26)
(0.0582763 -0.145921 3.24817e-27)
(0.0479358 -0.146304 0)
(0.0277693 -0.156347 0)
(0.0202611 -0.156922 0)
(0.00446633 -0.156205 0)
(-0.00436027 -0.156127 0)
(-0.020045 -0.157888 0)
(-0.0280423 -0.156393 0)
(-0.0479979 -0.146396 0)
(-0.0584429 -0.146086 -3.27723e-27)
(0.0478294 -0.121586 1.66087e-27)
(0.0417447 -0.131354 0)
(0.0296591 -0.134449 0)
(0.0182237 -0.137805 0)
(0.00559152 -0.140118 0)
(-0.00608238 -0.140102 0)
(-0.0185365 -0.137145 0)
(-0.030263 -0.134502 0)
(-0.0420067 -0.131697 0)
(-0.0480443 -0.121822 -1.58423e-27)
(0.0375989 -0.0996612 2.04626e-27)
(0.0386122 -0.110302 0)
(0.0220293 -0.119805 0)
(0.0170277 -0.125074 0)
(0.00347859 -0.125388 0)
(-0.00474839 -0.125791 0)
(-0.0172262 -0.125403 0)
(-0.0217558 -0.119916 0)
(-0.0384924 -0.110449 0)
(-0.0376231 -0.0998401 -2.03117e-27)
(0.0255367 -0.08122 -8.71115e-27)
(0.0287814 -0.100876 -1.00929e-26)
(0.0208158 -0.108398 -2.52336e-27)
(0.0124579 -0.113362 -2.23108e-27)
(0.00587597 -0.115915 -5.89516e-29)
(-0.00342509 -0.116452 -7.38266e-29)
(-0.0111412 -0.113658 -2.33715e-27)
(-0.0203609 -0.108143 -2.50385e-27)
(-0.0285468 -0.100909 -1.0062e-26)
(-0.0255048 -0.0812424 -8.70015e-27)
(0.017633 -0.144111 0)
(0.0132051 -0.203479 0)
(0.0229957 -0.215188 0)
(0.00976024 -0.222051 0)
(0.00876162 -0.224915 0)
(-0.00575937 -0.225817 0)
(-0.00633336 -0.224466 0)
(-0.0211341 -0.218614 0)
(-0.0120473 -0.20472 0)
(-0.0175989 -0.145768 0)
(0.0160976 -0.166039 0)
(0.0019813 -0.19908 0)
(0.0155166 -0.208324 0)
(0.00226059 -0.213342 0)
(0.00759898 -0.214277 0)
(-0.00583528 -0.214372 0)
(-0.00097106 -0.213589 0)
(-0.0154484 -0.208229 0)
(-0.0019465 -0.199139 0)
(-0.0158901 -0.166032 0)
(0.0151495 -0.171647 0)
(-0.00315753 -0.202702 0)
(0.0115112 -0.207514 0)
(-0.00180099 -0.209812 0)
(0.00414334 -0.209533 0)
(-0.00484312 -0.209505 0)
(0.00141549 -0.209203 0)
(-0.011416 -0.207572 0)
(0.00315647 -0.202807 0)
(-0.0152278 -0.171787 0)
(0.0169054 -0.192506 0)
(-0.00607719 -0.203431 0)
(0.0105454 -0.209299 0)
(-0.00113134 -0.20576 0)
(0.0028179 -0.207204 0)
(-0.00241628 -0.207283 0)
(0.00157934 -0.206834 0)
(-0.0102265 -0.209417 0)
(0.00612841 -0.203393 0)
(-0.0167171 -0.192438 0)
(0.0320361 -0.217982 0)
(0.00752886 -0.204606 0)
(0.0169404 -0.205246 0)
(0.0103804 -0.197546 0)
(0.00275243 -0.19414 0)
(-0.00173215 -0.193962 0)
(-0.00999073 -0.196668 0)
(-0.0169014 -0.204723 0)
(-0.00746275 -0.204201 0)
(-0.032095 -0.217927 0)
(-0.749709 0.0418183 0)
(-0.742756 0.0233157 0)
(-0.725767 -0.0898188 0)
(-0.753516 -0.143943 0)
(-0.752436 -0.171412 0)
(-0.697656 -0.203394 0)
(-0.623489 -0.183126 0)
(-0.580192 -0.189299 0)
(-0.528726 -0.219261 0)
(-0.418262 -0.285475 0)
(-0.289115 -0.0105846 0)
(-0.257679 -0.0213141 0)
(-0.159912 -0.0465491 0)
(-0.00920306 0.0257977 0)
(0.0151875 0.0205134 0)
(0.16221 0.0296755 0)
(0.118685 -0.0219769 0)
(0.187327 -0.0752077 0)
(0.165828 -0.12725 0)
(0.221112 -0.244298 0)
(0.446474 -0.0872634 0)
(0.458802 -0.143204 0)
(0.474516 -0.322791 0)
(0.538602 -0.428855 0)
(0.595431 -0.434331 0)
(0.648728 -0.373107 0)
(0.711212 -0.269701 0)
(0.79212 -0.14747 0)
(0.784462 -0.124694 0)
(0.634975 -0.211288 0)
(0.352061 -0.13558 0)
(0.378956 -0.162613 0)
(0.415958 -0.22996 0)
(0.434048 -0.32069 0)
(0.450518 -0.368778 0)
(0.477771 -0.333072 0)
(0.496464 -0.333889 0)
(0.557547 -0.328414 0)
(0.642073 -0.169819 0)
(0.671665 -0.191254 0)
(0.267781 -0.176192 0)
(0.271907 -0.239054 0)
(0.276424 -0.275298 0)
(0.286128 -0.305592 0)
(0.308867 -0.334293 0)
(0.352527 -0.332465 0)
(0.41616 -0.335134 0)
(0.489226 -0.288174 0)
(0.573128 -0.292162 0)
(0.711407 -0.384287 0)
(0.133384 -0.170442 0)
(0.104121 -0.218173 0)
(0.0853948 -0.295223 0)
(0.094312 -0.40326 0)
(0.162984 -0.501836 0)
(0.303661 -0.541164 0)
(0.416657 -0.623818 0)
(0.564443 -0.589736 0)
(0.702911 -0.64003 0)
(0.917558 -0.856054 0)
(0.0336757 -0.0707196 0)
(-0.0161505 -0.138802 0)
(-0.0382609 -0.277834 0)
(0.019983 -0.461922 0)
(0.204404 -0.807837 0)
(0.408081 -0.951357 0)
(0.539518 -0.999737 0)
(0.662869 -1.01961 0)
(0.798001 -1.07428 0)
(0.94021 -1.09331 0)
(-0.106847 -0.00318751 0)
(-0.144331 -0.0920271 0)
(-0.12885 -0.341914 0)
(0.0906027 -0.878007 0)
(0.267166 -1.36079 0)
(0.410062 -1.28427 0)
(0.490043 -1.2335 0)
(0.635269 -1.17088 0)
(0.540062 -1.18344 0)
(0.347312 -1.0633 0)
(-0.206782 -0.0151167 0)
(-0.25104 -0.0870412 0)
(-0.124481 -0.724741 0)
(0.111221 -1.39682 0)
(0.0827882 -1.51813 0)
(0.115618 -1.34324 0)
(-0.0616831 -1.28547 0)
(-0.00612923 -1.08298 0)
(-0.0453526 -0.620653 0)
(-0.173715 -0.161315 0)
(-0.267347 -0.0225755 0)
(-0.244089 -0.361633 0)
(-0.0940989 -1.1186 0)
(-0.00604106 -1.44477 0)
(-0.109973 -1.41709 0)
(-0.119609 -0.957288 0)
(-0.246738 -0.997991 0)
(-0.213915 -1.03576 0)
(-0.254679 -0.557877 0)
(-0.313643 -0.247163 0)
(-0.170192 -0.147149 0)
(-0.106016 -0.432771 0)
(-0.142278 -1.06743 0)
(-0.051542 -1.58774 0)
(-0.11271 -1.26034 0)
(-0.109593 -0.817646 0)
(-0.232617 -1.05914 0)
(-0.277523 -1.12441 0)
(-0.331589 -0.544885 0)
(-0.390447 -0.28139 0)
(0.0532341 -0.104638 0)
(-0.000580098 -0.283636 0)
(-0.0352891 -1.04969 0)
(-0.171017 -1.7106 0)
(-0.130884 -1.22816 0)
(-0.115411 -0.713415 0)
(-0.222451 -0.692088 0)
(-0.304698 -1.09442 0)
(-0.339395 -0.548905 0)
(-0.403934 -0.227169 0)
(0.14924 -0.00303921 0)
(0.0451604 -0.181521 0)
(-0.000724418 -0.637616 0)
(-0.276167 -1.64109 0)
(-0.168386 -1.3061 0)
(-0.0680811 -0.649655 0)
(-0.124306 -0.40417 0)
(-0.222618 -0.579558 0)
(-0.514248 -0.324096 0)
(-0.48139 -0.10372 0)
(0.233899 -0.0526345 0)
(0.182228 -0.0291138 0)
(0.138012 -0.213989 0)
(-0.207363 -1.29956 0)
(-0.276769 -1.46826 0)
(-0.0493687 -0.823735 0)
(-0.037763 -0.291973 0)
(-0.0319786 -0.331616 0)
(-0.0251877 -0.50671 0)
(-0.190248 -0.584781 0)
(0.101465 0.0323497 0)
(0.04458 0.0630423 0)
(0.0147073 -0.0767051 0)
(-0.154301 -1.05025 0)
(-0.0504129 -1.49854 0)
(-0.0801537 -1.46877 0)
(0.168836 -0.425037 0)
(0.215669 -0.259109 0)
(0.213769 -0.224101 0)
(0.130444 -0.16607 0)
(0.0673449 0.0834445 0)
(0.0265015 0.124838 0)
(0.0251523 0.0805596 0)
(-0.0543175 -1.00878 0)
(0.0236262 -1.49884 0)
(-0.00529036 -1.49883 0)
(0.097031 -1.01816 0)
(0.326318 -0.243379 0)
(0.256335 -0.0627034 0)
(0.171852 -0.0202728 0)
(0.0927183 0.0441373 0)
(0.0588185 0.176922 0)
(-0.0440119 0.19157 0)
(-0.0780545 -1.39823 0)
(0.0489908 -1.61151 0)
(0.108141 -1.60395 0)
(0.12855 -1.46059 0)
(0.303536 -0.533616 0)
(0.314824 -0.0285381 0)
(0.307295 -0.0377462 0)
(0.0162741 0.167041 0)
(-0.0763548 0.289468 0)
(-0.258482 0.338803 0)
(-0.0452522 -1.6038 0)
(0.00675938 -1.72532 0)
(0.071349 -1.73597 0)
(0.107955 -1.56605 0)
(0.162113 -0.81101 0)
(0.25081 0.0561239 0)
(0.278032 0.0912079 0)
(-0.0532532 0.548319 0)
(-0.121307 0.622573 0)
(-0.117199 0.182302 0)
(-0.0240266 -1.66395 0)
(-0.0103628 -1.77246 0)
(0.0202862 -1.78694 0)
(0.0229375 -1.60454 0)
(0.0700276 -0.769825 0)
(0.0153522 -0.136758 0)
(0.182004 -0.145217 0)
(0.0717013 0.509844 0)
(-0.040356 0.678906 0)
(0.0431093 0.138506 0)
(-0.0024388 -1.66036 0)
(-0.0102728 -1.78603 0)
(0.00552419 -1.7903 0)
(-0.0332786 -1.54524 0)
(-0.119903 -0.490589 0)
(-0.262742 -0.222448 0)
(-0.167626 -0.479166 0)
(-0.074051 0.589216 0)
(-0.0942798 0.630387 0)
(0.0427507 -0.0679062 0)
(-0.00149579 -1.56323 0)
(-0.0151313 -1.79128 0)
(-0.000115188 -1.78769 0)
(-0.0426647 -1.31114 0)
(-0.153568 -0.368841 0)
(-0.203015 -0.318617 0)
(-0.123197 -0.398351 0)
(-0.131974 0.561063 0)
(-0.0180063 0.488719 0)
(0.0383378 -0.181716 0)
(0.0185697 -1.48972 0)
(-0.00394562 -1.79477 0)
(0.00444335 -1.78681 0)
(-0.00432118 -1.07771 0)
(-0.120575 -0.292201 0)
(-0.145348 -0.280835 0)
(-0.194971 -0.28013 0)
(-0.0983762 0.336115 0)
(0.0764472 0.446665 0)
(0.0388911 -0.16365 0)
(-0.00571923 -1.39592 0)
(-0.0052937 -1.79974 0)
(-0.00107291 -1.78888 0)
(-0.00895198 -0.994505 0)
(-0.103325 -0.209213 0)
(-0.0733615 -0.180766 0)
(-0.138794 -0.163066 0)
(-0.118929 -0.0408898 0)
(0.0699023 0.0455688 0)
(0.126104 -0.0477218 0)
(0.0181271 -1.22356 0)
(0.00171913 -1.8067 0)
(0.00111912 -1.78831 0)
(-0.00558739 -0.877847 0)
(-0.121456 -0.204235 0)
(-0.0164661 -0.177599 0)
(-0.0757623 -0.0423869 0)
(0.0102595 -0.131872 0)
(0.0635802 -0.11734 0)
(0.0860988 0.0224962 0)
(0.0281864 -1.28195 0)
(0.00435492 -1.80882 0)
(-0.000536054 -1.77728 0)
(-0.0235517 -0.69374 0)
(-0.168402 -0.295361 0)
(-0.0853129 -0.242849 0)
(-0.0828497 -0.0786189 0)
(-0.0057836 -0.262604 0)
(0.0389042 -0.188964 0)
(0.0437371 -0.00522912 0)
(0.119061 -0.8912 0)
(0.0443394 -1.80295 0)
(0.00128722 -1.72622 0)
(-0.0973317 -0.486456 0)
(-0.150805 -0.163721 0)
(-0.230563 -0.142129 0)
(-0.215776 -0.131 0)
(-0.0243771 -0.362823 0)
(-0.0139776 -0.157715 0)
(0.0984326 -0.148198 0)
(0.161902 -0.941072 0)
(0.0648985 -1.61558 0)
(-0.0191231 -1.33012 0)
(-0.095297 -0.435773 0)
(-0.129175 -0.0655124 0)
(-0.146831 -0.0960962 0)
(-0.158473 -0.231015 0)
(-0.0726125 -0.335763 0)
(-0.152908 -0.29822 0)
(-0.264297 -0.323961 0)
(-0.172835 -1.31871 0)
(-0.183501 -1.50521 0)
(-0.18772 -1.27428 0)
(-0.0926886 -0.431633 0)
(-0.116483 -0.0871184 0)
(-0.0953301 -0.0282059 0)
(-0.0428066 -0.167993 0)
(-0.0591746 0.0883407 0)
(-0.340062 0.105405 0)
(-0.249307 -0.283898 0)
(-0.252305 -1.34646 0)
(-0.187663 -1.50139 0)
(-0.222375 -1.38331 0)
(-0.00121706 -0.466444 0)
(-0.0473314 -0.106279 0)
(0.0302446 -0.169735 0)
(-0.0559299 -0.0932884 0)
(-0.0497908 0.233689 0)
(-0.177787 0.163037 0)
(-0.0925001 -0.325213 0)
(-0.0432447 -1.44729 0)
(0.00366236 -1.4852 0)
(-0.0253107 -1.49337 0)
(0.135716 -1.11986 0)
(0.0931209 0.00197667 0)
(0.161472 -0.0181886 0)
(-0.0524515 0.0641153 0)
(-0.135894 0.395182 0)
(-0.175338 0.159962 0)
(-0.063057 -0.415249 0)
(-0.0317993 -1.51245 0)
(0.00679241 -1.48954 0)
(-0.0046287 -1.49526 0)
(0.0562067 -1.42668 0)
(0.103783 0.162228 0)
(0.0830438 0.14375 0)
(0.0225508 0.264133 0)
(-0.165876 0.366403 0)
(-0.178578 0.0709466 0)
(-0.0424497 -0.805539 0)
(-0.0281996 -1.53321 0)
(-0.00162635 -1.51707 0)
(-0.00638006 -1.51292 0)
(0.0152807 -1.51797 0)
(0.166137 0.205534 0)
(0.226626 0.180913 0)
(0.240093 0.166527 0)
(-0.052971 0.313006 0)
(-0.058296 -0.0139688 0)
(0.0170452 -0.772101 0)
(0.00395921 -1.54004 0)
(0.00720592 -1.54609 0)
(-0.00215064 -1.54218 0)
(0.032626 -1.54625 0)
(0.066843 -0.528838 0)
(0.396137 0.155519 0)
(0.446235 0.130101 0)
(-0.0275809 0.304046 0)
(0.0316903 0.0541377 0)
(0.024432 -0.737031 0)
(-0.00216712 -1.54704 0)
(0.00488923 -1.55566 0)
(-0.00422586 -1.55825 0)
(0.00492796 -1.54599 0)
(0.00253768 -0.739904 0)
(0.128783 -0.2334 0)
(0.234423 -0.0564583 0)
(-0.0782272 0.268552 0)
(-0.026362 -0.171356 0)
(0.00706257 -0.764383 0)
(-0.00653208 -1.54639 0)
(0.00313778 -1.56196 0)
(-0.00569313 -1.56042 0)
(-0.000855715 -1.54438 0)
(-0.00846418 -0.773259 0)
(0.0216116 -0.310897 0)
(0.0668974 -0.171097 0)
(-0.0911702 0.27415 0)
(-0.0378606 -0.219991 0)
(0.00225627 -0.773147 0)
(-0.00180453 -1.54453 0)
(0.0048109 -1.5639 0)
(-0.00477206 -1.56204 0)
(0.00098242 -1.54031 0)
(-0.00538732 -0.830488 0)
(0.0201959 -0.377628 0)
(0.0332458 -0.243653 0)
(-0.076052 0.187573 0)
(-0.040305 -0.289499 0)
(0.000329527 -0.844987 0)
(-0.0029903 -1.54142 0)
(0.00383927 -1.56388 0)
(-0.00495498 -1.56363 0)
(0.000759755 -1.5355 0)
(-0.00691794 -0.852106 0)
(0.0227031 -0.392107 0)
(0.0147702 -0.270803 0)
(-0.0675311 -0.0245889 0)
(-0.0333909 -0.318483 0)
(-0.00591744 -0.908517 0)
(-0.00889178 -1.53957 0)
(0.00214652 -1.56535 0)
(-0.0067903 -1.56262 0)
(-0.00266741 -1.53392 0)
(-0.015007 -0.897868 0)
(0.017236 -0.397735 0)
(-0.00107385 -0.276973 0)
(-0.0724149 -0.132856 0)
(-0.0354991 -0.363828 0)
(0.0180202 -0.952803 0)
(0.00864367 -1.53821 0)
(0.00906144 -1.56404 0)
(-8.08677e-05 -1.56348 0)
(0.0151971 -1.53113 0)
(0.000444842 -0.907292 0)
(0.00371729 -0.389739 0)
(-0.0190428 -0.267143 0)
(-0.0475688 -0.215752 0)
(-0.0182673 -0.427572 0)
(0.00771826 -0.969546 0)
(-0.00603857 -1.53832 0)
(0.00340652 -1.56116 0)
(-0.00727567 -1.56297 0)
(-0.00419713 -1.5245 0)
(-0.0238355 -0.871892 0)
(-0.0203397 -0.381924 0)
(-0.0346392 -0.257168 0)
(0.0504643 -0.212008 0)
(0.0359888 -0.433363 0)
(0.0290424 -0.951981 0)
(0.00450418 -1.52863 0)
(0.00611415 -1.55488 0)
(-0.00628715 -1.5547 0)
(-0.00230579 -1.51216 0)
(-0.0390035 -0.836196 0)
(-0.0397029 -0.382107 0)
(-0.0442075 -0.259118 0)
(0.0977991 -0.185531 0)
(0.0702653 -0.398575 0)
(0.0566167 -0.879067 0)
(0.0076925 -1.49905 0)
(0.00634869 -1.53963 0)
(-0.00847552 -1.54073 0)
(-0.0167057 -1.46903 0)
(-0.0541218 -0.781741 0)
(-0.0554169 -0.388384 0)
(-0.0516264 -0.272498 0)
(0.0873602 -0.165461 0)
(0.066854 -0.379114 0)
(0.0686621 -0.829985 0)
(0.0251084 -1.44079 0)
(0.00922536 -1.5117 0)
(-0.00608316 -1.51234 0)
(-0.0238494 -1.43014 0)
(-0.0592508 -0.731437 0)
(-0.0572972 -0.396973 0)
(-0.052706 -0.293226 0)
(0.0681007 -0.147928 0)
(0.0548403 -0.363874 0)
(0.0612455 -0.791249 0)
(0.0255567 -1.38349 0)
(0.00832231 -1.47524 0)
(-0.00740875 -1.47464 0)
(-0.0235957 -1.37974 0)
(-0.0574306 -0.696134 0)
(-0.0490998 -0.40596 0)
(-0.0478193 -0.310882 0)
(0.0454564 -0.150941 0)
(0.0391528 -0.361321 0)
(0.0502767 -0.772151 0)
(0.0201916 -1.34508 0)
(0.00915426 -1.44077 0)
(-0.00818477 -1.43776 0)
(-0.0160808 -1.34915 0)
(-0.0401356 -0.673545 0)
(-0.0367302 -0.411075 0)
(-0.0380463 -0.323492 0)
(0.0223814 -0.165367 0)
(0.0240625 -0.367252 0)
(0.0267967 -0.743511 0)
(0.0056398 -1.3296 0)
(0.00649431 -1.41179 0)
(-0.00844049 -1.4077 0)
(-0.0161333 -1.33786 0)
(-0.0282872 -0.655355 0)
(-0.0295503 -0.408943 0)
(-0.0341102 -0.328689 0)
(-0.000433574 -0.192385 0)
(0.00464033 -0.377091 0)
(0.00697588 -0.724753 0)
(0.00108508 -1.32963 0)
(0.00767254 -1.38996 0)
(-0.00845991 -1.38787 0)
(-0.00365472 -1.33687 0)
(-0.0129297 -0.630178 0)
(-0.0150942 -0.390592 0)
(-0.0267194 -0.328089 0)
(-0.0121206 -0.203311 0)
(-0.00716488 -0.380202 0)
(-0.00538694 -0.720852 0)
(-0.00322364 -1.36189 0)
(0.00525711 -1.37812 0)
(-0.00863902 -1.37539 0)
(-0.00102558 -1.3583 0)
(-0.00105943 -0.630142 0)
(0.00370624 -0.377895 0)
(-0.00862781 -0.323421 0)
(-0.020345 -0.223512 0)
(-0.0144093 -0.393421 0)
(0.00179797 -0.728922 0)
(-0.00118076 -1.36873 0)
(0.00603166 -1.36811 0)
(-0.00627082 -1.36967 0)
(-0.000739553 -1.36091 0)
(0.0031908 -0.641215 0)
(0.0091848 -0.372297 0)
(-0.000756981 -0.316326 0)
(-0.0352202 -0.248681 0)
(-0.0321171 -0.416938 0)
(-0.0209734 -0.751135 0)
(-0.0190425 -1.36383 0)
(-0.00134269 -1.3651 0)
(-0.012805 -1.36203 0)
(-0.0160081 -1.35638 0)
(-0.0263266 -0.659791 0)
(0.0100291 -0.367063 0)
(-0.00707986 -0.304556 0)
(-0.031819 -0.270202 0)
(-0.0327813 -0.439503 0)
(0.00564952 -0.779038 0)
(0.0063801 -1.35749 0)
(0.00964056 -1.36438 0)
(-0.000519587 -1.35494 0)
(0.00778886 -1.35022 0)
(-0.000533547 -0.711722 0)
(0.029337 -0.369724 0)
(0.015699 -0.296216 0)
(-0.0252038 -0.302945 0)
(-0.0246735 -0.469454 0)
(0.0343504 -0.835588 0)
(0.0207572 -1.3524 0)
(0.0148981 -1.35547 0)
(0.00597572 -1.35774 0)
(0.0225871 -1.34285 0)
(0.0214266 -0.735983 0)
(0.0345306 -0.373255 0)
(0.0209837 -0.295198 0)
(-0.0214723 -0.337389 0)
(-0.0205358 -0.498724 0)
(0.0115785 -0.880814 0)
(-0.00420711 -1.34656 0)
(0.00213796 -1.3515 0)
(-0.00650325 -1.35488 0)
(-0.00606123 -1.33611 0)
(-0.015776 -0.750258 0)
(0.0113625 -0.397103 0)
(0.0147073 -0.308428 0)
(-0.012156 -0.38125 0)
(-0.00379907 -0.533164 0)
(0.022837 -0.878265 0)
(0.00548304 -1.33772 0)
(0.00622709 -1.34626 0)
(-0.00504481 -1.34429 0)
(-0.000725056 -1.32716 0)
(-0.0197446 -0.75702 0)
(-0.00834105 -0.45253 0)
(0.00205483 -0.321755 0)
(-0.00489339 -0.425948 0)
(0.00947448 -0.56203 0)
(0.0301952 -0.87172 0)
(0.00679689 -1.32458 0)
(0.00612281 -1.33413 0)
(-0.00641453 -1.3338 0)
(-0.00659674 -1.31263 0)
(-0.0357795 -0.714534 0)
(-0.0778035 -0.448356 0)
(-0.096921 -0.283403 0)
(-0.00805064 -0.483429 0)
(0.0181008 -0.608774 0)
(0.0455708 -0.856018 0)
(0.0103804 -1.30438 0)
(0.0065465 -1.31761 0)
(-0.00764681 -1.31715 0)
(-0.0115075 -1.28122 0)
(-0.0540886 -0.520636 0)
(-0.154418 -0.311137 0)
(-0.159984 -0.248804 0)
(-0.0211903 -0.554674 0)
(0.0141705 -0.664598 0)
(0.0458367 -0.850732 0)
(0.0145543 -1.25058 0)
(0.00759761 -1.29807 0)
(-0.00745912 -1.29638 0)
(-0.0142969 -1.22609 0)
(-0.0427331 -0.41473 0)
(-0.125843 -0.229215 0)
(-0.149616 -0.245306 0)
(-0.0479599 -0.645771 0)
(-0.0110131 -0.73658 0)
(0.0301477 -0.858647 0)
(0.0167639 -1.2174 0)
(0.00945432 -1.2779 0)
(-0.00586158 -1.27507 0)
(-0.00818936 -1.21079 0)
(-0.00860635 -0.394347 0)
(-0.0336519 -0.100922 0)
(-0.0937214 -0.211549 0)
(-0.0842589 -0.743693 0)
(-0.044056 -0.814408 0)
(0.0116341 -0.895041 0)
(0.0189784 -1.22279 0)
(0.0112918 -1.25466 0)
(-0.00486885 -1.25502 0)
(-0.00162831 -1.20978 0)
(-0.000142095 -0.435468 0)
(0.038483 -0.0329665 0)
(0.00355454 -0.132785 0)
(-0.113598 -0.86032 0)
(-0.0721472 -0.917058 0)
(-0.00580029 -0.968933 0)
(0.00729222 -1.23752 0)
(0.00551236 -1.23382 0)
(-0.0106319 -1.23432 0)
(-0.0108089 -1.21939 0)
(-0.0124615 -0.421061 0)
(-0.00435305 -0.082354 0)
(-0.0111837 -0.0589027 0)
(-0.115483 -0.987155 0)
(-0.0723715 -1.02894 0)
(0.00368419 -1.07365 0)
(0.0107294 -1.24542 0)
(0.00913205 -1.21494 0)
(-0.0073018 -1.21308 0)
(-0.00751219 -1.22263 0)
(-0.0103452 -0.40866 0)
(-0.0269133 -0.051132 0)
(-0.0656966 -0.0190609 0)
(-0.0934517 -1.09705 0)
(-0.0577609 -1.13057 0)
(0.00843993 -1.1701 0)
(0.00754403 -1.24389 0)
(0.00672718 -1.19688 0)
(-0.00903717 -1.19692 0)
(-0.00974686 -1.20942 0)
(-0.0174854 -0.399559 0)
(-0.029428 0.0408201 0)
(-0.11173 0.0506863 0)
(-0.0585519 -1.17357 0)
(-0.0384326 -1.20855 0)
(0.0159216 -1.24224 0)
(0.00761645 -1.228 0)
(0.0073524 -1.18156 0)
(-0.00765403 -1.17985 0)
(-0.00798885 -1.1954 0)
(-0.010301 -0.427954 0)
(0.0054107 0.156595 0)
(-0.0945302 0.153729 0)
(-0.024036 -1.21317 0)
(-0.0171911 -1.25192 0)
(0.017095 -1.28587 0)
(0.00697466 -1.2055 0)
(0.00761431 -1.16726 0)
(-0.00720051 -1.16743 0)
(-0.00539722 -1.1808 0)
(-0.0103377 -0.455359 0)
(0.016839 0.248134 0)
(-0.053129 0.291031 0)
(0.00744049 -1.22651 0)
(0.00958812 -1.26692 0)
(0.0139107 -1.30601 0)
(0.0077446 -1.18431 0)
(0.00718393 -1.155 0)
(-0.00673638 -1.15468 0)
(-0.00708948 -1.16695 0)
(-0.0116745 -0.507212 0)
(0.0213174 0.301341 0)
(-0.0326409 0.375817 0)
(0.0458999 -1.21184 0)
(0.0381523 -1.2482 0)
(0.0158346 -1.31114 0)
(0.00802329 -1.17194 0)
(0.00705509 -1.14115 0)
(-0.00678246 -1.14076 0)
(-0.00791093 -1.15243 0)
(-0.0169585 -0.551264 0)
(0.0239111 0.311098 0)
(-0.000311906 0.402495 0)
(0.0893735 -1.15746 0)
(0.0642565 -1.18606 0)
(0.0186051 -1.27473 0)
(0.00911641 -1.14919 0)
(0.00717389 -1.12643 0)
(-0.00732448 -1.12608 0)
(-0.00936703 -1.13738 0)
(-0.0207312 -0.597028 0)
(0.0293268 0.281306 0)
(0.0349239 0.39653 0)
(0.129916 -1.07061 0)
(0.0854959 -1.0959 0)
(0.019815 -1.19912 0)
(0.0107906 -1.13196 0)
(0.00733828 -1.11006 0)
(-0.00713347 -1.10949 0)
(-0.0102316 -1.12164 0)
(-0.0243908 -0.613664 0)
(0.011929 0.199025 0)
(0.0332096 0.391977 0)
(0.158736 -0.967656 0)
(0.0996257 -0.984593 0)
(0.0230987 -1.11454 0)
(0.00998654 -1.11052 0)
(0.00774403 -1.09234 0)
(-0.00762018 -1.09207 0)
(-0.0104234 -1.10516 0)
(-0.0227941 -0.61955 0)
(-0.0119151 0.156427 0)
(0.00622191 0.384181 0)
(0.17654 -0.842112 0)
(0.105427 -0.85931 0)
(0.0244117 -1.00607 0)
(0.011631 -1.09145 0)
(0.0079904 -1.07527 0)
(-0.00817822 -1.07447 0)
(-0.0118912 -1.08879 0)
(-0.0223907 -0.615796 0)
(-0.0221682 0.153402 0)
(-0.0247064 0.359859 0)
(0.191918 -0.700099 0)
(0.110741 -0.723337 0)
(0.0292385 -0.90372 0)
(0.0113981 -1.07472 0)
(0.00796061 -1.05428 0)
(-0.00811496 -1.05391 0)
(-0.0123242 -1.07232 0)
(-0.0214613 -0.611411 0)
(-0.0223724 0.166811 0)
(-0.041241 0.365153 0)
(0.193188 -0.558266 0)
(0.109423 -0.585843 0)
(0.0300186 -0.794394 0)
(0.0117253 -1.05463 0)
(0.00824259 -1.0361 0)
(-0.00864856 -1.03524 0)
(-0.0123229 -1.05539 0)
(-0.0208681 -0.6113 0)
(-0.0173474 0.201417 0)
(-0.0438167 0.389299 0)
(0.21047 -0.385647 0)
(0.114157 -0.423115 0)
(0.0283943 -0.671095 0)
(0.0118573 -1.03599 0)
(0.00832253 -1.01526 0)
(-0.00855147 -1.01466 0)
(-0.0124257 -1.03798 0)
(-0.0198221 -0.623833 0)
(-0.00940724 0.2227 0)
(-0.0341025 0.423503 0)
(0.215117 -0.182181 0)
(0.111261 -0.231904 0)
(0.0279432 -0.552548 0)
(0.0125879 -1.0174 0)
(0.00843062 -0.995441 0)
(-0.0086847 -0.994956 0)
(-0.0129343 -1.02003 0)
(-0.0207667 -0.638573 0)
(-0.00337593 0.240144 0)
(-0.0229088 0.457354 0)
(0.134351 -0.0541704 0)
(0.0598781 -0.106138 0)
(0.0198813 -0.498458 0)
(0.0118086 -0.997353 0)
(0.00809542 -0.975433 0)
(-0.00830021 -0.974731 0)
(-0.0120922 -1.00123 0)
(-0.0210659 -0.660073 0)
(-0.000827223 0.23901 0)
(-0.010447 0.479512 0)
(0.121935 0.0715462 0)
(0.0456891 0.00692742 0)
(0.0194017 -0.461108 0)
(0.0131835 -0.979511 0)
(0.00823871 -0.955835 0)
(-0.00853111 -0.955219 0)
(-0.0132554 -0.982546 0)
(-0.0231883 -0.676722 0)
(-0.00027005 0.227509 0)
(0.00111158 0.480629 0)
(0.142487 0.227594 0)
(0.0510305 0.147277 0)
(0.0198714 -0.432539 0)
(0.0125638 -0.958827 0)
(0.00784988 -0.935381 0)
(-0.00809962 -0.935303 0)
(-0.0127256 -0.96276 0)
(-0.0256878 -0.692974 0)
(0.00129017 0.199575 0)
(0.00685635 0.469124 0)
(0.11126 0.361299 0)
(0.0275168 0.264446 0)
(0.0174142 -0.42612 0)
(0.0144494 -0.939534 0)
(0.00823365 -0.915088 0)
(-0.00830054 -0.914666 0)
(-0.0145437 -0.94243 0)
(-0.0281739 -0.70308 0)
(0.000895975 0.151453 0)
(0.014461 0.449171 0)
(0.0706694 0.468963 0)
(0.00165586 0.36104 0)
(0.0158059 -0.451449 0)
(0.0135519 -0.919287 0)
(0.00742325 -0.894055 0)
(-0.00767361 -0.893801 0)
(-0.0134306 -0.92223 0)
(-0.0257893 -0.712063 0)
(-0.00701838 0.101021 0)
(0.0122053 0.436557 0)
(0.0307359 0.541603 0)
(-0.0159105 0.415633 0)
(0.0182816 -0.491492 0)
(0.0155746 -0.898451 0)
(0.00805146 -0.873188 0)
(-0.00826343 -0.873385 0)
(-0.0156367 -0.900638 0)
(-0.0258228 -0.715589 0)
(-0.0161263 0.0582702 0)
(0.016209 0.423992 0)
(-0.0086406 0.57152 0)
(-0.0171409 0.407957 0)
(0.0216481 -0.533202 0)
(0.0146983 -0.876871 0)
(0.00702733 -0.850883 0)
(-0.00720464 -0.8509 0)
(-0.0146894 -0.878723 0)
(-0.024892 -0.716306 0)
(-0.0272177 0.0126311 0)
(0.0201825 0.404311 0)
(-0.0266358 0.555409 0)
(-0.0113763 0.374933 0)
(0.0260743 -0.561401 0)
(0.0165938 -0.854084 0)
(0.00763724 -0.829905 0)
(-0.00786758 -0.830437 0)
(-0.0164445 -0.855627 0)
(-0.0232219 -0.707931 0)
(-0.0376957 -0.0302582 0)
(0.0203751 0.359573 0)
(-0.0358334 0.5096 0)
(0.000192336 0.30246 0)
(0.0277776 -0.579554 0)
(0.0158506 -0.83058 0)
(0.00662731 -0.806886 0)
(-0.00667853 -0.807712 0)
(-0.0158639 -0.831942 0)
(-0.0270767 -0.677108 0)
(-0.0540207 -0.0377687 0)
(-0.00729977 0.248941 0)
(-0.0322988 0.439632 0)
(0.0127937 0.229147 0)
(0.0279257 -0.585805 0)
(0.0179558 -0.806442 0)
(0.0074443 -0.785363 0)
(-0.00768229 -0.786094 0)
(-0.0180439 -0.80758 0)
(-0.0276036 -0.660642 0)
(-0.0434961 -0.0505374 0)
(-0.0411531 0.126898 0)
(-0.0210662 0.366641 0)
(0.0222635 0.166026 0)
(0.0275916 -0.586657 0)
(0.0172386 -0.781607 0)
(0.00674916 -0.760967 0)
(-0.00675103 -0.762136 0)
(-0.0175423 -0.782829 0)
(-0.026628 -0.637636 0)
(-0.0411587 -0.0378532 0)
(-0.0337258 0.0872981 0)
(-0.00814474 0.302292 0)
(0.0297975 0.123469 0)
(0.0278604 -0.577964 0)
(0.019568 -0.756682 0)
(0.00836613 -0.737498 0)
(-0.00796503 -0.737915 0)
(-0.0201672 -0.757588 0)
(-0.0273202 -0.627587 0)
(-0.0394546 -0.0436323 0)
(-0.0272569 0.0702012 0)
(0.000212466 0.246389 0)
(0.0340508 0.0847117 0)
(0.0283007 -0.571154 0)
(0.0185553 -0.731272 0)
(0.00759144 -0.711533 0)
(-0.0068879 -0.711498 0)
(-0.0190942 -0.731742 0)
(-0.0274534 -0.607589 0)
(-0.0442586 -0.0404061 0)
(-0.0345217 0.069112 0)
(0.0063674 0.202147 0)
(0.0376644 0.0589636 0)
(0.0305737 -0.556757 0)
(0.0217931 -0.704508 0)
(0.00955752 -0.685572 0)
(-0.00926548 -0.684861 0)
(-0.022259 -0.704346 0)
(-0.0297785 -0.587924 0)
(-0.050216 -0.0250881 0)
(-0.0446908 0.0855099 0)
(0.00672278 0.160114 0)
(0.038187 0.0252886 0)
(0.030304 -0.546887 0)
(0.0192802 -0.676192 0)
(0.00666779 -0.657308 0)
(-0.0069765 -0.655706 0)
(-0.0200668 -0.675277 0)
(-0.0295151 -0.568626 0)
(-0.0480365 -0.0167919 0)
(-0.039262 0.104772 0)
(0.00177682 0.127917 0)
(0.0380869 0.000965611 0)
(0.0344126 -0.528897 0)
(0.0235015 -0.645656 0)
(0.00941795 -0.630263 0)
(-0.00929029 -0.629467 0)
(-0.0246476 -0.644452 0)
(-0.0360821 -0.54339 0)
(-0.0417202 -0.0158785 0)
(-0.0187268 0.111569 0)
(-0.00154824 0.087795 0)
(0.0184831 -0.0592044 0)
(0.0368918 -0.523407 0)
(0.021493 -0.613602 0)
(0.00499969 -0.600158 0)
(-0.00506001 -0.600841 0)
(-0.0217945 -0.612651 0)
(-0.0449266 -0.536493 0)
(-0.0185959 -0.0742564 0)
(-0.00102 0.0871249 0)
(0.00545226 0.0713968 0)
(-0.0103132 -0.0959901 0)
(0.0441221 -0.542273 0)
(0.027193 -0.580048 0)
(0.00822531 -0.57294 0)
(-0.0101966 -0.574636 0)
(-0.0273455 -0.580069 0)
(-0.0487976 -0.550761 0)
(0.0310506 -0.133031 0)
(0.00092534 0.0655016 0)
(0.0128544 0.0739076 0)
(0.0342384 -0.123416 0)
(0.0458525 -0.546066 0)
(0.0240025 -0.545945 0)
(0.00425102 -0.540385 0)
(-0.00453043 -0.541509 0)
(-0.0224291 -0.546194 0)
(-0.0443873 -0.546278 0)
(-0.0452327 -0.159615 0)
(-0.0137634 0.0747628 0)
(0.0316723 0.0594161 0)
(0.0572712 -0.183596 0)
(0.0534296 -0.496895 0)
(0.0230845 -0.506755 0)
(0.00815386 -0.508177 0)
(-0.0213246 -0.508143 0)
(-0.0362161 -0.508116 0)
(-0.0630805 -0.494426 0)
(-0.0608859 -0.228724 0)
(-0.0376532 0.0523618 0)
(0.05284 0.0498661 0)
(0.05628 -0.210563 0)
(0.0530273 -0.453276 0)
(0.0321874 -0.465254 0)
(0.0100403 -0.469312 0)
(-0.00276268 -0.467911 0)
(-0.0182912 -0.471292 0)
(-0.0552572 -0.458498 0)
(-0.0587887 -0.246388 0)
(-0.0608587 0.0405519 0)
(0.0560557 0.0179856 0)
(0.0712012 -0.216382 0)
(0.0730721 -0.399884 0)
(0.0338958 -0.421046 0)
(0.012126 -0.42938 0)
(-0.0178396 -0.431892 0)
(-0.0353796 -0.427927 0)
(-0.0616499 -0.402787 0)
(-0.0702892 -0.218612 0)
(-0.0660191 0.0138471 0)
(-0.00229189 -0.0184336 0)
(0.0740527 -0.274428 0)
(0.0598108 -0.358557 0)
(0.0384213 -0.378265 0)
(0.0203367 -0.379925 0)
(0.00208966 -0.38596 0)
(-0.0224228 -0.38447 0)
(-0.0632034 -0.366891 0)
(-0.0704731 -0.272397 0)
(0.013982 -0.038152 0)
(0.081056 -0.0810704 0)
(0.0711311 -0.28727 0)
(0.0648753 -0.31575 0)
(0.0267103 -0.327309 0)
(0.00615438 -0.334491 0)
(-0.0246836 -0.331617 0)
(-0.0463561 -0.327739 0)
(-0.0690176 -0.314035 0)
(-0.073603 -0.282488 0)
(-0.0928188 -0.0907367 0)
(0.0985673 -0.178977 0)
(0.0758863 -0.223335 0)
(0.0735539 -0.264518 0)
(0.0460621 -0.286418 0)
(0.0272025 -0.286394 0)
(-0.00152143 -0.285137 0)
(-0.0203621 -0.279024 0)
(-0.0595185 -0.262639 0)
(-0.0721918 -0.222347 0)
(-0.0889292 -0.178428 0)
(0.0580371 -0.12219 0)
(0.0492522 -0.194815 0)
(0.0405167 -0.233548 0)
(0.0136274 -0.245278 0)
(0.00217694 -0.248998 0)
(-0.0211912 -0.249295 0)
(-0.0307374 -0.244451 0)
(-0.0495013 -0.228227 0)
(-0.0508257 -0.195385 0)
(-0.061059 -0.122988 0)
(-0.258111 -0.366641 0)
(-0.0339744 -0.430346 0)
(0.265315 -0.470849 0)
(0.56694 -0.460267 0)
(0.889069 -0.369913 0)
(1.15709 -0.164877 0)
(1.25912 -0.0114427 0)
(1.25306 0.0207591 0)
(1.23784 0.00825498 0)
(1.24751 -0.0171625 0)
(1.2756 -0.0137232 0)
(1.29297 0.0311177 0)
(1.24722 0.111615 0)
(1.12548 0.0941831 0)
(1.03042 0.0363681 0)
(0.985287 -0.026364 0)
(0.987816 -0.0717288 0)
(1.00979 -0.0972301 0)
(1.03559 -0.0992996 0)
(1.06399 -0.0982818 0)
(1.10322 -0.112512 0)
(1.12598 -0.0978759 0)
(1.12078 -0.0761394 0)
(1.10713 -0.0657518 0)
(1.09833 -0.0444695 0)
(1.05953 -0.0159524 0)
(1.0055 -0.0157959 0)
(0.96605 0.016552 0)
(0.86083 0.0729885 0)
(0.73878 0.0737153 0)
(0.672784 0.0318175 0)
(0.633746 0.0434743 0)
(0.565836 0.0887716 0)
(0.401379 0.0998034 0)
(0.321032 0.0500269 0)
(0.25506 0.0456587 0)
(0.205684 0.0397408 0)
(0.145505 0.0206841 0)
(0.0999065 0.0373958 0)
(0.037967 0.0686029 0)
(0.325211 -0.542924 0)
(0.427857 -0.789022 0)
(0.613615 -0.91792 0)
(0.795635 -0.953689 0)
(1.01238 -0.83437 0)
(1.265 -0.491952 0)
(1.16757 -0.168793 0)
(0.978311 -0.00729364 0)
(0.879065 -0.0281336 0)
(0.888642 -0.0703594 0)
(0.919187 -0.0716961 0)
(0.925862 -0.0172504 0)
(0.890406 0.163384 0)
(0.850685 0.222483 0)
(0.837517 0.206638 0)
(0.854315 0.113805 0)