/*--------------------------------*- C++ -*----------------------------------*\
  =========                 |
  \\      /  F ield         | OpenFOAM: The Open Source CFD Toolbox
   \\    /   O peration     | Website:  https://openfoam.org
    \\  /    A nd           | Version:  8
     \\/     M anipulation  |
\*---------------------------------------------------------------------------*/
FoamFile
{
    version     2.0;
    format      ascii;
    class       volScalarField;
    location    "0.1";
    object      epsilon;
}
// * * * * * * * * * * * * * * * * * * * * * * * * * * * * * * * * * * * * * //

dimensions      [0 2 -3 0 0 0 0];

internalField   nonuniform List<scalar> 
9150
(
0.257522
0.151149
0.109556
0.101593
0.100516
0.100516
0.101593
0.109556
0.151149
0.257521
0.264747
0.140184
0.110583
0.10635
0.105797
0.105797
0.10635
0.110583
0.140184
0.264747
0.265143
0.139544
0.11665
0.113903
0.113431
0.113431
0.113903
0.11665
0.139544
0.265143
0.262535
0.144909
0.125823
0.123567
0.123049
0.123049
0.123567
0.125823
0.144909
0.262534
0.257466
0.155338
0.137474
0.135277
0.134692
0.134692
0.135277
0.137474
0.155338
0.257466
0.684805
0.266007
0.170822
0.139055
0.12895
0.12895
0.139055
0.170822
0.266007
0.684805
0.475492
0.178787
0.141681
0.124904
0.118386
0.118386
0.124904
0.141682
0.178788
0.475492
0.376837
0.160035
0.122034
0.111074
0.107239
0.107239
0.111074
0.122034
0.160035
0.376837
0.315098
0.152505
0.110975
0.102633
0.10034
0.10034
0.102633
0.110975
0.152505
0.315098
0.282268
0.150909
0.107304
0.0997276
0.098337
0.098337
0.0997277
0.107304
0.150909
0.282268
2.42858
0.491844
0.216041
0.141868
0.118745
0.118745
0.141869
0.216043
0.491862
2.42885
0.996608
0.430358
0.218496
0.145237
0.122272
0.122272
0.145237
0.218496
0.430357
0.99661
0.940325
0.411564
0.223791
0.148548
0.126096
0.126096
0.148548
0.223791
0.411563
0.940325
0.878671
0.395295
0.229196
0.152006
0.130245
0.130245
0.152006
0.229196
0.395295
0.878671
0.78252
0.387281
0.224665
0.152413
0.133215
0.133215
0.152413
0.224665
0.38728
0.78252
0.848008
0.848844
0.849462
0.849856
0.850051
0.850052
0.849855
0.849458
0.848857
0.848047
0.457079
0.457382
0.457608
0.45776
0.457837
0.457841
0.457769
0.457621
0.457397
0.457093
0.348449
0.348576
0.348671
0.348734
0.348766
0.348768
0.348738
0.348676
0.348582
0.348455
0.296732
0.296763
0.296785
0.2968
0.296808
0.296808
0.296802
0.296787
0.296765
0.296735
0.265066
0.265032
0.265006
0.264988
0.26498
0.26498
0.264989
0.265007
0.265033
0.265068
0.242856
0.242773
0.242711
0.24267
0.242649
0.242649
0.24267
0.242712
0.242774
0.242857
0.225963
0.225842
0.225751
0.225691
0.22566
0.22566
0.225691
0.225751
0.225842
0.225964
0.212438
0.212286
0.212172
0.212096
0.212058
0.212058
0.212096
0.212172
0.212286
0.212438
0.201239
0.201062
0.200928
0.20084
0.200795
0.200795
0.20084
0.200928
0.201062
0.201239
0.191754
0.191555
0.191405
0.191306
0.191256
0.191256
0.191306
0.191405
0.191555
0.191754
0.183594
0.183376
0.183213
0.183104
0.18305
0.18305
0.183104
0.183213
0.183376
0.183594
0.176496
0.176262
0.176088
0.175971
0.175913
0.175913
0.175971
0.176088
0.176262
0.176496
0.170274
0.170027
0.169842
0.169719
0.169658
0.169658
0.169719
0.169842
0.170027
0.170274
0.16479
0.164531
0.164338
0.164209
0.164145
0.164145
0.164209
0.164338
0.164531
0.16479
0.159936
0.159668
0.159466
0.159333
0.159266
0.159266
0.159333
0.159466
0.159668
0.159936
0.155629
0.155351
0.155144
0.155006
0.154937
0.154937
0.155006
0.155144
0.155352
0.155629
0.151799
0.151514
0.151301
0.151159
0.151088
0.151088
0.151159
0.151301
0.151514
0.151799
0.14839
0.148098
0.147879
0.147734
0.147661
0.147661
0.147734
0.147879
0.148098
0.14839
0.145353
0.145055
0.144832
0.144684
0.14461
0.14461
0.144684
0.144832
0.145055
0.145354
0.142648
0.142345
0.142118
0.141967
0.141891
0.141891
0.141967
0.142118
0.142345
0.142649
0.14024
0.139932
0.139701
0.139548
0.139471
0.139471
0.139548
0.139702
0.139932
0.140241
0.138098
0.137786
0.137552
0.137397
0.137319
0.137319
0.137397
0.137552
0.137786
0.138099
0.136196
0.13588
0.135644
0.135487
0.135408
0.135408
0.135487
0.135644
0.135881
0.136197
0.134512
0.134193
0.133954
0.133795
0.133716
0.133716
0.133796
0.133955
0.134194
0.134513
0.133026
0.132704
0.132463
0.132303
0.132223
0.132223
0.132303
0.132464
0.132705
0.133027
0.131721
0.131396
0.131154
0.130993
0.130912
0.130913
0.130993
0.131155
0.131397
0.131722
0.130583
0.130257
0.130013
0.129851
0.12977
0.12977
0.129852
0.130014
0.130258
0.130584
0.129602
0.129274
0.129029
0.128866
0.128785
0.128785
0.128867
0.12903
0.129275
0.129603
0.128768
0.128439
0.128193
0.12803
0.127949
0.127949
0.128031
0.128195
0.128441
0.128769
0.128076
0.127747
0.127501
0.127337
0.127256
0.127256
0.127338
0.127502
0.127748
0.128078
0.127523
0.127194
0.126948
0.126785
0.126703
0.126704
0.126786
0.12695
0.127196
0.127525
0.127111
0.126783
0.126537
0.126374
0.126293
0.126293
0.126375
0.126539
0.126785
0.127114
0.126844
0.126517
0.126273
0.12611
0.12603
0.12603
0.126112
0.126275
0.12652
0.126847
0.126733
0.126408
0.126165
0.126004
0.125923
0.125924
0.126005
0.126167
0.126411
0.126736
0.126792
0.12647
0.126229
0.126069
0.12599
0.12599
0.126071
0.126231
0.126473
0.126796
0.127044
0.126725
0.126488
0.12633
0.126251
0.126252
0.126331
0.12649
0.126729
0.127048
0.127519
0.127206
0.126972
0.126816
0.126739
0.12674
0.126818
0.126975
0.12721
0.127524
0.128258
0.127951
0.127722
0.12757
0.127495
0.127495
0.127572
0.127726
0.127956
0.128264
0.129315
0.129016
0.128793
0.128645
0.128572
0.128573
0.128648
0.128797
0.129022
0.129322
0.13076
0.130471
0.130255
0.130112
0.130041
0.130042
0.130115
0.13026
0.130478
0.130768
0.132683
0.132405
0.132199
0.132062
0.131994
0.131996
0.132066
0.132205
0.132414
0.132692
0.135199
0.134936
0.134741
0.134612
0.134548
0.134549
0.134616
0.134748
0.134946
0.135211
0.138459
0.138214
0.138032
0.137912
0.137853
0.137854
0.137917
0.138041
0.138226
0.138473
0.142655
0.142431
0.142266
0.142157
0.142103
0.142106
0.142163
0.142276
0.142446
0.142672
0.148039
0.147841
0.147696
0.1476
0.147553
0.147556
0.147608
0.147708
0.147858
0.148059
0.154938
0.154772
0.154651
0.154571
0.154533
0.154536
0.15458
0.154666
0.154793
0.154961
0.163785
0.163658
0.163566
0.163506
0.163478
0.163481
0.163516
0.163583
0.163682
0.163813
0.175155
0.175075
0.175019
0.174983
0.174967
0.174971
0.174996
0.175039
0.175103
0.175187
0.189819
0.189799
0.189786
0.18978
0.189779
0.189784
0.189795
0.18981
0.189831
0.189857
0.208823
0.208876
0.208918
0.208949
0.208967
0.208972
0.208966
0.208946
0.208913
0.208867
0.233588
0.233732
0.233843
0.233918
0.233959
0.233966
0.233938
0.233875
0.233775
0.233638
0.266048
0.266306
0.266502
0.266634
0.266704
0.266711
0.266657
0.266539
0.266356
0.266106
0.30883
0.309228
0.309528
0.309729
0.309833
0.309842
0.309755
0.30957
0.309286
0.308897
0.365439
0.366006
0.366429
0.366712
0.366857
0.366867
0.366742
0.366479
0.366073
0.365518
0.440429
0.441189
0.441752
0.442127
0.442318
0.44233
0.442163
0.441811
0.441268
0.440523
0.539436
0.540395
0.541101
0.541568
0.541807
0.541821
0.541611
0.541171
0.54049
0.539548
0.668911
0.670036
0.670858
0.671398
0.671673
0.67169
0.671449
0.670942
0.670151
0.669049
0.835367
0.836554
0.837409
0.837967
0.838251
0.838273
0.83803
0.837512
0.836694
0.835538
1.044
1.04504
1.04577
1.04624
1.04648
1.04651
1.04632
1.0459
1.04521
1.04421
1.2968
1.29736
1.29772
1.29795
1.29807
1.29811
1.29804
1.29787
1.29756
1.29705
1.59057
1.59023
1.58993
1.58973
1.58964
1.58968
1.58984
1.59011
1.59046
1.59086
1.91551
1.91386
1.91263
1.91183
1.91146
1.9115
1.91196
1.91284
1.91413
1.91583
2.25506
2.25187
2.24956
2.24808
2.24738
2.24742
2.24822
2.24977
2.25213
2.25535
2.58791
2.58324
2.57992
2.57778
2.57676
2.57681
2.57794
2.58015
2.58351
2.58815
2.89127
2.88547
2.88127
2.87848
2.87712
2.87716
2.87862
2.88147
2.88571
2.89144
3.14852
3.14146
3.13612
3.13252
3.13065
3.13058
3.1323
3.13583
3.14109
3.14818
3.37367
3.36564
3.35949
3.35532
3.35316
3.35309
3.35509
3.35914
3.36522
3.37326
3.54218
3.5344
3.5286
3.52472
3.52277
3.52275
3.52466
3.5285
3.53431
3.54208
3.65484
3.64804
3.64296
3.63958
3.6379
3.63789
3.63957
3.64295
3.64804
3.65485
3.7494
3.74266
3.73769
3.73441
3.73278
3.73279
3.73443
3.73773
3.74272
3.74947
3.81816
3.81038
3.80464
3.80086
3.79899
3.799
3.80089
3.80469
3.81044
3.81825
3.85824
3.84821
3.84078
3.83588
3.83344
3.83345
3.83591
3.84084
3.84829
3.85835
3.87315
3.8596
3.84952
3.84284
3.83951
3.83952
3.84288
3.8496
3.85971
3.8733
3.86742
3.84891
3.83509
3.82591
3.82132
3.82134
3.82596
3.83518
3.84904
3.86759
3.84563
3.82049
3.80169
3.78917
3.78293
3.78295
3.78924
3.8018
3.82065
3.84584
3.81215
3.77864
3.75354
3.73682
3.72847
3.7285
3.7369
3.75368
3.77883
3.81239
3.76966
3.72632
3.6938
3.6721
3.66125
3.66129
3.6722
3.69396
3.72653
3.76993
3.71867
3.6646
3.62391
3.5967
3.58308
3.58312
3.59681
3.62409
3.66485
3.71898
3.65815
3.59292
3.54368
3.51069
3.49416
3.4942
3.51083
3.54389
3.5932
3.6585
3.58621
3.50971
3.45181
3.41296
3.39345
3.39351
3.41312
3.45207
3.51005
3.58664
3.50089
3.41303
3.34643
3.30168
3.27921
3.27927
3.30188
3.34675
3.41346
3.50141
3.40031
3.30096
3.22555
3.17485
3.14938
3.14946
3.17509
3.22594
3.30148
3.40096
3.28309
3.17192
3.08744
3.03063
3.00208
3.00217
3.03092
3.08792
3.17256
3.28388
3.14845
3.02488
2.93087
2.86761
2.83582
2.83594
2.86795
2.93143
3.02566
3.14941
2.99676
2.85985
2.75558
2.6854
2.65013
2.65026
2.6858
2.75624
2.86075
2.99788
2.82887
2.67783
2.56268
2.48504
2.446
2.44615
2.4855
2.56344
2.67887
2.83017
2.64781
2.48178
2.35495
2.26924
2.22607
2.22625
2.26977
2.35582
2.48297
2.64929
2.45932
2.27665
2.13718
2.04271
1.99508
1.99528
2.04331
2.13816
2.27799
2.46101
2.26746
2.06753
1.91514
1.81173
1.7595
1.75972
1.81239
1.91623
2.06904
2.26937
2.07571
1.85965
1.69505
1.58312
1.52645
1.52669
1.58384
1.69625
1.86132
2.07785
1.88714
1.65797
1.48288
1.36325
1.30238
1.30264
1.36401
1.48416
1.65978
1.88947
1.70408
1.46644
1.28345
1.15711
1.09218
1.09244
1.15789
1.28477
1.46832
1.70653
1.52696
1.28726
1.09984
0.967722
0.898384
0.898638
0.968492
1.10115
1.28914
1.52944
1.3557
1.12159
0.933833
0.796267
0.72102
0.721258
0.796994
0.935076
1.12339
1.35811
1.19034
0.970282
0.786668
0.642954
0.558181
0.558394
0.643605
0.787788
0.971924
1.19257
1.0306
0.834551
0.659616
0.508069
0.407723
0.407901
0.508606
0.660553
0.835955
1.03256
0.878693
0.71833
0.553587
0.391613
0.272153
0.272284
0.392001
0.554285
0.719422
0.88027
0.746596
0.63309
0.465649
0.289264
0.169039
0.16911
0.289481
0.466079
0.633824
0.747712
0.68815
0.605575
0.380818
0.198106
0.122475
0.12249
0.198183
0.381009
0.605962
0.688802
0.887206
0.62737
0.276646
0.147374
0.116204
0.116205
0.147383
0.27669
0.627498
0.887494
0.846958
0.845529
0.843809
0.841787
0.839448
0.836775
0.833749
0.830348
0.826549
0.822322
0.817638
0.812462
0.806757
0.800481
0.793589
0.786031
0.777753
0.768693
0.758783
0.747949
0.73611
0.723175
0.709046
0.693613
0.676757
0.658344
0.638225
0.616233
0.592181
0.565854
0.537007
0.505344
0.470512
0.432055
0.389362
0.341548
0.287211
0.223863
0.146468
0.107072
0.456685
0.456147
0.455498
0.454732
0.453841
0.452818
0.451654
0.450336
0.448855
0.447194
0.445341
0.443276
0.440982
0.438436
0.435616
0.432497
0.429049
0.42524
0.421033
0.41639
0.411266
0.405613
0.399377
0.3925
0.384915
0.37655
0.367325
0.357151
0.345927
0.333546
0.319887
0.304817
0.288196
0.26988
0.249752
0.2278
0.204367
0.181096
0.166222
0.241607
0.348284
0.348056
0.34778
0.347451
0.347065
0.346617
0.346103
0.345514
0.344844
0.344084
0.343224
0.342255
0.341162
0.339934
0.338555
0.337008
0.335273
0.333331
0.331155
0.32872
0.325996
0.32295
0.319545
0.315741
0.311492
0.306748
0.301456
0.295557
0.288989
0.281685
0.273582
0.264625
0.254779
0.244064
0.232617
0.22085
0.209891
0.203129
0.214936
0.372307
0.296693
0.296635
0.296562
0.296472
0.296363
0.29623
0.296071
0.295881
0.295656
0.295389
0.295075
0.294706
0.294275
0.293771
0.293185
0.292505
0.291718
0.290809
0.289761
0.288555
0.28717
0.285584
0.28377
0.2817
0.279343
0.276665
0.273632
0.270207
0.266355
0.262045
0.257258
0.251996
0.246307
0.240325
0.234362
0.229119
0.226271
0.230591
0.26182
0.488387
0.265113
0.265169
0.265233
0.265304
0.26538
0.265459
0.265539
0.265617
0.26569
0.265754
0.265806
0.265841
0.265853
0.265837
0.265785
0.265689
0.265541
0.265331
0.265047
0.264675
0.264203
0.263614
0.262892
0.262017
0.26097
0.259732
0.258282
0.256604
0.254685
0.252524
0.250138
0.247577
0.244953
0.242491
0.24064
0.240336
0.243729
0.256838
0.304282
0.591524
0.242967
0.243108
0.243275
0.243465
0.243679
0.243915
0.244172
0.244449
0.244743
0.245054
0.245377
0.245712
0.246053
0.246399
0.246744
0.247083
0.247411
0.247721
0.248008
0.248261
0.248473
0.248635
0.248736
0.248766
0.248716
0.248577
0.248343
0.248012
0.247594
0.24711
0.246607
0.246177
0.245984
0.246331
0.247784
0.251487
0.260026
0.280569
0.342156
0.683248
0.226124
0.226333
0.226579
0.226864
0.227186
0.227545
0.227941
0.228374
0.228842
0.229345
0.229882
0.230451
0.231051
0.23168
0.232336
0.233016
0.233718
0.234439
0.235174
0.23592
0.236673
0.237429
0.238183
0.238934
0.239679
0.240419
0.241161
0.241917
0.242711
0.243587
0.244619
0.245931
0.247734
0.250396
0.254593
0.261658
0.274577
0.301572
0.375675
0.764698
0.212641
0.212903
0.213215
0.213576
0.213986
0.214445
0.214954
0.215513
0.216121
0.21678
0.217489
0.218248
0.219058
0.219916
0.220824
0.221781
0.222786
0.223839
0.224939
0.226086
0.227279
0.228519
0.229807
0.231147
0.232543
0.234006
0.235551
0.237203
0.238999
0.241003
0.243308
0.246071
0.249542
0.25415
0.260667
0.270601
0.287304
0.319957
0.405186
0.836865
0.201476
0.201784
0.202149
0.202573
0.203056
0.203598
0.2042
0.204863
0.205588
0.206376
0.207228
0.208144
0.209126
0.210174
0.21129
0.212476
0.213732
0.21506
0.216462
0.21794
0.219499
0.221141
0.222873
0.224702
0.226641
0.228707
0.230922
0.233322
0.235958
0.238906
0.242283
0.246267
0.251148
0.257408
0.265907
0.278311
0.298309
0.335947
0.431077
0.90071
0.19202
0.192365
0.192776
0.193253
0.193796
0.194408
0.195088
0.195839
0.196661
0.197557
0.198528
0.199576
0.200703
0.201911
0.203202
0.204579
0.206045
0.207604
0.209259
0.211016
0.212881
0.214861
0.216966
0.219207
0.221603
0.224176
0.226956
0.229988
0.233333
0.23708
0.241363
0.246384
0.252465
0.260137
0.270339
0.284883
0.307759
0.349795
0.453733
0.957122
0.183884
0.184261
0.18471
0.185232
0.185827
0.186497
0.187244
0.188069
0.188975
0.189962
0.191034
0.192194
0.193443
0.194785
0.196224
0.197764
0.199408
0.201162
0.203033
0.205026
0.20715
0.209416
0.211837
0.214428
0.217212
0.220214
0.223474
0.227042
0.230989
0.235415
0.24047
0.246376
0.253483
0.262367
0.274039
0.290441
0.315834
0.361752
0.473515
1.00688
0.176807
0.177212
0.177694
0.178254
0.178893
0.179614
0.180417
0.181306
0.182281
0.183347
0.184506
0.18576
0.187114
0.188572
0.190137
0.191815
0.193611
0.195533
0.197586
0.199781
0.202127
0.204637
0.207327
0.210216
0.21333
0.2167
0.220369
0.224394
0.228854
0.233861
0.239576
0.24624
0.254228
0.264156
0.277099
0.295116
0.322713
0.372052
0.490751
1.05067
0.170603
0.171032
0.171542
0.172135
0.172812
0.173576
0.174428
0.175371
0.176408
0.177541
0.178774
0.18011
0.181554
0.18311
0.184784
0.186581
0.188508
0.190572
0.192783
0.195151
0.197687
0.200407
0.203328
0.206473
0.209869
0.213554
0.217573
0.22199
0.22689
0.232395
0.238676
0.24599
0.254738
0.265567
0.27961
0.299033
0.328559
0.380908
0.505744
1.08915
0.165134
0.165583
0.166118
0.166739
0.16745
0.168251
0.169145
0.170136
0.171225
0.172416
0.173713
0.17512
0.176642
0.178284
0.180051
0.181951
0.183991
0.186179
0.188525
0.191042
0.193742
0.196642
0.199762
0.203127
0.206767
0.210722
0.215043
0.219796
0.225075
0.231007
0.237776
0.245651
0.255052
0.26666
0.281658
0.302304
0.333515
0.38851
0.518761
1.1229
0.160294
0.160761
0.161317
0.161964
0.162703
0.163536
0.164467
0.165499
0.166633
0.167875
0.169228
0.170697
0.172286
0.174002
0.175851
0.17784
0.179977
0.182272
0.184736
0.187382
0.190224
0.193281
0.196573
0.200128
0.203978
0.208167
0.212747
0.217791
0.223396
0.229697
0.236885
0.245245
0.255211
0.267493
0.283319
0.305028
0.337711
0.395025
0.530046
1.15245
0.155999
0.156482
0.157056
0.157724
0.158488
0.15935
0.160313
0.16138
0.162555
0.163841
0.165243
0.166765
0.168413
0.170194
0.172114
0.17418
0.176403
0.178791
0.181358
0.184116
0.187081
0.190273
0.193715
0.197434
0.201467
0.205857
0.210663
0.215958
0.221845
0.228464
0.236016
0.244793
0.255248
0.268113
0.284657
0.307291
0.341258
0.400605
0.539817
1.1783
0.15218
0.152676
0.153267
0.153954
0.15474
0.155627
0.156618
0.157717
0.158926
0.160251
0.161695
0.163264
0.164964
0.166801
0.168783
0.170918
0.173215
0.175685
0.178341
0.181197
0.184269
0.187579
0.191151
0.195014
0.199205
0.203771
0.208771
0.214284
0.220415
0.22731
0.235176
0.244314
0.255193
0.268563
0.28573
0.309168
0.344254
0.405379
0.548276
1.20091
0.14878
0.149288
0.149893
0.150597
0.151402
0.152311
0.153327
0.154453
0.155693
0.157052
0.158534
0.160144
0.16189
0.163777
0.165813
0.168007
0.17037
0.172911
0.175645
0.178587
0.181753
0.185167
0.188852
0.19284
0.197168
0.201887
0.207056
0.212758
0.219102
0.226236
0.234373
0.243825
0.255069
0.268878
0.286584
0.310721
0.346782
0.409461
0.555595
1.22069
0.145751
0.14627
0.146888
0.147606
0.148429
0.149357
0.150395
0.151545
0.152812
0.154201
0.155716
0.157363
0.159148
0.161079
0.163163
0.16541
0.16783
0.170434
0.173237
0.176253
0.179502
0.183006
0.18679
0.190887
0.195336
0.200188
0.205505
0.211371
0.217898
0.22524
0.233613
0.243337
0.254898
0.269086
0.287261
0.312004
0.348913
0.412949
0.561918
1.23797
0.143054
0.143582
0.14421
0.144942
0.145779
0.146725
0.147782
0.148954
0.150245
0.15166
0.153204
0.154883
0.156704
0.158673
0.1608
0.163093
0.165563
0.168222
0.171085
0.174168
0.17749
0.181072
0.184943
0.189136
0.19369
0.198658
0.204104
0.210113
0.2168
0.224322
0.2329
0.242859
0.254696
0.269212
0.287792
0.313061
0.350707
0.415927
0.567377
1.25304
0.140652
0.141188
0.141827
0.14257
0.143421
0.144381
0.145455
0.146646
0.147958
0.149397
0.150967
0.152674
0.154526
0.156529
0.158693
0.161027
0.163541
0.16625
0.169166
0.172307
0.175691
0.179344
0.183291
0.187567
0.192214
0.197283
0.202841
0.208975
0.215802
0.22348
0.232236
0.242399
0.254474
0.269275
0.288207
0.313932
0.352218
0.418468
0.57209
1.2662
0.138516
0.139059
0.139706
0.14046
0.141322
0.142296
0.143385
0.144593
0.145924
0.147383
0.148976
0.150708
0.152587
0.154621
0.156817
0.159187
0.161741
0.164492
0.167455
0.170647
0.174087
0.177801
0.181815
0.186164
0.190892
0.196049
0.201706
0.207949
0.214897
0.222712
0.231622
0.241962
0.254244
0.269292
0.288528
0.314648
0.353491
0.420639
0.57616
1.27769
0.136619
0.137169
0.137824
0.138586
0.139459
0.140444
0.141547
0.142769
0.144117
0.145594
0.147206
0.148961
0.150864
0.152924
0.155149
0.157551
0.160139
0.162928
0.165932
0.169169
0.172659
0.176426
0.180498
0.184912
0.18971
0.194945
0.200687
0.207025
0.214079
0.222013
0.231057
0.241551
0.254013
0.269274
0.288774
0.315238
0.354564
0.422495
0.579678
1.28773
0.134939
0.135494
0.136156
0.136926
0.137808
0.138804
0.139918
0.141153
0.142515
0.144008
0.145638
0.147412
0.149336
0.151419
0.15367
0.156099
0.158718
0.161539
0.164579
0.167856
0.171388
0.175202
0.179326
0.183796
0.188656
0.193959
0.199776
0.206197
0.213343
0.221379
0.230541
0.241169
0.253785
0.269233
0.288962
0.315724
0.355471
0.424085
0.582725
1.29651
0.133456
0.134017
0.134684
0.135461
0.136351
0.137355
0.138479
0.139725
0.1411
0.142606
0.144252
0.146042
0.147985
0.150088
0.152361
0.154814
0.157459
0.16031
0.163381
0.166691
0.170262
0.174117
0.178286
0.182805
0.187718
0.19308
0.198962
0.205455
0.212682
0.220808
0.230071
0.240815
0.253567
0.269175
0.289104
0.316126
0.35624
0.425454
0.585381
1.30428
0.132155
0.132719
0.133391
0.134174
0.13507
0.136082
0.137214
0.13847
0.139855
0.141373
0.143032
0.144836
0.146795
0.148915
0.151207
0.153681
0.156349
0.159224
0.162323
0.165663
0.169266
0.173156
0.177364
0.181926
0.186886
0.192299
0.198238
0.204794
0.21209
0.220294
0.229645
0.24049
0.25336
0.269109
0.289211
0.31646
0.356896
0.426639
0.587713
1.31121
0.13102
0.131587
0.132264
0.133051
0.133952
0.134971
0.13611
0.137373
0.138767
0.140295
0.141964
0.143781
0.145752
0.147887
0.150195
0.152686
0.155374
0.15827
0.161392
0.164758
0.168388
0.172309
0.176551
0.181149
0.186149
0.191608
0.197595
0.204205
0.211562
0.219834
0.229262
0.240195
0.253167
0.269038
0.289292
0.31674
0.357461
0.427674
0.589776
1.31742
0.13004
0.130611
0.13129
0.132081
0.132986
0.134009
0.135154
0.136424
0.137824
0.13936
0.141038
0.142864
0.144846
0.146993
0.149314
0.15182
0.154523
0.157437
0.160578
0.163965
0.167619
0.171566
0.175836
0.180466
0.185501
0.190997
0.197027
0.203684
0.211093
0.219424
0.228918
0.239927
0.252988
0.268966
0.289354
0.316978
0.357952
0.428588
0.591623
1.32308
0.129208
0.12978
0.130462
0.131255
0.132163
0.13319
0.134338
0.135613
0.137018
0.13856
0.140244
0.142077
0.144068
0.146224
0.148555
0.151072
0.153788
0.156716
0.159873
0.163277
0.166951
0.170919
0.175213
0.179869
0.184932
0.190461
0.196527
0.203224
0.210678
0.219059
0.228611
0.239687
0.252826
0.268898
0.289404
0.317184
0.358386
0.429406
0.5933
1.3283
0.128517
0.12909
0.129773
0.130568
0.131478
0.132506
0.133657
0.134934
0.136342
0.137888
0.139576
0.141414
0.14341
0.145572
0.147911
0.150436
0.153161
0.1561
0.159269
0.162687
0.166375
0.170361
0.174673
0.179351
0.184439
0.189994
0.19609
0.202821
0.210313
0.218738
0.22834
0.239473
0.252681
0.268836
0.289447
0.317368
0.358777
0.43015
0.594847
1.33321
0.127965
0.128538
0.129221
0.130016
0.130926
0.131955
0.133106
0.134384
0.135793
0.13734
0.13903
0.14087
0.142869
0.145034
0.147377
0.149907
0.152638
0.155584
0.158761
0.162188
0.165888
0.169886
0.174213
0.178908
0.184014
0.189592
0.195712
0.202471
0.209996
0.218458
0.228102
0.239286
0.252554
0.268783
0.289489
0.317538
0.359138
0.43084
0.596297
1.33791
0.127552
0.128124
0.128806
0.1296
0.130509
0.131536
0.132686
0.133962
0.13537
0.136916
0.138605
0.140445
0.142443
0.144609
0.146952
0.149484
0.152217
0.155166
0.158347
0.16178
0.165486
0.169493
0.17383
0.178536
0.183657
0.189251
0.195391
0.202173
0.209724
0.218217
0.227898
0.239126
0.252447
0.268743
0.289534
0.317701
0.359479
0.431495
0.597687
1.34249
0.127284
0.127854
0.128534
0.129325
0.130231
0.131255
0.132401
0.133673
0.135078
0.136619
0.138304
0.14014
0.142135
0.144297
0.146638
0.149167
0.151898
0.154846
0.158028
0.161461
0.16517
0.16918
0.173522
0.178235
0.183366
0.188971
0.195126
0.201925
0.209497
0.218016
0.227728
0.238994
0.252362
0.268717
0.289588
0.317865
0.359812
0.432131
0.599046
1.34706
0.127171
0.127737
0.128413
0.129199
0.1301
0.131118
0.132258
0.133525
0.134922
0.136456
0.138134
0.139963
0.14195
0.144105
0.146439
0.148961
0.151686
0.154629
0.157805
0.161235
0.16494
0.168949
0.173292
0.178007
0.183141
0.188753
0.194916
0.201728
0.209316
0.217855
0.227593
0.238891
0.252301
0.268711
0.289655
0.318038
0.360149
0.432766
0.600406
1.35172
0.127227
0.127788
0.128458
0.129238
0.130131
0.131142
0.132273
0.133529
0.134917
0.13644
0.138107
0.139924
0.141899
0.144043
0.146364
0.148875
0.151589
0.15452
0.157686
0.161107
0.164804
0.168806
0.173143
0.177854
0.182987
0.1886
0.194767
0.201585
0.209184
0.217738
0.227497
0.238823
0.25227
0.26873
0.289743
0.318228
0.360501
0.43342
0.601808
1.3566
0.127474
0.128029
0.128691
0.129462
0.130345
0.131345
0.132463
0.133707
0.13508
0.136589
0.13824
0.14004
0.141999
0.144125
0.146429
0.148923
0.15162
0.154534
0.157684
0.161089
0.164772
0.16876
0.173085
0.177787
0.182911
0.188518
0.194683
0.201502
0.209106
0.21767
0.227444
0.238793
0.252273
0.26878
0.28986
0.318446
0.360885
0.434117
0.603294
1.3618
0.127943
0.12849
0.129142
0.129901
0.130771
0.131756
0.132858
0.134084
0.135439
0.136928
0.138558
0.140336
0.142272
0.144375
0.146656
0.149125
0.151798
0.154688
0.157815
0.161197
0.164858
0.168825
0.173131
0.177815
0.182925
0.18852
0.194675
0.201488
0.20909
0.217659
0.227443
0.238811
0.252319
0.268869
0.290016
0.318703
0.361314
0.43488
0.604916
1.36751
0.128675
0.129211
0.12985
0.130594
0.131448
0.132413
0.133495
0.134699
0.136029
0.137492
0.139095
0.140845
0.142751
0.144824
0.147072
0.14951
0.15215
0.155009
0.158103
0.161454
0.165084
0.169022
0.1733
0.177959
0.183045
0.188619
0.194757
0.201557
0.209151
0.217716
0.227505
0.238886
0.252419
0.26901
0.290221
0.319015
0.361809
0.43574
0.606734
1.37396
0.129723
0.130245
0.130868
0.131594
0.132426
0.133368
0.134424
0.135599
0.136898
0.138329
0.139897
0.14161
0.143479
0.145512
0.14772
0.150116
0.152715
0.155531
0.158583
0.161892
0.165481
0.169379
0.173619
0.178242
0.183294
0.188838
0.194949
0.201728
0.209304
0.217859
0.227646
0.239033
0.252587
0.269216
0.290493
0.319398
0.362391
0.436728
0.608814
1.38135
0.131156
0.131661
0.132264
0.132967
0.133773
0.134685
0.135709
0.136848
0.138109
0.139498
0.141023
0.142691
0.144511
0.146494
0.148651
0.150995
0.153539
0.156301
0.159299
0.162553
0.166089
0.169935
0.174125
0.178698
0.183706
0.189207
0.195281
0.202026
0.209575
0.218111
0.227886
0.239274
0.252842
0.269507
0.29085
0.319873
0.363086
0.437881
0.611223
1.38997
0.133064
0.133549
0.134127
0.134802
0.135575
0.136451
0.137434
0.13853
0.139743
0.141081
0.142551
0.144162
0.145922
0.147843
0.149935
0.152212
0.154689
0.157382
0.16031
0.163496
0.166963
0.170741
0.174865
0.179375
0.184322
0.189767
0.195788
0.202487
0.209997
0.218501
0.228255
0.239634
0.253211
0.269907
0.291317
0.320466
0.363921
0.439237
0.614033
1.40007
0.135563
0.136023
0.136571
0.137211
0.137944
0.138775
0.139709
0.14075
0.141905
0.14318
0.144583
0.146123
0.147808
0.149651
0.151662
0.153857
0.156248
0.158855
0.161696
0.164794
0.168173
0.171865
0.175905
0.180333
0.185201
0.190571
0.196523
0.203159
0.210614
0.219072
0.228792
0.240151
0.253727
0.27045
0.291927
0.321212
0.364936
0.440843
0.617311
1.41185
0.138802
0.139231
0.139743
0.140339
0.141024
0.141801
0.142674
0.143648
0.144731
0.145928
0.147248
0.1487
0.150293
0.152039
0.153951
0.156041
0.158327
0.160826
0.163557
0.166544
0.169814
0.173397
0.177329
0.181652
0.186419
0.191693
0.197554
0.204106
0.211486
0.21988
0.229549
0.240874
0.254439
0.27118
0.292724
0.322154
0.366178
0.442754
0.621137
1.42547
0.142972
0.143365
0.143832
0.144376
0.145002
0.145711
0.14651
0.147403
0.148396
0.149498
0.150716
0.152059
0.153538
0.155165
0.156952
0.158914
0.161068
0.163432
0.166027
0.168876
0.172008
0.175453
0.179249
0.183439
0.188076
0.193226
0.19897
0.205412
0.212693
0.220999
0.230596
0.241869
0.255406
0.272158
0.293765
0.323351
0.367708
0.445041
0.625607
1.44115
0.148325
0.148672
0.149085
0.149566
0.150118
0.150746
0.151453
0.152246
0.15313
0.154114
0.155205
0.156415
0.157753
0.159231
0.160864
0.162667
0.164657
0.166853
0.169277
0.171954
0.174913
0.178185
0.18181
0.185832
0.190305
0.195296
0.200888
0.207188
0.214338
0.222527
0.232025
0.243222
0.256713
0.27346
0.295126
0.324878
0.369604
0.447791
0.630841
1.45916
0.155186
0.155478
0.155824
0.156228
0.156691
0.157217
0.157812
0.15848
0.15923
0.160067
0.161003
0.162046
0.163209
0.164504
0.165946
0.16755
0.169336
0.171323
0.173534
0.175996
0.178738
0.181793
0.185203
0.189013
0.193278
0.198067
0.203465
0.209581
0.216559
0.224594
0.233957
0.245046
0.258464
0.275187
0.296903
0.326827
0.37196
0.451111
0.636991
1.47994
0.163986
0.16421
0.164475
0.164782
0.165135
0.165537
0.165992
0.166506
0.167087
0.167744
0.168484
0.169321
0.170265
0.171331
0.172533
0.17389
0.175421
0.177147
0.179092
0.181284
0.183754
0.186538
0.189677
0.193219
0.197221
0.201753
0.206904
0.212783
0.21954
0.227371
0.236554
0.247492
0.260801
0.277471
0.29922
0.329317
0.374893
0.455128
0.64424
1.50407
0.175297
0.175437
0.175601
0.17579
0.176005
0.176251
0.176532
0.176853
0.177224
0.177652
0.178149
0.178725
0.179394
0.180172
0.181074
0.182119
0.183329
0.184726
0.186336
0.188189
0.190317
0.192759
0.195558
0.198762
0.202432
0.206638
0.211472
0.217048
0.223517
0.231081
0.240024
0.250758
0.263908
0.280484
0.302237
0.332501
0.378557
0.460007
0.652823
1.53228
0.189888
0.189925
0.189963
0.190003
0.190046
0.190095
0.190155
0.190233
0.190337
0.190476
0.190662
0.190908
0.191228
0.19164
0.19216
0.19281
0.193613
0.194594
0.19578
0.197203
0.198899
0.200908
0.203276
0.206052
0.209299
0.213092
0.217522
0.222708
0.228806
0.236022
0.244647
0.255102
0.268026
0.284453
0.306168
0.336582
0.383147
0.465962
0.663037
1.56544
0.2088
0.208707
0.208586
0.208438
0.208262
0.208061
0.207841
0.207607
0.207369
0.207137
0.206924
0.206746
0.206618
0.206558
0.206589
0.206732
0.207013
0.20746
0.208103
0.208978
0.210122
0.21158
0.213399
0.215631
0.21834
0.221603
0.225516
0.230202
0.235819
0.242582
0.250787
0.260867
0.273478
0.289676
0.311294
0.341827
0.388927
0.473271
0.675262
1.60456
0.233449
0.233191
0.23287
0.232482
0.232026
0.231505
0.230921
0.230284
0.229603
0.22889
0.228159
0.227429
0.226717
0.226045
0.225439
0.224923
0.224526
0.224282
0.224223
0.224389
0.224822
0.225571
0.226685
0.228218
0.230236
0.232821
0.23607
0.24011
0.245105
0.251276
0.258929
0.268507
0.280686
0.296551
0.317984
0.348585
0.396238
0.482297
0.689976
1.65091
0.265764
0.265299
0.264723
0.264029
0.263213
0.262276
0.261222
0.260059
0.258798
0.257453
0.256042
0.254585
0.253104
0.251627
0.25018
0.248797
0.24751
0.246357
0.245379
0.244618
0.244124
0.243951
0.244149
0.244776
0.245901
0.247606
0.249995
0.253198
0.257385
0.262783
0.269708
0.278618
0.290208
0.305597
0.326729
0.35732
0.405529
0.493505
0.70778
1.70605
0.308364
0.307641
0.306743
0.305658
0.304379
0.302904
0.301236
0.299384
0.29736
0.295181
0.292868
0.290446
0.287944
0.285393
0.282829
0.280291
0.277819
0.27546
0.273261
0.271274
0.269555
0.268168
0.267164
0.266603
0.266557
0.267113
0.268378
0.270488
0.273616
0.278
0.283965
0.291985
0.302778
0.317503
0.338172
0.36864
0.417388
0.507505
0.729449
1.77196
0.364754
0.363714
0.362416
0.360839
0.358971
0.356804
0.35434
0.351588
0.348561
0.345279
0.341769
0.338062
0.334193
0.330205
0.326142
0.322053
0.317991
0.314012
0.310177
0.306548
0.303195
0.300191
0.297589
0.295453
0.293858
0.292895
0.292676
0.293342
0.295076
0.29812
0.302815
0.309649
0.319368
0.333176
0.353164
0.383351
0.432597
0.5251
0.75599
1.85106
0.439493
0.438079
0.436301
0.434123
0.431522
0.428485
0.425008
0.421097
0.416767
0.412042
0.406953
0.401541
0.395852
0.38994
0.383863
0.377686
0.371479
0.365316
0.359272
0.353431
0.347878
0.342701
0.337954
0.333705
0.330035
0.327042
0.324843