/*--------------------------------*- C++ -*----------------------------------*\
  =========                 |
  \\      /  F ield         | OpenFOAM: The Open Source CFD Toolbox
   \\    /   O peration     | Website:  https://openfoam.org
    \\  /    A nd           | Version:  8
     \\/     M anipulation  |
\*---------------------------------------------------------------------------*/
FoamFile
{
    version     2.0;
    format      ascii;
    class       surfaceScalarField;
    location    "0.1";
    object      phi;
}
// * * * * * * * * * * * * * * * * * * * * * * * * * * * * * * * * * * * * * //

dimensions      [0 3 -1 0 0 0 0];

internalField   nonuniform List<scalar> 
18095
(
1.58637e-07
-9.56723e-07
7.98086e-07
1.67617e-07
-1.24848e-06
1.2395e-06
1.23613e-07
-1.24663e-06
1.29064e-06
6.5903e-08
-1.26586e-06
1.32357e-06
-4.91265e-14
-1.28231e-06
1.34821e-06
-6.59031e-08
-1.28231e-06
1.34821e-06
-1.23613e-07
-1.26586e-06
1.32357e-06
-1.67617e-07
-1.24663e-06
1.29064e-06
-1.58638e-07
-1.24848e-06
1.2395e-06
-9.56723e-07
7.98085e-07
1.11475e-07
-1.0682e-06
1.02281e-07
-1.23929e-06
7.43583e-08
-1.21871e-06
4.06093e-08
-1.23211e-06
-2.87598e-14
-1.2417e-06
-4.06094e-08
-1.2417e-06
-7.43584e-08
-1.23211e-06
-1.02281e-07
-1.21871e-06
-1.11475e-07
-1.23929e-06
-1.0682e-06
6.93819e-08
-1.13758e-06
5.54731e-08
-1.22538e-06
4.34212e-08
-1.20666e-06
2.44287e-08
-1.21311e-06
1.61932e-15
-1.21727e-06
-2.44288e-08
-1.21727e-06
-4.34213e-08
-1.21311e-06
-5.54733e-08
-1.20666e-06
-6.93821e-08
-1.22538e-06
-1.13758e-06
4.26978e-08
-1.18028e-06
2.86269e-08
-1.21131e-06
2.30137e-08
-1.20105e-06
1.29904e-08
-1.20309e-06
-3.21668e-14
-1.20428e-06
-1.29905e-08
-1.20428e-06
-2.30138e-08
-1.20309e-06
-2.8627e-08
-1.20105e-06
-4.26979e-08
-1.21131e-06
-1.18028e-06
1.97226e-08
8.4136e-09
7.3681e-09
4.27709e-09
-2.26438e-13
-4.27743e-09
-7.36821e-09
-8.41351e-09
-1.97225e-08
-1.76411e-07
-1.15564e-06
1.33205e-06
-2.2054e-07
-1.21542e-06
1.25955e-06
-1.65944e-07
-1.21741e-06
1.16281e-06
-8.73546e-08
-1.20699e-06
1.1284e-06
-2.06091e-13
-1.20454e-06
1.11719e-06
8.73541e-08
-1.20454e-06
1.11719e-06
1.65943e-07
-1.20699e-06
1.1284e-06
2.20539e-07
-1.21741e-06
1.16281e-06
1.76411e-07
-1.21542e-06
1.25955e-06
-1.15564e-06
1.33205e-06
-9.13956e-08
-1.06425e-06
-9.60084e-08
-1.2108e-06
-7.95541e-08
-1.23386e-06
-4.44354e-08
-1.24211e-06
1.45305e-13
-1.24898e-06
4.44357e-08
-1.24898e-06
7.95543e-08
-1.24211e-06
9.60085e-08
-1.23386e-06
9.13958e-08
-1.2108e-06
-1.06425e-06
-5.8423e-08
-1.00582e-06
-5.59622e-08
-1.21326e-06
-4.69823e-08
-1.24284e-06
-2.73939e-08
-1.2617e-06
2.61788e-13
-1.27637e-06
2.73944e-08
-1.27637e-06
4.69828e-08
-1.2617e-06
5.59626e-08
-1.24284e-06
5.84233e-08
-1.21326e-06
-1.00582e-06
-7.59394e-08
-9.29883e-07
-6.2981e-08
-1.22622e-06
-4.89722e-08
-1.25685e-06
-2.78966e-08
-1.28277e-06
2.24605e-13
-1.30427e-06
2.7897e-08
-1.30427e-06
4.89725e-08
-1.28277e-06
6.29811e-08
-1.25685e-06
7.59395e-08
-1.22622e-06
-9.29882e-07
-1.31797e-07
-1.18517e-07
-8.47326e-08
-4.39392e-08
3.96702e-14
4.39393e-08
8.47327e-08
1.18517e-07
1.31797e-07
-5.88384e-08
-9.47638e-07
1.00648e-06
-6.59153e-09
-1.31926e-06
1.26701e-06
5.35678e-09
-1.27488e-06
1.26293e-06
2.74264e-09
-1.23213e-06
1.23475e-06
-4.92059e-13
-1.22609e-06
1.22883e-06
-2.7436e-09
-1.22609e-06
1.22883e-06
-5.35837e-09
-1.23213e-06
1.23475e-06
6.59072e-09
-1.27488e-06
1.26293e-06
5.88383e-08
-1.31926e-06
1.26701e-06
-9.47639e-07
1.00648e-06
4.48078e-09
-9.52119e-07
1.4329e-08
-1.32911e-06
1.08245e-08
-1.27138e-06
5.92959e-09
-1.22724e-06
-2.80169e-13
-1.22016e-06
-5.93014e-09
-1.22016e-06
-1.08248e-08
-1.22724e-06
-1.43291e-08
-1.27138e-06
-4.48043e-09
-1.32911e-06
-9.52119e-07
2.20957e-08
-9.74215e-07
1.91533e-08
-1.32617e-06
1.01029e-08
-1.26233e-06
5.51369e-09
-1.22265e-06
-8.1275e-14
-1.21464e-06
-5.51382e-09
-1.21464e-06
-1.0103e-08
-1.22265e-06
-1.91534e-08
-1.26233e-06
-2.20958e-08
-1.32617e-06
-9.74215e-07
7.62681e-08
-1.05048e-06
5.74997e-08
-1.3074e-06
3.76329e-08
-1.24246e-06
2.14318e-08
-1.20645e-06
-8.7157e-15
-1.19321e-06
-2.14317e-08
-1.19321e-06
-3.76328e-08
-1.20645e-06
-5.74995e-08
-1.24246e-06
-7.62678e-08
-1.3074e-06
-1.05048e-06
2.81569e-07
2.33716e-07
1.5407e-07
7.6021e-08
-1.59783e-13
-7.60213e-08
-1.5407e-07
-2.33716e-07
-2.81569e-07
-8.36387e-12
-5.39717e-11
6.23355e-11
8.01888e-11
-8.86e-11
1.85372e-10
-1.05223e-10
2.56744e-10
-7.13529e-11
3.18642e-10
-6.1837e-11
3.74318e-10
-5.55848e-11
4.26819e-10
-5.24138e-11
4.78609e-10
-5.17233e-11
5.31188e-10
-5.25329e-11
-5.37417e-11
5.84963e-10
-2.50591e-10
-1.16317e-10
3.12942e-10
-1.93265e-10
-1.45911e-10
-1.36333e-10
-1.62053e-10
-6.21247e-11
-1.45408e-10
9.60639e-12
-1.33398e-10
7.84805e-11
-1.24316e-10
1.45132e-10
-1.18976e-10
2.09952e-10
-1.16505e-10
2.73332e-10
-1.15913e-10
-1.16763e-10
3.36341e-10
-2.04161e-10
-1.7284e-10
2.60664e-10
-1.60785e-10
-1.89362e-10
-1.30308e-10
-1.92488e-10
-8.42451e-11
-1.9141e-10
-2.93608e-11
-1.88225e-10
3.1321e-11
-1.84959e-10
9.47919e-11
-1.82423e-10
1.58893e-10
-1.80593e-10
2.22378e-10
-1.79377e-10
-1.79465e-10
2.85121e-10
-2.17753e-10
-2.32821e-10
2.77716e-10
-1.70021e-10
-2.37071e-10
-1.21882e-10
-2.40591e-10
-7.12067e-11
-2.42068e-10
-1.75246e-11
-2.41914e-10
3.86723e-11
-2.41181e-10
9.65678e-11
-2.4035e-10
1.5521e-10
-2.39259e-10
2.13899e-10
-2.3807e-10
-2.38124e-10
2.72578e-10
-2.25381e-10
-2.90494e-10
2.8306e-10
-1.70769e-10
-2.91656e-10
-1.16852e-10
-2.94517e-10
-6.28245e-11
-2.96122e-10
-8.06932e-12
-2.96702e-10
4.74641e-11
-2.96741e-10
1.03646e-10
-2.96537e-10
1.60086e-10
-2.95681e-10
2.16477e-10
-2.94425e-10
-2.94452e-10
2.72853e-10
-2.27443e-10
-3.46811e-10
2.83771e-10
-1.71893e-10
-3.47292e-10
-1.1656e-10
-3.49915e-10
-6.12153e-11
-3.51533e-10
-5.69655e-12
-3.52269e-10
5.0125e-11
-3.5258e-10
1.06197e-10
-3.52595e-10
1.62356e-10
-3.51803e-10
2.18452e-10
-3.50473e-10
-3.50469e-10
2.74516e-10
-2.315e-10
-4.03731e-10
2.88397e-10
-1.7488e-10
-4.04084e-10
-1.18361e-10
-4.06501e-10
-6.17726e-11
-4.08164e-10
-5.18865e-12
-4.08861e-10
5.15037e-11
-4.09251e-10
1.08218e-10
-4.09269e-10
1.64895e-10
-4.08436e-10
2.21487e-10
-4.0703e-10
-4.06958e-10
2.77993e-10
-2.39608e-10
-4.62052e-10
2.97865e-10
-1.81319e-10
-4.62525e-10
-1.23039e-10
-4.64808e-10
-6.47096e-11
-4.66496e-10
-6.40456e-12
-4.67149e-10
5.19106e-11
-4.67545e-10
1.10165e-10
-4.67509e-10
1.68331e-10
-4.666e-10
2.2641e-10
-4.65124e-10
-4.64949e-10
2.84373e-10
-2.51092e-10
-5.22711e-10
3.11695e-10
-1.90329e-10
-5.23292e-10
-1.29602e-10
-5.25517e-10
-6.89039e-11
-5.27181e-10
-8.19411e-12
-5.27864e-10
5.24753e-11
-5.28244e-10
1.13071e-10
-5.28157e-10
1.73597e-10
-5.27189e-10
2.34062e-10
-5.25653e-10
-5.2541e-10
2.94464e-10
-2.66935e-10
-5.86722e-10
3.30942e-10
-2.02713e-10
-5.87413e-10
-1.3855e-10
-5.89673e-10
-7.44327e-11
-5.9133e-10
-1.02551e-11
-5.92111e-10
5.38757e-11
-5.92469e-10
1.17946e-10
-5.92329e-10
1.81978e-10
-5.91311e-10
2.45975e-10
-5.89719e-10
-5.89425e-10
3.09946e-10
-2.87082e-10
-6.5525e-10
3.55648e-10
-2.18353e-10
-6.56098e-10
-1.49689e-10
-6.58382e-10
-8.10358e-11
-6.60066e-10
-1.22949e-11
-6.60957e-10
5.64386e-11
-6.61308e-10
1.25141e-10
-6.61119e-10
1.93835e-10
-6.60066e-10
2.62536e-10
-6.58454e-10
-6.58092e-10
3.31191e-10
-3.11719e-10
-7.2952e-10
3.86005e-10
-2.3733e-10
-7.30567e-10
-1.62966e-10
-7.32813e-10
-8.85814e-11
-7.34527e-10
-1.41167e-11
-7.35491e-10
6.03643e-11
-7.35837e-10
1.34828e-10
-7.35609e-10
2.09283e-10
-7.34531e-10
2.83789e-10
-7.32961e-10
-7.32475e-10
3.58172e-10
-3.40837e-10
-8.10686e-10
4.21974e-10
-2.59583e-10
-8.11907e-10
-1.78338e-10
-8.14081e-10
-9.70823e-11
-8.15792e-10
-1.57644e-11
-8.168e-10
6.55612e-11
-8.17141e-10
1.4687e-10
-8.16894e-10
2.28159e-10
-8.15802e-10
3.09522e-10
-8.1432e-10
-8.13668e-10
3.90706e-10
-3.74737e-10
-8.99892e-10
4.63914e-10
-2.85337e-10
-9.01258e-10
-1.96012e-10
-9.03366e-10
-1.06687e-10
-9.0506e-10
-1.73243e-11
-9.06102e-10
7.20279e-11
-9.06441e-10
1.61352e-10
-9.06185e-10
2.50649e-10
-9.05088e-10
3.40014e-10
-9.03692e-10
-9.02879e-10
4.29202e-10
-4.13894e-10
-9.98422e-10
5.12448e-10
-3.15014e-10
-9.99987e-10
-2.16299e-10
-1.00202e-09
-1.1756e-10
-1.00373e-09
-1.88159e-11
-1.00478e-09
7.99163e-11
-1.00513e-09
1.78602e-10
-1.00485e-09
2.77265e-10
-1.00375e-09
3.75965e-10
-1.00241e-09
-1.00146e-09
4.74525e-10
-4.58808e-10
-1.1078e-09
5.68241e-10
-3.49025e-10
-1.10965e-09
-2.39432e-10
-1.11156e-09
-1.29782e-10
-1.11333e-09
-2.01563e-11
-1.11438e-09
8.94684e-11
-1.11474e-09
1.99026e-10
-1.11441e-09
3.08563e-10
-1.1133e-09
4.18112e-10
-1.11197e-09
-1.1109e-09
5.27542e-10
-5.09979e-10
-1.22972e-09
6.31939e-10
-3.87734e-10
-1.23187e-09
-2.65616e-10
-1.23366e-09
-1.43446e-10
-1.23549e-09
-2.12952e-11
-1.23653e-09
1.00857e-10
-1.2369e-09
2.22933e-10
-1.2365e-09
3.44981e-10
-1.23536e-09
4.67033e-10
-1.23403e-09
-1.23281e-09
5.88958e-10
-5.68111e-10
-1.366e-09
7.04396e-10
-4.31652e-10
-1.36834e-09
-2.95213e-10
-1.37009e-09
-1.58766e-10
-1.37194e-09
-2.22792e-11
-1.37301e-09
1.14196e-10
-1.37337e-09
2.50599e-10
-1.3729e-09
3.86965e-10
-1.37172e-09
5.23327e-10
-1.37038e-09
-1.36902e-09
6.59552e-10
-6.3427e-10
-1.51863e-09
7.86887e-10
-4.8158e-10
-1.52102e-09
-3.28813e-10
-1.52285e-09
-1.7606e-10
-1.52467e-09
-2.31998e-11
-1.52585e-09
1.29637e-10
-1.52618e-09
2.82405e-10
-1.52564e-09
4.35128e-10
-1.52442e-09
5.87828e-10
-1.52307e-09
-1.52157e-09
7.40384e-10
-7.09751e-10
-1.68985e-09
8.80977e-10
-5.38474e-10
-1.69226e-09
-3.67072e-10
-1.69421e-09
-1.95666e-10
-1.69602e-09
-2.4132e-11
-1.69732e-09
1.47376e-10
-1.69764e-09
3.18812e-10
-1.69704e-09
4.90193e-10
-1.69578e-09
6.61533e-10
-1.69439e-09
-1.69271e-09
8.32698e-10
-7.95796e-10
-1.88227e-09
9.8824e-10
-6.03254e-10
-1.88476e-09
-4.10593e-10
-1.88682e-09
-2.17905e-10
-1.88864e-09
-2.5134e-11
-1.89002e-09
1.67615e-10
-1.89034e-09
3.60295e-10
-1.88969e-09
5.52913e-10
-1.88838e-09
7.45485e-10
-1.88694e-09
-1.88501e-09
9.37805e-10
-8.93562e-10
-2.09883e-09
1.11015e-09
-6.76813e-10
-2.10148e-09
-4.59972e-10
-2.10362e-09
-2.43121e-10
-2.10545e-09
-2.62455e-11
-2.10686e-09
1.90613e-10
-2.10717e-09
4.07419e-10
-2.10647e-09
6.24167e-10
-2.1051e-09
8.40862e-10
-2.1036e-09
-2.10133e-09
1.0572e-09
-1.00434e-09
-2.34274e-09
1.24826e-09
-7.6016e-10
-2.34566e-09
-5.15918e-10
-2.34785e-09
-2.71675e-10
-2.34969e-09
-2.74509e-11
-2.35109e-09
2.1677e-10
-2.35139e-09
4.60954e-10
-2.35064e-09
7.05084e-10
-2.3492e-09
9.49128e-10
-2.34762e-09
-2.34488e-09
1.19271e-09
-1.1297e-09
-2.61751e-09
1.40447e-09
-8.54475e-10
-2.62092e-09
-5.79228e-10
-2.6231e-09
-3.03923e-10
-2.62501e-09
-2.86594e-11
-2.62637e-09
2.4662e-10
-2.62666e-09
5.21842e-10
-2.62584e-09
7.97001e-10
-2.62434e-09
1.07201e-09
-2.62261e-09
-2.61931e-09
1.34646e-09
-1.27139e-09
-2.92718e-09
1.58104e-09
-9.61064e-10
-2.93127e-09
-6.50696e-10
-2.93348e-09
-3.40209e-10
-2.9355e-09
-2.9742e-11
-2.93683e-09
2.80737e-10
-2.93713e-09
5.91112e-10
-2.9362e-09
9.014e-10
-2.93461e-09
1.21146e-09
-2.93266e-09
-2.9287e-09
1.52085e-09
-1.4314e-09
-3.27647e-09
1.78068e-09
-1.08143e-09
-3.28119e-09
-7.31228e-10
-3.28368e-09
-3.8096e-10
-3.28576e-09
-3.06046e-11
-3.28717e-09
3.19715e-10
-3.28744e-09
6.699e-10
-3.28638e-09
1.01997e-09
-3.28468e-09
1.36973e-09
-3.28243e-09
-3.2777e-09
1.71873e-09
-1.61234e-09
-3.67072e-09
2.00662e-09
-1.21748e-09
-3.67601e-09
-8.22109e-10
-3.67905e-09
-4.268e-10
-3.68105e-09
-3.12652e-11
-3.6827e-09
3.64178e-10
-3.68288e-09
7.5949e-10
-3.6817e-09
1.15465e-09
-3.67985e-09
1.54947e-09
-3.67725e-09
-3.67165e-09
1.94342e-09
-1.81748e-09
-4.11584e-09
2.26262e-09
-1.37151e-09
-4.12198e-09
-9.25033e-10
-4.12552e-09
-4.7855e-10
-4.12753e-09
-3.18421e-11
-4.12939e-09
4.14783e-10
-4.1295e-09
8.61271e-10
-4.12818e-09
1.30759e-09
-4.12616e-09
1.75352e-09
-4.12318e-09
-4.11665e-09
2.19853e-09
-2.05012e-09
-4.61846e-09
2.55274e-09
-1.54593e-09
-4.62618e-09
-1.04166e-09
-4.62978e-09
-5.37021e-10
-4.63215e-09
-3.23528e-11
-4.63404e-09
4.7231e-10
-4.63414e-09
9.76782e-10
-4.63265e-09
1.48105e-09
-4.63044e-09
1.98494e-09
-4.62707e-09
-4.61962e-09
2.48791e-09
-2.31312e-09
-5.1865e-09
2.88115e-09
-1.74309e-09
-5.19617e-09
-1.17328e-09
-5.19957e-09
-6.0286e-10
-5.20255e-09
-3.25563e-11
-5.20433e-09
5.37771e-10
-5.20446e-09
1.10785e-09
-5.20272e-09
1.67769e-09
-5.20029e-09
2.24716e-09
-5.19654e-09
-5.18835e-09
2.8159e-09
-2.60965e-09
-5.82924e-09
3.2524e-09
-1.96555e-09
-5.84018e-09
-1.32138e-09
-5.84372e-09
-6.76807e-10
-5.84711e-09
-3.223e-11
-5.84891e-09
6.12257e-10
-5.84895e-09
1.25651e-09
-5.84696e-09
1.90047e-09
-5.84423e-09
2.54411e-09
-5.84017e-09
-5.83165e-09
3.18744e-09
-2.94453e-09
-6.55686e-09
3.67217e-09
-2.21674e-09
-6.56788e-09
-1.48847e-09
-6.57195e-09
-7.60173e-10
-6.5754e-09
-3.16695e-11
-6.57741e-09
6.96611e-10
-6.57723e-09
1.4247e-09
-6.57504e-09
2.15246e-09
-6.57196e-09
2.88002e-09
-6.5677e-09
-6.55944e-09
3.60784e-09
-3.32386e-09
-7.38024e-09
4.14727e-09
-2.50096e-09
-7.3907e-09
-1.67796e-09
-7.39492e-09
-8.548e-10
-7.39854e-09
-3.15437e-11
-7.40066e-09
7.91555e-10
-7.40032e-09
1.61445e-09
-7.39792e-09
2.43702e-09
-7.39448e-09
3.25953e-09
-7.39018e-09
-7.38281e-09
4.08292e-09
-3.75339e-09
-8.31171e-09
4.6849e-09
-2.8228e-09
-8.3212e-09
-1.89287e-09
-8.32485e-09
-9.62381e-10
-8.32903e-09
-3.20625e-11
-8.33097e-09
8.98314e-10
-8.33067e-09
1.82843e-09
-8.328e-09
2.75822e-09
-8.32424e-09
3.68809e-09
-8.32001e-09
-8.31406e-09
4.61934e-09
-4.23828e-09
-9.36565e-09
5.29227e-09
-3.18674e-09
-9.37272e-09
-2.13563e-09
-9.37598e-09
-1.08415e-09
-9.3805e-09
-3.27266e-11
-9.38236e-09
1.0188e-09
-9.38216e-09
2.07008e-09
-9.37923e-09
3.12102e-09
-9.37516e-09
4.17211e-09
-9.37109e-09
-9.36684e-09
5.22488e-09
-4.78538e-09
-1.05578e-08
5.97754e-09
-3.59777e-09
-1.05604e-08
-2.40944e-09
-1.05643e-08
-1.22153e-09
-1.05684e-08
-3.31475e-11
-1.05707e-08
1.15519e-09
-1.05705e-08
2.3434e-09
-1.05674e-08
3.53122e-09
-1.0563e-08
4.71921e-09
-1.05591e-08
-1.05565e-08
5.90883e-09
-5.4043e-09
-1.19046e-08
6.75109e-09
-4.06224e-09
-1.19025e-08
-2.71917e-09
-1.19074e-08
-1.37665e-09
-1.19109e-08
-3.3403e-11
-1.19139e-08
1.30981e-09
-1.19136e-08
2.65295e-09
-1.19106e-08
3.99568e-09
-1.19057e-08
5.33845e-09
-1.19018e-08
-1.19004e-08
6.68243e-09
-6.10512e-09
-1.34246e-08
7.62511e-09
-4.58744e-09
-1.34201e-08
-3.06969e-09
-1.34251e-08
-1.55156e-09
-1.34289e-08
-3.30266e-11
-1.34324e-08
1.48573e-09
-1.34324e-08
3.00429e-09
-1.34291e-08
4.52238e-09
-1.34238e-08
6.0402e-09
-1.34196e-08
-1.34188e-08
7.55859e-09
-6.89677e-09
-1.51405e-08
8.61262e-09
-5.18055e-09
-1.51362e-08
-3.46471e-09
-1.51409e-08
-1.74778e-09
-1.51459e-08
-3.06626e-11
-1.51495e-08
1.68668e-09
-1.51497e-08
3.40362e-09
-1.51461e-08
5.1199e-09
-1.51401e-08
6.83557e-09
-1.51353e-08
-1.51344e-08
8.55126e-09
-7.78982e-09
-1.70789e-08
9.7283e-09
-5.84971e-09
-1.70762e-08
-3.9092e-09
-1.70814e-08
-1.96783e-09
-1.70873e-08
-2.60269e-11
-1.70914e-08
1.9156e-09
-1.70914e-08
3.85667e-09
-1.70871e-08
5.79683e-09
-1.70802e-08
7.73611e-09
-1.70746e-08
-1.70735e-08
9.6752e-09
-8.79963e-09
-1.92698e-08
1.09905e-08
-6.6062e-09
-1.92696e-08
-4.41203e-09
-1.92755e-08
-2.21692e-09
-1.92824e-08
-2.1334e-11
-1.9287e-08
2.17381e-09
-1.92865e-08
4.36826e-09
-1.92816e-08
6.5616e-09
-1.92735e-08
8.75389e-09
-1.92668e-08
-1.92657e-08
1.09461e-08
-9.94467e-09
-2.17467e-08
1.24216e-08
-7.46438e-09
-2.17499e-08
-4.98391e-09
-2.1756e-08
-2.50162e-09
-2.17647e-08
-1.92523e-11
-2.17693e-08
2.46288e-09
-2.17686e-08
4.94413e-09
-2.17628e-08
7.42417e-09
-2.17536e-08
9.90305e-09
-2.17457e-08
-2.17445e-08
1.23819e-08
-1.12441e-08
-2.45492e-08
1.40467e-08
-8.43979e-09
-2.45543e-08
-5.63471e-09
-2.45611e-08
-2.82763e-09
-2.45717e-08
-2.03274e-11
-2.45766e-08
2.787e-09
-2.45759e-08
5.59345e-09
-2.45692e-08
8.39861e-09
-2.45587e-08
1.12025e-08
-2.45496e-08
-2.45481e-08
1.40061e-08
-1.27198e-08
-2.7722e-08
1.58925e-08
-9.54849e-09
-2.77257e-08
-6.37456e-09
-2.77351e-08
-3.19939e-09
-2.77469e-08
-2.30186e-11
-2.77529e-08
3.15347e-09
-2.77524e-08
6.32928e-09
-2.7745e-08
9.50366e-09
-2.77331e-08
1.26766e-08
-2.77225e-08
-2.77203e-08
1.58488e-08
-1.43975e-08
-3.13139e-08
1.79894e-08
-1.08079e-08
-3.13154e-08
-7.21496e-09
-3.1328e-08
-3.62065e-09
-3.13412e-08
-2.45346e-11
-3.13491e-08
3.57189e-09
-3.13489e-08
7.16758e-09
-3.13407e-08
1.07615e-08
-3.13271e-08
1.43536e-08
-3.13146e-08
-3.13113e-08
1.79446e-08
-1.63053e-08
-3.53811e-08
2.03725e-08
-1.22384e-08
-3.53822e-08
-8.16856e-09
-3.53979e-08
-4.0963e-09
-3.54135e-08
-2.22638e-11
-3.54232e-08
4.05218e-09
-3.54233e-08
8.12539e-09
-3.54139e-08
1.21962e-08
-3.53978e-08
1.62645e-08
-3.53829e-08
-3.53783e-08
2.03314e-08
-1.84761e-08
-3.99895e-08
2.30845e-08
-1.38657e-08
-3.99926e-08
-9.25197e-09
-4.00117e-08
-4.6353e-09
-4.00301e-08
-1.67086e-11
-4.00417e-08
4.60189e-09
-4.00419e-08
9.21864e-09
-4.00307e-08
1.38322e-08
-4.00114e-08
1.84425e-08
-3.99932e-08
-3.99867e-08
2.30509e-08
-2.09544e-08
-4.52148e-08
2.61798e-08
-1.5724e-08
-4.52229e-08
-1.04898e-08
-4.52459e-08
-5.25181e-09
-4.52682e-08
-1.17211e-11
-4.52819e-08
5.228e-09
-4.52817e-08
1.04654e-08
-4.52681e-08
1.56989e-08
-4.5245e-08
2.0928e-08
-4.52223e-08
-4.52129e-08
2.61541e-08
-2.37966e-08
-5.11462e-08
2.97279e-08
-1.78567e-08
-5.11629e-08
-1.19126e-08
-5.119e-08
-5.9624e-09
-5.12184e-08
-1.00211e-11
-5.12342e-08
5.94224e-09
-5.12339e-08
1.18917e-08
-5.12175e-08
1.78362e-08
-5.11895e-08
2.37749e-08
-5.11611e-08
-5.11467e-08
2.97087e-08
-2.70641e-08
-5.78907e-08
3.38086e-08
-2.03108e-08
-5.79164e-08
-1.355e-08
-5.79508e-08
-6.7818e-09
-5.79866e-08
-1.02366e-11
-5.80058e-08
6.76156e-09
-5.80058e-08
1.353e-08
-5.7986e-08
2.0292e-08
-5.79516e-08
2.70464e-08
-5.79155e-08
-5.78938e-08
3.37935e-08
-3.08242e-08
-6.5573e-08
3.85064e-08
-2.31349e-08
-6.56056e-08
-1.54335e-08
-6.56521e-08
-7.72464e-09
-6.56955e-08
-1.04791e-11
-6.572e-08
7.70386e-09
-6.57202e-08
1.54139e-08
-6.5696e-08
2.31157e-08
-6.56534e-08
3.08076e-08
-6.56074e-08
-6.55762e-08
3.84901e-08
-3.5156e-08
-7.4333e-08
4.3916e-08
-2.63872e-08
-7.43744e-08
-1.76038e-08
-7.44355e-08
-8.81089e-09
-7.44884e-08
-1.15452e-11
-7.45193e-08
8.788e-09
-7.45197e-08
1.75818e-08
-7.44898e-08
2.63651e-08
-7.44367e-08
3.51357e-08
-7.43779e-08
-7.43345e-08
4.38939e-08
-4.01539e-08
-8.43323e-08
5.01533e-08
-3.0139e-08
-8.43892e-08
-2.01077e-08
-8.44668e-08
-1.00632e-08
-8.4533e-08
-1.11921e-11
-8.45713e-08
1.00409e-08
-8.45718e-08
2.00859e-08
-8.45347e-08
3.01179e-08
-8.44687e-08
4.01337e-08
-8.43937e-08
-8.43338e-08
5.0133e-08
-4.59253e-08
-9.57619e-08
5.7355e-08
-3.44712e-08
-9.58432e-08
-2.29978e-08
-9.59402e-08
-1.15074e-08
-9.60233e-08
-7.92318e-12
-9.60708e-08
1.14918e-08
-9.60716e-08
2.29835e-08
-9.60263e-08
3.44595e-08
-9.59447e-08
4.59151e-08
-9.58493e-08
-9.57674e-08
5.73488e-08
-5.25714e-08
-1.08845e-07
6.56543e-08
-3.94595e-08
-1.08955e-07
-2.63253e-08
-1.09074e-07
-1.31716e-08
-1.09177e-07
-7.83869e-12
-1.09235e-07
1.3157e-08
-1.09237e-07
2.63125e-08
-1.09182e-07
3.94499e-08
-1.09082e-07
5.25636e-08
-1.08963e-07
-1.08856e-07
6.56516e-08
-6.01839e-08
-1.23831e-07
7.51703e-08
-4.51722e-08
-1.23966e-07
-3.01336e-08
-1.24113e-07
-1.50755e-08
-1.24235e-07
-6.14682e-12
-1.24304e-07
1.50633e-08
-1.24306e-07
3.01214e-08
-1.2424e-07
4.51595e-08
-1.2412e-07
6.01717e-08
-1.23975e-07
-1.23843e-07
7.51588e-08
-6.88489e-08
-1.40984e-07
8.60016e-08
-5.16714e-08
-1.41144e-07
-3.44666e-08
-1.41318e-07
-1.72406e-08
-1.41461e-07
-2.25258e-12
-1.41542e-07
1.72348e-08
-1.41543e-07
3.44597e-08
-1.41465e-07
5.16634e-08
-1.41324e-07
6.88405e-08
-1.41153e-07
-1.40998e-07
8.59955e-08
-7.86031e-08
-1.60584e-07
9.82027e-08
-5.89801e-08
-1.60767e-07
-3.93402e-08
-1.60958e-07
-1.96789e-08
-1.61123e-07
-8.62608e-12
-1.61212e-07
1.96624e-08
-1.61214e-07
3.93239e-08
-1.61126e-07
5.89678e-08
-1.60968e-07
7.85897e-08
-1.60774e-07
-1.60606e-07
9.81981e-08
-8.94462e-08
-1.82923e-07
1.11785e-07
-6.71059e-08
-1.83108e-07
-4.47544e-08
-1.83309e-07
-2.23877e-08
-1.83489e-07
-1.40481e-11
-1.83586e-07
2.23615e-08
-1.8359e-07
4.47303e-08
-1.83495e-07
6.70855e-08
-1.83323e-07
8.94256e-08
-1.83115e-07
-1.82953e-07
1.11772e-07
-1.01297e-07
-2.08268e-07
1.26642e-07
-7.59865e-08
-2.08418e-07
-5.06727e-08
-2.08623e-07
-2.53495e-08
-2.08812e-07
-2.07897e-11
-2.08915e-07
2.53088e-08
-2.08919e-07
5.06335e-08
-2.0882e-07
7.59506e-08
-2.0864e-07
1.01262e-07
-2.08426e-07
-2.08309e-07
1.26618e-07
-1.13976e-07
-2.36841e-07
1.4255e-07
-8.54718e-08
-2.36922e-07
-5.69895e-08
-2.37105e-07
-2.85023e-08
-2.373e-07
-1.95159e-11
-2.37398e-07
2.84645e-08
-2.37403e-07
5.69501e-08
-2.37305e-07
8.54393e-08
-2.37129e-07
1.13936e-07
-2.36923e-07
-2.36905e-07
1.42532e-07
-1.27155e-07
-2.6877e-07
1.59084e-07
-9.53479e-08
-2.68729e-07
-6.35648e-08
-2.68888e-07
-3.17811e-08
-2.69083e-07
-8.2658e-12
-2.6917e-07
3.17642e-08
-2.69175e-07
6.35417e-08
-2.69083e-07
9.53272e-08
-2.68915e-07
1.27128e-07
-2.68723e-07
-2.68862e-07
1.59085e-07
-1.40047e-07
-3.03959e-07
1.75236e-07
-1.05066e-07
-3.03711e-07
-7.00542e-08
-3.039e-07
-3.50469e-08
-3.0409e-07
-2.43997e-11
-3.04193e-07
3.49997e-08
-3.04199e-07
7.00325e-08
-3.04116e-07
1.05068e-07
-3.0395e-07
1.40111e-07
-3.03767e-07
-3.04083e-07
1.75332e-07
-1.5093e-07
-3.41844e-07
1.88815e-07
-1.13329e-07
-3.41312e-07
-7.55788e-08
-3.4165e-07
-3.78559e-08
-3.41813e-07
-7.41276e-11
-3.41975e-07
3.77176e-08
-3.41991e-07
7.55208e-08
-3.41919e-07
1.13328e-07
-3.41756e-07
1.51135e-07
-3.41574e-07
-3.41965e-07
1.89018e-07
-1.55098e-07
-3.80637e-07
1.93892e-07
-1.16364e-07
-3.80046e-07
-7.74901e-08
-3.80524e-07
-3.87096e-08
-3.80594e-07
7.22625e-11
-3.80757e-07
3.88669e-08
-3.80786e-07
7.76909e-08
-3.80743e-07
1.1656e-07
-3.80626e-07
1.55436e-07
-3.8045e-07
-3.8065e-07
1.9412e-07
-1.46727e-07
-4.17096e-07
1.83185e-07
-1.09695e-07
-4.17078e-07
-7.29048e-08
-4.17314e-07
-3.61632e-08
-4.17336e-07
4.42095e-10
-4.17362e-07
3.69825e-08
-4.17326e-07
7.35229e-08
-4.17283e-07
1.10137e-07
-4.1724e-07
1.46757e-07
-4.1707e-07
-4.17024e-07
1.83131e-07
-1.33893e-07
-4.51171e-07
1.67968e-07
-9.98711e-08
-4.51101e-07
-6.64127e-08
-4.50772e-07
-3.31684e-08
-4.5058e-07
-8.91606e-11
-4.50441e-07
3.3025e-08
-4.5044e-07
6.63064e-08
-4.50565e-07
9.98654e-08
-4.50799e-07
1.33825e-07
-4.5103e-07
-4.5121e-07
1.68011e-07
-1.2508e-07
-4.83277e-07
1.57187e-07
-9.35686e-08
-4.82612e-07
-6.22365e-08
-4.82104e-07
-3.10499e-08
-4.81767e-07
9.74298e-11
-4.81588e-07
3.12415e-08
-4.81584e-07
6.24216e-08
-4.81745e-07
9.36927e-08
-4.8207e-07
1.25236e-07
-4.82574e-07
-4.83232e-07
1.57258e-07
-1.25255e-07
-5.14326e-07
1.56304e-07
-9.4065e-08
-5.13802e-07
-6.27487e-08
-5.1342e-07
-3.13681e-08
-5.13147e-07
5.85773e-11
-5.13015e-07
3.14819e-08
-5.13007e-07
6.28681e-08
-5.13131e-07
9.41866e-08
-5.13388e-07
1.25392e-07
-5.13779e-07
-5.14287e-07
1.56447e-07
-1.2407e-07
-5.44757e-07
1.54501e-07
-9.33139e-08
-5.44558e-07
-6.23275e-08
-5.44407e-07
-3.11776e-08
-5.44297e-07
5.02717e-11
-5.44243e-07
3.12831e-08
-5.4424e-07
6.24416e-08
-5.4429e-07
9.34469e-08
-5.44394e-07
1.24213e-07
-5.44545e-07
-5.44738e-07
1.54664e-07
-1.2337e-07
-5.74944e-07
1.53556e-07
-9.28109e-08
-5.75117e-07
-6.20027e-08
-5.75215e-07
-3.10163e-08
-5.75283e-07
5.36972e-11
-5.75313e-07
3.11249e-08
-5.75311e-07
6.21116e-08
-5.75276e-07
9.29267e-08
-5.75209e-07
1.23484e-07
-5.75102e-07
-5.74938e-07
1.53685e-07
-1.22003e-07
-6.04699e-07
1.51759e-07
-9.18333e-08
-6.05287e-07
-6.13654e-08
-6.05683e-07
-3.0704e-08
-6.05945e-07
5.53062e-11
-6.06072e-07
3.08145e-08
-6.06071e-07
6.14769e-08
-6.05939e-07
9.19434e-08
-6.05675e-07
1.22113e-07
-6.05272e-07
-6.04692e-07
1.51867e-07
-1.19483e-07
-6.33678e-07
1.48461e-07
-9.00165e-08
-6.34753e-07
-6.01857e-08
-6.35514e-07
-3.01206e-08
-6.3601e-07
6.27385e-11
-6.36256e-07
3.02462e-08
-6.36254e-07
6.03122e-08
-6.36005e-07
9.01417e-08
-6.35505e-07
1.1961e-07
-6.34741e-07
-6.33664e-07
1.48582e-07
-1.15546e-07
-6.61425e-07
1.43293e-07
-8.71788e-08
-6.63121e-07
-5.83514e-08
-6.64341e-07
-2.92232e-08
-6.65138e-07
5.38712e-11
-6.65533e-07
2.9331e-08
-6.65531e-07
5.84594e-08
-6.65133e-07
8.72875e-08
-6.64333e-07
1.15658e-07
-6.63111e-07
-6.6141e-07
1.43404e-07
-1.10401e-07
-6.87627e-07
1.36603e-07
-8.34405e-08
-6.90081e-07
-5.59184e-08
-6.91863e-07
-2.80265e-08
-6.9303e-07
4.88778e-11
-6.93608e-07
2.81242e-08
-6.93607e-07
5.60164e-08
-6.93025e-07
8.35387e-08
-6.91855e-07
1.10499e-07
-6.90071e-07
-6.87612e-07
1.36701e-07
-1.05038e-07
-7.12379e-07
1.29791e-07
-7.94787e-08
-7.15641e-07
-5.33098e-08
-7.18032e-07
-2.67343e-08
-7.19605e-07
4.43077e-11
-7.20387e-07
2.68229e-08
-7.20385e-07
5.33985e-08
-7.19601e-07
7.95675e-08
-7.18024e-07
1.05127e-07
-7.1563e-07
-7.12365e-07
1.2988e-07
-1.00748e-07
-7.36199e-07
1.24567e-07
-7.62117e-08
-7.40177e-07
-5.11146e-08
-7.43129e-07
-2.56345e-08
-7.45086e-07
3.92161e-11
-7.4606e-07
2.5713e-08
-7.46059e-07
5.1193e-08
-7.45081e-07
7.629e-08
-7.43121e-07
1.00826e-07
-7.40166e-07
-7.36184e-07
1.24645e-07
-9.85865e-08
-7.5982e-07
1.22208e-07
-7.44447e-08
-7.64319e-07
-4.98733e-08
-7.677e-07
-2.49985e-08
-7.6996e-07
3.27143e-11
-7.71092e-07
2.50637e-08
-7.7109e-07
4.99382e-08
-7.69955e-07
7.45093e-08
-7.67692e-07
9.86504e-08
-7.64307e-07
-7.59806e-07
1.22272e-07
-9.9103e-08
-7.83987e-07
1.2327e-07
-7.46454e-08
-7.88776e-07
-4.99214e-08
-7.92424e-07
-2.5e-08
-7.94882e-07
2.60416e-11
-7.96118e-07
2.50522e-08
-7.96116e-07
4.99738e-08
-7.94877e-07
7.46975e-08
-7.92416e-07
9.91551e-08
-7.88765e-07
-7.83972e-07
1.23321e-07
-1.02306e-07
-8.09281e-07
1.276e-07
-7.6885e-08
-8.14197e-07
-5.13374e-08
-8.17972e-07
-2.56871e-08
-8.20532e-07
2.01237e-11
-8.21825e-07
2.5727e-08
-8.21823e-07
5.13771e-08
-8.20527e-07
7.69244e-08
-8.17963e-07
1.02345e-07
-8.14186e-07
-8.09266e-07
1.27639e-07
-1.07889e-07
-8.36188e-07
1.34796e-07
-8.09634e-08
-8.41123e-07
-5.40051e-08
-8.4493e-07
-2.70084e-08
-8.47529e-07
1.20311e-11
-8.48845e-07
2.70328e-08
-8.48844e-07
5.40301e-08
-8.47524e-07
8.09893e-08
-8.44923e-07
1.07916e-07
-8.41112e-07
-8.36174e-07
1.34823e-07
-1.15089e-07
-8.64873e-07
1.43774e-07
-8.63631e-08
-8.69849e-07
-5.7599e-08
-8.73694e-07
-2.88043e-08
-8.76324e-07
8.54555e-12
-8.77658e-07
2.88215e-08
-8.77657e-07
5.76165e-08
-8.76319e-07
8.63807e-08
-8.73687e-07
1.15107e-07
-8.69838e-07
-8.64859e-07
1.43792e-07
-1.23509e-07
-8.95482e-07
1.54117e-07
-9.27268e-08
-9.00631e-07
-6.18576e-08
-9.04564e-07
-3.09401e-08
-9.07241e-07
2.6807e-12
-9.08601e-07
3.09456e-08
-9.086e-07
6.18634e-08
-9.07237e-07
9.27335e-08
-9.04557e-07
1.23517e-07
-9.00622e-07
-8.9547e-07
1.54128e-07
-1.31981e-07
-9.28012e-07
1.64511e-07
-9.91643e-08
-9.33447e-07
-6.61943e-08
-9.37534e-07
-3.31235e-08
-9.40312e-07
-7.13545e-13
-9.41724e-07
3.31228e-08
-9.41723e-07
6.61941e-08
-9.40309e-07
9.91656e-08
-9.37528e-07
1.31983e-07
-9.33439e-07
-9.28003e-07
1.64517e-07
-1.39336e-07
-9.62182e-07
1.73506e-07
-1.04835e-07
-9.67948e-07
-7.00506e-08
-9.72318e-07
-3.50725e-08
-9.7529e-07
4.58219e-13
-9.76797e-07
3.50734e-08
-9.76796e-07
7.00511e-08
-9.75286e-07
1.04837e-07
-9.72314e-07
1.39339e-07
-9.67942e-07
-9.62177e-07
1.73513e-07
-1.45201e-07
-9.9746e-07
1.80479e-07
-1.09389e-07
-1.00376e-06
-7.31425e-08
-1.00856e-06
-3.66322e-08
-1.0118e-06
3.00265e-12
-1.01343e-06
3.66385e-08
-1.01343e-06
7.31492e-08
-1.0118e-06
1.09396e-07
-1.00856e-06
1.45211e-07
-1.00376e-06
-9.97459e-07
1.80493e-07
-1.48019e-07
-1.03299e-06
1.8355e-07
-1.11562e-07
-1.04022e-06
-7.46041e-08
-1.04552e-06
-3.7366e-08
-1.04904e-06
8.13057e-12
-1.05081e-06
3.73823e-08
-1.05081e-06
7.46225e-08
-1.04904e-06
1.11582e-07
-1.04552e-06
1.48041e-07
-1.04022e-06
-1.03299e-06
1.83574e-07
-1.46558e-07
-1.06892e-06
1.82486e-07
-1.10314e-07
-1.07646e-06
-7.37421e-08
-1.08209e-06
-3.69275e-08
-1.08585e-06
1.50509e-11
-1.08775e-06
3.69573e-08
-1.08775e-06
7.3772e-08
-1.08585e-06
1.10345e-07
-1.08209e-06
1.4659e-07
-1.07646e-06
-1.06892e-06
1.82518e-07
-1.40633e-07
-1.10413e-06
1.75846e-07
-1.05656e-07
-1.11144e-06
-7.05781e-08
-1.11717e-06
-3.53346e-08
-1.1211e-06
9.9944e-12
-1.12309e-06
3.53553e-08
-1.12309e-06
7.06009e-08
-1.1211e-06
1.05681e-07
-1.11717e-06
1.40659e-07
-1.11144e-06
-1.10413e-06
1.75872e-07
-1.29939e-07
-1.13656e-06
1.6237e-07
-9.76135e-08
-1.14376e-06
-6.52021e-08
-1.14958e-06
-3.2646e-08
-1.15365e-06
5.66216e-12
-1.15574e-06
3.26573e-08
-1.15574e-06
6.52131e-08
-1.15365e-06
9.76237e-08
-1.14958e-06
1.29949e-07
-1.14376e-06
-1.13656e-06
1.62377e-07
-1.14718e-07
-1.165e-06
1.43156e-07
-8.62705e-08
-1.17221e-06
-5.76846e-08
-1.17817e-06
-2.8908e-08
-1.18243e-06
-2.42677e-12
-1.18465e-06
2.89034e-08
-1.18465e-06
5.76805e-08
-1.18243e-06
8.6267e-08
-1.17817e-06
1.14714e-07
-1.17221e-06
-1.165e-06
1.43154e-07
-9.56206e-08
-1.18854e-06
1.19162e-07
-7.20654e-08
-1.19577e-06
-4.83133e-08
-1.20192e-06
-2.42692e-08
-1.20647e-06
-7.68225e-12
-1.20891e-06
2.42542e-08
-1.20891e-06
4.82986e-08
-1.20647e-06
7.20514e-08
-1.20192e-06
9.56068e-08
-1.19577e-06
-1.18854e-06
1.19149e-07
-7.41098e-08
-1.20678e-06
9.23442e-08
-5.60816e-08
-1.21379e-06
-3.78676e-08
-1.22014e-06
-1.91524e-08
-1.22519e-06
-9.881e-12
-1.22805e-06
1.91326e-08
-1.22806e-06
3.78475e-08
-1.22519e-06
5.60614e-08
-1.22014e-06
7.40897e-08
-1.2138e-06
-1.20678e-06
9.23249e-08
-5.1563e-08
-1.21907e-06
6.38583e-08
-3.96201e-08
-1.22574e-06
-2.7319e-08
-1.23244e-06
-1.40911e-08
-1.23842e-06
-9.31606e-12
-1.24214e-06
1.40722e-08
-1.24214e-06
2.72995e-08
-1.23842e-06
3.96001e-08
-1.23244e-06
5.15433e-08
-1.22574e-06
-1.21907e-06
6.38398e-08
-2.91978e-08
-1.22472e-06
3.48454e-08
-2.37106e-08
-1.23122e-06
-1.73552e-08
-1.23879e-06
-9.38826e-09
-1.24638e-06
-6.44451e-12
-1.25152e-06
9.37468e-09
-1.25152e-06
1.73402e-08
-1.24638e-06
2.36945e-08
-1.23879e-06
2.91814e-08
-1.23123e-06
-1.22472e-06
3.48293e-08
-8.96415e-09
-1.22355e-06
7.79473e-09
-9.75735e-09
-1.23043e-06
-8.4509e-09
-1.2401e-06
-4.73521e-09
-1.2501e-06
-3.44931e-12
-1.25625e-06
4.72756e-09
-1.25625e-06
8.44173e-09
-1.2501e-06
9.7473e-09
-1.2401e-06
8.95382e-09
-1.23043e-06
-1.22355e-06
7.78441e-09
6.32795e-09
-1.21428e-06
-1.56017e-08
-3.75769e-11
-1.22407e-06
-6.84903e-10
-1.23945e-06
9.42497e-10
-1.25173e-06
-1.70765e-12
-1.25531e-06
-9.45503e-10
-1.2553e-06
6.81025e-10
-1.25172e-06
3.28965e-11
-1.23945e-06
-6.33262e-09
-1.22407e-06
-1.21428e-06
-1.56069e-08
1.09737e-08
-1.19007e-06
-3.51849e-08
3.35969e-09
-1.21645e-06
7.70955e-09
-1.2438e-06
7.73414e-09