/*--------------------------------*- C++ -*----------------------------------*\
  =========                 |
  \\      /  F ield         | OpenFOAM: The Open Source CFD Toolbox
   \\    /   O peration     | Website:  https://openfoam.org
    \\  /    A nd           | Version:  8
     \\/     M anipulation  |
\*---------------------------------------------------------------------------*/
FoamFile
{
    version     2.0;
    format      ascii;
    class       volVectorField;
    location    "0.1";
    object      U;
}
// * * * * * * * * * * * * * * * * * * * * * * * * * * * * * * * * * * * * * //

dimensions      [0 1 -1 0 0 0 0];

internalField   nonuniform List<vector> 
9150
(
(0.0542769 -0.425543 0)
(0.0871803 -0.621611 0)
(0.0747881 -0.633774 0)
(0.048987 -0.645136 0)
(0.0171135 -0.655464 0)
(-0.0171135 -0.655464 0)
(-0.048987 -0.645136 0)
(-0.0747881 -0.633774 0)
(-0.0871804 -0.621611 0)
(-0.054277 -0.425543 0)
(0.0418226 -0.518041 0)
(0.0568093 -0.626623 0)
(0.043835 -0.615157 0)
(0.0297188 -0.62333 0)
(0.0106082 -0.629587 0)
(-0.0106083 -0.629587 0)
(-0.0297189 -0.623329 0)
(-0.0438351 -0.615157 0)
(-0.0568094 -0.626623 0)
(-0.0418227 -0.51804 0)
(0.0275705 -0.554377 0)
(0.0324378 -0.61562 0)
(0.0243956 -0.605525 0)
(0.0175661 -0.610464 0)
(0.00637303 -0.613619 0)
(-0.00637301 -0.613619 0)
(-0.0175662 -0.610464 0)
(-0.0243957 -0.605525 0)
(-0.032438 -0.61562 0)
(-0.0275706 -0.554377 0)
(0.0182882 -0.582186 0)
(0.0175645 -0.608877 0)
(0.0126849 -0.601568 0)
(0.00915004 -0.603461 0)
(0.00334194 -0.604569 0)
(-0.00334196 -0.604569 0)
(-0.00915008 -0.603461 0)
(-0.012685 -0.601568 0)
(-0.0175646 -0.608877 0)
(-0.0182882 -0.582186 0)
(0.00868953 -0.596159 0)
(0.00567801 -0.601886 0)
(0.00395505 -0.600081 0)
(0.002805 -0.600373 0)
(0.00103185 -0.60051 0)
(-0.00103205 -0.60051 0)
(-0.00280511 -0.600373 0)
(-0.00395505 -0.600081 0)
(-0.00567795 -0.601886 0)
(-0.0086895 -0.596159 0)
(0.46207 -1.15098 1.99033e-24)
(0.282806 -1.08679 0)
(0.165527 -1.07337 0)
(0.0918427 -1.06009 0)
(0.0302274 -1.05468 0)
(-0.0302276 -1.05468 0)
(-0.0918429 -1.06009 0)
(-0.165527 -1.07337 0)
(-0.282807 -1.08679 0)
(-0.46207 -1.15098 -1.99033e-24)
(0.330558 -0.838941 5.3677e-25)
(0.286091 -0.933931 0)
(0.190359 -0.940058 0)
(0.107985 -0.938944 0)
(0.0356065 -0.940645 0)
(-0.0356064 -0.940645 0)
(-0.107985 -0.938944 0)
(-0.190359 -0.940059 0)
(-0.286091 -0.933931 0)
(-0.330558 -0.838941 -5.36771e-25)
(0.274352 -0.696918 3.84758e-26)
(0.257586 -0.802617 0)
(0.179974 -0.820632 0)
(0.104397 -0.83034 0)
(0.0347411 -0.837921 0)
(-0.0347408 -0.837921 0)
(-0.104397 -0.83034 0)
(-0.179974 -0.820633 0)
(-0.257586 -0.802617 0)
(-0.274351 -0.696918 -3.84733e-26)
(0.195304 -0.549971 4.41572e-25)
(0.21437 -0.70753 0)
(0.155956 -0.728917 0)
(0.0913085 -0.743918 0)
(0.0304997 -0.755323 0)
(-0.0304995 -0.755323 0)
(-0.0913083 -0.743918 0)
(-0.155956 -0.728917 0)
(-0.21437 -0.70753 0)
(-0.195304 -0.54997 -4.41577e-25)
(0.115359 -0.4425 -6.26182e-25)
(0.153938 -0.642909 -8.80602e-25)
(0.118337 -0.66652 -3.04061e-25)
(0.071135 -0.682903 -1.96715e-25)
(0.0239973 -0.695446 -1.13512e-26)
(-0.0239973 -0.695446 -1.13517e-26)
(-0.071135 -0.682902 -1.96717e-25)
(-0.118337 -0.66652 -3.04062e-25)
(-0.153938 -0.64291 -8.80604e-25)
(-0.115359 -0.442499 -6.26182e-25)
(0.0142886 -0.940358 0)
(-0.0394246 -1.31277 0)
(0.0154061 -1.2696 0)
(-0.00250302 -1.23018 0)
(0.000922896 -1.22508 0)
(-0.000923344 -1.22508 0)
(0.00250238 -1.23018 0)
(-0.0154065 -1.2696 0)
(0.0394238 -1.31277 0)
(-0.0142879 -0.940359 0)
(0.0466257 -0.916912 0)
(-0.0231528 -1.31345 0)
(0.018272 -1.2724 0)
(0.00272164 -1.23079 0)
(-0.000322518 -1.22509 0)
(0.000322297 -1.22509 0)
(-0.00272189 -1.23079 0)
(-0.0182722 -1.2724 0)
(0.023153 -1.31345 0)
(-0.0466258 -0.916912 0)
(0.0763447 -0.950208 0)
(-0.0219847 -1.33277 0)
(0.011931 -1.27806 0)
(0.00781173 -1.23763 0)
(0.000375667 -1.2295 0)
(-0.000375738 -1.2295 0)
(-0.00781185 -1.23763 0)
(-0.0119311 -1.27806 0)
(0.0219847 -1.33277 0)
(-0.0763446 -0.950208 0)
(0.146108 -1.07738 0)
(0.00847849 -1.35786 0)
(0.0125353 -1.27412 0)
(0.021587 -1.23057 0)
(0.0068709 -1.21748 0)
(-0.00687091 -1.21748 0)
(-0.021587 -1.23057 0)
(-0.0125352 -1.27412 0)
(-0.00847835 -1.35786 0)
(-0.146108 -1.07738 0)
(0.298465 -1.20867 0)
(0.133778 -1.31843 0)
(0.0704027 -1.21389 0)
(0.0551765 -1.17213 0)
(0.0201241 -1.15877 0)
(-0.0201243 -1.15877 0)
(-0.0551766 -1.17213 0)
(-0.0704028 -1.21389 0)
(-0.133778 -1.31843 0)
(-0.298465 -1.20867 0)
(-2.55076e-05 -2.43588e-05 0)
(4.70423e-05 -7.74955e-05 0)
(6.38971e-05 -0.000102195 0)
(6.70965e-05 -6.1498e-05 0)
(0.000148723 -4.48893e-05 0)
(0.000177837 -3.72483e-05 0)
(0.00020249 -3.3496e-05 0)
(0.000227387 -3.21989e-05 0)
(0.000252222 -3.22518e-05 0)
(0.000276349 -3.23782e-05 0)
(-0.000133365 -8.32351e-05 0)
(-0.000101608 -0.000134579 0)
(-9.58529e-05 -0.000170078 0)
(-4.97907e-05 -0.000137452 0)
(-1.2098e-05 -0.000118885 0)
(2.28409e-05 -0.000103581 0)
(5.65474e-05 -9.38882e-05 0)
(8.91451e-05 -8.87393e-05 0)
(0.000121134 -8.65947e-05 0)
(0.000151842 -8.63708e-05 0)
(-0.000116415 -0.000150463 0)
(-8.99388e-05 -0.000164819 0)
(-7.34271e-05 -0.00015917 0)
(-5.34066e-05 -0.000156184 0)
(-2.88279e-05 -0.000152873 0)
(1.37597e-07 -0.000150055 0)
(3.14648e-05 -0.00014834 0)
(6.34004e-05 -0.000147637 0)
(9.56904e-05 -0.000147653 0)
(0.000127566 -0.000148702 0)
(-0.00012324 -0.000206303 0)
(-9.63332e-05 -0.000212165 0)
(-7.27857e-05 -0.000216392 0)
(-4.81688e-05 -0.000217564 0)
(-2.24166e-05 -0.000216519 0)
(5.02276e-06 -0.000214921 0)
(3.36699e-05 -0.000213427 0)
(6.28542e-05 -0.000212021 0)
(9.24955e-05 -0.000210813 0)
(0.000122608 -0.000210911 0)
(-0.000126432 -0.000261386 0)
(-9.83443e-05 -0.000263752 0)
(-7.18948e-05 -0.00026718 0)
(-4.48578e-05 -0.000269004 0)
(-1.78148e-05 -0.000269579 0)
(9.70691e-06 -0.000269537 0)
(3.77245e-05 -0.000269194 0)
(6.58985e-05 -0.000268234 0)
(9.43197e-05 -0.000266879 0)
(0.000123455 -0.000266737 0)
(-0.000127064 -0.000317756 0)
(-9.93957e-05 -0.000318609 0)
(-7.22748e-05 -0.000321569 0)
(-4.44601e-05 -0.000323394 0)
(-1.68393e-05 -0.000324346 0)
(1.10653e-05 -0.000324726 0)
(3.90614e-05 -0.000324794 0)
(6.71665e-05 -0.000324049 0)
(9.53393e-05 -0.000322775 0)
(0.000124417 -0.000322778 0)
(-0.000129266 -0.00037504 0)
(-0.000101243 -0.000375434 0)
(-7.35768e-05 -0.000378021 0)
(-4.50712e-05 -0.000379723 0)
(-1.68243e-05 -0.000380463 0)
(1.16219e-05 -0.000380809 0)
(3.99536e-05 -0.000380803 0)
(6.83549e-05 -0.000379962 0)
(9.66718e-05 -0.000378564 0)
(0.000126026 -0.000378557 0)
(-0.00013369 -0.000433184 0)
(-0.000104883 -0.000433535 0)
(-7.6355e-05 -0.000435809 0)
(-4.69023e-05 -0.000437418 0)
(-1.78045e-05 -0.000438002 0)
(1.14522e-05 -0.000438352 0)
(4.05664e-05 -0.000438327 0)
(6.97165e-05 -0.000437468 0)
(9.869e-05 -0.000436071 0)
(0.000128798 -0.000436023 0)
(-0.000140032 -0.00049252 0)
(-0.000109964 -0.000492971 0)
(-8.0146e-05 -0.000495091 0)
(-4.94906e-05 -0.000496654 0)
(-1.92556e-05 -0.0004972 0)
(1.11419e-05 -0.000497533 0)
(4.14276e-05 -0.000497455 0)
(7.1752e-05 -0.00049653 0)
(0.00010184 -0.000495062 0)
(0.000133173 -0.00049491 0)
(-0.000148828 -0.000554249 0)
(-0.000116993 -0.000554843 0)
(-8.53917e-05 -0.000557038 0)
(-5.30395e-05 -0.000558639 0)
(-2.11316e-05 -0.000559314 0)
(1.0955e-05 -0.000559647 0)
(4.29869e-05 -0.000559507 0)
(7.50538e-05 -0.000558488 0)
(0.000106867 -0.000556893 0)
(0.000139978 -0.000556593 0)
(-0.000160056 -0.000619827 0)
(-0.000125944 -0.000620575 0)
(-9.2057e-05 -0.000622858 0)
(-5.74512e-05 -0.000624507 0)
(-2.33074e-05 -0.000625333 0)
(1.10752e-05 -0.000625656 0)
(4.54202e-05 -0.000625449 0)
(7.98175e-05 -0.00062436 0)
(0.000113964 -0.000622681 0)
(0.000149412 -0.00062229 0)
(-0.000173822 -0.000690755 0)
(-0.000136879 -0.000691704 0)
(-0.000100139 -0.000693985 0)
(-6.26769e-05 -0.000695693 0)
(-2.56699e-05 -0.000696625 0)
(1.15995e-05 -0.000696958 0)
(4.88295e-05 -0.000696715 0)
(8.61163e-05 -0.000695611 0)
(0.000123157 -0.000693962 0)
(0.000161465 -0.000693506 0)
(-0.000190118 -0.000768145 0)
(-0.000149765 -0.000769293 0)
(-0.000109582 -0.000771512 0)
(-6.86906e-05 -0.000773253 0)
(-2.82251e-05 -0.000774264 0)
(1.24887e-05 -0.000774628 0)
(5.31471e-05 -0.000774402 0)
(9.38677e-05 -0.000773328 0)
(0.000134325 -0.00077181 0)
(0.000176021 -0.000771262 0)
(-0.000209116 -0.000853013 0)
(-0.000164718 -0.000854327 0)
(-0.000120481 -0.000856504 0)
(-7.55605e-05 -0.000858255 0)
(-3.10327e-05 -0.000859336 0)
(1.37182e-05 -0.000859728 0)
(5.83877e-05 -0.000859525 0)
(0.00010313 -0.000858471 0)
(0.000147577 -0.000857078 0)
(0.000193239 -0.000856379 0)
(-0.000231079 -0.000946553 0)
(-0.000181951 -0.000948038 0)
(-0.000133014 -0.000950172 0)
(-8.33847e-05 -0.000951922 0)
(-3.41415e-05 -0.000953038 0)
(1.53245e-05 -0.000953428 0)
(6.46718e-05 -0.000953205 0)
(0.000114107 -0.000952136 0)
(0.000163221 -0.000950796 0)
(0.000213511 -0.000949932 0)
(-0.000256281 -0.00105025 0)
(-0.000201687 -0.00105197 0)
(-0.000147323 -0.00105398 0)
(-9.22335e-05 -0.00105574 0)
(-3.7541e-05 -0.00105682 0)
(1.73856e-05 -0.00105719 0)
(7.21647e-05 -0.0010569 0)
(0.000127035 -0.0010558 0)
(0.000181584 -0.00105446 0)
(0.000237245 -0.00105345 0)
(-0.000285003 -0.00116569 0)
(-0.000224143 -0.0011677 0)
(-0.000163528 -0.00116952 0)
(-0.000102187 -0.00117131 0)
(-4.12301e-05 -0.00117232 0)
(1.99469e-05 -0.00117267 0)
(8.09866e-05 -0.0011723 0)
(0.0001421 -0.00117117 0)
(0.000202918 -0.00116983 0)
(0.000264768 -0.0011687 0)
(-0.000317647 -0.00129449 0)
(-0.000249626 -0.00129673 0)
(-0.000181853 -0.00129843 0)
(-0.000113398 -0.00130024 0)
(-4.52768e-05 -0.00130124 0)
(2.30216e-05 -0.00130158 0)
(9.1234e-05 -0.00130113 0)
(0.000159487 -0.00129997 0)
(0.000227482 -0.00129864 0)
(0.000296427 -0.00129737 0)
(-0.000354814 -0.00143839 0)
(-0.000278614 -0.00144074 0)
(-0.000202675 -0.00144248 0)
(-0.000126096 -0.00144429 0)
(-4.98022e-05 -0.00144538 0)
(2.66359e-05 -0.00144572 0)
(0.00010304 -0.0014452 0)
(0.000179454 -0.00144401 0)
(0.000255642 -0.00144267 0)
(0.000332701 -0.00144125 0)
(-0.000397221 -0.00159956 0)
(-0.000311674 -0.00160194 0)
(-0.000226426 -0.00160383 0)
(-0.000140528 -0.00160564 0)
(-5.49241e-05 -0.00160688 0)
(3.08345e-05 -0.00160721 0)
(0.000116568 -0.00160664 0)
(0.000202305 -0.0016054 0)
(0.000287833 -0.00160404 0)
(0.000374158 -0.00160248 0)
(-0.000445566 -0.00178061 0)
(-0.00034934 -0.00178305 0)
(-0.000253488 -0.00178508 0)
(-0.000156927 -0.0017869 0)
(-6.07374e-05 -0.00178827 0)
(3.56523e-05 -0.00178861 0)
(0.000131988 -0.001788 0)
(0.000228351 -0.00178674 0)
(0.000324502 -0.00178535 0)
(0.000421395 -0.0017836 0)
(-0.000500507 -0.00198446 0)
(-0.000392108 -0.00198701 0)
(-0.000284226 -0.00198913 0)
(-0.000175532 -0.00199099 0)
(-6.73307e-05 -0.00199244 0)
(4.11306e-05 -0.00199279 0)
(0.000149509 -0.00199215 0)
(0.000257948 -0.00199085 0)
(0.000366166 -0.00198942 0)
(0.00047508 -0.00198738 0)
(-0.000562763 -0.00221415 0)
(-0.000440549 -0.00221689 0)
(-0.000319069 -0.0022191 0)
(-0.000196601 -0.00222098 0)
(-7.47895e-05 -0.00222246 0)
(4.73713e-05 -0.00222281 0)
(0.000169432 -0.00222212 0)
(0.000291567 -0.00222075 0)
(0.000413479 -0.00221923 0)
(0.000536025 -0.00221679 0)
(-0.000633187 -0.00247298 0)
(-0.000495362 -0.00247609 0)
(-0.000358492 -0.00247834 0)
(-0.000220399 -0.00248024 0)
(-8.31746e-05 -0.00248167 0)
(5.45377e-05 -0.00248198 0)
(0.000192126 -0.00248121 0)
(0.000329779 -0.00247974 0)
(0.000467208 -0.00247809 0)
(0.000605189 -0.00247512 0)
(-0.000712765 -0.00276463 0)
(-0.000557323 -0.00276835 0)
(-0.000402968 -0.00277054 0)
(-0.00024721 -0.00277249 0)
(-9.25172e-05 -0.0027738 0)
(6.27985e-05 -0.00277408 0)
(0.000217989 -0.00277318 0)
(0.000373201 -0.0027716 0)
(0.000528201 -0.00276975 0)
(0.000683662 -0.00276615 0)
(-0.000802672 -0.00309325 0)
(-0.000627297 -0.00309765 0)
(-0.00045307 -0.00309986 0)
(-0.000277387 -0.00310187 0)
(-0.000102883 -0.00310312 0)
(7.23032e-05 -0.00310335 0)
(0.000247449 -0.00310229 0)
(0.000422529 -0.00310059 0)
(0.000597441 -0.00309846 0)
(0.000772721 -0.0030941 0)
(-0.000904396 -0.00346352 0)
(-0.000706382 -0.00346846 0)
(-0.000509662 -0.00347109 0)
(-0.000311404 -0.00347306 0)
(-0.000114465 -0.00347445 0)
(8.32133e-05 -0.0034746 0)
(0.000280975 -0.0034734 0)
(0.000478577 -0.00347154 0)
(0.000676072 -0.00346904 0)
(0.000873845 -0.00346382 0)
(-0.00101972 -0.00388096 0)
(-0.000795979 -0.00388648 0)
(-0.000573859 -0.00388981 0)
(-0.000349867 -0.00389169 0)
(-0.000127567 -0.00389341 0)
(9.572e-05 -0.00389345 0)
(0.000319072 -0.00389211 0)
(0.000542254 -0.00389007 0)
(0.000765327 -0.00388716 0)
(0.000988627 -0.003881 0)
(-0.00115043 -0.00435216 0)
(-0.000897607 -0.00435887 0)
(-0.000646669 -0.00436258 0)
(-0.000393437 -0.0043646 0)
(-0.000142395 -0.00436646 0)
(0.000110037 -0.00436643 0)
(0.000362319 -0.00436491 0)
(0.000614529 -0.00436267 0)
(0.000866517 -0.00435935 0)
(0.00111875 -0.0043522 0)
(-0.00129818 -0.00488455 0)
(-0.0010127 -0.00489327 0)
(-0.000728824 -0.00489669 0)
(-0.000442774 -0.0048992 0)
(-0.000158942 -0.00490088 0)
(0.000126404 -0.00490083 0)
(0.000411445 -0.00489906 0)
(0.000696481 -0.0048966 0)
(0.000981158 -0.0048929 0)
(0.00126613 -0.00488485 0)
(-0.00146487 -0.00548633 0)
(-0.00114278 -0.00549692 0)
(-0.000821255 -0.00550003 0)
(-0.000498586 -0.00550312 0)
(-0.000177257 -0.00550462 0)
(0.000145069 -0.00550457 0)
(0.000467243 -0.00550257 0)
(0.000789316 -0.00549991 0)
(0.00111099 -0.00549591 0)
(0.00143292 -0.0054873 0)
(-0.00165316 -0.0061668 0)
(-0.00128982 -0.00617803 0)
(-0.000925676 -0.00618166 0)
(-0.000561787 -0.00618503 0)
(-0.000197849 -0.00618684 0)
(0.00016622 -0.00618678 0)
(0.000530384 -0.00618471 0)
(0.000894308 -0.00618186 0)
(0.00125786 -0.00617774 0)
(0.00162152 -0.00616918 0)
(-0.00186632 -0.00693718 0)
(-0.00145637 -0.006948 0)
(-0.00104431 -0.00695248 0)
(-0.000633545 -0.00695608 0)
(-0.000221518 -0.00695849 0)
(0.000189997 -0.00695843 0)
(0.000601517 -0.00695641 0)
(0.00101285 -0.00695341 0)
(0.00142376 -0.00694935 0)
(0.00183456 -0.00694156 0)
(-0.00210756 -0.00781063 0)
(-0.00164502 -0.0078209 0)
(-0.00117895 -0.0078253 0)
(-0.000715057 -0.00782954 0)
(-0.000248676 -0.00783212 0)
(0.00021664 -0.00783221 0)
(0.000681645 -0.00783013 0)
(0.00114662 -0.00782697 0)
(0.00161109 -0.00782311 0)
(0.00207513 -0.0078167 0)
(-0.00238 -0.00880137 0)
(-0.00185815 -0.00881043 0)
(-0.00133096 -0.00881395 0)
(-0.000807293 -0.00881896 0)
(-0.000279261 -0.00882128 0)
(0.000246594 -0.00882158 0)
(0.000772175 -0.00881927 0)
(0.0012977 -0.00881587 0)
(0.00182272 -0.00881222 0)
(0.00234691 -0.00880756 0)
(-0.00268763 -0.00992384 0)
(-0.0020983 -0.00992936 0)
(-0.00150237 -0.00993294 0)
(-0.000911083 -0.00993793 0)
(-0.000313535 -0.00994034 0)
(0.000280466 -0.00994065 0)
(0.000874643 -0.0099381 0)
(0.00146853 -0.00993429 0)
(0.00206202 -0.00993071 0)
(0.00265427 -0.00992774 0)
(-0.0030357 -0.0111931 0)
(-0.00236891 -0.0111932 0)
(-0.00169635 -0.0111981 0)
(-0.00102749 -0.0112022 0)
(-0.000352367 -0.0112052 0)
(0.000319007 -0.0112052 0)
(0.000990705 -0.0112024 0)
(0.00166205 -0.0111979 0)
(0.00233299 -0.0111941 0)
(0.00300238 -0.0111923 0)
(-0.0034298 -0.012626 0)
(-0.00267429 -0.0126219 0)
(-0.00191586 -0.0126273 0)
(-0.00115798 -0.0126307 0)
(-0.000396235 -0.0126339 0)
(0.000363203 -0.0126335 0)
(0.00112251 -0.0126301 0)
(0.00188164 -0.0126246 0)
(0.00264017 -0.0126202 0)
(0.00339707 -0.0126188 0)
(-0.00387515 -0.0142413 0)
(-0.00301903 -0.0142363 0)
(-0.00216287 -0.0142406 0)
(-0.00130431 -0.0142442 0)
(-0.000444797 -0.0142468 0)
(0.000414131 -0.014246 0)
(0.00127261 -0.0142416 0)
(0.00213094 -0.0142351 0)
(0.00298838 -0.0142298 0)
(0.00384445 -0.0142283 0)
(-0.0043778 -0.0160612 0)
(-0.00340832 -0.0160571 0)
(-0.00244044 -0.0160607 0)
(-0.00146897 -0.016065 0)
(-0.000498454 -0.0160673 0)
(0.000472431 -0.0160663 0)
(0.0014432 -0.0160613 0)
(0.00241344 -0.0160539 0)
(0.00338263 -0.0160479 0)
(0.00435089 -0.0160463 0)
(-0.00494602 -0.0181128 0)
(-0.00384904 -0.0181103 0)
(-0.00275434 -0.0181151 0)
(-0.00165573 -0.0181203 0)
(-0.000559481 -0.0181238 0)
(0.000538056 -0.0181229 0)
(0.00163567 -0.0181178 0)
(0.00273248 -0.01811 0)
(0.0038281 -0.0181037 0)
(0.0049231 -0.0181024 0)
(-0.00558985 -0.0204302 0)
(-0.0043498 -0.0204311 0)
(-0.00311139 -0.0204373 0)
(-0.00186937 -0.0204449 0)
(-0.0006304 -0.0204498 0)
(0.000610894 -0.0204495 0)
(0.00185178 -0.0204446 0)
(0.00309205 -0.0204365 0)
(0.00433086 -0.0204299 0)
(0.00556911 -0.0204293 0)
(-0.00632035 -0.023054 0)
(-0.00491962 -0.0230594 0)
(-0.00351769 -0.0230661 0)
(-0.00211448 -0.0230771 0)
(-0.000712315 -0.0230829 0)
(0.000691666 -0.0230835 0)
(0.00209506 -0.0230783 0)
(0.00349797 -0.0230696 0)
(0.00489922 -0.0230621 0)
(0.00629963 -0.0230617 0)
(-0.00715012 -0.0260295 0)
(-0.00556721 -0.0260356 0)
(-0.00397986 -0.0260443 0)
(-0.00239432 -0.0260573 0)
(-0.000805724 -0.0260641 0)
(0.000782499 -0.0260647 0)
(0.00237074 -0.0260587 0)
(0.00395821 -0.0260483 0)
(0.00554397 -0.0260391 0)
(0.00712847 -0.0260378 0)
(-0.00809351 -0.0294033 0)
(-0.00630207 -0.0294063 0)
(-0.00450568 -0.0294183 0)
(-0.00271111 -0.0294315 0)
(-0.000911309 -0.0294391 0)
(0.000886829 -0.029439 0)
(0.00268513 -0.0294314 0)
(0.00448241 -0.0294185 0)
(0.00627768 -0.0294068 0)
(0.00807153 -0.0294038 0)
(-0.00916619 -0.0332253 0)
(-0.00713613 -0.0332258 0)
(-0.00510277 -0.0332397 0)
(-0.00306841 -0.0332533 0)
(-0.00102969 -0.0332613 0)
(0.00100778 -0.0332604 0)
(0.00304482 -0.0332508 0)
(0.00508077 -0.0332353 0)
(0.00711396 -0.033221 0)
(0.00914591 -0.0332166 0)
(-0.0103867 -0.0375513 0)
(-0.00808469 -0.0375519 0)
(-0.00578055 -0.0375676 0)
(-0.00347312 -0.0375829 0)
(-0.00116289 -0.0375918 0)
(0.00114661 -0.0375908 0)
(0.00345566 -0.0375798 0)
(0.00576312 -0.0375618 0)
(0.00806734 -0.0375452 0)
(0.0103701 -0.0375398 0)
(-0.0117799 -0.0424468 0)
(-0.00916776 -0.0424505 0)
(-0.00655418 -0.0424706 0)
(-0.00393536 -0.0424893 0)
(-0.00131582 -0.042501 0)
(0.00130412 -0.0425005 0)
(0.0039238 -0.0424882 0)
(0.00654132 -0.0424673 0)
(0.00915523 -0.0424474 0)
(0.011767 -0.0424402 0)
(-0.0133777 -0.0479929 0)
(-0.0104108 -0.0480049 0)
(-0.00744288 -0.0480302 0)
(-0.00446778 -0.0480553 0)
(-0.00149365 -0.0480705 0)
(0.001483 -0.0480706 0)
(0.00445877 -0.0480561 0)
(0.00743228 -0.048031 0)
(0.0104012 -0.0480057 0)
(0.0133672 -0.0479941 0)
(-0.0152147 -0.0542935 0)
(-0.0118421 -0.0543165 0)
(-0.00846529 -0.0543469 0)
(-0.00508307 -0.0543803 0)
(-0.00169878 -0.0543984 0)
(0.00168782 -0.0543989 0)
(0.00507336 -0.0543812 0)
(0.00845617 -0.0543504 0)
(0.0118329 -0.0543184 0)
(0.0152062 -0.0543005 0)
(-0.0173286 -0.0614733 0)
(-0.0134897 -0.0615028 0)
(-0.00964208 -0.0615425 0)
(-0.00579217 -0.0615829 0)
(-0.001934 -0.0616051 0)
(0.00192361 -0.0616056 0)
(0.00578048 -0.0615842 0)
(0.00963349 -0.0615468 0)
(0.0134789 -0.0615072 0)
(0.0173203 -0.0614825 0)
(-0.0197627 -0.069666 0)
(-0.0153867 -0.0697003 0)
(-0.0109992 -0.0697539 0)
(-0.00660757 -0.0698012 0)
(-0.00220561 -0.069829 0)
(0.00219497 -0.0698295 0)
(0.00659392 -0.0698034 0)
(0.010988 -0.069757 0)
(0.0153735 -0.0697068 0)
(0.0197525 -0.069672 0)
(-0.0225709 -0.0790122 0)
(-0.0175741 -0.0790591 0)
(-0.0125649 -0.0791278 0)
(-0.00754589 -0.0791862 0)
(-0.00251906 -0.0792202 0)
(0.00250831 -0.0792209 0)
(0.00753323 -0.0791876 0)
(0.0125525 -0.0791284 0)
(0.0175615 -0.0790616 0)
(0.0225619 -0.07901 0)
(-0.0258161 -0.0896748 0)
(-0.0200979 -0.0897431 0)
(-0.0143709 -0.0898296 0)
(-0.00862816 -0.089903 0)
(-0.00287984 -0.0899452 0)
(0.00287092 -0.0899459 0)
(0.00862043 -0.0899047 0)
(0.0143628 -0.0898306 0)
(0.0200925 -0.0897445 0)
(0.0258122 -0.0896726 0)
(-0.0295541 -0.101863 0)
(-0.0230043 -0.101959 0)
(-0.0164488 -0.102066 0)
(-0.00987545 -0.102157 0)
(-0.00329628 -0.102209 0)
(0.00328742 -0.102209 0)
(0.00986908 -0.102159 0)
(0.0164432 -0.102069 0)
(0.0230017 -0.101963 0)
(0.0295501 -0.10187 0)
(-0.0338332 -0.115832 0)
(-0.0263369 -0.115956 0)
(-0.0188276 -0.116088 0)
(-0.0113042 -0.1162 0)
(-0.003771 -0.116262 0)
(0.00376583 -0.116262 0)
(0.0112987 -0.1162 0)
(0.0188227 -0.11609 0)
(0.0263306 -0.115959 0)
(0.033827 -0.115839 0)
(-0.0387044 -0.131838 0)
(-0.0301283 -0.131983 0)
(-0.0215366 -0.132144 0)
(-0.012929 -0.132276 0)
(-0.00431012 -0.13235 0)
(0.0043094 -0.132352 0)
(0.0129269 -0.132281 0)
(0.0215332 -0.13215 0)
(0.0301235 -0.131992 0)
(0.0387017 -0.131847 0)
(-0.0441928 -0.150131 0)
(-0.0343905 -0.150304 0)
(-0.0245834 -0.150488 0)
(-0.0147546 -0.150642 0)
(-0.00492356 -0.15073 0)
(0.00491383 -0.150733 0)
(0.0147486 -0.150651 0)
(0.024576 -0.150501 0)
(0.0343861 -0.150318 0)
(0.0441878 -0.150153 0)
(-0.0502971 -0.171017 0)
(-0.0391326 -0.171214 0)
(-0.0279641 -0.171412 0)
(-0.0167891 -0.171591 0)
(-0.0056023 -0.171688 0)
(0.00558642 -0.171691 0)
(0.0167748 -0.171598 0)
(0.0279574 -0.17143 0)
(0.0391229 -0.171227 0)
(0.0502873 -0.171054 0)
(-0.0569655 -0.194812 0)
(-0.0443163 -0.194987 0)
(-0.0316605 -0.195196 0)
(-0.0190137 -0.195383 0)
(-0.00634205 -0.195484 0)
(0.00632142 -0.195488 0)
(0.0189873 -0.19539 0)
(0.0316477 -0.195212 0)
(0.0442952 -0.195 0)
(0.056953 -0.194849 0)
(-0.0641036 -0.221753 0)
(-0.0498512 -0.221875 0)
(-0.0356098 -0.222076 0)
(-0.0213777 -0.222264 0)
(-0.00712788 -0.222364 0)
(0.00710794 -0.222368 0)
(0.0213528 -0.222268 0)
(0.0355964 -0.222089 0)
(0.0498313 -0.221877 0)
(0.0640939 -0.221796 0)
(-0.0715238 -0.252023 0)
(-0.055612 -0.252055 0)
(-0.0397137 -0.252219 0)
(-0.023843 -0.252416 0)
(-0.00794189 -0.252512 0)
(0.00793098 -0.252521 0)
(0.023824 -0.252428 0)
(0.0397164 -0.252257 0)
(0.0555961 -0.252059 0)
(0.0715233 -0.252108 0)
(-0.078784 -0.285658 0)
(-0.0612687 -0.285542 0)
(-0.0437457 -0.285697 0)
(-0.0262988 -0.2859 0)
(-0.00875685 -0.285997 0)
(0.00873036 -0.286015 0)
(0.0262558 -0.285933 0)
(0.0437754 -0.285772 0)
(0.0612749 -0.285585 0)
(0.0788298 -0.285807 0)
(-0.084909 -0.321898 0)
(-0.0660768 -0.321543 0)
(-0.0471792 -0.321757 0)
(-0.0283897 -0.321922 0)
(-0.00946151 -0.322017 0)
(0.00939425 -0.322007 0)
(0.0283077 -0.321922 0)
(0.0472128 -0.321749 0)
(0.0661024 -0.321564 0)
(0.0850209 -0.321953 0)
(-0.0872642 -0.361222 0)
(-0.0678841 -0.360518 0)
(-0.0484372 -0.36092 0)
(-0.0290492 -0.361012 0)
(-0.00964094 -0.361158 0)
(0.00973297 -0.361122 0)
(0.0291357 -0.361009 0)
(0.0485599 -0.360829 0)
(0.068001 -0.360657 0)
(0.0874004 -0.361092 0)
(-0.0825465 -0.400028 0)
(-0.0640661 -0.399913 0)
(-0.0456939 -0.400649 0)
(-0.0272138 -0.40078 0)
(-0.00894023 -0.400999 0)
(0.00938285 -0.401104 0)
(0.0276213 -0.401126 0)
(0.0458966 -0.401036 0)
(0.0642295 -0.400722 0)
(0.0825016 -0.400324 0)
(-0.0753939 -0.417294 0)
(-0.0584 -0.417376 0)
(-0.0416271 -0.417012 0)
(-0.0248316 -0.41685 0)
(-0.00835437 -0.416678 0)
(0.00824146 -0.416618 0)
(0.0248168 -0.416681 0)
(0.0415271 -0.416861 0)
(0.0584138 -0.417004 0)
(0.0754114 -0.417196 0)
(-0.0704178 -0.48291 0)
(-0.0546392 -0.482272 0)
(-0.0389532 -0.481805 0)
(-0.0233218 -0.481532 0)
(-0.00773273 -0.481385 0)
(0.00783269 -0.48138 0)
(0.0234159 -0.481508 0)
(0.0390327 -0.481784 0)
(0.0547023 -0.482222 0)
(0.0704798 -0.482879 0)
(-0.0703961 -0.502761 0)
(-0.0548381 -0.502085 0)
(-0.0392115 -0.501648 0)
(-0.0235418 -0.501332 0)
(-0.00782665 -0.501184 0)
(0.00788692 -0.501178 0)
(0.0235943 -0.501317 0)
(0.0392751 -0.501612 0)
(0.0549023 -0.502064 0)
(0.0704632 -0.502713 0)
(-0.0696781 -0.528336 0)
(-0.0543731 -0.527966 0)
(-0.0389372 -0.527695 0)
(-0.0233875 -0.527497 0)
(-0.00779063 -0.527403 0)
(0.00783897 -0.527399 0)
(0.0234459 -0.527492 0)
(0.0389939 -0.527682 0)
(0.0544429 -0.527963 0)
(0.0697572 -0.52832 0)
(-0.0692885 -0.559374 0)
(-0.0540847 -0.559363 0)
(-0.0387362 -0.559323 0)
(-0.0232678 -0.559298 0)
(-0.00774816 -0.559281 0)
(0.0078014 -0.559279 0)
(0.0233251 -0.55929 0)
(0.0387865 -0.559316 0)
(0.0541438 -0.559349 0)
(0.0693473 -0.559368 0)
(-0.0685078 -0.590088 0)
(-0.0535077 -0.590456 0)
(-0.0383315 -0.590685 0)
(-0.0230358 -0.59084 0)
(-0.00766768 -0.590912 0)
(0.00772365 -0.590909 0)
(0.0230908 -0.590829 0)
(0.0383863 -0.590672 0)
(0.0535622 -0.590429 0)
(0.0685611 -0.590071 0)
(-0.0670646 -0.61944 0)
(-0.0524312 -0.620243 0)
(-0.0375869 -0.620803 0)
(-0.022599 -0.621168 0)
(-0.00752114 -0.621349 0)
(0.0075842 -0.621347 0)
(0.0226611 -0.621162 0)
(0.0376507 -0.620793 0)
(0.0524947 -0.620229 0)
(0.0671271 -0.619427 0)
(-0.0648075 -0.647904 0)
(-0.0507516 -0.649254 0)
(-0.0364292 -0.650219 0)
(-0.0219214 -0.65085 0)
(-0.00730108 -0.651163 0)
(0.00735497 -0.651162 0)
(0.0219749 -0.650848 0)
(0.0364836 -0.650216 0)
(0.0508071 -0.64925 0)
(0.0648632 -0.647897 0)
(-0.0618675 -0.674919 0)
(-0.0485453 -0.676967 0)
(-0.0348968 -0.678446 0)
(-0.0210199 -0.679413 0)
(-0.0070053 -0.679892 0)
(0.007054 -0.67989 0)
(0.0210687 -0.679408 0)
(0.0349462 -0.678439 0)
(0.0485947 -0.676957 0)
(0.0619162 -0.674904 0)
(-0.0588295 -0.700318 0)
(-0.0462203 -0.703181 0)
(-0.0332592 -0.705267 0)
(-0.0200483 -0.706635 0)
(-0.00668449 -0.707313 0)
(0.00672868 -0.707311 0)
(0.0200923 -0.70663 0)
(0.0333043 -0.705258 0)
(0.046265 -0.703169 0)
(0.0588733 -0.700302 0)
(-0.056431 -0.72444 0)
(-0.0443241 -0.728099 0)
(-0.0318899 -0.730795 0)
(-0.0192223 -0.732574 0)
(-0.00641058 -0.733458 0)
(0.00644954 -0.733457 0)
(0.0192618 -0.732569 0)
(0.0319296 -0.730787 0)
(0.0443632 -0.728088 0)
(0.0564699 -0.724425 0)
(-0.0552554 -0.747968 0)
(-0.0433222 -0.752262 0)
(-0.0311258 -0.755469 0)
(-0.0187466 -0.757602 0)
(-0.00625082 -0.758668 0)
(0.0062835 -0.758666 0)
(0.0187791 -0.757598 0)
(0.0311591 -0.755461 0)
(0.0433542 -0.752251 0)
(0.055287 -0.747954 0)
(-0.0555909 -0.771692 0)
(-0.0434724 -0.776387 0)
(-0.0311734 -0.779941 0)
(-0.0187496 -0.782327 0)
(-0.00625003 -0.783524 0)
(0.00627605 -0.783522 0)
(0.018776 -0.782322 0)
(0.0312 -0.779933 0)
(0.0434981 -0.776375 0)
(0.0556165 -0.771677 0)
(-0.0574363 -0.796289 0)
(-0.0447965 -0.801172 0)
(-0.0320726 -0.804914 0)
(-0.0192684 -0.807444 0)
(-0.00642012 -0.808719 0)
(0.00644077 -0.808717 0)
(0.0192878 -0.807439 0)
(0.0320928 -0.804906 0)
(0.0448161 -0.801162 0)
(0.0574548 -0.796275 0)
(-0.0606259 -0.822307 0)
(-0.0471757 -0.827243 0)
(-0.0337456 -0.831043 0)
(-0.0202607 -0.83363 0)
(-0.00675146 -0.83494 0)
(0.00676381 -0.834938 0)
(0.0202732 -0.833625 0)
(0.0337581 -0.831035 0)
(0.0471881 -0.827232 0)
(0.0606408 -0.822291 0)
(-0.0647431 -0.850043 0)
(-0.050308 -0.854992 0)
(-0.0359797 -0.858813 0)
(-0.0216076 -0.861426 0)
(-0.00720165 -0.862751 0)
(0.00721085 -0.862749 0)
(0.021616 -0.861421 0)
(0.0359882 -0.858805 0)
(0.0503164 -0.85498 0)
(0.0647533 -0.850026 0)
(-0.0696272 -0.879726 0)
(-0.0540042 -0.88473 0)
(-0.0386199 -0.88859 0)
(-0.0232062 -0.89123 0)
(-0.00773818 -0.892572 0)
(0.00774196 -0.89257 0)
(0.0232084 -0.891226 0)
(0.0386225 -0.888583 0)
(0.054008 -0.884721 0)
(0.0696326 -0.879712 0)
(-0.074603 -0.911238 0)
(-0.0577689 -0.916543 0)
(-0.0413039 -0.92054 0)
(-0.024833 -0.923251 0)
(-0.0082878 -0.924627 0)
(0.00828783 -0.924626 0)
(0.0248331 -0.923247 0)
(0.0413032 -0.920533 0)
(0.0577693 -0.916534 0)
(0.0746082 -0.911227 0)
(-0.0791698 -0.944674 0)
(-0.0611569 -0.950283 0)
(-0.0436845 -0.954492 0)
(-0.026277 -0.95735 0)
(-0.00877434 -0.958801 0)
(0.00877566 -0.9588 0)
(0.0262771 -0.957347 0)
(0.0436848 -0.954487 0)
(0.0611579 -0.950276 0)
(0.0791744 -0.944667 0)
(-0.0827748 -0.979739 0)
(-0.0639495 -0.985638 0)
(-0.0456091 -0.99016 0)
(-0.0274301 -0.993237 0)
(-0.00916258 -0.994796 0)
(0.00916553 -0.994796 0)
(0.0274337 -0.993234 0)
(0.0456128 -0.990157 0)
(0.0639544 -0.985633 0)
(0.0827818 -0.979737 0)
(-0.0844344 -1.01511 0)
(-0.0653925 -1.02191 0)
(-0.0465464 -1.02698 0)
(-0.0279677 -1.03037 0)
(-0.00933866 -1.03206 0)
(0.00934649 -1.03206 0)
(0.0279758 -1.03036 0)
(0.0465576 -1.02698 0)
(0.0654036 -1.02191 0)
(0.0844442 -1.01511 0)
(-0.0832293 -1.05091 0)
(-0.0650732 -1.05844 0)
(-0.0460922 -1.06401 0)
(-0.0276252 -1.06768 0)
(-0.00921473 -1.06953 0)
(0.00922956 -1.06953 0)
(0.0276408 -1.06768 0)
(0.0461071 -1.06401 0)
(0.0650889 -1.05844 0)
(0.0832453 -1.05091 0)
(-0.0791822 -1.08701 0)
(-0.0627173 -1.09445 0)
(-0.0442304 -1.10015 0)
(-0.0264222 -1.10401 0)
(-0.00880736 -1.10596 0)
(0.00881717 -1.10596 0)
(0.0264334 -1.10401 0)
(0.044243 -1.10015 0)
(0.0627287 -1.09445 0)
(0.0791958 -1.08701 0)
(-0.072382 -1.12127 0)
(-0.0581552 -1.12847 0)
(-0.040955 -1.13422 0)
(-0.0244103 -1.13821 0)
(-0.00813163 -1.14025 0)
(0.00813735 -1.14024 0)
(0.0244159 -1.13821 0)
(0.0409607 -1.13422 0)
(0.0581595 -1.12847 0)
(0.0723863 -1.12127 0)
(-0.0630922 -1.15194 0)
(-0.0515065 -1.15913 0)
(-0.0363021 -1.165 0)
(-0.0216152 -1.16914 0)
(-0.00720079 -1.17129 0)
(0.00719839 -1.17129 0)
(0.021613 -1.16914 0)
(0.0363001 -1.165 0)
(0.0515044 -1.15913 0)
(0.0630914 -1.15193 0)
(-0.0518779 -1.17804 0)
(-0.0430577 -1.18531 0)
(-0.0304455 -1.19137 0)
(-0.0181431 -1.19575 0)
(-0.00605077 -1.19805 0)
(0.00604303 -1.19805 0)
(0.0181357 -1.19575 0)
(0.030438 -1.19137 0)
(0.0430508 -1.18531 0)
(0.0518716 -1.17804 0)
(-0.0396403 -1.19907 0)
(-0.0333956 -1.20626 0)
(-0.0238712 -1.21249 0)
(-0.0143041 -1.21723 0)
(-0.00479204 -1.21981 0)
(0.00478212 -1.21981 0)
(0.0142941 -1.21723 0)
(0.023861 -1.21249 0)
(0.0333855 -1.20626 0)
(0.0396305 -1.19907 0)
(-0.0270888 -1.21454 0)
(-0.0233289 -1.22138 0)
(-0.0171103 -1.22783 0)
(-0.0104748 -1.23321 0)
(-0.0035612 -1.23636 0)
(0.00355189 -1.23636 0)
(0.0104652 -1.23321 0)
(0.0171004 -1.22783 0)
(0.0233189 -1.22138 0)
(0.0270789 -1.21454 0)
(-0.0148737 -1.22355 0)
(-0.0134928 -1.23009 0)
(-0.0105856 -1.23707 0)
(-0.00687779 -1.24365 0)
(-0.00241963 -1.24791 0)
(0.0024131 -1.24791 0)
(0.00687077 -1.24365 0)
(0.0105779 -1.23707 0)
(0.0134844 -1.23009 0)
(0.0148652 -1.22355 0)
(-0.00395877 -1.22577 0)
(-0.00472487 -1.23229 0)
(-0.00481161 -1.24051 0)
(-0.00347801 -1.24907 0)
(-0.00119497 -1.25502 0)
(0.00119141 -1.25502 0)
(0.00347385 -1.24907 0)
(0.00480695 -1.24051 0)
(0.0047196 -1.23229 0)
(0.00395328 -1.22577 0)
(0.00423838 -1.22113 0)
(0.00167568 -1.22872 0)
(-0.000498699 -1.23996 0)
(8.11003e-05 -1.25129 0)
(0.000662925 -1.25772 0)
(-0.000664673 -1.25772 0)
(-8.26031e-05 -1.25128 0)
(0.000496703 -1.23996 0)
(-0.00167804 -1.22872 0)
(-0.00424091 -1.22113 0)
(0.0074307 -1.20746 0)
(0.00407463 -1.22049 0)
(0.00235541 -1.23945 0)