/*--------------------------------*- C++ -*----------------------------------*\
  =========                 |
  \\      /  F ield         | OpenFOAM: The Open Source CFD Toolbox
   \\    /   O peration     | Website:  https://openfoam.org
    \\  /    A nd           | Version:  8
     \\/     M anipulation  |
\*---------------------------------------------------------------------------*/
FoamFile
{
    version     2.0;
    format      ascii;
    class       volScalarField;
    location    "5";
    object      k;
}
// * * * * * * * * * * * * * * * * * * * * * * * * * * * * * * * * * * * * * //

dimensions      [0 2 -2 0 0 0 0];

internalField   nonuniform List<scalar> 
9150
(
0.00182759
0.000941178
0.000475662
0.000301446
0.000191987
0.000191881
0.000301313
0.000475528
0.000941041
0.0018276
0.00178488
0.000747016
0.000398911
0.000256718
0.000160551
0.000160464
0.000256594
0.00039879
0.000746901
0.00178487
0.00171341
0.000651705
0.000365894
0.000236624
0.000147946
0.000147871
0.000236509
0.000365783
0.000651609
0.00171339
0.00163484
0.000601687
0.000352756
0.000228561
0.000143143
0.000143073
0.000228453
0.000352649
0.000601605
0.00163482
0.00155138
0.000580196
0.00034797
0.000225725
0.000141634
0.000141567
0.00022562
0.000347866
0.000580123
0.00155136
0.00284665
0.00255207
0.00185107
0.00161322
0.00132498
0.00132545
0.0016152
0.00185526
0.00255829
0.00284756
0.00230432
0.00150289
0.0012804
0.00120738
0.000971245
0.000971263
0.00120806
0.00128215
0.00150407
0.00230426
0.00204925
0.00125187
0.000887572
0.000806184
0.000623565
0.000623444
0.000806324
0.000888078
0.00125201
0.00204916
0.00186755
0.00111032
0.000649329
0.000529499
0.000385068
0.000384931
0.000529423
0.000649369
0.00111016
0.0018675
0.00178731
0.00102088
0.000524
0.000371478
0.000252141
0.000252021
0.000371348
0.000523893
0.0010207
0.00178728
0.0110953
0.00487046
0.00257977
0.00189429
0.00153533
0.0015299
0.00189154
0.00268181
0.00581723
0.0144973
0.00490546
0.00381472
0.00250706
0.00188951
0.00154157
0.00153883
0.00188904
0.00250484
0.00374425
0.00495061
0.00440515
0.00343489
0.0024859
0.00188698
0.00154851
0.00154816
0.00189067
0.00249039
0.003411
0.00441682
0.00391719
0.00315302
0.00246944
0.00188391
0.00155541
0.00155637
0.0018883
0.00247506
0.00315768
0.00392194
0.00335758
0.00309682
0.00236663
0.00183892
0.001528
0.00152922
0.00184275
0.0023725
0.00310839
0.00335947
0.0004445
0.000443201
0.000442547
0.000443518
0.00044287
0.000443413
0.000444559
0.000444101
0.000443779
0.00044743
0.000980128
0.000984137
0.000988767
0.000993067
0.000997577
0.00100155
0.00100504
0.00100868
0.00101209
0.0010143
0.00135102
0.00135791
0.0013649
0.00137182
0.00137856
0.00138497
0.00139095
0.00139644
0.0014013
0.00140535
0.0016467
0.00165677
0.00166708
0.00167752
0.00168795
0.00169826
0.00170837
0.00171818
0.00172765
0.00173677
0.0019075
0.00192152
0.00193616
0.0019513
0.00196686
0.00198274
0.00199889
0.00201532
0.00203208
0.00204938
0.00215211
0.00217104
0.00219108
0.00221217
0.00223424
0.00225726
0.00228127
0.0023064
0.00233292
0.00236134
0.0023923
0.00241715
0.00244368
0.00247186
0.00250168
0.00253319
0.00256655
0.00260208
0.00264034
0.00268228
0.00263648
0.00266822
0.00270219
0.0027384
0.00277691
0.00281785
0.00286153
0.00290851
0.00295971
0.00301658
0.00289114
0.00293057
0.0029727
0.00301756
0.00306525
0.00311601
0.00317032
0.00322898
0.00329331
0.00336526
0.00316146
0.00320914
0.00325983
0.00331357
0.00337049
0.00343092
0.00349549
0.00356528
0.00364197
0.003728
0.00345169
0.00350794
0.00356732
0.00362984
0.00369568
0.00376524
0.00383931
0.0039192
0.00400696
0.00410548
0.00376555
0.00383051
0.00389854
0.00396966
0.00404406
0.00412223
0.00420511
0.00429425
0.00439206
0.00450189
0.00410659
0.00418046
0.00425726
0.00433705
0.00442007
0.00450692
0.00459867
0.00469719
0.00480529
0.00492695
0.00447887
0.0045622
0.00464841
0.00473766
0.00483034
0.00492714
0.00502932
0.00513907
0.00525988
0.00539656
0.00488747
0.00498158
0.00507882
0.0051796
0.00528453
0.00539453
0.00551097
0.00563638
0.00577517
0.00593362
0.005339
0.00544642
0.0055577
0.00567374
0.00579563
0.00592461
0.00606208
0.00621066
0.00637601
0.00656676
0.00584162
0.00596653
0.00609666
0.00623353
0.00637903
0.0065351
0.00670318
0.00688562
0.00709034
0.00732842
0.00640385
0.00655241
0.00670821
0.00687325
0.00705018
0.00724194
0.00745052
0.00768135
0.00794523
0.0082506
0.00703162
0.00721129
0.00740095
0.00760274
0.00781956
0.00805592
0.00831794
0.00861797
0.00896355
0.00935601
0.00772725
0.00794597
0.00817834
0.00842732
0.0086983
0.00899928
0.0093384
0.00972352
0.0101599
0.0106487
0.00849222
0.00875924
0.00904566
0.00935741
0.00970349
0.0100901
0.0105224
0.0110046
0.0115411
0.0121345
0.00932388
0.00965012
0.0100062
0.0104
0.0108382
0.0113247
0.0118624
0.0124548
0.0131051
0.0138163
0.0102184
0.0106173
0.0110584
0.0115482
0.0120909
0.012689
0.0133445
0.0140598
0.0148373
0.0156805
0.0111735
0.0116569
0.0121935
0.0127885
0.0134448
0.0141639
0.0149472
0.0157965
0.0167137
0.0177018
0.0121812
0.0127568
0.0133957
0.0141023
0.0148787
0.0157262
0.0166457
0.017638
0.0187038
0.0198446
0.0132282
0.0138998
0.0146442
0.0154656
0.0163659
0.0173463
0.0184071
0.019548
0.0207682
0.0220669
0.0142893
0.0150605
0.0159133
0.016851
0.0178763
0.0189905
0.0201936
0.0214844
0.02286
0.0243168
0.0153511
0.01622
0.0171788
0.0182305
0.0193778
0.020622
0.0219629
0.0233982
0.0249232
0.0265313
0.0164035
0.0173635
0.0184209
0.0195785
0.0208386
0.0222024
0.0236692
0.0252362
0.0268981
0.0286469
0.0174358
0.0184766
0.0196209
0.0208711
0.0222289
0.0236947
0.0252673
0.0269432
0.0287168
0.030581
0.018433
0.0195419
0.0207582
0.022084
0.02352
0.0250657
0.0267189
0.0284743
0.0303236
0.0322538
0.0193801
0.0205405
0.0218101
0.02319
0.0246801
0.026279
0.0279834
0.0297858
0.0316736
0.0336227
0.0202662
0.0214578
0.0227575
0.024165
0.0256793
0.0272982
0.0290176
0.0308277
0.0327118
0.0346319
0.0210887
0.0222895
0.023594
0.0250007
0.0265076
0.0281125
0.0298104
0.0315893
0.0334293
0.0352862
0.0218502
0.0230401
0.0243271
0.0257087
0.0271823
0.0287454
0.0303922
0.0321107
0.0338813
0.0356645
0.0225625
0.0237261
0.024979
0.0263182
0.0277407
0.0292437
0.0308213
0.0324635
0.0341535
0.0358635
0.0232468
0.0243734
0.0255813
0.0268676
0.0282298
0.0296651
0.0311689
0.0327338
0.0343481
0.0359936
0.0239228
0.0250062
0.0261639
0.0273938
0.0286942
0.0300638
0.0314995
0.0329966
0.0345483
0.0361442
0.0246131
0.0256496
0.0267559
0.027931
0.0291751
0.030488
0.0318686
0.0333148
0.0348236
0.0363909
0.0253335
0.0263245
0.0273824
0.0285088
0.0297058
0.0309748
0.0323167
0.0337322
0.0352219
0.0367866
0.0260996
0.0270481
0.0280617
0.0291462
0.0303062
0.0315448
0.032865
0.0342697
0.0357628
0.0373491
0.026919
0.0278253
0.0287972
0.0298461
0.030979
0.0322005
0.0335149
0.0349267
0.0364424
0.0380706
0.0277897
0.0286489
0.0295792
0.0305981
0.0317136
0.0329304
0.0342525
0.0356858
0.0372386
0.0389225
0.0286832
0.0294925
0.0303872
0.0313868
0.0324965
0.0337191
0.0350592
0.0365237
0.0381225
0.0398693
0.0295257
0.0303149
0.0312073
0.0322098
0.0333267
0.0345636
0.035928
0.0374293
0.0390792
0.0408925
0.0303471
0.0311394
0.0320551
0.0330764
0.0342102
0.0354682
0.0368626
0.0384054
0.04011
0.0419915
0.0312353
0.0320051
0.0329254
0.0339789
0.0351482
0.0364428
0.0378785
0.0394709
0.0412351
0.0431866
0.0322395
0.033014
0.0339137
0.0349742
0.0361849
0.0375316
0.0390199
0.0406685
0.0424954
0.0445158
0.0333803
0.0341888
0.0351
0.0361685
0.0374062
0.0388063
0.0403567
0.0420667
0.0439563
0.0460402
0.0347096
0.0355659
0.0365248
0.0376355
0.0389123
0.0403637
0.041976
0.0437494
0.0456981
0.0478336
0.0363147
0.0372284
0.0382602
0.0394424
0.0407838
0.042301
0.0439838
0.0458227
0.0478246
0.049998
0.0383263
0.0393177
0.0404399
0.0417144
0.0431471
0.0447483
0.0465085
0.0484178
0.0504752
0.0526856
0.0409192
0.0420087
0.0432382
0.0446203
0.0461595
0.0478567
0.0497039
0.0516916
0.0538149
0.0560738
0.0442695
0.0454735
0.0468257
0.0483342
0.049997
0.0518071
0.0537558
0.0558337
0.0580352
0.0603594
0.0485589
0.0498952
0.0513895
0.0530454
0.0548549
0.0568022
0.0588734
0.0610594
0.0633583
0.0657714
0.0539604
0.0554495
0.0571075
0.0589391
0.0609309
0.0630511
0.0652756
0.0676028
0.070038
0.0725857
0.0606152
0.0622862
0.0641405
0.066183
0.0683968
0.0707334
0.0731578
0.0756831
0.0783201
0.0810743
0.0685958
0.0704885
0.0725864
0.0748872
0.0773646
0.0799614
0.0826546
0.085461
0.088389
0.0914444
0.0779302
0.0800844
0.0824678
0.0850647
0.0878352
0.0907407
0.0937738
0.0969413
0.100248
0.103704
0.0886051
0.0910518
0.0937353
0.0966246
0.0996942
0.102933
0.106328
0.10989
0.113652
0.117647
0.100573
0.103316
0.106271
0.109419
0.112753
0.116305
0.120094
0.124148
0.12853
0.133236
0.11364
0.116639
0.119834
0.123234
0.126885
0.130811
0.13494
0.139215
0.143601
0.147969
0.127552
0.130801
0.134192
0.137664
0.141246
0.144831
0.14817
0.151007
0.153445
0.156008
0.142348
0.145263
0.147738
0.149667
0.151092
0.152457
0.154014
0.155797
0.157853
0.160277
0.155382
0.15529
0.154902
0.154671
0.154695
0.155103
0.156051
0.157646
0.15997
0.163044
0.161074
0.158606
0.156554
0.155146
0.154505
0.154705
0.155829
0.157974
0.161226
0.165594
0.161569
0.157398
0.154315
0.152418
0.151799
0.152534
0.154718
0.158413
0.163654
0.170485
0.157234
0.152414
0.149288
0.147899
0.148317
0.150661
0.155029
0.161481
0.170024
0.180465
0.149287
0.145265
0.143332
0.143581
0.146169
0.151299
0.159097
0.169524
0.182139
0.195151
0.140007
0.137935
0.138253
0.141228
0.147226
0.156504
0.169021
0.184003
0.198507
0.206377
0.131376
0.131929
0.135431
0.142379
0.153213
0.168009
0.185816
0.202408
0.209989
0.20445
0.124489
0.128529
0.136408
0.148726
0.165711
0.186542
0.206242
0.214712
0.207505
0.19227
0.120443
0.129223
0.142922
0.161927
0.185711
0.209727
0.221165
0.213235
0.195905
0.17827
0.120845
0.13581
0.156573
0.182912
0.211799
0.228991
0.221919
0.202654
0.182708
0.16522
0.127708
0.14999
0.178611
0.211828
0.236661
0.233563
0.212776
0.190146
0.16995
0.15321
0.14225
0.172716
0.209772
0.243734
0.248289
0.226902
0.200909
0.177312
0.157481
0.142071
0.163755
0.202609
0.245787
0.264158
0.244146
0.214696
0.187287
0.163899
0.145218
0.132056
0.19163
0.239289
0.276476
0.265569
0.232831
0.201032
0.173399
0.150699
0.133864
0.123899
0.227769
0.282687
0.292462
0.257616
0.220502
0.187522
0.159717
0.13811
0.123985
0.118289
0.26989
0.312923
0.288945
0.246625
0.207318
0.173423
0.145872
0.126261
0.116082
0.115843
0.315358
0.331244
0.283529
0.235787
0.194023
0.158995
0.132179
0.115708
0.110847
0.117164
0.357341
0.332822
0.275505
0.223632
0.179557
0.14384
0.11882
0.10703
0.108915
0.122678
0.386288
0.328984
0.265481
0.210239
0.164046
0.128247
0.106381
0.100923
0.110778
0.132539
0.418922
0.329357
0.255626
0.195829
0.14752
0.112479
0.0954455
0.0979168
0.116619
0.146597
0.401907
0.312765
0.238875
0.178204
0.129463
0.0968176
0.0865586
0.098227
0.126218
0.164454
0.390636
0.298597
0.223112
0.160864
0.111618
0.0823743
0.0802477
0.101647
0.138977
0.185654
0.383112
0.286965
0.208706
0.144163
0.0943173
0.0695286
0.0763772
0.107423
0.154038
0.209866
0.375487
0.276571
0.19491
0.127692
0.0775376
0.0583663
0.0743365
0.11441
0.170302
0.236601
0.370261
0.266957
0.181112
0.111189
0.0614658
0.0488762
0.073233
0.121293
0.186456
0.264662
0.369246
0.258774
0.167441
0.0947835
0.0465424
0.0408843
0.0720649
0.126838
0.201354
0.293555
0.373047
0.251241
0.152998
0.0781586
0.0331394
0.0340197
0.0698495
0.129737
0.213284
0.321453
0.376655
0.241065
0.136249
0.0612521
0.021853
0.0278775
0.0657093
0.128415
0.21916
0.342957
0.376507
0.226762
0.117128
0.0450619
0.0133477
0.0221292
0.0591649
0.121655
0.215593
0.350124
0.368019
0.206961
0.0959841
0.0307806
0.00771211
0.0166561
0.050405
0.109422
0.201074
0.337376
0.346667
0.180169
0.0736712
0.0194153
0.00444828
0.0116368
0.0402161
0.0930126
0.176845
0.303641
0.309191
0.14714
0.052014
0.0114362
0.00278236
0.00743527
0.0296718
0.0743438
0.146462
0.257191
0.255727
0.110041
0.0332403
0.00652804
0.00201483
0.00437823
0.0197548
0.0553882
0.114144
0.202967
0.189702
0.0736124
0.0191494
0.00386292
0.0016923
0.00255684
0.0114019
0.0377953
0.0842637
0.15099
0.11849
0.043701
0.0101464
0.00258191
0.00157324
0.00175556
0.0054501
0.0221343
0.0585043
0.107951
0.0702092
0.0240572
0.00512693
0.00204949
0.00153853
0.00154583
0.00246384
0.0091035
0.0338753
0.0761214
0.000451155
0.000454788
0.000457965
0.000460661
0.000462912
0.000464809
0.000466502
0.000468193
0.000470129
0.000472591
0.000475866
0.000480236
0.000485987
0.000493445
0.000503042
0.000515422
0.000531608
0.000553297
0.000581003
0.000611111
0.000642445
0.000673378
0.000701671
0.000725447
0.000745012
0.00076206
0.000775592
0.000780014
0.000768625
0.00073756
0.000686591
0.000619534
0.000544801
0.000475781
0.000443428
0.000380458
0.000303986
0.000232324
0.000163957
7.19347e-05
0.00101552
0.00101563
0.00101459
0.00101251
0.00100967
0.0010065
0.00100367
0.00100205
0.0010027
0.00100692
0.00101611
0.00103178
0.00105545
0.00108868
0.00113303
0.00119008
0.00126143
0.00134887
0.00145357
0.00157125
0.00169639
0.00182153
0.00193867
0.00204361
0.00213821
0.00222408
0.00229087
0.00231816
0.00228939
0.00219851
0.00204609
0.00183791
0.00158498
0.0013055
0.00102502
0.000778095
0.000573264
0.000406089
0.000265292
0.000122301
0.00140865
0.00141111
0.00141271
0.00141386
0.00141528
0.00141805
0.00142364
0.00143394
0.00145123
0.00147816
0.00151759
0.00157247
0.00164569
0.00173982
0.00185702
0.00199877
0.0021658
0.00235788
0.00257564
0.00281329
0.00305749
0.00329396
0.00350959
0.00369989
0.00386835
0.00401261
0.00410911
0.00412908
0.0040611
0.00390712
0.00367246
0.00336579
0.00299703
0.00257793
0.00213104
0.00168573
0.00126099
0.000870375
0.00052842
0.000231203
0.001746
0.00175572
0.00176601
0.00177791
0.00179301
0.00181352
0.00184233
0.00188304
0.00193989
0.00201753
0.00212074
0.00225391
0.00242044
0.00262217
0.00285884
0.00312809
0.0034256
0.00374552
0.00408056
0.00442972
0.00477482
0.00509917
0.00538949
0.00564346
0.00585862
0.00601347
0.00608097
0.00604664
0.0059131
0.0056851
0.00537162
0.00498885
0.00455369
0.00407499
0.00355297
0.00299998
0.00241287
0.00178958
0.00115328
0.00055704
0.00206841
0.00209051
0.00211595
0.00214688
0.00218631
0.00223826
0.00230778
0.00240083
0.00252389
0.00268329
0.00288425
0.0031299
0.00342053
0.00375321
0.00412193
0.00451842
0.00493374
0.00535891
0.00578462
0.0062052
0.00660997
0.00697829
0.0073008
0.00757433
0.00778652
0.00791224
0.00793386
0.00784759
0.00765799
0.00736878
0.00698979
0.00654347
0.00605645
0.00554347
0.00498675
0.00436871
0.00366839
0.00287928
0.00200639
0.00116639
0.00239393
0.00243344
0.00248054
0.0025389
0.0026135
0.00271062
0.00283767
0.00300259
0.00321277
0.00347365
0.00378743
0.00415243
0.00456349
0.00501289
0.00549081
0.00598602
0.0064885
0.00698902
0.00747901
0.00794849
0.00838463
0.0087725
0.00910014
0.00936097
0.00954276
0.00963081
0.00961673
0.00950035
0.00928507
0.00897409
0.00857323
0.00809515
0.0075577
0.00697321
0.00632778
0.00560356
0.00478596
0.0038576
0.0027561
0.0014082
0.00273151
0.00279261
0.0028667
0.00295928
0.00307737
0.00322933
0.00342409
0.00366993
0.00397283
0.00433493
0.00475379
0.00522276
0.00573255
0.00627315
0.00683458
0.00740559
0.0079747
0.00853348
0.00906989
0.00957216
0.0100269
0.0104194
0.0107385
0.0109792
0.0111327
0.0111913
0.0111526
0.0110196
0.010798
0.0104952
0.0101167
0.00965645
0.00910296
0.00844544
0.00768901
0.00683492
0.00588074
0.00478674
0.00345513
0.00148113
0.00308423
0.00316926
0.00327319
0.00340316
0.00356786
0.00377682
0.0040392
0.00436209
0.00474898
0.00519885
0.00570613
0.00626154
0.00685392
0.00747226
0.0081068
0.00874605
0.0093753
0.00998164
0.0105547
0.0110809
0.0115456
0.0119368
0.0122473
0.0124724
0.0126063
0.0126459
0.0125918
0.0124487
0.0122232
0.0119221
0.0115479
0.0110889
0.0105248
0.00984155
0.00904305
0.00812965
0.00707176
0.00580998
0.00423216
0.0019155
0.00345144
0.0035604
0.00369379
0.00385999
0.00406868
0.00432981
0.00465203
0.00504102
0.00549842
0.0060216
0.00660387
0.00723533
0.00790445
0.00859948
0.00930714
0.0100123
0.0106994
0.0113541
0.0119635
0.0125147
0.0129942
0.0133919
0.0137014
0.0139187
0.0140414
0.0140688
0.0140029
0.0138477
0.0136084
0.0132898
0.0128936
0.0124134
0.0118315
0.0111329
0.0103139
0.00935945
0.00823139
0.00685407
0.00507139
0.00234774
0.00383133
0.0039622
0.00412214
0.00432033
0.00456702
0.00487241
0.00524494
0.00568967
0.00620755
0.00679546
0.00744669
0.00815146
0.00889797
0.009672
0.0104562
0.0112323
0.011983
0.0126922
0.0133454
0.01393
0.014434
0.014848
0.0151664
0.0153864
0.0155074
0.0155306
0.0154586
0.0152951
0.0150436
0.0147062
0.0142831
0.0137707
0.0131602
0.0124381
0.0115873
0.0105731
0.00933123
0.00778978
0.00579749
0.00275228
0.00422392
0.00437398
0.00455694
0.00478245
0.00506125
0.00540413
0.0058198
0.00631356
0.00688647
0.00753537
0.00825393
0.00903357
0.00986186
0.0107211
0.0115897
0.0124472
0.0132737
0.0140501
0.0147599
0.0153897
0.0159295
0.0163703
0.0167076
0.0169401
0.0170691
0.0170978
0.0170301
0.0168705
0.016622
0.0162853
0.0158581
0.0153366
0.0147114
0.0139631
0.0130644
0.0119731
0.0106204
0.0089237
0.00669501
0.00321496
0.00463407
0.00480165
0.00500572
0.00525637
0.00556493
0.00594276
0.00639897
0.00693929
0.00756546
0.00827497
0.00906252
0.00992076
0.0108368
0.0117895
0.0127559
0.0137121
0.0146331
0.015495
0.0162772
0.0169656
0.0175527
0.0180305
0.0183964
0.0186514
0.0187989
0.0188446
0.0187952
0.0186576
0.0184363
0.0181308
0.017736
0.0172445
0.0166377
0.0158789
0.0149167
0.0136855
0.0121295
0.0101656
0.00762241
0.0037526
0.00507376
0.00526021
0.0054872
0.00576566
0.00610743
0.00652348
0.00702271
0.00761116
0.00829138
0.00906265
0.00992243
0.0108659
0.0118785
0.0129375
0.0140193
0.0150966
0.0161369
0.017107
0.0179798
0.01874
0.0193857
0.0199116
0.0203179
0.0206081
0.020788
0.0208658
0.0208522
0.0207596
0.0205966
0.0203616
0.0200407
0.019606
0.0190078
0.01819
0.0170999
0.0156788
0.0138715
0.0115954
0.00868546
0.00440483
0.00556252
0.00577416
0.00603189
0.00634702
0.006731
0.00719403
0.00774433
0.00838784
0.00912807
0.0099671
0.0109053
0.0119388
0.013055
0.0142339
0.0154518
0.016678
0.0178691
0.0189753
0.0199568
0.0208006
0.0215165
0.0221048
0.0225688
0.0229135
0.0231455
0.0232745
0.0233157
0.0232886
0.0232098
0.0230743
0.0228378
0.0224232
0.0217557
0.0207926
0.019505
0.0178553
0.0157863
0.0132097
0.00990752
0.00516527
0.00612771
0.00637625
0.00667787
0.00704307
0.00748237
0.00800514
0.00861889
0.00932921
0.0101405
0.0110567
0.012081
0.013212
0.0144423
0.0157562
0.0171312
0.0185336
0.019908
0.0211759
0.0222794
0.0232166
0.0240184
0.0246904
0.0252372
0.025663
0.0259727
0.0261759
0.0262922
0.0263474
0.0263646
0.0263254
0.026114
0.0255809
0.0247124
0.0235245
0.0220004
0.0201127
0.0178152
0.0149918
0.0113277
0.00597591
0.00680224
0.0071034
0.00746506
0.00789633
0.0084066
0.00900426
0.00969615
0.0104878
0.0113844
0.0123917
0.0135158
0.0147589
0.0161185
0.0175832
0.0191282
0.0207179
0.0222928
0.0237357
0.0249705
0.0260199
0.0269311
0.0277127
0.0283665
0.0288942
0.0292981
0.029592
0.0298064
0.0299722
0.0300974
0.0300888
0.0296951
0.0288479
0.0276786
0.0262087
0.0244251
0.0222999
0.0197787
0.0167249
0.0127535
0.00672868
0.00762219
0.0079935
0.00843206
0.00894569
0.00954287
0.0102314
0.0110175
0.0119069
0.0129065
0.0140246
0.0152694
0.0166462
0.0181527
0.0197779
0.0214965
0.023273
0.0250424
0.0266696
0.0280491
0.0292422
0.0302826
0.0311874
0.031953
0.0325807
0.0330762
0.0334686
0.0338
0.0340803
0.0341948
0.0339135
0.033128
0.0319465
0.0304764
0.0287205
0.0266616
0.024279
0.0215166
0.0182276
0.0139751
0.00734383
0.0086211
0.00907888
0.00960886
0.01022
0.0109208
0.0117176
0.0126161
0.0136239
0.0147496
0.0160029
0.0173924
0.0189239
0.0205954
0.0223938
0.0242915
0.0262524
0.0282017
0.0299728
0.0315004
0.0328616
0.0340588
0.0350955
0.0359634
0.0366825
0.0372682
0.0377467
0.03811
0.0382209
0.03794
0.0372737
0.0362169
0.0348054
0.0330854
0.03107
0.0287561
0.026125
0.0231152
0.0195687
0.0150303
0.00784185
0.00982009
0.0103782
0.0110118
0.0117348
0.012558
0.0134832
0.0145172
0.0156691
0.0169482
0.0183626
0.0199183
0.0216177
0.0234589
0.0254306
0.0275006
0.029639
0.0317473
0.0336476
0.0353556
0.0369065
0.0382721
0.0394159
0.0403559
0.041155
0.0418166
0.042208
0.0422337
0.0419176
0.0412921
0.0403599
0.0390883
0.0374829
0.0355626
0.0333394
0.0308099
0.0279482
0.024686
0.0208606
0.016008
0.0082903
0.0112184
0.0118929
0.0126502
0.0135057
0.0144695
0.015546
0.016743
0.0180692
0.019533
0.0211384
0.022883
0.0247586
0.0267625
0.0288888
0.0311429
0.0334832
0.0357262
0.0377766
0.03965
0.0413487
0.0428461
0.0440673
0.0450552
0.0458592
0.0462802
0.0462041
0.0458622
0.0452897
0.0444438
0.043304
0.041854
0.0400915
0.0380191
0.0356347
0.0329237
0.0298495
0.0263354
0.0222135
0.0170176
0.00874945
0.0128209
0.0136292
0.0145299
0.0155369
0.0166622
0.0179137
0.0192996
0.0208272
0.0225009
0.0243187
0.0262651
0.0283101
0.0304625
0.0327636
0.0352267
0.0377145
0.0400797
0.0422532
0.0442095
0.045974
0.0475681
0.048912
0.0498107
0.0501689
0.0501186
0.0497831
0.0492392
0.0484721
0.0474578
0.0461777
0.0446151
0.0427562
0.040587
0.0380887
0.035231
0.0319635
0.0281983
0.02376
0.0181747
0.00928911
0.0146334
0.0155894
0.0166481
0.0178236
0.0191285
0.0205729
0.022164
0.0239044
0.0257884
0.0278031
0.0299185
0.0321094
0.0344358
0.0369537
0.0395894
0.0422085
0.0446928
0.0469391
0.0489018
0.0506605
0.0522717
0.0534239
0.0537891
0.0537762
0.0535454
0.0530856
0.0524136
0.0515352
0.0504404
0.0491087
0.0475152
0.0456328
0.0434302
0.0408694
0.0379008
0.034457
0.0304346
0.0256452
0.0196032
0.00996978
0.0166424
0.0177592
0.0189881
0.0203436
0.0218388
0.0234842
0.025284
0.0272304
0.0292929
0.0314356
0.0336644
0.0360676
0.0386476
0.0413755
0.0441599
0.0468717
0.0494096
0.0516993
0.053642
0.0552273
0.0563515
0.0569492
0.0571156
0.0569963
0.0566549
0.056125
0.0554252
0.0545547
0.0534974
0.0522255
0.0507032
0.0488871
0.0467263
0.0441607
0.0411186
0.0375103
0.0332121
0.0280154
0.0214147
0.0108461
0.0188209
0.0201091
0.0215156
0.0230555
0.024743
0.0265861
0.0285792
0.0306861
0.0328621
0.0351361
0.0375831
0.0402438
0.0430609
0.0459524
0.0487891
0.0514546
0.0538774
0.0560688
0.0577963
0.0587646
0.0594093
0.059803
0.0599017
0.0597518
0.0594214
0.0589531
0.0583595
0.057632
0.0567459
0.0556629
0.0543317
0.0526889
0.0506593
0.0481562
0.0450798
0.041313
0.036705
0.03102
0.0237218
0.0119695
0.0211284
0.0225945
0.0241801
0.0259002
0.0277686
0.0297854
0.0319213
0.0341332
0.036463
0.0389698
0.0416925
0.0446021
0.0476029
0.050556
0.0533336
0.055843
0.0581163
0.0599746
0.0610038
0.0615844
0.0619762
0.0621923
0.0622353
0.0621405
0.0619452
0.061672
0.0613231
0.0608817
0.0603127
0.0595632
0.0585622
0.0572202
0.0554304
0.0530704
0.0500038
0.0460779
0.0411079
0.0348225
0.0266421
0.0133971
0.0235189
0.0251625
0.0269218
0.0288102
0.0308369
0.0329902
0.035253
0.0376343
0.040192
0.0429647
0.0459417
0.0490408
0.0521153
0.0550028
0.057573
0.0598547
0.0617004
0.0627587
0.0633611
0.0637377
0.063979
0.0641339
0.0642341
0.0643021
0.064356
0.0644034
0.064437
0.0644309
0.0643384
0.0640892
0.0635861
0.0627042
0.0612922
0.0591767
0.0561701
0.0520735
0.0466613
0.0396194
0.0303125
0.0152038
0.0259343
0.0277482
0.029669
0.0317088
0.0338765
0.036177
0.0386076
0.041193
0.0439897
0.0470021
0.0501679
0.0533528
0.0563473
0.0589509
0.0612485
0.063068
0.0640423
0.0646125
0.0649871
0.0652525
0.0654835
0.0657277
0.0660144
0.0663622
0.0667828
0.0672793
0.0678402
0.0684347
0.0690056
0.0694624
0.0696741
0.0694649
0.0686156
0.066875
0.0639796
0.059671
0.0536818
0.0456549
0.0348875
0.0174897
0.0283068
0.0302778
0.0323431
0.03452
0.0368299
0.039288
0.0418964
0.0446888
0.0476977
0.0508748
0.0541013
0.0571874
0.0598161
0.0621612
0.0640116
0.0648469
0.0653254
0.0656803
0.0659825
0.0662942
0.0666669
0.0671379
0.0677356
0.0684822
0.0693947
0.0704823
0.0717397
0.0731382
0.0746142
0.0760548
0.0772828
0.0780456
0.0780154
0.0768117
0.0740534
0.0694125
0.0626009
0.0532416
0.0405518
0.0203792
0.0305695
0.0326788
0.0348578
0.0371446
0.0395787
0.0421813
0.0449662
0.0479575
0.0511426
0.0544005
0.0574536
0.0599303
0.0623635
0.0644236
0.0651327
0.0655065
0.0658457
0.0662024
0.0666149
0.0671242
0.0677712
0.0685927
0.0696248
0.0709033
0.0724622
0.0743291
0.0765167
0.0790091
0.0817413
0.0845738
0.0872632
0.0894359
0.0905811
0.0900899
0.0873898
0.0820994
0.0739956
0.0627637
0.0475253
0.023991
0.0326251
0.0348394
0.0370853
0.0394375
0.0419567
0.0446765
0.0476218
0.0507932
0.0540655
0.0570034
0.0592803
0.0616568
0.0639006
0.0647513
0.0651322
0.0655222
0.0659818
0.0665303
0.0672004
0.0680336
0.0690786
0.070386
0.0720119
0.0740179
0.0764682
0.0794237
0.0829295
0.0869932
0.0915515
0.0964245
0.101262
0.105494
0.108299
0.108634
0.105596
0.0988789
0.0885758
0.0746286
0.0560374
0.0283711
0.0343446
0.0365796
0.0388655
0.0412588
0.0438224
0.0466054
0.0496438
0.0528682
0.0557638
0.0579607
0.0602072
0.0624767
0.0636363
0.0641992
0.0647595
0.0653968
0.0661305
0.0669937
0.0680363
0.0693211
0.0709221
0.0729194
0.0754065
0.0784894
0.0822843
0.0869079
0.0924583
0.0989769
0.10639
0.114427
0.122528
0.129766
0.134781
0.135716
0.131089
0.121189
0.10702
0.0890885
0.0661942
0.0334128
0.0356894
0.0378671
0.0401324
0.0425181
0.0450581
0.0477944
0.050752
0.0537077
0.0561745
0.0583182
0.060409
0.0618593
0.0627688
0.063622
0.0645193
0.0654915
0.0665821
0.0678571
0.0694013
0.0713185
0.0737268
0.0767623
0.0805876
0.0853933
0.0913929
0.098806
0.107819
0.118515
0.13076
0.144048
0.15734
0.168973
0.176577
0.176588
0.166818
0.15012
0.129432
0.105865
0.077703
0.038817
0.0366283
0.0387171
0.040892
0.0431894
0.0456148
0.0481685
0.0508407
0.0534931
0.0559667
0.0579773
0.0595942
0.0609342
0.0621733
0.0634021
0.064662
0.0660113
0.0675361
0.0693476
0.0715831
0.0744151
0.0780371
0.0826933
0.0886852
0.0963741
0.106165
0.118464
0.133597
0.151679
0.172411
0.194781
0.216634
0.234282
0.243598
0.238442
0.214462
0.184807
0.15443
0.123704
0.0896157
0.0441266
0.0371962
0.0391745
0.0412165
0.0433667
0.0456149
0.0479256
0.0502557
0.0525481
0.0547612
0.0567943
0.058623
0.0603383
0.0619862
0.0636045
0.0652636
0.0670676
0.0691533
0.0716936
0.0749068
0.0790799
0.0845532
0.0917823
0.101342
0.113923
0.130259
0.151005
0.176599
0.207125
0.242135
0.28031
0.317487
0.334132
0.340889
0.317626
0.26721
0.220491
0.178885
0.140489
0.100528
0.0488364
0.0374975
0.0393741
0.0412847
0.0432853
0.0453701
0.0475032
0.0496365
0.0517323
0.053807
0.0558995
0.0580111
0.0601113
0.0621748
0.0642363
0.0663922
0.0687919
0.0716395
0.0752027
0.0798255
0.0859547
0.094218
0.105465
0.120775
0.141365
0.168366
0.20256
0.244244
0.293324
0.34971
0.413738
0.457468
0.477839
0.454587
0.379002
0.31033
0.250589
0.199383
0.154261
0.109334
0.0525726
0.0376436
0.0394593
0.0412731
0.0431633
0.0451452
0.047198
0.0492778
0.0513477
0.0534348
0.0556355
0.057994
0.0604467
0.0629399
0.0655086
0.0682805
0.071456
0.0753174
0.0802676
0.086859
0.0958265
0.108262
0.125644
0.149791
0.18256
0.225309
0.278467
0.341536
0.413501
0.493344
0.576258
0.600488
0.633664
0.531075
0.431572
0.345636
0.273805
0.214445
0.164049
0.115577
0.0551612
0.037739
0.0395456
0.0413296
0.0431734
0.0451222
0.0471773
0.0493075
0.0514791
0.0537091
0.0561259
0.0587921
0.0616187
0.0645723
0.0677148
0.0712163
0.0753665
0.080583
0.0874647
0.0968067
0.109831
0.128276
0.154432
0.190939
0.240261
0.303782
0.381209
0.470859
0.570173
0.67562
0.743608
0.780486
0.727172
0.58756
0.467089
0.367497
0.286976
0.222308
0.168866
0.118757
0.0564591
0.0378663
0.0396984
0.0415287
0.0434245
0.0454381
0.0475866
0.0498661
0.052276
0.0547909
0.0575497
0.0606428
0.0638711
0.067308
0.0710941
0.0754932
0.0809149
0.0879639
0.0974529
0.110609
0.129227
0.155777
0.193336
0.245218
0.314353
0.40266
0.509894
0.633812
0.770548
0.905651
0.927662
0.96536
0.77222
0.609374
0.477398
0.371615
0.287851
0.221726
0.167928
0.118206
0.0564057
0.0381082
0.039988
0.0419265
0.0439634
0.0461362
0.0484696
0.0509998
0.0537696
0.0568152
0.0601629
0.0638397
0.0675385
0.0715085
0.076057
0.0815614
0.0886096
0.098034
0.111003
0.129227
0.155087
0.19166
0.242531
0.31141
0.401785
0.516756
0.658689
0.827223
0.993982
1.03334
1.11894
0.960785
0.757444
0.593536
0.462304
0.358321
0.276831
0.213036
0.161403
0.113765
0.0545631
0.0385261
0.0404711
0.0425326
0.0447431
0.0471322
0.0497192
0.0525672
0.0557843
0.0594813
0.0636776
0.0681226
0.0726284
0.0773702
0.0828318
0.0896844
0.0988061
0.111304
0.12876
0.153347
0.187897
0.235797
0.300746
0.386549
0.497155
0.637019
0.810692
0.98073
1.05527
1.13457
1.10394
0.883683
0.698811
0.54819
0.427247
0.331544
0.256748
0.198256
0.150735
0.106541
0.0513522
0.0391366
0.0411709
0.0433712
0.0457695
0.0483887
0.0512533
0.0544589
0.0581539
0.0624688
0.0673467
0.0725209
0.0780004
0.0839946
0.0908378
0.0995053
0.111344
0.127824
0.150854
0.182966
0.227219
0.286958
0.36556
0.466307
0.592419
0.747073
0.917339
1.01056
1.08459
1.16157
1.00649
0.794687
0.625476
0.489954
0.38229
0.29775
0.231906
0.180304
0.137967
0.0979893
0.047602
0.0399279
0.0420739
0.0444308
0.0470252
0.049874
0.0530237
0.0566043
0.0607651
0.0656098
0.0710292
0.0769227
0.0833997
0.0905961
0.0991563
0.110429
0.125886
0.147252
0.17679
0.217324
0.272024
0.344149
0.436855
0.553121
0.695665
0.865963
0.976674
1.03855
1.14684
1.08826
0.872512
0.69139
0.544469
0.426954
0.33428
0.26209
0.206038
0.161843
0.125004
0.089462
0.0440124
0.0408624
0.0431293
0.0456428
0.0484287
0.0515154
0.054978
0.0589565
0.0635902
0.068915
0.0748284
0.0813932
0.0887098
0.0972434
0.10808
0.122494
0.142055
0.16882
0.205387
0.254818
0.320477
0.405903
0.514811
0.651289
0.819731
0.942445
0.983053
1.07117
1.12385
0.956033
0.75187
0.591226
0.464477
0.365046
0.287757
0.228051
0.181713
0.14475
0.113218
0.0819323
0.0410284
0.041896
0.0442809
0.0469387
0.0499006
0.0532186
0.0569836
0.0613171
0.0663308
0.0720156
0.0783461
0.0855218
0.0939423
0.104303
0.117622
0.135259
0.159027
0.191223
0.234621
0.292428
0.368247
0.466151
0.59058
0.746116
0.868345
0.911995
0.988894
1.08221
0.977149
0.778197
0.617048
0.488283
0.386432
0.306853
0.245308
0.197755
0.160491
0.130136
0.103417
0.075942
0.0388403
0.0430073
0.0455062
0.0483001
0.0514287
0.054952
0.0589562
0.0635338
0.0687612
0.0747188
0.0815448
0.0895462
0.0992226
0.111348
0.127041
0.147812
0.175581
0.212665
0.261797
0.326147
0.409385
0.515952
0.643866
0.745986
0.79675
0.85997
0.936528