/*--------------------------------*- C++ -*----------------------------------*\
  =========                 |
  \\      /  F ield         | OpenFOAM: The Open Source CFD Toolbox
   \\    /   O peration     | Website:  https://openfoam.org
    \\  /    A nd           | Version:  8
     \\/     M anipulation  |
\*---------------------------------------------------------------------------*/
FoamFile
{
    version     2.0;
    format      ascii;
    class       volScalarField;
    location    "5";
    object      p;
}
// * * * * * * * * * * * * * * * * * * * * * * * * * * * * * * * * * * * * * //

dimensions      [1 -1 -2 0 0 0 0];

internalField   nonuniform List<scalar> 
9150
(
392.557
365.57
340.055
322.863
314.556
314.548
322.84
340.023
365.534
392.525
363.697
344.159
328.494
316.695
310.71
310.705
316.678
328.47
344.131
363.668
334.425
320.873
312.318
304.567
300.454
300.45
304.554
312.299
320.85
334.399
309.712
299.714
294.23
288.874
285.902
285.898
288.864
294.214
299.694
309.688
288.416
279.533
274.928
270.76
268.315
268.312
270.751
274.914
279.515
288.394
25.7573
21.6851
46.823
61.1055
67.7109
67.6063
60.8044
46.3694
21.0472
24.8901
195.77
171.649
166.275
165.082
165.199
165.142
164.919
166.024
171.324
195.445
300.248
268.893
252.972
243.118
238.466
238.434
243.026
252.835
268.733
300.103
380.823
338.651
310.836
293.518
285.029
285.01
293.464
310.76
338.568
380.756
431.356
378.767
340.162
318.14
308.008
307.995
318.105
340.115
378.719
431.321
-54.12
-20.2095
-33.0403
-25.3226
-28.9441
-30.0449
-25.2797
-34.2884
-24.2263
-63.6697
-47.4534
-32.0849
-51.0628
-45.3459
-48.673
-49.5099
-45.2472
-54.5216
-35.2252
-54.3195
-92.1757
-61.7674
-92.9304
-86.9137
-83.7799
-84.0088
-87.4143
-95.5807
-64.3764
-96.6483
-271.576
-147.522
-129.709
-111.784
-95.8835
-96.0648
-112.676
-131.603
-148.944
-275.279
-415.972
-179.02
-82.5084
-52.4873
-36.9766
-37.1406
-53.0539
-83.3927
-180.052
-418.603
1783.41
1783.64
1783.87
1784.1
1784.34
1784.58
1784.83
1785.08
1785.33
1785.59
1763.92
1764.15
1764.39
1764.63
1764.87
1765.12
1765.37
1765.62
1765.87
1766.13
1744.32
1744.55
1744.79
1745.03
1745.27
1745.52
1745.77
1746.02
1746.28
1746.53
1724.62
1724.85
1725.09
1725.33
1725.57
1725.81
1726.06
1726.31
1726.57
1726.82
1704.82
1705.05
1705.28
1705.51
1705.75
1705.99
1706.23
1706.48
1706.73
1706.99
1684.93
1685.15
1685.37
1685.6
1685.83
1686.06
1686.3
1686.54
1686.79
1687.04
1664.95
1665.16
1665.37
1665.59
1665.81
1666.03
1666.26
1666.49
1666.73
1666.97
1644.9
1645.1
1645.29
1645.49
1645.7
1645.91
1646.13
1646.35
1646.57
1646.81
1624.79
1624.97
1625.14
1625.33
1625.51
1625.71
1625.91
1626.11
1626.32
1626.53
1604.63
1604.78
1604.93
1605.09
1605.26
1605.43
1605.6
1605.78
1605.96
1606.15
1584.41
1584.53
1584.66
1584.79
1584.93
1585.07
1585.22
1585.37
1585.52
1585.68
1564.16
1564.25
1564.34
1564.44
1564.55
1564.66
1564.77
1564.89
1565.01
1565.13
1543.87
1543.93
1543.99
1544.05
1544.11
1544.19
1544.26
1544.34
1544.43
1544.51
1523.57
1523.58
1523.6
1523.62
1523.64
1523.67
1523.7
1523.74
1523.78
1523.83
1503.26
1503.22
1503.19
1503.16
1503.13
1503.11
1503.09
1503.08
1503.08
1503.09
1482.95
1482.87
1482.79
1482.69
1482.59
1482.49
1482.41
1482.35
1482.32
1482.3
1462.68
1462.54
1462.38
1462.21
1462.04
1461.84
1461.63
1461.49
1461.48
1461.5
1442.46
1442.26
1442.04
1441.83
1441.59
1441.28
1440.99
1442.48
1440.61
1440.73
1422.33
1422.09
1421.84
1421.6
1421.29
1421.24
1421.96
1421.74
1420.62
1421.11
1402.27
1401.99
1401.64
1401.3
1401.43
1401.42
1401.33
1400.6
1401.06
1400.74
1382.27
1381.99
1382.04
1381.95
1381.75
1381.48
1381.57
1381.59
1379.89
1380.07
1362.65
1362.51
1362.36
1362.19
1361.86
1361.66
1361.59
1360.84
1360.48
1360.16
1343.16
1342.93
1342.67
1342.37
1342.06
1341.58
1341.08
1340.49
1340.36
1340.45
1323.87
1323.48
1323.03
1322.54
1321.92
1321.31
1320.68
1320.03
1319.54
1320.27
1304.86
1304.13
1303.23
1302.53
1301.83
1301.12
1300.4
1299.65
1298.88
1298.1
1284.75
1283.6
1282.92
1282.34
1281.68
1280.96
1280.19
1279.38
1278.52
1277.65
1264.37
1263.81
1263.21
1262.56
1261.84
1261.06
1260.21
1259.28
1258.31
1257.39
1244.83
1244.31
1243.7
1243.02
1242.26
1241.42
1240.51
1239.53
1239.21
1238.1
1225.76
1225.17
1224.51
1223.78
1222.97
1222.09
1221.11
1220.06
1219.52
1218.15
1207.12
1206.4
1205.65
1204.86
1204.02
1203.1
1202.08
1200.95
1199.7
1198.09
1188.32
1187.63
1186.92
1186.17
1185.39
1184.56
1183.67
1182.7
1181.67
1180.62
1169.51
1168.92
1168.29
1167.62
1166.94
1166.25
1165.53
1164.81
1164.17
1163.89
1150.85
1150.33
1149.76
1149.15
1148.68
1147.85
1147.2
1146.54
1146.06
1146.48
1132.44
1131.95
1131.42
1130.96
1130.63
1129.48
1128.87
1128.15
1127.6
1128.24
1114.32
1113.8
1113.25
1112.77
1112.18
1111.25
1110.55
1109.78
1108.98
1109.04
1096.19
1095.63
1095.06
1094.51
1093.86
1093.12
1092.31
1091.47
1090.46
1089.74
1078.03
1077.55
1076.91
1076.43
1075.85
1075.21
1074.51
1073.75
1072.97
1072.11
1059.71
1059.28
1058.83
1058.39
1057.91
1057.36
1056.72
1055.96
1055.17
1054.26
1041.85
1041.32
1040.88
1040.48
1040.14
1039.82
1039.22
1038.7
1038.25
1037.79
1023.16
1022.89
1022.62
1022.35
1022.12
1022.12
1021.61
1021.36
1021.16
1021.01
1004.67
1004.48
1004.33
1004.21
1004.12
1004.05
1004
1004
1004.05
1004.18
985.859
985.812
985.856
985.94
986.039
986.153
986.288
986.454
986.67
986.951
966.61
966.732
967.127
967.533
967.886
968.21
968.53
968.865
969.243
969.679
947.476
946.843
948.157
949.047
949.704
950.245
950.72
951.154
951.568
951.988
943.536
930.325
930.922
931.665
932.263
932.783
933.28
933.763
934.246
934.763
922.932
916.868
915.077
915.283
915.497
915.773
916.102
916.484
916.893
917.314
900.995
900.429
898.921
897.68
897.096
897.664
898.348
899.006
899.549
900.009
883.761
884.218
883.931
883.666
883.442
882.295
881.155
881.889
882.527
882.996
867.29
869.015
869.393
869.587
869.74
869.783
866.49
866.161
866.462
866.738
850.208
854.255
855.431
856.161
856.417
856.148
851.636
850.57
850.699
850.94
831.867
834.944
837.991
844.423
839.847
837.199
835.399
834.373
834.591
834.867
812.162
813.724
815.175
817.636
816.645
817.378
817.601
817.989
818.104
818.595
792.691
793.813
795.587
796.81
797.774
798.996
799.976
800.775
801.551
802.271
773.355
774.695
777.986
778.529
780.33
781.56
782.795
783.974
785.124
786.244
754.669
756.381
760
759.809
762.136
763.757
765.454
767.043
768.581
770.061
736.194
738.063
739.662
740.934
743.947
746.175
747.993
750.098
751.956
753.698
717.832
720.238
722.822
726.323
732.032
730.402
731.686
733.854
735.949
737.935
699.103
702.204
706.219
709.878
712.468
713.126
715.037
717.552
719.998
722.234
680.698
685.345
688.735
691.401
692.937
694.885
697.754
700.585
703.285
706.021
663.111
666.663
668.933
670.645
674.157
676.735
680.202
683.995
688.295
694.802
641.067
642.597
648.289
650.984
653.749
658.307
666.042
675.156
679.793
686.912
615.325
620.676
628.627
637.972
642.809
649.638
657.545
664.649
671.498
676.003
593.579
605.578
615.784
624.22
631.572
638.979
641.939
645.615
643.227
646.951
589.919
595.738
600.401
605.176
603.032
606.196
608.493
611.276
614.352
617.338
561.416
562.083
567.667
571.181
574.291
577.248
580.105
584.176
589.23
594.164
533.094
536.498
539.109
542.703
547.47
552.562
557.542
562.481
567.284
571.971
510.799
513.267
516.743
521.141
525.877
530.671
535.497
540.311
544.997
549.829
493.355
493.965
496.544
500.357
504.576
509.039
513.875
519.219
524.659
529.648
473.17
474.28
476.546
479.707
483.606
487.556
492.205
497.772
502.892
508.7
454.689
457.213
458.477
460.12
463.383
465.914
469.41
474.345
479.924
485.625
437.835
439.648
440.639
441.869
444.295
444.404
448.769
454.141
458.835
463.917
423.014
423.665
424.04
424.389
424.894
427.551
432.28
436.151
439.333
441.616
410.165
409.622
409.48
407.913
408.484
413.411
416.512
418.192
418.533
413.19
397.509
396.584
394.603
393.324
396.938
400.37
401.278
399.451
392.27
381.274
384.916
381.938
379.591
381.804
391.787
390.828
387.512
378.313
365.692
351.358
371.915
368.363
369.173
385.878
385.028
380.054
369.937
355.808
339.65
322.313
358.544
358.776
367.723
375.499
361.292
355.532
343.87
328.556
311.196
292.332
339.399
344.648
361.616
356.084
347.274
335.362
320.273
302.841
283.66
262.928
321.432
351.776
351.578
346.806
331.823
314.251
296.184
276.832
255.804
233.239
317.474
339.918
324.953
317.952
306.521
289.977
271.031
250.304
227.722
203.595
325.576
323.59
320.438
306.59
287.683
267.649
246.698
224.167
199.922
174.465
316.425
297.736
288.847
277.399
260.317
241.069
220.174
197.14
172.14
145.889
298.388
270.991
265.263
252.961
236.613
217.681
196.271
172.412
146.767
120.128
287.063
279.531
260.319
238.874
218.139
196.934
174.07
149.352
123.398
96.513
255.856
243.941
228.278
210.666
192.091
172.178
150.251
126.572
101.909
76.1516
212.384
208.863
197.563
182.499
165.988
147.713
127.163
104.885
81.5117
56.8209
178.68
178.199
169.252
156.433
142.007
125.618
106.968
86.5499
64.4816
40.4398
157.248
154.043
145.212
133.613
120.87
106.571
90.6977
73.9003
56.7586
40.1972
130.923
129.201
121.693
111.796
100.911
88.6756
75.2773
61.4723
47.8232
34.2187
110.593
108.914
101.713
92.9386
83.2305
72.3755
60.5894
48.5252
36.1266
21.8352
98.6355
93.4246
84.9304
76.3947
67.2803
57.5073
47.0583
36.3762
24.982
11.7415
79.1035
74.6248
66.9813
59.5301
51.5877
43.3366
34.457
25.2535
15.2836
4.86018
54.6564
52.813
47.7708
42.2919
36.2907
30.0291
22.9923
15.5441
7.61651
1.03892
28.6636
30.615
28.973
25.7349
22.1176
18.0726
12.9884
7.43125
1.67409
-1.51466
5.89521
11.0476
12.6795
11.2692
9.87237
7.96947
4.76441
0.988506
-3.13701
-3.14622
-10.8581
-4.27699
0.193079
0.030346
0.0509619
-0.272446
-2.09828
-4.30481
-7.24923
-4.78588
-19.3039
-13.487
-7.73723
-7.29415
-7.10854
-7.00966
-8.72076
-9.89229
-12.7146
-7.2917
-12.3877
-14.3929
-12.0158
-11.5697
-12.0375
-12.3645
-14.2464
-14.9061
-18.8274
-11.8487
-9.8528
-12.1326
-14.748
-14.4145
-15.932
-16.4476
-16.3876
-14.3842
-15.4691
-20.2837
-21.701
-4.28158
-17.4589
-17.5124
-20.7309
-21.4748
-18.2681
-14.4592
-2.66734
-35.0504
1785.86
1786.16
1786.45
1786.75
1787.05
1787.35
1787.66
1787.97
1788.28
1788.59
1788.91
1789.24
1789.57
1789.91
1790.26
1790.62
1790.98
1791.34
1791.72
1792.11
1792.52
1792.91
1793.32
1793.71
1794.09
1794.45
1794.77
1795.03
1795.23
1795.37
1795.44
1795.47
1795.47
1795.46
1795.45
1795.43
1795.4
1795.36
1795.34
1795.32
1766.4
1766.69
1766.98
1767.28
1767.57
1767.87
1768.16
1768.46
1768.76
1769.06
1769.35
1769.66
1769.96
1770.27
1770.59
1770.92
1771.26
1771.61
1771.97
1772.34
1772.71
1773.07
1773.44
1773.79
1774.14
1774.48
1774.79
1775.04
1775.24
1775.38
1775.47
1775.53
1775.57
1775.61
1775.64
1775.68
1775.69
1775.69
1775.68
1775.66
1746.81
1747.1
1747.39
1747.68
1747.98
1748.27
1748.56
1748.85
1749.14
1749.43
1749.73
1750.02
1750.31
1750.61
1750.92
1751.23
1751.55
1751.88
1752.21
1752.55
1752.9
1753.25
1753.57
1753.88
1754.19
1754.62
1754.86
1755.12
1755.33
1755.47
1755.57
1755.66
1755.74
1755.82
1755.89
1755.97
1756.02
1756.03
1756.02
1756
1727.1
1727.39
1727.68
1727.97
1728.26
1728.56
1728.85
1729.14
1729.43
1729.71
1730
1730.28
1730.57
1730.85
1731.14
1731.43
1731.72
1732.02
1732.32
1732.63
1732.99
1733.43
1733.82
1734.46
1735.06
1735.39
1735.11
1735.3
1735.46
1735.58
1735.68
1735.8
1735.94
1736.1
1736.36
1736.34
1736.39
1736.4
1736.33
1736.3
1707.26
1707.55
1707.84
1708.13
1708.43
1708.72
1709.01
1709.3
1709.59
1709.87
1710.15
1710.42
1710.68
1710.93
1711.18
1711.42
1711.67
1711.93
1712.23
1712.47
1713.26
1713.61
1714.02
1714.56
1715.06
1715.18
1715.15
1715.36
1715.53
1715.65
1715.73
1715.86
1716.09
1716.44
1717.04
1716.9
1716.98
1716.9
1716.76
1716.57
1687.3
1687.59
1687.88
1688.17
1688.46
1688.76
1689.05
1689.34
1689.62
1689.88
1690.14
1690.37
1690.59
1690.79
1690.99
1691.19
1691.39
1691.89
1692.49
1692.93
1693.22
1693.6
1694
1694.25
1694.64
1694.95
1695.18
1695.42
1695.66
1695.84
1696.18
1697.22
1698.03
1697.05
1697.32
1697.62
1697.77
1697.64
1697.55
1697.2
1667.23
1667.51
1667.8
1668.08
1668.37
1668.66
1668.93
1669.2
1669.46
1669.69
1669.91
1670.1
1670.28
1670.47
1670.8
1671.01
1671.31
1671.5
1671.72
1672.26
1672.43
1673.53
1673.43
1673.71
1674.15
1674.57
1675
1675.44
1675.91
1676.38
1677.45
1678.26
1678.52
1678.52
1678.4
1678.09
1678.25
1678.42
1678.34
1677.94
1647.05
1647.32
1647.59
1647.86
1648.13
1648.39
1648.64
1648.88
1649.09
1649.28
1649.44
1649.59
1649.76
1649.91
1650.22
1649.9
1650.2
1650.51
1650.84
1651.18
1651.57
1651.95
1652.41
1652.92
1653.46
1654.01
1654.59
1655.19
1655.82
1656.49
1657.32
1658.63
1659.24
1659.55
1659.75
1659.96
1659.99
1659.01
1658.71
1658.63
1626.76
1627
1627.25
1627.49
1627.73
1627.95
1628.16
1628.34
1628.49
1628.6
1628.69
1628.76
1629.14
1629.2
1628.76
1628.96
1629.18
1629.45
1629.77
1630.12
1630.52
1630.98
1631.49
1632.06
1632.67
1633.31
1633.99
1634.72
1635.49
1636.34
1637.24
1638.22
1638.8
1638.91
1639.73
1639.99
1640.31
1640.27
1639.93
1639.29
1606.35
1606.57
1606.78
1606.98
1607.18
1607.35
1607.5
1607.62
1607.71
1607.76
1607.79
1608
1608.15
1607.7
1607.79
1607.91
1608.09
1608.34
1608.65
1609.02
1609.45
1609.94
1610.49
1611.09
1611.75
1612.45
1613.19
1613.99
1614.82
1615.69
1616.6
1617.56
1618.57
1619.53
1619.92
1620.54
1620.53
1620.25
1620.01
1620.29
1585.85
1586.02
1586.19
1586.35
1586.49
1586.61
1586.7
1586.75
1586.76
1586.73
1586.74
1587.41
1586.74
1586.76
1586.77
1586.85
1587
1587.23
1587.53
1587.91
1588.35
1588.87
1589.44
1590.07
1590.75
1591.47
1592.24
1593.05
1593.89
1594.73
1595.55
1596.35
1597.15
1598.23
1599.01
1599.26
1599.89
1599.95
1599.42
1598.67
1565.26
1565.38
1565.51
1565.63
1565.71
1565.78
1565.82
1565.81
1565.75
1565.67
1566.25
1566.09
1565.86
1565.76
1565.73
1565.77
1565.9
1566.12
1566.43
1566.81
1567.27
1567.8
1568.39
1569.02
1569.71
1570.45
1571.23
1572.07
1572.96
1573.87
1574.76
1576.12
1577.32
1578.33
1579.04
1579.35
1578.89
1579.08
1578.59
1577.76
1544.6
1544.69
1544.83
1544.89
1544.89
1544.92
1544.93
1544.9
1544.87
1544.98
1545.02
1544.79
1544.83
1544.72
1544.67
1544.69
1544.8
1545.03
1545.35
1545.76
1546.23
1546.77
1547.36
1547.99
1548.67
1549.38
1550.13
1550.94
1551.86
1552.95
1553.8
1555.5
1556.55
1557.34
1557.83
1557.63
1557.57
1557.32
1556.84
1556.57
1523.88
1523.95
1524
1524.03
1524.02
1524.02
1524
1523.96
1524.02
1524.1
1524
1523.82
1523.76
1523.65
1523.57
1523.53
1523.62
1523.88
1524.26
1524.74
1525.24
1525.79
1526.38
1526.99
1527.63
1528.23
1528.8
1529.35
1530.18
1531.58
1532.45
1534.53
1535.7
1535.62
1537.26
1537.33
1536.01
1536.95
1536.54
1535.79
1503.1
1503.14
1503.14
1503.12
1503.1
1503.08
1503.03
1503.02
1503.09
1503.2
1503.09
1502.95
1502.76
1502.52
1502.36
1502.11
1502.14
1502.83
1503.28
1503.74
1504.31
1504.9
1505.51
1506.18
1506.71
1507.19
1507.43
1507.43
1508.24
1511.03
1511.01
1512.78
1513.42
1515.07
1515.18
1515.04
1515.67
1515.47
1515.03
1514.6
1482.27
1482.28
1482.18
1482.17
1482.14
1482.07
1482.07
1482.06
1482.06
1482.08
1482.13
1482
1481.54
1481.86
1481.41
1481.18
1486.14
1484.59
1482.26
1482.87
1483.53
1484.22
1484.98
1485.93
1486.56
1487.34
1488.16
1489.62
1498.31
1499.05
1491.79
1492.82
1493.56
1493.87
1494.09
1495.33
1495.16
1494.6
1493.96
1493.71
1461.42
1461.3
1461.18
1461.07
1461.01
1461.01
1460.97
1460.96
1460.93
1460.87
1460.82
1460.91
1460.35
1460.43
1460.37
1462.02
1471.5
1461.84
1461.86
1462.35
1462.98
1463.65
1464.48
1465.27
1466.54
1467.75
1469.41
1475.44
1480.01
1475.53
1472.12
1472.56
1473.09
1473.09
1473.74
1473.8
1474.09
1473.77
1472.99
1473.44
1440.65
1440.35
1439.99
1440.41
1439.72
1439.84
1439.86
1439.83
1439.79
1439.73
1439.65
1439.51
1439.24
1438.86
1438.4
1450.44
1446.19
1442.65
1441.85
1441.84
1442.18
1442.77
1443.42
1444.41
1446.12
1448.75
1454.1
1453.93
1452.14
1452.8
1452.55
1452.36
1452.74
1452.64
1452.88
1453.03
1453.03
1452.75
1452.08
1453.64
1420.73
1419.94
1421.04
1421.02
1419.21
1419
1418.89
1418.75
1418.7
1418.59
1418.56
1418.55
1418.61
1419.11
1421.19
1426.88
1420.08
1419.89
1419.99
1419.79
1420.74
1421.75
1423.34
1424.24
1433.88
1438.02
1430.09
1431.82
1431.83
1431.59
1431.7
1431.9
1432.07
1432.11
1432.17
1432.12
1431.87
1431.31
1430.5
1431.77
1399.69
1399.76
1399.84
1399.72
1398.71
1398.26
1397.9
1397.67
1397.45
1397.23
1397.1
1397.03
1397.26
1398.38
1403.15
1401.75
1399.93
1399.4
1399.09
1398.63
1399.22
1401.61
1405.77
1415.29
1413.25
1408.71
1409.43
1409.73
1410.17
1410.53
1410.95
1411.18
1411.41
1411.51
1411.49
1411.3
1410.86
1410.17
1409.29
1408.54
1379.75
1379.46
1379.17
1378.69
1377.9
1377.31
1376.77
1376.4
1375.97
1375.57
1375.28
1375.56
1377.64
1379.87
1380.77
1379.24
1378.06
1377.8
1378.05
1379.07
1380.81
1395.38
1399.15
1387.59
1387.83
1387.25
1387.42
1388.15
1388.83
1389.43
1389.99
1390.3
1390.6
1390.76
1390.74
1390.49
1389.96
1389.13
1388.09
1387.07
1359.67
1359.11
1358.51
1357.72
1356.87
1356.09
1355.38
1354.74
1354.12
1353.56
1353.1
1355.65
1357.79
1358.85
1357.27
1355.98
1355.22
1356.28
1359.62
1366.95
1373.34
1372.52
1366.08
1364.93
1364.57
1365.09
1365.76
1366.49
1367.23
1367.93
1368.6
1369.13
1369.56
1369.8
1369.81
1369.55
1368.96
1368
1366.76
1365.57
1339.76
1338.51
1337.55
1336.54
1335.55
1334.6
1333.58
1332.5
1331.76
1333.81
1335.9
1336.51
1335.9
1335.54
1333.94
1332.93
1333.02
1336.69
1348.62
1354.59
1345.57
1343.82
1342.03
1341.44
1341.99
1342.72
1343.48
1344.31
1345.19
1346.07
1346.9
1347.63
1348.2
1348.55
1348.63
1348.38
1347.74
1346.66
1345.23
1343.93
1318.9
1317.27
1316.27
1315.21
1314.13
1312.98
1311.71
1311.46
1312.95
1314.28
1315.48
1314.7
1313.14
1312.08
1311.1
1310.17
1314.29
1326.7
1326.7
1319.81
1318.82
1317.76
1317.94
1318.36
1318.93
1319.66
1320.52
1321.51
1322.57
1323.66
1324.7
1325.65
1326.42
1326.94
1327.14
1326.94
1326.26
1325.06
1323.41
1321.94
1297.25
1296.22
1295.14
1293.96
1292.69
1292.05
1293.02
1293.69
1294.05
1294.34
1293.72
1292.13
1290.43
1288.9
1289.67
1294.15
1301.66
1302.14
1298.84
1295.37
1293.85
1293.83
1294.08
1294.46
1295.04
1295.83
1296.82
1297.97
1299.23
1300.54
1301.84
1303.06
1304.09
1304.85
1305.24
1305.15
1304.48
1303.12
1301.2
1299.28
1276.65
1275.55
1274.4
1273.26
1273.08
1274.81
1274.97
1275
1274.35
1273.23
1271.31
1268.79
1266.7
1267.67
1272.6
1278.05
1276.02
1273.91
1270.8
1269.6
1269.28
1269.22
1269.35
1269.71
1270.32
1271.18
1272.26
1273.54
1274.97
1276.52
1278.1
1279.63
1281.01
1282.12
1282.8
1282.92
1282.31
1280.82
1278.58
1276.08
1256.25
1255.1
1253.86
1252.9
1254.23
1258.89
1258.05
1254.74
1253.08
1250.82
1247.32
1243.92
1243.85
1248.14
1254.58
1250.43
1248.86
1246.18
1245.15
1244.66
1244.26
1244.06
1244.08
1244.36
1244.91
1245.72
1246.79
1248.1
1249.63
1251.35
1253.2
1255.09
1256.9
1258.47
1259.59
1260.05
1259.61
1258.07
1255.46
1252.35
1236.24
1234.89
1233.55
1232.53
1235.39
1244.32
1234.82
1233.19
1229.9
1225.55
1220.99
1218.5
1225.56
1230.87
1226.08
1225.59
1223
1221.67
1220.81
1219.94
1219.27
1218.81
1218.59
1218.63
1218.94
1219.52
1220.4
1221.57
1223.03
1224.79
1226.8
1229
1231.3
1233.49
1235.25
1236.24
1236.14
1234.67
1231.78
1228.07
1216.21
1214.68
1213.1
1211.57
1211.51
1211.51
1210.45
1208.94
1203.8
1197.78
1197.88
1203.26
1206.89
1205.9
1205.37
1202.88
1200.5
1198.87
1197.15
1195.8
1194.68
1193.79
1193.15
1192.76
1192.63
1192.77
1193.22
1194
1195.13
1196.65
1198.58
1200.95
1203.72
1206.65
1209.28
1211.05
1211.52
1210.32
1207.35
1203.35
1196.64
1197.11
1192.33
1191.67
1190.97
1190.08
1187.32
1182.21
1181.59
1183.44
1184.9
1186.96
1189.32
1188.41
1185.89
1182.32
1179.29
1176.73
1174.3
1172.33
1170.65
1169.22
1168.03
1167.07
1166.34
1165.86
1165.66
1165.76
1166.24
1167.19
1168.77
1171.19
1174.57
1178.61
1182.28
1184.79
1185.77
1184.9
1182.11
1178.44
1181.27
1188.14
1174.38
1172.66
1171.6
1170.23
1168.55
1171.11
1171.26
1171.97
1173.26
1174.85
1174.4
1171.52
1166.67
1161.99
1158.61
1155.01
1152.08
1149.54
1147.3
1145.32
1143.56
1142.01
1140.63
1139.42
1138.37
1137.49
1136.79
1136.33
1136.25
1137.04
1140.93
1150.51
1158.04
1160.84
1160.94
1159.55
1156.78
1154.01
1165.89
1166.01
1156.26
1154.7
1154.11
1153.45
1157.07
1162.45
1162.64
1163.23
1163.85
1163.09
1157.85
1151.88
1146.38
1141.53
1137.42
1133.62
1130.32
1127.37
1124.72
1122.32
1120.13
1118.11
1116.21
1114.36
1112.47
1110.38
1107.91
1105.35
1103.38
1102.51
1107.06
1126.09
1139.02
1142.94
1140.67
1136.69
1132.93
1130.77
1147.43
1147.06
1138.45
1137.28
1136.79
1137.22
1142.65
1152.22
1154.03
1153.79
1151.25
1144.91
1136.96
1130.63
1125.35
1120.65
1116.39
1112.52
1109.03
1105.86
1103
1100.41
1098.07
1095.92
1093.9
1091.89
1089.7
1086.99
1084.56
1086.27
1092.21
1098.7
1108.1
1116.91
1121.33
1124.54
1122.72
1116.35
1110.84
1108.15
1128.67
1127.89
1120.41
1119.21
1117.77
1116.71
1118.15
1127.32
1135.5
1130.36
1123.24
1117.14
1111.87
1107.41
1103.18
1099.1
1095.19
1091.51
1088.1
1084.95
1082.1
1079.56
1077.33
1075.39
1073.65
1071.86
1069.64
1067.96
1072.34
1085.35
1092.39
1096.16
1098.65
1099.44
1096.58
1094.52
1096.57
1093.44
1088.53
1085.43
1109.41
1108.22
1103.48
1101.79
1099.39
1097.19
1095.4
1095.04
1094.78
1094.43
1092.33
1090
1087.38
1084.44
1081.2
1077.79
1074.36
1070.98
1067.72
1064.67
1061.89
1059.44
1057.4
1055.74
1054.27
1052.37
1049.82
1051.71
1066.69
1083.56
1085.17
1087.92
1089.16
1085.66
1076.42
1072.16
1069.05
1068.95
1066.35
1064.41
1089.41
1089.87
1086.87
1084.03
1081.5
1078.93
1076.09
1073.24
1071.47
1069.41
1067.89
1066.69
1065.07
1062.99
1060.45
1057.58
1054.5
1051.31
1048.12
1045.05
1042.2
1039.71
1037.74
1036.54
1035.5
1033.72
1031.52
1037.41
1054.33
1066.64
1071.67
1074.75
1072.12
1063.23
1056.67
1050.28
1050.89
1046.37
1045.67
1046.15
1071.54
1070.78
1069.49
1065.5
1063.13
1060.26
1056.39
1051.14
1049.43
1043.06
1043.86
1045.23
1044.76
1043.39
1041.43
1038.94
1036.01
1032.8
1029.46
1026.14
1022.98
1020.08
1019.81
1017.08
1018.63
1019.42
1018.19
1019.43
1027.57
1036.02
1047.95
1047.29
1040.48
1032.71
1030.02
1028.15
1027.54
1026.47
1027.13
1029.64
1053.09
1050.75
1053.08
1050.16
1047.14
1044.4
1040.49
1032.07
1035.01
1039.29
1024.79
1028.82
1029.44
1027.92
1025.6
1022.72
1019.42
1015.79
1011.96
1008
1004.06
1000.49
999.686
1005.58
997.239
998.756
992.298
987.721
995.291
1004.42
1011.07
1013.47
1010.93
1009.75
1008.89
1008.43
1008.15
1009.27
1011.46
1014.87
1037.26
1036.36
1034.87
1034.07
1031.35
1028.88
1026.11
1019.15
1012.83
1020.02
1013.57
1012.87
1017.57
1017.77
1014.41
1009.79
1005.11
1000.45
995.606
990.404
984.55
977.65
970.411
967.304
969.918
965.887
963.386
966.97
971.717
977.971
978.693
984.786
990.208
991.151
991.434
991.9
992.452
994.362
998.136
1001.93
1020.87
1020.33
1018.39
1019.83
1015.88
1015.41
1014.65
1009.27
1003.86
1003.07
1001.44
1000.89
1002.67
1004.41
1003.15
998.371
992.28
986.692
981.237
975.43
968.769
960.51
951.235
946.17
952.813
955.298
954.421
954.954
957.046
959.992
963.651
967.992
974.493
973.475
975.897
976.647
978.335
981.262
985.685
989.357
1004.36
1004.27
1003.58
1005.47
998.981
1002.15
1003.34
997.017
994.345
993.972
993.805
993.789
994.87
994.176
988.443
984.388
978.617
973.069
967.705
962.004
955.619
948.414
942.855
942.019
945.402
946.245
947.565
948.982
950.289
947.958
946.871
950.067
955.812
961.44
963.83
962.412
965.222
968.799
973.264
976.454
987.239
987.404
987.769
988.531
981.018
991.061
988.496
986.902
986.712
986.524
986.661
986.531
984.984
977.075
968.978
965.973
962.102
957.915
953.013
947.873
942.265
937.243
936.051
936.217
937.118
939.304
940.721
941.988
944.648
940.172
930.724
935.182
938.235
946.313
948.466
949.021
952.822
957.043
961.175
963.701
970.131
971.304
972.933
973.61
967.356
979.059
975.429
978.283
979.733
979.177
977.691
974.028
965.337
956.526
951.67
949.179
946.006
941.897
937.443
932.874
929.103
927.379
927.959
929.956
931.623
933.293
934.9
935.764
932.755
922.112
916.61
920.693
929.588
934.337
935.984
937.941
941.459
945.673
949.236
951.531
952.392
953.235
960.282
959.638
955.475
963.937
961.96
967.521
972.916
965.2
957.693
949.809
942.294
938.143
935.801
932.988
929.229
924.935
920.79
918.775
919.444
920.797
924.4
925.895
927.251
928.704
930.315
931.493
920.708
903.811
908.704
909.574
920.135
922.864
923.736
927.331
930.841
934.894
937.931
939.971
935.395
936.576
946.147
944.624
938.43
940.965
940.642
942.171
939.245
934.498
930.842
926.981
924.466
922.442
919.736
916.136
911.859
908.941
909.968
913.859
917.37
919.784
920.87
922.001
922.983
923.706
924.466
920.701
901.722
894.418
902.194
907.12
914.822
910.49
912.719
916.899
920.678
924.637
927.278
929.119
917.75
918.207
919.266
919.591
919.144
920.122
920.4
919.88
918.37
916.422
914.516
912.448
910.046
907.143
903.346
899.566
899.878
906.639
912.977
916.522
917.221
917.558
918.297
919.014
919.876
920.51
918.08
902.133
884.058
885.407
892.741
897.437
900.587
900.666
904.173
908.083
911.7
915.189
917.594
919.087
900.43
900.795
901.078
901.15
901.307
901.821
902.107
901.501
900.035
906.988
898.153
896.677
894.106
890.399
886.751
890.316
904.64
913.53
915.052
915.603
915.99
916.427
916.842
917.174
917.568
917.494
905.502
878.295
871.223
877.959
884.176
888.102
890.636
893.119
896.387
899.812
903.038
906.195
908.333
910.049
883.346
883.539
883.505
883.128
883.536
884.142
886.134
885.756
885.958
895.104
883.921
881.31
878.395
874.78
877.237
898.739
913.67
914.242
914.45
914.968
915.559
916.01
916.133
915.816
914.9
910.012
879.124
859.602
863.339
870.76
875.665
879.046
882.063
885.167
888.442
891.718
894.818
897.622
899.995
902.022
866.915
866.904
866.645
866.152
870.291
871.508
873.947
873.222
875.373
877.358
868.326
866.79
865.539
865.963
878.331
905.634
912.476
913.409
913.605
913.931
914.638
915.308
915.148
912.516
903.384
872.44
850.652
849.141
857.3
864.942
869.195
871.639
874.288
877.414
880.733
884.033
887.196
890.162
892.809
895.17
851.168
851.338
851.48
851.999
854.249
866.266
853.393
856.923
859.566
859.027
855.601
854.214
854.063
854.919
861.946
884.251
904.741
910.375
911.769
910.845
908.441
904.692
898.043
878.208
839.173
824.444
833.034
839.551
849.483
860.461
864.206
865.045
866.847
869.84
873.291
876.814
880.286
883.658
886.78
889.634
835.134
835.35
835.524
835.896
836.486
851.75
837.597
844.285
844.472
842.682
839.84
839.19
839.29
839.268
839.729
845.34
859.171
871.711
877.56
874.251
868.744
861.363
850.759
835.422
813.437
814.552
823.291
834.644
846.824
851.126
851.514
854.106
857.204
861.21
865.522
869.838
874.098
878.253
882.163
885.736
819.059
819.464
819.778
820.096
820.283
834.371
822.766
830.635
824.901
829.807
822.616
823.536
824.096
824.409
824.569
825.467
827.918
829.923
827.041
829.539
835.111
838.404
829.535
817.496
818.564
821.733
824.248
827.724
831.127
833.906
834.045
839.584
845.862
851.95
857.802
863.467
868.988
874.365
879.471
884.08
802.983
803.602
804.043
804.279
803.617
813.409
808.364
815.418
814.26
811.851
810.914
810.484
810.073
809.487
808.444
806.136
802.341
798.723
802.074
816.57
821.51
840.43
827.712
822.375
818.091
816.916
817.53
819.033
820.949
821.815
820.541
826.941
835.7
843.846
851.403
858.66
865.728
872.723
879.443
885.478
787.411
788.628
789.879
791.336
792.549
795.286
796.543
797.988
800.416
797.479
797.531
797.435
796.879
795.953
793.94
791.488
792.215
797.769
804.636
807.79
813.848
829.339
822.985
813.9
809.072
807.921
808.882
810.442
812.189
812.066
810.46
818.116
828.543
838.319
847.48
856.366
865.141
874.032
882.834
890.665
771.585
773.191
774.966
777.032
779.553
782.093
784.365
786.8
787.079
784.218
784.991
785.422
785.092
784.116
783.255
784.476
786.12
789.105
792.477
800.327
809.565
813.267
810.219
801.725
798.621
798.606
799.608
801.3
803.038
802.473
804.029
813.735
825.217
836.161
846.726
857.179
867.713
878.671
889.935
899.939
755.435
757.252
759.202
761.855
766.639
768.484
768.191
769.706
770.787
771.129
774.834
775.699
774.815
774.267
775.166
776.72
778.545
781.974
787.091
796.201
801.913
799.304
792.989
787.941
787.627
788.633
790.23
792.241
794.135
794.62
801.514
813.094
825.316
837.259
849.108
861.041
873.319
886.497
900.547
913.027
739.844
741.897
744.39
751.348
752.432
751.467
756.347
759.674
761.903
762.916
765.242
764.669
765.015
767.102
768.897
770.804
773.713
778.971
785.465
790.503
789.953
782.849
777.011
775.61
776.668
778.405
780.558
783.511
786.469
791.989
802.918
815.506
828.268
841.079
854.024
867.275
881.218
896.682
913.721
928.857
723.836
725.091
729.283
730.309
736.73
742.73
746.518
749.142
748.199
751.674
754.59
757.901
758.996
760.414
762.653
766.799
770.2
775.372
778.237
776.973
773.679
766.341
762.504
763.201
765.37
767.876
771.366
776.579
783.927
794.613
806.786
819.625
832.825
846.299
860.125
874.486
889.979
907.724
927.836
945.707
708.301
707.99
711.569
717.442
725.225
729.849
735.154
739.91
745.37
748.32
749.399
749.763
750.281
752.304
753.869
761.198
763.063
763.027
762.53
760.886
755.123
748.253
748.259
751.009
754.083
758.215
765.039
774.938
786.386
798.069
810.456
823.53
837.054
850.972
865.433
880.713
897.595
917.524
940.703
961.25
702.853
704.367
711.578
717.571
722.771
728.056
729.814
730.923
731.216
730.94
729.778
729.537
735.432
737.079
738.392
741.284
744.473
747.049
746.322
739.749
732.951
732.971
736.223
739.899
744.949
753.343
765.026
776.988
787.891
799.418
811.921
825.052
838.634
852.742
867.615
883.618
901.711
923.67
949.788
972.823
694.451
700.823
704.065
708.163
709.401
711.421
711.062
709.182
709.085
712.293
708.84
707.758
709.748
713.196
718.833
725.474
730.684
728.748
721.878
719.296
718.901
722.837
727.267
733.843
743.076
755.11
765.852
774.911
784.97
796.41
808.708
821.563
834.964
849.071
864.174
880.743
899.867
923.644
952.421
977.628
678.495
677.71
678.424
679.502
687.54
687.39
683.442
682.328
683.956
685.048
685.975
687.494
688.826
692.905
700.78
706.343
703.572
700.277
699.703
702.724
707.495
714.599
723.711
732.176
743.284
749.812
756.118
764.377
774.485
785.725
797.669
810.205
823.394
837.444
852.71
869.715
889.701
915.027
946.026
972.993
649.59
650.496
650.538
652.709
656.023
658.47
660.387
663.626
667.606
669.162
669.044
668.855
672.485
672.74
677.571
669.985
668.655
672.276
675.63
682.43
689.68
700.215
709.19
714.662
719.153
724.835
732.658
742.226
752.9
764.271
776.175
788.61
801.717
815.779
831.212
848.597
869.278
895.79
928.478
956.944
620.287
623.773
627.623
632.299
637.419
642.546
646.451
649.177
652.192
656.446
659.373
659.589
659.257
656.629
653.448
648.132
643.125
644.801
648.087
651.617
657.341
662.195
666.433
672.138
679.316
687.884
697.635
708.255
719.464
731.09
743.088
755.559
768.705
782.859