/*--------------------------------*- C++ -*----------------------------------*\
  =========                 |
  \\      /  F ield         | OpenFOAM: The Open Source CFD Toolbox
   \\    /   O peration     | Website:  https://openfoam.org
    \\  /    A nd           | Version:  8
     \\/     M anipulation  |
\*---------------------------------------------------------------------------*/
FoamFile
{
    version     2.0;
    format      ascii;
    class       surfaceScalarField;
    location    "8.6";
    object      alphaPhi0.water;
}
// * * * * * * * * * * * * * * * * * * * * * * * * * * * * * * * * * * * * * //

dimensions      [0 3 -1 0 0 0 0];

internalField   nonuniform List<scalar> 
18095
(
2.01237e-08
-1.72188e-07
1.52065e-07
2.32129e-08
-1.97262e-07
1.94173e-07
2.01902e-08
-2.06223e-07
2.09246e-07
1.11372e-08
-2.10578e-07
2.19631e-07
-1.03153e-09
-2.12997e-07
2.25166e-07
-1.2395e-08
-2.13406e-07
2.24769e-07
-2.02928e-08
-2.11687e-07
2.19585e-07
-2.32101e-08
-2.06294e-07
2.09212e-07
-2.01255e-08
-1.97191e-07
1.94106e-07
-1.72172e-07
1.52047e-07
1.55082e-08
-1.87696e-07
1.62773e-08
-1.98031e-07
1.20222e-08
-2.01968e-07
6.79677e-09
-2.05353e-07
1.3029e-09
-2.07504e-07
-5.34664e-09
-2.06756e-07
-1.17872e-08
-2.05247e-07
-1.6324e-08
-2.01758e-07
-1.54984e-08
-1.98016e-07
-1.87671e-07
6.76869e-09
-1.94465e-07
8.45304e-09
-1.99716e-07
7.3622e-09
-2.00877e-07
3.81258e-09
-2.01803e-07
-9.93293e-10
-2.02698e-07
-4.86427e-09
-2.02885e-07
-7.55189e-09
-2.02559e-07
-8.44332e-09
-2.00866e-07
-6.76277e-09
-1.99697e-07
-1.94434e-07
4.4784e-09
-1.98944e-07
4.74568e-09
-1.99983e-07
3.76708e-09
-1.99899e-07
2.30434e-09
-2.00341e-07
5.43747e-10
-2.00937e-07
-1.50241e-09
-2.00839e-07
-3.66666e-09
-2.00395e-07
-4.72037e-09
-1.99812e-07
-4.49846e-09
-1.99919e-07
-1.98932e-07
1.05636e-09
1.07353e-09
1.17493e-09
8.34252e-10
-1.02969e-10
-9.42023e-10
-1.3369e-09
-1.14927e-09
-1.06787e-09
-2.95651e-08
-1.9547e-07
2.25035e-07
-3.20014e-08
-1.99393e-07
2.01829e-07
-2.54986e-08
-2.01719e-07
1.95216e-07
-1.36995e-08
-2.02434e-07
1.90635e-07
1.56535e-09
-2.02448e-07
1.87183e-07
1.64545e-08
-2.02293e-07
1.87403e-07
2.64586e-08
-2.0111e-07
1.91106e-07
3.22075e-08
-2.00807e-07
1.95058e-07
2.95803e-08
-1.98997e-07
2.01625e-07
-1.95328e-07
2.24908e-07
-9.228e-09
-1.86242e-07
-1.49752e-08
-1.93645e-07
-1.23479e-08
-2.04347e-07
-6.09817e-09
-2.08684e-07
-9.05915e-10
-2.07641e-07
4.37086e-09
-2.0757e-07
1.11613e-08
-2.07901e-07
1.4529e-08
-2.04175e-07
9.14981e-09
-1.93618e-07
-1.86178e-07
-9.36234e-09
-1.7688e-07
-7.87692e-09
-1.95131e-07
-7.99043e-09
-2.04233e-07
-7.12356e-09
-2.09551e-07
-1.77889e-09
-2.12985e-07
4.06807e-09
-2.13417e-07
7.17766e-09
-2.11011e-07
7.67538e-09
-2.04672e-07
9.26121e-09
-1.95204e-07
-1.76917e-07
-6.19533e-09
-1.70684e-07
-7.70189e-09
-1.93624e-07
-6.89937e-09
-2.05036e-07
-2.32832e-09
-2.14122e-07
1.08991e-09
-2.16403e-07
4.18508e-09
-2.16512e-07
7.80539e-09
-2.14631e-07
8.18209e-09
-2.05049e-07
6.37508e-09
-1.93397e-07
-1.70542e-07
-1.86199e-08
-1.8071e-08
-1.38609e-08
-8.35134e-09
4.11475e-10
8.66878e-09
1.36231e-08
1.77858e-08
1.84946e-08
3.77512e-08
-1.58746e-07
1.20995e-07
4.01929e-08
-1.98367e-07
1.95925e-07
3.4214e-08
-2.11072e-07
2.17051e-07
2.22889e-08
-2.15361e-07
2.27286e-07
5.80405e-09
-2.17276e-07
2.33761e-07
-1.29545e-08
-2.17356e-07
2.36114e-07
-2.96791e-08
-2.15127e-07
2.31851e-07
-4.05522e-08
-2.09792e-07
2.20665e-07
-3.80353e-08
-1.98417e-07
1.959e-07
-1.58486e-07
1.20451e-07
1.64632e-08
-1.75209e-07
1.91915e-08
-2.01095e-07
1.52117e-08
-2.07092e-07
7.24299e-09
-2.07392e-07
-2.81045e-09
-2.07223e-07
-1.25304e-08
-2.07637e-07
-1.81979e-08
-2.09459e-07
-2.0142e-08
-2.07847e-07
-1.70604e-08
-2.01499e-07
-1.75547e-07
7.12284e-09
-1.82332e-07
8.16623e-09
-2.02138e-07
7.62625e-09
-2.06553e-07
4.2221e-09
-2.03988e-07
1.77e-09
-2.04771e-07
-1.15191e-09
-2.04715e-07
-6.48307e-09
-2.04128e-07
-7.62762e-09
-2.06703e-07
-7.0097e-09
-2.02117e-07
-1.82556e-07
7.60261e-09
-1.89935e-07
4.79978e-09
-1.99335e-07
6.10848e-09
-2.07861e-07
2.52255e-09
-2.00402e-07
7.04929e-10
-2.02953e-07
-1.14677e-09
-2.02863e-07
-5.70921e-09
-1.99565e-07
-4.57415e-09
-2.07838e-07
-7.26982e-09
-1.99421e-07
-1.89826e-07
3.51007e-08
3.75942e-08
2.49494e-08
1.51826e-08
-5.87091e-10
-1.60464e-08
-2.45055e-08
-3.72854e-08
-3.50818e-08
3.58946e-08
2.79088e-09
-3.86786e-08
3.59146e-08
-1.02317e-11
3.50856e-08
6.05321e-10
3.16268e-08
3.45925e-09
2.52237e-08
6.40187e-09
2.13602e-08
4.04192e-09
1.98088e-08
1.55103e-09
1.99794e-08
-1.71513e-10
2.13774e-08
-1.39903e-09
4.68754e-10
2.09083e-08
4.39307e-08
1.64845e-08
-5.76243e-08
3.38414e-08
9.83064e-09
2.67001e-08
7.74358e-09
2.05006e-08
9.65749e-09
1.66766e-08
1.02261e-08
1.37086e-08
7.11546e-09
1.13291e-08
3.92916e-09
9.96281e-09
1.19365e-09
6.88829e-09
1.67453e-09
9.39004e-09
-2.03398e-09
5.17895e-08
3.20714e-08
-6.73766e-08
3.56252e-08
2.59946e-08
2.39934e-08
1.91985e-08
1.75094e-08
1.61417e-08
1.36883e-08
1.40472e-08
9.91475e-09
1.08892e-08
5.55069e-09
8.29322e-09
2.25319e-09
4.48466e-09
-4.63111e-09
8.55766e-09
2.15264e-08
-1.67838e-08
6.04398e-08
4.54007e-08
-7.37693e-08
4.51146e-08
4.13196e-08
3.26816e-08
3.16311e-08
2.42348e-08
2.4508e-08
1.95331e-08
1.87491e-08
1.64105e-08
1.40118e-08
1.22829e-08
1.24205e-08
5.00883e-09
1.18181e-08
-7.30231e-09
2.0868e-08
3.21638e-08
-1.79708e-08
5.67383e-08
5.60474e-08
-6.73852e-08
4.67979e-08
5.12597e-08
3.47443e-08
4.36845e-08
2.41413e-08
3.49505e-08
1.66973e-08
2.61933e-08
1.21754e-08
1.85333e-08
7.55356e-09
1.70421e-08
-3.47636e-09
2.29228e-08
-1.51855e-08
3.25671e-08
3.85741e-08
-2.15964e-08
5.05088e-08
6.07102e-08
-5.51723e-08
4.55595e-08
5.62087e-08
3.76506e-08
5.15935e-08
2.95964e-08
4.27416e-08
1.92277e-08
3.65621e-08
7.52044e-09
3.02403e-08
-2.06371e-09
2.67231e-08
-1.16636e-08
3.25533e-08
-1.83509e-08
3.92621e-08
3.96223e-08
-1.93995e-08
4.25879e-08
6.26449e-08
-4.43808e-08
3.83995e-08
6.03972e-08
3.45126e-08
5.54805e-08
2.93104e-08
4.76405e-08
2.23698e-08
4.35014e-08
1.20554e-08
4.09094e-08
3.66004e-09
3.52098e-08
-3.21524e-09
3.94285e-08
-7.84722e-09
4.39287e-08
4.39107e-08
-1.21361e-08
2.78103e-08
6.5758e-08
-3.07953e-08
2.55894e-08
6.2358e-08
2.48567e-08
5.5838e-08
2.23752e-08
5.04044e-08
1.84095e-08
4.78588e-08
1.44978e-08
4.48395e-08
9.43075e-09
4.02767e-08
6.0732e-09
4.2786e-08
1.89689e-09
4.81225e-08
4.78508e-08
-1.92399e-09
1.20657e-08
6.44423e-08
-1.08928e-08
1.36931e-08
6.07846e-08
1.36107e-08
5.58577e-08
1.54011e-08
4.89295e-08
1.68156e-08
4.64439e-08
1.66377e-08
4.50173e-08
1.45906e-08
4.23238e-08
1.3653e-08
4.37236e-08
1.23781e-08
4.93974e-08
5.00045e-08
1.02298e-08
1.64261e-09
5.83449e-08
4.36996e-09
6.46003e-09
5.60873e-08
1.11584e-08
5.14725e-08
1.49311e-08
4.51561e-08
1.87052e-08
4.26691e-08
1.9741e-08
4.3856e-08
1.91331e-08
4.28738e-08
1.97396e-08
4.31171e-08
2.15349e-08
4.76022e-08
5.07198e-08
2.08195e-08
-6.76212e-09
4.85021e-08
1.66805e-08
2.1201e-09
4.72027e-08
8.26445e-09
4.53274e-08
1.17825e-08
4.16374e-08
1.59944e-08
3.84564e-08
1.89175e-08
4.09236e-08
1.99245e-08
4.18611e-08
2.18911e-08
4.11319e-08
2.55862e-08
4.39071e-08
4.81023e-08
2.82035e-08
-4.09014e-09
3.59292e-08
1.67202e-08
5.36965e-09
3.77415e-08
9.42359e-09
4.12725e-08
1.12096e-08
3.98506e-08
1.35204e-08
3.61448e-08
1.75037e-08
3.6952e-08
2.1192e-08
3.81673e-08
2.39793e-08
3.8339e-08
2.7519e-08
4.03386e-08
4.18538e-08
3.37673e-08
2.55947e-09
2.32139e-08
1.01544e-08
1.2394e-08
2.7906e-08
1.40314e-08
3.96341e-08
1.3578e-08
4.03033e-08
1.37682e-08
3.59538e-08
1.68666e-08
3.38527e-08
2.04713e-08
3.4611e-08
2.44752e-08
3.43296e-08
3.13774e-08
3.34312e-08
3.4014e-08
3.91997e-08
7.14633e-09
1.57208e-08
3.46161e-10
1.52263e-08
1.98246e-08
1.90063e-08
3.55662e-08
1.9555e-08
3.96226e-08
1.96235e-08
3.58631e-08
2.26641e-08
3.08114e-08
2.85304e-08
2.87439e-08
3.54158e-08
2.74582e-08
4.26191e-08
2.62225e-08
2.72696e-08
4.93577e-08
2.04711e-08
1.82416e-08
-2.29931e-08
2.06628e-08
1.94054e-08
2.62976e-08
2.99294e-08
3.06022e-08
3.53166e-08
3.30603e-08
3.341e-08
3.73084e-08
2.65624e-08
4.43125e-08
2.17389e-08
5.20519e-08
1.9718e-08
5.90708e-08
1.91411e-08
2.12856e-08
6.51862e-08
3.76313e-08
1.58601e-08
-3.52026e-08
3.94083e-08
1.75168e-08
4.57319e-08
2.36043e-08
5.26099e-08
2.84369e-08
5.91233e-08
2.72046e-08
6.4268e-08
2.14749e-08
6.88757e-08
1.71305e-08
7.29911e-08
1.5602e-08
7.65748e-08
1.55568e-08
1.70249e-08
8.08349e-08
5.10607e-08
5.00643e-09
-4.03972e-08
6.09301e-08
7.57053e-09
7.11892e-08
1.33435e-08
8.03975e-08
1.92271e-08
8.92315e-08
1.89591e-08
9.40286e-08
1.66776e-08
9.55851e-08
1.55735e-08
9.45346e-08
1.66519e-08
9.21979e-08
1.7893e-08
1.8517e-08
9.07053e-08
6.59977e-08
-1.3974e-08
-4.7016e-08
8.27574e-08
-9.18906e-09
9.6541e-08
-3.59781e-10
1.05385e-07
1.05601e-08
1.09763e-07
1.4581e-08
1.11738e-07
1.47015e-08
1.11568e-07
1.57436e-08
1.06407e-07
2.18121e-08
9.77308e-08
2.65686e-08
2.44828e-08
9.17645e-08
2.72901e-08
-3.29825e-08
-8.24453e-09
4.40973e-08
-2.57762e-08
6.20083e-08
-1.79916e-08
7.99878e-08
-7.20214e-09
9.16058e-08
2.96266e-09
9.78191e-08
8.48766e-09
9.92228e-08
1.43394e-08
9.28996e-08
2.69875e-08
8.55919e-08
3.34154e-08
2.87715e-08
8.15454e-08
-2.07167e-08
-4.46662e-08
3.2375e-08
-6.67828e-09
-4.01841e-08
1.47888e-08
-3.97508e-08
3.44781e-08
-2.71785e-08
4.66692e-08
-9.5126e-09
5.18574e-08
2.94146e-09
5.21325e-08
1.37408e-08
5.66742e-08
2.24337e-08
6.45291e-08
2.5544e-08
1.93749e-08
7.3904e-08
-1.03739e-08
-5.77461e-08
2.34529e-08
-5.41473e-10
-5.00175e-08
2.95205e-09
-4.35374e-08
8.6214e-09
-3.31531e-08
1.69614e-08
-1.82429e-08
2.6367e-08
-6.66489e-09
3.8324e-08
1.77174e-09
5.48158e-08
5.92971e-09
6.75962e-08
1.2788e-08
7.4007e-09
7.95677e-08
3.12014e-09
-6.41316e-08
3.26439e-09
5.28815e-09
-5.21863e-08
4.32997e-09
-4.258e-08
5.34353e-09
-3.41676e-08
1.34745e-08
-2.63735e-08
2.13238e-08
-1.44219e-08
2.75184e-08
-4.33229e-09
3.53374e-08
-1.69831e-09
4.78978e-08
4.08825e-10
2.5546e-09
5.29259e-08
6.40051e-09
-6.39041e-08
-6.62854e-09
4.5985e-09
-5.0385e-08
-4.09633e-09
-3.37849e-08
-2.20191e-08
-1.60482e-08
-4.16199e-08
-6.51337e-09
-5.28439e-08
-2.73418e-09
-5.37275e-08
-3.53698e-09
-4.71433e-08
-8.37178e-09
-3.68036e-08
-1.00188e-08
-5.19689e-09
-2.91363e-08
-9.18652e-09
-4.49293e-08
-9.7887e-09
-3.69981e-08
-2.25083e-08
-6.81692e-08
-1.66446e-09
-9.45331e-08
1.02569e-08
-1.10055e-07
8.94811e-09
-1.13672e-07
-7.22769e-10
-1.04809e-07
-1.24018e-08
-9.32061e-08
-1.99825e-08
-8.10738e-08
-2.21555e-08
-2.05762e-08
-6.50035e-08
-3.94468e-08
-1.25108e-08
7.02941e-09
-7.65043e-08
1.51001e-08
-1.02801e-07
2.45579e-08
-1.16848e-07
2.42425e-08
-1.23818e-07
1.49562e-08
-1.23686e-07
-8.562e-10
-1.24963e-07
-1.1125e-08
-1.29639e-07
-1.53082e-08
-1.32653e-07
-1.90231e-08
-2.08945e-08
-1.27008e-07
-3.22597e-08
1.98678e-08
-1.15764e-10
-6.79108e-08
5.15773e-08
-9.66941e-08
5.32951e-08
-1.15405e-07
4.19019e-08
-1.28354e-07
2.79039e-08
-1.3833e-07
9.12012e-09
-1.46362e-07
-3.09331e-09
-1.48745e-07
-1.29256e-08
-1.44699e-07
-2.30685e-08
-2.94618e-08
-1.34085e-07
-1.70113e-08
4.80972e-08
-1.12158e-08
-4.42855e-08
7.91332e-08
-7.2915e-08
8.31794e-08
-1.02232e-07
7.07311e-08
-1.25262e-07
5.09335e-08
-1.43967e-07
2.78255e-08
-1.51822e-07
4.76206e-09
-1.47802e-07
-1.6946e-08
-1.36584e-07
-3.42866e-08
-4.39466e-08
-1.22099e-07
-7.66027e-09
7.81446e-08
-2.23859e-08
-2.1593e-08
9.30671e-08
-2.55491e-08
8.71306e-08
-3.4366e-08
7.95429e-08
-4.98687e-08
6.64351e-08
-8.1942e-08
5.99047e-08
-1.22787e-07
4.52697e-08
-1.43631e-07
3.89787e-09
-1.3663e-07
-4.1287e-08
-5.69579e-08
-1.23619e-07
-8.022e-09
1.1155e-07
-2.53818e-08
-1.77153e-08
1.02758e-07
-1.16797e-08
8.1087e-08
-4.31702e-10
6.82842e-08
1.84433e-08
4.75551e-08
8.81355e-09
6.95246e-08
-3.33652e-08
8.53247e-08
-9.34856e-08
5.84748e-08
-1.08041e-07
-2.74644e-08
-6.19681e-08
-1.0284e-07
4.91423e-09
1.23268e-07
-2.20544e-08
6.24681e-09
1.01427e-07
6.78505e-09
8.0243e-08
4.1547e-09
6.70951e-08
7.40641e-09
4.20272e-08
2.93389e-09
7.0895e-08
-2.17325e-09
8.62499e-08
-1.6588e-08
7.27797e-08
-3.74046e-08
-9.46405e-09
-5.31295e-08
-4.6061e-08
6.11014e-09
1.1981e-07
-9.23757e-09
1.75557e-09
9.62516e-08
3.23544e-09
7.10646e-08
6.06871e-09
6.12595e-08
-6.6807e-09
5.26956e-08
-9.04991e-09
6.92442e-08
5.00874e-09
7.20839e-08
1.87987e-08
5.88785e-08
1.3386e-08
-2.71732e-09
-2.96584e-08
-9.96139e-09
-1.38729e-08
9.80958e-08
3.55415e-08
-3.08225e-09
8.54786e-08
-7.14866e-09
7.49312e-08
-1.79551e-08
7.15814e-08
-2.73858e-08
6.16384e-08
-1.83184e-08
5.96884e-08
1.14364e-09
5.50417e-08
2.83729e-08
3.55976e-08
2.37574e-08
2.96646e-09
-3.21483e-09
-2.68577e-09
-3.82868e-08
7.00052e-08
6.63342e-08
-2.90641e-08
7.62104e-08
-3.20501e-08
8.47224e-08
-3.50945e-08
8.17799e-08
-3.49015e-08
6.7256e-08
-2.21198e-08
5.1274e-08
4.10214e-09
3.07182e-08
2.02533e-08
2.12326e-08
9.90814e-09
1.33515e-08
1.92411e-08
-1.25475e-08
-7.72672e-08
7.77296e-08
7.71393e-08
-7.4431e-08
7.66002e-08
-6.62963e-08
7.79214e-08
-5.75226e-08
7.40582e-08
-5.00834e-08
6.04263e-08
-3.57395e-08
3.71275e-08
-2.11516e-08
1.60056e-08
-7.91762e-09
7.99913e-09
-5.35225e-09
1.07864e-08
2.87856e-08
-1.48965e-08
-7.51896e-08
7.13907e-08
8.19271e-08
-6.77273e-08
6.91387e-08
-5.8523e-08
6.87181e-08
-4.94261e-08
6.49947e-08
-4.21875e-08
5.3239e-08
-3.9343e-08
3.42994e-08
-3.85956e-08
1.51653e-08
-2.51363e-08
-5.57284e-09
-1.00367e-08
-4.31284e-09
2.58395e-08
-7.09035e-09
-6.15345e-08
5.57578e-08
7.71682e-08
-4.25884e-08
5.01916e-08
-2.16632e-08
4.77928e-08
-3.47026e-09
4.67196e-08
7.1154e-09
4.25644e-08
6.494e-09
3.49201e-08
-2.1782e-09
2.39077e-08
-2.29721e-09
-5.46662e-09
-7.42738e-10
-5.86704e-09
2.88212e-08
-3.72408e-09
-3.38489e-08
3.98651e-08
4.94797e-08
-1.74359e-08
3.37786e-08
8.90909e-10
2.94656e-08
1.97145e-08
2.79007e-08
3.28152e-08
2.94631e-08
3.65708e-08
3.11637e-08
3.30445e-08
2.74686e-08
2.29394e-08
4.63723e-09
1.27235e-08
3.92557e-09
3.23347e-08
7.84198e-09
2.84476e-08
3.61177e-08
-2.47366e-08
2.84672e-08
3.36691e-08
2.94215e-08
2.85112e-08
3.25766e-08
2.47429e-08
3.60297e-08
2.60071e-08
3.44056e-08
3.2787e-08
2.63636e-08
3.554e-08
1.0865e-08
2.01351e-08
-4.006e-09
1.87492e-08
2.80526e-08
2.55823e-10
9.48527e-08
4.17001e-08
-1.00321e-07
8.47482e-08
4.3752e-08
7.10342e-08
4.21356e-08
5.88394e-08
3.69303e-08
5.00541e-08
3.47869e-08
4.24179e-08
4.04927e-08
2.95137e-08
4.84427e-08
9.90821e-09
3.9738e-08
-3.61634e-09
3.25303e-08
3.48021e-08
-9.64612e-09
1.41348e-07
4.95919e-08
-1.49231e-07
1.31952e-07
5.31447e-08
1.19243e-07
5.48506e-08
1.03928e-07
5.22436e-08
9.0053e-08
4.86564e-08
7.76442e-08
5.29006e-08
5.75271e-08
6.85588e-08
2.87263e-08
6.8534e-08
4.92902e-09
5.64187e-08
4.76542e-08
-7.13452e-09
1.73966e-07
5.20561e-08
-1.76435e-07
1.71241e-07
5.58597e-08
1.67161e-07
5.89259e-08
1.55653e-07
6.37549e-08
1.39074e-07
6.52319e-08
1.23589e-07
6.83828e-08
1.07541e-07
8.46043e-08
7.69899e-08
9.9083e-08
4.23793e-08
9.10283e-08
7.43142e-08
1.57185e-08
1.91553e-07
4.38399e-08
-1.83348e-07
1.99767e-07
4.76427e-08
1.97582e-07
6.11124e-08
1.74706e-07
8.66274e-08
1.5012e-07
8.98172e-08
1.3348e-07
8.502e-08
1.2981e-07
8.82716e-08
1.27518e-07
1.0137e-07
1.08111e-07
1.10429e-07
1.04956e-07
7.74631e-08
1.72543e-07
2.57343e-08
-1.56135e-07
1.80678e-07
3.59724e-08
1.74035e-07
5.27874e-08
1.72219e-07
8.45353e-08
1.68124e-07
9.34611e-08
1.61373e-07
9.17936e-08
1.56807e-07
9.28265e-08
1.58172e-07
9.99995e-08
1.62863e-07
1.05733e-07
1.07867e-07
1.5995e-07
9.18589e-08
1.89817e-09
-7.19147e-08
1.22379e-07
4.89231e-09
1.3796e-07
3.67347e-08
1.50219e-07
7.18776e-08
1.56715e-07
8.66403e-08
1.63924e-07
8.42603e-08
1.71586e-07
8.34609e-08
1.73669e-07
9.43207e-08
1.8377e-07
9.5574e-08
8.99056e-08
2.0173e-07
6.92829e-08
-1.76023e-09
-6.59133e-08
7.15687e-08
1.05552e-10
8.38658e-08
2.34353e-08
1.10308e-07
4.51101e-08
1.26563e-07
7.00611e-08
1.46856e-07
6.36438e-08
1.64976e-07
6.50165e-08
1.91398e-07
6.75537e-08
2.15974e-07
7.07476e-08
7.48017e-08
2.37611e-07
1.12175e-07
-7.05611e-09
-1.07345e-07
1.06224e-07
3.22959e-09
1.10878e-07
1.93559e-08
1.2496e-07
3.4965e-08
1.4598e-07
5.14373e-08
1.58864e-07
5.34964e-08
1.68791e-07
5.5039e-08
1.91059e-07
4.50365e-08
2.14404e-07
4.72626e-08
6.38832e-08
2.42863e-07
1.34064e-07
-3.55175e-08
-1.08538e-07
1.52289e-07
-2.15698e-08
1.752e-07
-3.36165e-09
1.94619e-07
1.58865e-08
2.20973e-07
2.74532e-08
2.38408e-07
3.69905e-08
2.45173e-07
4.99857e-08
2.3786e-07
5.5322e-08
2.37996e-07
5.51897e-08
6.11864e-08
2.48649e-07
1.42693e-07
-6.38773e-08
-1.14334e-07
1.74436e-07
-5.33129e-08
2.10316e-07
-3.92415e-08
2.47467e-07
-2.12643e-08
2.76096e-07
-1.17558e-09
2.89369e-07
1.75205e-08
3.08678e-07
3.49891e-08
3.18636e-07
4.836e-08
3.1811e-07
5.57268e-08
6.3063e-08
3.16238e-07
1.40697e-07
-8.35302e-08
-1.21044e-07
1.68314e-07
-8.09293e-08
2.02629e-07
-7.35563e-08
2.41574e-07
-6.0209e-08
2.73948e-07
-3.3549e-08
2.96074e-07
-4.6228e-09
3.14979e-07
1.61986e-08
3.33857e-07
2.95711e-08
3.4897e-07
4.06153e-08
4.92452e-08
3.62788e-07
1.63735e-07
-8.72529e-08
-1.60012e-07
1.80547e-07
-9.77419e-08
2.03924e-07
-9.69325e-08
2.30811e-07
-8.70968e-08
2.56899e-07
-5.96362e-08
2.69588e-07
-1.73084e-08
2.83078e-07
2.71262e-09
3.0064e-07
1.20103e-08
3.1817e-07
2.30868e-08
3.34403e-08
3.33975e-07
1.96963e-07
-6.36547e-08
-2.2055e-07
2.00499e-07
-1.01279e-07
2.13943e-07
-1.10377e-07
2.2431e-07
-9.7463e-08
2.09918e-07
-4.47806e-08
1.7886e-07
1.40283e-08
1.63435e-07
1.81413e-08
1.65251e-07
1.0194e-08
1.86194e-07
2.14484e-09
-6.29381e-09
2.12485e-07
1.9746e-07
-2.01147e-08
-2.40979e-07
1.78535e-07
-8.23594e-08
1.70667e-07
-1.02509e-07
1.31895e-07
-6.1993e-08
7.76279e-08
7.98954e-09
6.30699e-08
2.72284e-08
5.61278e-08
2.46218e-08
7.12649e-08
-1.67803e-09
1.09591e-07
-3.64392e-08
-4.75278e-08
1.50478e-07
1.97517e-07
5.66746e-08
-2.74279e-07
1.41947e-07
-2.68153e-08
1.22679e-07
-8.32454e-08
7.99339e-08
-2.94738e-08
5.60021e-08
3.07209e-08
6.15452e-08
3.02589e-08
7.66703e-08
1.2143e-08
9.74363e-08
-2.10611e-08
1.38776e-07
-7.78944e-08
-8.85023e-08
1.79275e-07
3.39508e-07
1.36495e-07
-4.18685e-07
2.1792e-07
9.48002e-08
1.13394e-07
2.03955e-08
7.73063e-08
-6.21001e-09
9.06016e-08
1.63961e-08
1.02883e-07
1.69054e-08
1.14639e-07
-5.55089e-10
1.32556e-07
-2.77674e-08
1.47712e-07
-8.16271e-08
-8.13238e-08
1.40065e-07
4.98289e-07
1.65655e-07
-5.15183e-07
3.99361e-07
1.83913e-07
2.62857e-07
1.53234e-07
1.5491e-07
9.55539e-08
1.15685e-07
4.5874e-08
1.10366e-07
2.13267e-08
1.28174e-07
-1.92233e-08
1.45239e-07
-4.56569e-08
1.15618e-07
-4.68102e-08
-4.24736e-08
7.57659e-08
5.63584e-07
1.77924e-07
-5.63334e-07
5.25305e-07
2.21081e-07
3.92332e-07
2.56587e-07
2.55749e-07
2.06991e-07
1.67673e-07
1.31739e-07
1.41282e-07
4.96011e-08
1.12619e-07
2.19181e-09
1.01028e-07
-3.50728e-08
8.74102e-08
-3.05916e-08
-2.15254e-09
4.71728e-08
5.39188e-07
1.96968e-07
-5.57859e-07
5.21801e-07
2.39312e-07
3.76433e-07
3.14019e-07
2.58379e-07
2.39034e-07
2.13753e-07
1.83884e-07
1.79414e-07
8.38329e-08
1.58878e-07
2.23637e-08
1.26594e-07
-5.8812e-09
1.0324e-07
-7.42427e-09
1.0066e-08
9.10993e-08
4.27297e-07
2.36857e-07
-4.67184e-07
3.43803e-07
3.11114e-07
1.90011e-07
2.59128e-07
1.69245e-07
2.57066e-07
1.5607e-07
1.89963e-07
1.47068e-07
9.7854e-08
1.29447e-07
3.94074e-08
1.09552e-07
1.31388e-08
8.99303e-08
1.17149e-08
1.93848e-08
8.06191e-08
1.17817e-07
2.05677e-07
-2.02304e-07
6.1912e-08
2.20743e-07
7.04608e-08
2.48287e-07
9.55213e-08
2.31475e-07
1.14418e-07
1.70725e-07
1.40902e-07
8.39207e-08
1.46277e-07
5.15934e-08
1.26438e-07
3.29943e-08
1.04992e-07
3.31681e-08
4.59317e-08
7.84509e-08
-1.46708e-08
2.03454e-07
-7.60109e-09
-1.35217e-08
2.18251e-07
2.27823e-08
2.11547e-07
8.43763e-08
1.69675e-07
1.16231e-07
1.38676e-07
1.67601e-07
8.71139e-08
1.95444e-07
6.37555e-08
1.69451e-07
5.9061e-08
1.36055e-07
6.65698e-08
7.63197e-08
1.05669e-07
-3.97111e-08
2.06664e-07
3.57187e-08
-2.89772e-08
2.07081e-07
5.57828e-09
1.76785e-07
7.17142e-08
1.03349e-07
1.12167e-07
9.80166e-08
1.86161e-07
1.08606e-07
1.71326e-07
9.32936e-08
1.37416e-07
9.30033e-08
1.04846e-07
9.91413e-08
9.76087e-08
8.35576e-08
-1.2171e-08
1.93924e-07
2.46166e-08
8.42051e-09
2.37591e-07
1.92554e-08
2.35623e-07
2.84093e-08
9.39892e-08
6.94968e-08
1.03916e-07
7.59751e-08
1.25261e-07
5.33263e-08
1.15983e-07
3.68561e-08
1.09475e-07
2.81964e-08
1.07801e-07
1.04727e-07
2.10784e-08
2.19134e-08
2.34971e-07
-4.5661e-09
4.52332e-08
2.84461e-07
5.26152e-08
2.57916e-07
9.20544e-09
2.0065e-07
-2.01229e-08
1.66993e-07
-3.1588e-08
1.31613e-07
-4.23875e-08
1.21307e-07
-4.4434e-08
1.11297e-07
-4.0353e-08
1.03722e-07
1.02631e-07
-3.82562e-08
5.78932e-08
2.71094e-07
-4.97715e-08
4.9144e-08
2.95954e-07
4.18734e-08
2.65397e-07
1.04405e-08
2.34803e-07
-2.0432e-08
2.01631e-07
-4.66925e-08
1.6692e-07
-5.95788e-08
1.32734e-07
-6.78942e-08
1.1521e-07
-6.96433e-08
1.03668e-07
1.02386e-07
-6.92536e-08
1.00992e-07
2.32724e-07
-7.46854e-08
9.83713e-08
2.81146e-07
8.54603e-08
2.78958e-07
6.69993e-08
2.53032e-07
4.94507e-08
2.18771e-07
3.67731e-08
1.80493e-07
1.76119e-08
1.55142e-07
-4.02169e-09
1.37446e-07
-2.72686e-08
1.27704e-07
1.21456e-07
-4.76593e-08
1.30358e-07
1.90708e-07
-8.49353e-08
1.92788e-07
1.9031e-07
2.07305e-07
2.01499e-07
1.93634e-07
2.29579e-07
1.85712e-07
2.26869e-07
1.65551e-07
2.00786e-07
1.43656e-07
1.7693e-07
1.18859e-07
1.62896e-07
9.16756e-08
1.55139e-07
1.50418e-07
6.229e-08
1.50683e-07
1.56108e-07
-1.04241e-07
1.85656e-07
1.65731e-07
2.32368e-07
1.67267e-07
2.69172e-07
1.72446e-07
2.75338e-07
1.70103e-07
2.5049e-07
1.80615e-07
2.29099e-07
1.98242e-07
2.11877e-07
1.80265e-07
1.96573e-07
1.70605e-07
1.64888e-07
1.81661e-07
1.24292e-07
1.02242e-07
-5.9813e-08
1.6613e-07
1.40005e-07
2.14295e-07
1.28933e-07
2.42762e-07
1.55012e-07
2.6649e-07
1.56768e-07
2.80696e-07
1.68054e-07
2.99814e-07
1.69583e-07
2.90702e-07
1.91665e-07
2.71385e-07
1.91032e-07
1.87068e-07
2.50372e-07
3.55524e-08
2.4496e-08
3.82079e-08
9.19464e-08
9.317e-08
1.36114e-07
1.07787e-07
2.00282e-07
1.15856e-07
2.26146e-07
1.32549e-07
2.29124e-07
1.64893e-07
2.39533e-07
1.69415e-07
2.80818e-07
1.71927e-07
2.61004e-07
2.15157e-07
2.06282e-07
2.41869e-07
-1.07627e-07
-1.60039e-08
1.48634e-07
-2.2009e-08
8.43731e-09
5.95328e-08
2.83122e-08
1.106e-07
6.0908e-08
1.22727e-07
1.08621e-07
1.36289e-07
1.61573e-07
1.57124e-07
1.56979e-07
1.72773e-07
1.65235e-07
1.93199e-07
2.11368e-07
2.17421e-07
1.82114e-07
-2.35309e-07
-5.09266e-08
2.70958e-07
-1.78849e-07
-4.71907e-08
-1.26331e-07
-2.37116e-08
-7.4562e-08
1.07272e-08
1.35862e-09
5.65217e-08
4.70073e-08
1.2813e-07
5.30431e-08
1.49469e-07
5.6704e-08
1.71458e-07
5.58897e-08
2.23877e-07
2.4066e-07
3.23768e-08
-2.85518e-07
-5.64385e-08
2.98552e-07
-2.6192e-07
-5.11499e-08
-2.67776e-07
-2.70921e-08
-2.70219e-07
-8.26064e-09
-2.40322e-07
2.50854e-08
-1.3804e-07
1.03788e-07
-1.31353e-07
1.40389e-07
-1.12554e-07
1.51184e-07
-1.21733e-07
1.78864e-07
2.26512e-07
-1.07584e-07
-3.80227e-07
-8.45175e-08
4.07067e-07
-3.68415e-07
-6.42011e-08
-3.67314e-07
-2.9916e-08
-3.79395e-07
-1.11123e-09
-3.93902e-07
3.33389e-08
-3.62794e-07
7.1301e-08
-3.14813e-07
9.03859e-08
-2.70322e-07
1.03737e-07
-2.87695e-07
1.07549e-07
1.74589e-07
-2.83741e-07
-5.56212e-07
-1.12351e-07
5.83089e-07
-5.28895e-07
-9.32408e-08
-5.21116e-07
-3.99476e-08
-5.11484e-07
-1.25804e-08
-4.78402e-07
-1.12137e-09
-4.24088e-07
1.56078e-08
-3.83386e-07
4.8306e-08
-3.41842e-07
6.01705e-08
-3.10088e-07
6.17384e-08
6.86394e-08
-3.54327e-07
-7.6791e-07
-1.32301e-07
7.94586e-07
-8.02576e-07
-1.08495e-07
-8.08534e-07
-7.34999e-08
-6.34586e-07
-5.9585e-08
-4.87995e-07
-4.19464e-08
-4.69729e-07
-3.29092e-08
-5.27195e-07
-6.84042e-09
-4.62968e-07
1.9155e-09
-4.03588e-07
6.00824e-09
1.29936e-08
-3.7028e-07
-8.6899e-07
-1.2736e-07
8.60674e-07
-8.47952e-07
-1.30696e-07
-8.00355e-07
-1.22617e-07
-7.55712e-07
-1.04304e-07
-7.11051e-07
-8.71527e-08
-6.79321e-07
-6.62535e-08
-6.14434e-07
-7.21185e-08
-5.37027e-07
-7.57574e-08
-4.6281e-07
-6.83667e-08
-4.09875e-08
-4.08795e-07
-6.9974e-07
-1.55223e-07
7.20457e-07
-6.87414e-07
-1.51496e-07
-7.5296e-07
-1.38711e-07
-7.34363e-07
-1.39234e-07
-6.55463e-07
-1.37354e-07
-6.18317e-07
-1.09037e-07
-6.10552e-07
-1.04828e-07
-5.50858e-07
-1.39194e-07
-4.74422e-07
-1.45031e-07
-9.94991e-08
-4.15157e-07
-6.6871e-07
-1.83047e-07
6.8806e-07
-6.51583e-07
-1.76788e-07
-6.09719e-07
-1.89085e-07
-5.58862e-07
-2.08774e-07
-5.22654e-07
-2.06276e-07
-4.56992e-07
-2.0172e-07
-4.31673e-07
-1.79764e-07
-4.42926e-07
-1.71056e-07
-4.08203e-07
-1.5921e-07
-1.19557e-07
-3.50148e-07
-6.33284e-07
-2.25762e-07
7.14927e-07
-5.43775e-07
-2.27125e-07
-6.6487e-07
-2.46608e-07
-6.27302e-07
-2.54266e-07
-5.78472e-07
-2.54198e-07
-5.29438e-07
-2.50141e-07
-4.60007e-07
-2.44275e-07
-3.76877e-07
-2.35598e-07
-3.29988e-07
-2.12926e-07
-1.72462e-07
-2.83965e-07
-5.99322e-07
-2.36888e-07
6.12636e-07
-5.71559e-07
-2.53304e-07
-5.51557e-07
-2.65387e-07
-5.32313e-07
-2.72602e-07
-5.02817e-07
-2.83082e-07
-4.51468e-07
-3.01287e-07
-3.83852e-07
-3.11726e-07
-3.04089e-07
-3.15167e-07
-2.32341e-07
-2.9923e-07
-2.53064e-07
-1.64804e-07
-3.71311e-07
-1.89678e-07
3.44566e-07
-4.00416e-07
-2.07734e-07
-4.08851e-07
-2.45378e-07
-4.14115e-07
-2.57908e-07
-4.19558e-07
-2.73175e-07
-4.1999e-07
-2.99929e-07
-3.98003e-07
-3.33518e-07
-3.46464e-07
-3.66651e-07
-2.68757e-07
-3.76887e-07
-3.56109e-07
-1.65661e-07
-5.65433e-08
-2.03238e-07
8.34057e-08
-5.14284e-08
-2.0135e-07
-5.58118e-08
-2.22804e-07
-6.38498e-08
-2.11408e-07
-8.32378e-08
-2.04846e-07
-1.34972e-07
-2.03809e-07
-1.89496e-07
-2.63678e-07
-2.19129e-07
-3.36888e-07
-2.02988e-07
-3.92973e-07
-4.09249e-07
-1.49801e-07
1.80898e-08
-2.6914e-07
6.06913e-09
3.34624e-08
-2.80179e-07
5.55601e-08
-2.53006e-07
6.43291e-08
-2.21204e-07
7.32286e-08
-2.14443e-07
7.63918e-08
-2.07865e-07
8.7606e-08
-2.16546e-07
7.22484e-08
-2.98373e-07
6.32043e-08
-3.8382e-07
-4.10021e-07
6.40278e-08
1.20578e-07
-2.85547e-07
-9.06653e-08
1.46184e-07
-3.04591e-07
1.40977e-07
-3.06537e-07
1.37744e-07
-2.78043e-07
1.41468e-07
-2.19194e-07
1.47422e-07
-2.14566e-07
1.53807e-07
-2.23985e-07
2.16455e-07
-3.12122e-07
2.53866e-07
-4.20883e-07
-4.31638e-07
2.75589e-07
2.32912e-07
-2.93227e-07
-1.4696e-07
2.47132e-07
-3.15911e-07
2.40711e-07
-2.97337e-07
2.22322e-07
-2.76279e-07
1.86965e-07
-2.31378e-07
2.00464e-07
-2.29119e-07
2.47423e-07
-2.71965e-07
3.43125e-07
-3.84722e-07
3.75069e-07
-4.52091e-07
-4.47141e-07
3.90921e-07
3.04478e-07
-2.92562e-07
-2.31893e-07
2.91201e-07
-2.99794e-07
2.70268e-07
-2.73599e-07
2.50979e-07
-2.5415e-07
1.95239e-07
-2.25162e-07
2.38918e-07
-2.75271e-07
3.69542e-07
-4.04871e-07
4.53399e-07
-4.67889e-07
4.79264e-07
-4.75779e-07
-4.39603e-07
4.72462e-07
3.57523e-07
-2.57017e-07
-3.89752e-07
3.13441e-07
-2.53086e-07
2.60543e-07
-2.17865e-07
2.20578e-07
-2.15969e-07
2.23608e-07
-2.7225e-07
3.39523e-07
-4.12741e-07
4.46742e-07
-5.1177e-07
4.94359e-07
-5.15799e-07
4.98214e-07
-4.78943e-07
-3.4019e-07
4.10848e-07
3.17219e-07
-1.98326e-07
-3.72736e-07
2.39006e-07
-1.71547e-07
1.60665e-07
-1.4255e-07
1.39891e-07
-2.02371e-07
2.54595e-07
-3.93255e-07
3.75784e-07
-5.33666e-07
4.38895e-07
-5.74996e-07
4.22987e-07
-4.80044e-07
2.57853e-07
-2.31552e-07
-1.35808e-07
1.34513e-07
2.46287e-07
-1.049e-07
-3.36248e-07
1.33036e-07
-6.95892e-08
6.791e-08
-7.76458e-08
1.42873e-07
-2.70139e-07
2.47146e-07
-4.92568e-07
2.94281e-07
-5.80858e-07
2.69206e-07
-5.49658e-07
1.52441e-07
-2.5073e-07
6.33554e-09
-1.19049e-07
-6.80577e-08
-7.98654e-08
1.13196e-07
-1.18749e-08
-2.18382e-07
6.1083e-08
-1.87078e-08
4.65784e-08
-5.97564e-08
1.4811e-07
-3.3988e-07
1.90554e-07
-5.27057e-07
1.74591e-07
-5.65206e-07
9.8502e-08
-3.99738e-07
-3.96899e-08
-1.60125e-07
-1.23676e-07
-7.74351e-08
-2.32683e-08
-1.87524e-07
6.51967e-08
6.83437e-08
-1.50109e-07
3.78095e-08
1.51236e-08
4.62674e-08
-6.37791e-08
1.05405e-07
-4.02485e-07
1.19248e-07
-5.36349e-07
1.1814e-07
-5.64392e-07
6.40398e-08
-3.42703e-07
-1.09766e-07
-4.25358e-08
-1.57556e-07
-4.23361e-08
-7.84562e-09
-1.8511e-07
8.34148e-08
1.70025e-08
-3.34054e-08
6.45898e-08
4.0032e-08
3.47814e-08
-1.60081e-08
5.94983e-08
-4.32595e-07
4.0353e-08
-5.18407e-07
8.73469e-09
-5.33033e-07
-4.3438e-08
-3.44609e-07
-2.24993e-07
6.90226e-08
-2.43396e-07
-2.99386e-08
-4.33262e-08
-2.12964e-07
-3.33654e-08
-6.56937e-08
1.36917e-07
-1.74531e-08
4.11895e-08
6.74263e-09
-4.11012e-08
3.07059e-08
-4.59378e-07
2.2733e-08
-5.10455e-07
1.17587e-08
-5.22302e-07
4.93923e-08
-4.33698e-07
-9.07986e-09
6.4724e-08
-7.53105e-08
1.09841e-08
2.13828e-09
-1.52397e-07
-9.45325e-08
-2.41789e-08
4.34661e-08
-3.62539e-08
5.17685e-10
2.40675e-08
-1.07338e-07
2.03013e-08
-4.55776e-07
4.53258e-09
-4.94633e-07
-2.0031e-08
-4.97788e-07
-1.03387e-08
-4.53983e-07
1.18565e-08
-5.20655e-08
2.19408e-08
6.95794e-09
1.53924e-09
-6.62209e-10
-1.6753e-08
-3.61229e-11
2.69053e-10
-1.84189e-09
-5.41313e-10
3.02872e-08
-1.28128e-07
2.56278e-08
-4.48581e-07
-6.09808e-09
-4.62878e-07
-4.2658e-08
-4.61186e-07
-6.48219e-08
-4.27427e-07
0
-1.19828e-07
3.19955e-10
5.22556e-09
2.05467e-11
1.46372e-09
3.75367e-12
-3.47821e-12
-4.40892e-11
1.23859e-09
-1.78758e-09
6.48141e-08
-1.77943e-07
3.51006e-08
-4.17153e-07
-1.11067e-08
-4.16658e-07
-5.56029e-08
-4.16702e-07
-6.80437e-08
-4.09256e-07
-5.07552e-09
-1.58005e-07
8.33248e-13
-1.6437e-10
7.50591e-11
5.185e-11
8.54636e-12
-1.66942e-11
-4.3554e-12
1.53538e-08
-1.71405e-08
9.20766e-08
-2.47609e-07
3.73744e-08
-3.62442e-07
-5.31242e-09
-3.73972e-07
-5.10479e-08
-3.7097e-07
-9.74958e-08
-3.62904e-07
-1.67512e-08
-2.43618e-07
4.95454e-11
-1.7022e-08
1.13812e-10
0
1.20244e-09
-1.20442e-09
-1.31297e-11
5.76384e-08
-7.35505e-08
1.03117e-07
-2.93929e-07
5.95225e-08
-3.18839e-07
3.13812e-09
-3.17587e-07
-5.41997e-08
-3.13631e-07
-1.00365e-07
-3.16742e-07
-5.39068e-08
-2.93055e-07
-1.08505e-10
-7.20008e-08
2.57241e-12
0
2.85144e-08
-2.97098e-08
-7.43314e-12
1.43077e-07
-1.88065e-07
1.07073e-07
-2.57953e-07
5.33149e-08
-2.65081e-07
8.51513e-10
-2.65124e-07
-4.83552e-08
-2.64424e-07
-1.05166e-07
-2.5993e-07
-1.43268e-07
-2.54881e-07
-2.91002e-08
-1.85915e-07
-2.90428e-08
-5.02099e-11
9.17458e-08
-3.35306e-12
9.99797e-08
5.90778e-08
2.1283e-08
-1.00801e-08
-3.83894e-08
-6.6468e-08
-1.00684e-07
-9.08941e-08
-3.0449e-11
1.7561e-08
3.33805e-09
1.17822e-08
5.76881e-09
4.78264e-09
7.00249e-09
-4.31203e-09
9.09496e-09
-1.96121e-08
1.53647e-08