/*--------------------------------*- C++ -*----------------------------------*\
  =========                 |
  \\      /  F ield         | OpenFOAM: The Open Source CFD Toolbox
   \\    /   O peration     | Website:  https://openfoam.org
    \\  /    A nd           | Version:  8
     \\/     M anipulation  |
\*---------------------------------------------------------------------------*/
FoamFile
{
    version     2.0;
    format      ascii;
    class       volScalarField;
    location    "8.6";
    object      alpha.water;
}
// * * * * * * * * * * * * * * * * * * * * * * * * * * * * * * * * * * * * * //

dimensions      [0 0 0 0 0 0 0];

internalField   nonuniform List<scalar> 
9150
(
1
1
1
1
1
1
1
1
1
1
1
1
1
1
1
1
1
1
1
1
1
1
1
1
1
1
1
1
1
1
1
1
1
1
1
1
1
1
1
1
1
1
1
1
1
1
1
1
1
1
1
1
1
1
0.999999
0.999999
1
1
0.999999
0.999999
1
1
1
1
1
1
1
1
0.999999
0.999999
1
1
1
1
1
1
1
1
1
1
1
1
1
1
1
1
1
1
1
1
1
1
1
1
1
1
1
1
1
1
1
1
1
1
1
0.999999
1
1
1
1
1
0.999999
1
1
1
1
1
1
1
1
1
1
1
1
1
0.999999
1
1
1
1
0.999999
1
0.999999
0.999999
0.999999
0.999999
0.999999
1
1
1
1
1
1
0.999999
0.999999
0.999999
0.999999
0.999999
0.999999
0.999999
0.998238
0.998236
0.991775
0.991085
0.991086
0.996981
0.998766
0.998766
0.998766
0.998766
0.998241
0.996318
0.991087
0.991086
0.991086
0.997062
0.998766
0.998766
0.998766
0.998766
0.998242
0.998242
0.992701
0.991086
0.991086
0.991086
0.993579
0.998293
0.998766
0.998585
0.998242
0.998242
0.998242
0.992076
0.991086
0.991086
0.991086
0.996641
0.998765
0.997019
0.998242
0.998242
0.998242
0.996086
0.991086
0.991086
0.991086
0.99739
0.998447
0.996059
0.998241
0.998242
0.998242
0.995681
0.991086
0.991086
0.991676
0.998414
0.997814
0.996059
0.997822
0.998242
0.998242
0.991919
0.991114
0.993873
0.996739
0.998742
0.997876
0.996059
0.997858
0.99736
0.993672
0.991927
0.995999
0.998726
0.998742
0.998742
0.998643
0.996543
0.99775
0.994547
0.992959
0.996189
0.998746
0.998743
0.998742
0.998742
0.998742
0.998738
0.995544
0.998289
0.997109
0.998747
0.998747
0.997732
0.997901
0.998742
0.998742
0.998742
0.995963
0.998747
0.998747
0.998747
0.998748
0.996501
0.996476
0.998494
0.998742
0.998742
0.998654
0.998748
0.998748
0.998748
0.998748
0.996722
0.996476
0.996476
0.99827
0.998742
0.998748
0.998748
0.998748
0.998748
0.998748
0.998748
0.997092
0.996488
0.996491
0.996951
0.998748
0.998748
0.995884
0.995676
0.998741
0.998749
0.99875
0.99821
0.996504
0.996521
0.998747
0.997256
0.992714
0.992712
0.996245
0.99875
0.998751
0.998752
0.998701
0.996536
0.992581
0.992935
0.992712
0.992712
0.993134
0.99866
0.998752
0.998752
0.998753
0.998753
0.998064
0.992897
0.992712
0.992712
0.995843
0.998751
0.998752
0.998753
0.998753
0.998753
0.998312
0.998308
0.997103
0.99785
0.998751
0.998752
0.998753
0.998753
0.998753
0.998753
0.9979
0.994651
0.99518
0.997666
0.998752
0.998752
0.998752
0.996171
0.98832
0.996339
0.994762
0.98214
0.981877
0.981866
0.981926
0.980459
0.977409
0.974825
0.974965
0.975124
0.9987
0.9987
0.99704
0.994296
0.990766
0.985767
0.974825
0.974825
0.975399
0.975186
0.9987
0.9987
0.9987
0.998697
0.998681
0.997798
0.9962
0.994901
0.9953
0.995288
0.9987
0.9987
0.998451
0.996507
0.996865
0.982927
0.982032
0.982021
0.982032
0.982055
0.9987
0.998615
0.988633
0.983431
0.983427
0.994062
0.998745
0.998743
0.998722
0.99572
0.998701
0.996232
0.983755
0.983424
0.994918
0.998747
0.998747
0.998745
0.998655
0.973332
0.998703
0.995945
0.983734
0.987905
0.998747
0.998747
0.998747
0.998747
0.998747
0.991611
0.998709
0.998061
0.990371
0.993653
0.998747
0.998747
0.998747
0.998747
0.998747
0.998747
0.99872
0.998726
0.99873
0.998742
0.998747
0.998278
0.998053
0.998747
0.998747
0.998746
0.998726
0.998728
0.998736
0.99874
0.998742
0.998739
0.985321
0.92302
0.997476
0.998408
0.993876
0.998726
0.998727
0.996946
0.997606
0.995486
0.912298
0.893987
0.919343
0.998369
0.905212
0.933251
0.906157
0.899683
0.900933
0.907568
0.893983
0.893996
0.931847
0.998071
0.892533
0.892735
0.893244
0.893567
0.893568
0.89357
0.896557
0.9063
0.991158
0.998784
0.892526
0.892533
0.917442
0.923206
0.933078
0.959694
0.98334
0.990561
0.99872
0.998784
0.936955
0.976617
0.995006
0.996948
0.997581
0.996433
0.995161
0.998783
0.998784
0.998784
0.998442
0.998763
0.998764
0.998667
0.998579
0.996389
0.994904
0.995175
0.998784
0.998784
0.998763
0.998772
0.998772
0.997493
0.996812
0.996329
0.996634
0.998235
0.994566
0.998784
0.997675
0.998772
0.998772
0.998271
0.996329
0.996329
0.998085
0.998805
0.991467
0.965489
0.994189
0.997252
0.998772
0.998779
0.997404
0.996329
0.998438
0.998807
0.983143
0.954396
0.997709
0.997076
0.997918
0.998798
0.998806
0.997965
0.998807
0.998808
0.990627
0.957931
0.998777
0.998802
0.998382
0.998808
0.998808
0.998807
0.998808
0.998809
0.998025
0.991922
0.998804
0.998807
0.998808
0.998808
0.998808
0.998808
0.998809
0.998808
0.998808
0.998805
0.998807
0.998808
0.998808
0.998808
0.998808
0.998808
0.998808
0.998809
0.998809
0.998807
0.991842
0.991599
0.975179
0.899873
0.937973
0.998702
0.99881
0.998809
0.998807
0.998806
0.903633
0.897331
0.896576
0.89626
0.89594
0.895935
0.909535
0.958112
0.998753
0.998805
0.98697
0.977706
0.9466
0.89594
0.895935
0.895935
0.895935
0.896137
0.896664
0.963325
0.961229
0.969366
0.963366
0.955131
0.954529
0.957591
0.896137
0.896615
0.896847
0.9302
0.994987
0.969617
0.960097
0.959989
0.953915
0.959891
0.975374
0.966374
0.960826
0.978815
0.997403
0.997404
0.997404
0.997404
0.997403
0.98245
0.975627
0.993492
0.99736
0.997379
0.997403
0.997404
0.997404
0.997404
0.997403
0.997403
0.996678
0.997265
0.997387
0.997388
0.997403
0.997404
0.997404
0.997404
0.997403
0.997393
0.997386
0.997387
0.997388
0.997388
0.997387
0.997403
0.997404
0.997403
0.995592
0.996873
0.997386
0.997387
0.997387
0.98735
0.997369
0.9974
0.997403
0.989993
0.914251
0.914335
0.914645
0.975156
0.99614
0.996026
0.997309
0.997386
0.9974
0.899802
0.869775
0.921978
0.979864
0.991222
0.995513
0.995858
0.99652
0.997309
0.997386
0.887541
0.869583
0.869437
0.869251
0.8723
0.969496
0.995682
0.960174
0.984257
0.997088
0.993053
0.924049
0.869476
0.869044
0.86921
0.90976
0.965053
0.970999
0.978219
0.939785
0.983017
0.981629
0.98055
0.97771
0.869149
0.905595
0.996421
0.97637
0.975774
0.951788
0.681408
0.899137
0.982442
0.983196
0.973767
0.978526
0.996914
0.97648
0.976349
0.777534
0.585881
0.62932
0.896631
0.983852
0.98487
0.992148
0.997047
0.907738
0.725465
0.584755
0.582756
0.582682
0.656252
0.953369
0.996957
0.997047
0.997054
0.596991
0.583718
0.582571
0.582326
0.582318
0.591537
0.931924
0.996868
0.997054
0.997064
0.583028
0.582571
0.582326
0.582314
0.582326
0.722452
0.986136
0.997013
0.997064
0.997066
0.582625
0.591582
0.634008
0.582326
0.628072
0.931408
0.996999
0.997064
0.997066
0.997066
0.66635
0.87016
0.953994
0.783466
0.780422
0.91808
0.984051
0.997057
0.997064
0.997066
0.863513
0.984581
0.988119
0.988131
0.983484
0.930957
0.950475
0.981333
0.994936
0.996812
0.708882
0.986104
0.988978
0.989867
0.991244
0.991896
0.980855
0.980666
0.982985
0.989595
0.58661
0.661163
0.846374
0.987514
0.992367
0.992706
0.99323
0.993442
0.990787
0.987996
0.598131
0.607699
0.615609
0.655695
0.762516
0.912425
0.993906
0.994339
0.994583
0.988189
0.835051
0.621335
0.624745
0.630813
0.634543
0.639913
0.752291
0.981237
0.995067
0.995473
0.927271
0.822379
0.786966
0.664568
0.639913
0.639091
0.634478
0.778553
0.991463
0.997195
0.992898
0.992431
0.986512
0.943381
0.66921
0.634478
0.631469
0.634478
0.88224
0.997097
0.992496
0.990087
0.988215
0.984982
0.809086
0.699109
0.630611
0.631469
0.833026
0.996908
0.860766
0.828549
0.851914
0.913644
0.897197
0.733001
0.630465
0.630611
0.834332
0.997331
0.631512
0.631512
0.630759
0.631692
0.704828
0.629164
0.629741
0.630694
0.707549
0.98514
0.631519
0.630759
0.629855
0.629434
0.629164
0.629164
0.629164
0.629741
0.637564
0.907623
0.897791
0.896676
0.948192
0.850765
0.632333
0.640971
0.895772
0.941177
0.920146
0.969067
0.970996
0.979518
0.984601
0.989053
0.990916
0.992094
0.99436
0.994585
0.994805
0.994903
0.742247
0.744721
0.834786
0.970417
0.915181
0.886991
0.977561
0.994106
0.994586
0.994404
0.744721
0.751952
0.757246
0.763785
0.792296
0.793604
0.809858
0.903916
0.910712
0.86465
0.946352
0.77964
0.889431
0.987934
0.988312
0.989147
0.985668
0.818062
0.797151
0.796021
0.98374
0.985869
0.987266
0.988312
0.989147
0.989487
0.990151
0.991048
0.949277
0.85838
0.90721
0.947128
0.971419
0.979478
0.986115
0.989805
0.991048
0.991215
0.991217
0.991217
0.736063
0.746291
0.776776
0.793512
0.826531
0.888782
0.979069
0.991121
0.991215
0.991219
0.871623
0.837281
0.76184
0.757033
0.756794
0.756978
0.805321
0.967717
0.991137
0.991213
0.956901
0.976008
0.953037
0.802296
0.757033
0.756716
0.757067
0.913748
0.990663
0.991135
0.89197
0.978887
0.978887
0.978922
0.790552
0.757067
0.757907
0.927655
0.989356
0.990663
0.883082
0.978569
0.978952
0.978569
0.841725
0.759849
0.909306
0.983121
0.985114
0.989357
0.979276
0.978016
0.978571
0.961461
0.837305
0.928582
0.992506
0.988108
0.983121
0.971324
0.980837
0.979269
0.918592
0.900554
0.976406
0.99578
0.994737
0.977722
0.854855
0.618647
0.980837
0.942279
0.890726
0.900275
0.991311
0.996452
0.99578
0.664599
0.517299
0.521042
0.953906
0.891264
0.890019
0.895673
0.979178
0.997415
0.874012
0.515219
0.513699
0.741909
0.711811
0.891199
0.891434
0.845297
0.9738
0.997983
0.688498
0.513546
0.864349
0.938274
0.676741
0.797967
0.776349
0.844023
0.996532
0.998057
0.670829
0.509951
0.969469
0.974627
0.795824
0.796359
0.357476
0.892017
0.998562
0.998213
0.863962
0.335995
0.477446
0.430173
0.299518
0.439704
0.368455
0.912592
0.999005
0.998469
0.922413
0.388222
0.163752
0.162497
0.0328722
0.226506
0.280827
0.946097
0.999426
0.999078
0.944048
0.362714
0.00553693
0.00240299
3.54054e-05
4.19047e-05
0.335901
0.980496
0.999743
0.999691
0.965538
0.26793
0.00174396
0.000587745
2.64991e-05
3.54054e-05
0.607017
0.999775
0.999879
0.999902
0.99929
0.588025
0.000360503
0.000142568
7.25932e-06
0.0568611
0.857246
0.999891
0.99999
0.99999
0.999907
0.873571
0.0644104
0.000106092
4.88721e-06
0.556906
0.998577
0.999985
1
0.999999
0.999987
0.998152
0.548979
5.56521e-05
0.289323
0.960624
1
1
1
1
1
1
0.959718
0.289624
0.99842
0.997854
0.997876
0.998734
0.997084
0.994711
0.997152
0.998769
0.998772
0.998738
0.998734
0.998588
0.997191
0.996021
0.996836
0.998618
0.998618
0.998592
0.99859
0.998603
0.998603
0.998747
0.99878
0.99878
0.99878
0.99878
0.99878
0.99878
0.99878
0.99878
0.995615
0.989892
0.989929
0.996337
0.998439
0.998439
0.99844
0.998439
0.99662
0.994314
0.99835
0.997857
0.998739
0.998739
0.99831
0.99612
0.998769
0.998772
0.998784
0.998644
0.996498
0.987673
0.985191
0.985178
0.99192
0.998014
0.992917
0.989391
0.988012
0.98775
0.987213
0.987427
0.991575
0.996528
0.99878
0.99878
0.99878
0.99878
0.99878
0.995886
0.989894
0.989896
0.990022
0.997954
0.998439
0.99844
0.99844
0.99844
0.998439
0.993678
0.996278
0.998739
0.998739
0.998739
0.998739
0.997137
0.995569
0.996964
0.998807
0.993573
0.985349
0.985096
0.986571
0.991682
0.991724
0.980146
0.979551
0.979539
0.97957
0.979917
0.988332
0.978564
0.966178
0.966241
0.971191
0.977786
0.97491
0.976564
0.991301
0.994181
0.997963
0.998083
0.998413
0.998439
0.998439
0.998439
0.99844
0.995735
0.996896
0.996142
0.996073
0.998492
0.998739
0.998739
0.998737
0.983553
0.957535
0.979499
0.998809
0.998807
0.997549
0.984918
0.979812
0.979778
0.981742
0.997402
0.997406
0.997373
0.997856
0.998655
0.998625
0.979911
0.947176
0.947033
0.947033
0.947033
0.947061
0.947214
0.964558
0.990063
0.992941
0.995034
0.998065
0.998439
0.998439
0.998439
0.991617
0.988726
0.988766
0.995926
0.996064
0.99755
0.998739
0.998739
0.994745
0.959242
0.957535
0.969002
0.99881
0.998809
0.998805
0.996103
0.987056
0.99173
0.997278
0.997346
0.996616
0.996965
0.998655
0.998658
0.998659
0.998558
0.994673
0.961066
0.947033
0.947117
0.965592
0.964064
0.953948
0.952759
0.947446
0.953426
0.975475
0.998435
0.998439
0.994254
0.987248
0.988808
0.994054
0.996263
0.996059
0.997422
0.99874
0.998739
0.994338
0.957373
0.957418
0.977039
0.99881
0.99881
0.998809
0.998808
0.998804
0.998793
0.994262
0.981165
0.979033
0.991164
0.998659
0.998661
0.998669
0.998674
0.996576
0.99635
0.986038
0.980201
0.99108
0.991765
0.975093
0.942397
0.942397
0.942397
0.945192
0.990591
0.995762
0.994041
0.987098
0.996242
0.996263
0.99626
0.996059
0.998535
0.998741
0.99874
0.989122
0.945394
0.963346
0.996413
0.99881
0.99881
0.99881
0.998809
0.998808
0.998804
0.998787
0.998423
0.978192
0.968576
0.998584
0.998669
0.998678
0.998683
0.998685
0.994844
0.964827
0.93574
0.944537
0.993155
0.995848
0.980821
0.942397
0.942406
0.942483
0.944975
0.97078
0.991648
0.985584
0.96115
0.983038
0.993318
0.996187
0.998741
0.998742
0.998741
0.988434
0.945116
0.96916
0.99881
0.99881
0.99881
0.99881
0.998809
0.998717
0.946448
0.901127
0.966873
0.948988
0.935219
0.984154
0.997258
0.998683
0.99869
0.998696
0.995713
0.9944
0.934565
0.90572
0.926862
0.996583
0.996676
0.991493
0.957848
0.979521
0.997215
0.997173
0.994031
0.957205
0.956777
0.956777
0.957003
0.998715
0.998742
0.998742
0.997907
0.986302
0.94498
0.976865
0.99881
0.99881
0.998795
0.998808
0.998807
0.998451
0.941201
0.887073
0.886911
0.886905
0.886904
0.886894
0.923693
0.993083
0.998696
0.998696
0.998696
0.998596
0.984226
0.904888
0.904211
0.945861
0.996739
0.996969
0.997182
0.997231
0.997236
0.996926
0.996893
0.99397
0.970952
0.961265
0.967013
0.998742
0.998742
0.998742
0.994043
0.959571
0.944942
0.989021
0.99881
0.99881
0.998785
0.998785
0.998807
0.998807
0.982613
0.933736
0.940871
0.895364
0.886894
0.886884
0.88689
0.903702
0.996985
0.998714
0.996992
0.995518
0.995499
0.954275
0.904211
0.91165
0.996676
0.988872
0.973118
0.997397
0.998715
0.994742
0.991102
0.990692
0.991305
0.994401
0.996045
0.998742
0.998742
0.998742
0.990886
0.944942
0.944941
0.983143
0.99881
0.99881
0.998809
0.998808
0.998808
0.998807
0.998807
0.997577
0.998807
0.998807
0.954757
0.886891
0.886884
0.886891
0.986829
0.998731
0.994536
0.994045
0.995045
0.976116
0.904211
0.917585
0.990621
0.973223
0.957719
0.978611
0.998724
0.998736
0.998734
0.998575
0.997999
0.997865
0.997038
0.998742
0.998742
0.998742
0.996168
0.944941
0.944941
0.945153
0.98882
0.998809
0.998808
0.998808
0.998808
0.998808
0.998808
0.998807
0.998807
0.998807
0.975033
0.888589
0.886891
0.913294
0.994508
0.998829
0.998169
0.994022
0.995024
0.983371
0.907106
0.919325
0.984394
0.970006
0.957719
0.970803
0.998714
0.997101
0.998734
0.995718
0.986265
0.987208
0.993489
0.998742
0.998742
0.998742
0.998743
0.952585
0.944941
0.945016
0.945089
0.962274
0.994209
0.998807
0.998808
0.998808
0.998808
0.998808
0.998807
0.998807
0.998807
0.973998
0.90275
0.98143
0.998831
0.998837
0.998829
0.995838
0.995126
0.96413
0.909605
0.915865
0.972704
0.961331
0.957719
0.969462
0.981981
0.980291
0.998699
0.998418
0.9857
0.965469
0.965804
0.997483
0.998742
0.998743
0.998745
0.977637
0.945019
0.945089
0.945092
0.945124
0.945484
0.968067
0.980711
0.989467
0.998808
0.998808
0.998807
0.998795
0.997855
0.998721
0.998809
0.998831
0.998837
0.998841
0.998537
0.996164
0.989912
0.940201
0.913052
0.972041
0.972637
0.953813
0.962871
0.970146
0.958636
0.9549
0.975176
0.997819
0.963298
0.953346
0.953348
0.998287
0.998743
0.998744
0.998746
0.998751
0.955981
0.945092
0.945124
0.96158
0.97007
0.959698
0.959204
0.958916
0.96487
0.99462
0.998807
0.998801
0.998794
0.995647
0.995554
0.997239
0.998841
0.998846
0.998221
0.99422
0.980953
0.93981
0.967514
0.998704
0.972442
0.953899
0.953811
0.967572
0.95448
0.95448
0.96621
0.979203
0.978305
0.973219
0.953344
0.998744
0.998648
0.998648
0.99875
0.998758
0.993157
0.949436
0.962458
0.996314
0.998727
0.970882
0.958916
0.958916
0.958916
0.989575
0.998791
0.998795
0.998788
0.997645
0.995538
0.996967
0.998846
0.998851
0.998853
0.997203
0.990518
0.950213
0.996081
0.998748
0.994054
0.957146
0.953972
0.954105
0.956175
0.97922
0.998177
0.998942
0.998942
0.998943
0.964318
0.998753
0.998734
0.998648
0.998754
0.998758
0.998758
0.995445
0.997043
0.998765
0.998763
0.998004
0.979895
0.958916
0.98024
0.998624
0.998795
0.998796
0.998752
0.998545
0.998607
0.99871
0.998818
0.998853
0.998858
0.998864
0.998514
0.98117
0.980863
0.998746
0.998945
0.998949
0.983402
0.976102
0.996976
0.99895
0.993225
0.996432
0.998943
0.998943
0.995882
0.998753
0.998753
0.998688
0.998758
0.998758
0.998758
0.99876
0.998763
0.998762
0.998759
0.998759
0.998528
0.995752
0.998491
0.998794
0.998796
0.998796
0.998796
0.996721
0.984872
0.985361
0.99655
0.998858
0.998864
0.998868
0.998627
0.99869
0.98948
0.997013
0.998949
0.99895
0.99895
0.99895
0.99895
0.99895
0.998943
0.998339
0.998931
0.998943
0.995087
0.998753
0.998753
0.998667
0.998758
0.998758
0.998758
0.998761
0.998761
0.998758
0.998759
0.99876
0.99876
0.99875
0.995386
0.9618
0.97532
0.998796
0.978095
0.958715
0.958712
0.958718
0.98275
0.998837
0.998868
0.998873
0.998875
0.998885
0.998923
0.998947
0.998947
0.998949
0.99895
0.99895
0.99895
0.99895
0.99895
0.99895
0.99895
0.998943
0.993818
0.975276
0.989192
0.998753
0.998758
0.998758
0.998758
0.998758
0.998759
0.998759
0.99876
0.99876
0.99876
0.997304
0.96402
0.958754
0.958725
0.959748
0.958712
0.958712
0.958712
0.958712
0.973106
0.998672
0.998861
0.998868
0.989186
0.935903
0.910701
0.954239
0.991785
0.993274
0.998749
0.99895
0.99895
0.99895
0.998925
0.99895
0.998951
0.99895
0.996856
0.975574
0.991979
0.998738
0.998758
0.998758
0.998477
0.99876
0.998758
0.998758
0.99876
0.99876
0.99876
0.965915
0.958754
0.958725
0.958717
0.958712
0.958712
0.958712
0.958712
0.960693
0.995139
0.99878
0.998801
0.987929
0.895353
0.884251
0.884227
0.884294
0.884328
0.951418
0.998902
0.998946
0.998948
0.998948
0.998685
0.998868
0.99895
0.99895
0.99895
0.989497
0.986233
0.986234
0.98664
0.986928
0.986909
0.98692
0.99688
0.998758
0.998759
0.99876
0.99168
0.985082
0.978021
0.958752
0.958722
0.958717
0.958712
0.976561
0.974492
0.987166
0.998707
0.998743
0.995602
0.898808
0.884218
0.884198
0.884197
0.884227
0.884294
0.953127
0.998608
0.998891
0.993709
0.994206
0.99879
0.99895
0.998951
0.99891
0.998949
0.987929
0.9922
0.992201
0.988395
0.986299
0.988177
0.993888
0.998755
0.998757
0.998757
0.998584
0.996695
0.9983
0.998301
0.990843
0.965538
0.979195
0.996982
0.998403
0.997601
0.996189
0.998469
0.989634
0.896519
0.884218
0.884198
0.884197
0.884198
0.896953
0.982891
0.998456
0.998538
0.992014
0.983578
0.987658
0.998879
0.998951
0.998951
0.99891
0.998945
0.987343
0.983801
0.984273
0.986641
0.990293
0.992906
0.997441
0.998635
0.998671
0.997037
0.995778
0.998289
0.998301
0.9983
0.9983
0.997934
0.998343
0.998403
0.998403
0.998406
0.998409
0.998408
0.939908
0.884394
0.884316
0.893615
0.940254
0.966444
0.993872
0.998436
0.998466
0.998456
0.992685
0.984268
0.99428
0.99895
0.998951
0.998952
0.998946
0.998952
0.955782
0.955759
0.956024
0.970619
0.983283
0.983266
0.975938
0.970757
0.970743
0.970767
0.980277
0.996265
0.989257
0.962983
0.959766
0.98506
0.998243
0.99838
0.997112
0.997914
0.998376
0.998408
0.929182
0.884461
0.884394
0.884461
0.88456
0.884592
0.905344
0.99113
0.998436
0.998465
0.909523
0.913268
0.996436
0.998951
0.998952
0.998952
0.998952
0.998952
0.962913
0.970401
0.99872
0.99872
0.998704
0.997777
0.996673
0.995533
0.99046
0.98694
0.962652
0.959891
0.959733
0.959717
0.959733
0.981688
0.997989
0.985087
0.932535
0.9325
0.932519
0.972968
0.941411
0.884602
0.884461
0.88456
0.884573
0.884577
0.884849
0.982056
0.990489
0.873714
0.848186
0.848175
0.877088
0.98281
0.998951
0.998952
0.998952
0.998952
0.998746
0.99874
0.998731
0.998431
0.970769
0.919616
0.901415
0.920532
0.97795
0.989295
0.992185
0.987725
0.983365
0.980636
0.981602
0.973804
0.980081
0.942065
0.933047
0.970568
0.972828
0.974641
0.97702
0.893256
0.884603
0.961938
0.972031
0.971067
0.947385
0.84981
0.848413
0.848186
0.848175
0.848177
0.869765
0.989426
0.998945
0.998952
0.998952
0.998952
0.998215
0.998456
0.998731
0.995335
0.887575
0.848585
0.84857
0.848631
0.867732
0.992123
0.992185
0.992185
0.980151
0.926542
0.926236
0.926477
0.981192
0.990577
0.98497
0.971796
0.97205
0.972496
0.978592
0.972807
0.925157
0.929021
0.97246
0.943404
0.938214
0.874761
0.848292
0.848402
0.860935
0.913854
0.981684
0.998907
0.99895
0.998951
0.998952
0.998952
0.994365
0.994471
0.998776
0.995692
0.890621
0.848576
0.848585
0.850457
0.973799
0.9921
0.992185
0.948203
0.926011
0.925995
0.926042
0.964595
0.990435
0.990583
0.975598
0.97604
0.992738
0.976779
0.94681
0.946672
0.967689
0.996395
0.996405
0.996369
0.99632
0.987995
0.971447
0.969538
0.982334
0.998436
0.998768
0.998825
0.998781
0.997578
0.998019
0.998952
0.99436
0.994592
0.998781
0.998776
0.993943
0.882487
0.848766
0.940361
0.992007
0.992049
0.992027
0.947435
0.926025
0.926042
0.92671
0.930362
0.989034
0.991207
0.991212
0.98823
0.992738
0.992713
0.986729
0.98867
0.996395
0.996409
0.996316
0.988249
0.963225
0.950049
0.935621
0.906686
0.870332
0.800326
0.897611
0.955258
0.995853
0.997465
0.998949
0.99895
0.996788
0.996483
0.998783
0.998781
0.99821
0.933585
0.889888
0.990865
0.991558
0.967191
0.990453
0.997713
0.997991
0.992243
0.943182
0.930519
0.932651
0.980405
0.991207
0.991028
0.988802
0.953924
0.928233
0.936188
0.996047
0.996395
0.98303
0.803252
0.762645
0.762645
0.762645
0.762645
0.762662
0.762969
0.808934
0.998605
0.998851
0.998942
0.998949
0.998949
0.998742
0.998784
0.998784
0.998783
0.998693
0.950806
0.907151
0.990244
0.985114
0.967129
0.967079
0.982373
0.998008
0.997997
0.997963
0.991303
0.92723
0.925249
0.960673
0.971433
0.928055
0.928049
0.928055
0.928233
0.967698
0.995574
0.956857
0.773336
0.762708
0.762645
0.762645
0.762645
0.76266
0.762749
0.765065
0.956881
0.998814
0.99891
0.991399
0.965327
0.998784
0.998784
0.998784
0.998784
0.998772
0.976208
0.926916
0.981266
0.995363
0.969258
0.967158
0.978298
0.998016
0.998008
0.997698
0.988115
0.963166
0.925145
0.936522
0.969945
0.928044
0.939845
0.990822
0.98069
0.953806
0.953849
0.982508
0.997922
0.997933
0.997867
0.995749
0.883565
0.762818
0.763563
0.774788
0.960796
0.993848
0.9902
0.951483
0.943882
0.998784
0.998784
0.998784
0.998784
0.998782
0.99492
0.958208
0.951402
0.995341
0.994565
0.99481
0.998067
0.998037
0.987839
0.917593
0.93304
0.925078
0.925071
0.93293
0.957128
0.928328
0.930896
0.993847
0.997906
0.997906
0.997908
0.997922
0.997933
0.997933
0.997933
0.997933
0.997933
0.997932
0.997923
0.996782
0.992441
0.989327
0.977042
0.975165
0.985761
0.998784
0.998784
0.990672
0.988822
0.998416
0.99751
0.993881
0.975415
0.975548
0.985234
0.998062
0.998103
0.998067
0.907266
0.764535
0.971904
0.988816
0.980266
0.988161
0.939893
0.928615
0.928615
0.953274
0.997903
0.997906
0.9979
0.997908
0.997922
0.997933
0.997933
0.997933
0.99787
0.997173
0.997858
0.997739
0.996486
0.993549
0.996239
0.997624
0.997624
0.998784
0.982995
0.954158
0.954119
0.954328
0.992087
0.998781
0.998791
0.997068
0.989069
0.99626
0.998146
0.995143
0.797544
0.763784
0.995648
0.995798
0.995889
0.995404
0.986533
0.973959
0.972818
0.98688
0.997899
0.997903
0.983564
0.943696
0.952535
0.997909
0.997421
0.978812
0.968055
0.98207
0.98781
0.988538
0.988042
0.988041
0.992228
0.997624
0.997624
0.970725
0.95412
0.954119
0.954119
0.965184
0.99744
0.998792
0.998791
0.998768
0.998291
0.998174
0.998163
0.970928
0.721675
0.688192
0.945405
0.995889
0.996004
0.995344
0.993844
0.995687
0.996444
0.996769
0.997861
0.997339
0.872287
0.806761
0.816155
0.976173
0.91929
0.898672
0.960377
0.990962
0.985175
0.984709
0.991211
0.994559
0.997624
0.997624
0.997624
0.954258
0.954248
0.966073
0.984576
0.998792
0.998792
0.998792
0.998792
0.991925
0.978497
0.991006
0.976142
0.908415
0.876312
0.718182
0.679412
0.929531
0.996081
0.996116
0.996125
0.996125
0.996268
0.996538
0.962042
0.717677
0.737994
0.983095
0.987215
0.83513
0.811264
0.808852
0.906244
0.996368
0.99723
0.99722
0.997301
0.997355
0.997585
0.997624
0.997624
0.956087
0.984469
0.998519
0.998792
0.998792
0.998792
0.998792
0.998792
0.983584
0.95946
0.908908
0.897299
0.897299
0.918021
0.917451
0.675253
0.677427
0.945928
0.996081
0.996116
0.99599
0.931692
0.895903
0.708571
0.41344
0.563235
0.96004
0.993095
0.994132
0.939656
0.806781
0.803644
0.878511
0.997231
0.997228
0.996805
0.973065
0.953422
0.99678
0.997624
0.993431
0.998801
0.998796
0.998792
0.998792
0.998792
0.998792
0.998792
0.998543
0.976331
0.916379
0.897808
0.952437
0.989895
0.990544
0.846541
0.680571
0.681533
0.771475
0.906731
0.994673
0.867409
0.484954
0.41344
0.411009
0.410519
0.540697
0.927609
0.994642
0.994597
0.97455
0.803586
0.805971
0.997228
0.997216
0.994566
0.927339
0.912036
0.921753
0.982065
0.998804
0.998805
0.998799
0.998792
0.998782
0.998792
0.998792
0.998791
0.99718
0.989188
0.969343
0.958139
0.958683
0.972848
0.990799
0.991095
0.929164
0.792714
0.772431
0.773664
0.781077
0.909845
0.634462
0.411009
0.410519
0.41028
0.410278
0.645482
0.986643
0.994736
0.994714
0.90035
0.807015
0.997101
0.997125
0.995473
0.932263
0.911958
0.911958
0.914872
0.998806
0.998805
0.997816
0.997783
0.998787
0.998792
0.998792
0.99879
0.985735
0.962036
0.961991
0.961923
0.960656
0.96505
0.991139
0.991137
0.991095
0.98939
0.950936
0.841431
0.826406
0.957035
0.946993
0.53603
0.410456
0.410277
0.41028
0.559254
0.969687
0.994644
0.994736
0.985072
0.81013
0.914072
0.99687
0.983396
0.951294
0.918121
0.911969
0.912705
0.998805
0.998805
0.998805
0.998798
0.998792
0.998792
0.998792
0.998791
0.998509
0.975986
0.962035
0.980348
0.996592
0.996514
0.995848
0.966408
0.984674
0.988901
0.988575
0.978806
0.967897
0.961423
0.955936
0.469843
0.410507
0.410426
0.432357
0.890839
0.995083
0.994126
0.994644
0.993831
0.950476
0.845622
0.885473
0.809778
0.754779
0.924695
0.947457
0.947729
0.998805
0.998805
0.979959
0.984492
0.998777
0.998792
0.998791
0.998791
0.998791
0.998791
0.995297
0.99531
0.996632
0.996166
0.959029
0.872242
0.712564
0.562488
0.626261
0.752027
0.878128
0.815048
0.531707
0.411268
0.411404
0.705396
0.995296
0.995462
0.995222
0.995063
0.965656
0.86978
0.858115
0.849445
0.768131
0.667431
0.671188
0.833302
0.933001
0.964665
0.998798
0.98135
0.905351
0.902079
0.950125
0.998786
0.997433
0.998509
0.998791
0.998787
0.998191
0.993734
0.997032
0.996427
0.939143
0.580818
0.450449
0.449573
0.450026
0.450648
0.474536
0.481599
0.490772
0.65566
0.943634
0.996081
0.995715
0.995532
0.995462
0.917563
0.618746
0.605483
0.605222
0.662738
0.604919
0.604957
0.60497
0.683721
0.940782
0.9664
0.997349
0.927106
0.902079
0.902079
0.902079
0.916251
0.988595
0.998504
0.995773
0.99384
0.996808
0.997903
0.997912
0.996721
0.990348
0.916258
0.68269
0.450026
0.449755
0.450026
0.450648
0.58352
0.740679
0.985727
0.996081
0.996081
0.993666
0.991873
0.981177
0.763198
0.605483
0.605197
0.604906
0.604903
0.604883
0.604916
0.604957
0.623755
0.952664
0.97203
0.997329
0.981181
0.971075
0.928587
0.90266
0.904048
0.964549
0.998357
0.998491
0.99851
0.991175
0.9898
0.996173
0.997456
0.9962
0.98205
0.961716
0.845883
0.713139
0.710259
0.80606
0.908486
0.984543
0.995909
0.99598
0.995927
0.993135
0.996304
0.996042
0.96182
0.725602
0.604915
0.604903
0.604893
0.6049
0.604885
0.604991
0.823195
0.983461
0.972303
0.997386
0.997375
0.997339
0.970635
0.904827
0.965746
0.997144
0.998491
0.998515
0.998515
0.998516
0.995964
0.985887
0.99574
0.995962
0.99121
0.990379
0.988732
0.994987
0.995556
0.996447
0.996484
0.992467
0.98478
0.98478
0.98914
0.99639
0.996294
0.962941
0.978191
0.978437
0.964375
0.917552
0.905212
0.939143
0.939123
0.963109
0.983461
0.983477
0.960441
0.997388
0.997388
0.997375
0.936284
0.805644
0.869893
0.993998
0.99844
0.998512
0.998516
0.998516
0.998516
0.99848
0.956852
0.862035
0.958493
0.956042
0.982405
0.996412
0.996493
0.996503
0.996505
0.996505
0.987442
0.98478
0.991628
0.996517
0.996089
0.941024
0.944342
0.979122
0.98379
0.983943
0.983946
0.983943
0.976097
0.978064
0.983477
0.983461
0.94468
0.997388
0.997388
0.958725
0.808828
0.803916
0.803788
0.803811
0.89005
0.997328
0.998512
0.998516
0.998505
0.998495
0.865428
0.731875
0.742561
0.89643
0.996173
0.996493
0.996503
0.996505
0.996505
0.996506
0.995219
0.995077
0.996515
0.996519
0.996517
0.996515
0.814658
0.788271
0.914189
0.98098
0.983943
0.983948
0.977659
0.960065
0.969459
0.948768
0.940772
0.935693
0.876769
0.80514
0.803916
0.803811
0.803811
0.803788
0.805336
0.971759
0.998257
0.998479
0.998495
0.949209
0.735029
0.730309
0.730276
0.830505
0.994236
0.996324
0.99208
0.985085
0.995238
0.996511
0.996517
0.99652
0.99652
0.99652
0.996519
0.965219
0.747075
0.74236
0.742329
0.825411
0.98021
0.983913
0.955549
0.977381
0.98506
0.966414
0.940785
0.991179
0.958604
0.960863
0.967653
0.844119
0.88408
0.939148
0.985187
0.996934
0.997445
0.986434
0.863289
0.737967
0.730309
0.730156
0.730307
0.890149
0.995563
0.995834
0.985361
0.984651
0.984677
0.993174
0.996515
0.99652
0.99652
0.99652
0.996484
0.839569
0.742459
0.742329
0.742329
0.742329
0.925458
0.966631
0.925802
0.977158
0.98516
0.98522
0.980124
0.984654
0.9811
0.981169
0.98107
0.838762
0.788437
0.931816
0.932472
0.854334
0.771218
0.732627
0.727839
0.729336
0.730203
0.730231
0.780645
0.981108
0.996019
0.992786
0.984652
0.984653
0.988332
0.996503
0.996515
0.996516
0.992373
0.979197
0.816066
0.742816
0.742695
0.742459
0.74233
0.745549
0.906895
0.782016
0.808306
0.95364
0.98522
0.98522
0.98522
0.897796
0.729864
0.729689
0.768083
0.742889
0.74143
0.737539
0.733126
0.729993
0.728539
0.727839
0.727576
0.762115
0.730331
0.730228
0.891301
0.996019
0.996204
0.996242
0.993981
0.994388
0.996348
0.996364
0.964451
0.952402
0.984034
0.943659
0.744546
0.743486
0.742816
0.801287
0.874213
0.874084
0.769632
0.766637
0.766656
0.786238
0.951712
0.98029
0.985184
0.755386
0.727492
0.727492
0.727492
0.754245
0.777394
0.793001
0.800846
0.778733
0.743197
0.727634
0.727664
0.770799
0.731523
0.806088
0.923353
0.996204
0.996242
0.996244
0.996242
0.996224
0.990441
0.919022
0.918928
0.925204
0.987874
0.987745
0.835765
0.778696
0.976182
0.939535
0.871811
0.766636
0.766636
0.766636
0.766637
0.766656
0.772772
0.910744
0.956461
0.884517
0.727675
0.7587
0.905641
0.958211
0.974474
0.979189
0.983488
0.978965
0.967304
0.908923
0.818798
0.813975
0.797416
0.820455
0.894597
0.996221
0.996243
0.996243
0.98736
0.955469
0.934293
0.952115
0.955251
0.986826
0.987428
0.831753
0.890304
0.98454
0.987267
0.875983
0.792892
0.766636
0.766636
0.766636
0.766644
0.766678
0.83897
0.891023
0.885378
0.981896
0.73741
0.906076
0.991895
0.991911
0.992482
0.99283
0.992554
0.992234