/*--------------------------------*- C++ -*----------------------------------*\
  =========                 |
  \\      /  F ield         | OpenFOAM: The Open Source CFD Toolbox
   \\    /   O peration     | Website:  https://openfoam.org
    \\  /    A nd           | Version:  8
     \\/     M anipulation  |
\*---------------------------------------------------------------------------*/
FoamFile
{
    version     2.0;
    format      ascii;
    class       volScalarField;
    location    "8.6";
    object      p;
}
// * * * * * * * * * * * * * * * * * * * * * * * * * * * * * * * * * * * * * //

dimensions      [1 -1 -2 0 0 0 0];

internalField   nonuniform List<scalar> 
9150
(
-204.086
-205.095
-205.75
-206.209
-206.448
-206.445
-206.199
-205.748
-205.097
-204.09
-224.149
-224.656
-225.091
-225.413
-225.581
-225.57
-225.399
-225.09
-224.657
-224.152
-244.039
-244.314
-244.575
-244.792
-244.897
-244.898
-244.793
-244.571
-244.314
-244.042
-263.777
-263.947
-264.117
-264.275
-264.363
-264.354
-264.276
-264.119
-263.948
-263.779
-283.401
-283.573
-283.71
-283.837
-283.907
-283.908
-283.846
-283.716
-283.577
-283.404
-118.356
-118.943
-118.502
-118.145
-117.952
-117.946
-118.143
-118.489
-118.937
-118.365
-133.616
-134.327
-134.403
-134.452
-134.366
-134.384
-134.484
-134.45
-134.363
-133.646
-150.011
-150.777
-151.069
-151.436
-151.519
-151.529
-151.445
-151.093
-150.79
-150.022
-166.85
-168.047
-168.547
-169.142
-169.34
-169.34
-169.149
-168.544
-168.048
-166.85
-184.046
-186.034
-186.826
-187.473
-187.758
-187.774
-187.488
-186.827
-186.039
-184.054
-24.1028
-25.8628
-27.9253
-29.137
-29.6479
-29.5279
-28.9004
-27.7628
-25.7959
-24.1139
-44.6186
-45.0533
-46.0777
-46.4715
-47.0161
-47.0427
-46.5729
-46.1434
-45.0619
-44.6315
-65.1198
-64.86
-65.9373
-65.5911
-66.0385
-66.0165
-65.4771
-65.904
-64.8516
-65.1133
-87.9088
-84.9192
-85.7891
-84.3778
-84.3845
-84.4006
-84.4022
-85.8191
-84.9349
-87.9074
-112.548
-103.728
-102.952
-101.843
-101.345
-101.355
-101.834
-102.954
-103.71
-112.518
1681.03
1681.06
1681.07
1681.13
1681.15
1681.2
1681.23
1681.22
1681.2
1681.17
1661.64
1661.59
1661.65
1661.65
1661.63
1661.69
1661.7
1661.68
1661.65
1661.62
1642.05
1642.12
1642.19
1642.18
1642.16
1642.15
1642.12
1642.07
1642.11
1642.04
1622.42
1622.54
1622.62
1622.62
1622.61
1622.6
1622.59
1622.54
1622.64
1622.49
1602.67
1602.85
1602.97
1603.02
1603.02
1603.04
1603.03
1602.97
1603.01
1602.84
1582.88
1583.1
1583.26
1583.35
1583.47
1583.52
1583.47
1583.38
1583.28
1583.13
1563.21
1563.45
1563.62
1563.75
1563.88
1563.74
1563.71
1563.76
1563.61
1563.55
1543.74
1543.89
1544.03
1544.27
1544.04
1544.08
1544.05
1544
1543.9
1543.83
1524.33
1524.36
1524.66
1524.47
1524.46
1524.46
1524.41
1524.33
1524.21
1524.05
1504.88
1505.01
1505.04
1505.05
1505.03
1504.97
1504.89
1504.78
1504.66
1504.46
1485.72
1485.77
1485.79
1485.76
1485.71
1485.71
1485.61
1485.41
1485.26
1485.06
1466.55
1466.59
1466.57
1466.52
1466.46
1466.41
1466.32
1466.18
1466.01
1465.84
1447.43
1447.46
1447.39
1447.32
1447.26
1447.2
1447.12
1447.03
1446.92
1446.73
1428.27
1428.32
1428.36
1428.29
1428.09
1428.02
1427.96
1427.87
1427.8
1427.71
1409.51
1409.46
1409.47
1409.36
1409.01
1408.86
1408.78
1408.7
1408.6
1408.6
1390.61
1390.59
1390.51
1390.29
1390.03
1389.77
1389.61
1389.49
1389.36
1389.24
1372.08
1371.79
1371.63
1371.36
1370.98
1370.68
1370.46
1370.28
1370.1
1369.95
1353.16
1352.86
1352.5
1352.18
1351.87
1351.56
1351.3
1351.07
1350.86
1350.68
1333.88
1333.56
1333.12
1332.77
1332.48
1332.16
1331.86
1331.63
1331.73
1331.38
1315.12
1315.11
1314.8
1314.2
1313.69
1313.35
1313.15
1313.02
1312.92
1312.72
1296.29
1296.06
1295.47
1295.09
1294.76
1294.51
1294.66
1294.49
1294.23
1294.03
1277.29
1277.04
1276.65
1276.23
1275.78
1275.22
1274.87
1274.73
1274.58
1274.29
1258.73
1258.24
1257.71
1257.31
1257.02
1256.69
1256.43
1256.01
1255.58
1255.06
1240.75
1240.27
1239.74
1239.31
1238.7
1238.06
1237.67
1237.23
1236.74
1236.12
1222.83
1222.3
1221.78
1221.17
1219.61
1219.04
1218.52
1218.03
1217.62
1217.43
1203.91
1203.2
1202.99
1201.51
1200.35
1199.47
1198.73
1198.14
1197.74
1197.43
1183.87
1183.12
1182.52
1181.07
1179.81
1178.97
1178.21
1177.67
1177.43
1177.15
1163.42
1162.4
1161.34
1160.36
1159.5
1158.41
1157.27
1156.48
1156.33
1156.49
1142.65
1141.93
1140.91
1139.68
1139.14
1138.03
1137.09
1138.75
1134.88
1136.02
1121.8
1121.75
1120.88
1120.26
1120.31
1119.67
1118.5
1118.8
1116.78
1117.3
1101.73
1101.83
1101.5
1101.48
1100.79
1100.59
1101.53
1101.09
1100.13
1100.38
1083.85
1084.1
1084.03
1084.12
1084.24
1084.37
1084.36
1084.17
1082.91
1082.89
1065.61
1065.52
1065.25
1065.13
1064.89
1064.7
1065.14
1064.99
1064.42
1064.28
1045.91
1045.15
1045.49
1045.55
1045.45
1045.42
1045.35
1045.11
1044.79
1044.61
1024.36
1024.65
1024.76
1024.78
1024.73
1024.66
1024.78
1024.81
1024.82
1024.73
1004.03
1004.47
1004.76
1004.79
1004.67
1004.63
1004.56
1004.95
1005.33
1005.31
983.493
984.31
984.948
985.28
985.52
985.602
985.662
985.768
985.84
986.337
963.764
964.742
965.523
966.134
966.547
966.945
967.164
967.337
967.33
967.643
946.172
946.808
947.274
947.719
948.033
948.332
948.514
948.531
948.504
949.431
929.055
929.212
929.297
929.415
929.634
929.787
929.813
929.592
929.27
929.084
911.69
911.343
911.05
910.781
910.816
910.881
910.792
910.464
909.876
909.266
893.325
892.507
891.829
891.37
891.481
891.537
891.166
890.764
890.126
889.373
874.033
873.163
872.12
874.958
872.374
872.136
871.817
871.346
870.772
870.067
856.385
856.111
855.445
855.11
854.772
854.086
853.163
852.112
852.096
851.425
836.799
836.524
836.161
836.955
836.86
836.817
836.272
835.755
835.055
832.792
817.851
818.462
818.255
818.622
818.443
818.044
818.015
817.722
817.32
814.964
797.449
798.166
799.029
799.26
799.358
798.786
798.448
797.237
796.567
795.659
775.316
776.645
777.665
778.248
778.243
777.9
777.854
776.945
776.813
776.746
752.405
754.003
755.187
755.839
755.898
755.485
755.334
755.326
755.234
755.054
730.486
731.942
732.749
733.037
732.89
732.601
732.634
732.829
732.768
732.684
712.393
712.725
712.285
711.159
709.994
710.107
711.485
712.367
712.718
712.374
696.052
695.844
694.734
693.265
693.028
693.555
694.282
694.679
695.812
696.26
676.413
675.788
676.107
676.905
679.359
674.584
674.94
674.847
675.176
675.108
655.856
658.819
660.392
660.754
660.436
659.552
658.675
657.953
657.201
658.556
636.126
639.81
645.259
647.271
644.764
644.135
643.182
641.958
640.956
642.791
611.39
616.455
622.236
624.674
625.158
623.692
622.732
627.101
624.82
627.818
581.546
584.921
589.269
607.565
597.582
601.834
602.702
603.288
604.229
606.371
546.171
551.045
559.465
579.045
580.242
579.489
580.808
582.483
584.665
586.538
521.478
526.314
536.151
546.971
553.502
555.271
556.175
560.321
564.083
567.169
503.377
510.606
519.945
528.453
533.502
536.451
536.476
540.234
543.866
546.789
493.67
499.737
506.627
514.749
518.521
520.405
520.844
522.38
524.135
525.422
480.813
485.098
491.565
499.244
501.37
501.462
503.182
503.914
504.727
505.471
463.602
471.761
480.143
478.676
481.844
478.672
480.803
482.927
484.861
486.519
445.496
451.001
454.764
455.868
455.993
459.098
460.461
462.47
465.622
468.851
421.398
427.349
428.934
430.336
432.237
434.91
437.665
441.573
445.734
450.073
413.058
406.937
406.159
408.073
409.626
412.641
416.999
421.956
427.095
432.262
400.315
398.445
396.395
394.729
393.644
394.867
398.263
402.822
407.841
412.988
388.009
386.344
384.888
382.278
380.739
380.698
381.315
384.274
390
395.134
363.903
363.734
363.513
363.043
362.753
362.906
365.304
368.819
373.792
379.351
339.535
341.728
342.433
340.222
337.22
340.442
347.234
352.659
357.277
363.587
314.895
315.632
315.475
314.469
310.484
314.332
326.849
334.826
342.18
349.556
293.527
290.082
288.214
290.687
292.181
293.814
310.169
319.63
328.87
337.794
282.802
281.744
281.192
280.199
284.23
290.361
302.69
313.269
321.062
328.198
276.489
277.555
278.981
283.779
292.041
301.099
308.637
316.056
323.009
323.003
267.439
271.323
278.217
281.217
296.42
302.832
304.667
311.112
315.627
317.918
258.648
265.109
270.944
278.882
284.605
291.197
297.918
304.045
307.889
309.353
243.916
249.015
254.628
266.693
272.696
278.81
283.433
290.546
295.593
297.798
227.226
234.337
241.717
249.666
257.491
266.289
272.111
277.443
282.747
287.261
200.46
213.954
216.311
226.277
237.05
246.958
255.048
262.822
271.82
278.708
172.841
181.589
190.185
198.801
207.619
216.888
226.991
237.601
247.394
257.476
142.151
150.115
159.647
168.617
176.399
184.902
194.869
207.03
220.446
232.88
127.158
132.618
138.428
145.588
152.753
160.061
168.414
179.109
192.836
207.079
112.419
118.4
126.963
134.126
139.916
144.671
146.878
149.508
161.004
176.525
99.9382
109.891
114.573
119.451
124.451
128.435
131.718
132.94
138.998
149.797
87.0486
96.3353
102.723
107.491
109.298
114.02
115.581
115.395
118.519
126.04
82.1467
88.1993
93.007
96.2059
98.5448
104.747
96.5762
94.0723
93.3394
94.4772
79.55
84.1219
87.0922
87.5741
93.5869
84.7681
77.3527
69.1368
61.7508
53.6851
77.6765
80.2724
82.8137
83.6331
78.8177
71.4224
58.3817
43.4405
32.0829
28.4534
71.9582
73.9161
76.9518
74.2102
68.7348
59.2996
46.2577
34.4039
32.867
28.4463
59.6589
60.3686
59.8661
60.335
58.3865
50.64
40.4802
38.0404
36.4515
21.2882
47.6524
41.2537
40.8188
44.2386
45.6668
39.6003
35.0563
42.0419
21.1429
23.6623
23.3898
26.0483
25.0748
26.3395
33.0947
30.2193
36.7395
34.9662
13.3038
13.1026
11.2527
13.6341
48.8735
7.88667
16.785
15.0961
10.3818
19.5077
3.43917
0.825882
-4.39259
-3.34012
9.72608
0.26616
3.78647
3.37035
-7.94067
-4.92499
-5.21925
-4.933
-2.4666
-4.75881
-5.31751
-4.79012
-0.608088
-2.21715
-5.03588
-5.55969
-2.11159
-1.81216
-1.87313
-1.86666
-5.67875
-5.27352
-2.2512
-2.87349
-4.88438
-4.37696
-1.90051
-1.82133
-1.87184
-1.87156
-4.94077
-3.41625
-1.94807
-1.96872
-2.88762
-3.67012
-1.77816
-1.83102
-1.88373
-2.17287
-4.53329
-3.02517
-1.91318
-1.59447
-2.58869
-3.95426
-2.27632
-1.88349
-1.91913
-3.79714
-5.32431
-5.79995
-6.0709
-5.99727
-5.74293
-5.36517
-3.90119
-1.9033
-2.74196
-9.55362
-12.9449
-14.8028
-15.4863
-15.7118
-14.9968
-13.1145
-9.58071
-2.78006
1681.13
1681.11
1681.05
1681.01
1680.92
1681.15
1680.76
1680.39
1679.95
1679.48
1679.02
1678.59
1678.13
1677.79
1677.57
1677.38
1676.99
1676.43
1675.85
1675.25
1674.72
1674.33
1674.09
1674.1
1674.22
1674.36
1674.43
1674.44
1674.41
1674.35
1674.27
1674.64
1674.68
1674.68
1674.73
1674.76
1674.79
1674.82
1674.83
1674.9
1661.6
1661.55
1661.44
1661.33
1661.16
1661.15
1660.97
1660.67
1660.21
1659.71
1659.24
1658.87
1658.58
1658.15
1657.6
1657.24
1656.53
1656.13
1655.66
1655.13
1654.74
1654.29
1654.03
1654.15
1654.37
1654.7
1654.85
1654.94
1654.9
1654.78
1654.88
1655
1655.09
1655.03
1655.1
1655.16
1655.22
1655.31
1655.42
1655.57
1642.11
1641.89
1641.75
1641.62
1641.43
1641.26
1641.19
1641.04
1640.63
1639.99
1639.54
1639.11
1638.95
1639.23
1638.81
1638.39
1637.84
1637.28
1636.54
1635.69
1635.3
1634.73
1635.11
1634.98
1634.95
1635.32
1635.47
1635.57
1635.05
1635.11
1635.29
1635.36
1635.41
1635.37
1635.38
1635.38
1635.44
1635.63
1635.75
1635.79
1622.49
1622.26
1622.17
1622.05
1621.87
1621.87
1623.22
1621.87
1621.53
1621.08
1620.21
1619.46
1618.89
1618.08
1617.09
1616.8
1616.46
1616.06
1615.76
1615.86
1616.1
1616.13
1616.96
1617.17
1617.38
1617.74
1618.07
1617.65
1616.26
1615.95
1615.67
1615.61
1615.61
1615.56
1615.44
1615.31
1615.5
1615.91
1616.06
1616.19
1602.8
1602.64
1602.67
1602.62
1602.5
1602.63
1602.94
1601.93
1601.6
1600.87
1599.75
1598.49
1597.5
1596
1594.8
1594.03
1593.38
1593.25
1593.6
1594.21
1594.95
1595.78
1596.46
1597.02
1598.03
1598.47
1598.36
1597.65
1596.71
1596.11
1596.4
1596.37
1596.03
1595.88
1595.84
1595.55
1595.9
1595.98
1596.24
1596.57
1583.07
1582.89
1582.89
1582.85
1582.78
1582.85
1582.87
1581.54
1580.88
1579.83
1578.38
1576.57
1574.45
1572.6
1571.28
1570.37
1569.82
1569.31
1570.12
1571.25
1572.6
1574.03
1575.25
1576.24
1576.64
1576.87
1578.25
1577.9
1576.44
1576.54
1577.05
1577.37
1577.14
1576.57
1576.56
1576.38
1576.41
1576.32
1576.7
1576.95
1563.4
1563.2
1563.07
1562.81
1562.3
1564.13
1562.05
1561.09
1559.74
1558
1555.94
1553.67
1550.96
1548.12
1546.47
1545.98
1545.47
1545.84
1546.21
1547.99
1549.9
1551.9
1553.71
1555.1
1556.09
1558.37
1557.44
1557.46
1558.15
1557.93
1558.52
1558.67
1558.63
1558.26
1557.07
1557.31
1556.62
1557.71
1557.23
1557.52
1543.71
1543.44
1543.31
1543.11
1542.56
1544.13
1541.26
1539.91
1538.17
1536
1533.44
1530.82
1528.13
1525.81
1524.65
1521.48
1521.57
1521.88
1522.39
1524.81
1527.57
1530.23
1532.53
1534.38
1535.9
1537.3
1539.68
1538.17
1538.17
1538.96
1538.79
1539.72
1538.81
1538.84
1538.82
1538.66
1538.88
1539.24
1539.39
1539.29
1523.85
1523.63
1523.38
1523.07
1522.42
1523.42
1520.3
1518.86
1517.16
1515.13
1512.75
1510.25
1507.99
1506.56
1505.83
1504.81
1504.57
1504.82
1504.56
1505.66
1507.47
1510.01
1512.51
1514.65
1516.47
1518.08
1519.23
1519.51
1518.37
1519.34
1519.91
1519.97
1519.96
1520.13
1519.98
1520.05
1520.12
1520.44
1520.77
1520.5
1504.22
1503.94
1503.58
1503.2
1502.95
1503.01
1499.74
1498.55
1497.12
1495.49
1493.78
1492.09
1490.74
1490.17
1490.44
1489.65
1489.58
1489.58
1489.66
1490.05
1490.39
1491.35
1493.69
1495.53
1497.18
1498.36
1498.4
1501.2
1500.66
1501.02
1500.93
1500.83
1500.28
1500.55
1500.32
1500.55
1500.76
1500.94
1501.01
1501.13
1484.81
1484.49
1484.1
1483.66
1483.82
1482.94
1479.99
1479.01
1477.87
1476.61
1475.33
1474.16
1473.26
1472.8
1472.9
1473.03
1473.38
1472.87
1473.07
1473.65
1473.94
1473.8
1475.53
1476.78
1477.96
1478.96
1479.32
1483.08
1482.02
1482.28
1481.33
1481.56
1480.34
1480.17
1480.13
1480.35
1480.7
1481.04
1481.48
1481.59
1465.6
1465.29
1464.94
1464.56
1464.18
1462.99
1461.28
1460.13
1458.95
1457.78
1456.77
1455.88
1455.09
1454.57
1454.38
1454.54
1454.91
1455.08
1456.43
1457.16
1455.96
1455.97
1457.25
1458.32
1459.14
1459.92
1460.4
1464.63
1463.21
1463.1
1462.21
1462.35
1461.15
1460.99
1460.77
1461.04
1461.21
1461.89
1462.25
1462.42
1446.52
1446.26
1445.95
1445.64
1445.27
1444.37
1443.12
1441.73
1440.36
1439.15
1438.18
1437.29
1436.56
1436.07
1435.85
1435.89
1436.1
1436.32
1436.84
1440.49
1437.38
1437.97
1438.94
1439.9
1440.75
1441.33
1441.37
1445.06
1444.84
1444.11
1443.57
1443.34
1442.4
1442.27
1442.5
1443.03
1443.63
1443.59
1444.55
1444.3
1427.47
1427.26
1427.02
1426.77
1426.48
1425.9
1424.99
1423.88
1422.73
1421.54
1419.95
1419.06
1418.41
1417.91
1417.67
1417.67
1417.84
1418.09
1418.27
1418.63
1419.15
1419.97
1420.94
1421.87
1422.72
1423.35
1424.1
1426.15
1424.34
1424.61
1424.63
1423.74
1424.17
1424.08
1424.78
1424.48
1426.21
1425.02
1425.86
1425.92
1408.36
1408.17
1407.94
1407.73
1407.37
1406.88
1406.67
1405.7
1404.41
1403.49
1402.46
1401.7
1401.05
1400.46
1399.71
1399.62
1399.66
1399.72
1399.88
1400.27
1400.82
1401.66
1402.6
1403.49
1404.29
1404.77
1407.45
1405.26
1406.37
1405.06
1404.93
1404.36
1403.91
1404.47
1405.34
1405.36
1405.64
1406.02
1406.25
1406.95
1389.09
1388.89
1388.64
1388.35
1387.95
1387.45
1388.54
1387.05
1386.31
1385.89
1384.23
1383.76
1383.16
1382.6
1381.7
1381.36
1381.15
1381.05
1381.13
1381.47
1381.94
1382.76
1383.69
1384.67
1385.51
1386.26
1388.45
1385.96
1385.94
1385.21
1385.37
1385.17
1384.85
1384.86
1385.2
1385.72
1386.27
1386.64
1386.79
1387.65
1369.76
1369.54
1369.3
1368.99
1368.66
1368.25
1367.89
1367.33
1366.84
1366.3
1365.52
1364.94
1365.3
1363.64
1363.1
1362.61
1362.25
1362.13
1362.13
1362.32
1362.75
1363.5
1364.38
1365.35
1366.29
1367.03
1367.57
1367.02
1365.52
1365.04
1365.02
1365.21
1365.39
1365.56
1365.84
1366.21
1366.43
1366.8
1366.88
1367.02
1350.47
1350.23
1350
1349.78
1349.54
1349.23
1348.84
1348.33
1347.73
1347.12
1346.45
1345.74
1345.1
1344.55
1343.95
1343.36
1342.94
1342.85
1342.94
1343.3
1343.63
1343.82
1344.52
1345.26
1346.05
1346.53
1346.73
1346.15
1345.39
1345.01
1344.67
1344.65
1344.85
1345.42
1345.92
1346.39
1346.85
1347.19
1347.36
1347.56
1331.21
1330.97
1330.78
1330.54
1330.3
1329.98
1329.57
1329.12
1328.67
1328.12
1327.52
1326.92
1326.23
1325.38
1325.82
1324.33
1324.64
1323.82
1324.33
1324.66
1324.86
1324.52
1324.75
1324.95
1325.06
1324.97
1324.96
1324.32
1323.13
1322.22
1322.34
1323.2
1324.19
1325.2
1326.11
1326.9
1327.51
1327.96
1328.24
1328.59
1312.48
1311.81
1311.55
1311.27
1310.96
1310.61
1310.18
1309.77
1309.42
1309.02
1308.58
1308.09
1307.53
1307.23
1307.01
1306.37
1305.89
1305.8
1306.04
1306.17
1306.1
1305.74
1305.3
1304.8
1304.12
1303.27
1303.17
1303.75
1301.19
1300.48
1301.05
1302.45
1304.06
1305.55
1306.81
1307.79
1308.52
1309.04
1309.42
1309.68
1293.57
1292.68
1292.39
1291.97
1291.54
1291.06
1290.61
1290.29
1290.05
1289.9
1289.8
1289.56
1289.54
1289.47
1289.21
1288.92
1288.51
1288.15
1288.03
1287.94
1287.6
1286.92
1286.43
1285.69
1285.02
1284.68
1284.27
1284.28
1283.81
1283.5
1282.17
1283.27
1285.08
1286.78
1288.15
1289.19
1289.9
1290.39
1290.69
1290.81
1273.91
1273.53
1273.17
1272.73
1272.37
1272.07
1271.73
1271.22
1271.06
1271.03
1271.08
1271.02
1270.98
1271.01
1271.14
1271.05
1270.51
1270.1
1269.83
1269.45
1268.76
1268.1
1267.21
1266.14
1265.82
1265.85
1265.73
1265.8
1265.65
1265.39
1264.1
1265.21
1267
1268.66
1269.99
1270.69
1271.27
1271.72
1272.02
1272.15
1254.92
1254.73
1254.29
1253.71
1253.5
1252.97
1252.59
1252.33
1252.07
1252.1
1252.21
1252.27
1252.26
1252.35
1252.15
1252.76
1251.83
1251.39
1250.99
1250.51
1250.1
1249.58
1248.51
1248.06
1247.54
1247.4
1247.21
1247.07
1246.26
1245.65
1245.97
1247.38
1249.05
1251.41
1252.27
1252.45
1252.62
1252.89
1253.1
1253.22
1235.84
1235.5
1235.26
1234.85
1234.34
1233.77
1233.33
1232.9
1232.57
1232.59
1232.67
1232.79
1232.81
1232.78
1232.95
1232.89
1232.7
1232.3
1231.83
1231.36
1231.02
1231
1230.81
1230.6
1229.98
1228.82
1228.69
1228.41
1228.37
1228.32
1228.49
1229.11
1230.67
1232.3
1233.26
1233.33
1233.33
1233.54
1233.75
1233.84
1217.94
1217.88
1217.34
1216.14
1215.28
1214.21
1213.35
1213.32
1213.41
1213.44
1213.2
1213.7
1213.25
1213.96
1214.33
1213.27
1213.39
1213.01
1212.5
1212.18
1212.1
1212.13
1211.45
1211.5
1211.29
1210.8
1210.34
1209.66
1208.52
1208.67
1209.25
1208.72
1211.44
1212.87
1211.63
1212.59
1213.31
1213.99
1214.44
1214.64
1198.5
1197.6
1196.68
1195.88
1194.72
1193.5
1192.85
1193.1
1193.23
1193.74
1194.73
1194.73
1194.7
1195
1195.06
1194.82
1195.07
1193.73
1194.27
1193.69
1192.96
1194.22
1192.66
1193.41
1192.86
1191.78
1191.35
1191.05
1190.39
1191.46
1192.38
1190.39
1192.09
1193.39
1192.63
1192.31
1193.52
1194.64
1195.3
1195.54
1176.81
1176.41
1175.56
1174.22
1172.57
1172.37
1173.3
1173.43
1173.65
1174.9
1175.27
1175.16
1175.22
1175.41
1176.14
1176.2
1175.63
1175.95
1176.29
1173.28
1173.08
1173.21
1173.36
1174.96
1175.72
1172.65
1172.61
1171.6
1169.31
1170.2
1170.86
1171.61
1172.62
1173.57
1173.63
1172.72
1174.15
1175.54
1176.37
1176.71
1156.53
1156.64
1156.47
1155.81
1155.86
1156.5
1156.62
1157.01
1156.9
1156.17
1156.17
1156.21
1156.32
1157.17
1157.6
1157.53
1156.48
1156.34
1155.29
1154.5
1154.22
1153.88
1153.51
1152.65
1153.95
1153.18
1152.7
1149.96
1148.56
1149.53
1151.72
1152.23
1152.17
1152.32
1153.22
1153.77
1154.9
1156.41
1157.53
1158.25
1136.78
1137.35
1137.92
1138.23
1139.58
1140.53
1139.97
1139.11
1137.45
1137.81
1137.16
1137.09
1137.72
1137.91
1138.18
1137.61
1137.47
1137.08
1136.22
1135.78
1135.93
1134.62
1134.65
1134.76
1134.22
1134.08
1133.64
1133.03
1132
1131.57
1131.34
1131.92
1132.63
1133.23
1132.77
1133.48
1134.71
1135.92
1137
1138.34
1118.26
1118.95
1119.57
1120.17
1120.54
1120.57
1122.93
1118.38
1118.14
1117.85
1117.25
1117.09
1118.39
1118.87
1119.12
1118.61
1118.16
1117.75
1117.37
1116.95
1116.5
1115.72
1115.04
1115.19
1114.88
1113.53
1111.6
1109.34
1108.78
1109.21
1109.35
1108.81
1106.96
1108.85
1107.89
1110.15
1111.99
1114.19
1116.44
1117.87
1100.92
1101.19
1101.4
1101.6
1101.47
1101.4
1102.99
1098.26
1097.51
1096.18
1094.1
1094.76
1096.07
1097.49
1098.39
1099.77
1098.78
1098.47
1098.36
1097.93
1097.42
1097.01
1098.66
1098.07
1096.83
1095.39
1092.2
1094.06
1095.49
1094.78
1094.01
1092.43
1091.39
1091.84
1092.18
1092.87
1094.3
1096.14
1098.24
1099.5
1083.04
1082.97
1082.94
1082.84
1082.56
1082.31
1083.96
1077.85
1075.41
1072.37
1070.55
1070.37
1072.73
1075.92
1078.82
1079.68
1080.22
1080.8
1079.66
1080.28
1079.02
1078.9
1079.23
1079.15
1077.33
1077.77
1075.33
1080.62
1081.07
1080.44
1080.02
1080
1079.79
1080.59
1081.6
1080.86
1082.27
1084.02
1085.71
1087.87
1064.12
1063.88
1063.63
1063.35
1062.98
1062.24
1063.61
1058.5
1056.87
1052.96
1051.58
1050.83
1052.16
1055.27
1057.27
1057.05
1056.6
1060.93
1060.12
1061.38
1060.6
1059
1060.2
1058.64
1058.49
1058.62
1058.28
1059.9
1061.19
1062.97
1063.48
1062.61
1066.35
1068.22
1069.05
1065.56
1067.71
1068.69
1070.76
1072.72
1044.46
1044.2
1043.81
1043.49
1043.35
1043.17
1043.15
1042.09
1038.1
1036.09
1034.69
1034.64
1035.24
1035.39
1036.52
1036.69
1037.3
1038.78
1038.87
1038.83
1039.33
1038.45
1037.61
1036.65
1036.18
1037.23
1038.63
1040.23
1042.11
1043.4
1043.72
1043.92
1045
1046.32
1047.75
1048.17
1048.26
1048.68
1049
1049.09
1024.53
1024.22
1024.12
1023.49
1023.17
1023.59
1023.39
1022.87
1021.87
1020.09
1019.39
1019.09
1019.27
1020
1029.9
1017.32
1018.06
1017.86
1018.29
1018.02
1018.63
1018.42
1017.33
1017.28
1017.69
1018.41
1019.04
1019.63
1020.07
1020.66
1022.08
1023.75
1025.16
1026.24
1027.1
1027.47
1027.55
1027.58
1027.79
1028.08
1005.25
1004.8
1005.11
1004.57
1004.33
1003.89
1004.28
1004.06
1003.35
1003.35
1003.01
1003.59
1004.27
1007.93
1008.47
998.956
998.433
997.84
997.269
996.908
996.869
996.707
996.263
997.251
997.844
997.998
999.27
999.136
998.931
1000.39
1002.06
1004.92
1005.78
1006.49
1006.91
1007.23
1007.15
1007.01
1007.11
1007.32
986.012
986.059
986.185
986.079
985.456
984.736
984.618
984.435
984.248
984.3
984.776
985.767
987.127
991.217
994.326
976.536
977.231
977.033
976.188
975.62
975.014
974.594
974.471
974.617
975.135
974.05
978.252
977.352
978.279
977.804
981.168
982.118
984.567
985.622
986.366
986.159
986.027
985.902
985.944
986.132
967.703
967.269
966.98
966.758
966.436
965.882
965.296
964.67
964.268
964.513
964.356
964.189
963.962
963.465
968.3
963.883
959.852
956.812
955.071
953.921
952.856
951.278
948.37
940.116
936.424
935.359
937.112
946.272
949.25
958.658
961.431
959.687
961.844
963.356
963.996
964.223
963.661
963.453
964.027
964.773
949.417
948.079
948.001
947.81
947.318
946.648
945.942
945.198
944.626
944.305
945.241
945.498
944.332
942.706
941.4
950.381
945.206
933.967
931.175
929.747
929.725
928.451
922.559
913.521
916.116
898.111
902.115
916.979
924.808
931.914
939.163
944.359
942.473
943.109
943.324
942.651
941.508
942.959
943.039
943.966
928.506
928.154
927.872
927.541
927.238
926.967
926.621
926.193
925.935
925.775
927.133
928.838
925.067
927.249
925.29
924.661
926.253
923.796
911.443
907.266
912.228
904.542
909.286
905.188
897.647
888.165
887.305
893.53
904.243
912.683
918.971
930.022
930.034
927.932
926.277
924.212
922.898
924.349
924.976
926.929
908.653
908.096
907.622
907.268
907.108
907.031
906.992
906.971
906.981
906.911
906.98
907.145
907.041
906.083
906.347
907.058
904.257
900.365
897.858
895.782
894.02
897.116
896.749
894.823
890.571
885.883
882.544
883.878
889.344
897.805
903.979
909.723
917.841
906.811
907.454
907.577
906.933
908.516
909.591
909.221
888.557
887.903
887.563
887.31
887.337
887.602
887.797
888.007
888.279
888.912
889.046
889.049
888.895
888.129
887.43
886.962
886.773
885.699
881.952
881.554
883.508
888.517
889.532
883.088
882.507
881.593
879.797
877.755
877.89
883.802
889.628
892.404
898.743
890.239
891.68
890.013
889.058
889.864
891.484
892.378
869.274
868.656
868.015
867.498
867.735
868.088
868.453
868.86
869.071
869.575
870.25
869.203
868.277
866.1
862.801
862.208
861.054
860.617
862.708
866.016
868.092
870.703
873.515
871.218
874.888
875.889
874.422
866.987
866.615
868.815
872.278
875.265
873.539
870.192
868.986
868.991
871.001
867.088
870.536
871.826
850.681
849.779
848.928
848.068
848.049
848.75
849.326
849.809
850.146
850.53
850.549
850.257
849.47
846.916
842.338
840.644
841.626
844.731
843.269
844.886
851.431
850.244
852.682
864.721
865.164
862.137
862.071
856.519
851.562
847.462
845.353
847.506
850.961
852.008
850.301
853.192
851.876
848.664
852.129
854.742
833.769
831.702
832.802
831.815
829.327
829.857
830.315
830.973
831.754
832.431
832.944
833.25
832.987
831.765
830.938
834.672
838.015
837.874
838.183
838.218
838.422
840.977
841.288
841.439
847.442
848.154
846.218
841.705
834.584
827.196
828.911
829.505
832.521
834.285
835.038
836.72
837.697
837.081
837.443
840.297
817.041
812.791
813.245
812.078
811.257
811.442
811.235
812.413
813.62
814.972
815.681
816.544
817.457
817.831
818.133
819.714
822.896
827.828
829.19
830.853
831.421
825.992
824.35
824.842
827.053
827.994
827.494
825.094
820.358
816.771
817.64
818.917
822.429
823.973
824.605
825.854
826.921
827.494
825.957
827.779
795.751
794.315
793.574
792.258
793.043
792.562
792.521
793.683
795.399
797.344
799.642
801.928
802.694
802.593
803.207
804.009
805.791
807.898
810.153
809.759
808.161
807.609
807.322
807.341
808.116
808.709
808.909
808.25
806.412
805.026
807.766
812.072
813.796
814.303
814.309
814.879
816.022
812.64
812.498
814.067
776.557
775.88
774.801
772.279
773.244
771.187
773.291
774.643
776.223
778.119
780.216
782.266
784.483
785.025
784.938
784.902
786.201
787.848
788.974
789.716
790.193
789.909
789.424
789.508
789.91
790.099
790.736
791.303
792.598
791.85
792.733
794.581
796.465
797.811
797.531
795.983
795.291
796.041
797.124
797.965
754.745
754.108
753.273
751.958
757.4
752.725
753.804
754.85
756.404
758.092
759.639
761.096
762.166
762.195
764.753
761.858
763.993
765.665
767.794
769.214
770.219
770.743
771.015
771.523
772.191
772.138
772.701
772.905
775.467
773.57
773.498
774.494
775.916
777.333
777.414
776.08
775.268
775.687
776.283
778.233
732.446
732.065
731.637
733.709
735.237
735.931
736.236
735.107
735.357
737.419
739.037
740.322
741.678
742.581
748.949
748.483
745.081
746.156
748.127
749.809
751.078
752.028
752.709
753.22
753.724
753.979
753.724
753.13
752.673
754.206
752.922
747.92
750.097
753.749
755.248
755.663
756.081
755.974
756.901
757.902
712.178
712.923
715.521
715.957
716.642
716.957
717.861
718.403
717.131
718.987
720.238
720.959
722.36
724.285
727.362
729.125
728.773
729.355
731.07
732.264
733.776
734.288
734.946
735.48
735.924
735.958
735.574
735.111
733.827
732.749
731.047
729.408
729.692
732.925
736.304
737.328
737.169
737.961
737.928
739.449
696.092
694.891
695.04
695.797
696.952
696.201
697.841
699.637
699.578
699.264
700.613
701.141
703.467
706.37
709.024
711.553
712.453
713.572
714.891
715.506
716.45
717.126
717.598
718.245
718.95
719.327
719.229
718.847
717.315
717.36
716.907
715.392
714.344
715.682
717.832
718.818
718.249
719.073
719.364
719.67
673.477
672.555
673.529
674.901
672.834
676.288
676.11
676.504
675.432
678.543
681.265
683.475
686.418
689.558
692.361
695.016
696.593
698.057
698.646
698.982
699.395
699.829
700.696
701.41
702.316
703.419
703.362
704.339
704.488
704.62
703.443
702.146
701.005
703.557
699.988
699.791
698.137
699.571
700.301
700.858
653.125
656.626
655.973
654.949
657.228
659.794
660.789
661.299
661.805
662.639
664.378
666.83
670.3
673.653
676.076
678.619
681.126
681.871
681.685
681.674
681.88
682.127
682.025
683.785
685.991
687.346
687.08
689.486
689.701
688.977
686.013
687.895
688.311
684.276
683.261
682.042
681.395
681.805
682.451
683.451
642.75
643.768
643.642
644.083
643.715
644.404
644.806
645.332
646.029
647.392
649.382
651.471
653.659
656.612
658.017
661.33
663.907
664.073
664.023
664.052
664.254
664.989
667.184
668.39
667.748
670.238
670.079
673.265
677.009
673.461
671.712
667.775
668.574
667.887
667.602
667.675
667.846
667.829
666.54
668.112
622.79
631.133
628.566
627.614
629.19
629.561
629.684
629.978
630.791
632.419
632.022
631.585
633.544
636.459
639.003
641.874
645.37
645.611
644.699
644.904
645.898
647.657
647.772
648.914
651.303
649.684
655.424
653.245
656.403
656.062
651.651
653.582
654.309
653.712
653.326
653.091
652.746
650.601
650.626
650.1
606.54
620.285
610.562
610.622
611.169
611.056
610.487
609.538
609.476
608.698
606.985
610.759
615.311
618.984
621.41
623.148
625.128
625.189
625.629
628.453
626.404
626.214
628.659
630.927
631.708
631.536
638.804
637.081
636.778
637.072
634.91
635.08
636.507
634.963
638.282
638.054
635.199
635.262
633.263
633.871
588.397
590.77
591.343
592.087
592.632
592.511
591.508
589.632
587.681
588.486
591.33
594.999
598.716
602.427
605.634
608.054
608.662
608.697
608.814
609.236
608.206
606.249
607.275
609.09
611.319
613.255
623.982
619.301
618.374
617.95
616.448
615.922
615.696
616.496
615.777
616.789
617.083
615.508
617.27
616.364
570.077
572.723
573.661
574.009
574.324
574.391
573.964
574.216
574.139
575.137
577.546
580.534
583.956
587.371
590.163
591.776
592.274
592.678
593.202
593.42
593.247
591.811
590.669
591.259
594.288
596.103
605.167
600.97
599.083
597.747
596.513
594.398
593.911
593.28
593.852
594.958
596.016
598.143
599.462
599.94
549.652
552.57
553.909
554.745
555.365
555.976
557.268
558.923
559.439
559.919
565.289
565.187
567.857
570.688
572.697
573.724
574.659
575.837
577.306
578.416
577.817
576.816
576.721
574.974
577.912
579.599
581.338
581.634
579.401
577.95
575.139
573.34
571.046
571.113
571.513
572.186
573.514
575.544
577.506
579.006
526.323
535.286
531.577
533.859
535.943
537.782
538.701
542.433
543.352
542.714
546.998
547.621
548.17
549.903
551.889
553.897
555.886
557.872
559.758
561.284
562.144
561.963
560.022
561.313
558.422
560.451
558.986
561.28
557.266
555.236
552.2
550.386
547.917
546.896
546.301
546.731
548.436
550.631
552.92
554.544
506.133
512.333
514.74
512.854
516.34
519.553
519.875
523.053
525.702
523.553
524.725
525.506
526.208
527.738
529.298
531.072
533.249
535.09
536.534
538.254
539.644
539.983
540.218
542.047
540.906
540.591
540.941
538.082
539.002
533.304
531.073
528.94
527.669
526.789
526.385
527.708
527.408
527.472
528.565
531.297
488.001
492.122
494.426
495.023
497.64
497.813
500.744
504.555
503.971
506.829
503.674
503.807
504.657
506.265
508.452
510.183
513.301
512.855
512.868
513.498
515.906
518.064
519.394
519.852
519.876
520.082
520.155
519.29
519.263
518.393
516.623
513.862
512.907
511.939
511.028
510.444
511.057
518.14
516.511
519.018
471.574
477.064
478.719
480.102
481.253
482.124
482.287
485.633
486.579
485.924
486.507
487.205
487.163
488.718
490.731
493.002