/*--------------------------------*- C++ -*----------------------------------*\
  =========                 |
  \\      /  F ield         | OpenFOAM: The Open Source CFD Toolbox
   \\    /   O peration     | Website:  https://openfoam.org
    \\  /    A nd           | Version:  8
     \\/     M anipulation  |
\*---------------------------------------------------------------------------*/
FoamFile
{
    version     2.0;
    format      ascii;
    class       surfaceScalarField;
    location    "2.15";
    object      alphaPhi0.water;
}
// * * * * * * * * * * * * * * * * * * * * * * * * * * * * * * * * * * * * * //

dimensions      [0 3 -1 0 0 0 0];

internalField   nonuniform List<scalar> 
18095
(
1.95254e-08
-1.71905e-07
1.52379e-07
2.31694e-08
-1.98228e-07
1.94584e-07
2.02455e-08
-2.05986e-07
2.0891e-07
1.16275e-08
-2.10749e-07
2.19367e-07
8.97951e-10
-2.13449e-07
2.24178e-07
-1.005e-08
-2.13346e-07
2.24294e-07
-1.94492e-08
-2.10513e-07
2.19913e-07
-2.30922e-08
-2.05671e-07
2.09314e-07
-1.9522e-08
-1.9821e-07
1.9464e-07
-1.71943e-07
1.52421e-07
1.55654e-08
-1.8747e-07
1.5737e-08
-1.984e-07
1.18587e-08
-2.02108e-07
6.14415e-09
-2.05034e-07
-5.31346e-10
-2.06773e-07
-6.92518e-09
-2.06952e-07
-1.22165e-08
-2.05222e-07
-1.57479e-08
-2.0214e-07
-1.55483e-08
-1.98409e-07
-1.87491e-07
6.86422e-09
-1.94334e-07
8.27103e-09
-1.99807e-07
7.22615e-09
-2.01063e-07
4.36733e-09
-2.02175e-07
3.82535e-10
-2.02789e-07
-3.70828e-09
-2.02862e-07
-7.08043e-09
-2.0185e-07
-8.28394e-09
-2.00936e-07
-6.85679e-09
-1.99837e-07
-1.94348e-07
4.5702e-09
-1.98905e-07
4.69014e-09
-1.99927e-07
3.55498e-09
-1.99928e-07
1.84883e-09
-2.00469e-07
-1.79232e-10
-2.00761e-07
-2.26299e-09
-2.00778e-07
-3.77298e-09
-2.0034e-07
-4.68703e-09
-2.00022e-07
-4.56345e-09
-1.9996e-07
-1.98911e-07
1.09535e-09
1.16867e-09
1.241e-09
7.71848e-10
1.12466e-11
-7.66517e-10
-1.10641e-09
-1.12856e-09
-1.08869e-09
-2.58824e-08
-1.96989e-07
2.22871e-07
-2.83107e-08
-1.98622e-07
2.0105e-07
-2.32841e-08
-2.01307e-07
1.9628e-07
-1.21385e-08
-2.00528e-07
1.89383e-07
1.11053e-09
-2.01421e-07
1.88172e-07
1.435e-08
-2.02007e-07
1.88767e-07
2.47086e-08
-2.01546e-07
1.91187e-07
2.88269e-08
-2.01531e-07
1.97413e-07
2.60539e-08
-1.98895e-07
2.01668e-07
-1.97153e-07
2.23207e-07
-9.89373e-09
-1.87095e-07
-1.52293e-08
-1.93286e-07
-1.38448e-08
-2.02691e-07
-5.71272e-09
-2.0866e-07
1.56587e-09
-2.087e-07
8.26655e-09
-2.08707e-07
1.49068e-08
-2.08186e-07
1.57852e-08
-2.0241e-07
1.00816e-08
-1.93191e-07
-1.87072e-07
-1.0715e-08
-1.7638e-07
-8.32266e-09
-1.95679e-07
-5.58478e-09
-2.05429e-07
-3.57656e-09
-2.10669e-07
6.83303e-10
-2.1296e-07
4.64495e-09
-2.12669e-07
6.42783e-09
-2.09969e-07
8.97644e-09
-2.04958e-07
1.10158e-08
-1.95231e-07
-1.76056e-07
-7.04123e-09
-1.69339e-07
-9.38978e-09
-1.9333e-07
-9.07381e-09
-2.05745e-07
-4.12875e-09
-2.15614e-07
-1.08211e-10
-2.1698e-07
3.6405e-09
-2.16418e-07
8.29201e-09
-2.14621e-07
8.69399e-09
-2.0536e-07
6.75523e-09
-1.93292e-07
-1.69301e-07
-1.69599e-08
-1.57056e-08
-1.25409e-08
-8.78792e-09
-1.58976e-09
6.28677e-09
1.15785e-08
1.55324e-08
1.688e-08
3.31848e-08
-1.56702e-07
1.23517e-07
3.64313e-08
-1.98019e-07
1.94773e-07
2.63225e-08
-2.10017e-07
2.20126e-07
1.06432e-08
-2.16372e-07
2.32051e-07
-6.82054e-09
-2.18165e-07
2.35629e-07
-2.28498e-08
-2.18138e-07
2.34167e-07
-3.3919e-08
-2.16505e-07
2.27575e-07
-3.96934e-08
-2.10772e-07
2.16547e-07
-3.41558e-08
-1.9848e-07
1.92943e-07
-1.56829e-07
1.22673e-07
1.72665e-08
-1.73968e-07
2.06492e-08
-2.01402e-07
1.81356e-08
-2.07503e-07
1.18387e-08
-2.10075e-07
2.83929e-09
-2.09166e-07
-6.51124e-09
-2.08787e-07
-1.46634e-08
-2.08353e-07
-1.89019e-08
-2.06534e-07
-1.67168e-08
-2.00665e-07
-1.73546e-07
1.03213e-08
-1.8429e-07
9.74325e-09
-2.00824e-07
7.57514e-09
-2.05335e-07
2.1588e-09
-2.04659e-07
-2.29046e-09
-2.04717e-07
-6.33803e-09
-2.0474e-07
-9.85553e-09
-2.04836e-07
-1.09279e-08
-2.05462e-07
-1.08568e-08
-2.00736e-07
-1.84402e-07
7.74254e-09
-1.92032e-07
6.37915e-09
-1.9946e-07
6.52979e-09
-2.05486e-07
1.77109e-09
-1.999e-07
1.28517e-10
-2.03074e-07
-1.70947e-09
-2.02902e-07
-6.80841e-09
-1.99737e-07
-6.62433e-09
-2.05646e-07
-7.71859e-09
-1.99642e-07
-1.92121e-07
3.08392e-08
3.24291e-08
2.32236e-08
1.27061e-08
-2.19562e-09
-1.63301e-08
-2.48794e-08
-3.31121e-08
-3.10862e-08
-5.42357e-07
-1.12821e-07
6.57434e-07
-3.30909e-07
-1.99959e-07
-1.25081e-07
-1.88948e-07
3.72138e-08
-1.50183e-07
8.14486e-08
-3.35579e-08
1.25375e-07
-3.80441e-08
2.75811e-07
-1.46823e-07
3.54201e-07
-1.07925e-07
3.96804e-07
6.13597e-09
1.25436e-08
4.92673e-07
-6.95881e-08
-1.50871e-07
1.65981e-07
3.06537e-08
-1.94736e-07
1.21331e-07
-1.61048e-07
1.93638e-07
-2.96445e-07
1.42405e-07
-4.88376e-08
1.07725e-07
6.0739e-09
1.14138e-07
-2.608e-08
8.02803e-08
-2.73895e-08
8.10517e-08
5.33119e-09
1.34456e-08
2.01081e-07
1.04286e-07
-2.57215e-07
-3.93937e-08
1.50905e-07
-3.66924e-07
1.91044e-07
-2.63295e-07
1.16736e-07
-2.1178e-07
7.51844e-08
-4.71005e-08
7.44357e-08
7.22786e-09
5.37174e-08
-5.40307e-09
3.63149e-08
-1.00177e-08
3.89723e-08
2.64429e-09
2.7009e-08
1.10009e-07
-6.85614e-08
-4.16861e-07
8.76862e-08
-2.22831e-08
-3.95446e-07
3.13818e-09
-1.54218e-07
-3.7667e-09
-6.4773e-08
6.4647e-10
-2.80756e-08
2.10502e-08
-1.31898e-08
3.4417e-08
-1.88006e-08
3.86814e-08
-1.4312e-08
3.16784e-08
9.61506e-09
5.04745e-08
1.05788e-07
-5.40112e-07
-5.38015e-07
5.68562e-07
-3.1416e-07
-2.58636e-07
-1.2422e-07
-8.30454e-08
-1.37174e-07
-6.19175e-08
-9.7319e-08
-7.03941e-08
-6.56916e-08
-4.43845e-08
-4.09859e-08
-4.35203e-08
-1.67676e-08
-3.85611e-08
-4.30794e-09
-2.87684e-09
3.25325e-08
3.35673e-08
-5.79459e-07
-3.45208e-07
7.54322e-07
-1.86518e-07
-2.13774e-07
-1.88398e-07
-1.06316e-07
-1.80206e-07
-1.62307e-07
-2.52024e-07
-2.9435e-07
-2.30935e-07
-2.37828e-07
-1.44229e-07
-1.37121e-07
-9.49395e-08
-8.81712e-08
-3.85868e-08
-5.99522e-08
-4.08179e-08
-8.59968e-09
-4.12833e-07
-2.04979e-07
4.69227e-07
-6.37084e-08
-1.78242e-07
-2.18371e-07
-1.73588e-07
-5.69567e-07
-3.33309e-07
-4.86873e-07
-3.60313e-07
-3.52741e-07
-3.34928e-07
-2.74516e-07
-2.97056e-07
-1.8895e-07
-2.97318e-07
-1.02009e-07
-3.07052e-07
-3.00864e-07
2.4866e-10
-2.77822e-07
-2.03802e-07
2.71533e-07
-2.90825e-07
-1.75462e-07
-3.49287e-07
-1.73792e-07
-3.78624e-07
-2.76715e-07
-3.35709e-07
-3.82783e-07
-2.28797e-07
-3.47848e-07
-1.45556e-07
-3.18417e-07
-7.63801e-08
-3.37536e-07
-5.42378e-09
-3.61245e-07
-4.09329e-07
1.08867e-07
-2.64892e-07
-2.07514e-07
2.58381e-07
-2.56176e-07
-1.944e-07
-2.30009e-07
-2.10182e-07
-2.08715e-07
-3.07747e-07
-1.69354e-07
-2.78401e-07
-1.07699e-07
-2.20866e-07
-5.6307e-08
-1.95738e-07
-1.09058e-08
-2.01363e-07
5.45646e-08
-2.03829e-07
-2.03449e-07
1.43888e-07
-2.80528e-07
-2.74791e-07
3.42693e-07
-2.77807e-07
-2.07344e-07
-2.73617e-07
-2.91909e-07
-2.58666e-07
-4.5261e-07
-2.06439e-07
-3.43427e-07
-1.6031e-07
-2.77323e-07
-1.08802e-07
-2.57231e-07
-5.64956e-08
-2.64807e-07
-7.13592e-09
-2.63498e-07
-2.41491e-07
2.20563e-08
-3.94925e-07
-2.90328e-07
5.42272e-07
-3.02357e-07
-3.29816e-07
-4.78059e-07
-4.58371e-07
-4.23429e-07
-4.75156e-07
-4.30042e-07
-5.47665e-07
-2.71178e-07
-5.30325e-07
-1.92116e-07
-3.46621e-07
-1.42136e-07
-3.24766e-07
-9.37114e-08
-3.2306e-07
-4.30573e-07
-8.1462e-08
-3.31799e-07
-1.6683e-07
2.84197e-07
-3.75886e-07
-1.24373e-07
-4.54466e-07
-3.47707e-07
-4.93607e-07
-4.24175e-07
-5.06793e-07
-5.03296e-07
-4.26304e-07
-5.55552e-07
-3.59717e-07
-6.24e-07
-1.70108e-07
-6.22135e-07
-1.99646e-07
-5.14218e-07
-7.48338e-07
-3.21732e-07
7.20539e-09
-1.20116e-07
-8.9402e-08
-8.41438e-08
-6.58108e-09
-1.38511e-07
-3.091e-08
-2.46531e-07
-3.71653e-08
-3.36403e-07
-2.31799e-07
-3.96115e-07
-5.44848e-07
-4.46028e-07
-6.23677e-07
-4.21239e-07
-7.23098e-07
-3.93161e-07
-7.7597e-07
-8.6205e-07
-3.80937e-07
4.61039e-08
-5.89679e-08
-1.52409e-07
3.02233e-08
8.86388e-09
9.80598e-10
-1.67535e-09
-1.52933e-08
-2.10598e-08
-1.87774e-08
-2.80376e-08
-9.57979e-08
-2.61994e-08
-2.31717e-07
-2.20386e-07
-3.26621e-07
-6.37307e-07
-3.552e-07
-8.06224e-07
-9.20184e-07
-3.57591e-07
1.24433e-09
-2.34851e-08
-4.45927e-08
1.13446e-08
1.16445e-09
1.06885e-08
-1.1877e-09
4.62726e-09
-1.51553e-08
2.49225e-09
-2.60435e-08
8.84946e-10
-2.47488e-08
-5.95633e-09
-2.69118e-08
-9.79339e-08
-7.65388e-08
-2.1813e-07
-6.65777e-07
-8.90239e-07
-2.99629e-07
1.85122e-09
-1.40859e-08
-1.50397e-08
6.99143e-09
-4.84027e-09
1.07491e-08
-5.40642e-09
7.55252e-09
-1.21273e-08
4.10579e-09
-2.27536e-08
1.8797e-09
-2.26519e-08
-1.42138e-10
-2.50418e-08
-1.55697e-08
-3.10636e-08
-1.35093e-07
-2.15957e-07
-7.69422e-07
-2.54353e-07
0
-8.15516e-08
-7.58024e-08
7.62941e-09
-2.25902e-08
1.24213e-08
-1.10596e-08
8.79945e-09
-8.89496e-09
5.77901e-09
-2.06e-08
3.65235e-09
-2.06771e-08
9.34282e-10
-2.24435e-08
-5.37665e-09
-2.48e-08
-9.78465e-08
-7.59988e-08
-6.51088e-07
-2.02002e-07
1.89381e-07
-1.46687e-07
-2.72257e-07
1.21474e-07
-1.63032e-07
8.57712e-08
-1.73069e-07
2.35892e-08
-1.45315e-07
1.07888e-10
-5.3309e-08
4.10705e-09
-2.50533e-08
8.62231e-09
-1.68486e-08
0
-2.58654e-08
-5.68598e-08
-3.28942e-08
-4.90979e-07
-1.54999e-07
4.57394e-07
-2.29311e-07
-4.56284e-07
5.13683e-07
-2.18099e-07
5.62617e-07
-2.24832e-07
1.53591e-07
-1.80392e-07
0
-4.23413e-08
3.32544e-09
-3.12918e-08
6.81024e-09
-3.06747e-08
1.16986e-08
-1.07623e-08
-5.1239e-09
-1.30795e-08
-3.30043e-07
-8.51601e-08
4.98812e-07
-2.76333e-07
-4.50706e-07
5.65721e-07
-2.84186e-07
6.03712e-07
-2.61845e-07
7.23625e-08
-9.85092e-08
1.56852e-09
-2.16472e-08
7.73068e-09
-2.28001e-08
2.02611e-08
-1.57965e-08
1.45803e-08
-4.66942e-09
1.74386e-08
-3.08327e-09
-2.02242e-07
-5.04467e-09
4.82232e-07
-2.78383e-07
-4.77958e-07
4.9192e-07
-2.92957e-07
2.95218e-07
-2.86922e-07
0
-9.6196e-08
0
-1.07747e-08
7.01863e-09
-8.23395e-09
7.29551e-09
-7.00835e-09
4.80147e-09
-2.18181e-09
2.70437e-09
-9.90975e-10
-1.1024e-07
1.27812e-08
4.91898e-07
-2.57709e-07
-4.96513e-07
4.80691e-07
-2.79526e-07
4.13292e-07
-2.74863e-07
2.14619e-08
-1.5902e-07
1.38856e-08
-1.19263e-08
8.15459e-09
-2.62179e-09
3.47333e-09
-2.33469e-09
3.00895e-09
-1.72124e-09
4.49257e-09
-2.479e-09
-1.49097e-08
1.10377e-08
5.15561e-07
-2.27268e-07
-3.84047e-07
5.00984e-07
-2.63691e-07
4.95951e-07
-2.70777e-07
1.01482e-07
-1.65342e-07
1.50889e-08
-9.60342e-09
1.06768e-08
1.47936e-09
7.51936e-09
8.00056e-10
7.77611e-09
-1.98327e-09
9.651e-09
-4.35547e-09
-6.75305e-09
4.31174e-08
5.60245e-07
-2.0684e-07
-4.12639e-07
5.28997e-07
-2.28102e-07
4.97326e-07
-2.37848e-07
8.84794e-08
-1.44035e-07
1.21039e-08
-3.19323e-09
1.01564e-08
3.24324e-09
8.54996e-09
2.3689e-09
7.8767e-09
-1.33274e-09
9.34012e-09
-5.82417e-09
-8.03371e-09
1.05991e-08
5.9408e-07
-1.80941e-07
-6.18535e-07
5.66329e-07
-1.97458e-07
4.95215e-07
-1.62393e-07
3.43709e-08
-4.44663e-08
9.11529e-09
5.68458e-09
6.69845e-09
5.61629e-09
5.13084e-09
3.85089e-09
5.01e-09
-1.24948e-09
9.96161e-09
-1.07971e-08
-2.0803e-08
2.26549e-08
6.03145e-07
-1.51704e-07
-6.31962e-07
5.36283e-07
-1.29153e-07
1.86483e-07
-3.50444e-08
5.58184e-09
4.92856e-09
1.21444e-09
1.00114e-08
-1.12812e-09
7.81705e-09
-1.21982e-10
2.73348e-09
6.30289e-09
-7.75562e-09
2.47136e-08
-2.96846e-08
-8.79867e-08
9.08873e-08
4.78653e-07
-8.77698e-08
-5.42868e-07
1.20043e-07
-1.05195e-08
1.15649e-09
5.24162e-09
-4.9597e-09
1.0756e-08
-5.95452e-09
1.10604e-08
-7.84878e-09
9.72235e-09
7.24507e-09
-1.53387e-08
1.32432e-07
-2.34698e-07
3.59937e-07
-4.50582e-07
-4.57893e-07
5.56176e-07
3.77267e-08
2.80987e-09
-3.96016e-07
2.25513e-10
7.63881e-09
-6.07783e-09
1.1447e-08
-7.48774e-09
1.20966e-08
-6.97376e-09
1.05799e-08
4.33118e-09
-1.33647e-09
3.19201e-07
-4.77257e-07
4.71923e-07
-6.4478e-07
6.63685e-07
-6.8302e-07
-6.06149e-07
7.89588e-07
-3.24416e-09
7.94689e-09
-2.1444e-09
-6.64769e-09
1.09918e-08
-7.23701e-09
1.2055e-08
-6.49941e-09
1.13384e-08
-3.54819e-09
7.59661e-09
2.50775e-07
-2.8238e-07
5.32833e-07
-7.71885e-07
7.0189e-07
-8.24668e-07
7.30988e-07
-6.70148e-07
-1.791e-07
3.89635e-07
-5.24526e-09
1.03548e-08
2.82468e-09
-6.35907e-09
1.20991e-08
-5.86625e-09
1.15662e-08
-1.00001e-09
6.49086e-09
1.34664e-07
-3.76453e-08
4.74182e-07
-6.08844e-07
7.06911e-07
-1.00566e-06
4.62376e-07
-5.65478e-07
2.16603e-07
-1.00509e-07
-1.71616e-08
5.429e-08
-2.53823e-09
8.82662e-09
4.06251e-09
-2.12881e-09
1.16881e-08
2.1226e-09
7.31343e-09
1.03215e-07
1.14953e-08
3.25395e-07
-1.69604e-07
6.12663e-07
-9.07982e-07
5.51147e-07
-9.5123e-07
9.45393e-08
-1.37315e-07
1.74645e-08
-2.37837e-08
-3.68933e-09
3.71252e-09
1.45958e-10
3.54471e-09
5.13433e-09
6.24038e-09
5.59233e-09
8.70218e-09
4.85001e-09
2.38225e-07
7.52523e-08
4.49747e-07
-3.73427e-07
6.48568e-07
-1.10745e-06
1.60756e-07
-7.72556e-07
2.13719e-08
-4.45411e-08
3.24833e-09
-5.92854e-09
-1.43591e-09
1.07831e-09
4.76151e-09
1.34742e-08
-1.46945e-08
5.47948e-09
4.87317e-09
1.47648e-07
9.43034e-08
1.73074e-07
1.08533e-07
4.50625e-07
-6.78153e-07
4.56721e-07
-1.15074e-06
3.60166e-08
-5.12046e-07
4.70202e-09
-1.71753e-08
6.53253e-10
-1.67365e-09
-9.47599e-10
3.0639e-10
8.69298e-08
1.97084e-07
-1.13024e-07
9.74202e-08
1.64492e-07
1.2673e-07
1.49461e-07
9.7771e-08
1.37122e-07
2.87028e-07
-9.45903e-07
2.08144e-07
-1.17491e-06
1.06069e-08
-3.51333e-07
4.12798e-10
-7.09631e-09
1.48343e-10
-1.03943e-09
-7.94385e-10
1.42329e-10
1.27461e-07
1.79087e-07
-1.09745e-07
1.28989e-07
1.63276e-07
1.137e-07
1.65126e-07
1.05034e-07
1.45916e-07
1.8925e-07
-1.09308e-06
1.21928e-07
-1.11377e-06
0
-2.40137e-07
0
-5.19354e-09
-6.11873e-11
-5.81761e-10
-7.55075e-10
0
2.46031e-08
1.48359e-07
6.16343e-09
5.42177e-08
1.33888e-07
6.9101e-08
1.50573e-07
7.47925e-08
1.27251e-07
1.22302e-07
-1.07185e-06
7.63575e-08
-1.02698e-06
0
-1.69619e-07
0
-3.28888e-09
0
-3.15312e-10
-4.27102e-10
-2.84086e-10
-1.11924e-07
8.66313e-08
1.7363e-07
-1.93054e-08
3.16629e-08
4.03492e-08
7.59054e-08
6.15171e-08
9.28299e-08
6.65224e-08
-1.04298e-06
5.62027e-08
-9.97319e-07
0
-1.11694e-07
-8.43449e-10
4.30006e-10
-6.47594e-10
-3.16036e-10
-2.55572e-11
-1.06162e-09
-6.91467e-08
2.93357e-08
1.28232e-07
-3.02598e-08
-5.45677e-10
1.26947e-08
2.95399e-08
2.61091e-08
6.68642e-08
4.16007e-08
-1.02677e-06
4.25152e-08
-9.8491e-07
-9.14006e-09
-5.96912e-08
-4.02157e-09
4.57413e-09
-1.75595e-10
7.87409e-10
-9.3152e-13
-2.06114e-10
7.54492e-08
-1.08857e-08
-4.3639e-08
3.84407e-08
2.02363e-09
8.21777e-09
4.08814e-08
1.81357e-08
1.75117e-09
1.24837e-08
-9.51461e-07
2.90511e-08
-9.87246e-07
-2.01686e-08
-5.86179e-09
-1.11687e-08
5.99331e-09
-1.49094e-11
8.71664e-09
3.07344e-12
-2.32392e-11
-1.56971e-09
-1.57974e-09
5.11255e-10
-7.60823e-09
1.02237e-09
0
4.70002e-09
-1.58234e-08
-1.27025e-11
-6.30338e-11
-9.37191e-07
-9.73647e-09
-9.47279e-07
-1.08058e-08
-4.37683e-10
-8.62641e-09
5.31298e-09
-7.16797e-09
1.10037e-08
1.49692e-09
-9.90818e-12
-7.5375e-09
-2.90905e-10
7.31888e-09
-4.72773e-09
0
-4.48592e-12
0
6.48474e-11
-7.0631e-11
8.55346e-09
-9.1528e-07
-2.65098e-09
-9.1183e-07
-2.74541e-09
-5.26162e-11
-4.70378e-09
8.59815e-09
-4.75984e-09
1.13342e-08
1.04215e-08
-2.35955e-12
-5.11428e-10
-2.49735e-11
5.16995e-10
-2.48513e-10
-2.58923e-11
0
-4.88471e-11
2.02272e-11
-1.21633e-10
6.76364e-09
-8.98079e-07
1.9155e-09
-8.96882e-07
0
-7.77737e-12
-1.48895e-09
1.03976e-08
-1.15997e-09
1.1237e-08
9.30659e-09
2.01214e-10
-1.25571e-10
5.53521e-12
5.74356e-11
-7.37386e-11
-3.64451e-11
0
-5.21941e-11
1.01374e-10
-2.47036e-10
-3.06337e-09
-9.42863e-07
-5.60798e-12
-9.37268e-07
0
-5.36584e-11
-1.24395e-09
8.49358e-09
-8.15326e-10
1.1059e-08
3.12952e-09
3.09117e-10
-1.77081e-10
-9.60062e-11
3.50098e-10
-1.06411e-11
-2.17641e-12
2.47975e-11
-1.32531e-11
5.92343e-10
-8.92491e-10
-1.39199e-09
-1.02707e-06
-4.81578e-10
-1.02685e-06
0
-5.59134e-10
5.12116e-09
5.87454e-10
2.98287e-09
4.89767e-10
0
1.64659e-10
-1.50195e-11
-5.68826e-12
1.19956e-10
-1.55212e-11
-1.5162e-11
-1.16657e-11
-3.07225e-11
2.25983e-09
-3.18446e-09
-8.29843e-11
-1.06183e-06
-1.99666e-09
-1.06144e-06
4.56065e-11
-2.6956e-09
3.97239e-10
5.24915e-11
5.68016e-10
6.77711e-11
3.18073e-11
2.61293e-10
-2.01158e-11
-7.94591e-12
9.84581e-12
0
-1.45796e-10
0
-4.29454e-11
1.45431e-10
-1.05878e-08
1.78239e-09
-1.05219e-06
-4.8938e-10
-1.05421e-06
6.20066e-11
-1.10397e-08
8.76076e-12
-1.04099e-11
5.88919e-11
9.32778e-12
1.13695e-11
7.90882e-11
-2.15668e-11
-1.62534e-11
1.97882e-12
0
-1.37827e-10
1.61058e-10
-8.11932e-11
1.03751e-08
-3.84181e-08
1.70477e-08
-1.044e-06
1.32847e-08
-1.04766e-06
1.84524e-11
-3.34517e-08
7.23172e-12
-1.11976e-11
1.20686e-11
2.0305e-12
2.94227e-12
1.98168e-11
-1.37471e-11
-6.50715e-11
2.51858e-12
0
-1.40317e-10
-4.03479e-12
-2.66322e-11
-2.57675e-08
-5.46705e-08
-2.4093e-08
-1.04323e-06
-1.65853e-08
-1.03818e-06
-1.67675e-10
-6.67263e-08
2.28755e-12
-1.8362e-10
4.33737e-12
-6.98434e-13
4.52209e-13
6.14831e-12
-6.4391e-11
-1.363e-10
1.17494e-10
0
-4.28853e-11
2.44026e-11
-5.99239e-11
2.02835e-08
-7.21614e-08
2.95612e-08
-1.0346e-06
3.45181e-08
-1.03999e-06
1.70628e-10
-7.12018e-08
3.80147e-12
-2.47896e-11
3.35793e-12
-2.69276e-12
-3.71871e-12
6.84978e-12
-2.1438e-11
-3.03522e-11
5.75411e-11
-2.38869e-12
-6.79025e-11
-7.26382e-11
-2.71632e-11
-1.07111e-08
-7.22492e-08
-7.75133e-09
-1.03199e-06
-9.37745e-09
-1.02923e-06
-1.27423e-10
-7.42461e-08
5.24253e-14
-1.85782e-10
6.48813e-12
-5.09756e-12
-9.7374e-12
2.51678e-11
-2.22124e-11
-1.05271e-11
2.36511e-12
0
-3.01765e-10
2.02835e-11
-6.83135e-11
1.61945e-08
-6.55987e-08
2.4543e-08
-1.02441e-06
2.6733e-08
-1.02822e-06
1.80659e-10
-6.39853e-08
0
-5.52318e-12
1.69987e-11
-2.97576e-11
-1.29872e-10
4.87137e-11
3.8638e-13
-3.51759e-11
1.00077e-12
1.17218e-11
-3.01883e-10
-3.25352e-11
-2.28996e-11
-1.28514e-08
-3.74081e-08
-1.37865e-08
-1.0166e-06
-1.11564e-08
-1.01698e-06
-3.75638e-12
-3.72594e-08
-3.17937e-12
-5.51957e-12
-3.96353e-12
-6.45982e-11
-1.65169e-10
3.16371e-11
2.39506e-11
-1.74636e-10
-2.52899e-12
5.81085e-11
-3.24347e-10
5.98837e-11
-1.90368e-11
5.31395e-09
-1.51799e-08
1.8677e-09
-1.00263e-06
-1.198e-09
-1.0007e-06
-8.55354e-12
-1.53911e-08
-8.40518e-12
-4.65463e-12
-2.95838e-11
-6.60779e-11
-1.88936e-10
-6.20228e-12
6.1823e-11
-2.878e-10
-1.61183e-11
8.24057e-11
-3.33754e-10
8.20927e-11
-1.31101e-11
4.96754e-09
-6.01361e-09
1.63754e-09
-9.75117e-07
-4.04488e-09
-9.75696e-07
-9.0227e-12
-5.49407e-09
-9.36129e-12
-3.58701e-12
-2.73748e-11
-3.06431e-11
-1.8104e-10
-3.5961e-11
5.89221e-11
-3.07627e-10
-2.28948e-11
8.3228e-11
-3.45325e-10
7.57393e-11
-5.89691e-12
4.83036e-09
-3.28057e-09
1.30081e-09
-9.50058e-07
-3.83149e-09
-9.49255e-07
-4.72772e-12
-2.41592e-09
-4.70558e-12
-2.89669e-12
-1.9108e-11
-7.73179e-12
-7.07846e-11
-5.06012e-11
4.13439e-11
-2.85178e-10
-4.41119e-11
2.57306e-11
-1.58186e-10
2.36078e-11
-4.27286e-12
3.77601e-09
-3.59119e-09
-2.51605e-09
-9.32063e-07
-5.6602e-09
-9.3101e-07
-2.05628e-12
-2.33573e-09
-1.52198e-12
-2.61635e-12
-2.22552e-13
-4.66232e-12
-2.21125e-11
-1.85758e-11
1.01269e-11
-8.90781e-11
-3.88806e-11
4.2839e-12
-4.42046e-12
3.82177e-12
-3.80735e-12
5.23534e-09
-2.90833e-09
2.82979e-09
-9.18799e-07
-3.83391e-09
-9.18196e-07
-5.72531e-12
-3.16339e-09
-5.4962e-12
-2.16028e-12
-1.63458e-12
-1.5202e-11
-3.03265e-11
-9.43812e-12
1.32826e-12
-1.03174e-11
-1.14108e-11
2.30305e-13
-3.31406e-12
1.87339e-13
-3.78822e-12
6.49437e-09
-3.62526e-09
4.35442e-09
-9.20141e-07
-2.31617e-09
-9.23647e-07
-1.05397e-11
-4.16522e-09
-1.07949e-11
-1.30133e-12
-3.32164e-11
-1.46847e-11
-1.0213e-11
-4.65432e-11
1.03278e-12
-1.5406e-11
-1.12287e-11
4.09621e-13
-2.71726e-12
2.77739e-13
-3.6511e-12
3.80476e-09
-6.62221e-09
-8.82151e-10
-9.36622e-07
-4.65005e-09
-9.36159e-07
-1.10585e-11
-7.36511e-09
-1.11199e-11
-7.74102e-13
-3.28936e-14
-5.6985e-12
1.25864e-13
-4.51922e-11
1.40337e-12
-1.03255e-11
-3.94734e-11
7.85637e-13
-2.14173e-12
4.99241e-13
-3.39049e-12
3.22251e-09
-1.69424e-08
-3.70526e-09
-9.54074e-07
-6.60648e-09
-9.51813e-07
-6.34893e-12
-1.77722e-08
-6.47283e-12
-4.63972e-13
0
3.82208e-12
5.63223e-12
-1.50341e-11
1.51852e-12
-2.47691e-12
-1.97865e-11
5.58696e-13
-1.22221e-12
3.87426e-13
-3.26143e-12
5.44876e-09
-3.23175e-08
6.95903e-10
-9.66763e-07
-4.20005e-09
-9.67382e-07
-7.89967e-13
-3.30952e-08
-8.18254e-13
-4.46491e-13
-9.6338e-13
1.47464e-11
9.49617e-12
-8.41589e-12
9.94822e-14
-1.1004e-12
-1.82621e-12
3.77731e-13
-1.53939e-12
4.21177e-13
-3.34201e-12
4.29058e-09
-4.72138e-08
-3.37394e-10
-9.76128e-07
-4.99276e-09
-9.75128e-07
-3.66793e-14
-4.73623e-08
0
-4.95385e-13
6.44126e-13
3.13425e-11
1.20425e-11
-5.49077e-12
2.96572e-13
-4.90733e-13
-9.86157e-13
1.01603e-12
-2.65423e-11
1.45937e-12
-3.82428e-12
4.79608e-09
-5.83449e-08
-1.82308e-10
-9.77838e-07
-4.6705e-09
-9.77949e-07
-8.04022e-14
-5.87246e-08
0
-5.86774e-13
2.82107e-12
4.8542e-11
1.59769e-11
-4.70195e-12
5.22128e-13
-2.43659e-13
-8.42379e-13
5.94163e-12
-6.52248e-11
6.13433e-12
-4.08407e-12
4.8019e-09
-6.57134e-08
-6.44489e-12
-9.74558e-07
-4.7711e-09
-9.75212e-07
-4.04923e-13
-6.61277e-08
0
-1.00542e-12
-8.84553e-12
5.30488e-11
1.2212e-10
-9.18991e-12
2.18924e-13
-5.19435e-13
-9.52207e-14
4.16131e-12
-6.78073e-11
4.66595e-12
-4.78552e-12
4.9713e-09
-6.96747e-08
5.94314e-10
-9.67741e-07
-4.6879e-09
-9.68028e-07
-5.58728e-12
-7.00167e-08
-5.95538e-12
-6.87697e-13
-1.28149e-11
6.52868e-11
1.28163e-10
-1.43158e-11
1.63649e-12
-8.00901e-12
1.08436e-13
7.69643e-12
-7.18806e-11
8.10715e-12
-5.62805e-12
5.3639e-09
-7.20641e-08
-1.3335e-09
-9.57064e-07
-5.78635e-09
-9.58324e-07
-2.35701e-13
-7.21233e-08
0
-1.06551e-12
-1.38853e-11
7.74086e-11
1.21164e-10
-5.36859e-12
2.4029e-11
-3.135e-11
-3.90014e-13
2.70036e-11
-7.36292e-11
2.74004e-11
-4.02635e-12
4.31955e-09
-7.3555e-08
-3.16399e-09
-9.46337e-07
-7.58583e-09
-9.45262e-07
-3.05521e-12
-7.30932e-08
-3.50237e-12
-7.37261e-13
-5.74492e-12
1.38686e-11
1.19118e-10
-9.34111e-13
3.64545e-11
-5.24887e-11
-1.41873e-11
2.84818e-11
-6.80933e-11
2.7549e-11
-1.85993e-12
3.2375e-09
-7.39223e-08
-6.10747e-09
-9.33659e-07
-9.03864e-09
-9.31978e-07
-2.755e-13
-7.37748e-08
-3.53601e-13
-7.18595e-13
1.20296e-12
1.50647e-12
1.24662e-10
7.06627e-12
2.34114e-11
-7.34101e-11
-1.36134e-12
1.21529e-11
-5.66754e-11
1.18333e-11
-1.14396e-12
6.2771e-09
-7.49087e-08
-1.86057e-09
-9.18986e-07
-7.6228e-09
-9.18885e-07
-3.90825e-14
-7.48222e-08
-2.79204e-14
-7.89851e-13
1.29649e-12
1.22629e-13
1.49021e-11
3.89081e-11
2.03937e-11
-7.85776e-11
-1.40977e-11
7.3234e-12
-2.68836e-11
6.90169e-12
-6.22359e-13
7.29963e-09
-7.71919e-08
2.89218e-10
-9.06744e-07
-7.0003e-09
-9.06755e-07
-8.86229e-13
-7.70754e-08
-8.6396e-13
-8.11507e-13
2.76487e-12
-3.51005e-13
6.82048e-12
1.41337e-12
1.79455e-11
-4.45302e-11
-4.33076e-11
4.50847e-12
-1.89178e-12
4.02573e-12
-1.41493e-13
8.00394e-09
-8.33936e-08
-2.87269e-10
-8.97406e-07
-8.26001e-09
-8.97154e-07
-2.16576e-12
-8.30728e-08
-2.21399e-12
-7.17464e-13
6.68351e-14
-1.74409e-12
4.12259e-12
2.68899e-12
-1.69495e-13
-7.07334e-13
-1.24858e-11
3.67125e-14
-9.46744e-14
3.33932e-14
-1.43793e-13
8.08818e-09
-9.33255e-08
1.31831e-10
-8.91881e-07
-7.96365e-09
-8.91483e-07
-2.60301e-12
-9.30657e-08
-2.75696e-12
-5.42153e-13
0
-3.00083e-12
3.46582e-12
5.79707e-13
5.49582e-15
3.8715e-13
-4.5093e-12
9.83694e-15
-1.05468e-13
1.00531e-14
-1.49675e-13
8.9496e-09
-1.08765e-07
-5.80066e-10
-8.88186e-07
-9.41798e-09
-8.87884e-07
-1.82151e-12
-1.08781e-07
-1.92024e-12
-4.44609e-13
-4.27455e-15
-2.96471e-12
2.76293e-12
6.22877e-13
0
1.07126e-12
-3.04092e-12
3.39123e-14
-8.55319e-14
3.11647e-14
-1.52547e-13
8.90964e-09
-1.27432e-07
-3.90928e-10
-8.85887e-07
-9.64131e-09
-8.84754e-07
-1.62049e-12
-1.27565e-07
-1.7499e-12
-3.3266e-13
-9.51869e-13
-2.90278e-12
1.63495e-11
5.22339e-13
0
5.00979e-12
-3.57598e-12
3.88509e-14
-6.6513e-14
3.61695e-14
-1.5519e-13
9.45109e-09
-1.45712e-07
-7.39011e-10
-8.80941e-07
-9.80519e-09
-8.80464e-07
-1.16373e-12
-1.45999e-07
-1.29896e-12
-2.16757e-13
-2.08887e-12
-1.87923e-12
1.48233e-11
-1.20291e-12
0
5.35291e-12
-4.4508e-12
3.85516e-14
-7.2596e-14
3.56879e-14
-1.57387e-13
9.52398e-09
-1.60442e-07
-4.11549e-10
-8.73637e-07
-9.9044e-09
-8.7334e-07
-6.22056e-13
-1.60927e-07
-7.14478e-13
-1.38921e-13
-3.22682e-12
-2.99323e-13
1.14389e-11
-6.72586e-13
0
2.22653e-12
-7.85969e-13
3.87009e-14
-8.42368e-14
3.558e-14
-1.5968e-13
1.03146e-08
-1.71003e-07
-6.72077e-10
-8.62589e-07
-1.04414e-08
-8.63594e-07
-7.43172e-14
-1.71692e-07
-9.5329e-14
-1.29215e-13
-1.32081e-12
-2.27665e-14
9.26178e-12
0
0
1.73324e-13
-7.7664e-14
3.69019e-14
-8.28875e-14
3.32447e-14
-1.61649e-13
1.05745e-08
-1.77317e-07
8.13667e-11
-8.49903e-07
-1.04401e-08
-8.51184e-07
-9.26906e-15
-1.78071e-07
-1.72479e-14
-1.32524e-13
-2.19529e-14
-2.9349e-14
1.20695e-12
0
2.13412e-15
1.24878e-14
-5.34963e-14
4.25814e-14
-7.35691e-14
4.18069e-14
-1.66148e-13
1.19836e-08
-1.823e-07
-1.21018e-10
-8.34478e-07
-1.17983e-08
-8.36547e-07
-4.12475e-14
-1.8296e-07
-2.91942e-14
-1.55883e-13
0
-9.08957e-14
1.34422e-13
3.39947e-13
7.53312e-14
5.51372e-14
0
4.39296e-14
0
7.33167e-14
-2.00336e-13
1.23617e-08
-1.86446e-07
4.23599e-10
-8.18902e-07
-1.23094e-08
-8.20477e-07
-3.16995e-13
-1.86956e-07
-3.06266e-13
-1.77648e-13
-1.45568e-14
-4.66944e-13
1.78877e-14
-1.04014e-14
1.08189e-13
7.87626e-14
-1.31711e-14
1.34649e-13
0
3.63418e-13
-4.3352e-13
1.37134e-08
-1.91323e-07
-3.88969e-10
-8.01326e-07
-1.39952e-08
-8.03577e-07
-4.11234e-13
-1.9185e-07
-4.10726e-13
-1.89191e-13
-2.31017e-13
-7.62272e-13
1.44592e-13
-9.80475e-15
1.40636e-13
4.27349e-15
-1.45211e-14
1.81628e-12
-1.32937e-12
2.73182e-12
-1.35326e-12
1.50921e-08
-1.96617e-07
6.39247e-10
-7.83795e-07
-1.44719e-08
-7.85691e-07
-2.25135e-13
-1.97004e-07
-2.39832e-13
-1.86073e-13
-7.01948e-13
-3.00276e-13
-2.06544e-14
-4.65331e-14
6.09004e-14
-4.9111e-14
-8.5939e-15
1.19359e-11
-1.2035e-11
1.2892e-11
-2.31471e-12
1.69168e-08
-2.0327e-07
6.21748e-10
-7.65114e-07
-1.55411e-08
-7.67332e-07
-8.94433e-14
-2.03472e-07
-9.40473e-14
-1.93018e-13
-1.39285e-14
-3.37516e-13
-5.11509e-14
-6.10672e-14
5.74181e-12
-2.24097e-12
-1.24472e-14
1.68945e-11
-2.3554e-11
1.83299e-11
-3.78325e-12
1.682e-08
-2.13876e-07
-4.16697e-10
-7.47104e-07
-1.8134e-08
-7.48241e-07
-1.64303e-13
-2.14679e-07
-1.70636e-13
-1.97542e-13
-5.19172e-14
-3.28547e-13
-2.19492e-13
-2.3057e-14
1.79644e-11
-9.33434e-12
-1.74846e-12
2.36217e-11
-2.99023e-11
2.42693e-11
-4.49874e-12
1.99631e-08
-2.36114e-07
9.9653e-10
-7.28736e-07
-1.96742e-08
-7.28181e-07
-1.25571e-13
-2.37128e-07
-1.27144e-13
-2.05984e-13
-1.55835e-13
-3.42958e-13
-1.89585e-13
-1.57333e-13
1.97397e-11
-1.93896e-11
-9.52849e-12
1.9903e-11
-2.68771e-11
1.94203e-11
-4.02849e-12
2.46921e-08
-2.73393e-07
3.58594e-09
-7.08895e-07
-1.9966e-08
-7.06632e-07
-1.53418e-13
-2.73595e-07
-1.32737e-13
-2.36943e-13
-2.76406e-13
-5.23213e-13
-8.40236e-13
-2.9653e-13
1.18844e-11
-2.8499e-11
-2.61901e-12
9.38776e-12
-1.98143e-11
8.8287e-12
-3.45362e-12
2.50341e-08
-3.17114e-07
6.92534e-10
-6.85658e-07
-2.3236e-08
-6.84012e-07
-3.80567e-13
-3.17538e-07
-2.36337e-13
-3.93333e-13
-6.82797e-13
-6.44611e-13
-1.02435e-12
-4.61039e-13
2.1038e-11
-2.92967e-11
-2.00844e-11
6.60989e-12
-4.65108e-12
5.88742e-12
-2.73015e-12
2.38092e-08
-3.53628e-07
-2.61172e-09
-6.59269e-07
-2.31258e-08
-6.63852e-07
-1.65236e-12
-3.54179e-07
-2.78307e-13
-1.78259e-12
-8.56316e-13
-4.5214e-13
-9.83507e-13
-8.80663e-13
4.20794e-12
-9.0424e-12
-1.73135e-11
1.26775e-12
-1.73188e-13
1.20219e-11
-1.34872e-11
2.29667e-08
-3.76307e-07
7.32694e-10
-6.36627e-07
-2.28298e-08
-6.40309e-07
-1.40522e-11
-3.78291e-07
-3.2074e-13
-1.55291e-11
-4.99697e-13
-1.16616e-13
-8.09154e-13
-6.57554e-13
5.15224e-13
-3.93868e-13
-8.29643e-12
3.92714e-13
-5.56219e-14
1.33668e-10
-1.46769e-10
2.74145e-08
-3.93877e-07
3.98106e-09
-6.13108e-07
-2.39331e-08
-6.12278e-07
-1.47865e-10
-3.94773e-07
-5.70606e-13
-1.62852e-10
-6.33737e-13
-8.53659e-14
-5.46308e-13
-6.0358e-13
6.65529e-14
-8.73328e-15
-5.18755e-13
5.73412e-14
-5.10312e-14
1.37597e-09
-1.52269e-09
2.70633e-08
-4.12247e-07
-1.03312e-09
-5.85347e-07
-2.4744e-08
-5.88291e-07
-1.51851e-09
-4.09197e-07
-2.75083e-13
-1.68111e-09
-3.06726e-13
-8.6052e-14
-1.74228e-13
-5.41586e-13
3.1661e-14
1.4051e-14
-5.93377e-14
2.43463e-14
-4.86609e-14
1.00336e-08
-1.15563e-08
2.79235e-08
-4.31096e-07
-2.5114e-11
-5.57383e-07
-3.58416e-08
-5.52556e-07
-1.0262e-08
-4.34021e-07
-1.48394e-14
-1.19431e-08
-4.29631e-14
-9.04166e-14
-2.38927e-14
-1.13638e-13
6.13226e-14
1.98549e-14
-4.06198e-14
8.0535e-14
-7.24949e-14
2.24277e-08
-3.37996e-08
3.71724e-08
-4.47608e-07
-7.73759e-10
-5.19443e-07
-2.51412e-08
-5.28184e-07
-1.97186e-08
-4.41304e-07
-1.3278e-13
-3.12707e-08
-1.05522e-13
-1.50001e-13
1.80877e-15
0
8.39831e-14
4.40971e-14
0
1.23277e-12
-1.2215e-12
2.1603e-08
-5.42761e-08
7.27081e-09
-4.33109e-07
-2.41365e-08
-4.88052e-07
-6.39968e-08
-4.88323e-07
-4.51138e-08
-4.60049e-07
-1.74587e-12
-7.65224e-08
-1.17295e-13
-1.80927e-12
1.79089e-14
-2.29732e-13
7.66314e-14
3.14487e-14
-6.02435e-14
4.03166e-11
-4.14582e-11
5.24202e-08
-1.06022e-07
5.45803e-08
-4.3632e-07
2.35776e-08
-4.57043e-07
-1.62831e-08
-4.48465e-07
-4.22418e-08
-4.33857e-07
-4.3057e-11
-1.18729e-07
-3.18764e-13
-4.45714e-11
3.47498e-14
-4.36175e-13
5.8157e-14
2.60449e-14
-4.7504e-14
1.18225e-09
-1.22364e-09
6.29925e-08
-1.64874e-07
2.67753e-08
-3.99506e-07
-2.05288e-08
-4.09741e-07
-5.67314e-08
-4.1226e-07
-8.85955e-08
-4.02481e-07
-1.09373e-09
-2.08225e-07
-8.56468e-13
-1.13757e-09
2.50388e-14
-9.80632e-13
3.33768e-14
7.40744e-15
-6.70608e-15
1.82639e-08
-1.94875e-08
1.12845e-07
-2.63993e-07
7.14568e-08
-3.5812e-07
2.52352e-08
-3.63521e-07
-2.18185e-08
-3.65201e-07
-6.62229e-08
-3.58073e-07
-1.4183e-08
-2.55938e-07
-1.10154e-12
-1.53196e-08
-1.32797e-12
-4.78022e-15
7.28415e-10
-7.28227e-10
-1.848e-13
5.70562e-08
-7.77672e-08
8.12237e-08
-2.92343e-07
3.54697e-08
-3.12368e-07
-1.03428e-08
-3.17708e-07
-6.02414e-08
-3.15303e-07
-1.07392e-07
-3.10919e-07
-6.25406e-08
-2.94493e-07
-7.63556e-10
-7.51412e-08
-7.63813e-10
-1.11215e-12
2.93407e-08
-3.00689e-08
-9.01411e-15
1.43555e-07
-1.89173e-07
1.01233e-07
-2.49936e-07
4.55125e-08
-2.56647e-07
-8.53269e-09
-2.63663e-07
-5.66877e-08
-2.67148e-07
-1.00393e-07
-2.67214e-07
-1.40641e-07
-2.54362e-07
-2.93283e-08
-1.90485e-07
-3.00921e-08
-3.03879e-14
9.30276e-08
-6.39977e-14
9.80953e-08
6.82853e-08
4.36896e-08
1.56554e-08
-1.73256e-08
-5.69649e-08
-9.47803e-08
-9.23303e-08