/*--------------------------------*- C++ -*----------------------------------*\
  =========                 |
  \\      /  F ield         | OpenFOAM: The Open Source CFD Toolbox
   \\    /   O peration     | Website:  https://openfoam.org
    \\  /    A nd           | Version:  8
     \\/     M anipulation  |
\*---------------------------------------------------------------------------*/
FoamFile
{
    version     2.0;
    format      ascii;
    class       volScalarField;
    location    "2.15";
    object      alpha.water;
}
// * * * * * * * * * * * * * * * * * * * * * * * * * * * * * * * * * * * * * //

dimensions      [0 0 0 0 0 0 0];

internalField   nonuniform List<scalar> 
9150
(
1
1
1
1
1
1
1
1
1
1
1
1
1
1
1
1
1
1
1
1
1
1
1
1
1
1
1
1
1
1
1
1
1
1
1
1
1
1
1
1
1
1
1
1
1
1
1
1
1
1
1
1
1
1
1
1
1
1
1
1
1
1
1
1
1
1
1
1
1
1
1
1
1
1
1
1
1
1
1
1
1
1
1
1
1
1
1
1
1
1
1
1
1
1
1
1
1
1
1
1
1
1
1
1
1
1
1
1
1
1
1
1
1
1
1
1
1
1
1
1
1
1
1
1
1
1
1
1
1
1
1
1
1
1
1
1
1
1
1
1
1
1
1
1
1
1
1
1
1
1
0.825881
0.819375
0.808815
0.801746
0.796261
0.79481
0.792639
0.755648
0.591399
0.707504
0.496358
0.493887
0.469846
0.592136
0.475198
0.27851
0.399567
0.278616
0.140229
0.309263
0.222381
0.256839
0.271229
0.452323
0.205363
0.140364
0.140228
0.140204
0.140199
0.196448
0.703853
0.701287
0.606428
0.349372
0.156751
0.140247
0.140204
0.140195
0.1402
0.245563
0.833006
0.681569
0.201351
0.151289
0.144861
0.140383
0.140247
0.140204
0.140198
0.307835
0.704446
0.35812
0.172934
0.167579
0.335762
0.350413
0.182104
0.140747
0.140741
0.209402
0.327269
0.318947
0.275955
0.647892
0.79417
0.796044
0.718506
0.520684
0.506185
0.594589
0.297576
0.297319
0.392415
0.761556
0.796044
0.801934
0.826433
0.854969
0.87396
0.885563
0.297319
0.297319
0.297319
0.326489
0.403388
0.335315
0.34527
0.44385
0.501061
0.618747
0.297576
0.297319
0.314923
0.365633
0.288948
0.285519
0.284553
0.284938
0.284679
0.284938
0.534794
0.303877
0.609795
0.646248
0.501986
0.314332
0.285519
0.284552
0.284938
0.341732
0.693419
0.354765
0.646248
0.660315
0.663254
0.678074
0.5041
0.307438
0.342466
0.710148
0.590248
0.179134
0.272802
0.424145
0.615087
0.710106
0.72235
0.741194
0.712803
0.813855
0.500235
0.130389
0.0324606
0.0318554
0.0528586
0.331179
0.617997
0.770556
0.784452
0.791777
0.0513245
0.0499746
0.0318554
0.0317961
0.0317853
0.0317961
0.0623375
0.376073
0.765128
0.783106
0.0334248
0.0325771
0.0322379
0.0318554
0.0317961
0.0317767
0.0318082
0.0318733
0.491364
0.768418
0.175887
0.034975
0.0325763
0.0322378
0.0321567
0.0318082
0.0318733
0.0323791
0.138524
0.763688
0.645389
0.463841
0.397432
0.263691
0.05548
0.0321418
0.0377246
0.0358302
0.0707547
0.672565
0.854637
0.882276
0.880403
0.648757
0.0946979
0.0659559
0.0713663
0.0345671
0.044464
0.492732
0.882276
0.882276
0.882276
0.520233
0.073779
0.0701982
0.0632702
0.0254277
0.0296893
0.355638
0.881842
0.882276
0.834712
0.270916
0.0428776
0.0285895
0.0254277
0.0253768
0.0253759
0.238723
0.877569
0.881842
0.882853
0.423333
0.0281922
0.0254569
0.025377
0.0253753
0.0253759
0.125336
0.824525
0.884453
0.882918
0.60137
0.0522372
0.025596
0.0253874
0.0253764
0.0253753
0.0253764
0.815239
0.886836
0.884453
0.587877
0.0480615
0.0255519
0.0253998
0.0253874
0.0253764
0.0254003
0.892777
0.889807
0.886836
0.471923
0.0298618
0.0254553
0.025408
0.0253998
0.0254003
0.0254725
0.895063
0.892777
0.70925
0.110445
0.0254801
0.0254166
0.0254291
0.0254067
0.0260081
0.0267783
0.89747
0.647839
0.0635948
0.0256444
0.0255805
0.025479
0.025959
0.0903061
0.278116
0.421853
0.490426
0.031472
0.0254961
0.0255245
0.0255746
0.0255511
0.325759
0.659528
0.766779
0.740723
0.0257205
0.0254333
0.0253951
0.0254657
0.0255105
0.328864
0.834015
0.820407
0.789049
0.610955
0.0254028
0.0253854
0.0253823
0.0253951
0.206165
0.848595
0.844273
0.752292
0.280919
0.00374091
0.0253827
0.0253816
0.0253814
0.0969081
0.794083
0.860075
0.856995
0.161153
0.00374123
0.00157658
0.0253816
0.0253814
0.0253816
0.533653
0.869671
0.86479
0.601836
0.0259076
0.00157598
0.00112775
0.0253827
0.0253815
0.249053
0.859941
0.876344
0.869671
0.379348
0.00313529
0.00103171
0.00104393
0.536425
0.525209
0.816841
0.893401
0.882379
0.781106
0.24567
0.00135104
0.000806574
0.00103475
0.894907
0.894401
0.894415
0.893728
0.870515
0.740269
0.169193
0.00470202
0.000731368
0.00094581
0.894962
0.894635
0.894455
0.892303
0.815178
0.677927
0.119652
0.00823484
0.000493705
0.000514672
0.895123
0.859527
0.878473
0.890186
0.681215
0.636866
0.0871861
0.0103545
0.000248285
2.69948e-05
0.890046
0.774651
0.870317
0.888292
0.596659
0.634006
0.0596649
0.0147984
0.000769955
1.19302e-05
0.661684
0.351103
0.69726
0.404139
0.418892
0.634296
0.0336231
0.0139249
0.00794687
1.14144e-05
0.0767757
0.176044
0.213697
0.0501336
0.629572
0.629967
0.00443617
0.0151934
0.0255439
0.000285875
0.00891154
0.00525866
7.86602e-05
7.81697e-05
0.624443
0.616684
0.00142658
0.0184585
0.026561
0.0106765
0.00085502
0.000647304
0.000128805
7.86602e-05
0.61164
0.608703
0.000383226
0.0210079
0.0265767
0.026561
0.00166047
0.00116574
0.000481371
7.74553e-05
0.625876
0.62255
4.45675e-05
0.0174327
0.0265707
0.0218423
0.00254731
0.00248901
0.000492026
6.88267e-05
0.690819
0.690515
4.37721e-05
0.00386292
0.0141807
0.00538361
5.33271e-05
3.14997e-05
3.14997e-05
3.61687e-05
0.735551
0.735685
8.81167e-05
0.000110089
0.000111489
0.000182107
2.30158e-05
8.93755e-05
5.23102e-05
0.00204323
0.745361
0.745455
0.00181592
6.96235e-05
1.70299e-05
1.33982e-05
7.64445e-05
0.000530403
5.76315e-05
0.0148425
0.744909
0.745432
0.0153431
1.77132e-05
1.2799e-05
1.23913e-05
0.000137885
0.000533685
4.76624e-05
0.0343326
0.745423
0.745453
0.033416
1.2799e-05
1.23913e-05
1.23913e-05
0.00036428
0.000336974
3.76035e-05
0.0438811
0.745654
0.748313
0.0504919
1.56599e-05
1.27948e-05
1.23913e-05
0.000171364
5.16861e-05
3.35599e-05
0.0528647
0.748406
0.74807
0.0523336
1.51803e-05
1.90563e-05
3.54073e-05
6.02893e-06
0.000298022
3.00812e-05
0.051285
0.746937
0.747574
0.0543313
7.38619e-06
6.85302e-05
0.000238863
5.08799e-05
0.000574361
2.44776e-05
0.0396215
0.7472
0.745545
0.0367734
6.83857e-06
0.000130724
0.000498924
0.000230544
0.000575679
1.94008e-05
0.0185524
0.745185
0.744526
0.0189223
5.73813e-06
0.000183362
0.000498932
0.000528629
0.000574342
1.25707e-05
0.00722448
0.734773
0.736645
0.00723776
4.73773e-06
0.000147354
0.000498553
0.00056891
0.000573029
7.70235e-06
0.003165
0.725038
0.724276
0.00262191
4.25859e-06
4.61781e-05
0.000357142
0.000563108
0.000438366
5.62059e-06
0.00216202
0.719529
0.718719
0.00133949
4.04409e-06
1.68519e-05
5.47374e-05
0.00045815
0.000114157
5.28322e-06
0.002288
0.718271
0.718191
0.00155228
3.33852e-06
3.92693e-05
5.08604e-05
1.77989e-05
5.28229e-06
5.28322e-06
0.00158961
0.726756
0.72846
0.00276732
2.23848e-06
9.8316e-05
0.000164978
1.18244e-05
5.28364e-06
5.28129e-06
0.00364343
0.748543
0.748139
0.00356248
1.39166e-06
0.000118125
0.000109686
3.84811e-05
5.29006e-06
5.28364e-06
0.00785646
0.773221
0.771382
0.00873573
9.89793e-07
0.000128446
4.92651e-05
2.31291e-05
5.29334e-06
5.29006e-06
0.0196372
0.796338
0.795698
0.0202662
9.44833e-07
0.00013028
4.75036e-05
6.90273e-06
5.30475e-06
5.29275e-06
0.03284
0.815192
0.814765
0.0332894
9.46596e-07
0.00017327
4.75036e-05
6.6965e-06
4.52869e-05
5.30475e-06
0.0443421
0.828774
0.827995
0.0444054
9.44819e-07
0.000277082
4.75036e-05
6.68895e-06
0.00033693
5.39841e-06
0.052564
0.837204
0.836864
0.0528299
9.47312e-07
0.00037815
0.000207428
6.73868e-06
0.000365645
5.80116e-06
0.0580236
0.842063
0.84191
0.0582502
9.82648e-07
0.00039381
0.000393967
7.50941e-05
0.000365684
6.24642e-06
0.0613295
0.844723
0.844477
0.0613375
1.05279e-06
0.000393948
0.000393811
0.000442855
0.000361448
4.56479e-06
0.0638443
0.846705
0.846029
0.0633714
1.05614e-06
0.000196048
0.000391995
0.000565538
0.000446875
2.36496e-06
0.0657688
0.847974
0.84718
0.0649282
1.03472e-06
6.25608e-06
0.000390171
0.000565538
0.000479939
1.36543e-06
0.0670149
0.848558
0.848937
0.0667697
1.03505e-06
1.03472e-06
0.000143213
0.000565538
0.000307728
5.83207e-07
0.0695162
0.851447
0.851796
0.0693273
1.00692e-06
2.83758e-05
1.80651e-05
0.000561656
0.000126442
2.12909e-07
0.0742168
0.857192
0.857405
0.0740182
8.61801e-07
4.4997e-05
1.23325e-05
7.61871e-05
2.63675e-06
2.10576e-07
0.0840429
0.867786
0.867742
0.083605
6.77066e-07
4.36479e-05
1.23198e-05
1.05513e-05
2.1073e-07
2.10969e-07
0.0977223
0.880389
0.880335
0.097473
5.33356e-07
3.23572e-05
1.23325e-05
1.11215e-05
8.93262e-07
2.10576e-07
0.117181
0.89566
0.895468
0.117291
3.77825e-07
3.39949e-05
4.53199e-05
4.88859e-05
5.59045e-07
2.12701e-07
0.138547
0.909521
0.909084
0.13873
2.45248e-07
3.0998e-05
8.71698e-05
6.63426e-05
4.39572e-07
2.16319e-07
0.15858
0.920673
0.920123
0.158864
1.85729e-07
1.72753e-05
8.78702e-05
4.68374e-05
7.3845e-07
2.19572e-07
0.17494
0.928732
0.928234
0.17531
1.79555e-07
1.86149e-06
8.80151e-05
1.67146e-05
8.2101e-07
2.22919e-07
0.187749
0.934394
0.934075
0.188114
1.79998e-07
1.79998e-07
3.94952e-05
1.69393e-06
7.182e-07
2.25956e-07
0.197611
0.938308
0.938222
0.197756
1.79555e-07
4.60456e-07
8.79285e-07
2.82776e-06
6.64494e-07
2.29068e-07
0.207421
0.941939
0.942159
0.207181
1.82273e-07
3.82854e-06
3.63666e-07
2.81978e-06
1.43465e-06
2.35319e-07
0.217367
0.945478
0.946041
0.21681
2.02327e-07
5.30792e-06
6.09058e-06
2.46845e-07
1.63858e-05
2.67486e-07
0.229212
0.950002
0.950807
0.22862
2.37205e-07
4.11926e-06
1.435e-05
2.09315e-07
0.000127628
4.73927e-07
0.2429
0.955429
0.956062
0.242101
2.65681e-07
1.46248e-06
3.21566e-06
2.19139e-05
0.000207683
1.37435e-06
0.261694
0.962202
0.962512
0.260951
2.77338e-07
1.71784e-06
8.83327e-07
0.000237786
0.000206771
2.88356e-06
0.291999
0.97036
0.970578
0.292629
2.85726e-07
1.96046e-06
5.55708e-06
0.000302343
0.000230501
4.8733e-06
0.345675
0.979858
0.979657
0.34581
2.99686e-07
1.93064e-06
9.85997e-06
0.000302343
0.000153197
5.39903e-06
0.418486
0.987758
0.987383
0.417927
3.15427e-07
3.24057e-06
9.91818e-06
0.000302343
7.85004e-05
4.88556e-06
0.494991
0.9921
0.991862
0.495346
3.53319e-07
3.55016e-06
9.9179e-06
0.000216709
1.37545e-05
2.71089e-06
0.560488
0.993848
0.993717
0.561187
5.16169e-07
1.54926e-06
9.9179e-06
1.83822e-05
3.81878e-07
4.59338e-07
0.614408
0.995455
0.995165
0.614954
5.85613e-07
5.3092e-07
6.85168e-06
4.40036e-07
3.81307e-07
3.81878e-07
0.67037
0.996783
0.996371
0.669968
5.3092e-07
5.11865e-07
4.92837e-06
3.81815e-07
3.81878e-07
3.81601e-07
0.737477
0.997971
0.997713
0.73881
5.12071e-07
5.12071e-07
1.69811e-06
4.31767e-07
3.81311e-07
0.0294107
0.817513
0.998959
0.998454
0.817069
0.029832
5.11814e-07
8.50699e-07
4.49082e-07
3.3419e-07
0.104029
0.883526
0.999105
0.999614
0.883554
0.112273
5.17058e-07
7.56066e-07
2.77778e-07
2.80906e-07
0.181069
0.922407
0.999817
0.999736
0.955992
0.247919
6.67874e-07
8.03592e-07
2.76662e-07
2.77445e-07
0.378901
0.98533
0.999905
0.99996
0.98273
0.413208
9.25539e-07
8.52789e-07
2.73855e-07
2.76662e-07
0.61095
0.999932
0.999989
0.999972
0.999963
0.693722
1.1359e-06
7.92204e-07
1.24826e-07
0.101695
0.894556
0.999989
0.999999
0.999999
0.999983
0.857131
0.0799574
1.12858e-07
1.10116e-07
0.57407
0.99971
0.999999
1
1
0.999998
0.999639
0.566939
1.10894e-08
0.330097
0.965171
1
1
1
1
1
1
0.969591
0.333563
0.905422
0.907193
0.817125
0.777442
0.777442
0.777442
0.778241
0.786126
0.786107
0.786163
0.786677
0.787679
0.789601
0.906832
0.917834
0.917777
0.917076
0.915422
0.917611
0.918676
0.919149
0.734009
0.86206
0.907471
0.908658
0.908857
0.908879
0.90887
0.907831
0.891203
0.907869
0.908898
0.843734
0.753801
0.86916
0.891007
0.891013
0.891001
0.84445
0.874606
0.842061
0.909484
0.818949
0.778285
0.777442
0.886436
0.911666
0.911666
0.911666
0.90863
0.906352
0.912561
0.91777
0.917821
0.917834
0.917815
0.917654
0.915385
0.917095
0.918676
0.612683
0.453573
0.826964
0.901514
0.685018
0.739286
0.908746
0.908873
0.898533
0.891211
0.907476
0.909308
0.831149
0.751476
0.87043
0.891013
0.891001
0.799892
0.792013
0.848516
0.786791
0.911083
0.911083
0.911082
0.910903
0.910704
0.911629
0.911681
0.911629
0.903004
0.915543
0.91753
0.917703
0.91777
0.917829
0.917749
0.9175
0.917164
0.545637
0.312955
0.305808
0.329924
0.792753
0.759935
0.460335
0.506799
0.795969
0.908318
0.90909
0.894009
0.909308
0.909525
0.878826
0.747187
0.74506
0.890978
0.871286
0.792013
0.792013
0.792013
0.852601
0.910447
0.911083
0.85397
0.630519
0.654157
0.883862
0.911629
0.841858
0.833087
0.832739
0.910368
0.91753
0.917703
0.917733
0.917505
0.917168
0.917236
0.692937
0.309085
0.296892
0.300363
0.324591
0.332067
0.439175
0.752106
0.909023
0.909274
0.909295
0.909257
0.90942
0.909525
0.90951
0.748968
0.741394
0.818901
0.877217
0.795067
0.792013
0.792026
0.827924
0.772501
0.610098
0.205701
0.197185
0.224292
0.770047
0.910263
0.881649
0.832521
0.842296
0.915487
0.91691
0.917513
0.917442
0.917127
0.917005
0.917128
0.807614
0.331272
0.291734
0.294882
0.300363
0.438704
0.810906
0.909535
0.909506
0.909431
0.909218
0.909282
0.909254
0.909525
0.909473
0.792882
0.740999
0.740746
0.852124
0.906217
0.792144
0.841846
0.331802
0.241384
0.208625
0.202721
0.197185
0.296938
0.787595
0.902801
0.892015
0.845517
0.866576
0.890342
0.903431
0.916874
0.916614
0.901942
0.850635
0.795029
0.457214
0.27541
0.28242
0.327432
0.621278
0.887206
0.908592
0.909009
0.909254
0.909411
0.909262
0.90926
0.90923
0.909323
0.909517
0.905538
0.740738
0.740763
0.876009
0.906728
0.803595
0.861004
0.685089
0.805909
0.621395
0.349915
0.544368
0.860629
0.874313
0.883099
0.845565
0.704537
0.524537
0.367339
0.449336
0.730735
0.66347
0.384823
0.121141
0.0195112
0.0198806
0.195046
0.55999
0.846016
0.907922
0.908665
0.908849
0.908894
0.909004
0.901259
0.909229
0.909277
0.909225
0.909225
0.909346
0.909133
0.855096
0.855138
0.906728
0.906757
0.81503
0.861593
0.88746
0.887339
0.887419
0.887339
0.885055
0.879769
0.773998
0.472467
0.182786
0.0178763
0.0168608
0.0169571
0.0702545
0.2346
0.0460201
0.0184717
0.0189153
0.0192414
0.0195112
0.268416
0.866711
0.908176
0.908709
0.90883
0.908855
0.908853
0.748217
0.44809
0.532737
0.817374
0.909231
0.900816
0.891026
0.908092
0.908038
0.907249
0.906753
0.906756
0.890476
0.861731
0.854158
0.887463
0.887339
0.821617
0.729527
0.517808
0.0867576
0.0163364
0.0163176
0.0166117
0.0167308
0.0168625
0.0169571
0.0175386
0.0179478
0.0181016
0.0184717
0.0189153
0.0192413
0.474233
0.908176
0.908666
0.908756
0.90879
0.90883
0.63025
0.417471
0.41605
0.416396
0.439052
0.526956
0.45935
0.541905
0.878253
0.907251
0.90675
0.906754
0.906755
0.784785
0.83891
0.725228
0.886458
0.802918
0.547616
0.0713495
0.0164188
0.0163217
0.0163061
0.0163166
0.0163177
0.0208279
0.0169573
0.0169967
0.0173322
0.0178294
0.0244053
0.0251228
0.113421
0.467627
0.897135
0.908255
0.908231
0.908378
0.766035
0.811951
0.50216
0.41605
0.41605
0.41605
0.416396
0.41829
0.423892
0.42788
0.855623
0.906737
0.906752
0.906753
0.900922
0.765566
0.833514
0.781267
0.830478
0.75739
0.504335
0.0164309
0.0163217
0.0163061
0.0162951
0.0163058
0.0276411
0.0282539
0.0171308
0.027246
0.0721754
0.103894
0.403625
0.657939
0.659822
0.652015
0.549876
0.509203
0.489443
0.428267
0.768007
0.889588
0.823833
0.571559
0.442578
0.416396
0.418201
0.418425
0.465015
0.584379
0.84943
0.906747
0.906751
0.906752
0.792113
0.76552
0.837615
0.86483
0.865319
0.865808
0.775158
0.055644
0.0162325
0.0163095
0.0163058
0.0163046
0.0203964
0.0282539
0.0239419
0.0442939
0.102009
0.525993
0.668573
0.668557
0.668251
0.667029
0.309882
0.0203085
0.0320429
0.221896
0.815871
0.893475
0.897473
0.893597
0.858494
0.823815
0.7665
0.762274
0.858204
0.847386
0.767727
0.874376
0.906751
0.906751
0.765606
0.765518
0.840933
0.864181
0.865808
0.86673
0.868436
0.470037
0.0162224
0.0162905
0.0163071
0.0162964
0.0161831
0.0186604
0.0250382
0.0377998
0.0618123
0.386061
0.668573
0.668586
0.668557
0.6675
0.300793
0.0182229
0.0202868
0.126858
0.70386
0.886097
0.897258
0.897442
0.899792
0.902345
0.902583
0.902432
0.900424
0.794172
0.76567
0.768707
0.90675
0.828899
0.765518
0.76552
0.850502
0.714813
0.812105
0.868436
0.869221
0.792991
0.0615131
0.0163093
0.0162904
0.0162929
0.0163135
0.0162833
0.0189197
0.026883
0.0588184
0.140133
0.55947
0.668557
0.668476
0.656282
0.172474
0.0177372
0.0181742
0.0728059
0.18668
0.260386
0.47667
0.671322
0.869347
0.902582
0.902844
0.902782
0.902429
0.771495
0.765647
0.765663
0.80196
0.765541
0.76553
0.766433
0.89421
0.571231
0.371522
0.743771
0.869221
0.870916
0.340731
0.0162838
0.0162694
0.0162694
0.0162935
0.0162993
0.0162747
0.0163302
0.0339566
0.0817408
0.332817
0.668476
0.667559
0.527254
0.01774
0.0176596
0.017697
0.0210824
0.0178397
0.0179884
0.0192091
0.0746089
0.545516
0.902845
0.902866
0.902849
0.902782
0.856171
0.765658
0.765633
0.765626
0.765556
0.765541
0.809441
0.902201
0.742929
0.279454
0.268431
0.872077
0.876592
0.566826
0.016269
0.0162498
0.0162566
0.0162694
0.0163191
0.016277
0.0162284
0.0164581
0.0331968
0.1924
0.580283
0.661293
0.252101
0.0176596
0.0176521
0.0176536
0.0176613
0.0176701
0.0176799
0.0176807
0.0185135
0.293048
0.849516
0.902874
0.902866
0.902849
0.902655
0.794735
0.765642
0.765588
0.765579
0.765556
0.81737
0.902229
0.759522
0.365057
0.165723
0.801656
0.878251
0.778159
0.0471296
0.0163191
0.0162484
0.0162809
0.0163033
0.0163225
0.0162651
0.016341
0.016702
0.0796004
0.474716
0.554006
0.0176923
0.0176527
0.0176536
0.0176532
0.0176536
0.0176613
0.0176701
0.0176784
0.080257
0.337507
0.902897
0.902879
0.902874
0.902848
0.902839
0.90251
0.813537
0.765597
0.765588
0.765588
0.884886
0.90225
0.768918
0.342847
0.164976
0.361128
0.878251
0.877813
0.331825
0.0169902
0.0314582
0.0354764
0.0163261
0.016322
0.0163172
0.0163408
0.0163691
0.078052
0.478828
0.565408
0.0340957
0.0176923
0.0176536
0.0355561
0.0809304
0.0226191
0.0176799
0.0590524
0.531672
0.859373
0.902932
0.902902
0.902783
0.90231
0.902871
0.902878
0.902791
0.891587
0.888866
0.897559
0.90233
0.902296
0.771915
0.542567
0.162884
0.180684
0.881239
0.884844
0.59298
0.018653
0.0382435
0.0423608
0.0276976
0.0163221
0.0163297
0.0163532
0.0168161
0.151516
0.584519
0.591929
0.25774
0.0177699
0.0177725
0.0183646
0.140263
0.239898
0.551617
0.862633
0.902755
0.902935
0.90294
0.902906
0.902305
0.902305
0.902895
0.902893
0.902878
0.902791
0.902558
0.902391
0.902289
0.901386
0.771915
0.744942
0.161404
0.161548
0.817512
0.885492
0.81765
0.103361
0.039428
0.0394795
0.0714611
0.0163297
0.0163346
0.0164095
0.0205717
0.345347
0.598502
0.598207
0.415482
0.0178501
0.0179437
0.0186188
0.112844
0.71137
0.902969
0.902957
0.90294
0.90294
0.90294
0.90294
0.90293
0.902913
0.902899
0.902895
0.902893
0.902867
0.823298
0.775731
0.826726
0.782576
0.774105
0.7799
0.269012
0.160967
0.658956
0.885648
0.883852
0.36412
0.0394029
0.0554268
0.0869569
0.078544
0.0164095
0.0167259
0.125116
0.594546
0.598426
0.598546
0.227868
0.0179437
0.0180567
0.0188123
0.100339
0.731139
0.902971
0.902939
0.902941
0.90294
0.90294
0.902939
0.902955
0.902931
0.902398
0.809312
0.769739
0.767383
0.766949
0.76696
0.774453
0.776558
0.759698
0.783481
0.683618
0.164127
0.577496
0.885683
0.885648
0.601756
0.0397044
0.0580241
0.0869569
0.0869569
0.0548193
0.0217803
0.123967
0.472042
0.490291
0.127428
0.0183614
0.0180567
0.0183614
0.0196287
0.244593
0.868145
0.902939
0.902938
0.902939
0.902939
0.902796
0.872822
0.777747
0.774876
0.773173
0.772668
0.771537
0.880429
0.90145
0.90145
0.901454
0.901454
0.519471
0.787783
0.788771
0.19709
0.528825
0.885656
0.885757
0.83808
0.158472
0.0409234
0.0722973
0.0865019
0.086088
0.0304142
0.0440246
0.0669918
0.043248
0.0208691
0.0195802
0.0183614
0.0274909
0.409749
0.82138
0.903631
0.902965
0.902194
0.79638
0.776133
0.777685
0.792417
0.901332
0.901282
0.898203
0.896141
0.901442
0.90145
0.901452
0.901454
0.901454
0.901454
0.266732
0.784707
0.788771
0.626704
0.640789
0.885759
0.885742
0.885723
0.419782
0.0315975
0.0309325
0.0692259
0.0708226
0.0303849
0.0306191
0.0311947
0.0331275
0.132789
0.258923
0.473775
0.750877
0.907145
0.907874
0.905372
0.787501
0.774941
0.775014
0.775309
0.775691
0.889273
0.90134
0.90134
0.90134
0.901388
0.901439
0.901442
0.90145
0.901453
0.901454
0.901454
0.183778
0.766783
0.788771
0.787596
0.775428
0.885648
0.885723
0.885586
0.72428
0.0539821
0.0299451
0.0298617
0.0298526
0.0301134
0.0304025
0.11339
0.665292
0.846969
0.838939
0.863286
0.909205
0.909339
0.909331
0.865315
0.774941
0.774941
0.774941
0.775238
0.851833
0.9012
0.901327
0.901326
0.901338
0.89214
0.871887
0.864738
0.901373
0.9014
0.901453
0.90145
0.293869
0.780694
0.787597
0.787624
0.526728
0.765519
0.885586
0.885363
0.885278
0.473916
0.0298617
0.0297547
0.0297448
0.0298526
0.0309381
0.450532
0.908576
0.908866
0.909039
0.909195
0.909367
0.909427
0.909492
0.909529
0.893328
0.816879
0.813145
0.888223
0.888016
0.868912
0.737243
0.737291
0.753856
0.635536
0.587436
0.587032
0.775792
0.751777
0.9014
0.841729
0.678915
0.757425
0.782284
0.785361
0.382507
0.573401
0.884842
0.885278
0.884757
0.746295
0.0827767
0.0297448
0.029735
0.0297448
0.0573348
0.711342
0.908864
0.909034
0.909195
0.909344
0.909436
0.909517
0.909571
0.90965
0.909732
0.909352
0.856186
0.888117
0.887326
0.888749
0.903655
0.907299
0.724534
0.587436
0.587032
0.587032
0.587032
0.5955
0.659117
0.636974
0.711763
0.491924
0.363649
0.363407
0.224787
0.431339
0.868705
0.884812
0.884873
0.883779
0.496801
0.0297406
0.029741
0.029741
0.0297844
0.568151
0.903046
0.908977
0.909093
0.909205
0.909344
0.906325
0.90965
0.909732
0.909778
0.813682
0.806037
0.806037
0.806037
0.80617
0.903672
0.910388
0.910388
0.907567
0.600769
0.587032
0.873974
0.662813
0.310437
0.310389
0.221097
0.00316167
0.0026572
0.00315728
0.00658753
0.202177
0.79115
0.88461
0.883779
0.881109
0.804066
0.499925
0.206426
0.143095
0.253483
0.574255
0.68525
0.717851
0.755283
0.787345
0.772347
0.753163
0.888451
0.909778
0.909849
0.910142
0.817372
0.806198
0.821337
0.910181
0.910392
0.91039
0.910389
0.910388
0.723175
0.702895
0.904267
0.574019
0.310389
0.310389
0.00236159
0.00248146
0.00253128
0.00296541
0.00325324
0.0356962
0.36648
0.456411
0.774747
0.900314
0.75771
0.635082
0.703455
0.787534
0.810337
0.816424
0.817394
0.836905
0.857157
0.909656
0.754603
0.753163
0.753163
0.761048
0.909879
0.910378
0.910392
0.910392
0.910392
0.910392
0.910392
0.910392
0.91039
0.910428
0.824851
0.844284
0.905979
0.905929
0.406503
0.310389
0.00210614
0.00243288
0.00248149
0.00253128
0.00275332
0.00389872
0.0476207
0.156429
0.692766
0.907099
0.909312
0.862526
0.557075
0.349869
0.388656
0.453736
0.667976
0.903976
0.909656
0.909771
0.909984
0.901049
0.754221
0.8363
0.910403
0.910382
0.91039
0.910392
0.910392
0.910392
0.910392
0.910389
0.910398
0.910388
0.902413
0.905979
0.905981
0.905979
0.896988
0.450001
0.00186389
0.0263281
0.266823
0.418655
0.367
0.413505
0.547241
0.637065
0.8587
0.909611
0.909804
0.909716
0.701949
0.208686
0.189686
0.186743
0.186481
0.338438
0.857167
0.909984
0.910112
0.910152
0.908903
0.910364
0.910358
0.910355
0.910382
0.91039
0.91039
0.910385
0.910357
0.888111
0.819357
0.677127
0.496839
0.574449
0.807712
0.89682
0.902613
0.743561
0.00238163
0.0854768
0.71072
0.886811
0.879716
0.889736
0.900774
0.907778
0.909611
0.909804
0.909811
0.909814
0.817569
0.228168
0.186743
0.186457
0.186524
0.587436
0.909701
0.910112
0.910152
0.910192
0.910223
0.910271
0.909371
0.902904
0.898353
0.894516
0.869513
0.809296
0.622236
0.301212
0.0169661
0.00144737
0.0376667
0.0952071
0.190319
0.349866
0.888531
0.886502
0.00410815
0.0407799
0.663316
0.886811
0.880097
0.879997
0.863834
0.879614
0.883989
0.909811
0.909815
0.909811
0.722591
0.194352
0.189035
0.218763
0.707976
0.909558
0.909857
0.909885
0.878657
0.791342
0.643001
0.481983
0.373718
0.303041
0.255971
0.197003
0.121947
0.0221528
0.000712462
0.000732573
0.000837738
0.000932497
0.00645528
0.0376336
0.0893809
0.39945
0.705566
0.874078
0.00347259
0.0284873
0.602474
0.584388
0.337129
0.310301
0.271035
0.311317
0.331996
0.473581
0.629207
0.843816
0.579203
0.267012
0.448283
0.63184
0.755682
0.716507
0.572978
0.394732
0.199035
0.0836222
0.00608361
0.000226615
0.000215451
0.000215264
0.000215395
0.000215264
0.000216967
0.000243769
0.000688439
0.000712462
0.000733822
0.000823752
0.00417444
0.000465234
0.0282347
0.0603938
0.166388
0.322191
0.0122272
0.0938979
0.254104
0.0166773
0.000518302
0.001712
0.0023039
0.00196477
0.00282509
0.0207358
0.234307
0.58403
0.582019
0.421372
0.391973
0.351581
0.254211
0.10779
0.0265025
0.00476857
0.00246329
0.00208192
0.00248831
0.00396013
0.00395756
0.00154479
0.000215395
0.00021941
0.00158238
0.00261741
0.0027174
0.00201149
0.00267464
0.00248684
0.000482957
0.000433943
0.00512207
0.0225196
0.0383996
0.0427744
0.010357
0.0213844
0.000332674
3.64438e-05
4.58229e-05
0.000156381
0.000500523
0.000825126
0.00109777
0.00296893
0.0469472
0.249129
0.398904
0.21484
0.0551774
0.00878981
0.00100012
0.00167231
0.00430252
0.00627611
0.0044002
0.0018526
0.00157623
0.00159524
0.00167454
0.000421742
0.000210347
0.00186306
0.00274906
0.0027496
0.00274696
0.00271026
0.00267735
0.00267584
0.00149065
0.000244795
3.02121e-05
0.0049717
3.84476e-05
1.92071e-05
2.96133e-05
2.22372e-05
2.08154e-05
8.51856e-06
8.8353e-06
2.31175e-05
0.000382901
0.000789703
0.000956365
0.00218406
0.00502709
0.00840362
0.016677
0.00505961
0.00059501
0.000475711
0.000407459
0.000945078
0.00379859
0.00615763
0.00184041
0.00161831
0.00258674
0.00258749
0.00258674
0.00196871
0.000113319
0.00216982
0.00274945
0.00268432
0.00118841
0.000662712
0.000740387
0.00100199
0.000654331
0.000256445
1.9231e-05
0.000116523
5.39427e-05
1.83801e-05
8.47987e-06
7.64301e-06
7.53924e-06
6.99068e-06
7.01498e-06
2.19667e-05
5.21145e-05
8.0338e-05
0.000417638
0.000736234
0.000592213
0.000527581
0.000865524
0.00130103
0.000475711
0.000393778
0.000339168
0.00128435
0.00530266
0.00576231
0.00440342
0.000605222
0.000213742
0.00222628
0.00256249
0.00135797
3.93572e-05
0.000266812
0.000874199
0.000456916
3.1804e-05
2.34187e-05
2.19087e-05
2.13915e-05
0.000118292
0.000212468
1.84291e-05
1.83973e-05
1.8379e-05
1.83786e-05
6.99727e-06
6.97219e-06
6.96088e-06
6.93536e-06
6.9484e-06
7.14702e-06
7.49585e-06
8.33279e-06
1.64529e-05
6.34673e-05
0.000110931
0.000138107
0.000448162
0.00113674
0.00096819
0.000375806
0.000339168
0.000444422
0.00386423
0.00546087
0.00278208
2.534e-05
2.53403e-05
2.53379e-05
2.56558e-05
4.08962e-05
3.57155e-05
3.57155e-05
3.34459e-05
0.0002413
0.00139683
0.000393485
2.03986e-05
1.96043e-05
2.31539e-05
4.42339e-05
1.83809e-05
1.8379e-05
1.83786e-05
1.83786e-05
6.97222e-06
6.93502e-06
6.93355e-06
6.93325e-06
6.93536e-06
6.9484e-06
7.92446e-06
1.05941e-05
1.14812e-05
1.39681e-05
1.65747e-05
1.82208e-05
0.000142495
0.000277107
0.000776176
0.000988083
0.0005266
0.000364486
0.000584919
0.00111351
0.0012634
0.000822765
2.53379e-05
2.54619e-05
0.000139841
0.000690391
0.000479556
3.34459e-05
2.47028e-05
0.00103791
0.00209424
0.00209615
0.000602622
1.87602e-05
1.85467e-05
1.83809e-05
1.83786e-05
1.83786e-05
1.83786e-05
1.83786e-05
1.88667e-05
6.93355e-06
6.93336e-06
6.93355e-06
6.93335e-06
6.97541e-06
4.99758e-05
0.000198187
0.000246415
0.000128489
1.60278e-05
1.36836e-05
1.36836e-05
2.62687e-05
3.04037e-05
0.000727738
0.000814781
0.000821972
0.000272712
6.38133e-05
3.03211e-05
7.72934e-05
5.41771e-05
2.49538e-05
2.45033e-05
0.000948797
0.00142817
0.000551326
1.7086e-05
0.000262479
0.00206436
0.00209615
0.00209615
0.00125152
1.83869e-05
1.83787e-05
1.83786e-05
1.83786e-05
1.83786e-05
1.83786e-05
0.00448363
0.00189783
0.000932542
0.000104564
6.97237e-06
8.12837e-06
9.75153e-06
0.00227317
0.00398974
0.00362565
0.00116947
0.000254376
1.92124e-05
8.56388e-06
8.31754e-06
7.85808e-06
0.000659817
0.000838566
0.000838566
0.000204249
1.49912e-05
1.268e-05
1.29136e-05
1.15264e-05
1.15218e-05
0.000150354
0.00142817
0.00104453
1.68987e-05
1.69532e-05
0.000219455
0.00198367
0.00208359
0.00205767
0.000267956
1.83869e-05
0.00020695
0.000266611
2.86833e-05
1.84612e-05
0.00246565
0.00244644
0.00204011
0.000347824
1.63538e-05
0.000145389
0.00313752
0.00398974
0.00401018
0.00401392
0.00401192
0.00235565
3.92811e-05
8.78119e-06
7.85808e-06
7.66791e-06
7.85808e-06
0.000687062
0.000836385
0.000566587
1.80904e-05
1.16538e-05
1.1532e-05
1.15218e-05
1.15214e-05
1.15214e-05
0.00141301
0.000467829
1.69044e-05
1.68981e-05
1.69532e-05
4.33728e-05
0.00137174
0.00119526
2.53339e-05
2.83213e-05
0.00030598
0.000336879
0.000338447
0.000338447
0.000225378
0.000279386
0.00189289
0.000917958
5.48099e-05
6.01983e-05
0.000767116
0.00391933
0.00400339
0.00401018
0.00345047
0.000326456
1.45526e-05
8.32395e-06
7.66791e-06
7.66791e-06
7.66791e-06
1.70212e-05
0.000776031
0.000778399
0.000224679
1.1887e-05
1.15385e-05
1.1522e-05
1.15214e-05
1.15214e-05
0.00102298
1.7659e-05
1.68981e-05
1.69044e-05
1.70098e-05
1.71069e-05
1.71802e-05
1.80015e-05
2.28699e-05
2.69169e-05
5.65838e-05
0.000134172
0.00020166
0.000247633
0.000140723
0.000796192
0.00172918
0.00135169
0.000273054
2.58009e-05
9.44229e-06
0.000331149
0.00297353
0.00230918
0.000268072
0.000116762
0.000106999
0.000213141
6.25794e-05
7.66791e-06
7.90822e-06
8.27386e-06
0.000310729
0.000773703
0.000440466
1.27324e-05
1.15459e-05
1.15228e-05
1.1522e-05
0.000114169
0.000728064
1.89679e-05
1.97067e-05
3.52908e-05
1.81669e-05
1.71802e-05
4.22961e-05
0.000184842
0.000140458
2.95854e-05
4.42071e-05
4.94998e-05
4.93374e-05
4.93374e-05
0.000313618
0.000989004
0.00157262
0.00102928
0.000138197
1.00807e-05
6.12324e-06
5.70382e-06
5.12029e-05
2.18755e-05
3.91306e-05
0.000233361
0.00030062
0.000302148
0.000302177
0.000101107
8.27386e-06
9.12015e-06
9.8411e-06
0.000556628
0.000406181
2.0639e-05
1.1551e-05
1.15236e-05
1.15228e-05
0.000679291
0.00174492
0.000292211
0.000101594
0.000178202
3.60452e-05
1.7957e-05
1.86684e-05
0.00124076
0.00247243
0.000670707
0.000193886
0.000249466
7.47714e-05
8.48037e-05
1.23913e-05
0.000304116
0.000857557
0.000316191
1.00401e-05
6.40942e-06
5.65199e-06
4.65907e-06
4.45425e-06
4.97089e-06
7.40009e-05
0.00030062
0.000302148
0.0003022
0.000302177
0.000302177
5.46763e-05
9.8411e-06
1.24167e-05
8.87977e-05
0.000166399
5.4443e-05
2.63237e-05
1.20411e-05
1.15235e-05
0.000505464
0.00178687
0.00179825
0.00148183
0.000595018
0.000128132
1.86684e-05
1.8962e-05
0.00136623
0.00273596
0.00273653
0.00251369
0.00250387
0.00187118
0.00192594
2.05002e-05
4.0592e-05
7.98804e-05
0.000150693
9.73773e-05
3.10256e-05
4.65767e-06
4.44892e-06
4.34425e-06
4.45466e-06