/*--------------------------------*- C++ -*----------------------------------*\
  =========                 |
  \\      /  F ield         | OpenFOAM: The Open Source CFD Toolbox
   \\    /   O peration     | Website:  https://openfoam.org
    \\  /    A nd           | Version:  8
     \\/     M anipulation  |
\*---------------------------------------------------------------------------*/
FoamFile
{
    version     2.0;
    format      ascii;
    class       volVectorField;
    location    "2.15";
    object      U;
}
// * * * * * * * * * * * * * * * * * * * * * * * * * * * * * * * * * * * * * //

dimensions      [0 1 -1 0 0 0 0];

internalField   nonuniform List<vector> 
9150
(
(0.00497003 -0.0778414 0)
(0.0130369 -0.0974049 0)
(0.0108559 -0.104079 0)
(0.00891119 -0.107524 0)
(0.00283078 -0.109116 0)
(-0.00193302 -0.109463 0)
(-0.0081402 -0.108121 0)
(-0.0108396 -0.104185 0)
(-0.0130023 -0.0974318 0)
(-0.00499405 -0.0778786 0)
(0.0060148 -0.0920615 0)
(0.00864906 -0.100529 0)
(0.00727588 -0.102274 0)
(0.00430951 -0.10448 0)
(0.00176019 -0.10553 0)
(-0.00229327 -0.105165 0)
(-0.00458166 -0.104115 0)
(-0.0073239 -0.102207 0)
(-0.00862713 -0.100526 0)
(-0.00601855 -0.0920722 0)
(0.00180896 -0.0954599 0)
(0.00462097 -0.0989921 0)
(0.00371993 -0.100941 0)
(0.00329152 -0.101628 0)
(0.000991317 -0.102326 0)
(-0.000583948 -0.102556 0)
(-0.00310364 -0.101971 0)
(-0.00375637 -0.100916 0)
(-0.00460794 -0.0990084 0)
(-0.00181203 -0.0954691 0)
(0.00178773 -0.0984404 0)
(0.0025084 -0.100406 0)
(0.00216324 -0.100285 0)
(0.00125204 -0.100888 0)
(0.000585436 -0.100865 0)
(-0.000781272 -0.100835 0)
(-0.0014308 -0.100567 0)
(-0.00219596 -0.100282 0)
(-0.00250604 -0.10042 0)
(-0.00178426 -0.0984451 0)
(0.000202122 -0.0995015 0)
(0.00074402 -0.0995623 0)
(0.000486338 -0.0999442 0)
(0.000676554 -0.0998761 0)
(0.000132582 -0.10011 0)
(-0.000126076 -0.100105 0)
(-0.000598386 -0.0999588 0)
(-0.000447048 -0.0999951 0)
(-0.000740216 -0.099569 0)
(-0.000200162 -0.099501 0)
(0.0771314 -0.195209 1.40542e-26)
(0.0497042 -0.185326 0)
(0.0317398 -0.17688 0)
(0.0167726 -0.173335 0)
(0.00527432 -0.175582 0)
(-0.00409129 -0.176484 0)
(-0.0160241 -0.176352 0)
(-0.0317015 -0.177452 0)
(-0.0497091 -0.185756 0)
(-0.0771635 -0.19551 -1.42834e-26)
(0.0584751 -0.146254 3.86121e-27)
(0.0481778 -0.146445 0)
(0.0282892 -0.156403 0)
(0.020898 -0.157665 0)
(0.00516116 -0.155993 0)
(-0.00356896 -0.156042 0)
(-0.0199542 -0.156599 0)
(-0.027794 -0.156225 0)
(-0.0480763 -0.146384 0)
(-0.0583457 -0.146197 -3.95167e-27)
(0.0478975 -0.121752 1.97409e-27)
(0.0421328 -0.131618 0)
(0.030073 -0.134449 0)
(0.0182745 -0.137728 0)
(0.00626387 -0.140423 0)
(-0.00562961 -0.140279 0)
(-0.0178669 -0.137527 0)
(-0.0295506 -0.134048 0)
(-0.0418198 -0.131343 0)
(-0.0477607 -0.121621 -1.97923e-27)
(0.0375059 -0.0997045 2.74569e-27)
(0.0386701 -0.110388 0)
(0.0220278 -0.120122 0)
(0.0171187 -0.125235 0)
(0.00414063 -0.125404 0)
(-0.00425832 -0.125111 0)
(-0.0175116 -0.124981 0)
(-0.0224112 -0.120133 0)
(-0.0389397 -0.110355 0)
(-0.0375081 -0.0996215 -2.72188e-27)
(0.0252519 -0.081289 -1.02549e-26)
(0.0283175 -0.100985 -1.20026e-26)
(0.0202059 -0.108112 -3.0333e-27)
(0.0108928 -0.113825 -2.7484e-27)
(0.00384556 -0.116791 -8.84883e-29)
(-0.00535557 -0.116529 -9.06133e-29)
(-0.0117513 -0.113539 -2.65469e-27)
(-0.0203049 -0.108223 -3.02937e-27)
(-0.0283892 -0.100984 -1.20506e-26)
(-0.0252697 -0.0812962 -1.02541e-26)
(0.0178879 -0.145731 0)
(0.0128144 -0.20401 0)
(0.0213366 -0.217768 0)
(0.00595112 -0.225715 0)
(0.0043445 -0.227222 0)
(-0.0111489 -0.226021 0)
(-0.0119456 -0.221727 0)
(-0.0234266 -0.214341 0)
(-0.0134037 -0.203424 0)
(-0.0181702 -0.145484 0)
(0.0162208 -0.165829 0)
(0.00235238 -0.198724 0)
(0.0161035 -0.20816 0)
(0.00342048 -0.213255 0)
(0.00747041 -0.214604 0)
(-0.00469955 -0.214552 0)
(-0.00108193 -0.214048 0)
(-0.01485 -0.208788 0)
(-0.00202102 -0.1987 0)
(-0.0159742 -0.165463 0)
(0.0149542 -0.171858 0)
(-0.00328796 -0.202896 0)
(0.0111044 -0.207948 0)
(-0.00186936 -0.210408 0)
(0.00329447 -0.209748 0)
(-0.00550647 -0.209467 0)
(0.000296168 -0.208535 0)
(-0.0120013 -0.207365 0)
(0.00313105 -0.20264 0)
(-0.0154073 -0.171546 0)
(0.0170976 -0.193149 0)
(-0.0064007 -0.203516 0)
(0.0101127 -0.20954 0)
(-0.00132508 -0.205733 0)
(0.00227516 -0.207083 0)
(-0.00212532 -0.206948 0)
(0.00121121 -0.20694 0)
(-0.0103074 -0.209687 0)
(0.00637946 -0.203474 0)
(-0.0170346 -0.19318 0)
(0.0329965 -0.217615 0)
(0.0080633 -0.203923 0)
(0.0164811 -0.203798 0)
(0.0100823 -0.196783 0)
(0.00109284 -0.193886 0)
(-0.0032531 -0.194025 0)
(-0.0113419 -0.19691 0)
(-0.0169304 -0.205002 0)
(-0.0081853 -0.204573 0)
(-0.0331631 -0.217888 0)
(-0.368799 -0.0373236 0)
(-0.234928 -0.131205 0)
(-0.114024 -0.144326 0)
(0.00732138 -0.0930995 0)
(0.0543725 -0.0227684 0)
(0.0568837 -0.0926747 0)
(0.148206 -0.219545 0)
(0.210479 -0.192063 0)
(0.306206 -0.0679218 0)
(0.284674 -0.0152153 0)
(-0.109997 -0.301435 0)
(0.0143944 -0.425978 0)
(0.083143 -0.397584 0)
(0.182448 -0.366204 0)
(0.237046 -0.114541 0)
(0.259755 -0.0347108 0)
(0.196568 -0.240763 0)
(0.169118 -0.222215 0)
(0.180893 0.0671474 0)
(0.176489 0.0500861 0)
(0.12691 -0.420594 0)
(0.176634 -0.43878 0)
(0.212964 -0.396076 0)
(0.204131 -0.387688 0)
(0.228817 -0.18087 0)
(0.277676 0.116491 0)
(0.248459 -0.0149856 0)
(0.13912 -0.0926526 0)
(0.127927 0.0439446 0)
(0.120575 0.125968 0)
(-0.0872849 -0.648839 0)
(-0.0560435 -0.609461 0)
(-0.0151747 -0.537487 0)
(-0.00978737 -0.450045 0)
(-0.0600231 -0.234816 0)
(0.0413495 0.0206449 0)
(0.0759523 -0.0454663 0)
(0.117975 -0.0476813 0)
(0.134446 -0.000641754 0)
(0.102658 0.125886 0)
(-0.319829 -0.664848 0)
(-0.319364 -0.583815 0)
(-0.358047 -0.456419 0)
(-0.391387 -0.310675 0)
(-0.340451 -0.239553 0)
(-0.263231 -0.223282 0)
(-0.212941 -0.249569 0)
(-0.127587 -0.190859 0)
(-0.0333674 0.101239 0)
(0.00271956 0.191458 0)
(-0.409674 -0.626327 0)
(-0.417251 -0.460232 0)
(-0.449825 -0.381581 0)
(-0.438549 -0.382143 0)
(-0.379977 -0.318187 0)
(-0.375143 -0.268548 0)
(-0.383111 -0.267353 0)
(-0.332972 -0.26136 0)
(-0.208823 -0.15408 0)
(-0.0965474 0.0192756 0)
(-0.443125 -0.616027 0)
(-0.411399 -0.485503 0)
(-0.405958 -0.446887 0)
(-0.375444 -0.449092 0)
(-0.318683 -0.405294 0)
(-0.274997 -0.372464 0)
(-0.227478 -0.39171 0)
(-0.170498 -0.441025 0)
(-0.119248 -0.425359 0)
(-0.0635366 -0.354399 0)
(-0.45771 -0.662296 0)
(-0.429298 -0.553281 0)
(-0.379839 -0.520081 0)
(-0.316008 -0.530579 0)
(-0.254555 -0.540894 0)
(-0.179918 -0.499932 0)
(-0.115385 -0.454533 0)
(-0.0676725 -0.463598 0)
(-0.0229658 -0.497946 0)
(0.0306576 -0.501772 0)
(-0.47166 -0.653963 0)
(-0.444999 -0.618529 0)
(-0.40008 -0.639742 0)
(-0.343571 -0.693967 0)
(-0.265508 -0.689489 0)
(-0.203134 -0.654166 0)
(-0.138563 -0.598953 0)
(-0.0514411 -0.578651 0)
(0.015397 -0.555316 0)
(0.065247 -0.586185 0)
(-0.433703 -0.603637 0)
(-0.442955 -0.636067 0)
(-0.408646 -0.686228 0)
(-0.39596 -0.742399 0)
(-0.375461 -0.793667 0)
(-0.313168 -0.783715 0)
(-0.253876 -0.757383 0)
(-0.15383 -0.764178 0)
(-0.0752147 -0.714615 0)
(0.0246443 -0.652224 0)
(-0.376483 -0.535978 0)
(-0.406467 -0.627169 0)
(-0.386945 -0.715715 0)
(-0.407328 -0.765793 0)
(-0.389416 -0.842275 0)
(-0.374852 -0.878216 0)
(-0.345216 -0.912183 0)
(-0.295887 -0.95478 0)
(-0.230866 -0.927442 0)
(-0.110227 -0.786955 0)
(-0.175641 -0.362974 0)
(-0.364718 -0.587062 0)
(-0.373886 -0.754303 0)
(-0.388606 -0.836129 0)
(-0.368204 -0.874279 0)
(-0.362168 -0.929091 0)
(-0.357631 -0.960403 0)
(-0.335228 -1.01928 0)
(-0.317274 -1.0356 0)
(-0.247582 -0.982335 0)
(0.080476 -0.148204 0)
(-0.0136697 -0.265373 0)
(-0.300619 -0.721931 0)
(-0.328562 -0.875096 0)
(-0.296001 -0.901847 0)
(-0.287849 -0.944522 0)
(-0.300229 -0.996126 0)
(-0.307645 -1.05159 0)
(-0.311854 -1.08246 0)
(-0.286616 -1.09469 0)
(0.152374 -0.254039 0)
(0.226718 0.188837 0)
(0.0987345 0.0296022 0)
(-0.0455291 -0.796154 0)
(-0.0576281 -0.876068 0)
(-0.105191 -0.865965 0)
(-0.158159 -0.927094 0)
(-0.197288 -1.01534 0)
(-0.234831 -1.10573 0)
(-0.239694 -1.16371 0)
(0.0936229 -0.470655 0)
(0.185076 0.0437595 0)
(0.149994 -0.0327658 0)
(0.134937 -0.463067 0)
(0.0400884 -0.786666 0)
(0.0229796 -0.766669 0)
(-0.00859884 -0.762032 0)
(-0.0469748 -0.876435 0)
(-0.129552 -0.992014 0)
(-0.178467 -1.15969 0)
(0.0432453 -0.413646 0)
(0.0444644 -0.0568904 0)
(0.137507 -0.103495 0)
(0.168927 -0.398322 0)
(0.0893028 -0.705626 0)
(0.0437511 -0.753163 0)
(0.00355015 -0.737839 0)
(-0.0206445 -0.826057 0)
(-0.0387462 -0.812489 0)
(-0.143376 -1.07551 0)
(0.116344 -0.246118 0)
(0.0783667 -0.294047 0)
(0.159543 -0.252178 0)
(0.162513 -0.334446 0)
(0.108738 -0.646219 0)
(0.0757588 -0.693878 0)
(0.0413412 -0.681906 0)
(-0.0469199 -0.786463 0)
(-0.0532966 -0.689343 0)
(-0.130432 -0.930434 0)
(0.231201 -0.211004 0)
(0.230993 -0.204859 0)
(0.218216 -0.217586 0)
(0.221412 -0.297541 0)
(0.154348 -0.547503 0)
(0.123934 -0.619572 0)
(0.11634 -0.525208 0)
(0.0277095 -0.613726 0)
(-0.0900969 -0.625955 0)
(-0.0809186 -0.820456 0)
(0.255948 -0.229664 0)
(0.28279 -0.190536 0)
(0.321509 -0.197092 0)
(0.336452 -0.252304 0)
(0.316919 -0.377441 0)
(0.251215 -0.476494 0)
(0.210533 -0.424649 0)
(0.165677 -0.376884 0)
(-0.00266834 -0.461339 0)
(-0.029362 -0.749691 0)
(0.263533 -0.311799 0)
(0.301851 -0.307349 0)
(0.343506 -0.301335 0)
(0.35355 -0.309208 0)
(0.343594 -0.362256 0)
(0.29708 -0.381978 0)
(0.242839 -0.398481 0)
(0.242652 -0.277501 0)
(0.0934385 -0.212936 0)
(0.0195603 -0.634794 0)
(0.26915 -0.327476 0)
(0.280959 -0.340402 0)
(0.28902 -0.34483 0)
(0.28045 -0.332317 0)
(0.249768 -0.272241 0)
(0.211983 -0.268617 0)
(0.145414 -0.291431 0)
(0.135568 -0.131243 0)
(0.0396831 -0.0462191 0)
(0.0252054 -0.560979 0)
(0.290936 -0.33043 0)
(0.281793 -0.336058 0)
(0.279002 -0.332087 0)
(0.270788 -0.31117 0)
(0.251883 -0.200614 0)
(0.223676 -0.184444 0)
(0.0922065 -0.189806 0)
(0.054936 -0.0221695 0)
(0.115508 -0.0291463 0)
(0.030253 -0.503249 0)
(0.316764 -0.298036 0)
(0.302393 -0.309385 0)
(0.294478 -0.308953 0)
(0.286135 -0.293416 0)
(0.290236 -0.209414 0)
(0.250497 0.00871037 0)
(0.170388 0.00415227 0)
(0.144146 -0.091739 0)
(0.198651 -0.153105 0)
(0.164754 -0.237199 0)
(0.35474 -0.267095 0)
(0.333554 -0.28402 0)
(0.311121 -0.288003 0)
(0.287031 -0.266483 0)
(0.248352 -0.146572 0)
(0.197389 0.0895205 0)
(0.18242 0.0804594 0)
(0.151699 -0.0473174 0)
(0.163949 -0.179156 0)
(0.171085 -0.262284 0)
(0.357172 -0.213124 0)
(0.339048 -0.235474 0)
(0.317208 -0.237608 0)
(0.286122 -0.211915 0)
(0.210568 -0.0224238 0)
(0.127546 0.165011 0)
(0.105084 0.142909 0)
(0.0716874 -0.00506113 0)
(0.108132 -0.213342 0)
(0.130576 -0.300154 0)
(0.350862 -0.173878 0)
(0.334967 -0.186382 0)
(0.310772 -0.179591 0)
(0.25582 -0.126496 0)
(0.032966 0.236996 0)
(-0.0205163 0.312909 0)
(-0.0596198 0.211788 0)
(0.00282331 -0.0142623 0)
(0.142412 -0.434909 0)
(0.208469 -0.545879 0)
(0.291156 -0.149799 0)
(0.262561 -0.147296 0)
(0.191388 -0.0846244 0)
(-0.0555578 0.343146 0)
(-0.129629 0.446225 0)
(-0.186187 0.370723 0)
(-0.080006 -0.00423448 0)
(0.161198 -0.530991 0)
(0.303001 -0.643579 0)
(0.373746 -0.625536 0)
(0.222788 -0.114901 0)
(0.118328 0.0242152 0)
(-0.0858331 0.418517 0)
(-0.142639 0.493853 0)
(-0.158057 0.461282 0)
(-0.113105 0.265656 0)
(0.163873 -0.558414 0)
(0.282232 -0.73382 0)
(0.378281 -0.747021 0)
(0.514384 -0.832143 0)
(0.0326648 0.136873 0)
(-0.0983189 0.394979 0)
(-0.146154 0.47695 0)
(-0.148902 0.487049 0)
(-0.0863883 0.362581 0)
(0.07364 -0.207183 0)
(0.266011 -0.729109 0)
(0.404782 -0.999344 0)
(0.535108 -1.15268 0)
(0.649927 -1.20116 0)
(-0.0942118 0.377867 0)
(-0.118722 0.47889 0)
(-0.131006 0.499338 0)
(-0.0477886 0.418171 0)
(0.0434003 0.069222 0)
(0.1873 -0.506848 0)
(0.381093 -1.13692 0)
(0.478263 -1.32878 0)
(0.575418 -1.35761 0)
(0.61952 -1.33262 0)
(-0.0710954 0.454938 0)
(-0.0513595 0.487931 0)
(-0.0270588 0.38786 0)
(0.121805 0.0436276 0)
(0.124244 -0.150699 0)
(0.297867 -0.906083 0)
(0.392293 -1.37337 0)
(0.459868 -1.42915 0)
(0.496824 -1.41231 0)
(0.491651 -1.33546 0)
(-0.0608763 0.172749 0)
(0.0430875 0.374882 0)
(0.204428 0.235672 0)
(0.110138 0.0808878 0)
(0.194195 -0.225055 0)
(0.294522 -1.18548 0)
(0.36373 -1.47749 0)
(0.423865 -1.45553 0)
(0.396983 -1.33104 0)
(0.263747 -1.03047 0)
(0.085519 0.112417 0)
(0.0513484 0.122783 0)
(0.145403 0.155983 0)
(0.0588834 0.115296 0)
(0.185281 -0.583485 0)
(0.258949 -1.40134 0)
(0.294047 -1.53096 0)
(0.340982 -1.3336 0)
(0.200646 -1.0382 0)
(0.0947329 -0.883034 0)
(0.108655 0.222112 0)
(0.0534411 0.195505 0)
(0.0928312 0.174896 0)
(0.0300351 0.140973 0)
(0.129267 -1.00349 0)
(0.179878 -1.51042 0)
(0.206948 -1.5421 0)
(0.212555 -0.9619 0)
(-9.96994e-05 -1.01385 0)
(0.0568809 -0.828414 0)
(0.0771254 0.220012 0)
(0.0594846 0.184333 0)
(0.0847952 0.174546 0)
(0.0468546 0.160797 0)
(0.109049 -1.14644 0)
(0.111621 -1.52803 0)
(0.146688 -1.53434 0)
(0.168959 -0.532225 0)
(-0.0699807 -0.967682 0)
(-0.00240038 -0.700221 0)
(0.0170909 0.185542 0)
(0.0134214 0.185562 0)
(0.0444179 0.187757 0)
(0.0389945 0.160834 0)
(0.0835326 -1.29685 0)
(0.0889763 -1.56366 0)
(0.109771 -1.52759 0)
(0.118697 -0.484269 0)
(-0.0579244 -0.819779 0)
(-0.0349696 -0.649614 0)
(-0.077747 0.152178 0)
(-0.0415251 0.126535 0)
(0.0172637 0.152845 0)
(0.0403158 0.131865 0)
(0.0639445 -1.38518 0)
(0.0593084 -1.56366 0)
(0.0647565 -1.46236 0)
(0.00280866 -0.139539 0)
(-0.357791 -0.64378 0)
(-0.404817 -0.566393 0)
(-0.0588804 0.0366868 0)
(-0.0307437 -0.0234551 0)
(0.000775228 0.0438817 0)
(0.00621479 0.0791222 0)
(0.0437425 -1.47969 0)
(0.0375566 -1.56318 0)
(0.0226314 -1.2882 0)
(-0.125733 0.193258 0)
(-0.383534 -0.0399143 0)
(-0.609512 -0.390833 0)
(0.0618357 0.047794 0)
(0.0904076 0.0255893 0)
(2.81531e-05 0.0467231 0)
(0.0171969 0.128039 0)
(0.0263833 -1.51019 0)
(0.0122218 -1.557 0)
(-0.0085944 -0.986337 0)
(-0.301543 0.271622 0)
(-0.207432 0.292658 0)
(-0.478972 0.0830206 0)
(-0.00557833 -0.122547 0)
(0.00543263 0.0727877 0)
(-0.0572666 0.187062 0)
(-0.0599034 -0.118195 0)
(0.0135772 -1.53045 0)
(-0.0110646 -1.52192 0)
(-0.0802076 -0.0398191 0)
(-0.251657 0.297035 0)
(-0.22385 0.40268 0)
(-0.287528 0.364167 0)
(-0.520609 0.0741719 0)
(-0.475192 0.114285 0)
(-0.385668 0.306989 0)
(-0.0721385 -0.284629 0)
(0.0098672 -1.5084 0)
(0.00300624 -1.50033 0)
(0.0327701 -0.0205694 0)
(-0.103508 0.345621 0)
(-0.128616 0.430494 0)
(-0.112103 0.451267 0)
(-0.283194 -0.168949 0)
(-0.299332 -0.0809732 0)
(-0.253224 -0.0167915 0)
(0.00482579 -1.15729 0)
(0.0168863 -1.47942 0)
(-0.00425163 -1.48789 0)
(0.0872304 -0.348198 0)
(-0.0268043 0.463953 0)
(-0.0271667 0.45479 0)
(-0.0232269 0.464952 0)
(-0.00673955 0.0983132 0)
(-0.0377721 0.00370014 0)
(-0.0192404 -0.148652 0)
(-0.00351363 -1.25784 0)
(0.00266656 -1.46614 0)
(-0.00784543 -1.46517 0)
(0.0767718 -0.227404 0)
(-0.0307936 0.640547 0)
(-0.0293945 0.419142 0)
(-0.00302666 0.379879 0)
(-0.0345252 -0.0873097 0)
(-0.014974 -0.0193797 0)
(0.00886406 -0.00152721 0)
(0.014202 -1.25327 0)
(0.00856624 -1.4469 0)
(-0.00934587 -1.44776 0)
(0.0763876 -0.630668 0)
(0.189711 0.842405 0)
(0.101673 0.515938 0)
(0.185397 0.278226 0)
(-0.253353 -0.0721726 0)
(-0.263066 -0.0847503 0)
(-0.0701024 -0.390862 0)
(-0.000493632 -1.33671 0)
(0.00510882 -1.43192 0)
(-0.00469967 -1.43213 0)
(0.0199036 -1.15642 0)
(0.383089 0.735943 0)
(0.465778 0.596248 0)
(0.550792 0.274354 0)
(-0.185025 -0.146622 0)
(-0.0967329 -0.275847 0)
(-0.0273348 -0.56511 0)
(0.00234651 -1.39459 0)
(0.006881 -1.41857 0)
(-0.00772705 -1.42311 0)
(-0.00829125 -1.35879 0)
(0.104022 0.0493971 0)
(0.373444 0.355959 0)
(0.408107 0.289605 0)
(-0.0405779 -0.227253 0)
(-0.0199269 -0.321535 0)
(-0.0227019 -0.580772 0)
(-0.0116867 -1.39203 0)
(-0.00170909 -1.41103 0)
(-0.0123419 -1.40957 0)
(-0.0239075 -1.38421 0)
(-0.00585226 -0.364933 0)
(0.201536 0.216953 0)
(0.240789 0.254053 0)
(-0.0205949 -0.235472 0)
(-0.0232912 -0.304681 0)
(-0.00572667 -0.613443 0)
(0.0024359 -1.38608 0)
(0.00457084 -1.40335 0)
(-0.00717824 -1.39929 0)
(-0.00404607 -1.38311 0)
(-0.00655733 -0.51473 0)
(0.125536 0.0664009 0)
(0.216435 0.145263 0)
(-0.0654199 -0.314735 0)
(-0.0602635 -0.31613 0)
(0.00167193 -0.702539 0)
(0.00531968 -1.38011 0)
(0.00963862 -1.39563 0)
(-0.00207282 -1.39151 0)
(0.000912162 -1.37951 0)
(-0.0058639 -0.658853 0)
(0.0855916 -0.1424 0)
(0.173226 -0.0531646 0)
(-0.0979079 -0.353635 0)
(-0.0623506 -0.421691 0)
(0.0237881 -0.810497 0)
(0.0125434 -1.37426 0)
(0.0103276 -1.38587 0)
(0.00175931 -1.38631 0)
(0.0096295 -1.37224 0)
(0.00502357 -0.713871 0)
(0.0613565 -0.29846 0)
(0.107582 -0.182711 0)
(-0.0715499 -0.395071 0)
(-0.0425116 -0.550935 0)
(0.00546763 -0.86518 0)
(8.11867e-05 -1.37027 0)
(0.00578828 -1.38114 0)
(-0.00387375 -1.38172 0)
(-0.00236948 -1.36831 0)
(-0.0106543 -0.764311 0)
(0.0246541 -0.355529 0)
(0.0495392 -0.234785 0)
(0.0113188 -0.426545 0)
(0.0121701 -0.573813 0)
(0.0305827 -0.880027 0)
(0.0118994 -1.36433 0)
(0.00872087 -1.37449 0)
(-0.0022011 -1.37421 0)
(0.00372568 -1.36102 0)
(-0.00292032 -0.763364 0)
(-0.00745665 -0.374874 0)
(0.00194921 -0.311752 0)
(0.0436261 -0.463744 0)
(0.0395337 -0.56457 0)
(0.0306518 -0.852898 0)
(0.00814923 -1.35409 0)
(0.00697797 -1.36019 0)
(-0.00580823 -1.36346 0)
(-0.00612308 -1.35185 0)
(-0.0220686 -0.741749 0)
(-0.0260183 -0.374626 0)
(-0.0292427 -0.372245 0)
(0.0497943 -0.521067 0)
(0.0502141 -0.563303 0)
(0.037967 -0.783797 0)
(0.00793418 -1.33556 0)
(0.00733709 -1.3423 0)
(-0.00729173 -1.34325 0)
(-0.0113586 -1.33774 0)
(-0.036404 -0.70552 0)
(-0.0302055 -0.351248 0)
(-0.0394343 -0.398622 0)
(0.0617808 -0.541043 0)
(0.0568567 -0.544775 0)
(0.0405454 -0.72879 0)
(0.0147452 -1.2995 0)
(0.00797218 -1.32498 0)
(-0.00547554 -1.32446 0)
(-0.00903508 -1.30659 0)
(-0.0398246 -0.676918 0)
(-0.038956 -0.342271 0)
(-0.0671833 -0.389985 0)
(0.0452417 -0.551698 0)
(0.0310078 -0.500703 0)
(0.0233247 -0.723458 0)
(0.0185771 -1.27239 0)
(0.00882399 -1.3053 0)
(-0.00543679 -1.30577 0)
(-0.00653576 -1.27118 0)
(-0.026301 -0.661183 0)
(-0.0281088 -0.339324 0)
(-0.0464573 -0.320799 0)
(0.039162 -0.544582 0)
(0.0182553 -0.471257 0)
(0.0174651 -0.728862 0)
(0.0141153 -1.27082 0)
(0.00883307 -1.28517 0)
(-0.00638916 -1.28561 0)
(-0.00842295 -1.26035 0)
(-0.0201168 -0.584951 0)
(-0.0648424 -0.298923 0)
(-0.0873735 -0.232477 0)
(0.033228 -0.496723 0)
(0.0133363 -0.466098 0)
(0.0188225 -0.72734 0)
(0.00993655 -1.26286 0)
(0.00819623 -1.26612 0)
(-0.0071023 -1.26771 0)
(-0.00762245 -1.25413 0)
(-0.017038 -0.493289 0)
(-0.0770792 -0.207023 0)
(-0.120641 -0.14583 0)
(0.0596019 -0.40352 0)
(0.0301639 -0.454212 0)
(0.0213059 -0.71291 0)
(0.00698979 -1.25545 0)
(0.00728307 -1.24878 0)
(-0.00842916 -1.25027 0)
(-0.0104429 -1.2455 0)
(-0.0148286 -0.455296 0)
(-0.047812 -0.1075 0)
(-0.118153 -0.0397484 0)
(0.0928092 -0.307841 0)
(0.0541431 -0.387946 0)
(0.0214898 -0.647629 0)
(0.00696272 -1.24168 0)
(0.00693078 -1.23029 0)
(-0.00938503 -1.23133 0)
(-0.0123252 -1.23841 0)
(-0.0146297 -0.443429 0)
(-0.0232856 -0.00157751 0)
(-0.0807081 0.075768 0)
(0.0731094 -0.244057 0)
(0.044779 -0.314324 0)
(0.0199823 -0.614846 0)
(0.00920493 -1.22537 0)
(0.00784205 -1.21282 0)
(-0.00707066 -1.21266 0)
(-0.00774991 -1.22521 0)
(-0.00932862 -0.461826 0)
(0.00311627 0.044709 0)
(-0.0382508 0.16251 0)
(0.051814 -0.17775 0)
(0.0205004 -0.272978 0)
(0.0152363 -0.609419 0)
(0.00661183 -1.21057 0)
(0.00735132 -1.19636 0)
(-0.0075416 -1.19741 0)
(-0.0086093 -1.21133 0)
(-0.00834981 -0.500909 0)
(0.0212992 0.06926 0)
(-0.0116923 0.225697 0)
(0.0266106 -0.101461 0)
(0.00231783 -0.237276 0)
(0.0147183 -0.614225 0)
(0.0078755 -1.19688 0)
(0.00672884 -1.18341 0)
(-0.00672222 -1.18406 0)
(-0.00708576 -1.19839 0)
(-0.00617944 -0.554558 0)
(0.0249698 0.082708 0)
(-0.00636796 0.275601 0)
(0.0293217 -0.0419893 0)
(0.00187646 -0.209646 0)
(0.0151967 -0.632109 0)
(0.00704997 -1.18293 0)
(0.00706148 -1.16844 0)
(-0.00702731 -1.17014 0)
(-0.00762657 -1.1847 0)
(-0.0086825 -0.597153 0)
(0.0091613 0.111791 0)
(-0.0204467 0.30943 0)
(0.00891516 -0.0225479 0)
(-0.00307219 -0.210807 0)
(0.0154041 -0.667225 0)
(0.00806675 -1.16913 0)
(0.0065505 -1.15648 0)
(-0.00630272 -1.15615 0)
(-0.00816863 -1.17049 0)
(-0.01363 -0.632041 0)
(-0.00295379 0.152371 0)
(-0.0405612 0.316054 0)
(0.00777687 -0.0286354 0)
(0.00358597 -0.221984 0)
(0.0182149 -0.67479 0)
(0.00983628 -1.15321 0)
(0.00739022 -1.14148 0)
(-0.00667784 -1.14166 0)
(-0.00822392 -1.15503 0)
(-0.0132334 -0.666792 0)
(0.0122727 0.189952 0)
(-0.0417602 0.307593 0)
(0.042099 -0.0450892 0)
(0.0413319 -0.194256 0)
(0.0308097 -0.644429 0)
(0.0144905 -1.13702 0)
(0.0101826 -1.12647 0)
(-0.00385382 -1.12542 0)
(-0.00510142 -1.13892 0)
(-0.0205846 -0.672588 0)
(0.0179281 0.228496 0)
(-0.0290086 0.31541 0)
(0.05795 -0.0779082 0)
(0.0412107 -0.161553 0)
(0.0317942 -0.636482 0)
(0.0174286 -1.12064 0)
(0.0106596 -1.10808 0)
(-0.00369409 -1.10995 0)
(-0.00304081 -1.12232 0)
(-0.0186164 -0.681951 0)
(0.0160111 0.217935 0)
(0.0115661 0.345879 0)
(0.0232388 -0.122691 0)
(0.0104695 -0.138922 0)
(0.014747 -0.648216 0)
(0.00849122 -1.10456 0)
(0.00658894 -1.09125 0)
(-0.00892037 -1.09286 0)
(-0.0140403 -1.10621 0)
(-0.028696 -0.706616 0)
(0.0152482 0.108826 0)
(0.0515978 0.337948 0)
(0.0256203 -0.137666 0)
(0.0101843 -0.111181 0)
(0.0172536 -0.647165 0)
(0.0118539 -1.08876 0)
(0.00776976 -1.07295 0)
(-0.00765733 -1.07264 0)
(-0.0120337 -1.09003 0)
(-0.020402 -0.718974 0)
(0.000379914 0.0155501 0)
(0.0455756 0.340927 0)
(0.041081 -0.127393 0)
(0.0193783 -0.0859173 0)
(0.0203654 -0.649868 0)
(0.0128047 -1.07246 0)
(0.00831105 -1.05378 0)
(-0.00854986 -1.05288 0)
(-0.0131265 -1.07358 0)
(-0.0210637 -0.726342 0)
(-0.0150702 -0.0227988 0)
(0.0170254 0.341481 0)
(0.0067478 -0.0555069 0)
(-0.0109545 -0.0724576 0)
(0.0217496 -0.681664 0)
(0.0126801 -1.05611 0)
(0.00809343 -1.03264 0)
(-0.00779157 -1.03222 0)
(-0.0120954 -1.05669 0)
(-0.0211069 -0.727812 0)
(-0.0234806 -0.0456025 0)
(0.0061474 0.314938 0)
(0.00380277 0.0135022 0)
(0.00297922 -0.109061 0)
(0.0210072 -0.692591 0)
(0.013119 -1.03825 0)
(0.0083302 -1.01327 0)
(-0.00875901 -1.01308 0)
(-0.0133422 -1.0383 0)
(-0.0215487 -0.72537 0)
(-0.0223753 -0.0732522 0)
(0.0083127 0.244259 0)
(0.0194091 0.0581309 0)
(0.0190361 -0.102486 0)
(0.0206637 -0.697917 0)
(0.0121241 -1.01979 0)
(0.00771295 -0.99191 0)
(-0.00799759 -0.99127 0)
(-0.0127282 -1.02004 0)
(-0.0219665 -0.725974 0)
(-0.0234642 -0.0794825 0)
(-0.0148592 0.179098 0)
(0.0247067 0.0709477 0)
(0.0217374 -0.0958001 0)
(0.0222379 -0.700983 0)
(0.0121314 -0.999595 0)
(0.00761475 -0.9735 0)
(-0.00814436 -0.973653 0)
(-0.0117757 -0.999791 0)
(-0.0227493 -0.72621 0)
(-0.0229636 -0.0740628 0)
(-0.03324 0.141484 0)
(0.024488 0.0854391 0)
(0.0205775 -0.0877214 0)
(0.0229926 -0.704374 0)
(0.0119635 -0.978558 0)
(0.00711207 -0.954966 0)
(-0.00730289 -0.954907 0)
(-0.0119017 -0.979318 0)
(-0.0229087 -0.724205 0)
(-0.0202195 -0.0576117 0)
(-0.0303889 0.137796 0)
(0.014034 0.081399 0)
(0.0177583 -0.0925006 0)
(0.0240756 -0.70493 0)
(0.0122133 -0.957607 0)
(0.00727741 -0.93595 0)
(-0.00778101 -0.937504 0)
(-0.0118488 -0.958967 0)
(-0.0242037 -0.722307 0)
(-0.020781 -0.0621188 0)
(-0.014441 0.1447 0)
(0.00807401 0.0713865 0)
(0.0197359 -0.10329 0)
(0.023382 -0.704424 0)
(0.0121726 -0.935617 0)
(0.00702466 -0.918946 0)
(-0.00705001 -0.919449 0)
(-0.0123403 -0.937688 0)
(-0.0232305 -0.720126 0)
(-0.0196386 -0.0856444 0)
(0.00102774 0.132366 0)
(0.0159261 0.0610946 0)
(0.027395 -0.111999 0)
(0.0235132 -0.696945 0)
(0.0135665 -0.915071 0)
(0.00761085 -0.898405 0)
(-0.00792073 -0.901188 0)
(-0.0133194 -0.918111 0)
(-0.0233183 -0.712825 0)
(-0.0250259 -0.107521 0)
(0.00108443 0.106958 0)
(0.0199922 0.0490967 0)
(0.0320188 -0.118036 0)
(0.0240866 -0.684835 0)
(0.0136382 -0.894112 0)
(0.00787035 -0.879366 0)
(-0.00753578 -0.880721 0)
(-0.0138699 -0.897898 0)
(-0.0232157 -0.700807 0)
(-0.0305175 -0.12516 0)
(-0.012328 0.067258 0)
(0.0183311 0.0363312 0)
(0.0332108 -0.129049 0)
(0.0243224 -0.671882 0)
(0.0151157 -0.873805 0)
(0.00816477 -0.857448 0)
(-0.00863052 -0.8598 0)
(-0.0151785 -0.878129 0)
(-0.0242981 -0.687653 0)
(-0.0330479 -0.134379 0)
(-0.0162218 0.0370715 0)
(0.0184904 0.0231294 0)
(0.0360216 -0.139123 0)
(0.0253976 -0.655837 0)
(0.0154102 -0.853389 0)
(0.00869849 -0.835537 0)
(-0.00837899 -0.836697 0)
(-0.0160841 -0.857871 0)
(-0.0247504 -0.674968 0)
(-0.0348833 -0.144763 0)
(-0.0166215 0.0118428 0)
(0.0241094 0.00797917 0)
(0.0379792 -0.1469 0)
(0.0263951 -0.642414 0)
(0.0172644 -0.832544 0)
(0.00916853 -0.811715 0)
(-0.00853637 -0.812748 0)
(-0.0166399 -0.836694 0)
(-0.0249494 -0.664376 0)
(-0.0322118 -0.163048 0)
(-0.0118321 -0.0236203 0)
(0.0228865 -0.0140341 0)
(0.0357211 -0.151027 0)
(0.0244896 -0.628097 0)
(0.0174057 -0.810904 0)
(0.00899952 -0.786851 0)
(-0.00894289 -0.787666 0)
(-0.0183173 -0.814452 0)
(-0.0269085 -0.649783 0)
(-0.0370876 -0.170411 0)
(-0.0181618 -0.0449323 0)
(0.0489752 -0.0202743 0)
(0.0525633 -0.124786 0)
(0.0293126 -0.600032 0)
(0.0192808 -0.78765 0)
(0.00951111 -0.760374 0)
(-0.00894771 -0.760291 0)
(-0.019796 -0.790444 0)
(-0.0290162 -0.63989 0)
(-0.0384864 -0.18323 0)
(-0.0214627 -0.0765388 0)
(0.0280529 -0.0508952 0)
(0.0421198 -0.122718 0)
(0.0313626 -0.593833 0)
(0.0218361 -0.762162 0)
(0.0101473 -0.733022 0)
(-0.00719626 -0.733359 0)
(-0.0187805 -0.764089 0)
(-0.0285594 -0.62763 0)
(-0.0409767 -0.186821 0)
(-0.0266186 -0.0945875 0)
(0.00912814 -0.0845729 0)
(0.0342111 -0.134535 0)
(0.0303768 -0.592461 0)
(0.0213246 -0.73305 0)
(0.00816714 -0.705432 0)
(-0.00740116 -0.706718 0)
(-0.0190881 -0.734527 0)
(-0.0298959 -0.613187 0)
(-0.0472086 -0.183675 0)
(-0.0351086 -0.101596 0)
(0.042889 -0.10113 0)
(0.054776 -0.132756 0)
(0.0303889 -0.567054 0)
(0.0196867 -0.701648 0)
(0.00510886 -0.67911 0)
(-0.00748021 -0.678849 0)
(-0.0203338 -0.702641 0)
(-0.0289425 -0.595274 0)
(-0.0517197 -0.17698 0)
(-0.0409945 -0.102837 0)
(0.038185 -0.107192 0)
(0.0473309 -0.124348 0)
(0.0284357 -0.553017 0)
(0.0204363 -0.670196 0)
(0.00536423 -0.65488 0)
(-0.00557911 -0.654948 0)
(-0.0217574 -0.671214 0)
(-0.0278504 -0.570191 0)
(-0.0522349 -0.163655 0)
(-0.0452335 -0.0934869 0)
(0.0215812 -0.0805004 0)
(0.0292088 -0.139271 0)
(0.0323812 -0.536735 0)
(0.0225754 -0.641748 0)
(0.00707617 -0.631045 0)
(-0.00411749 -0.632434 0)
(-0.0203366 -0.642517 0)
(-0.032234 -0.542207 0)
(-0.0450345 -0.15162 0)
(-0.0452642 -0.0769163 0)
(0.0584183 -0.0247018 0)
(0.0199799 -0.134849 0)
(0.0420114 -0.516996 0)
(0.0212466 -0.613755 0)
(0.00679634 -0.604234 0)
(-0.00606873 -0.60471 0)
(-0.0215596 -0.614124 0)
(-0.0423545 -0.531796 0)
(-0.0175819 -0.162119 0)
(-0.0409221 -0.0628913 0)
(0.0485263 0.00318734 0)
(-0.0124333 -0.132302 0)
(0.049521 -0.530114 0)
(0.0224455 -0.581735 0)
(0.0081522 -0.571818 0)
(-0.0104473 -0.572018 0)
(-0.0294702 -0.581155 0)
(-0.0469794 -0.546849 0)
(0.0186255 -0.179136 0)
(-0.0344583 -0.0364751 0)
(0.0421359 0.0621869 0)
(0.0324193 -0.114083 0)
(0.0494071 -0.536972 0)
(0.0273312 -0.54516 0)
(0.00658373 -0.539467 0)
(-0.00634275 -0.540615 0)
(-0.0239388 -0.544924 0)
(-0.0460704 -0.547512 0)
(-0.0364717 -0.161465 0)
(-0.0420084 -0.00376629 0)
(0.0398955 0.0786801 0)
(0.0548069 -0.15843 0)
(0.0395469 -0.497685 0)
(0.0142437 -0.506824 0)
(-0.00463577 -0.508943 0)
(-0.0221487 -0.508549 0)
(-0.0391171 -0.508813 0)
(-0.065604 -0.494063 0)
(-0.063748 -0.199404 0)
(-0.0583128 0.00944453 0)
(0.0505698 0.10759 0)
(0.0473862 -0.171924 0)
(0.0609257 -0.450945 0)
(0.0391426 -0.466223 0)
(0.0203608 -0.47126 0)
(0.00156398 -0.471403 0)
(-0.0179947 -0.471137 0)
(-0.0517954 -0.457529 0)
(-0.0552463 -0.231561 0)
(-0.059294 0.0331891 0)
(0.0374849 0.111385 0)
(0.0645247 -0.191361 0)
(0.0621415 -0.407419 0)
(0.0231277 -0.422007 0)
(0.00224471 -0.43017 0)
(-0.0211228 -0.430417 0)
(-0.0401761 -0.423153 0)
(-0.0680073 -0.40234 0)
(-0.0731125 -0.213448 0)
(-0.0699275 0.040453 0)
(0.00695422 0.0960428 0)
(0.077449 -0.268635 0)
(0.0702401 -0.357156 0)
(0.0505482 -0.383379 0)
(0.0253485 -0.385144 0)
(-0.000616419 -0.386812 0)
(-0.0201922 -0.382804 0)
(-0.0530454 -0.360789 0)
(-0.0694929 -0.275142 0)
(0.0286096 0.0127472 0)
(0.062202 -0.0406184 0)
(0.0696577 -0.283529 0)
(0.0622998 -0.314767 0)
(0.0250285 -0.331126 0)
(0.0069768 -0.333582 0)
(-0.017481 -0.331765 0)
(-0.0436971 -0.327273 0)
(-0.0725015 -0.320228 0)
(-0.0757727 -0.28633 0)
(-0.0851896 -0.0505773 0)
(0.0973744 -0.173054 0)
(0.0739649 -0.223577 0)
(0.0699348 -0.260814 0)
(0.0361278 -0.277917 0)
(0.0103861 -0.28638 0)
(-0.0190158 -0.287159 0)
(-0.0371263 -0.283275 0)
(-0.0663976 -0.260769 0)
(-0.0749384 -0.223388 0)
(-0.0973725 -0.169747 0)
(0.0592177 -0.120793 0)
(0.0502856 -0.195635 0)
(0.043472 -0.232715 0)
(0.026517 -0.243959 0)
(0.0185494 -0.24879 0)
(-0.00289271 -0.249453 0)
(-0.0155654 -0.244285 0)
(-0.0423998 -0.233804 0)
(-0.0492924 -0.194599 0)
(-0.0591081 -0.119458 0)
(0.266471 -0.00861141 0)
(0.267163 -0.0124596 0)
(0.267526 -0.0153263 0)
(0.268835 -0.0160935 0)
(0.274378 -0.0155742 0)
(0.291049 -0.0213923 0)
(0.324259 -0.0238338 0)
(0.357905 -0.0294386 0)
(0.396281 -0.0293868 0)
(0.433436 -0.0284884 0)
(0.472186 -0.0300247 0)
(0.514522 -0.0364043 0)
(0.56689 -0.0470592 0)
(0.63194 -0.0583042 0)
(0.704997 -0.0663486 0)
(0.783006 -0.0686744 0)
(0.863624 -0.0582069 0)
(0.934045 -0.0389546 0)
(0.980358 -0.0225175 0)
(1.00438 -0.00306531 0)
(1.00079 0.0288696 0)
(0.96341 0.0557667 0)
(0.846684 0.101687 0)
(0.750985 0.106391 0)
(0.661565 0.108819 0)
(0.568993 0.0918472 0)
(0.484148 0.0640535 0)
(0.427765 0.0567406 0)
(0.379186 0.0408739 0)
(0.32278 0.038148 0)
(0.27778 0.0401055 0)
(0.208219 0.0543622 0)
(0.166161 0.0478602 0)
(0.0997172 0.0586293 0)
(-0.000175596 0.0688148 0)
(-0.0332024 0.0359228 0)
(-0.0695167 0.0225117 0)
(-0.0880872 0.000546578 0)
(-0.0622641 -0.0370003 0)
(-0.0452948 -0.0681987 0)
(0.137249 0.00697979 0)
(0.109512 0.00714258 0)
(0.101317 0.00957008 0)
(0.105568 -0.000404569 0)
(0.122607 -0.0255775 0)
(0.166552 -0.0755017 0)
(0.21402 -0.0982894 0)
(0.266111 -0.106877 0)
(0.313472 -0.105432 0)
(0.352164 -0.10951 0)
(0.383498 -0.122168 0)
(0.422235 -0.146462 0)
(0.466845 -0.180239 0)
(0.5223 -0.212261 0)
(0.582488 -0.234068 0)
(0.644642 -0.247179 0)
(0.721747 -0.234584 0)
(0.803562 -0.178666 0)
(0.860191 -0.116302 0)