/*--------------------------------*- C++ -*----------------------------------*\
  =========                 |
  \\      /  F ield         | OpenFOAM: The Open Source CFD Toolbox
   \\    /   O peration     | Website:  https://openfoam.org
    \\  /    A nd           | Version:  8
     \\/     M anipulation  |
\*---------------------------------------------------------------------------*/
FoamFile
{
    version     2.0;
    format      ascii;
    class       volScalarField;
    location    "0.35";
    object      alpha.water;
}
// * * * * * * * * * * * * * * * * * * * * * * * * * * * * * * * * * * * * * //

dimensions      [0 0 0 0 0 0 0];

internalField   nonuniform List<scalar> 
9150
(
1
1
1
1
1
1
1
1
1
1
1
1
1
1
1
1
1
1
1
1
1
1
1
1
1
1
1
1
1
1
1
1
1
1
1
1
1
1
1
1
1
1
1
1
1
1
1
1
1
1
1
1
1
1
1
1
1
1
1
1
1
1
1
1
1
1
1
1
1
1
1
1
1
1
1
1
1
1
1
1
1
1
1
1
1
1
1
1
1
1
1
1
1
1
1
1
1
1
1
1
1
1
1
1
1
1
1
1
1
1
1
1
1
1
1
1
1
1
1
1
1
1
1
1
1
1
1
1
1
1
1
1
1
1
1
1
1
1
1
1
1
1
1
1
1
1
1
1
1
1
0.347491
0.437459
0.502659
0.51864
0.523961
0.523961
0.512368
0.500984
0.468133
0.339909
2.93383e-07
7.67598e-06
0.00029608
0.0919552
0.523961
0.523959
0.0919716
0.000274685
8.87717e-06
3.57072e-07
4.88574e-09
1.0135e-07
2.37688e-07
0.00649061
0.511471
0.511575
0.00711264
7.6904e-09
1.06454e-08
6.93591e-09
2.82612e-09
4.88387e-09
1.01273e-07
0.0083738
0.494501
0.494827
0.00903329
9.16128e-09
6.95249e-09
6.36814e-09
2.2727e-09
3.36152e-06
1.49181e-07
0.00979466
0.500362
0.499308
0.00957031
1.08847e-08
7.16997e-08
2.86291e-08
1.17285e-07
4.66005e-06
1.01567e-08
0.00700907
0.500413
0.498681
0.0035994
1.36276e-08
1.30678e-06
6.28259e-08
2.14674e-10
1.79707e-06
1.57781e-09
0.000288321
0.499987
0.499371
0.000770795
2.38842e-08
3.67852e-06
1.19663e-10
1.2763e-09
1.36822e-09
1.51821e-09
1.57781e-09
0.49108
0.492854
4.89497e-06
9.50687e-08
3.87566e-06
1.37184e-10
1.43143e-08
1.6108e-09
1.57781e-09
2.50873e-09
0.482286
0.481847
5.16962e-08
7.4778e-08
3.8787e-06
1.48226e-10
2.41374e-08
1.48624e-07
1.49725e-08
1.25617e-08
0.485433
0.48882
1.26793e-08
1.40829e-08
2.05874e-06
2.76837e-10
1.41135e-08
1.17596e-06
2.95246e-08
3.50101e-08
0.533837
0.535268
3.09459e-09
2.77661e-09
2.77661e-09
1.10453e-08
1.43793e-08
1.18234e-06
4.51559e-08
5.84541e-08
0.570292
0.572401
6.91618e-09
2.83542e-09
2.75899e-09
1.94207e-08
1.47174e-09
1.14798e-06
6.32298e-08
9.56323e-05
0.577047
0.577007
0.000122974
4.62474e-09
2.83542e-09
1.81632e-08
1.47174e-09
2.5318e-07
1.08907e-07
0.00142831
0.576844
0.576948
0.000641283
5.05659e-08
3.08958e-08
3.66234e-09
1.47136e-09
1.25484e-06
2.15798e-07
0.00250314
0.576724
0.575774
0.00128536
1.53698e-07
2.03758e-06
2.96644e-10
1.47801e-09
2.92568e-06
2.83267e-07
0.00188616
0.57678
0.577924
0.00268063
2.09814e-07
3.41808e-06
2.96431e-10
8.09656e-09
2.92584e-06
2.82385e-07
0.0036814
0.578551
0.578278
0.00220763
2.58505e-07
3.41771e-06
2.95535e-09
4.12683e-07
2.9266e-06
3.95255e-07
0.00404716
0.578689
0.579177
0.00473628
3.07416e-07
3.35233e-06
7.2154e-08
1.96881e-06
1.47028e-06
7.6001e-07
0.00550263
0.579302
0.578472
0.0049308
3.0774e-07
6.56073e-07
6.03522e-07
2.50323e-06
6.89543e-07
6.89296e-07
0.00636706
0.579351
0.577818
0.00386305
2.85645e-07
3.61613e-07
1.00236e-06
2.48451e-06
1.04069e-06
7.54013e-07
0.00538547
0.57932
0.579873
0.00579187
1.42997e-07
1.08944e-06
9.27152e-07
4.5906e-07
1.90712e-06
4.56933e-07
0.00938818
0.58001
0.579319
0.00764817
2.26092e-08
3.0769e-06
1.91795e-07
4.60073e-10
1.91255e-06
2.3051e-07
0.00734079
0.579015
0.580236
0.0100257
2.36895e-08
3.07985e-06
8.48024e-10
4.59997e-10
1.63791e-06
3.33448e-09
0.00788603
0.579878
0.579692
0.00648921
1.37499e-08
3.07401e-06
8.47369e-10
4.60054e-10
1.04225e-07
2.97435e-09
0.00404501
0.579384
0.580074
0.00580226
5.47928e-09
1.12446e-06
8.47732e-10
1.44091e-09
1.44448e-09
2.25119e-09
0.00170529
0.579358
0.580074
0.00250573
4.52102e-09
3.52629e-09
3.50391e-09
1.44448e-09
7.97572e-07
3.01277e-09
0.000385888
0.578538
0.578688
9.37441e-09
6.05739e-09
8.29731e-07
3.52629e-09
2.87473e-09
1.66771e-06
9.5199e-09
1.24969e-08
0.575852
0.576307
3.026e-08
1.56679e-08
2.58983e-06
1.67245e-07
1.81568e-07
1.66819e-06
1.24981e-08
8.88854e-05
0.575596
0.574102
0.000220179
3.026e-08
2.5953e-06
2.05446e-06
1.37625e-06
1.66771e-06
4.32131e-08
2.87353e-09
0.583617
0.586837
4.81779e-09
5.06686e-08
1.92083e-06
3.01497e-06
1.99752e-06
9.57944e-07
3.15516e-09
2.82236e-09
0.601974
0.60239
4.68094e-09
4.94906e-08
8.88493e-07
3.01666e-06
1.99752e-06
7.45772e-07
2.8503e-09
2.79464e-09
0.61566
0.614572
4.58291e-09
4.81022e-08
9.34705e-07
3.01741e-06
1.99687e-06
4.12607e-07
2.87522e-09
2.78303e-09
0.621651
0.621962
4.506e-09
5.04422e-08
5.27594e-07
3.01564e-06
1.07881e-06
7.64241e-08
1.05163e-08
2.71768e-09
0.62577
0.626346
4.40071e-09
6.08964e-08
1.04928e-07
1.00214e-06
5.36639e-10
1.56538e-09
1.03674e-07
2.50089e-09
0.631314
0.631885
4.22482e-09
1.04328e-07
3.60333e-08
4.92428e-10
5.36531e-10
3.70761e-07
1.59139e-07
2.21569e-09
0.641286
0.641546
4.03676e-09
1.20102e-07
4.76381e-07
3.34968e-08
1.10576e-09
7.14912e-07
1.45282e-07
1.96652e-09
0.648324
0.648567
3.84595e-09
1.25199e-07
5.73609e-07
3.90997e-07
2.38121e-08
7.15058e-07
9.41928e-08
1.79301e-09
0.651959
0.652198
3.68545e-09
1.08412e-07
5.73609e-07
5.73609e-07
2.76636e-07
7.15054e-07
5.08666e-08
1.69905e-09
0.656851
0.65711
3.59033e-09
6.98431e-08
5.73609e-07
5.73589e-07
5.73577e-07
7.15055e-07
2.65495e-08
1.65032e-09
0.660362
0.660655
3.53349e-09
4.33627e-08
5.73589e-07
3.64794e-07
5.51382e-07
4.47852e-07
8.28358e-09
1.63742e-09
0.663955
0.664273
3.5111e-09
2.17745e-08
5.72831e-07
5.83537e-09
8.03203e-08
4.02873e-10
2.02516e-09
1.63738e-09
0.666696
0.667014
3.50772e-09
8.34873e-09
1.56355e-07
5.76001e-09
3.71313e-10
3.89422e-10
1.64372e-09
1.63742e-09
0.670372
0.670682
3.5111e-09
3.87306e-09
1.90673e-09
7.68613e-09
1.06915e-09
1.16984e-09
1.13026e-08
1.63738e-09
0.673877
0.674094
3.50772e-09
8.16482e-09
1.89318e-09
2.67777e-09
3.82986e-09
1.30538e-09
3.21332e-08
1.66785e-09
0.679774
0.679924
3.51731e-09
1.66371e-08
5.48602e-09
3.14296e-09
2.11188e-08
1.00767e-07
4.02417e-08
1.76859e-09
0.685452
0.685721
3.56006e-09
1.87166e-08
1.33454e-07
3.83054e-08
3.5553e-08
4.23077e-07
4.09067e-08
2.01786e-09
0.694054
0.694435
3.71732e-09
1.86501e-08
1.93454e-07
7.0677e-08
4.09118e-08
4.23088e-07
3.25613e-08
2.96817e-09
0.70262
0.703019
4.51316e-09
1.03257e-08
1.93454e-07
7.70607e-08
3.37368e-08
4.23088e-07
1.50107e-08
8.15e-09
0.712828
0.71315
3.61664e-09
4.8738e-09
1.93454e-07
7.01289e-08
2.25124e-08
4.23088e-07
5.8543e-09
5.21049e-09
0.722534
0.722855
1.85287e-09
1.64279e-09
1.93441e-07
4.09196e-08
1.08543e-08
4.23087e-07
2.76301e-09
3.20692e-09
0.731972
0.732276
1.4638e-09
1.27951e-09
1.84015e-07
1.23272e-08
3.51162e-09
4.23015e-07
1.98957e-09
2.37301e-09
0.740685
0.740923
1.27951e-09
1.2604e-09
2.08481e-08
2.01597e-09
1.64511e-09
2.67152e-07
1.64437e-09
1.81268e-09
0.748181
0.748359
1.2604e-09
1.2604e-09
1.26037e-09
1.27382e-09
1.64444e-09
1.64437e-09
1.64437e-09
0.000104647
0.754001
0.75416
0.000171047
1.26037e-09
1.26301e-09
1.88252e-09
1.64478e-09
1.64444e-09
1.64437e-09
0.00475415
0.758338
0.758491
0.00481653
1.26301e-09
1.29361e-08
4.45409e-09
1.65686e-09
1.64692e-09
1.64456e-09
0.00675158
0.762213
0.762331
0.00680621
1.29518e-09
1.49034e-07
4.45042e-09
1.76618e-09
2.39618e-09
1.64704e-09
0.00956432
0.767107
0.767228
0.00961731
1.51083e-09
1.84972e-07
4.79977e-09
1.76617e-09
1.2565e-07
1.67344e-09
0.0119359
0.771281
0.771364
0.0119724
1.87265e-09
1.84988e-07
4.70314e-09
1.76752e-09
2.3151e-07
1.90259e-09
0.0155298
0.777829
0.777909
0.0155666
1.87475e-09
1.84972e-07
2.87724e-09
1.79215e-09
2.31533e-07
2.39759e-09
0.0186197
0.783511
0.7836
0.0186628
1.50028e-09
1.84846e-07
2.56655e-09
1.81151e-09
2.31524e-07
2.53017e-09
0.0233443
0.791794
0.791928
0.0234184
1.33928e-09
1.0368e-07
1.58466e-08
1.90511e-09
2.31482e-07
2.00272e-09
0.0275376
0.798878
0.799001
0.0276141
1.31359e-09
7.71894e-09
9.28295e-08
6.45454e-09
1.55152e-07
1.74649e-09
0.0332724
0.807794
0.807881
0.0333279
1.24801e-09
2.82003e-08
1.18794e-07
5.42004e-08
1.18164e-08
1.6899e-09
0.0383627
0.815216
0.815295
0.038414
1.16112e-09
3.85338e-08
1.18735e-07
1.33112e-07
6.70548e-08
1.48911e-09
0.0446572
0.823704
0.823801
0.04472
1.07735e-09
3.83619e-08
6.21789e-08
1.33116e-07
1.20941e-07
1.16455e-09
0.0503011
0.830811
0.830902
0.0503624
1.0084e-09
2.95379e-08
1.63022e-10
1.33104e-07
1.14214e-07
8.8643e-10
0.0568487
0.838561
0.83865
0.0569052
9.63694e-10
1.9614e-08
1.6302e-10
1.33022e-07
6.52927e-08
7.02289e-10
0.0629465
0.845358
0.845434
0.0629956
8.91035e-10
2.07074e-08
1.63115e-10
1.0828e-07
4.69294e-08
5.68517e-10
0.0698575
0.852689
0.85276
0.0698989
7.62334e-10
4.39012e-08
1.63774e-10
2.82306e-10
2.46755e-08
5.01382e-10
0.0767508
0.859614
0.859677
0.0767856
6.22842e-10
4.66215e-08
1.66638e-10
3.03436e-10
5.07206e-09
4.823e-10
0.0845885
0.867097
0.867179
0.0846459
4.72837e-10
4.66614e-08
1.68018e-10
2.7574e-09
1.94131e-09
4.71157e-10
0.0929079
0.874566
0.874649
0.0929693
3.85182e-10
3.64569e-08
1.96125e-09
5.74173e-09
1.85312e-09
4.59885e-10
0.102348
0.882515
0.882614
0.102443
3.79842e-10
3.14984e-09
9.95855e-09
5.74205e-09
2.21451e-09
4.47036e-10
0.112807
0.890686
0.890805
0.112934
3.79917e-10
1.17839e-09
1.24191e-08
4.45217e-09
2.17067e-09
4.35266e-10
0.124562
0.89915
0.899266
0.124717
3.79842e-10
1.9203e-09
9.99208e-09
7.79226e-10
2.49916e-09
4.18522e-10
0.137836
0.907885
0.907971
0.137976
3.81739e-10
1.17171e-09
7.81852e-10
2.05841e-10
5.16712e-09
3.93255e-10
0.152287
0.916481
0.916518
0.152382
3.83586e-10
3.9895e-09
9.63084e-11
2.02918e-10
5.81655e-09
3.64534e-10
0.168552
0.925218
0.925229
0.168618
3.93631e-10
7.57462e-09
9.62658e-11
1.9905e-10
5.68418e-09
3.37885e-10
0.18568
0.933406
0.933399
0.185721
4.20057e-10
7.87245e-09
1.01006e-10
1.99077e-10
3.57038e-09
3.19902e-10
0.205022
0.9417
0.941703
0.205071
4.51879e-10
7.53916e-09
8.19143e-11
2.02337e-10
2.09343e-09
3.063e-10
0.225343
0.949335
0.949352
0.225419
4.81932e-10
3.85063e-09
8.10775e-11
8.45222e-10
2.06557e-09
2.9278e-10
0.248752
0.957076
0.957099
0.248833
5.00224e-10
2.17241e-09
7.65866e-10
2.72249e-09
2.33016e-09
2.76305e-10
0.273719
0.964066
0.964084
0.273783
5.07407e-10
2.15043e-09
3.01683e-09
3.31296e-09
1.95843e-09
2.66449e-10
0.303424
0.9711
0.971114
0.303472
5.14896e-10
2.044e-09
3.70359e-09
2.92485e-09
7.7829e-10
2.51792e-10
0.335204
0.977147
0.977152
0.335229
5.22637e-10
1.48475e-09
3.23343e-09
9.98927e-10
2.29531e-10
1.52205e-10
0.373078
0.982933
0.982929
0.373069
5.33811e-10
1.41126e-09
3.13229e-09
3.22574e-10
6.31399e-11
6.56944e-11
0.413933
0.987675
0.987671
0.41393
6.17133e-10
1.74625e-09
1.29913e-08
2.77802e-10
5.87152e-11
6.11234e-11
0.462737
0.991816
0.991815
0.462765
5.76517e-10
8.02887e-10
1.957e-08
2.27168e-10
5.4331e-11
5.69753e-11
0.517716
0.994703
0.9947
0.517742
1.39678e-10
4.38954e-11
1.90567e-08
1.23648e-10
5.19778e-11
5.36478e-11
0.583069
0.996376
0.996371
0.583091
4.38954e-11
1.11843e-11
6.57299e-09
4.60778e-11
4.0291e-11
4.96542e-11
0.656039
0.997564
0.997553
0.656027
1.11843e-11
6.61452e-12
6.20856e-12
8.3419e-12
8.29478e-12
1.67625e-10
0.737244
0.998441
0.998437
0.737235
1.2918e-10
6.14238e-12
5.84719e-12
1.19487e-12
4.45989e-12
0.018919
0.812634
0.999126
0.999118
0.812648
0.0191359
4.29559e-12
1.82535e-12
6.15882e-13
9.62946e-11
0.0999003
0.879789
0.999604
0.999603
0.879746
0.100328
6.8936e-11
7.00459e-13
4.24694e-13
2.93592e-09
0.211671
0.942656
0.999863
0.999859
0.942678
0.212267
2.29073e-09
4.84617e-13
2.24767e-13
9.08912e-08
0.399883
0.983751
0.99997
0.99997
0.983714
0.399849
7.74471e-08
2.57347e-13
-2.17682e-12
2.87891e-06
0.660355
0.999979
0.99999
0.999989
0.999978
0.658714
2.67277e-06
-7.48705e-13
-8.7806e-11
0.114016
0.878609
0.999993
1
1
0.999992
0.874984
0.112255
-6.35387e-11
-5.27061e-10
0.607335
0.999953
0.999999
1
1
0.999999
0.999954
0.609541
-4.18967e-10
0.372939
0.977065
1
1
1
1
1
1
0.977447
0.373828
0.398185
0.428856
0.428856
0.425931
0.369515
0.362882
0.398734
0.400674
0.400842
0.400842
0.400842
0.40077
0.260434
0.343514
0.383463
0.384472
0.384621
0.384621
0.384621
0.351637
0.219372
0.383662
0.411431
0.412731
0.413064
0.413149
0.413171
0.413176
0.413177
0.413177
0.413177
0.413177
0.252662
0.381698
0.407978
0.408467
0.408193
0.270524
0.480217
0.572066
2.10501e-05
0.000154289
0.000552894
0.00110559
0.00166443
0.00189563
0.0022359
0.00294646
0.00344219
0.0034006
0.00322577
0.00362526
0.00501276
0.00493206
0.00426314
0.00426818
0.00433241
0.0039568
0.00359021
0.00416779
0.00576299
0.00600053
0.00606645
0.00667942
0.00790123
0.00954839
0.0116032
0.0140366
0.0174267
0.0215017
0.0250855
0.0291731
0.0331737
0.0455789
0.0632615
0.0913601
0.134547
0.177027
0.423522
0.577022
6.35467e-09
7.03529e-09
7.98194e-09
1.86155e-08
1.16815e-08
6.64111e-10
2.65491e-10
6.64111e-10
3.71195e-09
9.66863e-09
3.52724e-07
1.15758e-06
3.48643e-07
1.32003e-06
7.4387e-06
3.94639e-06
3.17043e-07
1.72456e-09
3.23344e-11
3.48779e-12
2.18232e-12
2.18072e-07
1.12227e-05
6.72129e-06
1.647e-06
1.97721e-08
8.35203e-10
2.13443e-10
1.40017e-10
1.26195e-10
1.71871e-08
1.46238e-06
7.51724e-06
2.12596e-05
3.00428e-05
0.000217947
0.000832339
0.07043
0.350425
0.57913
6.2365e-09
6.51188e-09
7.53881e-09
8.02886e-09
6.46136e-08
2.59883e-08
4.88205e-11
2.30108e-07
2.81107e-07
2.83509e-07
3.20272e-07
3.24935e-07
3.39295e-07
4.09287e-06
4.15036e-06
7.64587e-07
1.22004e-08
5.95906e-11
3.48779e-12
2.16837e-12
2.05158e-12
2.17757e-10
1.44175e-10
8.60755e-08
1.38154e-07
3.23663e-08
1.62274e-10
1.30939e-10
1.14793e-10
1.01836e-10
1.82666e-10
2.61547e-08
7.11301e-07
1.22114e-06
1.73417e-06
1.89129e-05
0.000116549
0.0326205
0.329284
0.579789
5.89518e-09
2.32476e-08
2.34557e-08
1.69703e-08
9.10716e-09
3.02889e-09
2.81099e-13
1.87539e-07
1.72791e-07
9.12422e-07
1.63924e-06
1.64025e-06
1.35205e-06
1.13624e-06
3.47932e-07
3.12951e-08
9.07431e-09
3.20213e-09
5.56674e-10
9.97646e-12
6.14196e-13
6.67118e-09
5.67314e-08
1.697e-07
1.81402e-07
1.45988e-07
1.70314e-08
5.89084e-11
7.5262e-11
7.77731e-11
8.79142e-11
3.39944e-07
4.41713e-07
3.24658e-07
4.23142e-07
1.75127e-06
1.71941e-05
0.0323307
0.341447
0.579843
9.63585e-11
9.6353e-11
1.13552e-10
2.65133e-10
8.53767e-12
3.16813e-12
1.57404e-13
2.65607e-08
2.33495e-14
1.53174e-08
2.04133e-07
2.91315e-07
8.53435e-08
2.02508e-10
1.47645e-10
5.08664e-10
1.11069e-09
4.49299e-10
3.02252e-11
9.02335e-13
5.72682e-13
5.91388e-13
6.0656e-13
6.31132e-13
2.14331e-09
3.83512e-10
5.89084e-11
5.89084e-11
7.37305e-11
7.51673e-11
1.22968e-08
6.02731e-08
6.94048e-09
2.88065e-07
3.234e-07
4.23142e-07
2.29224e-06
0.0329761
0.37825
0.585624
1.14786e-10
1.85809e-10
1.25463e-10
3.01918e-11
9.19497e-12
1.60639e-12
1.55049e-13
2.33495e-14
2.29984e-14
2.26675e-14
2.21226e-14
2.0809e-14
2.00886e-14
1.95374e-14
8.82332e-14
4.82124e-13
1.61167e-13
1.59013e-13
2.69895e-13
3.81249e-13
4.75793e-13
8.66045e-13
2.38749e-12
7.06663e-12
9.63672e-12
1.1132e-10
2.46815e-10
6.66634e-10
1.89257e-09
3.88076e-09
7.11887e-09
6.65395e-09
6.49895e-09
1.71792e-07
1.12332e-06
1.08743e-06
1.27694e-06
0.0307799
0.40028
0.58576
2.06191e-10
7.69458e-10
1.87985e-10
9.1788e-11
3.0058e-11
4.36695e-12
6.05215e-13
9.38472e-14
5.73077e-14
4.25068e-14
3.23564e-14
2.11557e-14
1.99369e-14
1.91275e-14
1.54816e-13
1.56788e-13
1.70446e-13
1.59181e-13
1.32175e-13
1.31243e-13
2.58396e-13
1.14898e-12
1.1829e-11
1.54835e-10
5.51212e-10
2.04719e-09
3.13255e-09
4.56998e-09
1.19229e-08
1.22174e-08
1.15504e-08
6.47258e-09
6.4639e-09
1.78954e-07
1.48213e-06
1.44563e-06
1.56616e-06
0.024285
0.36073
0.585777
1.98875e-08
6.74566e-09
8.95353e-11
8.96389e-11
4.14958e-11
5.35223e-12
1.23148e-12
3.28121e-13
9.22354e-14
4.73284e-14
3.44219e-14
2.86428e-14
2.35325e-14
1.91237e-14
1.5418e-14
1.53569e-14
1.41547e-14
1.22133e-14
1.53767e-14
7.43313e-14
1.47202e-12
2.53586e-11
3.01354e-10
1.62775e-09
3.12626e-09
5.16482e-09
7.468e-09
7.99797e-09
8.22464e-09
1.16066e-08
1.03291e-08
6.33415e-09
6.4663e-09
2.45816e-07
9.76323e-07
9.71127e-07
2.07234e-06
0.012364
0.237261
0.58578
6.29217e-08
1.84384e-08
8.97718e-11
1.06679e-10
8.22695e-11
9.93284e-12
2.08742e-12
5.0825e-13
8.43191e-14
1.38589e-14
2.25939e-15
7.21391e-16
5.14043e-16
4.61992e-16
4.33484e-16
4.07904e-16
3.98653e-16
8.15044e-16
1.17807e-14
4.41598e-13
1.2411e-11
2.26575e-10
1.41446e-09
3.61318e-09
4.24476e-09
2.83233e-09
1.74386e-09
1.93376e-09
3.85992e-09
5.69618e-09
4.69371e-09
6.19141e-09
2.8891e-08
1.00191e-07
1.10815e-07
7.83019e-07
1.15445e-05
0.00663217
0.230178
0.58578
6.54481e-08
2.72158e-08
9.02112e-11
9.34252e-11
6.59083e-11
8.6235e-12
1.92598e-12
4.45308e-13
7.4133e-14
1.21887e-14
1.46532e-15
1.67593e-16
4.00863e-17
2.94986e-17
2.8711e-17
3.04088e-17
6.27115e-17
1.09717e-15
3.50017e-14
8.56105e-13
3.09661e-11
5.20808e-10
1.84502e-09
2.37193e-09
2.0897e-09
1.72506e-09
1.73869e-09
1.85591e-09
1.9266e-09
2.03781e-09
2.14435e-09
2.41706e-09
4.79604e-09
1.77055e-08
1.82324e-07
2.77737e-06
5.36121e-05
0.0245707
0.414972
0.58578
6.54481e-08
3.06499e-08
9.05708e-11
1.05759e-10
8.2609e-11
1.10887e-11
2.39152e-12
5.49866e-13
8.22428e-14
1.14695e-14
1.17463e-15
1.00344e-16
7.84957e-18
1.57367e-18
1.22294e-18
3.02247e-18
6.64784e-17
2.38341e-15
6.54502e-14
1.14955e-12
1.66302e-11
1.99933e-10
9.51783e-10
1.73058e-09
1.88508e-09
1.72029e-09
1.6789e-09
1.68193e-09
1.69335e-09
1.75344e-09
1.90763e-09
2.86238e-09
8.84084e-09
4.9338e-08
3.44359e-07
2.8507e-06
0.000116965
0.112269
0.58578
0.58578
6.54481e-08
1.59966e-08
9.09563e-11
1.31668e-10
8.67094e-11
1.07302e-11
2.33158e-12
5.64797e-13
8.46276e-14
1.13105e-14
1.1311e-15
9.27655e-17
5.99256e-18
4.15178e-19
1.52588e-19
2.02728e-18
8.2713e-17
3.20523e-15
9.51378e-14
1.28401e-12
8.16791e-12
4.45583e-11
2.99022e-10
1.0503e-09
1.60552e-09
1.66912e-09
1.6636e-09
1.66863e-09
1.69754e-09
1.89262e-09
2.86266e-09
8.84149e-09
4.93685e-08
2.74744e-07
1.47283e-06
8.06136e-06
6.05709e-05
0.232804
0.58578
0.58578
1.453e-08
1.40276e-08
9.14787e-11
1.79274e-10
8.90425e-11
1.06174e-11
2.4599e-12
6.29544e-13
9.47034e-14
1.20149e-14
1.16504e-15
9.05663e-17
5.70744e-18
3.46105e-19
7.53433e-20
7.58685e-19
2.85612e-17
1.15117e-15
4.70037e-14
8.92343e-13
5.64029e-12
1.65369e-11
4.11355e-11
1.76151e-10
6.34793e-10
1.0445e-09
1.29951e-09
1.50973e-09
1.91289e-09
3.22925e-09
1.05849e-08
0.0141085
0.0735547
0.0762437
0.0161354
5.68905e-05
0.000267922
0.215132
0.555685
0.58578
2.9643e-10
3.27629e-09
1.06018e-10
2.07773e-10
9.07515e-11
1.07412e-11
2.6247e-12
6.93326e-13
1.07526e-13
1.35743e-14
1.34e-15
1.03799e-16
6.44114e-18
3.6351e-19
5.03495e-20
2.22907e-19
8.65757e-18
2.89836e-16
1.02563e-14
2.81081e-13
3.14165e-12
1.26995e-11
2.34101e-11
2.7403e-11
2.02277e-10
9.78986e-10
5.52533e-09
8.46517e-08
1.747e-06
4.03598e-05
0.0917565
0.426388
0.577374
0.572555
0.500825
0.270203
0.0228133
0.145302
0.500317
0.58578
2.97999e-10
2.04963e-10
2.0507e-10
2.07771e-10
1.06866e-10
1.0996e-11
2.8957e-12
7.80163e-13
1.25996e-13
1.6205e-14
1.6369e-15
1.29689e-16
8.16694e-18
4.56528e-19
3.85856e-20
2.78162e-20
1.24047e-18
4.23817e-17
1.43373e-15
4.54147e-14
7.96784e-13
5.40175e-12
1.52166e-11
3.25556e-11
3.62416e-10
6.10498e-09
1.05299e-07
1.94238e-06
3.76755e-05
0.00155911
0.289866
0.585063
0.585648
0.585676
0.585629
0.585286
0.411632
0.233956
0.573302
0.58578
7.54534e-10
2.20623e-09
1.61689e-10
2.03462e-10
8.36952e-11
1.23554e-11
3.21958e-12
8.81922e-13
1.45555e-13
1.9302e-14
1.99145e-15
1.62863e-16
1.05643e-17
6.06876e-19
3.55141e-20
6.82585e-21
9.38716e-20
3.54306e-18
1.18994e-16
3.95034e-15
1.11635e-13
1.46949e-12
6.55659e-12
2.182e-11
3.45668e-10
6.61293e-09
1.21923e-07
2.78024e-06
7.83824e-05
0.00200678
0.150368
0.546474
0.585676
0.585695
0.585694
0.585673
0.585475
0.583321
0.585781
0.58578
7.58139e-10
1.49447e-08
8.14597e-11
1.17888e-10
1.02858e-10
1.60732e-11
3.5284e-12
9.95773e-13
1.65607e-13
2.27401e-14
2.38896e-15
2.01889e-16
1.35703e-17
8.1233e-19
4.64486e-20
4.15873e-21
3.32897e-21
1.44969e-19
5.54063e-18
1.89793e-16
6.07338e-15
1.55763e-13
1.943e-12
1.08628e-11
1.9076e-10
5.13639e-09
1.32668e-07
3.2967e-06
6.81022e-05
0.00115061
0.00828807
0.189173
0.566814
0.585694
0.585695
0.585694
0.585682
0.585745
0.58578
0.58578
7.86833e-10
2.38781e-08
8.07533e-11
8.06463e-11
8.71223e-11
1.95383e-11
3.86419e-12
1.09622e-12
1.83702e-13
2.59537e-14
2.75316e-15
2.38768e-16
1.66064e-17
1.03766e-18
6.17939e-20
3.84345e-21
8.35298e-22
2.52603e-21
8.66574e-20
2.88229e-18
8.91055e-17
3.23249e-15
8.49871e-14
5.4908e-13
2.8571e-12
1.01921e-10
8.52071e-09
3.50575e-07
1.15871e-05
6.52465e-05
5.61469e-05
0.00132419
0.0872292
0.340971
0.535301
0.585674
0.585547
0.577919
0.585745
0.575884
3.88381e-09
2.38917e-08
1.66655e-09
7.25518e-11
7.26211e-11
2.26785e-11
4.17766e-12
1.17255e-12
1.96679e-13
2.82458e-14
2.93922e-15
2.54077e-16
1.79409e-17
1.16443e-18
7.25126e-20
4.49314e-21
6.34047e-22
4.50394e-22
1.77228e-21
4.9272e-21
1.12242e-19
3.53892e-18
1.0092e-16
2.60814e-15
3.17948e-14
9.45845e-13
2.81076e-11
7.35771e-10
1.49719e-08
1.74677e-07
2.51938e-06
2.77446e-05
0.000153151
0.00693338
0.0482925
0.093321
0.107877
0.123216
0.13743
0.121074
8.57805e-10
2.25609e-08
7.28746e-11
7.28023e-11
7.09125e-11
2.18355e-11
4.42578e-12
1.224e-12
2.11732e-13
3.03372e-14
3.15247e-15
2.67574e-16
1.87434e-17
1.23023e-18
7.82234e-20
4.86925e-21
5.72503e-22
3.91062e-22
1.88888e-21
3.38313e-20
4.95559e-19
7.68688e-18
1.95858e-16
3.06054e-15
4.23717e-15
3.19643e-14
9.45845e-13
1.90723e-11
4.21044e-10
5.51667e-09
5.1827e-08
7.58207e-07
4.1656e-06
9.36493e-06
2.82927e-05
6.82821e-05
0.000127137
0.000183391
0.000176125
0.000118443
8.48995e-10
5.60208e-09
2.61885e-09
7.14491e-11
7.14862e-11
1.82635e-11
4.54362e-12
1.28503e-12
2.30681e-13
3.31082e-14
3.47505e-15
2.91843e-16
2.02032e-17
1.31773e-18
8.35988e-20
5.15659e-21
5.38378e-22
3.36323e-22
1.17484e-21
2.2173e-20
3.66283e-19
6.38007e-18
1.55355e-16
4.06979e-15
5.90149e-14
3.48851e-13
1.16275e-12
2.06825e-12
2.07746e-11
1.83161e-10
1.45321e-09
1.83372e-08
1.12022e-07
3.31682e-07
1.14814e-06
1.7631e-06
2.81187e-06
6.19108e-06
2.10636e-05
1.28445e-05
8.47369e-10
1.79758e-09
4.24377e-09
1.86074e-10
7.02072e-11
1.59261e-11
4.63722e-12
1.38584e-12
2.5381e-13
3.68928e-14
3.93897e-15
3.31799e-16
2.29398e-17
1.49027e-18
9.40858e-20
5.75134e-21
5.50943e-22
3.19419e-22
8.13426e-22
1.58408e-20
2.75246e-19
5.00248e-18
1.26101e-16
3.68918e-15
5.7908e-14
3.79613e-13
1.38031e-12
2.408e-12
8.11995e-12
1.37781e-11
3.09566e-11
2.15061e-10
1.31771e-08
9.58295e-08
3.49708e-07
4.36388e-07
5.04392e-07
6.54966e-07
9.82003e-07
7.62072e-07
8.47247e-10
8.47591e-10
7.16499e-10
1.94951e-10
9.24259e-11
1.59453e-11
4.78471e-12
1.50037e-12
2.83016e-13
4.21695e-14
4.66078e-15
3.99768e-16
2.76591e-17
1.75599e-18
1.0923e-19
6.58466e-21
5.84076e-22
3.16351e-22
6.82448e-22
1.37439e-20
2.58938e-19
5.10377e-18
1.42136e-16
4.29352e-15
6.86244e-14
4.78639e-13
1.79066e-12
3.68446e-12
1.5718e-11
1.7789e-11
1.73909e-11
3.09566e-11
3.38388e-08
3.47718e-07
4.11454e-07
3.86227e-07
3.89635e-07
3.96859e-07
4.02302e-07
3.92436e-07
8.47369e-10
8.54461e-10
4.47511e-10
2.15033e-10
1.0087e-10
1.97026e-11
4.97066e-12
1.62892e-12
3.19618e-13
4.86731e-14
5.54312e-15
4.9113e-16
3.47056e-17
2.21065e-18
1.36177e-19
8.08684e-21
6.49033e-22
3.14617e-22
6.83037e-22
1.36876e-20
2.77613e-19
6.19076e-18
2.00271e-16
6.37599e-15
1.03588e-13
7.22176e-13
2.60949e-12
7.4634e-12
7.49241e-12
7.50481e-12
9.02398e-12
4.47408e-07
5.8394e-07
5.79477e-07
3.87044e-07
3.84305e-07
3.84563e-07
3.85176e-07
3.85755e-07
3.84894e-07
4.96021e-09
2.52105e-09
6.5512e-10
1.44092e-10
1.25428e-10
2.37859e-11
5.30659e-12
1.77304e-12
3.52153e-13
5.44155e-14
6.28723e-15
5.68041e-16
4.06407e-17
2.59229e-18
1.58566e-19
9.28401e-21
6.97926e-22
3.12903e-22
7.24305e-22
1.46826e-20
3.18851e-19
8.22169e-18
3.20283e-16
1.09471e-14
1.68792e-13
1.04773e-12
3.54776e-12
9.84914e-12
7.50481e-12
7.59332e-12
3.42017e-07
5.8394e-07
5.8394e-07
4.04629e-07
3.84197e-07
3.84195e-07
3.8421e-07
3.84275e-07
3.84399e-07
3.84402e-07
1.99443e-08
7.44802e-09
2.15299e-10
1.18969e-10
1.21227e-10
2.32304e-11
5.75552e-12
1.90278e-12
3.75924e-13
5.83445e-14
6.72043e-15
6.10146e-16
4.37933e-17
2.78924e-18
1.69359e-19
9.78657e-21
7.12603e-22
3.10795e-22
7.56611e-22
1.59693e-20
3.67716e-19
1.12629e-17
5.45229e-16
1.89539e-14
2.55638e-13
1.35631e-12
4.21978e-12
1.21864e-11
7.59332e-12
5.51449e-08
3.99817e-07
5.83901e-07
4.11088e-07
3.81521e-07
3.84195e-07
3.84197e-07
3.84197e-07
3.8421e-07
3.84275e-07
3.84355e-07
2.00258e-08
1.76311e-08
1.17793e-10
1.177e-10
1.18661e-10
2.61248e-11
6.04943e-12
1.99324e-12
3.88727e-13
6.03034e-14
6.89474e-15
6.23056e-16
4.45855e-17
2.83182e-18
1.70513e-19
9.6959e-21
6.88749e-22
2.97834e-22
7.74194e-22
1.70414e-20
4.13996e-19
1.50561e-17
8.73448e-16
2.96344e-14
3.5136e-13
1.63236e-12
4.55402e-12
1.45844e-11
5.8605e-10
6.23005e-08
2.67961e-07
5.10901e-07
3.73524e-07
3.79308e-07
3.81521e-07
3.84197e-07
0.0324661
0.00878688
3.84355e-07
3.84374e-07
5.18121e-09
1.89002e-08
1.34024e-10
1.07799e-10
1.09382e-10
2.71614e-11
6.23692e-12
2.02859e-12
3.92982e-13
6.01511e-14
6.69223e-15
5.89683e-16
4.15214e-17
2.62922e-18
1.57739e-19
8.87012e-21
6.25711e-22
2.74649e-22
7.70454e-22
1.76276e-20
4.44872e-19
1.76464e-17
1.08713e-15
3.6846e-14
4.25977e-13
1.88223e-12
4.67618e-12
9.45477e-12
3.7566e-10
4.28331e-08
1.20327e-07
1.27455e-07
1.98518e-07
3.48699e-07
0.0279009
0.227668
0.333868
0.268436
0.117983
0.121156
4.29724e-09
1.86862e-08
1.0215e-10
1.02064e-10
1.01049e-10
2.58836e-11
6.29992e-12
2.0214e-12
3.92611e-13
5.95205e-14
6.522e-15
5.61782e-16
3.87802e-17
2.43035e-18
1.44855e-19
8.06902e-21
5.65484e-22
2.50719e-22
7.43745e-22
1.74396e-20
4.43632e-19
1.74958e-17
1.06598e-15
3.63683e-14
4.33605e-13
1.94841e-12
4.66727e-12
9.23454e-12
5.94806e-10
1.30738e-08
2.04025e-08
1.29846e-07
3.81795e-06
0.0324131
0.294062
0.335219
0.335293
0.334737
0.328214
0.243399
2.76331e-10
6.10345e-09
1.02293e-10
1.25893e-10
1.105e-10
2.30194e-11
6.28694e-12
2.01375e-12
3.931e-13
5.94311e-14
6.48551e-15
5.51305e-16
3.75383e-17
2.3292e-18
1.37933e-19
7.6322e-21
5.26709e-22
2.30263e-22
6.92167e-22
1.64422e-20
4.12866e-19
1.52563e-17
8.70006e-16
2.89129e-14
3.54368e-13
1.72704e-12
4.10065e-12
9.44957e-12
2.8052e-10
4.06919e-09
8.43421e-08
3.14527e-06
0.0120472
0.209851
0.335288
0.33534
0.33534
0.335293
0.206576
0.137303
2.76373e-10
2.74367e-10
2.74419e-10
2.51562e-10
1.07163e-10
2.10674e-11
6.27388e-12
2.02211e-12
3.96404e-13
5.99743e-14
6.54374e-15
5.52996e-16
3.74319e-17
2.31155e-18
1.36448e-19
7.5276e-21
5.08348e-22
2.14073e-22
6.20591e-22
1.47703e-20
3.60554e-19
1.17018e-17
5.97334e-16
2.03169e-14
2.61948e-13
1.4545e-12
3.8187e-12
2.12098e-11
9.84101e-10
4.26287e-08
1.46873e-06
4.19792e-05
0.060924
0.335288
0.335343
0.335345
0.335343
0.33534
0.112859
0.0432125
2.75013e-10
2.74492e-10
4.73192e-10
3.41573e-10
1.04054e-10
2.06105e-11
6.2665e-12
2.05501e-12
3.99703e-13
6.0903e-14
6.65559e-15
5.60813e-16
3.78383e-17
2.33023e-18
1.37415e-19
7.5759e-21
4.98996e-22
1.99851e-22
5.43212e-22
1.28644e-20
3.07599e-19
8.78055e-18
3.78524e-16
1.33075e-14
1.8878e-13
1.13967e-12
4.20564e-12
3.40993e-11
1.23735e-09
5.73287e-08
2.4657e-06
0.00019638
0.0392622
0.275761
0.335343
0.335343
0.335343
0.293081
0.0188786
0.000386055
2.75192e-10
4.97859e-10
5.52597e-10
3.63131e-10
1.17407e-10
2.11364e-11
6.24682e-12
2.09459e-12
4.01551e-13
6.16014e-14
6.72447e-15
5.64601e-16
3.79913e-17
2.33614e-18
1.37743e-19
7.59164e-21
4.88594e-22
1.85657e-22
4.73182e-22
1.11011e-20
2.62814e-19
6.9266e-18
2.57397e-16
8.75806e-15
1.34596e-13
8.58094e-13
3.46106e-12
3.6911e-11
2.00207e-09
1.14064e-07
5.38238e-06
0.000241424
0.00567233
0.0443
0.161752
0.20618
0.131516
0.0424436
0.000507566
9.96829e-05
4.92344e-10
6.54383e-10
5.62358e-10
3.32599e-10
1.37834e-10
2.25841e-11
6.20617e-12
2.11137e-12
4.02782e-13
6.18875e-14
6.73346e-15
5.62221e-16
3.76334e-17
2.30492e-18
1.35551e-19
7.4532e-21
4.7004e-22
1.70949e-22
4.14664e-22
9.65082e-21
2.27195e-19
5.7563e-18
2.03032e-16
6.77028e-15
1.03265e-13
6.55938e-13
2.422e-12
9.44081e-12
3.27361e-11
1.85828e-09
1.67418e-07
1.76356e-05
7.71773e-06
9.07183e-05
0.000814128
0.00266696
0.000816871
0.000560677
0.000476112
8.82351e-05
4.92428e-10
1.27689e-09
1.17265e-09
2.32087e-10
1.61335e-10
2.34171e-11
6.20594e-12
2.08722e-12
4.03878e-13
6.1731e-14
6.6806e-15
5.53455e-16
3.67674e-17
2.23706e-18
1.3085e-19
7.15485e-21
4.43246e-22
1.56105e-22
3.61895e-22
8.36281e-21
1.96155e-19
4.91916e-18
1.72914e-16
5.846e-15
9.06195e-14
5.88107e-13
2.17235e-12
7.82403e-12
3.5473e-11
4.18091e-11
1.50015e-10
6.1587e-09
1.51226e-07
2.81691e-06
1.09552e-05
1.83398e-05
5.82644e-05
5.18471e-05
5.28639e-05
8.69118e-05
4.93188e-10
1.94718e-09
2.36356e-09
1.3611e-10
1.3614e-10
2.26951e-11
6.31229e-12
2.03163e-12
4.04288e-13
6.12977e-14
6.58235e-15
5.40025e-16
3.55202e-17
2.14242e-18
1.24329e-19
6.73447e-21
4.10818e-22
1.42712e-22
3.20468e-22
7.22375e-21
1.71751e-19
4.34282e-18
1.52711e-16
5.36048e-15
9.14928e-14
6.56631e-13
2.54233e-12
7.85988e-12
2.51212e-11
6.83777e-11
7.2884e-11
1.18822e-10
1.90897e-09
6.06042e-08
4.20456e-07
9.63795e-07
1.99183e-06
1.3939e-06
6.43714e-06
0.000114687
3.26784e-09
1.5393e-09
2.50776e-09
2.0885e-10
9.21322e-11
2.23375e-11
6.4362e-12
1.99414e-12
4.02538e-13
6.07579e-14
6.47208e-15
5.25259e-16
3.41616e-17
2.03842e-18
1.17068e-19
6.26939e-21
3.78906e-22
1.3278e-22
2.99087e-22
6.68656e-21
1.62016e-19
4.16894e-18
1.48912e-16
5.44455e-15
1.02005e-13
8.22492e-13
3.67682e-12
1.17418e-11
2.93744e-11
5.19773e-11
8.63837e-11
5.69015e-11
1.18822e-10
1.90897e-09
5.26858e-08
3.11307e-07
3.8852e-07
9.09405e-07
7.4105e-06
0.000117041
1.77229e-07
3.96021e-10
1.86744e-09
1.52453e-10
1.00961e-10
2.19268e-11
6.48852e-12
1.98947e-12
4.01202e-13
6.04208e-14
6.40244e-15
5.14328e-16
3.3084e-17
1.95274e-18
1.10962e-19
5.87387e-21
3.53051e-22
1.26156e-22
3.00478e-22
7.04516e-21
1.75636e-19
4.72631e-18
1.71903e-16
6.01079e-15
1.14522e-13
1.09761e-12
6.0842e-12
2.02212e-11
4.14652e-11
5.55896e-11
5.5371e-11
5.57342e-11
2.1387e-08
1.75865e-08
1.20639e-07
2.74291e-07
3.28486e-07
1.02163e-06
1.39872e-05
9.66182e-05
2.97277e-07
3.95657e-10
7.42191e-10
2.24747e-10
1.38574e-10
2.19151e-11
6.42743e-12
2.02469e-12
4.03659e-13
6.07634e-14
6.43603e-15
5.1338e-16
3.27231e-17