/*--------------------------------*- C++ -*----------------------------------*\
  =========                 |
  \\      /  F ield         | OpenFOAM: The Open Source CFD Toolbox
   \\    /   O peration     | Website:  https://openfoam.org
    \\  /    A nd           | Version:  8
     \\/     M anipulation  |
\*---------------------------------------------------------------------------*/
FoamFile
{
    version     2.0;
    format      ascii;
    class       surfaceScalarField;
    location    "0.35";
    object      alphaPhi0.water;
}
// * * * * * * * * * * * * * * * * * * * * * * * * * * * * * * * * * * * * * //

dimensions      [0 3 -1 0 0 0 0];

internalField   nonuniform List<scalar> 
18095
(
1.93043e-08
-1.72016e-07
1.52712e-07
2.29365e-08
-1.98404e-07
1.94772e-07
1.96574e-08
-2.05717e-07
2.08996e-07
1.08047e-08
-2.10544e-07
2.19397e-07
8.21642e-10
-2.1344e-07
2.23423e-07
-9.28258e-09
-2.13714e-07
2.23818e-07
-1.90091e-08
-2.1034e-07
2.20067e-07
-2.28605e-08
-2.05378e-07
2.09229e-07
-1.9292e-08
-1.98399e-07
1.9483e-07
-1.72048e-07
1.52756e-07
1.54474e-08
-1.87464e-07
1.55111e-08
-1.98468e-07
1.19668e-08
-2.02173e-07
6.53527e-09
-2.05112e-07
5.10496e-11
-2.06956e-07
-6.98196e-09
-2.06681e-07
-1.23675e-08
-2.04955e-07
-1.55234e-08
-2.02222e-07
-1.54303e-08
-1.98492e-07
-1.87479e-07
6.86103e-09
-1.94325e-07
8.2357e-09
-1.99843e-07
7.08377e-09
-2.01021e-07
3.93464e-09
-2.01963e-07
-3.08632e-10
-2.02712e-07
-4.25396e-09
-2.02735e-07
-7.00797e-09
-2.02201e-07
-8.19583e-09
-2.01034e-07
-6.84901e-09
-1.99839e-07
-1.94328e-07
4.57235e-09
-1.98897e-07
4.66738e-09
-1.99938e-07
3.60433e-09
-1.99958e-07
2.06724e-09
-2.00426e-07
2.35746e-10
-2.00881e-07
-1.754e-09
-2.00745e-07
-3.55627e-09
-2.00398e-07
-4.64979e-09
-1.99941e-07
-4.56908e-09
-1.99919e-07
-1.98897e-07
1.10291e-09
1.16509e-09
1.20751e-09
7.81275e-10
-9.96823e-11
-8.45131e-10
-1.24338e-09
-1.184e-09
-1.10331e-09
-2.48949e-08
-1.97455e-07
2.2235e-07
-2.76109e-08
-1.98405e-07
2.01121e-07
-2.39039e-08
-2.01054e-07
1.97347e-07
-1.36503e-08
-2.00494e-07
1.90241e-07
-5.60943e-10
-2.01737e-07
1.88648e-07
1.27725e-08
-2.0207e-07
1.88737e-07
2.35003e-08
-2.0115e-07
1.90422e-07
2.76292e-08
-2.01669e-07
1.9754e-07
2.49421e-08
-1.98541e-07
2.01228e-07
-1.97424e-07
2.22366e-07
-1.01324e-08
-1.87322e-07
-1.5283e-08
-1.93254e-07
-1.41671e-08
-2.02169e-07
-6.46059e-09
-2.08201e-07
9.37805e-10
-2.09136e-07
8.20948e-09
-2.09342e-07
1.53923e-08
-2.08332e-07
1.56891e-08
-2.01966e-07
1.02283e-08
-1.9308e-07
-1.87196e-07
-1.10232e-08
-1.76299e-07
-8.93402e-09
-1.95344e-07
-5.89883e-09
-2.05205e-07
-3.47223e-09
-2.10627e-07
5.71538e-10
-2.1318e-07
4.16454e-09
-2.12935e-07
6.06127e-09
-2.10229e-07
9.04568e-09
-2.0495e-07
1.10632e-08
-1.95098e-07
-1.76133e-07
-7.12553e-09
-1.69174e-07
-9.29467e-09
-1.93174e-07
-8.68633e-09
-2.05813e-07
-3.78983e-09
-2.15524e-07
-1.3291e-10
-2.16836e-07
3.32899e-09
-2.16397e-07
8.25402e-09
-2.15154e-07
8.98453e-09
-2.05681e-07
6.98813e-09
-1.93101e-07
-1.69145e-07
-1.64618e-08
-1.48641e-08
-1.1681e-08
-7.8084e-09
-1.22195e-09
6.19876e-09
1.11111e-08
1.46594e-08
1.63883e-08
2.61338e-08
-1.58486e-07
1.32353e-07
3.3054e-08
-1.99809e-07
1.92889e-07
2.54275e-08
-2.10444e-07
2.18071e-07
1.3944e-08
-2.15374e-07
2.26858e-07
1.05205e-10
-2.16272e-07
2.30111e-07
-1.40893e-08
-2.16142e-07
2.30337e-07
-2.57065e-08
-2.14917e-07
2.26534e-07
-3.32531e-08
-2.10247e-07
2.17794e-07
-2.61757e-08
-1.9979e-07
1.92713e-07
-1.58517e-07
1.32341e-07
1.52563e-08
-1.73743e-07
1.7542e-08
-2.02095e-07
1.4394e-08
-2.07296e-07
7.75967e-09
-2.0874e-07
-6.07338e-10
-2.07905e-07
-8.7018e-09
-2.08048e-07
-1.45609e-08
-2.09058e-07
-1.7494e-08
-2.07314e-07
-1.52141e-08
-2.0207e-07
-1.73731e-07
1.07908e-08
-1.84533e-07
9.75806e-09
-2.01062e-07
7.86453e-09
-2.05403e-07
4.01504e-09
-2.04891e-07
7.17925e-10
-2.04608e-07
-2.91773e-09
-2.04412e-07
-7.72459e-09
-2.04251e-07
-9.7583e-09
-2.0528e-07
-1.07925e-08
-2.01036e-07
-1.84524e-07
8.24977e-09
-1.92783e-07
6.69942e-09
-1.99511e-07
6.49564e-09
-2.05199e-07
1.16052e-09
-1.99555e-07
-9.49649e-10
-2.02498e-07
-2.80665e-09
-2.02555e-07
-7.07438e-09
-1.99983e-07
-6.9168e-09
-2.05438e-07
-8.31853e-09
-1.99634e-07
-1.92842e-07
2.95665e-08
3.1176e-08
2.33234e-08
1.40088e-08
1.58668e-10
-1.36598e-08
-2.32209e-08
-3.11183e-08
-2.95241e-08
-8.37376e-07
-4.08245e-09
1.00776e-06
-1.04302e-06
-1.41148e-08
-1.03334e-06
-3.43371e-10
-7.1434e-07
-2.91346e-07
-1.6646e-10
-7.10594e-07
7.13223e-07
-7.0981e-07
1.05329e-06
-2.88581e-07
1.07126e-06
-2.35233e-10
8.69847e-07
-1.52258e-08
-4.11958e-09
9.16451e-07
-4.84082e-09
-4.25345e-12
7.62365e-10
-1.88655e-08
-9.44493e-11
-1.79212e-08
-1.8001e-09
-2.45655e-07
-4.01731e-08
2.7164e-09
-9.55387e-07
2.52022e-07
-9.55558e-07
1.77524e-08
-4.10292e-08
1.95564e-08
-1.91649e-09
4.43271e-09
-1.06815e-10
-5.00497e-12
3.17877e-10
-4.33574e-12
-2.63185e-14
1.10103e-13
-9.70109e-11
-1.72186e-12
-1.89816e-09
-4.07781e-13
-2.48579e-08
-1.59354e-08
1.38071e-09
-9.74732e-07
2.65561e-08
-9.75893e-07
2.02836e-09
-1.77134e-08
1.11922e-10
-1.00261e-14
5.16047e-12
-5.1199e-14
-9.18797e-15
1.66028e-13
-2.30629e-14
-1.717e-15
2.23348e-16
8.94016e-15
-1.65384e-12
1.20218e-12
-2.07234e-12
5.14116e-09
-1.83799e-08
-4.63133e-10
-9.64325e-07
-5.14327e-09
-9.64375e-07
-1.34443e-14
-1.88947e-08
-2.51075e-16
-1.53913e-14
1.87489e-15
-5.21145e-14
-7.4692e-15
1.47838e-15
3.2133e-14
-3.10823e-14
-1.05128e-15
5.65942e-13
-1.67603e-12
1.55533e-11
-1.79525e-11
1.11524e-10
-1.72298e-08
-6.99463e-09
-9.55944e-07
-4.57386e-09
-9.55346e-07
-5.09255e-14
-1.22077e-08
-2.45877e-14
-2.71654e-14
-7.36673e-15
0
-1.58363e-14
-3.12566e-15
-1.15743e-14
-5.60929e-17
-5.46824e-17
0
-1.30534e-12
-1.79396e-11
-1.6291e-14
-2.36563e-08
-1.85092e-09
-2.34012e-08
-9.52999e-07
-1.30017e-08
-9.48922e-07
-1.62952e-13
-2.85684e-09
-7.78448e-14
-7.52057e-14
-1.3237e-14
-3.67655e-13
-2.79661e-17
-4.58321e-18
3.41901e-16
-2.69976e-16
-7.2329e-17
2.21412e-13
-2.10411e-15
2.05558e-13
-1.32728e-15
4.66103e-09
-1.69844e-13
3.17639e-09
-9.44854e-07
5.57954e-10
-9.37929e-07
-6.19028e-13
-5.15693e-11
-4.67237e-13
-7.9206e-14
-5.28849e-17
-1.34834e-12
-2.87405e-17
-3.89107e-17
9.53118e-17
-1.24763e-15
-1.69585e-16
1.06727e-16
-3.17717e-15
1.18135e-16
-2.40786e-15
6.84533e-13
-8.5515e-13
4.37055e-09
-9.13728e-07
-1.86784e-10
-9.16174e-07
-1.17526e-13
-3.67014e-13
-3.7021e-13
-7.13599e-14
-1.04627e-16
-1.3427e-12
-7.67175e-17
-4.98369e-17
3.28592e-16
-3.70071e-15
-3.00492e-15
8.02419e-16
0
7.7305e-15
-1.02265e-14
3.55073e-12
-4.39755e-12
-1.17583e-09
-8.94125e-07
-2.20219e-12
-8.93068e-07
-1.19803e-14
-2.65178e-12
-2.14545e-13
-2.52543e-14
-2.87141e-15
-1.17878e-12
-1.77927e-16
-2.7677e-15
2.10354e-15
-2.40516e-15
-6.61263e-15
1.00397e-14
-1.63445e-13
4.59341e-14
-2.37822e-14
1.85823e-11
-2.292e-11
-3.01497e-10
-9.18057e-07
-1.11169e-11
-9.20304e-07
-2.31759e-14
-1.37658e-11
-8.16885e-14
-2.48697e-15
-7.46689e-15
-1.04154e-15
-1.77018e-15
-5.89488e-15
3.91506e-15
-2.32288e-15
-7.08411e-15
5.21208e-14
-3.76123e-13
1.41953e-13
-3.47019e-14
9.59877e-11
-1.18704e-10
4.59276e-11
-1.00793e-06
-5.78151e-11
-1.01534e-06
-4.94147e-15
-7.15782e-11
-1.30181e-16
-8.02069e-15
-6.31958e-16
-1.1978e-15
-2.95385e-15
-4.09811e-15
6.76783e-16
-2.4461e-16
-5.71269e-15
7.47534e-14
-3.51716e-13
1.79396e-13
-6.78387e-14
4.52729e-10
-5.71082e-10
2.46664e-09
-1.05068e-06
-2.82674e-10
-1.05282e-06
-5.21766e-14
-3.54219e-10
-1.86498e-16
-6.06778e-14
-5.91875e-16
-1.44004e-15
-3.11632e-15
-3.37101e-15
1.30207e-15
-2.20779e-16
-1.33012e-15
4.75246e-14
-2.2388e-13
4.69765e-13
-1.67511e-13
1.38296e-09
-2.67483e-09
2.44818e-10
-1.0435e-06
-3.65803e-11
-1.04779e-06
-6.61899e-13
-1.03238e-09
-1.46529e-15
-7.22829e-13
-4.37726e-16
-3.13453e-15
-1.37512e-15
-2.10036e-15
4.38715e-17
-2.10319e-16
-5.85485e-17
1.74144e-14
-6.37857e-14
3.63739e-12
-3.06353e-12
4.75507e-09
-4.71766e-09
7.95081e-09
-1.03833e-06
3.29209e-09
-1.04235e-06
5.73452e-13
-2.591e-09
-6.04598e-15
-1.46665e-13
-5.8645e-16
-6.34276e-14
-4.11181e-17
-6.66957e-16
1.17762e-16
-2.21281e-16
-1.10151e-16
1.97309e-14
-7.13447e-13
-2.52013e-12
-1.96053e-13
-1.62271e-08
-3.41824e-09
-2.00869e-08
-1.03786e-06
-1.05935e-08
-1.03374e-06
-4.48796e-13
-4.99255e-09
-6.65576e-14
-2.132e-13
-1.02143e-17
-8.83639e-13
-4.63336e-17
-1.45545e-17
1.48336e-15
-1.60141e-15
-1.29577e-16
3.89981e-14
-7.89121e-13
8.25773e-15
-3.50921e-13
1.20687e-09
-5.85131e-09
-3.26694e-09
-1.03456e-06
-2.2252e-09
-1.03296e-06
-7.96818e-13
-3.98691e-09
-1.44035e-13
-3.6207e-13
-4.46731e-16
-9.30957e-13
-4.79408e-16
-2.32777e-17
4.31657e-16
-6.20197e-15
-1.45371e-16
6.30991e-14
-7.72921e-13
1.74141e-12
-1.12116e-12
1.21772e-10
-7.13053e-09
4.88704e-09
-1.02914e-06
-7.23254e-10
-1.0292e-06
-2.0118e-12
-7.56726e-09
-9.40537e-14
-2.14553e-12
-9.18965e-16
-9.05794e-13
-3.57363e-15
-8.38897e-17
3.94594e-14
-1.1964e-13
-3.73834e-16
1.11556e-13
-9.77133e-13
9.27548e-12
-7.14967e-13
6.43195e-09
-9.02759e-09
9.64968e-09
-1.02321e-06
6.94478e-09
-1.02518e-06
2.19404e-12
-8.77356e-09
-9.63904e-16
-2.13727e-13
-1.74936e-14
-6.99164e-13
-3.40004e-14
-6.33787e-16
7.05547e-14
-2.77104e-13
-1.16982e-15
5.18386e-14
-1.91397e-13
1.81917e-12
-4.80154e-12
4.00267e-09
-1.12332e-08
2.8713e-09
-1.01757e-06
5.37336e-10
-1.01945e-06
-5.95528e-15
-7.76211e-09
-1.4693e-14
-2.48527e-13
-1.40798e-14
-2.07456e-13
-1.02949e-13
-1.32465e-15
5.82493e-14
-2.60123e-13
-1.86323e-16
5.02158e-15
-2.73004e-13
-5.12099e-12
-1.45978e-12
-1.94585e-08
-9.78033e-09
-2.03775e-08
-1.01489e-06
-1.24647e-08
-1.01108e-06
-5.87977e-13
-9.02135e-09
-2.97911e-14
-2.6992e-13
-3.2344e-14
-6.91277e-15
-9.64455e-14
-1.17699e-16
3.38232e-14
-1.81057e-13
-8.18581e-16
4.03628e-14
-4.4742e-13
9.96822e-12
-1.43028e-11
6.76389e-09
-1.60965e-08
4.22399e-09
-1.004e-06
2.66436e-09
-1.00566e-06
-1.79688e-12
-1.20894e-08
-3.73165e-14
-1.8235e-13
-3.64581e-14
-7.5665e-13
-4.69903e-14
-1.07246e-15
2.84065e-16
-4.62506e-17
-2.71537e-16
0
-4.8709e-13
-1.63273e-11
-3.21214e-13
-1.83603e-08
-1.25819e-08
-1.80229e-08
-1.00205e-06
-1.08162e-08
-1.00007e-06
-1.88879e-12
-1.72622e-08
-1.33126e-13
-1.59483e-14
-8.86421e-15
-7.88013e-13
-8.51521e-17
-2.40889e-16
2.99845e-18
-4.08771e-17
-8.17997e-18
1.29463e-14
-5.59138e-13
1.58766e-12
-3.58854e-12
1.90702e-09
-1.33697e-08
-3.59722e-09
-9.9561e-07
-6.98868e-11
-9.96676e-07
-1.2945e-14
-1.30806e-08
-7.46652e-14
-4.50102e-14
-2.3871e-17
-8.35968e-13
-8.10626e-17
-3.01968e-17
5.65219e-18
-3.96348e-17
-6.96585e-18
3.17386e-14
-1.97154e-13
-3.55247e-12
-2.57157e-15
-1.05716e-08
-1.02909e-08
-1.18217e-08
-9.91302e-07
-8.42692e-09
-9.8903e-07
-4.21604e-13
-1.10972e-08
-1.54387e-13
-3.50331e-13
-2.93023e-17
-9.36299e-13
-8.50027e-17
-2.39419e-17
1.00245e-16
-1.23846e-16
-1.60436e-17
6.98351e-15
-1.90161e-14
8.02132e-15
-2.10228e-15
8.35838e-09
-5.07024e-09
1.34541e-08
-9.83934e-07
1.07294e-08
-9.85707e-07
3.09075e-13
-6.86199e-09
-3.57952e-14
-3.91181e-15
-2.85667e-16
-9.53092e-14
-3.30052e-16
-4.06415e-17
1.20174e-16
-1.29597e-16
-2.98414e-17
1.89087e-15
-2.07108e-14
6.21501e-15
-5.77842e-15
6.2195e-09
-1.1228e-09
9.98581e-09
-9.75853e-07
3.20162e-09
-9.78327e-07
-7.47094e-15
-7.12356e-10
-1.10542e-15
-9.37263e-15
-1.66095e-16
-9.61904e-14
-2.85796e-16
-1.76009e-16
7.61703e-16
-4.58765e-16
-3.56485e-16
4.79412e-14
-3.71171e-13
5.52564e-14
-1.17155e-14
2.44273e-10
-3.49523e-10
-4.43727e-09
-9.66425e-07
-4.47238e-09
-9.66901e-07
-4.53496e-14
-6.56133e-11
-3.84475e-14
-1.89635e-14
-6.63964e-15
-6.41736e-13
-3.66215e-15
-1.20964e-15
8.80681e-15
-7.57116e-15
-1.17446e-15
1.14801e-13
-3.90806e-13
8.89083e-14
-1.42293e-14
3.37042e-09
-1.2768e-09
3.50439e-09
-9.55922e-07
-5.4322e-10
-9.54538e-07
-2.95552e-13
-6.08656e-10
-1.63486e-13
-3.87981e-14
-1.49735e-14
-6.34008e-13
-8.9869e-14
-5.16721e-15
1.88001e-14
-6.17791e-14
-6.00937e-15
1.65091e-13
-4.4836e-13
1.83762e-13
-3.16067e-14
6.52348e-09
-5.12132e-15
9.2133e-09
-9.47142e-07
2.27399e-09
-9.51712e-07
-3.79101e-13
-8.18686e-15
-2.0894e-13
-4.4264e-14
-1.34838e-13
-5.83147e-13
-2.87001e-13
-1.3294e-14
1.16291e-13
-2.02811e-13
-6.09506e-15
7.9814e-14
-3.25518e-13
2.52335e-15
-5.72261e-15
2.40703e-15
-4.52517e-15
-3.8243e-09
-9.62237e-07
-2.80547e-15
-9.63118e-07
-3.30745e-15
-7.63355e-15
-1.59787e-14
-3.52328e-14
-1.53933e-13
-3.21035e-13
-3.12442e-13
-1.30369e-14
1.03358e-13
-2.21876e-13
-5.9794e-15
1.99201e-16
-2.77473e-13
4.87301e-16
-3.39503e-15
7.07536e-16
-4.33835e-15
1.52346e-09
-9.81576e-07
-1.73423e-15
-9.80312e-07
-2.2153e-15
-7.2253e-15
0
-3.24045e-14
-1.36799e-13
-2.78122e-13
-3.32936e-13
-3.94575e-16
7.9387e-14
-2.22779e-13
-1.71028e-16
7.73706e-16
-1.80577e-13
2.41648e-16
-2.48448e-15
3.99862e-16
-4.23669e-15
5.49396e-10
-9.90285e-07
-1.18334e-15
-9.9031e-07
-1.49166e-15
-6.99397e-15
0
-3.17938e-14
-1.18203e-13
-2.18053e-13
-3.3499e-13
-1.03445e-17
4.36587e-14
-1.88211e-13
-3.50499e-17
0
-4.81314e-14
1.19247e-16
-2.49425e-15
2.2872e-16
-4.1753e-15
-2.26959e-09
-9.91776e-07
-1.01128e-15
-9.92327e-07
-1.20614e-15
-6.8206e-15
0
-3.19624e-14
-5.88568e-14
-5.81375e-14
-2.77668e-13
-1.70257e-17
1.63296e-14
-5.95647e-17
-5.1052e-17
0
-2.59729e-15
3.00633e-16
-1.7574e-14
5.22154e-16
-4.19223e-15
5.41926e-10
-9.9241e-07
-1.21072e-15
-9.92637e-07
-1.27956e-15
-6.69329e-15
0
-4.14972e-14
-1.54633e-14
-1.24052e-14
-3.87956e-15
-2.90001e-17
1.13648e-17
-6.19472e-17
-1.20625e-17
7.42315e-16
-8.54876e-15
3.66282e-15
-7.98709e-14
3.67702e-15
-3.93276e-15
7.79186e-10
-9.96853e-07
-3.08387e-15
-9.9797e-07
-3.24838e-15
-6.42593e-15
-1.66971e-15
-6.75124e-14
-3.11307e-17
-4.45572e-14
-3.90204e-15
-1.03815e-17
1.14002e-16
-1.55318e-16
-2.37138e-17
5.37305e-15
-1.87074e-13
3.49277e-15
-9.77163e-14
3.34144e-15
-3.4648e-15
7.94847e-10
-1.003e-06
-2.23827e-15
-1.00335e-06
-2.50016e-15
-6.09421e-15
-4.78475e-15
-7.77614e-14
-4.48234e-15
-1.52307e-13
-2.03747e-14
-2.86584e-17
3.04607e-16
-6.54143e-16
-4.22552e-17
1.38229e-14
-1.91596e-13
3.0423e-15
-7.78527e-14
2.92047e-15
-3.04704e-15
5.424e-10
-1.00456e-06
-2.14155e-15
-1.00468e-06
-2.42087e-15
-5.79204e-15
-1.00687e-14
-7.72933e-14
-6.37133e-15
-1.55977e-13
-5.78006e-14
-1.67162e-16
5.41765e-16
-1.10525e-14
-2.63672e-16
1.36371e-14
-1.95496e-13
2.32509e-15
-4.46664e-14
2.21733e-15
-2.69192e-15
5.27485e-10
-1.00321e-06
-2.04637e-15
-1.00369e-06
-2.41509e-15
-5.45412e-15
-9.9891e-15
-5.72699e-14
-8.33573e-15
-1.57603e-13
-6.4461e-14
-1.64799e-15
4.28902e-15
-5.06968e-14
-3.546e-17
1.32956e-14
-1.9531e-13
1.16583e-15
-2.47609e-14
1.173e-15
-2.50496e-15
6.69286e-10
-1.00184e-06
-1.19077e-15
-1.00246e-06
-1.46627e-15
-5.2484e-15
-7.48827e-15
-3.70847e-14
-5.34939e-15
-1.59715e-13
-6.33371e-14
-6.43412e-15
1.586e-14
-7.04439e-14
-1.49596e-17
1.13576e-14
-1.81613e-13
6.56783e-16
-9.14929e-15
6.64057e-16
-2.38477e-15
6.7572e-10
-9.99505e-07
-7.59926e-16
-1.00004e-06
-9.80447e-16
-5.10227e-15
-1.10967e-14
-2.0368e-14
-5.79016e-15
-1.64982e-13
-6.14478e-15
-1.022e-14
9.68613e-15
-4.4302e-14
-1.80897e-17
3.83998e-15
-2.25278e-15
2.30173e-16
-1.56879e-15
2.15535e-16
-2.3289e-15
3.95939e-10
-9.95914e-07
-3.52724e-16
-9.96511e-07
-5.16899e-16
-5.00765e-15
-7.08123e-15
-8.01535e-15
-1.70278e-15
-1.69259e-13
-9.01551e-16
-5.72929e-15
2.02065e-15
-1.25255e-16
-1.38955e-17
4.06761e-18
-2.35193e-16
1.02114e-16
-1.15191e-15
7.221e-17
-2.31036e-15
5.12289e-10
-9.91975e-07
-1.23433e-16
-9.92262e-07
-2.39168e-16
-4.95961e-15
-3.06638e-15
-2.78569e-15
-1.14234e-15
-6.42194e-16
-8.93912e-16
-8.72466e-18
9.49121e-18
-1.28601e-16
-9.1223e-18
1.33516e-17
-2.36382e-16
1.1174e-16
-1.55654e-15
7.19309e-17
-2.37535e-15
3.72253e-10
-9.8798e-07
-1.06496e-16
-9.88533e-07
-1.93278e-16
-4.94238e-15
-4.4847e-17
-2.84346e-15
-1.79926e-16
-8.0896e-16
-3.14509e-16
-1.04345e-17
3.82565e-17
-9.17182e-17
-1.52209e-17
7.30888e-17
-7.14577e-17
5.09026e-16
-9.79029e-15
6.73369e-16
-2.55105e-15
9.85192e-10
-9.85367e-07
-3.43255e-16
-9.85327e-07
-3.60336e-16
-4.993e-15
-6.41763e-17
-7.28035e-15
-7.50313e-17
-1.09691e-15
-2.01507e-16
-1.47053e-17
1.17677e-16
-1.22874e-15
-8.74642e-17
1.9885e-16
-1.29111e-16
1.24959e-15
-2.19473e-14
1.76013e-15
-3.01935e-15
1.12394e-10
-9.83777e-07
-8.66908e-16
-9.84293e-07
-6.5043e-16
-5.28882e-15
-2.51525e-16
-1.1578e-14
-1.30293e-16
-9.23579e-15
-1.79111e-15
-1.99827e-17
1.26766e-15
-3.44802e-15
-4.29419e-16
1.82619e-15
-1.20841e-13
1.08873e-15
-2.61464e-14
3.27379e-15
-5.09432e-15
5.92891e-10
-9.84446e-07
-2.18456e-15
-9.8444e-07
-4.96265e-16
-7.07706e-15
-1.736e-15
-1.21953e-14
-2.38535e-15
-5.55818e-14
-6.58221e-15
-2.08151e-17
7.92944e-16
-4.55771e-15
-5.60123e-16
9.19079e-15
-1.21608e-13
1.05905e-15
-2.51382e-14
1.30757e-14
-1.69538e-14
2.30566e-10
-9.86491e-07
-1.11675e-14
-9.86995e-07
-4.5669e-16
-1.79365e-14
-3.92544e-15
-9.1221e-15
-1.40603e-15
-5.58906e-14
-8.35146e-15
-2.72067e-16
8.39704e-16
-4.27475e-15
-2.20182e-16
9.10261e-15
-1.22233e-13
1.00671e-15
-1.43693e-14
7.28617e-14
-8.84915e-14
8.15498e-10
-9.90234e-07
-6.66686e-14
-9.90532e-07
-5.81814e-16
-8.44823e-14
-3.83853e-15
-4.75484e-15
-1.44872e-15
-5.60698e-14
-8.85036e-15
-1.17042e-15
6.61316e-16
-3.15265e-15
-6.44595e-17
8.7426e-15
-1.22676e-13
1.5212e-15
-5.92765e-15
4.41028e-13
-5.26641e-13
6.03678e-10
-9.94061e-07
-4.51316e-13
-9.94572e-07
-9.90572e-16
-5.34432e-13
-3.6507e-15
-1.51337e-15
-1.34044e-15
-5.61695e-14
-6.80797e-15
-1.20177e-15
4.30752e-16
-1.68638e-15
-5.63598e-17
8.37236e-15
-1.2298e-13
5.67336e-15
-2.43665e-15
2.97621e-12
-3.49659e-12
5.85729e-10
-9.97847e-07
-3.03918e-12
-9.98271e-07
-4.63157e-15
-3.56885e-12
-5.05263e-15
-1.01372e-15
-1.01543e-15
-5.79812e-14
-2.51484e-15
-5.89669e-16
3.75998e-16
-5.47304e-16
-5.85984e-17
1.08507e-14
-1.25823e-13
1.02535e-14
-1.7237e-15
2.0087e-11
-2.35733e-11
4.43832e-10
-1.00072e-06
-2.04608e-11
-1.00112e-06
-3.95293e-15
-2.40257e-11
-4.06623e-15
-8.77751e-16
-1.54758e-15
-3.75231e-14
-3.66025e-16
-1.79609e-17
1.36444e-15
-1.65052e-16
-8.15071e-17
9.25283e-15
-1.26009e-13
9.0889e-15
-1.30183e-15
1.3319e-10
-1.56755e-10
4.25188e-10
-1.00216e-06
-1.35041e-10
-1.00254e-06
-4.93916e-16
-1.59066e-10
-5.12556e-16
-8.63196e-16
-7.89827e-17
-5.00362e-16
-1.38841e-16
-2.98259e-17
6.093e-17
-1.57008e-16
-6.93228e-17
4.15524e-15
-4.95957e-16
3.98684e-15
-1.1337e-15
7.59823e-10
-9.16574e-10
4.8005e-10
-1.0016e-06
-7.54919e-10
-1.00196e-06
-1.8973e-17
-9.13984e-10
-1.24517e-17
-8.73802e-16
-1.91978e-17
-4.97628e-16
-1.50569e-16
-2.55308e-17
2.87084e-17
-1.46291e-16
-3.97497e-17
1.1846e-17
-4.79368e-16
1.08358e-17
-1.13297e-15
3.7893e-09
-4.62676e-09
5.15397e-10
-9.96889e-07
-3.43759e-09
-9.97345e-07
-5.54782e-17
-4.68448e-09
-1.94829e-17
-9.13819e-16
-3.11263e-17
-4.91948e-16
-3.73669e-16
-2.86487e-17
3.81283e-17
-1.3932e-16
-4.58363e-17
2.78898e-17
-4.69454e-16
3.04409e-17
-1.13579e-15
3.43521e-09
-7.56781e-09
6.22538e-10
-9.91974e-07
-3.07228e-09
-9.92267e-07
-6.14083e-16
-7.61651e-09
-3.63434e-16
-1.17043e-15
-1.40632e-16
-1.34728e-14
-3.76604e-16
-1.42045e-16
4.234e-17
-1.42608e-16
-4.76215e-17
6.10279e-17
-4.90047e-16
1.01591e-16
-1.1767e-15
4.24276e-09
-1.09644e-08
3.6624e-10
-9.85722e-07
-3.93533e-09
-9.86226e-07
-4.56646e-15
-1.10135e-08
-4.3429e-15
-1.42194e-15
-1.19794e-15
-4.46452e-14
-3.91265e-16
-3.96837e-16
4.77479e-17
-1.37921e-16
-5.49688e-17
2.21802e-16
-3.33887e-15
5.17045e-16
-1.47325e-15
3.51725e-09
-1.37421e-08
6.85597e-10
-9.8075e-07
-3.20343e-09
-9.80787e-07
-6.11676e-15
-1.37739e-08
-5.94098e-15
-1.69409e-15
-3.34705e-16
-4.56519e-14
-3.76706e-16
-4.27064e-16
1.2037e-16
-1.34615e-16
-1.25945e-16
4.48048e-15
-5.33273e-14
4.89168e-15
-1.89546e-15
4.72555e-09
-1.77957e-08
1.98533e-10
-9.74607e-07
-4.43599e-09
-9.75065e-07
-6.38046e-15
-1.78244e-08
-6.44065e-15
-1.71796e-15
-3.60448e-16
-4.71244e-14
-2.36062e-16
-4.41016e-16
1.60232e-16
-1.33818e-16
-1.63054e-16
8.61691e-15
-5.50425e-14
8.90701e-15
-2.26145e-15
3.76162e-09
-2.12543e-08
5.44125e-10
-9.70831e-07
-3.57058e-09
-9.70738e-07
-6.52739e-15
-2.12921e-08
-6.64271e-15
-1.48266e-15
-3.52933e-16
-4.88146e-14
-1.9265e-16
-2.07457e-16
2.80509e-16
-1.321e-16
-1.8994e-16
9.25261e-15
-5.72637e-14
9.2348e-15
-2.35634e-15
5.03402e-09
-2.63659e-08
-9.63487e-11
-9.66098e-07
-4.95729e-09
-9.66475e-07
-6.98541e-15
-2.6437e-08
-7.19949e-15
-1.18306e-15
-8.97788e-16
-5.04633e-14
-8.42959e-16
-1.52322e-16
2.9806e-16
-1.46517e-16
-1.91536e-16
8.96954e-15
-5.91957e-14
8.98799e-15
-2.00874e-15
4.1806e-09
-3.0973e-08
4.77766e-10
-9.6346e-07
-3.99448e-09
-9.63421e-07
-3.80388e-15
-3.10524e-08
-3.99699e-15
-9.61791e-16
-2.02139e-15
-1.09333e-14
-3.00816e-15
-2.91623e-17
1.48476e-15
-2.44849e-16
-1.71195e-16
9.51698e-15
-6.04804e-14
9.40881e-15
-1.62238e-15
5.45925e-09
-3.71316e-08
1.04502e-10
-9.59567e-07
-5.19411e-09
-9.6e-07
-2.61148e-16
-3.71884e-08
-2.44812e-16
-9.63413e-16
-1.64602e-15
-5.55285e-15
-8.16573e-15
-8.59786e-17
2.19185e-15
-8.01444e-16
-9.22055e-17
6.197e-15
-1.8888e-14
5.98058e-15
-1.26843e-15
4.64851e-09
-4.26212e-08
5.90625e-10
-9.57004e-07
-4.38733e-09
-9.56911e-07
-7.04461e-16
-4.26701e-08
-7.20849e-16
-9.35249e-16
-3.51091e-15
-8.51035e-15
-7.909e-15
-2.8107e-17
1.11149e-15
-8.7248e-15
-7.16277e-17
4.19168e-16
-8.95672e-15
5.3447e-16
-1.26699e-15
5.72631e-09
-4.92407e-08
-9.58469e-11
-9.52553e-07
-5.59526e-09
-9.53003e-07
-1.02561e-15
-4.93032e-08
-1.07357e-15
-8.78227e-16
-2.79201e-15
-8.95832e-15
-6.89002e-15
-6.09742e-17
4.22808e-15
-8.47235e-15
-2.57706e-17
1.91743e-15
-2.22085e-14
1.99514e-15
-1.19839e-15
5.14833e-09
-5.51108e-08
5.30109e-10
-9.4887e-07
-4.9949e-09
-9.48642e-07
-1.14463e-15
-5.51728e-08
-1.19449e-15
-8.17532e-16
-1.53554e-15
-8.99024e-15
-1.07322e-17
-1.35222e-17
4.47119e-15
-8.39568e-15
-9.42134e-17
5.26571e-15
-2.74736e-14
5.19832e-15
-9.81784e-16
6.14102e-09
-6.16781e-08
-1.31375e-10
-9.43025e-07
-5.99199e-09
-9.43424e-07
-1.33213e-15
-6.17368e-08
-1.37803e-15
-7.61621e-16
-5.52812e-18
-6.19668e-15
-1.03331e-17
-5.95654e-18
4.535e-15
-8.27919e-15
-1.92261e-16
4.88978e-15
-2.16141e-14
4.77031e-15
-7.27381e-16
5.83196e-09
-6.76281e-08
5.17454e-10
-9.37708e-07
-5.64736e-09
-9.37496e-07
-9.1852e-16
-6.76746e-08
-9.52778e-16
-7.19724e-16
-9.30032e-18
-3.52443e-15
-1.0124e-17
-9.56352e-18
4.2801e-15
-8.0605e-15
-1.80104e-17
2.25651e-15
-1.49539e-14
2.22975e-15
-5.7463e-16
6.64637e-09
-7.40646e-08
9.47631e-12
-9.30694e-07
-6.46717e-09
-9.30868e-07
-1.07448e-15
-7.41032e-08
-1.08377e-15
-6.96772e-16
-1.96875e-17
-5.85796e-15
-1.00688e-17
-1.9782e-17
2.73362e-15
-2.54396e-17
-2.35713e-17
1.65218e-15
-9.83076e-15
1.64332e-15
-4.5647e-16
6.60936e-09
-8.02621e-08
3.06867e-10
-9.23849e-07
-6.41502e-09
-9.23821e-07
-2.21563e-15
-8.02874e-08
-2.28795e-15
-6.12109e-16
-2.56798e-17
-9.83299e-15
-1.01066e-17
-2.57044e-17
1.18057e-17
-2.76912e-17
-1.4623e-17
1.40735e-15
-3.34785e-15
1.41409e-15
-3.76612e-16
7.25876e-09
-8.70134e-08
1.45993e-10
-9.16164e-07
-7.15698e-09
-9.1608e-07
-2.50858e-15
-8.7056e-08
-2.61107e-15
-5.05463e-16
-2.41666e-17
-9.94721e-15
-1.08772e-17
-2.36436e-17
2.81875e-17
-7.60252e-17
-1.33839e-17
3.19505e-16
-6.5654e-16
3.76356e-16
-3.55612e-16
7.44836e-09
-9.39782e-08
-2.77289e-11
-9.08204e-07
-7.34165e-09
-9.08404e-07
-2.58e-15
-9.40238e-08
-2.69005e-15
-4.04604e-16
-1.07707e-16
-1.00365e-14
-1.06419e-16
-1.25092e-17
1.16538e-16
-3.51672e-16
-1.36285e-17
1.0825e-16
-3.99661e-16
1.75002e-16
-3.45542e-16
8.02989e-09
-1.01598e-07
3.63304e-10
-9.0017e-07
-7.89411e-09
-8.99937e-07
-2.04605e-15
-1.01661e-07
-2.19765e-15
-2.83213e-16
-5.75825e-16
-3.34212e-15
-4.33622e-16
-9.39958e-18
2.51242e-16
-3.52075e-16
-6.96108e-18
8.24641e-17
-4.49461e-16
1.49652e-16
-3.35934e-16
8.46592e-09
-1.09853e-07
-1.13145e-10
-8.91424e-07
-8.30294e-09
-8.91771e-07
-9.51641e-17
-1.09946e-07
-1.42459e-16
-2.73914e-16
-3.91605e-16
-3.82447e-16
-7.53807e-16
-9.68304e-18
2.46606e-16
-3.34498e-16
-2.01494e-17
1.01611e-16
-4.36013e-16
1.67031e-16
-3.25407e-16
9.00964e-09
-1.18841e-07
5.97245e-10
-8.82983e-07
-8.72593e-09
-8.82712e-07
-1.48192e-17
-1.18957e-07
-5.14691e-17
-2.74907e-16
-5.5687e-16
-3.88919e-16
-6.1455e-16
-6.05188e-18
1.93893e-16
-1.05638e-16
-8.61695e-18
1.10726e-16
-4.20871e-16
1.74246e-16
-3.13482e-16
9.86651e-09
-1.28849e-07
2.01978e-10
-8.73375e-07
-9.32182e-09
-8.73714e-07
-4.33749e-17
-1.2896e-07
-8.3291e-17
-2.72987e-16
-3.99194e-16
-2.28423e-16
-1.78372e-16
-6.39915e-18
6.25677e-17
-1.65741e-17
-8.72726e-18
1.814e-16
-8.48294e-16
2.47934e-16
-3.04239e-16
1.03101e-08
-1.39385e-07
9.34248e-10
-8.64068e-07
-9.56209e-09
-8.63847e-07
-6.43059e-17
-1.39452e-07
-8.9741e-17
-2.84905e-16
-4.9262e-17
-4.10599e-16
-6.35111e-18
-5.76871e-18
2.83208e-17
-1.48143e-17
-1.26114e-17
3.75346e-16
-1.15389e-15
4.31006e-16
-2.8506e-16
1.13626e-08
-1.51035e-07
4.51889e-10
-8.53236e-07
-1.05492e-08
-8.53491e-07
-2.69275e-16
-1.51069e-07
-2.84978e-16
-3.05293e-16
-4.8298e-18
-1.25073e-15
-6.54674e-18
-7.74318e-18
9.92977e-18
-1.51733e-17
-1.47185e-17
4.35544e-16
-1.1192e-15
4.86943e-16
-2.63601e-16
1.15535e-08
-1.62724e-07
8.88888e-10
-8.42554e-07
-1.07063e-08
-8.42412e-07
-5.31525e-16
-1.62728e-07
-5.5e-16
-3.23329e-16
-7.91255e-18
-1.5211e-15
-7.19898e-18
-1.03583e-17
1.21664e-17
-1.62599e-17
-1.47336e-17
4.43181e-16
-9.62496e-16
4.8854e-16
-2.39584e-16
1.2877e-08
-1.75515e-07
4.13293e-10
-8.29991e-07
-1.21585e-08
-8.30168e-07
-5.8685e-16
-1.75519e-07
-6.05608e-16
-3.39504e-16
-5.06815e-18
-1.4463e-15
-6.29407e-18
-1.05334e-17
1.09749e-17
-1.83688e-17
-1.25197e-17
2.93011e-16
-4.6804e-16
3.40238e-16
-2.21063e-16
1.30484e-08
-1.88128e-07
5.99281e-10
-8.17335e-07
-1.24336e-08
-8.17272e-07
-5.66413e-16
-1.88159e-07
-5.96199e-16
-3.39697e-16
-1.06817e-17
-1.11593e-15
-7.13781e-18
-8.553e-18
1.65237e-17
-3.32278e-17
-9.28686e-18
1.83234e-16
-4.26041e-16
2.35486e-16
-2.08924e-16
1.48251e-08
-2.02157e-07
3.28742e-10
-8.02551e-07
-1.42512e-08
-8.02691e-07
-3.08957e-16
-2.02209e-07
-3.33562e-16
-3.39212e-16
-1.727e-17
-4.89168e-16
-1.97611e-17
-4.27338e-18
7.25411e-17
-2.25208e-16
-5.52169e-18
1.84352e-16
-4.76833e-16
2.35985e-16
-1.96329e-16
1.49828e-08
-2.16044e-07
4.52711e-10
-7.87693e-07
-1.44031e-08
-7.87748e-07
-1.78968e-16
-2.16094e-07
-1.97883e-16
-3.38418e-16
-7.06739e-17
-4.38956e-16
-2.24142e-16
-3.4225e-18
1.46935e-16
-3.8386e-16
-3.65794e-18
1.98034e-16
-4.81234e-16
2.48142e-16
-1.84283e-16
1.72089e-08
-2.32135e-07
2.51434e-10
-7.70458e-07
-1.67516e-08
-7.70626e-07
-1.5749e-16
-2.32184e-07
-1.74251e-16
-3.36911e-16
-1.64357e-16
-4.32991e-16
-3.91893e-16
-2.21396e-18
1.80842e-16
-3.72245e-16
-1.78775e-18
1.41757e-16
-2.63851e-16
1.8545e-16
-1.68048e-16
1.71619e-08
-2.48156e-07
1.99758e-10
-7.53272e-07
-1.69001e-08
-7.53373e-07
-1.41824e-16
-2.48198e-07
-1.54416e-16
-3.39055e-16
-2.06201e-16
-3.25748e-16
-3.77745e-16
-1.33542e-18
1.56237e-16
-2.34167e-16
-1.98072e-18
5.79887e-17
-8.54495e-17
1.31384e-16
-1.86797e-16
1.97659e-08
-2.66614e-07
6.5931e-11
-7.33396e-07
-1.96321e-08
-7.33524e-07
-1.93897e-16
-2.66627e-07
-1.22504e-16
-4.24238e-16
-1.78456e-16
-3.03405e-16
-3.58591e-16
-1.08947e-18
5.51726e-17
-6.29192e-17
-2.00364e-18
3.35796e-17
-1.66268e-17
1.17358e-15
-1.28935e-15
2.00207e-08
-2.84947e-07
8.6964e-11
-7.13393e-07
-1.98638e-08
-7.13534e-07
-1.27525e-15
-2.84944e-07
-1.29787e-16
-1.58168e-15
-1.76097e-16
-3.93184e-16
-9.43933e-16
-1.19866e-18
1.87157e-17
-5.35547e-17
-2.22369e-18
4.26521e-17
-1.55939e-17
1.589e-14
-1.71112e-14
2.30513e-08
-3.05647e-07
1.72188e-10
-6.90597e-07
-2.27848e-08
-6.90701e-07
-1.57017e-14
-3.05659e-07
-2.83337e-16
-1.69968e-14
-6.51908e-16
-3.08678e-16
-3.13711e-15
-1.34285e-18
1.8849e-17
-5.09369e-17
-5.12761e-18
4.08658e-17
-1.53737e-17
2.23025e-13
-2.40072e-13
2.41632e-08
-3.27282e-07
1.52254e-10
-6.66817e-07
-2.38622e-08
-6.66943e-07
-2.20593e-13
-3.27301e-07
-1.20414e-15
-2.36289e-13
-1.32312e-15
-4.39142e-17
-3.36415e-15
-1.00718e-18
1.94374e-17
-3.62677e-17
-8.05268e-18
4.52389e-17
-1.53734e-17
3.24589e-12
-3.48589e-12
2.75794e-08
-3.52459e-07
2.15654e-10
-6.39609e-07
-2.73173e-08
-6.3958e-07
-3.22405e-12
-3.52464e-07
-1.62925e-15
-3.45868e-12
-1.63317e-15
-1.5746e-17
-3.0338e-15
-2.34889e-18
1.16205e-17
-1.67773e-17
-6.59545e-18
2.96016e-17
-1.54629e-17
4.91331e-11
-5.26189e-11
2.80552e-08
-3.78569e-07
1.76288e-10
-6.11726e-07
-2.76776e-08
-6.11761e-07
-4.91759e-11
-3.78529e-07
-6.72481e-16
-5.26338e-11
-6.79033e-16
-4.06873e-18
-5.17117e-18
-2.39118e-18
3.64414e-18
-3.08645e-18
-3.3902e-18
4.75468e-17
-5.23791e-17
7.45399e-10
-7.98018e-10
2.97733e-08
-4.06421e-07
1.87945e-10
-5.82159e-07
-2.94947e-08
-5.82095e-07
-7.50366e-10
-4.06324e-07
-6.9108e-17
-8.03e-10
-3.39474e-19
-7.25337e-17
-1.61005e-18
-1.01387e-18
6.69637e-18
-1.15812e-18
-7.07588e-19
2.41182e-15
-2.44853e-15
7.57928e-09
-8.37729e-09
2.93017e-08
-4.28243e-07
-1.22299e-11
-5.5285e-07
-2.95001e-08
-5.52625e-07
-7.63281e-09
-4.28208e-07
-1.86828e-15
-8.4358e-09
-5.00478e-18
-1.93242e-15
-1.05328e-18
-4.17574e-19
3.78112e-17
-3.87158e-17
-1.91513e-19
6.27526e-14
-6.5159e-14
1.83609e-08
-2.69444e-08
3.17701e-08
-4.42311e-07
1.64767e-10
-5.21245e-07
-3.1463e-08
-5.21012e-07
-1.83504e-08
-4.42078e-07
-5.1636e-14
-2.71189e-08
-2.03033e-17
-5.35449e-14
-2.09697e-17
-2.5179e-19
1.33487e-15
-1.37201e-15
-1.43723e-18
1.69982e-12
-1.76353e-12
3.32782e-08
-6.15099e-08
3.40132e-08
-4.43894e-07
-1.1182e-10
-4.87122e-07
-3.44037e-08
-4.86722e-07
-3.337e-08
-4.43966e-07
-1.48876e-12
-6.17359e-08
-9.66657e-16
-1.54125e-12
-9.85878e-16
-1.59614e-18
4.12321e-14
-4.26018e-14
-2.11424e-18
4.52524e-11
-4.69722e-11
4.75372e-08
-1.10449e-07
3.67085e-08
-4.33434e-07
-2.94944e-11
-4.50384e-07
-3.62686e-08
-4.50485e-07
-4.7581e-08
-4.33074e-07
-4.17682e-11
-1.10653e-07
-3.25145e-14
-4.32748e-11
-3.34978e-14
-2.36616e-18
1.27173e-12
-1.31433e-12
-2.41347e-18
1.23027e-09
-1.27592e-09
7.68949e-08
-1.87197e-07
4.32742e-08
-3.99966e-07
-4.76076e-10
-4.06633e-07
-4.43954e-08
-4.06566e-07
-7.70308e-08
-4.00601e-07
-1.18687e-09
-1.87181e-07
-1.08909e-12
-1.229e-09
-1.12259e-12
-2.70867e-18
3.72635e-11
-3.85779e-11
-1.37868e-18
1.82473e-08
-1.94852e-08
8.84075e-08
-2.57384e-07
4.46026e-08
-3.56161e-07
7.36283e-10
-3.62767e-07
-4.29562e-08
-3.62873e-07
-8.74145e-08
-3.56143e-07
-1.79507e-08
-2.55777e-07
-3.46647e-11
-1.91441e-08
-3.57873e-11
-1.61555e-18
1.50673e-09
-1.5453e-09
-3.12283e-19