/*--------------------------------*- C++ -*----------------------------------*\
  =========                 |
  \\      /  F ield         | OpenFOAM: The Open Source CFD Toolbox
   \\    /   O peration     | Website:  https://openfoam.org
    \\  /    A nd           | Version:  8
     \\/     M anipulation  |
\*---------------------------------------------------------------------------*/
FoamFile
{
    version     2.0;
    format      ascii;
    class       volScalarField;
    location    "0.05";
    object      p;
}
// * * * * * * * * * * * * * * * * * * * * * * * * * * * * * * * * * * * * * //

dimensions      [1 -1 -2 0 0 0 0];

internalField   nonuniform List<scalar> 
9150
(
-206.63
-207.638
-208.32
-208.788
-209.016
-209.016
-208.788
-208.32
-207.638
-206.631
-226.815
-227.288
-227.733
-228.082
-228.27
-228.27
-228.082
-227.733
-227.288
-226.815
-246.655
-246.915
-247.193
-247.419
-247.553
-247.553
-247.419
-247.193
-246.915
-246.655
-266.281
-266.432
-266.591
-266.736
-266.824
-266.824
-266.736
-266.591
-266.432
-266.281
-285.874
-286.015
-286.153
-286.261
-286.311
-286.311
-286.261
-286.153
-286.016
-285.874
-121.253
-121.479
-120.845
-120.513
-120.365
-120.366
-120.517
-120.852
-121.487
-121.261
-136.308
-136.973
-137.09
-137.058
-136.994
-136.995
-137.06
-137.093
-136.977
-136.313
-152.547
-153.407
-153.795
-154.1
-154.219
-154.22
-154.102
-153.796
-153.408
-152.547
-169.251
-170.618
-171.168
-171.747
-171.989
-171.989
-171.748
-171.169
-170.619
-169.251
-186.652
-188.575
-189.442
-190.028
-190.319
-190.319
-190.028
-189.442
-188.575
-186.653
-26.6585
-28.0027
-29.9152
-31.1734
-31.937
-31.9457
-31.2035
-29.979
-28.1143
-26.8735
-46.9725
-47.5016
-48.6605
-48.9535
-49.5222
-49.5339
-48.9868
-48.7169
-47.5842
-47.0791
-67.9139
-67.3195
-68.5225
-68.114
-68.4539
-68.4616
-68.1308
-68.5588
-67.3634
-67.969
-90.7426
-87.3437
-88.1462
-86.8309
-86.6519
-86.656
-86.8409
-88.1665
-87.3685
-90.77
-114.075
-106.074
-104.939
-104.066
-103.572
-103.574
-104.072
-104.95
-106.087
-114.09
0.0162028
0.0162024
0.0162016
0.0162008
0.0162
0.0161993
0.0161985
0.0161977
0.016197
0.0161963
-0.00341696
-0.00341733
-0.00341785
-0.00341839
-0.00341897
-0.00341961
-0.0034203
-0.00342103
-0.00342179
-0.00342255
-0.0230368
-0.0230378
-0.0230385
-0.0230392
-0.0230399
-0.0230406
-0.0230413
-0.023042
-0.0230426
-0.0230433
-0.0426565
-0.0426571
-0.0426578
-0.0426585
-0.0426592
-0.0426599
-0.0426606
-0.0426613
-0.042662
-0.0426627
-0.0622763
-0.0622772
-0.0622779
-0.0622786
-0.0622792
-0.0622799
-0.0622805
-0.0622811
-0.0622817
-0.0622823
-0.081896
-0.0818967
-0.0818974
-0.0818981
-0.0818987
-0.0818993
-0.0818998
-0.0819004
-0.0819009
-0.0819015
-0.101515
-0.101516
-0.101517
-0.101517
-0.101518
-0.101519
-0.101519
-0.10152
-0.10152
-0.101521
-0.121135
-0.121135
-0.121136
-0.121137
-0.121137
-0.121138
-0.121138
-0.121139
-0.121139
-0.12114
-0.140754
-0.140754
-0.140755
-0.140755
-0.140756
-0.140757
-0.140757
-0.140758
-0.140759
-0.140759
-0.160372
-0.160373
-0.160374
-0.160374
-0.160375
-0.160376
-0.160376
-0.160377
-0.160378
-0.160379
-0.179991
-0.179992
-0.179993
-0.179993
-0.179994
-0.179995
-0.179996
-0.179997
-0.179997
-0.179998
-0.199611
-0.199611
-0.199612
-0.199613
-0.199613
-0.199614
-0.199615
-0.199616
-0.199617
-0.199618
-0.21923
-0.219231
-0.219232
-0.219232
-0.219233
-0.219234
-0.219235
-0.219235
-0.219236
-0.219237
-0.238851
-0.238851
-0.238852
-0.238852
-0.238853
-0.238853
-0.238854
-0.238855
-0.238856
-0.238857
-0.258471
-0.258471
-0.258471
-0.258472
-0.258472
-0.258473
-0.258474
-0.258475
-0.258475
-0.258476
-0.278091
-0.278091
-0.278091
-0.278091
-0.278092
-0.278093
-0.278093
-0.278094
-0.278095
-0.278096
-0.29771
-0.29771
-0.297711
-0.297711
-0.297711
-0.297712
-0.297713
-0.297714
-0.297714
-0.297715
-0.31733
-0.31733
-0.31733
-0.317331
-0.317331
-0.317332
-0.317332
-0.317333
-0.317334
-0.317335
-0.336949
-0.336949
-0.33695
-0.33695
-0.336951
-0.336951
-0.336952
-0.336953
-0.336953
-0.336954
-0.356569
-0.356569
-0.35657
-0.35657
-0.356571
-0.356571
-0.356572
-0.356572
-0.356573
-0.356574
-0.376189
-0.376189
-0.37619
-0.37619
-0.37619
-0.376191
-0.376191
-0.376192
-0.376192
-0.376193
-0.395809
-0.395809
-0.39581
-0.39581
-0.39581
-0.395811
-0.395811
-0.395811
-0.395812
-0.395813
-0.415429
-0.415429
-0.415429
-0.41543
-0.41543
-0.41543
-0.415431
-0.415431
-0.415432
-0.415433
-0.435049
-0.435049
-0.435049
-0.43505
-0.43505
-0.43505
-0.43505
-0.435051
-0.435052
-0.435052
-0.45467
-0.45467
-0.454669
-0.454669
-0.45467
-0.45467
-0.45467
-0.454671
-0.454671
-0.454672
-0.474289
-0.474289
-0.474289
-0.474289
-0.474289
-0.47429
-0.47429
-0.47429
-0.474291
-0.474291
-0.493909
-0.493909
-0.493908
-0.493908
-0.493909
-0.493909
-0.493909
-0.49391
-0.49391
-0.493911
-0.513527
-0.513527
-0.513527
-0.513527
-0.513528
-0.513528
-0.513528
-0.513529
-0.513529
-0.51353
-0.533146
-0.533145
-0.533146
-0.533146
-0.533147
-0.533147
-0.533147
-0.533148
-0.533149
-0.533149
-0.552764
-0.552764
-0.552765
-0.552765
-0.552766
-0.552766
-0.552767
-0.552767
-0.552768
-0.552769
-0.572384
-0.572384
-0.572384
-0.572385
-0.572385
-0.572385
-0.572386
-0.572386
-0.572387
-0.572388
-0.592004
-0.592004
-0.592003
-0.592004
-0.592004
-0.592004
-0.592005
-0.592005
-0.592006
-0.592007
-0.611622
-0.611622
-0.611622
-0.611622
-0.611622
-0.611623
-0.611623
-0.611624
-0.611625
-0.611625
-0.63124
-0.63124
-0.63124
-0.63124
-0.63124
-0.631241
-0.631242
-0.631242
-0.631243
-0.631244
-0.650858
-0.650857
-0.650858
-0.650858
-0.650858
-0.650859
-0.650859
-0.65086
-0.65086
-0.650861
-0.670475
-0.670475
-0.670475
-0.670475
-0.670475
-0.670475
-0.670476
-0.670476
-0.670477
-0.670478
-0.690091
-0.690091
-0.690091
-0.690091
-0.690091
-0.690091
-0.690092
-0.690092
-0.690093
-0.690093
-0.709706
-0.709706
-0.709706
-0.709706
-0.709706
-0.709706
-0.709706
-0.709707
-0.709708
-0.709709
-0.72932
-0.729319
-0.729319
-0.729319
-0.729319
-0.72932
-0.72932
-0.729321
-0.729322
-0.729323
-0.748933
-0.748933
-0.748932
-0.748932
-0.748932
-0.748933
-0.748933
-0.748934
-0.748935
-0.748936
-0.768546
-0.768545
-0.768545
-0.768545
-0.768545
-0.768545
-0.768546
-0.768546
-0.768547
-0.768549
-0.788158
-0.788157
-0.788156
-0.788156
-0.788156
-0.788156
-0.788157
-0.788157
-0.788158
-0.78816
-0.807768
-0.807767
-0.807766
-0.807766
-0.807766
-0.807766
-0.807766
-0.807767
-0.807768
-0.80777
-0.827377
-0.827376
-0.827375
-0.827375
-0.827374
-0.827375
-0.827375
-0.827376
-0.827377
-0.827378
-0.846985
-0.846984
-0.846983
-0.846982
-0.846981
-0.846981
-0.846982
-0.846982
-0.846983
-0.846985
-0.866592
-0.86659
-0.866588
-0.866587
-0.866586
-0.866586
-0.866586
-0.866587
-0.866588
-0.86659
-0.886196
-0.886194
-0.886192
-0.88619
-0.886189
-0.886189
-0.886189
-0.88619
-0.886191
-0.886193
-0.905797
-0.905794
-0.905792
-0.90579
-0.905789
-0.905789
-0.905789
-0.90579
-0.905791
-0.905794
-0.925396
-0.925393
-0.92539
-0.925388
-0.925387
-0.925386
-0.925386
-0.925387
-0.925389
-0.925391
-0.944992
-0.944989
-0.944985
-0.944983
-0.944981
-0.94498
-0.94498
-0.944982
-0.944983
-0.944986
-0.964585
-0.96458
-0.964577
-0.964574
-0.964572
-0.964571
-0.964572
-0.964573
-0.964575
-0.964578
-0.984174
-0.984168
-0.984164
-0.984161
-0.98416
-0.984159
-0.984159
-0.98416
-0.984163
-0.984167
-1.00376
-1.00375
-1.00375
-1.00375
-1.00374
-1.00374
-1.00374
-1.00374
-1.00375
-1.00375
-1.02334
-1.02333
-1.02333
-1.02332
-1.02332
-1.02332
-1.02332
-1.02332
-1.02333
-1.02333
-1.04291
-1.04291
-1.0429
-1.0429
-1.0429
-1.04289
-1.04289
-1.0429
-1.0429
-1.04291
-1.06248
-1.06248
-1.06247
-1.06247
-1.06246
-1.06246
-1.06246
-1.06247
-1.06247
-1.06248
-1.08205
-1.08204
-1.08203
-1.08203
-1.08202
-1.08202
-1.08202
-1.08203
-1.08203
-1.08204
-1.10161
-1.10159
-1.10159
-1.10158
-1.10158
-1.10157
-1.10158
-1.10158
-1.10159
-1.10159
-1.12115
-1.12114
-1.12113
-1.12112
-1.12112
-1.12112
-1.12112
-1.12112
-1.12113
-1.12114
-1.14069
-1.14068
-1.14066
-1.14066
-1.14065
-1.14065
-1.14065
-1.14066
-1.14067
-1.14068
-1.16022
-1.1602
-1.16019
-1.16018
-1.16017
-1.16017
-1.16017
-1.16018
-1.16019
-1.1602
-1.17973
-1.17971
-1.17969
-1.17968
-1.17968
-1.17968
-1.17968
-1.17969
-1.1797
-1.17971
-1.19922
-1.1992
-1.19919
-1.19917
-1.19917
-1.19917
-1.19917
-1.19918
-1.19919
-1.19921
-1.2187
-1.21868
-1.21866
-1.21865
-1.21864
-1.21864
-1.21864
-1.21865
-1.21866
-1.21868
-1.23816
-1.23813
-1.23811
-1.2381
-1.23809
-1.23809
-1.23809
-1.2381
-1.23812
-1.23814
-1.2576
-1.25757
-1.25754
-1.25752
-1.25751
-1.25751
-1.25751
-1.25753
-1.25755
-1.25757
-1.27701
-1.27697
-1.27694
-1.27692
-1.27691
-1.2769
-1.27691
-1.27692
-1.27695
-1.27698
-1.29638
-1.29634
-1.2963
-1.29628
-1.29627
-1.29626
-1.29627
-1.29629
-1.29631
-1.29635
-1.31572
-1.31567
-1.31563
-1.3156
-1.31558
-1.31558
-1.31559
-1.31561
-1.31564
-1.31569
-1.33501
-1.33495
-1.3349
-1.33487
-1.33485
-1.33485
-1.33486
-1.33488
-1.33492
-1.33497
-1.35425
-1.35418
-1.35412
-1.35408
-1.35405
-1.35405
-1.35406
-1.35409
-1.35413
-1.35419
-1.37342
-1.37333
-1.37326
-1.37321
-1.37318
-1.37317
-1.37318
-1.37321
-1.37326
-1.37334
-1.3925
-1.39239
-1.3923
-1.39224
-1.3922
-1.39218
-1.39219
-1.39223
-1.39229
-1.39238
-1.41146
-1.41133
-1.41122
-1.41113
-1.41108
-1.41106
-1.41107
-1.41112
-1.41119
-1.4113
-1.43029
-1.43012
-1.42998
-1.42987
-1.4298
-1.42977
-1.42979
-1.42984
-1.42993
-1.43006
-1.44893
-1.44872
-1.44854
-1.4484
-1.44832
-1.44828
-1.44829
-1.44836
-1.44847
-1.44864
-1.46736
-1.46708
-1.46686
-1.46669
-1.46658
-1.46654
-1.46656
-1.46665
-1.4668
-1.46701
-1.48552
-1.48518
-1.48489
-1.48468
-1.48455
-1.48451
-1.48455
-1.48468
-1.48489
-1.48517
-1.5034
-1.50295
-1.50259
-1.50233
-1.50218
-1.50215
-1.50222
-1.50241
-1.50271
-1.5031
-1.52095
-1.52036
-1.51989
-1.51956
-1.51938
-1.51935
-1.51949
-1.51977
-1.52018
-1.52072
-1.53815
-1.53735
-1.53672
-1.53627
-1.53603
-1.53601
-1.5362
-1.53661
-1.5372
-1.53796
-1.55497
-1.55385
-1.55295
-1.5523
-1.55194
-1.55191
-1.5522
-1.5528
-1.55365
-1.55472
-1.57144
-1.5698
-1.56844
-1.56743
-1.56686
-1.56681
-1.56726
-1.56818
-1.56947
-1.57103
-1.58764
-1.58518
-1.58302
-1.58135
-1.58036
-1.58025
-1.58104
-1.58258
-1.58464
-1.58703
-1.60398
-1.60018
-1.59657
-1.59352
-1.59154
-1.59131
-1.59288
-1.59566
-1.59916
-1.60294
-1.62148
-1.61558
-1.60923
-1.60305
-1.59849
-1.59803
-1.60175
-1.60737
-1.61357
-1.61956
-1.64267
-1.63425
-1.62395
-1.61209
-1.60256
-1.60148
-1.60952
-1.62057
-1.63087
-1.63968
-1.67264
-1.66415
-1.65163
-1.6353
-1.61792
-1.61476
-1.62943
-1.64644
-1.66018
-1.66936
-1.7137
-1.70877
-1.68808
-1.66574
-1.63714
-1.63931
-1.66474
-1.68488
-1.708
-1.71326
-1.75831
-1.75545
-1.68365
-1.64258
-1.55662
-1.55976
-1.64636
-1.68848
-1.75742
-1.76202
-1.80599
-1.81249
-1.73318
-1.40587
-1.02374
-1.02195
-1.42228
-1.76101
-1.8215
-1.81455
-1.83778
-1.83873
-1.80962
0.125939
5.63778
6.15258
0.0479938
-1.80911
-1.84809
-1.84834
-1.87684
-1.87625
-0.862988
3.40658
10.597
10.8703
3.36789
-0.821391
-1.87343
-1.87436
-1.8992
-1.90358
0.269287
2.20851
3.67122
3.57982
2.25083
0.332665
-1.87357
-1.87228
-1.89605
-1.88743
-0.52271
0.517785
-0.266466
-0.270643
0.544594
-0.518069
-1.88153
-1.88729
-1.89874
-1.92962
-2.64194
0.255573
-1.06358
-1.05322
0.21544
-2.60063
-1.94226
-1.90246
-1.90345
-2.08386
-3.8902
-1.06683
-0.0453635
-0.0476333
-1.07317
-3.91006
-2.10135
-1.91185
-1.92187
-3.00438
-3.78504
-2.70944
-1.54845
-1.54865
-2.70034
-3.8342
-2.98868
-1.92415
-1.93415
-4.98198
-6.36337
-6.75677
-6.89791
-6.8954
-6.74945
-6.34556
-4.93763
-1.93573
-3.13338
-11.6241
-14.8772
-16.571
-17.3034
-17.3053
-16.5798
-14.8862
-11.6187
-3.13877
0.0161956
0.0161949
0.0161943
0.0161937
0.016193
0.0161924
0.0161918
0.016191
0.0161902
0.0161892
0.0161882
0.016187
0.0161858
0.0161844
0.016183
0.0161815
0.01618
0.0161784
0.0161767
0.0161749
0.0161731
0.0161711
0.016169
0.0161669
0.0161648
0.0161628
0.0161609
0.0161591
0.0161576
0.0161562
0.016155
0.0161538
0.0161527
0.0161517
0.0161509
0.0161503
0.0161499
0.0161498
0.0161498
0.0161498
-0.00342335
-0.00342414
-0.00342489
-0.00342561
-0.00342632
-0.00342704
-0.00342779
-0.00342862
-0.00342953
-0.00343052
-0.00343162
-0.0034328
-0.00343407
-0.00343541
-0.00343682
-0.00343829
-0.00343983
-0.00344144
-0.00344314
-0.00344494
-0.00344685
-0.00344885
-0.00345093
-0.00345304
-0.00345512
-0.00345711
-0.00345896
-0.00346064
-0.00346217
-0.00346356
-0.00346487
-0.0034661
-0.00346723
-0.00346821
-0.00346898
-0.00346951
-0.00346983
-0.00346999
-0.00347008
-0.00347013
-0.0230439
-0.0230446
-0.0230453
-0.023046
-0.0230467
-0.0230474
-0.0230481
-0.0230489
-0.0230498
-0.0230508
-0.0230518
-0.0230529
-0.0230541
-0.0230554
-0.0230568
-0.0230582
-0.0230598
-0.0230614
-0.0230631
-0.0230649
-0.0230667
-0.0230686
-0.0230705
-0.0230725
-0.0230744
-0.0230763
-0.0230781
-0.0230798
-0.0230813
-0.0230828
-0.0230842
-0.0230854
-0.0230865
-0.0230874
-0.0230881
-0.0230887
-0.0230891
-0.0230894
-0.0230897
-0.0230898
-0.0426634
-0.0426641
-0.0426648
-0.0426656
-0.0426664
-0.0426672
-0.042668
-0.0426689
-0.0426698
-0.0426707
-0.0426717
-0.0426728
-0.042674
-0.0426753
-0.0426766
-0.0426781
-0.0426797
-0.0426814
-0.0426831
-0.0426848
-0.0426866
-0.0426883
-0.0426901
-0.0426919
-0.0426937
-0.0426954
-0.0426972
-0.0426989
-0.0427005
-0.0427019
-0.0427032
-0.0427044
-0.0427054
-0.0427062
-0.0427069
-0.0427076
-0.0427082
-0.0427086
-0.0427089
-0.042709
-0.0622829
-0.0622836
-0.0622844
-0.0622852
-0.062286
-0.0622869
-0.0622878
-0.0622887
-0.0622896
-0.0622905
-0.0622915
-0.0622926
-0.0622938
-0.0622952
-0.0622966
-0.0622982
-0.0622998
-0.0623015
-0.0623032
-0.0623049
-0.0623065
-0.0623081
-0.0623097
-0.0623113
-0.062313
-0.0623147
-0.0623164
-0.0623181
-0.0623196
-0.0623209
-0.062322
-0.062323
-0.0623239
-0.0623248
-0.0623256
-0.0623263
-0.0623269
-0.0623274
-0.0623275
-0.0623275
-0.0819021
-0.0819029
-0.0819036
-0.0819045
-0.0819053
-0.0819063
-0.0819072
-0.0819081
-0.0819091
-0.0819102
-0.0819113
-0.0819124
-0.0819137
-0.0819152
-0.0819167
-0.0819183
-0.08192
-0.0819217
-0.0819233
-0.0819249
-0.0819264
-0.0819279
-0.0819294
-0.0819309
-0.0819325
-0.0819341
-0.0819356
-0.0819371
-0.0819384
-0.0819395
-0.0819405
-0.0819414
-0.0819423
-0.0819432
-0.081944
-0.0819447
-0.0819452
-0.0819455
-0.0819456
-0.0819455
-0.101521
-0.101522
-0.101523
-0.101524
-0.101525
-0.101526
-0.101527
-0.101528
-0.101529
-0.10153
-0.101531
-0.101532
-0.101534
-0.101535
-0.101537
-0.101538
-0.10154
-0.101542
-0.101543
-0.101545
-0.101546
-0.101548
-0.101549
-0.10155
-0.101552
-0.101553
-0.101555
-0.101556
-0.101557
-0.101558
-0.101559
-0.10156
-0.101561
-0.101562
-0.101562
-0.101563
-0.101563
-0.101563
-0.101563
-0.101564
-0.121141
-0.121141
-0.121142
-0.121143
-0.121144
-0.121145
-0.121146
-0.121147
-0.121148
-0.12115
-0.121151
-0.121152
-0.121154
-0.121155
-0.121157
-0.121158
-0.12116
-0.121161
-0.121163
-0.121164
-0.121166
-0.121167
-0.121169
-0.12117
-0.121171
-0.121172
-0.121173
-0.121174
-0.121175
-0.121176
-0.121177
-0.121178
-0.121179
-0.12118
-0.12118
-0.121181
-0.121181
-0.121181
-0.121181
-0.121182
-0.14076
-0.140761
-0.140761
-0.140762
-0.140763
-0.140764
-0.140766
-0.140767
-0.140768
-0.14077
-0.140771
-0.140772
-0.140774
-0.140775
-0.140777
-0.140778
-0.14078
-0.140781
-0.140783
-0.140784
-0.140786
-0.140787
-0.140788
-0.140789
-0.14079
-0.140791
-0.140792
-0.140793
-0.140794
-0.140795
-0.140796
-0.140797
-0.140797
-0.140798
-0.140798
-0.140799
-0.140799
-0.140799
-0.140799
-0.140799
-0.160379
-0.16038
-0.160381
-0.160382
-0.160383
-0.160384
-0.160385
-0.160387
-0.160388
-0.160389
-0.160391
-0.160392
-0.160394
-0.160395
-0.160397
-0.160398
-0.160399
-0.160401
-0.160402
-0.160404
-0.160405
-0.160406
-0.160408
-0.160408
-0.160409
-0.16041
-0.160411
-0.160412
-0.160413
-0.160414
-0.160415
-0.160415
-0.160416
-0.160416
-0.160416
-0.160417
-0.160417
-0.160417
-0.160417
-0.160417
-0.179999
-0.18
-0.180001
-0.180002
-0.180003
-0.180004
-0.180005
-0.180006
-0.180008
-0.180009
-0.180011
-0.180012
-0.180014
-0.180015
-0.180016
-0.180018
-0.180019
-0.180021
-0.180022
-0.180024
-0.180025
-0.180026
-0.180027
-0.180028
-0.180029
-0.180029
-0.18003
-0.180031
-0.180032
-0.180033
-0.180033
-0.180033
-0.180034
-0.180034
-0.180035
-0.180035
-0.180035
-0.180035
-0.180035
-0.180035
-0.199618
-0.199619
-0.19962
-0.199621
-0.199622
-0.199624
-0.199625
-0.199626
-0.199628
-0.199629
-0.19963
-0.199632
-0.199633
-0.199635
-0.199636
-0.199638
-0.199639
-0.199641
-0.199642
-0.199643
-0.199644
-0.199645
-0.199646
-0.199647
-0.199648
-0.199649
-0.199649
-0.19965
-0.199651
-0.199651
-0.199652
-0.199652
-0.199652
-0.199653
-0.199653
-0.199653
-0.199653
-0.199653
-0.199653
-0.199654
-0.219238
-0.219239
-0.21924
-0.219241
-0.219242
-0.219244
-0.219245
-0.219246
-0.219247
-0.219249
-0.21925
-0.219252
-0.219253
-0.219255
-0.219256
-0.219257
-0.219259
-0.21926
-0.219261
-0.219262
-0.219263
-0.219264
-0.219265
-0.219266
-0.219267
-0.219268
-0.219268
-0.219269
-0.219269
-0.21927
-0.21927
-0.219271
-0.219271
-0.219272
-0.219272
-0.219272
-0.219272
-0.219272
-0.219273
-0.219273
-0.238858
-0.238859
-0.23886
-0.238861
-0.238862
-0.238863
-0.238865
-0.238866
-0.238867
-0.238868
-0.23887
-0.238871
-0.238873
-0.238874
-0.238875
-0.238877
-0.238878
-0.238879
-0.23888
-0.238881
-0.238882
-0.238883
-0.238884
-0.238885
-0.238886
-0.238887
-0.238887
-0.238888
-0.238888
-0.238889
-0.238889
-0.23889
-0.23889
-0.23889
-0.238891
-0.238891
-0.238891
-0.238891
-0.238892
-0.238892
-0.258478
-0.258479
-0.25848
-0.258481
-0.258482
-0.258483
-0.258484
-0.258485
-0.258487
-0.258488
-0.258489
-0.258491
-0.258492
-0.258494
-0.258495
-0.258496
-0.258497
-0.258498
-0.258499
-0.2585
-0.258501
-0.258502
-0.258503
-0.258504
-0.258505
-0.258506
-0.258506
-0.258507
-0.258507
-0.258508
-0.258508
-0.258509
-0.258509
-0.258509
-0.258509
-0.25851
-0.25851
-0.25851
-0.25851
-0.25851
-0.278097
-0.278098
-0.278099
-0.2781
-0.278102
-0.278103
-0.278104
-0.278105
-0.278106
-0.278108
-0.278109
-0.27811
-0.278112
-0.278113
-0.278114
-0.278115
-0.278116
-0.278118
-0.278119
-0.27812
-0.278121
-0.278122
-0.278123
-0.278123
-0.278124
-0.278125
-0.278125
-0.278126
-0.278126
-0.278127
-0.278127
-0.278127
-0.278128
-0.278128
-0.278128
-0.278129
-0.278129
-0.278129
-0.278129
-0.278129
-0.297716
-0.297717
-0.297719
-0.29772
-0.297721
-0.297722
-0.297723
-0.297725
-0.297726
-0.297727
-0.297729
-0.29773
-0.297731
-0.297732
-0.297733
-0.297735
-0.297736
-0.297737
-0.297738
-0.297739
-0.29774
-0.297741
-0.297742
-0.297742
-0.297743
-0.297744
-0.297744
-0.297745
-0.297745
-0.297746
-0.297746
-0.297746
-0.297747
-0.297748
-0.297748
-0.297748
-0.297749
-0.297749
-0.297749
-0.297749
-0.317336
-0.317337
-0.317338
-0.317339
-0.31734
-0.317342
-0.317343
-0.317344
-0.317346
-0.317347
-0.317348
-0.317349
-0.31735
-0.317351
-0.317352
-0.317354
-0.317355
-0.317356
-0.317357
-0.317358
-0.317359
-0.317359
-0.31736
-0.317361
-0.317362
-0.317363
-0.317364
-0.317364
-0.317365
-0.317365
-0.317366
-0.317366
-0.317367
-0.317368
-0.317368
-0.317368
-0.317368
-0.317368
-0.317369
-0.317369
-0.336955
-0.336956
-0.336957
-0.336958
-0.33696
-0.336961
-0.336962
-0.336964
-0.336965
-0.336966
-0.336967
-0.336968
-0.336969
-0.33697
-0.336971
-0.336972
-0.336973
-0.336975
-0.336975
-0.336976
-0.336977
-0.336978
-0.336979
-0.33698
-0.336981
-0.336982
-0.336983
-0.336983
-0.336984
-0.336985
-0.336986
-0.336986
-0.336987
-0.336987
-0.336988
-0.336988
-0.336988
-0.336988
-0.336988
-0.336988
-0.356574
-0.356575
-0.356577
-0.356578
-0.356579
-0.35658
-0.356582
-0.356583
-0.356584
-0.356585
-0.356586
-0.356587
-0.356588
-0.356589
-0.35659
-0.356591
-0.356592
-0.356593
-0.356594
-0.356595
-0.356596
-0.356597
-0.356598
-0.356599
-0.3566
-0.356601
-0.356602
-0.356603
-0.356603
-0.356604
-0.356605
-0.356606
-0.356607
-0.356607
-0.356607
-0.356608
-0.356608
-0.356608
-0.356608
-0.356608
-0.376194
-0.376195
-0.376196
-0.376197
-0.376199
-0.3762
-0.376201
-0.376202
-0.376203
-0.376204
-0.376205
-0.376206
-0.376207
-0.376208
-0.376209
-0.37621
-0.376211
-0.376212
-0.376213
-0.376214
-0.376215
-0.376216
-0.376217
-0.376218
-0.376219
-0.37622
-0.376221
-0.376222
-0.376223
-0.376224
-0.376225
-0.376226
-0.376226
-0.376227
-0.376228
-0.376228
-0.376228
-0.376228
-0.376228
-0.376229
-0.395814
-0.395815
-0.395816
-0.395817
-0.395818
-0.395819
-0.39582
-0.395821
-0.395822
-0.395823
-0.395824
-0.395826
-0.395827
-0.395828
-0.395828
-0.395829
-0.39583
-0.395831
-0.395832
-0.395833
-0.395834
-0.395835
-0.395836
-0.395837
-0.395838
-0.395839
-0.39584
-0.395842
-0.395843
-0.395844
-0.395845
-0.395846
-0.395847
-0.395848
-0.395848
-0.395849
-0.395849
-0.395849
-0.395849
-0.39585
-0.415433
-0.415434
-0.415435
-0.415436
-0.415437
-0.415438
-0.415439
-0.41544
-0.415442
-0.415443
-0.415444
-0.415445
-0.415446
-0.415446
-0.415447
-0.415448
-0.415449
-0.41545
-0.415451
-0.415452
-0.415453
-0.415454
-0.415455
-0.415456
-0.415457
-0.415459
-0.41546
-0.415462
-0.415463
-0.415464
-0.415465
-0.415466
-0.415467
-0.415468
-0.415469
-0.415469
-0.41547
-0.41547
-0.41547
-0.41547
-0.435053
-0.435054
-0.435055
-0.435056
-0.435057
-0.435058
-0.435059
-0.43506
-0.435061
-0.435062
-0.435063
-0.435064
-0.435064
-0.435065
-0.435066
-0.435067
-0.435068
-0.435069
-0.43507
-0.435071
-0.435073
-0.435074
-0.435075
-0.435076
-0.435078
-0.435079
-0.435081
-0.435082
-0.435083
-0.435084
-0.435086
-0.435087
-0.435088
-0.435088
-0.435089
-0.435089
-0.43509
-0.435091
-0.435091
-0.435091
-0.454673
-0.454673
-0.454674
-0.454675
-0.454676
-0.454677
-0.454678
-0.454679
-0.45468
-0.454681
-0.454682
-0.454683
-0.454683
-0.454684
-0.454685
-0.454687
-0.454688
-0.454689
-0.45469
-0.454691
-0.454692
-0.454693
-0.454695
-0.454696
-0.454698
-0.454699
-0.454701
-0.454702
-0.454703
-0.454705
-0.454706
-0.454707
-0.454708
-0.454708
-0.454709
-0.45471
-0.454711
-0.454711
-0.454711
-0.454711
-0.474292
-0.474293
-0.474293
-0.474294
-0.474295
-0.474296
-0.474297
-0.474298
-0.474299
-0.4743
-0.474301
-0.474302
-0.474303
-0.474304
-0.474305
-0.474306
-0.474307
-0.474308
-0.474309
-0.474311
-0.474312
-0.474313
-0.474315
-0.474316
-0.474318
-0.474319
-0.474321
-0.474322
-0.474324
-0.474325
-0.474326
-0.474327
-0.474328
-0.474328
-0.47433
-0.47433
-0.474331
-0.474331
-0.474331
-0.474332
-0.493911
-0.493912
-0.493913
-0.493914
-0.493915
-0.493916
-0.493917
-0.493918
-0.493918
-0.493919
-0.49392
-0.493921
-0.493923
-0.493924
-0.493925
-0.493926
-0.493927
-0.493928
-0.493929
-0.49393
-0.493932
-0.493933
-0.493935
-0.493936
-0.493938
-0.493939
-0.493941
-0.493942
-0.493944
-0.493945
-0.493946
-0.493947
-0.493948
-0.493949
-0.49395
-0.49395
-0.493951
-0.493951
-0.493952
-0.493952
-0.513531
-0.513531
-0.513532
-0.513533
-0.513534
-0.513535
-0.513536
-0.513537
-0.513538
-0.513539
-0.51354
-0.513541
-0.513542
-0.513543
-0.513544
-0.513545
-0.513546
-0.513548
-0.513549
-0.51355
-0.513552
-0.513554
-0.513555
-0.513557
-0.513558
-0.51356
-0.513561
-0.513563
-0.513564
-0.513565
-0.513566
-0.513567
-0.513568
-0.513569
-0.51357
-0.51357
-0.513571
-0.513571
-0.513571
-0.513571
-0.53315
-0.533151
-0.533152
-0.533153
-0.533154
-0.533155
-0.533156
-0.533156
-0.533158
-0.533159
-0.53316
-0.533161
-0.533162
-0.533163
-0.533164
-0.533166
-0.533167
-0.533168
-0.53317
-0.533171
-0.533173
-0.533174
-0.533176
-0.533177
-0.533179
-0.53318
-0.533182
-0.533183
-0.533184
-0.533185
-0.533186
-0.533187
-0.533188
-0.533189
-0.53319
-0.53319
-0.533191
-0.533191
-0.533191
-0.533191
-0.552769
-0.55277
-0.552771
-0.552772
-0.552773
-0.552774
-0.552775
-0.552776
-0.552777
-0.552778
-0.55278
-0.552781
-0.552782
-0.552783
-0.552784
-0.552786
-0.552787
-0.552789
-0.552791
-0.552792
-0.552794
-0.552795
-0.552796
-0.552798
-0.552799
-0.5528
-0.552802
-0.552803
-0.552804
-0.552805
-0.552806
-0.552808
-0.552808
-0.552809
-0.55281
-0.55281
-0.552811
-0.552811
-0.552811
-0.552811
-0.572389
-0.572389
-0.57239
-0.572391
-0.572392
-0.572393
-0.572394
-0.572395
-0.572397
-0.572398
-0.572399
-0.5724
-0.572402
-0.572403
-0.572405
-0.572406
-0.572408
-0.572409
-0.572411
-0.572412
-0.572414
-0.572415
-0.572417
-0.572418
-0.572419
-0.572421
-0.572422
-0.572423
-0.572424
-0.572426
-0.572427
-0.572428
-0.572428
-0.572429
-0.57243
-0.572431
-0.572431
-0.572431
-0.572431
-0.572431
-0.592008
-0.592008
-0.592009
-0.59201
-0.592011
-0.592012
-0.592014
-0.592015
-0.592016
-0.592017
-0.592018
-0.59202
-0.592021
-0.592023
-0.592024
-0.592026
-0.592028
-0.592029
-0.592031
-0.592032
-0.592034
-0.592036
-0.592037
-0.592039
-0.59204
-0.592041
-0.592042
-0.592043
-0.592045
-0.592046
-0.592047
-0.592048
-0.592049
-0.59205
-0.592051
-0.592051
-0.592051
-0.592052
-0.592052
-0.592052
-0.611626
-0.611627
-0.611628
-0.611629
-0.61163
-0.611631
-0.611633
-0.611634
-0.611635
-0.611636
-0.611637
-0.611639
-0.61164
-0.611642
-0.611644
-0.611646
-0.611647
-0.611649
-0.611651
-0.611653
-0.611655
-0.611656
-0.611658
-0.611659
-0.61166
-0.611662
-0.611663
-0.611664
-0.611666
-0.611667
-0.611668
-0.611669
-0.61167
-0.611671
-0.611671
-0.611672
-0.611672
-0.611673
-0.611673
-0.611673
-0.631244
-0.631245
-0.631246
-0.631247
-0.631249
-0.63125
-0.631251
-0.631252
-0.631253
-0.631255
-0.631256
-0.631258
-0.63126
-0.631262
-0.631263
-0.631265
-0.631267
-0.631269
-0.631271
-0.631273
-0.631275
-0.631277
-0.631278
-0.63128
-0.631281
-0.631283
-0.631284
-0.631286
-0.631287
-0.631288
-0.631289
-0.63129
-0.631291
-0.631292
-0.631293
-0.631294
-0.631294
-0.631295
-0.631295
-0.631295
-0.650862
-0.650863
-0.650864
-0.650865
-0.650866
-0.650868
-0.650869
-0.65087
-0.650872
-0.650873
-0.650875
-0.650877
-0.650879
-0.650881
-0.650883
-0.650885
-0.650887
-0.650889
-0.650891
-0.650894
-0.650896
-0.650897
-0.650899
-0.650901
-0.650903
-0.650904
-0.650906
-0.650907
-0.650909
-0.65091
-0.650911
-0.650912
-0.650913
-0.650914
-0.650915
-0.650916
-0.650917
-0.650917
-0.650917
-0.650917
-0.670478
-0.67048
-0.670481
-0.670482
-0.670484
-0.670485
-0.670486
-0.670488
-0.67049
-0.670492
-0.670494
-0.670496
-0.670498
-0.6705
-0.670502
-0.670505
-0.670507
-0.670509
-0.670512
-0.670514
-0.670516
-0.670518
-0.67052
-0.670522
-0.670524
-0.670526
-0.670528
-0.67053
-0.670531
-0.670533
-0.670534
-0.670535
-0.670536
-0.670537
-0.670538
-0.670538
-0.670539
-0.67054
-0.67054
-0.67054
-0.690094
-0.690096
-0.690097
-0.690099
-0.6901
-0.690102
-0.690103
-0.690105
-0.690107
-0.69011
-0.690112
-0.690114
-0.690117
-0.690119
-0.690122
-0.690124
-0.690127
-0.690129
-0.690132
-0.690134
-0.690137
-0.690139
-0.690141
-0.690144
-0.690146
-0.690148
-0.69015
-0.690152
-0.690154
-0.690155
-0.690157
-0.690157
-0.690158
-0.69016
-0.690161
-0.690161
-0.690162
-0.690163
-0.690163
-0.690163
-0.70971
-0.709711
-0.709713
-0.709714
-0.709716
-0.709718
-0.70972
-0.709722
-0.709724
-0.709727
-0.70973
-0.709732
-0.709735
-0.709738
-0.709741
-0.709744
-0.709747
-0.70975
-0.709752
-0.709755
-0.709758
-0.70976
-0.709763
-0.709766
-0.709768
-0.70977
-0.709772
-0.709774
-0.709776
-0.709778
-0.709779
-0.70978
-0.709782
-0.709783
-0.709784
-0.709785
-0.709786
-0.709786
-0.709786
-0.709786
-0.729324
-0.729326
-0.729327
-0.729329
-0.729331
-0.729333
-0.729335
-0.729338
-0.729341
-0.729344
-0.729347
-0.72935
-0.729353
-0.729356
-0.72936
-0.729363
-0.729366
-0.729369
-0.729372
-0.729375
-0.729378
-0.729382
-0.729384
-0.729387
-0.72939
-0.729392
-0.729395
-0.729397
-0.729399
-0.729401
-0.729402
-0.729404
-0.729406
-0.729407
-0.729408
-0.729409
-0.72941
-0.72941
-0.72941
-0.729411
-0.748938
-0.748939
-0.748941
-0.748943
-0.748945
-0.748948
-0.748951
-0.748954
-0.748957
-0.74896
-0.748963
-0.748967
-0.748971
-0.748975
-0.748978
-0.748982
-0.748986
-0.748989
-0.748993
-0.748996
-0.749
-0.749003
-0.749006
-0.749009
-0.749012
-0.749015
-0.749018
-0.74902
-0.749022
-0.749024
-0.749026
-0.749028
-0.74903
-0.749031
-0.749032
-0.749033
-0.749034
-0.749034
-0.749035
-0.749035
-0.76855
-0.768552
-0.768554
-0.768556
-0.768559
-0.768562
-0.768565
-0.768569
-0.768572
-0.768576
-0.76858
-0.768584
-0.768588
-0.768592
-0.768596
-0.768601
-0.768605
-0.768609
-0.768613
-0.768617
-0.768621
-0.768625
-0.768628
-0.768631
-0.768635
-0.768638
-0.768641
-0.768643
-0.768646
-0.768648
-0.768651
-0.768653
-0.768654
-0.768656
-0.768658
-0.768659
-0.768659
-0.76866
-0.76866
-0.76866
-0.788161
-0.788163
-0.788166
-0.788169
-0.788172
-0.788175
-0.788179
-0.788183
-0.788187
-0.788191
-0.788195
-0.7882
-0.788205
-0.788209
-0.788214
-0.788219
-0.788224
-0.788228
-0.788233
-0.788238
-0.788242
-0.788246
-0.78825
-0.788254
-0.788258
-0.788261
-0.788264
-0.788267
-0.78827
-0.788273
-0.788276
-0.788278
-0.78828
-0.788282
-0.788284
-0.788285
-0.788286
-0.788286
-0.788287
-0.788287
-0.807771
-0.807774
-0.807777
-0.80778
-0.807783
-0.807787
-0.807791
-0.807795
-0.8078
-0.807805
-0.80781
-0.807815
-0.807821
-0.807826
-0.807831
-0.807837
-0.807842
-0.807848
-0.807853
-0.807858
-0.807863
-0.807868
-0.807873
-0.807877
-0.807882
-0.807885
-0.807889
-0.807892
-0.807896
-0.807899
-0.807902
-0.807905
-0.807907
-0.807909
-0.807911
-0.807912
-0.807914
-0.807914
-0.807915
-0.807915
-0.82738
-0.827383
-0.827386
-0.827389
-0.827393
-0.827397
-0.827402
-0.827407
-0.827412
-0.827418
-0.827424
-0.82743
-0.827436
-0.827442
-0.827448
-0.827454
-0.82746
-0.827467
-0.827473
-0.827478
-0.827484
-0.82749
-0.827495
-0.827501
-0.827505
-0.82751
-0.827514
-0.827518
-0.827522
-0.827526
-0.827529
-0.827532
-0.827535
-0.827538
-0.82754
-0.827541
-0.827543
-0.827543
-0.827544
-0.827544
-0.846987
-0.84699
-0.846993
-0.846997
-0.847002
-0.847006
-0.847012
-0.847017
-0.847023
-0.84703
-0.847036
-0.847043
-0.84705
-0.847057
-0.847064
-0.847071
-0.847078
-0.847085
-0.847092
-0.847099
-0.847106
-0.847112
-0.847118
-0.847124
-0.84713
-0.847135
-0.84714
-0.847145
-0.84715
-0.847154
-0.847158
-0.847162
-0.847165
-0.847168
-0.84717
-0.847172
-0.847174
-0.847175
-0.847175
-0.847176
-0.866592
-0.866596
-0.866599
-0.866604
-0.866608
-0.866614
-0.86662
-0.866626
-0.866633
-0.86664
-0.866648
-0.866655
-0.866663
-0.866671
-0.866679
-0.866687
-0.866695
-0.866703
-0.866711
-0.866719
-0.866727
-0.866735
-0.866742
-0.866748
-0.866755
-0.866762
-0.866768
-0.866773
-0.866779
-0.866784
-0.866788
-0.866793
-0.866796
-0.866799
-0.866802
-0.866805
-0.866806
-0.866808
-0.866809
-0.866809
-0.886196
-0.886199
-0.886203
-0.886208
-0.886213
-0.886219
-0.886226
-0.886233