/*--------------------------------*- C++ -*----------------------------------*\
  =========                 |
  \\      /  F ield         | OpenFOAM: The Open Source CFD Toolbox
   \\    /   O peration     | Website:  https://openfoam.org
    \\  /    A nd           | Version:  8
     \\/     M anipulation  |
\*---------------------------------------------------------------------------*/
FoamFile
{
    version     2.0;
    format      ascii;
    class       surfaceScalarField;
    location    "0.05";
    object      phi;
}
// * * * * * * * * * * * * * * * * * * * * * * * * * * * * * * * * * * * * * //

dimensions      [0 3 -1 0 0 0 0];

internalField   nonuniform List<scalar> 
18095
(
1.81332e-08
-1.72931e-07
1.54798e-07
2.31265e-08
-1.94933e-07
1.8994e-07
2.02341e-08
-2.04774e-07
2.07666e-07
1.14207e-08
-2.11826e-07
2.20639e-07
3.38355e-13
-2.15536e-07
2.26957e-07
-1.14206e-08
-2.15538e-07
2.26958e-07
-2.02338e-08
-2.11828e-07
2.20641e-07
-2.31276e-08
-2.04773e-07
2.07667e-07
-1.81348e-08
-1.9493e-07
1.89937e-07
-1.72931e-07
1.54796e-07
1.40324e-08
-1.86964e-07
1.58465e-08
-1.96747e-07
1.34704e-08
-2.02398e-07
7.83066e-09
-2.06186e-07
1.0966e-12
-2.07707e-07
-7.8294e-09
-2.07707e-07
-1.34707e-08
-2.06186e-07
-1.58469e-08
-2.02397e-07
-1.40319e-08
-1.96745e-07
-1.86962e-07
7.1759e-09
-1.9414e-07
9.25468e-09
-1.98826e-07
7.77404e-09
-2.00917e-07
4.18326e-09
-2.02595e-07
-3.56046e-13
-2.03523e-07
-4.18403e-09
-2.03523e-07
-7.77483e-09
-2.02596e-07
-9.25523e-09
-2.00917e-07
-7.17544e-09
-1.98825e-07
-1.94138e-07
3.69859e-09
-1.97838e-07
4.6643e-09
-1.99792e-07
4.10145e-09
-2.00354e-07
2.32437e-09
-2.00818e-07
-4.09558e-13
-2.01198e-07
-2.32536e-09
-2.01198e-07
-4.10211e-09
-2.00819e-07
-4.66411e-09
-2.00355e-07
-3.69902e-09
-1.9979e-07
-1.97837e-07
2.16181e-09
2.37026e-09
2.01583e-09
1.19746e-09
-9.10717e-13
-1.19941e-09
-2.01819e-09
-2.37289e-09
-2.16306e-09
-3.00327e-08
-2.00539e-07
2.30571e-07
-3.41958e-08
-1.97256e-07
2.01419e-07
-2.6366e-08
-2.00454e-07
1.92624e-07
-1.56472e-08
-2.00274e-07
1.89556e-07
2.69375e-12
-2.01432e-07
1.85782e-07
1.56494e-08
-2.01435e-07
1.85788e-07
2.63677e-08
-2.00294e-07
1.89575e-07
3.42087e-08
-2.00488e-07
1.92647e-07
3.00518e-08
-1.97276e-07
2.01433e-07
-2.00553e-07
2.30605e-07
-8.56247e-09
-1.91976e-07
-1.48593e-08
-1.90959e-07
-1.2755e-08
-2.02558e-07
-6.03262e-09
-2.06997e-07
5.20732e-12
-2.0747e-07
6.04384e-09
-2.07474e-07
1.27598e-08
-2.0701e-07
1.48571e-08
-2.02585e-07
8.56357e-09
-1.90982e-07
-1.91989e-07
-9.56476e-09
-1.82411e-07
-9.71984e-09
-1.90804e-07
-8.32333e-09
-2.03955e-07
-5.66356e-09
-2.09657e-07
3.1115e-11
-2.13165e-07
5.72272e-09
-2.13165e-07
8.37275e-09
-2.0966e-07
9.74557e-09
-2.03958e-07
9.57605e-09
-1.90813e-07
-1.82413e-07
-6.68367e-09
-1.75728e-07
-8.1585e-09
-1.89329e-07
-8.62656e-09
-2.03487e-07
-4.85087e-09
-2.13432e-07
9.99312e-12
-2.18026e-07
4.8755e-09
-2.18031e-07
8.65776e-09
-2.13442e-07
8.19928e-09
-2.035e-07
6.70484e-09
-1.89318e-07
-1.75708e-07
-2.09296e-08
-2.03191e-08
-1.61395e-08
-8.93224e-09
-1.14429e-12
8.92664e-09
1.61256e-08
2.02933e-08
2.09124e-08
2.9514e-08
-1.6383e-07
1.34317e-07
3.29739e-08
-1.98627e-07
1.95167e-07
2.69116e-08
-2.08635e-07
2.14698e-07
1.58905e-08
-2.13928e-07
2.2495e-07
1.74582e-10
-2.14757e-07
2.30473e-07
-1.55355e-08
-2.14758e-07
2.30468e-07
-2.65444e-08
-2.13976e-07
2.24985e-07
-3.26236e-08
-2.08679e-07
2.14759e-07
-2.87839e-08
-1.9875e-07
1.9491e-07
-1.64058e-07
1.35274e-07
1.16192e-08
-1.7545e-07
1.54363e-08
-2.02444e-07
1.305e-08
-2.06249e-07
7.77867e-09
-2.08657e-07
7.53398e-11
-2.07054e-07
-7.61503e-09
-2.07068e-07
-1.28865e-08
-2.08704e-07
-1.52636e-08
-2.06302e-07
-1.14913e-08
-2.02522e-07
-1.75549e-07
6.43969e-09
-1.81889e-07
5.93337e-09
-2.01938e-07
5.83628e-09
-2.06152e-07
2.21673e-09
-2.05038e-07
5.99378e-11
-2.04897e-07
-2.09317e-09
-2.04915e-07
-5.73045e-09
-2.05067e-07
-5.84338e-09
-2.06189e-07
-6.3932e-09
-2.01972e-07
-1.81942e-07
9.05502e-09
-1.90944e-07
4.63105e-09
-1.97514e-07
5.77784e-09
-2.07299e-07
2.68981e-09
-2.0195e-07
3.55846e-11
-2.02243e-07
-2.62636e-09
-2.02253e-07
-5.72548e-09
-2.01968e-07
-4.59408e-09
-2.07321e-07
-9.03693e-09
-1.9753e-07
-1.90979e-07
3.96269e-08
4.35319e-08
2.88573e-08
1.64633e-08
2.59381e-12
-1.64619e-08
-2.88545e-08
-4.35284e-08
-3.96255e-08
2.195e-12
-2.2319e-13
-1.97181e-12
3.92634e-12
-2.95575e-13
3.90625e-12
-5.94633e-13
3.90023e-12
-8.59578e-13
3.86721e-12
-1.07674e-12
3.7974e-12
-1.24726e-12
3.69096e-12
-1.36023e-12
3.5557e-12
-1.40948e-12
3.40717e-12
-1.39482e-12
-1.32172e-12
3.26767e-12
1.56646e-12
-2.24898e-13
-1.41192e-12
2.67385e-12
1.57498e-13
2.85154e-12
2.26022e-13
3.02036e-12
2.72716e-13
3.17212e-12
2.98963e-13
3.30229e-12
2.99295e-13
3.41416e-12
2.76205e-13
3.51407e-12
2.34176e-13
3.60777e-12
1.78405e-13
1.14851e-13
3.66942e-12
3.16241e-12
-5.58334e-13
-2.95534e-12
2.69966e-12
-1.05877e-12
2.89142e-12
-1.20266e-12
3.03261e-12
-1.3201e-12
3.14154e-12
-1.40387e-12
3.22947e-12
-1.44485e-12
3.30604e-12
-1.43738e-12
3.38295e-12
-1.38351e-12
3.47193e-12
-1.28906e-12
-1.16519e-12
3.59967e-12
1.50845e-12
-5.74508e-13
-1.245e-12
2.44379e-12
-3.39253e-13
2.58739e-12
-4.4043e-13
2.76216e-12
-5.5068e-13
2.95911e-12
-6.58302e-13
3.17037e-12
-7.5598e-13
3.38897e-12
-8.3759e-13
3.60558e-12
-8.97098e-13
3.81259e-12
-9.31985e-13
-9.43656e-13
3.99917e-12
2.05744e-12
-8.41463e-13
-1.79714e-12
1.94571e-12
-1.08292e-12
2.16886e-12
-1.17394e-12
2.40799e-12
-1.25091e-12
2.67595e-12
-1.31122e-12
2.96815e-12
-1.35124e-12
3.2714e-12
-1.37259e-12
3.57063e-12
-1.37914e-12
3.85146e-12
-1.37536e-12
-1.36571e-12
4.10433e-12
1.38156e-12
-1.12709e-12
-9.77577e-13
1.49922e-12
-1.11535e-12
1.7573e-12
-1.19897e-12
2.08389e-12
-1.27071e-12
2.45439e-12
-1.32781e-12
2.84453e-12
-1.37613e-12
3.23049e-12
-1.41987e-12
3.59136e-12
-1.46277e-12
3.91109e-12
-1.50679e-12
-1.55101e-12
4.17552e-12
1.46343e-12
-1.67083e-12
-1.0775e-12
1.14771e-12
-1.75806e-12
1.48756e-12
-1.76888e-12
1.86383e-12
-1.76656e-12
2.26357e-12
-1.75799e-12
2.66504e-12
-1.75179e-12
3.04957e-12
-1.75663e-12
3.40317e-12
-1.77626e-12
3.71778e-12
-1.80983e-12
-1.85208e-12
3.9901e-12
1.12487e-12
-2.19446e-12
-8.55721e-13
1.07045e-12
-2.23503e-12
1.49047e-12
-2.16957e-12
1.90338e-12
-2.10808e-12
2.29335e-12
-2.05825e-12
2.65142e-12
-2.02773e-12
2.97468e-12
-2.01971e-12
3.2672e-12
-2.03289e-12
3.53868e-12
-2.06151e-12
-2.0962e-12
3.80076e-12
9.40271e-13
-2.52872e-12
-8.80213e-13
1.32348e-12
-2.58628e-12
1.74023e-12
-2.47513e-12
2.10987e-12
-2.39168e-12
2.42309e-12
-2.33094e-12
2.68898e-12
-2.2983e-12
2.9244e-12
-2.28853e-12
3.15167e-12
-2.29451e-12
3.39481e-12
-2.30722e-12
-2.31684e-12
3.67546e-12
7.08484e-13
-2.51093e-12
-7.42693e-13
1.7415e-12
-2.54556e-12
2.07526e-12
-2.48954e-12
2.34082e-12
-2.4617e-12
2.54999e-12
-2.46088e-12
2.724e-12
-2.47435e-12
2.89638e-12
-2.49538e-12
3.09991e-12
-2.51233e-12
3.36188e-12
-2.51651e-12
-2.50303e-12
3.70104e-12
5.64664e-13
-2.25869e-12
-4.62606e-13
1.95157e-12
-2.29362e-12
2.16812e-12
-2.38192e-12
2.34042e-12
-2.47264e-12
2.48521e-12
-2.56537e-12
2.63665e-12
-2.64645e-12
2.82675e-12
-2.70482e-12
3.08548e-12
-2.73528e-12
3.42901e-12
-2.73195e-12
-2.70052e-12
3.86197e-12
4.42347e-13
-2.15253e-12
5.0878e-14
1.62849e-12
-2.20331e-12
1.79737e-12
-2.43231e-12
1.96549e-12
-2.63355e-12
2.1573e-12
-2.80131e-12
2.39976e-12
-2.92599e-12
2.71298e-12
-3.00161e-12
3.10391e-12
-3.0277e-12
3.57467e-12
-3.01415e-12
-2.97231e-12
4.11121e-12
2.52962e-13
-2.5259e-12
6.02987e-13
7.13624e-13
-2.61957e-12
9.81556e-13
-2.90491e-12
1.28991e-12
-3.13211e-12
1.6597e-12
-3.29987e-12
2.09787e-12
-3.40558e-12
2.60291e-12
-3.45466e-12
3.16474e-12
-3.45594e-12
3.76468e-12
-3.42431e-12
-3.37613e-12
4.37859e-12
-1.96805e-13
-3.43471e-12
1.1321e-12
-4.33001e-13
-3.60471e-12
6.6976e-14
-3.80183e-12
6.19914e-13
-3.94638e-12
1.23428e-12
-4.0327e-12
1.89981e-12
-4.06712e-12
2.59574e-12
-4.06059e-12
3.29752e-12
-4.02554e-12
3.98048e-12
-3.97521e-12
-3.92253e-12
4.62335e-12
-8.73414e-13
-4.5905e-12
1.56686e-12
-1.24662e-12
-4.78593e-12
-5.06164e-13
-4.83053e-12
2.78187e-13
-4.84825e-12
1.0965e-12
-4.83241e-12
1.92573e-12
-4.79408e-12
2.73676e-12
-4.74165e-12
3.50358e-12
-4.68327e-12
4.20793e-12
-4.62371e-12
-4.56704e-12
4.84288e-12
-1.68396e-12
-5.50997e-12
2.00167e-12
-1.4322e-12
-5.69174e-12
-5.56518e-13
-5.64085e-12
3.43715e-13
-5.58312e-12
1.25063e-12
-5.5258e-12
2.13599e-12
-5.46973e-12
2.97291e-12
-5.41563e-12
3.74307e-12
-5.36308e-12
4.44283e-12
-5.30986e-12
-5.24936e-12
5.07942e-12
-2.41327e-12
-5.97834e-12
2.61981e-12
-1.2071e-12
-6.11982e-12
-3.34881e-13
-6.10704e-12
5.71246e-13
-6.09658e-12
1.47545e-12
-6.08868e-12
2.35119e-12
-6.08079e-12
3.17999e-12
-6.06779e-12
3.95569e-12
-6.04517e-12
4.68164e-12
-6.00474e-12
-5.93822e-12
5.37064e-12
-2.97337e-12
-6.20284e-12
3.49052e-12
-1.15579e-12
-6.32878e-12
-2.99379e-13
-6.46459e-12
6.00124e-13
-6.57359e-12
1.50632e-12
-6.66034e-12
2.39855e-12
-6.72386e-12
3.2685e-12
-6.76108e-12
4.11312e-12
-6.76503e-12
4.93641e-12
-6.73147e-12
-6.65361e-12
5.7407e-12
-3.4684e-12
-6.64813e-12
4.52805e-12
-1.68638e-12
-6.81345e-12
-7.37643e-13
-7.06708e-12
2.49679e-13
-7.26369e-12
1.25094e-12
-7.41136e-12
2.25327e-12
-7.5122e-12
3.25082e-12
-7.56671e-12
4.24166e-12
-7.57366e-12
5.22133e-12
-7.53327e-12
-7.44687e-12
6.18165e-12
-4.10993e-12
-7.594e-12
5.53838e-12
-2.70882e-12
-7.81953e-12
-1.53327e-12
-8.06952e-12
-3.45997e-13
-8.25679e-12
8.44611e-13
-8.39092e-12
2.03449e-12
-8.47426e-12
3.22003e-12
-8.50916e-12
4.39571e-12
-8.49946e-12
5.54855e-12
-8.4476e-12
-8.35495e-12
6.6547e-12
-4.99365e-12
-8.90234e-12
6.41617e-12
-3.7092e-12
-9.15982e-12
-2.28898e-12
-9.31181e-12
-8.81898e-13
-9.43451e-12
5.11486e-13
-9.51861e-12
1.89244e-12
-9.56537e-12
3.25716e-12
-9.5758e-12
4.59404e-12
-9.55306e-12
5.88601e-12
-9.49963e-12
-9.41141e-12
7.10711e-12
-5.99411e-12
-1.02374e-11
7.26239e-12
-4.34328e-12
-1.04706e-11
-2.77183e-12
-1.05753e-11
-1.21629e-12
-1.06693e-11
3.24244e-13
-1.07391e-11
1.84801e-12
-1.07823e-11
3.34606e-12
-1.07976e-11
4.80216e-12
-1.07848e-11
6.19836e-12
-1.07427e-11
-1.06653e-11
7.5195e-12
-6.88933e-12
-1.15026e-11
8.26153e-12
-4.77207e-12
-1.17e-11
-3.14058e-12
-1.1886e-11
-1.49646e-12
-1.20345e-11
1.51021e-13
-1.21514e-11
1.7869e-12
-1.22324e-11
3.39394e-12
-1.22775e-11
4.95661e-12
-1.2286e-11
6.46582e-12
-1.22547e-11
-1.21727e-11
7.91801e-12
-7.64559e-12
-1.29987e-11
9.49409e-12
-5.47894e-12
-1.32263e-11
-3.74205e-12
-1.35334e-11
-1.96335e-12
-1.37666e-11
-1.72626e-13
-1.39371e-11
1.60634e-12
-1.40511e-11
3.35618e-12
-1.4112e-11
5.06934e-12
-1.41191e-11
6.74838e-12
-1.40672e-11
-1.39435e-11
8.40277e-12
-8.49521e-12
-1.50805e-11
1.08449e-11
-6.68207e-12
-1.54043e-11
-4.67313e-12
-1.57412e-11
-2.64746e-12
-1.59835e-11
-6.29975e-13
-1.61477e-11
1.36169e-12
-1.6243e-11
3.32316e-12
-1.62728e-11
5.26101e-12
-1.62331e-11
7.18903e-12
-1.61176e-11
-1.59143e-11
9.12251e-12
-9.73128e-12
-1.76731e-11
1.21757e-11
-8.01282e-12
-1.80971e-11
-5.64021e-12
-1.83368e-11
-3.30551e-12
-1.85049e-11
-1.01251e-12
-1.86079e-11
1.24405e-12
-1.86456e-11
3.47828e-12
-1.86125e-11
5.70952e-12
-1.85012e-11
7.95078e-12
-1.8303e-11
-1.80103e-11
1.02064e-11
-1.13669e-11
-2.02953e-11
1.35659e-11
-8.96027e-12
-2.07482e-11
-6.30958e-12
-2.09044e-11
-3.71627e-12
-2.10233e-11
-1.16345e-12
-2.10923e-11
1.37393e-12
-2.10972e-11
3.91853e-12
-2.10235e-11
6.48366e-12
-2.08623e-11
9.06677e-12
-2.06078e-11
-2.02565e-11
1.16452e-11
-1.31167e-11
-2.26188e-11
1.52928e-11
-9.56848e-12
-2.30461e-11
-6.78081e-12
-2.32925e-11
-3.99124e-12
-2.34889e-11
-1.18178e-12
-2.36157e-11
1.66586e-12
-2.36542e-11
4.55852e-12
-2.35937e-11
7.4837e-12
-2.34302e-11
1.04117e-11
-2.31658e-11
-2.28012e-11
1.3295e-11
-1.47453e-11
-2.49677e-11
1.75587e-11
-1.05251e-11
-2.54089e-11
-7.56109e-12
-2.58904e-11
-4.49736e-12
-2.62512e-11
-1.33792e-12
-2.64859e-11
1.90596e-12
-2.65906e-11
5.20638e-12
-2.65677e-11
8.52166e-12
-2.64255e-11
1.18027e-11
-2.61729e-11
-2.58122e-11
1.4997e-11
-1.64134e-11
-2.8076e-11
2.02512e-11
-1.24194e-11
-2.86364e-11
-8.99896e-12
-2.92878e-11
-5.43554e-12
-2.97479e-11
-1.75693e-12
-3.00341e-11
1.99478e-12
-3.01613e-11
5.76886e-12
-3.0146e-11
9.51193e-12
-3.00026e-11
1.31779e-11
-2.974e-11
-2.93565e-11
1.67331e-11
-1.85517e-11
-3.23294e-11
2.30965e-11
-1.49958e-11
-3.30556e-11
-1.08329e-11
-3.36651e-11
-6.57878e-12
-3.40786e-11
-2.26751e-12
-3.43192e-11
2.05374e-12
-3.44062e-11
6.33612e-12
-3.43538e-11
1.0542e-11
-3.41728e-11
1.46482e-11
-3.38631e-11
-3.34158e-11
1.8649e-11
-2.13761e-11
-3.73708e-11
2.6034e-11
-1.7415e-11
-3.81973e-11
-1.24823e-11
-3.86701e-11
-7.54022e-12
-3.89952e-11
-2.61661e-12
-3.91779e-11
2.25589e-12
-3.92241e-11
7.05348e-12
-3.91362e-11
1.17613e-11
-3.89092e-11
1.63803e-11
-3.85358e-11
-3.80027e-11
2.092e-11
-2.46233e-11
-4.2642e-11
2.93806e-11
-1.92927e-11
-4.34755e-11
-1.37776e-11
-4.3968e-11
-8.27097e-12
-4.43304e-11
-2.80182e-12
-4.45513e-11
2.60993e-12
-4.46222e-11
7.95484e-12
-4.45343e-11
1.3236e-11
-4.42776e-11
1.84599e-11
-4.38419e-11
-4.32178e-11
2.36269e-11
-2.79145e-11
-4.81894e-11
3.34805e-11
-2.12481e-11
-4.90481e-11
-1.52203e-11
-4.97782e-11
-9.15242e-12
-5.03155e-11
-3.08541e-12
-5.06547e-11
2.95953e-12
-5.07894e-11
8.9749e-12
-5.07129e-11
1.49589e-11
-5.04203e-11
2.09028e-11
-4.99089e-11
-4.91792e-11
2.67811e-11
-3.12952e-11
-5.47027e-11
3.82911e-11
-2.41457e-11
-5.57069e-11
-1.73615e-11
-5.66693e-11
-1.05064e-11
-5.73517e-11
-3.62383e-12
-5.77654e-11
3.26231e-12
-5.79146e-11
1.01375e-11
-5.7802e-11
1.69828e-11
-5.74318e-11
2.37634e-11
-5.68121e-11
-5.59524e-11
3.0427e-11
-3.52525e-11
-6.26637e-11
4.34555e-11
-2.79744e-11
-6.38919e-11
-2.0083e-11
-6.4872e-11
-1.21582e-11
-6.55458e-11
-4.22167e-12
-6.59236e-11
3.70898e-12
-6.60105e-11
1.16091e-11
-6.5811e-11
1.94378e-11
-6.53346e-11
2.71362e-11
-6.45943e-11
-6.36016e-11
3.46385e-11
-4.01059e-11
-7.17782e-11
4.88577e-11
-3.18755e-11
-7.31713e-11
-2.27702e-11
-7.40576e-11
-1.36672e-11
-7.46688e-11
-4.56931e-12
-7.49922e-11
4.50275e-12
-7.50209e-11
1.35047e-11
-7.47553e-11
2.23717e-11
-7.42034e-11
3.10323e-11
-7.33755e-11
-7.22751e-11
3.94282e-11
-4.562e-11
-8.15057e-11
5.48976e-11
-3.53995e-11
-8.29733e-11
-2.52058e-11
-8.3944e-11
-1.49583e-11
-8.4632e-11
-4.68443e-12
-8.50124e-11
5.56117e-12
-8.50742e-11
1.5701e-11
-8.48182e-11
2.56521e-11
-8.425e-11
3.53483e-11
-8.33716e-11
-8.21731e-11
4.47596e-11
-5.14174e-11
-9.20119e-11
6.20837e-11
-3.92535e-11
-9.35988e-11
-2.7946e-11
-9.48987e-11
-1.64754e-11
-9.58181e-11
-4.93161e-12
-9.63551e-11
6.58153e-12
-9.65146e-11
1.79616e-11
-9.63051e-11
2.91289e-11
-9.57302e-11
4.00418e-11
-9.47825e-11
-9.34398e-11
5.0706e-11
-5.76519e-11
-1.04184e-10
7.04625e-11
-4.44104e-11
-1.06046e-10
-3.16059e-11
-1.0766e-10
-1.86157e-11
-1.08783e-10
-5.56915e-12
-1.09444e-10
7.4149e-12
-1.09666e-10
2.02462e-11
-1.09458e-10
3.28757e-11
-1.08819e-10
4.52946e-11
-1.07732e-10
-1.06168e-10
5.75272e-11
-6.49612e-11
-1.18629e-10
7.97248e-11
-5.08214e-11
-1.20853e-10
-3.60779e-11
-1.2257e-10
-2.12545e-11
-1.23764e-10
-6.45572e-12
-1.24463e-10
8.23858e-12
-1.24681e-10
2.27845e-11
-1.24415e-10
3.71727e-11
-1.23652e-10
5.14121e-11
-1.22367e-10
-1.20534e-10
6.55113e-11
-7.36978e-11
-1.35145e-10
8.98902e-11
-5.76342e-11
-1.37668e-10
-4.08304e-11
-1.39447e-10
-2.40442e-11
-1.40715e-10
-7.32677e-12
-1.41466e-10
9.29513e-12
-1.41687e-10
2.58188e-11
-1.41357e-10
4.22515e-11
-1.40455e-10
5.85869e-11
-1.38956e-10
-1.3684e-10
7.47859e-11
-8.36138e-11
-1.53428e-10
1.01531e-10
-6.46867e-11
-1.56202e-10
-4.58762e-11
-1.58288e-10
-2.70405e-11
-1.59794e-10
-8.21056e-12
-1.60699e-10
1.06053e-11
-1.60975e-10
2.94065e-11
-1.60599e-10
4.81781e-11
-1.59552e-10
6.68688e-11
-1.57822e-10
-1.55398e-10
8.53791e-11
-9.45044e-11
-1.73962e-10
1.15189e-10
-7.2952e-11
-1.77101e-10
-5.18767e-11
-1.79686e-10
-3.06494e-11
-1.81527e-10
-9.31515e-12
-1.82615e-10
1.21012e-11
-1.82938e-10
3.35683e-11
-1.82483e-10
5.50237e-11
-1.81247e-10
7.63582e-11
-1.79234e-10
-1.76446e-10
9.74224e-11
-1.06817e-10
-1.97692e-10
1.30844e-10
-8.32033e-11
-2.0136e-10
-5.9208e-11
-2.04328e-10
-3.49933e-11
-2.06402e-10
-1.06041e-11
-2.07587e-10
1.39124e-11
-2.0788e-10
3.84826e-11
-2.07283e-10
6.29891e-11
-2.05807e-10
8.72753e-11
-2.03469e-10
-2.00273e-10
1.11169e-10
-1.21214e-10
-2.25031e-10
1.48315e-10
-9.49822e-11
-2.29244e-10
-6.7468e-11
-2.32413e-10
-3.97218e-11
-2.34611e-10
-1.17772e-11
-2.3583e-10
1.62902e-11
-2.36061e-10
4.43535e-11
-2.3531e-10
7.22468e-11
-2.33596e-10
9.97929e-11
-2.30933e-10
-2.27315e-10
1.26833e-10
-1.37766e-10
-2.55846e-10
1.67931e-10
-1.07555e-10
-2.60523e-10
-7.62263e-11
-2.6398e-10
-4.45841e-11
-2.66376e-10
-1.27023e-11
-2.67688e-10
1.928e-11
-2.67908e-10
5.11779e-11
-2.67046e-10
8.27973e-11
-2.65116e-10
1.13971e-10
-2.62124e-10
-2.58043e-10
1.44576e-10
-1.56145e-10
-2.90421e-10
1.9036e-10
-1.21273e-10
-2.95608e-10
-8.57733e-11
-2.99582e-10
-4.98186e-11
-3.02311e-10
-1.35837e-11
-3.03795e-10
2.27163e-11
-3.04047e-10
5.88614e-11
-3.0308e-10
9.46616e-11
-3.00905e-10
1.29978e-10
-2.97516e-10
-2.92873e-10
1.64714e-10
-1.76534e-10
-3.29747e-10
2.15889e-10
-1.37053e-10
-3.35632e-10
-9.66472e-11
-3.40144e-10
-5.57445e-11
-3.43206e-10
-1.45917e-11
-3.44854e-10
2.65682e-11
-3.4511e-10
6.75256e-11
-3.43987e-10
1.08119e-10
-3.4149e-10
1.48229e-10
-3.37609e-10
-3.32304e-10
1.87755e-10
-1.99709e-10
-3.7468e-10
2.44485e-10
-1.54989e-10
-3.81376e-10
-1.08858e-10
-3.86315e-10
-6.23235e-11
-3.89667e-10
-1.56188e-11
-3.91457e-10
3.10419e-11
-3.91693e-10
7.74821e-11
-3.90375e-10
1.23563e-10
-3.87503e-10
1.69163e-10
-3.83073e-10
-3.77052e-10
2.14146e-10
-2.26164e-10
-4.25538e-10
2.76574e-10
-1.74657e-10
-4.33028e-10
-1.22241e-10
-4.38511e-10
-6.94749e-11
-4.42267e-10
-1.65664e-11
-4.44279e-10
3.62953e-11
-4.44536e-10
8.89479e-11
-4.43029e-10
1.41249e-10
-4.39757e-10
1.93056e-10
-4.34728e-10
-4.27932e-10
2.44186e-10
-2.55906e-10
-4.82878e-10
3.13128e-10
-1.96557e-10
-4.91226e-10
-1.37252e-10
-4.97552e-10
-7.75209e-11
-5.01899e-10
-1.76014e-11
-5.04243e-10
4.23076e-11
-5.04567e-10
1.02036e-10
-5.0286e-10
1.61414e-10
-4.9913e-10
2.20249e-10
-4.93414e-10
-4.85744e-10
2.78317e-10
-2.89304e-10
-5.48004e-10
3.54864e-10
-2.21918e-10
-5.57412e-10
-1.5466e-10
-5.64676e-10
-8.69023e-11
-5.69669e-10
-1.8907e-11
-5.72363e-10
4.91211e-11
-5.72732e-10
1.16988e-10
-5.70766e-10
1.8447e-10
-5.66493e-10
2.51305e-10
-5.60001e-10
-5.51383e-10
3.17233e-10
-3.27343e-10
-6.22279e-10
4.02061e-10
-2.51196e-10
-6.32861e-10
-1.74703e-10
-6.40995e-10
-9.76945e-11
-6.4662e-10
-2.03954e-11
-6.49653e-10
5.69762e-11
-6.50035e-10
1.34165e-10
-6.47761e-10
2.10862e-10
-6.42888e-10
2.86752e-10
-6.35571e-10
-6.25988e-10
3.61584e-10
-3.7076e-10
-7.06703e-10
4.5539e-10
-2.84209e-10
-7.18428e-10
-1.97353e-10
-7.27563e-10
-1.09854e-10
-7.3393e-10
-2.1942e-11
-7.37365e-10
6.6074e-11
-7.37783e-10
1.53822e-10
-7.3519e-10
2.40905e-10
-7.29676e-10
3.27e-10
-7.2147e-10
-7.10877e-10
4.11947e-10
-4.19833e-10
-8.02637e-10
5.16134e-10
-3.21618e-10
-8.15572e-10
-2.23087e-10
-8.25966e-10
-1.23639e-10
-8.33219e-10
-2.36398e-11
-8.37119e-10
7.64605e-11
-8.37582e-10
1.76167e-10
-8.34625e-10
2.75023e-10
-8.28367e-10
3.72727e-10
-8.19139e-10
-8.07438e-10
4.69251e-10
-4.75406e-10
-9.12149e-10
5.85388e-10
-3.64627e-10
-9.26493e-10
-2.52519e-10
-9.38156e-10
-1.39321e-10
-9.46299e-10
-2.55211e-11
-9.50655e-10
8.83283e-11
-9.51108e-10
2.01663e-10
-9.47672e-10
3.13984e-10
-9.40511e-10
4.25007e-10
-9.30107e-10
-9.17247e-10
5.34824e-10
-5.39044e-10
-1.03719e-09
6.64019e-10
-4.13535e-10
-1.05296e-09
-2.85769e-10
-1.06583e-09
-1.5687e-10
-1.07491e-09
-2.73584e-11
-1.07976e-09
1.02144e-10
-1.08018e-09
2.31013e-10
-1.07617e-09
3.58713e-10
-1.06797e-09
4.84977e-10
-1.05627e-09
-1.04227e-09
6.10031e-10
-6.1197e-10
-1.17933e-09
7.53661e-10
-4.68464e-10
-1.19642e-09
-3.23105e-10
-1.21082e-09
-1.76434e-10
-1.22112e-09
-2.90578e-11
-1.22663e-09
1.1828e-10
-1.22707e-09
2.64855e-10
-1.22246e-09
4.10096e-10
-1.21308e-09
5.53791e-10
-1.19991e-09
-1.18474e-09
6.96329e-10
-6.95097e-10
-1.34107e-09
8.56841e-10
-5.31137e-10
-1.35952e-09
-3.6575e-10
-1.37591e-09
-1.98722e-10
-1.38775e-09
-3.08583e-11
-1.39411e-09
1.36943e-10
-1.39462e-09
3.03864e-10
-1.38928e-09
4.69293e-10
-1.37847e-09
6.33041e-10
-1.36354e-09
-1.34711e-09
7.95675e-10
-7.90419e-10
-1.52601e-09
9.75765e-10
-6.0397e-10
-1.54602e-09
-4.15141e-10
-1.56455e-09
-2.24482e-10
-1.5781e-09
-3.29086e-11
-1.58541e-09
1.58613e-10
-1.58596e-09
3.49181e-10
-1.57971e-09
5.38057e-10
-1.56717e-09
7.24966e-10
-1.55016e-09
-1.53239e-09
9.10651e-10
-9.00993e-10
-1.73773e-09
1.11269e-09
-6.88208e-10
-1.75938e-09
-4.72174e-10
-1.78022e-09
-2.5416e-10
-1.79574e-09
-3.50743e-11
-1.80415e-09
1.84051e-10
-1.80473e-09
4.02158e-10
-1.79741e-09
6.18291e-10
-1.78287e-09
8.3202e-10
-1.76349e-09
-1.74432e-09
1.04426e-09
-1.02971e-09
-1.9798e-09
1.27152e-09
-7.85295e-10
-2.00314e-09
-5.38053e-10
-2.02702e-09
-2.88356e-10
-2.04509e-09
-3.72601e-11
-2.05493e-09
2.13965e-10
-2.05559e-09
4.64047e-10
-2.04704e-09
7.11824e-10
-2.03011e-09
9.5672e-10
-2.00785e-09
-1.98698e-09
1.19977e-09
-1.17971e-09
-2.2572e-09
1.45742e-09
-8.98924e-10
-2.28272e-09
-6.15186e-10
-2.31054e-09
-3.28324e-10
-2.3318e-09
-3.97296e-11
-2.34344e-09
2.4903e-10
-2.34428e-09
5.36428e-10
-2.33426e-09
8.2109e-10
-2.31439e-09
1.10225e-09
-2.28848e-09
-2.26533e-09
1.38108e-09
-1.35565e-09
-2.57638e-09
1.67532e-09
-1.03349e-09
-2.60494e-09
-7.06534e-10
-2.63743e-09
-3.7583e-10
-2.66244e-09
-4.30354e-11
-2.67618e-09
2.9001e-10
-2.67723e-09
6.21409e-10
-2.66548e-09
9.49385e-10
-2.64211e-09
1.27288e-09
-2.61173e-09
-2.58551e-09
1.59321e-09
-1.56355e-09
-2.94428e-09
1.93136e-09
-1.1921e-09
-2.97695e-09
-8.14355e-10
-3.01521e-09
-4.32113e-10
-3.04471e-09
-4.72437e-11
-3.06093e-09
3.37993e-10
-3.06213e-09
7.21203e-10
-3.04827e-09
1.10009e-09
-3.02069e-09
1.47323e-09
-2.98474e-09
-2.95434e-09
1.84204e-09
-1.80944e-09
-3.36871e-09
2.23364e-09
-1.37904e-09
-3.40703e-09
-9.41544e-10
-3.45285e-09
-4.98462e-10
-3.48797e-09
-5.22101e-11
-3.50722e-09
3.94416e-10
-3.50863e-09
8.38521e-10
-3.49215e-09
1.27733e-09
-3.45928e-09
1.7089e-09
-3.41613e-09
-3.37987e-09
2.13458e-09
-2.10023e-09
-3.85965e-09
2.59135e-09
-1.60086e-09
-3.90595e-09
-1.0924e-09
-3.9614e-09
-5.77051e-10
-4.00342e-09
-5.80035e-11
-4.02641e-09
4.61337e-10
-4.02813e-09
9.77526e-10
-4.00843e-09
1.48719e-09
-3.96897e-09
1.98762e-09
-3.91662e-09
-3.87234e-09
2.47999e-09
-2.44493e-09
-4.42922e-09
3.0146e-09
-1.86449e-09
-4.48667e-09
-1.27173e-09
-4.55419e-09
-6.70497e-10
-4.60462e-09
-6.46963e-11
-4.63216e-09
5.41364e-10
-4.63413e-09
1.14341e-09
-4.61045e-09
1.7372e-09
-4.56285e-09
2.31918e-09
-4.49885e-09
-4.44367e-09
2.89024e-09
-2.85487e-09
-5.09149e-09
3.51696e-09
-2.17771e-09
-5.16427e-09
-1.48484e-09
-5.24727e-09
-7.81152e-10
-5.30839e-09
-7.17257e-11
-5.34155e-09
6.38005e-10
-5.34384e-09
1.34261e-09
-5.31518e-09
2.03687e-09
-5.25735e-09
2.71626e-09
-5.17836e-09
-5.10823e-09
3.38095e-09
-3.34492e-09
-5.86373e-09
4.11709e-09
-2.55205e-09
-5.95728e-09
-1.73925e-09
-6.06019e-09
-9.12515e-10
-6.13517e-09
-7.85169e-11
-6.17559e-09
7.55906e-10
-6.17845e-09
1.58402e-09
-6.14364e-09
2.39931e-09
-6.07298e-09
3.19573e-09
-5.97495e-09
-5.88464e-09
3.97212e-09
-3.93529e-09
-6.76773e-09
4.83926e-09
-3.00362e-09
-6.8894e-09
-2.04608e-09
-7.01773e-09
-1.07059e-09
-7.11053e-09
-8.57195e-11
-7.16025e-09
8.99944e-10
-7.16386e-09
1.8779e-09
-7.12137e-09
2.8397e-09
-7.03468e-09
3.77733e-09
-6.91266e-09
-6.79525e-09
4.68779e-09
-4.655e-09
-7.83052e-09
5.7176e-09
-3.55478e-09
-7.99025e-09
-2.42123e-09
-8.15149e-09
-1.26428e-09
-8.26763e-09
-9.5232e-11
-8.3294e-09
1.07503e-09
-8.33419e-09
2.2355e-09
-8.28198e-09
3.37542e-09
-8.17481e-09
4.4846e-09
-8.02188e-09
-7.86768e-09
5.55736e-09
-5.54409e-09
-9.08609e-09
6.79948e-09
-4.23736e-09
-9.29685e-09
-2.88755e-09
-9.50097e-09
-1.50708e-09
-9.64787e-09
-1.10823e-10
-9.72572e-09
1.28688e-09
-9.73233e-09
2.67192e-09
-9.66767e-09
4.03056e-09
-9.53394e-09
5.34946e-09
-9.34091e-09
-9.13727e-09
6.61903e-09
-6.65425e-09
-1.05779e-08
8.14591e-09
-5.09377e-09
-1.08585e-08
-3.47581e-09
-1.11191e-08
-1.81736e-09
-1.13063e-08
-1.37894e-10
-1.1405e-08
1.54366e-09
-1.14136e-08
3.20851e-09
-1.1332e-08
4.83816e-09
-1.1163e-08
6.41481e-09
-1.09171e-08
-1.06467e-08
7.92446e-09
-8.05824e-09
-1.23613e-08
9.84147e-09
-6.17978e-09
-1.27381e-08
-4.22482e-09
-1.30752e-08
-2.21575e-09
-1.33165e-08
-1.78314e-10
-1.34434e-08
1.86182e-09
-1.34544e-08
3.87884e-09
-1.33496e-08
5.8476e-09
-1.31325e-08
7.74465e-09
-1.28145e-08
-1.24519e-08
9.55022e-09
-9.85322e-09
-1.45065e-08
1.19981e-08
-7.57376e-09
-1.50163e-08
-5.18931e-09
-1.54586e-08
-2.73073e-09
-1.57744e-08
-2.33107e-10
-1.59408e-08
2.26778e-09
-1.59556e-08
4.73609e-09
-1.58185e-08
7.13719e-09
-1.5534e-08
9.43875e-09
-1.51162e-08
-1.46252e-08
1.16121e-08
-1.2171e-08
-1.71035e-08
1.47676e-08
-9.38557e-09
-1.78047e-08
-6.44826e-09
-1.83962e-08
-3.40516e-09
-1.88175e-08
-3.05517e-10
-1.90404e-08
2.79933e-09
-1.90599e-08
5.85762e-09
-1.88756e-08
8.81926e-09
-1.84944e-08
1.16383e-08
-1.79345e-08
-1.72606e-08
1.42743e-08
-1.52243e-08
-2.02666e-08
1.83875e-08
-1.17842e-08
-2.12462e-08
-8.12395e-09
-2.20583e-08
-4.3059e-09
-2.26371e-08
-4.01828e-10
-2.29455e-08
3.51079e-09
-2.29732e-08
7.35367e-09
-2.27188e-08
1.10527e-08
-2.21939e-08
1.45424e-08
-2.14247e-08
-2.04831e-08
1.77647e-08
-1.9337e-08
-2.41388e-08
2.32092e-08
-1.5047e-08
-2.55327e-08
-1.04214e-08
-2.6683e-08
-5.54921e-09
-2.75084e-08
-5.40354e-10
-2.79536e-08
4.48211e-09
-2.79955e-08
9.39458e-09
-2.76312e-08
1.40833e-08
-2.68819e-08
1.84504e-08
-2.57912e-08
-2.44466e-08
2.24142e-08
-2.50238e-08
-2.88912e-08
2.97757e-08
-1.96278e-08
-3.09304e-08
-1.36833e-08
-3.26277e-08
-7.32799e-09
-3.38642e-08
-7.39445e-10
-3.45429e-08
5.87296e-09
-3.46086e-08
1.22974e-08
-3.40559e-08
1.83471e-08
-3.29312e-08
2.38737e-08
-3.13182e-08
-2.9342e-08
2.87687e-08
-3.31694e-08
-3.47011e-08
3.89793e-08
-2.63177e-08
-3.77837e-08
-1.8524e-08
-4.04212e-08
-9.98698e-09
-4.24013e-08
-1.00879e-09
-4.35205e-08
8.01467e-09
-4.36312e-08
1.66805e-08
-4.27213e-08
2.46638e-08
-4.09139e-08
3.17414e-08
-3.83957e-08
-3.53843e-08
3.77836e-08
-4.53043e-08
-4.16575e-08
5.22606e-08
-3.65951e-08
-4.64943e-08
-2.61689e-08
-5.08477e-08
-1.42652e-08
-5.43053e-08
-1.40962e-09
-5.63761e-08
1.15397e-08
-5.65808e-08
2.37087e-08
-5.48912e-08
3.45107e-08
-5.17156e-08
4.36371e-08
-4.75228e-08
-4.27457e-08
5.09978e-08
-6.4189e-08
-4.94527e-08
7.19842e-08
-5.33897e-08
-5.72925e-08
-3.92916e-08
-6.49457e-08
-2.19394e-08
-7.16578e-08
-2.14744e-09
-7.61687e-08
1.78461e-08
-7.65742e-08
3.57819e-08
-7.28267e-08
5.06625e-08
-6.65953e-08
6.22523e-08
-5.91124e-08
-5.12511e-08
7.07582e-08
-9.4809e-08
-5.64997e-08
1.01856e-07
-8.28039e-08
-6.92969e-08
-6.4253e-08
-8.34967e-08
-3.77505e-08
-9.8161e-08
-3.49798e-09
-1.10422e-07
3.11228e-08
-1.11195e-07
5.89742e-08
-1.00678e-07
7.92349e-08
-8.68558e-08
9.27232e-08
-7.26016e-08
-5.94713e-08
1.00943e-07
-1.45352e-07
-5.78803e-08
1.46732e-07
-1.37083e-07
-7.75657e-08
-1.1572e-07
-1.04859e-07
-7.33035e-08
-1.40577e-07
-5.31689e-09
-1.78408e-07
6.31647e-08
-1.79676e-07
1.08609e-07
-1.46122e-07
1.33835e-07
-1.12081e-07
1.4456e-07
-8.33251e-08
-6.23671e-08
1.47456e-07
-2.22729e-07
-4.40698e-08
2.08918e-07
-2.26969e-07
-7.33266e-08
-2.03767e-07
-1.28062e-07
-1.29654e-07
-2.1469e-07
-4.42539e-09
-3.03637e-07
1.19588e-07
-3.03691e-07
1.97829e-07
-2.24362e-07
2.29441e-07
-1.43694e-07
2.29138e-07
-8.30227e-08
-4.82758e-08
2.15046e-07
-3.01117e-07
-1.72838e-08
2.74331e-07
-3.0508e-07
-6.93645e-08
-2.44115e-07
-1.89025e-07
-1.18567e-07
-3.40238e-07
1.79465e-08
-4.4015e-07
1.48455e-07
-4.34198e-07
2.60831e-07
-3.36737e-07
3.23041e-07
-2.05905e-07
3.23995e-07
-8.39752e-08
-1.86241e-08
2.94342e-07
-3.04205e-07
-1.02608e-08
2.97181e-07
-2.68751e-07
-1.0482e-07
-1.58663e-07
-2.99115e-07
-3.86429e-08
-4.60258e-07
1.4019e-08
-4.92812e-07
7.06892e-08
-4.90869e-07
1.81263e-07
-4.47312e-07
2.80699e-07
-3.05341e-07
3.27798e-07
-1.31073e-07
-1.88469e-08
3.2802e-07
-2.45123e-07
-3.41565e-08
2.69019e-07
-1.69065e-07
-1.80875e-07
-5.75383e-08
-4.10641e-07
-4.90407e-09
-5.12892e-07
-6.50893e-09
-4.91207e-07
-4.46113e-09
-4.92916e-07
5.52951e-08
-5.07068e-07
1.68315e-07
-4.18361e-07
2.51746e-07
-2.14506e-07
-5.78681e-08
2.90767e-07
-1.42171e-07
-1.00155e-07
2.08168e-07
-3.67667e-08
-2.86281e-07
3.77431e-08
-4.8515e-07
1.93859e-08
-4.94535e-07
-5.99181e-09
-4.65829e-07
-2.74043e-08
-4.71504e-07
-4.17527e-08
-4.9272e-07
2.84059e-08
-4.88519e-07
1.25982e-07
-3.12083e-07
-1.31747e-07
1.9986e-07
-4.89231e-08
-1.88173e-07
1.36943e-07
7.38401e-08
-4.09045e-07
9.81277e-08
-5.09439e-07
7.36855e-08
-4.70093e-07
-9.50736e-10
-3.91193e-07
-7.76962e-08
-3.94758e-07
-1.0022e-07
-4.70197e-07
-6.36872e-08
-5.25051e-07
1.75498e-08
-3.9332e-07
-2.04611e-07
9.04143e-08
3.32287e-09
-2.34412e-07
4.29167e-08
4.23011e-08
-4.48022e-07
4.77522e-08
-5.1489e-07
1.96802e-08
-4.42021e-07
1.51202e-09
-3.73025e-07
-1.82697e-08
-3.74976e-07
-4.49378e-08
-4.43529e-07
-5.87172e-08
-5.11272e-07
-2.85353e-08
-4.23503e-07
-2.48574e-07
1.54285e-08
9.50805e-08
-2.44627e-07
-8.48661e-08
5.71673e-08
-4.10109e-07
1.78874e-08
-4.7561e-07
-1.6964e-08
-4.0717e-07
1.28564e-09
-3.91274e-07
1.83744e-08
-3.92065e-07
-1.79185e-08
-4.07236e-07
-5.2573e-08
-4.76617e-07
-6.32752e-08
-4.12801e-07
-2.31219e-07
-8.06309e-08
6.78085e-08
-2.01018e-07
-1.11415e-07
6.14018e-08
-4.03704e-07
1.14924e-08
-4.257e-07
-5.30009e-09
-3.90377e-07
6.92866e-10
-3.97267e-07
6.3569e-09
-3.97729e-07
-9.98474e-09
-3.90894e-07
-6.05204e-08
-4.26081e-07
-5.15783e-08
-4.21743e-07
-1.75526e-07
-1.07272e-07
8.86221e-08
-1.80209e-07
-1.0943e-07
5.96367e-08
-3.74719e-07
2.13993e-08
-3.87463e-07
1.43541e-08
-3.83332e-07
-2.61054e-10
-3.82652e-07
-1.53768e-08
-3.82613e-07
-2.25729e-08
-3.83698e-07
-6.04126e-08
-3.88242e-07
-1.07004e-07
-3.75152e-07
-1.77731e-07
-1.04799e-07
1.3552e-07
-1.65433e-07
-1.50298e-07
1.0225e-07
-3.41448e-07
6.689e-08
-3.52102e-07
3.53673e-08
-3.51809e-07
-8.73318e-10
-3.46412e-07
-3.70984e-08
-3.46388e-07
-6.90284e-08
-3.51768e-07
-1.05289e-07
-3.51981e-07
-1.41665e-07
-3.38775e-07
-1.73501e-07
-1.45895e-07
1.99312e-07
-1.7962e-07
-1.85124e-07
1.38463e-07
-2.806e-07
8.52148e-08
-2.98855e-07
4.11868e-08