/*--------------------------------*- C++ -*----------------------------------*\
  =========                 |
  \\      /  F ield         | OpenFOAM: The Open Source CFD Toolbox
   \\    /   O peration     | Website:  https://openfoam.org
    \\  /    A nd           | Version:  8
     \\/     M anipulation  |
\*---------------------------------------------------------------------------*/
FoamFile
{
    version     2.0;
    format      ascii;
    class       volScalarField;
    location    "3.1";
    object      alpha.water;
}
// * * * * * * * * * * * * * * * * * * * * * * * * * * * * * * * * * * * * * //

dimensions      [0 0 0 0 0 0 0];

internalField   nonuniform List<scalar> 
9150
(
1
1
1
1
1
1
1
1
1
1
1
1
1
1
1
1
1
1
1
1
1
1
1
1
1
1
1
1
1
1
1
1
1
1
1
1
1
1
1
1
1
1
1
1
1
1
1
1
1
1
1
1
1
1
1
1
1
1
1
1
1
1
1
1
1
1
1
1
1
1
1
1
1
1
1
1
1
1
1
1
1
1
1
1
1
1
1
1
1
1
1
1
1
1
1
1
1
1
1
1
1
1
1
1
1
1
1
1
1
1
1
1
1
1
1
1
1
1
1
1
1
1
1
1
1
1
1
1
1
1
1
1
1
1
1
1
1
1
1
1
1
1
1
1
1
1
1
1
1
1
1
1
1
1
1
1
1
1
1
1
1
1
1
1
1
1
1
1
1
1
1
1
1
1
1
1
1
0.999999
0.999996
0.999997
1
1
1
1
1
1
1
0.999995
0.999989
0.99999
1
1
1
1
0.999999
0.999991
0.999988
0.999988
0.999989
0.999999
1
1
1
0.999995
0.999988
0.999988
0.999988
0.999988
0.999997
1
1
1
1
0.999998
0.999988
0.999988
0.999988
0.999988
0.999994
1
1
1
1
1
1
0.999994
0.999988
0.999988
0.99999
1
1
1
1
0.999995
0.999994
1
1
0.999998
0.999997
0.999999
1
1
0.999993
0.999987
0.999989
0.999999
1
1
1
1
0.999999
0.999988
0.999986
0.999986
0.999998
1
1
1
1
1
0.999986
0.999986
0.999986
0.999998
1
1
1
1
1
1
0.999986
0.999986
0.999995
1
1
1
1
1
1
1
0.999986
0.999989
1
1
1
1
1
1
1
1
0.999986
0.999987
1
1
1
1
1
1
1
1
0.999986
0.99999
1
1
1
1
0.999995
0.999987
0.999996
1
0.999999
0.999998
1
1
0.999998
0.999981
0.99998
0.99998
0.999985
1
0.999999
0.999999
0.999995
0.99998
0.99998
0.99998
0.99998
0.999981
0.999997
0.999999
0.999969
0.99998
0.999999
0.99998
0.99998
0.99998
0.99998
0.999997
1
1
0.999993
0.999993
1
0.99999
0.99998
0.99998
0.999993
1
1
1
1
1
1
0.999997
0.99999
1
1
1
1
0.999999
1
1
1
0.999987
0.999982
0.999985
1
1
1
0.999999
0.99907
0.998993
0.999339
1
0.999998
0.999997
1
1
1
0.999999
0.998557
0.999951
0.999958
1
1
1
1
1
1
0.999998
0.999912
0.999929
0.999952
0.999354
0.998765
0.999708
1
1
0.999999
0.999994
0.999897
0.99964
0.989211
0.984537
0.994731
1
1
1
0.999996
0.999993
0.998544
0.984151
0.98358
0.984004
0.998467
1
1
1
1
0.999996
0.984881
0.983247
0.983321
0.992307
1
1
1
1
1
1
0.983159
0.983164
0.985993
0.999999
1
1
1
1
1
1
0.983159
0.983159
0.995651
1
1
1
1
1
1
1
0.983159
0.988974
1
1
1
1
1
1
1
1
0.991638
0.998841
1
1
1
1
1
1
1
1
0.99998
1
1
1
1
1
1
1
1
1
0.999999
1
1
1
1
1
1
1
1
1
1
1
1
1
1
1
1
1
1
1
0.999999
1
1
1
1
1
1
0.999999
0.999999
0.999999
0.999998
1
1
1
1
1
1
1
1
0.999995
0.999998
0.999999
1
1
1
1
1
1
0.999995
0.999954
0.999998
0.999999
1
1
1
1
0.999997
0.999963
0.873595
0.331559
0.999998
1
1
1
0.999996
0.999942
0.999492
0.698602
0.225049
0.21201
1
1
1
0.999998
0.999957
0.999406
0.77282
0.209567
0.209621
0.222368
1
1
1
0.999994
0.999868
0.952195
0.417081
0.182242
0.222098
0.782901
0.999999
0.999999
0.999999
0.999992
0.999735
0.816615
0.193325
0.16792
0.437527
0.999637
1
1
0.999999
0.999989
0.999763
0.655892
0.148297
0.157628
0.681254
0.999979
1
0.999999
0.999998
0.999929
0.99739
0.562119
0.148297
0.155559
0.72116
0.999999
1
0.999999
0.999999
0.999978
0.999986
0.588291
0.1478
0.147547
0.618524
1
1
1
0.999999
1
0.999999
0.723352
0.148302
0.147303
0.254491
0.951988
1
1
1
1
1
0.956127
0.233217
0.147303
0.149852
0.552246
1
1
1
1
1
1
0.531655
0.149845
0.151447
0.149339
1
1
1
1
1
1
0.94606
0.278136
0.1491
0.146372
0.999998
1
1
1
1
1
0.999988
0.732939
0.163878
0.142331
0.999989
0.999999
1
1
1
1
1.00001
0.999793
0.596822
0.142449
0.999935
0.999994
0.999999
1
1
1
1
1.00002
0.99946
0.594357
0.999833
0.999981
0.999994
0.999999
1
1
1
0.999999
0.999998
0.999642
0.999867
0.999985
0.999998
1
1
1
1
1
0.999999
0.999999
0.999766
0.999974
0.999997
1
1
1
1
1
1
1
0.997591
0.999757
0.999974
0.999997
0.999999
1
1
1
1
1
0.309643
0.56578
0.927234
0.999973
0.999996
0.999999
1
1
1
1
0.15107
0.151431
0.235755
0.66961
0.998355
0.999859
0.999983
0.999998
0.999999
0.999999
0.151164
0.151376
0.152324
0.502901
0.984598
0.999597
0.999951
0.999992
0.999998
0.999999
0.151135
0.151013
0.44618
0.917766
0.999133
0.999898
0.999987
0.999998
0.999999
0.999999
0.560469
0.771597
0.976347
0.976777
0.929598
0.894442
0.958364
0.999987
0.998158
0.740087
0.988689
0.994634
0.994791
0.924997
0.54419
0.410624
0.463514
0.426351
0.350669
0.347763
0.994634
0.994793
0.994756
0.950102
0.443083
0.409371
0.409371
0.418186
0.789782
0.97563
0.82457
0.994668
0.994789
0.994668
0.845627
0.820633
0.887907
0.977576
0.97854
0.97854
0.5888
0.633517
0.678621
0.797243
0.982238
0.983422
0.983422
0.983422
0.932872
0.811894
0.588739
0.588812
0.589715
0.622533
0.95727
0.982994
0.908111
0.59979
0.254989
0.260418
0.596573
0.691872
0.786512
0.785739
0.710761
0.255413
0.212274
0.212473
0.213474
0.290623
0.967182
0.878994
0.543864
0.324066
0.219582
0.211474
0.211474
0.21312
0.385916
0.917383
0.518422
0.331481
0.262817
0.262817
0.347782
0.211474
0.213412
0.457619
0.960033
0.997783
0.333337
0.332079
0.478874
0.533186
0.488154
0.21517
0.472494
0.963006
0.997788
0.999679
0.618557
0.717819
0.718836
0.257918
0.188293
0.383685
0.917547
0.997144
0.999442
0.999888
0.944529
0.410415
0.0703398
0.0707662
0.195916
0.871233
0.996799
0.999388
0.999889
0.999972
0.450531
0.0643832
0.0673482
0.0703132
0.782784
0.996239
0.999332
0.999873
0.99997
0.999991
0.0611597
0.0631404
0.0643832
0.467349
0.978193
0.998926
0.999803
0.999964
0.999992
0.999997
0.0598076
0.0611591
0.0895401
0.850921
0.997871
0.999662
0.999952
0.99999
0.999997
0.999999
0.0587733
0.0597815
0.537675
0.989999
0.999379
0.999925
0.999985
0.999997
0.999999
0.999999
0.0576219
0.0585926
0.831413
0.998284
0.999783
0.999971
0.999996
0.999999
1
0.999999
0.0569102
0.354145
0.966788
0.999405
0.999935
0.999992
0.999999
1
1
1
0.0429015
0.659786
0.998129
0.999792
0.99998
0.999998
1
1
1
1
0.0342035
0.835476
0.999157
0.999928
0.999994
0.999999
1
1
1
1
0.276676
0.960984
0.999791
0.999985
0.999999
1
1
1
1
1
0.448912
0.990357
0.999931
0.999996
1
1
1
1
1
1
0.590066
0.998634
0.999977
0.999999
1
1
1
1
1
1
0.703946
0.999764
0.999992
1
1
1
1
1
1
1
0.767356
0.999888
0.999997
1
1
1
1
1
1
1
0.805212
0.999948
0.999999
1
1
1
1
1
1
0.996704
0.828675
0.999975
0.999999
1
1
1
1
1
1
0.947084
0.846622
0.999988
0.999996
1
1
1
1
1
1
0.903333
0.862584
0.99999
0.999991
1
1
1
1
1
0.999999
0.858796
0.872208
0.99999
0.99999
0.999999
1
1
1
0.999999
0.999998
0.813497
0.877386
0.999991
0.99999
1
1
1
1
0.999993
0.999995
0.768219
0.864153
0.999992
0.999992
0.999999
0.999999
1
0.999999
0.999987
0.999978
0.722611
0.841042
0.999993
0.999993
1
1
0.999999
0.999999
0.999994
0.999462
0.710393
0.817441
0.999993
0.999993
0.999999
1
1
1
1
1.00016
0.736178
0.793274
0.999992
0.999993
0.999999
1
1
1
1
0.999998
0.776193
0.780919
0.999725
0.999996
1
1
1
1
1
0.999992
0.817493
0.786848
0.999993
1
1
1
1
1
1
1.00002
0.860639
0.860292
0.999999
1
1
1
1
1
1
1
0.906722
0.946802
1
1
1
1
1
1
1
1
0.952619
1
1
1
1
1
1
1
1
1
1
1
1
1
1
1
1
1
1
1
1
1
1
1
1
1
1
1
1
1
1
1
1
1
1
1
1
1
1
1
0.998934
1
1
1
1
1
1
1
1
1
1
1
1
1
1
1
1
1
1
1
1
1
1
1
1
1
1
1
1
1
1
1
1
1
1.00001
1.00001
1.00001
1
1
0.999931
0.998786
1
1
1
1
1
1
1
1
1
1
1
1
1
1
1
1
1
1
1
1
0.999995
0.999964
0.999953
0.999983
0.999999
1
1
1
1
1
0.99998
0.999956
0.999998
0.999999
1
1
1
1
0.999302
0.998352
0.999999
1
1
1
0.999999
1
1
1
1
1
1
1
1
1
1
1
1
1
1
0.999999
0.999968
0.998821
0.983065
0.962966
0.959084
0.981298
0.996446
0.999999
0.999961
0.999052
0.998778
0.999068
0.999845
0.999994
0.999955
0.999999
0.999999
0.999939
0.999179
0.998594
1
1
0.999999
0.999998
0.999998
0.999999
1
1
1
1
1
1
1
1
1
1
1
0.999999
0.999999
0.999994
0.999941
0.985143
0.899538
0.899378
0.899377
0.899381
0.912433
0.968434
0.955674
0.964596
0.999551
0.999373
0.999459
0.999588
0.989214
0.981497
0.983473
0.991113
0.994401
0.994237
1
0.999999
0.999998
0.999998
0.999998
1
1
1
1
1
1
1
1
1
1
0.999988
0.999897
0.999818
0.999861
0.999941
0.999987
0.991595
0.919187
0.899377
0.899388
0.899484
0.899568
0.899618
0.899927
0.958255
0.999769
0.999784
0.99916
0.999009
0.975899
0.959129
0.959074
0.959075
0.959162
0.958222
1
0.999999
0.999998
0.999998
1
1
1
1
1
1
0.999998
0.999999
1
1
0.999999
0.999833
0.999714
0.999714
0.999714
0.999916
1
1
1
0.999821
0.963754
0.903483
0.89999
0.936161
0.993922
0.99976
0.999772
0.999793
0.999791
0.998717
0.994729
0.981984
0.971784
0.965678
0.958345
0.958181
1
1
0.999999
1
1
1
1
1
0.999999
0.999997
0.999997
0.999999
1
0.999999
0.999999
0.999847
0.999714
0.999714
0.999834
1
1
1
1
1
1
1
1
0.999999
0.999954
0.999197
0.99888
0.999857
0.999868
0.999758
0.999988
0.999988
0.999988
0.999988
0.994052
0.976608
1
1
1
1
1
1
1
1
0.999993
0.999967
0.999969
0.99999
0.999999
0.999995
1
1
0.999938
0.999869
0.999975
1
0.999999
0.999994
0.999998
1
1
0.999999
0.999994
0.999381
0.997989
0.997975
0.998402
0.999904
0.999968
0.999985
0.999988
0.999988
0.999988
0.99998
0.999979
0.999974
1
1
1
1
1
1
1
1
0.999998
0.999888
0.997285
0.993434
0.993107
0.999738
1
1
1
1
1
1
1
0.999983
0.999946
0.999992
1
0.999998
0.99999
0.998955
0.998049
0.99798
0.99799
0.997337
0.996622
0.999883
0.999985
0.999987
0.999987
0.999903
0.99968
0.999561
1
1
1
1
1
1
1
0.999998
0.999977
0.999461
0.969489
0.880081
0.891946
1
1
1
1
1
1
1
1
0.999999
0.999889
0.999718
0.999898
0.999995
0.999989
0.999989
0.999988
0.999738
0.986641
0.960591
0.954508
0.980316
0.996064
0.999586
0.99997
0.999894
0.999814
0.999591
1
1
1
1
1
1
0.999997
0.999971
0.995863
0.919266
0.86529
0.865234
0.865462
0.961958
1
1
1
1
1
1
1
0.999998
0.999995
0.999106
0.997908
0.999633
0.999989
0.999988
0.999987
0.999376
0.966834
0.952374
0.952374
0.952364
0.956041
0.973773
0.987457
0.997618
0.999818
0.999999
1
1
1
1
0.999999
0.999993
0.999929
0.983301
0.87992
0.865223
0.865176
0.86529
0.90281
1
1
1
1
0.999997
0.999993
0.999997
0.999998
0.999996
0.999978
0.99887
0.997856
0.997987
0.999988
0.999987
0.99998
0.999952
0.981668
0.952385
0.952374
0.95242
0.952548
0.952633
0.952644
0.968449
0.991388
0.999999
1
1
1
0.999999
0.999987
0.99986
0.982587
0.877443
0.86529
0.865176
0.86529
0.910334
1
1
1
1
0.999998
0.999901
0.999754
0.999869
0.999953
0.999979
0.999935
0.99988
0.998668
0.997224
0.999684
0.999982
0.999956
0.999879
0.999848
0.991277
0.970476
0.958238
0.953748
0.952647
0.952764
0.953296
0.978207
0.999999
1
1
0.999999
0.999986
0.999845
0.985804
0.88585
0.865444
0.865242
0.865333
0.928138
1
1
1
1
0.999998
0.999952
0.999389
0.983047
0.939634
0.936666
0.988379
0.999895
0.999811
0.998839
0.997098
0.995053
0.997704
0.999876
0.999839
0.999533
0.999247
0.999047
0.999017
0.996504
0.986504
0.973569
0.974223
0.984642
0.999984
1
0.999999
0.999979
0.999593
0.974313
0.875234
0.865788
0.865392
0.865695
0.957426
1
1
1
1
1
0.999992
0.999856
0.993548
0.881396
0.823742
0.823372
0.850904
0.942776
0.978006
0.981853
0.920772
0.87458
0.887025
0.942937
0.975876
0.989752
0.998073
0.999017
0.99883
0.998597
0.998857
0.998922
0.998913
0.998922
0.993256
0.999998
0.999974
0.999692
0.938252
0.865997
0.865849
0.865778
0.874361
0.984076
1
1
1
1
1
1
0.999995
0.99992
0.978654
0.832245
0.823372
0.823319
0.823319
0.823273
0.82879
0.854929
0.824742
0.824683
0.82473
0.82469
0.827042
0.862828
0.905681
0.963934
0.980775
0.98562
0.993045
0.9989
0.998922
0.998761
0.986695
0.99999
0.999896
0.99172
0.890722
0.866047
0.865998
0.882034
0.994354
1
1
1
1
1
1
1
0.999999
0.999986
0.99985
0.951825
0.843475
0.823372
0.823319
0.823425
0.823734
0.824914
0.832362
0.824738
0.824685
0.82473
0.82492
0.825175
0.826047
0.832326
0.846786
0.847024
0.876741
0.950587
0.9989
0.998181
0.986694
1
1
1
0.991329
0.904034
0.876221
0.991593
0.999998
0.999998
1
0.999999
0.999999
1
1
1
0.99999
0.99993
0.999835
0.999889
0.999984
0.953277
0.873152
0.827205
0.867984
0.960544
0.984263
0.933935
0.847558
0.82492
0.82541
0.860595
0.877259
0.840365
0.826928
0.826417
0.826386
0.831336
0.985865
0.997741
0.986696
1
1
1
1
1
1
1
0.99981
0.999963
1
0.999992
0.999999
1
1
0.999999
0.999943
0.999148
0.998774
0.999742
1
1
1
1
1
0.999999
0.999998
0.999993
0.999924
0.957277
0.961412
0.999949
0.999996
0.987636
0.916626
0.845393
0.825604
0.825609
0.883192
0.994744
0.988508
0.999999
1
1
1
1
1
1
0.999996
0.999987
0.999986
0.999987
1
1
1
0.999999
0.999875
0.998536
0.998447
0.998447
0.999484
1
1
1
1
1
0.999916
0.999163
0.999275
0.999703
0.9999
0.999979
0.999996
0.999996
0.999995
0.987438
0.866115
0.825541
0.82556
0.988616
0.992762
0.999994
0.999994
0.999999
1
1
1
1
0.999999
0.999987
0.999986
0.999992
1
1
1
1
0.999999
0.999402
0.998447
0.998476
0.998885
1
1
1
1
1
0.999979
0.995624
0.990429
0.992336
0.994584
0.997072
0.999997
0.999996
0.999996
0.999995
0.992049
0.826212
0.825541
0.980719
0.992765
0.999993
0.999993
0.999993
0.999998
1
1
1
1
0.999995
0.999987
0.999999
1
1
1
1
1
1
0.999773
0.999144
0.99992
1
1
1
1
1
0.999994
0.995527
0.989044
0.989044
0.989044
0.994209
0.999997
0.999996
0.999986
0.999989
0.999985
0.927892
0.82556
0.950851
0.992591
0.999993
0.999993
0.999993
0.999996
1
1
1
0.999999
1
1
1
1
1
0.999999
0.999999
1
1
1
1
1
1
1
1
1
1
1
1
0.996285
0.990727
0.993061
0.999336
0.999997
0.999993
0.999933
0.999933
0.999935
0.99844
0.825703
0.866835
0.988647
0.999993
0.999993
0.999995
1
1
1
0.999999
0.999999
1
1
1
1
0.999999
0.999999
0.999999
1
1
1
1
1
1
1
1
1
1
1
1
1
1
1
1
0.999997
0.999996
0.999935
0.999898
0.999918
0.997501
0.848344
0.837209
0.985143
0.999993
0.999994
1
1
1
0.999999
0.999999
0.999999
0.999999
1
1
0.999999
0.999999
0.999999
0.999999
1
1
1
1
1
1
1
1
1
1
1
1
1
1
1
1
1
1
0.999999
0.999983
0.999966
0.997699
0.954001
0.837181
0.988165
0.999993
0.999998
1
1
1
1
1
0.999999
0.999999
0.999999
0.999999
0.999999
0.999999
1
1
1
1
1
1
1
1
1
1
1
1
1
1
1
1
1
1
1
1
1
1
0.999978
0.998675
0.972206
0.837357
0.989369
1
1
1
1
1
1
1
1
1
0.999999
0.999999
0.999999
1
1
1
1
1
1
1
1
1
1
1
1
0.999999
1
1
1
1
0.999999
1
1
1
1
1
0.999964
0.997445
0.960707
0.876579
0.989402
1
1
1
1
1
1
1
1
1
1
1
1
1
1
1
1
1
1
1
1
1
1
1
0.999999
0.999995
0.999993
0.999999
0.999998
0.999996
0.999995
0.999997
1
1
1
1
0.999977
0.994625
0.963927
0.989403
0.989414
1
1
1
1
1
1
1
1
1
1
1
1
1
1
1
1
1
1
1
1
1
1
1
1
0.999996
0.999953
0.999882
0.999976
0.999958
0.999947
0.99997
0.999995
1
1
0.999998
0.999969
0.995924
0.990512
0.989957
0.989412
1
1
1
1
1
1
1
1
1
1
1
1
1
1
1
1
1
1
1
1
1
1
1
1
0.999998
0.999958
0.999278
0.998216
0.999513
0.99944
0.999675
0.999946
0.999996
0.999999
0.999994
0.999898
0.996674
0.983565
0.965396
0.989422
1
1
0.999999
1
1
1
1
1
1
1
1
1
1
1
1
1
1
1
1
1
1
1
1
1
0.999996
0.999965
0.999315
0.989185
0.958432
0.9187
0.96659
0.999629
0.999964
0.999996
0.999987
0.9999
0.99083
0.940133
0.939209
0.984863
1
0.999999
0.999999
0.999999
0.999998
0.999998
0.999998
0.999998
0.999999
0.999999
1
1
1
1
1
1
1
1
1
1
1
1
1
1
0.999995
0.99995
0.999458
0.978333
0.771383
0.685838
0.745918
0.944446
0.999667
0.999966
0.999977
0.999896
0.988606
0.939209
0.939209
0.943237
0.999998
0.999982
0.999971
0.999956
0.999956
0.999963
0.999958
0.999952
0.999981
0.999991
0.999994
0.999996
0.999997
0.999998
0.999999
1
1
1
1
1
1
1
1
1
0.999997
0.999969
0.999689
0.959608
0.686644
0.685838
0.685838
0.708431
0.94562
0.999775
0.999949
0.99966
0.998081
0.961976
0.939209
0.939315
0.999998
0.99985
0.99899
0.998707
0.998332
0.999118
0.999478
0.999274
0.999705
0.999785
0.999888
0.999929
0.999952
0.999976
0.999988
0.999994
0.999998
0.999999
1
1
1
1
1
1
0.999998
0.999982
0.999818
0.986646
0.792452
0.685838
0.686026
0.686214
0.714362
0.965915
0.999769
0.999599
0.999469
0.99093
0.942961
0.93942
0.999995
0.999953
0.996653
0.92384
0.813973
0.767024
0.802376
0.826992
0.80298
0.862855
0.968033
0.995124
0.999315
0.999663
0.999841
0.99993
0.999979
0.99999
0.999997
1
1
1
1
1
1
0.999998
0.99998
0.999877
0.972052
0.744605
0.686214
0.686963
0.687791
0.745476
0.993405
0.999491
0.999205
0.990883
0.976792
0.963882
0.999958
0.999526
0.889272
0.309684
0.180575
0.180925
0.217056
0.270643
0.216891
0.246254
0.455513
0.620256
0.795815
0.939347
0.989122
0.999329
0.999762
0.999895
0.999974
0.999999
1
1
1
1
1
1
0.999998
0.999983
0.999929
0.994061
0.768486
0.687791
0.689232
0.691077
0.812723
0.998579
0.998984
0.989466
0.97738
0.975121
0.926371
0.341686
0.181306
0.180581
0.180575
0.180581
0.181929
0.184502
0.189995
0.198152
0.207878
0.220505
0.232358
0.512298
0.672257
0.858988
0.980665
0.999062
0.999723
0.999979
1
1
1
1
1
0.999999
0.999997
0.999993
0.999986
0.999946
0.999625
0.821883
0.691077
0.694107
0.697159
0.894918
0.998067
0.990941
0.968171
0.956661
0.192731
0.186854
0.184442
0.181306
0.379942
0.759092
0.761723
0.564086
0.559296
0.668879
0.66124
0.50787
0.435461
0.437032
0.444873
0.448203
0.675571
0.857297
0.971554
0.999893
1
1
1
0.999999
0.999998
0.999997
0.999993
0.999981
0.999971
0.999963
0.999937
0.999758
0.888154
0.702324
0.701397
0.722165
0.937139
0.989648
0.984842
0.95663
0.199546
0.312772
0.817263
0.917465
0.974673
1
1
1
1
1
1
0.999999
0.925166
0.754981
0.658964
0.597914
0.595473
0.598551
0.731405
0.935317
0.999997
1
1
0.999995
0.999969
0.999969
0.999968
0.999968
0.999962
0.999948
0.999933
0.999923
0.999815
0.941496
0.732671
0.722854
0.770504
0.974354
0.984476
0.956715
0.765602
0.962068
0.999924
0.999981
1
1
1
1
1
1
1
1
1
0.999999
0.999994
0.997942
0.791109
0.71055
0.712816
0.716893
0.991624
0.999996
0.999998
0.999989
0.999824
0.999004
0.997767
0.999281
0.999944
0.999933
0.99992
0.999882
0.999864
0.999899
0.967674
0.756542
0.749222
0.86455
0.983867
0.965644
0.999655
0.99997
0.999997
1
1
1
1
1
1
1
1
1
1
1
1
0.999997
0.999982
0.999921
0.839308
0.746872
0.94423
0.99997
0.99999
0.999963
0.999293
0.994756
0.99366
0.994281
0.997985
0.999581
0.999859
0.999863
0.9999
0.999938
0.999966
0.976251
0.764754
0.79519
0.957688
0.972705
0.99998
0.999999
1
1
1
0.999999
1
1
1
1
1
1
1
1
1
0.999999
0.999996
0.999977
0.999925
0.99967
0.958673
0.997998
0.999589
0.99991
0.998032
0.99366
0.993659
0.99366
0.993637
0.994894
0.997221
0.999264
0.999937
0.999962
0.999997
0.999966
0.968626
0.804176
0.865766
0.972706
0.999999
1
1
1
1
1
1
1
1
1
0.999999
1
1
1
1
0.999971
0.99968
0.999746
0.999624
0.999093
0.998237
0.992634
0.996666
0.999802
0.99838
0.993677
0.99366
0.99366
0.993714
0.99379
0.993802
0.994703
0.998349
0.999997
0.999998
0.999998
0.999958
0.884102
0.848034
0.97174
1
1
1
1
1
1
1
1
1
1
0.999999
0.999999
1
1
0.999997
0.999987
0.999205
0.99461
0.998588
0.998212
0.997563
0.995188
0.9977
0.99924
0.998452
0.997471
0.995356
0.994068
0.993764
0.993807
0.99384
0.99391
0.994096
0.999076
0.999998
0.999998
0.999999
0.998934
0.848034
0.960082
1
1
1
1
1
1
1
0.999999
0.999998
0.999996
0.999999
0.999998
0.999998
0.999997
0.999991
0.999945
0.999633
0.991957
0.909245
0.891768
0.969524
0.993486
0.995668
0.997818
0.997853
0.996838
0.997509
0.997998
0.998366
0.996363
0.994141
0.993961
0.994078
0.995812
0.999999
0.999999
0.999998
0.997721
0.88088
0.915221
1
1
1
1
1
1
1
0.999999
0.999992
0.999934
0.999735
0.999719
0.999971
0.999963
0.999939
0.999891
0.99946
0.998047
0.800729
0.269955
0.448285
0.782424
0.921576
0.977714
0.993905
0.994758
0.996659
0.998853
0.999314
0.999437
0.99935
0.995877
0.99413
0.995724
0.999999
0.999999
0.999999
0.998837
0.986163
0.908433
0.999247
0.999998
1
1
1
1
1
1
1
0.999937
0.999138
0.995094
0.989863
0.995121
0.99921
0.999234
0.999109
0.997718
0.807248
0.0898715
0.0273069
0.141156
0.291386
0.481669
0.677284
0.864078
0.976671
0.996554
0.99902
0.999675
0.999799
0.999892
0.99775
0.999603
0.999995
0.999999
0.999999
0.99993
0.999788
0.90838
0.720774
0.999564
0.999983
1
1
1
1
0.999999
1
1
1
0.995703
0.96534
0.876729
0.822258
0.841954
0.934587
0.956113
0.628595
0.0639808
0.0235857
0.0232218
0.023063
0.0229985
0.0830302
0.232979
0.536284
0.874365
0.994854
0.999141
0.999893
0.999984
0.99999
0.999989
0.999959
0.999998
1
1
0.99951
0.908563
0.148794
0.674936
0.999379
0.999961
0.999998
1
1
0.999999
0.999999
1
0.999999
0.999999
0.996694
0.845666
0.469643
0.389822
0.375437
0.344626
0.171512
0.0243986
0.0231658
0.0232386
0.0233673
0.0230891
0.0232624
0.0233507
0.0602374
0.308198
0.791311
0.984846
0.996475
0.999599
0.999986
0.99999
0.999987
0.999997
1
1
0.999925
0.916687
0.13926
0.134928
0.480705
0.985471
0.999905
0.999991
0.999999
0.999998
0.999999
0.999998
0.999998
0.999999
0.999996
0.985179
0.818916
0.479626
0.207726
0.104383
0.0602088
0.0323992
0.0235487
0.0227609
0.023069
0.0233312
0.023262
0.023083
0.0229008
0.0247238
0.256217
0.827952
0.983473
0.997356
0.999774
0.999983
0.999998
0.999998
1
1
1
0.94891
0.13526
0.13231
0.129545
0.228179
0.702968
0.999647
0.999962
0.999823
0.999827
0.999845
0.999887
0.999976
0.999994
0.999977
0.999955
0.999931
0.958696
0.833615
0.624055
0.332018
0.081599
0.0225238
0.0225669
0.0233225
0.0234316
0.0235527
0.0229004
0.0231945
0.025992
0.410741
0.931818
0.993521
0.999257
0.999914
0.999993
0.999999
1
1
1
0.957022
0.135658
0.12968
0.127972
0.12271
0.123733
0.192659
0.570437
0.925655
0.972522
0.993787
0.998695
0.999926
0.999977
0.999955
0.999921
0.999649
0.999706
0.999715
0.999714
0.967745
0.651421
0.14375
0.0228726
0.0229264
0.0236171
0.0231971
0.0230686
0.0236855
0.023117
0.0996296
0.745633
0.98993
0.998717
0.999845
0.999981
0.999998
1
1
1
0.957373
0.679746
0.147222
0.123051
0.119646
0.115291
0.121295
0.119083
0.117912
0.261181
0.78264
0.995279
0.999251
0.999704
0.999495
0.992106
0.9969
0.999673
0.99971
0.999715
0.999713
0.999712
0.670143
0.0919117
0.0225809
0.0227129
0.0232105
0.0232097
0.0237931
0.0232191
0.0235741
0.524394
0.983274
0.998447
0.999788
0.999974
0.999996
0.999999
0.999999
1
0.963554
0.99982
0.803446
0.226951
0.115049
0.111568
0.115291
0.118655
0.113798
0.118576
0.227728
0.811989
0.991845
0.973827
0.920732
0.959563
0.998895
0.999668
0.999696
0.999711
0.999713
0.99971
0.91282
0.261508
0.0243193
0.022703
0.0231869
0.0233618
0.0239628
0.0225594
0.0226428
0.395754
0.969434
0.998506
0.999785
0.999972
0.999992
0.999997
0.999996
0.999999
0.969333
0.999999
0.999933
0.916145
0.376238
0.111568
0.116008
0.120443
0.118607
0.118576
0.131494
0.510302
0.555727
0.44487
0.679536
0.985321
0.998526
0.999546
0.999673
0.999696
0.999709
0.999708
0.964923
0.372178
0.027721
0.0227446
0.0231344
0.0243393
0.0237364
0.0233489
0.0243056
0.376632
0.964917
0.998794
0.999842
0.999974
0.999987
0.99989
0.999802
0.999998
0.971738
1
0.999999
0.999981
0.966902
0.468465
0.123889
0.120849
0.118914
0.119939
0.148657
0.128669
0.131381
0.133337
0.576525
0.987191
0.997985
0.999138
0.999553
0.999669
0.999678
0.999693
0.991381
0.502463
0.0366915
0.0245456
0.0238179
0.0247336
0.0239816
0.0243081
0.0244382
0.648151
0.99265
0.998816
0.999827
0.999962
0.999972
0.99965
0.999653
0.999992
0.973332
0.999999
0.999999
0.999999
0.999994
0.957601
0.394979
0.126201
0.120719
0.120108
0.121874
0.124672
0.12741
0.332167
0.88289
0.994187
0.997492
0.998285
0.999154
0.999544
0.999388
0.999527
0.998072
0.687062
0.0869581
0.027815
0.0257215
0.0247881
0.0249196
0.0249537
0.29949
0.905435
0.995777
0.999232
0.999873
0.999949
0.999952
0.999652
0.999666
0.99998
0.974907
0.999999
0.999999
0.999999
0.999999
0.983474
0.439947
0.131164
0.126231
0.121743
0.129757
0.205549
0.642382
0.985553
0.992812
0.99443
0.99609
0.997486
0.987036
0.903788
0.920654
0.994847
0.992987
0.78888
0.164904
0.038771
0.0284199
0.026329
0.0598038
0.251178
0.873335
0.997621
0.999196
0.999755
0.999927
0.99996
0.999963
0.999656
0.999767
0.999966
0.975961
0.999999
0.999999
0.999999
0.994607
0.549216
0.159162
0.146495
0.141221
0.210548
0.699845
0.973917
0.978915
0.980577
0.98438
0.990569
0.993372
0.988296
0.793708
0.624282
0.644034
0.912799
0.98659
0.766006
0.23828
0.0792352
0.148766
0.302012
0.79409
0.998655
0.99949
0.999754
0.999835
0.999862
0.999957
0.999963
0.999962
0.999664
0.999684
0.999954
0.976468
0.999999
0.999895
0.627136
0.240105
0.219079
0.209393
0.303835
0.805973
0.959721
0.964307
0.967606
0.973517
0.971753
0.932279
0.887293
0.806883
0.603986
0.613563
0.619347
0.624282
0.816082
0.83335
0.577331
0.397642
0.6085
0.98933
0.999232
0.999631
0.999722
0.999815
0.999858
0.999867
0.999748
0.999853
0.999962
0.999963
0.999259
0.999526
0.999939
0.976687
0.343901
0.319796
0.303256
0.291798
0.551297
0.952572
0.946509
0.941347
0.948668
0.942072
0.91244
0.874003
0.707309
0.605928
0.602312
0.598587
0.602312
0.603986
0.615964
0.759452
0.804233
0.804881
0.924376
0.998717
0.998988
0.999273
0.999473
0.999736
0.999823
0.999858
0.999882
0.999893
0.999905
0.999937
0.999963
0.999962
0.998751
0.999457
0.999916
0.976949
0.343163
0.625205
0.964437
0.962928
0.959917
0.95911
0.942877
0.889051
0.856528
0.639604
0.589663
0.601294
0.603547
0.604135
0.606187
0.596991
0.620226
0.838077
0.997697
0.998587
0.998467
0.998378
0.998664
0.998858
0.999
0.999031
0.999055
0.99901
0.999329
0.999683
0.999831
0.999753
0.999674
0.999861
0.999959
0.999963
0.998359
0.999133
0.999885
0.97741
0.974552
0.974718
0.974121
0.961315
0.898407
0.851794
0.55344
0.556374
0.567118
0.569107
0.575635
0.614963
0.61649
0.691469
0.945745
0.998985
0.999105
0.998969
0.998791
0.998663
0.998512
0.998388
0.998479
0.998683
0.9989
0.999008
0.997838
0.996656
0.996472
0.998292
0.998778
0.998518
0.999394
0.99991
0.999939
0.994484
0.99054
0.999168
0.999856
0.978525
0.976637
0.922812
0.832944
0.540173
0.49046
0.507531
0.513821
0.568896
0.598081
0.68856
0.933793
0.999428
0.999293
0.999256
0.999179
0.999052
0.998883
0.998796
0.998843
0.99872
0.998675
0.998624
0.998375
0.99775
0.998389
0.998895
0.998647
0.998411
0.992424
0.99105
0.991186
0.993691
0.999681
0.999837
0.99991
0.963939
0.986697
0.999857
0.999916
0.978914
0.653806
0.376356
0.41022
0.415991
0.483066
0.589624
0.833086
0.999531
0.999579
0.999533
0.999516
0.999433
0.999316
0.999246
0.999239
0.999175
0.999069
0.998926
0.998616
0.998671
0.99863
0.998414
0.998089
0.997787
0.997845
0.998128
0.997466
0.989221
0.991178
0.997553
0.998436
0.998899
0.999214
0.977554
0.858227
0.939654
0.996301
0.999891
0.999951
0.976204
0.268133
0.353212
0.490593
0.831757
0.9995
0.999806
0.999868
0.999735
0.999644
0.999544
0.999501
0.999496
0.999435
0.999334
0.999219
0.9991
0.998967
0.998631
0.998097
0.997804
0.997584
0.995058
0.964091
0.943183
0.918591
0.736875
0.775289
0.968767
0.926991
0.635867
0.847597
0.99844
0.924188
0.522607
0.686982
0.975574
0.998778
0.99991
0.999965
0.969346
0.506165
0.996954
0.999416
0.99994
0.999859
0.999806
0.99976
0.999715
0.999697
0.99965
0.999557
0.999456
0.999398
0.999181
0.998712
0.998268
0.997486
0.989279
0.952143
0.863856
0.802291
0.750869
0.43941
0.376041
0.381055
0.38628
0.411896
0.520211
0.445026
0.357469
0.45803
0.62092
0.446599
0.373827
0.714485
0.994489
0.999226
0.999938
0.999968
0.968553
0.997954
0.999742
0.999841
0.999885
0.999859
0.999828
0.999804
0.999765
0.999683
0.9996
0.99942
0.999242
0.99865
0.997756
0.985254
0.921083
0.816377
0.661977
0.387092
0.38427
0.382368
0.377786
0.376041
0.372961
0.382787
0.38628
0.365237
0.364803
0.365638
0.365129
0.361956
0.368989
0.37225
0.374752
0.732713
0.9987
0.999685
0.999966
0.999968
0.968513
0.999554
0.999912
0.999926
0.999897
0.99988
0.99986
0.999801
0.999664
0.999501
0.99905
0.998326
0.996948
0.969632
0.899339
0.674067
0.218421
0.258842
0.302057
0.318708
0.620953
0.662122
0.661989
0.489185
0.361009
0.362794
0.367437
0.364017
0.364312
0.364039
0.36541
0.365319
0.367196
0.370517
0.373324
0.708248
0.998846
0.999945
0.999973
0.999973
0.969698
0.999883
0.999943
0.99993
0.999917
0.999901
0.999837
0.999615
0.99898
0.998034
0.995601
0.973953
0.87046
0.54471
0.0830246
0.121207
0.174483
0.2534
0.628586
0.698332
0.67192
0.658818
0.662291
0.665304
0.665646
0.375239
0.362958
0.362499
0.362494
0.363499
0.36305
0.381378
0.452451
0.373457
0.374897
0.633864
0.993556
0.99995
0.999973
0.999973
0.979544
0.999972
0.999959
0.999945
0.999934
0.999894
0.999548
0.998313
0.994926
0.981786
0.824561
0.533811
0.0662922
0.0643768
0.0740022
0.133163
0.5759
0.754209
0.735524
0.708153
0.615846
0.645724
0.661989
0.662035
0.44551
0.365634
0.363442
0.367751
0.511755
0.448086
0.361855
0.593157
0.936059
0.486717
0.375634
0.516708
0.969456
0.999924
0.999972
0.999973
0.974441
0.999981
0.999968
0.999961
0.999957
0.999684
0.99787
0.991867
0.828115
0.596235
0.0642358
0.0629359
0.0633337
0.063655
0.0662259
0.337399
0.789941
0.766124
0.722177
0.55946
0.557804
0.557479
0.557871
0.55828
0.595541
0.702547
0.738607
0.806012
0.936734
0.911626
0.80971
0.925262
0.988306
0.802269
0.382631
0.444607
0.916521
0.999844
0.999971
0.999972
0.954774
0.999984
0.999982
0.99998
0.999907
0.998751
0.989764
0.728581
0.177593
0.0620804
0.0624885
0.0628141
0.0631804
0.0630993
0.0631367
0.288956
0.816354
0.732483
0.565516
0.562116
0.559135
0.557423
0.736479
0.917428
0.978498
0.992501
0.992813
0.992851
0.993833
0.993132
0.991773
0.991716
0.992098
0.980323
0.466234
0.450611
0.839192
0.999763
0.999962
0.999971
0.95155
0.99999
0.999995
0.999969
0.99968
0.993305
0.668009
0.114721
0.0609344
0.0614386
0.0621364
0.0626876
0.0629047
0.0634592
0.120653
0.434581
0.882411
0.875129
0.62357
0.729571
0.955991
0.986749
0.991934
0.993673
0.993733
0.993784
0.993836
0.994091
0.993993
0.994009
0.993572
0.993159
0.993032
0.971906
0.480126
0.459473
0.839814
0.999244
0.999832
0.999859
0.951192
1
1
0.999922
0.997471
0.68519
0.116298
0.0596273
0.0593822
0.060538
0.0615135
0.0637511
0.152542
0.400111
0.757725
0.935053
0.956432
0.962786
0.969489
0.973541
0.974764
0.993527
0.99367
0.993733
0.993777
0.99382
0.993973
0.994098
0.994093
0.994099
0.993932
0.993509
0.993157
0.786344
0.461752
0.459803
0.881686
0.997971
0.999779
0.998854
0.951152
1
1.0001
0.998871
0.852247
0.172526
0.0592114
0.0575702
0.0584801
0.0591123
0.128304
0.479787
0.875368
0.98015
0.971545
0.968131
0.896817
0.776635
0.667575
0.67653
0.614282
0.571978
0.715374
0.771365
0.829882
0.868621
0.967422
0.994097
0.994105
0.994112
0.994115
0.988331
0.828957
0.468808
0.463371
0.556742
0.941705
0.998011
0.999779
0.996142
0.951186
1.00006
0.99988
0.995794
0.276692
0.0572074
0.0568947
0.057424
0.0575741
0.221437
0.7791
0.991209
0.989594
0.987978
0.913965
0.604742
0.295543
0.13013
0.0785366
0.0796535
0.186372
0.108803
0.100099
0.112409
0.153979
0.428618
0.929936
0.994097
0.994095
0.994101
0.80269
0.598068
0.481198
0.470106
0.463371
0.833244
0.985046
0.999409
0.999779
0.99249
0.979072
1.00012
1.00018