/*--------------------------------*- C++ -*----------------------------------*\
  =========                 |
  \\      /  F ield         | OpenFOAM: The Open Source CFD Toolbox
   \\    /   O peration     | Website:  https://openfoam.org
    \\  /    A nd           | Version:  8
     \\/     M anipulation  |
\*---------------------------------------------------------------------------*/
FoamFile
{
    version     2.0;
    format      ascii;
    class       volScalarField;
    location    "3.1";
    object      p_rgh;
}
// * * * * * * * * * * * * * * * * * * * * * * * * * * * * * * * * * * * * * //

dimensions      [1 -1 -2 0 0 0 0];

internalField   nonuniform List<scalar> 
9150
(
2557.41
2530.4
2504.9
2487.7
2479.39
2479.38
2487.67
2504.85
2530.34
2557.36
2548.16
2528.6
2512.95
2501.15
2495.16
2495.15
2501.12
2512.92
2528.56
2548.12
2538.5
2524.93
2516.39
2508.63
2504.52
2504.52
2508.61
2516.37
2524.89
2538.46
2533.41
2523.38
2517.92
2512.56
2509.59
2509.58
2512.54
2517.9
2523.35
2533.38
2531.75
2522.81
2518.24
2514.07
2511.62
2511.61
2514.05
2518.22
2522.79
2531.71
2092.92
2088.95
2113.96
2128.12
2134.67
2134.51
2127.68
2113.31
2088.03
2091.64
2282.39
2258.34
2252.92
2251.67
2251.76
2251.67
2251.44
2252.56
2257.86
2281.91
2406.32
2375.08
2359.19
2349.3
2344.63
2344.59
2349.17
2358.99
2374.85
2406.1
2506.48
2464.41
2436.66
2419.31
2410.81
2410.78
2419.23
2436.55
2464.29
2506.38
2577.01
2524.19
2485.58
2463.54
2453.39
2453.38
2463.49
2485.51
2524.12
2576.96
1918.07
1944.37
1933.4
1941.14
1938.29
1937.26
1942.78
1934.16
1944.36
1903.67
1942.94
1955.62
1937.1
1942.23
1938.98
1938.01
1942.87
1933.1
1952.58
1932.89
1917.79
1946.47
1915.05
1920.89
1923.83
1923.54
1920.54
1911.42
1943.31
1911.25
1757.72
1880.81
1897.72
1915.63
1931.44
1931.2
1914.45
1894.98
1878.95
1752.26
1630.33
1868.62
1964.55
1994.46
2009.98
2009.75
1993.66
1963.28
1867.19
1626.43
1840.51
1840.48
1840.46
1840.45
1840.45
1840.46
1840.48
1840.52
1840.58
1840.65
1840.49
1840.43
1840.38
1840.34
1840.32
1840.32
1840.33
1840.36
1840.4
1840.45
1840.51
1840.44
1840.37
1840.31
1840.27
1840.24
1840.23
1840.22
1840.23
1840.25
1840.45
1840.36
1840.28
1840.2
1840.15
1840.1
1840.07
1840.04
1840.03
1840.04
1840.35
1840.25
1840.16
1840.07
1840
1839.94
1839.89
1839.86
1839.83
1839.82
1840.2
1840.09
1839.99
1839.9
1839.82
1839.75
1839.69
1839.64
1839.61
1839.58
1840
1839.89
1839.78
1839.69
1839.6
1839.53
1839.46
1839.41
1839.36
1839.33
1839.76
1839.64
1839.54
1839.44
1839.35
1839.27
1839.2
1839.14
1839.09
1839.05
1839.47
1839.35
1839.25
1839.15
1839.06
1838.98
1838.91
1838.85
1838.79
1838.75
1839.13
1839.02
1838.91
1838.82
1838.73
1838.66
1838.59
1838.52
1838.47
1838.42
1838.74
1838.63
1838.54
1838.45
1838.37
1838.3
1838.23
1838.17
1838.11
1838.07
1838.29
1838.2
1838.11
1838.03
1837.96
1837.89
1837.83
1837.77
1837.72
1837.68
1837.78
1837.7
1837.62
1837.55
1837.48
1837.42
1837.37
1837.32
1837.28
1837.25
1837.2
1837.12
1837.05
1836.99
1836.93
1836.88
1836.84
1836.8
1836.78
1836.76
1836.52
1836.44
1836.38
1836.33
1836.28
1836.24
1836.21
1836.19
1836.18
1836.18
1835.72
1835.65
1835.59
1835.54
1835.5
1835.48
1835.46
1835.45
1835.46
1835.49
1834.78
1834.71
1834.65
1834.61
1834.57
1834.55
1834.54
1834.56
1834.59
1834.64
1833.67
1833.6
1833.53
1833.48
1833.45
1833.44
1833.46
1833.51
1833.59
1833.71
1832.35
1832.27
1832.2
1832.14
1832.1
1832.09
1832.11
1832.17
1832.27
1832.41
1830.83
1830.72
1830.63
1830.55
1830.49
1830.47
1830.48
1830.53
1830.61
1830.74
1829.06
1828.92
1828.8
1828.7
1828.62
1828.58
1828.57
1828.59
1828.65
1828.75
1827.05
1826.86
1826.71
1826.57
1826.46
1826.39
1826.36
1826.36
1826.4
1826.49
1824.38
1824.14
1824.06
1824.17
1824.03
1823.92
1823.86
1823.84
1823.86
1823.92
1821.59
1821.93
1821.67
1821.47
1821.29
1821.15
1821.06
1821.01
1821
1821.05
1819.35
1819.01
1818.69
1818.12
1817.68
1817.94
1817.94
1817.86
1817.83
1817.85
1816.51
1815.91
1810.45
1808.23
1812.39
1814.74
1814.54
1814.41
1814.34
1814.32
1812.86
1804.77
1804.14
1803.88
1810.74
1811.14
1810.86
1810.65
1810.51
1810.45
1801.71
1800.42
1799.89
1804.09
1807.65
1807.19
1806.82
1806.53
1806.32
1806.19
1797.02
1796.34
1797.02
1804.13
1803.47
1802.92
1802.45
1802.06
1801.76
1801.55
1792.86
1791.94
1798.2
1799.84
1799.07
1798.38
1797.78
1797.26
1796.84
1796.51
1788.81
1790.87
1796.33
1795.34
1794.44
1793.6
1792.84
1792.17
1791.58
1791.1
1789.43
1792.38
1791.89
1790.75
1789.68
1788.67
1787.72
1786.85
1786.07
1785.38
1790.27
1788.86
1787.49
1786.18
1784.91
1783.69
1782.53
1781.43
1780.4
1779.44
1786.23
1784.68
1783.17
1781.68
1780.23
1778.81
1777.42
1776.06
1774.73
1773.44
1782.37
1780.7
1779.05
1777.42
1775.81
1774.21
1772.61
1771
1769.36
1767.68
1778.77
1777
1775.25
1773.51
1771.77
1770.02
1768.24
1766.42
1764.49
1762.34
1775.49
1773.65
1771.84
1770.04
1768.27
1766.52
1764.78
1763.05
1761.3
1759.26
1772.5
1770.61
1768.74
1766.9
1765.09
1763.29
1761.45
1759.53
1757.69
1757.37
1769.76
1767.78
1765.8
1763.81
1761.74
1759.45
1756.97
1755.25
1661
1259.98
1767.36
1765.32
1763.29
1761.22
1758.92
1756.52
1755.77
1528.15
1170.29
1166.63
1765.27
1763.13
1760.99
1758.68
1756.14
1754.86
1580.09
1142.61
1146.95
1155.32
1763.32
1760.87
1758.27
1755.33
1752.72
1715.33
1285.87
1111.72
1140.84
1593.33
1762.07
1759.38
1756.6
1753.83
1752.98
1606.71
1099.43
1085.11
1290.79
1756.26
1760.65
1756.87
1752.44
1747.09
1742.17
1448.54
1049.7
1056.51
1493.36
1755.9
1760.2
1755.91
1751.01
1745.2
1737.85
1358.07
1028.33
1031.94
1520.09
1754.08
1761.61
1757.41
1752.58
1746.71
1740.4
1370.31
1006.37
1001.97
1416.64
1750.46
1764.82
1761.58
1758.25
1754.84
1752.09
1500.81
980.807
978.703
1066.04
1699.44
1768
1765.04
1761.98
1758.77
1755.29
1710.67
1036.45
959.102
955.595
1325.81
1771.88
1769.26
1766.61
1763.93
1760.92
1756.36
1307.51
942.694
939.536
932.894
1776.22
1773.94
1771.63
1769.34
1767.04
1764.07
1706.57
1052.55
922.756
915.437
1780.35
1778.63
1776.84
1775
1773.2
1771.29
1767.55
1495.97
926.527
900.083
1785.94
1784.34
1782.82
1781.31
1779.8
1778.36
1776.63
1772.07
1357.69
892.333
1791.57
1790.3
1789.13
1788.01
1786.86
1785.68
1784.51
1782.97
1778.35
1354.11
1795.72
1795.57
1795.22
1794.79
1794.22
1793.46
1792.59
1791.64
1790.32
1786.69
1802.43
1802.65
1802.68
1802.65
1802.47
1802.09
1801.51
1800.8
1800
1798.9
1810.14
1810.8
1810.95
1811.17
1811.33
1811.28
1811.04
1810.65
1810.15
1809.58
1814.62
1820.43
1821.38
1821.52
1821.43
1821.26
1821.09
1820.9
1820.69
1820.46
1041.8
1333.48
1747.06
1832.95
1833.24
1832.15
1831.44
1831.18
1831.13
1831.21
862.128
864.548
964.359
1460.53
1838.98
1840.84
1840.36
1840.3
1840.49
1840.77
862.217
862.875
864.876
1268.29
1828.96
1847.48
1848.21
1848.65
1848.9
1849.08
857.78
856.218
1199.14
1751.09
1849.05
1852.22
1854.76
1856.61
1857.11
1857.43
1332.38
1581.34
1824.69
1824.02
1766.52
1729.35
1814.34
1872.39
1874.47
1558.72
1846.46
1854.72
1856.72
1771.31
1313.88
1159.94
1225.3
1183.51
1094.88
1096.25
1859.42
1863.3
1867.82
1816.3
1196.03
1157.97
1158.14
1168.01
1622.78
1854.21
1639.87
1861.76
1866.68
1870.51
1683.92
1651.73
1736.14
1852.08
1855.53
1858.94
1337.78
1396.97
1457.63
1612.54
1857.7
1861.95
1862.76
1865.62
1805.42
1658.68
1334.47
1336.14
1338.18
1379.63
1827.45
1868.22
1776.65
1380.06
943.818
959.127
1339.87
1463.33
1594.03
1596.16
1498.31
908.462
861.087
870.749
880.155
985.889
1828.72
1709.12
1261.22
975.596
843.357
837.71
843.782
852.225
1088.01
1808.54
1210.6
963.398
879.296
881.406
999.251
819.412
824.832
1162.37
1852.32
1899.34
953.558
949.99
1151.16
1237.69
1178.75
817.442
1158.7
1842.29
1888.49
1881.44
1326.65
1471.85
1470.55
834.09
760.06
1032.77
1783.79
1887.66
1878.06
1863.31
1781.74
1017.14
548.564
564.189
748.993
1716.87
1888.09
1875.66
1859.03
1840.73
1065.24
515.01
526.621
536.578
1568.53
1875.55
1868.61
1853.63
1836.06
1815.98
483.51
490.868
499.304
1091.77
1838.04
1861.51
1849.45
1833.21
1814.16
1792.24
464.461
470.647
511.604
1640.13
1855.78
1847.23
1832.33
1814.61
1794.07
1770.75
443.895
450.803
1169.83
1842.61
1846.87
1834.1
1817.86
1798.78
1776.89
1752.59
427.315
427.882
1601.43
1849.68
1839.21
1823.82
1806.06
1785.69
1762.81
1738.05
412.221
868.14
1802
1841.96
1829.5
1813.98
1795.86
1775.07
1752.06
1727.61
372.948
1310.21
1839.65
1834.73
1822.86
1807.64
1789.28
1768.22
1745.36
1721.61
353.917
1608.29
1854.05
1840.11
1824.09
1806.37
1786.46
1764.71
1741.98
1718.96
718.669
1798.18
1847.51
1834.94
1820.27
1803.13
1783.58
1762.43
1740.68
1718.72
963.287
1836.05
1842.77
1831.2
1817.47
1801.07
1782.17
1761.77
1740.59
1718.89
1178.97
1844.96
1839.31
1828.79
1816.37
1801.28
1783.83
1764.85
1744.71
1724.99
1349.39
1840.02
1835.95
1828.15
1818.18
1805.66
1791.14
1775.35
1758.85
1745.66
1450.26
1840.77
1836.98
1830.73
1822.88
1813.22
1802.52
1791.58
1781.59
1777.65
1511.7
1842.93
1840.03
1835.06
1828.47
1820.5
1812.08
1804.29
1798.97
1795.04
1561.9
1853.22
1848.67
1843.12
1836.14
1828.11
1819.49
1810.76
1802.51
1705.44
1606.49
1865.94
1859.26
1852.77
1845.46
1837.85
1829.95
1822.21
1815.82
1645.35
1640.35
1874.27
1867.36
1860.6
1853.53
1846.96
1840.67
1835.5
1833.25
1585.74
1662.11
1880.28
1872.39
1864.73
1857.71
1851.91
1847.02
1844.65
1846.73
1516.92
1669.24
1878.62
1870.23
1862.73
1856.69
1851.66
1846.88
1843.41
1839.66
1407.48
1604.81
1857.7
1859.48
1856.44
1853.79
1850.79
1846.91
1843.07
1837.5
1320.42
1555.74
1852.74
1856.17
1854.94
1854.26
1852.87
1849.9
1846.29
1840.1
1303.87
1508.65
1852.91
1857.16
1857.32
1857.91
1858.37
1856.85
1854.62
1851.95
1362.47
1460.69
1855.36
1860.61
1863.05
1864.83
1866.92
1866.85
1866.24
1865.28
1449.94
1435.26
1861.07
1868.81
1873.56
1875.83
1878.54
1878.78
1878.97
1878.51
1540.73
1462.24
1879.86
1885.95
1890.69
1891.71
1893.63
1893.08
1893.36
1891.38
1634.17
1643.77
1913.58
1909.16
1910.9
1909.66
1910.31
1911.3
1914.74
1914.26
1729.72
1826.76
1938.63
1925.81
1928.05
1925.67
1925.68
1929.72
1935.56
1947.97
1821.06
1840.74
1840.86
1840.99
1841.13
1841.28
1841.44
1841.62
1841.8
1841.98
1842.16
1842.35
1842.52
1842.69
1842.84
1842.97
1843.07
1843.14
1843.19
1843.21
1843.21
1843.22
1843.24
1843.31
1843.41
1843.56
1843.73
1843.91
1844.07
1844.22
1844.34
1844.42
1844.46
1844.46
1844.42
1844.35
1844.27
1844.18
1844.12
1844.07
1844.06
1840.52
1840.6
1840.7
1840.81
1840.93
1841.06
1841.19
1841.34
1841.49
1841.64
1841.79
1841.93
1842.07
1842.19
1842.3
1842.39
1842.46
1842.52
1842.56
1842.6
1842.65
1842.72
1842.84
1842.99
1843.19
1843.39
1843.57
1843.74
1843.89
1844.01
1844.1
1844.15
1844.17
1844.16
1844.12
1844.08
1844.04
1844
1843.96
1843.91
1840.29
1840.34
1840.4
1840.48
1840.57
1840.67
1840.78
1840.9
1841.02
1841.14
1841.27
1841.39
1841.51
1841.62
1841.73
1841.82
1841.91
1841.98
1842.04
1842.09
1842.14
1842.19
1842.26
1842.39
1842.62
1842.93
1843.22
1843.44
1843.62
1843.77
1843.89
1843.98
1844.03
1844.03
1844.01
1843.98
1843.96
1843.95
1843.86
1843.71
1840.05
1840.08
1840.12
1840.18
1840.25
1840.33
1840.41
1840.51
1840.62
1840.73
1840.85
1840.97
1841.1
1841.22
1841.35
1841.47
1841.58
1841.68
1841.76
1841.83
1841.86
1841.73
1840.8
1839.68
1839.74
1841.36
1842.79
1843.41
1843.52
1843.57
1843.77
1843.89
1843.97
1843.96
1843.88
1843.82
1843.81
1843.81
1843.71
1843.49
1839.82
1839.83
1839.86
1839.89
1839.95
1840.01
1840.09
1840.18
1840.27
1840.38
1840.5
1840.64
1840.78
1840.93
1841.09
1841.26
1841.43
1841.62
1841.81
1842.02
1842.23
1841.21
1835.84
1836.2
1836.14
1835.75
1836.33
1841.33
1840.47
1841.38
1843.8
1843.9
1843.92
1843.86
1842.99
1842.38
1842.25
1842.81
1843.08
1842.92
1839.57
1839.57
1839.58
1839.61
1839.64
1839.69
1839.76
1839.83
1839.93
1840.03
1840.16
1840.3
1840.46
1840.64
1840.84
1841.06
1841.29
1841.54
1841.82
1842.15
1842.54
1842.09
1836.26
1835.01
1835.01
1835.11
1835.24
1835.6
1835.59
1840.33
1844.3
1844.22
1844.08
1844.05
1841.8
1840.49
1840.33
1839.89
1839.55
1839.19
1839.3
1839.29
1839.29
1839.3
1839.32
1839.36
1839.4
1839.46
1839.54
1839.63
1839.75
1839.89
1840.07
1840.28
1840.52
1840.76
1841.04
1841.36
1841.72
1842.16
1842.67
1843.31
1844.18
1845.03
1840.48
1834.11
1834.03
1837.04
1844
1844.49
1844.23
1844.08
1844.01
1843.87
1843.43
1841.98
1840.64
1839.77
1838.9
1838.59
1839.01
1838.99
1838.97
1838.97
1838.97
1838.99
1839.01
1839.04
1839.09
1839.15
1839.23
1839.35
1839.54
1839.79
1840.06
1840.32
1840.61
1840.93
1841.29
1841.7
1842.14
1842.63
1843.16
1843.63
1843.91
1843.98
1843.92
1843.97
1843.94
1843.67
1843.52
1843.57
1843.57
1843.58
1843.68
1843.74
1843.74
1843.63
1842.39
1839.56
1838.7
1838.67
1838.64
1838.62
1838.6
1838.59
1838.58
1838.57
1838.56
1838.54
1838.52
1838.6
1838.82
1839.13
1839.46
1839.78
1840.08
1840.38
1840.72
1841.06
1841.43
1841.8
1842.17
1842.49
1842.71
1842.83
1842.9
1842.83
1842.59
1842.56
1842.53
1842.77
1842.79
1842.85
1842.92
1842.96
1842.92
1842.76
1842.45
1842
1838.37
1838.33
1838.29
1838.26
1838.22
1838.19
1838.14
1838.08
1838
1837.85
1837.15
1836.3
1836.59
1838.28
1838.79
1839.14
1839.45
1839.74
1840.01
1840.3
1840.59
1840.87
1841.14
1841.39
1841.58
1841.72
1841.8
1841.66
1841.52
1841.46
1841.35
1841.13
1841.01
1841.76
1841.94
1842.01
1841.98
1841.82
1841.47
1841.03
1838.02
1837.98
1837.94
1837.91
1837.87
1837.83
1837.79
1837.73
1837.68
1837.54
1831.25
1815.92
1818.13
1837.85
1838.37
1838.66
1838.88
1839.09
1839.29
1839.48
1839.69
1839.91
1840.1
1840.26
1840.45
1840.59
1840.69
1840.76
1840.81
1840.74
1838.03
1833.35
1832.37
1836.81
1840.12
1840.87
1840.91
1840.78
1840.48
1840.02
1837.64
1837.61
1837.58
1837.55
1837.53
1837.51
1837.49
1837.47
1836.58
1819.56
1808.3
1809.38
1809.81
1830.12
1838.55
1838.54
1838.54
1838.56
1838.59
1838.66
1838.78
1838.94
1839.1
1839.07
1839
1839.41
1839.59
1839.69
1839.8
1839.76
1832.74
1829.9
1829.83
1829.55
1830.1
1833.81
1836.87
1839.05
1839.3
1839.01
1837.22
1837.2
1837.18
1837.17
1837.16
1837.15
1837.1
1833.05
1808.36
1805.42
1806.08
1806.67
1815.88
1838.74
1838.52
1838.31
1838.13
1837.96
1837.8
1837.72
1837.76
1837.91
1838.08
1837.95
1837.84
1837.88
1838.42
1838.52
1838.67
1838.84
1834.68
1828.12
1828.08
1828
1827.9
1827.83
1827.65
1830.93
1835.94
1838.01
1836.75
1836.75
1836.76
1836.78
1836.82
1836.85
1832.36
1805.02
1802.47
1803.05
1803.59
1815.73
1839.21
1838.77
1838.38
1838.04
1837.69
1837.26
1836.77
1836.48
1836.5
1836.78
1837.08
1837.25
1836.9
1836.45
1836.98
1837.17
1837.37
1837.62
1837.89
1835.84
1830.47
1827.48
1826.32
1825.97
1825.93
1825.68
1831.08
1837
1836.19
1836.22
1836.26
1836.34
1836.42
1832.64
1804.53
1799.51
1800.11
1800.68
1818.75
1839.09
1838.79
1838.47
1838.13
1837.77
1837.33
1836.52
1831.18
1819.14
1818.16
1832.53
1836.48
1836.75
1836.22
1835.04
1833.97
1834.8
1835.82
1836.19
1836.41
1836.59
1836.82
1836.88
1836.11
1832.96
1829.1
1829.07
1831.2
1835.5
1835.52
1835.57
1835.62
1835.64
1828.3
1798.64
1796.5
1797.12
1797.72
1825.76
1838.71
1838.53
1838.38
1838.22
1838.06
1837.9
1837.65
1835.29
1802.05
1786.01
1785.37
1791.94
1819.61
1831.17
1832.14
1811.65
1798.3
1801.56
1817.75
1827.77
1831.91
1834.54
1835.05
1835.15
1835.04
1835.07
1834.97
1834.67
1834.32
1832.2
1834.71
1834.79
1834.73
1815.59
1793.7
1794.08
1794.35
1797.21
1832.96
1838.07
1837.95
1837.91
1837.9
1837.92
1837.98
1838.11
1838.27
1831.51
1785.93
1783.15
1782.67
1782.02
1781.14
1782.16
1790.65
1781.6
1781.61
1780.87
1780.05
1780.16
1790.66
1803.63
1822.31
1827.79
1828.96
1831.24
1833.27
1833.39
1833.16
1829.3
1833.89
1834.14
1831.72
1798.66
1791.71
1791.91
1796.55
1835.16
1836.96
1836.92
1836.95
1837.03
1837.15
1837.31
1837.54
1837.85
1838.29
1838.73
1823.03
1787.1
1780.38
1780.16
1780.13
1780.14
1780.45
1782.21
1779.38
1779.12
1778.58
1778.03
1777.54
1777.14
1778.09
1781.85
1781.62
1791.14
1815.76
1832.46
1832.37
1828.2
1832.63
1832.98
1833.46
1830.82
1801.53
1793.34
1831.5
1834.86
1835.12
1835.34
1835.57
1835.8
1836.06
1836.36
1836.71
1837.13
1837.64
1838.3
1839.2
1840.14
1823.15
1794.58
1779.82
1792.64
1826.45
1836.78
1816.48
1784.81
1776.96
1776.36
1787.69
1792.99
1778.6
1773.57
1772.44
1771.55
1772.35
1827.29
1832.02
1827.83
1830.92
1831.21
1831.58
1831.99
1832.31
1832.42
1832.59
1832.91
1833.32
1833.67
1833.99
1834.32
1834.67
1835.04
1835.45
1835.86
1836.06
1836.46
1837.38
1838.01
1838.36
1838.4
1838.24
1838.56
1839.1
1839.5
1839.34
1838.76
1822.23
1823.67
1838.71
1838.69
1832.52
1803.54
1775.58
1768.31
1767.22
1788.08
1830.27
1827.97
1828.91
1829.13
1829.41
1829.72
1830.02
1830.31
1830.65
1831.02
1831.41
1831.8
1832.19
1832.61
1833.03
1833.47
1833.93
1834.35
1834.31
1834.77
1835.23
1836.04
1836.56
1836.75
1836.92
1837.16
1837.44
1837.56
1837.19
1837.03
1837.05
1836.99
1836.91
1836.65
1836.17
1835.65
1829.74
1779.1
1764.41
1763.55
1827.48
1829.3
1826.62
1826.82
1827.07
1827.36
1827.68
1828.03
1828.41
1828.82
1829.25
1829.7
1830.17
1830.65
1831.14
1831.65
1832.16
1832.67
1832.94
1833.05
1833.53
1834.1
1834.92
1835.22
1835.47
1835.7
1835.89
1835.97
1834.12
1832
1832.53
1833.39
1834.25
1835.14
1834.72
1834.23
1833.7
1829.67
1762.52
1762.11
1822.21
1827.9
1824.03
1824.22
1824.46
1824.76
1825.1
1825.48
1825.9
1826.36
1826.85
1827.36
1827.9
1828.45
1829.01
1829.58
1830.15
1830.71
1831.26
1831.69
1831.93
1832.71
1833.15
1833.51
1833.82
1834.09
1834.3
1834.44
1832.55
1829.81
1829.74
1829.56
1831.5
1833.72
1833.32
1832.85
1832.31
1831.71
1799.33
1759.37
1807.64
1827.64
1821.15
1821.32
1821.57
1821.87
1822.23
1822.65
1823.12
1823.63
1824.17
1824.75
1825.36
1825.98
1826.62
1827.26
1827.9
1828.53
1829.14
1829.73
1830.28
1830.79
1831.26
1831.67
1832.02
1832.32
1832.56
1832.74
1832.84
1831.18
1828.76
1829.6
1832.14
1832.16
1831.75
1831.19
1830.53
1829.69
1827.77
1753.79
1768.48
1825.85
1817.94
1818.1
1818.35
1818.67
1819.05
1819.5
1820.02
1820.58
1821.2
1821.85
1822.53
1823.24
1823.96
1824.69
1825.41
1826.12
1826.82
1827.48
1828.1
1828.68
1829.2
1829.67
1830.08
1830.43
1830.7
1830.92
1831.06
1831.13
1831.12
1831.06
1830.93
1830.73
1830.46
1830.08
1829.64
1829.15
1827.4
1758.31
1753.42
1821.89
1814.38
1814.54
1814.78
1815.11
1815.52
1816
1816.56
1817.19
1817.88
1818.61
1819.38
1820.18
1821
1821.83
1822.66
1823.47
1824.26
1825.01
1825.72
1826.38
1826.98
1827.52
1827.99
1828.39
1828.72
1828.98
1829.17
1829.29
1829.35
1829.37
1829.32
1829.22
1829.05
1828.81
1828.49
1828.08
1826.45
1803.99
1752.13
1821.74
1810.47
1810.6
1810.82
1811.15
1811.58
1812.1
1812.71
1813.41
1814.17
1814.99
1815.86
1816.77
1817.71
1818.65
1819.6
1820.53
1821.43
1822.3
1823.12
1823.88
1824.57
1825.19
1825.74
1826.2
1826.58
1826.89
1827.13
1827.31
1827.44
1827.54
1827.59
1827.59
1827.52
1827.37
1827.12
1826.74
1825.52
1810.84
1748.85
1821.02
1806.16
1806.24
1806.44
1806.76
1807.2
1807.76
1808.41
1809.17
1810.02
1810.94
1811.93
1812.96
1814.02
1815.11
1816.19
1817.26
1818.31
1819.31
1820.26
1821.14
1821.94
1822.66
1823.29
1823.82
1824.27
1824.62
1824.91
1825.13
1825.33
1825.52
1825.69
1825.84
1825.92
1825.89
1825.73
1825.38
1823.44
1803.17
1761.83
1818.55
1801.43
1801.45
1801.6
1801.9
1802.33
1802.9
1803.61
1804.43
1805.37
1806.4
1807.51
1808.68
1809.9
1811.14
1812.39
1813.63
1814.84
1816
1817.11
1818.14
1819.08
1819.91
1820.64
1821.26
1821.75
1822.15
1822.45
1822.69
1822.92
1823.2
1823.56
1823.93
1824.22
1824.38
1824.34
1824.05
1820.45
1803.93
1816.02
1815.31
1796.29
1796.2
1796.27
1796.51
1796.92
1797.49
1798.23
1799.13
1800.15
1801.3
1802.55
1803.88
1805.28
1806.7
1808.14
1809.58
1810.99
1812.35
1813.64
1814.85
1815.95
1816.94
1817.8
1818.51
1819.07
1819.45
1819.67
1819.89
1820.03
1820.38
1821.05
1821.82
1822.47
1822.92
1823.1
1822.96
1820.21
1816.29
1814.76
1813.29
1790.72
1790.49
1790.43
1790.57
1790.92
1791.48
1792.25
1793.2
1794.33
1795.61
1797.02
1798.53
1800.11
1801.75
1803.41
1805.07
1806.71
1808.3
1809.82
1811.25
1812.57
1813.75
1814.77
1815.62
1816.25
1816.63
1816.38
1815.63
1816.18
1816.49
1817.73
1819.31
1820.56
1821.4
1821.83
1821.76
1819.29
1810.49
1799.12
1812.04
1784.79
1784.32
1784.06
1784.03
1784.28
1784.8
1785.59
1786.61
1787.84
1789.26
1790.84
1792.56
1794.37
1796.25
1798.16
1800.07
1801.97
1803.83
1805.62
1807.33
1808.91
1810.36
1811.64
1812.71
1813.53
1814.04
1813.76
1806.96
1787.25
1763.29
1793.84
1816.43
1818.7
1820.03
1820.77
1820.9
1814.81
1784.03
1782.13
1808.54
1778.54
1777.74
1777.14
1776.83
1776.89
1777.35
1778.17
1779.27
1780.6
1782.18
1783.98
1785.94
1788.02
1790.17
1792.36
1794.57
1796.76
1798.92
1801.02
1803.05
1804.98
1806.8
1808.48
1809.99
1811.31
1812.45
1812.98
1799.41
1669.57
1619.21
1654.53
1780.53
1817.53
1819.12
1819.95
1820.2
1812.71
1780.84
1779.14
1779.47
1772.12
1770.8
1769.66
1768.88
1768.7
1769.17
1770.13
1771.34
1772.79
1774.55
1776.56
1778.76
1781.09
1783.54
1786.04
1788.55
1791.06
1793.55
1795.98
1798.36
1800.68
1802.91
1805.06
1807.11
1809.09
1811.06
1812.72
1787.27
1610.78
1610.01
1609.5
1624.12
1780.57
1817.79
1818.9
1819.05
1817.8
1793.28
1776.75
1774.95
1765.82
1763.59
1760.74
1758.62
1757.49
1758.69
1760.84
1762.33
1763.99
1766.23
1768.95
1771.48
1774.03
1776.67
1779.38
1782.15
1784.94
1787.73
1790.49
1793.21
1795.88
1798.51
1801.1
1803.64
1806.17
1808.75
1811.27
1804.44
1675.26
1603.43
1603.1
1602.87
1621.97
1793.06
1817.39
1817.73
1817.38
1810.64
1776.79
1772.82
1759.61
1755.94
1748.59
1693.38
1615.87
1584.81
1613.85
1633.96
1616.53
1659.15
1736.66
1759.74
1766.19
1769.7
1772.74
1775.68
1778.64
1781.63
1784.63
1787.63
1790.6
1793.56
1796.5
1799.44
1802.4
1805.4
1808.51
1811.52
1794.58
1637.76
1596.93
1597.03
1597.25
1637.43
1811
1816.26
1815.62
1808.57
1797
1786.23
1756.08
1752.54
1671.93
1260.19
1173.97
1175.13
1199.15
1237.05
1200.33
1221.11
1364.9
1482.18
1610.41
1717.86
1757.77
1768.63
1772.24
1775.42
1778.58
1781.74
1784.92
1788.11
1791.31
1794.55
1797.81
1801.11
1804.47
1807.9
1811.25
1809.59
1649.09
1591.25
1591.75
1592.69
1679.7
1813.65
1814.01
1805.5
1794.85
1791.01
1703.94
1277.41
1169.16
1171.96
1173.05
1171.85
1171.05
1172.78
1176.21
1180.25
1186.08
1193.68
1202
1399.31
1516.59
1656.75
1750.65
1768.27
1772.2
1775.66
1778.93
1782.24
1785.61
1789.04
1792.51
1796.02
1799.57
1803.12
1806.66
1810.02
1812.46
1682.8
1586.62
1588.13
1589.93
1735.08
1811.35
1804.87
1785.1
1775.06
1164.07
1164.72
1165.05
1161.82
1306.47
1595.42
1594.35
1440.13
1435.21
1517.25
1509.3
1392
1337.16
1338.21
1345.15
1348.06
1514.38
1653.7
1743.89
1769.16
1772.73
1776.06
1779.49
1783.02
1786.63
1790.3
1794.01
1797.7
1801.35
1804.9
1808.22
1810.87
1727.8
1587.68
1586.58
1600.63
1762.33
1801.18
1795.62
1771.35
1160.72
1241.91
1630.33
1707.47
1748.04
1767.13
1767.03
1764.59
1762.8
1763.36
1764.5
1764.6
1704.22
1569.91
1495.29
1449.33
1448.8
1451.96
1553.08
1712.86
1766.38
1769.68
1773.06
1776.6
1780.26
1784.03
1787.86
1791.71
1795.5
1799.17
1802.65
1805.88
1808.54
1764.67
1602.92
1595.68
1629.11
1785.81
1792.48
1767.89
1582.33
1735.55
1762.64
1760.46
1758.17
1756.6
1755.47
1754.32
1753.5
1753.37
1753.77
1754.38
1754.97
1755.62
1756.8
1755.61
1589.34
1527.87
1531.53
1536.45
1753.4
1762.93
1766.26
1769.8
1773.39
1776.6
1779.59
1784.75
1789.22
1793.04
1796.64
1799.95
1802.96
1805.5
1781.19
1614.35
1609.52
1693.93
1787.95
1771.27
1762.17
1757.48
1754.37
1751.81
1749.56
1747.75
1746.35
1745.29
1744.63
1744.39
1744.49
1744.87
1745.47
1746.34
1747.53
1749.01
1750.6
1751.65
1621.73
1555.02
1706.85
1755.27
1758.86
1762.59
1765.92
1766.28
1769.53
1774.1
1781.16
1786.43
1790.4
1793.84
1796.91
1799.49
1801.35
1782.56
1614.68
1637.06
1763.37
1775.04
1751.76
1748.96
1746.33
1743.74
1741.44
1739.57
1738.13
1737.08
1736.42
1736.14
1736.19
1736.51
1737.06
1737.84
1738.83
1740.02
1741.35
1742.72
1743.78
1744.11
1713.28
1746.9
1751.66
1755.66
1757.94
1758.45
1762.66
1766.92
1771.13
1776.3
1782.17
1787.51
1791.28
1793.97
1795.95
1796.86
1769.98
1639.87
1684.3
1774.21
1748.84
1744.3
1740.58
1737.4
1734.79
1732.73
1731.17
1730.06
1729.36
1729.04
1729.05
1729.34
1729.88
1730.62
1731.53
1732.55
1733.45
1734.69
1735.81
1736.72
1737.87
1735.73
1742.2
1748.67
1751.36
1751.63
1756.02
1760.51
1765.04
1769.49
1773.7
1778.36
1784.97
1789.39
1791.78
1793.45
1794.17
1696.36
1667.22
1769.46
1746.26
1740.81
1736.38
1732.69
1729.73
1727.43
1725.73
1724.54
1723.8
1723.46
1723.47
1723.76
1724.3
1725.04
1725.92
1726.92
1727.34
1724.68
1729
1729.85
1730.93
1731.37
1736.6
1741.54
1744.76
1748.26
1751.09
1754.81
1759.39
1764.19
1768.8
1773.14
1777.19
1784.9
1788.47
1790.48
1791.52
1790.07
1665.13
1757.85
1742.56
1736.82
1732.33
1728.66
1725.72
1723.46
1721.79
1720.66
1719.99
1719.72
1719.8
1720.16
1720.75
1721.49
1722.36
1723.26
1724.01
1718.21
1647.23
1628.42
1696.07
1722.58
1729.27
1734.97
1738.83
1742.19
1747.56
1753.09
1758.65
1762.02
1765.1
1769.75
1774.28
1779.73
1786.83
1789.57
1791.54
1790.57
1687.43
1716.81
1738.34
1733.5
1729.5
1726.17
1723.47
1721.37
1719.86
1718.87
1718.34
1718.18
1718.24
1718.72
1719.65
1720.46
1721.32
1722.2
1722.57
1721.68
1541.96
1073.81
1213.22
1518.9
1653.91
1710.75
1730.48
1736.29
1743.02
1750.19
1756.07
1761.76
1767.2
1769.35
1772.88
1778.8
1786.66
1790.03
1792.63
1793.19
1781.97
1713.26
1738.75
1734.14
1729.7
1726.25
1723.6
1721.63
1720.29
1719.5
1719.22
1719.32
1719.11
1716.26
1712.55
1718.27
1723.44
1725.64
1728.72
1729.64
1549.27
883.339
822.567
920.372
1060.29
1239.26
1426.23
1607.57
1720.21
1745.51
1753.85
1760.46
1766.62
1772.61
1776.31
1783.22
1788.31
1792.37
1795.64
1797.85
1798.74
1716.93
1473.25
1735.43
1732.19
1728.75
1726.13
1724.32
1723.22
1722.71
1722.76
1723.31
1724.3
1721.63
1694.58
1614.1
1564.51
1583.64
1679.64
1707.92
1387.31
844.092
806.127
804.869
804.307
804.139
860.879
1004.02
1296.88
1626.23
1748.78
1760.03
1767.5
1774.24
1780.68
1786.73
1792.25
1797.15
1801.22
1804.31
1805.66
1724.04
913.131
1421.47
1735.13
1733.92
1731.53
1729.7
1728.69
1728.43
1728.83
1729.81
1731.33
1733.4
1732.87
1590.1
1234.92
1161.78
1146.09
1115.57
946.177
803.6
802.605
802.46
802.095
801.491
801.498
801.539
837.089
1079.58
1553.09
1748.03
1767.01
1777.58
1785.33
1792.36
1798.9
1804.81
1809.92
1814.08
1816.79
1742.09
892.863
884.831
1223.94
1725.17
1739.53
1738.68
1737.45
1736.94
1737.25
1738.29
1739.94
1742.06
1744.59
1732.78
1572.51
1243.14
982.331
883.501
839.224
811.194
802.654
801.807
801.478
801.099
800.439
799.858
799.673
801.604
1031
1598.56
1759
1781.23
1792.24
1800.7
1808.5
1815.68
1822.11
1827.63
1832.06
1787.15
879.833
872.978
866.985
963.318
1441.49
1746.45
1748.56
1748.9
1748.96
1749.63
1750.99
1753.07
1755.63
1758.66
1762.16
1765.59
1726.25
1602.04
1396.91
1109.8
859.882
800.308
800.048
800.168
799.749
799.477
798.682
798.916
801.603
1187.86
1714.6
1784.87
1801.07
1811.77
1821.26
1830.08
1838.2
1845.58
1852.09
1815.64
874.877
863.189
858.058
850.004
849.328
919.079
1306.58
1678.7
1732.38
1757.29
1763.47
1765.73
1767.71
1770.59
1774.23
1778.03
1782.54
1787.66
1794.2
1767.91
1445.53
923.772
798.898
798.466
798.719
797.988
797.736
798.264
797.268
874.907
1534.58
1790.74
1811.9
1825.67
1837.38
1848.24
1858.45
1868.13
1877.19
1842.66
1444.11
878.596
848.326
842.234
835.395
839.408
836.354
837.417
989.794
1539.8
1769.22
1776.24
1778.31
1780.9
1777.29
1786.79
1794.68
1800.23
1806.19
1812.47
1818.89
1476.67
869.512
796.629
796.175
796.493
796.423
797.033
796.467
796.213
1314.75
1796.39
1825.72
1842.79
1857.21
1870.47
1883.14
1895.56
1907.78
1881.54
1796.17
1580.45
958.318
834.56
828.728
830.96
833.423
827.904
832.917
951.73
1582.37
1781.54
1760.87
1708.07
1753.4
1799.11
1805.08
1810.93
1817.37
1824.37
1832.05
1745.66
1050.18
796.579
794.432
794.906
795.166
795.984
794.78
793.788
1186.22
1797.07
1843.5
1863.8
1881.13
1897.01
1912.36
1927.92
1943.93
1926.33
1808.78
1807.11
1712.02
1118.49
826.357
828.599
832.611
830.075
829.23
842.167
1261.18
1309.64
1197.2
1452.77
1786.73
1806.47
1813.25
1819.63
1826.51
1834.25
1843.15
1814.37
1172.93
798.388
792.922
793.425
794.876
794.458
794.275
794.169
1171.71
1811.84
1867.14
1889.89
1909.61
1927.86
1945.7
1964.46
1984.95
1973.19
1820.24
1820.04
1819.53
1780.54
1222.43
835.085
830.181
828.375
829.543
862.424
841.498
849.783
856.663
1339.5
1797.53
1814.58
1820.86
1826.98
1833.7
1841.69
1851.7
1854.01
1320.53
806.585
793.525
792.783
793.991
793.568
794.339
793.74
1478.42
1869.27
1897.87
1921.53
1942.37
1962.16
1981.84
2003.82
2028.95
2022.55
1831.46
1832.01
1832.94
1834.13
1785.84
1141.12
834.781
828.741
828.918
831.831
836.212
841.366
1070.56
1687.59
1815.54
1822.15
1826.69
1832.25
1838
1845.12
1856.81
1869.79
1532.27
860.099
794.735
792.799
792.431
793.624
794.941
1104.31
1790.19
1908.68
1934.29
1956.42
1976.97
1997.28
2018.33
2043.04
2072.53
2071.48
1841.22
1841.89
1842.88
1844.66
1826.98
1195.11
839.689
833.512
828.635
837.868
924.021
1422.01
1815.86
1822.59
1823.85
1827.05
1831.19
1821.54
1729.92
1753.8
1852.81
1868.11
1648.06
938.959
799.461
790.643
791.259
833.601
1058.37
1776.97
1931.85
1950.64
1970.17
1989.52
2008.84
2028.86
2050.61
2077.64
2110.93
2114.27
1849.72
1851.14
1852.72
1848.62
1324.84
871.885
855.383
848.345
927.779
1494.79
1814.9
1816.09
1814.26
1816.82
1823.96
1828.98
1824.36
1596.45
1408.8
1436.4
1755.5
1860.43
1601.58
998.936
829.251
918.823
1107.21
1690.13
1941.89
1953.51
1965.83
1980.27
1996.43
2013.69
2031.79
2051.39
2073.61
2102.3
2138.87
2145.16
1861.76
1868.89
1422.83
970.412
944.237
929.178
1034.33
1626.47
1807.8
1808.58
1807.65
1811.97
1806.74
1757.12
1701.73
1605.88
1367.72
1381.37
1392.34
1404.38
1639.25
1663.32
1364.23
1169.83
1427.14
1902.71
1929.92
1940.25
1950.98
1962.92
1976.18
1990.82
2006.36
2023.04
2040.86
2060.39
2082.58
2112.83
2151.76
2159.75
1091.97
1064.79
1048.23
1030.18
1329.72
1813.93
1800.51
1788.34
1794.37
1782.83
1743.14
1693.5
1489.54
1367.44
1362.68
1357.27
1361.12
1365.39
1384.75
1562.98
1621.69
1625.36
1772.72
1874.95
1892.1
1905.83
1917.06
1929.17
1942.24
1956.11
1970.57
1985.51
2000.97
2017.2
2034.6
2053.97
2075.62
2106.84
2146.71
2155.63
1089
1423.05
1836.63
1832.25
1825.18
1821.68
1799.86
1729.08
1686.56
1418.17
1356.42
1366.79
1365.26
1361.52
1361.54
1349.64
1377.57
1642.9
1841.61
1842.83
1843.14
1846.4
1852.9
1861.33
1871.73
1883.16
1895.37
1908.29
1922.26
1936.66
1951.06
1965.43
1980.22
1996.06
2013.01
2031.81
2052.29
2082.99
2122.59
2131.57
1852.55
1851.88
1851.41
1837.16
1756.66
1696.14
1324.91
1326.62
1335.5
1332.14
1334.84
1378.51
1374.61
1460.19
1771.19
1831.81
1825.69
1821.33
1817.98
1816.03
1816.42
1819.39
1825.01
1832.88
1842.62
1853.65
1864.02
1875.1
1887.79
1903.2
1917.18
1930.54
1945.86
1961.53
1977.6
1988.32
2004.62
2043.28
2080.37
2088.52
1861.56
1795.52
1684.31
1318.22