/*--------------------------------*- C++ -*----------------------------------*\
  =========                 |
  \\      /  F ield         | OpenFOAM: The Open Source CFD Toolbox
   \\    /   O peration     | Website:  https://openfoam.org
    \\  /    A nd           | Version:  8
     \\/     M anipulation  |
\*---------------------------------------------------------------------------*/
FoamFile
{
    version     2.0;
    format      ascii;
    class       surfaceScalarField;
    location    "3.1";
    object      phi;
}
// * * * * * * * * * * * * * * * * * * * * * * * * * * * * * * * * * * * * * //

dimensions      [0 3 -1 0 0 0 0];

internalField   nonuniform List<scalar> 
18095
(
1.58369e-07
-9.65673e-07
8.07304e-07
1.65334e-07
-1.24811e-06
1.24115e-06
1.22217e-07
-1.24217e-06
1.28529e-06
6.53895e-08
-1.26345e-06
1.32028e-06
1.03499e-10
-1.28045e-06
1.34573e-06
-6.52013e-08
-1.28047e-06
1.34577e-06
-1.22074e-07
-1.2635e-06
1.32038e-06
-1.65241e-07
-1.24222e-06
1.28539e-06
-1.5833e-07
-1.24816e-06
1.24125e-06
-9.6579e-07
8.07459e-07
1.10986e-07
-1.07666e-06
9.93856e-08
-1.23651e-06
7.28743e-08
-1.21566e-06
4.00796e-08
-1.23066e-06
6.81649e-11
-1.24044e-06
-3.99537e-08
-1.24045e-06
-7.27746e-08
-1.23068e-06
-9.93097e-08
-1.21569e-06
-1.10942e-07
-1.23653e-06
-1.07673e-06
6.71088e-08
-1.14377e-06
5.27384e-08
-1.22214e-06
4.21499e-08
-1.20507e-06
2.38862e-08
-1.21239e-06
4.28245e-11
-1.21659e-06
-2.38061e-08
-1.2166e-06
-4.20854e-08
-1.2124e-06
-5.26888e-08
-1.20508e-06
-6.70714e-08
-1.22214e-06
-1.1438e-06
3.95935e-08
-1.18336e-06
2.6622e-08
-1.20917e-06
2.20212e-08
-1.20047e-06
1.25405e-08
-1.20291e-06
2.40801e-11
-1.20408e-06
-1.24951e-08
-1.20408e-06
-2.19839e-08
-1.20291e-06
-2.65939e-08
-1.20047e-06
-3.95688e-08
-1.20917e-06
-1.18337e-06
1.66386e-08
7.46742e-09
6.99691e-09
4.08586e-09
8.15483e-12
-4.07039e-09
-6.98421e-09
-7.45872e-09
-1.66284e-08
-1.73988e-07
-1.16359e-06
1.33757e-06
-2.18037e-07
-1.2159e-06
1.25995e-06
-1.64126e-07
-1.21249e-06
1.15858e-06
-8.60264e-08
-1.20384e-06
1.12574e-06
1.1549e-09
-1.20248e-06
1.1153e-06
8.82906e-08
-1.20265e-06
1.11552e-06
1.66168e-07
-1.20431e-06
1.12643e-06
2.19917e-07
-1.21316e-06
1.15942e-06
1.7574e-07
-1.21687e-06
1.26104e-06
-1.16471e-06
1.34045e-06
-9.2772e-08
-1.07081e-06
-9.52143e-08
-1.21346e-06
-7.87078e-08
-1.229e-06
-4.35919e-08
-1.23896e-06
6.55561e-10
-1.24673e-06
4.48507e-08
-1.24685e-06
7.9837e-08
-1.2393e-06
9.61471e-08
-1.22947e-06
9.3305e-08
-1.21402e-06
-1.07141e-06
-5.77982e-08
-1.01302e-06
-5.49116e-08
-1.21635e-06
-4.61886e-08
-1.23772e-06
-2.67517e-08
-1.2584e-06
3.95536e-10
-1.27387e-06
2.75053e-08
-1.27396e-06
4.68359e-08
-1.25863e-06
5.53852e-08
-1.23802e-06
5.80281e-08
-1.21667e-06
-1.01338e-06
-7.46365e-08
-9.38378e-07
-6.17628e-08
-1.22922e-06
-4.83745e-08
-1.25111e-06
-2.75441e-08
-1.27923e-06
2.45129e-10
-1.30166e-06
2.80071e-08
-1.30172e-06
4.87596e-08
-1.27938e-06
6.2023e-08
-1.25129e-06
7.47574e-08
-1.2294e-06
-9.38619e-07
-1.31074e-07
-1.19146e-07
-8.4966e-08
-4.39152e-08
1.57935e-10
4.42115e-08
8.52079e-08
1.19311e-07
1.3116e-07
-9.88713e-09
-9.06047e-07
9.15934e-07
2.19099e-08
-1.34161e-06
1.30981e-06
1.99545e-08
-1.27923e-06
1.28119e-06
1.3369e-08
-1.2294e-06
1.23598e-06
6.83965e-09
-1.22528e-06
1.23181e-06
1.03425e-09
-1.22611e-06
1.23191e-06
-5.62159e-09
-1.22764e-06
1.2343e-06
2.85585e-09
-1.27382e-06
1.26534e-06
5.69159e-08
-1.34317e-06
1.28911e-06
-9.47696e-07
1.00461e-06
2.60706e-08
-9.32118e-07
3.21082e-08
-1.34764e-06
2.15461e-08
-1.26867e-06
1.37922e-08
-1.22164e-06
6.36721e-09
-1.21786e-06
-1.04253e-09
-1.2187e-06
-7.58149e-09
-1.2211e-06
-1.26376e-08
-1.26876e-06
-6.58307e-09
-1.34923e-06
-9.54279e-07
3.47863e-08
-9.66904e-07
2.55224e-08
-1.33838e-06
1.60392e-08
-1.25919e-06
1.06198e-08
-1.21622e-06
4.39253e-09
-1.21163e-06
-2.47471e-09
-1.21183e-06
-7.2122e-09
-1.21637e-06
-1.59338e-08
-1.26004e-06
-2.51223e-08
-1.34004e-06
-9.79402e-07
8.31942e-08
-1.0501e-06
5.69636e-08
-1.31215e-06
3.767e-08
-1.23989e-06
2.41093e-08
-1.20266e-06
2.94267e-09
-1.19046e-06
-1.8219e-08
-1.19067e-06
-3.0921e-08
-1.20366e-06
-4.97483e-08
-1.24121e-06
-7.6868e-08
-1.31292e-06
-1.05627e-06
2.87475e-07
2.35277e-07
1.53964e-07
7.70441e-08
1.87907e-09
-7.3273e-08
-1.50506e-07
-2.32302e-07
-2.8418e-07
-2.32785e-07
2.79181e-09
2.29993e-07
-2.35111e-07
2.32626e-09
-2.36937e-07
1.82559e-09
-2.38231e-07
1.29379e-09
-2.38969e-07
7.37981e-10
-2.39132e-07
1.63711e-10
-2.38779e-07
-3.53543e-10
-2.37957e-07
-8.21589e-10
-2.36697e-07
-1.2605e-09
-1.67587e-09
-2.35021e-07
-2.44352e-07
4.10415e-09
2.43039e-07
-2.45317e-07
3.29163e-09
-2.45957e-07
2.46501e-09
-2.46296e-07
1.63332e-09
-2.46365e-07
8.06392e-10
-2.46212e-07
1.11818e-11
-2.45771e-07
-7.94857e-10
-2.45032e-07
-1.56003e-09
-2.43987e-07
-2.306e-09
-3.03482e-09
-2.42628e-07
-2.42341e-07
5.63108e-09
2.40814e-07
-2.43584e-07
4.53513e-09
-2.44551e-07
3.43152e-09
-2.45246e-07
2.32816e-09
-2.45672e-07
1.23273e-09
-2.45812e-07
1.5075e-10
-2.45691e-07
-9.15703e-10
-2.45287e-07
-1.96416e-09
-2.446e-07
-2.99309e-09
-4.00222e-09
-2.43632e-07
-2.40356e-07
7.34703e-09
2.3864e-07
-2.41809e-07
5.98865e-09
-2.43e-07
4.6227e-09
-2.43929e-07
3.25687e-09
-2.44594e-07
1.8981e-09
-2.44996e-07
5.52061e-10
-2.45135e-07
-7.76501e-10
-2.45015e-07
-2.08377e-09
-2.44642e-07
-3.36658e-09
-4.6223e-09
-2.44022e-07
-2.38884e-07
9.203e-09
2.37028e-07
-2.40491e-07
7.59634e-09
-2.41849e-07
5.9809e-09
-2.42958e-07
4.36499e-09
-2.43816e-07
2.75649e-09
-2.44427e-07
1.16255e-09
-2.44793e-07
-4.10322e-10
-2.44921e-07
-1.95602e-09
-2.44819e-07
-3.46914e-09
-4.94477e-09
-2.44496e-07
-2.38007e-07
1.11793e-08
2.36031e-07
-2.39745e-07
9.33455e-09
-2.41243e-07
7.47932e-09
-2.42501e-07
5.62305e-09
-2.4352e-07
3.77502e-09
-2.44301e-07
1.94411e-09
-2.44851e-07
1.39071e-10
-2.45175e-07
-1.63168e-09
-2.45284e-07
-3.36016e-09
-5.03874e-09
-2.4519e-07
-2.37762e-07
1.32654e-08
2.35676e-07
-2.39615e-07
1.11885e-08
-2.41235e-07
9.09856e-09
-2.42618e-07
7.00639e-09
-2.43766e-07
4.92287e-09
-2.44681e-07
2.85878e-09
-2.45367e-07
8.25236e-10
-2.45831e-07
-1.16688e-09
-2.46085e-07
-3.10674e-09
-4.9837e-09
-2.4614e-07
-2.38168e-07
1.54572e-08
2.35976e-07
-2.40129e-07
1.31495e-08
-2.41855e-07
1.0825e-08
-2.43345e-07
8.49566e-09
-2.44596e-07
6.17402e-09
-2.4561e-07
3.87295e-09
-2.4639e-07
1.6058e-09
-2.46943e-07
-6.1417e-10
-2.47277e-07
-2.77284e-09
-4.85645e-09
-2.47404e-07
-2.39243e-07
1.77572e-08
2.36943e-07
-2.4131e-07
1.52162e-08
-2.43137e-07
1.26526e-08
-2.44721e-07
1.00798e-08
-2.46059e-07
7.51158e-09
-2.47149e-07
4.96292e-09
-2.47992e-07
2.44954e-09
-2.48594e-07
-1.26449e-11
-2.48959e-07
-2.40706e-09
-4.71647e-09
-2.49099e-07
-2.4101e-07
2.01759e-08
2.38592e-07
-2.4319e-07
1.73957e-08
-2.45122e-07
1.45851e-08
-2.468e-07
1.17582e-08
-2.48219e-07
8.93076e-09
-2.49376e-07
6.11964e-09
-2.50269e-07
3.34252e-09
-2.50899e-07
6.17952e-10
-2.51272e-07
-2.03456e-09
-4.5944e-09
-2.51394e-07
-2.43496e-07
2.27319e-08
2.4094e-07
-2.45805e-07
1.97047e-08
-2.47856e-07
1.66364e-08
-2.4964e-07
1.35426e-08
-2.5115e-07
1.04406e-08
-2.52379e-07
7.34916e-09
-2.53325e-07
4.28815e-09
-2.53986e-07
1.279e-09
-2.54365e-07
-1.65546e-09
-4.49069e-09
-2.54469e-07
-2.46727e-07
2.54518e-08
2.44007e-07
-2.4919e-07
2.2168e-08
-2.51383e-07
1.883e-08
-2.53295e-07
1.54547e-08
-2.54916e-07
1.20608e-08
-2.56236e-07
8.66921e-09
-2.5725e-07
5.30236e-09
-2.57956e-07
1.985e-09
-2.58355e-07
-1.25613e-09
-4.39179e-09
-2.58454e-07
-2.50721e-07
2.83683e-08
2.47805e-07
-2.5337e-07
2.48173e-08
-2.55737e-07
2.11962e-08
-2.57805e-07
1.75229e-08
-2.59562e-07
1.38178e-08
-2.60997e-07
1.01041e-08
-2.62101e-07
6.40709e-09
-2.62872e-07
2.75542e-09
-2.63308e-07
-8.19549e-10
-4.28318e-09
-2.63417e-07
-2.5548e-07
3.15177e-08
2.52331e-07
-2.58351e-07
2.7688e-08
-2.60924e-07
2.37689e-08
-2.63181e-07
1.97797e-08
-2.65105e-07
1.57423e-08
-2.66683e-07
1.16822e-08
-2.67905e-07
7.62834e-09
-2.68763e-07
3.61375e-09
-2.69258e-07
-3.24376e-10
-4.1442e-09
-2.69397e-07
-2.60977e-07
3.49362e-08
2.57558e-07
-2.64104e-07
3.08151e-08
-2.66917e-07
2.65823e-08
-2.69395e-07
2.22575e-08
-2.71518e-07
1.78647e-08
-2.73267e-07
1.34313e-08
-2.74628e-07
8.98962e-09
-2.75592e-07
4.57731e-09
-2.76155e-07
2.38183e-10
-3.97639e-09
-2.76323e-07
-2.67142e-07
3.86558e-08
2.63422e-07
-2.70557e-07
3.42298e-08
-2.73641e-07
2.96666e-08
-2.7637e-07
2.49866e-08
-2.7872e-07
2.02146e-08
-2.80668e-07
1.53794e-08
-2.82194e-07
1.05151e-08
-2.83279e-07
5.66216e-09
-2.8391e-07
8.6893e-10
-3.80452e-09
-2.84082e-07
-2.73858e-07
4.26982e-08
2.69816e-07
-2.77582e-07
3.79538e-08
-2.8096e-07
3.30446e-08
-2.83965e-07
2.79917e-08
-2.86571e-07
2.28203e-08
-2.88751e-07
1.75596e-08
-2.90479e-07
1.22433e-08
-2.91728e-07
6.91125e-09
-2.92471e-07
1.61107e-09
-3.598e-09
-2.92677e-07
-2.80962e-07
4.70725e-08
2.76588e-07
-2.85003e-07
4.19946e-08
-2.88683e-07
3.67246e-08
-2.91976e-07
3.1285e-08
-2.94857e-07
2.57015e-08
-2.97303e-07
2.00047e-08
-2.99288e-07
1.42288e-08
-3.00789e-07
8.41231e-09
-3.01778e-07
2.59984e-09
-3.15638e-09
-3.0222e-07
-2.88244e-07
5.17643e-08
2.83552e-07
-2.92583e-07
4.6334e-08
-2.96541e-07
4.06824e-08
-3.0009e-07
3.48334e-08
-3.03204e-07
2.88155e-08
-3.05859e-07
2.26598e-08
-3.0803e-07
1.64005e-08
-3.09692e-07
1.00743e-08
-3.10813e-07
3.72036e-09
-2.62045e-09
-3.11349e-07
-2.95508e-07
5.67548e-08
2.90518e-07
-3.00121e-07
5.09465e-08
-3.04324e-07
4.48853e-08
-3.08087e-07
3.85972e-08
-3.11384e-07
3.2112e-08
-3.14186e-07
2.54621e-08
-3.16466e-07
1.86801e-08
-3.18193e-07
1.18009e-08
-3.19331e-07
4.85841e-09
-2.11448e-09
-3.19837e-07
-3.0258e-07
6.20319e-08
2.97303e-07
-3.07453e-07
5.58196e-08
-3.11888e-07
4.93204e-08
-3.15854e-07
4.25626e-08
-3.19321e-07
3.55792e-08
-3.22261e-07
2.84013e-08
-3.24644e-07
2.10632e-08
-3.26441e-07
1.35977e-08
-3.27619e-07
6.03642e-09
-1.59131e-09
-3.28142e-07
-3.09303e-07
6.75927e-08
3.03742e-07
-3.14445e-07
6.09615e-08
-3.19119e-07
5.39943e-08
-3.23301e-07
4.67446e-08
-3.26964e-07
3.92412e-08
-3.30078e-07
3.15157e-08
-3.32619e-07
2.36036e-08
-3.3456e-07
1.55389e-08
-3.35876e-07
7.35317e-09
-9.23926e-10
-3.36544e-07
-3.15551e-07
7.34386e-08
3.09705e-07
-3.20932e-07
6.63425e-08
-3.25865e-07
5.89265e-08
-3.303e-07
5.11793e-08
-3.34205e-07
4.3146e-08
-3.37553e-07
3.48638e-08
-3.40323e-07
2.63737e-08
-3.42496e-07
1.77121e-08
-3.44055e-07
8.91172e-09
2.95816e-12
-3.44982e-07
-3.2106e-07
7.95285e-08
3.1497e-07
-3.26723e-07
7.20048e-08
-3.31936e-07
6.41401e-08
-3.36665e-07
5.5908e-08
-3.40869e-07
4.73499e-08
-3.44514e-07
3.85085e-08
-3.47586e-07
2.94453e-08
-3.50077e-07
2.02033e-08
-3.51975e-07
1.08096e-08
1.29382e-09
-3.53266e-07
-3.2561e-07
8.57699e-08
3.19369e-07
-3.31506e-07
7.79001e-08
-3.37032e-07
6.96658e-08
-3.42156e-07
6.10314e-08
-3.4671e-07
5.19037e-08
-3.50684e-07
4.24825e-08
-3.54124e-07
3.28858e-08
-3.57018e-07
2.30969e-08
-3.59352e-07
1.31431e-08
3.05267e-09
-3.61111e-07
-3.28647e-07
9.23764e-08
3.2204e-07
-3.34969e-07
8.42222e-08
-3.40947e-07
7.56432e-08
-3.46388e-07
6.64724e-08
-3.5124e-07
5.67555e-08
-3.55635e-07
4.68774e-08
-3.59536e-07
3.67875e-08
-3.62934e-07
2.64944e-08
-3.65812e-07
1.60211e-08
5.39303e-09
-3.68153e-07
-3.3041e-07
9.9465e-08
3.23322e-07
-3.37055e-07
9.08665e-08
-3.43174e-07
8.1762e-08
-3.48824e-07
7.2123e-08
-3.54127e-07
6.20577e-08
-3.59009e-07
5.17601e-08
-3.63453e-07
4.12306e-08
-3.67441e-07
3.04832e-08
-3.70959e-07
1.95384e-08
8.41857e-09
-3.73984e-07
-3.30204e-07
1.06604e-07
3.23066e-07
-3.36982e-07
9.76443e-08
-3.43371e-07
8.81512e-08
-3.4938e-07
7.81312e-08
-3.55093e-07
6.77712e-08
-3.60468e-07
5.71353e-08
-3.65478e-07
4.62402e-08
-3.70103e-07
3.51077e-08
-3.74322e-07
2.37578e-08
1.22101e-08
-3.78114e-07
-3.27507e-07
1.13964e-07
3.20146e-07
-3.34513e-07
1.0465e-07
-3.41149e-07
9.47872e-08
-3.47529e-07
8.45112e-08
-3.53669e-07
7.39112e-08
-3.59537e-07
6.30027e-08
-3.65114e-07
5.18175e-08
-3.70385e-07
4.03789e-08
-3.75334e-07
2.87069e-08
1.68172e-08
-3.79942e-07
-3.22103e-07
1.21319e-07
3.14748e-07
-3.29233e-07
1.11779e-07
-3.36156e-07
1.01711e-07
-3.42888e-07
9.12432e-08
-3.49409e-07
8.04319e-08
-3.55716e-07
6.93098e-08
-3.61807e-07
5.79082e-08
-3.6768e-07
4.62523e-08
-3.73334e-07
3.43607e-08
2.2243e-08
-3.7876e-07
-3.14017e-07
1.28687e-07
3.06649e-07
-3.21231e-07
1.18993e-07
-3.28294e-07
1.08773e-07
-3.35203e-07
9.81522e-08
-3.41953e-07
8.71819e-08
-3.48552e-07
7.59093e-08
-3.55017e-07
6.43729e-08
-3.61367e-07
5.26023e-08
-3.67623e-07
4.06163e-08
2.8418e-08
-3.73798e-07
-3.02971e-07
1.36165e-07
2.95493e-07
-3.10194e-07
1.26216e-07
-3.17259e-07
1.15838e-07
-3.24179e-07
1.05072e-07
-3.30971e-07
9.39742e-08
-3.37663e-07
8.26017e-08
-3.44294e-07
7.10037e-08
-3.50911e-07
5.92192e-08
-3.57568e-07
4.72734e-08
3.51684e-08
-3.64319e-07
-2.88909e-07
1.43431e-07
2.81644e-07
-2.96015e-07
1.33321e-07
-3.02947e-07
1.22771e-07
-3.09726e-07
1.1185e-07
-3.1638e-07
1.00628e-07
-3.22949e-07
8.91713e-08
-3.29493e-07
7.75468e-08
-3.36087e-07
6.58133e-08
-3.42829e-07
5.4016e-08
4.21728e-08
-3.49834e-07
-2.72229e-07
1.50459e-07
2.65201e-07
-2.79084e-07
1.40176e-07
-2.85766e-07
1.29453e-07
-2.92283e-07
1.18367e-07
-2.98655e-07
1.06999e-07
-3.04917e-07
9.5433e-08
-3.11126e-07
8.37557e-08
-3.1737e-07
7.20576e-08
-3.23781e-07
6.04267e-08
4.89316e-08
-3.3054e-07
-2.53248e-07
1.57285e-07
2.46422e-07
-2.59908e-07
1.46836e-07
-2.66399e-07
1.35944e-07
-2.72717e-07
1.24686e-07
-2.78862e-07
1.13145e-07
-2.8484e-07
1.0141e-07
-2.90667e-07
8.95828e-08
-2.96389e-07
7.77797e-08
-3.02106e-07
6.61434e-08
5.48364e-08
-3.0801e-07
-2.32554e-07
1.64075e-07
2.25763e-07
-2.39237e-07
1.53519e-07
-2.45814e-07
1.42521e-07
-2.52278e-07
1.31149e-07
-2.58608e-07
1.19475e-07
-2.64765e-07
1.07568e-07
-2.70692e-07
9.55096e-08
-2.76315e-07
8.34022e-08
-2.81567e-07
7.1396e-08
5.9784e-08
-2.86514e-07
-2.10766e-07
1.71103e-07
2.03738e-07
-2.17842e-07
1.60595e-07
-2.25004e-07
1.49683e-07
-2.3228e-07
1.38425e-07
-2.39672e-07
1.26867e-07
-2.47149e-07
1.15045e-07
-2.54633e-07
1.02994e-07
-2.62006e-07
9.07754e-08
-2.69062e-07
7.84517e-08
6.63284e-08
-2.75606e-07
-1.88143e-07
1.78619e-07
1.80627e-07
-1.95948e-07
1.68401e-07
-2.04141e-07
1.57876e-07
-2.12808e-07
1.47091e-07
-2.22018e-07
1.36077e-07
-2.31814e-07
1.24841e-07
-2.42231e-07
1.13411e-07
-2.53255e-07
1.018e-07
-2.65427e-07
9.06242e-08
7.89273e-08
-2.78026e-07
-1.64622e-07
1.86772e-07
1.56469e-07
-1.7335e-07
1.77129e-07
-1.82812e-07
1.67337e-07
-1.93167e-07
1.57447e-07
-2.04568e-07
1.47478e-07
-2.17152e-07
1.37425e-07
-2.30946e-07
1.27205e-07
-2.46222e-07
1.17075e-07
-2.65098e-07
1.09501e-07
1.12045e-07
-2.98216e-07
-1.40269e-07
1.9564e-07
1.31402e-07
-1.50062e-07
1.86922e-07
-1.6103e-07
1.78305e-07
-1.73451e-07
1.69867e-07
-1.87626e-07
1.61653e-07
-2.03823e-07
1.53622e-07
-2.22612e-07
1.45994e-07
-2.48999e-07
1.43462e-07
-2.90518e-07
1.5102e-07
1.51612e-07
-3.30085e-07
-1.14407e-07
2.05003e-07
1.05044e-07
-1.24966e-07
1.9748e-07
-1.36992e-07
1.90332e-07
-1.508e-07
1.83674e-07
-1.66752e-07
1.77605e-07
-1.85604e-07
1.72474e-07
-2.1144e-07
1.71829e-07
-2.47264e-07
1.79287e-07
-2.817e-07
1.85456e-07
1.69815e-07
-2.99904e-07
-8.63046e-08
2.14525e-07
7.67828e-08
-9.7123e-08
2.08298e-07
-1.09453e-07
2.02662e-07
-1.23524e-07
1.97745e-07
-1.39529e-07
1.9361e-07
-1.57841e-07
1.90786e-07
-1.80625e-07
1.94613e-07
-2.16533e-07
2.15195e-07
-2.40747e-07
2.0967e-07
1.8206e-07
-2.52992e-07
-5.68861e-08
2.24423e-07
4.69883e-08
-6.84133e-08
2.19825e-07
-8.1954e-08
2.16203e-07
-9.79991e-08
2.13791e-07
-1.17207e-07
2.12818e-07
-1.42168e-07
2.15747e-07
-1.7283e-07
2.25275e-07
-1.97691e-07
2.40056e-07
-2.01704e-07
2.13683e-07
1.87522e-07
-2.07165e-07
-2.28319e-08
2.33411e-07
1.38434e-08
-3.30079e-08
2.30001e-07
-4.45241e-08
2.27719e-07
-5.74635e-08
2.2673e-07
-7.18464e-08
2.27201e-07
-8.84997e-08
2.324e-07
-1.14133e-07
2.50908e-07
-1.31575e-07
2.57498e-07
-1.41394e-07
2.23502e-07
1.95054e-07
-1.48926e-07
1.55294e-08
2.40005e-07
-2.21234e-08
8.55977e-09
2.3697e-07
1.24724e-09
2.35031e-07
-6.42073e-09
2.34398e-07
-1.46205e-08
2.35401e-07
-2.49199e-08
2.42699e-07
-3.90183e-08
2.65007e-07
-5.32961e-08
2.71776e-07
-6.69409e-08
2.37147e-07
2.05581e-07
-7.74675e-08
5.19429e-08
2.44528e-07
-5.64661e-08
4.73669e-08
2.41546e-07
4.29127e-08
2.39486e-07
3.88214e-08
2.38489e-07
3.54725e-08
2.38749e-07
3.48752e-08
2.43297e-07
2.78332e-08
2.72049e-07
1.30531e-08
2.86555e-07
-6.79795e-10
2.5088e-07
2.1502e-07
-1.01193e-08
8.75357e-08
2.47078e-07
-9.0085e-08
8.49114e-08
2.44171e-07
8.21716e-08
2.42225e-07
7.92526e-08
2.41408e-07
7.59577e-08
2.42044e-07
7.29952e-08
2.46259e-07
8.15357e-08
2.63509e-07
8.06645e-08
2.87427e-07
7.08511e-08
2.60693e-07
2.22814e-07
6.30573e-08
1.24295e-07
2.46894e-07
-1.24111e-07
1.25071e-07
2.43394e-07
1.26571e-07
2.40726e-07
1.28988e-07
2.38991e-07
1.32749e-07
2.38283e-07
1.4037e-07
2.38638e-07
1.58459e-07
2.45419e-07
1.73322e-07
2.72562e-07
1.61409e-07
2.72606e-07
2.36693e-07
1.47529e-07
1.58633e-07
2.4453e-07
-1.56269e-07
1.62175e-07
2.39851e-07
1.67039e-07
2.35862e-07
1.73399e-07
2.3263e-07
1.81543e-07
2.30139e-07
1.91935e-07
2.28246e-07
2.08208e-07
2.29146e-07
2.379e-07
2.42869e-07
2.47384e-07
2.63122e-07
2.50235e-07
2.33843e-07
1.8899e-07
2.40527e-07
-1.84987e-07
1.9456e-07
2.3428e-07
2.01805e-07
2.28617e-07
2.10859e-07
2.23576e-07
2.21848e-07
2.19149e-07
2.34823e-07
2.15271e-07
2.52071e-07
2.11897e-07
2.82292e-07
2.12647e-07
3.15677e-07
2.29737e-07
2.43255e-07
3.22657e-07
2.14302e-07
2.3482e-07
-2.08594e-07
2.21611e-07
2.2697e-07
2.30672e-07
2.19555e-07
2.41625e-07
2.12623e-07
2.54598e-07
2.06176e-07
2.69748e-07
2.00122e-07
2.87488e-07
1.94157e-07
3.11593e-07
1.88542e-07
3.52312e-07
1.89018e-07
2.05654e-07
3.89913e-07
2.37049e-07
2.28944e-07
-2.31174e-07
2.44914e-07
2.19104e-07
2.54798e-07
2.09671e-07
2.66713e-07
2.00708e-07
2.80669e-07
1.92219e-07
2.96666e-07
1.84125e-07
3.14574e-07
1.76249e-07
3.34971e-07
1.68144e-07
3.63408e-07
1.60581e-07
1.59616e-07
4.09446e-07
2.55595e-07
2.22952e-07
-2.49603e-07
2.63867e-07
2.10832e-07
2.74313e-07
1.99224e-07
2.86806e-07
1.88216e-07
3.01212e-07
1.77813e-07
3.17401e-07
1.67936e-07
3.35204e-07
1.58447e-07
3.54198e-07
1.4915e-07
3.75154e-07
1.39625e-07
1.30788e-07
4.03982e-07
2.66565e-07
2.14713e-07
-2.58326e-07
2.76656e-07
2.00742e-07
2.88479e-07
1.87401e-07
3.01901e-07
1.74794e-07
3.16773e-07
1.6294e-07
3.32927e-07
1.51782e-07
3.5018e-07
1.41194e-07
3.68298e-07
1.31031e-07
3.86779e-07
1.21144e-07
1.1125e-07
4.06317e-07
2.77284e-07
2.05751e-07
-2.68322e-07
2.88196e-07
1.8983e-07
3.00652e-07
1.74945e-07
3.1437e-07
1.61075e-07
3.29111e-07
1.482e-07
3.44647e-07
1.36246e-07
3.60774e-07
1.25067e-07
3.77297e-07
1.14508e-07
3.93998e-07
1.04444e-07
9.47893e-08
4.10458e-07
2.90478e-07
1.9659e-07
-2.81317e-07
3.01036e-07
1.79272e-07
3.12889e-07
1.63092e-07
3.2574e-07
1.48224e-07
3.39311e-07
1.34628e-07
3.53296e-07
1.22261e-07
3.67471e-07
1.10892e-07
3.81683e-07
1.00296e-07
3.95802e-07
9.03247e-08
8.09026e-08
4.09688e-07
3.07405e-07
1.88136e-07
-2.98951e-07
3.16386e-07
1.70291e-07
3.2586e-07
1.53619e-07
3.36438e-07
1.37646e-07
3.47606e-07
1.23461e-07
3.58938e-07
1.10929e-07
3.70212e-07
9.9618e-08
3.81333e-07
8.91751e-08
3.92239e-07
7.94187e-08
7.02605e-08
4.02882e-07
3.17415e-07
1.81154e-07
-3.10432e-07
3.22803e-07
1.64901e-07
3.30983e-07
1.45439e-07
3.40239e-07
1.28389e-07
3.49766e-07
1.13933e-07
3.58658e-07
1.02038e-07
3.67077e-07
9.11987e-08
3.75176e-07
8.1076e-08
3.83006e-07
7.15889e-08
6.27035e-08
3.90563e-07
2.99751e-07
1.73543e-07
-2.92141e-07
3.07565e-07
1.57087e-07
3.18462e-07
1.34541e-07
3.30855e-07
1.15996e-07
3.40891e-07
1.03897e-07
3.48693e-07
9.42357e-08
3.55657e-07
8.42356e-08
3.62326e-07
7.4407e-08
3.6882e-07
6.50946e-08
5.63338e-08
3.75189e-07
2.79953e-07
1.62386e-07
-2.68797e-07
2.93859e-07
1.43183e-07
3.07996e-07
1.20404e-07
3.17803e-07
1.06188e-07
3.24044e-07
9.76558e-08
3.2968e-07
8.86002e-08
3.35836e-07
7.80796e-08
3.42767e-07
6.74757e-08
3.49939e-07
5.79231e-08
4.9123e-08
3.57149e-07
2.5961e-07
1.38775e-07
-2.36e-07
2.7873e-07
1.24063e-07
2.88304e-07
1.1083e-07
2.92245e-07
1.02248e-07
2.95116e-07
9.47841e-08
2.99496e-07
8.42207e-08
3.06351e-07
7.12244e-08
3.15745e-07
5.80812e-08
3.25909e-07
4.77585e-08
4.0206e-08
3.34826e-07
2.2845e-07
1.22132e-07
-2.11807e-07
2.40487e-07
1.12026e-07
2.48564e-07
1.02753e-07
2.544e-07
9.64118e-08
2.5689e-07
9.22943e-08
2.5884e-07
8.22703e-08
2.68721e-07
6.13438e-08
2.81736e-07
4.50653e-08
2.99246e-07
3.02488e-08
2.52594e-08
3.14192e-07
1.8654e-07
1.14274e-07
-1.78682e-07
1.9353e-07
1.05034e-07
1.99338e-07
9.69453e-08
2.05913e-07
8.98373e-08
2.14739e-07
8.34677e-08
2.28391e-07
6.8618e-08
2.3828e-07
5.14549e-08
2.51763e-07
3.15821e-08
2.71264e-07
1.07472e-08
-2.80163e-08
3.2454e-07
1.48366e-07
1.11635e-07
-1.45727e-07
1.49986e-07
1.03413e-07
1.51954e-07
9.49775e-08
1.55995e-07
8.57956e-08
1.69813e-07
6.96499e-08
1.93935e-07
4.44953e-08
2.23111e-07
2.22787e-08
2.52547e-07
2.14609e-09
2.86527e-07
-2.32326e-08
-5.57728e-08
3.14283e-07
1.24667e-07
1.1008e-07
-1.23113e-07
1.27323e-07
1.00758e-07
1.33021e-07
8.92788e-08
1.43358e-07
7.54589e-08
1.59176e-07
5.38318e-08
1.72968e-07
3.07031e-08
1.92739e-07
2.50856e-09
2.2051e-07
-2.56251e-08
2.5387e-07
-5.65921e-08
-9.72977e-08
2.95394e-07
1.00762e-07
1.08387e-07
-9.90687e-08
1.01942e-07
9.95785e-08
1.03691e-07
8.75294e-08
1.12809e-07
6.63405e-08
1.28385e-07
3.82564e-08
1.46315e-07
1.27726e-08
1.66164e-07
-1.73407e-08
1.95038e-07
-5.44991e-08
2.37001e-07
-9.85548e-08
-1.59937e-07
2.9964e-07
6.31569e-08
1.03215e-07
-5.7985e-08
6.99481e-08
9.27874e-08
7.83955e-08
7.90818e-08
8.43806e-08
6.03552e-08
8.48721e-08
3.77649e-08
9.11345e-08
6.51023e-09
1.08302e-07
-3.45083e-08
1.51934e-07
-9.8131e-08
2.54209e-07
-2.0083e-07
-3.16219e-07
4.10491e-07
1.11188e-08
9.88174e-08
-6.7216e-09
1.08428e-08
9.30632e-08
1.04385e-08
7.94863e-08
1.32642e-08
5.75294e-08
1.55449e-08
3.54841e-08
3.31759e-08
-1.11205e-08
1.04123e-07
-1.05455e-07
2.456e-07
-2.39607e-07
4.31402e-07
-3.86632e-07
-4.94773e-07
6.09957e-07
-5.52065e-08
1.02568e-07
5.14556e-08
-6.0599e-08
9.84557e-08
-7.55236e-08
9.44106e-08
-6.68674e-08
4.88729e-08
-1.85203e-08
-1.28627e-08
8.19893e-08
-1.1163e-07
2.51966e-07
-2.75431e-07
4.53589e-07
-4.4123e-07
6.1949e-07
-5.52534e-07
-6.11367e-07
7.36084e-07
-1.25247e-07
1.21667e-07
1.06148e-07
-1.27332e-07
1.0054e-07
-9.28847e-08
5.9964e-08
-4.18587e-08
-2.1531e-09
5.92067e-08
-1.13927e-07
2.33689e-07
-2.86112e-07
4.33201e-07
-4.74942e-07
5.92485e-07
-6.00514e-07
7.06406e-07
-6.66454e-07
-7.10506e-07
8.05545e-07
-8.10574e-08
9.55109e-08
1.07214e-07
-6.65688e-08
8.60514e-08
-3.21939e-08
2.55891e-08
4.48767e-08
-7.92232e-08
1.89344e-07
-2.58395e-07
3.89697e-07
-4.86465e-07
5.59159e-07
-6.44403e-07
6.7543e-07
-7.16786e-07
7.72677e-07
-7.637e-07
-8.02404e-07
8.64575e-07
-6.25557e-08
8.68567e-08
7.12098e-08
-3.33327e-08
5.68283e-08
-1.13548e-08
3.61115e-09
1.16314e-07
-2.06891e-07
3.50815e-07
-4.92894e-07
5.39523e-07
-6.75173e-07
6.50214e-07
-7.55095e-07
7.38483e-07
-8.05054e-07
8.21562e-07
-8.46779e-07
-8.82676e-07
9.01834e-07
-9.80137e-08
8.45239e-08
1.00346e-07
-9.40822e-08
5.28964e-08
1.35495e-08
-1.04019e-07
2.76778e-07
-4.7012e-07
4.87379e-07
-7.03495e-07
5.98226e-07
-7.8602e-07
6.79813e-07
-8.36681e-07
7.56345e-07
-8.81586e-07
8.31569e-07
-9.22003e-07
-9.55744e-07
9.04637e-07
-1.4336e-07
9.81988e-08
1.29684e-07
-7.69799e-08
-1.34831e-08
1.96196e-07
-3.77193e-07
4.26488e-07
-7.00411e-07
5.29239e-07
-8.06247e-07
6.05069e-07
-8.61849e-07
6.77779e-07
-9.09391e-07
7.49907e-07
-9.53714e-07
8.2021e-07
-9.92306e-07
-1.02198e-06
8.86441e-07
-8.56873e-08
6.43386e-08
1.19548e-07
1.12828e-07
-2.11998e-07
3.67692e-07
-6.32055e-07
4.70041e-07
-8.0276e-07
5.38885e-07
-8.7509e-07
6.03779e-07
-9.26742e-07
6.69484e-07
-9.75097e-07
7.34735e-07
-1.01897e-06
7.96912e-07
-1.05448e-06
-1.07812e-06
8.53055e-07
3.84251e-09
-4.57898e-08
1.06286e-07
2.59e-07
-4.67156e-07
4.04998e-07
-7.78054e-07
4.77516e-07
-8.75278e-07
5.34043e-07
-9.31618e-07
5.91416e-07
-9.84115e-07
6.50182e-07
-1.03386e-06
7.07659e-07
-1.07644e-06
7.60399e-07
-1.10722e-06
-1.12288e-06
8.05159e-07
1.30946e-07
-2.16616e-07
3.9881e-08
3.47215e-07
-6.83416e-07
4.17735e-07
-8.48574e-07
4.66002e-07
-9.23544e-07
5.1537e-07
-9.80985e-07
5.67539e-07
-1.03628e-06
6.20251e-07
-1.08657e-06
6.69937e-07
-1.12613e-06
7.12862e-07
-1.15015e-06
-1.15609e-06
7.46075e-07
2.35248e-07
-4.30497e-07
-2.13666e-08
3.4475e-07
-7.92923e-07
3.9943e-07
-9.03254e-07
4.42332e-07
-9.66446e-07
4.87554e-07
-1.02621e-06
5.35196e-07
-1.08393e-06
5.81971e-07
-1.13335e-06
6.23721e-07
-1.16788e-06
6.56902e-07
-1.18333e-06
-1.17853e-06
6.79341e-07
2.79739e-07
-6.32333e-07
-7.79039e-08
3.30626e-07
-8.43813e-07
3.69348e-07
-9.41976e-07
4.09168e-07
-1.00627e-06
4.52056e-07
-1.06909e-06
4.96079e-07
-1.12795e-06
5.37213e-07
-1.17448e-06
5.71259e-07
-1.20193e-06
5.95406e-07
-1.20748e-06
-1.19164e-06
6.08513e-07
2.23236e-07
-7.6995e-07
-8.5619e-08
2.97735e-07
-9.1831e-07
3.37651e-07
-9.81892e-07
3.75218e-07
-1.04383e-06
4.14943e-07
-1.10882e-06
4.54482e-07
-1.16749e-06
4.89223e-07
-1.20922e-06
5.15484e-07
-1.22819e-06
5.3162e-07
-1.22361e-06
-1.19737e-06
5.37353e-07
2.85626e-07
-8.1015e-07
-2.45426e-07
2.96975e-07
-9.29655e-07
3.14518e-07
-9.99435e-07
3.41727e-07
-1.07104e-06
3.75304e-07
-1.1424e-06
4.0905e-07
-1.20124e-06
4.37035e-07
-1.23721e-06
4.56311e-07
-1.24746e-06
4.66603e-07
-1.23391e-06
-1.19898e-06
4.68215e-07
2.077e-07
-8.41136e-07
-1.76714e-07
2.28702e-07
-9.50657e-07
2.55967e-07
-1.0267e-06
2.89455e-07
-1.10453e-06
3.24868e-07
-1.17781e-06
3.56217e-07
-1.23258e-06
3.79155e-07
-1.26015e-06
3.93028e-07
-1.26133e-06
3.99398e-07
-1.24028e-06
-1.19945e-06
3.99867e-07
1.56945e-07
-8.81841e-07
-1.1624e-07
1.82568e-07
-9.76281e-07
2.12086e-07
-1.05622e-06
2.45047e-07
-1.13749e-06
2.77247e-07
-1.21001e-06
3.02887e-07
-1.25822e-06
3.19214e-07
-1.27647e-06
3.27328e-07
-1.26945e-06
3.29851e-07
-1.2428e-06
-1.19918e-06
3.29582e-07
1.25017e-07
-8.94713e-07
-1.12146e-07
1.45956e-07
-9.9722e-07
1.73011e-07
-1.08327e-06
2.0244e-07
-1.16692e-06
2.29289e-07
-1.23686e-06
2.47882e-07
-1.27682e-06
2.57044e-07
-1.28564e-06
2.58812e-07
-1.27122e-06
2.55602e-07
-1.23959e-06
-1.19335e-06
2.49772e-07
8.5443e-08
-9.14889e-07
-6.52682e-08
1.10023e-07
-1.0218e-06
1.36748e-07
-1.11e-06
1.62924e-07
-1.1931e-06
1.84004e-07
-1.25794e-06
1.95424e-07
-1.28824e-06
1.97905e-07
-1.28812e-06
1.93535e-07
-1.26685e-06
1.83229e-07
-1.22928e-06
-1.17751e-06
1.67392e-07
6.34752e-08
-9.38451e-07
-3.99129e-08
8.61254e-08
-1.04445e-06
1.09327e-07
-1.1332e-06
1.31226e-07
-1.21499e-06
1.46644e-07
-1.27336e-06
1.52493e-07
-1.29409e-06
1.5123e-07
-1.28685e-06
1.44455e-07
-1.26007e-06
1.3129e-07
-1.21612e-06
-1.15635e-06
1.10122e-07
4.51532e-08
-9.61584e-07
-2.20196e-08
6.6218e-08
-1.06551e-06
8.7377e-08
-1.15436e-06
1.0669e-07
-1.23431e-06
1.18214e-07
-1.28488e-06
1.21614e-07
-1.29749e-06
1.21238e-07
-1.28648e-06
1.18586e-07
-1.25742e-06
1.1145e-07
-1.20898e-06
-1.13807e-06
9.31736e-08
3.80318e-08
-9.77747e-07
-2.18682e-08
5.43362e-08
-1.08182e-06
7.18749e-08
-1.1719e-06
8.75754e-08
-1.25001e-06
9.45599e-08
-1.29187e-06
9.59041e-08
-1.29883e-06
9.73715e-08
-1.28795e-06
1.01702e-07
-1.26175e-06
1.09038e-07
-1.21632e-06
-1.14512e-06
1.16088e-07
3.04799e-08
-9.85806e-07
-2.24208e-08
4.22417e-08
-1.09358e-06
5.70908e-08
-1.18675e-06
6.93207e-08
-1.26224e-06
7.14161e-08
-1.29396e-06
6.94562e-08
-1.29687e-06
6.87529e-08
-1.28724e-06
7.21378e-08
-1.26514e-06
8.02764e-08
-1.22446e-06
-1.15262e-06
8.77811e-08
1.05413e-08
-9.97219e-07
8.72075e-10
2.46889e-08
-1.10773e-06
4.12659e-08
-1.20332e-06
5.21087e-08
-1.27308e-06
5.15895e-08
-1.29344e-06
4.85019e-08
-1.29378e-06
4.69782e-08
-1.28572e-06
5.02243e-08
-1.26838e-06
6.12958e-08
-1.23553e-06
-1.17224e-06
8.09084e-08
-5.86197e-09
-1.00659e-06
1.52347e-08
9.30141e-09
-1.12289e-06
2.74967e-08
-1.22152e-06
3.67867e-08
-1.28237e-06
3.55437e-08
-1.2922e-06
3.35103e-08
-1.29175e-06
3.29315e-08
-1.28514e-06
3.65251e-08
-1.27198e-06
4.85229e-08
-1.24753e-06
-1.19609e-06
7.23723e-08
-2.48204e-08
-1.01187e-06
3.00956e-08
-7.65164e-09
-1.14006e-06
1.30625e-08
-1.24223e-06
2.10555e-08
-1.29036e-06
2.04947e-08
-1.29164e-06
2.04388e-08
-1.29169e-06
2.19331e-08
-1.28663e-06
2.75487e-08
-1.27759e-06
4.45253e-08
-1.2645e-06
-1.24143e-06
8.98708e-08
-5.50899e-08
-1.04275e-06
8.59722e-08
-2.57526e-08
-1.1694e-06
-4.88707e-10
-1.2675e-06
6.32688e-09
-1.29718e-06
5.78849e-09
-1.2911e-06
5.30339e-09
-1.29121e-06
5.15798e-09
-1.28649e-06
5.90418e-09
-1.27834e-06
1.17126e-08
-1.27031e-06
-1.26153e-06
3.18137e-08
-4.79632e-08
-1.06263e-06
6.78471e-08
-2.35958e-08
-1.19377e-06
-3.32713e-09
-1.28777e-06
-1.73472e-09
-1.29877e-06
-4.38907e-09
-1.28845e-06
-6.88208e-09
-1.28871e-06
-9.00643e-09
-1.28436e-06
-1.2605e-08
-1.27474e-06
-1.63862e-08
-1.26653e-06
-1.26108e-06
-1.68411e-08
-3.91502e-08
-1.08487e-06
6.13866e-08
-1.68632e-08
-1.21605e-06
-2.34482e-09
-1.30228e-06
-5.31407e-09
-1.2958e-06
-1.02796e-08
-1.28348e-06
-1.52084e-08
-1.28379e-06
-1.89588e-08
-1.28061e-06
-2.53328e-08
-1.26837e-06
-3.53951e-08
-1.25647e-06
-1.2501e-06
-4.63702e-08
-2.4499e-08
-1.10506e-06
4.46844e-08
-5.11193e-09
-1.23544e-06
3.25221e-09
-1.31065e-06
-3.40313e-09
-1.28915e-06
-1.05583e-08
-1.27632e-06
-1.80086e-08
-1.27634e-06
-2.27012e-08
-1.27592e-06
-2.93448e-08
-1.26172e-06
-4.24477e-08
-1.24336e-06
-1.23361e-06
-5.89449e-08
-3.54324e-09
-1.11437e-06
1.2857e-08
1.17328e-08
-1.25072e-06
1.3296e-08
-1.31221e-06
3.31174e-09
-1.27916e-06
-6.13333e-09
-1.26688e-06
-1.60286e-08
-1.26644e-06
-2.18604e-08
-1.27009e-06
-2.57392e-08
-1.25784e-06
-3.92148e-08
-1.22989e-06
-1.21146e-06
-6.13555e-08
1.88339e-08
-1.09016e-06
-4.30492e-08
3.23505e-08
-1.26424e-06
2.63638e-08
-1.30622e-06
1.18933e-08
-1.26469e-06
-4.22466e-10
-1.25456e-06
-1.2772e-08
-1.25409e-06
-2.1245e-08
-1.26162e-06
-1.87339e-08
-1.26035e-06
-2.60026e-08
-1.22262e-06
-1.17867e-06
-5.87939e-08
3.20935e-08
-1.01244e-06
-1.09813e-07
4.56889e-08
-1.27783e-06
3.23265e-08
-1.29286e-06
1.54638e-08
-1.24783e-06
2.07652e-09
-1.24118e-06
-1.06862e-08
-1.24133e-06
-2.42809e-08
-1.24802e-06
-1.71771e-08
-1.26746e-06
-1.19197e-09
-1.23861e-06
-1.12165e-06
-5.82197e-08
5.29272e-09
-1.01795e-07
3.72707e-08
2.5597e-08
1.37503e-08
4.38278e-09
-5.0318e-09
-1.87537e-08
-2.08716e-08