/*--------------------------------*- C++ -*----------------------------------*\
  =========                 |
  \\      /  F ield         | OpenFOAM: The Open Source CFD Toolbox
   \\    /   O peration     | Website:  https://openfoam.org
    \\  /    A nd           | Version:  8
     \\/     M anipulation  |
\*---------------------------------------------------------------------------*/
FoamFile
{
    version     2.0;
    format      ascii;
    class       volVectorField;
    location    "3.1";
    object      U;
}
// * * * * * * * * * * * * * * * * * * * * * * * * * * * * * * * * * * * * * //

dimensions      [0 1 -1 0 0 0 0];

internalField   nonuniform List<vector> 
9150
(
(0.0537702 -0.42888 0)
(0.0879108 -0.622248 0)
(0.0731143 -0.631419 0)
(0.0486801 -0.643706 0)
(0.0170835 -0.654421 0)
(-0.0169819 -0.654435 0)
(-0.0485971 -0.643742 0)
(-0.0730556 -0.631454 0)
(-0.0878779 -0.622285 0)
(-0.0537584 -0.428949 0)
(0.0407503 -0.522894 0)
(0.0573534 -0.625656 0)
(0.0420715 -0.613196 0)
(0.0294292 -0.622447 0)
(0.0105177 -0.628852 0)
(-0.0104507 -0.628858 0)
(-0.0293725 -0.622466 0)
(-0.0420281 -0.613216 0)
(-0.0573222 -0.625667 0)
(-0.0407362 -0.52294 0)
(0.0252228 -0.558031 0)
(0.032447 -0.613801 0)
(0.0229893 -0.604467 0)
(0.0172818 -0.609987 0)
(0.00626203 -0.613186 0)
(-0.00621984 -0.613189 0)
(-0.0172454 -0.609996 0)
(-0.0229616 -0.604477 0)
(-0.0324241 -0.613803 0)
(-0.0252107 -0.558055 0)
(0.0153439 -0.584759 0)
(0.0174358 -0.607462 0)
(0.0117087 -0.601137 0)
(0.00888373 -0.603281 0)
(0.00325192 -0.604396 0)
(-0.00322828 -0.604397 0)
(-0.00886299 -0.603284 0)
(-0.0116928 -0.601141 0)
(-0.0174219 -0.607461 0)
(-0.0153363 -0.584768 0)
(0.00626007 -0.597168 0)
(0.00554511 -0.601395 0)
(0.00357376 -0.60004 0)
(0.00268187 -0.600347 0)
(0.000996428 -0.600482 0)
(-0.000988658 -0.600483 0)
(-0.00267501 -0.600348 0)
(-0.00356843 -0.60004 0)
(-0.00554028 -0.601394 0)
(-0.00625738 -0.597169 0)
(0.469531 -1.16162 1.54758e-24)
(0.283178 -1.08553 0)
(0.163655 -1.06897 0)
(0.0927127 -1.05742 0)
(0.030934 -1.05287 0)
(-0.0297883 -1.05304 0)
(-0.0916876 -1.05789 0)
(-0.162804 -1.0697 0)
(-0.282574 -1.08651 0)
(-0.469771 -1.16302 -1.56334e-24)
(0.334151 -0.844036 4.26874e-25)
(0.287325 -0.936585 0)
(0.188514 -0.936617 0)
(0.108505 -0.936575 0)
(0.0360504 -0.939014 0)
(-0.035401 -0.939129 0)
(-0.107944 -0.936891 0)
(-0.188084 -0.93706 0)
(-0.287173 -0.937141 0)
(-0.334326 -0.844756 -4.2991e-25)
(0.279139 -0.70248 7.12249e-26)
(0.259133 -0.804599 0)
(0.178254 -0.817398 0)
(0.104797 -0.828243 0)
(0.035032 -0.836392 0)
(-0.0346405 -0.83646 0)
(-0.104466 -0.828429 0)
(-0.17803 -0.817654 0)
(-0.259068 -0.804886 0)
(-0.279206 -0.702797 -7.20496e-26)
(0.199944 -0.554316 2.6729e-25)
(0.216734 -0.709373 0)
(0.154363 -0.72578 0)
(0.0914772 -0.74194 0)
(0.0306549 -0.753876 0)
(-0.0304129 -0.753917 0)
(-0.0912775 -0.742052 0)
(-0.154232 -0.725919 0)
(-0.216699 -0.709519 0)
(-0.199975 -0.554499 -2.67147e-25)
(0.118672 -0.445355 -4.36321e-25)
(0.156385 -0.644209 -6.25387e-25)
(0.116725 -0.663705 -2.11704e-25)
(0.070997 -0.681153 -1.38858e-25)
(0.0240323 -0.694165 -8.02228e-27)
(-0.0238767 -0.694189 -7.87267e-27)
(-0.07087 -0.681217 -1.38484e-25)
(-0.11664 -0.663777 -2.1156e-25)
(-0.156354 -0.644282 -6.25348e-25)
(-0.118674 -0.445459 -4.36425e-25)
(0.0297602 -0.880937 0)
(-0.02314 -1.33921 0)
(0.0284864 -1.2777 0)
(0.00212105 -1.22899 0)
(0.00597925 -1.22569 0)
(-0.00132804 -1.22634 0)
(0.00762081 -1.22676 0)
(-0.0215603 -1.26933 0)
(0.041515 -1.34053 0)
(-0.0168014 -0.939782 0)
(0.0557121 -0.889686 0)
(-0.014069 -1.33494 0)
(0.0274379 -1.27282 0)
(0.00571073 -1.22587 0)
(0.0033036 -1.22337 0)
(0.00130768 -1.2242 0)
(0.00286792 -1.22493 0)
(-0.0215645 -1.27064 0)
(0.0260385 -1.3358 0)
(-0.0478164 -0.916739 0)
(0.0801386 -0.93417 0)
(-0.0183843 -1.34782 0)
(0.0191469 -1.27559 0)
(0.00899662 -1.23182 0)
(0.00186988 -1.22682 0)
(0.00217776 -1.22725 0)
(-0.00337357 -1.23187 0)
(-0.015759 -1.27639 0)
(0.0260429 -1.34954 0)
(-0.0760318 -0.951212 0)
(0.145574 -1.07359 0)
(0.00551565 -1.36622 0)
(0.0162983 -1.27135 0)
(0.0234617 -1.22585 0)
(0.00745642 -1.21458 0)
(-0.00420235 -1.2148 0)
(-0.0202821 -1.22657 0)
(-0.0143594 -1.27239 0)
(-0.000471083 -1.36721 0)
(-0.143608 -1.08219 0)
(0.298789 -1.21666 0)
(0.128145 -1.32163 0)
(0.0697143 -1.20998 0)
(0.0571949 -1.1686 0)
(0.0210633 -1.15637 0)
(-0.019095 -1.1566 0)
(-0.0555516 -1.1694 0)
(-0.0680833 -1.21107 0)
(-0.12576 -1.32267 0)
(-0.298521 -1.22034 0)
(-0.115753 0.00201643 0)
(-0.117034 0.00170091 0)
(-0.118075 0.00134696 0)
(-0.118857 0.000960706 0)
(-0.119371 0.00055501 0)
(-0.119606 0.000152163 0)
(-0.119545 -0.000221122 0)
(-0.119236 -0.000543943 0)
(-0.118714 -0.000828196 0)
(-0.11798 -0.00109008 0)
(-0.121894 0.00350492 0)
(-0.12246 0.0028488 0)
(-0.122859 0.00216983 0)
(-0.1231 0.00147477 0)
(-0.123199 0.00077268 0)
(-0.123173 7.71132e-05 0)
(-0.123028 -0.000594235 0)
(-0.122739 -0.00123435 0)
(-0.122294 -0.00184678 0)
(-0.121695 -0.00243719 0)
(-0.120825 0.00478271 0)
(-0.121517 0.00381937 0)
(-0.122068 0.00284898 0)
(-0.122483 0.00188022 0)
(-0.122763 0.000921117 0)
(-0.122905 -2.19525e-05 0)
(-0.12291 -0.000945627 0)
(-0.122779 -0.00185328 0)
(-0.122506 -0.0027454 0)
(-0.122094 -0.00362147 0)
(-0.119782 0.00645599 0)
(-0.120574 0.0052258 0)
(-0.121235 0.00398813 0)
(-0.121765 0.00275048 0)
(-0.122164 0.00151967 0)
(-0.12243 0.000301037 0)
(-0.122565 -0.000902511 0)
(-0.122569 -0.00208677 0)
(-0.122446 -0.0032496 0)
(-0.122197 -0.00438961 0)
(-0.119009 0.00824174 0)
(-0.119875 0.00675613 0)
(-0.120617 0.00526253 0)
(-0.121233 0.00376875 0)
(-0.121725 0.00228205 0)
(-0.122092 0.000808763 0)
(-0.122335 -0.000645695 0)
(-0.122458 -0.00207633 0)
(-0.122463 -0.00347897 0)
(-0.122356 -0.00484995 0)
(-0.118539 0.0101623 0)
(-0.119468 0.00843465 0)
(-0.120277 0.00669751 0)
(-0.120966 0.00495968 0)
(-0.121535 0.00322966 0)
(-0.121985 0.0015154 0)
(-0.122317 -0.000175488 0)
(-0.122534 -0.00183582 0)
(-0.122641 -0.00345897 0)
(-0.122644 -0.00503879 0)
(-0.118388 0.0121953 0)
(-0.119374 0.0102337 0)
(-0.120242 0.00826054 0)
(-0.120993 0.00628598 0)
(-0.121625 0.00432009 0)
(-0.122141 0.00237267 0)
(-0.12254 0.00045366 0)
(-0.122827 -0.00142736 0)
(-0.123005 -0.003261 0)
(-0.12308 -0.00503825 0)
(-0.118565 0.0143348 0)
(-0.119603 0.0121428 0)
(-0.120526 0.00993621 0)
(-0.12133 0.00772648 0)
(-0.122015 0.00552538 0)
(-0.122581 0.00334472 0)
(-0.123029 0.00119671 0)
(-0.123361 -0.000906564 0)
(-0.123582 -0.00295263 0)
(-0.123695 -0.00492931 0)
(-0.119075 0.0165794 0)
(-0.120168 0.0141562 0)
(-0.121142 0.0117139 0)
(-0.121995 0.00926496 0)
(-0.122726 0.00682277 0)
(-0.123333 0.00440124 0)
(-0.123816 0.00201489 0)
(-0.124176 -0.000321653 0)
(-0.124417 -0.00259306 0)
(-0.124542 -0.00478381 0)
(-0.11993 0.0189354 0)
(-0.12108 0.0162766 0)
(-0.122109 0.0135919 0)
(-0.123013 0.0108951 0)
(-0.123788 0.00820083 0)
(-0.124432 0.00552517 0)
(-0.124944 0.00288475 0)
(-0.125325 0.000296779 0)
(-0.125575 -0.00222076 0)
(-0.125697 -0.00464901 0)
(-0.121139 0.0214172 0)
(-0.122357 0.0185158 0)
(-0.123448 0.0155792 0)
(-0.124408 0.0126224 0)
(-0.125232 0.00966189 0)
(-0.125918 0.00671534 0)
(-0.126462 0.00380156 0)
(-0.126863 0.000940417 0)
(-0.127123 -0.00184707 0)
(-0.127243 -0.00453849 0)
(-0.122715 0.024048 0)
(-0.124012 0.020895 0)
(-0.125178 0.0176952 0)
(-0.126206 0.0144646 0)
(-0.12709 0.0112213 0)
(-0.127826 0.00798504 0)
(-0.12841 0.00477692 0)
(-0.12884 0.00161989 0)
(-0.129116 -0.00146142 0)
(-0.12924 -0.00444024 0)
(-0.124664 0.0268576 0)
(-0.126057 0.0234431 0)
(-0.127313 0.0199672 0)
(-0.128423 0.0164472 0)
(-0.129381 0.0129029 0)
(-0.13018 0.00935602 0)
(-0.130816 0.00583048 0)
(-0.131285 0.00235272 0)
(-0.131586 -0.00104837 0)
(-0.131722 -0.00434111 0)
(-0.126986 0.0298816 0)
(-0.128494 0.0261944 0)
(-0.129857 0.0224283 0)
(-0.131067 0.0186017 0)
(-0.132114 0.0147361 0)
(-0.132991 0.0108556 0)
(-0.133692 0.00698734 0)
(-0.134212 0.00316187 0)
(-0.134551 -0.000586834 0)
(-0.134708 -0.00422105 0)
(-0.129669 0.033157 0)
(-0.131308 0.029185 0)
(-0.132796 0.0251132 0)
(-0.134121 0.0209613 0)
(-0.135274 0.0167522 0)
(-0.136244 0.0125126 0)
(-0.137023 0.00827322 0)
(-0.137605 0.00406954 0)
(-0.137987 -5.8014e-05 0)
(-0.138168 -0.00406319 0)
(-0.132677 0.0367192 0)
(-0.134464 0.0324492 0)
(-0.136092 0.0280554 0)
(-0.137549 0.023558 0)
(-0.138822 0.0189816 0)
(-0.139899 0.0143546 0)
(-0.14077 0.00971089 0)
(-0.141424 0.00509009 0)
(-0.141855 0.000539367 0)
(-0.142055 -0.00388464 0)
(-0.135956 0.0405959 0)
(-0.137902 0.0360141 0)
(-0.139681 0.0312815 0)
(-0.14128 0.0264189 0)
(-0.142686 0.0214511 0)
(-0.143885 0.016407 0)
(-0.144866 0.011321 0)
(-0.145613 0.00623367 0)
(-0.146115 0.00119432 0)
(-0.146357 -0.00373461 0)
(-0.139427 0.0448047 0)
(-0.141535 0.0398977 0)
(-0.143469 0.0348123 0)
(-0.145215 0.0295702 0)
(-0.146762 0.0241967 0)
(-0.148097 0.0187214 0)
(-0.149207 0.0131783 0)
(-0.150082 0.00760683 0)
(-0.150709 0.00205409 0)
(-0.151073 -0.00342159 0)
(-0.142992 0.0493426 0)
(-0.145253 0.0440942 0)
(-0.147331 0.0386397 0)
(-0.149211 0.0330022 0)
(-0.15088 0.0272088 0)
(-0.152325 0.0212905 0)
(-0.153535 0.0152815 0)
(-0.154497 0.00921973 0)
(-0.155197 0.00314703 0)
(-0.15562 -0.0028908 0)
(-0.146552 0.0541881 0)
(-0.148957 0.0485753 0)
(-0.151165 0.0427262 0)
(-0.15316 0.0366657 0)
(-0.154928 0.0304227 0)
(-0.156457 0.024029 0)
(-0.157731 0.0175182 0)
(-0.158736 0.0109258 0)
(-0.159457 0.00428773 0)
(-0.159876 -0.00236049 0)
(-0.150019 0.0593228 0)
(-0.152561 0.0533192 0)
(-0.154893 0.0470453 0)
(-0.156997 0.0405293 0)
(-0.158858 0.0338019 0)
(-0.160464 0.0268949 0)
(-0.161798 0.0198413 0)
(-0.162847 0.0126745 0)
(-0.163594 0.00542659 0)
(-0.164025 -0.00187249 0)
(-0.153313 0.0647409 0)
(-0.155993 0.0583244 0)
(-0.158451 0.051597 0)
(-0.160669 0.0445965 0)
(-0.162634 0.0373565 0)
(-0.164331 0.0299081 0)
(-0.165748 0.0222854 0)
(-0.166871 0.0145212 0)
(-0.167689 0.00664669 0)
(-0.168189 -0.00130927 0)
(-0.156369 0.0704492 0)
(-0.159179 0.0635865 0)
(-0.161761 0.056393 0)
(-0.164106 0.0488938 0)
(-0.166194 0.0411268 0)
(-0.168011 0.0331237 0)
(-0.169543 0.0249219 0)
(-0.170781 0.0165566 0)
(-0.171716 0.0080598 0)
(-0.17234 -0.000538299 0)
(-0.159065 0.0764311 0)
(-0.162001 0.0691125 0)
(-0.164722 0.0614602 0)
(-0.167214 0.0534672 0)
(-0.169452 0.0451682 0)
(-0.171417 0.0366048 0)
(-0.173097 0.0278254 0)
(-0.174489 0.0188679 0)
(-0.175588 0.00976431 0)
(-0.176388 0.000545219 0)
(-0.161293 0.0825768 0)
(-0.164326 0.0748629 0)
(-0.167187 0.066805 0)
(-0.169857 0.0583792 0)
(-0.172285 0.04954 0)
(-0.174419 0.0404034 0)
(-0.176271 0.0310619 0)
(-0.177855 0.0215367 0)
(-0.179163 0.011854 0)
(-0.180189 0.00204263 0)
(-0.16271 0.088979 0)
(-0.165947 0.0809751 0)
(-0.169029 0.0725876 0)
(-0.171895 0.0636724 0)
(-0.174478 0.0542313 0)
(-0.176782 0.0445652 0)
(-0.178854 0.0347101 0)
(-0.180681 0.024658 0)
(-0.182253 0.0144337 0)
(-0.183561 0.00406451 0)
(-0.163464 0.0958597 0)
(-0.16691 0.0874889 0)
(-0.170113 0.0786402 0)
(-0.173062 0.0692178 0)
(-0.175795 0.0593061 0)
(-0.178333 0.0491963 0)
(-0.18067 0.0388696 0)
(-0.182781 0.028334 0)
(-0.18466 0.0176108 0)
(-0.1863 0.00672359 0)
(-0.16335 0.102986 0)
(-0.166846 0.0942021 0)
(-0.170137 0.0848854 0)
(-0.173241 0.075036 0)
(-0.176159 0.0648019 0)
(-0.178932 0.0543197 0)
(-0.181533 0.0435895 0)
(-0.183945 0.0326314 0)
(-0.186158 0.021466 0)
(-0.188165 0.0101143 0)
(-0.16195 0.110254 0)
(-0.165547 0.101099 0)
(-0.168962 0.0913934 0)
(-0.172209 0.081228 0)
(-0.175328 0.0707358 0)
(-0.178336 0.0599466 0)
(-0.181201 0.0488878 0)
(-0.183914 0.0375816 0)
(-0.186472 0.0260481 0)
(-0.188865 0.0143052 0)
(-0.159244 0.117627 0)
(-0.162868 0.108178 0)
(-0.166384 0.0981944 0)
(-0.169784 0.0878061 0)
(-0.173098 0.0770867 0)
(-0.176308 0.0660564 0)
(-0.179409 0.0547438 0)
(-0.1824 0.0431727 0)
(-0.185282 0.0313628 0)
(-0.188055 0.0193269 0)
(-0.155192 0.124994 0)
(-0.158845 0.115364 0)
(-0.162404 0.105216 0)
(-0.16589 0.0946689 0)
(-0.169308 0.083767 0)
(-0.172645 0.0725541 0)
(-0.175909 0.0610644 0)
(-0.17911 0.0493245 0)
(-0.182259 0.0373522 0)
(-0.185367 0.0251536 0)
(-0.149644 0.13244 0)
(-0.153319 0.122619 0)
(-0.156882 0.112322 0)
(-0.160376 0.101625 0)
(-0.163803 0.0905854 0)
(-0.16717 0.0792528 0)
(-0.170495 0.0676698 0)
(-0.173801 0.0558689 0)
(-0.177113 0.0438698 0)
(-0.18046 0.031673 0)
(-0.142663 0.139846 0)
(-0.146254 0.12982 0)
(-0.149761 0.119354 0)
(-0.153186 0.108512 0)
(-0.15654 0.0973532 0)
(-0.15984 0.0859387 0)
(-0.16311 0.0743239 0)
(-0.166384 0.0625547 0)
(-0.169706 0.0506617 0)
(-0.173129 0.0386485 0)
(-0.134381 0.147005 0)
(-0.137851 0.136808 0)
(-0.141234 0.126173 0)
(-0.144532 0.115174 0)
(-0.147751 0.103886 0)
(-0.150904 0.092386 0)
(-0.154013 0.0807496 0)
(-0.157113 0.069049 0)
(-0.160259 0.0573445 0)
(-0.163526 0.0456689 0)
(-0.12494 0.153907 0)
(-0.128311 0.143536 0)
(-0.131598 0.132723 0)
(-0.1348 0.121551 0)
(-0.137916 0.110102 0)
(-0.140945 0.0984683 0)
(-0.143892 0.0867485 0)
(-0.146771 0.0750504 0)
(-0.149615 0.0634901 0)
(-0.152487 0.0521775 0)
(-0.114594 0.160657 0)
(-0.117961 0.15013 0)
(-0.121275 0.139156 0)
(-0.124537 0.12781 0)
(-0.127738 0.116172 0)
(-0.130866 0.104327 0)
(-0.133895 0.092376 0)
(-0.136789 0.0804433 0)
(-0.139504 0.0686911 0)
(-0.142027 0.0573283 0)
(-0.103624 0.167494 0)
(-0.107144 0.156911 0)
(-0.110698 0.145893 0)
(-0.114306 0.134502 0)
(-0.117974 0.1228 0)
(-0.121697 0.110847 0)
(-0.125451 0.0987131 0)
(-0.129178 0.0864859 0)
(-0.132779 0.0742936 0)
(-0.136164 0.0623449 0)
(-0.0921629 0.174715 0)
(-0.0959809 0.164286 0)
(-0.0999683 0.153487 0)
(-0.104173 0.14237 0)
(-0.108633 0.130976 0)
(-0.113377 0.119322 0)
(-0.118429 0.107389 0)
(-0.123833 0.0951171 0)
(-0.12968 0.0824847 0)
(-0.135897 0.0698772 0)
(-0.0802107 0.182513 0)
(-0.0844112 0.172499 0)
(-0.0889363 0.162237 0)
(-0.0938632 0.151771 0)
(-0.0992788 0.141114 0)
(-0.105293 0.130222 0)
(-0.112033 0.119006 0)
(-0.119363 0.107731 0)
(-0.126971 0.0980178 0)
(-0.138138 0.0910984 0)
(-0.0678175 0.191034 0)
(-0.0724524 0.181766 0)
(-0.0775985 0.172457 0)
(-0.0833992 0.163161 0)
(-0.0900763 0.153882 0)
(-0.097911 0.144567 0)
(-0.106438 0.1355 0)
(-0.116032 0.128121 0)
(-0.131771 0.126282 0)
(-0.156757 0.134199 0)
(-0.0547316 0.200259 0)
(-0.0596722 0.192108 0)
(-0.065263 0.184207 0)
(-0.0717198 0.176646 0)
(-0.0794081 0.169474 0)
(-0.0880921 0.162842 0)
(-0.0972667 0.158017 0)
(-0.111613 0.159529 0)
(-0.133586 0.172427 0)
(-0.14876 0.164145 0)
(-0.0406222 0.209696 0)
(-0.0456651 0.20277 0)
(-0.0514214 0.196316 0)
(-0.0581576 0.190452 0)
(-0.0659875 0.185325 0)
(-0.0735807 0.181576 0)
(-0.082399 0.183336 0)
(-0.0975506 0.19961 0)
(-0.117856 0.200904 0)
(-0.12536 0.177072 0)
(-0.0257874 0.21944 0)
(-0.0310863 0.213986 0)
(-0.0373427 0.209309 0)
(-0.0449841 0.20562 0)
(-0.0538621 0.20312 0)
(-0.0627646 0.203123 0)
(-0.0763367 0.210109 0)
(-0.0963326 0.230122 0)
(-0.101693 0.21147 0)
(-0.102607 0.185187 0)
(-0.00901862 0.229352 0)
(-0.0137667 0.225528 0)
(-0.0192101 0.222807 0)
(-0.0256402 0.221384 0)
(-0.0324681 0.221354 0)
(-0.0390961 0.225292 0)
(-0.0473075 0.239532 0)
(-0.0642451 0.249381 0)
(-0.0704548 0.218884 0)
(-0.072771 0.19088 0)
(0.00947476 0.237313 0)
(0.0061005 0.234258 0)
(0.00250536 0.232366 0)
(-0.00149398 0.231799 0)
(-0.00555538 0.232753 0)
(-0.0089263 0.239226 0)
(-0.0130085 0.260396 0)
(-0.0246814 0.26463 0)
(-0.0319038 0.230264 0)
(-0.0364277 0.20008 0)
(0.0271283 0.242748 0)
(0.024858 0.239744 0)
(0.0225731 0.237739 0)
(0.0202252 0.236941 0)
(0.0180054 0.237712 0)
(0.0176414 0.244434 0)
(0.0185827 0.27089 0)
(0.00996308 0.279188 0)
(0.00203907 0.243505 0)
(-0.00340012 0.210803 0)
(0.0444092 0.246446 0)
(0.0431247 0.243603 0)
(0.0417838 0.241699 0)
(0.040254 0.240885 0)
(0.0385012 0.241444 0)
(0.0375648 0.246315 0)
(0.0386671 0.270298 0)
(0.0418167 0.291854 0)
(0.0376425 0.255757 0)
(0.0329001 0.21879 0)
(0.0620309 0.247647 0)
(0.062259 0.244617 0)
(0.0628207 0.242516 0)
(0.0637771 0.241479 0)
(0.0652153 0.241688 0)
(0.0671626 0.243574 0)
(0.0741001 0.254759 0)
(0.0858374 0.284454 0)
(0.0848998 0.268419 0)
(0.0768128 0.228726 0)
(0.0785831 0.24617 0)
(0.0800409 0.242204 0)
(0.0821311 0.238988 0)
(0.0849665 0.236601 0)
(0.088661 0.23507 0)
(0.0924985 0.234375 0)
(0.0990611 0.238079 0)
(0.110993 0.259009 0)
(0.125677 0.273959 0)
(0.120974 0.243771 0)
(0.0933021 0.242954 0)
(0.0956839 0.237538 0)
(0.098869 0.232757 0)
(0.102943 0.228659 0)
(0.108041 0.225246 0)
(0.114078 0.222487 0)
(0.120483 0.22105 0)
(0.131014 0.226299 0)
(0.151407 0.251852 0)
(0.163839 0.254514 0)
(0.105526 0.237942 0)
(0.10877 0.230932 0)
(0.112837 0.224425 0)
(0.117819 0.218458 0)
(0.123839 0.213019 0)
(0.131079 0.208026 0)
(0.138955 0.203393 0)
(0.147834 0.200275 0)
(0.162564 0.206337 0)
(0.189601 0.231519 0)
(0.116803 0.231826 0)
(0.120248 0.223078 0)
(0.124681 0.214726 0)
(0.130117 0.206813 0)
(0.136585 0.199332 0)
(0.144159 0.19219 0)
(0.152926 0.185161 0)
(0.161879 0.178238 0)
(0.172065 0.173264 0)
(0.1898 0.17829 0)
(0.125966 0.226224 0)
(0.12959 0.215226 0)
(0.134294 0.20467 0)
(0.140036 0.194634 0)
(0.146768 0.185121 0)
(0.154438 0.176035 0)
(0.163045 0.16721 0)
(0.172541 0.158364 0)
(0.181911 0.149655 0)
(0.192305 0.143014 0)
(0.130879 0.219272 0)
(0.135572 0.206186 0)
(0.141084 0.193622 0)
(0.147408 0.1817 0)
(0.154497 0.170448 0)
(0.162265 0.159802 0)
(0.170652 0.149621 0)
(0.179588 0.139722 0)
(0.188993 0.129863 0)
(0.198118 0.120273 0)
(0.135999 0.210296 0)
(0.141136 0.195374 0)
(0.147052 0.181234 0)
(0.153619 0.167926 0)
(0.160759 0.15546 0)
(0.168349 0.143786 0)
(0.176287 0.132787 0)
(0.184481 0.122314 0)
(0.192855 0.112222 0)
(0.201331 0.102346 0)
(0.142428 0.201353 0)
(0.147605 0.184205 0)
(0.153358 0.168517 0)
(0.159564 0.154113 0)
(0.166196 0.14088 0)
(0.173114 0.128686 0)
(0.180175 0.117355 0)
(0.187287 0.106725 0)
(0.19439 0.0966673 0)
(0.201434 0.087101 0)
(0.151588 0.192557 0)
(0.155677 0.175184 0)
(0.16034 0.158262 0)
(0.165452 0.142437 0)
(0.17096 0.128359 0)
(0.176636 0.115839 0)
(0.182305 0.104456 0)
(0.18791 0.0939067 0)
(0.19342 0.0840285 0)
(0.198813 0.0747362 0)
(0.157702 0.183288 0)
(0.160219 0.165716 0)
(0.1636 0.149626 0)
(0.167534 0.133908 0)
(0.172309 0.119063 0)
(0.177143 0.106269 0)
(0.181508 0.094928 0)
(0.185609 0.0845474 0)
(0.189582 0.0749 0)
(0.193419 0.0658886 0)
(0.147515 0.178302 0)
(0.151164 0.16253 0)
(0.157749 0.140891 0)
(0.163069 0.122203 0)
(0.167801 0.108615 0)
(0.172308 0.0978078 0)
(0.176162 0.0874441 0)
(0.179549 0.077575 0)
(0.182809 0.0682722 0)
(0.186001 0.0595302 0)
(0.137071 0.172113 0)
(0.142818 0.154861 0)
(0.15105 0.12781 0)
(0.157392 0.10925 0)
(0.160634 0.099328 0)
(0.163302 0.0907196 0)
(0.166285 0.0810468 0)
(0.1696 0.0711932 0)
(0.173143 0.0618328 0)
(0.176693 0.0529799 0)
(0.123596 0.150009 0)
(0.13581 0.129961 0)
(0.142376 0.112787 0)
(0.145337 0.103248 0)
(0.147014 0.0957749 0)
(0.148504 0.086231 0)
(0.151194 0.0746465 0)
(0.1553 0.0628291 0)
(0.160148 0.0527661 0)
(0.164862 0.0452027 0)
(0.110455 0.126699 0)
(0.117615 0.116072 0)
(0.122625 0.107198 0)
(0.125993 0.10003 0)
(0.12782 0.093687 0)
(0.128863 0.0832646 0)
(0.131615 0.0677313 0)
(0.13736 0.0542488 0)
(0.144804 0.0447991 0)
(0.152339 0.0394274 0)
(0.0914224 0.117442 0)
(0.0952137 0.108291 0)
(0.0984282 0.0999104 0)
(0.100978 0.0940298 0)
(0.10467 0.0904136 0)
(0.110651 0.0792953 0)
(0.116795 0.0598992 0)
(0.12213 0.0425275 0)
(0.129373 0.0234739 0)
(0.14631 -0.00210206 0)
(0.0735901 0.112561 0)
(0.0745476 0.103887 0)
(0.0755923 0.0957276 0)
(0.0768469 0.0883078 0)
(0.0797497 0.0774831 0)
(0.0899877 0.0563807 0)
(0.103242 0.0358224 0)
(0.119184 0.0143534 0)
(0.135146 -0.0104195 0)
(0.149196 -0.0422543 0)
(0.0620216 0.110258 0)
(0.0628497 0.101677 0)
(0.0648729 0.0924121 0)
(0.0688359 0.0809169 0)
(0.0745816 0.0614794 0)
(0.0824863 0.0372743 0)
(0.091044 0.0119915 0)
(0.102358 -0.011989 0)
(0.11762 -0.0391321 0)
(0.136217 -0.0744391 0)
(0.0500743 0.11021 0)
(0.050534 0.100777 0)
(0.0509548 0.0883748 0)
(0.0541391 0.0705323 0)
(0.0598365 0.0454076 0)
(0.0678759 0.0201263 0)
(0.0770195 -0.00939712 0)
(0.0886282 -0.0400221 0)
(0.106317 -0.0705311 0)
(0.132443 -0.111994 0)
(0.0304388 0.106245 0)
(0.0332916 0.0971734 0)
(0.0369007 0.0831477 0)
(0.0405551 0.0598643 0)
(0.0418824 0.032237 0)
(0.0437347 0.00647742 0)
(0.0488931 -0.0194998 0)
(0.0600245 -0.0568013 0)
(0.0919982 -0.116628 0)
(0.163228 -0.209918 0)
(0.00464054 0.0994826 0)
(0.00546445 0.0889464 0)
(0.00525663 0.0752399 0)
(0.00554207 0.0599077 0)
(0.00670672 0.0457902 0)
(0.00741913 0.0162639 0)
(0.0271811 -0.0438968 0)
(0.079804 -0.142218 0)
(0.166155 -0.290744 0)
(0.264688 -0.425842 0)
(-0.0266382 0.0982136 0)
(-0.0289235 0.0961268 0)
(-0.0338258 0.0915606 0)
(-0.0379169 0.0676487 0)
(-0.0289071 0.030339 0)
(0.00775662 -0.0464276 0)
(0.0754673 -0.172513 0)
(0.176581 -0.344448 0)
(0.278713 -0.487429 0)
(0.342374 -0.561461 0)
(-0.0575104 0.113562 0)
(-0.0643789 0.108121 0)
(-0.0597439 0.0891585 0)
(-0.0367821 0.0309768 0)
(-0.00512581 -0.0624901 0)
(0.0610549 -0.18904 0)
(0.171187 -0.383229 0)
(0.266508 -0.537324 0)
(0.327739 -0.615956 0)
(0.377744 -0.662487 0)
(-0.0483835 0.115785 0)
(-0.0392979 0.0960466 0)
(-0.0291146 0.0345017 0)
(0.00084365 -0.0469602 0)
(0.0480625 -0.165595 0)
(0.138255 -0.374401 0)
(0.249824 -0.571417 0)
(0.313097 -0.664668 0)
(0.362098 -0.717752 0)
(0.409549 -0.759021 0)
(-0.0342112 0.0855796 0)
(-0.0260404 0.0587443 0)
(-0.016375 0.0110225 0)
(0.00832859 -0.0924789 0)
(0.118234 -0.349579 0)
(0.233427 -0.600346 0)
(0.301349 -0.708985 0)
(0.347626 -0.765427 0)
(0.390218 -0.808349 0)
(0.431227 -0.844952 0)
(-0.0513471 0.08432 0)
(-0.052763 0.0659598 0)
(-0.0483045 0.00635975 0)
(0.0706071 -0.317262 0)
(0.211176 -0.638115 0)
(0.276184 -0.74706 0)
(0.318866 -0.801258 0)
(0.358962 -0.845414 0)
(0.397343 -0.88568 0)
(0.434512 -0.920692 0)
(-0.0689152 0.0921393 0)
(-0.0738294 0.0556989 0)
(0.00523433 -0.217119 0)
(0.184011 -0.638662 0)
(0.246066 -0.76903 0)
(0.28326 -0.82766 0)
(0.320093 -0.874585 0)
(0.357054 -0.919008 0)
(0.392963 -0.958905 0)
(0.427335 -0.991192 0)
(-0.0637448 0.0990426 0)
(-0.0242987 -0.103733 0)
(0.150381 -0.546001 0)
(0.215016 -0.75799 0)
(0.253988 -0.842957 0)
(0.28484 -0.896052 0)
(0.318039 -0.944096 0)
(0.351305 -0.988394 0)
(0.383485 -1.02581 0)
(0.413393 -1.05293 0)
(-0.0485371 0.0339605 0)
(0.0635514 -0.307873 0)
(0.18177 -0.728163 0)
(0.226396 -0.848485 0)
(0.252101 -0.906763 0)
(0.28057 -0.957345 0)
(0.310389 -1.00615 0)
(0.339875 -1.04966 0)
(0.367783 -1.08331 0)
(0.3925 -1.10345 0)
(-0.00199132 -0.13945 0)
(0.151266 -0.62329 0)
(0.192795 -0.817316 0)
(0.221408 -0.900024 0)
(0.244659 -0.956884 0)
(0.270425 -1.01108 0)
(0.297116 -1.06157 0)
(0.323143 -1.10322 0)
(0.346678 -1.13117 0)
(0.366003 -1.14235 0)
(0.0615721 -0.285603 0)
(0.157707 -0.753806 0)
(0.189948 -0.881921 0)
(0.209451 -0.946525 0)
(0.231694 -1.00443 0)
(0.255629 -1.0611 0)
(0.2797 -1.11142 0)
(0.302243 -1.14901 0)
(0.321299 -1.16916 0)
(0.335416 -1.16991 0)
(0.115914 -0.566205 0)
(0.149704 -0.818045 0)
(0.175875 -0.922806 0)
(0.194021 -0.987201 0)
(0.214941 -1.04871 0)
(0.237171 -1.10721 0)
(0.258947 -1.15558 0)
(0.278125 -1.18694 0)
(0.292899 -1.19761 0)
(0.302337 -1.1872 0)
(0.0960754 -0.717884 0)
(0.137048 -0.889351 0)
(0.158841 -0.965491 0)
(0.177454 -1.02705 0)
(0.197306 -1.0902 0)
(0.217644 -1.14893 0)
(0.2367 -1.19341 0)
(0.252238 -1.21684 0)
(0.26297 -1.21724 0)
(0.26846 -1.19591 0)
(0.145044 -0.798309 0)
(0.144854 -0.92783 0)
(0.151062 -0.991389 0)
(0.162975 -1.05695 0)
(0.17897 -1.12537 0)
(0.19652 -1.18493 0)
(0.212416 -1.22444 0)
(0.224346 -1.23921 0)
(0.231748 -1.22981 0)
(0.234534 -1.1987 0)
(0.0856174 -0.830178 0)
(0.108631 -0.938008 0)
(0.12056 -1.01112 0)
(0.135909 -1.08707 0)
(0.153772 -1.16042 0)
(0.171081 -1.21805 0)
(0.184863 -1.25021 0)
(0.193959 -1.25577 0)
(0.198937 -1.23787 0)
(0.200294 -1.19898 0)
(0.0697784 -0.864197 0)
(0.0840142 -0.964061 0)
(0.0976631 -1.04209 0)
(0.114127 -1.12197 0)
(0.13115 -1.19532 0)
(0.146029 -1.24729 0)
(0.1565 -1.27032 0)
(0.162444 -1.26717 0)
(0.164805 -1.24301 0)
(0.164473 -1.20054 0)
(0.0586717 -0.892489 0)
(0.0663692 -0.987376 0)
(0.0787681 -1.0702 0)
(0.0939421 -1.15315 0)
(0.108794 -1.22498 0)
(0.120383 -1.26954 0)
(0.127166 -1.28312 0)
(0.129726 -1.27236 0)
(0.128652 -1.24351 0)
(0.125416 -1.19927 0)
(0.0392887 -0.900891 0)
(0.0484196 -1.00875 0)
(0.0610528 -1.09712 0)
(0.0752637 -1.18099 0)
(0.0878335 -1.24878 0)
(0.0959403 -1.28399 0)
(0.0991919 -1.28798 0)
(0.0985252 -1.26993 0)
(0.0938272 -1.23564 0)
(0.0882096 -1.18725 0)
(0.0279954 -0.92615 0)
(0.0368582 -1.03372 0)
(0.048409 -1.12237 0)
(0.060678 -1.20485 0)
(0.0706599 -1.26666 0)
(0.0756611 -1.2918 0)
(0.0765268 -1.2872 0)
(0.074332 -1.26227 0)
(0.0685783 -1.22087 0)
(0.0634711 -1.16469 0)
(0.0185164 -0.952444 0)
(0.0274256 -1.05619 0)
(0.0380745 -1.14464 0)
(0.0492201 -1.2255 0)
(0.0573853 -1.28026 0)
(0.0604221 -1.29643 0)
(0.0607763 -1.28634 0)
(0.0598374 -1.25726 0)
(0.0572872 -1.20977 0)
(0.0560763 -1.14409 0)
(0.0150411 -0.97 0)
(0.0225657 -1.07432 0)
(0.0312778 -1.16362 0)
(0.0407699 -1.24281 0)
(0.0466117 -1.2895 0)
(0.0477248 -1.29898 0)
(0.0479883 -1.28764 0)
(0.0491838 -1.25954 0)
(0.0520157 -1.21199 0)
(0.0578783 -1.14066 0)
(0.0107148 -0.98164 0)
(0.0173484 -1.0875 0)
(0.0247272 -1.17898 0)
(0.0328284 -1.25625 0)
(0.0362205 -1.29345 0)
(0.0351911 -1.29804 0)
(0.0340948 -1.28769 0)
(0.03424 -1.26339 0)
(0.0371687 -1.21969 0)
(0.0450386 -1.1464 0)
(0.000131218 -0.991636 0)
(0.00803882 -1.10007 0)
(0.0166232 -1.19431 0)
(0.0248204 -1.26771 0)
(0.0268528 -1.29378 0)
(0.0248827 -1.29489 0)
(0.0232883 -1.28589 0)
(0.0230743 -1.26586 0)
(0.0273286 -1.22796 0)
(0.0375668 -1.15706 0)
(-0.00883319 -1.00085 0)
(-0.000287511 -1.11424 0)
(0.00966282 -1.21166 0)
(0.0176274 -1.27815 0)
(0.018843 -1.293 0)
(0.0169208 -1.29255 0)
(0.0159263 -1.28518 0)
(0.0163753 -1.26986 0)
(0.0219173 -1.24057 0)
(0.0301543 -1.1813 0)
(-0.0189445 -1.00885 0)
(-0.00969199 -1.13073 0)
(0.00244749 -1.23175 0)
(0.0100386 -1.28742 0)
(0.0111282 -1.29243 0)
(0.00973858 -1.29209 0)
(0.0102136 -1.28647 0)
(0.0123216 -1.27606 0)
(0.0188418 -1.25843 0)
(0.0215227 -1.22283 0)
(-0.032662 -1.02772 0)
(-0.020963 -1.155 0)
(-0.00440454 -1.2556 0)
(0.00265514 -1.29511 0)
(0.00394164 -1.29196 0)
(0.00215116 -1.29204 0)
(0.00271128 -1.28732 0)
(0.00307038 -1.27957 0)
(0.00469011 -1.27071 0)
(0.00268839 -1.2576 0)
(-0.0283241 -1.05151 0)
(-0.0188776 -1.18174 0)
(-0.00339403 -1.27864 0)
(-0.00119228 -1.29908 0)
(-0.000235772 -1.29028 0)
(-0.00374198 -1.29051 0)
(-0.00362147 -1.28588 0)
(-0.00503224 -1.27739 0)
(-0.00764299 -1.27014 0)
(-0.0111901 -1.26443 0)
(-0.0227221 -1.07327 0)
(-0.0155913 -1.20527 0)
(-0.000100797 -1.2965 0)
(-0.00330465 -1.29833 0)
(-0.00170887 -1.28657 0)
(-0.00764377 -1.28682 0)
(-0.00821963 -1.28264 0)
(-0.0107397 -1.27175 0)
(-0.0156077 -1.26227 0)
(-0.0199542 -1.25695 0)
(-0.0117574 -1.09662 0)
(-0.0105199 -1.22732 0)
(0.00564113 -1.30883 0)
(-0.00340483 -1.29382 0)
(-0.000449246 -1.28075 0)
(-0.00884478 -1.28078 0)
(-0.0100239 -1.27834 0)
(-0.0127598 -1.26457 0)
(-0.0181385 -1.2501 0)
(-0.0227825 -1.24287 0)
(0.00370323 -1.11891 0)
(-0.00369996 -1.24583 0)
(0.0142978 -1.31386 0)
(-0.000983581 -1.28525 0)
(0.00297954 -1.27224 0)
(-0.0078059 -1.27204 0)
(-0.00946657 -1.27361 0)
(-0.0121661 -1.25898 0)
(-0.0161167 -1.23662 0)
(-0.020144 -1.224 0)
(0.020117 -1.11273 0)
(0.00536096 -1.25679 0)
(0.0252115 -1.30976 0)
(0.00270276 -1.27186 0)
(0.00674558 -1.26057 0)
(-0.00633994 -1.2603 0)
(-0.00807587 -1.267 0)
(-0.0119059 -1.25773 0)
(-0.0105529 -1.22477 0)
(-0.0126582 -1.19849 0)
(0.0308029 -1.04976 0)
(0.00686551 -1.26452 0)
(0.03304 -1.29848 0)
(0.00428989 -1.25533 0)
(0.00849136 -1.24712 0)
(-0.00570897 -1.24692 0)
(-0.00606806 -1.25524 0)
(-0.0154939 -1.26149 0)
(-0.00190991 -1.22056 0)
(-0.0041009 -1.15886 0)
(0.022798 -0.975507 0)
(-0.00845286 -1.28809 0)
(0.0317245 -1.2864 0)
(0.00247508 -1.23997 0)
(0.00777456 -1.23471 0)
(-0.00427983 -1.23482 0)
(0.000394328 -1.23897 0)
(-0.0213856 -1.26798 0)
(0.0132399 -1.24864 0)
(-0.00645752 -1.0833 0)
(-0.116978 -0.00135278 0)
(-0.115682 -0.00161846 0)
(-0.114144 -0.00187625 0)
(-0.112373 -0.00213068 0)
(-0.110371 -0.00238527 0)
(-0.108136 -0.00264325 0)
(-0.105665 -0.00290776 0)
(-0.102953 -0.00318166 0)
(-0.0999913 -0.00346718 0)
(-0.0967693 -0.00376538 0)
(-0.0932775 -0.00407534 0)
(-0.089508 -0.00439317 0)
(-0.0854582 -0.00471092 0)
(-0.0811352 -0.00501543 0)
(-0.0765602 -0.00528727 0)
(-0.0717748 -0.00549989 0)
(-0.0668472 -0.00561932 0)
(-0.0618778 -0.00560507 0)
(-0.0570035 -0.00541323 0)
(-0.0523972 -0.00500328 0)
(-0.0482579 -0.00435271 0)
(-0.0447816 -0.00348933 0)
(-0.0420923 -0.00253903 0)
(-0.0401367 -0.001741 0)
(-0.0386152 -0.00135655 0)
(-0.0370593 -0.00149183 0)
(-0.0350663 -0.0020113 0)
(-0.0324706 -0.00266427 0)
(-0.0293233 -0.00325526 0)
(-0.025749 -0.00374051 0)
(-0.0218331 -0.00412369 0)
(-0.0176679 -0.00436073 0)
(-0.013403 -0.00438996 0)
(-0.00923339 -0.00415268 0)
(-0.00538195 -0.00360954 0)
(-0.00206868 -0.002752 0)
(0.000492376 -0.00156399 0)
(0.00209618 0.000121733 0)
(0.00219559 0.0014137 0)
(0.00155212 0.0027445 0)
(-0.120885 -0.00304465 0)
(-0.11983 -0.00367047 0)
(-0.118577 -0.00428426 0)
(-0.117128 -0.00489109 0)
(-0.115484 -0.00549703 0)
(-0.113644 -0.00610845 0)
(-0.111608 -0.00673192 0)
(-0.109371 -0.00737365 0)
(-0.106926 -0.00803846 0)
(-0.104268 -0.00872841 0)
(-0.101387 -0.00944089 0)
(-0.0982762 -0.0101664 0)
(-0.094932 -0.0108861 0)
(-0.0913562 -0.0115697 0)
(-0.0875604 -0.0121731 0)
(-0.0835695 -0.0126372 0)
(-0.0794261 -0.0128871 0)
(-0.075195 -0.0128343 0)
(-0.0709684 -0.0123832 0)
(-0.0668707 -0.0114474 0)
(-0.0630641 -0.00998809 0)
(-0.059743 -0.00809917 0)
(-0.0570649 -0.00613194 0)
(-0.0549891 -0.00468649 0)
(-0.0531665 -0.00432657 0)
(-0.0510727 -0.00514786 0)
(-0.0483855 -0.00658848 0)
(-0.0451177 -0.00807105 0)
(-0.0414589 -0.00926836 0)
(-0.0375623 -0.0102126 0)
(-0.0334265 -0.0109641 0)
(-0.0290594 -0.0114109 0)
(-0.0245697 -0.0114153 0)
(-0.0201218 -0.0108715 0)
(-0.0158952 -0.00975985 0)
(-0.0120108 -0.00815359 0)
(-0.00848038 -0.00611446 0)
(-0.00525405 -0.00357757 0)