/*--------------------------------*- C++ -*----------------------------------*\
  =========                 |
  \\      /  F ield         | OpenFOAM: The Open Source CFD Toolbox
   \\    /   O peration     | Website:  https://openfoam.org
    \\  /    A nd           | Version:  8
     \\/     M anipulation  |
\*---------------------------------------------------------------------------*/
FoamFile
{
    version     2.0;
    format      ascii;
    class       volScalarField;
    location    "4.9";
    object      k;
}
// * * * * * * * * * * * * * * * * * * * * * * * * * * * * * * * * * * * * * //

dimensions      [0 2 -2 0 0 0 0];

internalField   nonuniform List<scalar> 
9150
(
0.00182764
0.000940976
0.000475574
0.000301376
0.000191967
0.000191862
0.000301239
0.000475433
0.000940837
0.00182764
0.00178493
0.000746818
0.000398825
0.000256668
0.000160534
0.000160448
0.000256541
0.000398698
0.0007467
0.00178492
0.00171344
0.000651475
0.000365814
0.000236588
0.000147933
0.000147857
0.000236471
0.000365694
0.00065137
0.00171343
0.00163487
0.000601445
0.000352685
0.000228533
0.000143132
0.000143061
0.000228421
0.000352569
0.000601352
0.00163485
0.0015514
0.000579964
0.000347907
0.000225699
0.000141625
0.000141556
0.00022559
0.000347792
0.000579875
0.00155138
0.00284749
0.00255403
0.00185119
0.0016132
0.00132517
0.00132536
0.0016145
0.0018542
0.0025585
0.00284814
0.00230478
0.00150387
0.00128042
0.00120721
0.000971364
0.000971263
0.0012076
0.00128166
0.00150468
0.0023047
0.00204961
0.00125242
0.000887644
0.000806068
0.000623636
0.00062347
0.000806093
0.000887963
0.00125246
0.00204952
0.00186777
0.0011105
0.000649372
0.000529406
0.000385082
0.000384931
0.000529291
0.000649348
0.00111033
0.00186771
0.00178741
0.00102081
0.000523965
0.000371395
0.000252127
0.000252004
0.000371253
0.000523838
0.00102062
0.00178738
0.0117549
0.00499258
0.00258622
0.00189292
0.00153478
0.00153051
0.00189096
0.00264177
0.00552537
0.013626
0.00491321
0.00380275
0.00250529
0.0018893
0.0015415
0.0015395
0.00188946
0.0025039
0.00375211
0.00494429
0.004408
0.00343173
0.00248569
0.00188741
0.00154874
0.0015485
0.00189028
0.00248901
0.00341476
0.00441706
0.00391904
0.00315467
0.00246968
0.00188429
0.00155576
0.00155641
0.00188749
0.0024737
0.00315817
0.0039227
0.00335877
0.00309967
0.00236706
0.00183913
0.00152832
0.0015291
0.00184184
0.00237127
0.0031082
0.00336018
0.000490072
0.000487659
0.000485323
0.000483007
0.000480668
0.000478279
0.00047586
0.000473589
0.000471968
0.000471346
0.00107975
0.00108242
0.00108492
0.00108717
0.00108907
0.00109057
0.00109158
0.00109209
0.00109208
0.00109163
0.00147412
0.00147878
0.00148319
0.00148725
0.00149092
0.00149413
0.00149681
0.00149892
0.00150048
0.00150149
0.00179319
0.00180061
0.00180791
0.00181505
0.00182196
0.00182857
0.00183486
0.00184084
0.00184649
0.00185181
0.00208242
0.00209416
0.00210619
0.00211841
0.0021308
0.00214335
0.00215607
0.00216895
0.00218198
0.00219511
0.0023642
0.00238246
0.00240158
0.00242157
0.00244243
0.00246416
0.00248676
0.00251019
0.00253442
0.00255936
0.00265389
0.0026815
0.00271089
0.00274207
0.00277503
0.00280973
0.00284612
0.00288411
0.00292357
0.00296432
0.00296421
0.0030048
0.00304828
0.00309461
0.0031437
0.00319542
0.00324957
0.00330593
0.00336418
0.00342398
0.00330669
0.00336438
0.00342614
0.00349177
0.00356099
0.00363344
0.00370866
0.00378617
0.00386541
0.00394578
0.00369147
0.00377052
0.00385465
0.00394335
0.00403597
0.00413178
0.00422994
0.0043296
0.00442994
0.00453013
0.00412643
0.0042307
0.00434058
0.00445509
0.00457308
0.00469327
0.00481437
0.00493517
0.00505463
0.00517185
0.00461613
0.00474848
0.00488629
0.00502798
0.00517179
0.00531588
0.00545846
0.005598
0.00573336
0.00586383
0.00516103
0.00532304
0.00548962
0.00565859
0.00582765
0.00599444
0.00615673
0.00631262
0.00646095
0.0066014
0.00575774
0.00594978
0.00614489
0.00634046
0.00653386
0.00672246
0.00690371
0.00707525
0.0072356
0.00738483
0.00640044
0.00662222
0.0068452
0.0070665
0.00728344
0.00749353
0.00769433
0.0078832
0.00805775
0.00821809
0.00708262
0.00733408
0.00758474
0.0078315
0.00807179
0.00830352
0.00852485
0.00873363
0.0089269
0.00910386
0.00779752
0.00807956
0.00835896
0.00863233
0.00889717
0.00915196
0.0093959
0.00962825
0.00984796
0.0100534
0.00853811
0.0088529
0.00916393
0.00946729
0.00976051
0.010043
0.0103155
0.0105787
0.010835
0.0110872
0.00929683
0.00964729
0.00999409
0.0103323
0.0106593
0.0109762
0.0112867
0.0115949
0.0119059
0.0122231
0.0100673
0.0104565
0.0108443
0.0112244
0.0115936
0.0119561
0.0123193
0.0126894
0.0130709
0.013468
0.0108459
0.0112747
0.0117072
0.012136
0.0125576
0.0129803
0.0134121
0.0138593
0.0143247
0.0148135
0.0116384
0.0121051
0.0125795
0.0130577
0.013543
0.0140401
0.0145558
0.0150931
0.0156548
0.0162459
0.0124494
0.0129534
0.0134694
0.0140039
0.0145643
0.0151463
0.0157542
0.01639
0.0170559
0.0177564
0.0132755
0.0138199
0.0143883
0.0149943
0.0156387
0.0163127
0.0170186
0.017758
0.018533
0.019347
0.0141459
0.0147369
0.0153638
0.0160433
0.0167729
0.0175441
0.0183551
0.0192055
0.020096
0.0210292
0.0150554
0.0157024
0.0163995
0.0171612
0.0179816
0.0188551
0.0197775
0.0207462
0.0217599
0.0228193
0.0160183
0.0167252
0.0175006
0.0183535
0.0192751
0.0202592
0.0213006
0.0223947
0.0235387
0.0247313
0.0170547
0.0178267
0.0186839
0.0196323
0.020662
0.0217643
0.0229314
0.0241573
0.0254372
0.0267681
0.0181811
0.019024
0.0199678
0.0210148
0.0221546
0.0233769
0.0246721
0.0260317
0.0274489
0.0289184
0.0194192
0.0203351
0.021365
0.0225103
0.0237588
0.0250998
0.0265218
0.0280139
0.0295664
0.0311715
0.0207861
0.0217756
0.0228861
0.0241233
0.025477
0.0269338
0.0284797
0.030101
0.0317852
0.033522
0.022286
0.0233523
0.0245414
0.0258636
0.0273144
0.0288801
0.0305441
0.0322898
0.0341019
0.0359667
0.0239183
0.0250656
0.0263331
0.0277312
0.0292666
0.0309322
0.0327087
0.0345747
0.0365111
0.0385011
0.0256902
0.026919
0.0282458
0.029702
0.0313148
0.0330773
0.0349631
0.0369447
0.0389999
0.0411101
0.0275848
0.0288966
0.0302642
0.0317581
0.0334455
0.0353085
0.0373001
0.0393875
0.0415518
0.0437753
0.0295487
0.0308605
0.0322363
0.0338415
0.035663
0.0376399
0.0397177
0.0418879
0.0441473
0.0464775
0.0316265
0.0329257
0.0343195
0.0360105
0.0379286
0.039975
0.0421256
0.0443915
0.0467623
0.049208
0.0339064
0.0352777
0.036692
0.0383367
0.0402244
0.0423046
0.0445549
0.04694
0.0494306
0.0519891
0.0364379
0.0379265
0.0394071
0.041019
0.0428481
0.0449034
0.0471737
0.0496249
0.0522005
0.0548407
0.0391929
0.0407892
0.0423735
0.0440355
0.0458596
0.047886
0.0501273
0.0525718
0.0551616
0.0578238
0.0420927
0.0438224
0.0455257
0.0472777
0.0491568
0.0511991
0.0534254
0.055836
0.0583877
0.0610157
0.0450945
0.0469828
0.0488336
0.0507146
0.0526859
0.0547813
0.0570188
0.0593982
0.0618918
0.0644549
0.0482236
0.0502942
0.0523201
0.0543491
0.0564249
0.0585849
0.0608444
0.0632018
0.0656447
0.0681451
0.0514895
0.0537567
0.0559686
0.0581486
0.0603331
0.0625639
0.0648524
0.0671978
0.069602
0.0720632
0.0548551
0.0573159
0.0597139
0.0620513
0.0643575
0.0666679
0.0689886
0.0713277
0.0737138
0.0761666
0.0583423
0.0609748
0.0635321
0.0660142
0.0684409
0.0708336
0.0731838
0.0755153
0.0779026
0.0803805
0.0619709
0.0647505
0.0674361
0.0700298
0.0725488
0.0750023
0.0773674
0.0797015
0.0821142
0.0846356
0.0657585
0.0686545
0.071431
0.0740951
0.0766653
0.0791508
0.081542
0.083909
0.0863585
0.0889318
0.069736
0.0727077
0.0755256
0.0782099
0.0807894
0.0832876
0.0857232
0.0881567
0.0906656
0.0933028
0.0739653
0.0769605
0.0797587
0.0824107
0.0849685
0.0874706
0.0899568
0.0924785
0.0950792
0.0978037
0.0785239
0.0814834
0.0841941
0.0867649
0.0892798
0.0917941
0.0943477
0.0969747
0.0996992
0.102551
0.0834073
0.086257
0.0888319
0.0913122
0.0938011
0.096352
0.0989987
0.101762
0.104657
0.107699
0.0884959
0.0911997
0.0936034
0.0960158
0.098517
0.10115
0.103948
0.106923
0.110088
0.11346
0.0935563
0.0959864
0.098396
0.100838
0.103446
0.106297
0.109405
0.112782
0.11646
0.120489
0.0975479
0.100715
0.103575
0.106116
0.109091
0.112543
0.116325
0.120514
0.125239
0.130582
0.100047
0.103797
0.107494
0.111244
0.115413
0.120167
0.125484
0.131494
0.138243
0.145581
0.101164
0.105126
0.109722
0.114925
0.120592
0.126321
0.131817
0.137391
0.143947
0.152111
0.100931
0.105395
0.110048
0.115015
0.120173
0.125417
0.131149
0.138104
0.146687
0.156574
0.0981448
0.10311
0.108261
0.11379
0.119455
0.125107
0.130981
0.136888
0.14283
0.149101
0.0952435
0.100404
0.105741
0.111338
0.117162
0.123037
0.128867
0.134627
0.140293
0.145875
0.0924717
0.0979477
0.103656
0.109627
0.115799
0.121995
0.127969
0.133614
0.139038
0.144456
0.0896528
0.0954026
0.101346
0.107365
0.113493
0.119523
0.125051
0.130269
0.135784
0.141826
0.0854476
0.0907208
0.0959751
0.101392
0.107011
0.112828
0.118927
0.125523
0.132878
0.141276
0.0794445
0.0843089
0.08943
0.0949201
0.100913
0.107604
0.11525
0.123993
0.134114
0.145939
0.0745165
0.0794452
0.0849652
0.0912052
0.0983849
0.106696
0.116416
0.12785
0.141392
0.157493
0.0712567
0.0768039
0.0832495
0.0908139
0.0996844
0.110155
0.122573
0.137369
0.155069
0.176014
0.0694761
0.0761263
0.0839846
0.0933048
0.104377
0.117539
0.133196
0.151878
0.174033
0.198304
0.0693294
0.0773109
0.0868989
0.0983812
0.11207
0.128318
0.147589
0.17033
0.195828
0.218963
0.0709962
0.0806039
0.0922165
0.106158
0.122757
0.142389
0.165492
0.191931
0.217298
0.233611
0.0744599
0.0860011
0.0999697
0.116702
0.136531
0.159842
0.186702
0.214347
0.233918
0.238447
0.0800909
0.0938712
0.110527
0.1304
0.153828
0.180985
0.210391
0.233755
0.241377
0.23224
0.0878891
0.104377
0.124208
0.147724
0.175205
0.205901
0.233084
0.244468
0.236457
0.218934
0.0983057
0.118059
0.141677
0.169498
0.201228
0.232022
0.247985
0.241628
0.223418
0.204823
0.111767
0.13549
0.163682
0.19636
0.230799
0.252747
0.248632
0.229537
0.209109
0.192073
0.128738
0.157376
0.191191
0.228773
0.257596
0.258054
0.238164
0.215119
0.19553
0.181064
0.14989
0.184724
0.225151
0.262595
0.270723
0.250092
0.223612
0.200565
0.183195
0.172216
0.175987
0.218229
0.264586
0.286545
0.26676
0.235912
0.208286
0.186918
0.172748
0.166164
0.208361
0.259743
0.301713
0.290443
0.254178
0.220451
0.193574
0.174773
0.16471
0.16342
0.248045
0.308633
0.322014
0.281138
0.239537
0.205142
0.17976
0.164421
0.159461
0.164366
0.296896
0.347379
0.319602
0.268735
0.2243
0.189975
0.166991
0.156185
0.157367
0.169313
0.352664
0.369732
0.309824
0.25359
0.208083
0.17486
0.155397
0.150303
0.158661
0.178409
0.39775
0.367272
0.297185
0.237605
0.191473
0.160081
0.145215
0.146982
0.163458
0.191605
0.423312
0.35202
0.279838
0.219718
0.17406
0.14557
0.13658
0.146378
0.171747
0.208637
0.434619
0.344661
0.265221
0.202266
0.156618
0.131647
0.12969
0.148553
0.183348
0.229063
0.441933
0.330854
0.246275
0.182434
0.138141
0.118072
0.124551
0.153422
0.197979
0.252473
0.401102
0.302117
0.223025
0.161396
0.119387
0.105215
0.121204
0.160721
0.215268
0.278455
0.38359
0.284052
0.20469
0.14255
0.101572
0.0933948
0.119407
0.169966
0.235085
0.307698
0.372787
0.270417
0.188953
0.125115
0.0844484
0.0822964
0.118404
0.180296
0.257297
0.341737
0.364155
0.258992
0.174663
0.108643
0.0679395
0.0714858
0.117007
0.19027
0.281106
0.381575
0.358015
0.248653
0.160841
0.0927032
0.0521688
0.0605241
0.113659
0.197616
0.304249
0.426298
0.353558
0.238165
0.146459
0.0769538
0.0376119
0.0491764
0.10673
0.199319
0.322426
0.470374
0.349908
0.226496
0.130868
0.0614729
0.025102
0.0376836
0.095284
0.192724
0.331116
0.509224
0.344582
0.212208
0.113633
0.0466572
0.0154129
0.0267863
0.0795453
0.175974
0.324781
0.535081
0.334007
0.1937
0.0946011
0.033159
0.00882037
0.0174586
0.0610836
0.148642
0.29554
0.523401
0.314238
0.169849
0.0743059
0.0218209
0.00494392
0.0104638
0.0428019
0.114599
0.242952
0.454525
0.281078
0.140485
0.0540806
0.0132848
0.00296775
0.00592317
0.0275121
0.0814606
0.182272
0.353035
0.235774
0.107815
0.035931
0.00763988
0.00207484
0.00336451
0.0162913
0.0542349
0.127833
0.253557
0.177187
0.0746128
0.0214939
0.00438891
0.00171077
0.00213457
0.00885016
0.0337357
0.0854363
0.170275
0.118148
0.0471479
0.0117643
0.00278165
0.00157872
0.00166375
0.00436569
0.0187721
0.055348
0.110755
0.0722257
0.0261525
0.00565538
0.00208139
0.0015384
0.00153967
0.0023062
0.0079199
0.0314244
0.0744615
0.000471475
0.00047208
0.000472844
0.000473551
0.000474052
0.000474236
0.00047402
0.000473342
0.000472173
0.000470509
0.000468378
0.000465854
0.000463051
0.000460096
0.000457126
0.000454282
0.000451686
0.00044941
0.000447556
0.000446571
0.000447653
0.000448902
0.00044943
0.000448942
0.000447541
0.000445707
0.000444189
0.000443879
0.000443047
0.000444059
0.000444341
0.000443393
0.000428921
0.000398443
0.000360444
0.00031782
0.00027129
0.000220298
0.000162935
7.79643e-05
0.00109069
0.00108907
0.00108675
0.00108366
0.00107972
0.00107485
0.00106898
0.00106208
0.00105418
0.00104532
0.00103556
0.00102507
0.00101406
0.00100281
0.000991588
0.00098064
0.000970124
0.000960127
0.000950772
0.000942314
0.00093478
0.000926996
0.000918009
0.000906907
0.000892712
0.000874438
0.000851163
0.000822243
0.000788351
0.000750588
0.000710197
0.000667963
0.000622534
0.000571551
0.000514516
0.000453371
0.000389449
0.000320863
0.000239899
0.000125345
0.00150196
0.00150172
0.00150066
0.0014987
0.00149574
0.00149168
0.00148644
0.00147996
0.00147224
0.00146333
0.00145332
0.0014424
0.00143082
0.00141886
0.00140681
0.0013949
0.00138332
0.00137223
0.00136186
0.00135257
0.00134536
0.0013395
0.00133343
0.0013256
0.00131416
0.00129687
0.00127139
0.00123554
0.00118906
0.00113401
0.00107293
0.00100648
0.000932271
0.000845825
0.000744492
0.000636567
0.000532637
0.000433291
0.000325941
0.000182834
0.00185702
0.00186201
0.00186638
0.00187
0.00187274
0.00187448
0.00187512
0.00187458
0.00187287
0.00187004
0.00186625
0.00186176
0.00185693
0.00185214
0.00184779
0.00184423
0.00184181
0.00184096
0.00184233
0.00184708
0.0018572
0.00187583
0.00190123
0.0019314
0.00196334
0.0019921
0.00201081
0.00201198
0.00199247
0.00195439
0.00189898
0.00182337
0.00171539
0.00155818
0.00133813
0.00108482
0.000845191
0.000642333
0.000456245
0.00025838
0.00220902
0.00222369
0.00223814
0.00225221
0.00226571
0.0022785
0.00229046
0.00230154
0.00231179
0.00232138
0.00233067
0.00234024
0.00235087
0.00236352
0.0023792
0.00239902
0.00242423
0.00245645
0.00249797
0.00255197
0.00262272
0.0027199
0.00284762
0.00300151
0.00317236
0.00334664
0.00350608
0.00363323
0.00371935
0.00376217
0.00374821
0.00366743
0.00349681
0.00321773
0.00280807
0.00229276
0.00174318
0.00124137
0.000786726
0.000417216
0.00258628
0.00261532
0.00264463
0.00267394
0.00270301
0.00273166
0.00275981
0.00278751
0.002815
0.00284279
0.00287183
0.00290358
0.0029401
0.00298398
0.00303823
0.00310624
0.00319207
0.00330079
0.00343882
0.00361323
0.00383048
0.00409459
0.00441814
0.00479237
0.00518467
0.00556235
0.0058965
0.00616594
0.0063596
0.00645922
0.00645096
0.00631375
0.00603293
0.00560539
0.00504676
0.00435434
0.00352658
0.00257564
0.00158794
0.00081503
0.00300838
0.00305598
0.00310409
0.00315227
0.00320021
0.00324776
0.00329502
0.00334233
0.0033904
0.00344053
0.00349495
0.0035571
0.00363164
0.00372453
0.00384284
0.00399442
0.00418805
0.0044331
0.00473823
0.0051092
0.00554613
0.00604057
0.00658062
0.00715862
0.00772004
0.00822143
0.00863476
0.0089504
0.00915842
0.00924293
0.00918373
0.00896995
0.00859704
0.0080676
0.0073906
0.0065597
0.00554217
0.0043213
0.00289621
0.00141011
0.00348814
0.00355685
0.00362562
0.00369384
0.00376115
0.00382764
0.00389386
0.00396086
0.00403024
0.00410463
0.00418847
0.0042883
0.00441274
0.00457247
0.00477973
0.00504698
0.0053858
0.0058045
0.00630437
0.00688037
0.0075222
0.00821028
0.00891703
0.00961452
0.010256
0.0108049
0.011246
0.0115668
0.0117517
0.0117843
0.0116574
0.0113692
0.0109157
0.0102892
0.00948568
0.00850342
0.007326
0.0059257
0.00420769
0.00158284
0.00403085
0.00412062
0.00420908
0.00429542
0.00437936
0.00446152
0.00454346
0.00462749
0.00471656
0.0048151
0.00493032
0.00507238
0.00525396
0.0054904
0.00579832
0.0061931
0.0066841
0.00727149
0.00794833
0.00870237
0.00951725
0.0103639
0.011197
0.0119785
0.0126734
0.0132518
0.0136999
0.0140055
0.0141553
0.014139
0.0139534
0.0135952
0.0130553
0.0123217
0.0113815
0.010225
0.0088541
0.00724872
0.00527527
0.00213403
0.00463444
0.00474262
0.00484725
0.0049473
0.00504268
0.00513491
0.00522724
0.00532398
0.00543019
0.00555237
0.00569976
0.00588527
0.00612577
0.00644098
0.00685028
0.00736763
0.00799832
0.00873808
0.00957688
0.0104995
0.0114759
0.0124603
0.0134044
0.0142711
0.0150215
0.0156312
0.0160853
0.0163743
0.016492
0.0164356
0.0162018
0.0157821
0.0151651
0.0143403
0.0132911
0.0119848
0.0104031
0.00852744
0.00622938
0.00275483
0.00529182
0.00541408
0.00553018
0.00563872
0.00573961
0.00583575
0.00593325
0.00603955
0.00616225
0.00630884
0.00648918
0.00671878
0.00701939
0.00741374
0.00792111
0.00855338
0.00931434
0.0102002
0.0111982
0.0122842
0.0134161
0.0145394
0.0156025
0.0165631
0.0173779
0.0180225
0.018485
0.0187604
0.0188487
0.0187507
0.0184654
0.017988
0.0173115
0.0164277
0.0153203
0.01395
0.0122529
0.010151
0.00747825
0.00352399
0.00599518
0.0061271
0.00625065
0.00636385
0.00646602
0.00656215
0.00666314
0.00678008
0.00692169
0.00709552
0.00731223
0.00759147
0.00795914
0.00843893
0.00904894
0.00979982
0.010693
0.0117229
0.0128741
0.0141172
0.0154068
0.0166823
0.0178809
0.018945
0.019824
0.0204957
0.0209557
0.021208
0.0212587
0.0211131
0.0207736
0.020239
0.0195057
0.0185665
0.0174076
0.0159908
0.0142333
0.0120072
0.00903049
0.00435934
0.00674065
0.00687909
0.00700828
0.00712575
0.00722918
0.00732661
0.00743574
0.00757018
0.00773841
0.00794802
0.00821141
0.00855478
0.00900747
0.00959093
0.0103195
0.0112001
0.0122313
0.0134045
0.0147034
0.0161007
0.0175552
0.0190009
0.0203502
0.0215169
0.0224376
0.0231055
0.0235347
0.0237419
0.0237406
0.0235393
0.0231418
0.0225473
0.0217504
0.0207407
0.0194978
0.0179782
0.0160912
0.0136834
0.0104127
0.00515409
0.00753048
0.00767364
0.00780738
0.00793113
0.00804501
0.00815863
0.00829196
0.00845766
0.00866342
0.00892138
0.00925388
0.00969124
0.0102582
0.0109705
0.0118384
0.0128653
0.0140468
0.0153716
0.016822
0.0183753
0.0200002
0.0216316
0.023138
0.0243719
0.0252675
0.0258728
0.0262295
0.0263646
0.0262948
0.0260283
0.025567
0.0249075
0.0240406
0.0229505
0.0216105
0.0199728
0.0179465
0.0153546
0.0117815
0.00595349
0.00837234
0.00852134
0.00865992
0.00879603
0.00894222
0.00910209
0.00928348
0.00949707
0.00975633
0.0100873
0.010525
0.0110902
0.0117977
0.0126622
0.0136924
0.0148891
0.0162449
0.0177454
0.0193709
0.0210973
0.0228937
0.0247077
0.0263445
0.0275176
0.0282812
0.0287635
0.0290125
0.0290542
0.0289017
0.0285593
0.0280253
0.0272926
0.0263482
0.0251723
0.0237349
0.0219862
0.0198366
0.0171005
0.0132853
0.00677399
0.00927429
0.00944274
0.00960855
0.00978382
0.00997934
0.0101997
0.0104478
0.0107375
0.0110923
0.0115411
0.012111
0.0128213
0.0136886
0.0147269
0.0159432
0.0173353
0.0188924
0.0205986
0.022434
0.0243739
0.0263786
0.0283469
0.0299283
0.0308594
0.0314186
0.0317409
0.0318586
0.0317889
0.0315379
0.031105
0.0304834
0.0296614
0.0286215
0.0273401
0.0257849
0.0239084
0.0216266
0.0187553
0.0147571
0.00753747
0.0102581
0.0104722
0.0106941
0.010934
0.0111991
0.0114985
0.0118426
0.0122479
0.0127364
0.0133327
0.0140594
0.0149367
0.0159841
0.0172163
0.0186387
0.0202446
0.0220195
0.0239451
0.0260033
0.0281689
0.0303667
0.0322803
0.0335121
0.0342124
0.0345962
0.0347586
0.0347365
0.0345441
0.0341831
0.0336471
0.0329234
0.0319933
0.0308315
0.0294068
0.0276806
0.0256079
0.0231165
0.0200359
0.0158169
0.0080989
0.0113507
0.0116371
0.0119396
0.0122678
0.0126336
0.0130471
0.0135217
0.0140754
0.0147287
0.0155019
0.016414
0.0174849
0.018735
0.0201807
0.0218288
0.0236697
0.0256829
0.0278484
0.0301484
0.0325203
0.034649
0.0361121
0.0369689
0.0374578
0.0376892
0.037722
0.0375835
0.0372839
0.0368221
0.0361883
0.0353635
0.034319
0.0330165
0.0314109
0.0294532
0.027094
0.0242768
0.0208683
0.0163392
0.00824171
0.0125653
0.0129459
0.0133532
0.013799
0.014296
0.0148569
0.0154974
0.0162344
0.0170872
0.018071
0.0192007
0.0204944
0.0219732
0.0236571
0.025556
0.0276628
0.0299513
0.0323899
0.0349129
0.0372228
0.0388622
0.0397969
0.040356
0.0406595
0.0407543
0.0406718
0.0404299
0.0400371
0.0394911
0.0387793
0.0378725
0.036725
0.0352771
0.0334599
0.031201
0.0284439
0.0251659
0.0212993
0.0163711
0.00801453
0.0139042
0.0143968
0.0149297
0.0155156
0.0161692
0.016906
0.0177421
0.0186939
0.0197772
0.0210027
0.0223813
0.0239278
0.0256633
0.0276135
0.0297946
0.0321976
0.0347812
0.0374314
0.0398422
0.0415997
0.0426672
0.0433391
0.0437329
0.0438966
0.0438684
0.0436759
0.0433399
0.0428704
0.0422666
0.0415106
0.0405549
0.0393242
0.0377329
0.0356885
0.0330848
0.0298586
0.0260658
0.0217339
0.0164139
0.00783046
0.0153554
0.015973
0.0166452
0.0173862
0.0182127
0.0191419
0.0201911
0.0213755
0.0227066
0.0241924
0.0258411
0.0276663
0.0296923
0.0319508
0.0344569
0.0371671
0.0399256
0.0423877
0.0442456
0.0455017
0.0463613
0.0469067
0.047179
0.0472238
0.0470866
0.0468042
0.0464046
0.0459021
0.045296
0.0445528
0.0435778
0.0422502
0.0404843
0.0382165
0.0353307
0.0317873
0.027689
0.0229115
0.016922
0.00817791
0.0169027
0.0176529
0.0184705
0.0193713
0.0203738
0.0214974
0.02276
0.0241748
0.0257499
0.0274919
0.0294103
0.0315213
0.0338526
0.0364361
0.0392373
0.042066
0.0446083
0.0466237
0.0481372
0.04926
0.0500366
0.0505011
0.0506922
0.0506669
0.0504859
0.0501954
0.0498331
0.0494099
0.0489147
0.0482708
0.0472924
0.0457925
0.0437731
0.0413474
0.0384654
0.0350695
0.0308349
0.0253319
0.0183694
0.0094082
0.0185339
0.0194196
0.0203817
0.0214372
0.0226063
0.0239104
0.0253687
0.0269924
0.0287847
0.0307524
0.0329096
0.0352745
0.037869
0.0406966
0.043594
0.0462427
0.0485115
0.0503563
0.0518108
0.0528872
0.0536186
0.0540439
0.0542174
0.0542339
0.0541791
0.0541089
0.0540491
0.0539721
0.0538398
0.0535425
0.0526497
0.0508704
0.0485231
0.046063
0.0436347
0.0403747
0.0351244
0.028489
0.0206742
0.010965
0.0202482
0.0212695
0.0223715
0.0235714
0.0248899
0.02635
0.0279736
0.0297735
0.0317473
0.0338964
0.0362371
0.0387808
0.0415187
0.0443915
0.0471907
0.0497044
0.0518881
0.0537101
0.0551527
0.0562212
0.056945
0.0573934
0.0576859
0.0579729
0.0583693
0.0589577
0.059738
0.0604765
0.0610045
0.061295
0.0602421
0.0578935
0.0558439
0.0548721
0.0522999
0.0458359
0.0384697
0.0310521
0.0228949
0.0121149
0.0220585
0.0232172
0.0244569
0.0257934
0.0272464
0.0288382
0.0305911
0.0325305
0.0346678
0.0369743
0.0394586
0.0421302
0.0449374
0.047739
0.0503657
0.0527557
0.0548653
0.0566664
0.0581147
0.059175
0.0599064
0.0604604
0.0610384
0.0618861
0.0632187
0.0651495
0.0675349
0.0685579
0.0672926
0.0661962
0.0668003
0.0675307
0.0653287
0.0602826
0.0533277
0.0461044
0.0389894
0.031961
0.0240915
0.0126425
0.0239832
0.0252841
0.0266631
0.0281341
0.0297147
0.0314269
0.0332973
0.0353598
0.037631
0.0400773
0.0426725
0.0454241
0.0482492
0.0509241
0.0533826
0.0556474
0.0576987
0.0594824
0.060891
0.0618635
0.0625257
0.0631289
0.0640241
0.0656712
0.0683353
0.0702429
0.0701547
0.070654
0.0728716
0.0752941
0.0737935
0.0681987
0.0620902
0.0563014
0.050425
0.044398
0.0381945
0.0316255
0.0239251
0.0124986
0.026037
0.0274868
0.0290104
0.0306185
0.0323265
0.0341545
0.0361293
0.0382803
0.0406215
0.0431425
0.0457803
0.0485187
0.0512687
0.0538051
0.0561343
0.058326
0.0603552
0.0621197
0.0634313
0.0641871
0.0645646
0.0649317
0.0657362
0.0672412
0.0686311
0.069829
0.0720773
0.0736837
0.0728361
0.0704225
0.0671187
0.0630724
0.0585482
0.0537397
0.0486313
0.0431761
0.0373208
0.0309516
0.0233521
0.0120709
0.0282202
0.0298235
0.0314957
0.0332426
0.0350742
0.0370046
0.0390524
0.0412392
0.0435796
0.0460744
0.0486921
0.051361
0.0539451
0.0563234
0.0585621
0.0607092
0.062725
0.0644656
0.0656183
0.0660059
0.0659191
0.0658396
0.0661905
0.0672019
0.069115
0.0705234
0.0704973
0.0696564
0.0682287
0.0662101
0.0636188
0.0604553
0.0567239
0.0524744
0.0477726
0.042635
0.0370199
0.0307759
0.0232121
0.0119505
0.0305158
0.0322694
0.034084
0.0359598
0.0379009
0.039915
0.0420132
0.0442093
0.0465154
0.0489411
0.0514683
0.0539906
0.0563776
0.0586025
0.0607422
0.0628324
0.0648353
0.0665852
0.0675977
0.067591
0.0671234
0.0667514
0.0668175
0.067433
0.0683101
0.0687927
0.0686421
0.0679625
0.0667735
0.0650415
0.062729
0.0598291
0.0563713
0.0524229
0.0480202
0.0431276
0.037673
0.0314686
0.0238177
0.0122413
0.03291
0.0348065
0.0367535
0.0387469
0.0407855
0.0428715
0.0450096
0.047207
0.0494733
0.0518174
0.0542158
0.0565547
0.0587471
0.0608224
0.0628448
0.0648423
0.0668089
0.0686174
0.0696635
0.0694984
0.0688527
0.0683218
0.0681026
0.0681764
0.0683844
0.0685407
0.0684391
0.0679174
0.0668792
0.065293
0.0631495
0.0604555
0.0572498
0.0535739
0.0494026
0.044657
0.0392367
0.0329153
0.0250037
0.0128094
0.0353965
0.0374294
0.0395011
0.0416036
0.0437312
0.0458811
0.048053
0.0502493
0.0524765
0.0547388
0.0569969
0.0591538
0.0611869
0.0631424
0.065064
0.0669741
0.0688678
0.0706341
0.0719185
0.0720254
0.0713674
0.0707589
0.0703666
0.0701764
0.0700942
0.0700075
0.0697701
0.0692241
0.0682509
0.0667934
0.0648295
0.0623617
0.0593985
0.0559103
0.0518411
0.0471196
0.0416169
0.0350363
0.0266764
0.0136927
0.0379738
0.0401395
0.0423317
0.0445382
0.0467491
0.0489567
0.0511568
0.0533508
0.0555419
0.057729
0.0598659
0.06189
0.0638178
0.0656947
0.0675581
0.0694245
0.0712012
0.0727913
0.0743783
0.0750414
0.0745143
0.0739012
0.0734901
0.0732581
0.0731077
0.0729413
0.0726459
0.0720906
0.0711638
0.069807
0.0679866
0.0656709
0.0628259
0.0594008
0.0553292
0.0505172
0.0447942
0.037821
0.0288612
0.0148924
0.0406383
0.0429351
0.0452472
0.047558
0.0498527
0.0521183
0.0543468
0.0565383
0.0586956
0.0608057
0.0628255
0.0647348
0.0665757
0.0683964
0.0702411
0.0720369
0.0735817
0.0751733
0.0768544
0.0777658
0.0776966
0.0774074
0.077265
0.0772469
0.0772527
0.0771871
0.0769488
0.0764362
0.075567
0.0742774
0.072514
0.0702295
0.0673758
0.0638943
0.0597051
0.0546876
0.0486341
0.0411566
0.0314422
0.0163722
0.0433734
0.0457978
0.0482268
0.0506387
0.0530133
0.0553329
0.0575866
0.0597687
0.0618743
0.0638911
0.0657952
0.0675875
0.0693267
0.07108
0.0728313
0.074407
0.0760373
0.0780012
0.0796975
0.0805984
0.0811091
0.0815207
0.0819172
0.0822874
0.0825744
0.0827008
0.0825807
0.0821311
0.0812822
0.0799753
0.078159
0.0757859
0.0728044
0.0691509
0.0647361
0.0594202
0.0529641
0.0449204
0.0343548
0.0180856
0.0461609
0.048711
0.0512557
0.053767
0.0562191
0.0585883
0.0608584
0.0630146
0.0650464
0.066949
0.0687281
0.0703958
0.0720182
0.0736658
0.0752819
0.0769982
0.0790919
0.0812072
0.082921
0.0843892
0.0856635
0.0867622
0.0877169
0.0885192
0.0891179
0.0894425
0.0894203
0.088984
0.0880774
0.0866542
0.084674
0.0820966
0.0788753
0.0749473
0.0702187
0.0645366
0.0576333
0.0489943
0.0375191
0.0199785
0.0489813
0.0516508
0.0543008
0.0568961
0.0594045
0.0617991
0.0640676
0.0662047
0.0681878
0.0700118
0.0716937
0.073271
0.0748206
0.076426
0.0781899
0.0803008
0.0826682
0.0849719
0.087172
0.0892922
0.0912649
0.0930411
0.0945883
0.0958527
0.096766
0.0972609
0.0972791
0.0967745
0.0957123
0.0940661
0.0918132
0.0889276
0.0853726
0.0810905
0.0759861
0.0698969
0.0625287
0.0532995
0.0409103
0.021996
0.0518292
0.0546061
0.0573415
0.059998
0.0625433
0.0649523
0.0672162
0.0693303
0.0712791
0.0730782
0.0747487
0.0763411
0.0779506
0.0797098
0.0817684
0.0841537
0.0867662
0.0895052
0.0922968
0.095068
0.0977483
0.100238
0.10242
0.104172
0.105389
0.106001
0.105974
0.105297
0.103967
0.101987
0.0993593
0.0960759
0.0921126
0.0874182
0.0818973
0.0753781
0.0675422
0.0577419
0.044467
0.0240733
0.0547145
0.0575741
0.0603653
0.0630552
0.065618
0.0680372
0.0703063
0.0724102
0.0743614
0.0762187
0.0780008
0.0797546
0.0815855
0.0836271
0.0859829
0.0886735
0.0916593
0.0948725
0.0982394
0.101687
0.105123
0.108384
0.111252
0.113498
0.114959
0.115578
0.115373
0.114386
0.11266
0.110234
0.107137
0.10338
0.0989497
0.0938014
0.0878375
0.0808762
0.0725745
0.0622234
0.0481055
0.0261486
0.0576417
0.0605583
0.0633865
0.0660995
0.0686784
0.0711151
0.0734048
0.0755374
0.0775718
0.0795834
0.0816031
0.0836623
0.0858465
0.0882708
0.091014
0.0941043
0.0975289
0.101254
0.105236
0.109404
0.113634
0.117716
0.121301
0.123998
0.125556
0.125976
0.125391
0.123919
0.121655
0.11867
0.115016
0.110721
0.10578
0.10015
0.0937278
0.0863196
0.077556
0.0666696
0.0517497
0.0281816
0.0606531
0.0635975
0.0664518
0.0691928
0.0718059
0.0742876
0.0766385
0.0788769
0.081094
0.0833587
0.0857198
0.0882062
0.0908651
0.0937867
0.0970396
0.100655
0.10464
0.108986
0.113663
0.118602
0.123665
0.128601
0.132918
0.135947
0.137303
0.137192
0.135958
0.133801
0.13085
0.127197
0.12291
0.118024
0.112541
0.106412
0.0995285
0.0916773
0.0824604
0.0710524
0.0553632
0.0301572
0.0638216
0.0667571
0.0696208
0.072394
0.0750693
0.0776526
0.0801525
0.0826079
0.0851182
0.0877379
0.0905237
0.0935294
0.0967821
0.100316
0.104205
0.108487
0.113183
0.118293
0.12379
0.129596
0.135556
0.141417
0.146547
0.149622
0.150154
0.149084
0.146944
0.143921
0.14015
0.135735
0.13075
0.125237
0.119195
0.112569
0.105233
0.0969548
0.087301
0.0753861
0.0589502
0.0320852
0.067202
0.0700966
0.0729489
0.0757494
0.0785061
0.0812419
0.0839812
0.0867823
0.0897195
0.0928192
0.0961425
0.099764
0.103696
0.107941
0.11258
0.117656
0.123195
0.129201
0.13564
0.142413
0.149337
0.156211
0.162189
0.164657
0.163647
0.161323
0.158104
0.154091
0.149411
0.144173
0.138459
0.13231
0.125719
0.118618
0.110861
0.102185
0.0921212
0.0797165
0.0625421
0.0339914
0.0708318
0.0736866
0.0765374
0.0793878
0.0822592
0.0851862
0.0882142
0.0914407
0.0949024
0.0986053
0.102618
0.10697
0.111645
0.116662
0.122117
0.128053
0.134493
0.141434
0.148831
0.156577
0.164496
0.172228
0.178181
0.179058
0.176757
0.173288
0.168997
0.163993
0.158413
0.152371
0.145954
0.139205
0.132109
0.124582
0.116453
0.107427
0.0969881
0.0841153
0.0662059
0.0359146
0.074723
0.0775797
0.08048
0.0834413
0.0864977
0.0896971
0.0931101
0.0968338
0.100863
0.105233
0.110015
0.115165
0.120599
0.126393
0.132659
0.139437
0.146734
0.154522
0.162733
0.171244
0.179899
0.188554
0.193866
0.192541
0.189151
0.184652
0.179358
0.173455
0.167066
0.160295
0.153238
0.145949
0.138411
0.13052
0.122079
0.112754
0.101981
0.0886626
0.0700159
0.0378951
0.0788447
0.081759
0.0847698
0.0879078
0.0912197
0.0947659
0.0986339
0.102907
0.107563
0.112651
0.118215
0.124141
0.130316