/*--------------------------------*- C++ -*----------------------------------*\
  =========                 |
  \\      /  F ield         | OpenFOAM: The Open Source CFD Toolbox
   \\    /   O peration     | Website:  https://openfoam.org
    \\  /    A nd           | Version:  8
     \\/     M anipulation  |
\*---------------------------------------------------------------------------*/
FoamFile
{
    version     2.0;
    format      ascii;
    class       volScalarField;
    location    "4.9";
    object      p;
}
// * * * * * * * * * * * * * * * * * * * * * * * * * * * * * * * * * * * * * //

dimensions      [1 -1 -2 0 0 0 0];

internalField   nonuniform List<scalar> 
9150
(
394.448
367.466
341.946
324.752
316.449
316.445
324.739
341.928
367.446
394.432
365.584
346.052
330.386
318.586
312.605
312.602
318.576
330.372
346.036
365.569
336.313
322.765
314.21
306.459
302.35
302.348
306.453
314.2
322.752
336.299
311.599
301.606
296.123
290.768
287.798
287.796
290.763
296.115
301.595
311.586
290.302
281.426
276.822
272.655
270.212
270.21
272.65
276.814
281.416
290.29
27.5027
23.4869
48.6327
62.9476
69.5903
69.5241
62.7576
48.3491
23.0794
26.9257
197.59
173.494
168.11
166.937
167.079
167.044
166.838
167.955
173.288
197.382
302.08
270.761
254.83
244.986
240.349
240.33
244.931
254.747
270.662
301.99
382.686
340.534
312.714
295.397
286.916
286.905
295.366
312.669
340.485
382.648
433.264
380.662
342.05
320.026
309.899
309.892
320.006
342.023
380.635
433.248
-54.6424
-18.9979
-31.1072
-23.0085
-26.8577
-27.8155
-23.1214
-32.4532
-22.0138
-59.8067
-47.121
-30.7864
-49.7441
-43.3211
-46.7967
-47.4628
-43.0617
-52.2087
-32.6554
-50.9916
-91.1457
-60.3522
-91.5477
-85.0413
-81.8486
-81.986
-85.2795
-93.3192
-61.9181
-93.8539
-270.327
-145.868
-128.165
-110.031
-93.9855
-94.0897
-110.597
-129.417
-146.687
-272.756
-414.617
-177.282
-80.7718
-50.6856
-35.0956
-35.1991
-51.0528
-81.3382
-177.914
-416.405
1826.04
1826.15
1826.25
1826.36
1826.46
1826.57
1826.68
1826.79
1826.9
1827.01
1806.55
1806.66
1806.76
1806.87
1806.98
1807.08
1807.19
1807.3
1807.41
1807.53
1787
1787.11
1787.22
1787.32
1787.43
1787.54
1787.64
1787.75
1787.86
1787.97
1767.4
1767.5
1767.61
1767.71
1767.82
1767.92
1768.03
1768.13
1768.24
1768.35
1747.73
1747.83
1747.94
1748.04
1748.14
1748.24
1748.34
1748.44
1748.54
1748.64
1728.02
1728.12
1728.21
1728.31
1728.4
1728.49
1728.59
1728.68
1728.78
1728.87
1708.27
1708.36
1708.45
1708.54
1708.62
1708.71
1708.79
1708.88
1708.97
1709.05
1688.49
1688.58
1688.66
1688.74
1688.81
1688.89
1688.97
1689.04
1689.11
1689.19
1668.7
1668.78
1668.85
1668.92
1668.98
1669.05
1669.11
1669.17
1669.23
1669.29
1648.9
1648.97
1649.03
1649.09
1649.14
1649.19
1649.24
1649.28
1649.32
1649.36
1629.11
1629.16
1629.21
1629.26
1629.29
1629.33
1629.36
1629.38
1629.4
1629.42
1609.32
1609.36
1609.4
1609.43
1609.45
1609.47
1609.48
1609.48
1609.47
1609.47
1589.55
1589.58
1589.6
1589.62
1589.63
1589.62
1589.61
1589.59
1589.57
1589.53
1569.79
1569.82
1569.83
1569.83
1569.83
1569.81
1569.78
1569.75
1569.7
1569.65
1550.06
1550.08
1550.08
1550.08
1550.06
1550.03
1550.06
1550.03
1549.98
1549.93
1530.36
1530.37
1530.38
1530.36
1530.34
1530.31
1530.33
1530.29
1530.32
1530.18
1510.68
1510.69
1510.69
1510.68
1510.65
1510.6
1510.55
1510.52
1510.91
1511.08
1491.02
1491.04
1491.05
1491.06
1491.06
1491.05
1491.21
1491.5
1491.72
1491.89
1471.36
1471.38
1471.4
1471.44
1471.5
1471.53
1472.15
1472.34
1472.48
1472.58
1451.65
1451.65
1451.66
1451.74
1451.86
1451.97
1452.66
1453.28
1453.27
1453.15
1431.85
1431.77
1431.67
1431.88
1432.49
1432.9
1432.38
1434.72
1433.42
1433.12
1412.16
1412.07
1412.74
1417.01
1412.18
1412.73
1412.86
1412.95
1413.07
1413.15
1392.46
1392.23
1396.71
1395.73
1393.64
1393.44
1393.38
1393.37
1393.39
1393.42
1373.2
1373.36
1376.34
1374.39
1373.97
1373.82
1373.76
1373.73
1373.71
1373.7
1354.1
1355.41
1356.25
1353.45
1353.69
1353.8
1353.87
1353.91
1353.94
1353.96
1333.15
1336.31
1335.73
1335.05
1334.67
1334.47
1334.37
1334.31
1334.28
1334.26
1314.74
1316.25
1314.58
1314.79
1314.69
1314.64
1314.59
1314.56
1314.53
1314.51
1295.95
1296.55
1294.09
1294.66
1294.72
1294.75
1294.76
1294.76
1294.77
1294.8
1276.79
1276.27
1275.55
1275.52
1275.25
1275.11
1275.03
1274.98
1274.96
1275.03
1256.48
1256.38
1255.95
1255.61
1255.33
1255.18
1255.07
1255
1254.97
1255.04
1237.05
1237.11
1236.93
1236.22
1235.16
1234.95
1234.85
1234.78
1234.74
1234.75
1216.54
1217.68
1218.38
1216.46
1214.8
1214.53
1214.41
1214.33
1214.26
1214.21
1195.07
1194.91
1195.28
1194.27
1193.71
1193.69
1193.64
1193.59
1193.53
1193.48
1173.93
1173.42
1173.05
1172.95
1172.88
1172.87
1172.82
1172.77
1172.72
1172.67
1151.8
1150.02
1150.35
1150.06
1151.3
1151.58
1151.62
1151.65
1151.71
1151.71
1133.25
1140.74
1139.44
1132.04
1132.92
1131.3
1130.67
1130.78
1130.84
1130.81
1119.43
1119.35
1118.1
1115.79
1114.6
1114.15
1110.51
1109.23
1109.59
1109.84
1101.65
1102.3
1101.61
1100.66
1099.89
1099.38
1097.69
1092.36
1090.84
1090.39
1080.99
1083.62
1085.02
1084.87
1084.52
1083.86
1082.65
1075.99
1073.12
1071.63
1061.32
1061.93
1063.01
1064.97
1067.58
1065.05
1061.32
1056.91
1053.9
1051.99
1040.16
1038.85
1038.16
1038.73
1038.67
1038.49
1037.3
1035.28
1033.22
1031.13
1019.36
1019.71
1017.44
1017.54
1017.73
1016.73
1015.14
1013.34
1011.45
1009.5
999.991
999.489
998.575
997.088
995.184
994.295
992.896
991.288
989.561
987.738
978.971
979.323
978.888
977.734
974.555
972.93
971.262
969.578
967.927
966.286
956.368
956.596
957.765
954.449
952.621
951.215
949.228
947.291
945.969
944.852
934.499
933.631
932.886
932.163
930.871
928.253
932.587
931.305
924.832
923.963
913.082
912.066
911.073
910.022
908.837
907.587
913.843
911.922
906.403
904.457
891.595
890.617
889.737
888.952
888.36
888.616
889.87
889.42
887.327
884.491
869.754
868.779
868.003
867.416
867.119
867.538
868.86
868.904
868.104
865.073
847.34
846.322
845.661
845.292
845.178
845.564
847.965
850.845
849.079
845.195
824.312
823.164
822.716
822.74
822.947
823.112
823.766
827.411
824.594
823.682
798.981
797.312
798.326
800.089
801.508
802.726
804.055
805.218
805.25
804.524
767.911
768.097
772.281
777.626
780.81
782.874
785.065
786.758
787.376
786.814
765.956
765.839
765.712
766.761
767.575
769.371
773.217
776.872
778.426
778.111
765.168
765.097
765.106
765.184
765.267
765.378
765.782
766.629
767.511
768.166
765.087
765.091
765.113
765.135
765.133
765.133
765.232
765.554
766.144
767.023
765.09
765.119
765.145
765.189
765.269
765.402
765.612
765.948
766.432
767.057
764.72
765.041
765.163
765.22
765.285
765.35
765.38
765.417
765.602
766.063
755.819
761.577
763.908
764.321
764.29
764.302
764.245
763.779
762.63
761.384
731.118
735.72
738.2
741.83
748.163
750.364
745.7
741.514
738.578
736.675
703.429
697.372
700.068
710.663
715.809
710.53
712.479
714.315
714.775
714.435
678.103
684.988
689.592
690.578
692.219
694.566
695.318
695.308
695.743
694.682
668.86
668.26
668.817
671.97
673.115
671.713
670.923
669.241
666.233
662.557
647.955
649.283
649.896
648.764
646.493
644.331
642.449
640.604
638.248
635.637
626.239
624.731
623.77
622.769
621.655
620.273
618.7
616.49
613.222
610.211
600.374
600.262
600.019
599.487
598.82
597.682
596.281
593.481
588.937
588.862
576.063
576.909
577.098
576.917
576.551
575.987
574.411
569.816
566.535
567.272
555.773
555.782
555.847
555.714
555.566
554.986
551.581
545.896
545.024
545.729
534.142
534.543
534.797
535.032
535.233
534.169
529.039
525.021
524.333
525.835
515.23
515.355
515.487
515.761
515.776
513.231
508.072
506.852
506.375
507.838
495.872
496.079
496.344
496.62
495.962
492.573
490.446
489.937
490.681
488.675
477.296
477.406
477.464
477.082
475.651
473.809
474.322
473.873
471.792
465.67
458.754
458.85
458.55
456.692
455.524
457.96
458.255
457.225
450.465
437.415
439.799
439.729
439.046
438.755
441.741
444.614
443.457
437.947
424.673
408.025
419.835
419.056
418.674
422.703
434.571
432.934
425.957
413.443
397.485
378.977
399.283
397.817
399.419
421.73
421.321
415.957
403.212
386.578
368.692
349.252
377.979
380.804
392.957
405.676
393.1
386.112
372.953
357.086
339.09
319.336
351.125
359.482
385.635
381.449
374.585
362.248
346.835
329.48
310.431
289.94
324.318
368.367
370.562
365.57
352.425
336.021
319.1
301.094
281.662
261.004
323.736
352.319
337.139
329.862
320.881
306.572
290.019
272.013
252.57
232.056
320.04
328.792
308.936
304.457
292.432
277.855
261.768
243.911
224.369
203.501
307.601
297.203
288.286
280.128
266.709
251.651
235.613
218.213
199.601
180.259
283.139
259.568
255.456
248.504
237.931
224.856
209.686
192.793
174.915
157.03
262.485
257.176
247.497
233.774
219.447
204.158
187.332
169.122
150.067
130.494
257.852
247.16
230.49
214.12
198.454
182.268
164.925
146.642
128.026
109.075
222.721
211.95
199.986
187.216
173.456
158.319
141.647
123.97
105.981
87.0065
185.284
183.079
173.528
161.506
148.749
134.635
118.846
101.98
84.4536
64.7855
152.343
153.079
146.306
136.204
125.075
112.344
97.6907
81.5765
63.8003
42.6236
128.082
128.835
123.567
115.304
105.884
94.8192
81.8709
67.2723
50.7966
33.4366
112.913
111.955
106.274
99.072
91.1573
82.1074
71.7431
60.275
48.678
42.3765
99.7074
96.8998
90.9024
84.5693
77.8662
70.6514
62.8096
54.9686
49.3654
51.962
83.3924
80.8216
75.4305
69.9186
64.0281
57.9027
51.3479
45.1638
40.7973
39.2517
66.4651
64.448
59.8085
54.9737
49.7949
44.4138
38.4459
32.4024
25.8974
15.7452
47.2563
47.0932
44.039
40.0877
35.9768
31.5533
26.2754
20.4804
13.6181
5.19979
28.9924
30.2946
29.2715
26.2476
23.4233
20.1365
15.6564
10.4655
3.90271
-0.818197
10.7116
14.9548
16.6843
14.3589
12.458
10.1881
6.63303
2.88015
-3.0439
-4.0157
6.2747
5.51241
6.57806
4.19315
2.62852
0.961603
-2.00784
-3.65967
-9.60039
-6.75167
-4.60785
-6.3931
-4.41846
-4.82482
-5.63509
-6.74431
-9.32414
-10.3575
-15.6854
-10.4904
-10.0874
-8.30857
-10.0985
-10.313
-11.8223
-12.715
-12.9986
-12.1941
-13.233
-16.8809
-23.7285
-1.3456
-14.1433
-14.7186
-17.9836
-18.8648
-15.9433
-13.7436
-2.02642
-31.0629
1827.14
1827.27
1827.41
1827.55
1827.69
1827.84
1827.99
1828.15
1828.31
1828.48
1828.65
1828.83
1829.01
1829.2
1829.4
1829.6
1829.81
1830.02
1830.23
1830.44
1830.66
1830.87
1831.09
1831.31
1831.52
1831.71
1831.89
1832.05
1832.19
1832.33
1832.45
1832.51
1832.53
1832.54
1832.52
1832.5
1832.47
1832.44
1832.4
1832.37
1807.65
1807.78
1807.92
1808.06
1808.2
1808.34
1808.49
1808.64
1808.8
1808.96
1809.12
1809.29
1809.46
1809.64
1809.82
1810
1810.19
1810.39
1810.58
1810.79
1810.99
1811.2
1811.4
1811.6
1811.8
1811.98
1812.14
1812.29
1812.43
1812.54
1812.65
1812.75
1812.82
1812.85
1812.85
1812.82
1812.79
1812.76
1812.73
1812.69
1788.09
1788.22
1788.36
1788.49
1788.63
1788.77
1788.92
1789.07
1789.22
1789.37
1789.53
1789.7
1789.86
1790.03
1790.21
1790.39
1790.57
1790.76
1790.95
1791.14
1791.34
1791.55
1791.75
1791.96
1792.16
1792.35
1792.53
1792.69
1792.84
1792.97
1793.09
1793.19
1793.25
1793.26
1793.23
1793.18
1793.13
1793.08
1793.03
1792.99
1768.46
1768.59
1768.72
1768.85
1768.98
1769.12
1769.26
1769.4
1769.55
1769.7
1769.86
1770.02
1770.18
1770.35
1770.52
1770.7
1770.89
1771.08
1771.28
1771.48
1771.69
1771.92
1772.14
1772.35
1772.57
1772.77
1772.95
1773.11
1773.27
1773.41
1773.53
1773.64
1773.69
1773.67
1773.58
1773.49
1773.41
1773.34
1773.27
1773.23
1748.75
1748.87
1748.99
1749.12
1749.25
1749.38
1749.51
1749.65
1749.79
1749.94
1750.09
1750.25
1750.42
1750.59
1750.76
1750.95
1751.15
1751.35
1751.56
1751.79
1752.02
1752.25
1752.48
1752.71
1752.93
1753.13
1753.3
1753.46
1753.65
1753.91
1754.12
1754.04
1754.04
1754.04
1753.82
1753.78
1753.62
1753.53
1753.43
1753.38
1728.98
1729.09
1729.2
1729.32
1729.44
1729.56
1729.69
1729.82
1729.96
1730.1
1730.25
1730.4
1730.56
1730.73
1730.91
1731.1
1731.3
1731.51
1731.73
1731.95
1732.17
1732.39
1732.6
1732.81
1732.98
1733.22
1733.59
1734.05
1734.27
1734.42
1734.56
1734.56
1734.31
1734.49
1734.13
1734.26
1734.06
1733.64
1733.47
1733.46
1709.15
1709.25
1709.35
1709.45
1709.56
1709.67
1709.79
1709.91
1710.03
1710.17
1710.3
1710.44
1710.59
1710.74
1710.91
1711.08
1711.27
1711.47
1711.65
1711.83
1711.99
1712.18
1712.35
1712.91
1713.35
1713.52
1713.69
1713.73
1714.26
1714.21
1714.51
1714.63
1714.57
1714.51
1714.52
1714.02
1713.98
1713.86
1713.67
1713.48
1689.27
1689.35
1689.44
1689.53
1689.62
1689.72
1689.81
1689.92
1690.02
1690.13
1690.24
1690.36
1690.47
1690.59
1690.7
1690.85
1690.96
1691.08
1691.18
1691.24
1691.46
1691.81
1692.01
1691.93
1691.89
1692.22
1692.59
1693.03
1693.13
1693.7
1694.03
1694.28
1694.48
1694.22
1694.2
1694.19
1694.07
1693.83
1693.44
1693.22
1669.35
1669.42
1669.49
1669.55
1669.62
1669.7
1669.77
1669.84
1669.91
1669.99
1670.07
1670.13
1670.19
1670.29
1670.34
1670.28
1670.32
1670.21
1670.19
1670.33
1670.41
1670.15
1670.13
1670.21
1670.31
1670.56
1670.92
1671.26
1672.31
1672.7
1672.93
1673.45
1673.47
1673.84
1673.93
1673.9
1673.87
1673.8
1673.54
1673.05
1649.4
1649.45
1649.49
1649.53
1649.58
1649.62
1649.66
1649.74
1649.82
1649.75
1649.79
1649.75
1649.77
1649.72
1649.62
1649.55
1649.29
1649.18
1649.2
1648.92
1648.48
1648.31
1648.18
1648.18
1648.32
1648.58
1648.98
1649.45
1649.99
1650.64
1651.29
1651.88
1652.35
1652.69
1652.91
1653.01
1653.55
1653.58
1653.54
1653.22
1629.43
1629.44
1629.46
1629.47
1629.49
1629.5
1629.55
1629.56
1629.54
1629.46
1629.46
1629.26
1629.24
1629.04
1628.88
1628.62
1628.35
1628.16
1627.75
1627.12
1626.76
1626.34
1626.11
1626.07
1626.2
1626.5
1626.94
1627.49
1628.14
1628.86
1629.62
1630.36
1631.07
1631.73
1632.21
1633.4
1634.55
1634.35
1633.25
1633.65
1609.45
1609.42
1609.39
1609.37
1609.37
1609.35
1609.39
1609.33
1609.18
1609.11
1608.99
1608.76
1608.68
1608.33
1608.11
1607.65
1607.31
1607
1606.41
1605.43
1604.79
1604.26
1603.97
1603.95
1604.13
1604.48
1604.99
1605.62
1606.35
1607.15
1608
1608.87
1609.75
1610.61
1611.4
1612.91
1613.16
1612.89
1612.08
1611.3
1589.47
1589.4
1589.3
1589.22
1589.21
1589.21
1589.22
1589.04
1588.87
1588.65
1588.44
1588.24
1587.96
1587.61
1587.21
1586.68
1586.11
1585.58
1585.37
1583.75
1582.81
1582.11
1581.84
1581.94
1582.23
1582.7
1583.28
1583.99
1584.77
1585.63
1586.53
1587.47
1588.42
1589.37
1590.29
1591.43
1592.39
1592.35
1591.85
1591.21
1569.57
1569.45
1569.22
1569.22
1569.65
1569.23
1569.24
1568.95
1568.54
1568.62
1568.12
1567.73
1567.48
1567.07
1566.56
1565.93
1565.18
1564.32
1563.29
1562.03
1560.46
1559.38
1559.86
1560.46
1560.85
1561.39
1562.04
1562.78
1563.59
1564.45
1565.35
1566.28
1567.22
1568.17
1569.13
1570.07
1570.83
1571.16
1571.19
1571.33
1549.86
1549.84
1549.76
1550.93
1550.49
1550.56
1550.32
1549.31
1550.01
1550.19
1548.73
1547.93
1547.48
1546.96
1546.33
1545.6
1544.75
1543.78
1542.66
1541.31
1540.12
1550.53
1543.49
1540.07
1540.64
1541.05
1541.59
1542.25
1542.98
1543.76
1544.58
1545.41
1546.26
1547.11
1547.89
1548.66
1549.34
1549.87
1549.9
1551.7
1529.95
1530.43
1530.72
1531
1530.77
1531.46
1529.45
1529.82
1530.07
1530.06
1529.23
1528.46
1527.84
1527.18
1526.47
1525.68
1524.8
1523.83
1522.86
1522.12
1523.88
1529.25
1525.18
1522.1
1521.96
1521.94
1522.14
1522.52
1523.04
1523.64
1524.3
1524.99
1525.68
1526.35
1526.94
1527.44
1527.84
1528.1
1528.26
1528.79
1511.21
1511.33
1511.3
1512.11
1511.48
1510.94
1510.89
1510.88
1510.84
1510.61
1509.82
1509.13
1508.35
1507.6
1506.72
1505.77
1504.54
1502.97
1501.15
1499.24
1512.76
1506.75
1505.65
1504.24
1503.5
1503.12
1503.04
1503.18
1503.5
1503.95
1504.48
1505.06
1505.65
1506.21
1506.68
1506.99
1507.2
1507.35
1507.63
1508.3
1492.09
1492.08
1492.76
1493.15
1491.97
1492.32
1492.24
1492.03
1491.76
1491.33
1490.72
1489.93
1489.72
1488.98
1487.59
1486.88
1485.64
1484.04
1481.08
1492.98
1490.74
1489.8
1487.92
1486.19
1485.08
1484.42
1484.1
1484.06
1484.24
1484.59
1485.07
1485.62
1486.2
1486.74
1487.21
1487.43
1487.48
1487.45
1487.67
1488.33
1472.69
1472.82
1472.88
1472.87
1472.72
1473.32
1474.21
1472.9
1472.42
1472
1471.52
1470.94
1470.7
1469.97
1469.2
1468.9
1467.56
1468.96
1474.14
1475.69
1471.65
1470.54
1469.07
1467.45
1466.24
1465.46
1465
1464.92
1465.03
1465.35
1465.88
1466.57
1467.34
1468.12
1468.82
1469.25
1469.28
1470.18
1470.16
1470.15
1453.1
1453.04
1453.02
1453
1452.93
1452.98
1453.06
1452.85
1452.79
1452.66
1452.42
1452.06
1451.49
1450.54
1449.9
1451.71
1454.1
1456.07
1457.46
1455.82
1453.36
1451.69
1449.86
1448.21
1447.02
1446.19
1445.95
1445.78
1445.6
1446.03
1446.75
1447.76
1449
1450.43
1452.04
1453.59
1454.9
1457.35
1456.58
1452.93
1433.14
1433.16
1433.18
1433.2
1433.23
1433.27
1433.35
1433.43
1433.56
1433.68
1433.78
1433.78
1433.48
1433.7
1436.04
1437.8
1439.23
1440.06
1439.03
1437.04
1434.58
1432.47
1430.64
1429.25
1428.17
1427.27
1427.04
1426.1
1426.26
1426.63
1427.43
1428.62
1430.04
1431.86
1434.52
1437.68
1439.77
1442.03
1440.74
1438.01
1413.24
1413.3
1413.35
1413.4
1413.47
1413.55
1413.69
1413.96
1414.35
1414.85
1415.48
1416.13
1416.58
1420.28
1422.11
1423.1
1423.15
1422.44
1420.3
1417.68
1415.56
1413.88
1412.71
1411.53
1410.21
1408.14
1406.6
1406.7
1405.97
1405.33
1405.62
1406.72
1407.57
1408.06
1410.42
1415.38
1418.72
1419.94
1421.4
1418.87
1393.46
1393.49
1393.53
1393.56
1393.59
1393.61
1393.69
1394.09
1394.83
1395.82
1397.02
1398.54
1400.12
1404.86
1407.92
1405.17
1404.19
1402.19
1400.27
1398.18
1396.89
1396.07
1394.61
1391.11
1389.41
1387.48
1385.15
1382.9
1380.83
1380.91
1383.73
1387.19
1387.2
1385.37
1396.46
1395.48
1393.74
1396.17
1397.64
1398.63
1373.71
1373.71
1373.7
1373.68
1373.62
1373.41
1373.71
1376.17
1374.52
1375.98
1377.29
1378.99
1380.81
1385.18
1395.08
1379.49
1379.78
1380.29
1379.59
1379.26
1378.98
1376.71
1373.85
1372.19
1369.19
1366.86
1366.46
1368.7
1371.78
1374.7
1377.9
1381.21
1384.98
1389.51
1390.11
1382.08
1378.83
1377.03
1377.17
1379.46
1353.97
1353.99
1354.02
1354.04
1354.06
1354.19
1358
1359.18
1354.88
1356.87
1357.11
1357.69
1358.85
1362.74
1357.86
1358.34
1359.36
1360.2
1361.26
1361.63
1359.11
1357.47
1355.97
1353.82
1356.32
1359.61
1365.13
1367.93
1370.03
1371.81
1373.26
1374.97
1376.94
1375.29
1372.07
1366.98
1362.97
1360.42
1360.14
1362.02
1334.26
1334.28
1334.32
1334.36
1334.42
1335.01
1337.22
1336.6
1333.48
1340.61
1336.22
1342.47
1344
1337.02
1338.38
1339.28
1340.14
1342.78
1345.13
1341.62
1341.8
1339.29
1340.52
1350.26
1357.71
1360.53
1362.16
1363.48
1364.8
1365.89
1366.57
1364.11
1359.03
1356.65
1353.73
1349.75
1346.76
1345.09
1344.9
1345.54
1314.53
1314.64
1314.61
1314.69
1314.74
1314.98
1315.99
1314.73
1313.35
1317.33
1319.45
1321.5
1321.55
1318.95
1319.13
1319.88
1320.34
1325.82
1326.7
1327.57
1328.14
1329.07
1343.85
1353.66
1355.45
1356.52
1357.39
1358.12
1357.77
1355.82
1351.37
1346.7
1341.99
1338.03
1335.36
1333.17
1330.76
1329.14
1328.18
1328.81
1295.15
1295.24
1295.1
1295.37
1295.71
1296.29
1297.2
1297.7
1296.62
1299.15
1300.16
1301
1300.2
1298.47
1298.58
1299.28
1300.6
1305.76
1307.6
1312.72
1316.18
1324.3
1340.51
1349.39
1349.98
1349.4
1347.93
1343.72
1338.91
1333.39
1328.29
1325.02
1322.85
1320.64
1318.04
1316
1314.71
1313.27
1311.59
1312.63
1275.21
1275.29
1275.32
1275.52
1275.88
1276.41
1277.1
1277.92
1278.49
1279.57
1280.51
1280.42
1278.89
1277.44
1277.21
1277.44
1278.77
1287.58
1292.71
1290.03
1294.56
1301.25
1310.62
1323.25
1325.31
1321.28
1320.4
1314.65
1310.89
1308.81
1306.87
1305.76
1304.69
1302.65
1301.27
1299.59
1297.39
1294.97
1292.67
1291.38
1255.1
1255.15
1255.23
1255.32
1255.55
1255.95
1256.51
1257.41
1258.69
1260.26
1261.87
1257.94
1256.68
1255.68
1255.11
1254.81
1255.99
1268.35
1277.73
1264.47
1268.78
1274
1278.81
1281.52
1282.85
1284.63
1286.47
1286.45
1286.03
1286.75
1286.78
1284.82
1284.26
1282.86
1282.38
1280.32
1277.73
1275.13
1272.76
1271.01
1234.8
1234.83
1234.83
1234.77
1234.78
1234.84
1234.9
1235.08
1234.77
1242.94
1242.59
1236.13
1234.69
1233.78
1232.95
1232.95
1235.03
1247.49
1252.9
1237.65
1243.33
1247.66
1250.64
1253.02
1255.35
1257.74
1259.47
1261.95
1262.99
1262.61
1261.9
1261.73
1261.39
1260.57
1259.46
1258.32
1256.97
1254.89
1251.78
1250.85
1214.2
1214.4
1214.15
1213.91
1213.8
1213.69
1213.63
1214.17
1216.12
1222.83
1215.98
1214.17
1212.71
1211.57
1211.03
1213.05
1217.78
1222.6
1223.54
1223.48
1219.71
1221.53
1224.15
1226.43
1228.78
1230.97
1233.18
1236.57
1235.55
1236.06
1236.4
1236.53
1236.49
1236.13
1235.46
1234.52
1233.2
1231.32
1228.81
1229.17
1193.4
1193.3
1193.15
1192.92
1192.61
1192.12
1191.54
1190.99
1201.63
1199.68
1195.59
1192.84
1190.99
1190.14
1191.96
1196.91
1201.41
1204.7
1206.65
1206.32
1198.12
1194.41
1197.08
1199.48
1201.62
1203.67
1205.4
1206.68
1207.86
1208.94
1209.83
1210.41
1210.66
1210.6
1210.21
1209.48
1208.3
1206.51
1204.06
1203.04
1172.58
1172.47
1172.34
1172.18
1172.01
1171.92
1172.46
1174.43
1182.56
1173.18
1171.42
1169.82
1168.77
1170.69
1175.43
1179.81
1183.26
1185.96
1185.6
1179.4
1172.86
1171.16
1172.94
1173.95
1175.34
1176.86
1178.34
1179.7
1180.98
1182.13
1183.08
1183.78
1184.21
1184.34
1184.15
1183.6
1182.6
1180.98
1178.88
1176.38
1151.66
1151.55
1151.43
1151.3
1151.2
1151.38
1152.8
1157.03
1162.36
1148.14
1147.76
1147.79
1147.29
1153.91
1158.61
1161.39
1163.44
1163.21
1160.78
1153.56
1149.36
1148.23
1148.16
1148.64
1149.48
1150.55
1151.69
1152.9
1154.08
1155.18
1156.14
1156.91
1157.45
1157.72
1157.68
1157.3
1156.5
1155.13
1153.17
1150.9
1130.7
1130.47
1130.13
1129.65
1128.99
1128.39
1128.32
1138.46
1134.86
1129.28
1127.31
1127.15
1129.58
1138.93
1143.13
1144.2
1142.34
1136.18
1130.39
1126.63
1124.37
1123.11
1122.61
1122.7
1123.23
1124.03
1125.01
1126.08
1127.17
1128.23
1129.2
1130.02
1130.64
1131.01
1131.09
1130.84
1130.18
1128.98
1127.13
1125.75
1109.84
1109.57
1109.11
1108.47
1107.65
1106.92
1106.75
1118.1
1109.54
1105.86
1104.56
1104.69
1107.04
1116.18
1129.08
1123.49
1112.68
1105.71
1101.38
1098.81
1097.01
1095.91
1095.54
1095.75
1096.36
1097.18
1098.15
1099.21
1100.31
1101.4
1102.42
1103.31
1104.02
1104.49
1104.68
1104.52
1103.98
1102.89
1101.21
1100.4
1089.93
1089.27
1088.48
1087.57
1086.61
1085.92
1085.77
1092.18
1082.68
1080.64
1079.33
1078.7
1078.69
1081.33
1082.47
1079.68
1074.94
1072.64
1070.62
1068.86
1067.51
1066.83
1066.99
1067.81
1068.91
1070.04
1071.2
1072.4
1073.63
1074.84
1075.98
1077
1077.84
1078.44
1078.74
1078.71
1078.27
1077.3
1075.75
1074.96
1070.41
1069.14
1067.84
1066.48
1065.12
1064.24
1064.96
1072.34
1057.55
1055.31
1053.25
1052.16
1052.03
1051.07
1049.85
1047.38
1044.95
1042.82
1040.7
1038.65
1036.93
1036.17
1037.18
1039.65
1041.8
1043.24
1044.61
1046.01
1047.43
1048.82
1050.14
1051.34
1052.36
1053.13
1053.61
1053.73
1053.46
1052.66
1051.33
1050.47
1050.24
1048.48
1046.72
1044.91
1043.17
1042.23
1044.34
1050.01
1034.03
1032.14
1027.55
1030.63
1024.58
1023.44
1021.59
1019.41
1017
1014.05
1011.16
1007.83
1003.97
1001.55
1005.19
1013.6
1017.71
1018.56
1019.42
1020.72
1022.21
1023.74
1025.23
1026.62
1027.84
1028.83
1029.52
1029.85
1029.78
1029.17
1028.04
1027.45
1029.13
1027.02
1024.84
1022.5
1020.13
1018.56
1024.69
1025.98
1014.55
1014.19
1006.73
1018.18
999.88
998.464
996.206
993.84
990.929
987.512
983.334
978.222
972.045
971.166
990.345
997.315
995.91
995.969
995.848
996.777
998.206
999.803
1001.44
1003.03
1004.48
1005.71
1006.66
1007.25
1007.43
1007.08
1006.2
1006.03
1007.37
1004.98
1002.34
999.322
995.991
992.862
1006.38
999.995
998.91
995.887
989.309
994.313
978.54
976.822
974.326
971.306
968.328
964.434
960.265
955.214
952.825
962.493
990.735
976.715
973.358
972.952
972.753
973.587
975.078
976.855
978.732
980.588
982.325
983.858
985.113
986.023
986.516
986.489
985.91
985.956
985.656
983.246
980.509
977.301
973.713
970.05
980.855
972.687
979.039
968.28
976.458
972.426
964.239
959.634
955.564
951.731
948.007
944.113
939.826
936.606
939.851
954.982
966.118
944.219
942.026
944.953
947.375
949.701
952.072
954.538
956.954
959.26
961.4
963.317
964.949
966.235
967.104
967.456
967.24
967.581
964.427
962.265
959.828
957.042
954.131
951.645
959.093
949.699
956.608
945.366
955.018
951.623
946.538
941.43
936.831
932.53
928.161
923.273
917.698
913.978
916.876
942.567
935.122
927.225
921.804
923.122
925.383
927.929
930.716
933.707
936.609
939.354
941.916
944.248
946.296
948.002
949.297
950.082
950.284
951.021
943.471
941.786
939.883
937.842
936.145
936.859
937.842
929.335
939.237
925.209
932.071
929.94
925.939
922.274
918.457
914.625
910.525
905.726
900.242
896.913
901.32
918.299
891.732
895.845
898.182
901.037
903.848
907.4
911.284
914.86
918.114
921.215
924.152
926.883
929.352
931.501
933.259
934.518
935.181
936.384
922.977
921.725
920.28
918.887
918.003
918.3
918.508
911.095
922.218
908.506
911.124
907.324
905.102
903.37
900.906
897.977
894.43
889.607
882.414
873.739
874.865
877.636
857.753
874.967
883.355
885.171
885.465
889.687
897.199
901.131
903.179
905.721
908.621
911.549
914.346
916.91
919.155
920.917
922.042
923.451
903.098
901.752
900.297
898.937
898.184
898.049
897.861
892.005
889.305
894.035
893.035
890.929
888.766
887.584
886.336
884.861
882.961
879.282
870.089
855.636
851.063
849.744
843.786
859.191
878.442
879.648
865.956
871.543
881.975
888.53
890.226
891.916
894.71
897.902
901.117
904.193
906.995
909.352
911.083
912.886
883.033
881.633
880.08
878.57
879.22
878.901
876.778
887.807
875.262
876.027
873.248
871.048
871.162
872.064
873.19
874.583
875.822
872.93
859.938
846.231
843.275
842.484
842.426
844.683
857.205
859.519
851.291
860.398
861.141
869.416
875.428
878.247
881.5
885.335
889.298
893.146
896.732
899.902
902.453
904.751
863.496
862.057
860.626
859.553
861.928
861.614
856.307
868.467
858.707
856.503
848.401
848.913
852.327
856.235
860.646
866.013
871.039
866.9
852.11
843.807
842.311
842.167
841.977
841.955
842.449
843.904
845.515
846.687
846.506
851.61
860.004
864.923
869.1
873.847
878.842
883.751
888.399
892.635
896.222
899.438
843.523
841.972
840.413
838.813
843.697
846.034
835.322
836.084
831.65
828.521
827.438
829.277
834.294
840.595
847.747
856.459
865.036
863.415
850.682
843.696
842.227
842.114
842.092
842.005
842.037
842.286
842.681
842.909
842.7
843.483
845.661
850.582
856.535
863.098
869.679
876.075
882.174
887.857
892.866
897.313
822.779
821.42
819.727
817.814
816.226
815.156
813.666
810.73
804.029
796.437
794.32
802.521
813.455
824.231
834.166
843.738
853.957
860.286
854.685
844.428
842.075
841.697
841.803
841.889
841.955
842.051
842.132
842.124
842.018
841.963
838.749
837.673
844.069
853.233
862.115
870.473
878.452
886.041
892.971
899.053
803.227
801.354
798.863
795.556
792.186
797.419
795.995
792.606
780.877
773.018
775.525
781.286
789.23
804.887
821.817
833.783
842.465
850.693
853.995
845.991
841.869
841.439
841.551
841.647
841.688
841.768
841.658
841.667
841.667
841.126
837.988
829.438
833.163
844.821
856.699
867.523
877.819
887.819
897.271
905.52
785.162
782.728
779.577
772.475
767.576
784.21
795.832
798.107
782.904
780.207
784.335
786.29
789.707
797.732
807.074
823.009
833.017
839.746
845.68
843.288
841.569
841.252
841.402
841.543
841.619
841.567
841.278
841.204
841.2
840.734
838.6
825.851
825.246
838.937
854.208
867.907
880.916
893.842
906.495
917.521
775.427
771.717
769.352
767.884
771.305
773.931
787.354
789.255
784.591
785.307
786.069
786.454
787.062
788.438
793.657
812.838
821.901
825.649
830.915
833.293
838.568
840.447
840.744
841.13
841.588
841.108
840.835
840.741
840.756
840.467
838.628
823.495
820.644
836.808
855.53
872.271
888.27
904.58
921.131
935.526
768.368
768.689
769.42
770.336
771.261
772.255
774.935
779.659
782.01
783.319
784.295
785.162
786.459
790.249
797.855
810.397
807.284
806.454
810.376
812.399
819.938
827.321
835.273
839.668
840.385
840.517
840.365
840.248
840.281
839.983
837.673
820.891
820.91
840.273
861.727
881.142
900.08
920.019
941.053
959.383
768.19
769.359
770.23
770.964
771.73
772.582
773.773
775.423
777.126
778.807
781.649
783.339
782
788.912
798.298
792.028
793.58
790.018
789.107
795.65
802.826
811.766
823.127
831.659
837.793
839.568
839.762
839.675
839.774
839.208
833.697
820.671
829.349
851.203
873.481
894.439
915.737
939.157
964.957
987.586
767.799
768.526
769.062
769.463
770.053
771.133
772.713
774.063
775.412
774.375
774.337
778.456
782.886
785.463
784.72
786.547
788.566
789.783
788.033
790.047
794.073
796.947
801.588
810.644
824.906
833.45
836.786
838.097
839.526
839.835
833.193
832.36
847.241
868.048
889.022
910.204
932.969
959.38
989.837
1016.74
766.762
767.448
767.954
768.073
766.293
763.448
761.937
764.126
761.098
765.897
767.34
768.71
772.601
776.715
779.601
780.754
781.731
784.945
783.358
786.486
783.079
781.415
782.704
787.276
793.354
803.129
824.056
832.589
838.886
842.872
845.664
853.276
867.145
884.302
903.196
923.892
947.495
976.387
1011.06
1041.76
759.599
756.422
753.171
752.164
749.095
742.094
742.326
740.376
750.636
759.008
752.829
759.174
760.087
764.727
766.627
768.808
769.068
772.864
771.475
768.832
770.018
769.983
767.554
768.262
764.302
781.694
798.21
816.151
839.699
848.001
853.187
861.697
874.481
890.316
908.554
929.364
953.937
985.087
1023.36
1057.06
734.702
732.786
728.667
727.008
726.053
724.258
723.126
726.591
733.818
736.103
734.262
734.641
740.204
745.934
749.062
753.227
748.188
746.114
742.146
747.474
745.167
749.357
753.966
757.739
758.567
766.747
788.427
808.077
819.639
828.15
837.991
850.337
865.019
881.776
900.703
922.325
948.114
981.254
1022.31
1058.19
713.198
711.23
711.124
707.912
705.149
708.462
712.598
712.87
719.653
721.346
726.412
729.421
728.362
727.371
726.334
724.046
720.988
721.556
720.257
719.226
718.644
719.494
723.392
731.75
740.191
748.267
760.213
772.222
784.208
796.742
810.271
825.058
841.362
858.966
878.546
900.928
927.707
962.218
1005.06
1042.55
691.296
686.936
684.45
683.022
685.244
689.496
698.7
710.888
716.053
718.62
721.727
720.375
712.815
705.404
698.756
691.793
686.149
683.377
682.206
680.936
679.071
678.976
681.682
687.748
696.752
706.548
716.874
728.735
741.888
755.878
770.636
786.379
803.398
821.643
841.599
864.381
891.631
926.673
970.174
1008.6
659.251
656.933
655.274
660.285
667.7
682.532
693.099
699.08
704.561
707.19
701.473
690.707
679.614
669.472
659.925
650.755
642.586
636.471
632.068
628.846
627.123
627.603
630.531
635.829
642.65
650.634
661.196
673.795
687.672
702.403
717.836
734.105
751.427
769.939
790.003
812.738
839.836
874.523
917.458
955.775
633.79
633.897
639.726
646.531
655.998
666.96
675.854
684.618
678.982
668.238
657.435
645.943
633.733
621.388
609.323
597.91
587.631
579.013
572.32
567.689
565.313
565.247
567.247
569.567
572.829
582.522
593.466
607.379
622.333
637.685
653.392
669.698
686.917
705.26