/*--------------------------------*- C++ -*----------------------------------*\
  =========                 |
  \\      /  F ield         | OpenFOAM: The Open Source CFD Toolbox
   \\    /   O peration     | Website:  https://openfoam.org
    \\  /    A nd           | Version:  8
     \\/     M anipulation  |
\*---------------------------------------------------------------------------*/
FoamFile
{
    version     2.0;
    format      ascii;
    class       volVectorField;
    location    "4.9";
    object      U;
}
// * * * * * * * * * * * * * * * * * * * * * * * * * * * * * * * * * * * * * //

dimensions      [0 1 -1 0 0 0 0];

internalField   nonuniform List<vector> 
9150
(
(0.0537281 -0.42899 0)
(0.087896 -0.622339 0)
(0.0731356 -0.631461 0)
(0.0486641 -0.643728 0)
(0.0170599 -0.654433 0)
(-0.0170117 -0.654439 0)
(-0.0486247 -0.643745 0)
(-0.0731075 -0.631476 0)
(-0.0878801 -0.622355 0)
(-0.0537222 -0.429024 0)
(0.0406789 -0.522837 0)
(0.0573032 -0.625687 0)
(0.0420839 -0.613204 0)
(0.0294112 -0.622457 0)
(0.0105024 -0.628859 0)
(-0.0104708 -0.628862 0)
(-0.0293845 -0.622466 0)
(-0.0420633 -0.613213 0)
(-0.0572882 -0.625692 0)
(-0.0406719 -0.522859 0)
(0.0251509 -0.55802 0)
(0.0324057 -0.613826 0)
(0.0230065 -0.604469 0)
(0.0172639 -0.609992 0)
(0.0062524 -0.613191 0)
(-0.00623304 -0.613192 0)
(-0.0172472 -0.609996 0)
(-0.0229937 -0.604474 0)
(-0.0323948 -0.613826 0)
(-0.025145 -0.558031 0)
(0.0152771 -0.584742 0)
(0.017401 -0.607477 0)
(0.0117286 -0.601139 0)
(0.00886948 -0.603281 0)
(0.00324561 -0.604399 0)
(-0.0032353 -0.604399 0)
(-0.00886042 -0.603282 0)
(-0.0117216 -0.601141 0)
(-0.0173946 -0.607476 0)
(-0.0152734 -0.584746 0)
(0.00623122 -0.597159 0)
(0.0055321 -0.601403 0)
(0.0035854 -0.600041 0)
(0.00267652 -0.600347 0)
(0.00099355 -0.600483 0)
(-0.000990511 -0.600483 0)
(-0.00267384 -0.600347 0)
(-0.00358333 -0.600041 0)
(-0.00553007 -0.601403 0)
(-0.00623001 -0.59716 0)
(0.469219 -1.16142 1.61411e-24)
(0.282981 -1.08591 0)
(0.163336 -1.06914 0)
(0.0923234 -1.05745 0)
(0.0306253 -1.05281 0)
(-0.0300747 -1.05289 0)
(-0.0918327 -1.05767 0)
(-0.162929 -1.06949 0)
(-0.282693 -1.08638 0)
(-0.469331 -1.16208 -1.62171e-24)
(0.33416 -0.844158 4.47487e-25)
(0.287342 -0.936811 0)
(0.188453 -0.936771 0)
(0.108305 -0.936633 0)
(0.0358844 -0.938991 0)
(-0.0355733 -0.939046 0)
(-0.108038 -0.936783 0)
(-0.188247 -0.936981 0)
(-0.287269 -0.937074 0)
(-0.334243 -0.844502 -4.48929e-25)
(0.278953 -0.702323 7.34715e-26)
(0.259083 -0.80474 0)
(0.178263 -0.81749 0)
(0.104674 -0.828279 0)
(0.0349316 -0.836383 0)
(-0.0347444 -0.836415 0)
(-0.104516 -0.828366 0)
(-0.178156 -0.817611 0)
(-0.259052 -0.804875 0)
(-0.278984 -0.702475 -7.38494e-26)
(0.199639 -0.554158 2.84019e-25)
(0.216595 -0.709484 0)
(0.154384 -0.725864 0)
(0.0914039 -0.741975 0)
(0.0305914 -0.753881 0)
(-0.030476 -0.753901 0)
(-0.0913087 -0.742027 0)
(-0.154321 -0.725929 0)
(-0.216579 -0.709552 0)
(-0.199653 -0.554246 -2.83975e-25)
(0.118378 -0.445474 -4.5809e-25)
(0.156183 -0.644335 -6.55337e-25)
(0.116731 -0.663779 -2.22419e-25)
(0.0709599 -0.681186 -1.45687e-25)
(0.0239926 -0.694178 -8.368e-27)
(-0.0239185 -0.69419 -8.30715e-27)
(-0.0708994 -0.681216 -1.45532e-25)
(-0.116691 -0.663812 -2.22362e-25)
(-0.156168 -0.644369 -6.5534e-25)
(-0.118378 -0.445525 -4.58151e-25)
(0.0261071 -0.903705 0)
(-0.0318885 -1.33963 0)
(0.0267124 -1.2728 0)
(-0.000685562 -1.22631 0)
(0.00509181 -1.22413 0)
(-0.00179342 -1.22493 0)
(0.00642099 -1.22617 0)
(-0.0219368 -1.27031 0)
(0.0387001 -1.34193 0)
(-0.020788 -0.928098 0)
(0.0520105 -0.899985 0)
(-0.0191374 -1.33326 0)
(0.0248975 -1.27124 0)
(0.00327652 -1.2248 0)
(0.00198177 -1.22276 0)
(0.000517869 -1.22337 0)
(0.00115767 -1.2246 0)
(-0.0220031 -1.27094 0)
(0.0239847 -1.33485 0)
(-0.0493847 -0.911947 0)
(0.0791661 -0.940322 0)
(-0.0211444 -1.34802 0)
(0.0173126 -1.27554 0)
(0.00753521 -1.23163 0)
(0.000769669 -1.22655 0)
(0.00130545 -1.22682 0)
(-0.00479089 -1.23172 0)
(-0.0156746 -1.27611 0)
(0.0246653 -1.34891 0)
(-0.0774461 -0.948236 0)
(0.14588 -1.0767 0)
(0.00457088 -1.36639 0)
(0.0149832 -1.27143 0)
(0.0226027 -1.22589 0)
(0.00670857 -1.21442 0)
(-0.00511345 -1.21453 0)
(-0.0210867 -1.22629 0)
(-0.0140781 -1.27195 0)
(-0.00218655 -1.36693 0)
(-0.144995 -1.08078 0)
(0.299458 -1.21715 0)
(0.128487 -1.32193 0)
(0.0690586 -1.21014 0)
(0.0565995 -1.16862 0)
(0.020592 -1.15627 0)
(-0.0196397 -1.15638 0)
(-0.0558147 -1.16901 0)
(-0.0682722 -1.21066 0)
(-0.127347 -1.32241 0)
(-0.299343 -1.21891 0)
(0.0145559 0.00216193 0)
(0.0125132 0.00215546 0)
(0.010464 0.00215455 0)
(0.00840852 0.00215824 0)
(0.0063473 0.00216307 0)
(0.0042811 0.00217103 0)
(0.00220935 0.00218264 0)
(0.000132351 0.00219443 0)
(-0.00195116 0.00221063 0)
(-0.00404116 0.00222235 0)
(0.0138019 0.00635176 0)
(0.0115458 0.00639349 0)
(0.00926413 0.00642812 0)
(0.00696202 0.00645707 0)
(0.00464451 0.00648008 0)
(0.00231591 0.00649984 0)
(-2.04166e-05 0.00651741 0)
(-0.00236093 0.00653097 0)
(-0.00470153 0.00654139 0)
(-0.00704008 0.00654676 0)
(0.0102464 0.0107564 0)
(0.0081012 0.0108614 0)
(0.00592787 0.0109462 0)
(0.0037313 0.0110138 0)
(0.0015159 0.0110661 0)
(-0.000714597 0.0111062 0)
(-0.00295639 0.0111357 0)
(-0.00520654 0.0111554 0)
(-0.00746279 0.0111657 0)
(-0.00972386 0.0111688 0)
(0.0066129 0.014869 0)
(0.00459119 0.015034 0)
(0.00254254 0.0151699 0)
(0.000469981 0.0152806 0)
(-0.00162372 0.0153697 0)
(-0.00373651 0.0154406 0)
(-0.00586711 0.0154963 0)
(-0.00801469 0.0155388 0)
(-0.010179 0.0155698 0)
(-0.0123603 0.0155923 0)
(0.00304911 0.018768 0)
(0.0011378 0.0189882 0)
(-0.000800195 0.0191747 0)
(-0.00276406 0.0193325 0)
(-0.00475344 0.0194661 0)
(-0.00676854 0.0195802 0)
(-0.00881015 0.0196791 0)
(-0.0108799 0.0197662 0)
(-0.0129801 0.0198445 0)
(-0.0151133 0.0199165 0)
(-0.000505455 0.022462 0)
(-0.0023256 0.0227368 0)
(-0.00417469 0.0229779 0)
(-0.00605401 0.0231913 0)
(-0.00796558 0.0233828 0)
(-0.00991209 0.0235583 0)
(-0.011897 0.0237237 0)
(-0.0139246 0.0238837 0)
(-0.0159994 0.0240424 0)
(-0.0181265 0.0242023 0)
(-0.00413183 0.0259935 0)
(-0.00588616 0.0263282 0)
(-0.00767431 0.0266331 0)
(-0.00949953 0.026916 0)
(-0.0113662 0.0271843 0)
(-0.0132794 0.0274451 0)
(-0.015245 0.027706 0)
(-0.0172694 0.0279729 0)
(-0.0193597 0.0282507 0)
(-0.0215231 0.0285421 0)
(-0.00791456 0.0294172 0)
(-0.00963353 0.0298224 0)
(-0.0113933 0.0302054 0)
(-0.0131989 0.0305761 0)
(-0.0150563 0.0309436 0)
(-0.0169724 0.0313169 0)
(-0.0189549 0.0317046 0)
(-0.0210123 0.0321143 0)
(-0.0231535 0.0325513 0)
(-0.0253878 0.0330186 0)
(-0.0119341 0.0327962 0)
(-0.0136511 0.0332861 0)
(-0.0154167 0.0337644 0)
(-0.0172367 0.0342426 0)
(-0.019118 0.0347318 0)
(-0.0210684 0.0352429 0)
(-0.0230965 0.0357862 0)
(-0.0252119 0.0363705 0)
(-0.0274252 0.0370023 0)
(-0.0297472 0.0376848 0)
(-0.0162576 0.0361981 0)
(-0.0180057 0.0367875 0)
(-0.0198088 0.0373769 0)
(-0.0216726 0.037979 0)
(-0.0236035 0.0386069 0)
(-0.025609 0.0392736 0)
(-0.0276974 0.0399913 0)
(-0.0298785 0.0407711 0)
(-0.0321639 0.0416216 0)
(-0.0345668 0.0425474 0)
(-0.0209277 0.0396882 0)
(-0.0227357 0.0403883 0)
(-0.0246017 0.0410982 0)
(-0.0265301 0.0418319 0)
(-0.0285254 0.0426041 0)
(-0.0305932 0.0434298 0)
(-0.0327402 0.0443241 0)
(-0.0349751 0.0453022 0)
(-0.0373102 0.046378 0)
(-0.0397614 0.0475605 0)
(-0.0259521 0.043321 0)
(-0.0278413 0.0441357 0)
(-0.0297869 0.0449657 0)
(-0.0317906 0.0458262 0)
(-0.0338545 0.0467328 0)
(-0.0359813 0.0477027 0)
(-0.0381743 0.0487541 0)
(-0.0404383 0.0499089 0)
(-0.0427838 0.0511924 0)
(-0.04523 0.0526251 0)
(-0.0312969 0.0471345 0)
(-0.0332796 0.0480577 0)
(-0.0353122 0.0489964 0)
(-0.037394 0.0499665 0)
(-0.0395256 0.0509847 0)
(-0.0417084 0.0520692 0)
(-0.0439416 0.0532387 0)
(-0.0462199 0.0545181 0)
(-0.0485438 0.0559559 0)
(-0.0509337 0.0576015 0)
(-0.0368879 0.0511495 0)
(-0.0389687 0.052167 0)
(-0.0410891 0.0531959 0)
(-0.0432471 0.0542547 0)
(-0.0454444 0.0553628 0)
(-0.0476881 0.0565388 0)
(-0.0499849 0.0577943 0)
(-0.0523158 0.0591175 0)
(-0.0546494 0.0605975 0)
(-0.0569951 0.0623622 0)
(-0.0426173 0.0553697 0)
(-0.0447981 0.0564585 0)
(-0.0470048 0.0575512 0)
(-0.0492339 0.0586737 0)
(-0.0514885 0.0598559 0)
(-0.0537827 0.0611277 0)
(-0.0561517 0.0625082 0)
(-0.0586064 0.0639026 0)
(-0.061078 0.065351 0)
(-0.0635476 0.0671915 0)
(-0.0483695 0.0598091 0)
(-0.050667 0.0609467 0)
(-0.0529787 0.0620759 0)
(-0.055297 0.0632375 0)
(-0.0576244 0.0644836 0)
(-0.0599772 0.0658698 0)
(-0.0623984 0.0674353 0)
(-0.0649638 0.0690766 0)
(-0.0675928 0.0704655 0)
(-0.0701866 0.0723721 0)
(-0.0539753 0.0645029 0)
(-0.0564162 0.0656704 0)
(-0.0588629 0.0667993 0)
(-0.0612925 0.0679429 0)
(-0.0636923 0.0691818 0)
(-0.0660685 0.0706117 0)
(-0.0684309 0.0723115 0)
(-0.0708146 0.074224 0)
(-0.0733545 0.0758247 0)
(-0.0758536 0.0773862 0)
(-0.0592325 0.0695245 0)
(-0.0618669 0.0707382 0)
(-0.0645271 0.071856 0)
(-0.0671675 0.0729325 0)
(-0.0697441 0.0740828 0)
(-0.072247 0.0754859 0)
(-0.0747182 0.077241 0)
(-0.0770877 0.0789767 0)
(-0.079169 0.0804353 0)
(-0.0809125 0.0813157 0)
(-0.0638113 0.0749258 0)
(-0.0666472 0.0762629 0)
(-0.069564 0.0774122 0)
(-0.0724763 0.0783818 0)
(-0.075251 0.0792975 0)
(-0.077764 0.0804222 0)
(-0.079994 0.0818757 0)
(-0.0818111 0.0828066 0)
(-0.0831797 0.0835249 0)
(-0.0842632 0.0837797 0)
(-0.0673956 0.0806353 0)
(-0.0703632 0.0822404 0)
(-0.0735304 0.0835465 0)
(-0.0767633 0.0843559 0)
(-0.0797728 0.0847067 0)
(-0.0822404 0.0849069 0)
(-0.0841043 0.0854451 0)
(-0.0853504 0.0851716 0)
(-0.0861688 0.0853704 0)
(-0.0868449 0.0852371 0)
(-0.0698622 0.0863119 0)
(-0.0727417 0.0883621 0)
(-0.07596 0.090202 0)
(-0.0794827 0.0911397 0)
(-0.0826788 0.0902959 0)
(-0.0850908 0.0892162 0)
(-0.0867871 0.0882995 0)
(-0.0879484 0.0870187 0)
(-0.0887442 0.0865982 0)
(-0.0892264 0.0861307 0)
(-0.0719946 0.0918294 0)
(-0.0749261 0.0944932 0)
(-0.0782445 0.097173 0)
(-0.0817283 0.0980934 0)
(-0.0843672 0.09519 0)
(-0.0860478 0.0929424 0)
(-0.0873637 0.0908789 0)
(-0.0884799 0.0890972 0)
(-0.0893712 0.0879472 0)
(-0.0900246 0.0870666 0)
(-0.0734524 0.0974421 0)
(-0.0762363 0.100584 0)
(-0.0791602 0.103626 0)
(-0.0817477 0.103376 0)
(-0.0836891 0.0988979 0)
(-0.0852536 0.0956979 0)
(-0.0865668 0.0931606 0)
(-0.0876954 0.0911284 0)
(-0.0886787 0.0895962 0)
(-0.0895352 0.0884625 0)
(-0.0734086 0.102524 0)
(-0.0758475 0.105818 0)
(-0.0780952 0.108506 0)
(-0.0799403 0.107038 0)
(-0.0815581 0.102422 0)
(-0.0831853 0.0987219 0)
(-0.0847139 0.095779 0)
(-0.0860802 0.0934536 0)
(-0.0873026 0.0916571 0)
(-0.0883992 0.0903124 0)
(-0.0738933 0.107798 0)
(-0.0767113 0.110586 0)
(-0.078868 0.112011 0)
(-0.0800084 0.109201 0)
(-0.0808229 0.105151 0)
(-0.0819894 0.101628 0)
(-0.0833377 0.0986247 0)
(-0.08472 0.0961419 0)
(-0.0860745 0.0941473 0)
(-0.0873689 0.0925933 0)
(-0.0704684 0.112743 0)
(-0.0726114 0.115463 0)
(-0.0747593 0.115462 0)
(-0.0765227 0.111499 0)
(-0.0781546 0.107694 0)
(-0.0798323 0.104392 0)
(-0.0815163 0.101525 0)
(-0.083199 0.0990787 0)
(-0.0848642 0.0970355 0)
(-0.0864896 0.0953637 0)
(-0.0687034 0.116764 0)
(-0.0707248 0.119618 0)
(-0.0723931 0.118878 0)
(-0.0739185 0.114946 0)
(-0.0756308 0.111246 0)
(-0.077555 0.107995 0)
(-0.079575 0.105179 0)
(-0.0816444 0.102754 0)
(-0.0837297 0.100681 0)
(-0.0858012 0.0989244 0)
(-0.0662781 0.120882 0)
(-0.0681602 0.123061 0)
(-0.0696596 0.121615 0)
(-0.0711355 0.118258 0)
(-0.0730267 0.11513 0)
(-0.0752586 0.112265 0)
(-0.0776837 0.109685 0)
(-0.080225 0.107388 0)
(-0.082831 0.105361 0)
(-0.0854596 0.103586 0)
(-0.0612866 0.124577 0)
(-0.0630047 0.12639 0)
(-0.0649399 0.124953 0)
(-0.0672161 0.122316 0)
(-0.0697925 0.119834 0)
(-0.0726279 0.117452 0)
(-0.0756165 0.115195 0)
(-0.0787065 0.113094 0)
(-0.0818521 0.111167 0)
(-0.0850181 0.109412 0)
(-0.0569015 0.127586 0)
(-0.0584879 0.129844 0)
(-0.0606623 0.129605 0)
(-0.0635077 0.127913 0)
(-0.0666906 0.12584 0)
(-0.0700507 0.123803 0)
(-0.073547 0.121791 0)
(-0.0771247 0.119839 0)
(-0.0807335 0.117975 0)
(-0.0843377 0.116198 0)
(-0.0523524 0.130784 0)
(-0.0544761 0.133889 0)
(-0.0570083 0.13487 0)
(-0.0602114 0.13447 0)
(-0.0637786 0.132816 0)
(-0.0675216 0.131102 0)
(-0.0714634 0.129304 0)
(-0.0754577 0.127463 0)
(-0.0794579 0.125611 0)
(-0.0834196 0.123757 0)
(-0.0471865 0.135149 0)
(-0.0500298 0.139187 0)
(-0.053219 0.140731 0)
(-0.0567676 0.141581 0)
(-0.0607445 0.140676 0)
(-0.064957 0.139275 0)
(-0.06931 0.137625 0)
(-0.0736523 0.135818 0)
(-0.0779585 0.133905 0)
(-0.0821949 0.131908 0)
(-0.0409207 0.140726 0)
(-0.0443052 0.146093 0)
(-0.0487144 0.148707 0)
(-0.0535667 0.149954 0)
(-0.0581486 0.149356 0)
(-0.062641 0.148123 0)
(-0.0671981 0.146537 0)
(-0.0717604 0.144706 0)
(-0.0762853 0.142696 0)
(-0.0807475 0.14055 0)
(-0.0347149 0.147457 0)
(-0.0391052 0.154738 0)
(-0.0444463 0.158883 0)
(-0.0498869 0.159934 0)
(-0.0549471 0.158974 0)
(-0.0597884 0.157627 0)
(-0.0645965 0.15599 0)
(-0.0693904 0.154065 0)
(-0.074118 0.151923 0)
(-0.0787684 0.149645 0)
(-0.0274405 0.155092 0)
(-0.0329707 0.166825 0)
(-0.0409126 0.172062 0)
(-0.0475611 0.170241 0)
(-0.0520702 0.168042 0)
(-0.0564785 0.166946 0)
(-0.0613339 0.165588 0)
(-0.0662957 0.163635 0)
(-0.0711323 0.161376 0)
(-0.0758585 0.159026 0)
(-0.0232115 0.160795 0)
(-0.026272 0.180294 0)
(-0.0319099 0.187333 0)
(-0.0372428 0.180781 0)
(-0.0424486 0.177835 0)
(-0.048773 0.177742 0)
(-0.055405 0.176609 0)
(-0.0612303 0.173941 0)
(-0.0662607 0.171138 0)
(-0.0709965 0.168598 0)
(-0.0245675 0.163428 0)
(-0.0238716 0.185475 0)
(-0.0242403 0.194632 0)
(-0.0281586 0.192354 0)
(-0.0352161 0.191728 0)
(-0.0430771 0.192545 0)
(-0.0496597 0.189117 0)
(-0.0545779 0.184177 0)
(-0.0589616 0.180341 0)
(-0.0633651 0.177745 0)
(-0.0265613 0.160572 0)
(-0.0247051 0.182152 0)
(-0.023507 0.195764 0)
(-0.0245499 0.202105 0)
(-0.0277737 0.20502 0)
(-0.0317719 0.205447 0)
(-0.0367918 0.200657 0)
(-0.041899 0.193965 0)
(-0.0463501 0.189338 0)
(-0.0510816 0.186991 0)
(-0.0288335 0.156745 0)
(-0.0268103 0.176236 0)
(-0.0241108 0.19272 0)
(-0.0223164 0.203132 0)
(-0.0217181 0.208432 0)
(-0.0220716 0.210407 0)
(-0.0240809 0.208643 0)
(-0.0276957 0.203158 0)
(-0.0319625 0.199121 0)
(-0.036995 0.197452 0)
(-0.0257149 0.154662 0)
(-0.0238212 0.171247 0)
(-0.0211382 0.185766 0)
(-0.0181738 0.19751 0)
(-0.0155864 0.204912 0)
(-0.0141783 0.210323 0)
(-0.0145112 0.211667 0)
(-0.0165271 0.209773 0)
(-0.0200791 0.20833 0)
(-0.0248434 0.208272 0)
(-0.0176633 0.151988 0)
(-0.0159483 0.16732 0)
(-0.0137497 0.181123 0)
(-0.0114199 0.192256 0)
(-0.00936426 0.200586 0)
(-0.00793837 0.20768 0)
(-0.00740868 0.211971 0)
(-0.0085002 0.214201 0)
(-0.0113995 0.216086 0)
(-0.0156077 0.218238 0)
(-0.00766065 0.148632 0)
(-0.00594782 0.16389 0)
(-0.00430179 0.177673 0)
(-0.00267941 0.188799 0)
(-0.00147077 0.198279 0)
(-0.000903545 0.206348 0)
(-0.00115283 0.212846 0)
(-0.00253678 0.218167 0)
(-0.0051376 0.222713 0)
(-0.00873579 0.226822 0)
(-0.00100186 0.144723 0)
(0.00118829 0.16033 0)
(0.00309715 0.174145 0)
(0.00432931 0.186632 0)
(0.00490085 0.197432 0)
(0.00485263 0.206637 0)
(0.00402129 0.214903 0)
(0.00225998 0.22224 0)
(-0.000357654 0.228599 0)
(-0.00362402 0.234086 0)
(0.00515015 0.140337 0)
(0.00721314 0.155978 0)
(0.00929422 0.17046 0)
(0.0108428 0.184963 0)
(0.0111385 0.197428 0)
(0.0104969 0.208245 0)
(0.00886913 0.218264 0)
(0.00632621 0.227189 0)
(0.00321786 0.234662 0)
(-0.000162906 0.240876 0)
(0.0109463 0.136402 0)
(0.0127476 0.151886 0)
(0.0141621 0.167394 0)
(0.0150124 0.183509 0)
(0.0152015 0.197814 0)
(0.0143681 0.211093 0)
(0.0120513 0.223432 0)
(0.00863559 0.233671 0)
(0.00501263 0.241339 0)
(0.0015384 0.247687 0)
(0.0148335 0.133374 0)
(0.0159228 0.149395 0)
(0.0167018 0.165747 0)
(0.0171642 0.182421 0)
(0.0172667 0.198292 0)
(0.0164382 0.213992 0)
(0.0140065 0.229935 0)
(0.0100618 0.241863 0)
(0.00636551 0.24862 0)
(0.00311082 0.254599 0)
(0.01691 0.131547 0)
(0.0171557 0.14825 0)
(0.0170739 0.16527 0)
(0.0167604 0.182342 0)
(0.0162676 0.199168 0)
(0.0154191 0.216742 0)
(0.0139625 0.235763 0)
(0.0114871 0.248916 0)
(0.00826984 0.255613 0)
(0.00513961 0.261325 0)
(0.0173426 0.131474 0)
(0.016599 0.149092 0)
(0.0154062 0.166748 0)
(0.0139228 0.184223 0)
(0.012316 0.201426 0)
(0.0107935 0.219394 0)
(0.00967167 0.23836 0)
(0.00894071 0.25237 0)
(0.00739093 0.261055 0)
(0.00530275 0.266853 0)
(0.0158269 0.133274 0)
(0.0140035 0.152096 0)
(0.0116985 0.170467 0)
(0.00922932 0.188203 0)
(0.00691078 0.20528 0)
(0.00520852 0.222301 0)
(0.00434982 0.23932 0)
(0.00443103 0.253039 0)
(0.0045546 0.263368 0)
(0.00396112 0.269998 0)
(0.0114591 0.137134 0)
(0.00832619 0.157341 0)
(0.00481176 0.176193 0)
(0.00151927 0.193619 0)
(-0.00115524 0.209787 0)
(-0.00282745 0.224945 0)
(-0.00319739 0.239295 0)
(-0.00222134 0.251143 0)
(-0.000560389 0.262339 0)
(0.000480925 0.270227 0)
(0.00287008 0.144097 0)
(-0.00210068 0.16581 0)
(-0.00709825 0.184238 0)
(-0.0110414 0.200017 0)
(-0.0134852 0.213994 0)
(-0.0143612 0.226681 0)
(-0.0137872 0.238319 0)
(-0.0123669 0.248586 0)
(-0.0099708 0.258312 0)
(-0.00679322 0.266332 0)
(-0.0116238 0.155923 0)
(-0.0196508 0.17848 0)
(-0.0265124 0.194448 0)
(-0.0304859 0.206376 0)
(-0.0319062 0.216576 0)
(-0.0314989 0.225812 0)
(-0.0294373 0.234446 0)
(-0.0257053 0.242673 0)
(-0.0207681 0.250128 0)
(-0.0152871 0.25735 0)
(-0.0322712 0.168242 0)
(-0.0462962 0.19215 0)
(-0.0538132 0.202671 0)
(-0.0545154 0.208962 0)
(-0.0526629 0.21547 0)
(-0.049978 0.22159 0)
(-0.0461667 0.226673 0)
(-0.0407939 0.231587 0)
(-0.0341763 0.237104 0)
(-0.0269697 0.243559 0)
(-0.0682838 0.192082 0)
(-0.0755219 0.209485 0)
(-0.0738799 0.2044 0)
(-0.0711689 0.204938 0)
(-0.0686347 0.210473 0)
(-0.0654974 0.215119 0)
(-0.0611691 0.2176 0)
(-0.0556188 0.220347 0)
(-0.0492751 0.224599 0)
(-0.0426851 0.230539 0)
(-0.0973117 0.228905 0)
(-0.0864689 0.229619 0)
(-0.0790664 0.202434 0)
(-0.0820642 0.199088 0)
(-0.0817265 0.20774 0)
(-0.0768769 0.209241 0)
(-0.0738036 0.207911 0)
(-0.0717812 0.209696 0)
(-0.0696438 0.214161 0)
(-0.0671628 0.220985 0)
(-0.145747 0.195437 0)
(-0.143958 0.190643 0)
(-0.144692 0.184244 0)
(-0.146075 0.183294 0)
(-0.14653 0.185774 0)
(-0.14285 0.189176 0)
(-0.13478 0.194033 0)
(-0.134978 0.200963 0)
(-0.143623 0.208477 0)
(-0.157872 0.216791 0)
(-0.194731 0.221668 0)
(-0.19222 0.220483 0)
(-0.199386 0.215343 0)
(-0.215801 0.214973 0)
(-0.240275 0.217255 0)
(-0.273872 0.223006 0)
(-0.311649 0.237019 0)
(-0.347713 0.26191 0)
(-0.372918 0.291941 0)
(-0.380558 0.321995 0)
(-0.18118 0.183336 0)
(-0.176155 0.22097 0)
(-0.190316 0.257139 0)
(-0.197514 0.291879 0)
(-0.202777 0.319064 0)
(-0.20565 0.333541 0)
(-0.207095 0.330443 0)
(-0.198454 0.298124 0)
(-0.174589 0.248703 0)
(-0.144736 0.206125 0)
(-0.198018 0.172538 0)
(-0.191164 0.198871 0)
(-0.181631 0.216074 0)
(-0.165304 0.213387 0)
(-0.144811 0.218847 0)
(-0.132821 0.223132 0)
(-0.117045 0.217688 0)
(-0.0891161 0.205664 0)
(-0.062841 0.186586 0)
(-0.0381109 0.160875 0)
(-0.19438 0.169628 0)
(-0.187383 0.185416 0)
(-0.177214 0.194382 0)
(-0.1641 0.196219 0)
(-0.145851 0.198465 0)
(-0.122756 0.197609 0)
(-0.0974035 0.187686 0)
(-0.072133 0.170113 0)
(-0.0477552 0.149048 0)
(-0.0225618 0.124627 0)
(-0.18986 0.159283 0)
(-0.183279 0.174442 0)
(-0.172456 0.1828 0)
(-0.1574 0.178563 0)
(-0.138719 0.17475 0)
(-0.115564 0.168888 0)
(-0.0881188 0.152474 0)
(-0.0595505 0.126287 0)
(-0.0319609 0.10028 0)
(-0.00521516 0.0721486 0)
(-0.185034 0.149144 0)
(-0.174361 0.153958 0)
(-0.154725 0.147184 0)
(-0.132201 0.134423 0)
(-0.108265 0.121017 0)
(-0.0800731 0.104474 0)
(-0.0477648 0.0859242 0)
(-0.0210114 0.0641967 0)
(0.00228445 0.0433142 0)
(0.0242448 0.0207528 0)
(-0.132605 0.124122 0)
(-0.11286 0.115694 0)
(-0.0943375 0.0998139 0)
(-0.0760012 0.0845774 0)
(-0.0556621 0.0671666 0)
(-0.0352745 0.0489775 0)
(-0.0153392 0.0341107 0)
(0.00426723 0.0200018 0)
(0.0232935 0.00394981 0)
(0.0415674 -0.0145719 0)
(-0.0745169 0.0940565 0)
(-0.0629355 0.0807764 0)
(-0.0497675 0.0677282 0)
(-0.0353829 0.0532971 0)
(-0.0203524 0.0370061 0)
(-0.00522656 0.0202925 0)
(0.0101468 0.00402041 0)
(0.0258879 -0.0123342 0)
(0.0414005 -0.0293944 0)
(0.0559268 -0.0474336 0)
(-0.0449846 0.0761915 0)
(-0.0343458 0.060685 0)
(-0.0224792 0.0446288 0)
(-0.00936925 0.0273461 0)
(0.00452147 0.0091686 0)
(0.0188351 -0.00892689 0)
(0.0333435 -0.0261538 0)
(0.0476115 -0.0420275 0)
(0.0605496 -0.0564997 0)
(0.0723899 -0.0713577 0)
(-0.026689 0.0553319 0)
(-0.0148947 0.0372951 0)
(-0.00204159 0.0186022 0)
(0.0116772 -0.000481501 0)
(0.025947 -0.0194864 0)
(0.0404907 -0.0376185 0)
(0.0550184 -0.0540176 0)
(0.0684801 -0.0679327 0)
(0.0801631 -0.0801649 0)
(0.0971368 -0.101089 0)
(-0.00851608 0.0310335 0)
(0.004092 0.0109766 0)
(0.0177415 -0.00916142 0)
(0.0319406 -0.0291789 0)
(0.0465544 -0.0485856 0)
(0.0616431 -0.0665937 0)
(0.0766708 -0.0822781 0)
(0.0895848 -0.0957064 0)
(0.107326 -0.114945 0)
(0.145334 -0.175391 0)
(0.015349 0.00712422 0)
(0.027308 -0.0148591 0)
(0.0401775 -0.0364127 0)
(0.0540512 -0.0576392 0)
(0.0689641 -0.078095 0)
(0.0851182 -0.0970973 0)
(0.100181 -0.114266 0)
(0.118321 -0.133287 0)
(0.15211 -0.184978 0)
(0.207615 -0.28489 0)
(0.0352494 -0.0169204 0)
(0.0477259 -0.0400975 0)
(0.0609436 -0.0633751 0)
(0.0752472 -0.0865876 0)
(0.0911853 -0.109448 0)
(0.108209 -0.131575 0)
(0.125439 -0.154572 0)
(0.153562 -0.194024 0)
(0.208319 -0.292483 0)
(0.274584 -0.422548 0)
(0.0563123 -0.0397836 0)
(0.0677691 -0.0649449 0)
(0.0805891 -0.0905767 0)
(0.0951045 -0.116683 0)
(0.111783 -0.14321 0)
(0.128603 -0.170502 0)
(0.152085 -0.206913 0)
(0.195695 -0.291265 0)
(0.263781 -0.424776 0)
(0.342123 -0.577945 0)
(0.0709868 -0.0617895 0)
(0.0827525 -0.0893336 0)
(0.0959347 -0.117926 0)
(0.111032 -0.147749 0)
(0.127491 -0.179243 0)
(0.147018 -0.216298 0)
(0.181066 -0.28341 0)
(0.245883 -0.418863 0)
(0.322728 -0.57817 0)
(0.402904 -0.737752 0)
(0.082189 -0.0841512 0)
(0.0939609 -0.114332 0)
(0.107446 -0.146199 0)
(0.122692 -0.18007 0)
(0.139161 -0.217514 0)
(0.166198 -0.276712 0)
(0.22086 -0.403319 0)
(0.299801 -0.570763 0)
(0.38063 -0.74176 0)
(0.434832 -0.847798 0)
(0.0883542 -0.106122 0)
(0.100282 -0.139506 0)
(0.114039 -0.17525 0)
(0.128251 -0.213925 0)
(0.150585 -0.265946 0)
(0.19506 -0.377418 0)
(0.271069 -0.552368 0)
(0.353445 -0.735773 0)
(0.408668 -0.85231 0)
(0.444128 -0.918217 0)
(0.089483 -0.128274 0)
(0.101001 -0.165037 0)
(0.113379 -0.205183 0)
(0.129442 -0.253015 0)
(0.161516 -0.341681 0)
(0.235638 -0.523434 0)
(0.320111 -0.720049 0)
(0.376735 -0.849374 0)
(0.413467 -0.922933 0)
(0.441666 -0.97387 0)
(0.0858353 -0.149393 0)
(0.0955948 -0.189198 0)
(0.106688 -0.23286 0)
(0.130714 -0.305296 0)
(0.192431 -0.476085 0)
(0.278959 -0.691085 0)
(0.340357 -0.840231 0)
(0.378896 -0.923462 0)
(0.40691 -0.979355 0)
(0.431367 -1.02251 0)
(0.0768946 -0.166691 0)
(0.083037 -0.20988 0)
(0.0992966 -0.270402 0)
(0.142928 -0.4129 0)
(0.233262 -0.648903 0)
(0.300112 -0.824025 0)
(0.340685 -0.918749 0)
(0.369506 -0.980081 0)
(0.394101 -1.02822 0)
(0.41552 -1.06451 0)
(0.0639561 -0.178066 0)
(0.0678661 -0.228602 0)
(0.0848143 -0.331218 0)
(0.170538 -0.592978 0)
(0.251196 -0.803829 0)
(0.299371 -0.910797 0)
(0.329864 -0.976734 0)
(0.355176 -1.02957 0)
(0.377418 -1.07155 0)
(0.396266 -1.1007 0)
(0.0526447 -0.182043 0)
(0.0618185 -0.247673 0)
(0.116961 -0.471308 0)
(0.212566 -0.769128 0)
(0.262395 -0.8993 0)
(0.291491 -0.970311 0)
(0.316363 -1.02705 0)
(0.338891 -1.07442 0)
(0.35867 -1.11019 0)
(0.374972 -1.13169 0)
(0.0466741 -0.193799 0)
(0.0682292 -0.291449 0)
(0.174261 -0.688061 0)
(0.222061 -0.868985 0)
(0.253288 -0.955715 0)
(0.278285 -1.019 0)
(0.300768 -1.07207 0)
(0.320955 -1.11459 0)
(0.338296 -1.14389 0)
(0.352066 -1.15754 0)
(0.0232105 -0.210611 0)
(0.08059 -0.507606 0)
(0.172399 -0.81004 0)
(0.217893 -0.936478 0)
(0.241546 -1.00667 0)
(0.26378 -1.06382 0)
(0.284011 -1.1124 0)
(0.301834 -1.14978 0)
(0.31674 -1.17257 0)
(0.328058 -1.17853 0)
(0.0233405 -0.218469 0)
(0.130528 -0.723538 0)
(0.17824 -0.908234 0)
(0.205948 -0.990804 0)
(0.22781 -1.05032 0)
(0.247592 -1.10311 0)
(0.265446 -1.14795 0)
(0.281121 -1.18035 0)
(0.293853 -1.19669 0)
(0.30312 -1.19539 0)
(0.0487912 -0.402243 0)
(0.148561 -0.822 0)
(0.182641 -0.964016 0)
(0.198002 -1.03089 0)
(0.214785 -1.08652 0)
(0.231329 -1.13734 0)
(0.246707 -1.17904 0)
(0.259958 -1.20616 0)
(0.27009 -1.21572 0)
(0.276725 -1.20719 0)
(0.070877 -0.704969 0)
(0.133542 -0.917995 0)
(0.16497 -1.00767 0)
(0.181652 -1.06502 0)
(0.197583 -1.11855 0)
(0.213061 -1.16801 0)
(0.227277 -1.20639 0)
(0.238921 -1.22785 0)
(0.247293 -1.23067 0)
(0.252512 -1.21556 0)
(0.127216 -0.786504 0)
(0.149483 -0.967096 0)
(0.161258 -1.03678 0)
(0.171579 -1.09066 0)
(0.183199 -1.14503 0)
(0.19597 -1.19464 0)
(0.208064 -1.22994 0)
(0.217772 -1.24602 0)
(0.224813 -1.24327 0)
(0.229739 -1.22389 0)
(0.111405 -0.880245 0)
(0.130586 -0.996139 0)
(0.138792 -1.05192 0)
(0.148674 -1.10947 0)
(0.160948 -1.1687 0)
(0.17404 -1.21909 0)
(0.185382 -1.25058 0)
(0.193761 -1.26106 0)
(0.199628 -1.25338 0)
(0.20336 -1.23042 0)
(0.0732666 -0.923646 0)
(0.0952949 -1.00985 0)
(0.107752 -1.07204 0)
(0.122096 -1.13587 0)
(0.13733 -1.19716 0)
(0.151203 -1.24463 0)
(0.161841 -1.26995 0)
(0.169361 -1.27449 0)
(0.175029 -1.26269 0)
(0.178824 -1.23716 0)
(0.0606443 -0.953225 0)
(0.072801 -1.03671 0)
(0.0868863 -1.10194 0)
(0.102524 -1.16695 0)
(0.117393 -1.22644 0)
(0.129602 -1.26834 0)
(0.138235 -1.28689 0)
(0.144429 -1.28665 0)
(0.149622 -1.27261 0)
(0.1528 -1.24671 0)
(0.0459848 -0.98115 0)
(0.0562614 -1.06419 0)
(0.0705758 -1.13171 0)
(0.0857433 -1.1963 0)
(0.0988816 -1.25215 0)
(0.10831 -1.28739 0)
(0.114257 -1.29985 0)
(0.118557 -1.29662 0)
(0.122315 -1.28234 0)
(0.123948 -1.2581 0)
(0.0366414 -0.999237 0)
(0.0468759 -1.09058 0)
(0.059726 -1.15926 0)
(0.0723721 -1.22101 0)
(0.0821832 -1.27129 0)
(0.0876793 -1.29927 0)
(0.0901772 -1.30666 0)
(0.0914361 -1.30181 0)
(0.0919626 -1.28844 0)
(0.0916446 -1.26695 0)
(0.0304739 -1.02287 0)
(0.0403486 -1.11445 0)
(0.0511087 -1.18117 0)
(0.0606803 -1.23879 0)
(0.066932 -1.28234 0)
(0.0685405 -1.30302 0)
(0.0677194 -1.30605 0)
(0.0654573 -1.29946 0)
(0.0620023 -1.28546 0)
(0.0606948 -1.26329 0)
(0.0228755 -1.04841 0)
(0.0326602 -1.13444 0)
(0.0421109 -1.19848 0)
(0.0498563 -1.25176 0)
(0.0537321 -1.28739 0)
(0.0528158 -1.30131 0)
(0.0503991 -1.30088 0)
(0.0467558 -1.29232 0)
(0.0424329 -1.27622 0)
(0.0417479 -1.24928 0)
(0.0150101 -1.069 0)
(0.0245577 -1.15239 0)
(0.0335674 -1.21384 0)
(0.0404083 -1.26228 0)
(0.0427927 -1.2888 0)
(0.0405052 -1.29762 0)
(0.0382217 -1.29559 0)
(0.035579 -1.28634 0)
(0.0333751 -1.27029 0)
(0.0330777 -1.24205 0)
(0.00956365 -1.09119 0)
(0.0181802 -1.16997 0)
(0.0266637 -1.22795 0)
(0.0323992 -1.27072 0)
(0.0335305 -1.28746 0)
(0.0300845 -1.29324 0)
(0.0282557 -1.29141 0)
(0.0264505 -1.28249 0)
(0.0249237 -1.26959 0)
(0.0219634 -1.24944 0)
(0.00663889 -1.11268 0)
(0.0133896 -1.18582 0)
(0.0212808 -1.2405 0)
(0.0255465 -1.2765 0)
(0.0257841 -1.28366 0)
(0.0210146 -1.28787 0)
(0.0193378 -1.28734 0)
(0.0172614 -1.27783 0)
(0.0139531 -1.2667 0)
(0.00925835 -1.25516 0)
(0.00768201 -1.13446 0)
(0.0109826 -1.19888 0)
(0.0179921 -1.25138 0)
(0.0200415 -1.27884 0)
(0.019914 -1.27779 0)
(0.013553 -1.28116 0)
(0.0118725 -1.283 0)
(0.00970724 -1.27181 0)
(0.00497394 -1.25836 0)
(-0.000443315 -1.2492 0)
(0.010406 -1.14958 0)
(0.00999367 -1.2072 0)
(0.0169222 -1.26046 0)
(0.0157293 -1.27707 0)
(0.015938 -1.27037 0)
(0.00770044 -1.27307 0)
(0.00586764 -1.27832 0)
(0.00369237 -1.26617 0)
(-0.00106781 -1.24651 0)
(-0.00687908 -1.23513 0)
(0.0141555 -1.15484 0)
(0.0106854 -1.21057 0)
(0.0183632 -1.26805 0)
(0.0120267 -1.2713 0)
(0.0133174 -1.26189 0)
(0.00324354 -1.26395 0)
(0.00176512 -1.27279 0)
(-0.00127679 -1.2632 0)
(-0.00344042 -1.23381 0)
(-0.00861844 -1.21449 0)
(0.00699708 -1.13651 0)
(0.00543942 -1.21431 0)
(0.0201974 -1.27502 0)
(0.00826039 -1.26219 0)
(0.0113941 -1.25244 0)
(-0.000397067 -1.25384 0)
(-0.000269693 -1.26478 0)
(-0.00683969 -1.26476 0)
(-0.00209395 -1.22435 0)
(-0.00474747 -1.18482 0)
(0.00330362 -1.09267 0)
(-0.000824645 -1.22749 0)
(0.0256125 -1.27867 0)
(0.00594132 -1.24989 0)
(0.0102265 -1.24197 0)
(-0.00304518 -1.24291 0)
(-0.000645797 -1.25218 0)
(-0.0145984 -1.26902 0)
(0.00335925 -1.22526 0)
(0.000292585 -1.13913 0)
(0.0129072 -1.02128 0)
(-0.0126235 -1.26252 0)
(0.0290325 -1.27679 0)
(0.0024686 -1.23627 0)
(0.00826052 -1.23172 0)
(-0.0034969 -1.23253 0)
(0.00263466 -1.23706 0)
(-0.0216527 -1.27175 0)
(0.0154229 -1.25688 0)
(-0.00700965 -1.06245 0)
(-0.00626486 0.00223631 0)
(-0.0086197 0.00224658 0)
(-0.0109757 0.00225124 0)
(-0.0133288 0.0022512 0)
(-0.0156736 0.00224656 0)
(-0.0180053 0.00223716 0)
(-0.0203175 0.00222292 0)
(-0.0226031 0.00220408 0)
(-0.0248512 0.00217338 0)
(-0.0270466 0.00212631 0)
(-0.0291732 0.00207002 0)
(-0.0312146 0.00199888 0)
(-0.033149 0.00190658 0)
(-0.0349498 0.00178605 0)
(-0.0365849 0.00162342 0)
(-0.0380142 0.00140255 0)
(-0.039192 0.00111848 0)
(-0.0400765 0.000786456 0)
(-0.0406375 0.000424311 0)
(-0.0408327 1.95976e-05 0)
(-0.0405845 -0.000438897 0)
(-0.0399379 -0.000895196 0)
(-0.0389045 -0.00129576 0)
(-0.0375189 -0.0016276 0)
(-0.0358126 -0.00195761 0)
(-0.0338005 -0.00231778 0)
(-0.0314873 -0.00272705 0)
(-0.0289553 -0.00301056 0)
(-0.0262982 -0.00317429 0)
(-0.0235222 -0.00336066 0)
(-0.0206529 -0.00347711 0)
(-0.0178925 -0.00320508 0)
(-0.0153177 -0.00266749 0)
(-0.0128107 -0.00234067 0)
(-0.0103728 -0.00223638 0)
(-0.00807077 -0.00211687 0)
(-0.00590021 -0.00196086 0)
(-0.00385341 -0.00175783 0)
(-0.00201677 -0.00147271 0)
(-0.000640881 -0.0009432 0)
(-0.00952246 0.00654838 0)
(-0.0121451 0.00654345 0)
(-0.0147583 0.00652948 0)
(-0.0173583 0.00650396 0)
(-0.0199403 0.00646438 0)
(-0.0224978 0.00640746 0)
(-0.0250218 0.00632841 0)
(-0.0274999 0.00622102 0)
(-0.0299171 0.00607614 0)
(-0.0322569 0.00588635 0)
(-0.034498 0.00564774 0)
(-0.0366147 0.00535001 0)
(-0.0385783 0.00498223 0)
(-0.0403572 0.00453311 0)
(-0.041919 0.00399172 0)
(-0.0432331 0.00335008 0)
(-0.0442706 0.00260635 0)
(-0.0450028 0.00176568 0)
(-0.0454082 0.000838295 0)
(-0.0454825 -0.000158859 0)
(-0.04523 -0.00119421 0)
(-0.0446012 -0.00222821 0)
(-0.0435865 -0.00322105 0)
(-0.0421723 -0.00414011 0)
(-0.040371 -0.00498505 0)
(-0.0382252 -0.00573585 0)