/*--------------------------------*- C++ -*----------------------------------*\
  =========                 |
  \\      /  F ield         | OpenFOAM: The Open Source CFD Toolbox
   \\    /   O peration     | Website:  https://openfoam.org
    \\  /    A nd           | Version:  8
     \\/     M anipulation  |
\*---------------------------------------------------------------------------*/
FoamFile
{
    version     2.0;
    format      ascii;
    class       surfaceScalarField;
    location    "3.2";
    object      alphaPhi0.water;
}
// * * * * * * * * * * * * * * * * * * * * * * * * * * * * * * * * * * * * * //

dimensions      [0 3 -1 0 0 0 0];

internalField   nonuniform List<scalar> 
18095
(
1.58283e-07
-9.6569e-07
8.07407e-07
1.65305e-07
-1.2481e-06
1.24108e-06
1.22216e-07
-1.24216e-06
1.28524e-06
6.54075e-08
-1.26342e-06
1.32023e-06
1.31853e-10
-1.28043e-06
1.3457e-06
-6.51673e-08
-1.28046e-06
1.34575e-06
-1.22034e-07
-1.2635e-06
1.32036e-06
-1.65191e-07
-1.24224e-06
1.2854e-06
-1.5824e-07
-1.24818e-06
1.24123e-06
-9.65833e-07
8.07592e-07
1.10987e-07
-1.07668e-06
9.93848e-08
-1.2365e-06
7.28798e-08
-1.21565e-06
4.00969e-08
-1.23064e-06
9.16066e-11
-1.24042e-06
-3.99275e-08
-1.24044e-06
-7.27454e-08
-1.23068e-06
-9.92875e-08
-1.2157e-06
-1.10936e-07
-1.23653e-06
-1.07677e-06
6.71115e-08
-1.14379e-06
5.27374e-08
-1.22212e-06
4.21512e-08
-1.20506e-06
2.38986e-08
-1.21239e-06
6.18269e-11
-1.21659e-06
-2.37831e-08
-1.21659e-06
-4.20575e-08
-1.2124e-06
-5.26677e-08
-1.20509e-06
-6.70661e-08
-1.22213e-06
-1.14384e-06
3.95956e-08
-1.18338e-06
2.66222e-08
-1.20915e-06
2.20239e-08
-1.20047e-06
1.25492e-08
-1.20291e-06
3.79101e-11
-1.20407e-06
-1.24778e-08
-1.20408e-06
-2.19651e-08
-1.20292e-06
-2.65788e-08
-1.20047e-06
-3.95631e-08
-1.20915e-06
-1.1834e-06
1.66154e-08
7.46715e-09
7.00086e-09
4.08808e-09
1.43017e-11
-4.06102e-09
-6.9787e-09
-7.4519e-09
-1.66009e-08
-1.73781e-07
-1.16361e-06
1.33739e-06
-2.17673e-07
-1.21576e-06
1.25965e-06
-1.6381e-07
-1.21234e-06
1.15848e-06
-8.57802e-08
-1.20376e-06
1.12573e-06
1.38509e-09
-1.20245e-06
1.11528e-06
8.84972e-08
-1.20266e-06
1.11555e-06
1.66269e-07
-1.20435e-06
1.12658e-06
2.1989e-07
-1.21321e-06
1.15959e-06
1.75724e-07
-1.21693e-06
1.2611e-06
-1.16493e-06
1.34065e-06
-9.28099e-08
-1.0708e-06
-9.51825e-08
-1.21339e-06
-7.86052e-08
-1.22892e-06
-4.34677e-08
-1.2389e-06
7.82034e-10
-1.2467e-06
4.49689e-08
-1.24685e-06
7.994e-08
-1.23932e-06
9.62594e-08
-1.22953e-06
9.34213e-08
-1.21409e-06
-1.07151e-06
-5.77867e-08
-1.01301e-06
-5.4883e-08
-1.21629e-06
-4.61295e-08
-1.23767e-06
-2.66774e-08
-1.25835e-06
4.71105e-10
-1.27384e-06
2.75739e-08
-1.27395e-06
4.68954e-08
-1.25864e-06
5.54386e-08
-1.23807e-06
5.8058e-08
-1.21671e-06
-1.01345e-06
-7.45931e-08
-9.38417e-07
-6.17063e-08
-1.22918e-06
-4.83225e-08
-1.25106e-06
-2.7493e-08
-1.27918e-06
2.94769e-10
-1.30163e-06
2.80494e-08
-1.30171e-06
4.87843e-08
-1.27938e-06
6.2019e-08
-1.2513e-06
7.47406e-08
-1.22943e-06
-9.38707e-07
-1.3101e-07
-1.19115e-07
-8.49292e-08
-4.38777e-08
1.94042e-10
4.42421e-08
8.5228e-08
1.19319e-07
1.31114e-07
-3.46449e-09
-9.05477e-07
9.08941e-07
2.39459e-08
-1.33968e-06
1.31227e-06
2.28577e-08
-1.2775e-06
1.27859e-06
1.72248e-08
-1.2282e-06
1.23383e-06
1.13733e-08
-1.22458e-06
1.23043e-06
5.92839e-09
-1.22585e-06
1.23129e-06
-7.10696e-10
-1.22786e-06
1.2345e-06
7.84573e-09
-1.2743e-06
1.26574e-06
6.22113e-08
-1.34462e-06
1.29025e-06
-9.51935e-07
1.01415e-06
2.67573e-08
-9.32234e-07
3.3508e-08
-1.34643e-06
2.3586e-08
-1.26758e-06
1.62099e-08
-1.22082e-06
9.06394e-09
-1.21743e-06
1.79519e-09
-1.21858e-06
-4.82412e-09
-1.22124e-06
-1.00147e-08
-1.26911e-06
-4.34698e-09
-1.35029e-06
-9.56282e-07
3.48755e-08
-9.67109e-07
2.61537e-08
-1.3377e-06
1.71941e-08
-1.25862e-06
1.208e-08
-1.21571e-06
5.99863e-09
-1.21135e-06
-7.55615e-10
-1.21182e-06
-5.75066e-09
-1.21625e-06
-1.45772e-08
-1.26028e-06
-2.42543e-08
-1.34061e-06
-9.80536e-07
8.29273e-08
-1.05004e-06
5.68577e-08
-1.31163e-06
3.79562e-08
-1.23972e-06
2.47431e-08
-1.2025e-06
3.73381e-09
-1.19034e-06
-1.74362e-08
-1.19065e-06
-2.99196e-08
-1.20376e-06
-4.86983e-08
-1.2415e-06
-7.62323e-08
-1.31308e-06
-1.05677e-06
2.87351e-07
2.3537e-07
1.54131e-07
7.73665e-08
2.30407e-09
-7.27999e-08
-1.49982e-07
-2.319e-07
-2.83882e-07
-2.13627e-07
1.19698e-09
2.1243e-07
-2.14429e-07
8.02166e-10
-2.14852e-07
4.2234e-10
-2.14897e-07
4.54087e-11
-2.14637e-07
-2.59798e-10
-2.14083e-07
-5.54442e-10
-2.13237e-07
-8.46214e-10
-2.12091e-07
-1.14539e-09
-2.10628e-07
-1.46301e-09
-1.80838e-09
-2.0882e-07
-2.24388e-07
1.78973e-09
2.23796e-07
-2.248e-07
1.21415e-09
-2.25046e-07
6.68295e-10
-2.25151e-07
1.50641e-10
-2.25054e-07
-3.57428e-10
-2.24748e-07
-8.59846e-10
-2.24221e-07
-1.37339e-09
-2.23454e-07
-1.91266e-09
-2.22426e-07
-2.49156e-09
-3.12284e-09
-2.21112e-07
-2.25232e-07
2.70828e-09
2.24312e-07
-2.25975e-07
1.95769e-09
-2.26546e-07
1.23923e-09
-2.26939e-07
5.44154e-10
-2.27156e-07
-1.4053e-10
-2.27188e-07
-8.28279e-10
-2.27027e-07
-1.53499e-09
-2.26662e-07
-2.27756e-09
-2.2608e-07
-3.07367e-09
-3.94016e-09
-2.25262e-07
-2.25025e-07
3.83891e-09
2.23894e-07
-2.25985e-07
2.91755e-09
-2.26778e-07
2.03274e-09
-2.27408e-07
1.17497e-09
-2.27881e-07
3.3173e-10
-2.28197e-07
-5.1248e-10
-2.28357e-07
-1.37568e-09
-2.28356e-07
-2.27849e-09
-2.28186e-07
-3.24339e-09
-4.29325e-09
-2.27833e-07
-2.24677e-07
5.11714e-09
2.23399e-07
-2.25793e-07
4.03347e-09
-2.26754e-07
2.99384e-09
-2.27569e-07
1.98962e-09
-2.28247e-07
1.00868e-09
-2.28795e-07
3.52121e-11
-2.2922e-07
-9.50538e-10
-2.29526e-07
-1.97267e-09
-2.2971e-07
-3.05953e-09
-4.2431e-09
-2.2976e-07
-2.24554e-07
6.50904e-09
2.23162e-07
-2.25788e-07
5.26713e-09
-2.26873e-07
4.07852e-09
-2.2782e-07
2.93627e-09
-2.28642e-07
1.82983e-09
-2.29351e-07
7.44533e-10
-2.29963e-07
-3.39223e-10
-2.30488e-07
-1.44718e-09
-2.30935e-07
-2.6129e-09
-3.88022e-09
-2.31298e-07
-2.24921e-07
8.00089e-09
2.23429e-07
-2.26253e-07
6.59889e-09
-2.27433e-07
5.25895e-09
-2.28474e-07
3.97611e-09
-2.29387e-07
2.74221e-09
-2.30188e-07
1.54547e-09
-2.30897e-07
3.69557e-10
-2.31536e-07
-8.08384e-10
-2.32128e-07
-2.02094e-09
-3.31766e-09
-2.3269e-07
-2.26031e-07
9.60838e-09
2.24423e-07
-2.27475e-07
8.04248e-09
-2.28761e-07
6.54479e-09
-2.29897e-07
5.11127e-09
-2.3089e-07
3.73519e-09
-2.31752e-07
2.40728e-09
-2.32499e-07
1.11638e-09
-2.33156e-07
-1.51594e-10
-2.33761e-07
-1.41323e-09
-2.70443e-09
-2.34372e-07
-2.28118e-07
1.13824e-08
2.26343e-07
-2.29732e-07
9.65654e-09
-2.31191e-07
8.00357e-09
-2.32499e-07
6.4184e-09
-2.33656e-07
4.89256e-09
-2.34664e-07
3.41509e-09
-2.35522e-07
1.97432e-09
-2.36243e-07
5.69218e-10
-2.36869e-07
-7.86838e-10
-2.1578e-09
-2.37345e-07
-2.31336e-07
1.34006e-08
2.29318e-07
-2.33219e-07
1.15389e-08
-2.34978e-07
9.76258e-09
-2.36625e-07
8.06602e-09
-2.38172e-07
6.4395e-09
-2.39631e-07
4.87332e-09
-2.40997e-07
3.34051e-09
-2.42244e-07
1.81556e-09
-2.43399e-07
3.6804e-10
-1.06447e-09
-2.44422e-07
-2.35653e-07
1.57169e-08
2.33337e-07
-2.37865e-07
1.37509e-08
-2.39998e-07
1.18952e-08
-2.42079e-07
1.01471e-08
-2.44132e-07
8.4921e-09
-2.46172e-07
6.91291e-09
-2.48251e-07
5.41937e-09
-2.50008e-07
3.57518e-09
-2.41738e-07
1.89717e-09
-2.60158e-10
-2.19911e-07
-2.40893e-07
1.83301e-08
2.3828e-07
-2.43413e-07
1.62708e-08
-2.4587e-07
1.43521e-08
-2.48298e-07
1.25753e-08
-2.50682e-07
1.08757e-08
-2.52748e-07
8.98131e-09
-2.41593e-07
7.29324e-09
-2.23292e-07
5.01667e-09
-2.23687e-07
2.00083e-09
-1.56584e-09
-2.22717e-07
-2.47072e-07
2.12793e-08
2.44123e-07
-2.49942e-07
1.91407e-08
-2.52773e-07
1.71836e-08
-2.55495e-07
1.53003e-08
-2.54703e-07
1.31612e-08
-2.27096e-07
1.07969e-08
-2.27916e-07
7.86996e-09
-2.27858e-07
4.71565e-09
-2.2674e-07
6.39399e-10
-4.49985e-09
-2.24223e-07
-2.54041e-07
2.46096e-08
2.50711e-07
-2.57279e-07
2.23802e-08
-2.60319e-07
2.02366e-08
-2.53251e-07
1.75391e-08
-2.31775e-07
1.46009e-08
-2.32703e-07
1.13131e-08
-2.33009e-07
7.84806e-09
-2.32004e-07
3.46741e-09
-2.56036e-07
-1.48781e-09
-7.27016e-09
-2.61285e-07
-2.61339e-07
2.82686e-08
2.57686e-07
-2.64449e-07
2.55252e-08
-2.52985e-07
2.30325e-08
-2.36414e-07
1.87902e-08
-2.37532e-07
1.54065e-08
-2.37762e-07
1.12205e-08
-2.37742e-07
7.02927e-09
-2.69935e-07
2.49609e-09
-2.68043e-07
-3.38036e-09
-9.11369e-09
-2.662e-07
-2.67198e-07
3.12858e-08
2.6439e-07
-2.39173e-07
2.75916e-08
-2.39449e-07
2.31449e-08
-2.40737e-07
1.99012e-08
-2.41611e-07
1.59887e-08
-2.75449e-07
1.15234e-08
-2.75488e-07
7.05992e-09
-2.7441e-07
1.41783e-09
-2.73401e-07
-4.38937e-09
-1.02232e-08
-2.72292e-07
-2.41139e-07
3.2425e-08
2.62324e-07
-2.41947e-07
2.82973e-08
-2.43812e-07
2.49615e-08
-2.4571e-07
2.16357e-08
-2.79386e-07
1.76334e-08
-2.80664e-07
1.27979e-08
-2.80672e-07
7.06857e-09
-2.80456e-07
1.2018e-09
-2.80104e-07
-4.74112e-09
-1.06927e-08
-2.79635e-07
-2.45178e-07
3.40298e-08
2.43311e-07
-2.47062e-07
3.00683e-08
-2.49496e-07
2.72922e-08
-2.84067e-07
2.404e-08
-2.85945e-07
1.95113e-08
-2.86863e-07
1.37147e-08
-2.87525e-07
7.7294e-09
-2.87955e-07
1.63411e-09
-2.88175e-07
-4.52024e-09
-1.06781e-08
-2.88193e-07
-2.55835e-07
4.03178e-08
2.77974e-07
-2.58878e-07
3.28489e-08
-2.89612e-07
3.11532e-08
-2.92271e-07
2.66982e-08
-2.93755e-07
2.09951e-08
-2.95015e-07
1.49751e-08
-2.96057e-07
8.77349e-09
-2.96877e-07
2.45443e-09
-2.9747e-07
-3.92763e-09
-1.03224e-08
-2.97829e-07
-2.87232e-07
4.51898e-08
2.87429e-07
-2.91415e-07
4.00314e-08
-2.98241e-07
3.45077e-08
-3.00338e-07
2.87944e-08
-3.02161e-07
2.28179e-08
-3.03776e-07
1.65941e-08
-3.05192e-07
1.01892e-08
-3.06394e-07
3.65628e-09
-3.07369e-07
-2.95643e-09
-9.60239e-09
-3.08089e-07
-2.97294e-07
4.91998e-08
2.93276e-07
-3.00884e-07
4.36206e-08
-3.04155e-07
3.7778e-08
-3.07055e-07
3.16938e-08
-3.09629e-07
2.53926e-08
-3.11931e-07
1.88973e-08
-3.13976e-07
1.22371e-08
-3.15773e-07
5.44839e-09
-3.17299e-07
-1.43043e-09
-8.35943e-09
-3.18542e-07
-3.01369e-07
5.37609e-08
2.96808e-07
-3.05597e-07
4.7848e-08
-3.09511e-07
4.16923e-08
-3.13127e-07
3.53099e-08
-3.16456e-07
2.87214e-08
-3.19508e-07
2.19485e-08
-3.22287e-07
1.5016e-08
-3.24791e-07
7.95224e-09
-3.2701e-07
7.88878e-10
-6.44009e-09
-3.28929e-07
-3.04542e-07
5.89077e-08
2.99395e-07
-3.09415e-07
5.2721e-08
-3.14022e-07
4.62997e-08
-3.1837e-07
3.96576e-08
-3.2246e-07
3.28118e-08
-3.26294e-07
2.57817e-08
-3.29867e-07
1.85891e-08
-3.33173e-07
1.12583e-08
-3.362e-07
3.81646e-09
-3.70634e-09
-3.38934e-07
-3.06566e-07
6.46322e-08
3.00842e-07
-3.12077e-07
5.82315e-08
-3.17374e-07
5.15965e-08
-3.22456e-07
4.47397e-08
-3.2732e-07
3.76764e-08
-3.31963e-07
3.04239e-08
-3.36375e-07
2.30014e-08
-3.40547e-07
1.54308e-08
-3.44467e-07
7.73641e-09
-5.40995e-11
-3.48119e-07
-3.07128e-07
7.09092e-08
3.00851e-07
-3.13251e-07
6.43549e-08
-3.19216e-07
5.7562e-08
-3.25019e-07
5.05424e-08
-3.30652e-07
4.33097e-08
-3.36108e-07
3.58792e-08
-3.41375e-07
2.82681e-08
-3.4644e-07
2.04964e-08
-3.5129e-07
1.25867e-08
4.56561e-09
-3.5591e-07
-3.05882e-07
7.7694e-08
2.99098e-07
-3.12575e-07
7.10468e-08
-3.19167e-07
6.41548e-08
-3.25653e-07
5.70283e-08
-3.32022e-07
4.96789e-08
-3.38263e-07
4.21195e-08
-3.4436e-07
3.43653e-08
-3.50298e-07
2.64341e-08
-3.56059e-07
1.83474e-08
1.01311e-08
-3.61625e-07
-3.02478e-07
8.49187e-08
2.95253e-07
-3.09671e-07
7.824e-08
-3.16825e-07
7.13092e-08
-3.23931e-07
6.41334e-08
-3.30973e-07
5.67214e-08
-3.37937e-07
4.90828e-08
-3.44801e-07
4.12293e-08
-3.51543e-07
3.3176e-08
-3.58138e-07
2.49421e-08
1.65522e-08
-3.64559e-07
-2.96571e-07
9.24913e-08
2.88998e-07
-3.04174e-07
8.58431e-08
-3.11799e-07
7.89343e-08
-3.19434e-07
7.17679e-08
-3.2706e-07
6.43476e-08
-3.34655e-07
5.66776e-08
-3.4219e-07
4.87644e-08
-3.49632e-07
4.0618e-08
-3.56943e-07
3.22528e-08
2.36904e-08
-3.64081e-07
-2.87851e-07
1.00296e-07
2.80046e-07
-2.95749e-07
9.37411e-08
-3.03732e-07
8.6917e-08
-3.11784e-07
7.98201e-08
-3.19883e-07
7.24467e-08
-3.27999e-07
6.4793e-08
-3.36091e-07
5.68567e-08
-3.44112e-07
4.8639e-08
-3.52005e-07
4.01461e-08
3.13926e-08
-3.59708e-07
-2.76062e-07
1.08195e-07
2.68163e-07
-2.8412e-07
1.01798e-07
-2.92328e-07
9.51248e-08
-3.00669e-07
8.81618e-08
-3.09118e-07
8.08954e-08
-3.17635e-07
7.33098e-08
-3.26168e-07
6.53898e-08
-3.34651e-07
5.71227e-08
-3.43006e-07
4.85011e-08
3.9527e-08
-3.51141e-07
-2.61029e-07
1.16033e-07
2.53191e-07
-2.69092e-07
1.09861e-07
-2.77376e-07
1.03409e-07
-2.85867e-07
9.66518e-08
-2.94533e-07
8.95623e-08
-3.03332e-07
8.21087e-08
-3.122e-07
7.42573e-08
-3.21052e-07
6.59751e-08
-3.29785e-07
5.72335e-08
4.8014e-08
-3.38272e-07
-2.42686e-07
1.23636e-07
2.35082e-07
-2.50584e-07
1.17759e-07
-2.5878e-07
1.11605e-07
-2.67264e-07
1.05136e-07
-2.76012e-07
9.83093e-08
-2.84976e-07
9.10729e-08
-2.94087e-07
8.33685e-08
-3.03247e-07
7.51352e-08
-3.12327e-07
6.63133e-08
5.6852e-08
-3.21165e-07
-2.21116e-07
1.3082e-07
2.13933e-07
-2.28662e-07
1.25305e-07
-2.36587e-07
1.19529e-07
-2.44894e-07
1.13443e-07
-2.5357e-07
1.06985e-07
-2.62578e-07
1.00081e-07
-2.71851e-07
9.26418e-08
-2.81287e-07
8.45715e-08
-2.90742e-07
7.57676e-08
6.61309e-08
-3.00021e-07
-1.96591e-07
1.37387e-07
1.90024e-07
-2.03583e-07
1.32298e-07
-2.11036e-07
1.26982e-07
-2.18972e-07
1.2138e-07
-2.27398e-07
1.15413e-07
-2.36305e-07
1.08986e-07
-2.45651e-07
1.01981e-07
-2.55337e-07
9.42568e-08
-2.65227e-07
8.56577e-08
7.60229e-08
-2.75118e-07
-1.69604e-07
1.43158e-07
1.63833e-07
-1.75849e-07
1.38543e-07
-1.82624e-07
1.33757e-07
-1.89979e-07
1.28738e-07
-1.97963e-07
1.23397e-07
-2.06598e-07
1.17621e-07
-2.15882e-07
1.1126e-07
-2.25757e-07
1.04131e-07
-2.36115e-07
9.6016e-08
8.67002e-08
-2.46792e-07
-1.40922e-07
1.47994e-07
1.36086e-07
-1.46258e-07
1.43879e-07
-1.52177e-07
1.39676e-07
-1.58762e-07
1.35325e-07
-1.66098e-07
1.30735e-07
-1.74262e-07
1.25784e-07
-1.83302e-07
1.20299e-07
-1.93217e-07
1.14045e-07
-2.03921e-07
1.0672e-07
9.79859e-08
-2.15206e-07
-1.1155e-07
1.51827e-07
1.07717e-07
-1.15897e-07
1.48225e-07
-1.20859e-07
1.44638e-07
-1.26551e-07
1.41017e-07
-1.331e-07
1.37287e-07
-1.40647e-07
1.33333e-07
-1.49338e-07
1.2899e-07
-1.59299e-07
1.24005e-07
-1.70017e-07
1.17438e-07
1.03848e-07
-1.75879e-07
-8.25965e-08
1.54714e-07
7.971e-08
-8.60108e-08
1.51639e-07
-9.00771e-08
1.48704e-07
-9.49433e-08
1.45883e-07
-1.00787e-07
1.4313e-07
-1.07821e-07
1.40367e-07
-1.16262e-07
1.37432e-07
-1.25082e-07
1.32824e-07
-1.20624e-07
1.05467e-07
4.17405e-08
-8.53808e-08
-5.50213e-08
1.56824e-07
5.29117e-08
-5.77092e-08
1.54328e-07
-6.11414e-08
1.52136e-07
-6.55274e-08
1.50269e-07
-7.11273e-08
1.4873e-07
-7.82457e-08
1.47485e-07
-8.68787e-08
1.46061e-07
-8.54619e-08
1.24045e-07
-4.62382e-08
4.54494e-08
3.33776e-08
-3.8175e-08
-2.90403e-08
1.58219e-07
2.76446e-08
-3.10246e-08
1.56312e-07
-3.37838e-08
1.54895e-07
-3.75558e-08
1.54041e-07
-4.26385e-08
1.53813e-07
-4.9358e-08
1.54204e-07
-5.78156e-08
1.49507e-07
-3.02008e-08
6.59909e-08
-2.29548e-08
3.79221e-08
3.55628e-08
-2.55091e-08
-4.52281e-09
1.58803e-07
3.93891e-09
-5.58246e-09
1.57371e-07
-7.26289e-09
1.56576e-07
-9.74041e-09
1.56519e-07
-1.32207e-08
1.57293e-07
-1.80148e-08
1.58551e-07
-1.43509e-08
1.23613e-07
-9.03871e-09
3.61974e-08
-1.07858e-08
3.96149e-08
3.61997e-08
-1.16806e-08
1.82016e-08
1.5858e-07
-1.7978e-08
1.80829e-08
1.57489e-07
1.7497e-08
1.57162e-07
1.62762e-08
1.57739e-07
1.41891e-08
1.5938e-07
8.86597e-09
1.576e-07
1.19609e-09
7.75902e-08
-1.89609e-09
3.92094e-08
-2.96891e-09
4.06147e-08
3.55495e-08
-2.38348e-09
3.93618e-08
1.57458e-07
-3.82408e-08
4.0371e-08
1.5648e-07
4.12068e-08
1.56326e-07
4.17749e-08
1.57171e-07
4.19345e-08
1.59221e-07
2.9213e-08
1.54092e-07
8.25518e-09
4.71877e-08
6.54372e-09
4.10412e-08
6.45378e-09
4.06185e-08
3.45329e-08
7.38899e-09
5.88303e-08
1.55443e-07
-5.68152e-08
6.10193e-08
1.54291e-07
6.34046e-08
1.5394e-07
6.599e-08
1.54586e-07
6.87418e-08
1.56469e-07
4.20248e-08
1.46002e-07
1.55141e-08
4.7391e-08
1.5607e-08
4.0838e-08
1.62191e-08
3.99195e-08
3.53513e-08
3.75766e-08
7.63951e-08
1.52678e-07
-7.36297e-08
7.96307e-08
1.51055e-07
8.34592e-08
1.50112e-07
8.80081e-08
1.50037e-07
9.33943e-08
1.51083e-07
6.09647e-08
1.43385e-07
2.36289e-08
5.39399e-08
2.47776e-08
3.95103e-08
2.59609e-08
3.86236e-08
3.90077e-08
6.66235e-08
9.17528e-08
1.49502e-07
-8.85771e-08
9.56088e-08
1.47199e-07
1.0034e-07
1.4538e-07
1.06179e-07
1.44198e-07
1.13436e-07
1.43826e-07
8.92381e-08
1.40421e-07
3.19316e-08
6.95226e-08
3.31641e-08
3.80327e-08
3.56666e-08
3.59226e-08
3.22443e-08
4.18625e-08
1.05105e-07
1.46272e-07
-1.01876e-07
1.09139e-07
1.43164e-07
1.14215e-07
1.40304e-07
1.20613e-07
1.378e-07
1.28717e-07
1.35722e-07
1.35255e-07
1.33882e-07
4.30703e-08
1.06111e-07
4.00427e-08
4.08259e-08
4.41552e-08
3.15629e-08
2.96009e-08
4.65703e-08
1.16822e-07
1.43333e-07
-1.13882e-07
1.20588e-07
1.39398e-07
1.25391e-07
1.35501e-07
1.31494e-07
1.31696e-07
1.39214e-07
1.28002e-07
1.4872e-07
1.24376e-07
1.18304e-07
1.17211e-07
4.72435e-08
7.48333e-08
4.64257e-08
3.21868e-08
2.48662e-08
5.24175e-08
1.27738e-07
1.40853e-07
-1.25258e-07
1.31009e-07
1.36127e-07
1.35173e-07
1.31337e-07
1.40402e-07
1.26467e-07
1.46926e-07
1.21477e-07
1.55024e-07
1.16278e-07
1.61644e-07
1.1059e-07
1.17644e-07
1.00847e-07
5.1295e-08
6.8841e-08
2.86527e-08
4.85881e-08
1.39062e-07
1.38586e-07
-1.36796e-07
1.41829e-07
1.3336e-07
1.45285e-07
1.27881e-07
1.49532e-07
1.2222e-07
1.54676e-07
1.16332e-07
1.60832e-07
1.10123e-07
1.67988e-07
1.03434e-07
1.72809e-07
9.6007e-08
1.46514e-07
8.7028e-08
7.44382e-08
8.52671e-08
1.50422e-07
1.26727e-07
-1.43801e-07
1.54228e-07
1.29552e-07
1.5713e-07
1.24979e-07
1.60713e-07
1.18638e-07
1.65112e-07
1.11933e-07
1.70342e-07
1.04893e-07
1.76384e-07
9.7392e-08
1.83133e-07
8.92571e-08
1.89989e-07
8.01658e-08
6.98577e-08
1.9456e-07
1.49744e-07
1.13384e-07
-1.37185e-07
1.61856e-07
1.14356e-07
1.68469e-07
1.18357e-07
1.72337e-07
1.1477e-07
1.76783e-07
1.07486e-07
1.82086e-07
9.95901e-08
1.88232e-07
9.12454e-08
1.95174e-07
8.23152e-08
2.02717e-07
7.26226e-08
6.1992e-08
2.10582e-07
1.43367e-07
1.09353e-07
-1.40074e-07
1.51904e-07
1.05128e-07
1.70995e-07
1.02762e-07
1.81933e-07
1.05743e-07
1.86942e-07
1.02476e-07
1.92595e-07
9.39374e-08
1.99036e-07
8.4804e-08
2.06228e-07
7.51233e-08
2.14044e-07
6.4806e-08
5.3767e-08
2.22269e-07
1.46711e-07
1.07468e-07
-1.45517e-07
1.50441e-07
1.00715e-07
1.57314e-07
9.52156e-08
1.83183e-07
8.79015e-08
1.94253e-07
9.52681e-08
2.00329e-07
8.78655e-08
2.07054e-07
7.80786e-08
2.14526e-07
6.76511e-08
2.22652e-07
5.66798e-08
4.51715e-08
2.31248e-07
1.49375e-07
1.12211e-07
-1.62385e-07
1.51803e-07
9.76138e-08
1.58524e-07
9.09275e-08
1.74527e-07
8.18132e-08
1.98694e-07
8.70046e-08
2.04825e-07
8.1764e-08
2.11716e-07
7.11912e-08
2.19611e-07
5.97563e-08
2.28385e-07
4.7905e-08
3.57231e-08
2.37833e-07
1.65597e-07
1.11251e-07
-1.6702e-07
1.52898e-07
1.02366e-07
1.65631e-07
8.61361e-08
1.78419e-07
7.81805e-08
1.96897e-07
7.73758e-08
2.04464e-07
7.42178e-08
2.1197e-07
6.36858e-08
2.20918e-07
5.08092e-08
2.31145e-07
3.76772e-08
2.45189e-08
2.4235e-07
1.63423e-07
1.04102e-07
-1.56275e-07
1.67779e-07
9.93676e-08
1.54552e-07
9.29443e-08
1.21393e-07
7.44603e-08
1.49282e-07
5.11972e-08
1.94474e-07
4.91388e-08
2.05508e-07
5.26719e-08
2.17251e-07
3.90691e-08
2.30649e-07
2.42792e-08
9.8297e-09
2.45339e-07
1.45381e-07
9.59943e-08
-1.37273e-07
1.53894e-07
9.08547e-08
1.61153e-07
8.568e-08
1.23597e-07
7.14872e-08
1.30933e-07
5.4188e-08
1.55543e-07
4.24649e-08
1.96414e-07
3.51019e-08
2.11447e-07
2.41182e-08
2.29448e-07
6.28439e-09
-1.06141e-08
2.49892e-07
1.14874e-07
8.77335e-08
-1.06613e-07
1.24203e-07
8.15258e-08
1.34359e-07
7.5524e-08
1.14906e-07
6.79449e-08
1.13567e-07
5.47991e-08
8.96638e-08
2.90782e-08
1.75057e-07
1.80996e-08
1.97793e-07
2.91779e-09
2.24898e-07
-2.07548e-08
-4.17749e-08
2.56066e-07
7.02648e-08
7.93213e-08
-6.18524e-08
8.11676e-08
7.06233e-08
9.47476e-08
6.19439e-08
1.08916e-07
5.37767e-08
1.15453e-07
4.37958e-08
7.96769e-08
2.17086e-08
1.34504e-07
5.02342e-09
1.84214e-07
-1.82732e-08
2.20537e-07
-5.6638e-08
-8.48643e-08
2.63669e-07
-4.04076e-09
7.57267e-08
7.63547e-09
1.83327e-09
6.47493e-08
1.00868e-08
5.36905e-08
2.0795e-08
4.30685e-08
3.4276e-08
3.03058e-08
1.01589e-08
4.10217e-09
3.73257e-08
-5.07785e-09
1.20511e-07
-1.93796e-08
1.95611e-07
-3.17832e-08
-4.99626e-08
2.13719e-07
-1.12917e-07
8.23383e-08
1.06305e-07
-1.17941e-07
6.97729e-08
-1.1852e-07
5.42653e-08
-9.57933e-08
3.2461e-08
-1.71069e-08
3.08294e-09
-7.11613e-09
-9.68582e-09
9.73415e-09
-2.55854e-08
2.96092e-08
-4.39652e-08
5.99577e-08
-6.90865e-08
-1.17351e-07
1.18235e-07
-2.45744e-07
9.68113e-08
2.31273e-07
-2.47521e-07
7.31499e-08
-1.19434e-07
3.5102e-08
-5.03035e-08
-2.35464e-09
-2.3178e-08
-2.83452e-08
9.64603e-10
-3.75254e-08
4.11856e-08
-8.01939e-08
1.24092e-07
-1.66573e-07
2.2797e-07
-2.1998e-07
-2.42984e-07
3.65908e-07
-1.60702e-07
5.88148e-08
3.12536e-07
-1.20961e-07
1.70997e-08
-9.42851e-08
-1.19146e-08
-5.13452e-08
-6.81834e-08
-1.99773e-08
-1.29573e-07
3.64443e-08
-1.96386e-07
1.47773e-07
-2.75385e-07
2.58927e-07
-3.42173e-07
3.56136e-07
-4.0777e-07
-4.64806e-07
4.49045e-07
-1.69358e-07
2.35676e-08
1.90547e-07
-1.32923e-07
-3.39168e-08
-1.58652e-07
-9.9364e-08
-1.31661e-07
-1.84552e-07
-4.7751e-08
-2.82625e-07
5.88088e-08
-3.79302e-07
1.78203e-07
-4.64658e-07
3.0682e-07
-5.20151e-07
4.35956e-07
-5.6507e-07
-6.0219e-07
5.71201e-07
-3.65444e-07
-8.77152e-09
2.57945e-07
-3.49258e-07
-1.14133e-07
-2.64932e-07
-2.33264e-07
-1.64009e-07
-3.40874e-07
-5.05083e-08
-4.47212e-07
8.32671e-08
-5.34124e-07
2.22884e-07
-6.0435e-07
3.6311e-07
-6.60387e-07
5.02314e-07
-7.04278e-07
-7.37806e-07
6.37935e-07
-3.7484e-07
-6.4599e-08
3.68778e-07
-3.74875e-07
-1.98342e-07
-2.87795e-07
-3.22794e-07
-1.68601e-07
-4.5897e-07
-2.90643e-08
-5.86367e-07
1.1976e-07
-6.82801e-07
2.69144e-07
-7.53694e-07
4.14874e-07
-8.06112e-07
5.54851e-07
-8.44254e-07
-8.70678e-07
6.87723e-07
-3.52251e-07
-8.55825e-08
3.87707e-07
-3.20201e-07
-2.03136e-07
-2.49024e-07
-3.61391e-07
-1.28139e-07
-5.66663e-07
2.16506e-08
-7.25636e-07
1.77666e-07
-8.35386e-07
3.27205e-07
-9.02741e-07
4.6743e-07
-9.46281e-07
5.97654e-07
-9.74478e-07
-9.90868e-07
7.17845e-07
-2.15833e-07
-6.76871e-08
2.25996e-07
-1.46868e-07
-4.70528e-08
-8.98433e-08
-6.57049e-08
-4.14081e-08
-4.32422e-07
1.0966e-07
-8.46764e-07
2.59073e-07
-9.81953e-07
3.93746e-07
-1.03709e-06
5.14972e-07
-1.06748e-06
6.24358e-07
-1.08385e-06
-1.08956e-06
7.23055e-07
-2.28766e-08
-1.26979e-08
6.46591e-08
-4.02204e-09
-3.37802e-10
-1.71444e-08
-4.02157e-09
6.29567e-08
-2.89421e-07
2.23091e-07
-9.4991e-07
3.4656e-07
-1.10455e-06
4.52965e-07
-1.14338e-06
5.46498e-07
-1.16099e-06
6.29613e-07
-1.16696e-06
-1.16358e-06
7.0363e-07
-4.42177e-10
1.21328e-10
8.37083e-09
-9.96334e-10
1.93971e-10
1.40274e-09
-6.43917e-09
1.42707e-07
-2.97241e-07
3.2108e-07
-1.05766e-06
4.12745e-07
-1.19584e-06
4.8939e-07
-1.21994e-06
5.55922e-07
-1.22751e-06
6.1457e-07
-1.22561e-06
-1.21528e-06
6.6627e-07
-1.04253e-10
1.11154e-09
-7.7264e-09
1.26936e-10
-5.91914e-11
9.72388e-09
-1.60577e-08
2.28475e-07
-4.16949e-07
3.92383e-07
-1.18925e-06
4.54401e-07
-1.25739e-06
5.05006e-07
-1.27049e-06
5.48774e-07
-1.27127e-06
5.87196e-07
-1.26403e-06
-1.24874e-06
6.20659e-07
2.23392e-09
3.94773e-09
-4.93331e-08
3.15313e-09
-9.98265e-10
3.02205e-08
-4.42147e-08
3.64398e-07
-6.86988e-07
4.37387e-07
-1.2536e-06
4.74223e-07
-1.29405e-06
5.04406e-07
-1.30065e-06
5.30706e-07
-1.29756e-06
5.5371e-07
-1.28703e-06
-1.26837e-06
5.73341e-07
1.67872e-09
3.57838e-09
-2.60645e-08
2.57206e-09
-2.64532e-09
8.2216e-08
-1.25419e-07
4.19191e-07
-9.68611e-07
4.5428e-07
-1.28817e-06
4.73841e-07
-1.31354e-06
4.89943e-07
-1.31675e-06
5.04074e-07
-1.31169e-06
5.16189e-07
-1.29915e-06
-1.27813e-06
5.25947e-07
-2.33228e-10
1.34886e-09
0
5.84103e-09
-1.02091e-08
1.81408e-07
-2.46489e-07
4.27734e-07
-1.18551e-06
4.4822e-07
-1.30844e-06
4.57818e-07
-1.32311e-06
4.65094e-07
-1.32402e-06
4.71031e-07
-1.31763e-06
4.75232e-07
-1.30335e-06
-1.27975e-06
4.76851e-07
2.67554e-09
6.11307e-10
-2.64498e-09
1.845e-08
-2.68591e-08
3.38516e-07
-5.4878e-07
4.23125e-07
-1.2659e-06
4.31037e-07
-1.3163e-06
4.33304e-07
-1.32537e-06
4.34702e-07
-1.32541e-06
4.3543e-07
-1.31836e-06
4.34885e-07
-1.30281e-06
-1.27696e-06
4.32095e-07
2.95666e-09
-9.9569e-10
-2.03528e-09
4.79161e-08
-7.24716e-08
3.79577e-07
-8.66784e-07
4.02636e-07
-1.28789e-06
4.0302e-07
-1.31667e-06
4.01513e-07
-1.32386e-06
3.99966e-07
-1.32387e-06
3.98029e-07
-1.31642e-06
3.95101e-07
-1.29988e-06
-1.27234e-06
3.90482e-07
1.69708e-09
-3.89005e-09
5.03188e-10
1.08985e-07
-1.80584e-07
3.63102e-07
-1.11599e-06
3.70838e-07
-1.29559e-06
3.68484e-07
-1.31431e-06
3.6557e-07
-1.32095e-06
3.62646e-07
-1.32094e-06
3.59285e-07
-1.31306e-06
3.55071e-07
-1.29566e-06
-1.26681e-06
3.49536e-07
4.88148e-09
-9.43012e-09
-2.70211e-11
2.19885e-07
-3.88666e-07
3.34975e-07
-1.22899e-06
3.35608e-07
-1.29623e-06
3.31765e-07
-1.31047e-06
3.27664e-07
-1.31685e-06
3.23328e-07
-1.31661e-06
3.18368e-07
-1.3081e-06
3.12646e-07
-1.28994e-06
-1.26042e-06
3.06263e-07
1.31146e-08
-1.95689e-08
-4.21861e-09
2.75107e-07
-6.61806e-07
3.02696e-07
-1.25773e-06
2.99522e-07
-1.29306e-06
2.9418e-07
-1.30513e-06
2.88741e-07
-1.31141e-06
2.82685e-07
-1.31055e-06
2.75234e-07
-1.30065e-06
2.65842e-07
-1.28055e-06
-1.24788e-06
2.533e-07
3.29227e-08
-5.03954e-08
-3.6703e-09
2.63333e-07
-9.01046e-07
2.68597e-07
-1.26303e-06
2.6272e-07
-1.28719e-06
2.56744e-07
-1.29915e-06
2.5087e-07
-1.30554e-06
2.44036e-07
-1.30372e-06
2.35161e-07
-1.29177e-06
2.2341e-07
-1.2688e-06
-1.22876e-06
2.04291e-07
7.44488e-08
-1.28725e-07
-9.09204e-10
2.33576e-07
-1.06319e-06
2.32247e-07
-1.2617e-06
2.26648e-07
-1.28159e-06
2.21583e-07
-1.29409e-06
2.16376e-07
-1.30033e-06
2.0987e-07
-1.29721e-06
2.00924e-07
-1.28283e-06
1.88534e-07
-1.25641e-06
-1.19921e-06
1.58988e-07
1.20758e-07
-2.53056e-07
-4.03578e-10
2.04014e-07
-1.14312e-06
2.00266e-07
-1.25794e-06
1.9532e-07
-1.27664e-06
1.91183e-07
-1.28995e-06
1.87009e-07
-1.29616e-06
1.8165e-07
-1.29185e-06
1.73939e-07
-1.27512e-06
1.62849e-07
-1.24532e-06
-1.17181e-06
1.1075e-07
1.24908e-07
-3.6099e-07
-1.57418e-10
1.73912e-07
-1.18487e-06
1.70727e-07
-1.25474e-06
1.67133e-07
-1.27305e-06
1.64534e-07
-1.28735e-06
1.62198e-07
-1.29382e-06
1.59112e-07
-1.28877e-06
1.54272e-07
-1.27028e-06
1.46871e-07
-1.23792e-06
-1.14831e-06
9.56086e-08
1.20413e-07
-4.51935e-07
-1.44833e-10
1.47596e-07
-1.20556e-06
1.44495e-07
-1.25163e-06
1.42087e-07
-1.27064e-06
1.41014e-07
-1.28628e-06
1.40543e-07
-1.29335e-06
1.39885e-07
-1.28811e-06
1.38352e-07
-1.26875e-06
1.35416e-07
-1.23498e-06
-1.12491e-06
8.7926e-08
1.11707e-07
-5.30434e-07
-1.47379e-10
1.24276e-07
-1.21386e-06
1.21288e-07
-1.24863e-06
1.19878e-07
-1.26923e-06
1.19845e-07
-1.28625e-06
1.20436e-07
-1.29394e-06
1.21166e-07
-1.28884e-06
1.21697e-07
-1.26928e-06
1.21388e-07
-1.23467e-06
-1.09813e-06
7.51172e-08
1.00351e-07
-6.00189e-07
-2.48053e-10
1.03541e-07
-1.21548e-06
1.00964e-07
-1.24605e-06
1.00405e-07
-1.26867e-06
1.00933e-07
-1.28678e-06
1.01817e-07
-1.29482e-06
1.03074e-07
-1.2901e-06
1.05019e-07
-1.27122e-06
1.07208e-07
-1.23686e-06
-1.07058e-06
6.3209e-08
8.34719e-08
-6.58402e-07
-3.62438e-10
8.30993e-08
-1.21447e-06
8.23214e-08
-1.24527e-06
8.32491e-08
-1.2696e-06
8.44511e-08
-1.28798e-06
8.53397e-08
-1.29571e-06
8.66522e-08
-1.29141e-06
8.98291e-08
-1.2744e-06
9.54102e-08
-1.24244e-06
-1.04481e-06
5.49573e-08
6.06805e-08
-6.96653e-07
-7.17757e-10
6.26857e-08
-1.21607e-06
6.55302e-08
-1.24812e-06
6.88679e-08
-1.27294e-06
7.13802e-08
-1.29049e-06
7.27644e-08
-1.2971e-06
7.43829e-08
-1.29303e-06
7.86153e-08
-1.27863e-06
8.69524e-08
-1.25078e-06
-1.01946e-06
4.79972e-08
3.90377e-08
-7.13585e-07
-1.822e-09
4.46683e-08
-1.2214e-06
5.14001e-08
-1.25486e-06
5.71484e-08
-1.27868e-06
6.12646e-08
-1.29461e-06
6.39005e-08
-1.29973e-06
6.7028e-08
-1.29616e-06
7.40689e-08
-1.28567e-06
8.90168e-08
-1.26573e-06
-9.94871e-07
5.11332e-08
2.22889e-08
-7.13898e-07
-2.98231e-09
3.26965e-08
-1.23205e-06
4.13632e-08
-1.26354e-06
4.7677e-08
-1.285e-06
5.16354e-08
-1.29857e-06
5.37236e-08
-1.30182e-06
5.59815e-08
-1.29841e-06
6.18874e-08
-1.29158e-06
7.69382e-08
-1.28078e-06
-9.73742e-07
4.25548e-08
1.99739e-08
-7.21559e-07
-1.35097e-09
2.97495e-08
-1.24257e-06
3.6216e-08
-1.27001e-06
4.05186e-08
-1.2893e-06
4.2004e-08
-1.30005e-06
4.15123e-08
-1.30133e-06
4.04685e-08
-1.29737e-06
4.07832e-08
-1.29189e-06
4.56899e-08
-1.28569e-06
-9.61959e-07
2.10678e-08
2.15982e-08
-7.44807e-07
-7.76024e-11
2.82027e-08
-1.24937e-06
3.17649e-08
-1.27358e-06
3.41427e-08
-1.29168e-06
3.25935e-08
-1.2985e-06
2.94772e-08
-1.29821e-06
2.56288e-08
-1.29352e-06
2.11912e-08
-1.28745e-06
1.7002e-08
-1.2815e-06
-9.62553e-07
5.73139e-09
2.59256e-08
-7.7909e-07
-1.51231e-13
2.75626e-08
-1.25104e-06
2.90581e-08
-1.27507e-06
2.97923e-08
-1.29241e-06
2.48639e-08
-1.29357e-06
1.92744e-08
-1.29262e-06
1.3363e-08
-1.28761e-06
5.4777e-09
-1.27957e-06
-3.89738e-09
-1.2721e-06
-9.74652e-07
1.70036e-33
3.56368e-08
-8.20317e-07
-1.20917e-12
2.95656e-08
-1.24497e-06
3.02205e-08
-1.27573e-06
2.83734e-08
-1.29056e-06
2.0085e-08
-1.28528e-06
1.23431e-08
-1.28488e-06
5.65139e-09
-1.28092e-06
-3.64679e-09
-1.27027e-06
-1.61833e-08
-1.25954e-06
-9.98343e-07
4.42787e-34
4.1087e-08
-8.59152e-07
-3.28725e-13
3.14577e-08
-1.23534e-06
3.42867e-08
-1.27856e-06
2.8579e-08
-1.28486e-06
1.79371e-08
-1.27464e-06
8.32745e-09
-1.27527e-06
1.83306e-09
-1.27442e-06
-6.74912e-09
-1.26169e-06
-2.05441e-08
-1.2457e-06
-1.02543e-06
3.82098e-35
3.78812e-08
-8.89065e-07
-2.97216e-14
3.31431e-08
-1.23055e-06
3.90599e-08
-1.28447e-06
2.88254e-08
-1.27462e-06
1.72763e-08
-1.26309e-06
6.22025e-09
-1.26422e-06
-3.22322e-11
-1.26817e-06
-5.1755e-09
-1.25655e-06
-1.86994e-08
-1.23218e-06
-1.04949e-06
1.65195e-60
2.47987e-08
-9.03406e-07
-7.67247e-13
3.70143e-08
-1.24277e-06
4.25152e-08
-1.28997e-06
2.83523e-08
-1.26046e-06
1.60895e-08
-1.25083e-06
3.92248e-09
-1.25205e-06
-3.82454e-09
-1.26042e-06
-2.02115e-09
-1.25835e-06
-9.50758e-09
-1.22468e-06
-1.06285e-06
1.23069e-72
1.0642e-08
-9.06913e-07
-1.09939e-12
4.43546e-08
-1.27648e-06
4.12949e-08
-1.28691e-06
2.54889e-08
-1.24465e-06
1.3322e-08
-1.23866e-06
1.10833e-09
-1.23984e-06
-1.14155e-08
-1.2479e-06
-3.5858e-09
-1.26618e-06
1.15224e-08
-1.23979e-06
-1.0534e-06
5.9468e-95
3.39432e-09
-1.55996e-13
3.91818e-08
3.08584e-08
2.00354e-08
1.1802e-08