/*--------------------------------*- C++ -*----------------------------------*\
  =========                 |
  \\      /  F ield         | OpenFOAM: The Open Source CFD Toolbox
   \\    /   O peration     | Website:  https://openfoam.org
    \\  /    A nd           | Version:  8
     \\/     M anipulation  |
\*---------------------------------------------------------------------------*/
FoamFile
{
    version     2.0;
    format      ascii;
    class       volScalarField;
    location    "3.2";
    object      nut;
}
// * * * * * * * * * * * * * * * * * * * * * * * * * * * * * * * * * * * * * //

dimensions      [0 2 -1 0 0 0 0];

internalField   nonuniform List<scalar> 
9150
(
9.60055e-06
6.40197e-06
6.57113e-06
8.75451e-06
7.60143e-06
7.60044e-06
8.75599e-06
6.5714e-06
6.40115e-06
9.60062e-06
9.48783e-06
5.73403e-06
8.27655e-06
9.89879e-06
7.07385e-06
7.07228e-06
9.89842e-06
8.27745e-06
5.73335e-06
9.48784e-06
9.29583e-06
5.49708e-06
1.08015e-05
1.02747e-05
6.7262e-06
6.72477e-06
1.02729e-05
1.08022e-05
5.49652e-06
9.29581e-06
9.08018e-06
5.41955e-06
1.34037e-05
1.02726e-05
6.53966e-06
6.53848e-06
1.02703e-05
1.34026e-05
5.41907e-06
9.08014e-06
8.84535e-06
5.40348e-06
1.56459e-05
1.01812e-05
6.44495e-06
6.44392e-06
1.01789e-05
1.56421e-05
5.40303e-06
8.8453e-06
5.91238e-06
1.12612e-05
1.38499e-05
1.74206e-05
1.66483e-05
1.66533e-05
1.74392e-05
1.38834e-05
1.12859e-05
5.91407e-06
6.28057e-06
8.85116e-06
1.13501e-05
1.53143e-05
1.44046e-05
1.44058e-05
1.53226e-05
1.13674e-05
8.85989e-06
6.28046e-06
6.83077e-06
7.89816e-06
9.38075e-06
1.30764e-05
1.21151e-05
1.2115e-05
1.30807e-05
9.38853e-06
7.90005e-06
6.83055e-06
7.38749e-06
7.29256e-06
7.97213e-06
1.11629e-05
1.01898e-05
1.01892e-05
1.11653e-05
7.97511e-06
7.29209e-06
7.38734e-06
8.07483e-06
6.8427e-06
7.05162e-06
9.65995e-06
8.64e-06
8.63918e-06
9.66162e-06
7.0525e-06
6.84177e-06
8.07476e-06
1.01089e-05
1.20849e-05
1.22331e-05
1.54364e-05
1.73575e-05
1.75494e-05
1.60559e-05
1.44104e-05
2.06024e-05
1.4098e-05
7.84649e-06
1.07546e-05
1.22539e-05
1.56504e-05
1.74632e-05
1.75972e-05
1.60144e-05
1.26068e-05
1.08557e-05
7.91411e-06
7.45087e-06
1.0159e-05
1.24001e-05
1.58859e-05
1.75631e-05
1.7652e-05
1.61258e-05
1.25916e-05
1.02078e-05
7.46723e-06
7.02854e-06
9.7624e-06
1.24752e-05
1.60698e-05
1.76379e-05
1.76981e-05
1.62238e-05
1.25906e-05
9.83014e-06
7.03565e-06
6.50856e-06
1.00247e-05
1.25126e-05
1.62979e-05
1.75519e-05
1.75856e-05
1.63757e-05
1.25758e-05
1.00827e-05
6.51169e-06
9.78828e-06
9.85187e-06
9.91429e-06
9.97705e-06
1.0042e-05
1.01065e-05
1.01707e-05
1.02353e-05
1.03008e-05
1.03676e-05
7.90223e-05
8.01728e-05
8.12396e-05
8.22181e-05
8.30971e-05
8.39629e-05
8.48446e-05
8.57547e-05
8.66996e-05
8.76822e-05
0.000162255
0.000164041
0.000165694
0.000167228
0.000168658
0.000170063
0.000171465
0.000172876
0.000174305
0.000175754
0.000234014
0.000235871
0.000237576
0.000239147
0.000240603
0.000241977
0.000243319
0.000244636
0.000245936
0.000247219
0.000292782
0.000294375
0.000295814
0.000297115
0.000298295
0.00029937
0.000300385
0.000301356
0.000302291
0.000303193
0.000340499
0.000341712
0.000342793
0.000343758
0.000344621
0.000345397
0.0003461
0.000346766
0.000347404
0.000348021
0.000379689
0.000380587
0.000381399
0.000382138
0.000382817
0.000383448
0.00038404
0.000384612
0.000385181
0.000385755
0.000412804
0.00041357
0.000414311
0.000415036
0.000415754
0.000416472
0.000417196
0.000417933
0.000418695
0.000419489
0.000441968
0.000442834
0.000443739
0.000444685
0.000445674
0.000446709
0.000447789
0.000448914
0.000450083
0.000451301
0.000468852
0.000470043
0.000471324
0.000472691
0.000474139
0.000475663
0.000477257
0.000478912
0.000480618
0.000482372
0.000494636
0.000496324
0.000498135
0.000500057
0.000502077
0.000504183
0.000506363
0.000508605
0.000510896
0.000513228
0.000520042
0.000522335
0.000524759
0.000527296
0.000529926
0.000532632
0.000535401
0.000538221
0.000541076
0.000543943
0.000545419
0.000548352
0.000551406
0.000554553
0.000557773
0.000561045
0.000564353
0.000567681
0.000570992
0.00057421
0.000570831
0.000574384
0.000578027
0.000581731
0.000585474
0.000589233
0.000592984
0.000596682
0.000600245
0.000603568
0.00059616
0.000600269
0.000604424
0.000608601
0.000612774
0.000616901
0.000620928
0.000624785
0.000628379
0.000631616
0.000621197
0.000625774
0.000630349
0.000634896
0.000639373
0.000643703
0.000647814
0.000651638
0.000655083
0.000658065
0.000645718
0.000650668
0.000655557
0.000660344
0.000664959
0.000669319
0.000673349
0.000676973
0.00068011
0.000682691
0.000669503
0.000674712
0.000679785
0.000684661
0.000689257
0.00069349
0.000697284
0.000700563
0.000703256
0.000705308
0.000692318
0.000697656
0.00070276
0.000707568
0.000711996
0.000715958
0.000719379
0.00072219
0.000724326
0.000725743
0.000713904
0.000719238
0.000724236
0.000728834
0.000732953
0.000736516
0.000739449
0.000741689
0.000743177
0.000743875
0.00073405
0.000739262
0.000744039
0.000748313
0.000752015
0.000755074
0.000757424
0.000759006
0.000759769
0.000759677
0.00075263
0.000757621
0.000762083
0.000765947
0.000769148
0.000771624
0.000773317
0.000774173
0.000774151
0.000773215
0.000769571
0.000774264
0.000778336
0.000781725
0.000784367
0.000786208
0.000787195
0.000787284
0.000786437
0.000784626
0.000784854
0.000789192
0.000792828
0.0007957
0.000797751
0.00079893
0.000799193
0.0007985
0.000796821
0.000794133
0.000798514
0.000802467
0.000805645
0.000807989
0.000809446
0.000809969
0.00080952
0.000808064
0.000805578
0.000802045
0.000810639
0.000814204
0.000816932
0.000818767
0.000819659
0.000819568
0.000818456
0.000816297
0.000813073
0.000808772
0.00082136
0.000824563
0.00082688
0.000828258
0.000828651
0.000828021
0.000826338
0.000823579
0.000819731
0.000814789
0.000830842
0.000833738
0.000835712
0.000836718
0.000836712
0.00083566
0.000833537
0.000830326
0.000826019
0.000820618
0.000839273
0.000841941
0.000843671
0.000844419
0.000844146
0.000842824
0.000840432
0.000836957
0.0008324
0.00082677
0.000846846
0.000849389
0.000850995
0.000851625
0.000851244
0.00084983
0.000847368
0.000843852
0.000839288
0.000833694
0.000853749
0.000856286
0.000857903
0.000858569
0.000858256
0.000856947
0.000854632
0.000851313
0.000847003
0.000841728
0.000860148
0.000862802
0.000864574
0.000865437
0.000865372
0.000864367
0.00086242
0.000859539
0.000855742
0.00085106
0.000866173
0.000869067
0.000871132
0.000872349
0.000872705
0.000872195
0.000870824
0.000868604
0.000865557
0.000861717
0.000871909
0.000875158
0.000877644
0.000879354
0.000880285
0.000880439
0.000879823
0.000878455
0.000876358
0.000873561
0.000877393
0.000881095
0.000884108
0.00088643
0.000888063
0.000889015
0.000889297
0.000888927
0.000887924
0.000886312
0.000882609
0.000886838
0.000890461
0.000893484
0.000895913
0.00089776
0.000899039
0.000899764
0.000899946
0.000899593
0.00088749
0.000892296
0.000896583
0.000900362
0.000903647
0.000906452
0.000908792
0.000910676
0.000912104
0.000913048
0.000891941
0.000897347
0.000902322
0.000906885
0.000911054
0.000914849
0.000918285
0.000921371
0.000924092
0.000926322
0.00089586
0.000901866
0.000907532
0.000912882
0.000917939
0.000922725
0.000927252
0.000931512
0.000935393
0.000938347
0.000899158
0.000905742
0.000912075
0.000918183
0.00092409
0.000929812
0.000935348
0.000940597
0.000945032
0.000948011
0.000901776
0.000908902
0.000915855
0.000922661
0.000929338
0.00093589
0.00094228
0.00094821
0.000952769
0.000956581
0.000903713
0.000911345
0.000918885
0.000926353
0.000933758
0.000941084
0.000948195
0.000954477
0.000959369
0.000964127
0.000905039
0.000913146
0.000921243
0.000929347
0.000937461
0.000945551
0.000953364
0.000959943
0.000965351
0.000970744
0.000905856
0.000914401
0.000923018
0.000931724
0.000940516
0.000949344
0.000957849
0.000964909
0.000970918
0.000976829
0.000906291
0.000915225
0.000924311
0.00093357
0.000942998
0.000952545
0.00096184
0.000969708
0.000976315
0.000982639
0.000906489
0.000915749
0.000925231
0.000934968
0.000944964
0.000955199
0.000965426
0.000974498
0.00098183
0.000988461
0.0009066
0.000916097
0.000925864
0.000935937
0.000946326
0.000957019
0.000967918
0.000978401
0.000987069
0.000994103
0.000906757
0.000916368
0.000926256
0.000936448
0.000946953
0.000957749
0.000968788
0.000979894
0.000990198
0.000998491
0.000907087
0.000916661
0.000926471
0.000936522
0.000946805
0.000957282
0.000967874
0.000978454
0.000988764
0.000998085
0.000907675
0.00091704
0.000926554
0.000936196
0.000945926
0.000955677
0.000965348
0.00097479
0.000983807
0.000992144
0.000908504
0.000917454
0.000926428
0.000935376
0.000944223
0.000952868
0.000961181
0.000968996
0.000976107
0.000982265
0.000909305
0.000917574
0.000925693
0.000933583
0.000941139
0.000948232
0.000954706
0.000960376
0.000965027
0.000968413
0.000909359
0.000916562
0.000923375
0.000929689
0.000935376
0.000940288
0.000944254
0.000947082
0.000948553
0.000948431
0.00090742
0.000912968
0.000917806
0.000921801
0.000924809
0.00092668
0.000927246
0.000926318
0.000923687
0.000919136
0.000901585
0.00090463
0.000906553
0.000907216
0.000906495
0.000904273
0.000900406
0.000894724
0.000887049
0.000877201
0.000889063
0.000888465
0.000886266
0.00088238
0.000876772
0.000869379
0.000860104
0.000848836
0.000835462
0.000819868
0.000865868
0.000860222
0.000852563
0.000842952
0.000831455
0.000818061
0.000802825
0.000785797
0.00076694
0.000746213
0.000827408
0.000815464
0.000801343
0.000785241
0.000767417
0.000748079
0.000727502
0.000705927
0.000683409
0.000659928
0.000769311
0.000750531
0.00072997
0.00070807
0.000685454
0.000662657
0.000639984
0.00061772
0.000595867
0.000576641
0.000691457
0.000667714
0.000643705
0.000620149
0.000597915
0.000577904
0.000560085
0.000544162
0.000532923
0.000525925
0.000602633
0.000579613
0.000558953
0.000541583
0.000528904
0.000522093
0.000519581
0.000519829
0.000523215
0.000528879
0.000523169
0.000509708
0.00050176
0.000500576
0.000506914
0.000519037
0.000534099
0.000547848
0.000559291
0.000568649
0.000480756
0.000484619
0.00049625
0.00051554
0.000538528
0.000559614
0.000575651
0.000586842
0.000595508
0.000602427
0.000487301
0.000509276
0.000535751
0.000560625
0.000580269
0.000594629
0.000605217
0.000613228
0.000619603
0.000624463
0.000524743
0.000552634
0.000575009
0.000590969
0.000603292
0.000613097
0.000620541
0.000625598
0.00062838
0.000629025
0.000552979
0.000571684
0.000586398
0.000597853
0.000606649
0.000613094
0.000616744
0.000617671
0.000616395
0.000613324
0.000556016
0.000569262
0.000578722
0.000586499
0.000592676
0.000596207
0.000596214
0.00059374
0.000589846
0.000585103
0.000546253
0.000555966
0.00056275
0.000570091
0.000574559
0.000574082
0.000569964
0.000564798
0.000559834
0.000555392
0.000538349
0.000551212
0.000559774
0.000567457
0.000565282
0.000557131
0.000548044
0.000540665
0.00053579
0.000533021
0.000545836
0.000575396
0.000589887
0.000585348
0.000567037
0.000549088
0.000535017
0.000526036
0.000522025
0.000521569
0.000568925
0.000620828
0.000642665
0.000609643
0.000575109
0.000548272
0.000530038
0.000520303
0.000517786
0.000519815
0.000594846
0.000662151
0.000681336
0.000627684
0.000582984
0.000550183
0.000529572
0.00052039
0.000520066
0.00052451
0.00061781
0.000688991
0.00069964
0.000637316
0.00058724
0.000551568
0.000530845
0.000523721
0.000526146
0.000532614
0.000651594
0.000719599
0.00070868
0.000639446
0.000586864
0.000551167
0.000532582
0.000528816
0.000534107
0.000541851
0.000704406
0.00074842
0.000695294
0.000631895
0.000581918
0.000549001
0.000534416
0.000534776
0.000542512
0.000550633
0.000738057
0.000756947
0.000685585
0.000622615
0.000574603
0.000545625
0.000536238
0.000540889
0.000550231
0.000557949
0.000749781
0.000751005
0.000673403
0.000610669
0.000565713
0.00054191
0.000538319
0.000546688
0.000556503
0.000563354
0.000760499
0.000728026
0.000655826
0.000596956
0.000556376
0.000538438
0.000540578
0.000551603
0.000560849
0.000566874
0.000767062
0.000704561
0.00063931
0.000583749
0.000547236
0.000535252
0.00054266
0.000555079
0.000563096
0.000568836
0.00076765
0.000698409
0.0006293
0.000572623
0.000538833
0.000532494
0.00054418
0.000556601
0.000563372
0.000569953
0.00078957
0.000701265
0.000622575
0.000562792
0.000531246
0.000529973
0.00054427
0.000555521
0.000561994
0.000571041
0.000806129
0.000700249
0.000614509
0.000552997
0.000523783
0.000526421
0.000541404
0.00055132
0.000559538
0.000573066
0.000792025
0.000691862
0.000605386
0.000542727
0.000514759
0.000519645
0.00053406
0.000543947
0.00055659
0.000576421
0.000799932
0.000688098
0.000595258
0.000529391
0.000501408
0.000507533
0.000521479
0.000533884
0.000553667
0.000581061
0.000799471
0.000679685
0.000581499
0.000511873
0.00048257
0.000489171
0.000503781
0.000521937
0.000551402
0.000587444
0.000786051
0.000663948
0.000562755
0.000489161
0.00045715
0.000464043
0.000481453
0.000508826
0.000550369
0.000596704
0.000766185
0.000643595
0.000540286
0.000461536
0.000424802
0.000432205
0.000455072
0.000494686
0.000550194
0.000608511
0.000741837
0.000621072
0.000515492
0.00042957
0.00038562
0.000394155
0.000425144
0.000478941
0.0005496
0.000621776
0.000714143
0.000597319
0.000488493
0.000393608
0.000340122
0.000350987
0.000392309
0.000460473
0.000546389
0.000635074
0.000688998
0.000573291
0.000459533
0.000354591
0.000289699
0.000304824
0.000357984
0.00043831
0.000536937
0.000642694
0.000670352
0.000550025
0.000429049
0.000313432
0.000236347
0.000258956
0.000325092
0.000413674
0.000519228
0.000636383
0.000652958
0.000524871
0.00039539
0.00026974
0.000182259
0.000217113
0.000297261
0.000390752
0.000496826
0.000616101
0.000631932
0.000494381
0.000356226
0.000222696
0.000130353
0.000181962
0.000276539
0.000374926
0.000479869
0.000595281
0.000604121
0.000456298
0.00031015
0.000172579
8.47495e-05
0.000153279
0.00026084
0.000365846
0.000470756
0.00058122
0.000565229
0.000408534
0.000256403
0.000121566
4.98926e-05
0.000127897
0.000246456
0.000362033
0.000470682
0.00057785
0.000512394
0.000350405
0.000195616
7.47863e-05
2.82527e-05
0.000101346
0.000228183
0.000361179
0.000481906
0.00059082
0.000449711
0.000280578
0.000130705
3.93264e-05
1.86366e-05
7.1589e-05
0.000198088
0.000356279
0.00050549
0.000630105
0.000373143
0.000198194
7.13355e-05
2.0016e-05
1.67081e-05
4.25946e-05
0.000147224
0.000328828
0.000532261
0.000711743
0.000270502
0.000110342
3.12693e-05
1.4658e-05
1.70316e-05
2.35727e-05
7.78205e-05
0.000243654
0.000509689
0.000833221
0.000144043
4.27073e-05
1.55046e-05
1.51961e-05
1.72478e-05
1.79621e-05
2.55466e-05
9.35735e-05
0.00030384
0.000723882
1.04361e-05
1.05124e-05
1.05886e-05
1.06624e-05
1.0731e-05
1.0791e-05
1.08383e-05
1.08684e-05
1.08759e-05
1.08549e-05
1.07991e-05
1.07016e-05
1.05565e-05
1.03612e-05
1.01219e-05
9.86308e-06
9.63339e-06
9.46969e-06
9.37127e-06
9.34067e-06
9.37864e-06
9.4236e-06
9.44599e-06
9.44492e-06
9.41935e-06
9.36038e-06
9.25984e-06
9.11236e-06
8.91393e-06
8.66022e-06
8.34625e-06
7.96844e-06
7.52934e-06
7.04269e-06
6.52585e-06
5.97534e-06
5.40295e-06
4.79828e-06
1.9818e-05
4.49998e-06
8.87354e-05
8.98928e-05
9.10725e-05
9.22482e-05
9.3387e-05
9.44508e-05
9.53976e-05
9.61823e-05
9.67572e-05
9.70723e-05
9.70764e-05
9.67205e-05
9.59674e-05
9.48118e-05
9.3316e-05
9.1653e-05
8.99966e-05
8.86351e-05
8.80924e-05
8.82394e-05
8.82283e-05
8.79781e-05
8.74471e-05
8.66555e-05
8.55476e-05
8.40418e-05
8.20879e-05
7.9674e-05
7.6787e-05
7.33994e-05
6.94733e-05
6.49823e-05
5.99674e-05
5.45678e-05
4.89406e-05
4.30916e-05
3.67488e-05
2.95215e-05
2.07083e-05
7.7314e-06
0.000177286
0.000178908
0.000180503
0.000182029
0.000183431
0.000184651
0.000185627
0.000186296
0.0001866
0.000186479
0.000185881
0.000184757
0.000183072
0.000180818
0.000178051
0.000174953
0.000171877
0.000169086
0.000166524
0.000164217
0.000161992
0.000159549
0.000156698
0.000153402
0.000149538
0.000145
0.000139784
0.000133905
0.000127375
0.000120198
0.000112361
0.000103856
9.47026e-05
8.50277e-05
7.50106e-05
6.46892e-05
5.38306e-05
4.2029e-05
2.85214e-05
1.29963e-05
0.000248556
0.000249914
0.000251188
0.000252331
0.000253287
0.000253992
0.00025438
0.000254391
0.00025397
0.000253072
0.000251661
0.000249712
0.000247219
0.000244197
0.0002407
0.000236837
0.000232783
0.000228634
0.000224457
0.000220219
0.000215804
0.000211103
0.000205954
0.000200233
0.00019378
0.000186553
0.000178557
0.000169823
0.000160392
0.000150305
0.000139594
0.000128293
0.000116449
0.000104102
9.13289e-05
7.8107e-05
6.43618e-05
4.98923e-05
3.42201e-05
1.78603e-05
0.000304129
0.000305036
0.000305839
0.000306491
0.000306936
0.000307108
0.000306945
0.000306391
0.000305399
0.000303934
0.000301978
0.000299526
0.000296594
0.000293218
0.000289448
0.000285324
0.000280891
0.000276118
0.000271066
0.000265673
0.000259863
0.000253511
0.000246541
0.000238846
0.000230342
0.000220992
0.000210793
0.000199778
0.000188005
0.000175534
0.00016241
0.000148685
0.00013443
0.000119686
0.000104408
8.84668e-05
7.16935e-05
5.37287e-05
3.40414e-05
1.99891e-05
0.000348682
0.000349307
0.000349841
0.000350237
0.000350434
0.000350365
0.000349965
0.000349181
0.00034797
0.000346305
0.000344175
0.000341587
0.000338561
0.000335133
0.000331338
0.000327194
0.000322671
0.000317727
0.000312261
0.000306159
0.000299373
0.000291862
0.000283576
0.000274458
0.000264458
0.000253535
0.000241669
0.000228885
0.000215241
0.000200783
0.000185521
0.00016947
0.000152662
0.000135127
0.000116824
9.76978e-05
7.75826e-05
5.60441e-05
3.17865e-05
4.67463e-06
0.00038641
0.000387058
0.000387642
0.000388108
0.000388382
0.000388389
0.000388063
0.000387348
0.000386204
0.000384608
0.000382554
0.000380049
0.000377116
0.000373779
0.000370052
0.000365915
0.000361302
0.00035612
0.000350263
0.00034365
0.000336219
0.000327941
0.000318792
0.000308738
0.000297743
0.000285761
0.000272754
0.000258718
0.000243676
0.000227636
0.000210551
0.000192388
0.000173119
0.00015274
0.000131267
0.000108674
8.48353e-05
5.94755e-05
3.22683e-05
2.01832e-05
0.000420411
0.000421371
0.00042229
0.000423091
0.000423677
0.000423963
0.000423881
0.000423376
0.000422412
0.000420968
0.000419038
0.000416635
0.000413779
0.000410491
0.000406772
0.000402579
0.000397821
0.000392392
0.000386189
0.000379143
0.000371205
0.000362363
0.000352614
0.000341943
0.000330312
0.00031767
0.000303965
0.000289146
0.000273155
0.000255908
0.000237336
0.000217375
0.000195929
0.000172953
0.000148451
0.000122448
9.49018e-05
6.56823e-05
3.45753e-05
4.95282e-06
0.000452691
0.000454163
0.000455596
0.000456869
0.000457845
0.000458445
0.000458611
0.000458298
0.000457472
0.000456115
0.000454226
0.000451821
0.00044893
0.000445584
0.000441783
0.000437467
0.000432527
0.000426847
0.000420324
0.000412889
0.000404512
0.000395204
0.000384994
0.000373884
0.000361827
0.000348754
0.000334582
0.00031922
0.000302554
0.000284455
0.000264802
0.000243445
0.000220248
0.000195096
0.000167912
0.000138673
0.000107341
7.37981e-05
3.80844e-05
5.52232e-06
0.000484329
0.000486398
0.00048839
0.000490098
0.000491379
0.000492193
0.000492502
0.000492268
0.000491462
0.00049007
0.000488093
0.000485556
0.000482505
0.00047899
0.000475014
0.000470496
0.000465308
0.000459336
0.000452485
0.000444688
0.000435918
0.000426207
0.000415611
0.000404147
0.000391755
0.000378344
0.000363816
0.000348058
0.000330926
0.00031226
0.000291859
0.000269519
0.000245018
0.000218175
0.000188816
0.000156769
0.000121829
8.37582e-05
4.27829e-05
6.11535e-06
0.000515779
0.000518407
0.000520794
0.000522728
0.000524139
0.000525012
0.000525314
0.000525013
0.000524087
0.000522529
0.000520349
0.000517579
0.000514274
0.000510491
0.000506225
0.000501358
0.00049578
0.000489419
0.000482195
0.000474045
0.000464939
0.000454899
0.000443977
0.000432185
0.000419447
0.000405682
0.000390805
0.000374718
0.000357259
0.000338222
0.00031734
0.000294327
0.000268894
0.000240745
0.000209575
0.000175014
0.000136623
9.40032e-05
4.75885e-05
6.66926e-06
0.000546965
0.000549902
0.000552427
0.00055441
0.000555794
0.000556557
0.000556678
0.000556141
0.000554939
0.000553078
0.000550589
0.000547519
0.000543918
0.000539798
0.000535076
0.00052965
0.0005235
0.000516595
0.000508869
0.000500287
0.000490846
0.00048054
0.000469341
0.000457182
0.00044402
0.00042983
0.00041456
0.000398123
0.000380358
0.000361027
0.000339835
0.000316419
0.000290394
0.000261319
0.000228706
0.00019199
0.000150424
0.000103453
5.17871e-05
7.17401e-06
0.000577442
0.000580437
0.000582903
0.000584749
0.000585924
0.000586405
0.00058618
0.000585249
0.000583626
0.000581336
0.000578425
0.000574936
0.00057089
0.000566256
0.00056095
0.000554903
0.000548096
0.000540495
0.000532076
0.000522869
0.000512899
0.000502142
0.000490519
0.00047795
0.000464384
0.000449788
0.000434129
0.000417267
0.000399032
0.000379242
0.000357683
0.000334026
0.000307801
0.000278398
0.000245122
0.000207078
0.000163209
0.000112649
5.60645e-05
7.64731e-06
0.000606781
0.00060963
0.000611847
0.000613368
0.000614152
0.000614181
0.000613454
0.000611986
0.000609802
0.000606944
0.000603461
0.000599393
0.000594741
0.000589456
0.000583453
0.000576663
0.000569057
0.000560606
0.000551353
0.000541359
0.000530653
0.000519227
0.000507011
0.000493907
0.000479807
0.00046463
0.000448319
0.000430772
0.000411864
0.00039148
0.000369504
0.00034568
0.000319541
0.000290434
0.00025741
0.000219353
0.000174809
0.000122237
6.15952e-05
8.07264e-06
0.000634623
0.000637144
0.000638942
0.000639968
0.000640196
0.000639616
0.000638239
0.000636087
0.000633199
0.000629621
0.000625402
0.000620582
0.000615157
0.00060907
0.000602214
0.000594516
0.000585973
0.000576593
0.000566426
0.000555521
0.000543909
0.000531587
0.000518493
0.000504517
0.000489535
0.000473484
0.000456305
0.000437909
0.000418225
0.000397194
0.000374671
0.000350461
0.000324197
0.000295274
0.000262835
0.000225575
0.00018179
0.000129274
6.68137e-05
8.3887e-06
0.000660702
0.000662733
0.000663957
0.000664342
0.00066387
0.000662546
0.000660385
0.000657422
0.000653696
0.000649255
0.000644142
0.000638382
0.000631962
0.000624827
0.000616905
0.000608176
0.000598626
0.00058825
0.00057707
0.000565122
0.000552429
0.000538985
0.00052474
0.0005096
0.00049348
0.000476337
0.000458127
0.000438783
0.000418247
0.000396461
0.000373315
0.000348665
0.000322221
0.000293445
0.000261485
0.000225058
0.000182219
0.000130568
6.80348e-05
8.56716e-06
0.000684817
0.000686215
0.00068673
0.000686343
0.000685048
0.000682856
0.000679792
0.000675891
0.000671195
0.000665747
0.000659579
0.000652708
0.000645126
0.000636799
0.000627694
0.000617793
0.000607083
0.000595556
0.000583217
0.000570078
0.000556149
0.00054142
0.000525857
0.000509407
0.000492021
0.000473676
0.000454348
0.000434
0.000412599
0.0003901
0.000366432
0.000341469
0.000314951
0.000286394
0.000255014
0.000219594
0.000178129
0.000127642
6.64135e-05
8.70238e-06
0.000706795
0.000707436
0.000707124
0.000705851
0.000703619
0.000700447
0.000696363
0.000691405
0.00068561
0.000679019
0.000671661
0.000663552
0.000654695
0.000645076
0.00063468
0.000623495
0.000611508
0.000598706
0.000585082
0.000570631
0.000555354
0.000539247
0.000522295
0.000504481
0.000485791
0.000466222
0.000445777
0.000424453
0.000402241
0.000379122
0.000355048
0.000329915
0.000303517
0.000275486
0.000245243
0.00021187
0.000173723
0.00012726
6.86542e-05
8.96759e-06
0.000726489
0.000726268
0.000725029
0.000722772
0.000719507
0.000715256
0.000710051
0.000703927
0.000696926
0.000689084
0.000680434
0.000670997
0.000660788
0.000649808
0.000638055
0.000625524
0.000612202
0.00059807
0.000583107
0.000567299
0.000550642
0.000533146
0.000514822
0.000495682
0.000475746
0.000455035
0.000433574
0.000411384
0.000388475
0.000364839
0.000340433
0.000315157
0.000288825
0.000261127
0.000231596
0.000199495
0.000163509
0.000120878
6.64878e-05
8.98743e-06
0.000743797
0.000742632
0.000740387
0.000737068
0.000732691
0.000727282
0.000720873
0.000713505
0.000705218
0.000696053
0.000686047
0.000675233
0.000663636
0.000651272
0.000638153
0.000624279
0.000609643
0.000594221
0.00057797
0.00056086
0.000542894
0.000524104
0.000504534
0.000484231
0.000463238
0.000441599
0.000419355
0.000396538
0.000373163
0.000349221
0.00032466
0.00029937
0.00027316
0.000245724
0.000216604
0.000185155
0.000150312
0.000110235
6.2115e-05
8.64939e-06
0.000758708
0.000756532
0.000753218
0.000748777
0.00074323
0.000736605
0.000728941
0.000720278
0.000710661
0.000700139
0.000688756
0.000676556
0.00066358
0.000649862
0.000635428
0.000620294
0.000604461
0.000587903
0.000570543
0.000552312
0.000533229
0.000513371
0.000492829
0.00047168
0.000449985
0.000427797
0.00040516
0.000382109
0.000358652
0.000334764
0.000310389
0.000285421
0.000259694
0.000232922
0.000204629
0.000174169
0.000140532
0.000101967
5.64775e-05
8.57896e-06
0.000771302
0.000768066
0.000763638
0.000758034
0.000751281
0.000743411
0.000734466
0.000724492
0.000713539
0.000701662
0.000688918
0.000675365
0.000661062
0.000646064
0.000630424
0.000614179
0.00059735
0.00057992
0.00056177
0.000542758
0.000522925
0.000502414
0.000481355
0.00045985
0.00043796
0.000415733
0.000393212
0.000370414
0.000347321
0.000323886
0.000300044
0.000275705
0.000250741
0.000224902
0.000197716
0.000168545
0.00013646
9.99262e-05
5.65853e-05
8.85796e-06
0.000781742
0.000777422
0.00077186
0.000765081
0.000757114
0.000748001
0.000737784
0.000726518
0.00071426
0.000701074
0.000687026
0.000672192
0.00065665
0.000640487
0.000623793
0.000606642
0.000589075
0.000571122
0.00055271
0.00053355
0.000513562
0.000492968
0.000471969
0.000450674
0.000429132
0.000407389
0.000385475
0.000363365
0.000340995
0.000318289
0.00029517
0.000271546
0.000247292
0.000222175
0.000195757
0.000167451
0.000136402
0.000101146
5.892e-05
9.35495e-06
0.000790281
0.000784887
0.000778209
0.000770278
0.000761133
0.000750818
0.000739386
0.000726899
0.000713422
0.000699031
0.000683807
0.000667841
0.000651238
0.000634122
0.000616634
0.000598896
0.000580967
0.000562882
0.000544543
0.000525722
0.000506283
0.000486299
0.000465994
0.00044549
0.00042481
0.000404007
0.000383069
0.000361904
0.000340431
0.000318567
0.000296221
0.000273266
0.00024952
0.000224697
0.000198389
0.000170095
0.000139131
0.000104205
6.23106e-05
1.00233e-05
0.000797273
0.000790861
0.000783132
0.000774127
0.000763892
0.00075248
0.000739957
0.000726391
0.000711864
0.000696463
0.000680287
0.000663449
0.000646079
0.000628334
0.000610395
0.000592428
0.000574491
0.000556564
0.000538525
0.000520256
0.000501694
0.000482871
0.000463891
0.00044473
0.000425368
0.000405849
0.000386068
0.00036593
0.000345408
0.000324434
0.000302901
0.000280629
0.000257315
0.000232539
0.000205897
0.000176932
0.000144991
0.000109019
6.63308e-05
1.08957e-05
0.000803167
0.000795851
0.000787201
0.000777268
0.00076611
0.000753793
0.000740396
0.000726004
0.000710714
0.000694633
0.000677882
0.000660592
0.000642916
0.000625026
0.000607106
0.000589325
0.000571755
0.000554335
0.000536911
0.000519424
0.000501882
0.000484334
0.000466773
0.000449074
0.000431184
0.000413033
0.000394416
0.000375317
0.000355769
0.000335712
0.000315009
0.000293419
0.000270537
0.000245816
0.000218671
0.000188519
0.000154743
0.000116511
7.16542e-05
1.2037e-05
0.000808499
0.000800457
0.000791088
0.000780456
0.000768636
0.000755711
0.000741777
0.000726941
0.000711323
0.000695051
0.000678267
0.000661121
0.000643772
0.000626383
0.000609106
0.000592061
0.000575275
0.000558676
0.0005422
0.000525823
0.000509509
0.000493203
0.000476824
0.000460278
0.000443506
0.000426387
0.00040879
0.000390685
0.000372072
0.000352893
0.000332993
0.000312067
0.000289607
0.000264881
0.00023704
0.000205201
0.000168625
0.000126749
7.8195e-05
1.34936e-05
0.000813852
0.000805326
0.000795515
0.000784497
0.000772367
0.00075923
0.000745206
0.000730428
0.000715039
0.000699191
0.000683043
0.000666751
0.000650465
0.000634317
0.000618401
0.000602758
0.000587363
0.000572147
0.000557042
0.00054198
0.000526884
0.000511666
0.000496251
0.000480565
0.000464536
0.00044809
0.000431159
0.000413719
0.000395764
0.000377256
0.000358043
0.000337771
0.000315782
0.000291058
0.000262271
0.000227984
0.000187117
0.000139448
8.51221e-05
1.52897e-05
0.000819791
0.000811092
0.000801174
0.000790146
0.000778125
0.000765241
0.000751641
0.00073748
0.000722927
0.000708149
0.000693311
0.000678561
0.000664023
0.000649782
0.000635867
0.000622251
0.000608857
0.000595578
0.000582304
0.000568919
0.000555302
0.000541344
0.000526967
0.00051211
0.000496713
0.000480724
0.000464114
0.00044689
0.000429103
0.000410799
0.000391924
0.000372178
0.000350816
0.000326444
0.000296935
0.000259739
0.000212823
0.000156105
9.24926e-05
1.74494e-05
0.000826805
0.000818283
0.000808642
0.000798007
0.000786537
0.000774384
0.000761716
0.000748712
0.000735552
0.000722411
0.000709445
0.000696784
0.000684513
0.000672667
0.000661224
0.000650103
0.000639186
0.000628329
0.00061738
0.000606181
0.000594579
0.000582438
0.00056964
0.000556083
0.00054167
0.000526317
0.00050998
0.000492685
0.000474554
0.000455787
0.000436592
0.000416976
0.000396356
0.000373032
0.00034378
0.000304088
0.000249849
0.000180184
0.000101693
1.9911e-05
0.000835246
0.000827261
0.000818278
0.000808439
0.000797929
0.000786929
0.000775624
0.000764202
0.000752847
0.000741729
0.000730985
0.000720714
0.000710966
0.000701732
0.000692953
0.000684525
0.000676308
0.000668149
0.000659881
0.000651329
0.000642319
0.000632679
0.000622237
0.000610806
0.000598189
0.000584193
0.000568678
0.000551599
0.000533062
0.000513373
0.000493104
0.000472956
0.000453069
0.000431562
0.000403953
0.000363336
0.000302083
0.000216275
0.000115283
2.24326e-05
0.000845291
0.00083818
0.000830197
0.000821499
0.000812271
0.000802729
0.000793063
0.000783462
0.000774102
0.000765136
0.000756677
0.000748794
0.0007415
0.000734758
0.000728493
0.000722602
0.000716966
0.000711453
0.000705918
0.000700194
0.000694095
0.000687421
0.000679943
0.000671366
0.00066135
0.000649552
0.000635677
0.000619555
0.000601208
0.000580909
0.000559345
0.000537861
0.000518477
0.000500782
0.000476812
0.000436393
0.000369529
0.000267154
0.000136587
2.471e-05
0.000856928
0.000850968
0.000844247
0.00083692
0.000829173
0.000821233
0.000813289
0.00080552
0.000798088
0.000791125
0.000784717
0.000778908
0.000773689
0.000769008
0.000764787
0.000760951
0.000757435
0.000754181
0.000751104
0.000748063
0.00074487
0.000741303
0.000737054
0.000731671
0.000724634
0.00071543
0.000703607
0.000689028
0.00067157
0.000651255
0.000628669
0.000605286
0.000584489