/*--------------------------------*- C++ -*----------------------------------*\
  =========                 |
  \\      /  F ield         | OpenFOAM: The Open Source CFD Toolbox
   \\    /   O peration     | Website:  https://openfoam.org
    \\  /    A nd           | Version:  8
     \\/     M anipulation  |
\*---------------------------------------------------------------------------*/
FoamFile
{
    version     2.0;
    format      ascii;
    class       volScalarField;
    location    "3.2";
    object      p;
}
// * * * * * * * * * * * * * * * * * * * * * * * * * * * * * * * * * * * * * //

dimensions      [1 -1 -2 0 0 0 0];

internalField   nonuniform List<scalar> 
9150
(
397.307
370.29
344.802
327.595
319.276
319.253
327.533
344.713
370.19
397.213
368.442
348.869
333.228
321.414
315.425
315.41
321.37
333.163
348.791
368.361
339.158
325.57
317.045
309.276
305.164
305.152
309.242
316.994
325.507
339.088
314.452
304.401
298.954
293.579
290.606
290.596
293.551
298.912
304.349
314.39
293.169
284.204
279.648
275.466
273.015
273.007
275.441
279.61
284.156
293.112
30.7871
26.9095
51.8517
65.8953
72.3634
72.1273
65.2093
50.807
25.4931
28.9761
200.576
176.563
171.134
169.833
169.873
169.739
169.45
170.549
175.827
199.842
304.819
273.651
257.77
247.855
243.161
243.081
247.631
257.44
273.268
304.463
385.364
343.358
315.631
298.266
289.744
289.694
298.13
315.437
343.145
385.179
436.481
383.553
344.946
322.891
312.732
312.699
322.8
344.82
383.421
436.373
-38.6062
-17.3871
-27.87
-21.3651
-25.0682
-27.0818
-22.7834
-32.4661
-23.5886
-65.769
-36.5862
-25.4075
-44.483
-40.1139
-44.1165
-45.8499
-41.5566
-52.3527
-33.4952
-54.0218
-82.8595
-55.0774
-86.9457
-81.4475
-79.0434
-79.8752
-82.9555
-93.0081
-61.1868
-93.4748
-263.556
-140.695
-124.601
-106.786
-91.2127
-91.7148
-108.753
-128.75
-144.286
-271.34
-412.276
-173.107
-77.6052
-47.8403
-32.4025
-32.7743
-49.0802
-79.6025
-175.517
-417.499
1815.79
1815.55
1815.32
1815.11
1814.9
1814.71
1814.53
1814.37
1814.22
1814.08
1796.1
1795.85
1795.61
1795.38
1795.17
1794.97
1794.77
1794.59
1794.41
1794.25
1776.48
1776.21
1775.95
1775.7
1775.46
1775.24
1775.02
1774.81
1774.61
1774.41
1756.81
1756.52
1756.24
1755.98
1755.72
1755.48
1755.24
1755.01
1754.79
1754.57
1737.11
1736.81
1736.52
1736.23
1735.96
1735.7
1735.44
1735.19
1734.95
1734.72
1717.38
1717.06
1716.76
1716.46
1716.17
1715.88
1715.61
1715.34
1715.08
1714.83
1697.62
1697.29
1696.96
1696.65
1696.34
1696.04
1695.74
1695.45
1695.16
1694.88
1677.83
1677.49
1677.15
1676.82
1676.49
1676.16
1675.84
1675.51
1675.18
1674.84
1658.02
1657.66
1657.31
1656.96
1656.62
1656.27
1655.91
1655.55
1655.16
1654.73
1638.18
1637.82
1637.46
1637.11
1636.76
1636.42
1636.08
1635.74
1635.38
1635.04
1618.33
1617.96
1617.59
1617.24
1616.89
1616.56
1616.26
1616.11
1615.84
1615.79
1598.42
1598.03
1597.64
1597.24
1596.87
1596.56
1596.16
1596.62
1597.11
1597.5
1578.49
1578.08
1577.66
1577.24
1576.85
1576.81
1577.3
1577.68
1577.95
1577.85
1558.54
1558.14
1557.73
1557.4
1557.47
1558.01
1558.2
1558.29
1557.83
1557.67
1538.57
1538.25
1537.99
1538.03
1538.57
1538.88
1538.7
1538.15
1537.93
1537.37
1518.49
1518.33
1518.56
1518.8
1518.84
1518.38
1518.39
1517.94
1517.42
1516.96
1499.34
1499.47
1499.42
1499.23
1498.99
1498.54
1497.9
1497.39
1496.91
1496.43
1480.52
1480.42
1479.87
1479.3
1478.56
1477.86
1477.27
1476.73
1476.22
1475.73
1460.65
1462.76
1459.17
1457.97
1457.36
1456.83
1456.31
1455.81
1455.33
1454.86
1438.06
1437.65
1436.92
1436.42
1436.05
1435.63
1435.19
1434.74
1434.29
1433.84
1416.79
1416.36
1415.87
1415.41
1414.97
1414.53
1414.08
1413.63
1413.17
1412.72
1395.68
1395.21
1394.74
1394.27
1393.8
1393.33
1392.87
1392.41
1391.96
1391.51
1374.54
1374.03
1373.53
1373.03
1372.54
1372.05
1371.58
1371.11
1370.64
1370.19
1353.31
1352.77
1352.23
1351.7
1351.19
1350.68
1350.18
1349.69
1349.22
1348.75
1332.01
1331.43
1330.85
1330.29
1329.73
1329.2
1328.67
1328.16
1327.66
1327.18
1310.63
1310
1309.38
1308.77
1308.18
1307.6
1307.04
1306.5
1305.97
1305.46
1289.18
1288.5
1287.83
1287.17
1286.53
1285.9
1285.29
1284.7
1284.13
1283.58
1267.69
1266.95
1266.21
1265.5
1264.79
1264.1
1263.44
1262.79
1262.16
1261.56
1246.17
1245.36
1244.56
1243.77
1242.99
1242.23
1241.5
1240.78
1240.08
1239.41
1224.66
1223.77
1222.89
1222.02
1221.17
1220.32
1219.5
1218.7
1217.93
1217.18
1203.2
1202.23
1201.26
1200.3
1199.35
1198.42
1197.5
1196.61
1195.75
1194.92
1181.85
1180.79
1179.72
1178.66
1177.6
1176.56
1175.53
1174.54
1173.57
1172.65
1160.65
1159.49
1158.32
1157.14
1155.97
1154.8
1153.65
1152.52
1151.43
1150.4
1139.68
1138.41
1137.13
1135.82
1134.5
1133.19
1131.88
1130.59
1129.35
1128.16
1119
1117.62
1116.2
1114.75
1113.27
1111.77
1110.27
1108.78
1107.33
1105.94
1098.66
1097.17
1095.62
1094.01
1092.34
1090.63
1088.89
1087.13
1085.41
1083.66
1078.76
1077.15
1075.47
1073.69
1071.82
1069.84
1067.74
1065.54
1063.25
1060.87
1059.34
1057.65
1055.84
1053.9
1051.81
1049.52
1046.95
1044.15
1041.9
1044.03
1040.51
1038.79
1036.96
1034.98
1032.83
1030.44
1027.94
1026.36
1028.14
1035.97
1022.26
1020.56
1018.74
1016.77
1014.6
1012.25
1010.27
1010.02
1012.92
1015.56
1004.52
1002.83
1000.97
998.885
996.471
993.794
991.627
991.981
996.065
996.849
987.496
985.96
984.28
982.425
980.365
978.209
976.227
976.913
978.183
978.826
971.009
969.657
968.17
966.521
964.625
962.37
961.419
960.852
961.155
961.308
955.066
953.969
952.769
951.433
949.706
947.165
946.93
945.811
945.357
944.807
939.596
938.834
938.035
937.203
935.986
933.418
932.655
931.331
930.51
928.425
924.453
924.055
923.665
923.333
922.703
920.125
918.688
917.134
915.3
913.895
909.48
909.463
909.486
909.625
909.736
908.401
906.107
904.371
901.629
899.754
894.535
894.915
895.345
895.878
896.607
897.202
895.926
893.426
890.119
887.347
879.465
880.24
881.05
881.929
882.968
884.26
885.379
884.765
883.293
881.069
864.362
865.476
866.553
867.679
868.905
870.309
871.952
873.591
875.04
873.566
849.98
851.173
852.216
853.288
854.432
855.644
856.946
858.394
859.951
861.02
836.31
836.379
837.552
838.802
839.888
840.923
841.909
842.805
843.554
844.134
821.69
822.315
823.177
824.272
825.666
826.773
827.698
828.48
829.075
829.43
807.387
808.237
809.271
810.613
811.793
813.206
814.238
815.071
815.709
816.105
793.557
794.495
795.658
797.035
798.551
800.447
801.67
802.667
803.432
803.923
779.245
780.584
784.112
783.84
785.109
788.139
790.187
791.55
792.519
793.131
766.469
768.981
770.339
771.569
781.175
774.667
778.589
781.466
783.024
783.872
753.214
756.334
758.742
759.324
768.608
770.036
770.18
774.321
776.568
777.324
741.638
746.08
750.118
752.727
753.443
770.776
758.917
767.208
771.226
772.35
730.168
735.631
740.526
743.879
742.917
756.407
752.346
763.428
772.238
775.164
720.199
727.692
734.83
741.912
749.464
750.614
769.855
765.897
776.043
789.008
708.359
718.636
731.215
747.749
758.927
767.904
772.381
775.778
780.307
784.066
692.578
712.709
728.998
747.453
755.615
757.909
757.43
758.743
759.387
757.301
678.137
700.737
714.804
722.138
722.099
723.293
725.761
730.425
731.897
728.357
648.436
658.195
662.394
673.611
684.35
688.504
693.18
698.802
701.858
700.687
574.361
591.675
601.902
617.048
634.675
651.1
661.699
667.188
667.666
662.916
488.561
504.364
532.58
561.535
586.602
605.595
617.378
622.009
620.126
612.223
401.026
410.429
447.19
496.303
531.403
551.446
561.99
564.698
560.268
549.398
308.703
312.633
377.474
428.932
476.183
497.32
502.41
500.909
493.667
480.472
288.485
311.894
346.646
368.771
422.753
445.954
443.981
437.165
427.254
412.616
292.973
302.296
311.458
327.277
370.96
392.235
387.031
377.487
366.196
351.312
290.857
292.471
294.456
305.373
332.927
343.817
336.711
326.389
314.499
299.875
281.716
286.144
286.2
294.556
306.135
305.017
296.084
285.161
272.558
257.854
281.278
286.483
283.683
285.059
284.819
276.561
265.415
253.131
239.344
223.623
275.73
282.297
278.088
270.406
263.634
253.467
241.666
228.847
214.862
199.453
263.326
267.733
268.834
259.15
247.445
235.63
223.311
210.268
196.475
181.836
256.459
253.989
254.08
245.362
232.505
220.028
207.518
194.748
181.786
168.689
253.323
251.168
240.618
228.092
216.542
204.728
192.316
179.647
166.947
154.74
246.193
243.538
226.233
212.943
202.254
190.787
178.32
165.214
151.277
136.608
222.711
224.181
213.849
201.665
190.573
179.149
167.158
154.859
142.237
130.906
212.487
212.085
201.501
189.914
179.163
168.072
156.533
144.586
132.078
121.489
205.114
196.626
185.797
176.937
167.843
157.819
147.248
136.183
124.658
116.104
197.938
186.352
175.174
166.825
158.332
149.084
139.435
129.455
119.458
112.947
179.204
174.635
165.461
157.234
149.136
140.589
131.703
122.57
113.657
107.774
166.714
162.771
154.886
147.433
139.981
132.11
123.826
115.162
106.501
100.103
155.99
150.851
143.948
137.612
131.016
123.935
116.412
108.53
100.928
96.2118
147.922
140.886
134.165
128.478
122.556
116.196
109.432
102.441
96.2606
93.8051
141.442
132.443
125.246
119.613
114.154
108.554
102.779
97.1705
93.2062
93.1842
133.458
123.84
115.603
109.18
103.649
98.5277
93.862
90.6785
91.0813
94.155
119.082
111.363
102.21
94.6769
88.5868
83.1095
78.2367
75.1791
74.3181
67.7049
96.5628
90.7897
82.3814
75.3277
69.5352
63.9789
58.5218
53.7818
47.5302
28.4673
60.3399
60.1779
56.4417
52.5363
48.7138
44.3127
39.2153
33.6924
25.8054
9.89947
11.1489
24.4327
30.0419
31.176
29.9769
27.1902
22.8827
17.3991
10.0255
0.989343
13.8734
17.0636
18.5559
18.6906
17.4073
15.1203
11.366
6.63497
1.00228
-2.59111
1.1538
4.14846
7.89476
8.53995
7.84737
6.36564
3.32431
-0.416886
-4.43241
-4.36779
-4.68662
-4.95843
0.3602
0.471347
0.221327
-0.441215
-2.82641
-5.71046
-8.57401
-5.85279
-8.96421
-10.4023
-4.6399
-5.36544
-5.75338
-6.16946
-8.58867
-10.8991
-14.0429
-8.3054
-12.4167
-10.7643
-7.41583
-8.2586
-9.62283
-10.6091
-13.535
-14.975
-20.8792
-13.8869
-12.5287
-4.1263
-8.37957
-9.84576
-12.8194
-14.2225
-15.399
-12.9945
-16.9579
-25.4895
-11.1148
-2.16917
-15.0311
-14.058
-17.6455
-19.1201
-16.6762
-12.2191
-1.23472
-40.6869
1813.94
1813.81
1813.69
1813.57
1813.46
1813.35
1813.23
1813.1
1812.97
1812.81
1812.64
1812.46
1812.29
1812.13
1812.01
1811.94
1811.95
1812.01
1812.1
1812.2
1812.31
1812.43
1812.57
1812.69
1812.8
1812.86
1812.89
1812.87
1812.79
1812.67
1812.5
1812.31
1812.11
1811.91
1811.74
1811.59
1811.47
1811.38
1811.31
1811.33
1794.08
1793.91
1793.75
1793.59
1793.43
1793.28
1793.12
1792.96
1792.8
1792.63
1792.46
1792.3
1792.15
1792.04
1791.98
1791.99
1792.05
1792.14
1792.21
1792.28
1792.34
1792.4
1792.47
1792.52
1792.57
1792.6
1792.59
1792.56
1792.49
1792.4
1792.28
1792.15
1792.02
1791.91
1791.81
1791.74
1791.68
1791.63
1791.59
1791.58
1774.22
1774.01
1773.82
1773.63
1773.44
1773.25
1773.07
1772.9
1772.72
1772.56
1772.4
1772.25
1772.12
1772.01
1771.89
1771.86
1771.9
1772.14
1772.15
1772.17
1772.31
1772.41
1772.42
1772.56
1772.47
1772.48
1772.46
1772.44
1772.39
1772.34
1772.27
1772.18
1772.09
1772
1771.95
1771.96
1771.97
1771.95
1771.87
1771.77
1754.36
1754.13
1753.92
1753.71
1753.52
1753.33
1753.15
1752.98
1752.83
1752.69
1752.56
1752.46
1752.39
1752.34
1752.3
1753.93
1754.78
1754.39
1754.23
1754.04
1753.11
1752.94
1753.33
1752.71
1752.65
1752.6
1752.56
1752.53
1752.5
1752.49
1752.46
1752.44
1752.46
1753.35
1753.18
1752.29
1752.22
1752.18
1752.03
1751.89
1734.49
1734.25
1734.03
1733.82
1733.63
1733.45
1733.29
1733.14
1733.02
1732.93
1732.86
1732.84
1732.88
1732.99
1733.43
1735.82
1735.88
1735.64
1735.47
1735.31
1735.18
1734.98
1733.39
1733.11
1732.92
1732.78
1732.69
1732.64
1732.63
1732.66
1732.71
1732.77
1732.89
1733.54
1733.44
1733.16
1732.86
1732.54
1732.44
1732.26
1714.58
1714.33
1714.1
1713.9
1713.71
1713.54
1713.4
1713.27
1713.17
1713.1
1713.08
1713.12
1713.24
1713.48
1713.89
1714.55
1714.83
1715.2
1716.18
1716.03
1714.6
1714.12
1713.68
1713.31
1713.05
1712.87
1712.69
1712.59
1712.6
1712.71
1712.86
1712.99
1713.13
1713.27
1713.2
1713.13
1713.26
1713.55
1713.42
1713.09
1694.59
1694.31
1694.08
1693.89
1693.73
1693.58
1693.44
1693.32
1693.22
1693.14
1693.1
1693.11
1693.18
1693.33
1693.57
1693.84
1694.06
1694.13
1694.02
1694.04
1693.89
1693.66
1693.42
1693.2
1693.01
1692.82
1692.7
1693.07
1693.12
1692.73
1692.9
1693.03
1693.15
1693.24
1693.33
1693.38
1693.3
1693.19
1692.91
1692.79
1674.48
1674.15
1673.94
1673.79
1673.67
1673.55
1673.42
1673.29
1673.18
1673.07
1672.99
1672.94
1672.95
1673.02
1673.17
1673.33
1673.46
1673.51
1673.5
1673.46
1673.36
1673.24
1673.12
1673.04
1672.99
1672.94
1673.19
1673.68
1673.53
1673.21
1672.86
1672.93
1672.97
1672.97
1673.02
1673.08
1673.11
1673.03
1672.8
1672.4
1654.24
1653.77
1653.6
1653.61
1653.59
1653.52
1653.39
1653.25
1653.09
1652.92
1652.75
1652.6
1652.5
1652.51
1652.65
1652.82
1652.97
1653.05
1653.06
1652.97
1652.86
1652.73
1652.69
1652.75
1652.87
1652.99
1653.28
1653.78
1653.72
1653.57
1653.42
1653.22
1653.13
1653.05
1653.02
1652.93
1652.78
1652.74
1652.54
1652.16
1634.52
1636.47
1637.15
1633.66
1633.71
1633.61
1633.46
1633.27
1633.03
1632.75
1632.42
1632.04
1631.74
1631.71
1631.95
1632.29
1632.54
1632.66
1632.67
1632.55
1632.27
1632
1631.94
1632.25
1632.68
1633.06
1633.46
1633.35
1633.5
1633.74
1633.69
1633.59
1633.39
1633.27
1633.2
1633.14
1632.59
1632.48
1632.21
1631.82
1617.38
1618.1
1616.38
1614.8
1614.41
1614.1
1613.8
1613.49
1613.14
1612.71
1612.15
1611.46
1611.28
1611.22
1611.24
1612.01
1612.47
1612.61
1612.62
1612.39
1611.95
1612.4
1613.12
1612.25
1612.64
1613.07
1613.3
1613.54
1613.58
1613.47
1613.35
1613.16
1613.14
1612.56
1612.31
1612.27
1612.2
1612.36
1611.86
1611.67
1597.84
1596.63
1595.92
1595.36
1594.91
1594.54
1594.22
1593.92
1593.63
1593.27
1592.8
1593.16
1595.07
1595.12
1593.62
1593.5
1593.41
1593.39
1593.5
1593.45
1593.82
1596.13
1595.84
1595
1593.86
1593.38
1593.09
1593.14
1593.33
1593.62
1593.59
1593.12
1592.48
1591.99
1591.72
1591.81
1591.82
1591.82
1591.61
1591.61
1577.07
1576.71
1576.12
1575.65
1575.24
1574.91
1574.64
1574.44
1574.31
1574.21
1574.39
1576.34
1576.36
1576.23
1575.92
1575.82
1575.38
1573.69
1574.44
1574.77
1575.85
1577.81
1577.64
1577.41
1577.32
1577.47
1577.96
1577.41
1574.68
1574.5
1574.19
1572.72
1572.78
1572.5
1572.22
1571.37
1571.22
1571.27
1571.56
1571.5
1557.21
1556.63
1556.15
1555.73
1555.37
1555.08
1554.87
1554.75
1554.75
1554.87
1555.1
1557.43
1557.81
1557.75
1557.75
1557.79
1557.78
1555.38
1555.38
1555.75
1556.3
1557.02
1558
1558.73
1559.12
1558.97
1557.84
1556.73
1555.76
1556.03
1554.89
1556.63
1557.18
1556.65
1555.36
1554.29
1553.64
1552.34
1551.77
1552.08
1536.89
1536.42
1535.98
1535.59
1535.26
1535.01
1534.85
1534.8
1534.88
1535.17
1535.75
1536.64
1536.95
1538.65
1539.1
1538.1
1536.13
1535.42
1535.35
1535.58
1536.03
1536.7
1537.29
1537.16
1539.4
1537.13
1537.37
1536.99
1536.67
1536.56
1536.09
1536.3
1536.13
1535.54
1535.4
1535.11
1534.45
1533.8
1532.91
1533.54
1516.49
1516.03
1515.6
1515.21
1514.88
1514.61
1514.42
1514.3
1514.26
1514.33
1514.55
1514.86
1515.12
1514.97
1514.53
1514.45
1514.05
1514.16
1514.33
1514.6
1515
1515.44
1515.91
1516.18
1516.29
1516.4
1516.55
1516.63
1516.64
1516.6
1516.53
1516.58
1516.73
1516.79
1516.2
1514.11
1516.14
1515.15
1513.77
1514.59
1495.95
1495.48
1495.04
1494.64
1494.28
1493.98
1493.72
1493.51
1493.35
1493.25
1493.21
1493.2
1493.16
1493.02
1492.89
1492.76
1492.76
1492.89
1493.12
1493.44
1493.88
1494.35
1494.76
1495.15
1495.5
1495.81
1496.09
1496.31
1496.46
1496.56
1496.63
1496.69
1496.74
1496.74
1496.65
1496.4
1495.7
1497.11
1492.81
1495.33
1475.25
1474.76
1474.31
1473.89
1473.5
1473.14
1472.82
1472.52
1472.24
1472
1471.8
1471.61
1471.43
1471.25
1471.09
1471.01
1471.04
1471.2
1471.5
1471.93
1472.46
1473.07
1473.62
1474.1
1474.59
1475.06
1475.48
1475.83
1476.11
1476.31
1476.43
1476.47
1476.41
1476.24
1475.91
1475.29
1473.67
1476.84
1475.09
1476.74
1454.38
1453.89
1453.43
1452.98
1452.55
1452.14
1451.74
1451.37
1450.97
1450.61
1450.26
1449.92
1449.6
1449.29
1449.04
1448.88
1448.85
1449.02
1449.41
1449.98
1450.67
1451.4
1452.2
1452.79
1453.47
1454.11
1454.69
1455.19
1455.61
1455.92
1456.11
1456.18
1456.1
1455.96
1455.82
1455.26
1453.96
1458.09
1456.42
1456.26
1433.37
1432.89
1432.41
1431.94
1431.48
1431.02
1430.55
1430.08
1429.61
1429.13
1428.63
1428.13
1427.62
1427.13
1426.67
1426.29
1426.07
1426.17
1426.69
1427.52
1428.47
1429.41
1430.33
1431.22
1432.08
1432.89
1433.63
1434.3
1434.85
1435.29
1435.59
1435.71
1435.65
1435.67
1435.37
1435.42
1434.59
1437.11
1435.41
1434.97
1412.26
1411.77
1411.29
1410.8
1410.31
1409.81
1409.3
1408.76
1408.2
1407.61
1406.97
1406.29
1405.56
1404.78
1403.96
1403.11
1402.35
1402.13
1402.96
1404.4
1405.79
1407.01
1408.13
1409.21
1410.25
1411.24
1412.17
1413
1413.74
1414.35
1414.83
1415.14
1415.25
1415.9
1415.62
1415.24
1415.23
1414.73
1413.95
1413.31
1391.04
1390.55
1390.06
1389.57
1389.06
1388.54
1388
1387.43
1386.81
1386.13
1385.38
1384.54
1383.57
1382.45
1381.16
1379.66
1378.25
1379.15
1380.31
1380.39
1382.83
1384.34
1385.56
1386.74
1387.92
1389.06
1390.15
1391.15
1392.05
1392.84
1393.51
1394.06
1394.3
1394.82
1394.68
1394.21
1393.49
1393.45
1392.56
1391.7
1369.71
1369.23
1368.74
1368.24
1367.74
1367.23
1366.69
1366.12
1365.5
1364.83
1364.07
1363.22
1362.24
1361.03
1359.62
1358.81
1359.34
1362.87
1362.74
1359.37
1361.07
1362.22
1362.98
1363.94
1365.13
1366.36
1367.53
1368.64
1369.59
1370.47
1371.25
1372.03
1372.73
1372.92
1372.93
1372.67
1371.91
1370.46
1369.47
1369.04
1348.27
1347.78
1347.29
1346.81
1346.32
1345.83
1345.32
1344.79
1344.24
1343.63
1342.97
1342.23
1341.36
1340.28
1339.24
1342.13
1342.2
1342.26
1341.64
1340.49
1339.4
1338.23
1338.8
1340.16
1341.48
1342.92
1344.23
1345.19
1346.2
1347.1
1347.97
1349.03
1349.74
1350.73
1350.78
1350.4
1349.55
1348.27
1346.85
1345.64
1326.69
1326.19
1325.7
1325.22
1324.75
1324.29
1323.84
1323.39
1322.95
1322.51
1322.08
1321.67
1321.31
1321.03
1321.41
1324.93
1324.36
1324.07
1323.68
1323.3
1322.71
1321.92
1321.78
1322.37
1320.64
1319.82
1319.95
1320.85
1321.8
1322.83
1324.02
1325.58
1326.55
1327.05
1327.93
1327.85
1326.64
1325.2
1323.63
1322.19
1304.94
1304.42
1303.92
1303.44
1302.98
1302.53
1302.11
1301.72
1301.36
1301.05
1300.8
1300.64
1300.63
1300.89
1301.42
1303.3
1305.49
1305.81
1305.24
1302.77
1304.08
1302.37
1301.97
1302.11
1300.86
1296.83
1295.05
1295.18
1295.76
1296.74
1298.04
1299.8
1301.29
1302.45
1303.2
1303.37
1302.83
1301.52
1299.53
1297.47
1283.02
1282.47
1281.94
1281.43
1280.95
1280.5
1280.07
1279.68
1279.34
1279.05
1278.84
1278.72
1278.73
1278.95
1279.54
1280.57
1280.67
1284.21
1284.87
1280.22
1280.59
1278.88
1275.46
1280.43
1273.29
1268.36
1267.23
1266.88
1267.1
1267.81
1269.09
1270.85
1272.86
1274.84
1276.78
1278.08
1278.31
1276.97
1274.25
1271.19
1260.95
1260.34
1259.76
1259.21
1258.69
1258.19
1257.73
1257.29
1256.89
1256.53
1256.23
1255.97
1255.75
1255.61
1255.55
1255.48
1255.13
1254.52
1253.76
1252.79
1251.55
1249.77
1247.44
1244.82
1242.03
1239.54
1237.73
1236.46
1235.72
1235.57
1236.15
1237.54
1239.8
1242.83
1246.32
1249.54
1251.47
1251.08
1247.85
1243.45
1238.74
1238.07
1237.43
1236.82
1236.25
1235.7
1235.18
1234.68
1234.24
1233.84
1233.37
1232.96
1232.55
1232.11
1231.63
1231.02
1230.19
1229.09
1227.78
1226.21
1224.24
1221.83
1219.02
1215.96
1212.79
1209.67
1206.76
1204.13
1201.89
1200.24
1199.46
1199.88
1201.83
1205.49
1210.55
1216.06
1220.89
1223.3
1220.98
1216
1216.43
1215.69
1215
1214.34
1213.72
1213.13
1212.57
1212.04
1211.6
1211.11
1210.58
1210.02
1209.45
1208.82
1208.07
1207.15
1206.01
1204.58
1202.85
1200.77
1198.28
1195.35
1191.99
1188.26
1184.22
1179.96
1175.54
1171.07
1166.72
1162.72
1159.3
1156.77
1156.12
1159.17
1166.67
1175.61
1184.21
1190.92
1191.9
1186.99
1194.08
1193.27
1192.52
1191.82
1191.17
1190.57
1190.01
1189.49
1189.03
1188.52
1187.98
1187.41
1186.77
1186.03
1185.14
1184.05
1182.71
1181.06
1179.05
1176.64
1173.78
1170.42
1166.54
1162.1
1157.09
1151.53
1145.44
1138.82
1131.53
1123.16
1113.53
1103.29
1094.77
1093.27
1105.06
1123.66
1140.15
1152.76
1158.84
1156.08
1171.72
1170.84
1170.04
1169.32
1168.67
1168.1
1167.58
1167.12
1166.7
1166.31
1165.87
1165.37
1164.79
1164.03
1163.13
1161.98
1160.54
1158.77
1156.62
1154.01
1150.89
1147.23
1142.97
1138.02
1132.36
1126.04
1118.86
1110.26
1099.3
1086.39
1075.94
1071.28
1071.24
1072.65
1073.08
1081.98
1098.04
1114.08
1123.93
1127.3
1149.37
1148.41
1147.58
1146.88
1146.28
1145.78
1145.37
1145.05
1144.82
1144.59
1144.33
1144.07
1143.68
1143.03
1142.16
1141.02
1139.51
1137.61
1135.32
1132.56
1129.31
1125.69
1121.72
1117.13
1111.82
1105.48
1096.59
1085.16
1074.89
1069.28
1068.27
1068.51
1068.72
1069.01
1069.62
1071.49
1075.88
1084.66
1094.67
1102.73
1126.99
1125.95
1125.13
1124.5
1124.03
1123.67
1123.42
1123.3
1123.34
1123.47
1123.62
1123.68
1123.59
1123.21
1123.09
1121.25
1119.74
1117.81
1115.86
1113.79
1111.51
1109.55
1107.83
1103.85
1096.16
1086.45
1076.14
1069.54
1067.86
1067.62
1067.58
1067.67
1067.78
1067.86
1067.85
1067.91
1068.53
1068.78
1075.37
1084.85
1104.56
1103.42
1102.73
1102.29
1102.02
1101.89
1101.91
1102.46
1102.99
1103.06
1103.66
1104.25
1104.78
1105.1
1104.93
1104.89
1102.71
1102.35
1103
1102.76
1102.99
1104.27
1102.25
1097.31
1089.34
1078.15
1071.61
1068.74
1067.45
1067.25
1067.28
1067.33
1067.36
1067.34
1067.26
1067.21
1067.02
1063.09
1064.46
1073.8
1081.58
1079.92
1079.72
1080.28
1080.41
1080.55
1080.95
1081.69
1082.45
1083.38
1084.36
1085.67
1087.14
1088.82
1090.52
1091.3
1093.28
1099.16
1102.8
1105.78
1107.61
1106.64
1104.31
1098.37
1089.79
1079.83
1069.78
1067.1
1066.56
1066.59
1066.67
1066.74
1066.76
1066.88
1066.8
1066.93
1066.14
1059.26
1059.56
1066.96
1058.38
1059.4
1063.78
1057.83
1058.45
1059.08
1059.9
1061.06
1062.42
1063.8
1065.14
1067.14
1069.56
1072.56
1076.41
1080.21
1084.85
1092.94
1094.17
1093.39
1089.41
1086.28
1082.6
1082.55
1088.13
1085.73
1071.78
1065.95
1065.73
1065.82
1065.93
1066.01
1066.1
1066.16
1066.3
1066.4
1064.56
1055.24
1056.98
1064.64
1050.73
1055.31
1047.22
1039
1038.28
1038.92
1039.83
1040.88
1042.2
1043.79
1045.46
1047.69
1050.24
1053.24
1056.93
1060.87
1064.67
1073.94
1072.36
1066.49
1068.21
1067.33
1066.98
1068.8
1072.42
1074.92
1069.55
1065.19
1064.99
1065.11
1065.19
1065.24
1065.36
1065.41
1065.56
1065.04
1060.47
1051.29
1054.96
1062.13
1038.64
1025.68
1021.06
1018.41
1018.61
1019.41
1020.3
1021.35
1022.64
1024.19
1026.05
1028.23
1030.7
1033.48
1036.64
1041.43
1043.02
1043.91
1043.97
1045.51
1048.54
1051.56
1054.33
1057.35
1060.79
1063.68
1064.19
1064.32
1064.38
1064.46
1064.52
1064.6
1064.72
1064.87
1065.04
1063.56
1053.31
1045.46
1050.59
1056.53
1013.15
1009.75
1005.13
1002.83
1002.12
1002
1002.29
1002.96
1004
1005.39
1007.1
1009.13
1011.44
1013.97
1016.88
1019.97
1022.15
1024.48
1026.93
1029.92
1033.31
1036.81
1040.41
1044.25
1048.55
1053.64
1059.25
1063.69
1063.95
1064
1064.05
1064.15
1064.32
1064.43
1063.88
1059.17
1042.58
1038.63
1043.92
1047.93
995.658
992.797
988.818
986.67
985.493
984.906
984.824
985.202
985.996
987.17
988.695
990.565
992.701
995.099
997.707
1000.46
1003.28
1006.23
1009.36
1012.79
1016.51
1020.54
1024.92
1029.69
1035.09
1042.17
1052.13
1061.79
1063.51
1063.68
1063.75
1063.76
1063.58
1062.52
1058.18
1043.66
1031.65
1031.84
1035.17
1036.71
977.788
974.445
971.822
970.078
968.875
968.146
967.875
968.037
968.606
969.555
970.863
972.503
974.446
976.67
979.142
981.825
984.701
987.776
991.073
994.624
998.454
1002.62
1007.23
1012.38
1018.19
1025.31
1035.28
1048.67
1059.72
1061.94
1061.64
1060.81
1058.74
1051.13
1032.53
1019.64
1019.73
1021.54
1022.66
1021.91
961.083
958.199
955.863
954.172
952.914
952.062
951.616
951.569
951.908
952.617
953.678
955.074
956.784
958.786
961.052
963.555
966.273
969.191
972.296
975.576
979.03
982.729
986.803
991.36
996.415
1002.04
1008.61
1016.82
1026.86
1035.05
1038.52
1034.71
1025.38
1013.58
1001.62
1000.56
1004.72
1006.37
1006.37
1004.6
945.034
943.136
940.926
939.156
937.798
936.806
936.173
935.905
935.997
936.439
937.22
938.327
939.751
941.474
943.465
945.684
948.095
950.678
953.423
956.344
959.303
962.135
965.023
968.394
972.206
976.329
980.646
985.008
989.297
992.501
993.141
991.745
989.677
987.67
984.358
993.756
993.428
988.52
988.777
987.517
929.864
929.106
927.018
925.16
923.689
922.53
921.679
921.163
920.983
921.124
921.573
922.33
923.407
924.801
926.464
928.305
930.273
932.408
934.863
937.782
939.716
940.205
942.086
944.849
947.76
950.86
954.169
957.441
960.13
961.799
964.011
966.418
968.055
967.217
966.894
973.692
973.844
972.08
971.622
971
915.498
916.871
914.66
912.476
910.755
909.336
908.195
907.399
906.935
906.743
906.79
907.1
907.748
908.787
910.1
911.413
912.604
913.771
915.167
916.804
918.844
912.988
910.512
916.837
921.411
925.101
928.808
932.424
935.176
936.94
941.402
943.284
946.625
951.389
954.174
955.371
955.622
954.675
954.297
954.121
899.934
903.911
903.313
901.105
898.999
897.122
895.585
894.526
893.844
893.334
892.886
892.601
892.789
893.715
895.031
896.07
896.666
897.153
897.375
895.487
893.787
898.824
885.123
885.265
889.506
894.474
900.448
907.409
914.01
917.516
921.684
927.762
932.252
934.992
936.661
938.628
939.222
937.358
937.265
937.473
885.463
885.591
891.815
892.196
889.768
886.303
883.714
882.521
881.862
880.982
879.675
878.148
877.411
878.949
882.373
883.502
882.104
882.766
885.315
879.855
874.464
876.088
874.491
872.532
871.744
871.853
872.691
875.578
882.399
891.266
902.403
908.632
912.618
916.221
917.625
928.661
925.054
919.567
920.477
921.521
878.326
878.244
876.023
876.349
882.129
877.266
871.691
872.132
872.951
871.859
868.803
864.459
867.605
871.387
873.829
874.356
865.157
870.259
870.231
869.215
869.034
869.301
868.799
868.008
867.327
866.844
866.606
866.636
866.662
869.7
877.943
887.714
892.945
896.878
899.663
907.6
902.902
903.996
906.083
908.118
872.187
871.088
868.736
865.247
866.126
867.796
869.326
863.466
863.498
864.792
863.168
864.139
870.627
868.093
864.843
862.443
864.892
872.578
871.536
869.471
868.202
867.875
867.3
866.413
865.376
864.561
864.025
863.785
863.865
864.436
865.41
869.232
874.568
879.693
883.796
887.184
889.76
892.872
895.66
898.508
861.385
859.305
855.178
860.991
862.099
860.474
858.757
857.59
858.418
860.604
862.773
862.234
861.199
857.879
856.64
856.594
855.261
854.674
854.942
859.284
863.892
865.295
865.104
864.916
863.388
862.834
862.478
862.11
861.853
861.748
862.039
862.847
861.496
865.303
870.649
875.75
880.361
884.744
888.743
892.658
844.476
844.339
842.773
840.698
837.461
840.368
842.066
840.691
847.486
844.607
840.703
843.128
843.208
842.596
842.834
844.269
846.809
849.552
852.658
856.561
858.365
859.524
861.836
861.671
861.174
860.763
860.612
860.293
860.141
860.067
860.135
859.937
855.024
854.23
860.414
867.641
874.042
880.041
885.678
891.039
829.501
829.22
828.486
827.349
826.558
826.956
827.524
826.851
825.061
824.431
825.655
827.3
828.264
829.013
830.329
832.265
834.626
837.333
840.341
843.601
847.181
851.739
855.453
857.237
858.806
858.774
858.627
858.561
858.373
858.344
858.381
857.202
850.74
845.943
853.2
862.796
871.331
879.389
886.945
894.167
816.242
816.06
815.599
814.966
814.391
813.99
813.584
812.966
812.291
812.016
812.307
812.915
813.65
814.576
815.896
817.698
819.969
822.691
825.841
829.403
833.341
837.69
842.823
847.411
851.096
854.668
856.204
856.615
856.717
856.743
856.606
854.327
844.568
840.726
850.381
862.03
872.678
882.975
893.009
902.582
804.13
803.996
803.584
802.994
802.322
801.61
800.83
799.975
799.141
798.488
798.123
798.066
798.336
799
800.138
801.788
803.975
806.713
809.964
813.74
818.1
822.739
827.432
832.704
836.383
838.746
844.723
851.146
852.639
853.963
854.157
846.943
835.782
840.789
853.396
866.26
878.534
891.09
904.015
916.258
793.365
793.146
792.572
791.788
790.879
789.841
788.634
787.273
785.861
784.548
783.473
782.73
782.41
782.624
783.453
784.865
786.92
789.756
793.093
796.761
800.831
803.206
804.116
808.042
811.462
817.211
827.001
831.64
837.988
839.001
836.828
836.2
839.787
850.105
862.37
875.05
888.248
903.054
918.873
933.851
784.093
783.557
782.507
781.3
780.089
778.723
776.994
774.904
772.618
770.37
768.384
766.78
765.703
765.397
766.088
767.338
769.229
772.246
775.015
777.15
780.004
782.076
787.847
792.828
797.77
802.829
806.396
812.015
823.346
829.277
833.765
839.967
848.693
859.557
871.757
884.915
899.285
916.061
934.881
952.653
776.933
775.228
772.854
770.755
769.351
767.931
765.731
762.708
759.217
755.749
752.769
750.229
748.188
747.384
748.095
747.887
746.981
749.11
751.881
757.188
761.208
767.051
773.274
779.286
786.758
794.591
802.078
808.602
813.354
812.398
823.858
836.87
850.274
863.843
877.826
892.461
908.389
927.068
949.135
969.651
771.343
767.924
763.578
760.008
758.75
757.793
755.085
750.976
745.971
741.099
737.217
733.082
728.211
724.502
724.551
726.435
731.738
732.757
734.373
738.087
746.399
755.19
761.787
765.132
773.977
784.972
796.924
805.234
811.446
812.169
822.653
836.898
851.715
866.306
881.023
896.402
913.376
933.824
958.61
981.583
774.207
768.252
762.992
764.348
756.096
753.212
748.773
741.25
732.415
723.278
716.294
712.029
710.857
708.186
704.841
705.577
710.455
717.401
720.488
720.052
732.382
738.165
753.808
754.241
769.803
776.189
788.913
795.826
801.298
811.063
822.744
835.905
849.641
863.625
878.096
893.566
911.094
932.852
959.871
984.843
785.493
782.46
777.744
774.16
763.101
759.596
745.023
727.95
715.175
708.324
699.623
693.215
689.527
687.46
686.619
683.312
692.585
686.862
696.318
694.417
701.141
704.115
710.982
723.625
734.232
742.588
754.027
768.714
781.956
794.153
807.193
821.076
835.205
849.456
864.189
880.003
898.111
920.948
949.638
976.007
780.807
776.818
771.941
763.34
750.832
744.118
716.87
702.943
691.835
682.01
672.931
664.118
655.97
651.271
647.344
642.873
638.656
635.549
637.756
642.978
647.418
652.601
660.624
671.218
683.176
696.398
711.297
727.168
743.081
759.059
775.1
790.935
806.447
821.687
837.141
853.628
872.396
896.037
925.724
952.985
755.63
754.292
746.396
733.345
717.364
703.122
682.916
667.1
651.133
638.838
626.172
612.138
600.405
590.731
582.44
576.234
572.472
571.061
572.119
575.526
580.83
588.194
597.831
609.695
623.474
638.893
655.734
673.727
692.331
710.986
729.219
746.717
763.539
779.996
796.486
813.875
833.355
857.446
887.347
914.903
725.493
719.039
710.533
695.736
675.31
657.587
634.958
615.333
594.727
575.47
557.484
541.267
527.581
516.549
507.705
501.318
497.619
496.3
497.079
500.023
505.574
513.871
524.818
538.377
553.548
570.135
588.438
608.701
629.709
650.56
670.619
689.264
707.18