/*--------------------------------*- C++ -*----------------------------------*\
  =========                 |
  \\      /  F ield         | OpenFOAM: The Open Source CFD Toolbox
   \\    /   O peration     | Website:  https://openfoam.org
    \\  /    A nd           | Version:  8
     \\/     M anipulation  |
\*---------------------------------------------------------------------------*/
FoamFile
{
    version     2.0;
    format      ascii;
    class       volScalarField;
    location    "3.2";
    object      p_rgh;
}
// * * * * * * * * * * * * * * * * * * * * * * * * * * * * * * * * * * * * * //

dimensions      [1 -1 -2 0 0 0 0];

internalField   nonuniform List<scalar> 
9150
(
2565.32
2538.3
2512.81
2495.61
2487.29
2487.26
2495.54
2512.72
2538.2
2565.22
2556.07
2536.5
2520.86
2509.04
2503.05
2503.04
2509
2520.79
2536.42
2555.99
2546.41
2532.82
2524.29
2516.53
2512.41
2512.4
2516.49
2524.24
2532.76
2546.34
2541.32
2531.27
2525.82
2520.45
2517.48
2517.47
2520.42
2525.78
2531.22
2541.26
2539.66
2530.69
2526.14
2521.96
2519.51
2519.5
2521.93
2526.1
2530.65
2539.6
2100.99
2097.12
2122.06
2136.1
2142.57
2142.33
2135.42
2121.01
2095.7
2099.18
2290.36
2266.34
2260.92
2259.61
2259.65
2259.52
2259.23
2260.33
2265.61
2289.62
2414.19
2383.02
2367.14
2357.22
2352.53
2352.45
2357
2366.81
2382.64
2413.83
2514.33
2472.32
2444.59
2427.23
2418.71
2418.66
2427.09
2444.4
2472.11
2514.14
2585.04
2532.12
2493.51
2471.45
2461.29
2461.26
2471.36
2493.38
2531.98
2584.93
1933.2
1954.42
1943.94
1950.44
1946.74
1944.73
1949.03
1939.34
1948.22
1906.04
1954.84
1966.02
1946.95
1951.32
1947.31
1945.58
1949.87
1939.08
1957.93
1937.41
1928.19
1955.97
1924.1
1929.6
1932.01
1931.17
1928.09
1918.04
1949.86
1917.57
1767.11
1889.97
1906.07
1923.88
1939.46
1938.95
1921.92
1901.92
1886.38
1759.33
1638.01
1877.18
1972.68
2002.45
2017.89
2017.52
2001.21
1970.69
1874.77
1632.79
1825.6
1825.36
1825.13
1824.92
1824.71
1824.52
1824.34
1824.18
1824.03
1823.89
1825.53
1825.28
1825.04
1824.81
1824.6
1824.4
1824.2
1824.02
1823.84
1823.68
1825.53
1825.26
1825
1824.75
1824.51
1824.29
1824.07
1823.86
1823.66
1823.46
1825.48
1825.19
1824.91
1824.65
1824.39
1824.15
1823.91
1823.68
1823.46
1823.24
1825.4
1825.1
1824.81
1824.52
1824.25
1823.99
1823.73
1823.48
1823.24
1823.01
1825.29
1824.97
1824.66
1824.37
1824.08
1823.79
1823.52
1823.25
1822.99
1822.74
1825.15
1824.82
1824.49
1824.18
1823.87
1823.57
1823.27
1822.98
1822.69
1822.41
1824.98
1824.64
1824.3
1823.97
1823.64
1823.31
1822.99
1822.66
1822.33
1821.99
1824.79
1824.43
1824.08
1823.73
1823.39
1823.04
1822.68
1822.32
1821.93
1821.49
1824.57
1824.21
1823.85
1823.5
1823.15
1822.81
1822.47
1822.13
1821.77
1821.4
1824.34
1823.97
1823.6
1823.25
1822.9
1822.57
1822.27
1822.12
1819.5
1799.32
1824.05
1823.66
1823.27
1822.87
1822.5
1822.19
1817.81
1794.73
1793.12
1793.51
1823.74
1823.33
1822.91
1822.49
1821.67
1801.97
1790.34
1790.72
1790.99
1790.93
1823.41
1823
1822.59
1819.7
1793.14
1788.15
1788.31
1788.38
1795.16
1822.54
1823.06
1822.72
1816.51
1786.65
1785.86
1786.08
1785.93
1813.19
1822.42
1821.86
1822.55
1803.68
1783.09
1783.25
1783.23
1794.31
1822.5
1822.05
1821.53
1821.07
1789.95
1781.36
1781.15
1780.84
1809.04
1822.27
1821.63
1821.12
1820.64
1820.16
1779.8
1779.54
1778.85
1809.5
1821.91
1821.21
1820.62
1820.08
1819.57
1819.08
1790.12
1779.14
1794.94
1820.94
1820.33
1819.79
1819.28
1818.78
1818.29
1817.82
1815.84
1812.81
1817.06
1819.01
1818.64
1818.22
1817.78
1817.33
1816.87
1816.43
1818.98
1818.57
1818.08
1817.62
1817.18
1816.74
1816.28
1815.83
1815.38
1814.93
1817.51
1817.04
1816.57
1816.1
1815.63
1815.16
1814.7
1814.24
1813.79
1813.34
1815.99
1815.48
1814.98
1814.48
1813.99
1813.5
1813.03
1812.56
1812.09
1811.64
1814.38
1813.84
1813.3
1812.77
1812.26
1811.75
1811.25
1810.76
1810.29
1809.82
1812.7
1812.12
1811.54
1810.98
1810.42
1809.89
1809.36
1808.85
1808.35
1807.87
1810.94
1810.31
1809.69
1809.08
1808.49
1807.91
1807.35
1806.81
1806.28
1805.77
1809.12
1808.43
1807.76
1807.1
1806.46
1805.83
1805.22
1804.63
1804.06
1803.51
1807.24
1806.5
1805.76
1805.04
1804.34
1803.65
1802.99
1802.34
1801.71
1801.11
1805.34
1804.53
1803.73
1802.94
1802.16
1801.4
1800.67
1799.95
1799.25
1798.58
1803.45
1802.56
1801.68
1800.81
1799.96
1799.11
1798.29
1797.49
1796.72
1795.97
1801.61
1800.64
1799.67
1798.71
1797.76
1796.83
1795.91
1795.02
1794.15
1793.33
1799.87
1798.82
1797.75
1796.69
1795.63
1794.59
1793.56
1792.57
1791.6
1790.68
1798.3
1797.14
1795.97
1794.79
1793.62
1792.45
1791.3
1790.17
1789.08
1788.05
1796.95
1795.68
1794.4
1793.09
1791.77
1790.44
1789.14
1787.86
1786.62
1785.43
1795.89
1794.51
1793.09
1791.63
1790.14
1788.65
1787.14
1785.67
1784.22
1782.83
1795.17
1793.68
1792.13
1790.52
1788.84
1787.13
1785.39
1783.64
1781.92
1780.17
1794.89
1793.28
1791.59
1789.82
1787.94
1785.96
1783.87
1781.67
1779.38
1777
1795.09
1793.4
1791.59
1789.65
1787.56
1785.27
1782.69
1779.9
1744.14
1469.36
1795.88
1794.16
1792.32
1790.35
1788.2
1785.81
1783.29
1748.42
1409.69
1197.5
1797.25
1795.55
1793.73
1791.76
1789.59
1787.24
1777.09
1528.03
1175.31
1179.5
1799.13
1797.44
1795.58
1793.5
1791.08
1787.64
1693.03
1201.49
1162.3
1163.32
1801.73
1800.19
1798.51
1796.65
1794.6
1777.68
1505.79
1147.25
1148.51
1149.17
1804.86
1803.51
1802.02
1800.37
1798.47
1766.02
1276.64
1135.22
1135.58
1135.74
1808.54
1807.44
1806.24
1804.9
1803.18
1726.4
1176.68
1124.35
1123.89
1123.88
1812.69
1811.92
1811.12
1810.29
1809.08
1741.09
1181.61
1114.01
1113.15
1133.63
1817.16
1816.76
1816.37
1816.04
1815.41
1794.79
1224.7
1104.07
1102.09
1100.8
1821.81
1821.79
1821.82
1821.95
1822.07
1820.73
1445.31
1095.92
1092.67
1091.29
1826.49
1826.87
1827.29
1827.83
1828.56
1829.15
1803.89
1265.53
1085.81
1083.02
1831.03
1831.81
1832.62
1833.5
1834.54
1835.83
1836.95
1771.64
1292.76
1081.45
1835.55
1836.67
1837.74
1838.87
1840.1
1841.5
1843.14
1844.75
1790.56
1617.9
1825.71
1841.98
1843.03
1844.1
1845.24
1846.45
1847.76
1849.2
1850.73
1851.75
1682.15
1763.04
1847.95
1849.23
1850.32
1851.35
1852.34
1853.23
1853.98
1854.56
1683.66
1683.99
1723.46
1846.07
1855.71
1856.82
1857.75
1858.53
1859.12
1859.48
1685.48
1686.18
1687.07
1733.65
1852.16
1862.83
1863.9
1864.74
1865.38
1865.77
1740.56
1688.7
1688.64
1686.85
1836.86
1869.64
1870.95
1871.96
1872.72
1873.21
1867.69
1751.04
1689.56
1687.81
1828.56
1876.91
1879.09
1880.46
1881.43
1882.04
1875
1873.67
1860.94
1668.64
1557.19
1755.03
1886.98
1889.98
1891.55
1892.4
1881.36
1884.48
1886.88
1712.1
1547.5
1542.92
1779.44
1901.88
1904.67
1905.47
1889.41
1893.85
1897.89
1850.51
1617.07
1392.42
1649.64
1913.19
1918.78
1920.07
1897.56
1903.02
1907.92
1911.27
1834.73
1387.02
1512.63
1875.54
1938.31
1942.4
1907.21
1914.7
1921.84
1928.92
1936.46
1402.82
1025.71
1245.8
1615.98
1792.04
1914.99
1925.27
1937.85
1940.9
1311.26
987.076
991.485
995.397
1005.44
1022.34
1918.83
1936.28
1532.94
1007.22
986.995
980.599
1001.68
1159.98
1297.9
1475.85
1302.17
1096.89
1107.89
1113.74
1247.49
1352.07
1607.61
1822.41
1905.04
1878.28
1070.67
1067.98
1204.57
1720.01
1825.73
1872.89
1907.29
1923.87
1956.21
1966.16
1343.46
1778.24
1791.48
1770.56
1877.17
1929.49
1946.77
1952.28
1952.76
1948.01
1574.01
1734.72
1828.93
1863.62
1890.67
1910.13
1922.05
1926.72
1924.84
1916.94
1621.69
1650.98
1723.92
1804.42
1841.29
1871.08
1885.62
1888.97
1884.6
1873.73
1425.62
1088.88
903.738
1398.4
1751.51
1833.56
1845.46
1844.79
1837.61
1824.42
721.181
347.21
353.896
877.284
1677.34
1803.89
1807.01
1800.69
1790.82
1776.19
412.506
308.946
318.151
665.358
1622.24
1773.02
1769.91
1760.64
1749.39
1734.51
318.711
299.215
301.2
648.347
1646.82
1744.82
1739.27
1729.18
1717.32
1702.7
373.215
292.98
294.254
952.663
1703.03
1726.27
1718.37
1707.59
1695
1680.3
347.34
294.48
292.579
1279.19
1721.96
1718.01
1707.41
1695.19
1681.41
1665.69
290.445
291.477
344.697
1534.61
1722.8
1714.88
1703.32
1690.53
1676.55
1661.14
271.749
277.747
773.986
1682.37
1727.62
1716.82
1704.61
1691.58
1677.78
1663.14
264.464
262.397
1145.51
1740.61
1732.97
1720.91
1708.44
1695.68
1682.72
1669.62
261.354
258.997
1470.55
1746.57
1736.9
1725.26
1712.86
1700.2
1687.5
1675.29
254.407
541.143
1674.81
1752.28
1742.36
1730.95
1718.49
1705.38
1691.45
1676.78
231.719
940.868
1751.72
1761.11
1750.34
1738.94
1726.95
1714.65
1702.03
1690.7
219.299
1254.66
1778.81
1769.2
1758.56
1747.48
1735.94
1723.99
1711.49
1700.9
212.412
1493.57
1783.85
1775.92
1766.87
1756.85
1746.28
1735.21
1723.69
1715.14
465.088
1653.86
1793.4
1785.45
1776.98
1767.73
1758.08
1748.1
1738.11
1729.78
610.589
1735.08
1803.54
1795.5
1787.41
1778.86
1769.97
1760.84
1751.93
1704.69
735.563
1782.01
1812.69
1805.32
1797.87
1790
1781.72
1773.05
1764.39
1694.97
848.467
1811.02
1821.42
1815.12
1808.53
1801.45
1793.92
1786.04
1778.44
1678.04
955.236
1831.2
1831.28
1825.61
1819.69
1813.33
1806.56
1799.57
1793.39
1655.93
1055.35
1846.58
1841.99
1836.36
1830.9
1825.3
1819.53
1813.92
1809.96
1630.05
1131.65
1859.36
1851.97
1845.55
1840.02
1834.9
1830.23
1827.05
1827.45
1600.15
1168.66
1865.8
1858.19
1850.67
1844.58
1839.1
1834.23
1831.17
1830.31
1533.11
1166.48
1863.12
1857.97
1850.94
1845.14
1839.59
1834.13
1829.39
1823.14
1437.89
1129
1852.62
1851.66
1847.77
1843.94
1839.54
1834.45
1828.92
1821.04
1374.19
1104.08
1837.98
1844.88
1846.02
1844.83
1842.04
1837.73
1832.25
1824.88
1361.35
1158.41
1851.14
1853.02
1853.16
1851.88
1849.59
1845.84
1841.1
1835.04
1393.41
1211.87
1858.2
1861.98
1862.63
1861.94
1860.46
1857.41
1853.67
1849.67
1449.82
1300.92
1868.71
1874.07
1874.18
1873.93
1873.27
1870.88
1868
1865.21
1523.16
1401.74
1882.9
1888.69
1887.96
1887.58
1887.16
1884.74
1882.43
1879.29
1600.37
1515.16
1902.17
1905.53
1904.69
1903.33
1902.34
1899.41
1897.97
1892.08
1674.36
1659.28
1928.44
1924.19
1922.72
1919.75
1918.35
1917.17
1919.58
1915.61
1749.73
1821.56
1950.02
1937.16
1938.13
1934.54
1933.07
1935.51
1939.97
1950.96
1827.16
1823.75
1823.62
1823.5
1823.38
1823.27
1823.16
1823.04
1822.91
1822.78
1822.62
1822.45
1822.27
1822.1
1821.94
1821.82
1821.75
1821.76
1821.82
1821.91
1822.01
1822.12
1822.24
1822.38
1822.5
1822.61
1822.67
1822.7
1822.68
1822.6
1822.48
1822.31
1822.12
1821.92
1821.72
1821.55
1821.4
1821.28
1821.19
1821.12
1821.13
1823.51
1823.34
1823.18
1823.02
1822.86
1822.71
1822.55
1822.39
1822.23
1822.06
1821.89
1821.73
1821.58
1821.47
1821.41
1821.42
1821.48
1821.57
1821.64
1821.71
1821.77
1821.83
1821.9
1821.95
1822
1822.02
1822.02
1821.99
1821.92
1821.83
1821.71
1821.58
1821.45
1821.34
1821.24
1821.17
1821.11
1821.06
1821.01
1820.97
1823.27
1823.06
1822.87
1822.68
1822.49
1822.3
1822.12
1821.95
1821.77
1821.61
1821.45
1821.3
1821.17
1821.06
1820.92
1820.64
1820.31
1820.42
1820.52
1820.92
1821.31
1821.45
1821.36
1821.43
1821.48
1821.53
1821.51
1821.49
1821.44
1821.39
1821.32
1821.21
1821.05
1820.9
1820.88
1821.01
1821.02
1820.99
1820.87
1820.75
1823.03
1822.8
1822.59
1822.38
1822.19
1822
1821.82
1821.65
1821.49
1821.35
1821.23
1821.13
1821.06
1821
1820.47
1816.79
1816.38
1816
1815.84
1815.65
1818.63
1820.45
1820.35
1821.03
1821.32
1821.27
1821.22
1821.19
1821.17
1821.16
1821.13
1821.1
1820.45
1819.95
1819.78
1820.17
1820.53
1820.76
1820.54
1820.44
1822.78
1822.54
1822.32
1822.11
1821.92
1821.74
1821.57
1821.41
1821.29
1821.19
1821.14
1821.13
1821.17
1821.28
1818.57
1815.05
1815.08
1814.85
1814.68
1814.52
1814.4
1814.49
1820.15
1821.4
1821.21
1821.07
1820.98
1820.92
1820.92
1820.95
1821
1821.05
1820.35
1819.21
1819.07
1818.79
1818.48
1818.58
1818.07
1817.9
1822.49
1822.24
1822.01
1821.81
1821.62
1821.44
1821.28
1821.15
1821.05
1820.99
1820.99
1821.03
1821.15
1821.39
1821.8
1822.45
1821.64
1814
1813
1812.89
1817.21
1822.03
1821.59
1821.22
1820.95
1820.74
1820.58
1820.47
1820.47
1820.62
1820.76
1820.9
1821.04
1821.18
1820.41
1819.19
1818.24
1817.57
1817.36
1817.03
1822.12
1821.84
1821.61
1821.42
1821.26
1821.1
1820.94
1820.82
1820.72
1820.67
1820.63
1820.64
1820.71
1820.86
1821.1
1821.37
1821.59
1821.66
1821.55
1821.57
1821.42
1821.19
1820.95
1820.73
1820.54
1820.31
1819.04
1817.18
1816.88
1819.09
1820.42
1820.55
1820.67
1820.75
1820.85
1820.89
1820.82
1820.71
1819.88
1817.53
1821.62
1821.3
1821.08
1820.94
1820.82
1820.7
1820.57
1820.44
1820.32
1820.22
1820.14
1820.09
1820.1
1820.17
1820.32
1820.48
1820.6
1820.62
1820.62
1820.61
1820.51
1820.39
1820.27
1820.19
1820.14
1820
1815.73
1814.12
1813.97
1813.65
1815.95
1818.38
1819.39
1819.63
1819.94
1820.2
1820.23
1820.17
1819.95
1819.55
1820.68
1819.77
1819.39
1820.08
1820.36
1820.29
1820.16
1820.02
1819.86
1819.69
1819.52
1819.36
1819.27
1819.28
1819.42
1819.59
1819.73
1819.7
1819.7
1819.66
1819.63
1819.5
1819.46
1819.52
1819.64
1819.73
1815.98
1812.95
1812.89
1812.74
1812.6
1812.4
1812.51
1813.28
1814.19
1816.33
1818.6
1819.5
1819.3
1818.92
1817.78
1804.56
1804.97
1818.77
1820.1
1820
1819.85
1819.66
1819.42
1819.14
1818.8
1818.41
1818.11
1818.1
1818.34
1818.68
1818.93
1818.98
1818.91
1818.77
1818.57
1818.37
1818.3
1818.63
1819.06
1819.41
1819.8
1817.49
1812.88
1811.65
1811.6
1811.51
1811.35
1811.31
1811.28
1811.25
1816.54
1818.86
1818.57
1818.18
1796.43
1797.18
1802.33
1820.81
1820.42
1820.11
1819.81
1819.5
1819.14
1818.72
1818.15
1816.15
1809.39
1806.79
1813.86
1818.02
1818.47
1818.6
1818.6
1818.3
1815.35
1805.48
1800.35
1807.75
1817.26
1819.01
1819.15
1819.15
1819.09
1817.67
1815.43
1814.1
1814.67
1812.39
1810.4
1813.61
1816.9
1818.36
1817.25
1816.03
1793.88
1804.47
1821.55
1820.99
1820.54
1820.17
1819.85
1819.55
1819.25
1818.86
1817.27
1798.67
1778.1
1778.14
1781.84
1814.94
1816.64
1818.99
1818.95
1818.86
1802.2
1783.98
1783.69
1782.87
1788.39
1801.91
1805.93
1812.17
1815.14
1817.53
1817.5
1817.03
1816.18
1815.55
1815.78
1816.69
1817
1817.07
1815.97
1814.43
1813.07
1821.96
1821.37
1820.9
1820.49
1820.16
1819.89
1819.69
1819.55
1819.4
1803.76
1775.29
1775.3
1775.17
1774.83
1774.72
1785.14
1817.59
1819.45
1819.91
1799.22
1782
1781.85
1781.63
1781.56
1781.72
1782.22
1783.86
1804.36
1814.28
1815.93
1804.72
1795.8
1790.81
1789.25
1796.08
1804.56
1814.39
1815.4
1813.7
1822.08
1821.5
1821.02
1820.6
1820.24
1819.95
1819.74
1819.62
1819.61
1819.72
1815.6
1781.5
1772.67
1772.61
1772.62
1772.67
1773.24
1807.42
1820.25
1820.62
1821.17
1807.61
1784.19
1779.32
1779.71
1779.57
1788.27
1800.78
1806.85
1814.41
1805.59
1782.19
1777.05
1776.21
1774.8
1773.65
1772.97
1789.84
1813.84
1814.44
1821.38
1820.91
1820.47
1820.08
1819.75
1819.5
1819.28
1819.16
1819.29
1819.65
1820.24
1821.13
1804.45
1770.24
1769.88
1772.86
1812.16
1819.91
1819.84
1820.07
1820.52
1821.18
1821.75
1810.22
1792.25
1809.68
1821.86
1821.48
1821.16
1821.05
1813.7
1807.57
1800.57
1790.37
1775.02
1770.68
1770.01
1769.35
1811.23
1815.4
1820.6
1820.14
1819.71
1819.32
1818.99
1818.63
1818.24
1818.12
1818.12
1818.44
1818.66
1818.97
1819.23
1819.08
1811.23
1812.89
1818.16
1818.27
1818.44
1818.69
1818.75
1819.02
1819.89
1820.29
1820.4
1820.51
1820.66
1820.74
1820.75
1820.71
1820.64
1820.69
1820.84
1820.9
1817.18
1785.42
1767.96
1766.96
1806.41
1815.89
1819.68
1819.21
1818.77
1818.37
1817.98
1817.42
1817.14
1816.93
1816.78
1816.94
1816.94
1816.93
1816.89
1816.75
1816.62
1816.49
1816.49
1816.62
1816.85
1817.1
1816.51
1816.83
1817.24
1818.57
1819.23
1819.54
1819.82
1820.04
1820.19
1820.29
1820.36
1820.42
1820.47
1820.47
1820.38
1820.03
1771.03
1765.17
1789.22
1815.36
1818.6
1818.11
1817.66
1817.24
1816.84
1816.28
1815.84
1815.54
1815.35
1815.35
1815.15
1814.96
1814.78
1814.6
1814.44
1814.36
1814.39
1814.55
1814.85
1815.25
1814.95
1815.09
1815.66
1816.47
1817.94
1818.41
1818.83
1819.18
1819.46
1819.66
1819.78
1819.81
1819.76
1819.59
1819.25
1818.6
1790
1761.23
1760.19
1809.8
1817.35
1816.86
1816.4
1815.95
1815.52
1815.11
1814.59
1814.08
1813.92
1813.58
1813.23
1812.89
1812.57
1812.26
1812.01
1811.85
1811.82
1811.99
1812.38
1812.95
1813.63
1813.77
1814.04
1815.73
1816.44
1817.08
1817.66
1818.16
1818.58
1818.89
1819.08
1819.11
1819.01
1818.92
1818.75
1817.78
1787.83
1758.8
1757.53
1804.79
1815.96
1815.48
1815
1814.53
1814.07
1813.61
1813.14
1812.67
1812.2
1811.72
1811.22
1810.72
1810.21
1809.72
1809.26
1808.87
1808.65
1808.75
1809.27
1810.11
1811.06
1812
1812.92
1813.81
1814.67
1815.48
1816.22
1816.89
1817.44
1817.88
1818.18
1818.25
1816.62
1811.93
1809.39
1812.41
1791.6
1771.57
1776.65
1810.09
1814.47
1813.98
1813.5
1813.01
1812.52
1812.02
1811.51
1810.97
1810.41
1809.82
1809.18
1808.5
1807.77
1806.99
1806.17
1805.17
1804.15
1804.13
1805.12
1806.6
1808
1809.22
1810.34
1811.42
1812.46
1813.45
1814.38
1815.21
1815.95
1816.56
1817.04
1817.32
1812.8
1798.8
1798.46
1797.99
1812.55
1812.68
1811.9
1811.26
1812.87
1812.38
1811.89
1811.4
1810.89
1810.37
1809.83
1809.26
1808.64
1807.96
1807.21
1806.37
1805.4
1804.28
1802.96
1801.28
1784.27
1748.65
1749.46
1794.94
1804.66
1806.17
1807.38
1808.57
1809.75
1810.89
1811.98
1812.97
1813.87
1814.67
1815.33
1815.84
1812.07
1796.61
1796.08
1795.19
1805.89
1810.79
1809.92
1809.07
1811.16
1810.68
1810.19
1809.69
1809.19
1808.68
1808.14
1807.57
1806.95
1806.28
1805.52
1804.67
1803.67
1802.32
1799.67
1779.95
1686.21
1650.81
1650.42
1707.39
1801.53
1803.61
1804.35
1805.33
1806.55
1807.79
1808.78
1809.66
1810.95
1811.89
1812.46
1813.13
1813.4
1808.99
1796.29
1791.89
1790.8
1793.46
1796.02
1803.03
1809.34
1808.85
1808.36
1807.88
1807.39
1806.9
1806.39
1805.86
1805.31
1804.7
1804.04
1803.29
1802.38
1800.93
1773.49
1654.21
1642.71
1642.9
1641.9
1640.75
1650.18
1745.92
1755.94
1773.68
1794.92
1800.83
1803.58
1805.74
1807.16
1808.03
1805.68
1800.97
1800.39
1805.81
1805.12
1799.27
1786.61
1785.35
1783.94
1782.73
1807.38
1806.88
1806.39
1805.91
1805.44
1804.98
1804.53
1804.08
1803.64
1803.2
1802.77
1802.35
1801.92
1801.11
1745.5
1637.67
1637.4
1637.54
1637.1
1636.1
1636.52
1637.83
1639.97
1641.35
1696.07
1751.77
1800.14
1801.3
1802.34
1803.26
1797.11
1789.67
1790.64
1791.56
1800.31
1799.64
1795.2
1780.89
1779.32
1777.88
1805.25
1804.73
1804.23
1803.75
1803.29
1802.84
1802.42
1802.03
1801.67
1801.36
1801.11
1800.95
1800.94
1801.17
1801.36
1724.1
1630.64
1631.91
1629.65
1656.27
1728.48
1715.16
1635.95
1637.64
1640.1
1710.01
1795.31
1795.26
1795.75
1796.82
1795.69
1786.55
1784.31
1785.46
1786.34
1786.61
1782.45
1775.87
1773.82
1772.68
1802.95
1802.4
1801.87
1801.36
1800.88
1800.43
1800
1799.61
1799.27
1798.98
1798.77
1798.65
1798.66
1798.88
1799.47
1800.49
1787.38
1683.04
1676.26
1800.1
1800.51
1798.81
1751.18
1654.44
1703.94
1784.33
1787.13
1786.4
1786.54
1787.51
1788.82
1790.56
1790.79
1786.13
1782.27
1778.58
1773.74
1770.41
1767.05
1766.83
1800.5
1799.89
1799.31
1798.76
1798.24
1797.74
1797.27
1796.82
1796.43
1796.08
1795.77
1795.51
1795.3
1795.16
1795.1
1795.03
1794.68
1794.07
1793.31
1792.34
1791.1
1789.32
1786.99
1784.36
1781.58
1779.09
1777.27
1775.6
1774.77
1774.96
1775.53
1776.89
1779.07
1781.97
1785.27
1788.31
1787.57
1778.67
1759.41
1754.25
1797.91
1797.24
1796.6
1795.99
1795.42
1794.87
1794.35
1793.81
1792.57
1791.54
1792.11
1792.13
1791.72
1791.28
1790.8
1790.19
1789.35
1788.26
1786.95
1785.38
1783.41
1780.99
1778.19
1775.13
1771.95
1768.84
1765.92
1763.29
1761.05
1759.35
1758.45
1758.76
1760.58
1764.05
1768.91
1774.08
1778.5
1781.12
1770.9
1744.76
1795.22
1794.48
1793.79
1793.13
1792.51
1791.92
1791.36
1790.48
1787.8
1787.19
1786.69
1788.31
1788.24
1787.6
1786.86
1785.94
1784.79
1783.36
1781.64
1779.56
1777.07
1774.14
1770.78
1767.05
1763.01
1758.74
1754.32
1749.85
1745.41
1741.07
1737.08
1733.87
1732.78
1735.55
1743.02
1751.92
1761.62
1768.55
1769.62
1741.16
1792.49
1791.68
1790.93
1790.23
1789.58
1788.98
1788.41
1786.87
1784.63
1784.11
1783.59
1783.03
1784.48
1784.44
1783.55
1782.46
1781.11
1779.42
1777.42
1775.05
1772.19
1768.83
1764.95
1760.51
1755.49
1749.93
1743.81
1737.06
1728.85
1717.69
1688.46
1621.29
1551.74
1523.18
1597.07
1690.56
1736.91
1750.2
1756.27
1753.52
1789.76
1788.87
1788.07
1787.35
1786.7
1786.13
1785.61
1785.13
1783.26
1781.41
1781
1780.53
1779.96
1781.18
1781.15
1780
1778.57
1776.77
1774.53
1771.98
1768.92
1765.25
1760.98
1756.03
1750.35
1743.97
1736.44
1726.92
1692.69
1569.33
1378.1
1216.22
1138.99
1111.91
1160.89
1318.77
1602.24
1731.12
1740.95
1744.33
1787.02
1786.06
1785.23
1784.53
1783.93
1783.42
1783.01
1782.69
1782.44
1782.14
1780.1
1778.79
1778.29
1777.64
1778.99
1778.66
1777.15
1775.22
1772.81
1769.89
1766.78
1763.22
1759.18
1754.5
1748.98
1741.27
1705.24
1578.77
1373.38
1186.68
1092.19
1072.87
1073.07
1073.37
1073.99
1076.05
1206.87
1702.29
1731.28
1739.29
1784.26
1783.21
1782.39
1781.77
1781.3
1780.92
1780.38
1779.84
1779.58
1780.67
1780.85
1780.93
1780.79
1776.8
1769.76
1776.02
1776.91
1774.84
1772.6
1770.12
1763.24
1745.04
1727.38
1698.09
1643.83
1541.58
1371.92
1186.75
1084.64
1072.1
1072.06
1072.16
1072.27
1072.35
1072.36
1072.45
1079.44
1580.64
1731.56
1741.01
1781.45
1780.31
1779.61
1779.18
1778.9
1778.77
1777.76
1770.26
1769.13
1777.23
1780.53
1781.12
1781.6
1781.88
1770.73
1750.14
1750.55
1733.44
1680.59
1625.66
1534.23
1457.07
1426.91
1390.79
1321.21
1235.23
1113.09
1073.55
1072.06
1071.86
1071.89
1071.94
1071.99
1071.96
1071.91
1071.9
1071.74
1527.98
1740.37
1750.08
1778.09
1776.43
1776.23
1776.26
1776.71
1777
1772.36
1767.13
1767.9
1768.82
1778.34
1782.16
1783.61
1785.23
1785.62
1763.21
1600.42
1421.11
1358.95
1351.48
1353.32
1352.34
1356.02
1367.5
1413.05
1363.92
1189.71
1072.06
1071.29
1071.31
1071.42
1071.48
1071.51
1073.4
1071.65
1071.78
1071.07
1547.05
1755.53
1762.94
1729.5
1593.09
1594.24
1751.45
1774.58
1775.21
1775.42
1768.25
1767.17
1768.67
1778.43
1783.25
1785.64
1788.41
1791.35
1782.76
1520.09
1360.05
1359.33
1359.39
1444.08
1579.31
1660
1747.72
1804.21
1788.28
1459.86
1074.72
1070.63
1070.7
1070.83
1070.89
1072.64
1072.91
1071.34
1071.46
1114.09
1678.31
1772.62
1780.23
1306.16
1313.3
1400.03
1745.39
1772.42
1774.67
1775.58
1776.57
1774.3
1775.06
1781.21
1783.43
1785.86
1787.88
1788.36
1782.89
1654.71
1467.64
1457.34
1682.98
1799.63
1803.08
1802.73
1804.55
1808.16
1810.56
1522.97
1070.27
1070.06
1070.17
1070.24
1070.54
1072.26
1072.26
1070.78
1070.38
1309.61
1766.19
1790.33
1797.4
1206.84
1368.71
1719.15
1764.85
1772.08
1774.78
1775.67
1776.72
1778.01
1779.56
1781.42
1783.58
1785.65
1787.25
1783.9
1769.58
1783.15
1799.28
1799.34
1800.88
1803.91
1806.93
1809.7
1812.72
1816.11
1817.53
1484.46
1069.56
1069.59
1069.65
1069.72
1071.11
1071.53
1071.07
1070.54
1069.67
1563.41
1800.05
1805.72
1811.14
1212.24
1656.57
1780.1
1777.82
1777.09
1776.99
1777.28
1777.95
1778.99
1780.38
1782.08
1783.89
1785.74
1788.01
1785.44
1782.54
1797.14
1799.47
1801.92
1804.91
1808.3
1811.8
1815.4
1819.24
1823.5
1827.6
1513.5
1069.36
1069.32
1069.35
1069.39
1069.57
1069.86
1070.26
1070.15
1138.76
1738.01
1813.38
1818.69
1821.61
1301.18
1787.39
1783.43
1781.28
1780.1
1779.52
1779.43
1779.81
1780.61
1781.78
1783.25
1784.78
1786.95
1789.68
1792.28
1795.07
1797.89
1800.84
1803.97
1807.4
1811.12
1815.15
1819.52
1824.3
1829.67
1836.28
1715.04
1150.63
1069.24
1069.24
1069.28
1069.43
1069.68
1069.62
1082.64
1553.18
1817.65
1826.24
1829.57
1829.97
1442.64
1788.67
1786.05
1784.31
1783.1
1782.38
1782.1
1782.27
1782.84
1783.78
1785.05
1786.65
1788.68
1790.9
1793.37
1796.05
1798.93
1802.01
1805.3
1808.85
1812.68
1816.85
1821.46
1826.6
1832.4
1839.41
1848.56
1547.2
1115.2
1072.33
1069.13
1072.35
1098.13
1182.35
1407.59
1765.58
1831
1833.24
1836.68
1834.76
1597.88
1792.03
1789.71
1788.02
1786.76
1785.91
1785.46
1785.42
1785.76
1786.46
1787.52
1788.92
1790.63
1792.64
1794.9
1797.41
1800.12
1803.04
1806.14
1809.38
1812.86
1816.56
1820.64
1825.19
1830.23
1835.83
1842.31
1850.44
1679.12
1452.86
1384.01
1425.09
1537.98
1677.49
1740.08
1714.67
1768.27
1827.98
1840.01
1837.04
1645.35
1796.51
1794.39
1792.63
1791.27
1790.27
1789.64
1789.37
1789.47
1789.91
1790.69
1791.8
1793.22
1794.94
1796.93
1799.15
1801.56
1804.15
1806.88
1809.53
1812.6
1815.42
1818.43
1821.83
1825.62
1829.66
1833.92
1838.22
1842.47
1845.34
1831.79
1817.62
1806.09
1799.17
1778.28
1526.07
1568.13
1820.17
1842.03
1839.55
1658.71
1801.97
1800.1
1798.25
1796.78
1795.62
1794.77
1794.25
1794.07
1794.21
1794.66
1795.42
1796.5
1797.89
1799.55
1801.39
1803.36
1805.5
1807.94
1810.45
1811.06
1811.33
1814.52
1817.71
1820.66
1823.73
1827
1830.23
1830.41
1812.35
1811.08
1808.5
1802.02
1758.15
1585.34
1518.24
1518.38
1809.01
1844.49
1843.5
1593.86
1809.06
1807.34
1805.18
1803.46
1802.05
1800.91
1800.11
1799.64
1799.45
1799.5
1799.81
1800.46
1801.5
1802.81
1804.12
1805.3
1806.46
1807.84
1809.24
1591.96
1479.33
1711.01
1804.1
1812.61
1816.76
1820.8
1824.23
1817.74
1743.13
1663.31
1663.51
1628.18
1541.51
1511.28
1512.16
1512.71
1805.16
1846.78
1846.61
1339.97
1802.19
1815.53
1813.43
1811.33
1809.45
1807.92
1806.86
1806.17
1805.66
1805.22
1804.93
1805.1
1806.01
1807.3
1808.38
1808.88
1809.22
1809.43
1794.1
1198.25
959.078
1160.93
1422.39
1587.06
1697.73
1774.58
1811.79
1811.31
1770.67
1657.67
1600.12
1578.39
1553.16
1509.53
1507.97
1510.53
1809.73
1849.36
1849.57
1081.69
1449.37
1821.48
1824.05
1821.71
1818.25
1815.66
1814.47
1813.8
1812.93
1811.62
1810.02
1805.78
1805.59
1812.35
1815.33
1795.89
1738.61
1732.72
1444.35
944.797
912.691
910.709
930.17
989.171
1077.84
1221.65
1412.41
1599.87
1724.88
1816.75
1828.13
1838.25
1822.15
1726.51
1511.92
1559.24
1828.69
1852.19
1853.24
1080.66
1081.97
1163.42
1584.73
1833.57
1828.82
1809.78
1811.99
1822.71
1823.37
1820.28
1767.02
1513.74
1503.18
1758.78
1792.44
1468.06
1151.48
1079.73
958.575
906.495
906.27
905.469
904.13
902.85
902.405
901.872
917.733
1014.19
1271.52
1632.43
1830.42
1841.91
1846.32
1849.29
1674.53
1788.82
1848.14
1857.36
1859.45
1163.32
1085.19
1089.45
1122.15
1232.13
1194.17
1196.32
1349.85
1656.36
1695.56
1672.3
1311.71
1255.78
1260.46
1518.07
1503.33
1098.26
951.303
929.311
914.256
908.021
906.274
904.621
902.912
901.557
900.753
900.269
899.844
900.113
900.962
1044.34
1511.54
1818.13
1847.92
1853.17
1857.87
1860.46
1862.88
1866.58
1869.45
1770.3
1701.73
1430.67
1163.69
1174.4
1190.49
1191.76
1194.08
1202.19
1208.24
1215.34
1231.23
1245.3
1368.7
1401.37
1416.32
1506.59
1511
1418.65
1233.46
1045.07
920.631
904.208
928.814
901.559
899.83
898.704
899.091
898.812
898.767
899.128
1001.51
1608.97
1845.57
1859.44
1866.05
1870.78
1875.26
1879.29
1883.22
1854.89
1854.75
1830.39
1731.91
1742.04
1787.14
1744.78
1509.04
1303.15
1366.55
1564.82
1720.72
1707.96
1738.36
1848.45
1854.7
1857.24
1859.98
1863.09
1861.46
1741.65
1419.63
1130.02
958.721
899.171
897.857
896.786
898.11
898.072
897.821
897.973
897.912
1347.41
1846.8
1868.2
1877.49
1883.8
1889.88
1895.79
1901.1
1859.55
1859.27
1858.54
1857.39
1856.61
1853.98
1857.57
1856.9
1855.11
1854.48
1855.71
1857.35
1858.31
1859.06
1860.38
1862.31
1864.68
1867.38
1870.39
1873.65
1877.23
1881.79
1762.87
1228
911.118
897.774
896.771
895.681
896.472
896.827
896.551
895.77
1251.67
1851.07
1880.84
1890.81
1895.19
1902.87
1915.39
1923.71
1865.91
1865.73
1865.27
1864.63
1864.06
1863.66
1863.25
1862.64
1861.96
1861.69
1861.98
1862.58
1863.32
1864.25
1865.57
1867.37
1869.64
1872.36
1875.51
1879.07
1883.01
1887.35
1892.41
1835.97
1399.81
972.272
896.262
895.365
895.639
895.297
895.537
895.318
1355.56
1877.64
1898.98
1908.19
1913.68
1923.99
1937.93
1951.74
1873.42
1873.29
1872.87
1872.28
1871.61
1870.9
1870.12
1869.26
1868.43
1867.78
1867.41
1867.36
1867.63
1868.29
1869.43
1871.08
1873.26
1876
1879.25
1883.02
1887.37
1891.93
1896.19
1892.53
1851.15
1558.21
1140.1
969.115
989.699
982.127
959.328
1126.47
1757.01
1909
1922.48
1934.8
1939.7
1951.55
1966.45
1985
1882.27
1882.06
1881.48
1880.7
1879.79
1878.75
1877.54
1876.18
1874.77
1873.46
1872.38
1871.64
1871.32
1871.53
1872.36
1873.77
1875.81
1878.65
1881.93
1885.5
1889.49
1858.82
1683.16
1490.86
1540.51
1579.74
1591.38
1595.35
1667.84
1676.42
1703.03
1816.87
1928.13
1938.87
1951.16
1963.85
1975.44
1983.03
2000.98
2022.31
1892.62
1892.09
1891.04
1889.83
1888.62
1887.25
1885.52
1883.43
1881.15
1878.9
1876.91
1875.31
1874.22
1873.9
1874.57
1875.78
1877.55
1880.45
1851.75
1776.6
1744.14
1421.79
1306.1
1311.74
1317.13
1321.56
1325.13
1552.56
1862.15
1930.45
1940.96
1948.13
1957.05
1967.97
1980.18
1993.33
2007.7
2017.94
2040.11
2060.86
1905.08
1903.38
1901
1898.9
1897.48
1895.75
1893.77
1890.86
1887.36
1883.88
1880.88
1878.29
1876.07
1875.02
1875.65
1832.11
1741.92
1682.37
1453.2
1293.09
1293.46
1298.26
1302.27
1309.66
1315.84
1323.46
1330.01
1338.67
1344.55
1729.93
1947.19
1964.05
1978.16
1991.86
2005.86
2020.5
2036.43
2054.82
2076.77
2097.46
1919.11
1915.67
1910.36
1901.39
1893.65
1898.12
1902.64
1898.7
1893.6
1888.48
1884.36
1856.72
1777.12
1668.24
1652.14
1373.86
1296.29
1296.84
1296.1
1291.34
1291.9
1296.03
1301.9
1304.98
1418.28
1367.04
1336.18
1345.71
1397.41
1807.37
1967.13
1983.7
1999.2
2013.94
2028.67
2044.05
2061.03
2081.48
2106.26
2129.09
1941.46
1857.54
1606.53
1512.76
1719.21
1913.05
1915.13
1908.16
1861.38
1760.07
1695.74
1457.08
1345.48
1342.43
1336.86
1322.37
1321.15
1296.08
1293.56
1320.11
1680.46
1621.53
1312.23
1544.36
1923.61
1898.98
1515.02
1618.3
1931.92
1978.09
1989.76
2002.89
2016.85
2030.88
2045.36
2060.83
2078.17
2100.1
2127.14
2152
1651.61
1276.25
1271.53
1267.95
1544.78
1906.34
1877.83
1835.06
1498.84
1402.18
1387.29
1369.69
1351.12
1334.53
1335.93
1548.06
1840.42
1657.56
1431.68
1716.24
1887.93
1890.57
1897.52
1910.17
1920.78
1929.14
1940.6
1955.31
1968.56
1980.79
1993.8
2007.62
2021.48
2036.03
2051.06
2066.86
2084.63
2107.46
2136.46
2162.74
1130.3
1289.95
1283.87
1441.93
1689.15
1850.33
1557.36
1491.94
1454.39
1432.94
1450
1488.21
1562.48
1773.69
1849.41
1845.52
1842.54
1840.61
1843.38
1848.89
1853.52
1858.72
1866.78
1877.38
1889.34
1902.56
1917.47
1933.34
1949.28
1965.28
1981.31
1996.8
2011.18
2026.43
2043.48
2060.08
2078.63
2102.16
2131.94
2159.33
1754.98
1915.55
1946.76
1892.13
1712.88
1683.82
1707.57
1625.98
1640.62
1823.75
1842.15
1829.59
1820.03
1811.61
1803.91
1798.84
1795.76
1795.02
1796.73
1800.76
1806.35
1813.84
1823.43
1835.29
1849.2
1864.66
1881.23
1898.86
1917.48
1936.52
1955.04
1972.5
1988.06
2004.04
2022.39
2039.9
2059.19
2083.18
2113.08
2140.83
1841.44
1901.13
1956.33
1941.45
1903.8
1746.58
1851.45
1856.75
1832.64
1811.26
1793.08
1776.45
1764.03
1755.66
1748.16
1742.46
1739.36
1738.58
1740.04
1743.55
1748.86
1755.52
1765.08
1777.03
1795
1815.49
1833.68
1854.01
1875.05
1895.93
1916.02
1934.64
1949.49
1967.39
1988.31
2007.12
2027.22
2051.43
2080.79
2107.97
1960.13
1949.53
1934.03
1913.38
1888.86
1863.04
1836.96
1810.08