/*--------------------------------*- C++ -*----------------------------------*\
  =========                 |
  \\      /  F ield         | OpenFOAM: The Open Source CFD Toolbox
   \\    /   O peration     | Website:  https://openfoam.org
    \\  /    A nd           | Version:  8
     \\/     M anipulation  |
\*---------------------------------------------------------------------------*/
FoamFile
{
    version     2.0;
    format      ascii;
    class       surfaceScalarField;
    location    "3.2";
    object      phi;
}
// * * * * * * * * * * * * * * * * * * * * * * * * * * * * * * * * * * * * * //

dimensions      [0 3 -1 0 0 0 0];

internalField   nonuniform List<scalar> 
18095
(
1.58285e-07
-9.65687e-07
8.07403e-07
1.65307e-07
-1.2481e-06
1.24107e-06
1.2222e-07
-1.24215e-06
1.28524e-06
6.54127e-08
-1.26342e-06
1.32023e-06
1.37325e-10
-1.28043e-06
1.3457e-06
-6.51627e-08
-1.28046e-06
1.34576e-06
-1.22031e-07
-1.2635e-06
1.32037e-06
-1.6519e-07
-1.24224e-06
1.2854e-06
-1.5824e-07
-1.24818e-06
1.24123e-06
-9.65836e-07
8.07596e-07
1.10988e-07
-1.07667e-06
9.9387e-08
-1.23649e-06
7.2883e-08
-1.21565e-06
4.01009e-08
-1.23064e-06
9.54857e-11
-1.24042e-06
-3.99243e-08
-1.24044e-06
-7.27429e-08
-1.23068e-06
-9.92858e-08
-1.2157e-06
-1.10936e-07
-1.23653e-06
-1.07677e-06
6.71127e-08
-1.14379e-06
5.27392e-08
-1.22212e-06
4.21536e-08
-1.20506e-06
2.39014e-08
-1.21239e-06
6.45329e-11
-1.21658e-06
-2.37807e-08
-1.21659e-06
-4.20557e-08
-1.21241e-06
-5.26664e-08
-1.20509e-06
-6.70654e-08
-1.22213e-06
-1.14384e-06
3.95966e-08
-1.18338e-06
2.66234e-08
-1.20915e-06
2.20255e-08
-1.20047e-06
1.25509e-08
-1.20291e-06
3.95142e-11
-1.20407e-06
-1.24764e-08
-1.20408e-06
-2.19641e-08
-1.20292e-06
-2.65781e-08
-1.20047e-06
-3.95626e-08
-1.20915e-06
-1.1834e-06
1.66159e-08
7.46761e-09
7.0014e-09
4.08858e-09
1.46669e-11
-4.06084e-09
-6.97868e-09
-7.45193e-09
-1.66007e-08
-1.73736e-07
-1.16358e-06
1.33731e-06
-2.17623e-07
-1.21574e-06
1.25963e-06
-1.63757e-07
-1.21233e-06
1.15846e-06
-8.57238e-08
-1.20375e-06
1.12572e-06
1.44072e-09
-1.20244e-06
1.11528e-06
8.85498e-08
-1.20267e-06
1.11556e-06
1.66315e-07
-1.20437e-06
1.1266e-06
2.19929e-07
-1.21323e-06
1.15961e-06
1.75757e-07
-1.21695e-06
1.26113e-06
-1.16495e-06
1.34071e-06
-9.27964e-08
-1.07078e-06
-9.51594e-08
-1.21338e-06
-7.85771e-08
-1.22891e-06
-4.34367e-08
-1.23889e-06
8.13366e-10
-1.24669e-06
4.49979e-08
-1.24685e-06
7.99647e-08
-1.23933e-06
9.62785e-08
-1.22954e-06
9.34322e-08
-1.21411e-06
-1.07152e-06
-5.77808e-08
-1.013e-06
-5.48715e-08
-1.21629e-06
-4.61137e-08
-1.23767e-06
-2.6659e-08
-1.25835e-06
4.89946e-10
-1.27384e-06
2.75912e-08
-1.27396e-06
4.69096e-08
-1.25865e-06
5.54487e-08
-1.23808e-06
5.80628e-08
-1.21672e-06
-1.01346e-06
-7.45901e-08
-9.38411e-07
-6.17001e-08
-1.22918e-06
-4.83132e-08
-1.25105e-06
-2.74816e-08
-1.27918e-06
3.06588e-10
-1.30163e-06
2.80603e-08
-1.30171e-06
4.87932e-08
-1.27938e-06
6.20249e-08
-1.25131e-06
7.47431e-08
-1.22944e-06
-9.38712e-07
-1.31008e-07
-1.19111e-07
-8.4923e-08
-4.38702e-08
2.01766e-10
4.42492e-08
8.52338e-08
1.19322e-07
1.31116e-07
-1.60039e-09
-9.04204e-07
9.05804e-07
2.49709e-08
-1.33958e-06
1.31301e-06
2.34869e-08
-1.27767e-06
1.27915e-06
1.77805e-08
-1.22834e-06
1.23404e-06
1.18318e-08
-1.22467e-06
1.23061e-06
6.29324e-09
-1.22597e-06
1.2315e-06
-3.83177e-10
-1.22802e-06
1.23469e-06
8.10314e-09
-1.27441e-06
1.26592e-06
6.2412e-08
-1.34479e-06
1.29048e-06
-9.52366e-07
1.01478e-06
2.73442e-08
-9.31548e-07
3.4138e-08
-1.34638e-06
2.40988e-08
-1.26763e-06
1.6632e-08
-1.22087e-06
9.42679e-09
-1.21746e-06
2.10821e-09
-1.21865e-06
-4.5787e-09
-1.22133e-06
-9.80809e-09
-1.26918e-06
-4.19612e-09
-1.35041e-06
-9.56562e-07
3.52192e-08
-9.66767e-07
2.65125e-08
-1.33767e-06
1.74666e-08
-1.25858e-06
1.23193e-08
-1.21572e-06
6.23363e-09
-1.21138e-06
-5.4629e-10
-1.21187e-06
-5.58363e-09
-1.21629e-06
-1.44337e-08
-1.26033e-06
-2.41564e-08
-1.34068e-06
-9.80718e-07
8.31057e-08
-1.04987e-06
5.7052e-08
-1.31162e-06
3.8159e-08
-1.23969e-06
2.49122e-08
-1.20248e-06
3.88645e-09
-1.19035e-06
-1.73061e-08
-1.19067e-06
-2.98008e-08
-1.2038e-06
-4.85848e-08
-1.24155e-06
-7.61533e-08
-1.31311e-06
-1.05687e-06
2.87441e-07
2.35452e-07
1.54227e-07
7.74673e-08
2.39755e-09
-7.27165e-08
-1.49913e-07
-2.31847e-07
-2.83835e-07
-2.13272e-07
1.1911e-09
2.12081e-07
-2.14069e-07
7.989e-10
-2.1449e-07
4.21066e-10
-2.14537e-07
4.59694e-11
-2.14278e-07
-2.58344e-10
-2.13726e-07
-5.52542e-10
-2.12882e-07
-8.44499e-10
-2.11737e-07
-1.14451e-09
-2.10274e-07
-1.4636e-09
-1.81101e-09
-2.08463e-07
-2.24037e-07
1.78349e-09
2.23445e-07
-2.2445e-07
1.21087e-09
-2.24698e-07
6.67564e-10
-2.24804e-07
1.51807e-10
-2.24708e-07
-3.54979e-10
-2.24404e-07
-8.57081e-10
-2.23877e-07
-1.37127e-09
-2.2311e-07
-1.91223e-09
-2.2208e-07
-2.49383e-09
-3.1287e-09
-2.20763e-07
-2.24897e-07
2.70067e-09
2.2398e-07
-2.25641e-07
1.95372e-09
-2.26212e-07
1.23838e-09
-2.26606e-07
5.45669e-10
-2.26824e-07
-1.3761e-10
-2.26856e-07
-8.25093e-10
-2.26695e-07
-1.53283e-09
-2.2633e-07
-2.2778e-09
-2.25746e-07
-3.07771e-09
-3.9492e-09
-2.24926e-07
-2.24702e-07
3.82951e-09
2.23573e-07
-2.25662e-07
2.91253e-09
-2.26455e-07
2.03153e-09
-2.27086e-07
1.17667e-09
-2.2756e-07
3.35206e-10
-2.27877e-07
-5.08596e-10
-2.28037e-07
-1.37301e-09
-2.28036e-07
-2.27881e-09
-2.27865e-07
-3.24854e-09
-4.30496e-09
-2.2751e-07
-2.24363e-07
5.10602e-09
2.23087e-07
-2.25479e-07
4.02756e-09
-2.2644e-07
2.99253e-09
-2.27256e-07
1.99194e-09
-2.27934e-07
1.01336e-09
-2.28484e-07
4.06842e-11
-2.28911e-07
-9.46176e-10
-2.29218e-07
-1.97164e-09
-2.29403e-07
-3.06431e-09
-4.25631e-09
-2.29451e-07
-2.24248e-07
6.49647e-09
2.22857e-07
-2.25481e-07
5.26068e-09
-2.26567e-07
4.07755e-09
-2.27515e-07
2.93978e-09
-2.28338e-07
1.83652e-09
-2.2905e-07
7.52761e-10
-2.29665e-07
-3.31541e-10
-2.30194e-07
-1.44264e-09
-2.30643e-07
-2.61476e-09
-3.89256e-09
-2.31007e-07
-2.24622e-07
7.98739e-09
2.23131e-07
-2.25954e-07
6.59247e-09
-2.27136e-07
5.25892e-09
-2.28178e-07
3.98148e-09
-2.29093e-07
2.7517e-09
-2.29898e-07
1.55748e-09
-2.30611e-07
3.82085e-10
-2.31256e-07
-7.9796e-10
-2.31854e-07
-2.01606e-09
-3.32397e-09
-2.32423e-07
-2.25743e-07
9.59496e-09
2.24136e-07
-2.27188e-07
8.03716e-09
-2.28476e-07
6.54677e-09
-2.29614e-07
5.11947e-09
-2.3061e-07
3.74826e-09
-2.31476e-07
2.42368e-09
-2.32229e-07
1.13449e-09
-2.32893e-07
-1.33969e-10
-2.33511e-07
-1.39766e-09
-2.69291e-09
-2.34142e-07
-2.27845e-07
1.1371e-08
2.26069e-07
-2.29463e-07
9.6546e-09
-2.30926e-07
8.01011e-09
-2.32239e-07
6.43207e-09
-2.33402e-07
4.91168e-09
-2.34416e-07
3.43784e-09
-2.3528e-07
1.99871e-09
-2.36008e-07
5.94252e-10
-2.36645e-07
-7.60543e-10
-2.12048e-09
-2.37218e-07
-2.31084e-07
1.33946e-08
2.2906e-07
-2.32974e-07
1.15448e-08
-2.34744e-07
9.77947e-09
-2.36404e-07
8.09236e-09
-2.37965e-07
6.47301e-09
-2.39439e-07
4.91155e-09
-2.40816e-07
3.3762e-09
-2.42066e-07
1.8435e-09
-2.4321e-07
3.8368e-10
-1.12589e-09
-2.44205e-07
-2.3542e-07
1.57191e-08
2.33095e-07
-2.37644e-07
1.37687e-08
-2.39793e-07
1.19285e-08
-2.41896e-07
1.01953e-08
-2.43976e-07
8.55346e-09
-2.46045e-07
6.98056e-09
-2.48182e-07
5.51321e-09
-2.50094e-07
3.75482e-09
-2.51652e-07
1.94135e-09
-4.30755e-10
-2.52347e-07
-2.40671e-07
1.83413e-08
2.38049e-07
-2.43205e-07
1.63021e-08
-2.45681e-07
1.44042e-08
-2.48136e-07
1.26508e-08
-2.50566e-07
1.09837e-08
-2.52885e-07
9.29875e-09
-2.54875e-07
7.50391e-09
-2.56708e-07
5.58676e-09
-2.56982e-07
2.2158e-09
-1.96288e-09
-2.5545e-07
-2.46856e-07
2.12976e-08
2.43899e-07
-2.49736e-07
1.91819e-08
-2.52582e-07
1.72511e-08
-2.55368e-07
1.5436e-08
-2.58115e-07
1.37314e-08
-2.60622e-07
1.18054e-08
-2.62131e-07
9.01314e-09
-2.61848e-07
5.30313e-09
-2.6006e-07
4.28305e-10
-4.81426e-09
-2.57208e-07
-2.53845e-07
2.46404e-08
2.50503e-07
-2.57108e-07
2.24441e-08
-2.60298e-07
2.04421e-08
-2.63467e-07
1.86043e-08
-2.66102e-07
1.63662e-08
-2.67293e-07
1.29974e-08
-2.67181e-07
8.90029e-09
-2.65648e-07
3.771e-09
-2.63526e-07
-1.69431e-09
-7.50205e-09
-2.60838e-07
-2.61214e-07
2.83493e-08
2.57505e-07
-2.64823e-07
2.60534e-08
-2.6822e-07
2.38398e-08
-2.70965e-07
2.13485e-08
-2.72224e-07
1.76259e-08
-2.71879e-07
1.26524e-08
-2.70789e-07
7.81045e-09
-2.69356e-07
2.33775e-09
-2.67521e-07
-3.52876e-09
-9.26792e-09
-2.65755e-07
-2.6819e-07
3.23073e-08
2.64232e-07
-2.71721e-07
2.95846e-08
-2.74523e-07
2.6642e-08
-2.75972e-07
2.27977e-08
-2.76242e-07
1.78953e-08
-2.76044e-07
1.24543e-08
-2.75101e-07
6.8681e-09
-2.7401e-07
1.24677e-09
-2.72997e-07
-4.54223e-09
-1.0358e-08
-2.71906e-07
-2.73756e-07
3.60084e-08
2.70055e-07
-2.76713e-07
3.25414e-08
-2.78646e-07
2.85747e-08
-2.79609e-07
2.37612e-08
-2.80013e-07
1.82992e-08
-2.80209e-07
1.26502e-08
-2.80248e-07
6.90677e-09
-2.80049e-07
1.04769e-09
-2.79712e-07
-4.87909e-09
-1.0812e-08
-2.79258e-07
-2.79886e-07
3.8838e-08
2.77056e-07
-2.8167e-07
3.43259e-08
-2.83191e-07
3.00955e-08
-2.84417e-07
2.4987e-08
-2.85505e-07
1.93873e-08
-2.86424e-07
1.35693e-08
-2.87099e-07
7.58189e-09
-2.87545e-07
1.49351e-09
-2.87777e-07
-4.64722e-09
-1.07868e-08
-2.87802e-07
-2.86248e-07
4.165e-08
2.83436e-07
-2.88503e-07
3.65804e-08
-2.9024e-07
3.18328e-08
-2.91829e-07
2.65763e-08
-2.93296e-07
2.08542e-08
-2.9456e-07
1.48337e-08
-2.95614e-07
8.63521e-09
-2.96444e-07
2.32418e-09
-2.97047e-07
-4.04509e-09
-1.04225e-08
-2.97411e-07
-2.919e-07
4.50788e-08
2.88471e-07
-2.95239e-07
3.99196e-08
-2.97788e-07
3.43824e-08
-2.99869e-07
2.8657e-08
-3.01695e-07
2.26805e-08
-3.0332e-07
1.64582e-08
-3.04742e-07
1.00574e-08
-3.0595e-07
3.53249e-09
-3.06928e-07
-3.06803e-09
-9.69757e-09
-3.07652e-07
-2.96941e-07
4.90536e-08
2.92967e-07
-3.00492e-07
4.34708e-08
-3.03737e-07
3.76267e-08
-3.06624e-07
3.15445e-08
-3.09191e-07
2.52475e-08
-3.1149e-07
1.8757e-08
-3.13536e-07
1.21036e-08
-3.15328e-07
5.32452e-09
-3.16855e-07
-1.54128e-09
-8.45373e-09
-3.18099e-07
-3.01007e-07
5.35902e-08
2.9647e-07
-3.05215e-07
4.76794e-08
-3.09115e-07
4.15266e-08
-3.1272e-07
3.51487e-08
-3.16039e-07
2.85661e-08
-3.19082e-07
2.18005e-08
-3.21856e-07
1.4877e-08
-3.24356e-07
7.82482e-09
-3.26573e-07
6.75678e-10
-6.53606e-09
-3.28491e-07
-3.04195e-07
5.87168e-08
2.99069e-07
-3.09051e-07
5.25351e-08
-3.13644e-07
4.61194e-08
-3.17979e-07
3.94838e-08
-3.22059e-07
3.26459e-08
-3.25884e-07
2.5625e-08
-3.2945e-07
1.84434e-08
-3.32751e-07
1.11257e-08
-3.35775e-07
3.6994e-09
-3.8051e-09
-3.38506e-07
-3.06233e-07
6.44237e-08
3.00526e-07
-3.11728e-07
5.80297e-08
-3.1701e-07
5.1402e-08
-3.2208e-07
4.45535e-08
-3.26934e-07
3.74996e-08
-3.31567e-07
3.02579e-08
-3.35972e-07
2.28479e-08
-3.40138e-07
1.52919e-08
-3.44053e-07
7.61443e-09
-1.56383e-10
-3.47702e-07
-3.06804e-07
7.06849e-08
3.00543e-07
-3.12913e-07
6.41383e-08
-3.18865e-07
5.73539e-08
-3.24655e-07
5.03436e-08
-3.30277e-07
4.31214e-08
-3.35722e-07
3.57027e-08
-3.4098e-07
2.81053e-08
-3.46037e-07
2.03493e-08
-3.50881e-07
1.24579e-08
4.45783e-09
-3.55496e-07
-3.05567e-07
7.74549e-08
2.98797e-07
-3.12245e-07
7.08159e-08
-3.18824e-07
6.39329e-08
-3.25297e-07
5.68161e-08
-3.31653e-07
4.94775e-08
-3.37881e-07
4.19304e-08
-3.43966e-07
3.41903e-08
-3.49892e-07
2.62753e-08
-3.55642e-07
1.82073e-08
1.00127e-08
-3.61197e-07
-3.0217e-07
8.4665e-08
2.9496e-07
-3.09349e-07
7.79944e-08
-3.16488e-07
7.10721e-08
-3.23578e-07
6.39057e-08
-3.30604e-07
5.6504e-08
-3.37551e-07
4.8877e-08
-3.44398e-07
4.10369e-08
-3.51121e-07
3.2999e-08
-3.57697e-07
2.47828e-08
1.64136e-08
-3.64098e-07
-2.9627e-07
9.22226e-08
2.88713e-07
-3.03858e-07
8.55815e-08
-3.11466e-07
7.86802e-08
-3.19082e-07
7.15217e-08
-3.26688e-07
6.41099e-08
-3.3426e-07
5.64496e-08
-3.41771e-07
4.85474e-08
-3.49185e-07
4.04135e-08
-3.56465e-07
3.2063e-08
2.35178e-08
-3.63569e-07
-2.8756e-07
1.00012e-07
2.79771e-07
-2.95441e-07
9.34622e-08
-3.03404e-07
8.66434e-08
-3.11434e-07
7.95517e-08
-3.19507e-07
7.21837e-08
-3.27594e-07
6.45359e-08
-3.35653e-07
5.66062e-08
-3.43635e-07
4.8396e-08
-3.51485e-07
3.99122e-08
3.11695e-08
-3.59136e-07
-2.75785e-07
1.07894e-07
2.67902e-07
-2.83823e-07
1.01501e-07
-2.92009e-07
9.48292e-08
-3.00325e-07
8.78675e-08
-3.08743e-07
8.06018e-08
-3.17224e-07
7.30165e-08
-3.25714e-07
6.50966e-08
-3.34148e-07
5.68298e-08
-3.42445e-07
4.8209e-08
3.92367e-08
-3.50513e-07
-2.6077e-07
1.15715e-07
2.5295e-07
-2.68814e-07
1.09544e-07
-2.77074e-07
1.0309e-07
-2.85535e-07
9.63287e-08
-2.94168e-07
8.92339e-08
-3.02925e-07
8.17735e-08
-3.11742e-07
7.39139e-08
-3.20535e-07
6.56226e-08
-3.29198e-07
5.68712e-08
4.7642e-08
-3.37603e-07
-2.42452e-07
1.23303e-07
2.34865e-07
-2.50331e-07
1.17422e-07
-2.58503e-07
1.11261e-07
-2.66958e-07
1.04783e-07
-2.75668e-07
9.79444e-08
-2.84588e-07
9.06927e-08
-2.93645e-07
8.29705e-08
-3.02739e-07
7.47169e-08
-3.11741e-07
6.58728e-08
5.6388e-08
-3.20487e-07
-2.20912e-07
1.30471e-07
2.13743e-07
-2.28441e-07
1.24951e-07
-2.36343e-07
1.19164e-07
-2.44623e-07
1.13063e-07
-2.53264e-07
1.06586e-07
-2.62229e-07
9.9657e-08
-2.71448e-07
9.21896e-08
-2.80818e-07
8.40868e-08
-2.90192e-07
7.52466e-08
6.55708e-08
-2.99374e-07
-1.96417e-07
1.37028e-07
1.8986e-07
-2.03397e-07
1.3193e-07
-2.10832e-07
1.266e-07
-2.18747e-07
1.20978e-07
-2.27148e-07
1.14987e-07
-2.3602e-07
1.08529e-07
-2.45314e-07
1.01484e-07
-2.54941e-07
9.37132e-08
-2.64757e-07
8.50631e-08
7.53716e-08
-2.74558e-07
-1.69458e-07
1.42792e-07
1.63693e-07
-1.75694e-07
1.38167e-07
-1.82459e-07
1.33365e-07
-1.89805e-07
1.28323e-07
-1.97772e-07
1.22954e-07
-2.06383e-07
1.1714e-07
-2.15631e-07
1.10732e-07
-2.25464e-07
1.03545e-07
-2.35768e-07
9.53671e-08
8.59774e-08
-2.46373e-07
-1.40789e-07
1.47623e-07
1.35959e-07
-1.46122e-07
1.43499e-07
-1.52037e-07
1.39281e-07
-1.5862e-07
1.34906e-07
-1.65952e-07
1.30286e-07
-1.74108e-07
1.25295e-07
-1.83135e-07
1.19759e-07
-1.93035e-07
1.13445e-07
-2.0372e-07
1.06052e-07
9.72418e-08
-2.14984e-07
-1.11407e-07
1.51452e-07
1.07578e-07
-1.1575e-07
1.47842e-07
-1.2071e-07
1.44241e-07
-1.26402e-07
1.40598e-07
-1.32954e-07
1.36838e-07
-1.40502e-07
1.32843e-07
-1.49192e-07
1.28449e-07
-1.59169e-07
1.23422e-07
-1.7044e-07
1.17323e-07
1.10035e-07
-1.83233e-07
-8.24126e-08
1.54326e-07
7.9538e-08
-8.58161e-08
1.51245e-07
-8.98728e-08
1.48297e-07
-9.47308e-08
1.45456e-07
-1.00567e-07
1.42674e-07
-1.07594e-07
1.3987e-07
-1.16051e-07
1.36906e-07
-1.26162e-07
1.33533e-07
-1.39363e-07
1.30523e-07
1.30115e-07
-1.59442e-07
-5.47783e-08
1.5641e-07
5.26942e-08
-5.74413e-08
1.53908e-07
-6.08497e-08
1.51706e-07
-6.52134e-08
1.4982e-07
-7.07933e-08
1.48254e-07
-7.79e-08
1.46977e-07
-8.68936e-08
1.459e-07
-9.90275e-08
1.45667e-07
-1.19267e-07
1.50763e-07
1.57017e-07
-1.4617e-07
-2.87286e-08
1.57763e-07
2.7376e-08
-3.06689e-08
1.55848e-07
-3.33837e-08
1.5442e-07
-3.71124e-08
1.53548e-07
-4.21562e-08
1.53297e-07
-4.88859e-08
1.53706e-07
-5.80413e-08
1.55055e-07
-7.36569e-08
1.61283e-07
-9.59923e-08
1.73098e-07
1.69075e-07
-1.08051e-07
-4.12975e-09
1.58278e-07
3.61475e-09
-5.11111e-09
1.56829e-07
-6.70038e-09
1.56009e-07
-9.06874e-09
1.55917e-07
-1.24166e-08
1.56645e-07
-1.70434e-08
1.58333e-07
-2.43765e-08
1.62388e-07
-3.80019e-08
1.74908e-07
-5.35245e-08
1.8862e-07
1.71295e-07
-5.57448e-08
1.86003e-08
1.5798e-07
-1.83027e-08
1.85618e-08
1.56868e-07
1.80629e-08
1.56508e-07
1.69378e-08
1.57042e-07
1.49578e-08
1.58625e-07
1.17511e-08
1.6154e-07
4.7183e-09
1.69421e-07
-7.82567e-09
1.87452e-07
-1.32046e-08
1.93999e-07
1.68704e-07
-1.06147e-08
3.97259e-08
1.5678e-07
-3.85262e-08
4.0819e-08
1.55774e-07
4.17444e-08
1.55582e-07
4.24108e-08
1.56375e-07
4.26794e-08
1.58356e-07
4.21669e-08
1.62052e-07
3.82106e-08
1.73377e-07
3.21773e-08
1.93484e-07
3.1859e-08
1.94317e-07
1.65142e-07
3.54212e-08
5.91e-08
1.54686e-07
-5.70056e-08
6.13725e-08
1.53502e-07
6.38465e-08
1.53108e-07
6.65268e-08
1.53695e-07
6.93851e-08
1.55498e-07
7.21657e-08
1.59271e-07
7.40011e-08
1.71541e-07
7.54563e-08
1.92029e-07
7.88818e-08
1.90891e-07
1.6225e-07
8.17732e-08
7.64883e-08
1.51857e-07
-7.366e-08
7.97778e-08
1.50212e-07
8.36412e-08
1.49245e-07
8.81889e-08
1.49147e-07
9.35153e-08
1.50171e-07
9.98315e-08
1.52955e-07
1.08136e-07
1.63236e-07
1.17248e-07
1.82917e-07
1.23753e-07
1.84384e-07
1.57908e-07
1.28095e-07
9.16562e-08
1.48618e-07
-8.84172e-08
9.55738e-08
1.46294e-07
1.00365e-07
1.44454e-07
1.06257e-07
1.43254e-07
1.1356e-07
1.42868e-07
1.22944e-07
1.43571e-07
1.37217e-07
1.48963e-07
1.55771e-07
1.64362e-07
1.69769e-07
1.70387e-07
1.52923e-07
1.74754e-07
1.0477e-07
1.45336e-07
-1.01487e-07
1.08853e-07
1.4221e-07
1.13975e-07
1.39333e-07
1.20417e-07
1.36811e-07
1.28567e-07
1.34718e-07
1.39078e-07
1.33061e-07
1.55236e-07
1.32805e-07
1.80642e-07
1.38956e-07
2.04142e-07
1.46887e-07
1.40705e-07
2.16361e-07
1.16229e-07
1.42354e-07
-1.13247e-07
1.20033e-07
1.38406e-07
1.24871e-07
1.34494e-07
1.31006e-07
1.30676e-07
1.38755e-07
1.26969e-07
1.48476e-07
1.2334e-07
1.61769e-07
1.19512e-07
1.84433e-07
1.16292e-07
2.14799e-07
1.16521e-07
1.14192e-07
2.41311e-07
1.26875e-07
1.39844e-07
-1.24365e-07
1.30173e-07
1.35108e-07
1.34361e-07
1.30306e-07
1.3961e-07
1.25427e-07
1.46149e-07
1.20431e-07
1.5426e-07
1.15229e-07
1.64117e-07
1.09655e-07
1.7723e-07
1.0318e-07
1.97478e-07
9.62728e-08
8.93605e-08
2.2231e-07
1.37932e-07
1.37677e-07
-1.35765e-07
1.40724e-07
1.32316e-07
1.4421e-07
1.2682e-07
1.48484e-07
1.21153e-07
1.53651e-07
1.15264e-07
1.59822e-07
1.09058e-07
1.67097e-07
1.0238e-07
1.75264e-07
9.5012e-08
1.84823e-07
8.67141e-08
7.68995e-08
1.97283e-07
1.5077e-07
1.35921e-07
-1.49014e-07
1.52981e-07
1.30105e-07
1.55845e-07
1.23956e-07
1.59466e-07
1.17532e-07
1.63909e-07
1.10822e-07
1.69181e-07
1.03785e-07
1.75268e-07
9.62938e-08
1.82103e-07
8.81758e-08
1.89689e-07
7.91278e-08
6.88812e-08
1.97707e-07
1.6195e-07
1.33537e-07
-1.59566e-07
1.64356e-07
1.27699e-07
1.67237e-07
1.21076e-07
1.70924e-07
1.13846e-07
1.7542e-07
1.06325e-07
1.80788e-07
9.84174e-08
1.87005e-07
9.00765e-08
1.94021e-07
8.116e-08
2.01656e-07
7.14928e-08
6.09048e-08
2.09632e-07
1.69223e-07
1.29376e-07
-1.65062e-07
1.72821e-07
1.24101e-07
1.76394e-07
1.17503e-07
1.80489e-07
1.09751e-07
1.85422e-07
1.01392e-07
1.91166e-07
9.26731e-08
1.97715e-07
8.35275e-08
2.05023e-07
7.38519e-08
2.12965e-07
6.35512e-08
5.25415e-08
2.21328e-07
1.72661e-07
1.2393e-07
-1.67214e-07
1.77695e-07
1.19067e-07
1.82427e-07
1.12772e-07
1.8714e-07
1.05038e-07
1.92642e-07
9.58891e-08
1.98778e-07
8.65378e-08
2.05645e-07
7.66601e-08
2.13277e-07
6.62202e-08
2.21576e-07
5.52519e-08
4.37595e-08
2.30359e-07
1.73656e-07
1.17478e-07
-1.67204e-07
1.79931e-07
1.12793e-07
1.86096e-07
1.06607e-07
1.91726e-07
9.94088e-08
1.97158e-07
9.04575e-08
2.0317e-07
8.05255e-08
2.10217e-07
6.96126e-08
2.1831e-07
5.81275e-08
2.27309e-07
4.62524e-08
3.40669e-08
2.37002e-07
1.7163e-07
1.09904e-07
-1.64055e-07
1.7923e-07
1.05193e-07
1.86784e-07
9.90531e-08
1.92238e-07
9.3955e-08
1.96549e-07
8.61464e-08
2.02512e-07
7.45624e-08
2.10214e-07
6.19108e-08
2.19456e-07
4.88853e-08
2.30015e-07
3.56934e-08
2.25063e-08
2.41576e-07
1.59937e-07
1.02546e-07
-1.52579e-07
1.67386e-07
9.77438e-08
1.73548e-07
9.28905e-08
1.79503e-07
8.80003e-08
1.85256e-07
8.03934e-08
1.9331e-07
6.65085e-08
2.03372e-07
5.18492e-08
2.1552e-07
3.67368e-08
2.29407e-07
2.18071e-08
7.26874e-09
2.44644e-07
1.413e-07
9.43226e-08
-1.33078e-07
1.50099e-07
8.89462e-08
1.59388e-07
8.36007e-08
1.69341e-07
7.80473e-08
1.77204e-07
7.25303e-08
1.83345e-07
6.03673e-08
1.93988e-07
4.12059e-08
2.09388e-07
2.1337e-08
2.28056e-07
3.13982e-09
-1.40061e-08
2.49331e-07
1.09862e-07
8.59844e-08
-1.01524e-07
1.19363e-07
7.94453e-08
1.29849e-07
7.31149e-08
1.40548e-07
6.73483e-08
1.50319e-07
6.27598e-08
1.58448e-07
5.22379e-08
1.74015e-07
2.56395e-08
1.95594e-07
-2.42622e-10
2.23251e-07
-2.45174e-08
-4.61705e-08
2.55416e-07
6.38756e-08
7.7637e-08
-5.55282e-08
7.47979e-08
6.85224e-08
8.84821e-08
5.94305e-08
1.04887e-07
5.09437e-08
1.24601e-07
4.30455e-08
1.37872e-07
3.8967e-08
1.52081e-07
1.14302e-08
1.81863e-07
-3.00252e-08
2.19464e-07
-6.21178e-08
-9.09275e-08
2.64221e-07
-1.22553e-08
7.42923e-08
1.55999e-08
-6.52233e-09
6.27897e-08
1.75543e-09
5.1153e-08
1.26586e-08
4.00408e-08
2.83198e-08
2.73844e-08
6.40511e-08
3.23566e-09
1.08398e-07
-3.29175e-08
1.66317e-07
-8.79435e-08
2.21541e-07
-1.17341e-07
-1.49426e-07
2.80039e-07
-1.23505e-07
8.14394e-08
1.16358e-07
-1.28918e-07
6.82035e-08
-1.315e-07
5.37349e-08
-1.27036e-07
3.55772e-08
-1.02827e-07
3.17422e-09
-4.42203e-08
-5.537e-08
4.62533e-08
-1.23392e-07
1.37529e-07
-1.79219e-07
2.45854e-07
-2.25667e-07
-2.65251e-07
3.6168e-07
-2.64593e-07
1.01532e-07
2.44501e-07
-2.76644e-07
8.02545e-08
-2.72921e-07
5.00119e-08
-2.22263e-07
-1.5081e-08
-1.21362e-07
-9.77256e-08
4.4185e-11
-1.76775e-07
1.1778e-07
-2.41126e-07
2.3121e-07
-2.92649e-07
3.39341e-07
-3.33798e-07
-3.67731e-07
4.4182e-07
-4.11041e-07
1.156e-07
3.96973e-07
-3.8472e-07
5.39341e-08
-3.00725e-07
-3.39829e-08
-1.87332e-07
-1.28474e-07
-7.00886e-08
-2.14968e-07
4.62622e-08
-2.93127e-07
1.59705e-07
-3.54569e-07
2.69991e-07
-4.02935e-07
3.81452e-07
-4.45259e-07
-4.82592e-07
4.96313e-07
-5.07822e-07
6.4566e-08
5.58855e-07
-4.07454e-07
-4.6433e-08
-2.91361e-07
-1.50075e-07
-1.75269e-07
-2.44566e-07
-6.051e-08
-3.29727e-07
5.57784e-08
-4.09415e-07
1.77884e-07
-4.76674e-07
3.0641e-07
-5.31462e-07
4.37344e-07
-5.76194e-07
-6.12847e-07
5.67598e-07
-4.8372e-07
-1.40927e-08
5.62378e-07
-4.00431e-07
-1.29722e-07
-3.0455e-07
-2.45957e-07
-1.90994e-07
-3.58121e-07
-6.04329e-08
-4.60287e-07
7.62254e-08
-5.46074e-07
2.15911e-07
-6.1636e-07
3.56807e-07
-6.72358e-07
4.96459e-07
-7.15846e-07
-7.48687e-07
6.323e-07
-4.62525e-07
-6.785e-08
5.16282e-07
-3.923e-07
-1.99946e-07
-2.99814e-07
-3.38443e-07
-1.78623e-07
-4.79312e-07
-3.72475e-08
-6.01663e-07
1.12996e-07
-6.96318e-07
2.63412e-07
-7.66776e-07
4.09663e-07
-8.1861e-07
5.49704e-07
-8.55887e-07
-8.81275e-07
6.82292e-07
-3.80499e-07
-9.83209e-08
4.1097e-07
-3.4639e-07
-2.34055e-07
-2.69642e-07
-4.15191e-07
-1.38177e-07
-6.10776e-07
1.74501e-08
-7.57291e-07
1.74663e-07
-8.5353e-07
3.24446e-07
-9.1656e-07
4.64154e-07
-9.58318e-07
5.93402e-07
-9.85135e-07
-1.00024e-06
7.12366e-07
-2.55004e-07
-9.18856e-08
2.4857e-07
-2.97191e-07
-1.91867e-07
-2.11076e-07
-5.01306e-07
-5.09398e-08
-7.70912e-07
1.12497e-07
-9.20728e-07
2.61098e-07
-1.00213e-06
3.94167e-07
-1.04963e-06
5.1345e-07
-1.0776e-06
6.20793e-07
-1.09248e-06
-1.09695e-06
7.17505e-07
-1.32799e-07
-4.38663e-08
8.47825e-08
-2.79192e-07
-4.54769e-08
-9.96201e-08
-6.80875e-07
8.23795e-08
-9.52909e-07
2.2975e-07
-1.0681e-06
3.51053e-07
-1.12343e-06
4.54825e-07
-1.1534e-06
5.45792e-07
-1.16857e-06
6.26524e-07
-1.17321e-06
-1.16882e-06
6.98395e-07
-7.84569e-08
1.98523e-08
1.47406e-08
-1.99421e-07
7.54763e-08
5.1718e-08
-9.3202e-07
2.13838e-07
-1.11503e-06
3.29042e-07
-1.1833e-06
4.17955e-07
-1.21235e-06
4.91783e-07
-1.22723e-06
5.55788e-07
-1.23257e-06
6.12233e-07
-1.22965e-06
-1.2186e-06
6.62011e-07
-7.41211e-09
6.34571e-08
-3.61939e-08
5.64814e-08
1.15986e-08
2.24715e-07
-1.10027e-06
3.30938e-07
-1.22126e-06
4.03373e-07
-1.25574e-06
4.60134e-07
-1.26911e-06
5.07841e-07
-1.27494e-06
5.49407e-07
-1.27414e-06
5.8601e-07
-1.26626e-06
-1.25053e-06
6.17937e-07
1.03851e-07
6.13709e-08
-1.01766e-07
2.72618e-07
-1.5716e-07
3.60634e-07
-1.18828e-06
4.10734e-07
-1.27136e-06
4.47713e-07
-1.29272e-06
4.79394e-07
-1.30079e-06
5.07273e-07
-1.30282e-06
5.31972e-07
-1.29884e-06
5.53675e-07
-1.28796e-06
-1.26905e-06
5.72198e-07
6.11e-08
9.39997e-08
-9.3731e-08
3.88487e-07
-4.84565e-07
4.23609e-07
-1.22339e-06
4.45444e-07
-1.29319e-06
4.62615e-07
-1.30989e-06
4.78328e-07
-1.3165e-06
4.9281e-07
-1.3173e-06
5.05864e-07
-1.31189e-06
5.17159e-07
-1.29926e-06
-1.27822e-06
5.26331e-07
-2.67358e-08
1.539e-07
-3.317e-08
3.99368e-07
-9.10674e-07
4.33785e-07
-1.25781e-06
4.45964e-07
-1.30537e-06
4.54315e-07
-1.31824e-06
4.61382e-07
-1.32357e-06
4.67606e-07
-1.32352e-06
4.72841e-07
-1.31713e-06
4.76538e-07
-1.30295e-06
-1.27957e-06
4.77882e-07
1.49571e-07
8.499e-08
-8.06672e-08
4.05478e-07
-1.16658e-06
4.29141e-07
-1.28147e-06
4.33339e-07
-1.30957e-06
4.34731e-07
-1.31963e-06
4.35696e-07
-1.32453e-06
4.36495e-07
-1.32432e-06
4.3678e-07
-1.31741e-06
4.35908e-07
-1.30208e-06
-1.2766e-06
4.3294e-07
3.35798e-07
-2.17788e-07
-3.30231e-08
3.98108e-07
-1.22888e-06
4.09244e-07
-1.29261e-06
4.077e-07
-1.30803e-06
4.05009e-07
-1.31694e-06
4.02801e-07
-1.32232e-06
4.00793e-07
-1.32231e-06
3.98374e-07
-1.31499e-06
3.94907e-07
-1.29861e-06
-1.27142e-06
3.89726e-07
3.74733e-07
-7.02846e-07
1.10325e-07
3.8235e-07
-1.2365e-06
3.78047e-07
-1.2883e-06
3.73162e-07
-1.30314e-06
3.69306e-07
-1.31308e-06
3.66024e-07
-1.31904e-06
3.6274e-07
-1.31903e-06
3.5888e-07
-1.31113e-06
3.53951e-07
-1.29368e-06
-1.26482e-06
3.47355e-07
3.43847e-07
-1.04491e-06
-1.78095e-09
3.46652e-07
-1.23931e-06
3.41111e-07
-1.28276e-06
3.36255e-07
-1.29829e-06
3.31903e-07
-1.30873e-06
3.27679e-07
-1.31482e-06
3.23154e-07
-1.3145e-06
3.1794e-07
-1.30592e-06
3.11974e-07
-1.28772e-06
-1.25879e-06
3.05942e-07
2.90631e-07
-1.16406e-06
-1.71482e-07
3.07443e-07
-1.25612e-06
3.04932e-07
-1.28025e-06
2.99557e-07
-1.29291e-06
2.94075e-07
-1.30325e-06
2.88544e-07
-1.30929e-06
2.82229e-07
-1.30819e-06
2.74283e-07
-1.29797e-06
2.64061e-07
-1.2775e-06
-1.24631e-06
2.5158e-07
2.71893e-07
-1.20021e-06
-2.35743e-07
2.75331e-07
-1.25956e-06
2.69196e-07
-1.27412e-06
2.62634e-07
-1.28635e-06
2.56847e-07
-1.29746e-06
2.51167e-07
-1.30361e-06
2.44475e-07
-1.3015e-06
2.35704e-07
-1.2892e-06
2.24082e-07
-1.26587e-06
-1.23197e-06
2.09747e-07
2.46983e-07
-1.20584e-06
-2.4136e-07
2.39499e-07
-1.25208e-06
2.32311e-07
-1.26693e-06
2.26749e-07
-1.28079e-06
2.22112e-07
-1.29282e-06
2.17342e-07
-1.29884e-06
2.11285e-07
-1.29544e-06
2.02824e-07
-1.28074e-06
1.90989e-07
-1.25404e-06
-1.21613e-06
1.75143e-07
2.15236e-07
-1.205e-06
-2.16071e-07
2.06783e-07
-1.24362e-06
2.00495e-07
-1.26064e-06
1.95905e-07
-1.2762e-06
1.92293e-07
-1.28921e-06
1.88693e-07
-1.29524e-06
1.83989e-07
-1.29073e-06
1.77047e-07
-1.2738e-06
1.66875e-07
-1.24387e-06
-1.20166e-06
1.52408e-07
1.7831e-07
-1.2141e-06
-1.69213e-07
1.75411e-07
-1.24072e-06
1.71316e-07
-1.25655e-06
1.68163e-07
-1.27305e-06
1.66078e-07
-1.28713e-06
1.64335e-07
-1.29349e-06
1.61962e-07
-1.28836e-06
1.57978e-07
-1.26982e-06
1.51594e-07
-1.23748e-06
-1.192e-06
1.41931e-07
1.51826e-07
-1.2181e-06
-1.47826e-07
1.48864e-07
-1.23776e-06
1.45466e-07
-1.25315e-06
1.43388e-07
-1.27097e-06
1.42684e-07
-1.28642e-06
1.42657e-07
-1.29347e-06
1.42539e-07
-1.28824e-06
1.41643e-07
-1.26892e-06
1.39394e-07
-1.23523e-06
-1.18748e-06
1.34875e-07
1.30007e-07
-1.21625e-06
-1.3185e-07
1.25609e-07
-1.23336e-06
1.22498e-07
-1.25004e-06
1.21257e-07
-1.26973e-06
1.21417e-07
-1.28658e-06
1.22232e-07
-1.29428e-06
1.23208e-07
-1.28922e-06
1.23988e-07
-1.2697e-06
1.23875e-07
-1.23512e-06
-1.18424e-06
1.20638e-07
1.10523e-07
-1.20936e-06
-1.17413e-07
1.05012e-07
-1.22785e-06
1.02355e-07
-1.24738e-06
1.0187e-07
-1.26924e-06
1.02485e-07
-1.2872e-06
1.03448e-07
-1.29525e-06
1.0474e-07
-1.29051e-06
1.06652e-07
-1.27161e-06
1.08736e-07
-1.23721e-06
-1.18381e-06
1.08302e-07
8.97938e-08
-1.19889e-06
-1.00265e-07
8.50579e-08
-1.22312e-06
8.41726e-08
-1.2465e-06
8.50811e-08
-1.27015e-06
8.62861e-08
-1.2884e-06
8.7165e-08
-1.29613e-06
8.84173e-08
-1.29177e-06
9.14713e-08
-1.27466e-06
9.68727e-08
-1.24261e-06
-1.18937e-06
1.02429e-07
6.73307e-08
-1.18946e-06
-7.67666e-08
6.61561e-08
-1.22194e-06
6.84799e-08
-1.24882e-06
7.14926e-08
-1.27316e-06
7.37891e-08
-1.2907e-06
7.49993e-08
-1.29734e-06
7.64583e-08
-1.29322e-06
8.05529e-08
-1.27876e-06
8.87957e-08
-1.25085e-06
-1.19983e-06
9.92651e-08
4.69692e-08
-1.1863e-06
-5.01217e-08
5.04193e-08
-1.22539e-06
5.57984e-08
-1.2542e-06
6.06728e-08
-1.27804e-06
6.4206e-08
-1.29423e-06
6.64089e-08
-1.29954e-06
6.91999e-08
-1.29602e-06
7.59685e-08
-1.28553e-06
9.06688e-08
-1.26555e-06
-1.22676e-06
1.17593e-07
3.15175e-08
-1.1902e-06
-2.76229e-08
3.88392e-08
-1.23271e-06
4.56759e-08
-1.26103e-06
5.09393e-08
-1.2833e-06
5.42603e-08
-1.29755e-06
5.59312e-08
-1.30121e-06
5.7916e-08
-1.298e-06
6.3645e-08
-1.29126e-06
7.86326e-08
-1.28054e-06
-1.26144e-06
1.13318e-07
2.14902e-08
-1.19936e-06
-1.23249e-08
3.04427e-08
-1.24167e-06
3.68914e-08
-1.26748e-06
4.14123e-08
-1.28782e-06
4.30676e-08
-1.29921e-06
4.26756e-08
-1.30082e-06
4.16986e-08
-1.29702e-06
4.20698e-08
-1.29163e-06
4.7264e-08
-1.28573e-06
-1.27772e-06
6.35381e-08
1.0646e-08
-1.22659e-06
1.65851e-08
2.24666e-08
-1.25349e-06
2.90107e-08
-1.27403e-06
3.31128e-08
-1.29192e-06
3.24802e-08
-1.29858e-06
2.98556e-08
-1.29819e-06
2.62928e-08
-1.29346e-06
2.20475e-08
-1.28738e-06
1.86254e-08
-1.28231e-06
-1.2778e-06
1.87037e-08
2.75678e-08
-1.23238e-06
-2.1783e-08
2.77153e-08
-1.25364e-06
2.90871e-08
-1.2754e-06
2.9981e-08
-1.29282e-06
2.51853e-08
-1.29378e-06
1.97433e-08
-1.29275e-06
1.39699e-08
-1.28769e-06
6.22479e-09
-1.27964e-06
-3.04252e-09
-1.27304e-06
-1.26883e-06
-1.20079e-08
3.58828e-08
-1.22863e-06
-3.96282e-08
2.98519e-08
-1.24761e-06
3.07445e-08
-1.27629e-06
2.8934e-08
-1.291e-06
2.06446e-08
-1.28549e-06
1.29417e-08
-1.28505e-06
6.29243e-09
-1.28104e-06
-2.94065e-09
-1.2704e-06
-1.54077e-08
-1.26057e-06
-1.25531e-06
-2.8929e-08
4.13831e-08
-1.20676e-06
-6.32627e-08
3.16479e-08
-1.23787e-06
3.49275e-08
-1.27957e-06
2.92111e-08
-1.28529e-06
1.85788e-08
-1.27486e-06
9.00195e-09
-1.27547e-06
2.53346e-09
-1.27457e-06
-6.00469e-09
-1.26187e-06
-1.99776e-08
-1.2466e-06
-1.23858e-06
-3.67081e-08
3.86901e-08
-1.16633e-06
-7.91193e-08
3.35908e-08
-1.23277e-06
3.98543e-08
-1.28584e-06
2.95234e-08
-1.27496e-06
1.79653e-08
-1.2633e-06
6.92101e-09
-1.26443e-06
7.02342e-10
-1.26835e-06
-4.43676e-09
-1.25673e-06
-1.82954e-08
-1.23274e-06
-1.21765e-06
-3.92199e-08
2.57222e-08
-1.10067e-06
-9.13812e-08
3.79681e-08
-1.24502e-06
4.337e-08
-1.29124e-06
2.9059e-08
-1.26065e-06
1.67643e-08
-1.25101e-06
4.59504e-09
-1.25226e-06
-3.125e-09
-1.26063e-06
-1.32873e-09
-1.25852e-06
-9.06583e-09
-1.22501e-06
-1.18717e-06
-3.95508e-08
1.19663e-08
-1.01088e-06
-1.01758e-07
4.54498e-08
-1.2785e-06
4.18815e-08
-1.28767e-06
2.60419e-08
-1.24481e-06
1.38927e-08
-1.23886e-06
1.70296e-09
-1.24007e-06
-1.08231e-08
-1.24811e-06
-3.01645e-09
-1.26633e-06
1.20815e-08
-1.2401e-06
-1.13213e-06
-4.29605e-08
5.31117e-09
-1.10382e-07
3.98212e-08
3.13015e-08
2.05386e-08
1.22966e-08
3.73022e-09
-9.68399e-09