/*--------------------------------*- C++ -*----------------------------------*\
  =========                 |
  \\      /  F ield         | OpenFOAM: The Open Source CFD Toolbox
   \\    /   O peration     | Website:  https://openfoam.org
    \\  /    A nd           | Version:  8
     \\/     M anipulation  |
\*---------------------------------------------------------------------------*/
FoamFile
{
    version     2.0;
    format      ascii;
    class       volVectorField;
    location    "3.2";
    object      U;
}
// * * * * * * * * * * * * * * * * * * * * * * * * * * * * * * * * * * * * * //

dimensions      [0 1 -1 0 0 0 0];

internalField   nonuniform List<vector> 
9150
(
(0.0538036 -0.428793 0)
(0.0879321 -0.622212 0)
(0.0730989 -0.631403 0)
(0.0486904 -0.643687 0)
(0.0170969 -0.654409 0)
(-0.0169624 -0.654429 0)
(-0.0485799 -0.64374 0)
(-0.0730216 -0.631462 0)
(-0.0878926 -0.622274 0)
(-0.0537918 -0.428879 0)
(0.0408127 -0.522912 0)
(0.0573937 -0.625653 0)
(0.0420589 -0.613191 0)
(0.0294437 -0.622436 0)
(0.0105279 -0.628843 0)
(-0.0104342 -0.628853 0)
(-0.0293641 -0.622465 0)
(-0.0419983 -0.613224 0)
(-0.0573547 -0.62568 0)
(-0.040798 -0.522974 0)
(0.0252755 -0.558035 0)
(0.0324726 -0.613787 0)
(0.0229743 -0.604462 0)
(0.0172958 -0.609983 0)
(0.00627007 -0.61318 0)
(-0.00620652 -0.613185 0)
(-0.0172408 -0.609997 0)
(-0.022932 -0.604479 0)
(-0.0324416 -0.613797 0)
(-0.0252615 -0.558069 0)
(0.015381 -0.584771 0)
(0.0174532 -0.607451 0)
(0.0116974 -0.601134 0)
(0.0088943 -0.603281 0)
(0.00325852 -0.604393 0)
(-0.00321972 -0.604395 0)
(-0.00886027 -0.603286 0)
(-0.0116709 -0.601141 0)
(-0.0174326 -0.607453 0)
(-0.0153713 -0.584785 0)
(0.00627392 -0.597173 0)
(0.00555138 -0.601389 0)
(0.00356892 -0.600039 0)
(0.00268606 -0.600348 0)
(0.000999657 -0.600482 0)
(-0.000985645 -0.600482 0)
(-0.00267372 -0.600348 0)
(-0.00355926 -0.60004 0)
(-0.00554351 -0.601388 0)
(-0.00627005 -0.597175 0)
(0.469668 -1.16178 1.514e-24)
(0.283223 -1.08537 0)
(0.163773 -1.06886 0)
(0.0928879 -1.05735 0)
(0.031084 -1.05285 0)
(-0.0296533 -1.05306 0)
(-0.0916119 -1.05798 0)
(-0.162748 -1.06983 0)
(-0.282537 -1.08664 0)
(-0.469998 -1.16351 -1.53288e-24)
(0.334149 -0.843995 4.16186e-25)
(0.28728 -0.936514 0)
(0.18851 -0.936537 0)
(0.108583 -0.936521 0)
(0.036129 -0.938994 0)
(-0.0353247 -0.939143 0)
(-0.107895 -0.936935 0)
(-0.188009 -0.937127 0)
(-0.287109 -0.937235 0)
(-0.334364 -0.844858 -4.20213e-25)
(0.279257 -0.702539 7.02159e-26)
(0.25913 -0.804567 0)
(0.178237 -0.817363 0)
(0.104843 -0.828211 0)
(0.03508 -0.836378 0)
(-0.0345966 -0.836467 0)
(-0.104439 -0.828456 0)
(-0.177973 -0.817707 0)
(-0.259056 -0.804948 0)
(-0.279351 -0.702937 -7.14608e-26)
(0.200134 -0.55436 2.58411e-25)
(0.216789 -0.709343 0)
(0.154348 -0.72575 0)
(0.0915058 -0.741913 0)
(0.0306867 -0.753861 0)
(-0.0303851 -0.753916 0)
(-0.0912585 -0.742061 0)
(-0.15419 -0.725944 0)
(-0.216748 -0.709546 0)
(-0.200178 -0.554585 -2.58061e-25)
(0.118845 -0.445244 -4.24956e-25)
(0.156494 -0.644157 -6.09769e-25)
(0.116719 -0.663678 -2.06194e-25)
(0.0710134 -0.681128 -1.35385e-25)
(0.024053 -0.69415 -7.86979e-27)
(-0.023855 -0.694184 -7.61181e-27)
(-0.0708518 -0.681216 -1.34735e-25)
(-0.116614 -0.663786 -2.05935e-25)
(-0.156457 -0.644268 -6.09597e-25)
(-0.118854 -0.445373 -4.2504e-25)
(0.0324371 -0.881594 0)
(-0.020578 -1.33555 0)
(0.0300528 -1.27558 0)
(0.0039174 -1.22757 0)
(0.00840944 -1.22486 0)
(0.00102173 -1.22611 0)
(0.0106831 -1.22712 0)
(-0.0190875 -1.27006 0)
(0.0438407 -1.34201 0)
(-0.0144889 -0.947363 0)
(0.0557432 -0.888641 0)
(-0.0134468 -1.33384 0)
(0.0290489 -1.27163 0)
(0.0068195 -1.22496 0)
(0.00485099 -1.22286 0)
(0.00263393 -1.22412 0)
(0.00473184 -1.22518 0)
(-0.0203875 -1.27104 0)
(0.0274612 -1.33734 0)
(-0.0467744 -0.919534 0)
(0.0799523 -0.933673 0)
(-0.0183386 -1.34678 0)
(0.0202148 -1.2748 0)
(0.00957521 -1.2312 0)
(0.00268017 -1.22649 0)
(0.00294265 -1.22724 0)
(-0.00230988 -1.23191 0)
(-0.0153601 -1.27679 0)
(0.0268203 -1.35034 0)
(-0.0752091 -0.952741 0)
(0.145004 -1.07313 0)
(0.00507577 -1.36558 0)
(0.0169845 -1.27098 0)
(0.0238344 -1.22556 0)
(0.00782818 -1.21443 0)
(-0.00364893 -1.21483 0)
(-0.0197131 -1.22665 0)
(-0.014366 -1.27272 0)
(0.000370384 -1.36756 0)
(-0.142815 -1.08287 0)
(0.29832 -1.21674 0)
(0.127582 -1.32134 0)
(0.0699531 -1.20982 0)
(0.0574828 -1.1685 0)
(0.0212946 -1.15632 0)
(-0.0188078 -1.15663 0)
(-0.0553703 -1.16956 0)
(-0.0679644 -1.21133 0)
(-0.124954 -1.32289 0)
(-0.29803 -1.22109 0)
(-0.10639 0.000782935 0)
(-0.106883 0.00049298 0)
(-0.107189 0.000220826 0)
(-0.107307 -2.79924e-05 0)
(-0.10724 -0.000250373 0)
(-0.107036 -0.000445657 0)
(-0.106687 -0.000629414 0)
(-0.106191 -0.000814149 0)
(-0.105542 -0.00100952 0)
(-0.104731 -0.00122326 0)
(-0.111895 0.00148181 0)
(-0.112143 0.000989032 0)
(-0.112307 0.000520818 0)
(-0.112394 7.59513e-05 0)
(-0.112402 -0.00034845 0)
(-0.112305 -0.000762009 0)
(-0.112099 -0.0011792 0)
(-0.111778 -0.00161372 0)
(-0.111331 -0.00207897 0)
(-0.110749 -0.00258685 0)
(-0.112242 0.0021571 0)
(-0.112656 0.00149897 0)
(-0.112985 0.000871689 0)
(-0.113226 0.000266817 0)
(-0.11338 -0.000327449 0)
(-0.113443 -0.000926649 0)
(-0.113412 -0.00154511 0)
(-0.113282 -0.00219783 0)
(-0.113047 -0.00290001 0)
(-0.112699 -0.00366565 0)
(-0.112091 0.00322786 0)
(-0.112612 0.00239335 0)
(-0.113049 0.00159154 0)
(-0.113405 0.000812714 0)
(-0.113681 4.41448e-05 0)
(-0.113878 -0.000729209 0)
(-0.113998 -0.00152432 0)
(-0.114038 -0.00236005 0)
(-0.113997 -0.00325619 0)
(-0.113869 -0.00423173 0)
(-0.111883 0.00443494 0)
(-0.11248 0.00343546 0)
(-0.112999 0.00247506 0)
(-0.113442 0.00154408 0)
(-0.113814 0.000629661 0)
(-0.11412 -0.000284379 0)
(-0.114364 -0.0012175 0)
(-0.114547 -0.0021924 0)
(-0.114671 -0.00323438 0)
(-0.114732 -0.00436976 0)
(-0.111797 0.00577536 0)
(-0.112452 0.00461802 0)
(-0.11303 0.00350851 0)
(-0.113537 0.00243851 0)
(-0.113978 0.00139609 0)
(-0.11436 0.00036521 0)
(-0.11469 -0.000674827 0)
(-0.114975 -0.00175003 0)
(-0.115219 -0.00289214 0)
(-0.115425 -0.00413858 0)
(-0.111959 0.00721629 0)
(-0.112664 0.00590198 0)
(-0.113291 0.00464511 0)
(-0.113845 0.00343941 0)
(-0.114332 0.00227514 0)
(-0.11476 0.00113832 0)
(-0.115137 9.73228e-06 0)
(-0.115474 -0.00113688 0)
(-0.115782 -0.00233754 0)
(-0.116074 -0.00364295 0)
(-0.112491 0.00875754 0)
(-0.113253 0.00728194 0)
(-0.113935 0.00587158 0)
(-0.114541 0.00452217 0)
(-0.115073 0.0032266 0)
(-0.115537 0.00197468 0)
(-0.115939 0.000752355 0)
(-0.116288 -0.00046054 0)
(-0.116601 -0.00169593 0)
(-0.11691 -0.00300869 0)
(-0.113499 0.0104317 0)
(-0.114347 0.00879131 0)
(-0.115116 0.00722001 0)
(-0.115809 0.00571323 0)
(-0.116428 0.00426369 0)
(-0.116972 0.0028619 0)
(-0.117441 0.00149714 0)
(-0.117836 0.000159652 0)
(-0.118168 -0.00115678 0)
(-0.11846 -0.00247477 0)
(-0.115054 0.0123114 0)
(-0.116031 0.0105194 0)
(-0.116944 0.00880259 0)
(-0.1178 0.00715471 0)
(-0.118604 0.00556541 0)
(-0.119362 0.00402231 0)
(-0.120076 0.00251332 0)
(-0.120735 0.0010301 0)
(-0.121345 -0.00035591 0)
(-0.121898 -0.00161286 0)
(-0.117143 0.0144815 0)
(-0.118277 0.0125759 0)
(-0.119367 0.010766 0)
(-0.120427 0.00904609 0)
(-0.12147 0.00740363 0)
(-0.122512 0.00582425 0)
(-0.123574 0.00431124 0)
(-0.124607 0.00277032 0)
(-0.125535 0.00133797 0)
(-0.126182 -0.000331385 0)
(-0.119693 0.0169529 0)
(-0.120978 0.0149556 0)
(-0.122227 0.0130811 0)
(-0.12346 0.0113253 0)
(-0.124691 0.0096742 0)
(-0.125885 0.00811216 0)
(-0.126994 0.00666142 0)
(-0.128014 0.00500696 0)
(-0.128598 0.00251852 0)
(-0.128291 -0.000762814 0)
(-0.1227 0.0197281 0)
(-0.124155 0.0176437 0)
(-0.125585 0.0157166 0)
(-0.12701 0.0139515 0)
(-0.128406 0.012368 0)
(-0.129764 0.010724 0)
(-0.130827 0.0085847 0)
(-0.131167 0.00579858 0)
(-0.130629 0.00164721 0)
(-0.12943 -0.00330907 0)
(-0.126097 0.0228686 0)
(-0.12775 0.0207143 0)
(-0.129385 0.0187821 0)
(-0.130984 0.0170891 0)
(-0.132482 0.0152787 0)
(-0.133505 0.0127047 0)
(-0.133772 0.00925945 0)
(-0.133349 0.00472195 0)
(-0.132365 -0.000710783 0)
(-0.131123 -0.0063192 0)
(-0.129704 0.0264208 0)
(-0.13155 0.0242165 0)
(-0.13331 0.0222542 0)
(-0.134901 0.0202088 0)
(-0.135953 0.0172547 0)
(-0.136162 0.0130663 0)
(-0.135774 0.00839289 0)
(-0.135088 0.00292962 0)
(-0.134253 -0.00276392 0)
(-0.133321 -0.00853289 0)
(-0.133141 0.0303519 0)
(-0.135031 0.0279496 0)
(-0.136665 0.0254326 0)
(-0.137757 0.0222581 0)
(-0.138184 0.0178496 0)
(-0.138157 0.0124513 0)
(-0.137834 0.00716613 0)
(-0.137298 0.00163986 0)
(-0.136756 -0.00418928 0)
(-0.136228 -0.00998535 0)
(-0.135994 0.0343281 0)
(-0.137715 0.0312486 0)
(-0.138938 0.0277661 0)
(-0.139661 0.0232978 0)
(-0.13998 0.0179593 0)
(-0.140102 0.0123822 0)
(-0.14013 0.00672593 0)
(-0.140089 0.000968409 0)
(-0.139957 -0.00487932 0)
(-0.13976 -0.0107261 0)
(-0.139319 0.0374937 0)
(-0.140461 0.0334895 0)
(-0.141273 0.0293274 0)
(-0.141965 0.0242835 0)
(-0.142506 0.018739 0)
(-0.142999 0.0129973 0)
(-0.143405 0.00711836 0)
(-0.143688 0.0011486 0)
(-0.143857 -0.00487382 0)
(-0.143922 -0.0108958 0)
(-0.142485 0.0401805 0)
(-0.143757 0.0353261 0)
(-0.144755 0.0307594 0)
(-0.145551 0.0256357 0)
(-0.146292 0.0200329 0)
(-0.146985 0.0141187 0)
(-0.147571 0.00802553 0)
(-0.148043 0.00182477 0)
(-0.148402 -0.00442908 0)
(-0.148646 -0.0106837 0)
(-0.145155 0.0431946 0)
(-0.146859 0.0380914 0)
(-0.148317 0.0329707 0)
(-0.149449 0.0274828 0)
(-0.150421 0.0216282 0)
(-0.151281 0.0155143 0)
(-0.152042 0.00922096 0)
(-0.152701 0.00280832 0)
(-0.15325 -0.00367095 0)
(-0.153679 -0.0101681 0)
(-0.147526 0.0469363 0)
(-0.14941 0.0415387 0)
(-0.151105 0.0358451 0)
(-0.152628 0.0299198 0)
(-0.153989 0.0237744 0)
(-0.155203 0.0174244 0)
(-0.156288 0.0109066 0)
(-0.157248 0.00426341 0)
(-0.15808 -0.00246185 0)
(-0.158776 -0.00922578 0)
(-0.149413 0.0511775 0)
(-0.151596 0.0454175 0)
(-0.153621 0.0394038 0)
(-0.155495 0.0331641 0)
(-0.157225 0.0267191 0)
(-0.158814 0.0200887 0)
(-0.160268 0.0133001 0)
(-0.161587 0.00638538 0)
(-0.162769 -0.000620825 0)
(-0.163805 -0.00768168 0)
(-0.150851 0.0560069 0)
(-0.153345 0.0499462 0)
(-0.155706 0.0436497 0)
(-0.157938 0.0371328 0)
(-0.160042 0.030414 0)
(-0.162018 0.0235137 0)
(-0.163866 0.0164554 0)
(-0.165584 0.00926565 0)
(-0.167167 0.00197355 0)
(-0.168609 -0.00538897 0)
(-0.151717 0.0614272 0)
(-0.154517 0.0551247 0)
(-0.157211 0.0485897 0)
(-0.159799 0.0418356 0)
(-0.162281 0.0348787 0)
(-0.164653 0.0277374 0)
(-0.166914 0.0204324 0)
(-0.169058 0.0129869 0)
(-0.17108 0.00542671 0)
(-0.172974 -0.00221943 0)
(-0.151856 0.0674196 0)
(-0.154949 0.0609344 0)
(-0.157965 0.0542142 0)
(-0.160901 0.0472714 0)
(-0.163755 0.0401207 0)
(-0.166523 0.0327788 0)
(-0.1692 0.0252641 0)
(-0.17178 0.0175977 0)
(-0.174258 0.00980339 0)
(-0.176625 0.00190832 0)
(-0.151103 0.0739489 0)
(-0.154465 0.0673411 0)
(-0.15778 0.0604927 0)
(-0.161044 0.0534151 0)
(-0.164253 0.0461214 0)
(-0.1674 0.0386263 0)
(-0.17048 0.0309464 0)
(-0.173485 0.023101 0)
(-0.176407 0.0151126 0)
(-0.179236 0.00700792 0)
(-0.149287 0.0809587 0)
(-0.152884 0.0742887 0)
(-0.156465 0.0673712 0)
(-0.160024 0.0602154 0)
(-0.163555 0.052832 0)
(-0.16705 0.0452331 0)
(-0.170501 0.0374328 0)
(-0.173897 0.0294485 0)
(-0.177225 0.021301 0)
(-0.180473 0.0130165 0)
(-0.146242 0.0883683 0)
(-0.150029 0.0816972 0)
(-0.153829 0.0747703 0)
(-0.157637 0.0675934 0)
(-0.161445 0.0601735 0)
(-0.165243 0.0525185 0)
(-0.169018 0.0446385 0)
(-0.172753 0.036547 0)
(-0.176432 0.028262 0)
(-0.180035 0.0198079 0)
(-0.141822 0.0960731 0)
(-0.14574 0.0894622 0)
(-0.149702 0.0825865 0)
(-0.153702 0.0754463 0)
(-0.157732 0.0680427 0)
(-0.161776 0.060377 0)
(-0.165818 0.0524526 0)
(-0.169835 0.0442763 0)
(-0.173801 0.0358601 0)
(-0.177686 0.0272234 0)
(-0.135903 0.103945 0)
(-0.139883 0.0974576 0)
(-0.143941 0.0906957 0)
(-0.148069 0.0836526 0)
(-0.152257 0.0763202 0)
(-0.156487 0.0686902 0)
(-0.160737 0.0607553 0)
(-0.164978 0.0525113 0)
(-0.169172 0.0439597 0)
(-0.173276 0.0351109 0)
(-0.128403 0.111838 0)
(-0.132369 0.105538 0)
(-0.136446 0.0989572 0)
(-0.140629 0.0920771 0)
(-0.144907 0.0848781 0)
(-0.149262 0.0773378 0)
(-0.153664 0.0694332 0)
(-0.158079 0.0611438 0)
(-0.162458 0.0524539 0)
(-0.166743 0.0433583 0)
(-0.119294 0.119586 0)
(-0.12316 0.113543 0)
(-0.127173 0.107216 0)
(-0.131332 0.100574 0)
(-0.135627 0.0935841 0)
(-0.140042 0.086204 0)
(-0.144547 0.0783899 0)
(-0.149099 0.0700973 0)
(-0.153642 0.0612852 0)
(-0.158102 0.0519231 0)
(-0.108621 0.127012 0)
(-0.112293 0.121295 0)
(-0.116149 0.1153 0)
(-0.120196 0.108986 0)
(-0.124429 0.102299 0)
(-0.128837 0.0951765 0)
(-0.133394 0.0875471 0)
(-0.138056 0.0793339 0)
(-0.142764 0.0704594 0)
(-0.147433 0.0608541 0)
(-0.0965194 0.133923 0)
(-0.0998989 0.128599 0)
(-0.103499 0.12302 0)
(-0.107335 0.117133 0)
(-0.111414 0.110866 0)
(-0.115736 0.104132 0)
(-0.120286 0.0968274 0)
(-0.125031 0.0888359 0)
(-0.129914 0.080031 0)
(-0.134851 0.0702865 0)
(-0.0832327 0.140125 0)
(-0.0862257 0.135253 0)
(-0.0894693 0.130171 0)
(-0.0929914 0.124814 0)
(-0.0968156 0.1191 0)
(-0.100959 0.112918 0)
(-0.105428 0.106134 0)
(-0.110208 0.0985857 0)
(-0.115258 0.0900934 0)
(-0.120518 0.0804652 0)
(-0.0691292 0.145452 0)
(-0.0716601 0.141072 0)
(-0.0744617 0.136551 0)
(-0.0775759 0.131823 0)
(-0.081045 0.126799 0)
(-0.08491 0.121354 0)
(-0.0892039 0.115328 0)
(-0.0939379 0.108516 0)
(-0.0990838 0.100675 0)
(-0.104598 0.0915364 0)
(-0.0546877 0.149787 0)
(-0.0567184 0.145918 0)
(-0.0590305 0.142001 0)
(-0.0616784 0.137977 0)
(-0.0647223 0.13376 0)
(-0.0682292 0.129223 0)
(-0.0722731 0.12418 0)
(-0.0769254 0.118357 0)
(-0.0822409 0.111373 0)
(-0.0882852 0.102846 0)
(-0.0404279 0.153106 0)
(-0.0419826 0.149751 0)
(-0.0438303 0.146458 0)
(-0.0460374 0.143185 0)
(-0.0486827 0.139863 0)
(-0.0518692 0.136383 0)
(-0.0557371 0.132569 0)
(-0.0604273 0.128198 0)
(-0.0660572 0.123219 0)
(-0.0739083 0.118253 0)
(-0.0268044 0.155548 0)
(-0.0279725 0.152743 0)
(-0.029466 0.150145 0)
(-0.0313752 0.147744 0)
(-0.0338232 0.145514 0)
(-0.0370001 0.143394 0)
(-0.0411028 0.141303 0)
(-0.0460808 0.139417 0)
(-0.0532386 0.139459 0)
(-0.0658753 0.143975 0)
(-0.0139626 0.157279 0)
(-0.0147649 0.155084 0)
(-0.0158998 0.153287 0)
(-0.0174727 0.151932 0)
(-0.0196426 0.151056 0)
(-0.022629 0.150673 0)
(-0.0264637 0.150851 0)
(-0.032117 0.153216 0)
(-0.0414079 0.161739 0)
(-0.0526882 0.166395 0)
(-0.00188454 0.158227 0)
(-0.00224072 0.156578 0)
(-0.0028583 0.155493 0)
(-0.00382201 0.155057 0)
(-0.00526243 0.15535 0)
(-0.00730582 0.156454 0)
(-0.00993625 0.159051 0)
(-0.014756 0.168135 0)
(-0.0233749 0.183758 0)
(-0.0278754 0.172157 0)
(0.00926179 0.158346 0)
(0.0093412 0.157109 0)
(0.00922709 0.156573 0)
(0.00884124 0.156859 0)
(0.00807559 0.158101 0)
(0.00687341 0.160545 0)
(0.00422366 0.166553 0)
(5.59812e-05 0.181878 0)
(-0.00636253 0.192681 0)
(-0.00593783 0.170613 0)
(0.0195739 0.157615 0)
(0.0201543 0.156622 0)
(0.0206706 0.156431 0)
(0.0210911 0.157198 0)
(0.0213439 0.159102 0)
(0.0213449 0.162483 0)
(0.019949 0.172262 0)
(0.0179866 0.192232 0)
(0.0153984 0.195103 0)
(0.0171826 0.166637 0)
(0.0290058 0.155954 0)
(0.030094 0.154935 0)
(0.0312852 0.154743 0)
(0.032614 0.155555 0)
(0.0340137 0.157584 0)
(0.0351559 0.161487 0)
(0.0363109 0.17383 0)
(0.0377119 0.194944 0)
(0.0384929 0.193746 0)
(0.0405766 0.163798 0)
(0.0374853 0.153431 0)
(0.0389979 0.152084 0)
(0.0407795 0.151496 0)
(0.0429363 0.151869 0)
(0.0454621 0.153463 0)
(0.0477766 0.156993 0)
(0.0513725 0.168808 0)
(0.0567967 0.189259 0)
(0.0606214 0.188583 0)
(0.0635789 0.160361 0)
(0.044944 0.150304 0)
(0.0467048 0.148362 0)
(0.0488591 0.147019 0)
(0.0515804 0.146458 0)
(0.0550096 0.146915 0)
(0.0583273 0.148836 0)
(0.063893 0.156941 0)
(0.073499 0.176044 0)
(0.0822209 0.17932 0)
(0.0871534 0.155938 0)
(0.0514782 0.146947 0)
(0.0532866 0.144239 0)
(0.0555512 0.141901 0)
(0.0584542 0.140065 0)
(0.0622489 0.138862 0)
(0.066449 0.13848 0)
(0.0721744 0.140851 0)
(0.0827182 0.15175 0)
(0.0975038 0.16117 0)
(0.106494 0.149332 0)
(0.0572813 0.143741 0)
(0.0589493 0.140198 0)
(0.0610721 0.136783 0)
(0.0637806 0.133574 0)
(0.0672936 0.13061 0)
(0.0718115 0.127899 0)
(0.0768595 0.125808 0)
(0.0843037 0.125681 0)
(0.0993994 0.130593 0)
(0.115278 0.129992 0)
(0.0627253 0.140956 0)
(0.0641582 0.136609 0)
(0.0660074 0.13221 0)
(0.0683352 0.127788 0)
(0.0712575 0.12332 0)
(0.0749782 0.118708 0)
(0.0796119 0.113825 0)
(0.0848573 0.108761 0)
(0.0919272 0.103995 0)
(0.103888 0.0987866 0)
(0.0683416 0.138657 0)
(0.0695702 0.133551 0)
(0.0711361 0.128365 0)
(0.0730634 0.12305 0)
(0.0754052 0.117541 0)
(0.0782339 0.111721 0)
(0.0816373 0.105382 0)
(0.0855818 0.0982738 0)
(0.0900159 0.090395 0)
(0.0949683 0.0821008 0)
(0.0749578 0.136923 0)
(0.0758695 0.131221 0)
(0.0771096 0.125326 0)
(0.0787269 0.119252 0)
(0.0807397 0.112954 0)
(0.0831642 0.10633 0)
(0.0860059 0.0992267 0)
(0.0892681 0.0914088 0)
(0.0929524 0.0825937 0)
(0.0969063 0.0721796 0)
(0.0804239 0.135017 0)
(0.0815938 0.129073 0)
(0.0828541 0.122667 0)
(0.0844287 0.1158 0)
(0.0864727 0.108649 0)
(0.0889472 0.101177 0)
(0.0918484 0.0932746 0)
(0.0951673 0.084777 0)
(0.0988578 0.0754675 0)
(0.102817 0.0650697 0)
(0.083634 0.131765 0)
(0.0855242 0.126205 0)
(0.0873089 0.119488 0)
(0.0891895 0.111988 0)
(0.0913571 0.104013 0)
(0.0940347 0.0956558 0)
(0.0971238 0.0868855 0)
(0.1006 0.0775772 0)
(0.104433 0.0675968 0)
(0.108542 0.0568191 0)
(0.08499 0.126902 0)
(0.0876273 0.121895 0)
(0.0900119 0.11541 0)
(0.0924225 0.107579 0)
(0.0948985 0.0987393 0)
(0.0977353 0.0896679 0)
(0.101002 0.0801551 0)
(0.104643 0.0701177 0)
(0.108643 0.059508 0)
(0.112939 0.0482882 0)
(0.0851437 0.120953 0)
(0.0884157 0.116223 0)
(0.0915333 0.109936 0)
(0.0945212 0.102304 0)
(0.0972503 0.0931202 0)
(0.0999627 0.0834371 0)
(0.103208 0.0731408 0)
(0.107011 0.0622908 0)
(0.111308 0.050965 0)
(0.116008 0.0392023 0)
(0.0839032 0.113848 0)
(0.0876825 0.109068 0)
(0.0915327 0.102742 0)
(0.0948364 0.0964814 0)
(0.0973356 0.088361 0)
(0.0996466 0.0779151 0)
(0.102931 0.0662143 0)
(0.107221 0.0539916 0)
(0.112228 0.0415317 0)
(0.117797 0.0289112 0)
(0.0781679 0.106299 0)
(0.0819106 0.101612 0)
(0.0852423 0.0963796 0)
(0.088067 0.0914522 0)
(0.0911356 0.0834295 0)
(0.0947334 0.0707345 0)
(0.0989145 0.0574149 0)
(0.104372 0.0435547 0)
(0.111013 0.0296568 0)
(0.118382 0.0159478 0)
(0.0685319 0.0985571 0)
(0.0728893 0.0936567 0)
(0.0774363 0.0887276 0)
(0.0819786 0.0835703 0)
(0.0863435 0.0768072 0)
(0.0902838 0.0636812 0)
(0.0942717 0.0471692 0)
(0.1003 0.0302682 0)
(0.108874 0.0141765 0)
(0.119096 -0.00128494 0)
(0.0527081 0.0902741 0)
(0.0572443 0.0845668 0)
(0.0623991 0.0790207 0)
(0.0675567 0.0737791 0)
(0.0720806 0.0685701 0)
(0.0767559 0.0566885 0)
(0.0833562 0.034006 0)
(0.0917641 0.0117978 0)
(0.103825 -0.00868533 0)
(0.119194 -0.0276562 0)
(0.0295823 0.0814812 0)
(0.0343924 0.0739164 0)
(0.0406992 0.0664652 0)
(0.0484547 0.0595535 0)
(0.0563655 0.0536042 0)
(0.0640373 0.0450318 0)
(0.0733398 0.0189844 0)
(0.083566 -0.011457 0)
(0.0990103 -0.0405094 0)
(0.120012 -0.0663618 0)
(-0.00720926 0.0742899 0)
(-0.00500693 0.0636748 0)
(-0.00160353 0.0526919 0)
(0.00320673 0.0422559 0)
(0.0103093 0.0355793 0)
(0.018749 0.029315 0)
(0.0394191 0.0027426 0)
(0.0717793 -0.0465113 0)
(0.0978563 -0.076318 0)
(0.124875 -0.104279 0)
(-0.0602473 0.0747063 0)
(-0.0638979 0.0613008 0)
(-0.0657126 0.0494307 0)
(-0.0635132 0.0426852 0)
(-0.0592051 0.0314332 0)
(-0.0439255 -0.00742631 0)
(-0.0027582 -0.059308 0)
(0.0449107 -0.118946 0)
(0.0951035 -0.161752 0)
(0.153088 -0.20555 0)
(-0.127976 0.0875575 0)
(-0.13489 0.0784626 0)
(-0.137732 0.0681444 0)
(-0.130635 0.0380666 0)
(-0.0918942 -0.031186 0)
(-0.0343122 -0.116342 0)
(0.031381 -0.190676 0)
(0.0890984 -0.24744 0)
(0.142455 -0.288619 0)
(0.196158 -0.319271 0)
(-0.204229 0.124414 0)
(-0.205122 0.0932577 0)
(-0.175948 0.0307362 0)
(-0.126371 -0.0727415 0)
(-0.0659395 -0.164687 0)
(-0.0055387 -0.242562 0)
(0.0531683 -0.299446 0)
(0.10769 -0.343591 0)
(0.161976 -0.383125 0)
(0.218482 -0.418979 0)
(-0.275626 0.109342 0)
(-0.238148 0.00475246 0)
(-0.172158 -0.104023 0)
(-0.114369 -0.19227 0)
(-0.0607026 -0.269861 0)
(-0.00223016 -0.344937 0)
(0.0580704 -0.408754 0)
(0.120933 -0.461567 0)
(0.185958 -0.506477 0)
(0.251263 -0.54505 0)
(-0.260374 0.0123917 0)
(-0.222142 -0.0962392 0)
(-0.179911 -0.197404 0)
(-0.125159 -0.297162 0)
(-0.0632443 -0.390783 0)
(0.00333378 -0.473158 0)
(0.0726972 -0.542737 0)
(0.143184 -0.599488 0)
(0.213638 -0.644709 0)
(0.282747 -0.680231 0)
(-0.246694 -0.0431396 0)
(-0.214614 -0.167375 0)
(-0.175429 -0.294645 0)
(-0.122575 -0.418354 0)
(-0.0555226 -0.528229 0)
(0.0186027 -0.618669 0)
(0.0943565 -0.690151 0)
(0.168864 -0.745417 0)
(0.24065 -0.787075 0)
(0.308961 -0.817208 0)
(-0.199964 -0.0931005 0)
(-0.18494 -0.231081 0)
(-0.156962 -0.381697 0)
(-0.105872 -0.53995 0)
(-0.0320978 -0.675913 0)
(0.0483259 -0.775023 0)
(0.125861 -0.844181 0)
(0.198358 -0.892428 0)
(0.265596 -0.925306 0)
(0.327673 -0.946002 0)
(-0.128488 -0.115273 0)
(-0.145395 -0.252322 0)
(-0.134727 -0.454587 0)
(-0.0647297 -0.682612 0)
(0.0150969 -0.83927 0)
(0.093485 -0.932608 0)
(0.1654 -0.989688 0)
(0.228553 -1.02502 0)
(0.284891 -1.04579 0)
(0.335793 -1.05532 0)
(-0.0537914 -0.066825 0)
(-0.130069 -0.135387 0)
(-0.108587 -0.576339 0)
(0.0169206 -0.864015 0)
(0.0820662 -1.0017 0)
(0.143768 -1.07092 0)
(0.202669 -1.1096 0)
(0.251853 -1.13065 0)
(0.294273 -1.13976 0)
(0.332223 -1.13922 0)
(-0.0125734 -0.00688577 0)
(-0.149132 0.0413995 0)
(-0.0097892 -0.809632 0)
(0.0964646 -1.0443 0)
(0.142713 -1.13628 0)
(0.184806 -1.17677 0)
(0.228049 -1.19777 0)
(0.263263 -1.20701 0)
(0.292939 -1.20712 0)
(0.319318 -1.19881 0)
(0.0179192 0.0502634 0)
(-0.066816 0.0693825 0)
(0.112538 -1.02482 0)
(0.159841 -1.18385 0)
(0.1878 -1.23025 0)
(0.214368 -1.24849 0)
(0.242336 -1.25706 0)
(0.265191 -1.2583 0)
(0.284485 -1.25225 0)
(0.30157 -1.23835 0)
(0.0522847 0.0586048 0)
(0.0568034 -0.0489985 0)
(0.18731 -1.16009 0)
(0.200555 -1.25485 0)
(0.215101 -1.28034 0)
(0.23108 -1.28978 0)
(0.246948 -1.29284 0)
(0.260274 -1.28991 0)
(0.271801 -1.28017 0)
(0.281912 -1.26255 0)
(0.0501059 0.0800851 0)
(0.0817597 -0.165597 0)
(0.213358 -1.20623 0)
(0.220056 -1.28653 0)
(0.226544 -1.30446 0)
(0.234944 -1.31129 0)
(0.242974 -1.31249 0)
(0.249918 -1.30762 0)
(0.256044 -1.29576 0)
(0.261214 -1.27581 0)
(-0.00565041 0.123936 0)
(0.0853041 -0.766642 0)
(0.206614 -1.24307 0)
(0.221618 -1.30108 0)
(0.225041 -1.31586 0)
(0.228885 -1.32171 0)
(0.232354 -1.32194 0)
(0.235283 -1.31593 0)
(0.237614 -1.30245 0)
(0.238789 -1.28024 0)
(0.00951586 0.134389 0)
(0.188286 -1.13286 0)
(0.208616 -1.27216 0)
(0.215667 -1.30855 0)
(0.2171 -1.32012 0)
(0.217668 -1.32504 0)
(0.21808 -1.32476 0)
(0.218423 -1.318 0)
(0.218376 -1.30315 0)
(0.217224 -1.2786 0)
(0.0616352 0.0356084 0)
(0.20342 -1.20975 0)
(0.203053 -1.29169 0)
(0.203684 -1.31043 0)
(0.203141 -1.31894 0)
(0.201951 -1.32383 0)
(0.2009 -1.32368 0)
(0.199876 -1.31656 0)
(0.198478 -1.30062 0)
(0.196142 -1.27403 0)
(0.0405011 -0.370738 0)
(0.18153 -1.23543 0)
(0.189102 -1.293 0)
(0.187854 -1.3062 0)
(0.185625 -1.31522 0)
(0.183757 -1.32093 0)
(0.182191 -1.32102 0)
(0.180502 -1.31348 0)
(0.178272 -1.29658 0)
(0.175183 -1.26856 0)
(0.127232 -1.04368 0)
(0.163469 -1.23705 0)
(0.171508 -1.28364 0)
(0.169886 -1.30024 0)
(0.16712 -1.31102 0)
(0.164837 -1.31724 0)
(0.162757 -1.31719 0)
(0.160435 -1.30911 0)
(0.15747 -1.29148 0)
(0.153793 -1.26272 0)
(0.135922 -1.11352 0)
(0.149514 -1.24687 0)
(0.152945 -1.28152 0)
(0.151404 -1.29588 0)
(0.148477 -1.30619 0)
(0.145655 -1.31223 0)
(0.142834 -1.31161 0)
(0.139409 -1.30238 0)
(0.134526 -1.28328 0)
(0.128454 -1.25338 0)
(0.132572 -1.19958 0)
(0.136076 -1.26278 0)
(0.135825 -1.27855 0)
(0.13307 -1.28985 0)
(0.129842 -1.30026 0)
(0.127025 -1.30635 0)
(0.124129 -1.30482 0)
(0.120377 -1.29369 0)
(0.11474 -1.27198 0)
(0.108185 -1.23981 0)
(0.114769 -1.19949 0)
(0.120093 -1.25738 0)
(0.118064 -1.27059 0)
(0.114812 -1.2833 0)
(0.112112 -1.29485 0)
(0.109905 -1.30094 0)
(0.107421 -1.29819 0)
(0.103852 -1.2847 0)
(0.0981431 -1.25973 0)
(0.0918402 -1.22398 0)
(0.101447 -1.20752 0)
(0.104235 -1.24568 0)
(0.102086 -1.26281 0)
(0.0991277 -1.27801 0)
(0.0969287 -1.29062 0)
(0.0952736 -1.29658 0)
(0.0934023 -1.29253 0)
(0.090504 -1.27657 0)
(0.0856674 -1.24803 0)
(0.0805507 -1.20771 0)
(0.0879662 -1.20865 0)
(0.0875498 -1.24162 0)
(0.0866833 -1.25826 0)
(0.0848556 -1.27429 0)
(0.0834497 -1.28776 0)
(0.0825975 -1.29386 0)
(0.0817172 -1.28891 0)
(0.0801184 -1.27098 0)
(0.0771225 -1.23961 0)
(0.0739881 -1.19551 0)
(0.0757388 -1.21791 0)
(0.0744122 -1.23979 0)
(0.0734866 -1.25488 0)
(0.0721091 -1.27182 0)
(0.071385 -1.28651 0)
(0.0712949 -1.29316 0)
(0.0713548 -1.28789 0)
(0.0710765 -1.2688 0)
(0.069972 -1.23569 0)
(0.0689653 -1.18934 0)
(0.0649763 -1.21836 0)
(0.0631646 -1.23596 0)
(0.061944 -1.2516 0)
(0.0607775 -1.27021 0)
(0.0605391 -1.28639 0)
(0.0608647 -1.2938 0)
(0.0613447 -1.28861 0)
(0.0616976 -1.26902 0)
(0.061641 -1.23471 0)
(0.0623839 -1.18536 0)
(0.0549754 -1.21381 0)
(0.0531127 -1.23071 0)
(0.0517831 -1.24845 0)
(0.0509095 -1.26919 0)
(0.0510179 -1.28672 0)
(0.0514574 -1.29473 0)
(0.051943 -1.28984 0)
(0.0525309 -1.27044 0)
(0.0534007 -1.23565 0)
(0.056239 -1.18322 0)
(0.0439442 -1.20412 0)
(0.042898 -1.22476 0)
(0.0422735 -1.2461 0)
(0.0422709 -1.26903 0)
(0.0429039 -1.28735 0)
(0.0433932 -1.2954 0)
(0.0436764 -1.29082 0)
(0.0443541 -1.27252 0)
(0.0465525 -1.23867 0)
(0.052247 -1.18436 0)
(0.0322032 -1.19282 0)
(0.0324539 -1.22102 0)
(0.0335954 -1.24648 0)
(0.0351003 -1.27088 0)
(0.0365305 -1.28905 0)
(0.037243 -1.29637 0)
(0.0374503 -1.29203 0)
(0.0384507 -1.27573 0)
(0.0423764 -1.24454 0)
(0.049762 -1.18989 0)
(0.0221349 -1.18561 0)
(0.0232294 -1.22233 0)
(0.0263961 -1.25083 0)
(0.0293812 -1.27536 0)
(0.0315475 -1.29247 0)
(0.0326633 -1.2986 0)
(0.0333693 -1.29483 0)
(0.0357649 -1.28223 0)
(0.0422562 -1.25778 0)
(0.0491707 -1.21201 0)
(0.0134404 -1.18675 0)
(0.0166945 -1.22857 0)
(0.0210367 -1.25782 0)
(0.0245346 -1.28107 0)
(0.0267264 -1.29646 0)
(0.0275775 -1.30107 0)
(0.0281444 -1.29793 0)
(0.0304567 -1.28984 0)
(0.0360738 -1.27525 0)
(0.0383679 -1.2468 0)
(0.00885855 -1.19379 0)
(0.0126236 -1.23733 0)
(0.0167353 -1.26484 0)
(0.020021 -1.28612 0)
(0.0216422 -1.29919 0)
(0.0214772 -1.30182 0)
(0.0210961 -1.29845 0)
(0.0211965 -1.29301 0)
(0.0223512 -1.28593 0)
(0.0204981 -1.27437 0)
(0.005186 -1.21342 0)
(0.00884707 -1.2489 0)
(0.0126559 -1.27166 0)
(0.0159927 -1.29044 0)
(0.0170208 -1.29984 0)
(0.015484 -1.30023 0)
(0.0142324 -1.2959 0)
(0.0122708 -1.2905 0)
(0.00967748 -1.28564 0)
(0.00623298 -1.28042 0)
(0.0152278 -1.23232 0)
(0.0136748 -1.2557 0)
(0.0138513 -1.27542 0)
(0.0152221 -1.29291 0)
(0.014545 -1.29706 0)
(0.0107999 -1.296 0)
(0.00868647 -1.29087 0)
(0.00523792 -1.28401 0)
(0.000212899 -1.27856 0)
(-0.00424291 -1.2746 0)
(0.0208064 -1.23465 0)
(0.0162535 -1.25222 0)
(0.0149745 -1.27553 0)
(0.0151787 -1.2926 0)
(0.0134656 -1.29025 0)
(0.00750787 -1.28923 0)
(0.0050107 -1.28424 0)
(0.00110027 -1.27497 0)
(-0.00508703 -1.26719 0)
(-0.0101352 -1.26282 0)
(0.0231882 -1.22149 0)
(0.0178983 -1.24287 0)
(0.0174517 -1.27684 0)
(0.0155031 -1.28935 0)
(0.0137158 -1.28059 0)
(0.00551673 -1.28063 0)
(0.00291398 -1.27753 0)
(-0.000558906 -1.26556 0)
(-0.00684037 -1.2536 0)
(-0.0120607 -1.2476 0)
(0.0216001 -1.19186 0)
(0.0169701 -1.23314 0)
(0.0216599 -1.28222 0)
(0.0150289 -1.28143 0)
(0.0147253 -1.26927 0)
(0.0043109 -1.27039 0)
(0.00170712 -1.2717 0)
(-0.00083745 -1.25834 0)
(-0.00570643 -1.2396 0)
(-0.010488 -1.22922 0)
(0.0172482 -1.14139 0)
(0.012753 -1.23296 0)
(0.0281186 -1.28944 0)
(0.0131826 -1.26805 0)
(0.0153465 -1.25686 0)
(0.00276699 -1.25834 0)
(0.000561918 -1.26556 0)
(-0.00208832 -1.25596 0)
(-0.00202961 -1.22752 0)
(-0.00513501 -1.20569 0)
(0.0162424 -1.05955 0)
(0.00423914 -1.25441 0)
(0.0344312 -1.2908 0)
(0.00984569 -1.25184 0)
(0.0143218 -1.24425 0)
(0.000493368 -1.24541 0)
(0.000328021 -1.25509 0)
(-0.00781295 -1.25979 0)
(0.00402359 -1.22263 0)
(0.00140424 -1.16902 0)
(0.0236817 -0.952999 0)
(-0.00887343 -1.29852 0)
(0.0345159 -1.28398 0)
(0.00530716 -1.23748 0)
(0.0116204 -1.23308 0)
(-0.000398458 -1.23407 0)
(0.00501835 -1.23935 0)
(-0.0165702 -1.26802 0)
(0.0168275 -1.24984 0)
(-0.00202454 -1.09439 0)
(-0.103667 -0.00147667 0)
(-0.102297 -0.00177567 0)
(-0.100641 -0.0021086 0)
(-0.0986755 -0.00247334 0)
(-0.0963788 -0.00286296 0)
(-0.0937391 -0.00326555 0)
(-0.0907574 -0.00366394 0)
(-0.0874521 -0.0040348 0)
(-0.0838641 -0.00434684 0)
(-0.0800636 -0.0045581 0)
(-0.0761598 -0.00461319 0)
(-0.0723101 -0.00444187 0)
(-0.068729 -0.00396112 0)
(-0.0656882 -0.00309144 0)
(-0.0634962 -0.00182323 0)
(-0.0624051 -0.000335462 0)
(-0.0623799 0.00100117 0)
(-0.0630039 0.00179896 0)
(-0.0638401 0.00179204 0)
(-0.0643145 0.000885399 0)
(-0.0637173 -0.000564183 0)
(-0.061928 -0.00195788 0)
(-0.0592029 -0.00305089 0)
(-0.0557271 -0.00399714 0)
(-0.0515063 -0.00490258 0)
(-0.0465935 -0.00569391 0)
(-0.0411436 -0.00630932 0)
(-0.0353263 -0.00671726 0)
(-0.0293161 -0.00689994 0)
(-0.0233024 -0.00683219 0)
(-0.0174968 -0.00648089 0)
(-0.0121359 -0.00583287 0)
(-0.00745557 -0.00494216 0)
(-0.0036024 -0.00396834 0)
(-0.000533229 -0.00308128 0)
(0.00189184 -0.00230171 0)
(0.00380214 -0.00125581 0)
(0.00474589 0.000816268 0)
(0.00398015 0.00252832 0)
(0.00256014 0.00406183 0)
(-0.109966 -0.0031822 0)
(-0.108929 -0.0038806 0)
(-0.107661 -0.00464709 0)
(-0.106147 -0.00547148 0)
(-0.104376 -0.00633452 0)
(-0.102343 -0.00720743 0)
(-0.100055 -0.00805163 0)
(-0.09753 -0.00881747 0)
(-0.0947965 -0.00944103 0)
(-0.091899 -0.0098394 0)
(-0.0888999 -0.00990609 0)
(-0.0858842 -0.00951118 0)
(-0.0829646 -0.008512 0)
(-0.0802957 -0.00679069 0)
(-0.0780955 -0.00437593 0)
(-0.0765607 -0.00172188 0)
(-0.0756072 0.000267389 0)
(-0.0748022 0.000959632 0)
(-0.0738312 0.000494058 0)
(-0.0725691 -0.00124125 0)
(-0.0707756 -0.00386727 0)
(-0.0682807 -0.00644454 0)
(-0.065234 -0.00849152 0)
(-0.0617125 -0.0103517 0)
(-0.057662 -0.0121643 0)
(-0.0531464 -0.0136746 0)
(-0.0483091 -0.0147756 0)
(-0.0432616 -0.0154553 0)
(-0.0380908 -0.0156886 0)
(-0.0328873 -0.0154233 0)
(-0.0277711 -0.0145804 0)
(-0.0229221 -0.0130949 0)
(-0.0185824 -0.0110677 0)