/*--------------------------------*- C++ -*----------------------------------*\
  =========                 |
  \\      /  F ield         | OpenFOAM: The Open Source CFD Toolbox
   \\    /   O peration     | Website:  https://openfoam.org
    \\  /    A nd           | Version:  8
     \\/     M anipulation  |
\*---------------------------------------------------------------------------*/
FoamFile
{
    version     2.0;
    format      ascii;
    class       volScalarField;
    location    "3.35";
    object      alpha.water;
}
// * * * * * * * * * * * * * * * * * * * * * * * * * * * * * * * * * * * * * //

dimensions      [0 0 0 0 0 0 0];

internalField   nonuniform List<scalar> 
9150
(
1
1
1
1
1
1
1
1
1
1
1
1
1
1
1
1
1
1
1
1
1
1
1
1
1
1
1
1
1
1
1
1
1
1
1
1
1
1
1
1
1
1
1
1
1
1
1
1
1
1
1
0.999999
1
1
1
1
1
1
1
0.999999
0.999999
0.999999
1
1
1
1
1
1
1
1
0.999999
1
1
1
1
1
1
1
1
1
1
1
1
1
1
1
1
1
1
1
1
1
1
1
1
1
1
1
1
1
1
1
1
1
1
1
1
1
1
1
1
0.999999
0.999999
1
1
1
1
1
0.999999
1
1
0.999999
0.999999
1
0.999999
1
1
1
0.999999
0.999999
1
0.999999
0.999999
1
1
1
1
1
0.999999
0.999999
1
0.999999
1
1
1
1
1
1
0.999999
0.999999
0.999998
1
1
1
1
1
1
1
1
1
1
1
1
1
1
1
1
0.999999
0.999999
0.999998
1
1
1
1
1
1
0.999967
0.999906
0.999914
0.999999
1
1
1
0.999999
0.999995
0.999893
0.99976
0.99976
0.999777
0.999992
1
1
0.999989
0.999803
0.999759
0.999759
0.999759
0.999783
0.999992
1
1
0.999999
0.999967
0.999761
0.999759
0.999759
0.999805
1
1
1
0.999997
0.999999
0.999997
0.999997
0.999995
0.999893
0.999802
0.999992
1
1
0.999998
0.999987
0.999981
0.999984
1
1
1
0.999999
0.999993
0.999992
0.99817
1
1
1
1
1
1
1
0.99991
0.999838
0.988391
1
1
1
1
1
1
1
0.999996
0.999931
0.999805
0.999993
1
1
1
1
1
0.999996
0.978036
0.816543
1
1
1
1
1
0.999995
0.999916
0.953749
0.78281
0.782716
1
1
0.999981
0.999959
0.999952
0.999948
0.999924
0.977698
0.804068
0.78276
1
0.999999
0.999713
0.999148
0.999152
0.999406
0.999999
0.999936
0.996809
0.943481
0.999716
0.999136
0.999137
0.999138
0.999564
1
1
1
0.999978
0.995472
0.999137
0.999136
0.999137
0.999217
0.999988
1
1
1
0.999989
0.999973
0.999138
0.999137
0.999138
0.999613
1
1
1
1
1
1
0.99996
0.99982
0.999374
0.999499
0.999999
1
1
1
0.999999
0.999999
1
0.999998
0.999988
0.999982
0.999996
1
1
1
0.999996
0.999982
1
1
1
1
1
1
1
1
1
0.999963
1
1
1
1
1
1
0.999994
0.999957
0.99995
0.999974
1
1
1
1
1
0.999999
0.999989
0.999803
0.997034
0.981126
1
1
1
1
1
0.999999
0.999994
0.999908
0.82068
0.538248
1
1
1
1
1
1
1
1
1
0.987816
1
1
1
1
1
1
1
1
1
1
0.999972
0.999961
0.999958
0.999994
1
1
1
1
1
1
0.999292
0.996449
0.997331
1
1
1
1
1
1
1
0.994681
0.994689
0.99538
1
1
1
1
1
1
1
0.994681
0.994682
0.994695
0.998654
1
1
1
1
0.999935
0.99976
0.99468
0.994681
0.994684
0.998732
1
1
0.999999
0.99996
0.999455
0.999212
0.997914
0.999022
0.997727
0.997999
1
1
0.999973
0.999389
0.99921
0.999209
0.999946
0.99914
0.996415
0.997688
1
0.999999
0.999935
0.999279
0.999209
0.999211
0.999987
0.99784
0.988212
0.990003
0.999802
1
0.999999
0.999871
0.999259
0.99922
0.998828
0.988941
0.988004
0.989133
1
1
1
0.999995
0.999925
0.999863
0.994265
0.987998
0.987989
0.988003
0.997064
1
1
1
1
1
0.998998
0.990116
0.98799
0.987989
0.992057
1
1
0.999996
0.999992
0.999997
0.999987
0.999622
0.994377
0.98812
0.996403
1
0.999999
0.999993
0.999992
0.999994
1
0.999999
0.999846
0.99812
0.996569
0.998678
0.999987
1
1
1
1
1
0.999999
0.999992
0.999734
0.998581
0.998604
0.999652
1
1
1
1
0.999996
0.999489
0.999176
0.999647
0.999668
0.999672
1
1
0.999996
1
0.999998
0.999801
0.995594
0.985538
0.993996
0.999997
0.999997
1
0.999986
0.999991
0.999992
0.999962
0.998471
0.973911
0.914657
0.92901
1
1
0.999986
0.999986
0.999986
0.999989
0.999941
0.994203
0.920684
0.767073
0.840383
1
0.999996
0.999994
0.99999
0.999999
1
0.999998
0.996393
0.785033
0.671512
0.808088
1
1
1
1
1
1
0.999998
0.988472
0.669178
0.667366
1
1
1
1
1
1
1
0.999998
0.941273
0.704541
1
1
1
1
1
1
1
1
0.999992
0.997869
1
1
1
1
1
1
1
1
1
0.999969
1
1
1
1
1
1
1
1
1
0.985163
1
1
1
1
1
1
1
1
0.99963
0.600367
1
1
1
1
1
1
1
1
1
0.631839
1
1
1
1
1
1
1
1
1
0.961681
1
1
1
1
1
1
1
1
1
1
0.999939
1
1
1
1
1
1
1
1
1
0.999253
0.999925
1
1
1
1
1
1
1
0.999995
0.999168
0.999182
0.999909
1
0.999956
0.99889
0.999789
0.999995
0.999561
0.999788
0.999644
0.999836
0.999985
0.994601
0.88297
0.878746
0.946808
0.963298
0.986372
0.999819
0.999985
0.999985
0.999985
0.901902
0.871043
0.871043
0.871043
0.874873
0.974579
0.999128
0.999985
0.999985
0.999985
0.990653
0.90633
0.877023
0.961678
0.998453
0.996794
0.99725
0.999896
0.999976
0.998088
0.999986
0.999989
0.999986
0.999969
0.99977
0.998453
0.698387
0.999985
0.999995
0.999994
0.999994
0.999993
0.99997
0.999771
0.983544
0.70089
0.489593
0.999996
0.999996
0.999995
0.999993
0.999965
0.999546
0.918922
0.584896
0.466301
0.480473
0.999996
0.999996
0.999991
0.999951
0.988086
0.768347
0.407167
0.413528
0.474214
0.619612
0.999996
0.999996
0.9949
0.946592
0.562752
0.227164
0.234206
0.484624
0.930468
0.998612
0.999996
0.965354
0.868397
0.474904
0.096523
0.0990944
0.475887
0.979638
0.998324
0.99967
0.934213
0.798429
0.597536
0.0911261
0.0399037
0.29668
0.935365
0.997816
0.999695
0.999899
0.778288
0.699294
0.218538
0.0208464
0.023322
0.781674
0.996024
0.999283
0.999854
0.999967
0.743609
0.576171
0.0154364
0.0164727
0.309515
0.948685
0.998161
0.999679
0.999932
0.999976
0.72691
0.229936
0.0154364
0.0154364
0.591572
0.992452
0.998889
0.999826
0.999967
0.999985
0.612561
0.0160495
0.0154364
0.0368355
0.834392
0.996713
0.999507
0.999918
0.999982
0.999992
0.476162
0.0156828
0.0138
0.352099
0.95817
0.998453
0.999786
0.999965
0.999993
0.999997
0.0566155
0.0118095
0.0118077
0.620973
0.995543
0.999343
0.999906
0.999986
0.999997
0.999999
0.0171875
0.0118101
0.0228737
0.832791
0.997714
0.999711
0.999961
0.999995
0.999999
1
0.0157559
0.011982
0.303276
0.953276
0.998921
0.999876
0.999984
0.999998
1
1
0.0107716
0.0130186
0.530688
0.990603
0.999507
0.999945
0.999994
0.999999
1
1
0.010755
0.0107089
0.761154
0.998014
0.999797
0.999978
0.999998
1
1
1
0.0107726
0.123624
0.907763
0.999095
0.999917
0.999992
0.999999
1
1
1
0.0111994
0.364788
0.972177
0.999592
0.999966
0.999997
1
1
1
1
0.00771271
0.586184
0.996358
0.999848
0.999988
0.999999
1
1
1
1
0.000850119
0.791176
0.999248
0.99995
0.999996
1
1
1
1
1
0.130888
0.912649
0.999748
0.999986
0.999999
1
1
1
1
1
0.317721
0.972637
0.999921
0.999996
1
1
1
1
1
1
0.456822
0.992685
0.999975
0.999999
1
1
0.999999
1
1
1
0.571638
0.998603
0.999991
0.999999
1
1
0.999999
1
1
1
0.661525
0.999832
0.999996
0.999999
0.999999
0.999999
0.999999
0.999999
1
1
0.729347
0.999919
0.999998
0.999999
0.999999
0.999999
0.999999
0.999999
1
1
0.776127
0.999962
0.999999
1
0.999999
1
1
1
1
0.998957
0.804721
0.999978
0.999999
1
1
1
1
1
1
1
0.828294
0.999988
1
1
1
1
1
1
1
1
0.85196
0.999993
1
1
1
1
1
1
1
1
0.870557
0.999996
1
1
1
1
1
1
1
0.965457
0.882537
0.999999
1
1
1
1
1
1
1
0.911007
0.890476
0.999999
0.999999
0.999999
1
1
1
1
1
0.879523
0.891352
0.999999
0.999999
0.999999
1
1
1
1
1
0.865506
0.885455
0.999999
0.999999
0.999999
1
1
1
1
1
0.8607
0.877226
1
0.999999
0.999999
1
0.999999
1
1
1
0.860535
0.872751
1
1
1
1
1
1
1
1
0.859814
0.903928
1
1
1
1
1
1
1
1
0.858987
0.914897
1
1
1
1
1
1
1
1
0.907337
0.959259
1
1
1
1
1
1
1
1
0.954072
1
1
1
1
1
1
1
1
1
1
1
1
1
0.999994
0.999914
0.999798
0.999769
0.999921
1
1
1
0.999999
0.999999
0.999999
1
1
1
0.999999
0.999991
0.999988
0.999987
0.999996
1
1
1
1
1
1
1
0.999622
0.999998
0.999999
0.999999
0.999999
1
1
1
1
1
1
1
1
0.999968
0.999573
0.99924
0.99924
0.99924
0.999276
0.999979
1
1
0.999999
0.999999
1
1
1
1
1
0.999985
0.997621
0.993643
0.993254
0.996886
0.999817
1
1
0.999999
0.999998
0.999847
0.999243
1
1
0.999995
0.999918
0.999877
0.999925
0.996736
0.987317
0.977407
0.978494
0.993117
0.996322
0.995308
0.998592
0.999998
0.999971
0.999471
0.999283
0.999849
1
0.999987
0.999984
0.999999
1
1
1
1
1
0.999953
0.986594
0.976537
0.976537
0.976537
0.989008
0.996921
0.999744
0.999996
0.999675
0.998917
0.998314
1
1
0.999997
0.999929
0.963429
0.898862
0.898863
0.898939
0.899184
0.899261
0.899376
0.904566
0.989739
0.999999
0.999999
0.999982
0.999974
0.999977
0.999976
0.999968
0.997755
0.986637
0.983048
0.994538
1
1
1
0.999998
0.999991
0.996254
0.980528
0.976537
0.976669
0.976756
0.976843
0.982488
0.986216
0.987488
0.989064
0.992445
1
1
0.999998
0.999963
0.950641
0.898862
0.89886
0.899017
0.899435
0.899269
0.899265
0.90704
0.995984
0.999999
0.999999
0.999999
0.999999
0.999999
0.999998
0.999925
0.976996
0.950406
0.950382
0.95126
0.99207
0.997144
0.999999
0.999987
0.999924
0.999923
0.999918
0.999879
0.997768
0.991675
0.980937
0.969764
0.969388
0.96918
0.969142
0.969142
1
1
1
0.999986
0.999492
0.997138
0.995265
0.995439
0.981922
0.914457
0.917667
0.999998
0.999999
0.999999
0.999999
0.999999
0.999999
0.999998
0.999995
0.999408
0.96832
0.950378
0.950365
0.950365
0.950365
0.950378
0.983368
0.994621
0.999923
0.999417
0.995227
0.995648
0.999949
0.999949
0.999949
0.999949
0.999949
0.997926
0.983454
0.975619
1
1
1
1
1
0.999999
0.999999
0.999995
0.999957
0.999841
0.99995
0.99997
0.999903
0.99987
0.999958
0.999998
0.999998
0.999979
0.999825
0.999767
0.999998
0.991363
0.963722
0.950671
0.950877
0.950869
0.950559
0.950448
0.981802
0.99075
0.982121
0.991083
0.999949
0.999949
0.999949
0.999949
0.999948
0.999947
0.999936
0.999906
0.999995
0.999999
1
0.999999
0.999998
1
1
1
1
0.999974
0.999884
0.999792
0.982153
0.934336
0.916212
0.971612
0.998512
0.999584
0.998448
0.999265
0.999998
0.999998
0.999998
0.999997
0.999989
0.989219
0.974191
0.94436
0.872137
0.922582
0.989928
0.999701
0.999933
0.999946
0.999947
0.999948
0.999947
0.998749
0.997228
0.99804
1
1
1
0.999949
0.999908
0.999994
1
1
0.999996
0.999925
0.998239
0.945544
0.807083
0.807158
0.807039
0.806996
0.906613
0.999586
0.998782
1
0.999996
0.999968
0.999964
0.999964
0.999963
0.999961
0.99995
0.986915
0.864407
0.847606
0.918706
0.982679
0.977375
0.963026
0.981614
0.993306
0.998439
0.996433
0.993703
0.993879
0.966189
0.887854
0.928628
1
1
1
1
0.999999
0.999984
0.999708
0.909891
0.803873
0.807165
0.807163
0.807116
0.806996
0.825173
0.985793
1
1
0.999999
0.999861
0.999762
0.999942
0.999961
0.999951
0.999939
0.995399
0.907357
0.846229
0.843884
0.84309
0.84466
0.827814
0.833496
0.872093
0.906471
0.953709
0.985607
0.993626
0.782716
0.782968
0.821103
1
1
1
1
1
0.999993
0.999895
0.973267
0.82051
0.807063
0.807165
0.807123
0.875916
1
1
1
1
0.999999
0.999751
0.999436
0.999705
0.999929
0.999771
0.999803
0.9998
0.999726
0.940918
0.872542
0.83203
0.827815
0.827609
0.82758
0.827559
0.827549
0.827559
0.880851
0.959093
0.782716
0.782716
0.782968
0.938051
1
1
0.999996
0.999915
0.999815
0.999824
0.999998
0.999931
0.919744
0.807441
0.940698
1
1
1
1
0.999999
0.999991
0.999787
0.986558
0.967655
0.980733
0.999806
0.999806
0.999806
0.999673
0.999667
0.999641
0.999509
0.938706
0.841543
0.827607
0.82758
0.827559
0.827549
0.828275
0.834325
0.782716
0.782761
0.809188
0.99674
1
1
0.999994
0.998932
0.997662
0.999009
1
1
1
1
1
1
1
1
0.999999
0.999992
0.999608
0.982533
0.925004
0.916883
0.952851
0.999806
0.999806
0.999806
0.999761
0.99941
0.999371
0.999443
0.999458
0.9995
0.9471
0.915239
0.911724
0.882007
0.836041
0.83391
0.800215
0.783572
0.899657
0.999997
1
0.999946
0.998305
0.997636
0.997638
0.998483
1
1
1
0.999996
0.999988
0.999989
0.999997
0.999999
0.999945
0.997493
0.948863
0.91471
0.914718
0.914791
0.966258
0.999806
0.999806
0.999803
0.99938
0.998054
0.998535
0.999456
0.999499
0.999548
0.999564
0.999564
0.999571
0.999689
0.979221
0.886211
0.983384
0.978768
0.994185
0.999997
0.999998
0.999009
0.997636
0.997635
0.997637
0.999111
1
1
1
0.999998
0.999547
0.997369
0.996635
0.998923
0.999088
0.947843
0.914772
0.914716
0.914772
0.924436
0.998041
0.999806
0.999803
0.999209
0.997158
0.997241
0.998729
0.999444
0.999331
0.999515
0.999565
0.999571
0.999633
0.999792
0.999817
0.999823
0.999983
1
1
0.999998
1
0.999986
0.99938
0.997637
0.9978
0.999827
1
1
0.999999
0.999984
0.998066
0.981942
0.977556
0.989672
0.996686
0.945598
0.914821
0.914772
0.914903
0.946073
0.9998
0.999803
0.9998
0.999099
0.993284
0.990507
0.996142
0.992291
0.9867
0.982566
0.998222
0.999564
0.998691
0.997137
0.999823
0.999828
1
1
1
1
1
0.999997
0.999859
0.999742
0.999795
0.999969
1
1
0.999989
0.997722
0.979101
0.977451
0.977455
0.980442
0.997856
0.998002
0.941516
0.914886
0.915239
0.926383
0.999798
0.9998
0.999798
0.999766
0.998706
0.984533
0.958092
0.812778
0.558216
0.514683
0.924289
0.99952
0.998439
0.99643
0.998455
0.999833
1
1
1
1
1
1
1
1
1
1
1
0.999999
0.999987
0.995387
0.977451
0.97744
0.977451
0.977526
0.995215
0.999822
0.999866
0.989691
0.933267
0.926705
0.982456
0.999796
0.999538
0.999645
0.999262
0.99386
0.743666
0.281693
0.138025
0.165479
0.763667
0.9994
0.998414
0.99643
0.996563
0.999839
0.99999
1
1
1
1
1
1
1
1
1
1
1
0.999999
0.999987
0.995603
0.977488
0.977471
0.977507
0.979904
0.999798
0.999866
0.999867
0.999869
0.999646
0.993687
0.99308
0.998165
0.999558
0.994681
0.745351
0.188961
0.135702
0.135702
0.356563
0.849867
0.98686
0.997826
0.996688
0.997713
0.999842
0.999728
0.999746
1
1
1
0.999999
0.999906
0.999882
0.999971
1
1
1
0.999991
0.999984
0.999983
0.999974
0.995474
0.978718
0.97888
0.986887
0.999866
0.999825
0.999869
0.999869
0.999869
0.999828
0.999818
0.999554
0.928421
0.32457
0.136916
0.135702
0.327019
0.914065
0.999268
0.996481
0.996845
0.999871
0.999894
0.999843
0.999974
0.999939
0.966616
0.88089
0.893925
0.999997
0.999996
0.999977
0.998614
0.977485
0.967677
0.991165
0.999056
0.998558
0.997021
0.999472
0.999994
0.999996
0.998908
0.99505
0.99482
0.997889
0.999869
0.999811
0.999824
0.999845
0.999819
0.999417
0.900734
0.289179
0.137927
0.322953
0.925956
0.999268
0.999366
0.999464
0.998491
0.999894
0.999898
0.999898
0.76071
0.538473
0.538354
0.542672
0.538552
0.540079
0.654983
0.89299
0.970322
0.956269
0.928132
0.928115
0.931013
0.95992
0.923964
0.987764
0.999996
0.999996
0.999996
0.999996
0.999953
0.999549
0.99913
0.99913
0.999624
0.99986
0.99984
0.999583
0.935795
0.417005
0.2885
0.943132
0.998852
0.998902
0.998591
0.999613
0.99977
0.999883
0.999898
0.999898
0.538252
0.538583
0.538606
0.53855
0.538552
0.53855
0.53868
0.539356
0.662675
0.949396
0.999626
0.995743
0.970124
0.913776
0.913776
0.913776
0.950495
0.999996
0.999996
0.999996
0.999996
0.999996
0.999949
0.999839
0.999834
0.99987
0.999797
0.999541
0.891077
0.616124
0.915769
0.998737
0.99879
0.998397
0.995766
0.998906
0.99957
0.99972
0.999896
0.999898
0.729659
0.538624
0.538598
0.538613
0.538528
0.662927
0.928536
0.999645
0.999652
0.999657
0.999659
0.999659
0.999659
0.999648
0.971056
0.913924
0.932853
0.999996
0.999996
0.999995
0.999994
0.999994
0.999965
0.99995
0.99997
0.999963
0.999937
0.995429
0.861368
0.803
0.998592
0.998671
0.998736
0.998499
0.995106
0.990016
0.998668
0.998716
0.999892
0.999896
1
0.999999
0.981414
0.950441
0.951861
0.993293
0.997469
0.998709
0.998693
0.998316
0.9986
0.999364
0.999659
0.999638
0.999617
0.999321
0.999441
0.999945
0.99998
0.999659
0.999456
0.999994
0.999984
0.999972
0.99997
0.999969
0.999956
0.94951
0.775599
0.916653
0.998521
0.99858
0.998455
0.998171
0.995791
0.985248
0.93681
0.961672
0.991576
0.999881
1
1
0.999999
0.999991
0.998844
0.958178
0.882675
0.833186
0.813979
0.812146
0.817867
0.830877
0.851195
0.88219
0.931684
0.969309
0.979284
0.993903
0.999979
0.999415
0.99921
0.999806
0.999984
0.999984
0.999952
0.999932
0.999953
0.887022
0.622681
0.951045
0.998363
0.997601
0.993104
0.989091
0.994612
0.985998
0.728526
0.519689
0.889293
0.999784
1
0.999999
0.999956
0.999119
0.90314
0.668979
0.665903
0.665891
0.667164
0.670324
0.673523
0.673488
0.673488
0.673487
0.673584
0.714897
0.799986
0.923701
0.997351
0.999668
0.999668
0.999816
0.999984
0.999983
0.99997
0.999966
0.999957
0.891914
0.54622
0.853341
0.886808
0.698962
0.532798
0.518713
0.860048
0.985117
0.69108
0.330255
0.701792
0.995074
0.999999
0.999991
0.99996
0.998646
0.831464
0.672975
0.666634
0.79965
0.914931
0.956296
0.967625
0.965954
0.947434
0.924261
0.8788
0.818668
0.800351
0.888078
0.945584
0.986813
0.999947
0.99996
0.999981
0.99998
0.999973
0.999956
0.999923
0.942317
0.566158
0.396035
0.215161
0.0516899
0.00334397
0.00730018
0.32421
0.938144
0.834614
0.328281
0.563591
0.976272
0.999764
0.999961
1
0.999975
0.986543
0.957998
0.969582
0.999921
0.999912
0.999819
0.99904
0.994153
0.986071
0.982665
0.978077
0.95855
0.92349
0.850987
0.835911
0.912448
0.977265
0.996137
0.992133
0.98266
0.95984
0.908593
0.781741
0.44461
0.191635
0.0035304
0.00334612
0.00334023
0.00334397
0.00334397
0.0360861
0.775314
0.906208
0.375964
0.514588
0.954748
0.999223
0.999931
1
1
1
1
0.999997
0.99993
0.998316
0.966529
0.770337
0.526759
0.380164
0.324077
0.32192
0.349694
0.411497
0.439734
0.437144
0.443877
0.440104
0.432181
0.412747
0.365066
0.285357
0.165755
0.0280464
0.00374381
0.00370102
0.0036735
0.00350999
0.00335255
0.00334397
0.00337368
0.00574958
0.7306
0.909959
0.575263
0.473044
0.935356
0.999215
0.999902
1
1
0.999999
0.999994
0.999938
0.998749
0.977054
0.50555
0.0152006
0.0028364
0.00283643
0.00283577
0.00283426
0.00283598
0.00344027
0.00691112
0.00792056
0.00441681
0.00441206
0.00450934
0.00474733
0.00508974
0.00549059
0.00600035
0.00614564
0.00442036
0.00371874
0.0036483
0.00352529
0.0034817
0.00365069
0.00402589
0.262792
0.883434
0.911112
0.647874
0.453273
0.930241
0.999407
1
1
1
0.999999
0.999988
0.999881
0.99884
0.892705
0.195509
0.00283793
0.00283659
0.00283636
0.00283686
0.00283633
0.00283765
0.00286096
0.00320254
0.00408888
0.00457524
0.00450934
0.00471973
0.00501564
0.00539653
0.00660736
0.00803116
0.0126971
0.0164998
0.0186702
0.0289415
0.055066
0.103651
0.178667
0.34651
0.870111
0.917263
0.911036
0.572605
0.453273
0.943613
0.999803
1
1
1
0.999999
0.999994
0.999949
0.999577
0.995458
0.585938
0.024743
0.00283793
0.00283686
0.00283831
0.00336022
0.0050347
0.0135517
0.0461962
0.106361
0.189858
0.279761
0.355324
0.41379
0.447534
0.466915
0.494074
0.542325
0.574342
0.595115
0.649143
0.733829
0.82998
0.959512
0.946133
0.935925
0.927781
0.86772
0.300441
0.488246
0.94653
0.999958
1
1
1
1
1
0.999998
0.99999
0.999953
0.999787
0.740838
0.168711
0.0742225
0.121816
0.176895
0.298541
0.531645
0.718313
0.838423
0.917898
0.966271
0.993112
0.999604
0.998159
0.99645
0.995765
0.996081
0.996329
0.996122
0.996033
0.996042
0.995885
0.993727
0.917532
0.752384
0.498623
0.163063
0.0560086
0.588586
0.94653
1
1
0.999999
0.999999
1
1
1
0.999998
0.99999
0.999957
0.999782
0.998299
0.957521
0.902669
0.912038
0.986584
0.999935
0.999935
0.999935
0.999935
0.999935
0.999932
0.999896
0.997783
0.994626
0.994001
0.995064
0.996478
0.996015
0.996085
0.996004
0.991426
0.624656
0.215749
0.0109467
0.0109487
0.0110127
0.0192645
0.197286
0.869717
1
1
1
1
1
1
0.999998
0.999989
0.999939
0.999336
0.956827
0.880142
0.873641
0.965877
0.999935
0.999935
0.999935
0.999935
0.999935
0.999935
0.999932
0.999916
0.994427
0.978107
0.978107
0.978107
0.990258
0.997421
0.996728
0.996236
0.963482
0.631917
0.0260916
0.010915
0.010926
0.0109116
0.0108895
0.0111295
0.0915938
0.820611
1
1
1
1
1
0.999998
0.999984
0.999884
0.999224
0.973106
0.672604
0.4799
0.480377
0.544984
0.957386
0.999935
0.999935
0.999934
0.999932
0.999932
0.999916
0.999869
0.992812
0.980877
0.980101
0.994149
0.999976
0.999956
0.999941
0.998609
0.897818
0.227042
0.0109272
0.0109202
0.0109352
0.0109586
0.0108891
0.0111207
0.0472995
0.777169
0.999999
0.999999
0.999999
1
0.999999
0.999988
0.999888
0.999063
0.940186
0.572552
0.480415
0.480152
0.480431
0.482318
0.721071
0.99993
0.999928
0.99988
0.999825
0.999884
0.999857
0.999668
0.999799
0.99997
0.999977
0.999977
0.999977
0.999976
0.999952
0.999439
0.85706
0.135352
0.0109272
0.0109235
0.0109473
0.0110407
0.0109314
0.0109347
0.0222675
0.720809
1
0.999999
0.999999
0.999999
0.999995
0.999948
0.999469
0.961146
0.597812
0.480494
0.480395
0.480431
0.481879
0.64783
0.9787
0.999877
0.999674
0.98746
0.977309
0.987977
0.998653
0.999482
0.999692
0.999938
0.999977
0.999977
0.999977
0.999973
0.999929
0.999344
0.936276
0.297366
0.0109576
0.0109136
0.0109364
0.0109886
0.0109458
0.0109452
0.0109451
0.644122
1
0.999999
0.999999
0.999999
0.99999
0.999889
0.99874
0.822298
0.480627
0.480424
0.480564
0.481879
0.717606
0.999828
0.999615
0.999431
0.983584
0.95915
0.959434
0.959335
0.969147
0.979112
0.987823
0.998487
0.999971
0.999977
0.999973
0.999967
0.99944
0.999123
0.996821
0.691399
0.0126404
0.0109237
0.0109129
0.0109349
0.0109462
0.010945
0.0109423
0.568675
1
1
1
0.999992
0.999974
0.999897
0.999017
0.863059
0.483759
0.480627
0.482077
0.784043
0.999884
0.999879
0.999828
0.989693
0.959543
0.959368
0.95957
0.95949
0.959931
0.960317
0.960363
0.971654
0.994269
0.99997
0.999969
0.999964
0.99928
0.995585
0.99502
0.972447
0.449271
0.0124405
0.0109541
0.0109339
0.0109382
0.0109445
0.0109277
0.5291
1
1
0.999999
0.999902
0.998242
0.998516
0.998372
0.995772
0.850203
0.613711
0.810455
0.999886
0.999887
0.999885
0.999844
0.985649
0.959648
0.95957
0.959636
0.969213
0.96836
0.960402
0.960702
0.961116
0.967854
0.999962
0.999964
0.99996
0.999897
0.993152
0.983943
0.982928
0.908182
0.323074
0.0126569
0.0109983
0.0109449
0.0109402
0.0109503
0.518513
1
1
1
0.999995
0.998067
0.874566
0.785046
0.989083
0.999889
0.999889
0.999888
0.999888
0.999887
0.999891
0.999884
0.998736
0.976849
0.9597
0.978041
0.985091
0.985098
0.98038
0.964378
0.962071
0.965686
0.996163
0.99996
0.999954
0.999935
0.996265
0.980622
0.975839
0.977638
0.911136
0.336053
0.0129016
0.0110584
0.0109403
0.0110524
0.559806
1
1
1
0.999996
0.991126
0.704254
0.537757
0.899952
0.999889
0.999888
0.999803
0.999739
0.999891
0.999894
0.999742
0.998548
0.997905
0.996465
0.990403
0.986583
0.984626
0.984555
0.985945
0.987764
0.988102
0.997986
0.999954
0.999936
0.999945
0.999951
0.995578
0.981881
0.977996
0.983994
0.938196
0.408431
0.023224
0.0113094
0.011609
0.681219
0.903133
1
0.999996
0.999993
0.946436
0.620332
0.531895
0.779977
0.999888
0.999868
0.999492
0.999492
0.999801
0.999894
0.999712
0.998027
0.996269
0.960771
0.923695
0.934801
0.942288
0.967279
0.985493
0.993442
0.998055
0.999141
0.999512
0.999945
0.999951
0.999957
0.999965
0.998069
0.990139
0.984292
0.987788
0.976241
0.537117
0.0470765
0.109134
0.770347
0.662969
0.827052
0.962551
0.910592
0.649837
0.255782
0.531481
0.92317
0.999887
0.999873
0.999725
0.999492
0.999775
0.999899
0.999898
0.999898
0.999898
0.838446
0.375031
0.312267
0.316905
0.403358
0.595919
0.806635
0.96728
0.997654
0.999274
0.999893
0.999956
0.999965
0.999967
0.99997
0.999278
0.996449
0.988214
0.987099
0.983323
0.555932
0.259128
0.795232
0.766759
0.289961
0.307262
0.317747
0.185341
0.136489
0.302628
0.873049
0.999172
0.999665
0.999796
0.999896
0.999897
0.999898
0.999898
0.999898
0.999898
0.787889
0.0836836
0.0199644
0.0194884
0.0193257
0.0338305
0.149879
0.435949
0.833366
0.989127
0.996885
0.999388
0.999933
0.99997
0.999971
0.999971
0.999879
0.989813
0.987351
0.988575
0.961069
0.501194
0.795232
0.776176
0.178504
0.135919
0.134956
0.134668
0.135041
0.135047
0.301986
0.814191
0.989329
0.998894
0.999845
0.9999
0.999899
0.999898
0.999898
0.999898
0.708108
0.0700053
0.0197337
0.0188487
0.0190955
0.0189538
0.0189804
0.0189039
0.208481
0.742447
0.975824
0.995945
0.999422
0.99993
0.999971
0.999971
0.999971
0.998151
0.988249
0.988706
0.99968
0.769339
0.757774
0.512199
0.135876
0.135991
0.135987
0.134925
0.135783
0.135242
0.136107
0.302561
0.911998
0.998945
0.999811
0.999892
0.999899
0.999898
0.999898
0.999898
0.528415
0.0302198
0.0187506
0.0180535
0.0192403
0.0192121
0.0190507
0.0189943
0.018979
0.226398
0.849945
0.991613
0.998546
0.999766
0.999962
0.999971
0.999972
0.999972
0.99738
0.994238
0.99982
0.850762
0.716373
0.150738
0.135606
0.135917
0.136037
0.136175
0.135777
0.136137
0.136107
0.519058
0.98264
0.999231
0.999842
0.999892
0.999896
0.999898
0.999897
0.900853
0.219125
0.0208251
0.0189695
0.0178519
0.0189582
0.0193403
0.0192101
0.019137
0.0190126
0.0455108
0.631929
0.990523
0.998112
0.999658
0.999938
0.99997
0.999972
0.999972
0.999972
0.999299
0.999858
0.871624
0.716199
0.140792
0.135495
0.135729
0.135951
0.135906
0.135646
0.204173
0.769513
0.997543
0.993468
0.997683
0.999864
0.999894
0.999895
0.999896
0.999895
0.689864
0.0649305
0.0199884
0.0194291
0.0186201
0.0190737
0.0191659
0.0190708
0.0189667
0.018957
0.0247176
0.568231
0.988111
0.998275
0.999691
0.999935
0.999969
0.999971
0.999972
0.999972
0.999828
0.999869
0.903047
0.716905
0.813574
0.573843
0.424746
0.455877
0.635996
0.934234
0.999901
0.999058
0.997979
0.992874
0.997659
0.999846
0.999886
0.999893
0.999895
0.999893
0.667191
0.12553
0.0274779
0.0201212
0.0193963
0.0192455
0.0191075
0.0191418
0.0189283
0.0197982
0.254043
0.871242
0.993854
0.998671
0.999713
0.999934
0.999967
0.999971
0.999972
0.999972
0.999803
0.999878
0.937534
0.718957
0.999999
0.996662
0.994784
0.998519
0.999976
0.999951
0.999941
0.999836
0.989955
0.991643
0.998989
0.999698
0.999859
0.999885
0.999892
0.999866
0.95903
0.735897
0.355369
0.0820733
0.0209693
0.0197302
0.0197929
0.0197987
0.0420299
0.196982
0.807097
0.996815
0.998886
0.999664
0.999881
0.999963
0.999969
0.999971
0.999972
0.999972
0.999785
0.999885
0.963332
0.724274
0.999998
0.999998
0.999998
0.999997
0.999993
0.999976
0.99974
0.966121
0.948112
0.971835
0.995398
0.999321
0.999701
0.999835
0.999866
0.999607
0.99929
0.998237
0.976714
0.728185
0.190984
0.0583471
0.116515
0.245718
0.699933
0.998346
0.99936
0.999703
0.99987
0.999912
0.999949
0.999973
0.999971
0.999972
0.999972
0.999972
0.999854
0.999887
0.99033
0.732039
0.999998
0.999998
1
0.999994
0.999976
0.999912
0.966247
0.749935
0.585378
0.706539
0.878926
0.96963
0.996788
0.999117
0.999618
0.999292
0.981389
0.959501
0.953175
0.920209
0.725342
0.718129
0.929506
0.997381
0.998894
0.999339
0.999718
0.999865
0.999922
0.999941
0.999954
0.999965
0.999971
0.999972
0.999972
0.999972
0.999896
0.999881
0.999901
0.75522
0.999996
0.999993
0.999953
0.999882
0.984793
0.946171
0.591386
0.491416
0.499414
0.504386
0.507507
0.646271
0.858695
0.976109
0.996513
0.980683
0.824885
0.823932
0.824264
0.823938
0.922924
0.993484
0.997623
0.998753
0.999198
0.999383
0.999512
0.99949
0.999644
0.999905
0.999945
0.999932
0.999841
0.999886
0.99997
0.999972
0.999884
0.99988
0.999918
0.77759
0.999953
0.999839
0.934232
0.861619
0.595465
0.482271
0.486639
0.488982
0.491431
0.535905
0.563302
0.573733
0.588262
0.763461
0.955557
0.918311
0.830594
0.826576
0.823938
0.823891
0.864058
0.984162
0.997488
0.998108
0.9987
0.998737
0.998046
0.997259
0.998976
0.999875
0.999925
0.999905
0.999853
0.999581
0.999624
0.999908
0.99992
0.999921
0.999922
0.793017
0.967606
0.827723
0.482079
0.483105
0.483675
0.482454
0.48306
0.489865
0.698526
0.974091
0.995641
0.923247
0.711392
0.72571
0.876029
0.996742
0.99359
0.897714
0.830059
0.915728
0.999034
0.999033
0.998472
0.998252
0.995015
0.992856
0.992874
0.997128
0.999254
0.999518
0.998805
0.998675
0.998706
0.999705
0.999911
0.999918
0.999921
0.999923
0.999923
0.799476
0.628641
0.483782
0.484203
0.483791
0.48377
0.483263
0.556181
0.926363
0.998243
0.998886
0.999054
0.999022
0.999016
0.982831
0.985863
0.998877
0.998713
0.998575
0.998589
0.998637
0.998942
0.998633
0.998592
0.99845
0.994347
0.992847
0.992702
0.99559
0.994349
0.994354
0.997845
0.999259
0.999466
0.999548
0.998893
0.999705
0.999924
0.999923
0.999924
0.798376
0.491578
0.48558
0.483298
0.483704
0.52397
0.767995
0.998911
0.99922
0.999333
0.999288
0.999175
0.999078
0.999049
0.999013
0.998975
0.998914
0.998821
0.998693
0.998631
0.998586
0.998634
0.998596
0.998455
0.997448
0.996647
0.995415
0.984015
0.988881
0.998153
0.998785
0.998937
0.999014
0.990958
0.987237
0.998087
0.999881
0.999922
0.999924
0.999923
0.790884
0.497495
0.491504
0.540371
0.750287
0.99918
0.999604
0.999496
0.999476
0.999347
0.999231
0.999189
0.99919
0.999105
0.999031
0.998936
0.998888
0.998727
0.998624
0.998555
0.998392
0.998193
0.998187
0.998031
0.997184
0.967989
0.923516
0.94183
0.92092
0.791906
0.790126
0.804075
0.763297
0.883949
0.994018
0.999381
0.999897
0.999924
0.999925
0.999924
0.774405
0.513619
0.723363
0.998909
0.999993
0.99972
0.99968
0.999552
0.999444
0.999415
0.999349
0.99925
0.999194
0.999074
0.998797
0.998631
0.998276
0.997775
0.997269
0.996868
0.996881
0.992776
0.92934
0.841344
0.783118
0.55988
0.162774
0.156201
0.175484
0.125603
0.149061
0.191773
0.507158
0.915271
0.9943
0.999322
0.999908
0.999925
0.999925
0.997429
0.773036
0.988729
1.00003
0.999838
0.999847
0.999788
0.999701
0.999653
0.999551
0.999396
0.999288
0.999125
0.998803
0.998092
0.997101
0.994874
0.953805
0.888956
0.876884
0.834242
0.783918
0.640483
0.17805
0.0117203
0.0112323
0.0126608
0.0124905
0.0151789
0.0249779
0.0363974
0.104103
0.297086
0.688606
0.962145
0.995397
0.999488
0.999924
0.999925
0.999925
0.992592
0.783494
0.999669
0.999918
0.999926
0.999869
0.999833
0.999789
0.999619
0.999394
0.999123
0.998636
0.997396
0.993181
0.929266
0.861122
0.744164
0.506825
0.400517
0.496068
0.378648
0.0524629
0.0166629
0.0120367
0.0112323
0.0108753
0.0109945
0.0112996
0.0126292
0.0154403
0.214933
0.529054
0.80474
0.958924
0.994826
0.999263
0.999699
0.999923
0.999924
0.999925
0.982773
0.801765
0.999926
0.999948
0.999925
0.999913
0.99987
0.999684
0.999181
0.998474
0.996727
0.990101
0.900812
0.791418
0.422585
0.397457
0.396472
0.396472
0.396472
0.445678
0.644718
0.496559
0.0840124
0.0123809
0.01086
0.0108753
0.0108638
0.0109753
0.0567727
0.490517
0.857548
0.979212
0.997065
0.998911
0.999537
0.999595
0.999608
0.998274
0.999923
0.999873
0.975742
0.734046
0.999953
0.999962
0.999948
0.999937
0.999771
0.998852
0.996299
0.986465
0.885007
0.747792
0.40248
0.402535
0.401156
0.399417
0.398561
0.396472
0.487655
0.948466
0.994339
0.965705
0.387852
0.0144366
0.0109659
0.0108753
0.0109682
0.0735948
0.647746
0.983545
0.998169
0.999064
0.999483
0.999699
0.999613
0.999584
0.999592
0.99632
0.996699
0.999298
0.962994
0.662847
0.999973
0.999965
0.999972
0.999915
0.998954
0.994657
0.874524
0.752899
0.430387
0.423624
0.413331
0.404379
0.394254
0.401156
0.399043
0.60156
0.984515
0.999461
0.996736
0.876269
0.221726
0.0125045
0.011776
0.0109659
0.012202
0.420943
0.996328
0.999297
0.999756
0.99981
0.99982
0.999787
0.999628
0.998274
0.999544
0.99665
0.980912
0.991614
0.819252
0.660602
0.999984
0.999973
0.99998
0.999745
0.993488
0.838258
0.483239
0.48073
0.457254
0.439121
0.426617
0.426797
0.468152