/*--------------------------------*- C++ -*----------------------------------*\
  =========                 |
  \\      /  F ield         | OpenFOAM: The Open Source CFD Toolbox
   \\    /   O peration     | Website:  https://openfoam.org
    \\  /    A nd           | Version:  8
     \\/     M anipulation  |
\*---------------------------------------------------------------------------*/
FoamFile
{
    version     2.0;
    format      ascii;
    class       volScalarField;
    location    "3.35";
    object      epsilon;
}
// * * * * * * * * * * * * * * * * * * * * * * * * * * * * * * * * * * * * * //

dimensions      [0 2 -3 0 0 0 0];

internalField   nonuniform List<scalar> 
9150
(
0.031314
0.0124314
0.00309419
0.00093651
0.000443556
0.000443418
0.000936242
0.00309373
0.0124304
0.0313135
0.0302232
0.00873875
0.00172797
0.000600915
0.000333683
0.00033358
0.000600717
0.00172764
0.00873786
0.0302227
0.0284256
0.00693616
0.00111401
0.000492026
0.000298232
0.000298139
0.000491851
0.00111375
0.00693524
0.0284251
0.0264929
0.00599586
0.000834371
0.000459283
0.000287288
0.000287198
0.000459114
0.000834141
0.00599486
0.0264924
0.0244901
0.00559107
0.000695468
0.000452042
0.000285472
0.000285383
0.000451872
0.000695254
0.00558998
0.0244896
0.123512
0.0522538
0.0223433
0.0135671
0.00966991
0.00966664
0.0135605
0.0223325
0.0522297
0.123502
0.0761217
0.0229784
0.0130252
0.00862548
0.0060013
0.00599932
0.0086218
0.0130204
0.0229736
0.0761186
0.0553555
0.0178525
0.0075677
0.00449811
0.00294034
0.00293937
0.00449636
0.00756544
0.0178498
0.0553536
0.0425032
0.0152005
0.00476298
0.00227081
0.00133255
0.00133211
0.00226997
0.00476178
0.0151987
0.0425019
0.0356089
0.013693
0.00350299
0.0012902
0.000673406
0.000673185
0.00128977
0.00350228
0.0136917
0.0356079
0.941685
0.153906
0.047332
0.0207403
0.0123134
0.0123199
0.0207827
0.0472987
0.149141
0.720633
0.275965
0.120643
0.0457105
0.0205114
0.0123889
0.0123971
0.0205496
0.0458558
0.121545
0.275171
0.234777
0.104164
0.0446543
0.020257
0.0124684
0.0124717
0.0202661
0.0446681
0.104401
0.234747
0.196778
0.091574
0.0439015
0.020004
0.0125493
0.0125492
0.0200043
0.0438967
0.0915911
0.196761
0.156128
0.0862599
0.040284
0.0188197
0.0121868
0.012184
0.0188136
0.0402695
0.0862258
0.156115
0.0411855
0.0426858
0.0441399
0.0455116
0.0467734
0.0478973
0.0488521
0.0496023
0.0501055
0.0503092
0.0198844
0.020458
0.0210167
0.0215475
0.0220393
0.0224814
0.0228634
0.0231739
0.0234016
0.0235354
0.0171999
0.0176483
0.0180813
0.018492
0.0188741
0.0192216
0.0195289
0.0197905
0.0200017
0.0201586
0.0173703
0.0178022
0.0182176
0.0186118
0.0189812
0.0193223
0.0196324
0.019909
0.0201502
0.0203544
0.0186101
0.0190592
0.0194897
0.0198994
0.0202866
0.02065
0.0209892
0.0213037
0.0215934
0.021858
0.0204605
0.0209414
0.0213994
0.0218366
0.0222535
0.0226512
0.0230314
0.0233954
0.0237446
0.0240791
0.0227352
0.0232526
0.023744
0.0242125
0.0246637
0.0251012
0.0255287
0.0259499
0.0263673
0.0267818
0.0253285
0.0258816
0.0264063
0.0269089
0.0273966
0.0278769
0.0283566
0.0288423
0.0293377
0.0298424
0.0281579
0.0287453
0.0293033
0.0298412
0.0303678
0.0308929
0.0314259
0.0319743
0.0325439
0.0331377
0.0311487
0.0317739
0.0323695
0.0329454
0.0335116
0.0340791
0.0346594
0.0352624
0.0358943
0.036556
0.0342612
0.034927
0.0355627
0.0361768
0.03678
0.0373844
0.0380029
0.0386454
0.0393126
0.0399909
0.037475
0.0381825
0.0388587
0.0395114
0.04015
0.0407856
0.0414303
0.0420928
0.0427688
0.0434517
0.0407828
0.0415342
0.042255
0.0429522
0.0436331
0.0443065
0.0449816
0.0456669
0.0463644
0.047088
0.0442005
0.0449981
0.0457694
0.0465212
0.0472605
0.0479938
0.0487264
0.0494633
0.0502112
0.0509973
0.0477789
0.0486286
0.0494574
0.050273
0.0510824
0.0518909
0.0527027
0.0535219
0.0543572
0.0552304
0.0516195
0.0525398
0.0534451
0.0543442
0.0552441
0.0561504
0.0570669
0.057998
0.0589526
0.0599487
0.0558491
0.0568743
0.0578913
0.0589095
0.0599366
0.0609781
0.062038
0.0631202
0.0642324
0.065389
0.0606069
0.0617911
0.0629753
0.0641689
0.0653796
0.0666126
0.0678711
0.0691582
0.0704791
0.0718447
0.0660297
0.067452
0.068886
0.0703403
0.071821
0.0733316
0.0748729
0.0764452
0.0780501
0.0796946
0.0722253
0.0739933
0.0757938
0.0776332
0.0795139
0.081434
0.0833883
0.0853715
0.0873793
0.089414
0.0792279
0.0814738
0.0837927
0.0861906
0.0886583
0.0911843
0.0937531
0.0963461
0.0989522
0.101585
0.0869477
0.0898005
0.0927849
0.0958967
0.0991394
0.102509
0.105994
0.109574
0.113216
0.116878
0.0951765
0.0987395
0.102501
0.106476
0.11068
0.115129
0.119839
0.124825
0.130099
0.135604
0.103667
0.108014
0.112647
0.117597
0.122897
0.128588
0.134714
0.141319
0.148427
0.156009
0.112185
0.117371
0.122939
0.128932
0.135399
0.142391
0.149959
0.158142
0.166943
0.176297
0.120465
0.126502
0.133015
0.140052
0.147667
0.155914
0.164838
0.174465
0.184776
0.195691
0.128182
0.135026
0.142423
0.150423
0.15908
0.168446
0.178562
0.189446
0.201085
0.213419
0.135008
0.142564
0.15073
0.15956
0.169105
0.179416
0.190531
0.202471
0.215235
0.228787
0.140658
0.148799
0.157592
0.167094
0.177353
0.18842
0.200337
0.21313
0.226809
0.241358
0.144921
0.153498
0.16276
0.172756
0.183537
0.195154
0.207651
0.221061
0.235401
0.250666
0.147678
0.156532
0.166092
0.176396
0.187493
0.199434
0.212266
0.226029
0.240746
0.256424
0.148925
0.1579
0.167591
0.178028
0.189245
0.201296
0.214231
0.228093
0.242916
0.258726
0.148787
0.157754
0.167433
0.177855
0.189043
0.20104
0.213897
0.227659
0.242368
0.258068
0.147498
0.156375
0.165956
0.176272
0.18735
0.199218
0.211911
0.22547
0.239943
0.255383
0.145361
0.15413
0.1636
0.173807
0.184775
0.196527
0.20909
0.222487
0.236757
0.251951
0.142691
0.151389
0.16081
0.170988
0.181949
0.193712
0.206299
0.219727
0.234015
0.2492
0.139769
0.148476
0.157959
0.168256
0.179396
0.191399
0.204283
0.218058
0.232742
0.248354
0.136812
0.145623
0.155296
0.165886
0.177431
0.189958
0.203484
0.218022
0.23358
0.250168
0.133961
0.142962
0.152942
0.163981
0.176141
0.189463
0.203975
0.219694
0.236634
0.254803
0.1313
0.140535
0.150895
0.162491
0.17542
0.189752
0.205522
0.222757
0.24149
0.261747
0.128894
0.138358
0.149093
0.161258
0.175003
0.190449
0.207652
0.226615
0.247364
0.269977
0.126845
0.136486
0.147521
0.160153
0.174596
0.191053
0.209667
0.230431
0.253232
0.278164
0.125346
0.135119
0.146364
0.159319
0.174245
0.191412
0.211072
0.233267
0.257927
0.284941
0.124638
0.134569
0.146033
0.159293
0.174636
0.192351
0.212687
0.235715
0.26139
0.289867
0.124879
0.135039
0.146783
0.160392
0.176177
0.194448
0.215461
0.239342
0.265937
0.295039
0.126193
0.136687
0.148803
0.162826
0.179069
0.19785
0.219441
0.24398
0.271362
0.301181
0.128659
0.139649
0.152301
0.166887
0.183704
0.203045
0.225171
0.250238
0.278196
0.308775
0.1323
0.144022
0.157491
0.172976
0.19076
0.211124
0.234318
0.260522
0.289791
0.322117
0.137052
0.149798
0.164466
0.181353
0.200779
0.223074
0.248562
0.277533
0.3102
0.346723
0.142782
0.156837
0.173086
0.19189
0.213651
0.238818
0.267876
0.301344
0.339755
0.383604
0.1494
0.165011
0.183157
0.204277
0.228867
0.25749
0.290774
0.329418
0.374221
0.426143
0.157101
0.174546
0.194932
0.21878
0.246671
0.279244
0.31717
0.361126
0.411786
0.469869
0.166595
0.186351
0.209581
0.236915
0.269053
0.306742
0.350726
0.40169
0.460215
0.526729
0.179381
0.202381
0.229657
0.262035
0.300448
0.3459
0.399374
0.461758
0.533943
0.61626
0.198271
0.226398
0.260173
0.300799
0.349703
0.408489
0.478783
0.561426
0.656358
0.763546
0.228216
0.265264
0.310554
0.366039
0.43413
0.517467
0.616653
0.731572
0.862338
1.00856
0.277261
0.330565
0.397416
0.48148
0.585727
0.71093
0.857244
1.02436
1.2117
1.41828
0.357229
0.439567
0.545842
0.680436
0.845548
1.04109
1.26502
1.51584
1.79157
2.09242
0.484938
0.615864
0.786284
1.00068
1.26231
1.56963
1.91767
2.30271
2.71965
3.16667
0.684669
0.893496
1.16405
1.5042
1.91767
2.40136
2.94513
3.53325
4.1516
4.77711
0.989495
1.31889
1.74769
2.28992
2.95115
3.72039
4.56491
5.43669
6.27117
6.93845
1.44707
1.96445
2.64791
3.52527
4.60567
5.85405
7.15819
8.31194
9.05198
9.18251
2.12793
2.94665
4.05459
5.51198
7.341
9.42434
11.2291
11.9699
11.6134
10.73
3.15231
4.47007
6.31019
8.81218
12.0321
15.3031
16.1995
14.8855
13.1565
11.6046
4.72497
6.89071
10.0297
14.4392
20.2006
22.3798
19.5006
16.4757
14.0406
12.0903
7.17572
10.7565
16.1024
23.8357
30.5968
26.5041
21.3249
17.4085
14.4667
12.2001
10.9361
16.8062
25.7705
39.0675
38.5929
28.9052
22.3397
17.7604
14.4338
11.9552
16.3423
25.6634
40.3233
50.6879
38.8412
29.1455
22.3106
17.4702
13.981
11.4395
22.7862
35.5072
55.3787
55.806
39.8169
29.0722
21.815
16.7963
13.2738
10.7885
31.4187
49.3758
68.4977
54.0896
38.2482
27.7617
20.6665
15.7852
12.4177
10.1109
39.8787
63.6586
72.0193
51.1033
36.2483
26.1744
19.3341
14.6881
11.5646
9.50738
50.0522
77.9164
72.0456
49.1136
34.207
24.4132
17.9014
13.5847
10.7809
9.02561
62.7179
86.5661
66.0959
45.0244
31.3946
22.396
16.4288
12.5445
10.117
8.6956
76.1683
86.5236
59.945
41.3572
28.8912
20.566
15.0971
11.644
9.60509
8.52801
84.4166
84.0142
56.661
38.6126
26.7132
18.8886
13.8843
10.8713
9.2352
8.51101
93.5399
78.1742
52.3635
35.5597
24.471
17.2371
12.7469
10.2093
8.99935
8.64085
95.7829
70.3283
48.1579
32.7744
22.3818
15.676
11.7021
9.66495
8.90586
8.93264
98.2591
68.5019
46.0341
30.5971
20.4282
14.1632
10.734
9.24045
8.96877
9.41138
105.555
68.4967
43.9212
28.1036
18.2692
12.6051
9.83206
8.94678
9.2056
10.101
107.456
64.7274
39.7412
24.7416
15.8473
11.0475
9.03623
8.80616
9.62973
11.0159
86.0909
54.3993
34.0184
21.1769
13.5286
9.64409
8.39653
8.8261
10.2338
12.1493
78.3194
48.8209
30.039
18.3185
11.5456
8.439
7.9016
8.97374
10.97
13.4418
72.9976
44.4069
26.6209
15.7701
9.7575
7.36558
7.50319
9.20181
11.7877
14.8419
67.2709
40.0536
23.3733
13.4072
8.11643
6.38636
7.16279
9.47052
12.653
16.3351
61.3479
35.751
20.2893
11.2375
6.617
5.47691
6.84407
9.7363
13.5238
17.8843
55.5501
31.4874
17.3672
9.27504
5.25921
4.61661
6.50918
9.94955
14.3513
19.4588
49.0319
27.0534
14.6244
7.55179
4.05337
3.79254
6.12139
10.0565
15.0736
21.0088
40.7611
22.6671
12.2485
6.12105
3.01437
3.00278
5.65424
10.0133
15.6184
22.3996
34.1274
19.3638
10.4463
4.97207
2.14224
2.26047
5.10493
9.81646
15.9639
23.5073
29.4326
17.062
9.06121
4.00082
1.42953
1.59456
4.49183
9.51246
16.204
24.4098
26.8186
15.6246
7.93483
3.13249
0.879125
1.03732
3.82968
9.15649
16.5425
25.5522
26.2696
14.7129
6.86879
2.32216
0.488366
0.607614
3.10345
8.70453
17.0588
27.3695
26.5043
13.7487
5.69588
1.58033
0.242473
0.309865
2.3021
7.98468
17.5281
29.9118
26.4533
12.3826
4.40261
0.963714
0.109691
0.134765
1.49073
6.83383
17.5472
32.8059
25.0958
10.4086
3.08045
0.518836
0.0490702
0.0529695
0.802239
5.22424
16.659
35.5031
21.7245
7.92783
1.91022
0.250272
0.0252401
0.0236533
0.347263
3.34571
14.321
36.7539
17.3303
5.38483
1.03684
0.111952
0.0164083
0.0151697
0.125257
1.66463
10.3543
34.4008
11.3264
2.9862
0.463002
0.0501197
0.0133706
0.0129793
0.0486212
0.614228
5.58972
26.516
5.7351
1.35368
0.191062
0.0290991
0.0125171
0.0123942
0.0271587
0.185002
1.87061
12.0175
1.39432
0.471743
0.080962
0.0223818
0.0123066
0.0122823
0.021897
0.0704032
0.441511
1.74187
0.0501487
0.0494873
0.0482672
0.0465534
0.0447754
0.0432983
0.0421519
0.0414766
0.041371
0.0418166
0.0426983
0.043893
0.0453401
0.0470974
0.048852
0.0500331
0.0505826
0.0505435
0.0499442
0.0488809
0.0474749
0.0458745
0.044209
0.0425186
0.0407299
0.0387148
0.0363605
0.0335893
0.0303482
0.026668
0.0228389
0.0193116
0.0163432
0.0138006
0.0113846
0.00895932
0.00656208
0.00438331
0.000883996
0.00198228
0.0235679
0.0234758
0.0232718
0.0230088
0.0227962
0.022676
0.0226105
0.0225714
0.022533
0.0224969
0.0224987
0.0225595
0.0226831
0.0228958
0.0231571
0.0233476
0.0234136
0.0233335
0.0231023
0.0227284
0.0222328
0.0216487
0.0210086
0.0203232
0.0195736
0.0187285
0.0177629
0.0166631
0.0154274
0.0140789
0.01268
0.0113205
0.01004
0.00879849
0.00757512
0.0063601
0.00516936
0.00406602
0.00318247
0.00361764
0.0202642
0.0203115
0.0203068
0.0202759
0.0202553
0.0202513
0.0202608
0.0202817
0.0203137
0.020355
0.0204162
0.0205175
0.0206543
0.020811
0.0209542
0.0210585
0.0210998
0.0210575
0.0209158
0.020665
0.0203077
0.019865
0.019368
0.0188287
0.0182279
0.0175452
0.0167751
0.0159257
0.0150123
0.0140571
0.0130807
0.0120967
0.0110814
0.0100394
0.00899085
0.00794306
0.00690491
0.00595188
0.00532023
0.00616652
0.0205293
0.0206724
0.0207807
0.0208678
0.0209495
0.0210306
0.0211157
0.0212102
0.0213287
0.0214613
0.0216025
0.0217746
0.0219667
0.0221461
0.0223108
0.0224517
0.0225491
0.0225808
0.022525
0.0223629
0.0220848
0.0216997
0.0212328
0.0206989
0.020084
0.0193848
0.0186083
0.017774
0.0169036
0.0160177
0.015132
0.0142552
0.0133586
0.0124347
0.0114813
0.0105133
0.0095419
0.0086257
0.00793615
0.00851542
0.0221088
0.0223459
0.022559
0.0227576
0.0229539
0.0231547
0.0233531
0.0235483
0.0237597
0.0239645
0.0241605
0.0243786
0.0246191
0.0248635
0.0251149
0.0253569
0.0255629
0.0257061
0.0257636
0.0257181
0.0255588
0.0252742
0.0248454
0.0242599
0.023545
0.0227402
0.0218517
0.0209055
0.0199313
0.0189587
0.0180107
0.0170947
0.016198
0.0153157
0.0144632
0.0136425
0.012865
0.0121895
0.0120839
0.00877868
0.0244142
0.0247516
0.0250744
0.0253908
0.0257114
0.0260433
0.0263838
0.0267178
0.027023
0.0272764
0.0275069
0.0277651
0.0280716
0.0284345
0.028841
0.0292497
0.0296152
0.0299053
0.0301015
0.0301952
0.0301786
0.030024
0.029683
0.0291273
0.028377
0.0274511
0.0263845
0.0252289
0.0240399
0.0228746
0.0217642
0.0207152
0.0196912
0.0186944
0.0177763
0.0169896
0.0163983
0.0160846
0.0164589
0.0374877
0.027212
0.0276593
0.0280973
0.0285338
0.0289802
0.0294417
0.0299068
0.0303533
0.0307375
0.0310502
0.0313357
0.0316533
0.0320607
0.0325937
0.0332267
0.0338739
0.0344524
0.0349238
0.0352781
0.0355222
0.0356581
0.0356668
0.0355005
0.0351114
0.0344726
0.0335705
0.0324059
0.0310115
0.0295224
0.0281098
0.0268033
0.0255417
0.0242238
0.0229038
0.021745
0.0208776
0.0203989
0.0204223
0.0211212
0.00879806
0.0303781
0.0309451
0.0315026
0.0320551
0.0326162
0.0331872
0.03375
0.0342758
0.0347351
0.0351285
0.0355027
0.0359313
0.0364911
0.0372326
0.038137
0.039076
0.0399109
0.0405958
0.0411276
0.0415418
0.0418567
0.0420707
0.0421569
0.0420766
0.0417739
0.0411753
0.0402294
0.038913
0.0372599
0.0356426
0.0341999
0.0326201
0.0307472
0.0287592
0.0270449
0.025833
0.0252719
0.0256607
0.0277866
0.0386411
0.0337831
0.034479
0.0351592
0.0358163
0.0364645
0.0371112
0.0377425
0.03834
0.038891
0.0394061
0.039934
0.0405513
0.0413289
0.0423145
0.0435006
0.0447608
0.0459054
0.0468391
0.0475902
0.0482428
0.0488331
0.0493791
0.0498812
0.0503205
0.0506447
0.0507661
0.0506032
0.050108
0.0492348
0.0479562
0.0464729
0.0443575
0.0416433
0.0385649
0.0358368
0.0337595
0.0324931
0.032742
0.0360196
0.0520283
0.0372762
0.0380626
0.0388605
0.0396219
0.0403518
0.0410803
0.0418034
0.0425149
0.0432165
0.0439276
0.0446928
0.0455733
0.0466378
0.0479191
0.0493967
0.050987
0.0524826
0.0537384
0.0548329
0.0558894
0.0569658
0.0581104
0.0593687
0.0607603
0.0622444
0.0637284
0.0651333
0.0664502
0.0676725
0.0683963
0.0679176
0.0657783
0.0626625
0.0590173
0.0549796
0.0508048
0.0468286
0.0446178
0.0477293
0.073805
0.0407105
0.0415371
0.0424776
0.0434002
0.0442591
0.0451169
0.0459847
0.0468663
0.0477729
0.0487316
0.0497904
0.0510097
0.0524498
0.0541089
0.0559252
0.0578608
0.059743
0.0614918
0.0631752
0.0649045
0.066788
0.0689418
0.0714968
0.0745376
0.0780023
0.0817424
0.085695
0.0899454
0.0945504
0.0991674
0.102721
0.104693
0.105066
0.103869
0.100608
0.0935702
0.0827927
0.0709137
0.066276
0.104513
0.044214
0.0451367
0.0461931
0.0472773
0.0483148
0.0493471
0.0503991
0.0514819
0.052615
0.0538314
0.0551839
0.0567409
0.0585481
0.0605795
0.0628028
0.0651921
0.067638
0.0700966
0.0726322
0.0753761
0.078487
0.0821581
0.0866327
0.0920857
0.0984071
0.105284
0.112758
0.121158
0.130645
0.141134
0.152164
0.163183
0.173819
0.182926
0.186184
0.179128
0.160388
0.131088
0.105083
0.145919
0.0479239
0.0489397
0.0500874
0.0513146
0.0525477
0.0537867
0.0550487
0.0563581
0.0577405
0.0592338
0.0608895
0.0627673
0.0649092
0.0673172
0.0699888
0.0729114
0.0760414
0.0793709
0.082985
0.0870486
0.0917502
0.0972956
0.103967
0.112112
0.121733
0.132385
0.144241
0.157848
0.173535
0.191495
0.211656
0.233507
0.255823
0.275839
0.288221
0.287159
0.268698
0.231344
0.177469
0.167041
0.0519054
0.0529938
0.0542139
0.0555596
0.0569799
0.0584485
0.05996
0.0615336
0.0632103
0.06503
0.0670399
0.0692908
0.0718252
0.0746688
0.0778407
0.081358
0.0852277
0.0894719
0.0942051
0.0996331
0.105948
0.113321
0.122066
0.132693
0.145393
0.159912
0.176374
0.195204
0.216804
0.2415
0.26936
0.299844
0.331208
0.359708
0.380005
0.388012
0.382123
0.358416
0.307069
0.227634
0.0562225
0.0574012
0.0587227
0.0601915
0.0617861
0.063482
0.0652695
0.0671578
0.069172
0.0713602
0.0737763
0.0764633
0.0794642
0.082819
0.0865687
0.0907586
0.095431
0.100629
0.106463
0.113132
0.120834
0.129807
0.140444
0.153213
0.168421
0.186131
0.206465
0.22967
0.25614
0.286377
0.320743
0.358768
0.397997
0.432698
0.455737
0.464251
0.463566
0.45901
0.447362
0.370735
0.0610672
0.0623755
0.0638332
0.0654522
0.0672292
0.069154
0.0712223
0.0734437
0.0758413
0.0784496
0.0813125
0.084493
0.088033
0.0919773
0.0963797
0.101306
0.106836
0.113059
0.120069
0.128024
0.137135
0.14774
0.160249
0.175003
0.192327
0.212529
0.235837
0.262516
0.293084
0.328617
0.370968
0.421183
0.475053
0.517964
0.534817
0.526403
0.512658
0.510513
0.537694
0.576829
0.0666748
0.0681554
0.0697871
0.0715916
0.073579
0.075754
0.0781237
0.0807035
0.0835173
0.0865968
0.0899789
0.0937043
0.0978418
0.102436
0.107544
0.113243
0.119645
0.126886
0.135111
0.144511
0.155336
0.167959
0.182777
0.199998
0.219852
0.24271
0.268792
0.298409
0.332395
0.372831
0.424518
0.494953
0.581197
0.647325
0.646017
0.601634
0.562606
0.546758
0.587164
0.802403
0.0733476
0.0750522
0.0769061
0.0789405
0.0811802
0.0836466
0.0863611
0.0893454
0.092624
0.0962235
0.100173
0.104509
0.109273
0.114534
0.120346
0.126802
0.134045
0.142256
0.151649
0.162497
0.175157
0.190081
0.207741
0.228479
0.25248
0.279928
0.311044
0.34645
0.387956
0.439688
0.508579
0.601856
0.726624
0.849254
0.778944
0.685792
0.621689
0.590149
0.626574
0.998083
0.081483
0.0834796
0.0856202
0.0879458
0.0904982
0.0933208
0.096449
0.0999052
0.103707
0.107869
0.112405
0.117345
0.122731
0.128622
0.135082
0.142231
0.15026
0.159417
0.170007
0.182419
0.197161
0.214848
0.236114
0.261489
0.291321
0.325872
0.365601
0.411988
0.468753
0.542656
0.641147
0.776616
0.956381
0.968849
0.849454
0.748085
0.67763
0.639221
0.670008
1.14364
0.0915964
0.093993
0.0965234
0.0992344
0.10219
0.10546
0.109085
0.11308
0.117449
0.12218
0.127263
0.132732
0.138653
0.145074
0.152085
0.159863
0.168677
0.17886
0.190832
0.205114
0.222377
0.243411
0.269001
0.299794
0.336184
0.378429
0.427076
0.48399
0.553598
0.641831
0.756254
0.901844
0.968226
0.919754
0.848773
0.78005
0.723822
0.690767
0.722854
1.24678
0.104376
0.107388
0.110508
0.113764
0.117237
0.121033
0.125182
0.129697
0.134599
0.139841
0.145352
0.151167
0.157426
0.164216
0.171657
0.180029
0.189685
0.201039
0.214612
0.231028
0.251051
0.275541
0.305292
0.340865
0.38245
0.42992
0.483282
0.543683
0.614448
0.701003
0.802852
0.879105
0.899288
0.882848
0.847593
0.80539
0.768019
0.748885
0.791577
1.34421
0.120738
0.124804
0.128878
0.132947
0.137058
0.14134
0.145857
0.15063
0.155752
0.161247
0.166969
0.172895
0.179201
0.186158
0.193955
0.202939
0.213524
0.226175
0.241457
0.260019
0.282619
0.310032
0.342902
0.381559
0.425876
0.475333
0.529411
0.588359
0.653801
0.727477
0.799875
0.848482
0.870084
0.869933
0.854631
0.833661
0.817156
0.81843
0.882608
1.47874
0.141387
0.147175
0.152719
0.157977
0.162846
0.167387
0.171958
0.176597
0.181301
0.186268
0.191638
0.197485
0.203877
0.210993
0.219208
0.228891
0.240446
0.254391
0.27131
0.291782
0.316443
0.345901
0.380597
0.420648
0.46576
0.515291
0.568534
0.625184
0.685414
0.747384
0.803071
0.843991
0.867542
0.87641
0.875416
0.871972
0.876017
0.90255
1.00035
1.68212
0.164362
0.173193
0.181286
0.188368
0.194207
0.198609
0.202497
0.206523
0.210764
0.215309
0.220295
0.225868
0.232166
0.23943
0.248095
0.258482
0.270983
0.286154
0.304497
0.326487
0.352603
0.383269
0.418754
0.459088
0.504039
0.5531
0.605588
0.66089
0.718406
0.775274
0.824213
0.861473
0.887745
0.904701
0.91486
0.924882
0.947857
1.00421
1.14872
1.97059
0.186556
0.197577
0.208072
0.217424
0.225292
0.231684
0.236852
0.2414
0.245681
0.249878
0.254319
0.259315
0.26519
0.272344
0.281168
0.292037
0.305374
0.321653
0.341197
0.364353
0.391458
0.422802
0.458561
0.498723
0.54304
0.59103
0.642068
0.6956
0.751401
0.806551
0.853418
0.89212
0.925934
0.953807
0.974066
0.994168
1.03464
1.12607
1.33062
2.34888
0.20765
0.220602
0.233373
0.245403
0.256241
0.265697
0.273462
0.279746
0.284931
0.289346
0.293335
0.297535
0.302714
0.309526
0.318527
0.330023
0.344307
0.361714
0.3825
0.406891
0.435108
0.467384
0.503884
0.544591
0.589135
0.636635
0.686179
0.737067
0.789634
0.844249
0.890802
0.933966
0.979757
1.02188
1.0513
1.0799
1.13772
1.26668
1.54102
2.81499
0.227006
0.241934
0.257069
0.272028
0.286455
0.299719
0.310631
0.318685
0.324645
0.329414
0.333528
0.337638
0.342776
0.349907
0.359732
0.372491
0.388477
0.407876
0.430828
0.457442
0.487984
0.522834
0.562096
0.605275
0.651672
0.700195
0.74961
0.798887
0.846967
0.898317
0.944404
0.991456
1.04986
1.10335
1.13843
1.17933
1.258
1.41617
1.76227
3.36804
0.243791
0.260476
0.27774
0.295309
0.312746
0.328946
0.342408
0.352557
0.360264
0.366583
0.37248
0.378638
0.385875
0.395304
0.40758
0.423235
0.4423
0.465094
0.49188
0.522704
0.557826
0.597296
0.640529
0.687058
0.736228
0.787171
0.838935
0.890936
0.941204
0.985952
1.02599
1.071
1.13225
1.2057
1.24394
1.29848
1.40252
1.59374
2.01962
4.0407
0.257507
0.275557
0.294329
0.313416
0.332188
0.34993
0.366143
0.38047
0.392677
0.403162
0.413155
0.423836
0.436349
0.451468
0.469933
0.49172
0.516769
0.545782
0.579628
0.618224
0.660939
0.706414
0.75359
0.802308
0.852725
0.905045
0.959039
1.01341
1.06877
1.11698
1.13779
1.1766
1.22362
1.31538
1.37054
1.44268
1.58279
1.82433
2.32823
4.73753
0.267621
0.286616
0.306439
0.326733
0.347022
0.366908
0.386194
0.404726
0.422322
0.439396
0.457437
0.478278
0.503078
0.530488
0.561446
0.596175
0.634773
0.677913
0.727157
0.781302
0.836239
0.889856
0.938538
0.9855
1.03321
1.08304
1.13426
1.17112
1.19414
1.21466
1.23611
1.27251
1.32206
1.39463
1.49483
1.60796
1.80434
2.11657
2.70164
5.31894
0.273865
0.293493
0.314149
0.335622
0.357649
0.380018
0.402677
0.425804
0.450014
0.476774
0.508506
0.548744
0.597204
0.649526
0.70894
0.773329
0.841009
0.912317
0.99281
1.07333
1.14185
1.1952
1.2393
1.28397
1.32798
1.3699
1.38239
1.36296
1.3413
1.3327
1.34219
1.37025
1.42089
1.50377
1.63208
1.81848
2.09725
2.51224
3.17562
5.74238
0.276359
0.296336
0.317605
0.340135
0.363889
0.388887
0.415286
0.443522
0.474563
0.510351
0.554154
0.609104
0.668132
0.725378
0.791227
0.873044
0.974305
1.08229
1.17272
1.24161
1.29555
1.33701
1.37718
1.41612
1.44614
1.46392
1.47023
1.47633
1.48669
1.49685
1.50391
1.52582
1.58177
1.69039
1.86963
2.1395
2.53167
3.09416
3.86686
6.13207
0.275626
0.295644
0.317201
0.34044
0.365545
0.392754
0.422363
0.454734
0.490465
0.530644
0.575797
0.622709
0.673031
0.730578
0.797808
0.874244
0.948538
1.009
1.05757
1.09936
1.13814
1.17645
1.21706
1.25901
1.30014
1.34014
1.38039
1.42228
1.46842
1.52176
1.58747
1.67671
1.80843
2.00885
2.30788
2.73815
3.3345
4.13277
5.18116
6.95077
0.272665
0.29243
0.31385
0.337182
0.362744
0.390898
0.421982
0.456194
0.493421
0.533348
0.575996
0.622058
0.672561
0.726862
0.782119
0.836357
0.888129
0.936389
0.980339
1.02079
1.05938
1.09784
1.13811
1.1815
1.22889
1.28157
1.34148
1.4108
1.49316
1.59603
1.73036
1.91236
2.16955
2.5498
3.11716
3.93539
5.06501
5.93025
7.32055
8.46006
0.268934
0.288322
0.309314
0.33218
0.35725
0.384878
0.415357
0.448799
0.484987
0.52328
0.563039
0.605275
0.651904
0.703
0.755579
0.806664
0.854809
0.899681
0.941521
0.981312
1.02045
1.06047
1.10303
1.14992
1.2032
1.26565
1.34102
1.43469
1.5554
1.71422
1.93133
2.23891
2.69281
3.39438
4.54393
6.14817
6.37163
7.71516
8.61534
9.91961
0.266139
0.285391
0.30612
0.328548
0.352946
0.379608
0.408773
0.440557
0.474878
0.511471
0.55015
0.591824
0.638459
0.689814
0.742183
0.792321
0.838811
0.882082
0.923227
0.963537
1.00437
1.04719
1.09372
1.14596
1.20661
1.27951
1.37023
1.48687
1.64154
1.85335
2.15597
2.60595
3.30481
4.41628
5.64439
6.19791
6.83051
8.69979
7.81443
10.0948
0.265765
0.285491
0.306616
0.3293
0.353756
0.380232
0.408975
0.440184
0.473978
0.510418
0.549719
0.593059
0.642166
0.695021
0.746372
0.794539
0.839914
0.883426
0.926155
0.969067
1.01316
1.0597
1.11042
1.16759
1.23444
1.31585
1.41888
1.55381
1.73593
1.98926
2.3538
2.89557
3.71232
4.62085
5.07367
5.4016
6.12409
7.15305
6.91709
9.91222
0.268716
0.289734
0.312187
0.336174
0.361853
0.389454
0.419269
0.451625
0.486765
0.524591
0.565299
0.610961
0.662633
0.716616
0.767453
0.814936
0.861661
0.908226
0.954822
1.00189
1.05002
1.10027
1.15427
1.21441
1.28423
1.36902
1.47646
1.61777
1.80969
2.07754
2.46055
3.01896
3.82265
4.58458
4.79245
4.92625
5.44481
6.34664
6.55468
9.84565
0.275218
0.298371
0.323096
0.349421
0.377404
0.407218
0.439177
0.473743
0.510944
0.550319
0.593464
0.64267
0.696962
0.7516
0.803999
0.855515
0.907166
0.959023
1.01104
1.06319
1.11571
1.16936
1.2255
1.28626
1.35493
1.43644
1.53803
1.67032
1.84898
2.09738
2.45041
2.96013
3.69787
4.44934
4.64168
4.64122
4.91264
5.71154
6.21895
9.56845
0.284703
0.310873
0.338797
0.368353
0.399463
0.432121
0.466541
0.503263
0.542382
0.584657
0.632439
0.686177
0.743321
0.80105
0.858958
0.917154
0.975707
1.03447
1.09309
1.15121
1.20868
1.26582
1.32354
1.3834
1.44797
1.52118
1.60882
1.71932
1.86509
2.06451
2.34502
2.74773
3.33424
4.06846
4.42406
4.38641
4.4411
5.01023
5.62112
8.89772
0.29584
0.325548
0.357438
0.391201
0.426354
0.46241
0.49938
0.53819
0.580099
0.627272
0.680594
0.739086
0.800773
0.864433
0.929506
0.995637
1.06252
1.12961
1.19621
1.26158
1.32518
1.38684
1.44691
1.5063
1.56666
1.63056
1.70179
1.7859
1.89093
2.02873
2.21691
2.48186
2.86282
3.41469
3.98948
4.06424
3.97662
4.2518
4.81849
7.9319
0.306866
0.33999
0.375763
0.413881
0.453681
0.494131
0.534454
0.575909
0.621695
0.67416
0.732967
0.796828
0.864463
0.93518
1.00854
1.08409
1.1611
1.23855
1.31516
1.3897
1.46115
1.52901
1.59329
1.65443
1.71327
1.77104
1.8296
1.89162
1.96111
2.04407
2.14956
2.29127
2.49001
2.77657
3.19189
3.57831
3.54087
3.56537
3.96394
6.89559
0.316142
0.352166
0.391205
0.433147
0.477477
0.522919
0.56738
0.611719
0.661709
0.719249
0.783571
0.85355
0.928375
1.00769
1.09122
1.17841
1.26815
1.35876
1.44806
1.53385
1.6146
1.68991
1.75998
1.82536
1.8865
1.94373
1.99721
2.04723
2.09451
2.14074
2.18924
2.24575
2.31973
2.4266
2.59069
2.84684
3.06054
3.09319
3.26557
6.02976
0.323095
0.361512
0.403375
0.448678
0.49656
0.544626
0.591102
0.639921
0.695027
0.758031
0.828459
0.905586
0.989063
1.07887
1.17499
1.27689
1.38326
1.4915
1.5975
1.69689
1.78718
1.86907
1.94433
2.01473
2.08113
2.14332
2.20014
2.24985
2.29046
2.3204
2.33922
2.34834
2.35167
2.35654
2.37579
2.42973
2.54475
2.72563
2.93365
5.48973
0.328941
0.368615
0.41228
0.46023
0.510821
0.55994
0.607662
0.661435
0.721293
0.78942
0.866015
0.950824
1.04392
1.14573
1.25682
1.37673
1.50481
1.63782
1.76841
1.88737
1.98691
2.07072
2.14579
2.218
2.28979
2.36052
2.42762
2.48737
2.53529
2.56683
2.57839
2.56863
2.53921
2.49525
2.44603
2.40794
2.41035
2.52131
2.90734
5.34054
0.335537
0.375818
0.420098
0.468645
0.520551
0.569901
0.622703
0.680416
0.743859
0.81638
0.898635
0.990797
1.09326
1.20671
1.33214
1.47068
1.62354
1.7902
1.96033
2.11412
2.22994
2.30856
2.37041
2.43401
2.50645
2.58594
2.66745
2.7448
2.81092
2.8581
2.8794
2.87075
2.83249
2.77018
2.6952
2.62728
2.60372
2.70946
3.20845
5.67431
0.343939
0.384197
0.43024
0.480578
0.533541
0.586135
0.647977
0.70673
0.772035
0.847339
0.933641
1.03167
1.14202
1.26545
1.40316
1.55714
1.73111
1.93178
2.16304
2.34197
2.48579
2.58264
2.62275
2.66273
2.72689
2.8118
2.90867
3.00811
3.10023
3.17392
3.21828
3.22593
3.19556
3.13323
3.05304
2.97926
2.95487
3.07468
3.6668
7.06458
0.359821
0.402291
0.447196
0.498432
0.556831
0.623941
0.692839
0.756211
0.824006
0.901423
0.990881
1.09406
1.21165
1.34408
1.49219
1.65786
1.84524
2.06292
2.32236
2.51537
2.58802
2.68669
2.79378
2.87561
2.94344
3.03125
3.14258
3.26599
3.38938
3.49839
3.57748
3.6148
3.60646
3.55826
3.48646
3.41982
3.40871
3.5651
4.27738
8.88037
0.389832
0.439363
0.491262
0.548585
0.614386
0.687843
0.76428
0.839447
0.910838
0.989409
1.08371
1.1947
1.32185
1.46498
1.62446
1.80122
1.99692
2.21429
2.45533
2.6283
2.6879
2.76574
2.88006
3.00483
3.12326
3.23645
3.36544
3.51415
3.67258
3.82398
3.94777
4.02659
4.05286
4.03107
3.97854
3.92763
3.93637
4.13818
5.01689
10.8199
0.435868
0.494952
0.556989
0.62471
0.699035
0.778812
0.858971
0.934687
1.01086
1.10146
1.20967
1.33467
1.47575
1.63324
1.80823
2.00216
2.21629
2.45076
2.69625
2.86215
2.91902
2.98193
3.08281
3.20117
3.31934
3.44293
3.58779
3.75867
3.95195
4.14894
4.32358
4.45216
4.52259
4.537
4.51258
4.48424
4.51751
4.76838
5.81766
12.8332
0.489421
0.562195
0.637723
0.716446
0.797653
0.878796
0.955672
1.03646
1.13133
1.24199
1.36791
1.50856
1.66439
1.83722
2.02993
2.24611
2.48965
2.76347
3.03805
3.21462
3.2759
3.31405
3.38436
3.48045
3.58201
3.69274
3.83374
4.01304
4.23375
4.47322
4.69879
4.87999
4.99992
5.05765
5.06927
5.07136
5.13612
5.44085
6.66036
14.8732
0.540019
0.62322
0.712402
0.801406
0.888072
0.975679
1.06961
1.1736
1.28997
1.41913
1.56049
1.71388
1.88067
2.06391
2.26819
2.49975
2.76705
3.07995
3.43047
3.71103
3.7888
3.77631
3.78707
3.82443
3.87576
3.95724
4.08065
4.26578
4.51129
4.78969
5.06202
5.29403
5.46513
5.57116
5.62633
5.66786
5.7731
6.13784
7.52482
16.89
0.606171
0.699326
0.8001
0.905831
1.01436
1.12582
1.24263
1.36761
1.50277
1.64818
1.80196
1.96321
2.13318
2.31498
2.51321
2.73433
2.98761
3.28418
3.63174
4.02127
4.3058
4.32612
4.23824
4.15087
4.11968
4.16607
4.28973
4.49623
4.77298
5.08782
5.40159
5.68012
5.90092
6.05715
6.16112
6.25043
6.40684
6.84402
8.41376
18.9225
0.714253
0.827781
0.951321
1.08361
1.2224
1.36513
1.51062
1.65986
1.81304
1.96897
2.12505
2.28111
2.43882
2.60103
2.77117
2.95359
3.15381
3.37739
3.62773
3.90451
4.19352
4.35793
4.31108
4.23353
4.22611
4.30579
4.47207
4.71994
5.03227
5.37981