/*--------------------------------*- C++ -*----------------------------------*\
  =========                 |
  \\      /  F ield         | OpenFOAM: The Open Source CFD Toolbox
   \\    /   O peration     | Website:  https://openfoam.org
    \\  /    A nd           | Version:  8
     \\/     M anipulation  |
\*---------------------------------------------------------------------------*/
FoamFile
{
    version     2.0;
    format      ascii;
    class       volScalarField;
    location    "3.35";
    object      nut;
}
// * * * * * * * * * * * * * * * * * * * * * * * * * * * * * * * * * * * * * //

dimensions      [0 2 -1 0 0 0 0];

internalField   nonuniform List<scalar> 
9150
(
9.60046e-06
6.4048e-06
6.57113e-06
8.74521e-06
7.57736e-06
7.57494e-06
8.74166e-06
6.56915e-06
6.40435e-06
9.6004e-06
9.48766e-06
5.73708e-06
8.27566e-06
9.88874e-06
7.05091e-06
7.04872e-06
9.88493e-06
8.27287e-06
5.73665e-06
9.4876e-06
9.29569e-06
5.49998e-06
1.08004e-05
1.02645e-05
6.7038e-06
6.70172e-06
1.02607e-05
1.07967e-05
5.49956e-06
9.29564e-06
9.08005e-06
5.42226e-06
1.34038e-05
1.02623e-05
6.51751e-06
6.51548e-06
1.02585e-05
1.33995e-05
5.42188e-06
9.07999e-06
8.84522e-06
5.40599e-06
1.5648e-05
1.01708e-05
6.42293e-06
6.42091e-06
1.0167e-05
1.56432e-05
5.40566e-06
8.84517e-06
5.91231e-06
1.12738e-05
1.38567e-05
1.73998e-05
1.65998e-05
1.65945e-05
1.73925e-05
1.38507e-05
1.12702e-05
5.91206e-06
6.28014e-06
8.85647e-06
1.13516e-05
1.52943e-05
1.43605e-05
1.4356e-05
1.52884e-05
1.13475e-05
8.85494e-06
6.28006e-06
6.83019e-06
7.901e-06
9.37949e-06
1.3059e-05
1.20771e-05
1.20734e-05
1.30542e-05
9.3765e-06
7.90001e-06
6.83012e-06
7.38709e-06
7.29484e-06
7.97008e-06
1.11482e-05
1.01574e-05
1.01543e-05
1.11441e-05
7.96764e-06
7.29409e-06
7.38702e-06
8.07468e-06
6.84482e-06
7.05027e-06
9.64813e-06
8.61247e-06
8.60978e-06
9.64445e-06
7.04813e-06
6.84422e-06
8.0746e-06
1.21704e-05
1.33097e-05
1.2543e-05
1.56338e-05
1.74115e-05
1.74061e-05
1.56233e-05
1.2433e-05
1.23072e-05
1.05963e-05
7.87257e-06
1.07744e-05
1.23868e-05
1.57841e-05
1.74853e-05
1.74774e-05
1.57673e-05
1.23651e-05
1.07692e-05
7.85938e-06
7.45723e-06
1.01829e-05
1.24786e-05
1.59632e-05
1.75602e-05
1.75532e-05
1.59486e-05
1.2466e-05
1.0181e-05
7.45608e-06
7.03088e-06
9.79403e-06
1.25253e-05
1.61106e-05
1.76201e-05
1.76131e-05
1.60978e-05
1.2516e-05
9.78984e-06
7.03032e-06
6.50888e-06
1.00517e-05
1.2542e-05
1.63053e-05
1.75171e-05
1.75105e-05
1.62954e-05
1.25349e-05
1.00472e-05
6.50855e-06
1.05251e-05
1.065e-05
1.07675e-05
1.08754e-05
1.09722e-05
1.10562e-05
1.11257e-05
1.11785e-05
1.12118e-05
1.12218e-05
9.3687e-05
9.475e-05
9.56967e-05
9.65471e-05
9.7304e-05
9.79622e-05
9.85121e-05
9.89406e-05
9.92298e-05
9.9354e-05
0.000182253
0.000183929
0.000185426
0.000186745
0.000187882
0.000188826
0.000189564
0.000190079
0.000190349
0.00019034
0.000252158
0.000253955
0.000255541
0.000256903
0.000258029
0.000258907
0.000259522
0.000259861
0.000259905
0.000259633
0.000306088
0.000307754
0.000309173
0.000310339
0.000311239
0.000311859
0.000312191
0.000312224
0.000311949
0.000311357
0.000348413
0.00034984
0.000350985
0.000351855
0.000352438
0.000352726
0.000352712
0.000352391
0.000351761
0.00035082
0.000382654
0.000383787
0.000384631
0.000385168
0.000385405
0.000385333
0.00038495
0.000384254
0.000383244
0.000381925
0.000411306
0.000412123
0.000412637
0.000412834
0.000412707
0.000412257
0.000411483
0.000410385
0.000408959
0.000407202
0.000436044
0.000436531
0.000436697
0.000436529
0.000436019
0.000435162
0.000433957
0.000432397
0.000430482
0.000428212
0.000457955
0.000458103
0.000457907
0.000457351
0.000456426
0.000455124
0.00045344
0.000451369
0.000448906
0.000446042
0.000477769
0.000477577
0.000477006
0.000476042
0.000474674
0.000472894
0.000470695
0.000468068
0.000464997
0.000461453
0.000496024
0.00049549
0.00049454
0.000493161
0.000491337
0.00048906
0.000486321
0.000483107
0.00047939
0.000475141
0.000513137
0.000512275
0.000510963
0.000509183
0.000506919
0.000504158
0.000500885
0.000497087
0.000492738
0.000487825
0.000529467
0.000528312
0.000526679
0.000524548
0.000521898
0.00051871
0.000514964
0.00051064
0.000505717
0.000500191
0.000545335
0.000543944
0.000542057
0.00053965
0.000536701
0.000533186
0.00052908
0.000524355
0.000518985
0.000512954
0.000561
0.000559446
0.000557385
0.000554793
0.000551647
0.000547917
0.000543574
0.000538586
0.000532921
0.000526557
0.000576635
0.000574993
0.000572842
0.000570161
0.000566925
0.000563106
0.000558671
0.000553585
0.000547813
0.000541327
0.000592303
0.000590637
0.00058847
0.000585784
0.000582559
0.000578767
0.000574379
0.000569358
0.000563668
0.000557277
0.000607951
0.000606303
0.000604167
0.000601533
0.000598387
0.000594711
0.000590478
0.000585656
0.000580209
0.000574103
0.000623426
0.000621803
0.000619707
0.000617138
0.000614096
0.000610572
0.000606554
0.000602015
0.000596922
0.000591236
0.000638509
0.000636884
0.000634795
0.000632254
0.000629281
0.000625889
0.000622082
0.000617851
0.00061317
0.000607994
0.000652974
0.000651298
0.00064916
0.000646591
0.000643624
0.000640294
0.000636634
0.000632671
0.000628415
0.000623845
0.000666646
0.000664869
0.000662628
0.000659968
0.000656939
0.000653602
0.000650026
0.000646284
0.00064245
0.000638545
0.000679441
0.000677533
0.00067516
0.00067238
0.00066926
0.000665883
0.000662342
0.000658735
0.000655144
0.000651605
0.000691376
0.00068933
0.000686822
0.000683915
0.000680691
0.000677242
0.000673669
0.000670066
0.000666502
0.000662993
0.000702521
0.000700338
0.000697684
0.000694623
0.000691236
0.000687613
0.000683844
0.000680009
0.000676156
0.000672288
0.000712992
0.000710669
0.000707849
0.000704585
0.000700948
0.000697016
0.000692864
0.000688556
0.000684135
0.000679611
0.000722952
0.000720497
0.000717497
0.000713993
0.000710041
0.000705703
0.000701042
0.000696113
0.000690961
0.000685612
0.0007326
0.000730044
0.00072688
0.000723139
0.000718859
0.000714087
0.000708877
0.00070328
0.000697346
0.00069112
0.000742147
0.000739557
0.000736284
0.000732353
0.000727788
0.000722619
0.00071689
0.000710648
0.000703946
0.000696838
0.000751783
0.000749261
0.000745982
0.000741951
0.00073719
0.000731714
0.000725555
0.000718753
0.000711359
0.000703432
0.00076162
0.000759297
0.000756144
0.000752145
0.000747321
0.000741678
0.000735233
0.000728021
0.000720089
0.000711501
0.000771648
0.000769661
0.000766784
0.000762986
0.000758247
0.000752598
0.000746049
0.000738626
0.000730375
0.00072137
0.000781695
0.000780154
0.000777673
0.000774211
0.000769727
0.000764223
0.000757738
0.000750295
0.000741945
0.000732775
0.000791421
0.000790369
0.000788335
0.000785269
0.000781126
0.000775877
0.000769544
0.00076219
0.000753873
0.000744695
0.000800369
0.000799748
0.000798103
0.000795374
0.000791517
0.0007865
0.000780316
0.000773016
0.000764704
0.000755499
0.000808046
0.000807696
0.000806262
0.000803684
0.000799917
0.000794932
0.000788729
0.00078134
0.000772853
0.000763427
0.000814018
0.000813697
0.000812212
0.000809506
0.000805536
0.000800281
0.000793747
0.000785977
0.000777068
0.00076717
0.000817967
0.0008174
0.000815574
0.000812439
0.000807962
0.000802133
0.000794966
0.000786516
0.000776893
0.000766271
0.000819712
0.000818645
0.000816225
0.000812415
0.000807204
0.000800595
0.000792616
0.000783328
0.000772852
0.000761379
0.000819152
0.000817402
0.000814226
0.000809609
0.000803567
0.000796131
0.000787344
0.000777273
0.000766031
0.000753822
0.000816143
0.000813623
0.000809648
0.000804231
0.000797415
0.000789268
0.000779856
0.000769244
0.000757534
0.000744925
0.000810347
0.000807036
0.000802314
0.000796225
0.00078884
0.000780244
0.000770518
0.000759734
0.000747978
0.000735437
0.000801293
0.000797167
0.000791743
0.000785099
0.000777348
0.000768617
0.00075903
0.000748658
0.000737514
0.000725669
0.000788651
0.000783724
0.000777696
0.000770687
0.000762845
0.000754331
0.000745283
0.000735783
0.000725808
0.000715297
0.000772069
0.00076633
0.00075977
0.000752555
0.000744876
0.000736917
0.000728831
0.000720695
0.000712473
0.000704008
0.00075135
0.000744701
0.000737553
0.000730126
0.000722646
0.000715325
0.000708328
0.000701743
0.000695545
0.000689602
0.000726764
0.000719061
0.000711185
0.000703403
0.000695976
0.000689144
0.000683095
0.000677939
0.000673687
0.000670276
0.000699281
0.000690482
0.000681834
0.000673643
0.000666213
0.000659818
0.000654683
0.000650964
0.000648723
0.000647925
0.000670399
0.000660672
0.000651428
0.000643012
0.000635757
0.000629966
0.000625894
0.000623738
0.000623614
0.000625546
0.000641677
0.000631391
0.000621937
0.000613682
0.000606969
0.000602099
0.000599311
0.000598771
0.000600573
0.000604752
0.000614274
0.000603891
0.000594689
0.000587039
0.000581272
0.000577651
0.000576358
0.00057747
0.000580961
0.000586716
0.000588681
0.000578627
0.000570067
0.000563349
0.000558762
0.000556516
0.000556713
0.000559341
0.000564266
0.000571269
0.000564718
0.00055534
0.000547708
0.000542123
0.000538813
0.000537922
0.000539481
0.000543407
0.000549468
0.000557504
0.000541548
0.000533105
0.000526612
0.000522302
0.000520336
0.000520795
0.000523642
0.000528912
0.000536635
0.000546585
0.000517877
0.000510569
0.000505425
0.000502618
0.000502268
0.000504424
0.000509457
0.000517352
0.000527822
0.000540543
0.000492891
0.000487078
0.000483765
0.000483104
0.000485509
0.000491259
0.000500118
0.000511836
0.000526051
0.000542424
0.000467908
0.000464583
0.000464329
0.00046771
0.000474949
0.000485711
0.000499522
0.000515938
0.000534602
0.000555281
0.000446802
0.000447668
0.000452356
0.000461266
0.000474065
0.000490187
0.000509148
0.000530569
0.000554114
0.000579486
0.000432947
0.000439247
0.000449802
0.00046437
0.000482482
0.000503687
0.000527645
0.000553987
0.000582246
0.00061161
0.000427492
0.000439525
0.000455574
0.000475241
0.00049815
0.000524045
0.000552712
0.000583637
0.000615389
0.00064497
0.000429473
0.000446766
0.00046767
0.000491938
0.00051941
0.000550051
0.000583624
0.000617964
0.00064766
0.000667958
0.00043722
0.000459266
0.000484869
0.000514052
0.000546862
0.000583301
0.000621168
0.000650278
0.000665472
0.000671341
0.000449598
0.000476653
0.000507819
0.000543372
0.000583255
0.000625879
0.000655739
0.000664228
0.000664152
0.000662628
0.000466766
0.000499951
0.00053833
0.00058228
0.000630441
0.000665077
0.000666732
0.000660438
0.000654706
0.000650801
0.000489666
0.000530458
0.00057744
0.000630862
0.000674675
0.000677096
0.000663223
0.000651459
0.00064338
0.000638971
0.00051912
0.000568447
0.000624203
0.00068512
0.000705282
0.000677668
0.000656288
0.000641448
0.000632488
0.000629155
0.000554795
0.000613833
0.000681757
0.000720968
0.000698833
0.000669929
0.000646867
0.000631272
0.000623352
0.000623002
0.000591018
0.000653209
0.000719229
0.000737062
0.000695594
0.000661525
0.000636882
0.000621998
0.000617077
0.000621701
0.000630457
0.000698772
0.00074982
0.000730192
0.000685941
0.000651179
0.000627219
0.000615004
0.000614969
0.000626166
0.000666011
0.000738498
0.000763818
0.000717826
0.000673947
0.000639837
0.000618084
0.000610378
0.000617
0.000635936
0.000694349
0.000759024
0.000762558
0.000706942
0.000661524
0.000628575
0.000610352
0.000608698
0.000623173
0.000650129
0.000730367
0.000778215
0.000747699
0.000692398
0.000648208
0.000617728
0.000604269
0.000609839
0.000632698
0.000667131
0.000760924
0.000784043
0.000729691
0.000676686
0.000634042
0.000606741
0.000599238
0.000613038
0.000644271
0.000685069
0.000771499
0.000778457
0.000715728
0.000661158
0.000619468
0.000595964
0.000595447
0.000617977
0.00065683
0.000702458
0.000780673
0.000762626
0.000698752
0.000644355
0.000604342
0.00058551
0.000592899
0.000624166
0.000669381
0.000718377
0.000784784
0.000739875
0.000679572
0.000626038
0.000588115
0.000574918
0.000591115
0.000630757
0.000680968
0.000732493
0.000785363
0.000726247
0.00066225
0.000607121
0.000571025
0.000564319
0.000589807
0.000636808
0.000690767
0.000744864
0.000792236
0.000715678
0.00064482
0.000587237
0.000553278
0.000553766
0.000588144
0.000640866
0.000697994
0.000755722
0.000790457
0.000699956
0.000624283
0.000565496
0.000534308
0.000542084
0.000584005
0.000641073
0.000702165
0.000765434
0.000752777
0.000674222
0.000600307
0.000541124
0.000512312
0.000526622
0.000574581
0.000635994
0.000703203
0.000774235
0.000735444
0.000652294
0.000574708
0.000513037
0.000485491
0.000505257
0.00055814
0.000625084
0.000700689
0.00078087
0.000718967
0.000629917
0.00054735
0.000481712
0.000453728
0.000477165
0.000534297
0.000608674
0.000694462
0.000784393
0.00069942
0.000605641
0.000517981
0.000447108
0.000416474
0.000441603
0.000503345
0.000587413
0.000684584
0.00078454
0.000677635
0.000579756
0.000486882
0.000409396
0.000373414
0.000398457
0.000466143
0.00056173
0.000670707
0.00078063
0.000655026
0.000552694
0.000454374
0.000369009
0.000324848
0.000348521
0.000423834
0.000531613
0.000652131
0.000772156
0.000630891
0.000524047
0.000420345
0.000326573
0.000271976
0.000293601
0.000377626
0.000496546
0.000627587
0.000758129
0.000602451
0.000492695
0.00038436
0.0002832
0.000217312
0.000236565
0.000328941
0.000456009
0.000595314
0.000736149
0.000568842
0.000457401
0.000346511
0.000240697
0.000164522
0.000181031
0.000279852
0.00041069
0.000554418
0.000703612
0.000530741
0.000419428
0.000308459
0.00020073
0.000117312
0.000130645
0.000232927
0.000363306
0.000506554
0.000659725
0.000490439
0.000381712
0.00027193
0.000163731
7.84337e-05
8.82527e-05
0.000189954
0.000317813
0.000456881
0.000608098
0.000454008
0.000347135
0.000237221
0.000129122
4.93078e-05
5.53336e-05
0.000150378
0.000276033
0.00041054
0.000555201
0.000423084
0.000314998
0.000203002
9.67536e-05
3.0013e-05
3.23155e-05
0.000112456
0.000236019
0.000368528
0.0005067
0.000395104
0.00028321
0.000168297
6.79986e-05
1.93021e-05
1.8864e-05
7.66025e-05
0.000194698
0.000328429
0.000462883
0.000366623
0.000249755
0.000133315
4.50442e-05
1.50503e-05
1.35745e-05
4.63102e-05
0.000150342
0.000287397
0.000424895
0.000334258
0.000214288
0.000100174
2.94141e-05
1.48051e-05
1.39411e-05
2.56762e-05
0.000104024
0.000240303
0.000387191
0.000300513
0.000179022
7.1927e-05
2.0755e-05
1.60658e-05
1.5939e-05
1.58682e-05
6.25778e-05
0.000184031
0.000339194
0.000264545
0.000147494
5.08759e-05
1.7506e-05
1.69941e-05
1.69328e-05
1.41241e-05
3.47361e-05
0.000123846
0.000272696
0.000247997
0.000127373
3.71288e-05
1.66767e-05
1.72708e-05
1.72504e-05
1.53058e-05
2.26842e-05
7.9008e-05
0.000191372
0.000382936
0.000115773
2.53366e-05
1.60436e-05
1.73501e-05
1.73441e-05
1.56797e-05
1.78244e-05
6.37026e-05
0.000226637
1.12039e-05
1.11468e-05
1.10464e-05
1.09085e-05
1.07729e-05
1.06576e-05
1.05689e-05
1.05209e-05
1.0522e-05
1.05687e-05
1.06495e-05
1.07533e-05
1.08743e-05
1.1017e-05
1.11479e-05
1.12311e-05
1.1267e-05
1.12591e-05
1.121e-05
1.11262e-05
1.10159e-05
1.08898e-05
1.07571e-05
1.06195e-05
1.04694e-05
1.02938e-05
1.00799e-05
9.81537e-06
9.48633e-06
9.0838e-06
8.62697e-06
8.16198e-06
7.72721e-06
7.30975e-06
6.85948e-06
6.33344e-06
5.70943e-06
4.99237e-06
1.99308e-05
4.45187e-06
9.92751e-05
9.88817e-05
9.80965e-05
9.68054e-05
9.48345e-05
9.23577e-05
9.00587e-05
8.85428e-05
8.82115e-05
8.9069e-05
9.07773e-05
9.29677e-05
9.52952e-05
9.72224e-05
9.82509e-05
9.87567e-05
9.88829e-05
9.86638e-05
9.81098e-05
9.72324e-05
9.60695e-05
9.47065e-05
9.32348e-05
9.16755e-05
8.99554e-05
8.79713e-05
8.56419e-05
8.29149e-05
7.97542e-05
7.61422e-05
7.21865e-05
6.80435e-05
6.38339e-05
5.91765e-05
5.3891e-05
4.78384e-05
4.08791e-05
3.27058e-05
2.23286e-05
8.15972e-06
0.000189998
0.000189159
0.000187757
0.000185698
0.000182957
0.000179975
0.000177336
0.000175597
0.000175141
0.000175881
0.000177375
0.000179203
0.000181011
0.000182274
0.000182812
0.000182703
0.000182008
0.000180744
0.000178909
0.000176506
0.000173573
0.000170206
0.000166527
0.000162565
0.000158238
0.000153431
0.000148069
0.000142115
0.000135556
0.000128404
0.000120704
0.000112506
0.000103721
9.42333e-05
8.39743e-05
7.28573e-05
6.07368e-05
4.73066e-05
3.17606e-05
1.39083e-05
0.000258994
0.000257844
0.000256187
0.000253999
0.000251303
0.000248473
0.000245936
0.000243962
0.000242884
0.00024262
0.000242664
0.000242858
0.000242991
0.000242603
0.000241652
0.000240133
0.000238041
0.000235361
0.000232078
0.000228183
0.000223687
0.000218644
0.000213134
0.000207193
0.000200753
0.000193744
0.000186124
0.000177866
0.000168951
0.000159372
0.000149122
0.000138192
0.000126474
0.000113886
0.000100353
8.58697e-05
7.04247e-05
5.3987e-05
3.64896e-05
1.91838e-05
0.000310405
0.000308976
0.000307133
0.000304902
0.000302333
0.000299626
0.000297017
0.000294681
0.00029277
0.000291182
0.000289701
0.000288193
0.000286487
0.000284342
0.000281725
0.000278607
0.000274964
0.000270782
0.000266058
0.0002608
0.000255026
0.000248747
0.000241948
0.000234599
0.000226702
0.000218273
0.000209274
0.000199657
0.000189372
0.000178369
0.000166594
0.000153959
0.000140352
0.000125662
0.000109828
9.27926e-05
7.44876e-05
5.46343e-05
3.26699e-05
1.98003e-05
0.000349523
0.000347762
0.000345645
0.000343215
0.000340531
0.000337695
0.000334826
0.000331978
0.000329223
0.00032645
0.000323536
0.000320436
0.000317046
0.000313277
0.000309078
0.000304401
0.000299215
0.000293527
0.000287369
0.000280783
0.000273812
0.000266451
0.000258649
0.000250371
0.000241619
0.000232388
0.000222671
0.000212414
0.00020153
0.000189901
0.000177423
0.000163983
0.000149418
0.000133517
0.000116087
9.70246e-05
7.63694e-05
5.4194e-05
3.00689e-05
4.65953e-06
0.000380233
0.000378055
0.000375522
0.000372685
0.000369604
0.000366348
0.000362958
0.00035944
0.00035574
0.000351783
0.000347534
0.000342976
0.000338089
0.000332848
0.000327188
0.000321023
0.000314317
0.000307104
0.00029946
0.000291471
0.000283212
0.00027471
0.000265941
0.000256873
0.000247486
0.000237769
0.000227728
0.000217317
0.00020641
0.000194765
0.000182258
0.000168803
0.000154221
0.000138129
0.000120124
0.000100029
7.79431e-05
5.4174e-05
2.92246e-05
2.00163e-05
0.000405029
0.000402316
0.00039922
0.000395786
0.000392068
0.000388103
0.000383896
0.000379417
0.000374606
0.000369417
0.00036385
0.000357921
0.000351642
0.000344998
0.00033792
0.000330281
0.000322026
0.000313213
0.000303962
0.000294407
0.000284655
0.000274774
0.000264789
0.000254709
0.000244541
0.000234287
0.000223979
0.000213612
0.000203071
0.000191885
0.00017978
0.00016692
0.000153253
0.000138151
0.000120762
0.000100678
7.78988e-05
5.28765e-05
2.69326e-05
4.77312e-06
0.000425474
0.00042212
0.000418322
0.000414106
0.000409506
0.000404548
0.000399235
0.000393543
0.00038744
0.00038091
0.00037397
0.000366646
0.000358948
0.000350859
0.000342323
0.000333187
0.000323336
0.000312812
0.000301806
0.000290502
0.000279036
0.000267512
0.000256
0.000244555
0.000233236
0.000222118
0.000211307
0.00020088
0.000190717
0.000180245
0.00016889
0.000156923
0.00014474
0.000131769
0.000116565
9.849e-05
7.71765e-05
5.26065e-05
2.64986e-05
5.29312e-06
0.000442625
0.000438487
0.000433861
0.000428713
0.000423049
0.000416904
0.000410293
0.000403212
0.000395664
0.000387664
0.000379247
0.000370438
0.000361234
0.000351603
0.000341474
0.000330717
0.000319188
0.000306895
0.000294054
0.000280898
0.000267603
0.000254313
0.000241142
0.000228184
0.000215551
0.000203405
0.000191935
0.000181269
0.00017134
0.0001616
0.000151279
0.000140548
0.00012988
0.000119107
0.000107196
9.32961e-05
7.65771e-05
5.55248e-05
2.97054e-05
5.97043e-06
0.00045724
0.000452228
0.000446719
0.000440572
0.000433758
0.000426327
0.000418307
0.000409718
0.000400588
0.00039096
0.000380895
0.00037044
0.000359593
0.000348297
0.000336475
0.00032398
0.000310677
0.000296627
0.000282025
0.000267115
0.000252132
0.000237285
0.000222746
0.00020864
0.000195101
0.000182364
0.000170689
0.0001602
0.00015081
0.000142126
0.000133525
0.000124803
0.000116215
0.000107682
9.84242e-05
8.79009e-05
7.53824e-05
5.95497e-05
3.73331e-05
6.7342e-06
0.000470158
0.000464277
0.000457803
0.000450612
0.000442634
0.000433907
0.000424455
0.00041431
0.000403519
0.000392142
0.000380257
0.000367947
0.000355229
0.000342037
0.000328325
0.000314006
0.000298996
0.00028335
0.000267258
0.000250984
0.000234817
0.000219041
0.000203912
0.000189592
0.000176189
0.000163982
0.000153254
0.000144032
0.000136149
0.000129294
0.000123082
0.000117218
0.000111533
0.000105662
9.86094e-05
8.94482e-05
7.76017e-05
6.19263e-05
4.10148e-05
7.50026e-06
0.000482111
0.000475372
0.000467919
0.000459672
0.000450563
0.000440597
0.000429786
0.00041816
0.000405773
0.000392696
0.000379014
0.000364809
0.000350127
0.000334964
0.000319318
0.00030318
0.000286558
0.000269549
0.000252367
0.000235304
0.000218679
0.000202818
0.000188045
0.000174648
0.000162794
0.000152567
0.00014405
0.000137148
0.000131638
0.000127235
0.000123614
0.000120391
0.000117065
0.000112866
0.000106664
9.73597e-05
8.4207e-05
6.67615e-05
4.33703e-05
7.81072e-06
0.000493774
0.000486196
0.000477807
0.000468563
0.000458415
0.00044734
0.00043534
0.000422436
0.000408674
0.000394127
0.000378883
0.000363028
0.000346636
0.000329761
0.000312464
0.000294822
0.000276947
0.000259016
0.000241299
0.000224132
0.000207863
0.000192842
0.000179441
0.000167987
0.000158588
0.000151096
0.000145287
0.000140901
0.000137674
0.000135358
0.000133672
0.000132216
0.00013033
0.000126946
0.000120619
0.000110025
9.44866e-05
7.38195e-05
4.73584e-05
8.79227e-06
0.000505926
0.000497615
0.000488428
0.000478341
0.000467323
0.00045535
0.000442417
0.000428545
0.000413776
0.000398174
0.000381824
0.000364827
0.000347279
0.000329283
0.000310963
0.000292475
0.000274029
0.000255895
0.000238402
0.000221915
0.000206809
0.000193462
0.000182199
0.000173205
0.000166414
0.000161485
0.000158002
0.000155578
0.00015393
0.000152903
0.000152393
0.000152149
0.000151521
0.000149066
0.000142489
0.000129511
0.000109267
8.24423e-05
5.03061e-05
1.03127e-05
0.000519129
0.000510336
0.000500615
0.00048996
0.000478361
0.000465813
0.000452323
0.000437915
0.000422633
0.000406542
0.000389726
0.000372293
0.000354364
0.000336075
0.000317594
0.000299141
0.000280993
0.00026348
0.000246986
0.000231912
0.000218609
0.000207415
0.000198539
0.000191941
0.000187379
0.000184438
0.000182628
0.000181483
0.000180676
0.00018012
0.000180048
0.000180709
0.000181755
0.000181197
0.000174992
0.000159272
0.000132785
9.66907e-05
5.48036e-05
1.18572e-05
0.000533748
0.000524767
0.00051484
0.000503973
0.000492181
0.000479482
0.000465906
0.000451493
0.000436295
0.000420379
0.000403827
0.000386738
0.000369252
0.000351521
0.000333727
0.000316114
0.000298987
0.000282699
0.000267636
0.000254192
0.000242705
0.000233445
0.000226493
0.000221642
0.000218554
0.000216856
0.000216041
0.000215634
0.00021529
0.000214932
0.000214937
0.000216238
0.000219124
0.000221533
0.000215723
0.000197226
0.000165371
0.000120056
6.46358e-05
1.31336e-05
0.000549806
0.000540949
0.000531159
0.000520461
0.000508888
0.00049649
0.00048332
0.000469437
0.000454901
0.000439775
0.00042413
0.000408051
0.000391647
0.000375073
0.000358497
0.000342143
0.000326296
0.00031129
0.000297479
0.000285212
0.000274797
0.000266434
0.000260162
0.000255848
0.000253171
0.000251735
0.000251115
0.000250914
0.000250907
0.000251211
0.000252394
0.000255391
0.000261531
0.000266325
0.000256218
0.000233229
0.000196939
0.000145354
7.81121e-05
1.4046e-05
0.000566971
0.000558517
0.000549181
0.000538996
0.000528017
0.000516318
0.000503975
0.000491057
0.000477618
0.000463702
0.000449352
0.000434622
0.00041959
0.000404362
0.000389074
0.00037391
0.000359119
0.000344984
0.00033181
0.000319899
0.000309533
0.000300926
0.000294185
0.000289277
0.000286035
0.000284181
0.000283369
0.000283319
0.000283982
0.000285678
0.000289144
0.00029593
0.000305136
0.00030216
0.000286188
0.00025872
0.000218202
0.000162329
8.87698e-05
1.46497e-05
0.000584616
0.000576787
0.000568163
0.000558773
0.000548682
0.00053798
0.000526746
0.000515046
0.000502917
0.000490365
0.000477389
0.000464005
0.000450258
0.000436195
0.000421912
0.000407565
0.000393354
0.000379526
0.00036635
0.000354103
0.00034308
0.00033357
0.000325801
0.000319907
0.000315882
0.000313575
0.000312747
0.000313212
0.000315025
0.000318483
0.000324475
0.000332548
0.000333615
0.00032402
0.000304366
0.000273144
0.000228716
0.00016932
9.30077e-05
1.50704e-05
0.000602013
0.000594978
0.000587268
0.000578889
0.000569881
0.000560327
0.000550291
0.000539824
0.000528958
0.000517664
0.000505884
0.000493592
0.000480812
0.000467557
0.000453886
0.000439946
0.000425911
0.000411995
0.000398456
0.000385589
0.000373732
0.000363253
0.000354515
0.000347795
0.000343223
0.000340743
0.000340163
0.000341297
0.000344118
0.00034876
0.000354465
0.000356787
0.000352314
0.00033936
0.000316224
0.000281281
0.000233224
0.000170782
9.30128e-05
1.54892e-05
0.000618658
0.000612577
0.000605902
0.000598618
0.000590723
0.000582259
0.000573278
0.000563788
0.000553849
0.000543444
0.000532509
0.00052097
0.000508785
0.000495993
0.000482649
0.000468871
0.00045482
0.000440709
0.000426805
0.000413432
0.000400974
0.000389866
0.000380547
0.00037338
0.000368563
0.000366078
0.000365709
0.000367149
0.00037008
0.000374018
0.000376942
0.000375873
0.000368335
0.000352321
0.000326048
0.000288022
0.000236943
0.000171722
9.22898e-05
1.60544e-05
0.0006343
0.000629238
0.000623556
0.000617239
0.000610216
0.000602487
0.000594156
0.000585221
0.000575716
0.000565694
0.000555126
0.000543975
0.000532193
0.000519742
0.000506667
0.00049305
0.000479036
0.000464863
0.000450835
0.00043731
0.000424704
0.000413472
0.000404067
0.000396861
0.000392066
0.000389674
0.000389448
0.00039097
0.000393652
0.000396461
0.000397495
0.000394366
0.000384769
0.000366678
0.000338269
0.000297873
0.000244026
0.000175675
9.33189e-05
1.683e-05
0.000647974
0.000643845
0.000639108
0.000633536
0.00062697
0.000619361
0.000610962
0.000602014
0.000592597
0.000582749
0.000572442
0.000561623
0.00055021
0.000538128
0.000525372
0.000512027
0.000498251
0.000484312
0.000470546
0.000457344
0.000445136
0.000434362
0.000425433
0.000418669
0.000414251
0.000412159
0.000412151
0.000413778
0.000416394
0.000418838
0.000419148
0.00041505
0.000404438
0.000385255
0.000355458
0.000313037
0.000256245
0.000184038
9.71948e-05
1.78019e-05
0.000659395
0.000655328
0.000650712
0.000645232
0.000638726
0.000631224
0.000622858
0.000613877
0.000604459
0.000594704
0.000584602
0.000574109
0.000563112
0.000551474
0.00053917
0.000526289
0.000513015
0.000499651
0.000486586
0.000474237
0.00046303
0.000453362
0.000445572
0.000439895
0.000436419
0.000435055
0.000435525
0.000437392
0.00044008
0.000442646
0.000442892
0.000438631
0.000427797
0.000408225
0.000377513
0.000333214
0.000273261
0.00019671
0.000104308
1.89205e-05
0.000668252
0.000663664
0.000658602
0.000652833
0.000646213
0.00063875
0.000630485
0.000621565
0.000612184
0.000602501
0.000592542
0.000582336
0.000571815
0.00056079
0.000549175
0.000537044
0.000524637
0.000512329
0.000500528
0.000489661
0.000480126
0.000472261
0.000466315
0.000462419
0.00046051
0.000460388
0.0004617
0.000463966
0.000466709
0.000469346
0.000469595
0.000465271
0.000454306
0.000434411
0.000402702
0.000356418
0.000293647
0.000213119
0.000115157
2.01287e-05
0.000674831
0.00066943
0.000663642
0.000657366
0.000650547
0.000643108
0.000634886
0.000625906
0.000616438
0.000606747
0.00059696
0.000587145
0.000577241
0.000567094
0.000556629
0.000545862
0.000535013
0.000524485
0.000514691
0.000506056
0.000498935
0.000493574
0.00049009
0.000488489
0.000488625
0.00049018
0.000492692
0.000495611
0.000498315
0.000500462
0.00050011
0.000495095
0.000483519
0.000462745
0.000429292
0.000380701
0.000315685
0.000233215
0.000130329
2.1387e-05
0.000679914
0.000673524
0.000666832
0.000659837
0.000652521
0.000644715
0.000636193
0.000626979
0.000617403
0.00060782
0.000598466
0.00058941
0.000580585
0.000571887
0.000563286
0.000554778
0.000546521
0.000538812
0.000532052
0.000526614
0.000522741
0.000520492
0.00051987
0.000520768
0.000522957
0.000526075
0.000529642
0.000533146
0.000535932
0.000536935
0.000534947
0.000528103
0.000514748
0.000493562
0.000458343
0.000407486
0.00033996
0.000254177
0.000145026
2.27541e-05
0.000684439
0.000676956
0.000669177
0.000661108
0.000652707
0.000643929
0.000634816
0.00062549
0.00061615
0.000607096
0.000598645
0.000590956
0.000584016
0.000577741
0.000572045
0.000566916
0.000562414
0.000558769
0.00055626
0.000555072
0.000555185
0.000556458
0.000558747
0.000561891
0.000565665
0.000569707
0.000573532
0.000576693
0.000578819
0.000578368
0.000572929
0.000562931
0.00054618
0.000522933
0.00048552
0.000431206
0.00036068
0.000270963
0.00015637
2.37028e-05
0.000689138
0.000680472
0.000671446
0.000662117
0.000652526
0.000642765
0.000633017
0.000623517
0.000614525
0.00060638
0.000599477
0.000594089
0.00059019
0.000587605
0.000586147
0.000585688
0.00058626
0.000587926
0.000590705
0.000594446
0.000598889
0.000603649
0.000608343
0.000613185
0.00061798
0.000622175
0.000625148
0.000625651
0.000623358
0.000618108
0.000608626
0.000594359
0.000573797
0.000544913
0.000504549
0.000447658
0.00037533
0.000283895
0.000165152
2.42897e-05
0.000694761
0.000684948
0.000674712
0.000664187
0.000653522
0.000642913
0.000632635
0.000623042
0.000614569
0.000607749
0.00060315
0.000601376
0.000602084
0.000604569
0.000608947
0.000614714
0.000621433
0.000628849
0.000637423
0.000646502
0.000654841
0.00066161
0.000667731
0.000674005
0.000679243
0.000682078
0.000680352
0.000674212
0.000665103
0.000653293
0.000637818
0.000617244
0.000590082
0.000555235
0.000510022
0.00045214
0.000380311
0.00029001
0.000170959
2.47499e-05
0.000702033
0.000691274
0.000680058
0.000668608
0.000657177
0.000646067
0.000635636
0.000626304
0.000618556
0.000612965
0.000610154
0.000610511
0.000613062
0.000616973
0.000623189
0.000632499
0.000645131
0.00065932
0.000672297
0.000683645
0.000693435
0.000701464
0.000708713
0.000714758
0.000718266
0.000718138
0.000713806
0.000705651
0.000693551
0.000676792
0.000654565
0.000626687
0.000592444
0.000551007
0.000501493
0.000443453
0.000374927
0.000289395
0.000171126
2.53903e-05
0.000711384
0.000700024
0.000688222
0.000676297
0.000664611
0.000653573
0.000643621
0.000635196
0.000628745
0.000624748
0.000623519
0.000624606
0.000628213
0.000634694
0.000644331
0.000656723
0.000669846
0.00068193
0.000692949
0.000702995
0.000711933
0.000719621
0.000725998
0.000730388
0.000731935
0.000729919
0.000723686
0.000713085
0.000697713
0.000677036
0.000650491
0.000617752
0.000578563
0.00053312