/*--------------------------------*- C++ -*----------------------------------*\
  =========                 |
  \\      /  F ield         | OpenFOAM: The Open Source CFD Toolbox
   \\    /   O peration     | Website:  https://openfoam.org
    \\  /    A nd           | Version:  8
     \\/     M anipulation  |
\*---------------------------------------------------------------------------*/
FoamFile
{
    version     2.0;
    format      ascii;
    class       volScalarField;
    location    "3.35";
    object      p;
}
// * * * * * * * * * * * * * * * * * * * * * * * * * * * * * * * * * * * * * //

dimensions      [1 -1 -2 0 0 0 0];

internalField   nonuniform List<scalar> 
9150
(
407.142
380.137
354.645
337.458
329.162
329.165
337.466
354.658
380.152
407.158
378.29
358.735
343.091
331.294
325.32
325.322
331.3
343.1
358.745
378.302
349.021
335.452
326.922
319.168
315.066
315.068
319.172
326.927
335.46
349.03
324.318
314.295
308.838
303.478
300.514
300.515
303.481
308.842
314.3
324.325
303.033
294.107
289.536
285.366
282.926
282.927
285.369
289.54
294.112
303.039
39.7928
35.9511
61.1169
75.4106
82.128
82.1594
75.5024
61.2595
36.1353
40
210.108
186.037
180.685
179.513
179.693
179.713
179.57
180.771
186.14
210.207
314.604
283.344
267.467
257.623
253.01
253.023
257.659
267.519
283.405
314.663
395.235
353.151
325.397
308.078
299.609
299.616
308.1
325.429
353.187
395.271
446.139
393.352
354.753
332.729
322.607
322.612
332.742
354.772
393.374
446.162
-45.7492
-10.4008
-22.3264
-12.5349
-16.9596
-17.0126
-13.0223
-23.2175
-12.1584
-40.3205
-36.4292
-20.4168
-39.4626
-31.7772
-35.8556
-35.7405
-31.7994
-38.8353
-19.7788
-33.423
-79.3138
-48.886
-80.6406
-72.9787
-69.8744
-69.8091
-72.8259
-80.0218
-48.1192
-77.7182
-258.205
-133.466
-116.76
-98.0702
-81.7057
-81.6434
-97.8441
-116.308
-132.931
-257.271
-404.079
-164.858
-68.7163
-38.5336
-22.7003
-22.6549
-38.3887
-68.4744
-164.527
-403.536
1854.18
1853.77
1853.35
1852.94
1852.52
1852.1
1851.67
1851.24
1850.8
1850.36
1834.52
1834.08
1833.65
1833.21
1832.77
1832.33
1831.88
1831.44
1830.99
1830.55
1814.91
1814.46
1814.01
1813.56
1813.11
1812.65
1812.2
1811.76
1811.32
1810.88
1795.33
1794.88
1794.42
1793.97
1793.52
1793.07
1792.63
1792.2
1791.77
1791.36
1775.76
1775.31
1774.86
1774.41
1773.97
1773.53
1773.1
1772.68
1772.28
1771.89
1756.19
1755.74
1755.29
1754.85
1754.41
1753.98
1753.55
1753.14
1752.74
1752.37
1736.61
1736.17
1735.73
1735.29
1734.85
1734.41
1733.98
1733.54
1733.13
1732.73
1717
1716.6
1716.18
1715.75
1715.3
1714.84
1714.37
1713.9
1713.43
1712.96
1697.45
1697.09
1696.7
1696.27
1695.8
1695.31
1694.79
1694.25
1693.68
1693.07
1678.5
1677.95
1677.47
1676.99
1676.48
1675.95
1675.37
1674.76
1674.1
1673.34
1659.37
1658.86
1658.37
1657.86
1657.35
1656.83
1656.26
1655.6
1655.05
1655.69
1640.3
1639.81
1639.32
1638.83
1638.35
1637.86
1637.37
1637.08
1639.61
1639.43
1621.26
1620.77
1620.3
1619.85
1619.42
1619.02
1618.65
1618.45
1621.75
1621.98
1602.16
1601.7
1601.27
1600.9
1600.6
1600.35
1600.26
1600.41
1601.04
1601.1
1582.93
1582.45
1581.98
1581.55
1581.13
1580.77
1580.46
1580.21
1579.97
1579.63
1563.66
1563.14
1562.64
1562.14
1561.65
1561.18
1560.72
1560.26
1559.78
1559.25
1544.38
1543.83
1543.27
1542.7
1542.13
1541.56
1540.97
1540.37
1539.74
1539.08
1525.11
1524.52
1523.94
1523.31
1522.66
1521.99
1521.29
1520.55
1519.78
1518.98
1505.93
1505.32
1504.68
1504.02
1503.31
1502.55
1501.74
1500.86
1499.92
1498.93
1486.86
1486.26
1485.61
1484.92
1484.16
1483.33
1482.41
1481.38
1480.21
1478.92
1467.93
1467.36
1466.74
1466.07
1465.32
1464.47
1463.48
1462.32
1460.93
1459.27
1449.14
1448.65
1448.13
1447.56
1446.94
1446.25
1445.48
1444.54
1443.31
1441.53
1430.44
1430.07
1429.71
1429.35
1429.01
1428.72
1428.51
1428.17
1428.47
1433.32
1411.67
1411.42
1411.18
1410.98
1410.83
1410.74
1410.78
1411.05
1411.64
1411.89
1392.76
1392.58
1392.41
1392.26
1392.14
1392.03
1391.95
1391.92
1391.86
1391.71
1373.76
1373.64
1373.54
1373.46
1373.38
1373.3
1373.21
1373.11
1372.94
1372.67
1354.66
1354.71
1354.64
1354.56
1354.54
1354.51
1354.46
1354.4
1354.29
1354.12
1335.57
1335.61
1335.6
1335.59
1335.62
1335.64
1335.65
1335.64
1335.58
1335.48
1316.31
1316.38
1316.45
1316.51
1316.6
1316.68
1316.75
1316.78
1316.77
1316.68
1296.96
1297.08
1297.23
1297.32
1297.49
1297.66
1297.82
1297.96
1298.05
1298.08
1277.4
1277.61
1277.79
1278.02
1278.29
1278.57
1278.84
1279.11
1279.36
1279.57
1257.8
1257.99
1258.34
1258.61
1258.94
1259.33
1259.73
1260.16
1260.59
1261.02
1238.07
1238.34
1239.14
1239.35
1239.5
1239.94
1240.44
1240.98
1241.59
1242.23
1218.3
1218.72
1219.19
1219.48
1219.86
1220.32
1220.88
1221.51
1222.22
1222.99
1198.48
1198.91
1199.27
1199.61
1199.98
1200.46
1201.03
1201.7
1202.46
1203.3
1178.54
1178.94
1179.39
1179.73
1179.96
1180.37
1180.94
1181.6
1182.36
1183.21
1158.57
1158.83
1159.15
1159.9
1159.72
1160.13
1160.66
1161.29
1162.01
1162.8
1138.6
1138.78
1138.99
1139.24
1139.61
1139.85
1140.29
1140.83
1141.46
1142.16
1118.75
1118.85
1118.98
1119.14
1119.32
1119.54
1119.87
1120.25
1120.75
1121.32
1099.05
1099.07
1099.09
1099.11
1099.14
1099.18
1099.34
1099.58
1099.9
1100.3
1079.61
1079.54
1079.44
1079.31
1079.18
1079.47
1078.73
1078.78
1078.85
1079.04
1060.51
1060.37
1060.16
1059.87
1059.53
1059.28
1062.01
1059.42
1057.8
1057.54
1041.84
1041.71
1041.49
1041.14
1040.63
1040.15
1040.13
1049.6
1040.49
1036.72
1023.66
1023.65
1023.6
1023.48
1023.27
1023.06
1023.4
1025.22
1032.91
1018.33
1005.72
1005.84
1005.93
1005.99
1006.03
1006.07
1006.33
1007.49
1012.48
1012.13
987.897
988.078
988.193
988.228
988.169
987.983
987.629
987.179
987.211
985.7
970.268
970.553
970.748
970.817
970.721
970.387
969.695
968.533
966.93
964.277
952.89
953.405
953.866
954.253
954.549
954.724
954.748
954.591
954.094
952.613
935.548
936.334
937.119
937.901
938.687
939.493
940.378
941.419
942.383
942.096
918.048
919.083
920.159
921.285
922.484
923.805
925.383
927.33
928.784
930.053
900.269
901.502
902.802
904.189
905.696
907.394
909.441
912.008
914.486
918.042
882.121
883.454
884.835
886.268
887.77
889.362
891.083
892.948
894.77
897.032
863.771
865.198
866.651
868.125
869.622
871.141
872.662
874.128
875.442
876.571
845.341
846.903
848.48
850.06
851.651
853.269
854.894
856.459
857.884
859.081
826.882
828.624
830.36
832.055
833.755
835.556
837.429
839.248
840.891
842.26
808.417
810.419
812.368
814.175
815.958
818.046
820.537
822.736
824.602
826.045
789.952
792.484
794.993
797.284
802.677
805.49
805.306
807.896
809.618
811.023
771.191
774.484
777.909
781.966
786.131
789.438
792.172
794.4
794.92
798.035
750.471
754.03
757.909
761.762
767.183
772.396
772.323
776.729
780.276
782.459
727.733
731.247
735.161
739.266
743.559
747.781
752.793
758.474
763.825
766.792
702.707
705.897
709.539
713.654
718.208
723.485
730.46
738.869
744.623
749.196
675.254
677.771
680.722
684.069
688.326
695.936
708.345
718.486
728.563
731.646
645.441
646.619
647.757
649.137
654.594
670.333
691.244
705.338
708.213
710.025
614.118
613.355
612.157
612.931
626.415
657.915
677.204
679.434
693.166
687.545
582.955
580.949
579.87
586.889
616.158
636.205
638.27
656.607
655.084
642.988
552.541
550.13
549.687
561.115
592.093
592.819
613.457
619.244
610.501
597.785
527.063
525.002
531.019
553.879
559.229
577.43
589.896
581.214
566.719
551.791
504.979
501.665
508.012
530.847
522.672
537.142
542.484
532.874
519.239
504.154
476.042
475.027
492.171
494.067
507.551
518.816
510.096
494.284
478.181
461.289
464.577
469.211
477.601
474.778
479.55
482.111
469.757
453.799
437.641
420.568
444.663
446.912
459.432
444.325
447.908
444.323
432.274
417.511
401.459
384.117
428.814
434.605
433.898
438.879
436.113
421.87
405.21
388.528
371.239
353.021
420.796
426.085
421.915
417.216
409.061
394.153
378.044
361.887
345.257
328.018
402.027
412.995
395.686
389.841
381.273
368.4
353.882
338.668
323.019
307.21
390.251
389.056
390.428
381.627
365.976
349.832
333.954
318.05
302.207
286.732
383.498
380.118
373.979
360.843
345.007
329.089
313.126
296.908
280.436
263.679
374.228
362.347
349.372
337.342
323.945
309.465
294.265
278.518
262.335
245.68
356.482
336.515
330.259
319.966
307.342
293.507
278.806
263.631
248.28
232.859
340.03
341.173
327.148
310.438
295.305
280.343
265.093
249.81
234.726
220.021
334.657
324.088
306.607
292.758
279.639
265.689
251.029
235.888
220.28
204.919
318.809
299.863
285.742
275.924
265.212
253.071
240.121
226.743
213.348
202.532
294.987
283.818
271.844
262.137
252.261
241.531
230.188
218.533
207.269
199.904
269.868
263.475
254.635
246.526
238.3
229.43
219.977
210.277
201.308
196.816
245.705
240.472
235.078
229.565
223.484
216.586
208.92
200.942
193.758
191.101
223.425
219.633
216.638
213.058
208.743
203.456
197.22
190.606
184.62
182.621
207.88
203.416
200.265
197.252
193.996
189.927
184.957
179.762
175.266
174.519
188.413
184.821
182.454
180.25
178.042
175.124
171.342
167.395
164.021
163.609
164.162
163.929
163.326
162.127
160.818
158.898
156.255
153.578
151.452
150.655
142.773
144.577
144.284
143.166
141.949
140.4
138.495
136.93
136.262
134.128
118.104
122.575
123.914
123.273
121.736
119.656
117.182
114.895
112.945
104.849
102.039
105.385
106.735
105.87
103.502
100.285
96.2865
91.503
85.2222
70.258
95.0798
94.375
93.8017
91.9089
88.811
84.9511
80.2678
74.5393
67.3299
55.8955
85.8131
83.5096
82.2738
79.6549
76.4497
72.6337
68.0446
62.8259
56.4366
51.1507
76.4691
73.0948
71.0485
67.5725
64.902
61.9079
58.0927
54.2149
47.6961
45.4606
63.872
59.7018
57.2586
53.7535
52.5862
51.2356
49.1683
49.4271
45.4843
49.9736
26.2935
35.6248
40.3191
39.1798
39.3814
39.0248
38.1393
41.195
40.8057
47.8741
28.1234
27.6117
28.6188
26.6326
25.9623
25.1157
24.2779
25.4082
21.5363
16.5408
9.94838
11.4471
12.9011
12.9815
12.3666
11.6849
11.6984
10.0072
5.64732
-2.90715
-2.85643
1.92504
0.911644
2.23416
0.819219
0.345665
1.75475
-0.952209
0.00712759
-6.78038
-19.0392
3.79734
-7.28156
-4.99821
-8.13081
-8.50221
-5.59077
-10.1432
0.0721727
-15.6256
1849.89
1849.39
1848.91
1848.46
1848.05
1847.7
1847.42
1847.17
1846.96
1846.77
1846.61
1846.47
1846.34
1846.23
1846.16
1846.11
1846.08
1846.06
1846.02
1845.98
1845.93
1845.88
1845.81
1845.75
1845.67
1845.58
1845.47
1845.34
1845.2
1845.08
1844.99
1844.92
1844.86
1844.81
1844.76
1844.71
1844.67
1844.64
1844.62
1844.64
1830.09
1829.63
1829.2
1828.83
1828.51
1828.25
1828.01
1827.74
1827.45
1827.17
1826.93
1826.7
1826.49
1826.32
1826.2
1826.1
1826.01
1825.93
1825.85
1825.79
1825.72
1825.66
1825.59
1825.51
1825.43
1825.34
1825.24
1825.14
1825.05
1824.99
1825.03
1824.99
1824.96
1824.97
1824.98
1824.97
1824.96
1824.96
1824.96
1824.95
1810.44
1809.99
1809.57
1809.17
1808.8
1808.52
1808.35
1807.89
1807.67
1807.58
1807.21
1806.92
1806.82
1806.52
1806.36
1806.21
1806.07
1805.97
1805.82
1805.72
1805.6
1805.49
1805.42
1805.37
1805.34
1805.31
1805.28
1805.27
1805.28
1805.47
1805.95
1805.98
1805.85
1805.4
1805.39
1805.43
1805.41
1805.38
1805.34
1805.26
1790.94
1790.52
1790.13
1789.78
1789.8
1791.75
1791.28
1791.12
1790.76
1790.1
1789.79
1789.44
1787.23
1786.95
1786.71
1786.51
1786.34
1786.18
1786.03
1785.85
1785.65
1785.68
1785.63
1785.4
1785.44
1785.48
1785.48
1785.51
1785.58
1785.69
1786.12
1786.34
1786.34
1786.28
1786.11
1785.92
1785.86
1785.83
1785.75
1785.61
1771.52
1771.16
1770.87
1770.66
1771.16
1773.24
1772.98
1772.15
1771.69
1771.52
1771.13
1770.12
1768.13
1767.6
1767.22
1766.97
1766.78
1766.63
1766.5
1766.36
1766.43
1767.2
1766.97
1766.43
1765.91
1765.83
1765.8
1765.82
1765.9
1766.05
1766.27
1766.41
1766.49
1766.51
1766.7
1767.33
1767.35
1767.22
1767.05
1766.83
1752.01
1751.69
1751.43
1751.27
1751.21
1751.23
1751.3
1751.86
1751.37
1752.34
1751.54
1749.06
1748.37
1747.79
1747.43
1747.24
1747.14
1747.09
1747.06
1747.03
1747.41
1747.94
1747.72
1747.42
1747.21
1746.82
1745.93
1745.91
1746.03
1746.1
1746.19
1746.43
1746.72
1746.88
1746.99
1747.1
1747.23
1747.32
1747.29
1747.24
1732.34
1732
1731.73
1731.54
1731.41
1731.31
1731.25
1731.13
1730.76
1730.14
1729.51
1728.78
1728.05
1727.45
1727.16
1727.22
1727.36
1727.48
1727.57
1727.68
1727.81
1727.87
1727.92
1728.07
1727.77
1727.48
1727.1
1726.33
1725.73
1725.92
1726.58
1726.53
1726.86
1727
1727.17
1727.38
1727.58
1727.73
1727.7
1727.31
1712.49
1712.1
1711.85
1711.7
1711.58
1711.44
1711.26
1710.99
1710.58
1710.02
1709.33
1708.52
1707.75
1707.73
1708.11
1707.2
1707.47
1707.85
1708.11
1708.16
1708.27
1708.32
1708.34
1708.35
1708.32
1707.86
1707.33
1706.89
1710.46
1706.38
1706.09
1706.93
1707.07
1707.01
1707.18
1707.49
1707.83
1708.07
1708.13
1707.89
1692.36
1691.77
1691.62
1691.76
1691.8
1691.71
1691.55
1691.31
1690.97
1690.5
1689.89
1689.75
1691.06
1691.36
1691.52
1691.49
1689.25
1688.49
1688.67
1688.73
1688.74
1688.74
1688.75
1688.79
1688.84
1688.91
1688.97
1688.86
1690.26
1691.51
1686.15
1687.77
1687.57
1687.13
1686.96
1687.32
1687.73
1688.1
1688.27
1688.27
1672.34
1673.92
1672.66
1671.84
1672.14
1672.17
1672.09
1671.92
1671.69
1671.4
1671.73
1673.83
1673.41
1673.35
1673.31
1673.45
1672.52
1669.86
1669.59
1669.39
1669.24
1669.12
1669.07
1669.11
1669.27
1669.5
1669.77
1670.04
1671
1671.23
1671.01
1670.35
1669.94
1670.2
1669.76
1668.59
1667.94
1667.97
1668.17
1669.12
1656.91
1657.32
1655.65
1653.71
1653.49
1653.28
1653.05
1652.83
1652.62
1652.45
1652.47
1655.38
1655.37
1655.16
1654.29
1653.06
1651.85
1650.91
1650.29
1649.86
1649.52
1649.24
1649.06
1649.1
1649.37
1649.76
1650.2
1650.74
1651.43
1652.05
1652.66
1653.96
1654
1653.58
1653.29
1652.85
1652.19
1651.09
1649.42
1651.63
1639.15
1638.73
1638.01
1635.76
1634.89
1634.38
1634
1633.71
1633.51
1633.46
1633.65
1634.1
1634.26
1639.21
1633.17
1632.45
1631.56
1630.87
1630.31
1629.83
1629.42
1629.01
1628.82
1629.35
1629.31
1629.43
1629.95
1630.52
1631.25
1632.12
1633.11
1634.01
1633.96
1635.47
1636.21
1635.94
1635.05
1633.93
1632.4
1631.97
1621.62
1621
1619.39
1617.05
1615.94
1615.18
1614.6
1614.16
1613.89
1613.57
1613.43
1613.3
1613.04
1612.59
1612.1
1611.59
1611.06
1610.54
1610.04
1609.6
1609.26
1609.01
1609.68
1610.77
1608.88
1608.64
1608.82
1609.1
1609.55
1610.18
1611.04
1612.21
1613.73
1615.35
1616.39
1617.2
1616.82
1615.26
1614.53
1614.55
1603.42
1604.48
1598.71
1596.95
1596.06
1595.34
1594.77
1594.29
1593.85
1593.43
1593.08
1592.74
1592.35
1591.9
1591.42
1590.92
1590.44
1589.96
1589.43
1588.89
1588.76
1588.81
1588.84
1588.66
1587.66
1587.06
1586.68
1586.41
1586.27
1586.33
1586.58
1587.26
1588.59
1590.62
1592.98
1595.1
1596.52
1596.53
1594.56
1593.95
1579.21
1578.38
1577.41
1576.59
1575.91
1575.23
1574.68
1574.15
1573.65
1573.16
1572.71
1572.25
1571.78
1571.28
1570.74
1570.21
1569.69
1569.39
1568.85
1568.69
1568.71
1568.18
1567.58
1566.73
1565.92
1564.83
1563.84
1562.86
1561.96
1560.99
1560.07
1559.34
1559.39
1561.15
1564.4
1568.2
1571.71
1573.85
1573.49
1570.94
1558.63
1557.91
1557.12
1556.37
1555.67
1555.01
1554.41
1553.91
1553.36
1552.79
1552.28
1551.77
1551.25
1550.71
1550.15
1549.82
1549.48
1548.79
1548.58
1548.37
1548.28
1547.49
1546.53
1545.26
1544.14
1542.64
1541.13
1539.54
1537.86
1535.87
1532.96
1529.31
1526.15
1527.48
1531.6
1536.88
1542.45
1547.37
1549.73
1548.47
1538.35
1537.56
1536.77
1536.01
1535.29
1534.63
1534.02
1533.44
1532.88
1532.34
1531.8
1531.27
1530.73
1530.18
1529.89
1529.41
1528.79
1527.99
1528.23
1527.64
1527.34
1527.1
1526.24
1524.5
1522.62
1520.98
1519.19
1517.11
1514.59
1511.29
1506.56
1501.61
1503.17
1510.94
1502.86
1508.1
1513.72
1518.98
1522.58
1523.82
1518.11
1517.2
1516.32
1515.5
1514.75
1514.09
1513.48
1512.92
1512.37
1511.83
1511.29
1510.76
1510.24
1509.74
1509.51
1508.96
1508.37
1507.76
1507.22
1506.92
1506.45
1505.59
1505.57
1505.21
1501.54
1500.2
1498.69
1496.92
1494.76
1492.27
1490.41
1492.67
1504.24
1503.9
1491.08
1490.52
1492.03
1494.39
1496.67
1498.75
1497.85
1496.74
1495.69
1494.75
1493.96
1493.33
1492.79
1492.3
1491.79
1491.27
1490.73
1490.22
1489.72
1489.23
1488.77
1488.46
1487.92
1487.33
1486.63
1485.86
1485.22
1484.46
1483.59
1482.57
1481.68
1480.84
1479.53
1478.53
1477.31
1478.15
1482.57
1489.03
1490.69
1484.55
1475.72
1473.31
1473.05
1473.43
1474.03
1475.13
1477.51
1476.06
1474.69
1473.38
1472.57
1472.2
1471.87
1471.58
1471.22
1470.68
1470.13
1469.66
1469.21
1468.74
1468.24
1467.76
1467.16
1466.87
1466.39
1465.27
1464.48
1463.81
1463.11
1462.46
1461.88
1461.38
1461.06
1461.08
1461.56
1465.46
1475.28
1476.82
1470.63
1464.89
1459.06
1456.39
1455.14
1454.22
1453.46
1452.87
1457.17
1455.18
1453.57
1453.26
1452.01
1451.16
1450.82
1451.01
1451.13
1450.84
1450.54
1449.26
1449.02
1448.37
1447.62
1447.11
1446.61
1445.99
1445.3
1444.73
1444.15
1443.3
1442.68
1442.16
1441.76
1441.62
1441.96
1443.33
1446.06
1452.84
1465.01
1452.54
1447.14
1441.73
1438.68
1436.79
1435.38
1434.02
1432.55
1430.69
1439.49
1442.41
1441.56
1440.99
1440.49
1439.8
1436.25
1432.43
1432.8
1432.4
1432.9
1432.44
1430.58
1429.13
1429.24
1426.95
1426.26
1425.58
1424.9
1424.2
1423.46
1422.71
1421.98
1421.23
1420.51
1419.91
1419.54
1419.66
1419.92
1435.34
1441.05
1418.98
1416.51
1415.16
1414.25
1413.45
1412.66
1411.72
1410.26
1407.96
1433
1431.2
1430.04
1429.18
1428.4
1428.15
1428.65
1428.61
1421.23
1415.22
1414.78
1412.8
1410.93
1411.16
1410.52
1409.32
1406.88
1405.41
1404.65
1403.85
1402.96
1401.97
1400.89
1399.69
1398.38
1396.98
1395.58
1394.47
1393.59
1407.06
1390.11
1387.73
1387.74
1387.88
1388.05
1387.84
1387.76
1387.57
1386.72
1384.92
1411.82
1415.35
1414.61
1413.65
1412.3
1407.26
1405.54
1403.84
1400.58
1397.78
1395.3
1393.31
1391.82
1390.73
1388.48
1389.66
1387.76
1385.46
1384.63
1383.71
1382.66
1381.43
1379.99
1378.32
1376.37
1374.1
1371.51
1368.91
1367.89
1368.69
1361.41
1360.46
1360.23
1360.48
1360.97
1361.6
1361.82
1362.73
1363.1
1362.45
1391.6
1391.51
1391.06
1389.57
1387.67
1386.69
1384.68
1382.08
1379.52
1376.48
1374.07
1372.03
1370.34
1369.19
1368.45
1367.83
1367.01
1365.95
1365.02
1364.05
1362.88
1361.41
1359.63
1357.46
1354.84
1351.65
1347.68
1343.23
1347.95
1339.55
1337.56
1335.35
1334.44
1334.89
1335.65
1335.81
1337.32
1338.22
1340.38
1341.96
1372.23
1371.65
1370.91
1369.8
1367.73
1364.6
1361.26
1359.76
1358.36
1357.05
1355
1352.63
1350.16
1347.6
1346.8
1346.18
1346.04
1345.81
1345.53
1344.88
1343.86
1342.39
1340.57
1338.3
1335.53
1332.08
1327.61
1322.92
1335.16
1316.22
1314.5
1309.87
1306.78
1310.07
1315.32
1317.29
1321.83
1335.03
1320.67
1327.01
1353.86
1353.53
1353.1
1352.05
1350.02
1353.91
1352.67
1350.98
1349.12
1347.1
1344.75
1341.86
1340.14
1339.46
1336.94
1333.96
1330.23
1328.23
1327.9
1327.23
1326.2
1324.78
1322.97
1320.76
1318.08
1314.66
1309.91
1301.59
1313.53
1295.62
1294.59
1285.25
1278.93
1287.14
1292.93
1310
1303.19
1334.29
1307.43
1319.75
1335.32
1335.13
1334.9
1334.16
1334.16
1339.59
1337.43
1329.51
1326.74
1324.02
1321.64
1320.9
1318.92
1316.73
1314.89
1312.54
1312.06
1310.42
1310.54
1310.25
1309.5
1308.04
1306.29
1304.58
1302.87
1300.95
1298.33
1292.45
1284.01
1279.3
1281.91
1283.92
1285.88
1286.89
1281.12
1302.88
1289.76
1321.9
1302.64
1315.62
1316.5
1316.17
1315.66
1314.69
1313.14
1311.28
1309.07
1307.19
1304.72
1301.63
1298.54
1294.69
1293.05
1293.59
1295.55
1296.6
1295.28
1294.14
1293.7
1293.53
1294.27
1293.4
1291.22
1290.53
1291.33
1292.29
1291.19
1287.13
1284.14
1283.99
1284.18
1284.41
1284.55
1284.53
1283.63
1276.23
1289.68
1297.99
1292.22
1305.04
1298
1297.73
1297.23
1296.34
1294.93
1293.05
1290.83
1288.15
1284.33
1278.95
1275.66
1275.83
1279.78
1280.95
1281.84
1283.16
1285.17
1286.69
1287.13
1287.93
1288.8
1288.57
1281.96
1280.76
1282.01
1283.5
1284.98
1284.63
1284.25
1284.29
1284.32
1284.32
1284.3
1284.21
1283.69
1270.89
1283.67
1277.22
1291.1
1288.57
1279.71
1279.73
1279.57
1279.17
1278.43
1277.31
1275.85
1273.83
1270.76
1272.18
1280.57
1280.88
1280.84
1281
1281.29
1281.74
1282.4
1283.43
1284.82
1286.34
1287.74
1288.78
1289.54
1289.5
1288.61
1287.25
1286.1
1285.53
1285.07
1284.59
1284.32
1284.18
1284.22
1283.69
1277.4
1265.99
1274.06
1270.84
1291.08
1281.9
1261.45
1261.87
1262.25
1262.56
1262.81
1263
1263.18
1263.77
1266.18
1276.04
1281.44
1281.46
1281.54
1281.7
1281.92
1282.2
1282.55
1283.1
1284
1285.27
1286.66
1287.74
1287.99
1287.63
1286.83
1285.66
1284.4
1283.21
1282.47
1282.07
1281.56
1280.45
1276.64
1270.46
1258.87
1254.97
1256.7
1267.77
1284.15
1280.03
1242.9
1243.69
1244.54
1245.47
1246.54
1247.78
1249.26
1251.29
1255.77
1267.8
1279.43
1280.7
1280.9
1280.95
1280.99
1280.96
1280.75
1279.75
1277.64
1274.79
1271.89
1270.21
1274.79
1275.57
1273.4
1271.09
1268.98
1266.29
1262.99
1259.96
1257.21
1254.03
1250.37
1245.1
1235.67
1228.59
1223.97
1251.22
1259.47
1262.26
1223.88
1224.92
1226.08
1227.41
1228.96
1230.83
1233.12
1235.94
1240.06
1247.98
1260.14
1272.95
1277.34
1276.63
1275.13
1272.13
1268.4
1264.92
1260.57
1256.27
1252.76
1250.33
1249.26
1247.65
1245.46
1243.31
1241.15
1238.35
1234.84
1231.23
1227.7
1223.95
1217.93
1208.57
1200.31
1196.24
1199.14
1216.16
1208.58
1228.11
1204.27
1205.4
1206.66
1208.07
1209.66
1211.48
1213.62
1216.15
1219.16
1223.11
1229.29
1236.16
1239.5
1242.15
1241.26
1238.94
1236.72
1234.89
1233.66
1232.86
1232.31
1231.89
1231.36
1230.51
1229.19
1227.77
1225.84
1223.13
1219.47
1214.97
1209.07
1199.69
1188.65
1184.67
1188.06
1188.85
1189.85
1191.25
1191.77
1216.98
1184.17
1185.28
1186.48
1187.79
1189.19
1190.69
1192.3
1194.07
1196
1197.64
1198.38
1198.21
1199.76
1207.2
1210.73
1211.54
1212.18
1212.84
1213.45
1213.99
1214.46
1214.81
1214.93
1215.28
1214.98
1214.14
1212.43
1210.33
1207.44
1203.44
1196.52
1187.86
1186.34
1185.17
1185.22
1185.4
1185.63
1186.04
1186.55
1210.21
1163.7
1164.71
1165.79
1166.92
1168.09
1169.27
1170.46
1171.7
1172.82
1173.25
1173.64
1177.68
1179.35
1181.03
1182.29
1187.07
1189.02
1190.36
1191.71
1193.06
1194.37
1195.58
1196.68
1198.06
1198.59
1198.28
1198.11
1197.58
1196.68
1194.66
1188.9
1185
1184.68
1184.17
1184.38
1184.48
1184.38
1184.05
1184.3
1207.49
1142.95
1143.83
1144.75
1145.69
1146.62
1147.5
1148.34
1149.21
1150.24
1152.49
1154.71
1157.22
1159.44
1162
1160.83
1162.84
1165.32
1167.06
1168.95
1171.01
1173.09
1175.12
1177.09
1178.86
1180.51
1182.08
1183.53
1184.87
1186.27
1187.16
1184.48
1184.36
1183.57
1183.28
1183.39
1183.4
1183.23
1182.99
1183.08
1205.07
1121.97
1122.68
1123.42
1124.16
1124.85
1125.42
1126.02
1127.24
1130.94
1133.41
1135.39
1137.39
1139.2
1139.48
1137.17
1139.27
1141.54
1143.34
1145.95
1148.13
1150.81
1153.53
1156.29
1159.11
1161.97
1164.94
1168.01
1171.25
1174.9
1179.07
1181.79
1182.67
1182.53
1182.36
1182.41
1182.38
1182.27
1182.15
1182.09
1201.59
1100.77
1101.29
1101.84
1102.39
1102.89
1103.29
1104.07
1106.53
1113.33
1114.98
1116.14
1117.21
1117.28
1116.18
1115.59
1116.53
1118.38
1120.73
1123.05
1125.41
1127.96
1130.99
1134.41
1138.1
1142.06
1146.28
1150.83
1155.76
1161.25
1167.66
1174.7
1179.52
1181.38
1181.67
1181.64
1181.52
1181.38
1181.28
1181.12
1197.87
1079.32
1079.65
1080.02
1080.44
1080.9
1081.53
1082.84
1085.11
1094.5
1097.11
1096.67
1094.66
1093.13
1092.07
1092.37
1093.39
1095.37
1097.35
1099.56
1102.14
1105.02
1108.34
1112.09
1116.13
1120.74
1126.02
1131.82
1138.16
1145.1
1152.78
1161.43
1170.6
1178.21
1180.83
1180.83
1180.65
1180.46
1180.32
1180.11
1195.42
1057.5
1057.54
1057.54
1057.49
1057.43
1057.41
1058.59
1059.55
1063.18
1074.41
1067.48
1065.82
1066.08
1066.79
1067.95
1069.56
1071.76
1073.74
1075.81
1078.41
1081.33
1084.88
1088.92
1093.51
1098.59
1104.33
1111.17
1118.69
1126.87
1135.69
1145.11
1155.3
1166.56
1176.6
1179.61
1179.69
1179.52
1179.32
1179.05
1193.67
1035.65
1035.15
1034.57
1033.67
1032.53
1033.87
1036.83
1032.52
1035.75
1037.39
1038.39
1039.52
1040.97
1042.56
1044.33
1046.28
1048.56
1051.31
1052.88
1055.54
1058.19
1061.01
1064.93
1069.92
1075.38
1081.44
1089.08
1097.62
1106.91
1116.84
1127.34
1137.97
1149.17
1162.6
1174.48
1178.33
1178.47
1178.29
1177.97
1193.72
1014.35
1013.39
1012.98
1012.19
1011.67
1014.29
1026.73
1006.28
1008.95
1011.33
1013.56
1015.78
1018.06
1020.42
1022.86
1025.43
1028.13
1030.53
1031.89
1033.1
1035.09
1037.74
1041.12
1045.35
1050.78
1057.48
1065.74
1075.18
1085.54
1096.58
1108.11
1119.86
1131.39
1143.58
1158.09
1171.59
1176.07
1177.02
1176.43
1195.89
991.591
992.204
992.41
991.513
988.617
987.528
995.938
984.242
986.304
989.262
992.185
995.143
998.13
1001.19
1004.32
1007.68
1011.33
1014.49
1012.87
1007.15
1006.9
1009.52
1013.4
1018.29
1024.35
1031.7
1040.76
1051.33
1062.99
1075.31
1087.94
1100.51
1112.6
1124.05
1135.46
1147.81
1155.23
1174.28
1171.96
1179.31
984.434
971.764
973.493
970.345
960.145
972.32
964.45
967.211
969.865
972.23
975.086
978.268
981.586
984.983
988.386
991.896
995.254
996.487
997.576
984.418
980.242
979.176
979.541
984.428
992.086
1001.54
1012.84
1025.7
1039.56
1053.86
1068.15
1082.01
1095.15
1107.27
1118.06
1127.82
1136.22
1144.61
1167.16
1158.54
955.389
958.439
951.375
949.36
948.78
953.055
947.373
954.528
958.517
960.246
962.293
965.095
968.412
971.973
975.638
979.271
981.632
979.04
977.621
974.85
971.693
969.947
968.398
966.486
967.074
971.647
982.756
998.696
1016.06
1033.27
1049.81
1065.4
1079.79
1092.8
1104.28
1114.15
1122.68
1130.4
1149.37
1150.62
946.309
944.602
944.03
942.821
942.495
942.395
941.679
943.82
947.481
950.584
952.503
954.572
957.663
961.433
965.602
969.945
973.032
970.493
966.659
966.307
965.817
965.411
965.178
965.075
964.663
962.375
962.251
974.623
995.005
1015.76
1034.9
1052.44
1068.4
1082.78
1095.7
1107.67
1118.49
1130.43
1140.06
1148.82
939.076
937.391
937.676
938.096
938.5
938.621
938.863
940.5
939.813
938.414
941.655
943.947
947.16
951.401
956.43
962.083
966.989
966.151
963.7
963.644
963.97
963.896
963.704
963.488
963.397
962.911
960.274
961.255
980.049
1003.66
1025.08
1044.18
1061.41
1076.95
1091.07
1104.27
1117.27
1131.56
1144.89
1159.36
934.662
933.961
934.285
934.71
935.008
935.127
935.063
934.999
928.766
925.231
928.154
931.16
935.076
940.174
946.563
954.113
960.449
962.079
961.757
962.101
962.507
962.511
962.524
962.52
962.578
962.555
961.914
958.257
974.252
998.725
1021.13
1040.87
1058.62
1074.73
1089.58
1103.76
1118.32
1135.29
1153.86
1173.14
929.036
928.713
928.943
928.974
928.41
927.689
924.613
916.435
912.198
911.182
913.065
916.273
920.694
926.712
934.866
944.976
953.367
959.969
960.808
961.212
961.392
961.347
961.426
961.624
961.905
962.306
963.385
963.267
980.549
1002.5
1023
1041.65
1058.73
1074.55
1089.58
1104.45
1120.51
1140.54
1164.41
1189.18
901.245
905.583
910.371
910.17
907.458
905.105
899.413
893.685
891.876
892.409
894.339
897.59
902.19
908.463
916.867
927.25
938.782
952.602
957.876
960.114
960.771
960.403
960.42
960.795
961.573
963.408
968.215
978.458
994.346
1010.37
1026.81
1042.91
1058.3
1073.15
1087.91
1103.28
1120.83
1143.93
1172.94
1203.3
877.719
878.875
879.18
879.167
878.694
877.042
874.522
872.019
870.147
870.447
872.519
875.911
880.377
885.999
892.772
900.48
910.019
925.42
942.963
953.645
955.825
956.564
957.41
959.157
962.745
970.696
980.344
990.536
999.843
1011.43
1024.73
1038.43
1052.14
1066.03
1080.54
1096.41
1115.43
1141.41
1175.32
1210.68
860.007
860.435
860.462
860.225
859.571
857.938
854.548
850.582
847.516
847.512
849.712
853.132
857.595
863.018
868.989
875.05
881.316
890.247
904.633
919.477
932.566
942.902
946.946
952.469
958.366
971.272
977.603
982.207
989.26
999.324
1010.95
1023.21
1035.91
1049.27
1063.76
1080.24
1100.71
1129.3
1167.26
1207.3
843.32
843.906
844.049
843.969
843.643
842.624
839.721
837.013
840.661
835.814
835.727
836.456
837.81
841.468
846.711
851.385
854.152
855.313
856.139
854.727
864.364
881.302
900.507
915.974
924.922
932.982
941.021
949.82
959.928
971.078
982.76
994.744
1007.13
1020.3
1034.88
1051.87
1073.37
1103.7
1144.77
1187.97
826.952
827.31
827.601
828.675
830.459
831.14
828.454
830.379
833.604
836.347
837.735
832.51
828.398
826.166
827.789
828.226
830.631
829.688
829.766
830.795
835.335
847.344
859.446
870.264
880.212
890.04
900.021
910.277
920.885
931.768
942.825
954.074
965.78
978.414
992.696
1009.7
1031.6
1062.8
1105.46
1150.22
811.515
811.619
812.735
814.106
814.711
816.259
817.343
819.037
820.724
823.448
825.62
826.268
821.851
811.335
806.981
802.308
801.201
801.881
802.657
804.337
807.22
813.483
820.659
828.269
836.407
844.946
853.852
863.093
872.425
881.925
891.504
901.344
911.794
923.386
936.835
953.226
974.687
1005.53
1048
1092.9
797.592
798.792
801.744
802.544
804.155
804.866
804.037
803.773
804.981
808.467
803.618
791.28
788.145
784.437
773.323
771.784
766.558
761.894
765.082
763.101
765.684
769.076
773.203
778.631
785.085
792.219
799.525
806.869
814.326
821.673
829.151
837.109
845.812
855.899
868.107
883.433
903.748
932.952
973.274
1016.77
784.361
786.678
789.352
790.959
790.361
788.03
786.489
787.002
782.875
772.058
759.744
748.413
739.716
733.009
727.649
721.645
715.701
711.496
710.159
710.664
711.645
713.565
716.994
721.727
727.354
733.511
739.132
744.276
749.602
754.363
759.043
764.331
770.455
778.43
789.296
803.444
822.211
848.692
884.853
925.208
769.568
772.34
773.821
772.625
770.274
767.451
763.925
753.991
741.113
728.279
715.688
703.42
691.963
682.029
673.536
665.965
659.367
654.293
651.26
650.325
651.258
654.047
658.531
664.279
671.012
678.123
683.057
684.049
682.681
680.57
680.147
681.87
686.636
694.707
704.893
718.706
736.185
759.275
789.507
825.019
752.119
753.666
752.947
750.338
746.792
735.976
722.024
708.077
693.907
679.462
665.005
650.905
637.589
625.408
614.516
604.945
596.898
590.723
586.896
585.735
587.158
591.059
596.454
600.083
596.732
587.428
580.773
580.484
579.47
580.457
586.927
598.748
602.448
608.949
621.8
637.372
654.168
673.501
696.657
726.227
731.753
732.17
730.133
719.266
704.506
689.577
674.302
658.196
641.48
624.534
607.768
591.546
576.16
561.779
548.514
536.524
526.123
517.238
510.331
506.509
502.598
494.244
486.47
489.146
483.701
480.044
482.028
485.78
500.165
515.693
525.139
520.018
521.782
536.519
554.136
570.301
585.152
599.871
615.339
637.654
710.765
702.796
688.613
673.583
657.763
640.581
622.243
603.141
583.736
564.428
545.471
526.996
509.245
491.977
474.431
457.546
443.618
430.608
417.422
415.922
427.319
435.795
440.497
441.935
444.858
449.972
454.443
459.71
464.798
466.307
465.165
467.455
479.813
496.049
510.291
522.423
532.954
542.079
549.879
566.036
673.097
658.8
643.586
626.283
607.187
586.732
565.437
543.816
522.23
500.901
479.902
458.928
440.066
425.724
414.378
406.247
399.19
385.916
385.996
415.445
429.919
434.699
435.358
435.393
436.582
438.906
440.797
441.635
442.499
444.421
448.493
455.035
463.797
472.673
480.737