/*--------------------------------*- C++ -*----------------------------------*\
  =========                 |
  \\      /  F ield         | OpenFOAM: The Open Source CFD Toolbox
   \\    /   O peration     | Website:  https://openfoam.org
    \\  /    A nd           | Version:  8
     \\/     M anipulation  |
\*---------------------------------------------------------------------------*/
FoamFile
{
    version     2.0;
    format      ascii;
    class       volScalarField;
    location    "2.75";
    object      p;
}
// * * * * * * * * * * * * * * * * * * * * * * * * * * * * * * * * * * * * * //

dimensions      [1 -1 -2 0 0 0 0];

internalField   nonuniform List<scalar> 
9150
(
-204.938
-205.935
-206.54
-207.021
-207.261
-207.258
-207.017
-206.537
-205.927
-204.929
-224.982
-225.499
-225.912
-226.237
-226.405
-226.404
-226.238
-225.909
-225.493
-224.975
-244.873
-245.158
-245.407
-245.626
-245.74
-245.732
-245.62
-245.406
-245.154
-244.868
-264.612
-264.789
-264.956
-265.11
-265.19
-265.196
-265.11
-264.954
-264.784
-264.606
-284.231
-284.416
-284.552
-284.681
-284.737
-284.75
-284.672
-284.54
-284.41
-284.225
-118.796
-119.721
-119.53
-119.064
-118.91
-118.916
-119.066
-119.544
-119.698
-118.753
-134.429
-135.143
-135.372
-135.429
-135.322
-135.313
-135.398
-135.334
-135.107
-134.398
-150.941
-151.684
-152.005
-152.348
-152.407
-152.398
-152.34
-151.983
-151.664
-150.918
-167.817
-168.93
-169.364
-170.004
-170.169
-170.162
-169.992
-169.349
-168.912
-167.801
-184.739
-186.83
-187.574
-188.296
-188.558
-188.543
-188.288
-187.565
-186.818
-184.726
-26.2795
-27.0016
-28.6232
-29.5526
-30.1683
-30.2273
-29.7479
-28.6182
-26.5009
-24.7547
-46.1145
-46.1904
-47.0716
-47.3244
-47.6617
-47.6475
-47.132
-46.6705
-45.6508
-45.4226
-65.7645
-65.6514
-66.6194
-66.1926
-66.6109
-66.5261
-66.0381
-66.3591
-65.3674
-65.408
-88.4762
-85.7332
-86.7837
-85.1279
-85.3841
-85.3344
-85.1153
-86.6343
-85.6015
-88.3142
-114.741
-104.744
-104.443
-102.823
-102.499
-102.466
-102.773
-104.331
-104.666
-114.648
528.43
528.848
527.786
522.333
513.299
503.267
492.11
484.555
470.378
477.188
504.134
501.973
500.274
496.384
486.352
475.253
470.437
474.024
468.404
460.525
483.643
481.14
476.772
471.418
465.946
460.897
455.777
453.445
456.614
454.395
466.161
464.008
460.409
458.054
455.789
453.832
453.418
454.184
452.121
445.747
445.275
444.202
442.211
440.229
439.011
438.095
436.878
434.279
429.902
435.896
422.263
422.071
422.221
422.704
423.491
425.455
427.041
428.211
430.059
429.348
398.058
397.727
399.683
404.64
406.023
414.263
424.166
424.99
413.873
414.068
370.936
374.631
377.766
383.133
391.882
396.981
396.373
392.129
392.57
385.147
367.159
367.945
369.711
368.62
367.987
373.362
374.565
373.275
368.554
366.262
361.222
358.513
353.895
350.494
351.16
352.047
352.737
349.47
352.698
355.612
357.391
341.691
338.265
331.829
327.745
324.662
324.304
333.445
334.353
331.075
322.813
315.224
302.304
297.612
293.754
295.599
299.406
300.994
300.257
304.1
288.229
274.099
265.957
257.249
254.742
256.695
259.638
258.763
268.844
277.47
259.351
251.188
242.629
234.5
231.312
231.118
238.052
231.615
255.656
244.522
243.746
234.513
227.663
223.608
215.938
228.946
227.991
231.521
234.364
226.458
222.644
223.341
225.481
223.348
219.596
216.377
211.54
220.346
198.648
196.847
201.93
201.241
203.205
200.696
192.7
187.363
182.858
159.918
151.201
144.624
183.046
178.814
172.839
166.208
158.979
149.131
134.292
112.969
106.036
108.378
164.754
159.323
152.742
144.83
135.183
123.772
108.367
98.5358
91.6826
93.7111
150.197
143.033
135.924
127.556
118.176
102.96
86.5697
80.8139
76.28
77.3626
140.585
131.9
123.519
114.822
104.737
88.6453
66.0067
56.1155
57.7466
58.357
136.254
131.593
120.316
114.038
105.975
90.3853
66.7529
50.8703
47.1832
51.0208
135.717
131.544
125.444
119.585
116.306
107.7
97.2773
86.2203
68.477
67.3833
136.849
134.526
130.533
126.101
123.636
120.076
118.668
112.644
95.2718
90.4695
134.91
132.774
131.078
129.21
127.772
124.958
119.425
119.867
116.073
111.743
131.701
130.381
129.317
128.903
125.782
130.023
134.195
130.452
127.356
121.971
124.817
124.552
125.742
132.434
131.948
121.24
122.805
117.359
130.222
113.549
110.753
108.124
105.896
108.723
103.786
103.79
102.827
96.6814
96.16
91.1439
101.289
98.8358
95.6119
91.6183
85.79
77.6134
66.8048
86.3284
66.7786
64.4931
95.1285
91.7762
87.0334
80.3725
72.4003
63.8673
70.8852
60.2083
49.7893
49.9682
89.626
87.1982
83.8182
78.4854
74.6048
76.4919
67.1206
43.5544
37.5619
36.7998
82.8896
83.9688
84.5309
84.4966
86.7534
83.0221
74.7396
56.6022
31.3749
21.8112
90.0034
99.791
101.752
96.3194
104.371
100.049
89.5708
76.1502
38.8926
15.4216
94.442
90.6433
113.93
113.928
133.743
116.902
104.754
66.8935
27.3583
11.4876
92.1358
99.0794
110.955
126.261
151.97
130.406
76.2941
22.8001
5.51263
4.94508
75.4283
83.2114
94.5845
88.6723
118.299
81.2983
16.1111
1.62277
-0.740334
-2.13764
56.3366
48.6765
61.4976
33.4235
48.2407
31.2382
1.74743
-0.839559
-1.32438
-1.35373
41.551
37.7063
44.6546
32.556
27.1859
11.8933
-0.766623
-0.557329
-0.472784
-0.471543
25.2755
27.6909
27.9581
29.2942
26.9196
7.60531
0.106827
-0.437626
-0.412355
-0.406603
13.1253
16.391
18.7473
26.0032
23.3029
6.12272
0.291233
-0.396662
-0.424235
-0.426026
-0.509594
3.12041
2.56983
39.1473
22.7131
4.0227
-0.406485
-0.539391
-0.47893
-0.481319
0.177117
-0.750688
-0.0950808
0.71452
24.0523
14.0115
-0.514306
-0.558105
-0.536039
-0.539079
-1.20109
-1.87399
-2.22511
-2.73732
3.88619
39.2145
-1.22005
-0.800394
-0.660653
-0.609598
-1.99667
-2.33294
-3.08852
-6.13849
29.9005
13.3692
-0.651279
-0.663732
-0.62021
-0.61202
-1.52289
-1.74969
-2.14676
-3.93782
23.5704
23.2887
-0.758037
-0.621234
-0.581972
-0.601493
-0.731045
-0.662679
-0.790538
-1.05332
24.9669
21.397
-0.412559
-0.565063
-0.50253
-0.601054
-0.308309
0.337926
-0.105965
1.1628
22.8488
23.4564
-0.45145
-0.547823
-0.585049
-0.591069
-0.419538
-0.29877
-0.0586174
0.641109
19.6782
24.7206
-0.591467
-0.583132
-0.627046
-0.621446
-0.493004
-0.42736
-0.321325
-0.230016
21.8477
21.7232
-0.640683
-0.635185
-0.664236
-0.649415
-0.645976
-0.597898
-0.540131
-0.509005
22.1287
24.1106
-0.688756
-0.693516
-0.702705
-0.689017
-0.638784
-0.581716
-0.53191
-0.473463
24.9229
24.7177
-0.687995
-0.70669
-0.714106
-0.726654
-0.71729
-0.667221
-0.635458
-0.585091
29.3429
21.3126
-0.700943
-0.720814
-0.730993
-0.744844
-0.907694
-0.894055
-0.925779
-1.13818
46.2513
3.46411
-0.583635
-0.732381
-0.76397
-0.779868
-1.01168
-0.992824
-0.977364
-0.917642
3.15167
43.7819
-1.00683
-0.868645
-0.847292
-0.843638
-1.06263
-1.08709
-1.15389
-1.44669
40.7195
7.47344
-0.642234
-0.808737
-0.854369
-0.874603
-1.04841
-1.04661
-1.00616
-0.74587
3.18062
42.9638
-1.3641
-0.98681
-0.940815
-0.934168
-1.03379
-1.02547
-1.00423
-0.904017
17.9961
30.702
-1.24229
-0.992952
-0.959308
-0.960971
-1.03324
-1.05071
-1.04836
-1.0423
25.444
23.0205
-0.951741
-0.929716
-0.951501
-0.963726
-1.11307
-1.11621
-1.16661
-1.19065
27.2976
20.0503
-0.852011
-0.920598
-0.984153
-1.00382
-1.14776
-1.25302
-1.40767
-2.13508
38.7348
5.80749
-0.58175
-0.778271
-0.84962
-1.04275
-1.12741
-1.17385
-1.14467
-1.40098
24.7192
22.431
-0.895432
-0.706002
-0.897252
-1.03052
-1.08602
-1.08738
-1.04102
-1.1126
24.4938
26.8232
-0.978574
-0.854471
-1.04431
-1.00581
-1.1165
-1.14736
-1.09564
-1.28237
27.6641
25.7428
-1.10584
-1.08435
-1.13261
-1.16617
-1.04776
-1.11073
-0.869032
-0.915342
26.8685
26.7556
-1.19985
-1.19873
-1.2152
-1.22942
-0.99311
-1.00205
-0.788565
-0.814102
24.3827
28.5605
-1.28755
-1.28439
-1.29677
-1.29751
-1.07348
-1.01793
-0.957197
-0.807572
10.897
41.3771
-1.49003
-1.39454
-1.36328
-1.35712
-1.12581
-1.09571
-1.11256
-1.17038
40.9166
9.76024
-1.26095
-1.37109
-1.38901
-1.39517
-1.1492
-1.15974
-1.16114
-1.25695
39.0035
12.0936
-1.31475
-1.40382
-1.42659
-1.43453
-1.12451
-1.12163
-1.07897
-1.07397
21.0257
30.3088
-1.51932
-1.49463
-1.48882
-1.48379
-1.0936
-1.07411
-1.01455
-0.957717
13.3342
38.06
-1.6384
-1.56312
-1.5431
-1.53467
-1.1032
-1.05362
-1.0264
-0.96372
12.7014
38.5385
-1.67993
-1.58901
-1.57894
-1.56973
-1.13012
-1.11553
-1.11422
-1.1565
28.2357
23.3243
-1.56703
-1.55677
-1.57847
-1.58248
-1.14886
-1.14702
-1.14267
-1.17031
27.7434
23.756
-1.58997
-1.57155
-1.59524
-1.60218
-1.16784
-1.15956
-1.15501
-1.1393
24.7472
26.6617
-1.60489
-1.61048
-1.62887
-1.63153
-1.18139
-1.17588
-1.1739
-1.14519
25.9337
24.5661
-1.62079
-1.66004
-1.6664
-1.65992
-1.18563
-1.17634
-1.16641
-1.12203
20.4584
29.0984
-1.72538
-1.73302
-1.72104
-1.71279
-1.18521
-1.16329
-1.13473
-1.04648
9.85137
39.6519
-1.87111
-1.80571
-1.77595
-1.7549
-1.1887
-1.1664
-1.13429
-1.06331
10.3232
38.7739
-1.89996
-1.83511
-1.8056
-1.78186
-1.22453
-1.20491
-1.17266
-1.0975
10.1715
39.259
-1.92615
-1.83979
-1.8106
-1.78901
-1.27581
-1.26661
-1.26224
-1.3037
25.8366
23.6351
-1.80766
-1.79077
-1.78559
-1.77889
-1.32207
-1.31601
-1.31327
-1.39391
24.0029
25.0585
-1.85959
-1.77757
-1.77643
-1.7739
-1.36186
-1.3606
-1.35683
-1.45699
23.0707
24.7348
-1.87939
-1.76826
-1.77119
-1.7697
-1.39993
-1.40472
-1.3981
-1.40298
23.2565
22.6267
-1.79033
-1.77316
-1.77436
-1.77357
-1.44012
-1.44094
-1.43745
-1.28308
23.6976
20.9709
-1.63495
-1.78944
-1.7883
-1.78794
-1.46994
-1.46704
-1.46198
-1.26374
18.7318
21.0118
-1.62021
-1.80966
-1.80454
-1.80142
-1.5105
-1.50104
-1.50252
-1.47539
19.4522
18.7561
-1.78489
-1.81957
-1.81571
-1.81298
-1.54619
-1.54049
-1.53704
-1.76777
16.1921
21.6946
-2.09393
-1.83434
-1.82812
-1.82422
-1.57938
-1.57523
-1.57315
-1.8765
16.1395
18.5816
-2.15333
-1.83925
-1.83444
-1.83226
-1.61109
-1.60752
-1.60647
-1.57638
11.7216
17.2831
-1.80138
-1.8438
-1.83877
-1.83952
-1.64459
-1.64127
-1.63943
-1.5167
11.6414
13.7606
-1.35783
-1.84821
-1.84343
-1.84745
-1.67634
-1.67362
-1.69412
-1.81012
12.7216
6.49155
-1.91228
-1.85806
-1.85781
-1.85837
-1.70362
-1.7029
-1.68202
-1.37337
8.06162
2.92424
-2.82882
-1.87215
-1.87657
-1.87313
-1.73526
-1.73481
-1.76679
-1.87315
4.04253
5.00755
-2.55355
-1.88897
-1.8802
-1.88268
-1.76255
-1.76015
-1.80518
-2.46723
1.27163
3.05688
-2.07858
-1.98549
-1.89311
-1.89375
-1.79558
-1.79407
-1.94455
-1.34033
0.264149
1.42552
-2.25737
-2.09807
-1.90748
-1.90484
-1.83145
-1.83283
-2.30815
-1.48755
-0.273145
0.126064
-0.921365
-2.09595
-1.91252
-1.91232
-1.85971
-1.84979
-3.38017
-1.8408
-0.707071
-0.741593
-1.45508
-3.05385
-1.91983
-1.92595
-1.89493
-2.39222
-4.46077
-2.93263
-2.08355
-1.87244
-2.66618
-4.74356
-2.52268
-1.93831
-1.90431
-4.0143
-5.25652
-5.38454
-5.59652
-5.90776
-6.14371
-6.20139
-4.23352
-1.94852
-2.83998
-10.1673
-13.2458
-14.9638
-15.5254
-15.2973
-14.4545
-12.4625
-9.18284
-2.68401
477.829
480.297
476.795
475.672
479.445
483.369
484.745
484.605
483.981
482.251
481.69
483.723
485.589
485.273
478.815
476.393
474.953
471.531
470.652
469.192
468.062
467.744
469.099
472.72
478.518
484.282
488.661
485.211
475.85
463.538
450.509
438.989
427.045
414.291
411.995
430.276
459.525
490.091
511.387
522.039
456.364
462.61
461.016
466.451
462.249
461.908
462.046
462.971
461.069
456.737
449.199
444.084
444.142
451.151
452.389
453.124
452.933
451.653
449.871
447.285
444.082
441.22
441.358
445.361
451.247
457.546
457.925
453.145
443.172
431.173
415.348
399.17
385.689
376.293
368.767
363.088
376.151
410.037
440.407
451.953
453.333
454.209
457.835
461.16
462.362
462.685
462.839
462.274
460.364
457.515
453.733
448.876
446.037
442.528
429.191
421.49
429.786
430.55
427.376
426.772
424.57
421.588
419.972
419.655
420.075
421.482
420.045
411.188
401.256
393.371
385.15
377.822
371.963
372.44
369.848
366.825
370.092
373.112
400.526
409.161
449.787
453.547
454.232
455.582
456.529
456.724
456.278
454.728
451.343
445.641
438.893
433.176
428.023
424.823
423.547
423.514
419.909
410.038
397.872
409.622
408.979
410.417
406.072
405.476
403.512
401.184
396.162
388.386
380.739
373.863
371.7
371.403
370.614
370.532
369.356
367.844
367.935
368.324
386.3
394.949
441.94
443.459
445.563
446.781
448.103
448.979
445.475
440.595
434.786
428.754
423.063
413.818
412.114
411.868
409.838
408.161
408.899
406.443
406.796
405.631
397.609
397.057
397.838
393.105
390.389
387.697
382.73
377.852
371.725
365.705
370.423
370.637
369.59
369.175
368.759
368.4
368.379
375.923
387.186
393.175
428.185
433.271
435.861
435.946
434.211
429.428
422.294
411.964
403.046
395.26
389.755
389.629
391.706
387.185
389.792
385.668
394.751
379.183
392.072
380.729
381.183
384.326
380.587
377.145
374.508
370.613
369.929
368.835
366.411
364.711
369.321
368.927
367.923
367.543
367.675
368.408
370.377
381.032
389.562
394.183
413.905
414.065
413.162
409.14
403.231
393.122
382.718
371.981
361.285
352.286
343.704
335.595
333.828
333.299
346.484
344.415
343.892
341.015
338.939
341.688
341.863
328.833
334.083
339.705
344.677
350.207
353.655
357.135
357.768
362.149
366.726
367.53
367.712
367.764
367.957
367.226
373.759
378.95
385.332
390.758
377.347
373.386
367.958
363.76
352.585
338.951
325.023
309.087
307.585
305.047
295.447
281.792
279.65
289.174
294.158
297.811
299.792
300.501
297.183
289.325
296.145
298.692
292.079
295.079
307.969
322.707
333.508
341.845
349.637
360.519
367.315
367.992
368.959
368.39
368.268
370.946
369.042
375.261
374.798
378.379
365.149
352.106
339.616
330.066
309.439
291.843
287.606
289.938
280.772
275.022
266.893
253.706
253.24
259.799
262.99
264.009
258.917
264.412
253.02
257.725
269.869
277.372
277.78
276.167
278.509
297.812
315.654
328.848
340.67
353.725
366.743
372.653
377.437
358.978
380.274
370.75
379.811
357.531
359.187
360.324
352.266
336.572
325.374
300.556
277.216
270.54
266.175
265.462
266.289
259.318
251.007
244.895
241.156
240.684
243.916
247.156
250.578
253.202
255.335
256.948
264.243
270.533
270.837
267.869
274.288
291.116
304.069
316.089
326.7
335.182
341.207
374.957
369.482
387.358
361.548
363.942
343.196
347.32
349.106
349.935
331.66
324.914
304.444
274.277
258.422
251.158
244.815
245.918
250.161
240.555
235.202
228.655
227.815
231.014
233.933
235.384
236.821
239.076
239.986
246.671
255.227
258.921
262.135
261.058
255.134
266.224
278.947
295.381
310.116
321.356
334.1
365.385
340.366
351.365
344.317
374.306
340.969
338.544
340.072
339.324
303.128
293.264
275.873
248.017
242.544
241.19
234.901
233.024
233.145
221.617
213.415
199.274
198.911
204.174
210.359
219.182
211.761
212.051
213.929
216.342
218.098
221.815
233.765
244.28
246.908
249.246
258.993
272.788
285.844
296.479
307.774
314.24
318.952
327.744
330.495
360.528
331.316
327.741
328.291
327.112
270.466
270.303
253.99
238.097
228.032
235.987
229.819
221.782
225.907
217.501
201.366
206.898
207.36
207.354
206.284
207.323
207.814
206.086
207.68
210.275
213.773
215.229
216.869
226.654
236.253
243.102
251.233
260.756
269.962
279.308
288.88
297.662
307.121
313.102
313.326
340.096
317.665
313.577
311.962
311.432
249.509
248.588
240.319
234.345
229.7
227
221.42
219.597
218.534
211.528
204.775
207.948
207.667
207.189
206.474
205.913
205.531
205.569
205.561
204.5
205.535
206.197
209.819
220.169
231.64
238.645
246.156
253.211
258.997
264.288
271.891
282.629
294.772
298.387
295.466
296.174
292.056
292.796
291.387
291.623
227.557
223.596
220.808
217.262
221.055
229.647
230.679
226.45
222.261
213.671
206.574
208.242
207.682
206.802
205.594
204.2
202.53
201.648
200.89
201.014
199.648
199.027
201.235
207.006
216.32
228.4
237.598
244.311
247.711
248.476
259.687
268.98
275.683
281.976
277.425
279.478
285.235
269.878
276.289
273.227
193.747
201.209
203.756
220.122
224.303
222.952
232.94
231.876
229.362
221.416
211.355
209.92
208.934
208.07
206.906
205.274
203.263
201.358
199.226
196.61
195.706
197.032
200.202
206.585
212.702
217.944
224.296
234.434
244.717
253.425
261.822
266.701
261.657
271.679
264.912
264.322
262.572
259.146
260.638
262.631
144.456
160.235
181.096
198.604
222.796
225.849
233.337
242.324
241.905
234.223
220.003
211.185
211.22
210.338
209.116
207.796
206.613
205.522
204.456
203.187
202.123
202.226
204.496
208.441
214.268
221.38
229.89
238.829
246.714
254.197
260.316
265
264.285
260.806
256.313
248.663
264.572
257.498
259.923
262.796
121.398
115.114
146.464
185.309
227.66
252.506
245.57
262.168
263.787
253.307
237.37
217.713
212.922
211.519
210.266
208.789
207.045
204.829
202.502
200.623
198.344
195.855
202.886
208.654
204.13
213.588
229.935
240.185
246.147
249.951
249.627
254.127
258.783
258.758
257.2
266.011
259.681
249.202
251.839
252.341
100.328
95.144
102.933
153.672
215.455
273.84
297.342
296.413
295.789
272.749
250.271
230.826
210.403
207.905
207.721
206.074
204.391
202.63
200.756
199.275
197.933
195.286
196.686
200.837
202.337
207.948
215.71
222.384
227.393
231.392
233.89
235.7
237.774
238.88
233.75
231.453
230.894
233.846
238.968
240.265
81.5449
83.4935
87.908
109.184
182.991
246.67
311.059
312.512
295.893
271.211
252.016
239.755
223.425
207.934
199.919
200.941
200.952
199.819
198.818
197.885
196.512
191.499
186.799
186.455
188.556
192.935
198.372
202.99
206.338
205.527
212.669
214.149
223.012
218.698
217.908
220.121
220.723
224.433
228.477
230.224
64.1192
72.3228
79.3532
88.718
152.737
215.135
267.646
319.565
275.09
239.77
216.365
199.365
187.98
182.257
184.707
185.803
186.026
189.711
191.417
191.267
184.232
175.053
170.361
168.666
170.067
173.742
177.61
179.7
178.466
182.731
182.991
193.549
193.558
193.275
196.866
197.999
203.567
200.584
203.375
205.676
58.6542
67.9131
74.8481
79.4353
114.385
156.667
180.764
218.354
177.465
160.289
154.37
142.896
138.748
133.26
129.957
139.09
153.327
155.946
157.989
159.962
157.837
152.761
150.048
150.388
152.612
155.549
157.944
157.309
165.913
162.845
167.286
163.207
160.82
164.877
161.524
163.887
174.754
184.288
178.783
184.306
71.5001
74.2291
74.1516
74.4454
82.8553
96.456
92.4104
94.2415
87.9718
71.1507
75.3284
70.6479
74.6968
79.3564
80.1732
87.513
96.99
117.618
132.976
136.347
134.447
132.992
134.091
136.928
140.982
144.624
147.971
156.624
159.362
165.999
154.108
159.646
156.641
153.518
154.304
153.088
155.51
161.663
161.092
175.997
88.0326
83.3819
78.0549
74.8571
68.7468
62.5543
55.3894
54.5782
54.0254
51.4364
48.7261
46.7225
47.5461
47.8917
52.7578
54.3422
57.273
77.4972
92.7649
105.349
115.326
118.604
120.108
123.687
128.569
134.026
141.393
143.86
160.758
149.776
153.911
152.196
150.315
149.653
150.289
145.287
145.3
147.888
148.218
163.437
105.015
95.0639
87.9957
77.7825
65.3338
50.8642
42.9417
44.9778
45.6522
45.4745
45.2028
45.6183
46.4191
48.2195
50.7145
54.2966
56.7115
58.1219
53.8913
75.6358
91.0218
98.2685
104.562
109.853
114.157
126.402
127.53
134.093
132.586
133.773
137.476
132.852
131.662
135.735
130.693
130.263
132.509
132.701
133.38
149.712
115.785
107.076
95.6097
85.3599
76.5383
64.9947
49.6993
43.4595
43.6544
44.0482
44.1558
43.9474
43.3151
43.417
49.6133
49.4535
51.1735
56.4471
57.1154
66.9482
74.8185
82.3217
89.7136
96.538
101.981
107.695
104.331
105.946
101.68
122.112
110.317
120.185
121.227
120.206
116.421
112.2
109.207
109.772
114.466
117.443
110.753
103.574
92.5333
97.3694
93.6349
74.5401
69.2897
47.9754
42.5559
42.8603
42.2546
41.4615
40.9407
40.8649
38.9266
31.1604
40.978
44.4172
39.5207
48.0481
57.2768
67.9944
75.5974
83.6858
87.9439
92.8175
89.539
86.9843
85.8027
101.994
99.2209
100.574
104.466
101.252
98.6437
104.405
108.031
107.436
105.607
113.83
83.0407
76.3483
74.017
90.5354
80.0506
70.6458
61.5998
54.5266
50.1834
41.573
38.7433
39.7559
41.0225
41.5707
37.5285
36.4386
36.4017
34.5049
33.1259
39.0642
45.1707
52.2378
58.5707
62.0244
69.8044
69.1761
70.5323
68.5783
81.1279
85.226
76.038
74.2381
79.7808
80.8205
88.4747
97.909
98.4489
98.7994
101.167
117.883
54.9867
44.9533
60.5364
55.2745
63.7055
52.1657
40.3596
29.7088
22.1953
31.0741
27.7543
36.8355
37.2196
42.9232
37.1897
34.4164
57.2475
32.9978
35.2823
36.9818
36.6753
36.4282
43.9075
41.4747
56.6928
33.6211
43.7099
42.8571
48.1412
43.6653
43.65
47.3346
53.7055
62.178
73.2398
84.5211
90.871
95.6056
100.855
104.917
50.4856
62.4103
58.5907
35.6587
47.0353
38.6382
12.7523
3.44427
10.6677
9.03522
12.9296
19.1635
20.4213
30.4984
26.9832
25.9573
44.9876
35.3736
33.1895
34.7665
35.9631
37.2725
38.2714
38.9221
36.6438
22.8556
23.3784
21.2454
19.015
17.0732
17.1671
21.8214
32.0873
46.2949
60.4863
72.5863
80.493
87.6962
94.3693
97.6402
38.3875
66.9274
50.8641
56.3
42.2046
39.7054
11.0488
13.1372
11.701
11.5486
11.8964
14.3358
16.7111
20.927
22.2191
21.6426
38.7844
34.9568
30.3271
34.6383
35.4211
36.5393
38.9119
40.7837
34.876
20.8051
17.4487
13.9631
10.4889
8.37557
9.33253
15.9297
27.5029
40.3273
52.2943
63.47
72.5866
78.2568
80.4519
87.7257
21.9898
39.4018
34.9903
20.5541
18.0682
9.45099
15.8477
8.34019
14.2636
15.5756
17.708
19.3733
20.2742
21.2262
21.078
20.1417
22.1281
22.149
31.3778
27.7453
28.9523
30.7624
31.2271
35.5745
30.4723
26.188
21.8224
18.84
16.5298
14.3335
14.4099
20.1304
30.1255
41.6548
53.5867
64.2451
72.9992
80.6931
86.4321
92.5425
12.8836
15.5153
14.3742
13.2989
12.9137
7.10984
7.77386
15.7168
16.1185
17.9652
21.7256
22.6571
22.4507
21.6383
20.5557
20.0591
19.6466
18.1195
16.6935
25.252
26.1893
26.6191
27.619
30.9369
30.4484
26.953
24.689
24.5165
23.6781
22.431
19.9312
22.158
30.149
42.0789
53.7473
64.3835
74.9101
85.213
93.7
100.892
6.48192
8.18992
9.22125
9.14668
9.1175
9.3212
11.3336
16.1859
21.8677
17.6647
19.3943
21.8644
22.3919
20.2403
18.5689
18.4696
18.4529
18.2886
16.8236
19.5804
22.6955
24.6578
24.1993
22.0282
19.2508
19.0488
20.9998
22.4891
23.3179
23.8264
24.3531
25.2489
23.5451
30.3127
45.8704
62.0179
76.7231
91.5356
105.426
116.307
2.78444
3.91482
5.11199
3.85998
1.80194
2.54589
1.39814
2.46859
0.698625
5.85649
16.8405
27.6686
30.5564
33.1853
19.2822
16.4342
17.6564
18.274
17.9473
15.8987
25.5903
23.4583
18.4145
21.2453
22.3281
21.6328
21.4716
21.9676
22.5238
23.0463
23.6045
24.1545
24.7067
20.0188
25.3824
50.9259
76.2444
101.317
126.438
145.855
-1.95336
0.883026
0.216185
-0.0662755
0.00147115
-0.0366105
0.0140761
0.0220753
0.0162487
-0.313903
-0.126229
0.785399
15.4646
25.5037
12.9775
15.6188
16.9702
17.938
17.1632
17.8286
31.3838
30.2504
17.2008
23.9131
23.9689
22.5021
21.7645
21.5801
21.8161
22.1237
22.4733
22.7952
22.7602
17.3724
31.2587
60.969
88.399
116.081
145.761
165.842
-0.751272
-0.572307
-0.346709
-0.22094
-0.204009
-0.265853
-0.180745
-0.178496
-0.242668
-0.296414
-0.220437
-0.382746
-0.655204
-0.89704
-0.140024
10.6183
17.5758
20.0651
19.1924
23.2085
27.0598
22.8798
21.7672
16.7066
11.6539
13.6726
17.3836
19.83
19.744
19.5102
19.6194
19.5837
19.9119
29.5103
33.5845
39.6986
67.1282
101.771
127.236
143.379
-0.38825
-0.368962
-0.339314
-0.310956
-0.282273
-0.245617
-0.227482
-0.232073
-0.306381
-0.343703
-0.369134
-0.385178
-0.313057
-0.259418
-0.292871
-0.258611
0.147658
2.91818
3.96718
3.46986
2.68354
0.941388
-0.074782
2.67207
11.8273
18.218
17.1911
13.3508
12.357
17.9072
18.5989
12.3232
3.25584
-0.280355
-0.765921
-0.131173
10.3352
34.1647
56.4699
70.8961
-0.42209
-0.41882
-0.385015
-0.382504
-0.369529
-0.358907
-0.362055
-0.389572
-0.396989
-0.386007
-0.370217
-0.360303
-0.362206
-0.370735
-0.354154
-0.334601
-0.302759
-0.277021
-0.272559
-0.301002
-0.320401
-0.324794
-0.339821
-0.375018
-0.549192
-0.253627
1.51714
2.95472
0.902842
-0.44599
-0.581627
-0.620611
-0.543283
-0.494643
-0.478337
-0.0967917
1.27198
-0.6317
3.5501
17.1823
-0.457564
-0.454029
-0.443963
-0.472891
-0.47716
-0.482931
-0.472364
-0.465418
-0.451966
-0.429331
-0.402574
-0.381139
-0.368464
-0.357725
-0.350594
-0.348874
-0.352158
-0.353146
-0.334149
-0.337359
-0.357461
-0.389883
-0.43006
-0.491045
-0.586515
-0.637637
-0.616583
-0.649609
-0.746645
-0.770896
-0.745861
-0.715609
-0.677115
-0.63419
-0.610058
-0.616219
-0.562915
-1.88183
-1.88407
5.5713
-0.512124
-0.50689
-0.52442
-0.522432
-0.516189
-0.512994
-0.513819
-0.50645
-0.492375
-0.467784
-0.437925
-0.406482
-0.379418
-0.354853
-0.353661
-0.355575
-0.365584
-0.375652
-0.387553
-0.405658
-0.431254
-0.446229
-0.482498
-0.544649
-0.621282
-0.694211
-0.750124
-0.791406
-0.811566
-0.813074
-0.809656
-0.79489
-0.773976
-0.746686
-0.716023
-0.685649
-0.666305
-0.626676
3.14658
4.84468
-0.550661
-0.538382
-0.555821
-0.548489
-0.540765
-0.540912
-0.536941
-0.535403
-0.521691
-0.498692
-0.475524
-0.42985
-0.413281
-0.397654
-0.406119
-0.41523
-0.431813
-0.453683
-0.477436
-0.501042
-0.523341
-0.54917
-0.588199
-0.642336
-0.718397
-0.795789
-0.84116
-0.868475
-0.890122
-0.903419
-0.907378
-0.899171
-0.882845
-0.859216
-0.829905
-0.782335
-0.720646
-0.711798
1.89451
3.41424
-0.585727
-0.560319
-0.582771
-0.572058
-0.564503
-0.564051
-0.564601
-0.563903
-0.565148
-0.538609
-0.524978
-0.510713
-0.495319
-0.485344
-0.490232
-0.506975
-0.530871
-0.555491
-0.584782
-0.608074
-0.635005
-0.667603
-0.706786
-0.753344
-0.817548
-0.871873
-0.917102
-0.954176
-0.985271
-1.00627
-1.01858
-1.02156
-1.01344
-0.992446
-0.976198
-0.942448
-0.885479
-0.757145
0.66909
3.37009
-0.59784
-0.581212
-0.606019
-0.59451
-0.588091
-0.588197
-0.591841
-0.600695
-0.61674
-0.611542
-0.609856
-0.603181
-0.594956
-0.582344
-0.581812
-0.601863
-0.610751
-0.617997
-0.632336
-0.647059
-0.673451
-0.708099
-0.748247
-0.794128
-0.855861
-0.922806
-0.975895
-1.01848
-1.054
-1.07783
-1.09339
-1.10178
-1.10881
-1.10107
-1.09193
-1.07184
-1.05176
-0.698605
3.45012
8.32837
-0.602054
-0.609827
-0.608828
-0.604215
-0.607175
-0.612088
-0.621849
-0.634201
-0.648734
-0.657132
-0.656256
-0.654841
-0.651685
-0.655051
-0.640994
-0.653897
-0.652111
-0.65613
-0.665911
-0.681346
-0.704836
-0.738278
-0.778643
-0.83006
-0.882617
-0.954811
-1.00908
-1.05496
-1.09305
-1.10535
-1.11452
-1.1066
-1.13945
-1.14077
-1.12029
-1.09827
-1.06595
-0.376042
5.04796
20.414
-0.610643
-0.610837
-0.615161
-0.608891
-0.629684
-0.635046
-0.642933
-0.652439
-0.661251
-0.667981
-0.670581
-0.669976
-0.671162
-0.674352
-0.673732
-0.673998
-0.67927
-0.687053
-0.699697
-0.717369
-0.740097
-0.770697
-0.80856
-0.852605
-0.896655
-0.965058
-1.01733
-1.05908
-1.08742
-1.08877
-1.02424
-1.09214
-1.09612
-1.09221
-1.05971
-1.02508
-1.01225
-0.612653
2.43588
26.2934
-0.618011
-0.620377
-0.612353
-0.624135
-0.648017
-0.653676
-0.661502
-0.668169
-0.673105
-0.676165
-0.677855
-0.680813
-0.680456
-0.683609
-0.69566
-0.690732
-0.704395
-0.712033
-0.728103
-0.745085
-0.765408
-0.793026
-0.827223
-0.866119
-0.908833
-0.956024
-0.999805
-1.03673
-1.04642
-0.997319
-0.991935
-1.00655
-1.01014
-0.999588
-0.968506
-0.922914
-0.763171
-0.783633
-0.648307
4.5418
-0.656644
-0.651376
-0.66101
-0.670648
-0.675338
-0.682858
-0.687449
-0.691425
-0.69297
-0.693456
-0.693623
-0.695959
-0.692938
-0.720218
-0.718692
-0.724701
-0.73027
-0.740688
-0.752884
-0.766131
-0.78398
-0.807901
-0.83593
-0.866357
-0.89821
-0.929822
-0.957073
-0.973326
-0.956202
-0.946401
-0.938657
-0.932477
-0.930081
-0.917252
-0.902291
-0.850769
-0.801185
-0.776699
-0.762371
-0.710617
-0.696316
-0.688982
-0.692017
-0.699435
-0.710187
-0.700813
-0.709942
-0.721635
-0.723345
-0.725818
-0.728644
-0.724663
-0.743824
-0.740931
-0.74903
-0.752316
-0.757541
-0.769529
-0.776731
-0.78654
-0.799876
-0.817473
-0.837318
-0.857814
-0.877648
-0.893531
-0.902265
-0.901924
-0.885994
-0.876502
-0.873232
-0.864712
-0.872988
-0.8743
-0.882044
-0.871065
-0.851721
-0.837143
-0.817742
-0.789083
-0.715121
-0.717462
-0.722288
-0.728831
-0.73477
-0.732014
-0.730467
-0.754053
-0.754049
-0.761396
-0.756895
-0.76345
-0.776182
-0.77802
-0.78406
-0.785066
-0.790222
-0.79982
-0.805103
-0.813588
-0.822867
-0.832038
-0.840382
-0.848467
-0.853836
-0.852312
-0.843284
-0.827917
-0.819055
-0.804155
-0.803494
-0.811817
-0.837018
-0.849946
-0.868721
-0.891384
-0.911602
-0.916042
-0.89247
-0.863506
-0.737406
-0.744602
-0.751402
-0.758829
-0.76759
-0.747569
-0.765335
-0.776715
-0.780529
-0.795604
-0.795575
-0.804246
-0.810204
-0.81425
-0.818541
-0.822364
-0.828304
-0.831279
-0.839309
-0.847338
-0.853282
-0.859337
-0.861727
-0.857628
-0.847177
-0.832136
-0.817191
-0.793955
-0.774669
-0.765224
-0.721665
-0.75001
-0.814289
-0.836235
-0.86144
-0.88984
-0.920139
-0.936549
-0.917397
-0.903501
-0.756811
-0.766789
-0.777209
-0.789376
-0.798811
-0.791819
-0.805971
-0.812476
-0.81688
-0.832572
-0.835193
-0.846241
-0.847244
-0.848509
-0.851577
-0.855714
-0.859979
-0.866174
-0.865975
-0.879776
-0.887299
-0.892046
-0.873947
-0.863133
-0.860225
-0.824759
-0.798976
-0.786686
-0.770428
-0.7614
-0.764035
-0.776373
-0.798538
-0.824011
-0.849688
-0.8747
-0.896257
-0.90782
-0.903813
-0.898086
-0.791283
-0.800214
-0.814224
-0.825104
-0.833033
-0.839275
-0.853677
-0.864089
-0.868289
-0.880645
-0.87477
-0.887711
-0.884501
-0.882607
-0.882083
-0.883652
-0.886742
-0.88907
-0.89248
-0.904853
-0.906521
-0.900806
-0.87283
-0.82775
-0.815207
-0.804414
-0.786759
-0.764038
-0.756012
-0.769869
-0.778969
-0.792896
-0.804307
-0.826127
-0.845392
-0.862027
-0.875568
-0.883712
-0.885484
-0.880379
-0.845211
-0.853043
-0.866046
-0.872751
-0.878871
-0.894218
-0.905857
-0.920897
-0.932701
-0.939481
-0.940158
-0.935176
-0.923935
-0.912834
-0.905275
-0.900793
-0.895082
-0.895118
-0.89424
-0.891771
-0.886809
-0.878985
-0.865646
-0.867478
-0.843506
-0.795491
-0.769414
-0.769586
-0.755046
-0.763928
-0.797432
-0.810891
-0.835918
-0.85428
-0.863577
-0.872
-0.878273
-0.880227
-0.881988
-0.873288
-0.888784
-0.899418
-0.918066
-0.915174
-0.927358
-0.946706
-0.960965
-0.980435
-0.99886
-1.01196
-1.02138
-1.014
-0.972183
-0.95047
-0.932024
-0.922781
-0.906578
-0.875441
-0.881144
-0.894657
-0.883589
-0.872361
-0.854152
-0.834612
-0.831014
-0.876139
-0.848289
-0.767198
-0.786275
-0.798633
-0.810921
-0.836881
-0.851288
-0.87939
-0.88638
-0.890144
-0.892375
-0.895475
-0.898082
-0.890968
-0.939306
-0.94864
-0.958583
-0.965188
-0.977676
-0.995171
-1.01634
-1.04833
-1.07289
-1.10035
-1.13309
-1.14805
-1.08684
-1.01183
-0.999214
-0.957487
-0.855601
-0.774861
-0.774267
-0.817768
-0.926539
-0.941161
-0.911593
-0.887519
-0.878208
-0.867598
-0.846876
-0.81997
-0.751247
-0.875394
-0.86439
-0.870878
-0.888051
-0.893461
-0.907392
-0.91162
-0.916144
-0.919846
-0.922196
-0.915377
-0.961313
-0.979305
-0.986419
-1.00128
-1.01969
-1.04173
-1.06806
-1.11159
-1.14469
-1.18405
-1.23545
-1.27793
-1.07901
-1.10729
-1.06451
-1.03758
-0.984168
-0.955782
-0.950549
-0.95234
-0.922551
-0.810965
-0.821578
-0.766542
-0.87149
-0.936744
-0.902306
-0.913344
-0.740599
-0.919398
-0.910988
-0.913026
-0.917886
-0.927571