/*--------------------------------*- C++ -*----------------------------------*\
  =========                 |
  \\      /  F ield         | OpenFOAM: The Open Source CFD Toolbox
   \\    /   O peration     | Website:  https://openfoam.org
    \\  /    A nd           | Version:  8
     \\/     M anipulation  |
\*---------------------------------------------------------------------------*/
FoamFile
{
    version     2.0;
    format      ascii;
    class       surfaceScalarField;
    location    "3.55";
    object      alphaPhi0.water;
}
// * * * * * * * * * * * * * * * * * * * * * * * * * * * * * * * * * * * * * //

dimensions      [0 3 -1 0 0 0 0];

internalField   nonuniform List<scalar> 
18095
(
1.98363e-08
-1.7202e-07
1.52183e-07
2.31641e-08
-1.97725e-07
1.94397e-07
2.01556e-08
-2.06164e-07
2.09173e-07
1.23097e-08
-2.11392e-07
2.19238e-07
1.50778e-09
-2.13584e-07
2.24385e-07
-1.04013e-08
-2.1311e-07
2.25019e-07
-2.00451e-08
-2.10149e-07
2.19793e-07
-2.31858e-08
-2.05921e-07
2.09061e-07
-1.98173e-08
-1.97865e-07
1.94496e-07
-1.72071e-07
1.52254e-07
1.55367e-08
-1.87556e-07
1.59805e-08
-1.98169e-07
1.17455e-08
-2.01929e-07
5.63577e-09
-2.05283e-07
-1.19857e-09
-2.06749e-07
-7.33697e-09
-2.06972e-07
-1.22384e-08
-2.05247e-07
-1.59054e-08
-2.02254e-07
-1.55219e-08
-1.98249e-07
-1.87593e-07
6.82662e-09
-1.94383e-07
8.41474e-09
-1.99757e-07
7.45435e-09
-2.00969e-07
4.47305e-09
-2.02301e-07
3.47502e-10
-2.02624e-07
-3.82234e-09
-2.02802e-07
-7.02607e-09
-2.02044e-07
-8.33321e-09
-2.00946e-07
-6.81395e-09
-1.99768e-07
-1.94407e-07
4.54092e-09
-1.98924e-07
4.72676e-09
-1.99943e-07
3.65521e-09
-1.99897e-07
1.82339e-09
-2.0047e-07
-6.51101e-11
-2.00735e-07
-2.03717e-09
-2.0083e-07
-3.68521e-09
-2.00396e-07
-4.71433e-09
-1.99917e-07
-4.52152e-09
-1.99961e-07
-1.98928e-07
1.07625e-09
1.13354e-09
1.23626e-09
7.66671e-10
3.1488e-11
-7.98256e-10
-1.19378e-09
-1.1111e-09
-1.07169e-09
-2.77684e-08
-1.96375e-07
2.24143e-07
-3.04426e-08
-1.98967e-07
2.01641e-07
-2.58794e-08
-2.0063e-07
1.96066e-07
-1.54792e-08
-2.00981e-07
1.90581e-07
-1.44787e-09
-2.01925e-07
1.87894e-07
1.28431e-08
-2.0199e-07
1.87699e-07
2.46763e-08
-2.02035e-07
1.90201e-07
3.01207e-08
-2.01611e-07
1.96167e-07
2.77432e-08
-1.99153e-07
2.0153e-07
-1.96334e-07
2.24077e-07
-9.60842e-09
-1.86766e-07
-1.51422e-08
-1.93433e-07
-1.26562e-08
-2.03116e-07
-5.35409e-09
-2.08283e-07
1.11017e-09
-2.08389e-07
7.45367e-09
-2.08334e-07
1.41056e-08
-2.08687e-07
1.54709e-08
-2.02977e-07
9.61548e-09
-1.93297e-07
-1.86718e-07
-1.04622e-08
-1.76304e-07
-8.4391e-09
-1.95456e-07
-6.41315e-09
-2.05142e-07
-3.86073e-09
-2.10835e-07
1.13778e-09
-2.13388e-07
5.51041e-09
-2.12706e-07
6.44072e-09
-2.09617e-07
8.26148e-09
-2.04797e-07
1.0349e-08
-1.95385e-07
-1.76369e-07
-6.56726e-09
-1.69737e-07
-8.77152e-09
-1.93252e-07
-8.85e-09
-2.05063e-07
-5.27494e-09
-2.14411e-07
-2.04661e-09
-2.16616e-07
2.02897e-09
-2.16782e-07
7.46722e-09
-2.15055e-07
8.07104e-09
-2.05401e-07
6.33311e-09
-1.93647e-07
-1.70036e-07
-1.75537e-08
-1.64086e-08
-1.22991e-08
-7.47124e-09
2.98273e-10
8.53538e-09
1.32729e-08
1.69331e-08
1.77826e-08
3.54368e-08
-1.5678e-07
1.21344e-07
3.84108e-08
-1.97692e-07
1.94717e-07
2.76153e-08
-2.09574e-07
2.2037e-07
1.20525e-08
-2.15518e-07
2.31081e-07
-6.16076e-09
-2.17415e-07
2.35628e-07
-2.326e-08
-2.17682e-07
2.34781e-07
-3.5427e-08
-2.16731e-07
2.28899e-07
-4.04529e-08
-2.11304e-07
2.1633e-07
-3.44687e-08
-1.99295e-07
1.9331e-07
-1.58009e-07
1.2354e-07
1.77491e-08
-1.7453e-07
2.12133e-08
-2.01156e-07
1.90024e-08
-2.07363e-07
1.28701e-08
-2.09386e-07
3.73878e-09
-2.08283e-07
-5.68381e-09
-2.08259e-07
-1.39321e-08
-2.08483e-07
-1.81603e-08
-2.07076e-07
-1.64803e-08
-2.00975e-07
-1.74489e-07
9.05759e-09
-1.83587e-07
9.17898e-09
-2.01277e-07
7.71433e-09
-2.05899e-07
3.25409e-09
-2.04926e-07
-3.991e-10
-2.0463e-07
-3.98186e-09
-2.04676e-07
-8.26711e-09
-2.04198e-07
-9.44733e-09
-2.05895e-07
-9.0303e-09
-2.01392e-07
-1.8352e-07
7.54788e-09
-1.91135e-07
5.86113e-09
-1.9959e-07
6.44812e-09
-2.06486e-07
8.12278e-10
-1.9929e-07
-9.21041e-10
-2.02897e-07
-2.53479e-09
-2.03062e-07
-6.58069e-09
-2.00152e-07
-5.61579e-09
-2.0686e-07
-7.5312e-09
-1.99476e-07
-1.91051e-07
3.30081e-08
3.50589e-08
2.46396e-08
1.59302e-08
9.27023e-10
-1.44362e-08
-2.43867e-08
-3.50802e-08
-3.30261e-08
-3.35765e-07
2.26233e-08
3.12902e-07
-3.5617e-07
2.28903e-08
-3.68499e-07
1.23075e-08
-3.65984e-07
-2.53674e-09
-3.51141e-07
-1.48688e-08
-3.2508e-07
-2.70276e-08
-2.91532e-07
-3.35579e-08
-2.56373e-07
-3.51814e-08
-2.21577e-07
-3.48366e-08
-3.50491e-08
-1.86526e-07
-3.61432e-07
2.97543e-08
3.54026e-07
-3.54764e-07
1.62353e-08
-3.3969e-07
-2.76045e-09
-3.20758e-07
-2.14719e-08
-2.95185e-07
-3.87802e-08
-2.65859e-07
-5.67048e-08
-2.32086e-07
-6.7679e-08
-1.98748e-07
-6.88721e-08
-1.72614e-07
-6.13473e-08
-5.33145e-08
-1.55183e-07
-4.46931e-07
1.46305e-08
4.62054e-07
-4.17892e-07
-1.2804e-08
-3.72739e-07
-4.79457e-08
-3.17685e-07
-7.65285e-08
-2.56687e-07
-9.97795e-08
-1.94015e-07
-1.19361e-07
-1.36216e-07
-1.25444e-07
-8.10202e-08
-1.24558e-07
-3.85159e-08
-1.06182e-07
-8.1207e-08
-1.06606e-08
-6.12615e-07
-2.01379e-09
6.2923e-07
-5.64758e-07
-5.63596e-08
-5.07406e-07
-1.08676e-07
-4.31191e-07
-1.52759e-07
-3.41447e-07
-1.89524e-07
-2.40599e-07
-2.2021e-07
-1.46106e-07
-2.1993e-07
-5.6064e-08
-2.13285e-07
1.44308e-08
-1.75746e-07
-1.43187e-07
7.63848e-08
-8.55505e-07
-6.44183e-08
9.12012e-07
-8.30248e-07
-1.21128e-07
-7.55381e-07
-1.83528e-07
-6.66997e-07
-2.41144e-07
-5.66322e-07
-2.90199e-07
-4.54134e-07
-3.32411e-07
-3.35038e-07
-3.39927e-07
-2.11917e-07
-3.21276e-07
-1.00015e-07
-2.45208e-07
-1.93596e-07
-2.72368e-09
-1.10708e-06
-1.41003e-07
1.18423e-06
-1.04737e-06
-1.81243e-07
-9.85002e-07
-2.45889e-07
-9.12552e-07
-3.13578e-07
-8.31518e-07
-3.71229e-07
-7.44935e-07
-4.19876e-07
-6.31488e-07
-4.54577e-07
-4.65225e-07
-4.62121e-07
-2.50602e-07
-3.92698e-07
-3.27408e-07
-1.36138e-07
-1.03372e-06
-1.68236e-07
1.16667e-06
-9.69146e-07
-1.80916e-07
-9.85524e-07
-2.46557e-07
-9.43998e-07
-3.54483e-07
-8.88973e-07
-4.27554e-07
-8.27098e-07
-4.82923e-07
-7.47507e-07
-5.3438e-07
-6.33905e-07
-5.75572e-07
-4.70894e-07
-6.014e-07
-5.64277e-07
-2.63166e-07
-7.22388e-07
-2.25796e-07
8.09839e-07
-6.74214e-07
-2.41871e-07
-6.49794e-07
-2.83757e-07
-6.52835e-07
-3.21353e-07
-7.06237e-07
-3.72998e-07
-7.04077e-07
-4.85286e-07
-6.65703e-07
-5.7281e-07
-6.07485e-07
-6.33743e-07
-5.22916e-07
-6.85953e-07
-7.02334e-07
-3.84867e-07
-4.59903e-07
-2.86576e-07
4.96516e-07
-4.14231e-07
-3.0982e-07
-3.73059e-07
-3.44986e-07
-3.56431e-07
-3.62196e-07
-3.75462e-07
-3.78183e-07
-4.44654e-07
-4.34e-07
-4.64731e-07
-5.52665e-07
-4.70804e-07
-6.27604e-07
-4.5303e-07
-7.03679e-07
-7.48451e-07
-4.06897e-07
-4.18251e-07
-4.29877e-07
4.80509e-07
-3.71582e-07
-4.29386e-07
-3.31954e-07
-4.32157e-07
-2.88676e-07
-4.38067e-07
-2.56162e-07
-4.33589e-07
-3.0159e-07
-4.71133e-07
-3.47278e-07
-5.43053e-07
-3.68372e-07
-6.06462e-07
-3.93491e-07
-6.78484e-07
-7.41898e-07
-3.99922e-07
-4.01345e-07
-4.94017e-07
4.65544e-07
-3.43935e-07
-4.86764e-07
-3.07205e-07
-4.6884e-07
-2.87293e-07
-4.57933e-07
-3.01497e-07
-4.60794e-07
-3.22108e-07
-4.94481e-07
-3.3036e-07
-5.37281e-07
-3.41441e-07
-5.95304e-07
-3.68583e-07
-6.51173e-07
-7.09541e-07
-4.00693e-07
-3.05633e-07
-4.91295e-07
3.02985e-07
-2.97512e-07
-4.94838e-07
-2.84952e-07
-4.81357e-07
-2.83393e-07
-4.59446e-07
-2.89067e-07
-4.55073e-07
-3.1602e-07
-4.67476e-07
-3.32508e-07
-5.20682e-07
-3.44939e-07
-5.82656e-07
-3.68309e-07
-6.27545e-07
-6.70584e-07
-4.07839e-07
-2.40677e-07
-4.67815e-07
2.17481e-07
-2.53014e-07
-4.82409e-07
-2.56451e-07
-4.77873e-07
-2.66352e-07
-4.49501e-07
-2.89034e-07
-4.32338e-07
-3.14011e-07
-4.42387e-07
-3.37067e-07
-4.97335e-07
-3.60387e-07
-5.58839e-07
-3.87122e-07
-6.01214e-07
-6.36658e-07
-4.20803e-07
-1.8634e-07
-3.76576e-07
1.3758e-07
-2.10734e-07
-4.5755e-07
-2.25288e-07
-4.63207e-07
-2.40959e-07
-4.33777e-07
-2.68923e-07
-4.0398e-07
-2.99948e-07
-4.06945e-07
-3.28406e-07
-4.6081e-07
-3.61784e-07
-4.94885e-07
-3.91534e-07
-5.70943e-07
-5.99175e-07
-4.27701e-07
-9.43143e-08
-1.96848e-07
3.36438e-08
-1.51771e-07
-3.1765e-07
-1.70834e-07
-4.43442e-07
-1.75383e-07
-4.29095e-07
-1.98417e-07
-3.79785e-07
-2.2221e-07
-3.33266e-07
-2.20123e-07
-2.8739e-07
-2.47738e-07
-2.81572e-07
-3.4707e-07
-3.85426e-07
-5.47301e-07
-3.94726e-07
4.58533e-08
-1.79853e-07
-8.6701e-08
-2.61402e-10
-2.09379e-07
-3.99173e-08
-2.67209e-07
-5.56812e-08
-4.11692e-07
-5.67635e-08
-3.80122e-07
-6.32912e-08
-3.17596e-07
-8.92553e-08
-2.08652e-07
-1.37986e-07
-2.42285e-07
-1.82341e-07
-2.89855e-07
-3.3814e-07
-2.62593e-07
2.50834e-07
-2.41918e-07
-2.90829e-07
1.835e-07
-1.85847e-07
1.50872e-07
-1.90453e-07
1.26875e-07
-2.85066e-07
9.95798e-08
-3.42123e-07
6.39467e-08
-3.30667e-07
3.19524e-08
-2.44588e-07
-2.44274e-09
-2.17701e-07
-5.40091e-08
-2.481e-07
-2.98269e-07
-1.03691e-07
4.70467e-07
-2.50114e-07
-5.30837e-07
3.27449e-07
-2.16914e-07
2.60573e-07
-1.54992e-07
3.13005e-07
-2.06158e-07
2.57787e-07
-2.79506e-07
2.39909e-07
-3.0539e-07
1.81521e-07
-2.99905e-07
1.21051e-07
-3.03489e-07
1.1006e-07
-2.4692e-07
-2.57792e-07
6.30735e-08
5.71077e-07
-2.48742e-07
-5.72618e-07
4.56862e-07
-2.37049e-07
3.96407e-07
-1.42727e-07
4.05656e-07
-1.43823e-07
3.59022e-07
-2.1924e-07
3.32377e-07
-2.71346e-07
3.41435e-07
-2.99314e-07
3.64067e-07
-3.19509e-07
2.68861e-07
-3.32216e-07
-3.5786e-07
1.92936e-07
5.7702e-07
-2.47292e-07
-5.78692e-07
5.73562e-07
-2.33411e-07
2.56312e-07
-1.51563e-07
3.21503e-07
-6.55776e-08
4.20232e-07
-8.36646e-08
4.21732e-07
-1.40132e-07
4.28198e-07
-2.07107e-07
4.43883e-07
-3.2094e-07
4.73636e-07
-3.52192e-07
-3.67647e-07
4.9366e-07
5.63039e-07
-2.45023e-07
-5.65115e-07
5.12873e-07
-1.91342e-07
2.60987e-07
-5.23267e-08
3.28476e-08
-8.91356e-09
8.18467e-08
-1.67733e-08
1.62808e-07
-3.84974e-08
2.99481e-07
-4.57675e-08
4.93306e-07
-6.74875e-08
5.68932e-07
-2.66617e-07
-3.9344e-07
5.98334e-07
2.40226e-07
-6.57663e-08
-4.11765e-07
7.78261e-08
-2.40356e-08
3.85917e-08
-1.4924e-08
4.3052e-08
-1.60017e-08
4.87599e-08
-2.53245e-08
6.29193e-08
-5.5504e-08
8.18098e-08
-6.9069e-08
1.57238e-07
-1.02308e-07
6.97584e-07
-2.8324e-07
-4.33708e-07
7.4965e-07
2.67215e-08
-5.71622e-09
-8.72143e-08
9.01246e-09
-7.29818e-09
1.10906e-08
-1.83766e-08
3.14277e-08
-3.81702e-08
6.60573e-08
-6.25817e-08
1.13481e-07
-1.07355e-07
1.97938e-07
-1.60155e-07
4.83687e-07
-3.34167e-07
9.0207e-07
-4.85369e-07
-5.10094e-07
9.90055e-07
-2.12136e-08
1.25057e-08
2.54898e-09
-2.21806e-08
-6.77391e-09
1.17877e-09
-4.46916e-08
8.43715e-08
-1.51523e-07
2.91951e-07
-4.36467e-07
5.68217e-07
-6.17446e-07
7.9265e-07
-5.97921e-07
9.77887e-07
-5.6924e-07
1.0822e-06
-5.78494e-07
-5.79066e-07
1.16213e-06
-3.16329e-08
8.65106e-09
3.50449e-08
-1.48136e-08
-7.52964e-08
1.31756e-07
-3.8492e-07
4.35427e-07
-6.78259e-07
6.1218e-07
-8.10458e-07
7.84186e-07
-7.60647e-07
9.08609e-07
-6.95477e-07
9.93648e-07
-6.36217e-07
1.06844e-06
-6.40736e-07
-5.8103e-07
1.08857e-06
-5.06905e-09
-6.71997e-08
3.11659e-08
1.10996e-07
-2.04626e-07
2.94109e-07
-4.06963e-07
4.95286e-07
-8.55348e-07
6.24622e-07
-9.36662e-07
6.28805e-07
-7.5391e-07
5.91241e-07
-5.64716e-07
5.86151e-07
-5.18285e-07
5.49541e-07
-4.96211e-07
-4.58558e-07
4.62479e-07
9.71267e-08
-1.35684e-07
-3.30954e-08
7.46679e-08
-1.59465e-07
1.20711e-07
-1.43809e-07
3.36716e-07
-6.8593e-07
3.03836e-07
-9.37501e-07
1.90378e-07
-5.0784e-07
1.26785e-07
-4.61592e-07
1.25206e-07
-4.73248e-07
1.01053e-07
-5.68991e-07
-5.89467e-07
6.88738e-08
1.55731e-07
-1.33061e-07
-1.43307e-07
5.11067e-08
-9.22005e-08
3.60876e-08
-1.50636e-07
1.86598e-07
-6.26687e-07
8.672e-08
-8.70596e-07
2.63535e-08
-4.62483e-07
1.00614e-08
-4.6031e-07
-4.08436e-08
-5.89848e-07
-9.90165e-08
-5.95348e-07
-5.58129e-07
-1.29939e-07
1.1047e-07
-6.57636e-08
-1.90044e-07
4.71161e-08
-6.25907e-08
3.2025e-08
-1.57391e-07
1.33978e-07
-6.06522e-07
9.77195e-08
-8.37108e-07
1.81542e-08
-4.03205e-07
-6.03e-08
-4.15433e-07
-1.49831e-07
-5.6581e-07
-2.10508e-07
-5.34277e-07
-5.30114e-07
-2.38184e-07
4.19225e-08
-8.00533e-08
-8.59513e-08
3.19104e-08
-7.73298e-08
5.76264e-08
-2.04953e-07
1.42146e-07
-8.01059e-07
1.13759e-07
-8.02684e-07
4.3732e-09
-4.31936e-07
-1.03535e-07
-3.46684e-07
-1.77841e-07
-4.91111e-07
-2.41889e-07
-4.69885e-07
-4.74542e-07
-2.97067e-07
6.28782e-08
-1.51279e-08
-1.48509e-07
3.04283e-08
-7.41177e-08
4.01661e-08
-3.46502e-07
3.29464e-08
-9.9698e-07
2.30016e-08
-7.8643e-07
-4.56762e-08
-3.8415e-07
-1.33199e-07
-2.99064e-07
-1.847e-07
-4.31155e-07
-2.3478e-07
-4.19412e-07
-4.15812e-07
-2.92918e-07
-7.39053e-08
2.36805e-08
3.44841e-08
-5.56896e-08
-9.6252e-08
-1.48336e-07
-5.85463e-07
-1.40603e-07
-1.06089e-06
-9.28064e-08
-8.28212e-07
-6.28108e-08
-4.13752e-07
-1.30136e-07
-2.71709e-07
-1.71201e-07
-4.0054e-07
-2.11675e-07
-3.78347e-07
-3.62234e-07
-2.64425e-07
-5.6587e-08
4.19723e-08
3.87883e-08
-8.17544e-08
-7.19455e-08
-3.57466e-07
-5.11888e-07
-3.45469e-07
-1.06441e-06
-2.1296e-07
-9.53647e-07
-1.36782e-07
-4.87862e-07
-1.2334e-07
-3.25878e-07
-2.0544e-07
-3.41899e-07
-2.59067e-07
-3.23891e-07
-3.20646e-07
-2.9965e-07
-4.68037e-08
3.04594e-08
5.84266e-08
-6.66617e-08
-5.15944e-08
-3.2671e-07
-1.85571e-07
-4.50968e-07
-8.75104e-07
-2.92727e-07
-1.10341e-06
-1.26531e-07
-6.423e-07
-2.02068e-07
-2.75304e-07
-2.91149e-07
-2.73199e-07
-3.25218e-07
-2.91648e-07
-2.79233e-07
-3.64356e-07
-1.403e-08
2.05926e-08
2.3862e-08
-3.31592e-08
-3.23977e-08
-1.00883e-07
-1.15526e-07
-3.44613e-07
-4.83589e-07
-3.01139e-07
-1.12319e-06
-6.59518e-08
-8.8664e-07
-1.67926e-07
-1.91233e-07
-2.73201e-07
-1.88468e-07
-3.33296e-07
-2.16282e-07
-2.2309e-07
-3.87617e-07
4.26967e-08
1.20237e-08
-7.19766e-09
1.36853e-08
-1.06418e-08
-2.73533e-09
-1.12003e-07
-1.21214e-07
-3.6512e-07
-1.24399e-07
-1.01873e-06
-2.47397e-08
-8.63138e-07
-1.20909e-07
-9.24572e-08
-2.21027e-07
-9.49311e-08
-3.08233e-07
-1.32592e-07
-1.51155e-07
-3.84187e-07
5.23728e-08
2.98717e-09
-4.33624e-08
1.05956e-07
-5.42635e-09
2.80852e-08
-1.02652e-07
-4.11655e-08
-3.16896e-07
-3.73862e-08
-1.01249e-06
-8.44062e-09
-8.94378e-07
-8.92599e-08
-1.15103e-08
-1.60304e-07
-2.38333e-08
-2.22921e-07
-6.05779e-08
-7.2119e-08
-3.06475e-07
2.19152e-08
9.40866e-09
-2.8358e-08
6.8927e-08
-1.2272e-08
2.19379e-08
-3.03358e-08
-1.53367e-08
-3.08995e-07
-2.19492e-08
-1.01552e-06
-6.35593e-09
-9.21528e-07
-8.95981e-08
6.62066e-08
-1.40359e-07
2.69292e-08
-1.78576e-07
-1.51474e-08
-2.39626e-08
-2.22766e-07
-7.42289e-08
4.81538e-08
7.53467e-08
-2.92294e-08
-3.89025e-08
-3.31119e-08
-1.81693e-08
-8.74914e-08
-2.95203e-07
-5.32991e-08
-1.06786e-06
-1.99414e-08
-1.05014e-06
-7.35736e-08
1.04279e-07
-1.27149e-07
8.05057e-08
-1.79474e-07
3.71789e-08
1.89744e-08
-2.22409e-07
-4.27809e-08
-2.02961e-08
1.07012e-07
-2.13508e-09
-8.36992e-08
-1.22963e-08
-2.42556e-08
-5.22459e-08
-2.50152e-07
-3.35866e-08
-1.11715e-06
-1.85685e-08
-1.12895e-06
-2.70718e-08
1.0386e-07
-7.46356e-08
1.28071e-07
-1.10057e-07
7.26019e-08
5.2729e-08
-1.4381e-07
1.6025e-07
-2.18657e-08
-1.52811e-07
1.09024e-07
-4.82643e-08
1.80645e-08
-1.18527e-08
-5.94021e-08
-1.77277e-07
-4.41513e-08
-1.11618e-06
-2.90618e-08
-9.60928e-07
-1.91052e-08
8.81961e-08
-3.69319e-08
1.459e-07
-2.22142e-08
5.7886e-08
4.71419e-08
-2.27229e-08
3.01453e-07
-4.52295e-08
-2.77966e-07
2.77946e-07
-2.4633e-08
1.90595e-07
-1.01676e-08
-4.33063e-08
-6.46835e-08
-1.81811e-08
-9.99435e-07
-8.89439e-09
-9.0796e-07
2.90037e-08
2.21992e-08
2.32592e-08
1.36995e-07
5.35569e-08
2.7531e-08
2.57047e-08
5.42663e-08
4.16611e-07
-5.91939e-08
-4.0252e-07
3.99089e-07
-6.98773e-09
2.11059e-07
2.43378e-08
3.07149e-08
-8.20987e-09
9.31903e-09
-8.49788e-07
1.24335e-09
-8.43333e-07
1.84134e-08
-1.18428e-09
3.50409e-08
5.83925e-08
-1.63676e-09
4.22468e-08
3.67407e-09
3.45655e-09
2.2918e-07
8.02836e-09
-3.93474e-07
2.48215e-07
-1.6309e-08
1.60264e-07
3.68397e-08
1.97824e-08
2.44415e-08
1.44863e-08
-8.06966e-07
2.11956e-08
-8.13805e-07
4.57759e-09
-1.01126e-10
1.2752e-08
6.87195e-09
-1.35268e-09
1.12899e-08
-3.94942e-08
2.55337e-08
7.86516e-09
9.54608e-11
-7.1342e-10
7.03929e-09
4.57329e-10
0
1.39995e-08
1.26067e-08
-4.67341e-10
4.50347e-10
-8.05109e-07
-1.48563e-09
-8.01456e-07
-1.69141e-09
-4.18813e-11
-2.2556e-08
3.93782e-09
-1.1394e-08
-3.35029e-09
-1.86566e-08
-4.15247e-09
-8.11791e-10
4.86591e-10
-3.69544e-10
-8.50867e-09
4.23053e-09
-1.47365e-10
2.47739e-09
-4.51413e-09
-5.17767e-10
-1.16368e-08
-8.72205e-07
-3.36358e-11
-8.76692e-07
0
-2.33301e-10
2.74566e-09
3.25716e-09
3.41686e-10
0
-1.31388e-09
1.02875e-09
-1.32841e-09
6.85708e-10
1.68903e-10
-1.61134e-09
3.87009e-10
-3.28358e-11
3.7648e-10
1.1431e-10
-1.76396e-09
-1.17082e-09
-9.67812e-07
-9.67965e-10
-9.62798e-07
0
-1.34997e-09
3.61311e-09
7.10035e-10
1.50684e-09
0
-5.68785e-11
8.63115e-11
-4.20469e-10
1.37924e-10
2.88155e-10
-2.81934e-10
9.05958e-11
-9.09669e-12
4.52512e-11
2.15685e-10
-2.51077e-09
-7.26171e-09
-1.0082e-06
-2.97583e-09
-1.00945e-06
0
-4.77867e-09
3.76738e-10
7.40846e-12
2.33715e-10
2.70273e-11
4.80478e-12
5.51572e-11
-9.03422e-11
2.41912e-11
1.15838e-10
-1.40271e-11
2.23605e-11
6.57539e-12
-4.6601e-12
3.05467e-09
-1.03869e-08
1.93046e-09
-1.00667e-06
-2.41472e-09
-1.01063e-06
2.22044e-11
-1.42509e-08
1.38205e-11
-3.65083e-11
9.35438e-12
5.56e-12
2.1053e-12
1.13572e-11
-1.39986e-11
2.04042e-11
1.55248e-11
-3.79923e-12
1.20082e-11
-1.2222e-11
-1.14448e-11
9.80884e-09
-3.34077e-08
1.80804e-08
-9.93776e-07
9.23331e-09
-9.99574e-07
0
-5.23133e-08
1.51298e-11
-1.62383e-10
1.1306e-12
3.41418e-12
6.80669e-12
7.80301e-13
-4.98511e-13
1.90591e-11
2.5958e-13
8.33657e-13
8.38333e-12
7.86887e-11
-9.06225e-11
2.73829e-08
-6.40706e-08
5.01649e-08
-9.85252e-07
4.98556e-08
-1.00049e-06
1.39713e-10
-6.08052e-08
9.11923e-13
-1.0947e-11
2.0667e-13
2.32333e-12
4.41297e-12
3.60957e-12
-2.14312e-12
1.75493e-11
1.44664e-12
-1.71658e-12
6.37552e-12
-8.24368e-11
-1.21843e-11
-2.09737e-08
-6.44642e-08
-1.92856e-08
-9.87789e-07
-1.65801e-08
-9.90533e-07
-1.10887e-10
-7.57123e-08
0
-6.96399e-12
8.69756e-13
3.37949e-13
2.52819e-12
3.31539e-12
-4.06063e-11
4.6874e-11
8.13301e-12
0
6.66284e-11
1.15131e-11
-3.47092e-11
3.44197e-09
-6.94561e-08
-3.03616e-09
-9.81273e-07
-4.76371e-10
-9.83045e-07
-2.01442e-11
-7.31282e-08
0
-6.93383e-12
6.51919e-13
2.42275e-15
1.71385e-12
1.5095e-12
-6.01886e-11
1.86428e-10
3.91044e-11
0
3.80839e-12
0
-7.0674e-11
-5.64562e-09
-6.93368e-08
-1.40165e-08
-9.7312e-07
-9.78877e-09
-9.75317e-07
-1.71893e-11
-6.27566e-08
-2.15253e-13
-1.77643e-11
1.16605e-13
-2.7175e-13
1.06988e-12
7.05509e-13
3.66416e-11
1.2853e-10
5.98464e-11
0
4.52917e-11
-4.36589e-11
-1.59025e-11
-1.87662e-08
-6.00387e-08
-2.24749e-08
-9.62834e-07
-1.62564e-08
-9.63154e-07
-7.83933e-11
-6.04563e-08
-6.05574e-13
-9.47427e-11
2.63607e-14
-1.66739e-12
1.402e-12
5.20518e-12
6.5066e-11
7.88704e-11
-4.64334e-12
6.13313e-12
5.65787e-11
1.071e-10
-9.82826e-12
1.22864e-08
-3.59417e-08
2.18658e-08
-9.50335e-07
1.29112e-08
-9.51653e-07
0
-5.51281e-08
-4.07392e-12
-2.03897e-10
-3.72865e-11
3.66596e-12
1.8982e-11
-3.03312e-11
5.65153e-12
2.81652e-11
-8.1821e-12
6.19075e-12
4.11893e-12
2.13935e-12
-1.13979e-11
2.97233e-08
-2.58897e-08
5.89903e-08
-9.36848e-07
5.25093e-08
-9.51401e-07
1.99019e-10
-2.25162e-08
0
-4.88475e-12
-2.06499e-11
1.11694e-11
2.49469e-11
-1.48059e-11
-2.70149e-12
1.82446e-12
1.45272e-11
1.16542e-12
8.32179e-15
8.31087e-12
-2.06637e-11
1.33571e-08
-2.05865e-08
1.94634e-08
-9.3614e-07
4.33327e-09
-9.39091e-07
-1.11379e-12
-1.07503e-08
-1.43528e-12
-4.62715e-12
-3.07216e-12
1.70924e-12
3.28476e-11
-1.46959e-11
-8.77554e-13
5.36592e-13
2.98687e-12
1.32744e-12
-1.49702e-12
-8.25208e-12
-9.1057e-12
-1.27494e-08
-1.24505e-08
-2.63972e-08
-9.44374e-07
-1.69436e-08
-9.37087e-07
-2.01325e-12
-1.28245e-08
-2.24775e-12
-4.39767e-12
-7.83546e-12
9.22194e-13
2.70951e-11
-1.8877e-11
0
-5.72118e-12
1.03728e-11
2.00256e-12
-1.92475e-12
3.09089e-12
-8.52831e-12
4.62404e-09
-1.63295e-08
-5.48576e-09
-9.4459e-07
-5.5353e-09
-9.45562e-07
-9.11271e-13
-1.66531e-08
-1.10376e-12
-4.21281e-12
0
3.0542e-13
4.93237e-12
-1.32194e-11
1.35915e-13
-9.07074e-12
-1.51098e-11
1.78558e-12
-1.71958e-12
2.76913e-12
-8.12159e-12
6.79883e-09
-2.56907e-08
3.65197e-09
-9.51228e-07
-2.63685e-09
-9.52937e-07
-3.55162e-13
-2.47983e-08
-5.12378e-13
-4.06306e-12
-2.3781e-13
2.32013e-14
1.07971e-12
-3.6416e-13
0
-2.24718e-12
-2.13079e-11
1.00789e-12
-8.25222e-12
2.2063e-12
-8.3977e-12
2.96275e-09
-3.66862e-08
-2.63796e-09
-9.60208e-07
-6.86678e-09
-9.57449e-07
-3.13868e-13
-3.65272e-08
-3.81927e-13
-4.00259e-12
-2.54515e-13
-1.11675e-13
1.0676e-12
-2.44868e-13
0
1.99999e-11
-4.28838e-11
7.43467e-12
-1.60567e-11
6.87299e-12
-7.5625e-12
3.76594e-09
-4.79346e-08
-3.67879e-09
-9.63109e-07
-6.42006e-09
-9.61872e-07
-4.24058e-13
-4.78281e-08
-3.20737e-13
-4.11337e-12
-6.59284e-14
-3.68943e-13
1.19967e-12
0
0
2.59427e-11
-3.41932e-11
0
-7.98171e-12
6.17915e-13
-8.04444e-12
5.35948e-09
-5.70539e-08
7.07883e-10
-9.62229e-07
-4.52712e-09
-9.61377e-07
-1.1441e-12
-5.65939e-08
-4.47983e-13
-4.81004e-12
2.56577e-13
-1.06843e-12
1.37744e-12
8.12332e-13
2.95271e-12
3.80023e-11
-2.61123e-11
0
3.69515e-12
1.0091e-12
-9.00241e-12
5.59518e-09
-6.32729e-08
8.10371e-10
-9.57071e-07
-4.70597e-09
-9.57164e-07
-7.32704e-12
-6.30579e-08
-5.89592e-12
-6.17734e-12
-6.69121e-13
-1.85135e-12
1.22032e-12
0
1.08353e-11
3.72698e-11
-5.14055e-12
6.81341e-12
1.45539e-11
6.36475e-12
-8.70952e-12
6.09761e-09
-6.77116e-08
1.17114e-09
-9.49289e-07
-5.12254e-09
-9.49907e-07
-1.68471e-11
-6.78384e-08
-1.43274e-11
-8.15777e-12
-7.28025e-13
-5.16938e-11
1.1205e-12
-1.05813e-13
-1.39362e-11
1.84406e-11
4.25559e-11
6.05764e-13
-2.76797e-12
6.87395e-13
-8.97187e-12
6.54134e-09
-7.11646e-08
1.50781e-09
-9.39997e-07
-4.92085e-09
-9.41216e-07
-2.25004e-11
-7.13104e-08
-1.27243e-11
-1.71435e-11
-5.01314e-13
-2.99901e-11
1.5432e-12
-4.71899e-13
-2.45822e-11
7.94577e-13
4.04915e-11
3.38891e-13
-2.65882e-11
6.44316e-13
-9.42545e-12
7.12178e-09
-7.49833e-08
1.61861e-09
-9.30022e-07
-6.10094e-09
-9.30309e-07
-9.66556e-11
-7.49147e-08
-1.07068e-10
-6.785e-12
-1.32194e-10
2.73691e-11
1.08003e-10
-1.16706e-10
0
6.37855e-13
0
2.64639e-12
-2.31067e-11
3.60586e-12
-1.00376e-11
6.7668e-09
-7.83386e-08
9.46301e-10
-9.19779e-07
-5.95284e-09
-9.20602e-07
-3.40131e-11
-7.83873e-08
-3.70626e-11
-4.03809e-12
-1.88933e-10
1.66981e-10
4.049e-11
-1.07024e-10
3.03957e-12
6.21309e-13
-3.21005e-12
1.16849e-11
-2.1471e-11
1.13929e-11
-8.9293e-12
9.96487e-09
-8.40522e-08
4.58939e-09
-9.09913e-07
-5.05608e-09
-9.10662e-07
-2.88878e-13
-8.32454e-08
0
-4.62951e-12
-2.28432e-11
1.10975e-10
5.41044e-11
-1.31954e-10
8.8579e-13
5.40038e-13
-8.65743e-13
6.10727e-12
-1.49849e-11
6.21446e-12
-8.45678e-12
6.62556e-09
-9.06051e-08
-7.89303e-10
-9.02877e-07
-8.08751e-09
-9.02166e-07
-2.90828e-12
-9.01772e-08
-2.60752e-12
-5.21706e-12
4.25165e-11
4.02567e-12
2.6534e-11
2.07447e-11
5.83037e-13
5.35361e-13
-6.2822e-13
1.06638e-11
-1.41259e-11
1.01573e-11
-7.648e-12
7.44992e-09
-9.97842e-08
-1.69608e-09
-8.95607e-07
-8.9583e-09
-8.95209e-07
-6.27957e-12
-9.93313e-08
-4.89903e-12
-6.81899e-12
2.33952e-12
2.99755e-12
6.65195e-11
2.42139e-11
3.3826e-13
4.64762e-13
-3.38305e-13
8.67659e-12
-1.15919e-11
8.16611e-12
-7.14361e-12
8.26571e-09
-1.10886e-07
-8.2935e-10
-8.88973e-07
-9.17805e-09
-8.88633e-07
-3.12634e-11
-1.10506e-07
-3.47049e-11
-3.61228e-12
-1.59595e-10
7.64841e-11
-6.426e-13
1.5037e-12
6.18869e-12
5.56406e-12
-2.56052e-13
9.20462e-12
-3.68191e-12
8.49643e-12
-6.63804e-12
8.52957e-09
-1.2231e-07
-4.46103e-10
-8.82119e-07
-9.1179e-09
-8.81802e-07
-1.30945e-11
-1.22027e-07
-1.46266e-11
-2.09179e-12
-6.97234e-11
8.22909e-11
-7.08747e-12
-7.51159e-13
7.46464e-12
1.7985e-11
-6.60475e-13
5.28081e-12
-2.0758e-12
4.19002e-12
-5.94499e-12
1.00451e-08
-1.33863e-07
1.14231e-09
-8.74036e-07
-9.08301e-09
-8.73365e-07
-2.8344e-13
-1.33625e-07
0
-2.37077e-12
1.69658e-11
1.27315e-12
3.66395e-13
-1.9521e-12
-3.41806e-12
8.54449e-12
7.67516e-13
9.22962e-13
-4.63722e-12
4.39577e-13
-6.04651e-12
1.07684e-08
-1.44535e-07
1.82994e-09
-8.64675e-07
-8.7133e-09
-8.64296e-07
-5.59978e-13
-1.44324e-07
-5.46732e-13
-2.38678e-12
2.07815e-13
5.24492e-13
2.65182e-13
-1.07931e-14
1.33526e-12
1.04419e-11
-8.93611e-12
3.47754e-12
-1.12167e-11
3.33971e-12
-6.12371e-12
1.33664e-08
-1.55169e-07
4.41807e-09
-8.53873e-07
-7.95451e-09
-8.53162e-07
-2.28124e-13
-1.54118e-07
-2.43388e-13
-2.37434e-12
-6.59456e-14
3.4429e-13
9.84962e-13
-8.25734e-13
2.18224e-11
1.6055e-11
-2.21334e-11
8.96294e-12
-4.43729e-12
8.03271e-12
-4.96662e-12
1.3765e-08
-1.65474e-07
3.22327e-09
-8.42035e-07
-8.70102e-09
-8.40933e-07
-1.50638e-13
-1.6289e-07
-1.48427e-13
-2.37954e-12
-1.90998e-13
3.83978e-13
1.13256e-12
-3.39341e-13
5.87454e-12
1.8099e-11
-1.83829e-11
3.48569e-12
-2.2309e-12
3.39205e-12
-4.40066e-12
9.56725e-09
-1.75079e-07
-4.80226e-09
-8.28841e-07
-1.51338e-08
-8.2717e-07
-1.78462e-13
-1.72912e-07
-1.53342e-13
-2.40754e-12
-9.53021e-14
3.22949e-13
9.32709e-13
0
4.14609e-12
3.61459e-11
-3.58903e-11
3.8438e-12
4.02588e-13
3.53018e-12
-4.06483e-12
2.57046e-09
-1.83178e-07
-1.35233e-08
-8.15538e-07
-2.34654e-08
-8.12521e-07
-2.55732e-13
-1.85979e-07
-1.95282e-13
-2.47098e-12
-1.00717e-13
2.27118e-13
8.6091e-13
-3.09909e-14
4.01491e-12
5.91748e-11
-1.29892e-11
1.0247e-11
7.88166e-12
9.19223e-12
-3.37751e-12
1.43919e-08
-1.95387e-07
-2.54371e-10
-7.99245e-07
-1.42551e-08
-7.98748e-07
-6.54853e-13
-1.98135e-07
-6.55459e-13
-2.47378e-12
0
3.58104e-13
9.76046e-13
-1.34735e-13
3.26364e-12
5.38215e-11
-2.02832e-13
8.65253e-12
7.20224e-12
7.53535e-12
-2.31925e-12
2.76104e-08
-2.12743e-07
1.40426e-08
-7.82146e-07
-2.52274e-09
-7.8503e-07
-6.06344e-13
-2.09037e-07
-6.57745e-13
-2.42842e-12
0
3.94524e-13
1.14229e-12
-2.90233e-13
3.78085e-13
1.97987e-11
1.12583e-11
2.09826e-12
6.3066e-13
1.87916e-12
-2.06426e-12
1.31794e-08
-2.2913e-07
-4.31362e-09
-7.66561e-07
-2.07071e-08
-7.66446e-07
-6.91361e-13
-2.26365e-07
-6.67002e-13
-2.44049e-12
0
1.00827e-13
1.33768e-12
-3.97783e-13
-1.48317e-12
5.42616e-13
2.94765e-12
6.39536e-13
-1.61388e-13
5.41705e-13
-1.98213e-12
1.8688e-09
-2.44739e-07
-1.64448e-08
-7.51544e-07
-3.31522e-08
-7.46714e-07
-7.02387e-13
-2.48396e-07
-5.84707e-13
-2.517e-12
0
-2.25188e-14
1.74936e-12
-1.90754e-13
1.03333e-13
3.73908e-13
4.11744e-14
3.23585e-13
-4.11332e-13
2.98744e-13
-1.97298e-12
1.74566e-08
-2.64756e-07
-3.09237e-09
-7.30655e-07
-2.1768e-08
-7.28576e-07
-8.89387e-13
-2.70102e-07
-6.22214e-13
-2.73561e-12
-2.50246e-13
0
1.84106e-12
1.81229e-13
2.59984e-13
1.81456e-13
-8.41425e-14
6.06232e-13
-2.48012e-13
6.33087e-13
-2.01554e-12
3.25285e-08
-2.89663e-07
1.08812e-08
-7.07624e-07
-9.0984e-09
-7.10034e-07
-2.77247e-12
-2.89108e-07
-2.26482e-12
-3.20339e-12
-7.19972e-13
-5.23538e-13
1.61223e-12
0
3.059e-13
1.97144e-13
-3.38302e-13
6.76316e-13
-2.57326e-14
1.03844e-12
-2.39174e-12
2.83232e-08
-3.14533e-07
5.11786e-09
-6.85029e-07
-1.53413e-08
-6.89023e-07
-6.49263e-12
-3.09745e-07
-5.38919e-12
-4.26026e-12
-8.43619e-13
-3.6093e-12
1.00015e-12
-1.85691e-13
3.60095e-13
3.00801e-13
-4.8277e-13
5.68404e-13
1.05819e-13
3.98351e-12
-5.49779e-12
1.05589e-08
-3.36877e-07
-1.21166e-08
-6.63825e-07
-3.64363e-08
-6.62665e-07
-1.18117e-11
-3.34317e-07
-7.71807e-12
-8.13858e-12
-6.27821e-12
-4.6626e-12
2.97494e-12
-6.26852e-13
3.53733e-13
4.03248e-13
-4.96537e-13
1.52299e-12
5.66774e-13
2.56306e-11
-2.94289e-11
1.48897e-08
-3.60996e-07
-1.03041e-08
-6.39088e-07
-3.67188e-08
-6.35802e-07
-3.33349e-11
-3.61675e-07
-5.97916e-12
-3.51578e-11
-9.67217e-12
-2.22309e-12
4.52359e-13
-7.33478e-12
3.28005e-13
4.91257e-13
-4.35058e-13
2.85908e-12
2.55607e-13
2.08365e-10
-2.33659e-10
2.74281e-08
-3.87971e-07
-6.95549e-10
-6.10632e-07
-2.68058e-08
-6.10032e-07
-2.23026e-10
-3.88214e-07
-4.59134e-12
-2.52639e-10
-4.31785e-12
-1.27034e-13
5.35977e-13
-5.69249e-12
2.03409e-13
7.39019e-13
-4.6711e-13
2.93688e-13
3.54738e-13
1.66423e-09
-1.89738e-09
3.10668e-08
-4.15224e-07
1.74225e-09
-5.81347e-07
-2.58032e-08
-5.82433e-07
-1.71989e-09
-4.14479e-07
-2.71774e-12
-1.96983e-09
-2.79364e-12
-5.84084e-14
7.49177e-13
-8.53235e-12
0
1.53687e-12
0
3.8431e-13
1.85337e-13
9.04328e-09
-1.09401e-08
2.66896e-08
-4.33509e-07
9.77108e-11
-5.54721e-07
-2.95384e-08
-5.52838e-07
-9.20551e-09
-4.34e-07
-4.3243e-13
-1.11749e-08
-4.43027e-13
-6.16668e-14
4.67759e-13
-6.72933e-13
0
3.81265e-12
1.65656e-12
6.08367e-13
-2.16486e-13
1.98605e-08
-3.11039e-08
3.06678e-08
-4.44403e-07
-3.17494e-10
-5.23794e-07
-3.25046e-08
-5.20611e-07
-1.97104e-08
-4.47071e-07
-1.8229e-13
-3.07803e-08
-8.05826e-14
-1.77613e-13
1.04056e-13
-3.88431e-14
7.94924e-13
6.53408e-12
0
3.80733e-12
-3.03853e-12
3.35702e-08
-6.52266e-08
3.68487e-08
-4.48323e-07
-2.08934e-09
-4.84861e-07
-3.2103e-08
-4.90603e-07
-3.44963e-08
-4.44532e-07
-3.45793e-12
-6.52124e-08
-8.76334e-14
-3.55625e-12
6.23158e-14
-4.65352e-14
2.8719e-12
3.15166e-12
0
6.5858e-11
-6.58353e-11
4.55399e-08
-1.09815e-07
3.1451e-08
-4.33984e-07
-3.21168e-09
-4.502e-07
-4.40717e-08
-4.49745e-07
-5.10414e-08
-4.38092e-07
-7.84131e-11
-1.17814e-07
-6.88656e-14
-8.19011e-11
4.24596e-14
-4.94308e-14
3.45898e-12
5.25632e-13
-1.00512e-12
1.34262e-09
-1.4052e-09
7.22001e-08
-1.79164e-07
4.19676e-08
-4.03643e-07
1.35586e-09
-4.09587e-07
-4.09708e-08
-4.07421e-07
-7.91886e-08
-4.00126e-07
-1.60898e-09
-1.98095e-07
-6.41959e-14
-1.69082e-09
1.5867e-14
-3.80492e-14
2.09822e-13
1.13164e-13
5.52235e-14
1.59399e-08
-1.73451e-08
8.87168e-08
-2.50856e-07
3.99996e-08
-3.54926e-07
-5.70607e-09
-3.63884e-07
-4.65695e-08
-3.66556e-07
-8.47439e-08
-3.61953e-07
-1.6946e-08
-2.67778e-07
-1.45142e-11
-1.86221e-08
-1.44869e-11
1.09198e-15
8.63295e-10
-8.62986e-10
-2.90741e-13
5.98448e-08
-7.67495e-08
1.02117e-07
-2.94941e-07
6.36194e-08
-3.1643e-07
1.59695e-08
-3.16234e-07
-3.55881e-08
-3.14999e-07
-8.70882e-08
-3.10451e-07
-5.91802e-08
-2.93772e-07
-1.24213e-09
-7.5873e-08
-1.2555e-09
-1.10893e-12
2.84339e-08
-2.92967e-08
-2.54625e-13
1.38419e-07
-1.85902e-07
9.36961e-08
-2.50182e-07
3.37505e-08
-2.56485e-07
-1.90536e-08
-2.6343e-07
-6.66973e-08
-2.67355e-07
-1.0959e-07
-2.67558e-07
-1.46391e-07
-2.56987e-07
-3.03527e-08
-1.9204e-07
-3.16076e-08
-6.72925e-13
9.2061e-08