/*--------------------------------*- C++ -*----------------------------------*\
  =========                 |
  \\      /  F ield         | OpenFOAM: The Open Source CFD Toolbox
   \\    /   O peration     | Website:  https://openfoam.org
    \\  /    A nd           | Version:  8
     \\/     M anipulation  |
\*---------------------------------------------------------------------------*/
FoamFile
{
    version     2.0;
    format      ascii;
    class       surfaceScalarField;
    location    "1.5";
    object      alphaPhi0.water;
}
// * * * * * * * * * * * * * * * * * * * * * * * * * * * * * * * * * * * * * //

dimensions      [0 3 -1 0 0 0 0];

internalField   nonuniform List<scalar> 
18095
(
1.58802e-07
-9.64917e-07
8.06115e-07
1.6563e-07
-1.24841e-06
1.24158e-06
1.22362e-07
-1.2424e-06
1.28566e-06
6.54021e-08
-1.2636e-06
1.32056e-06
-7.4733e-13
-1.28068e-06
1.34608e-06
-6.54036e-08
-1.28068e-06
1.34608e-06
-1.22363e-07
-1.2636e-06
1.32056e-06
-1.65631e-07
-1.24239e-06
1.28566e-06
-1.58802e-07
-1.24841e-06
1.24158e-06
-9.64916e-07
8.06114e-07
1.11178e-07
-1.0761e-06
9.95939e-08
-1.23682e-06
7.29756e-08
-1.21578e-06
4.0098e-08
-1.23073e-06
-5.82265e-13
-1.24058e-06
-4.0099e-08
-1.24058e-06
-7.29764e-08
-1.23073e-06
-9.95944e-08
-1.21578e-06
-1.11179e-07
-1.23682e-06
-1.07609e-06
6.73417e-08
-1.14344e-06
5.2896e-08
-1.22238e-06
4.2233e-08
-1.20511e-06
2.39122e-08
-1.21241e-06
-2.72037e-13
-1.21667e-06
-2.39127e-08
-1.21667e-06
-4.22335e-08
-1.21241e-06
-5.28963e-08
-1.20511e-06
-6.73419e-08
-1.22238e-06
-1.14344e-06
3.97584e-08
-1.1832e-06
2.66978e-08
-1.20932e-06
2.20662e-08
-1.20048e-06
1.25617e-08
-1.2029e-06
-1.08119e-13
-1.2041e-06
-1.2562e-08
-1.2041e-06
-2.20664e-08
-1.2029e-06
-2.66981e-08
-1.20048e-06
-3.97587e-08
-1.20932e-06
-1.1832e-06
1.68044e-08
7.48786e-09
7.00551e-09
4.10351e-09
-1.34957e-13
-4.10375e-09
-7.00566e-09
-7.48798e-09
-1.68045e-08
-1.75892e-07
-1.1633e-06
1.33919e-06
-2.20095e-07
-1.21656e-06
1.26077e-06
-1.65854e-07
-1.21303e-06
1.15879e-06
-8.74244e-08
-1.20426e-06
1.12583e-06
-7.60555e-12
-1.20286e-06
1.11544e-06
8.74095e-08
-1.20286e-06
1.11544e-06
1.6584e-07
-1.20426e-06
1.12583e-06
2.20083e-07
-1.21302e-06
1.15878e-06
1.75882e-07
-1.21656e-06
1.26076e-06
-1.16329e-06
1.33917e-06
-9.28763e-08
-1.07042e-06
-9.56847e-08
-1.21376e-06
-7.93898e-08
-1.22932e-06
-4.43125e-08
-1.23934e-06
-4.37006e-12
-1.24717e-06
4.43041e-08
-1.24717e-06
7.93823e-08
-1.23934e-06
9.56788e-08
-1.22932e-06
9.28728e-08
-1.21375e-06
-1.07042e-06
-5.80302e-08
-1.01239e-06
-5.51886e-08
-1.2166e-06
-4.65327e-08
-1.23798e-06
-2.71444e-08
-1.25873e-06
-2.68525e-12
-1.27431e-06
2.71393e-08
-1.27431e-06
4.65283e-08
-1.25873e-06
5.51854e-08
-1.23798e-06
5.80286e-08
-1.21659e-06
-1.01239e-06
-7.49651e-08
-9.37425e-07
-6.20878e-08
-1.22947e-06
-4.85917e-08
-1.25148e-06
-2.77572e-08
-1.27956e-06
-1.70808e-12
-1.30207e-06
2.7754e-08
-1.30207e-06
4.8589e-08
-1.27956e-06
6.2086e-08
-1.25147e-06
7.49644e-08
-1.22947e-06
-9.37424e-07
-1.3131e-07
-1.19205e-07
-8.50173e-08
-4.40146e-08
-1.17584e-12
4.40124e-08
8.50155e-08
1.19204e-07
1.31309e-07
-6.04618e-08
-9.43451e-07
1.00391e-06
-2.66585e-09
-1.33845e-06
1.28065e-06
8.43936e-09
-1.27104e-06
1.25994e-06
3.55936e-09
-1.22483e-06
1.22971e-06
-5.30767e-11
-1.22237e-06
1.22599e-06
-3.66758e-09
-1.22237e-06
1.22599e-06
-8.55032e-09
-1.22484e-06
1.22972e-06
2.4484e-09
-1.27106e-06
1.26006e-06
6.00792e-08
-1.33845e-06
1.28082e-06
-9.43128e-07
1.00321e-06
6.20545e-09
-9.49656e-07
1.4036e-08
-1.34628e-06
1.03842e-08
-1.26739e-06
5.53454e-09
-1.21998e-06
-5.71238e-11
-1.21678e-06
-5.65574e-09
-1.21677e-06
-1.05096e-08
-1.21998e-06
-1.41804e-08
-1.26739e-06
-6.38426e-09
-1.34625e-06
-9.49512e-07
2.60712e-08
-9.75727e-07
1.7819e-08
-1.33803e-06
9.36554e-09
-1.25894e-06
5.55137e-09
-1.21617e-06
-3.5237e-11
-1.2112e-06
-5.61702e-09
-1.21119e-06
-9.438e-09
-1.21616e-06
-1.78972e-08
-1.25893e-06
-2.6142e-08
-1.33801e-06
-9.75654e-07
7.85871e-08
-1.05431e-06
5.28988e-08
-1.31234e-06
3.3943e-08
-1.23998e-06
2.06982e-08
-1.20292e-06
-2.21031e-11
-1.19047e-06
-2.07418e-08
-1.19047e-06
-3.39886e-08
-1.20292e-06
-5.29479e-08
-1.23997e-06
-7.8624e-08
-1.31233e-06
-1.05428e-06
2.84875e-07
2.33302e-07
1.52109e-07
7.50175e-08
-1.3464e-11
-7.50441e-08
-1.52133e-07
-2.33321e-07
-2.84893e-07
-1.83214e-07
-8.0183e-08
2.63397e-07
-1.01685e-07
-8.15284e-08
-1.93384e-08
-8.23471e-08
6.35262e-08
-8.28646e-08
1.46631e-07
-8.31049e-08
2.29465e-07
-8.28336e-08
3.11446e-07
-8.19816e-08
3.91939e-07
-8.04922e-08
4.70222e-07
-7.82836e-08
-7.52115e-08
5.45434e-07
-1.55047e-07
-1.45204e-07
2.20067e-07
-8.87671e-08
-1.47808e-07
-2.15568e-08
-1.49557e-07
4.6074e-08
-1.50496e-07
1.13567e-07
-1.50598e-07
1.80518e-07
-1.49785e-07
2.4649e-07
-1.47953e-07
3.10967e-07
-1.4497e-07
3.7335e-07
-1.40667e-07
-1.34829e-07
4.32968e-07
-1.35921e-07
-1.99497e-07
1.90214e-07
-8.0732e-08
-2.02997e-07
-2.49544e-08
-2.05335e-07
3.10719e-08
-2.06522e-07
8.7005e-08
-2.0653e-07
1.4251e-07
-2.0529e-07
1.97237e-07
-2.0268e-07
2.50799e-07
-1.98532e-07
3.02759e-07
-1.92627e-07
-1.8471e-07
3.52639e-07
-1.22169e-07
-2.45347e-07
1.6802e-07
-7.57311e-08
-2.49435e-07
-2.89537e-08
-2.52111e-07
1.79297e-08
-2.53403e-07
6.46932e-08
-2.53291e-07
1.11113e-07
-2.51705e-07
1.56961e-07
-2.48528e-07
2.02e-07
-2.43571e-07
2.45974e-07
-2.36601e-07
-2.27324e-07
2.88589e-07
-1.10461e-07
-2.8396e-07
1.49073e-07
-7.1557e-08
-2.88339e-07
-3.25323e-08
-2.91135e-07
6.45437e-09
-2.92376e-07
4.52535e-08
-2.92074e-07
8.37215e-08
-2.90158e-07
1.21722e-07
-2.86516e-07
1.59121e-07
-2.80968e-07
1.95803e-07
-2.73283e-07
-2.63184e-07
2.31663e-07
-9.90675e-08
-3.162e-07
1.31308e-07
-6.67851e-08
-3.20621e-07
-3.45595e-08
-3.23361e-07
-2.49731e-09
-3.2444e-07
2.92903e-08
-3.23863e-07
6.06819e-08
-3.21551e-07
9.15499e-08
-3.17372e-07
1.21743e-07
-3.11157e-07
1.51125e-07
-3.02663e-07
-2.91658e-07
1.79604e-07
-8.71328e-08
-3.42876e-07
1.13808e-07
-6.05125e-08
-3.47242e-07
-3.39736e-08
-3.499e-07
-7.56463e-09
-3.50864e-07
1.86417e-08
-3.50075e-07
4.45552e-08
-3.47466e-07
7.00442e-08
-3.42863e-07
9.49398e-08
-3.36057e-07
1.18967e-07
-3.26688e-07
-3.14321e-07
1.41754e-07
-7.55037e-08
-3.6506e-07
9.76879e-08
-5.32978e-08
-3.69448e-07
-3.1009e-08
-3.72189e-07
-8.60418e-09
-3.73269e-07
1.39379e-08
-3.72631e-07
3.66426e-08
-3.7019e-07
5.95402e-08
-3.65778e-07
8.26324e-08
-3.5915e-07
1.05176e-07
-3.49196e-07
-3.30359e-07
1.24879e-07
-6.69216e-08
-3.84259e-07
8.61202e-08
-4.76255e-08
-3.88744e-07
-2.81027e-08
-3.91712e-07
-8.25744e-09
-3.93114e-07
1.20073e-08
-3.92887e-07
3.28162e-08
-3.90991e-07
5.43378e-08
-3.87289e-07
7.6718e-08
-3.81516e-07
8.98172e-08
-3.54834e-07
-2.5817e-07
7.98217e-08
-6.39901e-08
-4.02404e-07
8.21353e-08
-4.58308e-08
-4.06903e-07
-2.74903e-08
-4.10052e-07
-8.82733e-09
-4.11777e-07
1.02989e-08
-4.12006e-07
3.00598e-08
-4.10626e-07
5.07035e-08
-4.07928e-07
7.22484e-08
-4.03047e-07
7.18843e-08
-3.48225e-07
-2.5724e-07
7.96606e-08
-6.62888e-08
-4.208e-07
8.46842e-08
-4.79244e-08
-4.25268e-07
-2.95039e-08
-4.28473e-07
-1.08886e-08
-4.30393e-07
8.07113e-09
-4.3097e-07
2.75173e-08
-4.3007e-07
4.76401e-08
-4.27136e-07
6.70428e-08
-4.22376e-07
6.97892e-08
-3.739e-07
-2.66716e-07
7.44877e-08
-7.09917e-08
-4.39482e-07
8.96741e-08
-5.20767e-08
-4.44183e-07
-3.31863e-08
-4.47363e-07
-1.42246e-08
-4.49355e-07
4.91529e-09
-4.50123e-07
2.42612e-08
-4.49518e-07
4.3515e-08
-4.46852e-07
6.01433e-08
-4.38469e-07
5.77543e-08
-3.96525e-07
-2.76125e-07
6.0718e-08
-7.49292e-08
-4.54692e-07
9.01383e-08
-5.60987e-08
-4.63014e-07
-3.72326e-08
-4.6623e-07
-1.82855e-08
-4.68302e-07
7.9363e-10
-4.69209e-07
2.00025e-08
-4.68776e-07
3.82233e-08
-4.67061e-07
4.84875e-08
-4.04302e-07
4.91408e-08
-3.26648e-07
-3.65766e-07
7.3859e-08
-7.84897e-08
-4.4285e-07
8.30857e-08
-6.01813e-08
-4.81322e-07
-4.18564e-08
-4.84554e-07
-2.34787e-08
-4.86679e-07
-5.00243e-09
-4.87686e-07
1.36376e-08
-4.87454e-07
3.25253e-08
-4.85993e-07
4.20678e-08
-3.77729e-07
4.98264e-08
-3.39904e-07
-3.85088e-07
7.25574e-08
-8.28868e-08
-4.16425e-07
8.36254e-08
-6.49606e-08
-4.99248e-07
-4.72374e-08
-5.02278e-07
-2.9543e-08
-5.04374e-07
-1.17674e-08
-5.05462e-07
6.20973e-09
-5.05483e-07
2.45266e-08
-5.0432e-07
3.43192e-08
-4.33202e-07
4.38236e-08
-3.60246e-07
-3.97811e-07
6.38216e-08
-8.75938e-08
-4.19651e-07
8.39654e-08
-7.02592e-08
-5.16583e-07
-5.31453e-08
-5.19392e-07
-3.60558e-08
-5.21463e-07
-1.88774e-08
-5.22641e-07
-1.55448e-09
-5.2281e-07
1.54703e-08
-5.21102e-07
2.54465e-08
-5.17051e-07
2.3305e-08
-3.82422e-07
-2.78637e-07
4.83851e-08
-9.23475e-08
-4.83395e-07
8.84374e-08
-7.60275e-08
-5.32903e-07
-5.97245e-08
-5.35695e-07
-4.34187e-08
-5.37769e-07
-2.70904e-08
-5.38969e-07
-1.07324e-08
-5.39167e-07
5.57049e-09
-5.37544e-07
2.13854e-08
-5.33339e-07
3.01767e-08
-4.52906e-07
-2.80366e-07
2.99326e-08
-9.70037e-08
-5.17394e-07
9.58835e-08
-8.16797e-08
-5.48228e-07
-6.61844e-08
-5.5119e-07
-5.06852e-08
-5.53268e-07
-3.52499e-08
-5.54405e-07
-1.98867e-08
-5.54536e-07
-4.55737e-09
-5.53431e-07
1.01438e-08
-5.45139e-07
1.56786e-08
-4.78145e-07
-2.87817e-07
9.34822e-09
-1.00369e-07
-5.31947e-07
1.00711e-07
-8.56321e-08
-5.62965e-07
-7.07028e-08
-5.66119e-07
-5.57132e-08
-5.68258e-07
-4.07221e-08
-5.69396e-07
-2.5711e-08
-5.69548e-07
-1.05852e-08
-5.68618e-07
4.39985e-09
-5.57139e-07
1.36597e-08
-4.91084e-07
-4.8826e-07
1.5186e-08
-1.02311e-07
-5.35541e-07
1.01862e-07
-8.77322e-08
-5.77544e-07
-7.30183e-08
-5.80833e-07
-5.82209e-08
-5.83055e-07
-4.33503e-08
-5.84266e-07
-2.83823e-08
-5.84516e-07
-1.3262e-08
-5.83777e-07
1.96717e-09
-5.71915e-07
1.37756e-08
-5.05734e-07
-5.26794e-07
2.74466e-08
-1.03254e-07
-5.47396e-07
1.0233e-07
-8.87265e-08
-5.92071e-07
-7.42632e-08
-5.95296e-07
-5.9846e-08
-5.97473e-07
-4.54792e-08
-5.98633e-07
-3.11924e-08
-5.98804e-07
-1.7056e-08
-5.9795e-07
-2.89788e-09
-5.88659e-07
7.7108e-09
-5.19511e-07
-5.3388e-07
1.9694e-08
-1.03067e-07
-5.85844e-07
1.033e-07
-8.88901e-08
-6.06247e-07
-7.4918e-08
-6.09269e-07
-6.1101e-08
-6.1129e-07
-4.74532e-08
-6.12281e-07
-3.40325e-08
-6.12225e-07
-2.09434e-08
-6.11056e-07
-7.88173e-09
-6.05541e-07
2.79968e-09
-5.59765e-07
-5.32932e-07
1.26491e-08
-1.02549e-07
-6.13273e-07
1.03773e-07
-8.90287e-08
-6.19765e-07
-7.56699e-08
-6.22627e-07
-6.24842e-08
-6.24475e-07
-4.95017e-08
-6.25263e-07
-3.67637e-08
-6.24963e-07
-2.43386e-08
-6.2349e-07
-1.23609e-08
-6.19443e-07
-9.62149e-10
-5.80956e-07
-4.89906e-07
7.14559e-09
-1.03661e-07
-6.27332e-07
1.13416e-07
-9.04837e-08
-6.32942e-07
-7.75015e-08
-6.3561e-07
-6.47569e-08
-6.3722e-07
-5.22652e-08
-6.37755e-07
-4.00261e-08
-6.37202e-07
-2.80115e-08
-6.35519e-07
-1.61027e-08
-6.32102e-07
-3.47261e-09
-5.71006e-07
-3.56983e-07
3.12683e-09
-1.05548e-07
-6.41863e-07
1.177e-07
-9.26131e-08
-6.45876e-07
-7.98739e-08
-6.48349e-07
-6.73756e-08
-6.49718e-07
-5.51074e-08
-6.50023e-07
-4.30175e-08
-6.49292e-07
-3.09779e-08
-6.47568e-07
-1.86731e-08
-6.44727e-07
-4.47454e-09
-5.81392e-07
-3.81464e-07
4.15153e-09
-1.06793e-07
-6.46401e-07
1.17677e-07
-9.41702e-08
-6.58499e-07
-8.16698e-08
-6.60849e-07
-6.93174e-08
-6.62071e-07
-5.70747e-08
-6.62266e-07
-4.48481e-08
-6.61518e-07
-3.24937e-08
-6.59924e-07
-1.9745e-08
-6.57487e-07
-6.29132e-09
-6.28049e-07
-6.12142e-07
4.10922e-09
-1.07109e-07
-6.43551e-07
1.141e-07
-9.49321e-08
-6.70676e-07
-8.28684e-08
-6.72913e-07
-7.08931e-08
-6.74046e-07
-5.89448e-08
-6.74214e-07
-4.69535e-08
-6.7351e-07
-3.48642e-08
-6.72013e-07
-2.26013e-08
-6.69724e-07
-1.08076e-08
-6.65452e-07
-6.4687e-07
7.30619e-10
-1.06913e-07
-6.62546e-07
1.02656e-07
-9.53759e-08
-6.82213e-07
-8.40722e-08
-6.84217e-07
-7.28749e-08
-6.85243e-07
-6.16979e-08
-6.85391e-07
-5.04913e-08
-6.84716e-07
-3.92471e-08
-6.83256e-07
-2.8022e-08
-6.80948e-07
-1.66181e-08
-6.76852e-07
-6.44528e-07
-5.66655e-09
-1.07132e-07
-6.79902e-07
9.86877e-08
-9.63351e-08
-6.9301e-07
-8.59261e-08
-6.94626e-07
-7.5666e-08
-6.95504e-07
-6.54343e-08
-6.95623e-07
-5.5159e-08
-6.94992e-07
-4.47969e-08
-6.93619e-07
-3.43032e-08
-6.91449e-07
-2.35801e-08
-6.86502e-07
-6.39054e-07
-1.23296e-08
-1.08711e-07
-6.83309e-07
1.01124e-07
-9.86745e-08
-7.03047e-07
-8.90376e-08
-7.04263e-07
-7.95899e-08
-7.04951e-07
-7.0191e-08
-7.05022e-07
-6.07389e-08
-7.04444e-07
-5.11514e-08
-7.03207e-07
-4.13466e-08
-7.01275e-07
-3.1031e-08
-6.95899e-07
-6.58109e-07
-2.06331e-08
-1.10617e-07
-6.79051e-07
1.08309e-07
-1.01639e-07
-7.12025e-07
-9.28655e-08
-7.13036e-07
-8.42378e-08
-7.13579e-07
-7.56507e-08
-7.13609e-07
-6.70082e-08
-7.13086e-07
-5.82292e-08
-7.11987e-07
-4.92464e-08
-7.1025e-07
-3.97132e-08
-7.06128e-07
-7.02981e-07
-3.06185e-08
-1.11115e-07
-6.889e-07
1.10726e-07
-1.03652e-07
-7.19476e-07
-9.61404e-08
-7.20547e-07
-8.86306e-08
-7.21089e-07
-8.10843e-08
-7.21155e-07
-7.34494e-08
-7.20721e-07
-6.56723e-08
-7.19764e-07
-5.76651e-08
-7.18243e-07
-4.95569e-08
-7.1607e-07
-7.12572e-07
-4.01992e-08
-1.10131e-07
-6.98002e-07
1.08431e-07
-1.04412e-07
-7.25195e-07
-9.8351e-08
-7.26608e-07
-9.21808e-08
-7.27259e-07
-8.58934e-08
-7.27443e-07
-7.94656e-08
-7.27149e-07
-7.2865e-08
-7.26364e-07
-6.60574e-08
-7.25066e-07
-5.89345e-08
-7.23206e-07
-7.20048e-07
-5.15927e-08
-1.07933e-07
-7.24194e-07
1.09555e-07
-1.03967e-07
-7.2916e-07
-9.93706e-08
-7.31204e-07
-9.46117e-08
-7.32018e-07
-8.96824e-08
-7.32372e-07
-8.4566e-08
-7.32265e-07
-7.92379e-08
-7.31692e-07
-7.36623e-08
-7.30643e-07
-6.77801e-08
-7.29091e-07
-7.26398e-07
-6.14374e-08
-1.04621e-07
-7.25907e-07
1.07459e-07
-1.02153e-07
-7.29939e-07
-9.9025e-08
-7.34332e-07
-9.56981e-08
-7.35345e-07
-9.21615e-08
-7.35909e-07
-8.84017e-08
-7.36025e-07
-8.44004e-08
-7.35694e-07
-8.01308e-08
-7.34913e-07
-7.55465e-08
-7.33676e-07
-7.31755e-07
-7.02815e-08
-9.907e-08
-7.25607e-07
9.99097e-08
-9.88647e-08
-7.27875e-07
-9.71882e-08
-7.36008e-07
-9.52839e-08
-7.37249e-07
-9.31428e-08
-7.3805e-07
-9.07583e-08
-7.3841e-07
-8.8122e-08
-7.3833e-07
-8.52228e-08
-7.37812e-07
-8.20415e-08
-7.36856e-07
-7.35389e-07
-7.84204e-08
-9.06708e-08
-6.94374e-07
8.40358e-08
-9.40347e-08
-7.30767e-07
-9.37679e-08
-7.36275e-07
-9.32456e-08
-7.37771e-07
-9.24702e-08
-7.38825e-07
-9.14445e-08
-7.39435e-07
-9.01712e-08
-7.39603e-07
-8.86515e-08
-7.39331e-07
-8.68868e-08
-7.38621e-07
-7.37424e-07
-8.48561e-08
-8.23956e-08
-6.71485e-07
6.6689e-08
-8.74767e-08
-7.31732e-07
-8.85795e-08
-7.35172e-07
-8.94002e-08
-7.36951e-07
-8.99554e-08
-7.3827e-07
-9.02575e-08
-7.39133e-07
-9.03156e-08
-7.39545e-07
-9.01364e-08
-7.39511e-07
-8.97238e-08
-7.39033e-07
-7.38078e-07
-8.90703e-08
-7.26787e-08
-6.69364e-07
5.54342e-08
-7.88689e-08
-7.28534e-07
-8.13572e-08
-7.32684e-07
-8.35346e-08
-7.34773e-07
-8.54355e-08
-7.36369e-07
-8.70848e-08
-7.37484e-07
-8.85017e-08
-7.38128e-07
-8.97004e-08
-7.38312e-07
-9.06913e-08
-7.38043e-07
-7.37297e-07
-9.14704e-08
-6.17955e-08
-7.05337e-07
4.86833e-08
-6.80451e-08
-7.23379e-07
-7.1934e-08
-7.28795e-07
-7.54985e-08
-7.31209e-07
-7.87815e-08
-7.33086e-07
-8.18196e-08
-7.34446e-07
-8.46448e-08
-7.35303e-07
-8.72839e-08
-7.35673e-07
-8.97587e-08
-7.35568e-07
-7.34985e-07
-9.20719e-08
-4.89024e-08
-7.15299e-07
4.04847e-08
-5.50875e-08
-7.18731e-07
-6.03557e-08
-7.23527e-07
-6.53017e-08
-7.26263e-07
-6.99673e-08
-7.28421e-07
-7.43955e-08
-7.30018e-07
-7.86269e-08
-7.31072e-07
-8.2698e-08
-7.31602e-07
-8.66387e-08
-7.31627e-07
-7.31165e-07
-9.04601e-08
-3.34562e-08
-7.08918e-07
2.53254e-08
-4.04031e-08
-7.13306e-07
-4.69643e-08
-7.16966e-07
-5.32178e-08
-7.20009e-07
-5.92055e-08
-7.22433e-07
-6.49714e-08
-7.24252e-07
-7.05593e-08
-7.25484e-07
-7.601e-08
-7.26151e-07
-8.13586e-08
-7.26279e-07
-7.25897e-07
-8.66269e-08
-1.62692e-08
-7.00266e-07
7.4241e-09
-2.4369e-08
-7.05205e-07
-3.21243e-08
-7.09209e-07
-3.95878e-08
-7.12546e-07
-4.68067e-08
-7.15214e-07
-5.38262e-08
-7.17232e-07
-6.06897e-08
-7.1862e-07
-6.74377e-08
-7.19403e-07
-7.41059e-08
-7.1961e-07
-7.19279e-07
-8.07235e-08
2.00232e-09
-6.90576e-07
-1.17135e-08
-7.23005e-09
-6.95973e-07
-1.611e-08
-7.00331e-07
-2.47147e-08
-7.03941e-07
-3.30993e-08
-7.06829e-07
-4.13117e-08
-7.0902e-07
-4.93948e-08
-7.10537e-07
-5.73872e-08
-7.11411e-07
-6.5324e-08
-7.11674e-07
-7.11365e-07
-7.3238e-08
2.11864e-08
-6.79846e-07
-3.19204e-08
1.08658e-08
-6.85653e-07
8.76901e-10
-6.90344e-07
-8.85779e-09
-6.94206e-07
-1.84005e-08
-6.97287e-07
-2.78055e-08
-6.99615e-07
-3.71217e-08
-7.01221e-07
-4.63937e-08
-7.02139e-07
-5.5664e-08
-7.02403e-07
-7.02055e-07
-6.49746e-08
4.09626e-08
-6.68205e-07
-5.26063e-08
2.95946e-08
-6.74285e-07
1.85206e-08
-6.7927e-07
7.67361e-09
-6.83359e-07
-3.01326e-09
-6.866e-07
-1.36023e-08
-6.89026e-07
-2.4152e-08
-6.90671e-07
-3.4718e-08
-6.91573e-07
-4.53545e-08
-6.91767e-07
-6.91294e-07
-5.61151e-08
6.04971e-08
-6.5572e-07
-7.29846e-08
4.8262e-08
-6.6205e-07
3.62551e-08
-6.67263e-07
2.44162e-08
-6.71521e-07
1.26831e-08
-6.74867e-07
9.94657e-10
-6.77337e-07
-1.07081e-08
-6.78969e-07
-2.24834e-08
-6.79797e-07
-3.4389e-08
-6.79861e-07
-6.792e-07
-4.64829e-08
7.94754e-08
-6.42611e-07
-9.25855e-08
6.65362e-08
-6.49111e-07
5.37314e-08
-6.54458e-07
4.1012e-08
-6.58801e-07
2.83281e-08
-6.62183e-07
1.56291e-08
-6.64638e-07
2.86462e-09
-6.66204e-07
-1.00167e-08
-6.66916e-07
-2.30672e-08
-6.66811e-07
-6.65927e-07
-3.63404e-08
9.837e-08
-6.2874e-07
-1.12242e-07
8.45928e-08
-6.35334e-07
7.09038e-08
-6.40769e-07
5.72591e-08
-6.45156e-07
4.36122e-08
-6.48536e-07
2.99152e-08
-6.50941e-07
1.61199e-08
-6.52409e-07
2.1785e-09
-6.52974e-07
-1.19567e-08
-6.52675e-07
-6.51551e-07
-2.63327e-08
1.16065e-07
-6.14125e-07
-1.3068e-07
1.01489e-07
-6.20758e-07
8.69625e-08
-6.26242e-07
7.24465e-08
-6.3064e-07
5.78935e-08
-6.33983e-07
4.32522e-08
-6.363e-07
2.84696e-08
-6.37626e-07
1.34923e-08
-6.37997e-07
-1.73245e-09
-6.37451e-07
-6.36027e-07
-1.72567e-08
1.30895e-07
-5.99178e-07
-1.45842e-07
1.15895e-07
-6.05759e-07
1.00853e-07
-6.112e-07
8.57394e-08
-6.15527e-07
7.05146e-08
-6.18758e-07
5.51306e-08
-6.20916e-07
3.95343e-08
-6.2203e-07
2.36686e-08
-6.22131e-07
7.47373e-09
-6.21256e-07
-6.19441e-07
-9.1117e-09
1.43088e-07
-5.83967e-07
-1.58298e-07
1.27805e-07
-5.90476e-07
1.12432e-07
-5.95827e-07
9.6936e-08
-6.00031e-07
8.12733e-08
-6.03095e-07
6.53957e-08
-6.05038e-07
4.9249e-08
-6.05883e-07
3.27748e-08
-6.05657e-07
1.59122e-08
-6.04393e-07
-6.02129e-07
-1.40053e-09
1.52504e-07
-5.68537e-07
-1.67935e-07
1.37033e-07
-5.75004e-07
1.21481e-07
-5.80276e-07
1.05801e-07
-5.8435e-07
8.99371e-08
-5.87231e-07
7.38302e-08
-5.88931e-07
5.74155e-08
-5.89468e-07
4.06261e-08
-5.88868e-07
2.33947e-08
-5.87162e-07
-5.84389e-07
5.65532e-09
1.58218e-07
-5.53214e-07
-1.7354e-07
1.42867e-07
-5.59654e-07
1.27448e-07
-5.64857e-07
1.11904e-07
-5.68806e-07
9.61664e-08
-5.71494e-07
8.01597e-08
-5.72924e-07
6.38015e-08
-5.7311e-07
4.70058e-08
-5.72072e-07
2.9685e-08
-5.69841e-07
-5.66457e-07
1.17527e-08
1.59816e-07
-5.38315e-07
-1.74715e-07
1.44939e-07
-5.44777e-07
1.3003e-07
-5.49948e-07
1.15017e-07
-5.53793e-07
9.98154e-08
-5.56293e-07
8.43318e-08
-5.57441e-07
6.84635e-08
-5.57241e-07
5.21031e-08
-5.55712e-07
3.51412e-08
-5.52879e-07
-5.48785e-07
1.74696e-08
1.56921e-07
-5.24257e-07
-1.70979e-07
1.42954e-07
-5.3081e-07
1.29007e-07
-5.36001e-07
1.14994e-07
-5.3978e-07
1.00814e-07
-5.42114e-07
8.63579e-08
-5.42985e-07
7.15055e-08
-5.42389e-07
5.61314e-08
-5.40337e-07
4.01067e-08
-5.36854e-07
-5.31981e-07
2.33026e-08
1.49415e-07
-5.11511e-07
-1.62161e-07
1.36833e-07
-5.18228e-07
1.24329e-07
-5.23498e-07
1.11806e-07
-5.27256e-07
9.91504e-08
-5.29459e-07
8.62415e-08
-5.30076e-07
7.29468e-08
-5.29095e-07
5.91256e-08
-5.26516e-07
4.46295e-08
-5.22358e-07
-5.16657e-07
2.93049e-08
1.37571e-07
-5.005e-07
-1.48582e-07
1.26801e-07
-5.07458e-07
1.16173e-07
-5.1287e-07
1.05579e-07
-5.16662e-07
9.4902e-08
-5.18781e-07
8.40153e-08
-5.19189e-07
7.27828e-08
-5.17862e-07
6.10571e-08
-5.1479e-07
4.8679e-08
-5.0998e-07
-5.03454e-07
3.54761e-08
1.21859e-07
-4.91608e-07
-1.3075e-07
1.13267e-07
-4.98867e-07
1.04868e-07
-5.04471e-07
9.65518e-08
-5.08346e-07
8.82068e-08
-5.10437e-07
7.97161e-08
-5.10699e-07
7.09553e-08
-5.09101e-07
6.179e-08
-5.05625e-07
5.20728e-08
-5.00263e-07
-4.9302e-07
4.16393e-08
1.03031e-07
-4.85152e-07
-1.09487e-07
9.68813e-08
-4.92717e-07
9.09327e-08
-4.98522e-07
8.5088e-08
-5.02501e-07
7.92544e-08
-5.04603e-07
7.33396e-08
-5.04784e-07
6.72489e-08
-5.03011e-07
6.08812e-08
-4.99257e-07
5.41242e-08
-4.93506e-07
-4.85746e-07
4.68497e-08
8.22298e-08
-4.81297e-07
-8.60846e-08
7.8609e-08
-4.89096e-07
7.51372e-08
-4.9505e-07
7.1743e-08
-4.99107e-07
6.8365e-08
-5.01225e-07
6.49473e-08
-5.01366e-07
6.14364e-08
-4.995e-07
5.77774e-08
-4.95598e-07
5.39096e-08
-4.89638e-07
-4.81598e-07
4.9762e-08
6.09217e-08
-4.79974e-07
-6.22448e-08
5.96862e-08
-4.87861e-07
5.84879e-08
-4.93852e-07
5.72912e-08
-4.97911e-07
5.60721e-08
-5.00006e-07
5.48144e-08
-5.00108e-07
5.35073e-08
-4.98192e-07
5.21429e-08
-4.94234e-07
5.0714e-08
-4.88209e-07
-4.80096e-07
4.92119e-08
4.07042e-08
-4.80825e-07
-3.98529e-08
4.14626e-08
-4.88619e-07
4.21173e-08
-4.94507e-07
4.26688e-08
-4.98462e-07
4.31256e-08
-5.00463e-07
4.35027e-08
-5.00486e-07
4.38194e-08
-4.98509e-07
4.40989e-08
-4.94514e-07
4.43671e-08
-4.88477e-07
-4.80381e-07
4.46517e-08
2.29033e-08
-4.83274e-07
-2.04545e-08
2.50992e-08
-4.90815e-07
2.70669e-08
-4.96474e-07
2.8834e-08
-5.00229e-07
3.04301e-08
-5.02059e-07
3.18859e-08
-5.01941e-07
3.32339e-08
-4.99857e-07
3.45079e-08
-4.95788e-07
3.57433e-08
-4.89713e-07
-4.81613e-07
3.69761e-08
8.25627e-09
-4.86638e-07
-4.89248e-09
1.12941e-08
-4.93853e-07
1.40474e-08
-4.99228e-07
1.65528e-08
-5.02735e-07
1.88429e-08
-5.04349e-07
2.09482e-08
-5.04047e-07
2.28982e-08
-5.01808e-07
2.47234e-08
-4.97613e-07
2.64557e-08
-4.91445e-07
-4.83288e-07
2.81299e-08
-3.39988e-09
-4.90356e-07
7.11791e-09
3.72358e-11
-4.9729e-07
3.22529e-09
-5.02416e-07
6.18771e-09
-5.05697e-07
8.94177e-09
-5.07103e-07
1.15012e-08
-5.06606e-07
1.38793e-08
-5.04186e-07
1.60912e-08
-4.99825e-07
1.81571e-08
-4.93511e-07
-4.85235e-07
2.01043e-08
-1.31949e-08
-4.94276e-07
1.7115e-08
-9.43322e-09
-5.01052e-07
-5.82013e-09
-5.06029e-07
-2.35743e-09
-5.0916e-07
9.45331e-10
-5.10406e-07
4.07517e-09
-5.09736e-07
7.01981e-09
-5.0713e-07
9.772e-09
-5.02577e-07
1.23338e-08
-4.96073e-07
-4.87622e-07
1.47206e-08
-2.26896e-08
-4.98693e-07
2.71063e-08
-1.82654e-08
-5.05476e-07
-1.38522e-08
-5.10442e-07
-9.48314e-09
-5.13529e-07
-5.2005e-09
-5.14688e-07
-1.04963e-09
-5.13887e-07
2.92666e-09
-5.11107e-07
6.69406e-09
-5.06344e-07
1.02327e-08
-4.99612e-07
-4.90932e-07
1.35434e-08
-3.35471e-08
-5.04327e-07
3.91807e-08
-2.77259e-08
-5.11297e-07
-2.17662e-08
-5.16402e-07
-1.5735e-08
-5.1956e-07
-9.70968e-09
-5.20714e-07
-3.77072e-09
-5.19826e-07
2.00536e-09
-5.16883e-07
7.5533e-09
-5.11892e-07
1.28265e-08
-5.04885e-07
-4.95911e-07
1.7805e-08
-4.72298e-08
-5.12251e-07
5.51544e-08
-3.89479e-08
-5.19579e-07
-3.0386e-08
-5.24964e-07
-2.16431e-08
-5.28303e-07
-1.28314e-08
-5.29525e-07
-4.06729e-09
-5.2859e-07
4.53719e-09
-5.25487e-07
1.28829e-08
-5.20238e-07
2.08928e-08
-5.12895e-07
-5.03539e-07
2.85206e-08
-6.4644e-08
-5.23698e-07
7.60908e-08
-5.26693e-08
-5.31554e-07
-4.02729e-08
-5.3736e-07
-2.75878e-08
-5.40988e-07
-1.47637e-08
-5.4235e-07
-1.95639e-09
-5.41397e-07
1.06822e-08
-5.38126e-07
2.30147e-08
-5.32571e-07
3.49288e-08
-5.24809e-07
-5.14957e-07
4.63467e-08
-8.60778e-08
-5.39861e-07
1.0224e-07
-6.91758e-08
-5.48456e-07
-5.16813e-08
-5.54854e-07
-3.37734e-08
-5.58896e-07
-1.56509e-08
-5.60472e-07
2.47913e-09
-5.59527e-07
2.04138e-08
-5.5606e-07
3.79661e-08
-5.50123e-07
5.49774e-08
-5.4182e-07
-5.31307e-07
7.13279e-08
-1.11316e-07
-5.61778e-07
1.33234e-07
-8.83662e-08
-5.71406e-07
-6.45971e-08
-5.78624e-07
-4.02566e-08
-5.83237e-07
-1.56139e-08
-5.85115e-07
9.05299e-09
-5.84194e-07
3.34709e-08
-5.80478e-07
5.73837e-08
-5.74036e-07
8.05657e-08
-5.65002e-07
-5.53574e-07
1.02833e-07
-1.39758e-07
-5.90323e-07
1.68302e-07
-1.09809e-07
-6.01354e-07
-7.87648e-08
-6.09668e-07
-4.69637e-08
-6.15038e-07
-1.4766e-08
-6.17312e-07
1.7461e-08
-6.16421e-07
4.9355e-08
-6.12372e-07
8.05718e-08
-6.05252e-07
1.10796e-07
-5.95226e-07
-5.82532e-07
1.39754e-07
-1.70263e-07
-6.26139e-07
2.06078e-07
-1.32636e-07
-6.38981e-07
-9.36211e-08
-6.48683e-07
-5.36664e-08
-6.54992e-07
-1.32313e-08
-6.57747e-07
2.72218e-08
-6.56874e-07
6.7236e-08
-6.52387e-07
1.0637e-07
-6.44386e-07
1.44202e-07
-6.33059e-07
-6.18674e-07
1.80345e-07
-2.00954e-07
-6.69477e-07
2.44292e-07
-1.55411e-07
-6.84524e-07
-1.08228e-07
-6.95867e-07
-5.99612e-08
-7.03259e-07
-1.11615e-08
-7.06547e-07
3.76317e-08
-7.05668e-07
8.58866e-08
-7.00641e-07
1.33076e-07
-6.91576e-07
1.78677e-07
-6.7866e-07
-6.62166e-07
2.22169e-07
-2.29485e-07
-7.20165e-07
2.80172e-07
-1.76329e-07
-7.3768e-07
-1.21408e-07
-7.50788e-07
-6.53651e-08
-7.59302e-07
-8.79589e-09
-7.63116e-07
4.77358e-08
-7.62199e-07
1.03676e-07
-7.56582e-07
1.58461e-07
-7.4636e-07
2.11494e-07
-7.31694e-07
-7.12808e-07
2.62137e-07
-2.53184e-07
-7.77484e-07
3.10503e-07
-1.9337e-07
-7.97493e-07
-1.31886e-07
-8.12272e-07
-6.93949e-08
-8.21792e-07
-6.46594e-09
-8.26045e-07
5.63913e-08
-8.25056e-07
1.1868e-07
-8.1887e-07
1.79869e-07
-8.0755e-07
2.39354e-07
-7.91178e-07
-7.69847e-07
2.96392e-07
-2.69443e-07
-8.40001e-07
3.3196e-07
-2.04647e-07
-8.62289e-07
-1.38512e-07
-8.78408e-07
-7.16454e-08
-8.88659e-07
-4.50241e-09
-8.93188e-07
6.25419e-08
-8.92101e-07
1.29126e-07
-8.85454e-07
1.94835e-07
-8.73259e-07
2.5913e-07
-8.55473e-07
-8.31886e-07
3.21169e-07
-2.76786e-07
-9.05755e-07
3.42544e-07
-2.09133e-07
-9.29942e-07
-1.40693e-07
-9.46848e-07
-7.19463e-08
-9.57406e-07
-3.14504e-09
-9.61989e-07
6.55438e-08
-9.60789e-07
1.33969e-07
-9.53879e-07
2.01914e-07
-9.41204e-07
2.68971e-07
-9.2253e-07
-8.97063e-07
3.34144e-07
-2.74574e-07
-9.71737e-07
3.4056e-07
-2.06498e-07
-9.98018e-07
-1.38288e-07
-1.01506e-06
-7.02655e-08
-1.02543e-06
-2.44922e-09
-1.02981e-06
6.52586e-08
-1.0285e-06
1.32967e-07
-1.02159e-06
2.00692e-07
-1.00893e-06
2.68185e-07
-9.90023e-07
-9.62557e-07
3.33697e-07
-2.63063e-07
-1.03573e-06
3.27072e-07
-1.96805e-07
-1.06428e-06
-1.31315e-07
-1.08055e-06
-6.65604e-08
-1.09018e-06
-2.25763e-09
-1.09411e-06
6.19625e-08
-1.09272e-06
1.26475e-07
-1.0861e-06
1.91592e-07
-1.07405e-06
2.57402e-07
-1.05583e-06
-1.02634e-06
3.21201e-07
-2.42028e-07
-1.08246e-06
2.88685e-07
-1.8026e-07
-1.12604e-06
-1.20087e-07
-1.14072e-06
-6.09377e-08
-1.14933e-06
-2.33871e-09
-1.15271e-06
5.62247e-08
-1.15128e-06
1.15273e-07
-1.14515e-06
1.75313e-07
-1.13409e-06
2.36961e-07
-1.11748e-06
-1.07403e-06
2.8481e-07
-2.14099e-07
-1.09931e-06
2.30944e-07
-1.59072e-07
-1.18107e-06
-1.05912e-07
-1.19388e-06
-5.38877e-08
-1.20136e-06
-2.42969e-09
-1.20416e-06
4.90505e-08
-1.20276e-06
1.01147e-07
-1.19724e-06
1.54453e-07
-1.18739e-06
2.09769e-07
-1.17279e-06
-1.09361e-06
2.29347e-07
-1.79948e-07
-1.04935e-06
1.52089e-07
-1.3366e-07
-1.22736e-06
-8.89669e-08
-1.23857e-06
-4.54197e-08
-1.2449e-06
-2.40813e-09
-1.24718e-06
4.06979e-08
-1.24587e-06
8.45287e-08
-1.24108e-06
1.297e-07
-1.23256e-06
1.76693e-07
-1.21979e-06
-1.04991e-06
1.52483e-07
-1.42058e-07
-9.38071e-07
6.93288e-08
-1.05017e-07
-1.2644e-06
-6.99043e-08
-1.27368e-06
-3.58915e-08
-1.27892e-06
-2.30467e-09
-1.28076e-06
3.14358e-08
-1.27961e-06
6.59053e-08
-1.27554e-06
1.01765e-07
-1.26841e-06
1.39815e-07
-1.25783e-06
-9.39914e-07
7.08263e-08
-1.02905e-07
-8.43261e-07
3.23244e-08
-7.60424e-08
-1.29126e-06
-5.0675e-08
-1.29905e-06
-2.62443e-08
-1.30335e-06
-2.11481e-09
-1.30489e-06
2.22064e-08
-1.30393e-06
4.7204e-08
-1.30054e-06
7.34856e-08
-1.2947e-06
1.01564e-07
-1.28591e-06
-8.47141e-07
3.32431e-08
-6.49555e-08
-7.72057e-07
1.39945e-08
-4.8573e-08
-1.30764e-06
-3.25353e-08
-1.31509e-06
-1.71142e-08
-1.31877e-06
-1.82262e-09
-1.32019e-06
1.36822e-08
-1.31943e-06
2.97331e-08
-1.31659e-06
4.67763e-08
-1.31174e-06
6.44816e-08
-1.30362e-06
-7.76086e-07
1.46186e-08
-3.05003e-08
-7.31874e-07
6.67784e-09
-2.42275e-08
-1.31391e-06
-1.64528e-08
-1.32286e-06
-8.98553e-09
-1.32623e-06
-1.47613e-09
-1.32769e-06
6.25004e-09
-1.32716e-06
1.43568e-08
-1.3247e-06
2.31433e-08
-1.32053e-06
3.07854e-08
-1.31126e-06
-7.35422e-07
6.793e-09
-4.30069e-09
-7.19776e-07
1.37738e-09
-3.80074e-09
-1.31315e-06
-2.94896e-09
-1.32371e-06
-2.1472e-09
-1.32704e-06
-1.12248e-09
-1.32872e-06
1.06022e-10
-1.32839e-06
1.5118e-09
-1.32611e-06
3.31036e-09
-1.32233e-06
4.85509e-09
-1.31153e-06
-7.21183e-07
1.71987e-09
1.61493e-08
-7.2956e-07
8.1134e-20
1.24091e-08
-1.30953e-06
7.71438e-09
-1.31902e-06
3.2285e-09
-1.32255e-06
-8.00054e-10
-1.32469e-06
-4.65377e-09
-1.32453e-06
-8.61108e-09
-1.32215e-06
-1.24808e-08
-1.31846e-06
-1.52683e-08
-1.30884e-06
-7.28745e-07
5.29425e-21
3.2626e-08
-7.59855e-07
1.22082e-21
2.44064e-08
-1.30138e-06
1.54599e-08
-1.31007e-06
7.06607e-09
-1.31416e-06
-5.37362e-10
-1.31709e-06
-8.01276e-09
-1.31706e-06
-1.59987e-08
-1.31416e-06
-2.43008e-08
-1.31016e-06
-3.17454e-08
-1.30147e-06
-7.58851e-07
2.86813e-22
4.41807e-08
-8.01184e-07
2.91511e-26
3.22055e-08
-1.2894e-06
2.02874e-08
-1.29816e-06
9.40003e-09
-1.30327e-06
-3.33064e-10
-1.30735e-06
-9.99594e-09
-1.3074e-06
-2.06364e-08
-1.30352e-06
-3.2141e-08
-1.29865e-06
-4.3615e-08
-1.28999e-06
-7.99146e-07
3.16836e-24
5.01611e-08
-8.50895e-07
4.1129e-28
3.60939e-08
-1.27533e-06
2.24776e-08
-1.28454e-06
1.05465e-08
-1.29134e-06
-1.7516e-10
-1.29663e-06
-1.08721e-08
-1.2967e-06
-2.27185e-08
-1.29168e-06
-3.61607e-08
-1.28521e-06
-5.00164e-08
-1.27614e-06
-8.48391e-07
2.07929e-28
5.18705e-08
-9.02683e-07
5.53118e-29
3.65202e-08
-1.25992e-06
2.26113e-08
-1.27063e-06
1.11396e-08
-1.27987e-06
-7.12689e-11
-1.28542e-06
-1.12751e-08
-1.2855e-06
-2.27775e-08
-1.28017e-06
-3.67111e-08
-1.27128e-06
-5.20408e-08
-1.26075e-06
-9.00267e-07
5.25699e-29
4.98651e-08
-9.52764e-07
4.57521e-30
3.37526e-08
-1.2438e-06
2.1405e-08
-1.25828e-06
1.1769e-08
-1.27023e-06
-2.08396e-11
-1.27363e-06
-1.18137e-08
-1.2737e-06
-2.15203e-08
-1.27047e-06
-3.40033e-08
-1.2588e-06
-5.02638e-08
-1.24448e-06
-9.50721e-07
4.13845e-30
4.34792e-08
-9.96702e-07
1.10477e-31
2.77358e-08
-1.22806e-06
1.97649e-08
-1.25031e-06
1.23556e-08
-1.26282e-06
-4.08117e-12
-1.26127e-06
-1.23899e-08
-1.26132e-06
-1.98651e-08
-1.26299e-06
-2.79633e-08
-1.2507e-06
-4.39371e-08
-1.22851e-06
-9.95122e-07
9.02806e-32