/*--------------------------------*- C++ -*----------------------------------*\
  =========                 |
  \\      /  F ield         | OpenFOAM: The Open Source CFD Toolbox
   \\    /   O peration     | Website:  https://openfoam.org
    \\  /    A nd           | Version:  8
     \\/     M anipulation  |
\*---------------------------------------------------------------------------*/
FoamFile
{
    version     2.0;
    format      ascii;
    class       volScalarField;
    location    "1.5";
    object      epsilon;
}
// * * * * * * * * * * * * * * * * * * * * * * * * * * * * * * * * * * * * * //

dimensions      [0 2 -3 0 0 0 0];

internalField   nonuniform List<scalar> 
9150
(
0.0313239
0.0124793
0.00313986
0.00100438
0.000554105
0.000554106
0.00100439
0.00313987
0.0124793
0.0313239
0.0302322
0.00878505
0.00176516
0.000656813
0.000423796
0.000423796
0.000656814
0.00176517
0.00878505
0.0302322
0.0284365
0.00698357
0.00114689
0.00054393
0.000381897
0.000381897
0.000543931
0.00114689
0.00698356
0.0284365
0.0265041
0.00604523
0.000864545
0.000510279
0.000369413
0.000369413
0.000510279
0.000864546
0.00604523
0.0265041
0.0245011
0.0056435
0.000723723
0.000503154
0.000367788
0.000367787
0.000503154
0.000723723
0.0056435
0.0245011
0.124233
0.0531797
0.0239212
0.0154897
0.0121172
0.0121171
0.0154894
0.0239206
0.0531779
0.124232
0.076218
0.0231537
0.0137223
0.00976435
0.00755466
0.00755459
0.00976422
0.0137221
0.0231534
0.0762179
0.0553742
0.0179248
0.00785325
0.00503671
0.00371042
0.0037104
0.00503667
0.0078532
0.0179248
0.0553742
0.0425219
0.0152587
0.00488805
0.00250746
0.00167999
0.00167999
0.00250745
0.00488804
0.0152587
0.0425219
0.0356298
0.0137422
0.00356992
0.00140223
0.000845342
0.000845341
0.00140223
0.00356993
0.0137422
0.0356298
1.61962
0.180168
0.0508171
0.0229109
0.0150199
0.0150213
0.0229151
0.0507972
0.179983
1.61089
0.281293
0.118449
0.0474606
0.0226947
0.0151469
0.0151479
0.0226982
0.0474683
0.118506
0.281249
0.236503
0.104352
0.0468397
0.0225261
0.015281
0.0152813
0.0225273
0.0468422
0.104371
0.236497
0.197951
0.0928292
0.0461861
0.0222977
0.015414
0.0154139
0.0222979
0.0461863
0.0928304
0.197949
0.156996
0.0876444
0.0424443
0.0210489
0.0150368
0.0150366
0.0210485
0.0424435
0.0876412
0.156995
148.606
149.403
149.854
150.079
150.097
149.813
149.147
148.048
146.478
144.392
62.9422
63.2519
63.4303
63.4874
63.4244
63.2361
62.9137
62.4481
61.8312
61.0546
49.0628
49.2381
49.3176
49.305
49.2022
49.0103
48.7286
48.3553
47.8883
47.325
45.6334
45.7091
45.7053
45.6261
45.4751
45.2554
44.9686
44.6153
44.1953
43.708
45.8605
45.8291
45.7306
45.571
45.3549
45.0868
44.7697
44.4055
43.9955
43.5402
48.1063
47.9427
47.7257
47.4623
47.1583
46.8191
46.4484
46.0492
45.6239
45.1746
51.8026
51.4688
51.0993
50.7015
50.2819
49.8459
49.3977
48.9405
48.4772
48.0108
56.7092
56.1564
55.5913
55.0214
54.4526
53.89
53.3371
52.7962
52.2688
51.7565
62.7044
61.8751
61.0639
60.2775
59.5206
58.7968
58.1078
57.4536
56.833
56.2435
69.7116
68.5416
67.4286
66.3777
65.3915
64.4711
63.6155
62.8212
62.0837
61.3951
77.6699
76.0876
74.6131
73.2486
71.9933
70.8445
69.7972
68.8441
67.9764
67.1818
86.513
84.4393
82.5413
80.8157
79.2561
77.8539
76.5993
75.4796
74.4817
73.5898
96.1455
93.5001
91.1195
88.9913
87.1007
85.4311
83.966
82.6862
81.5722
80.6033
106.427
103.14
100.229
97.6691
95.4333
93.4956
91.8309
90.4125
89.2118
88.2023
117.168
113.194
109.725
106.721
104.143
101.952
100.113
98.5917
97.3514
96.3584
128.141
123.463
119.436
116.001
113.102
110.69
108.718
107.145
105.929
105.027
139.09
133.731
129.176
125.346
122.171
119.589
117.544
115.984
114.865
114.139
149.756
143.776
138.755
134.594
131.209
128.526
126.479
125.011
124.071
123.608
159.882
153.38
147.986
143.585
140.077
137.378
135.417
134.128
133.454
133.345
169.229
162.343
156.698
152.166
148.64
146.027
144.25
143.241
142.939
143.288
177.602
170.498
164.743
160.206
156.775
154.36
152.88
152.268
152.463
153.406
184.902
177.744
172.016
167.593
164.372
162.266
161.201
161.114
161.95
163.658
191.152
184.049
178.447
174.234
171.316
169.617
169.073
169.633
171.254
173.896
196.384
189.38
183.958
180.015
177.468
176.251
176.312
177.616
180.138
183.859
200.512
193.63
188.423
184.79
182.656
181.965
182.682
184.789
188.286
193.184
203.356
196.635
191.676
188.382
186.682
186.533
187.915
190.833
195.313
201.402
204.736
198.228
193.553
190.616
189.351
189.728
191.744
195.425
200.826
208.029
204.478
198.27
193.927
191.36
190.514
191.369
193.942
198.279
204.464
212.613
202.55
196.731
192.761
190.563
190.094
191.348
194.357
199.188
205.947
214.782
199.077
193.705
190.126
188.273
188.116
189.659
192.946
198.058
205.117
214.291
194.278
189.381
186.187
184.636
184.708
186.414
189.802
194.958
202.006
211.115
188.413
184.015
181.188
179.888
180.101
181.845
185.165
190.142
196.887
205.553
181.871
177.944
175.441
174.33
174.605
176.28
179.399
184.028
190.263
198.229
175.029
171.512
169.273
168.289
168.555
170.087
172.915
177.094
182.694
189.811
168.201
165.016
162.975
162.062
162.273
163.618
166.119
169.814
174.753
181.001
161.623
158.684
156.779
155.893
156.021
157.167
159.347
162.583
166.911
172.371
155.421
152.654
150.835
149.948
149.984
150.944
152.835
155.673
159.479
164.284
149.628
146.985
145.221
144.319
144.269
145.068
146.718
149.229
152.616
156.899
144.241
141.685
139.957
139.039
138.917
139.587
141.048
143.304
146.365
150.245
139.212
136.725
135.026
134.096
133.921
134.495
135.816
137.886
140.712
144.306
134.476
132.052
130.383
129.45
129.241
129.748
130.97
132.911
135.578
138.983
129.977
127.614
125.976
125.048
124.817
125.28
126.434
128.286
130.843
134.121
125.669
123.359
121.75
120.829
120.586
121.016
122.122
123.908
126.385
129.568
121.502
119.235
117.651
116.736
116.483
116.888
117.954
119.687
122.098
125.204
117.418
115.188
113.623
112.712
112.449
112.832
113.862
115.548
117.9
120.936
113.361
111.164
109.617
108.709
108.434
108.792
109.788
111.428
113.727
116.7
109.287
107.123
105.592
104.683
104.394
104.725
105.681
107.274
109.516
112.428
105.17
103.038
101.519
100.606
100.296
100.591
101.5
103.034
105.209
108.047
100.994
98.8944
97.3834
96.4577
96.1174
96.3669
97.2145
98.6735
100.762
103.502
96.7896
94.701
93.1817
92.2299
91.8465
92.036
92.8073
94.1733
96.152
98.7658
92.5446
90.4461
88.9032
87.9124
87.4738
87.591
88.2718
89.5284
91.3777
93.841
88.2192
86.1049
84.5316
83.4948
82.9933
83.0293
83.6091
84.7433
86.4469
88.7398
83.7921
81.6601
80.0553
78.9711
78.4042
78.355
78.8276
79.8304
81.3761
83.4821
79.2397
77.097
75.4669
74.3404
73.7119
73.579
73.9433
74.8108
76.1912
78.0988
74.5444
72.4071
70.7665
69.6104
68.9301
68.7208
68.9814
69.715
70.9285
72.633
69.6981
67.5937
65.9659
64.7998
64.0838
63.8105
63.9765
64.5825
65.6327
67.1351
64.7138
62.6783
61.0936
59.9422
59.2107
58.8898
58.9741
59.4621
60.3561
61.6617
59.6336
57.7065
56.1975
55.0879
54.3632
54.0128
54.0302
54.4122
55.1594
56.2754
54.5283
52.7467
51.3443
50.3023
49.606
49.2444
49.2102
49.4993
50.1107
51.0463
49.4891
47.8838
46.6137
45.6613
45.0125
44.6566
44.5861
44.7961
45.2845
46.0514
44.619
43.2111
42.0916
41.2449
40.6586
40.3229
40.2305
40.3762
40.7567
41.3707
40.0241
38.8228
37.8623
37.1301
36.616
36.3117
36.2104
36.3071
36.5979
37.0797
35.8035
34.8044
34.0008
33.3838
32.9457
32.6799
32.5809
32.6437
32.8644
33.2389
32.038
31.2237
30.565
30.0563
29.6923
29.4682
29.3797
29.4225
29.5927
29.886
28.7804
28.1243
27.5911
27.1779
26.8814
26.6984
26.6258
26.66
26.7973
27.0339
26.0518
25.5229
25.0921
24.7583
24.5199
24.3748
24.3208
24.3549
24.4742
24.6747
23.8454
23.4131
23.0614
22.7904
22.5995
22.4875
22.4528
22.4932
22.6057
22.7871
22.1368
21.7731
21.479
21.2552
21.1016
21.0177
21.0021
21.053
21.1678
21.3434
20.8927
20.5741
20.3193
20.1291
20.004
19.9435
19.9466
20.0115
20.1357
20.3161
20.0802
19.7877
19.5572
19.3897
19.2857
19.2451
19.2666
19.3486
19.4883
19.6825
19.6722
19.3907
19.1725
19.0189
18.9305
18.9071
18.9477
19.0499
19.2111
19.4274
19.6503
19.3671
19.1511
19.0041
18.927
18.9196
18.9807
19.1076
19.2967
19.5437
20.0052
19.7073
19.4832
19.3355
19.2658
19.2743
19.3593
19.5173
19.7434
20.0319
20.7334
20.4035
20.157
19.9985
19.9314
19.9566
20.072
20.2723
20.5503
20.8976
21.8329
21.4418
21.1485
20.9623
20.8897
20.9335
21.0909
21.3538
21.7105
22.1474
23.298
22.7932
22.41
22.1657
22.0733
22.1388
22.3585
22.7194
23.2024
23.7848
25.1162
24.4076
23.8614
23.5088
23.3725
23.464
23.7784
24.2954
24.9845
25.8077
27.2691
26.2135
25.3918
24.8549
24.6386
24.7618
25.2179
25.9775
26.9948
28.21
29.7377
28.1267
26.8716
26.047
25.7023
25.8638
26.5229
27.6409
29.1568
30.9847
32.4995
30.0553
28.1669
26.929
26.3981
26.6039
27.536
29.151
31.379
34.1126
35.5031
31.8904
29.1441
27.3592
26.5818
26.8353
28.1078
30.3621
33.538
37.5272
38.634
33.4852
29.6646
27.2165
26.1427
26.4421
28.1027
31.1114
35.4527
41.0717
41.6252
34.6201
29.5812
26.4104
25.0179
25.3551
27.4097
31.2158
36.8495
44.4059
44.0013
35.0076
28.756
24.9004
23.2114
23.5723
25.9694
30.4994
37.3749
46.9483
44.9622
34.3214
27.104
22.724
20.8113
21.1795
23.8109
28.858
36.6547
47.7735
44.1211
32.4498
24.6839
20.0249
17.9951
18.3569
21.0879
26.3742
34.6263
46.5663
41.1725
29.4505
21.6789
17.0224
14.9907
15.3362
18.0348
23.2741
31.4618
43.3212
36.7755
25.7547
18.4041
13.971
12.0252
12.345
14.9085
19.8804
27.6133
38.7367
31.7243
21.8269
15.1538
11.0826
9.27593
9.56046
11.9183
16.479
23.5296
33.6086
26.6263
17.9996
12.1271
8.49485
6.85689
7.0978
9.20212
13.2556
19.4823
28.3507
21.7268
14.4403
9.42983
6.28129
4.829
5.02233
6.84609
10.3336
15.6493
23.1884
17.2091
11.2342
7.09676
4.45936
3.20956
3.35511
4.88285
7.77828
12.1621
18.3613
13.2308
8.45385
5.15002
3.02675
1.99083
2.09261
3.32301
5.63441
9.13008
14.0928
9.82569
6.12077
3.58548
1.9565
1.13829
1.20289
2.14701
3.90859
6.59101
10.4475
6.98813
4.23317
2.38121
1.20002
0.592226
0.627957
1.30981
2.58066
4.54355
7.42345
4.70377
2.77739
1.5023
0.695007
0.276807
0.292909
0.749525
1.6131
2.96748
4.99466
2.95842
1.72614
0.900326
0.375765
0.1153
0.120559
0.397609
0.953213
1.8297
3.13567
1.72674
1.03071
0.513417
0.184167
0.0445486
0.0455321
0.190296
0.533433
1.07801
1.81843
0.973921
0.622167
0.273898
0.0779495
0.0204694
0.0205241
0.0787163
0.278734
0.63849
1.00961
0.723293
0.404865
0.123787
0.0317687
0.015398
0.0153979
0.0317405
0.12396
0.407494
0.730007
141.534
137.913
133.582
128.575
122.979
116.922
110.559
104.05
97.7116
91.8688
86.248
80.7737
75.4395
70.2606
65.2556
60.441
55.8292
51.4291
47.246
43.2825
39.5383
36.0113
32.6972
29.5902
26.6833
23.9681
21.4359
19.0772
16.8825
14.8418
12.9452
11.1822
9.54178
8.00959
6.55331
5.15117
3.85221
2.59571
1.51042
0.829022
60.0521
58.7956
57.336
55.6845
53.8617
51.8959
49.821
47.6802
45.5416
43.4432
41.3368
39.2055
37.051
34.8861
32.7285
30.5969
28.5085
26.4783
24.5181
22.6367
20.8405
19.1331
17.5166
15.991
14.5553
13.2073
11.9442
10.7622
9.65746
8.6257
7.66256
6.7638
5.92553
5.14457
4.41971
3.75728
3.17746
2.72388
2.54924
4.01421
46.6222
45.7572
44.7693
43.6632
42.4484
41.1377
39.7464
38.2913
36.7909
35.2593
33.6902
32.0836
30.4454
28.7865
27.1209
25.4632
23.8279
22.2279
20.6741
19.1751
17.7374
16.3656
15.0625
13.8294
12.6665
11.573
10.5475
9.58805
8.69231
7.85801
7.0831
6.36614
5.70691
5.10743
4.57394
4.12141
3.7842
3.6506
4.05357
8.04076
43.1171
42.4037
41.5977
40.696
39.6984
38.6071
37.427
36.1654
34.8325
33.4378
31.9856
30.4848
28.9478
27.3894
25.8252
24.2704
22.7389
21.2428
19.7918
18.3939
17.0548
15.7783
14.5671
13.4222
12.3439
11.3317
10.3844
9.50054
8.6787
7.91753
7.21628
6.57518
5.99629
5.4848
5.05164
4.71949
4.53885
4.64512
5.57424
12.1346
43.0075
42.3836
41.6922
40.9228
40.062
39.0945
38.0073
36.7996
35.4809
34.0623
32.5591
30.9922
29.3847
27.759
26.1358
24.5328
22.9647
21.443
19.9764
18.5714
17.2321
15.9613
14.7603
13.6294
12.5682
11.5757
10.6504
9.79099
8.99613
8.26492
7.59728
6.99452
6.46023
6.00196
5.63458
5.38812
5.32958
5.64136
7.0536
16.0522
44.6736
44.1162
43.5281
42.8979
42.1981
41.3762
40.3704
39.1708
37.791
36.2349
34.5447
32.7707
30.958
29.1418
27.3488
25.5988
23.9063
22.2812
20.7299
19.2563
17.8621
16.548
15.3134
14.1571
13.0774
12.0725
11.1402
10.2788
9.48667
8.76301
8.10806
7.52378
7.01494
6.59108
6.27072
6.09111
6.13561
6.6323
8.49456
19.7704
47.516
46.9983
46.4925
46.0036
45.5232
44.9538
44.0994
42.9454
41.5526
39.7547
37.7033
35.5416
33.3682
31.2369
29.1752
27.1986
25.3163
23.5329
21.8501
20.2674
18.7831
17.3944
16.0985
14.892
13.7717
12.7342
11.7767
10.8966
10.0918
9.36148
8.70586
8.12736
7.63174
7.2304
6.94536
6.82095
6.95661
7.62443
9.91143
23.3313
51.2302
50.6968
50.1901
49.7074
49.227
48.7438
48.272
47.6373
46.0665
44.4107
41.9356
39.1214
36.4061
33.8422
31.4265
29.1618
27.0442
25.0669
23.2233
21.5064
19.9097
18.4267
17.0516
15.7786
14.6027
13.5191
12.5239
11.6135
10.7854
10.0384
9.37275
8.79119
8.30037
7.91346
7.65593
7.57909
7.798
8.62728
11.3201
26.7848
55.6457
55.038
54.444
53.8567
53.2763
52.7105
52.1693
51.6053
49.9862
47.5321
45.2792
42.6749
39.6876
36.7105
33.9109
31.3374
28.9695
26.7862
24.7704
22.9083
21.1881
19.5999
18.1349
16.7851
15.5437
14.4047
13.3628
12.4138
11.5547
10.7837
10.1012
9.51013
9.01807
8.63992
8.40454
8.37006
8.66683
9.6506
12.7341
30.1606
60.7027
60.0024
59.3206
58.6478
57.9805
57.3155
56.6479
55.5968
53.2004
50.3287
47.6202
45.0367
42.3224
39.399
36.408
33.5789
30.9902
28.6165
26.4355
24.4295
22.5838
20.886
19.3255
17.8927
16.5794
15.3783
14.2834
13.2897
12.3935
11.5931
10.8885
10.2831
9.78546
9.41204
9.19511
9.19955
9.57065
10.7043
14.1688
33.5079
66.3982
65.622
64.8819
64.1627
63.4504
62.7253
61.739
59.8471
56.9294
53.6358
50.4928
47.5914
44.7566
41.8423
38.7883
35.8108
33.058
30.5234
28.1919
26.0485
24.0789
22.2704
20.6114
19.0915
17.7015
16.4335
15.2806
14.2373
13.2995
12.4651
11.7344
11.1112
10.6046
10.2331
10.0323
10.0737
10.5176
11.7993
15.6402
36.8688
72.7337
71.9125
71.1551
70.4391
69.7394
68.925
67.4654
64.7859
61.2438
57.4552
53.8817
50.6401
47.5937
44.5317
41.2825
38.1283
35.2094
32.5175
30.0391
27.7601
25.6667
23.7459
21.9858
20.3755
18.9052
17.5662
16.3513
15.2545
14.2714
13.3997
12.6398
11.9959
11.4782
11.1069
10.9211
10.9995
11.5175
12.9517
17.1805
40.3339
79.7044
78.8784
78.148
77.4871
76.8686
75.8871
73.6526
70.1311
65.9162
61.6363
57.671
54.1046
50.7874
47.437
43.9187
40.5658
37.4694
34.6148
31.9863
29.5691
27.349
25.3127
23.4479
21.7432
20.1884
18.7745
17.4937
16.3396
15.3077
14.3956
13.6037
12.9369
12.4063
12.0342
11.8635
11.9804
12.5769
14.1739
18.8195
43.9914
87.3056
86.5258
85.8716
85.2992
84.7518
83.4779
80.3112
75.8113
70.8844
66.1292
61.8219
57.9651
54.3354
50.4964
46.6739
43.1292
39.8529
36.8299
34.0452
31.4838
29.1313
26.9741
24.9994
23.1954
21.5515
20.0582
18.7073
17.4921
16.4079
15.4522
14.6257
13.9337
13.3885
13.0145
12.8587
13.0149
13.6924
15.4574
20.5318
47.7923
95.533
94.8853
94.4089
94.0401
93.6704
91.9166
87.4289
81.8252
76.1768
70.9709
66.3265
62.1187
58.0024
53.7251
49.6397
45.8691
42.3906
39.1837
36.2306
33.5149
31.0212
28.7353
26.6438
24.7343
22.9955
21.4176
19.9919
18.7114
17.5711
16.5686
15.7047
14.9852
14.4237
14.0468
13.9054
14.1016
14.8622
16.8007
22.3188
51.7648
104.363
103.965
103.817
103.857
103.499
100.675
94.9544
88.2484
81.9245
76.2628
71.2255
66.5739
61.8055
57.1256
52.7938
48.7914
45.097
41.691
38.5551
35.6722
33.026
30.6015
28.3844
26.3617
24.5214
22.8529
21.3472
19.9968
18.7965
17.7436
16.8393
16.0899
15.5103
15.1292
15.0019
15.2388
16.0851
18.2034
24.1834
55.9339
113.736
113.703
114.015
114.613
114.295
110.257
102.868
95.1264
88.151
81.9261
76.3438
71.0609
65.7934
60.8089
56.1943
51.93
47.9945
44.3676
41.0302
37.964
35.1516
32.5765
30.2237
28.0789
26.1293
24.3637
22.7722
21.3469
20.0821
18.9752
18.0274
17.2457
16.646
16.2595
16.146
16.4245
17.3596
19.6651
26.1288
60.3072
123.57
124.007
124.864
126.016
125.409
119.198
110.486
102.191
94.6869
87.9258
81.8283
75.9048
70.1547
64.8134
59.8708
55.3064
51.0981
47.2241
43.6631
40.395
37.4005
34.6617
32.1617
29.8851
27.818
25.9481
24.2647
22.7592
21.4255
20.2607
19.2662
18.4495
17.8277
17.4347
17.3346
17.6558
18.6829
21.1835
28.1529
64.8907
133.773
134.811
136.374
138.337
136.708
127.836
118.317
109.563
101.588
94.3643
87.7877
81.2353
74.9536
69.1666
63.8357
58.9271
54.4114
50.262
46.4542
42.9646
39.7715
36.8548
34.1958
31.7774
29.5842
27.6026
25.8209
24.2298
22.8226
21.5961
20.5517
19.6974
19.0517
18.6509
18.5641
18.929
20.0513
22.7547
30.2516
69.6748
144.3
146.072
148.495
151.413
147.725
137.144
127.01
117.65
109.11
101.393
94.1255
86.8329
80.0549
73.8089
68.0607
62.7764
57.924
53.4734
49.3962
45.666
42.2581
39.1497
36.32
33.7498
31.422
29.3215
27.4354
25.7535
24.2684
22.9763
21.8788
20.9845
20.3131
19.9034
19.8295
20.2392
21.4597
24.3732
32.4172
74.6453
155.145
157.784
161.115
164.621
159.633
147.878
136.795
126.597
117.309
108.917
100.831
92.8511
85.5003
78.7419
72.5348
66.8401
61.6214
56.8442
52.4761
48.4871
44.849
41.536
38.5246
35.7933
33.323
31.0969
29.1008
27.3232
25.7559
24.3949
23.2415
22.3048
21.6059
21.1863
21.1252
21.5805
22.9022
26.0328
34.6435
79.7534
166.342
170.145
174.805
179.011
172.524
159.762
147.649
136.465
126.266
116.99
107.93
99.2432
91.2634
83.9428
77.2346
71.0945
65.4805
60.3528
55.674
51.4097
47.5277
43.9987
40.796
37.8955
35.2759
32.9185
30.8074
28.93
27.277
25.8441
24.6323
23.6512
22.9233
22.4928
22.4442
22.9459
24.3712
27.7246
36.9178
85.0004
177.75
183.024
189.417
195.019
187.618
173.339
159.83
147.401
136.122
125.634
115.431
105.98
97.3104
89.375
82.1233
75.504
69.4679
63.9684
58.9621
54.4089
50.272
46.518
43.1166
40.0409
37.2668
34.7736
32.5438
30.5633
28.822
27.3147
26.0425
25.0155
24.2574
23.8153
23.7789
24.3275
25.858
29.4385
39.2269
90.3793
189.067
196.055
204.46
212.965
205.808
188.872
173.333
159.277
146.646
134.769
123.418
113.046
103.591
94.9787
87.1415
80.0138
73.5346
67.6481
62.3029
57.4521
53.0537
49.0693
45.465
42.2103
39.2788
36.6473
34.2965
32.211
30.3796
28.7965
27.4627
26.3886
25.5995
25.1452
25.1208
25.7164
27.353
31.1626
41.5538
95.8561
199.893
208.825
219.619
231.771
225.324
205.308
187.464
171.632
157.501
144.136
131.597
120.239
109.952
100.634
92.1916
84.5432
77.6137
71.3358
65.6491
60.4995
55.8387
51.6235
47.8159
44.3821
41.2928
38.5226
36.0504
33.8594
31.9375
30.2781
28.8822
27.7607
26.9402
26.4732
26.4606
27.1033
28.8463
32.8864
43.8824
101.338
209.646
220.593
233.889
249.255
242.889
220.725
201.02
183.688
168.124
153.288
139.611
127.292
116.191
106.18
97.1477
88.9918
81.6238
74.9651
68.9461
63.5054
58.5888
54.1483
50.1417
46.5323
43.2879
40.3813
37.7894
35.4942
33.4825
31.7475
30.2899
29.1211
28.2693
27.7897
27.7888
28.4784
30.3278
34.5984
46.2002
106.708
217.713
230.56
246.223
264.589
258.583
234.493
213.227
194.64
177.939
161.869
147.14
133.938
122.093
111.45
101.875
93.2519
85.4784
78.4658
72.1365
66.4225
61.2644
56.6101
52.4139
48.6363
45.2428
42.2044
39.4965
37.1
35.0011
33.1922
31.6741
30.4591
29.5765
29.0846
29.0953
29.8314
31.7859
36.2845
48.4847
112.038
223.518
237.986
255.68
276.732
271.932
246.069
223.473
203.835
186.338
169.434
153.846
139.918
127.455
116.282
106.247
97.223
89.0968
81.7725
75.1664
69.206
63.8279
58.9769
54.6048
50.67
47.1364
43.9733
41.1552
38.6621
36.4794
34.5994
33.0232
31.7635
30.8512
30.3477
30.3701
31.1519
33.2099
37.9327
50.7228
117.437
226.574
242.243
261.496
284.717
281.634
254.59
231.111
210.763
192.866
175.617
159.453
145.021
132.116
120.551
110.166
100.826
92.4149
84.8321
77.9915
71.8181
66.2467
61.2203
56.6896
52.6115
48.949
45.6704
42.7495
40.1656
37.9041
35.957
34.3256
33.0234
32.083
31.5686
31.6028
32.4296
34.5892
39.5331
52.9113
122.647
226.514
242.779
262.861
287.307
286.34
259.226
235.585
215.024
197.036
180.077
163.795
149.13
135.988
124.19
113.577
104.017
95.3942
87.611
80.5816
74.2315
68.4959
63.3178
58.6476
54.4419
50.6632
47.2796
44.2646
41.5972
39.2625
37.2529
35.5699
34.2281
33.2615
32.7371
32.7828
33.653
35.9103
41.0664
55.0048
127.667
223.218
239.3
259.177
283.5
285.815
259.828
236.756
216.524
198.766
182.666
166.921
152.275
139.092
127.209
116.484
106.792
98.027
90.0975
82.9225
76.4307
70.5594
65.253
60.4627
56.1456
52.2643
48.7871
45.6874
42.9442
40.5429
38.4761
36.7458
35.3673
34.3765
33.8431
33.8999
34.8111
37.1604
42.5165
56.9855
132.449
217
232.103
250.581
272.826
279.613
256.741
234.869
215.525
198.418
183.194
168.804
154.603
141.547
129.7
118.949
109.19
100.334
92.3002
85.0142
78.4101
72.4281
67.015
62.123
57.7103
53.7401
50.1808
47.0063
44.1958
41.7349
39.6165
37.8434
36.4317
35.4189
34.8774
34.9447
35.894
38.3288
43.8707
58.8326
136.9
208.702
222.453
239.231
259.503
269.206
250.315
230.252
212.341
196.364
182.106
169.262
156.426
143.601
131.829
121.078
111.277
102.353
94.2379
86.8638
80.1691
74.0971
68.5959
63.6194
59.1263
55.0804
51.4508
48.2116
45.3423
42.829
40.6651
38.854
37.4128
36.3804
35.8318
35.9088
36.893
39.406
45.1175
60.5296
140.976
199.105
211.199
225.783
243.118
253.587
240.883
223.524
207.458
192.956
179.921
168.232
157.415
145.582
133.784
122.977
113.108
104.112
95.9221
88.4737
81.7053
75.5608
69.9889
64.9439
60.3851
56.2768
52.5886
49.2948
46.3756
43.8174
41.6142
39.77
38.303
37.2535
36.6988
36.7848
37.8006
40.3843
46.2497
62.0699
144.665
189.11
199.567
212.037
226.655
236.876
229.569
215.682
201.599
188.68
176.953
166.425
157.082
147.306
135.586
124.643
114.672
105.596
97.3407
89.8332
83.0092
76.8106
71.1858
66.0888
61.4792
57.3219
53.5868
50.2488
47.2886
44.6931
42.4568
40.5846
39.0957
38.0316
37.4717
37.5658
38.6096
41.2563
47.2588
63.4438
147.936
179.427
188.468
199.156
211.554
221.279
218.09
207.899
195.734
184.181
173.578
163.946
155.29
147.344
137.117
125.95
115.875
106.746
98.456
90.9191
84.0658
77.8363
72.1787
67.0474
62.4027
58.2099
54.4397
51.0678
48.0754
45.4501
43.1871
41.2919
39.7847
38.7083
38.144
38.2447
39.3121
42.012
48.1311
64.6264
150.738
170.483
178.404
187.742
198.546
208.055
208.043
200.851
190.554
180.073
170.384
161.423
153.216
145.852
137.176
126.466
116.537
107.484
99.2327
91.7147
84.8668
78.6333
72.9646
67.8171
63.1525
58.9376
55.1439
51.748
48.7321
46.0843
43.8006
41.8873
40.3654
39.2788
38.7105
38.816
39.902
42.6446
48.858
65.6065
153.044
162.428
169.494
177.839
187.558
197.24
199.52
194.43
185.813
176.347
167.307
158.877
151.103
144.006
136.462
126.658
116.847
107.889
99.71
92.2412
85.4248
79.2091
73.5479
68.4002
63.7297
59.5048
55.6983
52.2878
49.2564
46.5931
44.2945
42.3676
40.8343
39.7395
39.1674
39.2757
40.375
43.1493
49.4343
66.3773
154.844
155.251
161.629
169.103
177.675
187.277
192.719
188.864
181.438
172.781
164.194
156.202
148.946
142.315
135.448
126.376
116.808
108.003
99.9259
92.5277
85.7602
79.5777
73.9379
68.8028
64.1381
59.9137
56.1038
52.6872
49.6477
46.9753
44.6672
42.7311
41.1895
40.0882
39.5124
39.6214
40.7284
43.5234
49.857
66.9354
156.136
148.953
154.877
161.821
169.791
178.764
185.2
183.432
177.534
169.753
161.554
153.807
146.845
140.557
134.21
126.001
116.64
107.935
99.9409
92.6098
85.8953
79.7537
74.1446
69.0316
64.382
60.167
56.3621
52.947
49.9063
47.2306
44.918
42.9767
41.4298
40.3237
39.7443
39.8517
40.961
43.7653
50.1241
67.2772
156.901
143.401
149.058
155.727
163.449
172.276
179.537
179.231
174.487
167.382
159.439
151.754
144.837
138.619
132.455
125.203
116.325
107.684
99.7592
92.4944
85.8376
79.7439
74.1736
69.0912
64.465
60.2676
56.4752
53.0684
50.0328
47.3595
45.0472
43.1047
41.5553
40.4458
39.8628
39.9666
41.0729
43.8759
50.2372
67.4066
157.155
138.387
143.872
150.367
157.925
166.61
174.295
175.392
171.749
165.248
157.544
149.886
142.944
136.763
130.804
124.092
115.634
107.153
99.3439
92.169
85.5845
79.5498
74.0276
68.9843
64.3898
60.2175
56.4448
53.0531
50.0286
47.3631
45.0556
43.1155
41.5664
40.4552
39.8686
39.967
41.0654
43.857
50.2006
67.3344
156.947
133.723
139.078
145.435
152.853
161.394
169.444
171.865
169.219
163.271
155.77
148.139
141.175
135.022
129.253
122.956
114.779
106.43
98.7323
91.6508
85.1449
79.1765
73.7103
68.714
64.1587
60.0189
56.2728
52.9026
49.8951
47.2425
44.9445
43.0105
41.4644
40.3532
39.7633
39.8545
40.9404
43.7112
50.0175
67.0671
156.309
129.263
134.502
140.729
148.01
156.43
165.044
168.691
166.6
161.029
153.792
146.318
139.454
133.403
127.806
121.775
113.776
105.534
97.9375
90.948
84.5241
78.6279
73.2244
68.2824
63.7737
59.6736
55.961
52.6186
49.6339
46.9995
44.7155
42.7914
41.2512
40.1417
39.5488
39.6312
40.7002
43.4408
49.6899
66.6036
155.211
124.906
130.029
136.103
143.163
151.229
160.275
166.292
164.329
158.805
151.73
144.441
137.733
131.807
126.331
120.447
112.573
104.437
96.9456
90.0539
83.7192
77.9028
72.5702
67.6905
63.2361
59.183
55.5108
52.2028
49.2469
46.6361
44.3707
42.4603
40.929
39.8232
39.2279
39.3002
40.3482
43.0497
49.2225
65.9506
153.669
120.597
125.631
131.609
138.563
146.52
155.487
162.337
161.591
156.676
149.877
142.714
136.069
130.18
124.723
118.855
111.091
103.098
95.734
88.9568
82.7242
76.9988
71.7468
66.9383
62.5467
58.5485
54.9241
51.6572
48.7362
46.1545
43.9125
42.0201
40.5009
39.4009
38.8039
38.8651
39.8885
42.5428
48.6217
65.1174
151.709
116.256
121.221
127.141
134.064
142.046
151.144
158.916
159.426
155.141
148.468
141.228
134.479
128.516
122.978
116.997
109.326
101.512
94.2999
87.6547
81.5381
75.9153
70.7544
66.0267
61.7066
57.7715
54.2024
50.9837
48.104
45.5573
43.3439
41.4736
39.97
38.8782
38.2809
38.3305
39.3263
41.926
47.8948
64.1153
149.358
111.793
116.671
122.514
129.383
137.352
146.496
154.945
156.973
153.491
146.997
139.675
132.814
126.78
121.159
114.981
107.343
99.7126
92.66
86.1559
80.1651
74.6548
69.5945
64.9569
60.7171
56.8536
53.3477
50.1845
47.353
44.8472
42.6678
40.8244
39.3401
38.2593
37.6631
37.7012
38.6669
41.2057
47.0498
62.9555
146.644
107.133
111.88
117.587
124.322
132.178
141.275
150.481
154.006
151.182
144.969
137.749
130.929
124.936
119.301
112.886
105.201
97.7227
90.8243
84.4651
78.6074
73.2181
68.2677
63.7294
59.5792
55.796
52.3617
49.2618
46.4855
44.0273
41.8876
40.076
38.6152
37.5486
36.9556
36.9826
37.9166
40.3891
46.0954
61.6506
143.598
102.244
106.805
112.293
118.766
126.283
134.897
144.607
150.953
148.443
142.396
135.352
128.706
122.915
117.492
110.569
102.768
95.4974
88.7765
82.5749
76.8605
71.6025
66.7722
62.3435
58.2928
54.5995
51.2458
48.2176
45.5043
43.1005
41.0068
39.2325
37.7997
36.7509
36.1635
36.1803
37.0815
39.4833
45.0406
60.2131
140.247
97.1369
101.473
106.704
112.884
120.071
128.328
137.711
144.917
144.182
139.123
132.489
125.998
120.296
114.91
107.842
100.165
93.066
86.5155
80.4772
74.9164
69.8015
65.1036
60.7965
56.8569
53.2643
50.0013
47.054
44.4121
42.0704
40.0293
38.2981
36.8982
35.8711
35.2922
35.3004
36.1684
38.496
43.8945
58.6558
136.623
91.8279
95.9094
100.851
106.708
113.55
121.461
130.546
138.613
139.738
135.663
129.318
122.835
117.117
111.75
104.732
97.261
90.3636
84.0064
78.1509
72.7617
67.8067
63.2569
59.0859
55.2706
51.7909
48.6298
45.7734
43.212
40.9403
38.9591
37.2772
35.9156
34.9146
34.3474
34.349
35.184
37.4349
42.6663
56.9909
132.751
86.3385
90.1327
94.7404
100.216
106.628
114.072
122.681
131.27
134.178
131.134
125.296
119.004
113.374
108.107
101.262
94.0371
87.3722
81.2342
75.585
70.3888
65.6133
61.2292
57.2105
53.5343
50.1808
47.1334
44.3788
41.9075
39.7145
37.8007
36.1747
34.8571
33.8868
33.335
33.3324
34.1352
36.3075
41.3649
55.2307
128.657
80.7052
84.1836
88.4146
93.4396
99.3045
106.061
113.757
122.393
128.159
126.111
120.759
114.698
109.211
104.111
97.486
90.5118
84.0959
78.1986
72.7778
67.7962
63.2204
59.0209
55.1717
51.6501
48.4368
45.5158
42.8742
40.5031
38.3977
36.5591
34.9959
33.7281
32.7936
32.2611
32.257
33.029
35.1217
39.9994
53.3869
124.366
74.9811
78.1306
81.9692
86.5289
91.8449
97.9578
104.924
112.823
119.625
120.038
115.732
110.016
104.662
99.7245
93.3605
86.6666
80.527
74.8961
69.7284
64.9844
60.6297
56.6344
52.9724
49.6216
46.5631
43.7815
41.2646
39.0039
36.9953
35.24
33.7467
32.5348
31.6412
31.1322
31.1297
31.8724
33.8852
38.5786
51.4706
119.899
69.2241
72.0417
75.4856
79.5793
84.3481
89.8154
96.0071
102.943
110.422
114.047
110.708
105.173
99.8033
94.9621
88.8655
82.4902
76.6597
71.3245
66.4368
61.9552
57.8442
54.0736
50.6175
47.4542
44.5655
41.9366
39.5562
37.4165
35.5139
33.8501
32.4337
31.2839
30.4363
29.955
29.9574
30.6729
32.6058
37.1114
49.4932
115.278
63.4954
65.984
69.0378
72.6747
76.9152
81.7783
87.2868
93.4815
100.434
105.869
104.573
99.7051
94.5263
89.804
83.9968
77.9773
72.4899
67.4819
62.9032
58.7107
54.8679
51.3441
48.1136
45.1552
42.4517
39.9891
37.7572
35.7489
33.9615
32.3971
31.0646
29.9828
29.1863
28.737
28.7476
29.4381
31.2916
35.6069
47.4659
110.525
57.86
60.0247
62.6929
65.8794
69.6012
73.8736
78.7066
84.1063
90.0548
96.2407
98.2688
93.9949
88.9468
84.3038
78.7251
73.1084
68.0035
63.3599
59.1249
55.253
51.7063
48.4537
45.47
42.735
40.2325
37.9499
35.8782
34.0115
32.3481
30.8907
29.6485
28.6403
27.8998
27.4865
27.5084
28.1762
29.9514
34.0745
45.4006
105.663
52.3897
54.2371
56.5231
59.2638
62.4748
66.1764
70.3901
75.1435
80.4948
86.5406
90.7103
87.4822
83.0082
78.5202
73.0675
67.8572
63.1742
58.9427
55.0972
51.5861
48.3694
45.4161
42.7023
40.2096
37.9239
35.8344
33.9339
32.2181
30.6864
29.3427
28.1967
27.267
26.5866
26.2128
26.249
26.8962
28.5942
32.5243
43.3102
100.719
47.1646
48.7044
50.6145
52.9068
55.5963
58.7
62.2413
66.2533
70.8068
76.0417
82.0885
81.5047
77.328
72.2359
66.7774
62.0779
57.9301
54.2054
50.8225
47.727
44.881
42.2576
39.8371
37.6047
35.5497
33.6645
31.9442
30.3866
28.9929
27.768
26.7225
25.8751
25.258
24.9264
24.9793
25.6078
27.23
30.9671
41.2086
95.7238
42.271
43.521
45.0712
46.9258
49.0897
51.5673
54.3629
57.4741
60.8898
64.6113
68.6407
70.0546
67.3665
63.0892
59.1444
55.5345
52.2244
49.1748
46.3531
43.7336
41.2971
39.0293
36.9195
34.9598
33.1447
31.4705
29.9355
28.5403
27.2878
26.1844
25.2417
24.4786
23.9267
23.639
23.7101
24.3215
25.8692
29.4145
39.1108
90.7143
37.7925
38.7835
40.0085
41.4639
43.1435
45.0369
47.1255
49.3751
51.7194
54.0457
56.1355
57.283
55.9668
53.7474
51.3218
48.8599
46.4414
44.1052
41.8689
39.7399
37.7211
35.8131
34.016
32.3296
30.7541
29.2904
27.9401
26.7065
25.5946
24.6124
23.7722
23.0933
22.6066
22.3632
22.453
23.0482
24.5227
27.8782
37.0326
85.7309
33.7965
34.5714
35.5243
36.6461
37.9242
39.3398
40.8654
42.4584
44.0517
45.5366
46.7449
47.3518
46.9261
45.8198
44.3789
42.7589
41.0535
39.3219
37.6014
35.916
34.2815
32.7086
31.2053
29.7773
28.4296