/*--------------------------------*- C++ -*----------------------------------*\
  =========                 |
  \\      /  F ield         | OpenFOAM: The Open Source CFD Toolbox
   \\    /   O peration     | Website:  https://openfoam.org
    \\  /    A nd           | Version:  8
     \\/     M anipulation  |
\*---------------------------------------------------------------------------*/
FoamFile
{
    version     2.0;
    format      ascii;
    class       volScalarField;
    location    "1.5";
    object      k;
}
// * * * * * * * * * * * * * * * * * * * * * * * * * * * * * * * * * * * * * //

dimensions      [0 2 -2 0 0 0 0];

internalField   nonuniform List<scalar> 
9150
(
0.00182803
0.00094399
0.00048836
0.000330361
0.000243157
0.000243158
0.000330361
0.00048836
0.00094399
0.00182803
0.00178532
0.000749789
0.00041195
0.000283365
0.000205506
0.000205506
0.000283365
0.00041195
0.000749789
0.00178532
0.0017139
0.000654542
0.000379322
0.00026249
0.00019075
0.00019075
0.000262491
0.000379322
0.000654542
0.0017139
0.00163535
0.000604572
0.000366459
0.000254308
0.000185365
0.000185365
0.000254309
0.000366459
0.000604571
0.00163535
0.00155188
0.000583121
0.000361836
0.000251533
0.000183829
0.000183829
0.000251533
0.000361837
0.00058312
0.00155188
0.00285961
0.00262319
0.00200197
0.00185679
0.0016751
0.00167509
0.00185676
0.00200193
0.00262313
0.0028596
0.00230669
0.00152192
0.0013621
0.00137662
0.00123258
0.00123257
0.00137661
0.00136208
0.0015219
0.00230669
0.00205013
0.00126077
0.000931835
0.000911113
0.000793255
0.000793253
0.000911109
0.00093183
0.00126076
0.00205013
0.00186835
0.00111637
0.000675263
0.000592781
0.000490025
0.000490025
0.000592781
0.000675262
0.00111637
0.00186835
0.0017881
0.00102529
0.000541131
0.000411399
0.000320258
0.000320258
0.000411399
0.000541131
0.00102529
0.0017881
0.016045
0.00659309
0.00297777
0.00216074
0.00189422
0.00189424
0.00216057
0.00297342
0.00657019
0.0159849
0.00497576
0.00383529
0.00267815
0.00214801
0.00190723
0.00190724
0.00214804
0.00267812
0.00383595
0.00497521
0.0044322
0.00348692
0.00266134
0.00214945
0.00192174
0.00192173
0.00214942
0.00266129
0.0034872
0.00443211
0.00393648
0.00322645
0.00264452
0.0021463
0.00193579
0.00193576
0.00214625
0.00264446
0.00322641
0.00393644
0.00337281
0.00317613
0.00253641
0.00209742
0.00190998
0.00190996
0.00209737
0.00253636
0.00317602
0.0033728
0.518805
0.520573
0.521537
0.521977
0.521943
0.521222
0.519622
0.517023
0.513331
0.508428
1.07825
1.08241
1.08476
1.08533
1.08414
1.08118
1.07643
1.06982
1.06128
1.05073
1.35505
1.35935
1.36151
1.36158
1.35958
1.35555
1.34949
1.34136
1.33112
1.31871
1.55944
1.56306
1.56443
1.56362
1.56069
1.55571
1.5487
1.53966
1.52856
1.51538
1.74014
1.74241
1.74244
1.74036
1.73625
1.73019
1.72223
1.71241
1.70074
1.6872
1.91471
1.91493
1.91306
1.90924
1.90357
1.89616
1.88708
1.87638
1.86412
1.85032
2.09149
2.0889
2.08448
2.07838
2.07071
2.06159
2.0511
2.0393
2.02626
2.01205
2.2749
2.26866
2.26096
2.25196
2.24176
2.23047
2.21816
2.2049
2.19072
2.17567
2.46722
2.45642
2.44466
2.43206
2.41871
2.4047
2.39006
2.37483
2.35899
2.34253
2.66935
2.6531
2.63647
2.61957
2.60244
2.58515
2.56768
2.55002
2.53209
2.51377
2.88134
2.85871
2.83642
2.81454
2.79309
2.77205
2.75138
2.73098
2.71074
2.69045
3.10254
3.07254
3.04383
3.01639
2.99018
2.9651
2.94105
2.91784
2.89532
2.87324
3.3315
3.29321
3.2574
3.22396
3.19273
3.16352
3.13614
3.11032
3.08581
3.06231
3.5659
3.51861
3.47525
3.43557
3.39929
3.36609
3.33567
3.30767
3.28172
3.25744
3.80268
3.74604
3.695
3.64914
3.60802
3.5712
3.53824
3.50872
3.48213
3.45802
4.03822
3.97234
3.91388
3.86223
3.81677
3.77693
3.74216
3.71195
3.68575
3.66302
4.26867
4.19415
4.12894
4.0722
4.02318
3.98118
3.94553
3.91564
3.89093
3.8708
4.49027
4.40818
4.33724
4.27646
4.22492
4.18179
4.14634
4.11789
4.09581
4.0795
4.69948
4.61129
4.53603
4.47251
4.41971
4.3767
4.34265
4.31682
4.29853
4.28713
4.89307
4.80066
4.72274
4.65804
4.60543
4.56392
4.53263
4.51077
4.49759
4.49242
5.06844
4.97395
4.89526
4.83104
4.78017
4.74165
4.71462
4.69826
4.69183
4.6946
5.22419
5.12972
5.052
4.98984
4.94221
4.90818
4.88696
4.87779
4.87999
4.89288
5.36055
5.26741
5.19191
5.13303
5.08985
5.0616
5.04757
5.04717
5.05982
5.08498
5.47783
5.38649
5.31385
5.25899
5.22111
5.19957
5.1938
5.20337
5.22792
5.2671
5.57484
5.48549
5.41605
5.36565
5.33357
5.31928
5.32239
5.34266
5.37999
5.43433
5.64919
5.56216
5.49624
5.45057
5.42451
5.41763
5.42973
5.46077
5.51094
5.58056
5.69848
5.61426
5.55218
5.5114
5.49131
5.49163
5.51229
5.55353
5.61578
5.69975
5.72037
5.63985
5.5821
5.54629
5.53193
5.53885
5.56718
5.61735
5.6901
5.78646
5.71424
5.6384
5.58539
5.55449
5.54534
5.5579
5.59247
5.64968
5.73052
5.83633
5.68152
5.61099
5.56287
5.53656
5.5318
5.54868
5.58761
5.64939
5.73517
5.84651
5.62493
5.56
5.51665
5.49438
5.49298
5.51263
5.55379
5.61732
5.70441
5.81667
5.54775
5.48874
5.44997
5.43106
5.43194
5.45279
5.4941
5.55666
5.64156
5.75023
5.45525
5.40186
5.36711
5.35079
5.35286
5.37353
5.41324
5.47268
5.55277
5.65472
5.35284
5.30428
5.27276
5.25815
5.26045
5.27986
5.31673
5.37159
5.44513
5.53826
5.24528
5.20051
5.1713
5.15757
5.15935
5.17679
5.21013
5.25976
5.32614
5.40985
5.13639
5.09419
5.06635
5.05279
5.05354
5.06867
5.09833
5.14277
5.20229
5.27724
5.02843
4.98772
4.96047
4.94658
4.94602
4.9588
4.98501
5.02478
5.0783
5.14578
4.92222
4.88229
4.85513
4.84063
4.83871
4.84933
4.87252
4.90834
4.9569
5.01834
4.81805
4.77839
4.75103
4.73581
4.73261
4.74138
4.76208
4.79473
4.83937
4.89605
4.7155
4.67585
4.64817
4.63227
4.628
4.63529
4.65409
4.68438
4.7262
4.77955
4.61382
4.57416
4.54619
4.52972
4.52461
4.53077
4.54818
4.57684
4.61676
4.66803
4.51236
4.47271
4.4445
4.42757
4.4218
4.42713
4.44354
4.47105
4.50972
4.55966
4.41064
4.37093
4.34247
4.32513
4.31881
4.32347
4.33911
4.36576
4.40351
4.45251
4.308
4.26812
4.23937
4.22163
4.21481
4.21889
4.23386
4.25979
4.29677
4.34496
4.20362
4.16352
4.13445
4.11629
4.10899
4.11251
4.12687
4.15214
4.18842
4.23585
4.0966
4.05631
4.02694
4.00839
4.00061
4.00358
4.01735
4.04198
4.07761
4.12437
3.98625
3.94584
3.91622
3.8973
3.88903
3.89143
3.90456
3.92852
3.96346
4.00956
3.87211
3.83169
3.80187
3.78256
3.77377
3.77552
3.78789
3.81103
3.84512
3.89037
3.754
3.7137
3.68369
3.66395
3.65452
3.65547
3.6669
3.68897
3.7219
3.76592
3.63263
3.59216
3.56174
3.54139
3.53115
3.5311
3.54135
3.56207
3.59347
3.63581
3.50794
3.46701
3.43596
3.41482
3.40359
3.40235
3.4112
3.4303
3.45985
3.50009
3.37937
3.33792
3.30619
3.28416
3.27183
3.26926
3.27654
3.29379
3.32121
3.35902
3.24672
3.20478
3.17236
3.14944
3.13598
3.13201
3.1376
3.15285
3.17791
3.21298
3.10979
3.06749
3.03452
3.01079
2.99626
2.99093
2.9948
3.00796
3.03052
3.06263
2.9685
2.92612
2.89283
2.86852
2.85309
2.8465
2.84872
2.8598
2.8798
2.90883
2.82292
2.78092
2.74772
2.72315
2.70709
2.69944
2.70016
2.70924
2.72672
2.75266
2.67353
2.63252
2.59991
2.57551
2.55916
2.55073
2.55016
2.55739
2.57244
2.59534
2.5213
2.48195
2.45051
2.42676
2.41051
2.40161
2.39998
2.40555
2.4183
2.43825
2.36774
2.33073
2.30102
2.27838
2.26261
2.25357
2.25114
2.25525
2.26586
2.28294
2.21476
2.18068
2.1532
2.13209
2.11718
2.1083
2.10534
2.10821
2.11684
2.13121
2.06455
2.03386
2.009
1.98977
1.97601
1.96757
1.96434
1.96621
1.97311
1.98497
1.91944
1.89239
1.87038
1.85325
1.84087
1.8331
1.82984
1.83099
1.83646
1.84614
1.78168
1.75829
1.73916
1.72421
1.71332
1.70639
1.70334
1.70406
1.70845
1.71639
1.65321
1.63324
1.61684
1.60398
1.59459
1.5886
1.58594
1.58652
1.59022
1.59694
1.53545
1.51843
1.50443
1.49345
1.48548
1.48045
1.47832
1.47901
1.48241
1.4884
1.42913
1.41447
1.40243
1.39304
1.3863
1.38219
1.38068
1.38168
1.38511
1.39085
1.3343
1.32136
1.3108
1.30265
1.29694
1.29367
1.29282
1.2943
1.29804
1.30391
1.25048
1.23866
1.22909
1.22184
1.21694
1.21442
1.21423
1.21632
1.2206
1.22695
1.17688
1.16561
1.1566
1.14993
1.14564
1.14375
1.14424
1.14703
1.15205
1.15916
1.11253
1.10133
1.09251
1.08615
1.0823
1.08096
1.08212
1.08571
1.09164
1.09976
1.05648
1.04498
1.03605
1.02978
1.02621
1.02537
1.02722
1.03168
1.03866
1.04801
1.00793
0.995821
0.986548
0.980197
0.97682
0.976427
0.978983
0.984406
0.992571
1.00332
0.966272
0.953317
0.943519
0.936966
0.933706
0.933746
0.937044
0.9435
0.952976
0.965305
0.931136
0.917121
0.90664
0.89978
0.896588
0.897067
0.901163
0.908753
0.919683
0.933767
0.902373
0.887039
0.875682
0.868393
0.865221
0.866166
0.871156
0.880043
0.892641
0.908743
0.880009
0.862927
0.850367
0.842437
0.8392
0.840661
0.846723
0.857198
0.871857
0.890442
0.86414
0.84453
0.83016
0.821191
0.81772
0.819769
0.82721
0.839794
0.857216
0.87913
0.854749
0.831282
0.814072
0.803383
0.799375
0.802103
0.811402
0.826941
0.848299
0.874976
0.851564
0.822205
0.800593
0.787158
0.782146
0.785656
0.79748
0.817192
0.844232
0.877874
0.853927
0.815893
0.78779
0.770255
0.763612
0.767995
0.783154
0.808582
0.843583
0.887168
0.860571
0.810493
0.773458
0.750265
0.741262
0.746569
0.765898
0.798713
0.844249
0.90131
0.86956
0.803741
0.755289
0.724912
0.712822
0.71903
0.743219
0.78492
0.843465
0.917735
0.877586
0.79281
0.731012
0.692321
0.676586
0.683578
0.712954
0.76443
0.837675
0.932217
0.880084
0.774618
0.698701
0.651326
0.631715
0.639283
0.673641
0.734762
0.822902
0.938906
0.869509
0.745794
0.65711
0.601758
0.578484
0.58637
0.624943
0.694301
0.795024
0.928677
0.843053
0.705321
0.606643
0.544825
0.518441
0.526408
0.568142
0.643626
0.753352
0.899089
0.797604
0.653369
0.548929
0.482735
0.454
0.461863
0.50564
0.584868
0.699281
0.849891
0.738166
0.593552
0.487059
0.418349
0.387898
0.395485
0.440355
0.521293
0.636834
0.786769
0.670597
0.529856
0.424139
0.354371
0.322648
0.329776
0.374954
0.455966
0.570072
0.716164
0.599544
0.465329
0.362598
0.29302
0.260355
0.266836
0.311595
0.391119
0.501447
0.641096
0.526823
0.401779
0.304197
0.236101
0.202806
0.208484
0.252172
0.328631
0.432802
0.563077
0.454612
0.340586
0.250066
0.184904
0.151445
0.156192
0.198137
0.270014
0.36604
0.484771
0.38546
0.2833
0.201301
0.140546
0.107521
0.111268
0.150812
0.216748
0.303268
0.409537
0.320732
0.230985
0.15861
0.103673
0.0718681
0.0745938
0.111038
0.169848
0.245922
0.339248
0.26149
0.184487
0.122308
0.0742338
0.044668
0.0464185
0.0789726
0.129843
0.195017
0.275148
0.208845
0.144544
0.0922975
0.0513963
0.0253638
0.0262817
0.0539966
0.0967903
0.151344
0.218305
0.16403
0.111578
0.0679009
0.0337264
0.0128326
0.0131692
0.0348285
0.0701205
0.115384
0.169892
0.127921
0.0850815
0.0476081
0.019782
0.00574377
0.00580165
0.0200498
0.048364
0.0867287
0.130895
0.100322
0.0626439
0.0291902
0.00917071
0.00268805
0.00268545
0.00915272
0.0292353
0.0630157
0.101317
0.0777036
0.0379464
0.0119364
0.00327683
0.00194741
0.00194676
0.00326214
0.0118628
0.0378632
0.0777369
0.501689
0.493102
0.482738
0.470613
0.456863
0.441731
0.425535
0.408637
0.391852
0.376064
0.360563
0.345144
0.329786
0.314527
0.299422
0.284524
0.269878
0.255522
0.241487
0.227798
0.214475
0.201531
0.188974
0.176808
0.16503
0.153633
0.142608
0.131938
0.121606
0.111588
0.101855
0.0923715
0.0830872
0.0739212
0.0646501
0.0550491
0.0453399
0.034843
0.024299
0.011048
1.03728
1.02047
1.00098
0.978906
0.954499
0.928097
0.900086
0.870815
0.84053
0.809627
0.778348
0.746857
0.715299
0.683808
0.652509
0.621521
0.590953
0.5609
0.531445
0.50266
0.474599
0.447303
0.420801
0.395107
0.370224
0.346142
0.322842
0.300296
0.278464
0.257299
0.236738
0.216705
0.197102
0.177797
0.158609
0.139292
0.119674
0.0986373
0.0732953
0.0317225
1.30315
1.28385
1.26163
1.23655
1.20879
1.17863
1.14643
1.1125
1.07715
1.0406
1.00308
0.964809
0.926009
0.886922
0.847778
0.8088
0.770185
0.732108
0.694715
0.658125
0.622428
0.587691
0.553957
0.52125
0.489577
0.458927
0.429277
0.40059
0.372819
0.345902
0.319766
0.294319
0.269448
0.245004
0.220781
0.196466
0.171514
0.144569
0.111143
0.0504254
1.49909
1.47906
1.45611
1.43015
1.4012
1.36937
1.33487
1.29798
1.25899
1.21811
1.17564
1.1319
1.08726
1.04207
0.996696
0.951447
0.9066
0.862387
0.818996
0.776573
0.735225
0.695028
0.65603
0.618254
0.581701
0.546359
0.512194
0.479164
0.44721
0.416263
0.386236
0.357025
0.328498
0.300476
0.272698
0.244734
0.215764
0.183868
0.143093
0.066374
1.6708
1.65097
1.62847
1.60306
1.57445
1.54238
1.50666
1.46743
1.42499
1.37964
1.33185
1.28222
1.23135
1.17981
1.1281
1.07665
1.0258
0.975827
0.926929
0.879256
0.832912
0.78796
0.744438
0.702352
0.661693
0.622432
0.584523
0.547908
0.512517
0.478262
0.445042
0.41273
0.381163
0.350117
0.319255
0.288015
0.255329
0.218776
0.171094
0.0800097
1.83406
1.81496
1.79387
1.77054
1.74432
1.71407
1.67848
1.63745
1.59146
1.54061
1.48599
1.42885
1.37031
1.31126
1.25235
1.19411
1.13691
1.08101
1.02659
0.973779
0.922635
0.873193
0.825455
0.779404
0.735001
0.692194
0.650917
0.611091
0.572623
0.535407
0.499315
0.464193
0.42984
0.395978
0.362193
0.327799
0.29151
0.250475
0.196263
0.0919532
1.99581
1.97737
1.95784
1.93732
1.91559
1.89041
1.85734
1.81619
1.76857
1.71075
1.64625
1.57842
1.50961
1.44115
1.37375
1.30786
1.24375
1.1816
1.12151
1.06352
1.00762
0.953794
0.901987
0.852141
0.804183
0.758027
0.71358
0.670736
0.629377
0.589371
0.550563
0.512763
0.475733
0.439141
0.402498
0.365005
0.325187
0.279806
0.219367
0.102704
2.15883
2.14007
2.12045
2.09991
2.07793
2.05438
2.02955
1.99951
1.94695
1.89168
1.81675
1.73295
1.65044
1.57057
1.49338
1.41906
1.34764
1.27906
1.21323
1.15006
1.08947
1.03134
0.975569
0.922042
0.870646
0.82126
0.773758
0.728005
0.683856
0.641151
0.599703
0.559291
0.519635
0.480354
0.440888
0.400334
0.357044
0.307426
0.240993
0.112621
2.3243
2.30396
2.28235
2.25933
2.2349
2.20922
2.18248
2.15354
2.09937
2.02546
1.95546
1.87643
1.78723
1.69699
1.60982
1.52709
1.44849
1.37366
1.30228
1.23413
1.169
1.10671
1.0471
0.990002
0.935268
0.88274
0.832263
0.783671
0.736793
0.69144
0.647396
0.604407
0.562154
0.520207
0.477941
0.434355
0.387638
0.33386
0.261594
0.121909
2.49367
2.47137
2.44779
2.42275
2.3962
2.36808
2.33825
2.29822
2.2267
2.14321
2.06249
1.98379
1.90097
1.81189
1.71978
1.63029
1.54559
1.46525
1.38886
1.31609
1.24671
1.18047
1.11718
1.05664
0.998664
0.943075
0.889685
0.838308
0.788742
0.740774
0.694162
0.648618
0.603787
0.55919
0.51414
0.467542
0.417426
0.359537
0.281539
0.130781
2.66855
2.64464
2.6197
2.59349
2.56574
2.53608
2.49909
2.44071
2.35817
2.26575
2.17541
2.08942
2.00379
1.91496
1.82129
1.72797
1.63889
1.55408
1.47333
1.3964
1.32307
1.25311
1.1863
1.12244
1.06132
1.00274
0.946495
0.892372
0.84015
0.789589
0.740426
0.692343
0.644946
0.597711
0.549888
0.500289
0.446788
0.384808
0.301124
0.139393
2.84991
2.82497
2.79948
2.77305
2.74525
2.7134
2.66624
2.59144
2.49626
2.39389
2.29463
2.20137
2.11116
2.01908
1.92087
1.82331
1.73007
1.64115
1.55639
1.47559
1.39855
1.32504
1.25486
1.18778
1.1236
1.06208
1.00303
0.946194
0.891348
0.838225
0.786532
0.735924
0.685972
0.636108
0.58552
0.532927
0.476044
0.409975
0.320608
0.148
3.03807
3.01282
2.98752
2.96178
2.93518
2.89952
2.83645
2.74482
2.63657
2.52482
2.41796
2.31818
2.22233
2.12394
2.01972
1.91767
1.82027
1.72736
1.63875
1.55424
1.47363
1.39669
1.32322
1.253
1.1858
1.1214
1.05956
1.00004
0.942587
0.886911
0.832699
0.779575
0.727076
0.674591
0.621243
0.565662
0.505399
0.435229
0.340148
0.156817
3.23304
3.20829
3.18392
3.15926
3.13336
3.09146
3.01009
2.89971
2.77816
2.6578
2.54479
2.43956
2.33741
2.22837
2.11763
2.01158
1.91022
1.81343
1.72105
1.63289
1.54876
1.46844
1.39173
1.31839
1.24821
1.18093
1.11632
1.05413
0.994069
0.935845
0.879114
0.823477
0.768434
0.71333
0.657228
0.598659
0.535017
0.460744
0.359938
0.16572
3.4346
3.41174
3.38996
3.36829
3.34489
3.29328
3.18701
3.0563
2.92186
2.79378
2.67497
2.56319
2.4511
2.33304
2.21713
2.1065
2.0009
1.90009
1.80387
1.71202
1.62435
1.54064
1.46067
1.38421
1.31103
1.24087
1.17349
1.10861
1.04594
0.985162
0.925909
0.867754
0.810166
0.752443
0.693586
0.632033
0.565013
0.486639
0.380094
0.174774
3.64199
3.62286
3.6061
3.59083
3.56642
3.49456
3.36629
3.2162
3.07038
2.93482
2.80931
2.68926
2.56404
2.43819
2.31779
2.20274
2.09283
1.98787
1.88767
1.79203
1.70073
1.61355
1.53026
1.45064
1.37442
1.30136
1.23118
1.16359
1.09829
1.03495
0.973159
0.912479
0.852339
0.791993
0.730381
0.665846
0.595454
0.512981
0.400685
0.184028
3.85364
3.83992
3.83003
3.82318
3.79808
3.70451
3.54748
3.38019
3.22392
3.07902
2.94391
2.812
2.67753
2.54646
2.42103
2.30113
2.18659
2.07723
1.97283
1.87321
1.77813
1.68736
1.60067
1.5178
1.43849
1.36246
1.28944
1.21912
1.15116
1.08522
1.02089
0.957669
0.894969
0.831996
0.767628
0.700112
0.626351
0.539782
0.42171
0.193488
4.06755
4.06051
4.0583
4.05901
4.02735
3.89644
3.71791
3.54297
3.37896
3.22561
3.08194
2.93855
2.79569
2.65861
2.52748
2.40218
2.28256
2.16843
2.05956
1.95572
1.85668
1.76217
1.67195
1.58573
1.50324
1.42419
1.34828
1.27517
1.20453
1.13598
1.06907
1.0033
0.938027
0.872422
0.805297
0.734803
0.65768
0.567019
0.443156
0.203158
4.28164
4.28286
4.29034
4.30213
4.25187
4.07728
3.88736
3.70681
3.53652
3.37655
3.22545
3.07144
2.91968
2.7751
2.63731
2.50597
2.38079
2.26151
2.14786
2.03956
1.93636
1.83795
1.74406
1.65439
1.56864
1.4865
1.40763
1.3317
1.25833
1.18713
1.11763
1.04929
0.98144
0.913198
0.843315
0.769849
0.689371
0.594626
0.46496
0.213011
4.49476
4.50578
4.52469
4.54906
4.46442
4.26406
4.06677
3.87855
3.70078
3.5341
3.37202
3.20585
3.04641
2.89448
2.74981
2.61208
2.48099
2.35626
2.23755
2.12458
2.01702
1.91456
1.81687
1.72365
1.63455
1.54924
1.46737
1.38856
1.31244
1.23857
1.16646
1.09553
1.02509
0.954213
0.881575
0.805142
0.721319
0.6225
0.487034
0.22301
4.70651
4.72872
4.759
4.78933
4.68426
4.46848
4.25899
4.05981
3.87194
3.69577
3.52111
3.34457
3.17647
3.01659
2.86458
2.72009
2.58279
2.45232
2.32833
2.21047
2.09839
1.99174
1.89015
1.79328
1.70076
1.61222
1.5273
1.44559
1.36669
1.29012
1.21538
1.14187
1.06884
0.995324
0.91994
0.840552
0.753394
0.650504
0.509211
0.233057
4.91717
4.95444
5.00173
5.03914
4.912
4.68459
4.46254
4.25079
4.0508
3.86217
3.67298
3.48641
3.30915
3.14082
2.98105
2.82946
2.68564
2.5492
2.41973
2.29683
2.1801
2.06915
1.96357
1.86299
1.76699
1.6752
1.58719
1.50255
1.42084
1.34158
1.26421
1.18812
1.11251
1.03636
0.95825
0.875929
0.785466
0.678541
0.531455
0.243153
5.12443
5.18051
5.24978
5.30384
5.16483
4.91939
4.68037
4.45302
4.23909
4.03332
3.82759
3.63067
3.44368
3.2664
3.09846
2.93943
2.78885
2.64624
2.51115
2.3831
2.26165
2.14634
2.03673
1.9324
1.83291
1.73784
1.64674
1.55917
1.47466
1.3927
1.31272
1.23405
1.15588
1.07714
0.996323
0.911108
0.817388
0.706491
0.553704
0.253287
5.32388
5.40148
5.49551
5.58671
5.45342
5.17521
4.91129
4.66373
4.43255
4.20784
3.98655
3.77711
3.57919
3.39226
3.21572
3.04899
2.89149
2.74263
2.60186
2.46864
2.34244
2.22278
2.10915
2.00109
1.89812
1.79978
1.70562
1.61514
1.52785
1.44322
1.36065
1.27943
1.19873
1.11742
1.03395
0.945889
0.848972
0.734186
0.575815
0.263402
5.51013
5.61189
5.73507
5.8719
5.75053
5.43583
5.14461
4.87579
4.62599
4.38176
4.14497
3.92242
3.7132
3.5164
3.33118
3.15675
2.99237
2.83732
2.69096
2.55265
2.42181
2.29786
2.18029
2.06856
1.96217
1.86064
1.76345
1.67011
1.5801
1.49284
1.40772
1.324
1.24081
1.15699
1.07091
0.98005
0.879989
0.761369
0.597499
0.273332
5.67567
5.80226
5.95557
6.13069
6.0122
5.67507
5.36367
5.07826
4.8114
4.54854
4.29746
4.06252
3.84252
3.63632
3.44282
3.26106
3.09012
2.92918
2.77748
2.6343
2.499
2.37095
2.24957
2.13431
2.02462
1.91997
1.81986
1.72374
1.63106
1.54125
1.45364
1.36749
1.28188
1.1956
1.10697
1.01338
0.910232
0.78783
0.618479
0.282886
5.81297
5.96286
6.14441
6.35454
6.24232
5.88597
5.55871
5.26036
4.98108
4.7035
4.43959
4.19363
3.96407
3.74949
3.54859
3.36022
3.18335
3.01703
2.86042
2.71275
2.57329
2.4414
2.31643
2.19781
2.08498
1.97737
1.87444
1.77565
1.68042
1.58814
1.49813
1.40963
1.32167
1.23301
1.14192
1.04568
0.939565
0.813521
0.638902
0.292209
5.91528
6.08522
6.29108
6.53255
6.43695
6.06306
5.72277
5.41406
5.12718
4.84081
4.56689
4.31223
4.07504
3.85367
3.64667
3.45277
3.27083
3.09984
2.93891
2.78722
2.64401
2.50859
2.38032
2.25859
2.1428
2.03241
1.92683
1.8255
1.72783
1.63319
1.5409
1.45014
1.35993
1.269
1.17555
1.07679
0.967843
0.83836
0.658838
0.3015
5.97704
6.16248
6.38765
6.65509
6.58191
6.19709
5.84886
5.53378
5.24438
4.956
4.67599
4.41572
4.17339
3.94724
3.73575
3.5376
3.35163
3.17681
3.01223
2.85707
2.71056
2.572
2.44075
2.31617
2.19768
2.08469
1.97664
1.87293
1.77297
1.67612
1.58165
1.48876
1.39642
1.30333
1.20764
1.10649
0.994841
0.86206
0.677741
0.310331
5.99407
6.18848
6.42536
6.70905
6.66298
6.27953
5.93136
5.61551
5.32698
5.04506
4.76523
4.50298
4.25828
4.02952
3.81524
3.61418
3.42524
3.24745
3.07992
2.92185
2.77251
2.63121
2.4973
2.37017
2.24922
2.13387
2.02353
1.91763
1.81554
1.71661
1.62012
1.52523
1.43089
1.33577
1.23797
1.13456
1.02037
0.884472
0.695664
0.318721
5.96484
6.15964
6.39706
6.6828
6.67889
6.30996
5.96967
5.65899
5.37471
5.10656
4.83602
4.57499
4.33042
4.10099
3.88542
3.68263
3.49165
3.31162
3.14174
2.98128
2.82954
2.68587
2.54964
2.42024
2.29709
2.1796
2.0672
1.95928
1.85524
1.75441
1.65605
1.55929
1.4631
1.36609
1.26632
1.16081
1.04425
0.905469
0.712503
0.326611
5.8928
6.07883
6.30321
6.5687
6.62398
6.29331
5.96748
5.66821
5.3929
5.13778
4.88812
4.63427
4.39191
4.16323
3.94738
3.74362
3.5512
3.36945
3.19767
3.03522
2.88144
2.73573
2.59748
2.46609
2.341
2.22161
2.10735
1.99763
1.89182
1.78925
1.68918
1.59073
1.49283
1.39408
1.29251
1.18506
1.06631
0.924861
0.728037
0.333867
5.78782
5.96075
6.16894
6.41655
6.51419
6.23276
5.92845
5.64702
5.38654
5.14488
4.91838
4.68565
4.44663
4.21887
4.00281
3.79814
3.60443
3.42115
3.24772
3.08354
2.92802
2.78056
2.64056
2.50745
2.38066
2.25961
2.14372
2.0324
1.92502
1.82091
1.7193
1.61933
1.51989
1.41957
1.31636
1.20713
1.0864
0.942506
0.742156
0.34044
5.6591
5.8148
6.00025
6.21745
6.33237
6.13057
5.85945
5.60097
5.35962
5.13466
4.92485
4.72327
4.49961
4.27069
4.05313
3.84688
3.65158
3.46673
3.29176
3.12606
2.96904
2.82009
2.67862
2.54406
2.41583
2.29336
2.17607
2.06337
1.95463
1.84916
1.74622
1.64489
1.54409
1.44238
1.3377
1.2269
1.10437
0.958293
0.754777
0.346322
5.51789
5.65601
5.81887
6.00729
6.12671
5.99756
5.77156
5.53825
5.31761
5.11042
4.91721
4.7381
4.5471
4.31856
4.0979
3.88926
3.69209
3.50569
3.32935
3.16239
3.00416
2.85402
2.71138
2.57565
2.44625
2.32263
2.20418
2.09033
1.98044
1.87384
1.76974
1.66726
1.56528
1.46235
1.3564
1.24422
1.12013
0.972119
0.765818
0.351502
5.37364
5.49622
5.6397
5.80417
5.92404
5.85381
5.67871
5.47073
5.26809
5.07614
4.89536
4.72611
4.56424
4.35981
4.13433
3.92317
3.7245
3.53703
3.35981
3.19203
3.03299
2.88204
2.73857
2.60199
2.47173
2.34721
2.22787
2.11311
2.0023
1.89476
1.78973
1.68629
1.58333
1.47937
1.37234
1.25898
1.13355
0.983903
0.775224
0.355905
5.23256
5.34274
5.47153
5.61897
5.74234
5.72049
5.58878
5.40703
5.21893
5.03962
4.86818
4.70513
4.55206
4.37289
4.15434
3.94494
3.74698
3.55976
3.38253
3.21458
3.05525
2.90393
2.76
2.62291
2.49209
2.36697
2.24699
2.13156
2.02007
1.91182
1.80605
1.70185
1.59811
1.49334
1.38543
1.27111
1.14459
0.993582
0.782949
0.359504
5.09747
5.19808
5.31603
5.45222
5.58392
5.59913
5.49938
5.34253
5.16912
4.99905
4.83529
4.67863
4.52949
4.36895
4.16537
3.95733
3.76056
3.57423
3.39761
3.23003
3.07089
2.91959
2.77558
2.63831
2.50723
2.38179
2.26144
2.1456
2.03365
1.92491
1.81863
1.71388
1.60956
1.50417
1.3956
1.28054
1.15317
1.00112
0.788965
0.362297
4.96909
5.06171
5.16945
5.29178
5.427
5.49359
5.4141
5.27596
5.11506
4.9518
4.79475
4.64633
4.50479
4.35549
4.16419
3.95998
3.76558
3.58086
3.40535
3.23857
3.07999
2.92908
2.78532
2.64817
2.51712
2.39164
2.27117
2.15516
2.04299
1.93399
1.82741
1.72233
1.61763
1.51183
1.40281
1.28724
1.15928
1.00649
0.793258
0.36429
4.84851
4.93611
5.03813
5.15415
5.28324
5.36869
5.32317
5.2098
5.06319
4.90632
4.7533
4.6098
4.4741
4.33374
4.15736
3.95663
3.76387
3.58056
3.40626
3.24048
3.08273
2.93249
2.78925
2.65251
2.52177
2.3965
2.27617
2.16023
2.04807
1.93903
1.83236
1.72716
1.62231
1.51631
1.40705
1.29121
1.1629
1.00968
0.795821
0.36546
4.73461
4.81967
4.91942
5.03406
5.16384
5.26526
5.24452
5.15063
5.01573
4.86364
4.7121
4.5697
4.43551
4.29861
4.13909
3.94696
3.75533
3.57335
3.40038
3.23584
3.07917
2.92987
2.78743
2.65137
2.5212
2.3964
2.27645
2.16082
2.0489
1.94004
1.83351
1.7284
1.62359
1.51761
1.40833
1.29244
1.16406
1.01072
0.796673
0.365836
4.62483
4.70851
4.80719
4.92128
5.05127
5.16209
5.16531
5.09032
4.9663
4.81906
4.66877
4.52665
4.39371
4.26088
4.11118
3.92673
3.73816
3.55852
3.38748
3.22457
3.06932
2.92126
2.77991
2.6448
2.51545
2.39137
2.27205
2.15696
2.04551
1.93706
1.83087
1.72606
1.62151
1.51576
1.40668
1.29098
1.16278
1.00964
0.795844
0.365474
4.51669
4.59939
4.69724
4.81077
4.94049
5.0594
5.08541
5.02784
4.91408
4.77141
4.62264
4.4811
4.34948
4.22065
4.0788
3.89981
3.71399
3.53678
3.36788
3.20688
3.05333
2.90678
2.76678
2.63287
2.5046
2.38149
2.26303
2.14871
2.03795
1.93012
1.82449
1.72019
1.61612
1.5108
1.40215
1.28687
1.15911
1.00648
0.793386
0.364461
4.40825
4.48999
4.58688
4.69955
4.82894
4.95883
5.00604
4.95896
4.85277
4.71578
4.57088
4.43214
4.30322
4.17825
4.04178
3.86654
3.68324
3.50845
3.34183
3.18293
3.0313
2.88651
2.74812
2.61568
2.48873
2.36682
2.24946
2.13614
2.0263
1.91931
1.81446
1.71088
1.60748
1.50282
1.3948
1.28017
1.1531
1.00128
0.789329
0.362739
4.29825
4.37884
4.47418
4.58436
4.70922
4.84774
4.93435
4.89115
4.78746
4.65466
4.51418
4.37925
4.25351
4.13154
3.99848
3.82621
3.64557
3.47341
3.30931
3.15277
3.00333
2.86057
2.72404
2.59331
2.46794
2.34748
2.23145
2.11936
2.01065
1.90472
1.80085
1.6982
1.59569
1.49188
1.38472
1.27095
1.14484
0.994129
0.783725
0.360321
4.18606
4.26591
4.3605
4.46996
4.59423
4.73288
4.83452
4.81231
4.72004
4.5933
4.45631
4.32365
4.19963
4.07892
3.94704
3.77763
3.60042
3.43143
3.27025
3.11642
2.9695
2.82905
2.69465
2.56589
2.44235
2.32357
2.2091
2.09846
1.99111
1.88644
1.78377
1.68225
1.58083
1.47809
1.37198
1.25932
1.13439
0.985085
0.776638
0.357242
4.07063
4.15002
4.24447
4.35438
4.48015
4.62219
4.74
4.73925
4.6587
4.53569
4.39894
4.26586
4.14169
4.0206
3.8877
3.72091
3.5479
3.38263
3.22481
3.07404
2.92993
2.79207
2.66007
2.53354
2.41206
2.29521
2.18254
2.07357
1.96779
1.8646
1.76333
1.66315
1.56302
1.46154
1.35671
1.24535
1.12185
0.974237
0.768137
0.353536
3.95059
4.02924
4.12327
4.23326
4.35991
4.5039
4.63392
4.65858
4.59238
4.47386
4.3373
4.2037
4.0795
3.95802
3.8227
3.65754
3.4889
3.32756
3.17333
3.02587
2.88481
2.7498
2.62046
2.4964
2.37722
2.26253
2.15188
2.04481
1.94081
1.83932
1.73965
1.64101
1.54238
1.44236
1.339
1.22917
1.10733
0.961673
0.758295
0.349236
3.82478
3.90198
3.99462
4.10343
4.22938
4.37385
4.51742
4.5671
4.51284
4.40035
4.2669
4.13531
4.01294
3.89223
3.75383
3.5889
3.42409
3.26662
3.11609
2.97212
2.83434
2.70241
2.57595
2.45459
2.33796
2.22566
2.11726
2.01231
1.91032
1.81072
1.71287
1.61597
1.51902
1.42067
1.31898
1.21089
1.09093
0.947486
0.747186
0.344379
3.69269
3.76753
3.85747
3.96302
4.08463
4.22253
4.37593
4.47183
4.4242
4.31589
4.18667
4.05918
3.94134
3.82524
3.67882
3.51283
3.35288
3.19972
3.05316
2.9129
2.77862
2.64999
2.52665
2.40824
2.2944
2.18472
2.0788
1.9762
1.87643
1.77895
1.68311
1.58815
1.49309
1.39659
1.29677
1.1906
1.07274
0.93177
0.734886
0.339
3.5545
3.62637
3.71299
3.81483
3.93237
4.06604
4.21608
4.32778
4.30965
4.21835
4.09686
3.97291
3.85747
3.74287
3.59478
3.432
3.27616
3.12713
2.9846
2.84823
2.71768
2.59261
2.47265
2.35745
2.24664
2.13984
2.03664
1.93662
1.83929
1.74413
1.65052
1.55769
1.4647
1.37025
1.27248
1.16844
1.05289
0.914621
0.72147
0.333132
3.41051
3.4789
3.56165
3.65932
3.77255
3.90224
4.04941
4.17708
4.18995
4.11559
3.99983
3.87693
3.76216
3.64883
3.50246
3.34423
3.19294
3.04839
2.9102
2.77803
2.65151
2.53029
2.41401
2.3023
2.1948
2.09114
1.99091
1.8937
1.79904
1.70642
1.61523
1.52473
1.43401
1.34179
1.24625
1.14453
1.03147
0.89613
0.707011
0.326806
3.26114
3.32547
3.40358
3.49603
3.60353
3.72717
3.86858
4.00703
4.05001
3.99332
3.88674
3.76787
3.6555
3.54484
3.40232
3.24926
3.10299
2.96331
2.82986
2.70225
2.58012
2.46309
2.3508
2.24289
2.139
2.03874
1.94174
1.84758
1.75582
1.66595
1.57739
1.48942
1.40114
1.31133
1.2182
1.11896
1.00859
0.87639
0.691579
0.32005
3.1071
3.16682
3.23949
3.32549
3.42519
3.539
3.66717
3.80901
3.90027
3.8611
3.76343
3.64924
3.54015
3.43329
3.29537
3.14746
3.00644
2.87197
2.74361
2.62095
2.50357
2.3911
2.28315
2.17936
2.07936
1.9828
1.88929
1.79843
1.70979
1.62288
1.53715
1.45189
1.36624
1.27901
1.18846
1.09187
0.984361
0.855488
0.67524
0.312889
2.94943
3.00427
3.07115
3.15035
3.24211
3.34671
3.46463
3.59669
3.70777
3.71022
3.63065
3.52289
3.41677
3.31355
3.18086
3.03853
2.90319
2.77435
2.65152
2.53421
2.42199
2.31445
2.21119
2.11186
2.01607
1.92349
1.83373
1.74641
1.66112
1.5774
1.49468
1.41232
1.32947
1.24497
1.15716
1.06338
0.958881
0.833515
0.658061
0.305345
2.78933
2.83917
2.90015
2.97243
3.05613
3.15127
3.2579
3.37589
3.50124
3.55878
3.49643
3.39237
3.2866
3.18579
3.05837
2.92226
2.79313
2.67044
2.55361
2.44212
2.3355
2.23329
2.13511
2.04058
1.94933
1.86101
1.77527
1.69174
1.61002
1.52967
1.45017
1.37087
1.29098
1.20937
1.12443
1.0336
0.932262
0.810558
0.640106
0.297437
2.62809
2.67291
2.72798
2.7934
2.86922
2.95546
3.05214
3.1596
3.27862
3.36901
3.34212
3.24993
3.14784
3.04966
2.92781
2.79852
2.6762
2.56022
2.44995
2.34479
2.24424
2.14782
2.05512
1.96575
1.87936
1.7956
1.71415
1.63465
1.55672
1.47993
1.40381
1.32774
1.25095
1.17236
1.09043
1.00267
0.904619
0.786716
0.621445
0.289187
2.46712
2.50692
2.55607
2.6146
2.68256
2.75993
2.84655
2.94218
3.04613
3.15249
3.18384
3.10226
3.00262
2.90615
2.78857
2.66692
2.55211
2.44354
2.3405
2.24231
2.1484
2.05827
1.97149
1.88767
1.80648
1.72758
1.65067
1.57542
1.50147
1.42844
1.35586
1.28316
1.20959
1.13415
1.05533
0.970748
0.876083
0.762095
0.602156
0.280619
2.308
2.34279
2.38593
2.4375
2.49756
2.56621
2.64352
2.72967
2.82537
2.93199
3.00262
2.93962
2.85011
2.75642
2.64091
2.52688
2.42033
2.32012
2.22523
2.13483
2.04826
1.965
1.88463
1.80677
1.73111
1.65736
1.58523
1.51443
1.44465
1.37551
1.3066
1.23738
1.16715
1.09495
1.01933
0.938
0.846805
0.73682
0.582331
0.271763
2.15254
2.18235
2.21941
2.26376
2.31546
2.3746
2.44134
2.51598
2.59951
2.69419
2.80202
2.78648
2.70177
2.59609
2.47979
2.37544
2.2794
2.18947
2.10424
2.02276
1.9444
1.86867
1.79519
1.72368
1.65386
1.58549
1.51834
1.45216
1.38667
1.32154
1.2564
1.19074
1.12392
1.05501
0.98265
0.904632