/*--------------------------------*- C++ -*----------------------------------*\
  =========                 |
  \\      /  F ield         | OpenFOAM: The Open Source CFD Toolbox
   \\    /   O peration     | Website:  https://openfoam.org
    \\  /    A nd           | Version:  8
     \\/     M anipulation  |
\*---------------------------------------------------------------------------*/
FoamFile
{
    version     2.0;
    format      ascii;
    class       surfaceScalarField;
    location    "1.5";
    object      phi;
}
// * * * * * * * * * * * * * * * * * * * * * * * * * * * * * * * * * * * * * //

dimensions      [0 3 -1 0 0 0 0];

internalField   nonuniform List<scalar> 
18095
(
1.58795e-07
-9.64931e-07
8.06136e-07
1.65628e-07
-1.2484e-06
1.24157e-06
1.2236e-07
-1.24239e-06
1.28566e-06
6.54016e-08
-1.2636e-06
1.32056e-06
-8.76366e-13
-1.28067e-06
1.34608e-06
-6.54032e-08
-1.28067e-06
1.34608e-06
-1.22361e-07
-1.2636e-06
1.32056e-06
-1.65628e-07
-1.24239e-06
1.28566e-06
-1.58796e-07
-1.2484e-06
1.24157e-06
-9.6493e-07
8.06135e-07
1.11179e-07
-1.07611e-06
9.95926e-08
-1.23682e-06
7.29742e-08
-1.21577e-06
4.00976e-08
-1.23073e-06
-6.36376e-13
-1.24058e-06
-4.00988e-08
-1.24058e-06
-7.2975e-08
-1.23073e-06
-9.95932e-08
-1.21577e-06
-1.11179e-07
-1.23682e-06
-1.07611e-06
6.7339e-08
-1.14345e-06
5.28924e-08
-1.22237e-06
4.22305e-08
-1.20511e-06
2.39111e-08
-1.21241e-06
-3.32539e-13
-1.21666e-06
-2.39118e-08
-1.21666e-06
-4.2231e-08
-1.21241e-06
-5.28928e-08
-1.20511e-06
-6.73393e-08
-1.22237e-06
-1.14345e-06
3.97525e-08
-1.1832e-06
2.66942e-08
-1.20931e-06
2.20645e-08
-1.20048e-06
1.25606e-08
-1.2029e-06
-2.25694e-13
-1.2041e-06
-1.2561e-08
-1.2041e-06
-2.20648e-08
-1.2029e-06
-2.66945e-08
-1.20048e-06
-3.97528e-08
-1.20931e-06
-1.1832e-06
1.67983e-08
7.4867e-09
7.00525e-09
4.10283e-09
-2.17589e-13
-4.10323e-09
-7.00554e-09
-7.4869e-09
-1.67985e-08
-1.75895e-07
-1.16331e-06
1.3392e-06
-2.20096e-07
-1.21657e-06
1.26077e-06
-1.65855e-07
-1.21302e-06
1.15878e-06
-8.74274e-08
-1.20426e-06
1.12583e-06
-8.45788e-12
-1.20286e-06
1.11544e-06
8.74107e-08
-1.20285e-06
1.11544e-06
1.6584e-07
-1.20425e-06
1.12582e-06
2.20082e-07
-1.21302e-06
1.15878e-06
1.75884e-07
-1.21656e-06
1.26076e-06
-1.1633e-06
1.33918e-06
-9.28859e-08
-1.07042e-06
-9.56951e-08
-1.21376e-06
-7.93965e-08
-1.22932e-06
-4.43153e-08
-1.23934e-06
-4.90649e-12
-1.24717e-06
4.43058e-08
-1.24717e-06
7.9388e-08
-1.23933e-06
9.56882e-08
-1.22932e-06
9.28819e-08
-1.21375e-06
-1.07042e-06
-5.80309e-08
-1.01239e-06
-5.51893e-08
-1.2166e-06
-4.65333e-08
-1.23798e-06
-2.71446e-08
-1.25873e-06
-2.95631e-12
-1.27431e-06
2.7139e-08
-1.27431e-06
4.65285e-08
-1.25872e-06
5.51858e-08
-1.23798e-06
5.80292e-08
-1.2166e-06
-1.01239e-06
-7.49547e-08
-9.37436e-07
-6.20806e-08
-1.22947e-06
-4.85884e-08
-1.25147e-06
-2.77563e-08
-1.27956e-06
-1.87232e-12
-1.30206e-06
2.77529e-08
-1.30206e-06
4.85856e-08
-1.27956e-06
6.20787e-08
-1.25147e-06
7.49541e-08
-1.22947e-06
-9.37434e-07
-1.313e-07
-1.19204e-07
-8.50162e-08
-4.40141e-08
-1.28996e-12
4.40117e-08
8.50143e-08
1.19203e-07
1.313e-07
-6.08113e-08
-9.43663e-07
1.00447e-06
-2.84428e-09
-1.33843e-06
1.28046e-06
8.3721e-09
-1.27098e-06
1.25976e-06
3.52386e-09
-1.22477e-06
1.22961e-06
-5.97873e-11
-1.22232e-06
1.22591e-06
-3.6454e-09
-1.22232e-06
1.22591e-06
-8.49647e-09
-1.22477e-06
1.22962e-06
2.60719e-09
-1.27099e-06
1.25989e-06
6.04067e-08
-1.33843e-06
1.28063e-06
-9.43319e-07
1.00373e-06
6.08267e-09
-9.49746e-07
1.3944e-08
-1.34629e-06
1.03205e-08
-1.26735e-06
5.49409e-09
-1.21994e-06
-6.28318e-11
-1.21676e-06
-5.62696e-09
-1.21676e-06
-1.04568e-08
-1.21994e-06
-1.40986e-08
-1.26735e-06
-6.27144e-09
-1.34626e-06
-9.4959e-07
2.6031e-08
-9.75777e-07
1.77718e-08
-1.33803e-06
9.33865e-09
-1.25892e-06
5.54809e-09
-1.21615e-06
-3.84318e-11
-1.21118e-06
-5.6195e-09
-1.21118e-06
-9.41736e-09
-1.21614e-06
-1.78563e-08
-1.25891e-06
-2.61075e-08
-1.33801e-06
-9.75698e-07
7.85586e-08
-1.05434e-06
5.28599e-08
-1.31234e-06
3.39161e-08
-1.23998e-06
2.06897e-08
-1.20292e-06
-2.37901e-11
-1.19046e-06
-2.07367e-08
-1.19046e-06
-3.39651e-08
-1.20291e-06
-5.29128e-08
-1.23997e-06
-7.85985e-08
-1.31232e-06
-1.0543e-06
2.84867e-07
2.333e-07
1.52106e-07
7.50128e-08
-1.43938e-11
-7.50412e-08
-1.52132e-07
-2.33321e-07
-2.84887e-07
-1.83385e-07
-8.02105e-08
2.63596e-07
-1.01854e-07
-8.15299e-08
-1.95266e-08
-8.23277e-08
6.32969e-08
-8.28234e-08
1.46346e-07
-8.30486e-08
2.2912e-07
-8.27747e-08
3.11049e-07
-8.19289e-08
3.91505e-07
-8.04554e-08
4.69778e-07
-7.82728e-08
-7.52338e-08
5.45012e-07
-1.55471e-07
-1.45221e-07
2.20482e-07
-8.92136e-08
-1.47788e-07
-2.2036e-08
-1.49505e-07
4.55574e-08
-1.50417e-07
1.1301e-07
-1.50501e-07
1.79917e-07
-1.49682e-07
2.45846e-07
-1.47859e-07
3.10291e-07
-1.449e-07
3.72658e-07
-1.4064e-07
-1.34864e-07
4.32288e-07
-1.36061e-07
-1.99499e-07
1.90338e-07
-8.09023e-08
-2.02946e-07
-2.51697e-08
-2.05238e-07
3.07989e-08
-2.06386e-07
8.66632e-08
-2.06365e-07
1.4209e-07
-2.05109e-07
1.96731e-07
-2.02499e-07
2.50203e-07
-1.98373e-07
3.02079e-07
-1.92516e-07
-1.84674e-07
3.51889e-07
-1.21965e-07
-2.45319e-07
1.67785e-07
-7.5575e-08
-2.49336e-07
-2.88627e-08
-2.5195e-07
1.79389e-08
-2.53187e-07
6.46039e-08
-2.5303e-07
1.10906e-07
-2.51411e-07
1.56618e-07
-2.48211e-07
2.015e-07
-2.43255e-07
2.45299e-07
-2.36315e-07
-2.27108e-07
2.87733e-07
-1.09883e-07
-2.83884e-07
1.48448e-07
-7.10413e-08
-2.88177e-07
-3.20936e-08
-2.90898e-07
6.80309e-09
-2.92084e-07
4.54958e-08
-2.91723e-07
8.38343e-08
-2.8975e-07
1.21672e-07
-2.86049e-07
1.58871e-07
-2.80453e-07
1.95301e-07
-2.72745e-07
-2.62661e-07
2.30854e-07
-9.81242e-08
-3.16062e-07
1.30302e-07
-6.59098e-08
-3.20392e-07
-3.37543e-08
-3.23054e-07
-1.75979e-09
-3.24078e-07
2.9959e-08
-3.23441e-07
6.12739e-08
-3.21065e-07
9.20413e-08
-3.16816e-07
1.22101e-07
-3.10512e-07
1.51287e-07
-3.01932e-07
-2.90876e-07
1.79502e-07
-8.59486e-08
-3.42658e-07
1.12545e-07
-5.93927e-08
-3.46948e-07
-3.28986e-08
-3.49548e-07
-6.51182e-09
-3.50465e-07
1.96993e-08
-3.49653e-07
4.56419e-08
-3.47007e-07
7.11897e-08
-3.42364e-07
9.61625e-08
-3.35485e-07
1.20322e-07
-3.26091e-07
-3.13996e-07
1.43442e-07
-7.43819e-08
-3.6476e-07
9.64841e-08
-5.22311e-08
-3.69099e-07
-2.99703e-08
-3.71808e-07
-7.56662e-09
-3.72869e-07
1.50032e-08
-3.72222e-07
3.77685e-08
-3.69772e-07
6.07674e-08
-3.65363e-07
8.4016e-08
-3.58734e-07
1.07427e-07
-3.49502e-07
-3.37543e-07
1.30973e-07
-6.62267e-08
-3.83918e-07
8.53848e-08
-4.69476e-08
-3.88378e-07
-2.74271e-08
-3.91329e-07
-7.57699e-09
-3.92719e-07
1.26938e-08
-3.92493e-07
3.35062e-08
-3.90585e-07
5.50318e-08
-3.86888e-07
7.75063e-08
-3.81208e-07
1.01269e-07
-3.73264e-07
-3.6331e-07
1.27036e-07
-6.38886e-08
-4.02118e-07
8.20882e-08
-4.56609e-08
-4.06605e-07
-2.72508e-08
-4.09739e-07
-8.5281e-09
-4.11441e-07
1.06425e-08
-4.11664e-07
3.0429e-08
-4.10371e-07
5.1086e-08
-4.07545e-07
7.30929e-08
-4.03215e-07
9.72513e-08
-3.97423e-07
-3.90144e-07
1.24085e-07
-6.65776e-08
-4.20666e-07
8.51255e-08
-4.80918e-08
-4.25091e-07
-2.956e-08
-4.28271e-07
-1.08527e-08
-4.30149e-07
8.17602e-09
-4.30692e-07
2.76818e-08
-4.29877e-07
4.787e-08
-4.27734e-07
6.91094e-08
-4.24455e-07
9.20027e-08
-4.20316e-07
-4.15111e-07
1.1697e-07
-7.11428e-08
-4.39686e-07
9.01624e-08
-5.21857e-08
-4.44048e-07
-3.32584e-08
-4.47198e-07
-1.42663e-08
-4.49141e-07
4.89496e-09
-4.49854e-07
2.42948e-08
-4.49277e-07
4.39148e-08
-4.47354e-07
6.36657e-08
-4.44206e-07
8.41312e-08
-4.40782e-07
-4.37037e-07
1.06057e-07
-7.47593e-08
-4.58448e-07
9.35215e-08
-5.60242e-08
-4.62783e-07
-3.72505e-08
-4.65972e-07
-1.83908e-08
-4.68001e-07
6.06695e-10
-4.68851e-07
1.97735e-08
-4.68444e-07
3.90091e-08
-4.66589e-07
5.80175e-08
-4.63214e-07
7.68256e-08
-4.5959e-07
-4.5564e-07
9.54281e-08
-7.84916e-08
-4.76806e-07
9.685e-08
-6.02386e-08
-4.81036e-07
-4.2008e-08
-4.84202e-07
-2.37385e-08
-4.8627e-07
-5.36355e-09
-4.87226e-07
1.32087e-08
-4.87016e-07
3.21473e-08
-4.85528e-07
5.15073e-08
-4.82574e-07
6.99562e-08
-4.78039e-07
-4.72486e-07
8.68024e-08
-8.30509e-08
-4.94948e-07
1.01193e-07
-6.51671e-08
-4.9892e-07
-4.75189e-08
-5.01851e-07
-2.99046e-08
-5.03884e-07
-1.22005e-08
-5.0493e-07
5.72209e-09
-5.04939e-07
2.41112e-08
-5.03917e-07
4.30826e-08
-5.01545e-07
6.11869e-08
-4.96143e-07
-4.88575e-07
7.72764e-08
-8.79178e-08
-5.12486e-07
1.05456e-07
-7.06898e-08
-5.16148e-07
-5.36688e-08
-5.18872e-07
-3.6672e-08
-5.20881e-07
-1.95962e-08
-5.22006e-07
-2.40167e-09
-5.22133e-07
1.4872e-08
-5.21191e-07
3.2281e-08
-5.18954e-07
5.0286e-08
-5.14148e-07
-5.05718e-07
6.74288e-08
-9.28655e-08
-5.28663e-07
1.09042e-07
-7.6684e-08
-5.3233e-07
-6.04674e-08
-5.35088e-07
-4.4244e-08
-5.37104e-07
-2.8013e-08
-5.38237e-07
-1.17742e-08
-5.38372e-07
4.45447e-09
-5.37419e-07
2.07731e-08
-5.35273e-07
3.80447e-08
-5.3142e-07
-5.23831e-07
5.61572e-08
-9.74962e-08
-5.43611e-07
1.12444e-07
-8.22624e-08
-5.47564e-07
-6.6842e-08
-5.50509e-07
-5.14015e-08
-5.52545e-07
-3.60117e-08
-5.53627e-07
-2.06799e-08
-5.53704e-07
-5.36233e-09
-5.52737e-07
1.0132e-08
-5.50767e-07
2.66615e-08
-5.47949e-07
-5.43967e-07
4.67983e-08
-1.00752e-07
-5.57982e-07
1.15123e-07
-8.60312e-08
-5.62284e-07
-7.11031e-08
-5.65437e-07
-5.60781e-08
-5.6757e-07
-4.09989e-08
-5.68706e-07
-2.58361e-08
-5.68867e-07
-1.04895e-08
-5.68083e-07
5.1995e-09
-5.66456e-07
2.15509e-08
-5.64301e-07
-5.61823e-07
3.94067e-08
-1.02693e-07
-5.72318e-07
1.17029e-07
-8.81348e-08
-5.76843e-07
-7.34383e-08
-5.80133e-07
-5.8639e-08
-5.82369e-07
-4.37443e-08
-5.83601e-07
-2.87395e-08
-5.83871e-07
-1.3595e-08
-5.83228e-07
1.65046e-09
-5.81702e-07
1.65248e-08
-5.79175e-07
-5.75505e-07
3.02069e-08
-1.03815e-07
-5.86859e-07
1.18357e-07
-8.93566e-08
-5.91301e-07
-7.49635e-08
-5.94526e-07
-6.06139e-08
-5.96719e-07
-4.63166e-08
-5.97898e-07
-3.21093e-08
-5.98079e-07
-1.80735e-08
-5.97264e-07
-4.37509e-09
-5.954e-07
8.63664e-09
-5.92187e-07
-5.87222e-07
2.03536e-08
-1.03936e-07
-6.01264e-07
1.1834e-07
-8.98685e-08
-6.05369e-07
-7.59962e-08
-6.08399e-07
-6.22811e-08
-6.10434e-07
-4.87411e-08
-6.11438e-07
-3.54323e-08
-6.11388e-07
-2.24555e-08
-6.1024e-07
-9.97064e-09
-6.07885e-07
1.78221e-09
-6.03939e-07
-5.97934e-07
1.24938e-08
-1.03846e-07
-6.14943e-07
1.17525e-07
-9.04247e-08
-6.1879e-07
-7.71625e-08
-6.21661e-07
-6.40857e-08
-6.2351e-07
-5.12244e-08
-6.24299e-07
-3.86132e-08
-6.23999e-07
-2.63025e-08
-6.22551e-07
-1.43857e-08
-6.19802e-07
-2.9853e-09
-6.1534e-07
-6.08489e-07
7.56936e-09
-1.0519e-07
-6.28104e-07
1.18351e-07
-9.21196e-08
-6.31861e-07
-7.92373e-08
-6.34543e-07
-6.66e-08
-6.36148e-07
-5.42283e-08
-6.36671e-07
-4.21194e-08
-6.36108e-07
-3.02251e-08
-6.34445e-07
-1.83693e-08
-6.31658e-07
-6.12057e-09
-6.27589e-07
-6.2153e-07
6.92107e-09
-1.06834e-07
-6.40946e-07
1.19677e-07
-9.40262e-08
-6.44668e-07
-8.13819e-08
-6.47187e-07
-6.89518e-08
-6.48578e-07
-5.67301e-08
-6.48893e-07
-4.46624e-08
-6.48175e-07
-3.26169e-08
-6.46491e-07
-2.02878e-08
-6.43987e-07
-7.00794e-09
-6.40868e-07
-6.36731e-07
8.19297e-09
-1.07876e-07
-6.53533e-07
1.20463e-07
-9.53076e-08
-6.57237e-07
-8.28471e-08
-6.59648e-07
-7.05134e-08
-6.60912e-07
-5.82627e-08
-6.61143e-07
-4.60051e-08
-6.60433e-07
-3.36168e-08
-6.58879e-07
-2.09714e-08
-6.56632e-07
-8.0513e-09
-6.53789e-07
-6.49809e-07
5.02681e-09
-1.0803e-07
-6.65784e-07
1.20281e-07
-9.58529e-08
-6.69414e-07
-8.38214e-08
-6.71679e-07
-7.1888e-08
-6.72845e-07
-5.99868e-08
-6.73044e-07
-4.80556e-08
-6.72364e-07
-3.60597e-08
-6.70875e-07
-2.40728e-08
-6.68619e-07
-1.23194e-08
-6.65542e-07
-6.61346e-07
-7.82844e-10
-1.07693e-07
-6.7786e-07
1.1977e-07
-9.61388e-08
-6.80968e-07
-8.48657e-08
-6.82952e-07
-7.37168e-08
-6.83994e-07
-6.26005e-08
-6.84161e-07
-5.14643e-08
-6.835e-07
-4.02943e-08
-6.82045e-07
-2.91168e-08
-6.79796e-07
-1.79491e-08
-6.7671e-07
-6.72706e-07
-6.58885e-09
-1.08071e-07
-6.89671e-07
1.19882e-07
-9.71878e-08
-6.91851e-07
-8.67293e-08
-6.93411e-07
-7.64497e-08
-6.94274e-07
-6.62169e-08
-6.94393e-07
-5.59468e-08
-6.9377e-07
-4.5582e-08
-6.9241e-07
-3.5062e-08
-6.90317e-07
-2.42692e-08
-6.87502e-07
-6.83996e-07
-1.29792e-08
-1.09689e-07
-7.00481e-07
1.20498e-07
-9.95839e-08
-7.01956e-07
-8.98642e-08
-7.03131e-07
-8.03464e-08
-7.03791e-07
-7.08899e-08
-7.0385e-07
-6.13877e-08
-7.03273e-07
-5.17524e-08
-7.02045e-07
-4.19001e-08
-7.00169e-07
-3.17341e-08
-6.97668e-07
-6.94527e-07
-2.12028e-08
-1.11321e-07
-7.09535e-07
1.20376e-07
-1.02345e-07
-7.10933e-07
-9.35477e-08
-7.11928e-07
-8.48757e-08
-7.12463e-07
-7.62386e-08
-7.12487e-07
-6.75495e-08
-7.11962e-07
-5.87316e-08
-7.10863e-07
-4.97239e-08
-7.09177e-07
-4.05077e-08
-7.06884e-07
-7.03916e-07
-3.11191e-08
-1.11554e-07
-7.16832e-07
1.1885e-07
-1.0409e-07
-7.18396e-07
-9.65922e-08
-7.19426e-07
-8.90759e-08
-7.1998e-07
-8.15138e-08
-7.20049e-07
-7.38614e-08
-7.19614e-07
-6.60705e-08
-7.18654e-07
-5.81008e-08
-7.17146e-07
-4.99278e-08
-7.15057e-07
-7.12339e-07
-4.15049e-08
-1.10575e-07
-7.22627e-07
1.1637e-07
-1.04648e-07
-7.24323e-07
-9.85992e-08
-7.25475e-07
-9.24357e-08
-7.26143e-07
-8.61497e-08
-7.26335e-07
-7.9719e-08
-7.26045e-07
-7.31126e-08
-7.25261e-07
-6.62928e-08
-7.23966e-07
-5.92058e-08
-7.22144e-07
-7.19788e-07
-5.1757e-08
-1.08485e-07
-7.26936e-07
1.12794e-07
-1.04051e-07
-7.28757e-07
-9.94588e-08
-7.30067e-07
-9.47035e-08
-7.30899e-07
-8.97751e-08
-7.31264e-07
-8.46557e-08
-7.31164e-07
-7.93201e-08
-7.30596e-07
-7.37326e-08
-7.29554e-07
-6.78421e-08
-7.28035e-07
-7.26057e-07
-6.15732e-08
-1.0504e-07
-7.29749e-07
1.07853e-07
-1.02095e-07
-7.31702e-07
-9.89699e-08
-7.33192e-07
-9.56451e-08
-7.34223e-07
-9.21085e-08
-7.348e-07
-8.8346e-08
-7.34927e-07
-8.43391e-08
-7.34603e-07
-8.0063e-08
-7.3383e-07
-7.5487e-08
-7.32611e-07
-7.30963e-07
-7.05808e-08
-1.00161e-07
-7.31038e-07
1.0145e-07
-9.87033e-08
-7.3316e-07
-9.70264e-08
-7.34869e-07
-9.51208e-08
-7.36129e-07
-9.29775e-08
-7.36944e-07
-9.059e-08
-7.37314e-07
-8.79511e-08
-7.37242e-07
-8.50514e-08
-7.36729e-07
-8.18821e-08
-7.3578e-07
-7.34404e-07
-7.8441e-08
-9.38315e-08
-7.30822e-07
9.3615e-08
-9.38018e-08
-7.33189e-07
-9.35275e-08
-7.35143e-07
-9.2998e-08
-7.36658e-07
-9.22161e-08
-7.37726e-07
-9.11851e-08
-7.38345e-07
-8.99079e-08
-7.38519e-07
-8.83864e-08
-7.38251e-07
-8.66231e-08
-7.37544e-07
-7.36405e-07
-8.46215e-08
-8.57533e-08
-7.29096e-07
8.40277e-08
-8.71525e-08
-7.3179e-07
-8.82489e-08
-7.34047e-07
-8.90639e-08
-7.35843e-07
-8.96145e-08
-7.37175e-07
-8.99129e-08
-7.38047e-07
-8.99681e-08
-7.38464e-07
-8.97861e-08
-7.38433e-07
-8.93709e-08
-7.37959e-07
-7.37053e-07
-8.87237e-08
-7.55752e-08
-7.25834e-07
7.23132e-08
-7.84227e-08
-7.28943e-07
-8.09143e-08
-7.31555e-07
-8.30981e-08
-7.3366e-07
-8.50061e-08
-7.35267e-07
-8.66625e-08
-7.3639e-07
-8.80857e-08
-7.37041e-07
-8.929e-08
-7.37229e-07
-9.02859e-08
-7.36963e-07
-7.36256e-07
-9.10821e-08
-6.32171e-08
-7.2116e-07
5.85427e-08
-6.74846e-08
-7.24675e-07
-7.13886e-08
-7.27651e-07
-7.49732e-08
-7.30075e-07
-7.82771e-08
-7.31963e-07
-8.13358e-08
-7.33332e-07
-8.41807e-08
-7.34196e-07
-8.68389e-08
-7.3457e-07
-8.93325e-08
-7.34469e-07
-7.33907e-07
-9.16816e-08
-4.8882e-08
-7.15189e-07
4.29118e-08
-5.45021e-08
-7.19055e-07
-5.9781e-08
-7.22373e-07
-6.47444e-08
-7.25112e-07
-6.94312e-08
-7.27276e-07
-7.38824e-08
-7.2888e-07
-7.81375e-08
-7.29941e-07
-8.22323e-08
-7.30475e-07
-8.61965e-08
-7.30505e-07
-7.30053e-07
-9.00509e-08
-3.29542e-08
-7.07921e-07
2.56861e-08
-3.98554e-08
-7.12154e-07
-4.64188e-08
-7.15809e-07
-5.2679e-08
-7.18851e-07
-5.8677e-08
-7.21278e-07
-6.4456e-08
-7.23102e-07
-7.00585e-08
-7.24338e-07
-7.5524e-08
-7.2501e-07
-8.08859e-08
-7.25143e-07
-7.24771e-07
-8.61681e-08
-1.57715e-08
-6.99384e-07
7.23398e-09
-2.38749e-08
-7.0405e-07
-3.16267e-08
-7.08058e-07
-3.90863e-08
-7.11392e-07
-4.63032e-08
-7.14061e-07
-5.33226e-08
-7.16082e-07
-6.01873e-08
-7.17474e-07
-6.69363e-08
-7.18261e-07
-7.36043e-08
-7.18475e-07
-7.18154e-07
-8.02211e-08
2.47285e-09
-6.89663e-07
-1.21935e-08
-6.75963e-09
-6.94818e-07
-1.5636e-08
-6.99181e-07
-2.42357e-08
-7.02792e-07
-3.2615e-08
-7.05682e-07
-4.08224e-08
-7.07875e-07
-4.89006e-08
-7.09395e-07
-5.68878e-08
-7.10274e-07
-6.48193e-08
-7.10544e-07
-7.10244e-07
-7.27293e-08
2.16797e-08
-6.78909e-07
-3.24342e-08
1.13535e-08
-6.84492e-07
1.35786e-09
-6.89186e-07
-8.38122e-09
-6.93053e-07
-1.79259e-08
-6.96137e-07
-2.73309e-08
-6.9847e-07
-3.66458e-08
-7.00081e-07
-4.59163e-08
-7.01003e-07
-5.51859e-08
-7.01274e-07
-7.00931e-07
-6.44986e-08
4.14353e-08
-6.67205e-07
-5.31387e-08
3.00646e-08
-6.73121e-07
1.89834e-08
-6.78104e-07
8.12893e-09
-6.82199e-07
-2.56396e-09
-6.85445e-07
-1.31575e-08
-6.87876e-07
-2.37109e-08
-6.89527e-07
-3.42808e-08
-6.90434e-07
-4.49227e-08
-6.90632e-07
-6.90162e-07
-5.56915e-08
6.08665e-08
-6.54708e-07
-7.33636e-08
4.8646e-08
-6.609e-07
3.66463e-08
-6.66104e-07
2.48098e-08
-6.70362e-07
1.30761e-08
-6.73711e-07
1.38566e-09
-6.76186e-07
-1.03203e-08
-6.77821e-07
-2.20999e-08
-6.78654e-07
-3.40109e-08
-6.78721e-07
-6.78062e-07
-4.61112e-08
7.97728e-08
-6.41579e-07
-9.2902e-08
6.68465e-08
-6.47974e-07
5.40507e-08
-6.53309e-07
4.13369e-08
-6.57648e-07
2.86559e-08
-6.6103e-07
1.59585e-08
-6.63488e-07
3.19501e-09
-6.65058e-07
-9.68506e-09
-6.65774e-07
-2.27328e-08
-6.65673e-07
-6.64795e-07
-3.59996e-08
9.85869e-08
-6.27675e-07
-1.12491e-07
8.48183e-08
-6.34205e-07
7.11385e-08
-6.39629e-07
5.75024e-08
-6.44012e-07
4.38633e-08
-6.47391e-07
3.0174e-08
-6.49799e-07
1.63872e-08
-6.51271e-07
2.45588e-09
-6.51843e-07
-1.1666e-08
-6.51551e-07
-6.50437e-07
-2.60239e-08
1.16108e-07
-6.13073e-07
-1.3071e-07
1.01564e-07
-6.19662e-07
8.70664e-08
-6.25131e-07
7.25757e-08
-6.29521e-07
5.80454e-08
-6.32861e-07
4.34254e-08
-6.35179e-07
2.86636e-08
-6.36509e-07
1.3708e-08
-6.36887e-07
-1.4937e-09
-6.3635e-07
-6.34938e-07
-1.69932e-08
1.30798e-07
-5.98158e-07
-1.45713e-07
1.15841e-07
-6.04705e-07
1.00839e-07
-6.10129e-07
8.57625e-08
-6.14445e-07
7.05725e-08
-6.17671e-07
5.52216e-08
-6.19828e-07
3.96577e-08
-6.20945e-07
2.38244e-08
-6.21054e-07
7.66246e-09
-6.20188e-07
-6.18386e-07
-8.88983e-09
1.42909e-07
-5.8298e-07
-1.58087e-07
1.27667e-07
-5.89463e-07
1.12335e-07
-5.94797e-07
9.68781e-08
-5.98988e-07
8.12541e-08
-6.02047e-07
6.54146e-08
-6.03989e-07
4.9306e-08
-6.04837e-07
3.28705e-08
-6.04618e-07
1.60474e-08
-6.03365e-07
-6.01114e-07
-1.22458e-09
1.52265e-07
-5.6759e-07
-1.67655e-07
1.36833e-07
-5.74031e-07
1.21321e-07
-5.79285e-07
1.0568e-07
-5.83347e-07
8.98549e-08
-5.86222e-07
7.37864e-08
-5.8792e-07
5.74103e-08
-5.8846e-07
4.06599e-08
-5.87868e-07
2.3468e-08
-5.86173e-07
-5.83415e-07
5.76924e-09
1.5792e-07
-5.52317e-07
-1.73192e-07
1.42616e-07
-5.58727e-07
1.2724e-07
-5.63909e-07
1.11737e-07
-5.67844e-07
9.60391e-08
-5.70524e-07
8.00716e-08
-5.71953e-07
6.37531e-08
-5.72142e-07
4.69985e-08
-5.71113e-07
2.97215e-08
-5.68896e-07
-5.6553e-07
1.18367e-08
1.59482e-07
-5.3748e-07
-1.74319e-07
1.44659e-07
-5.43904e-07
1.29797e-07
-5.49047e-07
1.14827e-07
-5.52874e-07
9.96669e-08
-5.55363e-07
8.42238e-08
-5.56509e-07
6.83976e-08
-5.56316e-07
5.20832e-08
-5.54799e-07
3.51733e-08
-5.51986e-07
-5.47919e-07
1.75621e-08
1.56605e-07
-5.23481e-07
-1.70604e-07
1.42689e-07
-5.29988e-07
1.28786e-07
-5.35144e-07
1.14812e-07
-5.38899e-07
1.00669e-07
-5.4122e-07
8.62483e-08
-5.42089e-07
7.14333e-08
-5.41501e-07
5.61006e-08
-5.39466e-07
4.01237e-08
-5.36009e-07
-5.31171e-07
2.33757e-08
1.49163e-07
-5.10783e-07
-1.61861e-07
1.36623e-07
-5.17447e-07
1.24154e-07
-5.22676e-07
1.11661e-07
-5.26406e-07
9.90327e-08
-5.28592e-07
8.61493e-08
-5.29206e-07
7.28808e-08
-5.28232e-07
5.90882e-08
-5.25673e-07
4.46252e-08
-5.21546e-07
-5.15886e-07
2.93398e-08
1.37418e-07
-4.99812e-07
-1.48389e-07
1.2668e-07
-5.06709e-07
1.16077e-07
-5.12073e-07
1.05503e-07
-5.15832e-07
9.48418e-08
-5.17931e-07
8.39693e-08
-5.18333e-07
7.27509e-08
-5.17014e-07
6.10413e-08
-5.13964e-07
4.86835e-08
-5.09188e-07
-5.0271e-07
3.55079e-08
1.21844e-07
-4.90947e-07
-1.30709e-07
1.1327e-07
-4.98136e-07
1.04884e-07
-5.03686e-07
9.65753e-08
-5.07524e-07
8.8235e-08
-5.09591e-07
7.97469e-08
-5.09845e-07
7.0988e-08
-5.08255e-07
6.18254e-08
-5.04801e-07
5.21132e-08
-4.99476e-07
-4.92286e-07
4.16895e-08
1.03183e-07
-4.84495e-07
-1.09635e-07
9.7033e-08
-4.91986e-07
9.10819e-08
-4.97735e-07
8.52332e-08
-5.01675e-07
7.93941e-08
-5.03752e-07
7.34728e-08
-5.03924e-07
6.73747e-08
-5.02157e-07
6.09986e-08
-4.98425e-07
5.42322e-08
-4.9271e-07
-4.85002e-07
4.69476e-08
8.254e-08
-4.80621e-07
-8.64138e-08
7.89032e-08
-4.88349e-07
7.54183e-08
-4.9425e-07
7.20135e-08
-4.9827e-07
6.86266e-08
-5.00365e-07
6.5201e-08
-5.00498e-07
6.16823e-08
-4.98638e-07
5.80147e-08
-4.94758e-07
5.41366e-08
-4.88831e-07
-4.80841e-07
4.99762e-08
6.13429e-08
-4.79266e-07
-6.26979e-08
6.00846e-08
-4.87091e-07
5.88713e-08
-4.93037e-07
5.76663e-08
-4.97065e-07
5.64439e-08
-4.99142e-07
5.51866e-08
-4.99241e-07
5.38821e-08
-4.97334e-07
5.25211e-08
-4.93397e-07
5.10949e-08
-4.87405e-07
-4.7934e-07
4.95934e-08
4.11616e-08
-4.80086e-07
-4.03411e-08
4.19028e-08
-4.87832e-07
4.25517e-08
-4.93686e-07
4.31068e-08
-4.9762e-07
4.35748e-08
-4.9961e-07
4.39691e-08
-4.99635e-07
4.43074e-08
-4.97672e-07
4.46116e-08
-4.93701e-07
4.49061e-08
-4.877e-07
-4.79651e-07
4.52178e-08
2.3308e-08
-4.82523e-07
-2.08713e-08
2.5506e-08
-4.9003e-07
2.74878e-08
-4.95668e-07
2.9279e-08
-4.99411e-07
3.09071e-08
-5.01239e-07
3.24016e-08
-5.01129e-07
3.37932e-08
-4.99064e-07
3.51147e-08
-4.95022e-07
3.64003e-08
-4.88985e-07
-4.80937e-07
3.76856e-08
8.53395e-09
-4.85905e-07
-5.15221e-09
1.16026e-08
-4.93099e-07
1.43968e-08
-4.98462e-07
1.69513e-08
-5.01966e-07
1.92969e-08
-5.03584e-07
2.14626e-08
-5.03295e-07
2.34766e-08
-5.01078e-07
2.5368e-08
-4.96913e-07
2.71676e-08
-4.90785e-07
-4.82678e-07
2.89094e-08
-3.30626e-09
-4.89681e-07
7.08291e-09
1.97418e-10
-4.96602e-07
3.45825e-09
-5.01723e-07
6.49815e-09
-5.05005e-07
9.33303e-09
-5.06419e-07
1.19751e-08
-5.05937e-07
1.44361e-08
-5.03539e-07
1.67295e-08
-4.99207e-07
1.88736e-08
-4.92929e-07
-4.84699e-07
2.0894e-08
-1.33163e-08
-4.93703e-07
1.73377e-08
-9.44969e-09
-5.00469e-07
-5.72911e-09
-5.05443e-07
-2.15728e-09
-5.08577e-07
1.25502e-09
-5.09831e-07
4.49328e-09
-5.09175e-07
7.54341e-09
-5.06589e-07
1.03962e-08
-5.0206e-07
1.30517e-08
-4.95584e-07
-4.8717e-07
1.55229e-08
-2.30384e-08
-4.98261e-07
2.75968e-08
-1.84705e-08
-5.05037e-07
-1.39122e-08
-5.10002e-07
-9.39775e-09
-5.13092e-07
-4.97094e-09
-5.14258e-07
-6.78763e-10
-5.13468e-07
3.43393e-09
-5.10701e-07
7.33067e-09
-5.05956e-07
1.09894e-08
-4.99243e-07
-4.90589e-07
1.44084e-08
-3.41408e-08
-5.04081e-07
3.99603e-08
-2.81313e-08
-5.11046e-07
-2.19816e-08
-5.16151e-07
-1.57601e-08
-5.19313e-07
-9.54575e-09
-5.20473e-07
-3.42126e-09
-5.19592e-07
2.53443e-09
-5.16657e-07
8.25382e-09
-5.11676e-07
1.36881e-08
-5.04677e-07
-4.95716e-07
1.88148e-08
-4.80825e-08
-5.12237e-07
5.62392e-08
-3.95625e-08
-5.19567e-07
-3.07576e-08
-5.24956e-07
-2.17692e-08
-5.28302e-07
-1.27118e-08
-5.2953e-07
-3.70458e-09
-5.28599e-07
5.13748e-09
-5.25499e-07
1.37125e-08
-5.20251e-07
2.19411e-08
-5.12906e-07
-5.0355e-07
2.9775e-08
-6.57732e-08
-5.23964e-07
7.75001e-08
-5.35047e-08
-5.31835e-07
-4.08037e-08
-5.37657e-07
-2.78066e-08
-5.41299e-07
-1.46672e-08
-5.42669e-07
-1.54588e-09
-5.41721e-07
1.14013e-08
-5.38446e-07
2.40327e-08
-5.32882e-07
3.62327e-08
-5.25106e-07
-5.15238e-07
4.79209e-08
-8.75112e-08
-5.40463e-07
1.0401e-07
-7.02497e-08
-5.49097e-07
-5.23778e-08
-5.55529e-07
-3.40799e-08
-5.59597e-07
-1.5561e-08
-5.61188e-07
2.96559e-09
-5.60247e-07
2.12906e-08
-5.56771e-07
3.92208e-08
-5.50813e-07
5.65923e-08
-5.42478e-07
-5.31926e-07
7.32803e-08
-1.13079e-07
-5.6278e-07
1.35396e-07
-8.9696e-08
-5.72479e-07
-6.54677e-08
-5.79757e-07
-4.06491e-08
-5.84415e-07
-1.55182e-08
-5.86319e-07
9.63817e-09
-5.85404e-07
3.45372e-08
-5.81671e-07
5.89146e-08
-5.7519e-07
8.25365e-08
-5.661e-07
-5.54601e-07
1.05211e-07
-1.41856e-07
-5.9179e-07
1.70866e-07
-1.11397e-07
-6.02937e-07
-7.98078e-08
-6.11347e-07
-4.74373e-08
-6.16786e-07
-1.46572e-08
-6.19099e-07
1.81539e-08
-6.18215e-07
5.06216e-08
-6.14138e-07
8.23908e-08
-6.06959e-07
1.13136e-07
-5.96845e-07
-5.84038e-07
1.42573e-07
-1.7267e-07
-6.28137e-07
2.09017e-07
-1.34459e-07
-6.41149e-07
-9.48197e-08
-6.50986e-07
-5.42124e-08
-6.57393e-07
-1.31104e-08
-6.60202e-07
2.80109e-08
-6.59336e-07
6.86818e-08
-6.54809e-07
1.08447e-07
-6.46725e-07
1.46875e-07
-6.35272e-07
-6.20726e-07
1.83563e-07
-2.03582e-07
-6.7206e-07
2.47504e-07
-1.57398e-07
-6.87333e-07
-1.09532e-07
-6.98852e-07
-6.05571e-08
-7.06368e-07
-1.10353e-08
-7.09723e-07
3.84809e-08
-7.08852e-07
8.74475e-08
-7.03776e-07
1.35325e-07
-6.94602e-07
1.81576e-07
-6.81523e-07
-6.64815e-07
2.25665e-07
-2.3217e-07
-7.23359e-07
2.8347e-07
-1.78352e-07
-7.4115e-07
-1.22734e-07
-7.5447e-07
-6.59739e-08
-7.63128e-07
-8.6775e-09
-7.6702e-07
4.85815e-08
-7.66111e-07
1.05241e-07
-7.60435e-07
1.60726e-07
-7.50088e-07
2.1443e-07
-7.35227e-07
-7.16082e-07
2.65697e-07
-2.55702e-07
-7.81282e-07
3.13625e-07
-1.95255e-07
-8.01597e-07
-1.33118e-07
-8.16608e-07
-6.99648e-08
-8.26281e-07
-6.37042e-09
-8.30614e-07
5.7153e-08
-8.29635e-07
1.20105e-07
-8.23388e-07
1.81952e-07
-8.11934e-07
2.42078e-07
-7.95353e-07
-7.73738e-07
2.99734e-07
-2.71562e-07
-8.44391e-07
3.34671e-07
-2.06213e-07
-8.66946e-07
-1.39528e-07
-8.83293e-07
-7.21191e-08
-8.9369e-07
-4.43925e-09
-8.98294e-07
6.31434e-08
-8.97217e-07
1.30273e-07
-8.90517e-07
1.96538e-07
-8.782e-07
2.61397e-07
-8.60212e-07
-8.36382e-07
3.24041e-07
-2.78279e-07
-9.10777e-07
3.44665e-07
-2.10213e-07
-9.35012e-07
-1.41384e-07
-9.52122e-07
-7.22706e-08
-9.62804e-07
-3.11331e-09
-9.67451e-07
6.5934e-08
-9.66265e-07
1.34734e-07
-9.59317e-07
2.03082e-07
-9.46548e-07
2.70574e-07
-9.27704e-07
-9.02202e-07
3.36394e-07
-2.75348e-07
-9.78272e-07
3.42842e-07
-2.07021e-07
-1.00334e-06
-1.38604e-07
-1.02054e-06
-7.04109e-08
-1.031e-06
-2.44334e-09
-1.03542e-06
6.54192e-08
-1.03413e-06
1.33309e-07
-1.02721e-06
2.01261e-07
-1.0145e-06
2.69029e-07
-9.95473e-07
-9.69146e-07
3.35973e-07
-2.63059e-07
-1.04507e-06
3.29853e-07
-1.96704e-07
-1.06969e-06
-1.31207e-07
-1.08604e-06
-6.64995e-08
-1.0957e-06
-2.26715e-09
-1.09965e-06
6.18851e-08
-1.09828e-06
1.2636e-07
-1.09168e-06
1.91501e-07
-1.07964e-06
2.57429e-07
-1.0614e-06
-1.03554e-06
3.23829e-07
-2.41162e-07
-1.1098e-06
3.05894e-07
-1.79522e-07
-1.13133e-06
-1.19568e-07
-1.14599e-06
-6.06741e-08
-1.1546e-06
-2.34729e-09
-1.15798e-06
5.59471e-08
-1.15657e-06
1.14747e-07
-1.15048e-06
1.74579e-07
-1.13947e-06
2.36115e-07
-1.12294e-06
-1.10021e-06
3.00784e-07
-2.12462e-07
-1.16774e-06
2.70408e-07
-1.57787e-07
-1.18601e-06
-1.05024e-07
-1.19875e-06
-5.34311e-08
-1.20619e-06
-2.4186e-09
-1.20899e-06
4.862e-08
-1.20761e-06
1.00296e-07
-1.20216e-06
1.5322e-07
-1.1924e-06
2.08197e-07
-1.17791e-06
-1.15874e-06
2.66721e-07
-1.77591e-07
-1.2154e-06
2.25246e-07
-1.31795e-07
-1.2318e-06
-8.76936e-08
-1.24285e-06
-4.47682e-08
-1.24912e-06
-2.38622e-09
-1.25137e-06
4.00936e-08
-1.25009e-06
8.33126e-08
-1.24538e-06
1.27905e-07
-1.23699e-06
1.74407e-07
-1.22442e-06
-1.20735e-06
2.23019e-07
-1.39378e-07
-1.25468e-06
1.78655e-07
-1.02825e-07
-1.26836e-06
-6.8415e-08
-1.27727e-06
-3.51324e-08
-1.2824e-06
-2.27933e-09
-1.28423e-06
3.07291e-08
-1.2831e-06
6.44724e-08
-1.27912e-06
9.96358e-08
-1.27215e-06
1.37201e-07
-1.26198e-06
-1.24781e-06
1.77656e-07
-1.00274e-07
-1.28412e-06
1.2972e-07
-7.37707e-08
-1.29486e-06
-4.91448e-08
-1.30189e-06
-2.5464e-08
-1.30608e-06
-2.08127e-09
-1.30761e-06
2.14934e-08
-1.30668e-06
4.57422e-08
-1.30337e-06
7.12831e-08
-1.29769e-06
9.89853e-08
-1.28968e-06
-1.27859e-06
1.29774e-07
-6.31086e-08
-1.30313e-06
8.21176e-08
-4.64263e-08
-1.31154e-06
-3.1093e-08
-1.31722e-06
-1.63774e-08
-1.3208e-06
-1.78479e-09
-1.3222e-06
1.30197e-08
-1.32148e-06
2.83611e-08
-1.31871e-06
4.46912e-08
-1.31402e-06
6.26443e-08
-1.30764e-06
-1.29898e-06
8.30342e-08
-3.04126e-08
-1.31289e-06
4.01706e-08
-2.2354e-08
-1.3196e-06
-1.51893e-08
-1.32439e-06
-8.33727e-09
-1.32765e-06
-1.43799e-09
-1.3291e-06
5.67526e-09
-1.32859e-06
1.31581e-08
-1.32619e-06
2.13179e-08
-1.32218e-06
3.06156e-08
-1.31693e-06
-1.31006e-06
4.16903e-08
-3.16669e-09
-1.31506e-06
5.34086e-09
-2.25057e-09
-1.32052e-06
-1.90757e-09
-1.32473e-06
-1.6115e-09
-1.32794e-06
-1.089e-09
-1.32962e-06
-3.66387e-10
-1.32932e-06
5.21432e-10
-1.32708e-06
1.78859e-09
-1.32345e-06
3.83556e-09
-1.31898e-06
-1.31343e-06
7.20778e-09
1.83441e-08
-1.31129e-06
-2.21188e-08
1.36058e-08
-1.31578e-06
8.51439e-09
-1.31964e-06
3.63908e-09
-1.32307e-06
-7.76516e-10
-1.32521e-06
-5.02231e-09
-1.32507e-06
-9.38562e-09
-1.32272e-06
-1.36796e-08
-1.31916e-06
-1.74628e-08
-1.3152e-06
-1.31065e-06
-2.02413e-08
3.43778e-08
-1.30294e-06
-4.27213e-08
2.52516e-08
-1.30665e-06
1.60221e-08
-1.31041e-06
7.35258e-09
-1.3144e-06
-5.24521e-10
-1.31733e-06
-8.27925e-09
-1.31732e-06
-1.65599e-08
-1.31444e-06
-2.51761e-08
-1.31054e-06
-3.35739e-08
-1.3068e-06
-1.30305e-06
-4.11737e-08
4.51301e-08
-1.2911e-06
-5.6977e-08
3.27465e-08
-1.29427e-06
2.06445e-08
-1.29831e-06
9.58024e-09
-1.30333e-06
-3.27558e-10
-1.30742e-06
-1.01694e-08
-1.30747e-06
-2.10026e-08
-1.3036e-06
-3.27182e-08
-1.29882e-06
-4.4626e-08
-1.29489e-06
-1.2917e-06
-5.59739e-08
5.11625e-08
-1.2765e-06
-6.57575e-08
3.64317e-08
-1.27954e-06
2.26935e-08
-1.28457e-06
1.06497e-08
-1.29129e-06
-1.75753e-10
-1.2966e-06
-1.09787e-08
-1.29667e-06
-2.2946e-08
-1.29164e-06
-3.65277e-08
-1.28524e-06
-5.10315e-08
-1.28039e-06
-1.27737e-06
-6.53675e-08
5.30717e-08
-1.25955e-06
-7.00225e-08
3.67386e-08
-1.26321e-06
2.27386e-08
-1.27057e-06
1.11858e-08
-1.27974e-06
-7.64836e-11
-1.28533e-06
-1.1334e-08
-1.28541e-06
-2.29185e-08
-1.28005e-06
-3.69517e-08
-1.27121e-06
-5.32788e-08
-1.26406e-06
-1.26046e-06
-7.01852e-08
5.10978e-08
-1.24015e-06
-7.05025e-08
3.38969e-08
-1.246e-06
2.14686e-08
-1.25814e-06
1.1771e-08
-1.27004e-06
-2.78736e-11
-1.27354e-06
-1.18336e-08
-1.27361e-06
-2.15997e-08
-1.27029e-06
-3.41622e-08
-1.25865e-06
-5.15322e-08
-1.24669e-06
-1.2409e-06
-7.10976e-08
4.47104e-08
-1.21681e-06
-6.80419e-08
2.78316e-08
-1.22913e-06
1.97654e-08
-1.25008e-06
1.23368e-08
-1.26261e-06
-1.17951e-11
-1.26119e-06
-1.23896e-08
-1.26123e-06
-1.98844e-08
-1.26279e-06
-2.80694e-08
-1.25046e-06
-4.51996e-08
-1.22956e-06
-1.21721e-06
-6.88873e-08