/*--------------------------------*- C++ -*----------------------------------*\
  =========                 |
  \\      /  F ield         | OpenFOAM: The Open Source CFD Toolbox
   \\    /   O peration     | Website:  https://openfoam.org
    \\  /    A nd           | Version:  8
     \\/     M anipulation  |
\*---------------------------------------------------------------------------*/
FoamFile
{
    version     2.0;
    format      ascii;
    class       volVectorField;
    location    "1.5";
    object      U;
}
// * * * * * * * * * * * * * * * * * * * * * * * * * * * * * * * * * * * * * //

dimensions      [0 1 -1 0 0 0 0];

internalField   nonuniform List<vector> 
9150
(
(0.0536289 -0.428802 0)
(0.087908 -0.622445 0)
(0.0733027 -0.631567 0)
(0.0486714 -0.643801 0)
(0.0170692 -0.654546 0)
(-0.01707 -0.654546 0)
(-0.0486721 -0.643801 0)
(-0.0733032 -0.631566 0)
(-0.0879084 -0.622445 0)
(-0.0536291 -0.428802 0)
(0.040547 -0.522533 0)
(0.057324 -0.625803 0)
(0.0422233 -0.613272 0)
(0.0294126 -0.622488 0)
(0.0105168 -0.62893 0)
(-0.0105174 -0.62893 0)
(-0.0294131 -0.622488 0)
(-0.0422236 -0.613272 0)
(-0.0573243 -0.625803 0)
(-0.0405471 -0.522533 0)
(0.0251087 -0.557839 0)
(0.032463 -0.613955 0)
(0.0231037 -0.604501 0)
(0.0172696 -0.61 0)
(0.00626133 -0.61323 0)
(-0.00626165 -0.61323 0)
(-0.0172699 -0.61 0)
(-0.0231039 -0.604501 0)
(-0.0324632 -0.613955 0)
(-0.0251088 -0.557838 0)
(0.0152643 -0.584647 0)
(0.0174354 -0.607549 0)
(0.0117782 -0.601146 0)
(0.0088762 -0.603281 0)
(0.0032498 -0.604414 0)
(-0.00325002 -0.604414 0)
(-0.00887639 -0.603281 0)
(-0.0117783 -0.601146 0)
(-0.0174356 -0.607549 0)
(-0.0152644 -0.584646 0)
(0.00622476 -0.597141 0)
(0.00553987 -0.601424 0)
(0.0036024 -0.600041 0)
(0.00268048 -0.600348 0)
(0.000995152 -0.600487 0)
(-0.000995362 -0.600487 0)
(-0.00268065 -0.600348 0)
(-0.00360251 -0.600041 0)
(-0.00553997 -0.601424 0)
(-0.00622481 -0.597141 0)
(0.468412 -1.16076 1.69234e-24)
(0.282785 -1.08613 0)
(0.162917 -1.06935 0)
(0.0918263 -1.0577 0)
(0.0302959 -1.05317 0)
(-0.0303044 -1.05317 0)
(-0.0918338 -1.0577 0)
(-0.162923 -1.06934 0)
(-0.282789 -1.08612 0)
(-0.468409 -1.16075 -1.69221e-24)
(0.33369 -0.843917 4.70227e-25)
(0.287488 -0.936782 0)
(0.188399 -0.936889 0)
(0.108024 -0.93687 0)
(0.0357097 -0.939331 0)
(-0.0357146 -0.93933 0)
(-0.108028 -0.936868 0)
(-0.188402 -0.936886 0)
(-0.287489 -0.936777 0)
(-0.333688 -0.843912 -4.70195e-25)
(0.278215 -0.701821 7.28606e-26)
(0.259127 -0.80472 0)
(0.178336 -0.817552 0)
(0.104514 -0.828455 0)
(0.0348443 -0.836659 0)
(-0.0348472 -0.836659 0)
(-0.104517 -0.828453 0)
(-0.178337 -0.81755 0)
(-0.259127 -0.804718 0)
(-0.278214 -0.701819 -7.28514e-26)
(0.198918 -0.553789 3.06544e-25)
(0.216467 -0.709537 0)
(0.154509 -0.725961 0)
(0.0913276 -0.742127 0)
(0.0305572 -0.754098 0)
(-0.030559 -0.754098 0)
(-0.0913291 -0.742126 0)
(-0.15451 -0.72596 0)
(-0.216467 -0.709536 0)
(-0.198917 -0.553788 -3.06542e-25)
(0.117885 -0.445406 -4.84834e-25)
(0.155955 -0.644467 -6.91869e-25)
(0.116874 -0.663898 -2.35645e-25)
(0.0709439 -0.681303 -1.54605e-25)
(0.0239912 -0.69434 -8.92538e-27)
(-0.0239925 -0.694339 -8.92781e-27)
(-0.0709449 -0.681302 -1.54609e-25)
(-0.116874 -0.663897 -2.35644e-25)
(-0.155956 -0.644466 -6.91865e-25)
(-0.117884 -0.445405 -4.84831e-25)
(0.0159596 -0.936594 0)
(-0.0420037 -1.33399 0)
(0.0210373 -1.26595 0)
(-0.00448909 -1.22313 0)
(0.00330388 -1.22162 0)
(-0.00335662 -1.22162 0)
(0.0044129 -1.22314 0)
(-0.0211312 -1.26598 0)
(0.0418513 -1.33406 0)
(-0.0161018 -0.936038 0)
(0.0487097 -0.911511 0)
(-0.0255038 -1.33229 0)
(0.0211565 -1.26864 0)
(0.000110193 -1.22325 0)
(0.000540282 -1.22151 0)
(-0.000587958 -1.22151 0)
(-0.000168481 -1.22325 0)
(-0.021221 -1.26865 0)
(0.0253971 -1.33225 0)
(-0.0487568 -0.911334 0)
(0.0777016 -0.948031 0)
(-0.0245143 -1.34727 0)
(0.0148567 -1.27501 0)
(0.00581848 -1.23111 0)
(-0.000317511 -1.22601 0)
(0.000280208 -1.22601 0)
(-0.00585988 -1.2311 0)
(-0.0148914 -1.275 0)
(0.0244638 -1.34725 0)
(-0.0777216 -0.947913 0)
(0.146016 -1.08018 0)
(0.0033958 -1.36616 0)
(0.0136 -1.27118 0)
(0.0215184 -1.2259 0)
(0.00592856 -1.2144 0)
(-0.0059541 -1.2144 0)
(-0.021543 -1.22589 0)
(-0.0136174 -1.27117 0)
(-0.00342738 -1.36615 0)
(-0.146029 -1.08012 0)
(0.299909 -1.21753 0)
(0.128755 -1.32184 0)
(0.0683341 -1.21022 0)
(0.0558338 -1.16881 0)
(0.020022 -1.15656 0)
(-0.0200368 -1.15655 0)
(-0.0558465 -1.16881 0)
(-0.0683459 -1.21021 0)
(-0.128769 -1.32183 0)
(-0.29991 -1.21751 0)
(-0.111858 -0.0626061 0)
(-0.0713887 -0.0638436 0)
(-0.0304002 -0.0648008 0)
(0.0109005 -0.06528 0)
(0.0523861 -0.0652067 0)
(0.0938737 -0.0646694 0)
(0.135098 -0.0637234 0)
(0.175757 -0.0623542 0)
(0.215516 -0.0605222 0)
(0.253983 -0.0582084 0)
(-0.0941576 -0.118377 0)
(-0.061286 -0.120502 0)
(-0.0278815 -0.121962 0)
(0.00585747 -0.122746 0)
(0.0396704 -0.122821 0)
(0.073314 -0.122143 0)
(0.106579 -0.120639 0)
(0.139234 -0.118205 0)
(0.171003 -0.114707 0)
(0.201589 -0.109986 0)
(-0.0817272 -0.174061 0)
(-0.0543257 -0.177124 0)
(-0.0265657 -0.179178 0)
(0.0013977 -0.180237 0)
(0.0293957 -0.180276 0)
(0.0572591 -0.179225 0)
(0.0848191 -0.176971 0)
(0.111895 -0.17336 0)
(0.138283 -0.168196 0)
(0.163769 -0.161245 0)
(-0.0725255 -0.224144 0)
(-0.049441 -0.227955 0)
(-0.026135 -0.230459 0)
(-0.00272877 -0.231684 0)
(0.0206649 -0.231607 0)
(0.0439339 -0.230158 0)
(0.0669655 -0.227215 0)
(0.089644 -0.222602 0)
(0.111848 -0.216093 0)
(0.133445 -0.207407 0)
(-0.0646315 -0.266207 0)
(-0.0452567 -0.270433 0)
(-0.0257876 -0.273151 0)
(-0.00630764 -0.274397 0)
(0.013108 -0.27416 0)
(0.0323839 -0.272376 0)
(0.0514459 -0.268926 0)
(0.0702226 -0.263642 0)
(0.0886439 -0.256299 0)
(0.10665 -0.246613 0)
(-0.0571217 -0.301412 0)
(-0.0410105 -0.305769 0)
(-0.0249037 -0.308486 0)
(-0.00885327 -0.309606 0)
(0.00708922 -0.309113 0)
(0.0228638 -0.306941 0)
(0.038403 -0.30297 0)
(0.0536292 -0.297035 0)
(0.0684481 -0.288919 0)
(0.082774 -0.278361 0)
(-0.0496228 -0.330586 0)
(-0.0363322 -0.334895 0)
(-0.0230631 -0.337503 0)
(-0.00983681 -0.338432 0)
(0.0033215 -0.337646 0)
(0.0163722 -0.335055 0)
(0.0292622 -0.330513 0)
(0.0419154 -0.323816 0)
(0.0542021 -0.31471 0)
(0.0659865 -0.302981 0)
(-0.0427174 -0.354619 0)
(-0.0316646 -0.358912 0)
(-0.0205644 -0.361522 0)
(-0.00940198 -0.362445 0)
(0.00183675 -0.361628 0)
(0.0131635 -0.358962 0)
(0.0246065 -0.354273 0)
(0.0361942 -0.347278 0)
(0.0478805 -0.337608 0)
(0.0595391 -0.325151 0)
(-0.0379034 -0.374796 0)
(-0.0283169 -0.379205 0)
(-0.0186264 -0.382027 0)
(-0.00879594 -0.38323 0)
(0.0012139 -0.382754 0)
(0.0114652 -0.38051 0)
(0.0220799 -0.376347 0)
(0.0331877 -0.370004 0)
(0.0445295 -0.361168 0)
(0.0564127 -0.349969 0)
(-0.0364798 -0.393053 0)
(-0.0274026 -0.397553 0)
(-0.0182576 -0.400623 0)
(-0.0089944 -0.402193 0)
(0.000450182 -0.402207 0)
(0.0101786 -0.400613 0)
(0.0203964 -0.397353 0)
(0.0310881 -0.392361 0)
(0.0418595 -0.385507 0)
(0.0545668 -0.376912 0)
(-0.0379119 -0.411297 0)
(-0.0286721 -0.415737 0)
(-0.0194278 -0.418908 0)
(-0.0101383 -0.42073 0)
(-0.000732438 -0.421157 0)
(0.00890714 -0.42017 0)
(0.0189627 -0.417794 0)
(0.0292178 -0.414167 0)
(0.0395622 -0.409393 0)
(0.0516604 -0.403339 0)
(-0.040351 -0.430104 0)
(-0.0308488 -0.434517 0)
(-0.0213671 -0.437688 0)
(-0.0118986 -0.439611 0)
(-0.00237656 -0.440274 0)
(0.00728434 -0.439643 0)
(0.0171664 -0.437726 0)
(0.0269565 -0.434732 0)
(0.0363552 -0.431215 0)
(0.0469053 -0.426949 0)
(-0.0420724 -0.449138 0)
(-0.0327988 -0.453501 0)
(-0.0233433 -0.45668 0)
(-0.0139237 -0.458668 0)
(-0.00445324 -0.459449 0)
(0.00514517 -0.458947 0)
(0.0147596 -0.457038 0)
(0.0241746 -0.453746 0)
(0.0334406 -0.450407 0)
(0.0430574 -0.446927 0)
(-0.0436016 -0.467732 0)
(-0.034825 -0.472006 0)
(-0.0256229 -0.475223 0)
(-0.0164511 -0.477292 0)
(-0.00725687 -0.478191 0)
(0.0021127 -0.47785 0)
(0.01119 -0.47611 0)
(0.0205181 -0.472784 0)
(0.0306442 -0.468803 0)
(0.0395193 -0.464313 0)
(-0.0457701 -0.485954 0)
(-0.0370242 -0.490102 0)
(-0.028287 -0.493162 0)
(-0.0193844 -0.495227 0)
(-0.0105014 -0.496242 0)
(-0.00146991 -0.496167 0)
(0.00726682 -0.49495 0)
(0.016405 -0.492384 0)
(0.0264076 -0.487154 0)
(0.0349829 -0.480578 0)
(-0.0480952 -0.503992 0)
(-0.0395281 -0.507775 0)
(-0.0312248 -0.510556 0)
(-0.0226203 -0.512564 0)
(-0.0140684 -0.513663 0)
(-0.00542715 -0.513766 0)
(0.00322588 -0.512846 0)
(0.0115688 -0.510608 0)
(0.0201854 -0.505393 0)
(0.0299598 -0.49694 0)
(-0.0502872 -0.520954 0)
(-0.0423551 -0.524528 0)
(-0.0343919 -0.527217 0)
(-0.0262014 -0.529215 0)
(-0.0180675 -0.530354 0)
(-0.00991798 -0.530499 0)
(-0.00167205 -0.529541 0)
(0.00627952 -0.527256 0)
(0.0139995 -0.522762 0)
(0.0239581 -0.514015 0)
(-0.0522908 -0.536376 0)
(-0.0450181 -0.540137 0)
(-0.0373485 -0.542973 0)
(-0.0295703 -0.544987 0)
(-0.0218534 -0.546083 0)
(-0.014161 -0.546167 0)
(-0.0063942 -0.545164 0)
(0.00130441 -0.54303 0)
(0.00871827 -0.53964 0)
(0.0178209 -0.533875 0)
(-0.0537535 -0.550845 0)
(-0.0467917 -0.554991 0)
(-0.0393573 -0.558046 0)
(-0.031811 -0.560121 0)
(-0.0242762 -0.561209 0)
(-0.0167061 -0.561309 0)
(-0.0090254 -0.560443 0)
(-0.00132711 -0.558754 0)
(0.00651088 -0.55662 0)
(0.0148411 -0.554293 0)
(-0.0547102 -0.565103 0)
(-0.0477797 -0.569572 0)
(-0.0404668 -0.572828 0)
(-0.0330379 -0.575036 0)
(-0.0256017 -0.57624 0)
(-0.0181025 -0.576488 0)
(-0.0105379 -0.575838 0)
(-0.00309035 -0.574371 0)
(0.00455487 -0.572203 0)
(0.0119794 -0.569328 0)
(-0.0552985 -0.579563 0)
(-0.0483191 -0.58412 0)
(-0.0411375 -0.587427 0)
(-0.0338969 -0.589681 0)
(-0.026719 -0.590928 0)
(-0.0195623 -0.591202 0)
(-0.0124673 -0.590524 0)
(-0.00567322 -0.588871 0)
(0.00112711 -0.585974 0)
(0.00764438 -0.581491 0)
(-0.0553121 -0.59414 0)
(-0.0484654 -0.598463 0)
(-0.0414979 -0.601611 0)
(-0.0345558 -0.603743 0)
(-0.0277264 -0.604854 0)
(-0.0209912 -0.604941 0)
(-0.0143859 -0.603986 0)
(-0.00812555 -0.601907 0)
(-0.00195996 -0.598342 0)
(0.00400765 -0.592829 0)
(-0.0551102 -0.608306 0)
(-0.048603 -0.612226 0)
(-0.0419021 -0.615164 0)
(-0.0352886 -0.617111 0)
(-0.0287974 -0.618015 0)
(-0.0224213 -0.617838 0)
(-0.0161653 -0.616513 0)
(-0.0101109 -0.61387 0)
(-0.00422368 -0.60949 0)
(0.00142995 -0.602973 0)
(-0.0557694 -0.621631 0)
(-0.0493137 -0.625407 0)
(-0.0428238 -0.628178 0)
(-0.0364304 -0.629907 0)
(-0.0301825 -0.630559 0)
(-0.0240611 -0.630105 0)
(-0.0180085 -0.628483 0)
(-0.0120047 -0.62557 0)
(-0.00625961 -0.621061 0)
(-7.11159e-06 -0.614093 0)
(-0.0565763 -0.634586 0)
(-0.0501845 -0.638318 0)
(-0.0438305 -0.640911 0)
(-0.0375623 -0.64239 0)
(-0.0314075 -0.642782 0)
(-0.0253362 -0.642104 0)
(-0.0192419 -0.640394 0)
(-0.0131099 -0.637758 0)
(-0.00722184 -0.634266 0)
(-0.000192571 -0.629385 0)
(-0.0570556 -0.647338 0)
(-0.0507657 -0.651038 0)
(-0.0445251 -0.653488 0)
(-0.0383305 -0.654797 0)
(-0.0321913 -0.655049 0)
(-0.0260692 -0.654322 0)
(-0.0198728 -0.65272 0)
(-0.0136669 -0.650427 0)
(-0.00739925 -0.64762 0)
(-0.0006708 -0.643817 0)
(-0.0570891 -0.659717 0)
(-0.0509178 -0.663452 0)
(-0.0449129 -0.665813 0)
(-0.0389219 -0.66703 0)
(-0.0329683 -0.667243 0)
(-0.0270128 -0.666552 0)
(-0.0210327 -0.665048 0)
(-0.0150434 -0.662811 0)
(-0.00903141 -0.659844 0)
(-0.00302644 -0.655692 0)
(-0.056817 -0.671797 0)
(-0.050947 -0.675312 0)
(-0.0452418 -0.677507 0)
(-0.0396355 -0.678633 0)
(-0.034076 -0.678823 0)
(-0.0285215 -0.67815 0)
(-0.0229496 -0.676662 0)
(-0.0173523 -0.674367 0)
(-0.0116839 -0.671201 0)
(-0.00596706 -0.667014 0)
(-0.0568045 -0.683883 0)
(-0.0513688 -0.686561 0)
(-0.0459674 -0.688362 0)
(-0.0407743 -0.689336 0)
(-0.0356629 -0.689486 0)
(-0.0305507 -0.68884 0)
(-0.0253983 -0.687415 0)
(-0.0201621 -0.685217 0)
(-0.014822 -0.682242 0)
(-0.00927687 -0.67848 0)
(-0.057366 -0.69553 0)
(-0.0523611 -0.697191 0)
(-0.0473487 -0.69849 0)
(-0.0425319 -0.699231 0)
(-0.0378059 -0.699315 0)
(-0.0330807 -0.698713 0)
(-0.028304 -0.697418 0)
(-0.0234283 -0.69544 0)
(-0.0184589 -0.692804 0)
(-0.0131425 -0.689528 0)
(-0.0579241 -0.705487 0)
(-0.0533853 -0.706811 0)
(-0.0489663 -0.707824 0)
(-0.0445977 -0.708382 0)
(-0.0402795 -0.708405 0)
(-0.0359577 -0.707847 0)
(-0.0315907 -0.706686 0)
(-0.0271485 -0.704912 0)
(-0.0225851 -0.702527 0)
(-0.0177446 -0.699482 0)
(-0.0576798 -0.713557 0)
(-0.0538871 -0.715036 0)
(-0.0501772 -0.716024 0)
(-0.0464242 -0.716542 0)
(-0.0426556 -0.716568 0)
(-0.0388577 -0.716074 0)
(-0.0350069 -0.715036 0)
(-0.0310806 -0.713431 0)
(-0.0270197 -0.711225 0)
(-0.0227115 -0.708346 0)
(-0.0568369 -0.720094 0)
(-0.053798 -0.721731 0)
(-0.0508262 -0.722814 0)
(-0.0477743 -0.72341 0)
(-0.0446628 -0.723526 0)
(-0.041487 -0.723149 0)
(-0.0382365 -0.722266 0)
(-0.0348906 -0.720853 0)
(-0.0313916 -0.718883 0)
(-0.027643 -0.71633 0)
(-0.0554243 -0.725154 0)
(-0.0531519 -0.726909 0)
(-0.0508916 -0.728135 0)
(-0.0485601 -0.728876 0)
(-0.0461422 -0.729144 0)
(-0.0436333 -0.72894 0)
(-0.0410258 -0.728255 0)
(-0.0383045 -0.72708 0)
(-0.0354194 -0.725409 0)
(-0.0323051 -0.723252 0)
(-0.0533113 -0.728719 0)
(-0.0518119 -0.7306 0)
(-0.0502846 -0.731995 0)
(-0.0486774 -0.732918 0)
(-0.0469655 -0.733382 0)
(-0.0451428 -0.733389 0)
(-0.0432047 -0.732939 0)
(-0.0411408 -0.732031 0)
(-0.0389232 -0.730669 0)
(-0.0365 -0.728871 0)
(-0.050458 -0.730771 0)
(-0.0497475 -0.732798 0)
(-0.0489568 -0.734388 0)
(-0.0480654 -0.735527 0)
(-0.0470544 -0.736218 0)
(-0.0459225 -0.736464 0)
(-0.0446677 -0.736267 0)
(-0.043288 -0.735628 0)
(-0.0417719 -0.734551 0)
(-0.0400759 -0.733049 0)
(-0.046868 -0.731316 0)
(-0.0469371 -0.733537 0)
(-0.0468646 -0.735354 0)
(-0.0466634 -0.736734 0)
(-0.0463349 -0.737671 0)
(-0.0458809 -0.738165 0)
(-0.0453041 -0.738217 0)
(-0.0446067 -0.737829 0)
(-0.043788 -0.737004 0)
(-0.0428188 -0.735751 0)
(-0.0424137 -0.730351 0)
(-0.0432499 -0.732853 0)
(-0.0438849 -0.734943 0)
(-0.0443638 -0.73659 0)
(-0.0447023 -0.737785 0)
(-0.0449127 -0.73853 0)
(-0.0450001 -0.738827 0)
(-0.0449686 -0.73868 0)
(-0.044821 -0.738094 0)
(-0.0445425 -0.73708 0)
(-0.0369085 -0.727836 0)
(-0.0385157 -0.730727 0)
(-0.039869 -0.733154 0)
(-0.0410419 -0.735099 0)
(-0.0420599 -0.736566 0)
(-0.0429474 -0.737564 0)
(-0.0437149 -0.738102 0)
(-0.0443698 -0.738187 0)
(-0.0449201 -0.737825 0)
(-0.0453675 -0.737029 0)
(-0.0303283 -0.723822 0)
(-0.0326698 -0.72715 0)
(-0.0347571 -0.72995 0)
(-0.0366321 -0.732216 0)
(-0.0383466 -0.733964 0)
(-0.0399318 -0.735213 0)
(-0.0414038 -0.735975 0)
(-0.0427755 -0.736264 0)
(-0.0440625 -0.73609 0)
(-0.0452802 -0.735466 0)
(-0.022776 -0.718492 0)
(-0.0258113 -0.722192 0)
(-0.0286153 -0.725344 0)
(-0.0311754 -0.727929 0)
(-0.033577 -0.729958 0)
(-0.0358551 -0.731448 0)
(-0.038027 -0.732415 0)
(-0.0401092 -0.732875 0)
(-0.0421207 -0.732847 0)
(-0.0440822 -0.732346 0)
(-0.0144391 -0.71188 0)
(-0.0181463 -0.715918 0)
(-0.0216137 -0.719402 0)
(-0.0248198 -0.722295 0)
(-0.0278705 -0.724594 0)
(-0.0308075 -0.726313 0)
(-0.0336481 -0.727466 0)
(-0.0364095 -0.728075 0)
(-0.0391108 -0.728163 0)
(-0.0417727 -0.727758 0)
(-0.00548556 -0.703975 0)
(-0.00983962 -0.708401 0)
(-0.0139216 -0.712225 0)
(-0.017724 -0.715414 0)
(-0.0213768 -0.717966 0)
(-0.0249278 -0.719894 0)
(-0.0283943 -0.721213 0)
(-0.0317924 -0.721949 0)
(-0.0351393 -0.722128 0)
(-0.0384536 -0.72179 0)
(0.00397902 -0.694809 0)
(-0.000990583 -0.699715 0)
(-0.00564648 -0.7039 0)
(-0.0100129 -0.707376 0)
(-0.0142392 -0.710162 0)
(-0.0183774 -0.712275 0)
(-0.0224443 -0.713739 0)
(-0.0264557 -0.714581 0)
(-0.030427 -0.714834 0)
(-0.0343737 -0.714536 0)
(0.0138809 -0.684515 0)
(0.00832705 -0.689915 0)
(0.00312759 -0.694458 0)
(-0.00179728 -0.698206 0)
(-0.00659913 -0.701201 0)
(-0.0113276 -0.703473 0)
(-0.0160025 -0.70505 0)
(-0.0206431 -0.705965 0)
(-0.0252692 -0.706251 0)
(-0.0298985 -0.705948 0)
(0.0240042 -0.673263 0)
(0.0179146 -0.679039 0)
(0.0122103 -0.683895 0)
(0.00674286 -0.68789 0)
(0.00137454 -0.691067 0)
(-0.00393807 -0.693461 0)
(-0.00921861 -0.695105 0)
(-0.0144926 -0.696035 0)
(-0.0197864 -0.696287 0)
(-0.0251223 -0.6959 0)
(0.0339038 -0.66116 0)
(0.0273908 -0.667207 0)
(0.0212738 -0.672315 0)
(0.0153382 -0.676508 0)
(0.00946257 -0.679823 0)
(0.00361466 -0.682291 0)
(-0.00222824 -0.683949 0)
(-0.00809266 -0.684831 0)
(-0.0140072 -0.684976 0)
(-0.0199925 -0.684423 0)
(0.0434824 -0.64833 0)
(0.0366469 -0.654632 0)
(0.0301819 -0.659915 0)
(0.0238318 -0.664228 0)
(0.0174978 -0.667607 0)
(0.0111595 -0.670085 0)
(0.00479969 -0.671697 0)
(-0.00160538 -0.67248 0)
(-0.00808106 -0.67247 0)
(-0.0146416 -0.671706 0)
(0.0529822 -0.634775 0)
(0.0458256 -0.641288 0)
(0.0389574 -0.646688 0)
(0.0321535 -0.651059 0)
(0.025346 -0.654448 0)
(0.0185195 -0.656889 0)
(0.0116557 -0.658418 0)
(0.00473139 -0.65907 0)
(-0.00227717 -0.658883 0)
(-0.00937934 -0.657896 0)
(0.0618133 -0.620505 0)
(0.0543858 -0.627085 0)
(0.0471392 -0.632548 0)
(0.0399119 -0.63695 0)
(0.032665 -0.640324 0)
(0.025383 -0.642702 0)
(0.0180436 -0.644118 0)
(0.0106202 -0.644609 0)
(0.00308588 -0.644214 0)
(-0.00457328 -0.642971 0)
(0.069176 -0.605702 0)
(0.061632 -0.612271 0)
(0.0541667 -0.617731 0)
(0.0466624 -0.622101 0)
(0.0391018 -0.625402 0)
(0.0314721 -0.627656 0)
(0.0237499 -0.628897 0)
(0.0159076 -0.629158 0)
(0.00791452 -0.628475 0)
(-0.000250166 -0.626888 0)
(0.0752499 -0.590621 0)
(0.0676271 -0.597145 0)
(0.0600086 -0.602529 0)
(0.0523223 -0.60679 0)
(0.0445573 -0.60994 0)
(0.0366974 -0.612 0)
(0.0287175 -0.612993 0)
(0.0205888 -0.61295 0)
(0.01228 -0.611903 0)
(0.00376763 -0.60989 0)
(0.0799577 -0.5753 0)
(0.0722685 -0.581761 0)
(0.0645515 -0.587052 0)
(0.0567709 -0.591179 0)
(0.0489106 -0.594148 0)
(0.0409448 -0.595975 0)
(0.0328422 -0.596679 0)
(0.0245691 -0.596287 0)
(0.0160899 -0.59483 0)
(0.00737743 -0.592345 0)
(0.0827588 -0.559892 0)
(0.0751354 -0.566308 0)
(0.0674776 -0.571519 0)
(0.0597649 -0.575516 0)
(0.0519729 -0.578294 0)
(0.0440664 -0.579864 0)
(0.0360055 -0.580239 0)
(0.0277483 -0.579443 0)
(0.0192493 -0.577508 0)
(0.0104698 -0.574472 0)
(0.0834368 -0.544744 0)
(0.0760367 -0.551146 0)
(0.0686241 -0.556297 0)
(0.0611748 -0.560171 0)
(0.0536527 -0.562753 0)
(0.0460141 -0.564041 0)
(0.0382099 -0.564045 0)
(0.0301884 -0.562782 0)
(0.0218939 -0.560283 0)
(0.0132764 -0.556587 0)
(0.0817879 -0.530215 0)
(0.0748184 -0.536662 0)
(0.0678728 -0.541796 0)
(0.060914 -0.545577 0)
(0.0538976 -0.547975 0)
(0.046771 -0.548979 0)
(0.0394775 -0.548589 0)
(0.0319565 -0.546818 0)
(0.0241435 -0.543693 0)
(0.0159779 -0.539256 0)
(0.0777343 -0.516753 0)
(0.0714326 -0.523318 0)
(0.0651913 -0.528495 0)
(0.0589633 -0.532225 0)
(0.0526974 -0.534468 0)
(0.0463351 -0.535201 0)
(0.0398142 -0.534415 0)
(0.0330669 -0.532116 0)
(0.0260205 -0.528326 0)
(0.0186027 -0.523086 0)
(0.071419 -0.504818 0)
(0.0660011 -0.511579 0)
(0.0606788 -0.51686 0)
(0.0553982 -0.52059 0)
(0.0501044 -0.522719 0)
(0.0447372 -0.523213 0)
(0.0392319 -0.522052 0)
(0.033519 -0.519233 0)
(0.0275214 -0.514767 0)
(0.0211602 -0.508686 0)
(0.0630966 -0.49481 0)
(0.0587479 -0.501843 0)
(0.0545221 -0.50729 0)
(0.0503616 -0.511077 0)
(0.0462136 -0.513147 0)
(0.0420213 -0.513458 0)
(0.0377255 -0.511981 0)
(0.0332627 -0.508701 0)
(0.0285621 -0.503617 0)
(0.0235499 -0.496745 0)
(0.0531604 -0.487087 0)
(0.0500222 -0.494433 0)
(0.0470104 -0.500086 0)
(0.0440719 -0.503974 0)
(0.0411614 -0.506039 0)
(0.0382329 -0.506237 0)
(0.0352402 -0.504535 0)
(0.0321352 -0.500908 0)
(0.0288633 -0.495343 0)
(0.0253686 -0.487839 0)
(0.0422026 -0.481906 0)
(0.0403359 -0.489543 0)
(0.0385666 -0.495388 0)
(0.0368521 -0.499379 0)
(0.0351617 -0.501468 0)
(0.0334654 -0.501615 0)
(0.0317363 -0.499784 0)
(0.0299473 -0.495948 0)
(0.0280681 -0.490083 0)
(0.0260691 -0.482174 0)
(0.0309929 -0.479342 0)
(0.0303472 -0.48716 0)
(0.0297363 -0.493117 0)
(0.0291354 -0.497164 0)
(0.0285312 -0.499264 0)
(0.0279133 -0.499385 0)
(0.0272744 -0.497496 0)
(0.0266094 -0.493572 0)
(0.0259128 -0.487587 0)
(0.0251833 -0.479519 0)
(0.0203826 -0.479192 0)
(0.0207755 -0.487022 0)
(0.0211257 -0.492958 0)
(0.021426 -0.496966 0)
(0.0216808 -0.49902 0)
(0.0218946 -0.499096 0)
(0.0220756 -0.497169 0)
(0.0222335 -0.493218 0)
(0.0223788 -0.48722 0)
(0.0225275 -0.479156 0)
(0.0110739 -0.480983 0)
(0.0122302 -0.488641 0)
(0.0132738 -0.494412 0)
(0.0142137 -0.498271 0)
(0.0150651 -0.500197 0)
(0.0158422 -0.500169 0)
(0.0165599 -0.498168 0)
(0.0172342 -0.494174 0)
(0.01788 -0.488167 0)
(0.0185182 -0.48013 0)
(0.00346182 -0.484059 0)
(0.00506914 -0.491414 0)
(0.00653172 -0.496918 0)
(0.00786477 -0.500545 0)
(0.00908619 -0.502273 0)
(0.0102105 -0.502082 0)
(0.011252 -0.49995 0)
(0.0122246 -0.495859 0)
(0.0131415 -0.489791 0)
(0.0140217 -0.481728 0)
(-0.00256099 -0.487735 0)
(-0.000745918 -0.494771 0)
(0.000942695 -0.499995 0)
(0.00251545 -0.503376 0)
(0.00398247 -0.504885 0)
(0.00535016 -0.504498 0)
(0.00662438 -0.502194 0)
(0.00781093 -0.497954 0)
(0.00891567 -0.491763 0)
(0.00995171 -0.48361 0)
(-0.00764131 -0.491615 0)
(-0.00567292 -0.498423 0)
(-0.0037762 -0.503441 0)
(-0.00195262 -0.506626 0)
(-0.000204915 -0.507944 0)
(0.00145943 -0.507367 0)
(0.00303289 -0.504873 0)
(0.00450907 -0.500448 0)
(0.00588338 -0.494081 0)
(0.00716059 -0.485771 0)
(-0.0126568 -0.495778 0)
(-0.0103765 -0.502505 0)
(-0.00809215 -0.507438 0)
(-0.00581932 -0.510522 0)
(-0.00357842 -0.511712 0)
(-0.00139304 -0.510978 0)
(0.000713192 -0.508298 0)
(0.00271893 -0.503665 0)
(0.00460719 -0.49708 0)
(0.00637312 -0.48856 0)
(-0.018546 -0.500737 0)
(-0.015587 -0.507564 0)
(-0.012541 -0.512562 0)
(-0.0094395 -0.515659 0)
(-0.00632031 -0.516802 0)
(-0.00322578 -0.515956 0)
(-0.000196611 -0.513103 0)
(0.002729 -0.508246 0)
(0.00551951 -0.501404 0)
(0.00815784 -0.492615 0)
(-0.0261231 -0.507428 0)
(-0.0219494 -0.514533 0)
(-0.0176088 -0.519745 0)
(-0.0131474 -0.522972 0)
(-0.00862126 -0.524148 0)
(-0.00409072 -0.523233 0)
(0.000385002 -0.520216 0)
(0.00475015 -0.515111 0)
(0.00895643 -0.507957 0)
(0.0129723 -0.498823 0)
(-0.0358841 -0.517058 0)
(-0.0298773 -0.524611 0)
(-0.0236221 -0.530177 0)
(-0.0171799 -0.533642 0)
(-0.0106261 -0.534923 0)
(-0.00404123 -0.533976 0)
(0.00249431 -0.530793 0)
(0.00890442 -0.525403 0)
(0.0151218 -0.517868 0)
(0.0210976 -0.50829 0)
(-0.0479754 -0.530886 0)
(-0.0395226 -0.539073 0)
(-0.0307212 -0.545149 0)
(-0.0216546 -0.548967 0)
(-0.0124245 -0.550428 0)
(-0.00313679 -0.549477 0)
(0.00610135 -0.546112 0)
(0.0151869 -0.540376 0)
(0.024027 -0.532361 0)
(0.0325508 -0.522205 0)
(-0.0622551 -0.550047 0)
(-0.0508088 -0.559126 0)
(-0.0388801 -0.565914 0)
(-0.0265855 -0.570232 0)
(-0.0140627 -0.571955 0)
(-0.00145538 -0.571024 0)
(0.0110927 -0.567437 0)
(0.0234425 -0.561256 0)
(0.0354647 -0.552603 0)
(0.047056 -0.541657 0)
(-0.0783709 -0.575505 0)
(-0.0634697 -0.585824 0)
(-0.0479199 -0.593592 0)
(-0.0318856 -0.598591 0)
(-0.0155509 -0.600675 0)
(0.00089416 -0.599776 0)
(0.0172593 -0.595897 0)
(0.0333603 -0.589118 0)
(0.0490225 -0.579592 0)
(0.0640977 -0.567542 0)
(-0.0956737 -0.608056 0)
(-0.0769831 -0.620028 0)
(-0.0574686 -0.629077 0)
(-0.0373487 -0.634955 0)
(-0.0168626 -0.637496 0)
(0.00375249 -0.636626 0)
(0.0242582 -0.632353 0)
(0.0444217 -0.624775 0)
(0.064018 -0.614074 0)
(0.082843 -0.60051 0)
(-0.113079 -0.648175 0)
(-0.090487 -0.662225 0)
(-0.0669057 -0.67285 0)
(-0.0426243 -0.679785 0)
(-0.0179314 -0.682859 0)
(0.00689635 -0.681998 0)
(0.0315841 -0.677218 0)
(0.0558615 -0.668628 0)
(0.0794583 -0.656424 0)
(0.102103 -0.640894 0)
(-0.129233 -0.695907 0)
(-0.102892 -0.712389 0)
(-0.0754541 -0.724801 0)
(-0.0472794 -0.732897 0)
(-0.0186931 -0.736533 0)
(0.0100155 -0.735652 0)
(0.0385655 -0.730281 0)
(0.0666762 -0.720525 0)
(0.0940462 -0.706573 0)
(0.120342 -0.688703 0)
(-0.142624 -0.750829 0)
(-0.112962 -0.76989 0)
(-0.0822566 -0.784102 0)
(-0.0508596 -0.793318 0)
(-0.0191056 -0.797464 0)
(0.0127346 -0.796528 0)
(0.0444186 -0.79055 0)
(0.0756885 -0.779613 0)
(0.106231 -0.763859 0)
(0.135731 -0.74348 0)
(-0.151915 -0.81175 0)
(-0.119553 -0.83331 0)
(-0.0865307 -0.849095 0)
(-0.0529703 -0.859219 0)
(-0.0191498 -0.863739 0)
(0.0147093 -0.862717 0)
(0.048435 -0.856202 0)
(0.0818166 -0.844239 0)
(0.114598 -0.826858 0)
(0.146694 -0.804019 0)
(-0.156631 -0.876881 0)
(-0.12214 -0.900588 0)
(-0.0878606 -0.917499 0)
(-0.0534181 -0.928159 0)
(-0.0188404 -0.932848 0)
(0.0157265 -0.931718 0)
(0.0501958 -0.924834 0)
(0.0844368 -0.912176 0)
(0.118435 -0.893584 0)
(0.152602 -0.868618 0)
(-0.156625 -0.94457 0)
(-0.120806 -0.969459 0)
(-0.0862386 -0.986805 0)
(-0.0521633 -0.9975 0)
(-0.0181865 -1.0021 0)
(0.0157424 -1.00085 0)
(0.0496167 -0.993849 0)
(0.0834899 -0.980979 0)
(0.117781 -0.961848 0)
(0.153285 -0.935676 0)
(-0.150913 -1.01182 0)
(-0.115648 -1.03724 0)
(-0.0817601 -1.05435 0)
(-0.0492311 -1.06457 0)
(-0.0171336 -1.0688 0)
(0.0148657 -1.06746 0)
(0.0468798 -1.06063 0)
(0.0792555 -1.04809 0)
(0.112936 -1.02911 0)
(0.148042 -1.00243 0)
(-0.137294 -1.07873 0)
(-0.106796 -1.102 0)
(-0.0747407 -1.11765 0)
(-0.0447968 -1.12685 0)
(-0.0156658 -1.13053 0)
(0.0133141 -1.12913 0)
(0.04241 -1.12274 0)
(0.0722935 -1.11111 0)
(0.1043 -1.09354 0)
(0.134919 -1.06901 0)
(-0.118505 -1.14142 0)
(-0.0945864 -1.16093 0)
(-0.0659053 -1.17449 0)
(-0.0393536 -1.18248 0)
(-0.0138575 -1.18556 0)
(0.0114309 -1.18415 0)
(0.0369509 -1.17835 0)
(0.0635784 -1.16797 0)
(0.092433 -1.15257 0)
(0.116625 -1.132 0)
(-0.0969058 -1.19386 0)
(-0.0791402 -1.21122 0)
(-0.0552515 -1.22316 0)
(-0.0329024 -1.23002 0)
(-0.0116887 -1.23254 0)
(0.00929169 -1.23119 0)
(0.0306056 -1.22609 0)
(0.0531794 -1.21698 0)
(0.0774594 -1.2034 0)
(0.0955919 -1.18531 0)
(-0.0745549 -1.23723 0)
(-0.0614874 -1.25255 0)
(-0.0434076 -1.26255 0)
(-0.0257668 -1.26823 0)
(-0.00927017 -1.27025 0)
(0.00697822 -1.26903 0)
(0.0236381 -1.26469 0)
(0.0416261 -1.257 0)
(0.0602315 -1.2456 0)
(0.0737662 -1.2297 0)
(-0.0526874 -1.27201 0)
(-0.0438564 -1.28417 0)
(-0.0313158 -1.29204 0)
(-0.0186011 -1.29662 0)
(-0.00682984 -1.29825 0)
(0.00473522 -1.29722 0)
(0.0167108 -1.2936 0)
(0.0298506 -1.28736 0)
(0.0429827 -1.27837 0)
(0.0523324 -1.2658 0)
(-0.0325893 -1.29606 0)
(-0.0273546 -1.30552 0)
(-0.0198233 -1.31177 0)
(-0.0118648 -1.31557 0)
(-0.00451533 -1.31699 0)
(0.00271786 -1.31616 0)
(0.0102924 -1.31317 0)
(0.0187155 -1.30807 0)
(0.0268615 -1.30098 0)
(0.0326135 -1.29123 0)
(-0.0153187 -1.31008 0)
(-0.0129663 -1.31752 0)
(-0.00962002 -1.32268 0)
(-0.00590504 -1.32602 0)
(-0.00244803 -1.32741 0)
(0.000998373 -1.3268 0)
(0.0046808 -1.32426 0)
(0.00886236 -1.31999 0)
(0.0128045 -1.31425 0)
(0.0156399 -1.30661 0)
(-0.00107534 -1.31565 0)
(-0.00104413 -1.32163 0)
(-0.00106286 -1.32607 0)
(-0.000917204 -1.32924 0)
(-0.000705559 -1.33076 0)
(-0.000394392 -1.33036 0)
(2.68636e-05 -1.3281 0)
(0.000609529 -1.32435 0)
(0.00113354 -1.31956 0)
(0.00158898 -1.31346 0)
(0.0101627 -1.31448 0)
(0.00835901 -1.31937 0)
(0.00568817 -1.32335 0)
(0.00298702 -1.3266 0)
(0.000660828 -1.32844 0)
(-0.00144763 -1.32823 0)
(-0.00359452 -1.32602 0)
(-0.00591713 -1.32251 0)
(-0.008125 -1.31836 0)
(-0.00958038 -1.31341 0)
(0.0185175 -1.30809 0)
(0.0153177 -1.31212 0)
(0.0106043 -1.31586 0)
(0.00577037 -1.31947 0)
(0.00163123 -1.32191 0)
(-0.00216479 -1.32185 0)
(-0.00617213 -1.31935 0)
(-0.0107164 -1.31574 0)
(-0.0150711 -1.31197 0)
(-0.0180122 -1.30789 0)
(0.0241603 -1.29778 0)
(0.0199203 -1.30113 0)
(0.0136914 -1.3049 0)
(0.00745383 -1.30927 0)
(0.00223499 -1.31269 0)
(-0.00256906 -1.31272 0)
(-0.00771399 -1.30946 0)
(-0.0137756 -1.30528 0)
(-0.0197689 -1.30158 0)
(-0.0238436 -1.2982 0)
(0.0273656 -1.28441 0)
(0.0223863 -1.28737 0)
(0.0150976 -1.29167 0)
(0.00822014 -1.29735 0)
(0.00260035 -1.30208 0)
(-0.00277745 -1.30215 0)
(-0.00837345 -1.29769 0)
(-0.015193 -1.29232 0)
(-0.022369 -1.28817 0)
(-0.0272731 -1.28521 0)
(0.0284354 -1.26855 0)
(0.0229448 -1.27162 0)
(0.0150623 -1.27737 0)
(0.00840856 -1.28508 0)
(0.00294881 -1.29091 0)
(-0.00301964 -1.29099 0)
(-0.00848234 -1.28543 0)
(-0.0151729 -1.27806 0)
(-0.0230533 -1.27252 0)
(-0.0285445 -1.26949 0)
(0.027414 -1.25041 0)
(0.0216785 -1.25459 0)
(0.0138507 -1.26359 0)
(0.00836225 -1.27418 0)
(0.00346917 -1.27958 0)
(-0.00349 -1.27966 0)
(-0.0083914 -1.27445 0)
(-0.0139593 -1.26417 0)
(-0.0218679 -1.25539 0)
(-0.0276651 -1.25129 0)
(0.0237238 -1.22959 0)
(0.0184008 -1.23748 0)
(0.0119114 -1.25293 0)
(0.00828381 -1.26617 0)
(0.00420641 -1.2679 0)
(-0.00421697 -1.26796 0)
(-0.00830362 -1.26638 0)
(-0.0120029 -1.25334 0)
(-0.0186025 -1.23805 0)
(-0.0240212 -1.23022 0)
(0.0161458 -1.20368 0)
(0.0126409 -1.22226 0)
(0.0108254 -1.24832 0)
(0.00852237 -1.25981 0)
(0.00527601 -1.25478 0)
(-0.00529206 -1.25481 0)
(-0.0085435 -1.25996 0)
(-0.0109243 -1.24866 0)
(-0.0127947 -1.22255 0)
(-0.0163807 -1.20385 0)
(0.00690172 -1.16444 0)
(0.0040764 -1.21391 0)
(0.0138338 -1.25134 0)
(0.00835405 -1.24973 0)
(0.00640294 -1.24041 0)
(-0.00642678 -1.2404 0)
(-0.00835649 -1.24977 0)
(-0.0139836 -1.25167 0)
(-0.0041483 -1.2141 0)
(-0.00702317 -1.16398 0)
(0.00729803 -1.08646 0)
(-0.0116122 -1.23876 0)
(0.0201872 -1.26107 0)
(0.00296914 -1.2342 0)
(0.00585156 -1.22838 0)
(-0.00589107 -1.22838 0)
(-0.00298467 -1.23419 0)
(-0.0203396 -1.26126 0)
(0.0115796 -1.23902 0)
(-0.0074289 -1.08561 0)
(0.292843 -0.055178 0)
(0.331073 -0.0509313 0)
(0.365616 -0.0455053 0)
(0.39563 -0.0389621 0)
(0.420306 -0.0314902 0)
(0.439058 -0.023416 0)
(0.451646 -0.0151486 0)
(0.458285 -0.00706404 0)
(0.459335 0.000465504 0)
(0.455013 0.00699167 0)
(0.446624 0.0122698 0)
(0.435144 0.0162697 0)
(0.421321 0.0191278 0)
(0.405797 0.0210643 0)
(0.389097 0.0223095 0)
(0.371612 0.0230672 0)
(0.35361 0.0235032 0)
(0.335267 0.0237443 0)
(0.316692 0.0238812 0)
(0.297946 0.0239755 0)
(0.279056 0.0240669 0)
(0.26003 0.0241796 0)
(0.240861 0.0243266 0)
(0.221536 0.0245139 0)
(0.202038 0.0247421 0)
(0.182353 0.0250073 0)
(0.162473 0.0253008 0)
(0.142398 0.0256082 0)
(0.122149 0.0259059 0)
(0.101769 0.026156 0)
(0.0813451 0.0262982 0)
(0.0610172 0.0262391 0)
(0.0409731 0.0258307 0)
(0.0215536 0.0248121 0)
(0.00407144 0.0229544 0)
(-0.0125111 0.0211578 0)
(-0.0262562 0.0114177 0)
(-0.0335454 -0.00121814 0)
(-0.0310101 -0.0205427 0)
(-0.0137896 -0.0382602 0)
(0.232521 -0.103489 0)
(0.262911 -0.094597 0)
(0.290202 -0.0835456 0)
(0.313743 -0.0704316 0)
(0.332965 -0.0556845 0)
(0.347524 -0.04008 0)
(0.357419 -0.0245651 0)
(0.362997 -0.00999203 0)
(0.364929 0.00303723 0)
(0.363971 0.0141308 0)
(0.360497 0.0231479 0)