/*--------------------------------*- C++ -*----------------------------------*\
  =========                 |
  \\      /  F ield         | OpenFOAM: The Open Source CFD Toolbox
   \\    /   O peration     | Website:  https://openfoam.org
    \\  /    A nd           | Version:  8
     \\/     M anipulation  |
\*---------------------------------------------------------------------------*/
FoamFile
{
    version     2.0;
    format      ascii;
    class       volScalarField;
    location    "2.8";
    object      epsilon;
}
// * * * * * * * * * * * * * * * * * * * * * * * * * * * * * * * * * * * * * //

dimensions      [0 2 -3 0 0 0 0];

internalField   nonuniform List<scalar> 
9150
(
0.0313159
0.0124283
0.0030953
0.000940527
0.000450972
0.000451196
0.000940847
0.00309548
0.0124285
0.0313167
0.030225
0.0087355
0.00172925
0.000604397
0.000339763
0.000339945
0.000604682
0.00172944
0.00873575
0.0302257
0.028427
0.0069328
0.00111557
0.000495348
0.000303892
0.00030406
0.000495628
0.0011158
0.00693315
0.0284275
0.026494
0.0059927
0.000836128
0.000462578
0.000292849
0.000293014
0.000462859
0.000836384
0.00599318
0.0264945
0.0244911
0.00558799
0.000697288
0.000455348
0.000291046
0.000291211
0.000455632
0.000697556
0.00558857
0.0244916
0.123608
0.0523514
0.0224221
0.0136781
0.00982725
0.00983569
0.0136966
0.0224551
0.0524212
0.123636
0.0761487
0.0229938
0.0130627
0.0086933
0.00610457
0.00610909
0.00870254
0.0130758
0.0230039
0.0761516
0.0553699
0.0178571
0.00758482
0.00453098
0.0029923
0.00299429
0.00453479
0.00758938
0.0178599
0.0553711
0.0425106
0.0152004
0.00477043
0.00228528
0.00135598
0.0013568
0.00228672
0.00477196
0.015201
0.0425116
0.0356123
0.0136912
0.003506
0.00129694
0.000684942
0.000685314
0.00129753
0.0035065
0.0136914
0.0356132
1.37793
0.169698
0.0479355
0.02077
0.0124662
0.0124153
0.0206492
0.0484597
0.176731
1.59619
0.27876
0.117996
0.0454377
0.0205619
0.0125451
0.0125172
0.0204763
0.0452209
0.116433
0.280113
0.235204
0.103327
0.0446684
0.0203604
0.0126269
0.0126193
0.0203337
0.044606
0.102784
0.235475
0.196983
0.0915099
0.0439616
0.0201149
0.0127106
0.0127151
0.0201207
0.0439648
0.0914816
0.197096
0.156264
0.0863777
0.0403666
0.0189357
0.0123577
0.0123674
0.0189567
0.0404071
0.0864957
0.156314
0.0568352
0.0565239
0.0561909
0.0558407
0.0554816
0.0551207
0.0547644
0.0544185
0.054088
0.0537767
0.0289156
0.0288122
0.0286929
0.0285599
0.0284154
0.0282616
0.0281005
0.0279341
0.027764
0.0275918
0.0240427
0.0239817
0.023907
0.0238198
0.0237214
0.023613
0.023496
0.0233715
0.0232406
0.0231046
0.0224845
0.0224441
0.022391
0.0223262
0.0222505
0.0221649
0.0220702
0.0219675
0.0218577
0.0217419
0.0219853
0.0219589
0.0219206
0.021871
0.0218108
0.0217408
0.0216617
0.0215745
0.02148
0.0213791
0.0219722
0.0219575
0.0219313
0.0218942
0.0218467
0.0217895
0.0217234
0.0216491
0.0215675
0.0214792
0.0222338
0.0222301
0.0222151
0.0221895
0.0221537
0.0221084
0.0220541
0.0219917
0.0219219
0.0218453
0.0226749
0.0226823
0.0226786
0.0226645
0.0226403
0.0226065
0.0225639
0.022513
0.0224546
0.0223894
0.0232475
0.0232666
0.0232749
0.0232727
0.0232605
0.0232387
0.023208
0.0231689
0.023122
0.023068
0.0239263
0.0239581
0.0239793
0.02399
0.0239906
0.0239816
0.0239634
0.0239365
0.0239017
0.0238594
0.024698
0.0247441
0.0247794
0.0248043
0.024819
0.0248238
0.0248191
0.0248055
0.0247835
0.0247537
0.0255572
0.025619
0.0256703
0.025711
0.0257412
0.0257614
0.0257717
0.0257726
0.0257646
0.0257484
0.0265032
0.026583
0.0266521
0.0267106
0.0267585
0.0267959
0.026823
0.0268402
0.026848
0.0268469
0.0275396
0.0276398
0.0277294
0.0278081
0.027876
0.027933
0.0279793
0.028015
0.0280407
0.0280567
0.0286735
0.0287971
0.02891
0.029012
0.0291028
0.0291824
0.0292507
0.0293078
0.029354
0.0293897
0.0299153
0.0300657
0.0302055
0.0303344
0.0304518
0.0305575
0.0306512
0.0307331
0.0308031
0.0308616
0.0312784
0.0314598
0.031631
0.0317912
0.0319397
0.032076
0.0321995
0.0323101
0.0324077
0.0324927
0.0327795
0.0329971
0.0332048
0.0334017
0.0335868
0.0337591
0.033918
0.0340628
0.0341933
0.0343098
0.0344385
0.0346981
0.0349487
0.0351888
0.0354171
0.0356324
0.0358333
0.0360191
0.0361891
0.0363435
0.0362787
0.0365874
0.0368882
0.0371794
0.0374591
0.0377258
0.0379776
0.0382131
0.0384312
0.0386313
0.0383277
0.0386935
0.0390531
0.0394044
0.0397452
0.0400734
0.0403865
0.0406826
0.0409595
0.0412161
0.0406186
0.0410507
0.0414788
0.0419007
0.0423137
0.0427152
0.0431022
0.043472
0.0438217
0.0441488
0.0431927
0.0437016
0.0442096
0.0447141
0.0452123
0.0457011
0.0461771
0.0466369
0.0470768
0.0474927
0.0461041
0.0467022
0.0473032
0.0479047
0.0485034
0.0490962
0.0496792
0.0502485
0.0507992
0.0513255
0.0494247
0.0501265
0.0508357
0.0515501
0.0522661
0.0529798
0.0536867
0.0543816
0.055058
0.0557078
0.0532384
0.0540696
0.0549102
0.0557573
0.0566097
0.0574643
0.0583156
0.0591565
0.0599793
0.0607745
0.0576618
0.058651
0.0596572
0.0606757
0.0617007
0.062729
0.0637616
0.0647918
0.0658114
0.0668096
0.062863
0.0640472
0.0652571
0.0664874
0.0677323
0.068985
0.0702368
0.0714874
0.0727332
0.0739585
0.0690738
0.0705003
0.0719602
0.073447
0.0749528
0.0764678
0.0779799
0.0794737
0.0809349
0.0823587
0.0766281
0.0783641
0.0801394
0.0819447
0.0837688
0.0855977
0.0874143
0.0891977
0.0909236
0.0925639
0.0860171
0.0881651
0.0903574
0.0925807
0.0948195
0.0970546
0.0992629
0.101417
0.103488
0.105443
0.0979565
0.100676
0.103446
0.10625
0.109067
0.111871
0.114634
0.117319
0.119887
0.122299
0.113473
0.117009
0.120607
0.124248
0.127907
0.131554
0.135155
0.138666
0.142036
0.14521
0.134013
0.138728
0.143529
0.148393
0.153294
0.158206
0.163095
0.16792
0.172629
0.177157
0.161554
0.167976
0.174517
0.181154
0.187864
0.194631
0.201437
0.208266
0.215095
0.221882
0.198705
0.20758
0.216615
0.22578
0.235058
0.244446
0.253959
0.26363
0.273515
0.283672
0.248671
0.261032
0.2736
0.286328
0.29919
0.312187
0.325357
0.338786
0.352621
0.367074
0.314884
0.332101
0.349595
0.367286
0.385116
0.403059
0.421125
0.439379
0.457942
0.477003
0.400039
0.423742
0.447857
0.472262
0.496847
0.521524
0.546227
0.570904
0.595486
0.619891
0.50461
0.536367
0.568775
0.601668
0.634886
0.668279
0.701705
0.734963
0.767724
0.799548
0.625615
0.666469
0.708294
0.750914
0.79415
0.837839
0.881778
0.925551
0.968502
1.0098
0.756902
0.807096
0.858575
0.911242
0.964963
1.01964
1.07495
1.13013
1.18414
1.23593
0.891172
0.950216
1.01082
1.07289
1.13646
1.20148
1.26761
1.33397
1.39938
1.46236
1.02435
1.09091
1.15905
1.22884
1.30049
1.37417
1.44967
1.52627
1.60265
1.67678
1.1591
1.23185
1.3056
1.38053
1.45725
1.53645
1.61849
1.70294
1.78832
1.87201
1.30839
1.38671
1.46436
1.54157
1.61955
1.69997
1.784
1.87173
1.96159
2.05018
1.49526
1.57948
1.6599
1.73705
1.81298
1.89005
1.97041
2.05513
2.14279
2.22791
1.74642
1.83774
1.91991
1.99548
2.06714
2.13622
2.20587
2.28083
2.36093
2.43246
2.06337
2.16175
2.24641
2.32018
2.38481
2.44122
2.49418
2.55323
2.62032
2.6667
2.3481
2.44729
2.53516
2.61386
2.68466
2.74768
2.80126
2.84935
2.89559
2.89597
2.57309
2.66776
2.74773
2.81838
2.88555
2.95472
3.02778
3.09078
3.11504
3.049
2.84345
2.92735
2.98648
3.03072
3.06866
3.10641
3.1527
3.20885
3.20107
3.08859
3.2188
3.26972
3.28517
3.28335
3.27646
3.27101
3.27466
3.2815
3.22026
3.09193
3.73182
3.70106
3.63898
3.57284
3.51506
3.46973
3.43329
3.37716
3.26108
3.1174
4.3764
4.1978
4.03136
3.89398
3.79108
3.71736
3.64
3.51252
3.3409
3.16555
5.05725
4.70059
4.4284
4.2309
4.09568
3.99252
3.85474
3.64991
3.42418
3.21378
5.60469
5.11717
4.78023
4.5575
4.41077
4.25686
4.01951
3.73884
3.47113
3.23638
5.91728
5.39931
5.06454
4.86173
4.70178
4.44464
4.10522
3.77358
3.47943
3.23107
6.02783
5.57387
5.30149
5.14499
4.9167
4.53233
4.12942
3.76524
3.45368
3.20196
6.04438
5.69167
5.52106
5.37818
5.0266
4.5566
4.10969
3.72169
3.40225
3.15853
5.97177
5.77498
5.73234
5.55583
5.07463
4.54023
4.05919
3.65465
3.33692
3.11263
5.87933
5.8595
5.91281
5.65316
5.07792
4.48938
3.98051
3.56934
3.26545
3.07348
5.79433
5.93685
6.04195
5.68434
5.03078
4.40036
3.8767
3.47334
3.19735
3.05046
5.74147
6.02197
6.12924
5.67603
4.95141
4.29043
3.76463
3.38152
3.14471
3.05251
5.70475
6.10095
6.16759
5.61088
4.83667
4.16571
3.65371
3.30319
3.11506
3.08467
5.65883
6.14196
6.12874
5.47175
4.68669
4.03346
3.5523
3.24542
3.11323
3.14946
5.59499
6.12813
6.01697
5.28989
4.5238
3.90848
3.47018
3.21414
3.14222
3.24786
5.53277
6.07731
5.85758
5.10104
4.37218
3.80421
3.41465
3.21304
3.20374
3.38082
5.51054
6.01502
5.66525
4.92722
4.24851
3.72956
3.39008
3.24431
3.29929
3.55023
5.55236
5.99653
5.52312
4.79764
4.16364
3.68979
3.39903
3.3096
3.43096
3.7592
5.69485
6.0234
5.439
4.72226
4.12264
3.68683
3.44211
3.41018
3.60192
4.01309
5.99113
6.11914
5.43711
4.71065
4.12525
3.71806
3.51793
3.54758
3.81729
4.32097
6.44842
6.24828
5.46333
4.72692
4.15304
3.77484
3.62399
3.72409
4.08332
4.69249
6.94175
6.39261
5.52278
4.77211
4.20455
3.85518
3.76006
3.94268
4.40613
5.13519
7.50572
6.63504
5.6537
4.85935
4.28178
3.95783
3.92613
4.20689
4.79338
5.65874
7.94223
6.8634
5.79819
4.95979
4.37036
4.07602
4.12046
4.51999
5.25469
6.28087
8.28408
7.09317
5.96232
5.07751
4.4722
4.20989
4.34322
4.88451
5.7971
7.01402
8.7337
7.42247
6.19547
5.2361
4.59596
4.36047
4.59328
5.30113
6.42512
7.86639
9.31172
7.85825
6.50015
5.43374
4.7357
4.51996
4.86441
5.76916
7.14765
8.86087
9.9853
8.37899
6.86248
5.65859
4.8792
4.67633
5.14741
6.28729
7.98064
10.0504
10.7396
8.97104
7.27273
5.90069
5.01479
4.81691
5.4303
6.84692
8.92156
11.4345
11.5994
9.64453
7.73219
6.15403
5.13069
4.92668
5.6976
7.43603
9.96766
13.0292
12.613
10.4268
8.25007
6.41407
5.21318
4.98769
5.93186
8.0449
11.1271
14.8616
13.8307
11.3496
8.83575
6.67309
5.24484
4.979
6.11301
8.66492
12.4275
17.0326
15.3152
12.4467
9.49357
6.91682
5.20429
4.87736
6.21478
9.27472
13.8895
19.6823
17.1527
13.7551
10.2193
7.12239
5.06789
4.66004
6.20144
9.81936
15.4726
22.8834
19.4759
15.3158
10.9943
7.25485
4.81195
4.31038
6.03074
10.1985
17.0273
26.5431
22.4789
17.1651
11.7714
7.26146
4.41564
3.82608
5.66695
10.2759
18.2672
30.2848
26.4287
19.3041
12.4536
7.0682
3.86721
3.22851
5.10229
9.92089
18.7904
33.2849
31.5898
21.6289
12.8683
6.58866
3.17704
2.56728
4.37396
9.07628
18.2349
34.4794
38.1992
23.8342
12.7617
5.75968
2.3967
1.91285
3.5559
7.79097
16.4332
33.0332
45.9178
25.2458
11.8474
4.60293
1.62484
1.33567
2.73814
6.22111
13.4365
27.7648
52.7186
24.7667
9.95663
3.27772
0.97691
0.880295
2.00953
4.66959
10.1084
20.8054
54.4437
21.4184
7.31674
2.05877
0.5254
0.550842
1.41275
3.3485
7.222
14.7148
43.4454
14.8711
4.53381
1.15057
0.25809
0.324692
0.948428
2.30742
4.94822
9.90392
23.066
7.85934
2.38326
0.586543
0.117413
0.17587
0.600284
1.51696
3.24816
6.40601
10.7042
3.80705
1.19152
0.284607
0.0511075
0.0846515
0.347702
0.943943
2.03686
3.94707
4.62988
1.79668
0.578056
0.129325
0.023779
0.0361571
0.176673
0.547514
1.21541
2.26709
1.86302
0.853796
0.266307
0.0551475
0.0147673
0.0170375
0.0742575
0.285849
0.704512
1.21029
0.854498
0.429555
0.109945
0.0264771
0.0126751
0.0127274
0.0290077
0.122191
0.420365
0.780688
0.0534824
0.0531967
0.0529431
0.052721
0.0525267
0.0523564
0.052212
0.0521235
0.0521868
0.0522996
0.0524014
0.0524687
0.0524874
0.052444
0.0523242
0.0521127
0.0517931
0.0513483
0.0507611
0.0500141
0.0490905
0.0479756
0.0466584
0.0451356
0.0434168
0.0415009
0.0394591
0.0372003
0.0346772
0.0319013
0.0288852
0.025658
0.0222965
0.0191245
0.016143
0.013246
0.0104385
0.00777741
0.00545725
0.00317776
0.0274111
0.027219
0.0270272
0.0268363
0.0266471
0.026461
0.0262824
0.0261212
0.0259942
0.0258854
0.0257817
0.025674
0.0255556
0.0254212
0.0252656
0.0250836
0.0248699
0.0246186
0.0243239
0.0239797
0.0235796
0.0231179
0.022589
0.0219885
0.0213128
0.020558
0.0197213
0.0187923
0.0177628
0.0166584
0.0154823
0.0142484
0.0129859
0.0117459
0.0105083
0.00924924
0.00797814
0.00676006
0.0058273
0.00620593
0.0229573
0.0227971
0.0226339
0.0224689
0.0223037
0.0221399
0.0219803
0.0218282
0.0216862
0.0215511
0.0214189
0.0212858
0.021148
0.0210022
0.0208449
0.0206725
0.0204813
0.0202672
0.020026
0.0197532
0.0194442
0.0190943
0.018699
0.018254
0.0177552
0.0171992
0.0165834
0.015906
0.0151679
0.0143744
0.0135318
0.0126486
0.011745
0.010836
0.00993052
0.0090334
0.00817052
0.00742326
0.00706187
0.00835011
0.0216143
0.0214739
0.0213294
0.0211821
0.0210334
0.0208845
0.0207369
0.0205923
0.0204513
0.0203127
0.0201748
0.0200353
0.0198919
0.0197422
0.0195834
0.0194127
0.0192271
0.0190233
0.0187979
0.0185475
0.0182683
0.0179568
0.0176095
0.017223
0.0167942
0.0163207
0.0158004
0.0152322
0.0146165
0.0139551
0.0132518
0.0125141
0.0117544
0.0109898
0.0102424
0.00954461
0.00895164
0.00861117
0.00908039
0.00875589
0.0212667
0.0211418
0.0210122
0.0208791
0.0207435
0.0206065
0.0204689
0.0203316
0.0201948
0.0200581
0.0199201
0.0197794
0.0196342
0.0194824
0.0193219
0.0191502
0.0189649
0.0187634
0.0185429
0.0183009
0.0180346
0.0177416
0.0174196
0.0170663
0.01668
0.0162591
0.0158021
0.0153077
0.0147744
0.0142007
0.0135857
0.0129314
0.0122482
0.0115602
0.0109056
0.0103373
0.00993391
0.00988366
0.0107996
0.00882395
0.0213799
0.0212685
0.021152
0.0210314
0.0209075
0.0207811
0.0206528
0.0205227
0.0203912
0.020258
0.020122
0.019982
0.0198363
0.0196834
0.0195211
0.0193476
0.0191607
0.0189583
0.0187385
0.0184992
0.0182389
0.0179561
0.0176497
0.0173189
0.0169633
0.0165828
0.0161772
0.0157457
0.0152862
0.0147946
0.0142636
0.0136846
0.0130571
0.0124094
0.0118024
0.0113114
0.011025
0.011156
0.012672
0.0374858
0.0217581
0.0216592
0.0215548
0.0214458
0.0213327
0.0212163
0.0210967
0.0209741
0.0208482
0.020719
0.0205857
0.0204471
0.0203018
0.020148
0.0199842
0.0198085
0.0196191
0.0194144
0.0191928
0.0189531
0.0186943
0.018416
0.018118
0.017801
0.0174659
0.0171144
0.0167482
0.0163691
0.0159774
0.0155707
0.0151406
0.0146684
0.014126
0.0135202
0.01294
0.012499
0.0122614
0.012461
0.0142656
0.0374293
0.0223138
0.022227
0.0221342
0.0220362
0.0219336
0.0218267
0.0217157
0.0216005
0.0214807
0.0213557
0.0212255
0.0210888
0.0209441
0.02079
0.0206247
0.0204468
0.0202546
0.0200467
0.0198219
0.0195793
0.0193186
0.0190396
0.0187429
0.01843
0.0181028
0.017764
0.0174172
0.0170666
0.0167167
0.0163717
0.0160336
0.0156972
0.0153317
0.0148708
0.014365
0.0138975
0.0135709
0.0137274
0.0156478
0.0376815
0.0230042
0.0229293
0.022848
0.0227609
0.0226685
0.0225711
0.0224687
0.0223611
0.0222477
0.0221277
0.0220008
0.0218663
0.0217229
0.021569
0.021403
0.0212234
0.0210288
0.0208178
0.0205894
0.0203429
0.020078
0.0197948
0.0194942
0.0191774
0.0188467
0.018505
0.0181561
0.017805
0.0174584
0.017125
0.0168177
0.0165546
0.0163485
0.0161406
0.0158078
0.0153091
0.0149177
0.0149964
0.0168281
0.0375812
0.0238076
0.0237449
0.0236752
0.0235993
0.0235173
0.0234296
0.0233362
0.0232365
0.0231302
0.0230162
0.0228937
0.0227625
0.0226214
0.0224691
0.0223039
0.0221243
0.0219289
0.0217166
0.0214862
0.0212372
0.0209692
0.0206824
0.0203774
0.0200557
0.0197192
0.0193708
0.0190143
0.0186551
0.0183005
0.0179606
0.0176494
0.0173853
0.0171837
0.017026
0.0168371
0.0165976
0.0164077
0.016523
0.0179486
0.0379028
0.0247145
0.0246647
0.0246073
0.024543
0.0244721
0.0243948
0.024311
0.0242204
0.0241224
0.024016
0.0239003
0.023774
0.0236375
0.0234892
0.0233277
0.0231514
0.022959
0.0227494
0.0225215
0.0222746
0.0220086
0.0217236
0.0214204
0.0211002
0.0207653
0.0204187
0.0200647
0.0197092
0.0193599
0.0190265
0.0187211
0.0184556
0.0182366
0.0180545
0.0178865
0.0177644
0.017806
0.0182369
0.0195595
0.00884043
0.025723
0.0256872
0.0256431
0.0255915
0.0255328
0.0254672
0.0253947
0.0253149
0.0252272
0.0251309
0.0250248
0.0249078
0.0247792
0.024639
0.0244859
0.0243184
0.0241351
0.0239348
0.0237168
0.0234802
0.0232249
0.0229512
0.0226598
0.0223521
0.0220307
0.0216986
0.0213606
0.0210225
0.0206918
0.0203774
0.0200888
0.0198345
0.0196187
0.0194401
0.0193004
0.0192347
0.0193462
0.0198566
0.0215025
0.0378496
0.0268368
0.0268165
0.0267874
0.0267502
0.0267055
0.0266536
0.0265947
0.0265284
0.0264543
0.0263716
0.0262795
0.0261769
0.0260624
0.0259366
0.0257988
0.0256478
0.0254822
0.0253009
0.0251029
0.0248875
0.0246546
0.0244042
0.0241371
0.0238547
0.0235593
0.023254
0.0229432
0.0226325
0.022329
0.0220404
0.0217755
0.0215422
0.0213466
0.0211937
0.0210939
0.0210832
0.0212603
0.0219246
0.0243152
0.0392352
0.0280641
0.0280616
0.0280496
0.0280292
0.0280011
0.0279658
0.0279237
0.0278747
0.0278187
0.027755
0.0276829
0.0276015
0.0275097
0.0274066
0.0272936
0.0271696
0.027033
0.0268828
0.0267179
0.0265374
0.0263407
0.0261278
0.0258991
0.0256555
0.0253989
0.0251321
0.024859
0.024585
0.0243169
0.0240629
0.0238324
0.0236352
0.0234803
0.0233768
0.0233404
0.0234119
0.0237095
0.0246158
0.0276927
0.0457673
0.0294172
0.0294352
0.0294433
0.0294428
0.0294347
0.02942
0.0293991
0.0293726
0.0293405
0.0293026
0.0292584
0.0292071
0.029148
0.0290801
0.0290038
0.0289197
0.0288264
0.0287223
0.0286061
0.0284765
0.0283324
0.028173
0.0279982
0.0278083
0.0276045
0.027389
0.0271656
0.0269398
0.0267194
0.0265148
0.0263391
0.0262068
0.0261312
0.0261249
0.0262079
0.0264319
0.0269504
0.0282483
0.0322758
0.054521
0.0309124
0.0309545
0.0309865
0.0310099
0.0310261
0.0310366
0.0310425
0.0310448
0.031044
0.0310404
0.031034
0.0310241
0.03101
0.0309911
0.0309667
0.0309388
0.0309058
0.0308658
0.0308167
0.0307565
0.0306834
0.0305958
0.0304926
0.0303731
0.0302379
0.0300889
0.0299298
0.0297673
0.0296115
0.0294774
0.0293857
0.0293601
0.0294213
0.0295848
0.0298747
0.0303557
0.0312195
0.0330788
0.038406
0.0666942
0.032571
0.0326417
0.032702
0.0327538
0.0327992
0.0328405
0.0328796
0.0329182
0.0329576
0.0329987
0.0330418
0.0330866
0.0331325
0.0331789
0.0332251
0.0332718
0.0333187
0.033363
0.0334017
0.0334319
0.0334505
0.0334548
0.0334425
0.0334121
0.0333636
0.0332986
0.0332216
0.0331408
0.03307
0.0330304
0.0330543
0.0331805
0.0334381
0.0338406
0.0344192
0.0352675
0.0366414
0.0392903
0.0462055
0.0826108
0.0344203
0.0345242
0.0346174
0.0347025
0.0347827
0.0348611
0.0349407
0.0350242
0.0351139
0.0352112
0.0353171
0.035432
0.0355549
0.0356853
0.0358222
0.0359649
0.0361138
0.036265
0.0364142
0.0365571
0.0366893
0.0368069
0.0369063
0.0369852
0.0370429
0.0370813
0.0371064
0.0371293
0.0371679
0.0372502
0.0374207
0.0377371
0.0382327
0.0389088
0.039814
0.0410927
0.0431006
0.0467935
0.0558838
0.101995
0.0364924
0.0366351
0.0367664
0.03689
0.0370105
0.0371324
0.0372603
0.0373981
0.037549
0.0377154
0.037899
0.0381006
0.0383196
0.0385545
0.0388038
0.0390657
0.0393402
0.0396218
0.0399048
0.0401833
0.0404514
0.0407038
0.040936
0.0411446
0.0413288
0.0414911
0.0416396
0.0417905
0.0419684
0.0422078
0.0425598
0.0430915
0.0438342
0.0447785
0.0460057
0.0477181
0.0503854
0.0552557
0.0671261
0.124886
0.0388256
0.0390138
0.039189
0.0393562
0.039522
0.0396936
0.0398776
0.0400794
0.0403036
0.0405533
0.0408308
0.0411372
0.0414717
0.0418324
0.0422167
0.0426214
0.0430451
0.0434804
0.0439197
0.0443554
0.0447804
0.0451882
0.0455738
0.0459336
0.0462671
0.0465775
0.0468751
0.0471816
0.0475313
0.047965
0.0485357
0.0492944
0.0502621
0.0514572
0.0529826
0.0551047
0.0584213
0.0644985
0.0793426
0.152666
0.0414667
0.0417092
0.0419337
0.0421477
0.0423625
0.0425893
0.0428374
0.0431139
0.0434241
0.043772
0.04416
0.044589
0.0450583
0.0455658
0.0461073
0.0466777
0.0472729
0.0478831
0.0484985
0.04911
0.0497094
0.0502902
0.0508478
0.0513802
0.0518887
0.0523779
0.0528591
0.0533555
0.0539072
0.0545576
0.0553523
0.0563324
0.0575252
0.0589602
0.0607585
0.0632643
0.0671985
0.0744493
0.0924261
0.184139
0.0444697
0.0447777
0.0450561
0.0453179
0.0455846
0.0458725
0.0461936
0.0465562
0.0469661
0.0474273
0.0479418
0.0485103
0.0491319
0.0498045
0.050523
0.0512795
0.0520651
0.0528671
0.0536734
0.0544736
0.0552593
0.0560245
0.0567665
0.0574866
0.0581907
0.0588879
0.0595901
0.0603174
0.0611035
0.0619888
0.0630055
0.0641909
0.0655782
0.0672102
0.0692655
0.0721524
0.0767052
0.0851456
0.106305
0.216969
0.0479036
0.0482907
0.0486257
0.0489349
0.0492578
0.0496145
0.0500184
0.0504789
0.0510017
0.0515901
0.0522453
0.052967
0.053754
0.0546044
0.055514
0.0564717
0.0574611
0.058465
0.0594701
0.0604661
0.0614446
0.0624005
0.0633331
0.0642478
0.0651574
0.0660796
0.0670272
0.068013
0.0690568
0.0701853
0.0714112
0.0727743
0.0743178
0.0761303
0.0784492
0.0817285
0.0869207
0.0965849
0.12093
0.250777
0.0518496
0.0523355
0.0527309
0.053098
0.0534878
0.0539204
0.0544135
0.0549798
0.0556255
0.056352
0.0571585
0.0580425
0.0590017
0.0600344
0.0611391
0.0623026
0.0634987
0.0647038
0.0659068
0.0670987
0.0682722
0.0694233
0.0705523
0.0716663
0.0727818
0.0739263
0.0751188
0.0763578
0.0776516
0.0790026
0.0804196
0.0819502
0.0836537
0.0856676
0.0882684
0.0919627
0.097838
0.108838
0.136699
0.286128
0.0563583
0.0569726
0.0574632
0.0579121
0.0583807
0.0588954
0.0594864
0.0601697
0.0609494
0.0618236
0.0627881
0.063838
0.0649692
0.0661807
0.0674718
0.0688287
0.0702171
0.0716064
0.0729908
0.0743648
0.0757233
0.0770651
0.0783935
0.0797173
0.0810516
0.0824174
0.0838288
0.0852853
0.0867957
0.0883501
0.0899574
0.091664
0.093549
0.0957819
0.0986682
0.102774
0.109325
0.121645
0.153001
0.321715
0.0615775
0.062356
0.0629985
0.0634938
0.0640153
0.0646255
0.0653419
0.0661708
0.0671063
0.0681404
0.0692662
0.0704779
0.071772
0.0731488
0.0746055
0.0761244
0.0776655
0.0792024
0.0807307
0.0822511
0.0837647
0.0852767
0.086795
0.088331
0.0898961
0.0914963
0.0931321
0.0948071
0.0965175
0.0982555
0.100037
0.101917
0.103998
0.106467
0.109647
0.11416
0.121368
0.134975
0.169783
0.357842
0.0678308
0.0688321
0.0696905
0.0702896
0.0707913
0.0714497
0.0722898
0.0732706
0.0743587
0.075539
0.0768061
0.0781554
0.0795819
0.0810838
0.0826553
0.0842786
0.0859139
0.0875391
0.0891531
0.0907654
0.0923908
0.0940429
0.0957302
0.0974586
0.0992297
0.101046
0.102907
0.104806
0.106726
0.108665
0.110652
0.112747
0.115059
0.117779
0.121253
0.126156
0.133986
0.14883
0.18702
0.394392
0.0752148
0.0764477
0.0775215
0.078346
0.0789529
0.0796905
0.0806813
0.0818168
0.0830399
0.0843308
0.0856984
0.0871406
0.0886445
0.090199
0.0917988
0.0934369
0.095073
0.0966943
0.0983114
0.099949
0.101634
0.103385
0.105202
0.10708
0.109008
0.111001
0.113062
0.115179
0.11734
0.119537
0.121793
0.12416
0.126741
0.129733
0.133502
0.138778
0.147187
0.163192
0.204635
0.430956
0.083804
0.0852107
0.0864463
0.0874979
0.0884002
0.0892999
0.0904351
0.0917761
0.0931958
0.0946544
0.0961629
0.0977174
0.099278
0.100816
0.102332
0.103843
0.105322
0.106794
0.108302
0.109881
0.111555
0.113337
0.115221
0.117184
0.119214
0.121349
0.123608
0.125974
0.128422
0.130933
0.133512
0.136195
0.13908
0.142363
0.146428
0.152052
0.160988
0.178057
0.222567
0.467191
0.0942074
0.0958227
0.0972928
0.0986271
0.099874
0.101043
0.102202
0.103643
0.105238
0.106896
0.108622
0.11037
0.111997
0.113421
0.114687
0.115839
0.116946
0.118084
0.119325
0.120714
0.122269
0.123987
0.125853
0.127845
0.12995
0.132212
0.134674
0.137313
0.140084
0.142946
0.145884
0.148919
0.152137
0.15573
0.160094
0.166043
0.175442
0.193465
0.240828
0.502975
0.107368
0.109224
0.110951
0.11257
0.114112
0.115582
0.1169
0.118406
0.120366
0.122276
0.124229
0.126161
0.127736
0.128762
0.129395
0.129817
0.130245
0.13082
0.131624
0.132696
0.134037
0.135623
0.137419
0.13939
0.141516
0.143849
0.146476
0.149369
0.152462
0.155691
0.159016
0.162435
0.166014
0.169939
0.174606
0.180855
0.190652
0.209522
0.259571
0.538744
0.124651
0.126865
0.128832
0.130663
0.132397
0.134106
0.135753
0.137274
0.140295
0.142872
0.144963
0.146846
0.147825
0.147689
0.146959
0.146149
0.14556
0.145345
0.145562
0.146215
0.147279
0.148704
0.150423
0.152347
0.154371
0.156614
0.159283
0.162363
0.165752
0.169349
0.173076
0.1769
0.180867
0.185139
0.190098
0.1966
0.20673
0.22639
0.279117
0.575824
0.148304
0.151194
0.153669
0.155853
0.157845
0.159737
0.161553
0.163479
0.16681
0.17021
0.173002
0.174794
0.173646
0.170641
0.167685
0.165236
0.163403
0.162248
0.16176
0.161897
0.162596
0.163779
0.165349
0.167141
0.168827
0.170762
0.173367
0.176571
0.180218
0.18416
0.188278
0.192505
0.196858
0.201454
0.206637
0.213298
0.223726
0.244232
0.299901
0.616568
0.181673
0.185993
0.189715
0.192825
0.195559
0.197879
0.199719
0.202232
0.206187
0.210151
0.212476
0.210384
0.204238
0.197839
0.192503
0.18823
0.184974
0.182687
0.181294
0.180713
0.180849
0.181596
0.182834
0.184271
0.185308
0.186727
0.189133
0.192367
0.196196
0.200418
0.20487
0.209445
0.214106
0.218923
0.224224
0.230981
0.241724
0.263188
0.322163
0.661913
0.228927
0.236018
0.242405
0.247784
0.252053
0.254611
0.256538
0.2595
0.26337
0.265017
0.260412
0.250581
0.240209
0.231196
0.223612
0.217357
0.212363
0.208543
0.205809
0.204065
0.203205
0.203106
0.203618
0.204283
0.204406
0.205149
0.207183
0.210267
0.214105
0.218457
0.223118
0.227929
0.232781
0.237713
0.243075
0.249926
0.260954
0.283293
0.345617
0.709181
0.294715
0.306713
0.318661
0.329291
0.336009
0.339215
0.340243
0.339973
0.337671
0.328986
0.314851
0.300413
0.287217
0.275484
0.265201
0.25634
0.248864
0.242726
0.237865
0.234199
0.231624
0.230001
0.229139
0.22845
0.227295
0.22701
0.228282
0.230866
0.23443
0.238687
0.243385
0.248296
0.253246
0.258234
0.263617
0.270505
0.281688
0.304703
0.369926
0.75337
0.383253
0.401966
0.422625
0.442604
0.455991
0.460917
0.458643
0.448293
0.430309
0.409491
0.389461
0.370757
0.353505
0.33771
0.323365
0.310501
0.299165
0.289399
0.281201
0.274503
0.269184
0.265075
0.261955
0.259223
0.256208
0.254206
0.254024
0.25549
0.25827
0.262007
0.266376
0.271067
0.27584
0.28064
0.285824
0.292593
0.303932
0.327788
0.396256
0.804148
0.497895
0.521453
0.547073
0.573797
0.59692
0.610101
0.608716
0.588189
0.556858
0.526407
0.498531
0.47275
0.448776
0.426431
0.405675
0.386566
0.369235
0.353867
0.340545
0.329168
0.319551
0.311474
0.304713
0.29887
0.293253
0.288784
0.286328
0.285873
0.287182
0.289805
0.293323
0.297348
0.301561
0.305856
0.310603
0.317077
0.328467
0.353508
0.427359
0.869901
0.645327
0.671672
0.697226
0.721668
0.743712
0.759705
0.764033
0.749513
0.719281
0.684006
0.648589
0.614121
0.581051
0.549563
0.519802
0.49187
0.465907
0.442395
0.421547
0.403239
0.387216
0.373227
0.361044
0.350448
0.340992
0.332773
0.327005
0.323856
0.322923
0.323724
0.325738
0.32853
0.331699
0.33507
0.33899
0.344728
0.355571
0.380853
0.458201
0.931618
0.831532
0.86256
0.889709
0.911962
0.927863
0.93594
0.935064
0.925172
0.906011
0.876622
0.838529
0.796545
0.753965
0.712063
0.671542
0.632738
0.595725
0.561158
0.529766
0.501667
0.476616
0.454313
0.43457
0.417247
0.402174
0.389301
0.379432
0.372779
0.368527
0.366325
0.365834
0.366427
0.367455
0.368715
0.370667
0.374657
0.384206
0.409529
0.491781
1.00959
1.05055
1.08881
1.12041
1.14377
1.15775
1.16213
1.15771
1.14542
1.12512
1.09614
1.05846
1.01379
0.965117
0.914298
0.862543
0.810932
0.76045
0.71236
0.667822
0.627232
0.590486
0.557277
0.52757
0.501353
0.478593
0.459492
0.443897
0.432294
0.424027
0.417743
0.41346
0.410681
0.408411
0.406544
0.40584
0.407728
0.415891
0.441303
0.528998
1.09458
1.28679
1.33406
1.37261
1.40078
1.41757
1.4229
1.41792
1.40353
1.3801
1.34781
1.30702
1.25837
1.20389
1.14558
1.08429
1.02061
0.95623
0.893608
0.834527
0.779737
0.729401
0.683355
0.641727
0.604709
0.572334
0.544474
0.521118
0.502421
0.488388
0.477537
0.468541
0.46139
0.455233
0.449834
0.446153
0.445735
0.452411
0.47807
0.572396
1.19684
1.52428
1.5818
1.62888
1.66398
1.68627
1.69542
1.69245
1.67836
1.65384
1.61931
1.57519
1.52213
1.46153
1.39531
1.32505
1.2516
1.176
1.10043
1.02706
0.957373
0.892219
0.832008
0.777094
0.727831
0.684274
0.645596
0.612017
0.584065
0.561724
0.544449
0.530198
0.517766
0.507103
0.498245
0.491701
0.48906
0.49459
0.521527
0.625708
1.33196
1.74992
1.81799
1.87392
1.91626
1.94429
1.95801
1.95848
1.94664
1.92327
1.88889
1.84396
1.78916
1.72557
1.65471
1.57807
1.49678
1.41196
1.32541
1.23935
1.15572
1.07595
1.00107
0.932035
0.869601
0.812975
0.762055
0.716803
0.677708
0.645201
0.618987
0.597886
0.579633
0.564165
0.551833
0.542569
0.537913
0.542664
0.571833
0.690049
1.50816
1.95492
2.03156
2.0938
2.14075
2.17225
2.18957
2.19397
2.18629
2.16702
2.13644
2.09479
2.04247
1.9802
1.909
1.82998
1.74422
1.65302
1.55819
1.46195
1.36649
1.2737
1.18519
1.1024
1.02584
0.955401
0.891025
0.832918
0.781641
0.737899
0.701481
0.671513
0.646759
0.626586
0.610824
0.599014
0.592613
0.597068
0.629419
0.764306
1.70778
2.13738
2.21578
2.27722
2.32226
2.35305
2.37199
2.38035
2.37857
2.36656
2.34396
2.31037
2.26557
2.20962
2.14291
2.06614
1.98026
1.88661
1.78705
1.68385
1.57939
1.47599
1.37573
1.28049
1.19039
1.10626
1.02855
0.957621
0.893902
0.838069
0.790516
0.750573
0.718288
0.693151
0.674183
0.660334
0.652673
0.657328
0.693565
0.847682
1.93822
2.30701
2.37163
2.41843
2.45202
2.47657
2.49447
2.50636
2.51181
2.50978
2.49892
2.47788
2.44547
2.40088
2.34374
2.27417
2.19283
2.10096
2.00045
1.89368
1.78332
1.67212
1.56267
1.45639
1.35429
1.25768
1.16756
1.08445
1.00879
0.941224
0.882562
0.833575
0.793801
0.762784
0.740196
0.725135
0.717565
0.723035
0.763717
0.93787
2.18313
2.48175
2.50703
2.52226
2.53439
2.5464
2.5597
2.5736
2.58631
2.59551
2.59865
2.59318
2.57679
2.54759
2.50425
2.44616
2.37346
2.28712
2.18894
2.0815
1.96789
1.85136
1.73496
1.61994
1.50826
1.40145
1.30077
1.20719
1.1212
1.04331
0.97453
0.916517
0.86898
0.83182
0.806044
0.791103
0.78575
0.792869
0.837655
1.03171
2.43259
2.66416
2.63149
2.60386
2.58676
2.58054
2.585
2.59782
2.61573
2.63509
2.65207
2.66285
2.66385
2.65198
2.6248
2.58075
2.51927
2.44078
2.34689
2.24041
2.12512
2.00513
1.8834
1.76225
1.64388
1.52986
1.4215
1.31992
1.2258
1.13979
1.06275
0.996258
0.942251
0.900914
0.87202
0.855383
0.85092
0.86106
0.91083
1.12689
2.70004
2.82463
2.73581
2.66862
2.62306
2.59772
2.59121
2.60022
2.62056
2.64759
2.67639
2.70197
2.71948
2.72453
2.71351
2.68381
2.63396
2.56361
2.47376
2.36757
2.25006
2.12676
2.00114
1.87634
1.75433
1.63645
1.52375
1.41725
1.31804
1.22693
1.14482
1.07315
1.01409
0.968706
0.936193
0.916371
0.910424
0.922634
0.978175
1.21687
2.94524
2.91998
2.80102
2.71133
2.64677
2.60737
2.59187
2.5971
2.61876
2.65178
2.69049
2.72892
2.76107
2.78131
2.78482
2.76784
2.72799
2.66368
2.57479
2.46522
2.34274
2.21476
2.08637
1.96024
1.83748
1.71874
1.60476
1.49648
1.3951
1.30179
1.21756
1.14359
1.08143
1.03216
0.995526
0.971801
0.963031
0.975653
1.0385
1.30088
3.17571
2.95193
2.82988
2.73176
2.65848
2.6122
2.59257
2.59712
2.62182
2.66144
2.70986
2.76039
2.80602
2.83991
2.85583
2.84875
2.81542
2.75418
2.66263