/*--------------------------------*- C++ -*----------------------------------*\
  =========                 |
  \\      /  F ield         | OpenFOAM: The Open Source CFD Toolbox
   \\    /   O peration     | Website:  https://openfoam.org
    \\  /    A nd           | Version:  8
     \\/     M anipulation  |
\*---------------------------------------------------------------------------*/
FoamFile
{
    version     2.0;
    format      ascii;
    class       volScalarField;
    location    "2.8";
    object      p_rgh;
}
// * * * * * * * * * * * * * * * * * * * * * * * * * * * * * * * * * * * * * //

dimensions      [1 -1 -2 0 0 0 0];

internalField   nonuniform List<scalar> 
9150
(
2552.81
2525.8
2500.3
2483.11
2474.8
2474.8
2483.1
2500.29
2525.78
2552.79
2543.57
2524
2508.36
2496.55
2490.58
2490.57
2496.55
2508.35
2523.99
2543.55
2533.91
2520.33
2511.8
2504.04
2499.94
2499.94
2504.04
2511.79
2520.32
2533.89
2528.82
2518.79
2513.33
2507.97
2505
2505
2507.96
2513.33
2518.78
2528.81
2527.15
2518.22
2513.65
2509.48
2507.03
2507.03
2509.47
2513.64
2518.21
2527.14
2087.77
2084.04
2109.2
2123.45
2130.11
2130.07
2123.32
2109.01
2083.78
2087.44
2277.62
2253.58
2248.23
2247.03
2247.17
2247.15
2246.96
2248.12
2253.45
2277.48
2401.65
2370.42
2354.54
2344.68
2340.04
2340.03
2344.64
2354.49
2370.35
2401.59
2501.86
2459.79
2432.04
2414.71
2406.22
2406.21
2414.68
2432.01
2459.75
2501.83
2572.42
2519.58
2480.98
2458.94
2448.81
2448.8
2458.93
2480.96
2519.56
2572.4
1905.46
1944.97
1934.36
1942.49
1937.72
1937.29
1942.21
1933.49
1942.78
1900.86
1932.78
1951.85
1932.43
1940.85
1936.27
1935.89
1940.77
1930.98
1950.17
1929.64
1909.95
1941.41
1909.44
1917.67
1920.51
1920.35
1917.36
1908.46
1940.17
1908.05
1750.47
1875.91
1892.22
1911.1
1927.39
1927.3
1910.75
1891.5
1875.27
1749.05
1623.85
1863.65
1959.62
1989.76
2005.54
2005.48
1989.53
1959.26
1863.22
1622.89
1838.5
1838.78
1839.07
1839.36
1839.65
1839.94
1840.23
1840.53
1840.82
1841.12
1838.6
1838.89
1839.18
1839.48
1839.77
1840.06
1840.36
1840.65
1840.95
1841.24
1838.69
1838.98
1839.28
1839.58
1839.88
1840.17
1840.47
1840.76
1841.05
1841.34
1838.74
1839.04
1839.35
1839.65
1839.95
1840.25
1840.54
1840.84
1841.13
1841.41
1838.77
1839.08
1839.38
1839.69
1839.99
1840.29
1840.59
1840.89
1841.18
1841.47
1838.77
1839.08
1839.39
1839.7
1840.01
1840.31
1840.62
1840.92
1841.21
1841.5
1838.75
1839.07
1839.38
1839.7
1840.01
1840.32
1840.63
1840.93
1841.24
1841.53
1838.71
1839.03
1839.36
1839.68
1839.99
1840.31
1840.63
1840.94
1841.25
1841.55
1838.66
1838.99
1839.31
1839.64
1839.97
1840.29
1840.61
1840.93
1841.25
1841.56
1838.59
1838.92
1839.26
1839.59
1839.93
1840.26
1840.59
1840.91
1841.23
1841.56
1838.5
1838.84
1839.19
1839.53
1839.87
1840.21
1840.55
1840.88
1841.21
1841.54
1838.4
1838.75
1839.1
1839.45
1839.8
1840.15
1840.5
1840.84
1841.18
1841.52
1838.28
1838.64
1839.01
1839.37
1839.72
1840.07
1840.41
1840.79
1841.14
1841.49
1838.16
1838.53
1838.9
1839.27
1839.63
1839.99
1840.3
1840.67
1841.08
1841.44
1838.03
1838.41
1838.79
1839.17
1839.54
1839.91
1840.2
1840.51
1840.96
1841.36
1837.89
1838.28
1838.67
1839.06
1839.44
1839.82
1840.19
1840.41
1839.87
1840.17
1837.75
1838.15
1838.55
1838.95
1839.35
1839.75
1840.15
1840.47
1838.97
1838.6
1837.6
1838.01
1838.42
1838.83
1839.24
1839.65
1840.06
1840.46
1839.16
1838.3
1837.45
1837.87
1838.3
1838.71
1839.13
1839.53
1839.94
1840.35
1840.29
1837.78
1837.31
1837.75
1838.18
1838.6
1839.01
1839.43
1839.84
1840.25
1840.67
1837.9
1837.19
1837.63
1838.06
1838.48
1838.89
1839.29
1839.67
1840.05
1840.42
1838.89
1837.09
1837.54
1837.98
1838.4
1838.8
1839.18
1839.54
1839.86
1840.16
1839.98
1837.04
1837.51
1837.96
1838.38
1838.78
1839.15
1839.49
1839.78
1840.03
1840.24
1837.06
1837.55
1838.03
1838.48
1838.91
1839.3
1839.67
1840
1840.3
1840.57
1837.13
1837.66
1838.17
1838.65
1839.09
1839.5
1839.86
1840.15
1840.36
1840.47
1837.28
1837.87
1838.43
1838.98
1839.5
1840
1840.48
1840.96
1841.43
1841.9
1837.5
1838.14
1838.77
1839.38
1839.97
1840.55
1841.12
1841.7
1842.32
1842.99
1837.76
1838.47
1839.15
1839.81
1840.43
1841.02
1841.56
1842.06
1842.49
1842.85
1838.09
1838.88
1839.65
1840.39
1841.08
1841.73
1842.32
1842.84
1843.28
1843.62
1838.47
1839.38
1840.26
1841.11
1841.91
1842.65
1843.33
1843.93
1844.44
1844.84
1838.9
1839.96
1840.99
1841.98
1842.93
1843.83
1844.65
1845.39
1846.01
1846.5
1839.33
1840.57
1841.79
1842.99
1844.15
1845.27
1846.32
1847.28
1848.13
1848.84
1839.69
1841.14
1842.6
1844.06
1845.51
1846.93
1848.3
1849.62
1850.84
1851.94
1839.86
1841.56
1843.3
1845.07
1846.87
1848.67
1850.47
1852.24
1853.97
1855.61
1839.72
1841.69
1843.74
1845.86
1848.05
1850.3
1852.62
1854.97
1857.34
1859.76
1839.12
1841.37
1843.73
1846.22
1848.84
1851.6
1854.51
1857.57
1860.84
1864.49
1837.91
1840.4
1843.06
1845.89
1848.9
1852.12
1855.59
1859.34
1863.51
1868.39
1835.9
1838.61
1841.5
1844.58
1847.86
1851.39
1855.17
1859.27
1863.78
1868.93
1832.97
1835.84
1838.9
1842.15
1845.59
1849.24
1853.11
1857.22
1861.59
1866.19
1829.01
1832.02
1835.2
1838.58
1842.13
1845.69
1849.5
1852.44
1853.78
1851.27
1818.19
1822.62
1830
1833.96
1837.75
1839.55
1827.28
1818.76
1811.51
1813.22
1765.77
1776.83
1813.94
1817.35
1828.89
1826.07
1796.58
1800.75
1804.66
1808.22
1799.02
1784.04
1787.49
1791.33
1810.32
1827.88
1818.5
1816.41
1835.68
1843.37
1801.95
1802.02
1790.11
1797.95
1812.16
1816.21
1820.76
1826.07
1832.17
1838.86
1791.16
1792.95
1794.88
1796.96
1799.34
1802.48
1806.67
1812.14
1818.93
1826.84
1779.34
1780.78
1782.07
1782.76
1782.94
1784.23
1787.34
1792.82
1800.95
1811.58
1762.66
1762.18
1759.25
1725.4
1645.67
1567.83
1516.25
1537.05
1605.15
1699.57
1419.18
1377.58
1359.15
1272.7
1159.81
1099.63
1100.03
1101.22
1119.08
1229.87
1113.66
1113.26
1109.96
1105.44
1101.06
1097.83
1095.99
1095.26
1095.64
1102.2
1215.1
1249.81
1245.23
1203.84
1155.77
1098.66
1081.91
1079.77
1080.43
1087.57
1726.47
1757.81
1775.19
1767.51
1721.29
1567.19
1229.6
1058.8
1058.92
1098.55
1752.42
1760.39
1768.72
1777.91
1788.66
1798.35
1663.61
1063.76
1045.02
1479.56
1738.02
1746.59
1754.54
1762.26
1770.02
1775.72
1717.1
1063.59
1123.64
1685.29
1723.63
1739.47
1745.45
1751.27
1755.96
1726.71
1521.89
1123.69
1549.94
1767.21
1699.82
1741.27
1743.91
1745.93
1745.22
1395.54
1261.32
1407.54
1727.79
1766.64
1680.21
1739.99
1742.65
1741.85
1574.56
1202.76
1223.17
1509.81
1752.7
1760.74
1692.37
1730.38
1735.36
1710.83
1178.87
1163.12
1288.3
1686.18
1753.94
1754.51
1713.96
1717.67
1720.39
1227.4
1047.19
1153.09
1683.44
1751.05
1750.05
1747.36
1703.37
1706.87
1483.74
947.742
996.403
1602.89
1749.43
1748.02
1744.44
1740.19
1700.99
1704.39
997.467
924.88
1213.87
1719.76
1744.94
1742.73
1738.51
1733.32
1700.15
1369.37
859.402
887.272
1528.09
1747.16
1745.89
1740.63
1734.58
1727.87
1714.29
988.302
833.443
914.675
1588.31
1745.77
1743.11
1736.81
1729.95
1722.4
1563.4
832.45
814.468
907.982
1594.6
1743.32
1739.9
1733.07
1725.61
1717.43
1138.9
799.032
801.076
891.593
1608.69
1741.23
1737.01
1729.81
1721.91
1713.24
907.787
789.153
789.934
949.664
1666.96
1740.42
1735.02
1727.5
1719.33
1710.47
834.81
776.634
777.912
1127.46
1719.64
1739.31
1733.19
1725.61
1717.41
1708.67
826.854
767.262
764.508
1370.94
1742.22
1738.81
1731.9
1724.1
1715.74
1706.95
897.012
764.258
758.116
1584.77
1742.55
1737.73
1730.55
1722.7
1714.29
1705.34
960.708
767.744
1008.36
1702.42
1740.75
1735.94
1729.25
1721.86
1713.91
1705.47
967.091
770.949
1303.3
1738.86
1739.72
1734.89
1728.64
1721.67
1714.18
1706.37
860.995
772.723
1541.64
1743.02
1741.62
1736.46
1729.88
1722.47
1714.54
1706.37
720.301
934.975
1710.72
1757.3
1750.2
1742.02
1733.46
1724.59
1715.4
1705.91
699.65
1232.55
1759.85
1760.35
1752.98
1744.65
1735.81
1726.63
1717.26
1707.93
669.003
1460.05
1768.38
1763.84
1756.34
1747.59
1738.08
1728.22
1718.39
1709.11
639.466
1638.6
1780.43
1771.22
1761.32
1750.93
1740.04
1728.83
1717.49
1706.21
786.253
1703.45
1781.23
1772.41
1762.78
1752.55
1741.72
1730.43
1718.85
1706.98
814.948
1712.24
1779.46
1771.72
1763.01
1753.67
1743.74
1733.51
1723.3
1713.25
808.398
1711.38
1776.99
1770.37
1762.63
1754.08
1744.82
1735.31
1726.21
1718.02
798.906
1712.64
1776.71
1770.72
1763.59
1755.44
1746.26
1736.23
1725.35
1712.65
803.558
1722.57
1779.26
1773.67
1767.21
1759.89
1751.74
1742.96
1733.61
1723.78
828.118
1738.7
1783.76
1778.53
1772.78
1766.44
1759.54
1752.25
1744.7
1737.71
856.824
1753.78
1789.21
1784.41
1779.41
1774.09
1768.5
1762.84
1757.46
1753.48
877.901
1766.37
1794.92
1790.55
1786.18
1781.61
1776.84
1772.15
1768.06
1765.44
898.184
1778.39
1800.66
1796.76
1792.89
1788.77
1784.3
1779.67
1775.18
1770.85
929.534
1791.45
1806.71
1803.36
1800.05
1796.42
1792.33
1787.94
1783.53
1779.34
983.405
1805.71
1813.47
1810.75
1808.06
1805.06
1801.61
1797.92
1794.58
1792.97
1063.72
1819.46
1821.24
1818.99
1816.83
1814.43
1811.71
1809.05
1807.57
1799.99
1161.63
1831.41
1830.04
1827.67
1825.46
1823.1
1820.68
1819.06
1819.91
1722.6
1265.97
1843.59
1840.06
1836.65
1833.3
1829.64
1825.9
1823.37
1822.96
1649.81
1370.5
1857.99
1851.87
1846.69
1841.38
1835.38
1828.94
1822.99
1816.11
1526.6
1459.61
1876.57
1866.03
1858.14
1850.47
1842.17
1833.47
1824.8
1814.06
1415.12
1523.18
1893.95
1878.52
1867.58
1858.1
1848.54
1838.72
1828.57
1816.5
1350.82
1527.72
1894.33
1880.46
1870.22
1861.78
1853.41
1844.6
1835.2
1824.65
1332.11
1443.56
1877.75
1874.32
1869.23
1864.16
1858.53
1851.95
1844.59
1836.04
1340.46
1409.81
1871.32
1873.35
1871.9
1869.43
1866.11
1861.6
1856.24
1850.8
1401.63
1454.77
1874.44
1877.65
1878.1
1877.39
1875.75
1872.82
1869.17
1865.69
1473.64
1535.86
1884.03
1886.65
1887.1
1887.4
1886.64
1884.37
1881.86
1878.94
1556.16
1627.24
1895.76
1898.51
1898.84
1899.93
1899.55
1897.15
1895.71
1891.24
1639.16
1726.57
1917.14
1917.09
1915.1
1914.89
1914.67
1914.12
1917.14
1914.59
1727.88
1821.64
1948.43
1935.92
1931.63
1928.57
1928.29
1931.16
1937.01
1948.39
1817.91
1841.43
1841.76
1842.09
1842.42
1842.75
1843.08
1843.4
1843.72
1844.04
1844.35
1844.66
1844.97
1845.27
1845.56
1845.83
1846.1
1846.35
1846.58
1846.79
1846.97
1847.13
1847.26
1847.36
1847.42
1847.46
1847.46
1847.43
1847.38
1847.31
1847.23
1847.15
1847.08
1847.02
1846.98
1846.96
1846.97
1846.98
1847
1847.02
1847.07
1841.54
1841.87
1842.18
1842.5
1842.81
1843.11
1843.41
1843.71
1844
1844.29
1844.57
1844.84
1845.1
1845.36
1845.6
1845.83
1846.05
1846.25
1846.43
1846.59
1846.73
1846.85
1846.94
1847
1847.04
1847.06
1847.06
1847.04
1847.01
1846.98
1846.95
1846.92
1846.91
1846.91
1846.94
1846.97
1847.01
1847.05
1847.09
1847.14
1841.64
1841.96
1842.27
1842.57
1842.86
1843.16
1843.44
1843.72
1843.99
1844.25
1844.5
1844.75
1844.99
1845.22
1845.44
1845.64
1845.84
1846.02
1846.18
1846.33
1846.46
1846.57
1846.66
1846.73
1846.79
1846.82
1846.85
1846.86
1846.87
1846.87
1846.87
1846.88
1846.9
1846.92
1846.95
1846.98
1847.01
1847.03
1847.06
1847.09
1841.71
1842.02
1842.33
1842.62
1842.91
1843.19
1843.47
1843.74
1844
1844.25
1844.49
1844.73
1844.96
1845.17
1845.38
1845.58
1845.76
1845.94
1846.1
1846.25
1846.38
1846.49
1846.59
1846.67
1846.74
1846.79
1846.83
1846.86
1846.87
1846.88
1846.88
1846.89
1846.9
1846.92
1846.95
1846.98
1847
1847.01
1847.01
1846.98
1841.77
1842.07
1842.38
1842.67
1842.96
1843.24
1843.51
1843.78
1844.03
1844.28
1844.53
1844.76
1844.99
1845.2
1845.41
1845.61
1845.8
1845.98
1846.14
1846.3
1846.44
1846.57
1846.68
1846.77
1846.85
1846.92
1846.96
1846.99
1847
1846.99
1846.97
1846.94
1846.92
1846.92
1846.95
1847
1847.03
1847.03
1847
1846.88
1841.81
1842.12
1842.42
1842.72
1843.01
1843.29
1843.57
1843.83
1844.09
1844.35
1844.59
1844.83
1845.06
1845.29
1845.5
1845.71
1845.91
1846.1
1846.28
1846.45
1846.61
1846.75
1846.88
1846.99
1847.09
1847.16
1847.21
1847.24
1847.24
1847.2
1847.13
1846.99
1846.86
1846.84
1846.9
1847.03
1847.1
1847.09
1847.04
1846.94
1841.84
1842.15
1842.46
1842.77
1843.06
1843.35
1843.63
1843.91
1844.17
1844.43
1844.69
1844.94
1845.18
1845.41
1845.64
1845.86
1846.08
1846.29
1846.48
1846.67
1846.85
1847.02
1847.18
1847.31
1847.43
1847.53
1847.6
1847.64
1847.63
1847.57
1847.45
1847.07
1846.33
1845.97
1846.54
1846.95
1847.1
1847.07
1847
1846.91
1841.86
1842.19
1842.5
1842.81
1843.12
1843.41
1843.7
1843.99
1844.27
1844.54
1844.81
1845.07
1845.32
1845.57
1845.82
1846.06
1846.29
1846.52
1846.74
1846.95
1847.16
1847.36
1847.55
1847.72
1847.88
1848.02
1848.14
1848.22
1848.27
1848.26
1848.18
1847.95
1842.1
1833.97
1832.68
1841.75
1845.4
1846.61
1846.96
1846.53
1841.88
1842.21
1842.54
1842.86
1843.17
1843.48
1843.78
1844.08
1844.37
1844.65
1844.93
1845.21
1845.48
1845.75
1846.01
1846.27
1846.53
1846.78
1847.02
1847.26
1847.5
1847.73
1847.96
1848.18
1848.4
1848.6
1848.8
1849
1849.18
1849.37
1849.55
1849.7
1838.94
1830.56
1830.17
1829.4
1829.12
1828.95
1830.22
1830.17
1841.89
1842.23
1842.57
1842.9
1843.22
1843.54
1843.86
1844.17
1844.47
1844.77
1845.07
1845.36
1845.65
1845.93
1846.22
1846.5
1846.77
1847.05
1847.32
1847.58
1847.85
1848.12
1848.38
1848.64
1848.91
1849.17
1849.45
1849.73
1850.03
1850.35
1850.71
1851.15
1851.71
1852.37
1848.84
1835.55
1831.5
1834.38
1831.75
1830.77
1841.89
1842.24
1842.59
1842.93
1843.27
1843.6
1843.93
1844.25
1844.57
1844.89
1845.2
1845.51
1845.82
1846.12
1846.42
1846.72
1847.02
1847.31
1847.61
1847.9
1848.19
1848.48
1848.77
1849.07
1849.37
1849.67
1849.98
1850.3
1850.63
1850.99
1851.37
1851.78
1852.23
1852.65
1852.97
1853.15
1853.37
1853.57
1853.44
1853.05
1841.88
1842.24
1842.6
1842.95
1843.31
1843.65
1844
1844.34
1844.67
1845
1845.33
1845.66
1845.98
1846.3
1846.62
1846.94
1847.26
1847.57
1847.88
1848.19
1848.51
1848.82
1849.13
1849.44
1849.76
1850.08
1850.41
1850.74
1851.08
1851.43
1851.79
1852.16
1852.52
1852.71
1852.5
1852.43
1852.74
1853.14
1853.29
1852.97
1841.85
1842.23
1842.6
1842.97
1843.33
1843.7
1844.06
1844.41
1844.76
1845.11
1845.46
1845.8
1846.14
1846.48
1846.81
1847.15
1847.48
1847.81
1848.14
1848.47
1848.8
1849.12
1849.44
1849.77
1850.09
1850.42
1850.75
1851.08
1851.42
1851.75
1852.09
1852.42
1852.73
1852.5
1852.1
1852.24
1852.3
1852.24
1852.18
1851.96
1841.8
1842.17
1842.57
1842.97
1843.35
1843.73
1844.1
1844.47
1844.84
1845.21
1845.57
1845.93
1846.29
1846.64
1847
1847.35
1847.7
1848.05
1848.39
1848.73
1849.06
1849.4
1849.73
1850.05
1850.38
1850.71
1851.03
1851.35
1851.67
1851.99
1852.3
1852.61
1852.89
1853.06
1852.58
1852.26
1852.27
1852.44
1852.06
1851.77
1841.73
1842.09
1842.5
1842.95
1843.34
1843.74
1844.12
1844.49
1844.9
1845.29
1845.67
1846.05
1846.43
1846.81
1847.17
1847.54
1847.91
1848.27
1848.62
1848.97
1849.32
1849.66
1849.99
1850.32
1850.64
1850.96
1851.27
1851.58
1851.88
1852.18
1852.48
1852.76
1853.04
1853.28
1853.47
1853.47
1853.45
1853.34
1853.04
1852.22
1841.64
1842.04
1842.43
1842.87
1843.32
1843.73
1844.09
1844.5
1844.93
1845.36
1845.76
1846.16
1846.56
1846.96
1847.35
1847.74
1848.12
1848.49
1848.86
1849.22
1849.57
1849.92
1850.25
1850.58
1850.9
1851.2
1851.5
1851.79
1852.07
1852.34
1852.6
1852.88
1853.16
1853.39
1853.56
1853.64
1853.1
1852.28
1851.45
1852.08
1840.76
1841.98
1842.36
1842.77
1843.28
1843.69
1844.07
1844.5
1844.95
1845.41
1845.83
1846.25
1846.66
1847.1
1847.52
1847.93
1848.33
1848.72
1849.11
1849.48
1849.85
1850.2
1850.54
1850.87
1851.18
1851.47
1851.75
1852.01
1852.24
1852.46
1852.69
1852.98
1853.3
1853.56
1853.73
1853.8
1849.43
1845.83
1845.48
1846.78
1841.28
1841.86
1842.26
1842.67
1843.15
1843.66
1844.05
1844.5
1844.99
1845.44
1845.16
1845.26
1846.79
1847.25
1847.69
1848.13
1848.55
1848.97
1849.38
1849.77
1850.15
1850.52
1850.87
1851.2
1851.51
1851.79
1852.05
1852.29
1852.48
1852.48
1851.39
1850.85
1853.41
1853.85
1854.2
1854.18
1848.06
1845.87
1845.56
1845.19
1837.82
1841.7
1842.12
1842.53
1843.04
1843.58
1844.05
1844.51
1845
1844.85
1844.57
1845.05
1845.86
1847.41
1847.88
1848.34
1848.8
1849.24
1849.68
1850.1
1850.51
1850.89
1851.26
1851.61
1851.94
1852.24
1852.52
1852.79
1852.97
1848.68
1833.16
1829.24
1846.42
1854.35
1854.73
1854.99
1853.8
1849.98
1847.14
1845.45
1835.51
1841.22
1841.93
1842.37
1842.91
1843.44
1843.96
1844.48
1844.94
1844.25
1844.54
1845.05
1845.55
1846.53
1848.07
1848.57
1849.06
1849.55
1850.02
1850.48
1850.92
1851.34
1851.74
1852.12
1852.47
1852.79
1852.96
1851.13
1840.99
1827.49
1824.95
1825.42
1825.81
1849.47
1855.39
1855.59
1855.71
1855.73
1855.56
1851.39
1835.03
1841.24
1841.67
1842.15
1842.69
1843.23
1843.78
1844.4
1844.96
1844.53
1844.52
1845.08
1845.62
1846.59
1848.27
1848.81
1849.35
1849.89
1850.41
1850.91
1851.39
1851.86
1852.3
1852.72
1853.11
1853.47
1852.18
1831.13
1823.62
1823.99
1824.42
1824.77
1825.05
1841.73
1856.2
1856.3
1856.35
1856.33
1856.21
1856.17
1835.63
1840.78
1841.23
1841.69
1842.31
1842.92
1843.57
1844.25
1844.9
1845.44
1845.31
1845.38
1846.39
1847.77
1848.46
1849.06
1849.67
1850.28
1850.86
1851.41
1851.95
1852.47
1852.97
1853.46
1853.95
1854.47
1850.86
1822.9
1823.21
1823.6
1823.94
1824.26
1827.56
1853.63
1857.23
1857.26
1857.28
1857.27
1857.23
1857.27
1839.14
1823.98
1828.48
1840.81
1841.73
1842.52
1843.31
1844.05
1844.82
1845.53
1846.18
1846.76
1847.31
1847.95
1848.57
1849.27
1850.01
1850.72
1851.38
1852
1852.59
1853.15
1853.69
1854.21
1854.76
1855.46
1855.31
1838.87
1822.58
1823.16
1823.54
1824.36
1850.65
1858.43
1858.26
1858.44
1858.49
1858.52
1858.54
1858.67
1840.83
1798.01
1751.86
1840.55
1841.35
1842.24
1843.12
1843.96
1844.77
1845.58
1846.3
1846.99
1847.63
1845.82
1836.3
1839.14
1850.45
1851.3
1852.04
1852.71
1853.34
1853.91
1854.43
1854.8
1852.39
1846.78
1853.86
1854.35
1834.47
1823.44
1823.6
1845.33
1859.62
1859.66
1859.72
1859.8
1859.91
1860.02
1860.14
1860.32
1840.44
1817.13
1729.14
1746.2
1841.9
1842.45
1843.26
1844.09
1844.92
1845.78
1846.58
1847.38
1848.15
1838.96
1827.2
1827.94
1835.81
1851.79
1852.95
1853.66
1854.35
1854.99
1855.57
1855.55
1825.85
1813.96
1822.83
1845.23
1846.07
1829.33
1838.42
1859.19
1860.65
1860.9
1861.13
1861.33
1861.53
1861.73
1861.96
1862.22
1842.46
1842.37
1745.62
1677.71
1759.89
1841.57
1842.85
1843.97
1844.98
1845.91
1846.84
1847.78
1846.72
1827.27
1826.8
1827.58
1828.23
1832.11
1849.01
1854.55
1855.58
1856.34
1857.07
1848.73
1811.87
1812.72
1813.31
1814.49
1822.9
1860.03
1861.68
1861.8
1862.12
1862.42
1862.76
1863.08
1863.36
1863.66
1863.99
1864.35
1843.82
1845.06
1831.76
1666.01
1658.19
1757.42
1841.29
1844.19
1845.09
1846.05
1847.05
1848.12
1848.58
1832.89
1826.85
1827.72
1828.65
1829.55
1830.91
1854.19
1856.94
1857.81
1857.58
1821.22
1811.63
1812.5
1813.34
1814.21
1822.8
1860.86
1863.16
1863.58
1863.88
1864.2
1864.59
1865.03
1865.4
1865.8
1866.24
1866.7
1843.12
1843.22
1842.95
1746.51
1653.15
1648.23
1831.29
1845.86
1845.84
1846.39
1847.27
1848.38
1849.65
1849.66
1848.27
1843.2
1832.01
1830.23
1834.8
1854.22
1858.43
1859.28
1838.61
1810.71
1811.51
1812.32
1816.77
1838.69
1861.55
1864.47
1864.96
1865.42
1865.87
1866.29
1866.68
1867.17
1867.65
1868.15
1868.71
1869.26
1843.83
1843.82
1843.5
1842.82
1721.13
1642.31
1650.58
1836.9
1843.94
1845.02
1846.36
1847.82
1849.46
1851.18
1852.83
1854.31
1855.53
1850.32
1855.89
1858.73
1859.84
1860.45
1811.86
1811.14
1811.5
1833.73
1862.98
1865.71
1866.04
1866.47
1866.96
1867.47
1867.99
1868.51
1869.01
1869.5
1870.1
1870.72
1871.39
1872.04
1845.11
1845.18
1845.03
1844.78
1843.94
1676.52
1613.26
1761.61
1839.33
1842.4
1844.59
1846.6
1848.95
1851.31
1853.37
1855.13
1856.72
1858.09
1859.3
1860.43
1861.49
1860.9
1822.13
1812.83
1846.67
1866.48
1866.83
1867.31
1867.85
1868.42
1869.02
1869.63
1870.26
1870.87
1871.42
1872.01
1872.75
1873.51
1874.29
1875.02
1846.83
1846.92
1846.71
1846.21
1845.55
1825.82
1614.42
1458.09
1709.1
1822.73
1839.85
1841.81
1848.81
1852.38
1854.81
1856.85
1858.63
1860.11
1861.41
1862.49
1863.44
1864.26
1859.68
1854.83
1859.3
1859.84
1866.33
1868.77
1869.6
1870.35
1871
1871.88
1872.67
1873.37
1873.99
1874.7
1875.57
1876.5
1877.41
1878.23
1849.37
1849.64
1849.6
1849.28
1848.57
1841.41
1557.41
1380.38
1399.86
1498.64
1509.23
1554.35
1744.23
1852.75
1857.65
1859.72
1861.41
1862.91
1864.21
1865.18
1866.06
1867
1867.91
1867.1
1803.72
1819.58
1867.29
1870.4
1871.55
1871.12
1867.05
1870.41
1875.23
1876.18
1873.6
1869.99
1877.63
1879.7
1880.78
1881.7
1852.91
1853.68
1854.26
1854.68
1854.45
1752.42
1410.89
1367.64
1368.61
1369.83
1373.08
1377.86
1536.7
1841.49
1863.59
1864.77
1865.78
1866.87
1867.92
1868.84
1869.69
1870.58
1871.21
1829.66
1665.73
1796.24
1872.03
1873.06
1874.1
1870.99
1866.35
1867.12
1876.63
1879.43
1860.45
1841.83
1869.39
1883.24
1884.45
1885.51
1857.22
1858.71
1859.69
1850.51
1702.93
1433.87
1358.51
1361.09
1363.48
1365.72
1368.15
1371.66
1627.33
1867.75
1870.4
1870.47
1870.82
1871.46
1872.22
1873.05
1873.95
1874.94
1876.06
1741.93
1627.36
1799.57
1874.09
1875.4
1876.65
1876.08
1868.77
1869.76
1877.32
1882.58
1851
1843
1849.12
1884.58
1888.31
1889.54
1862.38
1864.46
1837.46
1580.63
1372.64
1351.2
1353.19
1355.83
1358.28
1360.51
1363.08
1565.72
1865.17
1876.95
1876.28
1875.78
1875.73
1875.98
1876.46
1877.12
1877.97
1879.08
1877.79
1691.58
1606.95
1805.82
1876.79
1878.24
1879.59
1880.83
1877.62
1872.83
1880.17
1885.78
1858.84
1844.79
1845.51
1875.63
1892.2
1893.6
1868.62
1865.24
1629.23
1354.57
1345.92
1346.99
1348.43
1350.01
1352.03
1384.92
1707.67
1884.05
1883.02
1881.73
1881.06
1880.53
1880.14
1880.06
1880.26
1880.7
1881.33
1882.23
1871.39
1671.72
1599.24
1768.23
1880.46
1881.69
1882.93
1884.13
1885.32
1877.68
1882.44
1889.3
1888.47
1849.6
1848.5
1866.67
1895.81
1897.55
1874.09
1832.93
1462.65
1343.26
1343.22
1343.37
1342.89
1343.34
1511.27
1872.52
1893.53
1890.39
1887.47
1885.74
1884.67
1884.69
1883.88
1883.45
1883.41
1883.64
1883.95
1884.31
1885.07
1671.73
1591.71
1679.05
1878.53
1885.59
1886.44
1887.43
1888.49
1888.89
1886.44
1890.8
1893.53
1883.33
1851
1863.23
1898.34
1901.55
1874.98
1857.74
1600.75
1390.81
1338.43
1338.38
1338.6
1386.46
1773.22
1899.63
1898.08
1894.95
1892.67
1890.82
1889.18
1887.92
1886.11
1885.17
1885.19
1885.95
1886.12
1885.96
1885.78
1735.28
1583.48
1579.34
1817.17
1889.04
1889.54
1890.4
1891.4
1892.53
1893.8
1895.18
1896.63
1898.25
1864.73
1863.96
1897.1
1905.05
1871.16
1876.6
1882.05
1830.44
1668.65
1511.34
1384.68
1387.08
1597.95
1808.07
1871.06
1893.07
1895.85
1894.27
1892.45
1865.56
1802.42
1830.56
1883.68
1888.91
1889.48
1889.8
1890.28
1880.94
1583.76
1550.24
1615.3
1864.5
1890.76
1891.92
1893.22
1894.66
1896.16
1897.65
1899.26
1901.04
1880.34
1866.94
1892.75
1908.71
1851.04
1855.66
1869.21
1877.69
1885.65
1888.52
1863.35
1788.37
1691.5
1691.08
1726.77
1844.51
1888.06
1881.18
1855.6
1743.33
1744.52
1750.94
1859.25
1887.98
1892.78
1892.95
1893.4
1894.69
1810.69
1541.35
1540.65
1585.33
1855.4
1893.11
1894.81
1896.35
1897.86
1899.39
1901.26
1903.2
1899.37
1869.2
1899.09
1912.03
1818.25
1823.2
1828.48
1850.37
1871.79
1885.64
1887.67
1890.11
1893.15
1874.3
1853.41
1844.26
1790.38
1746.27
1744.52
1743.3
1742.99
1783.53
1839.42
1857.54
1866.21
1876.69
1888.92
1895.63
1897.34
1725.51
1533.8
1533.64
1560.64
1845.42
1892.86
1859.39
1875.89
1900.16
1902.72
1904.94
1907.25
1901.27
1908.93
1914.77
1812.9
1818.6
1825.16
1832.2
1857.38
1885.09
1888.05
1890.38
1892.49
1894.53
1896.49
1898.06
1896.82
1801.64
1742.82
1742.06
1838.82
1900.09
1899.37
1883.88
1829.88
1828.59
1827.66
1855.5
1897.51
1897.74
1642.25
1526.97
1527.7
1595.06
1860.01
1840.16
1830.79
1888.82
1903.66
1906.23
1908.95
1911.91
1912.36
1917.24
1841.67
1847.13
1856.19
1865.59
1874.45
1882.55
1886.35
1889.4
1891.84
1893.74
1895.11
1895.86
1895.88
1895.55
1864.45
1864.45
1891.25
1897.58
1896.7
1895.84
1895.5
1850.29
1826.67
1826.99
1850.13
1892.23
1886.5
1562.95
1520.69
1519.14
1667.83
1796.94
1816.55
1869.84
1904.06
1906.78
1909.73
1898.68
1908.19
1919.49
1846.16
1853.8
1861.12
1867.9
1874
1879.3
1883.7
1887.24
1889.99
1892.03
1893.4
1894.15
1894.31
1894.09
1894.1
1894.41
1894.54
1894.18
1893.57
1893.11
1892.75
1892.85
1873.59
1823.92
1825.45
1873.04
1879.97
1822.28
1514.09
1511.99
1510.5
1698.51
1815.73
1863.48
1903.61
1906.59
1909.95
1892.78
1890.82
1919.99
1835.94
1845.54
1854.5
1862.54
1869.56
1875.51
1880.38
1884.23
1887.15
1889.23
1890.57
1891.28
1891.48
1891.32
1891
1890.68
1890.28
1889.78
1889.24
1888.79
1888.49
1888.36
1888.62
1872.78
1822.37
1847.09
1873.64
1876.32
1673.05
1502.76
1504.5
1580.08
1781.76
1839.54
1894.52
1905.44
1909.23
1889.9
1890.28
1917.63
1824.15
1835.97
1847.37
1856.89
1864.76
1871.22
1876.38
1880.35
1883.26
1885.23
1886.39
1886.88
1886.84
1886.43
1885.79
1885.04
1884.26
1883.49
1882.84
1882.36
1882.14
1882.14
1882.43
1883.35
1849.19
1834.89
1856.53
1869.49
1861.44
1513.38
1494.1
1515.27
1758.32
1797.33
1866.12
1903.16
1907.37
1891.86
1889.05
1917.19
1783.49
1824.72
1842.71
1852.65
1860.45
1866.8
1871.79
1875.52
1878.13
1879.76
1880.53
1880.59
1880.12
1879.25
1878.15
1876.95
1875.76
1874.68
1873.8
1873.21
1872.98
1873.1
1873.57
1874.45
1875.89
1826.66
1827.46
1860.63
1866.33
1665.39
1485.89
1494.99
1731.78
1822.53
1849.35
1899.07
1902.98
1901.15
1889.13
1914.97
1581.81
1822.81
1843.82
1851.13
1857.08
1862.28
1866.41
1869.41
1871.36
1872.35
1872.5
1871.94
1870.84
1869.36
1867.67
1865.9
1864.21
1862.73
1861.58
1860.86
1860.64
1860.92
1861.62
1862.68
1864.26
1846.03
1817.49
1838.65
1859.77
1871.48
1567.44
1493.56
1714.78
1872.86
1870.8
1762.89
1878.2
1895.62
1865.75
1909.27
1421.23
1825.66
1844.98
1848.9
1852.56
1856.25
1859.22
1861.23
1862.29
1862.45
1861.79
1860.43
1858.55
1856.31
1853.88
1851.43
1849.11
1847.1
1845.58
1844.76
1844.68
1845.3
1846.49
1848.12
1850.17
1852.94
1821.92
1821.24
1841.34
1860.64
1828.14
1703.94
1749.86
1873.22
1841.97
1746.48
1783.12
1881.4
1856.97
1899.57
1445.41
1828.47
1840.82
1842.69
1844.94
1847.42
1849.3
1850.3
1850.39
1849.6
1848
1845.72
1842.93
1839.79
1836.5
1833.25
1830.18
1827.4
1825.26
1824.3
1824.63
1825.94
1827.92
1830.4
1833.26
1836.49
1838.62
1828.48
1829.39
1846.75
1851.39
1856.32
1839.41
1860.77
1868.28
1733.98
1654.3
1827.44
1847.27
1892.52
1714.17
1825.05
1829.65
1831.43
1833.5
1835.3
1836.31
1836.37
1835.48
1833.69
1831.08
1827.79
1824
1819.96
1815.93
1812.18
1808.29
1803.56
1798.86
1797.56
1799.43
1802.9
1806.2
1809.85
1813.77
1817.89
1822.2
1826.59
1827.96
1830.36
1835.47
1840.52
1844.84
1848.97
1854.6
1721.47
1634.38
1747.63
1838.71
1885.33
1798.49
1810.27
1814.37
1817.12
1819.31
1820.55
1820.7
1819.8
1817.88
1815.03
1811.38
1807.13
1802.58
1798
1793.57
1789.14
1766.1
1711.28
1710.05
1740.89
1769.8
1776.35
1781.98
1787.25
1792.44
1797.57
1802.63
1807.62
1812.56
1803.17
1818.36
1823.1
1827.84
1832.6
1838.58
1715.5
1611.54
1675.64
1828.3
1874.17
1791.16
1797.95
1800.72
1802.81
1804.08
1804.23
1803.24
1801.18
1798.12
1794.2
1789.68
1784.83
1779.67
1773.75
1761.31
1745.32
1488.19
1192.9
1323.78
1679.22
1738.94
1750.11
1758.19
1764.83
1770.97
1776.88
1782.57
1788.08
1793.57
1787.85
1750.76
1798.57
1810.27
1815.42
1821.59
1714.86
1585.58
1595.42
1813.47
1860.81
1778.5
1783.41
1785.95
1787.34
1787.51
1786.42
1784.17
1780.86
1776.66
1771.92
1766.87
1760.59
1747.06
1690.89
1504.74
1146.69
1141.19
1147.07
1153.72
1421.95
1716.95
1731.65
1738.78
1745.12
1751.15
1757.1
1762.99
1768.74
1774.51
1764.65
1712.89
1761.41
1792.61
1797.98
1804.28
1710.26
1559.94
1563.97
1793.58
1846.11
1770.44
1772.19
1772.77
1772.27
1770.64
1767.88
1764.08
1759.39
1754.12
1748.4
1740.31
1689.92
1504.2
1105.25
1104.08
1106.6
1114.09
1122.86
1132.03
1395.28
1715.09
1716.71
1719.93
1725.75
1731.87
1737.91
1743.94
1749.93
1755.98
1746.39
1689.58
1693.22
1767.57
1780.71
1787.16
1699.99
1537
1542.53
1776.38
1829.97
1761.32
1760.72
1759.3
1756.84
1753.34
1748.83
1743.48
1737.53
1730.41
1719.12
1617.66
1193.43
1073.88
1076.45
1082.69
1085.85
1078.85
1273.52
1539.35
1289.36
1116.5
1462.72
1697.33
1702.85
1710.99
1718.46
1725.26
1731.81
1738.27
1745.21
1685.93
1606.7
1724.48
1764.26
1770.55
1682.08
1515.07
1520.74
1765.01
1812.75
1752.58
1749.76
1746.16
1741.63
1736.2
1730.03
1723.42
1715.78
1700.6
1515.77
1054.54
1046.28
1047.2
1052.02
1061.69
1063.8
1303.31
1548.77
1529.83
1167.41
975.826
994.208
1502.62
1683.02
1692.06
1700.77
1708.17
1714.93
1721.46
1728.2
1673.62
1585.21
1668.72
1749.19
1754.81
1662.86
1493.62
1499.08
1756.85
1795.06
1743.65
1738.89
1733.28
1726.84
1719.68
1712.12
1703.88
1689.09
1377.19
1010.82
1013.34
1023.23
1028.79
1063.27
1287.98
1573.3
1561.11
1524.72
1509.95
1404.31
924.863
829.06
1129.06
1645.36
1674.87
1684.51
1692.67
1699.71
1706.32
1712.99
1668.11
1565.03
1615.09
1732.25
1740.63
1646.92
1472.11
1477.03
1739.18
1777.44
1734.96
1728.47
1721.12
1713.04
1704.53
1695.89
1683.16
1382.27
974.49
982.641
992.491
1002.68
1209.34
1638.01
1649.73
1626.96
1425.65
1304.59
1465.36
1450.54
1093.53
775.356
879.983
1531.98
1663.22
1671.72
1679.76
1686.71
1693.22
1699.73
1665.78
1545.04
1569.13
1713.44
1725.26
1643.08
1453.71
1459.76
1723.2
1760.24
1726.83
1718.88
1710.09
1700.76
1691.44
1680.58
1514.67
953.537
941.258
951.127
1007.35
1439.2
1648.85
1646.29
1636.81
1276.97
876.009
1106.92
1413.68
1410.37
1308.56
712.178
772.952
1423.58
1652.07
1660.36
1668.46
1675.57
1682.26
1689.04
1688.51
1527.22
1490.25
1681.7
1710.19
1643.4
1439.42
1465.93
1711.06
1743.51
1719.91
1710.6
1700.67
1690.59
1680.44
1649.15
993.015
896.402
906.598
1042.31
1562.03
1644.38
1639.75
1632.92
1459.54
841.723
831.95
1100.94
1376.17
1384.89
1282.93
629.008
692.153
1368.98
1641.78
1650.48
1658.61
1665.71
1672.35
1678.91
1686.01
1517.8
1474.54
1638.77
1698.01
1655.35
1424.51
1429.08
1693.04
1726.66
1713.57
1703.45
1692.92
1682.43
1671.63
1135.87
856.994
871.701
962.756
1552.42
1640.92
1635.7
1629.69
1598.56
951.046
721.999
802.235
1301.6
1360.87
1363.84
1054.7
526.69
661.812
1389.16
1632.57
1642.9
1650.67
1657.42
1663.66
1669.6
1675.7
1535.19
1460.72
1577.13
1689.13
1691.45
1407.4
1382.67
1667.48
1709.12
1707.95
1697.28
1686.48
1675.8
1617.2
892.707
835.73
842.234
1494.08
1640.1
1637.12
1631.88
1621.33
1082.09
613.441
681.403
1038.81
1299.5
1308.66
1026.15
542.978
476.057
659.756
1443.55
1626.8
1637.8
1645.01
1651.17
1656.72
1661.77
1666.66
1572.1
1448.31
1548.34
1677.89
1679.07
1412.45
1364.17
1639.51
1694.9
1703.23
1691.99
1680.47
1668.95
1186.11
810.893
820.829
1193.33
1635.92
1637.8
1632.79
1628.66
1176.87
557.709
573.067
880.166
1038.43
959.153
653.578
467.141
442.273
448.427
724.294
1518.69
1630.66
1637.52
1641.44
1641.38
1649.92
1655.79
1659.4
1620.27
1437.62
1539.27
1663.97
1665.47
1464.83
1345.68
1605.7
1683.08
1700.43
1689.26
1677.7
1666.1
941.588
783.132
792.889
1402.88
1637.46
1633.85