/*--------------------------------*- C++ -*----------------------------------*\
  =========                 |
  \\      /  F ield         | OpenFOAM: The Open Source CFD Toolbox
   \\    /   O peration     | Website:  https://openfoam.org
    \\  /    A nd           | Version:  8
     \\/     M anipulation  |
\*---------------------------------------------------------------------------*/
FoamFile
{
    version     2.0;
    format      ascii;
    class       volVectorField;
    location    "2.8";
    object      U;
}
// * * * * * * * * * * * * * * * * * * * * * * * * * * * * * * * * * * * * * //

dimensions      [0 1 -1 0 0 0 0];

internalField   nonuniform List<vector> 
9150
(
(0.053776 -0.428892 0)
(0.0879047 -0.622261 0)
(0.0730905 -0.631432 0)
(0.0486496 -0.643719 0)
(0.0170446 -0.654427 0)
(-0.0170193 -0.654431 0)
(-0.0486288 -0.643729 0)
(-0.0730761 -0.631443 0)
(-0.0878973 -0.622272 0)
(-0.0537738 -0.428908 0)
(0.0407536 -0.522912 0)
(0.0573463 -0.62566 0)
(0.0420542 -0.613203 0)
(0.0294094 -0.622454 0)
(0.0104929 -0.628855 0)
(-0.0104753 -0.628857 0)
(-0.0293945 -0.622459 0)
(-0.0420429 -0.613209 0)
(-0.057339 -0.625665 0)
(-0.0407509 -0.522923 0)
(0.0252223 -0.55804 0)
(0.0324408 -0.6138 0)
(0.0229787 -0.604471 0)
(0.0172698 -0.609991 0)
(0.00624698 -0.613187 0)
(-0.00623509 -0.613188 0)
(-0.0172595 -0.609993 0)
(-0.0229709 -0.604474 0)
(-0.0324351 -0.613801 0)
(-0.0252197 -0.558046 0)
(0.0153439 -0.584763 0)
(0.0174326 -0.607461 0)
(0.0117029 -0.601139 0)
(0.00887735 -0.603282 0)
(0.0032439 -0.604396 0)
(-0.00323677 -0.604397 0)
(-0.00887115 -0.603283 0)
(-0.0116981 -0.60114 0)
(-0.0174289 -0.607461 0)
(-0.0153422 -0.584765 0)
(0.0062604 -0.597169 0)
(0.00554416 -0.601394 0)
(0.00357172 -0.60004 0)
(0.00267996 -0.600348 0)
(0.000993978 -0.600483 0)
(-0.000991429 -0.600483 0)
(-0.00267774 -0.600348 0)
(-0.00357002 -0.60004 0)
(-0.00554276 -0.601394 0)
(-0.00625972 -0.597169 0)
(0.469625 -1.16226 1.55365e-24)
(0.282829 -1.08594 0)
(0.163244 -1.06923 0)
(0.0922582 -1.05754 0)
(0.0304706 -1.05286 0)
(-0.0302073 -1.0529 0)
(-0.0920217 -1.05765 0)
(-0.163054 -1.0694 0)
(-0.282701 -1.08618 0)
(-0.469685 -1.16258 -1.55722e-24)
(0.33423 -0.844345 4.27598e-25)
(0.287228 -0.936827 0)
(0.188308 -0.936786 0)
(0.108259 -0.936675 0)
(0.0357884 -0.939033 0)
(-0.03564 -0.939062 0)
(-0.108131 -0.936753 0)
(-0.188215 -0.936896 0)
(-0.287196 -0.936961 0)
(-0.33427 -0.844504 -4.28347e-25)
(0.279175 -0.702592 7.15812e-26)
(0.259095 -0.804726 0)
(0.178154 -0.817502 0)
(0.104657 -0.828307 0)
(0.0348752 -0.836411 0)
(-0.0347859 -0.836428 0)
(-0.104582 -0.828354 0)
(-0.178105 -0.817567 0)
(-0.259082 -0.804797 0)
(-0.279192 -0.702666 -7.18115e-26)
(0.199975 -0.554376 2.66445e-25)
(0.216722 -0.709438 0)
(0.154306 -0.725838 0)
(0.0913973 -0.741981 0)
(0.030559 -0.753891 0)
(-0.0305031 -0.753901 0)
(-0.0913514 -0.742009 0)
(-0.154277 -0.725874 0)
(-0.216714 -0.709475 0)
(-0.199984 -0.554417 -2.66381e-25)
(0.118693 -0.445373 -4.35406e-25)
(0.156384 -0.644238 -6.24076e-25)
(0.11669 -0.663734 -2.11206e-25)
(0.0709486 -0.681177 -1.38443e-25)
(0.0239716 -0.694174 -7.95564e-27)
(-0.0239346 -0.694181 -7.90954e-27)
(-0.0709185 -0.681194 -1.3833e-25)
(-0.11667 -0.663754 -2.11162e-25)
(-0.156377 -0.644258 -6.2405e-25)
(-0.118694 -0.445397 -4.35424e-25)
(0.0186906 -0.924008 0)
(-0.0380092 -1.3376 0)
(0.0243935 -1.2677 0)
(-0.0038445 -1.22344 0)
(0.00513349 -1.22204 0)
(-0.00336611 -1.22232 0)
(0.00655253 -1.22336 0)
(-0.0214341 -1.26678 0)
(0.0418519 -1.33708 0)
(-0.01489 -0.937702 0)
(0.0487529 -0.907439 0)
(-0.0228445 -1.33284 0)
(0.0237263 -1.26919 0)
(0.000462015 -1.22289 0)
(0.00174606 -1.22164 0)
(-0.000400132 -1.22191 0)
(0.00155878 -1.22288 0)
(-0.0219637 -1.2691 0)
(0.025526 -1.33417 0)
(-0.0476271 -0.912868 0)
(0.0770459 -0.944843 0)
(-0.0234392 -1.34772 0)
(0.0171624 -1.27513 0)
(0.00572325 -1.23055 0)
(0.000124888 -1.22587 0)
(0.000961862 -1.22603 0)
(-0.00445048 -1.23064 0)
(-0.0162529 -1.27544 0)
(0.025082 -1.34837 0)
(-0.0761805 -0.948404 0)
(0.144182 -1.07844 0)
(0.00230992 -1.36615 0)
(0.0152837 -1.27143 0)
(0.0218495 -1.22561 0)
(0.0060348 -1.21409 0)
(-0.00526636 -1.21416 0)
(-0.0210941 -1.22583 0)
(-0.014803 -1.27172 0)
(-0.00128318 -1.36655 0)
(-0.143776 -1.08026 0)
(0.298529 -1.21859 0)
(0.126697 -1.32193 0)
(0.0688755 -1.21031 0)
(0.0564379 -1.16876 0)
(0.0202454 -1.15624 0)
(-0.0197847 -1.1563 0)
(-0.0560477 -1.16895 0)
(-0.0685061 -1.21059 0)
(-0.126203 -1.32221 0)
(-0.298475 -1.2194 0)
(-0.0269114 0.000643427 0)
(-0.0274905 0.000702482 0)
(-0.0281086 0.000759127 0)
(-0.0287618 0.000811828 0)
(-0.0294463 0.000857854 0)
(-0.0301557 0.000894452 0)
(-0.0308831 0.000923621 0)
(-0.031621 0.000942514 0)
(-0.0323602 0.000948803 0)
(-0.0330907 0.000943188 0)
(-0.0283167 0.00170863 0)
(-0.0289018 0.00182018 0)
(-0.0295104 0.00192158 0)
(-0.0301383 0.00200989 0)
(-0.0307806 0.00208186 0)
(-0.0314321 0.00213401 0)
(-0.0320861 0.00216392 0)
(-0.0327351 0.00216842 0)
(-0.0333708 0.00214416 0)
(-0.033985 0.00208977 0)
(-0.0283001 0.00281503 0)
(-0.0288537 0.00296645 0)
(-0.0294232 0.00310052 0)
(-0.0300051 0.00321325 0)
(-0.0305959 0.00330028 0)
(-0.0311909 0.00335704 0)
(-0.0317851 0.0033789 0)
(-0.0323725 0.00336159 0)
(-0.0329467 0.00330119 0)
(-0.0335013 0.00319461 0)
(-0.027982 0.00387492 0)
(-0.0285115 0.00405575 0)
(-0.0290535 0.00421425 0)
(-0.0296053 0.00434511 0)
(-0.030164 0.00444285 0)
(-0.0307262 0.00450175 0)
(-0.0312877 0.00451614 0)
(-0.0318438 0.00448072 0)
(-0.0323895 0.00439068 0)
(-0.0329194 0.00424191 0)
(-0.0275056 0.00490132 0)
(-0.0280178 0.00510693 0)
(-0.0285416 0.0052865 0)
(-0.0290751 0.00543369 0)
(-0.0296161 0.00554191 0)
(-0.0301619 0.00560445 0)
(-0.0307093 0.00561481 0)
(-0.0312546 0.00556676 0)
(-0.0317935 0.00545461 0)
(-0.0323217 0.00527344 0)
(-0.0269265 0.00589801 0)
(-0.0274258 0.00612817 0)
(-0.0279378 0.00632983 0)
(-0.0284611 0.0064957 0)
(-0.0289941 0.00661826 0)
(-0.029535 0.00668991 0)
(-0.0300813 0.0067033 0)
(-0.0306298 0.00665137 0)
(-0.0311772 0.00652762 0)
(-0.03172 0.0063263 0)
(-0.0262724 0.00687108 0)
(-0.0267612 0.00712884 0)
(-0.0272649 0.00735676 0)
(-0.0277829 0.00754671 0)
(-0.0283142 0.00769031 0)
(-0.0288576 0.00777912 0)
(-0.0294112 0.00780492 0)
(-0.0299725 0.00775983 0)
(-0.0305386 0.00763651 0)
(-0.0311067 0.00742846 0)
(-0.0255592 0.00782121 0)
(-0.0260372 0.00811191 0)
(-0.0265336 0.00837263 0)
(-0.027048 0.0085944 0)
(-0.0275804 0.00876795 0)
(-0.02813 0.00888398 0)
(-0.0286955 0.0089334 0)
(-0.029275 0.00890745 0)
(-0.0298661 0.0087979 0)
(-0.0304662 0.00859741 0)
(-0.0247959 0.00874483 0)
(-0.0252604 0.00907556 0)
(-0.0257474 0.0093774 0)
(-0.0262572 0.00964045 0)
(-0.0267904 0.00985455 0)
(-0.0273467 0.0100095 0)
(-0.0279255 0.0100953 0)
(-0.0285251 0.0101021 0)
(-0.0291435 0.0100206 0)
(-0.0297786 0.00984263 0)
(-0.0239888 0.00963373 0)
(-0.0244345 0.0100128 0)
(-0.0249074 0.0103653 0)
(-0.0254086 0.0106805 0)
(-0.0259393 0.0109472 0)
(-0.0264997 0.0111542 0)
(-0.0270898 0.0112903 0)
(-0.0277082 0.0113447 0)
(-0.0283534 0.0113068 0)
(-0.0290231 0.0111668 0)
(-0.0231437 0.0104746 0)
(-0.0235627 0.0109112 0)
(-0.0240141 0.0113249 0)
(-0.0244997 0.0117042 0)
(-0.0250214 0.012037 0)
(-0.0255804 0.0123105 0)
(-0.0261768 0.0125123 0)
(-0.02681 0.0126303 0)
(-0.0274782 0.0126521 0)
(-0.0281796 0.0125666 0)
(-0.0222676 0.0112488 0)
(-0.0226495 0.0117522 0)
(-0.0230689 0.0122384 0)
(-0.0235287 0.0126949 0)
(-0.0240317 0.0131085 0)
(-0.0245803 0.013465 0)
(-0.0251754 0.0137497 0)
(-0.0258165 0.0139487 0)
(-0.0265023 0.0140478 0)
(-0.0272306 0.0140344 0)
(-0.0213706 0.0119324 0)
(-0.0217023 0.012512 0)
(-0.0220766 0.0130822 0)
(-0.0224974 0.0136296 0)
(-0.0229686 0.0141397 0)
(-0.023494 0.0145974 0)
(-0.0240765 0.0149855 0)
(-0.0247164 0.0152853 0)
(-0.0254117 0.0154814 0)
(-0.0261604 0.0155593 0)
(-0.0204676 0.0124972 0)
(-0.0207337 0.0131619 0)
(-0.0210473 0.0138272 0)
(-0.0214134 0.0144789 0)
(-0.0218373 0.0151016 0)
(-0.0223238 0.0156792 0)
(-0.0228777 0.0161941 0)
(-0.0235026 0.0166207 0)
(-0.0241981 0.0169381 0)
(-0.0249603 0.0171293 0)
(-0.0195788 0.0129115 0)
(-0.0197624 0.0136694 0)
(-0.0199981 0.0144408 0)
(-0.0202925 0.0152103 0)
(-0.0206522 0.0159619 0)
(-0.0210832 0.0166783 0)
(-0.0215909 0.0173414 0)
(-0.0221824 0.0179259 0)
(-0.0228644 0.0184006 0)
(-0.0236324 0.0187309 0)
(-0.0187286 0.0131399 0)
(-0.0188112 0.0139985 0)
(-0.0189503 0.0148858 0)
(-0.0191544 0.015786 0)
(-0.0194313 0.0166815 0)
(-0.0197882 0.0175541 0)
(-0.0202306 0.0183853 0)
(-0.0207652 0.0191563 0)
(-0.0214124 0.0198492 0)
(-0.0221803 0.0203706 0)
(-0.017947 0.0131458 0)
(-0.0179088 0.014113 0)
(-0.0179324 0.0151286 0)
(-0.0180282 0.0161759 0)
(-0.0182073 0.0172361 0)
(-0.0184799 0.0182893 0)
(-0.0188553 0.0193149 0)
(-0.0193389 0.0202935 0)
(-0.0199312 0.021213 0)
(-0.0206316 0.0219495 0)
(-0.0172617 0.0128846 0)
(-0.0170768 0.0139664 0)
(-0.016956 0.0151216 0)
(-0.0169124 0.0163329 0)
(-0.0169598 0.0175801 0)
(-0.0171109 0.0188407 0)
(-0.0173762 0.0200902 0)
(-0.017762 0.0213014 0)
(-0.0182732 0.0224481 0)
(-0.0189308 0.0234371 0)
(-0.0167163 0.0123025 0)
(-0.0163562 0.0134987 0)
(-0.0160595 0.0147982 0)
(-0.0158421 0.0161832 0)
(-0.015721 0.0176324 0)
(-0.0157126 0.0191207 0)
(-0.0158314 0.0206192 0)
(-0.0160877 0.0220946 0)
(-0.0164844 0.0235112 0)
(-0.017039 0.0248148 0)
(-0.0163696 0.0113468 0)
(-0.0158059 0.0126505 0)
(-0.0153007 0.0140931 0)
(-0.014873 0.015658 0)
(-0.0145439 0.0173247 0)
(-0.0143355 0.0190672 0)
(-0.0142699 0.0208536 0)
(-0.0143684 0.0226443 0)
(-0.0146468 0.0243905 0)
(-0.0151152 0.0260399 0)
(-0.0162961 0.00996423 0)
(-0.0155023 0.0113569 0)
(-0.0147547 0.0129283 0)
(-0.0140744 0.0146654 0)
(-0.0134847 0.0165504 0)
(-0.0130111 0.0185603 0)
(-0.012681 0.0206643 0)
(-0.012523 0.0228212 0)
(-0.0125652 0.0249744 0)
(-0.0128372 0.0270512 0)
(-0.0165951 0.00811593 0)
(-0.0155567 0.0095661 0)
(-0.0145472 0.0112366 0)
(-0.0135881 0.0131185 0)
(-0.0127038 0.0151992 0)
(-0.0119221 0.0174611 0)
(-0.0112741 0.01988 0)
(-0.0107955 0.0224223 0)
(-0.0105271 0.0250393 0)
(-0.0105181 0.0276645 0)
(-0.0173682 0.00578995 0)
(-0.0160848 0.00725819 0)
(-0.0148102 0.00898832 0)
(-0.0135659 0.0109763 0)
(-0.0123768 0.0132152 0)
(-0.0112719 0.0156951 0)
(-0.0102841 0.0184021 0)
(-0.00945259 0.0213173 0)
(-0.00882207 0.0244159 0)
(-0.00844119 0.0276656 0)
(-0.0187039 0.00300446 0)
(-0.0171863 0.00445108 0)
(-0.0156568 0.00620266 0)
(-0.0141372 0.00826097 0)
(-0.0126534 0.0106264 0)
(-0.0112349 0.0132986 0)
(-0.0099154 0.0162767 0)
(-0.00873517 0.0195605 0)
(-0.00774404 0.02315 0)
(-0.00700537 0.0270445 0)
(-0.0206532 -0.00022172 0)
(-0.0189094 0.00115623 0)
(-0.0171283 0.00288013 0)
(-0.0153303 0.00495593 0)
(-0.0135389 0.00738815 0)
(-0.0117786 0.0101804 0)
(-0.0100742 0.0133361 0)
(-0.00845059 0.0168595 0)
(-0.00693184 0.020759 0)
(-0.00553203 0.0250526 0)
(-0.0232764 -0.0038572 0)
(-0.0213264 -0.0025955 0)
(-0.0193171 -0.00094636 0)
(-0.0172719 0.00110082 0)
(-0.0152191 0.0035547 0)
(-0.0131915 0.00642211 0)
(-0.0112259 0.00970798 0)
(-0.00936373 0.0134165 0)
(-0.00765333 0.0175557 0)
(-0.006157 0.0221481 0)
(-0.0265846 -0.00786637 0)
(-0.0244328 -0.00676743 0)
(-0.0221908 -0.00523377 0)
(-0.0198817 -0.00324493 0)
(-0.0175352 -0.000780401 0)
(-0.0151872 0.00218077 0)
(-0.0128802 0.00565993 0)
(-0.0106643 0.00967899 0)
(-0.00859791 0.0142608 0)
(-0.00675276 0.0194303 0)
(-0.0306066 -0.0122519 0)
(-0.0282547 -0.0113928 0)
(-0.0257652 -0.0100609 0)
(-0.0231534 -0.00822723 0)
(-0.0204386 -0.0058616 0)
(-0.0176435 -0.00293258 0)
(-0.0147931 0.000591324 0)
(-0.0119132 0.0047396 0)
(-0.00902839 0.00953557 0)
(-0.00615724 0.0149894 0)
(-0.0354372 -0.0169742 0)
(-0.032927 -0.0164494 0)
(-0.030232 -0.0154315 0)
(-0.0273593 -0.0138871 0)
(-0.02432 -0.0117814 0)
(-0.0211276 -0.0090793 0)
(-0.0177986 -0.00574758 0)
(-0.0143519 -0.00175824 0)
(-0.0108091 0.00290634 0)
(-0.00719581 0.00824647 0)
(-0.0411489 -0.0219135 0)
(-0.0385544 -0.0218058 0)
(-0.0357349 -0.0211979 0)
(-0.0326915 -0.0200516 0)
(-0.0294298 -0.0183261 0)
(-0.0259594 -0.0159789 0)
(-0.0222949 -0.0129671 0)
(-0.0184577 -0.00925007 0)
(-0.0144791 -0.00479203 0)
(-0.010405 0.000434568 0)
(-0.0477791 -0.0269037 0)
(-0.0451957 -0.0272786 0)
(-0.0423572 -0.0271569 0)
(-0.0392599 -0.0264945 0)
(-0.035905 -0.0252429 0)
(-0.0322992 -0.0233481 0)
(-0.0284554 -0.0207519 0)
(-0.0243963 -0.0173923 0)
(-0.0201571 -0.013205 0)
(-0.015791 -0.00812367 0)
(-0.0553186 -0.0317477 0)
(-0.0528509 -0.03265 0)
(-0.0501085 -0.0330677 0)
(-0.0470836 -0.0329508 0)
(-0.043774 -0.0322412 0)
(-0.0401835 -0.0308717 0)
(-0.0363236 -0.0287655 0)
(-0.0322172 -0.0258357 0)
(-0.0279032 -0.0219862 0)
(-0.023443 -0.0171125 0)
(-0.0637098 -0.036244 0)
(-0.0614562 -0.0376991 0)
(-0.0589165 -0.0386887 0)
(-0.0560796 -0.0391562 0)
(-0.0529395 -0.0390336 0)
(-0.049496 -0.0382386 0)
(-0.0457567 -0.0366716 0)
(-0.0417423 -0.0342135 0)
(-0.0374936 -0.0307238 0)
(-0.0330841 -0.0260405 0)
(-0.072852 -0.040217 0)
(-0.0708884 -0.0422379 0)
(-0.0686321 -0.0438188 0)
(-0.066068 -0.0448981 0)
(-0.0631857 -0.0454002 0)
(-0.0599774 -0.0452294 0)
(-0.0564395 -0.0442645 0)
(-0.0525778 -0.0423511 0)
(-0.0484157 -0.0392938 0)
(-0.044006 -0.0348454 0)
(-0.082608 -0.0435458 0)
(-0.0809716 -0.0461422 0)
(-0.0790353 -0.0483289 0)
(-0.0767828 -0.0500427 0)
(-0.0742017 -0.0512068 0)
(-0.0712774 -0.0517227 0)
(-0.0679934 -0.0514622 0)
(-0.0643327 -0.050255 0)
(-0.0602797 -0.0478716 0)
(-0.0557983 -0.0439873 0)
(-0.0928032 -0.0461974 0)
(-0.0914677 -0.0493874 0)
(-0.0898137 -0.0521946 0)
(-0.0878291 -0.0545548 0)
(-0.0855081 -0.0563937 0)
(-0.082841 -0.0576204 0)
(-0.0798138 -0.0581197 0)
(-0.0764061 -0.0577395 0)
(-0.0725682 -0.0562671 0)
(-0.0681337 -0.0533709 0)
(-0.10323 -0.0482836 0)
(-0.102078 -0.0521304 0)
(-0.100548 -0.0556108 0)
(-0.0986344 -0.0586523 0)
(-0.096342 -0.0611776 0)
(-0.0936742 -0.0631026 0)
(-0.0906335 -0.0643352 0)
(-0.0872144 -0.0647681 0)
(-0.0833599 -0.0642655 0)
(-0.0788353 -0.0626406 0)
(-0.113716 -0.0500918 0)
(-0.112551 -0.0547695 0)
(-0.110883 -0.0590965 0)
(-0.1087 -0.062983 0)
(-0.106007 -0.0663387 0)
(-0.102812 -0.0690804 0)
(-0.0991201 -0.0711381 0)
(-0.094927 -0.0724549 0)
(-0.0901886 -0.0729895 0)
(-0.0847344 -0.0727602 0)
(-0.124162 -0.0519889 0)
(-0.122806 -0.057817 0)
(-0.120761 -0.0633299 0)
(-0.118004 -0.0684205 0)
(-0.114524 -0.0729803 0)
(-0.110321 -0.0769213 0)
(-0.105392 -0.0801993 0)
(-0.0997034 -0.0827929 0)
(-0.0932042 -0.0846882 0)
(-0.0858257 -0.085964 0)
(-0.134387 -0.0542157 0)
(-0.132764 -0.0615811 0)
(-0.130295 -0.0687083 0)
(-0.126914 -0.0754746 0)
(-0.122591 -0.0817363 0)
(-0.117329 -0.0873658 0)
(-0.111105 -0.0923638 0)
(-0.103844 -0.0968077 0)
(-0.0954487 -0.100641 0)
(-0.0858617 -0.103968 0)
(-0.143723 -0.0568308 0)
(-0.141938 -0.0658901 0)
(-0.139223 -0.0749508 0)
(-0.135446 -0.0837691 0)
(-0.130584 -0.0921345 0)
(-0.124628 -0.0998019 0)
(-0.117496 -0.106932 0)
(-0.109083 -0.113858 0)
(-0.0992233 -0.120443 0)
(-0.0878391 -0.126579 0)
(-0.151707 -0.0599389 0)
(-0.149465 -0.0708301 0)
(-0.146414 -0.0817195 0)
(-0.142421 -0.0926346 0)
(-0.137305 -0.103257 0)
(-0.131046 -0.113437 0)
(-0.123276 -0.123479 0)
(-0.11378 -0.133588 0)
(-0.102805 -0.143197 0)
(-0.0903221 -0.152355 0)
(-0.15637 -0.0637993 0)
(-0.153932 -0.0763695 0)
(-0.150392 -0.089252 0)
(-0.145876 -0.102239 0)
(-0.140347 -0.115193 0)
(-0.133695 -0.128122 0)
(-0.125663 -0.141326 0)
(-0.115938 -0.154662 0)
(-0.104526 -0.167466 0)
(-0.0913638 -0.179832 0)
(-0.155776 -0.0682454 0)
(-0.152804 -0.0826799 0)
(-0.149002 -0.0975427 0)
(-0.144327 -0.112422 0)
(-0.13871 -0.127533 0)
(-0.132025 -0.14298 0)
(-0.124088 -0.159137 0)
(-0.114615 -0.175706 0)
(-0.103231 -0.192304 0)
(-0.0896991 -0.208611 0)
(-0.150032 -0.0739608 0)
(-0.14615 -0.0900528 0)
(-0.141425 -0.106446 0)
(-0.136002 -0.122884 0)
(-0.130081 -0.139673 0)
(-0.123645 -0.157208 0)
(-0.116357 -0.175984 0)
(-0.107673 -0.196079 0)
(-0.0969363 -0.21712 0)
(-0.0835692 -0.238322 0)
(-0.139615 -0.0820437 0)
(-0.134338 -0.100184 0)
(-0.127938 -0.118347 0)
(-0.120886 -0.135752 0)
(-0.11383 -0.152896 0)
(-0.10699 -0.171114 0)
(-0.100013 -0.191587 0)
(-0.0921458 -0.2149 0)
(-0.082364 -0.240785 0)
(-0.0695523 -0.268216 0)
(-0.129284 -0.093609 0)
(-0.122443 -0.114149 0)
(-0.113903 -0.1343 0)
(-0.104354 -0.151914 0)
(-0.0947027 -0.168001 0)
(-0.0854043 -0.185433 0)
(-0.0764042 -0.206581 0)
(-0.0671818 -0.232404 0)
(-0.0567832 -0.262644 0)
(-0.0434305 -0.296979 0)
(-0.13034 -0.104244 0)
(-0.120512 -0.12841 0)
(-0.10911 -0.151426 0)
(-0.0966521 -0.171 0)
(-0.0822438 -0.188176 0)
(-0.0661406 -0.205675 0)
(-0.0512138 -0.226081 0)
(-0.0381593 -0.251686 0)
(-0.0246179 -0.285247 0)
(-0.00538095 -0.329204 0)
(-0.149734 -0.124737 0)
(-0.133118 -0.155447 0)
(-0.113737 -0.183169 0)
(-0.0922848 -0.206698 0)
(-0.0694318 -0.226421 0)
(-0.046494 -0.242868 0)
(-0.0258624 -0.26023 0)
(-0.00850796 -0.284681 0)
(0.00713048 -0.320948 0)
(0.0328541 -0.372118 0)
(-0.168699 -0.165125 0)
(-0.15038 -0.201598 0)
(-0.129712 -0.235091 0)
(-0.105928 -0.264293 0)
(-0.0789025 -0.287888 0)
(-0.0483396 -0.303005 0)
(-0.0163676 -0.309839 0)
(0.0109683 -0.326052 0)
(0.0345144 -0.365913 0)
(0.0683749 -0.426067 0)
(-0.146182 -0.198613 0)
(-0.127978 -0.238286 0)
(-0.108345 -0.275121 0)
(-0.0874347 -0.308429 0)
(-0.065029 -0.337557 0)
(-0.0412507 -0.361887 0)
(-0.0140982 -0.379259 0)
(0.0215712 -0.391603 0)
(0.0601876 -0.435224 0)
(0.102422 -0.497472 0)
(-0.111068 -0.230711 0)
(-0.091687 -0.274277 0)
(-0.0707363 -0.313595 0)
(-0.0488319 -0.349017 0)
(-0.025781 -0.381155 0)
(-0.00190291 -0.41096 0)
(0.0191361 -0.43788 0)
(0.0432894 -0.464169 0)
(0.0949953 -0.51985 0)
(0.129908 -0.566759 0)
(-0.0701841 -0.269941 0)
(-0.0481733 -0.31829 0)
(-0.0249465 -0.35989 0)
(-0.00129704 -0.396145 0)
(0.0228323 -0.428391 0)
(0.0474503 -0.458537 0)
(0.0687032 -0.489481 0)
(0.0945757 -0.52913 0)
(0.139432 -0.590416 0)
(0.165986 -0.626635 0)
(-0.0239998 -0.312813 0)
(0.000338553 -0.365243 0)
(0.0240494 -0.407777 0)
(0.0468735 -0.443781 0)
(0.0689759 -0.475401 0)
(0.0904806 -0.504956 0)
(0.111333 -0.540539 0)
(0.139535 -0.593879 0)
(0.172369 -0.646778 0)
(0.195713 -0.677712 0)
(0.0274353 -0.361576 0)
(0.0494404 -0.411024 0)
(0.0703398 -0.451057 0)
(0.0893088 -0.485264 0)
(0.106396 -0.515717 0)
(0.125477 -0.547347 0)
(0.152937 -0.592771 0)
(0.182138 -0.648829 0)
(0.208057 -0.694334 0)
(0.229581 -0.724153 0)
(0.0703462 -0.409462 0)
(0.0871697 -0.449679 0)
(0.103646 -0.484728 0)
(0.117143 -0.516622 0)
(0.130236 -0.548544 0)
(0.148243 -0.592208 0)
(0.178903 -0.652303 0)
(0.208414 -0.705528 0)
(0.232898 -0.742235 0)
(0.254791 -0.768422 0)
(0.101432 -0.447846 0)
(0.112905 -0.478801 0)
(0.12417 -0.509088 0)
(0.133688 -0.539453 0)
(0.146888 -0.579729 0)
(0.173593 -0.645919 0)
(0.204922 -0.712808 0)
(0.230784 -0.757242 0)
(0.25173 -0.787125 0)
(0.272221 -0.81001 0)
(0.123951 -0.469018 0)
(0.130356 -0.496803 0)
(0.136392 -0.525428 0)
(0.145392 -0.560868 0)
(0.165198 -0.62598 0)
(0.196988 -0.709504 0)
(0.222227 -0.763874 0)
(0.242094 -0.799124 0)
(0.261736 -0.82683 0)
(0.280931 -0.848343 0)
(0.139458 -0.476716 0)
(0.141176 -0.505516 0)
(0.145143 -0.53777 0)
(0.155216 -0.588727 0)
(0.184479 -0.687605 0)
(0.208575 -0.75975 0)
(0.228078 -0.803306 0)
(0.246816 -0.837242 0)
(0.265487 -0.864567 0)
(0.283575 -0.884836 0)
(0.148259 -0.47699 0)
(0.146013 -0.505835 0)
(0.145702 -0.546955 0)
(0.160319 -0.64033 0)
(0.188444 -0.740908 0)
(0.21174 -0.800121 0)
(0.229343 -0.840553 0)
(0.247388 -0.8738 0)
(0.265042 -0.900192 0)
(0.281902 -0.918778 0)
(0.154585 -0.473606 0)
(0.154534 -0.504765 0)
(0.157045 -0.559004 0)
(0.178801 -0.687588 0)
(0.196807 -0.781122 0)
(0.212466 -0.833884 0)
(0.228476 -0.874132 0)
(0.245046 -0.90739 0)
(0.261284 -0.932985 0)
(0.276741 -0.949763 0)
(0.147979 -0.467402 0)
(0.145829 -0.504258 0)
(0.148181 -0.591795 0)
(0.172145 -0.72689 0)
(0.190642 -0.814249 0)
(0.205911 -0.866027 0)
(0.222657 -0.906734 0)
(0.239157 -0.939699 0)
(0.25471 -0.963945 0)
(0.269078 -0.978252 0)
(0.144528 -0.458012 0)
(0.141105 -0.503548 0)
(0.148038 -0.622931 0)
(0.170406 -0.763372 0)
(0.187108 -0.848986 0)
(0.201802 -0.899419 0)
(0.218018 -0.939166 0)
(0.233594 -0.970783 0)
(0.247955 -0.992843 0)
(0.260901 -1.00401 0)
(0.141493 -0.447795 0)
(0.138513 -0.516188 0)
(0.15108 -0.6515 0)
(0.17113 -0.797166 0)
(0.186167 -0.881033 0)
(0.199401 -0.929918 0)
(0.214113 -0.96876 0)
(0.228249 -0.998978 0)
(0.241164 -1.01869 0)
(0.252566 -1.0265 0)
(0.135262 -0.442948 0)
(0.138143 -0.53423 0)
(0.154944 -0.682574 0)
(0.17211 -0.827924 0)
(0.185593 -0.908552 0)
(0.197125 -0.956787 0)
(0.21024 -0.995389 0)
(0.222939 -1.02432 0)
(0.234452 -1.0415 0)
(0.244333 -1.04572 0)
(0.123992 -0.450502 0)
(0.132828 -0.558998 0)
(0.153942 -0.723019 0)
(0.169841 -0.857817 0)
(0.18339 -0.932337 0)
(0.194354 -0.980943 0)
(0.206422 -1.01963 0)
(0.217999 -1.04717 0)
(0.228329 -1.06159 0)
(0.236903 -1.06197 0)
(0.115339 -0.467554 0)
(0.131495 -0.58941 0)
(0.154642 -0.765215 0)
(0.168656 -0.886923 0)
(0.180748 -0.954542 0)
(0.1916 -1.00361 0)
(0.202954 -1.04212 0)
(0.213624 -1.06799 0)
(0.222948 -1.07943 0)
(0.230457 -1.0759 0)
(0.107884 -0.493598 0)
(0.13108 -0.625021 0)
(0.152594 -0.803837 0)
(0.166739 -0.913087 0)
(0.177097 -0.976146 0)
(0.188243 -1.02568 0)
(0.199377 -1.06349 0)
(0.209442 -1.08721 0)
(0.217961 -1.09539 0)
(0.224605 -1.08788 0)
(0.100685 -0.523583 0)
(0.126386 -0.676567 0)
(0.145967 -0.838596 0)
(0.162444 -0.936168 0)
(0.173301 -0.998711 0)
(0.184993 -1.0482 0)
(0.195982 -1.0843 0)
(0.205478 -1.10512 0)
(0.213207 -1.10964 0)
(0.218956 -1.09797 0)
(0.0968737 -0.551747 0)
(0.12249 -0.727563 0)
(0.143361 -0.87659 0)
(0.15911 -0.962897 0)
(0.170948 -1.02353 0)
(0.182632 -1.07098 0)
(0.193027 -1.10425 0)
(0.201779 -1.12168 0)
(0.208746 -1.12237 0)
(0.213755 -1.10656 0)
(0.0953224 -0.582292 0)
(0.120901 -0.780506 0)
(0.143615 -0.914452 0)
(0.157304 -0.989898 0)
(0.169238 -1.04739 0)
(0.18016 -1.09209 0)
(0.189589 -1.12238 0)
(0.197485 -1.13657 0)
(0.203769 -1.13378 0)
(0.208287 -1.11425 0)
(0.10853 -0.621197 0)
(0.132914 -0.819336 0)
(0.148649 -0.939316 0)
(0.15743 -1.01087 0)
(0.166739 -1.06718 0)
(0.175798 -1.11017 0)
(0.184019 -1.13822 0)
(0.191142 -1.14977 0)
(0.19693 -1.14395 0)
(0.201198 -1.1211 0)
(0.0850709 -0.689003 0)
(0.114118 -0.866663 0)
(0.133667 -0.965313 0)
(0.145288 -1.03245 0)
(0.156026 -1.08676 0)
(0.165754 -1.12783 0)
(0.174362 -1.15366 0)
(0.181689 -1.16255 0)
(0.187518 -1.15367 0)
(0.191779 -1.12741 0)
(0.079788 -0.753709 0)
(0.105852 -0.910471 0)
(0.121924 -0.993077 0)
(0.13359 -1.05561 0)
(0.144275 -1.10743 0)
(0.154156 -1.14643 0)
(0.163056 -1.16995 0)
(0.170674 -1.17611 0)
(0.176767 -1.16416 0)
(0.181416 -1.13472 0)
(0.0912241 -0.793472 0)
(0.10244 -0.93559 0)
(0.111474 -1.01218 0)
(0.121036 -1.0749 0)
(0.130935 -1.12686 0)
(0.140705 -1.16502 0)
(0.149754 -1.18672 0)
(0.157589 -1.19038 0)
(0.16398 -1.17569 0)
(0.169064 -1.14405 0)
(0.0666949 -0.82646 0)
(0.0801328 -0.955333 0)
(0.0912254 -1.0319 0)
(0.103245 -1.09605 0)
(0.11466 -1.14797 0)
(0.125169 -1.18463 0)
(0.134431 -1.20382 0)
(0.142107 -1.20432 0)
(0.147977 -1.18619 0)
(0.151799 -1.15139 0)
(0.0539157 -0.855914 0)
(0.0654152 -0.981014 0)
(0.0771293 -1.05701 0)
(0.0897231 -1.12035 0)
(0.101171 -1.17049 0)
(0.111338 -1.20448 0)
(0.120044 -1.22032 0)
(0.127045 -1.21694 0)
(0.132148 -1.19437 0)
(0.134936 -1.15443 0)
(0.0499045 -0.880477 0)
(0.0588594 -1.00494 0)
(0.0693128 -1.08055 0)
(0.0805669 -1.14296 0)
(0.0907607 -1.19133 0)
(0.0997914 -1.22279 0)
(0.107511 -1.2356 0)
(0.113771 -1.22885 0)
(0.11854 -1.20238 0)
(0.121256 -1.15736 0)
(0.0507238 -0.898532 0)
(0.0569277 -1.02421 0)
(0.0651408 -1.0999 0)
(0.0740829 -1.1618 0)
(0.082297 -1.20885 0)
(0.0896 -1.23828 0)
(0.0958457 -1.24876 0)
(0.101071 -1.23983 0)
(0.105608 -1.21156 0)
(0.1092 -1.16478 0)
(0.0516395 -0.910311 0)
(0.0559475 -1.0379 0)
(0.0621042 -1.11424 0)
(0.0687942 -1.17607 0)
(0.0749489 -1.22206 0)
(0.0802431 -1.24956 0)
(0.0843749 -1.25766 0)
(0.0871848 -1.24644 0)
(0.0886048 -1.21651 0)
(0.0884614 -1.16866 0)
(0.0503937 -0.919143 0)
(0.0541805 -1.04772 0)
(0.0591646 -1.12491 0)
(0.0644543 -1.18682 0)
(0.069258 -1.23176 0)
(0.0732402 -1.2572 0)
(0.0760708 -1.26261 0)
(0.077524 -1.24849 0)
(0.0774468 -1.21591 0)
(0.0762298 -1.16604 0)
(0.0476186 -0.927402 0)
(0.0516602 -1.05621 0)
(0.0563569 -1.13404 0)
(0.0611469 -1.19588 0)
(0.0653841 -1.23974 0)
(0.0688336 -1.26322 0)
(0.0712442 -1.26612 0)
(0.0724303 -1.24935 0)
(0.0723245 -1.21422 0)
(0.0715625 -1.16173 0)
(0.0448748 -0.936488 0)
(0.0494286 -1.06503 0)
(0.0542488 -1.14308 0)
(0.0590403 -1.2046 0)
(0.0632034 -1.24739 0)
(0.0666441 -1.26916 0)
(0.0692697 -1.2701 0)
(0.0710591 -1.25144 0)
(0.0721906 -1.21476 0)
(0.0733634 -1.16124 0)
(0.0428137 -0.946665 0)
(0.0480333 -1.07456 0)
(0.0529972 -1.1525 0)
(0.0578838 -1.21346 0)
(0.0620599 -1.25522 0)
(0.0655373 -1.27564 0)
(0.0684216 -1.27529 0)
(0.0709082 -1.25575 0)
(0.07337 -1.21889 0)
(0.0762919 -1.16639 0)
(0.0415788 -0.957708 0)
(0.0475607 -1.08462 0)
(0.0525179 -1.16215 0)
(0.0573431 -1.22227 0)
(0.0613163 -1.26287 0)
(0.064482 -1.28205 0)
(0.0671249 -1.28087 0)
(0.0695849 -1.2611 0)
(0.0721976 -1.22467 0)
(0.0753538 -1.17364 0)
(0.0409045 -0.969693 0)
(0.0477864 -1.09496 0)
(0.0526672 -1.17173 0)
(0.0572662 -1.23052 0)
(0.0607875 -1.26959 0)
(0.0632772 -1.28734 0)
(0.0651955 -1.28543 0)
(0.0670284 -1.26569 0)
(0.0691603 -1.22943 0)
(0.0723007 -1.17821 0)
(0.0404885 -0.983057 0)
(0.0483861 -1.10566 0)
(0.053294 -1.18113 0)
(0.0576148 -1.23797 0)
(0.060574 -1.27493 0)
(0.0622463 -1.2909 0)
(0.0632954 -1.28835 0)
(0.0645324 -1.2691 0)
(0.0668592 -1.23303 0)
(0.0711598 -1.1795 0)
(0.039675 -0.998428 0)
(0.0488448 -1.11705 0)
(0.0539956 -1.19056 0)
(0.0580754 -1.24475 0)
(0.0605115 -1.27907 0)
(0.0614764 -1.29307 0)
(0.0618676 -1.2903 0)
(0.0630384 -1.27266 0)
(0.0667687 -1.23837 0)
(0.0729567 -1.18247 0)
(0.0372404 -1.01541 0)
(0.0482095 -1.12921 0)
(0.0538431 -1.20009 0)
(0.0576242 -1.25094 0)
(0.0595281 -1.28227 0)
(0.0599744 -1.29456 0)
(0.0601544 -1.29249 0)
(0.0620587 -1.27844 0)
(0.0680544 -1.24967 0)
(0.0749116 -1.19774 0)
(0.0308075 -1.03312 0)
(0.0449451 -1.14203 0)
(0.051337 -1.20951 0)
(0.0545854 -1.25603 0)
(0.0556619 -1.28411 0)
(0.0554275 -1.29508 0)
(0.0552644 -1.29448 0)
(0.0573259 -1.28566 0)
(0.0635393 -1.26678 0)
(0.0676607 -1.22982 0)
(0.0193742 -1.05018 0)
(0.0377371 -1.15617 0)
(0.0453031 -1.21868 0)
(0.0478245 -1.25948 0)
(0.0478221 -1.28398 0)
(0.0466523 -1.29363 0)
(0.0454928 -1.29408 0)
(0.0456855 -1.28951 0)
(0.0480099 -1.27974 0)
(0.0471047 -1.2604 0)
(0.00601857 -1.07367 0)
(0.0256488 -1.17405 0)
(0.0349025 -1.22799 0)
(0.0371653 -1.26194 0)
(0.0365761 -1.28265 0)
(0.0349244 -1.29066 0)
(0.0331376 -1.29103 0)
(0.0315312 -1.28828 0)
(0.0301809 -1.28329 0)
(0.0269844 -1.27443 0)
(-0.00430481 -1.12393 0)
(0.0100841 -1.19893 0)
(0.0207307 -1.23892 0)
(0.0240011 -1.2654 0)
(0.0239603 -1.28172 0)
(0.0222959 -1.28739 0)
(0.0202846 -1.28652 0)
(0.017379 -1.28351 0)
(0.0135527 -1.27986 0)
(0.00943707 -1.27474 0)
(-0.00368301 -1.18264 0)
(-0.000151454 -1.22459 0)
(0.00943854 -1.24981 0)
(0.0136558 -1.26969 0)
(0.0140511 -1.28075 0)
(0.0119009 -1.28375 0)
(0.00976845 -1.28099 0)
(0.00613451 -1.27613 0)
(0.000896359 -1.27175 0)
(-0.00374613 -1.26764 0)
(0.00851096 -1.22483 0)
(0.0054515 -1.23811 0)
(0.00758618 -1.25517 0)
(0.00948788 -1.27167 0)
(0.00878705 -1.2775 0)
(0.0050119 -1.27876 0)
(0.00268426 -1.27477 0)
(-0.00112549 -1.26717 0)
(-0.00714127 -1.26062 0)
(-0.0121123 -1.25636 0)
(0.014633 -1.22402 0)
(0.0104046 -1.2346 0)
(0.00835689 -1.25485 0)
(0.00818868 -1.27059 0)
(0.00661809 -1.27122 0)
(0.000751596 -1.27205 0)
(-0.00158459 -1.26878 0)
(-0.00489339 -1.25803 0)
(-0.0109753 -1.24755 0)
(-0.0160744 -1.24198 0)
(0.0156411 -1.20728 0)
(0.0117802 -1.22531 0)
(0.0102531 -1.25422 0)
(0.00814734 -1.26738 0)
(0.00650438 -1.26252 0)
(-0.0018436 -1.26355 0)
(-0.00389183 -1.26404 0)
(-0.00623462 -1.25108 0)
(-0.0110748 -1.2338 0)
(-0.01572 -1.22415 0)
(0.0101221 -1.17992 0)
(0.00849546 -1.21625 0)
(0.0129232 -1.25628 0)
(0.00785852 -1.26091 0)
(0.007367 -1.2517 0)
(-0.0039146 -1.2527 0)
(-0.00531063 -1.25926 0)
(-0.00750857 -1.24913 0)
(-0.00757363 -1.22142 0)
(-0.0104953 -1.20028 0)
(0.0031852 -1.13723 0)
(0.00120255 -1.21569 0)
(0.0184625 -1.26136 0)
(0.00669725 -1.24908 0)
(0.00839134 -1.23963 0)
(-0.00570869 -1.24007 0)
(-0.00544256 -1.24978 0)
(-0.0123436 -1.25354 0)
(-0.000554524 -1.21575 0)
(-0.00307467 -1.16201 0)
(0.00797697 -1.06194 0)
(-0.0124333 -1.24673 0)
(0.024648 -1.26674 0)
(0.00189167 -1.23394 0)
(0.00782024 -1.22883 0)
(-0.00562893 -1.229 0)
(-0.000170064 -1.2346 0)
(-0.0198814 -1.26295 0)
(0.013645 -1.24287 0)
(-0.00507135 -1.08513 0)
(-0.0338452 0.0009232 0)
(-0.0346047 0.000880409 0)
(-0.035306 0.00081251 0)
(-0.0359285 0.000718205 0)
(-0.0364499 0.000594815 0)
(-0.0368462 0.000438359 0)
(-0.0370951 0.000244366 0)
(-0.0371727 1.28343e-05 0)
(-0.0370383 -0.000245252 0)
(-0.0366891 -0.000515516 0)
(-0.0361147 -0.000794156 0)
(-0.0353034 -0.00108076 0)
(-0.0342462 -0.00137492 0)
(-0.0329362 -0.00167507 0)
(-0.0313689 -0.00197885 0)
(-0.0295423 -0.00228346 0)
(-0.0274578 -0.00258533 0)
(-0.0251205 -0.00287999 0)
(-0.02254 -0.00316226 0)
(-0.0197309 -0.00342583 0)
(-0.0167143 -0.00366342 0)
(-0.013518 -0.0038664 0)
(-0.0101781 -0.00402442 0)
(-0.00673895 -0.00412536 0)
(-0.00325285 -0.00415625 0)
(0.000210816 -0.00410405 0)
(0.00357557 -0.00395212 0)
(0.00676219 -0.00368978 0)
(0.00967342 -0.00330445 0)
(0.0122052 -0.00278681 0)
(0.0142497 -0.00212252 0)
(0.0156987 -0.0012934 0)
(0.0164772 -0.000290647 0)
(0.0163991 0.000823786 0)
(0.0154206 0.00195547 0)
(0.0136046 0.00302895 0)
(0.0110241 0.00392495 0)
(0.00786527 0.00440632 0)
(0.00421383 0.0039278 0)
(0.00121184 0.00262141 0)
(-0.0346058 0.00199749 0)
(-0.0352117 0.00185462 0)
(-0.035751 0.00166161 0)
(-0.0362087 0.00141522 0)
(-0.03657 0.00111314 0)
(-0.0368211 0.000753943 0)
(-0.0369493 0.000337344 0)
(-0.0369455 -0.000134606 0)
(-0.0368036 -0.000654385 0)
(-0.0365038 -0.00121284 0)
(-0.036033 -0.00180414 0)
(-0.0353786 -0.00242319 0)
(-0.0345306 -0.00306462 0)
(-0.0334813 -0.00372236 0)