/*--------------------------------*- C++ -*----------------------------------*\
  =========                 |
  \\      /  F ield         | OpenFOAM: The Open Source CFD Toolbox
   \\    /   O peration     | Website:  https://openfoam.org
    \\  /    A nd           | Version:  8
     \\/     M anipulation  |
\*---------------------------------------------------------------------------*/
FoamFile
{
    version     2.0;
    format      ascii;
    class       volScalarField;
    location    "6.6";
    object      p;
}
// * * * * * * * * * * * * * * * * * * * * * * * * * * * * * * * * * * * * * //

dimensions      [1 -1 -2 0 0 0 0];

internalField   nonuniform List<scalar> 
9150
(
-204.818
-205.824
-206.451
-206.921
-207.156
-207.15
-206.909
-206.44
-205.822
-204.816
-224.871
-225.387
-225.808
-226.127
-226.302
-226.307
-226.127
-225.803
-225.384
-224.868
-244.764
-245.048
-245.302
-245.519
-245.63
-245.631
-245.515
-245.296
-245.044
-244.761
-264.503
-264.679
-264.847
-265.006
-265.087
-265.081
-265
-264.843
-264.675
-264.5
-284.125
-284.305
-284.443
-284.571
-284.63
-284.628
-284.57
-284.44
-284.303
-284.122
-118.794
-119.605
-119.331
-118.928
-118.759
-118.763
-118.952
-119.353
-119.642
-118.821
-134.322
-135.032
-135.195
-135.268
-135.168
-135.167
-135.254
-135.19
-135.023
-134.307
-150.804
-151.562
-151.862
-152.222
-152.272
-152.257
-152.2
-151.835
-151.532
-150.784
-167.649
-168.792
-169.249
-169.877
-170.058
-170.048
-169.901
-169.268
-168.805
-167.66
-184.672
-186.728
-187.484
-188.188
-188.462
-188.465
-188.192
-187.492
-186.729
-184.672
-25.2019
-26.5274
-28.5444
-29.5689
-29.9986
-29.9169
-29.2953
-28.1826
-26.4218
-24.9845
-45.4826
-45.7054
-46.693
-47.0478
-47.5245
-47.5302
-47.0876
-46.7567
-45.7412
-45.4806
-65.5595
-65.4364
-66.4903
-66.1476
-66.569
-66.5314
-66.0468
-66.4805
-65.4545
-65.57
-88.3813
-85.5652
-86.558
-85.0233
-85.2407
-85.2474
-85.1288
-86.6114
-85.6137
-88.4433
-114.116
-104.537
-104.079
-102.665
-102.283
-102.288
-102.685
-104.094
-104.561
-114.16
1273.77
1275.19
1276.45
1277.23
1276.68
1276.02
1275.06
1273.65
1272
1270.73
1252.21
1252.95
1254.05
1254.48
1254.71
1254.57
1254.18
1252.9
1250.26
1247.55
1230.52
1231.33
1231.51
1231.61
1231.67
1230.92
1229.25
1227.84
1229.81
1223.4
1209.1
1209.46
1209.75
1209.19
1208.77
1208.96
1209.43
1208.67
1209.6
1207.45
1187.73
1188.52
1188.59
1188.27
1188.25
1188.25
1189.36
1190.27
1191.18
1191.64
1166.77
1167.66
1168.26
1168.81
1170.57
1171.51
1172.72
1174
1175.08
1176.16
1147.12
1148.71
1152.53
1153.86
1154.66
1155.48
1156.58
1157.62
1158.63
1159.36
1127.86
1129.85
1135.3
1136.84
1137.69
1138.67
1140
1140.91
1141.83
1142.47
1108.06
1110.26
1113.14
1115.65
1118.02
1120.26
1123.64
1122.53
1122.38
1123.16
1087.74
1090.11
1092.58
1094.93
1096.94
1098.65
1099.67
1101.33
1102.48
1104.15
1067.17
1069.77
1072.25
1074.4
1076.53
1078.35
1079.75
1080.99
1082.08
1083.41
1047.8
1050.23
1052.54
1054.65
1056.67
1058.4
1059.56
1061.63
1062.54
1063.53
1029.57
1031.94
1034.1
1036.13
1037.89
1039.17
1041.3
1042.67
1043.44
1044.14
1012.69
1014.39
1015.98
1017.53
1019.59
1021.73
1022.73
1023.58
1024.35
1025
994.66
996.824
999.267
1001.3
1002.23
1002.89
1003.83
1004.68
1005.42
1006.04
978.225
980.079
981.385
982.4
983.363
984.237
985.127
985.864
986.537
987.215
960.167
961.639
962.948
964.135
965.163
965.813
966.607
967.462
968.13
968.702
942.822
943.961
944.992
945.926
946.709
947.604
948.486
949.301
949.996
950.526
925.25
926.087
926.881
927.686
928.677
929.654
930.548
931.304
931.886
932.229
907.215
908.085
908.947
909.852
910.79
911.805
912.709
913.338
913.761
913.928
889.178
890.034
890.68
891.311
892.204
893.187
894.182
894.811
894.937
894.849
871.399
872.084
872.581
873.238
872.822
873.437
874.479
874.67
874.833
874.711
854.423
855.152
855.571
855.412
854.656
855.235
855.593
855.896
856.011
856.135
836.807
837.131
837.156
837.335
837.38
837.118
837.057
837.238
837.235
837.328
817.495
817.703
817.911
818.082
818.126
818.092
818.566
819.154
818.236
818.363
798.605
798.903
799.073
799.164
799.187
799.153
799.077
799.058
799.128
799.23
780.41
780.654
780.709
780.664
780.545
780.359
780.19
780.035
779.918
779.823
762.693
762.819
762.6
762.162
761.744
761.309
760.934
760.637
760.426
760.298
745.214
745.463
745.36
744.864
744.1
743.168
742.435
741.845
741.369
741
726.821
726.887
726.584
726.037
725.427
724.614
723.607
722.843
722.516
721.816
708.306
707.864
707.561
707.058
706.334
705.618
705.064
704.545
704.115
703.062
690.378
689.81
689.294
688.779
688.088
687.544
687.075
688.117
687.774
687.361
673.288
672.644
672.026
671.44
671.656
671.331
669.848
670.216
670.866
670.917
656.455
655.67
654.884
654.06
653.323
652.628
652.818
652.909
652.403
652.878
639.861
638.342
636.679
635.209
634.015
633.102
632.684
632.654
632.835
634.115
623.398
620.685
617.684
615.464
613.995
613.524
614.535
616.191
617.674
618.575
608.799
604.025
601.266
599.418
597.878
597.59
598.45
600.198
601.704
602.807
591.382
588.719
586.095
584.702
584.515
585.267
586.33
586.684
586.258
586.16
571.587
571.993
572.42
572.407
572.019
573.541
573.967
573.171
571.832
569.659
547.737
548.316
549.049
554.614
552.118
553.713
555.131
555.158
553.786
552.568
516.916
518.736
522.069
525.49
528.501
531.264
532.867
534.299
534.029
532.738
494.908
497.618
500.988
503.555
506.239
509.428
512.316
514.121
514.849
515.079
480.354
480.656
481.391
483.54
486.881
490.009
492.753
495.199
497.402
499.746
463.064
463.429
464.245
465.548
467.477
469.695
473.441
476.09
479.894
483.552
447.732
447.751
447.445
447.479
448.422
450.308
454.109
457.166
461.904
466.711
436.37
433.416
431.849
429.7
428.745
428.781
430.699
434.458
439.803
445.302
425.476
426.047
422.58
417.207
411.897
407.752
404.383
406.114
411.039
415.297
414.409
414.639
411.044
404.191
395.731
388.232
380.24
376.45
379.737
385.886
383.612
387.763
385.736
380.351
372.99
368.207
361.019
353.987
348.478
346.525
335.995
343.515
342.707
340.125
334.471
328.186
319.203
311.335
308.171
302.664
283.341
296.449
291.31
292.445
285.25
277.007
263.607
257.586
251.879
255.689
252.118
266.614
252.397
252.479
243.085
231.197
217.651
211.15
206.228
209.989
238.608
250.155
237.67
237.083
219.252
208.499
201.003
194.797
196.239
199.484
234.876
243.161
230.202
228.637
213.648
209.29
201.513
202.446
205.214
213.025
231.171
239.976
226.08
226.248
218.064
217.563
212.594
217.423
219.899
223.262
223.349
232.967
223.042
225.944
218.202
222.051
222.836
230.546
233.438
226.74
215.066
230.793
222.577
225.897
225.742
225.457
231.761
226.411
243.98
226.784
212.418
236.918
226.128
227.925
226.92
225.84
226.227
226.259
225.587
225.499
204.309
231.864
221.709
221.744
221.816
223.399
223.331
225.399
225.821
223.721
191.713
207.123
208.436
206.766
212.385
216.812
219.988
221.306
231.371
221.243
182.222
183.077
187.632
191.3
196.771
203.023
209.697
214.923
218.893
217.804
158.889
163.098
170.142
176.544
183.73
189.64
192.628
196.517
200.029
203.661
145.887
148.948
154.652
160.753
166.605
172.734
178.249
183.125
186.962
187.452
133.645
135.336
140.625
146.841
152.415
157.373
161.566
165.107
168.425
170.608
131.222
129.88
129.122
134.894
139.736
143.842
147.216
149.761
151.959
154.284
128.478
127.317
124.37
127.854
131.08
133.321
134.546
135.298
136.578
136.776
126.174
123.325
121.679
123.183
123.971
124.382
123.878
122.69
120.317
109.523
119.794
118.163
118.423
117.925
116.277
114.27
112.037
111.675
97.8674
75.1064
117.273
115.316
113.278
110.03
106.314
100.83
101.267
90.235
66.0078
32.8846
112.157
107.627
102.669
97.5366
92.0867
83.6551
80.9247
62.6297
33.7298
17.1911
99.3704
94.9789
90.304
84.2874
97.0452
73.8216
64.1127
42.6599
24.1847
15.8929
90.6188
87.5714
83.0054
78.0563
99.122
73.1106
52.2307
28.106
17.6002
18.7554
79.7864
84.6914
87.9809
83.8471
110.913
75.9859
46.9151
6.43155
2.98041
1.61509
73.6811
80.85
82.0208
81.7266
82.3827
85.991
25.6171
1.39545
-1.83242
-0.683824
71.4938
70.1538
72.075
73.3767
68.859
64.1855
5.17604
0.0871032
-1.96984
-1.39243
67.5273
64.8611
60.4495
66.2291
62.6192
51.1667
-0.747768
-1.06114
-1.25742
-1.2547
58.5567
55.3034
65.3046
86.5615
51.7137
47.4188
-1.72038
-1.45968
-1.48459
-1.38678
45.4041
49.8289
44.6969
82.4887
40.1159
43.6336
-1.6757
-1.47758
-1.47782
-1.45299
27.6132
25.6937
39.5141
49.9674
33.9481
38.3727
-1.55631
-1.4934
-1.47756
-1.48963
12.3297
3.39529
15.243
21.271
32.7839
32.7281
-1.60067
-1.53514
-1.52412
-1.52787
-2.23045
-1.1404
-0.147212
0.428572
24.8677
23.7622
-1.66816
-1.56786
-1.56888
-1.57135
-1.42967
-3.37628
-3.68263
-4.90137
21.6435
22.9814
-1.73113
-1.60947
-1.61112
-1.61211
-1.5597
-1.6617
-1.2401
-4.25291
23.347
20.0892
-1.70215
-1.64363
-1.64647
-1.64845
-1.64111
-1.68446
-1.42167
-2.55455
20.6815
20.4218
-1.59837
-1.68193
-1.68202
-1.68316
-1.58464
-1.54676
-1.54545
-1.43178
21.6842
18.4869
-1.6075
-1.71762
-1.71753
-1.71876
-1.55824
-1.54538
-1.56697
-1.54777
22.3939
16.2663
-1.72866
-1.75506
-1.75595
-1.75588
-1.56833
-1.55459
-1.54925
-1.60984
13.6525
23.2747
-1.97015
-1.81027
-1.80095
-1.79467
-1.58083
-1.56832
-1.54585
-1.73644
9.57713
24.6399
-2.13463
-1.8449
-1.83389
-1.82483
-1.60824
-1.59469
-1.57208
-1.78393
9.09836
20.5332
-1.98489
-1.8643
-1.84963
-1.84181
-1.64976
-1.62802
-1.61873
-1.67968
5.95798
18.1474
-1.69431
-1.86741
-1.85311
-1.84855
-1.69392
-1.6742
-1.66854
-1.56363
4.70592
14.7434
-1.88581
-1.86918
-1.85878
-1.85288
-1.73631
-1.72643
-1.7314
-1.64224
9.2344
5.09624
-2.2218
-1.84092
-1.86296
-1.85548
-1.7735
-1.771
-1.79319
-2.15054
6.43365
3.38559
-2.48763
-1.87814
-1.86892
-1.87038
-1.80077
-1.8005
-1.85909
-2.35134
1.75831
2.73543
-1.8675
-1.94232
-1.88159
-1.88028
-1.82357
-1.82422
-1.98625
-1.47585
0.339852
1.32399
-1.85458
-2.05259
-1.89648
-1.89333
-1.84874
-1.85326
-2.23073
-1.60083
-0.512636
0.158784
-1.08523
-2.28179
-1.90422
-1.90324
-1.87132
-1.86282
-3.0398
-1.67843
-1.05364
-0.852926
-1.68703
-3.41633
-1.90925
-1.91636
-1.89463
-2.32305
-4.14882
-2.20999
-1.65807
-2.23137
-3.38622
-4.74612
-2.45624
-1.92876
-1.91916
-4.15664
-5.91836
-5.92316
-5.78304
-5.55819
-5.20381
-5.15257
-3.92307
-1.93903
-2.69248
-9.49229
-12.6913
-14.5202
-15.3301
-15.419
-14.8964
-13.1464
-9.83799
-2.81916
1270.63
1271.9
1273.93
1275.93
1277.47
1278.48
1278.99
1279.55
1280.28
1280.98
1281.77
1282.19
1282.51
1283
1283.36
1283.66
1283.84
1284.68
1284.08
1283.56
1282.99
1282.31
1281.54
1281.11
1280.47
1279.95
1279.71
1279.62
1279.67
1279.86
1279.87
1279.67
1279.86
1280.24
1280.18
1280.2
1280.32
1279.21
1280.02
1280.29
1247.08
1248.75
1251.51
1254.29
1256.57
1258.18
1258.88
1259.51
1260.36
1261.21
1261.97
1262.54
1263.09
1263.51
1263.82
1264.28
1264.53
1264.62
1265.01
1263.83
1263.39
1262.64
1261.77
1261.08
1260.29
1259.78
1259.51
1259.43
1259.86
1260.01
1260.28
1260.06
1261.17
1261.92
1260.98
1260.81
1261.19
1260.58
1260.61
1260.61
1220.8
1223.87
1227.89
1231.48
1234.37
1236.44
1236.98
1237.99
1239.33
1240.55
1241.61
1242.44
1243.11
1243.62
1243.89
1244.26
1244.51
1244.43
1245.65
1244.39
1243.77
1243.08
1242.17
1240.83
1239.82
1238.96
1238.61
1238.68
1239.22
1239.99
1240.51
1241
1240.98
1240.94
1241.02
1240.93
1240.94
1240.96
1240.88
1240.87
1204.82
1205.19
1208.78
1211.94
1213.73
1216.85
1220.08
1217.07
1218.6
1220
1221.13
1222.06
1222.77
1223.36
1223.77
1224.07
1224.52
1224.7
1226.01
1224.43
1223.58
1222.71
1221.36
1219.76
1218.02
1217.25
1216.91
1216.01
1216.59
1217.74
1219.24
1220.36
1220.68
1220.75
1220.99
1221.44
1221.33
1221.02
1221.09
1221.17
1191.9
1192.5
1193.07
1195.78
1193.86
1196.33
1198.49
1197.41
1198.68
1199.93
1200.95
1201.82
1202.52
1203.07
1203.57
1203.87
1204.27
1204.68
1204.76
1204.16
1203.22
1202.1
1200.54
1199.28
1197.87
1197.01
1196.32
1196.44
1197.43
1196.92
1199.25
1200.5
1200.58
1201.26
1201.61
1202.17
1202.52
1202.11
1201.75
1201.8
1176.96
1178.22
1177.54
1181.24
1177
1178.33
1179.26
1179.63
1180.01
1180.72
1181.37
1181.98
1182.47
1182.87
1183.27
1183.46
1183.73
1184.02
1184.25
1183.96
1182.98
1181.99
1180.8
1179.91
1179.72
1178.77
1178.18
1178.19
1179.12
1178.45
1181.36
1181.78
1182.67
1181.33
1182.15
1182.82
1182.91
1183.56
1182.34
1182.29
1160
1160.61
1161.13
1162.75
1159.79
1162.28
1162.39
1162.05
1161.82
1161.9
1162.1
1162.34
1162.54
1162.87
1162.99
1162.99
1163.08
1163.09
1163.32
1163.23
1162.66
1162.36
1161.72
1161.25
1162.66
1162.08
1161.61
1161.55
1160.92
1162.15
1162.99
1162.65
1163.25
1162.63
1162.96
1163.22
1163.73
1162.98
1162.99
1162.99
1141.96
1142.54
1142.89
1143.09
1142.67
1143.48
1143.56
1143.11
1142.87
1142.8
1142.77
1142.78
1142.85
1142.9
1142.69
1142.57
1142.41
1142.09
1142.06
1145.04
1142.46
1142.81
1142.15
1142.18
1143.46
1142.54
1142.5
1142.78
1142.63
1142.81
1143.16
1143.37
1143.68
1143.4
1144.06
1143.74
1144.4
1143.64
1143.7
1143.85
1123.28
1123.54
1123.17
1123.15
1125.08
1125.42
1123.43
1123.5
1123.44
1123.33
1123.2
1123.09
1123.26
1122.91
1122.68
1122.33
1122.03
1121.55
1120.98
1124.78
1122.27
1121.75
1121.66
1121.62
1120.72
1121.77
1122.35
1122.87
1123.09
1123.28
1123.49
1123.45
1123.88
1123.75
1123.68
1123.98
1123.96
1124
1124.39
1124.8
1102.91
1103.5
1103.23
1103.21
1106.99
1104.13
1103.67
1103.81
1103.87
1103.81
1103.68
1103.5
1103.71
1103.14
1102.75
1102.29
1101.8
1101.55
1100.86
1100.95
1099.74
1099.8
1099.53
1099.29
1099.67
1100.77
1101.54
1102.34
1103.07
1103.54
1106.44
1105.16
1104.96
1105.02
1104.17
1104.21
1104.14
1103.75
1103.75
1104.09
1083.19
1083.66
1083.71
1083.89
1083.84
1083.99
1084.2
1084.33
1084.41
1084.33
1084.22
1084
1084.21
1083.48
1082.83
1082.12
1081.21
1080.55
1079.53
1080.27
1078.87
1078.52
1077.15
1076.17
1077.08
1078.91
1080.55
1082.11
1083.6
1084.83
1087.93
1086.21
1085.84
1086.09
1085.05
1084.38
1084.5
1083.8
1082.65
1083.42
1064
1064.28
1064.51
1064.59
1064.71
1064.87
1064.99
1065.03
1065.07
1064.96
1064.92
1064.74
1064.44
1063.92
1063.16
1062.05
1060.58
1059.76
1061.88
1062.55
1061.84
1059.01
1060.18
1059.79
1058.18
1059.57
1061.63
1063.25
1064.48
1065.68
1067.39
1066.71
1066.61
1066.53
1066.59
1066.58
1066.11
1065.18
1068.92
1066.75
1044.65
1045.06
1045.36
1045.48
1045.67
1045.83
1045.94
1046.03
1046.6
1046.64
1046.04
1045.89
1045.61
1045.13
1044.42
1043.35
1041.99
1042.76
1043.51
1044.18
1043.23
1042.9
1043.05
1043.12
1043.18
1043.47
1045.12
1046.55
1047.56
1048.56
1049.48
1048.26
1047.57
1048.43
1048.71
1048.57
1048.81
1049.09
1050.69
1048.99
1025.53
1025.99
1026.35
1026.52
1026.76
1026.95
1027.11
1027.39
1027.6
1027.7
1027.59
1027.45
1027.3
1027.05
1026.7
1026.19
1025.48
1026.93
1028.48
1029.42
1028.97
1028.58
1028.3
1028.13
1027.64
1027.73
1028.59
1029.83
1030.69
1031.3
1032.87
1031.96
1030.73
1032.22
1030.44
1032.12
1032
1032.11
1032.97
1034.86
1006.57
1007.14
1007.51
1007.75
1008.02
1008.25
1008.44
1008.68
1008.9
1009.01
1009.04
1009.06
1009.02
1009.06
1009.16
1009.36
1009.56
1010.83
1012.88
1014.22
1014.76
1014.4
1013.85
1012.33
1011.82
1011.58
1011.85
1012.11
1012.75
1012.83
1015.67
1013.61
1014.65
1014.2
1015.13
1015.56
1015.29
1015.41
1015.04
1015.56
987.798
988.341
988.709
989.032
989.3
989.561
989.819
990.009
990.163
990.301
990.444
990.49
990.49
990.713
991.049
991.552
992.206
993.363
994.738
995.513
995.925
995.366
994.701
994.339
994.147
993.637
993.835
993.842
994.279
994.716
995.297
995.825
994.443
995.484
994.622
995.934
995.817
995.433
995.49
995.868
969.306
969.794
970.195
970.522
970.777
970.97
971.097
971.238
971.408
971.375
971.885
971.92
971.644
971.885
972.297
972.772
973.349
974.123
974.933
975.504
975.717
975.576
975.441
975.265
975.02
974.875
975.011
975.033
975.039
975.526
975.577
977.637
976.391
976.135
976.074
976.066
976.245
976.595
976.577
976.791
950.951
951.41
951.798
952.118
952.351
952.515
952.606
952.612
952.598
952.452
952.758
953.037
952.587
952.852
953.111
953.464
953.918
954.385
954.855
955.218
955.389
955.5
955.537
955.518
955.496
955.552
955.819
955.864
955.804
956.136
956.275
956.822
957.294
956.684
956.905
957.096
957.318
957.562
957.78
957.958
932.542
932.879
933.155
933.394
933.548
933.603
933.6
933.504
933.497
933.492
933.247
933.336
933.454
933.689
933.918
934.167
934.367
934.585
934.801
935.031
935.236
935.385
935.5
935.63
935.752
935.875
936.308
936.351
936.382
936.63
936.84
936.977
937.084
937.267
937.572
937.927
938.302
938.695
938.994
939.185
913.972
914.05
914.122
914.164
914.131
914.106
914.036
914.073
914.277
913.701
913.644
913.656
913.791
914.05
914.413
914.586
914.726
914.826
914.843
914.921
915.085
915.27
915.486
915.699
915.902
916.125
916.347
916.604
916.812
917.056
917.283
917.458
917.659
917.886
918.225
918.724
919.241
919.799
920.183
920.408
894.695
894.555
894.453
894.266
894.014
894.587
894.786
894.406
894.019
893.926
893.675
893.552
893.653
893.834
894.184
894.373
894.583
894.76
894.689
894.679
894.784
894.999
895.296
895.64
895.963
896.266
896.569
896.876
897.175
897.471
897.754
897.999
898.266
899.142
898.984
899.638
900.263
900.958
901.417
901.646
874.991
875.082
874.81
874.748
875.128
875.331
875.074
874.525
874.098
873.485
872.877
872.638
872.871
873.121
873.336
873.652
873.883
873.989
873.795
873.976
874.326
874.746
875.151
875.613
876.058
876.43
876.823
877.177
877.526
877.871
878.248
878.704
879.287
879.849
880.342
880.746
881.376
882.129
882.528
882.692
856.333
856.412
856.361
856.23
855.924
855.856
855.589
854.722
853.45
852.384
851.875
852.456
852.292
852.727
853.012
853.379
853.446
853.749
852.511
852.87
853.707
854.512
855.229
855.886
856.418
856.878
857.247
857.57
857.953
858.359
858.795
859.439
860.032
860.623
861.294
861.75
862.397
863.024
863.356
863.385
837.538
837.376
837.466
837.499
837.428
837.224
836.87
836.046
835.75
836.285
836.462
836.447
836.016
834.62
834.897
834.486
835.238
835.815
834.696
833.249
833.989
834.998
835.904
836.627
837.113
837.401
837.616
837.878
838.242
838.786
839.318
840.053
840.755
841.313
841.905
842.283
843.309
843.634
843.711
843.627
818.458
818.476
818.516
818.616
818.727
818.786
818.691
818.433
818.384
818.602
819.226
819.842
819.707
819.157
818.949
818.817
818.877
818.926
818.015
815.631
815.954
816.495
817.083
817.671
817.726
817.647
817.638
817.892
818.328
818.843
819.353
820.03
821.032
821.169
821.788
822.579
823.354
823.665
823.257
823.036
799.317
799.268
799.321
799.542
799.942
800.399
800.733
800.981
801.708
802.207
802.218
801.871
801.319
801.01
801.092
802.018
802.127
800.117
798.73
797.36
796.936
797.082
797.414
797.595
797.442
797.302
797.326
797.609
798.047
798.626
799.271
799.714
800.032
800.305
800.587
801.444
802.02
801.794
801.72
801.629
779.834
779.987
780.151
780.482
780.925
781.39
781.877
782.439
783.035
783.819
784.472
784.543
784.063
782.602
781.169
780.261
779.844
779.327
778.2
777.032
776.017
777.937
777.318
776.746
776.799
776.84
776.988
777.468
778.155
778.767
779.281
779.429
779.505
779.017
778.123
781.027
779.247
779.42
779.557
780.078
760.25
760.268
760.569
760.66
761.097
761.681
761.861
762.271
762.596
762.843
763.172
762.539
761.777
760.689
760.109
759.682
759.291
758.819
758.02
757.092
756.937
759.208
759.859
757.72
757.149
757.259
757.726
758.601
759.202
759.423
759.331
759.372
759.246
758.811
758.7
761.011
761.013
759.757
759.424
759.767
740.075
739.269
739.687
740.158
740.645
741.119
741.307
741.276
740.77
739.971
738.828
737.069
736.137
736.889
737.244
738.13
738.449
738.38
737.951
738.421
739.384
739.954
740.304
739.429
739.429
739.364
740.182
740.51
740.601
740.567
740.349
740.227
739.827
739.598
740.106
740.891
741.083
740.585
741.32
740.577
721.174
721.369
719.374
719.679
720.18
720.629
720.806
720.56
719.719
718.451
716.987
714.653
717.086
718.214
716.555
717.815
718.57
718.75
718.908
719.869
722.218
721.903
721.964
722.018
721.224
720.878
722.09
722.64
722.271
721.729
721.49
721.495
721.281
722.08
722.572
723.047
723.321
723.13
722.78
722.734
704.186
703.913
700.395
700.613
700.985
700.972
700.681
700.198
699.704
698.923
697.974
696.218
696.905
697.352
697.9
698.499
699.021
699.39
699.785
700.189
700.995
702.237
702.249
701.633
704.312
702.285
703.195
703.314
703.194
703.024
703.008
703.211
703.356
704.179
705.002
705.603
705.727
705.234
704.954
705.253
687.342
686.795
684.537
684.039
683.183
682.154
681.077
679.733
678.935
678.49
679.025
678.996
678.552
679.198
679.782
678.795
679.268
680.29
679.327
680.367
682.458
682.199
682.473
682.103
682.18
682.759
683.789
684.238
684.217
684.197
684.336
684.69
684.976
686.151
688.319
688.948
686.736
685.963
685.849
686.219
670.572
670.922
669.629
667.473
665.833
664.329
662.062
659.591
658.615
658.362
657.809
659.3
659.846
659.805
661.618
661.956
660.218
660.324
662.648
662.986
665.494
663.754
665.197
664.615
664.5
664.552
664.363
664.686
664.594
664.623
665.136
665.542
665.674
665.906
668.147
666.89
666.264
666.277
666.011
666.072
653.832
654.186
652.886
654.06
651.996
646.821
643.977
640.805
637.838
636.898
637.106
637.229
637.165
639.796
640.234
643.106
643.734
643.349
645.394
646.23
645.888
650.2
647.146
647.082
647.288
647.32
647.46
647.469
647.011
645.34
645.805
646.535
646.763
646.916
646.774
646.837
646.716
646.553
645.968
647.469
636.082
637.615
638.969
636.368
632.182
629.015
625.493
622.308
619.966
618.076
616.923
615.727
616.315
618.341
619.794
621.678
624.197
625.395
627.584
630.583
627.835
630.822
630.608
629.78
630.357
630.363
630.234
630.082
629.894
627.833
627.463
627.838
627.844
627.708
627.438
627.249
626.98
626.945
627.978
628.344
619.697
619.39
618.28
616.947
613.982
610.635
606.567
602.181
598.667
595.518
595.782
596.179
597.07
598.74
600.402
602.439
604.976
606.81
608.107
609.105
609.929
610.845
611.36
611.422
611.336
611.889
613.242
611.628
610.301
609.815
608.949
608.781
608.524
608.145
607.734
607.278
607.057
607.263
607.98
608.291
601.569
601.488
600.308
597.937
594.87
590.831
584.813
578.287
572.713
570.511
572.184
575.781
578.242
579.992
581.787
584.327
586.988
589.282
591.032
592.047
592.033
592.268
591.822
592.154
591.919
591.876
591.299
591.161
591.02
590.568
589.994
589.541
589.054
588.493
587.872
587.259
586.956
586.934
587.387
587.676
584.683
582.873
580.757
578.527
575.815
571.808
564.093
554.049
550.797
553.499
554.909
556.588
559.34
561.938
564.382
566.89
569.455
571.769
574.009
575.499
576.768
576.06
574.597
573.447
572.448
571.697
571.88
571.593
571.305
571.377
571.256
570.01
569.473
568.811
567.982
566.807
565.662
565.719
566.218
566.285
567.323
564.949
562.312
560.2
557.282
554.226
548.417
541.172
540.881
542.274
543.52
543.97
543.624
547.077
548.232
550.014
552.085
554.302
556.323
557.817
556.619
554.73
552.227
551.333
551.203
551.042
550.626
551.5
551.211
552.905
553.008
551.342
550.504
549.732
548.609
546.66
545.549
548.555
546.42
547.033
550.148
546.874
544.218
541.532
538.943
535.629
534.251
533.989
532.141
535.634
535.456
535.616
534.226
532.586
530.847
533.77
534.607
537.913
535.554
534.883
532.646
529.111
527.494
527.274
528.044
529.747
530.662
531.66
531.137
534.061
534.048
533.847
532.969
531.603
530.629
528.567
529.263
530.21
529.138
530.22
531.247
529.154
526.42
524.801
525.752
522.705
521.357
523.478
525.428
524.793
526.077
527.224
526.573
526.095
526.05
525.238
520.463
516.303
517.539
517.398
515.531
512.379
510.398
509.637
509.832
510.237
511.142
511.865
514.002
514.387
515.739
515.429
515.335
516.902
516.307
514.637
511.382
511.241
515.407
517.222
514.444
513.67
514.785
516.071
515.626
514.764
513.862
512.039
514.242
516.768
518.024
515.798
515.93
517.365
516.638
515.969
513.489
504.798
505.671
503.523
501.713
499.68
497.711
496.74
496.538
496.514
496.156
496.517
497.335
498.396
497.024
498.804
498.442
497.506
501.42
495.726
496.35
498.158
502.331
501.542
501.319
504.887
506.822
506.259
505.844
504.625
503.416
503.123
502.679
496.572
500.208
500.558
502.082
504.504
501.458
497.842
497.41
494.357
489.966
489.118
488.904
487.584
485.611
484.886
483.694
483.853
483.473
483.321
483.292
483.133
480.956
481.991
479.664
480.316
481.8
481.625
484.425
481.987
483.038
483.113
486.352
488.805
493.065
495.197
494.722
492.999
491.334
489.688
488.471
488.772
487.231
479.406
484.526
484.097
482.821
483.315
482.6
487.382
480.829
475.864
474.47
475.355
473.645
472.082
471.047
470.533
469.598
469.351
468.825
467.372
465.019
463.101
463.039
463.147
463.057
465.094
468.175
466.516
465.99
467.125
470.762
473.059
473.72
473.391
474.113
472.596
470.502
468.403
465.782
463.106
462.163
460.81
463.178
461.456
462.763
468.025
468.699
466.099
462.809
465.631
467.358
467.263
464.263
460.938
460.667
462.453
462.942
458.503
456.389
452.742
449.916
448.897
448.27
446.125
445.958
451.8
457.167
453.901
455.694
455.973
449.291
450.366
450.605
450.408
449.805
448.245
445.998
444.01
441.897
440.219
439.809
438.815
437.444
435.827
431.531
434.716
435.486
439.283
444.757
446.007
450.302
453.587
452.924
453.189
453.046
448.561
448.76
445.164
446.799
444.217
438.584
430.924
431.961
432.445
431.822
436.184
439.596
443.905
445.989
450.318
421.351
420.344
419.042
420.01
420.521
419.057
418.26
418.038
417.698
417.674
418.11
418.287
418.22
417.422
415.13
422.475
423.206
415.515
419.129
421.47
424.278
427.489
431.71
437.558
437.585
428.727
431.049
429.503
427.548
427.634
426.8
422.929
421.585
424.869
425.865
431.748
432.559
434.506
436.253
437.326
383.266
397.017
385.89
383.602
388.438
389.839
392.259
392.048
393.566
394.978
395.978
396.595
397.143
398.485
401.336
404.02
404.346
401.626
396.114
399.447
402.843
404.11
403.785
405.042
405.27
403.863
404.794
405.258
405.076
405.036
404.681
409.239
408.815
418.962
416.376
420.038
421.766
422.92
424.834
426.26
347.509
347.38
349.77
350.503
353.99
360.313
365.205
368.816
371.884
374.266
375.632
376.519
378.385
381.707
386.823
388.638
388.761
384.947
379.676
378.152
377.679
378.074
379.317
381.455
381.136
380.868
380.641
380.927
381.422
382.429
383.946
387.213
389.919
397.063
400.218
405.756
408.762
410.012
412.836
412.874
306.167
297.866
307.095
316.937
325.487
333.288
341.696
346.714
350.908
354.085
356.335
359.385
362.166
366.311
368.027
370.31
372.903
370.617
367.207
364.296
361.638
360.806
359.92
358.474
357.96
356.923
356.471
356.687
358.107
360.346
363.455
367.101
370.878
377.11
383.792
389.531
393.898
397.205
401.125
403.686
254.545
256
268.382
287.537
303.361
312.515
320.938
325.687
330.217
333.494
336.513
344.183
347.526
347.838
353.469
358.637
357.365
354.233
349.705
346.575
347.72
344.331
344.862
344.377
342.295
339.363
338.032
335.933
333.434
336.579
341.058
346.556
353.797
359.808
364.602
369.397
372.404
380.169
387.369
391.919
219.099
231.28
249.686
270.789
287.819
296.545
303.674
308.069
310.084
311.782
314.911
328.844
333.145
331.426
337.932
339.559
341.422
340.376
334.585
341.771
342.188
336.063
330.32
327.831
323.853
318.156
311.65
306.087
304.595
312.569
323.114
331.971
337.177
342.045
345.437
349.656
351.148
371.391
374.287
383.857
211.074
228.81
246.998
263.05
275.56
285.167
289.917
290.398
290.656
289.778
290.358
295.306
306.544
317.171
319.639
331.166
334.733
325.539
329.178
327.195
328.989
327.024
320.238
314.395
309.849
304.075
297.605
296.599
304.343
309.963
312.097
318.863
326.645
326.281
332.448
340.787
348.316
357.354
363.096
367.769
223.645
234.275
244.693
259.202
270.612
275.303
276.896
276.673
275.226
273.621
273.661
279.078
284.26
292.274
301.737
308.002
308.135
309.909
317.108
311.636
321.883
309.077
304.06
301.622
298.795
298.332
300.647
300.719
302.45
304.756
306.843
308.448
310.254
314.936
322.787
329.269
334.863
346.323
350.529
348.717
227.702
235.982
247.569
257.591
262.792
265.405
266.893
266.75
268.086
269.016
269.509
271.574
275.849
281.37
285.281
287.054
291.704
295.657
298.225
298.445
298.819
298.224
295.352
293.161
292.765
296.589
298.907
300.13
301.535
302.849
304.645
306.19
308.308
311.869
315.89
318.619
319.531
327.312
330.23
329.069
232.052
237.462
244.772
250.113
253.658
257.271
260.308
263.337
272.781
273.302
274.758
277.287
279.117
279.826
279.175
278.187
281.066
285.639
288.989
290.44
290.923
290.327
289.051
288.727
289.115
292.75
297.387
298.264
299.49
300.53
301.742
302.747
304.209
305.763
304.219
304.99
305.183
308.221
309.784
310.896
229.559
232.649
237.845
242.944
247.04
251.819
257.066
263.796
272.876
274.735
276.949
279.604
280.881
280.803
279.79
278.548
278.413
280.042
282.026
283.046
283.218
283.249
283.663
284.199
285.94
287.933
289.184
292.72
296.059
297.065
295.413
293.854
293.189
293.854
296.037
296.998
296.741
296.045
294.608
296.54
226.653
227.473
231.043
235.785
240.554
246.743
254.254
261.966
271.142
277.705
280.883
282.133
281.769
280.565
278.768
277
275.328
273.225
273.895
274.88
275.534
275.978
277.174
276.494
277.315
278.501
278.49
278.743
279.443
280.767
280.746
279.861
278.074
276.595
275.597
276.994
277.922
278.122
277.031
275.558
222.174
223.827
221.403
223.429
230.696
238.87
248.581
258.371
267.739
274.532
279.68
281.706
281.277
279.998
277.444
273.982
270.905
266.068
266.716
267.145
266.409
267.663
264.833
264.91
265.567
266.301
267.011
268.224
269.571
270.601
268.815
263.552
259.836
257.146
253.682
250.526
253.311
257.962
253.163
252.324
219.946
216.446
213.148
213.618
219.462
228.901
240.064
251.265
261.437
270.167
275.738
275.376
276.605
275.936
273.418
270.819
262.082
258.007
256.967
254.929
255.726
254.726
252.862
251.164
250.998
251.512
251.512
251.965
252.951
253.52
251.331
249.659
246.608
243.442
239.253
236.941
243.626
242.023
241.847
250.798
213.366
207.563
203.256
204.06
207.881
215.884
228.098
241.255
253.249
264.592
272.725
274.511
271.448
266.594
262.54
257.183
252.191
248.278
245.063
242
239.435
237.053
234.935
234.256
234.422
234.855
235.891
236.401
235.918
237.441
235.424
235.132
233.497
231.312
228.646
226.926
232.155
233.377
233.928
239.341
202.534
196.959
190.407
189.418
190.933
196.989
209.363
225.62
241.503
255.191
269.884
276.33
271.189
264.212
256.667
249.516
242.384
236.269
231.59
227.326
223.155
219.766
217.338
215.657
215.211
214.907
214.939
215.503
216.409
217.501
219.092
219.876
220.07
219.44
217.881
216.569
220.49
224.965
225.517
229.877
182.025
181.561
177.08
170.124
171.166
173.039
183.625
203.252
224.894
245.56
264.045
271.537
266.727
258.123
248.385
237.865
230.625
223.911
215.006
209.206
203.447
198.117
193.451
190.372
189.476
190.52
192.065
193.957
196.074
198.644
202.363
205.148
206.951
208.037
208.488
208.703
213.438
214.597
215.45
222.367
170.776
168.625