/*--------------------------------*- C++ -*----------------------------------*\
  =========                 |
  \\      /  F ield         | OpenFOAM: The Open Source CFD Toolbox
   \\    /   O peration     | Website:  https://openfoam.org
    \\  /    A nd           | Version:  8
     \\/     M anipulation  |
\*---------------------------------------------------------------------------*/
FoamFile
{
    version     2.0;
    format      ascii;
    class       volScalarField;
    location    "6.6";
    object      p_rgh;
}
// * * * * * * * * * * * * * * * * * * * * * * * * * * * * * * * * * * * * * //

dimensions      [1 -1 -2 0 0 0 0];

internalField   nonuniform List<scalar> 
9150
(
1963.19
1962.19
1961.56
1961.09
1960.85
1960.86
1961.1
1961.57
1962.19
1963.19
1962.76
1962.24
1961.82
1961.5
1961.33
1961.32
1961.5
1961.83
1962.25
1962.76
1962.49
1962.2
1961.95
1961.73
1961.62
1961.62
1961.73
1961.95
1962.21
1962.49
1962.37
1962.19
1962.02
1961.86
1961.78
1961.79
1961.87
1962.03
1962.19
1962.37
1962.37
1962.18
1962.05
1961.92
1961.86
1961.86
1961.92
1962.05
1962.19
1962.37
1951.41
1950.6
1950.88
1951.28
1951.45
1951.44
1951.26
1950.85
1950.57
1951.39
1955.46
1954.75
1954.59
1954.51
1954.61
1954.61
1954.53
1954.59
1954.76
1955.47
1958.56
1957.81
1957.51
1957.15
1957.1
1957.11
1957.17
1957.53
1957.84
1958.58
1961.31
1960.17
1959.71
1959.09
1958.9
1958.91
1959.06
1959.69
1960.16
1961.3
1963.89
1961.83
1961.08
1960.37
1960.1
1960.1
1960.37
1961.07
1961.83
1963.89
1946.61
1945.28
1943.27
1942.24
1941.81
1941.89
1942.51
1943.63
1945.39
1946.83
1945.95
1945.72
1944.74
1944.38
1943.91
1943.9
1944.34
1944.67
1945.69
1945.95
1945.49
1945.61
1944.56
1944.9
1944.48
1944.52
1945
1944.57
1945.6
1945.48
1942.29
1945.1
1944.11
1945.65
1945.43
1945.42
1945.54
1944.06
1945.06
1942.23
1936.17
1945.75
1946.21
1947.63
1948.01
1948
1947.6
1946.2
1945.73
1936.13
1283.49
1284.9
1286.04
1286.82
1286.36
1285.8
1284.85
1283.42
1281.77
1280.5
1281.37
1281.82
1282.82
1283.25
1283.49
1283.91
1283.55
1282.27
1279.63
1276.9
1278.09
1278.91
1279.79
1280.45
1280.57
1279.87
1278.2
1276.67
1272.93
1268.94
1275.87
1277.72
1278.29
1277.73
1277.3
1277.5
1277.96
1268.36
1263.2
1261.03
1275.85
1276.65
1276.72
1276.39
1275.99
1270.25
1260.41
1259.17
1260.06
1260.52
1274.49
1275.37
1273.57
1260.47
1254.89
1255.72
1256.92
1258.21
1259.29
1260.35
1274.42
1268.84
1253.07
1253.41
1254.18
1254.99
1256.09
1257.13
1258.14
1258.87
1274.75
1273.28
1251.13
1251.65
1252.51
1253.49
1254.82
1255.73
1256.65
1257.29
1274.53
1276.73
1274.16
1268.67
1269.08
1258.37
1253.77
1259.19
1272.77
1277.92
1273.8
1276.17
1278.63
1280.8
1282.84
1282.93
1282.13
1285.88
1287.01
1281.55
1272.81
1274.9
1277.07
1279.5
1282.03
1283.85
1285.23
1286.43
1285.15
1284.96
1272.14
1274.55
1276.87
1279.67
1281.74
1283.47
1283.07
1282.73
1285.23
1288.48
1274.18
1276.54
1278.73
1280.77
1282.52
1280.66
1281.13
1282.87
1287.76
1288.67
1276.89
1278.59
1280.18
1281.34
1278.66
1280.26
1281.7
1287.13
1288.44
1289.08
1278.42
1279.21
1277.22
1278.27
1279.22
1282.73
1287.04
1288.33
1289.07
1289.69
1274.65
1275.97
1277.28
1279.83
1283.97
1286.36
1287.54
1287.38
1289.74
1290.43
1280.4
1282.27
1284.08
1286.36
1287.38
1287.16
1286.51
1287.37
1288.41
1290.95
1285.13
1286.27
1287.29
1288.2
1286.48
1286.9
1287.78
1288.6
1289.29
1290.38
1287.12
1287.96
1288.75
1288.62
1287.36
1288.34
1289.23
1289.99
1290.57
1292.77
1288.65
1289.52
1290.38
1291.28
1289.3
1289.88
1290.78
1292.99
1294.06
1295.39
1290.17
1291.03
1291.67
1292.3
1291.42
1293.64
1295.05
1295.83
1295.96
1295.87
1287.13
1286.31
1286.88
1285.06
1289.5
1293.96
1295.03
1295.19
1295.41
1291.23
1284.96
1285.67
1286.08
1285.92
1289.97
1295.34
1295.71
1285.36
1283.59
1283.71
1287.91
1288.99
1294.23
1296.04
1297.03
1296.63
1286.55
1283.82
1283.82
1283.91
1296.6
1296.88
1297.12
1297.29
1297.34
1297.28
1288.42
1284.74
1295.26
1295.59
1297.32
1297.67
1297.84
1297.94
1297.96
1297.53
1297.41
1297.43
1297.9
1298
1298.73
1298.98
1299.04
1299
1298.88
1298.69
1298.52
1298.37
1298.25
1298.15
1300.45
1300.71
1300.49
1300.05
1299.63
1299.2
1298.82
1298.53
1298.32
1298.19
1296.57
1297.1
1294.93
1294.43
1293.67
1298.16
1299.88
1299.3
1298.82
1298.45
1303.78
1303.85
1303.55
1302.65
1294.46
1293.52
1292.52
1296.55
1299.53
1298.83
1304.25
1304.38
1304.08
1303.58
1302.85
1301.93
1301.18
1300.76
1300.66
1277.67
1306.32
1305.89
1305.37
1304.7
1295.59
1283.13
1277.72
1244
1241.31
1240.79
1308.92
1308.28
1307.66
1304.79
1267.7
1265.53
1272.95
1249.58
1241.92
1241.97
1311.65
1310.86
1310.06
1309.16
1302.57
1297.65
1302.92
1303.01
1298.65
1293.37
1314.21
1309.87
1307.38
1305.99
1303.69
1300.35
1298.19
1286.3
1274.27
1271.09
1303.7
1303.39
1290.54
1265.75
1244.61
1227.7
1205.13
1196.65
1198.13
1199.03
1307.98
1290.42
1219.6
1196.23
1194.69
1194.41
1195.27
1197.01
1198.52
1199.71
1304.24
1205.14
1199.31
1197.87
1197.68
1198.44
1199.68
1208.41
1293.52
1317
1314.09
1233.52
1202.05
1201.97
1206.24
1308.8
1323.19
1322.41
1321.05
1316.36
1313.41
1315.43
1290.04
1223.63
1285.32
1322.18
1323.83
1323.41
1308.44
1298.84
1296.71
1305.45
1309.02
1312.55
1315.88
1319.05
1311.98
1302.53
1301.62
1299.84
1265.52
1303.57
1307.1
1308.42
1307.67
1316.14
1320.89
1322.7
1323.48
1323.65
1305.92
1305.82
1297.34
1299.47
1302.81
1306
1319.24
1323.32
1325.58
1327.85
1308.15
1308.52
1309.34
1310.59
1312.44
1313.38
1303.69
1318.27
1327.53
1331.22
1300.34
1312.27
1311.94
1311.93
1312.73
1313.8
1302.89
1318.81
1329.06
1334.01
1300.05
1278.98
1251.69
1273.29
1299.77
1301.2
1299.71
1318.93
1326.41
1329.2
1182.09
1129.02
1125.61
1120.23
1139.62
1161.86
1217.04
1300.71
1309.81
1299.13
1136.71
1132.78
1129.1
1122.66
1115.62
1110.21
1122.86
1144.37
1119.39
1255.7
1271.95
1224.94
1177.87
1152.86
1154.12
1210.52
1212.87
1050.44
1036.1
1166.62
1284.12
1286.14
1265.6
1167.21
1195.03
1194.53
1189.04
1020.15
1009.97
1118.22
1222.54
1253.46
1021.53
970.739
984.725
1095.46
1002.59
978.072
991.986
1085.5
1103.02
1223.43
944.51
943.559
962.587
957.145
949.692
966.706
892.699
862.942
1094.79
1221.36
984.479
946.783
1097.14
1086.66
1075.81
948.184
735.748
738.929
1188.09
1226.09
1043.47
963.438
1108.52
1103.9
1020.46
753.073
755.491
762.834
1198.18
1224.5
957.739
947.591
1129.4
1125.32
947.935
780.436
780.864
784.067
1152.6
1191.58
938.589
940.833
1111.08
1143.77
1114.36
805.658
806.781
966.331
1085.01
1213.31
950.346
952.831
953.511
1164.55
1252.07
1137.43
880.846
1271.5
1011.65
1298.73
965.928
967.725
966.72
980.05
1278.9
1281.07
1280.47
1269.03
956.028
1335.47
1105.23
974.41
975.611
978.477
1060.54
1298.56
1298.65
1292.66
955.257
1330.89
1300.88
1001.52
980.365
987.209
990.34
1014.91
1291.68
1068.05
972.108
1327.13
1365.27
1353.97
1148.98
1033.04
989.295
987.852
988.203
986.333
1169.91
1326.51
1369.5
1375.98
1383.18
1389.09
1260.7
1148.09
1112.23
1011.91
1324.61
1354.88
1373.36
1379.7
1385.59
1391.72
1397.24
1402.11
1405.95
1405.19
720.45
1220.86
1375.13
1385.06
1390.87
1395.86
1400.06
1403.6
1406.92
1409.1
345.337
611.844
1310.7
1392.15
1397.58
1401.81
1405.2
1407.75
1409.95
1404.58
345.923
490.777
1258.24
1403.85
1408.31
1410.7
1412.02
1412.78
1414.06
1348.1
347.306
925.641
1408.56
1419.14
1420.49
1421.04
1420.76
1419.48
1417.02
1364.84
884.19
1420.89
1433.41
1433.49
1432.03
1430.23
1379.66
1297.96
1373.22
1344.4
1399.12
1449.78
1448.3
1445.03
1441.36
1353.13
1179.79
1176.41
1324.02
1202.6
1466.09
1462.17
1457.21
1452.04
1356.69
1165.77
1167.49
1228.76
1217.25
447.791
1473.61
1469.13
1464.33
1442.7
866.977
1121.39
1253.28
1224.45
811.924
135.261
1484.35
1461.95
1375.92
1349.1
775.867
1237.82
1261.15
1234.43
335.592
76.6197
1400.85
1341.65
1300.01
1260.01
731.878
1317.36
1294.78
705.536
58.607
46.4153
698.947
519.164
517.125
489.107
670.202
1429.33
1314.6
221.171
22.5038
42.8934
451.157
450.224
452.232
482.266
1133.19
1458.53
983.707
51.7009
20.2381
30.2279
454.274
449.97
1104.49
767.954
1294.13
1468.29
753.172
13.1815
11.7037
9.66558
1290.21
1036.6
1319.1
570.137
1363.64
1484.07
555.445
2.23562
8.50903
0.445693
1512.92
1517
1241.85
560.791
1406.85
1499.06
458.215
1.22136
2.31156
0.140824
1513.72
1352.05
519.18
539.753
1432.81
1512.58
414.536
0.0468007
0.0656944
0.056023
1422
895.28
430.654
455.551
1441.01
1523.74
353.15
0.0246501
0.0356753
0.0319708
441.979
413.702
423.175
386.35
1485.02
1527.64
339.975
0.0115516
0.010533
0.00805882
0.262517
134.321
331.883
365.103
1521.18
1542.61
346.38
-0.0104405
-0.0120829
-0.0130749
0.173868
40.2064
0.445843
406.256
1581.87
1564.87
414.433
-0.0249747
-0.027819
-0.0292306
0.25917
7.23184
0.284748
530.021
1615.46
1613.68
532.304
-0.043658
-0.0437498
-0.0448257
1.22487
0.190501
0.181382
598.502
1642.44
1639.44
596.519
-0.0597233
-0.0596418
-0.0608675
0.27716
0.202281
0.180325
639.836
1665.71
1661.77
633.519
-0.0775503
-0.078435
-0.0783462
0.423047
0.382436
0.218855
669.07
1680.61
1694.19
670.987
-0.113141
-0.103816
-0.0975086
0.518914
0.527501
0.244888
707.91
1701.13
1719.77
725.813
-0.128146
-0.117144
-0.108057
0.514173
0.460981
0.23752
816.648
1729.08
1744.28
884.354
-0.127928
-0.113264
-0.105441
0.485766
0.185287
0.173034
986.88
1751.69
1764.89
1075.98
-0.111417
-0.0971212
-0.0925621
0.41745
0.105348
0.112053
1183.36
1775.39
1783.25
1197.32
-0.0935662
-0.083169
-0.0772654
0.171817
0.0727588
0.0678124
1373.9
1802
1795.03
1331.14
-0.045684
-0.0677278
-0.0602517
0.0459938
0.0477841
48.5158
1478.46
1819.13
1816.13
1477.09
54.7831
-0.0540653
-0.0555317
0.037476
0.0378096
113.669
1508.4
1834.55
1836.01
1681.5
270.716
-0.0471231
-0.0458064
0.0342981
0.0336874
325.84
1727.37
1853.66
1854.97
1768.53
455.819
-0.0423916
-0.0392447
0.0286033
0.0242938
666.94
1831.56
1872.97
1873.72
1855.47
838.001
-0.0304551
-0.0295277
0.0220238
0.0419481
1214.78
1891.49
1892.23
1892.38
1891.5
1275.39
-0.00986815
-0.0230314
0.0183201
142.569
1685.34
1910.7
1911.28
1910.72
1909.47
1667.61
196
-0.0158086
0.0134087
1052.85
1924.07
1926.63
1926.79
1927.01
1927.36
1927.14
1132.51
-0.00645602
636.395
1883.87
1939.5
1937.67
1936.86
1936.77
1937.29
1939.04
1865.38
609.525
1280.4
1281.67
1283.7
1285.7
1287.25
1288.26
1288.78
1289.33
1290.06
1290.71
1291.45
1291.87
1292.25
1292.74
1293.1
1293.4
1293.57
1294.25
1293.67
1293.32
1292.75
1292.08
1291.28
1290.8
1290.16
1289.71
1289.48
1289.39
1289.43
1289.63
1289.63
1289.4
1288.94
1289.19
1289.14
1289.15
1289.27
1288.42
1289.45
1289.47
1276.38
1278.09
1280.85
1283.63
1285.9
1287.52
1288.22
1288.85
1289.7
1290.55
1291.26
1291.58
1292.13
1292.55
1293.1
1293.61
1293.84
1293.68
1293.64
1292.82
1292.68
1291.85
1290.85
1290.15
1289.41
1289.09
1288.82
1288.7
1288.92
1289.22
1289.57
1289.17
1288.44
1288.78
1288.25
1289.71
1290.44
1289.6
1288.92
1288.82
1269.52
1272.77
1276.79
1280.38
1283.24
1284.65
1285.36
1286.82
1288.23
1289.45
1290.52
1291.07
1291.51
1292.01
1292.4
1293.14
1293.4
1293.28
1293.35
1292.62
1292.59
1291.91
1290.64
1289.69
1288.67
1287.81
1287.39
1287.12
1287.4
1288.17
1288.88
1289.53
1289.6
1289.66
1289.83
1289.75
1289.75
1289.78
1289.7
1289.68
1260.03
1271.04
1277.23
1280.4
1282.18
1279.42
1280.76
1284.1
1287.06
1288.46
1289.6
1290.53
1290.58
1291.11
1291.52
1292.33
1292.97
1293.15
1292.8
1292.34
1291.95
1291.13
1289.78
1288.17
1286.14
1282.31
1280.72
1281.91
1283.49
1285.75
1287.26
1288.38
1288.72
1288.73
1288.56
1288.16
1288.13
1289.15
1289.43
1289.51
1260.79
1264.25
1279.71
1283.79
1277.09
1274.35
1276.51
1279.87
1286.7
1287.96
1288.98
1289.85
1290.07
1290.17
1290.67
1291.2
1292.26
1292.69
1292.36
1292.13
1291.23
1290.08
1288.5
1286.27
1280.11
1273.86
1273.16
1273.29
1274.28
1281.35
1286.7
1287.62
1287.74
1289.04
1289.42
1287.3
1287.21
1287.24
1289.48
1289.64
1261.16
1262.43
1278.98
1288.12
1273.02
1273.68
1274.61
1279.35
1287.54
1288.31
1288.96
1289.57
1289.55
1289.34
1289.73
1290.12
1291.29
1291.59
1291.81
1291.52
1290.54
1289.42
1288.23
1286.6
1273.68
1272.7
1272.11
1272.11
1273.04
1278.53
1287.97
1284.45
1284.82
1287.66
1289.48
1290.15
1287.42
1287.58
1289.18
1289.22
1259.52
1271.27
1288.11
1289.72
1275.76
1274.97
1275.07
1280.32
1288.92
1289.06
1289.25
1289.5
1288.73
1288.69
1288.81
1289.64
1290.2
1290.22
1290.45
1290.35
1289.12
1289.31
1288.71
1286.51
1273.66
1273.08
1272.61
1272.55
1281.35
1289.15
1289.96
1283.22
1283.81
1284.04
1289.69
1290.02
1287.1
1288.49
1289.97
1289.59
1273.29
1289.16
1289.54
1289.45
1273.98
1273.5
1273.58
1284.14
1289.58
1289.52
1289.48
1289.27
1288.03
1288.09
1288.58
1289.25
1289.09
1288.79
1288.75
1283.22
1284.95
1289.34
1288.69
1282.23
1278.88
1279.96
1285.54
1289.32
1289.17
1289.35
1289.67
1282.72
1282.79
1283.26
1289.93
1288.04
1286.76
1289.37
1290.22
1290.37
1287.4
1289.75
1289.39
1285.8
1272.5
1272.82
1280.02
1289.66
1289.72
1289.6
1289.48
1288.49
1287.82
1287.9
1288.88
1288.57
1288.28
1287.8
1286.98
1280.16
1282.06
1287.82
1287.73
1282.04
1286.07
1287.85
1288.43
1288.95
1289.16
1289.36
1285.33
1285.32
1283.53
1287.64
1288
1287.13
1288.12
1290.05
1290.44
1290.85
1285.9
1289.26
1289
1285.9
1275.25
1280.36
1289.31
1289.64
1289.71
1289.65
1289.52
1288.73
1287.66
1287.8
1288.56
1288.01
1287.61
1287.37
1286.68
1279.2
1281.97
1285.41
1285.14
1284.9
1285.28
1286.38
1287.16
1287.95
1288.68
1289.16
1283.59
1288.48
1287.9
1286.28
1287.45
1289.8
1289.72
1289.33
1289.33
1289.67
1288.02
1288.97
1288.98
1287.78
1287.91
1289.3
1289.6
1289.73
1289.81
1289.73
1289.62
1289.4
1287.54
1287.67
1288.23
1287.52
1286.6
1285.94
1284.16
1274.4
1282.27
1283.64
1275.34
1276.85
1282.24
1284.06
1285.7
1287.26
1288.75
1288.01
1283.09
1288.81
1287.76
1286.43
1286.81
1289.5
1289.63
1288.29
1283.23
1286.86
1288.97
1288.97
1288.98
1289.55
1289.68
1289.83
1289.95
1289.99
1289.44
1289.92
1289.88
1289.7
1288.75
1288.22
1288.12
1287.01
1283.41
1275.37
1257.79
1254.7
1278.43
1263.08
1252.27
1251.86
1266.03
1284.25
1286.32
1287.94
1289.18
1282.87
1281.07
1290.03
1289.93
1288.56
1288.34
1291.23
1290.77
1285.49
1270.27
1284.45
1289.17
1289
1289.22
1290
1290.2
1290.36
1290.47
1289.81
1285.83
1285.71
1288.84
1290.41
1290.12
1289.65
1288.94
1287.87
1277.96
1252.04
1252.36
1252.99
1252.07
1251.67
1251.81
1251.88
1256.46
1285.72
1289.35
1290.79
1291.8
1273.93
1274.43
1276.75
1284.86
1289.92
1290.21
1288.3
1288.33
1270.43
1269.52
1284.32
1289.61
1289.36
1289.72
1290.44
1290.85
1291.04
1291.2
1286.58
1285.78
1285.87
1285.76
1290.53
1291.38
1291.13
1290.78
1290.19
1283.68
1257.19
1254.01
1254.93
1254.44
1254.04
1253.76
1253.59
1274.32
1290.56
1290.79
1293.62
1294.5
1281.01
1275.79
1274.89
1283.94
1293.04
1276.98
1268.45
1268.33
1268.44
1269.29
1295.29
1290.22
1290.03
1290.47
1291.39
1291.67
1291.9
1292.09
1288.94
1286.2
1286.31
1286.34
1287.1
1292.49
1292.71
1292.81
1292.87
1292.79
1286.84
1270.81
1261.85
1256.94
1256.58
1256.16
1281.73
1295.25
1294.44
1292.45
1293.03
1296.15
1296.31
1277.07
1283.51
1293.4
1292.97
1269.06
1269.43
1269.12
1269.24
1291.33
1299.04
1291.01
1291.2
1291.92
1292.24
1292.51
1292.77
1293.03
1293.22
1289.4
1286.72
1286.87
1286.91
1292
1293.92
1294.25
1294.76
1295.41
1296.56
1297.24
1295.43
1287.02
1285.25
1291.58
1297.33
1297.19
1295.22
1293.73
1293.73
1296.41
1297.76
1285.55
1283.94
1291.01
1298.48
1292.2
1278.99
1281.04
1296.09
1298.54
1298.9
1292.08
1292.57
1292.97
1293.3
1293.54
1293.73
1293.87
1294.01
1294.18
1290.6
1287.43
1287.48
1291.55
1294.65
1295.06
1295.54
1296.11
1296.89
1297.7
1298.27
1298.37
1298.18
1298.03
1297.86
1297.61
1294.85
1294.25
1294.27
1295.28
1298.16
1298.22
1284.34
1290.18
1298.78
1298.78
1298.55
1298.95
1299.2
1299.18
1299.04
1293.29
1293.75
1294.13
1294.45
1294.68
1294.85
1294.94
1294.95
1294.93
1294.62
1289.12
1288.82
1293.66
1295.18
1295.44
1295.79
1296.25
1296.71
1297.18
1297.54
1297.26
1297.64
1297.68
1297.66
1297.64
1295.36
1294.41
1294.45
1296.69
1298.34
1298.48
1293.88
1292.83
1298.03
1299.18
1299.37
1299.6
1299.83
1299.59
1299.73
1294.44
1294.78
1295.05
1295.29
1295.45
1295.5
1295.5
1295.4
1291.51
1291.27
1293.88
1295.13
1295.34
1295.58
1295.81
1296.05
1296.24
1296.47
1296.69
1296.22
1296.27
1296.41
1296.88
1297.32
1297.45
1297.56
1295.11
1295.9
1298.14
1298.39
1298.6
1298.74
1298.73
1299.03
1299.39
1299.76
1300.14
1300.53
1300.42
1300.49
1295.43
1295.51
1295.58
1295.62
1295.59
1295.57
1295.03
1290.27
1289.99
1292.13
1295.09
1295.11
1295.24
1295.5
1295.85
1296.02
1296.17
1296.28
1296.29
1296.3
1295.63
1295.81
1296.03
1296.24
1297.15
1297.39
1297.62
1297.41
1298.06
1298.37
1298.6
1298.77
1298.97
1299.2
1299.37
1300.1
1300.64
1301.2
1301.27
1301.24
1295.72
1295.58
1295.48
1295.29
1290.84
1284.78
1285.06
1286.52
1293.81
1294.93
1294.69
1294.56
1294.66
1294.85
1295.2
1295.38
1295.59
1295.77
1295.7
1295.69
1295.77
1295.05
1295.35
1295.7
1296.09
1297.09
1297.4
1297.72
1297.96
1298.25
1298.62
1298.87
1297.53
1292.97
1298.47
1300.59
1301.22
1301.91
1301.85
1302.01
1284.18
1283.67
1285.28
1284.42
1284.11
1284.33
1286.35
1294.15
1294.67
1294.06
1293.45
1293.21
1293.44
1293.69
1293.91
1294.23
1294.46
1294.56
1294.37
1294.55
1294.9
1295.32
1295.35
1295.18
1295.63
1296.51
1297.22
1297.58
1297.93
1298.29
1298.67
1298.15
1290.53
1290.84
1291.34
1298.43
1301.89
1302.65
1302.45
1302.59
1283.91
1284
1283.94
1284.64
1291.72
1294.14
1295.64
1294.76
1291.49
1287.82
1280.61
1272.29
1284.98
1292.86
1293.15
1293.51
1287.77
1276.28
1289.42
1293.01
1293.84
1294.65
1295.36
1296.02
1295.92
1296.2
1296.57
1297.19
1297.92
1298.33
1298.57
1290.28
1290.14
1290.73
1291.4
1296.15
1302.48
1303.11
1302.79
1302.81
1284.12
1288.2
1295.65
1296.86
1297.08
1296.88
1296.52
1288.11
1273.28
1253.06
1249.05
1248.26
1247.26
1263.58
1278.41
1270.65
1246.32
1245.8
1250.42
1286.37
1293.68
1294.69
1295.6
1296.32
1296.81
1296.29
1296.46
1296.72
1297.52
1298.31
1298.83
1290.58
1289.98
1290.54
1292.57
1301.32
1302.96
1303.28
1302.74
1302.58
1295.23
1296.59
1296.63
1296.5
1297.41
1297.93
1297.9
1294.8
1290.9
1279.84
1261.88
1250.11
1248.3
1247.69
1246.94
1246.29
1246.3
1246.36
1247.87
1289.54
1295.2
1295.75
1296.34
1296.93
1296.98
1296.9
1296.88
1296.27
1296.71
1297.91
1298.41
1294.9
1290.94
1295.35
1300.78
1301.8
1302.57
1302.87
1302
1301.6
1297.9
1291.54
1291.39
1291.61
1292.01
1292.47
1293.09
1296.37
1298.38
1298.89
1296.92
1290.38
1282.44
1275.54
1266.82
1252.62
1248.81
1263.33
1289.55
1296.05
1295.75
1295.9
1296.23
1296.41
1296.26
1296.12
1296.14
1296.43
1296.86
1296.21
1296.78
1297.7
1298.77
1299.11
1299.38
1300.23
1300.8
1300.57
1300.02
1299.92
1298.16
1298.22
1292.88
1291.85
1292.29
1292.75
1293.25
1298.67
1297.79
1297.41
1298.05
1298.21
1302.08
1300.76
1299.04
1295.28
1294.42
1296.38
1296.51
1295.38
1294.37
1257.28
1270.31
1295.13
1295.18
1295.22
1295.37
1295.85
1296.53
1296.28
1296.3
1297.57
1297.88
1297.39
1295.62
1250.26
1290.6
1276.75
1297.39
1297.9
1298.14
1298.16
1298.4
1297.61
1294.27
1293.6
1297.36
1298.84
1299.18
1299.44
1296.51
1298.88
1299.49
1298.4
1297.84
1297.47
1297.14
1296.68
1295.88
1294.97
1249.3
1229.56
1230.19
1250.85
1292.68
1295.2
1295.67
1296.54
1297.14
1296.75
1297.14
1297.31
1297.18
1296.75
1246.86
1218.2
1222.66
1238.18
1295.53
1292.99
1296.89
1296.06
1294.7
1296.62
1297.09
1297.55
1296.69
1296.53
1296.82
1296.09
1294.94
1293.17
1279.7
1268.59
1287.83
1295.54
1295.86
1295.8
1295.37
1249.89
1226.84
1227.39
1227.74
1238.65
1295.66
1296.78
1296.97
1298.01
1298.1
1298.07
1297.85
1297.72
1297.32
1263.9
1213.92
1214.65
1214.85
1232.22
1293.04
1273.12
1282.93
1265.52
1287.54
1295.51
1296.14
1296.57
1295.75
1295.3
1295.37
1294.09
1292.62
1270.44
1219.93
1220.28
1268.28
1294.78
1295.54
1295.72
1295.88
1239.17
1227.2
1230.8
1261.09
1261.16
1252.33
1278.87
1299.14
1299.7
1299.33
1298.79
1298.55
1298.55
1298.34
1225.07
1212.95
1213.42
1213.7
1247.84
1271.94
1270.68
1240.05
1239.79
1270.33
1296.05
1296.45
1296.42
1296.11
1295.59
1295.01
1294.16
1293.12
1272.18
1215.99
1216.43
1216.98
1290.27
1295.55
1295.92
1296.32
1288.38
1271.68
1274.47
1274.32
1219.34
1195.11
1240.21
1299.79
1299.94
1299.82
1299.65
1299.63
1299.68
1299.67
1248.85
1212
1212.6
1212.73
1266.07
1273.3
1287.25
1240.77
1240.22
1279.49
1298.64
1298.14
1297.09
1296.01
1293.83
1284.17
1286.39
1293.62
1293.54
1263.21
1215.3
1215.9
1229.15
1284.05
1296.38
1283.97
1256.41
1277.63
1270.5
1199.12
1188.96
1189.02
1189.63
1290.46
1300.42
1300.4
1300.38
1300.52
1300.07
1300.35
1293.71
1211.94
1212.57
1235.62
1269.09
1292.36
1294.73
1248.15
1299.46
1301.32
1299.37
1284.35
1279.29
1281.21
1270.32
1261.71
1261.45
1266.41
1293.03
1293.37
1252.59
1214.77
1215.46
1250.61
1243.18
1219.71
1219.86
1277.84
1249.74
1188.14
1187.54
1187.43
1187.48
1202.85
1265.33
1291.02
1300.37
1300.84
1301.21
1301.26
1301.59
1253.41
1264.4
1293.41
1288.46
1293.84
1293.87
1296.22
1298.77
1278.07
1243.96
1249.9
1269.44
1266.64
1263.56
1270.51
1264.22
1258.4
1258.54
1270.13
1293.94
1246.55
1227.68
1281.72
1240.69
1219.41
1220.24
1222.5
1292.76
1225.87
1186.1
1186.3
1186.34
1186.48
1186.55
1196.97
1264.53
1301.07
1301.79
1302.02
1302.17
1301.91
1302.01
1300.92
1300.41
1288.43
1258.48
1265.23
1226.5
1222.21
1229.34
1300.11
1301.52
1295.34
1293.23
1293.69
1291.8
1290.65
1286.49
1277.26
1292.07
1292.45
1291.89
1297.93
1291.49
1245.21
1221.73
1258.48
1303.75
1301.18
1230.02
1185.46
1185.47
1185.34
1185.2
1185.08
1233.94
1302.17
1302.65
1302.66
1302.52
1302.25
1302.04
1300.19
1280.2
1244.65
1244.48
1200.18
1212.91
1305.45
1308.94
1305.98
1302.63
1298.56
1291.55
1283.38
1288.24
1289.04
1289.44
1290.33
1292
1293.66
1295.7
1298.23
1300.07
1297.8
1291.47
1302.13
1303.28
1303.79
1302.27
1263.24
1210.72
1184.45
1199.61
1238.93
1256.28
1298.27
1303.15
1302.9
1302.52
1302.11
1301.65
1286.39
1263.24
1248.16
1242.42
1248.86
1312.92
1311.77
1309.43
1306.36
1302.32
1294.89
1265.3
1209.38
1195.04
1256.98
1288.57
1291.03
1292.78
1294.58
1297.11
1299.78
1302.07
1303.82
1304.78
1293.69
1301.66
1290.94
1268.24
1282.66
1284.94
1282.17
1294.61
1302.15
1287.71
1300.79
1303.17
1302.81
1302.43
1301.81
1301.19
1291.55
1290.44
1290.67
1287.63
1315.57
1313.79
1311.18
1305.83
1306.79
1302.76
1292.08
1236.41
1011.31
934.682
1003.74
1169.15
1284.59
1294.25
1296.7
1299.21
1301.77
1304.09
1306.31
1284.22
1269.02
1268.05
1264.76
1263.61
1262.62
1283.88
1302.33
1302.25
1302
1281.95
1282.22
1302.62
1302.97
1302.3
1301.48
1300.3
1299.16
1299.04
1290
1274.83
1315.3
1315.26
1305.26
1297.09
1303.02
1304.51
1298.21
1210.39
900.726
872.873
872.709
874.777
1111.55
1298.92
1300.08
1301.86
1303.93
1304.68
1288.78
1285.4
1305.79
1305.38
1291.6
1275.06
1270.83
1274.8
1292.48
1301.69
1301.39
1271.35
1271.77
1303.97
1303.56
1302.79
1301.66
1293.51
1211.22
1124.49
1195.34
1171.18
1296.32
1297.51
1306.43
1299.76
1294.51
1299.31
1298.76
1295.43
1162.4
873.374
873.078
872.853
871.077
904.025
1088.96
1227.38
1238.35
1226.72
1285.59
1305.91
1303.67
1300.14
1298.52
1298.26
1298.79
1280.57
1285.37
1301.27
1282.49
1271
1284.18
1306.44
1305.58
1287
1284.11
1231.7
1089.19
1090.08
1095.83
1111.78
1296.44
1297.27
1286.2
1170.05
1096.79
1120.97
1212.92
1269.26
1270.58
1250.29
922.3
872.603
871.952
871.217
870.918
870.192
989.458
1264.61
1308.08
1307.94
1306.08
1302.93
1300.94
1300.18
1300.37
1297.96
1300.59
1284.78
1270.23
1270.17
1298.09
1300.44
1223.27
1209.81
1212.05
1235.41
1202.3
1083.04
999.12
1116.65
1321.62
1206.36
1042.5
941.058
940.613
939.751
938.895
1037.31
1257.43
1271.72
1272.98
1232.28
913.797
870.836
870.109
869.348
866.96
1008.49
1315.71
1313.59
1311.78
1309.75
1307.3
1299.68
1302.61
1306.88
1306.5
1289.46
1277.24
1304.45
1275.2
1204.34
1204.6
1205.37
1287.91
1215.35
1094.98
864.33
837.551
848.257
1306.91
1020.17
942.227
941.486
941.07
939.899
938.741
938.465
938.355
1132.26
1271.43
1268.95
1268.84
1270.26
1139.67
1065.65
1058.31
1059.39
1100.63
1306.96
1318.47
1317.15
1308.83
1296.82
1301.64
1313.74
1313.37
1312.66
1312.96
1312.68
1271.09
1204.53
1202.2
1274.5
1294.2
1025.57
828.486
825.227
826.249
826.411
1334.16
1237.32
1023.86
940.873
940.296
938.568
936.92
945.369
963.506
964.836
968.55
1169.63
1269.34
1268.56
1141.07
1060.88
1040.93
940.328
933.26
1127.72
1163.99
1311.86
1321.88
1320.33
1298.98
1276.77
1314.56
1318.56
1318.05
1316.58
1309.13
1253.12
1238.44
1299.8
1300.61
1224.41
955.82
817.803
817.277
854.203
1338.2
1340.57
1341.77
1254.17
1185.54
1223.66
1248.86
1269.58
1292.41
1278.06
1285.14
1235.01
1211.13
1209.68
1290.63
1295.92
1293.94
1261.38
917.012
874.59
876.316
887.212
931.789
1072
1124.13
1113.33
1123.88
1196.51
1276.8
1289.78
1314.89
1314.02
1307.69
1294.91
1302.76
1308.72
1247.34
840.252
815.192
876.313
1334.56
1337.93
1338.5
1338.34
1337.75
1336.34
1334.19
1332.22
1330.1
1328.43
1328.02
1327.02
1311.17
1311.59
1272.22
1154.17
1183.11
1260.51
1272.08
1269.12
905.88
882.897
882.233
882.499
883.843
1102.57
1184.76
1156.79
1137.25
1132.26
1124.48
1163.74
1297.99
1276.49
1203.3
1073.32
835.079
812.593
818.541
880.104
1240.57
1275.75
1315.6
1327.42
1327.97
1313.84
1312.44
1323.87
1325.43
1325.4
1325.84
1326.01
1325.94
1325.05
1057.45
882.6
883.331
1056.37
1288.4
1290.99
1265.39
1185.9
946.989
877.823
880.134
1151.88
1330.98
1324.76
1315.19
1139.06
1115.23
1111.38
1192.24
1242.68
1060.05
809.721
809.351
811.184
812.878
816.145
1197.5
951.165
1029.96
1244.77
1298.21
1256.39
1257.17
1294.64
1320.81
1322.23
1323.23
1323.84
1324.29
1180.12
871.567
874.052
874.363
871.658
1109.91
1287.67
1290.94
1292.12
1271.78
1200.8
1220.19
1302.68
1330.28
1330.82
1330.65
1328
1187.17
1112.48
1128.47
1322.77
1239.24
896.914
806.616
807.645
809.559
810.985
1175.23
896.865
852.179
876.258
1168.86
1235.76
1263.84
1303.06
1318.63
1321.03
1322.4
1322.7
1131.79
862.777
867.447
868.769
871.873
987.515
1105.07
1148.15
1129.28
1136.11
1258.69
1319.54
1322.97
1325.84
1325.69
1325.98
1326.48
1327.48
1324.97
1259.08
1286.98
1319.9
1261.6
1047.79
924.834
802.842
805.66
812.092
1149.3
977.794
815.905
825.533
857.11
1196.66
1307.92
1312.95
1317.16
1320.36
1322.59
1064.27
855.154
858.34
900.217
936.543
1260.74
1262.96
1259.63
1256.64
1253.16
1250.68
1246.08
1254.96
1275.14
1273.27
1271.63
1292.58
1322.65
1324.83
1327.88
1331.37
1333.64
1312.09
1161.29
1124.4
1138.74
881.494
821.591
1161.79
1055.24
849.946
787.205
806.393
822.231
1063.65
1306.66
1311.43
1315.98
1319.26
1221.55
851.381
850.411
885.098
1171.34
1261.38
1267.42
1264.68
1257.68
1185.94
1129.95
1276.71
1323.01
1323.15
1315.36
1267.64
1219.09
1216.76
1246.66
1320.49
1324.81
1330.24
1335.4
1208.21
1178.99
1179.86
1172.74
906.758
819.271
1287.36
748.18
760.361
778.766
799.886
817.268
1135.73
1308.88
1312.88
1300.52
1283.21
1096.44
844.871
846.405
1077.22
1118.93
1060.79
1252.99
1265.6
1081
906.677
906.668
996.375
1297.21
1326.01
1322.03
1316.33
1304.41
1264.33
1214.81
1212.42
1314.32
1335.09
1290.32
1156.3
1164.54
1169.25
963.316
814.204
818.274
1343.47
750.428
768.163
786.369
802.88
1107.5
1309.51
1314.58
1286.95
1248.08
1216.14
1136.61
1028.19
896.145
1078.13
985.842
778.518
787.151
904.021
1126.75
903.07
905.632
904.934
1061.23
1331.96
1327.4
1320.45
1194.79
848.461
730.216
742.51
915.867
1160.84
1241.24
1156.63
876.01
809.816
817.679
822.487
1155.23
1352.28
773.365
784.105
913.344
1262.92
1314.25
1319.07
1319.07
1269.88
1242.53
1238.9
1235.96
1237.95
1092.11
746.218
742.92
756.147
847.788
1304.46
1361.13
1161.83
925.49
1155.09
1340.11
1338.53
1333.52
1025.62
734.607
734.665
736.418
738.56
741.097
748.925
831.621
844.15
767.151
778.191
832.938
1262.64
1336.52
1335.16
864.215
1231.79
1310.55
1320.62
1325.88
1328.53
1329.67
1298.4
1151.93
1051.09
919.646
728.146
721.582
726.757
731.073
769.847
1262.99
1359.19
1361.76
1361.98
1362.34
1361.68
1351.59
1347.54
1289.19
832.363
740.382
742.172
743.527
744.833
746.662
748.358
751.287
757.826
766.025
779.365
1208.54
1317.95
1322.27
1255.08
1314.43
1319.87
1327.23
1332.6
1336.2
1339.59
1341.1
1162.32
727.03
727.492
728.887
731.046
732.552
733.176
732.387
732.159
1096.42
1368.69
1372.04
1373.48
1373.89
1367.56
1354.15
1348.82
1344.84
1058.86
747.543
748.207
749.558
750.628
751.848
752.663
754.475
756.79
960.013
1149.86
1280.01
1283.8
1252.58
1253.58
1331.23
1334.53
1339.76
1344.81
1348.86
1353.02
1356.08
1102.21
735.372
737.029
739.266
741.756
743.021
742.416
741.364
739.933
1045.94
1382.6
1384.58
1385.55
1369.48
1343.98
1344.39
1344.93
1376.55
1385.88
1229.3
829.141
754.277
755.28
843.003
1039.94
1136.32
1256.55
1338.69
1349.6
1281.81
1280.79
1282.76
1356.45
1347.62
1347.26
1342.01
1342.29
1361
1367.19
1374.77
1377.89
1022.48
748.152
751.33
752.73
752.289
750.399
748.204
746.834
923.246
1392.81
1395.94
1396.92
1397.47
1386.3
1356.68
1392.23
1395.47
1396.65
1395.7
1340.56
1261.5
1246.94
1290.13
1308.99
1313.61
1319.99
1321.65
1372.09
1373.75
1374.62
1372.73
1361.98
1207.41
1088.23
1174.13
1354.18
1370.63
1378.88
1388.59
1398.91
1408.87
1291.37
830.36
760.35
760.163
758.65
755.45
752.745
780.903
1297.97
1408.49
1407.58
1354.74
1336.41
1401.42
1402.52
1403.17
1403.9
1404.61
1405.8
1406.97
1406.16
1400.54
1311.28
1233.92
1192.92
1189.34
1215.23
1363.88
1374.12
1215.68
1168.92
975.772
972.238
969.471
1113.4
1359.46
1388.32
1400.1
1411.91
1422.26
1431.43
1437.29
1289.03
808.01
763.12
760.366
758.188
1126.72
1419.57
1418.5
1385.76
1330.9
1329.9
1328.04
1368.15
1408.05
1408.55
1408.51
1408.98
1409.96
1409.78
1283.29
1201.98
1198.32
1195.14
1190.95
1191.23
1377.96
1377.26
948.981
679.246
981.854
976.071
971.784
976.668
1090.13
1311.17
1365.03
1372.24
1431.97
1445.68
1453.83
1455.67
1447.18
1322.28
1272.36
1334.7
1427.34
1429.39
1426.15
1423.04
1420.34
1413.17
1338.1
1323.28
1323.45
1323.88
1325.02
1327.14
1396.87
1411.72
1364.51
1205.29
1201.18
1199
1196.33
1257.18
1368.26
1386.8
758.095
641.3
983.765
978.186
1004.32
1165.22
1090.92
1164.71
1272.93
1286.55
1344.79
1443.89
1470.57
1477.03
1471.89
1464.91
1457.36
1450.2
1443.06
1436.92
1432.11
1427.85
1423.64
1420.22
1415.61
1400.32
1397.46
1397.65
1398.55
1402.11
1403.84
1382.14
1370.11
1280.3
1203.75
1203.12
1201.56
1200.25
1311.01
1371.32
790.227
638.481
1125.57
975.89
978.12
1153.97
1259.67
1261.27
1265.28
1280.89
1303.54
1421.31
1484.19
1491.32
1486.94
1455.16
1446.22
1442.95
1283.83
1249.37
1423
1400.8
1363.45
1370.1
1389.24
1386.57
1391.69
1405.27
1406.86
1408.75
1410.87
1407.51
1248.38
1204.9
1206.63
1207.71
1208.16
1208.38
1338.76
1326.55
821.969
637.615
1409.04
1318.72
992.934
982.485
980.104
1061.73
1230.27
1332.44
1386.64
1464.81
1496.41
1458.3
1397.74
1438.68
1440.59
1234.62
1175.2
1167.36
1159.95
1154.55
1148.52
1141.31
1133.92
1132.02
1130.38
1362.08