/*--------------------------------*- C++ -*----------------------------------*\
  =========                 |
  \\      /  F ield         | OpenFOAM: The Open Source CFD Toolbox
   \\    /   O peration     | Website:  https://openfoam.org
    \\  /    A nd           | Version:  8
     \\/     M anipulation  |
\*---------------------------------------------------------------------------*/
FoamFile
{
    version     2.0;
    format      ascii;
    class       volVectorField;
    location    "3.65";
    object      U;
}
// * * * * * * * * * * * * * * * * * * * * * * * * * * * * * * * * * * * * * //

dimensions      [0 1 -1 0 0 0 0];

internalField   nonuniform List<vector> 
9150
(
(0.0539421 -0.428631 0)
(0.0879667 -0.622057 0)
(0.0729626 -0.631347 0)
(0.0486707 -0.64366 0)
(0.0170527 -0.654372 0)
(-0.0169689 -0.654384 0)
(-0.0486022 -0.643689 0)
(-0.0729139 -0.631375 0)
(-0.0879397 -0.622087 0)
(-0.0539328 -0.428688 0)
(0.0410378 -0.523134 0)
(0.0574825 -0.625593 0)
(0.0419471 -0.613179 0)
(0.0294457 -0.622426 0)
(0.0104914 -0.628815 0)
(-0.0104361 -0.628821 0)
(-0.0293989 -0.622442 0)
(-0.0419111 -0.613194 0)
(-0.0574568 -0.625602 0)
(-0.0410264 -0.523172 0)
(0.0254391 -0.558135 0)
(0.032512 -0.613697 0)
(0.0228767 -0.604457 0)
(0.0173044 -0.609984 0)
(0.00624388 -0.613162 0)
(-0.00620958 -0.613164 0)
(-0.0172748 -0.60999 0)
(-0.0228541 -0.604464 0)
(-0.0324931 -0.613698 0)
(-0.0254291 -0.558154 0)
(0.015502 -0.584848 0)
(0.0174868 -0.607395 0)
(0.0116289 -0.601133 0)
(0.00890336 -0.603286 0)
(0.00324457 -0.604384 0)
(-0.00322612 -0.604385 0)
(-0.00888717 -0.603288 0)
(-0.0116165 -0.601136 0)
(-0.0174756 -0.607394 0)
(-0.0154957 -0.584855 0)
(0.00632332 -0.597196 0)
(0.00556515 -0.601365 0)
(0.00353874 -0.600039 0)
(0.00268931 -0.600349 0)
(0.00099587 -0.60048 0)
(-0.000990247 -0.600481 0)
(-0.00268433 -0.600349 0)
(-0.00353492 -0.600039 0)
(-0.00556147 -0.601364 0)
(-0.00632116 -0.597197 0)
(0.470677 -1.16347 1.39234e-24)
(0.283048 -1.08549 0)
(0.16375 -1.06909 0)
(0.0928653 -1.05755 0)
(0.030832 -1.05291 0)
(-0.0298971 -1.05304 0)
(-0.0920282 -1.05793 0)
(-0.163066 -1.06969 0)
(-0.282554 -1.08629 0)
(-0.470869 -1.16462 -1.4038e-24)
(0.334406 -0.844278 3.78118e-25)
(0.286958 -0.936618 0)
(0.188277 -0.9366 0)
(0.108553 -0.936597 0)
(0.0359716 -0.939032 0)
(-0.0354422 -0.939126 0)
(-0.108098 -0.936856 0)
(-0.187928 -0.936961 0)
(-0.286832 -0.937069 0)
(-0.33455 -0.844868 -3.80241e-25)
(0.279938 -0.7031 6.76536e-26)
(0.259069 -0.804614 0)
(0.178034 -0.817432 0)
(0.10485 -0.828259 0)
(0.0349867 -0.836393 0)
(-0.0346678 -0.836449 0)
(-0.104581 -0.828411 0)
(-0.177853 -0.817642 0)
(-0.259016 -0.804849 0)
(-0.279993 -0.70336 -6.82121e-26)
(0.20101 -0.554766 2.24087e-25)
(0.217011 -0.709285 0)
(0.154187 -0.72573 0)
(0.0915184 -0.74191 0)
(0.0306266 -0.753845 0)
(-0.0304291 -0.753879 0)
(-0.0913556 -0.742001 0)
(-0.154079 -0.725844 0)
(-0.216983 -0.709404 0)
(-0.201035 -0.554915 -2.24017e-25)
(0.119597 -0.444982 -3.81604e-25)
(0.156934 -0.643961 -5.49472e-25)
(0.116613 -0.663604 -1.84731e-25)
(0.0710068 -0.681094 -1.2127e-25)
(0.0240036 -0.694114 -6.98719e-27)
(-0.023876 -0.694134 -6.89689e-27)
(-0.0709026 -0.681146 -1.21043e-25)
(-0.116544 -0.663662 -1.84646e-25)
(-0.156908 -0.644021 -5.49472e-25)
(-0.119598 -0.445067 -3.81688e-25)
(0.021793 -0.906283 0)
(-0.033077 -1.33699 0)
(0.0291709 -1.26989 0)
(-0.000615483 -1.22402 0)
(0.00808618 -1.22214 0)
(-0.00168225 -1.22342 0)
(0.0106799 -1.22414 0)
(-0.0200325 -1.26656 0)
(0.0441924 -1.33835 0)
(-0.0107172 -0.949809 0)
(0.0497077 -0.899523 0)
(-0.0191158 -1.33244 0)
(0.026887 -1.26932 0)
(0.00262088 -1.22279 0)
(0.0040149 -1.22137 0)
(0.000465227 -1.22251 0)
(0.00492654 -1.22285 0)
(-0.0218425 -1.26888 0)
(0.0273818 -1.33627 0)
(-0.045271 -0.919492 0)
(0.0767086 -0.938418 0)
(-0.0209391 -1.34772 0)
(0.0203566 -1.27463 0)
(0.00663039 -1.23 0)
(0.00154083 -1.22565 0)
(0.00182553 -1.22628 0)
(-0.00194017 -1.23015 0)
(-0.0172294 -1.27567 0)
(0.0267863 -1.34923 0)
(-0.0736222 -0.951985 0)
(0.142118 -1.07481 0)
(0.00194875 -1.36567 0)
(0.017645 -1.27141 0)
(0.0225319 -1.22529 0)
(0.00665333 -1.21405 0)
(-0.00404538 -1.21433 0)
(-0.0197885 -1.22582 0)
(-0.0161278 -1.27237 0)
(0.00202337 -1.36666 0)
(-0.140499 -1.08172 0)
(0.296426 -1.21917 0)
(0.124402 -1.32166 0)
(0.0698644 -1.21033 0)
(0.0572392 -1.16881 0)
(0.0206877 -1.15632 0)
(-0.0190759 -1.1565 0)
(-0.0558888 -1.16945 0)
(-0.0685553 -1.21126 0)
(-0.122462 -1.32247 0)
(-0.296203 -1.22217 0)
(0.0423832 -0.000899318 0)
(0.0430186 -0.000930478 0)
(0.0436521 -0.000942446 0)
(0.0442637 -0.000924453 0)
(0.044825 -0.000861069 0)
(0.0452957 -0.000730348 0)
(0.045622 -0.00050488 0)
(0.0457578 -0.000152409 0)
(0.0455561 0.000333295 0)
(0.0449432 0.000953795 0)
(0.040852 -0.00174168 0)
(0.0412012 -0.00173696 0)
(0.0415223 -0.00168405 0)
(0.0418024 -0.00156249 0)
(0.0420253 -0.00134543 0)
(0.0421693 -0.000997414 0)
(0.0422053 -0.000483265 0)
(0.0421021 0.000225976 0)
(0.0418584 0.001171 0)
(0.0414224 0.00238291 0)
(0.0384388 -0.00221111 0)
(0.038565 -0.00214281 0)
(0.0386495 -0.0020087 0)
(0.0386845 -0.00178459 0)
(0.0386616 -0.00144191 0)
(0.0385725 -0.000940839 0)
(0.0384082 -0.000245625 0)
(0.0381549 0.000680018 0)
(0.0377902 0.00190649 0)
(0.0372839 0.00349342 0)
(0.0358704 -0.00230978 0)
(0.03581 -0.00215466 0)
(0.0356994 -0.00192454 0)
(0.0355371 -0.00159576 0)
(0.0353245 -0.00114361 0)
(0.0350671 -0.00052922 0)
(0.0347666 0.000296869 0)
(0.034419 0.00138095 0)
(0.0340195 0.00280019 0)
(0.0335575 0.00462687 0)
(0.0332456 -0.0020699 0)
(0.0330182 -0.00180616 0)
(0.0327264 -0.00146865 0)
(0.0323741 -0.00103917 0)
(0.031969 -0.000499835 0)
(0.031523 0.00018274 0)
(0.0310526 0.00106188 0)
(0.0305734 0.00219337 0)
(0.0300973 0.0036579 0)
(0.0296327 0.00554716 0)
(0.0306694 -0.00152693 0)
(0.0302927 -0.00111756 0)
(0.0298253 -0.000639048 0)
(0.0292716 -8.12791e-05 0)
(0.0286448 0.000559124 0)
(0.0279677 0.00130381 0)
(0.0272697 0.00219547 0)
(0.0265823 0.00329587 0)
(0.0259355 0.00468906 0)
(0.0253562 0.0064818 0)
(0.0283116 -0.000741738 0)
(0.0278185 -0.000117751 0)
(0.0271848 0.000576815 0)
(0.0264176 0.00132626 0)
(0.0255406 0.00211387 0)
(0.0245894 0.00294279 0)
(0.0236095 0.00384488 0)
(0.0226482 0.0048815 0)
(0.0217481 0.00614263 0)
(0.0209426 0.00774509 0)
(0.0263739 0.000181565 0)
(0.0258103 0.00113359 0)
(0.0250355 0.00216206 0)
(0.0240583 0.0032073 0)
(0.0229138 0.00421836 0)
(0.0216646 0.00516897 0)
(0.0203904 0.00607893 0)
(0.0191688 0.00701692 0)
(0.0180626 0.00809015 0)
(0.0171141 0.00943601 0)
(0.0250812 0.00110522 0)
(0.0244876 0.00255022 0)
(0.0235911 0.00407722 0)
(0.0223941 0.00556829 0)
(0.0209441 0.006901 0)
(0.019351 0.00798596 0)
(0.0177665 0.00882769 0)
(0.0163286 0.00952109 0)
(0.0151336 0.0102097 0)
(0.014233 0.0110905 0)
(0.0245654 0.00201664 0)
(0.0239588 0.00412264 0)
(0.0229578 0.00635506 0)
(0.0215143 0.00851612 0)
(0.0196534 0.0103376 0)
(0.0175588 0.0115562 0)
(0.0155412 0.0121328 0)
(0.0138613 0.0122777 0)
(0.012616 0.0122824 0)
(0.0118046 0.0124231 0)
(0.0243806 0.00286153 0)
(0.0238963 0.00574548 0)
(0.0229552 0.0089327 0)
(0.0213693 0.0121775 0)
(0.0189999 0.0149533 0)
(0.0161502 0.0163919 0)
(0.0134963 0.0162547 0)
(0.0115403 0.0153234 0)
(0.0102975 0.0142822 0)
(0.00961143 0.0134774 0)
(0.0236774 0.00319769 0)
(0.023461 0.0067907 0)
(0.0229001 0.0110699 0)
(0.0216811 0.016012 0)
(0.0189665 0.021323 0)
(0.0149949 0.0235271 0)
(0.0115803 0.0212689 0)
(0.00965571 0.0183976 0)
(0.00862489 0.0160265 0)
(0.00804708 0.0142657 0)
(0.0211431 0.00351167 0)
(0.0207295 0.0077073 0)
(0.019983 0.013045 0)
(0.0186001 0.0197873 0)
(0.0164977 0.0278235 0)
(0.0138629 0.0308521 0)
(0.0117579 0.0257003 0)
(0.0102279 0.0211479 0)
(0.00902185 0.0177175 0)
(0.00814464 0.0152848 0)
(0.0177704 0.00444023 0)
(0.0171013 0.00892586 0)
(0.0164246 0.0146759 0)
(0.0155694 0.02256 0)
(0.0151808 0.0304287 0)
(0.0153703 0.0330934 0)
(0.0147228 0.0291673 0)
(0.0127949 0.0246793 0)
(0.0109217 0.0204256 0)
(0.00949924 0.0174419 0)
(0.0143131 0.00606455 0)
(0.0132589 0.0104846 0)
(0.0123887 0.0158774 0)
(0.0120335 0.0229845 0)
(0.012242 0.0294709 0)
(0.0128721 0.0318874 0)
(0.0132862 0.0308333 0)
(0.0128215 0.0280398 0)
(0.011627 0.0235357 0)
(0.0102502 0.020387 0)
(0.0118082 0.00863734 0)
(0.010386 0.0129477 0)
(0.00909059 0.017803 0)
(0.00833284 0.0232981 0)
(0.00829029 0.0282804 0)
(0.00909412 0.0297058 0)
(0.0104529 0.0288091 0)
(0.0111269 0.0284764 0)
(0.0105788 0.0256496 0)
(0.00933238 0.023272 0)
(0.0112115 0.0114006 0)
(0.00994919 0.0155472 0)
(0.00888328 0.0198179 0)
(0.00829392 0.0239969 0)
(0.00836901 0.0273801 0)
(0.0085283 0.0285291 0)
(0.00806935 0.0280842 0)
(0.00749133 0.0284466 0)
(0.00695939 0.0272178 0)
(0.00593358 0.0257371 0)
(0.0109513 0.013809 0)
(0.00971007 0.0177469 0)
(0.00858053 0.0215332 0)
(0.00766776 0.0249555 0)
(0.00698637 0.0276942 0)
(0.00636786 0.0294276 0)
(0.00555076 0.0300306 0)
(0.00447355 0.030016 0)
(0.00317341 0.0293623 0)
(0.00165598 0.0283786 0)
(0.0100753 0.0163787 0)
(0.0086122 0.0203091 0)
(0.00713113 0.0239424 0)
(0.00568953 0.0271243 0)
(0.00429375 0.0296998 0)
(0.00287333 0.0315451 0)
(0.00132278 0.0326031 0)
(-0.000406732 0.0329567 0)
(-0.00230082 0.0327052 0)
(-0.00431688 0.0319626 0)
(0.00804722 0.0194988 0)
(0.00616183 0.0236546 0)
(0.00414242 0.0273978 0)
(0.00206277 0.030618 0)
(-4.61643e-05 0.0332564 0)
(-0.00222527 0.0352741 0)
(-0.0045389 0.0366181 0)
(-0.00699416 0.0372544 0)
(-0.00953855 0.0372116 0)
(-0.0121258 0.0365783 0)
(0.00452284 0.0235128 0)
(0.00201198 0.0281285 0)
(-0.00074229 0.0321434 0)
(-0.0035692 0.0354786 0)
(-0.0063753 0.038223 0)
(-0.00924861 0.0404818 0)
(-0.0123267 0.0421331 0)
(-0.0155743 0.0429556 0)
(-0.0188069 0.0429154 0)
(-0.0219539 0.0422826 0)
(-0.000779811 0.0288272 0)
(-0.00418937 0.0342492 0)
(-0.00802588 0.0386937 0)
(-0.0118351 0.0419269 0)
(-0.0153103 0.0444833 0)
(-0.0187508 0.0471468 0)
(-0.0226662 0.0494551 0)
(-0.026968 0.0504466 0)
(-0.0309761 0.0497374 0)
(-0.0344609 0.0490247 0)
(-0.00793945 0.0359048 0)
(-0.0125256 0.0428699 0)
(-0.0182128 0.0481182 0)
(-0.0238152 0.0502944 0)
(-0.0280289 0.0510541 0)
(-0.0316284 0.0545417 0)
(-0.0365602 0.0588808 0)
(-0.0428368 0.0612665 0)
(-0.0482744 0.0582467 0)
(-0.0517205 0.0561327 0)
(-0.017166 0.0442779 0)
(-0.022599 0.0542429 0)
(-0.0311816 0.0630581 0)
(-0.0410033 0.062534 0)
(-0.0475917 0.0593474 0)
(-0.0524883 0.0645335 0)
(-0.0585716 0.0727438 0)
(-0.064518 0.0740027 0)
(-0.0676974 0.063877 0)
(-0.0690043 0.0593354 0)
(-0.0325488 0.0545084 0)
(-0.0392101 0.0691622 0)
(-0.0466915 0.0827352 0)
(-0.0545301 0.08172 0)
(-0.0647745 0.0760278 0)
(-0.0747027 0.078243 0)
(-0.0797887 0.0821749 0)
(-0.0809419 0.077582 0)
(-0.0816909 0.0674751 0)
(-0.0836644 0.0625939 0)
(-0.0540553 0.0684677 0)
(-0.0617443 0.0845846 0)
(-0.0674149 0.0954041 0)
(-0.0728303 0.0981292 0)
(-0.0784147 0.0961411 0)
(-0.0830982 0.0906226 0)
(-0.0854643 0.0847952 0)
(-0.0869965 0.0785396 0)
(-0.0894958 0.0725776 0)
(-0.093661 0.0689902 0)
(-0.0704964 0.0832578 0)
(-0.0754366 0.0954484 0)
(-0.0788102 0.103102 0)
(-0.0814381 0.105106 0)
(-0.083948 0.101878 0)
(-0.0863653 0.0947209 0)
(-0.0889422 0.0890806 0)
(-0.0924874 0.0845508 0)
(-0.0976438 0.0815306 0)
(-0.103885 0.0804201 0)
(-0.0796435 0.0923745 0)
(-0.0814597 0.100403 0)
(-0.0823805 0.107174 0)
(-0.0838093 0.108294 0)
(-0.0856584 0.105109 0)
(-0.0885202 0.100929 0)
(-0.0930409 0.0974931 0)
(-0.0991489 0.0956065 0)
(-0.106526 0.0951966 0)
(-0.114656 0.0962733 0)
(-0.0834696 0.0961131 0)
(-0.0851112 0.10167 0)
(-0.0858219 0.10804 0)
(-0.0869791 0.110673 0)
(-0.0895111 0.110629 0)
(-0.0939685 0.11006 0)
(-0.100209 0.109964 0)
(-0.107876 0.110752 0)
(-0.116644 0.112515 0)
(-0.126156 0.115298 0)
(-0.081187 0.100182 0)
(-0.0839622 0.105632 0)
(-0.0870591 0.111601 0)
(-0.0904453 0.116181 0)
(-0.0949688 0.11949 0)
(-0.101001 0.122344 0)
(-0.108455 0.125222 0)
(-0.11711 0.128404 0)
(-0.126714 0.132027 0)
(-0.13704 0.136134 0)
(-0.0813882 0.10592 0)
(-0.0851287 0.112916 0)
(-0.089507 0.119711 0)
(-0.0946081 0.12599 0)
(-0.100678 0.131699 0)
(-0.10785 0.137032 0)
(-0.116084 0.142172 0)
(-0.125233 0.147241 0)
(-0.135096 0.152283 0)
(-0.145427 0.157261 0)
(-0.0818346 0.114149 0)
(-0.0867492 0.122429 0)
(-0.0923182 0.130592 0)
(-0.0986203 0.138493 0)
(-0.105738 0.146044 0)
(-0.113698 0.153228 0)
(-0.122445 0.160044 0)
(-0.131856 0.166478 0)
(-0.141755 0.172485 0)
(-0.151935 0.177973 0)
(-0.0829862 0.124302 0)
(-0.0886866 0.133864 0)
(-0.0950665 0.143414 0)
(-0.102147 0.152789 0)
(-0.109934 0.161842 0)
(-0.118399 0.170449 0)
(-0.127462 0.178496 0)
(-0.136997 0.185875 0)
(-0.146834 0.192476 0)
(-0.156785 0.198191 0)
(-0.0839419 0.135811 0)
(-0.0903298 0.146675 0)
(-0.0973298 0.157554 0)
(-0.104946 0.168249 0)
(-0.113161 0.178562 0)
(-0.121928 0.188295 0)
(-0.131159 0.19725 0)
(-0.140718 0.205235 0)
(-0.150419 0.212079 0)
(-0.160049 0.217658 0)
(-0.0849774 0.148583 0)
(-0.0918303 0.160585 0)
(-0.099213 0.172615 0)
(-0.107116 0.184435 0)
(-0.115522 0.195798 0)
(-0.124388 0.206441 0)
(-0.133646 0.216079 0)
(-0.143166 0.224411 0)
(-0.152734 0.231151 0)
(-0.162051 0.236116 0)
(-0.0863729 0.162154 0)
(-0.0934786 0.17513 0)
(-0.101006 0.188114 0)
(-0.108934 0.200857 0)
(-0.117252 0.213096 0)
(-0.125955 0.224531 0)
(-0.135036 0.2348 0)
(-0.144446 0.243455 0)
(-0.153968 0.249949 0)
(-0.163113 0.253788 0)
(-0.0886325 0.176083 0)
(-0.0958085 0.189836 0)
(-0.103263 0.203519 0)
(-0.110936 0.216909 0)
(-0.118813 0.229823 0)
(-0.126928 0.241985 0)
(-0.135367 0.253039 0)
(-0.144342 0.2624 0)
(-0.153994 0.268881 0)
(-0.163356 0.271021 0)
(-0.0921521 0.190133 0)
(-0.0993912 0.20436 0)
(-0.106677 0.21831 0)
(-0.113913 0.231864 0)
(-0.121088 0.244989 0)
(-0.128178 0.257508 0)
(-0.135248 0.269224 0)
(-0.142977 0.280003 0)
(-0.152894 0.289041 0)
(-0.163978 0.289 0)
(-0.0974801 0.204726 0)
(-0.10501 0.218964 0)
(-0.112297 0.232715 0)
(-0.119294 0.246016 0)
(-0.126118 0.258894 0)
(-0.133028 0.27096 0)
(-0.13984 0.282706 0)
(-0.146849 0.295516 0)
(-0.154128 0.308826 0)
(-0.160199 0.304599 0)
(-0.105233 0.220609 0)
(-0.113402 0.233796 0)
(-0.120599 0.246545 0)
(-0.127161 0.259073 0)
(-0.133423 0.271568 0)
(-0.140199 0.28449 0)
(-0.148256 0.297605 0)
(-0.155813 0.310065 0)
(-0.159958 0.317479 0)
(-0.161928 0.310901 0)
(-0.116307 0.238738 0)
(-0.125046 0.249201 0)
(-0.132864 0.260269 0)
(-0.140072 0.271843 0)
(-0.14721 0.285153 0)
(-0.155117 0.300276 0)
(-0.161422 0.311179 0)
(-0.16568 0.320813 0)
(-0.168929 0.321275 0)
(-0.17055 0.312506 0)
(-0.126243 0.258785 0)
(-0.135218 0.266904 0)
(-0.144563 0.277448 0)
(-0.154104 0.288774 0)
(-0.163345 0.302482 0)
(-0.171114 0.315133 0)
(-0.177166 0.321634 0)
(-0.180768 0.326177 0)
(-0.180906 0.322892 0)
(-0.179662 0.312282 0)
(-0.136812 0.279776 0)
(-0.146191 0.286629 0)
(-0.155823 0.297357 0)
(-0.165445 0.308531 0)
(-0.174127 0.319135 0)
(-0.179604 0.326245 0)
(-0.182498 0.329019 0)
(-0.183886 0.327342 0)
(-0.183932 0.321405 0)
(-0.18197 0.308188 0)
(-0.15 0.303051 0)
(-0.160391 0.308222 0)
(-0.17066 0.315516 0)
(-0.17822 0.323763 0)
(-0.182255 0.328926 0)
(-0.183643 0.331047 0)
(-0.183606 0.330562 0)
(-0.182843 0.326667 0)
(-0.182098 0.320223 0)
(-0.182714 0.309002 0)
(-0.159573 0.325717 0)
(-0.168353 0.328384 0)
(-0.17646 0.330677 0)
(-0.182526 0.333084 0)
(-0.185136 0.332479 0)
(-0.185899 0.331287 0)
(-0.185749 0.32895 0)
(-0.185143 0.324977 0)
(-0.184879 0.319663 0)
(-0.185725 0.312839 0)
(-0.17355 0.344859 0)
(-0.181519 0.343992 0)
(-0.187962 0.342074 0)
(-0.191552 0.338629 0)
(-0.193109 0.334874 0)
(-0.194295 0.331785 0)
(-0.195133 0.328527 0)
(-0.195888 0.324829 0)
(-0.197044 0.320531 0)
(-0.199274 0.315484 0)
(-0.190784 0.361191 0)
(-0.19778 0.35653 0)
(-0.20276 0.350064 0)
(-0.205941 0.343955 0)
(-0.209092 0.339496 0)
(-0.212424 0.335782 0)
(-0.215816 0.332262 0)
(-0.219816 0.328649 0)
(-0.224925 0.325283 0)
(-0.231106 0.324477 0)
(-0.217858 0.375634 0)
(-0.223608 0.366022 0)
(-0.22728 0.357815 0)
(-0.231178 0.352325 0)
(-0.236322 0.348023 0)
(-0.24245 0.344349 0)
(-0.249573 0.341225 0)
(-0.257281 0.341548 0)
(-0.266314 0.345657 0)
(-0.279545 0.351307 0)
(-0.257499 0.383935 0)
(-0.25874 0.37243 0)
(-0.261207 0.365585 0)
(-0.266572 0.362066 0)
(-0.274541 0.35999 0)
(-0.283817 0.361374 0)
(-0.294845 0.365925 0)
(-0.310311 0.371877 0)
(-0.336687 0.38769 0)
(-0.35019 0.411989 0)
(-0.293867 0.382609 0)
(-0.292924 0.375025 0)
(-0.296803 0.374087 0)
(-0.304934 0.378566 0)
(-0.317523 0.386239 0)
(-0.337228 0.395481 0)
(-0.36619 0.412151 0)
(-0.373823 0.423557 0)
(-0.349063 0.384935 0)
(-0.298781 0.305624 0)
(-0.316329 0.382421 0)
(-0.318909 0.38239 0)
(-0.327543 0.392805 0)
(-0.346248 0.410917 0)
(-0.374867 0.436193 0)
(-0.374525 0.445059 0)
(-0.344522 0.393258 0)
(-0.284718 0.305475 0)
(-0.214392 0.242177 0)
(-0.176955 0.196501 0)
(-0.333955 0.393051 0)
(-0.347146 0.401553 0)
(-0.373585 0.435451 0)
(-0.375974 0.460088 0)
(-0.336981 0.401728 0)
(-0.269809 0.321543 0)
(-0.20211 0.2575 0)
(-0.171106 0.212597 0)
(-0.148366 0.179698 0)
(-0.129231 0.154498 0)
(-0.339585 0.414678 0)
(-0.360733 0.447865 0)
(-0.32071 0.410091 0)
(-0.247768 0.324536 0)
(-0.192919 0.265212 0)
(-0.163289 0.22515 0)
(-0.141236 0.196107 0)
(-0.124007 0.173777 0)
(-0.109726 0.151723 0)
(-0.0971177 0.12908 0)
(-0.267169 0.448808 0)
(-0.201383 0.346478 0)
(-0.152089 0.284961 0)
(-0.133124 0.247357 0)
(-0.118863 0.218171 0)
(-0.106982 0.19453 0)
(-0.0966155 0.172576 0)
(-0.0867241 0.150689 0)
(-0.0770939 0.129303 0)
(-0.0681615 0.108281 0)
(-0.108255 0.324058 0)
(-0.0964372 0.282392 0)
(-0.0881927 0.252879 0)
(-0.0816678 0.228169 0)
(-0.0754979 0.204802 0)
(-0.0692036 0.181398 0)
(-0.0627373 0.157996 0)
(-0.0559452 0.135054 0)
(-0.0489253 0.113618 0)
(-0.0420472 0.0933315 0)
(-0.060688 0.304418 0)
(-0.0569984 0.27462 0)
(-0.0541321 0.24764 0)
(-0.0505714 0.221309 0)
(-0.0459414 0.195283 0)
(-0.0404424 0.170042 0)
(-0.0345062 0.145795 0)
(-0.0284821 0.122855 0)
(-0.0224906 0.101439 0)
(-0.016608 0.0813106 0)
(-0.0360025 0.305901 0)
(-0.0342381 0.273694 0)
(-0.0313414 0.242267 0)
(-0.0267568 0.212369 0)
(-0.0209654 0.184316 0)
(-0.0146424 0.158125 0)
(-0.00822247 0.133734 0)
(-0.00195815 0.111054 0)
(0.00404547 0.089945 0)
(0.00978421 0.0701783 0)
(-0.0156189 0.306039 0)
(-0.0133486 0.267802 0)
(-0.00846061 0.23244 0)
(-0.00181511 0.200175 0)
(0.00548782 0.17103 0)
(0.0127971 0.144619 0)
(0.0198324 0.120548 0)
(0.0264878 0.0984553 0)
(0.032758 0.0780033 0)
(0.0386978 0.0588569 0)
(0.0046729 0.30198 0)
(0.00955713 0.25859 0)
(0.0177718 0.218275 0)
(0.0272726 0.184139 0)
(0.0361153 0.155021 0)
(0.0440995 0.129374 0)
(0.0513859 0.106289 0)
(0.0581616 0.0851466 0)
(0.064579 0.0654761 0)
(0.0707875 0.0468917 0)
(0.0245335 0.286949 0)
(0.0401249 0.235416 0)
(0.0530614 0.195581 0)
(0.0636072 0.164637 0)
(0.0722593 0.138105 0)
(0.079474 0.114335 0)
(0.0860237 0.0925203 0)
(0.0923493 0.0721431 0)
(0.0986926 0.0528102 0)
(0.105238 0.0341962 0)
(0.0653076 0.238123 0)
(0.0815336 0.199794 0)
(0.0913492 0.172367 0)
(0.0994914 0.147936 0)
(0.106368 0.124493 0)
(0.112426 0.102021 0)
(0.11844 0.0805091 0)
(0.12481 0.0598114 0)
(0.131728 0.0397208 0)
(0.139338 0.0200158 0)
(0.0945925 0.196274 0)
(0.104947 0.176261 0)
(0.113486 0.156425 0)
(0.121301 0.134884 0)
(0.128697 0.112336 0)
(0.135976 0.0897025 0)
(0.143595 0.0673696 0)
(0.151823 0.0453903 0)
(0.160846 0.02368 0)
(0.1708 0.00211209 0)
(0.102984 0.180171 0)
(0.112414 0.16144 0)
(0.121913 0.140811 0)
(0.13165 0.118694 0)
(0.141593 0.0957052 0)
(0.151819 0.0723522 0)
(0.162529 0.0488774 0)
(0.173926 0.0253602 0)
(0.186182 0.00180397 0)
(0.199401 -0.0217965 0)
(0.0994045 0.160106 0)
(0.111662 0.139881 0)
(0.124249 0.118345 0)
(0.137126 0.0957029 0)
(0.150305 0.0721729 0)
(0.163904 0.0479668 0)
(0.178104 0.023249 0)
(0.193064 -0.00185677 0)
(0.208897 -0.0272311 0)
(0.225632 -0.0527206 0)
(0.0969537 0.131993 0)
(0.111612 0.111627 0)
(0.126617 0.0897877 0)
(0.142049 0.0665934 0)
(0.158013 0.0422006 0)
(0.174647 0.0168022 0)
(0.192077 -0.00940692 0)
(0.210389 -0.036199 0)
(0.229592 -0.0633099 0)
(0.249639 -0.0904623 0)
(0.0972297 0.101276 0)
(0.113163 0.0801613 0)
(0.129722 0.0573118 0)
(0.147038 0.0328527 0)
(0.165226 0.00695016 0)
(0.184407 -0.0201781 0)
(0.204643 -0.0482402 0)
(0.225945 -0.0768856 0)
(0.248285 -0.105752 0)
(0.271599 -0.134507 0)
(0.0985788 0.0692881 0)
(0.115091 0.0466487 0)
(0.132575 0.0220512 0)
(0.151189 -0.00440481 0)
(0.171077 -0.0325268 0)
(0.192346 -0.0620141 0)
(0.215067 -0.0924794 0)
(0.239279 -0.1235 0)
(0.264997 -0.154664 0)
(0.292204 -0.185629 0)
(0.0993218 0.0370155 0)
(0.115783 0.0122433 0)
(0.133588 -0.0148294 0)
(0.152952 -0.0440978 0)
(0.174078 -0.0753122 0)
(0.19715 -0.108114 0)
(0.222323 -0.142066 0)
(0.249719 -0.176702 0)
(0.279405 -0.211581 0)
(0.311383 -0.246354 0)
(0.0977604 0.0057805 0)
(0.113626 -0.0218154 0)
(0.131241 -0.0522258 0)
(0.150927 -0.0853319 0)
(0.173026 -0.12087 0)
(0.19783 -0.15844 0)
(0.225554 -0.197565 0)
(0.256352 -0.237718 0)
(0.290304 -0.278221 0)
(0.327618 -0.318478 0)
(0.092969 -0.0235419 0)
(0.107892 -0.054699 0)
(0.124991 -0.0894237 0)
(0.144768 -0.127641 0)
(0.167706 -0.16909 0)
(0.194155 -0.213303 0)
(0.224405 -0.259544 0)
(0.259035 -0.307014 0)
(0.298104 -0.354365 0)
(0.343084 -0.401299 0)
(0.0856011 -0.0504329 0)
(0.0992973 -0.0858522 0)
(0.115552 -0.125924 0)
(0.134987 -0.170735 0)
(0.158246 -0.220081 0)
(0.186257 -0.272981 0)
(0.220192 -0.327479 0)
(0.26246 -0.384157 0)
(0.310942 -0.442734 0)
(0.368524 -0.507874 0)
(0.0770603 -0.0743965 0)
(0.0890953 -0.114511 0)
(0.103569 -0.160805 0)
(0.121228 -0.213824 0)
(0.144364 -0.272986 0)
(0.177382 -0.336778 0)
(0.220791 -0.406955 0)
(0.279139 -0.490391 0)
(0.348571 -0.569779 0)
(0.416963 -0.646785 0)
(0.068785 -0.0946289 0)
(0.0779594 -0.139041 0)
(0.0882275 -0.191698 0)
(0.102914 -0.253498 0)
(0.130012 -0.327161 0)
(0.178668 -0.423081 0)
(0.250134 -0.533616 0)
(0.324772 -0.640472 0)
(0.395246 -0.71847 0)
(0.454293 -0.773092 0)
(0.0611999 -0.109655 0)
(0.0650352 -0.156337 0)
(0.0691302 -0.212534 0)
(0.0831365 -0.287636 0)
(0.129226 -0.417392 0)
(0.21616 -0.586335 0)
(0.299803 -0.704534 0)
(0.363283 -0.776972 0)
(0.414864 -0.827999 0)
(0.461117 -0.866572 0)
(0.0520679 -0.116371 0)
(0.0489718 -0.159912 0)
(0.0496211 -0.218748 0)
(0.0777571 -0.351487 0)
(0.183952 -0.618567 0)
(0.2675 -0.760872 0)
(0.322742 -0.828947 0)
(0.37034 -0.874497 0)
(0.414195 -0.91408 0)
(0.454217 -0.94814 0)
(0.0393754 -0.110035 0)
(0.0307325 -0.148345 0)
(0.0287416 -0.225169 0)
(0.144816 -0.608158 0)
(0.232781 -0.79226 0)
(0.284915 -0.86929 0)
(0.327184 -0.916095 0)
(0.36714 -0.956554 0)
(0.404384 -0.992108 0)
(0.439008 -1.02089 0)
(0.0334069 -0.0967688 0)
(0.0222397 -0.141163 0)
(0.0816912 -0.430163 0)
(0.208603 -0.781842 0)
(0.260341 -0.892587 0)
(0.292714 -0.945062 0)
(0.325903 -0.987803 0)
(0.358198 -1.02572 0)
(0.388747 -1.05727 0)
(0.41705 -1.08073 0)
(0.0296598 -0.0787993 0)
(0.0350318 -0.121259 0)
(0.184843 -0.726831 0)
(0.228704 -0.888617 0)
(0.257576 -0.955122 0)
(0.285546 -1.00321 0)
(0.313629 -1.04596 0)
(0.340533 -1.08231 0)
(0.365724 -1.11022 0)
(0.388481 -1.1283 0)
(-0.0152503 -0.0687843 0)
(0.0413168 -0.480988 0)
(0.169421 -0.840819 0)
(0.215542 -0.954686 0)
(0.241104 -1.01055 0)
(0.268272 -1.05716 0)
(0.293946 -1.09801 0)
(0.317356 -1.13079 0)
(0.338358 -1.15366 0)
(0.35649 -1.16542 0)
(-0.0140382 -0.0330801 0)
(0.11932 -0.762662 0)
(0.175129 -0.944468 0)
(0.205644 -1.01554 0)
(0.229126 -1.06233 0)
(0.252315 -1.10522 0)
(0.273669 -1.14252 0)
(0.292985 -1.17083 0)
(0.30994 -1.18825 0)
(0.32405 -1.1935 0)
(0.000453988 -0.126663 0)
(0.16149 -0.884928 0)
(0.184434 -1.00535 0)
(0.19865 -1.0561 0)
(0.216067 -1.10105 0)
(0.234236 -1.14367 0)
(0.251661 -1.17888 0)
(0.267542 -1.20332 0)
(0.281275 -1.21567 0)
(0.292445 -1.21486 0)
(0.0710346 -0.740059 0)
(0.132367 -0.950662 0)
(0.162628 -1.03679 0)
(0.178079 -1.08766 0)
(0.195023 -1.13517 0)
(0.21199 -1.17784 0)
(0.227726 -1.21056 0)
(0.241482 -1.23094 0)
(0.252942 -1.2385 0)
(0.262004 -1.23264 0)
(0.0837653 -0.851084 0)
(0.128433 -1.01348 0)
(0.147588 -1.07426 0)
(0.161647 -1.12006 0)
(0.176483 -1.16672 0)
(0.190977 -1.20798 0)
(0.204166 -1.23758 0)
(0.215408 -1.25388 0)
(0.224602 -1.25735 0)
(0.231833 -1.24851 0)
(0.130074 -0.96282 0)
(0.134299 -1.05154 0)
(0.138789 -1.09326 0)
(0.146435 -1.14098 0)
(0.157325 -1.19111 0)
(0.168984 -1.23221 0)
(0.179349 -1.25862 0)
(0.187612 -1.27053 0)
(0.193468 -1.26945 0)
(0.196458 -1.25693 0)
(0.0781612 -0.969637 0)
(0.101986 -1.05233 0)
(0.110939 -1.10571 0)
(0.121968 -1.16216 0)
(0.134418 -1.21495 0)
(0.145707 -1.25364 0)
(0.154563 -1.27544 0)
(0.161041 -1.28227 0)
(0.165132 -1.27582 0)
(0.166376 -1.25736 0)
(0.0761468 -0.998122 0)
(0.0859504 -1.07102 0)
(0.0946793 -1.12682 0)
(0.105019 -1.18553 0)
(0.115665 -1.23729 0)
(0.124706 -1.2719 0)
(0.131543 -1.28917 0)
(0.136781 -1.29225 0)
(0.140879 -1.28221 0)
(0.142991 -1.25877 0)
(0.0587712 -1.02442 0)
(0.0642234 -1.08489 0)
(0.073687 -1.14362 0)
(0.0846551 -1.20524 0)
(0.0945805 -1.2557 0)
(0.102031 -1.28618 0)
(0.107307 -1.30004 0)
(0.111712 -1.30163 0)
(0.116356 -1.29152 0)
(0.119477 -1.26776 0)
(0.032804 -1.03682 0)
(0.0392479 -1.10054 0)
(0.0508638 -1.16444 0)
(0.0632722 -1.22647 0)
(0.0727182 -1.27256 0)
(0.0785802 -1.29741 0)
(0.0820968 -1.3078 0)
(0.0848852 -1.30871 0)
(0.0880962 -1.30044 0)
(0.0893635 -1.2804 0)
(0.007257 -1.04436 0)
(0.0175964 -1.1231 0)
(0.0316033 -1.18995 0)
(0.0443565 -1.24818 0)
(0.0526282 -1.28707 0)
(0.0568461 -1.30541 0)
(0.0588629 -1.31228 0)
(0.0602217 -1.31246 0)
(0.0617585 -1.30615 0)
(0.0611834 -1.29111 0)
(-0.0123325 -1.07026 0)
(0.00157406 -1.15441 0)
(0.0171013 -1.21688 0)
(0.0289212 -1.26777 0)
(0.0354771 -1.29825 0)
(0.0380761 -1.31032 0)
(0.0387981 -1.31408 0)
(0.0388873 -1.31365 0)
(0.0388826 -1.30917 0)
(0.0373102 -1.29904 0)
(-0.0196764 -1.11166 0)
(-0.0060794 -1.18713 0)
(0.00794975 -1.24049 0)
(0.0174509 -1.28331 0)
(0.0218878 -1.30557 0)
(0.0228504 -1.31209 0)
(0.0222383 -1.31314 0)
(0.0207854 -1.31196 0)
(0.018915 -1.3087 0)
(0.0165131 -1.30236 0)
(-0.0196612 -1.1533 0)
(-0.00854459 -1.21507 0)
(0.00261816 -1.25966 0)
(0.00969023 -1.29512 0)
(0.012115 -1.30951 0)
(0.0116931 -1.3112 0)
(0.00996722 -1.30968 0)
(0.00713945 -1.30731 0)
(0.00372225 -1.30426 0)
(0.000809273 -1.29983 0)
(-0.013537 -1.18974 0)
(-0.00651839 -1.23824 0)
(0.00157793 -1.27495 0)
(0.0066625 -1.30345 0)
(0.00694789 -1.31024 0)
(0.00513941 -1.30802 0)
(0.0024433 -1.30411 0)
(-0.00157714 -1.30019 0)
(-0.00625534 -1.2967 0)
(-0.00970871 -1.29311 0)
(0.00349543 -1.21929 0)
(0.0039354 -1.25328 0)
(0.00751902 -1.28336 0)
(0.00932033 -1.30586 0)
(0.00675423 -1.30632 0)
(0.00302495 -1.302 0)
(-0.000644975 -1.2963 0)
(-0.00573618 -1.29072 0)
(-0.0115554 -1.28641 0)
(-0.015609 -1.2832 0)
(0.0317739 -1.22378 0)
(0.0224442 -1.24984 0)
(0.0186241 -1.28031 0)
(0.0151297 -1.29984 0)
(0.00952657 -1.29647 0)
(0.00334127 -1.29278 0)
(-0.00102444 -1.2865 0)
(-0.00669045 -1.27928 0)
(-0.0134214 -1.27368 0)
(-0.0180404 -1.27048 0)
(0.0366893 -1.20675 0)
(0.0259638 -1.23369 0)
(0.0222578 -1.27196 0)
(0.0168954 -1.28882 0)
(0.01147 -1.28286 0)
(0.00335847 -1.2817 0)
(-0.000865951 -1.27636 0)
(-0.00606563 -1.2672 0)
(-0.0131168 -1.25917 0)
(-0.0181295 -1.2552 0)
(0.0308474 -1.18191 0)
(0.0236369 -1.21902 0)
(0.0235862 -1.26788 0)
(0.0158039 -1.27727 0)
(0.0126827 -1.26864 0)
(0.00261855 -1.27001 0)
(-0.000983511 -1.26807 0)
(-0.00480406 -1.25695 0)
(-0.0110583 -1.24404 0)
(-0.0159787 -1.23718 0)
(0.0180007 -1.15385 0)
(0.0168712 -1.21028 0)
(0.0250398 -1.26868 0)
(0.0130921 -1.26478 0)
(0.0132959 -1.25469 0)
(0.000847349 -1.25695 0)
(-0.00174805 -1.2616 0)
(-0.00448563 -1.25147 0)
(-0.00676496 -1.22996 0)
(-0.0104067 -1.21428 0)
(0.00646767 -1.10343 0)
(0.00502125 -1.21399 0)
(0.028009 -1.27132 0)
(0.00986305 -1.2501 0)
(0.0132971 -1.24123 0)
(-0.00169827 -1.2426 0)
(-0.0019308 -1.25225 0)
(-0.00852902 -1.25303 0)
(0.000459578 -1.22141 0)
(-0.00254733 -1.17801 0)
(0.0123971 -1.03389 0)
(-0.00937316 -1.24876 0)
(0.0319801 -1.27193 0)
(0.00517577 -1.2347 0)
(0.0118002 -1.22963 0)
(-0.00277011 -1.23058 0)
(0.00380907 -1.2366 0)
(-0.016884 -1.26221 0)
(0.0150801 -1.24491 0)
(-0.00249084 -1.10096 0)
(0.0437437 0.00175511 0)
(0.0417602 0.00272775 0)
(0.0389541 0.00374199 0)
(0.0353097 0.00465462 0)
(0.0309365 0.00527748 0)
(0.026152 0.00540933 0)
(0.0214851 0.00495119 0)
(0.0174505 0.00401191 0)
(0.0143415 0.00281186 0)
(0.0122585 0.00151163 0)
(0.0112293 0.000178301 0)
(0.0111116 -0.00077039 0)
(0.0116622 -0.00141452 0)
(0.0127251 -0.00200251 0)
(0.0141433 -0.00230561 0)
(0.0156472 -0.0021764 0)
(0.0169029 -0.00155629 0)
(0.0176039 -0.000445669 0)
(0.0172882 0.000956275 0)
(0.0159068 0.00211686 0)
(0.0139271 0.00242045 0)
(0.0121689 0.00178257 0)
(0.0111711 0.000697416 0)
(0.0109638 -0.000344985 0)
(0.011374 -0.0011384 0)
(0.01225 -0.00162678 0)
(0.0133546 -0.00171283 0)
(0.0143503 -0.00124709 0)
(0.0148299 -7.87753e-05 0)
(0.0140769 0.00172109 0)
(0.0117712 0.00358063 0)
(0.00861278 0.00369044 0)
(0.00581689 0.00255898 0)
(0.00410038 0.00124158 0)
(0.00316112 0.000549142 0)
(0.00249573 0.000357028 0)
(0.00200692 0.000524488 0)
(0.00155224 0.00067742 0)
(0.00106531 0.000798605 0)
(0.000643373 0.000997909 0)
(0.0406761 0.00395545 0)
(0.0394375 0.0059049 0)
(0.0376103 0.00801831 0)
(0.0350963 0.0100394 0)
(0.0318807 0.0115469 0)
(0.0281617 0.0120242 0)
(0.0244028 0.0112142 0)
(0.0210619 0.00937976 0)
(0.0183584 0.00699306 0)
(0.0163359 0.00444846 0)
(0.0149595 0.00201779 0)
(0.0141797 -2.11458e-05 0)
(0.013946 -0.00160818 0)
(0.0141301 -0.00271919 0)
(0.0145637 -0.00326161 0)
(0.0150904 -0.00304341 0)
(0.0155355 -0.0019989 0)
(0.0157101 -0.000170266 0)
(0.0154285 0.00210556 0)
(0.0145115 0.00400833 0)
(0.0131374 0.00451663 0)
(0.0118653 0.00340276 0)
(0.0110437 0.00163866 0)
(0.0106176 -4.16733e-05 0)
(0.0104879 -0.00137651 0)
(0.0105827 -0.00221521 0)
(0.0108225 -0.00235334 0)
(0.0110558 -0.00147939 0)
(0.0110727 0.000537057 0)
(0.0106992 0.00379323 0)
(0.00968903 0.00685952 0)
(0.00811229 0.00746753 0)
(0.00647203 0.00576549 0)
(0.00514753 0.00351383 0)
(0.00390532 0.00236139 0)
(0.00264319 0.00164421 0)
(0.00168765 0.00115592 0)