/*--------------------------------*- C++ -*----------------------------------*\
  =========                 |
  \\      /  F ield         | OpenFOAM: The Open Source CFD Toolbox
   \\    /   O peration     | Website:  https://openfoam.org
    \\  /    A nd           | Version:  8
     \\/     M anipulation  |
\*---------------------------------------------------------------------------*/
FoamFile
{
    version     2.0;
    format      ascii;
    class       volScalarField;
    location    "3.15";
    object      epsilon;
}
// * * * * * * * * * * * * * * * * * * * * * * * * * * * * * * * * * * * * * //

dimensions      [0 2 -3 0 0 0 0];

internalField   nonuniform List<scalar> 
9150
(
0.0313136
0.0124318
0.00309308
0.000936859
0.000445333
0.000445261
0.000936617
0.0030923
0.0124299
0.0313133
0.0302254
0.00873387
0.00172701
0.000601407
0.000335177
0.000335136
0.000601282
0.00172657
0.00873233
0.030225
0.028427
0.00693134
0.00111353
0.000492635
0.000299646
0.000299615
0.00049255
0.00111326
0.00692989
0.0284265
0.0264939
0.00599128
0.00083426
0.000459954
0.000288688
0.000288658
0.00045988
0.000834058
0.00598981
0.0264935
0.024491
0.005586
0.000695496
0.000452736
0.000286876
0.000286847
0.000452664
0.000695337
0.00558447
0.0244906
0.123669
0.0525333
0.0223272
0.0135878
0.00971197
0.00971362
0.0135938
0.0223418
0.0525625
0.123678
0.0761507
0.0230071
0.013018
0.0086332
0.00602909
0.00602945
0.00863528
0.0130228
0.0230075
0.0761468
0.0553824
0.0178714
0.00757136
0.00450165
0.00295445
0.00295437
0.00450199
0.00757154
0.0178682
0.0553793
0.0425185
0.0152108
0.00476844
0.00227271
0.0013388
0.00133866
0.00227244
0.00476748
0.0152074
0.0425168
0.0356137
0.0137048
0.00350547
0.00129112
0.0006763
0.000676191
0.0012908
0.0035045
0.0137021
0.0356127
1.84136
0.193861
0.0500105
0.0206987
0.0123002
0.0122724
0.0205321
0.0484936
0.178109
1.64906
0.280722
0.116729
0.0451375
0.0203863
0.0123779
0.0123676
0.0203538
0.0450112
0.115838
0.280274
0.235108
0.102753
0.0443808
0.0202222
0.0124627
0.0124609
0.0202135
0.0443417
0.102492
0.235357
0.196919
0.0911704
0.0436278
0.0199779
0.0125477
0.0125501
0.0199817
0.0436201
0.0911547
0.197014
0.156328
0.0862668
0.0400635
0.018806
0.0122111
0.0122144
0.0188143
0.0400802
0.0863222
0.156356
0.0329804
0.0336166
0.0342364
0.0348496
0.0354706
0.0360905
0.0366686
0.0372055
0.037707
0.0381786
0.0150633
0.0151951
0.0153322
0.0154797
0.0156429
0.0158203
0.0159986
0.0161742
0.0163465
0.016516
0.0120929
0.0121937
0.0123024
0.0124199
0.012547
0.012682
0.0128222
0.0129662
0.0131136
0.0132646
0.0114946
0.0116061
0.0117262
0.0118554
0.0119936
0.012141
0.0122964
0.0124589
0.0126285
0.0128054
0.0117781
0.0119227
0.0120775
0.0122426
0.0124184
0.012605
0.0128029
0.0130113
0.0132302
0.01346
0.0126205
0.012821
0.013034
0.0132598
0.0134988
0.0137513
0.0140189
0.014301
0.0145978
0.0149097
0.013957
0.0142412
0.0145413
0.0148579
0.0151915
0.0155428
0.0159129
0.0163031
0.0167133
0.0171438
0.0158172
0.0162199
0.0166436
0.0170889
0.0175565
0.0180474
0.0185626
0.0191049
0.0196738
0.0202695
0.0182781
0.0188431
0.0194358
0.0200569
0.0207074
0.0213882
0.0221009
0.0228485
0.0236314
0.0244497
0.0214441
0.0222236
0.0230392
0.0238917
0.024782
0.0257113
0.0266814
0.0276945
0.0287541
0.0298599
0.0254318
0.0264849
0.0275835
0.0287282
0.0299197
0.0311591
0.0324483
0.0337898
0.0351896
0.036648
0.0303555
0.0317447
0.0331886
0.0346875
0.0362417
0.0378524
0.0395212
0.0412513
0.0430505
0.0449221
0.0363109
0.0380971
0.0399461
0.0418573
0.043831
0.0458682
0.0479716
0.050145
0.0523943
0.0547329
0.0433591
0.0455965
0.0479013
0.0502725
0.0527101
0.0552161
0.0577941
0.0604494
0.0631893
0.0660347
0.0515172
0.0542485
0.057047
0.0599109
0.0628409
0.0658409
0.0689171
0.0720776
0.0753349
0.0787036
0.0607542
0.0640108
0.0673289
0.0707054
0.0741417
0.0776445
0.0812259
0.0848997
0.0886792
0.0925689
0.0709898
0.0747947
0.0786521
0.0825573
0.0865114
0.0905248
0.0946182
0.0988072
0.103088
0.107448
0.0820813
0.0864436
0.0908492
0.0952925
0.0997743
0.104306
0.10891
0.113598
0.118332
0.123082
0.0938432
0.0987513
0.103692
0.10866
0.113654
0.118682
0.123755
0.128873
0.133997
0.139081
0.106112
0.111547
0.117003
0.122471
0.127948
0.133434
0.138926
0.144412
0.14986
0.155231
0.118722
0.124665
0.130611
0.136552
0.14248
0.148386
0.154259
0.160081
0.16582
0.171443
0.131483
0.137904
0.144311
0.150693
0.157035
0.163325
0.169545
0.175672
0.18168
0.187535
0.14418
0.151043
0.157875
0.164661
0.171383
0.178024
0.184563
0.190978
0.19724
0.203322
0.156585
0.163851
0.171071
0.178225
0.185296
0.192263
0.199105
0.205797
0.212314
0.218628
0.168475
0.176104
0.183674
0.191167
0.198562
0.205839
0.212975
0.219946
0.226728
0.233293
0.179642
0.187595
0.195483
0.203288
0.210991
0.218568
0.225998
0.233256
0.240315
0.247148
0.189907
0.198149
0.206329
0.214429
0.222429
0.230308
0.238042
0.245605
0.252969
0.260103
0.199141
0.207645
0.216097
0.22448
0.232776
0.240964
0.249019
0.256914
0.264616
0.27209
0.207275
0.216017
0.224725
0.233387
0.241984
0.250498
0.258901
0.267164
0.275247
0.283109
0.2143
0.223262
0.232219
0.24116
0.250071
0.258933
0.267718
0.276392
0.28491
0.293215
0.220275
0.229449
0.238652
0.24788
0.257121
0.266358
0.275563
0.284698
0.293708
0.302524
0.225329
0.234715
0.244171
0.253698
0.263289
0.27293
0.282593
0.292235
0.301795
0.311189
0.229661
0.239276
0.249005
0.258854
0.268821
0.278893
0.289044
0.299229
0.309382
0.319406
0.233541
0.243425
0.25347
0.263683
0.274064
0.284602
0.295268
0.306013
0.316764
0.327417
0.237277
0.247506
0.257946
0.268605
0.279482
0.29056
0.301799
0.313137
0.324482
0.335714
0.241159
0.251855
0.262825
0.274079
0.285615
0.29741
0.309412
0.321539
0.333673
0.345666
0.245383
0.256709
0.268395
0.28046
0.29291
0.305727
0.318862
0.332224
0.34565
0.358847
0.249963
0.26208
0.274671
0.287766
0.301384
0.31552
0.330132
0.345093
0.360013
0.373442
0.254648
0.267658
0.281258
0.295484
0.310349
0.325824
0.341812
0.357837
0.371355
0.377713
0.258927
0.2728
0.287349
0.302588
0.318478
0.334917
0.351436
0.365447
0.371229
0.371533
0.262143
0.276702
0.291962
0.307881
0.32434
0.341011
0.356061
0.363246
0.363692
0.364269
0.263707
0.278689
0.294354
0.310617
0.327294
0.343417
0.354458
0.356227
0.356283
0.356973
0.263136
0.278175
0.293802
0.309875
0.326079
0.340764
0.348047
0.348437
0.349031
0.349763
0.260417
0.275283
0.290673
0.306417
0.32208
0.335473
0.340395
0.340971
0.341858
0.342807
0.25575
0.27024
0.28522
0.300527
0.315795
0.328859
0.333603
0.334121
0.334984
0.336184
0.249247
0.263057
0.277259
0.291683
0.306063
0.31923
0.32614
0.327467
0.328874
0.330637
0.241492
0.254479
0.267758
0.281151
0.294381
0.306868
0.316964
0.321626
0.324003
0.326522
0.233347
0.245596
0.258141
0.270848
0.283533
0.295927
0.307534
0.316807
0.321842
0.325025
0.225478
0.237131
0.249153
0.261464
0.27396
0.286499
0.298878
0.31072
0.320895
0.327544
0.218351
0.229556
0.241233
0.253344
0.265841
0.278654
0.291679
0.304736
0.317556
0.329445
0.212247
0.223178
0.234684
0.246752
0.259365
0.272492
0.286079
0.300022
0.314135
0.32818
0.207394
0.218235
0.229746
0.241916
0.254732
0.268171
0.282193
0.296723
0.311642
0.326799
0.20394
0.214905
0.226625
0.239071
0.252222
0.266047
0.2805
0.295507
0.310972
0.326788
0.202249
0.213564
0.225718
0.238664
0.252365
0.266777
0.281837
0.297465
0.313563
0.330027
0.202658
0.21467
0.227628
0.241462
0.256091
0.271448
0.287463
0.304061
0.321163
0.338692
0.205775
0.219154
0.23362
0.248943
0.265057
0.281886
0.299385
0.317539
0.336337
0.35578
0.21215
0.227491
0.244586
0.262506
0.281056
0.300251
0.32018
0.341009
0.362878
0.38593
0.222989
0.241238
0.262718
0.285348
0.307886
0.330696
0.354465
0.379883
0.407369
0.437245
0.240053
0.263265
0.292128
0.323693
0.352226
0.380234
0.410137
0.443694
0.481658
0.524454
0.265154
0.296116
0.335682
0.383638
0.424111
0.459843
0.500845
0.550388
0.608824
0.676335
0.300281
0.342462
0.397899
0.468358
0.533178
0.586623
0.650842
0.732299
0.827699
0.940519
0.347371
0.40431
0.478559
0.569865
0.66725
0.770021
0.882961
1.0119
1.1765
1.39847
0.409834
0.485551
0.587337
0.716237
0.862441
1.01693
1.2012
1.45377
1.79733
2.24091
0.493756
0.603625
0.750781
0.928204
1.13515
1.41233
1.79652
2.31887
2.97411
3.72475
0.620944
0.78366
0.995611
1.27298
1.65514
2.19268
2.93301
3.87466
4.9591
6.11187
0.824473
1.08298
1.44637
1.96277
2.69016
3.69819
5.04395
6.60198
8.22764
9.67476
1.2025
1.66614
2.33902
3.30734
4.68601
6.58809
8.8692
11.0676
12.4907
12.5507
1.94139
2.82244
4.11281
5.96465
8.56977
11.9513
14.8039
15.5266
14.3987
12.5137
3.3762
5.0889
7.57523
11.079
15.8066
19.1284
18.4612
15.8076
13.1792
11.0104
6.09774
9.35638
14.0451
20.464
24.1741
21.3666
17.2567
13.9036
11.3348
9.36713
10.6842
16.4366
24.8756
30.0654
24.7177
19.0732
14.867
11.7793
9.49772
7.80336
17.6126
27.0724
36.0665
29.5662
21.8365
16.3485
12.495
9.75912
7.81187
6.4382
27.9703
41.3083
36.2427
25.6923
18.4738
13.5747
10.2204
7.92623
6.38563
5.39035
40.0336
41.552
29.8534
21.0069
14.9571
10.8771
8.15599
6.39406
5.32045
4.73973
45.6667
35.1248
24.16
16.6954
11.7398
8.5001
6.45511
5.26117
4.67606
4.51744
39.7485
27.1856
18.5012
12.7057
8.92509
6.55231
5.19082
4.56366
4.46105
4.71566
29.9015
20.3104
13.7991
9.48822
6.73413
5.12962
4.39122
4.29367
4.65135
5.30783
22.1962
15.1828
10.3971
7.18523
5.19968
4.21487
4.01763
4.40585
5.20399
6.26349
17.4417
12.2237
8.3757
5.73197
4.22643
3.71724
3.98899
4.83003
6.06256
7.55033
15.8857
11.252
7.42643
4.88759
3.64903
3.51311
4.20393
5.48128
7.16096
9.1288
16.8832
11.616
7.1619
4.43375
3.32328
3.48793
4.56501
6.28043
8.44077
10.9546
20.0495
12.8089
7.33544
4.22595
3.13641
3.54242
4.98548
7.16015
9.85529
12.9663
24.848
14.5417
7.79023
4.15481
2.99915
3.59768
5.3966
8.07327
11.3956
15.1809
30.3617
16.5197
8.35518
4.11397
2.84649
3.60104
5.74913
8.99019
13.1005
17.8013
35.0978
18.2954
8.76626
3.99916
2.63926
3.5209
5.99682
9.85775
14.9623
20.9951
38.1638
19.2081
8.77029
3.73704
2.36333
3.33971
6.08739
10.5786
16.875
24.7763
39.1591
19.0486
8.30215
3.32956
2.03371
3.0556
5.97132
11.0233
18.6417
29.0089
38.8813
18.0514
7.48253
2.84516
1.68645
2.68234
5.60834
11.0237
19.9168
33.353
37.132
16.4477
6.50574
2.37481
1.36113
2.24942
4.98843
10.3944
20.0821
36.6555
35.1592
14.7839
5.57767
1.97907
1.08294
1.80198
4.17489
9.08244
18.4349
36.0521
32.3752
12.756
4.63481
1.6406
0.854862
1.38653
3.30265
7.31775
15.0123
29.4028
26.7403
10.0188
3.66398
1.34928
0.67212
1.03196
2.50945
5.60684
11.5056
22.3673
18.5463
7.2025
2.83079
1.11531
0.526707
0.742631
1.84564
4.16086
8.54655
16.5709
11.8147
5.09376
2.21097
0.926291
0.406479
0.511138
1.31016
2.99108
6.1521
11.9086
7.75607
3.72778
1.75411
0.75889
0.300934
0.32911
0.890889
2.07196
4.26067
8.20796
5.38522
2.80637
1.38128
0.593295
0.204828
0.191581
0.573047
1.37614
2.82532
5.38146
3.89654
2.11233
1.04099
0.421481
0.120259
0.0962251
0.340856
0.871235
1.79146
3.33508
2.78059
1.51434
0.70966
0.251233
0.0563703
0.0408647
0.17934
0.519444
1.09093
1.93701
1.7753
0.968423
0.397571
0.110253
0.0222128
0.0178897
0.0776339
0.281844
0.657715
1.07725
1.03912
0.527478
0.154425
0.0346833
0.0129972
0.0126507
0.0297109
0.124538
0.414735
0.760772
0.0386279
0.0391026
0.0395608
0.0400046
0.0404349
0.0408486
0.0412368
0.0415831
0.0418628
0.0420418
0.0420766
0.041915
0.0414981
0.040764
0.0396547
0.0381266
0.0361685
0.0338266
0.0312342
0.0286352
0.0263672
0.0247415
0.0238024
0.0232536
0.0227754
0.0222461
0.0216196
0.020837
0.0198509
0.0186297
0.0171515
0.0154211
0.0134817
0.0114166
0.00933322
0.00731122
0.00539687
0.0038496
0.00087846
0.00198824
0.0166869
0.0168716
0.0170573
0.0172435
0.0174295
0.0176133
0.0177912
0.0179568
0.018101
0.0182113
0.018272
0.0182645
0.0181682
0.0179623
0.0176289
0.0171568
0.0165489
0.0158286
0.0150466
0.0142807
0.0136188
0.0131167
0.0127463
0.0124196
0.0120924
0.0117799
0.0114726
0.0111295
0.0107148
0.0102023
0.00957401
0.00882443
0.00796526
0.00702989
0.00607308
0.00515328
0.00431058
0.00356516
0.00293618
0.00349688
0.0134245
0.0136021
0.0137877
0.0139813
0.0141826
0.0143904
0.0146019
0.0148122
0.0150139
0.0151976
0.0153513
0.0154617
0.0155148
0.0154969
0.0153962
0.0152052
0.014923
0.014561
0.0141492
0.0137404
0.0134022
0.0131901
0.0130568
0.0128753
0.0126489
0.0124674
0.0123168
0.0121151
0.0118229
0.0114215
0.0108984
0.0102447
0.00945633
0.00854855
0.00758201
0.00665893
0.00587323
0.00524702
0.0049318
0.005801
0.0129972
0.0132132
0.0134427
0.0136865
0.013945
0.0142176
0.0145019
0.0147935
0.0150854
0.0153685
0.0156323
0.0158658
0.0160584
0.016201
0.0162862
0.0163099
0.016272
0.0161797
0.0160537
0.0159297
0.015838
0.0157894
0.0157115
0.0155453
0.0153738
0.0152929
0.0152174
0.0150298
0.0147325
0.0143323
0.01383
0.0132159
0.0124687
0.0115611
0.0104979
0.00938295
0.00838886
0.00751067
0.00693412
0.00769341
0.0137114
0.0139957
0.0142996
0.0146246
0.014972
0.0153419
0.0157322
0.0161381
0.0165516
0.0169628
0.0173607
0.0177355
0.0180788
0.0183852
0.0186528
0.0188833
0.0190833
0.0192634
0.0194313
0.0195792
0.0196934
0.0197547
0.0197392
0.0196558
0.0195733
0.019473
0.0192453
0.0189073
0.0184993
0.0180287
0.0175
0.0169106
0.016248
0.0154854
0.0145552
0.0133877
0.012024
0.0106407
0.00953501
0.00881957
0.0152516
0.0156381
0.0160512
0.0164936
0.0169676
0.0174742
0.0180116
0.0185735
0.0191494
0.0197262
0.020291
0.0208331
0.0213459
0.0218269
0.0222781
0.0227057
0.0231191
0.0235273
0.02393
0.0243016
0.0245987
0.0247898
0.0248799
0.0248633
0.0247184
0.0244471
0.0240353
0.023538
0.02299
0.0224111
0.0218172
0.0212148
0.020593
0.019923
0.0191276
0.0180731
0.0167039
0.015204
0.0143239
0.0374409
0.0176155
0.0181469
0.0187132
0.0193181
0.0199655
0.020658
0.0213937
0.0221641
0.0229527
0.0237395
0.0245062
0.0252406
0.0259364
0.0265932
0.0272155
0.0278113
0.028389
0.0289538
0.0295002
0.0300042
0.0304199
0.0306898
0.0307792
0.0306902
0.0304781
0.0301169
0.0296097
0.0290021
0.0283354
0.0276465
0.02697
0.0263214
0.0256777
0.0250041
0.0242477
0.0233206
0.0221622
0.0209153
0.0200388
0.00884927
0.020921
0.0216518
0.0224265
0.0232498
0.0241274
0.0250641
0.0260596
0.0271005
0.0281579
0.0291969
0.030191
0.0311255
0.0319958
0.0328043
0.0335585
0.034268
0.0349416
0.0355811
0.0361763
0.0367
0.0371092
0.0373549
0.0374084
0.037279
0.0370132
0.036607
0.0360684
0.0354164
0.0346804
0.0339084
0.0331531
0.0324431
0.0317462
0.0310362
0.0302884
0.0294816
0.0286227
0.0278572
0.0279346
0.0379671
0.0253428
0.0263403
0.0273923
0.0285029
0.0296783
0.0309267
0.0322515
0.0336315
0.03501
0.0363244
0.0375419
0.0386524
0.039657
0.0405633
0.0413843
0.0421357
0.0428312
0.0434754
0.0440559
0.0445412
0.0448886
0.0450605
0.0450423
0.0448505
0.0445191
0.04407
0.0435146
0.0428594
0.0421147
0.041309
0.0404832
0.039656
0.0388262
0.038005
0.0371998
0.0364356
0.0357868
0.0355112
0.036775
0.0500551
0.0310653
0.0324082
0.0338195
0.035302
0.0368596
0.0385003
0.0402292
0.042012
0.0437298
0.0452892
0.0466819
0.0479143
0.0489944
0.0499345
0.0507541
0.0514802
0.0521411
0.052752
0.0532988
0.0537371
0.0540117
0.0540813
0.0539383
0.0536131
0.0531583
0.0526188
0.0520144
0.0513439
0.0506018
0.0497821
0.0488857
0.0479237
0.0469376
0.0459777
0.0451107
0.0444207
0.0440565
0.0445105
0.0477538
0.0690496
0.0382364
0.0400038
0.0418598
0.0438084
0.0458533
0.0479988
0.0502257
0.0524056
0.0543676
0.0560804
0.0575872
0.0588973
0.060014
0.0609469
0.0617201
0.0623764
0.0629699
0.0635368
0.0640594
0.064465
0.0646699
0.0646179
0.0642995
0.0637666
0.0631117
0.0624134
0.0616963
0.0609382
0.0601132
0.0592042
0.0581974
0.0571075
0.0559844
0.0549147
0.0540245
0.0534668
0.053501
0.0548815
0.0605965
0.0943967
0.0469598
0.0492262
0.0516077
0.0541088
0.0567244
0.0594231
0.0620987
0.0645603
0.0666959
0.0685462
0.0701577
0.0715374
0.0726856
0.0736082
0.0743297
0.0749073
0.0754262
0.0759472
0.0764428
0.0768046
0.0769265
0.0767432
0.0762282
0.0754467
0.0745391
0.073622
0.0727191
0.071776
0.0707539
0.0696516
0.068461
0.0671891
0.0658747
0.0646219
0.0636433
0.0632064
0.0636871
0.0661193
0.0746693
0.124438
0.05728
0.0601146
0.0630915
0.0661955
0.06937
0.0725098
0.075459
0.0781021
0.0804138
0.0824255
0.0841624
0.0856341
0.0868455
0.087805
0.0885398
0.0891106
0.0896042
0.0900705
0.0904644
0.0906742
0.090636
0.0903104
0.0896457
0.0886864
0.0875758
0.0864281
0.0852581
0.0840014
0.082629
0.08119
0.079703
0.0781554
0.0765351
0.0749625
0.0737259
0.0732471
0.0741309
0.0777637
0.0896557
0.156838
0.069135
0.0725792
0.0761603
0.0798026
0.0833878
0.0867937
0.0899288
0.0927457
0.0952316
0.0973975
0.099261
0.100839
0.102149
0.103216
0.104086
0.10481
0.105402
0.105818
0.105985
0.105883
0.105558
0.105026
0.104277
0.103339
0.102218
0.100876
0.0993359
0.0976403
0.0958083
0.0939138
0.0919918
0.0900112
0.087935
0.0859048
0.0842871
0.0836642
0.0848325
0.0896322
0.105163
0.191479
0.0823657
0.0863898
0.0904738
0.0944903
0.0983335
0.101935
0.10524
0.108214
0.110844
0.113139
0.115114
0.116796
0.118218
0.119423
0.120463
0.121354
0.122035
0.122431
0.122486
0.122183
0.121581
0.120746
0.119827
0.118896
0.117783
0.11632
0.114535
0.112482
0.110239
0.107836
0.105306
0.102702
0.100101
0.0976247
0.0955524
0.0945821
0.0958067
0.101635
0.121115
0.229519
0.0967459
0.101239
0.105676
0.109954
0.11401
0.117788
0.121241
0.124341
0.127082
0.129472
0.131532
0.133295
0.1348
0.136093
0.137214
0.138174
0.138914
0.139341
0.139364
0.13894
0.138133
0.137068
0.1359
0.134712
0.133416
0.131865
0.129956
0.127647
0.124983
0.12207
0.119034
0.115995
0.113044
0.110183
0.107658
0.106135
0.107005
0.113296
0.136002
0.270302
0.112052
0.116898
0.12161
0.126116
0.130354
0.134276
0.137845
0.141043
0.143866
0.146326
0.148446
0.15026
0.151809
0.153132
0.15426
0.1552
0.1559
0.156263
0.15618
0.155598
0.15462
0.153405
0.152059
0.15058
0.148893
0.146954
0.144693
0.142075
0.139182
0.136054
0.132734
0.129331
0.126029
0.122927
0.120141
0.118195
0.118579
0.124901
0.150013
0.309745
0.128034
0.133184
0.138142
0.14284
0.147228
0.151268
0.154935
0.158215
0.16111
0.163633
0.165806
0.167658
0.169222
0.170526
0.171586
0.172392
0.172895
0.173009
0.172673
0.17191
0.170808
0.169443
0.16786
0.166044
0.163954
0.161579
0.158902
0.15596
0.152835
0.149514
0.145983
0.142322
0.138732
0.135383
0.13241
0.130248
0.130266
0.136484
0.163402
0.339979
0.144339
0.149758
0.154941
0.159825
0.164367
0.168535
0.172311
0.175687
0.178663
0.181252
0.183472
0.185345
0.186891
0.188122
0.189041
0.18963
0.189849
0.189652
0.189022
0.187997
0.186636
0.184983
0.183066
0.180889
0.178442
0.175725
0.172748
0.169554
0.166188
0.162645
0.15892
0.155074
0.151257
0.147634
0.144396
0.141981
0.141632
0.14744
0.174829
0.352893
0.160743
0.166392
0.171784
0.176857
0.181569
0.185887
0.189794
0.193281
0.19635
0.199008
0.201265
0.203135
0.204626
0.205739
0.206469
0.206798
0.206703
0.206165
0.205186
0.2038
0.202059
0.200013
0.197705
0.195162
0.192402
0.189431
0.186254
0.182885
0.179342
0.175624
0.17174
0.16774
0.163734
0.159888
0.156463
0.153964
0.153486
0.158393
0.184712
0.366548
0.177184
0.183043
0.188624
0.193873
0.198748
0.203217
0.207261
0.210867
0.214033
0.216759
0.219047
0.2209
0.222318
0.223294
0.223818
0.223874
0.22345
0.22254
0.221158
0.219342
0.217152
0.214657
0.211927
0.209026
0.205995
0.202844
0.199558
0.196118
0.192504
0.188701
0.18471
0.180569
0.176372
0.172294
0.168639
0.16598
0.165519
0.170177
0.195113
0.383806
0.193494
0.199559
0.205327
0.21075
0.215788
0.220411
0.224596
0.228327
0.231596
0.234395
0.23672
0.238564
0.239919
0.240773
0.241109
0.240914
0.240174
0.238892
0.237086
0.234805
0.232123
0.229144
0.225984
0.222756
0.219529
0.21631
0.213049
0.209677
0.206129
0.202358
0.198341
0.194098
0.189703
0.185327
0.181298
0.178254
0.177534
0.182188
0.20512
0.381506
0.209497
0.215773
0.221736
0.227342
0.232554
0.23734
0.241676
0.245544
0.24893
0.25182
0.254205
0.256072
0.257405
0.258187
0.258397
0.258015
0.257027
0.255428
0.253239
0.250512
0.247342
0.243876
0.240301
0.236806
0.23351
0.230401
0.227356
0.224229
0.22091
0.217322
0.213422
0.209201
0.204705
0.200072
0.195607
0.191964
0.19056
0.194647
0.216995
0.380012
0.225026
0.231523
0.237696
0.243501
0.248902
0.253868
0.258373
0.262396
0.26592
0.26893
0.271414
0.273354
0.274733
0.27553
0.275719
0.275275
0.274174
0.272404
0.269972
0.266925
0.263369
0.259492
0.25557
0.251913
0.248719
0.245936
0.2433
0.240571
0.237617
0.234357
0.230731
0.2267
0.222259
0.217469
0.21254
0.208029
0.205307
0.207776
0.228587
0.381325
0.239922
0.246658
0.253061
0.259087
0.264698
0.269861
0.274551
0.278746
0.28243
0.285589
0.288211
0.290282
0.291787
0.292706
0.293015
0.292684
0.291684
0.28999
0.287593
0.28452
0.280864
0.276836
0.272794
0.269184
0.26631
0.264034
0.261873
0.259551
0.25699
0.254125
0.250876
0.247161
0.242907
0.238072
0.232712
0.227178
0.22273
0.223175
0.242694
0.383106
0.254043
0.261048
0.267708
0.273977
0.279815
0.285188
0.290071
0.294444
0.298295
0.301614
0.304398
0.306642
0.308339
0.309479
0.310046
0.310017
0.309366
0.308064
0.306093
0.303462
0.300252
0.29668
0.293146
0.290121
0.287884
0.286169
0.284302
0.282214
0.279965
0.277465
0.274591
0.271228
0.267254
0.262574
0.257184
0.251269
0.245598
0.243705
0.260379
0.39935
0.26731
0.274605
0.281546
0.288077
0.294153
0.299737
0.304804
0.309338
0.313335
0.316796
0.319731
0.322151
0.324067
0.325486
0.326411
0.326836
0.326753
0.32615
0.325026
0.32341
0.321411
0.319307
0.317495
0.316202
0.315267
0.314111
0.312397
0.31042
0.308348
0.306013
0.303303
0.300089
0.296228
0.291633
0.286341
0.280529
0.27457
0.271287
0.286002
0.431042
0.279646
0.28728
0.294532
0.301341
0.307655
0.313433
0.318651
0.323302
0.327392
0.330941
0.33398
0.336542
0.338666
0.340385
0.341729
0.342725
0.343396
0.343772
0.343904
0.343888
0.343907
0.344281
0.345297
0.346689
0.347855
0.348201
0.347626
0.346352
0.344481
0.34206
0.339192
0.335709
0.331469
0.326413
0.320614
0.314375
0.308372
0.305446
0.321128
0.473666
0.291068
0.299108
0.30669
0.313785
0.320323
0.32626
0.331574
0.33627
0.340374
0.343933
0.347008
0.349667
0.351981
0.35402
0.35585
0.357532
0.359133
0.36073
0.362428
0.364381
0.366802
0.36995
0.374012
0.378655
0.383043
0.38645
0.388595
0.389437
0.388854
0.386989
0.384135
0.380137
0.375061
0.368913
0.361815
0.354211
0.34728
0.345056
0.365336
0.525026
0.301637
0.310135
0.318104
0.32549
0.332229
0.338271
0.343605
0.348254
0.352277
0.355761
0.35881
0.361537
0.364057
0.366478
0.3689
0.371419
0.37413
0.377136
0.380562
0.384563
0.389328
0.395032
0.401767
0.409368
0.417228
0.424478
0.430486
0.435011
0.437799
0.438787
0.437566
0.433888
0.428368
0.421099
0.41234
0.402818
0.394195
0.391898
0.417223
0.590906
0.311482
0.320511
0.328932
0.336608
0.343507
0.349579
0.354833
0.359327
0.363167
0.366495
0.369477
0.372284
0.375077
0.378002
0.381186
0.384741
0.388769
0.393369
0.398646
0.404715
0.411696
0.419693
0.428726
0.438638
0.449038
0.459412
0.46923
0.477892
0.484961
0.490174
0.49282
0.492551
0.489091
0.482251
0.472774
0.461835
0.451485
0.448469
0.478411
0.676173
0.320762
0.3304
0.339327
0.347341
0.354323
0.360315
0.365362
0.369573
0.373116
0.376214
0.379112
0.38205
0.385236
0.388843
0.393008
0.397838
0.403418
0.409819
0.417105
0.42533
0.434548
0.444788
0.456021
0.468112
0.480797
0.493696
0.506359
0.51832
0.529113
0.538192
0.54483
0.54871
0.549276
0.546007
0.539064
0.529412
0.519429
0.516938
0.552577
0.781806
0.329664
0.339999
0.3495
0.357844
0.364842
0.370578
0.375255
0.379029
0.382138
0.384918
0.387727
0.390878
0.394615
0.399117
0.404506
0.410859
0.418223
0.426625
0.436079
0.446585
0.458146
0.470755
0.484368
0.498871
0.514061
0.529636
0.545206
0.560302
0.57434
0.586618
0.596468
0.603481
0.607237
0.607639
0.605137
0.600167
0.594967
0.597715
0.642723
0.908208
0.338368
0.349429
0.359553
0.368208
0.37504
0.380289
0.384409
0.387589
0.3901
0.392453
0.39518
0.39866
0.403141
0.408772
0.415634
0.423751
0.433116
0.443704
0.455479
0.468404
0.482456
0.497613
0.513844
0.531073
0.549148
0.567808
0.586651
0.605124
0.622543
0.638156
0.651251
0.661272
0.66791
0.671318
0.672116
0.671381
0.672555
0.685744
0.749669
1.05486
0.347275
0.359045
0.369914
0.378834
0.384873
0.389081
0.392397
0.394789
0.396498
0.398367
0.401125
0.405149
0.410626
0.417649
0.426235
0.43635
0.44793
0.4609
0.475184
0.490721
0.507479
0.525442
0.544602
0.564923
0.5863
0.608496
0.631085
0.653422
0.674703
0.694052
0.710614
0.723719
0.733066
0.738894
0.742105
0.744675
0.751437
0.776204
0.868523
1.22408
0.357906
0.370049
0.381177
0.390062
0.394367
0.396202
0.398052
0.399421
0.400287
0.401936
0.405146
0.410105
0.416902
0.425587
0.436132
0.448462
0.462478
0.478066
0.495123
0.513575
0.533387
0.554556
0.577101
0.601024
0.626263
0.652608
0.679597
0.706471
0.732273
0.755917
0.776298
0.792523
0.804188
0.811654
0.816322
0.821203
0.832819
0.868629
0.991711
1.42748
0.371888
0.38282
0.389442
0.394177
0.397118
0.396964
0.397657
0.399556
0.401034
0.403259
0.407435
0.413656
0.421991
0.432495
0.445139
0.459846
0.476507
0.494993
0.515188
0.537012
0.560426
0.585429
0.612039
0.640274
0.67011
0.701393
0.73366
0.766049
0.79739
0.826242
0.851019
0.870375
0.883675
0.891458
0.895842
0.901162
0.916014
0.961825
1.11707
1.67557
0.382363
0.385746
0.387668
0.390058
0.391418
0.391803
0.393124
0.395618
0.398587
0.402488
0.408185
0.415927
0.425907
0.438254
0.453003
0.470143
0.489604
0.511265
0.535029
0.56083
0.588634
0.618401
0.650062
0.683568
0.718938
0.756163
0.794925
0.834335
0.872925
0.908609
0.938879
0.96148
0.975294
0.981113
0.982168
0.984672
0.999921
1.05408
1.24258
1.97207
0.379204
0.380281
0.381591
0.382751
0.384088
0.385737
0.388138
0.391429
0.395564
0.400944
0.4081
0.417301
0.428792
0.442797
0.459476
0.478952
0.501252
0.52628
0.553988
0.5844
0.617538
0.6533
0.691349
0.731434
0.773568
0.818051
0.865098
0.914019
0.962827
1.00835
1.04644
1.07292
1.08555
1.08558
1.0783
1.0729
1.08426
1.14402
1.36543
2.31527
0.372237
0.373265
0.374413
0.375926
0.377893
0.380428
0.383731
0.387924
0.393112
0.399623
0.407866
0.418161
0.430804
0.44611
0.464391
0.485944
0.510999
0.539545
0.571485
0.606977
0.646498
0.690115
0.736775
0.785635
0.836403
0.890058
0.948552
1.01156
1.07536
1.13524
1.18497
1.21689
1.22584
1.21362
1.18981
1.16873
1.17
1.23109
1.48399
2.69515
0.365105
0.3662
0.367714
0.369685
0.372195
0.375397
0.379436
0.384432
0.390535
0.397995
0.407133
0.41827
0.431744
0.447941
0.467309
0.490367
0.5177
0.549797
0.586797
0.628696
0.676891
0.732429
0.791931
0.852505
0.912165
0.975754
1.05164
1.13826
1.22608
1.31047
1.37979
1.41808
1.41663
1.37961
1.32536
1.27713
1.25998
1.31622
1.59577
3.09557
0.3579
0.359285
0.361131
0.363497
0.366493
0.370252
0.374899
0.380558
0.387382
0.395575
0.40539
0.417117
0.431087
0.447706
0.467497
0.491152
0.51959
0.55407
0.596492
0.649633
0.714248
0.782792
0.843073
0.90385
0.963486
1.03131
1.12508
1.2461
1.38413
1.52951
1.65668
1.71859
1.69299
1.6048
1.49504
1.40305
1.35739
1.40172
1.70041
3.49541
0.350848
0.352464
0.354595
0.357317
0.360725
0.364929
0.370047
0.376202
0.383535
0.392219
0.40246
0.414503
0.428646
0.445271
0.464897
0.488261
0.516418
0.550927
0.594309
0.650556
0.720655
0.780944
0.835339
0.905001
0.984877
1.0665
1.14834
1.25688
1.41896
1.63245
1.86623
2.06838
2.08788
1.91121
1.70549
1.54778
1.46277
1.48905
1.79851
3.87257
0.34412
0.345984
0.348393
0.35142
0.355149
0.359682
0.365131
0.371624
0.37929
0.38828
0.39877
0.410969
0.425134
0.441593
0.460794
0.483359
0.510127
0.54216
0.580608
0.625936
0.676106
0.73007
0.791155
0.865397
0.956669
1.07023
1.20006
1.3101
1.4178
1.59756
1.86136
2.17152
2.41968
2.28412
1.9484
1.70383
1.57172
1.57718
1.89197
4.20995
0.337843
0.340071
0.342816
0.346144
0.350145
0.354929
0.360619
0.367354
0.375263
0.384491
0.395201
0.40758
0.421849
0.438282
0.457218
0.479089
0.504435
0.533829
0.567498
0.605328
0.647731
0.695634
0.751531
0.818843
0.901407
1.00513
1.13891
1.31171
1.46181
1.59024
1.81961
2.15852
2.50838
2.56693
2.18985
1.85289
1.67539
1.66324
1.98503
4.50187
0.332797
0.335418
0.338458
0.342019
0.34622
0.351192
0.357075
0.364027
0.37219
0.381715
0.392763
0.405511
0.420161
0.436942
0.456089
0.47784
0.502451
0.530166
0.561071
0.595278
0.63341
0.676665
0.727001
0.787084
0.860392
0.952073
1.06988
1.2245
1.42008
1.58358
1.76196
2.06576
2.45091
2.69445
2.37328
1.96848
1.75961
1.73902
2.0753
4.73784
0.329262
0.332296
0.335627
0.339416
0.343817
0.348992
0.355104
0.362332
0.370851
0.380829
0.392436
0.405853
0.421293
0.438973
0.45906
0.481596
0.506533
0.533829
0.563525
0.595778
0.631071
0.670404
0.715385
0.768258
0.831984
0.91071
1.01048
1.14005
1.31175
1.51548
1.69136
1.93964
2.31241
2.66421
2.43044
2.02174
1.81219
1.7985
2.15199
4.90632
0.328212
0.331607
0.33526
0.339318
0.343957
0.349374
0.35576
0.363323
0.372297
0.38289
0.395288
0.40969
0.426368
0.445624
0.4676
0.492084
0.518562
0.546595
0.576157
0.607403
0.640497
0.676157
0.715864
0.761686
0.816173
0.882599
0.965466
1.07122
1.2094
1.39453
1.60047
1.80664
2.1262
2.51384
2.37654
2.01216
1.83286
1.84363
2.22037
5.03266
0.33185
0.335545
0.33952
0.343843
0.348672
0.354251
0.360821
0.368615
0.377988
0.389228
0.402533
0.418113
0.436392
0.45796
0.483077
0.511104
0.540552
0.570205
0.600288
0.631054
0.661969
0.693493
0.727493
0.766314
0.812271
0.867866
0.936227
1.02166
1.13039
1.272
1.46092
1.67555
1.93027
2.27812
2.23134
1.95244
1.83077
1.88217
2.2903
5.14738
0.339126
0.345886
0.351092
0.355736
0.360694
0.366223
0.372693
0.380396
0.38985
0.401509
0.415572
0.432259
0.452261
0.476822
0.506656
0.540657
0.575007
0.60649
0.637226
0.667804
0.695436
0.721014
0.748383
0.780513
0.819289
0.866315
0.923394
0.992959
1.07864
1.18617
1.32476
1.5082
1.73819
1.99459
2.00453
1.86003
1.82033
1.92501
2.37381
5.28912
0.342661
0.356591
0.367736
0.376367
0.383228
0.388739
0.394565
0.401532
0.410352
0.421774
0.436166
0.45367
0.475298
0.503164
0.539044
0.58219
0.624316
0.657656
0.689696
0.719983
0.739836
0.755805
0.776153
0.803233
0.837413
0.879037
0.928648
0.987187
1.05638
1.13943
1.24206
1.37361
1.54706
1.73706
1.78571
1.77318
1.82085
1.98344
2.48229
5.49986
0.343043
0.360347
0.378042
0.395195
0.408309
0.418318
0.427222
0.43501
0.4431
0.453592
0.467278
0.485079
0.507673
0.537884
0.57928
0.626771
0.671362
0.71623
0.754289
0.77779
0.789752
0.797748
0.81295
0.837441
0.86992
0.909259
0.954841
1.00651
1.0646
1.13077
1.20877
1.30466
1.42468
1.56859
1.67172
1.73748
1.84993
2.06534
2.62304
5.81489
0.343897
0.362121
0.380418
0.398467
0.416184
0.434587
0.452134
0.46666
0.481269
0.498087
0.514711
0.531188
0.550872
0.577515
0.6144
0.652878
0.693588
0.740697
0.780178