/*--------------------------------*- C++ -*----------------------------------*\
  =========                 |
  \\      /  F ield         | OpenFOAM: The Open Source CFD Toolbox
   \\    /   O peration     | Website:  https://openfoam.org
    \\  /    A nd           | Version:  8
     \\/     M anipulation  |
\*---------------------------------------------------------------------------*/
FoamFile
{
    version     2.0;
    format      ascii;
    class       volVectorField;
    location    "3.15";
    object      U;
}
// * * * * * * * * * * * * * * * * * * * * * * * * * * * * * * * * * * * * * //

dimensions      [0 1 -1 0 0 0 0];

internalField   nonuniform List<vector> 
9150
(
(0.0539369 -0.4285 0)
(0.0879796 -0.622137 0)
(0.0729903 -0.6314 0)
(0.0486229 -0.643691 0)
(0.0170209 -0.654396 0)
(-0.0170202 -0.654396 0)
(-0.0486224 -0.643691 0)
(-0.0729898 -0.631398 0)
(-0.087977 -0.622135 0)
(-0.0539342 -0.428506 0)
(0.0409765 -0.523034 0)
(0.0574842 -0.625656 0)
(0.0419784 -0.613209 0)
(0.0294036 -0.622443 0)
(0.0104739 -0.628834 0)
(-0.0104745 -0.628834 0)
(-0.029404 -0.622443 0)
(-0.0419789 -0.613209 0)
(-0.0574827 -0.625654 0)
(-0.0409742 -0.523036 0)
(0.0254103 -0.558067 0)
(0.0325404 -0.613762 0)
(0.0229091 -0.604478 0)
(0.0172794 -0.609989 0)
(0.00623465 -0.613174 0)
(-0.00623464 -0.613174 0)
(-0.0172793 -0.609989 0)
(-0.0229092 -0.604479 0)
(-0.0325396 -0.613762 0)
(-0.0254092 -0.558068 0)
(0.0155116 -0.584799 0)
(0.0175191 -0.607432 0)
(0.0116423 -0.601141 0)
(0.00889412 -0.603285 0)
(0.00323929 -0.604389 0)
(-0.00323832 -0.604389 0)
(-0.00889321 -0.603286 0)
(-0.0116416 -0.601141 0)
(-0.0175184 -0.607432 0)
(-0.0155111 -0.5848 0)
(0.00634469 -0.597187 0)
(0.00558337 -0.601377 0)
(0.00353571 -0.600039 0)
(0.00268881 -0.600349 0)
(0.000994185 -0.600481 0)
(-0.000993393 -0.600481 0)
(-0.0026881 -0.600349 0)
(-0.00353512 -0.600039 0)
(-0.00558294 -0.601377 0)
(-0.00634451 -0.597187 0)
(0.470602 -1.16391 1.39639e-24)
(0.282819 -1.08593 0)
(0.16344 -1.06942 0)
(0.0924241 -1.05774 0)
(0.0304282 -1.05298 0)
(-0.0303363 -1.05299 0)
(-0.0923431 -1.05777 0)
(-0.163366 -1.06946 0)
(-0.282761 -1.08598 0)
(-0.47061 -1.16402 -1.39759e-24)
(0.334291 -0.844376 3.78283e-25)
(0.286988 -0.936847 0)
(0.18819 -0.936813 0)
(0.1083 -0.936719 0)
(0.0357508 -0.939082 0)
(-0.0356999 -0.939088 0)
(-0.108256 -0.936734 0)
(-0.188148 -0.93683 0)
(-0.28697 -0.93687 0)
(-0.334301 -0.844434 -3.78482e-25)
(0.279651 -0.702993 6.56769e-26)
(0.259098 -0.804757 0)
(0.178012 -0.817568 0)
(0.104684 -0.828333 0)
(0.0348475 -0.83643 0)
(-0.0348198 -0.836433 0)
(-0.10466 -0.828341 0)
(-0.177992 -0.817574 0)
(-0.259093 -0.804764 0)
(-0.279651 -0.703014 -6.57191e-26)
(0.200739 -0.554736 2.25881e-25)
(0.217021 -0.709412 0)
(0.154184 -0.725843 0)
(0.0914137 -0.741973 0)
(0.0305386 -0.753879 0)
(-0.0305252 -0.75388 0)
(-0.0914023 -0.741975 0)
(-0.154174 -0.725843 0)
(-0.217019 -0.709411 0)
(-0.200739 -0.55475 -2.25885e-25)
(0.119469 -0.444985 -3.81538e-25)
(0.15694 -0.644088 -5.49042e-25)
(0.116624 -0.663685 -1.84338e-25)
(0.0709414 -0.681142 -1.20949e-25)
(0.0239503 -0.694143 -6.94191e-27)
(-0.0239451 -0.694143 -6.9308e-27)
(-0.0709372 -0.681142 -1.20919e-25)
(-0.116621 -0.663683 -1.84323e-25)
(-0.156938 -0.644085 -5.49038e-25)
(-0.119466 -0.444993 -3.81548e-25)
(0.0111232 -0.93615 0)
(-0.0408596 -1.33477 0)
(0.0228494 -1.26551 0)
(-0.00616014 -1.22212 0)
(0.00573225 -1.221 0)
(-0.00524809 -1.22116 0)
(0.00714415 -1.22217 0)
(-0.0223279 -1.26509 0)
(0.0419489 -1.33553 0)
(-0.0119178 -0.939727 0)
(0.0460069 -0.910784 0)
(-0.0243684 -1.3341 0)
(0.0236185 -1.26822 0)
(-0.00172614 -1.22179 0)
(0.00221818 -1.22114 0)
(-0.00182619 -1.22124 0)
(0.00240252 -1.2217 0)
(-0.0231559 -1.26815 0)
(0.0251622 -1.33391 0)
(-0.0455377 -0.913362 0)
(0.0743474 -0.946196 0)
(-0.0241417 -1.34795 0)
(0.0183209 -1.27513 0)
(0.00395859 -1.22955 0)
(-0.00010116 -1.22551 0)
(0.000412747 -1.22557 0)
(-0.00351723 -1.22952 0)
(-0.0181296 -1.27508 0)
(0.0248721 -1.34806 0)
(-0.0740815 -0.947688 0)
(0.140989 -1.07818 0)
(-8.96228e-05 -1.3661 0)
(0.0167988 -1.27182 0)
(0.0210505 -1.22536 0)
(0.00544765 -1.21393 0)
(-0.00519393 -1.21395 0)
(-0.0207929 -1.22539 0)
(-0.01667 -1.27186 0)
(0.000577668 -1.36605 0)
(-0.140799 -1.079 0)
(0.29611 -1.22056 0)
(0.123384 -1.32201 0)
(0.0692106 -1.21078 0)
(0.0565054 -1.16908 0)
(0.0199506 -1.15635 0)
(-0.0197914 -1.15637 0)
(-0.0563786 -1.16913 0)
(-0.0690771 -1.21084 0)
(-0.123142 -1.32204 0)
(-0.296072 -1.22086 0)
(-0.114525 0.00133506 0)
(-0.115317 0.00095805 0)
(-0.115858 0.000575631 0)
(-0.116145 0.000204978 0)
(-0.116173 -0.00013244 0)
(-0.115968 -0.000420624 0)
(-0.115587 -0.000665038 0)
(-0.115027 -0.000883851 0)
(-0.114302 -0.00108754 0)
(-0.113419 -0.00128353 0)
(-0.120083 0.00222442 0)
(-0.120374 0.00156833 0)
(-0.120543 0.000924699 0)
(-0.120602 0.000302741 0)
(-0.120563 -0.000285595 0)
(-0.120417 -0.000833432 0)
(-0.120141 -0.00134564 0)
(-0.11974 -0.00183157 0)
(-0.119213 -0.00229948 0)
(-0.118561 -0.00275811 0)
(-0.119723 0.00299726 0)
(-0.120193 0.00210622 0)
(-0.120547 0.00124592 0)
(-0.120787 0.000420182 0)
(-0.120913 -0.000370965 0)
(-0.120927 -0.00113115 0)
(-0.120828 -0.00186525 0)
(-0.120617 -0.00257748 0)
(-0.120296 -0.00327378 0)
(-0.119869 -0.00396196 0)
(-0.119135 0.00423435 0)
(-0.119722 0.00310826 0)
(-0.120194 0.00201442 0)
(-0.120554 0.000956533 0)
(-0.120804 -6.42685e-05 0)
(-0.120948 -0.00104844 0)
(-0.12099 -0.00199779 0)
(-0.120934 -0.00291652 0)
(-0.120786 -0.00381109 0)
(-0.120551 -0.0046905 0)
(-0.118648 0.00560462 0)
(-0.119315 0.00425253 0)
(-0.119871 0.00293765 0)
(-0.12032 0.00166481 0)
(-0.120666 0.000437145 0)
(-0.120913 -0.00074455 0)
(-0.121067 -0.00188091 0)
(-0.121134 -0.00297498 0)
(-0.121122 -0.00403254 0)
(-0.121039 -0.00506258 0)
(-0.118364 0.00711844 0)
(-0.119093 0.00554767 0)
(-0.119714 0.0040195 0)
(-0.12023 0.00254047 0)
(-0.120646 0.00111574 0)
(-0.120966 -0.000251395 0)
(-0.121198 -0.00155953 0)
(-0.121349 -0.00280971 0)
(-0.121428 -0.00400594 0)
(-0.121446 -0.00515598 0)
(-0.118348 0.00873979 0)
(-0.119127 0.00695252 0)
(-0.119799 0.00521292 0)
(-0.120365 0.00352963 0)
(-0.120829 0.00191014 0)
(-0.121197 0.000360428 0)
(-0.121475 -0.00111541 0)
(-0.121671 -0.00251557 0)
(-0.121795 -0.00384113 0)
(-0.121857 -0.00509706 0)
(-0.118652 0.0104568 0)
(-0.119479 0.00845 0)
(-0.120195 0.00649467 0)
(-0.120802 0.00460155 0)
(-0.121303 0.00278056 0)
(-0.121703 0.00104035 0)
(-0.122006 -0.000612082 0)
(-0.12222 -0.00217176 0)
(-0.122354 -0.00363623 0)
(-0.122417 -0.00500639 0)
(-0.119331 0.012272 0)
(-0.12021 0.0100392 0)
(-0.120974 0.00785973 0)
(-0.121625 0.00574652 0)
(-0.122164 0.00371183 0)
(-0.122595 0.00176668 0)
(-0.122923 -7.946e-05 0)
(-0.123153 -0.00181912 0)
(-0.123292 -0.0034472 0)
(-0.123349 -0.00496151 0)
(-0.120431 0.0142046 0)
(-0.121375 0.011738 0)
(-0.122201 0.0093253 0)
(-0.122909 0.00698153 0)
(-0.123502 0.00472134 0)
(-0.123983 0.00255805 0)
(-0.124356 0.000503192 0)
(-0.12463 -0.00143418 0)
(-0.124812 -0.0032482 0)
(-0.124911 -0.00493702 0)
(-0.121988 0.0162885 0)
(-0.123016 0.0135819 0)
(-0.123923 0.0109298 0)
(-0.12471 0.00835033 0)
(-0.125379 0.00586165 0)
(-0.125936 0.00348102 0)
(-0.126389 0.00122428 0)
(-0.126749 -0.000894918 0)
(-0.12703 -0.00286629 0)
(-0.12725 -0.00468532 0)
(-0.124012 0.0185621 0)
(-0.125144 0.0156095 0)
(-0.12615 0.012712 0)
(-0.127032 0.00989193 0)
(-0.127794 0.00717185 0)
(-0.12844 0.00457426 0)
(-0.12898 0.00212118 0)
(-0.129423 -0.000166371 0)
(-0.129787 -0.00227019 0)
(-0.130092 -0.00417807 0)
(-0.126497 0.0210649 0)
(-0.127751 0.0178584 0)
(-0.128876 0.0147076 0)
(-0.129874 0.0116387 0)
(-0.130747 0.00867893 0)
(-0.131504 0.00585543 0)
(-0.132151 0.00319515 0)
(-0.1327 0.000725281 0)
(-0.133167 -0.00152565 0)
(-0.133574 -0.00353462 0)
(-0.129406 0.0238365 0)
(-0.1308 0.0203683 0)
(-0.132059 0.016957 0)
(-0.133188 0.0136344 0)
(-0.134192 0.0104334 0)
(-0.135081 0.00738513 0)
(-0.135868 0.00451812 0)
(-0.136564 0.00186266 0)
(-0.137185 -0.00054085 0)
(-0.137719 -0.00262901 0)
(-0.132671 0.0269066 0)
(-0.134214 0.0231656 0)
(-0.135613 0.0194846 0)
(-0.136871 0.0159047 0)
(-0.137999 0.0124692 0)
(-0.139018 0.00921668 0)
(-0.139952 0.00617049 0)
(-0.140811 0.00334852 0)
(-0.141556 0.000831979 0)
(-0.142096 -0.00165609 0)
(-0.136203 0.0302901 0)
(-0.137898 0.0262512 0)
(-0.139428 0.0222707 0)
(-0.140789 0.0184028 0)
(-0.141988 0.0147106 0)
(-0.143059 0.0112562 0)
(-0.144031 0.0080819 0)
(-0.144872 0.00510449 0)
(-0.14548 0.00210351 0)
(-0.145564 -0.00160835 0)
(-0.139907 0.0339917 0)
(-0.141771 0.0296076 0)
(-0.143449 0.0252578 0)
(-0.14492 0.0210068 0)
(-0.14617 0.0169434 0)
(-0.147186 0.0131891 0)
(-0.147971 0.00978941 0)
(-0.148476 0.00620779 0)
(-0.148513 0.00210908 0)
(-0.148011 -0.0026265 0)
(-0.143665 0.0381019 0)
(-0.145745 0.0333642 0)
(-0.147643 0.0286193 0)
(-0.149338 0.0239223 0)
(-0.150796 0.019348 0)
(-0.151945 0.0150002 0)
(-0.152705 0.0108454 0)
(-0.152977 0.00626109 0)
(-0.152609 0.00079922 0)
(-0.15183 -0.0044312 0)
(-0.147147 0.0426186 0)
(-0.149388 0.0375351 0)
(-0.15144 0.032397 0)
(-0.153275 0.027235 0)
(-0.154849 0.0220766 0)
(-0.156085 0.0169326 0)
(-0.156914 0.0117643 0)
(-0.157339 0.0063292 0)
(-0.157506 0.000212643 0)
(-0.157361 -0.00566758 0)
(-0.150234 0.0474035 0)
(-0.152592 0.0419449 0)
(-0.154745 0.0363806 0)
(-0.156665 0.0307272 0)
(-0.158318 0.024994 0)
(-0.159658 0.0191716 0)
(-0.160645 0.0132172 0)
(-0.161281 0.00705429 0)
(-0.161619 0.000593636 0)
(-0.161681 -0.0060666 0)
(-0.152942 0.0524155 0)
(-0.155421 0.0465604 0)
(-0.157692 0.0405503 0)
(-0.159733 0.0343958 0)
(-0.161519 0.0281018 0)
(-0.163024 0.0216631 0)
(-0.16423 0.0150612 0)
(-0.165139 0.00826829 0)
(-0.165775 0.00126954 0)
(-0.166159 -0.00590305 0)
(-0.155267 0.057691 0)
(-0.157894 0.0514458 0)
(-0.160323 0.0450061 0)
(-0.162537 0.0383821 0)
(-0.16452 0.0315804 0)
(-0.166256 0.0246037 0)
(-0.167737 0.0174507 0)
(-0.168959 0.0101198 0)
(-0.169932 0.00261699 0)
(-0.170664 -0.00503739 0)
(-0.157157 0.0632826 0)
(-0.159961 0.0566729 0)
(-0.162584 0.0498387 0)
(-0.165015 0.0427914 0)
(-0.167242 0.0355409 0)
(-0.169253 0.0280954 0)
(-0.171042 0.0204626 0)
(-0.172603 0.0126509 0)
(-0.173936 0.00467286 0)
(-0.17504 -0.00345365 0)
(-0.158517 0.0692364 0)
(-0.161519 0.0623001 0)
(-0.164363 0.0551163 0)
(-0.167042 0.0476978 0)
(-0.169544 0.0400563 0)
(-0.171861 0.032203 0)
(-0.173987 0.0241489 0)
(-0.175912 0.015906 0)
(-0.177632 0.00748823 0)
(-0.17914 -0.00108764 0)
(-0.159214 0.075582 0)
(-0.162425 0.0683654 0)
(-0.165506 0.0608846 0)
(-0.16845 0.0531523 0)
(-0.17125 0.0451804 0)
(-0.173897 0.0369803 0)
(-0.176383 0.0285632 0)
(-0.1787 0.0199411 0)
(-0.180838 0.011127 0)
(-0.182787 0.00213574 0)
(-0.159093 0.0823256 0)
(-0.16251 0.0748832 0)
(-0.165829 0.0671657 0)
(-0.169046 0.0591844 0)
(-0.172153 0.0509493 0)
(-0.175146 0.04247 0)
(-0.178014 0.0337554 0)
(-0.180747 0.0248151 0)
(-0.183334 0.0156592 0)
(-0.185761 0.00629925 0)
(-0.157974 0.0894393 0)
(-0.16158 0.0818365 0)
(-0.165126 0.0739539 0)
(-0.168609 0.0657993 0)
(-0.172025 0.0573795 0)
(-0.175369 0.0486999 0)
(-0.17863 0.0397653 0)
(-0.181799 0.0305809 0)
(-0.184862 0.0211523 0)
(-0.187802 0.0114859 0)
(-0.155649 0.0968732 0)
(-0.15942 0.0891877 0)
(-0.163171 0.0812228 0)
(-0.166904 0.0729821 0)
(-0.170617 0.0644675 0)
(-0.174305 0.0556793 0)
(-0.177962 0.0466166 0)
(-0.181576 0.0372782 0)
(-0.185133 0.0276628 0)
(-0.188614 0.0177699 0)
(-0.151944 0.104561 0)
(-0.155838 0.0968782 0)
(-0.159758 0.0889215 0)
(-0.163707 0.0806903 0)
(-0.167687 0.0721816 0)
(-0.171697 0.0633896 0)
(-0.175733 0.0543063 0)
(-0.179784 0.0449217 0)
(-0.183838 0.0352254 0)
(-0.187873 0.0252064 0)
(-0.146708 0.112415 0)
(-0.150677 0.104818 0)
(-0.154712 0.0969612 0)
(-0.158824 0.0888406 0)
(-0.16302 0.0804476 0)
(-0.167304 0.0717696 0)
(-0.171678 0.0627897 0)
(-0.176136 0.0534873 0)
(-0.180666 0.043839 0)
(-0.185251 0.0338193 0)
(-0.139891 0.120319 0)
(-0.143858 0.112882 0)
(-0.147929 0.105213 0)
(-0.152123 0.0973035 0)
(-0.156455 0.0891406 0)
(-0.160937 0.0807043 0)
(-0.165577 0.0719678 0)
(-0.170378 0.0628972 0)
(-0.175336 0.0534527 0)
(-0.180433 0.0435885 0)
(-0.131531 0.128099 0)
(-0.135396 0.120892 0)
(-0.139402 0.113491 0)
(-0.143572 0.10589 0)
(-0.147931 0.0980724 0)
(-0.152499 0.0900114 0)
(-0.157297 0.0816708 0)
(-0.162338 0.0730026 0)
(-0.167627 0.0639471 0)
(-0.17316 0.0544324 0)
(-0.121751 0.135542 0)
(-0.12541 0.128622 0)
(-0.129236 0.121563 0)
(-0.133261 0.114357 0)
(-0.137516 0.106991 0)
(-0.142033 0.099433 0)
(-0.146844 0.0916404 0)
(-0.151976 0.0835521 0)
(-0.15745 0.075089 0)
(-0.163278 0.0661504 0)
(-0.110754 0.14246 0)
(-0.114128 0.135866 0)
(-0.11768 0.129195 0)
(-0.12145 0.122449 0)
(-0.125477 0.115615 0)
(-0.129803 0.108666 0)
(-0.134469 0.101553 0)
(-0.139516 0.0942109 0)
(-0.14498 0.0865512 0)
(-0.150886 0.0784633 0)
(-0.0989015 0.148738 0)
(-0.101943 0.142474 0)
(-0.105164 0.136207 0)
(-0.108607 0.129949 0)
(-0.112317 0.123693 0)
(-0.116342 0.117414 0)
(-0.120728 0.111063 0)
(-0.125513 0.104573 0)
(-0.130721 0.0978618 0)
(-0.13635 0.0908252 0)
(-0.0866626 0.15434 0)
(-0.0893851 0.148391 0)
(-0.0922818 0.14252 0)
(-0.0953995 0.136749 0)
(-0.0987893 0.131077 0)
(-0.102504 0.125477 0)
(-0.106587 0.119885 0)
(-0.111061 0.114198 0)
(-0.11594 0.108261 0)
(-0.121326 0.101809 0)
(-0.0745487 0.159361 0)
(-0.0770452 0.153716 0)
(-0.0797227 0.148238 0)
(-0.0826361 0.142963 0)
(-0.0858496 0.137902 0)
(-0.0894378 0.133022 0)
(-0.0934842 0.12822 0)
(-0.0980885 0.123292 0)
(-0.103491 0.117938 0)
(-0.109623 0.112887 0)
(-0.062992 0.164052 0)
(-0.0654328 0.15874 0)
(-0.0680911 0.1537 0)
(-0.0710362 0.148997 0)
(-0.0743652 0.14467 0)
(-0.0782205 0.140696 0)
(-0.0828035 0.13698 0)
(-0.0882801 0.133613 0)
(-0.0953452 0.13176 0)
(-0.107393 0.133807 0)
(-0.0521831 0.1688 0)
(-0.0547844 0.163927 0)
(-0.0576831 0.159466 0)
(-0.060984 0.155535 0)
(-0.0648608 0.15223 0)
(-0.0695257 0.149639 0)
(-0.0748815 0.148129 0)
(-0.0823389 0.149778 0)
(-0.0966098 0.158841 0)
(-0.115514 0.172116 0)
(-0.0418996 0.174034 0)
(-0.0447991 0.169807 0)
(-0.0481041 0.166194 0)
(-0.0519816 0.163372 0)
(-0.056654 0.161514 0)
(-0.0619448 0.16099 0)
(-0.0689451 0.164002 0)
(-0.0811768 0.177296 0)
(-0.0991375 0.195368 0)
(-0.108222 0.193946 0)
(-0.0314231 0.179748 0)
(-0.0344987 0.17628 0)
(-0.0380223 0.173629 0)
(-0.042185 0.17203 0)
(-0.0469089 0.17178 0)
(-0.0521797 0.174373 0)
(-0.0610663 0.18621 0)
(-0.0761052 0.20978 0)
(-0.0842669 0.214157 0)
(-0.0860124 0.194684 0)
(-0.0203289 0.185774 0)
(-0.0234271 0.183117 0)
(-0.0269727 0.181483 0)
(-0.0311003 0.18119 0)
(-0.0354319 0.182851 0)
(-0.041714 0.190721 0)
(-0.051708 0.211905 0)
(-0.0630584 0.225848 0)
(-0.0637286 0.212623 0)
(-0.0614053 0.190507 0)
(-0.00777546 0.191369 0)
(-0.0104054 0.18925 0)
(-0.0132613 0.188214 0)
(-0.0162811 0.188594 0)
(-0.0190198 0.191515 0)
(-0.0225831 0.203899 0)
(-0.0280819 0.229399 0)
(-0.0325826 0.233687 0)
(-0.033798 0.210766 0)
(-0.0328379 0.18851 0)
(0.00567575 0.196083 0)
(0.0034852 0.194201 0)
(0.00113474 0.193357 0)
(-0.00130508 0.193864 0)
(-0.00346738 0.197322 0)
(-0.00657717 0.212137 0)
(-0.0105723 0.237325 0)
(-0.00909407 0.230907 0)
(-0.00743365 0.208894 0)
(-0.00594744 0.187403 0)
(0.0206526 0.199846 0)
(0.0192768 0.198117 0)
(0.0179306 0.197401 0)
(0.0166433 0.197963 0)
(0.0157514 0.20095 0)
(0.0159662 0.21529 0)
(0.0177047 0.237309 0)
(0.0210816 0.226199 0)
(0.0226697 0.205738 0)
(0.0235713 0.185339 0)
(0.0371058 0.201486 0)
(0.0369178 0.199355 0)
(0.0371277 0.198009 0)
(0.0378477 0.197607 0)
(0.0388761 0.198242 0)
(0.0439803 0.205417 0)
(0.053059 0.225448 0)
(0.0583217 0.222525 0)
(0.057015 0.205909 0)
(0.0558587 0.186302 0)
(0.0531353 0.201456 0)
(0.0534397 0.198509 0)
(0.054179 0.196108 0)
(0.0554073 0.194366 0)
(0.0569726 0.193489 0)
(0.0599504 0.19493 0)
(0.0660539 0.203516 0)
(0.0770218 0.216118 0)
(0.080964 0.206981 0)
(0.0815638 0.187673 0)
(0.068095 0.200853 0)
(0.068736 0.197128 0)
(0.0698098 0.193812 0)
(0.0714078 0.19097 0)
(0.0736522 0.188708 0)
(0.0766215 0.187237 0)
(0.0815844 0.187721 0)
(0.0907325 0.194161 0)
(0.103231 0.199117 0)
(0.108799 0.185287 0)
(0.0818446 0.199658 0)
(0.082786 0.195099 0)
(0.084194 0.190786 0)
(0.0861788 0.186713 0)
(0.0888988 0.182867 0)
(0.0925724 0.1792 0)
(0.0974402 0.175649 0)
(0.104071 0.172864 0)
(0.114976 0.172084 0)
(0.130408 0.170434 0)
(0.093721 0.197788 0)
(0.0949064 0.192414 0)
(0.0965445 0.187047 0)
(0.0987514 0.181644 0)
(0.10167 0.176141 0)
(0.105476 0.170427 0)
(0.110384 0.164301 0)
(0.116544 0.157507 0)
(0.123642 0.150068 0)
(0.133774 0.141693 0)
(0.103468 0.195493 0)
(0.104765 0.189465 0)
(0.106467 0.183121 0)
(0.108686 0.176453 0)
(0.111555 0.169422 0)
(0.115184 0.16193 0)
(0.119676 0.153791 0)
(0.125142 0.14469 0)
(0.131531 0.134234 0)
(0.138307 0.122435 0)
(0.110634 0.192796 0)
(0.111979 0.18631 0)
(0.113659 0.179157 0)
(0.115807 0.171412 0)
(0.118521 0.163112 0)
(0.121857 0.15422 0)
(0.125838 0.144631 0)
(0.130452 0.134161 0)
(0.135615 0.122539 0)
(0.141044 0.109506 0)
(0.117229 0.190888 0)
(0.117853 0.183772 0)
(0.119107 0.175653 0)
(0.120967 0.166816 0)
(0.12342 0.157359 0)
(0.126461 0.147287 0)
(0.130087 0.136569 0)
(0.134253 0.125133 0)
(0.138874 0.112871 0)
(0.143815 0.099668 0)
(0.121015 0.190306 0)
(0.121292 0.181974 0)
(0.122375 0.172619 0)
(0.124101 0.16261 0)
(0.126337 0.152021 0)
(0.129099 0.140833 0)
(0.13242 0.129034 0)
(0.136277 0.116614 0)
(0.140616 0.10355 0)
(0.145345 0.089819 0)
(0.125215 0.190761 0)
(0.125057 0.180602 0)
(0.125294 0.170133 0)
(0.126304 0.159114 0)
(0.127926 0.147456 0)
(0.13011 0.135157 0)
(0.132905 0.122244 0)
(0.1363 0.108765 0)
(0.140242 0.0947654 0)
(0.144643 0.0802849 0)
(0.13069 0.19185 0)
(0.129363 0.182435 0)
(0.127498 0.170331 0)
(0.126842 0.15788 0)
(0.127501 0.144814 0)
(0.128984 0.13105 0)
(0.1312 0.116742 0)
(0.134102 0.101992 0)
(0.137628 0.0868846 0)
(0.14169 0.0715019 0)
(0.125699 0.19206 0)
(0.124962 0.186613 0)
(0.123744 0.172435 0)
(0.122943 0.157397 0)
(0.123318 0.142706 0)
(0.124694 0.127434 0)
(0.126776 0.111757 0)
(0.129481 0.0957605 0)
(0.132803 0.0794995 0)
(0.136729 0.0631145 0)
(0.127975 0.18959 0)
(0.128669 0.189395 0)
(0.125004 0.17754 0)
(0.120584 0.160047 0)
(0.118777 0.142247 0)
(0.119548 0.124745 0)
(0.121333 0.10748 0)
(0.123662 0.0901711 0)
(0.12665 0.0725234 0)
(0.130497 0.0548106 0)
(0.122841 0.184096 0)
(0.125183 0.189654 0)
(0.12146 0.192489 0)
(0.112637 0.167204 0)
(0.109686 0.14302 0)
(0.111116 0.122317 0)
(0.114013 0.103489 0)
(0.116398 0.0850745 0)
(0.119047 0.0654214 0)
(0.123085 0.045642 0)
(0.103355 0.179084 0)
(0.10414 0.189428 0)
(0.102462 0.205948 0)
(0.0990583 0.179938 0)
(0.0997684 0.135902 0)
(0.102587 0.112954 0)
(0.106296 0.098283 0)
(0.108592 0.0835985 0)
(0.110532 0.061431 0)
(0.115445 0.0367829 0)
(0.0749372 0.177291 0)
(0.0746321 0.189409 0)
(0.0755238 0.203593 0)
(0.0796606 0.188697 0)
(0.0848718 0.136286 0)
(0.0805027 0.110791 0)
(0.0776607 0.0979881 0)
(0.0843513 0.0796198 0)
(0.0958604 0.0437305 0)
(0.106077 0.0178422 0)
(0.0392186 0.181123 0)
(0.0346733 0.193586 0)
(0.0289809 0.196375 0)
(0.0293662 0.178748 0)
(0.0294557 0.146934 0)
(0.035412 0.116165 0)
(0.0489099 0.0718392 0)
(0.0720895 0.0437056 0)
(0.0849257 0.0158478 0)
(0.0952906 -0.00327072 0)
(-0.00433412 0.191006 0)
(-0.00900462 0.202567 0)
(-0.00499324 0.196576 0)
(0.00603193 0.170736 0)
(0.0203178 0.123837 0)
(0.0415998 0.0676777 0)
(0.0539291 0.035327 0)
(0.0640331 0.0194643 0)
(0.0754087 0.000719195 0)
(0.0875197 -0.0249531 0)
(-0.0227903 0.207895 0)
(-0.0200824 0.200935 0)
(-0.00883639 0.173738 0)
(0.0119759 0.125954 0)
(0.0277086 0.0836304 0)
(0.0346358 0.0543656 0)
(0.0414693 0.0269565 0)
(0.0520466 -0.00401437 0)
(0.0709666 -0.0335651 0)
(0.0941625 -0.0693802 0)
(-0.0257989 0.19912 0)
(-0.0139237 0.170441 0)
(0.00178192 0.130684 0)
(0.0135516 0.0977266 0)
(0.0227626 0.0712393 0)
(0.0315677 0.0416062 0)
(0.043733 0.00113513 0)
(0.0624474 -0.0443421 0)
(0.0857919 -0.0844476 0)
(0.118232 -0.120517 0)
(-0.0222151 0.172875 0)
(-0.0129139 0.14565 0)
(-0.00404672 0.115451 0)
(0.00454755 0.0845121 0)
(0.0144572 0.0512257 0)
(0.0274175 0.0110025 0)
(0.0441918 -0.0362676 0)
(0.0701857 -0.0827817 0)
(0.104242 -0.138397 0)
(0.161441 -0.214473 0)
(-0.0281461 0.161962 0)
(-0.021284 0.133245 0)
(-0.0134458 0.0999734 0)
(-0.00496867 0.0628983 0)
(0.0051044 0.0229524 0)
(0.0222192 -0.01856 0)
(0.0495443 -0.0742607 0)
(0.0997153 -0.156091 0)
(0.196409 -0.282872 0)
(0.307296 -0.436107 0)
(-0.0384451 0.150908 0)
(-0.034662 0.11717 0)
(-0.0315381 0.083507 0)
(-0.0263972 0.0458695 0)
(-0.0144186 0.00443459 0)
(0.0138084 -0.0577905 0)
(0.101148 -0.201764 0)
(0.21996 -0.388082 0)
(0.337977 -0.547341 0)
(0.432551 -0.641703 0)
(-0.0511371 0.145919 0)
(-0.0549435 0.114259 0)
(-0.0587182 0.0858463 0)
(-0.055379 0.042893 0)
(-0.0166024 -0.0553186 0)
(0.0940818 -0.262878 0)
(0.237683 -0.497693 0)
(0.347762 -0.633441 0)
(0.413574 -0.700966 0)
(0.461702 -0.742019 0)
(-0.0762305 0.160199 0)
(-0.0893179 0.136494 0)
(-0.100213 0.099668 0)
(-0.0669312 -0.027857 0)
(0.0791632 -0.333205 0)
(0.237765 -0.582971 0)
(0.325872 -0.693572 0)
(0.380761 -0.748788 0)
(0.425311 -0.785799 0)
(0.467637 -0.819232 0)
(-0.110959 0.195737 0)
(-0.124814 0.173548 0)
(-0.100455 0.044351 0)
(0.0856953 -0.365309 0)
(0.230208 -0.641137 0)
(0.297677 -0.740159 0)
(0.344338 -0.791004 0)
(0.387551 -0.830068 0)
(0.428066 -0.86747 0)
(0.467856 -0.901837 0)
(-0.136156 0.203828 0)
(-0.127534 0.107832 0)
(0.0477437 -0.30044 0)
(0.207936 -0.66769 0)
(0.271432 -0.777434 0)
(0.311685 -0.827214 0)
(0.350559 -0.868673 0)
(0.388504 -0.909122 0)
(0.425844 -0.946447 0)
(0.462217 -0.978027 0)
(-0.137516 0.181163 0)
(-0.0212059 -0.142306 0)
(0.197144 -0.669165 0)
(0.251444 -0.799037 0)
(0.283762 -0.853932 0)
(0.315982 -0.89693 0)
(0.349442 -0.939513 0)
(0.383143 -0.980278 0)
(0.416355 -1.01589 0)
(0.447676 -1.04312 0)
(-0.0635323 -0.0138269 0)
(0.159961 -0.579341 0)
(0.2221 -0.788626 0)
(0.254494 -0.864107 0)
(0.279447 -0.910981 0)
(0.307952 -0.95677 0)
(0.338215 -1.00218 0)
(0.368807 -1.0432 0)
(0.398057 -1.07554 0)
(0.424087 -1.09579 0)
(0.0711947 -0.364609 0)
(0.183186 -0.758841 0)
(0.219751 -0.860892 0)
(0.238782 -0.911525 0)
(0.261894 -0.961105 0)
(0.289221 -1.01254 0)
(0.318311 -1.06073 0)
(0.346789 -1.10006 0)
(0.372432 -1.12631 0)
(0.393474 -1.13672 0)
(0.132662 -0.702218 0)
(0.170978 -0.827202 0)
(0.189696 -0.891488 0)
(0.207906 -0.950488 0)
(0.232867 -1.01127 0)
(0.261896 -1.06916 0)
(0.291143 -1.11771 0)
(0.317806 -1.15208 0)
(0.34017 -1.16963 0)
(0.35721 -1.16884 0)
(0.100294 -0.761843 0)
(0.126167 -0.853748 0)
(0.143811 -0.927016 0)
(0.168513 -1.00007 0)
(0.198832 -1.06959 0)
(0.230017 -1.12888 0)
(0.258412 -1.17246 0)
(0.282088 -1.19793 0)
(0.300561 -1.20482 0)
(0.313567 -1.19264 0)
(0.0513861 -0.801462 0)
(0.0718686 -0.891546 0)
(0.0982373 -0.979813 0)
(0.131071 -1.06312 0)
(0.165291 -1.13473 0)
(0.196337 -1.18845 0)
(0.22194 -1.22195 0)
(0.241706 -1.23604 0)
(0.256227 -1.23185 0)
(0.265034 -1.20875 0)
(-0.00169476 -0.841753 0)
(0.0262176 -0.949826 0)
(0.0622585 -1.04959 0)
(0.0998684 -1.13515 0)
(0.133825 -1.20034 0)
(0.161548 -1.24258 0)
(0.182889 -1.26385 0)
(0.198997 -1.26734 0)
(0.211213 -1.25505 0)
(0.218785 -1.22648 0)
(-0.0401228 -0.898569 0)
(-0.00292896 -1.02411 0)
(0.0380487 -1.12737 0)
(0.0744965 -1.20572 0)
(0.103775 -1.2578 0)
(0.125791 -1.28621 0)
(0.141951 -1.29589 0)
(0.1537 -1.2906 0)
(0.161625 -1.27239 0)
(0.1642 -1.24196 0)
(-0.061648 -0.967676 0)
(-0.0179823 -1.10715 0)
(0.0230547 -1.20289 0)
(0.054073 -1.26638 0)
(0.076679 -1.30298 0)
(0.0930893 -1.31869 0)
(0.105095 -1.31878 0)
(0.113753 -1.3058 0)
(0.118997 -1.28083 0)
(0.119994 -1.24434 0)
(-0.0652439 -1.06293 0)
(-0.0209392 -1.19441 0)
(0.0147604 -1.26836 0)
(0.0392107 -1.3139 0)
(0.0555638 -1.33704 0)
(0.0676432 -1.34359 0)
(0.0771267 -1.33725 0)
(0.0847546 -1.31884 0)
(0.0899478 -1.28824 0)
(0.0916488 -1.24387 0)
(-0.0354734 -1.16838 0)
(-0.00747099 -1.26633 0)
(0.0149218 -1.31591 0)
(0.0311442 -1.34678 0)
(0.0415452 -1.36117 0)
(0.0496413 -1.36283 0)
(0.0570652 -1.35402 0)
(0.0647194 -1.33441 0)
(0.0716036 -1.30274 0)
(0.0767761 -1.25398 0)
(-0.000382116 -1.24204 0)
(0.0113634 -1.30744 0)
(0.020643 -1.34141 0)
(0.0282201 -1.36396 0)
(0.0325478 -1.37423 0)
(0.0359104 -1.3741 0)
(0.0393989 -1.36531 0)
(0.043538 -1.34717 0)
(0.0471452 -1.31757 0)
(0.0509091 -1.2668 0)
(0.025175 -1.27463 0)
(0.0268793 -1.32125 0)
(0.0276966 -1.34785 0)
(0.0276996 -1.36726 0)
(0.0269261 -1.37642 0)
(0.0261391 -1.37607 0)
(0.0256947 -1.36797 0)
(0.0258253 -1.35147 0)
(0.025996 -1.32409 0)
(0.0288828 -1.27375 0)
(0.0360267 -1.27339 0)
(0.0333262 -1.31672 0)
(0.0307503 -1.34228 0)
(0.0265905 -1.36147 0)
(0.02277 -1.37104 0)
(0.0194484 -1.37134 0)
(0.0165048 -1.36445 0)
(0.0141523 -1.34992 0)
(0.0127188 -1.32506 0)
(0.0162667 -1.27655 0)
(0.034728 -1.25746 0)
(0.0319517 -1.30496 0)
(0.0289475 -1.33214 0)
(0.0237202 -1.35183 0)
(0.0187391 -1.36209 0)
(0.0143445 -1.36327 0)
(0.0103146 -1.35783 0)
(0.00701708 -1.34585 0)
(0.00560281 -1.32475 0)
(0.0105647 -1.28213 0)
(0.0257041 -1.23989 0)
(0.0254779 -1.29593 0)
(0.0233331 -1.32386 0)
(0.0191396 -1.34288 0)
(0.0145593 -1.35314 0)
(0.010257 -1.3547 0)
(0.00603423 -1.35026 0)
(0.0022559 -1.34056 0)
(0.000344865 -1.32346 0)
(0.00307365 -1.28771 0)
(0.010823 -1.24466 0)
(0.0171749 -1.29821 0)
(0.0169661 -1.32119 0)
(0.0148526 -1.33679 0)
(0.0114849 -1.34598 0)
(0.00795829 -1.34746 0)
(0.00450413 -1.34374 0)
(0.00188882 -1.33641 0)
(0.00155469 -1.32451 0)
(0.00217775 -1.30079 0)
(0.0163323 -1.26525 0)
(0.0199512 -1.30373 0)
(0.0180125 -1.31859 0)
(0.0145597 -1.33031 0)
(0.0104908 -1.33868 0)
(0.00652369 -1.34035 0)
(0.00272865 -1.33731 0)
(-0.000579582 -1.33223 0)
(-0.0026842 -1.32572 0)
(-0.00470096 -1.3154 0)
(0.0291381 -1.27674 0)
(0.0259546 -1.29988 0)
(0.0210676 -1.31009 0)
(0.0153234 -1.32055 0)
(0.0100045 -1.32936 0)
(0.00517639 -1.33165 0)
(0.000590996 -1.32884 0)
(-0.00417119 -1.32462 0)
(-0.00866428 -1.32049 0)
(-0.0121182 -1.3158 0)
(0.028836 -1.27995 0)
(0.0248071 -1.29112 0)
(0.0198796 -1.2992 0)
(0.0142816 -1.30944 0)
(0.00888772 -1.31887 0)
(0.00363869 -1.32169 0)
(-0.00152215 -1.3186 0)
(-0.00739233 -1.31417 0)
(-0.0134115 -1.31039 0)
(-0.0175901 -1.30687 0)
(0.0293516 -1.27668 0)
(0.025073 -1.28149 0)
(0.01936 -1.28829 0)
(0.0135532 -1.29824 0)
(0.00808474 -1.30794 0)
(0.00245843 -1.31098 0)
(-0.003077 -1.30716 0)
(-0.00959271 -1.30187 0)
(-0.0165265 -1.29773 0)
(-0.0212569 -1.29458 0)
(0.02883 -1.26592 0)
(0.0245694 -1.26977 0)
(0.0184991 -1.27673 0)
(0.0127743 -1.2869 0)
(0.00749126 -1.29675 0)
(0.00158399 -1.29982 0)
(-0.00399724 -1.29512 0)
(-0.0106161 -1.28845 0)
(-0.0180666 -1.28338 0)
(-0.0231276 -1.28026 0)
(0.0276375 -1.25359 0)
(0.0233163 -1.25738 0)
(0.0171584 -1.26521 0)
(0.0119141 -1.27609 0)
(0.00707955 -1.28569 0)
(0.000773421 -1.28851 0)
(-0.00458926 -1.28329 0)
(-0.0107517 -1.27474 0)
(-0.0183955 -1.26799 0)
(-0.0236789 -1.26447 0)
(0.025477 -1.23985 0)
(0.0210962 -1.24446 0)
(0.0151193 -1.25451 0)
(0.0109304 -1.26678 0)
(0.00683677 -1.27502 0)
(-0.000241568 -1.27722 0)
(-0.00510579 -1.2728 0)
(-0.0101758 -1.26188 0)
(-0.0175375 -1.25196 0)
(-0.0228861 -1.24718 0)
(0.0215966 -1.22378 0)
(0.017443 -1.23146 0)
(0.0124864 -1.24637 0)
(0.0099606 -1.2602 0)
(0.00686257 -1.26449 0)
(-0.00169424 -1.26568 0)
(-0.00562325 -1.26481 0)
(-0.00913272 -1.25198 0)
(-0.0150862 -1.23618 0)
(-0.0199731 -1.22772 0)
(0.0144285 -1.20198 0)
(0.011528 -1.21938 0)
(0.0106755 -1.24333 0)
(0.00945699 -1.25562 0)
(0.00747485 -1.25252 0)
(-0.00390444 -1.25279 0)
(-0.00630009 -1.25834 0)
(-0.00898226 -1.24763 0)
(-0.0102271 -1.22219 0)
(-0.0134362 -1.20341 0)
(0.00521873 -1.16455 0)
(0.00271984 -1.21294 0)
(0.0133467 -1.24764 0)
(0.00854716 -1.24799 0)
(0.00851051 -1.2387 0)
(-0.00650872 -1.2388 0)
(-0.00617026 -1.24856 0)
(-0.0129678 -1.25047 0)
(-0.00230126 -1.21475 0)
(-0.00490452 -1.16567 0)
(0.00412746 -1.08507 0)
(-0.0129227 -1.23964 0)
(0.0205382 -1.25952 0)
(0.00196525 -1.2337 0)
(0.00812262 -1.22711 0)
(-0.00725569 -1.22738 0)
(-0.000424386 -1.23345 0)
(-0.0205033 -1.26009 0)
(0.0128659 -1.24016 0)
(-0.00482606 -1.08875 0)
(-0.112308 -0.00148963 0)
(-0.110942 -0.00170988 0)
(-0.109368 -0.00193922 0)
(-0.10758 -0.00218429 0)
(-0.105559 -0.00245048 0)
(-0.103286 -0.00274163 0)
(-0.10074 -0.00305926 0)
(-0.0978983 -0.00340153 0)
(-0.0947445 -0.00376217 0)
(-0.0912694 -0.00412953 0)
(-0.0874778 -0.00448551 0)
(-0.0833934 -0.00480442 0)
(-0.0790657 -0.00505171 0)
(-0.0745772 -0.00518291 0)
(-0.0700505 -0.00514355 0)
(-0.0656548 -0.0048719 0)
(-0.0616067 -0.0043086 0)
(-0.0581572 -0.00341901 0)
(-0.0555557 -0.00223512 0)
(-0.0539764 -0.000929034 0)
(-0.0533679 0.000102823 0)
(-0.0532352 0.000355015 0)
(-0.052716 -0.000300373 0)
(-0.0512459 -0.00134304 0)
(-0.0489092 -0.00231459 0)
(-0.0459083 -0.00319503 0)
(-0.0422498 -0.00402228 0)
(-0.037952 -0.00475009 0)
(-0.0331194 -0.00533835 0)
(-0.0278969 -0.00574868 0)
(-0.0224707 -0.00592636 0)
(-0.0170701 -0.00582463 0)
(-0.0119414 -0.00542396 0)
(-0.00731815 -0.00475079 0)
(-0.00337241 -0.00387313 0)
(-0.000190339 -0.00284696 0)
(0.00216824 -0.00159943 0)
(0.00351439 0.000372848 0)
(0.00319678 0.00197472 0)
(0.00210729 0.00355113 0)
(-0.117727 -0.0032447 0)
(-0.116681 -0.00377016 0)
(-0.115463 -0.00431897 0)
(-0.114066 -0.00490311 0)
(-0.112476 -0.0055333 0)
(-0.110679 -0.00621675 0)
(-0.108658 -0.00695501 0)
(-0.106397 -0.00774166 0)
(-0.103884 -0.00856018 0)
(-0.101113 -0.00938223 0)
(-0.0980869 -0.0101663 0)
(-0.0948229 -0.0108559 0)
(-0.0913519 -0.0113784 0)
(-0.0877239 -0.0116429 0)
(-0.0840108 -0.0115419 0)
(-0.0803114 -0.0109582 0)
(-0.0767579 -0.00978544 0)
(-0.0735189 -0.00797726 0)
(-0.0707906 -0.00563738 0)
(-0.0687569 -0.00315544 0)
(-0.0674435 -0.00139101 0)
(-0.0664134 -0.0014424 0)
(-0.0647779 -0.00343158 0)
(-0.0621341 -0.00587396 0)
(-0.0589597 -0.00763875 0)
(-0.0555735 -0.00915522 0)
(-0.0517846 -0.0107542 0)
(-0.0474765 -0.0122356 0)
(-0.0427282 -0.01341 0)
(-0.0376695 -0.0141533 0)
(-0.0324588 -0.0143459 0)
(-0.0272817 -0.013916 0)
(-0.0223438 -0.012856 0)
(-0.0178581 -0.0112669 0)
(-0.0139599 -0.00939453 0)