/*--------------------------------*- C++ -*----------------------------------*\
  =========                 |
  \\      /  F ield         | OpenFOAM: The Open Source CFD Toolbox
   \\    /   O peration     | Website:  https://openfoam.org
    \\  /    A nd           | Version:  8
     \\/     M anipulation  |
\*---------------------------------------------------------------------------*/
FoamFile
{
    version     2.0;
    format      ascii;
    class       volVectorField;
    location    "5.95";
    object      U;
}
// * * * * * * * * * * * * * * * * * * * * * * * * * * * * * * * * * * * * * //

dimensions      [0 1 -1 0 0 0 0];

internalField   nonuniform List<vector> 
9150
(
(0.00486405 -0.0784657 0)
(0.0130826 -0.0974657 0)
(0.0108883 -0.104569 0)
(0.00841988 -0.108087 0)
(0.00168542 -0.10972 0)
(-0.00360826 -0.109299 0)
(-0.00922402 -0.107466 0)
(-0.0108954 -0.104453 0)
(-0.0131361 -0.0973404 0)
(-0.00484145 -0.0783881 0)
(0.00586521 -0.0920073 0)
(0.00853506 -0.100512 0)
(0.0073754 -0.102272 0)
(0.00472303 -0.104119 0)
(0.0026411 -0.105249 0)
(-0.00102716 -0.105662 0)
(-0.00425803 -0.104964 0)
(-0.00734873 -0.102304 0)
(-0.00857624 -0.100453 0)
(-0.00587805 -0.0919674 0)
(0.00171696 -0.0954666 0)
(0.00454651 -0.0989802 0)
(0.00369433 -0.10112 0)
(0.00304417 -0.102117 0)
(0.000529756 -0.102679 0)
(-0.0010597 -0.102338 0)
(-0.00347263 -0.101669 0)
(-0.00379686 -0.100962 0)
(-0.0045689 -0.0989527 0)
(-0.00172119 -0.0954469 0)
(0.00172506 -0.0984155 0)
(0.00244298 -0.100397 0)
(0.00222454 -0.100162 0)
(0.00136151 -0.100668 0)
(0.000650198 -0.100857 0)
(-0.000640168 -0.100851 0)
(-0.00127005 -0.100899 0)
(-0.00222746 -0.100231 0)
(-0.00246596 -0.100391 0)
(-0.0017293 -0.0984065 0)
(0.000174709 -0.0994862 0)
(0.000709935 -0.0995857 0)
(0.000447692 -0.100053 0)
(0.000641718 -0.0998894 0)
(0.0001657 -0.100099 0)
(-0.000108261 -0.100119 0)
(-0.000674318 -0.0998758 0)
(-0.000464857 -0.100019 0)
(-0.000717874 -0.0995785 0)
(-0.00017562 -0.0994854 0)
(0.0750636 -0.194236 2.88798e-26)
(0.0493307 -0.184587 0)
(0.03025 -0.175956 0)
(0.0152618 -0.175216 0)
(0.00425677 -0.175582 0)
(-0.00503027 -0.175271 0)
(-0.0156765 -0.173973 0)
(-0.0306403 -0.176381 0)
(-0.0493628 -0.184978 0)
(-0.0752624 -0.194476 -2.86684e-26)
(0.0584686 -0.146706 7.26455e-27)
(0.0487803 -0.146619 0)
(0.0285808 -0.156218 0)
(0.0209353 -0.155586 0)
(0.00520889 -0.154999 0)
(-0.0046601 -0.1555 0)
(-0.020447 -0.15727 0)
(-0.0282639 -0.156341 0)
(-0.0486881 -0.146736 0)
(-0.0584804 -0.146794 -7.49075e-27)
(0.0474794 -0.121437 3.44533e-27)
(0.0426732 -0.131232 0)
(0.0293357 -0.13354 0)
(0.017787 -0.138109 0)
(0.00679057 -0.140341 0)
(-0.00510269 -0.140307 0)
(-0.0167091 -0.137351 0)
(-0.029008 -0.133296 0)
(-0.0426268 -0.131236 0)
(-0.0474385 -0.121427 -3.39017e-27)
(0.0370949 -0.0993532 6.12336e-27)
(0.039334 -0.11021 0)
(0.0227945 -0.120631 0)
(0.0170809 -0.125275 0)
(0.00364186 -0.125351 0)
(-0.00526004 -0.125144 0)
(-0.0179024 -0.124337 0)
(-0.0228051 -0.120492 0)
(-0.0392257 -0.11016 0)
(-0.0370538 -0.0992842 -6.21682e-27)
(0.0244147 -0.0817015 -1.63373e-26)
(0.027736 -0.10133 -1.96095e-26)
(0.0199505 -0.108387 -4.88192e-27)
(0.0110241 -0.11388 -4.18393e-27)
(0.00506306 -0.116933 -2.19556e-28)
(-0.00408878 -0.117222 -1.70311e-28)
(-0.0102948 -0.114373 -4.37377e-27)
(-0.0197943 -0.10829 -4.92381e-27)
(-0.0277551 -0.101249 -1.95445e-26)
(-0.0243407 -0.0816273 -1.63124e-26)
(0.0182842 -0.142686 0)
(0.0118571 -0.20538 0)
(0.0209273 -0.218206 0)
(0.00623648 -0.224988 0)
(0.00389338 -0.226479 0)
(-0.0104791 -0.225595 0)
(-0.0127591 -0.221824 0)
(-0.0228482 -0.214854 0)
(-0.0112387 -0.204532 0)
(-0.0192455 -0.141249 0)
(0.0163652 -0.166637 0)
(0.00181987 -0.199418 0)
(0.0155544 -0.208826 0)
(0.00347396 -0.21303 0)
(0.00621009 -0.214704 0)
(-0.0043422 -0.21465 0)
(-0.00120117 -0.214342 0)
(-0.0141178 -0.209502 0)
(-0.000975684 -0.19972 0)
(-0.0159854 -0.167059 0)
(0.0144055 -0.17246 0)
(-0.00436281 -0.20375 0)
(0.0102523 -0.209172 0)
(-0.0012746 -0.210574 0)
(0.0032318 -0.210617 0)
(-0.00303141 -0.210576 0)
(0.000896396 -0.209132 0)
(-0.0107833 -0.208668 0)
(0.00437956 -0.203658 0)
(-0.0146848 -0.172076 0)
(0.0183523 -0.195038 0)
(-0.00714013 -0.204433 0)
(0.00920375 -0.210625 0)
(-0.00069917 -0.206403 0)
(5.34106e-05 -0.20704 0)
(-0.00196808 -0.206759 0)
(-0.000251556 -0.206448 0)
(-0.00955017 -0.210553 0)
(0.00708289 -0.2045 0)
(-0.0187795 -0.195359 0)
(0.0364639 -0.216983 0)
(0.0101828 -0.203611 0)
(0.0160539 -0.202302 0)
(0.0122833 -0.195115 0)
(0.00258131 -0.191969 0)
(-0.00154955 -0.192637 0)
(-0.0118924 -0.196607 0)
(-0.0161522 -0.202554 0)
(-0.0101958 -0.203872 0)
(-0.0364632 -0.217078 0)
(0.0475096 0.00905433 0)
(0.0391758 0.00552881 0)
(0.0330806 -0.000152478 0)
(0.0273462 -0.00230698 0)
(0.0220732 0.00182556 0)
(0.0184508 0.00248995 0)
(0.0169018 0.00106661 0)
(0.0179102 -0.00351722 0)
(0.0211788 -0.00554311 0)
(0.0236888 -0.00596292 0)
(0.0571725 0.0199697 0)
(0.0541393 0.0224493 0)
(0.0484948 0.0233326 0)
(0.0400678 0.0231971 0)
(0.0342367 0.0176828 0)
(0.0309991 0.00565293 0)
(0.0299484 0.000773784 0)
(0.0295355 -0.00613069 0)
(0.0288002 -0.00710656 0)
(0.0266251 -0.0014894 0)
(0.0539167 0.0234554 0)
(0.0512277 0.0273088 0)
(0.0480891 0.0275093 0)
(0.0466447 0.0260853 0)
(0.0475313 0.0230579 0)
(0.0461618 0.0144076 0)
(0.04267 0.00496451 0)
(0.0372385 -0.000515508 0)
(0.030662 0.00237865 0)
(0.0162548 0.0196836 0)
(0.0434489 0.0290814 0)
(0.0427482 0.0309443 0)
(0.0421746 0.030534 0)
(0.0420514 0.026415 0)
(0.0438674 0.0199053 0)
(0.0446673 0.0159105 0)
(0.0428367 0.0142754 0)
(0.0394355 0.0168288 0)
(0.0347249 0.0310063 0)
(0.0225598 0.0425898 0)
(0.0306738 0.0303307 0)
(0.0324642 0.030394 0)
(0.0368054 0.0286728 0)
(0.0416615 0.0223696 0)
(0.044853 0.017108 0)
(0.0483198 0.0169714 0)
(0.0506206 0.0192278 0)
(0.0512344 0.0214197 0)
(0.0476194 0.0287426 0)
(0.0479067 0.0475063 0)
(0.0275743 0.0244725 0)
(0.0312427 0.0158945 0)
(0.0371689 0.0141693 0)
(0.0398104 0.0156303 0)
(0.040986 0.00987149 0)
(0.0498788 0.00260647 0)
(0.0574684 0.00729529 0)
(0.05885 0.0209021 0)
(0.0541567 0.0352657 0)
(0.055011 0.0456099 0)
(0.0106068 0.016651 0)
(0.0130436 0.00345803 0)
(0.0150304 0.0133458 0)
(0.016296 0.0166235 0)
(0.022477 -0.00846546 0)
(0.0315347 -0.0177483 0)
(0.0388934 0.000117042 0)
(0.0416057 0.0257623 0)
(0.0416897 0.0338035 0)
(0.0440703 0.0376448 0)
(0.00908818 0.0253577 0)
(0.0104647 0.00813741 0)
(0.0128979 0.0079244 0)
(0.0202474 0.00105911 0)
(0.0258512 -0.0198556 0)
(0.0243707 -0.0299206 0)
(0.0262226 -0.00716778 0)
(0.0367994 0.0194237 0)
(0.0486447 0.0315732 0)
(0.0559655 0.0361091 0)
(0.044972 -0.00402397 0)
(0.0686372 -0.00969689 0)
(0.0816417 -0.000911815 0)
(0.0987585 -0.0105413 0)
(0.115503 -0.0170756 0)
(0.118324 -0.0154831 0)
(0.105341 -0.0171164 0)
(0.0962414 -0.0196196 0)
(0.0971092 -0.00778844 0)
(0.103063 0.0260009 0)
(0.110891 -0.0633189 0)
(0.12517 -0.057591 0)
(0.138029 -0.0500699 0)
(0.151785 -0.0540322 0)
(0.159036 -0.0511595 0)
(0.167777 -0.0184472 0)
(0.171337 0.0210517 0)
(0.166761 0.0264066 0)
(0.147475 0.0225654 0)
(0.135785 0.0226699 0)
(0.14599 -0.0732822 0)
(0.148445 -0.0707046 0)
(0.154387 -0.0649471 0)
(0.158249 -0.0608572 0)
(0.158543 -0.0532087 0)
(0.158308 -0.0360005 0)
(0.163941 0.00152737 0)
(0.169244 0.0357014 0)
(0.166858 0.0522085 0)
(0.160474 0.0513995 0)
(0.155672 -0.0749785 0)
(0.155057 -0.072945 0)
(0.155665 -0.0715289 0)
(0.157224 -0.0675839 0)
(0.158925 -0.0591549 0)
(0.158902 -0.037339 0)
(0.133077 -0.0165685 0)
(0.125402 0.0125518 0)
(0.131996 0.0391299 0)
(0.134171 0.0512053 0)
(0.12751 -0.0644624 0)
(0.115983 -0.0668247 0)
(0.105575 -0.0693526 0)
(0.100256 -0.061918 0)
(0.105838 -0.027842 0)
(0.0775495 0.0403133 0)
(0.0582259 0.0415724 0)
(0.0546768 0.0438482 0)
(0.0564563 0.0533482 0)
(0.0595541 0.0714324 0)
(0.0784953 -0.0348905 0)
(0.0748235 -0.0454934 0)
(0.0692263 -0.0507067 0)
(0.0638723 -0.046598 0)
(0.056807 0.00197606 0)
(0.0545384 0.0356679 0)
(0.0545848 0.0330878 0)
(0.0494401 0.0257579 0)
(0.0471253 0.0326077 0)
(0.0435839 0.063249 0)
(0.0621271 -0.0360676 0)
(0.0637767 -0.0484032 0)
(0.06222 -0.0507559 0)
(0.0584075 -0.0437675 0)
(0.0543956 0.00541032 0)
(0.051428 0.0353682 0)
(0.0498168 0.0486341 0)
(0.0469043 0.0469229 0)
(0.0426219 0.0519832 0)
(0.0426865 0.0714005 0)
(0.0734843 -0.0370863 0)
(0.072179 -0.0402684 0)
(0.0665929 -0.0393469 0)
(0.0590811 -0.0286824 0)
(0.0575128 0.0128903 0)
(0.0614453 0.0386377 0)
(0.0656414 0.0474404 0)
(0.0639957 0.0441073 0)
(0.0582556 0.0478897 0)
(0.0485484 0.0696124 0)
(0.091283 -0.0538747 0)
(0.0848229 -0.0493995 0)
(0.0568791 -0.0343446 0)
(0.032536 -0.00454729 0)
(0.033595 -0.00103547 0)
(0.0385979 0.00866934 0)
(0.0459477 0.0387387 0)
(0.0419528 0.0656456 0)
(0.0346362 0.0796816 0)
(0.0387744 0.0931993 0)
(0.000372726 0.00628909 0)
(-0.00595498 0.0488021 0)
(-0.0255596 0.0405642 0)
(-0.0282166 0.00830557 0)
(-0.037131 0.00320923 0)
(-0.0447647 0.0194174 0)
(-0.0386031 0.0529319 0)
(-0.0429051 0.0605402 0)
(-0.0371061 0.0445794 0)
(-0.0311891 0.0291391 0)
(-0.0937668 0.003555 0)
(-0.0838209 0.00627262 0)
(-0.0808528 0.0065865 0)
(-0.0789207 0.0164419 0)
(-0.0865095 0.0227497 0)
(-0.0983033 0.0274887 0)
(-0.108378 0.0583941 0)
(-0.111291 0.0709299 0)
(-0.132482 0.0646604 0)
(-0.156513 0.0594595 0)
(-0.145108 0.00907331 0)
(-0.157622 0.0244076 0)
(-0.178716 0.0272006 0)
(-0.187831 0.0197932 0)
(-0.19706 0.0298901 0)
(-0.211357 0.0714415 0)
(-0.222781 0.0912519 0)
(-0.227633 0.0928354 0)
(-0.232011 0.0826475 0)
(-0.237287 0.0839205 0)
(-0.199728 0.0709652 0)
(-0.217918 0.0535464 0)
(-0.219045 0.046406 0)
(-0.232399 0.0478478 0)
(-0.259614 0.0699764 0)
(-0.271754 0.0885905 0)
(-0.279604 0.0952973 0)
(-0.287275 0.113206 0)
(-0.312581 0.10885 0)
(-0.333623 0.112181 0)
(-0.226688 0.0850956 0)
(-0.241268 0.0729673 0)
(-0.264139 0.0791029 0)
(-0.290501 0.089279 0)
(-0.31098 0.113475 0)
(-0.335065 0.131507 0)
(-0.354548 0.133962 0)
(-0.361168 0.134435 0)
(-0.363842 0.132211 0)
(-0.368456 0.134405 0)
(-0.238939 0.115853 0)
(-0.255916 0.117206 0)
(-0.272679 0.125503 0)
(-0.294333 0.13456 0)
(-0.313473 0.150822 0)
(-0.330851 0.159138 0)
(-0.343834 0.148189 0)
(-0.351734 0.137083 0)
(-0.358317 0.138052 0)
(-0.366812 0.144256 0)
(-0.28024 0.135278 0)
(-0.288419 0.146705 0)
(-0.292863 0.158977 0)
(-0.30339 0.179126 0)
(-0.312551 0.186457 0)
(-0.31911 0.187044 0)
(-0.326752 0.174168 0)
(-0.340223 0.16192 0)
(-0.350066 0.158352 0)
(-0.355538 0.160054 0)
(-0.326418 0.157637 0)
(-0.334226 0.154897 0)
(-0.337187 0.160732 0)
(-0.33402 0.17932 0)
(-0.329371 0.191641 0)
(-0.328061 0.195292 0)
(-0.328908 0.190007 0)
(-0.334889 0.185994 0)
(-0.343068 0.175833 0)
(-0.343122 0.161992 0)
(-0.323821 0.182261 0)
(-0.347511 0.169493 0)
(-0.348903 0.156738 0)
(-0.344379 0.158315 0)
(-0.330459 0.168947 0)
(-0.315255 0.176335 0)
(-0.305048 0.176102 0)
(-0.305493 0.182954 0)
(-0.311559 0.18378 0)
(-0.30743 0.151428 0)
(-0.249366 0.2462 0)
(-0.285634 0.199645 0)
(-0.275375 0.14444 0)
(-0.268668 0.138504 0)
(-0.258811 0.146465 0)
(-0.246961 0.154562 0)
(-0.233009 0.16297 0)
(-0.228994 0.191602 0)
(-0.216002 0.188082 0)
(-0.190858 0.104985 0)
(-0.104436 0.267271 0)
(-0.106712 0.257731 0)
(-0.120936 0.191722 0)
(-0.129491 0.150337 0)
(-0.137561 0.144749 0)
(-0.127914 0.136339 0)
(-0.10498 0.128721 0)
(-0.0712416 0.134229 0)
(-0.0217252 0.0867234 0)
(0.0212682 0.0667637 0)
(-0.0650756 0.243679 0)
(-0.061581 0.24463 0)
(-0.0608631 0.178859 0)
(-0.0403035 0.120701 0)
(-0.0358735 0.130216 0)
(-0.0208865 0.0718982 0)
(-0.00954968 0.0456702 0)
(0.0151676 0.045654 0)
(0.0400138 0.00500767 0)
(0.0539366 0.00892808 0)
(-0.0529436 0.206091 0)
(-0.0244447 0.200767 0)
(0.00538534 0.180006 0)
(-0.00206459 0.125983 0)
(-0.00913206 0.120659 0)
(0.0181959 0.0716908 0)
(0.037579 0.0383826 0)
(0.0636823 0.016825 0)
(0.08803 -0.0165516 0)
(0.100625 -0.0178046 0)
(-0.0383861 0.172699 0)
(-0.0219648 0.143098 0)
(0.00690986 0.133896 0)
(0.0235379 0.112211 0)
(0.0463752 0.075365 0)
(0.0912464 0.00177014 0)
(0.117253 -0.0332881 0)
(0.13891 -0.0537853 0)
(0.155277 -0.0636469 0)
(0.164503 -0.0643729 0)
(0.0173024 0.143664 0)
(0.0392979 0.109427 0)
(0.0567817 0.0915364 0)
(0.0909146 0.0690281 0)
(0.128716 -0.00165391 0)
(0.151823 -0.0445878 0)
(0.167505 -0.0665358 0)
(0.189335 -0.078198 0)
(0.194228 -0.0730111 0)
(0.187067 -0.074055 0)
(0.0443044 0.104426 0)
(0.0673247 0.0576672 0)
(0.0908246 0.0200324 0)
(0.113498 -0.00943834 0)
(0.134306 -0.0415973 0)
(0.131223 -0.0869715 0)
(0.116108 -0.105001 0)
(0.108041 -0.0914473 0)
(0.0826144 -0.0425019 0)
(0.0605843 0.00446274 0)
(0.0644471 0.0678981 0)
(0.0768907 0.0267254 0)
(0.0791113 -0.00178557 0)
(0.0754044 -0.0159026 0)
(0.0724303 -0.0395695 0)
(0.0361419 -0.0430095 0)
(0.011975 -0.0209131 0)
(-0.0108317 -0.00513244 0)
(-0.0292738 -0.00218464 0)
(-0.0380288 0.045251 0)
(0.0684932 0.0482201 0)
(0.0750078 0.0217248 0)
(0.0712052 0.0165884 0)
(0.0555353 0.0148459 0)
(0.0558882 0.0289045 0)
(0.0169192 0.0270257 0)
(-0.0298248 0.00448163 0)
(-0.0476371 0.0022403 0)
(-0.0400915 0.00772535 0)
(-0.0272006 0.0768698 0)
(0.0699456 0.0313126 0)
(0.0685252 0.0251904 0)
(0.0668956 0.0267816 0)
(0.0640335 0.0208436 0)
(0.0643507 0.0299652 0)
(0.0520453 0.091245 0)
(0.0287337 0.0858456 0)
(-0.0105501 0.037786 0)
(-0.00592314 -0.0640124 0)
(0.00386994 0.014242 0)
(0.061291 0.0412689 0)
(0.0472552 0.0414732 0)
(0.0311821 0.0157116 0)
(0.0240273 0.0452583 0)
(0.00890795 0.07439 0)
(0.0144803 0.125744 0)
(0.0138537 0.123038 0)
(0.0281614 0.0902908 0)
(0.0790864 -0.0346344 0)
(0.110059 -0.0610022 0)
(-0.007833 0.0792721 0)
(-0.0223611 0.0847245 0)
(-0.0680108 0.0788396 0)
(-0.0879682 0.0652332 0)
(-0.0821803 0.0551994 0)
(-0.0256336 0.087569 0)
(0.0132243 0.0478766 0)
(0.0727207 -0.0788432 0)
(0.119356 -0.143494 0)
(0.135158 -0.148227 0)
(-0.0695635 0.118452 0)
(-0.0717428 0.112717 0)
(-0.0555755 0.115507 0)
(-0.0532414 0.091639 0)
(0.0234437 -0.0707251 0)
(0.0401259 -0.0961502 0)
(0.0943615 -0.110258 0)
(0.133653 -0.138114 0)
(0.153644 -0.157723 0)
(0.16408 -0.167955 0)
(-0.097349 0.0895586 0)
(-0.0544422 0.0995747 0)
(-0.00284772 0.00992026 0)
(0.0437615 -0.0276896 0)
(0.098974 -0.0936847 0)
(0.114273 -0.107499 0)
(0.130822 -0.126183 0)
(0.142896 -0.144937 0)
(0.154711 -0.164852 0)
(0.163426 -0.19997 0)
(-0.0539476 -0.0690268 0)
(-0.0236527 -0.0567948 0)
(0.0207422 -0.0894939 0)
(0.0488434 -0.141848 0)
(0.0808335 -0.162722 0)
(0.0854336 -0.15455 0)
(0.0787829 -0.154138 0)
(0.0765715 -0.169294 0)
(0.0868389 -0.20742 0)
(0.0951115 -0.230305 0)
(-0.0435733 -0.0791863 0)
(-0.0291218 -0.0848067 0)
(-0.00146497 -0.137968 0)
(0.0246566 -0.177137 0)
(0.0245268 -0.15508 0)
(0.00155119 -0.128024 0)
(-0.0225663 -0.11311 0)
(-0.0525854 -0.133871 0)
(-0.0722063 -0.20467 0)
(-0.0691643 -0.235041 0)
(-0.0414194 -0.0141655 0)
(-0.0470754 -0.117868 0)
(-0.0258954 -0.193578 0)
(-0.0235237 -0.194415 0)
(-0.0368081 -0.130477 0)
(-0.0941204 -0.0565224 0)
(-0.146263 -0.0323637 0)
(-0.169977 -0.135221 0)
(-0.135546 -0.242459 0)
(-0.11081 -0.260545 0)
(-0.085419 0.00938593 0)
(-0.0648555 -0.158854 0)
(-0.0775668 -0.193923 0)
(-0.0803208 -0.148203 0)
(-0.102719 -0.00800504 0)
(-0.114759 0.0683087 0)
(-0.117633 0.0470229 0)
(-0.0965492 -0.195893 0)
(-0.0664641 -0.343501 0)
(-0.0485353 -0.371401 0)
(-0.0699256 0.00814215 0)
(-0.0933467 -0.15356 0)
(-0.102636 -0.18924 0)
(-0.0981641 -0.131408 0)
(-0.0733102 -0.0386562 0)
(-0.013453 -0.0245399 0)
(0.0536466 -0.0441601 0)
(0.111259 -0.169629 0)
(0.13119 -0.313599 0)
(0.118484 -0.39846 0)
(-0.00165825 0.0591274 0)
(0.0313627 -0.0498304 0)
(0.0251446 -0.173101 0)
(0.00621273 -0.196363 0)
(0.0207988 -0.193523 0)
(0.0807093 -0.227366 0)
(0.131333 -0.218315 0)
(0.1594 -0.231513 0)
(0.163256 -0.291079 0)
(0.146729 -0.415149 0)
(0.112046 -0.109766 0)
(0.166076 -0.158405 0)
(0.176571 -0.136211 0)
(0.16771 -0.122606 0)
(0.15663 -0.167473 0)
(0.141719 -0.270628 0)
(0.148959 -0.253466 0)
(0.141572 -0.235896 0)
(0.129446 -0.281045 0)
(0.126316 -0.469193 0)
(0.164626 -0.150735 0)
(0.17432 -0.173388 0)
(0.174145 -0.160679 0)
(0.177949 -0.134639 0)
(0.182746 -0.150783 0)
(0.154505 -0.203877 0)
(0.126323 -0.198031 0)
(0.0967529 -0.183774 0)
(0.0932915 -0.248397 0)
(0.0979897 -0.480999 0)
(0.11833 -0.190255 0)
(0.11388 -0.184204 0)
(0.111085 -0.158019 0)
(0.107369 -0.140591 0)
(0.102883 -0.143665 0)
(0.0793318 -0.148713 0)
(0.0479763 -0.129588 0)
(0.0119848 -0.135516 0)
(0.0180011 -0.282375 0)
(0.0455709 -0.554594 0)
(0.0358511 -0.169949 0)
(0.0330614 -0.147378 0)
(0.0223826 -0.145142 0)
(0.0115575 -0.137465 0)
(0.00310716 -0.12018 0)
(-0.0152218 -0.0941541 0)
(-0.0364481 -0.0724885 0)
(-0.0729245 -0.124301 0)
(-0.0410823 -0.41695 0)
(-0.0183259 -0.604385 0)
(-0.0584092 -0.161471 0)
(-0.0654869 -0.149933 0)
(-0.0596846 -0.125297 0)
(-0.0575706 -0.107994 0)
(-0.0423324 -0.0978357 0)
(-0.0410594 -0.0682477 0)
(-0.046894 -0.0335142 0)
(-0.0586097 -0.119625 0)
(-0.0219055 -0.436705 0)
(-0.0426723 -0.592574 0)
(-0.124819 -0.138354 0)
(-0.123523 -0.148246 0)
(-0.120065 -0.139189 0)
(-0.107205 -0.145645 0)
(-0.0801451 -0.154014 0)
(-0.0361701 -0.0872639 0)
(-0.0297406 -0.043181 0)
(0.00721336 -0.15315 0)
(0.0208406 -0.420511 0)
(-0.0105343 -0.571911 0)
(-0.111337 -0.117482 0)
(-0.121175 -0.149085 0)
(-0.120727 -0.148714 0)
(-0.101367 -0.191637 0)
(-0.0882888 -0.223426 0)
(-0.0163909 -0.173422 0)
(0.0120644 -0.101469 0)
(0.0911451 -0.234273 0)
(0.102919 -0.390619 0)
(0.0986269 -0.533557 0)
(-0.0585783 -0.0706831 0)
(-0.0579638 -0.143254 0)
(-0.048644 -0.175585 0)
(-0.0268795 -0.222073 0)
(-0.0157572 -0.28806 0)
(-0.00270866 -0.320972 0)
(0.0508396 -0.267014 0)
(0.138616 -0.310129 0)
(0.162822 -0.385676 0)
(0.203386 -0.539119 0)
(-0.0295678 -0.115931 0)
(0.00612133 -0.149295 0)
(0.0326293 -0.215816 0)
(0.0573749 -0.238827 0)
(0.0746727 -0.26639 0)
(0.0857598 -0.35194 0)
(0.112574 -0.444931 0)
(0.167911 -0.476913 0)
(0.198195 -0.515035 0)
(0.254875 -0.647876 0)
(0.0125959 -0.221141 0)
(0.0393962 -0.259505 0)
(0.0751449 -0.292578 0)
(0.10143 -0.29661 0)
(0.122667 -0.303079 0)
(0.153733 -0.36485 0)
(0.171246 -0.486082 0)
(0.185626 -0.527311 0)
(0.218437 -0.583682 0)
(0.281756 -0.762519 0)
(0.0621604 -0.283143 0)
(0.0849205 -0.318225 0)
(0.0981311 -0.343841 0)
(0.118737 -0.364339 0)
(0.152529 -0.386465 0)
(0.185304 -0.432442 0)
(0.196539 -0.489133 0)
(0.195083 -0.55734 0)
(0.228222 -0.717585 0)
(0.282768 -0.855805 0)
(0.248514 -0.167857 0)
(0.180672 -0.299278 0)
(0.156564 -0.344019 0)
(0.153997 -0.392993 0)
(0.169808 -0.428959 0)
(0.179289 -0.459355 0)
(0.185776 -0.494608 0)
(0.198385 -0.596023 0)
(0.253717 -0.809727 0)
(0.27711 -0.87531 0)
(0.26681 -0.137247 0)
(0.247923 -0.16678 0)
(0.1901 -0.256016 0)
(0.171004 -0.394876 0)
(0.174974 -0.438748 0)
(0.173742 -0.46412 0)
(0.174926 -0.517941 0)
(0.217034 -0.709943 0)
(0.267376 -0.86132 0)
(0.26858 -0.870752 0)
(0.213239 -0.163975 0)
(0.221602 -0.160154 0)
(0.217303 -0.186657 0)
(0.20116 -0.370901 0)
(0.194575 -0.432338 0)
(0.180702 -0.463529 0)
(0.182945 -0.558824 0)
(0.251178 -0.81897 0)
(0.282675 -0.895268 0)
(0.287066 -0.865751 0)
(0.17577 -0.176604 0)
(0.186405 -0.186116 0)
(0.214927 -0.2058 0)
(0.222429 -0.353658 0)
(0.204246 -0.400609 0)
(0.183938 -0.459009 0)
(0.215678 -0.664554 0)
(0.284728 -0.903466 0)
(0.29535 -0.910078 0)
(0.290273 -0.834295 0)
(0.173047 -0.182395 0)
(0.175375 -0.241889 0)
(0.214399 -0.25341 0)
(0.208476 -0.326241 0)
(0.182768 -0.370602 0)
(0.179193 -0.48429 0)
(0.245697 -0.819836 0)
(0.298578 -0.943324 0)
(0.298868 -0.914962 0)
(0.253037 -0.725853 0)
(0.219304 -0.154492 0)
(0.192792 -0.240874 0)
(0.199542 -0.257654 0)
(0.171718 -0.283235 0)
(0.146956 -0.343004 0)
(0.16716 -0.599719 0)
(0.253423 -0.9307 0)
(0.293811 -0.96624 0)
(0.291641 -0.853737 0)
(0.160319 -0.496362 0)
(0.255534 -0.119438 0)
(0.213531 -0.141412 0)
(0.19133 -0.182332 0)
(0.125441 -0.232867 0)
(0.13147 -0.334089 0)
(0.174953 -0.796978 0)
(0.2351 -0.979332 0)
(0.239574 -0.959732 0)
(0.130203 -0.556103 0)
(-0.0173037 -0.204734 0)
(0.244582 -0.0570451 0)
(0.157214 -0.0145269 0)
(0.163318 -0.106756 0)
(0.0855394 -0.181114 0)
(0.109996 -0.393385 0)
(0.173306 -0.936093 0)
(0.221875 -0.997033 0)
(0.229641 -0.855051 0)
(0.0762133 -0.293242 0)
(-0.0457652 -0.0933002 0)
(0.152968 0.0510865 0)
(0.143981 0.0449176 0)
(0.153599 -0.0649628 0)
(0.0748022 -0.102397 0)
(0.108542 -0.599892 0)
(0.156809 -1.00277 0)
(0.194186 -0.987184 0)
(0.137232 -0.590715 0)
(0.016236 -0.0673255 0)
(-0.0383138 0.01217 0)
(0.172094 0.119089 0)
(0.203826 0.0820321 0)
(0.204831 -0.00686988 0)
(0.119108 -0.0252468 0)
(0.129938 -0.725732 0)
(0.149352 -1.02902 0)
(0.202311 -0.960974 0)
(0.124408 -0.401863 0)
(0.00189616 -0.00583432 0)
(0.0638824 0.097951 0)
(0.148071 -0.0430952 0)
(0.128226 -0.0501241 0)
(0.0856251 0.0812217 0)
(-0.0120854 0.252619 0)
(0.133873 -0.961818 0)
(0.127004 -1.0926 0)
(0.22488 -0.967049 0)
(0.131491 -0.344709 0)
(-0.0393051 -0.0129047 0)
(0.0657104 0.0363116 0)
(-0.223594 0.174234 0)
(-0.238299 0.225139 0)
(-0.262366 0.286837 0)
(-0.0656541 -0.360501 0)
(0.0533479 -1.05875 0)
(0.0246956 -1.08884 0)
(0.0916095 -0.884247 0)
(0.0377827 0.274999 0)
(-0.0485172 -0.0241827 0)
(0.0125617 -0.00516792 0)
(-0.374909 0.129226 0)
(-0.333696 0.113084 0)
(-0.261184 -0.0165286 0)
(-0.0085081 -0.860806 0)
(0.0201398 -1.06092 0)
(0.00584948 -1.07247 0)
(-0.000964138 -1.00753 0)
(0.0927712 0.148735 0)
(0.13311 -0.00208783 0)
(0.183585 -0.0222784 0)
(-0.0907574 0.088795 0)
(-0.040948 0.0154517 0)
(-0.0264966 -0.0146639 0)
(0.00427652 -0.99781 0)
(0.00586776 -1.05047 0)
(-0.00449117 -1.05471 0)
(-0.0104944 -1.02861 0)
(0.0291797 -0.148862 0)
(0.0852642 -0.247403 0)
(0.234398 -0.112008 0)
(0.0903108 -0.0225132 0)
(0.0530779 -0.0787523 0)
(-1.73104e-05 -0.0928464 0)
(0.0176781 -1.03349 0)
(0.00876446 -1.03256 0)
(-0.00687188 -1.03414 0)
(-0.0100764 -1.02879 0)
(-0.00243287 -0.139116 0)
(0.0872863 -0.297546 0)
(-0.112892 -0.0312428 0)
(-0.139513 0.0757707 0)
(-0.227088 0.198748 0)
(0.000106904 -0.043885 0)
(0.0144521 -1.04737 0)
(0.00568587 -1.01753 0)
(-0.00762178 -1.01799 0)
(-0.011725 -1.04736 0)
(0.00902601 -0.436247 0)
(0.0854416 0.00814892 0)
(0.0379087 -0.160945 0)
(-0.08114 0.0997309 0)
(-0.142848 -0.0479408 0)
(0.0147209 -0.621455 0)
(0.00907027 -1.01746 0)
(0.00452259 -0.993246 0)
(-0.010367 -0.99404 0)
(-0.020229 -1.01502 0)
(-0.0236071 -0.623193 0)
(0.119828 -0.168435 0)
(0.152333 -0.183672 0)
(0.0449131 0.126525 0)
(0.00816331 0.0915123 0)
(0.0177683 -0.582309 0)
(0.00967424 -1.00199 0)
(0.00516532 -0.979297 0)
(-0.0083371 -0.976963 0)
(-0.013894 -1.00096 0)
(-0.0335572 -0.622373 0)
(-0.0306586 -0.244352 0)
(-0.0253713 -0.105457 0)
(0.0797549 0.16954 0)
(0.0313583 0.109866 0)
(0.0279672 -0.584627 0)
(0.0150058 -0.978708 0)
(0.00814077 -0.954017 0)
(-0.00645635 -0.952719 0)
(-0.0130734 -0.978393 0)
(-0.0137331 -0.611713 0)
(-0.0611872 -0.191891 0)
(-0.0688363 -0.11976 0)
(0.0689711 0.257911 0)
(0.0207824 0.17511 0)
(0.0286168 -0.580612 0)
(0.0153417 -0.961636 0)
(0.00901324 -0.937055 0)
(-0.00380189 -0.936901 0)
(-0.00871207 -0.961389 0)
(-0.0107353 -0.612753 0)
(-0.0260396 -0.137896 0)
(-0.049283 -0.159473 0)
(0.0458197 0.35813 0)
(0.0144971 0.217015 0)
(0.0297687 -0.590043 0)
(0.0170717 -0.940404 0)
(0.00876166 -0.911673 0)
(-0.00576827 -0.913242 0)
(-0.0113106 -0.938586 0)
(-0.0128322 -0.604455 0)
(-0.0419682 -0.0678627 0)
(-0.069244 -0.158142 0)
(0.0191952 0.415829 0)
(0.00955691 0.215917 0)
(0.0245025 -0.600343 0)
(0.014138 -0.917359 0)
(0.00665614 -0.894582 0)
(-0.00492965 -0.895458 0)
(-0.0127865 -0.921021 0)
(-0.0191906 -0.629464 0)
(-0.000959547 0.0174535 0)
(-0.0347931 -0.102737 0)
(0.0252795 0.428469 0)
(0.0201122 0.217534 0)
(0.0317858 -0.6057 0)
(0.0180009 -0.899001 0)
(0.00861652 -0.870848 0)
(-0.00546473 -0.87233 0)
(-0.0111689 -0.895899 0)
(-0.0199908 -0.620366 0)
(-0.0127639 -0.00849014 0)
(-0.0403888 -0.01528 0)
(0.0277569 0.426875 0)
(0.0163508 0.220473 0)
(0.0265157 -0.612746 0)
(0.00947507 -0.873806 0)
(0.00318366 -0.851577 0)
(-0.00617254 -0.854413 0)
(-0.0151522 -0.877334 0)
(-0.0250974 -0.617544 0)
(-0.0326766 0.0268495 0)
(-0.0601599 0.0604677 0)
(0.0329108 0.428591 0)
(0.0180672 0.227408 0)
(0.0229663 -0.611105 0)
(0.0129069 -0.852558 0)
(0.00430904 -0.828578 0)
(-0.00878889 -0.828353 0)
(-0.0167809 -0.851534 0)
(-0.0285626 -0.609768 0)
(-0.037526 0.0842168 0)
(-0.0768682 0.120821 0)
(0.0317462 0.435997 0)
(0.0218656 0.231784 0)
(0.0260738 -0.609658 0)
(0.015602 -0.827978 0)
(0.00479227 -0.807396 0)
(-0.00604277 -0.81112 0)
(-0.0164028 -0.830253 0)
(-0.0251558 -0.610795 0)
(-0.0256034 0.104788 0)
(-0.0396142 0.227911 0)
(0.0176536 0.450243 0)
(0.0217538 0.215264 0)
(0.0147758 -0.605035 0)
(0.00790942 -0.804055 0)
(-0.000134967 -0.785589 0)
(-0.0116932 -0.784417 0)
(-0.02146 -0.804158 0)
(-0.0386291 -0.590853 0)
(-0.0373359 0.116121 0)
(-0.0253261 0.272783 0)
(0.00891019 0.483487 0)
(0.0251681 0.220996 0)
(0.0217615 -0.594513 0)
(0.0144238 -0.779261 0)
(0.00442164 -0.765255 0)
(-0.00553723 -0.762334 0)
(-0.0153858 -0.780377 0)
(-0.0347793 -0.577579 0)
(-0.0574351 0.127055 0)
(-0.0399752 0.257702 0)
(0.00193579 0.482907 0)
(0.0338881 0.200451 0)
(0.0465799 -0.599408 0)
(0.0270618 -0.754994 0)
(0.0171221 -0.738259 0)
(0.00372719 -0.735693 0)
(-0.00651262 -0.754219 0)
(-0.0088125 -0.560201 0)
(-0.0192566 0.0919598 0)
(-0.00436401 0.227078 0)
(-0.00756745 0.461659 0)
(0.0332 0.147092 0)
(0.0337749 -0.601822 0)
(0.0221541 -0.730278 0)
(0.0100513 -0.711441 0)
(-0.00388408 -0.71476 0)
(-0.0167795 -0.728465 0)
(-0.0219358 -0.526145 0)
(-0.0381836 0.0887278 0)
(0.00249605 0.202732 0)
(-0.0284126 0.412149 0)
(0.0399067 0.110413 0)
(0.0270129 -0.575232 0)
(0.0206869 -0.704416 0)
(0.00796445 -0.683961 0)
(-0.010332 -0.682951 0)
(-0.0244645 -0.701038 0)
(-0.0332081 -0.517666 0)
(-0.0438922 0.0666288 0)
(-0.0100261 0.123184 0)
(-0.0467405 0.282426 0)
(0.0573885 0.0336275 0)
(0.0395427 -0.540956 0)
(0.0248844 -0.677311 0)
(0.00957466 -0.659185 0)
(-0.00603576 -0.655901 0)
(-0.020128 -0.673107 0)
(-0.0304805 -0.521965 0)
(-0.0169756 0.0241538 0)
(0.0493832 0.0710555 0)
(-0.045686 0.0424561 0)
(0.031729 -0.105204 0)
(0.0455011 -0.505458 0)
(0.0257055 -0.646597 0)
(0.00870176 -0.625748 0)
(-0.00768721 -0.624121 0)
(-0.0214329 -0.64056 0)
(-0.0332388 -0.51045 0)
(-0.0222544 -0.117887 0)
(0.0473711 -0.021038 0)
(0.00196994 -0.0487437 0)
(-0.00476488 -0.190545 0)
(0.0492956 -0.490463 0)
(0.0235342 -0.611818 0)
(0.00417198 -0.599493 0)
(-0.00746138 -0.596324 0)
(-0.0238332 -0.608196 0)
(-0.0388386 -0.509981 0)
(-0.00602703 -0.190335 0)
(0.0129775 -0.0849578 0)
(0.0287652 -0.083318 0)
(-0.0256317 -0.22004 0)
(0.0522186 -0.517791 0)
(0.0250836 -0.58011 0)
(0.00575846 -0.571436 0)
(-0.00890358 -0.567392 0)
(-0.02593 -0.573298 0)
(-0.0414731 -0.539136 0)
(-0.009734 -0.231742 0)
(-0.00308208 -0.117712 0)
(0.0611811 -0.0551606 0)
(0.0179944 -0.20016 0)
(0.0629936 -0.523304 0)
(0.0382818 -0.542455 0)
(0.0194375 -0.541235 0)
(0.0109687 -0.538954 0)
(-0.00920147 -0.540827 0)
(-0.0310351 -0.542242 0)
(-0.017503 -0.245072 0)
(-0.0335839 -0.110716 0)
(0.0728358 -0.0565828 0)
(0.0612998 -0.21362 0)
(0.0736293 -0.479937 0)
(0.0310463 -0.506683 0)
(0.0170465 -0.506278 0)
(-0.00288725 -0.506886 0)
(-0.0235461 -0.505742 0)
(-0.036947 -0.497041 0)
(-0.0611841 -0.223431 0)
(-0.07227 -0.0850259 0)
(0.0796217 -0.019067 0)
(0.0549098 -0.208254 0)
(0.0491512 -0.449913 0)
(0.0206656 -0.462357 0)
(0.00323776 -0.467925 0)
(-0.0148817 -0.471248 0)
(-0.0402563 -0.468351 0)
(-0.0601801 -0.446188 0)
(-0.0565724 -0.213818 0)
(-0.0729821 -0.0685665 0)
(0.0381291 -0.022178 0)
(0.0714256 -0.177442 0)
(0.0635481 -0.408839 0)
(0.0301399 -0.424503 0)
(0.00957668 -0.42849 0)
(-0.0130052 -0.426975 0)
(-0.0335827 -0.420252 0)
(-0.0670351 -0.390838 0)
(-0.0646513 -0.209116 0)
(-0.053973 -0.0641079 0)
(0.00353606 -0.0799118 0)
(0.070305 -0.264977 0)
(0.0657366 -0.358091 0)
(0.0457808 -0.382651 0)
(0.0221464 -0.383182 0)
(-0.00578479 -0.383254 0)
(-0.0256215 -0.375158 0)
(-0.0629706 -0.359734 0)
(-0.0694623 -0.270184 0)
(-0.00175492 -0.0869702 0)
(0.0822134 -0.135639 0)
(0.0679614 -0.277523 0)
(0.0645036 -0.313566 0)
(0.0257487 -0.329119 0)
(0.00333883 -0.329294 0)
(-0.0235434 -0.327271 0)
(-0.0484512 -0.327332 0)
(-0.0724669 -0.311277 0)
(-0.0751079 -0.284498 0)
(-0.0907135 -0.140132 0)
(0.096013 -0.19887 0)
(0.0765769 -0.222529 0)
(0.0703927 -0.26062 0)
(0.0367265 -0.275618 0)
(0.0106275 -0.283592 0)
(-0.0164953 -0.287939 0)
(-0.0363211 -0.28333 0)
(-0.0682285 -0.257873 0)
(-0.0735201 -0.220388 0)
(-0.101996 -0.211385 0)
(0.0556708 -0.134249 0)
(0.0494742 -0.193967 0)
(0.0440241 -0.233161 0)
(0.0267022 -0.244073 0)
(0.0183073 -0.248262 0)
(-0.00275894 -0.248128 0)
(-0.0163897 -0.24377 0)
(-0.0414391 -0.23373 0)
(-0.0516696 -0.189985 0)
(-0.0513765 -0.141049 0)
(0.0238408 -0.00609929 0)
(0.0215021 -0.00432636 0)
(0.0189451 0.000638401 0)
(0.0190256 0.00267949 0)
(0.018393 0.00267723 0)
(0.0180733 0.00142086 0)
(0.0181034 0.00139907 0)
(0.017603 0.00138305 0)
(0.0162592 0.000780065 0)
(0.0150282 -0.000283949 0)
(0.0135546 -0.000841761 0)
(0.0121228 -0.000127079 0)
(0.00885878 0.00271385 0)
(0.0017481 0.00551116 0)
(-0.00390736 0.00825056 0)
(-0.0157947 0.00927036 0)
(-0.0248526 0.00770891 0)
(-0.034878 0.012135 0)
(-0.0582862 0.0195492 0)
(-0.0806147 0.0181364 0)
(-0.096618 0.0261408 0)
(-0.133812 0.0461956 0)
(-0.166015 0.0346467 0)
(-0.186647 0.0124716 0)
(-0.190354 -0.00235078 0)
(-0.194812 -0.00677795 0)
(-0.188367 -0.0152349 0)
(-0.177532 -0.016386 0)
(-0.167967 -0.0108183 0)
(-0.153899 -0.0164161 0)
(-0.132348 -0.0227635 0)
(-0.105512 -0.0289787 0)
(-0.0738505 -0.0337571 0)
(-0.0387166 -0.0319591 0)
(-0.00950333 -0.0215969 0)
(0.0151777 -0.0164443 0)
(0.02692 -0.0257582 0)
(0.0434272 -0.0128721 0)
(0.0368799 0.0178173 0)
(0.00459867 0.025578 0)
(0.0154186 0.0122661 0)
(0.00924949 0.0120639 0)
(0.00728376 0.00270374 0)
(0.00979191 -0.00168131 0)
(0.0122698 6.11897e-05 0)
(0.015527 -0.00129116 0)
(0.0176586 -0.00128851 0)
(0.0201828 0.00207881 0)
(0.0205643 0.00367525 0)
(0.0198068 0.00551341 0)
(0.0167589 0.00657659 0)
(0.011798 0.0100176 0)
(0.00585051 0.0167401 0)
(-0.00338914 0.0186757 0)