/*--------------------------------*- C++ -*----------------------------------*\
  =========                 |
  \\      /  F ield         | OpenFOAM: The Open Source CFD Toolbox
   \\    /   O peration     | Website:  https://openfoam.org
    \\  /    A nd           | Version:  8
     \\/     M anipulation  |
\*---------------------------------------------------------------------------*/
FoamFile
{
    version     2.0;
    format      ascii;
    class       volScalarField;
    location    "8.15";
    object      alpha.water;
}
// * * * * * * * * * * * * * * * * * * * * * * * * * * * * * * * * * * * * * //

dimensions      [0 0 0 0 0 0 0];

internalField   nonuniform List<scalar> 
9150
(
1
1
1
1
1
1
1
1
1
1
1
1
1
1
1
1
1
1
1
1
1
1
1
1
1
1
1
1
1
1
1
1
1
1
1
1
1
1
1
1
1
1
1
1
1
1
1
1
1
1
1
1
1
1
0.999999
1
1
1
1
1
1
1
1
1
1
1
1
1
1
1
1
1
1
1
1
1
1
1
1
1
1
1
1
1
1
1
1
1
1
1
1
1
1
1
1
1
1
1
1
1
1
1
1
1
1
1
1
1
1
1
1
1
1
1
1
1
1
1
1
1
1
1
1
1
1
1
1
1
1
1
1
1
1
1
1
1
1
1
1
1
1
1
1
1
0.999999
1
1
1
1
1
0.995629
0.995919
0.992903
0.994376
0.997844
0.998612
0.998614
0.998662
0.998662
0.997929
0.995626
0.994677
0.990724
0.990724
0.990724
0.990729
0.993512
0.998666
0.998662
0.997891
0.991782
0.996281
0.998672
0.994808
0.990729
0.990735
0.994555
0.998672
0.998528
0.998142
0.991993
0.998216
0.998676
0.998672
0.997186
0.992091
0.997931
0.998676
0.998284
0.998675
0.996806
0.998676
0.998676
0.996521
0.994121
0.994997
0.998676
0.998676
0.998285
0.998676
0.99862
0.998676
0.998676
0.994638
0.994121
0.996051
0.998676
0.998676
0.998673
0.998676
0.998676
0.998676
0.998676
0.996783
0.995148
0.998479
0.998676
0.998676
0.998676
0.998676
0.998676
0.998676
0.998676
0.998676
0.998676
0.998676
0.998676
0.998676
0.998676
0.998676
0.998676
0.998676
0.998676
0.998676
0.998676
0.998676
0.998676
0.998676
0.998676
0.992579
0.998676
0.998676
0.998676
0.998676
0.998676
0.998676
0.998676
0.99464
0.988109
0.987843
0.998676
0.998676
0.998676
0.998676
0.998677
0.987983
0.972195
0.985783
0.995962
0.998676
0.998676
0.997466
0.998676
0.998676
0.978403
0.968941
0.969019
0.990891
0.998679
0.99868
0.998675
0.997198
0.995313
0.977501
0.968941
0.968941
0.970331
0.99598
0.998678
0.998679
0.998675
0.997255
0.978348
0.968951
0.968946
0.969881
0.998529
0.998674
0.998676
0.998678
0.998672
0.997696
0.972952
0.968953
0.968951
0.984903
0.998673
0.998674
0.998674
0.995285
0.998667
0.995547
0.969039
0.968954
0.978549
0.998673
0.998674
0.998673
0.998634
0.94706
0.998649
0.9808
0.969109
0.969111
0.995053
0.998673
0.998186
0.998633
0.997994
0.936535
0.977792
0.969185
0.969112
0.985983
0.998591
0.998665
0.989604
0.963781
0.989651
0.971626
0.969178
0.969185
0.972245
0.998543
0.998561
0.998355
0.972667
0.960047
0.966891
0.979617
0.96918
0.969177
0.969916
0.996793
0.998587
0.998636
0.982049
0.960118
0.960047
0.975645
0.972761
0.969185
0.969179
0.972061
0.996089
0.998656
0.998391
0.986149
0.97013
0.958829
0.995575
0.9714
0.969179
0.969179
0.97548
0.998657
0.998656
0.99865
0.99524
0.977768
0.997961
0.994
0.969179
0.969236
0.974591
0.998657
0.998657
0.998656
0.998649
0.998087
0.993005
0.996753
0.990555
0.969293
0.97771
0.997625
0.998656
0.998026
0.996258
0.996332
0.989309
0.987258
0.987935
0.985206
0.986629
0.991991
0.998244
0.998556
0.998074
0.998568
0.986347
0.980597
0.980652
0.991964
0.998498
0.995222
0.997808
0.998567
0.998569
0.998569
0.975427
0.997542
0.997854
0.998499
0.998527
0.998562
0.998485
0.998569
0.998569
0.998569
0.818031
0.830067
0.910608
0.998482
0.998562
0.998567
0.998569
0.998569
0.998569
0.998569
0.817956
0.817961
0.818008
0.844178
0.977949
0.998562
0.998567
0.998569
0.998569
0.997471
0.817954
0.817953
0.817953
0.817969
0.841199
0.991236
0.998535
0.96999
0.949043
0.994419
0.817953
0.817953
0.817953
0.817953
0.817969
0.862249
0.866055
0.820861
0.87769
0.993729
0.947657
0.833559
0.817953
0.817967
0.817968
0.817982
0.818851
0.820321
0.929291
0.996989
0.995005
0.983957
0.923438
0.822134
0.817982
0.831426
0.854202
0.918518
0.994882
0.997201
0.995107
0.995366
0.995972
0.966225
0.945
0.967542
0.982583
0.996124
0.997201
0.99721
0.971688
0.995972
0.995998
0.995999
0.988155
0.984079
0.995404
0.997202
0.99721
0.997211
0.965429
0.995998
0.995999
0.995999
0.99426
0.984908
0.99692
0.997214
0.997212
0.997211
0.944901
0.971476
0.984005
0.975568
0.955394
0.978643
0.997121
0.997194
0.995783
0.997211
0.925005
0.92486
0.925058
0.925139
0.925139
0.925139
0.925466
0.938377
0.990181
0.99718
0.941276
0.986115
0.994707
0.98602
0.963397
0.945358
0.97324
0.985598
0.986449
0.947971
0.996497
0.996486
0.996394
0.988672
0.957936
0.947803
0.973915
0.98992
0.992408
0.986823
0.991293
0.971699
0.97163
0.971731
0.975856
0.994879
0.994641
0.99364
0.99242
0.992408
0.996483
0.99646
0.996185
0.995683
0.995403
0.995334
0.994676
0.943582
0.907995
0.915088
0.996463
0.979333
0.942253
0.969598
0.995347
0.995145
0.960129
0.907995
0.907906
0.907949
0.996016
0.934967
0.887529
0.906121
0.995145
0.994092
0.927392
0.907906
0.907906
0.907906
0.886739
0.886323
0.886306
0.9448
0.994884
0.99483
0.991275
0.920057
0.907906
0.907926
0.927448
0.886288
0.932391
0.994873
0.994895
0.99486
0.994566
0.993094
0.97557
0.930553
0.953824
0.917546
0.994838
0.994895
0.99486
0.990261
0.90243
0.863248
0.962055
0.978087
0.994623
0.994787
0.994844
0.994818
0.994428
0.979041
0.740242
0.669054
0.66842
0.671172
0.994648
0.994726
0.994762
0.983563
0.992085
0.990197
0.873251
0.669054
0.67062
0.674133
0.803288
0.730339
0.687447
0.938848
0.982393
0.975551
0.94281
0.915227
0.983153
0.98485
0.696499
0.599091
0.587896
0.631133
0.662821
0.712709
0.738477
0.797674
0.908874
0.987234
0.671883
0.587896
0.58776
0.58776
0.58776
0.587765
0.587874
0.587945
0.632122
0.913987
0.995442
0.968825
0.713335
0.588397
0.588638
0.596405
0.587914
0.587945
0.590641
0.821209
0.996185
0.996186
0.99619
0.996187
0.996195
0.964036
0.657896
0.699693
0.964684
0.993559
0.996183
0.99619
0.996193
0.996192
0.996188
0.996193
0.996199
0.996195
0.996188
0.996109
0.996206
0.996202
0.996194
0.996193
0.996191
0.996197
0.996207
0.9962
0.996132
0.893329
0.996093
0.996194
0.996194
0.996193
0.996195
0.996199
0.996198
0.996136
0.955283
0.471432
0.938219
0.987593
0.995198
0.996189
0.996187
0.996187
0.996076
0.956082
0.453862
0.285471
0.921967
0.921984
0.940332
0.994801
0.996097
0.995906
0.908784
0.390027
0.285029
0.286743
0.921985
0.921975
0.942889
0.991048
0.992234
0.754618
0.295977
0.286173
0.287215
0.288327
0.922019
0.950994
0.96856
0.964216
0.479703
0.287329
0.287073
0.287519
0.2881
0.287908
0.966261
0.969153
0.969153
0.717057
0.288289
0.287707
0.287571
0.288063
0.288022
0.287733
0.968608
0.969153
0.931331
0.741512
0.29992
0.287798
0.287988
0.288009
0.288002
0.287853
0.96327
0.949472
0.731898
0.537006
0.491722
0.328288
0.287974
0.287984
0.288006
0.461051
0.799544
0.578357
0.533397
0.493861
0.492186
0.578032
0.812365
0.898222
0.92649
0.925034
0.798182
0.798151
0.767923
0.513033
0.601244
0.886206
0.948945
0.947431
0.946679
0.913878
0.768841
0.76962
0.780605
0.928476
0.954953
0.952809
0.949986
0.948945
0.875213
0.870693
0.957941
0.890985
0.959444
0.958275
0.955191
0.907576
0.907576
0.907576
0.91811
0.971596
0.975479
0.975363
0.975166
0.938566
0.932868
0.932749
0.944139
0.988249
0.991376
0.991203
0.968519
0.968217
0.972178
0.992506
0.986827
0.992417
0.992427
0.992237
0.99191
0.973125
0.992464
0.992214
0.992506
0.992508
0.992506
0.99249
0.991043
0.982294
0.982294
0.992676
0.992462
0.992489
0.992508
0.992506
0.99249
0.992385
0.985639
0.982294
0.982299
0.992176
0.992447
0.992461
0.992491
0.992477
0.992386
0.991926
0.987099
0.982342
0.984107
0.99414
0.991251
0.992132
0.992219
0.992252
0.983203
0.959045
0.986767
0.986955
0.981044
0.982464
0.764038
0.853785
0.953039
0.990522
0.961186
0.921748
0.977423
0.986955
0.961257
0.937954
0.601583
0.601523
0.643074
0.927854
0.912262
0.918513
0.950308
0.986185
0.964207
0.904923
0.601523
0.601523
0.601523
0.787196
0.84184
0.949393
0.85314
0.85989
0.905068
0.90599
0.601612
0.601523
0.602541
0.707634
0.815767
0.957665
0.852339
0.661335
0.661086
0.863058
0.712881
0.602835
0.693354
0.698631
0.758488
0.964693
0.919256
0.652348
0.651306
0.650053
0.902499
0.94014
0.980598
0.799835
0.788119
0.969882
0.964802
0.687142
0.650053
0.650012
0.976719
0.980752
0.980724
0.79917
0.932681
0.977536
0.968882
0.770667
0.650276
0.650053
0.980752
0.980752
0.981385
0.860385
0.976323
0.979711
0.840706
0.78478
0.651585
0.650276
0.980751
0.981176
0.981996
0.981996
0.982018
0.981968
0.652116
0.777586
0.652639
0.756168
0.980556
0.980751
0.973522
0.982018
0.981991
0.943627
0.573522
0.740543
0.759679
0.762885
0.949325
0.980323
0.804291
0.981987
0.975134
0.709689
0.563203
0.719128
0.758822
0.759477
0.673747
0.908211
0.791503
0.981601
0.95599
0.587048
0.563199
0.563203
0.658944
0.810455
0.47089
0.630851
0.853697
0.982797
0.959105
0.595283
0.563203
0.563201
0.604356
0.947469
0.464827
0.415239
0.823971
0.988003
0.995105
0.806815
0.563203
0.563388
0.56319
0.832997
0.497942
0.273704
0.35121
0.995343
0.996924
0.971937
0.621308
0.56319
0.563175
0.56319
0.313856
0.179327
0.0826409
0.770691
0.997019
0.99785
0.927857
0.750269
0.56319
0.563175
0.018694
0.121708
0.0332477
0.535679
0.99785
0.998748
0.92425
0.859063
0.850074
0.839224
0.00238665
0.0150344
0.00224569
0.494291
0.99757
0.998848
0.89131
0.61339
0.67164
0.661751
0.000428505
4.82327e-05
0.00115333
0.700432
0.998848
0.998952
0.885331
0.208719
0.138955
0.122512
4.24245e-05
2.11833e-05
4.81886e-05
0.797325
0.998914
0.999611
0.91513
0.163103
0.0947258
0.0958062
2.57644e-05
1.45024e-05
0.0881687
0.873653
0.999604
0.999823
0.978662
0.337689
0.00281283
0.023079
6.33185e-06
6.88707e-06
0.254888
0.959129
0.99983
0.999887
0.997091
0.509293
0.00198783
0.00116992
6.33732e-06
6.33732e-06
0.550598
0.998578
0.999936
0.999937
0.999892
0.716387
0.00112099
0.000950163
6.33083e-06
0.0303503
0.851592
0.999938
0.999984
0.999998
0.99994
0.890117
0.144591
0.000257836
6.18061e-06
0.486201
0.992852
0.999983
1
1
0.999997
0.999816
0.647578
1.01321e-45
0.268056
0.949312
1
1
1
1
1
1
0.97884
0.365506
0.99725
0.998115
0.998675
0.998674
0.998591
0.998604
0.998604
0.998604
0.998604
0.998604
0.998604
0.998604
0.998584
0.995076
0.995023
0.995023
0.995023
0.995025
0.997073
0.998409
0.998415
0.998415
0.998415
0.998415
0.994849
0.980881
0.990672
0.994947
0.994963
0.995512
0.996986
0.997188
0.997282
0.997282
0.997282
0.997268
0.997256
0.997245
0.99603
0.995783
0.998176
0.998676
0.998675
0.998675
0.997812
0.964946
0.94632
0.946265
0.954856
0.995598
0.998604
0.998604
0.998604
0.998604
0.997145
0.996433
0.998596
0.998594
0.998587
0.992862
0.989763
0.998415
0.998417
0.998419
0.995827
0.976729
0.97449
0.974334
0.974157
0.974146
0.974138
0.974142
0.984995
0.976747
0.979092
0.987748
0.989551
0.997216
0.997821
0.997821
0.998676
0.998676
0.998676
0.998675
0.998635
0.969294
0.946193
0.946192
0.946194
0.946358
0.98208
0.998604
0.998604
0.998604
0.998604
0.998602
0.998598
0.998596
0.997546
0.984495
0.982043
0.988826
0.998419
0.998432
0.998447
0.998448
0.998449
0.998449
0.996122
0.992071
0.995359
0.992668
0.941354
0.935887
0.935887
0.935887
0.935887
0.963395
0.997665
0.997608
0.998676
0.998676
0.998676
0.998676
0.998675
0.997627
0.981523
0.956153
0.946226
0.94624
0.961221
0.998604
0.998604
0.997075
0.990747
0.995653
0.998596
0.998549
0.987289
0.982054
0.98196
0.981906
0.990342
0.996017
0.995076
0.998449
0.998449
0.998449
0.998449
0.998449
0.998449
0.986798
0.935887
0.935887
0.935887
0.935887
0.935887
0.938475
0.991789
0.993794
0.998676
0.998676
0.998676
0.998676
0.998676
0.998675
0.998258
0.9976
0.983302
0.947656
0.958846
0.998604
0.998604
0.997757
0.971168
0.962006
0.96916
0.991904
0.990244
0.988622
0.988216
0.968446
0.960625
0.960627
0.96063
0.984993
0.998449
0.998449
0.998449
0.998449
0.998439
0.997662
0.98656
0.984828
0.979763
0.949351
0.958769
0.994028
0.998442
0.99436
0.998342
0.997167
0.998676
0.998676
0.993471
0.993346
0.998224
0.998207
0.99809
0.994298
0.98626
0.988773
0.990916
0.993048
0.982718
0.962
0.96196
0.961936
0.961936
0.961936
0.965669
0.973708
0.960627
0.960624
0.960627
0.968785
0.994392
0.997559
0.997693
0.995072
0.998376
0.99845
0.998451
0.998451
0.998451
0.998451
0.998446
0.998443
0.998442
0.996778
0.998574
0.993926
0.991349
0.99094
0.989635
0.989622
0.989574
0.991143
0.997809
0.998005
0.998046
0.99805
0.992654
0.990764
0.994846
0.983039
0.964207
0.962037
0.971065
0.989345
0.99315
0.966399
0.960624
0.960627
0.980981
0.995256
0.995537
0.993068
0.960492
0.937135
0.971053
0.993059
0.99845
0.998451
0.998451
0.996493
0.991819
0.995054
0.998443
0.998437
0.998676
0.997742
0.989577
0.989579
0.989667
0.992438
0.989531
0.989548
0.993728
0.998046
0.99805
0.99805
0.99805
0.994815
0.994841
0.988033
0.990167
0.995835
0.996732
0.99755
0.997534
0.983694
0.960628
0.979159
0.998802
0.998646
0.998577
0.986401
0.928017
0.928017
0.928017
0.938181
0.985492
0.994396
0.993162
0.968045
0.966201
0.968272
0.979154
0.979562
0.99097
0.989762
0.989579
0.989578
0.993469
0.995512
0.995575
0.995577
0.968667
0.965227
0.994177
0.99805
0.998047
0.997098
0.989684
0.989326
0.99747
0.997464
0.997306
0.973842
0.966385
0.966392
0.968437
0.997645
0.99883
0.998913
0.998903
0.989073
0.939034
0.928017
0.928097
0.928332
0.928616
0.960888
0.965203
0.966194
0.966175
0.972437
0.983538
0.97802
0.987843
0.994699
0.998671
0.998607
0.989298
0.945376
0.970417
0.991402
0.964682
0.964672
0.982291
0.989242
0.99291
0.994285
0.988401
0.990618
0.997468
0.997469
0.997325
0.976277
0.966385
0.966385
0.991069
0.998918
0.998918
0.998918
0.998913
0.998901
0.998908
0.98348
0.956002
0.955606
0.976961
0.971032
0.96827
0.988306
0.973613
0.967353
0.982203
0.986414
0.99868
0.99868
0.99868
0.97971
0.885396
0.956141
0.996293
0.995055
0.964672
0.964672
0.964672
0.970831
0.99888
0.998213
0.993877
0.99388
0.979663
0.961757
0.961935
0.9708
0.998239
0.998565
0.998914
0.998918
0.998911
0.9989
0.998901
0.998908
0.998922
0.998924
0.998926
0.998926
0.998927
0.998927
0.998927
0.998927
0.998926
0.981928
0.972222
0.978668
0.99868
0.99868
0.992008
0.882107
0.882312
0.979002
0.996543
0.98968
0.964695
0.964672
0.965671
0.996365
0.998888
0.99888
0.997519
0.969294
0.961664
0.961664
0.96433
0.998896
0.998917
0.998913
0.998911
0.998915
0.985764
0.966104
0.966692
0.995634
0.998908
0.998919
0.998895
0.998926
0.998926
0.998927
0.998927
0.998926
0.998922
0.998867
0.986477
0.979396
0.99868
0.997541
0.894148
0.871587
0.911079
0.997072
0.996933
0.98214
0.964689
0.968389
0.998781
0.998891
0.998891
0.998888
0.997154
0.966096
0.961742
0.966362
0.998909
0.998917
0.998917
0.998917
0.998913
0.99837
0.926903
0.878118
0.878124
0.910868
0.981629
0.998262
0.998843
0.998887
0.998038
0.998751
0.998926
0.997117
0.981371
0.990649
0.995157
0.993823
0.989592
0.888863
0.870002
0.870974
0.990563
0.997145
0.997061
0.975469
0.96481
0.996803
0.998891
0.998891
0.998891
0.998891
0.998778
0.988528
0.980612
0.994639
0.998917
0.998917
0.998917
0.998917
0.998915
0.998384
0.926012
0.878121
0.878117
0.878124
0.885578
0.998557
0.998777
0.993374
0.987908
0.994907
0.998909
0.991023
0.924844
0.921011
0.995148
0.995157
0.906266
0.869288
0.8695
0.934641
0.997436
0.997297
0.985853
0.975745
0.987963
0.99865
0.99882
0.992019
0.990495
0.99491
0.998683
0.997135
0.994284
0.998915
0.998916
0.998917
0.998917
0.986323
0.972808
0.980493
0.964316
0.879795
0.878124
0.878137
0.908498
0.990031
0.996035
0.987853
0.987834
0.992381
0.998785
0.988697
0.92046
0.910058
0.92816
0.985319
0.868376
0.868747
0.891667
0.998214
0.997747
0.989555
0.983284
0.9843
0.998061
0.996831
0.990433
0.990433
0.990433
0.991828
0.998599
0.9982
0.995709
0.998851
0.998915
0.993766
0.894578
0.869714
0.869863
0.869971
0.943017
0.878607
0.878137
0.899662
0.993373
0.995069
0.989878
0.987834
0.987989
0.993578
0.996305
0.993316
0.985921
0.910148
0.908354
0.908372
0.868376
0.868376
0.947479
0.99827
0.998119
0.985151
0.983284
0.994513
0.998225
0.993251
0.990475
0.992039
0.996739
0.996863
0.996937
0.998239
0.998512
0.998817
0.946051
0.869983
0.869631
0.869676
0.869714
0.899303
0.978949
0.938984
0.917711
0.988757
0.995069
0.995069
0.995069
0.989433
0.993332
0.993446
0.993247
0.993451
0.996438
0.996569
0.932426
0.908351
0.878192
0.87032
0.982774
0.998278
0.99826
0.991644
0.992003
0.998296
0.99829
0.996198
0.991943
0.996498
0.996672
0.99671
0.936214
0.869974
0.870379
0.884438
0.86964
0.869624
0.869624
0.869631
0.872578
0.979342
0.989813
0.992533
0.993188
0.985248
0.985839
0.995069
0.994998
0.992549
0.98337
0.991069
0.997236
0.994587
0.996208
0.996569
0.996569
0.96789
0.965905
0.887245
0.979342
0.998278
0.998289
0.99829
0.998296
0.998298
0.998298
0.99829
0.996184
0.946323
0.915658
0.93098
0.872932
0.869751
0.869703
0.86964
0.869624
0.869624
0.869624
0.869624
0.880384
0.915255
0.974568
0.996236
0.994013
0.976135
0.920298
0.903669
0.918941
0.976232
0.946137
0.975568
0.998225
0.998796
0.996727
0.994777
0.989274
0.997011
0.972462
0.927061
0.910051
0.991135
0.998289
0.998295
0.998298
0.998298
0.998298
0.998298
0.998282
0.969239
0.893956
0.880636
0.880016
0.881599
0.887426
0.883427
0.899946
0.91029
0.87308
0.897352
0.924084
0.962623
0.996994
0.998584
0.998585
0.998584
0.989072
0.786995
0.751964
0.820444
0.916965
0.965673
0.997382
0.998808
0.998754
0.996503
0.98384
0.997015
0.934741
0.90542
0.90542
0.905532
0.94363
0.977379
0.989099
0.989149
0.990456
0.995918
0.998179
0.996694
0.983781
0.956699
0.921029
0.95844
0.99383
0.996712
0.997016
0.939058
0.881108
0.881171
0.881481
0.890417
0.987429
0.998574
0.998584
0.998585
0.998575
0.850507
0.750056
0.750008
0.822395
0.977149
0.997576
0.998812
0.998812
0.998812
0.983831
0.992675
0.962298
0.956628
0.946879
0.951992
0.949766
0.954424
0.968397
0.983943
0.993571
0.995586
0.993406
0.993136
0.993085
0.993013
0.983963
0.958407
0.960977
0.987743
0.997245
0.997239
0.990574
0.887976
0.881594
0.889728
0.986127
0.99856
0.998574
0.998575
0.857146
0.750056
0.750008
0.750035
0.770524
0.970696
0.998296
0.998812
0.998812
0.998812
0.985144
0.966934
0.998341
0.998376
0.998374
0.99783
0.996241
0.994233
0.993143
0.99471
0.995489
0.995524
0.995488
0.992127
0.992023
0.992828
0.998742
0.992844
0.961844
0.962396
0.99059
0.997245
0.997199
0.932639
0.882074
0.969521
0.998536
0.998561
0.99856
0.983825
0.780648
0.750168
0.750056
0.750033
0.827201
0.981596
0.996711
0.998811
0.998812
0.998812
0.990309
0.96668
0.998379
0.998379
0.998377
0.997901
0.99516
0.99558
0.996261
0.996266
0.958942
0.931244
0.979591
0.993894
0.996275
0.998667
0.99876
0.998767
0.992925
0.963263
0.986934
0.997199
0.997192
0.945371
0.969538
0.998291
0.998511
0.998548
0.998523
0.996544
0.969222
0.826643
0.755646
0.901094
0.9737
0.976596
0.992404
0.998807
0.998811
0.998812
0.993356
0.96668
0.992433
0.991899
0.998226
0.998036
0.941256
0.873218
0.873218
0.877383
0.862273
0.862257
0.86308
0.958558
0.998678
0.99876
0.998767
0.998768
0.996716
0.988655
0.995096
0.993831
0.99179
0.99763
0.998545
0.996424
0.996067
0.997749
0.996407
0.998659
0.998757
0.998756
0.998755
0.997269
0.933522
0.94623
0.996234
0.998716
0.998807
0.998806
0.994491
0.96668
0.998568
0.988846
0.954028
0.952272
0.980734
0.997122
0.949581
0.862273
0.862257
0.862273
0.906064
0.995218
0.998763
0.998767
0.998768
0.99877
0.998773
0.998774
0.998358
0.997218
0.998341
0.998776
0.998592
0.996108
0.996067
0.998114
0.998746
0.998762
0.998759
0.998757
0.983907
0.906328
0.90631
0.906964
0.979996
0.980626
0.989246
0.998466
0.995769
0.966688
0.998569
0.97755
0.952256
0.952248
0.965863
0.997528
0.994565
0.946208
0.915223
0.953248
0.991854
0.998763
0.998766
0.998766
0.998767
0.998768
0.998774
0.998775
0.998774
0.99877
0.998762
0.998776
0.998776
0.998776
0.998726
0.998767
0.998766
0.998764
0.998762
0.998758
0.975215
0.928685
0.906275
0.906201
0.906147
0.906153
0.911078
0.958522
0.99348
0.981472
0.998569
0.976665
0.952248
0.952248
0.968092
0.997862
0.997803
0.978547
0.961973
0.961304
0.964824
0.971919
0.976511
0.979077
0.988342
0.998752
0.998775
0.998776
0.998768
0.99876
0.998767
0.998776
0.998776
0.998776
0.998772
0.998769
0.998767
0.998766
0.99857
0.998682
0.998647
0.998562
0.982437
0.92783
0.90633
0.906083
0.90608
0.906083
0.95889
0.989668
0.998569
0.983481
0.952249
0.952248
0.96875
0.99823
0.997711
0.997679
0.997158
0.983633
0.986826
0.988727
0.988607
0.979121
0.979181
0.993685
0.998774
0.998776
0.998776
0.998776
0.998776
0.998776
0.998761
0.998397
0.998399
0.998715
0.998766
0.998764
0.997361
0.996494
0.993975
0.996092
0.998339
0.998382
0.998401
0.93053
0.906083
0.90608
0.923612
0.989668
0.998558
0.998409
0.95373
0.952249
0.976881
0.998725
0.998733
0.998734
0.998734
0.998733
0.998734
0.998734
0.998674
0.998656
0.998699
0.998745
0.998751
0.998776
0.998776
0.998776
0.998776
0.998776
0.998776
0.99844
0.998717
0.998743
0.998762
0.998761
0.998753
0.979553
0.874287
0.89029
0.967551
0.997899
0.998435
0.998468
0.996516
0.906861
0.930601
0.988858
0.998508
0.998441
0.969376
0.963723
0.994255
0.998733
0.998734
0.998734
0.998734
0.998734
0.998734
0.998734
0.997728
0.992185
0.993978
0.996647
0.998103
0.998776
0.998776
0.998776
0.998776
0.998776
0.998776
0.998773
0.998747
0.998265
0.997583
0.998753
0.998709
0.879233
0.84366
0.843722
0.844179
0.975617
0.99845
0.998521
0.99855
0.958335
0.93797
0.988142
0.993661
0.99044
0.990901
0.996255
0.998732
0.998734
0.998734
0.998734
0.998734
0.998734
0.998734
0.998734
0.991024
0.948428
0.898689
0.933077
0.998776
0.998776
0.998776
0.998776
0.998776
0.998776
0.998773
0.997647
0.974977
0.957564
0.989772
0.993151
0.877684
0.843634
0.843654
0.84366
0.848449
0.973122
0.998476
0.99855
0.998556
0.996668
0.988881
0.987693
0.996611
0.990384
0.990435
0.996422
0.99873
0.998732
0.991645
0.998734
0.998734
0.998734
0.998734
0.998734
0.998734
0.952482
0.870139
0.870312
0.969785
0.998776
0.998776
0.998776
0.996614
0.997251
0.974049
0.935568
0.914291
0.937707
0.989082
0.89329
0.843634
0.843619
0.843634
0.866077
0.985604
0.998466
0.99855
0.998558
0.998563
0.998652
0.99871
0.992889
0.99721
0.996651
0.996999
0.993216
0.976193
0.956305
0.950053
0.951538
0.959567
0.978585
0.998395
0.998734
0.998732
0.99873
0.959628
0.86493
0.867531
0.951326
0.995161
0.994754
0.987933
0.964797
0.91352
0.91352
0.91352
0.991118
0.955096
0.843654
0.843619
0.843632
0.865622
0.992922
0.994621
0.992382
0.973474
0.976644
0.992075
0.998724
0.998727
0.998714
0.997211
0.99721
0.99721
0.997209
0.980805
0.950053
0.950053
0.950053
0.950053
0.950114
0.973586
0.998717
0.99873
0.99873
0.969379
0.863635
0.863586
0.889683
0.985679
0.98811
0.985734
0.940007
0.913688
0.914551
0.969432
0.995059
0.936463
0.84373
0.843654
0.844641
0.975819
0.997421
0.990747
0.973445
0.973445
0.973445
0.992045
0.998728
0.998728
0.998727
0.997211
0.997211
0.997211
0.99721
0.997209
0.994371
0.965585
0.950053
0.950114
0.982962
0.998688
0.998698
0.998709
0.998378
0.888496
0.863586
0.863606
0.911328
0.989374
0.988056
0.989659
0.963237
0.949302
0.984046
0.995285
0.995104
0.973107
0.843984
0.848154
0.991793
0.998793
0.997627
0.975848
0.973596
0.979118
0.990726
0.998386
0.998728
0.998728
0.998728
0.997211
0.997211
0.99721
0.99721
0.937591
0.950801
0.993736
0.994115
0.995993
0.998371
0.998697
0.998694
0.967357
0.86471
0.859036
0.873268
0.956087
0.975524
0.989769
0.989821
0.990189
0.992163
0.995288
0.995287
0.995289
0.995284
0.964875
0.844197
0.901324
0.998795
0.998795
0.998781
0.997954
0.99706
0.998286
0.998776
0.998744
0.998728
0.996872
0.989252
0.995155
0.980271
0.954746
0.918585
0.912181
0.912693
0.939446
0.99704
0.998424
0.998419
0.958507
0.861276
0.858576
0.859036
0.859086
0.956395
0.975029
0.950587
0.98967
0.986991
0.987099
0.994123
0.995287
0.995289
0.995284
0.995244
0.941455
0.844783
0.92489
0.998795
0.998795
0.998795
0.998795
0.998795
0.998795
0.998788
0.998778
0.995402
0.986376
0.983212
0.91866
0.91311
0.912352
0.912181
0.912312
0.944991
0.982464
0.980997
0.924388
0.858276
0.857522
0.857522
0.85791
0.915539
0.970246
0.975049
0.974978
0.87011
0.940368
0.97835
0.978276
0.98041
0.99193
0.995281
0.995244
0.994866
0.904817
0.846796
0.91382
0.998795
0.998795
0.998795
0.998796
0.998795
0.998795
0.998795
0.998788
0.995344
0.985971
0.983354
0.978769
0.972948
0.971869
0.977771
0.985751
0.994582
0.982964
0.960633
0.950927
0.950294
0.943796
0.9404
0.940589
0.934616
0.913043
0.921541
0.887458
0.86621
0.866246
0.906121
0.978709
0.978558
0.978696
0.985599
0.995109
0.99542
0.938668
0.849379
0.941103
0.998795
0.998795
0.998796
0.998796
0.998796
0.998795
0.998788
0.993704
0.952141
0.900995
0.888596
0.992348
0.985681
0.972385
0.990385
0.997012
0.99708
0.995914
0.995134
0.996878
0.996678
0.996207
0.950467
0.868235
0.867427
0.866916
0.866454
0.866206
0.866201
0.866202
0.866206
0.899838
0.981736
0.993637
0.983193
0.984028
0.996054
0.983201
0.944636
0.974516
0.998795
0.998795
0.998795
0.998796
0.998793
0.993346
0.917718
0.813266
0.694949
0.665723
0.665724
0.987236
0.991439
0.988023
0.982918
0.985947
0.997081
0.99708
0.997071
0.997052
0.996967
0.973262
0.952317
0.966571
0.986097
0.980075
0.898378
0.866202
0.866202
0.866201
0.866202
0.879435
0.984646
0.993873
0.989307
0.988154
0.99609
0.996115
0.996123
0.996095
0.996554
0.998795
0.998595
0.992567
0.80823
0.709871
0.708633
0.71743
0.706173
0.665725
0.66572
0.931623
0.991576
0.991693
0.99474
0.997081
0.997081
0.997081
0.997079
0.997055
0.991745
0.984601
0.984873
0.98593
0.986123
0.98593
0.980693
0.972765
0.960778
0.945512
0.941722
0.952255
0.986222
0.994178
0.995149
0.989374
0.995581
0.996078
0.996115
0.996119
0.990293
0.817589
0.725114
0.726115
0.727619
0.841524
0.985211
0.991399
0.957341
0.665864
0.665725
0.907949
0.91199
0.981181
0.99708
0.997081
0.997081
0.997081
0.99707
0.996944
0.982455
0.906975
0.869311
0.944904
0.960607
0.974401
0.98061
0.961741
0.965191
0.978322
0.989414
0.989913
0.98994
0.991181
0.995963
0.992573
0.995989
0.996042
0.996082
0.996009
0.871444
0.724841
0.724699
0.752491
0.994833
0.994872
0.994838
0.992107
0.978092
0.867214
0.665864
0.907937
0.908035
0.955571
0.997055
0.99708
0.997081
0.854311
0.767202
0.980494
0.97952
0.920756
0.868769
0.868849
0.868326
0.921625
0.939249
0.894044
0.91833
0.92537
0.911375
0.876918
0.929982
0.995878
0.996987
0.997121
0.983646
0.977485
0.995976
0.995727
0.987117
0.909801
0.844154
0.954613
0.994915
0.994933
0.986421
0.970601
0.975825
0.98994
0.726988
0.951327
0.980601
0.984635
0.996999
0.851005
0.645195
0.632958
0.647313
0.857054
0.975015
0.973973
0.955139
0.890692
0.878081
0.942878
0.902587
0.901716
0.841713
0.80034
0.800106
0.815856
0.9614
0.996972
0.997121
0.997146
0.996471
0.924925
0.91036
0.985216
0.989955
0.991326
0.993942
0.994915
0.994932
0.994932
0.989348
0.970542
0.972812
0.995498
0.929826
0.978306
0.980975
0.981236
0.798874
0.61757
0.617449
0.622438
0.895568
0.91388
0.913705
0.803427
0.740292
0.844132
0.90409
0.948727
0.954975
0.955104
0.955069
0.890469
0.799872
0.799204
0.830958
0.984407
0.997146
0.997236
0.997315
0.933359
0.896735
0.894216
0.933953
0.994309
0.994889
0.994929
0.994932
0.994933
0.994932
0.97258
0.987254
0.995718
0.93496
0.872586
0.978701
0.95131
0.667368
0.617271
0.617239
0.619112
0.888551
0.899275
0.795053
0.555188
0.400416
0.414267
0.499479
0.684279
0.914549
0.954975
0.955191
0.954953
0.930616
0.801397
0.793768
0.825364
0.978109
0.997315
0.997399
0.986834
0.896611
0.893135
0.892027
0.891688
0.896002
0.948847
0.994929
0.994932
0.994932
0.974511
0.990195
0.99575
0.863351
0.676486
0.717065
0.673747
0.617271
0.617239
0.617243
0.617238
0.617307
0.818998
0.770295
0.42986
0.394186
0.393144
0.393285
0.393236
0.680329
0.952795
0.954953
0.95394
0.943157
0.89571
0.788624
0.793497
0.829864
0.984636
0.997902
0.998365
0.963538
0.892028
0.891695
0.891517
0.891387
0.891386
0.89551
0.98384
0.99491
0.976141
0.991714
0.995654
0.863323
0.960122
0.90773
0.855642
0.779565
0.629824
0.617241
0.635483
0.917554
0.987642
0.988282
0.890956
0.472097
0.394186
0.39314
0.393285
0.641359
0.94257
0.952772
0.707903
0.697334
0.842947
0.776819
0.800218
0.876691
0.993799
0.998365
0.998416
0.998385
0.952898
0.891561
0.891387
0.891386
0.891387
0.902073
0.980506
0.980501
0.983599
0.997004
0.998545
0.865901
0.987856
0.987827
0.987855
0.987827
0.987823
0.791305
0.773627
0.953991
0.988658
0.98872
0.988415
0.84247
0.409365
0.394777
0.448233
0.904195
0.936682
0.935185
0.453196
0.363871
0.566754
0.782475
0.845018
0.941774
0.998291
0.998416
0.998423
0.998424
0.998385
0.933783
0.891461
0.891387
0.91058
0.984837
0.984014
0.979529
0.985311
0.998613
0.998557
0.849684
0.987657
0.987855
0.987827
0.987831
0.987634
0.987548
0.988136
0.988658
0.98872
0.98872
0.98872
0.794696
0.426946
0.401634
0.805303
0.959754
0.946149
0.685019
0.363716
0.360655
0.360185
0.650989
0.841802
0.949072
0.998374
0.998423
0.998425
0.998427
0.998424
0.993156
0.938985
0.942874
0.988848
0.99841
0.988359
0.988432
0.997857
0.998639
0.998623
0.758108
0.986291
0.983515
0.912098
0.957276
0.98742
0.975253
0.960111
0.968073
0.988658
0.98872
0.988409
0.615783
0.453176
0.585904
0.966166
0.966771
0.868121
0.391962
0.360504
0.36012
0.360065
0.552014
0.798903
0.911187
0.992719
0.998369
0.998332
0.998431
0.998427
0.99842
0.998067
0.998242
0.99841
0.998441
0.998459
0.998637
0.998639
0.998639
0.956091
0.724865
0.98926
0.865608
0.844852
0.912821
0.903314
0.837325
0.837325
0.90057
0.98335
0.988109
0.975132
0.628739
0.475485
0.797121
0.995251
0.978381
0.461231
0.360419
0.360117
0.360071
0.36006
0.498236
0.820432
0.862169
0.906131
0.985452
0.998433
0.998434
0.998391
0.997316
0.998243
0.998284
0.998327
0.996886
0.998579
0.998639
0.998639
0.998639
0.965778
0.72449
0.902143
0.840451
0.878988
0.861015
0.545403
0.874965
0.907854
0.910209
0.969457
0.899641
0.755373
0.629473
0.685391
0.966409
0.997063
0.831025
0.363067
0.360066
0.360082
0.360075
0.360066
0.52767
0.86689
0.848878
0.848672
0.955194
0.998434
0.998434
0.998434
0.995863
0.987198
0.996396
0.985894
0.975308
0.986826
0.998637
0.998639
0.991585
0.842875
0.724472
0.78416
0.878974
0.878579
0.827256
0.508194
0.905182
0.960087
0.962879
0.965335
0.821709
0.723811
0.722114
0.983619
0.997463
0.997248
0.698946
0.360169
0.360087
0.360075
0.360077
0.360075
0.618792
0.900612
0.8487
0.848878
0.937582
0.957537
0.998434
0.998434
0.998334
0.973837
0.922529
0.950131
0.998247
0.998379
0.998631
0.998468
0.928314
0.724473
0.724473
0.69997
0.837211
0.82329
0.471509
0.502482
0.847995
0.943077
0.960087
0.962145
0.849476
0.729078
0.8919
0.997492
0.997492
0.997463