/*--------------------------------*- C++ -*----------------------------------*\
  =========                 |
  \\      /  F ield         | OpenFOAM: The Open Source CFD Toolbox
   \\    /   O peration     | Website:  https://openfoam.org
    \\  /    A nd           | Version:  8
     \\/     M anipulation  |
\*---------------------------------------------------------------------------*/
FoamFile
{
    version     2.0;
    format      ascii;
    class       volScalarField;
    location    "3.45";
    object      alpha.water;
}
// * * * * * * * * * * * * * * * * * * * * * * * * * * * * * * * * * * * * * //

dimensions      [0 0 0 0 0 0 0];

internalField   nonuniform List<scalar> 
9150
(
1
1
1
1
1
1
1
1
1
1
1
1
1
1
1
1
1
1
1
1
1
1
1
1
1
1
1
1
1
1
1
1
1
1
1
1
1
1
1
1
1
1
1
1
1
1
1
1
1
1
1
1
1
1
1
1
1
1
1
1
1
1
1
1
1
1
1
1
1
1
1
1
1
1
1
1
1
1
1
1
1
1
1
1
1
1
1
1
1
1
1
1
1
1
1
1
1
1
1
1
1
1
1
1
1
1
1
1
1
1
1
1
1
1
1
1
1
1
1
1
1
1
1
1
1
1
1
1
1
1
1
1
1
1
1
1
1
1
1
1
1
1
1
1
1
1
1
1
1
1
1
1.00001
1
1
0.999999
0.999999
0.999998
0.999998
0.999998
0.999998
1
1
1
0.999997
0.999995
0.999998
1
1
0.999999
1
0.999999
0.999994
0.999949
0.999828
0.999891
1
0.999999
0.999997
0.999988
0.999988
0.999943
0.999758
0.999759
0.99976
0.999936
1
1
1
1
1
0.999758
0.999758
0.999788
0.999998
1
1
1
1
1
0.9871
0.999758
0.999829
1
1
1
1
1
1
0.999998
0.997883
0.999919
0.999824
0.999964
1
1
1
1
1
0.999989
0.999962
0.999997
0.999998
0.999996
0.999994
0.999996
1
1
1
1
0.999999
1
1
0.999996
0.999993
0.999996
1
1
0.999998
0.999994
0.999981
1
1
1
1
1
1
0.993092
0.992023
0.999053
1
1
1
1
0.997295
0.857956
0.773618
0.976245
0.999991
0.999983
1
1
0.999997
0.943851
0.770065
0.766128
0.76621
0.81284
1
1
1
0.999975
0.97069
0.780526
0.766122
0.766123
0.766128
0.766209
0.941512
1
1
0.999893
0.999322
0.906147
0.766123
0.766122
0.766123
0.767354
0.957552
1
1
1
0.999999
0.999748
0.974579
0.833791
0.766165
0.881332
0.999999
1
0.999976
1
0.999999
0.999998
0.999231
0.98719
0.973224
0.988902
1
1
0.999999
1
1
0.999997
0.99998
0.999973
0.999996
0.999999
0.999997
1
1
1
1
0.999999
0.999999
0.999999
0.999999
1
1
1
1
1
1
1
0.999999
0.999996
0.999996
0.999999
1
1
1
0.999999
0.999998
0.999998
0.999999
0.999985
0.999945
0.999944
0.99996
1
1
1
0.999942
0.999712
0.999798
1
1
1
1
1
1
0.999999
0.999996
0.996588
0.970627
0.969161
0.989527
1
0.890395
0.699019
0.682383
1
0.999999
0.999989
0.878784
0.559509
0.558268
0.55798
0.548815
0.542455
0.54246
1
1
0.999999
0.999997
0.998962
0.883416
0.549844
0.542449
0.542451
0.542457
1
0.999999
0.999999
1
0.999999
0.999145
0.976725
0.920004
0.854165
0.789364
0.999975
0.999964
0.999991
1
1
0.999984
0.99988
0.999637
0.999117
0.998049
0.999498
0.99941
0.999993
1
1
1
0.999997
0.999967
0.999569
0.922508
0.99934
0.999392
0.999987
1
1
0.999999
0.999993
0.999916
0.998425
0.848292
0.999405
0.999991
1
1
1
0.999999
0.999993
0.99992
0.990951
0.943372
1
1
1
1
0.999995
0.999992
0.999992
0.999985
0.999916
0.999471
1
1
0.999999
0.999999
0.999999
0.999998
0.999989
0.999947
0.999504
0.838569
1
1
1
0.999999
0.999998
0.999985
0.999856
0.827617
0.601297
0.606743
1
1
0.999999
0.999991
0.887817
0.584338
0.344777
0.14654
0.415878
0.944679
0.999995
0.999958
0.9993
0.652342
0.144889
0.0298597
0.0103962
0.0293881
0.320645
0.932366
0.999929
0.999022
0.82006
0.147946
0.00422404
0.00473505
0.00549475
0.0124281
0.125158
0.766449
0.99983
0.997965
0.720632
0.0575008
0.00400783
0.00408889
0.00434835
0.00578504
0.03167
0.566226
0.99986
0.998491
0.863331
0.172189
0.00402339
0.00399461
0.00408889
0.00426201
0.0105158
0.447045
0.999945
0.99945
0.994881
0.623249
0.0352716
0.00402321
0.00399599
0.00408038
0.00641851
0.416579
0.999985
0.99985
0.998768
0.960109
0.380895
0.00399609
0.00399789
0.00401609
0.00519036
0.432076
0.999997
0.999962
0.99967
0.997378
0.830131
0.146909
0.00401609
0.00401609
0.00421432
0.368774
0.999998
0.999994
0.999935
0.999377
0.991823
0.567598
0.014331
0.00418219
0.00429692
0.193211
0.999942
0.999982
0.999975
0.99992
0.999174
0.960377
0.411348
0.00429692
0.00557519
0.0134956
0.997079
0.998337
0.999828
0.999842
0.999789
0.999482
0.964017
0.569206
0.15539
0.0517707
0.99791
0.990348
0.987995
0.99488
0.999756
0.999751
0.999476
0.992566
0.862804
0.628782
0.999781
0.997506
0.990152
0.958966
0.945188
0.978366
0.99916
0.999119
0.998546
0.997563
0.999999
0.999967
0.99829
0.977999
0.909621
0.902459
0.914511
0.973747
0.997972
0.997973
1
0.999999
0.999982
0.99816
0.967664
0.90148
0.871674
0.871737
0.897599
0.942198
1
1
1
0.999997
0.999403
0.978142
0.915464
0.862095
0.859801
0.859784
1
1
1
1
0.999998
0.999984
0.995459
0.964137
0.896797
0.86008
1
1
1
1
1
0.999999
0.999994
0.999975
0.993279
0.976817
1
1
1
1
1
1
1
0.999999
0.999994
0.992337
1
1
1
1
1
1
1
1
1
0.921517
1
0.999999
1
1
1
1
0.999999
1
1
0.931837
1
0.999999
1
1
1
1
0.999999
0.999999
1
0.9873
1
1
1
1
1
1
1
1
1
0.999735
1
1
1
1
1
1
1
1
0.999996
0.999999
0.999292
0.999562
0.999995
1
1
1
1
1
1
1
0.99929
0.99929
0.999292
0.999361
0.999868
1
1
1
1
1
0.999705
0.999292
0.999293
0.999293
0.999293
0.999607
0.999998
1
1
1
0.999998
0.999969
0.999965
0.999728
0.999676
0.99989
0.999987
0.999989
0.999997
1
1
0.999823
0.999105
0.998068
0.9977
0.998471
0.999561
0.999872
0.999997
1
1
0.999407
0.985556
0.984195
0.984171
0.984165
0.994703
0.999756
0.999975
0.999997
0.999904
0.985701
0.984207
0.984197
0.984199
0.984172
0.986397
0.998634
0.999931
0.999987
1
0.989313
0.984212
0.984207
0.984158
0.99261
0.999938
0.999854
0.999793
0.99994
1
0.99958
0.989353
0.995235
0.999973
0.999981
0.999952
0.999938
0.99986
0.999787
0.999986
1
1
0.999999
0.999999
0.999998
0.999981
0.999891
0.999482
0.973138
1
1
1
0.999999
0.999998
0.999981
0.999852
0.994652
0.914696
0.564453
1
1
0.999999
0.999994
0.999968
0.999732
0.983065
0.753961
0.566012
0.55935
0.999999
0.999999
0.999978
0.999907
0.999543
0.95963
0.660373
0.586518
0.576184
0.56625
0.999989
0.999933
0.999695
0.991891
0.928464
0.627228
0.608771
0.593791
0.61086
0.79872
0.99982
0.997253
0.943858
0.798199
0.659734
0.639743
0.6381
0.793781
0.999718
1.00005
0.96922
0.885257
0.712684
0.694049
0.683205
0.789442
0.999837
1.00025
0.999995
1.00001
0.8247
0.763293
0.758719
0.843459
0.998118
1.00017
1
1.00001
1
1
0.816916
0.868649
0.982064
1.00002
1
1
1
1
1
1
0.949255
0.999997
0.999999
1
1
1
1
1
1
1
0.999996
0.999999
1
1
1
1
1
1
1
1
0.999986
0.999997
1
1
1
1
1
1
1
0.999997
0.999948
0.999977
0.999996
1
1
1
1
0.999999
1
1
0.999878
0.999887
0.999989
1
1
1
1
0.999999
1
1
0.999229
0.999393
0.999983
1
1
1
0.999999
0.999999
1
1
0.946059
0.998862
0.999982
1
1
1
0.999999
0.999999
1
1
0.844115
0.998792
0.999991
1
1
1
0.999999
0.999999
1
1
0.782721
0.999293
0.999998
1
1
0.999999
1
1
1
0.985523
0.755229
0.999804
0.999999
1
1
0.999999
1
1
1
0.962643
0.745967
0.99994
0.999999
1
1
0.999999
1
1
1
0.952758
0.747413
0.999959
0.999999
1
1
1
1
1
1
0.942717
0.770846
0.999974
0.999999
1
0.999999
1
1
1
1
0.933787
0.796083
0.999987
1
1
0.999999
1
1
1
1
0.927125
0.812725
0.999994
1
1
0.999999
1
1
1
1
0.923351
0.819517
0.999995
0.999997
1
1
1
1
1
1
0.921041
0.818073
0.999983
0.999996
0.999999
1
1
1
1
1
0.916633
0.810832
0.999821
0.999997
1
1
1
1
1
1
0.905312
0.803043
0.99955
0.999998
1
1
1
1
1
1
0.880568
0.794325
0.999526
0.999999
1
1
1
1
1
1
0.851098
0.791025
0.999896
1
1
1
1
1
1
1
0.826532
0.803397
0.999997
1
1
1
1
1
1
0.999968
0.818623
0.825803
0.999998
1
1
1
1
1
1
1
0.838324
0.856738
1.00001
1
1
1
1
1
1
1.00002
0.868309
0.900897
1
1
1
1
1
1
1
1
0.908795
0.950349
1
1
1
1
1
1
1
1
0.952959
0.999999
0.999999
1
1
1
1
1
1
1
1
0.999998
0.999719
0.999254
0.999939
1
1
1
1
1
0.999999
0.999999
1
1
1
1
1
0.999998
0.99999
0.99998
0.999963
0.999974
0.999998
0.999999
0.999999
0.999999
1
1
1
1
0.999788
1
1
1
1
1
1
1
1
0.999991
0.999525
0.999132
0.999132
0.999132
0.999551
0.999988
1
1
0.999998
0.999998
0.999999
1
1
1
1
1
1
0.99999
0.998674
0.990209
0.983356
0.988145
0.996622
0.998533
0.999999
0.999999
0.999999
0.999998
0.999997
0.999853
0.999532
1
1
1
1
1
1
1
0.999958
0.998965
0.998817
0.999183
1
0.999936
0.999675
0.999681
0.999935
0.999998
0.998651
0.994607
0.994174
0.998446
1
1
1
1
0.999999
0.999831
0.985196
0.976736
0.976736
0.976736
0.976736
0.97971
0.99643
0.994705
0.99843
0.999596
0.999471
0.998784
0.998392
1
0.963526
0.906578
0.899543
0.916963
0.908597
0.953605
0.999937
0.999999
0.999991
1
1
1
1
1
0.999996
0.999357
0.977653
0.951041
0.951001
0.970035
0.999997
0.999042
1
0.999995
0.999984
0.999983
0.999982
0.990535
0.976739
0.976761
0.987724
0.989987
0.977902
0.9779
0.977878
0.986494
0.987011
0.984476
0.988113
0.908276
0.899318
0.899303
0.899303
0.899303
0.899325
0.899373
0.934535
1
1
1
1
0.999999
1
0.999999
0.999993
0.992018
0.952377
0.951001
0.951001
0.951001
0.951003
0.974152
0.999475
0.997818
0.999984
0.999957
0.999624
0.999499
0.999921
0.999921
0.999921
0.999921
0.994725
0.980951
0.977837
0.977768
0.976841
0.97661
0.97661
0.977393
0.966
0.968562
0.941702
0.899321
0.899322
0.899447
0.980518
1
1
1
1
0.999995
0.999914
0.999841
0.999869
0.999934
0.998738
0.967905
0.951011
0.951003
0.951104
0.951204
0.953438
0.994047
0.999984
0.999088
0.997484
0.99748
0.998876
0.999921
0.999921
0.999905
0.999902
0.999901
0.9999
0.999899
0.999898
0.99637
0.989319
0.999958
0.999978
0.999996
0.997491
0.977448
0.965354
0.982017
0.999972
1
1
1
1
0.999939
0.999679
0.999679
0.999707
0.999991
0.999991
0.999991
0.99999
0.993277
0.974063
0.98413
0.996568
0.957243
0.891683
0.978265
0.998986
0.999008
0.999098
0.99937
0.995664
0.996942
0.999901
0.9999
0.999899
0.999898
0.999878
0.999572
0.999206
0.999999
0.999999
0.999997
0.999975
0.999935
0.999847
0.999714
0.999873
0.988753
0.962501
0.976501
1
1
0.999901
0.999679
0.999866
0.999991
0.999991
0.99999
0.99999
0.99999
0.99999
0.999988
0.998118
0.905709
0.831849
0.831881
0.89687
0.984282
0.965528
0.934413
0.922378
0.924825
0.962805
0.96336
0.949492
0.959395
0.967604
0.959207
0.94016
0.99998
0.999983
0.999999
0.999998
0.999998
0.999994
0.992661
0.855845
0.792104
0.79219
0.891511
1
1
1
1
1
0.999991
0.999982
0.999946
0.999949
0.99999
0.999988
0.999755
0.912216
0.831809
0.831838
0.831857
0.831882
0.831897
0.831944
0.850493
0.945318
0.948844
0.898714
0.867
0.84205
0.838245
0.836083
0.834511
0.834511
0.999999
0.999999
0.999999
0.999998
0.999703
0.894664
0.792087
0.792087
0.792096
0.792104
0.795208
0.970139
1
1
0.999997
0.999845
0.999622
0.999406
0.999337
0.999987
0.999988
0.999982
0.99919
0.901335
0.831807
0.831809
0.831837
0.83185
0.83979
0.979525
0.999814
0.999814
0.999814
0.999813
0.990053
0.979449
0.945263
0.873849
0.834511
0.834511
1
1
0.999999
0.999984
0.984087
0.819275
0.792087
0.792087
0.792087
0.79212
0.943437
1
1
1
0.999999
0.997915
0.989716
0.98939
0.999535
0.999987
0.999987
0.999987
0.999936
0.999693
0.976087
0.861226
0.831861
0.937318
0.999815
0.999816
0.999815
0.999814
0.999813
0.999813
0.999813
0.999813
0.999811
0.999784
0.911466
0.834511
0.999999
0.999945
0.999919
0.999921
0.999871
0.995206
0.932231
0.795429
0.79212
0.921795
1
1
1
1
0.999996
0.993447
0.949893
0.952825
0.999987
0.999987
0.999987
0.9998
0.999628
0.999649
0.999078
0.994144
0.990738
0.998541
0.999816
0.999815
0.999371
0.999113
0.999813
0.999813
0.999813
0.999812
0.999807
0.999797
0.999775
0.967529
1
0.999917
0.9985
0.998028
0.999413
0.99997
0.995591
0.984406
0.981864
0.99587
1
1
1
0.999997
0.996044
0.93858
0.915543
0.946421
0.999987
0.999987
0.999987
0.999956
0.999035
0.998706
0.999768
0.999779
0.999809
0.999815
0.999815
0.999815
0.998975
0.998247
0.999669
0.999812
0.999811
0.999695
0.9995
0.999221
0.999388
0.998782
0.999749
0.997988
0.997876
0.998016
0.999977
1
0.999991
0.999986
0.999984
0.999985
0.999997
1
0.999981
0.985745
0.918088
0.915413
0.915414
0.93149
0.999987
0.999987
0.999986
0.999986
0.999799
0.997496
0.997233
0.998097
0.999812
0.999815
0.99952
0.999531
0.998776
0.998305
0.998907
0.999812
0.999246
0.997628
0.998065
0.998694
0.984493
0.948484
0.998574
0.997875
0.997873
0.998218
1
1
1
0.999999
0.999956
0.99843
0.997729
0.998529
0.996463
0.936442
0.915413
0.915413
0.915413
0.915414
0.945559
0.997795
0.999939
0.999986
0.999986
0.999986
0.998243
0.996509
0.996509
0.997676
0.999518
0.998408
0.978332
0.971958
0.991108
0.999184
0.998557
0.995471
0.998259
0.998742
0.778612
0.562964
0.999662
0.997922
0.997875
0.998006
0.999981
1
1
0.999996
0.999737
0.998092
0.984825
0.977372
0.991456
0.981456
0.938907
0.91593
0.915414
0.915507
0.915693
0.92362
0.983402
0.998996
0.999979
0.999982
0.999981
0.999883
0.999859
0.999373
0.999063
0.999418
0.999455
0.96201
0.898027
0.905087
0.928026
0.991467
0.998727
0.998745
0.552881
0.486939
0.999999
0.999577
0.998544
0.999116
1
1
1
0.999885
0.986033
0.97737
0.977369
0.97737
0.977372
0.995296
0.998275
0.998284
0.988445
0.948779
0.941387
0.94052
0.950527
0.991982
0.999388
0.999958
0.999881
0.999881
0.999616
0.998943
0.999151
0.999454
0.999455
0.999455
0.808639
0.352267
0.535412
0.948546
0.998634
0.998718
0.510467
0.486936
0.999999
0.999993
0.999983
0.999988
1
1
1
0.999998
0.99626
0.979707
0.977369
0.977372
0.977391
0.977406
0.9916
0.998309
0.999863
0.999867
0.999866
0.999867
0.998347
0.993092
0.997307
0.999908
0.999615
0.999671
0.999961
0.999967
0.984975
0.979748
0.854188
0.382002
0.180266
0.177079
0.231073
0.822051
0.99791
0.98407
0.553614
0.48694
0.999999
1
1
1
1
1
0.999999
0.999998
0.999994
0.999988
0.998961
0.986688
0.978728
0.978812
0.980301
0.987844
0.997
0.999265
0.999789
0.99966
0.999875
0.999896
0.999896
0.999897
0.999615
0.999729
0.999967
0.999967
0.986375
0.462326
0.179366
0.177334
0.177051
0.177019
0.177079
0.750331
0.995534
0.972498
0.597666
0.490412
1
1
0.999991
0.999984
0.999983
0.99996
0.999419
0.998433
0.999202
0.999967
0.999773
0.99871
0.998234
0.997977
0.997696
0.987843
0.994451
0.998908
0.999211
0.999212
0.999258
0.999837
0.999896
0.999877
0.999966
0.999967
0.999967
0.999967
0.999967
0.679539
0.185089
0.177011
0.177034
0.176722
0.326574
0.93001
0.998417
0.957606
0.585542
0.871875
1
1
1
1
0.999999
0.999992
0.988328
0.956578
0.961159
0.984571
0.975341
0.958471
0.956624
0.974331
0.987234
0.978042
0.997456
0.999744
0.999744
0.999292
0.999422
0.999819
0.999888
0.999712
0.999843
0.999967
0.999967
0.999967
0.999967
0.999967
0.983529
0.525999
0.292364
0.594135
0.977353
0.998417
0.998467
0.897088
0.568618
0.87208
0.870813
0.913662
0.972766
0.999999
0.999667
0.990141
0.981614
0.951234
0.944227
0.943811
0.943205
0.942412
0.942412
0.942412
0.949792
0.949443
0.991228
0.999726
0.999744
0.999713
0.999686
0.999812
0.999851
0.999656
0.999731
0.999936
0.999967
0.999967
0.999966
0.999966
0.999965
0.997228
0.985953
0.987757
0.992554
0.998466
0.998446
0.782568
0.560647
0.872073
0.54247
0.542707
0.578366
0.608926
0.609132
0.643217
0.972788
0.999441
0.999442
0.999437
0.99943
0.988216
0.964678
0.966141
0.949443
0.957793
0.9938
0.999593
0.999712
0.999657
0.999614
0.99967
0.999688
0.999522
0.999471
0.999728
0.999903
0.999903
0.999607
0.999463
0.99982
0.999867
0.991697
0.981772
0.981896
0.996714
0.998467
0.670888
0.560805
0.827146
0.54246
0.542471
0.542513
0.588894
0.967131
0.998447
0.998569
0.999441
0.999437
0.999431
0.999285
0.994414
0.985327
0.979619
0.980139
0.982344
0.986649
0.976572
0.968217
0.954773
0.924327
0.898574
0.885522
0.872858
0.894229
0.925286
0.90744
0.849247
0.851205
0.911204
0.987046
0.999867
0.999602
0.982581
0.987938
0.997826
0.947709
0.671889
0.757506
0.883212
0.727324
0.72215
0.898313
0.988
0.990288
0.992564
0.979259
0.924831
0.922573
0.964702
0.905424
0.756062
0.700896
0.74891
0.850609
0.908353
0.832593
0.790565
0.783858
0.751898
0.722343
0.715449
0.707652
0.698579
0.681979
0.672625
0.670365
0.669706
0.66954
0.669593
0.715932
0.955204
0.999335
0.997817
0.997815
0.997815
0.922507
0.845753
0.891361
0.885318
0.996134
0.914368
0.685652
0.685671
0.704151
0.862826
0.824363
0.746012
0.739205
0.707651
0.571059
0.57038
0.571059
0.575218
0.614741
0.681608
0.703221
0.716656
0.729934
0.766847
0.809464
0.805261
0.819614
0.837827
0.84235
0.830427
0.789087
0.710355
0.693451
0.691973
0.670863
0.671128
0.733126
0.977274
0.997815
0.997825
0.933562
0.924122
0.896982
0.731888
0.69266
0.685562
0.685614
0.685635
0.685671
0.686262
0.732461
0.90066
0.682656
0.577037
0.57038
0.598515
0.7661
0.864994
0.90438
0.910139
0.951389
0.964149
0.976119
0.98456
0.994247
0.994474
0.995683
0.99672
0.997211
0.997302
0.997271
0.992143
0.989357
0.99274
0.992594
0.981645
0.55794
0.570591
0.683797
0.855945
0.749884
0.896267
0.712573
0.364167
0.697017
0.770515
0.983501
0.961285
0.939774
0.939519
0.938412
0.905437
0.696574
0.589007
0.806473
0.997314
0.99995
0.999949
0.999943
0.999924
0.999902
0.999875
0.999768
0.999273
0.996707
0.991711
0.984158
0.98429
0.996478
0.997211
0.997301
0.997302
0.997301
0.99211
0.907444
0.594989
0.111756
0.0278989
0.0604506
0.162287
0.155082
0.410866
0.174053
0.25852
0.938285
0.983545
0.983662
0.983148
0.939877
0.782794
0.784551
0.79969
0.99009
0.999955
0.999955
0.999955
0.999954
0.99981
0.999455
0.999571
0.999545
0.998894
0.999127
0.963714
0.789777
0.575345
0.4541
0.449971
0.626218
0.934817
0.997111
0.997301
0.995383
0.710117
0.125105
0.00330185
0.00336417
0.00343003
0.00345457
0.00370777
0.00377908
0.00593084
0.00388475
0.238597
0.9845
0.676529
0.51238
0.512373
0.512524
0.659898
0.999792
0.999954
0.999955
0.999954
0.999954
0.999955
0.999956
0.999716
0.998824
0.998344
0.997896
0.990847
0.864955
0.411898
0.0980279
0.030725
0.0307308
0.0307312
0.0322899
0.403262
0.867123
0.996745
0.964488
0.341744
0.00330232
0.00329808
0.00329395
0.00329772
0.00330438
0.00332493
0.00335452
0.00341521
0.00340835
0.277972
0.557669
0.557669
0.57252
0.963575
0.99935
0.999594
0.999882
0.999954
0.999955
0.999955
0.999954
0.999955
0.999956
0.999908
0.999695
0.999373
0.998072
0.9807
0.488446
0.0353642
0.0326436
0.0307308
0.0307038
0.0312591
0.0321237
0.0325911
0.210731
0.745969
0.95375
0.488069
0.00361331
0.00534929
0.00329772
0.00329385
0.00329407
0.00330452
0.00332527
0.00335463
0.00339719
0.276817
0.818735
0.996477
0.98261
0.996404
0.997643
0.983061
0.978791
0.997406
0.999955
0.999955
0.999955
0.999955
0.999956
0.999955
0.999947
0.999867
0.999064
0.97189
0.438992
0.0447763
0.0373382
0.0466101
0.0488613
0.0329166
0.0325691
0.0359142
0.0390516
0.0795254
0.540737
0.688091
0.688091
0.683722
0.164558
0.00329772
0.0073825
0.00332649
0.0145655
0.0653717
0.490314
0.780631
0.99952
0.999419
0.999333
0.998988
0.973897
0.939741
0.939951
0.976276
0.999955
0.999955
0.999955
0.999955
0.999955
0.999953
0.999948
0.999943
0.999949
0.999949
0.9189
0.634167
0.560992
0.657453
0.680702
0.451961
0.19447
0.0616211
0.0390455
0.0355464
0.0277778
0.106232
0.450079
0.609539
0.62273
0.613336
0.608654
0.596764
0.684135
0.731919
0.846347
0.846347
0.999615
0.999553
0.999419
0.989202
0.939525
0.939584
0.939722
0.951438
0.999949
0.999954
0.999954
0.999957
0.999953
0.999949
0.999944
0.999944
0.999946
0.999941
0.99994
0.999935
0.999927
0.999905
0.999857
0.999664
0.998733
0.639362
0.250793
0.062904
0.0213061
0.020194
0.0202954
0.0202198
0.0390276
0.131424
0.282744
0.422969
0.506529
0.592181
0.705157
0.721265
0.999642
0.999791
0.999554
0.971471
0.939544
0.939495
0.939583
0.939868
0.987471
0.999949
0.999357
0.999678
0.999921
0.999938
0.999942
0.999942
0.999942
0.99994
0.999936
0.999928
0.99992
0.999912
0.999899
0.999861
0.999753
0.99948
0.997864
0.708241
0.159944
0.0366048
0.0202954
0.0208732
0.0220127
0.0223836
0.0214867
0.0203708
0.0353124
0.0920562
0.0684339
0.0322395
0.999791
0.99992
0.999802
0.97869
0.939485
0.939441
0.939493
0.939673
0.978964
0.999885
0.995125
0.977126
0.993125
0.999835
0.999921
0.999935
0.999933
0.999925
0.999922
0.999918
0.999912
0.999898
0.999851
0.999796
0.999737
0.99962
0.999282
0.997959
0.996176
0.663589
0.240382
0.1136
0.0394474
0.0224091
0.016831
0.0121138
0.0105017
0.00948075
0.00943258
0.00943189
0.995021
0.999937
0.999932
0.999265
0.963107
0.93939
0.939701
0.943807
0.99695
0.999514
0.998969
0.934366
0.799782
0.923416
0.999659
0.999845
0.999858
0.999847
0.999818
0.999828
0.999831
0.999818
0.999781
0.999732
0.999616
0.999068
0.99828
0.997594
0.996958
0.996069
0.993532
0.956566
0.670213
0.480124
0.285391
0.109041
0.0310706
0.0102904
0.00942971
0.00943043
0.995493
0.999938
0.999938
0.999938
0.999938
0.980193
0.940446
0.971564
0.999473
0.999699
0.999326
0.988863
0.605982
0.287378
0.75596
0.959436
0.972813
0.976162
0.987744
0.994841
0.997178
0.998078
0.998578
0.998593
0.998443
0.997974
0.997407
0.996939
0.995371
0.991787
0.987992
0.984701
0.98552
0.989218
0.995112
0.912456
0.623587
0.311739
0.0660533
0.0103213
0.999938
0.999938
0.999938
0.999938
0.999938
0.999938
0.999937
0.999151
0.997973
0.999848
0.999634
0.99757
0.769685
0.172327
0.0649713
0.194088
0.37206
0.392012
0.444799
0.511526
0.54989
0.576581
0.603331
0.628834
0.657461
0.692671
0.736225
0.788089
0.8479
0.908879
0.956347
0.979281
0.988533
0.995112
0.996756
0.9974
0.998116
0.998144
0.813447
0.497812
0.984941
0.999938
0.999938
0.999938
0.999937
0.999929
0.999937
0.999937
0.999928
0.999936
0.999903
0.999508
0.990762
0.521986
0.0324402
0.0213278
0.0200597
0.0191409
0.0182516
0.0178794
0.0172786
0.0163928
0.0169724
0.0240207
0.0313266
0.0408629
0.0545063
0.0768106
0.116223
0.189322
0.317968
0.5036
0.700872
0.879972
0.991399
0.998115
0.998135
0.998136
0.998155
0.998134
0.863849
0.999938
0.999938
0.999938
0.999938
0.99993
0.999937
0.999938
0.999938
0.999939
0.999939
0.999938
0.999906
0.998855
0.614023
0.117827
0.0275504
0.0200584
0.0187738
0.0173055
0.0164002
0.0160349
0.0158909
0.0158574
0.0158575
0.0158489
0.015859
0.0158701
0.0159148
0.0160738
0.0166408
0.0186706
0.0337523
0.383153
0.740167
0.970542
0.998128
0.998135
0.998134
0.996793
0.355066
0.931162
0.999938
0.999938
0.999938
0.999938
0.999924
0.999896
0.999939
0.999939
0.999939
0.999939
0.99994
0.999941
0.999941
0.992724
0.616339
0.324017
0.187144
0.0854762
0.0366499
0.0164374
0.0160319
0.0158872
0.0158422
0.0158517
0.0158684
0.0159166
0.0160754
0.0166411
0.0186684
0.0492846
0.215533
0.377022
0.532636
0.853131
0.997704
0.998127
0.997584
0.99542
0.122204
0.56199
0.993773
0.999938
0.999938
0.999938
0.999908
0.99972
0.999929
0.999939
0.999939
0.999939
0.999939
0.99994
0.999939
0.999938
0.999938
0.999935
0.999932
0.825037
0.646586
0.401684
0.181694
0.0729659
0.0312045
0.0214028
0.0207995
0.0218878
0.0384275
0.0983092
0.258314
0.554989
0.857684
0.991536
0.933061
0.862212
0.978764
0.997815
0.998709
0.997002
0.428015
0.473144
0.874948
0.999938
0.999938
0.999937
0.999843
0.999683
0.999683
0.999906
0.999939
0.999939
0.999936
0.999939
0.999939
0.999938
0.999938
0.999938
0.999935
0.999932
0.999907
0.999615
0.908917
0.654766
0.495344
0.479521
0.484542
0.498389
0.596042
0.738909
0.876326
0.96905
0.991536
0.993953
0.994734
0.995523
0.982281
0.997145
0.998709
0.998662
0.96332
0.858495
0.846404
0.935153
0.984615
0.999935
0.999935
0.999856
0.999898
0.999925
0.999938
0.998737
0.999755
0.999939
0.999938
0.999938
0.999938
0.999936
0.999933
0.999921
0.999912
0.999848
0.96883
0.846577
0.790463
0.882074
0.90717
0.932655
0.953455
0.953454
0.953537
0.963934
0.970926
0.978798
0.995184
0.996851
0.997109
0.997956
0.998618
0.998615
0.9977
0.996174
0.962039
0.903093
0.903533
0.98856
0.999932
0.999929
0.999898
0.939235
0.732673
0.744007
0.999924
0.999938
0.999935
0.999911
0.999874
0.999899
0.999909
0.999912
0.999907
0.999835
0.872056
0.67751
0.759459
0.682021
0.685645
0.713951
0.788313
0.924708
0.911467
0.778277
0.628698
0.673317
0.880486
0.992526
0.996782
0.98703
0.992434
0.995786
0.989186
0.994251
0.997925
0.937152
0.901753
0.97366
0.999929
0.999866
0.784544
0.242159
0.147976
0.422985
0.968996
0.999924
0.999241
0.994705
0.991842
0.986334
0.99598
0.999907
0.999901
0.999914
0.967875
0.758456
0.590469
0.524687
0.522309
0.522343
0.522317
0.60732
0.583133
0.542884
0.541356
0.542343
0.578302
0.888392
0.990064
0.957192
0.959076
0.979667
0.863796
0.949222
0.998218
0.996956
0.96686
0.945866
0.903088
0.651157
0.214047
0.135332
0.139223
0.508065
0.936736
0.975033
0.968949
0.941377
0.941712
0.93144
0.987759
0.999901
0.999899
0.999909
0.999912
0.999913
0.981503
0.815298
0.563436
0.522309
0.522343
0.593065
0.790444
0.685786
0.54277
0.541127
0.541642
0.692238
0.968686
0.956984
0.957095
0.97639
0.859823
0.959745
0.998477
0.998477
0.99367
0.758923
0.346736
0.157153
0.12771
0.133753
0.47012
0.959344
0.98788
0.986217
0.9476
0.925842
0.919259
0.930459
0.982799
0.99977
0.999869
0.999899
0.999913
0.999921
0.999923
0.999925
0.961708
0.646728
0.726358
0.992618
0.999932
0.999932
0.837848
0.549095
0.541127
0.622468
0.957072
0.959413
0.957131
0.979648
0.973514
0.99421
0.998397
0.969852
0.730743
0.266547
0.127639
0.127386
0.127677
0.274518
0.835668
0.987625
0.990766
0.989965
0.990727
0.987356
0.896092
0.950621
0.990242
0.998642
0.999514
0.999758
0.999877
0.999912
0.999924
0.99993
0.999934
0.999933
0.999932
0.999932
0.999932
0.999932
0.999931
0.871828
0.544151
0.668105
0.972608
0.993743
0.957288
0.979648
0.991736
0.922672
0.708926
0.42491
0.177484
0.127328
0.126695
0.126986
0.127344
0.489367
0.972364
0.991943
0.995405
0.993791
0.993316
0.935428
0.688096
0.661679
0.777056
0.928276
0.989302
0.993524
0.998249
0.999683
0.999906
0.99993
0.999933
0.999933
0.999932
0.999932
0.999931
0.999933
0.999931
0.999932
0.795001
0.867725
0.995408
0.999811
0.961108
0.975451
0.686568
0.332959
0.146015
0.127423
0.126783
0.126655
0.126372
0.126695
0.189729
0.777836
0.993689
0.996799
0.995953
0.995405
0.937917
0.530637
0.10958
0.0688451
0.134683
0.344732
0.740015
0.966197
0.993671
0.998702
0.999736
0.999918
0.999935
0.999934
0.999932
0.999931
0.999933
0.999933
0.999912
0.998118
0.999883
0.999883
0.998015
0.999881
0.976421
0.972939
0.323084
0.129431
0.12757
0.126759
0.126444
0.126372
0.126275
0.151381
0.644554
0.993905
0.998241
0.997678
0.996922
0.960165
0.367384
0.05344
0.0528931
0.0529141
0.0524614
0.0524345
0.240931
0.844782
0.990385
0.997864
0.999519
0.999881
0.999932
0.999933
0.999932
0.999933
0.999931
0.999908
0.999782
0.999859
0.999884
0.999883
0.999882
0.999882
0.991401
0.974451
0.751952
0.480561
0.312032
0.237161
0.229963
0.277197
0.506839
0.862835
0.997472
0.999217
0.99878
0.99833
0.940418
0.313087
0.0524906
0.0524906
0.0537869
0.0534734
0.0529541
0.0524334
0.110492
0.730358
0.990422
0.997745
0.999439
0.999836
0.99993
0.999932
0.999931
0.999931
0.999932
0.999923
0.999781
0.999853
0.999892
0.999884
0.999882
0.999883
0.994208
0.976187
0.999667
0.986176
0.955367
0.927594
0.928903
0.947089
0.979966
0.996018
0.999437
0.999327
0.999217
0.943225
0.335808
0.0536883
0.0527061
0.0541946
0.0542837
0.0537725
0.0530022
0.0524334
0.233632
0.832569
0.990889
0.997705
0.999401
0.99982
0.999928
0.999929
0.999929
0.999929
0.99993
0.999882
0.999784
0.999835
0.999901
0.999882
0.999882
0.999883
0.99377
0.976551
0.999993
0.99996
0.99978
0.999346
0.999101
0.999157
0.99937
0.999437
0.999437
0.999437
0.960979
0.385324
0.0541517
0.0547538
0.0563714
0.0555548
0.0533558
0.0530776
0.0530856
0.103009
0.654508
0.985702
0.99565
0.998789
0.999637
0.999881
0.999912
0.999925
0.999927
0.999927
0.999891
0.999861
0.999864
0.999909
0.999905
0.999663
0.99987
0.999881
0.991842
0.97682
1
0.962969
0.933995
0.963501
0.986943
0.997415
0.999396
0.999433
0.999437
0.999425
0.57793
0.074044
0.0527045
0.0546596
0.0552342
0.0535642
0.0542808
0.0537542
0.134431
0.599993
0.990204
0.997012
0.999067
0.999664
0.999859
0.99991
0.999924
0.999921
0.999924
0.999926
0.999925
0.999869
0.999877
0.999911
0.999909
0.99965
0.999852
0.999879
0.992018
0.977135
0.969253
0.906247
0.906036
0.906007
0.906036
0.969924
0.999178
0.999395
0.999425
0.865328
0.225181
0.0605599
0.0576099
0.0554397
0.0549886
0.0555692
0.110591
0.272701
0.883795
0.996066
0.998678
0.999524
0.999804
0.999889
0.999914
0.999911
0.999904
0.999911
0.999901
0.999901
0.999908
0.999911
0.999911
0.999912
0.999885
0.999625
0.999799
0.999874
0.994577
0.977752
0.977138
0.909272
0.906218
0.906003
0.971665
0.999574
0.99938
0.999109
0.999199
0.572273
0.0975225
0.0716404
0.0613129
0.0577097
0.118734
0.227024
0.816283
0.996237
0.998338
0.999374
0.99969
0.999837
0.999891
0.99991
0.999913
0.999906
0.999905
0.999902
0.999901
0.999901
0.999909
0.999911
0.999912
0.999912
0.999812
0.999615
0.999771
0.999867
0.994704
0.976335
0.999617
0.98853
0.987731
0.999515
0.99978
0.999629
0.999572
0.99938
0.86368
0.279726
0.106564
0.0843626
0.146878
0.249824
0.826307
0.995756
0.998035
0.998872
0.999431
0.999684
0.99983
0.999882
0.999908
0.999907
0.999911
0.99991
0.999908
0.999908
0.999908
0.999908
0.999909
0.999096
0.999496
0.999912
0.999733
0.999609
0.999752
0.999858
0.993013
0.976149
0.999999
0.999998
0.999997
0.999991
0.999947
0.99979
0.999437
0.961025
0.50566
0.208442
0.14553
0.278371
0.824618
0.993062
0.996819
0.997968
0.998936
0.999324
0.999511
0.999623
0.999708
0.999808
0.999878
0.999902
0.999908
0.999908
0.999906
0.999908
0.999908
0.998896
0.998424
0.998421
0.998468
0.999785
0.999757
0.999604
0.999725
0.99985
0.987135
0.976081
0.999998
0.999998
0.999991
0.999947
0.999788
0.99174
0.949826
0.497123
0.327162
0.333107
0.645068
0.98743
0.995086
0.996595
0.997831
0.998416
0.998746
0.999037
0.999185
0.999426
0.999605
0.999729
0.999768
0.999702
0.999666
0.999194
0.999859
0.999907
0.999891
0.999826
0.998622
0.998444
0.999531
0.99979
0.999646
0.999603
0.999733
0.999847
0.98379
0.976069
0.999993
0.99997
0.999851
0.993413
0.960383
0.701666
0.438748
0.40803
0.426336
0.785174
0.991005
0.995955
0.99706
0.996688
0.996938
0.99732
0.99833
0.998731
0.998925
0.999192
0.999344
0.999257
0.999156
0.999383
0.994841
0.965
0.976167
0.999871
0.999865
0.999775
0.999622
0.999692
0.999744
0.99974
0.999674
0.999603
0.999829
0.999849
0.986894
0.976011
0.99992
0.999592
0.963453
0.75165
0.486227
0.482951
0.461505
0.490168
0.829678
0.994043
0.997558
0.997483
0.997345
0.997066
0.996738
0.996546
0.997022
0.997266
0.997598
0.99842
0.998649
0.981731
0.889563
0.836031
0.765286
0.443207
0.184868
0.405394
0.919273
0.999587
0.999577
0.999644
0.999685
0.999284
0.999793
0.999804
0.999849
0.99985
0.993948
0.975957
0.990505
0.892198
0.522122
0.506773
0.498511
0.48645
0.558704
0.907061
0.996354
0.998184
0.997893
0.997746
0.997553
0.997357
0.997046
0.996176
0.957694
0.965849
0.967523
0.939312
0.885415
0.589868
0.096908
0.039329
0.048408
0.0400978
0.0417623
0.044636
0.567429
0.988119
0.989106
0.982073
0.991578
0.999599
0.999842
0.999847
0.999848
0.999849
0.998495
0.975996
0.689482
0.528282
0.522752