/*--------------------------------*- C++ -*----------------------------------*\
  =========                 |
  \\      /  F ield         | OpenFOAM: The Open Source CFD Toolbox
   \\    /   O peration     | Website:  https://openfoam.org
    \\  /    A nd           | Version:  8
     \\/     M anipulation  |
\*---------------------------------------------------------------------------*/
FoamFile
{
    version     2.0;
    format      ascii;
    class       volScalarField;
    location    "3.45";
    object      nut;
}
// * * * * * * * * * * * * * * * * * * * * * * * * * * * * * * * * * * * * * //

dimensions      [0 2 -1 0 0 0 0];

internalField   nonuniform List<scalar> 
9150
(
9.60056e-06
6.40342e-06
6.57132e-06
8.74233e-06
7.56501e-06
7.56299e-06
8.74035e-06
6.57053e-06
6.40324e-06
9.60056e-06
9.48769e-06
5.73594e-06
8.27637e-06
9.88506e-06
7.03906e-06
7.03704e-06
9.88241e-06
8.27533e-06
5.73579e-06
9.48768e-06
9.29572e-06
5.49899e-06
1.0801e-05
1.02603e-05
6.69211e-06
6.69022e-06
1.02572e-05
1.07994e-05
5.49888e-06
9.2957e-06
9.08007e-06
5.42142e-06
1.34039e-05
1.02579e-05
6.50583e-06
6.50405e-06
1.02547e-05
1.34017e-05
5.42133e-06
9.08004e-06
8.84525e-06
5.40528e-06
1.56477e-05
1.01663e-05
6.41123e-06
6.40952e-06
1.01631e-05
1.56446e-05
5.4052e-06
8.84522e-06
5.91198e-06
1.12676e-05
1.38497e-05
1.73848e-05
1.65687e-05
1.65667e-05
1.73849e-05
1.3856e-05
1.12736e-05
5.91243e-06
6.28023e-06
8.8536e-06
1.13491e-05
1.52851e-05
1.43351e-05
1.43323e-05
1.52828e-05
1.13517e-05
8.85579e-06
6.2802e-06
6.83022e-06
7.8989e-06
9.37882e-06
1.30528e-05
1.20563e-05
1.20535e-05
1.305e-05
9.37925e-06
7.89931e-06
6.83015e-06
7.38707e-06
7.29299e-06
7.96999e-06
1.11438e-05
1.01404e-05
1.01378e-05
1.11412e-05
7.96951e-06
7.2928e-06
7.38702e-06
8.07467e-06
6.8431e-06
7.05035e-06
9.64469e-06
8.59826e-06
8.59605e-06
9.64244e-06
7.04955e-06
6.84283e-06
8.07464e-06
1.20222e-05
1.39235e-05
1.26347e-05
1.55838e-05
1.73555e-05
1.74146e-05
1.5744e-05
1.3111e-05
1.60448e-05
1.28983e-05
7.87228e-06
1.07723e-05
1.23714e-05
1.57365e-05
1.74342e-05
1.7472e-05
1.58384e-05
1.24719e-05
1.08e-05
7.88957e-06
7.45652e-06
1.01749e-05
1.24622e-05
1.59235e-05
1.75134e-05
1.75357e-05
1.59894e-05
1.25135e-05
1.01897e-05
7.46115e-06
7.03033e-06
9.78606e-06
1.25102e-05
1.60767e-05
1.75762e-05
1.75904e-05
1.61164e-05
1.25407e-05
9.80515e-06
7.03233e-06
6.50846e-06
1.00435e-05
1.25306e-05
1.62804e-05
1.74786e-05
1.74848e-05
1.62977e-05
1.25459e-05
1.00596e-05
6.50932e-06
9.99123e-06
1.00385e-05
1.00712e-05
1.00879e-05
1.00864e-05
1.00633e-05
1.00147e-05
9.93707e-06
9.83152e-06
9.72778e-06
8.84051e-05
8.85388e-05
8.85556e-05
8.84407e-05
8.81745e-05
8.77292e-05
8.70667e-05
8.61333e-05
8.48473e-05
8.29966e-05
0.000166811
0.000166797
0.000166559
0.000166077
0.000165323
0.000164257
0.000162829
0.000160972
0.000158612
0.00015568
0.000228708
0.000228436
0.000227875
0.00022701
0.000225818
0.000224273
0.00022234
0.000219985
0.000217174
0.000213902
0.000277165
0.00027656
0.000275633
0.000274376
0.000272779
0.000270829
0.000268515
0.000265831
0.000262771
0.000259349
0.00031564
0.000314659
0.000313337
0.000311674
0.00030967
0.000307321
0.000304625
0.000301584
0.000298213
0.000294566
0.000346858
0.00034548
0.000343745
0.00034165
0.000339193
0.000336381
0.000333224
0.000329743
0.000325968
0.000321943
0.000372851
0.000371044
0.000368856
0.000366291
0.000363354
0.000360049
0.000356388
0.000352397
0.00034811
0.000343566
0.000395126
0.0003929
0.000390274
0.00038725
0.000383831
0.000380012
0.000375801
0.000371228
0.000366335
0.000361158
0.000414859
0.000412246
0.000409211
0.000405756
0.000401868
0.000397524
0.00039273
0.000387535
0.000381987
0.000376117
0.000432872
0.00042992
0.000426521
0.000422659
0.00041828
0.000413389
0.000408065
0.000402295
0.000396129
0.000389589
0.000449728
0.000446487
0.000442762
0.0004385
0.000433662
0.000428368
0.000422675
0.000416468
0.000409785
0.000402665
0.000465816
0.000462346
0.000458365
0.00045382
0.000448734
0.000443174
0.000437158
0.000430636
0.000423593
0.000416066
0.000481439
0.000477817
0.000473688
0.000469012
0.000463814
0.00045811
0.000451887
0.000445158
0.00043791
0.000430169
0.000496753
0.00049307
0.000488882
0.000484166
0.000478932
0.000473184
0.000466912
0.000460134
0.000452869
0.000445133
0.000511734
0.000508085
0.000503943
0.000499285
0.000494111
0.000488439
0.000482285
0.000475661
0.000468589
0.000461092
0.000526209
0.00052267
0.000518672
0.000514199
0.000509253
0.00050385
0.000498008
0.000491745
0.000485087
0.000478066
0.000540053
0.000536707
0.000532957
0.000528796
0.000524225
0.000519257
0.000513913
0.000508215
0.000502193
0.000495884
0.000553172
0.00055009
0.000546678
0.000542933
0.000538859
0.000534473
0.000529793
0.000524845
0.000519656
0.000514264
0.000565557
0.000562768
0.000559755
0.000556502
0.000553018
0.000549324
0.000545441
0.00054139
0.000537189
0.00053286
0.000577222
0.000574736
0.000572138
0.000569422
0.000566579
0.00056364
0.000560635
0.000557573
0.000554445
0.000551253
0.000588135
0.00058594
0.000583759
0.000581598
0.000579426
0.00057726
0.000575148
0.000573095
0.000571041
0.000569008
0.000598183
0.000596255
0.000594473
0.000592875
0.000591441
0.000590088
0.000588807
0.000587713
0.000586754
0.000585955
0.000607244
0.000605565
0.000604142
0.000603018
0.000602196
0.000601621
0.000601337
0.000601332
0.000601609
0.000602215
0.000615119
0.000613727
0.000612727
0.000612168
0.000612067
0.000612419
0.000613268
0.000614656
0.000616618
0.000619124
0.00062161
0.000620653
0.00062031
0.000620635
0.000621652
0.000623405
0.000625946
0.000629299
0.000633475
0.00063846
0.000626709
0.00062653
0.000627313
0.000629112
0.000631993
0.000636003
0.000641107
0.000647241
0.000654313
0.000662199
0.000630707
0.000631882
0.0006345
0.000638683
0.000644439
0.000651655
0.000660148
0.000669679
0.000679979
0.000690764
0.000634156
0.000637474
0.000642952
0.000650545
0.000660057
0.000671169
0.000683474
0.00069651
0.000709816
0.000722953
0.000637858
0.000644394
0.000653715
0.000665519
0.00067933
0.000694555
0.000710532
0.000726586
0.000742111
0.000756612
0.000642935
0.000653759
0.000667858
0.000684522
0.000702857
0.000721923
0.000740855
0.0007588
0.000775045
0.000789291
0.000650514
0.000666948
0.000687071
0.000709564
0.000732891
0.00075565
0.000776717
0.000794524
0.000808075
0.000818629
0.000661397
0.000685308
0.000713754
0.000744833
0.000776314
0.000805585
0.00082894
0.000839807
0.000842952
0.000844012
0.000675023
0.000708973
0.000750004
0.000796514
0.0008461
0.000892154
0.000906866
0.000897732
0.000882494
0.000867127
0.000688339
0.000733686
0.000790283
0.000857931
0.00093422
0.000981141
0.000985944
0.000969182
0.000926793
0.000890098
0.000695524
0.000749075
0.0008162
0.000896102
0.000981349
0.00102288
0.00102986
0.00101712
0.000962318
0.000907478
0.000686871
0.000741269
0.000810773
0.00089444
0.00098979
0.00104657
0.00105282
0.00104635
0.000985497
0.000913156
0.000664987
0.000712446
0.000775768
0.000853942
0.000944584
0.00102958
0.00105144
0.00104792
0.000988222
0.000903311
0.000638952
0.000672511
0.000721968
0.000787799
0.000870127
0.00096954
0.00101931
0.00101199
0.000961256
0.000872045
0.000620798
0.000636049
0.000664635
0.000708257
0.000767725
0.000842295
0.00092242
0.000917462
0.000890365
0.000815819
0.000620819
0.000619694
0.000626591
0.000643781
0.000673128
0.000716235
0.000774756
0.000793499
0.000776737
0.00074469
0.000639195
0.000629863
0.000623085
0.000620527
0.000623701
0.000633745
0.000651348
0.000676651
0.00068088
0.000696152
0.000665238
0.000656428
0.000647288
0.000638626
0.000631459
0.000626911
0.00062631
0.000632121
0.00065261
0.000680341
0.000686296
0.000681904
0.000676861
0.000671459
0.000666295
0.000662442
0.000661574
0.000666316
0.000680424
0.000702963
0.000696174
0.000695412
0.000694563
0.00069371
0.000693092
0.000693304
0.000695323
0.000700318
0.000709114
0.000720899
0.000695124
0.000695702
0.000696576
0.000697741
0.00069921
0.000701088
0.000703636
0.000707091
0.000711454
0.000716223
0.000685485
0.000685579
0.000686069
0.000686915
0.000688042
0.000689352
0.000690757
0.000692176
0.000693513
0.00069462
0.000669064
0.000667623
0.000666575
0.00066589
0.000665493
0.000665271
0.000665114
0.000664941
0.000664688
0.000664397
0.000647041
0.000643582
0.000640554
0.000637992
0.000635886
0.000634207
0.000632922
0.000632014
0.000631514
0.000631538
0.000620677
0.000615221
0.000610358
0.000606206
0.000602858
0.000600387
0.000598853
0.00059832
0.000598868
0.000600607
0.000591807
0.000584709
0.000578507
0.000573412
0.000569613
0.000567271
0.00056652
0.000567462
0.000570166
0.000574644
0.000562351
0.000554202
0.000547341
0.000542056
0.000538596
0.000537165
0.000537914
0.000540936
0.000546256
0.000553803
0.000533944
0.000525402
0.000518561
0.000513736
0.000511185
0.000511094
0.000513568
0.000518635
0.000526253
0.000536347
0.00050761
0.000499294
0.000493053
0.000489188
0.000487917
0.000489365
0.000493554
0.000500408
0.000509764
0.000521403
0.000483652
0.000476065
0.000470859
0.000468287
0.000468501
0.000471543
0.000477347
0.000485749
0.000496506
0.000509325
0.000461865
0.000455407
0.000451579
0.000450568
0.000452447
0.000457179
0.000464627
0.000474569
0.000486724
0.000500778
0.000441835
0.000436843
0.000434691
0.000435491
0.00043924
0.000445828
0.000455055
0.000466658
0.000480339
0.000495753
0.00042326
0.000420064
0.000419893
0.000422782
0.000428647
0.000437311
0.000448529
0.000461993
0.000477513
0.000494887
0.000406307
0.000405319
0.00040753
0.000412893
0.000421255
0.000432379
0.000446088
0.000462211
0.000480452
0.00050052
0.000391773
0.000393552
0.000398689
0.000407055
0.000418479
0.000432845
0.000449867
0.000469205
0.000490526
0.000513523
0.000380931
0.000386129
0.000394786
0.000406842
0.000422076
0.000440117
0.00046058
0.000483093
0.000507315
0.000532939
0.000375089
0.000384309
0.000397182
0.000413347
0.000432379
0.000453844
0.000477334
0.00050248
0.000528958
0.000556485
0.000375352
0.000389074
0.000406142
0.000426064
0.000448359
0.000472582
0.00049834
0.000525293
0.000553152
0.000581666
0.000382191
0.000400091
0.000420793
0.000443764
0.000468525
0.000494663
0.00052183
0.000549726
0.000578099
0.000606728
0.000395012
0.000416423
0.000439987
0.000465195
0.000491611
0.000518869
0.000546664
0.000574747
0.000602906
0.000630965
0.00041298
0.000437156
0.000462829
0.000489539
0.0005169
0.000544595
0.000572375
0.000600047
0.000627445
0.000654354
0.00043537
0.000461623
0.000488752
0.000516345
0.000544066
0.000571648
0.000598901
0.000625661
0.000651628
0.000676047
0.00046157
0.00048928
0.000517285
0.000545219
0.000572782
0.000599755
0.000625953
0.000650887
0.000673348
0.000691823
0.000490843
0.000519379
0.000547645
0.00057531
0.000602106
0.000627767
0.000651558
0.000671874
0.000687285
0.000697773
0.000521969
0.000550558
0.000578287
0.000604816
0.000629711
0.000652014
0.000669871
0.000682294
0.000689907
0.000694314
0.000552937
0.0005806
0.000606641
0.000630337
0.000650427
0.000665453
0.000675101
0.000680557
0.000683654
0.000686048
0.000580826
0.000606006
0.000627935
0.000645231
0.000657251
0.000664525
0.000668655
0.000671271
0.000673411
0.000675961
0.000601616
0.000621182
0.000635457
0.000644625
0.000650034
0.000653321
0.000655681
0.000657927
0.00066073
0.000664857
0.000610496
0.000621966
0.000628545
0.000631993
0.000633987
0.000635776
0.000638185
0.000641693
0.000646767
0.00065417
0.000606921
0.000611051
0.000611952
0.000611561
0.000611694
0.000613624
0.00061788
0.00062449
0.000633645
0.000646185
0.000595873
0.000593715
0.000589545
0.000586012
0.000585505
0.0005893
0.000597258
0.000608675
0.000623591
0.000643124
0.000583454
0.000574635
0.000565066
0.000558638
0.00055844
0.000565476
0.00057848
0.000595937
0.000618094
0.000646337
0.000574296
0.000557699
0.000542015
0.00053239
0.000532776
0.000543704
0.000562359
0.000586638
0.000617314
0.000655574
0.000570726
0.0005449
0.000522232
0.000508588
0.00050909
0.000523784
0.000548061
0.000579664
0.000619884
0.000668855
0.00057183
0.000536232
0.00050574
0.000486889
0.00048643
0.000504161
0.000533641
0.000572907
0.00062331
0.000683058
0.000575397
0.000530566
0.000491726
0.000466344
0.00046338
0.000482958
0.000516953
0.000563967
0.000624724
0.000695111
0.000579861
0.000526585
0.000479241
0.000446087
0.000438787
0.000458708
0.000496308
0.000550729
0.000621223
0.000701269
0.00058283
0.000522437
0.000466939
0.000425153
0.00041176
0.000430517
0.000470846
0.000532122
0.000611283
0.000699649
0.000583062
0.000516761
0.000453653
0.000402758
0.000381793
0.000398211
0.000440808
0.000508513
0.000595133
0.000690359
0.00058064
0.000509064
0.000438789
0.000378556
0.000348845
0.000362285
0.000407413
0.000481407
0.000574254
0.000674856
0.000575676
0.000499098
0.000422008
0.000352453
0.000313133
0.000323604
0.000372413
0.000452775
0.000550504
0.00065479
0.000568051
0.000486586
0.000403034
0.000324463
0.000274969
0.000283153
0.000337624
0.000424482
0.00052573
0.000631897
0.000557657
0.000471287
0.000381685
0.000294726
0.00023481
0.000241954
0.000304463
0.000397808
0.000501507
0.000608073
0.000544149
0.000453046
0.000357955
0.000263552
0.00019344
0.000201106
0.000273577
0.000373165
0.000478914
0.000585207
0.000527551
0.000432214
0.00033212
0.00023133
0.00015218
0.000161866
0.000244713
0.000350083
0.000458421
0.000565161
0.000510167
0.000409747
0.000304407
0.00019822
0.000112967
0.000125662
0.000216936
0.000327378
0.000439619
0.000549124
0.000492781
0.000385556
0.000274394
0.000164141
7.82806e-05
9.39681e-05
0.0001892
0.000303534
0.00042105
0.000536711
0.000473546
0.000358302
0.000241371
0.000129514
5.06734e-05
6.80042e-05
0.000161026
0.000277235
0.000400397
0.000525587
0.000449724
0.000326463
0.000205144
9.60362e-05
3.17106e-05
4.83725e-05
0.000132871
0.000247857
0.000374758
0.000510474
0.000418542
0.000289297
0.000166685
6.66253e-05
2.11171e-05
3.49247e-05
0.000106175
0.000216407
0.000342252
0.000482551
0.000378591
0.000247808
0.0001287
4.42221e-05
1.70511e-05
2.67735e-05
8.26287e-05
0.000186198
0.00030687
0.000442363
0.000332644
0.000205691
9.51696e-05
2.99884e-05
1.67566e-05
2.23049e-05
6.26309e-05
0.000160228
0.000279024
0.000403533
0.000287067
0.000169568
6.94107e-05
2.26356e-05
1.72697e-05
1.96711e-05
4.48399e-05
0.000134866
0.000264206
0.000385954
0.000268272
0.00014897
5.05256e-05
1.90255e-05
1.73663e-05
1.80918e-05
2.9054e-05
0.000100577
0.000257318
0.000427871
0.000392946
0.000127272
3.04698e-05
1.65409e-05
1.73202e-05
1.74712e-05
1.84153e-05
4.87412e-05
0.000194875
0.000540047
9.62609e-06
9.52315e-06
9.44074e-06
9.39365e-06
9.39042e-06
9.43583e-06
9.52728e-06
9.6516e-06
9.79155e-06
9.93677e-06
1.00975e-05
1.02413e-05
1.03367e-05
1.03817e-05
1.03699e-05
1.03032e-05
1.01884e-05
1.00407e-05
9.88958e-06
9.7667e-06
9.68034e-06
9.60459e-06
9.51106e-06
9.39022e-06
9.24025e-06
9.05645e-06
8.82771e-06
8.54364e-06
8.22356e-06
7.90491e-06
7.63144e-06
7.3997e-06
7.19008e-06
6.96127e-06
6.64466e-06
6.2284e-06
5.6981e-06
5.02931e-06
4.70268e-06
4.43565e-06
8.05311e-05
7.77634e-05
7.53806e-05
7.37484e-05
7.29213e-05
7.2918e-05
7.38669e-05
7.57072e-05
7.80909e-05
8.05324e-05
8.24542e-05
8.35874e-05
8.41852e-05
8.43579e-05
8.41156e-05
8.34615e-05
8.24054e-05
8.10343e-05
7.95335e-05
7.81103e-05
7.68399e-05
7.55818e-05
7.41886e-05
7.26368e-05
7.09578e-05
6.91625e-05
6.72319e-05
6.51309e-05
6.28989e-05
6.05548e-05
5.8319e-05
5.58622e-05
5.31609e-05
5.00957e-05
4.64271e-05
4.21595e-05
3.70673e-05
3.05862e-05
2.15497e-05
8.54601e-06
0.000152162
0.000148335
0.000144989
0.000142612
0.000141331
0.000141169
0.000142137
0.000143997
0.000146249
0.000148365
0.000149898
0.000150693
0.0001508
0.000150257
0.00014909
0.000147324
0.000145002
0.000142218
0.000139173
0.000136111
0.000133159
0.000130167
0.000126972
0.000123572
0.000119985
0.000116202
0.000112202
0.000107968
0.000103505
9.8823e-05
9.38533e-05
8.84939e-05
8.26277e-05
7.61273e-05
6.89e-05
6.09293e-05
5.20456e-05
4.18129e-05
2.9213e-05
1.38316e-05
0.000210112
0.00020599
0.000202238
0.000199351
0.000197436
0.000196383
0.000196309
0.000196894
0.000197638
0.000198131
0.000198046
0.000197336
0.000195978
0.000193985
0.000191393
0.000188258
0.000184652
0.00018066
0.000176404
0.000172
0.000167514
0.000162944
0.000158237
0.000153345
0.000148214
0.000142781
0.000137003
0.000130878
0.000124441
0.000117698
0.000110587
0.000103003
9.48377e-05
8.60137e-05
7.65816e-05
6.65397e-05
5.58636e-05
4.45189e-05
3.21241e-05
1.79401e-05
0.00025547
0.00025125
0.000247261
0.000243733
0.00024082
0.000238558
0.000236928
0.000235697
0.000234487
0.000232947
0.000230856
0.000228193
0.000224932
0.0002211
0.000216759
0.000212003
0.000206936
0.000201655
0.000196214
0.000190641
0.000184981
0.000179279
0.000173538
0.000167656
0.000161458
0.000154781
0.000147538
0.000139776
0.000131665
0.00012335
0.000114812
0.0001059
9.64282e-05
8.63317e-05
7.57894e-05
6.48861e-05
5.3628e-05
4.21525e-05
3.07618e-05
1.94888e-05
0.000290508
0.000286069
0.000281645
0.000277425
0.000273495
0.000269881
0.000266534
0.000263349
0.000260091
0.000256511
0.00025242
0.00024773
0.000242445
0.000236626
0.000230374
0.00022382
0.000217101
0.000210338
0.000203592
0.000196891
0.000190255
0.000183731
0.000177352
0.000170956
0.000164158
0.000156699
0.000148423
0.000139442
0.000130125
0.00012093
0.000111823
0.000102505
9.27103e-05
8.25214e-05
7.22304e-05
6.17451e-05
5.06708e-05
3.89e-05
2.70362e-05
1.97931e-05
0.000317491
0.000312604
0.000307631
0.000302632
0.000297628
0.000292623
0.000287602
0.000282545
0.000277353
0.000271857
0.000265873
0.000259254
0.000251991
0.000244198
0.00023602
0.000227619
0.000219159
0.000210786
0.000202611
0.000194698
0.000187083
0.000179816
0.000172943
0.000166264
0.000159327
0.000151679
0.000143189
0.00013399
0.000124503
0.000115496
0.000106913
9.84702e-05
8.98918e-05
8.12968e-05
7.26715e-05
6.34718e-05
5.2975e-05
4.06515e-05
2.56882e-05
2.01056e-05
0.000338552
0.000333011
0.000327271
0.000321338
0.000315206
0.000308878
0.000302358
0.000295639
0.000288696
0.000281434
0.000273694
0.000265295
0.000256204
0.000246587
0.000236621
0.000226489
0.00021637
0.00020643
0.00019682
0.000187659
0.00017904
0.000171046
0.000163716
0.0001569
0.00015019
0.000143301
0.00013598
0.000128156
0.000120059
0.000112475
0.000105608
9.94691e-05
9.35434e-05
8.71793e-05
7.99123e-05
7.13341e-05
6.08006e-05
4.79523e-05
3.04619e-05
4.91564e-06
0.000355436
0.000349077
0.00034243
0.000335491
0.000328247
0.0003207
0.000312855
0.000304711
0.000296246
0.000287464
0.000278224
0.00026826
0.000257594
0.000246428
0.000234955
0.000223368
0.000211858
0.000200612
0.000189814
0.00017964
0.000170238
0.000161709
0.000154079
0.000147235
0.000140896
0.000135009
0.000129448
0.000124101
0.000118974
0.000114252
0.000110084
0.000106171
0.000101858
9.63578e-05
8.90344e-05
7.9902e-05
6.84806e-05
5.43582e-05
3.55835e-05
5.70688e-06
0.000369617
0.000362375
0.000354793
0.00034688
0.000338639
0.000330058
0.000321141
0.000311883
0.000302256
0.000292223
0.000281675
0.000270401
0.000258492
0.000246148
0.000233566
0.000220946
0.000208489
0.000196394
0.000184891
0.000174221
0.000164571
0.000156046
0.000148654
0.000142314
0.000136919
0.000132385
0.000128677
0.000125657
0.000123129
0.000120761
0.000118263
0.000115196
0.000110888
0.000104512
9.57689e-05
8.4759e-05
7.13469e-05
5.5464e-05
3.56911e-05
5.90102e-06
0.000382325
0.000374206
0.000365696
0.000356835
0.000347665
0.000338206
0.000328453
0.000318383
0.000307932
0.000296976
0.000285427
0.000273227
0.000260515
0.000247475
0.000234312
0.000221237
0.000208449
0.000196168
0.000184705
0.000174346
0.000165275
0.000157545
0.000151111
0.000145879
0.000141674
0.000138395
0.000136009
0.000134341
0.00013313
0.000131913
0.000130192
0.000127347
0.000122708
0.000115599
0.000105567
9.2465e-05
7.62944e-05
5.7029e-05
3.42657e-05
6.39498e-06
0.000394729
0.000385835
0.000376507
0.000366802
0.000356779
0.000346491
0.000335971
0.000325212
0.000314119
0.000302572
0.000290485
0.000277903
0.000264976
0.000251886
0.000238838
0.000226043
0.000213704
0.000202132
0.000191693
0.000182573
0.000174851
0.000168493
0.000163381
0.00015932
0.000156093
0.000153634
0.00015194
0.000150839
0.000150126
0.000149405
0.000148312
0.00014616
0.000142199
0.000135607
0.000125569
0.000111363
9.24442e-05
6.86218e-05
4.02237e-05
7.54189e-06
0.000407652
0.000398212
0.000388307
0.000378006
0.000367382
0.0003565
0.000345398
0.000334081
0.000322527
0.000310712
0.000298613
0.000286278
0.000273824
0.000261426
0.000249291
0.000237635
0.000226671
0.000216669
0.000207892
0.000200421
0.000194216
0.000189147
0.00018502
0.000181663
0.000178979
0.000176899
0.00017541
0.000174453
0.000173913
0.000173555
0.000173033
0.000171951
0.000169467
0.000164472
0.000155605
0.000141314
0.00011993
8.98979e-05
5.07021e-05
8.87553e-06
0.00042151
0.000411795
0.000401609
0.000391031
0.000380143
0.000369025
0.00035774
0.000346332
0.000334838
0.000323287
0.000311719
0.000300209
0.000288867
0.000277836
0.000267305
0.000257468
0.000248486
0.000240529
0.000233641
0.000227842
0.000223035
0.000219044
0.000215645
0.0002126
0.00020984
0.000207443
0.000205507
0.000204018
0.00020301
0.000202446
0.000202091
0.000201757
0.000200655
0.000197392
0.000190035
0.000176245
0.000153437
0.000118812
6.9365e-05
1.02705e-05
0.000436498
0.000426834
0.00041673
0.000406272
0.000395557
0.000384679
0.000373731
0.00036279
0.000351915
0.000341179
0.000330664
0.00032048
0.000310745
0.00030157
0.000293076
0.000285388
0.000278577
0.000272646
0.000267552
0.000263251
0.000259604
0.000256432
0.000253581
0.000250855
0.000248114
0.000245282
0.000242392
0.000239645
0.000237281
0.000235546
0.000234455
0.000233712
0.000232863
0.000230464
0.000223604
0.000208749
0.000182254
0.000140869
8.21768e-05
1.13713e-05
0.000452759
0.000443481
0.000433837
0.000423919
0.000413835
0.000403695
0.000393609
0.000383663
0.000373946
0.000364546
0.000355558
0.000347081
0.000339223
0.000332073
0.000325676
0.000320081
0.000315248
0.000311119
0.000307552
0.000304431
0.000301658
0.000299093
0.00029656
0.000293898
0.000290979
0.000287726
0.000284133
0.000280282
0.000276363
0.000272672
0.000269631
0.000267353
0.000265498
0.000262723
0.000254985
0.000237504
0.000206042
0.00015746
8.98409e-05
1.1533e-05
0.000470309
0.00046174
0.000452911
0.000443923
0.000434887
0.000425921
0.000417133
0.000408618
0.000400469
0.000392769
0.000385599
0.000379038
0.00037316
0.000368022
0.000363629
0.000359909
0.000356755
0.000354027
0.00035162
0.000349425
0.000347269
0.000345014
0.000342523
0.000339673
0.000336351
0.000332477
0.000328018
0.000323004
0.000317555
0.000311917
0.000306456
0.000301428
0.000296705
0.000291871
0.000282432
0.000261909
0.000226211
0.000172389
9.66194e-05
1.21033e-05
0.000488967
0.000481403
0.000473699
0.00046596
0.000458295
0.000450811
0.0004436
0.00043676
0.000430376
0.000424517
0.000419237
0.000414586
0.000410607
0.000407304
0.000404623
0.000402445
0.000400605
0.000398992
0.000397479
0.000395918
0.00039417
0.000392094
0.000389567
0.000386467
0.00038269
0.000378156
0.000372823
0.000366699
0.000359838
0.000352359
0.000344576
0.000336448
0.000327231
0.000316209
0.000305304
0.000282985
0.00024505
0.000188054
0.000106765
1.2873e-05
0.000508407
0.000502076
0.000495715
0.000489423
0.000483295
0.000477415
0.000471853
0.000466703
0.000462042
0.000457926
0.000454385
0.000451443
0.000449105
0.00044734
0.000446052
0.00044509
0.000444335
0.000443646
0.000442853
0.000441809
0.00044039
0.000438473
0.000435939
0.000432671
0.000428559
0.000423512
0.000417468
0.000410424
0.000402461
0.000393644
0.000383586
0.000371815
0.000358555
0.00034433
0.000328177
0.000302152
0.0002618
0.000201969
0.000115098
1.36072e-05
0.000528203
0.000523223
0.000518289
0.000513489
0.000508901
0.000504576
0.000500582
0.000497004
0.000493912
0.000491346
0.000489322
0.00048785
0.000486917
0.000486461
0.000486341
0.000486433
0.000486617
0.000486683
0.000486448
0.00048578
0.000484577
0.000482746
0.000480187
0.000476788
0.000472428
0.00046698
0.000460325
0.000452369
0.000443071
0.000432387
0.000420015
0.000405528
0.000389289
0.00037102
0.000349028
0.000318122
0.000274372
0.000212612
0.000124007
1.3934e-05
0.000547848
0.000544228
0.000540697
0.000537339
0.000534219
0.000531365
0.000528863
0.00052679
0.000525187
0.000524079
0.000523496
0.000523433
0.00052383
0.000524584
0.00052554
0.000526578
0.000527469
0.000527998
0.000528012
0.000527418
0.00052616
0.000524185
0.000521424
0.000517778
0.000513116
0.000507276
0.000500072
0.000491302
0.000480753
0.000468156
0.000453224
0.000435729
0.000415671
0.000392112
0.000364029
0.000328312
0.000281186
0.000217428
0.000127057
1.39188e-05
0.000566895
0.000564631
0.000562507
0.000560623
0.000559046
0.000557754
0.000556809
0.00055631
0.000556299
0.000556768
0.000557721
0.000559116
0.000560845
0.000562742
0.0005646
0.000566229
0.000567363
0.000567838
0.000567582
0.000566569
0.000564803
0.000562282
0.000558968
0.000554774
0.000549559
0.000543127
0.000535223
0.000525532
0.000513695
0.000499322
0.000482013
0.000461382
0.000437174
0.000408761
0.00037521
0.000334554
0.000283538
0.000216919
0.000124546
1.39343e-05
0.000585225
0.000584461
0.00058394
0.000583836
0.000584163
0.000584736
0.000585582
0.000586887
0.000588679
0.000590876
0.000593403
0.00059616
0.000598992
0.000601684
0.000603937
0.00060549
0.000606141
0.000605856
0.000604666
0.000602619
0.000599789
0.000596223
0.000591906
0.000586745
0.000580587
0.000573219
0.000564338
0.000553533
0.000540332
0.000524261
0.000504873
0.000481693
0.00045428
0.000422107
0.00038435
0.000339485
0.000284688
0.000214755
0.000120551
1.47537e-05
0.000603188
0.000604432
0.000606152
0.000608415
0.000610923
0.000613711
0.000616856
0.000620325
0.000624055
0.000627868
0.000631619
0.000635207
0.000638463
0.000641107
0.000642806
0.000643321
0.000642618
0.0006408
0.00063799
0.000634306
0.000629884
0.000624798
0.000619037
0.000612495
0.000605004
0.000596361
0.000586293
0.000574384
0.00056009
0.000542855
0.000522155
0.000497378
0.000467953
0.000433193
0.000392116
0.000343317
0.000284617
0.000212214
0.000119482
1.45785e-05
0.000622363
0.000626276
0.00063082
0.000635993
0.000641376
0.000646733
0.000652106
0.000657501
0.000662744
0.000667549
0.000671809
0.000675467
0.000678249
0.000679707
0.000679606
0.000677972
0.000674995
0.000670871
0.000665777
0.000659921
0.000653459
0.000646454
0.000638876
0.000630601
0.000621446
0.000611222
0.000599733
0.0005867
0.000571659
0.000554035
0.000533174
0.000508209
0.000478327
0.000442342
0.000398709
0.000345905
0.000281882
0.000203715
0.000108507
1.44687e-05
0.000644552
0.000651674
0.000659483
0.000667703
0.000675686
0.00068309
0.00069003
0.000696536
0.000702416
0.000707358
0.00071123
0.0007139
0.000715028
0.000714227
0.000711466
0.000706954
0.000701032
0.000693985
0.000686096
0.00067764
0.000668805
0.000659638
0.000650022
0.000639751
0.000628616
0.000616465
0.000603241
0.000588842
0.000573024
0.000555399
0.000535381
0.000511928
0.00048356
0.000447932
0.00040267
0.000346582
0.000277707
0.00019463
0.000101348
1.51124e-05
0.000671265
0.000681303
0.000691621
0.000701868
0.00071146
0.000719997
0.000727427
0.000733911
0.000739509
0.000743722
0.000746068
0.000746439
0.000744791
0.000741048
0.000735283
0.000727678
0.000718578
0.000708367
0.000697471
0.000686267
0.000674927
0.00066348
0.000651733
0.000639386
0.000626159
0.000611894
0.000596596
0.000580381
0.000563321
0.000545423
0.000526379
0.00050544
0.000480138
0.00044693
0.000400788
0.000342427
0.000269457
0.000181832
8.81401e-05
1.60438e-05
0.000702368
0.000714415
0.000726009
0.000736912
0.00074666
0.000754911
0.000761728
0.000767253
0.000771288
0.000773278
0.00077289
0.000770387
0.000765834
0.000759062
0.000750115
0.000739241
0.000726846
0.00071342
0.000699493
0.000685502
0.00067167
0.000658013
0.000644296
0.00063012
0.000615074
0.000599056
0.000582181
0.000564637
0.000546564
0.000528412
0.000510126
0.000491208
0.00046951
0.000439211
0.000394316
0.000336029
0.000264474
0.000178171
8.75834e-05
1.77519e-05
0.000736211
0.000749137
0.000760796
0.000771084
0.000779751
0.000786581
0.000791554
0.000794657
0.000795759
0.000794687
0.000791329
0.000785733
0.000777914
0.000767822
0.000755558
0.000741393
0.000725762
0.000709226
0.000692403
0.000675823
0.000659782
0.000644344
0.000629257
0.00061403
0.000597725
0.000580711
0.00056346
0.000546165
0.000529069
0.000512373
0.000496221
0.000480572
0.000461459
0.000429975
0.000386002
0.000328253
0.000258329
0.000181369
0.000107117
1.93725e-05
0.000770428
0.000783137
0.000793805
0.000802339
0.000808696
0.000812812
0.000814749
0.00081475
0.000812656
0.000808242
0.00080148
0.000792429
0.000781149
0.000767696
0.000752196
0.000734906
0.000716263
0.000696916
0.00067766
0.000659144
0.000641677
0.000625131
0.000609367
0.000594025
0.000578455
0.000561523
0.000544985
0.00052903
0.000514031
0.000500087
0.000487602
0.000471759
0.000449639
0.000419486
0.000378997
0.000327988
0.000268396
0.000201156
0.000122559
2.10502e-05
0.000802098
0.000813095
0.000821478
0.000827274
0.000830729
0.000831987
0.000830923
0.000827603
0.000821994
0.000814061
0.000803862
0.000791484
0.000777012
0.000760534
0.000742178
0.00072218
0.000700985
0.000679379
0.000658487
0.00063936
0.000621087
0.000602977
0.000586829
0.000572329
0.000558449
0.000544052
0.000528513
0.000513703
0.000501094
0.000489665
0.000476757
0.000463134
0.000444551
0.000415795
0.000378544
0.000333158
0.000280906
0.000217384
0.000130424
2.04776e-05
0.000827603
0.000835143
0.00084071
0.000844074
0.000845104
0.000843785
0.00084
0.000833726
0.000825018
0.000814008
0.000800865
0.000785748
0.000768775
0.000750024
0.000729564
0.000707547
0.000684323
0.00066062
0.000637496
0.000615583
0.000593954
0.000574268
0.000558106
0.000544723
0.000531715
0.000517792
0.00050485
0.000493109
0.000483155
0.00047437
0.000464157
0.000450909
0.000433186
0.000409129
0.000375009
0.000331137
0.000277167
0.000206937
0.000112709
1.71884e-05
0.000845342
0.000847347
0.00084957
0.000851044
0.000850953
0.000848565
0.000843391
0.000835302
0.000824484
0.000811303
0.000796141
0.000779293
0.000760918
0.000741042
0.000719616
0.000696623
0.000672204
0.000646788
0.000621063
0.000595627
0.000570794
0.000547671
0.000527544
0.000510655
0.000496737
0.000484871
0.000473943
0.00046321
0.000454911
0.000448629
0.000441089
0.000432173
0.000418124
0.000395702
0.000364641
0.000323786
0.000270105