/*--------------------------------*- C++ -*----------------------------------*\
  =========                 |
  \\      /  F ield         | OpenFOAM: The Open Source CFD Toolbox
   \\    /   O peration     | Website:  https://openfoam.org
    \\  /    A nd           | Version:  8
     \\/     M anipulation  |
\*---------------------------------------------------------------------------*/
FoamFile
{
    version     2.0;
    format      ascii;
    class       surfaceScalarField;
    location    "3.45";
    object      phi;
}
// * * * * * * * * * * * * * * * * * * * * * * * * * * * * * * * * * * * * * //

dimensions      [0 3 -1 0 0 0 0];

internalField   nonuniform List<scalar> 
18095
(
1.58403e-07
-9.65633e-07
8.0723e-07
1.65332e-07
-1.24816e-06
1.24124e-06
1.22183e-07
-1.24221e-06
1.28536e-06
6.5332e-08
-1.26347e-06
1.32032e-06
3.74345e-11
-1.28046e-06
1.34576e-06
-6.52639e-08
-1.28047e-06
1.34577e-06
-1.22132e-07
-1.26349e-06
1.32036e-06
-1.65299e-07
-1.24223e-06
1.2854e-06
-1.58391e-07
-1.24819e-06
1.24128e-06
-9.65673e-07
8.07282e-07
1.10987e-07
-1.07662e-06
9.93814e-08
-1.23656e-06
7.28516e-08
-1.21568e-06
4.00434e-08
-1.23066e-06
2.56207e-11
-1.24045e-06
-3.9996e-08
-1.24045e-06
-7.28139e-08
-1.23068e-06
-9.93537e-08
-1.21569e-06
-1.10972e-07
-1.23657e-06
-1.07665e-06
6.71233e-08
-1.14374e-06
5.2738e-08
-1.22217e-06
4.21364e-08
-1.20508e-06
2.3865e-08
-1.21239e-06
1.68172e-11
-1.2166e-06
-2.38335e-08
-1.2166e-06
-4.21108e-08
-1.2124e-06
-5.27187e-08
-1.20508e-06
-6.71102e-08
-1.22218e-06
-1.14376e-06
3.9603e-08
-1.18335e-06
2.66179e-08
-1.20919e-06
2.20121e-08
-1.20047e-06
1.25287e-08
-1.20291e-06
9.83786e-12
-1.20408e-06
-1.25101e-08
-1.20408e-06
-2.19968e-08
-1.20291e-06
-2.66065e-08
-1.20047e-06
-3.95939e-08
-1.20919e-06
-1.18335e-06
1.66543e-08
7.46555e-09
6.99297e-09
4.08285e-09
3.43358e-12
-4.07635e-09
-6.98765e-09
-7.46187e-09
-1.66504e-08
-1.74731e-07
-1.16392e-06
1.33865e-06
-2.18819e-07
-1.21628e-06
1.26037e-06
-1.64888e-07
-1.21273e-06
1.1588e-06
-8.68015e-08
-1.20398e-06
1.12589e-06
3.96786e-10
-1.20249e-06
1.1153e-06
8.75784e-08
-1.20256e-06
1.11537e-06
1.6559e-07
-1.20414e-06
1.12613e-06
2.19456e-07
-1.21298e-06
1.15911e-06
1.75296e-07
-1.21662e-06
1.26078e-06
-1.1643e-06
1.3396e-06
-9.29288e-08
-1.07099e-06
-9.55321e-08
-1.21368e-06
-7.91051e-08
-1.22916e-06
-4.4021e-08
-1.23906e-06
2.24174e-10
-1.24674e-06
4.44512e-08
-1.24678e-06
7.94881e-08
-1.23918e-06
9.58427e-08
-1.22933e-06
9.3105e-08
-1.21388e-06
-1.07119e-06
-5.78936e-08
-1.0131e-06
-5.50882e-08
-1.21648e-06
-4.64231e-08
-1.23783e-06
-2.70137e-08
-1.25847e-06
1.35205e-10
-1.27389e-06
2.7271e-08
-1.27392e-06
4.66431e-08
-1.25855e-06
5.52479e-08
-1.23794e-06
5.79714e-08
-1.2166e-06
-1.01322e-06
-7.47207e-08
-9.38378e-07
-6.18952e-08
-1.22931e-06
-4.8527e-08
-1.2512e-06
-2.77093e-08
-1.27929e-06
8.44884e-11
-1.30168e-06
2.78689e-08
-1.3017e-06
4.86595e-08
-1.27934e-06
6.19846e-08
-1.25126e-06
7.47625e-08
-1.22938e-06
-9.3846e-07
-1.31148e-07
-1.19222e-07
-8.5059e-08
-4.40208e-08
5.53806e-11
4.41249e-08
8.51443e-08
1.1928e-07
1.31178e-07
-3.0123e-08
-9.23753e-07
9.53876e-07
1.16994e-08
-1.34112e-06
1.2993e-06
1.44215e-08
-1.27604e-06
1.27332e-06
8.73058e-09
-1.2275e-06
1.23319e-06
3.36926e-09
-1.22453e-06
1.22989e-06
-1.89993e-09
-1.22504e-06
1.23031e-06
-8.05411e-09
-1.22736e-06
1.23352e-06
-2.83213e-09
-1.27494e-06
1.26972e-06
4.54071e-08
-1.34316e-06
1.29493e-06
-9.36536e-07
9.81943e-07
1.75298e-08
-9.41283e-07
2.39266e-08
-1.34752e-06
1.60266e-08
-1.26814e-06
9.51256e-09
-1.22098e-06
2.71666e-09
-1.21774e-06
-4.13099e-09
-1.2182e-06
-1.07556e-08
-1.22074e-06
-1.6832e-08
-1.26887e-06
-1.1606e-08
-1.34839e-06
-9.48142e-07
3.05525e-08
-9.71835e-07
2.16849e-08
-1.33865e-06
1.29042e-08
-1.25936e-06
7.98088e-09
-1.21606e-06
1.6481e-09
-1.2114e-06
-5.05798e-09
-1.21149e-06
-9.60591e-09
-1.21619e-06
-1.86356e-08
-1.25984e-06
-2.75944e-08
-1.33943e-06
-9.75736e-07
8.06438e-08
-1.05248e-06
5.43214e-08
-1.31233e-06
3.51895e-08
-1.24023e-06
2.2043e-08
-1.20291e-06
1.04379e-09
-1.19041e-06
-1.99628e-08
-1.19048e-06
-3.2868e-08
-1.20329e-06
-5.19896e-08
-1.24072e-06
-7.87029e-08
-1.31272e-06
-1.05444e-06
2.86173e-07
2.34216e-07
1.5279e-07
7.57643e-08
6.55196e-10
-7.44548e-08
-1.51611e-07
-2.33214e-07
-2.85157e-07
-2.22273e-08
-1.94015e-09
2.41675e-08
-2.01402e-08
-2.08826e-09
-1.79571e-08
-2.18313e-09
-1.57454e-08
-2.21157e-09
-1.35935e-08
-2.15183e-09
-1.16258e-08
-1.96744e-09
-1.00141e-08
-1.61143e-09
-8.9819e-09
-1.03183e-09
-8.79373e-09
-1.8783e-10
9.92921e-10
-9.78632e-09
-3.18894e-08
-2.90104e-09
3.28499e-08
-3.09041e-08
-3.07456e-09
-2.9926e-08
-3.16161e-09
-2.89987e-08
-3.1394e-09
-2.81677e-08
-2.98333e-09
-2.74991e-08
-2.63653e-09
-2.70853e-08
-2.02563e-09
-2.70434e-08
-1.07423e-09
-2.75322e-08
3.00547e-10
2.17762e-09
-2.87174e-08
-3.86749e-08
-3.18008e-09
3.89538e-08
-3.84191e-08
-3.33022e-09
-3.82043e-08
-3.37626e-09
-3.80245e-08
-3.31895e-09
-3.78855e-08
-3.12193e-09
-3.77973e-08
-2.72445e-09
-3.77645e-08
-2.05802e-09
-3.78051e-08
-1.03333e-09
-3.79752e-08
4.70821e-10
2.6175e-09
-3.84149e-08
-4.47491e-08
-2.90214e-09
4.44711e-08
-4.5092e-08
-2.98758e-09
-4.54924e-08
-2.97598e-09
-4.59483e-08
-2.86321e-09
-4.64395e-08
-2.63078e-09
-4.69235e-08
-2.24059e-09
-4.73494e-08
-1.63224e-09
-4.76685e-08
-7.14353e-10
-4.78324e-08
6.34527e-10
2.56456e-09
-4.77795e-08
-5.03272e-08
-2.17118e-09
4.95963e-08
-5.11876e-08
-2.12687e-09
-5.21767e-08
-1.9867e-09
-5.32775e-08
-1.7622e-09
-5.44542e-08
-1.45395e-09
-5.56494e-08
-1.04525e-09
-5.67915e-08
-4.90086e-10
-5.77956e-08
2.89794e-10
-5.85774e-08
1.41635e-09
3.03196e-09
-5.90447e-08
-5.52571e-08
-1.13329e-09
5.42192e-08
-5.6489e-08
-8.9465e-10
-5.79203e-08
-5.55367e-10
-5.95168e-08
-1.6555e-10
-6.12027e-08
2.32e-10
-6.28626e-08
6.14615e-10
-6.43579e-08
1.00528e-09
-6.55551e-08
1.48701e-09
-6.63212e-08
2.18261e-09
3.21542e-09
-6.65045e-08
-5.94483e-08
5.89132e-11
5.82563e-08
-6.09351e-08
5.92439e-10
-6.27348e-08
1.24442e-09
-6.4817e-08
1.91678e-09
-6.70764e-08
2.49144e-09
-6.93228e-08
2.8611e-09
-7.13269e-08
3.00957e-09
-7.29008e-08
3.0611e-09
-7.39156e-08
3.19768e-09
3.62114e-09
-7.43212e-08
-6.27383e-08
1.20072e-09
6.15966e-08
-6.43049e-08
2.15914e-09
-6.63628e-08
3.30232e-09
-6.89212e-08
4.47529e-09
-7.18467e-08
5.41706e-09
-7.47857e-08
5.80024e-09
-7.73017e-08
5.52566e-09
-7.90937e-08
4.85326e-09
-8.00299e-08
4.13409e-09
3.63688e-09
-8.00456e-08
-6.51705e-08
2.09098e-09
6.42802e-08
-6.6615e-08
3.60358e-09
-6.87719e-08
5.45924e-09
-7.18261e-08
7.52945e-09
-7.57025e-08
9.2935e-09
-7.96725e-08
9.77035e-09
-8.28579e-08
8.71108e-09
-8.48925e-08
6.88804e-09
-8.56659e-08
4.90752e-09
3.38128e-09
-8.54104e-08
-6.71764e-08
2.66693e-09
6.66004e-08
-6.83745e-08
4.80147e-09
-7.04338e-08
7.51857e-09
-7.36778e-08
1.07735e-08
-7.88154e-08
1.44311e-08
-8.48709e-08
1.58257e-08
-8.85636e-08
1.24037e-08
-9.00495e-08
8.37391e-09
-9.03174e-08
5.17529e-09
2.77003e-09
-8.97062e-08
-7.00544e-08
3.18904e-09
6.95322e-08
-7.13957e-08
6.14262e-09
-7.36421e-08
9.76487e-09
-7.71845e-08
1.43158e-08
-8.35866e-08
2.0833e-08
-8.97793e-08
2.20183e-08
-9.14641e-08
1.40884e-08
-9.18657e-08
8.77533e-09
-9.17627e-08
5.07212e-09
2.38394e-09
-9.13768e-08
-7.28227e-08
3.35859e-09
7.26531e-08
-7.34718e-08
6.79182e-09
-7.5892e-08
1.2185e-08
-7.92059e-08
1.76295e-08
-7.96993e-08
2.13264e-08
-7.89471e-08
2.12661e-08
-8.18306e-08
1.69718e-08
-8.39957e-08
1.09403e-08
-8.55793e-08
6.65561e-09
3.7815e-09
-8.69769e-08
-7.75388e-08
3.70797e-09
7.71894e-08
-7.78643e-08
7.11753e-09
-7.77013e-08
1.20219e-08
-7.72785e-08
1.72067e-08
-7.58128e-08
1.98606e-08
-7.44928e-08
1.99461e-08
-7.49347e-08
1.74137e-08
-7.63732e-08
1.23789e-08
-7.82915e-08
8.57399e-09
5.92163e-09
-8.04315e-08
-8.07034e-08
4.09797e-09
8.03136e-08
-8.0542e-08
6.95646e-09
-7.93453e-08
1.08254e-08
-7.72364e-08
1.50979e-08
-7.39224e-08
1.65468e-08
-7.00476e-08
1.60715e-08
-6.87576e-08
1.61239e-08
-6.95897e-08
1.32112e-08
-7.16164e-08
1.06008e-08
8.40908e-09
-7.41038e-08
-8.13821e-08
4.48832e-09
8.09918e-08
-8.14391e-08
7.01388e-09
-8.0483e-08
9.86932e-09
-7.76705e-08
1.22855e-08
-7.44553e-08
1.33318e-08
-7.1034e-08
1.26505e-08
-6.82464e-08
1.33365e-08
-6.80241e-08
1.2989e-08
-6.91415e-08
1.17183e-08
1.0254e-08
-7.09862e-08
-7.65491e-08
3.74185e-09
7.72957e-08
-7.53419e-08
5.80695e-09
-7.34491e-08
7.97672e-09
-7.10359e-08
9.87254e-09
-6.89308e-08
1.12269e-08
-6.84802e-08
1.22001e-08
-6.77899e-08
1.26462e-08
-6.75765e-08
1.27757e-08
-6.82684e-08
1.24103e-08
1.15806e-08
-6.95949e-08
-7.16373e-08
2.2448e-09
7.31344e-08
-6.99889e-08
4.15862e-09
-6.82354e-08
6.22326e-09
-6.6612e-08
8.24916e-09
-6.54427e-08
1.00576e-08
-6.47944e-08
1.15519e-08
-6.48464e-08
1.26984e-08
-6.54528e-08
1.33823e-08
-6.65682e-08
1.35258e-08
1.30852e-08
-6.80728e-08
-6.76202e-08
1.34874e-10
6.97302e-08
-6.56109e-08
2.14935e-09
-6.38274e-08
4.43983e-09
-6.24327e-08
6.85443e-09
-6.1598e-08
9.22286e-09
-6.14374e-08
1.13912e-08
-6.19688e-08
1.32298e-08
-6.31736e-08
1.45871e-08
-6.49129e-08
1.52652e-08
1.50946e-08
-6.69222e-08
-6.52223e-08
-2.61449e-09
6.79716e-08
-6.27275e-08
-3.45272e-10
-6.06763e-08
2.38864e-09
-5.92489e-08
5.42702e-09
-5.85657e-08
8.53972e-09
-5.86895e-08
1.1515e-08
-5.96659e-08
1.42062e-08
-6.15377e-08
1.64589e-08
-6.41041e-08
1.78317e-08
1.78451e-08
-6.68547e-08
-6.54281e-08
-6.04846e-09
6.88621e-08
-6.23111e-08
-3.46215e-09
-5.98125e-08
-1.09923e-10
-5.8198e-08
3.81253e-09
-5.75461e-08
7.88789e-09
-5.77289e-08
1.16977e-08
-5.88658e-08
1.5343e-08
-6.13237e-08
1.89168e-08
-6.49657e-08
2.14738e-08
2.15484e-08
-6.8669e-08
-6.96134e-08
-1.00949e-08
7.36599e-08
-6.57604e-08
-7.31485e-09
-6.26702e-08
-3.20017e-09
-6.08983e-08
2.04052e-09
-6.04906e-08
7.48011e-09
-6.06133e-08
1.18203e-08
-6.09464e-08
1.56761e-08
-6.30778e-08
2.10481e-08
-6.818e-08
2.65758e-08
2.66706e-08
-7.33023e-08
-8.0036e-08
-1.40853e-08
8.40265e-08
-7.58477e-08
-1.15028e-08
-7.16659e-08
-7.38192e-09
-6.93032e-08
-3.22062e-10
-6.90289e-08
7.20576e-09
-7.21359e-08
1.49272e-08
-7.008e-08
1.36201e-08
-7.05075e-08
2.14756e-08
-7.38116e-08
2.98799e-08
3.07189e-08
-7.786e-08
-9.88137e-08
-1.6149e-08
1.00877e-07
-9.65749e-08
-1.37415e-08
-9.40413e-08
-9.9156e-09
-8.97553e-08
-4.60821e-09
-8.52322e-08
2.68255e-09
-7.53267e-08
5.02146e-09
-7.74346e-08
1.5728e-08
-7.87502e-08
2.27912e-08
-7.746e-08
2.85896e-08
2.93866e-08
-7.61279e-08
-1.18219e-07
-1.63213e-08
1.18391e-07
-1.17969e-07
-1.39912e-08
-1.1733e-07
-1.05545e-08
-1.15884e-07
-6.05376e-09
-1.12041e-07
-1.1601e-09
-1.11347e-07
4.32671e-09
-1.06565e-07
1.09459e-08
-1.01767e-07
1.79937e-08
-1.0069e-07
2.75123e-08
2.96888e-08
-1.00993e-07
-1.34675e-07
-1.52156e-08
1.3357e-07
-1.35856e-07
-1.28106e-08
-1.36922e-07
-9.4886e-09
-1.37622e-07
-5.3535e-09
-1.38164e-07
-6.18553e-10
-1.38463e-07
4.62556e-09
-1.37922e-07
1.04049e-08
-1.36438e-07
1.65106e-08
-1.30487e-07
2.15605e-08
2.51233e-08
-1.25921e-07
-1.49124e-07
-1.28866e-08
1.46795e-07
-1.51807e-07
-1.01279e-08
-1.54778e-07
-6.51735e-09
-1.57957e-07
-2.17414e-09
-1.61287e-07
2.71078e-09
-1.64576e-07
7.9151e-09
-1.6736e-07
1.31881e-08
-1.689e-07
1.80509e-08
-1.69176e-07
2.18368e-08
2.29086e-08
-1.66962e-07
-1.61809e-07
-9.32357e-09
1.58246e-07
-1.66053e-07
-5.88342e-09
-1.70978e-07
-1.59228e-09
-1.7653e-07
3.3781e-09
-1.82575e-07
8.75539e-09
-1.88872e-07
1.42125e-08
-1.95058e-07
1.9374e-08
-2.00795e-07
2.37879e-08
-2.05886e-07
2.69278e-08
2.82783e-08
-2.11256e-07
-1.73268e-07
-4.38112e-09
1.68326e-07
-1.79348e-07
1.95985e-10
-1.86646e-07
5.70561e-09
-1.95133e-07
1.18652e-08
-2.04661e-07
1.82839e-08
-2.14937e-07
2.44882e-08
-2.25527e-07
2.99642e-08
-2.35986e-07
3.42467e-08
-2.46125e-07
3.70668e-08
3.74756e-08
-2.55322e-07
-1.83262e-07
2.01116e-09
1.7687e-07
-1.91384e-07
8.31832e-09
-2.01425e-07
1.5747e-08
-2.13437e-07
2.38772e-08
-2.27285e-07
3.21317e-08
-2.4258e-07
3.9783e-08
-2.58625e-07
4.60089e-08
-2.74477e-07
5.00984e-08
-2.89169e-07
5.17588e-08
5.11866e-08
-3.0288e-07
-1.90683e-07
9.53261e-09
1.83161e-07
-2.00633e-07
1.82684e-08
-2.134e-07
2.85143e-08
-2.29224e-07
3.97015e-08
-2.48083e-07
5.09899e-08
-2.69523e-07
6.12236e-08
-2.92491e-07
6.89763e-08
-3.15096e-07
7.27034e-08
-3.35663e-07
7.23263e-08
6.79905e-08
-3.52467e-07
-1.93874e-07
1.72292e-08
1.86178e-07
-2.04716e-07
2.91097e-08
-2.19465e-07
4.32636e-08
-2.38743e-07
5.89795e-08
-2.62736e-07
7.4983e-08
-2.91128e-07
8.96149e-08
-3.2302e-07
1.00869e-07
-3.5528e-07
1.04964e-07
-3.83606e-07
1.00652e-07
9.14834e-08
-4.07099e-07
-1.90767e-07
2.29557e-08
1.8504e-07
-1.99848e-07
3.81914e-08
-2.13553e-07
5.69685e-08
-2.33218e-07
7.86439e-08
-2.60631e-07
1.02397e-07
-2.97812e-07
1.26796e-07
-3.46594e-07
1.49651e-07
-4.02341e-07
1.6071e-07
-4.39071e-07
1.37382e-07
1.06011e-07
-4.53598e-07
-1.79401e-07
2.2713e-08
1.79644e-07
-1.8082e-07
3.961e-08
-1.85309e-07
6.14579e-08
-1.96302e-07
8.96369e-08
-2.21499e-07
1.27594e-07
-2.83378e-07
1.88675e-07
-4.0529e-07
2.71563e-07
-4.87715e-07
2.43135e-07
-5.01427e-07
1.51093e-07
1.02951e-07
-4.98367e-07
-1.72936e-07
1.57365e-08
1.79913e-07
-1.64404e-07
3.10784e-08
-1.55286e-07
5.23396e-08
-1.51364e-07
8.57147e-08
-1.82812e-07
1.59043e-07
-3.63532e-07
3.69394e-07
-5.16668e-07
4.24699e-07
-5.22313e-07
2.48781e-07
-5.04069e-07
1.3285e-07
8.71948e-08
-4.88313e-07
-1.94837e-07
9.53173e-09
2.01041e-07
-1.85718e-07
2.19597e-08
-1.73839e-07
4.04613e-08
-1.62444e-07
7.43198e-08
-1.91002e-07
1.876e-07
-3.26218e-07
5.04608e-07
-4.29718e-07
5.28196e-07
-4.58949e-07
2.7801e-07
-4.43527e-07
1.17427e-07
7.48471e-08
-4.31179e-07
-2.36327e-07
9.4206e-09
2.36439e-07
-2.33777e-07
1.94097e-08
-2.27584e-07
3.42684e-08
-2.14913e-07
6.16487e-08
-1.8751e-07
1.60196e-07
-2.13188e-07
5.30287e-07
-2.84625e-07
5.99632e-07
-3.76545e-07
3.69929e-07
-3.68206e-07
1.09086e-07
6.91062e-08
-3.62465e-07
-2.80152e-07
1.69266e-08
2.72646e-07
-2.86371e-07
2.56288e-08
-2.90701e-07
3.85988e-08
-2.88344e-07
5.92909e-08
-2.37e-07
1.08851e-07
-1.24528e-07
4.17812e-07
-1.65466e-07
6.40571e-07
-2.83877e-07
4.88339e-07
-2.88138e-07
1.13349e-07
7.23021e-08
-2.91334e-07
-3.1024e-07
3.02185e-08
2.96948e-07
-3.22637e-07
3.80258e-08
-3.33501e-07
4.94624e-08
-3.3967e-07
6.54608e-08
-3.23275e-07
9.2454e-08
-1.32132e-07
2.26667e-07
-1.07649e-07
6.16085e-07
-2.00177e-07
5.80863e-07
-2.13183e-07
1.26355e-07
8.31415e-08
-2.24023e-07
-3.18273e-07
4.60772e-08
3.02414e-07
-3.33394e-07
5.31466e-08
-3.46878e-07
6.2947e-08
-3.5692e-07
7.55028e-08
-3.57363e-07
9.28971e-08
-2.57763e-07
1.2707e-07
-6.78279e-08
4.26147e-07
-1.27277e-07
6.40312e-07
-1.51219e-07
1.50298e-07
9.91081e-08
-1.67186e-07
-3.04258e-07
6.14746e-08
2.88861e-07
-3.19059e-07
6.79478e-08
-3.32441e-07
7.63285e-08
-3.43584e-07
8.66462e-08
-3.49846e-07
9.91581e-08
-3.43124e-07
1.20348e-07
-1.17627e-07
2.00647e-07
-5.69572e-08
5.79641e-07
-1.02534e-07
1.95876e-07
1.19292e-07
-1.22718e-07
-2.73767e-07
7.43489e-08
2.60893e-07
-2.86115e-07
8.02956e-08
-2.97403e-07
8.76168e-08
-3.0702e-07
9.62629e-08
-3.13938e-07
1.06076e-07
-3.12061e-07
1.18471e-07
-2.53563e-07
1.42149e-07
-5.07591e-09
3.31151e-07
-6.84113e-08
2.59206e-07
1.4089e-07
-9.00104e-08
-2.3426e-07
8.3939e-08
2.2467e-07
-2.43332e-07
8.93679e-08
-2.51631e-07
9.5915e-08
-2.58872e-07
1.03505e-07
-2.6489e-07
1.12094e-07
-2.68212e-07
1.21792e-07
-2.61262e-07
1.35199e-07
-9.32415e-08
1.63134e-07
-3.79293e-08
2.03893e-07
1.65701e-07
-6.27379e-08
-1.91177e-07
9.00849e-08
1.85031e-07
-1.96719e-07
9.49103e-08
-2.0153e-07
1.00726e-07
-2.05254e-07
1.07229e-07
-2.07577e-07
1.14417e-07
-2.0788e-07
1.22095e-07
-2.02891e-07
1.3021e-07
-1.78889e-07
1.39132e-07
-1.26654e-07
1.51654e-07
1.43148e-07
-1.04101e-07
-1.488e-07
9.32703e-08
1.45615e-07
-1.5126e-07
9.73711e-08
-1.52889e-07
1.02355e-07
-1.5375e-07
1.08091e-07
-1.53656e-07
1.14324e-07
-1.5146e-07
1.19899e-07
-1.466e-07
1.25349e-07
-1.37249e-07
1.29782e-07
-1.18237e-07
1.32642e-07
1.32169e-07
-1.07257e-07
-1.09514e-07
9.40657e-08
1.08719e-07
-1.09479e-07
9.73368e-08
-1.08495e-07
1.0137e-07
-1.06709e-07
1.06305e-07
-1.04751e-07
1.12366e-07
-1.02395e-07
1.17543e-07
-9.78319e-08
1.20786e-07
-9.15349e-08
1.23485e-07
-8.38689e-08
1.24977e-07
1.24578e-07
-7.62782e-08
-7.51478e-08
9.32088e-08
7.60047e-08
-7.34948e-08
9.56841e-08
-7.09889e-08
9.88644e-08
-6.74773e-08
1.02793e-07
-6.2625e-08
1.07514e-07
-5.75462e-08
1.12464e-07
-5.31964e-08
1.16437e-07
-4.91038e-08
1.19392e-07
-4.42493e-08
1.20122e-07
1.2049e-07
-4.01607e-08
-4.57901e-08
9.12124e-08
4.77867e-08
-4.30404e-08
9.2935e-08
-3.9465e-08
9.5289e-08
-3.49373e-08
9.82654e-08
-2.92771e-08
1.01854e-07
-2.27198e-08
1.05907e-07
-1.61867e-08
1.09904e-07
-1.05485e-08
1.13754e-07
-6.60894e-09
1.16183e-07
1.17881e-07
-4.00014e-09
-2.13656e-08
8.85324e-08
2.40456e-08
-1.80035e-08
8.95733e-08
-1.39095e-08
9.11945e-08
-9.0498e-09
9.34058e-08
-3.36937e-09
9.61735e-08
3.10454e-09
9.94329e-08
9.84485e-09
1.03164e-07
1.66541e-08
1.06945e-07
2.25016e-08
1.10336e-07
1.13323e-07
2.70598e-08
-1.1815e-09
8.54649e-08
4.24936e-09
2.51346e-09
8.58787e-08
6.87565e-09
8.68326e-08
1.19267e-08
8.83548e-08
1.76385e-08
9.04619e-08
2.39293e-08
9.31421e-08
3.07565e-08
9.63367e-08
3.77788e-08
9.9923e-08
4.43393e-08
1.03776e-07
1.0728e-07
5.03819e-08
1.54718e-08
8.22324e-08
-1.22392e-08
1.92964e-08
8.20539e-08
2.37619e-08
8.23671e-08
2.89002e-08
8.32166e-08
3.47149e-08
8.46472e-08
4.11543e-08
8.6703e-08
4.80682e-08
8.94229e-08
5.51432e-08
9.28481e-08
6.18456e-08
9.70733e-08
1.02491e-07
6.6635e-08
2.94735e-08
7.89901e-08
-2.62313e-08
3.32771e-08
7.82504e-08
3.77078e-08
7.79365e-08
4.28269e-08
7.80976e-08
4.86831e-08
7.87909e-08
5.5299e-08
8.0087e-08
6.26399e-08
8.20821e-08
7.05545e-08
8.49335e-08
7.86393e-08
8.89884e-08
9.49549e-08
8.61755e-08
4.19898e-08
7.57575e-08
-3.8757e-08
4.57666e-08
7.44736e-08
5.01804e-08
7.35229e-08
5.53396e-08
7.29381e-08
6.13769e-08
7.27536e-08
6.84598e-08
7.30042e-08
7.68118e-08
7.37302e-08
8.67588e-08
7.49867e-08
9.88669e-08
7.68802e-08
8.02437e-08
1.13578e-07
5.41831e-08
7.24287e-08
-5.08542e-08
5.80299e-08
7.0627e-08
6.2482e-08
6.90704e-08
6.76379e-08
6.77822e-08
7.36047e-08
6.67867e-08
8.05051e-08
6.61038e-08
8.84928e-08
6.57424e-08
9.78046e-08
6.56751e-08
1.08933e-07
6.57522e-08
6.57237e-08
1.23453e-07
6.75607e-08
6.85489e-08
-6.36809e-08
7.20647e-08
6.61231e-08
7.73275e-08
6.38078e-08
8.35066e-08
6.16032e-08
9.07832e-08
5.95102e-08
9.9364e-08
5.75229e-08
1.09486e-07
5.56206e-08
1.2142e-07
5.37406e-08
1.35469e-07
5.17031e-08
4.90921e-08
1.521e-07
8.22211e-08
6.37671e-08
-7.74392e-08
8.77615e-08
6.05826e-08
9.42254e-08
5.73438e-08
1.01802e-07
5.40272e-08
1.10699e-07
5.06127e-08
1.2114e-07
4.70823e-08
1.33341e-07
4.34194e-08
1.47479e-07
3.9603e-08
1.63575e-07
3.56067e-08
3.14873e-08
1.8118e-07
9.78593e-08
5.78632e-08
-9.19554e-08
1.04633e-07
5.38091e-08
1.1243e-07
4.95461e-08
1.21418e-07
4.50384e-08
1.31773e-07
4.02574e-08
1.43662e-07
3.51926e-08
1.57229e-07
2.98523e-08
1.72562e-07
2.42696e-08
1.89655e-07
1.85136e-08
1.27259e-08
2.08416e-07
1.13887e-07
5.06816e-08
-1.06706e-07
1.22004e-07
4.56923e-08
1.31184e-07
4.03662e-08
1.41569e-07
3.46533e-08
1.53283e-07
2.85435e-08
1.6644e-07
2.20351e-08
1.81132e-07
1.51603e-08
1.97423e-07
7.9787e-09
2.15343e-07
5.93236e-10
-6.82806e-09
2.34897e-07
1.2943e-07
4.22184e-08
-1.20967e-07
1.38843e-07
3.62772e-08
1.49304e-07
2.99049e-08
1.60884e-07
2.30736e-08
1.73651e-07
1.57759e-08
1.87644e-07
8.04267e-09
2.02886e-07
-8.21442e-11
2.19392e-07
-8.52702e-09
2.37197e-07
-1.72115e-08
-2.60412e-08
2.5641e-07
1.43946e-07
3.248e-08
-1.34208e-07
1.54651e-07
2.5572e-08
1.66376e-07
1.81802e-08
1.79149e-07
1.03003e-08
1.92991e-07
1.93393e-09
2.07929e-07
-6.89531e-09
2.2397e-07
-1.61234e-08
2.41119e-07
-2.56758e-08
2.59408e-07
-3.55007e-08
-4.55894e-08
2.78957e-07
1.57108e-07
2.13388e-08
-1.45967e-07
1.69245e-07
1.34345e-08
1.82376e-07
5.04962e-09
1.96534e-07
-3.85763e-09
2.11794e-07
-1.33264e-08
2.28223e-07
-2.33242e-08
2.45856e-07
-3.37569e-08
2.64729e-07
-4.45488e-08
2.84882e-07
-5.56531e-08
-6.70801e-08
3.06373e-07
1.68777e-07
8.60191e-09
-1.5604e-07
1.82585e-07
-3.73196e-10
1.97438e-07
-9.80373e-09
2.1345e-07
-1.987e-08
2.30724e-07
-3.05999e-08
2.49339e-07
-4.1939e-08
2.69416e-07
-5.38341e-08
2.91032e-07
-6.61653e-08
3.14235e-07
-7.88558e-08
-9.19464e-08
3.39101e-07
1.78909e-07
-5.91468e-09
-1.64393e-07
1.94711e-07
-1.61751e-08
2.1198e-07
-2.70728e-08
2.30781e-07
-3.86707e-08
2.51125e-07
-5.09446e-08
2.73094e-07
-6.39078e-08
2.96801e-07
-7.75414e-08
3.22406e-07
-9.17708e-08
3.50065e-07
-1.06514e-07
-1.21837e-07
3.79955e-07
1.88431e-07
-2.27293e-08
-1.71616e-07
2.06949e-07
-3.46935e-08
2.27302e-07
-4.74264e-08
2.495e-07
-6.08691e-08
2.73596e-07
-7.50408e-08
2.99742e-07
-9.00536e-08
3.27972e-07
-1.05771e-07
3.58397e-07
-1.22196e-07
3.91238e-07
-1.39355e-07
-1.57277e-07
4.26678e-07
1.97753e-07
-4.23116e-08
-1.78171e-07
2.19463e-07
-5.64022e-08
2.43445e-07
-7.14086e-08
2.69594e-07
-8.70177e-08
2.97882e-07
-1.0333e-07
3.284e-07
-1.20571e-07
3.61281e-07
-1.38653e-07
3.96648e-07
-1.57563e-07
4.34591e-07
-1.77298e-07
-1.97813e-07
4.75128e-07
2.06727e-07
-6.50905e-08
-1.83948e-07
2.31947e-07
-8.16221e-08
2.5952e-07
-9.89813e-08
2.8963e-07
-1.17127e-07
3.22323e-07
-1.36023e-07
3.57509e-07
-1.55758e-07
3.95215e-07
-1.76358e-07
4.35488e-07
-1.97837e-07
4.78444e-07
-2.20254e-07
-2.43619e-07
5.24249e-07
2.13624e-07
-9.12003e-08
-1.87514e-07
2.42503e-07
-1.10502e-07
2.74222e-07
-1.30701e-07
3.08793e-07
-1.51698e-07
3.46195e-07
-1.73426e-07
3.86281e-07
-1.95844e-07
4.2892e-07
-2.18997e-07
4.74394e-07
-2.43311e-07
5.24045e-07
-2.69904e-07
-3.01188e-07
5.81615e-07
2.1739e-07
-1.20852e-07
-1.87739e-07
2.50321e-07
-1.43433e-07
2.86563e-07
-1.66943e-07
3.26105e-07
-1.9124e-07
3.68802e-07
-2.16122e-07
4.14382e-07
-2.41425e-07
4.62936e-07
-2.67551e-07
5.17241e-07
-2.97615e-07
5.8338e-07
-3.36043e-07
-3.84843e-07
6.67035e-07
2.16691e-07
-1.54251e-07
-1.83292e-07
2.53985e-07
-1.80728e-07
2.95222e-07
-2.08181e-07
3.4041e-07
-2.36428e-07
3.89443e-07
-2.65156e-07
4.42507e-07
-2.94489e-07
5.0367e-07
-3.28713e-07
5.79639e-07
-3.73585e-07
6.72425e-07
-4.28829e-07
-4.86976e-07
7.74557e-07
2.10644e-07
-1.91763e-07
-1.73132e-07
2.52778e-07
-2.22862e-07
2.99643e-07
-2.55046e-07
3.51683e-07
-2.88468e-07
4.09934e-07
-3.23407e-07
4.79018e-07
-3.63573e-07
5.65516e-07
-4.15212e-07
6.67034e-07
-4.75102e-07
7.72768e-07
-5.34564e-07
-5.8714e-07
8.72933e-07
1.98983e-07
-2.34156e-07
-1.56591e-07
2.47127e-07
-2.71007e-07
3.01583e-07
-3.09502e-07
3.64863e-07
-3.51748e-07
4.41479e-07
-4.00023e-07
5.37441e-07
-4.59535e-07
6.4432e-07
-5.22091e-07
7.50144e-07
-5.80927e-07
8.45353e-07
-6.29773e-07
-6.67742e-07
9.25955e-07
1.81836e-07
-2.83115e-07
-1.32877e-07
2.3964e-07
-3.2881e-07
3.0944e-07
-3.79302e-07
3.94446e-07
-4.36754e-07
4.95682e-07
-5.01259e-07
6.03346e-07
-5.67199e-07
7.04058e-07
-6.22803e-07
7.91883e-07
-6.68752e-07
8.6809e-07
-7.0598e-07
-7.35558e-07
9.35905e-07
1.62527e-07
-3.43085e-07
-1.02556e-07
2.3696e-07
-4.03243e-07
3.28644e-07
-4.70986e-07
4.32132e-07
-5.40242e-07
5.34637e-07
-6.03764e-07
6.27071e-07
-6.59633e-07
7.10832e-07
-7.06564e-07
7.88032e-07
-7.45951e-07
8.60409e-07
-7.78357e-07
-8.03036e-07
9.27888e-07
1.51618e-07
-4.21208e-07
-7.34952e-08
2.44338e-07
-4.95962e-07
3.42211e-07
-5.6886e-07
4.3628e-07
-6.3431e-07
5.24774e-07
-6.92258e-07
6.08861e-07
-7.4372e-07
6.90195e-07
-7.87898e-07
7.6877e-07
-8.24527e-07
8.42817e-07
-8.52404e-07
-8.70309e-07
9.1009e-07
1.39302e-07
-5.09357e-07
-5.11533e-08
2.30774e-07
-5.87435e-07
3.19943e-07
-6.58029e-07
4.07733e-07
-7.221e-07
4.94623e-07
-7.79149e-07
5.80151e-07
-8.29247e-07
6.6328e-07
-8.71028e-07
7.41985e-07
-9.03232e-07
8.1414e-07
-9.24558e-07
-9.33743e-07
8.77573e-07
1.04488e-07
-5.95419e-07
-1.84259e-08
1.92607e-07
-6.75555e-07
2.81779e-07
-7.472e-07
3.71098e-07
-8.1142e-07
4.59497e-07
-8.67547e-07
5.45025e-07
-9.14776e-07
6.25948e-07
-9.51951e-07
7.0052e-07
-9.77804e-07
7.66984e-07
-9.91022e-07
-9.9025e-07
8.23492e-07
6.57034e-08
-6.80717e-07
1.95943e-08
1.55205e-07
-7.65056e-07
2.45542e-07
-8.37536e-07
3.34092e-07
-8.9997e-07
4.19202e-07
-9.52656e-07
4.99458e-07
-9.95032e-07
5.73565e-07
-1.02606e-06
6.40248e-07
-1.04449e-06
6.98131e-07
-1.0489e-06
-1.03775e-06
7.45632e-07
3.88589e-08
-7.69115e-07
4.95394e-08
1.27842e-07
-8.54038e-07
2.13842e-07
-9.23537e-07
2.95459e-07
-9.81586e-07
3.71924e-07
-1.02912e-06
4.42454e-07
-1.06556e-06
5.06254e-07
-1.08986e-06
5.62517e-07
-1.10075e-06
6.1027e-07
-1.09666e-06
-1.07571e-06
6.48223e-07
2.5314e-08
-8.57941e-07
6.35112e-08
1.0756e-07
-9.36284e-07
1.83551e-07
-9.99528e-07
2.53676e-07
-1.05171e-06
3.18035e-07
-1.09348e-06
3.76284e-07
-1.12381e-06
4.27955e-07
-1.14153e-06
4.72682e-07
-1.14548e-06
5.10099e-07
-1.13407e-06
-1.10512e-06
5.39516e-07
1.66307e-08
-9.39968e-07
6.53957e-08
8.74628e-08
-1.00712e-06
1.5095e-07
-1.06302e-06
2.08443e-07
-1.1092e-06
2.6022e-07
-1.14526e-06
3.06031e-07
-1.16962e-06
3.45528e-07
-1.18103e-06
3.78637e-07
-1.17859e-06
4.05623e-07
-1.16106e-06
-1.12613e-06
4.26633e-07
7.98648e-09
-1.00994e-06
6.19903e-08
6.72962e-08
-1.06643e-06
1.18882e-07
-1.1146e-06
1.6451e-07
-1.15483e-06
2.04667e-07
-1.18541e-06
2.39095e-07
-1.20405e-06
2.67525e-07
-1.20946e-06
2.90295e-07
-1.20136e-06
3.08786e-07
-1.17955e-06
-1.14317e-06
3.25821e-07
1.36359e-08
-1.06261e-06
3.90294e-08
5.83217e-08
-1.11111e-06
9.64224e-08
-1.1527e-06
1.29653e-07
-1.18806e-06
1.5845e-07
-1.21421e-06
1.82203e-07
-1.2278e-06
2.00173e-07
-1.22743e-06
2.1236e-07
-1.21354e-06
2.19887e-07
-1.18708e-06
-1.14813e-06
2.24847e-07
2.97654e-08
-1.09545e-06
3.07309e-09
5.83129e-08
-1.13966e-06
8.28866e-08
-1.17728e-06
1.04832e-07
-1.21001e-06
1.24282e-07
-1.23366e-06
1.40138e-07
-1.24366e-06
1.51106e-07
-1.2384e-06
1.56787e-07
-1.21923e-06
1.57932e-07
-1.18822e-06
-1.14616e-06
1.55959e-07
4.01224e-08
-1.11429e-06
-2.12771e-08
5.6882e-08
-1.15642e-06
7.18771e-08
-1.19227e-06
8.60996e-08
-1.22423e-06
9.95541e-08
-1.24711e-06
1.10876e-07
-1.25498e-06
1.18485e-07
-1.246e-06
1.21904e-07
-1.22264e-06
1.21861e-07
-1.18818e-06
-1.14372e-06
1.19421e-07
4.57865e-08
-1.12322e-06
-3.68579e-08
5.43754e-08
-1.16501e-06
6.28776e-08
-1.20077e-06
7.20271e-08
-1.23338e-06
8.17476e-08
-1.25683e-06
9.04984e-08
-1.26373e-06
9.65626e-08
-1.25207e-06
9.9593e-08
-1.22567e-06
1.00379e-07
-1.18896e-06
-1.14313e-06
9.97916e-08
4.89077e-08
-1.12554e-06
-4.65871e-08
5.17469e-08
-1.16785e-06
5.57244e-08
-1.20475e-06
6.13615e-08
-1.23902e-06
6.84449e-08
-1.26392e-06
7.52735e-08
-1.27056e-06
8.01011e-08
-1.2569e-06
8.28156e-08
-1.22839e-06
8.42529e-08
-1.1904e-06
-1.14401e-06
8.51367e-08
4.92334e-08
-1.12304e-06
-5.17357e-08
4.81319e-08
-1.16674e-06
4.92302e-08
-1.20585e-06
5.25448e-08
-1.24233e-06
5.75743e-08
-1.26895e-06
6.25296e-08
-1.27551e-06
6.58452e-08
-1.26021e-06
6.7724e-08
-1.23027e-06
6.90081e-08
-1.19169e-06
-1.14532e-06
7.0318e-08
4.56259e-08
-1.11691e-06
-5.17589e-08
4.24974e-08
-1.16362e-06
4.24506e-08
-1.2058e-06
4.45556e-08
-1.24444e-06
4.79146e-08
-1.27231e-06
5.08843e-08
-1.27848e-06
5.2418e-08
-1.26175e-06
5.29855e-08
-1.23083e-06
5.32039e-08
-1.1919e-06
-1.14564e-06
5.35212e-08
3.7459e-08
-1.10856e-06
-4.58093e-08
3.46027e-08
-1.16076e-06
3.52029e-08
-1.2064e-06
3.71532e-08
-1.24639e-06
3.92033e-08
-1.27436e-06
4.02569e-08
-1.27954e-06
4.01922e-08
-1.26168e-06
3.95068e-08
-1.23015e-06
3.8178e-08
-1.19058e-06
-1.14357e-06
3.61084e-08
2.47343e-08
-1.10236e-06
-3.09354e-08
2.53339e-08
-1.16136e-06
2.8267e-08
-1.20933e-06
3.09464e-08
-1.24907e-06
3.20485e-08
-1.27546e-06
3.15796e-08
-1.27907e-06
3.07309e-08
-1.26083e-06
2.97917e-08
-1.22921e-06
2.78036e-08
-1.18859e-06
-1.13936e-06
2.35965e-08
1.24163e-08
-1.10392e-06
-1.08491e-08
1.80078e-08
-1.16695e-06
2.35213e-08
-1.21485e-06
2.71456e-08
-1.25269e-06
2.74684e-08
-1.27578e-06
2.60582e-08
-1.27766e-06
2.55575e-08
-1.26033e-06
2.59889e-08
-1.22964e-06
2.56614e-08
-1.18826e-06
-1.13543e-06
2.17235e-08
4.52316e-09
-1.11399e-06
5.53943e-09
1.38499e-08
-1.17628e-06
2.11769e-08
-1.22218e-06
2.5836e-08
-1.25735e-06
2.57436e-08
-1.27569e-06
2.43235e-08
-1.27624e-06
2.54451e-08
-1.26145e-06
2.89792e-08
-1.23318e-06
3.34545e-08
-1.19273e-06
-1.13648e-06
3.45124e-08
-2.71042e-10
-1.12919e-06
1.54781e-08
1.10654e-08
-1.18762e-06
1.98227e-08
-1.23093e-06
2.57412e-08
-1.26327e-06
2.57106e-08
-1.27566e-06
2.51685e-08
-1.2757e-06
2.87704e-08
-1.26505e-06
3.62959e-08
-1.2407e-06
4.81715e-08
-1.20461e-06
-1.15006e-06
6.17495e-08
-1.55534e-09
-1.14619e-06
1.85519e-08
9.88207e-09
-1.19905e-06
1.93943e-08
-1.24045e-06
2.56956e-08
-1.26957e-06
2.52928e-08
-1.27526e-06
2.51444e-08
-1.27555e-06
3.0147e-08
-1.27006e-06
3.95558e-08
-1.25011e-06
5.64056e-08
-1.22146e-06
-1.17947e-06
8.58175e-08
2.23142e-09
-1.15998e-06
1.15626e-08
1.11455e-08
-1.20797e-06
2.02978e-08
-1.2496e-06
2.49865e-08
-1.27426e-06
2.31419e-08
-1.27341e-06
2.18282e-08
-1.27423e-06
2.57341e-08
-1.27396e-06
3.27994e-08
-1.25717e-06
4.52965e-08
-1.23396e-06
-1.20769e-06
7.35153e-08
8.55723e-09
-1.1669e-06
-1.64539e-09
1.34272e-08
-1.21284e-06
2.18949e-08
-1.25807e-06
2.32622e-08
-1.27563e-06
1.93894e-08
-1.26954e-06
1.58929e-08
-1.27074e-06
1.72462e-08
-1.27532e-06
2.10118e-08
-1.26094e-06
2.44058e-08
-1.23735e-06
-1.22031e-06
3.70215e-08
1.36651e-08
-1.1657e-06
-1.48618e-08
1.55451e-08
-1.21472e-06
2.3543e-08
-1.26606e-06
2.07853e-08
-1.27287e-06
1.49295e-08
-1.26368e-06
9.07108e-09
-1.26488e-06
6.99436e-09
-1.27324e-06
9.00372e-09
-1.26295e-06
3.72637e-09
-1.23207e-06
-1.21255e-06
-4.02532e-09
1.60814e-08
-1.15109e-06
-3.06886e-08
1.78171e-08
-1.21645e-06
2.48216e-08
-1.27307e-06
1.8079e-08
-1.26613e-06
1.07009e-08
-1.2563e-06
3.0972e-09
-1.25728e-06
-2.4368e-09
-1.26771e-06
-2.93116e-10
-1.26509e-06
-7.92178e-09
-1.22444e-06
-1.1902e-06
-3.02786e-08
1.11073e-08
-1.11655e-06
-4.56511e-08
2.00128e-08
-1.22536e-06
2.57892e-08
-1.27884e-06
1.60083e-08
-1.25635e-06
7.21962e-09
-1.24752e-06
-1.79131e-09
-1.24826e-06
-1.10503e-08
-1.25845e-06
-5.98136e-09
-1.27016e-06
-7.04818e-09
-1.22338e-06
-1.15352e-06
-4.37257e-08
-2.49827e-09
-1.05675e-06
-5.72974e-08
2.50715e-08
-1.25293e-06
2.68781e-08
-1.28065e-06
1.46544e-08
-1.24412e-06
4.84173e-09
-1.2377e-06
-5.15499e-09
-1.23827e-06
-1.81357e-08
-1.24547e-06
-1.32149e-08
-1.27508e-06
8.62479e-09
-1.24522e-06
-1.09342e-06
-5.14737e-08