/*--------------------------------*- C++ -*----------------------------------*\
  =========                 |
  \\      /  F ield         | OpenFOAM: The Open Source CFD Toolbox
   \\    /   O peration     | Website:  https://openfoam.org
    \\  /    A nd           | Version:  8
     \\/     M anipulation  |
\*---------------------------------------------------------------------------*/
FoamFile
{
    version     2.0;
    format      ascii;
    class       volScalarField;
    location    "4.35";
    object      alpha.water;
}
// * * * * * * * * * * * * * * * * * * * * * * * * * * * * * * * * * * * * * //

dimensions      [0 0 0 0 0 0 0];

internalField   nonuniform List<scalar> 
9150
(
1
1
1
1
1
1
1
1
1
1
1
1
1
1
1
1
1
1
1
1
1
1
1
1
1
1
1
1
1
1
1
1
1
1
1
1
1
1
1
1
1
1
1
1
1
1
1
1
1
1
1
1
1
1
1
1
1
1
1
1
1
1
1
1
1
1
1
1
1
1
1
1
1
1
1
1
1
1
1
1
1
1
1
1
1
1
1
1
1
1
1
1
1
1
1
1
1
1
1
1
1
1
1
1
1
1
1
1
1
1
1
1
1
1
1
1
1
1
1
1
1
1
1
1
1
1
1
1
1
1
1
1
1
1
1
1
1
1
1
1
1
1
1
1
1
1
1
1
1
1
1
1
1
1
1
0.999999
1
1
1
1
0.999987
0.999998
1
1
1
1
1
0.999997
0.999994
0.999995
0.999984
0.999984
0.999996
1
1
1
1
1
0.999995
0.999992
0.999994
0.999999
1
1
1
1
1
0.999993
0.999992
0.999992
1
1
1
1
1
1
1
0.999997
0.999995
0.999998
1
1
1
1
1
1
1
1
1
1
1
1
1
1
1
1
1
1
1
1
1
1
1
1
1
1
1
1
1
0.999993
1
1
1
1
1
1
1
0.999992
0.999989
0.999989
1
1
1
1
1
0.999995
0.999992
0.999992
0.999994
0.999997
1
0.999995
0.99999
0.99999
0.999997
0.999996
0.999998
0.999998
0.999998
0.999998
0.999999
0.99999
0.99999
0.999997
0.999997
0.999997
0.999606
0.993126
0.997382
0.994508
1
1
1
1
0.9999
0.98121
0.964361
0.969403
0.995459
0.99864
1
0.999957
0.972294
0.944981
0.944017
0.944461
0.968827
0.999998
0.998598
0.999488
0.993427
0.943547
0.943438
0.943439
0.943568
0.991826
0.998403
0.999999
0.999999
0.999993
0.9368
0.976433
0.976946
0.985156
0.993292
0.999999
0.999999
0.999999
0.999999
0.999997
0.982759
0.999998
0.999999
0.999999
1
0.999999
0.999999
0.999999
0.999999
0.999965
0.998364
1
1
1
0.999999
0.999997
0.999997
0.999998
0.999998
0.999997
1
1
1
1
0.999999
0.999997
0.999997
0.999998
0.999997
0.999827
1
1
1
1
1
0.999999
0.999997
0.992747
0.948678
0.94417
1
0.993251
0.96502
0.962804
0.988721
0.999972
0.973354
0.943796
0.943796
0.943796
0.967872
0.962534
0.962519
0.962537
0.962646
0.985141
0.992818
0.946676
0.943796
0.973431
0.96251
0.962516
0.962523
0.962523
0.963658
0.990238
0.997215
0.991674
0.986369
0.997622
0.98687
0.997643
0.988488
0.965005
0.986395
0.997215
0.997229
0.997332
0.997415
0.99783
0.997956
0.997956
0.997957
0.997672
0.997305
0.997116
0.997217
0.973007
0.977374
0.99741
0.997893
0.997956
0.997808
0.97446
0.584824
0.400833
0.452802
0.826878
0.996096
0.935511
0.997836
0.913668
0.475885
0.373719
0.38301
0.389077
0.480077
0.95726
0.999537
0.9806
0.622259
0.363946
0.368704
0.373162
0.373978
0.454651
0.940791
0.999841
0.999877
0.99811
0.36886
0.366167
0.369251
0.371709
0.475625
0.953627
0.999841
0.999894
0.999899
0.999919
0.37121
0.369251
0.371776
0.533289
0.981045
0.999814
0.999894
0.999899
0.999912
0.999945
0.370903
0.37136
0.643226
0.995247
0.99656
0.997132
0.992604
0.993927
0.999974
0.999984
0.792444
0.811808
0.969071
0.991239
0.992555
0.96542
0.965175
0.967147
0.995415
0.999999
0.999151
0.998517
0.995026
0.971175
0.965073
0.965079
0.965138
0.964968
0.966037
0.992049
0.99971
0.999557
0.997377
0.970737
0.965073
0.965067
0.965005
0.965022
0.987837
0.999893
0.999752
0.999713
0.999532
0.994528
0.970007
0.965079
0.975497
0.999952
0.99988
0.999894
0.999762
0.999753
0.999713
0.995373
0.990963
0.994499
0.998667
0.999992
0.999959
0.999889
0.999758
0.999006
0.99536
0.995235
0.998004
0.999945
0.999996
0.999998
0.999943
0.999889
0.999737
0.996682
0.995156
0.995163
0.995875
0.999734
1
1
0.999974
0.999888
0.999724
0.997525
0.995155
0.99515
0.995163
0.997263
1
1
0.999999
0.999971
0.999728
0.999459
0.995155
0.995163
0.996028
0.998037
1
1
1
0.999999
0.999692
0.995761
0.999424
0.999708
0.999471
0.999368
1
1
1
1
0.756157
0.891252
0.999854
0.999866
0.999866
0.999843
0.99767
0.995479
0.999166
1
0.564691
0.630297
0.986038
0.999867
0.999871
0.999866
0.99795
0.995443
0.995392
0.996933
0.56381
0.56438
0.731653
0.998115
0.999872
0.999871
0.999768
0.999702
0.999594
0.994781
0.563972
0.563808
0.565389
0.941349
0.999873
0.999872
0.996577
0.983223
0.976964
0.991209
0.563972
0.564458
0.593745
0.956854
0.999873
0.999873
0.989138
0.971535
0.971483
0.971425
0.706869
0.627066
0.826976
0.993386
0.999873
0.999874
0.995153
0.982674
0.979579
0.971421
0.46343
0.827664
0.989038
0.999823
0.999875
0.999872
0.999582
0.999421
0.99931
0.998451
0.216929
0.662494
0.937228
0.999878
0.9999
0.999906
0.999901
0.999912
0.999953
0.999971
0.215995
0.238432
0.576437
0.982476
0.999913
0.999949
0.999995
0.99998
0.999913
0.999913
0.215942
0.215995
0.478237
0.974271
0.999856
0.999993
0.999999
0.999999
0.999941
0.999913
0.215966
0.330233
0.80183
0.994398
0.999798
0.999996
0.999999
0.999999
0.999993
0.999987
0.45822
0.874293
0.996338
0.999441
0.999923
0.999998
0.999999
0.999999
0.999999
0.999999
0.955395
0.999737
0.999974
0.999992
0.999996
0.999999
0.999999
0.999999
0.999998
0.999999
0.999854
0.999983
0.999994
0.999997
0.999999
0.999999
0.999999
0.999999
0.999938
0.999914
0.999961
0.999995
0.999999
0.999999
0.999999
0.999999
0.999999
0.999983
0.999914
0.999914
0.999818
0.999958
0.999999
0.999999
0.999999
0.999999
0.999997
0.999982
0.999991
0.999999
0.999727
0.999924
0.999999
0.999999
0.999994
0.999984
0.999995
0.999999
0.999999
0.999999
0.999827
0.999976
1
0.999998
0.999987
0.999984
0.999993
0.999998
0.999999
0.999999
0.999988
0.999999
1
0.999997
0.999985
0.999984
0.999991
0.999998
0.999999
0.999999
0.999999
1
1
1
0.999995
0.999984
0.999988
0.999998
0.999999
0.999999
0.999999
1
1
1
1
0.999989
0.999985
0.999996
0.999995
0.999987
0.999997
1
1
1
1
0.999973
0.999982
0.999972
0.999918
0.990793
0.999969
0.999998
1
1
1
0.999978
0.999931
0.976754
0.91777
0.960032
0.784438
0.638165
0.737262
0.962887
0.999767
0.978086
0.861639
0.557103
0.693217
0.972068
0.640326
0.636527
0.636527
0.664548
0.71177
0.529343
0.46153
0.464752
0.684942
0.960393
0.64805
0.792723
0.735464
0.45378
0.45378
0.45374
0.45583
0.595388
0.846335
0.85498
0.657816
0.886931
0.917808
0.579696
0.453739
0.500114
0.653521
0.647568
0.475271
0.614616
0.679157
0.923464
0.919669
0.69446
0.483223
0.57867
0.578619
0.191637
0.335554
0.884233
0.781501
0.934548
0.885047
0.636197
0.528563
0.422722
0.116122
0.126998
0.511763
0.977439
0.924394
0.934109
0.852744
0.637592
0.271144
0.114222
0.115172
0.115939
0.745901
0.992276
0.983815
0.867044
0.686148
0.513867
0.114332
0.114202
0.114222
0.310664
0.909831
0.995432
0.852035
0.642398
0.606373
0.266292
0.11583
0.114222
0.11587
0.682077
0.990073
0.997829
0.624182
0.617464
0.537233
0.121961
0.117459
0.115842
0.329244
0.918581
0.995814
0.999081
0.781356
0.705513
0.186067
0.119888
0.117471
0.123034
0.774379
0.993051
0.998561
0.999661
0.80211
0.693907
0.14554
0.1221
0.122501
0.676393
0.991387
0.998209
0.999622
0.99991
0.799451
0.400337
0.141324
0.125158
0.375608
0.929805
0.997251
0.999512
0.99991
0.999982
0.491236
0.158136
0.154435
0.239667
0.873687
0.99696
0.999481
0.999923
0.999989
0.999997
0.244341
0.160394
0.158136
0.82191
0.996704
0.999481
0.999931
0.999986
0.999998
0.999999
0.179184
0.161092
0.530206
0.980484
0.999257
0.999891
0.999985
0.999998
1
0.999999
0.179567
0.229699
0.920105
0.998948
0.999862
0.999985
0.999998
1
1
0.999999
0.175062
0.728992
0.998133
0.999786
0.999984
0.999997
1
1
1
1
0.168403
0.906792
0.9993
0.999927
0.999992
0.999999
1
1
1
1
0.378873
0.960392
0.999696
0.999973
0.999997
0.999999
1
1
1
1
0.407863
0.95071
0.999609
0.999975
0.999998
1
1
1
1
1.00001
0.288213
0.926957
0.999638
0.999976
0.999999
1
1
1
1
1
0.239068
0.92241
0.999751
0.999984
0.999999
1
1
1
1
1
0.243253
0.94464
0.999849
0.999992
0.999999
1
1
1
1
1
0.336568
0.977063
0.999928
0.999997
1
1
1
1
1
1.00001
0.468838
0.993407
0.99997
0.999999
1
1
1
1
1
0.99407
0.581118
0.998729
0.999989
1
1
1
1
1
1
0.916685
0.667226
0.999844
0.999996
1
1
1
1
1
1
0.872267
0.730743
0.999949
0.999999
1
1
1
1
1
1
0.839827
0.770588
0.999931
1
1
1
1
1
1
1
0.81937
0.792292
0.999723
0.999999
1
1
1
1
1
1
0.814608
0.798357
0.999801
0.999999
1
1
1
1
1
0.999959
0.830229
0.801186
0.999993
1
1
1
1
1
1
1.00002
0.85221
0.851367
0.999998
1
1
1
1
1
1
1.00003
0.880215
0.89621
1
1
1
1
1
1
1
1
0.91555
0.949228
1
1
1
1
1
1
1
1
0.955166
1
1
1
1
1
1
0.999987
0.999986
0.999998
1
1
1
1
1
1
1
1
1
1
1
1
1
1
0.999945
0.999684
0.999683
0.999849
1
1
1
1
0.999997
0.999998
1
1
1
0.999998
0.999994
0.999916
0.999888
1
1
1
0.999998
0.999984
0.999984
0.999984
0.999984
0.999993
1
1
1
1
1
0.999999
0.999995
0.999999
1
1
1
1
1
1
0.999995
1
0.999873
0.999556
0.999612
0.999957
0.999999
1
0.999997
0.999995
0.999998
1
0.999999
0.999998
0.999997
0.999978
0.99993
0.999996
1
0.999998
0.999984
0.999984
0.999992
1
0.999999
0.99999
0.999997
1
1
1
1
0.999996
0.999995
0.999997
1
1
1
1
1
1
1
1
0.999934
0.999554
0.999553
0.999782
0.999999
1
0.999998
0.999995
0.999997
0.999999
0.999999
0.999998
0.999998
0.999999
1
0.999996
1
1
0.999991
0.999995
1
1
0.999999
0.999989
0.99999
0.999999
1
1
0.999999
0.999995
0.999996
1
1
1
1
1
0.999999
0.999999
1
1
0.99987
0.999553
0.999553
0.999836
0.999999
1
0.999999
0.999998
0.999998
0.999999
1
1
1
0.999999
1
1
1
0.999996
0.999997
1
1
1
0.999994
0.999989
0.999989
0.999998
1
1
0.999996
0.999995
0.999998
1
1
0.99997
0.999934
0.99998
0.999999
1
1
1
0.999672
0.999554
0.999666
0.999983
1
1
1
1
1
1
0.99426
0.993114
0.999882
1
1
1
1
0.999989
0.999994
1
1
0.999992
0.999989
0.999989
0.999994
0.999999
0.999999
0.999997
0.999996
0.999998
1
1
1
0.999836
0.999815
0.999948
1
1
1
0.999852
0.999614
0.999613
0.999954
1
1
1
1
1
1
0.994206
0.978687
0.978575
0.987827
0.987687
0.983778
0.999999
0.999989
0.999989
0.999999
0.999995
0.99999
0.99999
0.999993
0.999998
0.999998
0.999997
0.999997
0.999998
0.999999
1
1
0.999995
0.999835
0.999815
0.999815
0.999973
1
1
0.999975
0.999677
0.999627
0.999923
1
1
0.999998
0.999998
0.999999
1
0.99596
0.978721
0.978575
0.978575
0.978575
0.978592
0.978613
0.999989
0.999989
0.999993
1
0.999996
0.999994
0.999998
0.999998
0.999994
0.999982
0.999991
0.999999
1
1
1
0.999943
0.999818
0.999814
0.999815
0.999952
0.999999
1
0.999995
0.999805
0.999744
0.999935
1
1
1
0.999914
0.999979
0.999999
1
0.994037
0.979426
0.978575
0.986381
0.978633
0.978612
0.982286
0.999992
0.999997
1
1
0.999999
0.999998
0.999975
0.99997
0.99997
0.999978
0.999998
1
1
0.999982
0.999864
0.999813
0.999813
0.999877
0.999974
0.999999
1
0.999998
0.999846
0.999836
0.999972
1
1
1
0.999394
0.999985
0.999994
0.999999
0.999989
0.997806
0.99573
0.995301
0.995514
0.995315
0.993444
0.998177
1
1
1
0.99992
0.999642
0.99997
0.999968
0.999968
0.999978
0.999997
1
1
0.999956
0.999826
0.999826
0.999847
0.999948
0.999997
0.999999
0.999999
0.999996
0.999857
0.999846
0.999954
0.999998
1
0.995774
0.968743
0.998589
0.999999
0.999999
0.999999
0.999999
0.999517
0.997492
0.990234
0.99033
0.9986
0.998607
0.998607
0.999781
0.994164
0.992871
0.996888
1
0.999985
0.999992
0.999994
0.999999
1
1
0.999989
0.999878
0.999826
0.999956
0.999994
0.999999
0.999999
0.999999
0.99998
0.999855
0.999853
0.999885
0.999992
0.999998
0.988417
0.951417
0.951531
0.98205
0.999999
0.996855
0.979682
0.991448
0.999878
0.989735
0.973557
0.973557
0.980474
0.989971
0.996591
0.989763
0.989764
0.989766
0.999701
1
1
1
0.999999
1
0.999999
0.999995
0.999976
0.999969
0.999991
0.999997
0.999997
0.999997
0.999996
0.999996
0.999896
0.999855
0.999888
0.999947
0.99999
0.975316
0.951415
0.951416
0.951418
0.978209
0.99994
0.975565
0.975585
0.977693
0.999901
0.988437
0.973557
0.973556
0.973556
0.973556
0.989243
0.989763
0.990944
0.999671
1
1
0.999994
0.999967
0.999961
0.999999
0.999999
0.999996
0.999996
0.999996
0.999938
0.99986
0.999861
0.999983
0.999997
0.999994
0.999968
0.999967
0.999967
0.99996
0.976627
0.951415
0.951415
0.951415
0.961913
0.984863
0.98349
0.975132
0.975835
0.997396
0.999907
0.997338
0.988644
0.975833
0.973556
0.973556
0.990059
0.998488
0.999103
0.999988
0.999988
0.999864
0.999848
0.999852
0.999999
0.999999
0.999999
0.999999
0.999949
0.999678
0.999287
0.99945
0.999997
0.999997
0.999997
0.999997
0.999985
0.999979
0.999978
0.997839
0.960054
0.95142
0.951414
0.982923
0.998327
0.98481
0.9813
0.987661
0.999672
0.999972
0.999907
0.99993
0.999911
0.996413
0.987006
0.991632
0.997515
0.99999
0.999979
0.999876
0.999839
0.999839
0.999907
0.999993
0.999998
0.999967
0.995716
0.975766
0.975697
0.997169
0.999969
0.999947
0.999996
0.999892
0.999444
0.999507
0.999955
0.999997
0.999996
0.998722
0.98292
0.977761
0.995439
0.99989
0.99932
0.997987
0.998685
0.999962
0.999972
0.999972
0.999961
0.99993
0.99993
0.999924
0.999914
0.99985
0.999852
0.999832
0.999733
0.999879
0.999891
0.999892
0.999886
0.99934
0.962838
0.937321
0.937595
0.939087
0.994018
0.999969
0.999969
0.999941
0.999414
0.999344
0.999345
0.999616
0.999997
0.999997
0.999954
0.999866
0.999882
0.99989
0.99989
0.99989
0.999947
0.999983
0.999983
0.999974
0.999972
0.99997
0.999882
0.999332
0.999237
0.999817
0.999918
0.99992
0.999876
0.999733
0.999797
0.999879
0.999741
0.9743
0.936428
0.936841
0.937003
0.937138
0.947818
0.999894
0.999824
0.999772
0.999811
0.999431
0.999344
0.999343
0.999839
0.999997
0.999997
0.999993
0.999965
0.99999
0.99996
0.999842
0.999842
0.999845
0.99998
0.999983
0.999983
0.999975
0.999962
0.999867
0.999395
0.999218
0.999218
0.999218
0.999764
0.999981
0.999904
0.999975
0.990261
0.938731
0.934659
0.934931
0.935166
0.978432
0.993436
0.985759
0.995199
0.999896
0.999823
0.999625
0.999662
0.999945
0.999945
0.999945
0.999945
0.999753
0.997549
0.995119
0.998454
0.99999
0.99999
0.999886
0.999842
0.999944
0.999988
0.999984
0.999967
0.999952
0.99991
0.999756
0.99927
0.999218
0.999218
0.999255
0.999806
0.999989
0.999976
0.994663
0.943196
0.934563
0.934548
0.93682
0.993846
0.999786
0.999813
0.999876
0.999896
0.999896
0.999896
0.999896
0.999896
0.999887
0.999902
0.969655
0.858446
0.857238
0.857238
0.916114
0.99999
0.99999
0.99999
0.99999
0.99999
0.99999
0.999988
0.999957
0.999947
0.999912
0.999841
0.999893
0.999918
0.999888
0.999859
0.999929
0.99996
0.99999
0.999991
0.9446
0.944011
0.959021
0.999187
0.997445
0.9991
0.999766
0.999786
0.999642
0.998597
0.910608
0.829754
0.82961
0.829587
0.829547
0.829545
0.829869
0.893199
0.921935
0.903302
0.999868
0.99999
0.99999
0.99999
0.99999
0.99999
0.99999
0.99996
0.999935
0.999947
0.999943
0.999561
0.998106
0.999975
0.99999
0.999991
0.999991
0.999991
0.999991
0.999991
0.950555
0.9875
0.995796
0.999263
0.999256
0.999192
0.994344
0.871359
0.830016
0.829924
0.829924
0.829922
0.829758
0.829603
0.838911
0.977101
0.995053
0.995079
0.995079
0.994581
0.998071
0.999972
0.999968
0.999848
0.99983
0.999952
0.999956
0.99994
0.999928
0.999944
0.999937
0.999834
0.991454
0.983621
0.997405
0.99999
0.999991
0.999991
0.999991
0.999991
0.999175
0.99924
0.999263
0.999263
0.999263
0.999247
0.999024
0.980747
0.849384
0.830045
0.864893
0.973456
0.973649
0.971663
0.949152
0.937201
0.939408
0.964058
0.982584
0.923064
0.833735
0.837307
0.895816
0.916619
0.829145
0.791705
0.826207
0.919868
0.977061
0.992697
0.99918
0.999626
0.992061
0.898518
0.860435
0.968147
0.990015
0.995884
0.995975
0.992944
0.999145
0.99918
0.99924
0.999056
0.986106
0.919288
0.915407
0.915414
0.977543
0.989862
0.984634
0.95809
0.874306
0.594106
0.475746
0.476388
0.478245
0.800601
0.981739
0.949127
0.624313
0.519669
0.51434
0.510583
0.482047
0.482057
0.482056
0.482054
0.641484
0.702748
0.767019
0.847029
0.902525
0.868844
0.757022
0.83782
0.937887
0.975091
0.970063
0.960499
0.99914
0.996887
0.757256
0.546736
0.665637
0.994926
0.998629
0.999167
0.998144
0.965383
0.592316
0.472032
0.471943
0.472075
0.473186
0.484342
0.695601
0.9584
0.997902
0.997837
0.988998
0.732956
0.520778
0.489966
0.482059
0.482059
0.482178
0.485232
0.493865
0.501509
0.508655
0.515898
0.549094
0.682179
0.743827
0.792203
0.865064
0.901791
0.901511
0.897234
0.890715
0.557096
0.546736
0.546736
0.546736
0.596552
0.967166
0.999638
0.999777
0.999721
0.77749
0.472125
0.472075
0.556402
0.939859
0.999949
0.999934
0.999887
0.998181
0.995931
0.99323
0.991942
0.991379
0.961732
0.818726
0.7273
0.72352
0.816232
0.877918
0.891263
0.880368
0.825777
0.71295
0.540885
0.494059
0.484474
0.472701
0.485336
0.491595
0.49035
0.58247
0.550286
0.548021
0.574165
0.93985
0.999502
0.999517
0.99951
0.999787
0.999799
0.999998
0.999983
0.99639
0.999991
0.999988
0.999976
0.999889
0.999406
0.934832
0.837949
0.876045
0.974161
0.988989
0.986293
0.984308
0.981811
0.984238
0.984767
0.984767
0.984767
0.984728
0.984087
0.982982
0.966902
0.816912
0.594374
0.389069
0.345658
0.344467
0.344467
0.823157
0.785157
0.94664
0.991564
0.99814
0.998447
0.998085
0.998117
0.999998
0.999998
0.999998
0.999998
0.999997
0.999996
0.999989
0.999946
0.999678
0.996192
0.845204
0.742296
0.741039
0.739025
0.90302
0.935874
0.884299
0.800624
0.817315
0.954929
0.98003
0.97882
0.940806
0.927806
0.959615
0.958826
0.954149
0.95284
0.901886
0.609735
0.483355
0.451502
0.997854
0.997114
0.99604
0.996015
0.996044
0.993892
0.993952
0.99476
0.999999
0.999998
0.999998
0.999995
0.999945
0.999863
0.999772
0.999705
0.999926
0.999876
0.957072
0.770134
0.739025
0.738268
0.738268
0.738268
0.73884
0.744342
0.749407
0.755786
0.758465
0.771069
0.693178
0.693166
0.718481
0.834993
0.865613
0.881085
0.9031
0.907862
0.910147
0.909648
0.999787
0.996822
0.993876
0.993874
0.993875
0.993875
0.993885
0.996165
0.999999
0.999999
0.999996
0.999855
0.999486
0.999486
0.999486
0.9996
0.999982
1
1
0.999999
0.960109
0.784059
0.739485
0.739692
0.876574
0.989322
0.956849
0.786638
0.725078
0.722354
0.72037
0.706571
0.658456
0.648042
0.645137
0.645142
0.659766
0.67869
0.747573
0.898526
0.999769
0.999412
0.999361
0.999408
0.996122
0.993893
0.995239
1
1
1
0.999987
0.999645
0.999496
0.999486
0.999732
1
1
1
1
1
1
1
1
0.995098
0.996943
0.999982
0.999972
0.999937
0.998462
0.979362
0.999903
0.999973
0.970726
0.891754
0.804501
0.695069
0.591202
0.584437
0.584448
0.616736
0.999927
0.999944
0.999996
0.999998
0.999993
0.999996
1
1
1
1
1
0.99997
0.999828
0.999824
1
1
1
1
1
1
1
1
1
1
0.999999
0.999996
0.999612
0.999142
0.999584
0.999903
0.999973
0.999999
1
1
0.999998
0.999975
0.935619
0.72799
0.58855
0.595433
1
1
0.999999
0.999999
0.999998
0.999993
0.999997
1
1
1
1
1
1
1
1
1
1
1
1
1
1
1
1
1
0.999999
0.999992
0.998797
0.997068
0.997068
0.997162
0.998649
0.999445
1
1
1
0.999998
0.999976
0.999724
0.917092
0.835181
1
1
1
0.999996
0.999992
0.999992
0.999992
0.999997
1
1
1
1
1
1
1
1
1
1
1
1
1
1
1
1
1
1
0.999939
0.998164
0.997076
0.99716
0.997263
0.99882
1
1
0.999999
0.999977
0.995912
0.979494
0.97885
0.977379
0.999631
0.999951
1
0.999999
0.999992
0.999992
0.999992
0.999999
1
1
1
1
1
1
1
1
1
1
1
1
1
1
1
1
1
1
1
1
1
0.999024
0.999087
1
1
1
0.999999
0.999982
0.995133
0.926615
0.898415
0.919253
0.999888
0.999947
1
1
0.999997
0.999992
0.999996
1
1
1
1
1
1
1
1
1
1
1
1
1
1
1
1
1
1
1
1
1
1
1
1
1
1
1
0.999999
0.999993
0.999868
0.945769
0.881628
0.881679
0.999942
1
1
1
1
1
1
1
1
1
1
0.999999
0.999998
0.999998
1
1
1
1
1
1
1
1
1
1
1
1
1
1
1
1
1
1
1
1
1
0.999998
0.999984
0.996562
0.901493
0.881619
0.999888
0.9999
0.999997
1
1
1
1
1
1
1
1
1
0.999999
0.999968
0.999948
0.999999
0.999999
0.999999
0.999999
1
1
1
1
1
1
1
1
1
1
1
1
1
1
1
1
0.999999
0.999991
0.999963
0.973147
0.881712
0.999888
0.999888
0.99996
1
1
0.999997
0.999998
0.999999
0.999999
1
1
0.999999
0.999996
0.999986
0.999546
0.999245
0.999989
0.999985
0.999989
0.999996
0.999998
0.999998
0.999998
0.999998
0.999998
0.999998
0.999999
0.999999
0.999999
1
1
1
1
1
0.999999
0.999998
0.999977
0.99937
0.980779
0.903546
0.999933
0.999945
0.999994
1
0.999998
0.999791
0.999533
0.999469
0.999997
0.999995
0.999996
0.999995
0.99999
0.999949
0.999878
0.995844
0.992189
0.997884
0.999839
0.999936
0.999974
0.99998
0.99998
0.999982
0.999982
0.999984
0.999987
0.999991
0.999994
0.999997
0.999998
1
1
1
1
0.999999
0.999988
0.998233
0.987396
0.989887
1
1
1
1
0.999996
0.999982
0.998356
0.990493
0.985101
0.989547
0.999663
0.999877
0.999923
0.999873
0.999552
0.998646
0.973838
0.915048
0.936369
0.995332
0.999652
0.99974
0.999762
0.999799
0.999816
0.999846
0.999887
0.999922
0.999949
0.999972
0.999989
0.999999
1
1
1
0.999999
0.999995
0.998645
0.991036
0.990898
1
1
1
1
0.999997
0.999998
0.999998
0.999472
0.943125
0.838121
0.807125
0.852814
0.942398
0.973577
0.984056
0.98578
0.978391
0.883761
0.645873
0.599229
0.888353
0.952964
0.972057
0.993191
0.998073
0.998469
0.998945
0.999313
0.999566
0.999774
0.999914
0.999992
1
1
1
0.999999
0.999997
0.999896
0.990099
0.979526
1
1
1
1
1
1
1
1
1
0.841367
0.620701
0.618279
0.618297
0.663779
0.685886
0.681737
0.739259
0.884669
0.780876
0.26843
0.165886
0.313497
0.377955
0.517142
0.66626
0.793836
0.904258
0.974334
0.996704
0.998214
0.999305
0.999944
0.999999
1
0.999999
0.999998
0.999997
0.999984
0.995353
0.979281
0.999637
1
1
1
1
1
1
1
1
1
0.941688
0.779495
0.639597
0.573671
0.567279
0.565779
0.566229
0.79819
0.844604
0.596252
0.0458358
0.00264432
0.00203858
0.00125657
0.0130188
0.0810224
0.206995
0.418185
0.692344
0.905536
0.993715
0.999615
0.999997
0.999999
0.999998
0.999997
0.999996
0.999934
0.998995
0.981192
0.996594
0.99986
1
1
1
1
0.999999
1
1
1
1
0.999999
0.999998
0.954014
0.885222
0.705673
0.63727
0.849459
0.858911
0.639996
0.115098
0.00255894
0.00124231
0.0011267
0.00112658
0.00112265
0.00112874
0.00125188
0.0157013
0.255202
0.648293
0.961554
0.999987
0.999996
0.999967
0.999997
0.999995
0.999832
0.999374
0.996961
0.991134
0.998675
0.999832
0.999993
1
0.999999
0.999999
0.999999
1
1
0.999987
0.999978
0.999972
0.99996
0.99995
0.99995
0.99995
0.99995
0.999948
0.869405
0.238433
0.00235886
0.00114468
0.00112658
0.00112197
0.00112231
0.00112265
0.00113476
0.00124833
0.00212796
0.0666527
0.570264
0.987137
0.999983
0.999759
0.999997
0.999994
0.999804
0.99946
0.993579
0.971421
0.97302
0.994654
0.999953
0.999997
0.999999
0.999999
0.999999
1
0.999999
0.999963
0.99956
0.999352
0.999755
0.99995
0.99995
0.99995
0.999948
0.999915
0.993771
0.361239
0.00179967
0.00112934
0.00112197
0.00112197
0.00111498
0.0011218
0.00112529
0.00184198
0.00524811
0.0192639
0.312119
0.875443
0.999921
0.999737
0.999995
0.99999
0.999913
0.999655
0.990352
0.971421
0.971421
0.984809
0.999952
0.999998
0.999999
0.999999
0.999999
0.99998
0.999525
0.998969
0.998514
0.99856
0.999691
0.999942
0.99995
0.999947
0.999917
0.999686
0.873152
0.18167
0.00116154
0.00111831
0.00112506
0.00112178
0.00111196
0.00106702
0.00205345
0.00633593
0.0738113
0.35838
0.547354
0.833011
0.997841
0.999826
0.999984
0.99999
0.999988
0.999977
0.990352
0.996643
0.997105
0.998545
0.99978
0.999998
0.999998
0.999999
0.999999
0.999132
0.998501
0.998501
0.998501
0.999359
0.999921
0.999934
0.999941
0.999874
0.99939
0.901558
0.312162
0.00581489
0.00112623
0.00113552
0.0011124
0.00111724
0.00111291
0.00259558
0.0339862
0.229478
0.608173
0.920854
0.992729
0.962796
0.995695
0.999923
0.999987
0.99999
0.999989
0.999988
0.996611
0.999997
0.999998
0.999998
0.999998
0.999998
0.999998
0.999999
0.99907
0.998503
0.998502
0.998501
0.999064
0.999935
0.999925
0.999923
0.999814
0.985386
0.730258
0.235489
0.0012118
0.00121014
0.0011823
0.00112447
0.00113648
0.00103846
0.00983317
0.179284
0.546189
0.856395
0.999869
0.999966
0.999981
0.999983
0.999538
0.999877
0.999986
0.999989
0.999988
0.999988
0.999986
0.999916
0.999988
0.999995
0.999998
0.999998
0.999998
0.999359
0.998532
0.998515
0.998532
0.999449
0.999953
0.999942
0.999935
0.999806
0.943888
0.540552
0.11306
0.00115696
0.00116689
0.00123079
0.00118125
0.00128521
0.00140407
0.0763788
0.447401
0.83919
0.998956
0.999888
0.999965
0.99998
0.999983
0.999984
0.999984
0.999983
0.999984
0.999982
0.999985
0.999986
0.997346
0.999928
0.999994
0.999991
0.99978
0.999779
0.999817
0.998953
0.998565
0.999091
0.999958
0.999956
0.999956
0.999953
0.999836
0.886998
0.391069
0.0338669
0.00117298
0.00116349
0.00118371
0.00123267
0.00112715
0.00177651
0.226129
0.692709
0.995052
0.998275
0.999352
0.999782
0.999939
0.999971
0.999981
0.999984
0.999984
0.999984
0.999984
0.999936
0.999898
0.999911
0.995951
0.999994
0.999994
0.999994
0.999424
0.999209
0.999209
0.999824
0.999959
0.999959
0.999959
0.999958
0.999954
0.999841
0.897434
0.299293
0.00117187
0.00117187
0.00116986
0.00117391
0.00119958
0.00120546
0.0593019
0.384451
0.893225
0.974131
0.98523
0.994559
0.998189
0.999355
0.99973
0.999915
0.999973
0.999982
0.999984
0.999984
0.999984
0.999918
0.999858
0.999856
0.99595
0.999991
0.999985
0.999994
0.999921
0.999427
0.999788
0.999949
0.999956
0.99996
0.999957
0.999949
0.999841
0.879974
0.337622
0.00132746
0.00116637
0.00116983
0.00117391
0.00119958
0.0200797
0.175217
0.70835
0.914028
0.922525
0.921991
0.869931
0.89355
0.96769
0.991502
0.99792
0.999492
0.999893
0.999971
0.999981
0.999984
0.999984
0.99993
0.99986
0.999872
0.995952
0.999922
0.999913
0.999953
0.999955
0.999955
0.999946
0.999942
0.999949
0.999925
0.999887
0.995105
0.849439
0.306046
0.0126283
0.00241663
0.00117632
0.00117434
0.0022435
0.0621101
0.55726
0.895436
0.896093
0.904673
0.831924
0.448565
0.174534
0.26737
0.648128
0.959486
0.993016
0.998654
0.99973
0.999925
0.999937
0.999983
0.999984
0.999944
0.99986
0.999902
0.995959
0.999914
0.999916
0.999955
0.999955
0.999946
0.999875
0.999814
0.995943
0.950824
0.865129
0.525247
0.0963847
0.0311554
0.0122037
0.010668
0.00128982
0.00117381
0.118462
0.776927
0.891226
0.891817
0.893907
0.841687
0.245451
0.0917669
0.0914881
0.0909664
0.20116
0.745766
0.986803
0.997718
0.999542
0.999873
0.999934
0.99998
0.999983
0.999929
0.999861
0.99991
0.995996
0.999957
0.999999
0.999974
0.9996
0.976523
0.864906
0.756407
0.567573
0.260384
0.0703468
0.0173597
0.0060925
0.00610314
0.00637532
0.00492754
0.00131308
0.00119209
0.229214
0.827704
0.888882
0.891134
0.869527
0.297184
0.0845811
0.0905336
0.0902931
0.0896566
0.0889086
0.454845
0.962825
0.996965
0.999399
0.999857
0.999961
0.999973
0.999966
0.999905
0.999862
0.999919
0.996309
0.999999
0.999999
0.999846
0.862806
0.531592
0.129062
0.02173
0.0198747
0.0170863
0.0127758
0.0089723
0.00661976
0.00610314
0.00617665
0.00553659
0.00206036
0.00149738
0.0102194
0.543717
0.876098
0.888914
0.445419
0.0866618
0.0786677
0.0917963
0.0922577
0.0881655
0.0889086
0.351784
0.934271
0.996166
0.999255
0.999844
0.999947
0.999963
0.999925
0.999898
0.9999
0.999928
0.996548
0.999999
0.999999
0.994874
0.635515
0.250727
0.174159
0.156821
0.149849
0.168775
0.183594
0.154982
0.0772979
0.0373116
0.032657
0.0221446
0.00901058
0.00698163
0.0449917
0.519934
0.837814
0.572017
0.110696
0.0835647
0.0916119
0.0930542
0.0909568
0.0898529
0.0888885
0.396336
0.942424
0.995795
0.999142
0.999818
0.999935
0.999952
0.999947
0.999939
0.999913
0.999936
0.99662
0.999999
0.999999
0.998143
0.989601
0.977925
0.919585
0.873473
0.88194
0.917249
0.936454
0.905651
0.77076
0.67554
0.671008
0.606567
0.524393
0.612325
0.633794
0.576376
0.416542
0.101978
0.094016
0.0875561
0.0923796
0.0918725
0.0908757
0.0903458
0.165988
0.749257
0.989281
0.997347
0.99938
0.999853
0.999934
0.999947
0.999949
0.99995
0.999915
0.999944
0.99672
0.999999
0.999999
0.999999
0.999998
0.999998
0.999998
0.999997
0.999995
0.999993
0.999988
0.999979
0.999964
0.999945
0.999914
0.999847
0.999744
0.999348
0.691863
0.191076
0.138171
0.1177
0.0979731
0.0943426
0.089597
0.091719
0.0915331
0.166554
0.632168
0.995317
0.998244
0.999493
0.999825
0.999937
0.999945
0.999949
0.99995
0.99995
0.999932
0.999949
0.996801
0.999998
0.999964
0.999992
0.999998
0.999998
0.999997
0.999996
0.999994
0.99999
0.999983
0.999969
0.999954
0.999924
0.999847
0.999744
0.996374
0.949293
0.631989
0.478542
0.562958
0.543174
0.359259
0.282404
0.328643
0.401719
0.627571
0.981191
0.999852
0.999901
0.999929
0.999945
0.99995
0.999949
0.999949
0.99995
0.99995
0.99995
0.99995
0.99995
0.996916
0.999253
0.999692
0.99999
0.999995
0.999992
0.999983
0.999967
0.999947
0.999913
0.999855
0.999755
0.99973
0.996026
0.984751
0.982484
0.911809
0.888345
0.957554
0.991362
0.993751
0.996444
0.969397
0.990885
0.999449
0.999519
0.999605
0.999744
0.999873
0.999923
0.99994
0.999949
0.999949
0.999947
0.999948
0.999949
0.999859
0.999869
0.999949
0.999949
0.997072
0.996049
0.999732
0.99995
0.999942
0.999891
0.99977
0.999504
0.998372
0.992173
0.977899
0.951655
0.957139
0.929232
0.899319
0.898122
0.893233
0.888345
0.944616
0.99424
0.997296
0.998619
0.999219
0.999504
0.999518
0.999536
0.999581
0.999645
0.999649
0.999856
0.999935
0.999941
0.999945
0.999946
0.999947
0.999937
0.999636
0.999603
0.999855
0.999944
0.997113
0.998244
0.999516
0.999622
0.998602
0.991378
0.970883
0.947368
0.934848
0.893871
0.896491
0.898725
0.899008
0.900243
0.911585
0.912495
0.897437
0.895929
0.913036
0.969083
0.996619
0.998304
0.999129
0.999293
0.999474
0.999517
0.999234
0.997398
0.998289
0.999848
0.99991
0.999932
0.99982
0.998527
0.999149
0.99972
0.999606
0.999606
0.999888
0.999934
0.997044
0.995901
0.997894
0.967516
0.936764
0.886525
0.887762
0.888616
0.88897
0.890466
0.894485
0.898822
0.905462
0.936459
0.994661
0.996795
0.960488
0.956643
0.988467
0.99517
0.996727
0.998079
0.998706
0.999087
0.99929
0.999449
0.995621
0.993575
0.99825
0.999733
0.999834
0.998529
0.997741
0.997741
0.998057
0.999662
0.999759
0.999841
0.999915
0.999923
0.996819
0.965108
0.914055
0.875114
0.878889
0.880824
0.884798
0.89268
0.908155
0.940474
0.993368
0.998515
0.998143
0.997553
0.997144
0.996994
0.996755
0.996395
0.995966
0.995491
0.993861
0.991524
0.996072
0.998716
0.999057
0.998842
0.99705
0.986478
0.993113
0.99943
0.999719
0.999284
0.9988
0.998948
0.999412
0.999667
0.999691
0.999905
0.999909
0.999915
0.996726
0.83579
0.835291
0.871547
0.907826
0.936086
0.988996
0.999307
0.999269
0.999068
0.998791
0.998643
0.99848
0.998118
0.997586
0.996951
0.99654
0.996101
0.995708
0.995017
0.992957
0.989763
0.98992
0.992932
0.995586
0.994535
0.982754
0.984776
0.998347
0.999092
0.999412
0.999184
0.999184
0.999193
0.999335
0.997942
0.999587
0.999909
0.999906
0.999903
0.996714
0.838585
0.963445
0.998764
0.99927
0.999306
0.99932
0.999296
0.999275
0.999244
0.999076
0.998694
0.99823
0.997863
0.997053
0.996407
0.994976
0.993855
0.986215
0.971663
0.946451
0.892209
0.841727
0.815754
0.67082
0.566563
0.739729
0.847349
0.699553
0.702615
0.876033
0.997269
0.998212
0.970632
0.971743
0.997944
0.999833