/*--------------------------------*- C++ -*----------------------------------*\
  =========                 |
  \\      /  F ield         | OpenFOAM: The Open Source CFD Toolbox
   \\    /   O peration     | Website:  https://openfoam.org
    \\  /    A nd           | Version:  8
     \\/     M anipulation  |
\*---------------------------------------------------------------------------*/
FoamFile
{
    version     2.0;
    format      ascii;
    class       volScalarField;
    location    "4.35";
    object      epsilon;
}
// * * * * * * * * * * * * * * * * * * * * * * * * * * * * * * * * * * * * * //

dimensions      [0 2 -3 0 0 0 0];

internalField   nonuniform List<scalar> 
9150
(
0.0313131
0.0124353
0.00309602
0.000936116
0.000440707
0.00044056
0.000935724
0.00309486
0.0124333
0.0313137
0.0302221
0.00874301
0.00172914
0.000600357
0.000331277
0.000331198
0.000600171
0.00172845
0.00874144
0.0302224
0.0284249
0.00694018
0.00111468
0.000491366
0.000295955
0.000295901
0.000491272
0.00111432
0.00693897
0.028425
0.0264924
0.0059997
0.000834719
0.000458569
0.000285032
0.000284989
0.000458511
0.000834562
0.0059988
0.0264924
0.0244897
0.00559495
0.000695638
0.000451303
0.000283201
0.000283163
0.000451257
0.000695591
0.00559425
0.0244897
0.12342
0.0520744
0.0222823
0.0135007
0.00958385
0.00959541
0.0135363
0.0223636
0.0522784
0.123485
0.0761066
0.0229554
0.0130059
0.00859648
0.00595222
0.00595627
0.00860988
0.0130347
0.0229802
0.0761052
0.0553452
0.0178456
0.00756156
0.00448737
0.00291751
0.00291842
0.00449108
0.00756879
0.0178487
0.0553424
0.0424976
0.0152002
0.00476136
0.00226711
0.00132281
0.00132283
0.00226757
0.00476215
0.0151976
0.0424965
0.0356069
0.0136942
0.00350363
0.00128899
0.000668842
0.000668706
0.00128871
0.00350277
0.0136912
0.0356066
1.07232
0.162317
0.0480332
0.0208435
0.0122904
0.0121166
0.0202987
0.0479145
0.172615
1.55732
0.276236
0.120946
0.0458156
0.0205217
0.0123299
0.0122243
0.0202171
0.0449315
0.115574
0.280036
0.234458
0.104201
0.044681
0.0202157
0.0123806
0.0123391
0.0201116
0.0444259
0.102359
0.235404
0.196567
0.0914726
0.0438828
0.0199403
0.0124455
0.0124405
0.0199278
0.04385
0.0913436
0.196933
0.155987
0.086035
0.0402224
0.0187431
0.0120805
0.0120931
0.0187809
0.0403183
0.0863943
0.156127
0.0092172
0.00909183
0.00896427
0.00883455
0.00870266
0.00856866
0.00843268
0.00829489
0.00815553
0.00801446
0.00463929
0.00460703
0.00457341
0.00453839
0.00450191
0.00446393
0.0044244
0.00438329
0.00434049
0.0042958
0.003886
0.00387014
0.0038536
0.00383626
0.00381799
0.00379865
0.00377814
0.00375632
0.00373306
0.0037082
0.00372896
0.00371843
0.00370756
0.00369618
0.00368413
0.00367123
0.00365733
0.00364224
0.0036258
0.00360782
0.0037865
0.00377803
0.00376935
0.00376026
0.00375057
0.00374008
0.00372857
0.00371582
0.0037016
0.00368569
0.00396466
0.003957
0.00394912
0.0039408
0.00393181
0.00392189
0.00391077
0.00389814
0.00388373
0.00386727
0.00423297
0.0042258
0.00421826
0.00421013
0.00420114
0.00419095
0.00417917
0.00416538
0.00414919
0.00413031
0.00458354
0.0045772
0.00457023
0.00456241
0.00455344
0.00454286
0.00453008
0.0045144
0.00449526
0.00447237
0.00502071
0.00501621
0.00501069
0.00500402
0.00499587
0.00498564
0.00497233
0.00495469
0.00493175
0.00490327
0.00555887
0.00555806
0.0055557
0.00555183
0.00554621
0.00553812
0.00552599
0.00550732
0.00548015
0.00544448
0.00622418
0.00623016
0.0062339
0.00623556
0.006235
0.00623163
0.00622381
0.00620638
0.00617514
0.00613104
0.00705904
0.00707715
0.00709262
0.00710496
0.0071136
0.00711755
0.00711769
0.0071059
0.00707333
0.00702339
0.00812716
0.0081662
0.00820351
0.00823589
0.00826285
0.00828163
0.00829452
0.00829522
0.00827017
0.00822449
0.00952424
0.00960021
0.00967756
0.00974867
0.00981344
0.00986902
0.00991052
0.00993445
0.0099309
0.0099026
0.0114002
0.0115464
0.0116965
0.0118396
0.0119728
0.0120912
0.012187
0.0122567
0.0122932
0.0122971
0.013973
0.0142508
0.014527
0.0147845
0.0150197
0.0152315
0.0154117
0.0155555
0.015658
0.0157187
0.017551
0.0180095
0.018462
0.0188893
0.0192797
0.0196312
0.0199401
0.0202036
0.020418
0.0205821
0.0224418
0.0231398
0.0238261
0.0244845
0.0250991
0.0256637
0.0261789
0.0266455
0.027061
0.0274217
0.028888
0.0299074
0.0309161
0.031899
0.0328338
0.0337125
0.0345467
0.0353448
0.0361055
0.0368199
0.0370378
0.0384793
0.0399375
0.0413934
0.0428046
0.044151
0.045465
0.0467717
0.0480707
0.0493583
0.0469697
0.0489553
0.0510217
0.053149
0.0552751
0.0573429
0.0593689
0.0613914
0.0634102
0.065468
0.0586747
0.0613737
0.0642547
0.0672992
0.0704248
0.0735097
0.0765022
0.0794094
0.0822348
0.0850738
0.0720578
0.0756926
0.0796703
0.0839448
0.088395
0.0928112
0.0970013
0.100862
0.104397
0.107817
0.0870124
0.0917749
0.0970883
0.102908
0.109051
0.115148
0.120663
0.125238
0.128934
0.132273
0.103425
0.10952
0.116331
0.123821
0.131737
0.13932
0.145508
0.149933
0.152884
0.155381
0.120568
0.128078
0.136199
0.14455
0.152784
0.160238
0.165869
0.169068
0.171282
0.173978
0.136589
0.145023
0.153613
0.160706
0.166262
0.172116
0.177587
0.181313
0.18487
0.189202
0.149952
0.157585
0.163718
0.169038
0.175008
0.18162
0.187711
0.193371
0.199189
0.205536
0.15898
0.164783
0.17048
0.177213
0.18492
0.192803
0.20071
0.208644
0.216723
0.225114
0.166529
0.172621
0.179803
0.18827
0.19747
0.20712
0.217052
0.22711
0.23728
0.247627
0.176023
0.183259
0.1918
0.201652
0.212393
0.22373
0.235447
0.247381
0.259437
0.271631
0.187135
0.195506
0.205208
0.216226
0.228242
0.240974
0.25424
0.267868
0.281708
0.295706
0.198836
0.208345
0.219132
0.231163
0.244258
0.258207
0.272829
0.287952
0.30341
0.319093
0.210413
0.2211
0.232974
0.24602
0.260132
0.275158
0.290941
0.307324
0.324148
0.341286
0.221283
0.233124
0.246059
0.26009
0.275155
0.291143
0.307924
0.325365
0.343328
0.361691
0.230902
0.2438
0.257709
0.272643
0.288562
0.305386
0.323014
0.341337
0.360239
0.379616
0.238856
0.252651
0.267382
0.283071
0.299696
0.317205
0.335522
0.35456
0.37423
0.39445
0.24492
0.259413
0.274769
0.291021
0.308168
0.326182
0.345012
0.364596
0.38487
0.405776
0.249085
0.264075
0.279843
0.296445
0.313906
0.332222
0.351369
0.371311
0.392009
0.41343
0.251599
0.266923
0.282911
0.299657
0.317219
0.335622
0.354869
0.374951
0.395857
0.417579
0.25297
0.268564
0.28465
0.301369
0.318837
0.33711
0.356227
0.376213
0.397087
0.418867
0.253826
0.269861
0.286093
0.302705
0.319929
0.33789
0.356677
0.376359
0.396989
0.418623
0.255061
0.27214
0.288877
0.305404
0.322278
0.339779
0.358086
0.377324
0.397588
0.418982
0.258859
0.27725
0.294962
0.311539
0.328015
0.344985
0.362735
0.381473
0.401365
0.422585
0.26667
0.28671
0.30557
0.322403
0.33858
0.355129
0.372433
0.390804
0.41051
0.431831
0.279559
0.301561
0.321221
0.338262
0.354293
0.370604
0.387693
0.406049
0.42606
0.44811
0.297858
0.322011
0.342073
0.359028
0.37482
0.390874
0.407872
0.426524
0.447439
0.471199
0.324712
0.351109
0.370167
0.385751
0.400316
0.41563
0.43276
0.452472
0.475406
0.502193
0.363227
0.391607
0.406567
0.418769
0.431184
0.445804
0.463721
0.485551
0.511795
0.54303
0.409466
0.43712
0.446746
0.454453
0.465439
0.480963
0.501345
0.526871
0.557881
0.59473
0.448714
0.470831
0.478027
0.485597
0.4993
0.519132
0.54465
0.575919
0.613253
0.65684
0.471304
0.48584
0.496276
0.511397
0.53276
0.559998
0.592847
0.63148
0.67622
0.727359
0.476459
0.494301
0.514599
0.539435
0.569451
0.604777
0.645555
0.692104
0.74456
0.803402
0.482786
0.509053
0.538119
0.571123
0.608853
0.651743
0.700099
0.754224
0.81422
0.880507
0.494003
0.526467
0.562043
0.601707
0.646141
0.695795
0.751008
0.8119
0.878753
0.951886
0.502538
0.53969
0.580394
0.625348
0.675101
0.730079
0.790598
0.856862
0.92923
1.00802
0.504838
0.545188
0.589211
0.637448
0.69038
0.748413
0.811872
0.88115
0.956701
1.03894
0.499901
0.541517
0.586754
0.636061
0.689873
0.748601
0.812655
0.882588
0.958935
1.04219
0.487809
0.529216
0.574205
0.6232
0.67666
0.735078
0.79909
0.869303
0.946249
1.03031
0.470489
0.511172
0.555643
0.604417
0.658127
0.717548
0.783574
0.856901
0.937984
1.02689
0.451601
0.492278
0.537482
0.587996
0.644889
0.709576
0.783321
0.867091
0.961221
1.0651
0.436176
0.479149
0.528349
0.585102
0.651406
0.72977
0.822468
0.93118
1.05584
1.19374
0.430132
0.479812
0.539103
0.610251
0.697055
0.804054
0.935912
1.09586
1.28195
1.4837
0.440519
0.50421
0.584207
0.684205
0.811244
0.97372
1.18134
1.43971
1.73652
2.03395
0.476014
0.565418
0.683601
0.837127
1.03944
1.30799
1.66061
2.09865
2.55435
2.93718
0.543883
0.673456
0.854375
1.1046
1.44289
1.9077
2.51423
3.19152
3.77537
4.2065
0.647297
0.836442
1.1101
1.50682
2.06442
2.8177
3.72631
4.63406
5.37447
5.84013
0.792527
1.06534
1.46956
2.06612
2.9221
4.04847
5.3452
6.65343
7.57891
7.75878
1.0032
1.40022
2.00229
2.90416
4.20294
5.90532
7.90844
9.8203
10.2597
9.44359
1.33621
1.92954
2.84181
4.21882
6.2284
8.98127
12.2483
13.7851
12.3371
10.5341
1.86293
2.76939
4.17111
6.30478
9.49345
13.8161
17.0904
16.0403
13.2712
10.9212
2.67098
4.04352
6.15679
9.36063
14.1073
19.2411
19.8421
16.5942
13.2814
10.6982
3.81185
5.80148
8.83243
13.3877
19.4427
23.014
20.4448
16.0965
12.6195
10.0212
5.37232
8.16897
12.4112
18.6804
24.569
23.9041
19.1348
14.7662
11.4694
9.05458
7.34194
11.133
16.8279
23.7867
26.2134
22.1781
17.0375
13.0365
10.0969
7.99293
9.75387
14.7219
21.8563
27.5719
24.9641
19.3612
14.7122
11.2318
8.72361
6.99805
12.8686
19.2557
26.5944
27.3196
21.8314
16.5351
12.486
9.53605
7.48551
6.17613
17.1759
24.9054
28.7949
24.3481
18.5152
13.8953
10.4726
8.04701
6.46651
5.59714
21.7082
28.6158
26.7176
20.6897
15.5679
11.6475
8.77471
6.83344
5.72092
5.30613
26.1232
28.8991
23.4609
17.8074
13.2854
9.84644
7.40281
5.90755
5.26813
5.32613
29.0238
27.5172
21.2596
15.8564
11.6012
8.42037
6.31348
5.25415
5.11035
5.66915
32.0374
26.6441
20.0664
14.5534
10.2702
7.22112
5.4378
4.84829
5.24222
6.34111
37.1029
27.7191
19.7014
13.5787
9.09316
6.15672
4.74293
4.67533
5.65403
7.34254
40.4409
28.3879
19.2171
12.5732
7.95149
5.20124
4.22051
4.71551
6.3215
8.66833
43.3379
29.1412
18.8762
11.6939
6.9338
4.39341
3.86173
4.92619
7.19847
10.3092
48.2666
30.7354
18.8729
10.9793
6.0367
3.71089
3.61668
5.23583
8.22028
12.2556
53.3189
32.3134
18.8018
10.2303
5.16674
3.09937
3.42033
5.55962
9.3041
14.4835
56.9512
33.0593
18.2765
9.28252
4.26798
2.52897
3.21903
5.80952
10.3367
16.9175
58.6642
32.6776
17.1653
8.10396
3.3528
1.99973
2.97553
5.89634
11.1522
19.3419
57.6878
30.901
15.43
6.72393
2.46414
1.52406
2.66981
5.74032
11.5288
21.3081
54.7062
28.2112
13.3118
5.26955
1.67174
1.11875
2.30209
5.29592
11.2377
22.1424
50.5881
25.0094
11.02
3.86936
1.034
0.792653
1.89276
4.58192
10.1463
21.0457
45.9016
21.5932
8.73608
2.64203
0.579256
0.542561
1.47684
3.69986
8.4028
18.012
41.1074
18.1538
6.5857
1.66243
0.294131
0.356244
1.09104
2.79532
6.37652
13.661
36.2987
14.6639
4.63431
0.952974
0.137439
0.220184
0.761097
1.99832
4.54969
9.65838
30.4904
11.0331
2.96343
0.493656
0.0617482
0.124327
0.495378
1.35305
3.07381
6.41596
23.5318
7.40555
1.64767
0.226431
0.0290547
0.0623563
0.293756
0.862034
1.96316
3.99571
14.5984
3.9224
0.734122
0.0921729
0.0169148
0.0286293
0.152396
0.508612
1.18155
2.29061
6.23324
1.59089
0.276428
0.0404914
0.0133098
0.0152822
0.0659582
0.268796
0.688266
1.21164
1.4691
0.5265
0.0983762
0.0242198
0.012416
0.0122913
0.0273641
0.116542
0.410057
0.770809
0.00785918
0.00770168
0.00754355
0.00738502
0.00722614
0.00706671
0.00690635
0.00674451
0.00658046
0.00641328
0.00624209
0.00606611
0.00588482
0.00569802
0.00550597
0.0053094
0.00510954
0.004908
0.0047066
0.00450711
0.00431089
0.00411849
0.00392953
0.00374974
0.000885693
0.00374442
0.00374575
0.000884908
0.000885202
0.000885645
0.000886083
0.000884565
0.00374271
0.000885994
0.000864092
0.000803373
0.000710944
0.000594955
0.000463026
0.000828376
0.00424576
0.00419268
0.0041378
0.00408105
0.00402238
0.00396174
0.00389905
0.00383411
0.00376677
0.00369685
0.00362415
0.00354847
0.00346963
0.00338752
0.0033021
0.0032135
0.00312197
0.00302793
0.00293193
0.00283456
0.00273636
0.00263756
0.00253735
0.00243156
0.00229685
0.00218634
0.00207178
0.00194806
0.00183241
0.00171031
0.00158834
0.00146589
0.00133378
0.00117062
0.00103233
0.000920746
0.000828906
0.000768461
0.000797759
0.00127702
0.00367988
0.00364846
0.00361487
0.00357899
0.00354072
0.00349996
0.00345665
0.00341074
0.00336215
0.00331082
0.00325671
0.00319975
0.00313992
0.00307719
0.00301158
0.00294318
0.00287216
0.00279874
0.00272322
0.00264593
0.00256711
0.00248687
0.00240489
0.00232009
0.00223069
0.00213848
0.00204362
0.00194579
0.00184488
0.0017414
0.00163526
0.00152684
0.00141693
0.00130754
0.00120532
0.00111908
0.00105699
0.00104195
0.00115536
0.00193129
0.00358687
0.00356278
0.00353625
0.00350712
0.00347526
0.00344059
0.00340309
0.00336276
0.00331962
0.00327369
0.00322498
0.00317351
0.00311928
0.00306232
0.00300265
0.00294033
0.00287549
0.0028083
0.00273895
0.00266767
0.00259463
0.00251996
0.00244361
0.00236528
0.00228445
0.00220081
0.00211401
0.00202365
0.00192944
0.00183166
0.00173135
0.00163052
0.00153229
0.00144122
0.0013638
0.00130816
0.00128436
0.00131921
0.00152852
0.00261065
0.00366678
0.0036444
0.00361922
0.00359108
0.00355986
0.00352555
0.0034882
0.00344792
0.00340482
0.00335901
0.00331054
0.00325947
0.00320579
0.0031495
0.00309059
0.00302907
0.002965
0.00289851
0.0028298
0.00275909
0.0026866
0.00261257
0.00253722
0.00246058
0.0023824
0.00230223
0.00221941
0.00213311
0.00204261
0.00194786
0.00185006
0.00175185
0.00165751
0.00157323
0.00150778
0.00147213
0.00148561
0.00157792
0.00187349
0.00326821
0.00384736
0.00382337
0.0037961
0.00376537
0.00373114
0.00369352
0.00365272
0.003609
0.00356261
0.00351375
0.00346251
0.00340892
0.00335293
0.00329445
0.00323337
0.00316961
0.00310317
0.00303412
0.00296267
0.00288914
0.00281384
0.00273723
0.00265984
0.00258206
0.00250402
0.00242539
0.00234528
0.00226222
0.00217462
0.00208181
0.00198483
0.00188661
0.00179199
0.00170817
0.00164487
0.00161555
0.00165162
0.00179064
0.00214763
0.00365555
0.00410719
0.00407905
0.00404695
0.00401076
0.00397055
0.00392662
0.00387945
0.00382954
0.00377732
0.00372306
0.00366687
0.00360869
0.00354835
0.00348559
0.00342018
0.00335191
0.00328067
0.0032065
0.00312963
0.00305043
0.00296941
0.00288728
0.00280495
0.00272333
0.00264311
0.00256439
0.00248618
0.00240598
0.00232047
0.00222791
0.0021296
0.00202944
0.00193316
0.00184892
0.00178736
0.00176343
0.00180402
0.00194568
0.00232059
0.00388767
0.00444401
0.00440936
0.00436993
0.00432559
0.00427653
0.00422342
0.00416714
0.00410855
0.00404827
0.00398662
0.00392365
0.00385911
0.0037926
0.00372365
0.00365184
0.00357682
0.00349841
0.0034166
0.00333165
0.00324401
0.00315435
0.00306367
0.00297331
0.0028848
0.00279964
0.00271887
0.00264193
0.00256482
0.00248061
0.00238581
0.0022836
0.00218069
0.00208369
0.0020006
0.0019421
0.00192329
0.00197125
0.00212347
0.00251069
0.00410273
0.00486749
0.00482386
0.00477464
0.00471945
0.00465858
0.00459333
0.00452524
0.00445554
0.00438507
0.00431411
0.00424251
0.00416972
0.00409497
0.00401748
0.00393662
0.003852
0.00376341
0.00367094
0.00357494
0.00347597
0.00337486
0.00327287
0.00317164
0.00307324
0.00298009
0.0028947
0.00281819
0.00274534
0.00266198
0.00256137
0.002452
0.00234623
0.00225087
0.00217208
0.0021206
0.00211079
0.00217362
0.00236314
0.0028246
0.00438764
0.00539895
0.00534376
0.00528237
0.00521369
0.00513803
0.00505779
0.00497527
0.00489207
0.00480912
0.00472663
0.00464409
0.00456045
0.0044744
0.00438478
0.00429086
0.00419239
0.00408943
0.0039823
0.00387159
0.00375808
0.0036428
0.00352719
0.00341314
0.0033031
0.00320004
0.00310748
0.00302867
0.00295977
0.0028804
0.00277168
0.00265283
0.00254452
0.00245314
0.00238269
0.00234228
0.00234165
0.00241858
0.00264794
0.00319982
0.00491847
0.0060742
0.00600579
0.00593069
0.00584683
0.0057544
0.00565708
0.00555769
0.00545818
0.00535972
0.0052625
0.00516556
0.00506706
0.00496486
0.00485738
0.00474407
0.00462523
0.00450167
0.00437433
0.00424423
0.00411238
0.0039799
0.00384836
0.00371998
0.00359791
0.00348582
0.00338714
0.0033055
0.00324164
0.00316733
0.00304769
0.00292104
0.00280939
0.00271837
0.00265191
0.0026217
0.00262886
0.00270463
0.00294839
0.0035946
0.00564008
0.00695804
0.00687804
0.0067892
0.00668948
0.00657894
0.00646185
0.00634163
0.00622108
0.00610205
0.00598497
0.00586833
0.00574895
0.00562325
0.00548931
0.00534748
0.00519953
0.00504773
0.00489418
0.00474053
0.00458797
0.00443752
0.0042906
0.00414973
0.00401895
0.0039024
0.00380317
0.00372364
0.00365568
0.00356306
0.00343119
0.00330013
0.00318442
0.00308057
0.0029959
0.00295217
0.00296116
0.00304752
0.00329635
0.00396702
0.00632809
0.00815919
0.00807276
0.00797162
0.00785556
0.00772507
0.0075841
0.00743714
0.00728853
0.00714156
0.00699754
0.00685421
0.00670619
0.00654718
0.0063752
0.00619341
0.00600643
0.00581898
0.00563494
0.0054568
0.00528571
0.00512212
0.00496677
0.00482155
0.00468987
0.00457208
0.00446518
0.00436811
0.00427028
0.00414903
0.00399942
0.00384765
0.00370475
0.00357132
0.00345782
0.00338319
0.00336597
0.00343984
0.0036816
0.00434863
0.00682244
0.00984825
0.00976321
0.00965427
0.00952265
0.00937009
0.00920046
0.00901966
0.00883457
0.0086508
0.00847245
0.00829553
0.00811063
0.00790767
0.00768551
0.0074533
0.00721979
0.00699281
0.00677888
0.00658176
0.00640207
0.00623843
0.00608923
0.00595377
0.00582997
0.00570835
0.00558212
0.00544997
0.00530179
0.00512582
0.00492172
0.00470839
0.00449831
0.00429751
0.00411761
0.0039739
0.00388893
0.00390002
0.00409908
0.00477038
0.00719848
0.0122673
0.0121978
0.0120925
0.0119534
0.011783
0.0115844
0.0113659
0.011138
0.010909
0.0106921
0.0104822
0.0102576
0.010007
0.00973368
0.00945216
0.00917472
0.00891351
0.00868012
0.00848159
0.00831735
0.0081802
0.00805998
0.00794529
0.00782381
0.00768745
0.00753474
0.00735362
0.00712363
0.00683749
0.00650568
0.00615631
0.00580363
0.00545712
0.00513317
0.00485072
0.004638
0.00454034
0.00465884
0.00529439
0.00779165
0.0157399
0.0157142
0.0156413
0.0155214
0.0153578
0.0151483
0.0149095
0.0146593
0.0144073
0.0141732
0.013951
0.0137045
0.0134266
0.0131261
0.0128161
0.0125116
0.0122328
0.0120032
0.0118401
0.0117407
0.0116827
0.0116378
0.0115746
0.0114552
0.0112677
0.0110111
0.0106725
0.0102422
0.00972228
0.0091379
0.00852078
0.00788829
0.00726149
0.00666872
0.00614244
0.00571922
0.00544783
0.00542602
0.00595171
0.00845401
0.0207039
0.0207787
0.0207991
0.0207623
0.0206778
0.0205382
0.0203525
0.0201633
0.0199663
0.01977
0.019573
0.0193654
0.0191362
0.0188778
0.0185977
0.0183162
0.0180631
0.0178846
0.0178256
0.0178762
0.0179793
0.0180369
0.0179293
0.0176426
0.0171956
0.0166149
0.0159215
0.0151252
0.0142301
0.0132462
0.0121904
0.0110874
0.00997854
0.00892285
0.00798544
0.0072248
0.00669781
0.00649538
0.0068543
0.0088478
0.0277485
0.0280501
0.0283107
0.0285145
0.0286714
0.0287647
0.0287747
0.0287509
0.0287097
0.0286274
0.0285391
0.028477
0.0284233
0.028332
0.0282072
0.0280842
0.0279883
0.0279771
0.0281316
0.0283935
0.028568
0.0284398
0.0279254
0.027097
0.0260338
0.024824
0.0235365
0.0221935
0.0207728
0.0192366
0.0175609
0.0157576
0.0138924
0.0120873
0.0104843
0.00919481
0.00829666
0.00791494
0.00850172
0.00877874
0.037542
0.0383052
0.0390685
0.0397911
0.0404452
0.0409855
0.0413804
0.041694
0.0419359
0.0420774
0.0421816
0.042367
0.0426056
0.0427926
0.0429848
0.0432904
0.0437033
0.0442108
0.0447308
0.0448338
0.0443493
0.0433298
0.041879
0.0400816
0.038025
0.0358809
0.0337877
0.0317646
0.0297186
0.0275174
0.0250604
0.0223116
0.019342
0.0163815
0.0137433
0.0116483
0.0101814
0.00943351
0.00988195
0.00877501
0.0507253
0.0522665
0.0538662
0.0554406
0.0568904
0.0581335
0.0591026
0.059913
0.0606025
0.0611245
0.0615847
0.0621602
0.0628048
0.0634252
0.0641754
0.0651671
0.0661326
0.0669727
0.0672246
0.0664401
0.0647622
0.0625552
0.0599841
0.0569874
0.0536542
0.050326
0.0472594
0.0444484
0.0416736
0.0386726
0.0352773
0.0313809
0.0269534
0.0223099
0.0181181
0.014867
0.0126284
0.0113594
0.0115621
0.0375232
0.0677168
0.0702953
0.0730503
0.0758303
0.0784086
0.0806036
0.0824015
0.0839508
0.0852844
0.0863474
0.0873605
0.0885704
0.0898385
0.090952
0.0920565
0.093495
0.0950649
0.0960133
0.0953059
0.0928814
0.0896091
0.0862475
0.0827074
0.0785827
0.0739336
0.069359
0.0652339
0.0614923
0.0577599
0.0536722
0.0491501
0.0441154
0.0382617
0.0315121
0.025052
0.0201999
0.0170773
0.015349
0.0150635
0.0376643
0.0882238
0.0919549
0.0961136
0.100466
0.104518
0.107933
0.11075
0.113156
0.115171
0.116665
0.117963
0.119571
0.121307
0.122818
0.124597
0.127011
0.12928
0.129655
0.127412
0.123473
0.119119
0.115003
0.110705
0.10574
0.100301
0.095043
0.0900594
0.0852118
0.0801511
0.0745451
0.0686406
0.0626675
0.0561729
0.0482076
0.038665
0.0316432
0.0273104
0.0247533
0.024273
0.0373711
0.111615
0.116257
0.121683
0.12761
0.133121
0.137577
0.140981
0.14355
0.145413
0.146797
0.148304
0.150405
0.15294
0.155679
0.159005
0.162558
0.163924
0.161382
0.157116
0.153413
0.150674
0.147643
0.143251
0.137946
0.132848
0.12829
0.123561
0.118077
0.111564
0.104506
0.0972788
0.0903632
0.0837681
0.0768288
0.0661357
0.0555675
0.0474906
0.0410673
0.038119
0.0560372
0.136018
0.140869
0.146969
0.154009
0.160194
0.164457
0.167672
0.17027
0.172572
0.174858
0.177656
0.181117
0.184696
0.187874
0.190704
0.192306
0.191374
0.188265
0.184861
0.182133
0.180059
0.178197
0.175773
0.172011
0.167916
0.164126
0.160037
0.155266
0.149548
0.143119
0.136138
0.128124
0.120964
0.114427
0.104854
0.090346
0.0767115
0.0656612
0.0611284
0.103831
0.158654
0.163372
0.169422
0.176557
0.183174
0.187959
0.191481
0.194784
0.19841
0.202536
0.207407
0.212868
0.217649
0.220661
0.222141
0.222269
0.220936
0.218479
0.215909
0.213914
0.212541
0.211279
0.209417
0.206709
0.203652
0.200318
0.196699
0.192333
0.186437
0.179216
0.171522
0.164565
0.158771
0.152911
0.144575
0.129079
0.110659
0.0947784
0.0887096
0.154805
0.177855
0.183348
0.190053
0.197362
0.203982
0.209672
0.214906
0.219951
0.225198
0.230832
0.23682
0.24282
0.248161
0.252506
0.255528
0.256985
0.256859
0.255628
0.254128
0.252954
0.25223
0.251398
0.249736
0.247358
0.244435
0.241087
0.237237
0.23225
0.225443
0.216918
0.207408
0.197906
0.188311
0.177916
0.167345
0.155956
0.142228
0.127187
0.11898
0.167831
0.194596
0.201368
0.209081
0.217354
0.225452
0.233042
0.240244
0.247209
0.254157
0.261164
0.268145
0.274854
0.280973
0.286319
0.290678
0.293852
0.295879
0.297121
0.298129
0.299121
0.29965
0.298973
0.297242
0.295078
0.292591
0.289728
0.286018
0.280714
0.273497
0.264463
0.253852
0.242408
0.230582
0.217695
0.204118
0.190087
0.175427
0.162495
0.159357
0.173939
0.212743
0.221174
0.230324
0.239932
0.249598
0.259054
0.268263
0.277201
0.285906
0.294369
0.302508
0.310169
0.317192
0.323479
0.328967
0.333641
0.337592
0.341037
0.344241
0.347211
0.349359
0.350113
0.349697
0.348348
0.346449
0.344069
0.340749
0.335753
0.329522
0.322256
0.314056
0.304052
0.292003
0.278829
0.264437
0.2492
0.233553
0.218745
0.222355
0.304483
0.234231
0.244463
0.255207
0.266301
0.27752
0.288669
0.299637
0.310307
0.320616
0.330504
0.339892
0.348682
0.356789
0.364167
0.370808
0.376753
0.382096
0.386973
0.391487
0.395601
0.399023
0.401409
0.402429
0.401956
0.400375
0.398091
0.395325
0.391916
0.387395
0.381807
0.375485
0.368078
0.359059
0.348639
0.336234
0.320585
0.303842
0.286791
0.293952
0.480525
0.258628
0.270698
0.283137
0.295832
0.308632
0.321378
0.333942
0.346195
0.358031
0.36936
0.380102
0.390186
0.399556
0.408189
0.416092
0.423301
0.429877
0.435883
0.441336
0.446144
0.450052
0.452771
0.45416
0.454438
0.453896
0.452516
0.449857
0.44577
0.440553
0.434967
0.429264
0.422768
0.414795
0.405616
0.395401
0.384427
0.373321
0.362521
0.371115
0.667009
0.28449
0.298447
0.312682
0.327094
0.341555
0.355929
0.370089
0.383924
0.397313
0.410159
0.422382
0.433918
0.444722
0.454769
0.464056
0.472593
0.480393
0.487458
0.493741
0.49913
0.503448
0.506544
0.5084
0.509179
0.509015
0.507776
0.505075
0.50081
0.495341
0.489187
0.482479
0.474729
0.46545
0.454866
0.443444
0.431894
0.421422
0.416282
0.432583
0.65591
0.310426
0.32632
0.342433
0.358661
0.374883
0.390974
0.406813
0.422309
0.437349
0.451838
0.465699
0.478868
0.491293
0.502937
0.513773
0.523776
0.53292
0.541162
0.548437
0.55465
0.559685
0.563455
0.565944
0.567216
0.567323
0.566201
0.563699
0.559765
0.554547
0.548265
0.540986
0.532531
0.522707
0.511626
0.499656
0.48738
0.476195
0.470798
0.489164
0.699894
0.335587
0.353364
0.371342
0.389403
0.40743
0.425306
0.442918
0.460192
0.477031
0.493352
0.509081
0.52415
0.538501
0.552074
0.564815
0.576661
0.587547
0.597395
0.606119
0.613624
0.61982
0.624641
0.628063
0.630104
0.63079
0.630118
0.628062
0.624631
0.619899
0.613961
0.606861
0.598558
0.589006
0.578256
0.566498
0.554164
0.542604
0.536747
0.558355
0.780253
0.359364
0.378865
0.398591
0.418418
0.438233
0.457928
0.477404
0.496602
0.515451
0.533885
0.551839
0.569249
0.586045
0.602148
0.617466
0.631892
0.645306
0.657573
0.668558
0.678127
0.686168
0.692601
0.697391
0.700548
0.702116
0.702151
0.700712
0.697872
0.693716
0.688324
0.68175
0.674003
0.665086
0.655052
0.644097
0.632764
0.622749
0.619505
0.646851
0.898257
0.381128
0.402146
0.423458
0.444947
0.46651
0.488056
0.509509
0.530832
0.551992
0.572956
0.593683
0.614122
0.634203
0.653826
0.672856
0.691117
0.708393
0.724439
0.738998
0.751827
0.762719
0.771536
0.778217
0.782789
0.785352
0.786062
0.785095
0.782633
0.778842
0.77386
0.767785
0.760667
0.752528
0.743421
0.73356
0.723647
0.715969
0.717806
0.757154
1.04376
0.400212
0.422557
0.44531
0.46837
0.491657
0.515114
0.538705
0.562427
0.58631
0.610379
0.634653
0.659124
0.68375
0.708428
0.732973
0.757105
0.780444
0.802524
0.82283
0.840855
0.856168
0.868469
0.877636
0.883734
0.887003
0.887795
0.886517
0.88357
0.879312
0.874033
0.867943
0.861173
0.853797
0.845896
0.837708
0.830037
0.825502
0.833145
0.888746
1.22088
0.416042
0.439564
0.463645
0.488216
0.513237
0.538698
0.564623
0.591074
0.618175
0.646061
0.674865
0.704702
0.735627
0.767594
0.800399
0.833633
0.866656
0.898598
0.928414
0.955014
0.97743
0.99498
1.00737
1.01475
1.01765
1.01687
1.01328
1.00773
1.00096
0.993553
0.985954
0.978456
0.971252
0.964508
0.958534
0.954236
0.954513
0.969704
1.04394
1.44801
0.428222
0.452792
0.478107
0.504143
0.530916
0.558484
0.586929
0.616434
0.647257
0.679702
0.714123
0.75089
0.790328
0.832608
0.877634
0.924935
0.973557
1.02197
1.06812
1.10961
1.14422
1.17031
1.18711
1.19489
1.19485
1.18877
1.17855
1.16592
1.15232
1.13888
1.12642
1.11549
1.10648
1.09969
1.09556
1.09521
1.10197
1.12784
1.22774
1.73071
0.436571
0.46204
0.488469
0.51589
0.54439
0.574113
0.605223
0.638056
0.673022
0.710659
0.751673
0.796916
0.847294
0.903542
0.966008
1.03449
1.108
1.18427
1.25946
1.32835
1.38565
1.42731
1.45119
1.45748
1.44888
1.42962
1.40391
1.37528
1.34644
1.31941
1.29557
1.27583
1.26077
1.25086
1.24675
1.24993
1.26466
1.30558
1.44066
2.08133
0.441208
0.467366
0.494716
0.523362
0.553476
0.585309
0.619195
0.655612
0.695115
0.738443
0.786739
0.841627
0.905082
0.978977
1.06468
1.16313
1.27456
1.39713
1.52512
1.64735
1.75015
1.82383
1.86238
1.86387
1.83449
1.78529
1.72609
1.66403
1.60405
1.5495
1.50256
1.46444
1.43581
1.41713
1.4092
1.41403
1.43735
1.49797
1.6815
2.5148
0.442739
0.469336
0.497374
0.527039
0.558612
0.592474
0.629184
0.669467
0.714153
0.764071
0.820429
0.885647
0.963377
1.0574
1.17086
1.30711
1.47037
1.66403
1.88383
2.11053
2.31343
2.46594
2.54514
2.53574
2.4547
2.33723
2.20736
2.07837
1.95801
1.85117
1.76088
1.68849
1.63421
1.59793
1.58011
1.58313
1.61455
1.69888
1.94448
3.04897
0.442542
0.469407
0.49801
0.528644
0.561706
0.597733
0.637465
0.681893
0.732346
0.790393
0.857388
0.935229
1.02847
1.14354
1.28639
1.46348
1.68438
1.96265
2.31143
2.72219
3.12948
3.51688
3.77087
3.75459
3.52597
3.23877
2.95485
2.69248
2.45825
2.25605
2.08878
1.95701
1.85903
1.79262
1.75666
1.75296
1.79067
1.9014
2.22206
3.69351
0.442907
0.470086
0.499432
0.531376
0.566435
0.605319
0.648952
0.698619
0.756091
0.823655
0.903571
0.999302
1.11564
1.259
1.43774
1.66199
1.94369
2.30426
2.77668
3.39716
4.18868
4.97831
6.0935
6.24462
5.497
4.77486
4.16228
3.63472
3.18369
2.80743
2.5072
2.27826
2.11183
1.99956
1.93587
1.91987
1.96114
2.09912
2.50584
4.44159
0.446685
0.474529
0.505185
0.539187
0.577315
0.620564
0.669985
0.727369
0.795067
0.876184
0.974761
1.0961
1.24712
1.43638
1.67433
1.97267
2.34497
2.81202
3.41145
4.20035
5.27448
6.74242
7.40565
8.12064
8.32033
7.27061
6.09962
5.10303
4.25356
3.56046
3.03378
2.65293
2.38806
2.21418
2.11458
2.08194
2.12424
2.28832
2.78701
5.27304
0.456572
0.485918
0.518824
0.556052
0.598638
0.647955
0.705847
0.774907
0.858743
0.962319
1.09235
1.25766
1.46942
1.74085
2.08636
2.52
3.05426
3.70022
4.46928
5.37756
6.44741
7.69849
8.33335
8.72139
9.51557
9.45438
8.28836
6.8562
5.60764
4.51555
3.64623
3.05615
2.66936
2.42607
2.28864
2.23896
2.28163
2.4696
3.05861
6.15677
0.47427
0.505927
0.542234
0.584291
0.633539
0.691966
0.76241
0.848985
0.957653
1.09696
1.27885
1.5195
1.83961
2.26366
2.81722
3.52214
4.39074
5.42171
6.60054
7.90508
9.31284
10.8119
11.2729
11.2374
11.6757
11.417
10.1881
8.53172
6.77196
5.2658
4.16022
3.40809
2.92155
2.62081
2.4531
2.39137
2.437
2.6479
3.31849
7.05744
0.500142
0.535688
0.577292
0.626411
0.685076
0.756214
0.844215
0.95573
1.10081
1.29448
1.55867
1.92423
2.43216
3.13225
4.07722
5.31148
6.8576
8.70656
10.8175
13.128
15.5676
18.0858
17.6934
16.0744
15.9637
15.6199
14.0648
10.8989
7.92086
5.88406
4.54623
3.67762
3.12633
2.78994
2.60536
2.54027
2.59467
2.8319
3.57937
7.953
0.535395
0.576698
0.625667
0.684196
0.755079
0.8426
0.953469
1.09829
1.29378
1.566
1.95469
2.51822
3.33719
4.51258
6.15398
8.35699
11.1777
14.6161
18.6147
23.0755
27.8888
30.6147
25.8646
24.6355
25.5822
23.3168
17.1492
11.906
8.47184
6.23127
4.78323
3.85726
3.27624
2.92702
2.74086
2.68264
2.75279
3.02231
3.86085
8.8247
0.581915
0.630575
0.688571
0.75832
0.843588
0.950422
1.08871
1.27472
1.53517
1.91347
2.47871
3.33649
4.63757
6.57554
9.36466
13.2
18.2194
24.4962
32.0387
40.7875
44.8691
38.8236
36.9572
39.7464
34.4724
23.9029
16.5197
11.5574
8.27343
6.13107
4.75083
3.87337
3.32808
3.00661
2.84383
2.80749
2.90117
3.20347
4.1178
9.5364
0.640554
0.697716
0.765735
0.847591
0.948137
1.07549
1.24341
1.47544
1.81168
2.32001
3.11285
4.36867
6.34997
9.40082
13.9082
20.2342
28.6717
39.5786
53.4063
58.2703
50.7504
50.4337
52.2882
42.2646
29.3677
20.4527
14.326
10.1851
7.43396
5.6335