/*--------------------------------*- C++ -*----------------------------------*\
  =========                 |
  \\      /  F ield         | OpenFOAM: The Open Source CFD Toolbox
   \\    /   O peration     | Website:  https://openfoam.org
    \\  /    A nd           | Version:  8
     \\/     M anipulation  |
\*---------------------------------------------------------------------------*/
FoamFile
{
    version     2.0;
    format      ascii;
    class       volScalarField;
    location    "4.35";
    object      k;
}
// * * * * * * * * * * * * * * * * * * * * * * * * * * * * * * * * * * * * * //

dimensions      [0 2 -2 0 0 0 0];

internalField   nonuniform List<scalar> 
9150
(
0.00182762
0.000940821
0.000475445
0.000301325
0.000191934
0.000191892
0.000301289
0.000475385
0.000940708
0.00182764
0.00178492
0.000746644
0.000398729
0.00025662
0.000160509
0.000160476
0.000256583
0.000398683
0.000746551
0.00178493
0.00171344
0.00065133
0.000365731
0.00023654
0.00014791
0.000147884
0.000236509
0.000365696
0.000651255
0.00171344
0.00163487
0.000601294
0.000352601
0.000228485
0.000143108
0.000143087
0.000228459
0.000352573
0.000601235
0.00163487
0.0015514
0.000579783
0.000347819
0.000225651
0.000141601
0.000141581
0.000225629
0.000347795
0.000579734
0.0015514
0.00284705
0.00255268
0.00185041
0.00161273
0.00132473
0.00132562
0.00161542
0.00185531
0.00255949
0.00284806
0.00230442
0.00150261
0.00128001
0.00120694
0.000971056
0.00097139
0.00120812
0.00128215
0.00150394
0.00230439
0.00204938
0.00125157
0.000887376
0.00080591
0.000623449
0.000623536
0.000806369
0.000888106
0.00125179
0.00204931
0.00186762
0.00110999
0.000649188
0.000529328
0.000384987
0.00038498
0.000529448
0.000649365
0.00110988
0.00186758
0.00178733
0.00102059
0.000523828
0.000371345
0.000252077
0.000252041
0.000371343
0.000523814
0.00102044
0.00178732
0.0120342
0.0050578
0.00259629
0.00189339
0.0015343
0.00152933
0.00189444
0.00276007
0.00624271
0.0155657
0.00491475
0.00380377
0.00250528
0.00188874
0.00154066
0.00153802
0.00188873
0.00250442
0.00373227
0.00496058
0.0044064
0.00343029
0.00248422
0.00188661
0.00154761
0.00154754
0.00189097
0.00248955
0.00340561
0.00441839
0.00391789
0.00315181
0.00246738
0.00188335
0.00155457
0.00155596
0.00188858
0.00247396
0.00315689
0.00392282
0.00335821
0.00309691
0.00236478
0.00183824
0.00152749
0.00152919
0.00184291
0.00237153
0.00310925
0.00336023
0.000808083
0.000800743
0.000793237
0.000785569
0.000777734
0.000769732
0.000761569
0.000753252
0.000744792
0.000736178
0.00158864
0.00157821
0.00156758
0.00155672
0.00154561
0.00153422
0.00152255
0.00151057
0.0014983
0.00148568
0.00206712
0.00205733
0.00204709
0.00203637
0.00202514
0.00201336
0.002001
0.00198804
0.00197446
0.00196021
0.00243565
0.00242682
0.00241734
0.00240716
0.00239623
0.0023845
0.00237194
0.00235851
0.00234416
0.00232886
0.00276013
0.00275208
0.00274316
0.00273332
0.0027225
0.00271064
0.00269769
0.00268359
0.00266829
0.00265174
0.00306677
0.0030592
0.00305053
0.00304071
0.00302967
0.00301733
0.00300362
0.00298845
0.00297176
0.00295349
0.00336944
0.00336207
0.00335335
0.00334322
0.00333161
0.00331841
0.00330352
0.0032868
0.00326816
0.00324754
0.00367732
0.00366991
0.00366087
0.00365016
0.0036377
0.00362335
0.0036069
0.00358815
0.00356695
0.00354324
0.00399777
0.00399016
0.00398063
0.00396917
0.00395571
0.00394005
0.00392186
0.0039007
0.00387628
0.0038486
0.00433792
0.00433007
0.00431996
0.00430769
0.00429322
0.00427634
0.0042565
0.00423279
0.00420458
0.00417198
0.0047059
0.00469795
0.00468738
0.00467435
0.0046589
0.0046409
0.00461983
0.0045938
0.00456132
0.00452297
0.00511219
0.00510473
0.00509447
0.00508133
0.00506521
0.00504589
0.00502386
0.00499625
0.00495991
0.00491639
0.00557042
0.00556469
0.00555648
0.0055448
0.00552963
0.00551018
0.00548748
0.0054595
0.00542168
0.00537612
0.00609912
0.00609799
0.00609551
0.00608928
0.00607953
0.00606545
0.00604573
0.00601947
0.00598378
0.00593981
0.00672729
0.00673821
0.00674858
0.00675525
0.0067576
0.00675435
0.00674351
0.00672428
0.00669494
0.00665585
0.00749591
0.00753271
0.00756721
0.00759496
0.00761541
0.00762848
0.00763223
0.00762564
0.00760772
0.00757852
0.00845993
0.00853016
0.0085969
0.00865554
0.00870362
0.00874099
0.008767
0.0087812
0.00878296
0.00877214
0.00966243
0.00977395
0.00988063
0.00997891
0.0100655
0.0101392
0.0102003
0.0102492
0.0102855
0.0103086
0.0111229
0.0112874
0.0114467
0.0115978
0.0117362
0.0118603
0.0119726
0.0120746
0.0121664
0.0122462
0.0128394
0.0130701
0.0132995
0.0135235
0.0137343
0.0139283
0.0141116
0.0142886
0.0144592
0.0146229
0.0147998
0.0151104
0.0154281
0.0157484
0.0160601
0.0163544
0.0166346
0.0169071
0.0171725
0.0174371
0.0169783
0.0173862
0.0178129
0.0182538
0.0186952
0.0191192
0.0195192
0.0198981
0.0202575
0.020611
0.0193367
0.0198626
0.020425
0.0210146
0.0216131
0.022192
0.0227273
0.0232082
0.0236378
0.024044
0.021837
0.0224936
0.0232076
0.0239695
0.0247536
0.0255129
0.0261827
0.0267247
0.0271511
0.0275262
0.0244423
0.0252419
0.0261115
0.0270427
0.0280026
0.0289003
0.0296152
0.0301135
0.0304343
0.0306948
0.0270386
0.0279792
0.0289691
0.029961
0.0309164
0.0317635
0.0323886
0.0327286
0.0329496
0.0332109
0.0293918
0.0304079
0.0314169
0.0322296
0.0328502
0.0334906
0.0340729
0.0344497
0.034794
0.0352065
0.0313244
0.0322136
0.0329067
0.0334883
0.034127
0.0348205
0.0354401
0.0359955
0.0365493
0.0371408
0.0326399
0.0332833
0.0338939
0.0346019
0.0353974
0.0361906
0.0369643
0.0377186
0.0384662
0.0392254
0.0336727
0.034312
0.0350515
0.0359094
0.0368205
0.0377533
0.0386893
0.0396126
0.0405233
0.0414291
0.0348248
0.0355479
0.0363898
0.0373457
0.0383668
0.0394206
0.0404845
0.0415424
0.0425869
0.0436211
0.036061
0.036858
0.0377725
0.0387969
0.0398946
0.0410348
0.0421983
0.0433687
0.044533
0.0456884
0.0372804
0.0381483
0.039123
0.0401969
0.0413486
0.042555
0.0437974
0.0450595
0.046327
0.0475921
0.038424
0.0393658
0.0404008
0.0415246
0.0427243
0.0439836
0.0452867
0.0466193
0.047968
0.0493236
0.0394528
0.0404678
0.0415631
0.0427369
0.0439817
0.0452863
0.0466383
0.0480263
0.0494392
0.0508685
0.040336
0.0414191
0.0425712
0.0437926
0.0450791
0.0464231
0.0478161
0.0492493
0.0507143
0.0522043
0.041057
0.0421993
0.0434011
0.0446641
0.0459865
0.0473643
0.0487919
0.0502631
0.0517723
0.0533146
0.0416167
0.0428079
0.0440499
0.0453462
0.0466976
0.0481026
0.0495584
0.0510614
0.0526085
0.0541968
0.0420343
0.0432648
0.0445376
0.0458585
0.0472309
0.0486557
0.0501326
0.0516606
0.0532387
0.0548664
0.0423479
0.0436127
0.0449095
0.0462476
0.0476331
0.0490696
0.0505591
0.0521031
0.0537028
0.0553599
0.0426142
0.0439168
0.0452368
0.0465872
0.047979
0.0494183
0.0509101
0.0524586
0.0540678
0.0557417
0.0428935
0.0442578
0.0456134
0.0469773
0.04837
0.0498033
0.0512867
0.0528281
0.0544342
0.0561121
0.0432605
0.0447482
0.0461761
0.0475587
0.0489455
0.0503617
0.0518247
0.0533472
0.0549393
0.0566116
0.0439028
0.0455358
0.0470756
0.0484858
0.0498582
0.0512458
0.0526752
0.0541663
0.0557348
0.0573963
0.0449306
0.0467286
0.0483846
0.0498298
0.0511857
0.0525417
0.0539333
0.0553885
0.0569309
0.0585834
0.046408
0.0483817
0.0501076
0.0515687
0.052905
0.0542271
0.0555794
0.057004
0.0585335
0.0601983
0.0483168
0.050459
0.0522035
0.053639
0.0549297
0.056195
0.0574959
0.0588915
0.0604294
0.0621511
0.0508657
0.0531515
0.0547767
0.0560612
0.0572061
0.0583561
0.0595995
0.0609976
0.0625977
0.0644406
0.0542221
0.0565933
0.0578393
0.0587966
0.0597019
0.060715
0.0619232
0.0633732
0.0650979
0.0671295
0.0579581
0.060173
0.0609431
0.0614826
0.0621894
0.0631655
0.0644387
0.0660282
0.0679516
0.0702258
0.0608947
0.0625926
0.0631021
0.0635415
0.0643414
0.0655103
0.0670192
0.0688696
0.071075
0.0736457
0.0623586
0.0633963
0.0640335
0.0649081
0.066139
0.0677041
0.069585
0.0717894
0.074334
0.0772372
0.0623136
0.063471
0.064699
0.0661475
0.0678633
0.0698559
0.072133
0.0747113
0.0776031
0.0808357
0.0621316
0.0637814
0.0655187
0.0674228
0.0695471
0.0719196
0.0745579
0.0774791
0.0806951
0.0842299
0.0621663
0.0641566
0.0662475
0.0685032
0.070967
0.0736653
0.0766172
0.0798332
0.0833304
0.0871271
0.0619715
0.0642152
0.0665822
0.0691148
0.0718454
0.0747975
0.0779886
0.0814323
0.0851462
0.0891461
0.0613921
0.0638171
0.0663704
0.0690826
0.07198
0.0750839
0.0784111
0.0819809
0.0858122
0.0899217
0.0604417
0.0629508
0.0655879
0.0683762
0.0713372
0.0744901
0.0778536
0.0814501
0.0852991
0.0894178
0.0591655
0.0616867
0.0643379
0.0671375
0.0701042
0.0732567
0.0766193
0.080212
0.0840506
0.0881443
0.0576815
0.060186
0.0628306
0.0656319
0.0686094
0.0717855
0.0751882
0.0788344
0.0827305
0.0868688
0.0561774
0.0586837
0.061354
0.0642057
0.0672644
0.0705657
0.0741412
0.0780069
0.0821556
0.0865512
0.0548937
0.0574773
0.060271
0.0632952
0.0665917
0.0702227
0.074238
0.0786614
0.0834591
0.0885266
0.0540892
0.0568986
0.0600022
0.0634214
0.0672323
0.071546
0.0764678
0.0820415
0.088158
0.0945016
0.054033
0.0573009
0.0610302
0.0652283
0.0700266
0.0756278
0.0822545
0.0899692
0.0983466
0.106427
0.0549818
0.0590479
0.0638696
0.0694334
0.0759947
0.083959
0.0936811
0.105008
0.116169
0.125284
0.05696
0.0621009
0.0685326
0.0764654
0.086075
0.0980605
0.112563
0.127758
0.140296
0.149527
0.0597807
0.0663344
0.0748527
0.0859659
0.100026
0.117175
0.136186
0.153999
0.168175
0.177499
0.0635129
0.0719468
0.0831979
0.0981479
0.117378
0.140063
0.163891
0.18641
0.202456
0.206889
0.0687815
0.0798484
0.094918
0.115077
0.140816
0.170797
0.20284
0.231686
0.239872
0.229627
0.076814
0.0916672
0.112028
0.139191
0.173964
0.215814
0.260767
0.282324
0.265644
0.242078
0.088714
0.108931
0.136525
0.17327
0.220973
0.277421
0.317762
0.308102
0.275012
0.244311
0.105542
0.132721
0.169341
0.217526
0.279115
0.338406
0.34763
0.312436
0.272369
0.238403
0.127355
0.162511
0.209031
0.269302
0.338757
0.377823
0.352911
0.304259
0.261398
0.226695
0.154548
0.198653
0.256322
0.329335
0.39079
0.386569
0.336953
0.286257
0.244355
0.211272
0.185918
0.239584
0.308678
0.382019
0.407538
0.368133
0.311626
0.263023
0.224179
0.194457
0.221098
0.284402
0.362147
0.41814
0.394683
0.336333
0.282309
0.237912
0.203399
0.178282
0.261914
0.334791
0.407689
0.415698
0.36142
0.302535
0.252666
0.213129
0.18381
0.164284
0.311646
0.390359
0.427049
0.385355
0.323468
0.268648
0.224037
0.190042
0.166743
0.153646
0.358044
0.42257
0.405862
0.345073
0.286787
0.237328
0.198043
0.169939
0.153307
0.147273
0.397074
0.421755
0.370395
0.309672
0.255243
0.209864
0.175423
0.15352
0.144176
0.145716
0.417243
0.403881
0.342419
0.282185
0.229274
0.186285
0.156305
0.141086
0.139691
0.149217
0.43581
0.389013
0.32355
0.26116
0.20706
0.165402
0.140243
0.132615
0.139907
0.157731
0.470484
0.39172
0.313064
0.243741
0.186573
0.146263
0.127008
0.12805
0.144647
0.170939
0.490547
0.391222
0.301678
0.225996
0.16637
0.128602
0.116626
0.127177
0.15341
0.188297
0.505502
0.39065
0.291375
0.2095
0.147575
0.113079
0.109106
0.129374
0.165302
0.209145
0.533651
0.396772
0.284551
0.195151
0.130462
0.0995914
0.103793
0.133522
0.179187
0.232874
0.561572
0.403048
0.277806
0.181027
0.113938
0.0873816
0.0996382
0.138275
0.193825
0.258893
0.57962
0.403249
0.267498
0.165152
0.097086
0.0758788
0.0956908
0.142312
0.207822
0.286331
0.58521
0.395095
0.252122
0.146802
0.0798173
0.0649524
0.0912486
0.144379
0.219376
0.313214
0.574171
0.376481
0.230922
0.125891
0.062553
0.054731
0.0858717
0.143356
0.226186
0.335717
0.549882
0.350324
0.205543
0.103475
0.0462788
0.0454594
0.0793805
0.138476
0.225833
0.348265
0.517541
0.319364
0.177604
0.0809086
0.0320878
0.0372592
0.0718218
0.129604
0.216604
0.343925
0.48077
0.285713
0.148644
0.0597606
0.0208186
0.030014
0.0633987
0.117461
0.19922
0.321852
0.442472
0.250688
0.119811
0.041401
0.0126993
0.0234431
0.0543478
0.103255
0.176215
0.284744
0.403112
0.213788
0.0917936
0.0267428
0.00738802
0.0173293
0.0448573
0.0882217
0.151593
0.24411
0.355541
0.173787
0.0656915
0.0161313
0.00424425
0.0117228
0.0350572
0.0729708
0.127171
0.203642
0.296805
0.131339
0.0428725
0.00913384
0.00258665
0.00698767
0.025139
0.057749
0.103935
0.166
0.218754
0.087339
0.0246854
0.00501414
0.00185571
0.0036485
0.015547
0.0423661
0.0820908
0.132157
0.137451
0.0518762
0.0128805
0.00298132
0.00160641
0.00198818
0.00742336
0.0263956
0.0609775
0.102902
0.078178
0.0272171
0.0059014
0.00211652
0.00154109
0.00155841
0.00276516
0.0108155
0.0365545
0.077461
0.000726636
0.000716894
0.000707043
0.000697097
0.000687056
0.000676906
0.000666619
0.000656157
0.000645467
0.000634482
0.000623136
0.000611367
0.000599123
0.000586378
0.000573129
0.000559409
0.000545285
0.000530854
0.000516234
0.000501544
0.00048688
0.000472283
0.000457724
0.000443685
0.00044414
0.000442743
0.000442654
0.000443293
0.000443303
0.00044387
0.000443892
0.000442568
0.000441793
0.000443137
0.000431965
0.000401557
0.000355342
0.000297357
0.000231408
0.000130972
0.00147184
0.00145722
0.00144221
0.0014268
0.00141095
0.00139459
0.00137767
0.00136013
0.00134187
0.0013228
0.00130283
0.00128189
0.00125994
0.00123696
0.00121299
0.00118812
0.00116246
0.00113616
0.00110938
0.00108225
0.00105486
0.00102716
0.000998866
0.000969163
0.000937136
0.000904657
0.000872365
0.000840411
0.000807904
0.000774756
0.00074111
0.000706934
0.000671583
0.000635007
0.000594726
0.000546754
0.000488477
0.000417618
0.000329287
0.0002019
0.00194432
0.00192698
0.00190878
0.00188971
0.00186972
0.00184879
0.00182688
0.00180394
0.00177994
0.00175482
0.00172853
0.00170105
0.00167235
0.00164245
0.00161138
0.00157922
0.00154604
0.00151198
0.00147714
0.00144163
0.00140548
0.00136867
0.00133104
0.00129228
0.00125211
0.00121063
0.00116788
0.00112389
0.00107842
0.00103131
0.0009824
0.000931785
0.000879582
0.000825718
0.000769534
0.000709158
0.000641239
0.000561023
0.000458105
0.000305305
0.00231154
0.00229219
0.00227157
0.00224965
0.00222641
0.00220184
0.00217594
0.0021487
0.00212014
0.00209024
0.002059
0.00202641
0.00199249
0.00195723
0.00192067
0.00188287
0.00184388
0.0018038
0.00176272
0.00172071
0.00167782
0.00163406
0.00158938
0.00154364
0.00149666
0.00144827
0.00139829
0.00134647
0.00129251
0.00123613
0.00117735
0.00111645
0.00105393
0.0009903
0.000925651
0.000858604
0.000784724
0.00069625
0.000582499
0.000412642
0.00263278
0.00261124
0.00258803
0.00256314
0.00253656
0.00250831
0.00247846
0.00244705
0.00241414
0.00237977
0.00234397
0.00230674
0.00226809
0.00222802
0.00218654
0.00214367
0.00209945
0.00205393
0.00200722
0.0019594
0.00191053
0.0018607
0.00180994
0.00175825
0.00170549
0.00165144
0.00159575
0.00153796
0.00147753
0.00141401
0.00134736
0.0012779
0.00120632
0.00113353
0.00106036
0.000986237
0.000908681
0.000817122
0.000694192
0.000516546
0.00293235
0.00290807
0.00288172
0.0028533
0.00282286
0.00279048
0.00275629
0.00272041
0.00268296
0.00264403
0.00260366
0.00256186
0.0025186
0.00247386
0.0024276
0.00237979
0.00233044
0.00227959
0.00222733
0.00217377
0.00211904
0.00206328
0.00200667
0.00194935
0.00189131
0.00183235
0.00177199
0.00170944
0.00164374
0.00157413
0.0015004
0.00142284
0.00134218
0.0012595
0.00117571
0.00109094
0.00100716
0.000914157
0.000781853
0.000577689
0.00322352
0.00319572
0.00316545
0.00313275
0.00309769
0.00306046
0.0030213
0.00298043
0.00293806
0.00289429
0.00284918
0.00280269
0.00275475
0.00270527
0.00265415
0.0026013
0.00254669
0.00249033
0.0024323
0.00237274
0.00231184
0.00224984
0.00218709
0.00212391
0.00206051
0.00199685
0.00193236
0.00186576
0.0017953
0.00171971
0.00163877
0.00155304
0.00146343
0.00137119
0.00127735
0.00118228
0.00108538
0.000975408
0.000827331
0.000614272
0.00351545
0.0034832
0.00344808
0.00341015
0.00336954
0.00332658
0.00328167
0.00323519
0.00318741
0.00313845
0.00308833
0.00303694
0.00298412
0.00292967
0.00287342
0.00281522
0.00275499
0.00269272
0.0026285
0.00256247
0.00249486
0.00242605
0.00235653
0.00228686
0.00221761
0.00214907
0.00208082
0.00201089
0.00193597
0.00185396
0.0017653
0.0016716
0.00157396
0.00147332
0.00137027
0.00126434
0.00115349
0.00102779
0.000865795
0.000648185
0.00381601
0.0037782
0.00373724
0.00369306
0.00364585
0.00359618
0.00354471
0.00349196
0.00343826
0.00338373
0.00332827
0.00327166
0.00321358
0.0031537
0.00309176
0.0030276
0.0029611
0.00289229
0.00282127
0.0027482
0.00267338
0.00259724
0.00252038
0.00244358
0.00236775
0.0022938
0.00222197
0.00214979
0.00207088
0.00198172
0.00188473
0.00178359
0.00167928
0.00157163
0.00146061
0.00134481
0.00122265
0.00108496
0.000910406
0.000693166
0.00413342
0.0040889
0.00404112
0.00398973
0.00393491
0.00387766
0.00381891
0.00375931
0.0036992
0.00363864
0.0035774
0.00351503
0.00345099
0.00338481
0.00331619
0.00324499
0.00317122
0.00309494
0.00301632
0.00293562
0.00285314
0.00276941
0.0026851
0.00260112
0.00251861
0.00243885
0.00236302
0.00228918
0.00220846
0.00211221
0.00200705
0.00189985
0.00179137
0.00168045
0.00156569
0.00144248
0.00130976
0.0011646
0.000991081
0.000776912
0.00447761
0.00442566
0.00437052
0.00431144
0.00424856
0.00418334
0.00411686
0.00404986
0.00398275
0.00391553
0.00384778
0.00377874
0.00370755
0.00363358
0.00355659
0.00347664
0.00339397
0.00330888
0.00322166
0.0031326
0.00304205
0.00295055
0.00285892
0.00276835
0.00268027
0.00259596
0.00251677
0.00244271
0.00236149
0.00225801
0.0021465
0.00203435
0.0019219
0.00180786
0.00169202
0.00156708
0.00142978
0.00127973
0.00110617
0.000890988
0.00486507
0.00480627
0.00474386
0.00467715
0.00460621
0.00453264
0.0044577
0.00438236
0.0043072
0.00423226
0.00415688
0.0040798
0.00399965
0.0039157
0.00382799
0.0037371
0.00364377
0.00354864
0.00345223
0.00335484
0.00325678
0.00315855
0.00306113
0.00296612
0.00287515
0.00278935
0.00270945
0.00263159
0.00254065
0.00243028
0.00231512
0.00219939
0.00207955
0.00195516
0.00183004
0.00170069
0.00156061
0.00140299
0.00122186
0.000999747
0.00532165
0.00525781
0.0051889
0.00511488
0.00503597
0.00495355
0.00486915
0.00478415
0.00469952
0.00461552
0.00453113
0.00444437
0.00435298
0.00425625
0.00415517
0.00405121
0.00394588
0.00384038
0.00373543
0.00363133
0.00352819
0.00342635
0.00332667
0.00323057
0.00313826
0.00304839
0.00296015
0.00286885
0.00276543
0.00264743
0.00252365
0.00239647
0.00226391
0.00212669
0.00198642
0.00184154
0.00168788
0.00151628
0.00131304
0.00107798
0.00588534
0.00581903
0.0057454
0.00566493
0.00557822
0.00548651
0.00539163
0.00529563
0.00520001
0.00510576
0.00501127
0.00491323
0.00480837
0.00469635
0.00458
0.00446196
0.0043446
0.00422984
0.0041187
0.00401123
0.00390704
0.00380586
0.00370789
0.00361285
0.00351755
0.00341944
0.00331753
0.00320761
0.00308497
0.00294904
0.0028055
0.00265689
0.00250266
0.00234321
0.00217822
0.00200661
0.00182425
0.00162381
0.00139586
0.00113754
0.00660475
0.0065398
0.00646491
0.00638074
0.00628809
0.00618785
0.00608245
0.00597471
0.00586665
0.00576166
0.00565782
0.00554832
0.00542977
0.00530339
0.00517334
0.00504304
0.00491583
0.0047948
0.00468164
0.00457592
0.00447564
0.00437831
0.00428133
0.00418192
0.00407812
0.00396959
0.0038515
0.00371682
0.00356268
0.00339222
0.00321308
0.00302741
0.00283502
0.00263673
0.0024325
0.00222178
0.00200191
0.00176762
0.00151055
0.00123154
0.00753642
0.00747924
0.00740985
0.00732844
0.00723596
0.00713193
0.00702079
0.00690705
0.00679262
0.00668231
0.00657363
0.00645668
0.00632967
0.00619525
0.00605679
0.00591814
0.00578421
0.00566053
0.00555078
0.00545363
0.00536343
0.00527371
0.00517792
0.00506926
0.00494569
0.00480655
0.00464728
0.00446406
0.00425638
0.00402978
0.00379123
0.00354322
0.00328786
0.00302775
0.00276497
0.0025
0.00223047
0.00195044
0.00165085
0.0013367
0.00874822
0.00870938
0.00865705
0.0085908
0.00851296
0.008422
0.00832056
0.00821795
0.00811317
0.00800745
0.00789978
0.00778707
0.00766664
0.00753718
0.00740077
0.00726196
0.00712717
0.00700589
0.00690675
0.00682637
0.00675192
0.00666504
0.00654568
0.00639214
0.00620769
0.0059961
0.00575966
0.00549887
0.00521389
0.00490663
0.00458032
0.00423862
0.00388703
0.00353289
0.00318309
0.00284053
0.00250189
0.00215636
0.00178692
0.00140025
0.0103203
0.010321
0.0103108
0.0102866
0.0102507
0.0102
0.0101315
0.0100552
0.00997408
0.00988318
0.00978866
0.00969567
0.00960016
0.00949379
0.00937783
0.00925901
0.00914211
0.00903754
0.00895904
0.00889423
0.00880874
0.00867007
0.00846578
0.00820719
0.00790611
0.00757527
0.00722446
0.00685666
0.00646853
0.00605459
0.00561156
0.00514101
0.00465183
0.0041603
0.00368413
0.00323306
0.00280342
0.00237702
0.00191479
0.00139197
0.0123216
0.0123964
0.0124661
0.0125236
0.0125644
0.0125811
0.0125694
0.012541
0.0124975
0.012434
0.012361
0.0122972
0.012237
0.0121636
0.0120864
0.0120221
0.0119696
0.0119275
0.0118824
0.0117692
0.0115636
0.0112735
0.0109134
0.0104948
0.0100293
0.00953986
0.00904549
0.00854939
0.00803968
0.00749894
0.00691385
0.00627947
0.00560473
0.00491942
0.00426393
0.00366304
0.00311353
0.00258803
0.00202907
0.00139301
0.0147925
0.0149795
0.0151674
0.0153428
0.0154911
0.0156003
0.0156622
0.0156953
0.0157059
0.0156875
0.0156561
0.0156366
0.0156209
0.0155958
0.0155829
0.0155965
0.0155999
0.0155786
0.0154696
0.0152153
0.0148335
0.0143687
0.0138412
0.0132436
0.0125871
0.011914
0.0112572
0.0106175
0.0099692
0.00928071
0.00853147
0.00770813
0.00680593
0.00586223
0.00495886
0.00415484
0.00344795
0.00279558
0.0021218
0.00138922
0.0177215
0.0180405
0.0183729
0.0186962
0.0189792
0.0191994
0.0193576
0.0194755
0.0195588
0.0196013
0.019632
0.0196813
0.0197302
0.0197528
0.0197678
0.0198137
0.0198627
0.0198228
0.0195712
0.0191009
0.0185103
0.0178864
0.0172193
0.0164635
0.0156263
0.0147753
0.0139546
0.0131586
0.0123469
0.0114787
0.0105453
0.00953877
0.00842383
0.00718724
0.00595845
0.00488752
0.00398403
0.00317225
0.00232281
0.00139631
0.0209973
0.0214452
0.0219334
0.0224297
0.0228718
0.0232213
0.0234872
0.0236939
0.0238457
0.0239302
0.023985
0.024066
0.0241504
0.0241991
0.0242679
0.0243923
0.024482
0.0243456
0.0239038
0.0232525
0.0225268
0.0217979
0.021023
0.0201524
0.0192081
0.0182577
0.0173109
0.0163544
0.0153531
0.0142716
0.0131363
0.0119753
0.0107456
0.00934571
0.0077466
0.00636377
0.00521399
0.00414298
0.00295092
0.00140043
0.0244877
0.0250181
0.0256263
0.0262756
0.026858
0.0273042
0.0276196
0.0278303
0.0279534
0.0280137
0.0280765
0.0281913
0.0283385
0.0284951
0.0286992
0.0289076
0.0288697
0.0284092
0.0277418
0.0270964
0.0265165
0.0258794
0.0250768
0.0241543
0.0232242
0.0223199
0.0213733
0.0203262
0.0191484
0.0178859
0.0165776
0.015273
0.0139804
0.0126418
0.0109354
0.00918649
0.00760055
0.00601934
0.00426168
0.00184974
0.0279386
0.0284622
0.0291127
0.0298528
0.0304814
0.0308878
0.0311682
0.0313674
0.0315205
0.0316571
0.0318332
0.0320636
0.0322926
0.0324685
0.0325939
0.0325772
0.0322865
0.0317517
0.0311535
0.0305858
0.0300489
0.0295006
0.0288675
0.0280792
0.0272284
0.0263728
0.0254563
0.0244425
0.0233075
0.0220736
0.0207561
0.0193082
0.0178966
0.0165067
0.0148347
0.0127016
0.0105698
0.00846743
0.00619728
0.00279329
0.0310314
0.0315119
0.0321257
0.0328437
0.0334906
0.0339299
0.0342217
0.0344717
0.0347357
0.0350322
0.0353874
0.0357854
0.0361025
0.036235
0.0362035
0.0360207
0.0356701
0.0351816
0.0346495
0.034138
0.0336518
0.0331444
0.0325506
0.0318468
0.031075
0.0302399
0.0293381
0.0283264
0.0271355
0.0257801
0.0243287
0.0228822
0.0214731
0.0199985
0.0182631
0.0159142
0.0132769
0.0106195
0.00784352
0.0036287
0.0335888
0.0341238
0.0347754
0.035477
0.0360907
0.0365914
0.0370244
0.0374175
0.0378119
0.0382271
0.0386608
0.0390799
0.0394197
0.0396468
0.0397296
0.0396446
0.0393887
0.0390041
0.0385652
0.0381236
0.037688
0.0372091
0.0366248
0.035942
0.0351721
0.0343208
0.0333757
0.0322792
0.0309716
0.0294557
0.0277848
0.0260312
0.0241759
0.0221473
0.0199815
0.0176213
0.0149415
0.0119128
0.0086586
0.00378969
0.0357177
0.0363533
0.0370706
0.0378277
0.0385469
0.0391945
0.0397819
0.0403262
0.040851
0.0413652
0.0418614
0.0423164
0.0426997
0.0429928
0.0431746
0.0432263
0.0431499
0.0429763
0.042752
0.042494
0.0421636
0.0416968
0.0411037
0.0404312
0.0396849
0.0388535
0.0378929
0.0367394
0.0353631
0.0337643
0.0319517
0.0299696
0.0278362
0.0254755
0.0228782
0.0200079
0.0167432
0.013057
0.00908915
0.00391474
0.0378043
0.0385676
0.0393837
0.0402246
0.0410498
0.0418326
0.0425702
0.0432635
0.0439186
0.0445364
0.0451102
0.045626
0.0460685
0.0464271
0.0466943
0.0468666
0.0469495
0.0469595
0.0469164
0.0468188
0.0466174
0.0462644
0.0457735
0.0451591
0.0444449
0.0436285
0.0426694
0.0415073
0.0401694
0.0386625
0.0369847
0.0350642
0.0328637
0.0304177
0.027676
0.0245846
0.0210216
0.016754
0.011885
0.00569565
0.0400375
0.0409303
0.0418509
0.0427838
0.0437076
0.0446043
0.0454645
0.0462809
0.0470504
0.0477692
0.0484307
0.0490264
0.0495478
0.0499891
0.0503474
0.0506233
0.0508218
0.050951
0.0510157
0.0510097
0.0509065
0.0506758
0.0502887
0.0497311
0.0490246
0.0481916
0.0472403
0.0461545
0.0448954
0.0434563
0.0418484
0.0400368
0.0379721
0.0356428
0.0329754
0.0298033
0.0260878
0.0214778
0.0157449
0.00769909
0.0423764
0.0433935
0.0444224
0.0454545
0.0464768
0.0474764
0.0484431
0.0493684
0.0502451
0.0510667
0.0518268
0.0525186
0.0531363
0.0536759
0.0541351
0.054514
0.0548139
0.0550359
0.0551773
0.0552266
0.0551601
0.0549508
0.0545826
0.0540643
0.0534096
0.0526111
0.0516324
0.0504554
0.0490898
0.0475747
0.0459153
0.0440525
0.0419215
0.0395119
0.0367866
0.0336829
0.0300719
0.0255634
0.0193068
0.00953798
0.044695
0.0458367
0.0469811
0.0481221
0.0492506
0.0503566
0.0514307
0.0524656
0.0534528
0.0543851
0.0552555
0.0560578
0.0567865
0.0574372
0.0580064
0.0584913
0.0588889
0.0591948
0.0594008
0.0594932
0.0594533
0.0592636
0.0589159
0.0584136
0.0577581
0.0569326
0.0559031
0.0546534
0.0531953
0.0515497
0.0497105
0.0476281
0.0452464
0.042542
0.0394834
0.03601
0.0319849
0.0271475
0.0206434
0.009405
0.046887
0.048157
0.0494251
0.0506856
0.0519313
0.0531539
0.054345
0.0554985
0.0566064
0.0576612
0.0586559
0.0595836
0.060438
0.0612131
0.061903
0.0625018
0.0630027
0.0633976
0.063676
0.0638249
0.0638293
0.0636755
0.0633544
0.0628615
0.0621909
0.0613286
0.0602544
0.0589533
0.0574218
0.0556589
0.0536514
0.0513661
0.0487618
0.0458029
0.0424453
0.0386106
0.03416
0.0288325
0.0218783
0.00985104
0.0489078
0.050303
0.0516958
0.0530805
0.0544507
0.0557991
0.0571181
0.0584026
0.0596453
0.060839
0.0619763
0.0630496
0.0640513
0.0649731
0.0658066
0.0665425
0.0671708
0.0676804
0.0680587
0.0682924
0.0683677
0.0682715
0.0679931
0.0675235
0.0668534
0.0659708
0.0648614
0.0635119
0.0619116
0.0600491
0.0579065
0.0554562
0.0526621
0.0494807
0.0458518
0.04168
0.0368051
0.0309287
0.0233105
0.010605
0.0507416
0.0522509
0.053762
0.0552692
0.0567663
0.0582468
0.0597041
0.0611334
0.0625287
0.0638831
0.0651891
0.0664383
0.0676216
0.0687283
0.069747
0.0706646
0.0714672
0.0721395
0.0726658
0.07303
0.0732166
0.0732111
0.073001
0.0725751
0.0719231
0.0710344
0.0698975
0.0685
0.0668289
0.0648684
0.062598
0.0599888
0.0570033
0.0535921
0.0496876
0.0451888
0.0399336
0.0336059
0.0254113
0.0116613
0.0523729
0.0539827
0.0556031
0.0572282
0.0588527
0.0604709
0.0620775
0.0636685
0.0652391
0.0667837
0.0682952
0.0697648
0.0711819
0.0725336
0.0738043
0.0749761
0.0760287
0.0769401
0.0776876
0.0782489
0.0786033
0.0787324
0.0786214
0.0782582
0.0776336
0.0767395
0.0755678
0.0741088
0.0723503
0.0702756
0.0678618
0.0650773
0.0618792
0.0582098
0.0539907
0.04911
0.0434
0.036557
0.0277544
0.0128976
0.0537829
0.0554826
0.0572046
0.0589444
0.0606976
0.0624608
0.0642302
0.0660034
0.0677783
0.0695515
0.0713178
0.0730694
0.0747953
0.0764803
0.0781041
0.0796414
0.0810617
0.0823306
0.083412
0.0842701
0.0848731
0.0851949
0.0852165
0.0849265
0.0843202
0.0833962
0.0821544
0.0805923
0.0787028
0.0764722
0.0738778
0.0708853
0.0674461
0.0634929
0.0589329
0.0536343
0.0473999
0.0398982
0.0303197
0.0143381
0.0549594
0.0567419
0.0585612
0.0604146
0.0623002
0.0642172
0.0661651
0.0681441
0.0701567
0.072204
0.0742857
0.0763982
0.0785329
0.0806744
0.0827978
0.0848678
0.0868379
0.0886522
0.0902481
0.0915628
0.0925404
0.0931381
0.09333
0.0931075
0.0924771
0.0914541
0.0900565
0.088298
0.0861847
0.0837116
0.0808602
0.077596
0.0738655
0.0695911
0.0646629
0.0589231
0.0521345
0.0439087
0.0334192
0.016092
0.0559023
0.0577627
0.0596765
0.0616438
0.0636662
0.0657467
0.0678878
0.0700958
0.0723795
0.0747479
0.0772103
0.0797738
0.0824396
0.0851978
0.0880227
0.0908689
0.0936691
0.0963322
0.0987469
0.100794
0.102363
0.103376
0.103789
0.103601
0.102845
0.101574
0.099845
0.0977058
0.0951888
0.0923071
0.0890519
0.0853912
0.081267
0.0765894
0.0712275
0.0649894
0.0575844
0.0485433
0.0369752
0.0181537
0.0566262
0.0585587
0.0605626
0.0626419
0.0648026
0.0670531
0.0693995
0.0718562
0.0744393
0.077169
0.0800704
0.0831721
0.0864992
0.090061
0.0938417
0.097796
0.101841
0.105843
0.109607
0.11289
0.115462
0.117156
0.117888
0.117665
0.116576
0.11476
0.11236
0.109495
0.106246
0.102658
0.0987401
0.0944643
0.0897668
0.0845426
0.0786343
0.0718092
0.0637123
0.0537741
0.0409928
0.0205634
0.0571643
0.0591588
0.0612435
0.0634273
0.0657221
0.068142
0.0707024
0.0734253
0.0763331
0.0794545
0.0828349
0.0865385
0.0906366
0.0951817
0.100187
0.105635
0.111472
0.117558
0.123597
0.129095
0.133492
0.136429
0.137729
0.137361
0.135528
0.132587
0.128879
0.124659
0.120097
0.115292
0.110277
0.105031
0.099478
0.0934903
0.0868754
0.079349
0.0704765
0.0595567
0.0454105
0.0233639
0.0575773
0.0596198
0.0617722
0.064049
0.0664688
0.0690511
0.0718257
0.0748282
0.0780947
0.0816542
0.0855495
0.0898805
0.0947956
0.100424
0.106836
0.114085
0.122247
0.131343
0.141072
0.150574
0.158653
0.164348
0.166998
0.166303
0.162792
0.157524
0.151304
0.144622
0.137766
0.130897
0.124088
0.117321
0.110496
0.103446
0.0959253
0.0875818
0.077882
0.0659559
0.0503351
0.0265986
0.0579665
0.0600455
0.0622563
0.0646201
0.0671596
0.0699044
0.0728939
0.0761767
0.0798144
0.083872
0.0883902
0.0934262
0.0991594
0.105835
0.113634
0.122709
0.133302
0.145756
0.160323
0.176381
0.191391
0.204741
0.212746
0.212015
0.204212
0.193691
0.182494
0.171351
0.160563
0.150286
0.14061
0.13151
0.122833
0.114332
0.105674
0.0964055
0.0858659
0.0729795
0.0558466
0.0302435
0.0584777
0.0605902
0.062863
0.0653236
0.0679999
0.0709311
0.0741636
0.0777577
0.0817906
0.0863531
0.0915192
0.0974077
0.104182
0.112056
0.1213
0.132205
0.145074
0.160487
0.179283
0.202164
0.229138
0.254325
0.286417
0.291317
0.270195
0.247673
0.227019
0.207902
0.190306
0.174341
0.160143
0.147578
0.136308
0.125905
0.115875
0.105604
0.0942585
0.0805303
0.0619705
0.0341929