/*--------------------------------*- C++ -*----------------------------------*\
  =========                 |
  \\      /  F ield         | OpenFOAM: The Open Source CFD Toolbox
   \\    /   O peration     | Website:  https://openfoam.org
    \\  /    A nd           | Version:  8
     \\/     M anipulation  |
\*---------------------------------------------------------------------------*/
FoamFile
{
    version     2.0;
    format      ascii;
    class       volScalarField;
    location    "4.35";
    object      nut;
}
// * * * * * * * * * * * * * * * * * * * * * * * * * * * * * * * * * * * * * //

dimensions      [0 2 -1 0 0 0 0];

internalField   nonuniform List<scalar> 
9150
(
9.60036e-06
6.40619e-06
6.57113e-06
8.72936e-06
7.52312e-06
7.52233e-06
8.73094e-06
6.57192e-06
6.40569e-06
9.60042e-06
9.48754e-06
5.73863e-06
8.275e-06
9.87217e-06
6.99924e-06
6.99803e-06
9.87243e-06
8.2764e-06
5.73824e-06
9.48757e-06
9.29562e-06
5.5014e-06
1.07998e-05
1.02482e-05
6.65288e-06
6.65176e-06
1.02474e-05
1.08012e-05
5.5011e-06
9.29563e-06
9.08e-06
5.42359e-06
1.34051e-05
1.02459e-05
6.46666e-06
6.46569e-06
1.02449e-05
1.34055e-05
5.42334e-06
9.07999e-06
8.84518e-06
5.40726e-06
1.56519e-05
1.01543e-05
6.37203e-06
6.37116e-06
1.01533e-05
1.56508e-05
5.40702e-06
8.84517e-06
5.91079e-06
1.12619e-05
1.38298e-05
1.73384e-05
1.64799e-05
1.64822e-05
1.73505e-05
1.38527e-05
1.12779e-05
5.91189e-06
6.27974e-06
8.8522e-06
1.13378e-05
1.52507e-05
1.42578e-05
1.42579e-05
1.5257e-05
1.13507e-05
8.85827e-06
6.2797e-06
6.82978e-06
7.89993e-06
9.37231e-06
1.30264e-05
1.19904e-05
1.199e-05
1.30304e-05
9.37877e-06
7.90131e-06
6.82966e-06
7.38677e-06
7.29518e-06
7.96623e-06
1.11229e-05
1.00841e-05
1.00836e-05
1.11257e-05
7.96923e-06
7.29495e-06
7.3867e-06
8.07452e-06
6.84558e-06
7.04858e-06
9.62826e-06
8.55035e-06
8.54971e-06
9.63026e-06
7.04994e-06
6.84504e-06
8.07449e-06
1.21549e-05
1.41841e-05
1.26302e-05
1.54793e-05
1.72383e-05
1.73725e-05
1.59125e-05
1.43092e-05
2.03194e-05
1.40023e-05
7.86984e-06
1.07666e-05
1.23294e-05
1.56448e-05
1.73259e-05
1.74157e-05
1.58804e-05
1.25633e-05
1.08475e-05
7.9085e-06
7.45323e-06
1.01632e-05
1.24308e-05
1.5846e-05
1.7411e-05
1.7468e-05
1.60016e-05
1.25559e-05
1.01978e-05
7.46374e-06
7.02809e-06
9.77397e-06
1.24859e-05
1.60094e-05
1.74762e-05
1.75146e-05
1.61084e-05
1.2562e-05
9.81935e-06
7.03267e-06
6.50682e-06
1.00329e-05
1.25128e-05
1.62258e-05
1.73827e-05
1.74032e-05
1.62756e-05
1.25544e-05
1.00709e-05
6.50885e-06
6.3761e-06
6.34713e-06
6.31733e-06
6.28676e-06
6.25536e-06
6.22313e-06
6.19007e-06
6.1562e-06
6.12153e-06
6.08603e-06
4.89599e-05
4.86576e-05
4.83573e-05
4.80577e-05
4.77578e-05
4.7457e-05
4.71551e-05
4.68519e-05
4.65478e-05
4.62435e-05
9.89629e-05
9.84288e-05
9.78699e-05
9.72858e-05
9.6676e-05
9.60408e-05
9.53806e-05
9.4696e-05
9.39881e-05
9.32578e-05
0.000143181
0.000142547
0.000141851
0.000141091
0.00014027
0.000139388
0.000138448
0.000137451
0.0001364
0.000135296
0.000181076
0.000180425
0.000179671
0.000178815
0.000177861
0.000176809
0.000175665
0.00017443
0.000173109
0.000171706
0.0002135
0.000212859
0.000212077
0.000211159
0.000210107
0.000208926
0.000207621
0.000206195
0.000204654
0.000203006
0.000241387
0.000240739
0.00023992
0.000238933
0.000237784
0.000236478
0.000235021
0.000233418
0.000231679
0.00022981
0.000265525
0.000264821
0.000263921
0.000262828
0.000261551
0.000260095
0.000258468
0.000256676
0.00025473
0.000252641
0.000286493
0.000285659
0.000284609
0.00028335
0.00028189
0.000280237
0.000278398
0.000276383
0.000274202
0.000271871
0.000304662
0.000303605
0.000302318
0.000300812
0.000299097
0.000297183
0.000295078
0.00029279
0.000290332
0.000287721
0.000320218
0.00031883
0.000317207
0.000315362
0.000313309
0.000311061
0.000308631
0.000306019
0.000303234
0.000300301
0.000333204
0.000331383
0.000329332
0.000327066
0.0003246
0.00032195
0.000319138
0.000316163
0.000313016
0.000309733
0.000343621
0.000341275
0.000338722
0.000335972
0.000333046
0.000329957
0.000326737
0.000323385
0.000319887
0.000316279
0.000351517
0.000348606
0.000345539
0.000342317
0.00033897
0.000335501
0.000331927
0.000328258
0.000324493
0.000320655
0.000357281
0.000353903
0.000350439
0.000346887
0.000343266
0.000339579
0.000335828
0.000332018
0.000328148
0.000324226
0.000361911
0.000358349
0.000354763
0.000351146
0.00034751
0.000343855
0.000340169
0.000336443
0.00033267
0.000328847
0.000367007
0.000363626
0.000360286
0.000356957
0.000353624
0.000350281
0.00034691
0.000343497
0.000340025
0.000336484
0.000374418
0.000371556
0.000368774
0.000366031
0.000363288
0.000360517
0.000357698
0.000354813
0.000351845
0.000348777
0.000385441
0.000383398
0.000381437
0.000379506
0.000377549
0.000375528
0.000373431
0.000371249
0.000368969
0.000366572
0.000400579
0.000399553
0.000398595
0.00039764
0.00039661
0.000395459
0.000394203
0.000392859
0.000391427
0.000389896
0.000419698
0.000419754
0.000419869
0.000419969
0.000419964
0.000419791
0.000419475
0.000419058
0.000418553
0.000417985
0.000442159
0.000443271
0.000444435
0.000445594
0.000446662
0.000447544
0.000448224
0.00044874
0.000449117
0.000449413
0.00046701
0.000469098
0.00047127
0.000473467
0.000475609
0.000477569
0.000479248
0.000480615
0.00048169
0.00048258
0.000493225
0.000496176
0.000499269
0.000502472
0.000505697
0.000508748
0.000511323
0.000513253
0.000514576
0.00051554
0.000519877
0.00052359
0.000527482
0.000531555
0.000535711
0.000539551
0.00054248
0.000544335
0.000545262
0.000545726
0.000545734
0.000550095
0.000554549
0.000558906
0.000563044
0.000566673
0.000569193
0.00057021
0.000570468
0.000570574
0.000569216
0.000573824
0.000578285
0.000581727
0.000584154
0.0005865
0.000588368
0.000589094
0.000589365
0.000589607
0.000588919
0.000592662
0.000595272
0.000597096
0.000598936
0.000600829
0.000602202
0.000603042
0.000603579
0.000604029
0.000603112
0.000605041
0.000606472
0.000608058
0.000609819
0.000611392
0.000612687
0.000613687
0.000614464
0.00061514
0.000612786
0.000613821
0.000614979
0.000616418
0.000617903
0.000619341
0.000620667
0.000621833
0.000622859
0.000623812
0.000620086
0.00062059
0.000621374
0.000622475
0.000623754
0.000625123
0.000626506
0.000627856
0.000629162
0.000630458
0.000625407
0.000625385
0.000625746
0.000626509
0.000627588
0.000628892
0.000630361
0.000631938
0.000633589
0.000635322
0.000629084
0.000628653
0.000628638
0.000629085
0.000629963
0.000631213
0.000632774
0.000634592
0.000636621
0.000638844
0.000631502
0.000630799
0.000630542
0.000630786
0.000631537
0.000632764
0.000634424
0.000636469
0.000638854
0.000641554
0.000633069
0.000632232
0.000631858
0.000632011
0.000632718
0.000633971
0.000635747
0.000638013
0.000640732
0.000643877
0.000634163
0.000633302
0.000632914
0.000633068
0.000633802
0.000635129
0.000637043
0.000639528
0.00064256
0.000646118
0.000635157
0.000634356
0.000634033
0.000634256
0.000635072
0.000636511
0.000638582
0.000641286
0.000644612
0.000648549
0.000636436
0.000635767
0.000635571
0.000635917
0.00063686
0.00063844
0.000640682
0.000643601
0.000647201
0.000651484
0.000638413
0.000637946
0.000637943
0.000638468
0.000639581
0.00064133
0.000643754
0.000646881
0.000650731
0.00065532
0.000641501
0.000641331
0.000641606
0.000642385
0.000643725
0.000645679
0.000648296
0.00065162
0.000655689
0.000660534
0.000646075
0.000646333
0.000647014
0.000648152
0.000649795
0.000651998
0.000654821
0.000658328
0.000662574
0.000667614
0.000652362
0.000653256
0.000654516
0.000656143
0.000658174
0.000660669
0.000663708
0.000667374
0.00067175
0.000676913
0.000660361
0.000662218
0.0006643
0.000666544
0.000669017
0.000671812
0.00067504
0.000678813
0.000683242
0.000688428
0.000670137
0.000673097
0.00067619
0.00067914
0.000682058
0.000685106
0.000688439
0.000692209
0.000696557
0.000701611
0.000681323
0.000685432
0.000689518
0.000693142
0.00069643
0.000699626
0.000702924
0.000706517
0.000710583
0.000715283
0.000693352
0.000698601
0.00070347
0.000707555
0.000711006
0.000714109
0.000717106
0.000720235
0.000723736
0.000727822
0.000705392
0.000711621
0.000717006
0.000721233
0.000724493
0.00072711
0.000729446
0.000731819
0.000734522
0.000737794
0.000717122
0.000724155
0.000729518
0.000733263
0.00073574
0.000737409
0.000738722
0.000740078
0.000741814
0.000744203
0.000728481
0.000736075
0.000740555
0.000742971
0.000743972
0.000744201
0.000744204
0.000744422
0.000745213
0.000746872
0.000738333
0.000745494
0.000748224
0.000748614
0.000747846
0.000746605
0.000745416
0.000744727
0.000744904
0.000746304
0.00074376
0.0007489
0.000749683
0.000748309
0.000746211
0.000744019
0.000742205
0.000741201
0.000741373
0.000743152
0.000742563
0.000744522
0.000743589
0.000741451
0.000738969
0.000736691
0.000735074
0.000734521
0.00073541
0.000738154
0.000733471
0.000733502
0.000732097
0.000730012
0.000727875
0.000726196
0.0007254
0.000725844
0.00072795
0.00073201
0.000719636
0.00071923
0.000717951
0.000716352
0.000714971
0.000714266
0.000714613
0.000716327
0.000719772
0.000725174
0.000704082
0.000703646
0.000702767
0.000701907
0.0007015
0.00070192
0.000703477
0.000706492
0.000711185
0.000717735
0.000687792
0.000687661
0.000687441
0.000687485
0.000688131
0.000689679
0.000692386
0.000696506
0.000702183
0.000709541
0.000671917
0.000672312
0.000672854
0.000673806
0.000675426
0.000677946
0.000681569
0.000686464
0.000692731
0.000700456
0.000657705
0.000658618
0.000659834
0.000661536
0.000663904
0.000667098
0.000671265
0.0006765
0.000682877
0.000690467
0.000645847
0.000647132
0.000648797
0.000650946
0.000653672
0.000657058
0.000661185
0.000666116
0.000671921
0.000678676
0.000636452
0.000637773
0.000639424
0.00064141
0.000643725
0.000646346
0.000649325
0.000652744
0.000656717
0.000661373
0.000628942
0.000629603
0.000630325
0.000630979
0.000631433
0.000631583
0.000631571
0.000631602
0.000631966
0.00063299
0.000621764
0.000620533
0.000618784
0.000616243
0.000612677
0.000608152
0.000603082
0.000598043
0.000593733
0.000590855
0.000612155
0.000607259
0.000601043
0.000593205
0.000583622
0.000572965
0.000562296
0.000552786
0.000545626
0.000541721
0.00059648
0.000586077
0.000573806
0.000559665
0.000544023
0.000528654
0.00051545
0.000506006
0.000501282
0.00050119
0.000571558
0.000554986
0.000537067
0.000518308
0.000500048
0.000485035
0.000475642
0.000472873
0.00047549
0.000480954
0.00053688
0.000515383
0.000494753
0.000476394
0.00046213
0.000453649
0.000453552
0.000460276
0.000469217
0.000478369
0.000496891
0.000473461
0.000454249
0.0004414
0.00043618
0.00043855
0.000447947
0.000460591
0.00047362
0.000485522
0.000458091
0.000437297
0.000423915
0.000419613
0.00042435
0.00043611
0.00045226
0.000470043
0.00048674
0.000496507
0.000424423
0.000409806
0.000404961
0.000410392
0.000424615
0.000444588
0.000468228
0.000491948
0.00050474
0.000502518
0.000397419
0.000391938
0.000397467
0.000413306
0.000437303
0.000466727
0.000499655
0.000520388
0.00051479
0.000500678
0.000380217
0.000385622
0.000402175
0.000428566
0.000462909
0.000501344
0.000531734
0.00053262
0.000512906
0.000491879
0.000375338
0.000392071
0.000419189
0.000454946
0.000497008
0.00053566
0.000548136
0.00052943
0.000502705
0.000478141
0.000382944
0.000409702
0.000445229
0.000487545
0.000531205
0.000558248
0.000548263
0.000517603
0.00048731
0.000461535
0.000400136
0.000434776
0.000476429
0.000522556
0.000559427
0.00056263
0.00053402
0.000499444
0.000468538
0.000443668
0.000423717
0.00046403
0.000509593
0.000552176
0.000570235
0.000549958
0.000512986
0.000477604
0.000447969
0.000425777
0.00045106
0.000494475
0.000540052
0.000570714
0.000561596
0.000525835
0.000487544
0.000453552
0.000426819
0.000408772
0.000479765
0.000523879
0.000562483
0.000569279
0.000538501
0.000498181
0.000460165
0.000428707
0.00040622
0.000393295
0.000508917
0.000550653
0.00057001
0.000548909
0.000508601
0.000467456
0.000431348
0.000403931
0.000386964
0.000379594
0.000531486
0.000561609
0.000554884
0.000517979
0.000475478
0.00043522
0.00040228
0.000380354
0.000369741
0.000367883
0.000543199
0.00055396
0.000526293
0.000484669
0.000441342
0.000402567
0.000374128
0.000359056
0.000355115
0.000358792
0.000539841
0.000533513
0.000496369
0.000451966
0.000407803
0.000370908
0.000348272
0.000340965
0.000343661
0.000353479
0.000533554
0.000511176
0.000469523
0.000421786
0.000375715
0.000340972
0.000325524
0.000326468
0.000336051
0.000353113
0.000536937
0.000498213
0.000447725
0.000393767
0.000344527
0.000312724
0.000306096
0.00031564
0.000333047
0.00035816
0.00053553
0.00048524
0.000426229
0.000365593
0.00031329
0.000286177
0.000290045
0.000308695
0.000335064
0.000368124
0.000530665
0.000471313
0.000404793
0.000337793
0.00028268
0.000261941
0.000277433
0.000305793
0.000341632
0.000381865
0.00053102
0.000460983
0.000386122
0.000312183
0.000253752
0.000240552
0.00026808
0.00030645
0.000351536
0.000398245
0.00053232
0.000452454
0.000369424
0.000288299
0.000226131
0.000221722
0.000261232
0.000309515
0.000363403
0.000416496
0.000530916
0.000442686
0.000352365
0.000264451
0.000198762
0.000204899
0.00025601
0.000313753
0.000376047
0.000436155
0.000525403
0.000429929
0.000333281
0.000239338
0.000171013
0.000189872
0.000251843
0.000318177
0.000388384
0.000456486
0.000514329
0.000412815
0.000311033
0.000212134
0.000142914
0.000176891
0.000248578
0.000322208
0.00039938
0.000476041
0.000497445
0.000391527
0.000285633
0.000182869
0.000115302
0.000166248
0.000246347
0.000325872
0.00040845
0.000492989
0.000476523
0.000367037
0.000257612
0.000152262
8.96188e-05
0.000157625
0.000245278
0.000329939
0.00041617
0.000505832
0.0004532
0.000340241
0.000227625
0.000121656
6.734e-05
0.000149432
0.000244945
0.000335615
0.000425092
0.0005176
0.000428641
0.000311561
0.000196169
9.27944e-05
4.93468e-05
0.000138843
0.00024365
0.000343266
0.000438273
0.00053416
0.000402905
0.000280518
0.000163637
6.75421e-05
3.57429e-05
0.00012275
0.00023794
0.000350532
0.000454586
0.000555276
0.000373129
0.000246366
0.000131059
4.74413e-05
2.62555e-05
9.94808e-05
0.000223285
0.000354182
0.000473525
0.000581722
0.000336922
0.000209638
0.000100399
3.31599e-05
2.07253e-05
7.04737e-05
0.000193621
0.000348183
0.000495238
0.000620677
0.000295017
0.000175028
7.47057e-05
2.45489e-05
1.83229e-05
4.18467e-05
0.000142746
0.000317608
0.000513308
0.000686227
0.000272786
0.000152243
5.40169e-05
1.97559e-05
1.74495e-05
2.32792e-05
7.51926e-05
0.000233283
0.000486212
0.000786527
0.00037442
0.000126627
3.18613e-05
1.66463e-05
1.72154e-05
1.77832e-05
2.5148e-05
9.03352e-05
0.000293279
0.000700586
6.04644e-06
6.00574e-06
5.96428e-06
5.92211e-06
5.87923e-06
5.83556e-06
5.79095e-06
5.74524e-06
5.69816e-06
5.64939e-06
5.5986e-06
5.54544e-06
5.48962e-06
5.43092e-06
5.36925e-06
5.30464e-06
5.2373e-06
5.16759e-06
5.09599e-06
5.02299e-06
4.94903e-06
4.87426e-06
4.79854e-06
4.72488e-06
2.00447e-05
4.71152e-06
4.70796e-06
1.9986e-05
1.99803e-05
2.00214e-05
2.00135e-05
1.99284e-05
4.69348e-06
1.99475e-05
1.94348e-05
1.80643e-05
1.59845e-05
1.33757e-05
1.04087e-05
1.86368e-06
4.59206e-05
4.55827e-05
4.5241e-05
4.4895e-05
4.45434e-05
4.41826e-05
4.38103e-05
4.34248e-05
4.30226e-05
4.25993e-05
4.21516e-05
4.16777e-05
4.11771e-05
4.0651e-05
4.01023e-05
3.95353e-05
3.89556e-05
3.83687e-05
3.77789e-05
3.71888e-05
3.65978e-05
3.60009e-05
3.53897e-05
3.47657e-05
3.44124e-05
3.36894e-05
3.30595e-05
3.26305e-05
3.20583e-05
3.15862e-05
3.11218e-05
3.06831e-05
3.04338e-05
3.10015e-05
3.08358e-05
2.92204e-05
2.59075e-05
2.04258e-05
1.22326e-05
2.87288e-06
9.24585e-05
9.1598e-05
9.07113e-05
8.97987e-05
8.88599e-05
8.78933e-05
8.68971e-05
8.58696e-05
8.48079e-05
8.37087e-05
8.25693e-05
8.13879e-05
8.01642e-05
7.88996e-05
7.75973e-05
7.6262e-05
7.48991e-05
7.35142e-05
7.21112e-05
7.06919e-05
6.92545e-05
6.77934e-05
6.6302e-05
6.47812e-05
6.32541e-05
6.16823e-05
6.00675e-05
5.8424e-05
5.67353e-05
5.4969e-05
5.3117e-05
5.11775e-05
4.91413e-05
4.69302e-05
4.42176e-05
4.04454e-05
3.50115e-05
2.71866e-05
1.63476e-05
4.34372e-06
0.000134069
0.000132726
0.000131327
0.000129874
0.000128371
0.000126819
0.000125217
0.000123566
0.000121866
0.000120115
0.000118312
0.000116455
0.000114546
0.000112584
0.000110572
0.000108514
0.000106413
0.000104274
0.000102099
9.98907e-05
9.7647e-05
9.53647e-05
9.30394e-05
9.06677e-05
8.82487e-05
8.5775e-05
8.32394e-05
8.06304e-05
7.79249e-05
7.50809e-05
7.20562e-05
6.88013e-05
6.52417e-05
6.12417e-05
5.65438e-05
5.07187e-05
4.31507e-05
3.30718e-05
1.99785e-05
5.87004e-06
0.000170132
0.000168388
0.000166559
0.00016465
0.000162666
0.000160612
0.000158491
0.000156305
0.000154054
0.000151741
0.000149364
0.000146924
0.00014442
0.000141853
0.000139225
0.000136536
0.000133791
0.000130991
0.000128138
0.000125234
0.000122278
0.000119268
0.000116202
0.000113075
0.000109882
0.000106615
0.000103261
9.97979e-05
9.61898e-05
9.23832e-05
8.83127e-05
8.38949e-05
7.90149e-05
7.35051e-05
6.71139e-05
5.94648e-05
5.00219e-05
3.8083e-05
2.315e-05
7.3477e-06
0.000201146
0.000199069
0.000196883
0.000194595
0.000192212
0.000189741
0.000187187
0.000184554
0.000181846
0.000179063
0.000176206
0.000173275
0.000170269
0.00016719
0.000164036
0.00016081
0.000157512
0.000154144
0.000150705
0.000147198
0.000143622
0.000139974
0.000136251
0.000132451
0.000128567
0.000124588
0.000120495
0.000116256
0.000111821
0.000107123
0.000102079
9.65775e-05
9.04755e-05
8.35803e-05
7.56332e-05
6.63013e-05
5.52747e-05
4.20026e-05
2.56173e-05
8.21633e-06
0.000227698
0.000225331
0.000222837
0.000220225
0.000217504
0.000214683
0.000211768
0.000208764
0.000205674
0.000202501
0.000199244
0.000195903
0.000192478
0.000188968
0.000185372
0.00018169
0.000177923
0.00017407
0.000170131
0.000166105
0.00016199
0.000157782
0.00015348
0.000149078
0.00014457
0.000139943
0.000135172
0.000130216
0.000125009
0.000119469
0.000113496
0.000106962
9.97049e-05
9.15204e-05
8.21584e-05
7.1339e-05
5.87715e-05
4.40091e-05
2.65462e-05
8.73525e-06
0.000250283
0.000247641
0.000244864
0.00024196
0.000238942
0.000235816
0.000232592
0.000229274
0.000225865
0.000222366
0.000218776
0.000215094
0.000211319
0.000207449
0.000203483
0.000199421
0.00019526
0.000190999
0.000186637
0.00018217
0.000177593
0.000172902
0.000168092
0.000163158
0.000158092
0.000152881
0.000147499
0.000141894
0.000135981
0.00012966
0.000122818
0.000115322
0.000107002
9.7651e-05
8.70123e-05
7.48045e-05
6.07479e-05
4.47714e-05
2.68707e-05
9.21653e-06
0.000269251
0.000266329
0.000263272
0.000260091
0.000256795
0.000253395
0.000249898
0.000246309
0.00024263
0.000238859
0.000234994
0.000231032
0.000226971
0.000222808
0.00021854
0.000214167
0.000209685
0.000205092
0.000200384
0.000195553
0.000190593
0.000185497
0.000180257
0.000174864
0.000169311
0.000163587
0.00015767
0.000151508
0.000144993
0.000137992
0.000130382
0.000122029
0.000112756
0.000102345
9.05426e-05
7.71108e-05
6.18959e-05
4.48312e-05
2.64092e-05
9.85567e-06
0.000284809
0.000281585
0.000278239
0.00027478
0.000271216
0.00026756
0.000263819
0.000259996
0.00025609
0.000252098
0.000248014
0.000243833
0.000239549
0.00023516
0.000230662
0.000226052
0.000221326
0.000216477
0.0002115
0.000206384
0.00020112
0.000195699
0.000190112
0.00018435
0.000178405
0.000172269
0.00016593
0.000159347
0.000152395
0.000144869
0.000136662
0.000127667
0.000117732
0.000106665
9.41919e-05
7.99723e-05
6.38359e-05
4.60984e-05
2.76271e-05
1.10448e-05
0.000297061
0.000293514
0.00028987
0.000286133
0.00028231
0.000278417
0.000274461
0.000270442
0.000266358
0.000262199
0.000257956
0.000253618
0.000249178
0.000244631
0.000239971
0.000235195
0.000230296
0.000225265
0.000220091
0.000214763
0.000209268
0.000203598
0.000197744
0.000191705
0.000185478
0.000179063
0.000172461
0.000165662
0.00015846
0.000150564
0.00014196
0.000132581
0.000122292
0.000110921
9.82814e-05
8.40735e-05
6.80255e-05
4.9991e-05
3.06361e-05
1.26678e-05
0.00030615
0.00030227
0.000298324
0.000294315
0.000290251
0.000286146
0.000282009
0.000277838
0.000273626
0.000269356
0.000265011
0.000260574
0.000256035
0.000251387
0.000246624
0.00024174
0.000236727
0.000231573
0.000226263
0.000220783
0.000215119
0.000209267
0.00020323
0.000197019
0.000190648
0.000184121
0.000177435
0.000170494
0.000163045
0.000154921
0.00014617
0.000136715
0.000126343
0.000114836
0.000102099
8.79083e-05
7.19259e-05
5.37423e-05
3.38704e-05
1.42151e-05
0.000312383
0.000308199
0.000303981
0.000299734
0.000295465
0.000291187
0.000286908
0.000282626
0.000278328
0.000273992
0.000269587
0.000265086
0.000260473
0.000255743
0.000250894
0.000245921
0.000240815
0.00023556
0.000230137
0.000224528
0.000218724
0.000212732
0.000206573
0.000200282
0.000193868
0.000187303
0.000180541
0.000173461
0.000165891
0.000157722
0.000148972
0.000139518
0.000129161
0.000117719
0.000104968
9.06764e-05
7.45395e-05
5.62036e-05
3.56818e-05
1.53294e-05
0.000316539
0.000312141
0.000307725
0.000303301
0.000298875
0.000294459
0.000290063
0.000285688
0.000281316
0.00027692
0.000272454
0.000267869
0.000263142
0.00025828
0.000253293
0.000248181
0.000242936
0.000237538
0.000231964
0.000226192
0.000220223
0.000214085
0.000207828
0.000201501
0.000195079
0.000188518
0.000181752
0.000174655
0.000167102
0.000159033
0.000150449
0.000141235
0.000131168
0.00012001
0.000107456
9.31836e-05
7.67969e-05
5.78933e-05
3.67598e-05
1.61785e-05
0.000320041
0.000315567
0.000311066
0.000306545
0.000302011
0.000297474
0.000292952
0.00028845
0.000283947
0.00027943
0.000274844
0.000270097
0.000265156
0.00026006
0.000254832
0.000249479
0.000243999
0.000238374
0.000232574
0.000226577
0.000220389
0.000214053
0.00020763
0.000201176
0.000194706
0.00018822
0.000181552
0.000174536
0.000167071
0.000159191
0.000150926
0.000142129
0.000132554
0.000121896
0.000109785
9.57886e-05
7.94409e-05
6.03588e-05
3.87879e-05
1.75191e-05
0.000324767
0.00032038
0.000315929
0.000311412
0.000306835
0.000302198
0.000297544
0.000292895
0.000288227
0.000283549
0.000278771
0.000273778
0.000268559
0.000263162
0.000257616
0.000251941
0.000246153
0.000240248
0.000234204
0.000227992
0.000221608
0.000215082
0.000208472
0.000201897
0.000195372
0.000188834
0.000182127
0.00017511
0.000167709
0.00015994
0.000151818
0.000143237
0.000133981
0.00012372
0.000112016
9.83523e-05
8.21889e-05
6.30996e-05
4.12114e-05
1.90215e-05
0.000332683
0.000328548
0.000324294
0.000319915
0.000315427
0.000310821
0.000306146
0.000301445
0.000296705
0.000291894
0.000286955
0.000281815
0.000276437
0.000270838
0.000265055
0.000259128
0.000253096
0.000246997
0.00024085
0.00023461
0.000228204
0.00022166
0.000215075
0.000208436
0.00020169
0.000194752
0.000187522
0.000179924
0.000171933
0.000163576
0.000154888
0.000145835
0.000136273
0.000125893
0.000114193
0.000100512
8.41095e-05
6.44291e-05
4.19265e-05
1.99443e-05
0.000345453
0.000341786
0.000337966
0.000333979
0.000329839
0.000325525
0.000321052
0.000316502
0.00031186
0.000307082
0.000302168
0.0002971
0.000291827
0.000286316
0.0002806
0.000274733
0.000268756
0.000262748
0.000256786
0.00025075
0.00024445
0.000237882
0.000230982
0.000223723
0.000216088
0.000208049
0.000199577
0.000190653
0.000181283
0.000171508
0.000161385
0.000150956
0.000140189
0.000128873
0.000116512
0.000102312
8.5254e-05
6.42481e-05
3.8813e-05
1.98642e-05
0.000363965
0.000361057
0.000357994
0.000354745
0.000351283
0.000347573
0.000343618
0.000339495
0.0003352
0.000330685
0.000326006
0.000321238
0.000316319
0.00031117
0.000305856
0.000300479
0.000295045
0.000289611
0.000284084
0.000278055
0.000271358
0.00026398
0.000255956
0.000247314
0.000238076
0.000228278
0.000217945
0.000207095
0.000195746
0.000183923
0.00017167
0.000159059
0.000146167
0.000132959
0.000119061
0.000103673
8.56922e-05
6.39011e-05
3.74967e-05
1.99023e-05
0.000388242
0.00038638
0.000384372
0.000382144
0.000379635
0.000376776
0.000373545
0.000370052
0.000366334
0.000362356
0.000358211
0.00035401
0.000349671
0.00034514
0.000340542
0.000335945
0.000331185
0.000326136
0.000320387
0.000313596
0.000305781
0.000297041
0.000287445
0.000276998
0.00026576
0.000253845
0.000241332
0.000228259
0.000214636
0.000200448
0.000185693
0.000170402
0.000154669
0.000138634
0.00012215
0.000104503
8.47258e-05
6.19199e-05
3.50438e-05
4.62898e-06
0.000417394
0.000416692
0.000415889
0.000414863
0.000413463
0.000411589
0.000409269
0.000406626
0.000403697
0.000400465
0.000397061
0.000393606
0.000389981
0.000386091
0.000382035
0.000377907
0.000373507
0.000368332
0.000361709
0.000353524
0.000344128
0.000333843
0.00032265
0.000310427
0.000297242
0.000283279
0.000268659
0.00025342
0.000237539
0.000220942
0.000203626
0.000185625
0.000166916
0.000147533
0.000127546
0.000106431
8.36506e-05
5.9006e-05
3.22363e-05
4.65881e-06
0.000449764
0.000450121
0.000450476
0.000450684
0.000450458
0.000449638
0.00044829
0.000446514
0.000444346
0.000441769
0.00043891
0.000435939
0.000432719
0.000429119
0.000425404
0.000421606
0.000417256
0.000411429
0.000403615
0.000394104
0.000383406
0.000371844
0.000359307
0.000345666
0.00033106
0.000315655
0.00029947
0.000282497
0.000264684
0.000245906
0.000226259
0.000205954
0.000185002
0.000163062
0.000139684
0.000115184
8.9589e-05
6.24073e-05
3.22875e-05
4.72311e-06
0.000483519
0.000484544
0.00048572
0.000486926
0.000487687
0.000487702
0.000486986
0.000485598
0.000483623
0.000481135
0.000478382
0.000475563
0.000472579
0.000469411
0.0004662
0.000462658
0.0004576
0.000450096
0.000440851
0.000430728
0.00041999
0.000408261
0.000395084
0.000380647
0.000365399
0.000349491
0.000332741
0.00031491
0.00029579
0.0002755
0.000254254
0.000232328
0.000209991
0.000187213
0.000162733
0.000136685
0.000109477
7.94044e-05
4.28807e-05
5.49526e-06
0.000516481
0.000517563
0.00051902
0.000520794
0.000521995
0.000522112
0.000521441
0.000520069
0.000518152
0.000515822
0.00051336
0.000510866
0.000508147
0.000505013
0.000501368
0.00049668
0.000490232
0.000481957
0.000472508
0.000462267
0.00045132
0.000439546
0.000426685
0.000412531
0.000397369
0.000381395
0.000364429
0.000346303
0.000326929
0.000306404
0.000284811
0.000261876
0.000238303
0.000214305
0.000188894
0.000160712
0.000131075
9.82736e-05
5.6546e-05
6.76312e-06
0.000546254
0.000547036
0.000548251
0.000549873
0.000551093
0.000551245
0.000550452
0.000549055
0.000547307
0.000545352
0.000543396
0.000541431
0.000538964
0.000535518
0.000531025
0.000525371
0.000518305
0.000509874
0.000500455
0.000490319
0.00047953
0.000467958
0.000455352
0.000441583
0.000426753
0.000410851
0.000393826
0.000375467
0.000355456
0.000333761
0.00031057
0.000286351
0.000261374
0.000235396
0.000207633
0.000176586
0.000143367
0.000107088
6.24157e-05
7.65528e-06
0.000570905
0.000571585
0.000572681
0.000573948
0.0005747
0.000574725
0.000574075
0.000572883
0.000571393
0.000569756
0.000568023
0.000566064
0.000563553
0.000560256
0.000555945
0.000550431
0.000543614
0.000535618
0.000526723
0.000517118
0.000506818
0.000495654
0.000483406
0.000470025
0.000455485
0.000439726
0.000422593
0.00040377
0.000382942
0.000359985
0.000334989
0.000308156
0.000279339
0.000248124
0.000214726
0.00017919
0.000141269
0.000100422
5.67106e-05
7.70153e-06
0.000590032
0.000590664
0.000591544
0.000592509
0.000593155
0.000593279
0.000592872
0.000592044
0.000590945
0.000589657
0.000588166
0.000586351
0.00058402
0.00058101
0.000577149
0.00057228
0.000566353
0.000559457
0.00055176
0.000543315
0.000533952
0.00052338
0.000511557
0.000498586
0.00048443
0.000468935
0.00045182
0.000432755
0.00041152
0.000387965
0.00036195
0.000333471
0.000302438
0.000268313
0.000230783
0.000189537
0.000143821
9.4425e-05
4.66572e-05
7.92961e-06
0.000604604
0.000605279
0.000606087
0.00060693
0.000607608
0.000607972
0.000607985
0.000607702
0.000607178
0.00060643
0.000605419
0.000604045
0.000602181
0.000599707
0.000596511
0.000592502
0.000587642
0.000581952
0.00057548
0.000568185
0.000559843
0.000550209
0.000539237
0.000526891
0.000513152
0.000497895
0.000480885
0.000461819
0.000440705
0.000417466
0.000391993
0.000363934
0.000332879
0.000298646
0.000260691
0.000218283
0.00017029
0.000115489
5.71732e-05
9.58884e-06
0.000615931
0.000616764
0.000617673
0.000618627
0.000619529
0.00062029
0.000620856
0.000621234
0.00062142
0.000621386
0.000621075
0.000620402
0.000619269
0.000617579
0.000615243
0.000612191
0.000608374
0.000603763
0.000598319
0.000591958
0.000584509
0.000575779
0.000565579
0.000553757
0.000540262
0.000525053
0.000508059
0.000489191
0.000468265
0.000445147
0.000419766
0.000391942
0.000361416
0.000327953
0.000291059
0.00024936
0.000201591
0.000144762
7.59009e-05
1.11021e-05
0.000624907
0.000626047
0.000627264
0.000628564
0.000629904
0.000631223
0.000632464
0.000633606
0.000634614
0.000635432
0.000635991
0.000636206
0.000635986
0.000635242
0.000633887
0.000631844
0.000629043
0.00062541
0.000620861
0.000615268
0.000608456
0.000600223
0.000590395
0.000578881
0.00056562
0.000550509
0.000533351
0.000513981
0.000492298
0.000468316
0.000442011
0.000413124
0.000381313
0.000346404
0.000308023
0.000265611
0.000218013
0.000162236
9.0397e-05
1.22751e-05
0.000631966
0.00063358
0.00063531
0.000637176
0.000639154
0.000641199
0.000643253
0.000645277
0.000647219
0.000649007
0.000650561
0.000651789
0.000652596
0.000652887
0.000652565
0.000651535
0.0006497
0.000646954
0.000643174
0.00063821
0.000631887
0.000624025
0.000614471
0.000603114
0.000589844
0.000574502
0.000556876
0.000536788
0.000514143
0.000488901
0.000460957
0.000430053
0.000395857
0.000358092
0.000316397
0.000270217
0.000218481
0.000159336
8.86616e-05
1.21371e-05
0.000637367
0.000639615
0.000642038
0.000644655
0.000647449
0.000650376
0.00065338
0.000656408
0.000659394
0.000662257
0.000664905
0.000667238
0.000669148
0.000670528
0.000671266
0.000671246
0.000670346
0.000668438
0.000665377
0.000661004
0.000655147
0.000647632
0.000638296
0.000626993
0.000613572
0.000597859
0.00057966
0.000558796
0.000535128
0.000508536
0.000478871
0.000445914
0.000409397
0.000369043
0.000324511
0.000275289
0.000220544
0.000158918
8.80678e-05
1.24788e-05
0.000641497
0.000644477
0.000647707
0.0006512
0.000654933
0.000658863
0.000662928
0.000667064
0.000671193
0.000675226
0.000679058
0.000682577
0.000685665
0.000688196
0.000690041
0.000691067
0.000691133
0.000690091
0.000687784
0.000684046
0.000678701
0.000671569
0.000662474
0.000651238
0.000637682
0.000621619
0.000602855
0.000581205
0.000556501
0.000528585
0.000497289
0.00046242
0.00042376
0.000381061
0.000334009
0.000282137
0.000224686