/*--------------------------------*- C++ -*----------------------------------*\
  =========                 |
  \\      /  F ield         | OpenFOAM: The Open Source CFD Toolbox
   \\    /   O peration     | Website:  https://openfoam.org
    \\  /    A nd           | Version:  8
     \\/     M anipulation  |
\*---------------------------------------------------------------------------*/
FoamFile
{
    version     2.0;
    format      ascii;
    class       volScalarField;
    location    "2.3";
    object      p_rgh;
}
// * * * * * * * * * * * * * * * * * * * * * * * * * * * * * * * * * * * * * //

dimensions      [1 -1 -2 0 0 0 0];

internalField   nonuniform List<scalar> 
9150
(
2566.4
2539.39
2513.9
2496.7
2488.4
2488.4
2496.71
2513.9
2539.4
2566.41
2557.16
2537.6
2521.96
2510.15
2504.17
2504.17
2510.15
2521.96
2537.61
2557.17
2547.51
2533.93
2525.4
2517.64
2513.54
2513.54
2517.64
2525.4
2533.93
2547.51
2542.42
2532.39
2526.93
2521.57
2518.6
2518.6
2521.57
2526.94
2532.39
2542.42
2540.76
2531.82
2527.25
2523.08
2520.63
2520.63
2523.08
2527.25
2531.82
2540.76
2101.34
2097.55
2122.68
2136.91
2143.57
2143.57
2136.91
2122.7
2097.56
2101.32
2291.2
2267.15
2261.79
2260.57
2260.71
2260.71
2260.58
2261.8
2267.16
2291.21
2415.24
2384.01
2368.13
2358.25
2353.61
2353.61
2358.26
2368.14
2384.01
2415.25
2515.44
2473.38
2445.63
2428.29
2419.8
2419.8
2428.3
2445.64
2473.39
2515.45
2586.02
2533.18
2494.57
2472.53
2462.4
2462.4
2472.54
2494.58
2533.19
2586.03
1918.28
1955.06
1943.06
1951.63
1947.21
1946.67
1951.28
1941.58
1953.06
1920.09
1946.49
1963.37
1944.27
1951.74
1947.6
1947.36
1951.85
1943.88
1963.23
1947.55
1923.42
1954.01
1922.14
1929.85
1932.85
1932.85
1929.98
1921.94
1954.08
1923.79
1764.1
1888.89
1905.33
1924.05
1940.35
1940.37
1924.06
1905.25
1889.03
1764.06
1637.33
1876.94
1972.91
2003.04
2018.83
2018.83
2003.03
1972.91
1876.99
1637.18
1797.56
1797.87
1798.16
1798.43
1798.69
1798.92
1799.13
1799.33
1799.51
1799.67
1796.48
1796.76
1797.04
1797.3
1797.55
1797.8
1798.04
1798.26
1798.48
1798.69
1795.53
1795.78
1796.03
1796.28
1796.53
1796.79
1797.04
1797.29
1797.54
1797.8
1794.91
1795.14
1795.38
1795.62
1795.87
1796.13
1796.39
1796.66
1796.93
1797.2
1794.53
1794.74
1794.97
1795.21
1795.45
1795.71
1795.97
1796.24
1796.52
1796.81
1794.3
1794.51
1794.73
1794.96
1795.2
1795.46
1795.72
1795.99
1796.27
1796.55
1794.2
1794.4
1794.62
1794.84
1795.08
1795.33
1795.58
1795.85
1796.12
1796.4
1794.19
1794.39
1794.61
1794.83
1795.06
1795.3
1795.55
1795.81
1796.07
1796.33
1794.26
1794.47
1794.68
1794.9
1795.13
1795.36
1795.6
1795.85
1796.09
1796.34
1794.41
1794.62
1794.84
1795.06
1795.29
1795.51
1795.74
1795.97
1796.2
1796.42
1794.64
1794.86
1795.08
1795.31
1795.53
1795.75
1795.97
1796.19
1796.4
1796.59
1794.95
1795.18
1795.41
1795.64
1795.87
1796.1
1796.31
1796.52
1796.71
1796.89
1795.34
1795.58
1795.83
1796.08
1796.32
1796.55
1796.78
1796.99
1797.18
1797.35
1795.8
1796.07
1796.34
1796.61
1796.87
1797.13
1797.38
1797.62
1797.84
1798.03
1796.33
1796.62
1796.92
1797.23
1797.53
1797.83
1798.13
1798.42
1798.7
1798.96
1796.9
1797.23
1797.56
1797.91
1798.26
1798.61
1798.96
1799.31
1799.66
1799.98
1797.49
1797.85
1798.24
1798.64
1799.05
1799.48
1799.91
1800.36
1800.83
1801.32
1798.06
1798.48
1798.91
1799.37
1799.84
1800.32
1800.83
1801.34
1801.87
1802.43
1798.61
1799.08
1799.57
1800.08
1800.61
1801.16
1801.73
1802.31
1802.91
1803.52
1799.13
1799.65
1800.2
1800.77
1801.36
1801.97
1802.6
1803.25
1803.91
1804.58
1799.61
1800.17
1800.77
1801.4
1802.06
1802.75
1803.45
1804.16
1804.89
1805.63
1800.03
1800.62
1801.27
1801.97
1802.71
1803.47
1804.25
1805.05
1805.86
1806.66
1800.33
1800.94
1801.64
1802.43
1803.27
1804.14
1805.03
1805.92
1806.81
1807.7
1800.41
1800.99
1801.75
1802.68
1803.7
1804.74
1805.77
1806.79
1807.79
1808.76
1800.11
1800.59
1801.52
1802.73
1804.03
1805.31
1806.55
1807.72
1808.85
1809.91
1798.39
1797.33
1797.2
1802.45
1804.52
1806.11
1807.54
1808.87
1810.11
1811.25
1780.45
1647.18
1613.05
1770.05
1805.12
1807.24
1808.85
1810.33
1811.66
1812.85
1611.3
1439.38
1442.34
1565.49
1805.48
1810.26
1811.58
1812.79
1813.93
1814.96
1422.74
1425.75
1427.1
1461
1783.28
1813.97
1814.9
1815.73
1816.57
1817.38
1415.86
1417.74
1418.78
1538.31
1797.55
1817.16
1817.91
1818.56
1819.2
1819.83
1409.28
1410.25
1527.71
1784.58
1820.46
1820.64
1821.05
1821.44
1821.85
1822.3
1429.46
1644.03
1808.29
1824.44
1823.86
1823.82
1823.89
1824.05
1824.29
1824.6
1798.48
1829.46
1827.61
1826.83
1826.44
1826.23
1826.15
1826.22
1826.38
1826.63
1829.63
1828.95
1828.48
1828.11
1827.86
1827.74
1827.74
1827.85
1828.05
1828.31
1829.13
1828.95
1828.79
1828.68
1828.64
1828.7
1828.84
1829.04
1829.28
1829.64
1828.54
1828.6
1828.7
1828.83
1829.01
1829.25
1829.25
1828.88
1829.49
1830.75
1827.8
1828.07
1828.38
1828.71
1829.03
1828.87
1828.17
1828.7
1829.98
1831.51
1826.93
1827.36
1827.82
1828.05
1827.3
1827.46
1828.06
1829.26
1831.28
1831.95
1825.83
1826.36
1826.13
1825.57
1826.24
1826.92
1828.88
1830.44
1831.23
1832.04
1824.41
1824.5
1823.72
1824.45
1825.35
1827.99
1828.96
1829.86
1830.72
1831.63
1822.59
1822.8
1822.12
1823.57
1825.81
1826.77
1827.75
1828.16
1829.08
1830.88
1820.42
1821.06
1821.9
1822.83
1823.65
1822.82
1819.99
1821.01
1827.94
1829.97
1817.84
1818.7
1819.51
1820.44
1816.96
1767.24
1750.22
1825.47
1826.81
1828.3
1815.57
1816.31
1817.23
1799.83
1678.62
1675.66
1739.62
1823.94
1825.07
1826.62
1814.36
1815.17
1805.87
1661.58
1654.67
1671.02
1820.96
1821.57
1823
1824.48
1804.62
1669.53
1555.33
1760.1
1818.5
1812.47
1818.42
1819.93
1820.79
1821.07
1128.93
1047.78
1270.95
1776.85
1813.74
1816.72
1817.44
1817.73
1817.69
1787.4
896.969
897.066
898.876
1076.06
1562.92
1814.26
1816.56
1817.75
1744.99
1600.26
892.128
891.845
891.332
891.071
903.701
974.845
1277.32
1669.79
1750.41
1681.84
891.098
890.736
890.351
889.999
890.078
890.798
892.12
1015.77
1644.66
1812.76
888.936
889.159
889.166
889.228
889.234
935.287
1030.94
1323.87
1746.19
1815.14
970.68
907.788
989.133
1283.68
1511.46
1637.63
1720.32
1794.53
1822.97
1822.2
1666.25
1611.88
1679.88
1824.32
1847.92
1842.73
1836.74
1830.73
1825.53
1821.55
1826.57
1830.09
1833
1834.23
1833.42
1831.24
1828.19
1824.74
1821.31
1818.17
1824.9
1826.05
1826.91
1827.1
1826.39
1824.89
1822.8
1820.32
1817.67
1814.98
1821.74
1822.38
1822.7
1822.59
1821.95
1820.83
1819.28
1817.39
1815.22
1812.84
1818.07
1818.84
1819.73
1819.65
1819.23
1818.5
1817.47
1816.11
1814.47
1812.52
1815.81
1816.7
1817.14
1815
1812.95
1814.66
1817.11
1816.39
1815.41
1814.14
1814.25
1815.06
1815.71
1814.82
1811.94
1811.55
1811.58
1811.64
1812.39
1816.4
1813.38
1807.26
1782.9
1803.88
1814.38
1815.76
1816.3
1812.36
1813.26
1815.39
1812.19
1776.33
1755.59
1756.25
1786.35
1815.9
1817.13
1817.83
1817.8
1821.47
1810.88
1778.23
1752.94
1754.28
1756.33
1812.17
1816.95
1818.32
1821.5
1816.5
1809.26
1805.03
1752.42
1753.02
1794.36
1815.08
1816.91
1755.03
1357.78
858.441
1806.29
1808.51
1797.25
1800.67
1805.69
1793.1
1583.92
983.987
712.886
723.791
1803.93
1806.64
1807.79
1808.49
1787.81
1413.45
779.256
679.418
683.866
917.994
1803.05
1805.04
1806.85
1805.72
1404.84
687.616
657.648
661.171
790.282
989.046
1800.6
1802.44
1797.36
1375.29
665.693
631.547
711.278
762.062
725.366
733.799
1795.6
1746.87
1276.1
607.149
546.714
606.401
722.167
727.57
716.532
727.194
1673.37
1127.09
543.026
507.706
517.881
555.509
655.096
945.225
1256.08
1476.92
993.956
487.221
464.348
477.168
522.574
741.146
987.224
1205.54
1556.21
1839.28
445.004
422.676
433.968
448.628
849.768
1372.17
1305.31
808.61
999.11
1681.36
378.621
391.721
402.646
992.738
1493.61
1399.08
770.943
735.462
807.542
1588.58
346.982
355.903
911.776
1561.21
1487.08
782.414
707.491
713.664
860.505
1655.09
314.946
638.46
1556.21
1564.61
943.259
678.856
680.214
687.214
929.037
1704.9
286.842
1315.48
1613.89
1520.47
717.544
660.194
660.874
670.822
1237.99
1770.4
636.929
1583.26
1614.6
1376.36
664.735
647.765
647.077
735.63
1568.48
1772.31
1084.89
1633.63
1619.64
1157.35
660.416
646.212
644.691
1394.18
1756.25
1756.01
1496.31
1640.86
1628.58
844.587
696.72
658.967
1127.87
1724.58
1754.17
1741.21
1693.68
1678.75
1147.28
754.31
726.803
946.306
1638.39
1760.11
1748.28
1728.87
1721.41
1487.63
786.198
790.775
890.546
1618.68
1776.18
1763.39
1743.36
1718.93
1746.51
842.167
760.143
837.733
1643.93
1801.56
1786.5
1765.22
1739.79
1711.1
995.429
691.671
759.453
1607.14
1827.59
1811.68
1790.02
1764.38
1735.4
1703.77
609.146
630.361
1505.41
1843.15
1830.87
1811.99
1788.64
1761.19
1730.43
1697.04
483.963
1091.41
1847.75
1854.67
1836.49
1814.44
1788.64
1759.35
1727.24
1692.37
458.253
1767.77
1884.32
1862.49
1839.93
1815.51
1788.18
1758.05
1725.57
1690.01
946.668
1879.71
1882.02
1859.69
1836.94
1812.7
1785.93
1756.76
1725.27
1690.55
1171.35
1885.86
1870.39
1849.95
1829.53
1807.66
1783.33
1756.7
1727.3
1693.94
1172.13
1866.46
1856.05
1839.99
1822.99
1804.28
1783.19
1759.88
1733.77
1705.89
1212.3
1865.97
1850.97
1835.62
1820.59
1804.49
1786.59
1766.72
1744.39
1631.29
1285.01
1845.28
1838.97
1829.58
1818.9
1806.76
1792.97
1777.59
1761.07
1440.86
1334.16
1839.24
1834.87
1828.3
1820.65
1811.83
1801.61
1790.1
1778.2
1363.37
1353.81
1837.76
1835.6
1831.26
1825.95
1819.72
1812.3
1803.75
1795.16
1322.35
1355.11
1838.92
1839.29
1837.13
1833.94
1829.87
1824.63
1818.25
1811.86
1304.37
1371.24
1843.63
1845.92
1845.63
1844.48
1842.3
1838.77
1834.1
1828.5
1313.64
1408.86
1853.1
1857.52
1858.44
1858.62
1857.53
1854.97
1851.73
1846.74
1374.17
1486.37
1872.71
1876.5
1876.11
1875.73
1874.31
1871.81
1870.33
1864.34
1436.92
1593.18
1898.84
1897.39
1894.11
1892.5
1890.57
1888.2
1887.6
1880.99
1516.56
1687.76
1912.16
1911.03
1908.71
1907.37
1905.89
1904.59
1903.85
1898.65
1610.51
1753.26
1927.18
1925.1
1923.78
1922
1921.07
1921.83
1921.96
1922.98
1723.37
1833.83
1953.35
1940.53
1939.44
1935.98
1935.21
1938.22
1937.4
1949.45
1834.99
1799.82
1799.97
1800.11
1800.24
1800.36
1800.48
1800.6
1800.71
1800.84
1800.96
1801.09
1801.22
1801.36
1801.49
1801.63
1801.77
1801.9
1802.03
1802.15
1802.26
1802.36
1802.44
1802.51
1802.55
1802.58
1802.58
1802.55
1802.51
1802.43
1802.35
1802.25
1802.15
1802.06
1802.01
1802
1802.05
1802.15
1802.27
1802.36
1802.68
1798.91
1799.12
1799.33
1799.54
1799.74
1799.93
1800.13
1800.32
1800.51
1800.7
1800.88
1801.06
1801.24
1801.4
1801.57
1801.72
1801.86
1801.98
1802.09
1802.19
1802.27
1802.33
1802.37
1802.38
1802.38
1802.35
1802.3
1802.23
1802.15
1802.06
1801.97
1801.89
1801.84
1801.83
1801.89
1802
1802.16
1802.35
1802.55
1802.87
1798.06
1798.34
1798.61
1798.88
1799.15
1799.41
1799.67
1799.93
1800.18
1800.42
1800.66
1800.88
1801.09
1801.29
1801.47
1801.64
1801.79
1801.92
1802.03
1802.12
1802.19
1802.25
1802.27
1802.28
1802.27
1802.23
1802.18
1802.11
1802.04
1801.96
1801.88
1801.83
1801.79
1801.79
1801.83
1801.9
1802
1802.15
1802.4
1802.79
1797.49
1797.8
1798.1
1798.41
1798.72
1799.02
1799.33
1799.62
1799.91
1800.19
1800.45
1800.71
1800.95
1801.17
1801.37
1801.56
1801.73
1801.88
1802
1802.11
1802.19
1802.26
1802.3
1802.32
1802.32
1802.3
1802.26
1802.21
1802.15
1802.08
1802.01
1801.94
1801.87
1801.81
1801.75
1801.71
1801.69
1801.77
1802.05
1802.53
1797.11
1797.43
1797.75
1798.08
1798.41
1798.74
1799.06
1799.38
1799.69
1799.99
1800.29
1800.56
1800.83
1801.08
1801.31
1801.52
1801.71
1801.88
1802.04
1802.17
1802.28
1802.37
1802.44
1802.49
1802.52
1802.53
1802.53
1802.51
1802.47
1802.42
1802.35
1802.26
1802.15
1802
1801.82
1801.6
1801.34
1801.21
1801.4
1802.18
1796.86
1797.18
1797.51
1797.84
1798.17
1798.51
1798.84
1799.17
1799.5
1799.82
1800.14
1800.44
1800.73
1801.01
1801.27
1801.51
1801.73
1801.94
1802.12
1802.29
1802.44
1802.57
1802.68
1802.77
1802.85
1802.91
1802.95
1802.97
1802.98
1802.96
1802.92
1802.83
1802.7
1802.49
1802.16
1801.67
1800.96
1798.24
1792.5
1799.82
1796.7
1797.01
1797.33
1797.66
1797.98
1798.32
1798.65
1798.99
1799.32
1799.66
1799.99
1800.32
1800.63
1800.94
1801.24
1801.52
1801.78
1802.03
1802.26
1802.47
1802.66
1802.84
1803
1803.14
1803.27
1803.39
1803.5
1803.59
1803.67
1803.73
1803.77
1803.79
1803.78
1803.7
1803.55
1803.26
1799.72
1783.28
1780.89
1780.61
1796.61
1796.91
1797.21
1797.51
1797.82
1798.13
1798.45
1798.78
1799.12
1799.46
1799.82
1800.17
1800.52
1800.87
1801.21
1801.53
1801.84
1802.14
1802.42
1802.68
1802.93
1803.16
1803.37
1803.58
1803.77
1803.95
1804.13
1804.29
1804.46
1804.63
1804.8
1804.97
1805.15
1805.33
1805.53
1805.74
1799.9
1780.09
1779.75
1779.4
1796.6
1796.86
1797.13
1797.39
1797.66
1797.94
1798.22
1798.52
1798.85
1799.2
1799.58
1799.97
1800.37
1800.76
1801.16
1801.54
1801.91
1802.26
1802.6
1802.92
1803.22
1803.51
1803.78
1804.04
1804.29
1804.54
1804.78
1805.02
1805.26
1805.51
1805.78
1806.08
1806.4
1806.78
1807.21
1807.71
1808.25
1793.96
1779.05
1778.59
1796.65
1796.87
1797.09
1797.29
1797.5
1797.7
1797.92
1798.16
1798.45
1798.79
1799.21
1799.65
1800.13
1800.6
1801.07
1801.52
1801.96
1802.38
1802.78
1803.16
1803.53
1803.87
1804.2
1804.51
1804.82
1805.11
1805.4
1805.69
1805.99
1806.29
1806.6
1806.92
1807.27
1807.64
1808.04
1808.44
1808.82
1808.75
1800.25
1792.78
1796.78
1796.96
1797.11
1797.23
1797.34
1797.41
1797.48
1797.58
1797.77
1798.15
1798.66
1799.22
1799.79
1800.36
1800.92
1801.47
1802.01
1802.51
1802.98
1803.42
1803.85
1804.24
1804.62
1804.99
1805.33
1805.67
1805.99
1806.31
1806.63
1806.95
1807.26
1807.58
1807.9
1808.22
1808.52
1808.79
1808.96
1808.93
1808.57
1807.95
1797.05
1797.16
1797.24
1797.27
1797.24
1797.09
1796.25
1795.94
1796.59
1797.1
1797.81
1798.56
1799.21
1799.89
1800.64
1801.43
1802.06
1802.65
1803.2
1803.71
1804.19
1804.63
1805.06
1805.46
1805.84
1806.2
1806.55
1806.88
1807.2
1807.52
1807.82
1808.1
1808.37
1808.6
1808.8
1808.92
1808.93
1808.74
1808.27
1807.68
1797.49
1797.57
1797.59
1797.52
1797.36
1797.1
1793.13
1778.49
1787.23
1795.34
1796.59
1796.92
1797.88
1799.29
1800.59
1801.4
1802.16
1802.84
1803.46
1804.04
1804.56
1805.05
1805.51
1805.93
1806.34
1806.72
1807.07
1807.41
1807.73
1808.03
1808.31
1808.55
1808.77
1808.93
1809.04
1809.06
1808.96
1808.68
1808.19
1807.66
1798.18
1798.28
1798.29
1798.2
1797.99
1797.71
1795.43
1749.84
1736.82
1792.69
1791.78
1794.99
1798.16
1799.43
1800.58
1801.54
1802.4
1803.15
1803.83
1804.44
1805
1805.52
1805.99
1806.44
1806.85
1807.23
1807.6
1807.93
1808.24
1808.52
1808.77
1808.99
1809.16
1809.28
1809.33
1809.29
1809.13
1808.81
1808.34
1807.85
1799.21
1799.43
1799.61
1799.76
1799.88
1800.06
1800.43
1715.83
1610.21
1769.72
1790.81
1793.2
1798.2
1799.71
1800.93
1801.97
1802.87
1803.65
1804.34
1804.97
1805.51
1806.03
1806.53
1806.98
1807.39
1807.77
1808.13
1808.46
1808.75
1809.02
1809.25
1809.44
1809.58
1809.67
1809.68
1809.61
1809.44
1809.11
1808.66
1808.21
1800.3
1800.58
1800.78
1800.85
1800.74
1800.31
1798.82
1712.47
1573.35
1608.13
1790.56
1797.09
1799.93
1801.19
1802.13
1802.98
1803.74
1804.44
1805.07
1805.65
1806.12
1806.59
1807.06
1807.57
1807.97
1808.35
1808.69
1809.01
1809.29
1809.54
1809.76
1809.93
1810.05
1810.12
1810.12
1810.04
1809.86
1809.55
1809.13
1808.72
1801.86
1802.48
1803.22
1804.13
1805.38
1807.23
1809.89
1756.51
1558.63
1546.71
1670.9
1795.92
1799.93
1801.57
1802.85
1803.81
1804.61
1805.31
1805.89
1806.43
1806.88
1807.28
1807.71
1808.16
1808.6
1808.96
1809.29
1809.59
1809.86
1810.11
1810.31
1810.47
1810.59
1810.65
1810.64
1810.56
1810.39
1810.11
1809.72
1809.37
1803.03
1803.69
1804.4
1805.18
1806.08
1807.19
1808.48
1798.22
1616.7
1528.78
1522.17
1665.11
1807.03
1805.7
1805.61
1805.87
1806.2
1806.57
1806.99
1807.38
1807.77
1808.15
1808.47
1808.87
1809.29
1809.63
1809.95
1810.24
1810.49
1810.73
1810.93
1811.09
1811.2
1811.25
1811.25
1811.18
1811.03
1810.78
1810.44
1810.13
1804.18
1804.88
1805.61
1806.36
1807.12
1807.89
1808.58
1809
1794.9
1597.47
1512.65
1507.4
1679.18
1808.25
1807.26
1807.39
1807.51
1807.68
1807.96
1808.26
1808.6
1808.97
1809.32
1809.67
1810.01
1810.35
1810.66
1810.94
1811.19
1811.42
1811.62
1811.78
1811.89
1811.96
1811.96
1811.91
1811.79
1811.57
1811.28
1811.01
1805.29
1806.04
1806.8
1807.55
1808.28
1808.97
1809.57
1809.99
1810.14
1802.3
1607.6
1499.08
1493.25
1665.34
1807.78
1808.76
1808.78
1808.61
1808.81
1809.1
1809.43
1809.73
1809.53
1809.96
1810.76
1811.13
1811.43
1811.69
1811.92
1812.19
1812.4
1812.57
1812.69
1812.76
1812.79
1812.76
1812.66
1812.48
1812.23
1812
1806.41
1807.22
1808.05
1808.88
1809.71
1810.56
1811.42
1812.33
1813.28
1814.33
1815.26
1635.43
1481.38
1486.58
1568.03
1767.59
1809.69
1809.12
1809.38
1809.81
1810.22
1810.6
1809.78
1809.97
1810.34
1811.57
1812.2
1812.53
1812.71
1813.06
1813.28
1813.46
1813.59
1813.69
1813.74
1813.73
1813.65
1813.51
1813.3
1813.1
1807.5
1808.38
1809.25
1810.12
1810.99
1811.87
1812.76
1813.68
1814.62
1815.53
1816.8
1819.99
1748.28
1511.25
1509.45
1510
1631.7
1809.1
1810.05
1810.62
1811.08
1811.51
1811.41
1810.83
1811.15
1811.43
1811.89
1813.11
1813.63
1814.02
1814.26
1814.46
1814.62
1814.74
1814.81
1814.83
1814.78
1814.66
1814.48
1814.31
1808.61
1809.54
1810.45
1811.36
1812.25
1813.15
1814.03
1814.93
1815.83
1816.71
1817.59
1818.67
1820.41
1821.51
1624.4
1505.74
1504.11
1565.68
1786.76
1811.06
1811.91
1812.47
1812.9
1813.02
1813.09
1812.38
1812.68
1812.97
1814.18
1815.07
1815.36
1815.59
1815.79
1815.93
1816.03
1816.07
1816.05
1815.95
1815.78
1815.63
1809.74
1810.73
1811.68
1812.61
1813.51
1814.4
1815.27
1816.13
1816.98
1817.82
1818.65
1819.43
1820.04
1820.45
1821.57
1740.84
1497.35
1496.09
1528.24
1764.36
1813.57
1814.01
1814.29
1814.42
1814.42
1814.64
1814.3
1814.03
1814.6
1816.15
1816.56
1816.85
1817.09
1817.27
1817.4
1817.47
1817.46
1817.37
1817.21
1817.05
1810.96
1811.99
1812.97
1813.91
1814.8
1815.67
1816.5
1817.3
1818.07
1818.82
1819.53
1820.19
1820.72
1821.07
1821.42
1822.43
1783.36
1511.76
1500.49
1504.47
1734.37
1815.91
1815.98
1815.37
1815.43
1815.71
1815.95
1815.27
1815.97
1817.38
1817.87
1818.23
1818.54
1818.77
1818.94
1819.03
1819.03
1818.94
1818.75
1818.58
1812.35
1813.4
1814.38
1815.3
1816.18
1817.01
1817.79
1818.53
1819.24
1819.89
1820.5
1821.05
1821.52
1821.88
1822.12
1822.3
1822.57
1803.9
1526.88
1496.69
1493.77
1718.18
1817.69
1817.46
1812.61
1815.44
1816.45
1817.37
1817.98
1818.71
1819.31
1819.77
1820.15
1820.44
1820.65
1820.76
1820.77
1820.66
1820.43
1820.16
1813.96
1815
1815.95
1816.84
1817.67
1818.45
1819.18
1819.86
1820.5
1821.09
1821.63
1822.11
1822.53
1822.88
1823.16
1823.33
1823.35
1823.27
1807.75
1523.32
1485.67
1482.91
1734.89
1819.53
1820.37
1764.71
1794.25
1818.23
1819.28
1820.12
1820.84
1821.44
1821.92
1822.29
1822.54
1822.68
1822.69
1822.55
1822.25
1821.14
1815.95
1816.88
1817.74
1818.54
1819.3
1820.01
1820.68
1821.3
1821.88
1822.42
1822.91
1823.35
1823.75
1824.1
1824.42
1824.7
1824.95
1825.16
1825.57
1790.7
1493.15
1473.97
1517.06
1784.39
1824.4
1751.45
1742.3
1808.37
1820.72
1821.77
1822.63
1823.35
1823.92
1824.35
1824.64
1824.79
1824.8
1824.63
1824.19
1822.79
1818.18
1818.95
1819.68
1820.38
1821.05
1821.68
1822.28
1822.84
1823.36
1823.85
1824.29
1824.7
1825.07
1825.4
1825.72
1826.03
1826.36
1826.74
1827.26
1828.28
1734.63
1464.73
1447.17
1636.44
1814.45
1771.18
1716.55
1785.83
1822.56
1823.7
1824.68
1825.49
1826.13
1826.62
1826.94
1827.11
1827.09
1826.88
1826.31
1824.83
1820.46
1821.09
1821.7
1822.3
1822.88
1823.43
1823.96
1824.47
1824.93
1825.37
1825.77
1826.12
1826.43
1826.69
1826.89
1827.02
1827.07
1826.97
1826.66
1826.05
1825.22
1631.83
1436.55
1430.28
1703.58
1776.33
1713.84
1725.85
1817.48
1826.52
1827.32
1828.06
1828.68
1829.17
1829.49
1829.64
1829.6
1829.32
1828.65
1827.05
1822.77
1823.25
1823.74
1824.25
1824.75
1825.24
1825.71
1826.17
1826.6
1827.01
1827.38
1827.71
1828.01
1828.26
1828.47
1828.64
1828.76
1828.85
1828.9
1828.91
1828.95
1828.93
1474.54
1421.76
1579.2
1780.27
1718.78
1637.72
1777.17
1828.51
1829.62
1830.55
1831.29
1831.85
1832.21
1832.36
1832.29
1831.95
1831.2
1829.45
1824.95
1825.33
1825.73
1826.17
1826.61
1827.06
1827.5
1827.93
1828.35
1828.74
1829.1
1829.42
1829.71
1829.95
1830.14
1830.27
1830.32
1830.28
1830.13
1829.8
1829.18
1828.27
1691.25
1412.38
1436.4
1753.55
1732.32
1624.98
1667.39
1831.2
1832.49
1833.46
1834.23
1834.79
1835.15
1835.28
1835.15
1834.74
1833.99
1832.7
1826.91
1827.24
1827.61
1828.01
1828.43
1828.87
1829.3
1829.74
1830.16
1830.56
1830.94
1831.3
1831.62
1831.9
1832.14
1832.34
1832.51
1832.67
1832.85
1833.13
1833.59
1834.59
1816.63
1413.92
1340.1
1630.12
1689.65
1616.03
1616.26
1785.11
1835.8
1836.76
1837.45
1837.96
1838.28
1838.36
1838.18
1837.69
1836.91
1836.11
1828.61
1828.95
1829.32
1829.74
1830.18
1830.63
1831.09
1831.56
1832.02
1832.47
1832.89
1833.3
1833.66
1833.98
1834.25
1834.45
1834.59
1834.65
1834.64
1834.56
1834.43
1834.3
1828.5
1509.34
1318.99
1411.91
1659.46
1658.91
1613.07
1655.84
1837.89
1839.76
1840.64
1841.17
1841.48
1841.53
1841.3
1840.74
1839.9
1839.06
1830.04
1830.43
1830.86
1831.33
1831.82
1832.33
1832.85
1833.39
1833.92
1834.44
1834.95
1835.44
1835.89
1836.29
1836.63
1836.88
1837.02
1837.03
1836.86
1836.48
1835.8
1834.64
1832.33
1584.11
1305.16
1378.81
1659.86
1657.95
1609.64
1610.25
1720.81
1842.97
1844.05
1844.54
1844.77
1844.75
1844.45
1843.85
1842.95
1841.67
1831.2
1831.69
1832.21
1832.76
1833.34
1833.94
1834.56
1835.19
1835.83
1836.47
1837.11
1837.73
1838.32
1838.88
1839.37
1839.77
1840.07
1840.21
1840.14
1839.8
1839.06
1837.66
1835.08
1625.49
1287.98
1308.02
1654.79
1655.59
1633.42
1609.87
1651.08
1843.57
1846.85
1847.6
1847.91
1847.89
1847.59
1847.02
1846.19
1843.82
1832.09
1832.7
1833.33
1834
1834.7
1835.43
1836.17
1836.94
1837.72
1838.52
1839.32
1840.13
1840.93
1841.7
1842.44
1843.13
1843.75
1844.29
1844.74
1845.1
1845.39
1845.7
1846.1
1739.6
1295.47
1219.02
1532.43
1646.83
1650.59
1623.23
1772.56
1849.28
1850.52
1851.06
1851.32
1851.22
1850.89
1850.37
1849.73
1847.56
1832.67
1833.42
1834.2
1835.02
1835.86
1836.74
1837.64
1838.57
1839.53
1840.51
1841.52
1842.55
1843.6
1844.64
1845.68
1846.69
1847.67
1848.6
1849.46
1850.23
1850.99
1851.78
1851.77
1729.08
1262.99
1189.97
1296.45
1618.26
1631.9
1645.13
1840.92
1855.53
1855.49
1855.37
1855.26
1854.96
1854.55
1854.11
1853.75
1851.74
1832.9
1833.81
1834.76
1835.74
1836.76
1837.81
1838.89
1840.01
1841.17
1842.37
1843.61
1844.9
1846.22
1847.58
1848.97
1850.38
1851.81
1853.25
1854.68
1856.15
1857.79
1859.19
1849.55
1497.37
1174.2
1174.22
1173.48
1259.16
1353.63
1546.19
1806.46
1862.26
1861.21
1860.36
1859.77
1859.23
1858.73
1858.34
1858.18
1856.85
1832.74
1833.85
1834.96
1836.12
1837.32
1838.56
1839.85
1841.17
1842.55
1843.98
1845.47
1847.02
1848.64
1850.33
1852.1
1853.95
1855.88
1857.89
1860.03
1862.45
1864.98
1862.38
1584.95
1186.41
1170.33
1171.07
1171.7
1173.09
1176.65
1261.61
1707.43
1868.83
1867.43
1865.83
1864.76
1863.99
1863.4
1863.04
1862.98
1861.67
1832.24
1833.49
1834.78
1836.12
1837.5
1838.94
1840.43
1841.97
1843.57
1845.23
1846.97
1848.79
1850.71
1852.72
1854.86
1857.14
1859.58
1862.22
1865.18
1868.75
1872.21
1781.29
1280.23
1168.49
1168.22
1169.07
1170.24
1171.3
1172.55
1278.19
1728.86
1873.68
1872.36
1870.9
1869.83
1869.01
1868.41
1868.05
1867.98
1864.76
1831.3
1832.72
1834.18
1835.69
1837.26
1838.88
1840.57
1842.32
1844.14
1846.03
1848.01
1850.07
1852.25
1854.55
1857
1859.64
1862.5
1865.65
1869.25
1873.64
1878.16
1764.11
1263.38
1165.1
1165.1
1165.63
1165.98
1173.13
1331.88
1710.02
1873.93
1877.75
1876.77
1875.78
1874.9
1874.17
1873.61
1873.19
1872.95
1869.14
1829.87
1831.5
1833.14
1834.82
1836.54
1838.34
1840.23
1842.18
1844.21
1846.31
1848.49
1850.77
1853.16
1855.67
1858.32
1861.13
1864.14
1867.39
1870.96
1875.02
1879.73
1884.63
1729.82
1261.74
1157.28
1157.96
1275.52
1596.87
1843.34
1884.73
1882.85
1882.09
1881.4
1880.67
1879.98
1879.35
1878.81
1878.3
1877.41
1873.63
1828.25
1829.94
1831.55
1833.12
1835.13
1837.34
1839.37
1841.52
1843.74
1846.04
1848.41
1850.88
1853.44
1856.11
1858.87
1861.74
1864.72
1867.78
1870.88
1873.96
1876.89
1879.52
1881.62
1822.81
1570.2
1564.21
1868.5
1886.73
1885.72
1885.73
1885.9
1885.84
1885.57
1885.2
1884.77
1884.33
1883.82
1883.23
1881.21
1877.97
1826.13
1826.85
1825.38
1827.5
1833.51
1835.74
1837.92
1840.28
1842.72
1845.21
1847.75
1850.4
1853.16
1856.01
1858.93
1861.92
1864.99
1868.1
1871.18
1874.16
1876.96
1879.14
1875.12
1792.26
1680.27
1781.86
1884.6
1886.89
1888.19
1888.95
1889.37
1889.56
1889.59
1889.5
1889.31
1889.02
1888.57
1887.95
1885.27
1882.25
1817.41
1813.44
1815.65
1825.32
1831.28
1833.34
1835.75
1838.46
1841.18
1843.79
1846.44
1849.28
1852.29
1855.35
1858.43
1861.61
1864.88
1868.2
1871.48
1874.74
1877.98
1880.67
1841.9
1622.59
1621.44
1621.2
1811.44
1889.6
1891.1
1891.93
1892.54
1892.99
1893.32
1893.49
1893.54
1893.39
1893.06
1892.46
1889.89
1886.54
1716.39
1729.91
1820.79
1823.14
1818.97
1788.74
1789.24
1828.04
1839.44
1841.95
1843.23
1845.91
1850.21
1854.27
1857.39
1860.7
1864.23
1867.82
1871.36
1874.83
1878.25
1881.51
1873.95
1714.22
1620.21
1621.35
1631.28
1865.52
1893.48
1894.67
1895.54
1896.26
1896.84
1897.27
1897.52
1897.57
1897.38
1896.88
1895.36
1890.97
1602.97
1608.59
1792.72
1824.25
1751.34
1696.18
1698.95
1715.27
1817.15
1798.25
1760.54
1772.81
1822.39
1835.3
1822.16
1836.65
1851.98
1864.12
1870.09
1874.59
1878.02
1880.66
1883.89
1886.79
1768.64
1621.59
1625.58
1678.54
1871.06
1897.27
1898.51
1899.48
1900.3
1900.96
1901.42
1901.67
1901.67
1901.33
1900.47
1897.25
1595.41
1597.94
1696.94
1818.85
1702.6
1691.61
1694.38
1706.9
1710.68
1715.05
1719.65
1723.27
1789.26
1795.92
1776.95
1780.99
1784.68
1803.19
1818.54
1833.56
1851.91
1870.14
1879.99
1882.5
1884.27
1855.05
1679.27
1674.84
1692.41
1858.66
1901.38
1902.8
1903.82
1904.67
1905.36
1905.84
1906.09
1906.01
1905.56
1905.19
1811.59
1815.12
1768.67
1685.63
1688.11
1693.63
1815.62
1832.14
1831.64
1791.41
1780.3
1830.58
1844.63
1810.27
1779.57
1778.72
1783.75
1786.16
1789.27
1792.86
1796.35
1799.47
1817.54
1843.65
1861.78
1865.96
1868.5
1715.97
1695.31
1703.82
1829.26
1902.04
1907.45
1908.52
1909.46
1910.23
1910.79
1911.06
1911.02
1910.99
1816.6
1817.75
1815.72
1774.52
1752.54
1814.56
1823.9
1826.13
1828.64
1831.46
1834.75
1838.63
1842.94
1847.35
1852.15
1857.27
1854.03
1846.13
1835.08
1821.1
1807.17
1797.89
1799.88
1802.76
1805.3
1822.37
1852.51
1853.66
1748.65
1706.22
1711.61
1801.62
1903.71
1912.61
1913.86
1914.98
1915.94
1916.68
1917.15
1917.57
1819.72
1818.09
1817.13
1816.78
1816.98
1817.59
1818.82
1820.63
1822.97
1825.85
1829.33
1833.39
1837.92
1842.82
1848.04
1853.5
1859.08
1864.66
1870.18
1875.61
1880.9
1880.24
1861.07
1840.58
1819.78
1812.03
1814.37
1846.77
1858.86
1790.89
1711.65
1712.3
1794.57
1909.75
1918.63
1920.25
1921.71
1923.03
1924.15
1925.13
1818.4
1815.94
1814.15
1812.94
1812.32
1812.34
1813.02
1814.41
1816.57
1819.43
1823.03
1827.35
1832.3
1837.78
1843.68
1849.86
1856.17
1862.49
1868.7
1874.69
1880.37
1885.65
1890.54
1895.18
1899.46
1877.64
1846.18
1832.04
1863.01
1874.27
1823.29
1710.82
1713.14
1799.44
1920.76
1926.24
1928.24
1930.23
1932.13
1933.76
1815.24
1812.56
1810.06
1807.9
1806.58
1806.17
1806.56
1807.52
1809.37
1812.11
1815.8
1820.39
1825.81
1831.95
1838.64
1845.71
1852.97
1860.25
1867.39
1874.26
1880.74
1886.74
1892.23
1897.22
1901.7
1905.83
1909.71
1876.4
1861.02
1882.46
1923.94
1790.48
1714.48
1715.19
1836.17
1932.67
1935.61
1938.28
1941.05
1943.45
1812.14
1809.16
1806.31
1803.61
1801.47
1798.73
1799.64
1800.1
1801.53
1804.09
1807.76
1812.59
1818.5
1825.36
1832.97
1841.11
1849.51
1857.94
1866.17
1874.03
1881.41
1888.23
1894.45
1900.07
1905.08
1909.54
1913.54
1917.29
1901.71
1911.09
1928.27
1922.6
1726.14
1717.56
1719.23
1894.84
1943.11
1946.79
1950.67
1954
1810.1
1806.97
1795.92
1748.65
1737.26
1786.53
1792.89
1792.56
1793.23
1795.63
1799.15
1804.17
1810.56
1818.2
1826.85
1836.24
1846.01
1855.79
1865.3
1874.3
1882.66
1890.31
1897.23
1903.43
1908.95
1913.85
1918.2
1922.16
1925.95
1929.48
1932.69
1935.94
1874.38
1720.43
1724.78
1770.42
1940.41
1955.58
1960.84
1965.27
1810.07
1806.95
1803.35
1688.56
1451.04
1641.65
1775.94
1760.33
1751.08
1751.86
1770.8
1792.53
1801.38
1810.35
1820.38
1831.36
1842.81
1854.21
1865.15
1875.37
1884.74
1893.18
1900.72
1907.41
1913.29
1918.48
1923.07
1927.17
1930.9
1934.33
1937.42
1940.34
1943.92
1842.78
1729.12
1733.9
1879.47
1964.94
1971.51
1977.08
1812.35
1809.81
1806.39
1801.25
1598.55
1166.47
1094.61
1095.37
1048.29
1047.27
1131.1
1333.79
1568.51
1750.82
1812.2
1826.32
1840.13
1853.74
1866.33
1877.74
1887.98
1897.05
1905.02
1912
1918.07
1923.37
1928.02
1932.15
1935.89
1939.35
1942.6
1945.71
1948.96
1953.46
1821.94
1739.59
1807.84
1969.71
1981.93
1988.81
1817.54
1816.87
1815.89
1814.48
1811.77
1417.98
717.709
667.42
667.957
668.261
668.38
668.545
775.293
1080.71
1541.59
1787.56
1832.93
1854.87
1869.84
1882.14
1892.81
1902.09
1910.13
1917.06
1923.05
1928.22
1932.73
1936.73
1940.36
1943.73
1946.96
1950.15
1953.38
1957.11
1962.67
1750.03
1801.71
1965.91
1991.6
1999.87
1821.95
1823.39
1825.67
1830.54
1785.24
1046.24
668.961
668.152
668.181
668.252
668.283
668.324
668.423
668.734
810.829
1450.29
1823.48
1861.2
1877.41
1889.34
1899.49
1908.23
1915.74
1922.18
1927.72
1932.52
1936.71
1940.45
1943.89
1947.16
1950.41
1953.77
1957.35
1961.52
1967.67
1843.58
1805.44
1924.08
2000.06
2009.48
1822.91
1831.29
1767.69
1426.39
856.125
673.487
669.755
668.725
668.44
668.336
668.354
668.44
668.605
668.803
669.772
1034.55
1783.39
1876.9
1889.84
1899.08
1907.33
1914.59
1920.92
1926.42
1931.21
1935.39
1939.09
1942.45
1945.59
1948.65
1951.75
1955.05
1958.66
1962.83
1968.55
1915.78
1807.01
1889.12
2006.85
2018.1
1381.06
977.201
806.592
726.034
715.896
690.537
675.158
670.982
668.402
668.34
668.456
668.583
668.99
670.123
674.379
1034.83
1790.37
1897.03
1903.35
1908.47
1913.93
1919.15
1923.94
1928.29
1932.2
1935.69
1938.87
1941.82
1944.66
1947.49
1950.45
1953.68
1957.3
1961.48
1966.78
1968.33
1807.39
1872.98
2006.24
2023.22
744.708
755.571
786.446
872.908
979.584
1080.79
994.375
746.937
666.357
665.089
666.251
668.336
672.52
693.784
940.952
1676.45
1911.89
1910.72
1910.06
1912.13
1915.41
1919
1922.59
1926.03
1929.24
1932.2
1934.96
1937.61
1940.23
1942.93
1945.85
1949.15
1953
1957.57
1963.4
1972.33
1836.75
1854.08
1996.99
2023.72
880.066
1220.8
1364.28
1508.67
1709.92
1784.88
1716.65
1308.89
791.704
745.842
802.524
944.83
1138.97
1471.37
1905.59
1911.41
1907.18
1904.25
1904.39
1906.39
1909.17
1912.24
1915.37
1918.4
1921.25
1923.92
1926.47
1928.96
1931.49
1934.18
1937.18
1940.63
1944.75
1949.73
1956.08
1965.51
1867.77
1849.83
1970.93
2020.4
1356.06
1352.92
1283.55
1528.86