/*--------------------------------*- C++ -*----------------------------------*\
  =========                 |
  \\      /  F ield         | OpenFOAM: The Open Source CFD Toolbox
   \\    /   O peration     | Website:  https://openfoam.org
    \\  /    A nd           | Version:  8
     \\/     M anipulation  |
\*---------------------------------------------------------------------------*/
FoamFile
{
    version     2.0;
    format      ascii;
    class       surfaceScalarField;
    location    "2.3";
    object      phi;
}
// * * * * * * * * * * * * * * * * * * * * * * * * * * * * * * * * * * * * * //

dimensions      [0 3 -1 0 0 0 0];

internalField   nonuniform List<scalar> 
18095
(
1.58352e-07
-9.65653e-07
8.07301e-07
1.65315e-07
-1.24816e-06
1.2412e-06
1.22173e-07
-1.24222e-06
1.28536e-06
6.5315e-08
-1.26349e-06
1.32034e-06
3.62976e-12
-1.28049e-06
1.3458e-06
-6.53085e-08
-1.28049e-06
1.3458e-06
-1.22168e-07
-1.26349e-06
1.32034e-06
-1.65309e-07
-1.24221e-06
1.28536e-06
-1.58348e-07
-1.24815e-06
1.24119e-06
-9.6566e-07
8.07313e-07
1.10993e-07
-1.07665e-06
9.93764e-08
-1.23654e-06
7.28428e-08
-1.21568e-06
4.00301e-08
-1.23067e-06
9.21125e-13
-1.24046e-06
-4.00285e-08
-1.24046e-06
-7.28416e-08
-1.23067e-06
-9.93737e-08
-1.21568e-06
-1.10989e-07
-1.23654e-06
-1.07665e-06
6.71202e-08
-1.14377e-06
5.27308e-08
-1.22215e-06
4.21266e-08
-1.20508e-06
2.38533e-08
-1.2124e-06
-5.95615e-13
-1.2166e-06
-2.38544e-08
-1.2166e-06
-4.21275e-08
-1.2124e-06
-5.27308e-08
-1.20508e-06
-6.71178e-08
-1.22215e-06
-1.14377e-06
3.95993e-08
-1.18337e-06
2.66151e-08
-1.20917e-06
2.20072e-08
-1.20047e-06
1.25214e-08
-1.20291e-06
-1.10851e-12
-1.20408e-06
-1.25234e-08
-1.20408e-06
-2.20087e-08
-1.20291e-06
-2.66159e-08
-1.20047e-06
-3.95984e-08
-1.20917e-06
-1.18337e-06
1.66351e-08
7.46471e-09
6.9932e-09
4.07939e-09
-7.03867e-13
-4.08062e-09
-6.99404e-09
-7.46519e-09
-1.66349e-08
-1.74805e-07
-1.16405e-06
1.33885e-06
-2.18908e-07
-1.21633e-06
1.26043e-06
-1.65089e-07
-1.2128e-06
1.15898e-06
-8.70923e-08
-1.20409e-06
1.1261e-06
8.56401e-11
-1.20264e-06
1.11546e-06
8.7259e-08
-1.20265e-06
1.11547e-06
1.65231e-07
-1.20412e-06
1.12615e-06
2.19044e-07
-1.21282e-06
1.15901e-06
1.74962e-07
-1.21638e-06
1.26046e-06
-1.16413e-06
1.33909e-06
-9.30407e-08
-1.07101e-06
-9.56623e-08
-1.2137e-06
-7.92398e-08
-1.22922e-06
-4.41809e-08
-1.23915e-06
4.79048e-11
-1.24686e-06
4.42722e-08
-1.24687e-06
7.93231e-08
-1.23917e-06
9.57365e-08
-1.22924e-06
9.30834e-08
-1.21373e-06
-1.07105e-06
-5.79179e-08
-1.01309e-06
-5.51346e-08
-1.21649e-06
-4.64821e-08
-1.23787e-06
-2.70949e-08
-1.25854e-06
2.77494e-11
-1.27399e-06
2.71476e-08
-1.27399e-06
4.65276e-08
-1.25855e-06
5.51685e-08
-1.23788e-06
5.79339e-08
-1.21649e-06
-1.01311e-06
-7.46953e-08
-9.38396e-07
-6.18762e-08
-1.22931e-06
-4.85366e-08
-1.25121e-06
-2.77474e-08
-1.27933e-06
1.54384e-11
-1.30175e-06
2.77764e-08
-1.30175e-06
4.85606e-08
-1.27933e-06
6.1892e-08
-1.25121e-06
7.47019e-08
-1.2293e-06
-9.38412e-07
-1.31095e-07
-1.19203e-07
-8.50541e-08
-4.40387e-08
8.17507e-12
4.40538e-08
8.50658e-08
1.19211e-07
1.311e-07
-3.43133e-08
-9.26757e-07
9.6107e-07
1.00247e-08
-1.34178e-06
1.29744e-06
1.33319e-08
-1.27628e-06
1.27298e-06
7.27182e-09
-1.22811e-06
1.23417e-06
1.62154e-09
-1.22538e-06
1.23103e-06
-4.24846e-09
-1.22582e-06
1.23169e-06
-1.06938e-08
-1.22836e-06
1.23481e-06
-8.62537e-09
-1.27686e-06
1.27479e-06
2.99724e-08
-1.34318e-06
1.30458e-06
-9.2748e-07
9.57452e-07
1.61537e-08
-9.42911e-07
2.24551e-08
-1.34808e-06
1.46788e-08
-1.26851e-06
7.89473e-09
-1.22133e-06
7.88497e-10
-1.21827e-06
-6.54238e-09
-1.21849e-06
-1.36639e-08
-1.22124e-06
-2.19256e-08
-1.2686e-06
-1.69093e-08
-1.34819e-06
-9.44389e-07
2.99349e-08
-9.72846e-07
2.095e-08
-1.3391e-06
1.21259e-08
-1.25968e-06
7.01396e-09
-1.21621e-06
3.74614e-10
-1.21163e-06
-6.47607e-09
-1.21164e-06
-1.15444e-08
-1.21617e-06
-2.04108e-08
-1.25973e-06
-2.95377e-08
-1.33907e-06
-9.73927e-07
8.0134e-08
-1.05298e-06
5.35229e-08
-1.31248e-06
3.43584e-08
-1.24052e-06
2.12752e-08
-1.20313e-06
2.09337e-10
-1.19057e-06
-2.08606e-08
-1.19057e-06
-3.38317e-08
-1.2032e-06
-5.29708e-08
-1.24059e-06
-7.96092e-08
-1.31243e-06
-1.05354e-06
2.85875e-07
2.3382e-07
1.52278e-07
7.52434e-08
1.34502e-10
-7.49592e-08
-1.52015e-07
-2.33594e-07
-2.85558e-07
-8.3609e-08
-5.88244e-09
8.94914e-08
-7.75727e-08
-6.03594e-09
-7.14387e-08
-6.13386e-09
-6.52607e-08
-6.17781e-09
-5.90929e-08
-6.1677e-09
-5.29884e-08
-6.10431e-09
-4.6999e-08
-5.98932e-09
-4.1174e-08
-5.82487e-09
-3.55596e-08
-5.61421e-09
-5.35816e-09
-3.02013e-08
-8.02588e-08
-1.05057e-08
8.48823e-08
-7.54917e-08
-1.08027e-08
-7.06254e-08
-1.1e-08
-6.57057e-08
-1.10974e-08
-6.07778e-08
-1.10955e-08
-5.5886e-08
-1.0996e-08
-5.10733e-08
-1.08019e-08
-4.6381e-08
-1.0517e-08
-4.18487e-08
-1.01464e-08
-9.69533e-09
-3.75115e-08
-7.65417e-08
-1.43109e-08
8.0347e-08
-7.26043e-08
-1.47401e-08
-6.85722e-08
-1.5032e-08
-6.44841e-08
-1.51854e-08
-6.03785e-08
-1.52011e-08
-5.62931e-08
-1.50813e-08
-5.22648e-08
-1.48301e-08
-4.83289e-08
-1.44527e-08
-4.45191e-08
-1.39562e-08
-1.33494e-08
-4.0865e-08
-7.31828e-08
-1.75207e-08
7.63926e-08
-6.98483e-08
-1.80748e-08
-6.64222e-08
-1.84581e-08
-6.29386e-08
-1.8669e-08
-5.94315e-08
-1.87082e-08
-5.59343e-08
-1.85784e-08
-5.24801e-08
-1.82842e-08
-4.91007e-08
-1.78321e-08
-4.58263e-08
-1.72307e-08
-1.64911e-08
-4.26846e-08
-7.01472e-08
-2.02778e-08
7.29042e-08
-6.72696e-08
-2.09524e-08
-6.4302e-08
-2.14257e-08
-6.12752e-08
-2.16958e-08
-5.82202e-08
-2.17633e-08
-5.5168e-08
-2.16306e-08
-5.21496e-08
-2.13026e-08
-4.91951e-08
-2.07866e-08
-4.63335e-08
-2.00922e-08
-1.92323e-08
-4.35922e-08
-6.74145e-08
-2.26886e-08
6.98253e-08
-6.48848e-08
-2.34819e-08
-6.22647e-08
-2.40459e-08
-5.95825e-08
-2.43781e-08
-5.68674e-08
-2.44784e-08
-5.41492e-08
-2.43488e-08
-5.14579e-08
-2.3994e-08
-4.88233e-08
-2.34212e-08
-4.62748e-08
-2.26407e-08
-2.16661e-08
-4.38409e-08
-6.49698e-08
-2.48337e-08
6.7115e-08
-6.27047e-08
-2.57469e-08
-6.03457e-08
-2.64049e-08
-5.79196e-08
-2.68042e-08
-5.54543e-08
-2.69436e-08
-5.29789e-08
-2.68242e-08
-5.05233e-08
-2.64497e-08
-4.81179e-08
-2.58266e-08
-4.57939e-08
-2.49647e-08
-2.38777e-08
-4.35824e-08
-6.28031e-08
-2.67706e-08
6.47401e-08
-6.07414e-08
-2.78087e-08
-5.85787e-08
-2.85677e-08
-5.63403e-08
-2.90426e-08
-5.4053e-08
-2.92309e-08
-5.17453e-08
-2.91319e-08
-4.94472e-08
-2.87478e-08
-4.71907e-08
-2.80831e-08
-4.50091e-08
-2.71462e-08
-2.59495e-08
-4.29374e-08
-6.09125e-08
-2.85346e-08
6.26764e-08
-5.90148e-08
-2.97065e-08
-5.70048e-08
-3.05776e-08
-5.49059e-08
-3.11416e-08
-5.27432e-08
-3.13936e-08
-5.05442e-08
-3.1331e-08
-4.8339e-08
-3.09529e-08
-4.61607e-08
-3.02615e-08
-4.40454e-08
-2.92617e-08
-2.79631e-08
-4.2032e-08
-5.93078e-08
-3.01379e-08
6.09111e-08
-5.75577e-08
-3.14567e-08
-5.56792e-08
-3.24561e-08
-5.36931e-08
-3.31277e-08
-5.16221e-08
-3.34646e-08
-4.9492e-08
-3.3461e-08
-4.73319e-08
-3.3113e-08
-4.5175e-08
-3.24185e-08
-4.30588e-08
-3.1378e-08
-2.9996e-08
-4.1026e-08
-5.80133e-08
-3.15703e-08
5.94458e-08
-5.6417e-08
-3.3053e-08
-5.46722e-08
-3.4201e-08
-5.2796e-08
-3.50039e-08
-5.0808e-08
-3.54525e-08
-4.87311e-08
-3.5538e-08
-4.65916e-08
-3.52525e-08
-4.44207e-08
-3.45894e-08
-4.22552e-08
-3.35436e-08
-3.21125e-08
-4.01387e-08
-5.7067e-08
-3.28026e-08
5.82993e-08
-5.56511e-08
-3.44688e-08
-5.40639e-08
-3.57882e-08
-5.2319e-08
-3.67489e-08
-5.04321e-08
-3.73394e-08
-4.84218e-08
-3.75483e-08
-4.631e-08
-3.73644e-08
-4.41233e-08
-3.67762e-08
-4.1894e-08
-3.57729e-08
-3.43445e-08
-3.96621e-08
-5.65144e-08
-3.37952e-08
5.7507e-08
-5.53185e-08
-3.56646e-08
-5.39293e-08
-3.71775e-08
-5.23574e-08
-3.83208e-08
-5.06149e-08
-3.90819e-08
-4.87157e-08
-3.94476e-08
-4.66762e-08
-3.94039e-08
-4.45161e-08
-3.89363e-08
-4.22602e-08
-3.80289e-08
-3.66652e-08
-3.99395e-08
-5.63929e-08
-3.45122e-08
5.711e-08
-5.54569e-08
-3.66007e-08
-5.43109e-08
-3.83236e-08
-5.29641e-08
-3.96677e-08
-5.14259e-08
-4.06201e-08
-4.97066e-08
-4.1167e-08
-4.78171e-08
-4.12934e-08
-4.57705e-08
-4.09828e-08
-4.35827e-08
-4.02167e-08
-3.89744e-08
-4.12736e-08
-5.67105e-08
-3.49388e-08
5.7137e-08
-5.60582e-08
-3.72531e-08
-5.51899e-08
-3.91919e-08
-5.41147e-08
-4.0743e-08
-5.28407e-08
-4.18942e-08
-5.13758e-08
-4.26319e-08
-4.97278e-08
-4.29414e-08
-4.79049e-08
-4.28057e-08
-4.59163e-08
-4.22054e-08
-4.11182e-08
-4.37725e-08
-5.74144e-08
-3.50936e-08
5.75691e-08
-5.70408e-08
-3.76268e-08
-5.64584e-08
-3.97743e-08
-5.56757e-08
-4.15257e-08
-5.46998e-08
-4.28701e-08
-5.35366e-08
-4.37952e-08
-5.21909e-08
-4.4287e-08
-5.06665e-08
-4.43301e-08
-4.89655e-08
-4.39065e-08
-4.29966e-08
-4.70872e-08
-5.8375e-08
-3.50234e-08
5.83047e-08
-5.82494e-08
-3.77524e-08
-5.79362e-08
-4.00875e-08
-5.74423e-08
-4.20197e-08
-5.67734e-08
-4.3539e-08
-5.59352e-08
-4.46334e-08
-5.49337e-08
-4.52885e-08
-5.37759e-08
-4.54879e-08
-5.24702e-08
-4.52121e-08
-4.44393e-08
-5.10275e-08
-5.93732e-08
-3.47868e-08
5.91366e-08
-5.94474e-08
-3.76783e-08
-5.93608e-08
-4.01741e-08
-5.91138e-08
-4.22667e-08
-5.87056e-08
-4.39472e-08
-5.81354e-08
-4.52035e-08
-5.74024e-08
-4.60216e-08
-5.65057e-08
-4.63846e-08
-5.54442e-08
-4.62735e-08
-4.56674e-08
-5.42161e-08
-6.0159e-08
-3.44226e-08
5.97948e-08
-6.03992e-08
-3.74381e-08
-6.05065e-08
-4.00667e-08
-6.04704e-08
-4.23028e-08
-6.02799e-08
-4.41377e-08
-5.99241e-08
-4.55593e-08
-5.93924e-08
-4.65531e-08
-5.86743e-08
-4.71027e-08
-5.77572e-08
-4.71906e-08
-4.67994e-08
-5.66253e-08
-6.04913e-08
-3.39288e-08
5.99975e-08
-6.08991e-08
-3.70302e-08
-6.11974e-08
-3.97684e-08
-6.13614e-08
-4.21388e-08
-6.13674e-08
-4.41317e-08
-6.1194e-08
-4.57328e-08
-6.08221e-08
-4.6925e-08
-6.02345e-08
-4.76903e-08
-5.94138e-08
-4.80113e-08
-4.78726e-08
-5.83406e-08
-6.01906e-08
-3.32558e-08
5.95178e-08
-6.08122e-08
-3.64085e-08
-6.13393e-08
-3.92413e-08
-6.17279e-08
-4.17502e-08
-6.19391e-08
-4.39206e-08
-6.19413e-08
-4.57306e-08
-6.17106e-08
-4.71558e-08
-6.12289e-08
-4.81721e-08
-6.04821e-08
-4.87581e-08
-4.8897e-08
-5.94577e-08
-5.91743e-08
-3.23135e-08
5.82321e-08
-6.01018e-08
-3.54809e-08
-6.09383e-08
-3.84048e-08
-6.16099e-08
-4.10787e-08
-6.20574e-08
-4.34731e-08
-6.22404e-08
-4.55476e-08
-6.21346e-08
-4.72616e-08
-6.17278e-08
-4.85789e-08
-6.10156e-08
-4.94703e-08
-4.99145e-08
-5.99982e-08
-5.74454e-08
-3.09629e-08
5.60947e-08
-5.88301e-08
-3.40963e-08
-6.01106e-08
-3.71244e-08
-6.11576e-08
-4.00317e-08
-6.1885e-08
-4.27456e-08
-6.225e-08
-4.51827e-08
-6.22394e-08
-4.72723e-08
-6.18583e-08
-4.896e-08
-6.11216e-08
-5.0207e-08
-5.09885e-08
-6.00476e-08
-5.50862e-08
-2.90075e-08
5.31308e-08
-5.71623e-08
-3.20203e-08
-5.90921e-08
-3.51946e-08
-6.06359e-08
-3.8488e-08
-6.16731e-08
-4.17082e-08
-6.21843e-08
-4.46716e-08
-6.21971e-08
-4.72595e-08
-6.17562e-08
-4.94009e-08
-6.09091e-08
-5.10541e-08
-5.21977e-08
-5.96999e-08
-5.22417e-08
-2.61994e-08
4.94335e-08
-5.53678e-08
-2.88942e-08
-5.82392e-08
-3.23232e-08
-6.04006e-08
-3.63266e-08
-6.16998e-08
-4.04091e-08
-6.22258e-08
-4.41456e-08
-6.21129e-08
-4.73723e-08
-6.14772e-08
-5.00367e-08
-6.04121e-08
-5.21192e-08
-5.36199e-08
-5.899e-08
-4.88157e-08
-2.24832e-08
4.50996e-08
-5.37205e-08
-2.39897e-08
-5.82595e-08
-2.77841e-08
-6.09847e-08
-3.36014e-08
-6.2175e-08
-3.92187e-08
-6.23692e-08
-4.39513e-08
-6.1871e-08
-4.78705e-08
-6.0871e-08
-5.10367e-08
-5.94954e-08
-5.34947e-08
-5.52885e-08
-5.78268e-08
-4.5273e-08
-1.88298e-08
4.16194e-08
-5.28396e-08
-1.64232e-08
-6.10453e-08
-1.95785e-08
-6.28875e-08
-3.17592e-08
-6.28234e-08
-3.9283e-08
-6.21016e-08
-4.46731e-08
-6.09423e-08
-4.903e-08
-5.94935e-08
-5.24856e-08
-5.78362e-08
-5.5152e-08
-5.71123e-08
-5.60125e-08
-5.21073e-08
-1.33883e-08
4.66658e-08
-5.78329e-08
-1.06972e-08
-6.03167e-08
-1.70943e-08
-6.11736e-08
-3.09019e-08
-6.03213e-08
-4.01351e-08
-5.91883e-08
-4.58061e-08
-5.78981e-08
-5.03201e-08
-5.64815e-08
-5.39021e-08
-5.4958e-08
-5.66754e-08
-5.87353e-08
-5.3335e-08
-6.04325e-08
-8.36144e-09
5.54056e-08
-6.02558e-08
-1.08744e-08
-5.77881e-08
-1.95624e-08
-5.64149e-08
-3.22754e-08
-5.53823e-08
-4.11677e-08
-5.44293e-08
-4.67592e-08
-5.34896e-08
-5.12598e-08
-5.25135e-08
-5.48782e-08
-5.14773e-08
-5.77117e-08
-5.98496e-08
-5.03631e-08
-6.21571e-08
-7.96914e-09
6.17648e-08
-5.87609e-08
-1.42694e-08
-5.38821e-08
-2.44409e-08
-5.12418e-08
-3.49157e-08
-5.03505e-08
-4.20591e-08
-4.97677e-08
-4.7342e-08
-4.93179e-08
-5.17097e-08
-4.89238e-08
-5.52723e-08
-4.85232e-08
-5.81123e-08
-6.03042e-08
-4.80685e-08
-5.69427e-08
-1.20243e-08
6.09978e-08
-5.1253e-08
-1.99588e-08
-4.69552e-08
-2.87387e-08
-4.57344e-08
-3.61364e-08
-4.56693e-08
-4.21243e-08
-4.58427e-08
-4.71686e-08
-4.617e-08
-5.13824e-08
-4.65684e-08
-5.48738e-08
-4.69634e-08
-5.77172e-08
-5.99716e-08
-4.7296e-08
-4.78494e-08
-1.68177e-08
5.2643e-08
-4.41672e-08
-2.36412e-08
-4.27519e-08
-3.01541e-08
-4.27483e-08
-3.61401e-08
-4.33493e-08
-4.15232e-08
-4.43069e-08
-4.6211e-08
-4.54517e-08
-5.02376e-08
-4.667e-08
-5.36556e-08
-4.78771e-08
-5.65101e-08
-5.88424e-08
-4.90064e-08
-4.3773e-08
-1.90545e-08
4.60098e-08
-4.28145e-08
-2.45995e-08
-4.28335e-08
-3.01351e-08
-4.35687e-08
-3.54049e-08
-4.48534e-08
-4.02385e-08
-4.64913e-08
-4.45731e-08
-4.83278e-08
-4.84011e-08
-5.02474e-08
-5.1736e-08
-5.21593e-08
-5.45982e-08
-5.70109e-08
-5.39908e-08
-4.75779e-08
-1.99961e-08
4.85195e-08
-4.73811e-08
-2.47963e-08
-4.79436e-08
-2.95726e-08
-4.9175e-08
-3.41735e-08
-5.09241e-08
-3.84894e-08
-5.30358e-08
-4.24614e-08
-5.53738e-08
-4.6063e-08
-5.78235e-08
-4.92862e-08
-6.02886e-08
-5.2133e-08
-5.46098e-08
-6.26898e-08
-5.54673e-08
-2.01617e-08
5.56329e-08
-5.59725e-08
-2.42912e-08
-5.71304e-08
-2.84147e-08
-5.88661e-08
-3.24379e-08
-6.10676e-08
-3.62879e-08
-6.36155e-08
-3.99135e-08
-6.63958e-08
-4.32827e-08
-6.93031e-08
-4.63789e-08
-7.2242e-08
-4.91941e-08
-5.17241e-08
-7.51277e-08
-6.63581e-08
-1.93751e-08
6.55715e-08
-6.76992e-08
-2.29502e-08
-6.95722e-08
-2.65417e-08
-7.19205e-08
-3.00897e-08
-7.46642e-08
-3.35441e-08
-7.77118e-08
-3.68658e-08
-8.09685e-08
-4.00259e-08
-8.43444e-08
-4.3003e-08
-8.77406e-08
-4.57979e-08
-4.8383e-08
-9.10818e-08
-7.9666e-08
-1.75442e-08
7.78351e-08
-8.19431e-08
-2.06732e-08
-8.4648e-08
-2.38368e-08
-8.77376e-08
-2.69999e-08
-9.1149e-08
-3.01327e-08
-9.48098e-08
-3.3205e-08
-9.86218e-08
-3.62138e-08
-1.02499e-07
-3.91257e-08
-1.06376e-07
-4.1921e-08
-4.45738e-08
-1.10185e-07
-9.49701e-08
-1.46305e-08
9.20563e-08
-9.82559e-08
-1.73874e-08
-1.01891e-07
-2.02021e-08
-1.05831e-07
-2.30594e-08
-1.10021e-07
-2.59429e-08
-1.14374e-07
-2.88513e-08
-1.18822e-07
-3.17667e-08
-1.2329e-07
-3.46576e-08
-1.27709e-07
-3.75017e-08
-4.02704e-08
-1.32012e-07
-1.11934e-07
-1.06101e-08
1.07914e-07
-1.1628e-07
-1.30423e-08
-1.20919e-07
-1.55627e-08
-1.25801e-07
-1.81773e-08
-1.30854e-07
-2.08899e-08
-1.36006e-07
-2.36995e-08
-1.41179e-07
-2.65933e-08
-1.46295e-07
-2.95415e-08
-1.51292e-07
-3.25046e-08
-3.54559e-08
-1.56107e-07
-1.30189e-07
-5.47431e-09
1.25053e-07
-1.35627e-07
-7.60393e-09
-1.4132e-07
-9.86946e-09
-1.47212e-07
-1.2285e-08
-1.53232e-07
-1.48705e-08
-1.59271e-07
-1.76603e-08
-1.65239e-07
-2.06259e-08
-1.71048e-07
-2.37319e-08
-1.76645e-07
-2.6908e-08
-3.0137e-08
-1.81964e-07
-1.4923e-07
7.60006e-10
1.42996e-07
-1.55768e-07
-1.0654e-09
-1.62575e-07
-3.06275e-09
-1.69585e-07
-5.27521e-09
-1.76669e-07
-7.78658e-09
-1.83693e-07
-1.06358e-08
-1.90508e-07
-1.38105e-08
-1.97063e-07
-1.71776e-08
-2.03232e-07
-2.07386e-08
-2.43594e-08
-2.0901e-07
-1.68446e-07
8.09054e-09
1.61116e-07
-1.76146e-07
6.63484e-09
-1.84143e-07
4.93403e-09
-1.92315e-07
2.89649e-09
-2.00558e-07
4.56533e-10
-2.08729e-07
-2.46517e-09
-2.16636e-07
-5.90286e-09
-2.23787e-07
-1.00265e-08
-2.30435e-07
-1.40906e-08
-1.82213e-08
-2.36573e-07
-1.86953e-07
1.67413e-08
1.78302e-07
-1.96122e-07
1.58039e-08
-2.05623e-07
1.44351e-08
-2.15261e-07
1.25346e-08
-2.24875e-07
1.00706e-08
-2.34648e-07
7.30733e-09
-2.43294e-07
2.74289e-09
-2.50677e-07
-2.64289e-09
-2.57524e-07
-7.24331e-09
-1.19128e-08
-2.63833e-07
-2.03497e-07
2.79369e-08
1.92302e-07
-2.1526e-07
2.75668e-08
-2.2697e-07
2.6145e-08
-2.38758e-07
2.43222e-08
-2.50205e-07
2.15179e-08
-2.59711e-07
1.68137e-08
-2.67748e-07
1.07794e-08
-2.75598e-07
5.20706e-09
-2.82738e-07
-1.03461e-10
-5.33176e-09
-2.89319e-07
-2.17951e-07
4.32034e-08
2.02684e-07
-2.34522e-07
4.41384e-08
-2.50778e-07
4.24004e-08
-2.64644e-07
3.81889e-08
-2.7486e-07
3.1733e-08
-2.83581e-07
2.55349e-08
-2.91438e-07
1.86363e-08
-2.98805e-07
1.25744e-08
-3.05842e-07
6.93359e-09
1.39102e-09
-3.12565e-07
-2.26204e-07
6.48991e-08
2.04508e-07
-2.54323e-07
7.22576e-08
-2.76728e-07
6.48051e-08
-2.88199e-07
4.96601e-08
-2.9719e-07
4.0724e-08
-3.04247e-07
3.25912e-08
-3.11038e-07
2.54282e-08
-3.17793e-07
1.93283e-08
-3.24721e-07
1.38618e-08
8.47856e-09
-3.31808e-07
-2.3769e-07
1.04494e-07
1.98095e-07
-2.89243e-07
1.2381e-07
-3.06312e-07
8.18733e-08
-3.13473e-07
5.68213e-08
-3.17352e-07
4.4603e-08
-3.21421e-07
3.66605e-08
-3.26489e-07
3.04961e-08
-3.32467e-07
2.53063e-08
-3.39382e-07
2.07764e-08
1.59539e-08
-3.46857e-07
-2.45191e-07
1.39828e-07
2.09857e-07
-2.65885e-07
1.44504e-07
-2.98192e-07
1.1418e-07
-3.14884e-07
7.35137e-08
-3.22357e-07
5.20762e-08
-3.2954e-07
4.38436e-08
-3.37051e-07
3.80071e-08
-3.45276e-07
3.35309e-08
-3.5327e-07
2.87705e-08
2.35683e-08
-3.60885e-07
-2.00105e-07
1.50131e-07
1.89802e-07
-2.10884e-07
1.55282e-07
-2.3539e-07
1.38686e-07
-2.70769e-07
1.08893e-07
-3.02323e-07
8.36301e-08
-3.27649e-07
6.917e-08
-3.42643e-07
5.30006e-08
-3.52119e-07
4.30075e-08
-3.59481e-07
3.61316e-08
2.89362e-08
-3.64848e-07
-1.94902e-07
1.42382e-07
2.02652e-07
-1.93274e-07
1.53653e-07
-2.02162e-07
1.47574e-07
-2.25987e-07
1.32717e-07
-2.5924e-07
1.16883e-07
-2.85037e-07
9.49677e-08
-3.08015e-07
7.59781e-08
-3.26058e-07
6.10513e-08
-3.36948e-07
4.70208e-08
3.57878e-08
-3.43799e-07
-2.15492e-07
1.24449e-07
2.33425e-07
-1.99289e-07
1.37449e-07
-1.95276e-07
1.4356e-07
-2.02062e-07
1.39503e-07
-2.15166e-07
1.29988e-07
-2.35181e-07
1.14983e-07
-2.55677e-07
9.64739e-08
-2.71895e-07
7.72698e-08
-2.85272e-07
6.03969e-08
4.65064e-08
-2.9599e-07
-2.17643e-07
1.06816e-07
2.35276e-07
-1.95672e-07
1.15478e-07
-1.8278e-07
1.30668e-07
-1.77361e-07
1.34084e-07
-1.77832e-07
1.30459e-07
-1.83538e-07
1.20689e-07
-1.94065e-07
1.07e-07
-2.07958e-07
9.11631e-08
-2.22971e-07
7.54105e-08
6.10531e-08
-2.37518e-07
-1.9777e-07
9.88281e-08
2.05757e-07
-1.91355e-07
1.09063e-07
-1.7891e-07
1.18223e-07
-1.68023e-07
1.23197e-07
-1.60496e-07
1.22932e-07
-1.57662e-07
1.17855e-07
-1.59715e-07
1.09054e-07
-1.66403e-07
9.78515e-08
-1.76499e-07
8.55062e-08
7.28321e-08
-1.88278e-07
-1.71861e-07
9.35922e-08
1.77097e-07
-1.64696e-07
1.01898e-07
-1.55347e-07
1.08873e-07
-1.45433e-07
1.13284e-07
-1.36819e-07
1.14318e-07
-1.30967e-07
1.12003e-07
-1.28691e-07
1.06778e-07
-1.30113e-07
9.92727e-08
-1.34727e-07
9.01205e-08
7.97938e-08
-1.41689e-07
-1.34175e-07
8.79204e-08
1.39847e-07
-1.27065e-07
9.47881e-08
-1.18654e-07
1.00463e-07
-1.09702e-07
1.04331e-07
-1.01344e-07
1.05961e-07
-9.4557e-08
1.05216e-07
-8.99866e-08
1.02207e-07
-8.78928e-08
9.7179e-08
-8.81878e-08
9.04156e-08
8.21728e-08
-9.05668e-08
-9.08094e-08
8.15603e-08
9.71695e-08
-8.34774e-08
8.7456e-08
-7.53525e-08
9.23381e-08
-6.68756e-08
9.58544e-08
-5.8631e-08
9.77159e-08
-5.11715e-08
9.77563e-08
-4.49085e-08
9.59444e-08
-4.00739e-08
9.23444e-08
-3.67201e-08
8.70618e-08
8.02252e-08
-3.47726e-08
-4.70338e-08
7.47095e-08
5.38845e-08
-3.95266e-08
7.9949e-08
-3.14932e-08
8.43045e-08
-2.31703e-08
8.75315e-08
-1.48614e-08
8.9407e-08
-6.81056e-09
8.97055e-08
7.58344e-10
8.83755e-08
7.70075e-09
8.5402e-08
1.39819e-08
8.07805e-08
7.45593e-08
1.96478e-08
-7.07424e-09
6.78884e-08
1.38953e-08
1.64674e-10
7.271e-08
7.75592e-09
7.67132e-08
1.5631e-08
7.96563e-08
2.36713e-08
8.13667e-08
3.17485e-08
8.16282e-08
3.97438e-08
8.03803e-08
4.7642e-08
7.75037e-08
5.54467e-08
7.29759e-08
6.6746e-08
6.32601e-08
2.56031e-08
6.19236e-08
-1.96383e-08
3.17174e-08
6.65952e-08
3.79868e-08
7.04437e-08
4.44842e-08
7.3159e-08
5.12327e-08
7.46182e-08
5.8123e-08
7.47379e-08
6.51395e-08
7.33638e-08
7.21757e-08
7.04676e-08
7.92595e-08
6.58921e-08
5.95753e-08
8.64301e-08
4.86299e-08
5.77777e-08
-4.4484e-08
5.26787e-08
6.25461e-08
5.64371e-08
6.66852e-08
6.03788e-08
6.92174e-08
6.45174e-08
7.04796e-08
6.88144e-08
7.04409e-08
7.31898e-08
6.89883e-08
7.77174e-08
6.594e-08
8.24342e-08
6.11752e-08
5.49125e-08
8.70969e-08
6.04392e-08
5.66555e-08
-5.9317e-08
6.13131e-08
6.16722e-08
6.20546e-08
6.59436e-08
6.23858e-08
6.88861e-08
6.25119e-08
7.03535e-08
6.25894e-08
7.03634e-08
6.2632e-08
6.89457e-08
6.28189e-08
6.57531e-08
6.3451e-08
6.05431e-08
5.37896e-08
6.45739e-08
6.27255e-08
5.93033e-08
-6.53733e-08
5.95416e-08
6.48561e-08
5.59642e-08
6.95211e-08
5.17358e-08
7.31145e-08
4.65917e-08
7.54977e-08
4.06341e-08
7.63209e-08
3.36937e-08
7.58861e-08
2.55582e-08
7.38884e-08
1.63992e-08
6.9702e-08
6.23899e-08
7.79898e-09
5.89441e-08
6.56353e-08
-6.52761e-08
5.18496e-08
7.19506e-08
4.39306e-08
7.74402e-08
3.50879e-08
8.19572e-08
2.53088e-08
8.52768e-08
1.40666e-08
8.75629e-08
8.06182e-10
8.91465e-08
-1.56766e-08
9.03711e-08
-3.94554e-08
9.34809e-08
9.47147e-08
-7.17803e-08
5.23269e-08
7.48872e-08
-6.15788e-08
4.25436e-08
8.17339e-08
3.22924e-08
8.76915e-08
2.19072e-08
9.23423e-08
1.1407e-08
9.57769e-08
2.61365e-10
9.87085e-08
-1.31513e-08
1.02559e-07
-3.584e-08
1.1306e-07
-4.10573e-08
9.86984e-08
6.36985e-08
-1.00408e-08
4.25849e-08
8.68009e-08
-5.44984e-08
3.05153e-08
9.38035e-08
1.88676e-08
9.93392e-08
8.17628e-09
1.03034e-07
-1.13527e-09
1.05088e-07
-8.62016e-09
1.06193e-07
-8.90531e-09
1.02844e-07
2.46233e-08
7.95313e-08
7.81728e-08
4.51485e-08
1.00351e-08
1.31836e-07
2.70087e-08
1.02507e-07
-4.27151e-08
1.09081e-08
1.09904e-07
-5.08046e-09
1.15328e-07
-2.11746e-08
1.19128e-07
-3.84996e-08
1.22413e-07
-4.76967e-08
1.15391e-07
-2.06956e-08
7.5843e-08
2.9263e-08
2.95728e-08
8.72676e-08
-1.28563e-08
-4.96968e-08
1.47e-07
7.93213e-09
1.22425e-07
-2.78503e-08
-1.2801e-08
1.30637e-07
-3.55304e-08
1.38057e-07
-6.6127e-08
1.49724e-07
-1.2345e-07
1.79736e-07
-1.43925e-07
1.35866e-07
-1.15232e-07
4.71502e-08
-5.27342e-08
-3.29251e-08
4.10862e-08
-1.06676e-07
-1.74177e-07
1.65566e-07
-8.75351e-09
1.45365e-07
-1.41857e-08
-3.45917e-08
1.56476e-07
-7.11404e-08
1.74606e-07
-1.56262e-07
2.34846e-07
-2.09694e-07
2.33168e-07
-1.67832e-07
9.40053e-08
-8.82746e-08
-3.24075e-08
1.70669e-08
-1.38267e-07
1.50753e-07
-2.40363e-07
-3.22907e-07
2.99483e-07
-2.30907e-08
1.73319e-07
-4.86346e-09
-6.81253e-08
2.0151e-07
-1.92267e-07
2.98748e-07
-2.53095e-07
2.95674e-07
-1.25465e-07
1.05537e-07
3.05271e-08
-6.19865e-08
1.58661e-07
-1.60541e-07
2.59879e-07
-2.39484e-07
3.44749e-07
-3.25233e-07
-4.01784e-07
4.23627e-07
-4.86074e-08
2.2175e-07
1.76762e-10
-1.98752e-07
3.51655e-07
-2.79547e-07
3.79545e-07
-8.81738e-08
1.04303e-07
1.11546e-07
-9.41827e-08
2.23779e-07
-1.7422e-07
2.94413e-07
-2.31176e-07
3.52058e-07
-2.97129e-07
4.16214e-07
-3.89389e-07
-4.69346e-07
4.83775e-07
-2.0901e-07
4.07157e-07
2.36021e-08
-3.34094e-07
4.76738e-07
-8.62157e-08
1.31665e-07
1.512e-07
-1.33113e-07
2.41811e-07
-1.84794e-07
2.89916e-07
-2.22324e-07
3.30946e-07
-2.72206e-07
3.85959e-07
-3.52141e-07
4.63465e-07
-4.66895e-07
-5.50242e-07
5.44361e-07
-4.01609e-07
6.20908e-07
1.87857e-07
-1.1856e-07
1.93691e-07
1.65939e-07
-1.52834e-07
2.3244e-07
-1.99614e-07
2.7074e-07
-2.23094e-07
3.01555e-07
-2.53139e-07
3.48513e-07
-3.19163e-07
4.29174e-07
-4.32802e-07
5.20923e-07
-5.58644e-07
-6.40045e-07
6.10726e-07
-2.01453e-07
3.31671e-07
4.9069e-07
1.45945e-07
-1.53706e-07
2.063e-07
-2.1319e-07
2.42841e-07
-2.36156e-07
2.74982e-07
-2.55234e-07
3.23299e-07
-3.01456e-07
4.01254e-07
-3.97118e-07
4.96978e-07
-5.28527e-07
5.94228e-07
-6.55895e-07
-7.31967e-07
6.8615e-07
1.21171e-07
-1.14494e-07
3.24993e-07
1.81379e-07
-2.13915e-07
2.14134e-07
-2.45945e-07
2.46285e-07
-2.68306e-07
2.92356e-07
-3.01305e-07
3.67885e-07
-3.76986e-07
4.66035e-07
-4.95268e-07
5.78627e-07
-6.41118e-07
6.8194e-07
-7.59208e-07
-8.24604e-07
7.74578e-07
2.1737e-07
-2.22765e-07
-1.091e-07
2.58023e-07
-2.54568e-07
2.89685e-07
-2.77607e-07
3.27147e-07
-3.05768e-07
3.77748e-07
-3.51907e-07
4.61402e-07
-4.60639e-07
5.6916e-07
-6.03026e-07
6.84994e-07
-7.56952e-07
7.81188e-07
-8.55403e-07
-9.10563e-07
8.67148e-07
2.87526e-07
-2.59374e-07
-2.50916e-07
3.17764e-07
-2.84807e-07
3.48874e-07
-3.08718e-07
3.88217e-07
-3.45111e-07
4.54776e-07
-4.18466e-07
5.54196e-07
-5.60059e-07
6.78752e-07
-7.27582e-07
7.86008e-07
-8.64207e-07
8.69669e-07
-9.39065e-07
-9.87846e-07
9.46952e-07
3.37092e-07
-2.94478e-07
-3.01989e-07
3.64427e-07
-3.12142e-07
3.95345e-07
-3.39635e-07
4.42593e-07
-3.92358e-07
5.35244e-07
-5.11117e-07
6.60461e-07
-6.85276e-07
7.81034e-07
-8.48156e-07
8.64518e-07
-9.47691e-07
9.34292e-07
-1.00884e-06
-1.0567e-06
1.00315e-06
3.48485e-07
-3.17761e-07
-3.25202e-07
3.75543e-07
-3.392e-07
4.14677e-07
-3.78769e-07
4.9314e-07
-4.70821e-07
6.19405e-07
-6.37382e-07
7.47597e-07
-8.13468e-07
8.39192e-07
-9.39751e-07
9.06877e-07
-1.01538e-06
9.69904e-07
-1.07187e-06
-1.11828e-06
1.03148e-06
3.21198e-07
-3.30501e-07
-3.08458e-07
3.467e-07
-3.64701e-07
4.08386e-07
-4.40456e-07
5.31863e-07
-5.94297e-07
6.74699e-07
-7.80217e-07
7.8499e-07
-9.23759e-07
8.57156e-07
-1.01192e-06
9.17882e-07
-1.0761e-06
9.75885e-07
-1.12987e-06
-1.17261e-06
1.03021e-06
2.87757e-07
-3.42788e-07
-2.7547e-07
3.30551e-07
-4.07495e-07
4.40649e-07
-5.50554e-07
5.92666e-07
-7.46315e-07
7.14501e-07
-9.02053e-07
7.90061e-07
-9.99319e-07
8.48446e-07
-1.0703e-06
9.03361e-07
-1.13102e-06
9.54955e-07
-1.18146e-06
-1.21858e-06
1.00093e-06
2.58938e-07
-3.63673e-07
-2.38053e-07
3.46027e-07
-4.94584e-07
4.99788e-07
-7.04315e-07
6.29265e-07
-8.75792e-07
7.07124e-07
-9.79912e-07
7.63357e-07
-1.05555e-06
8.15485e-07
-1.12243e-06
8.64955e-07
-1.18049e-06
9.09317e-07
-1.22582e-06
-1.25553e-06
9.46265e-07
2.29142e-07
-4.12512e-07
-1.80303e-07
3.82467e-07
-6.47909e-07
5.1941e-07
-8.41258e-07
6.0161e-07
-9.57992e-07
6.58696e-07
-1.037e-06
7.10586e-07
-1.10744e-06
7.5991e-07
-1.17175e-06
8.04387e-07
-1.22497e-06
8.41523e-07
-1.26296e-06
-1.28394e-06
8.69929e-07
2.13676e-07
-5.26957e-07
-9.92305e-08
3.7375e-07
-8.07983e-07
4.7712e-07
-9.44628e-07
5.40846e-07
-1.02172e-06
5.9448e-07
-1.09063e-06
6.44587e-07
-1.15755e-06
6.89967e-07
-1.21713e-06
7.28036e-07
-1.26303e-06
7.57466e-07
-1.29239e-06
-1.3047e-06
7.78228e-07
2.78954e-07
-7.01034e-07
-1.04878e-07
3.83787e-07
-9.12816e-07
4.3988e-07
-1.00072e-06
4.86423e-07
-1.06826e-06
5.31323e-07
-1.13553e-06
5.74176e-07
-1.2004e-06
6.11512e-07
-1.25447e-06
6.40937e-07
-1.29246e-06
6.62289e-07
-1.31374e-06
-1.31894e-06
6.76527e-07
2.8142e-07
-8.25374e-07
-1.5708e-07
3.3523e-07
-9.66625e-07
3.75853e-07
-1.04134e-06
4.16454e-07
-1.10886e-06
4.56793e-07
-1.17587e-06
4.93638e-07
-1.23725e-06
5.23316e-07
-1.28415e-06
5.44922e-07
-1.31407e-06
5.59732e-07
-1.32855e-06
-1.32862e-06
5.69414e-07
1.98454e-07
-9.06358e-07
-1.1747e-07
2.51032e-07
-1.0192e-06
2.96402e-07
-1.08671e-06
3.3813e-07
-1.15059e-06
3.76187e-07
-1.21393e-06
4.0776e-07
-1.26882e-06
4.30578e-07
-1.30697e-06
4.45622e-07
-1.32911e-06
4.55385e-07
-1.33831e-06
-1.33539e-06
4.62161e-07
1.27463e-07
-9.91751e-07
-4.20706e-08
1.82121e-07
-1.07386e-06
2.27459e-07
-1.13205e-06
2.66709e-07
-1.18984e-06
3.0004e-07
-1.24726e-06
3.25028e-07
-1.29381e-06
3.40852e-07
-1.32279e-06
3.49814e-07
-1.33807e-06
3.55064e-07
-1.34356e-06
-1.34007e-06
3.59735e-07
9.4772e-08
-1.06447e-06
-2.20555e-08
1.41344e-07
-1.12043e-06
1.78181e-07
-1.16889e-06
2.09252e-07
-1.22091e-06
2.34477e-07
-1.27248e-06
2.51248e-07
-1.31058e-06
2.59679e-07
-1.33122e-06
2.62484e-07
-1.34088e-06
2.62472e-07
-1.34355e-06
-1.3398e-06
2.62208e-07
9.6481e-08
-1.08721e-06
-7.37387e-08
1.18622e-07
-1.14257e-06
1.40765e-07
-1.19103e-06
1.61662e-07
-1.24181e-06
1.78179e-07
-1.289e-06
1.87077e-07
-1.31948e-06
1.8908e-07
-1.33322e-06
1.86763e-07
-1.33856e-06
1.82398e-07
-1.33919e-06
-1.33555e-06
1.78141e-07
6.1006e-08
-1.11084e-06
-3.73795e-08
8.06019e-08
-1.16217e-06
1.00065e-07
-1.2105e-06
1.17518e-07
-1.25926e-06
1.28894e-07
-1.30038e-06
1.32335e-07
-1.32292e-06
1.29773e-07
-1.33066e-06
1.23286e-07
-1.33207e-06
1.14469e-07
-1.33037e-06
-1.32548e-06
1.04406e-07
3.42904e-08
-1.12532e-06
-1.98104e-08
5.11149e-08
-1.17899e-06
6.84807e-08
-1.22786e-06
8.31738e-08
-1.27395e-06
9.00695e-08
-1.30727e-06
8.95536e-08
-1.3224e-06
8.44884e-08
-1.3256e-06
7.59442e-08
-1.32353e-06
6.53448e-08
-1.31977e-06
-1.31453e-06
5.43946e-08
1.77928e-08
-1.14003e-06
-3.08129e-09
3.35512e-08
-1.19475e-06
4.86074e-08
-1.24292e-06
5.99912e-08
-1.28534e-06
6.21136e-08
-1.30939e-06
5.8232e-08
-1.31852e-06
5.18068e-08
-1.31917e-06
4.20792e-08
-1.3138e-06
3.00505e-08
-1.30774e-06
-1.30219e-06
1.77032e-08
1.85414e-08
-1.14869e-06
-9.87766e-09
2.91369e-08
-1.20535e-06
3.9755e-08
-1.25354e-06
4.64658e-08
-1.29205e-06
4.35403e-08
-1.30647e-06
3.66029e-08
-1.31158e-06
2.9596e-08
-1.31216e-06
1.9347e-08
-1.30355e-06
5.83223e-09
-1.29423e-06
-1.28771e-06
-8.63872e-09
2.37437e-08
-1.15493e-06
-1.75033e-08
2.9882e-08
-1.21149e-06
3.69936e-08
-1.26065e-06
3.91061e-08
-1.29416e-06
3.19796e-08
-1.29934e-06
2.2419e-08
-1.30202e-06
1.51462e-08
-1.30489e-06
5.17125e-09
-1.29358e-06
-1.00882e-08
-1.27897e-06
-1.27015e-06
-2.76491e-08
3.28839e-08
-1.15433e-06
-3.34901e-08
3.49278e-08
-1.21353e-06
3.94042e-08
-1.26513e-06
3.6474e-08
-1.29123e-06
2.57874e-08
-1.28866e-06
1.37382e-08
-1.28997e-06
5.4428e-09
-1.2966e-06
-2.89969e-09
-1.28523e-06
-1.93899e-08
-1.26248e-06
-1.24902e-06
-4.05263e-08
4.3389e-08
-1.15087e-06
-4.68422e-08
4.17377e-08
-1.21188e-06
4.3727e-08
-1.26711e-06
3.50272e-08
-1.28253e-06
2.16334e-08
-1.27526e-06
8.11826e-09
-1.27646e-06
-1.76524e-09
-1.28671e-06
-6.63667e-09
-1.28036e-06
-2.30565e-08
-1.24606e-06
-1.22239e-06
-4.96817e-08
4.57264e-08
-1.13691e-06
-5.96894e-08
4.05575e-08
-1.20671e-06
4.1538e-08
-1.26809e-06
2.91042e-08
-1.2701e-06
1.55604e-08
-1.26172e-06
2.40123e-09
-1.2633e-06
-9.55886e-09
-1.27475e-06
-9.75397e-09
-1.28017e-06
-2.16409e-08
-1.23417e-06
-1.18646e-06
-5.75691e-08
1.79715e-08
-1.1134e-06
-4.14806e-08
2.64234e-08
-1.21516e-06
3.25536e-08
-1.27423e-06
2.07324e-08
-1.25828e-06
9.08542e-09
-1.25007e-06
-2.87967e-09