/*--------------------------------*- C++ -*----------------------------------*\
  =========                 |
  \\      /  F ield         | OpenFOAM: The Open Source CFD Toolbox
   \\    /   O peration     | Website:  https://openfoam.org
    \\  /    A nd           | Version:  8
     \\/     M anipulation  |
\*---------------------------------------------------------------------------*/
FoamFile
{
    version     2.0;
    format      ascii;
    class       volVectorField;
    location    "2.3";
    object      U;
}
// * * * * * * * * * * * * * * * * * * * * * * * * * * * * * * * * * * * * * //

dimensions      [0 1 -1 0 0 0 0];

internalField   nonuniform List<vector> 
9150
(
(0.0537749 -0.428847 0)
(0.0879144 -0.622267 0)
(0.0731006 -0.631447 0)
(0.0486473 -0.643729 0)
(0.0170385 -0.654444 0)
(-0.0170348 -0.654444 0)
(-0.0486445 -0.643729 0)
(-0.0730984 -0.631445 0)
(-0.0879117 -0.622264 0)
(-0.0537729 -0.428852 0)
(0.0407657 -0.522888 0)
(0.0573637 -0.625678 0)
(0.0420591 -0.613213 0)
(0.0294086 -0.622458 0)
(0.0104877 -0.628863 0)
(-0.0104868 -0.628863 0)
(-0.0294079 -0.622458 0)
(-0.0420586 -0.613212 0)
(-0.0573617 -0.625675 0)
(-0.0407637 -0.52289 0)
(0.02524 -0.558026 0)
(0.0324543 -0.613811 0)
(0.0229773 -0.604474 0)
(0.0172696 -0.609993 0)
(0.00624219 -0.613191 0)
(-0.00624278 -0.613191 0)
(-0.0172701 -0.609992 0)
(-0.0229778 -0.604473 0)
(-0.0324535 -0.613809 0)
(-0.0252388 -0.558027 0)
(0.0153547 -0.58476 0)
(0.0174391 -0.607464 0)
(0.0117002 -0.601139 0)
(0.00887731 -0.603283 0)
(0.00324083 -0.604398 0)
(-0.0032419 -0.604398 0)
(-0.00887818 -0.603283 0)
(-0.0117009 -0.601138 0)
(-0.017439 -0.607463 0)
(-0.0153542 -0.58476 0)
(0.0062631 -0.597169 0)
(0.00554573 -0.601394 0)
(0.00357098 -0.60004 0)
(0.00268003 -0.600348 0)
(0.000992996 -0.600483 0)
(-0.000993654 -0.600483 0)
(-0.00268054 -0.600348 0)
(-0.00357134 -0.60004 0)
(-0.0055458 -0.601394 0)
(-0.00626302 -0.597169 0)
(0.469621 -1.16227 1.54859e-24)
(0.282891 -1.08598 0)
(0.16325 -1.06933 0)
(0.092227 -1.05768 0)
(0.0303942 -1.05302 0)
(-0.0303097 -1.05303 0)
(-0.0921529 -1.05771 0)
(-0.163182 -1.06937 0)
(-0.282835 -1.08603 0)
(-0.469628 -1.16237 -1.5496e-24)
(0.334187 -0.84431 4.26197e-25)
(0.287243 -0.936831 0)
(0.188308 -0.936826 0)
(0.108234 -0.936755 0)
(0.0357444 -0.939135 0)
(-0.0356967 -0.939142 0)
(-0.108192 -0.936772 0)
(-0.188268 -0.936845 0)
(-0.287226 -0.936856 0)
(-0.334198 -0.844367 -4.26281e-25)
(0.279157 -0.702585 7.1364e-26)
(0.259097 -0.804728 0)
(0.178153 -0.817524 0)
(0.104641 -0.828356 0)
(0.0348516 -0.836477 0)
(-0.0348239 -0.83648 0)
(-0.104616 -0.828365 0)
(-0.178134 -0.817533 0)
(-0.259091 -0.804738 0)
(-0.279157 -0.702606 -7.13415e-26)
(0.199975 -0.554358 2.65428e-25)
(0.216721 -0.709441 0)
(0.154312 -0.725855 0)
(0.0913867 -0.742012 0)
(0.0305468 -0.753934 0)
(-0.0305312 -0.753935 0)
(-0.0913736 -0.742016 0)
(-0.154302 -0.725857 0)
(-0.216719 -0.709442 0)
(-0.199974 -0.554371 -2.65479e-25)
(0.1187 -0.445331 -4.34074e-25)
(0.156394 -0.644241 -6.22243e-25)
(0.116701 -0.66375 -2.10576e-25)
(0.0709435 -0.681195 -1.3805e-25)
(0.0239644 -0.694202 -7.91956e-27)
(-0.0239562 -0.694203 -7.93019e-27)
(-0.0709369 -0.681196 -1.38078e-25)
(-0.116697 -0.663749 -2.1059e-25)
(-0.156391 -0.644239 -6.22278e-25)
(-0.118698 -0.445338 -4.34095e-25)
(0.0246697 -0.909544 0)
(-0.03299 -1.34087 0)
(0.0259001 -1.27297 0)
(-0.0024743 -1.2273 0)
(0.00447228 -1.22551 0)
(-0.00344135 -1.22606 0)
(0.0041144 -1.22774 0)
(-0.0243514 -1.27363 0)
(0.0319565 -1.34219 0)
(-0.0253744 -0.909999 0)
(0.0507512 -0.903444 0)
(-0.0200237 -1.3343 0)
(0.0245413 -1.27156 0)
(0.00147688 -1.22518 0)
(0.00127102 -1.22363 0)
(-0.000839209 -1.22391 0)
(-0.000640033 -1.2252 0)
(-0.0242818 -1.27193 0)
(0.0200202 -1.33511 0)
(-0.0513292 -0.905174 0)
(0.07803 -0.942209 0)
(-0.0219736 -1.34861 0)
(0.0175687 -1.27595 0)
(0.00609648 -1.23174 0)
(-7.91168e-05 -1.22694 0)
(0.000369953 -1.22702 0)
(-0.00558029 -1.23172 0)
(-0.0173888 -1.276 0)
(0.0224788 -1.34856 0)
(-0.077905 -0.943572 0)
(0.144494 -1.07762 0)
(0.00306244 -1.36659 0)
(0.0154144 -1.27187 0)
(0.021921 -1.22615 0)
(0.00590057 -1.21466 0)
(-0.0056542 -1.21466 0)
(-0.0216993 -1.22619 0)
(-0.0153442 -1.27194 0)
(-0.00258297 -1.36656 0)
(-0.144351 -1.07839 0)
(0.298518 -1.21841 0)
(0.126903 -1.32211 0)
(0.068964 -1.2105 0)
(0.0564011 -1.16901 0)
(0.0201225 -1.15654 0)
(-0.0199751 -1.15655 0)
(-0.0562905 -1.16906 0)
(-0.0688373 -1.21055 0)
(-0.126666 -1.32211 0)
(-0.298495 -1.21871 0)
(-0.0432937 -0.00406478 0)
(-0.0403081 -0.00415678 0)
(-0.0372595 -0.00421704 0)
(-0.0341757 -0.00424229 0)
(-0.0310835 -0.00423197 0)
(-0.02801 -0.00418635 0)
(-0.0249814 -0.00410647 0)
(-0.0220227 -0.0039938 0)
(-0.0191579 -0.00385111 0)
(-0.0164103 -0.00368225 0)
(-0.041305 -0.00850103 0)
(-0.0389519 -0.00873196 0)
(-0.0365383 -0.00888377 0)
(-0.0340864 -0.00895563 0)
(-0.031619 -0.00894793 0)
(-0.0291587 -0.008862 0)
(-0.0267274 -0.00870012 0)
(-0.0243463 -0.00846544 0)
(-0.0220358 -0.00816193 0)
(-0.0198139 -0.00779429 0)
(-0.0392405 -0.0125586 0)
(-0.0373003 -0.0129234 0)
(-0.0353034 -0.0131686 0)
(-0.0332686 -0.0132933 0)
(-0.0312153 -0.0132984 0)
(-0.0291629 -0.0131859 0)
(-0.0271301 -0.0129593 0)
(-0.0251347 -0.0126233 0)
(-0.0231943 -0.0121839 0)
(-0.0213244 -0.0116487 0)
(-0.037411 -0.0160341 0)
(-0.0357711 -0.0165273 0)
(-0.0340768 -0.0168653 0)
(-0.0323452 -0.017047 0)
(-0.0305933 -0.0170732 0)
(-0.028838 -0.0169465 0)
(-0.0270962 -0.0166712 0)
(-0.0253838 -0.0162534 0)
(-0.0237166 -0.0157009 0)
(-0.022109 -0.0150237 0)
(-0.0357793 -0.0189935 0)
(-0.0343672 -0.0196087 0)
(-0.0329022 -0.0200371 0)
(-0.0313997 -0.020277 0)
(-0.0298753 -0.0203293 0)
(-0.0283447 -0.0201966 0)
(-0.0268232 -0.0198838 0)
(-0.0253262 -0.0193978 0)
(-0.0238685 -0.0187478 0)
(-0.0224642 -0.0179461 0)
(-0.034326 -0.0215561 0)
(-0.0330877 -0.0222901 0)
(-0.0317969 -0.0228083 0)
(-0.0304677 -0.0231085 0)
(-0.0291147 -0.0231912 0)
(-0.0277526 -0.0230586 0)
(-0.0263965 -0.0227156 0)
(-0.0250613 -0.0221698 0)
(-0.0237616 -0.0214312 0)
(-0.0225123 -0.0205132 0)
(-0.0330373 -0.0238179 0)
(-0.0319318 -0.0246703 0)
(-0.0307726 -0.0252801 0)
(-0.0295729 -0.0256443 0)
(-0.0283465 -0.0257622 0)
(-0.0271077 -0.0256357 0)
(-0.0258712 -0.0252691 0)
(-0.024652 -0.0246696 0)
(-0.0234656 -0.0238472 0)
(-0.0223275 -0.0228161 0)
(-0.0319024 -0.0258478 0)
(-0.0309 -0.0268217 0)
(-0.029841 -0.027528 0)
(-0.0287375 -0.0279625 0)
(-0.0276027 -0.0281233 0)
(-0.0264503 -0.028011 0)
(-0.025295 -0.0276287 0)
(-0.0241522 -0.0269822 0)
(-0.0230382 -0.0260807 0)
(-0.0219702 -0.024938 0)
(-0.0309148 -0.0276926 0)
(-0.029997 -0.0287948 0)
(-0.0290175 -0.0296065 0)
(-0.0279873 -0.030122 0)
(-0.0269185 -0.0303377 0)
(-0.0258245 -0.0302522 0)
(-0.0247196 -0.0298664 0)
(-0.0236194 -0.0291838 0)
(-0.0225411 -0.0282115 0)
(-0.0215035 -0.026961 0)
(-0.0300737 -0.0293762 0)
(-0.0292334 -0.0306178 0)
(-0.028324 -0.0315485 0)
(-0.0273551 -0.032161 0)
(-0.0263378 -0.0324494 0)
(-0.0252841 -0.0324098 0)
(-0.0242077 -0.0320398 0)
(-0.0231241 -0.0313396 0)
(-0.0220506 -0.0303126 0)
(-0.0210073 -0.0289661 0)
(-0.0293857 -0.0308994 0)
(-0.0286269 -0.0322955 0)
(-0.0277898 -0.0333637 0)
(-0.0268822 -0.0340946 0)
(-0.0259135 -0.03448 0)
(-0.0248943 -0.0345128 0)
(-0.0238366 -0.034187 0)
(-0.0227548 -0.0334984 0)
(-0.0216654 -0.0324449 0)
(-0.0205886 -0.0310278 0)
(-0.0288647 -0.032241 0)
(-0.0282015 -0.0338104 0)
(-0.0274493 -0.0350383 0)
(-0.0266144 -0.0359134 0)
(-0.0257043 -0.0364253 0)
(-0.0247275 -0.0365638 0)
(-0.023694 -0.036319 0)
(-0.0226156 -0.0356819 0)
(-0.0215069 -0.0346443 0)
(-0.0203856 -0.0332 0)
(-0.0285308 -0.0333637 0)
(-0.0279827 -0.0351268 0)
(-0.0273354 -0.0365379 0)
(-0.0265936 -0.0375842 0)
(-0.0257634 -0.0382535 0)
(-0.0248511 -0.0385332 0)
(-0.0238642 -0.0384103 0)
(-0.0228115 -0.0378715 0)
(-0.0217037 -0.0369031 0)
(-0.0205546 -0.0354914 0)
(-0.0284031 -0.0342257 0)
(-0.0279889 -0.0362016 0)
(-0.0274675 -0.0378164 0)
(-0.0268431 -0.0390569 0)
(-0.0261206 -0.03991 0)
(-0.0253049 -0.0403618 0)
(-0.0244012 -0.0403978 0)
(-0.0234153 -0.0400018 0)
(-0.0223542 -0.0391563 0)
(-0.0212265 -0.0378421 0)
(-0.0284901 -0.0347972 0)
(-0.0282193 -0.0369984 0)
(-0.0278383 -0.0388292 0)
(-0.0273514 -0.0402767 0)
(-0.026763 -0.0413281 0)
(-0.0260773 -0.0419695 0)
(-0.0252981 -0.0421855 0)
(-0.0244293 -0.0419589 0)
(-0.0234749 -0.0412699 0)
(-0.0224398 -0.0400958 0)
(-0.0287732 -0.035079 0)
(-0.02864 -0.0375065 0)
(-0.0284002 -0.0395535 0)
(-0.028058 -0.0412084 0)
(-0.0276175 -0.0424596 0)
(-0.027082 -0.0432945 0)
(-0.0264542 -0.0436985 0)
(-0.0257363 -0.0436559 0)
(-0.0249294 -0.0431479 0)
(-0.0240342 -0.042154 0)
(-0.0291943 -0.0351066 0)
(-0.0291796 -0.0377451 0)
(-0.0290693 -0.0399928 0)
(-0.0288668 -0.0418401 0)
(-0.0285754 -0.0432765 0)
(-0.028198 -0.0442901 0)
(-0.0277374 -0.0448671 0)
(-0.0271967 -0.0449914 0)
(-0.0265795 -0.044645 0)
(-0.025891 -0.0438073 0)
(-0.0296473 -0.0349394 0)
(-0.0297249 -0.037759 0)
(-0.029722 -0.0401815 0)
(-0.0296387 -0.0421987 0)
(-0.029475 -0.0438012 0)
(-0.0292306 -0.0449769 0)
(-0.0289049 -0.0457114 0)
(-0.0284976 -0.0459878 0)
(-0.0280081 -0.045786 0)
(-0.0274359 -0.0450835 0)
(-0.0300028 -0.0346337 0)
(-0.0301552 -0.037597 0)
(-0.0302436 -0.0401658 0)
(-0.0302629 -0.0423337 0)
(-0.0302075 -0.044092 0)
(-0.0300723 -0.0454291 0)
(-0.0298518 -0.0463306 0)
(-0.0295407 -0.0467803 0)
(-0.0291333 -0.0467598 0)
(-0.028623 -0.0462501 0)
(-0.030131 -0.0342111 0)
(-0.0303594 -0.0372785 0)
(-0.0305393 -0.0399668 0)
(-0.030658 -0.0422711 0)
(-0.0307033 -0.0441828 0)
(-0.0306639 -0.0456893 0)
(-0.0305299 -0.0467757 0)
(-0.0302921 -0.0474256 0)
(-0.0299419 -0.0476223 0)
(-0.0294707 -0.0473504 0)
(-0.0299303 -0.0336447 0)
(-0.0302593 -0.0367802 0)
(-0.0305524 -0.0395682 0)
(-0.0307866 -0.0420049 0)
(-0.0309409 -0.0440795 0)
(-0.0309977 -0.0457756 0)
(-0.0309432 -0.0470738 0)
(-0.0307671 -0.0479547 0)
(-0.0304612 -0.0483998 0)
(-0.0300195 -0.048394 0)
(-0.0293484 -0.0328641 0)
(-0.0298251 -0.0360336 0)
(-0.030276 -0.0389113 0)
(-0.0306614 -0.0414931 0)
(-0.0309474 -0.0437602 0)
(-0.0311091 -0.0456851 0)
(-0.0311307 -0.0472378 0)
(-0.0310034 -0.04839 0)
(-0.0307235 -0.0491173 0)
(-0.0302905 -0.0494013 0)
(-0.0283729 -0.031757 0)
(-0.0290727 -0.0349213 0)
(-0.0297561 -0.0378919 0)
(-0.0303516 -0.0406597 0)
(-0.0308034 -0.0431836 0)
(-0.03108 -0.0454096 0)
(-0.031169 -0.047286 0)
(-0.0310697 -0.048769 0)
(-0.0307876 -0.0498247 0)
(-0.0303321 -0.0504294 0)
(-0.0270267 -0.0301604 0)
(-0.0280629 -0.0332624 0)
(-0.0290964 -0.0363522 0)
(-0.0299876 -0.0394031 0)
(-0.0306417 -0.0423091 0)
(-0.0310283 -0.0449584 0)
(-0.0311548 -0.0472617 0)
(-0.0310418 -0.0491544 0)
(-0.0307135 -0.0505927 0)
(-0.0301937 -0.0515508 0)
(-0.0253602 -0.0278097 0)
(-0.0268933 -0.0307008 0)
(-0.0284575 -0.0339765 0)
(-0.029762 -0.0375667 0)
(-0.0306271 -0.041122 0)
(-0.0310685 -0.0443981 0)
(-0.0311566 -0.0472672 0)
(-0.0309564 -0.0496554 0)
(-0.0305204 -0.0515221 0)
(-0.0298902 -0.0528502 0)
(-0.0233647 -0.0245691 0)
(-0.0255973 -0.0268675 0)
(-0.0280504 -0.0303206 0)
(-0.0300263 -0.0349644 0)
(-0.0309655 -0.0396924 0)
(-0.0312447 -0.0438989 0)
(-0.031132 -0.0474834 0)
(-0.0307385 -0.0504234 0)
(-0.0301322 -0.0527211 0)
(-0.0293624 -0.0543939 0)
(-0.0215433 -0.0208387 0)
(-0.0243438 -0.0209111 0)
(-0.028729 -0.0244653 0)
(-0.0312294 -0.0323689 0)
(-0.0316811 -0.0388812 0)
(-0.0313387 -0.044087 0)
(-0.0308038 -0.0483162 0)
(-0.0301375 -0.0516875 0)
(-0.0293556 -0.054291 0)
(-0.0284811 -0.056197 0)
(-0.0244012 -0.0160425 0)
(-0.0274836 -0.0126791 0)
(-0.030157 -0.0173031 0)
(-0.0304411 -0.0309417 0)
(-0.0304709 -0.0395648 0)
(-0.0299369 -0.0451964 0)
(-0.0292949 -0.0496993 0)
(-0.0286078 -0.0532553 0)
(-0.0278718 -0.0559953 0)
(-0.0270845 -0.058016 0)
(-0.0291308 -0.010428 0)
(-0.0307361 -0.00944409 0)
(-0.0298206 -0.0165648 0)
(-0.0284181 -0.0311183 0)
(-0.0278528 -0.040642 0)
(-0.0274686 -0.0463483 0)
(-0.0269926 -0.0508923 0)
(-0.0265068 -0.0545165 0)
(-0.0260044 -0.057334 0)
(-0.0254687 -0.0594396 0)
(-0.0315447 -0.0070602 0)
(-0.0305285 -0.0114002 0)
(-0.0281093 -0.0215692 0)
(-0.0261961 -0.0337719 0)
(-0.0252052 -0.0417928 0)
(-0.0249927 -0.047215 0)
(-0.0247667 -0.0516506 0)
(-0.0245603 -0.0552487 0)
(-0.0243647 -0.0580913 0)
(-0.0241548 -0.0602584 0)
(-0.0297726 -0.00885659 0)
(-0.0270145 -0.017181 0)
(-0.0243243 -0.0275028 0)
(-0.0230696 -0.035839 0)
(-0.0227147 -0.042237 0)
(-0.0228248 -0.0474362 0)
(-0.0229911 -0.051746 0)
(-0.0231831 -0.0552788 0)
(-0.0233862 -0.0581202 0)
(-0.0235731 -0.0603398 0)
(-0.0249526 -0.0152295 0)
(-0.0228319 -0.0228827 0)
(-0.0216706 -0.029844 0)
(-0.0212147 -0.0362755 0)
(-0.0214249 -0.0419957 0)
(-0.0218767 -0.0468751 0)
(-0.0224258 -0.0510018 0)
(-0.0230269 -0.0544581 0)
(-0.0236407 -0.0573061 0)
(-0.0242312 -0.0595966 0)
(-0.0224513 -0.0185147 0)
(-0.0215531 -0.0242756 0)
(-0.0212619 -0.0302336 0)
(-0.0214964 -0.0359161 0)
(-0.0220475 -0.0410297 0)
(-0.0228027 -0.0455387 0)
(-0.023687 -0.0494679 0)
(-0.0246383 -0.052848 0)
(-0.0256053 -0.0557097 0)
(-0.0265484 -0.0580842 0)
(-0.0239061 -0.0195515 0)
(-0.0236276 -0.0247964 0)
(-0.0237389 -0.0299877 0)
(-0.0242069 -0.0349153 0)
(-0.0249703 -0.0394773 0)
(-0.0259529 -0.043627 0)
(-0.027081 -0.0473449 0)
(-0.0282909 -0.0506295 0)
(-0.0295294 -0.0534895 0)
(-0.030754 -0.0559387 0)
(-0.0276905 -0.0202934 0)
(-0.0277758 -0.0247461 0)
(-0.0281996 -0.0291662 0)
(-0.0289346 -0.0334492 0)
(-0.0299326 -0.0375137 0)
(-0.0311345 -0.0413037 0)
(-0.0324805 -0.0447863 0)
(-0.0339145 -0.0479453 0)
(-0.0353859 -0.0507769 0)
(-0.0368507 -0.0532816 0)
(-0.0329131 -0.0200274 0)
(-0.0334455 -0.0238462 0)
(-0.0342548 -0.0276731 0)
(-0.0353188 -0.0314342 0)
(-0.0366025 -0.0350682 0)
(-0.0380621 -0.0385282 0)
(-0.0396496 -0.041782 0)
(-0.0413191 -0.0448112 0)
(-0.0430218 -0.0476124 0)
(-0.0447143 -0.0501669 0)
(-0.0393177 -0.0187236 0)
(-0.0403462 -0.022054 0)
(-0.0415968 -0.0254099 0)
(-0.0430526 -0.0287453 0)
(-0.0446863 -0.0320194 0)
(-0.0464641 -0.0351981 0)
(-0.0483429 -0.0382678 0)
(-0.0502761 -0.0412011 0)
(-0.0522231 -0.0439868 0)
(-0.0541507 -0.0465979 0)
(-0.0467071 -0.016359 0)
(-0.0482603 -0.0192882 0)
(-0.0499955 -0.022261 0)
(-0.0518955 -0.0252524 0)
(-0.0539361 -0.0282418 0)
(-0.0560816 -0.0312156 0)
(-0.0582927 -0.0341609 0)
(-0.0605309 -0.0370473 0)
(-0.0627587 -0.0398515 0)
(-0.0649453 -0.0425477 0)
(-0.0549181 -0.012897 0)
(-0.0570137 -0.0154823 0)
(-0.0592649 -0.018138 0)
(-0.0616531 -0.020861 0)
(-0.0641462 -0.0236437 0)
(-0.0667085 -0.0264852 0)
(-0.0692996 -0.029371 0)
(-0.0718797 -0.0322682 0)
(-0.074414 -0.0351502 0)
(-0.0768733 -0.0379911 0)
(-0.0637691 -0.00831905 0)
(-0.0664166 -0.0105973 0)
(-0.069206 -0.012987 0)
(-0.0721132 -0.0154939 0)
(-0.0751031 -0.0181317 0)
(-0.0781295 -0.0209133 0)
(-0.0811413 -0.0238168 0)
(-0.084095 -0.0268135 0)
(-0.0869529 -0.0298556 0)
(-0.089687 -0.0329191 0)
(-0.0730134 -0.00262973 0)
(-0.0762102 -0.0046127 0)
(-0.0795567 -0.00674623 0)
(-0.0830252 -0.00906089 0)
(-0.0865628 -0.0116037 0)
(-0.0901037 -0.0144036 0)
(-0.0935798 -0.0174268 0)
(-0.0969351 -0.0206345 0)
(-0.100121 -0.0239596 0)
(-0.10311 -0.0273545 0)
(-0.0823374 0.00415316 0)
(-0.0861039 0.00248613 0)
(-0.0900432 0.000623659 0)
(-0.0941047 -0.00151006 0)
(-0.0982273 -0.00400078 0)
(-0.102339 -0.00685687 0)
(-0.106378 -0.010063 0)
(-0.110199 -0.0137164 0)
(-0.113627 -0.0175009 0)
(-0.116811 -0.0213537 0)
(-0.0912335 0.0119793 0)
(-0.0957178 0.0107477 0)
(-0.100426 0.00919492 0)
(-0.105246 0.00724888 0)
(-0.11001 0.0048987 0)
(-0.11487 0.00225516 0)
(-0.119643 -0.00170613 0)
(-0.123656 -0.00642757 0)
(-0.127107 -0.0107408 0)
(-0.130397 -0.0151267 0)
(-0.0988431 0.0214551 0)
(-0.104672 0.0207848 0)
(-0.110646 0.0195128 0)
(-0.1164 0.0178574 0)
(-0.122222 0.0155666 0)
(-0.127673 0.0120396 0)
(-0.132158 0.0067913 0)
(-0.135911 0.00125681 0)
(-0.139597 -0.003703 0)
(-0.143075 -0.00866299 0)
(-0.104986 0.0350733 0)
(-0.113168 0.0351693 0)
(-0.121322 0.033842 0)
(-0.129058 0.0312542 0)
(-0.135263 0.0268356 0)
(-0.139962 0.0212746 0)
(-0.143892 0.0148317 0)
(-0.147516 0.00903776 0)
(-0.151183 0.00347914 0)
(-0.154658 -0.00199148 0)
(-0.107414 0.0518374 0)
(-0.119671 0.054691 0)
(-0.133359 0.0531172 0)
(-0.142444 0.0449623 0)
(-0.146752 0.0372186 0)
(-0.150476 0.0298845 0)
(-0.153802 0.0225702 0)
(-0.157178 0.0161972 0)
(-0.160621 0.0104354 0)
(-0.164155 0.00479955 0)
(-0.107076 0.0740626 0)
(-0.133796 0.0821603 0)
(-0.150946 0.0687858 0)
(-0.155235 0.0536477 0)
(-0.157803 0.0438032 0)
(-0.159767 0.0354666 0)
(-0.161902 0.0282695 0)
(-0.16466 0.0222545 0)
(-0.167904 0.0170743 0)
(-0.171508 0.012081 0)
(-0.11429 0.124064 0)
(-0.126168 0.143638 0)
(-0.144349 0.0904823 0)
(-0.153986 0.0588979 0)
(-0.159194 0.0454981 0)
(-0.162923 0.0381918 0)
(-0.166647 0.0333757 0)
(-0.170658 0.0293466 0)
(-0.174621 0.025101 0)
(-0.178587 0.0202259 0)
(-0.0972132 0.160748 0)
(-0.102217 0.164288 0)
(-0.111037 0.138534 0)
(-0.12378 0.088072 0)
(-0.144124 0.0575546 0)
(-0.160002 0.047758 0)
(-0.168585 0.0410566 0)
(-0.173823 0.0359997 0)
(-0.177889 0.0315102 0)
(-0.181195 0.0262052 0)
(-0.0996677 0.151492 0)
(-0.0959219 0.157336 0)
(-0.0974743 0.148564 0)
(-0.105829 0.129835 0)
(-0.11999 0.108367 0)
(-0.133949 0.0851673 0)
(-0.150044 0.0623446 0)
(-0.161952 0.050197 0)
(-0.166378 0.040486 0)
(-0.169884 0.0314275 0)
(-0.113857 0.138905 0)
(-0.104181 0.151881 0)
(-0.0966754 0.150781 0)
(-0.0968175 0.141176 0)
(-0.103217 0.129556 0)
(-0.112725 0.111823 0)
(-0.12386 0.0917277 0)
(-0.133024 0.0712698 0)
(-0.139623 0.0538064 0)
(-0.145226 0.0403221 0)
(-0.115491 0.106311 0)
(-0.103122 0.120063 0)
(-0.0924779 0.135579 0)
(-0.0894009 0.136654 0)
(-0.0885704 0.130905 0)
(-0.0900014 0.119378 0)
(-0.0941161 0.103663 0)
(-0.100332 0.0857018 0)
(-0.107615 0.068447 0)
(-0.115137 0.053724 0)
(-0.10118 0.101814 0)
(-0.097315 0.111436 0)
(-0.092308 0.122114 0)
(-0.0866014 0.127811 0)
(-0.0818282 0.126931 0)
(-0.079026 0.120114 0)
(-0.0787895 0.109137 0)
(-0.08106 0.0957557 0)
(-0.0854157 0.0816952 0)
(-0.0910468 0.0679588 0)
(-0.0874072 0.096686 0)
(-0.0842918 0.105737 0)
(-0.0801389 0.113603 0)
(-0.0751892 0.118356 0)
(-0.0703305 0.118935 0)
(-0.066562 0.115465 0)
(-0.0644758 0.108718 0)
(-0.064285 0.0996019 0)
(-0.0658739 0.0889816 0)
(-0.0688663 0.0774613 0)
(-0.0686689 0.0908699 0)
(-0.0654684 0.0983819 0)
(-0.0615345 0.104604 0)
(-0.0570842 0.108684 0)
(-0.0526315 0.110111 0)
(-0.0487437 0.108795 0)
(-0.0458478 0.104954 0)
(-0.0441705 0.0989576 0)
(-0.0437456 0.0912115 0)
(-0.0444559 0.0820528 0)
(-0.0471126 0.0848868 0)
(-0.0436785 0.0911827 0)
(-0.0397761 0.0963879 0)
(-0.0355646 0.100063 0)
(-0.0313142 0.10188 0)
(-0.0273276 0.10168 0)
(-0.0238562 0.0994751 0)
(-0.021064 0.0953854 0)
(-0.0190187 0.0895781 0)
(-0.0177064 0.0822284 0)
(-0.0253106 0.0782191 0)
(-0.0217104 0.0837306 0)
(-0.017804 0.0883106 0)
(-0.013685 0.0916831 0)
(-0.00949158 0.0936004 0)
(-0.00536885 0.0938658 0)
(-0.00144126 0.0924337 0)
(0.00219724 0.0893133 0)
(0.00550461 0.0845459 0)
(0.00848636 0.0782122 0)
(-0.00529266 0.071209 0)
(-0.00177143 0.0761871 0)
(0.00194055 0.0803291 0)
(0.00581774 0.0834142 0)
(0.0098138 0.0852431 0)
(0.0138605 0.0855832 0)
(0.017887 0.0843609 0)
(0.0218618 0.081516 0)
(0.025785 0.0770278 0)
(0.0296816 0.0708953 0)
(0.0112929 0.0645852 0)
(0.0143137 0.069273 0)
(0.0173952 0.0731496 0)
(0.0205915 0.0759312 0)
(0.0239074 0.0775171 0)
(0.0273244 0.0777261 0)
(0.0308054 0.0764392 0)
(0.0343204 0.0735784 0)
(0.0378581 0.0690476 0)
(0.0414239 0.0627917 0)
(0.0233007 0.0592547 0)
(0.025324 0.0639185 0)
(0.0272692 0.067867 0)
(0.0292033 0.0704579 0)
(0.0312103 0.0717686 0)
(0.0333145 0.0717788 0)
(0.0354828 0.0703815 0)
(0.0377128 0.0674662 0)
(0.0400335 0.0628856 0)
(0.0423766 0.0565986 0)
(0.029982 0.0563409 0)
(0.0304682 0.0611827 0)
(0.0308698 0.0653231 0)
(0.0311327 0.0679862 0)
(0.0312499 0.0692471 0)
(0.0312903 0.0691247 0)
(0.0313106 0.0675783 0)
(0.0313512 0.0643473 0)
(0.0315042 0.059173 0)
(0.0317246 0.0521068 0)
(0.0320996 0.0569852 0)
(0.0306481 0.0621769 0)
(0.0289521 0.0665363 0)
(0.0270119 0.0696729 0)
(0.0246694 0.0714268 0)
(0.0219278 0.0715891 0)
(0.0186915 0.0702526 0)
(0.014749 0.0669765 0)
(0.0102393 0.0614897 0)
(0.00615515 0.0560555 0)
(0.031147 0.0616195 0)
(0.0278245 0.0675313 0)
(0.0240719 0.0726287 0)
(0.0198496 0.076724 0)
(0.0152252 0.0796111 0)
(0.0099992 0.0811869 0)
(0.00377398 0.0817258 0)
(-0.00358745 0.0816097 0)
(-0.0123061 0.0814623 0)
(-0.0245409 0.0803354 0)
(0.0285596 0.0696446 0)
(0.0237897 0.0763574 0)
(0.0187612 0.0822907 0)
(0.013552 0.0871321 0)
(0.00827608 0.0908243 0)
(0.00289057 0.0937641 0)
(-0.00291088 0.0968478 0)
(-0.0108862 0.101806 0)
(-0.023376 0.106077 0)
(-0.0172692 0.0919496 0)
(0.0243283 0.0800955 0)
(0.0182827 0.0870642 0)
(0.0122354 0.0928478 0)
(0.00644467 0.0970922 0)
(0.00150768 0.100034 0)
(-0.00226766 0.103032 0)
(-0.00593712 0.107993 0)
(-0.00382778 0.112434 0)
(0.0261244 0.0800988 0)
(0.0557434 0.0365727 0)
(0.0175266 0.0936021 0)
(0.00945388 0.100661 0)
(0.00112246 0.105945 0)
(-0.00672979 0.109339 0)
(-0.0135438 0.111927 0)
(-0.0209171 0.113293 0)
(-0.026699 0.0950496 0)
(-0.00133469 0.0520799 0)
(0.0322229 0.0160754 0)
(0.0587902 -0.00918174 0)
(0.00904698 0.111508 0)
(-0.00142358 0.119186 0)
(-0.0120945 0.124974 0)
(-0.0231057 0.130448 0)
(-0.0403509 0.137967 0)
(-0.0786265 0.125235 0)
(-0.0710555 0.0646753 0)
(-0.0461844 0.0142299 0)
(-0.00704825 -0.0322175 0)
(0.050688 -0.0814354 0)
(0.00126717 0.133261 0)
(-0.0107347 0.142175 0)
(-0.0238487 0.15204 0)
(-0.0447245 0.171798 0)
(-0.110744 0.22396 0)
(-0.102076 0.141008 0)
(-0.0636809 0.0320011 0)
(-0.0220106 -0.0755068 0)
(0.0378159 -0.186133 0)
(0.110003 -0.275971 0)
(-0.00421728 0.157997 0)
(-0.0193045 0.172476 0)
(-0.04668 0.203245 0)
(-0.136562 0.307025 0)
(-0.118258 0.231869 0)
(-0.0230059 0.0312091 0)
(0.0569952 -0.105045 0)
(0.108461 -0.205195 0)
(0.150489 -0.296165 0)
(0.191141 -0.372352 0)
(-0.00820755 0.189557 0)
(-0.0402131 0.232295 0)
(-0.159401 0.389278 0)
(-0.114318 0.275179 0)
(0.0250304 -0.020952 0)
(0.0898504 -0.142097 0)
(0.128017 -0.213917 0)
(0.162464 -0.279779 0)
(0.193477 -0.35744 0)
(0.224125 -0.431059 0)
(-0.0305395 0.256108 0)
(-0.174744 0.473468 0)
(-0.15448 0.370067 0)
(0.0564347 -0.0777682 0)
(0.107504 -0.162804 0)
(0.131508 -0.209502 0)
(0.150842 -0.253295 0)
(0.17426 -0.315059 0)
(0.217334 -0.421146 0)
(0.253415 -0.505924 0)
(-0.174415 0.558905 0)
(-0.20254 0.487296 0)
(0.0688862 -0.110953 0)
(0.105629 -0.180746 0)
(0.124895 -0.209528 0)
(0.141049 -0.236661 0)
(0.158366 -0.285198 0)
(0.188096 -0.387349 0)
(0.242267 -0.511585 0)
(0.286454 -0.595001 0)
(-0.284165 0.689815 0)
(0.0574395 -0.116679 0)
(0.093864 -0.195156 0)
(0.112746 -0.220183 0)
(0.127183 -0.236951 0)
(0.14596 -0.26833 0)
(0.177059 -0.354259 0)
(0.221156 -0.477772 0)
(0.277603 -0.605884 0)
(0.323169 -0.685295 0)
(0.0417451 -0.041925 0)
(0.083721 -0.189472 0)
(0.101665 -0.228852 0)
(0.113664 -0.250545 0)
(0.130739 -0.274886 0)
(0.160777 -0.335886 0)
(0.204347 -0.443699 0)
(0.260673 -0.581077 0)
(0.320385 -0.706994 0)
(0.366506 -0.778846 0)
(0.112284 -0.193045 0)
(0.124879 -0.236994 0)
(0.136556 -0.262058 0)
(0.150575 -0.287088 0)
(0.170992 -0.325333 0)
(0.207948 -0.41793 0)
(0.252434 -0.546151 0)
(0.317587 -0.69987 0)
(0.371306 -0.810155 0)
(0.412329 -0.869745 0)
(0.140218 -0.240127 0)
(0.153522 -0.269666 0)
(0.165492 -0.293414 0)
(0.18095 -0.324594 0)
(0.203888 -0.381021 0)
(0.250095 -0.504814 0)
(0.307183 -0.659304 0)
(0.371118 -0.815287 0)
(0.417479 -0.90119 0)
(0.453278 -0.951848 0)
(0.165456 -0.280101 0)
(0.175232 -0.299394 0)
(0.187701 -0.323874 0)
(0.205809 -0.365825 0)
(0.2367 -0.456755 0)
(0.296835 -0.614979 0)
(0.366433 -0.795918 0)
(0.415128 -0.911753 0)
(0.449993 -0.976471 0)
(0.483864 -1.02431 0)
(0.170219 -0.308688 0)
(0.179845 -0.326693 0)
(0.194383 -0.356469 0)
(0.220076 -0.419282 0)
(0.272877 -0.563223 0)
(0.346623 -0.751844 0)
(0.401338 -0.899728 0)
(0.43823 -0.983516 0)
(0.468937 -1.04147 0)
(0.500462 -1.08909 0)
(0.15749 -0.325774 0)
(0.164534 -0.350648 0)
(0.184077 -0.401561 0)
(0.226459 -0.521218 0)
(0.303768 -0.709739 0)
(0.370136 -0.878193 0)
(0.413613 -0.980142 0)
(0.444227 -1.04732 0)
(0.473535 -1.10239 0)
(0.50205 -1.14741 0)
(0.13941 -0.336436 0)
(0.150659 -0.380959 0)
(0.183378 -0.479094 0)
(0.258475 -0.667616 0)
(0.33204 -0.853268 0)
(0.379577 -0.968433 0)
(0.410635 -1.04315 0)
(0.438219 -1.10486 0)
(0.465024 -1.15729 0)
(0.48975 -1.19774 0)
(0.121648 -0.349351 0)
(0.142465 -0.431954 0)
(0.207899 -0.618545 0)
(0.288221 -0.824704 0)
(0.337501 -0.949126 0)
(0.368628 -1.02885 0)
(0.39511 -1.09678 0)
(0.42054 -1.1567 0)
(0.44428 -1.2053 0)
(0.464879 -1.23922 0)
(0.0971426 -0.378032 0)
(0.144313 -0.550888 0)
(0.23107 -0.786195 0)
(0.283522 -0.925149 0)
(0.316343 -1.00983 0)
(0.342805 -1.08188 0)
(0.368042 -1.14792 0)
(0.391781 -1.20422 0)
(0.412426 -1.24636 0)
(0.429022 -1.27184 0)
(0.0615239 -0.437263 0)
(0.150953 -0.749774 0)
(0.216784 -0.907281 0)
(0.255999 -0.994415 0)
(0.284473 -1.06582 0)
(0.310228 -1.13411 0)
(0.334332 -1.1963 0)
(0.35542 -1.24614 0)
(0.372428 -1.27983 0)
(0.385094 -1.2962 0)
(0.0898405 -0.61517 0)
(0.166192 -0.872094 0)
(0.207976 -0.977862 0)
(0.232051 -1.04718 0)
(0.254574 -1.11448 0)
(0.276846 -1.1805 0)
(0.297251 -1.23774 0)
(0.314048 -1.27984 0)
(0.326838 -1.30492 0)
(0.335469 -1.3132 0)
(0.111012 -0.792534 0)
(0.153039 -0.945521 0)
(0.177412 -1.02068 0)
(0.198333 -1.08808 0)
(0.218737 -1.15595 0)
(0.238382 -1.21996 0)
(0.255187 -1.27102 0)
(0.267963 -1.30502 0)
(0.27711 -1.32255 0)
(0.282072 -1.32471 0)
(0.0728822 -0.856504 0)
(0.112641 -0.989438 0)
(0.136777 -1.06277 0)
(0.159121 -1.12981 0)
(0.179431 -1.1959 0)
(0.197085 -1.2547 0)
(0.210595 -1.29744 0)
(0.219918 -1.32325 0)
(0.226004 -1.33465 0)
(0.227547 -1.33264 0)
(0.0442869 -0.961669 0)
(0.0769296 -1.04975 0)
(0.102293 -1.11188 0)
(0.124374 -1.17263 0)
(0.142853 -1.23294 0)
(0.157499 -1.28363 0)
(0.167433 -1.31695 0)
(0.173493 -1.33526 0)
(0.176576 -1.34224 0)
(0.174866 -1.33868 0)
(0.0369858 -1.03343 0)
(0.0586179 -1.102 0)
(0.0794501 -1.15416 0)
(0.0974766 -1.20815 0)
(0.112092 -1.26223 0)
(0.122581 -1.30436 0)
(0.128557 -1.32883 0)
(0.131235 -1.34096 0)
(0.130969 -1.34488 0)
(0.126799 -1.34111 0)
(0.0421413 -1.08083 0)
(0.0520606 -1.13453 0)
(0.0643221 -1.18176 0)
(0.0760344 -1.23272 0)
(0.0860537 -1.28224 0)
(0.0923273 -1.31658 0)
(0.0947329 -1.33353 0)
(0.0944354 -1.34083 0)
(0.0914729 -1.34242 0)
(0.0864366 -1.3387 0)
(0.0262396 -1.1001 0)
(0.034299 -1.15265 0)
(0.0447826 -1.2011 0)
(0.0549221 -1.2512 0)
(0.0628246 -1.29585 0)
(0.0661913 -1.32233 0)
(0.0661058 -1.33275 0)
(0.0635277 -1.33596 0)
(0.0585172 -1.33531 0)
(0.0529687 -1.33091 0)
(0.0137467 -1.11956 0)
(0.0204046 -1.17114 0)
(0.0296127 -1.21985 0)
(0.0386475 -1.26747 0)
(0.0446631 -1.30506 0)
(0.0455342 -1.32357 0)
(0.0439654 -1.32857 0)
(0.0402419 -1.32813 0)
(0.0344377 -1.32537 0)
(0.0291339 -1.32032 0)
(0.00665658 -1.13391 0)
(0.0123605 -1.18791 0)
(0.0202893 -1.23639 0)
(0.0280056 -1.28068 0)
(0.0319104 -1.3096 0)
(0.0302982 -1.32126 0)
(0.0278525 -1.32261 0)
(0.0235714 -1.31889 0)
(0.0172508 -1.31414 0)
(0.0118961 -1.30889 0)
(0.00882326 -1.14455 0)
(0.0115379 -1.20104 0)
(0.0170467 -1.2492 0)
(0.0224454 -1.28988 0)
(0.0239304 -1.30919 0)
(0.0197371 -1.31584 0)
(0.016783 -1.3158 0)
(0.0123795 -1.3088 0)
(0.00559534 -1.30143 0)
(-1.95776e-05 -1.29571 0)
(0.0130673 -1.15319 0)
(0.0129887 -1.20982 0)
(0.0166832 -1.25819 0)
(0.0198072 -1.29457 0)
(0.0194066 -1.30402 0)
(0.0127508 -1.30747 0)
(0.00948874 -1.3086 0)
(0.00533273 -1.2984 0)
(-0.00175835 -1.28701 0)
(-0.00777252 -1.27972 0)
(0.0191037 -1.15905 0)
(0.0168377 -1.2143 0)
(0.0189465 -1.26369 0)
(0.0192681 -1.29394 0)
(0.0175352 -1.29449 0)
(0.00837652 -1.29622 0)
(0.00488849 -1.30084 0)
(0.0010067 -1.2886 0)
(-0.00572348 -1.27089 0)
(-0.0123659 -1.26061 0)
(0.0242446 -1.14942 0)
(0.0211512 -1.2121 0)
(0.0227339 -1.26536 0)
(0.0190089 -1.28725 0)
(0.0166375 -1.28172 0)
(0.00505602 -1.28304 0)
(0.00199024 -1.29205 0)
(-0.00258419 -1.28143 0)
(-0.00729924 -1.25385 0)
(-0.0140427 -1.23739 0)
(0.0220656 -1.14356 0)
(0.0196259 -1.20758 0)
(0.0239223 -1.2665 0)
(0.0157844 -1.27658 0)
(0.0145173 -1.2682 0)
(0.00116716 -1.26971 0)
(0.000310977 -1.28148 0)
(-0.00706046 -1.27934 0)
(-0.00708657 -1.23862 0)
(-0.0125814 -1.20752 0)
(0.00758421 -1.13395 0)
(0.00760016 -1.20889 0)
(0.0215036 -1.27166 0)
(0.00983535 -1.26483 0)
(0.0116291 -1.25579 0)
(-0.00271351 -1.25715 0)
(-0.000429135 -1.26832 0)
(-0.0137673 -1.28172 0)
(-0.00426129 -1.23093 0)
(-0.00760211 -1.16563 0)
(4.58984e-07 -1.09476 0)
(-0.00299112 -1.22363 0)
(0.024127 -1.2771 0)
(0.00552488 -1.25178 0)
(0.00975166 -1.24421 0)
(-0.00496189 -1.24518 0)
(0.000128442 -1.25312 0)
(-0.0216979 -1.28296 0)
(0.00282565 -1.23945 0)
(-0.00379103 -1.10445 0)
(0.0107625 -1.02901 0)
(-0.0139274 -1.26223 0)
(0.0279431 -1.27677 0)
(0.00118911 -1.23784 0)
(0.00766829 -1.2335 0)
(-0.00507153 -1.23426 0)
(0.0027046 -1.23846 0)
(-0.0258198 -1.27917 0)
(0.0153532 -1.2753 0)
(-0.0122911 -1.02215 0)
(-0.0136447 -0.0034748 0)
(-0.010918 -0.00321668 0)
(-0.00841375 -0.0029292 0)
(-0.00614813 -0.00262269 0)
(-0.00413195 -0.00230533 0)
(-0.00237017 -0.00198429 0)
(-0.000861975 -0.00166614 0)
(0.000398866 -0.00135906 0)
(0.0014253 -0.00106906 0)
(0.00223485 -0.000801822 0)
(0.00284845 -0.000562889 0)
(0.0032915 -0.000356397 0)
(0.00359248 -0.000185396 0)
(0.00378189 -5.29691e-05 0)
(0.00389126 3.80845e-05 0)
(0.00395447 8.604e-05 0)
(0.00400644 9.07586e-05 0)
(0.00408052 5.31566e-05 0)
(0.00420874 -2.49288e-05 0)
(0.00442152 -0.000141065 0)
(0.00474704 -0.000292549 0)
(0.00521085 -0.000476164 0)
(0.00583498 -0.000687713 0)
(0.00663695 -0.000921651 0)
(0.00762833 -0.0011704 0)
(0.00881273 -0.00142365 0)
(0.010183 -0.00166693 0)
(0.0117175 -0.00187916 0)
(0.0133748 -0.0020333 0)
(0.0150886 -0.00209223 0)
(0.01676 -0.00200674 0)
(0.0182503 -0.00171395 0)
(0.0193771 -0.0011327 0)
(0.0199432 -0.000183986 0)
(0.0195917 0.00114393 0)
(0.0180645 0.0028639 0)
(0.0151747 0.00483045 0)
(0.0110655 0.00642651 0)
(0.00454187 0.00592323 0)
(0.00241207 0.00284259 0)
(-0.0175633 -0.0073415 0)