/*--------------------------------*- C++ -*----------------------------------*\
  =========                 |
  \\      /  F ield         | OpenFOAM: The Open Source CFD Toolbox
   \\    /   O peration     | Website:  https://openfoam.org
    \\  /    A nd           | Version:  8
     \\/     M anipulation  |
\*---------------------------------------------------------------------------*/
FoamFile
{
    version     2.0;
    format      ascii;
    class       volScalarField;
    location    "5.9";
    object      p;
}
// * * * * * * * * * * * * * * * * * * * * * * * * * * * * * * * * * * * * * //

dimensions      [1 -1 -2 0 0 0 0];

internalField   nonuniform List<scalar> 
9150
(
-205.228
-206.237
-206.865
-207.33
-207.567
-207.581
-207.349
-206.877
-206.233
-205.224
-225.288
-225.8
-226.229
-226.558
-226.729
-226.714
-226.55
-226.226
-225.797
-225.287
-245.18
-245.457
-245.711
-245.929
-246.053
-246.046
-245.936
-245.718
-245.459
-245.18
-264.917
-265.089
-265.258
-265.412
-265.496
-265.504
-265.422
-265.262
-265.092
-264.919
-284.539
-284.716
-284.853
-284.979
-285.039
-285.044
-284.984
-284.856
-284.719
-284.542
-119.363
-120.059
-119.711
-119.336
-119.145
-119.138
-119.32
-119.683
-120.037
-119.345
-134.752
-135.468
-135.623
-135.658
-135.558
-135.562
-135.668
-135.626
-135.478
-134.752
-151.185
-151.942
-152.257
-152.602
-152.674
-152.688
-152.632
-152.265
-151.966
-151.207
-168.036
-169.191
-169.664
-170.286
-170.47
-170.478
-170.288
-169.674
-169.206
-168.047
-185.139
-187.164
-187.936
-188.614
-188.878
-188.877
-188.58
-187.923
-187.156
-185.13
-26.0623
-27.0341
-28.9607
-29.9395
-30.3548
-30.2428
-29.6031
-28.5315
-26.7296
-25.6036
-46.0195
-46.2336
-47.1353
-47.4932
-47.9849
-47.9478
-47.4999
-47.1331
-46.1101
-45.8438
-66.166
-65.967
-67.0023
-66.5998
-67.0613
-66.9665
-66.5154
-66.8994
-65.8617
-66.0449
-88.9226
-86.0379
-87.0034
-85.4678
-85.6052
-85.5811
-85.4806
-86.9505
-86.0009
-88.8824
-114.18
-104.901
-104.316
-103.01
-102.586
-102.595
-103.027
-104.294
-104.876
-114.106
1130.23
1130.32
1130.12
1129.9
1129.85
1129.82
1129.77
1129.75
1129.77
1129.73
1110.59
1110.54
1110.46
1110.26
1110.3
1110.12
1110.19
1110.16
1110.16
1110.17
1091.17
1091.11
1090.98
1090.77
1091.62
1091.03
1090.92
1090.79
1090.47
1090.11
1071.66
1071.66
1071.61
1071.68
1071.78
1071.14
1071.01
1070.8
1070.32
1069.54
1052.32
1052.26
1052.06
1052.06
1051.74
1051.5
1051.23
1050.85
1050.19
1049.38
1032.76
1032.67
1032.43
1032.13
1031.88
1031.58
1031.33
1031.09
1030.67
1030.11
1012.94
1013
1013.15
1012.48
1012.16
1011.95
1011.45
1011.56
1011.24
1010.42
992.878
994.279
995.011
995.241
995.042
994.449
993.403
992.458
991.867
990.965
970.831
972.919
974.559
976.114
976.145
974.885
973.265
972.445
971.815
971.31
949.732
950.537
951.607
952.252
952.244
951.338
951.004
951.072
950.025
950.1
929.844
928.523
927.35
926.971
926.157
925.531
925.564
927.213
927.701
928.41
909.85
906.538
901.757
903.582
902.837
903.855
903.56
904.583
906.116
906.61
891.366
888.089
886.081
884.37
884.27
883.137
884.976
886.63
886.936
887.351
872.218
871.133
871.055
871.091
870.371
868.26
869.111
869.039
869.089
870.063
853.911
852.145
851.779
852.193
850.117
849.849
850.1
849.358
850.096
850.099
834.256
832.695
832.214
830.697
830.153
830.346
830.543
831.039
831.699
832.927
812.816
810.549
809.453
809.915
810.301
810.934
811.858
812.56
815.824
819.135
794.332
792.822
792.217
794.735
796.12
796.928
798.604
801.772
804.774
805.165
776.881
777.297
776.751
775.253
778.992
779.691
780.101
781.281
785.537
789.894
755.601
757.356
755.232
753.66
752.54
752.871
755.394
762.663
761.421
761.317
733.888
730.265
730.001
729.634
728.359
734.136
728.93
729.454
732.414
731.514
706.861
707.693
710.16
709.879
710.152
710.046
707.005
703.042
702.67
701.631
700.836
700.365
698.304
696.358
695.392
693.859
690.658
686.238
681.999
677.749
687.763
685.356
680.753
683.876
684.215
682.611
679.563
676.297
673.1
670.07
667.633
669.313
669.672
670.715
670.794
669.941
668.013
666.451
663.621
659.472
644.885
645.844
647.745
650.103
653.169
654.124
652.406
648.681
645.973
643.855
620.909
620
622.6
626.178
630.533
633.519
635.151
632.607
625.479
623.514
604.537
600.499
601.071
602.045
604.593
608.001
611.596
613.471
609.105
605.22
597.466
595.101
592.305
586.347
586.809
589.451
592.832
596.438
597.665
591.548
589.323
588.112
586.311
578.833
576.91
576.418
576.341
576.986
577.599
573.982
576.035
573.151
570.607
568.508
567.233
565.995
564.588
563.376
560.824
562.374
560.573
559.201
558.478
558.711
558.944
558.391
554.809
557.46
557.797
550.924
543.617
543.966
544.027
541.31
540.246
555.445
541.61
540.562
534.86
533.582
532.263
528.962
529.213
522.441
526.715
528.836
512.574
517.379
512.777
504.454
519.031
518.376
519.423
509.633
510.572
506.655
498.027
503.267
492.922
495.642
503.194
502.019
507.104
501.388
500.573
503.111
498.404
490.125
493.229
483.37
484.418
489.186
490.367
491.901
495.244
495.188
500.805
488.026
484.332
481.277
471.765
473.31
478.539
480.799
480.223
479.577
480.042
481.301
476.777
467.668
459.11
460.151
464.882
464.882
471.817
471.402
466.985
460.735
455.948
450.09
451.088
449.759
451.513
452.799
449.806
448.441
448.205
444.222
439.165
432.032
434.67
430.68
436.6
439.987
442.001
445.613
435.394
429.519
422.646
413.33
424.543
425.939
428.133
429.178
426.956
421.672
418.547
414.177
405.755
395.3
412.28
413.297
413.485
409.288
409.593
408.894
405.309
398.286
388.185
377.049
392.15
392.431
393.988
392.944
390.067
386.023
380.817
376.1
368.714
357.727
379.829
381.55
379.562
375.619
370.398
367.392
365.935
351.823
351.794
343.387
361.617
369.039
366.162
361.352
362.577
361.911
355.789
345.099
339.453
333.113
330.853
345.714
351.285
357.722
359.97
353.759
343.789
333.871
324.062
318.176
311.28
315.831
327.68
339.563
334.739
328.122
318.322
304.609
303.533
302.364
292.256
291.853
287.569
295.802
300.266
294.201
282.311
265.93
253.052
277.09
251.364
256.605
242.905
240.396
240.98
245.445
243.242
235.127
241.182
249.413
220.002
215.715
211.336
205.852
204.217
202.603
208.534
219.043
232.967
245.128
195.559
193.57
190.412
185.433
183.603
183.504
180.906
189.392
214.774
234.161
188.37
183.679
179.085
176.272
171.102
164.491
163.019
169.141
206.77
220.594
173.688
171.831
170.081
168.003
166.373
165.947
164.341
153.955
162.811
183.211
157.198
156.63
156.614
157.75
159.373
160.868
164.951
163.192
154.321
163.875
139.441
140.099
141.494
145.085
150.151
154.32
155.218
166.418
147.924
148.156
118.827
118.735
121.072
125.365
128.018
127.636
150.715
138.828
130.653
113.511
101.077
101.14
105.99
111.684
115.348
130.292
123.89
119.405
106.155
74.5789
94.6972
100.766
109.491
115.418
116.971
113.607
110.037
109.614
86.2831
77.8044
85.6674
93.3048
104.197
108.883
109.298
100.123
99.3533
97.4759
95.5135
92.2722
71.9278
71.5354
81.3549
79.2358
83.3703
79.0733
83.716
92.2876
99.4363
101.539
60.4527
68.0306
71.6348
71.9245
72.783
71.7389
76.2834
93.3479
106.536
106.967
61.9684
65.2217
73.6993
76.1383
73.5338
73.434
72.414
87.3625
111.695
94.8826
63.3692
68.8223
79.1927
88.3712
89.3071
79.0228
56.9828
75.8441
69.4977
73.891
60.6669
82.8077
94.9453
103.34
122.905
81.5124
45.3024
41.6258
31.1543
38.2219
45.5502
48.517
78.3246
90.204
118.469
73.5962
44.6617
28.8814
14.9117
21.2862
40.3324
48.6623
37.8707
47.9313
61.2267
54.423
46.9658
37.0627
13.3798
14.5681
24.2845
22.3183
34.2148
51.7611
54.1226
39.7364
34.1505
25.0783
12.0379
5.29286
16.0411
18.5691
23.3297
31.5815
34.0196
44.5942
-1.79163
-8.47548
0.209569
-3.97437
7.35587
6.27461
7.0003
10.7683
18.1212
31.7401
-9.65331
-8.60332
-1.73159
-1.41179
1.64082
-0.53032
1.29481
4.12303
16.6627
34.2853
-6.52978
-2.62827
-1.53533
-1.43885
-1.46345
-1.49558
-1.47216
-1.75314
26.7399
18.5289
-2.31771
-1.10722
-1.2777
-1.3449
-1.3768
-1.89118
-2.6132
-3.65377
28.3688
15.2921
-1.86291
-1.23849
-1.33774
-1.35748
-1.37479
-1.3949
-1.80048
-2.62561
23.3588
23.7911
-1.52413
-1.42757
-1.47017
-1.44532
-1.38437
-1.38008
-1.54364
0.366445
14.9074
36.4417
-1.51153
-1.44301
-1.42709
-1.41807
-1.39925
-1.39431
-1.46651
-2.19352
26.0229
20.6927
-1.3885
-1.40004
-1.4012
-1.41003
-1.43387
-1.41931
-1.43434
-1.67737
27.5337
20.684
-1.42832
-1.42384
-1.43545
-1.42558
-1.47898
-1.46468
-1.47973
-2.0211
26.6416
21.0313
-1.43888
-1.44366
-1.44041
-1.43995
-1.52475
-1.49353
-1.4801
-0.914729
18.6944
30.4069
-1.51909
-1.47455
-1.47021
-1.44899
-1.57919
-1.51996
-1.5187
-1.28541
21.7096
27.3477
-1.49261
-1.45026
-1.45653
-1.45991
-1.58457
-1.51291
-1.36779
-1.73116
31.521
15.1871
-1.40266
-1.40898
-1.42866
-1.46696
-1.72473
-1.67903
-1.61561
-1.78433
30.0721
15.6056
-1.42461
-1.43996
-1.45434
-1.48812
-1.9537
-1.97353
-1.92425
-2.0036
24.1038
20.4734
-1.49083
-1.5042
-1.50686
-1.52008
-2.00122
-2.04638
-1.9984
-2.03502
22.249
20.7601
-1.55762
-1.5474
-1.54663
-1.55488
-1.8876
-1.90168
-1.90763
-1.95996
25.3291
15.3308
-1.59261
-1.57159
-1.57625
-1.58348
-1.80481
-1.80444
-1.81117
-1.87057
19.4792
19.2658
-1.66159
-1.61155
-1.61431
-1.61686
-1.76699
-1.76496
-1.77395
-1.83646
19.1609
16.9646
-1.66808
-1.62766
-1.64447
-1.6459
-1.75428
-1.75636
-1.76924
-1.82407
22.6102
10.9482
-1.68332
-1.64783
-1.68771
-1.69316
-1.74214
-1.74652
-1.75098
-1.79541
15.7661
13.8595
-1.74923
-1.70832
-1.7265
-1.73203
-1.74427
-1.74802
-1.75088
-1.80056
10.5145
14.2206
-1.79152
-1.75371
-1.74919
-1.76808
-1.76752
-1.76923
-1.77495
-1.85141
10.7347
9.01195
-1.87991
-1.79109
-1.78895
-1.7915
-1.78782
-1.787
-1.78217
-2.07834
7.77173
6.67755
-2.00753
-1.80266
-1.81306
-1.81142
-1.80163
-1.79892
-1.80025
-2.3319
4.18559
5.71663
-2.07308
-1.83833
-1.83532
-1.83609
-1.82347
-1.82112
-1.92209
-2.76655
3.29677
2.31506
-1.42193
-1.90124
-1.86064
-1.86165
-1.83984
-1.83942
-1.89881
-1.21349
1.133
0.368963
-2.09008
-2.07846
-1.88938
-1.88801
-1.87159
-1.87282
-2.16074
-0.943652
0.213513
-0.222815
-1.8232
-2.32329
-1.91086
-1.90811
-1.89154
-1.87917
-3.4458
-1.63873
-0.607479
-0.629481
-1.55423
-3.12843
-1.91595
-1.92092
-1.9091
-2.57541
-4.7226
-2.7824
-1.70314
-1.66885
-2.55606
-4.3302
-2.20187
-1.92639
-1.92879
-4.23474
-5.78001
-6.08783
-6.18019
-5.97151
-5.87069
-5.6998
-3.99269
-1.94514
-2.83084
-9.79345
-12.9374
-14.8665
-15.7285
-15.9647
-15.3208
-13.4009
-9.93956
-2.71872
1129.77
1129.83
1129.9
1130.09
1130.24
1130.49
1130.8
1131.21
1131.7
1132.28
1132.83
1133.63
1134.56
1135.59
1136.6
1137.72
1138.29
1138.85
1139.2
1138.17
1135.83
1132.77
1129.43
1126.26
1126.21
1125.51
1124.92
1125.16
1125.93
1127.22
1129.32
1131.5
1132.85
1133.71
1133.34
1133.01
1132.69
1132.87
1131.45
1131.07
1110.11
1110.1
1110.17
1110.3
1110.44
1110.76
1111.02
1111.38
1111.8
1112.31
1112.92
1113.64
1114.49
1115.46
1116.58
1117.68
1118.47
1119.12
1118.75
1117.48
1114.8
1111.11
1107.69
1104.79
1102.33
1101.19
1101.52
1102.34
1103.86
1105.81
1107.41
1111.78
1110.62
1112.71
1114.05
1115.05
1114.68
1113.67
1112.52
1112.42
1089.98
1089.97
1090
1090.09
1090.25
1090.82
1090.93
1091.3
1091.68
1092.11
1092.65
1093.27
1093.92
1094.7
1095.43
1096.14
1096.66
1097.09
1096.21
1093.72
1090.51
1086.5
1081.25
1077.17
1074.63
1073.1
1073.62
1075.88
1078.45
1080.91
1083.16
1085.58
1088
1090.44
1092.55
1093.75
1094.14
1093.95
1093.42
1095.4
1068.94
1068.41
1068.58
1069.05
1069.57
1070.09
1070.48
1070.86
1071.25
1071.63
1072.13
1072.7
1073.3
1073.77
1074.09
1074.3
1074.29
1074.02
1072.91
1069.55
1065.79
1061.64
1057.43
1052.56
1048.81
1050.36
1048.42
1050.45
1053.72
1057.06
1060.16
1062.81
1065.18
1067.34
1069.32
1070.34
1070.32
1070.99
1070.9
1071.6
1048.58
1049.77
1048.35
1048.04
1048.75
1049.47
1050.01
1050.48
1050.89
1051.3
1052.23
1052.14
1052.58
1052.84
1052.91
1052.84
1052.53
1051.89
1050.89
1048.87
1043.92
1041.22
1037.84
1034.45
1033.46
1032.3
1032.05
1033.16
1034.75
1036.18
1039.11
1041.44
1043.34
1045.26
1047.38
1049.07
1049.44
1052.38
1052.29
1053.59
1029.66
1029.62
1030.03
1029.09
1028.83
1029.49
1030
1030.4
1030.72
1031.13
1032.12
1031.77
1032.08
1032.16
1032.06
1031.84
1031.42
1030.79
1029.91
1028.58
1026.27
1023.62
1022.13
1020.54
1018.56
1018.53
1018.05
1018
1018.69
1019.27
1020.9
1022.19
1023.02
1024.12
1025.51
1028.45
1030.84
1033.03
1036.36
1038.11
1011.36
1011.42
1011.38
1011.2
1009.56
1009.46
1009.67
1010.04
1010.44
1010.76
1011.68
1011.83
1011.6
1011.48
1011.38
1011.18
1010.87
1010.56
1010.13
1009.57
1008.5
1007.25
1005.95
1004.72
1004.65
1003.88
1003.91
1004.61
1004.97
1003.59
1003.6
1004.01
1004.07
1005.39
1009.38
1008.93
1011.62
1017.01
1017.66
1020.7
991.05
990.555
990.305
989.911
989.441
989.133
988.957
988.959
989.235
989.553
989.869
990.707
990.325
990.502
990.558
990.583
990.595
990.585
990.608
990.641
990.329
989.91
989.423
988.68
988.433
988.283
987.781
987.508
991.613
988.342
987.265
987.521
988.48
990.283
993.117
994.957
996.142
1000.39
1003.19
1003.09
971.002
970.224
969.393
968.966
968.534
968.009
967.891
968.502
967.917
967.884
968.082
968.13
968.23
969.892
969.32
969.912
970.143
970.324
970.653
971.043
971.387
972.48
972.533
971.462
971.524
971.681
971.838
971.937
972.214
972.814
973.145
973.985
975.594
977.48
978.787
983.075
983.802
984.342
987.808
985.679
949.688
948.983
947.976
946.899
946.409
946.287
946.498
946.788
946.811
946.369
946.907
946.563
948.89
948.453
948.317
948.789
949.01
949.815
950.871
951.44
951.907
952.758
953.326
953.835
954.419
955.096
955.801
956.619
957.491
958.386
959.39
960.597
962.106
963.631
965.099
969.186
970.682
968.419
968.409
969.352
928.45
927.852
926.865
928.072
927.435
925.642
925.856
925.809
925.284
925.32
924.814
923.978
930.111
926.462
927.342
927.09
927.166
928.642
930.267
931.524
932.708
933.857
934.96
936.083
937.251
938.614
939.771
941.084
942.413
943.659
944.898
946.276
947.706
949.103
950.169
955.39
951.936
955.654
952.917
953.333
907.954
908.113
907.787
908.233
908.037
906.331
905.842
905.541
905.143
904.578
904.17
905.907
906.722
906.585
904.702
903.945
906.281
908.127
910.027
911.887
913.521
915.214
916.828
918.377
919.978
921.681
923.436
925.165
926.791
928.207
929.731
931.249
932.676
934.203
936.69
940.716
936.224
938.303
936.411
937.224
888.968
888.689
887.975
889.34
888.674
886.63
885.403
884.772
884.455
884.184
884.478
883.893
885.608
885.004
883.331
885.172
887.883
890.859
893.121
893.924
894.775
897.047
898.828
900.516
902.127
904.291
906.949
909.144
910.465
912.16
913.572
915.152
916.431
917.537
923.349
918.947
920.023
919.048
922.092
920.586
870.188
869.109
871.133
869.823
866.909
865.281
863.303
862.449
862.31
862.157
861.526
862.546
864.145
864.993
865.014
867.522
870.869
873.616
876.329
878.394
877.619
879.241
880.621
882.182
884.684
888.758
889.882
891.798
893.392
894.972
896.613
898.247
899.47
904.696
901.282
902.104
902.598
901.963
904.417
903.22
850.828
852.434
851.871
850.222
847.682
844.185
841.186
839.705
838.68
836.631
834.409
836.863
840.747
843.542
846.13
847.405
851.76
853.92
855.841
858.478
860.144
861.759
862.877
864.82
868.568
870.725
872.06
874.086
875.517
877.357
878.434
881.834
883.761
884.011
884.939
885.073
885.074
884.819
885.002
885.158
834.793
835.364
835.731
831.301
821.641
815.92
816.204
816.631
818.004
816.773
818.497
826.311
829.252
824.401
824.045
827.803
833.742
837.067
839.576
841.763
843.317
845.155
847.676
849.191
850.958
852.064
854.886
855.378
857.513
859.313
861.831
864.404
865.59
866.731
867.466
867.572
867.344
867.057
867.094
867.202
821.404
821.925
818.992
816.02
804.905
804.315
802.819
801.113
800.735
800.474
797.724
800.732
803.63
804.319
804.418
809.453
813.979
817.664
820.83
823.671
825.075
828.504
829.119
831.187
832.2
834.752
835.911
838.024
839.409
839.759
842.407
844.814
847.472
849.481
850.416
850.231
849.796
849.225
849.274
849.034
808.544
813.07
810.53
798.795
791.266
784.448
780.888
785.176
785.753
784.536
783.241
782.713
781.87
782.002
784.856
789.571
795.785
801.671
805.857
808.573
808.624
812.703
812.46
812.326
813.611
814.6
814.802
817.538
818.799
820.402
822.885
826.297
829.685
833.018
833.542
832.951
832.39
831.685
831.678
832.004
789.599
787.212
785.452
780.282
772.798
774.294
772.308
771.633
771.963
768.583
766.493
765.333
764.768
764.805
767.352
771.74
776.712
781.274
783.277
785.965
788.349
790.466
791.728
792.714
792.387
791.536
791.199
792.234
793.607
795.61
799.867
807.62
815.744
816.939
816.501
815.006
815.171
817.147
816.971
816.853
762.307
761.65
759.193
756.258
754.304
753.856
752.748
750.187
759.651
754.553
749.967
751.041
747.751
750.994
752.93
754.41
755.161
757.074
759.148
761.709
763.736
765.187
767.2
767.22
765.706
764.901
768.527
771.004
771.929
773.335
778.621
782.134
786.116
789.678
790.583
791.626
793.473
796.001
799.357
801.167
731.863
732.703
732.476
731.862
731.324
730.868
731.077
730.504
729.76
730.095
731.677
732.107
731.162
733.664
732.287
732.974
733.113
733.371
734.149
735.95
737.117
738.459
740.506
742.687
741.764
745.891
746.785
748.999
749.43
747.917
745.666
747.321
749.106
752.952
756.528
760.862
766.234
772.041
777.476
782.74
703.37
705.879
707.064
707.497
707.715
707.757
708.264
709.625
709.269
713.006
712.558
711.881
713.362
714.911
715.152
714.155
712.7
711.371
711.145
712.485
714.414
717.522
722.73
716.943
723.352
726.751
733.795
734.53
730.826
724.519
716.535
715.185
714.194
716.223
719.772
724.592
730.068
738.637
746.348
752.558
678.75
680.944
682.156
682.864
683.893
685.296
690.244
692.61
694.47
696.372
697.609
698.423
696.491
696.875
696.733
695.319
692.949
690.439
689.679
690.868
694.081
696.696
699.108
699.113
699.297
705.613
711.927
712.348
710.639
706.697
699.794
692.479
687.224
685.016
685.091
687.99
692.497
701.455
708.325
712.615
667.037
662.608
658.693
657.369
657.143
660.283
664.223
668.524
673
675.562
681.216
683.413
685.202
687.359
687.596
685.934
680.886
675.534
675.58
676.345
679.94
682.153
683.148
682.765
683.061
683.26
688.393
691.059
690.893
687.935
684.36
679.355
674.432
668.836
661.146
662.324
664.977
670.032
675.033
679.665
655.683
651.501
647.691
642.258
636.087
638.264
640.214
642.016
647.189
651.297
656.349
659.493
661.68
662.598
662.968
662.38
661.072
659.802
659.656
659.666
661.891
665.845
667.194
667.082
666.777
667.254
667.887
668.055
669.993
669.864
666.683
663.639
661.282
657.212
649.912
646.699
646.418
649.001
654.401
658.295
638.942
635.227
634.576
630.609
622.05
620.451
622.571
625.763
629.326
632.619
635.328
638.782
640.222
641.46
643.591
643.661
642.111
640.442
640.096
641.326
642.72
643.63
644.821
646.116
647.874
648.837
651.353
652.595
649.648
649.404
648.584
645.848
643.621
645.395
636.811
634.655
635.218
637.705
641.813
645.262
620.746
620.889
617.206
611.872
610.424
609.692
611.252
612.842
614.202
615.758
617.616
620.01
622.039
623.052
624.011
623.789
622.985
623.212
623.105
624.147
624.672
626.413
626.892
628.639
630.011
630.205
631.928
634.224
635.773
636.645
636.185
633.909
630.922
628.537
627.751
628.373
629.765
631.811
643.807
641.724
606.029
602.196
600.107
599.448
595.524
594.016
597.425
599.653
601.186
601.831
602.269
603.471
604.553
604.993
605.69
605.309
604.886
605.921
606.333
606.502
606.901
609.036
609.23
609.205
610.85
612.595
615.044
618.643
620.425
621.906
619.608
617.815
616.286
616.552
617.24
624.433
626.708
629.353
645.075
637.585
590.776
588.929
587.036
585.465
582.523
585.568
585.423
587.334
589.863
588.67
586.542
585.762
586.455
591.372
587.296
586.465
587.627
587.778
588.408
588.268
588.674
589.939
588.711
588.847
588.953
590.518
592.414
594.198
595.371
596.156
595.294
594.843
596.46
598.372
603.428
609.808
614.07
624.103
628.069
635.665
571.674
568.263
564.474
565.108
562.048
553.951
557.074
567.346
577.621
574.639
572.108
571.996
572.982
577.53
571.534
572.012
571.955
572.5
571.374
570.711
569.806
568.48
566.704
563.924
559.691
557.496
556.019
554.474
559.744
554.884
561.087
569.607
577.269
584.378
591.327
601.98
607.212
611.729
613.922
620.859
561.95
557.506
554.239
550.917
540.519
537.767
542.536
548.474
554.862
559.636
563.092
564.33
563.258
559.43
558.004
557.856
557.335
556.132
555.058
553.755
552.043
549.938
547.252
544.827
541.623
544.062
542.771
541.187
540.63
540.587
538.582
543.236
560.955
575.256
580.175
592.988
599.074
602.184
603.461
605.603
550.799
542.652
541.162
538.988
537.63
538.898
540.961
543.493
546.765
548.235
549.055
546.893
545.393
544.682
544.101
543.18
541.417
539.944
538.326
537.125
535.527
533.3
534.026
540.021
543.342
540.024
535.963
531.717
530.149
530.469
534.472
534.239
543.94
559.946
576.705
582.422
595.85
596.079
592.86
594.305
533.224
533.229
532.383
524.114
530.178
530.005
533.704
531.208
532.815
532.958
530.775
532.149
530.732
530.199
530.097
529.778
529.091
528.239
526.877
525.831
524.228
520.493
525.635
533.113
536.893
533.693
529.795
525.528
524.29
525.528
526.729
532.405
555.34
569.399
570.477
581.622
587.903
590.726
589.092
589.733
499.393
495.405
497.356
503.237
512.798
520.592
520.127
521.304
518.878
516.54
514.333
515.188
514.866
514.043
513.789
514.013
514.447
512.908
510.207
508.695
509.542
507.722
508.224
514.193
524.521
526.799
523.022
516.939
522.771
524.545
532.094
546.601
548.512
566.454
578.035
580.138
585.437
588.778
584.17
586.003
491.722
488.976
492.321
496.954
502.708
507.307
510.21
508.72
498.657
498.345
496.066
494.695
494.616
495.01
494.949
494.37
494.963
496.11
496.649
494.708
495.049
497.289
493.114
503.263
506.881
509.304
515.901
519.367
522.586
524.933
529.115
541.727
550.51
556.177
583.044
582.507
582.17
583.352
578.748
580.93
479.576
482.173
480.883
484.956
493.321
496.164
489.935
488.67
483.628
486.858
486.175
479.184
472.783
472.646
473.431
474.014
475.326
478.557
481.703
484.871
484.311
481.586
480.852
483.705
487.333
492.937
497.187
503.52
507.904
525.676
527.267
534.158
546.169
556.655
567.439
579.721
567.898
572.665
568.982
570.638
474.237
469.962
469.46
467.835
466.581
466.474
467.561
466.461
461.88
457.998
465.867
452.897
449.202
448.09
448.577
449.142
449.348
449.431
450.653
452.741
455.276
456.222
456.032
459.927
464.471
469.715
475.608
487.267
493.883
503.211
515.574
528.491
540.247
550.306
559.421
569.423
554.254
557.787
557.095
556.923
461.001
454.363
450.26
447.346
444.257
442.257
440.21
437.379
433.083
431.059
427.809
425.405
423.219
421.428
420.777
420.942
421.155
421.279
421.551
422.914
426.414
430.33
434.007
437.769
441.863
445.47
453.775
463.728
474.033
488.729
502.468
514.137
523.791
531.813
539.474
554.334
541.15
545.128
545.365
544.44
443.464
436.492
429.41
423.256
419.081
414.953
409.612
408.548
407.118
398.891
398.205
396.404
394.217
392.297
391.416
391.142
391.027
391.739
393.297
393.703
394.577
395.511
396.225
400.064
406.297
415.535
424.386
430.393
457.86
465.2
473.041
486.998
497.796
507.054
514.21
527.839
519.651
529.906
528.413
527.751
422.691
412.393
405.926
398.816
393.701
389.075
381.936
378.286
372.028
367.969
366.672
364.11
363.066
363.668
364.52
363.754
357.073
349.283
354.497
363.855
370.457
377.242
378.069
376.695
387.033
390.192
396.511
408.269
423.808
435.857
446.16
465.173
472.627
477.601
496.915
499.61
502.456
507.673
513.095
508.623
402.552
392.161
386.319
383.342
374.136
363.338
351.821
342.799
338.237
333.322
331.689
325.894
323.03
325.849
333.107
340.878
346.898
356.05
357.137
358.542
358.798
351.687
351.914
358.146
360.628
366.876
374.45
386.148
400.921
412.12
429.985
435.869
446.951
460.025
473.518
480.534
483.988
486.177
484.931
487.225
383.537
372.663
367.03
364.408
344.699
338.932
323.434
306.745
304.674
305.851
304.218
302.433
306.694
312.613
316.858
320.643
328.024
330.018
328.524
331.957
331.663
329.572
330.906
338.48
344.17
350.069
357.131
368.334
380.781
395.466
402.237
416.183
429.305
440.003
449.368
458.985
464.073
470.47
462.942
463.464
365.062
353.986
343.492
340.543
326.465
327.798
306.933
297.598
294.215
293.569
293.993
294.926
297.106
299.907
302.967
306.769
305.411
309.78
308.945
306.632
302.496
304.137
313.261
315.289
330.142
336.502
340.972
354.831
372.605
375.353
385.791
396.03
403.704
417.226
430.178
439.012
444.078
447.844
444.607
444.591
344.998
335.942
330.683
325.359
318.733
307.478
298.504
280.82
281.721
283.078
285.733
288.076
291.085
293.479
293.7
291.061
296.172
290.55
290.353
287.425
284.432
282.887
284.957
293.284
302.951
310.672
324.701
338.157
346.5
357.976
360.385
368.693
378.06
387.013
395.22
403.561
411.19
414.942
416.139
417.104
333.039
325.768
317.892
310.394
300.444
290.171
281.469
274.42
269.875
269.492
271.259
279.183
282.95
284.246
285.753
285.365
283.622
279.856
273.358
265.099
266.18
268.789
269.336
269.271
280.17
287.13
296.241
304.892
326.239
319.6
326.348
334.058
337.029
341.811
341.976
350.395
361.793
370.497
377.336
381.473
322.083
317.174
303.038
294.134
281.992
269.918
259.466
255.344
252.787
252.861
270.498
269.48
278.114
282.887
278.747
271.438
263.935
258.835
259.636
257.87
256.404
256.179
257.349
259.065
263.997
265.477
269.448
275.666
281.714
287.526
296.783
302.639
310.161
312.634
311.739
313.764
324.877
330.844
337.311
342.135
310.286
303.315
293.179
281.075
270.872
259.849
248.864
256.052
257.095
256.645
252.979
261.941
265.023
266.927
263.058
254.486
254.109
254.328
251.405
248.971
248.068
248.264
248.922
252.094
256.647
255.602
253.157
250.249
247.969
252.959
263.922
278.171
285.167
286.572
289.651
292.104
295.575
304.485
302.627
306.855
293.704
289.498
281.937
273.197
264.036
254.541
249.051
254.038
254.399
254.315
252.256
258.309
255.509
252.101
247.317
241.172
241.254
244.541
242.148
240.616
240.999
241.726
242.228
243.214
249.852
246.912
237.296
225.247
214.362
214.098
226.131
239.332
250.211
259.122
265.04
266.667
270.805
275.236
272.929
276.594
267.666
271.807
268.318
263.104
256.982
250.811
247.916
252.726
252.472
251.108
248.226
252.603
245.939
231.506
227.244
228.184
230.204
230.303
230.784
232.659
235.285
236.246
236.719
235.957
234.977
233.168
228.386
216.515
204.146
199.329
200.072
209.662
221.233
230.223
235.605
240.202
243.918
245.926
248.272
249.988
257.865
256.389
255.44
253.065
250.543
248.208
244.788
246.067
246.024
243.357
235.561
231.139
223.241
216.93
203.611
208.154
217.044
223.056
227.745
232.319
232.521
232.266
233.612
233.916
233.435
231.409
225.105
216.627
208.559
203.685
197.146
195.606
203.221
209.136
214.725
219.922
221.571
224.1
226.148
227.236
250.937
255.901
255.357
249.75
244.483
243.495
241.832
237.843
232.239
231.221
224.432
216.38
209.744
204.263
198.255
194.822
199.003
209.385
215.766
222.19
225.149
226.202
227.935
229.766
229.508
228.165
224.266
217.778
210.399
204.842
197.366
192.177
192.872
195.82
199.753
205.528
201.438
203.728
205.801
207.079
249.433
254.096
251.727
245.159
237.218
234.748
234.189
230.352
224.075
218.732
210.879
205.103
198.98
193.459
188.512
185.894
183.774
190.885
198.461
204.983
210.055
212.702
215.206
217.815
220.25
220.615
217.982
213.801
208.288
201.478
192.003
186.439
183.308
181.555
184.243
186.453
184.525
187.089
189.929
191.368
237.388
251.928
245.289
234.945
227.069
221.869
217.712
211.553
213.405
208.283
195.88
190.063
184.617
180.089
176.931
174.662
173.371
174.405
180.419
186.29
191.418
195.341
197.993
199.848
201.057
201.79
201.069
198.222
194.196
188.665
182.35
176.938
173.652
170.811
171.692
171.363
173.831
176.373
179.659
181.166
213.975
230.139
227.328
222.107
208.328
204.884
201.893
194.688
189.457
185.947
186.153
173.247
164.121
161.738
160.85
159.977
157.442
156.795
161.581
166.877
171.998
176.562
179.895
181.946
183.164
183.462
182.93
181.474
179.286
176.573
173.279
169.998
167.726
166.072
167.522
167
166.878
169.573
170.994
172.678
173.496
195.58
191.481
189.659
188.368
185.764
184.768
170.767
170.404
160.025
152.217
146.008
140.711
141.604
143.161
143.912
141.774
139.712
140.514
146.085
152.239
157.368
161.283
163.817
165.431
166.203
166.169
165.582
164.481
163.123
161.554
160.183
159.411
159.736
160.57
161.031
159.99
160.298
161.017
161.827
146.261
141.899
151.082
135.229
150.883
156.024
153.609
149.955
152.372
132.25
131.565
129.244
125.589
126.877
130.818
131.74
130.027
126.423
125.242
128.71
135.443
140.514
144.316
146.881
148.598
149.585
149.912
149.779
149.206
148.509
148.188
148.74
148.481
147.965
147.706
148.622
148.061
147.739
148.445
149.132
104.384
99.5071
104.364
103.643
115.47
125.942
128.338
127.931
127.875
121.545
125.342
123.254
118.068
121.347
125.356
125.701
124.512
122.412
125.321
125.372
126.146
127.809
130.232
132.065
133.251
134.175
134.291
134.193
133.546
133.005
134.772
134.947
132.411
131.703
131.577
132.722
133.394
133.366
133.976
134.943
68.5146
67.7297
76.8388
90.7111
99.7802
106.438
109.966
112.046
114.902
113.99
119.402
117.715
117.968
122.322
125.023
125.473
124.598
122.644
124.798
120.315
119.099
118.541
120.298
118.829
118.401
119.297
119.189
118.416
117.316
117.535
116.768
115.335
115.325
114.938
113.571
115.22
115.373
116.72
118.748
119.823
70.3652
68.0435
72.9366
82.6876
92.2752
97.1951
99.9027
102.906
105.867
105.928
119.471
118.813
122.744
125.288
126.93
126.764
126.176
126.604
126.677
123.542
121.403
118.601
114.671
109.468
105.798
106.212
105.537
104.516
103.023
100.68
99.7763
99.2888
99.363
99.0006
98.7189
108.667
101.351
101.087
103.671
105.253
91.0988
89.1537
82.9148
84.2
88.8019
89.8722
91.1751
93.3184
96.8859
99.6558
119.184
105.283
119.269
113.988
119.027
121.169
122.446
124.075
123.52
122.064
120.859
119.71
116.932
108.714
98.8652
94.9404
92.2791
89.8938
86.3801
83.3397
81.6733
81.9162
82.7072
86.2475
88.6233
91.0727
89.455
86.7154
87.5145
89.295
100.315
96.0522
85.8739
82.6545
81.2395
78.6788
78.4471
80.6481
86.3617
90.1467
104.518
84.1349
92.8273
96.7884
99.8892
104.385
107.641
109.066
109.743
108.556
107.7
103.966
100.674
95.175
85.3756
80.6766
76.7455
73.2395
69.195
65.2887
63.2287
63.5337
66.1435
67.4405
70.02
71.9922
73.5962
73.9491
72.7388
73.3344
97.6248
93.3616
83.4846
79.3683
75.4001
71.8695
71.1898
64.9626
72.9128
77.0287
76.2325
75.485
78.2224
80.9869
83.155
85.3179
88.1245
90.8676
92.6866
91.1309
87.4543
84.5932
80.365
75.0001
69.646
64.4657
59.7657
55.4645
52.2902
49.0889
46.7437
45.8444
52.4435
55.0108
54.1352
58.6341
60.5308
61.2729
62.0168
61.896
93.242
84.8327
72.8634
70.1081
74.6287
60.9609
66.1262
54.1559
68.6241
64.9426
63.3887
65.3145
66.7771
67.4443
66.451
63.6069
61.4246
62.3946
60.9552
56.4916
55.3946
57.9273
57.254
55.0168
54.0972
48.9492
43.5783
39.3711
36.7193
34.1904
29.7248
44.4713