/*--------------------------------*- C++ -*----------------------------------*\
  =========                 |
  \\      /  F ield         | OpenFOAM: The Open Source CFD Toolbox
   \\    /   O peration     | Website:  https://openfoam.org
    \\  /    A nd           | Version:  8
     \\/     M anipulation  |
\*---------------------------------------------------------------------------*/
FoamFile
{
    version     2.0;
    format      ascii;
    class       volScalarField;
    location    "4.35";
    object      p;
}
// * * * * * * * * * * * * * * * * * * * * * * * * * * * * * * * * * * * * * //

dimensions      [1 -1 -2 0 0 0 0];

internalField   nonuniform List<scalar> 
9150
(
-205.113
-206.122
-206.737
-207.207
-207.452
-207.452
-207.208
-206.739
-206.119
-205.109
-225.165
-225.683
-226.1
-226.42
-226.591
-226.593
-226.426
-226.101
-225.681
-225.162
-245.058
-245.34
-245.591
-245.812
-245.922
-245.918
-245.811
-245.592
-245.339
-245.055
-264.796
-264.972
-265.14
-265.295
-265.374
-265.382
-265.295
-265.14
-264.969
-264.793
-284.418
-284.6
-284.737
-284.867
-284.925
-284.933
-284.855
-284.729
-284.595
-284.414
-119.098
-119.921
-119.67
-119.252
-119.07
-119.069
-119.232
-119.64
-119.916
-119.082
-134.625
-135.342
-135.533
-135.577
-135.475
-135.468
-135.565
-135.51
-135.327
-134.616
-151.101
-151.852
-152.157
-152.522
-152.571
-152.569
-152.497
-152.141
-151.832
-151.083
-167.967
-169.105
-169.548
-170.188
-170.355
-170.345
-170.177
-169.533
-169.086
-167.95
-184.956
-187.028
-187.78
-188.487
-188.758
-188.741
-188.48
-187.776
-187.023
-184.95
-26.3048
-27.0813
-28.8157
-29.706
-30.2689
-30.3382
-29.8015
-28.7119
-26.7136
-25.524
-46.1083
-46.2352
-47.1535
-47.3987
-47.7961
-47.7295
-47.2379
-46.9257
-45.9457
-45.7519
-65.9801
-65.8038
-66.8089
-66.2947
-66.8325
-66.7856
-66.3761
-66.7105
-65.6631
-65.7634
-88.7195
-85.9176
-86.9502
-85.3404
-85.563
-85.4869
-85.3229
-86.8088
-85.8351
-88.618
-114.536
-104.827
-104.414
-102.924
-102.58
-102.587
-102.987
-104.402
-104.842
-114.494
834.34
835.337
836.992
838.531
840.082
841.735
843.477
845.332
847.441
849.595
813.574
814.828
816.137
817.615
819.17
820.886
822.768
824.646
826.495
828.715
792.211
793.244
794.478
796.169
798.179
798.807
800.327
802.034
803.198
805.022
770.135
770.806
772.008
773.377
774.571
775.111
776.234
777.453
778.732
780.645
748.114
749.279
749.765
750.067
751.206
751.477
751.471
752.955
754.573
755.059
726.742
727.624
727.927
727.702
727.597
727.492
731.521
731.897
731.104
731.809
708.871
709.352
710.18
708.636
709.616
709.288
710.908
711.831
711.621
712.644
690.547
691.279
691.071
690.382
691.738
689.891
691.559
692.158
692.892
693.318
668.662
674.893
674.224
668.463
668.78
668.83
670.631
671.425
672.086
672.636
649.211
650.534
650.566
649.056
647.509
651.019
646.968
648.669
650.25
652.736
629.533
631.975
632.981
631.949
632.628
632.803
632.735
633.736
634.026
633.712
609.685
611.656
613.158
613.707
614.456
616.964
617.3
617.387
617.308
617.129
589.97
591.975
593.905
595.548
597.039
598.299
599.076
601.415
602.079
602.062
573.192
574.94
575.997
577.027
578.222
579.608
580.989
582.29
582.989
585.18
553.593
554.715
556.828
559.305
560.533
559.568
559.203
560.926
563.426
565.689
534.345
535.843
537.044
537.616
540.046
543.479
532.04
535.063
539.368
544.172
514.731
516.661
517.899
517.998
520.672
521.423
519.934
517.78
519.177
525.876
493.64
498.767
501.221
502.617
504.994
506.426
507.4
503.384
508.562
515.19
480.341
484.534
486.853
487.94
488.582
495.877
498.106
498.639
499.636
505.251
462.094
461.392
461.635
471.065
476.723
472.613
474.552
485.064
493.601
491.852
439.593
435.811
442.356
444.959
455.717
475.743
477.458
471.449
471.597
473.991
425.144
428.182
436.666
441.188
441.608
448.462
455.728
460.065
462.947
465.366
424.766
427.495
429.891
430.725
440.447
445.905
448.21
450.637
452.849
454.753
428.791
430.332
430.6
429.041
436.881
438.237
437.436
438.402
440.263
441.635
433.035
434.656
435.404
434.873
431.387
429.077
426.988
425.868
425.57
425.061
429.199
431.117
432.782
431.791
431.83
431.304
430.69
427.456
424.318
418.653
420.468
419.891
418.208
416.779
412.455
409.476
407.417
407.743
410.474
410.337
405.353
402.223
400.627
399.047
396.812
395.003
393.611
392.599
391.33
390.699
376.141
371.927
372.428
369.927
368.099
368.626
369.805
369.715
369.368
369.258
329.446
337.759
345.252
347.803
348.495
347.868
343.651
344.018
343.947
344.092
286.578
304.371
312.526
315.193
319.231
320.848
325.639
324.468
321.665
318.257
253.5
278.981
297.986
303.414
306.361
306.038
303.025
300.618
298.715
296.439
241.126
265.565
285.994
288.551
290.628
287.139
280.721
273.403
264.538
254.752
225.362
241.147
261.608
254.367
246.532
240.53
230.426
220.673
212.986
206.952
222.441
218.158
219.479
207.789
188.649
173.149
151.887
145.819
144.314
153.292
201.899
173.484
180.94
152.528
145.426
114.05
108.8
109.542
108.879
109.374
173.592
145.366
129.183
126.504
106.301
104.048
98.9103
93.2441
97.3177
98.8054
153.464
121.527
103.422
109.407
97.4602
98.7743
97.6921
97.6364
100.566
102.137
140.967
123.285
114.11
106.81
97.1255
98.2322
97.2478
91.5259
91.0227
91.7986
131.461
128.942
125.343
109.871
103.914
99.7765
119.608
90.848
98.7639
101.341
127.109
129.209
127.552
126.759
124.59
124.083
133.64
135.041
113.891
120.841
126.283
129.637
132.869
133.153
128.774
140.437
135.448
131.57
127.617
118.775
126.304
128.034
139.296
132.123
132.335
126.662
127.046
117.136
114.166
112.444
125.432
121.746
124.18
113.719
119.826
107.138
105.226
99.2355
97.1981
100.884
119.185
113.237
102.206
91.7893
88.6887
82.57
76.2822
71.697
70.9816
85.5045
109.14
101.977
87.8796
73.2831
66.8198
57.3261
47.891
45.4906
41.628
53.6249
104.541
96.4212
81.9606
65.8629
59.5787
51.1009
43.2702
72.7101
45.6973
58.1443
108.1
93.9698
79.3151
63.0729
56.1008
48.2822
43.6976
72.4536
62.8659
75.6979
112.426
98.2686
82.148
62.9232
55.9012
54.7274
54.7074
59.2237
60.9447
54.661
109.97
96.9082
78.3856
60.6231
53.7127
54.7599
53.2446
52.6325
53.945
52.7842
88.0434
77.2871
58.5781
48.9863
48.0183
51.601
52.1085
51.2515
51.087
50.9025
34.5233
31.8591
26.5453
32.3273
51.0866
55.3321
54.959
53.3613
50.8592
48.6995
-13.737
-7.64101
2.867
18.7089
49.267
56.9785
57.1019
56.6385
54.4208
49.9431
-23.7241
-22.9359
6.66719
19.8062
39.2313
67.9561
61.8396
59.9155
56.2508
50.7338
2.42165
5.04739
-3.40738
28.0335
21.7292
75.0307
63.794
62.2653
59.885
56.6038
7.11084
-1.61302
-5.43139
19.4151
23.4168
68.8651
63.483
60.7478
58.3605
55.3441
-0.341672
-0.446312
-1.94259
0.458014
19.1755
62.8818
55.3751
53.6512
51.5454
49.6641
-0.850011
-0.636399
-0.472475
-1.64365
18.3237
59.1826
52.6535
41.8992
36.2943
40.6535
-0.955214
-0.895457
-0.797622
-1.21974
44.6436
37.4824
66.7247
63.3275
35.0989
36.2854
-1.04527
-1.02457
-0.980419
-1.0377
44.9546
26.2099
60.57
57.6057
38.9758
34.2847
-1.04189
-1.03972
-1.02023
-1.0019
50.3701
53.5464
59.0357
54.3641
19.9634
14.5074
-1.02868
-1.03517
-1.07076
-1.11378
47.0549
41.481
40.0493
36.3175
14.6839
4.17388
-0.99247
-0.99166
-0.980807
-0.911272
17.9951
38.9955
5.8204
9.26865
12.012
-1.84378
-0.96648
-0.956434
-0.915735
-0.886458
16.6446
30.4882
-5.31315
-2.34505
-0.132809
-1.70691
-0.971733
-0.930908
-0.883602
-0.794824
6.40624
38.2443
-6.29817
-2.70508
-1.6865
-1.71776
-1.01128
-0.968155
-0.922817
-0.80748
5.31044
39.0725
-5.26044
-2.3443
-1.99045
-1.88103
-1.07681
-1.05907
-1.05379
-1.08387
28.518
20.9164
-2.18084
-1.79252
-1.98306
-1.84734
-1.12498
-1.11483
-1.10792
-1.09791
22.6439
27.3644
-2.12265
-1.68007
-1.65967
-1.64575
-1.16887
-1.1665
-1.16906
-1.20014
29.4034
22.2684
-1.41914
-0.956161
-1.23219
-1.38246
-1.20678
-1.20408
-1.19924
-1.20222
25.5147
26.8512
-1.25316
-0.952491
-1.10977
-1.266
-1.2432
-1.24165
-1.24176
-1.24778
27.2159
25.448
-1.23575
-1.17463
-1.27046
-1.31334
-1.27947
-1.27719
-1.27424
-1.25889
24.2421
28.1162
-1.29062
-1.27706
-1.35281
-1.35796
-1.30955
-1.31577
-1.30943
-1.29194
26.3255
25.6706
-1.3383
-1.3437
-1.38969
-1.39825
-1.34036
-1.36164
-1.37284
-1.43801
39.2329
13.3782
-1.28169
-1.3629
-1.38932
-1.41505
-1.36866
-1.39003
-1.39554
-1.45958
36.5054
15.6258
-1.3318
-1.38748
-1.40613
-1.42601
-1.38464
-1.39883
-1.38981
-1.4243
29.7931
21.5926
-1.40984
-1.42068
-1.43158
-1.44173
-1.39429
-1.39762
-1.38549
-1.41663
26.2774
24.6179
-1.46726
-1.44225
-1.44801
-1.45641
-1.40767
-1.4062
-1.39551
-1.43257
25.1437
25.2806
-1.49618
-1.45672
-1.46287
-1.4704
-1.44169
-1.43813
-1.42529
-1.45296
25.1929
24.4774
-1.50229
-1.47762
-1.48623
-1.49163
-1.46681
-1.47148
-1.44805
-1.44031
24.452
23.8348
-1.49982
-1.50948
-1.51864
-1.52033
-1.494
-1.49869
-1.46919
-1.42652
23.3627
23.3057
-1.50425
-1.5487
-1.55725
-1.55655
-1.51132
-1.51229
-1.49484
-1.44376
22.1361
23.0462
-1.54206
-1.59039
-1.59471
-1.59361
-1.53858
-1.53327
-1.52867
-1.50322
21.3549
22.597
-1.60088
-1.62355
-1.62607
-1.6235
-1.56067
-1.55611
-1.55516
-1.5778
19.3117
23.6111
-1.68598
-1.65089
-1.65061
-1.64842
-1.58846
-1.58494
-1.58068
-1.66336
18.754
22.9278
-1.7841
-1.6777
-1.67473
-1.67582
-1.60647
-1.6074
-1.60781
-1.73772
22.6449
17.0365
-1.81848
-1.70162
-1.70331
-1.70027
-1.6241
-1.62126
-1.61612
-1.68502
15.9791
20.796
-1.82986
-1.74001
-1.73609
-1.73262
-1.64764
-1.6386
-1.63376
-1.62056
11.4252
21.1016
-1.75218
-1.75501
-1.75187
-1.74608
-1.67644
-1.66958
-1.66964
-1.61486
11.2808
17.0722
-1.71908
-1.75509
-1.75783
-1.75214
-1.70677
-1.70684
-1.71423
-1.71544
13.9595
9.85289
-1.76396
-1.75483
-1.75499
-1.76857
-1.73025
-1.73346
-1.73847
-1.89267
11.5364
7.19709
-1.93444
-1.79349
-1.79185
-1.79586
-1.75052
-1.75989
-1.73879
-2.10108
5.06118
8.53641
-2.02267
-1.82642
-1.8241
-1.82424
-1.77881
-1.77754
-1.79892
-2.49716
3.9482
5.05062
-1.66564
-1.83863
-1.8399
-1.84279
-1.80315
-1.80213
-1.86291
-2.16439
2.35144
1.34581
-2.06485
-1.91513
-1.85592
-1.85825
-1.82904
-1.83011
-1.95227
-1.18935
0.903035
-0.264462
-2.3675
-2.02989
-1.87088
-1.87281
-1.85435
-1.86464
-2.3517
-1.46062
-0.0895617
-0.280591
-1.53276
-2.2963
-1.89109
-1.89026
-1.87283
-1.83837
-3.20463
-1.14327
-0.644265
-1.03725
-2.24677
-3.35219
-1.90448
-1.90635
-1.90387
-2.67341
-4.82069
-2.9875
-1.77234
-1.5906
-2.10204
-4.04214
-2.23838
-1.91877
-1.91647
-4.24593
-5.76814
-5.93653
-5.84914
-5.84967
-6.02304
-5.79865
-4.06634
-1.9401
-2.84447
-10.0163
-13.2175
-15.2594
-16.1433
-15.8783
-14.92
-13.021
-9.76123
-2.6975
849.854
850.672
849.652
850.425
844.229
838.275
829.962
820.081
810.941
803.021
794.882
787.872
780.682
773.131
769.157
767.534
768.277
769.92
771.989
775.232
779.603
783.75
789.369
796.119
802.975
811.205
820.74
829.47
836.513
840.722
846.889
847.452
849.064
848.972
847.97
846.744
846.747
849.678
849.992
850.211
829.966
831.354
830.403
831.011
824.626
817.712
808.083
797.249
786.961
776.374
769.094
762.809
756.607
750.643
746.661
745.748
747.078
749.439
751.33
753.922
757.753
761.026
766.634
773.371
780.742
788.329
797.128
806.537
814.318
821.066
826.517
828.791
829.218
830.314
829.027
825.875
823.428
826.018
826.836
828.591
805.711
806.002
804.945
804.253
797.666
790.379
779.896
767.684
756.934
748.302
741.231
737.645
732.455
724.403
716.38
712.993
715.368
721.545
725.431
727.432
731.844
736.987
741.785
747.056
753.8
761.636
769.847
778.877
787.771
795.633
801.716
805.85
807.723
807.816
806.607
807.423
806.662
803.495
804.769
804.981
780.13
780.061
778.598
776.141
770.487
761.517
752.432
740.706
727.675
717.322
711.671
709.134
706.57
705.713
708.011
704.17
701.837
704.146
707.829
710.24
710.434
713.115
717.54
720.657
724.266
730.036
738.319
748.032
757.915
766.884
774.409
780.079
783.041
783.718
783.266
783.446
783.123
783.778
783.835
788.25
754.885
754.182
752.666
749.781
745.068
737.737
728.036
719.078
711.535
696.696
690.662
687.119
689.958
685.824
692.697
695.046
693.938
697.929
702.785
704.86
705.294
706.536
707.611
709.225
711.114
711.484
713.991
719.551
729.309
739.219
747.34
753.6
757.808
759.312
759.69
760.386
761.329
762.705
761.562
772.337
730.729
729.993
728.979
726.821
723.365
717.723
710.519
702.605
698.576
691.345
684.244
678.898
675.641
676.145
675.232
675.573
682.276
685.437
686.565
690.595
696.312
698.518
700.233
701.513
702.703
703.864
705.324
705.742
709.773
717.891
724.406
729.095
732.318
733.268
735.21
738.566
741.189
743.304
744.533
753.647
712.088
711.934
709.53
708.651
706.76
703.3
698.618
692.934
687.678
682.198
676.755
675.234
670.923
668.631
669.008
669.059
669.387
676.593
680.856
684.4
687.577
689.304
691.76
694.993
696.048
697.324
698.712
699.506
699.336
705.051
708.946
710.199
708.822
717.945
713.315
717.156
720.985
723.616
724.862
731.472
693.654
694.904
693.906
692.665
691.307
689.46
686.614
683.397
680.129
676.393
672.714
669.209
666.395
663.503
664.527
663.849
663.31
664.522
667.312
670.067
677.288
680.367
683.264
685.659
688.128
690.989
692.471
690.613
691.582
696.051
699.153
700.711
697.783
711.389
709.949
700.386
706.818
705.211
699.69
705.907
674.879
676.29
676.265
675.592
674.401
672.884
671.195
669.272
667.919
666.402
664.632
662.325
660.071
658.306
657.367
657.653
656.189
660.181
662.009
663.748
666.049
665.503
669.665
672.794
672.894
683.344
685.92
677.829
681.43
685.443
689.153
692.697
693.905
692.518
700.558
695.49
690.441
688.698
692.322
691.147
656.18
657.33
656.784
655.834
655.023
654.46
654.385
654.536
655.215
654.698
652.96
651.685
649.944
648.27
647.793
648.134
648.879
650.651
651.242
654.247
656.585
657.244
654.601
658.45
661.338
664.541
666.22
669.232
672.508
675.503
677.051
684.942
685.161
686.261
688.436
687.808
687.221
686.269
684.061
693.512
636.273
636.702
636.624
636.393
636.691
637.406
638.341
639.513
640.15
640.01
638.386
636.981
635.763
634.953
634.4
634.262
634.888
636.34
637.328
645.607
640.945
641.53
643.291
644.774
648.024
650.361
654.903
657.874
660.955
663.959
665.13
669.681
667.342
668.592
668.92
669.263
671.817
677.165
669.567
675.86
618.758
617.911
619.38
619.591
619.208
621.081
621.432
622.179
622.725
622.886
622.14
620.958
619.665
618.923
618.888
619.24
620.217
621.874
623.764
624.492
625.436
626.497
628.082
630.949
633.756
637.506
641.017
643.864
646.837
648.877
649.334
651.133
650.629
651.234
652.654
650.556
648.828
654.703
650.508
654.067
600.084
601.331
601.968
602.319
602.949
602.427
602.458
603.537
603.84
604.231
604.263
604.352
603.103
602.413
602.341
602.61
603.358
604.136
604.795
605.951
607.105
608.33
610.393
613.171
616.604
620.053
624.326
628.663
632.118
633.88
638.928
633.241
632.551
630.936
627.483
628.601
631.641
633.594
632.151
634.361
587.141
585.676
585.629
587.545
585.672
587.92
588.891
587.56
586.662
587.227
587.449
586.6
587.675
587.864
586.07
585.688
585.444
585.189
585.603
585.54
586.567
588.168
590.951
594.397
598.939
604.615
609.802
614.18
618.615
623.632
624.72
617.437
614.285
612.176
612.202
611.836
615.113
618.31
619.882
621.086
567.389
574.279
569.568
570.799
571.176
571.739
571.735
573.494
573.37
572.673
573.223
574.527
571.033
571.039
569.745
568.165
567.425
567.214
567.855
569.729
568.473
566.86
568.887
572.42
577.027
582.418
588.233
592.97
596.304
603.436
599.381
597.382
591.84
590.249
591.778
593.118
598.467
599.248
600.262
601.007
548.475
553.385
558.473
555.658
556.981
557.908
558.473
558.679
558.656
558.455
557.455
557.02
556.59
556.942
555.161
553.065
550.975
548.648
547.955
545.431
541.38
541.506
538.28
542.239
547.978
555.959
562.903
567.515
572.185
578.016
573.144
571.598
569.07
570.924
569.987
571.893
576.537
575.25
578.816
580.112
531.821
536.676
540.699
543.254
544.486
545.501
546.017
546.11
545.791
544.853
544.327
543.179
541.793
544.417
539.721
538.574
535.678
531.791
526.703
517.606
506.301
502.497
496.483
498.077
506.458
520.478
529.134
534.633
548.674
551.068
550.048
551.059
548.05
550.662
552.281
552.494
557.497
557.97
554.952
559.774
520.81
524.116
527.174
529.934
531.992
533.353
533.944
533.661
532.984
532.134
531.968
530.775
529.135
532.809
526.733
525.364
522.224
517.962
511.85
500.759
491.289
485.111
478.843
480.318
486.095
491.478
500.569
510.72
517.684
521.471
525.161
526.326
526.626
533.428
534.593
531.139
535.354
536.884
537.935
538.436
506.748
508.388
512.766
516.347
518.989
520.63
520.894
520.254
519.379
518.484
520.41
519.212
516.202
515.732
513.523
513.721
508.488
504.242
497.648
491.142
485.874
482.932
479.036
477.887
479.422
480.877
485.637
491.316
497.673
501.397
501.258
501.155
506.172
511.065
509.684
511.361
511.491
512.369
514.014
514.645
492.599
494.421
497.448
501.015
503.999
505.846
506.391
506.13
505.467
504.637
505.114
503.01
502.424
502.316
501.123
500.208
498.344
494.929
490.324
482.505
476.522
474.503
473.471
473.271
473.168
472.03
475.25
478.84
481.38
480.98
478.731
474.752
477.29
476.513
474.979
471.794
472.777
476.722
480.567
482.963
477.692
481.188
484.378
487.31
489.714
491.31
491.809
491.787
491.47
490.888
490.171
488.717
488.407
487.353
483.929
482.837
482.963
483.504
481.201
476.681
471.08
462.751
462.421
464.514
466.871
464.68
463.738
464.642
464.759
462.838
458.604
451.192
445.984
443.291
442.626
440.205
439.698
442.032
450.719
454.86
467.639
469.89
471.993
473.853
475.309
476.177
476.574
476.625
476.169
475.286
474.15
473.734
471.633
467.881
463.689
459.996
457.752
458.706
457.987
454.507
450.006
445.964
446.363
450.671
451.937
451.84
452.117
453.193
453.798
450.31
443.929
441.32
441.691
441.555
441.027
441.173
441.182
433.127
439.183
441.13
456.49
458.039
458.919
459.615
460.025
460.405
460.586
460.285
459.551
458.594
457.411
457.182
453.396
447.43
439.723
432.815
433.67
437.22
432.41
433.262
435.509
435.634
433.981
433.766
435.206
437.514
439.801
441.247
441.963
441.782
440.854
440.505
440.023
439.662
439.745
440.131
440.37
434.28
435.494
438.065
443.075
444.373
444.764
444.717
444.537
444.3
444.004
443.486
442.87
442.028
441.045
439.835
437.257
431.131
422.108
414.191
418.216
422.162
427.231
430.101
430.599
430.492
430.746
431.957
434.329
436.977
438.863
440.653
441.166
440.286
441.061
439.871
438.972
439.119
439.067
438.959
439.872
434.794
434.752
435.043
425.808
427.48
428.507
428.874
428.816
428.267
427.587
426.929
426.19
425.703
425.52
425.298
424.826
422.173
415.266
414.674
424.51
427.081
427.081
427.432
426.994
425.927
424.531
422.909
422.146
421.998
423.122
422.894
425.531
429.237
431.308
433.521
434.386
436.501
435.416
435.894
436.743
434.666
431.416
429.918
411.901
412.907
412.518
413.488
413.494
413.198
410.674
410.301
409.52
409.505
410.43
410.582
409.578
405.758
404.13
419.928
420.224
413.372
414.101
418.885
418.407
416.245
414.693
413.759
414.104
415.165
416.258
416.939
419.207
423.687
428.048
431.464
430.579
433.735
427.754
428.682
426.743
423.996
420.125
417.728
409.114
406.912
402.416
401.781
400.723
398.687
395.468
395.515
391.826
390.89
392.853
391.442
389.059
387.81
391.455
389.313
390.79
394.388
397.005
397.236
397.69
397.338
397.5
397.862
398.522
399.608
401.138
402.135
404.679
405.669
407.946
409.594
412.206
419.793
418.177
413.624
407.268
401.221
399.064
398.339
386.402
391.593
390.103
386.563
382.82
381.435
379.888
375.316
375.403
373.977
371.596
369.968
369.32
367.143
364.875
367.266
365.544
365.746
367.105
368.476
370.518
372.703
375.5
378.091
380.154
381.631
383.283
384.913
386.766
388.099
388.31
390.823
392.6
397.819
396.901
395.971
389.088
401.846
377.706
378.219
368.972
368.583
365.528
373.028
370.401
363.998
359.638
358.462
355.651
351.717
352.207
349.921
347.105
343.613
339.246
337.555
332.445
332.278
335.61
335.273
336.695
342.6
349.275
356.408
361.162
363.607
364.937
365.872
365.664
368.038
368.874
371.815
372.404
392.353
379.285
380.587
370.653
375.279
356.25
361.05
344.866
345.771
346.059
345.52
346.33
345.067
340.727
332.514
334.181
333.7
328.082
325.445
325.473
320.588
311.025
307.595
303.725
302.976
313.546
318.058
312.097
307.033
311.182
324.754
334.223
339.541
340.661
341.363
341.883
344.906
346.91
350.444
352.158
375.552
362.08
363.125
360.595
362.771
347.345
351.591
317.688
317.689
318.302
318.418
318.654
318.214
320.471
318.807
311.946
306.449
306.935
305.409
299.94
293.685
287.208
284.153
282.341
283.839
289.361
294.191
303.812
305.198
303.225
301.874
309.456
311.034
309.473
311.977
314.679
317.414
322.636
326.082
329.184
342.101
346.563
343.675
367.281
341.753
341.146
340.827
293.69
287.926
287.293
287.442
288.458
290.255
290.912
292.437
291.071
285.196
278.591
272.748
272.366
268.744
265.249
264.328
266.066
270.542
276.981
283.236
286.594
306.845
298.524
291.78
290.284
282.086
281.101
280.756
283.773
290.497
297.681
305.476
312.308
321.174
326.974
339.211
339.677
331.545
331.144
328.864
257.369
249.749
250.714
251.39
252.772
254.649
256.747
258.079
257.462
259.786
257.869
255.211
251.223
247.335
246.291
249.695
253.923
259.537
266.344
272.769
277.775
306.993
287.761
283.202
276.642
270.247
265.766
265.576
264.973
270.521
277.581
285.865
294.267
305.863
313.279
315.78
318.241
314.945
312.822
314.954
201.258
201.324
210.887
210.231
215.813
220.512
223.802
226.857
230.377
233.496
236.276
239.164
239.448
239.377
237.336
239.93
244.946
250.111
255.985
262.418
271.673
285.639
275.309
272.798
269.146
267.644
264.091
260.873
264.46
261.142
266.65
269.301
278.587
284.818
289.553
293.133
292.652
291.971
290.623
292.472
158.582
154.673
170.438
177.497
184.094
189.693
193.014
196.265
200.161
207.106
214.541
219.125
229.313
226.413
227.777
233.739
238.032
241.013
242.615
241.61
257.928
261.136
259.178
260.056
258.89
260.467
257.716
254.887
254.518
252.346
251.394
252.646
253.668
259.577
263.116
265.316
266.356
267.116
266.555
269.035
123.092
125.96
143.6
156.07
158.955
161.321
162.105
162.888
168.07
178.927
191.041
199.458
200.736
204.779
217.399
226.848
230.422
229.485
226.997
231.59
238.721
235.712
238.556
247.67
251.688
249.329
250.94
244.765
243.358
239.706
233.678
226.004
225.488
227.312
232.305
235.847
239.022
241.604
242.466
246.283
97.4944
111.078
127.594
136.385
140.892
136.781
135.631
141.076
145.893
156.848
165.117
170.807
178.256
193.874
200.746
207.921
212.616
217.922
220.292
221.918
224.456
224.216
223.147
234.679
237.902
236.664
236.842
234.774
230.378
225.331
211.556
204.632
199.582
198.402
203.778
208.482
213.706
218.099
220.703
225.593
96.688
110.134
123.269
130.459
131.276
130.313
129.918
139.668
148.878
153.401
157.024
162.341
172.141
184.005
194.6
203.002
208.053
211.36
214.119
216.663
218.313
214.92
213.822
218.128
220.738
220.565
219.4
217.885
212.941
204.734
194.26
180.943
180.199
181.628
178.229
183.905
192.75
199.321
203.575
207.352
97.5174
108.377
116.937
121.779
122.664
126.049
128.755
132.713
143.2
150.112
154.432
159.486
164.264
169.208
175.522
184.039
189.176
195.585
203.331
206.598
204.826
201.008
200.538
200.984
201.386
200.45
199.691
199.081
197.218
194.964
184.893
178.472
182.186
182.29
174.559
174.208
182.401
188.535
192.683
196.558
105.893
111.465
116.452
117.146
126.047
127.081
116.649
128.163
134.873
145.911
151.561
147.96
156.127
163.714
169.895
174.352
176.999
179.266
180.93
183.639
184.712
184.186
183.231
182.493
182.315
182.565
181.171
180.577
180.559
182.976
180.522
175.955
176.544
176.887
174.873
173.274
179.333
183.901
187.067
191.867
113.549
111.618
113.388
116.939
118.878
121.035
120.837
116.192
127.679
127.041
135.798
133.529
140.361
141.181
147.468
154.93
160.285
165.011
169.095
171.243
170.734
167.705
164.459
161.112
162.567
168.13
169.273
174.627
177.146
176.769
176.642
176.627
176.769
176.91
175.023
175.425
178.974
181.919
183.922
187.681
112.839
111.55
110.815
109.906
109.057
106.541
109.504
112.077
117.136
119.592
123.002
123.153
125.693
129.507
134.554
139.503
144.64
149.637
153.318
154.982
154.012
150.491
145.709
142.297
150.484
162.633
164.845
169.408
172.768
174.6
176.015
177.014
177.298
174.736
173.317
175.186
177.211
178.698
179.891
182.536
109.084
106.479
102.152
102.069
99.7592
104.143
104.428
104.809
106.13
107.882
109.77
111.721
114.904
118.4
122.329
126.604
129.448
133.783
137.119
139.224
139.67
138.456
136.304
145.142
156.315
162.318
163.664
165.64
168.674
171.113
174.064
173.29
170.685
170.983
171.364
172.281
172.922
172.731
172.907
175.493
100.275
93.5065
88.6479
86.6096
86.3826
85.6665
82.5374
81.8955
84.8234
89.0492
93.5593
97.1262
101.739
105.879
109.573
112.894
114.545
118.695
122.642
125.69
128.278
130.189
132.686
144.862
155.351
156.937
158.017
159.398
161.425
163.648
165.678
166.135
164.789
163.581
162.921
165.406
164.561
164.666
171.077
165.97
83.2759
82.1394
72.6266
61.5392
57.9789
60.9717
62.7637
63.806
64.5846
68.451
75.9145
82.4146
86.4135
93.9529
97.6961
99.0871
103.029
106.535
110.101
113.162
117.199
120.01
124.236
129.294
134.437
141.006
146.044
150.426
153.678
156.237
157.076
156.662
154.092
154.075
152.842
153.05
156.295
161.029
162
162.168
59.3209
62.4025
61.3259
55.9013
60.786
60.9368
60.9377
61.404
63.2417
64.7187
61.7858
64.9364
74.1758
78.9638
84.3111
88.5217
92.0357
94.222
98.7222
100.516
106.101
109.787
112.423
119.233
127.006
132.179
134.02
138.801
144.525
147.395
149.247
148.577
147.522
140.945
140.752
144.777
145.015
144.691
147.809
149.827
59.9063
54.726
56.7503
56.977
57.7403
58.2806
58.8313
59.5155
60.5929
61.1868
55.8539
57.2399
65.0717
71.6233
73.252
77.8678
80.9152
83.2248
86.6969
88.7319
90.7421
93.0143
96.1412
100.468
107.21
113.74
119.592
125.459
129.562
132.961
133.636
134.61
131.285
130.883
130.473
131.426
132.557
131.775
133.264
136.51
77.8705
55.5012
55.1372
55.1351
55.357
55.5206
55.7436
55.8618
55.1496
54.7257
59.3477
59.8383
60.7022
62.3443
66.0638
68.6375
71.444
73.5095
74.893
76.3273
78.1155
80.2522
79.6463
82.7515
89.3661
94.5302
97.051
101.864
104.715
107.362
109.444
110.611
110.992
115.301
118.061
120.756
122.352
122.135
122.491
122.923
54.6951
52.0448
52.9575
53.209
53.1034
52.8043
52.6565
52.891
58.0074
57.9853
58.287
57.8992
58.1371
59.4116
63.2109
61.8483
63.1477
64.0641
63.9308
63.7773
63.1547
62.093
60.9494
61.7335
67.2859
74.0195
78.2536
80.8298
82.6405
84.9297
87.1754
89.3843
92.2053
95.3667
99.5398
103.107
106.737
107.904
108.07
111.901
51.8893
51.5331
51.6653
51.398
50.9019
50.2659
49.6182
49.9235
57.7185
56.712
56.4401
56.2792
56.5733
57.1569
57.9007
57.9135
57.2988
56.6241
54.3355
50.7332
47.7414
45.6578
46.3987
49.578
50.9543
55.0868
53.9053
52.9901
59.1623
64.4776
70.3297
73.5032
75.1816
77.687
80.384
83.694
87.4452
90.0064
93.1259
96.0034
50.2903
49.7623
49.5214
49.2291
48.7744
48.0284
46.9107
45.4242
50.7003
56.07
55.6084
55.0372
54.4994
54.168
54.2362
53.394
51.7727
50.3619
47.9081
43.2476
45.3899
46.8277
45.6992
44.9852
44.1795
44.9604
47.5354
48.1426
35.4396
42.8359
51.9482
56.1673
59.0322
62.0448
64.3507
68.7162
72.4072
77.5415
79.6382
84.2136
47.9885
47.6558
47.5243
47.1724
46.6184
45.8684
44.8425
43.7721
43.4942
42.9635
43.9155
47.7809
49.5352
49.641
49.9196
49.1753
47.3227
46.3052
47.0893
40.9679
45.2198
44.9323
43.5183
42.7054
42.9105
43.9926
46.1135
47.9784
37.1586
34.8924
42.0892
44.6007
46.3747
47.0534
49.3355
53.3422
56.8456
58.7974
61.0833
67.6288
46.293
46.2801
46.0617
45.7736
45.0209
44.3651
43.6561
42.9144
42.2503
41.6487
40.6517
39.2671
37.7498
38.9835
42.8258
44.2084
40.383
33.8884
34.1057
33.6797
38.4131
41.0251
39.6628
38.5102
37.6239
36.8475
31.7625
28.2776
29.3714
29.8952
28.9108
30.8098
31.7649
31.7138
32.2733
30.5763
36.4843
39.9926
40.5799
41.2566
43.168
43.6732
44.723
44.2506
43.8327
43.4074
42.924
42.3218
41.5627
40.7965
40.116
39.741
39.2865
38.5667
37.9509
37.1529
35.8467
34.7491
32.9504
28.0921
29.4255
31.6505
31.92
31.3143
29.0926
25.2368
23.6464
22.7461
20.2014
18.1752
16.7282
15.779
14.2431
14.7281
18.4882
21.1698
16.7503
19.0004
21.4918
23.1029
52.0347
45.1582
39.7687
41.7741
42.5074
42.489
42.3384
41.8826
41.335
40.7337
39.9172
39.0882
38.5165
38.465
38.368
38.1722
33.7078
25.6006
23.581
24.0413
26.4708
26.4773
25.5664
24.8217
22.7213
19.73
16.6017
12.872
8.43855
4.1701
0.911712
2.59703
8.17618
6.6652
1.86143
3.86599
4.84828
5.94827
8.67516
10.139
51.376
47.1157
42.6245
36.867
34.3324
37.5007
39.2851
39.8934
39.732
39.2212
38.1574
36.3032
33.4251
27.7336
21.8113
14.9216
18.6508
24.7605
22.2644
19.3779
16.4253
14.753
14.9048
14.5567
13.5684
10.7496
7.03729
4.32881
2.03201
-1.85683
1.04294
1.85668
3.03169
1.98568
-0.262157
-0.439508
-0.423818
-0.283947
-0.220033
-0.0647446
47.9637
45.0467
41.6195
40.031
40.1228
41.6541
43.9231
46.4454
47.881
47.4521
46.6919
45.2257
41.5122
36.0254
29.3891
29.8252
23.9645
15.1457
6.18003
-0.572923
-1.31434
1.046
5.07736
6.97163
4.8049
1.93977
-0.298909
-1.01574
-0.912074
-0.994334
-1.22542
-0.791124
-1.01637
-1.0525
-1.05544
-1.04581
-1.03161
-1.02581
-1.02503
-1.02547
39.831
37.41
33.9016
27.4495
16.6872
7.45548
3.49096
4.37974
9.22907
12.2102
12.311
10.6212
8.15484
5.9345
4.03094
3.45198
3.44064
0.608898
-1.38723
-1.04637
-1.01696
-1.09986
-0.977904
-0.957854
-1.03484
-1.06288
-1.07536
-1.08768
-1.07647
-1.06687
-1.07814
-0.988776
-0.963297
-1.09685
-1.08043
-1.07743
-1.07135
-1.07183
-1.07041
-1.0639
34.1324
30.4268
23.1237
17.4156
11.6586
2.85314
-0.665811
-1.15043
-0.588737
-0.132372
-0.143518
-0.486361
-0.818991
-1.0421
-1.09842
-1.11681
-1.14146
-1.17449
-1.19099
-1.17822
-1.16627
-1.15885
-1.13436
-1.11569
-1.11301
-1.11994
-1.12921
-1.11924
-1.09833
-1.0804
-1.08301
-0.867057
-0.973898
-1.13241
-1.12481
-1.12505
-1.11731
-1.11575
-1.114
-1.09555
28.8677
22.933
17.1238
7.99038
-2.89066
-0.545859
-0.858512
-1.0098
-1.00932
-1.06176
-1.10944
-1.15165
-1.18331
-1.19934
-1.19584
-1.19841
-1.2172
-1.22948
-1.20875
-1.19786
-1.18938
-1.19132
-1.19063
-1.19096
-1.19015
-1.18257
-1.16662
-1.14105
-1.11436
-1.10103
-1.10636
-0.962764
-1.0728
-1.139
-1.15626
-1.16499
-1.16053
-1.15531
-1.15128
-1.13892
21.7986
10.7912
10.7001
10.9714
0.214355
-1.10896
-1.08615
-1.0936
-1.11743
-1.15191
-1.19131
-1.22864
-1.23293
-1.22719
-1.23031
-1.22334
-1.22695
-1.19712
-1.19006
-1.20387
-1.21473
-1.229
-1.24854
-1.26347
-1.25836
-1.22017
-1.18095
-1.16616
-1.12751
-1.10607
-1.10856
-1.11196
-1.10082
-1.13867
-1.16947
-1.18576
-1.18288
-1.17262
-1.16619
-1.16372
3.47625
-0.829587
-1.59394
-1.47011
-1.25184
-0.827834
-1.25894
-1.22416
-1.244
-1.26975
-1.29839
-1.32076
-1.32302
-1.30685
-1.29033
-1.28031
-1.2638
-1.24577
-1.22717
-1.22045
-1.23485
-1.24767
-1.25882
-1.26808
-1.27032
-1.23471
-1.20584
-1.17525
-1.14184
-1.11544
-1.08997
-1.09413
-1.11602
-1.09585