/*--------------------------------*- C++ -*----------------------------------*\
  =========                 |
  \\      /  F ield         | OpenFOAM: The Open Source CFD Toolbox
   \\    /   O peration     | Website:  https://openfoam.org
    \\  /    A nd           | Version:  8
     \\/     M anipulation  |
\*---------------------------------------------------------------------------*/
FoamFile
{
    version     2.0;
    format      ascii;
    class       surfaceScalarField;
    location    "0.55";
    object      alphaPhi0.water;
}
// * * * * * * * * * * * * * * * * * * * * * * * * * * * * * * * * * * * * * //

dimensions      [0 3 -1 0 0 0 0];

internalField   nonuniform List<scalar> 
18095
(
1.58883e-07
-9.64443e-07
8.0556e-07
1.65979e-07
-1.24807e-06
1.24097e-06
1.22797e-07
-1.24248e-06
1.28566e-06
6.56633e-08
-1.26389e-06
1.32102e-06
6.45414e-13
-1.28112e-06
1.34679e-06
-6.56621e-08
-1.28112e-06
1.34679e-06
-1.22796e-07
-1.26389e-06
1.32102e-06
-1.65978e-07
-1.24248e-06
1.28566e-06
-1.58883e-07
-1.24807e-06
1.24097e-06
-9.64444e-07
8.05561e-07
1.11296e-07
-1.07574e-06
9.99087e-08
-1.23668e-06
7.32967e-08
-1.21587e-06
4.02914e-08
-1.23088e-06
4.31406e-13
-1.24083e-06
-4.02906e-08
-1.24083e-06
-7.32961e-08
-1.23088e-06
-9.99082e-08
-1.21587e-06
-1.11296e-07
-1.23668e-06
-1.07574e-06
6.74751e-08
-1.14321e-06
5.3145e-08
-1.22235e-06
4.24447e-08
-1.20517e-06
2.40378e-08
-1.21248e-06
2.4896e-13
-1.21679e-06
-2.40373e-08
-1.21679e-06
-4.24443e-08
-1.21248e-06
-5.31447e-08
-1.20517e-06
-6.74748e-08
-1.22235e-06
-1.14321e-06
3.98846e-08
-1.1831e-06
2.68693e-08
-1.20933e-06
2.22046e-08
-1.2005e-06
1.26476e-08
-1.20292e-06
8.50264e-14
-1.20415e-06
-1.26475e-08
-1.20415e-06
-2.22045e-08
-1.20292e-06
-2.68692e-08
-1.2005e-06
-3.98845e-08
-1.20933e-06
-1.1831e-06
1.69012e-08
7.56654e-09
7.06554e-09
4.14647e-09
5.85679e-15
-4.14646e-09
-7.06554e-09
-7.56654e-09
-1.69012e-08
-1.76478e-07
-1.16209e-06
1.33857e-06
-2.2064e-07
-1.21573e-06
1.25989e-06
-1.66338e-07
-1.2129e-06
1.1586e-06
-8.76809e-08
-1.20507e-06
1.12641e-06
7.10012e-12
-1.2042e-06
1.11651e-06
8.76948e-08
-1.2042e-06
1.11651e-06
1.6635e-07
-1.20507e-06
1.12641e-06
2.20652e-07
-1.21291e-06
1.15861e-06
1.76488e-07
-1.21574e-06
1.2599e-06
-1.16209e-06
1.33858e-06
-9.28444e-08
-1.06924e-06
-9.58297e-08
-1.21275e-06
-7.95163e-08
-1.22922e-06
-4.43702e-08
-1.24021e-06
4.04379e-12
-1.24858e-06
4.4378e-08
-1.24858e-06
7.95232e-08
-1.24022e-06
9.58353e-08
-1.22922e-06
9.28476e-08
-1.21275e-06
-1.06925e-06
-5.78842e-08
-1.01136e-06
-5.49716e-08
-1.21566e-06
-4.63002e-08
-1.23789e-06
-2.69886e-08
-1.25953e-06
2.43468e-12
-1.27557e-06
2.69932e-08
-1.27557e-06
4.63041e-08
-1.25953e-06
5.49744e-08
-1.23789e-06
5.78856e-08
-1.21566e-06
-1.01136e-06
-7.47365e-08
-9.36622e-07
-6.17207e-08
-1.22867e-06
-4.81862e-08
-1.25142e-06
-2.74968e-08
-1.28021e-06
1.50898e-12
-1.30306e-06
2.74997e-08
-1.30307e-06
4.81885e-08
-1.28022e-06
6.17222e-08
-1.25142e-06
7.47372e-08
-1.22867e-06
-9.36624e-07
-1.31063e-07
-1.18764e-07
-8.45262e-08
-4.37192e-08
9.73255e-13
4.37211e-08
8.45277e-08
1.18765e-07
1.31063e-07
-6.22002e-08
-9.4674e-07
1.00894e-06
-3.12819e-09
-1.33404e-06
1.27497e-06
9.91756e-09
-1.26936e-06
1.25631e-06
4.29952e-09
-1.22627e-06
1.23189e-06
6.94746e-11
-1.22346e-06
1.22769e-06
-4.16564e-09
-1.22347e-06
1.2277e-06
-9.79118e-09
-1.22629e-06
1.23191e-06
3.27193e-09
-1.26936e-06
1.2563e-06
6.23508e-08
-1.33406e-06
1.27498e-06
-9.46957e-07
1.00931e-06
5.71429e-09
-9.52454e-07
1.46036e-08
-1.34293e-06
1.13183e-08
-1.26607e-06
5.89965e-09
-1.22085e-06
5.24527e-11
-1.21761e-06
-5.79447e-09
-1.21762e-06
-1.1234e-08
-1.22085e-06
-1.45138e-08
-1.26608e-06
-5.62486e-09
-1.34295e-06
-9.52582e-07
2.47672e-08
-9.77222e-07
1.76085e-08
-1.33577e-06
9.70503e-09
-1.25817e-06
5.62313e-09
-1.21677e-06
3.08837e-11
-1.21202e-06
-5.56825e-09
-1.21202e-06
-9.64086e-09
-1.21677e-06
-1.75466e-08
-1.25817e-06
-2.47098e-08
-1.33579e-06
-9.77292e-07
7.75543e-08
-1.05478e-06
5.2847e-08
-1.31106e-06
3.42445e-08
-1.23957e-06
2.07217e-08
-1.20325e-06
1.87554e-11
-1.19132e-06
-2.06842e-08
-1.19132e-06
-3.42044e-08
-1.20325e-06
-5.28035e-08
-1.23957e-06
-7.75198e-08
-1.31107e-06
-1.05481e-06
2.83789e-07
2.32619e-07
1.51654e-07
7.48177e-08
1.17726e-11
-7.47943e-08
-1.51633e-07
-2.32602e-07
-2.83771e-07
-1.16582e-06
-2.72732e-07
1.43855e-06
-8.82366e-07
-2.83453e-07
-5.92421e-07
-2.89945e-07
-2.99183e-07
-2.93238e-07
-5.6849e-09
-2.93498e-07
2.87797e-07
-2.93482e-07
5.81054e-07
-2.93257e-07
8.71114e-07
-2.90061e-07
1.15482e-06
-2.83702e-07
-2.73178e-07
1.42799e-06
-8.79331e-07
-4.7344e-07
1.08004e-06
-6.68743e-07
-4.94041e-07
-4.51344e-07
-5.07343e-07
-2.29405e-07
-5.15177e-07
-4.18416e-09
-5.18719e-07
2.21093e-07
-5.18759e-07
4.43155e-07
-5.15319e-07
6.60729e-07
-5.07635e-07
8.7159e-07
-4.94563e-07
-4.74307e-07
1.07272e-06
-6.58841e-07
-6.25934e-07
8.11335e-07
-4.99932e-07
-6.52949e-07
-3.36623e-07
-6.70653e-07
-1.70493e-07
-6.81307e-07
-2.88347e-09
-6.86328e-07
1.64749e-07
-6.86392e-07
3.30945e-07
-6.81514e-07
4.94366e-07
-6.71056e-07
6.53449e-07
-6.53646e-07
-6.27075e-07
8.06217e-07
-4.79487e-07
-7.3771e-07
5.91262e-07
-3.63482e-07
-7.68954e-07
-2.44538e-07
-7.89597e-07
-1.23669e-07
-8.02177e-07
-1.83498e-09
-8.08162e-07
1.20014e-07
-8.08241e-07
2.40928e-07
-8.02428e-07
3.59942e-07
-7.90071e-07
4.76043e-07
-7.69746e-07
-7.38992e-07
5.87959e-07
-3.38042e-07
-8.17316e-07
4.17648e-07
-2.56057e-07
-8.50939e-07
-1.72223e-07
-8.73431e-07
-8.70027e-08
-8.87399e-07
-1.02905e-09
-8.94136e-07
8.4963e-08
-8.94234e-07
1.70235e-07
-8.87702e-07
2.54141e-07
-8.73977e-07
3.36193e-07
-8.51798e-07
-8.18641e-07
4.15842e-07
-2.54081e-07
-8.81971e-07
3.18737e-07
-1.90455e-07
-9.14565e-07
-1.27223e-07
-9.36663e-07
-6.39703e-08
-9.50652e-07
-6.10547e-10
-9.57497e-07
6.27555e-08
-9.576e-07
1.26023e-07
-9.50969e-07
1.89266e-07
-9.3722e-07
2.52889e-07
-9.15422e-07
-8.83313e-07
3.17562e-07
-2.18579e-07
-9.42963e-07
2.79572e-07
-1.61095e-07
-9.7205e-07
-1.06351e-07
-9.91406e-07
-5.31142e-08
-1.00389e-06
-5.32274e-10
-1.01008e-06
5.20315e-08
-1.01016e-06
1.05205e-07
-1.00414e-06
1.59811e-07
-9.91826e-07
2.17041e-07
-9.72652e-07
-9.43926e-07
2.77654e-07
-2.07375e-07
-9.96549e-07
2.60963e-07
-1.51511e-07
-1.02791e-06
-9.94189e-08
-1.0435e-06
-4.94864e-08
-1.05382e-06
-5.59553e-10
-1.05901e-06
4.83527e-08
-1.05908e-06
9.82392e-08
-1.05403e-06
1.50241e-07
-1.04383e-06
2.05908e-07
-1.02832e-06
-9.9856e-07
2.60545e-07
-2.04967e-07
-1.03263e-06
2.41051e-07
-1.5022e-07
-1.08266e-06
-9.87221e-08
-1.095e-06
-4.92329e-08
-1.10331e-06
-7.22092e-10
-1.10752e-06
4.77683e-08
-1.10757e-06
9.71986e-08
-1.10346e-06
1.48605e-07
-1.09523e-06
2.03259e-07
-1.08297e-06
-1.03793e-06
2.42629e-07
-2.02989e-07
-1.02938e-06
1.99737e-07
-1.5013e-07
-1.13552e-06
-9.91284e-08
-1.146e-06
-4.95706e-08
-1.15287e-06
-7.73239e-10
-1.15631e-06
4.80038e-08
-1.15634e-06
9.75035e-08
-1.15296e-06
1.48428e-07
-1.14616e-06
2.01303e-07
-1.13585e-06
-1.04225e-06
2.05619e-07
-1.9801e-07
-9.75328e-07
1.42626e-07
-1.47663e-07
-1.18587e-06
-9.7821e-08
-1.19584e-06
-4.89651e-08
-1.20172e-06
-6.51045e-10
-1.20463e-06
4.76591e-08
-1.20465e-06
9.65041e-08
-1.2018e-06
1.46323e-07
-1.19598e-06
1.96768e-07
-1.18629e-06
-9.99031e-07
1.52535e-07
-1.90503e-07
-8.61041e-07
7.44475e-08
-1.42977e-07
-1.23339e-06
-9.4834e-08
-1.24398e-06
-4.75018e-08
-1.24906e-06
-5.67808e-10
-1.25156e-06
4.63661e-08
-1.25159e-06
9.36951e-08
-1.24913e-06
1.41822e-07
-1.2441e-06
1.89777e-07
-1.23425e-06
-8.93371e-07
8.22712e-08
-1.79583e-07
-7.20018e-07
3.61045e-08
-1.3764e-07
-1.27534e-06
-9.13707e-08
-1.29025e-06
-4.57849e-08
-1.29464e-06
-5.23787e-10
-1.29682e-06
4.47397e-08
-1.29685e-06
9.03312e-08
-1.29472e-06
1.36605e-07
-1.29038e-06
1.79801e-07
-1.27744e-06
-7.59071e-07
4.29432e-08
-1.63421e-07
-5.72775e-07
1.3469e-08
-1.31915e-07
-1.30684e-06
-8.76842e-08
-1.33448e-06
-4.39633e-08
-1.33836e-06
-4.81023e-10
-1.34031e-06
4.30046e-08
-1.34034e-06
8.67382e-08
-1.33846e-06
1.30999e-07
-1.33464e-06
1.65431e-07
-1.31188e-06
-6.12153e-07
1.56981e-08
-1.37906e-07
-4.44422e-07
6.94337e-09
-1.25894e-07
-1.31885e-06
-8.38039e-08
-1.37657e-06
-4.20203e-08
-1.38015e-06
-3.92038e-10
-1.38193e-06
4.12355e-08
-1.38196e-06
8.30219e-08
-1.38025e-06
1.25145e-07
-1.37676e-06
1.43722e-07
-1.33045e-06
-4.78516e-07
7.3704e-09
-1.10022e-07
-3.4167e-07
4.9888e-09
-1.19778e-07
-1.31037e-06
-7.97581e-08
-1.41659e-06
-3.99365e-08
-1.41997e-06
-2.33932e-10
-1.42164e-06
3.94688e-08
-1.42167e-06
7.92877e-08
-1.42006e-06
1.19283e-07
-1.41676e-06
1.14589e-07
-1.32692e-06
-3.7153e-07
5.22683e-09
-8.5793e-08
-2.61756e-07
3.75793e-09
-1.13646e-07
-1.28391e-06
-7.55406e-08
-1.4547e-06
-3.77512e-08
-1.45776e-06
-9.45401e-11
-1.45929e-06
3.7558e-08
-1.45932e-06
7.5334e-08
-1.45784e-06
1.13418e-07
-1.45484e-06
8.95288e-08
-1.30437e-06
-2.88162e-07
3.96053e-09
-7.00989e-08
-1.96449e-07
2.85211e-09
-1.07429e-07
-1.2484e-06
-7.13932e-08
-1.49073e-06
-3.56214e-08
-1.49353e-06
1.9449e-11
-1.49493e-06
3.56554e-08
-1.49496e-06
7.14118e-08
-1.4936e-06
1.0742e-07
-1.49085e-06
7.40213e-08
-1.27266e-06
-2.19185e-07
3.04251e-09
-5.54593e-08
-1.44808e-07
2.10969e-09
-1.01245e-07
-1.20485e-06
-6.72666e-08
-1.52471e-06
-3.35236e-08
-1.52727e-06
1.0204e-10
-1.52856e-06
3.37218e-08
-1.52857e-06
6.74462e-08
-1.52732e-06
1.0139e-07
-1.52479e-06
5.93034e-08
-1.23261e-06
-1.63936e-07
2.27798e-09
-4.29705e-08
-1.04821e-07
1.53518e-09
-9.51371e-08
-1.15532e-06
-6.31904e-08
-1.55666e-06
-3.14655e-08
-1.559e-06
1.48702e-10
-1.56017e-06
3.17567e-08
-1.56018e-06
6.34622e-08
-1.55902e-06
9.5375e-08
-1.55671e-06
4.66057e-08
-1.18626e-06
-1.20559e-07
1.67899e-09
-3.25229e-08
-7.4574e-08
1.09715e-09
-8.91311e-08
-1.10166e-06
-5.91927e-08
-1.5866e-06
-2.94601e-08
-1.58873e-06
1.67596e-10
-1.5898e-06
2.97897e-08
-1.58981e-06
5.95046e-08
-1.58874e-06
8.94154e-08
-1.58662e-06
3.58611e-08
-1.1355e-06
-8.72297e-08
1.21641e-09
-2.39674e-08
-5.22914e-08
7.69586e-10
-8.32148e-08
-1.0456e-06
-5.52664e-08
-1.61454e-06
-2.74995e-08
-1.6165e-06
1.69291e-10
-1.61747e-06
2.78335e-08
-1.61747e-06
5.55864e-08
-1.61649e-06
8.35195e-08
-1.61455e-06
2.69625e-08
-1.08208e-06
-6.22101e-08
8.66144e-10
-1.7128e-08
-3.63803e-08
5.29614e-10
-7.73759e-08
-9.88762e-07
-5.14037e-08
-1.64052e-06
-2.55749e-08
-1.64233e-06
1.63265e-10
-1.64321e-06
2.58984e-08
-1.6432e-06
5.1718e-08
-1.64231e-06
7.76952e-08
-1.64053e-06
1.97601e-08
-1.02756e-06
-4.38918e-08
6.06186e-10
-1.17936e-08
-2.54056e-08
3.57091e-10
-7.15994e-08
-9.32558e-07
-4.76035e-08
-1.66451e-06
-2.36835e-08
-1.66625e-06
1.53619e-10
-1.66705e-06
2.39899e-08
-1.66704e-06
4.79067e-08
-1.66623e-06
7.19458e-08
-1.66457e-06
1.40589e-08
-9.7323e-07
-3.08695e-08
4.16704e-10
-7.7397e-09
-1.82237e-08
2.38738e-10
-6.58607e-08
-8.78165e-07
-4.38782e-08
-1.6865e-06
-2.18313e-08
-1.68829e-06
1.41485e-10
-1.68902e-06
2.21155e-08
-1.68902e-06
4.41657e-08
-1.68828e-06
6.62714e-08
-1.68667e-06
9.64869e-09
-9.20259e-07
-2.19116e-08
2.81782e-10
-4.7455e-09
-1.37185e-08
1.59392e-10
-6.01038e-08
-8.2666e-07
-4.02499e-08
-1.70635e-06
-2.00252e-08
-1.70852e-06
1.33967e-10
-1.70918e-06
2.02946e-08
-1.70918e-06
4.05244e-08
-1.70851e-06
6.06651e-08
-1.70681e-06
6.32082e-09
-8.69609e-07
-1.60588e-08
1.89353e-10
-2.64866e-09
-1.12702e-08
1.15942e-10
-5.41285e-08
-7.78918e-07
-3.66969e-08
-1.72378e-06
-1.82416e-08
-1.72697e-06
1.57327e-10
-1.72758e-06
1.85586e-08
-1.72758e-06
3.70215e-08
-1.72697e-06
5.50805e-08
-1.72487e-06
3.87819e-09
-8.22187e-07
-1.2378e-08
1.29267e-10
-2.07913e-09
-9.34016e-09
8.41795e-11
-4.76149e-08
-7.36921e-07
-3.32159e-08
-1.73818e-06
-1.64816e-08
-1.74371e-06
2.05815e-10
-1.74426e-06
1.68976e-08
-1.74427e-06
3.36447e-08
-1.74372e-06
4.93245e-08
-1.74055e-06
2.32202e-09
-7.78853e-07
-1.02244e-08
9.44891e-11
-1.54775e-09
-7.90046e-09
6.0816e-11
-4.02255e-08
-7.01412e-07
-2.98613e-08
-1.74854e-06
-1.47861e-08
-1.75878e-06
2.50767e-10
-1.7593e-06
1.52912e-08
-1.75931e-06
3.0378e-08
-1.75881e-06
4.30842e-08
-1.75326e-06
1.84257e-09
-7.41121e-07
-8.50842e-09
6.91062e-11
-1.22805e-09
-6.72024e-09
4.59311e-11
-3.12917e-08
-6.7425e-07
-2.66387e-08
-1.75364e-06
-1.31499e-08
-1.77227e-06
3.08244e-10
-1.77276e-06
1.3767e-08
-1.77277e-06
2.72613e-08
-1.7723e-06
3.59764e-08
-1.76197e-06
1.40592e-09
-7.09701e-07
-7.19548e-09
5.04618e-11
-1.07377e-09
-5.6839e-09
3.57751e-11
-2.69721e-08
-6.51195e-07
-2.35438e-08
-1.75841e-06
-1.15638e-08
-1.78425e-06
3.81027e-10
-1.78471e-06
1.23247e-08
-1.78471e-06
2.42966e-08
-1.78427e-06
2.82618e-08
-1.76693e-06
1.12714e-09
-6.8543e-07
-6.10832e-09
3.82791e-11
-9.49083e-10
-4.76405e-09
2.78351e-11
-2.33029e-08
-6.31569e-07
-2.05961e-08
-1.76177e-06
-1.0068e-08
-1.79478e-06
4.28249e-10
-1.7952e-06
1.0923e-08
-1.79521e-06
2.14477e-08
-1.7948e-06
2.43437e-08
-1.77043e-06
9.93679e-10
-6.64907e-07
-5.14594e-09
2.98167e-11
-8.42782e-10
-3.94389e-09
2.14723e-11
-1.99038e-08
-6.15135e-07
-1.77969e-08
-1.76456e-06
-8.65487e-09
-1.80392e-06
4.59127e-10
-1.80432e-06
9.57214e-09
-1.80432e-06
1.87111e-08
-1.80394e-06
2.09487e-08
-1.77332e-06
8.85804e-10
-6.47568e-07
-4.28452e-09
2.31479e-11
-7.53468e-10
-3.20769e-09
1.63479e-11
-1.67813e-08
-6.01635e-07
-1.51427e-08
-1.76687e-06
-7.31995e-09
-1.81174e-06
4.78118e-10
-1.81211e-06
8.27513e-09
-1.81212e-06
1.60949e-08
-1.81176e-06
1.77828e-08
-1.77565e-06
7.93374e-10
-6.33173e-07
-3.5099e-09
1.77512e-11
-6.78278e-10
-2.54232e-09
1.21792e-11
-1.38994e-08
-5.90859e-07
-1.26277e-08
-1.76881e-06
-6.05892e-09
-1.81831e-06
4.88946e-10
-1.81866e-06
7.0359e-09
-1.81866e-06
1.36031e-08
-1.81832e-06
1.48575e-08
-1.77754e-06
7.14928e-10
-6.21502e-07
-2.80912e-09
1.33515e-11
-6.14294e-10
-1.93745e-09
8.76501e-12
-1.12322e-08
-5.82573e-07
-1.02447e-08
-1.77045e-06
-4.86637e-09
-1.82369e-06
4.9572e-10
-1.82402e-06
5.85713e-09
-1.82403e-06
1.12359e-08
-1.8237e-06
1.21457e-08
-1.77907e-06
6.47545e-10
-6.12359e-07
-2.17197e-09
9.73313e-12
-5.58089e-10
-1.38561e-09
5.97526e-12
-8.75627e-09
-5.76651e-07
-7.98703e-09
-1.77187e-06
-3.73845e-09
-1.82794e-06
5.00803e-10
-1.82826e-06
4.73959e-09
-1.82826e-06
8.99181e-09
-1.82796e-06
9.62742e-09
-1.78032e-06
5.88932e-10
-6.05628e-07
-1.5901e-09
6.75865e-12
-5.07297e-10
-8.82112e-10
3.69968e-12
-6.45151e-09
-5.7282e-07
-5.84852e-09
-1.77309e-06
-2.67263e-09
-1.83112e-06
5.05272e-10
-1.83144e-06
3.68282e-09
-1.83144e-06
6.86774e-09
-1.83114e-06
7.28481e-09
-1.78133e-06
5.35154e-10
-6.01061e-07
-1.05942e-09
4.32486e-12
-4.49163e-10
-4.34925e-10
1.88291e-12
-4.30079e-09
-5.71094e-07
-3.81906e-09
-1.77418e-06
-1.66709e-09
-1.83327e-06
5.0954e-10
-1.83362e-06
2.68594e-09
-1.83362e-06
4.85964e-09
-1.83331e-06
5.10052e-09
-1.78213e-06
4.79959e-10
-5.98622e-07
-5.81935e-10
2.3611e-12
-3.43611e-10
-9.19356e-11
6.00638e-13
-2.28948e-09
-5.71198e-07
-1.93602e-09
-1.7751e-06
-7.20408e-10
-1.83449e-06
5.13591e-10
-1.83485e-06
1.74745e-09
-1.83485e-06
2.95653e-09
-1.83452e-06
3.06138e-09
-1.78276e-06
3.91283e-10
-5.9796e-07
-1.91605e-10
9.04506e-13
-9.19667e-11
-4.9946e-19
3.18548e-14
-4.04843e-10
-5.72683e-07
-1.87837e-10
-1.77586e-06
1.68887e-10
-1.83485e-06
5.17242e-10
-1.8352e-06
8.65536e-10
-1.8352e-06
1.20814e-09
-1.83487e-06
1.1529e-09
-1.78322e-06
1.91723e-10
-5.98988e-07
-6.05256e-19
1.14498e-13
1.52109e-18
-2.0247e-18
-9.82517e-23
1.45625e-09
-5.76019e-07
1.47451e-09
-1.77634e-06
1.00263e-09
-1.83437e-06
5.2053e-10
-1.83472e-06
3.84058e-11
-1.83472e-06
-4.33413e-10
-1.8344e-06
-6.84037e-10
-1.78338e-06
-1.95057e-18
-6.01538e-07
-2.55939e-18
-4.0832e-23
2.41957e-18
-4.4475e-18
-9.81361e-22
3.23663e-09
-5.80985e-07
3.03199e-09
-1.77658e-06
1.78205e-09
-1.83312e-06
5.23067e-10
-1.83346e-06
-7.35855e-10
-1.83346e-06
-1.98566e-09
-1.83315e-06
-2.49383e-09
-1.78329e-06
-3.09992e-18
-6.05816e-07
-5.66226e-18
-6.69224e-22
5.41008e-18
-9.85696e-18
-5.39162e-21
4.9206e-09
-5.87562e-07
4.48523e-09
-1.77656e-06
2.50881e-09
-1.83115e-06
5.24349e-10
-1.83147e-06
-1.46001e-09
-1.83148e-06
-3.4362e-09
-1.83117e-06
-4.20353e-09
-1.7829e-06
-6.92927e-18
-6.11711e-07
-1.25905e-17
-5.22307e-21
1.21034e-17
-2.19545e-17
-1.16271e-20
6.51805e-09
-5.95651e-07
5.83831e-09
-1.77626e-06
3.18477e-09
-1.82849e-06
5.2407e-10
-1.82881e-06
-2.13652e-09
-1.82882e-06
-4.78971e-09
-1.82852e-06
-5.82278e-09
-1.78222e-06
-1.54993e-17
-6.19129e-07
-2.80836e-17
-1.12187e-20
2.71137e-17
-4.90563e-17
-1.91833e-20
8.03744e-09
-6.05175e-07
7.09584e-09
-1.77566e-06
3.81237e-09
-1.82521e-06
5.22311e-10
-1.82552e-06
-2.76762e-09
-1.82553e-06
-6.05073e-09
-1.82523e-06
-7.36123e-09
-1.78123e-06
-3.47158e-17
-6.28001e-07
-6.27877e-17
-1.80728e-20
6.08456e-17
-1.09883e-16
-2.79777e-20
9.48689e-09
-6.16066e-07
8.26282e-09
-1.77474e-06
4.3941e-09
-1.82134e-06
5.19227e-10
-1.82165e-06
-3.35559e-09
-1.82165e-06
-7.22406e-09
-1.82137e-06
-8.82722e-09
-1.77991e-06
-7.78927e-17
-6.38251e-07
-1.40663e-16
-2.60297e-20
1.36806e-16
-2.46664e-16
-3.71575e-20
1.08737e-08
-6.28261e-07
9.34439e-09
-1.77349e-06
4.93256e-09
-1.81693e-06
5.14956e-10
-1.81723e-06
-3.90269e-09
-1.81723e-06
-8.31448e-09
-1.81695e-06
-1.02282e-08
-1.77825e-06
-1.75101e-16
-6.49814e-07
-3.15741e-16
-3.3573e-20
3.08223e-16
-5.54855e-16
-4.75893e-20
1.22036e-08
-6.41704e-07
1.03449e-08
-1.77188e-06
5.43007e-09
-1.81202e-06
5.09551e-10
-1.81231e-06
-4.4111e-09
-1.81231e-06
-9.32655e-09
-1.81204e-06
-1.157e-08
-1.77623e-06
-3.94417e-16
-6.62631e-07
-7.10129e-16
-4.09673e-20
6.9589e-16
-1.25071e-15
-5.78704e-20
1.34813e-08
-6.56343e-07
1.12688e-08
-1.76988e-06
5.88894e-09
-1.80664e-06
5.03201e-10
-1.80693e-06
-4.88277e-09
-1.80693e-06
-1.02635e-08
-1.80666e-06
-1.28569e-08
-1.77384e-06
-8.90289e-16
-6.76648e-07
-1.60039e-15
-4.56e-20
1.57458e-15
-2.82525e-15
-6.6574e-20
1.47101e-08
-6.72128e-07
1.212e-08
-1.76747e-06
6.3121e-09
-1.80083e-06
4.96304e-10
-1.80111e-06
-5.31948e-09
-1.80111e-06
-1.11287e-08
-1.80085e-06
-1.40917e-08
-1.77104e-06
-2.01398e-15
-6.91812e-07
-3.61433e-15
-4.60824e-20
3.5709e-15
-6.3961e-15
-7.18124e-20
1.5893e-08
-6.89013e-07
1.29063e-08
-1.76464e-06
6.70178e-09
-1.79462e-06
4.893e-10
-1.7949e-06
-5.7231e-09
-1.7949e-06
-1.19284e-08
-1.79464e-06
-1.52777e-08
-1.76783e-06
-4.56627e-15
-7.08073e-07
-8.18058e-15
-4.11935e-20
8.1173e-15
-1.45134e-14
-7.19773e-20
1.7033e-08
-7.06954e-07
1.36295e-08
-1.76137e-06
7.06061e-09
-1.78805e-06
4.8252e-10
-1.78832e-06
-6.09543e-09
-1.78832e-06
-1.26655e-08
-1.78807e-06
-1.64181e-08
-1.7642e-06
-1.03774e-14
-7.25387e-07
-1.8558e-14
-2.79163e-20
1.84971e-14
-3.30104e-14
-6.44314e-20
1.81333e-08
-7.25909e-07
1.4296e-08
-1.75764e-06
7.391e-09
-1.78115e-06
4.76087e-10
-1.7814e-06
-6.43871e-09
-1.78141e-06
-1.33449e-08
-1.78117e-06
-1.75162e-08
-1.76012e-06
-2.36416e-14
-7.43713e-07
-4.21996e-14
-2.74995e-20
4.22559e-14
-7.52663e-14
-4.49237e-20
1.91965e-08
-7.45844e-07
1.49107e-08
-1.75344e-06
7.69532e-09
-1.77393e-06
4.70049e-10
-1.77418e-06
-6.75518e-09
-1.77418e-06
-1.39717e-08
-1.77395e-06
-1.8575e-08
-1.7556e-06
-5.39954e-14
-7.63013e-07
-9.61949e-14
-2.68043e-20
9.67834e-14
-1.7205e-13
-5.42228e-20
2.02248e-08
-7.66726e-07
1.5477e-08
-1.74876e-06
7.97572e-09
-1.76643e-06
4.64455e-10
-1.76667e-06
-7.04686e-09
-1.76667e-06
-1.45497e-08
-1.76645e-06
-1.95967e-08
-1.75061e-06
-1.23642e-13
-7.83256e-07
-2.19836e-13
-2.5859e-20
2.22267e-13
-3.94316e-13
-5.18293e-20
2.12194e-08
-7.88528e-07
1.59992e-08
-1.7436e-06
8.2341e-09
-1.75867e-06
4.59299e-10
-1.75889e-06
-7.31563e-09
-1.75889e-06
-1.50824e-08
-1.75868e-06
-2.05824e-08
-1.74516e-06
-2.8388e-13
-8.04411e-07
-5.03716e-13
-2.46857e-20
5.11846e-13
-9.06163e-13
-4.6852e-20
2.21807e-08
-8.11227e-07
1.64806e-08
-1.73794e-06
8.47213e-09
-1.75066e-06
4.54611e-10
-1.75088e-06
-7.5631e-09
-1.75088e-06
-1.55733e-08
-1.75067e-06
-2.15323e-08
-1.73924e-06
-6.53575e-13
-8.26453e-07
-1.15729e-12
-2.34558e-20
1.18201e-12
-2.08817e-12
-4.00232e-20
2.31083e-08
-8.34798e-07
1.69238e-08
-1.73179e-06
8.69127e-09
-1.74243e-06
4.50353e-10
-1.74263e-06
-7.79082e-09
-1.74264e-06
-1.60252e-08
-1.74244e-06
-2.24466e-08
-1.73284e-06
-1.50893e-12
-8.49354e-07
-2.66623e-12
-2.1205e-20
2.73735e-12
-4.82553e-12
-3.10642e-20
2.40012e-08
-8.59216e-07
1.73314e-08
-1.72514e-06
8.89257e-09
-1.73399e-06
4.46149e-10
-1.73419e-06
-8.00063e-09
-1.73419e-06
-1.64415e-08
-1.734e-06
-2.33259e-08
-1.72598e-06
-3.49354e-12
-8.73086e-07
-6.15977e-12
-2.07757e-20
6.35713e-12
-1.11827e-11
-2.82242e-20
2.48582e-08
-8.84447e-07
1.77054e-08
-1.718e-06
9.07669e-09
-1.72536e-06
4.41223e-10
-1.72555e-06
-8.19476e-09
-1.72555e-06
-1.68259e-08
-1.72536e-06
-2.41707e-08
-1.71865e-06
-8.11076e-12
-8.97618e-07
-1.42705e-11
-1.42205e-20
1.4803e-11
-2.59856e-11
-9.72161e-21
2.56778e-08
-9.10449e-07
1.80476e-08
-1.71038e-06
9.24401e-09
-1.71656e-06
4.34484e-10
-1.71674e-06
-8.37576e-09
-1.71674e-06
-1.71823e-08
-1.71656e-06
-2.49819e-08
-1.71086e-06
-1.88787e-11
-9.2291e-07
-3.31492e-11
-1.03683e-20
3.45478e-11
-6.05334e-11
-9.02792e-21
2.6458e-08
-9.37167e-07
1.83597e-08
-1.70229e-06
9.39483e-09
-1.70759e-06
4.24721e-10
-1.70777e-06
-8.54636e-09
-1.70777e-06
-1.75149e-08
-1.70759e-06
-2.57602e-08
-1.70262e-06
-4.40314e-11
-9.4891e-07
-7.71806e-11
-9.48404e-21
8.07306e-11
-1.41264e-10
-9.73864e-21
2.71971e-08
-9.64522e-07
1.8644e-08
-1.69374e-06
9.52972e-09
-1.69848e-06
4.10802e-10
-1.69865e-06
-8.70937e-09
-1.69865e-06
-1.78279e-08
-1.69847e-06
-2.65065e-08
-1.69394e-06
-1.0277e-10
-9.75543e-07
-1.79951e-10
-8.69564e-21
1.88442e-10
-3.29706e-10
-1.13987e-20
2.78892e-08
-9.92391e-07
1.89021e-08
-1.68476e-06
9.64937e-09
-1.68922e-06
3.91643e-10
-1.6894e-06
-8.86767e-09
-1.68939e-06
-1.81255e-08
-1.68921e-06
-2.71659e-08
-1.6849e-06
-2.39313e-10
-1.00263e-06
-4.19264e-10
-7.80453e-21
4.37029e-10
-7.66736e-10
-1.31142e-20
2.83184e-08
-1.02035e-06
1.91377e-08
-1.67558e-06
9.75503e-09
-1.67984e-06
3.66627e-10
-1.68001e-06
-9.02381e-09
-1.68e-06
-1.84129e-08
-1.67982e-06
-2.76276e-08
-1.67569e-06
-5.5222e-10
-1.02978e-06
-9.71485e-10
-6.92135e-21
9.95355e-10
-1.7621e-09
-1.09265e-20
2.86635e-08
-1.048e-06
1.93515e-08
-1.66627e-06
9.84631e-09
-1.67034e-06
3.35272e-10
-1.6705e-06
-9.17828e-09
-1.67049e-06
-1.86915e-08
-1.67031e-06
-2.80371e-08
-1.66634e-06
-1.24467e-09
-1.05655e-06
-2.21617e-09
-5.01258e-21
2.17522e-09
-3.93737e-09
-1.02021e-20
2.89641e-08
-1.07466e-06
1.95346e-08
-1.65684e-06
9.91641e-09
-1.66072e-06
2.9698e-10
-1.66088e-06
-9.32441e-09
-1.66087e-06
-1.89502e-08
-1.66069e-06
-2.84175e-08
-1.65687e-06
-2.66617e-09
-1.08217e-06
-4.88241e-09
-3.38273e-21
4.3947e-09
-8.33254e-09
-6.52739e-21
2.91982e-08
-1.09924e-06
1.96478e-08
-1.64729e-06
9.93914e-09
-1.65101e-06
2.41826e-10
-1.65118e-06
-9.45425e-09
-1.65117e-06
-1.91615e-08
-1.65098e-06
-2.87419e-08
-1.64729e-06
-5.3201e-09
-1.10537e-06
-1.02031e-08
-3.08848e-21
9.11081e-09
-1.73982e-08
-2.06211e-20
2.93299e-08
-1.11916e-06
1.96743e-08
-1.63763e-06
9.90199e-09
-1.64124e-06
1.46003e-10
-1.64142e-06
-9.60869e-09
-1.64142e-06
-1.93768e-08
-1.64121e-06
-2.90403e-08
-1.63763e-06
-9.22802e-09
-1.12489e-06
-1.93454e-08
-1.56197e-20
1.00677e-08
-2.72457e-08
-4.86378e-20
2.9526e-08
-1.13822e-06
1.97898e-08
-1.62789e-06
9.92376e-09
-1.63137e-06
6.78359e-11
-1.63157e-06
-9.78783e-09
-1.63156e-06
-1.96507e-08
-1.63135e-06
-2.9374e-08
-1.62791e-06
-1.02244e-08
-1.14365e-06
-2.9441e-08
-2.83979e-20
1.08029e-08
-3.78845e-08
-1.0494e-19
2.97948e-08
-1.15674e-06
1.99915e-08
-1.61809e-06
1.0023e-08
-1.6214e-06
5.74617e-11
-1.6216e-06
-9.90523e-09
-1.6216e-06
-1.98641e-08
-1.62139e-06
-2.96516e-08
-1.61812e-06
-1.08616e-08
-1.16198e-06
-4.01289e-08
-5.30741e-20
1.14959e-08
-4.915e-08
-1.31266e-19
2.99727e-08
-1.17468e-06
2.01186e-08
-1.60824e-06
1.00913e-08
-1.61138e-06
6.22223e-11
-1.61157e-06
-9.96372e-09
-1.61157e-06
-1.99822e-08
-1.61137e-06
-2.98285e-08
-1.60827e-06
-1.15872e-08
-1.1797e-06
-5.14919e-08
-7.01037e-20
1.2245e-08
-6.11178e-08
-1.18704e-19
3.01384e-08
-1.19199e-06
2.02191e-08
-1.59832e-06
1.0138e-08
-1.60129e-06
5.57061e-11
-1.60149e-06
-1.00249e-08
-1.60149e-06
-2.01013e-08
-1.60129e-06
-3.00178e-08
-1.59836e-06
-1.2338e-08
-1.1968e-06
-6.35538e-08
-8.05991e-20
1.30398e-08
-7.38274e-08
-7.58156e-20
3.0345e-08
-1.20866e-06
2.03465e-08
-1.58832e-06
1.0197e-08
-1.59115e-06
4.86293e-11
-1.59134e-06
-1.00986e-08
-1.59134e-06
-2.0245e-08
-1.59115e-06
-3.02406e-08
-1.58836e-06
-1.31399e-08
-1.21328e-06
-7.63639e-08
-8.13423e-20
1.38897e-08
-8.73338e-08
-7.02872e-20
3.05892e-08
-1.2247e-06
2.05032e-08
-1.57823e-06
1.02733e-08
-1.58092e-06
4.62314e-11
-1.58112e-06
-1.018e-08
-1.58112e-06
-2.04071e-08
-1.58092e-06
-3.04897e-08
-1.57828e-06
-1.39927e-08
-1.22912e-06
-8.99701e-08
-6.48402e-20
1.48012e-08
-1.01695e-07
-5.40302e-20
3.08719e-08
-1.24007e-06
2.0689e-08
-1.56805e-06
1.0368e-08
-1.57059e-06
5.08659e-11
-1.5708e-06
-1.02655e-08
-1.5708e-06
-2.05841e-08
-1.5706e-06
-3.07634e-08
-1.5681e-06
-1.49027e-08
-1.24428e-06
-1.04426e-07
-4.87446e-20
1.57836e-08
-1.16979e-07
-4.61788e-20
3.1197e-08
-1.25476e-06
2.09056e-08
-1.55776e-06
1.04815e-08
-1.56017e-06
6.23151e-11
-1.56038e-06
-1.03563e-08
-1.56038e-06
-2.07784e-08
-1.56018e-06
-3.10668e-08
-1.55781e-06
-1.5878e-08
-1.25873e-06
-1.1979e-07
-4.86761e-20
1.68476e-08
-1.33261e-07
-5.05793e-20
3.15702e-08
-1.26873e-06
2.11557e-08
-1.54734e-06
1.06144e-08
-1.54963e-06
7.89733e-11
-1.54984e-06
-1.0456e-08
-1.54985e-06
-2.0996e-08
-1.54964e-06
-3.14088e-08
-1.5474e-06
-1.69292e-08
-1.27244e-06
-1.36134e-07
-5.17029e-20
1.80056e-08
-1.50632e-07
-5.8267e-20
3.19979e-08
-1.28194e-06
2.14427e-08
-1.53679e-06
1.0767e-08
-1.53895e-06
9.84625e-11
-1.53918e-06
-1.05699e-08
-1.53918e-06
-2.12451e-08
-1.53896e-06
-3.18002e-08
-1.53684e-06
-1.80699e-08
-1.28537e-06
-1.53541e-07
-5.90143e-20
1.92725e-08
-1.69198e-07
-6.64732e-20
3.24873e-08
-1.29436e-06
2.17706e-08
-1.52607e-06
1.09399e-08
-1.52812e-06
1.18016e-10
-1.52835e-06
-1.07039e-08
-1.52836e-06
-2.15349e-08
-1.52813e-06
-3.22536e-08
-1.52612e-06
-1.93168e-08
-1.29749e-06
-1.72116e-07
-6.71622e-20
2.06665e-08
-1.89083e-07
-7.84561e-20
3.30473e-08
-1.30593e-06
2.21438e-08
-1.51517e-06
1.11339e-08
-1.51711e-06
1.34889e-10
-1.51735e-06
-1.08644e-08
-1.51736e-06
-2.18753e-08
-1.51712e-06
-3.27826e-08
-1.51522e-06
-2.06903e-08
-1.30876e-06
-1.91986e-07
-7.21952e-20
2.22101e-08
-2.1043e-07
-8.8667e-20
3.36887e-08
-1.3166e-06
2.25687e-08
-1.50405e-06
1.1351e-08
-1.50589e-06
1.46958e-10
-1.50615e-06
-1.10575e-08
-1.50615e-06
-2.22767e-08
-1.5059e-06
-3.34019e-08
-1.50409e-06
-2.22148e-08
-1.31912e-06
-2.133e-07
-6.84844e-20
2.39312e-08
-2.33405e-07
-9.18248e-20
3.44259e-08
-1.32627e-06
2.30541e-08
-1.49268e-06
1.15949e-08
-1.49444e-06
1.5322e-10
-1.49471e-06
-1.12889e-08
-1.49471e-06
-2.27496e-08
-1.49444e-06
-3.41272e-08
-1.49271e-06
-2.39198e-08
-1.3285e-06
-2.36236e-07
-5.15635e-20
2.58647e-08
-2.58201e-07
-7.93268e-20
3.52773e-08
-1.33486e-06
2.36115e-08
-1.48101e-06
1.18714e-08
-1.4827e-06
1.54035e-10
-1.48299e-06
-1.15638e-08
-1.48299e-06
-2.3305e-08
-1.4827e-06
-3.49761e-08
-1.48104e-06
-2.58408e-08
-1.33682e-06
-2.60993e-07
-3.36122e-20
2.80547e-08
-2.85048e-07
-5.95206e-20
3.6266e-08
-1.34225e-06
2.42559e-08
-1.469e-06
1.21886e-08
-1.47063e-06
1.51021e-10
-1.47095e-06
-1.18868e-08
-1.47096e-06
-2.39548e-08
-1.47063e-06
-3.59689e-08
-1.46903e-06
-2.80214e-08
-1.34396e-06
-2.8781e-07
-2.70511e-20
3.05584e-08
-3.14235e-07
-4.79476e-20
3.74211e-08
-1.3483e-06
2.50062e-08
-1.45659e-06
1.25565e-08
-1.45818e-06
1.46576e-10
-1.45854e-06
-1.22634e-08
-1.45855e-06
-2.47131e-08
-1.45818e-06
-3.71306e-08
-1.45661e-06
-3.05171e-08
-1.34978e-06
-3.1697e-07
-2.33468e-20
3.3451e-08
-3.46127e-07
-4.02339e-20
3.87806e-08
-1.35283e-06
2.5886e-08
-1.44369e-06
1.29877e-08
-1.44528e-06
1.43221e-10
-1.4457e-06
-1.27011e-08
-1.4457e-06
-2.55988e-08
-1.44529e-06
-3.84945e-08
-1.44372e-06
-3.34003e-08
-1.35409e-06
-3.48829e-07
-2.11685e-20
3.68348e-08
-3.81192e-07
-3.38948e-20
4.03962e-08
-1.35562e-06
2.69281e-08
-1.43022e-06
1.34988e-08
-1.43185e-06
1.42892e-10
-1.43234e-06
-1.32127e-08
-1.43235e-06
-2.66409e-08
-1.43186e-06
-4.0109e-08
-1.43025e-06
-3.67699e-08
-1.35666e-06
-3.83839e-07
-1.99585e-20
4.08535e-08
-4.20033e-07
-3.00148e-20
4.23454e-08
-1.35638e-06
2.81825e-08
-1.41606e-06
1.4115e-08
-1.41778e-06
1.46308e-10
-1.41838e-06
-1.38219e-08
-1.41838e-06
-2.7888e-08
-1.41779e-06
-4.20502e-08
-1.41609e-06
-4.07675e-08
-1.35722e-06
-4.2259e-07
-1.85163e-20
4.57167e-08
-4.63449e-07
-2.60117e-20
4.47516e-08
-1.35474e-06
2.97326e-08
-1.40104e-06
1.4878e-08
-1.40293e-06
1.52566e-10
-1.40365e-06
-1.45724e-08
-1.40365e-06
-2.94252e-08
-1.40294e-06
-4.44432e-08
-1.40107e-06
-4.56019e-08
-1.35538e-06
-4.65872e-07
-1.63957e-20
5.1732e-08
-5.12542e-07
-2.09709e-20
4.7811e-08
-1.35022e-06
3.17155e-08
-1.38495e-06
1.58576e-08
-1.38707e-06
1.59183e-10
-1.38795e-06
-1.55386e-08
-1.38795e-06
-3.13944e-08
-1.38708e-06
-4.74882e-08
-1.38497e-06
-5.15827e-08
-1.35069e-06
-5.14783e-07
-1.2695e-20
5.93237e-08
-5.68832e-07
-1.40602e-20
5.17974e-08
-1.3422e-06
3.43236e-08
-1.36747e-06
1.71495e-08
-1.3699e-06
1.62823e-10
-1.37096e-06
-1.68229e-08
-1.37097e-06
-3.39942e-08
-1.36991e-06
-5.14649e-08
-1.3675e-06
-5.91374e-08
-1.34252e-06
-5.70849e-07
-8.21705e-21
6.89412e-08
-6.34327e-07
-7.5863e-21
5.69644e-08
-1.32985e-06
3.77125e-08
-1.34822e-06
1.88202e-08
-1.351e-06
1.60637e-10
-1.3523e-06
-1.84975e-08
-1.35231e-06
-3.73853e-08
-1.35102e-06
-5.6631e-08
-1.34826e-06
-6.87193e-08
-1.33006e-06
-6.36085e-07
-4.72676e-21
8.06076e-08
-7.11069e-07
-3.51778e-21
6.31212e-08
-1.31225e-06
4.16762e-08
-1.32677e-06
2.07342e-08
-1.33006e-06
1.51717e-10
-1.33172e-06
-2.04285e-08
-1.33173e-06
-4.13632e-08
-1.33009e-06
-6.27971e-08
-1.32682e-06
-8.0353e-08
-1.31238e-06
-7.12539e-07
-2.06062e-21
9.08279e-08
-7.97945e-07
-8.58813e-22
6.8767e-08
-1.29009e-06
4.50791e-08
-1.30309e-06
2.23554e-08
-1.30734e-06
1.38045e-10
-1.3095e-06
-2.20762e-08
-1.30952e-06
-4.47904e-08
-1.30737e-06
-6.8462e-08
-1.30315e-06
-9.05321e-08
-1.29022e-06
-7.99091e-07
-5.55115e-22
9.43664e-08
-8.88698e-07
-1.05743e-22
6.97528e-08
-1.26547e-06
4.56146e-08
-1.27895e-06
2.30035e-08
-1.28473e-06
1.25022e-10
-1.28663e-06
-2.27496e-08
-1.28664e-06
-4.53549e-08
-1.28477e-06
-6.9482e-08
-1.27902e-06
-9.40862e-08
-1.2656e-06
-8.8954e-07
-5.84277e-23
8.37171e-08