/*--------------------------------*- C++ -*----------------------------------*\
  =========                 |
  \\      /  F ield         | OpenFOAM: The Open Source CFD Toolbox
   \\    /   O peration     | Website:  https://openfoam.org
    \\  /    A nd           | Version:  8
     \\/     M anipulation  |
\*---------------------------------------------------------------------------*/
FoamFile
{
    version     2.0;
    format      ascii;
    class       volScalarField;
    location    "0.55";
    object      k;
}
// * * * * * * * * * * * * * * * * * * * * * * * * * * * * * * * * * * * * * //

dimensions      [0 2 -2 0 0 0 0];

internalField   nonuniform List<scalar> 
9150
(
0.00191921
0.00100641
0.000566025
0.000456814
0.000427812
0.000427812
0.000456814
0.000566024
0.00100641
0.00191921
0.00187626
0.000805417
0.000487363
0.000398611
0.000366479
0.000366479
0.000398611
0.000487363
0.000805416
0.00187626
0.00180304
0.000707082
0.000454528
0.000373572
0.000343279
0.000343279
0.000373572
0.000454527
0.000707081
0.00180304
0.00172207
0.000655702
0.000441976
0.000364379
0.000335447
0.000335447
0.000364379
0.000441976
0.000655701
0.00172207
0.00163572
0.000633938
0.000437667
0.000361599
0.000333664
0.000333664
0.000361599
0.000437667
0.000633937
0.00163572
0.00302987
0.0029958
0.00263307
0.00280353
0.00289788
0.0028979
0.00280359
0.00263315
0.00299589
0.00302989
0.00241893
0.00166769
0.00172595
0.00205049
0.00215482
0.00215483
0.00205052
0.00172598
0.00166771
0.00241893
0.00214921
0.00135933
0.00114478
0.00133861
0.00139894
0.00139895
0.00133863
0.00114479
0.00135933
0.00214921
0.00196066
0.00119776
0.000810847
0.000856509
0.000867702
0.000867703
0.000856513
0.00081085
0.00119776
0.00196066
0.00187762
0.00109685
0.000637937
0.0005818
0.000566182
0.000566182
0.0005818
0.000637938
0.00109685
0.00187762
0.0175631
0.00837826
0.0042351
0.00330794
0.00318297
0.00318328
0.00330953
0.00424079
0.00838871
0.0175796
0.00522811
0.00430441
0.0034099
0.00317188
0.0031831
0.00318318
0.00317207
0.00341016
0.00430399
0.00522849
0.00466123
0.00390441
0.00338492
0.00317427
0.00322091
0.00322098
0.00317444
0.00338511
0.00390426
0.00466136
0.00415033
0.00361863
0.0033663
0.00316929
0.00325982
0.00325989
0.00316943
0.00336645
0.00361873
0.00415039
0.0035659
0.0035744
0.00324103
0.00310519
0.00324147
0.00324152
0.0031053
0.00324115
0.00357456
0.00356593
1.53907
1.55539
1.5656
1.57097
1.57268
1.57267
1.57098
1.5657
1.55565
1.53956
2.97156
3.0075
3.03313
3.04957
3.05764
3.05772
3.04983
3.0336
3.00826
2.97266
3.57111
3.60845
3.63547
3.65301
3.66169
3.66178
3.65327
3.63592
3.60914
3.57211
3.95082
3.98332
4.00708
4.02265
4.03038
4.03044
4.02281
4.00736
3.98374
3.95142
4.25523
4.28005
4.29847
4.31071
4.31683
4.31685
4.31075
4.29853
4.28011
4.25529
4.52971
4.5471
4.56022
4.56906
4.57352
4.57351
4.56901
4.56011
4.5469
4.52937
4.785
4.79853
4.80853
4.81519
4.81853
4.81851
4.81512
4.8084
4.79834
4.78476
5.02826
5.04078
5.04974
5.05553
5.05838
5.05837
5.05549
5.04968
5.04069
5.02815
5.26705
5.27933
5.28809
5.29364
5.29635
5.29635
5.29366
5.28813
5.2794
5.26713
5.5064
5.5181
5.52655
5.53189
5.53449
5.53451
5.53197
5.52669
5.51831
5.50668
5.74884
5.75924
5.76684
5.77166
5.774
5.77404
5.77178
5.76705
5.75954
5.74923
5.99515
6.00349
6.00963
6.01354
6.01544
6.01549
6.01369
6.00988
6.00384
5.99561
6.24493
6.25063
6.25484
6.2575
6.25877
6.25882
6.25765
6.2551
6.251
6.2454
6.4978
6.50014
6.50186
6.50292
6.50339
6.50345
6.50307
6.50212
6.50048
6.49819
6.75268
6.75085
6.74955
6.74866
6.74818
6.74823
6.74883
6.74983
6.75122
6.75311
7.00715
7.00081
6.99617
6.9931
6.99154
6.9916
6.99329
6.99649
7.00122
7.00765
7.25926
7.24808
7.23985
7.2344
7.23168
7.23176
7.23464
7.24023
7.24859
7.25988
7.5068
7.49056
7.47856
7.47065
7.46672
7.46682
7.47096
7.47906
7.49123
7.50763
7.7476
7.72618
7.71036
7.69993
7.69477
7.69491
7.70033
7.71101
7.72708
7.74872
7.97955
7.953
7.93337
7.92043
7.91405
7.91421
7.92092
7.93419
7.95415
7.98102
8.20073
8.16921
8.14588
8.1305
8.12292
8.12311
8.13107
8.14685
8.1706
8.20256
8.4096
8.37335
8.34648
8.32874
8.31999
8.32018
8.32934
8.3475
8.37486
8.41165
8.60504
8.5643
8.53403
8.51401
8.50409
8.50426
8.51453
8.53494
8.56569
8.60701
8.78641
8.74128
8.70766
8.68537
8.67428
8.67438
8.68568
8.70822
8.74218
8.78777
8.95327
8.90363
8.86658
8.84197
8.82968
8.82967
8.84196
8.86658
8.90369
8.95344
9.10486
9.05047
9.00988
8.9829
8.96938
8.96926
8.98254
9.00926
9.04956
9.1036
9.23932
9.1804
9.1364
9.10713
9.09242
9.09222
9.1065
9.13534
9.17888
9.23736
9.35592
9.29248
9.24515
9.21368
9.19786
9.1976
9.21288
9.24375
9.29038
9.35298
9.45294
9.38536
9.33505
9.30165
9.28489
9.28464
9.30088
9.33369
9.38327
9.4499
9.52856
9.45789
9.40531
9.37042
9.35296
9.3528
9.36992
9.40444
9.45661
9.52679
9.583
9.51017
9.45596
9.42001
9.40208
9.40202
9.41984
9.45567
9.50978
9.58253
9.61728
9.54296
9.48764
9.45099
9.43274
9.43278
9.45111
9.48785
9.54327
9.61771
9.63257
9.55736
9.50139
9.46431
9.44589
9.44601
9.46466
9.50198
9.55821
9.6337
9.63029
9.55474
9.49849
9.46124
9.44275
9.44292
9.46175
9.49936
9.55598
9.63194
9.61219
9.53667
9.48044
9.4432
9.42473
9.42494
9.44382
9.48149
9.53815
9.61413
9.58004
9.50482
9.4488
9.41169
9.39331
9.39354
9.4124
9.44997
9.50646
9.58214
9.53549
9.46077
9.40509
9.36821
9.34995
9.35021
9.36899
9.40639
9.46258
9.5378
9.48017
9.40604
9.35076
9.31414
9.29601
9.2963
9.31501
9.35221
9.40807
9.4828
9.41563
9.34202
9.28711
9.25071
9.2327
9.23301
9.25164
9.28868
9.34426
9.41859
9.34314
9.26986
9.21518
9.17893
9.16098
9.16129
9.17986
9.21676
9.27215
9.34621
9.26351
9.19036
9.13575
9.09954
9.08159
9.08187
9.10037
9.13718
9.19244
9.26633
9.17714
9.10395
9.04931
9.01304
8.99504
8.99525
9.01368
9.05041
9.10558
9.17937
9.08424
9.01093
8.95616
8.91978
8.90168
8.9018
8.92014
8.9568
9.0119
9.08563
8.985
8.91147
8.85652
8.81999
8.80175
8.80175
8.81999
8.85657
8.91161
8.98531
8.87949
8.8057
8.75053
8.71382
8.69542
8.69528
8.71341
8.74988
8.80485
8.8785
8.76761
8.6936
8.63826
8.60139
8.58285
8.58257
8.60055
8.63688
8.69169
8.76519
8.64927
8.57522
8.51982
8.48287
8.46423
8.46382
8.48163
8.51775
8.57231
8.6455
8.52468
8.45079
8.39546
8.35853
8.33983
8.33931
8.35696
8.39284
8.44708
8.51983
8.39438
8.32074
8.26558
8.22871
8.21001
8.20941
8.22692
8.26257
8.3165
8.38885
8.25893
8.18555
8.13055
8.09377
8.07509
8.07445
8.09184
8.12732
8.18101
8.25307
8.11871
8.04553
7.99069
7.95401
7.93537
7.93469
7.95199
7.98731
8.0408
8.11262
7.97376
7.90084
7.84622
7.80968
7.79111
7.79041
7.8076
7.84273
7.89596
7.96746
7.82411
7.75164
7.69736
7.66107
7.6426
7.64189
7.65894
7.6938
7.74663
7.81764
7.66999
7.59823
7.54449
7.50855
7.49027
7.48956
7.50641
7.54091
7.59318
7.66343
7.51194
7.44116
7.38813
7.35268
7.33464
7.33395
7.3506
7.38464
7.43622
7.5055
7.3508
7.28118
7.22902
7.19413
7.1764
7.17574
7.19217
7.22573
7.27654
7.34475
7.1876
7.11921
7.06794
7.03365
7.01624
7.01564
7.03186
7.06494
7.115
7.18218
7.02333
6.95608
6.90566
6.87194
6.85483
6.85428
6.87029
6.90292
6.95228
7.01849
6.85872
6.79248
6.7428
6.70958
6.69273
6.6922
6.70801
6.74021
6.78889
6.85419
6.69425
6.62887
6.57982
6.54702
6.53038
6.52986
6.54546
6.57724
6.62529
6.68971
6.53026
6.46559
6.41706
6.38459
6.3681
6.36756
6.38297
6.41437
6.46185
6.52549
6.36697
6.30284
6.2547
6.22248
6.20609
6.20552
6.22076
6.25186
6.29887
6.36188
6.2045
6.14073
6.09284
6.06076
6.04443
6.04382
6.05894
6.0898
6.13648
6.19904
6.04278
5.97918
5.9314
5.89938
5.88306
5.88241
5.89744
5.92816
5.97465
6.03696
5.88161
5.81799
5.77019
5.73815
5.7218
5.72111
5.73609
5.76675
5.81318
5.87542
5.7206
5.65683
5.60892
5.5768
5.56039
5.55967
5.57462
5.60528
5.65172
5.71402
5.55921
5.49525
5.44722
5.41502
5.39856
5.3978
5.41273
5.4434
5.48988
5.55226
5.39691
5.33286
5.28478
5.25255
5.23606
5.23527
5.25018
5.28082
5.32727
5.38967
5.2333
5.16937
5.1214
5.08925
5.0728
5.072
5.08685
5.11737
5.16367
5.22591
5.0684
5.0048
4.95712
4.92518
4.90885
4.90808
4.92284
4.95313
4.99901
5.06054
4.90148
4.83917
4.79219
4.76063
4.7445
4.74381
4.75857
4.78873
4.83428
4.89513
4.73699
4.67462
4.62764
4.59612
4.58005
4.57947
4.59437
4.62474
4.67057
4.73185
4.57369
4.51062
4.46322
4.43146
4.41533
4.41482
4.42994
4.4607
4.50711
4.56923
4.40992
4.34607
4.29813
4.26606
4.2498
4.24935
4.26471
4.29589
4.34292
4.40587
4.24469
4.18015
4.13171
4.09932
4.08293
4.08253
4.09811
4.12968
4.17729
4.24098
4.07744
4.01233
3.96348
3.93082
3.91432
3.91396
3.92974
3.96167
4.00977
4.07411
3.90791
3.84236
3.79317
3.76029
3.7437
3.74339
3.75936
3.7916
3.84015
3.90503
3.73607
3.67017
3.6207
3.58764
3.57098
3.57072
3.58685
3.61938
3.66831
3.73368
3.5621
3.49586
3.44612
3.41289
3.39615
3.39593
3.41222
3.44501
3.49431
3.56012
3.38615
3.31956
3.26954
3.23611
3.2193
3.21911
3.23555
3.2686
3.31825
3.38448
3.2084
3.14142
3.09109
3.05746
3.04055
3.04039
3.05698
3.0903
3.14031
3.20697
3.02904
2.96164
2.91096
2.87708
2.86006
2.85992
2.87667
2.91027
2.96068
3.02781
2.8483
2.78042
2.72933
2.69517
2.67801
2.67789
2.69482
2.72875
2.77959
2.84725
2.66647
2.59802
2.54645
2.51195
2.49462
2.49451
2.51164
2.54594
2.5973
2.66557
2.48388
2.41472
2.36258
2.32765
2.3101
2.31
2.32736
2.36209
2.41405
2.48304
2.30084
2.23083
2.17797
2.14252
2.1247
2.1246
2.14222
2.17747
2.23015
2.29998
2.1177
2.04666
1.99291
1.95683
1.93866
1.93855
1.95649
1.99236
2.04589
2.11674
1.93482
1.86253
1.80771
1.77084
1.75226
1.75213
1.77046
1.80707
1.86164
1.9337
1.75261
1.67882
1.62271
1.5849
1.56581
1.56566
1.58446
1.62197
1.67778
1.75127
1.5715
1.49596
1.43834
1.3994
1.3797
1.37952
1.39888
1.43747
1.49475
1.56993
1.392
1.31449
1.25511
1.21485
1.19444
1.19425
1.21427
1.25413
1.3131
1.39019
1.2147
1.13507
1.07376
1.03203
1.0108
1.01059
1.03139
1.07268
1.13352
1.21267
1.04032
0.95866
0.895381
0.852079
0.829979
0.829758
0.851406
0.894228
0.956997
1.03812
0.869801
0.786618
0.721637
0.676838
0.653857
0.653639
0.676166
0.720472
0.784913
0.86752
0.704431
0.621022
0.555159
0.509226
0.485465
0.485268
0.508609
0.554061
0.619376
0.702187
0.546149
0.465078
0.400064
0.353847
0.329574
0.329421
0.35335
0.399134
0.463626
0.544104
0.398267
0.323704
0.262479
0.21765
0.193499
0.193416
0.217342
0.261826
0.322595
0.39661
0.266703
0.2037
0.150183
0.109986
0.0878156
0.0878121
0.109898
0.149872
0.20305
0.265614
0.160632
0.11177
0.0694517
0.0398335
0.0247184
0.024753
0.0398816
0.0694171
0.111564
0.16018
0.0885184
0.0485144
0.0210088
0.00860123
0.00484636
0.00485509
0.00863151
0.0210499
0.0485292
0.0884915
1.5139
1.47778
1.43055
1.3725
1.30528
1.23145
1.15616
1.08827
1.02429
0.963426
0.905851
0.851969
0.802072
0.756233
0.71429
0.675882
0.6405
0.607574
0.576542
0.546909
0.51827
0.490319
0.46284
0.435699
0.408827
0.382207
0.355852
0.329797
0.304087
0.278764
0.253858
0.229383
0.205321
0.181584
0.157634
0.133175
0.109662
0.0856016
0.0634738
0.0299921
2.92266
2.85507
2.77273
2.67805
2.57463
2.46559
2.35249
2.23759
2.12425
2.01479
1.91071
1.81274
1.72105
1.63542
1.55536
1.48018
1.40908
1.34128
1.2761
1.21296
1.1514
1.09112
1.03187
0.973535
0.916054
0.859421
0.803664
0.748828
0.694963
0.642105
0.590265
0.539417
0.489492
0.440364
0.391872
0.343921
0.296429
0.246548
0.184787
0.0810968
3.52091
3.4521
3.36884
3.27309
3.16756
3.05515
2.9378
2.81719
2.69599
2.57626
2.45967
2.34721
2.23933
2.13623
2.03772
1.94331
1.85249
1.76479
1.67981
1.59719
1.51666
1.43798
1.361
1.28559
1.21167
1.1392
1.06817
0.99856
0.930382
0.863633
0.798298
0.734339
0.671681
0.610189
0.549612
0.489455
0.428583
0.363549
0.282155
0.130449
3.90711
3.84763
3.77485
3.68804
3.58694
3.47578
3.35756
3.23367
3.10692
2.97972
2.85433
2.73212
2.61372
2.49963
2.38973
2.28342
2.18012
2.0795
1.98132
1.88538
1.79158
1.69988
1.61022
1.52258
1.4369
1.35316
1.27132
1.19136
1.11325
1.03698
0.962486
0.889708
0.81852
0.748695
0.679794
0.610926
0.540149
0.46261
0.363054
0.1716
4.22158
4.17649
4.12084
4.05038
3.95422
3.8395
3.71864
3.59036
3.45537
3.31804
3.18265
3.05134
2.92411
2.8012
2.68228
2.56635
2.45288
2.34208
2.23367
2.12733
2.02304
1.92089
1.82097
1.72338
1.62814
1.53525
1.44468
1.35641
1.27037
1.18652
1.10475
1.02495
0.946881
0.870193
0.794216
0.717686
0.637994
0.549037
0.432397
0.205958
4.50615
4.47668
4.44295
4.3868
4.28196
4.1556
4.02629
3.89394
3.75701
3.61503
3.47063
3.33012
3.19595
3.06714
2.9425
2.81898
2.69637
2.57638
2.45847
2.34257
2.22894
2.11761
2.0087
1.90239
1.79881
1.69798
1.59987
1.50443
1.41156
1.32116
1.23307
1.14708
1.06286
0.979893
0.897294
0.813468
0.725266
0.625542
0.493085
0.235017
4.76679
4.74484
4.71937
4.66166
4.55467
4.42831
4.29424
4.15553
4.01271
3.86655
3.71952
3.57513
3.43568
3.30093
3.17042
3.04413
2.91925
2.79422
2.66785
2.54244
2.41936
2.2988
2.18123
2.06678
1.95553
1.84747
1.74255
1.64065
1.54162
1.44528
1.3514
1.25967
1.16966
1.08069
0.991697
0.900792
0.804379
0.694419
0.547248
0.260526
5.01104
4.98873
4.95757
4.89844
4.80232
4.68198
4.54654
4.40242
4.25318
4.10112
3.94863
3.79827
3.65186
3.51009
3.37342
3.24214
3.11454
2.98767
2.86079
2.73174
2.60027
2.46997
2.34339
2.22083
2.10222
1.98738
1.87613
1.76824
1.66349
1.56161
1.46228
1.3651
1.26953
1.17476
1.07954
0.981747
0.877391
0.757636
0.596589
0.283283
5.2503
5.22768
5.19289
5.13383
5.0442
4.92725
4.79095
4.64256
4.48713
4.32826
4.16881
4.0113
3.85756
3.70866
3.565
3.42633
3.29151
3.15951
3.02983
2.90004
2.76845
2.63282
2.49739
2.36695
2.24133
2.12013
2.00296
1.88948
1.77935
1.67223
1.56771
1.46529
1.36434
1.26393
1.16265
1.05815
0.946082
0.81686
0.642509
0.303931
5.49097
5.4698
5.43566
5.37729
5.2887
5.17157
5.03295
4.87992
4.71811
4.55185
4.38452
4.21886
4.05691
3.89998
3.74865
3.60274
3.4614
3.32345
3.18763
3.05272
2.91826
2.78243
2.6431
2.50608
2.37435
2.24742
2.12481
2.00611
1.89092
1.77881
1.66932
1.56186
1.4557
1.34981
1.24262
1.13157
1.01197
0.8735
0.6862
0.323077
5.73551
5.71686
5.68532
5.62723
5.53656
5.41668
5.27429
5.11606
4.94767
4.77373
4.59802
4.42358
4.2527
4.08695
3.92714
3.77336
3.62507
3.48129
3.34073
3.20204
3.06383
2.92421
2.78092
2.63934
2.50265
2.37071
2.24316
2.1196
1.99962
1.88276
1.76848
1.65615
1.54494
1.43371
1.32075
1.2033
1.07629
0.928718
0.728662
0.341303
5.98471
5.96935
5.94017
5.88057
5.7865
5.66271
5.51572
5.35182
5.17662
4.99482
4.81048
4.62693
4.44676
4.27183
4.10326
3.94143
3.78607
3.63639
3.49116
3.34874
3.20719
3.06391
2.91586
2.76951
2.62811
2.49147
2.35928
2.23113
2.10659
1.98517
1.86628
1.74923
1.63311
1.51668
1.39808
1.27434
1.14004
0.983448
0.770695
0.359197
6.23796
6.22625
6.19894
6.13692
6.03894
5.91058
5.75827
5.58812
5.40568
5.21571
5.0225
4.82965
4.64007
4.45594
4.27869
4.10901
3.94684
3.79152
3.64171
3.49533
3.34965
3.2015
3.04845
2.89752
2.75161
2.61053
2.47392
2.34139
2.21248
2.08666
1.96332
1.84169
1.72081
1.59931
1.47521
1.34532
1.20384
1.03831
0.812879
0.378124
6.49502
6.48762
6.46173
6.39712
6.29494
6.16133
6.00283
5.82559
5.63522
5.43659
5.2342
5.03191
4.83292
4.63971
4.45399
4.27685
4.10833
3.9477
3.79329
3.64254
3.49197
3.33769
3.17926
3.02396
2.87378
2.72845
2.58762
2.45087
2.31774
2.18767
2.06001
1.93394
1.80841
1.68198
1.55251
1.4166
1.26809
1.09375
0.855761
0.397389
6.75563
6.75303
6.72601
6.65884
6.55252
6.41333
6.24806
6.0631
5.86426
5.65661
5.44486
5.23312
5.02486
4.82294
4.62936
4.44521
4.27066
4.10488
3.94595
3.79074
3.63492
3.47298
3.30883
3.14937
2.99506
2.84563
2.7007
2.55987
2.42263
2.28842
2.15655
2.02614
1.89609
1.76484
1.63013
1.48833
1.33293
1.14996
0.899612
0.417118
7.01613
7.01927
6.99207
6.92087
6.80912
6.66356
6.49105
6.29809
6.09062
5.87394
5.65297
5.43207
5.21514
5.00515
4.80426
4.61371
4.43368
4.26322
4.09997
3.93997
3.77749
3.60729
3.43808
3.27433
3.11586
2.96232
2.81335
2.66849
2.52723
2.38897
2.25297
2.11832
1.98384
1.84788
1.70804
1.5605
1.39836
1.20691
0.94427
0.437237
7.27482
7.28387
7.25541
7.17963
7.06191
6.90949
6.7294
6.52833
6.31224
6.08673
5.85693
5.62757
5.40265
5.18534
4.97795
4.7818
4.59706
4.42247
4.25506
4.08961
3.91872
3.74125
3.5672
3.39898
3.23624
3.07857
2.92555
2.7767
2.63146
2.48921
2.34917
2.21036
2.07154
1.93098
1.78614
1.63299
1.46427
1.26452
0.989768
0.457813
7.52937
7.54443
7.51451
7.43392
7.30973
7.14986
6.96173
6.75227
6.52763
6.2936
6.05554
5.8184
5.5863
5.36255
5.14959
4.94875
4.76006
4.58194
4.41068
4.23972
4.05869
3.87419
3.69557
3.52295
3.35595
3.19415
3.0371
2.88429
2.73513
2.58894
2.44492
2.30204
2.15897
2.01391
1.86419
1.70558
1.53046
1.32264
1.03601
0.478849
7.77745
7.79853
7.76709
7.68157
7.55061
7.38294
7.18651
6.9686
6.73558
6.49342
6.24773
6.00355
5.76513
5.53591
5.31837
5.1138
4.92191
4.74045
4.56458
4.38621
4.19624
4.00636
3.82304
3.64595
3.47467
3.30876
3.1477
2.99097
2.83793
2.68787
2.53994
2.39305
2.24584
2.09638
1.9419
1.77797
1.59662
1.38093
1.08271
0.500243
8.01675
8.04369
8.01062
7.92011
7.78228
7.60676
7.40212
7.176
6.93503
6.68532
6.43273
6.18233
5.9385
5.7048
5.48371
5.27638
5.0821
4.89772
4.71682
4.52978
4.33213
4.13713
3.94905
3.76749
3.59196
3.42196
3.25695
3.09634
2.93949
2.78563
2.63386
2.48307
2.33179
2.17804
2.01891
1.84977
1.66233
1.43888
1.12909
0.521481
8.24507
8.27746
8.2426
8.14709
8.00251
7.81941
7.60703
7.37332
7.12511
6.8687
6.61005
6.35433
6.10599
5.86864
5.64473
5.43519
5.23888
5.05178
4.86609
4.67056
4.4656
4.26555
4.07284
3.88692
3.70724
3.53325
3.36437
3.19998
3.0394
2.88182
2.72631
2.57169
2.41646
2.25852
2.09487
1.92066
1.72726
1.49624
1.1751
0.542604
8.46057
8.49762
8.46075
8.36036
8.20939
8.01933
7.80008
7.55972
7.30521
7.04308
6.77929
6.5191
6.26702
6.02663
5.80035
5.58894
5.39093
5.20173
5.01216
4.80637
4.59474
4.39046
4.19357
4.00357
3.81993
3.6421
3.46948
3.30143
3.13723
2.97604
2.81689
2.65855
2.49946
2.33746
2.16941
1.99029
1.79112
1.55275
1.22059
0.563549
8.66182
8.7023
8.6631
8.55814
8.4016
8.20564
7.98059
7.73468
7.47497
7.20809
6.94004
6.67613
6.42093
6.17804
5.9498
5.73676
5.53699
5.34502
5.1503
4.93684
4.7204
4.51188
4.31092
4.117
3.92957
3.74805
3.57184
3.40025
3.23255
3.06787
2.90519
2.74326
2.58044
2.4145
2.24219
2.05831
1.85358
1.60816
1.26542
0.584328
8.8479
8.89008
8.8483
8.73944
8.5785
8.37795
8.14836
7.89808
7.6343
7.36362
7.09209
6.82511
6.56734
6.32243
6.09266
5.87835
5.67702
5.48227
5.28248
5.06285
4.84195
4.6293
4.42442
4.22675
4.03569
3.85066
3.671
3.49602
3.32496
3.15692
2.99084
2.82543
2.659
2.48925
2.31282
2.12434
1.91421
1.66195
1.30896
0.604597
9.01828
9.05986
9.01554
8.90383
8.73991
8.53623
8.30341
8.04996
7.78316
7.50954
7.23524
6.96576
6.70585
6.45923
6.22813
6.01262
5.80973
5.61228
5.40804
5.18345
4.95852
4.74205
4.53351
4.33232
4.13785
3.94949
3.76657
3.58837
3.4141
3.24283
3.0735
2.90474
2.73483
2.56139
2.38095
2.188
1.97261
1.71366
1.35064
0.623954
9.17236
9.21068
9.16417
9.05085
8.88545
8.68002
8.44513
8.18979
7.92106
7.64539
7.36903
7.09758
6.83588
6.5877
6.35524
6.13844
5.93398
5.73419
5.52644
5.29796
5.06946
4.84956
4.63771
4.43328
4.23565
4.04419
3.8582
3.67695
3.49963
3.3253
3.15285
2.98088
2.80762
2.63063
2.44633
2.24902
2.0285
1.76295
1.38994
0.642031
9.30896
9.34152
9.29307
9.17919
9.0136
8.80783
8.57238
8.31638
8.0468
7.77007
7.49246
7.21966
6.95656
6.70697
6.47315
6.25503
6.04924
5.84784
5.63734
5.40577
5.17434
4.95149
4.73669
4.52933
4.3288
4.13445
3.9456
3.76149
3.5813
3.40406
3.22864
3.05361
2.87716
2.69676
2.50875
2.30728
2.08184
1.80999
1.42755
0.659336
9.42679
9.45359
9.40261
9.28832
9.12327
8.91828
8.68351
8.42804
8.1588
7.88211
7.60421
7.33081
7.06684
6.81616
6.58112
6.36178
6.15496
5.9527
5.74081
5.50725
5.27326
5.04778
4.83032
4.62029
4.41709
4.22008
4.02856
3.84177
3.65888
3.4789
3.30067
3.12274
2.94324
2.75961
2.56808
2.36264
2.13255
1.85479
1.46352
0.675953
9.52519
9.54548
9.49225
9.37798
9.21405
9.01058
8.7774
8.52344
8.2556
7.98003
7.70286
7.42975
7.16562
6.9144
6.67854
6.45834
6.25088
6.04854
5.83707
5.60285
5.36647
5.13852
4.91858
4.70609
4.50042
4.30093
4.10692
3.91763
3.7322
3.54964
3.36876
3.18809
3.00572
2.81902
2.62416
2.41499
2.18052
1.89722
1.49777
0.691894
9.60308
9.6176
9.56251
9.4484
9.28579
9.0843
8.85335
8.6017
8.33618
8.06276
7.78734
7.51545
7.25195
7.0008
6.7646
6.54389
6.33612
6.13411
5.92424
5.69211
5.45395
5.22368
5.00144
4.78666
4.5787
4.37691
4.18058
3.98895
3.80114
3.61616
3.43279
3.24954
3.06446
2.87488
2.67687
2.46419
2.22559
1.93707
1.52983
0.706813
9.65975
9.67053
9.61376
9.49975
9.33853
9.13929
8.91099
8.66229
8.40002
8.12978
7.85712
7.58736
7.32528
7.07483
6.83871
6.61776
6.40992
6.20882
6.00194
5.77409
5.53546
5.30316
5.07884
4.86196
4.65187
4.44793
4.24944
4.05562
3.86559
3.67833
3.49263
3.30696
3.11933
2.92704
2.72609
2.51011
2.26764
1.97419
1.55958
0.720575
9.69577
9.70443
9.64653
9.53279
9.37309
9.17639
8.95118
8.70582
8.44734
8.18108
7.91204
7.64526
7.38535
7.1362
6.90061
6.67971
6.47208
6.27248
6.06995
5.84882
5.61125
5.3771
5.15085
4.93199
4.71991
4.51397
4.31346
4.11759
3.92547
3.73609
3.5482
3.36025
3.17025
2.97543
2.77173
2.55267
2.30659
2.0086
1.58723
0.733427
9.71234
9.72
9.66182
9.54886
9.39093
9.19684
8.97478
8.73302
8.47873
8.21699
7.95224
7.68912
7.43204
7.1848
6.95026
6.7298
6.52261
6.32459
6.12666
5.91422
5.68119
5.44567
5.21751
4.99677
4.78281
4.57499
4.37257
4.17478
3.98072
3.78934
3.59941
3.40935
3.21713
3.01995
2.81369
2.59178
2.34239
2.04024
1.61276
0.745369
9.71084
9.71824
9.66055
9.54892
9.39307
9.20168
8.98275
8.74465
8.49478
8.23798
7.97804
7.71915
7.46549
7.22074
6.98778
6.76817
6.56164
6.36513
6.17157
5.96831
5.74383
5.50864
5.27874
5.05623
4.84052
4.63093
4.42674
4.22715
4.03127
3.83804
3.64619
3.45416
3.25988
3.06052
2.8519
2.62736
2.37492
2.06894
1.63584
0.756165
9.69295
9.70056
9.64396
9.53419
9.38088
9.19246
8.97639
8.74152
8.49641
8.24502
7.99029
7.73603
7.48624
7.24447
7.01354
6.79517
6.58946
6.39425
6.20425
6.00954
5.79674
5.56559
5.33448
5.11037
4.89302
4.68178
4.47592
4.27465
4.07707
3.8821
3.68849
3.49463
3.29845
3.09706
2.88627
2.65931
2.40407
2.09458
1.65629
0.766102
9.66066
9.66878
9.61366
9.50615
9.35564
9.17038
8.95762
8.72626
8.48543
8.23929
7.99001
7.74068
7.49507
7.25666
7.02823
6.81153
6.6069
6.41288
6.22552
6.03754
5.8371
5.61558
5.38488
5.15923
4.94032
4.72752
4.52009
4.31724
4.11807
3.92149
3.72624
3.5307
3.33276
3.12953
2.91673
2.68756
2.42973
2.11702
1.67406
0.774153
9.61593
9.62478
9.57144
9.46645
9.31899
9.13716
8.9282
8.70018
8.46277
8.22203
7.97864
7.73438
7.49312
7.25835
7.03281
6.81824
6.61514
6.42243
6.2371
6.05364
5.86334
5.65511
5.42932
5.20281
4.98245
4.76814
4.55921
4.35487
4.15421
3.95614
3.75938
3.5623
3.36277
3.15786
2.94326
2.71207
2.45191
2.13627
1.68909
0.780814
9.56058
9.57036
9.51903
9.41681
9.27265
9.09443
8.88923
8.66495
8.43151
8.19559
7.95772
7.71866
7.48184
7.25087
7.02848
6.81645
6.61536
6.42441
6.24107
6.06092
5.87734
5.68155
5.46678
5.24139
5.01951
4.80365
4.59323
4.38745
4.1854
3.98597
3.78786
3.5894
3.38846
3.18206
2.96586
2.7329
2.47068
2.15246
1.70154
0.786318
9.49617
9.50715
9.4581
9.35893
9.21834
9.04397
8.84265
8.62237
8.3933
8.16209
7.92945
7.69541
7.46298
7.23578
7.01659
6.80727
6.60858
6.4199
6.2391
6.06229
5.88384
5.69667
5.49288
5.27383
5.05144
4.83384
4.6219
4.41478
4.21148
4.01087
3.81159
3.61197
3.40982
3.20216
2.9846
2.75013
2.4862
2.16591
1.71217
0.791155
9.4238
9.43621
9.38971
9.29388
9.15712
8.98682
8.7896
8.57364
8.34929
8.12304
7.89544
7.66625
7.4381
7.21455
6.99841
6.79168
6.59529
6.40891
6.23074
6.05727
5.88332
5.70231
5.5073
5.29627
5.07628
4.85787
4.64468
4.43649
4.23225
4.03074
3.83057
3.63003
3.42692
3.21824
2.99958
2.7639
2.4986
2.17669
1.72083
0.795158
9.34407
9.35809
9.31433
9.22206
9.08939
8.92344
8.73057
8.51923
8.29997
8.07901
7.85659
7.63226
7.40839
7.18838
6.97509
6.77059
6.57603
6.39138
6.21519
6.04446
5.87453
5.69934
5.51259
5.31048
5.09337
4.87451
4.66095
4.45235
4.24764
4.04562
3.84488
3.64371
3.4399
3.23045
3.01094
2.77431
2.50791
2.18466
1.72685
0.797797
9.25734
9.27306
9.23215
9.1436
9.01523
8.85392
8.66566
8.4592
8.2454
8.03004
7.81308
7.59382
7.37432
7.15787
6.94732
6.74483
6.55172
6.36826
6.19349
6.02503
5.85897
5.69004
5.51208
5.31871
5.10312
4.88437
4.67119
4.46275
4.25802
4.05584
3.85483
3.65329
3.44903
3.23905
3.01892
2.78159
2.51437
2.19011
1.73096
0.799505
9.16389
9.18136
9.14334
9.05856
8.93462
8.77812
8.59481
8.39359
8.18537
7.97569
7.76451
7.55058
7.33561
7.12288
6.91519
6.71478
6.52313
6.34084
6.16749
6.00138
5.83936
5.6766
5.50627
5.31947
5.10642
4.88875
4.67637
4.46847
4.26404
4.06197
3.8609
3.65919
3.45465
3.24432
3.02377
2.78595
2.51818
2.19327
1.73326
0.800401
9.06389
9.08312
9.04802
8.96704
8.84755
8.69596
8.5179
8.3221
8.11937
7.91539
7.71018
7.50181
7.29156
7.08277
6.87826
6.68029
6.49046
6.30969
6.13798
5.97429
5.81615
5.65901
5.49551
5.31472
5.1048
4.88876
4.6776
4.47049
4.26652
4.06466
3.86363
3.66183
3.45712
3.24655
3.02573
2.7876
2.51949
2.19422
1.73381
0.800486
8.95739
8.97839
8.94625
8.86914
8.75415
8.60752
8.43476
8.24427
8.04703
7.8491
7.64974
7.44668
7.24126
7.03669
6.83576
6.64075
6.45339
6.27477
6.10524
5.94423
5.7899
5.63846
5.48244
5.30539
5.09883
4.88598
4.67641
4.47006
4.2664
4.06461
3.86352
3.66159
3.45672
3.24597
3.02496
2.78666
2.51839
2.19302
1.73262
0.799747
8.84429
8.86702
8.83783
8.7646
8.65414
8.51242
8.34491
8.15985
7.96825
7.77622
7.58234
7.38442
7.1839
6.98377
6.7868
6.59533
6.4112
6.23564
6.06919
5.91145
5.76078
5.61365
5.46299
5.29277
5.09479
4.88531
4.67556
4.46869
4.26453
4.06232
3.86089
3.65869
3.4536
3.24267
3.02153
2.78316
2.5149
2.18964
1.72962
0.798126
8.72459
8.74889
8.72254
8.65315
8.54726
8.41052
8.24798
8.06814
7.8823
7.69605
7.50764
7.31492
7.11932
6.92378
6.73106
6.54357
6.36324
6.19143
6.02878
5.87493
5.72816
5.58475
5.43783
5.27465
5.08771
4.8847
4.67461
4.46609
4.26064
4.05759
3.85561
3.65303
3.4477
3.23663
3.01545
2.77711
2.509
2.18407
1.72478
0.795589
8.59874
8.62441
8.60072
8.53505
8.4337
8.30205
8.14458
7.97001
7.78991
7.60928
7.42644
7.23908
7.04851
6.8577
6.6694
6.48603
6.30958
6.14148
5.98244
5.83208
5.6886
5.54818
5.40439
5.24808
5.07238
4.8779
4.66992
4.45994
4.2534
4.04962
3.84718
3.64433
3.43886
3.22778
3.00668
2.76853
2.50075
2.17638
1.71818
0.792173
8.46758
8.4946
8.47351
8.41151
8.31473
8.18831
8.03627
7.86724
7.69271
7.51751
7.34041
7.15868
6.97326
6.78724
6.60335
6.42396
6.25106
6.08612
5.92986
5.78201
5.64088
5.50302
5.36294
5.21354
5.04877
4.86472
4.65933
4.44868
4.24178
4.03777
3.83523
3.63238
3.42701
3.21611
2.99528
2.75752
2.49028
2.16672
1.70999
0.787974
8.33178
8.3602
8.34177
8.28347
8.19124
8.07013
7.92433
7.76145
7.59223
7.42234
7.25096
7.07491
6.89479
6.71363
6.53409
6.35848
6.18875
6.02637
5.87218
5.72608
5.58681
5.45162
5.31612
5.17462
5.02047
4.8462
4.6428
4.43228
4.22568
4.02198
3.81974
3.61723
3.41223
3.20176
2.98142
2.74427
2.47781
2.15535
1.70047
0.783143
8.19139
8.22127
8.20557
8.15105
8.06351
7.94786
7.80845
7.65189
7.48826
7.32399
7.15829
6.98788
6.81323
6.63708
6.46194
6.29002
6.12326
5.96316
5.81069
5.66609
5.52864
5.39642
5.26604
5.13243
4.9881
4.82215
4.6209
4.41127
4.20552
4.00258
3.80104
3.59918
3.39483
3.18502
2.9654
2.72907
2.46362
2.14254
1.68989
0.777834
8.04619
8.07748
8.06448
8.01381
7.93104
7.82101
7.68797
7.53767
7.37992
7.22152
7.06149
6.89677
6.72777
6.55683
6.38625
6.21816
6.05445
5.89668
5.74596
5.60287
5.46725
5.33794
5.21237
5.08589
4.95036
4.79234
4.59451
4.38641
4.18201
3.98023
3.7797
3.57876
3.37526
3.16629
2.94756
2.71224
2.44801
2.12857
1.67851
0.772189
7.8961
7.92866
7.91831
7.87143
7.79344
7.68902
7.56235
7.41831
7.26631
7.11372
6.95939
6.80046
6.63722
6.47163
6.30581
6.14182
5.98147
5.82636
5.6777
5.53631
5.40245
5.27558
5.15386
5.03325
4.9057
4.75682
4.56466
4.35877
4.15617
3.95585
3.75653
3.55664
3.3541
3.14606
2.92832
2.6941
2.43124
2.11364
1.66646
0.766282
7.74133
7.77495
7.76705
7.72382
7.65046
7.5515
7.43101
7.29307
7.14659
6.99942
6.85087
6.69783
6.54033
6.38015
6.2193
6.05972
5.9032
5.75127
5.6052
5.46593
5.33395
5.20912
5.0902
4.97408
4.85373
4.7144
4.53222
4.33001
4.12951
3.9307
3.73255
3.53362
3.33195
3.12479
2.908
2.67492
2.41348
2.09784
1.65375
0.760126
7.58253
7.61697
7.6113
7.57146
7.5025
7.40877
7.29411
7.16215
7.02081
6.87827
6.73544
6.58859
6.43675
6.28191
6.12609
5.97119
5.81888
5.67066
5.5278
5.39126
5.26162
5.13886
5.02205
4.90869
4.79326
4.66378
4.49941
4.30371
4.10442
3.9064
3.70885
3.51045
3.30934
3.10282
2.88683
2.65477
2.39473
2.08108
1.64027
0.753857
7.4208
7.45591
7.45229
7.41565
7.35085
7.26208
7.15294
7.02656
6.89029
6.75241
6.61453
6.4733
6.32705
6.17745
6.02662
5.87643
5.72851
5.58434
5.44515
5.31191
5.18519
5.06497
4.95035
4.83905
4.72647
4.60402
4.45622
4.27803
4.0824
3.88396
3.68604
3.48748
3.28643
3.0802
2.86476
2.63355
2.37476
2.06303
1.62548
0.747066
7.25728
7.29305
7.29143
7.25788
7.19708
7.11301
7.00908
6.88803
6.75669
6.62329
6.48985
6.35367
6.21262
6.06799
5.92194
5.77631
5.63274
5.49266
5.3573
5.2276
5.10409
4.98674
4.8746
4.76548
4.6553
4.53738
4.40222
4.24279
4.06009
3.86307
3.66376
3.46434
3.2629
3.05667
2.84154
2.61101
2.35333
2.04339
1.60913
0.739443
7.09274
7.12918
7.12953
7.099
7.042
6.96232
6.86324
6.74765
6.62138
6.49207
6.36271
6.23099
6.09462
5.95468
5.81318
5.67193
5.53254
5.39643
5.26479
5.13852
5.01811
4.90346
4.79367
4.68668
4.57897
4.46521
4.33869
4.19352
4.02622
3.83881
3.64028
3.43999
3.23811
3.0318
2.81693
2.58699
2.33034
2.02212
1.5911
0.730893
6.92762
6.96471
6.96696
6.93932
6.886
6.81058
6.71619
6.60567
6.48424
6.3592
6.23394
6.10632
5.97426
5.83875
5.7016
5.56456
5.42918
5.29686
5.16873
5.04564
4.92802
4.81574
4.70794
4.60281
4.49741
4.38763
4.26845
4.13482
3.98241
3.80823
3.61404
3.4138
3.21182
3.00556
2.79101
2.56172
2.3062
1.99986
1.57232
0.72208
6.76235
6.80008
6.80418
6.77935
6.72961
6.65838
6.56864
6.46304
6.34634
6.22565
6.10444
5.98083
5.85291
5.72162
5.58864
5.45563
5.32409
5.19535
5.07053
4.95039
4.83537
4.72534
4.61957
4.51656
4.41395
4.30854
4.19648
4.07351
3.93495
3.77542
3.58756
3.38731
3.18495
2.97859
2.76434
2.53579
2.28158
1.9775
1.55419
0.713951
6.59746
6.63592
6.64195
6.62
6.57388
6.50684
6.42175
6.32114
6.20923
6.09279
5.97553
5.85588
5.73201
5.60474
5.47572
5.34653
5.21862
5.09327
4.97153
4.85417
4.74163
4.63389
4.53041
4.43002
4.33093
4.2306
4.1258
4.01246
3.88527
3.73685
3.56073
3.36222
3.15831
2.95137
2.73713
2.50915
2.25622
1.95462
1.53614
0.706027
6.43336
6.47277
6.48092
6.46203
6.41966
6.35689
6.27645
6.18083
6.07385
5.96169
5.84823
5.73246
5.61255
5.48914
5.36389
5.23832
5.11384
4.99166
4.87281
4.75806
4.64786
4.54231
4.44106
4.34326
4.24749
4.15169
4.05298