/*--------------------------------*- C++ -*----------------------------------*\
  =========                 |
  \\      /  F ield         | OpenFOAM: The Open Source CFD Toolbox
   \\    /   O peration     | Website:  https://openfoam.org
    \\  /    A nd           | Version:  8
     \\/     M anipulation  |
\*---------------------------------------------------------------------------*/
FoamFile
{
    version     2.0;
    format      ascii;
    class       volScalarField;
    location    "0.55";
    object      nut;
}
// * * * * * * * * * * * * * * * * * * * * * * * * * * * * * * * * * * * * * //

dimensions      [0 2 -1 0 0 0 0];

internalField   nonuniform List<scalar> 
9150
(
9.83392e-06
6.69825e-06
8.12166e-06
1.41709e-05
1.70414e-05
1.70414e-05
1.41709e-05
8.12167e-06
6.69825e-06
9.83392e-06
9.72318e-06
6.02359e-06
1.0457e-05
1.5754e-05
1.5995e-05
1.5995e-05
1.57541e-05
1.0457e-05
6.02359e-06
9.72318e-06
9.53148e-06
5.77803e-06
1.36867e-05
1.62905e-05
1.5412e-05
1.5412e-05
1.62905e-05
1.36867e-05
5.77803e-06
9.53148e-06
9.31495e-06
5.68547e-06
1.69141e-05
1.63459e-05
1.51337e-05
1.51336e-05
1.63459e-05
1.69141e-05
5.68547e-06
9.31494e-06
9.07832e-06
5.65042e-06
1.96905e-05
1.62633e-05
1.50015e-05
1.50015e-05
1.62633e-05
1.96905e-05
5.65041e-06
9.07832e-06
6.0956e-06
1.33789e-05
2.02116e-05
3.04051e-05
3.5812e-05
3.5812e-05
3.04055e-05
2.02121e-05
1.33792e-05
6.09562e-06
6.43155e-06
9.83234e-06
1.57191e-05
2.62065e-05
3.1432e-05
3.1432e-05
2.62068e-05
1.57193e-05
9.83243e-06
6.43155e-06
6.99149e-06
8.52456e-06
1.24989e-05
2.20666e-05
2.67322e-05
2.67322e-05
2.20667e-05
1.2499e-05
8.52458e-06
6.99149e-06
7.56553e-06
7.7816e-06
1.03411e-05
1.86501e-05
2.26914e-05
2.26914e-05
1.86501e-05
1.03412e-05
7.7816e-06
7.56553e-06
8.27258e-06
7.2405e-06
8.94126e-06
1.59409e-05
1.93604e-05
1.93604e-05
1.5941e-05
8.94129e-06
7.24049e-06
8.27258e-06
1.48993e-05
2.8756e-05
2.45021e-05
2.94478e-05
3.59532e-05
3.59604e-05
2.94735e-05
2.45582e-05
2.88214e-05
1.49051e-05
8.11694e-06
1.27125e-05
1.81504e-05
2.80039e-05
3.58472e-05
3.58493e-05
2.80082e-05
1.81544e-05
1.27141e-05
8.11721e-06
7.66386e-06
1.18678e-05
1.81162e-05
2.82374e-05
3.63003e-05
3.63015e-05
2.82402e-05
1.81184e-05
1.18685e-05
7.66396e-06
7.23154e-06
1.1417e-05
1.81263e-05
2.8425e-05
3.6767e-05
3.67678e-05
2.84267e-05
1.81276e-05
1.14176e-05
7.23159e-06
6.70293e-06
1.17453e-05
1.81713e-05
2.87321e-05
3.70093e-05
3.70097e-05
2.8733e-05
1.8172e-05
1.17458e-05
6.70296e-06
0.000279928
0.000281411
0.000282336
0.000282822
0.000282978
0.000282977
0.000282823
0.000282346
0.000281436
0.000279973
0.00268804
0.0027159
0.00273648
0.00275025
0.00275734
0.00275745
0.00275055
0.00273698
0.00271663
0.00268904
0.00548045
0.00553167
0.00556896
0.00559339
0.00560559
0.00560576
0.0055939
0.00556983
0.00553296
0.00548223
0.00792656
0.00799245
0.00804051
0.00807198
0.00808766
0.00808788
0.00807265
0.00804165
0.00799411
0.00792882
0.00999309
0.0100677
0.0101225
0.0101586
0.0101767
0.010177
0.0101594
0.0101239
0.0100696
0.00999567
0.011725
0.0118041
0.0118628
0.0119016
0.0119211
0.0119214
0.0119025
0.0118643
0.0118063
0.0117278
0.013178
0.0132595
0.01332
0.0133603
0.0133805
0.0133808
0.0133612
0.0133216
0.0132617
0.013181
0.0144076
0.0144898
0.0145509
0.0145915
0.0146119
0.0146122
0.0145924
0.0145525
0.014492
0.0144105
0.0154611
0.0155428
0.0156037
0.0156442
0.0156645
0.0156648
0.015645
0.0156052
0.0155449
0.0154639
0.0163767
0.0164574
0.0165176
0.0165576
0.0165777
0.016578
0.0165585
0.016519
0.0164594
0.0163793
0.0171849
0.0172643
0.0173236
0.0173631
0.017383
0.0173832
0.0173639
0.017325
0.0172662
0.0171873
0.0179099
0.0179878
0.0180461
0.018085
0.0181046
0.0181048
0.0180858
0.0180474
0.0179895
0.0179122
0.0185701
0.0186465
0.0187038
0.018742
0.0187613
0.0187615
0.0187427
0.0187049
0.0186481
0.0185722
0.0191796
0.0192545
0.0193107
0.0193483
0.0193672
0.0193674
0.0193489
0.0193117
0.0192559
0.0191815
0.019749
0.0198221
0.0198772
0.0199141
0.0199326
0.0199328
0.0199146
0.0198781
0.0198234
0.0197507
0.020285
0.0203564
0.0204104
0.0204465
0.0204647
0.0204649
0.020447
0.0204112
0.0203576
0.0202866
0.0207925
0.0208622
0.0209151
0.0209505
0.0209684
0.0209685
0.020951
0.0209158
0.0208633
0.0207939
0.0212744
0.0213426
0.0213943
0.0214291
0.0214467
0.0214468
0.0214295
0.021395
0.0213436
0.0212757
0.0217324
0.0217992
0.0218499
0.0218841
0.0219014
0.0219015
0.0218845
0.0218506
0.0218002
0.0217337
0.0221677
0.022233
0.0222829
0.0223165
0.0223335
0.0223336
0.0223169
0.0222836
0.022234
0.022169
0.0225805
0.0226446
0.0226935
0.0227266
0.0227434
0.0227435
0.022727
0.0226942
0.0226456
0.0225819
0.0229709
0.0230338
0.023082
0.0231146
0.0231311
0.0231313
0.023115
0.0230827
0.0230349
0.0229724
0.0233391
0.0234008
0.0234482
0.0234804
0.0234966
0.0234968
0.0234808
0.0234489
0.0234018
0.0233404
0.023685
0.0237456
0.0237922
0.0238238
0.0238398
0.0238399
0.0238241
0.0237927
0.0237463
0.023686
0.0240087
0.024068
0.0241136
0.0241447
0.0241604
0.0241605
0.0241448
0.0241139
0.0240683
0.0240092
0.0243101
0.0243677
0.0244123
0.0244427
0.0244581
0.0244581
0.0244426
0.0244122
0.0243675
0.0243097
0.0245882
0.0246442
0.0246876
0.0247173
0.0247324
0.0247323
0.0247171
0.0246873
0.0246436
0.0245874
0.0248426
0.0248968
0.0249391
0.024968
0.0249827
0.0249825
0.0249676
0.0249384
0.0248958
0.0248412
0.0250725
0.0251249
0.025166
0.0251941
0.0252084
0.0252083
0.0251937
0.0251652
0.0251237
0.0250708
0.0252767
0.0253276
0.0253676
0.0253951
0.0254091
0.0254089
0.0253947
0.0253669
0.0253265
0.0252753
0.025455
0.0255047
0.0255438
0.0255708
0.0255845
0.0255843
0.0255704
0.0255432
0.0255039
0.025454
0.0256079
0.0256564
0.0256947
0.0257211
0.0257345
0.0257344
0.0257208
0.0256942
0.0256557
0.0256071
0.0257356
0.0257831
0.0258206
0.0258465
0.0258597
0.0258596
0.0258463
0.0258202
0.0257826
0.025735
0.025839
0.0258855
0.0259223
0.0259477
0.0259606
0.0259605
0.0259474
0.0259219
0.025885
0.0258384
0.0259189
0.0259644
0.0260004
0.0260253
0.026038
0.0260379
0.0260251
0.026
0.0259639
0.0259183
0.0259763
0.0260208
0.026056
0.0260804
0.0260929
0.0260928
0.0260802
0.0260556
0.0260202
0.0259756
0.0260121
0.0260556
0.0260901
0.026114
0.0261261
0.026126
0.0261137
0.0260897
0.026055
0.0260115
0.0260276
0.02607
0.0261036
0.0261269
0.0261388
0.0261387
0.0261266
0.0261032
0.0260694
0.0260269
0.0260236
0.0260648
0.0260975
0.0261202
0.0261318
0.0261317
0.02612
0.0260972
0.0260643
0.026023
0.0260011
0.026041
0.0260728
0.0260948
0.0261061
0.026106
0.0260946
0.0260724
0.0260406
0.0260007
0.0259609
0.0259994
0.0260301
0.0260514
0.0260623
0.0260622
0.0260512
0.0260297
0.025999
0.0259605
0.0259035
0.0259404
0.02597
0.0259905
0.0260011
0.026001
0.0259903
0.0259696
0.02594
0.025903
0.0258294
0.0258646
0.0258929
0.0259127
0.0259228
0.0259227
0.0259125
0.0258925
0.0258641
0.0258287
0.0257387
0.0257722
0.0257993
0.0258182
0.0258279
0.0258278
0.0258179
0.0257988
0.0257716
0.0257379
0.0256319
0.0256636
0.0256893
0.0257074
0.0257167
0.0257165
0.025707
0.0256887
0.0256627
0.0256307
0.0255089
0.0255388
0.0255632
0.0255804
0.0255892
0.0255891
0.0255799
0.0255624
0.0255377
0.0255073
0.0253699
0.025398
0.025421
0.0254373
0.0254457
0.0254455
0.0254368
0.0254201
0.0253966
0.0253679
0.0252149
0.0252413
0.025263
0.0252785
0.0252864
0.0252862
0.0252778
0.025262
0.0252396
0.0252126
0.0250442
0.0250689
0.0250893
0.0251039
0.0251114
0.0251112
0.0251032
0.0250882
0.0250671
0.0250417
0.0248582
0.024881
0.0249002
0.0249139
0.0249209
0.0249207
0.0249132
0.024899
0.0248792
0.0248556
0.0246569
0.024678
0.0246958
0.0247086
0.0247152
0.024715
0.0247079
0.0246946
0.0246762
0.0246543
0.0244406
0.0244598
0.0244763
0.0244882
0.0244944
0.0244941
0.0244875
0.0244751
0.024458
0.024438
0.0242092
0.0242267
0.0242418
0.0242528
0.0242585
0.0242583
0.0242521
0.0242406
0.0242248
0.0242066
0.023963
0.0239787
0.0239925
0.0240026
0.0240079
0.0240077
0.0240019
0.0239913
0.0239768
0.0239603
0.023702
0.0237161
0.0237286
0.0237379
0.0237428
0.0237426
0.0237372
0.0237274
0.0237143
0.0236994
0.0234268
0.0234393
0.0234506
0.023459
0.0234635
0.0234633
0.0234584
0.0234494
0.0234375
0.0234244
0.0231379
0.0231488
0.0231588
0.0231664
0.0231704
0.0231703
0.0231658
0.0231578
0.0231472
0.0231357
0.0228359
0.022845
0.0228538
0.0228606
0.0228641
0.022864
0.02286
0.0228529
0.0228436
0.0228339
0.0225212
0.0225286
0.022536
0.0225419
0.022545
0.0225448
0.0225414
0.0225352
0.0225273
0.0225195
0.0221944
0.0221999
0.0222059
0.0222108
0.0222134
0.0222133
0.0222103
0.0222051
0.0221987
0.0221927
0.0218558
0.0218593
0.0218638
0.0218677
0.0218699
0.0218697
0.0218672
0.021863
0.0218581
0.0218541
0.0215057
0.0215071
0.02151
0.0215129
0.0215145
0.0215144
0.0215124
0.0215092
0.0215058
0.0215039
0.0211444
0.0211436
0.0211449
0.0211467
0.0211478
0.0211476
0.0211462
0.021144
0.0211422
0.0211424
0.0207721
0.020769
0.0207686
0.0207692
0.0207698
0.0207696
0.0207687
0.0207676
0.0207675
0.0207699
0.0203888
0.0203833
0.0203812
0.0203807
0.0203807
0.0203805
0.0203801
0.0203802
0.0203817
0.0203865
0.0199946
0.0199867
0.0199828
0.0199811
0.0199805
0.0199803
0.0199805
0.0199817
0.019985
0.0199921
0.0195894
0.019579
0.0195733
0.0195705
0.0195693
0.0195691
0.0195698
0.0195721
0.0195771
0.0195866
0.019173
0.0191602
0.0191528
0.0191489
0.0191471
0.0191469
0.0191482
0.0191515
0.0191582
0.01917
0.0187453
0.0187304
0.0187213
0.0187163
0.018714
0.0187138
0.0187156
0.01872
0.0187283
0.0187422
0.0183066
0.0182896
0.018279
0.018273
0.0182703
0.01827
0.0182723
0.0182777
0.0182874
0.0183032
0.0178565
0.0178381
0.0178263
0.0178195
0.0178163
0.0178161
0.0178189
0.0178253
0.0178365
0.0178541
0.0173983
0.0173776
0.0173642
0.0173564
0.0173527
0.0173526
0.0173561
0.0173637
0.0173767
0.0173968
0.0169319
0.0169084
0.0168931
0.016884
0.0168798
0.0168798
0.016884
0.0168929
0.0169081
0.0169312
0.0164568
0.0164302
0.0164127
0.0164022
0.0163974
0.0163975
0.0164024
0.0164129
0.0164303
0.0164567
0.0159721
0.0159423
0.0159225
0.0159106
0.0159052
0.0159053
0.015911
0.0159231
0.0159429
0.0159726
0.0154774
0.0154443
0.015422
0.0154086
0.0154025
0.0154027
0.0154092
0.0154229
0.0154453
0.0154785
0.0149721
0.0149354
0.0149107
0.0148957
0.0148887
0.014889
0.0148964
0.0149119
0.0149369
0.0149737
0.0144555
0.0144152
0.0143879
0.0143712
0.0143635
0.0143638
0.0143721
0.0143894
0.0144172
0.0144577
0.0139274
0.0138832
0.0138531
0.0138346
0.0138261
0.0138265
0.0138358
0.0138549
0.0138856
0.0139302
0.0133873
0.0133391
0.0133059
0.0132856
0.0132761
0.0132766
0.0132869
0.0133081
0.0133419
0.0133907
0.0128351
0.0127823
0.012746
0.0127236
0.0127131
0.0127137
0.0127251
0.0127484
0.0127855
0.0128389
0.0122702
0.0122126
0.0121728
0.0121481
0.0121366
0.0121372
0.0121498
0.0121755
0.0122163
0.0122746
0.0116926
0.0116297
0.011586
0.0115589
0.0115462
0.0115469
0.0115607
0.011589
0.0116337
0.0116975
0.011102
0.0110332
0.0109852
0.0109553
0.0109414
0.0109421
0.0109574
0.0109885
0.0110376
0.0111073
0.0104983
0.0104227
0.0103699
0.010337
0.0103216
0.0103224
0.0103392
0.0103735
0.0104275
0.010504
0.00988116
0.00979809
0.0097398
0.0097034
0.00968635
0.00968718
0.00970582
0.00974367
0.00980319
0.00988726
0.00925058
0.00915888
0.00909432
0.00905392
0.00903497
0.00903586
0.00905651
0.00909844
0.00916428
0.00925699
0.00860645
0.00850478
0.00843294
0.0083879
0.00836675
0.00836769
0.00839065
0.00843729
0.00851044
0.00861311
0.00794882
0.00783551
0.00775512
0.00770462
0.00768087
0.00768187
0.00770751
0.00775967
0.00784137
0.00795562
0.0072779
0.00715089
0.00706034
0.00700332
0.00697647
0.00697751
0.00700634
0.00706505
0.00715687
0.00728473
0.00659425
0.00645101
0.00634823
0.00628331
0.00625269
0.00625378
0.00628645
0.00635305
0.00645703
0.00660097
0.00589903
0.00573652
0.00561886
0.00554417
0.00550886
0.00550999
0.0055474
0.00562373
0.00574245
0.00590548
0.00519442
0.00500915
0.0048732
0.00478617
0.00474484
0.00474601
0.00478946
0.00487804
0.00501487
0.00520043
0.00448432
0.00427265
0.00411411
0.00401105
0.00396168
0.00396288
0.00401437
0.00411885
0.00427803
0.00448973
0.00377546
0.0035345
0.00334814
0.0032236
0.00316285
0.00316409
0.00322692
0.00335269
0.00353942
0.00378016
0.00307911
0.00280836
0.00258857
0.00243462
0.00235693
0.00235819
0.00243792
0.00259288
0.00281281
0.00308314
0.00241389
0.00211679
0.00185942
0.00166665
0.00156396
0.00156526
0.00166991
0.00186348
0.00212086
0.00241756
0.00180949
0.00148829
0.00119549
0.000964152
0.000833618
0.000834889
0.000967165
0.00119917
0.00149216
0.00181336
0.00129466
0.000928157
0.000625795
0.000404251
0.000283951
0.000284839
0.00040634
0.000628497
0.000931377
0.00129879
0.000723632
0.000378596
0.000184966
8.92264e-05
5.85886e-05
5.87513e-05
8.97741e-05
0.000185883
0.000379774
0.000725151
0.000277625
0.000274287
0.00026986
0.000264316
0.000257747
0.000250336
0.000242571
0.000235341
0.000228315
0.000221424
0.000214706
0.000208233
0.000202061
0.000196224
0.000190729
0.000185555
0.000180658
0.000175978
0.000171447
0.000167003
0.00016259
0.000158162
0.000153685
0.00014913
0.000144481
0.000139722
0.000134846
0.000129845
0.000124712
0.000119439
0.000114011
0.000108408
0.000102596
9.65114e-05
8.99385e-05
8.27043e-05
7.50601e-05
6.62965e-05
5.70652e-05
2.20835e-05
0.00265131
0.00260033
0.00253799
0.00246574
0.00238621
0.00230106
0.00220641
0.00210083
0.00199874
0.00190737
0.00182949
0.00176488
0.00171167
0.00166753
0.00163017
0.00159737
0.00156699
0.0015372
0.00150668
0.00147451
0.00144013
0.0014033
0.00136398
0.00132234
0.00127862
0.00123316
0.00118628
0.0011383
0.00108946
0.00103993
0.000989718
0.000938678
0.00088637
0.000831929
0.000773701
0.000707776
0.000625663
0.000504418
0.000300801
3.62945e-05
0.00541209
0.00531665
0.0051988
0.00505986
0.00490364
0.00473495
0.00455495
0.00436499
0.00417856
0.00400382
0.00384554
0.00370515
0.00358166
0.00347308
0.00337683
0.0032898
0.00320878
0.003131
0.00305426
0.00297685
0.00289757
0.00281566
0.00273073
0.0026427
0.00255166
0.00245783
0.00236145
0.00226274
0.00216179
0.00205846
0.00195229
0.00184224
0.00172639
0.0016013
0.00146094
0.00129496
0.00108645
0.000809735
0.000435463
4.60077e-05
0.00783886
0.0077169
0.00756646
0.00738767
0.00718374
0.00696351
0.0067294
0.00648311
0.00623758
0.00600035
0.00577712
0.00557101
0.0053824
0.00521032
0.00505281
0.00490693
0.00476945
0.00463758
0.0045089
0.00438132
0.00425329
0.0041237
0.00399184
0.00385728
0.00371978
0.00357923
0.00343548
0.0032883
0.00313726
0.00298154
0.00281971
0.00264947
0.00246709
0.00226671
0.0020393
0.00177141
0.0014441
0.00103382
0.000525816
5.27452e-05
0.00989466
0.00975913
0.00959305
0.00939366
0.00916198
0.00891074
0.00864561
0.00836692
0.00808087
0.00779882
0.00752718
0.00727067
0.00703036
0.0068057
0.0065954
0.00639705
0.00620789
0.00602559
0.00584775
0.0056722
0.00549732
0.00532188
0.00514497
0.00496592
0.00478418
0.00459923
0.00441046
0.00421707
0.00401794
0.00381139
0.00359497
0.00336509
0.00311647
0.00284152
0.00252956
0.00216601
0.0017324
0.00120911
0.00059393
5.77846e-05
0.0116218
0.0114819
0.0113133
0.0111064
0.0108567
0.0105825
0.0102948
0.009996
0.00968921
0.00937911
0.00907299
0.00877901
0.00850034
0.00823588
0.00798454
0.00774439
0.00751303
0.00728835
0.00706795
0.00685002
0.00663316
0.00641614
0.00619796
0.00597783
0.00575493
0.00552839
0.00529711
0.00505971
0.00481436
0.00455858
0.00428895
0.00400079
0.0036877
0.00334101
0.00294926
0.00249792
0.00197007
0.0013506
0.000648199
6.17291e-05
0.0130726
0.0129306
0.0127599
0.0125471
0.0122908
0.0120084
0.0117085
0.0113956
0.0110735
0.0107466
0.0104215
0.0101043
0.00979789
0.00950252
0.00921854
0.00894686
0.00868449
0.00842695
0.00817201
0.00791872
0.00766589
0.00741243
0.00715757
0.00690044
0.00663997
0.00637495
0.00610386
0.00582477
0.00553523
0.00523203
0.00491098
0.0045666
0.00419171
0.00377709
0.00331115
0.00278002
0.00216885
0.00146703
0.000692464
6.50001e-05
0.0143013
0.014158
0.0139839
0.0137705
0.013518
0.0132358
0.0129316
0.0126114
0.0122802
0.0119429
0.0116047
0.0112704
0.0109431
0.0106247
0.0103165
0.010019
0.00972978
0.0094455
0.00916502
0.00888484
0.00860241
0.00831772
0.00803078
0.00774074
0.00744635
0.00714604
0.0068379
0.00651955
0.006188
0.00583947
0.00546921
0.00507115
0.0046377
0.00415947
0.00362515
0.00302193
0.00233724
0.00156465
0.000729656
6.77883e-05
0.0153553
0.0152128
0.0150385
0.0148274
0.0145798
0.0143004
0.0139963
0.0136738
0.0133383
0.0129948
0.0126482
0.0123026
0.0119611
0.011626
0.0112986
0.0109791
0.0106666
0.0103596
0.0100566
0.00975414
0.00944954
0.00914017
0.00882535
0.00850618
0.00818123
0.00784863
0.00750611
0.00715092
0.00677964
0.00638809
0.00597108
0.00552224
0.00503379
0.00449646
0.00389952
0.00323143
0.00248188
0.0016482
0.000761923
7.02262e-05
0.0162723
0.016132
0.0159602
0.0157527
0.0155093
0.0152334
0.0149311
0.0146088
0.0142718
0.013925
0.0135731
0.0132199
0.0128685
0.0125213
0.0121796
0.0118438
0.0115134
0.0111873
0.0108637
0.0105407
0.0102161
0.0098868
0.0095495
0.00920448
0.00885192
0.00848969
0.00811527
0.00772558
0.00731691
0.00688475
0.00642366
0.00592711
0.00538735
0.00479542
0.00414135
0.00341497
0.00260813
0.00172137
0.000790821
7.2413e-05
0.0170822
0.0169448
0.0167766
0.0165729
0.0163328
0.01606
0.0157602
0.015439
0.0151019
0.0147534
0.0143982
0.0140399
0.0136816
0.0133255
0.0129731
0.0126249
0.0122808
0.0119397
0.0116002
0.0112603
0.0109175
0.0105689
0.0102109
0.00984303
0.00946539
0.0090759
0.00867185
0.00824995
0.00780622
0.00733595
0.00683354
0.00629243
0.00570504
0.00506284
0.00435672
0.00357786
0.00272016
0.00178684
0.000817422
7.44348e-05
0.0178092
0.0176747
0.0175101
0.0173092
0.0170717
0.0168015
0.0165038
0.016184
0.0158472
0.0154978
0.0151404
0.0147785
0.0144151
0.0140526
0.0136923
0.0133348
0.01298
0.0126271
0.0122746
0.0119204
0.0115619
0.0111957
0.010818
0.0104289
0.0100281
0.00961346
0.00918193
0.00873004
0.0082536
0.00774775
0.00720681
0.00662426
0.00599276
0.00530429
0.0045506
0.00372421
0.00282081
0.001846
0.000841935
7.63661e-05
0.0184714
0.0183397
0.018178
0.0179792
0.0177437
0.0174753
0.0171791
0.0168602
0.0165234
0.0161732
0.015814
0.0154493
0.0150821
0.0147147
0.0143484
0.0139839
0.0136208
0.0132585
0.0128952
0.0125286
0.0121556
0.0117728
0.0113769
0.0109681
0.0105461
0.0101082
0.00965117
0.00917141
0.00866454
0.00812557
0.00754878
0.00692776
0.00625542
0.00552424
0.00472675
0.00385662
0.00291116
0.00189802
0.000862434
7.83565e-05
0.0190829
0.018954
0.0187948
0.0185975
0.018363
0.0180955
0.0177998
0.0174808
0.0171435
0.0167921
0.0164309
0.0160637
0.0156934
0.015322
0.014951
0.0145809
0.0142113
0.0138412
0.0134686
0.0130908
0.0127046
0.0123061
0.0118931
0.0114664
0.0110248
0.0105654
0.0100849
0.0095794
0.00904435
0.0084747
0.00786476
0.0072082
0.0064982
0.00572772
0.00489003
0.00397983
0.00299585
0.00194758
0.000882752
8.03278e-05
0.0196547
0.0195284
0.0193702
0.0191737
0.0189396
0.018672
0.0183758
0.0180558
0.0177171
0.017364
0.0170007
0.016631
0.0162577
0.015883
0.0155082
0.0151335
0.0147584
0.0143815
0.0140006
0.0136128
0.0132143
0.0128007
0.0123719
0.0119288
0.0114693
0.0109902
0.010488
0.00995868
0.00939762
0.00879969
0.00815919
0.00746991
0.00672531
0.00591875
0.00504417
0.0040972
0.00307775
0.00199681
0.000903953
8.23021e-05
0.020193
0.0200695
0.0199121
0.0197152
0.0194803
0.0192116
0.0189139
0.0185922
0.0182515
0.0178961
0.0175305
0.0171583
0.0167824
0.0164048
0.0160266
0.015648
0.015268
0.0148852
0.0144968
0.0140995
0.013689
0.0132611
0.0128181
0.01236
0.0118839
0.0113866
0.0108644
0.0103132
0.00972816
0.0091042
0.00843561
0.00771628
0.00693988
0.00610017
0.00519163
0.00421064
0.00315806
0.002046
0.00092549
8.42662e-05
0.0207026
0.0205816
0.0204243
0.0202261
0.0199896
0.019719
0.0194191
0.0190952
0.0187519
0.0183941
0.018026
0.0176513
0.017273
0.0168928
0.0165117
0.0161296
0.0157454
0.015357
0.0149616
0.014555
0.0141323
0.0136916
0.0132357
0.0127636
0.0122722
0.0117581
0.0112175
0.0106461
0.010039
0.00939114
0.00869671
0.00794975
0.00714411
0.00627386
0.00533391
0.00432125
0.00323747
0.00209553
0.000947628
8.62265e-05
0.0211867
0.0210679
0.0209101
0.0207102
0.0204712
0.0201979
0.0198952
0.0195684
0.0192223
0.0188619
0.0184913
0.0181144
0.0177338
0.0173513
0.0169676
0.0165824
0.0161942
0.0158007
0.0153985
0.0149828
0.0145477
0.0140951
0.0136276
0.0131426
0.0126371
0.0121076
0.01155
0.0109599
0.0103326
0.00966265
0.00894445
0.00817204
0.00733942
0.00644091
0.00547177
0.00442947
0.00331614
0.0021454
0.000970346
8.81826e-05
0.021647
0.0215301
0.0213715
0.0211694
0.0209275
0.0206509
0.0203449
0.0200149
0.0196659
0.0193027
0.0189298
0.0185507
0.0181681
0.0177836
0.0173976
0.0170096
0.0166176
0.016219
0.0158096
0.0153843
0.0149381
0.0144751
0.0139966
0.0134997
0.0129811
0.0124372
0.0118639
0.0112567
0.0106106
0.00992031
0.00918015
0.00838421
0.0075266
0.00660182
0.00560541
0.00453518
0.00339374
0.00219523
0.000993478
9.01317e-05
0.0220843
0.0219691
0.0218095
0.021605
0.0213599
0.0210798
0.0207702
0.0204369
0.0200849
0.0197191
0.0193439
0.0189629
0.0185785
0.0181922
0.0178042
0.0174136
0.017018
0.0166143
0.0161976
0.0157624
0.0153061
0.0148336
0.0143448
0.0138368
0.013306
0.0127488
0.0121609
0.0115378
0.0108743
0.0101652
0.00940469
0.0085869
0.00770603
0.0067567
0.00573464
0.00463791
0.00346945
0.00224383
0.00101567
9.20281e-05
0.0224991
0.0223854
0.0222245
0.0220174
0.021769
0.0214853
0.0211723
0.0208358
0.020481
0.0201128
0.0197357
0.0193529
0.0189669
0.0185789
0.018189
0.0177957
0.0173966
0.0169877
0.016564
0.0161193
0.0156536
0.0151722
0.0146738
0.0141554
0.0136133
0.0130436
0.0124422
0.0118043
0.0111247
0.0103981
0.0096186
0.00878047
0.00787787
0.00690552
0.00585928
0.00473741
0.0035431
0.0022913
0.00103748
9.38731e-05
0.0228914
0.0227788
0.0226166
0.0224069
0.0221554
0.0218683
0.0215522
0.0212128
0.0208555
0.0204853
0.0201063
0.0197219
0.0193345
0.0189449
0.018553
0.018157
0.0177544
0.0173407
0.0169105
0.0164559
0.0159815
0.015492
0.0149848
0.0144566
0.0139039
0.0133227
0.0127087
0.0120569
0.0113623
0.0106193
0.00982221
0.00896507
0.00804213
0.00704817
0.00597916
0.00483348
0.00361455
0.0023376
0.00105886
9.56634e-05
0.0232611
0.0231493
0.0229857
0.0227736
0.0225192
0.0222293
0.0219105
0.0215687
0.0212093
0.0208373
0.0204567
0.0200709
0.0196821
0.0192909
0.018897
0.0184984
0.0180921
0.0176735
0.0172363
0.0167734
0.0162916
0.0157944
0.0152788
0.0147415
0.0141789
0.0135868
0.0129609
0.0122962
0.0115876
0.0108293
0.0100157
0.00914071
0.0081987
0.00718445
0.006094
0.00492588
0.00368366
0.00238286
0.00108015
9.74125e-05
0.0236082
0.0234966
0.0233316
0.0231174
0.0228608
0.0225687
0.0222478
0.0219042
0.0215431
0.0211696
0.0207876
0.0204006
0.0200103
0.0196176
0.0192218
0.0188207
0.0184108
0.0179873
0.0175437
0.0170735
0.0165847
0.0160801
0.0155566
0.0150107
0.0144387
0.0138365
0.0131994
0.0125226
0.0118007
0.0110282
0.010199
0.00930732
0.00834738
0.00731401
0.00620332
0.00501393
0.00374958
0.00242598
0.00110033
9.90823e-05
0.0239328
0.0238207
0.0236544
0.0234387
0.0231806
0.0228869
0.0225646
0.0222196
0.0218573
0.0214826
0.0210995
0.0207112
0.0203197
0.0199254
0.0195277
0.019124
0.0187107
0.0182826
0.0178331
0.0173563
0.0168612
0.0163496
0.0158186
0.0152647
0.0146839
0.014072
0.0134245
0.0127363
0.012002
0.011216
0.0103722
0.00946481
0.00848798
0.00743656
0.00630671
0.00509714
0.00381172
0.00246643
0.00111915
0.000100665
0.0242347
0.0241214
0.023954
0.0237375
0.0234785
0.0231841
0.0228609
0.0225151
0.022152
0.0217764
0.0213923
0.021003
0.0206101
0.0202143
0.0198146
0.0194084
0.0189918
0.0185595
0.0181048
0.0176224
0.0171213
0.0166033
0.0160653
0.0155037
0.0149147
0.0142938
0.0136364
0.0129375
0.0121915
0.0113928
0.0105353
0.00961314
0.0086204
0.00755195
0.00640398
0.00517522
0.00386966
0.00250352
0.00113557
0.000102113
0.0245135
0.0243982
0.0242299
0.0240131
0.0237541
0.0234595
0.0231362
0.0227902
0.0224268
0.0220507
0.021666
0.0212757
0.0208816
0.0204843
0.0200826
0.019674
0.0192546
0.0188187
0.0183595
0.0178721
0.0173655
0.0168415
0.016297
0.0157282
0.0151314
0.014502
0.0138354
0.0131263
0.0123694
0.0115588
0.0106884
0.00975234
0.00874467
0.00766025
0.00649527
0.00524853
0.00392412
0.00253854
0.0011514
0.000103479
0.0247684
0.0246512
0.0244821
0.0242652
0.0240066
0.0237126
0.0233897
0.0230441
0.022681
0.0223049
0.0219199
0.021529
0.021134
0.0207352
0.0203318
0.019921
0.0194991
0.0190604
0.0185976
0.0181058
0.0175941
0.0170646
0.0165139
0.0159384
0.0153342
0.0146968
0.0140215
0.013303
0.0125357
0.011714
0.0108316
0.00988248
0.00886087
0.00776154
0.00658071
0.00531723
0.00397531
0.00257171
0.00116663
0.00010477
0.0249989
0.0248797
0.02471
0.0244935
0.0242357
0.0239427
0.0236209
0.0232763
0.022914
0.0225384
0.0221536
0.0217624
0.0213667
0.0209669
0.020562
0.0201496
0.0197257
0.0192848
0.0188195
0.0183242
0.0178078
0.0172729
0.0167164
0.0161346
0.0155234
0.0148785
0.0141949
0.0134675
0.0126907
0.0118585
0.0109648
0.0100036
0.00896904
0.00785587
0.00666033
0.00538135
0.00402325
0.00260299
0.0011813
0.000105997
0.0252043
0.0250835
0.0249135
0.0246976
0.024441
0.0241494
0.0238292
0.0234861
0.0231252
0.0227507
0.0223666
0.0219756
0.0215796
0.0211791
0.0207731
0.0203593
0.0199339
0.0194915
0.0190248
0.0185274
0.0180066
0.0174666
0.0169046
0.0163168
0.0156991
0.0150471
0.0143559
0.0136202
0.0128343
0.0119924
0.0110882
0.0101158
0.0090692
0.00794321
0.00673407
0.00544075
0.00406765
0.00263189
0.00119467
0.000107134
0.025384
0.0252626
0.0250926
0.0248775
0.0246223
0.0243325
0.0240142
0.0236732
0.0233143
0.0229415
0.0225587
0.0221684
0.0217726
0.0213717
0.0209649
0.0205501
0.0201236
0.0196804
0.0192132
0.0187151
0.0181907
0.017646
0.0170788
0.0164853
0.0158615
0.0152029
0.0145044
0.0137609
0.0129667
0.0121157
0.0112019
0.0102191
0.00916137
0.00802356
0.0068019
0.00549537
0.00410843
0.00265832
0.00120666
0.000108172
0.0255381
0.0254168
0.0252473
0.0250333
0.0247798
0.0244922
0.0241763
0.0238377
0.0234813
0.0231108
0.0227298
0.0223407
0.0219455
0.0215446
0.0211374
0.0207219
0.0202948
0.0198513
0.0193847
0.0188874
0.0183604
0.0178112
0.017239
0.0166403
0.0160107
0.0153458
0.0146407
0.0138899
0.0130879
0.0122286
0.0113059
0.0103135
0.00924557
0.00809693
0.00686382
0.00554524
0.0041457
0.00268256
0.00121784
0.000109128
0.0256672
0.0255465
0.0253781
0.0251656
0.0249141
0.024629
0.0243158
0.0239799
0.0236264
0.0232587
0.0228799
0.0224926
0.0220984
0.021698
0.0212907
0.0208749
0.0204474
0.0200041
0.0195386
0.0190435
0.0185156
0.0179623
0.0173855
0.0167817
0.0161468
0.0154761
0.0147647
0.0140073
0.0131981
0.0123311
0.0114001
0.010399
0.0093218
0.00816332
0.00691983
0.00559037
0.00417951
0.00270472
0.00122831
0.000110014
0.0257718
0.0256523
0.0254854
0.0252749
0.0250258
0.0247433
0.024433
0.0241003
0.0237499
0.0233854
0.0230094
0.0226242
0.0222315
0.0218319
0.0214249
0.021009
0.0205815
0.0201385
0.0196744
0.0191821
0.0186558
0.0180994
0.0175182
0.0169097
0.0162697
0.0155936
0.0148765
0.0141129
0.0132971
0.0124231
0.0114847
0.0104757
0.00939005
0.0082227
0.00696987
0.00563064
0.00420962
0.00272438
0.00123746
0.000110805
0.0258529
0.0257349
0.0255699
0.0253618
0.0251155
0.0248361
0.0245287
0.0241991
0.0238525
0.0234916
0.0231187
0.022736
0.0223451
0.0219466
0.0215403
0.0211246
0.0206972
0.0202545
0.0197917
0.0193025
0.0187797
0.0182223
0.0176372
0.0170243
0.0163796
0.0156985
0.0149761
0.0142069
0.0133851
0.0125048
0.0115597
0.0105435
0.00945033
0.00827505
0.00701389
0.00566595
0.00423586
0.00274124
0.00124486
0.000111537
0.0259115
0.0257953
0.0256326
0.0254273
0.025184
0.0249079
0.0246039
0.0242778
0.0239348
0.0235777
0.0232083
0.0228285
0.0224397
0.0220427
0.0216373
0.0212221
0.0207949
0.0203525
0.0198907
0.0194041
0.0188857
0.0183304
0.0177424
0.0171254
0.0164764
0.0157908
0.0150635
0.0142892
0.0134621
0.0125761
0.0116249
0.0106024
0.00950262
0.00832035
0.0070519
0.00569637
0.00425843
0.00275579
0.00125157
0.00011213
0.0259487
0.0258346
0.0256746
0.0254723
0.0252324
0.0249599
0.0246597
0.0243371
0.0239976
0.0236446
0.0232791
0.0229023
0.0225159
0.0221207
0.0217164
0.021302
0.0208752
0.0204332
0.0199721
0.0194873
0.0189727
0.0184219
0.0178333
0.0172129
0.01656
0.0158703
0.0151387
0.0143599
0.013528
0.012637
0.0116806
0.0106525
0.00954691
0.00835859
0.00708385
0.00572181
0.00427717
0.00276773
0.00125695
0.000112618
0.0259657
0.0258539
0.0256967
0.0254978
0.0252617
0.024993
0.0246967
0.024378
0.0240424
0.0236934
0.0233318
0.0229584
0.0225745
0.0221813
0.0217784
0.021365
0.0209388
0.0204973
0.0200368
0.0195531
0.0190411
0.0184949
0.0179095
0.0172868
0.0166304
0.015937
0.0152016
0.0144189
0.0135828
0.0126875
0.0117265
0.0106938
0.00958324
0.00838982
0.0071098
0.00574233
0.00429212
0.00277702
0.0012608
0.000113016
0.0259635
0.0258542
0.0257003
0.025505
0.0252728
0.0250083
0.0247162
0.0244016
0.0240702
0.0237253
0.0233676
0.0229976
0.0226165
0.0222253
0.021824
0.0214116
0.0209863
0.0205454
0.0200856
0.0196029
0.0190927
0.0185495
0.0179679
0.0173461
0.0166872
0.0159906
0.0152521
0.014466
0.0136266
0.0127276
0.0117629
0.0107263
0.00961176
0.00841424
0.00713006
0.00575837
0.00430396
0.00278475
0.00126469
0.000113367
0.025943
0.0258365
0.025686
0.0254946
0.0252666
0.0250065
0.0247188
0.0244087
0.0240817
0.0237412
0.0233875
0.023021
0.0226427
0.0222536
0.0218539
0.0214425
0.0210179
0.0205776
0.0201185
0.0196367
0.0191277
0.0185866
0.018008
0.0173887
0.0167295
0.016031
0.0152901
0.0145014
0.0136593
0.0127575
0.0117899
0.0107503
0.00963276
0.00843219
0.00714495
0.00577027
0.00431296
0.00279099
0.00126814
0.000113658
0.0259049
0.0258013
0.0256544
0.0254672
0.0252437
0.0249882
0.0247051
0.0243997
0.0240775
0.0237415
0.023392
0.023029
0.0226537
0.0222669
0.0218687
0.0214584
0.0210344
0.0205945
0.0201357
0.0196545
0.0191467
0.0186075
0.0180321
0.0174164
0.0167579
0.0160583
0.0153158
0.0145254
0.0136814
0.0127777
0.0118081
0.0107664
0.00964673
0.00844409
0.00715483
0.00577815
0.00431885
0.00279483
0.00126976
0.000113854
0.0258496
0.0257491
0.025606
0.0254231
0.0252042
0.0249536
0.0246754
0.0243749
0.0240577
0.0237264
0.0233813
0.0230223
0.02265
0.0222656
0.0218691
0.02146
0.0210367
0.0205972
0.0201389
0.0196585
0.0191521
0.0186155
0.0180439
0.017432
0.0167738
0.0160734
0.0153302
0.0145389
0.0136937
0.0127888
0.011818
0.0107751
0.00965434
0.00845059
0.00716027
0.00578257
0.00432224
0.00279715
0.00127093
0.000113981
0.0257775
0.0256802
0.025541
0.0253625
0.0251485
0.0249029
0.0246298