/*--------------------------------*- C++ -*----------------------------------*\
  =========                 |
  \\      /  F ield         | OpenFOAM: The Open Source CFD Toolbox
   \\    /   O peration     | Website:  https://openfoam.org
    \\  /    A nd           | Version:  8
     \\/     M anipulation  |
\*---------------------------------------------------------------------------*/
FoamFile
{
    version     2.0;
    format      ascii;
    class       volScalarField;
    location    "0.55";
    object      p;
}
// * * * * * * * * * * * * * * * * * * * * * * * * * * * * * * * * * * * * * //

dimensions      [1 -1 -2 0 0 0 0];

internalField   nonuniform List<scalar> 
9150
(
363.582
336.689
311.097
293.782
285.361
285.361
293.781
311.097
336.688
363.581
334.713
315.237
299.49
287.611
281.555
281.555
287.611
299.49
315.237
334.713
305.433
291.916
283.283
275.49
271.333
271.333
275.49
283.283
291.916
305.433
280.704
270.733
265.173
259.795
256.795
256.795
259.794
265.173
270.733
280.704
259.402
250.547
245.853
241.665
239.202
239.202
241.665
245.853
250.547
259.402
-2.55569
-6.86032
17.9629
31.6602
37.728
37.7271
31.6578
17.9592
-6.86552
-2.56281
167.549
143.297
137.693
135.964
135.553
135.553
135.963
137.691
143.294
167.546
271.913
240.44
224.321
214.077
209.02
209.02
214.076
224.32
240.439
271.912
352.232
310.026
282.056
264.481
255.718
255.718
264.481
282.056
310.025
352.231
402.124
349.931
311.282
289.085
278.769
278.769
289.085
311.282
349.931
402.124
-89.1956
-49.1791
-57.334
-51.199
-55.9143
-55.9298
-51.2115
-57.3674
-49.2268
-89.262
-82.0021
-61.0413
-80.3864
-72.5334
-76.2275
-76.2376
-72.5296
-80.4186
-61.0717
-82.051
-125.278
-92.3752
-122.527
-115.517
-112.046
-112.049
-115.522
-122.548
-92.4012
-125.309
-304.003
-177.99
-159.452
-141.432
-125.677
-125.679
-141.44
-159.467
-178.002
-304.033
-444.336
-208.705
-111.999
-82.4009
-67.3709
-67.3723
-82.4056
-112.006
-208.714
-444.358
1843.13
1990.23
2103.65
2180.1
2218.16
2218.93
2182.43
2107.56
1995.64
1849.87
1282.81
1409.13
1510.46
1582.23
1621.19
1622
1584.56
1514.15
1414.05
1288.74
776.468
862.83
931.908
979.894
1004.83
1005.36
981.456
934.434
866.218
780.518
646.781
684.722
719.708
744.854
757.81
758.056
745.587
720.89
686.182
648.071
802.691
752.152
734.098
728.845
727.109
726.945
728.323
733.006
749.743
797.849
1006.87
896.692
832.066
803.711
792.144
791.748
802.442
829.399
891.321
999.51
1093.71
1009.38
925.871
886.716
872.092
871.786
885.66
923.47
1005.31
1092.78
1038.3
1068.25
991.133
946.747
931.58
931.206
945.264
987.476
1063.48
1045.89
918.898
1064.2
1013
971.995
959.012
959.017
971.771
1012.16
1064.9
930.966
781.262
1023.31
1005.69
972.032
961.761
961.944
972.388
1006.32
1027.58
797.436
656.293
979.601
999.226
968.823
957.607
957.443
967.936
998.006
985.141
675.317
527.513
926.838
998.449
968.621
953.006
952.793
967.619
997.481
933.925
545.647
430.474
870.092
986.477
960.068
941.354
941.181
959.296
986.528
879.74
447.444
346.094
803.313
963.509
943.595
923.038
922.959
943.241
964.774
814.962
362.242
276.981
735.035
933.653
921.726
900.099
900.03
921.605
935.903
747.47
290.506
224.043
667.23
898.379
897.802
875.556
875.137
897.007
901.721
681.37
235.556
181.504
596.471
858.198
874.844
852.381
851.869
873.868
861.396
609.66
191.468
147.852
536.155
817.759
847.678
825.7
825.118
846.612
821.265
549.335
156.741
119.633
478.176
774.684
817.652
796.666
796.028
816.525
778.418
491.014
127.353
97.1445
425.292
731.032
785.781
766.008
765.369
784.748
735.118
437.722
103.744
79.434
377.006
686.426
751.554
733.31
732.704
750.696
690.853
388.845
84.9212
65.8694
333.598
641.52
715.306
698.802
698.247
714.654
646.211
344.671
70.2978
55.7443
295.091
596.874
677.362
662.697
662.192
676.885
601.665
305.211
59.1969
48.3201
261.263
552.988
638.116
625.288
624.835
637.789
557.741
270.335
50.9228
43.1063
231.68
510.06
597.824
586.806
586.43
597.716
514.807
239.709
44.8619
39.7186
205.361
467.679
556.397
547.271
547.053
556.77
472.842
212.754
40.6052
37.809
182.374
426.542
514.472
507.09
506.949
515.036
431.581
188.694
37.868
35.9477
162.12
387.561
472.971
466.957
466.776
473.304
391.789
167.5
36.1108
34.4606
143.919
350.059
431.703
426.987
426.878
432.185
354.086
148.74
34.3937
33.2312
127.883
314.226
390.934
387.429
387.362
391.522
317.887
131.834
32.9631
31.9577
113.726
279.947
351.115
348.937
348.778
351.703
283.341
116.815
31.7308
30.648
100.925
247.925
312.771
311.52
311.35
313.028
250.41
103.444
30.4721
29.3509
89.219
217.585
275.675
275.119
274.971
275.899
219.726
91.3445
29.1814
28.0916
78.5167
188.931
239.986
239.921
239.788
240.157
190.712
80.2607
27.9127
26.8813
68.6945
161.873
205.758
206.032
205.924
205.909
163.352
70.1031
26.6914
25.7114
59.6505
136.358
173.053
173.534
173.448
173.178
137.544
60.7498
25.5249
24.5818
51.2882
112.326
141.918
142.503
142.434
142.01
113.238
52.1203
24.4084
23.5005
43.5441
89.7234
112.385
112.996
112.94
112.434
90.3598
44.1156
23.3442
22.4773
36.3408
68.4795
84.4653
85.0515
85.0048
84.4747
68.879
36.69
22.3243
21.508
29.6181
48.534
58.1624
58.6964
58.6592
58.1329
48.6981
29.7333
21.3384
20.5724
23.3109
29.8331
33.471
33.9416
33.9128
33.4072
29.7928
23.2204
20.3803
19.6586
17.3721
12.3211
10.3702
10.7817
10.7581
10.2706
12.0934
17.0957
19.4493
18.7696
11.759
-4.06456
-11.172
-10.806
-10.8268
-11.3058
-4.46078
11.3184
18.5459
17.9075
6.43674
-19.3783
-31.1923
-30.8418
-30.8596
-31.3514
-19.9179
5.84818
17.6651
17.0619
1.37023
-33.6623
-49.7222
-49.3572
-49.3711
-49.9004
-34.3188
0.65626
16.801
16.2164
-3.47557
-46.963
-66.8048
-66.3929
-66.4036
-66.9976
-47.7142
-4.29122
15.9463
15.3771
-8.11828
-59.327
-82.4941
-82.0015
-82.01
-82.699
-60.1534
-9.01054
15.1106
14.5661
-12.5612
-70.8003
-96.8508
-96.2426
-96.2501
-97.0665
-71.6852
-13.5065
14.3175
13.7962
-16.8106
-81.4242
-109.933
-109.174
-109.18
-110.154
-82.349
-17.7893
13.5738
13.066
-20.8768
-91.2306
-121.788
-120.847
-120.85
-122.006
-92.1765
-21.8851
12.854
12.3518
-24.7814
-100.248
-132.463
-131.313
-131.313
-132.671
-101.201
-25.8202
12.1303
11.6334
-28.5433
-108.509
-142.009
-140.631
-140.627
-142.206
-109.458
-29.6014
11.4042
10.917
-32.1634
-116.046
-150.486
-148.865
-148.859
-150.672
-116.986
-33.2316
10.6827
10.2118
-35.6403
-122.895
-157.955
-156.08
-156.073
-158.134
-123.82
-36.7091
9.9763
9.52873
-38.9707
-129.088
-164.479
-162.341
-162.335
-164.652
-129.994
-40.0252
9.30554
8.88479
-42.146
-134.656
-170.114
-167.71
-167.706
-170.283
-135.539
-43.1752
8.68303
8.2873
-45.1629
-139.626
-174.913
-172.241
-172.238
-175.076
-140.479
-46.1634
8.10307
7.72906
-48.0257
-144.02
-178.92
-175.984
-175.982
-179.074
-144.838
-49.0016
7.54723
7.19793
-50.7412
-147.86
-182.18
-178.987
-178.986
-182.326
-148.645
-51.6971
7.00697
6.6848
-53.3155
-151.173
-184.738
-181.302
-181.304
-184.881
-151.928
-54.2469
6.4904
6.19082
-55.7487
-153.985
-186.642
-182.977
-182.983
-186.788
-154.713
-56.651
5.99976
5.71616
-58.0409
-156.322
-187.938
-184.059
-184.071
-188.088
-157.024
-58.9113
5.53143
5.25743
-60.1941
-158.205
-188.667
-184.593
-184.61
-188.822
-158.882
-61.0282
5.08305
4.8135
-62.2046
-159.658
-188.871
-184.621
-184.644
-189.032
-160.309
-63.0006
4.65177
4.38152
-64.074
-160.697
-188.589
-184.189
-184.217
-188.756
-161.322
-64.8279
4.23183
3.95697
-65.7851
-161.346
-187.872
-183.344
-183.377
-188.046
-161.945
-66.4974
3.81975
3.53547
-67.3339
-161.624
-186.774
-182.15
-182.189
-186.958
-162.198
-67.9987
3.41518
3.11652
-68.7131
-161.597
-185.392
-180.692
-180.754
-185.648
-162.263
-69.4002
3.03917
2.7994
-70.2902
-161.879
-184.154
-179.253
-179.355
-184.555
-162.808
-71.1561
2.9352
3.08337
-72.3508
-162.599
-182.949
-177.559
-177.511
-182.847
-162.743
-72.9388
2.81264
0.929162
-74.3905
-160.715
-179.441
-174.097
-173.904
-178.848
-160.08
-74.7662
-0.114966
-1.96112
-74.9415
-156.918
-174.612
-169.763
-169.667
-174.349
-156.763
-75.2662
-2.32649
-3.54241
-76.0655
-154.633
-170.875
-166.135
-166.111
-170.851
-154.866
-76.6644
-3.86645
-4.9994
-77.424
-152.775
-167.447
-162.668
-162.644
-167.414
-152.955
-77.9379
-5.29206
-6.40063
-78.4723
-150.602
-163.852
-159.094
-159.069
-163.81
-150.745
-78.9387
-6.68272
-7.78625
-79.3279
-148.219
-160.129
-155.422
-155.398
-160.085
-148.342
-79.7598
-8.0483
-9.14731
-80.0306
-145.679
-156.306
-151.663
-151.642
-156.269
-145.8
-80.4423
-9.39295
-10.4682
-80.5951
-143.018
-152.408
-147.834
-147.818
-152.382
-143.142
-80.995
-10.7082
-11.748
-81.029
-140.249
-148.45
-143.948
-143.936
-148.436
-140.38
-81.4214
-11.9896
-12.9934
-81.3372
-137.377
-144.435
-140.008
-140.002
-144.436
-137.518
-81.7229
-13.235
-14.208
-81.5234
-134.408
-140.366
-136.015
-136.015
-140.382
-134.559
-81.9009
-14.4434
-15.3948
-81.5927
-131.343
-136.242
-131.967
-131.972
-136.271
-131.502
-81.957
-15.6169
-16.5546
-81.5484
-128.184
-132.06
-127.858
-127.866
-132.097
-128.344
-81.8931
-16.7601
-17.6875
-81.3917
-124.927
-127.81
-123.675
-123.684
-127.849
-125.077
-81.7103
-17.8783
-18.7999
-81.1217
-121.562
-123.477
-119.401
-119.409
-123.513
-121.695
-81.409
-18.978
-19.8986
-80.7351
-118.071
-119.036
-115.007
-115.014
-119.065
-118.183
-80.9891
-20.0643
-20.9903
-80.228
-114.432
-114.452
-110.456
-110.462
-114.476
-114.525
-80.4499
-21.1429
-22.0835
-79.5954
-110.615
-109.679
-105.692
-105.697
-109.698
-110.692
-79.7895
-22.2233
-23.19
-78.8263
-106.569
-104.641
-100.631
-100.637
-104.659
-106.636
-78.9981
-23.3182
-24.3216
-77.8903
-102.208
-99.2287
-95.1545
-95.1613
-99.25
-102.272
-78.0451
-24.4391
-25.4795
-76.7099
-97.3951
-93.2895
-89.1052
-89.114
-93.3153
-97.4584
-76.851
-25.5866
-26.6295
-75.1241
-91.9275
-86.6408
-82.3137
-82.3246
-86.6716
-91.9909
-75.2513
-26.7252
-27.673
-72.8676
-85.5888
-79.1577
-74.692
-74.7048
-79.1927
-85.6505
-72.9777
-27.7548
-28.4325
-69.6878
-78.3448
-70.9618
-66.4072
-66.422
-71.0003
-78.4028
-69.7773
-28.4973
-28.7513
-65.5764
-70.5206
-62.499
-57.9099
-57.9268
-62.5408
-70.5744
-65.6447
-28.7978
-28.759
-61.3779
-63.0878
-54.6985
-50.2359
-50.2545
-54.7432
-63.1379
-61.4274
-28.7882
-30.106
-59.8949
-57.9897
-49.6106
-45.9785
-45.9967
-49.6562
-58.0391
-59.9293
-30.1197
-35.7663
-59.9919
-52.8029
-46.6355
-44.8005
-44.8158
-46.68
-52.8636
-60.0388
-35.781
-45.1844
-44.694
-38.728
-41.6724
-42.9223
-42.9348
-41.7082
-38.7763
-44.7639
-45.2584
-51.2029
-20.2283
-32.1204
-41.2887
-45.8324
-45.8452
-41.3182
-32.1438
-20.2604
-51.293
1664.73
1445.78
1217.46
996.449
798.8
636.359
513.937
424.315
358.415
310.385
276.559
253.464
237.921
227.585
220.861
216.711
214.529
213.978
214.843
216.987
220.351
224.92
230.668
237.567
245.55
254.538
264.428
275.091
286.374
298.108
310.099
322.132
333.978
345.528
357.185
373.062
380.331
384.548
386.152
396.485
1136.46
959.045
782.087
621.223
487.719
387.281
321.124
290.663
284.083
289.587
298.522
304.849
305.905
303.049
298.197
292.052
285.271
278.876
273.586
269.787
267.766
267.726
269.719
273.671
279.397
286.648
295.123
304.507
314.47
324.641
334.655
344.073
352.375
359.044
364.287
368.968
370.119
374.455
373.151
384.494
677.38
558.115
432.361
305.413
197.458
136.371
113.273
123.639
161.864
216.087
274.207
323.045
348.5
355.04
355.765
352.589
344.494
334.869
326.455
319.596
314.433
311.2
310.005
310.823
313.499
317.766
323.251
329.564
336.297
343.011
349.265
354.593
358.509
360.591
360.831
359.693
358.059
360.096
376.291
387.483
613.343
566.975
449.172
229.466
35.6165
4.33968
7.2086
19.0029
34.9941
58.0431
91.0715
143.51
213.808
282.951
341.236
380.05
387.779
376.335
363.543
351.04
340.579
333.285
328.615
326.077
325.383
326.272
328.4
331.369
334.754
338.13
341.101
343.322
344.562
344.815
344.48
344.547
347.241
357.165
378.421
403.286
871.794
799.059
439.013
141.216
66.5482
51.3554
48.0902
47.6326
48.565
50.39
53.2778
58.5024
71.8318
98.9356
141.898
211.845
297.419
361.725
391.503
386.739
367.232
350.174
337.755
329.88
325.165
322.59
321.566
321.629
322.334
323.271
324.106
324.618
324.789
324.884
325.552
328.082
335.35
352.892
383.397
412.777
1018.01
608.417
130.64
65.1786
54.9524
52.6715
51.9414
51.5407
51.3093
51.2206
51.2252
51.2267
51.3381
52.7782
57.5926
67.3265
92.4026
146.057
232.993
322.612
368.214
366.049
344.526
327.393
316.857
310.735
307.176
305.195
304.206
303.784
303.624
303.601
303.821
304.695
306.98
312.027
322.72
344.3
378.196
408.794
891.479
300.318
67.9055
53.2594
51.222
51.0658
50.8533
50.6283
50.521
50.4988
50.4345
50.2429
50.0281
49.9845
50.2114
50.7688
52.485
58.1919
71.2815
111.487
205.597
293.609
323.652
314.712
299.338
290.015
285.444
283.181
282.088
281.697
281.759
282.229
283.275
285.349
289.21
296.107
308.59
331.059
363.939
392.365
627.651
131.155
55.9792
50.3103
50.1137
50.3
50.2442
50.1419
50.0927
50.0834
50.0683
50.0142
49.9308
49.829
49.6756
49.4802
49.4645
49.854
50.911
54.0294
64.4472
118.416
210.671
263.68
267.37
259.516
256.121
255.979
256.928
258.25
259.818
261.692
264.097
267.477
272.508
280.239
292.732
313.429
342.23
366.5
417.459
70.5224
50.9402
48.9424
49.3065
49.5677
49.6065
49.5988
49.601
49.6095
49.6134
49.6062
49.5904
49.569
49.5351
49.4761
49.3989
49.2942
49.2131
49.5241
50.6894
53.5479
89.6826
160.07
208.572
218.541
220.83
224.975
229.866
234.45
238.634
242.62
246.711
251.333
257.05
264.673
275.728
292.728
315.444
334.468
275.381
56.5772
48.9243
48.3687
48.7885
48.9888
49.0433
49.074
49.1057
49.1349
49.1589
49.1771
49.1911
49.2032
49.2149
49.2266
49.2416
49.2608
49.2752
49.2978
49.3544
49.8061
51.2306
77.7438
133.145
168.347
182.739
193.188
202.952
211.562
218.934
225.36
231.205
236.872
242.812
249.599
258.248
270.415
285.975
299.125
179.483
53.2151
48.1289
47.9826
48.3459
48.4836
48.5288
48.5705
48.6164
48.6612
48.7032
48.7428
48.7804
48.8168
48.8527
48.8896
48.9311
48.9825
49.0454
49.1144
49.1685
49.2317
49.5025
51.8031
75.5515
117.349
144.836
163.236
178.172
190.758
201.248
209.993
217.38
223.768
229.498
234.934
240.631
247.473
255.541
262.44
113.597
51.3242
47.5352
47.585
47.8936
47.9881
48.0236
48.0686
48.122
48.177
48.2324
48.288
48.3438
48.3996
48.4551
48.5103
48.5658
48.622
48.6794
48.7378
48.7922
48.824
48.7579
47.4218
50.4765
81.6227
114.321
138.704
157.678
173.231
186.041
196.49
204.907
211.571
216.697
220.467
223.045
224.649
225.554
226.672
76.3351
49.3698
46.9112
47.1252
47.383
47.4555
47.4946
47.5473
47.6082
47.6719
47.7376
47.8054
47.875
47.946
48.0179
48.0901
48.1617
48.2312
48.2967
48.3625
48.4379
48.468
48.1742
43.7172
38.45
62.6288
95.3762
121.711
142.384
159.335
173.298
184.562
193.337
199.774
203.956
205.896
205.432
202.222
196.707
192.396
59.6445
47.1188
46.1431
46.5562
46.7922
46.87
46.9276
46.9951
47.066
47.1378
47.2118
47.289
47.3693
47.4525
47.5385
47.6269
47.7173
47.8086
47.9008
48.0085
48.1554
48.2439
47.7304
38.7178
32.1133
55.5111
86.1252
111.273
131.564
148.473
162.47
173.672
182.141
187.884
190.849
190.889
187.564
180.096
169.236
160.364
51.3102
45.962
45.7333
46.1119
46.2655
46.3166
46.3675
46.4317
46.5021
46.575
46.6519
46.7337
46.8204
46.9118
47.0079
47.1088
47.2147
47.3252
47.4424
47.5855
47.7911
47.9709
47.0194
33.1495
31.543
55.4757
82.6049
105.086
123.799
139.662
152.834
163.268
170.892
175.571
177.135
175.305
169.411
158.321
143.071
131.439
49.9168
45.5866
45.397
45.659
45.7385
45.7566
45.789
45.8401
45.9026
45.972
46.0476
46.1298
46.2183
46.3125
46.412
46.5163
46.6243
46.7342
46.8494
46.9816
47.122
47.1297
43.4694
31.113
37.3131
59.8519
82.3825
101.501
117.958
132.106
143.854
153.031
159.446
162.868
163.036
159.599
151.754
138.142
120.018
107.586
48.6157
44.9283
44.8372
45.0721
45.1255
45.1297
45.1526
45.1955
45.2514
45.3166
45.3897
45.4705
45.5585
45.6531
45.7541
45.8611
45.9729
46.0895
46.229
46.4288
46.5722
45.8441
39.1711
33.1031
45.1799
64.9174
83.0615
98.9266
112.945
125.078
135.088
142.726
147.727
149.789
148.6
143.775
134.458
119.181
99.2894
85.0477
47.4285
44.1984
44.1886
44.4097
44.446
44.4405
44.4566
44.4934
44.5435
44.6041
44.6734
44.7511
44.8365
44.9288
45.0279
45.1336
45.2454
45.3614
45.4964
45.7206
46.1014
45.0762
37.5648
38.0795
52.0886
68.5394
83.2523
96.3729
108.067
118.141
126.316
132.311
135.815
136.494
134.006
127.942
117.415
100.982
80.2351
64.1546
46.2884
43.4277
43.4719
43.6753
43.6972
43.6848
43.6966
43.7289
43.774
43.8298
43.8945
43.9673
44.047
44.132
44.2209
44.311
44.3986
44.4801
44.5536
44.625
44.6532
43.2301
40.1624
45.9902
58.6941
71.5677
83.2245
93.8074
103.243
111.274
117.611
121.958
123.985
123.342
119.678
112.567
101.108
83.8806
62.7395
47.3706
45.1452
42.6059
42.6834
42.8652
42.8743
42.8593
42.8714
42.9012
42.9421
42.9937
43.0546
43.1235
43.199
43.2797
43.3634
43.447
43.5263
43.6033
43.6817
43.6753
43.2387
42.727
45.4401
53.8861
64.0607
73.7533
82.7758
91.0676
98.4074
104.523
109.137
111.958
112.666
110.926
106.407
98.7278
87.0586
70.0433
49.5435
38.2612
43.9398
41.7185
41.8164
41.9737
41.9717
41.9615
41.982
42.0116
42.0485
42.0968
42.1555
42.2229
42.2983
42.382
42.4743
42.5755
42.6868
42.8291
43.0599
43.3139
42.7238
43.4223
50.3814
59.481
67.4722
74.8206
81.7494
88.0803
93.5645
97.9597
101.018
102.471
102.023
99.3713
94.2347
86.2973
74.7967
58.4695
39.182
28.4428
42.6312
40.755
40.8691
41.0047
40.9991
40.9921
41.0173
41.0511
41.0884
41.1351
41.1912
41.255
41.3258
41.4038
41.4908
41.5879
41.6907
41.8086
42.0566
42.7378
42.3013
46.1044
56.0738
64.2074
70.0409
75.4056
80.512
85.0962
88.9205
91.7761
93.4451
93.6899
92.2404
88.8369
83.2627
75.2554
64.0726
48.5853
31.5969
20.2084
41.1544
39.6921
39.8311
39.9532
39.9562
39.9546
39.9806
40.0206
40.0636
40.1115
40.1646
40.2215
40.2807
40.3411
40.4013
40.4586
40.5053
40.5283
40.5675
40.7976
41.5168
50.7272
62.7569
68.8037
72.3535
75.8706
79.3115
82.3146
84.6495
86.1303
86.5589
85.7148
83.3572
79.2495
73.1904
64.9255
53.7442
38.6999
24.5106
12.5298
39.4538
38.5005
38.6924
38.8149
38.8377
38.8539
38.8899
38.9394
38.9898
39.0405
39.0922
39.1441
39.1948
39.2427
39.2861
39.3218
39.343
39.3354
39.303
39.3433
41.68
55.4992
68.21
72.3219
74.0955
76.1217
78.1633
79.819
80.8819
81.1925
80.5741
78.8294
75.7461
71.1166
64.7601
56.4288
45.493
31.383
16.4645
6.77996
37.596
37.1891
37.4686
37.6113
37.6628
37.6963
37.7562
37.8301
37.8859
37.9372
37.9877
38.0367
38.0829
38.1254
38.1633
38.1951
38.2159
38.2135
38.1865
38.2338
42.3092
59.718
72.4448
75.034
75.4743
76.3155
77.2066
77.7462
77.7571
77.1077
75.651
73.2164
69.625
64.7121
58.3408
50.2952
40.0348
26.9435
13.2437
10.838
35.8576
35.8646
36.225
36.3932
36.4726
36.5291
36.61
36.696
36.7565
36.8082
36.8574
36.9042
36.9481
36.9894
37.0289
37.0678
37.1063
37.1376
37.1498
37.2064
41.8305
61.541
75.5304
77.4521
76.8226
76.6641
76.6047
76.2291
75.3874
73.9792
71.8918
68.9876
65.1286
60.2257
54.2912
46.9517
38.0505
26.8505
15.5864
19.0567
34.6217
34.7289
35.0722
35.2308
35.3157
35.3886
35.4685
35.5441
35.6072
35.6585
35.7045
35.747
35.7865
35.8245
35.8632
35.9066
35.9591
36.0196
36.0793
36.1845
40.7075
62.0059
78.072
79.9113
78.3832
77.3506
76.4907
75.3553
73.8127
71.7973
69.2243
65.9813
61.9691
57.2395
51.6111
45.0613
37.2565
27.6575
18.6005
19.6861
33.5291
33.6493
33.9557
34.0975
34.1784
34.2508
34.3226
34.3899
34.4494
34.4946
34.5325
34.5651
34.5935
34.619
34.6439
34.6726
34.7085
34.7456
34.7759
34.9168
38.7337
61.2687
80.7265
83.0118
80.5279
78.5978
77
75.1985
73.0544
70.5288
67.5655
64.0749
59.9953
55.3207
50.0156
44.1178
37.3245
29.0091
22.0155
20.7262
32.354
32.5349
32.8341
32.9701
33.0483
33.1169
33.1781
33.2332
33.2839
33.3199
33.346
33.3642
33.375
33.3788
33.3762
33.3703
33.3618
33.3316
33.2085
33.0334
35.7273
58.3004
83.0448
86.8666
83.398
80.4814
78.1639
75.755
73.0707
70.0885
66.7767
63.0735
58.9262
54.3069
49.2969
43.9161
37.8688
30.6401
23.6948
22.9992
31.4019
31.5477
31.7821
31.884
31.9417
31.9919
32.0347
32.0832
32.1292
32.151
32.1608
32.1623
32.1549
32.1381
32.1119
32.0785
32.0392
31.9657
31.7709
31.5401
33.0449
51.6002
82.0562
90.3697
86.675
82.8427
79.8699
76.9439
73.7929
70.4023
66.7661
62.8558
58.6315
54.0711
49.3018
44.1986
38.7137
32.5081
26.2616
26.6986
30.5282
30.6037
30.7549
30.8157
30.8513
30.8844
30.8996
30.9291
30.9706
30.9835
30.98
30.9669
30.9442
30.9118
30.8703
30.8235
30.7769
30.7104
30.5539
30.3857
31.4328
43.1708
76.2517
93.106
90.785
85.9805
82.2427
78.8157
75.2381
71.4667
67.5194
63.3932
59.0765
54.5744
49.9705
45.2233
40.1314
34.8206
30.6371
30.558
29.52
29.5742
29.6841
29.7248
29.7502
29.7753
29.773
29.7813
29.8112
29.8205
29.8074
29.7808
29.7423
29.6919
29.63
29.5597
29.4881
29.404
29.2279
28.9116
29.1648
35.0572
65.941
94.4223
96.0873
90.2526
85.4411
81.4252
77.4191
73.2727
69.0154
64.6667
60.2356
55.8007
51.2988
46.8835
42.2894
37.7177
35.2906
33.8768
28.4161
28.4787
28.5747
28.6072
28.623
28.6362
28.6394
28.66
28.6894
28.6905
28.6623
28.6198
28.5648
28.4962
28.4137
28.3188
28.2161
28.0962
27.889
27.5577
27.5917
30.1056
51.2693
89.2778
100.659
95.2128
89.2628
84.6089
80.2166
75.7278
71.1643
66.5777
61.9991
57.5433
53.0973
48.9109
44.722
40.517
38.7048
37.2501
27.3008
27.3702
27.456
27.481
27.4832
27.4725
27.4644
27.5454
27.6301
27.6137
27.5579
27.4955
27.4239
27.3397
27.2417
27.1303
27.0087
26.8761
26.6984
26.4278
26.288
27.257
36.92
75.0529
102.214
100.942
94.0241
88.484
83.6528
78.8161
73.918
69.0478
64.2683
59.6732
55.2242
51.1524
47.2763
43.3395
41.1932
40.7614
26.2086
26.2796
26.3564
26.3781
26.3766
26.3609
26.3533
26.4442
26.5368
26.5326
26.4718
26.398
26.3153
26.2202
26.1111
25.9877
25.8522
25.708
25.5418
25.2852
24.9872
25.1638
28.3948
54.6914
96.0912
106.425
99.9378
93.2194
87.7707
82.5139
77.2134
71.9621
66.8666
61.9749
57.3805
53.1551
49.2556
45.4683
41.65
45.5444
25.1523
25.2201
25.2876
25.3085
25.3113
25.3058
25.2922
25.2644
25.3815
25.5111
25.4547
25.3533
25.2525
25.1465
25.0281
24.8947
24.7458
24.5833
24.4038
24.1667
23.8161
23.6762
24.7645
35.7598
77.8096
107.94
106.964
99.2943
92.773
86.8798
81.0715
75.3512
69.8502
64.6491
59.8015
55.3402
51.2696
47.6881
44.892
50.6321
24.1325
24.1928
24.2484
24.2651
24.2645
24.2513
24.2216
24.1821
24.3388
24.4984
24.4514
24.3343
24.2254
24.1169
23.9979
23.8642
23.7138
23.5467
23.3618
23.1414
22.8291
22.5241
22.7462
25.5971
51.5463
98.3658
114.124
107.921
99.3666
92.0728
85.4491
79.1528
73.2052
67.6693
62.573
57.9065
53.6765
50.2492
48.5379
54.0826
23.1516
23.2026
23.2474
23.2614
23.2591
23.2433
23.2273
23.2663
23.3742
23.433
23.4107
23.3127
23.2206
23.1256
23.0184
22.8959
22.7557
22.5954
22.4129
22.2005
21.9299
21.5711
21.3052
21.5379
28.8623
71.4762
115.408
121.084
109.778
98.8917
90.4548
83.3132
76.8957
71.0917
65.8896
61.2718
57.2107
53.9175
54.3294
54.9653
22.2052
22.2469
22.2825
22.296
22.2966
22.2869
22.2896
22.3641
22.4565
22.4433
22.3918
22.3188
22.2554
22.183
22.0969
21.9967
21.8808
21.7465
21.5904
21.4083
21.1832
20.8525
20.359
20.168
21.4707
40.0381
93.7507
126.687
120.181
105.522
94.7692
86.8694
80.1921
74.2674
69.0262
64.4578
60.4723
56.8785
57.0687
55.4
21.2871
21.3201
21.3469
21.36
21.3631
21.3582
21.3718
21.4664
21.5661
21.5114
21.4312
21.3808
21.3423
21.2933
21.2332
21.1645
21.0882
21.0038
20.9119
20.8128
20.697
20.5263
20.3025
20.4683
21.3347
23.1587
58.3736
110.158
118.112
105.451
95.1766
87.9728
81.8291
76.1305
70.8357
65.9708
61.4067
56.5896
56.6948
52.5175
20.3931
20.4176
20.4354
20.4462
20.4484
20.4413
20.4552
20.5681
20.6776
20.6177
20.5421
20.5013
20.4749
20.4429
20.4061
20.3684
20.3325
20.3018
20.281
20.277
20.2951
20.331
20.4061
20.7182
21.5686
22.4606
48.7122
91.196
103.503
97.7892
91.8004
86.8912
81.9996
76.9077
71.7386
66.6058
61.4613
56.1007
50.9077
46.6651
19.5215
19.5382
19.5477
19.5563
19.5584
19.5522
19.5674
19.6713
19.7602
19.7321
19.6955
19.6575
19.6313
19.6075
19.5853
19.5675
19.557
19.558
19.5756
19.6176
19.6911
19.7946
19.9258
20.2093
21.1611
23.9858
49.0872
79.3856
90.3516
90.6911
88.7433
85.7926
81.857
77.1665
71.9953
66.5236
60.7768
54.7527
48.947
45.3147
18.672
18.6814
18.6834
18.6906
18.6946
18.6932
18.7068
18.7589
18.8179
18.8645
18.8774
18.8312
18.7948
18.7708
18.7539
18.7439
18.7432
18.755
18.7838
18.8349
18.915
19.0321
19.1898
19.3734
19.5821
22.8746
47.6205
75.2343
87.5127
90.0246
89.0275
86.3521
82.4155
77.5404
72.032
66.0918
59.7709
53.0892
46.8468
43.2756
17.8413
17.8442
17.8395
17.8459
17.8517
17.8537
17.8624
17.8785
17.979
18.0512
18.0112
17.9575
17.9304
17.9138
17.9007
17.8925
17.8921
17.9034
17.931
17.9814
18.0692
18.2315
18.519
18.8148
18.5001
16.7234
37.7904
74.1633
95.9871
98.7375
94.5539
89.5751
84.2925
78.4861
72.2203
65.6195
58.6945
51.4545
44.7677
41.4571
17.026
17.0246
17.0155
17.0233
17.0336
17.0443
17.0694
17.1113
17.24
17.2032
17.0729
17.0419
17.0449
17.0401
17.0276
17.0123
16.9973
16.9842
16.9743
16.9694
16.9847
17.0758
17.2559
16.9958
14.5923
12.4769
26.7863
62.858
102.229
113.672
104.869
95.1525
87.3046
80.0307
72.7338
65.3236
57.7145
49.8465
42.5999
38.8385
16.2214
16.2173
16.2029
16.2085
16.2152
16.2177
16.2445
16.35
16.4751
16.3585
16.2229
16.1985
16.2007
16.1899
16.1671
16.1362
16.0972
16.0477
15.9829
15.897
15.794
15.6898
15.465
14.509
13.0267
14.2075
21.4406
37.7665
87.9754
120.949
113.977
100.279
89.994
81.5157
73.4091
65.3071
57.0254
48.4133
40.382
36.0272
15.4336
15.4264
15.4048
15.4036
15.3978
15.376
15.3797
15.5326
15.6694
15.5719
15.4762
15.4282
15.4052
15.379
15.3454
15.3044
15.2537
15.1894
15.1059
14.9962
14.8562
14.6651
14.3147
13.6145
13.504
14.7064
16.9182
20.5908
64.4416
113.823
115.559
101.811
90.8975
82.2261
73.9409
65.511
56.7025
47.2761
38.2156
33.1024
14.6778
14.666
14.6383
14.6335
14.6235
14.5962
14.5901
14.7087
14.7976
14.763
14.7364
14.6729
14.6304
14.5959
14.5605
14.5212
14.4762
14.4232
14.3596
14.2829
14.1908
14.0701
13.886
13.6572
13.8014
14.2975
15.1672
16.9949
53.8141
102.515
109.733
99.1641
89.817
82.0241
74.1739
65.7877
56.6313
46.3945
36.1787
30.0602
13.9584
13.941
13.9108
13.9104
13.9142
13.9179
13.9385
13.9285
13.8991
13.9192
13.9342
13.8837
13.8493
13.823
13.7968
13.7686
13.7384
13.7064
13.6734
13.641
13.6121
13.5898
13.5757
13.5851
13.6767
13.9478
14.6528
16.2414
48.3501
91.7288
101.122
94.4843
87.6496
81.2615
74.1611
66.0234
56.6306
45.61
34.2268
26.5522
13.2587
13.2361
13.2047
13.2102
13.2291
13.2623
13.3055
13.2116
13.129
13.1176
13.0915
13.0724
13.0678
13.06
13.0472
13.0316
13.0156
13.0009
12.9901
12.9864
12.9944
13.0207
13.073
13.1542
13.2608
13.4663
14.1438
16.591
46.7696
83.9812
93.312
89.933
85.4956
80.4896
74.1467
66.2946
56.7351
45.0688
32.51
24.0755
12.5599
12.5338
12.4988
12.5036
12.5218
12.5494
12.5815
12.5263
12.495
12.4023
12.3036
12.3021
12.3184
12.3218
12.3161
12.307
12.2978
12.2911
12.2899
12.2978
12.3195
12.3612
12.4292
12.523
12.6288
12.7905
13.3179
17.5423
47.4008
78.7994
87.4904
86.6486
84.1297
80.1974
74.3982
66.7143
56.9703
44.7414
31.3897
22.3476
11.862
11.8351
11.7974
11.8006
11.8159
11.8361
11.8591
11.8284
11.827
11.7024
11.5847
11.5898
11.6088
11.6113
11.6036
11.5926
11.5812
11.5721
11.5682
11.5734
11.5921
11.6305
11.696
11.7916
11.9081
12.0715
12.541
17.2598
46.4218
75.4662
84.7328
85.6895
84.3576
80.9693
75.3211
67.5347
57.4986
44.7983
30.9108
21.5213
11.1697
11.1438
11.1037
11.1047
11.1165
11.1309
11.1434
11.1016
11.0941
11.0169
10.9542
10.946
10.9425
10.9292
10.9098
10.8878
10.865
10.8432
10.8247
10.8124
10.8101
10.8234
10.8623
10.9407
11.0681
11.2065
11.3256
14.8411
42.6162
74.7922
86.2525
88.1505
87.0101
83.4301
77.3525
69.0626
58.5904
45.5037
31.3072
22.6262
10.4911
10.466
10.422
10.4176
10.4198
10.4169
10.4042
10.3552
10.3124
10.3469
10.4209
10.3761
10.3201
10.2751
10.2349
10.195
10.1541
10.112
10.0688
10.0251
9.98196
9.94053
9.90776
9.90705
9.94355
9.83562
9.08931
10.1387
31.9387
73.9657
94.9496
97.3057
94.0185
88.6021
81.1027
71.7251
60.6113
47.2427
32.7495
24.2113
9.84093
9.81535
9.76758
9.7584
9.75257
9.73501
9.70337
9.66545
9.63072
9.70889
9.80803
9.76464
9.684
9.62016
9.56614
9.51271
9.45626
9.39489
9.32679
9.24996
9.16168
9.05826
8.93897
8.81526
8.67597
8.33141
7.42247
6.7766
13.8028
53.0406
100.425
115.537
108.726
98.3467
87.643
76.5074
64.4472
49.967
35.0451
26.0468
9.22885
9.20087
9.15071
9.14068
9.13455
9.11677
9.08972
9.07957
9.084
9.085
9.08674
9.07667
9.01295
8.95715
8.90492
8.84911
8.78672
8.71583
8.63414
8.53869
8.42557
8.28959
8.12601
7.93314
7.69117
7.29112
6.59728
6.41812
7.6925
19.8478
72.0926
124.302
129.046
113.239
97.5334
84.1778
69.7199
53.6889
38.3428
28.1567
8.65219
8.62104
8.57004
8.56252
8.56263
8.55835
8.56022
8.58791
8.54153
8.45419
8.40414
8.37902
8.34331
8.3107
8.27029
8.22046
8.16127
8.0921
8.01146
7.91733
7.80708
7.67753
7.5254
7.34641
7.12516
6.82566
6.47577
6.44657
6.69782
7.76191
28.896
99.1287
140.411
130.042
109.485
93.0344
76.4925
59.156
41.5464
30.8394
8.09934
8.06533
8.01289
8.00618
8.00944
8.01205
8.02508
8.05766
7.99314
7.91049
7.81565
7.74985
7.73003
7.71282
7.68161
7.63873
7.58665
7.52584
7.45594
7.3765
7.28717
7.18789
7.07928
6.96286
6.84007
6.71369
6.60097
6.54494
6.5619
6.90134
9.04712
54.7324
126.986
140.164
121.63
102.661
85.3705
66.4492
46.6705
33.6964
7.56404
7.52773
7.47221
7.46236
7.46128
7.45519
7.44861
7.45676
7.45337
7.4318
7.30617
7.21847
7.19216
7.17295
7.1427
7.10367
7.05826
7.00696
6.94993
6.88755
6.82062
6.7505
6.67935
6.61063
6.55011
6.50862
6.50176
6.525
6.54438
6.69693
8.01136
26.1614
93.3963
134.883
127.484
110.975
94.0704
73.7887
51.7654
36.6602
7.05063
7.01265
6.95497
6.94314
6.93977
6.93026
6.91829
6.92093
6.92036
6.90043
6.78933
6.72115
6.69098
6.66778
6.63814
6.60323
6.5646
6.52268
6.47786
6.43075
6.38232
6.33386
6.28701
6.24373
6.20662
6.18002
6.17094
6.17747
6.15405
6.03366
6.02181
10.9216
58.4433
125.712
142.056
128.308
106.465
81.0966
56.0356
40.1059
6.56051
6.52107
6.46217
6.44974
6.44661
6.43938
6.4336
6.44127
6.41846
6.36333
6.26967
6.23916
6.2114
6.18612
6.15866
6.12855
6.09663
6.06343
6.02954
5.99573
5.96298
5.93245
5.90535
5.88277
5.86542
5.85393
5.84999
5.85096
5.81236
5.62479
5.37746
6.26991
23.6901
97.8813
155.77
154.287
123.236
88.3929
59.0704
42.4381
6.09166
6.05109
5.99108
5.9777
5.97387
5.96658
5.96042
5.95973
5.92065
5.85326
5.80382
5.79426
5.75909
5.72871
5.70163
5.67486
5.6482
5.62212
5.59729
5.5746
5.55526
5.54077
5.533
5.53413
5.5468
5.5748
5.62435
5.70214
5.79392
5.85855
6.00798
6.90174
10.5085
41.8738
122.814
153.594
126.245
88.7671
56.4694
38.4478
5.64309
5.60239
5.54194
5.52779
5.52298
5.5142
5.50386
5.49196
5.45121
5.42249
5.38047
5.34447
5.30694
5.28021
5.25658