/*--------------------------------*- C++ -*----------------------------------*\
  =========                 |
  \\      /  F ield         | OpenFOAM: The Open Source CFD Toolbox
   \\    /   O peration     | Website:  https://openfoam.org
    \\  /    A nd           | Version:  8
     \\/     M anipulation  |
\*---------------------------------------------------------------------------*/
FoamFile
{
    version     2.0;
    format      ascii;
    class       surfaceScalarField;
    location    "0.55";
    object      phi;
}
// * * * * * * * * * * * * * * * * * * * * * * * * * * * * * * * * * * * * * //

dimensions      [0 3 -1 0 0 0 0];

internalField   nonuniform List<scalar> 
18095
(
1.58883e-07
-9.64445e-07
8.05562e-07
1.65978e-07
-1.24807e-06
1.24097e-06
1.22796e-07
-1.24248e-06
1.28566e-06
6.56627e-08
-1.26389e-06
1.32102e-06
6.2161e-13
-1.28112e-06
1.34678e-06
-6.56616e-08
-1.28112e-06
1.34678e-06
-1.22795e-07
-1.26389e-06
1.32102e-06
-1.65978e-07
-1.24248e-06
1.28566e-06
-1.58883e-07
-1.24807e-06
1.24097e-06
-9.64446e-07
8.05562e-07
1.11296e-07
-1.07574e-06
9.99079e-08
-1.23668e-06
7.32959e-08
-1.21587e-06
4.02909e-08
-1.23088e-06
4.07339e-13
-1.24083e-06
-4.02901e-08
-1.24083e-06
-7.32953e-08
-1.23088e-06
-9.99075e-08
-1.21587e-06
-1.11295e-07
-1.23668e-06
-1.07574e-06
6.74746e-08
-1.14322e-06
5.31443e-08
-1.22235e-06
4.24441e-08
-1.20517e-06
2.40374e-08
-1.21248e-06
2.21341e-13
-1.21679e-06
-2.4037e-08
-1.21679e-06
-4.24438e-08
-1.21248e-06
-5.3144e-08
-1.20517e-06
-6.74743e-08
-1.22235e-06
-1.14322e-06
3.9884e-08
-1.1831e-06
2.68688e-08
-1.20933e-06
2.22042e-08
-1.2005e-06
1.26474e-08
-1.20292e-06
7.16848e-14
-1.20415e-06
-1.26473e-08
-1.20415e-06
-2.22041e-08
-1.20292e-06
-2.68687e-08
-1.2005e-06
-3.98839e-08
-1.20933e-06
-1.1831e-06
1.69008e-08
7.56636e-09
7.0654e-09
4.14638e-09
2.2821e-14
-4.14634e-09
-7.06537e-09
-7.56633e-09
-1.69007e-08
-1.76476e-07
-1.16209e-06
1.33857e-06
-2.20639e-07
-1.21573e-06
1.25989e-06
-1.66337e-07
-1.2129e-06
1.1586e-06
-8.76801e-08
-1.20507e-06
1.12641e-06
6.93965e-12
-1.2042e-06
1.11651e-06
8.76937e-08
-1.2042e-06
1.11651e-06
1.66349e-07
-1.20507e-06
1.12641e-06
2.2065e-07
-1.21291e-06
1.15861e-06
1.76487e-07
-1.21574e-06
1.2599e-06
-1.1621e-06
1.33858e-06
-9.28444e-08
-1.06925e-06
-9.58293e-08
-1.21275e-06
-7.95159e-08
-1.22922e-06
-4.437e-08
-1.24021e-06
3.93791e-12
-1.24857e-06
4.43776e-08
-1.24857e-06
7.95226e-08
-1.24021e-06
9.58348e-08
-1.22922e-06
9.28475e-08
-1.21275e-06
-1.06925e-06
-5.78843e-08
-1.01136e-06
-5.49718e-08
-1.21566e-06
-4.63005e-08
-1.23789e-06
-2.69889e-08
-1.25952e-06
2.36678e-12
-1.27556e-06
2.69934e-08
-1.27556e-06
4.63044e-08
-1.25953e-06
5.49746e-08
-1.23789e-06
5.78857e-08
-1.21566e-06
-1.01136e-06
-7.47366e-08
-9.36624e-07
-6.17211e-08
-1.22867e-06
-4.81869e-08
-1.25142e-06
-2.74973e-08
-1.28021e-06
1.46508e-12
-1.30306e-06
2.75001e-08
-1.30306e-06
4.81892e-08
-1.28021e-06
6.17226e-08
-1.25142e-06
7.47373e-08
-1.22868e-06
-9.36626e-07
-1.31063e-07
-1.18765e-07
-8.45272e-08
-4.37199e-08
9.43327e-13
4.37216e-08
8.45286e-08
1.18766e-07
1.31063e-07
-6.21699e-08
-9.46707e-07
1.00888e-06
-3.07892e-09
-1.33403e-06
1.27494e-06
9.97337e-09
-1.26936e-06
1.25631e-06
4.3325e-09
-1.22629e-06
1.23193e-06
7.10722e-11
-1.22348e-06
1.22774e-06
-4.19395e-09
-1.22349e-06
1.22776e-06
-9.84591e-09
-1.2263e-06
1.23196e-06
3.221e-09
-1.26937e-06
1.2563e-06
6.2317e-08
-1.33405e-06
1.27495e-06
-9.46919e-07
1.00924e-06
5.73276e-09
-9.5244e-07
1.46332e-08
-1.34293e-06
1.1343e-08
-1.26607e-06
5.91197e-09
-1.22086e-06
5.10214e-11
-1.21762e-06
-5.81063e-09
-1.21763e-06
-1.12609e-08
-1.22085e-06
-1.45452e-08
-1.26608e-06
-5.64542e-09
-1.34295e-06
-9.52565e-07
2.47743e-08
-9.77214e-07
1.76174e-08
-1.33577e-06
9.71391e-09
-1.25817e-06
5.62627e-09
-1.21677e-06
2.99703e-11
-1.21202e-06
-5.5731e-09
-1.21203e-06
-9.65143e-09
-1.21678e-06
-1.7557e-08
-1.25818e-06
-2.47181e-08
-1.33579e-06
-9.77283e-07
7.75595e-08
-1.05477e-06
5.28527e-08
-1.31107e-06
3.42483e-08
-1.23957e-06
2.07235e-08
-1.20325e-06
1.82426e-11
-1.19132e-06
-2.0687e-08
-1.19132e-06
-3.42091e-08
-1.20325e-06
-5.28101e-08
-1.23957e-06
-7.75257e-08
-1.31107e-06
-1.05481e-06
2.83793e-07
2.32622e-07
1.51656e-07
7.48189e-08
1.15055e-11
-7.4796e-08
-1.51636e-07
-2.32604e-07
-2.83775e-07
-1.16623e-06
-2.72805e-07
1.43904e-06
-8.82689e-07
-2.83543e-07
-5.92643e-07
-2.90046e-07
-2.99297e-07
-2.93346e-07
-5.68771e-09
-2.93609e-07
2.87905e-07
-2.93593e-07
5.81271e-07
-2.93365e-07
8.71433e-07
-2.90162e-07
1.15523e-06
-2.83793e-07
-2.73252e-07
1.42848e-06
-8.79401e-07
-4.73509e-07
1.0801e-06
-6.68806e-07
-4.94138e-07
-4.51392e-07
-5.07459e-07
-2.29433e-07
-5.15306e-07
-4.18845e-09
-5.18854e-07
2.21113e-07
-5.18895e-07
4.43195e-07
-5.15447e-07
6.60785e-07
-5.07752e-07
8.71654e-07
-4.94662e-07
-4.74379e-07
1.07278e-06
-6.5872e-07
-6.25971e-07
8.11182e-07
-4.99845e-07
-6.53013e-07
-3.36566e-07
-6.70738e-07
-1.70466e-07
-6.81406e-07
-2.8849e-09
-6.86435e-07
1.64719e-07
-6.86498e-07
3.30885e-07
-6.81613e-07
4.94275e-07
-6.71142e-07
6.53325e-07
-6.53712e-07
-6.27114e-07
8.0606e-07
-4.7927e-07
-7.37724e-07
5.91022e-07
-3.63316e-07
-7.68967e-07
-2.44426e-07
-7.89627e-07
-1.23612e-07
-8.0222e-07
-1.83484e-09
-8.08212e-07
1.19958e-07
-8.08291e-07
2.40816e-07
-8.02472e-07
3.59776e-07
-7.90102e-07
4.75825e-07
-7.69761e-07
-7.39003e-07
5.87714e-07
-3.37798e-07
-8.17378e-07
4.17452e-07
-2.55866e-07
-8.50899e-07
-1.72092e-07
-8.73402e-07
-8.69359e-08
-8.87376e-07
-1.02753e-09
-8.94121e-07
8.48994e-08
-8.94218e-07
1.70107e-07
-8.8768e-07
2.53953e-07
-8.73948e-07
3.35951e-07
-8.51759e-07
-8.18688e-07
4.15636e-07
-2.53878e-07
-8.82553e-07
3.19054e-07
-1.90291e-07
-9.14486e-07
-1.27109e-07
-9.36583e-07
-6.39115e-08
-9.50574e-07
-6.08848e-10
-9.57423e-07
6.27001e-08
-9.57527e-07
1.25912e-07
-9.50892e-07
1.89106e-07
-9.37141e-07
2.5269e-07
-9.15343e-07
-8.8378e-07
3.17782e-07
-2.1843e-07
-9.44829e-07
2.80706e-07
-1.60972e-07
-9.71945e-07
-1.06265e-07
-9.9129e-07
-5.30699e-08
-1.00377e-06
-5.32511e-10
-1.00996e-06
5.19866e-08
-1.01005e-06
1.05118e-07
-1.00402e-06
1.59686e-07
-9.91709e-07
2.16889e-07
-9.72546e-07
-9.45674e-07
2.78783e-07
-2.07256e-07
-1.00736e-06
2.69784e-07
-1.51406e-07
-1.0278e-06
-9.93471e-08
-1.04335e-06
-4.94506e-08
-1.05367e-06
-5.61917e-10
-1.05885e-06
4.83121e-08
-1.05892e-06
9.81621e-08
-1.05387e-06
1.5013e-07
-1.04368e-06
2.0578e-07
-1.0282e-06
-1.00764e-06
2.67746e-07
-2.04883e-07
-1.06735e-06
2.64875e-07
-1.50112e-07
-1.08257e-06
-9.8651e-08
-1.09481e-06
-4.91989e-08
-1.10312e-06
-7.26056e-10
-1.10732e-06
4.77264e-08
-1.10737e-06
9.71196e-08
-1.10327e-06
1.4849e-07
-1.09505e-06
2.03153e-07
-1.08286e-06
-1.06758e-06
2.63094e-07
-2.03017e-07
-1.12301e-06
2.58676e-07
-1.50013e-07
-1.13557e-06
-9.9052e-08
-1.14577e-06
-4.95352e-08
-1.15264e-06
-7.78696e-10
-1.15608e-06
4.79575e-08
-1.15611e-06
9.74164e-08
-1.15273e-06
1.483e-07
-1.14593e-06
2.01279e-07
-1.13584e-06
-1.12341e-06
2.57108e-07
-1.98538e-07
-1.17499e-06
2.5052e-07
-1.47538e-07
-1.18657e-06
-9.77399e-08
-1.19557e-06
-4.89278e-08
-1.20145e-06
-6.57154e-10
-1.20435e-06
4.76096e-08
-1.20438e-06
9.64109e-08
-1.20153e-06
1.46186e-07
-1.19571e-06
1.97109e-07
-1.18676e-06
-1.17529e-06
2.48987e-07
-1.92305e-07
-1.22596e-06
2.43273e-07
-1.42843e-07
-1.23603e-06
-9.47476e-08
-1.24366e-06
-4.74615e-08
-1.24873e-06
-5.73136e-10
-1.25124e-06
4.63151e-08
-1.25126e-06
9.35982e-08
-1.24881e-06
1.41678e-07
-1.24379e-06
1.91095e-07
-1.23618e-06
-1.22614e-06
2.41951e-07
-1.84837e-07
-1.27464e-06
2.33522e-07
-1.37499e-07
-1.28337e-06
-9.12794e-08
-1.28988e-06
-4.57415e-08
-1.29427e-06
-5.28129e-10
-1.29645e-06
4.46874e-08
-1.29648e-06
9.02312e-08
-1.29435e-06
1.36456e-07
-1.29001e-06
1.83787e-07
-1.28351e-06
-1.27481e-06
2.32456e-07
-1.76812e-07
-1.32083e-06
2.23003e-07
-1.31771e-07
-1.32841e-06
-8.75894e-08
-1.33407e-06
-4.39175e-08
-1.33794e-06
-4.84783e-10
-1.33988e-06
4.29511e-08
-1.33992e-06
8.66358e-08
-1.33804e-06
1.30847e-07
-1.33422e-06
1.75938e-07
-1.3286e-06
-1.32098e-06
2.22104e-07
-1.68334e-07
-1.36461e-06
2.12116e-07
-1.25749e-07
-1.371e-06
-8.37072e-08
-1.37611e-06
-4.19735e-08
-1.37968e-06
-3.95347e-10
-1.38146e-06
4.1182e-08
-1.38149e-06
8.29185e-08
-1.37977e-06
1.24993e-07
-1.3763e-06
1.67671e-07
-1.37128e-06
-1.36486e-06
2.11548e-07
-1.59892e-07
-1.40573e-06
2.0101e-07
-1.19634e-07
-1.41126e-06
-7.96637e-08
-1.41608e-06
-3.98906e-08
-1.41945e-06
-2.36702e-10
-1.42112e-06
3.94173e-08
-1.42115e-06
7.91876e-08
-1.41954e-06
1.19134e-07
-1.41624e-06
1.59358e-07
-1.4115e-06
-1.40603e-06
2.00534e-07
-1.52001e-07
-1.44465e-06
1.90919e-07
-1.13507e-07
-1.44975e-06
-7.54484e-08
-1.45414e-06
-3.77062e-08
-1.45719e-06
-9.64917e-11
-1.45873e-06
3.75091e-08
-1.45875e-06
7.52379e-08
-1.45727e-06
1.13275e-07
-1.45428e-06
1.51738e-07
-1.44997e-06
-1.44493e-06
1.90633e-07
-1.43641e-07
-1.48137e-06
1.80359e-07
-1.07296e-07
-1.48609e-06
-7.13049e-08
-1.49013e-06
-3.5578e-08
-1.49292e-06
1.81181e-11
-1.49432e-06
3.56094e-08
-1.49434e-06
7.13209e-08
-1.49299e-06
1.07284e-07
-1.49024e-06
1.43589e-07
-1.48627e-06
-1.48158e-06
1.80245e-07
-1.35365e-07
-1.51598e-06
1.69974e-07
-1.01121e-07
-1.52034e-06
-6.71836e-08
-1.52406e-06
-3.34827e-08
-1.52662e-06
1.01025e-10
-1.52791e-06
3.36789e-08
-1.52792e-06
6.73614e-08
-1.52667e-06
1.01264e-07
-1.52414e-06
1.35455e-07
-1.52046e-06
-1.51612e-06
1.69988e-07
-1.27235e-07
-1.54853e-06
1.59782e-07
-9.5024e-08
-1.55255e-06
-6.31139e-08
-1.55597e-06
-3.14278e-08
-1.55831e-06
1.47871e-10
-1.55948e-06
3.17174e-08
-1.55949e-06
6.33842e-08
-1.55833e-06
9.52594e-08
-1.55602e-06
1.27418e-07
-1.55262e-06
-1.54859e-06
1.59896e-07
-1.19227e-07
-1.57901e-06
1.49712e-07
-8.90323e-08
-1.58275e-06
-5.91235e-08
-1.58588e-06
-2.94259e-08
-1.588e-06
1.66977e-10
-1.58907e-06
2.97542e-08
-1.58908e-06
5.94343e-08
-1.58801e-06
8.93126e-08
-1.5859e-06
1.19463e-07
-1.58277e-06
-1.57903e-06
1.49897e-07
-1.11339e-07
-1.60744e-06
1.39774e-07
-8.31379e-08
-1.61095e-06
-5.52053e-08
-1.61382e-06
-2.74692e-08
-1.61574e-06
1.69012e-10
-1.61671e-06
2.78026e-08
-1.61671e-06
5.55246e-08
-1.61574e-06
8.34331e-08
-1.61381e-06
1.116e-07
-1.61094e-06
-1.60743e-06
1.40004e-07
-1.03569e-07
-1.63387e-06
1.2999e-07
-7.73355e-08
-1.63718e-06
-5.13515e-08
-1.6398e-06
-2.55488e-08
-1.64154e-06
1.63526e-10
-1.64242e-06
2.58728e-08
-1.64242e-06
5.1666e-08
-1.64153e-06
7.76331e-08
-1.63977e-06
1.03841e-07
-1.63715e-06
-1.63383e-06
1.30236e-07
-9.59328e-08
-1.65836e-06
1.20422e-07
-7.16271e-08
-1.66149e-06
-4.75607e-08
-1.66387e-06
-2.36618e-08
-1.66544e-06
1.54505e-10
-1.66624e-06
2.39698e-08
-1.66624e-06
4.78653e-08
-1.66543e-06
7.19233e-08
-1.66383e-06
9.62083e-08
-1.66143e-06
-1.65827e-06
1.20651e-07
-8.84396e-08
-1.681e-06
1.11084e-07
-6.60276e-08
-1.6839e-06
-4.38445e-08
-1.68605e-06
-2.1814e-08
-1.68747e-06
1.42679e-10
-1.6882e-06
2.21005e-08
-1.68819e-06
4.41343e-08
-1.68746e-06
6.63207e-08
-1.68602e-06
8.87279e-08
-1.68384e-06
-1.68085e-06
1.11309e-07
-8.11181e-08
-1.70172e-06
1.01841e-07
-6.05728e-08
-1.70444e-06
-4.02271e-08
-1.70639e-06
-2.00142e-08
-1.70768e-06
1.33479e-10
-1.70835e-06
2.02825e-08
-1.70834e-06
4.05005e-08
-1.70768e-06
6.0858e-08
-1.70638e-06
8.14261e-08
-1.70441e-06
-1.70163e-06
1.0221e-07
-7.3961e-08
-1.72044e-06
9.26808e-08
-5.5247e-08
-1.72316e-06
-3.66863e-08
-1.72496e-06
-1.82375e-08
-1.72613e-06
1.54878e-10
-1.72674e-06
1.85495e-08
-1.72674e-06
3.70056e-08
-1.72613e-06
5.5583e-08
-1.72495e-06
7.43395e-08
-1.72316e-06
-1.72053e-06
9.32332e-08
-6.70226e-08
-1.73749e-06
8.40753e-08
-5.00447e-08
-1.74014e-06
-3.32148e-08
-1.74179e-06
-1.64823e-08
-1.74287e-06
2.03449e-10
-1.74342e-06
1.68935e-08
-1.74343e-06
3.36388e-08
-1.74288e-06
5.04884e-08
-1.7418e-06
6.74806e-08
-1.74015e-06
-1.73753e-06
8.44861e-08
-6.03318e-08
-1.75285e-06
7.56854e-08
-4.50284e-08
-1.75544e-06
-2.98681e-08
-1.75695e-06
-1.47904e-08
-1.75794e-06
2.48562e-10
-1.75846e-06
1.52912e-08
-1.75847e-06
3.03805e-08
-1.75797e-06
4.55605e-08
-1.75698e-06
6.08772e-08
-1.75547e-06
-1.75292e-06
7.62633e-08
-5.3883e-08
-1.76649e-06
6.75282e-08
-4.02114e-08
-1.76911e-06
-2.66536e-08
-1.7705e-06
-1.3159e-08
-1.77144e-06
3.0479e-10
-1.77193e-06
1.37694e-08
-1.77193e-06
2.72698e-08
-1.77147e-06
4.08441e-08
-1.77056e-06
5.45455e-08
-1.76917e-06
-1.76667e-06
6.82951e-08
-4.77472e-08
-1.77859e-06
5.98414e-08
-3.56194e-08
-1.78124e-06
-2.35663e-08
-1.78256e-06
-1.15772e-08
-1.78343e-06
3.77215e-10
-1.78388e-06
1.23305e-08
-1.78389e-06
2.43119e-08
-1.78345e-06
3.63495e-08
-1.78259e-06
4.8484e-08
-1.78131e-06
-1.77879e-06
6.0602e-08
-4.18933e-08
-1.78924e-06
5.25481e-08
-3.12248e-08
-1.79191e-06
-2.06247e-08
-1.79316e-06
-1.00836e-08
-1.79397e-06
4.25592e-10
-1.79439e-06
1.09333e-08
-1.7944e-06
2.1471e-08
-1.79399e-06
3.20646e-08
-1.79319e-06
4.2721e-08
-1.79196e-06
-1.78942e-06
5.33498e-08
-3.63183e-08
-1.79853e-06
4.56009e-08
-2.70414e-08
-1.80118e-06
-1.78308e-08
-1.80237e-06
-8.67255e-09
-1.80313e-06
4.57434e-10
-1.80352e-06
9.58642e-09
-1.80352e-06
1.87414e-08
-1.80314e-06
2.79462e-08
-1.80239e-06
3.72094e-08
-1.80123e-06
-1.79867e-06
4.64665e-08
-3.10225e-08
-1.8065e-06
3.89926e-08
-2.30714e-08
-1.80913e-06
-1.5182e-08
-1.81026e-06
-7.33977e-09
-1.81097e-06
4.76986e-10
-1.81134e-06
8.29265e-09
-1.81134e-06
1.61314e-08
-1.81098e-06
2.40143e-08
-1.81028e-06
3.19548e-08
-1.80917e-06
-1.80663e-06
3.99086e-08
-2.59973e-08
-1.81321e-06
3.27148e-08
-1.93068e-08
-1.81582e-06
-1.26726e-08
-1.81689e-06
-6.08084e-09
-1.81756e-06
4.88112e-10
-1.81791e-06
7.05614e-09
-1.81791e-06
1.36451e-08
-1.81757e-06
2.02746e-08
-1.81691e-06
2.69583e-08
-1.81585e-06
-1.81334e-06
3.3668e-08
-2.12346e-08
-1.81874e-06
2.67642e-08
-1.57397e-08
-1.82132e-06
-1.0296e-08
-1.82233e-06
-4.89032e-09
-1.82297e-06
4.95017e-10
-1.82329e-06
5.87966e-09
-1.82329e-06
1.12833e-08
-1.82297e-06
1.6724e-08
-1.82235e-06
2.2215e-08
-1.82134e-06
-1.81886e-06
2.774e-08
-1.67275e-08
-1.82315e-06
2.11343e-08
-1.23636e-08
-1.82568e-06
-8.04682e-09
-1.82665e-06
-3.76425e-09
-1.82725e-06
5.00138e-10
-1.82756e-06
4.76404e-09
-1.82756e-06
9.04516e-09
-1.82725e-06
1.33597e-08
-1.82666e-06
1.77202e-08
-1.8257e-06
-1.82326e-06
2.21214e-08
-1.2467e-08
-1.82649e-06
1.58126e-08
-9.17238e-09
-1.82898e-06
-5.92082e-09
-1.8299e-06
-2.69999e-09
-1.83047e-06
5.04627e-10
-1.83076e-06
3.70888e-09
-1.83076e-06
6.92869e-09
-1.83047e-06
1.01788e-08
-1.82991e-06
1.34712e-08
-1.829e-06
-1.8266e-06
1.68086e-08
-8.44716e-09
-1.82884e-06
1.07877e-08
-6.16133e-09
-1.83126e-06
-3.91476e-09
-1.83215e-06
-1.69571e-09
-1.83269e-06
5.08917e-10
-1.83296e-06
2.71328e-09
-1.83297e-06
4.93149e-09
-1.83269e-06
7.17648e-09
-1.83216e-06
9.45916e-09
-1.83128e-06
-1.82893e-06
1.17899e-08
-4.66182e-09
-1.83023e-06
6.05175e-09
-3.32619e-09
-1.8326e-06
-2.02579e-09
-1.83345e-06
-7.49983e-10
-1.83396e-06
5.12998e-10
-1.83423e-06
1.77581e-09
-1.83423e-06
3.05114e-09
-1.83397e-06
4.35082e-09
-1.83346e-06
5.68502e-09
-1.83261e-06
-1.83031e-06
7.06777e-09
-1.10595e-09
-1.83072e-06
1.60492e-09
-6.6236e-10
-1.83304e-06
-2.50819e-10
-1.83386e-06
1.38663e-10
-1.83435e-06
5.16722e-10
-1.83461e-06
8.94708e-10
-1.83461e-06
1.28402e-09
-1.83436e-06
1.6954e-09
-1.83387e-06
2.13879e-09
-1.83306e-06
-1.83081e-06
2.63597e-09
2.22779e-09
-1.83039e-06
-2.56068e-09
1.83548e-09
-1.83265e-06
1.41368e-09
-1.83344e-06
9.72035e-10
-1.83391e-06
5.20165e-10
-1.83415e-06
6.82793e-11
-1.83415e-06
-3.7337e-10
-1.83392e-06
-7.95146e-10
-1.83345e-06
-1.18751e-09
-1.83266e-06
-1.83048e-06
-1.52306e-09
5.34677e-09
-1.82928e-06
-6.45904e-09
4.17219e-09
-1.83148e-06
2.97065e-09
-1.83224e-06
1.75126e-09
-1.83269e-06
5.22797e-10
-1.83293e-06
-7.05622e-10
-1.83293e-06
-1.92488e-09
-1.8327e-06
-3.12628e-09
-1.83224e-06
-4.3011e-09
-1.83149e-06
-1.82936e-06
-5.41782e-09
8.25886e-09
-1.82744e-06
-1.01011e-08
6.35343e-09
-1.82957e-06
4.42371e-09
-1.83031e-06
2.47801e-09
-1.83075e-06
5.24196e-10
-1.83097e-06
-1.42953e-09
-1.83097e-06
-3.37499e-09
-1.83075e-06
-5.30435e-09
-1.83031e-06
-7.20945e-09
-1.82958e-06
-1.82751e-06
-9.05436e-09
1.09718e-08
-1.82491e-06
-1.34951e-08
8.38536e-09
-1.82698e-06
5.77693e-09
-1.8277e-06
3.15413e-09
-1.82812e-06
5.24033e-10
-1.82834e-06
-2.10595e-09
-1.82834e-06
-4.7284e-09
-1.82813e-06
-7.33622e-09
-1.82771e-06
-9.92174e-09
-1.827e-06
-1.82499e-06
-1.24454e-08
1.34933e-08
-1.82176e-06
-1.66453e-08
1.02745e-08
-1.82377e-06
7.03483e-09
-1.82446e-06
3.78195e-09
-1.82487e-06
5.22374e-10
-1.82508e-06
-2.73708e-09
-1.82508e-06
-5.98959e-09
-1.82488e-06
-9.22852e-09
-1.82447e-06
-1.24461e-08
-1.82378e-06
-1.82184e-06
-1.55975e-08
1.58338e-08
-1.81803e-06
-1.95665e-08
1.20283e-08
-1.81996e-06
8.20237e-09
-1.82063e-06
4.364e-09
-1.82103e-06
5.19371e-10
-1.82124e-06
-3.32518e-09
-1.82124e-06
-7.16331e-09
-1.82104e-06
-1.09887e-08
-1.82064e-06
-1.47933e-08
-1.81998e-06
-1.81811e-06
-1.85262e-08
1.80052e-08
-1.81375e-06
-2.22794e-08
1.36547e-08
-1.81561e-06
9.28463e-09
-1.81626e-06
4.90282e-09
-1.81665e-06
5.15168e-10
-1.81685e-06
-3.87248e-09
-1.81685e-06
-8.25428e-09
-1.81666e-06
-1.26244e-08
-1.81627e-06
-1.69749e-08
-1.81562e-06
-1.81383e-06
-2.12526e-08
2.00181e-08
-1.80897e-06
-2.47994e-08
1.51614e-08
-1.81075e-06
1.02864e-08
-1.81139e-06
5.40082e-09
-1.81177e-06
5.09831e-10
-1.81196e-06
-4.38122e-09
-1.81196e-06
-9.26705e-09
-1.81177e-06
-1.41425e-08
-1.8114e-06
-1.90008e-08
-1.81077e-06
-1.80904e-06
-2.37908e-08
2.18815e-08
-1.80372e-06
-2.71376e-08
1.6555e-08
-1.80543e-06
1.12124e-08
-1.80605e-06
5.86039e-09
-1.80641e-06
5.03542e-10
-1.8066e-06
-4.85337e-09
-1.8066e-06
-1.02056e-08
-1.80642e-06
-1.55488e-08
-1.80605e-06
-2.08769e-08
-1.80544e-06
-1.80377e-06
-2.61421e-08
2.36021e-08
-1.79802e-06
-2.92964e-08
1.78417e-08
-1.79967e-06
1.20671e-08
-1.80027e-06
6.28404e-09
-1.80063e-06
4.96708e-10
-1.80081e-06
-5.29064e-09
-1.80082e-06
-1.10737e-08
-1.80063e-06
-1.68484e-08
-1.80028e-06
-2.26092e-08
-1.79968e-06
-1.79807e-06
-2.8308e-08
2.51871e-08
-1.79193e-06
-3.12806e-08
1.90277e-08
-1.79351e-06
1.28549e-08
-1.7941e-06
6.67432e-09
-1.79445e-06
4.89775e-10
-1.79463e-06
-5.69473e-09
-1.79463e-06
-1.18752e-08
-1.79445e-06
-1.80476e-08
-1.79411e-06
-2.42066e-08
-1.79352e-06
-1.79198e-06
-3.03024e-08
2.66466e-08
-1.78547e-06
-3.31058e-08
2.01203e-08
-1.78698e-06
1.35808e-08
-1.78756e-06
7.03379e-09
-1.7879e-06
4.83074e-10
-1.78808e-06
-6.06756e-09
-1.78808e-06
-1.26142e-08
-1.78791e-06
-1.91531e-08
-1.78757e-06
-2.56784e-08
-1.78699e-06
-1.78552e-06
-3.21389e-08
2.79904e-08
-1.77867e-06
-3.47859e-08
2.11266e-08
-1.78012e-06
1.42493e-08
-1.78068e-06
7.36487e-09
-1.78102e-06
4.76732e-10
-1.78119e-06
-6.41133e-09
-1.78119e-06
-1.32955e-08
-1.78102e-06
-2.01721e-08
-1.78069e-06
-2.70348e-08
-1.78013e-06
-1.77872e-06
-3.38302e-08
2.92286e-08
-1.77157e-06
-3.63338e-08
2.20537e-08
-1.77294e-06
1.48654e-08
-1.77349e-06
7.66989e-09
-1.77382e-06
4.70804e-10
-1.77399e-06
-6.72826e-09
-1.77399e-06
-1.39237e-08
-1.77383e-06
-2.11118e-08
-1.7735e-06
-2.82862e-08
-1.77296e-06
-1.77162e-06
-3.5393e-08
3.03707e-08
-1.76418e-06
-3.77645e-08
2.29086e-08
-1.76548e-06
1.54332e-08
-1.76602e-06
7.95099e-09
-1.76634e-06
4.65319e-10
-1.76651e-06
-7.02043e-09
-1.76651e-06
-1.45028e-08
-1.76635e-06
-2.19786e-08
-1.76603e-06
-2.94416e-08
-1.76549e-06
-1.76422e-06
-3.68403e-08
3.14248e-08
-1.75651e-06
-3.90884e-08
2.36968e-08
-1.75775e-06
1.59565e-08
-1.75828e-06
8.21005e-09
-1.75859e-06
4.60258e-10
-1.75876e-06
-7.2897e-09
-1.75876e-06
-1.50367e-08
-1.7586e-06
-2.27778e-08
-1.75829e-06
-3.05076e-08
-1.75776e-06
-1.75655e-06
-3.81784e-08
3.23967e-08
-1.7486e-06
-4.03108e-08
2.44232e-08
-1.74978e-06
1.64388e-08
-1.75029e-06
8.44874e-09
-1.7506e-06
4.55628e-10
-1.75076e-06
-7.5377e-09
-1.75076e-06
-1.55284e-08
-1.75061e-06
-2.35139e-08
-1.7503e-06
-3.14892e-08
-1.74979e-06
-1.74863e-06
-3.94096e-08
3.32912e-08
-1.74045e-06
-4.14356e-08
2.50919e-08
-1.74158e-06
1.68827e-08
-1.74209e-06
8.66849e-09
-1.74239e-06
4.51386e-10
-1.74255e-06
-7.766e-09
-1.74255e-06
-1.59811e-08
-1.74239e-06
-2.41915e-08
-1.74209e-06
-3.23923e-08
-1.74159e-06
-1.74048e-06
-4.05401e-08
3.41131e-08
-1.7321e-06
-4.24679e-08
2.57066e-08
-1.73317e-06
1.72908e-08
-1.73367e-06
8.87035e-09
-1.73397e-06
4.47148e-10
-1.73412e-06
-7.97644e-09
-1.73412e-06
-1.6398e-08
-1.73397e-06
-2.48155e-08
-1.73367e-06
-3.32241e-08
-1.73318e-06
-1.73212e-06
-4.15822e-08
3.48678e-08
-1.72355e-06
-4.34159e-08
2.62709e-08
-1.72458e-06
1.76651e-08
-1.72506e-06
9.05495e-09
-1.72536e-06
4.42131e-10
-1.72551e-06
-8.17123e-09
-1.72551e-06
-1.6783e-08
-1.72536e-06
-2.53913e-08
-1.72506e-06
-3.39916e-08
-1.72458e-06
-1.72357e-06
-4.25448e-08
3.55602e-08
-1.71482e-06
-4.42866e-08
2.6788e-08
-1.7158e-06
1.80074e-08
-1.71628e-06
9.22267e-09
-1.71658e-06
4.35236e-10
-1.71672e-06
-8.35294e-09
-1.71672e-06
-1.71399e-08
-1.71657e-06
-2.59242e-08
-1.71628e-06
-3.47014e-08
-1.7158e-06
-1.71483e-06
-4.34347e-08
3.61948e-08
-1.70593e-06
-4.50852e-08
2.72613e-08
-1.70687e-06
1.83196e-08
-1.70734e-06
9.3738e-09
-1.70763e-06
4.25241e-10
-1.70777e-06
-8.52431e-09
-1.70777e-06
-1.7473e-08
-1.70762e-06
-2.64197e-08
-1.70733e-06
-3.53601e-08
-1.70686e-06
-1.70593e-06
-4.42598e-08
3.67767e-08
-1.69689e-06
-4.5818e-08
2.76943e-08
-1.69779e-06
1.86037e-08
-1.69825e-06
9.50892e-09
-1.69853e-06
4.11022e-10
-1.69868e-06
-8.68815e-09
-1.69867e-06
-1.77868e-08
-1.69853e-06
-2.68837e-08
-1.69824e-06
-3.59747e-08
-1.69777e-06
-1.69688e-06
-4.50277e-08
3.73104e-08
-1.68771e-06
-4.64904e-08
2.80912e-08
-1.68857e-06
1.88624e-08
-1.68902e-06
9.62872e-09
-1.6893e-06
3.91512e-10
-1.68944e-06
-8.8473e-09
-1.68943e-06
-1.80857e-08
-1.68929e-06
-2.73223e-08
-1.689e-06
-3.65519e-08
-1.68854e-06
-1.68769e-06
-4.57452e-08
3.78016e-08
-1.67841e-06
-4.71075e-08
2.8456e-08
-1.67922e-06
1.90984e-08
-1.67966e-06
9.7345e-09
-1.67994e-06
3.66124e-10
-1.68007e-06
-9.00431e-09
-1.68006e-06
-1.83742e-08
-1.67992e-06
-2.77413e-08
-1.67963e-06
-3.7099e-08
-1.67918e-06
-1.67837e-06
-4.64188e-08
3.82533e-08
-1.66899e-06
-4.76689e-08
2.87917e-08
-1.66976e-06
1.93128e-08
-1.67019e-06
9.82592e-09
-1.67045e-06
3.34406e-10
-1.67058e-06
-9.15964e-09
-1.67057e-06
-1.86542e-08
-1.67042e-06
-2.81454e-08
-1.67014e-06
-3.76217e-08
-1.66971e-06
-1.66894e-06
-4.70487e-08
3.86679e-08
-1.65949e-06
-4.81658e-08
2.90937e-08
-1.66019e-06
1.94968e-08
-1.66059e-06
9.8963e-09
-1.66085e-06
2.95779e-10
-1.66098e-06
-9.30671e-09
-1.66097e-06
-1.89144e-08
-1.66081e-06
-2.85272e-08
-1.66053e-06
-3.81283e-08
-1.66011e-06
-1.65942e-06
-4.76441e-08
3.90501e-08
-1.64985e-06
-4.86924e-08
2.93242e-08
-1.65046e-06
1.96113e-08
-1.65088e-06
9.91945e-09
-1.65116e-06
2.40331e-10
-1.6513e-06
-9.43754e-09
-1.65129e-06
-1.91274e-08
-1.65113e-06
-2.88463e-08
-1.65081e-06
-3.86144e-08
-1.65034e-06
-1.64959e-06
-4.84483e-08
3.93773e-08
-1.63949e-06
-4.97392e-08
2.94423e-08
-1.64053e-06
1.96376e-08
-1.64107e-06
9.8821e-09
-1.6414e-06
1.44104e-10
-1.64156e-06
-9.59256e-09
-1.64155e-06
-1.93435e-08
-1.64137e-06
-2.91389e-08
-1.64101e-06
-3.90611e-08
-1.64042e-06
-1.63922e-06
-4.94332e-08
3.95844e-08
-1.62928e-06
-4.97963e-08
2.9633e-08
-1.63057e-06
1.97531e-08
-1.63119e-06
9.90365e-09
-1.63155e-06
6.55719e-11
-1.63172e-06
-9.77223e-09
-1.63171e-06
-1.96182e-08
-1.63153e-06
-2.9479e-08
-1.63115e-06
-3.9354e-08
-1.63054e-06
-1.62932e-06
-4.92575e-08
3.98246e-08
-1.61958e-06
-4.95184e-08
2.99085e-08
-1.62066e-06
1.99567e-08
-1.62124e-06
1.0004e-08
-1.6216e-06
5.55091e-11
-1.62177e-06
-9.89009e-09
-1.62177e-06
-1.9833e-08
-1.62159e-06
-2.97662e-08
-1.62122e-06
-3.9658e-08
-1.62065e-06
-1.61962e-06
-4.93574e-08
4.00604e-08
-1.60972e-06
-4.99263e-08
3.00892e-08
-1.61069e-06
2.0086e-08
-1.61124e-06
1.00738e-08
-1.61159e-06
6.11257e-11
-1.61176e-06
-9.94838e-09
-1.61176e-06
-1.99516e-08
-1.61158e-06
-2.99432e-08
-1.61123e-06
-3.99083e-08
-1.61068e-06
-1.60973e-06
-4.97989e-08
4.03097e-08
-1.59969e-06
-5.03389e-08
3.02523e-08
-1.60063e-06
2.0188e-08
-1.60117e-06
1.01217e-08
-1.60152e-06
5.54292e-11
-1.6017e-06
-1.00091e-08
-1.6017e-06
-2.00706e-08
-1.60152e-06
-3.01291e-08
-1.60117e-06
-4.01821e-08
-1.60063e-06
-1.59969e-06
-5.02125e-08
4.05994e-08
-1.58955e-06
-5.07336e-08
3.04561e-08
-1.59049e-06
2.03167e-08
-1.59103e-06
1.01818e-08
-1.59139e-06
4.9067e-11
-1.59156e-06
-1.00825e-08
-1.59156e-06
-2.02144e-08
-1.59139e-06
-3.03489e-08
-1.59104e-06
-4.04857e-08
-1.59049e-06
-1.58957e-06
-5.06116e-08
4.09286e-08
-1.57933e-06
-5.11545e-08
3.06978e-08
-1.58026e-06
2.04746e-08
-1.58081e-06
1.0259e-08
-1.58117e-06
4.72417e-11
-1.58135e-06
-1.01636e-08
-1.58135e-06
-2.03766e-08
-1.58118e-06
-3.05953e-08
-1.58082e-06
-4.08196e-08
-1.58027e-06
-1.57935e-06
-5.10371e-08
4.13041e-08
-1.56901e-06
-5.16267e-08
3.09778e-08
-1.56993e-06
2.06614e-08
-1.57049e-06
1.03543e-08
-1.57086e-06
5.22329e-11
-1.57105e-06
-1.02491e-08
-1.57105e-06
-2.05539e-08
-1.57087e-06
-3.08664e-08
-1.5705e-06
-4.11869e-08
-1.56995e-06
-1.56903e-06
-5.15036e-08
4.1734e-08
-1.55857e-06
-5.21677e-08
3.13001e-08
-1.5595e-06
2.08785e-08
-1.56007e-06
1.04682e-08
-1.56045e-06
6.37824e-11
-1.56064e-06
-1.03401e-08
-1.56065e-06
-2.07485e-08
-1.56046e-06
-3.1167e-08
-1.56009e-06
-4.15964e-08
-1.55952e-06
-1.55861e-06
-5.20255e-08
4.22272e-08
-1.54801e-06
-5.27892e-08
3.16702e-08
-1.54894e-06
2.11289e-08
-1.54953e-06
1.06012e-08
-1.54993e-06
8.03211e-11
-1.55012e-06
-1.04401e-08
-1.55013e-06
-2.09667e-08
-1.54994e-06
-3.15059e-08
-1.54955e-06
-4.20597e-08
-1.54897e-06
-1.54805e-06
-5.26179e-08
4.2793e-08
-1.5373e-06
-5.3502e-08
3.20947e-08
-1.53824e-06
2.1416e-08
-1.53885e-06
1.07537e-08
-1.53926e-06
9.95361e-11
-1.53947e-06
-1.05545e-08
-1.53947e-06
-2.12163e-08
-1.53927e-06
-3.18941e-08
-1.53887e-06
-4.25911e-08
-1.53827e-06
-1.53734e-06
-5.3298e-08
4.34422e-08
-1.52642e-06
-5.43203e-08
3.25807e-08
-1.52738e-06
2.17438e-08
-1.52801e-06
1.09264e-08
-1.52845e-06
1.18724e-10
-1.52866e-06
-1.0689e-08
-1.52867e-06
-2.15067e-08
-1.52846e-06
-3.23442e-08
-1.52803e-06
-4.32065e-08
-1.52741e-06
-1.52646e-06
-5.40856e-08
4.41878e-08
-1.51535e-06
-5.52617e-08
3.31371e-08
-1.51633e-06
2.21167e-08
-1.51699e-06
1.112e-08
-1.51745e-06
1.35208e-10
-1.51768e-06
-1.08499e-08
-1.51768e-06
-2.18476e-08
-1.51746e-06
-3.28698e-08
-1.51701e-06
-4.39235e-08
-1.51635e-06
-1.51538e-06
-5.50021e-08
4.5046e-08
-1.50405e-06
-5.63488e-08
3.37749e-08
-1.50506e-06
2.25413e-08
-1.50576e-06
1.13368e-08
-1.50625e-06
1.46936e-10
-1.50649e-06
-1.10434e-08
-1.50649e-06
-2.22492e-08
-1.50625e-06
-3.34855e-08
-1.50577e-06
-4.47612e-08
-1.50508e-06
-1.50407e-06
-5.60714e-08
4.60376e-08
-1.49247e-06
-5.76099e-08
3.45082e-08
-1.49353e-06
2.30261e-08
-1.49428e-06
1.15804e-08
-1.4948e-06
1.5297e-10
-1.49506e-06
-1.12749e-08
-1.49506e-06
-2.27221e-08
-1.49481e-06
-3.4207e-08
-1.49429e-06
-4.5741e-08
-1.49354e-06
-1.49249e-06
-5.73209e-08
4.71878e-08
-1.48058e-06
-5.90779e-08
3.53552e-08
-1.4817e-06
2.3583e-08
-1.48251e-06
1.18566e-08
-1.48307e-06
1.53725e-10
-1.48336e-06
-1.15496e-08
-1.48336e-06
-2.32771e-08
-1.48308e-06
-3.50516e-08
-1.48251e-06
-4.68877e-08
-1.48171e-06
-1.4806e-06
-5.87832e-08
4.8529e-08
-1.46832e-06
-6.07952e-08
3.63391e-08
-1.46951e-06
2.42268e-08
-1.47039e-06
1.21736e-08
-1.47102e-06
1.50853e-10
-1.47133e-06
-1.18721e-08
-1.47134e-06
-2.3926e-08
-1.47102e-06
-3.60394e-08
-1.4704e-06
-4.82309e-08
-1.46952e-06
-1.46833e-06
-6.04993e-08
5.01026e-08
-1.4556e-06
-6.28179e-08
3.74888e-08
-1.45689e-06
2.49763e-08
-1.45788e-06
1.25413e-08
-1.45859e-06
1.4672e-10
-1.45894e-06
-1.22479e-08
-1.45894e-06
-2.46828e-08
-1.45859e-06
-3.71952e-08
-1.45789e-06
-4.98086e-08
-1.4569e-06
-1.45561e-06
-6.25229e-08
5.1963e-08
-1.44234e-06
-6.52209e-08
3.88415e-08
-1.44377e-06
2.5855e-08
-1.44489e-06
1.29722e-08
-1.4457e-06
1.43756e-10
-1.44611e-06
-1.26845e-08
-1.44611e-06
-2.55667e-08
-1.44571e-06
-3.85519e-08
-1.4449e-06
-5.16711e-08
-1.44378e-06
-1.44236e-06
-6.49256e-08
5.41842e-08
-1.42842e-06
-6.81071e-08
4.04482e-08
-1.43003e-06
2.68952e-08
-1.43134e-06
1.34826e-08
-1.43229e-06
1.43755e-10
-1.43277e-06
-1.31947e-08
-1.43277e-06
-2.66063e-08
-1.4323e-06
-4.01572e-08
-1.43135e-06
-5.38896e-08
-1.43005e-06
-1.42844e-06
-6.78073e-08
5.68734e-08
-1.41367e-06
-7.16205e-08
4.23853e-08
-1.41555e-06
2.81465e-08
-1.4171e-06
1.40972e-08
-1.41824e-06
1.47272e-10
-1.41882e-06
-1.38022e-08
-1.41882e-06
-2.78501e-08
-1.41825e-06
-4.20862e-08
-1.41712e-06
-5.65703e-08
-1.41557e-06
-1.4137e-06
-7.13116e-08
6.01926e-08
-1.3979e-06
-7.59662e-08
4.47748e-08
-1.40013e-06
2.96915e-08
-1.40202e-06
1.48575e-08
-1.40341e-06
1.53265e-10
-1.40412e-06
-1.45505e-08
-1.40412e-06
-2.93827e-08
-1.40342e-06
-4.44631e-08
-1.40204e-06
-5.98766e-08
-1.40015e-06
-1.39793e-06
-7.56446e-08
6.43845e-08
-1.38086e-06
-8.14249e-08
4.78124e-08
-1.38356e-06
3.16673e-08
-1.38587e-06
1.58331e-08
-1.38757e-06
1.59227e-10
-1.38844e-06
-1.5514e-08
-1.38845e-06
-3.13462e-08
-1.38758e-06
-4.74876e-08
-1.38589e-06
-6.40548e-08
-1.38359e-06
-1.3809e-06
-8.10897e-08
6.97816e-08
-1.3623e-06
-8.83416e-08
5.1777e-08
-1.36555e-06
3.4269e-08
-1.36837e-06
1.71212e-08
-1.37042e-06
1.62011e-10
-1.37149e-06
-1.67962e-08
-1.37149e-06
-3.39411e-08
-1.37044e-06
-5.14441e-08
-1.36839e-06
-6.94423e-08
-1.36559e-06
-1.36235e-06
-8.79954e-08
7.67155e-08
-1.34199e-06
-9.70271e-08
5.69344e-08
-1.34577e-06
3.76611e-08
-1.34909e-06
1.87936e-08
-1.35156e-06
1.59147e-10
-1.35285e-06
-1.84738e-08
-1.35286e-06
-3.73367e-08
-1.35158e-06
-5.66023e-08
-1.34912e-06
-7.63736e-08
-1.34582e-06
-1.34204e-06
-9.66748e-08
8.51299e-08
-1.31971e-06
-1.07412e-07
6.31396e-08
-1.32378e-06
4.16573e-08
-1.32761e-06
2.07253e-08
-1.33062e-06
1.50097e-10
-1.33228e-06
-2.04228e-08
-1.33228e-06
-4.13473e-08
-1.33065e-06
-6.28171e-08
-1.32766e-06
-8.47921e-08
-1.32384e-06
-1.31978e-06
-1.07058e-07
9.36814e-08
-1.29493e-06
-1.18456e-07
6.89295e-08
-1.29903e-06
4.51456e-08
-1.30383e-06
2.23896e-08
-1.30787e-06
1.3688e-10
-1.31002e-06
-2.21127e-08
-1.31003e-06
-4.4859e-08
-1.3079e-06
-6.86253e-08
-1.30389e-06
-9.33538e-08
-1.29911e-06
-1.29503e-06
-1.18104e-07
9.79738e-08
-1.26544e-06
-1.2747e-07
7.01453e-08
-1.2712e-06
4.58134e-08
-1.27949e-06
2.30952e-08
-1.28515e-06
1.24392e-10
-1.28705e-06
-2.28425e-08
-1.28707e-06
-4.55548e-08
-1.28519e-06
-6.98743e-08
-1.27957e-06
-9.76724e-08
-1.27131e-06