/*--------------------------------*- C++ -*----------------------------------*\
  =========                 |
  \\      /  F ield         | OpenFOAM: The Open Source CFD Toolbox
   \\    /   O peration     | Website:  https://openfoam.org
    \\  /    A nd           | Version:  8
     \\/     M anipulation  |
\*---------------------------------------------------------------------------*/
FoamFile
{
    version     2.0;
    format      ascii;
    class       volVectorField;
    location    "0.55";
    object      U;
}
// * * * * * * * * * * * * * * * * * * * * * * * * * * * * * * * * * * * * * //

dimensions      [0 1 -1 0 0 0 0];

internalField   nonuniform List<vector> 
9150
(
(0.053694 -0.428576 0)
(0.0879944 -0.622206 0)
(0.0735314 -0.631567 0)
(0.0488401 -0.643954 0)
(0.0171193 -0.654793 0)
(-0.0171187 -0.654793 0)
(-0.0488396 -0.643955 0)
(-0.0735311 -0.631568 0)
(-0.0879943 -0.622207 0)
(-0.0536939 -0.428576 0)
(0.0406382 -0.522304 0)
(0.0573939 -0.625696 0)
(0.0424045 -0.613321 0)
(0.029544 -0.62257 0)
(0.0105649 -0.62907 0)
(-0.0105645 -0.62907 0)
(-0.0295436 -0.62257 0)
(-0.0424042 -0.613321 0)
(-0.0573937 -0.625696 0)
(-0.0406381 -0.522304 0)
(0.0252004 -0.557693 0)
(0.0325241 -0.613926 0)
(0.023241 -0.604529 0)
(0.0173592 -0.610041 0)
(0.0062943 -0.613306 0)
(-0.00629408 -0.613306 0)
(-0.017359 -0.610041 0)
(-0.0232409 -0.604529 0)
(-0.032524 -0.613926 0)
(-0.0252003 -0.557693 0)
(0.0153499 -0.584561 0)
(0.017482 -0.60756 0)
(0.0118718 -0.601162 0)
(0.008938 -0.603294 0)
(0.003275 -0.604447 0)
(-0.00327493 -0.604447 0)
(-0.00893794 -0.603294 0)
(-0.0118717 -0.601162 0)
(-0.017482 -0.60756 0)
(-0.0153499 -0.584561 0)
(0.00628777 -0.597112 0)
(0.00556371 -0.601437 0)
(0.00364432 -0.600047 0)
(0.00270948 -0.600353 0)
(0.00100789 -0.600497 0)
(-0.00100787 -0.600497 0)
(-0.00270946 -0.600353 0)
(-0.00364431 -0.600047 0)
(-0.00556369 -0.601437 0)
(-0.00628776 -0.597112 0)
(0.46795 -1.15967 1.69834e-24)
(0.282135 -1.08567 0)
(0.162689 -1.06946 0)
(0.0916799 -1.05858 0)
(0.0301962 -1.05455 0)
(-0.0301893 -1.05455 0)
(-0.0916738 -1.05858 0)
(-0.162684 -1.06946 0)
(-0.282131 -1.08568 0)
(-0.467952 -1.15968 -1.69844e-24)
(0.333567 -0.843086 4.71436e-25)
(0.287157 -0.936019 0)
(0.188304 -0.936854 0)
(0.107953 -0.937624 0)
(0.0356428 -0.940503 0)
(-0.0356389 -0.940504 0)
(-0.107949 -0.937626 0)
(-0.188302 -0.936857 0)
(-0.287156 -0.936023 0)
(-0.333568 -0.84309 -4.71456e-25)
(0.278073 -0.701086 7.30096e-26)
(0.258984 -0.804083 0)
(0.178441 -0.817493 0)
(0.104609 -0.829026 0)
(0.034857 -0.837549 0)
(-0.0348547 -0.837549 0)
(-0.104607 -0.829027 0)
(-0.178439 -0.817494 0)
(-0.258984 -0.804084 0)
(-0.278074 -0.701088 -7.30148e-26)
(0.198824 -0.553237 3.08452e-25)
(0.216416 -0.709028 0)
(0.154703 -0.725919 0)
(0.0915079 -0.742536 0)
(0.0306099 -0.754716 0)
(-0.0306084 -0.754716 0)
(-0.0915067 -0.742536 0)
(-0.154702 -0.72592 0)
(-0.216416 -0.709029 0)
(-0.198824 -0.553238 -3.08451e-25)
(0.11783 -0.445043 -4.875e-25)
(0.155981 -0.644096 -6.96538e-25)
(0.117117 -0.663874 -2.38161e-25)
(0.0711517 -0.681559 -1.57415e-25)
(0.0240557 -0.694734 -9.28081e-27)
(-0.0240548 -0.694734 -9.27995e-27)
(-0.0711509 -0.681559 -1.57413e-25)
(-0.117116 -0.663874 -2.38161e-25)
(-0.155981 -0.644096 -6.96538e-25)
(-0.11783 -0.445044 -4.87501e-25)
(0.0121924 -0.937934 0)
(-0.040682 -1.32634 0)
(0.021051 -1.26413 0)
(-0.00323283 -1.22463 0)
(0.00329105 -1.22289 0)
(-0.00323467 -1.22289 0)
(0.00331182 -1.22464 0)
(-0.0209736 -1.26413 0)
(0.0407469 -1.32633 0)
(-0.0121356 -0.938229 0)
(0.0488715 -0.914496 0)
(-0.0256858 -1.3295 0)
(0.0218433 -1.26707 0)
(0.000419452 -1.22425 0)
(0.000728774 -1.2222 0)
(-0.00069409 -1.2222 0)
(-0.000366829 -1.22425 0)
(-0.0217985 -1.26707 0)
(0.025745 -1.32953 0)
(-0.0488545 -0.914644 0)
(0.0770611 -0.950213 0)
(-0.025039 -1.34423 0)
(0.0152406 -1.27384 0)
(0.00570896 -1.23144 0)
(-0.000151527 -1.2264 0)
(0.000180569 -1.22641 0)
(-0.00567536 -1.23144 0)
(-0.015218 -1.27384 0)
(0.0250799 -1.34424 0)
(-0.0770474 -0.95031 0)
(0.145557 -1.08101 0)
(0.00276926 -1.36442 0)
(0.0141455 -1.27054 0)
(0.0212976 -1.2263 0)
(0.00587733 -1.21529 0)
(-0.00585729 -1.2153 0)
(-0.0212787 -1.22631 0)
(-0.0141337 -1.27054 0)
(-0.00274112 -1.36443 0)
(-0.145546 -1.08106 0)
(0.299528 -1.21718 0)
(0.128077 -1.32077 0)
(0.0683986 -1.21003 0)
(0.0555368 -1.16957 0)
(0.0197583 -1.15796 0)
(-0.0197464 -1.15796 0)
(-0.0555269 -1.16957 0)
(-0.0683889 -1.21004 0)
(-0.128063 -1.32078 0)
(-0.299527 -1.2172 0)
(-0.651794 -0.217913 0)
(-0.512316 -0.227 0)
(-0.368621 -0.234008 0)
(-0.222668 -0.239205 0)
(-0.0760864 -0.242336 0)
(0.0704064 -0.242383 0)
(0.216982 -0.239323 0)
(0.362959 -0.234181 0)
(0.506739 -0.227245 0)
(0.646386 -0.218271 0)
(-0.491059 -0.393655 0)
(-0.387867 -0.411058 0)
(-0.280619 -0.422497 0)
(-0.170533 -0.429386 0)
(-0.0585044 -0.43264 0)
(0.0543245 -0.432678 0)
(0.166396 -0.429514 0)
(0.276556 -0.422751 0)
(0.383913 -0.411504 0)
(0.487274 -0.394385 0)
(-0.3683 -0.55854 0)
(-0.290212 -0.582713 0)
(-0.209501 -0.598531 0)
(-0.126997 -0.607991 0)
(-0.0434189 -0.612402 0)
(0.0405351 -0.612456 0)
(0.124135 -0.608172 0)
(0.206683 -0.598891 0)
(0.287464 -0.583341 0)
(0.365657 -0.559568 0)
(-0.268099 -0.690363 0)
(-0.210958 -0.719996 0)
(-0.152191 -0.739424 0)
(-0.0921786 -0.751182 0)
(-0.0314208 -0.756741 0)
(0.0295861 -0.756812 0)
(0.0903595 -0.751411 0)
(0.150403 -0.739865 0)
(0.209212 -0.720748 0)
(0.266393 -0.691594 0)
(-0.189613 -0.781999 0)
(-0.148431 -0.815709 0)
(-0.107051 -0.837903 0)
(-0.064861 -0.851494 0)
(-0.0220372 -0.857997 0)
(0.0210103 -0.858087 0)
(0.0638549 -0.851778 0)
(0.106082 -0.838429 0)
(0.147493 -0.816578 0)
(0.188639 -0.783407 0)
(-0.145385 -0.851262 0)
(-0.111036 -0.885072 0)
(-0.0790978 -0.908056 0)
(-0.0476873 -0.922448 0)
(-0.016131 -0.929443 0)
(0.0155234 -0.929549 0)
(0.0470909 -0.922774 0)
(0.0785102 -0.908631 0)
(0.110405 -0.88595 0)
(0.144615 -0.852516 0)
(-0.127659 -0.91376 0)
(-0.0952259 -0.943764 0)
(-0.0663904 -0.964933 0)
(-0.0395803 -0.978463 0)
(-0.0133385 -0.985129 0)
(0.012808 -0.985226 0)
(0.0390342 -0.97876 0)
(0.0657853 -0.965448 0)
(0.0944692 -0.944549 0)
(0.126739 -0.914899 0)
(-0.120579 -0.976513 0)
(-0.0908696 -1.0001 0)
(-0.0624384 -1.01756 0)
(-0.0368602 -1.02901 0)
(-0.012395 -1.03473 0)
(0.011838 -1.0348 0)
(0.0362881 -1.02924 0)
(0.0617967 -1.01793 0)
(0.0900662 -1.00057 0)
(0.119942 -0.977023 0)
(-0.116839 -1.03854 0)
(-0.0905086 -1.05569 0)
(-0.0622274 -1.06924 0)
(-0.0366487 -1.0784 0)
(-0.0123601 -1.08303 0)
(0.0116371 -1.08309 0)
(0.0359011 -1.07857 0)
(0.0614113 -1.0695 0)
(0.0896048 -1.05596 0)
(0.116193 -1.03862 0)
(-0.113101 -1.09638 0)
(-0.0903275 -1.10966 0)
(-0.0626075 -1.12057 0)
(-0.0369157 -1.12798 0)
(-0.0124649 -1.13173 0)
(0.0116885 -1.13176 0)
(0.036111 -1.1281 0)
(0.0617374 -1.12077 0)
(0.0894257 -1.10997 0)
(0.112522 -1.09675 0)
(-0.108515 -1.14951 0)
(-0.0884922 -1.16144 0)
(-0.0619881 -1.171 0)
(-0.0365408 -1.17733 0)
(-0.0122943 -1.18047 0)
(0.0116417 -1.1805 0)
(0.0358664 -1.17741 0)
(0.061257 -1.17115 0)
(0.087859 -1.16168 0)
(0.108065 -1.14992 0)
(-0.103438 -1.20075 0)
(-0.0850522 -1.21172 0)
(-0.0604572 -1.22004 0)
(-0.0355562 -1.2255 0)
(-0.0119182 -1.22819 0)
(0.011349 -1.22822 0)
(0.034966 -1.22558 0)
(0.0598191 -1.22016 0)
(0.0845589 -1.21187 0)
(0.103105 -1.20095 0)
(-0.0980579 -1.25102 0)
(-0.0811846 -1.26031 0)
(-0.0585032 -1.26729 0)
(-0.0343656 -1.27197 0)
(-0.0114902 -1.27429 0)
(0.0109647 -1.27431 0)
(0.0338194 -1.27205 0)
(0.0579233 -1.26741 0)
(0.0808149 -1.26044 0)
(0.0977917 -1.2512 0)
(-0.0925326 -1.29831 0)
(-0.0769847 -1.30648 0)
(-0.0563332 -1.3125 0)
(-0.033092 -1.31659 0)
(-0.0110412 -1.31863 0)
(0.0105576 -1.31866 0)
(0.0325887 -1.31667 0)
(0.0558126 -1.31263 0)
(0.076715 -1.30662 0)
(0.092392 -1.29844 0)
(-0.0868249 -1.3434 0)
(-0.0726395 -1.35035 0)
(-0.0539724 -1.35564 0)
(-0.0317309 -1.35931 0)
(-0.0105528 -1.36116 0)
(0.0101566 -1.36119 0)
(0.0313124 -1.35942 0)
(0.0535486 -1.35582 0)
(0.072467 -1.3506 0)
(0.0868038 -1.34357 0)
(-0.0813875 -1.38578 0)
(-0.0684096 -1.39162 0)
(-0.0514119 -1.39658 0)
(-0.0302937 -1.40005 0)
(-0.0100174 -1.40178 0)
(0.00977624 -1.40181 0)
(0.0300224 -1.40015 0)
(0.0511801 -1.39677 0)
(0.0683289 -1.39191 0)
(0.0813769 -1.38609 0)
(-0.0765722 -1.42568 0)
(-0.0643617 -1.43097 0)
(-0.0486243 -1.4356 0)
(-0.0288113 -1.43882 0)
(-0.0094709 -1.44043 0)
(0.00936913 -1.44045 0)
(0.0286775 -1.43891 0)
(0.0485295 -1.43575 0)
(0.0644147 -1.43119 0)
(0.076742 -1.42597 0)
(-0.07142 -1.46358 0)
(-0.0603279 -1.46848 0)
(-0.0458933 -1.47266 0)
(-0.0273182 -1.47557 0)
(-0.00893575 -1.47703 0)
(0.00894763 -1.47706 0)
(0.0272974 -1.47565 0)
(0.0459211 -1.47279 0)
(0.0604912 -1.46869 0)
(0.0717152 -1.46383 0)
(-0.0664036 -1.49918 0)
(-0.0563749 -1.50372 0)
(-0.0431533 -1.5076 0)
(-0.0258286 -1.51027 0)
(-0.00841547 -1.51162 0)
(0.0085094 -1.51163 0)
(0.0258897 -1.51033 0)
(0.0432701 -1.5077 0)
(0.0566119 -1.50387 0)
(0.0667801 -1.49936 0)
(-0.0615767 -1.53277 0)
(-0.0525474 -1.53695 0)
(-0.0404377 -1.54052 0)
(-0.024346 -1.54296 0)
(-0.00791123 -1.54419 0)
(0.00805129 -1.54421 0)
(0.0244545 -1.543 0)
(0.0406092 -1.54059 0)
(0.0528263 -1.53705 0)
(0.0619967 -1.53287 0)
(-0.0569608 -1.56428 0)
(-0.0488526 -1.56815 0)
(-0.0377674 -1.57143 0)
(-0.0228805 -1.57365 0)
(-0.00742388 -1.57477 0)
(0.00758252 -1.57478 0)
(0.0230104 -1.57367 0)
(0.0379672 -1.57146 0)
(0.0491484 -1.56819 0)
(0.0573889 -1.56432 0)
(-0.0525732 -1.59373 0)
(-0.045285 -1.59734 0)
(-0.0351454 -1.60034 0)
(-0.0214291 -1.60236 0)
(-0.00694853 -1.60338 0)
(0.00710889 -1.60338 0)
(0.0215643 -1.60236 0)
(0.0353565 -1.60034 0)
(0.0455806 -1.59735 0)
(0.0529802 -1.59373 0)
(-0.0484207 -1.62115 0)
(-0.0418392 -1.62455 0)
(-0.0325739 -1.62729 0)
(-0.0199885 -1.62912 0)
(-0.0064804 -1.63005 0)
(0.0066352 -1.63004 0)
(0.0201224 -1.62911 0)
(0.0327882 -1.62727 0)
(0.0421268 -1.62453 0)
(0.0487876 -1.62112 0)
(-0.0444975 -1.64658 0)
(-0.038511 -1.64981 0)
(-0.0300575 -1.65231 0)
(-0.0185592 -1.65396 0)
(-0.00601786 -1.6548 0)
(0.00616379 -1.6548 0)
(0.0186889 -1.65395 0)
(0.0302707 -1.65228 0)
(0.0387879 -1.64976 0)
(0.0448153 -1.64652 0)
(-0.0408008 -1.67012 0)
(-0.0353015 -1.67316 0)
(-0.027605 -1.67542 0)
(-0.0171473 -1.67692 0)
(-0.00556241 -1.67768 0)
(0.00569676 -1.67767 0)
(0.0172703 -1.6769 0)
(0.0278141 -1.67539 0)
(0.0355665 -1.6731 0)
(0.0410606 -1.67001 0)
(-0.037338 -1.69187 0)
(-0.0322209 -1.69464 0)
(-0.0252306 -1.69668 0)
(-0.0157622 -1.69803 0)
(-0.00511519 -1.69872 0)
(0.00524037 -1.69871 0)
(0.0158798 -1.69802 0)
(0.0254347 -1.69665 0)
(0.0324723 -1.69458 0)
(0.0375243 -1.69169 0)
(-0.0341008 -1.71152 0)
(-0.0292595 -1.71424 0)
(-0.022926 -1.71611 0)
(-0.0143943 -1.71735 0)
(-0.00466331 -1.71798 0)
(0.00481029 -1.71797 0)
(0.0145371 -1.71734 0)
(0.0231533 -1.71611 0)
(0.0295224 -1.71424 0)
(0.0342229 -1.71157 0)
(-0.0309276 -1.72938 0)
(-0.026394 -1.73207 0)
(-0.0206935 -1.73379 0)
(-0.0130447 -1.73492 0)
(-0.00420752 -1.7355 0)
(0.00440403 -1.7355 0)
(0.0132396 -1.73493 0)
(0.0209669 -1.7338 0)
(0.0267074 -1.73209 0)
(0.0311206 -1.72945 0)
(-0.0278895 -1.74561 0)
(-0.0236564 -1.7482 0)
(-0.0185577 -1.74978 0)
(-0.0117378 -1.75081 0)
(-0.00376634 -1.75135 0)
(0.00400856 -1.75135 0)
(0.0119796 -1.75083 0)
(0.0188704 -1.7498 0)
(0.0240074 -1.74822 0)
(0.0281051 -1.74563 0)
(-0.0249732 -1.76008 0)
(-0.0210598 -1.76267 0)
(-0.0165252 -1.76411 0)
(-0.0104745 -1.76508 0)
(-0.00333578 -1.76558 0)
(0.00363443 -1.76559 0)
(0.0107735 -1.76511 0)
(0.0168807 -1.76417 0)
(0.0214454 -1.76272 0)
(0.0252292 -1.76021 0)
(-0.0221687 -1.77291 0)
(-0.0186215 -1.77555 0)
(-0.0145956 -1.7769 0)
(-0.00924661 -1.7778 0)
(-0.00291439 -1.77827 0)
(0.00328336 -1.77828 0)
(0.00962235 -1.77783 0)
(0.0150011 -1.77695 0)
(0.0190305 -1.77562 0)
(0.0224832 -1.77312 0)
(-0.0194764 -1.78427 0)
(-0.0162927 -1.78693 0)
(-0.0127622 -1.78821 0)
(-0.00808318 -1.78905 0)
(-0.00251823 -1.78949 0)
(0.00293793 -1.7895 0)
(0.00850481 -1.78907 0)
(0.0132149 -1.78824 0)
(0.0167577 -1.78699 0)
(0.0198482 -1.78446 0)
(-0.0169035 -1.79422 0)
(-0.0140863 -1.79688 0)
(-0.011026 -1.7981 0)
(-0.00697937 -1.79889 0)
(-0.00214655 -1.79929 0)
(0.00259887 -1.7993 0)
(0.00743379 -1.7989 0)
(0.0115071 -1.79813 0)
(0.0145773 -1.79693 0)
(0.0173114 -1.79438 0)
(-0.0144517 -1.80283 0)
(-0.0120013 -1.80548 0)
(-0.00938546 -1.80663 0)
(-0.00593348 -1.80737 0)
(-0.00179699 -1.80775 0)
(0.00226963 -1.80775 0)
(0.00640774 -1.80738 0)
(0.00988162 -1.80666 0)
(0.0125058 -1.80552 0)
(0.0148847 -1.80297 0)
(-0.0121188 -1.81016 0)
(-0.0100315 -1.81279 0)
(-0.00783557 -1.81388 0)
(-0.00494309 -1.81457 0)
(-0.0014678 -1.81492 0)
(0.00195229 -1.81493 0)
(0.00542909 -1.81458 0)
(0.00833973 -1.8139 0)
(0.010543 -1.81282 0)
(0.0125705 -1.81029 0)
(-0.00990205 -1.81627 0)
(-0.00817104 -1.81886 0)
(-0.00637143 -1.8199 0)
(-0.0040053 -1.82055 0)
(-0.00115673 -1.82089 0)
(0.00164884 -1.82089 0)
(0.00449877 -1.82056 0)
(0.00687963 -1.81992 0)
(0.00868555 -1.81889 0)
(0.0103686 -1.81639 0)
(-0.00779985 -1.82122 0)
(-0.00641474 -1.82378 0)
(-0.0049888 -1.82477 0)
(-0.00311782 -1.82538 0)
(-0.000862368 -1.8257 0)
(0.00136023 -1.8257 0)
(0.00361684 -1.82539 0)
(0.00549936 -1.82478 0)
(0.0069304 -1.8238 0)
(0.00827761 -1.82134 0)
(-0.00580918 -1.82508 0)
(-0.00475809 -1.82759 0)
(-0.00368423 -1.82854 0)
(-0.00227893 -1.82912 0)
(-0.00058388 -1.82941 0)
(0.00108685 -1.82942 0)
(0.00278274 -1.82912 0)
(0.00419648 -1.82854 0)
(0.00527426 -1.82761 0)
(0.00629819 -1.82519 0)
(-0.00392918 -1.82791 0)
(-0.00319717 -1.83037 0)
(-0.00245472 -1.83127 0)
(-0.00148735 -1.83182 0)
(-0.000320847 -1.8321 0)
(0.000828633 -1.83211 0)
(0.00199566 -1.83183 0)
(0.00296872 -1.83128 0)
(0.00371365 -1.83038 0)
(0.00442654 -1.82801 0)
(-0.00215805 -1.82976 0)
(-0.0017287 -1.83216 0)
(-0.00129783 -1.83303 0)
(-0.000741956 -1.83356 0)
(-7.30039e-05 -1.83382 0)
(0.00058538 -1.83383 0)
(0.00125461 -1.83356 0)
(0.00181364 -1.83303 0)
(0.00224583 -1.83217 0)
(0.00266477 -1.82985 0)
(-0.000493877 -1.83069 0)
(-0.000349352 -1.83304 0)
(-0.000211072 -1.83387 0)
(-4.15948e-05 -1.83437 0)
(0.000159888 -1.83463 0)
(0.000356643 -1.83463 0)
(0.000558209 -1.83438 0)
(0.000728612 -1.83388 0)
(0.00086705 -1.83305 0)
(0.0010085 -1.83078 0)
(0.00106655 -1.83076 0)
(0.000944369 -1.83305 0)
(0.000808162 -1.83385 0)
(0.000615164 -1.83433 0)
(0.000378264 -1.83458 0)
(0.000142143 -1.83458 0)
(-9.48854e-05 -1.83434 0)
(-0.000289071 -1.83386 0)
(-0.000426236 -1.83306 0)
(-0.000544942 -1.83085 0)
(0.00252537 -1.83002 0)
(0.00215551 -1.83225 0)
(0.00176218 -1.83303 0)
(0.00122942 -1.83349 0)
(0.000582215 -1.83373 0)
(-5.88861e-05 -1.83373 0)
(-0.000706393 -1.83349 0)
(-0.00124214 -1.83303 0)
(-0.00163737 -1.83226 0)
(-0.00199817 -1.8301 0)
(0.00388559 -1.82853 0)
(0.00328755 -1.8307 0)
(0.00265362 -1.83145 0)
(0.00180254 -1.8319 0)
(0.000772041 -1.83212 0)
(-0.000247026 -1.83212 0)
(-0.00127796 -1.8319 0)
(-0.00213367 -1.83145 0)
(-0.00277031 -1.83071 0)
(-0.00335423 -1.82861 0)
(0.00515077 -1.82634 0)
(0.00434421 -1.82844 0)
(0.00348526 -1.82917 0)
(0.00233604 -1.8296 0)
(0.000948102 -1.82982 0)
(-0.000423013 -1.82982 0)
(-0.00181146 -1.8296 0)
(-0.0029667 -1.82917 0)
(-0.00382903 -1.82845 0)
(-0.00461735 -1.82642 0)
(0.00632474 -1.82349 0)
(0.0053292 -1.82553 0)
(0.00425999 -1.82623 0)
(0.00283167 -1.82665 0)
(0.001111 -1.82686 0)
(-0.000587378 -1.82686 0)
(-0.00230863 -1.82665 0)
(-0.0037442 -1.82624 0)
(-0.00481734 -1.82554 0)
(-0.00579117 -1.82357 0)
(0.00741191 -1.82004 0)
(0.00624654 -1.822 0)
(0.00498099 -1.82269 0)
(0.00329138 -1.82309 0)
(0.00126142 -1.8233 0)
(-0.000740651 -1.8233 0)
(-0.00277128 -1.8231 0)
(-0.00446926 -1.8227 0)
(-0.00573921 -1.82202 0)
(-0.00688011 -1.82011 0)
(0.00841704 -1.81602 0)
(0.0071003 -1.81792 0)
(0.00565149 -1.81858 0)
(0.00371717 -1.81897 0)
(0.00140006 -1.81917 0)
(-0.000883375 -1.81918 0)
(-0.00320126 -1.81898 0)
(-0.00514498 -1.81859 0)
(-0.00659854 -1.81793 0)
(-0.00788872 -1.8161 0)
(0.00934473 -1.81149 0)
(0.00789427 -1.8133 0)
(0.00627453 -1.81395 0)
(0.0041109 -1.81433 0)
(0.00152754 -1.81452 0)
(-0.00101612 -1.81453 0)
(-0.00360032 -1.81433 0)
(-0.0057742 -1.81396 0)
(-0.00739891 -1.81332 0)
(-0.00882134 -1.81156 0)
(0.0101994 -1.80646 0)
(0.00863195 -1.8082 0)
(0.0068529 -1.80883 0)
(0.00447441 -1.8092 0)
(0.00164455 -1.80939 0)
(-0.00113936 -1.80939 0)
(-0.00397 -1.80921 0)
(-0.00635933 -1.80884 0)
(-0.0081434 -1.80822 0)
(-0.00968175 -1.80652 0)
(0.0109851 -1.80097 0)
(0.00931652 -1.80265 0)
(0.0073892 -1.80326 0)
(0.00480945 -1.80363 0)
(0.00175183 -1.80381 0)
(-0.00125345 -1.80381 0)
(-0.00431167 -1.80363 0)
(-0.00690256 -1.80327 0)
(-0.00883482 -1.80266 0)
(-0.0104736 -1.80103 0)
(0.0117059 -1.79507 0)
(0.00995119 -1.79668 0)
(0.00788603 -1.79728 0)
(0.00511784 -1.79764 0)
(0.00185018 -1.79782 0)
(-0.00135873 -1.79782 0)
(-0.00462679 -1.79764 0)
(-0.0074063 -1.79729 0)
(-0.00947619 -1.79669 0)
(-0.0112009 -1.79512 0)
(0.0123666 -1.78879 0)
(0.0105394 -1.79033 0)
(0.00834623 -1.79092 0)
(0.0054015 -1.79126 0)
(0.00194036 -1.79144 0)
(-0.00145562 -1.79144 0)
(-0.00491698 -1.79127 0)
(-0.00787315 -1.79092 0)
(-0.0100708 -1.79034 0)
(-0.0118681 -1.78884 0)
(0.0129716 -1.78215 0)
(0.0110847 -1.78363 0)
(0.00877266 -1.7842 0)
(0.0056623 -1.78454 0)
(0.00202306 -1.78472 0)
(-0.00154469 -1.78472 0)
(-0.00518403 -1.78455 0)
(-0.00830593 -1.78421 0)
(-0.0106223 -1.78364 0)
(-0.0124797 -1.7822 0)
(0.0135255 -1.7752 0)
(0.0115905 -1.7766 0)
(0.00916812 -1.77716 0)
(0.00590207 -1.7775 0)
(0.0020989 -1.77767 0)
(-0.0016265 -1.77767 0)
(-0.00542972 -1.7775 0)
(-0.00870744 -1.77717 0)
(-0.0111339 -1.77662 0)
(-0.0130402 -1.77524 0)
(0.0140327 -1.76794 0)
(0.01206 -1.76928 0)
(0.00953522 -1.76983 0)
(0.00612251 -1.77015 0)
(0.00216847 -1.77032 0)
(-0.00170161 -1.77032 0)
(-0.00565568 -1.77016 0)
(-0.00908021 -1.76983 0)
(-0.011609 -1.76929 0)
(-0.0135539 -1.76799 0)
(0.0144969 -1.76041 0)
(0.0124961 -1.76168 0)
(0.00987624 -1.76221 0)
(0.00632509 -1.76253 0)
(0.00223225 -1.76269 0)
(-0.00177053 -1.7627 0)
(-0.00586336 -1.76254 0)
(-0.00942636 -1.76222 0)
(-0.01205 -1.76169 0)
(-0.0140243 -1.76045 0)
(0.0149214 -1.75261 0)
(0.012901 -1.75382 0)
(0.0101931 -1.75435 0)
(0.00651108 -1.75466 0)
(0.00229071 -1.75482 0)
(-0.00183369 -1.75482 0)
(-0.00605399 -1.75466 0)
(-0.00974772 -1.75435 0)
(-0.0124593 -1.75383 0)
(-0.0144545 -1.75265 0)
(0.0153091 -1.74458 0)
(0.0132769 -1.74573 0)
(0.0104873 -1.74624 0)
(0.00668161 -1.74655 0)
(0.00234422 -1.74671 0)
(-0.00189152 -1.74671 0)
(-0.00622877 -1.74655 0)
(-0.010046 -1.74625 0)
(-0.012839 -1.74574 0)
(-0.0148475 -1.74461 0)
(0.0156624 -1.73633 0)
(0.0136254 -1.73743 0)
(0.0107604 -1.73793 0)
(0.00683758 -1.73823 0)
(0.00239299 -1.73838 0)
(-0.00194461 -1.73838 0)
(-0.00638905 -1.73823 0)
(-0.0103233 -1.73793 0)
(-0.0131916 -1.73743 0)
(-0.0152066 -1.73635 0)
(0.0159839 -1.72787 0)
(0.0139482 -1.72892 0)
(0.0110136 -1.72941 0)
(0.0069797 -1.72971 0)
(0.00243699 -1.72986 0)
(-0.00199371 -1.72986 0)
(-0.00653636 -1.72971 0)
(-0.0105817 -1.72941 0)
(-0.0135196 -1.72892 0)
(-0.0155351 -1.72789 0)
(0.016276 -1.71923 0)
(0.0142469 -1.72023 0)
(0.0112482 -1.72072 0)
(0.00710861 -1.72101 0)
(0.00247609 -1.72116 0)
(-0.00203979 -1.72116 0)
(-0.00667241 -1.72101 0)
(-0.0108234 -1.72071 0)
(-0.0138256 -1.72023 0)
(-0.0158363 -1.71924 0)
(0.016541 -1.71042 0)
(0.0145232 -1.71138 0)
(0.0114652 -1.71185 0)
(0.00722485 -1.71214 0)
(0.00251008 -1.71229 0)
(-0.00208385 -1.71229 0)
(-0.00679897 -1.71214 0)
(-0.0110508 -1.71185 0)
(-0.0141124 -1.71137 0)
(-0.0161137 -1.71042 0)
(0.0167815 -1.70145 0)
(0.0147786 -1.70236 0)
(0.011666 -1.70283 0)
(0.00732922 -1.70312 0)
(0.00253883 -1.70326 0)
(-0.00212692 -1.70326 0)
(-0.0069179 -1.70311 0)
(-0.0112663 -1.70282 0)
(-0.0143829 -1.70235 0)
(-0.0163708 -1.70144 0)
(0.0169999 -1.69234 0)
(0.0150156 -1.69321 0)
(0.0118523 -1.69367 0)
(0.00742248 -1.69395 0)
(0.00256233 -1.69409 0)
(-0.00216999 -1.69409 0)
(-0.00703112 -1.69394 0)
(-0.0114725 -1.69365 0)
(-0.01464 -1.69319 0)
(-0.0166116 -1.69232 0)
(0.0171998 -1.68309 0)
(0.0152354 -1.68393 0)
(0.0120252 -1.68437 0)
(0.00750601 -1.68465 0)
(0.00258072 -1.68479 0)
(-0.00221385 -1.68478 0)
(-0.0071406 -1.68463 0)
(-0.0116717 -1.68435 0)
(-0.0148867 -1.68389 0)
(-0.0168401 -1.68306 0)
(0.0173833 -1.67372 0)
(0.0154401 -1.67452 0)
(0.0121856 -1.67495 0)
(0.0075798 -1.67522 0)
(0.0025938 -1.67535 0)
(-0.00225872 -1.67535 0)
(-0.00724678 -1.6752 0)
(-0.011865 -1.67492 0)
(-0.0151255 -1.67447 0)
(-0.0170601 -1.67368 0)
(0.0175535 -1.66426 0)
(0.0156278 -1.665 0)
(0.0123289 -1.66541 0)
(0.0076398 -1.66567 0)
(0.00259956 -1.6658 0)
(-0.00230304 -1.66579 0)
(-0.00734525 -1.66564 0)
(-0.0120469 -1.66536 0)
(-0.0153525 -1.66494 0)
(-0.0172766 -1.66421 0)
(0.0177041 -1.65474 0)
(0.0157769 -1.65537 0)
(0.012437 -1.65576 0)
(0.0076702 -1.65602 0)
(0.00258879 -1.65616 0)
(-0.00234743 -1.65615 0)
(-0.00742827 -1.65599 0)
(-0.0122034 -1.6557 0)
(-0.0155441 -1.65528 0)
(-0.0174516 -1.65463 0)
(0.0177482 -1.64484 0)
(0.0158726 -1.64555 0)
(0.0124995 -1.64601 0)
(0.00766515 -1.6463 0)
(0.00255278 -1.64645 0)
(-0.0024082 -1.64644 0)
(-0.00751745 -1.64627 0)
(-0.0123534 -1.64593 0)
(-0.0157327 -1.6454 0)
(-0.0176205 -1.64445 0)
(0.018086 -1.63421 0)
(0.0160492 -1.63551 0)
(0.0125905 -1.63613 0)
(0.00769144 -1.6365 0)
(0.00253593 -1.63667 0)
(-0.00247051 -1.63666 0)
(-0.0076213 -1.63647 0)
(-0.0125169 -1.63609 0)
(-0.0159891 -1.63545 0)
(-0.0180921 -1.63413 0)
(0.0184849 -1.62442 0)
(0.0162557 -1.62562 0)
(0.0127163 -1.62623 0)
(0.0077579 -1.6266 0)
(0.00255646 -1.62677 0)
(-0.00250067 -1.62676 0)
(-0.00769693 -1.62658 0)
(-0.0126518 -1.62621 0)
(-0.0161912 -1.62562 0)
(-0.0184339 -1.6245 0)
(0.0187264 -1.6147 0)
(0.0164013 -1.6157 0)
(0.0128084 -1.61626 0)
(0.00780088 -1.61661 0)
(0.00257322 -1.61678 0)
(-0.00251151 -1.61678 0)
(-0.00773471 -1.6166 0)
(-0.0127414 -1.61624 0)
(-0.0163359 -1.61569 0)
(-0.0186741 -1.61471 0)
(0.0189574 -1.60473 0)
(0.0165397 -1.60568 0)
(0.01289 -1.60622 0)
(0.00783143 -1.60657 0)
(0.00258135 -1.60674 0)
(-0.00252545 -1.60674 0)
(-0.00777249 -1.60657 0)
(-0.0128323 -1.60622 0)
(-0.0164866 -1.60568 0)
(-0.0189167 -1.60474 0)
(0.0192116 -1.59464 0)
(0.0167015 -1.59558 0)
(0.0129871 -1.59612 0)
(0.00787127 -1.59647 0)
(0.00259224 -1.59665 0)
(-0.00254279 -1.59665 0)
(-0.00781938 -1.59647 0)
(-0.0129369 -1.59612 0)
(-0.0166563 -1.59558 0)
(-0.019178 -1.59465 0)
(0.0194856 -1.58446 0)
(0.016884 -1.58539 0)
(0.0131007 -1.58594 0)
(0.00792278 -1.5863 0)
(0.00260862 -1.58648 0)
(-0.00256103 -1.58648 0)
(-0.00787296 -1.5863 0)
(-0.0130526 -1.58595 0)
(-0.0168409 -1.5854 0)
(-0.0194531 -1.58448 0)
(0.019781 -1.57419 0)
(0.0170877 -1.57512 0)
(0.0132311 -1.57568 0)
(0.0079861 -1.57604 0)
(0.00263127 -1.57622 0)
(-0.0025787 -1.57623 0)
(-0.00793147 -1.57605 0)
(-0.0131782 -1.57569 0)
(-0.0170399 -1.57513 0)
(-0.0197432 -1.57422 0)
(0.0201017 -1.56382 0)
(0.0173151 -1.56474 0)
(0.0133796 -1.56531 0)
(0.00806173 -1.56569 0)
(0.00266021 -1.56587 0)
(-0.00259611 -1.56588 0)
(-0.00799577 -1.56569 0)
(-0.0133156 -1.56532 0)
(-0.0172563 -1.56476 0)
(-0.0200525 -1.56385 0)
(0.0204523 -1.55333 0)
(0.0175698 -1.55425 0)
(0.0135486 -1.55483 0)
(0.0081505 -1.55522 0)
(0.00269517 -1.55542 0)
(-0.00261455 -1.55542 0)
(-0.00806828 -1.55523 0)
(-0.0134685 -1.55485 0)
(-0.0174954 -1.55428 0)
(-0.0203873 -1.55336 0)
(0.0208385 -1.54269 0)
(0.017856 -1.54363 0)
(0.0137405 -1.54423 0)
(0.0082534 -1.54463 0)
(0.00273568 -1.54483 0)
(-0.00263586 -1.54484 0)
(-0.00815228 -1.54464 0)
(-0.0136418 -1.54424 0)
(-0.0177634 -1.54366 0)
(-0.0207552 -1.54273 0)
(0.0212663 -1.53191 0)
(0.0181783 -1.53285 0)
(0.0139582 -1.53347 0)
(0.0083715 -1.5339 0)
(0.00278119 -1.53411 0)
(-0.0026622 -1.53411 0)
(-0.00825154 -1.53391 0)
(-0.013841 -1.53349 0)
(-0.0180677 -1.53288 0)
(-0.0211649 -1.53195 0)
(0.021743 -1.52094 0)
(0.0185424 -1.5219 0)
(0.0142052 -1.52255 0)
(0.00850619 -1.523 0)
(0.00283124 -1.52322 0)
(-0.00269577 -1.52322 0)
(-0.00837006 -1.52301 0)
(-0.0140722 -1.52257 0)
(-0.0184164 -1.52193 0)
(-0.021626 -1.52098 0)
(0.0222776 -1.50976 0)
(0.0189552 -1.51075 0)
(0.014486 -1.51143 0)
(0.00865952 -1.5119 0)
(0.00288578 -1.51214 0)
(-0.0027386 -1.51214 0)
(-0.0085119 -1.51191 0)
(-0.0143417 -1.51145 0)
(-0.018818 -1.51077 0)
(-0.022149 -1.50979 0)
(0.0228814 -1.49833 0)
(0.0194258 -1.49936 0)
(0.0148065 -1.50009 0)
(0.00883454 -1.50059 0)
(0.00294547 -1.50084 0)
(-0.00279229 -1.50084 0)
(-0.008681 -1.50059 0)
(-0.0146561 -1.5001 0)
(-0.0192824 -1.49938 0)
(-0.0227459 -1.49836 0)
(0.0235686 -1.48661 0)
(0.0199657 -1.48769 0)
(0.0151744 -1.48847 0)
(0.00903556 -1.48901 0)
(0.00301185 -1.48928 0)
(-0.00285794 -1.48928 0)
(-0.00888123 -1.48902 0)
(-0.0150227 -1.48848 0)
(-0.0198205 -1.48771 0)
(-0.0234304 -1.48663 0)
(0.0243571 -1.47455 0)
(0.0205891 -1.4757 0)
(0.0155992 -1.47654 0)
(0.0092682 -1.47713 0)
(0.00308725 -1.47743 0)
(-0.00293625 -1.47743 0)
(-0.00911661 -1.47714 0)
(-0.0154496 -1.47655 0)
(-0.0204453 -1.47571 0)
(-0.0242192 -1.47456 0)
(0.0252698 -1.46208 0)
(0.0213144 -1.46331 0)
(0.0160931 -1.46425 0)
(0.00953942 -1.46491 0)
(0.00317469 -1.46524 0)
(-0.00302786 -1.46524 0)
(-0.0093918 -1.46491 0)
(-0.0159467 -1.46425 0)
(-0.0211731 -1.46332 0)
(-0.0251332 -1.46209 0)
(0.0263369 -1.44912 0)
(0.0221656 -1.45047 0)
(0.0166717 -1.45152 0)
(0.00985795 -1.45227 0)
(0.00327775 -1.45264 0)
(-0.00313391 -1.45264 0)
(-0.00971314 -1.45227 0)
(-0.0165274 -1.45152 0)
(-0.0220258 -1.45048 0)
(-0.0262007 -1.44914 0)
(0.0275998 -1.43557 0)
(0.0231758 -1.43707 0)
(0.0173561 -1.43827 0)
(0.0102356 -1.43914 0)
(0.00340079 -1.43958 0)
(-0.00325699 -1.43958 0)
(-0.0100907 -1.43915 0)
(-0.017211 -1.43828 0)
(-0.0230347 -1.43709 0)
(-0.0274615 -1.43559 0)
(0.0291181 -1.42128 0)
(0.0243936 -1.423 0)
(0.0181783 -1.42441 0)
(0.0106905 -1.42544 0)
(0.00354995 -1.42597 0)
(-0.00340267 -1.42597 0)
(-0.0105421 -1.42545 0)
(-0.0180293 -1.42442 0)
(-0.0242481 -1.42302 0)
(-0.0289748 -1.4213 0)
(0.0309812 -1.40608 0)
(0.0258951 -1.4081 0)
(0.0191909 -1.4098 0)
(0.0112538 -1.41104 0)
(0.0037353 -1.41168 0)
(-0.00358206 -1.41168 0)
(-0.0110993 -1.41105 0)
(-0.0190354 -1.40981 0)
(-0.0257429 -1.40812 0)
(-0.0308305 -1.40611 0)
(0.0333214 -1.38973 0)
(0.027798 -1.39217 0)
(0.0204786 -1.39425 0)
(0.0119771 -1.39577 0)
(0.00397361 -1.39656 0)
(-0.00381447 -1.39656 0)
(-0.0118167 -1.39578 0)
(-0.0203166 -1.39426 0)
(-0.0276387 -1.39219 0)
(-0.033163 -1.38977 0)
(0.0363187 -1.372 0)
(0.0302666 -1.37495 0)
(0.0221614 -1.3775 0)
(0.012934 -1.37937 0)
(0.00428847 -1.38033 0)
(-0.00412664 -1.38033 0)
(-0.0127706 -1.37938 0)
(-0.0219955 -1.37753 0)
(-0.0301024 -1.37499 0)
(-0.0361543 -1.37204 0)
(0.0401504 -1.35262 0)
(0.0334608 -1.35615 0)
(0.0243462 -1.35922 0)
(0.0141816 -1.36147 0)
(0.00469613 -1.36263 0)
(-0.00453732 -1.36264 0)
(-0.0140206 -1.36149 0)
(-0.0241812 -1.35925 0)
(-0.0332953 -1.35619 0)
(-0.0399831 -1.35267 0)
(0.0447959 -1.33137 0)
(0.0373304 -1.33537 0)
(0.0269378 -1.33894 0)
(0.0156348 -1.34162 0)
(0.00516255 -1.34304 0)
(-0.00501306 -1.34305 0)
(-0.015482 -1.34164 0)
(-0.0267786 -1.33898 0)
(-0.0371675 -1.33542 0)
(-0.0446289 -1.33143 0)
(0.0495472 -1.30797 0)
(0.0411392 -1.31209 0)
(0.0292634 -1.31621 0)
(0.0168801 -1.31955 0)
(0.00555965 -1.32141 0)
(-0.00542376 -1.32142 0)
(-0.0167399 -1.31958 0)
(-0.0291145 -1.31627 0)
(-0.0409824 -1.31216 0)
(-0.0493832 -1.30805 0)
(0.0520248 -1.28171 0)
(0.0427057 -1.28599 0)
(0.0296747 -1.29153 0)
(0.0172335 -1.29618 0)
(0.00576483 -1.29861 0)
(-0.00564162 -1.29862 0)
(-0.0171061 -1.29622 0)
(-0.029541 -1.2916 0)
(-0.0425629 -1.28609 0)
(-0.0518727 -1.28182 0)
(0.0471265 -1.24918 0)
(0.0381407 -1.25738 0)
(0.026469 -1.26804 0)
(0.0166142 -1.27438 0)
(0.00606987 -1.27573 0)
(-0.00595215 -1.27575 0)
(-0.0164935 -1.27443 0)
(-0.0263532 -1.26812 0)
(-0.038028 -1.25751 0)
(-0.0470091 -1.24935 0)
(0.031725 -1.19811 0)
(0.0244954 -1.23054 0)
(0.0219583 -1.25318 0)
(0.0153075 -1.25617 0)
(0.00699886 -1.25167 0)
(-0.00688404 -1.2517 0)
(-0.0151941 -1.25621 0)
(-0.0218491 -1.25322 0)
(-0.024427 -1.23067 0)
(-0.0316584 -1.1984 0)
(0.0174204 -1.0983 0)
(-0.00146707 -1.23746 0)
(0.0215927 -1.25671 0)
(0.00792331 -1.23849 0)
(0.00636279 -1.23143 0)
(-0.00626735 -1.23145 0)
(-0.00783341 -1.23853 0)
(-0.021482 -1.25668 0)
(0.00150296 -1.23749 0)
(-0.0173681 -1.09869 0)
(0.787129 -0.205851 0)
(0.923764 -0.187099 0)
(1.04311 -0.161169 0)
(1.13924 -0.128017 0)
(1.2071 -0.0894772 0)
(1.24495 -0.0485771 0)
(1.25432 -0.007959 0)
(1.23396 0.0285883 0)
(1.19201 0.0575805 0)
(1.13596 0.0772012 0)
(1.07183 0.0876089 0)
(1.0047 0.0905849 0)
(0.938188 0.0886997 0)
(0.874417 0.0840041 0)
(0.814588 0.077665 0)
(0.759432 0.0705489 0)
(0.709092 0.0635393 0)
(0.663155 0.0572686 0)
(0.620956 0.0520203 0)
(0.581774 0.0479008 0)
(0.544849 0.0449362 0)
(0.509418 0.0430782 0)
(0.474773 0.0422249 0)
(0.440297 0.0422398 0)
(0.405484 0.0429505 0)
(0.369944 0.0441818 0)
(0.3334 0.0457739 0)
(0.295688 0.0475775 0)
(0.256745 0.0494553 0)
(0.21661 0.0512901 0)
(0.175427 0.0529727 0)
(0.13344 0.0543835 0)
(0.0908841 0.0553699 0)
(0.0483113 0.0555485 0)
(0.00945412 0.0543536 0)
(-0.0293742 0.0510035 0)
(-0.0648579 0.0275578 0)
(-0.0803862 -0.0129818 0)
(-0.0687766 -0.0625729 0)
(-0.0269329 -0.0844745 0)
(0.591357 -0.368014 0)
(0.691754 -0.327492 0)
(0.777551 -0.272164 0)
(0.844181 -0.20356 0)
(0.889424 -0.128092 0)
(0.914815 -0.0541086 0)
(0.92434 0.0132067 0)
(0.922754 0.0694476 0)
(0.911376 0.111707 0)
(0.892319 0.139387 0)
(0.867337 0.15388 0)
(0.838128 0.158286 0)
(0.80588 0.156444 0)
(0.771535 0.150814 0)
(0.736204 0.142473 0)
(0.701071 0.132687 0)
(0.666805 0.12294 0)
(0.633565 0.114107 0)
(0.601385 0.106546 0)
(0.570228 0.100497 0)
(0.539911 0.0960984 0)
(0.510162 0.0933512 0)
(0.480694 0.0921422 0)
(0.45123 0.0922767 0)
(0.421529 0.0935098 0)
(0.391394 0.0955743 0)
(0.360679 0.0982048 0)
(0.329301 0.101135 0)
(0.297243 0.104095 0)
(0.264568 0.106799 0)
(0.231447 0.10892 0)
(0.198185 0.110034 0)
(0.165229 0.109527 0)
(0.1332 0.106426 0)
(0.103481 0.0994672 0)
(0.077242 0.0868826 0)
(0.0522261 0.0631819 0)
(0.0280446 0.0225069 0)
(0.00666521 -0.0348618 0)