/*--------------------------------*- C++ -*----------------------------------*\
  =========                 |
  \\      /  F ield         | OpenFOAM: The Open Source CFD Toolbox
   \\    /   O peration     | Website:  https://openfoam.org
    \\  /    A nd           | Version:  8
     \\/     M anipulation  |
\*---------------------------------------------------------------------------*/
FoamFile
{
    version     2.0;
    format      ascii;
    class       volScalarField;
    location    "0.95";
    object      alpha.water;
}
// * * * * * * * * * * * * * * * * * * * * * * * * * * * * * * * * * * * * * //

dimensions      [0 0 0 0 0 0 0];

internalField   nonuniform List<scalar> 
9150
(
1
1
1
1
1
1
1
1
1
1
1
1
1
1
1
1
1
1
1
1
1
1
1
1
1
1
1
1
1
1
1
1
1
1
1
1
1
1
1
1
1
1
1
1
1
1
1
1
1
1
1
1
1
1
1
1
1
1
1
1
1
1
1
1
1
1
1
1
1
1
1
1
1
1
1
1
1
1
1
1
1
1
1
1
1
1
1
1
1
1
1
1
1
1
1
1
1
1
1
1
1
1
1
1
1
1
1
1
1
1
1
1
1
1
1
1
1
1
1
1
1
1
1
1
1
1
1
1
1
1
1
1
1
1
1
1
1
1
1
1
1
1
1
1
1
1
1
1
1
1
0.999999
0.999999
1
1
1
1
1
1
1
0.999999
0.999999
0.999998
0.999999
1
1
1
1
0.999999
0.999997
0.999997
0.999999
0.999998
0.999994
0.999997
0.999999
1
0.999997
0.999995
0.999995
0.999998
0.999999
0.999997
0.999994
0.999994
0.999999
0.999999
0.999995
0.999995
0.999996
0.999998
0.999999
0.999998
0.999993
0.999995
0.999999
0.999999
0.999995
0.999995
0.999998
0.999998
0.999999
0.999999
0.999992
0.999996
0.999999
0.999999
0.999995
0.999995
0.999998
0.999998
0.999999
0.999998
0.999991
0.999996
0.999999
0.999999
0.999997
0.999998
0.999998
0.999998
0.999999
0.999996
0.999991
0.999997
0.999999
0.999999
0.999999
0.999996
0.999998
0.999998
0.999999
0.999996
0.999991
0.999998
0.999999
0.999999
0.999999
0.999986
0.999997
0.999998
0.999998
0.999996
0.999992
0.999998
0.999999
0.999999
0.999999
0.999986
0.999995
0.999998
0.999997
0.999997
0.999992
0.999999
0.999999
0.999999
0.999998
0.999986
0.999994
0.999996
1
0.999998
0.999996
0.999999
0.999999
0.999999
0.999998
0.999986
0.999995
0.999998
1.00001
0.999998
0.999999
0.999999
0.999999
0.999999
0.999998
0.999986
0.999995
1
0.999998
0.999998
0.999998
0.999999
0.999999
0.999999
0.999998
0.999993
0.999995
0.999995
0.999998
0.999998
0.999992
0.999996
0.999998
0.999998
0.999993
0.999994
0.999995
0.999995
1
0.999997
0.999987
0.999988
0.999998
0.999998
0.99999
0.999985
0.999995
1
1.00002
0.999997
0.999986
0.999987
0.999998
0.999998
0.99999
0.999985
0.999994
0.99882
0.979475
0.999997
0.999987
0.999987
0.999998
0.999998
0.999992
0.999984
0.999994
0.948377
0.941743
0.999996
0.999987
0.999987
0.999998
0.999998
0.999993
0.999985
0.999993
0.921991
0.923897
0.999996
0.999991
0.999987
0.999998
0.999998
0.999992
0.999988
0.99999
0.90009
0.911567
0.999995
0.999995
0.999987
0.999998
0.999998
0.999992
0.999989
0.999989
0.884737
0.90562
0.999995
0.999995
0.999996
0.999998
0.999998
0.999991
0.999987
0.999988
0.878507
0.904501
0.999995
0.999995
0.999998
0.999998
0.999998
0.999989
0.999988
0.999988
0.879877
0.917333
0.999995
0.999995
0.999996
0.999998
0.999998
0.999989
0.99999
0.999887
0.901156
0.940796
0.999992
0.999996
0.999992
0.999998
0.999998
0.999991
0.999992
1.00001
0.928644
0.969899
1.00001
0.999997
0.999992
0.999998
0.999998
0.999998
0.999997
1
0.960987
0.989986
1
0.999997
0.999992
0.999998
0.999998
0.999995
0.999996
0.999996
0.984978
0.997523
0.999997
0.999997
0.999992
0.999998
0.999998
0.999991
0.999996
0.999998
0.995952
0.999901
0.999997
0.999997
0.999992
0.999998
0.999998
0.999991
0.999996
0.999998
0.999129
0.999997
0.999997
0.999997
0.999992
0.999998
0.999998
0.999991
0.999995
0.999998
0.999998
0.999997
0.999997
0.999994
0.999996
0.999998
0.999998
0.999991
0.999997
0.999998
0.999998
0.999997
0.999997
0.999994
0.999994
0.999998
0.999998
0.999991
0.999997
0.999998
0.999998
0.999997
0.999997
0.999994
0.999993
0.999998
0.999998
0.999991
0.999998
0.999998
0.999998
0.999997
0.999997
0.999997
0.999993
0.999998
0.999998
0.999992
0.999996
0.999998
0.999998
0.999997
0.999997
0.999997
0.999993
0.999998
0.999998
0.999994
0.999993
0.999998
0.999998
0.999997
0.999997
0.999996
0.999993
0.999998
0.999998
0.999992
0.999992
0.999998
0.999998
0.999997
0.999997
0.999994
0.999996
0.999998
0.999998
0.999991
0.999994
0.999998
0.999998
0.999998
0.999997
0.999994
0.999997
0.999998
0.999998
0.999991
0.999998
0.999998
1
1.00001
0.999997
0.999993
0.999995
0.999998
0.999998
0.999991
0.999998
0.999998
1.00003
1.00008
0.999997
0.999994
0.999991
0.999998
0.999998
0.999995
0.999997
0.999998
0.996635
0.982792
0.999997
0.999995
0.99999
0.999998
0.999998
0.999992
0.999995
0.999998
0.95938
0.953809
0.999997
0.999996
0.99999
0.999998
0.999998
0.999988
0.999995
0.999997
0.938644
0.933639
0.999996
0.999995
0.99999
0.999998
0.999998
0.999988
0.999995
0.999997
0.91012
0.906233
0.999996
0.999994
0.99999
0.999998
0.999998
0.999988
0.999995
0.999996
0.876513
0.873759
0.999995
0.999994
0.999992
0.999998
0.999998
0.999988
0.999995
0.999995
0.836214
0.834749
0.999994
0.999994
0.999993
0.999998
0.999998
0.999992
0.999995
0.999995
0.788853
0.788651
0.999994
0.999994
0.999988
0.999998
0.999998
0.99999
0.999995
0.999995
0.734518
0.735142
0.999994
0.999994
0.999988
0.999998
0.999998
0.999987
0.999995
0.999995
0.673714
0.674428
0.999994
0.999994
0.999988
0.999998
0.999998
0.999987
0.999995
0.999995
0.607518
0.607583
0.999994
0.999994
0.999988
0.999998
0.999998
0.999987
0.999995
0.999995
0.538426
0.536701
0.999994
0.999994
0.999992
0.999998
0.999998
0.999991
0.999995
0.999998
0.469269
0.465098
0.999998
0.999993
0.999987
0.999998
0.999998
0.999984
0.999995
1.00002
0.405622
0.398397
1.00002
0.999993
0.999984
0.999998
0.999998
0.999983
0.999994
1.00017
0.350705
0.339867
1.0002
0.999993
0.999984
0.999998
0.999998
0.999983
0.999994
0.985051
0.306994
0.293351
0.983814
0.999993
0.999984
0.999998
0.999998
0.999983
0.999994
0.959398
0.268427
0.25243
0.95454
0.999993
0.999986
0.999998
0.999998
0.999984
0.999994
0.944348
0.234051
0.216351
0.937138
0.999992
0.999989
0.999998
0.999998
0.999988
0.999993
0.927024
0.202871
0.18424
0.917267
0.999992
0.999983
0.999998
0.999998
0.999985
0.999993
0.909149
0.174771
0.15604
0.897026
0.999992
0.999982
0.999998
0.999998
0.999982
0.999992
0.890554
0.149538
0.131444
0.876472
0.999991
0.999982
0.999998
0.999998
0.999982
0.999992
0.871507
0.127126
0.110091
0.855886
0.99999
0.999982
0.999998
0.999998
0.999982
0.999991
0.852246
0.107362
0.0916895
0.835507
0.99999
0.999984
0.999998
0.999998
0.999983
0.99999
0.832981
0.0900568
0.0759904
0.815644
0.999988
0.999986
0.999998
0.999998
0.999986
0.999989
0.814011
0.0750861
0.062819
0.796684
0.999986
0.99998
0.999998
0.999998
0.999981
0.999986
0.795722
0.0623626
0.0519182
0.778972
0.999983
0.999979
0.999998
0.999998
0.999979
0.999983
0.778497
0.0517229
0.0430446
0.762771
0.99998
0.99998
0.999998
0.999998
0.99998
0.99998
0.762595
0.0429897
0.0359497
0.74841
0.999981
0.999982
0.999998
0.999997
0.999981
0.999981
0.748399
0.0359594
0.0304658
0.735853
0.99998
0.999981
0.999997
0.999997
0.999981
0.99998
0.735929
0.0305087
0.0263077
0.725822
0.999979
0.999979
0.999997
0.999997
0.999979
0.999979
0.725946
0.0263574
0.023581
0.717437
0.999978
0.999978
0.999997
0.999997
0.999978
0.999978
0.717554
0.0236363
0.021629
0.712894
0.999981
0.999978
0.999997
0.999997
0.999978
0.999981
0.713023
0.0216649
0.0214045
0.70923
0.999063
0.999976
0.999997
0.999997
0.999976
0.999072
0.709314
0.0214555
0.0208602
0.708591
0.998489
0.999975
0.999997
0.999997
0.999975
0.998492
0.708666
0.0208855
0.02084
0.710544
0.998603
0.999976
0.999997
0.999997
0.999976
0.998592
0.710573
0.0208481
0.0222777
0.714616
0.999006
0.999979
0.999997
0.999997
0.999979
0.999004
0.714635
0.0222937
0.024275
0.720862
0.999259
0.999981
0.999997
0.999997
0.999981
0.999257
0.720863
0.0242774
0.0274556
0.728984
0.999479
0.999984
0.999997
0.999997
0.999984
0.999478
0.728975
0.0274546
0.0316436
0.738976
0.999657
0.999987
0.999998
0.999997
0.999987
0.999656
0.738962
0.0316383
0.0369758
0.750686
0.999791
0.999989
0.999998
0.999998
0.999989
0.999791
0.75067
0.0369684
0.0435451
0.76398
0.999887
0.999992
0.999998
0.999998
0.999992
0.999887
0.763964
0.0435367
0.0514962
0.778743
0.999938
0.999994
0.999998
0.999998
0.999994
0.999938
0.77873
0.0514878
0.0610107
0.794791
0.999973
0.999995
0.999998
0.999998
0.999995
0.999973
0.79478
0.0610028
0.0723199
0.81199
0.999973
0.999997
0.999998
0.999998
0.999997
0.999973
0.811982
0.0723129
0.085713
0.830177
0.999948
0.999998
0.999998
0.999998
0.999998
0.999948
0.830171
0.0857071
0.10155
0.849132
0.999949
0.999998
0.999998
0.999998
0.999998
0.999949
0.849128
0.101545
0.120275
0.868639
0.99995
0.999999
0.999999
0.999999
0.999999
0.99995
0.868637
0.120272
0.142437
0.888433
0.999953
0.999999
0.999999
0.999999
0.999999
0.999953
0.888432
0.142435
0.168707
0.908172
0.999956
0.999999
0.999999
0.999999
0.999999
0.999956
0.908173
0.168708
0.199909
0.927461
0.999961
0.999999
0.999999
0.999999
0.999999
0.999961
0.927461
0.19991
0.237039
0.94576
0.999965
0.999999
0.999999
0.999999
0.999999
0.999966
0.94576
0.23704
0.281254
0.962549
0.99997
0.999999
1
1
0.999999
0.99997
0.962549
0.281254
0.333874
0.976869
0.999975
1
1
1
1
0.999975
0.976869
0.333875
0.395978
0.988367
0.99998
1
1
1
1
0.99998
0.988367
0.39598
0.468614
0.99498
0.999986
1
1
1
1
0.999986
0.99498
0.468618
0.550063
0.997565
0.999991
1
1
1
1
0.999991
0.997565
0.550068
0.634014
0.999734
0.999996
1
1
1
1
0.999996
0.999734
0.634017
0.71989
0.99988
0.999998
1
1
1
1
0.999998
0.99988
0.71989
0.795689
0.999957
1
1
1
1
1
1
0.999957
0.795687
0.879384
1
1
1
1
1
1
1
1
0.879382
0.939125
1
1
1
1
1
1
1
1
0.939125
0.999999
0.999999
0.999999
0.999999
0.999999
0.999998
0.999996
0.999995
0.999995
0.999995
0.999995
0.999993
0.99999
0.999991
0.999997
0.999997
0.999997
0.999997
0.999998
0.999997
0.999995
0.999995
0.999995
0.999996
0.999998
0.999998
0.999998
0.999999
0.999999
0.999996
0.999996
0.999997
0.999998
0.974251
0.848478
0.76873
0.738302
0.738295
0.738309
0.76076
0.999999
0.999999
1
1
0.999998
0.999996
0.999985
0.999956
0.999956
0.999971
0.999975
0.99999
0.999994
0.999995
0.999996
0.999997
0.999997
0.999998
0.999998
0.999998
0.999998
0.999998
0.999998
0.999998
0.999996
0.999998
0.999999
0.999999
0.999999
0.999998
0.999996
0.999998
0.999998
0.99923
0.980759
0.902773
0.738302
0.738309
0.738332
0.951462
0.999999
0.999999
0.999998
0.999992
0.999969
0.99996
0.9998
0.999307
0.999167
0.999236
0.999794
0.999987
0.999872
0.99967
0.999665
0.999669
0.999831
0.999997
0.999998
0.999931
0.999903
0.999936
0.999993
0.999994
0.999997
0.999999
0.999999
0.999999
0.999999
0.999999
0.999997
0.999997
0.999998
0.999999
0.999983
0.999944
0.956936
0.854438
0.8063
0.962223
0.999999
0.999999
0.999987
0.999818
0.999206
0.998838
0.994214
0.980137
0.996526
0.999477
0.999805
0.99994
0.99989
0.999904
0.999915
0.999929
0.999959
0.999972
0.999921
0.999903
0.999902
0.999903
0.99993
0.999991
0.999999
0.999999
0.999999
0.999999
0.999999
0.999999
0.999999
0.999998
0.999997
0.999999
0.999998
0.999994
0.99996
0.998173
0.970296
0.964069
0.999999
0.999998
0.999919
0.99834
0.919192
0.718803
0.546166
0.417895
0.317259
0.364478
0.554638
0.931522
0.999999
0.999916
0.999912
0.999937
0.999955
0.999956
0.999901
0.999902
0.999902
0.999922
0.999983
0.999994
0.999996
0.999939
0.999945
0.999997
0.999999
0.999999
1
0.999999
0.999998
0.999999
1
1
0.999998
0.999996
0.999988
0.977261
0.999999
1.00002
0.99956
0.880892
0.290277
0.00758683
0.00206508
0.00138743
0.000492233
0.000595541
0.0140872
0.122218
0.339484
0.765535
0.999442
0.999839
0.999936
0.99993
0.999956
0.999958
0.999967
0.99999
0.999998
0.999995
0.999953
0.999912
0.999913
0.999936
0.999997
0.999999
1
1
1
1
1
1
1
1
0.999999
0.982955
1
0.999982
0.987803
0.279983
0.00742452
0.00203796
0.00070048
0.000252424
6.68191e-05
9.21848e-05
0.000198241
0.000638963
0.00163603
0.0840741
0.46585
0.974194
0.999496
0.999873
0.999978
0.999993
0.999997
0.999998
0.999998
0.999972
0.999911
0.999912
0.999913
0.999913
0.999953
0.999999
1
1
1
1
1
1
1
1
1
0.984921
1
1.00004
0.558094
0.021443
0.00203538
0.000601655
0.000228555
6.3312e-05
1.81058e-05
9.88458e-06
2.41704e-05
0.000110173
0.000347261
0.000905644
0.0027555
0.43043
0.965986
0.999602
0.999956
0.999994
0.999998
0.999998
0.999998
0.999932
0.999912
0.999913
0.999914
0.999912
0.999925
0.999995
1
1
1
1
1
1
1
1
1
0.991644
1.00001
0.999532
0.209189
0.00321432
0.000647837
0.000175419
5.44178e-05
1.46664e-05
4.4138e-06
1.69405e-06
3.77393e-06
1.70458e-05
5.04383e-05
0.000130539
0.000267661
0.00159158
0.637469
0.999396
0.999929
0.999993
0.999998
0.999998
0.999998
0.999945
0.999913
0.999913
0.999913
0.999913
0.999963
0.999995
0.999992
0.99996
0.99999
1
1
1
1
1
1
0.999775
1.00016
0.68101
0.0431226
0.00135192
0.000157368
4.3463e-05
1.31182e-05
4.22677e-06
1.20957e-06
6.27513e-07
8.63265e-07
3.2128e-06
8.66089e-06
1.93222e-05
4.10808e-05
0.000164723
0.228681
0.910702
0.999865
0.999994
0.999998
0.999998
0.999998
0.999985
0.999912
0.999912
0.999913
0.999965
0.999989
0.999992
0.999947
0.999942
0.999961
0.999999
1
1
1
1
1
1
0.999993
0.407902
0.00480526
0.000604853
8.10333e-05
1.50404e-05
3.77004e-06
1.32149e-06
5.50412e-07
4.37984e-07
4.57258e-07
8.16611e-07
2.20538e-06
6.07253e-06
1.06342e-05
2.62821e-05
0.00114799
0.751676
0.9999
0.999992
0.999996
0.999998
0.999998
0.999998
0.999951
0.99992
0.999964
0.999981
0.999982
0.999947
0.999942
0.999942
0.999962
0.999999
1
1
1
1
1
1
0.998832
0.225171
0.00235792
0.000299808
4.15722e-05
6.47059e-06
1.43522e-06
5.8169e-07
4.39273e-07
4.09376e-07
4.01647e-07
4.33743e-07
6.72816e-07
1.55879e-06
2.33183e-06
4.82152e-06
2.26443e-05
0.573951
0.993857
0.999996
0.999996
0.999998
0.999998
0.999998
0.999996
0.999991
0.99999
0.999965
0.999942
0.999942
0.999948
0.999958
0.999986
0.999999
1
1
0.999999
0.999999
1
1
0.835971
0.120326
0.00142824
0.000182586
2.3677e-05
3.3433e-06
7.72268e-07
4.39125e-07
4.07459e-07
4.01347e-07
3.9786e-07
3.93294e-07
4.15912e-07
5.16512e-07
7.8151e-07
2.63544e-06
2.38293e-05
0.341324
0.977198
0.997346
0.999998
0.999998
0.999998
0.999998
0.999998
0.999994
0.999958
0.999942
0.999942
0.999942
0.999979
0.999997
0.999999
1
1
1
0.999998
0.999998
0.999999
0.999999
0.725578
0.0805247
0.00118133
0.000140761
1.77597e-05
2.31872e-06
5.86258e-07
4.15337e-07
4.00633e-07
4.01692e-07
3.9809e-07
3.94151e-07
3.94083e-07
3.99424e-07
4.65364e-07
9.19936e-07
3.42159e-06
0.13926
0.910337
0.999209
0.999998
0.999998
0.999998
0.999999
0.999999
0.999987
0.999943
0.999943
0.999956
0.999961
0.999923
0.999982
0.999997
1
1
0.999998
0.999998
0.999998
0.999999
0.999999
0.613333
0.0642583
0.00181691
0.000136898
1.63356e-05
2.06953e-06
5.5678e-07
4.08517e-07
3.91716e-07
4.01191e-07
4.01252e-07
4.0057e-07
3.94839e-07
4.01117e-07
4.10454e-07
5.41678e-07
0.000138711
0.0363334
0.711447
0.999998
0.999998
0.999996
0.999998
0.999999
0.999999
0.99999
0.999974
0.999974
0.999984
0.999972
0.999908
0.999916
0.999988
1
1
0.999998
0.999998
0.999998
0.999999
0.999999
0.509425
0.0676288
0.00398792
0.000138039
1.55012e-05
1.96332e-06
5.43765e-07
4.011e-07
3.72816e-07
4.00523e-07
4.00951e-07
4.01148e-07
4.01094e-07
4.01476e-07
4.06511e-07
4.14002e-07
5.92695e-05
0.0110014
0.555505
0.999998
0.999998
0.999993
0.999999
0.999999
0.999999
0.999998
0.999998
0.999997
0.999986
0.999925
0.999908
0.999908
0.999983
1
0.999999
0.999998
0.999998
0.999999
0.999999
0.999999
0.425504
0.126913
0.00607375
0.00012041
1.29811e-05
1.62199e-06
5.15497e-07
3.90873e-07
3.55843e-07
3.9833e-07
4.03955e-07
4.00672e-07
4.01138e-07
4.01242e-07
4.02422e-07
4.14892e-07
1.93657e-06
0.0129164
0.570432
0.999998
0.999996
0.999993
0.999999
0.999999
0.999999
0.999998
0.999973
0.999947
0.999922
0.999908
0.999908
0.999908
0.999986
1
0.999999
0.999999
0.999998
0.999999
0.999996
0.999995
0.362055
0.189281
0.0116402
9.74573e-05
9.22068e-06
1.15057e-06
4.47536e-07
3.51852e-07
3.52065e-07
3.89922e-07
4.06089e-07
4.00743e-07
4.00637e-07
4.0077e-07
4.01844e-07
4.31412e-07
1.93599e-06
0.0270275
0.698928
0.999998
0.999976
0.999996
0.999999
0.999999
0.999986
0.999929
0.999908
0.999908
0.999908
0.999908
0.999908
0.999953
0.999994
1
1
0.999999
0.999998
0.999999
0.999982
0.99897
0.314635
0.228039
0.019999
6.35031e-05
4.9258e-06
6.50758e-07
3.62416e-07
3.49886e-07
3.5062e-07
3.53915e-07
4.06437e-07
4.05636e-07
4.00789e-07
4.00928e-07
4.02574e-07
4.82153e-07
2.26201e-06
0.113939
0.905235
0.999998
0.999975
0.999998
0.999999
0.999999
0.999951
0.999908
0.999908
0.999908
0.999908
0.999908
0.999937
0.999997
0.999999
1
1
0.999999
0.999998
0.999999
0.99995
0.998679
0.28088
0.236051
0.0231451
3.24118e-05
2.00138e-06
4.24507e-07
3.49774e-07
3.4984e-07
3.50549e-07
3.51301e-07
4.06221e-07
4.06244e-07
4.00939e-07
4.00947e-07
6.02135e-07
7.72287e-07
0.0102005
0.453349
0.989579
0.999998
0.999975
0.999999
0.999999
0.999999
0.999955
0.999909
0.999908
0.999908
0.999908
0.999913
0.999994
0.999999
0.999999
0.999999
0.999964
0.99997
0.999999
0.999999
0.99993
0.998678
0.25752
0.231791
0.0233104
1.49483e-05
1.08267e-06
4.86024e-07
3.48509e-07
3.49118e-07
3.49911e-07
3.50262e-07
3.54327e-07
3.76467e-07
4.67751e-07
4.88793e-07
4.85591e-07
4.8864e-07
0.152064
0.866771
0.999155
0.999998
0.999992
0.999999
0.999999
0.999999
0.999985
0.999981
0.99996
0.999922
0.999918
0.999968
0.999999
0.999999
0.999999
0.999958
0.999933
0.999964
0.999999
0.999999
0.999936
0.998678
0.24223
0.231954
0.0241437
7.27673e-06
7.85214e-07
8.01189e-07
3.48059e-07
3.48654e-07
3.48988e-07
4.04935e-07
3.73686e-07
4.2202e-07
4.55488e-07
2.96887e-07
3.24916e-07
0.036429
0.58573
0.992688
0.999817
0.999997
0.999999
0.999999
0.999999
0.999999
0.999999
0.999998
0.999998
0.999992
0.999991
0.999991
0.999992
0.999993
0.999961
0.999933
0.999933
0.999981
0.999999
0.999998
0.999957
0.999191
0.23187
0.235813
0.0662902
2.658e-06
4.51226e-07
8.27168e-07
3.48033e-07
3.48076e-07
4.42947e-07
4.7056e-07
4.71371e-07
4.63692e-07
2.95844e-07
1.72531e-07
0.00422761
0.33124
0.940727
0.999154
0.999952
0.999998
0.999999
0.999999
0.999998
0.999984
0.999997
0.999998
0.999998
0.999998
0.999998
0.99999
0.999941
0.999935
0.999933
0.999933
0.999939
0.999997
0.999999
0.999998
0.999983
0.999978
0.228891
0.234585
0.202074
3.33477e-07
3.35474e-07
4.75543e-07
3.4803e-07
3.48839e-07
4.7264e-07
4.71764e-07
4.70486e-07
4.68217e-07
1.36433e-07
1.57946e-07
0.151277
0.80947
0.998189
0.999793
0.999987
0.999999
0.999998
0.999998
0.999991
0.999972
0.999994
0.999998
0.999998
0.999998
0.999998
0.999991
0.999933
0.999933
0.999933
0.999933
0.999974
0.999999
0.999999
0.999998
0.999998
0.999998
0.228579
0.210772
0.287621
2.18093e-07
2.64643e-07
2.6081e-07
3.74222e-07
4.63683e-07
4.73328e-07
4.7264e-07
4.73473e-07
3.83913e-07
1.23658e-07
0.0194682
0.568446
0.99067
0.999607
0.999966
0.999997
0.999999
0.999998
0.999998
0.999986
0.999972
0.999994
0.999998
0.999998
0.999998
0.999998
0.999997
0.99996
0.999933
0.999933
0.999961
0.999978
0.999943
0.999993
0.999997
0.999998
0.999998
0.251725
0.0674616
0.289978
4.88742e-06
1.94399e-07
2.21133e-07
4.52236e-07
4.57008e-07
4.50875e-07
4.71764e-07
4.73848e-07
1.12139e-07
1.18613e-07
0.198254
0.902881
0.998906
0.999917
0.999996
0.999999
0.999999
0.999999
0.999998
0.999992
0.999974
0.999998
0.999998
0.999998
0.999998
0.999983
0.999997
0.999995
0.999965
0.999963
0.999988
0.99997
0.999776
0.999835
0.999994
0.999998
0.999998
0.331286
0.0650386
0.283246
-2.21551e-05
-2.11052e-08
1.39778e-07
4.33891e-07
4.09428e-07
2.73146e-07
3.57694e-07
4.73193e-07
8.6091e-08
0.00198822
0.553143
0.991802
0.999537
0.999982
0.999999
0.999999
0.999999
0.999999
0.999999
0.999999
0.999998
0.999985
0.999933
0.999948
0.999927
0.999816
0.999975
0.999994
0.999993
0.999992
0.99999
0.999836
0.999774
0.999775
0.999986
0.999998
0.999998
0.428618
0.0640281
0.301019
-0.000165855
-1.1741e-06
1.42578e-07
1.78602e-07
1.74708e-07
2.44617e-07
4.95095e-07
2.5382e-07
8.23474e-08
0.0893673
0.819124
0.997666
0.999793
0.999978
0.999991
0.999999
0.999999
0.999999
0.999999
0.999999
0.999999
0.999902
0.999813
0.999813
0.999812
0.999813
0.999832
0.999968
0.999992
0.999991
0.999911
0.999774
0.999773
0.999798
0.999988
0.999983
0.999998
0.525128
0.0642943
0.315336
0.00884116
-2.77096e-06
1.44352e-07
1.44395e-07
1.50413e-07
4.82627e-07
4.98517e-07
7.27801e-08
8.06438e-08
0.283386
0.944395
0.998771
0.999777
0.9999
0.999942
0.999999
0.999999
0.999999
0.999999
0.999999
0.999999
0.999892
0.999814
0.999814
0.999813
0.999864
0.999795
0.999798
0.999922
0.999899
0.999774
0.999774
0.999773
0.999907
0.99999
0.999947
0.999435
0.613025
0.0610532
0.318382
0.187594
-3.4155e-07
1.4415e-07
1.44584e-07
3.49316e-07
5.03587e-07
4.99572e-07
6.57643e-08
7.16844e-08
0.520052
0.990453
0.999253
0.999513
0.999659
0.99991
0.999999
0.999999
0.999999
0.999999
0.999999
0.999999
0.999968
0.999813
0.999813
0.999814
0.999991
0.99983
0.999778
0.999776
0.999774
0.999774
0.999773
0.999773
0.999958
0.99999
0.999875
0.995631
0.669962
0.058996
0.315194
0.40416
1.50808e-07
1.44576e-07
1.8624e-07
5.03587e-07
5.0376e-07
4.17411e-07
5.90322e-08
0.0434707
0.726102
0.996818
0.999542
0.999603
0.999592
0.999867
0.999999
0.999999
0.999999
0.999999
0.999999
0.999999
0.999999
0.999868
0.999814
0.999895
0.999999
0.999968
0.999776
0.999775
0.999774
0.999774
0.999773
0.999773
0.999966
0.99999
0.999662
0.995265
0.708317
0.0556619
0.124945
0.494443
5.60842e-07
1.53479e-07
1.58115e-07
5.0376e-07
5.03587e-07
9.10475e-08
5.39046e-08
0.174791
0.878083
0.997947
0.999767
0.999931
0.999837
0.999878
0.999993
0.999999
0.999999
0.999999
0.999999
0.999999
0.999999
0.999982
0.999899
0.999979
0.999999
0.999999
0.999838
0.999775
0.999775
0.99984
0.999843
0.999904
0.999956
0.999987
0.999437
0.995261
0.718474
0.0485853
0.0684493
0.557891
5.64646e-05
-7.18096e-07
4.67951e-08
4.8457e-07
3.41667e-07
5.09323e-08
5.30295e-08
0.415748
0.971515
0.998906
0.999906
0.999988
0.999996
0.999972
0.999993
0.999999
0.999999
0.999996
0.999998
0.999999
0.999999
0.999999
0.999998
0.999999
0.999999
0.999999
0.999974
0.999792
0.999867
0.999984
0.999986
0.999987
0.999933
0.999967
0.999405
0.99526
0.676758
0.0303245
0.0456427
0.587142
0.260708
-1.28263e-05
4.96196e-08
5.58378e-08
5.15074e-08
5.1126e-08
0.070797
0.745737
0.994217
0.999497
0.999963
0.999996
0.999998
0.999998
0.999997
0.999997
0.999995
0.999995
0.999995
0.999999
0.999999
0.999999
0.999999
0.999999
0.999999
0.999999
0.999999
0.999975
0.999988
0.999989
0.999987
0.999987
0.999933
0.999947
0.99947
0.995261
0.604717
0.0130547
0.00495901
0.588966
0.871789
0.0591139
4.97015e-08
4.97025e-08
5.20958e-08
0.00526073
0.465239
0.964397
0.997539
0.999747
0.999976
0.999998
0.999998
0.999998
0.999998
0.999995
0.999995
0.999995
0.999995
0.999999
0.999999
0.999999
0.999999
0.999999
0.999999
0.999999
0.999999
0.999999
0.999997
0.999964
0.999987
0.999987
0.999933
0.999945
0.99964
0.997653
0.541984
0.00753371
0.00397103
0.334403
0.959432
0.941448
0.291439
0.09676
0.148452
0.492254
0.935294
0.996535
0.999386
0.999847
0.999958
0.999993
0.999998
0.999998
0.999998
0.999996
0.999995
0.999995
0.999998
0.999999
0.999999
0.999999
0.999999
0.999999
0.999999
0.999999
0.999999
0.999999
0.999971
0.999811
0.999847
0.999915
0.999942
0.999966
0.999909
0.999963
0.47866
0.00456437
0.00320851
0.262242
0.963353
0.999384
0.96489
0.84266
0.861133
0.98025
0.999527
0.99993
0.999979
0.999938
0.99994
0.999952
0.999995
0.999998
0.999998
0.999998
0.999995
0.999996
0.999999
0.999999
0.999999
0.999999
0.999999
0.999999
0.999999
0.999999
0.999999
0.999999
0.999838
0.999806
0.999806
0.999808
0.999961
0.999996
0.999996
0.999994
0.4119
0.00320692
0.00263025
0.239545
0.956231
0.999581
0.999708
0.999763
0.999649
0.99985
0.999965
0.999994
0.999998
0.999975
0.999941
0.999953
0.999996
0.999998
0.999998
0.999998
0.999997
0.999998
0.999994
0.999993
0.999999
0.999999
0.999999
0.999999
0.999999
0.999999
0.999999
0.999902
0.999806
0.999806
0.999806
0.999806
0.999981
0.999996
0.999996
0.999996
0.349736
0.00262782
0.00216696
0.174139
0.931335
0.999967
0.999996
0.999982
0.99998
0.99999
0.999997
0.999999
0.999999
0.999983
0.999951
0.99999
0.999998
0.999998
0.999997
0.999997
0.999997
0.999998
0.999993
0.999979
0.999999
0.999999
0.999999
0.999917
0.999876
0.999874
0.999839
0.999806
0.999806
0.999806
0.999806
0.999897
0.999994
0.999996
0.999996
0.999996
0.298856
0.00193128
0.00178792
0.115675
0.890094
0.999998
1
0.999999
0.999999
0.999999
0.999999
0.999999
0.999999
0.999998
0.999996
0.999995
0.999993
0.999977
0.999962
0.999974
0.999998
0.999998
0.999997
0.999979
0.999946
0.999942
0.999897
0.999817
0.999812
0.999808
0.999807
0.999806
0.999806
0.999806
0.99989
0.999992
0.999996
0.999996
0.999996
0.999996
0.254862
0.00159781
0.00146413
0.0649113
0.83363
1
1
1
1
1
1
1
0.999999
0.999999
0.99998
0.999962
0.999958
0.99996
0.999961
0.999981
0.999998
0.999998
0.999998
0.99998
0.999859
0.999859
0.999862
0.99986
0.999839
0.999807
0.999807
0.999806
0.999807
0.999902
0.999992
0.999996
0.999996
0.999996
0.999996
0.999996
0.213475
0.00130334
0.0011841
0.0286018
0.771117
1
1
1
1
1
1
1
0.999987
0.999964
0.999958
0.999958
0.999958
0.999969
0.999986
0.999998
0.999998
0.999998
0.999998
0.999901
0.999859
0.999859
0.999881
0.999991
0.999981
0.999938
0.9999
0.999903
0.999958
0.999979
0.999987
0.999992
0.999905
0.999434
0.999374
0.999634
0.173759
0.00100722
0.000899559
0.0055968
0.715521
0.999998
1
1
1
1
0.999999
0.999981
0.999957
0.999957
0.999958
0.999977
0.999988
0.999995
0.999996
0.999997
0.999964
0.999817
0.999809
0.999932
0.999906
0.999887
0.999977
0.999998
0.999998
0.999998
0.999999
0.999998
0.999996
0.999982
0.999782
0.999555
0.999493
0.998475
0.998472
0.998466
0.136531
0.000769739
0.000681705
0.000692261
0.665289
0.999997
1
1
1
1
0.999995
0.999957
0.999957
0.999972
0.99999
0.999991
0.999992
0.999993
0.99997
0.999838
0.999718
0.999718
0.99975
0.999992
0.999996
0.999992
0.999998
0.999998
0.999998
0.999999
1
0.999999
0.999998
0.999979
0.999731
0.999327
0.99926
0.998472
0.998466
0.998461
0.102406
0.000563412
0.00043476
0.000597722
0.658656
0.999947
0.999998
0.999998
0.999999
1
0.999998
0.999966
0.999957
0.999976
0.999988
0.99999
0.999932
0.999818
0.999716
0.999709
0.999712
0.999714
0.999911
0.999997
0.999998
0.999998
0.999999
0.999999
0.999998
0.999999
1
1
0.999993
0.999979
0.999899
0.999712
0.999488
0.998725
0.998463
0.998463
0.0726245
0.000350078
0.00024519
0.000572219
0.678349
0.999733
0.999999
0.999997
0.999998
1
0.999999
0.999996
0.999983
0.999927
0.999809
0.999728
0.999707
0.999705
0.999707
0.999708
0.999709
0.999878
0.999997
0.999998
0.999998
0.999999
0.999999
0.999999
0.999999
0.999999
1
1
0.99998
0.999834
0.999892
0.999892
0.999831
0.999773
0.999585
0.999249
0.0478943
0.000210196
0.000168908
0.0127646
0.7166
0.999447
0.999999
0.999997
0.999999
1
1
0.999999
0.999985
0.999784
0.999706
0.999705
0.999705
0.999706
0.999706
0.999707
0.999887
0.999993
0.999995
0.999997
0.999899
0.997903
0.997838
0.999905
1
1
1
1
0.99999
0.999626
0.99911
0.999887
0.999884
0.999878
0.999865
0.99985
0.0285084
0.000144524
0.000143146
0.0360619
0.76975
0.999428
0.999999
0.999997
0.999999
1
1
0.999998
0.999939
0.999809
0.999773
0.999705
0.999705
0.999705
0.999713
0.999928
0.999997
0.999993
0.999994
0.999825
0.996813
0.996223
0.99627
0.998537
1
1
1
0.999999
0.999995
0.99967
0.996513
0.999878
0.999878
0.999873
0.999869
0.999861
0.014841
0.0001177
0.000136332
0.0667106
0.821747
0.999999
0.999999
0.999999
0.999999
1
0.999998
0.999922
0.999902
0.999944
0.999982
0.9998
0.999705
0.999711
0.999938
0.999999
0.999998
0.999996
0.999747
0.996939
0.996203
0.996213
0.996223
0.998694
1
1
1
0.999999
0.999997
0.999922
0.997915
0.950988
0.901432
0.887737
0.978162
0.987915
0.0062284
0.000119452
0.00012995
0.0966473
0.859655
0.999999
0.999999
0.999999
0.999999
0.999999
0.999975
0.999899
0.9999
0.999962
0.999999
0.999975
0.999871
0.999932
0.999999
1
0.999999
0.999998
0.999111
0.996203
0.996203
0.996203
0.996882
0.999899
1
1
1
1
0.999999
0.999995
0.999832
0.825734
0.55194
0.545462
0.607045
0.614585
0.00350494
0.000121903
0.000122268
0.118268
0.883019
0.999999
0.999999
0.999999
0.999999
0.999991
0.999901
0.999899
0.999899
0.999992
1
0.999999
0.999999
0.999999
1
1
0.999999
0.999994
0.999467
0.996377
0.996203
0.996544
0.999555
1
1
1
1
1
1
0.999996
0.997418
0.727061
0.539872
0.539822
0.54006
0.540074
0.00125732
0.0001161
0.000113337
0.123771
0.883957
0.999999
0.999999
0.999999
0.999999
0.999966
0.999899
0.999899
0.999902
1
1
1
1
1
1
1
1
0.999993
0.999849
0.998955
0.997628
0.999278
0.999999
1
1
1
1
1
1
0.999989
0.996833
0.733133
0.539647
0.539654
0.539684
0.539708
0.00083307
0.000108562
0.000103588
0.118776
0.878649
0.999999
0.999999
0.999999
0.999999
0.999959
0.999899
0.999899
0.999936
1
1
1
1
1
1
1
0.999999
0.999994
0.999985
0.999988
0.999963
0.999995
1
1
1
1
1
1
0.999999
0.999965
0.997275
0.819752
0.539654
0.53965
0.539654
0.539684
0.000687746
9.97297e-05
9.42587e-05
0.107587
0.864904
0.999999
0.999999
0.999999
0.999999
0.99997
0.999899
0.999899
0.999985
1
1
1
1
1
1
1
0.999999
0.999999
0.999999
0.999998
0.999998
0.999999
1
1
1
0.999999
0.999999
0.999999
0.999998
0.999907
0.997147
0.957001
0.773649
0.62505
0.608846
0.638681
0.000569823
9.07587e-05
8.49219e-05
0.0914536
0.842614
0.999993
0.999999
0.999999
0.999999
0.999991
0.999937
0.999929
0.999999
0.999998
0.999973
0.999899
0.999995
1
1
1
1
1
1
0.999999
0.999999
1
1
1
0.999998
0.999997
0.999997
0.999999
0.999998
0.999834
0.998271
0.999492
0.994117
0.964986
0.964237
0.978006
0.000474838
8.20399e-05
7.54378e-05
0.0721254
0.812425
0.999978
0.999999
0.999999
0.999999
0.999999
0.999998
0.999996
0.999999
0.999982
0.999879
0.999874
0.99991
0.999994
1
1
1
1
1
1
1
1
1
1
0.999998
0.999997
0.999997
0.999997
0.999997
0.9999
0.999965
0.999962
0.99985
0.998604
0.99621
0.993801
0.000396193
7.31253e-05
6.33596e-05
0.0508085
0.773612
0.999946
0.999999
0.999999
0.999999
0.999999
0.999999
0.999999
0.999999
0.999976
0.999874
0.999873
0.999874
0.999951
1
1
1
1
1
0.999998
0.999984
1
1
1
0.999999
0.999998
0.999997
0.999996
0.999997
0.999997
0.999993
0.999984
0.999962
0.994325
0.992824
0.988826
0.000318554
6.14149e-05
4.87477e-05
0.0246787
0.723549
0.999882
0.999997
0.999999
0.999999
0.999994
0.999999
0.999999
0.999999
0.999982
0.999873
0.999873
0.999873
0.99993
1
1
0.999999
1
1
0.999997
0.99998
1
1
1
1
1
1
0.999999
0.999548
0.999996
0.999995
0.993626
0.974666
0.962649
0.962579
0.961891