/*--------------------------------*- C++ -*----------------------------------*\
  =========                 |
  \\      /  F ield         | OpenFOAM: The Open Source CFD Toolbox
   \\    /   O peration     | Website:  https://openfoam.org
    \\  /    A nd           | Version:  8
     \\/     M anipulation  |
\*---------------------------------------------------------------------------*/
FoamFile
{
    version     2.0;
    format      ascii;
    class       volScalarField;
    location    "0.95";
    object      epsilon;
}
// * * * * * * * * * * * * * * * * * * * * * * * * * * * * * * * * * * * * * //

dimensions      [0 2 -3 0 0 0 0];

internalField   nonuniform List<scalar> 
9150
(
0.0315212
0.0125963
0.00322731
0.00111916
0.000712753
0.000712753
0.00111916
0.00322731
0.0125963
0.0315212
0.0304234
0.00888806
0.00183465
0.000750678
0.000552109
0.000552109
0.000750677
0.00183465
0.00888806
0.0304234
0.028622
0.00707942
0.00120799
0.000630842
0.000500571
0.00050057
0.000630842
0.00120799
0.00707941
0.028622
0.0266811
0.00614071
0.000920959
0.000595578
0.000485724
0.000485723
0.000595578
0.000920959
0.00614071
0.0266811
0.0246682
0.00574324
0.000776813
0.000588644
0.000484343
0.000484343
0.000588643
0.000776812
0.00574324
0.0246682
0.126225
0.0550425
0.026633
0.0185471
0.0156078
0.0156078
0.0185471
0.026633
0.0550425
0.126225
0.0768435
0.0235953
0.0149596
0.0116075
0.00977804
0.00977804
0.0116075
0.0149596
0.0235952
0.0768435
0.0557414
0.0181374
0.00837756
0.00592172
0.00481765
0.00481765
0.00592171
0.00837755
0.0181374
0.0557414
0.0428026
0.0154142
0.00512306
0.00290005
0.00218047
0.00218047
0.00290005
0.00512306
0.0154142
0.0428026
0.0358682
0.0138651
0.00369667
0.00158947
0.00109268
0.00109268
0.00158947
0.00369667
0.0138651
0.0358682
1.87615
0.20283
0.0578611
0.0270132
0.0190521
0.0190521
0.0270136
0.0578636
0.202849
1.87631
0.287033
0.121618
0.0514342
0.0264157
0.0191891
0.0191892
0.0264157
0.0514344
0.121619
0.287034
0.240439
0.10739
0.0508917
0.026248
0.0193797
0.0193797
0.0262481
0.0508918
0.107391
0.240439
0.20111
0.0960181
0.0503436
0.0260302
0.0195677
0.0195677
0.0260302
0.0503436
0.0960181
0.20111
0.159446
0.0905512
0.0463191
0.024655
0.0191351
0.0191351
0.024655
0.0463191
0.0905511
0.159446
346.52
350.902
353.755
355.311
355.819
355.73
355.071
353.395
350.449
346.006
142.069
143.66
144.789
145.496
145.822
145.797
145.423
144.674
143.51
141.893
105.868
106.912
107.673
108.165
108.399
108.38
108.11
107.583
106.79
105.719
93.4679
94.2075
94.7485
95.0982
95.2619
95.2416
95.0378
94.6489
94.0702
93.2951
88.9291
89.429
89.7929
90.0252
90.1288
90.1045
89.9525
89.6718
89.2597
88.7119
88.2759
88.5652
88.7738
88.9029
88.9529
88.9235
88.8145
88.6256
88.3561
88.0044
89.9433
90.052
90.1272
90.1672
90.1703
90.1356
90.0626
89.9513
89.8027
89.6173
93.1135
93.09
93.0627
93.0322
92.9978
92.9586
92.914
92.8637
92.807
92.7426
97.3537
97.2352
97.1309
97.0461
96.9826
96.9404
96.9188
96.9161
96.929
96.9509
102.441
102.237
102.065
101.933
101.845
101.802
101.803
101.844
101.921
102.022
108.242
107.941
107.697
107.518
107.407
107.365
107.392
107.483
107.633
107.83
114.65
114.234
113.908
113.676
113.541
113.505
113.565
113.718
113.957
114.274
121.569
121.022
120.602
120.311
120.153
120.126
120.229
120.459
120.81
121.276
128.911
128.222
127.701
127.349
127.166
127.154
127.309
127.631
128.114
128.754
136.61
135.771
135.143
134.725
134.52
134.526
134.743
135.17
135.803
136.64
144.624
143.623
142.877
142.388
142.157
142.185
142.472
143.018
143.82
144.877
152.929
151.741
150.86
150.287
150.025
150.076
150.441
151.119
152.111
153.415
161.494
160.084
159.041
158.367
158.066
158.138
158.587
159.413
160.616
162.198
170.267
168.593
167.358
166.563
166.21
166.302
166.84
167.826
169.262
171.153
179.165
177.184
175.727
174.792
174.378
174.485
175.115
176.273
177.961
180.188
188.055
185.742
184.046
182.96
182.478
182.598
183.323
184.656
186.608
189.189
196.781
194.14
192.209
190.972
190.421
190.552
191.368
192.875
195.087
198.023
205.223
202.275
200.124
198.747
198.131
198.271
199.169
200.835
203.287
206.555
213.287
210.071
207.731
206.235
205.564
205.709
206.673
208.47
211.124
214.67
220.901
217.489
215.012
213.429
212.718
212.865
213.874
215.761
218.555
222.302
228.069
224.555
222.01
220.387
219.655
219.801
220.827
222.751
225.607
229.446
234.86
231.372
228.849
227.24
226.513
226.655
227.667
229.567
232.392
236.195
241.486
238.162
235.752
234.211
233.514
233.648
234.616
236.433
239.131
242.759
248.36
245.292
243.051
241.611
240.956
241.08
241.983
243.676
246.177
249.516
256.038
253.22
251.139
249.79
249.173
249.285
250.127
251.7
254.006
257.05
265.078
262.393
260.385
259.072
258.464
258.567
259.38
260.894
263.099
265.971
275.901
273.124
271.036
269.666
269.028
269.128
269.966
271.531
273.803
276.75
288.592
285.469
283.137
281.613
280.904
281.011
281.935
283.67
286.205
289.522
302.831
299.208
296.531
294.792
293.985
294.108
295.161
297.146
300.07
303.941
318.18
314.021
310.974
309.004
308.095
308.239
309.436
311.695
315.038
319.501
334.199
329.623
326.255
324.075
323.073
323.241
324.581
327.098
330.808
335.73
351.084
346.035
342.318
339.916
338.818
339.018
340.514
343.314
347.428
352.872
368.828
363.214
359.096
356.445
355.244
355.484
357.165
360.296
364.892
370.978
387.243
381.023
376.473
373.555
372.246
372.536
374.427
377.933
383.078
389.899
406.191
399.341
394.338
391.138
389.714
390.058
392.177
396.09
401.831
409.451
425.563
418.08
412.607
409.101
407.544
407.935
410.285
414.622
420.987
429.441
445.379
437.249
431.247
427.377
425.642
426.051
428.623
433.393
440.407
449.734
466.22
457.033
450.266
445.888
443.886
444.265
447.044
452.258
459.96
470.219
487.51
477.073
469.394
464.404
462.066
462.373
465.343
471.021
479.48
490.816
508.631
496.913
488.277
482.63
479.914
480.114
483.248
489.377
498.605
511.091
529.251
516.224
506.621
500.305
497.193
497.248
500.485
506.972
516.843
530.315
548.967
534.683
524.176
517.243
513.755
513.648
516.918
523.619
533.876
547.897
567.203
551.968
540.775
533.371
529.598
529.373
532.669
539.518
550.01
564.305
583.771
568.082
556.499
548.81
544.88
544.631
548.032
555.098
565.89
580.517
599.731
583.67
571.763
563.854
559.839
559.659
563.292
570.747
582.08
597.392
616.015
599.314
586.927
578.724
574.618
574.566
578.553
586.593
598.732
615.037
632.801
615.154
602.052
593.404
589.146
589.245
593.703
602.554
615.884
633.834
650.395
631.136
616.935
607.623
603.103
603.333
608.315
618.091
632.752
652.434
667.234
646.336
630.907
620.809
615.954
616.302
621.865
632.697
648.909
670.661
683.343
660.349
643.405
632.342
627.052
627.491
633.673
645.673
663.631
687.753
697.697
672.285
653.601
641.425
635.612
636.105
642.921
656.152
675.975
702.651
709.037
681.061
660.526
647.153
640.764
641.28
648.72
663.192
684.914
714.203
716.156
685.614
663.204
648.613
641.626
642.144
650.182
665.866
689.437
721.232
718.282
685.018
660.718
644.931
637.361
637.873
646.48
663.343
688.788
723.301
713.387
677.906
652.039
635.256
627.202
627.707
636.78
654.609
681.567
718.199
700.721
663.517
636.514
619.038
610.657
611.166
620.572
639.095
667.176
705.488
678.909
641.176
613.792
596.08
587.595
588.123
597.673
616.48
645.01
683.961
648.91
611.441
584.292
566.754
558.368
558.918
568.418
587.11
615.467
654.187
611.259
575.058
548.788
531.811
523.704
524.272
533.538
551.752
579.394
617.173
568.059
533.546
508.514
492.344
484.627
485.174
494.015
511.399
537.806
573.946
520.492
488.138
464.685
449.536
442.296
442.781
451.014
467.23
491.883
525.646
469.904
440.13
418.569
404.643
397.972
398.372
405.858
420.635
443.105
473.856
417.567
390.833
371.477
358.972
352.968
353.294
359.96
373.148
393.218
420.7
365.135
341.741
324.806
313.862
308.6
308.871
314.68
326.192
343.728
367.766
314.186
294.318
279.916
270.599
266.114
266.339
271.282
281.078
295.995
316.429
266.415
250.002
238.068
230.33
226.6
226.785
230.891
239.025
251.388
268.278
223.267
209.954
200.243
193.932
190.883
191.03
194.379
201.006
211.06
224.753
185.524
174.824
166.997
161.899
159.431
159.545
162.243
167.584
175.673
186.664
153.325
144.743
138.454
134.35
132.358
132.442
134.605
138.889
145.373
154.167
126.366
119.469
114.406
111.097
109.486
109.546
111.28
114.718
119.92
126.969
104.111
98.538
94.4411
91.7589
90.4492
90.4914
91.8866
94.6584
98.8515
104.53
85.9277
81.3887
78.0475
75.8565
74.7832
74.8116
75.9427
78.1941
81.6
86.2096
71.1777
67.4428
64.6895
62.881
61.9922
62.0107
62.9373
64.7852
67.5808
71.3618
59.2644
56.1523
53.8545
52.3426
51.5972
51.6089
52.378
53.9147
56.2393
59.3805
49.6567
47.0255
45.0794
43.7967
43.1624
43.1693
43.8179
45.1156
47.078
49.7271
41.8993
39.6381
37.9625
36.856
36.3073
36.3112
36.8678
37.9828
39.6678
41.9395
35.6115
33.6339
32.1653
31.1937
30.7107
30.7126
31.1995
32.1754
33.6489
35.6322
30.4819
28.7205
27.4094
26.5403
26.1073
26.1079
26.5423
27.4131
28.7262
30.4903
26.2597
24.6618
23.4694
22.6773
22.2818
22.2816
22.6769
23.469
24.6617
26.2603
22.7449
21.2694
20.1653
19.43
19.0622
19.0616
19.4282
20.1624
21.2658
22.7409
19.7803
18.3949
17.3549
16.6608
16.3128
16.3119
16.6582
17.3507
18.3893
19.7735
17.2427
15.9222
14.9275
14.2618
13.9275
13.9265
14.2589
14.9226
15.9155
17.2344
15.0364
13.7614
12.7974
12.1506
11.8251
11.8241
12.1476
12.7925
13.7545
15.0276
13.0872
11.8437
10.8999
10.2648
9.9447
9.9438
10.2621
10.8954
11.8373
13.0789
11.3383
10.1175
9.18756
8.55984
8.24295
8.24223
8.55767
9.1839
10.1123
11.3313
9.74612
8.54541
7.62754
7.00618
6.69198
6.6915
7.00471
7.62505
8.5418
9.74118
8.27759
7.10171
6.20027
5.58825
5.27819
5.27796
5.58756
6.19912
7.10005
8.27527
6.9085
5.77151
4.89832
4.30348
4.00127
4.00127
4.30352
4.89845
5.77179
6.90889
5.6231
4.55026
3.72584
3.16133
2.8729
2.87307
3.16191
3.72696
4.55209
5.62578
4.41597
3.44439
2.69751
2.18085
1.91353
1.91379
2.18171
2.69916
3.44711
4.42007
3.29726
2.47255
1.83548
1.38524
1.14613
1.14638
1.38609
1.83717
2.47542
3.30172
2.30073
1.66507
1.16137
0.791257
0.586491
0.586672
0.791897
1.16271
1.66745
2.3046
1.48615
1.05529
0.680608
0.39432
0.233667
0.233755
0.394669
0.681422
1.05685
1.48883
0.930141
0.659845
0.365572
0.160507
0.064833
0.0648556
0.160622
0.365906
0.660595
0.931521
0.778197
0.443939
0.161178
0.0494304
0.0219439
0.0219455
0.0494437
0.16124
0.444142
0.778633
339.302
330.306
318.958
305.222
289.253
271.421
252.278
232.591
214.517
198.146
182.896
168.61
155.264
142.858
131.378
120.786
111.028
102.039
93.7521
86.0998
79.0203
72.4566
66.3573
60.6759
55.371
50.4051
45.7448
41.3598
37.2231
33.3098
29.5967
26.0612
22.6775
19.386
16.1491
13.0599
9.99739
7.03436
4.2974
2.21267
139.648
136.673
133.063
128.844
124.089
118.909
113.446
107.899
102.607
97.4695
92.3155
87.0945
81.8358
76.6039
71.4695
66.4944
61.7239
57.1865
52.8965
48.857
45.0642
41.5089
38.1795
35.0623
32.1432
29.4077
26.8414
24.4306
22.1619
20.023
18.0025
16.0902
14.2774
12.5583
10.9385
9.44293
8.11397
7.07202
6.70163
10.3933
104.272
102.374
100.102
97.4768
94.5418
91.3631
88.017
84.5823
81.1384
77.6766
74.149
70.5354
66.8475
63.1197
59.3951
55.7174
52.1249
48.6471
45.3052
42.1129
39.0777
36.2024
33.4859
30.9248
28.514
26.2468
24.1164
22.1156
20.2373
18.4755
16.8255
15.2846
13.8542
12.5414
11.365
10.3653
9.6268
9.36225
10.356
20.099
92.2542
90.8865
89.2393
87.3074
85.0971
82.6264
79.9312
77.0775
74.1312
71.1125
68.0232
64.8692
61.6654
58.434
55.2036
52.0057
48.8691
45.817
42.8672
40.0324
37.3212
34.7387
32.287
29.9662
27.7748
25.7099
23.7683
21.9466
20.2416
18.6514
17.1756
15.8168
14.5822
13.487
12.5605
11.8607
11.5121
11.8442
14.1451
29.9302
87.9786
87.0099
85.8242
84.3856
82.6446
80.5415
78.0601
75.3097
72.41
69.415
66.3564
63.2589
60.1505
57.0485
53.9699
50.9359
47.9682
45.0849
42.2999
39.6228
37.0604
34.6169
32.2945
30.094
28.0149
26.0559
24.2157
22.4928
20.8864
19.3971
18.0275
16.7837
15.6776
14.7304
13.9813
13.5061
13.4701
14.3163
17.7987
39.4546
87.5395
86.9261
86.1623
85.2063
83.9791
82.2754
79.7904
76.7746
73.6238
70.3943
67.151
63.907
60.6856
57.5
54.3745
51.3251
48.3646
45.5043
42.7536
40.1187
37.6032
35.2093
32.9377
30.7884
28.7607
26.8535
25.066
23.3977
21.8491
20.4223
19.1219
17.9567
16.9421
16.1049
15.4936
15.2016
15.4335
16.7402
21.3056
48.3438
89.3803
89.0728
88.7084
88.314
87.8657
86.1977
83.1045
79.8626
76.5702
73.1161
69.571
66.0788
62.6282
59.2191
55.9093
52.7136
49.6446
46.706
43.8999
41.2274
38.6884
36.2817
34.0059
31.8593
29.84
27.9464
26.1774
24.5327
23.0134
21.6224
20.3659
19.2546
18.307
17.5553
17.0566
16.9217
17.3932
19.1261
24.7113
56.8257
92.6594
92.5462
92.4174
92.2854
91.7519
89.9154
86.8946
83.4643
79.9039
76.258
72.6045
68.9992
65.4089
61.8496
58.296
54.8556
51.5919
48.4998
45.5723
42.8034
40.1881
37.7217
35.3997
33.2183
31.1739
29.2639
27.4865
25.8411
24.3288
22.9531
21.721
20.6451
19.7469
19.0631
18.6596
18.6642
19.3564
21.4908
28.0471
64.9822
96.9692
96.9753
96.9789
96.9439
96.2805
94.3822
91.4102
87.7701
83.8485
79.8657
75.949
72.1556
68.4743
64.8602
61.2034
57.5553
54.0504
50.7577
47.6636
44.7561
42.0253
39.463
37.062
34.8158
32.7193
30.7685
28.9606
27.2944
25.7707
24.3934
23.1703
22.1154
21.2528
20.6239
20.3032
20.4347
21.334
23.8518
31.3395
72.8846
102.142
102.273
102.401
102.398
101.794
99.9264
96.8096
92.8841
88.5744
84.1797
79.8852
75.782
71.8807
68.1339
64.4539
60.6522
56.9009
53.3855
50.0966
47.0209
44.1458
41.4601
38.954
36.6192
34.4486
32.4368
30.5799
28.876
27.3258
25.9329
24.7059
23.6601
22.8223
22.2384
21.991
22.2403
23.3369
26.2248
34.6159
80.6272
108.08
108.392
108.741
108.877
108.259
106.304
102.984
98.7374
94.0147
89.1659
84.4289
79.9374
75.7328
71.7775
67.961
64.076
60.0924
56.3261
52.8178
49.5509
46.5092
43.6786
41.0471
38.6042
36.3414
34.2518
32.3305
30.5748
28.9849
27.5646
26.323
25.2767
24.4548
23.9079
23.7266
24.0868
25.3737
28.6227
37.8988
88.2882
114.688
115.219
115.825
116.217
115.658
113.517
109.9
105.271
100.095
94.7572
89.5367
84.605
80.0305
75.7854
71.7486
67.7206
63.5371
59.5183
55.7802
52.3076
49.0831
46.0911
43.3178
40.7511
38.3811
36.1996
34.2007
32.3811
30.7405
29.2828
28.0175
26.9624
26.1492
25.6327
25.5118
25.9778
27.4502
31.0552
41.2076
95.9422
121.891
122.691
123.615
124.33
123.832
121.485
117.512
112.434
106.749
100.878
95.1358
89.7234
84.7325
80.1496
75.8589
71.6477
67.227
62.9399
58.9581
55.2657
51.8442
48.6763
45.7469
43.0429
40.5529
38.2675
36.1798
34.2859
32.5851
31.0813
29.7844
28.7136
27.9029
27.4116
27.3465
27.9147
29.5697
33.5286
44.5569
103.651
129.604
130.71
132.004
133.117
132.755
130.188
125.782
120.165
113.898
107.442
101.144
95.2274
89.8
84.8571
80.2842
75.8478
71.1565
66.5781
62.3338
58.4053
54.7719
51.4149
48.3173
45.4642
42.8429
40.443
38.2568
36.2794
34.51
32.9525
31.6173
30.5249
29.7116
29.2412
29.2285
29.8967
31.7336
36.048
47.9588
111.454
137.751
139.192
140.881
142.491
142.417
139.596
134.659
128.4
121.469
114.377
107.498
101.071
95.2077
89.8991
85.0184
80.2978
75.3015
70.4131
65.8883
61.7075
57.848
54.2886
51.0106
47.9975
45.2349
42.7114
40.4182
38.3499
36.5051
34.8875
33.5083
32.3892
31.569
31.1162
31.1539
31.9219
33.9438
38.6245
51.453
119.48
146.275
148.08
150.192
152.389
152.792
149.693
144.127
137.121
129.444
121.664
114.181
107.241
100.942
95.2549
90.0232
84.9575
79.6388
74.4247
69.6013
65.1527
61.0531
57.2791
53.8096
50.6262
47.7133
45.058
42.6503
40.4842
38.5577
36.8746
35.4465
34.2965
33.466
33.0279
33.1143
33.9815
36.1901
41.2431
55.0069
127.675
155.136
157.352
159.959
162.811
163.763
160.414
154.178
146.342
137.841
129.32
121.207
113.744
107.006
100.926
95.3105
89.8522
84.1464
78.5837
73.4472
68.7172
64.3653
60.3654
56.6945
53.3321
50.2608
47.4663
44.9377
42.6679
40.6545
38.9012
37.42
36.2352
35.3911
34.9651
35.098
36.0631
38.4582
43.885
58.5918
135.98
164.283
166.968
170.132
173.703
175.353
171.765
164.805
156.065
146.666
137.352
128.582
120.591
113.416
106.933
100.893
94.9611
88.7993
82.8649
77.3993
72.3747
67.7591
63.5238
59.6429
56.094
52.8578
49.9184
47.2636
44.8853
42.7807
40.9532
39.4154
38.1928
37.3322
36.9157
37.093
38.1542
40.7347
46.5355
62.1907
144.368
173.647
176.865
180.665
185.011
187.401
183.621
175.934
166.244
155.893
145.742
136.307
127.793
120.179
113.274
106.761
100.255
93.5591
87.2309
81.4212
76.0911
71.2036
66.7257
62.629
58.8883
55.4825
52.3941
49.6093
47.1193
44.9203
43.0159
41.4188
40.1559
39.2764
38.8673
39.0869
40.2424
43.0065
49.1805
65.7866
152.802
183.133
186.949
191.472
196.68
199.821
195.896
187.485
176.805
165.455
154.459
144.361
135.341
127.31
119.975
112.915
105.578
98.308
91.6076
85.4596
79.8239
74.662
69.9389
65.6236
61.6888
58.1113
54.8717
51.9551
49.3515
47.0566
45.0735
43.4154
42.1106
41.2107
40.8072
41.0672
42.3149
45.2605
51.8051
69.3599
161.234
192.616
197.078
202.399
208.572
212.536
208.46
199.291
187.591
175.239
163.402
152.668
143.176
134.724
126.865
119.013
110.824
103.071
95.9735
89.4778
83.5336
78.0969
73.129
68.5958
64.4675
60.7187
57.3284
54.2802
51.563
49.1719
47.1099
45.3905
44.043
43.1216
42.7225
43.0213
44.3592
47.4832
54.3938
72.8889
169.605
201.937
207.065
213.223
220.432
225.252
220.971
211.008
198.304
184.992
172.385
161.106
151.226
142.388
133.895
124.794
115.874
107.709
100.241
93.4112
87.1678
81.4637
76.2571
71.5112
67.1938
63.2776
59.7398
56.5627
53.7342
51.2487
49.1089
47.3289
45.939
44.996
44.6006
44.9369
46.3628
49.6616
56.9316
76.3516
177.852
210.928
216.691
223.659
231.906
237.671
233.042
222.231
208.558
194.398
181.177
169.51
159.32
149.932
140.146
130.07
120.724
112.172
104.352
97.2057
90.678
84.7192
79.2848
74.3356
69.8374
65.7607
62.0814
58.7805
55.8449
53.2684
51.0537
49.2151
47.7844
46.8206
46.4291
46.8023
48.3143
51.7844
59.4065
79.7333
185.93
219.437
225.75
233.432
242.597
249.173
244.242
232.66
218.141
203.288
189.62
177.691
167.21
157.055
145.887
135.137
125.343
116.408
108.254
100.811
94.018
87.8219
82.1753
77.0364
72.3689
68.1419
64.3298
60.9124
57.8758
55.2134
52.9279
51.034
49.5649
48.5819
48.1951
48.605
50.2018
53.8403
61.8093
83.0316
193.824
227.355
234.081
242.313
252.206
259.446
254.366
242.183
226.957
211.548
197.574
185.477
174.618
162.909
150.813
139.715
129.579
120.325
111.879
104.172
97.1421
90.7325
84.894
79.5829
74.7615
70.3972
66.4632
62.9387
59.8091
57.0675
54.7165
52.7716
51.2672
50.2671
49.8858
50.3316
52.0105
55.8113
64.114
86.1957
201.394
234.644
241.589
250.13
260.47
268.226
263.311
250.774
234.959
219.075
204.833
192.44
180.712
167.86
155.311
143.858
133.411
123.879
115.182
107.248
100.013
93.4175
87.4114
81.9492
76.9917
72.5054
68.4629
64.8425
61.6292
58.8162
56.4061
54.4152
52.8792
51.8644
51.4893
51.97
53.7274
57.6823
66.3012
89.1972
208.575
241.355
248.268
256.797
267.207
275.315
271.054
258.419
242.109
225.792
211.315
198.662
185.855
172.076
159.21
147.48
136.783
127.026
118.125
110.006
102.601
95.8513
89.7045
84.1145
79.041
74.4501
70.3136
66.6097
63.3234
60.4476
57.9855
55.9542
54.3907
53.3636
52.9955
53.5098
55.3411
59.4406
68.3554
92.0134
215.308
247.678
254.252
262.355
272.39
280.694
277.273
264.602
247.901
231.346
216.782
203.891
189.861
175.552
162.476
150.547
139.666
129.74
120.685
112.423
104.887
98.0168
91.7583
86.0652
80.8971
76.2197
72.0049
68.2307
64.8823
61.953
59.4465
57.3806
55.7937
54.7569
54.3964
54.9424
56.8424
61.0754
70.2633
94.6247
221.54
253.997
259.872
266.802
274.932
283.599
283.306
269.602
252.207
235.587
221.107
207.737
192.983
178.402
165.132
153.052
142.045
132.007
122.849
114.491
106.865
99.9074
93.5666
87.7957
82.5545
77.8091
73.5316
69.7004
66.301
63.3274
60.7838
58.6891
57.083
56.0387
55.6862
56.2616
58.2242
62.5787
72.0144
97.0146
227.224
261.067
266.188
271.738
277.785
284.918
285.547
271.83
254.654
238.541
224.449
210.674
195.189
180.434
167.08
154.949
143.9
133.822
124.62
116.215
108.538
101.528
95.1337
89.3094
84.0158
79.2199
74.8945
71.0188
67.579
64.5697
61.996
59.8777
58.2561
57.2063
56.8615
57.4636
59.4821
63.9445
73.6005
99.168
232.305
269.69
274.239
278.385
282.142
286.753
285.555
272.345
256.016
240.535
226.712
211.671
195.846
181.406
168.241
156.226
145.248
135.209
126.024
117.619
109.929
102.898
96.476
90.6198
85.292
80.461
76.1007
72.1915
68.7205
65.683
63.0853
60.948
59.3138
58.2598
57.922
58.5471
60.6142
65.1701
75.0174
101.078
236.768
280.533
285.095
287.948
288.466
289.619
285.246
272.297
256.782
241.507
226.681
211.061
195.756
181.714
168.838
157.027
146.192
136.248
127.125
118.755
111.082
104.053
97.6228
91.7512
86.4032
81.5489
77.1639
73.2298
69.7347
66.675
64.0577
61.9048
60.26
59.2021
58.8698
59.5139
61.6213
66.2557
76.2641
102.742
240.596
293.838
299.16
300.485
296.376
292.97
285.453
271.633
256.343
241.248
225.782
210.06
195.295
181.677
169.121
157.547
146.882
137.059
128.017
119.7
112.057
105.043
98.615
92.7373
87.3771
82.5067
78.1032
74.1496
70.6349
67.5567
64.9228
62.7561
61.1015
60.0391
59.7098
60.3681
62.5071
67.2044
77.3434
104.161
243.789
309.065
315.541
314.771
304.644
295.055
286.186
272.445
256.065
240.285
224.341
209.052
194.827
181.614
169.357
158.002
147.493
137.78
128.812
120.543
112.928
105.927
99.5021
93.619
88.2479
83.3629
78.9426
74.9711
71.4384
68.3428
65.6931
63.5127
61.8476
60.7791
60.4496
61.1164
63.2778
68.0222
78.2614
105.343
246.359
325.5
333.43
330.296
314.269
299.376
285.326
270.972
255.116
238.906
223.362
208.649
194.826
181.895
169.837
158.621
148.208
138.558
129.629
121.381
113.774
106.771
100.338
94.4409
89.0529
84.149
79.7088
75.717
72.1646
69.0502
66.3831
64.1875
62.5098
61.4322
61.0984
61.7677
63.9422
68.718
79.0281
106.302
248.346
342.273
350.75
345.639
325.72
306.984
289.325
272.382
255.775
239.603
224.145
209.516
195.754
182.862
170.823
159.611
149.192
139.527
130.577
122.305
114.67
107.638
101.174
95.2476
89.83
84.8972
80.4293
76.4112
72.8341
69.6968
67.0088
64.7946
63.1009
62.0103
61.6674
62.3326
64.5106
69.3029
79.6562
107.054
249.791
360.088
369.422
362.676
339.326
317.508
297.157
278.052
260.016
242.986
226.954
211.914
197.844
184.714
172.485
161.117
150.567
140.791
131.745
123.389
115.68
108.582
102.059
96.079
90.6135
85.6374
81.1301
77.0764
73.467
70.3005
67.5863
65.3486
63.6342
62.5259
62.1684
62.8229
64.9952
69.7898
80.1613
107.624
250.754
379.063
389.584
381.761
355.118
330.442
307.625
286.468
266.814
248.539
231.546
215.756
201.094
187.491
174.882
163.204
152.398
142.411
133.189
124.683
116.849
109.643
103.027
96.9673
91.4319
86.3947
81.8338
77.7327
74.0813
70.8777
68.1304
65.8633
64.1228
62.9914
62.6137
63.2509
65.4091
70.1934
80.5608
108.035
251.303
398.979
410.834
402.272
372.545
345.128
319.923
296.727
275.365
255.678
237.525
220.784
205.342
191.099
177.963
165.85
154.685
144.399
134.927
126.212
118.2
110.845
104.102
97.9337
92.3052
87.1879
82.5576
78.3962
74.6922
71.4423
68.6543
66.3512
64.5788
63.4188
63.0155
63.6294
65.7662
70.5302
80.8761
108.319
251.506
419.618
432.938
423.708
391.024
360.959
333.428
308.208
285.104
263.931
244.519
226.715
210.38
195.387
181.622
168.984
157.378
146.722
136.94
127.963
119.731
112.19
105.289
98.9854
93.242
88.0261
83.3111
79.0766
75.3091
72.004
69.1676
66.822
65.0118
63.8182
63.3845
63.9707
66.0815
70.8201
81.139
108.545
251.573
440.728
455.52
445.701
410.159
377.51
347.693
320.463
295.609
272.92
252.203
233.28
215.989
200.183
185.728
172.503
160.402
149.326
139.188
129.91
121.423
113.664
106.579
100.119
94.2412
88.9106
84.097
79.7775
75.9366
72.5677
69.6757
67.2812
65.4278
64.1956
63.727
64.2811
66.3614
71.0695
81.354
108.705
251.469
462.19
478.506
468.077
429.682
394.46
362.371
333.141
306.539
282.331
260.296
240.235
221.964
205.315
190.137
176.295
163.665
152.138
141.616
132.01
123.243
115.246
107.956
101.322
95.295
89.8362
84.9125
80.4982
76.5752
73.135
70.1809
67.7318
65.8302
64.555
64.0474
64.5653
66.6108
71.283
81.5245
108.802
251.223
483.915
501.756
490.62
449.343
411.521
377.151
345.931
317.597
291.885
268.547
247.358
228.11
210.618
194.713
180.244
167.074
155.083
144.162
134.214
125.153
116.903
109.397
102.577
96.3897
90.7932
85.7507
81.2337
77.2218
73.7045
70.6829
68.1747
66.2207
64.8986
64.3484
64.8266
66.8334
71.4651
81.6572
108.849
250.88
506.037
525.974
513.339
468.859
428.367
391.703
358.516
328.492
301.322
276.725
254.445
234.252
215.941
199.326
184.241
170.538
158.085
146.764
136.471
127.111
118.603
110.875
103.861
97.5084
91.7682
86.6013
81.9765
77.8711
74.2721
71.1793
68.6084
66.5988
65.2269
64.6313
65.0669
67.0323
71.62
81.758
108.855
250.471
528.031
550.494
535.542
487.665
444.486
405.593
370.533
338.919
310.386
284.613
261.314
240.235
221.152
203.863
188.19
173.975
161.075
149.364
138.731
129.077
120.312
112.361
105.154
98.6326
92.7462
87.4524
82.7171
78.5154
74.8324
71.6658
69.0299
66.9627
65.5389
64.896
65.2872
67.209
71.7505
81.8312
108.828
250.003
548.793
573.644
555.457
504.668
459.13
418.289
381.596
348.587
318.85
292.029
267.814
245.932
226.142
208.232
192.012
177.316
163.993
151.911
140.953
131.013
121.999
113.829
106.431
99.7435
93.7118
88.2911
83.445
79.1463
75.3783
72.1371
69.4352
67.3093
65.8328
65.1415
65.4873
67.3644
71.8585
81.8802
108.772
249.469
567.115
592.57
571.463
518.815
471.651
429.379
391.426
357.297
326.565
298.856
273.849
251.26
230.841
212.369
195.651
180.511
166.795
154.365
143.099
132.888
123.635
115.256
107.673
100.824
94.6499
89.1046
84.1493
79.7548
75.9026
72.5871
69.8195
67.635
66.1057
65.3661
65.6664
67.499
71.946
81.9096
108.695
248.844
583.771
608.32
583.768
530.157
482.051
438.849
400.006
365.033
333.51
305.07
279.391
256.19
235.215
216.242
199.072
183.527
169.449
156.697
145.144
134.678
125.199
116.62
108.862
101.857
95.5466
89.881
84.8198
80.332
76.3975
73.0093
70.1773
67.9352
66.3541
65.567
65.8228
67.6119
72.014
81.9253
108.62
248.205
600.282
622.741
593.246
539.359
490.813
447.051
407.582
371.961
339.796
310.741
284.482
260.742
239.271
219.845
202.264
186.348
171.937
158.885
147.066
136.362
126.672
117.905
109.981
102.829
96.3892
90.609
85.4465
80.8693
76.8557
73.3975
70.5031
68.2053
66.5738
65.7406
65.9529
67.6992
72.0565
81.9165
108.538
248.001
618.047
637.082
601.24
547.597
498.819
454.608
414.587
378.378
345.626
316.003
289.209
264.969
243.038
223.192
205.23
188.97
174.248
160.919
148.851
137.926
128.039
119.097
111.018
103.728
97.1664
91.2784
86.0206
81.3589
77.2704
73.7455
70.7917
68.4406
66.7608
65.883
66.053
67.756
72.0614
81.8422
108.328
248.16
636.837
653.021
611.755
556.927
507.246
462.244
421.492
384.6
351.212
321
293.665
268.932
246.553
226.303
207.977
191.39
176.377
162.787
150.487
139.356
129.286
120.182
111.959
104.542
97.8675
91.8798
86.5335
81.7934
77.6352
74.0481
71.0387
68.6375
66.9121
65.9923
66.1225
67.7861
72.0494
81.7784
108.174
247.37
658.036
670.655
622.969
567.038
516.24
470.202
428.521
390.804
356.684
325.822
297.91
272.667
249.836
229.185
210.504
193.603
178.313
164.478
151.961
140.639
130.4
121.147
112.792
105.259
98.4821
92.4036
86.977
82.1656
77.9439
74.3002
71.2398
68.7924
67.0248
66.0656
66.1579
67.7834
72.0046
81.6782
107.958
246.444
678.847
689.309
636.706
578.582
526.056
478.605
435.745
397.034
362.068
330.483
301.951
276.172
252.877
231.825
212.796
195.592
180.038
165.973
153.255
141.757
131.365
121.977
113.504
105.868
98.9992
92.8403
87.3426
82.4682
78.1904
74.4964
71.3907
68.9021
67.0962
66.1007
66.1575
67.7459
71.9241
81.5354
107.68
245.57
699.853
708.676
651.274
590.744
536.251
487.189
442.991
403.167
367.274
334.912
305.726
279.395
255.634
234.185
214.817
197.325
181.524
167.247
154.346
142.69
132.162
122.656
114.08
106.354
99.4072
93.1796
87.6215
82.6935
78.3681
74.6315
71.487
68.9628
67.1237
66.0963
66.1212
67.6759
71.8152
81.3727
107.396
244.374
720.188
727.736
665.793
602.82
546.293
495.544
449.954
408.973
372.12
338.964
309.119
282.242
258.026
236.198
216.514
198.755
182.73
168.264
155.204
143.412
132.768
123.163
114.503
106.704
99.6934
93.4107
87.8042
82.8337
78.4704
74.6996
71.524
68.971
67.1045
66.0505
66.0484
67.5746
71.682
81.2012
107.167
243.556
738.604
745.595
679.6
614.208
555.658
503.233
456.262
414.148
376.364
342.443
311.972
284.583
259.948
237.777
217.811
199.822
183.606
168.983
155.793
143.893
133.159
123.478
114.754
106.901
99.8447
93.5223
87.8814
82.8806
78.4903
74.6952
71.4972
68.9229
67.0358
65.961
65.937
67.4384
71.5146
80.987
106.861
243.321
753.785
761.439
692.049
624.308
563.806
509.781
461.508
418.341
379.71
345.108
314.089
286.26
261.272
238.816
218.624
200.455
184.095
169.357
156.074
144.101
133.307
123.578
114.815
106.93
99.8477
93.5034
87.8438
82.8266
78.4218
74.6132
71.4024
68.8154
66.9153
65.8265
65.7867
67.269
71.3203
80.7565
106.572
243.114
764.116
773.709
702.385
632.437
570.115
514.641
465.226
421.165
381.835
346.689
315.247
287.09
261.85
239.201
218.862
200.58
184.136
169.336
156.008
144.002
133.185
123.441
114.668
106.777
99.6904
93.3439
87.6831
82.6652
78.2594
74.4495
71.2365
68.6463
66.7416
65.6463
65.5976
67.0674
71.1004
80.5073
106.27
242.794
770.267
784.731
709.794
637.783
573.803
517.144
466.874
422.186
382.395
346.912
315.227
286.898
261.538
238.812
218.424
200.118
183.665
168.868
155.552
143.563
132.767
123.046
114.295
106.427
99.3619
93.0355
87.393
82.3913
77.9995
74.2013
70.9977
68.4146
66.5144
65.4211
65.3716
66.8372
70.8616
80.2533
105.989
242.521
768.068
785.733
710.539
637.962
573.474
516.409
465.846
420.966
381.06
345.523
313.829
285.524
260.211
237.547
217.232
199.003
182.63
167.912
154.673
142.757
132.031
122.374
113.683
105.868
98.8527
92.5704
86.967
81.9996
77.6378
73.8651
70.683
68.1175
66.2312
65.1483
65.1057
66.5748
70.5993
79.9879
105.722
242.308
757.972
779.016
705.104
632.898
568.782
512.055
461.806
417.222
377.6
342.337
310.905
282.849
257.773
235.332
215.224
197.187
180.991
166.436
153.345
141.565
130.96
121.413
112.821
105.095
98.1577
91.9448
86.4024
81.4884
77.1728
73.4398
70.2915
67.754
65.8908
64.826
64.7969
66.275
70.3036
79.6909
105.417
242.004
737.316
761.33
692.206
622.343
559.604
503.965
454.628
410.832
371.904
337.256
306.374
278.809
254.172
232.124
212.368
194.646
178.732
164.428
151.561
139.98
129.552
120.163
111.71
104.107
97.2782
91.1605
85.7015
80.86
76.6071
72.9279
69.8252
67.3261
65.4943
64.4547
64.4446
65.9358
69.9714
79.3593
105.083
241.723
707.216
735.056
674.484
606.975
546.432
492.324
444.374
401.812
363.97
330.275
300.228
273.397
249.405
227.924
208.668
191.385
175.857
161.894
149.327
138.01
127.816
118.631
110.358
102.913
96.223
90.2263
84.8726
80.1223
75.948
72.3362
69.2905
66.839
65.0463