/*--------------------------------*- C++ -*----------------------------------*\
  =========                 |
  \\      /  F ield         | OpenFOAM: The Open Source CFD Toolbox
   \\    /   O peration     | Website:  https://openfoam.org
    \\  /    A nd           | Version:  8
     \\/     M anipulation  |
\*---------------------------------------------------------------------------*/
FoamFile
{
    version     2.0;
    format      ascii;
    class       volScalarField;
    location    "0.2";
    object      alpha.water;
}
// * * * * * * * * * * * * * * * * * * * * * * * * * * * * * * * * * * * * * //

dimensions      [0 0 0 0 0 0 0];

internalField   nonuniform List<scalar> 
9150
(
1
1
1
1
1
1
1
1
1
1
1
1
1
1
1
1
1
1
1
1
1
1
1
1
1
1
1
1
1
1
1
1
1
1
1
1
1
1
1
1
1
1
1
1
1
1
1
1
1
1
1
1
1
1
1
1
1
1
1
1
1
1
1
1
1
1
1
1
1
1
1
1
1
1
1
1
1
1
1
1
1
1
1
1
1
1
1
1
1
1
1
1
1
1
1
1
1
1
1
1
1
1
1
1
1
1
1
1
1
1
1
1
1
1
1
1
1
1
1
1
1
1
1
1
1
1
1
1
1
1
1
1
1
1
1
1
1
1
1
1
1
1
1
1
1
1
1
1
1
1
3.53927e-80
7.01753e-80
1.19778e-79
1.8205e-79
2.50777e-79
2.46942e-79
1.7692e-79
1.14172e-79
6.53385e-80
3.20994e-80
5.28868e-79
6.63493e-79
7.5946e-79
8.0053e-79
7.6796e-79
7.71745e-79
7.89112e-79
7.19364e-79
5.79946e-79
4.10137e-79
1.4168e-75
1.89262e-75
2.33465e-75
2.67536e-75
2.83402e-75
2.83583e-75
2.65698e-75
2.26014e-75
1.73134e-75
1.18337e-75
2.22977e-72
3.00674e-72
3.74841e-72
4.3354e-72
4.63221e-72
4.63772e-72
4.32758e-72
3.66887e-72
2.8103e-72
1.93146e-72
2.52674e-69
3.40908e-69
4.25916e-69
4.93853e-69
5.2945e-69
5.30265e-69
4.94376e-69
4.1955e-69
3.22762e-69
2.23851e-69
2.21797e-66
2.97942e-66
3.71369e-66
4.30198e-66
4.61562e-66
4.62351e-66
4.31344e-66
3.67202e-66
2.84329e-66
1.99348e-66
1.57546e-63
2.10091e-63
2.60583e-63
3.00979e-63
3.22694e-63
3.23258e-63
3.02022e-63
2.58206e-63
2.01468e-63
1.42927e-63
9.31216e-61
1.23053e-60
1.51645e-60
1.74433e-60
1.86721e-60
1.87039e-60
1.75089e-60
1.50423e-60
1.18348e-60
8.49961e-61
4.6666e-58
6.10393e-58
7.46683e-58
8.5474e-58
9.13017e-58
9.14483e-58
8.57942e-58
7.40983e-58
5.88062e-58
4.2766e-58
2.00831e-55
2.59852e-55
3.15358e-55
3.59097e-55
3.82647e-55
3.83216e-55
3.60379e-55
3.12971e-55
2.50596e-55
1.84555e-55
7.48911e-53
9.58198e-53
1.1533e-52
1.30604e-52
1.38806e-52
1.38994e-52
1.31038e-52
1.14444e-52
9.24612e-53
6.89589e-53
2.43515e-50
3.08039e-50
3.67646e-50
4.13998e-50
4.38804e-50
4.39343e-50
4.15264e-50
3.64752e-50
2.97353e-50
2.24573e-50
6.93462e-48
8.67237e-48
1.02629e-47
1.14914e-47
1.21464e-47
1.21599e-47
1.15235e-47
1.01801e-47
8.37383e-48
6.40361e-48
1.73477e-45
2.14487e-45
2.51677e-45
2.80211e-45
2.9536e-45
2.95656e-45
2.80923e-45
2.49598e-45
2.07155e-45
1.60385e-45
3.81995e-43
4.6698e-43
5.4334e-43
6.0154e-43
6.32307e-43
6.32877e-43
6.02928e-43
5.3876e-43
4.51127e-43
3.53575e-43
7.41346e-41
8.96178e-41
1.03404e-40
1.13842e-40
1.19336e-40
1.19432e-40
1.14079e-40
1.02517e-40
8.65992e-41
6.86994e-41
1.26893e-38
1.51709e-38
1.73609e-38
1.90082e-38
1.98715e-38
1.98857e-38
1.90438e-38
1.72097e-38
1.46646e-38
1.17735e-38
1.91618e-36
2.26618e-36
2.57237e-36
2.80118e-36
2.92058e-36
2.92244e-36
2.80587e-36
2.54972e-36
2.19139e-36
1.78027e-36
2.55292e-34
2.98725e-34
3.36397e-34
3.64371e-34
3.78905e-34
3.79117e-34
3.64912e-34
3.33416e-34
2.89e-34
2.37538e-34
3.0004e-32
3.47444e-32
3.8822e-32
4.18309e-32
4.33877e-32
4.34088e-32
4.18856e-32
3.84772e-32
3.3632e-32
2.79633e-32
3.10987e-30
3.56466e-30
3.95271e-30
4.23732e-30
4.38396e-30
4.3858e-30
4.24217e-30
3.91772e-30
3.4528e-30
2.90363e-30
2.84157e-28
3.2248e-28
3.54926e-28
3.78582e-28
3.9072e-28
3.90862e-28
3.7896e-28
3.51813e-28
3.12602e-28
2.65846e-28
2.28774e-26
2.57108e-26
2.80919e-26
2.98178e-26
3.07e-26
3.07096e-26
2.98437e-26
2.78491e-26
2.49451e-26
2.14501e-26
1.62176e-24
1.80533e-24
1.95848e-24
2.06888e-24
2.12509e-24
2.12566e-24
2.07044e-24
1.9419e-24
1.75327e-24
1.52418e-24
1.01135e-22
1.11539e-22
1.20159e-22
1.26339e-22
1.29475e-22
1.29504e-22
1.26421e-22
1.19168e-22
1.08439e-22
9.52926e-23
5.54097e-21
6.0555e-21
6.47906e-21
6.78116e-21
6.93391e-21
6.9352e-21
6.78492e-21
6.4273e-21
5.89409e-21
5.23499e-21
2.65905e-19
2.88008e-19
3.06092e-19
3.18927e-19
3.25395e-19
3.25445e-19
3.19075e-19
3.03735e-19
2.80679e-19
2.51936e-19
1.11463e-17
1.19687e-17
1.2638e-17
1.31109e-17
1.33486e-17
1.33502e-17
1.31159e-17
1.25446e-17
1.16794e-17
1.05919e-17
4.2032e-16
4.47909e-16
4.70287e-16
4.86048e-16
4.93963e-16
4.94009e-16
4.86198e-16
4.66967e-16
4.37661e-16
4.006e-16
1.57091e-14
1.66419e-14
1.74022e-14
1.79315e-14
1.81965e-14
1.81977e-14
1.79357e-14
1.72893e-14
1.62942e-14
1.50358e-14
3.73663e-13
3.89206e-13
4.01511e-13
4.10069e-13
4.14278e-13
4.14296e-13
4.10139e-13
3.9845e-13
3.79848e-13
3.55474e-13
2.86071e-12
2.90747e-12
2.93803e-12
2.964e-12
2.97664e-12
2.97675e-12
2.96448e-12
2.90457e-12
2.80537e-12
2.66152e-12
2.51187e-11
2.59317e-11
2.65942e-11
2.70667e-11
2.73143e-11
2.73142e-11
2.70664e-11
2.64375e-11
2.54766e-11
2.42452e-11
5.06604e-10
5.2034e-10
5.31805e-10
5.39909e-10
5.44161e-10
5.44152e-10
5.39879e-10
5.29532e-10
5.13826e-10
4.94065e-10
1.00381e-08
1.0246e-08
1.04234e-08
1.05497e-08
1.06163e-08
1.06161e-08
1.0549e-08
1.03935e-08
1.01609e-08
9.87322e-09
1.80966e-07
1.8373e-07
1.86174e-07
1.87932e-07
1.88868e-07
1.88864e-07
1.8792e-07
1.85861e-07
1.82861e-07
1.79271e-07
2.98423e-06
3.01659e-06
3.04676e-06
3.06883e-06
3.08076e-06
3.08071e-06
3.06867e-06
3.04434e-06
3.01031e-06
2.97194e-06
4.55074e-05
4.58489e-05
4.61888e-05
4.64465e-05
4.65879e-05
4.65872e-05
4.64437e-05
4.61748e-05
4.58184e-05
4.54539e-05
0.000651215
0.000654459
0.000658024
0.00066089
0.000662504
0.000662518
0.000660891
0.000657953
0.000654278
0.000650922
0.125253
0.1256
0.12616
0.126653
0.126944
0.126946
0.12665
0.126137
0.125559
0.125187
0.834132
0.834513
0.835159
0.835733
0.83607
0.836072
0.835729
0.835132
0.834463
0.834053
1
1
1
1
1
1
1
1
1
1
1
1
1
1
1
1
1
1
1
1
1
1
1
1
1
1
1
1
1
1
1
1
1
1
1
1
1
1
1
1
1
1
1
1
1
1
1
1
1
1
1
1
1
1
1
1
1
1
1
1
1
1
1
1
1
1
1
1
1
1
1
1
1
1
1
1
1
1
1
1
1
1
1
1
1
1
1
1
1
1
1
1
1
1
1
1
1
1
1
1
1
1
1
1
1
1
1
1
1
1
1
1
1
1
1
1
1
1
1
1
1
1
1
1
1
1
1
1
1
1
1
1
1
1
1
1
1
1
1
1
1
1
1
1
1
1
1
1
1
1
1
1
1
1
1
1
1
1
1
1
1
1
1
1
1
1
1
1
1
1
1
1
1
1
1
1
1
1
1
1
1
1
1
1
1
1
1
1
1
1
1
1
0.999999
1
1
1
1
0.999999
1
1
1
0.999999
0.999999
1
1
1
1
0.999999
0.999999
1
1
0.999999
0.999999
1
1
1
1
0.999999
0.999999
1
1
0.999999
0.999999
1
1
1
1
0.999999
0.999999
1
1
1
1
1
1
1
1
1
1
1
1
0.999999
0.999999
1
1
1
1
0.999999
0.999999
1
1
0.999999
0.999995
1
1
1
1
0.999995
0.999999
1
1
0.999999
0.999995
1
1
1
1
0.999995
0.999999
1
1
0.999999
0.999995
1
1
1
1
0.999995
0.999999
1
1
1
0.999995
1
1
1
1
0.999995
1
1
1
1
0.999995
1
1
1
1
0.999995
1
1
1
1
0.999995
1
1
1
1
0.999995
1
1
0.990547
1
0.999995
1
1
1
1
0.999995
1
0.990552
0.916887
1
0.999995
1
1
1
1
0.999995
1
0.916895
0.847893
1
0.999999
1
1
1
1
0.999999
1
0.847898
0.785036
1
1
1
1
1
1
0.999999
1
0.78504
0.717919
1
0.999995
1
1
1
1
0.999995
1
0.717921
0.652426
1
0.999995
1
1
1
1
0.999995
1
0.652427
0.593458
1
0.999995
1
1
1
1
0.999995
1
0.593459
0.542073
0.999999
0.999999
1
1
1
1
0.999999
0.999999
0.542075
0.499495
1
1
1
1
1
1
1
1
0.499498
0.467076
0.99837
1
1
1
1
1
1
0.998371
0.46708
0.443641
0.992119
0.999999
1
1
1
1
0.999999
0.992121
0.443647
0.426504
0.98928
0.999987
1
1
1
1
0.999987
0.989281
0.426512
0.41593
0.988094
0.999989
1
1
1
1
0.999989
0.988095
0.415939
0.411616
0.987624
0.999994
1
1
1
1
0.999994
0.987626
0.411627
0.411302
0.987652
0.999998
1
1
1
1
0.999998
0.987654
0.411314
0.423964
0.989334
1
1
1
1
1
1
0.989336
0.423979
0.438365
0.991245
1
1
1
1
1
1
0.991247
0.43838
0.45868
0.99347
1
1
1
1
1
1
0.993472
0.458697
0.486309
0.995826
1
1
1
1
1
1
0.995827
0.486328
0.519499
0.99786
1
1
1
1
1
1
0.99786
0.519518
0.559098
0.999317
1
1
1
1
1
1
0.999318
0.559116
0.605023
0.999973
1
1
1
1
1
1
0.999973
0.605039
0.65657
0.999992
1
1
1
1
1
1
0.999992
0.656581
0.711963
0.999993
1
1
1
1
1
1
0.999993
0.711969
0.769986
0.999995
1
1
1
1
1
1
0.999995
0.769989
0.828521
0.999998
1
1
1
1
1
1
0.999998
0.828522
0.886193
1
1
1
1
1
1
1
1
0.886193
0.944161
1
1
1
1
1
1
1
1
0.944161
1.36142e-80
4.7591e-81
1.31796e-81
2.82451e-82
4.53634e-83
5.22307e-84
4.03573e-85
1.80694e-86
5.93413e-88
1.14172e-89
1.14016e-91
5.52584e-94
1.44163e-96
2.88731e-99
6.7437e-102
1.78059e-104
5.90007e-107
2.14457e-109
3.25279e-111
1.23004e-113
4.10755e-116
1.36582e-118
4.39731e-121
1.35886e-123
4.0016e-126
1.11403e-128
2.90617e-131
7.03373e-134
1.56153e-136
3.13799e-139
5.61843e-142
8.79097e-145
1.17709e-147
1.38011e-149
1.14858e-150
3.36042e-153
9.13063e-156
1.67998e-158
1.54582e-161
4.64974e-165
2.53862e-79
1.27491e-79
4.09915e-80
1.18384e-80
2.38456e-81
2.07749e-82
4.15338e-84
3.31869e-85
1.77398e-86
5.93301e-88
1.14149e-89
1.13997e-91
5.52523e-94
1.4415e-96
2.88716e-99
6.74368e-102
1.78059e-104
5.90007e-107
4.98522e-107
4.5157e-109
7.6844e-112
2.63382e-114
9.12572e-117
3.04093e-119
9.69383e-122
2.93496e-124
8.36979e-127
2.22742e-129
5.47386e-132
1.22718e-134
2.47415e-137
4.40911e-140
6.79838e-143
8.82539e-146
9.57078e-149
1.19313e-149
1.44031e-151
3.38756e-154
5.79062e-157
4.14585e-160
7.13096e-76
3.55722e-76
1.28792e-76
3.12286e-77
6.82923e-78
8.14489e-79
1.95277e-80
1.75204e-81
1.05055e-82
3.96291e-84
8.67945e-86
9.98357e-88
5.61551e-90
1.66118e-92
3.48201e-95
8.36052e-98
2.36645e-100
8.09597e-103
2.84237e-103
1.92821e-105
4.57455e-108
1.62479e-110
5.77099e-113
1.97595e-115
6.48706e-118
2.02788e-120
5.98839e-123
1.65585e-125
4.24473e-128
9.97301e-131
2.11889e-133
4.00549e-136
6.60218e-139
9.24193e-142
1.05922e-144
9.43024e-148
1.30328e-149
1.10154e-150
1.78062e-153
1.74228e-156
1.17176e-72
5.93578e-73
2.30212e-73
5.68772e-74
1.23987e-74
1.78461e-75
4.97892e-77
4.81697e-78
3.15034e-79
1.31361e-80
3.22919e-82
4.23957e-84
2.7558e-86
9.26023e-89
2.01617e-91
4.71746e-94
1.32657e-96
4.45713e-99
1.12457e-99
7.28548e-102
1.93992e-104
7.10534e-107
2.59802e-109
9.17137e-112
3.10913e-114
1.0053e-116
3.07634e-119
8.83269e-122
2.35621e-124
5.77378e-127
1.28221e-129
2.53781e-132
4.38113e-135
6.40291e-138
7.56807e-141
6.6589e-144
3.53103e-147
1.37711e-149
4.34317e-150
3.88478e-153
1.37413e-69
7.09673e-70
2.86683e-70
8.03905e-71
1.62664e-71
2.67247e-72
1.49882e-73
8.68706e-75
6.19145e-76
2.85093e-77
7.85843e-79
1.17704e-80
8.86247e-83
3.42541e-85
7.96732e-88
1.83547e-90
5.12075e-93
1.69102e-95
3.63824e-96
2.40328e-98
6.9141e-101
2.63304e-103
1.00144e-105
3.68067e-108
1.30025e-110
4.38507e-113
1.40083e-115
4.20197e-118
1.17172e-120
3.00165e-123
6.96273e-126
1.43561e-128
2.56515e-131
3.82258e-134
4.43739e-137
3.39654e-140
5.23881e-144
3.98261e-147
1.81779e-149
7.47815e-150
1.2415e-66
6.55095e-67
2.74746e-67
8.47595e-68
1.66737e-68
3.01795e-69
2.57725e-70
1.15783e-71
8.98534e-73
4.56464e-74
1.40951e-75
2.4073e-77
2.10316e-79
9.44489e-82
2.41488e-84
5.60294e-87
1.56782e-89
5.13255e-92
1.00963e-92
6.72088e-95
2.18266e-97
8.80402e-100
3.52161e-102
1.36227e-104
5.06721e-107
1.79978e-109
6.05552e-112
1.91262e-114
5.61134e-117
1.50983e-119
3.66621e-122
7.86207e-125
1.44221e-127
2.14305e-130
2.28384e-133
1.01086e-136
4.1495e-140
3.61728e-143
2.0781e-146
2.41574e-149
9.04384e-64
4.88144e-64
2.12201e-64
7.02836e-65
1.45709e-65
2.71408e-66
2.96383e-67
1.21406e-68
1.025e-69
5.73921e-71
1.9833e-72
3.85945e-74
3.91563e-76
2.05736e-78
5.92018e-81
1.4193e-83
4.04161e-86
1.32628e-88
1.76115e-89
1.49113e-91
7.86516e-94
2.82148e-96
1.16856e-98
4.81616e-101
1.90637e-103
7.20066e-106
2.57493e-108
8.63482e-111
2.68489e-113
7.63307e-116
1.94805e-118
4.34794e-121
8.13664e-124
1.1732e-126
9.94536e-130
2.72119e-133
3.36663e-136
3.13987e-139
1.91958e-142
5.51983e-146
5.46864e-61
3.02128e-61
1.35977e-61
4.75339e-62
1.11674e-62
2.01003e-63
2.61417e-64
1.03958e-65
9.54017e-67
5.88177e-68
2.27224e-69
5.0334e-71
5.93107e-73
3.6626e-75
1.20776e-77
3.06704e-80
9.02747e-83
3.00656e-85
1.43518e-87
3.44941e-88
2.61298e-90
8.34886e-93
3.69439e-95
1.63719e-97
6.96271e-100
2.82359e-102
1.08297e-104
3.88918e-107
1.29191e-109
3.90846e-112
1.05436e-114
2.45614e-117
4.66447e-120
6.26658e-123
2.43711e-126
2.09016e-129
2.78156e-132
2.77254e-135
1.80905e-138
5.5477e-142
2.79891e-58
1.58324e-58
7.37092e-59
2.7078e-59
7.06488e-60
1.2546e-60
1.87069e-61
7.4462e-63
7.42106e-64
5.03275e-65
2.17113e-66
5.4691e-68
7.48269e-70
5.44607e-72
2.0857e-74
5.73689e-77
1.77217e-79
6.21425e-82
3.08439e-84
7.98913e-85
6.75538e-87
2.32472e-89
1.11197e-91
5.34647e-94
2.46549e-96
1.08311e-98
4.49468e-101
1.74328e-103
6.237e-106
2.02338e-108
5.80858e-111
1.41836e-113
2.71986e-116
3.16972e-119
9.45282e-123
1.67143e-125
2.39791e-128
2.56708e-131
1.79829e-134
5.92163e-138
1.22883e-55
7.11762e-56
3.42531e-56
1.31877e-56
3.76395e-57
6.7293e-58
1.11839e-58
7.35812e-60
4.90317e-61
3.65413e-62
1.75845e-63
5.0318e-65
7.98928e-67
6.86499e-69
3.08353e-71
9.36456e-74
3.07885e-76
1.15112e-78
6.07197e-81
1.70758e-81
1.63343e-83
6.08502e-86
3.16959e-88
1.66735e-90
8.40676e-93
4.03364e-95
1.82578e-97
7.70947e-100
2.99445e-102
1.04986e-104
3.23089e-107
8.31519e-110
1.60204e-112
1.39698e-115
7.2e-119
1.38778e-121
2.1578e-124
2.50028e-127
1.89398e-130
6.74536e-134
4.67125e-53
2.77041e-53
1.37731e-53
5.54638e-54
1.71133e-54
3.1858e-55
5.68819e-56
5.13546e-57
2.78255e-58
2.27675e-59
1.2209e-60
3.96452e-62
7.30037e-64
7.41345e-66
3.9338e-68
1.34056e-70
4.74943e-73
1.91392e-75
1.08325e-77
3.35751e-78
3.67739e-80
1.48963e-82
8.50171e-85
4.92926e-87
2.73755e-89
1.44517e-91
7.18761e-94
3.32869e-96
1.41412e-98
5.3988e-101
1.79462e-103
4.89967e-106
9.44222e-109
3.92573e-112
5.60334e-115
1.18445e-117
2.00731e-120
2.53452e-123
2.09035e-126
8.10554e-130
1.54757e-50
9.39662e-51
4.82326e-51
2.02842e-51
6.66515e-52
1.4196e-52
2.48851e-53
2.80927e-54
1.367e-55
1.22695e-56
7.32474e-58
2.69645e-59
5.75487e-61
6.91048e-63
4.35553e-65
1.68832e-67
6.51523e-70
2.85637e-72
1.74988e-74
6.04793e-75
7.66696e-77
3.39099e-79
2.13095e-81
1.37047e-83
8.43827e-86
4.93301e-88
2.71349e-90
1.38746e-92
6.49125e-95
2.71793e-97
9.83246e-100
2.86873e-102
5.51088e-105
1.62656e-108
4.40111e-111
1.02393e-113
1.90209e-116
2.63304e-119
2.37883e-122
1.01037e-125
4.48863e-48
2.78975e-48
1.47772e-48
6.48198e-49
2.2597e-49
5.4221e-50
9.4364e-51
1.27022e-51
5.84594e-53
5.75092e-54
3.81853e-55
1.59217e-56
3.93598e-58
5.59078e-60
4.20302e-62
1.87472e-64
7.95316e-67
3.82326e-69
2.55473e-71
9.93449e-72
1.47128e-73
7.13386e-76
4.95584e-78
3.55481e-80
2.44038e-82
1.58883e-84
9.72177e-87
5.52087e-89
2.86217e-91
1.32306e-93
5.24723e-96
1.6494e-98
3.1585e-101
1.14384e-104
3.42991e-107
8.81709e-110
1.80726e-112
2.75764e-115
2.74359e-118
1.28296e-121
1.14335e-45
7.27201e-46
3.97307e-46
1.81588e-46
6.69702e-47
1.79041e-47
3.1236e-48
4.86433e-49
2.18465e-50
2.35361e-51
1.73661e-52
8.19423e-54
2.34497e-55
3.94084e-57
3.54544e-59
1.83801e-61
8.64088e-64
4.58396e-66
3.36286e-68
1.48143e-68
2.58554e-70
1.37992e-72
1.06269e-74
8.54117e-77
6.56986e-79
4.78712e-81
3.27471e-83
2.07618e-85
1.19928e-87
6.15733e-90
2.69581e-92
9.20941e-95
1.76716e-97
7.83156e-101
2.61396e-103
7.46221e-106
1.69616e-108
2.86701e-111
3.15633e-114
1.63219e-117
2.56297e-43
1.66773e-43
9.39369e-44
4.46932e-44
1.74012e-44
5.13189e-45
9.12045e-46
1.59725e-46
1.10259e-47
8.43277e-49
6.90837e-50
3.6858e-51
1.22037e-52
2.42675e-54
2.61978e-56
1.5925e-58
8.3561e-61
4.91695e-63
3.98146e-65
1.99676e-65
4.13386e-67
2.44125e-69
2.08888e-71
1.88851e-73
1.63459e-75
1.33869e-77
1.02825e-79
7.31122e-82
4.72835e-84
2.71078e-86
1.31863e-88
4.93907e-91
9.6046e-94
5.15678e-97
1.92336e-99
6.12577e-102
1.55136e-104
2.91898e-107
3.57385e-110
2.05406e-113
5.0626e-41
3.36924e-41
1.95559e-41
9.67752e-42
3.97076e-42
1.27539e-42
2.47526e-43
4.53231e-44
4.44319e-45
2.64964e-46
2.40802e-47
1.45147e-48
5.55748e-50
1.30771e-51
1.69778e-53
1.21982e-55
7.19148e-58
4.7123e-60
4.22896e-62
2.42157e-62
5.99216e-64
3.93419e-66
3.74406e-68
3.81965e-70
3.7341e-72
3.45005e-74
2.98686e-76
2.39122e-78
1.73877e-80
1.11839e-82
6.07943e-85
2.51796e-87
5.04775e-90
3.22916e-93
1.3504e-95
4.81837e-98
1.36551e-100
2.87331e-103
3.93229e-106
2.52649e-109
8.81842e-39
6.00051e-39
3.58724e-39
1.84495e-39
7.96501e-40
2.75028e-40
6.26126e-41
1.11574e-41
1.40303e-42
7.30827e-44
7.36165e-45
5.00896e-46
2.2167e-47
6.17212e-49
9.65472e-51
8.25888e-53
5.50638e-55
4.02955e-57
4.01861e-59
2.63019e-59
7.82958e-61
5.7469e-63
6.08686e-65
7.02518e-67
7.78213e-69
8.13795e-71
7.96721e-73
7.20645e-75
5.91338e-77
4.2848e-79
2.61586e-81
1.20719e-83
2.54648e-86
1.90365e-89
8.95012e-92
3.59086e-94
1.14307e-96
2.70084e-99
4.15015e-102
2.99651e-105
1.35501e-36
9.42393e-37
5.79985e-37
3.09773e-37
1.40512e-37
5.19442e-38
1.36427e-38
2.39161e-39
3.65869e-40
1.77039e-41
1.9747e-42
1.51531e-43
7.74672e-45
2.55206e-46
4.81711e-48
4.93922e-50
3.74922e-52
3.07019e-54
3.40658e-56
2.54683e-56
9.16399e-58
7.57705e-60
8.93366e-62
1.1686e-63
1.47095e-65
1.74587e-67
1.93838e-69
1.98678e-71
1.84556e-73
1.51176e-75
1.04093e-77
5.38733e-80
1.2212e-82
1.04621e-85
5.54141e-88
2.50741e-90
8.99254e-93
2.39351e-95
4.14422e-98
3.37664e-101
1.8368e-34
1.30522e-34
8.26532e-35
4.58089e-35
2.1802e-35
8.60078e-36
2.56706e-36
4.51624e-37
8.05645e-38
4.80389e-39
4.64765e-40
4.01807e-41
2.37159e-42
9.24179e-44
2.10735e-45
2.60602e-47
2.26848e-49
2.08131e-51
2.56844e-53
2.18847e-53
9.55435e-55
8.9695e-57
1.17791e-58
1.74844e-60
2.50663e-62
3.385e-64
4.27255e-66
4.97522e-68
5.24627e-70
4.87292e-72
3.79817e-74
2.21684e-76
5.50961e-79
5.31251e-82
3.17454e-84
1.62387e-86
6.57564e-89
1.97588e-91
3.86376e-94
3.56222e-97
2.19629e-32
1.59399e-32
1.03805e-32
5.96529e-33
2.97491e-33
1.24889e-33
4.14938e-34
8.10898e-35
1.5137e-35
1.49163e-36
9.59473e-38
9.33489e-39
6.35688e-40
2.92906e-41
8.07439e-43
1.21095e-44
1.21848e-46
1.25355e-48
1.71725e-50
1.66186e-50
8.83203e-52
9.49956e-54
1.38981e-55
2.34186e-57
3.83093e-59
5.89793e-61
8.48011e-63
1.12426e-64
1.34886e-66
1.42431e-68
1.2606e-70
8.33591e-73
2.31152e-75
2.47283e-78
1.66879e-80
9.66984e-83
4.42871e-85
1.5046e-87
3.32739e-90
3.47627e-93
2.31586e-30
1.716e-30
1.1486e-30
6.83841e-31
3.56882e-31
1.59022e-31
5.75664e-32
1.38637e-32
2.44074e-33
3.28511e-34
1.73653e-35
1.89893e-36
1.49078e-37
8.11719e-39
2.70587e-40
4.94527e-42
5.80253e-44
6.69861e-46
1.01549e-47
1.11171e-47
7.19256e-49
8.94044e-51
1.46125e-52
2.79484e-54
5.22301e-56
9.18159e-58
1.50612e-59
2.27707e-61
3.11415e-63
3.74631e-65
3.77488e-67
2.83928e-69
8.9171e-72
1.04708e-74
7.98566e-77
5.25164e-79
2.72437e-81
1.04776e-83
2.62298e-86
3.10812e-89
2.15263e-28
1.62784e-28
1.11928e-28
6.89833e-29
3.7625e-29
1.7752e-29
6.95225e-30
2.00074e-30
3.404e-31
5.756e-32
2.75398e-33
3.38004e-34
3.05634e-35
1.96499e-36
7.9195e-38
1.77081e-39
2.446e-41
3.17232e-43
5.3012e-45
6.53827e-45
5.14385e-46
7.44967e-48
1.36633e-49
2.96465e-51
6.33314e-53
1.27263e-54
2.38423e-56
4.11537e-58
6.42403e-60
8.81861e-62
1.01379e-63
8.70241e-66
3.13535e-68
4.00474e-71
3.45294e-73
2.58231e-75
1.5197e-77
6.62387e-80
1.87857e-82
2.52619e-85
1.76293e-26
1.36002e-26
9.60066e-27
6.12026e-27
3.48423e-27
1.73666e-27
7.32081e-28
2.43421e-28
4.42361e-29
8.33476e-30
6.8324e-31
5.26072e-32
5.47353e-33
4.15137e-34
2.0216e-35
5.54761e-37
9.11138e-39
1.33037e-40
2.4404e-42
3.37924e-42
3.22553e-43
5.49407e-45
1.13734e-46
2.79642e-48
6.82858e-50
1.5697e-51
3.3606e-53
6.62592e-55
1.18129e-56
1.85207e-58
2.43236e-60
2.38851e-62
9.96419e-65
1.37591e-67
1.34139e-69
1.14345e-71
7.64834e-74
3.7839e-76
1.21692e-78
1.85807e-81
1.27119e-24
1.00005e-24
7.24362e-25
4.77228e-25
2.83214e-25
1.48803e-25
6.72176e-26
2.47463e-26
5.97087e-27
1.01253e-27
1.30167e-28
7.15425e-30
8.55726e-31
7.64881e-32
4.49609e-33
1.51762e-34
2.99415e-36
4.94014e-38
9.90811e-40
1.53744e-39
1.72558e-40
3.57557e-42
8.45073e-44
2.35144e-45
6.56076e-47
1.72613e-48
4.22439e-50
9.51429e-52
1.93722e-53
3.46894e-55
5.20608e-57
5.85363e-59
2.84028e-61
4.22888e-64
4.6608e-66
4.54054e-68
3.46038e-70
1.94765e-72
7.11646e-75
1.23562e-77
8.06312e-23
6.46619e-23
4.80285e-23
3.26739e-23
2.01877e-23
1.11572e-23
5.37928e-24
2.1666e-24
6.51614e-25
1.04862e-25
1.79567e-26
8.49389e-28
1.16729e-28
1.2284e-29
8.70521e-31
3.61985e-32
8.66681e-34
1.62555e-35
3.55299e-37
6.16831e-37
8.02339e-38
2.06452e-39
5.63134e-41
1.77298e-42
5.64835e-44
1.70173e-45
4.7622e-47
1.22498e-48
2.84719e-50
5.81937e-52
9.97306e-54
1.28318e-55
7.23401e-58
1.15944e-60
1.44338e-62
1.61116e-64
1.40298e-66
9.01164e-69
3.7524e-71
7.43071e-74
4.49301e-21
3.67155e-21
2.79481e-21
1.9616e-21
1.2602e-21
7.31107e-22
3.74832e-22
1.63859e-22
5.73955e-23
1.14195e-23
1.96911e-24
1.5332e-25
1.38859e-26
1.71877e-27
1.46639e-28
7.51845e-30
2.20622e-31
4.74404e-33
1.12642e-34
2.18312e-34
3.28189e-35
1.04007e-36
3.30025e-38
1.18055e-39
4.29317e-41
1.48042e-42
4.73567e-44
1.39047e-45
3.68611e-47
8.59008e-49
1.67885e-50
2.46739e-52
1.60585e-54
2.83798e-57
3.99152e-59
5.11472e-61
5.10215e-63
3.75299e-65
1.78801e-67
4.05512e-70
2.19289e-19
1.82535e-19
1.42314e-19
1.02967e-19
6.86981e-20
4.17564e-20
2.26882e-20
1.06936e-20
4.17174e-21
1.13521e-21
1.75499e-22
2.32878e-23
1.4393e-24
2.09422e-25
2.14778e-26
1.35829e-27
4.93146e-29
1.23006e-30
3.1609e-32
3.38071e-32
7.6843e-33
3.64923e-34
1.48648e-35
6.09219e-37
2.50718e-38
9.87766e-40
3.61719e-41
1.21356e-42
3.66953e-44
9.74364e-46
2.16878e-47
3.63223e-49
2.70435e-51
6.07178e-54
9.75395e-56
1.43543e-57
1.64316e-59
1.3886e-61
7.60455e-64
1.98617e-66
9.34656e-18
7.92015e-18
6.31855e-18
4.70668e-18
3.25583e-18
2.06845e-18
1.18681e-18
5.99427e-19
2.56658e-19
8.6873e-20
1.35086e-20
2.38464e-21
1.29802e-22
2.22057e-23
2.73311e-24
2.13153e-25
9.65688e-27
2.8361e-28
7.96073e-30
2.85891e-30
1.36724e-30
1.53284e-31
8.16262e-33
3.58001e-34
1.59648e-35
7.15026e-37
3.01066e-38
1.15673e-39
3.99018e-41
1.20612e-42
3.0519e-44
5.80629e-46
4.90069e-48
1.03496e-50
1.84135e-52
3.11352e-54
4.09133e-56
3.98047e-58
2.51677e-60
7.61971e-63
3.57856e-16
3.08011e-16
2.50665e-16
1.91504e-16
1.36666e-16
9.02022e-17
5.42241e-17
2.90172e-17
1.34116e-17
5.12177e-18
1.15481e-18
1.86071e-19
1.93927e-20
2.04679e-21
3.01733e-22
2.8988e-23
1.65093e-24
5.82932e-26
1.82611e-27
9.45035e-29
3.1149e-28
6.71312e-29
3.63263e-30
1.84749e-31
9.41523e-33
4.77742e-34
2.30361e-35
1.01498e-36
4.00003e-38
1.377e-39
3.95988e-41
8.54939e-43
8.13968e-45
1.84038e-47
3.64888e-49
7.07528e-51
1.06571e-52
1.19359e-54
8.7351e-57
3.08365e-59
1.35674e-14
1.18094e-14
9.74731e-15
7.5867e-15
5.54134e-15
3.76849e-15
2.34891e-15
1.31001e-15
6.37872e-16
2.62488e-16
7.57179e-17
1.12705e-17
1.88229e-18
1.63693e-19
2.88408e-20
3.406e-21
2.45206e-22
1.06614e-23
3.74586e-25
2.01831e-26
7.4928e-26
1.87886e-26
1.27995e-27
8.00319e-29
4.77755e-30
2.76669e-31
1.52496e-32
7.70007e-34
3.46899e-35
1.3605e-36
4.44583e-38
1.0885e-39
1.16355e-41
3.01864e-44
6.71181e-46
1.49022e-47
2.56815e-49
3.30676e-51
2.80187e-53
1.15746e-55
3.27827e-13
2.95442e-13
2.54866e-13
2.09401e-13
1.63493e-13
1.2016e-13
8.16559e-14
5.00355e-14
2.70543e-14
1.25103e-14
4.48611e-15
5.56206e-16
1.31277e-16
2.18741e-17
2.37991e-18
3.44351e-19
3.142e-20
1.72705e-21
6.90905e-23
3.93639e-24
1.57101e-23
4.59563e-24
3.94931e-25
3.06119e-26
2.17777e-27
1.44845e-28
9.11298e-30
5.26991e-31
2.71581e-32
1.21393e-33
4.50688e-35
1.25047e-36
1.49441e-38
4.32131e-41
1.07e-42
2.71846e-44
5.3503e-46
7.90269e-48
7.73689e-50
3.73821e-52
2.52048e-12
2.39132e-12
2.20378e-12
1.96323e-12
1.69103e-12
1.38361e-12
1.05125e-12
7.24781e-13
4.4556e-13
2.37268e-13
9.65524e-14
2.1302e-14
7.46459e-15
2.09513e-15
1.80332e-16
2.98159e-17
3.44288e-18
2.45641e-19
1.15667e-20
6.77118e-22
2.88797e-21
9.83617e-22
1.05754e-22
1.00891e-23
8.6035e-25
6.60743e-26
4.738e-27
3.12928e-28
1.84177e-29
9.37185e-31
3.94778e-32
1.2388e-33
1.63668e-35
5.53012e-38
1.53933e-39
4.4735e-41
1.00415e-42
1.6978e-44
1.91436e-46
1.07736e-48
2.27709e-11
2.0748e-11
1.80168e-11
1.49243e-11
1.16494e-11
7.77364e-12
4.94214e-12
3.24391e-12
1.95077e-12
1.05577e-12
5.16525e-13
2.20128e-13
9.48242e-14
6.0853e-14
1.84711e-14
2.19881e-15
3.19517e-16
3.02814e-17
1.77886e-18
1.03645e-19
4.7207e-19
1.88057e-19
2.54825e-20
3.08224e-21
3.24624e-22
2.90817e-23
2.36368e-24
1.77366e-25
1.19021e-26
6.88571e-28
3.28315e-29
1.16069e-30
1.66614e-32
6.21939e-35
1.93076e-36
6.42122e-38
1.64246e-39
3.17359e-41
4.10848e-43
2.67846e-45
4.69548e-10
4.33515e-10
3.8343e-10
3.25133e-10
2.61106e-10
1.95103e-10
1.17318e-10
7.38445e-11
4.60314e-11
2.62747e-11
1.3626e-11
6.75826e-12
3.26915e-12
1.48044e-12
5.2901e-13
1.36413e-13
2.48316e-14
3.166e-15
2.47776e-16
1.43294e-17
2.08838e-17
2.15478e-17
5.27988e-18
7.69984e-19
9.78354e-20
1.03936e-20
9.64121e-22
8.16141e-23
6.20309e-24
4.06486e-25
2.18549e-26
8.65323e-28
1.30868e-29
6.31619e-32
2.28188e-33
8.66988e-35
2.52355e-36
5.56243e-38
8.24419e-40
6.19337e-42
9.5049e-09
8.92919e-09
8.10124e-09
7.09868e-09
5.94381e-09
4.69492e-09
3.44008e-09
2.17348e-09
1.20981e-09
7.33023e-10
4.08261e-10
2.19263e-10
1.13605e-10
5.47883e-11
2.24624e-11
7.03816e-12
1.59288e-12
2.6852e-13
3.02969e-14
1.92836e-15
2.11406e-16
1.17177e-15
5.8926e-16
1.2097e-16
2.16135e-17
2.95585e-18
3.08733e-19
2.82843e-20
2.39023e-21
1.76798e-22
1.06795e-23
4.69597e-25
7.093e-27
4.99559e-29
2.16029e-30
9.34202e-32
3.08742e-33
7.74546e-35
1.31059e-36
1.12956e-38
1.7448e-07
1.66353e-07
1.5424e-07
1.38981e-07
1.20548e-07
9.95996e-08
7.75282e-08
5.62061e-08
3.75234e-08
2.12982e-08
1.09258e-08
6.45042e-09
3.59005e-09
1.84601e-09
1.12783e-09
4.1844e-10
8.33053e-11
1.8239e-11
2.99534e-12
2.71695e-13
2.02005e-14
8.88856e-14
6.49061e-14
1.55725e-14
3.08125e-15
5.28685e-16
6.9995e-17
7.45471e-18
6.95711e-19
5.70006e-20
3.83358e-21
1.85538e-22
2.57913e-24
2.87784e-26
1.49669e-27
7.30783e-29
2.73209e-30
7.77203e-32
1.49546e-33
1.47156e-35
2.91765e-06
2.81475e-06
2.65527e-06
2.44646e-06
2.1821e-06
1.86763e-06
1.52036e-06
1.16888e-06
8.4442e-07
5.73627e-07
3.71873e-07
2.30138e-07
1.11861e-07
5.87437e-08
4.27815e-08
2.19544e-08
5.99594e-09
1.02499e-09
5.64874e-10
2.7977e-11
2.31911e-12
-5.22153e-13
7.9834e-14
3.02029e-13
2.88379e-13
9.47113e-14
1.43211e-14
1.59378e-15
1.56804e-16
1.40482e-17
1.04308e-18
5.48945e-20
5.8946e-22
1.20769e-23
7.62437e-25
4.09129e-26
1.72097e-27
5.51987e-29
1.20039e-30
1.33918e-32
4.4906e-05
4.36891e-05
4.17181e-05
3.9049e-05
3.55258e-05
3.11733e-05
2.61853e-05
2.09479e-05
1.592e-05
1.15718e-05
8.19109e-06
5.731e-06
3.80755e-06
2.91267e-06
1.89166e-06
8.72047e-07
2.72012e-07
9.32104e-08
6.03577e-08
2.10729e-08
3.74675e-10
3.2609e-11
-1.15631e-11
8.25926e-13
-5.38169e-13
3.34102e-13
4.78051e-13
2.63088e-13
4.58854e-14
3.54769e-15
2.02018e-16
1.05102e-17
1.15099e-19
3.96494e-21
2.95477e-22
1.70591e-23
8.01407e-25
2.87427e-26
6.99498e-28
5.50846e-30
0.000645102
0.000630858
0.000606705
0.00057314
0.000527448
0.000469535
0.000401509
0.000328402
0.000256606
0.000193425
0.000143899
0.000107892
7.66659e-05
5.35994e-05
4.16809e-05
2.77661e-05
1.5098e-05
8.74782e-06
5.50864e-06
1.85652e-06
1.67433e-07
5.66503e-09
3.84571e-10
-1.24006e-10
7.14465e-12
8.60691e-13
4.42531e-13
2.2778e-13
1.35288e-13
6.47338e-14
1.45764e-14
1.15527e-15
2.94216e-17
8.97411e-19
6.65848e-20
4.4874e-21
2.33501e-22
9.27892e-24
2.12153e-25
2.32126e-27
0.124389
0.121719
0.116777
0.109665
0.0996875
0.086637
0.0707782
0.0531637
0.0353069
0.0193153
0.0074691
0.00187603
0.00124636
0.000842607
0.000509954
0.000271413
0.000164363
0.000139963
0.000117938
6.327e-05
1.78889e-05
3.87259e-06
3.39941e-07
3.90029e-09
5.44377e-10
7.43696e-11
5.27207e-12
7.55901e-13
2.45904e-13
6.72965e-14
2.29457e-14
7.37569e-15
1.05514e-15
4.13457e-17
2.59297e-18
1.97665e-19
1.0894e-20
4.26507e-22
1.11455e-23
1.18947e-25
0.833146
0.829924
0.823735
0.814316
0.800311
0.779875
0.750868
0.711431
0.6591
0.590239
0.500531
0.396542
0.296454
0.200355
0.11647
0.0517344
0.0126901
0.00131451
0.000822433
0.000482553
0.000213417
9.84918e-05
4.3875e-05
9.4141e-06
3.95595e-08
6.11044e-09
7.86638e-10
1.17335e-10
-1.52923e-11
1.36909e-12
1.02136e-13
1.33317e-14
4.30341e-15
7.46247e-16
7.15014e-17
4.33336e-18
1.88131e-19
3.88637e-21
8.67832e-23
-2.12868e-24
1
1
1
1
1
1
1
1
1
1
1
0.989993
0.952858
0.895829
0.812209
0.692341
0.523084
0.331549
0.154514
0.0355629
0.00153775
0.00062885
0.000406296
0.000257175
0.000108543
1.54535e-06
4.77323e-08
6.18836e-09
9.88787e-10
1.23511e-10
1.41136e-11
7.06396e-13
1.08789e-13
4.45124e-15
2.35631e-16
9.66783e-17
7.75973e-18
5.13704e-19
7.45652e-21
1.6421e-22
1
1
1
1
1
1
1
1
1
1
1
1
0.999999
0.999997
0.999994
0.999989
0.999984
0.958598
0.837189
0.607086
0.334413
0.140263
0.0333283
0.0017837
0.000801609
3.7223e-05
2.77166e-06
3.2006e-07
3.38307e-08
4.90698e-09
6.38611e-10
8.02262e-11
7.36582e-12
8.09022e-13
1.01076e-13
9.69589e-15
9.34809e-16
8.12167e-17
1.61682e-18
4.66524e-20
1
1
1
1
1
1
1
1
1
1
1
0.999999
0.999997
0.999994
0.999989
0.999984
0.999884
0.999808
0.999742
0.999676
0.950136
0.822143
0.588975
0.243034
0.0144165
0.000282229
2.78459e-05
2.72655e-06
3.00939e-07
4.32597e-08
6.0128e-09
6.33665e-10
3.02349e-11
-8.54727e-13
-1.57728e-12
-2.17201e-13
-1.55151e-14
-1.6639e-15
-5.03498e-17
-2.52678e-18
1
1
1
1
1
1
1
1
1
0.999999
0.999996
0.999987
0.999965
0.999927
0.99989
0.999857
0.999809
0.999742
0.999676
0.998809
0.997832
0.996637
0.996418
0.865803
0.406014
0.0416709
0.000540911
7.38434e-05
5.10976e-05
2.39013e-06
9.94895e-08
1.09285e-08
1.11565e-09
-6.89164e-10
-9.54603e-11
-2.39379e-11
-3.69453e-12
-2.46516e-13
-1.23857e-14
-3.78482e-16
1
1
1
1
1
1
1
1
0.999999
0.999989
0.999937
0.999814
0.99948
0.998909
0.998374
0.998157
0.998339
0.997682
0.993814
0.994985
0.996612
0.996418
0.993342
0.991959
0.925386
0.545591
0.182312
0.0398643
0.00110861
0.000288718
5.91958e-06
5.45539e-07
4.85888e-08
6.79279e-09
1.49871e-10
-7.95817e-11
-3.55923e-11
-5.36644e-12
-7.79757e-13
-5.49348e-14
1
1
1
1
1
1
1
1
0.999991
0.999853
0.999181
0.987075
0.902722
0.758379
0.622196
0.593712
0.605399
0.570275
0.495122
0.525428
0.633749
0.821031
0.976785
0.99067
0.98926
0.952545
0.810844
0.570742
0.196779
0.0056964
0.000117948
1.37731e-05
1.34687e-06
1.86627e-07
2.95285e-08
1.47169e-09
1.67916e-10
-1.27271e-10
-2.29813e-11
-8.02675e-12
1
1
1
1
1
1
1
0.999998
0.999899
0.993996
0.84298
0.527779
0.240214
0.0853004
0.0146338
0.00379467
0.00648867
1.12377e-12
-2.21162e-20
-1.7693e-19
0.0229178
0.153964
0.528435
0.890504
0.982007
0.964901
0.953961
0.934417
0.750052
0.317203
0.0471962
0.000496961