/*--------------------------------*- C++ -*----------------------------------*\
  =========                 |
  \\      /  F ield         | OpenFOAM: The Open Source CFD Toolbox
   \\    /   O peration     | Website:  https://openfoam.org
    \\  /    A nd           | Version:  8
     \\/     M anipulation  |
\*---------------------------------------------------------------------------*/
FoamFile
{
    version     2.0;
    format      ascii;
    class       surfaceScalarField;
    location    "0.2";
    object      alphaPhi0.water;
}
// * * * * * * * * * * * * * * * * * * * * * * * * * * * * * * * * * * * * * //

dimensions      [0 3 -1 0 0 0 0];

internalField   nonuniform List<scalar> 
18095
(
1.53362e-07
-9.65691e-07
8.12329e-07
1.63313e-07
-1.24735e-06
1.2374e-06
1.21474e-07
-1.24311e-06
1.28495e-06
6.51629e-08
-1.26352e-06
1.31983e-06
-2.94335e-14
-1.28033e-06
1.34549e-06
-6.51629e-08
-1.28033e-06
1.34549e-06
-1.21474e-07
-1.26352e-06
1.31983e-06
-1.63313e-07
-1.24311e-06
1.28495e-06
-1.53362e-07
-1.24735e-06
1.2374e-06
-9.65691e-07
8.12329e-07
1.10495e-07
-1.07619e-06
9.93685e-08
-1.23622e-06
7.27637e-08
-1.21651e-06
4.0006e-08
-1.23076e-06
-2.43213e-14
-1.24032e-06
-4.0006e-08
-1.24032e-06
-7.27637e-08
-1.23076e-06
-9.93685e-08
-1.21651e-06
-1.10495e-07
-1.23622e-06
-1.07619e-06
6.70292e-08
-1.14322e-06
5.28958e-08
-1.22209e-06
4.19756e-08
-1.20559e-06
2.38136e-08
-1.2126e-06
-1.73502e-14
-1.21651e-06
-2.38136e-08
-1.21651e-06
-4.19756e-08
-1.2126e-06
-5.28958e-08
-1.20559e-06
-6.70293e-08
-1.22209e-06
-1.14321e-06
4.01893e-08
-1.1834e-06
2.69877e-08
-1.20889e-06
2.20515e-08
-1.20065e-06
1.25165e-08
-1.20306e-06
-4.13044e-15
-1.20399e-06
-1.25165e-08
-1.20399e-06
-2.20515e-08
-1.20306e-06
-2.69878e-08
-1.20065e-06
-4.01893e-08
-1.20889e-06
-1.1834e-06
1.65957e-08
7.70629e-09
7.05492e-09
3.99201e-09
3.24352e-15
-3.99201e-09
-7.05492e-09
-7.70629e-09
-1.65957e-08
-1.62679e-07
-1.16858e-06
1.33125e-06
-2.04129e-07
-1.21205e-06
1.2535e-06
-1.59148e-07
-1.21166e-06
1.16668e-06
-8.58297e-08
-1.2045e-06
1.13118e-06
-1.74145e-14
-1.20322e-06
1.11739e-06
8.58297e-08
-1.20322e-06
1.11739e-06
1.59148e-07
-1.2045e-06
1.13118e-06
2.04129e-07
-1.21166e-06
1.16668e-06
1.62679e-07
-1.21205e-06
1.2535e-06
-1.16858e-06
1.33125e-06
-9.67622e-08
-1.07181e-06
-9.69563e-08
-1.21186e-06
-7.88843e-08
-1.22974e-06
-4.40863e-08
-1.23929e-06
-3.76652e-14
-1.2473e-06
4.40862e-08
-1.2473e-06
7.88843e-08
-1.23929e-06
9.69563e-08
-1.22974e-06
9.67621e-08
-1.21186e-06
-1.07181e-06
-5.89101e-08
-1.0129e-06
-5.62308e-08
-1.21454e-06
-4.67007e-08
-1.23927e-06
-2.70506e-08
-1.25894e-06
-4.58227e-14
-1.27435e-06
2.70505e-08
-1.27435e-06
4.67006e-08
-1.25894e-06
5.62307e-08
-1.23927e-06
5.89101e-08
-1.21454e-06
-1.0129e-06
-7.38959e-08
-9.39007e-07
-6.06983e-08
-1.22773e-06
-4.79216e-08
-1.25204e-06
-2.74728e-08
-1.27939e-06
-3.65447e-14
-1.30182e-06
2.74727e-08
-1.30182e-06
4.79215e-08
-1.27939e-06
6.06982e-08
-1.25204e-06
7.38959e-08
-1.22773e-06
-9.39007e-07
-1.26678e-07
-1.17011e-07
-8.41024e-08
-4.36664e-08
-3.49683e-14
4.36664e-08
8.41023e-08
1.17011e-07
1.26678e-07
-7.13425e-08
-9.51484e-07
1.02283e-06
-1.03271e-08
-1.33567e-06
1.27465e-06
6.02789e-09
-1.26803e-06
1.25167e-06
1.3805e-09
-1.22375e-06
1.2284e-06
5.17032e-13
-1.22107e-06
1.22245e-06
-1.37951e-09
-1.22107e-06
1.22245e-06
-6.02685e-09
-1.22375e-06
1.2284e-06
1.03275e-08
-1.26803e-06
1.25167e-06
7.13418e-08
-1.33567e-06
1.27465e-06
-9.51484e-07
1.02283e-06
6.95851e-09
-9.58443e-07
1.60578e-08
-1.34477e-06
1.1927e-08
-1.2639e-06
5.80947e-09
-1.21763e-06
3.32003e-13
-1.21526e-06
-5.80882e-09
-1.21526e-06
-1.19265e-08
-1.21763e-06
-1.60575e-08
-1.2639e-06
-6.95874e-09
-1.34477e-06
-9.58443e-07
2.99851e-08
-9.88428e-07
2.22242e-08
-1.33701e-06
1.34673e-08
-1.25514e-06
4.69768e-09
-1.20886e-06
2.05829e-13
-1.21056e-06
-4.69726e-09
-1.21056e-06
-1.3467e-08
-1.20886e-06
-2.22239e-08
-1.25514e-06
-2.9985e-08
-1.33701e-06
-9.88428e-07
7.23193e-08
-1.06075e-06
4.14917e-08
-1.30618e-06
2.97384e-08
-1.24339e-06
2.05341e-08
-1.19966e-06
1.1635e-13
-1.19003e-06
-2.05339e-08
-1.19003e-06
-2.97382e-08
-1.19966e-06
-4.14915e-08
-1.24339e-06
-7.23192e-08
-1.30618e-06
-1.06075e-06
2.70507e-07
2.17829e-07
1.41124e-07
7.26423e-08
3.87531e-14
-7.26423e-08
-1.41124e-07
-2.17829e-07
-2.70507e-07
-1.15453e-87
-1.51576e-85
7.68065e-88
-1.45917e-87
-3.01354e-85
-1.4764e-87
-5.1501e-85
-1.12979e-87
-7.82451e-85
-2.40028e-88
-1.07695e-84
6.43342e-88
-1.05906e-84
1.10062e-87
-7.58981e-85
1.16901e-87
-4.89905e-85
9.43223e-88
-2.80144e-85
-1.37358e-85
6.30485e-88
-1.99903e-84
-1.83605e-84
1.54971e-84
-2.18755e-84
-2.78381e-84
-1.9522e-84
-3.79805e-84
-1.26258e-84
-4.67177e-84
-2.13347e-85
-5.17855e-84
8.36254e-85
-5.1777e-84
1.59047e-84
-4.66894e-84
1.88299e-84
-3.76501e-84
1.74054e-84
-2.71363e-84
-1.74466e-84
1.33696e-84
-3.71967e-81
-4.87052e-81
2.94432e-81
-4.00188e-81
-7.26256e-81
-3.51891e-81
-9.79138e-81
-2.23362e-81
-1.19528e-80
-3.26029e-82
-1.3207e-80
1.58637e-81
-1.32167e-80
2.97521e-81
-1.19776e-80
3.54117e-81
-9.74742e-81
3.31607e-81
-7.1197e-81
-4.65849e-81
2.59471e-81
-4.62272e-78
-7.8474e-78
3.73202e-78
-4.89494e-78
-1.15155e-77
-4.24701e-78
-1.53465e-77
-2.65327e-78
-1.85953e-77
-3.39629e-79
-2.04781e-77
1.98266e-78
-2.05054e-77
3.68842e-78
-1.86677e-77
4.41752e-78
-1.53217e-77
4.18991e-78
-1.13322e-77
-7.5392e-78
3.33766e-78
-4.33608e-75
-8.96821e-75
3.5684e-75
-4.52085e-75
-1.29563e-74
-3.8725e-75
-1.70704e-74
-2.38363e-75
-2.05323e-74
-2.66431e-76
-2.25326e-74
1.85988e-75
-2.25706e-74
3.439e-75
-2.06339e-74
4.14503e-75
-1.70719e-74
3.98056e-75
-1.2778e-74
-8.63832e-75
3.22658e-75
-3.2666e-72
-7.87359e-72
2.73926e-72
-3.35445e-72
-1.12019e-71
-2.83773e-72
-1.45924e-71
-1.72211e-72
-1.74231e-71
-1.66613e-73
-1.90519e-71
1.39574e-72
-1.9087e-71
2.56859e-72
-1.75174e-71
3.11588e-72
-1.4605e-71
3.02881e-72
-1.1058e-71
-7.59251e-72
2.49721e-72
-2.04948e-69
-5.56519e-69
1.75046e-69
-2.0737e-69
-7.79907e-69
-1.73325e-69
-1.00465e-68
-1.03814e-69
-1.19074e-68
-8.68079e-71
-1.29728e-68
8.68524e-70
-1.29969e-68
1.59345e-69
-1.19723e-68
1.94595e-69
-1.00561e-68
1.91447e-69
-7.69935e-69
-5.36698e-69
1.60505e-69
-1.09509e-66
-3.26222e-66
9.52165e-67
-1.09236e-66
-4.50422e-66
-9.02646e-67
-5.73858e-66
-5.3441e-67
-6.75195e-66
-3.9122e-68
-7.32895e-66
4.58078e-67
-7.34205e-66
8.39552e-67
-6.78738e-66
1.03262e-66
-5.74225e-66
1.02822e-66
-4.44467e-66
-3.14436e-66
8.76375e-67
-5.05449e-64
-1.61746e-63
4.47145e-64
-4.9733e-64
-2.20089e-63
-4.06563e-64
-2.77385e-63
-2.38307e-64
-3.24011e-63
-1.56256e-65
-3.50413e-63
2.07826e-64
-3.51e-63
3.81226e-64
-3.25603e-63
4.7245e-64
-2.77412e-63
4.76153e-64
-2.17029e-63
-1.55772e-63
4.12501e-64
-2.03327e-61
-6.87543e-61
1.82919e-61
-1.97435e-61
-9.22244e-61
-1.59767e-61
-1.15004e-60
-9.28275e-62
-1.33379e-60
-5.57499e-63
-1.43726e-60
8.19485e-62
-1.43948e-60
1.50653e-61
-1.33982e-60
1.88173e-61
-1.14943e-60
1.91947e-61
-9.08702e-61
-6.61536e-61
1.68983e-61
-7.16865e-59
-2.5292e-58
6.55552e-59
-6.87197e-59
-3.34527e-58
-5.50684e-59
-4.12817e-58
-3.17393e-59
-4.75425e-58
-1.77047e-60
-5.10485e-58
2.82823e-59
-5.11205e-58
5.21457e-59
-4.77389e-58
6.56529e-59
-4.12336e-58
6.77753e-59
-3.29354e-58
-2.43134e-58
6.06201e-59
-2.22301e-56
-8.10458e-56
2.0657e-56
-2.10437e-56
-1.0573e-55
-1.67044e-56
-1.29139e-55
-9.5545e-57
-1.47704e-55
-4.97452e-58
-1.58042e-55
8.58239e-57
-1.58244e-55
1.58748e-56
-1.48258e-55
2.01461e-56
-1.28913e-55
2.10444e-56
-1.04018e-55
-7.78469e-56
1.91189e-56
-6.07709e-54
-2.27265e-53
5.73649e-54
-5.68236e-54
-2.92502e-53
-4.4691e-54
-3.53672e-53
-2.53729e-54
-4.01791e-53
-1.23081e-55
-4.28438e-53
2.29655e-54
-4.28936e-53
4.26186e-54
-4.03156e-53
5.4511e-54
-3.52865e-53
5.76074e-54
-2.87577e-53
-2.18144e-53
5.31462e-54
-1.46659e-51
-5.59452e-51
1.40591e-51
-1.35487e-51
-7.10536e-51
-1.05597e-51
-8.50649e-51
-5.95162e-52
-9.5999e-51
-2.67983e-53
-1.02022e-50
5.42718e-52
-1.02129e-50
1.01046e-51
-9.62945e-51
1.30244e-51
-8.48306e-51
1.39227e-51
-6.98181e-51
-5.3669e-51
1.304e-51
-3.12664e-49
-1.21154e-48
3.04303e-49
-2.85442e-49
-1.51874e-48
-2.20496e-49
-1.80059e-48
-1.23392e-49
-2.01882e-48
-5.14104e-51
-2.13839e-48
1.13328e-49
-2.14042e-48
2.11694e-49
-2.02444e-48
2.74957e-49
-1.79486e-48
2.97257e-49
-1.49161e-48
-1.16171e-48
2.82584e-49
-5.88945e-47
-2.31113e-46
5.81781e-47
-5.31458e-47
-2.86022e-46
-4.06965e-47
-3.35869e-46
-2.26161e-47
-3.74168e-46
-8.69538e-49
-3.95041e-46
2.09131e-47
-3.95379e-46
3.91943e-47
-3.75103e-46
5.12929e-47
-3.34668e-46
5.60732e-47
-2.80796e-46
-2.21531e-46
5.4093e-47
-9.80026e-45
-3.88643e-44
9.82284e-45
-8.74361e-45
-4.74963e-44
-6.63849e-45
-5.52518e-44
-3.66426e-45
-6.11655e-44
-1.29679e-46
-6.43718e-44
3.41005e-45
-6.44209e-44
6.41223e-45
-6.13019e-44
8.45422e-45
-5.50342e-44
9.34395e-45
-4.66122e-44
-3.7245e-44
9.14509e-45
-1.44018e-42
-5.76325e-42
1.46414e-42
-1.27068e-42
-6.95702e-42
-9.56751e-43
-8.01864e-42
-5.24655e-43
-8.82221e-42
-1.71007e-44
-9.25562e-42
4.91098e-43
-9.26187e-42
9.26596e-43
-8.83961e-42
1.23069e-42
-7.98447e-42
1.37498e-42
-6.82563e-42
-5.52276e-42
1.36499e-42
-1.86816e-40
-7.53731e-40
1.92579e-40
-1.63049e-40
-8.98933e-40
-1.21774e-40
-1.02678e-39
-6.63596e-41
-1.12285e-39
-1.99928e-42
-1.1744e-39
6.24316e-41
-1.17509e-39
1.18208e-40
-1.12479e-39
1.58152e-40
-1.02211e-39
1.78586e-40
-8.81786e-40
-7.2234e-40
1.7979e-40
-2.13819e-38
-8.69279e-38
2.23426e-38
-1.8465e-38
-1.02455e-37
-1.36823e-38
-1.15994e-37
-7.41126e-39
-1.26096e-37
-2.07144e-40
-1.3149e-37
7.00375e-39
-1.31557e-37
1.33085e-38
-1.26286e-37
1.79345e-38
-1.15438e-37
2.04654e-38
-1.00491e-37
-8.3328e-38
2.08896e-38
-2.15855e-36
-8.83901e-36
2.2856e-36
-1.84494e-36
-1.02978e-35
-1.35663e-36
-1.15581e-35
-7.30636e-37
-1.2492e-35
-1.90461e-38
-1.29881e-35
6.93116e-37
-1.29939e-35
1.32188e-36
-1.25083e-35
1.79413e-36
-1.15006e-35
2.06861e-36
-1.01006e-35
-8.47652e-36
2.14035e-36
-1.92138e-34
-7.92158e-34
2.06093e-34
-1.62581e-34
-9.125e-34
-1.18663e-34
-1.01554e-33
-6.35567e-35
-1.09138e-33
-1.55252e-36
-1.13148e-33
6.04947e-35
-1.13191e-33
1.158e-34
-1.09261e-33
1.58284e-34
-1.01036e-33
1.84369e-34
-8.95139e-34
-7.60136e-34
1.93332e-34
-1.50739e-32
-6.2545e-32
1.63737e-32
-1.26304e-32
-7.12531e-32
-9.15176e-33
-7.86449e-32
-4.87556e-33
-8.40494e-32
-1.1148e-34
-8.68941e-32
4.65542e-33
-8.69226e-32
8.9441e-33
-8.41307e-32
1.23107e-32
-7.82373e-32
1.44841e-32
-6.9914e-32
-6.00654e-32
1.53895e-32
-1.04155e-30
-4.3479e-30
1.14539e-30
-8.64376e-31
-4.89989e-30
-6.21878e-31
-5.36453e-30
-3.29569e-31
-5.70211e-30
-7.02821e-33
-5.87901e-30
3.1567e-31
-5.88064e-30
6.08647e-31
-5.70681e-30
8.43498e-31
-5.33658e-30
1.00228e-30
-4.80949e-30
-4.17979e-30
1.07886e-30
-6.33124e-29
-2.65897e-28
7.04682e-29
-5.20514e-29
-2.96492e-28
-3.71893e-29
-3.22042e-28
-1.96082e-29
-3.40492e-28
-3.8921e-31
-3.50119e-28
1.88377e-29
-3.502e-28
3.64495e-29
-3.40729e-28
5.08569e-29
-3.20373e-28
6.1025e-29
-2.9116e-28
-2.55934e-28
6.65357e-29
-3.38005e-27
-1.42862e-26
3.8067e-27
-2.7535e-27
-1.57653e-26
-1.95399e-27
-1.69912e-26
-1.02515e-27
-1.78713e-26
-1.89152e-29
-1.83287e-26
9.87663e-28
-1.83322e-26
1.91772e-27
-1.78817e-26
2.69371e-27
-1.69045e-26
3.26371e-27
-1.54911e-26
-1.37713e-26
3.60391e-27
-1.58095e-25
-6.72257e-25
1.80116e-25
-1.27638e-25
-7.3432e-25
-8.99778e-26
-7.85402e-25
-4.69776e-26
-8.21871e-25
-8.03154e-28
-8.40751e-25
4.53834e-26
-8.40882e-25
8.84216e-26
-8.22262e-25
1.25026e-25
-7.81501e-25
1.52943e-25
-7.22096e-25
-6.49178e-25
1.71025e-25
-6.45951e-24
-2.76844e-23
7.44259e-24
-5.16958e-24
-2.99435e-23
-3.62072e-24
-3.17914e-23
-1.88149e-24
-3.31039e-23
-2.97241e-26
-3.37811e-23
1.82241e-24
-3.37852e-23
3.56259e-24
-3.31164e-23
5.07055e-24
-3.16395e-23
6.26206e-24
-2.94718e-23
-2.67897e-23
7.09044e-24
-2.30659e-22
-1.03626e-21
2.68671e-22
-1.83042e-22
-1.11099e-21
-1.27402e-22
-1.17189e-21
-6.59039e-23
-1.215e-21
-9.5733e-25
-1.23719e-21
6.39983e-23
-1.2373e-21
1.25512e-22
-1.21535e-21
1.79785e-22
-1.16652e-21
2.24111e-22
-1.09444e-21
-1.00473e-21
2.56885e-22
-7.23021e-21
-3.96273e-20
8.51182e-21
-5.69043e-21
-4.22955e-20
-3.93664e-21
-4.45085e-20
-2.02746e-21
-4.60177e-20
-2.71022e-23
-4.67804e-20
1.97343e-21
-4.67832e-20
3.88261e-21
-4.60266e-20
5.59675e-21
-4.43514e-20
7.041e-21
-4.18099e-20
-3.86848e-20
8.16867e-21
-1.8442e-19
-6.96275e-19
2.19809e-19
-1.43742e-19
-7.26995e-19
-9.87243e-20
-7.51402e-19
-5.05827e-20
-7.68802e-19
-6.14163e-22
-7.77755e-19
4.9355e-20
-7.77782e-19
9.7484e-20
-7.68891e-19
1.41598e-19
-7.48204e-19
1.8011e-19
-7.1727e-19
-6.77484e-19
2.11971e-19
-3.41401e-18
-1.22088e-18
4.11789e-18
-2.63585e-18
-1.09146e-18
-1.79841e-18
-9.60643e-19
-9.17491e-19
-9.3805e-19
-1.00886e-20
-9.44951e-19
8.97285e-19
-9.44988e-19
1.77797e-18
-9.38191e-19
2.60401e-18
-9.55695e-19
3.35569e-18
-1.06967e-18
-1.17479e-18
4.01613e-18
-7.12287e-17
-7.38541e-17
8.63179e-17
-5.48182e-17
-7.67183e-17
-3.73082e-17
-7.90299e-17
-1.8995e-17
-8.08235e-17
-1.84866e-19
-8.18744e-17
1.86234e-17
-8.18709e-17
3.693e-17
-8.08138e-17
5.43443e-17
-7.98902e-17
7.05451e-17
-7.92829e-17
-7.88367e-17
8.52933e-17
-1.44502e-15
-1.66259e-15
1.76353e-15
-1.10581e-15
-1.71873e-15
-7.49556e-16
-1.76501e-15
-3.80545e-16
-1.79841e-15
-3.23199e-18
-1.81758e-15
3.74032e-16
-1.81747e-15
7.42846e-16
-1.79809e-15
1.09763e-15
-1.77983e-15
1.43382e-15
-1.7639e-15
-1.75142e-15
1.7475e-15
-2.59079e-14
-3.20101e-14
3.18505e-14
-1.97134e-14
-3.27893e-14
-1.33057e-14
-3.34459e-14
-6.73422e-15
-3.39236e-14
-4.99247e-17
-3.42026e-14
6.6338e-15
-3.42009e-14
1.32035e-14
-3.39192e-14
1.9594e-14
-3.36394e-14
2.57551e-14
-3.33878e-14
-3.31927e-14
3.16385e-14
-4.02866e-13
-5.54388e-13
4.98584e-13
-3.04958e-13
-5.63344e-13
-2.04974e-13
-5.7128e-13
-1.03392e-13
-5.77065e-13
-5.86961e-16
-5.80528e-13
1.02204e-13
-5.80495e-13
2.03766e-13
-5.77005e-13
3.0355e-13
-5.73127e-13
4.01205e-13
-5.6934e-13
-5.66178e-13
4.96302e-13
-5.25937e-12
-8.6662e-12
6.54057e-12
-3.96306e-12
-8.75747e-12
-2.65469e-12
-8.8387e-12
-1.33431e-12
-8.90074e-12
-4.06589e-15
-8.93779e-12
1.32545e-12
-8.93678e-12
2.64425e-12
-8.8986e-12
3.95021e-12
-8.84864e-12
5.24224e-12
-8.79291e-12
-8.74203e-12
6.5194e-12
-5.3365e-11
-1.2343e-10
6.67907e-11
-3.99967e-11
-1.24162e-10
-2.67245e-11
-1.2481e-10
-1.34537e-11
-1.25368e-10
-1.4578e-13
-1.25711e-10
1.31767e-11
-1.25722e-10
2.64722e-11
-1.25383e-10
3.9778e-11
-1.24857e-10
5.31615e-11
-1.24244e-10
-1.23617e-10
6.66066e-11
-3.73087e-10
-1.63406e-09
4.67443e-10
-2.79749e-10
-1.64043e-09
-1.86705e-10
-1.64757e-09
-9.34926e-11
-1.65369e-09
1.28221e-13
-1.65743e-09
9.3735e-11
-1.65744e-09
1.86897e-10
-1.65366e-09
2.79771e-10
-1.64735e-09
3.73038e-10
-1.64014e-09
-1.63365e-09
4.67161e-10
-7.92833e-09
-3.39526e-07
9.8886e-09
-5.95575e-09
-3.40324e-07
-3.9804e-09
-3.41372e-07
-1.99446e-09
-3.42254e-07
4.40143e-12
-3.42761e-07
2.00297e-09
-3.42764e-07
3.9878e-09
-3.4225e-07
5.96104e-09
-3.41339e-07
7.93109e-09
-3.40263e-07
-3.39428e-07
9.88769e-09
-4.61877e-08
-8.05833e-07
5.76003e-08
-3.46995e-08
-8.06638e-07
-2.31599e-08
-8.0722e-07
-1.15812e-08
-8.076e-07
2.68186e-11
-8.07788e-07
1.16347e-08
-8.07789e-07
2.32133e-08
-8.07602e-07
3.47517e-08
-8.07223e-07
4.62382e-08
-8.06644e-07
-8.05841e-07
5.76486e-08
-5.38867e-08
-8.1923e-07
6.72833e-08
-4.04485e-08
-8.20076e-07
-2.69746e-08
-8.20694e-07
-1.34747e-08
-8.211e-07
3.8009e-11
-8.21301e-07
1.35512e-08
-8.21302e-07
2.7052e-08
-8.21103e-07
4.05279e-08
-8.20699e-07
5.39677e-08
-8.20084e-07
-8.19241e-07
6.73671e-08
-5.17959e-08
-8.32105e-07
6.46703e-08
-3.88749e-08
-8.32997e-07
-2.59213e-08
-8.33648e-07
-1.29443e-08
-8.34077e-07
4.4759e-11
-8.3429e-07
1.30341e-08
-8.34291e-07
2.60118e-08
-8.34081e-07
3.89665e-08
-8.33654e-07
5.18888e-08
-8.33006e-07
-8.32118e-07
6.47654e-08
-5.00419e-08
-8.44535e-07
6.24717e-08
-3.75616e-08
-8.45478e-07
-2.5044e-08
-8.46166e-07
-1.25017e-08
-8.4662e-07
5.3233e-11
-8.46845e-07
1.26084e-08
-8.46847e-07
2.51514e-08
-8.46624e-07
3.76699e-08
-8.46173e-07
5.01515e-08
-8.45488e-07
-8.44548e-07
6.25822e-08
-4.86128e-08
-8.56604e-07
6.06821e-08
-3.64904e-08
-8.576e-07
-2.43286e-08
-8.58328e-07
-1.21409e-08
-8.58807e-07
5.98271e-11
-8.59046e-07
1.22607e-08
-8.59047e-07
2.44489e-08
-8.58812e-07
3.66115e-08
-8.58336e-07
4.8735e-08
-8.57611e-07
-8.56619e-07
6.08053e-08
-4.74169e-08
-8.68362e-07
5.91751e-08
-3.55979e-08
-8.69419e-07
-2.37344e-08
-8.70191e-07
-1.18416e-08
-8.707e-07
6.56483e-11
-8.70953e-07
1.1973e-08
-8.70955e-07
2.3866e-08
-8.70705e-07
3.573e-08
-8.70199e-07
4.75496e-08
-8.69431e-07
-8.68377e-07
5.93085e-08
-4.64416e-08
-8.79852e-07
5.79314e-08
-3.48769e-08
-8.80983e-07
-2.32574e-08
-8.8181e-07
-1.16022e-08
-8.82355e-07
7.0696e-11
-8.82626e-07
1.17437e-08
-8.82628e-07
2.3399e-08
-8.8236e-07
3.50186e-08
-8.81819e-07
4.65836e-08
-8.80996e-07
-8.79867e-07
5.80735e-08
-4.57732e-08
-8.91146e-07
5.70679e-08
-3.43879e-08
-8.92369e-07
-2.29363e-08
-8.93262e-07
-1.14415e-08
-8.9385e-07
7.46832e-11
-8.94142e-07
1.15909e-08
-8.94144e-07
2.30856e-08
-8.93855e-07
3.45371e-08
-8.9327e-07
4.59223e-08
-8.92381e-07
-8.91162e-07
5.72168e-08
-4.5567e-08
-9.02373e-07
5.6794e-08
-3.42409e-08
-9.03695e-07
-2.28416e-08
-9.04661e-07
-1.1394e-08
-9.05297e-07
7.74577e-11
-9.05614e-07
1.15489e-08
-9.05615e-07
2.29962e-08
-9.05302e-07
3.43952e-08
-9.04669e-07
4.57208e-08
-9.03706e-07
-9.02388e-07
5.69473e-08
-4.59852e-08
-9.1371e-07
5.7322e-08
-3.4553e-08
-9.15127e-07
-2.30491e-08
-9.16165e-07
-1.14971e-08
-9.16849e-07
7.88962e-11
-9.17189e-07
1.16548e-08
-9.17191e-07
2.32065e-08
-9.16854e-07
3.471e-08
-9.16173e-07
4.61413e-08
-9.15138e-07
-9.13724e-07
5.74771e-08
-4.71326e-08
-9.2536e-07
5.87828e-08
-3.54025e-08
-9.26857e-07
-2.36105e-08
-9.27957e-07
-1.17763e-08
-9.28683e-07
7.90935e-11
-9.29045e-07
1.19344e-08
-9.29046e-07
2.3768e-08
-9.28687e-07
3.55592e-08
-9.27964e-07
4.72882e-08
-9.26866e-07
-9.25373e-07
5.89368e-08
-4.90118e-08
-9.37519e-07
6.11708e-08
-3.67948e-08
-9.39074e-07
-2.45311e-08
-9.40221e-07
-1.22349e-08
-9.4098e-07
7.79843e-11
-9.41358e-07
1.23907e-08
-9.41359e-07
2.46863e-08
-9.40983e-07
3.6949e-08
-9.40227e-07
4.91645e-08
-9.39082e-07
-9.37529e-07
6.13215e-08
-5.15089e-08
-9.50339e-07
6.43284e-08
-3.86512e-08
-9.51932e-07
-2.57614e-08
-9.5311e-07
-1.28488e-08
-9.53892e-07
7.56749e-11
-9.54282e-07
1.29999e-08
-9.54283e-07
2.59118e-08
-9.53895e-07
3.88003e-08
-9.53115e-07
5.16563e-08
-9.51938e-07
-9.50347e-07
6.44736e-08
-5.44208e-08
-9.63903e-07
6.79847e-08
-4.0827e-08
-9.65525e-07
-2.72086e-08
-9.66729e-07
-1.35727e-08
-9.67528e-07
7.23102e-11
-9.67927e-07
1.3717e-08
-9.67928e-07
2.73522e-08
-9.6753e-07
4.09693e-08
-9.66732e-07
5.45612e-08
-9.6553e-07
-9.63908e-07
6.81226e-08
-5.75267e-08
-9.78233e-07
7.18574e-08
-4.31602e-08
-9.79892e-07
-2.87663e-08
-9.81123e-07
-1.43537e-08
-9.81941e-07
6.80304e-11
-9.82349e-07
1.44896e-08
-9.82349e-07
2.89013e-08
-9.81942e-07
4.32939e-08
-9.81125e-07
5.76585e-08
-9.79894e-07
-9.78236e-07
7.19867e-08
-6.06353e-08
-9.9331e-07
7.57115e-08
-4.55058e-08
-9.95021e-07
-3.03373e-08
-9.96291e-07
-1.51433e-08
-9.97135e-07
6.3046e-11
-9.97555e-07
1.52692e-08
-9.97555e-07
3.04624e-08
-9.97135e-07
4.56297e-08
-9.96292e-07
6.07574e-08
-9.95022e-07
-9.9331e-07
7.58311e-08
-6.36088e-08
-1.00908e-06
7.93831e-08
-4.77565e-08
-1.01087e-06
-3.18483e-08
-1.0122e-06
-1.59042e-08
-1.01308e-06
5.74882e-11
-1.01352e-06
1.60189e-08
-1.01352e-06
3.19623e-08
-1.01308e-06
4.78692e-08
-1.0122e-06
6.37198e-08
-1.01087e-06
-1.00908e-06
7.94918e-08
-6.63797e-08
-1.02551e-06
8.28094e-08
-4.98532e-08
-1.0274e-06
-3.32563e-08
-1.0288e-06
-1.66137e-08
-1.02972e-06
5.13209e-11
-1.03018e-06
1.67161e-08
-1.03018e-06
3.33582e-08
-1.02972e-06
4.99539e-08
-1.02879e-06
6.64789e-08
-1.0274e-06
-1.02551e-06
8.29067e-08
-6.88515e-08
-1.04251e-06
8.58486e-08
-5.17297e-08
-1.04452e-06
-3.45192e-08
-1.04601e-06
-1.72512e-08
-1.04699e-06
4.49445e-11
-1.04748e-06
1.73409e-08
-1.04748e-06
3.46084e-08
-1.04699e-06
5.18181e-08
-1.046e-06
6.89386e-08
-1.04452e-06
-1.04251e-06
8.59341e-08
-7.11161e-08
-1.06006e-06
8.86677e-08
-5.34326e-08
-1.06221e-06
-3.56583e-08
-1.06378e-06
-1.78247e-08
-1.06482e-06
3.82925e-11
-1.06534e-06
1.79011e-08
-1.06534e-06
3.57343e-08
-1.06482e-06
5.3508e-08
-1.06378e-06
7.11905e-08
-1.0622e-06
-1.06006e-06
8.87407e-08
-7.3021e-08
-1.07809e-06
9.10458e-08
-5.48671e-08
-1.08036e-06
-3.66197e-08
-1.08203e-06
-1.83096e-08
-1.08313e-06
3.18752e-11
-1.08368e-06
1.83732e-08
-1.08368e-06
3.66831e-08
-1.08313e-06
5.49301e-08
-1.08202e-06
7.30834e-08
-1.08035e-06
-1.07808e-06
9.11073e-08
-7.46072e-08
-1.09649e-06
9.30132e-08
-5.6064e-08
-1.0989e-06
-3.74215e-08
-1.10067e-06
-1.87142e-08
-1.10184e-06
2.5647e-11
-1.10242e-06
1.87654e-08
-1.10242e-06
3.74726e-08
-1.10184e-06
5.61148e-08
-1.10067e-06
7.46578e-08
-1.0989e-06
-1.09649e-06
9.30634e-08
-7.60346e-08
-1.11526e-06
9.47987e-08
-5.71226e-08
-1.11781e-06
-3.81198e-08
-1.11967e-06
-1.9063e-08
-1.1209e-06
1.98448e-11
-1.12151e-06
1.91027e-08
-1.1215e-06
3.81594e-08
-1.1209e-06
5.71622e-08
-1.11967e-06
7.60741e-08
-1.11781e-06
-1.11525e-06
9.48383e-08
-7.70271e-08
-1.13431e-06
9.60794e-08
-5.78418e-08
-1.137e-06
-3.85895e-08
-1.13893e-06
-1.92972e-08
-1.14019e-06
1.47379e-11
-1.14082e-06
1.93267e-08
-1.14082e-06
3.86191e-08
-1.14019e-06
5.78717e-08
-1.13892e-06
7.70572e-08
-1.13699e-06
-1.1343e-06
9.611e-08
-7.74951e-08
-1.1536e-06
9.67893e-08
-5.81644e-08
-1.15633e-06
-3.87966e-08
-1.15829e-06
-1.94005e-08
-1.15959e-06
1.06608e-11
-1.16023e-06
1.94219e-08
-1.16023e-06
3.88182e-08
-1.15958e-06
5.81864e-08
-1.15829e-06
7.75178e-08
-1.15633e-06
-1.1536e-06
9.68129e-08
-7.7652e-08
-1.173e-06
9.70533e-08
-5.82712e-08
-1.17571e-06
-3.88638e-08
-1.1777e-06
-1.94338e-08
-1.17902e-06
7.66832e-12
-1.17967e-06
1.94493e-08
-1.17967e-06
3.88795e-08
-1.17901e-06
5.82874e-08
-1.1777e-06
7.76689e-08
-1.17571e-06
-1.173e-06
9.70714e-08
-7.74504e-08
-1.19221e-06
9.66542e-08
-5.81405e-08
-1.19502e-06
-3.87765e-08
-1.19706e-06
-1.93896e-08
-1.1984e-06
5.67558e-12
-1.19907e-06
1.9401e-08
-1.19906e-06
3.87882e-08
-1.1984e-06
5.81526e-08
-1.19706e-06
7.74634e-08
-1.19502e-06
-1.1922e-06
9.66685e-08
-7.66729e-08
-1.21118e-06
9.56461e-08
-5.75385e-08
-1.21415e-06
-3.83615e-08
-1.21624e-06
-1.91781e-08
-1.21759e-06
4.68412e-12
-1.21825e-06
1.91876e-08
-1.21825e-06
3.83712e-08
-1.21758e-06
5.75488e-08
-1.21623e-06
7.66841e-08
-1.21415e-06
-1.21118e-06
9.56585e-08
-7.5197e-08
-1.23011e-06
9.4121e-08
-5.63459e-08
-1.23301e-06
-3.75395e-08
-1.23504e-06
-1.87605e-08
-1.23636e-06
4.35469e-12
-1.23701e-06
1.87694e-08
-1.23701e-06
3.75486e-08
-1.23636e-06
5.63556e-08
-1.23504e-06
7.52073e-08
-1.233e-06
-1.2301e-06
9.41323e-08
-7.30896e-08
-1.24853e-06
9.15169e-08
-5.46917e-08
-1.2514e-06
-3.64119e-08
-1.25332e-06
-1.81908e-08
-1.25459e-06
4.36846e-12
-1.25521e-06
1.81996e-08
-1.25521e-06
3.64209e-08
-1.25459e-06
5.4701e-08
-1.25332e-06
7.30994e-08
-1.2514e-06
-1.24853e-06
9.15274e-08
-7.03343e-08
-1.26466e-06
8.64573e-08
-5.26293e-08
-1.26911e-06
-3.5038e-08
-1.27091e-06
-1.7504e-08
-1.27212e-06
4.54221e-12
-1.27272e-06
1.75132e-08
-1.27272e-06
3.50473e-08
-1.27212e-06
5.26387e-08
-1.27091e-06
7.03441e-08
-1.26911e-06
-1.26466e-06
8.64679e-08
-6.6992e-08
-1.27164e-06
7.39738e-08
-5.01825e-08
-1.28592e-06
-3.34262e-08
-1.28767e-06
-1.67023e-08
-1.28884e-06
4.78211e-12
-1.28942e-06
1.67119e-08
-1.28942e-06
3.34359e-08
-1.28884e-06
5.01923e-08
-1.28767e-06
6.70019e-08
-1.28592e-06
-1.27164e-06
7.39852e-08
-6.30989e-08
-1.23976e-06
5.85205e-08
-4.73159e-08
-1.3017e-06
-3.15273e-08
-1.30346e-06
-1.57549e-08
-1.30462e-06
4.93718e-12
-1.30518e-06
1.57648e-08
-1.30518e-06
3.15372e-08
-1.30462e-06
4.73258e-08
-1.30346e-06
6.31088e-08
-1.3017e-06
-1.23977e-06
5.85287e-08
-5.87461e-08
-1.16697e-06
4.36721e-08
-4.40063e-08
-1.31644e-06
-2.93134e-08
-1.31815e-06
-1.46474e-08
-1.31928e-06
4.86183e-12
-1.31984e-06
1.46571e-08
-1.31984e-06
2.93231e-08
-1.31928e-06
4.4016e-08
-1.31815e-06
5.87557e-08
-1.31644e-06
-1.16697e-06
4.36787e-08
-5.39002e-08
-1.09845e-06
3.183e-08
-4.03311e-08
-1.33001e-06
-2.68476e-08
-1.33164e-06
-1.3411e-08
-1.33272e-06
4.57699e-12
-1.33325e-06
1.34201e-08
-1.33325e-06
2.68568e-08
-1.33272e-06
4.03403e-08
-1.33164e-06
5.39092e-08
-1.33001e-06
-1.09846e-06
3.18346e-08
-4.85217e-08
-1.02292e-06
2.27025e-08
-3.62896e-08
-1.34224e-06
-2.41467e-08
-1.34378e-06
-1.20586e-08
-1.34481e-06
4.13771e-12
-1.34531e-06
1.20669e-08
-1.34531e-06
2.4155e-08
-1.34481e-06
3.62978e-08
-1.34378e-06
4.85299e-08
-1.34224e-06
-1.02293e-06
2.27059e-08
-4.27655e-08
-9.42171e-07
1.51139e-08
-3.19616e-08
-1.35305e-06
-2.12573e-08
-1.35448e-06
-1.0613e-08
-1.35545e-06
3.59732e-12
-1.35593e-06
1.06202e-08
-1.35593e-06
2.12645e-08
-1.35545e-06
3.19688e-08
-1.35448e-06
4.27729e-08
-1.35305e-06
-9.42172e-07
1.51161e-08
-3.67093e-08
-8.63602e-07
9.39181e-09
-2.74151e-08
-1.36234e-06
-1.82239e-08
-1.36368e-06
-9.09592e-09
-1.36458e-06
3.07505e-12
-1.36503e-06
9.10207e-09
-1.36503e-06
1.82301e-08
-1.36458e-06
2.74213e-08
-1.36368e-06
3.67157e-08
-1.36234e-06
-8.63602e-07
9.3932e-09
-3.03637e-08
-7.90972e-07
5.44722e-09
-2.26864e-08
-1.37002e-06
-1.50742e-08
-1.37129e-06
-7.52198e-09
-1.37213e-06
2.62704e-12
-1.37255e-06
7.52724e-09
-1.37255e-06
1.50795e-08
-1.37213e-06
2.26918e-08
-1.37129e-06
3.03693e-08
-1.37002e-06
-7.90973e-07
5.44807e-09
-2.3608e-08
-7.26807e-07
2.89305e-09
-1.78197e-08
-1.37581e-06
-1.18372e-08
-1.37728e-06
-5.90559e-09
-1.37806e-06
2.29206e-12
-1.37846e-06
5.91019e-09
-1.37846e-06
1.18418e-08
-1.37806e-06
1.78245e-08
-1.37728e-06
2.3613e-08
-1.37581e-06
-7.26809e-07
2.89357e-09
-1.56928e-08
-6.74686e-07
1.3655e-09
-1.28691e-08
-1.37863e-06
-8.54693e-09
-1.3816e-06
-4.26334e-09
-1.38235e-06
2.08507e-12
-1.38273e-06
4.26752e-09
-1.38273e-06
8.55114e-09
-1.38235e-06
1.28734e-08
-1.3816e-06
1.56976e-08
-1.37863e-06
-6.74689e-07
1.36582e-09
-8.48183e-09
-6.35535e-07
5.43011e-10
-7.89516e-09
-1.37511e-06
-5.24278e-09
-1.38425e-06
-2.61419e-09
-1.38498e-06
2.00919e-12
-1.38534e-06
2.61822e-09
-1.38534e-06
5.24684e-09
-1.38498e-06
7.89927e-09
-1.38425e-06
8.48522e-09
-1.37511e-06
-6.3554e-07
5.43211e-10
-3.11759e-09
-6.05342e-07
2.16265e-10
-2.94944e-09
-1.37068e-06
-1.96039e-09
-1.38524e-06
-9.75587e-10
-1.38596e-06
2.03768e-12
-1.38632e-06
9.79673e-10
-1.38632e-06
1.96451e-09
-1.38596e-06
2.9536e-09
-1.38524e-06
3.12095e-09
-1.37068e-06
-6.0535e-07
2.1645e-10
2.18964e-09
-5.83466e-07
1.18725e-29
1.90481e-09
-1.36751e-06
1.27473e-09
-1.3846e-06
6.39431e-10
-1.38532e-06
2.11653e-12
-1.38568e-06
-6.35184e-10
-1.38568e-06
-1.27045e-09
-1.38532e-06
-1.90044e-09
-1.3846e-06
-2.18577e-09
-1.36751e-06
-5.83477e-07
1.26743e-29
7.62752e-09
-5.70639e-07
1.57281e-28
6.66256e-09
-1.36394e-06
4.43747e-09
-1.38238e-06
2.21804e-09
-1.38311e-06
2.1999e-12
-1.38347e-06
-2.21362e-09
-1.38347e-06
-4.43302e-09
-1.38311e-06
-6.65802e-09
-1.38238e-06
-7.62359e-09
-1.36394e-06
-5.70651e-07
1.50897e-28
1.28545e-08
-5.66278e-07
1.94127e-28
1.12683e-08
-1.36e-06
7.49849e-09
-1.37861e-06
3.74554e-09
-1.37935e-06
2.26199e-12
-1.37972e-06
-3.74101e-09
-1.37972e-06
-7.49391e-09
-1.37935e-06
-1.12636e-08
-1.37861e-06
-1.28506e-08
-1.36e-06
-5.66293e-07
1.85803e-28
1.79415e-08
-5.69701e-07
1.3724e-28
1.57103e-08
-1.35572e-06
1.04476e-08
-1.37335e-06
5.21618e-09
-1.37412e-06
2.28616e-12
-1.37451e-06
-5.2116e-09
-1.37451e-06
-1.0443e-08
-1.37412e-06
-1.57056e-08
-1.37335e-06
-1.79376e-08
-1.35572e-06
-5.69719e-07
1.30262e-28
2.3152e-08
-5.8239e-07
6.67503e-29
1.99797e-08
-1.35128e-06
1.32765e-08
-1.36665e-06
6.62453e-09
-1.36747e-06
2.26243e-12
-1.36789e-06
-6.61999e-09
-1.36789e-06
-1.32719e-08
-1.36747e-06
-1.99751e-08
-1.36665e-06
-2.31482e-08
-1.35128e-06
-5.82409e-07
6.21856e-29
2.83244e-08
-6.00333e-07
2.11505e-29
2.40409e-08
-1.3459e-06
1.59587e-08
-1.35857e-06
7.95673e-09
-1.35947e-06
2.19602e-12
-1.35993e-06
-7.95232e-09
-1.35993e-06
-1.59543e-08
-1.35947e-06
-2.40364e-08
-1.35857e-06
-2.83207e-08
-1.3459e-06
-6.00355e-07
1.83853e-29
3.3578e-08
-6.26547e-07
1.23688e-30
2.7885e-08
-1.33954e-06
1.84854e-08
-1.34917e-06
9.20689e-09
-1.35019e-06
2.10777e-12
-1.35073e-06
-9.20265e-09
-1.35073e-06
-1.84811e-08
-1.35019e-06
-2.78806e-08
-1.34917e-06
-3.35744e-08
-1.33955e-06
-6.26571e-07
3.49529e-32
3.90075e-08
-6.59738e-07
-2.26521e-28
3.15314e-08
-1.33168e-06
2.08632e-08
-1.3385e-06
1.03759e-08
-1.3397e-06
2.02319e-12
-1.34036e-06
-1.03718e-08
-1.34036e-06
-2.0859e-08
-1.3397e-06
-3.1527e-08
-1.3385e-06
-3.90038e-08
-1.33168e-06
-6.59764e-07
-2.39472e-28
4.45555e-08
-6.99865e-07
-1.74847e-28
3.49828e-08
-1.32191e-06
2.30868e-08
-1.3266e-06
1.14575e-08
-1.32807e-06
1.95234e-12
-1.3289e-06
-1.14535e-08
-1.3289e-06
-2.30827e-08
-1.32807e-06
-3.49784e-08
-1.3266e-06
-4.45517e-08
-1.32191e-06
-6.99891e-07
-1.80225e-28
5.01975e-08
-7.47086e-07
-8.07717e-29
3.82349e-08
-1.30989e-06
2.51382e-08
-1.31351e-06
1.24343e-08
-1.31537e-06
1.89447e-12
-1.31647e-06
-1.24304e-08
-1.31647e-06
-2.51341e-08
-1.31537e-06
-3.82303e-08
-1.31351e-06
-5.01933e-08
-1.30989e-06
-7.47111e-07
-8.03271e-29
5.57347e-08
-8.01e-07
-1.48317e-29
4.11985e-08
-1.29535e-06
2.69277e-08
-1.29924e-06
1.32454e-08
-1.30169e-06
1.84413e-12
-1.30322e-06
-1.32416e-08
-1.30322e-06
-2.69236e-08
-1.30169e-06
-4.11939e-08
-1.29924e-06
-5.57298e-08
-1.29535e-06
-8.0102e-07
-1.42999e-29
5.93327e-08
-8.59453e-07
-7.42626e-31
4.35191e-08
-1.27953e-06
2.81884e-08
-1.2839e-06
1.37563e-08
-1.28725e-06
1.80476e-12
-1.28947e-06
-1.37525e-08
-1.28947e-06
-2.81843e-08
-1.28726e-06
-4.35146e-08
-1.28391e-06
-5.93279e-08
-1.27954e-06
-8.59467e-07
-6.89e-31
6.13074e-08
-9.2051e-07
-6.72429e-33
4.42905e-08
-1.26252e-06
2.84009e-08
-1.26802e-06
1.3883e-08
-1.27274e-06
1.80599e-12
-1.27559e-06
-1.38793e-08
-1.27559e-06
-2.8397e-08
-1.27274e-06
-4.42864e-08
-1.26802e-06
-6.13032e-08
-1.26252e-06
-9.20518e-07
-6.6427e-33
5.95887e-08
-9.80177e-07
-1.04266e-35
4.14388e-08
-1.24437e-06
2.68865e-08
-1.25346e-06
1.39785e-08
-1.25983e-06
1.88544e-12
-1.26161e-06
-1.39748e-08
-1.26161e-06
-2.68829e-08
-1.25983e-06
-4.14352e-08
-1.25347e-06
-5.95855e-08
-1.24437e-06
-9.80181e-07
-1.00836e-35
4.85345e-08
-1.02888e-06
-1.28478e-38
3.23825e-08
-1.22821e-06
2.46748e-08
-1.24576e-06
1.49596e-08