/*--------------------------------*- C++ -*----------------------------------*\
  =========                 |
  \\      /  F ield         | OpenFOAM: The Open Source CFD Toolbox
   \\    /   O peration     | Website:  https://openfoam.org
    \\  /    A nd           | Version:  8
     \\/     M anipulation  |
\*---------------------------------------------------------------------------*/
FoamFile
{
    version     2.0;
    format      ascii;
    class       volScalarField;
    location    "0.2";
    object      k;
}
// * * * * * * * * * * * * * * * * * * * * * * * * * * * * * * * * * * * * * //

dimensions      [0 2 -2 0 0 0 0];

internalField   nonuniform List<scalar> 
9150
(
0.00344608
0.00216631
0.00144154
0.00126119
0.00122767
0.00122767
0.00126119
0.00144154
0.00216631
0.00344608
0.00339637
0.00187008
0.00132984
0.00122101
0.00120159
0.00120159
0.00122101
0.00132984
0.00187008
0.00339637
0.00328733
0.00173229
0.00128623
0.00120932
0.00119431
0.00119431
0.00120933
0.00128623
0.00173229
0.00328733
0.00316088
0.00166189
0.0012724
0.00120884
0.00119505
0.00119505
0.00120884
0.0012724
0.00166189
0.00316088
0.00302065
0.00163465
0.00127132
0.0012128
0.00119933
0.00119933
0.0012128
0.00127132
0.00163465
0.00302065
0.0049161
0.00440532
0.00287774
0.00229915
0.00211535
0.00211535
0.00229915
0.00287774
0.00440532
0.00491609
0.00412206
0.00299588
0.00233158
0.0019811
0.00185971
0.00185971
0.0019811
0.00233158
0.00299588
0.00412206
0.00375971
0.00265299
0.00193143
0.001675
0.00159597
0.00159597
0.001675
0.00193143
0.00265299
0.00375971
0.00349342
0.00244269
0.00166395
0.00145681
0.00140168
0.00140168
0.00145681
0.00166395
0.00244269
0.00349342
0.00337794
0.00230726
0.00150883
0.00132447
0.00128454
0.00128454
0.00132447
0.00150883
0.00230726
0.00337794
0.0190503
0.00884477
0.00414565
0.0026532
0.00221071
0.00221071
0.00265319
0.00414554
0.00884426
0.0190493
0.00747924
0.00562633
0.00364885
0.00261732
0.00222232
0.00222232
0.00261732
0.00364885
0.00562632
0.00747923
0.00689215
0.00530946
0.00362322
0.00261783
0.00223647
0.00223647
0.00261783
0.00362322
0.00530946
0.00689215
0.00633873
0.00502206
0.0035934
0.0026119
0.00225216
0.00225216
0.00261189
0.0035934
0.00502205
0.00633873
0.00564314
0.00502281
0.00348185
0.00255632
0.00224964
0.00224964
0.00255632
0.00348185
0.00502281
0.00564314
0.0161697
0.0162089
0.0162383
0.016258
0.016268
0.0162683
0.0162587
0.0162392
0.01621
0.0161709
0.0259313
0.0259812
0.0260186
0.0260436
0.0260562
0.0260563
0.0260439
0.0260192
0.0259819
0.0259322
0.0317087
0.0317651
0.0318074
0.0318356
0.0318498
0.0318499
0.0318359
0.0318079
0.0317658
0.0317096
0.0358415
0.0359023
0.0359478
0.0359782
0.0359935
0.0359936
0.0359785
0.0359484
0.035903
0.0358425
0.0391214
0.0391854
0.0392333
0.0392652
0.0392812
0.0392814
0.0392655
0.0392338
0.0391861
0.0391225
0.0418738
0.0419401
0.0419898
0.0420229
0.0420395
0.0420397
0.0420233
0.0419903
0.0419409
0.0418748
0.044268
0.0443362
0.0443873
0.0444214
0.0444385
0.0444386
0.0444217
0.0443878
0.0443369
0.0442689
0.0464088
0.0464787
0.0465311
0.046566
0.0465835
0.0465836
0.0465662
0.0465315
0.0464792
0.0464095
0.0483708
0.0484422
0.0484958
0.0485314
0.0485493
0.0485493
0.0485316
0.048496
0.0484425
0.0483711
0.0502141
0.0502871
0.0503419
0.0503783
0.0503966
0.0503966
0.0503784
0.0503419
0.0502872
0.0502141
0.0519934
0.0520683
0.0521244
0.0521618
0.0521805
0.0521804
0.0521617
0.0521243
0.0520681
0.0519931
0.0537639
0.053841
0.0538987
0.0539372
0.0539564
0.0539563
0.053937
0.0538984
0.0538405
0.0537633
0.0555854
0.0556651
0.0557248
0.0557646
0.0557844
0.0557843
0.0557643
0.0557243
0.0556644
0.0555844
0.057526
0.057609
0.0576712
0.0577126
0.0577332
0.0577331
0.0577122
0.0576706
0.0576081
0.0575248
0.0596657
0.0597527
0.0598179
0.0598613
0.059883
0.0598828
0.0598609
0.0598173
0.0597518
0.0596644
0.0620989
0.0621908
0.0622597
0.0623055
0.0623283
0.0623281
0.062305
0.0622589
0.0621898
0.0620975
0.0649377
0.0650352
0.0651083
0.0651569
0.0651811
0.065181
0.0651565
0.0651076
0.0650343
0.0649363
0.0683146
0.0684185
0.0684964
0.0685482
0.068574
0.0685739
0.0685478
0.0684958
0.0684177
0.0683134
0.0723876
0.0724987
0.0725818
0.0726372
0.0726649
0.0726648
0.072637
0.0725815
0.0724982
0.0723868
0.0773475
0.0774663
0.0775554
0.0776147
0.0776443
0.0776444
0.0776148
0.0775555
0.0774664
0.0773473
0.0834278
0.0835551
0.0836505
0.0837141
0.083746
0.0837461
0.0837146
0.0836513
0.083556
0.0834285
0.0909175
0.0910538
0.0911562
0.0912244
0.0912586
0.091259
0.0912254
0.0911578
0.091056
0.0909196
0.100171
0.100317
0.100426
0.100499
0.100536
0.100537
0.100501
0.100429
0.100321
0.100175
0.11161
0.111765
0.111881
0.111958
0.111997
0.111998
0.111961
0.111885
0.111771
0.111617
0.1257
0.12586
0.125981
0.126061
0.126102
0.126103
0.126065
0.125987
0.125869
0.12571
0.142894
0.143052
0.143172
0.143251
0.143292
0.143294
0.143257
0.143181
0.143065
0.142908
0.163532
0.163675
0.163782
0.163854
0.163891
0.163893
0.163861
0.163794
0.163691
0.163551
0.187713
0.187815
0.187891
0.187942
0.187968
0.187971
0.187951
0.187906
0.187835
0.187736
0.215158
0.215181
0.215198
0.215209
0.215216
0.21522
0.21522
0.215216
0.215205
0.215184
0.245123
0.245017
0.244937
0.244883
0.244857
0.244861
0.244894
0.244956
0.245043
0.245152
0.276384
0.276087
0.275864
0.275713
0.275639
0.275643
0.275725
0.275883
0.276114
0.276414
0.307312
0.306755
0.306336
0.306056
0.305916
0.30592
0.306067
0.306355
0.306781
0.30734
0.336035
0.335148
0.334482
0.334036
0.333814
0.333816
0.334045
0.334497
0.335169
0.336057
0.360686
0.359405
0.358445
0.357804
0.357483
0.357485
0.35781
0.358455
0.359419
0.3607
0.379746
0.378024
0.376736
0.375877
0.375448
0.375449
0.375881
0.376742
0.378032
0.379752
0.392343
0.390167
0.388543
0.387462
0.386922
0.386923
0.387466
0.388549
0.390174
0.392347
0.398551
0.39596
0.39403
0.392749
0.392109
0.39211
0.39275
0.394032
0.395961
0.39855
0.400959
0.398102
0.395982
0.394576
0.393876
0.393877
0.394578
0.395983
0.398103
0.400956
0.400766
0.397969
0.395898
0.394529
0.393848
0.393848
0.394529
0.395897
0.397968
0.400763
0.40002
0.397397
0.395456
0.394173
0.393535
0.393535
0.394173
0.395455
0.397396
0.400017
0.399965
0.397497
0.395672
0.394467
0.393868
0.393868
0.394467
0.395671
0.397495
0.399961
0.400595
0.39826
0.396534
0.395395
0.394828
0.394828
0.395394
0.396532
0.398257
0.40059
0.401778
0.399556
0.397913
0.39683
0.396291
0.396291
0.396828
0.397911
0.399552
0.401773
0.403471
0.401341
0.399768
0.39873
0.398214
0.398213
0.398728
0.399765
0.401337
0.403465
0.405649
0.403593
0.402075
0.401073
0.400575
0.400574
0.401071
0.402071
0.403588
0.405642
0.408269
0.406269
0.404792
0.403817
0.403333
0.403332
0.403815
0.404788
0.406263
0.408261
0.411284
0.409323
0.407874
0.406918
0.406443
0.406442
0.406916
0.407869
0.409316
0.411274
0.414644
0.412705
0.411274
0.410329
0.40986
0.409858
0.410326
0.411268
0.412697
0.414633
0.418294
0.416364
0.41494
0.414
0.413533
0.413532
0.413996
0.414933
0.416355
0.418281
0.422169
0.42024
0.418816
0.417877
0.41741
0.417408
0.417872
0.418808
0.420229
0.422155
0.4262
0.424267
0.422841
0.4219
0.421432
0.421431
0.421895
0.422833
0.424255
0.426185
0.430312
0.428377
0.426949
0.426006
0.425538
0.425536
0.426001
0.42694
0.428364
0.430296
0.434433
0.432499
0.431071
0.430129
0.429659
0.429658
0.430123
0.431061
0.432485
0.434415
0.438492
0.436564
0.435139
0.434199
0.43373
0.433728
0.434193
0.435129
0.43655
0.438474
0.442429
0.440508
0.439088
0.438151
0.437683
0.437681
0.438145
0.439078
0.440494
0.44241
0.446188
0.444273
0.442857
0.441921
0.441455
0.441453
0.441915
0.442847
0.444259
0.446169
0.449719
0.447804
0.446387
0.445451
0.444985
0.444983
0.445445
0.446377
0.44779
0.4497
0.452976
0.451052
0.449628
0.448687
0.448217
0.448215
0.448681
0.449618
0.451038
0.452958
0.455918
0.45397
0.452529
0.451576
0.451102
0.4511
0.451571
0.452519
0.453957
0.4559
0.458504
0.456518
0.455047
0.454075
0.453591
0.453589
0.454069
0.455038
0.456504
0.458487
0.460694
0.458653
0.45714
0.456139
0.45564
0.455638
0.456133
0.45713
0.45864
0.460678
0.462457
0.46034
0.458769
0.45773
0.457212
0.45721
0.457724
0.45876
0.460327
0.462441
0.463754
0.461544
0.459901
0.458813
0.45827
0.458268
0.458807
0.459892
0.461532
0.463738
0.46456
0.462238
0.460505
0.459355
0.458781
0.458779
0.459349
0.460496
0.462225
0.464545
0.464869
0.462402
0.460556
0.45933
0.458718
0.458716
0.459325
0.460547
0.462389
0.464853
0.464651
0.462012
0.460035
0.45872
0.458062
0.458061
0.458714
0.460026
0.462
0.464635
0.463878
0.461049
0.458924
0.457506
0.456796
0.456794
0.4575
0.458914
0.461036
0.463862
0.462577
0.45952
0.457219
0.455678
0.454906
0.454904
0.455672
0.457208
0.459506
0.46256
0.460783
0.457439
0.454921
0.453233
0.452385
0.452383
0.453226
0.45491
0.457424
0.460765
0.458483
0.454797
0.452024
0.450163
0.449228
0.449226
0.450156
0.452013
0.454781
0.458463
0.455653
0.45158
0.448518
0.446461
0.445428
0.445425
0.446453
0.448505
0.451562
0.455632
0.45228
0.447779
0.444395
0.442121
0.440977
0.440974
0.442112
0.444381
0.44776
0.452256
0.448377
0.443402
0.439655
0.437136
0.435869
0.435865
0.437127
0.439639
0.44338
0.44835
0.443965
0.438451
0.434294
0.431499
0.430092
0.430088
0.431488
0.434276
0.438427
0.443934
0.439022
0.43291
0.428295
0.425193
0.423631
0.423627
0.425181
0.428275
0.432882
0.438987
0.433511
0.426745
0.421632
0.418194
0.416463
0.416458
0.41818
0.42161
0.426714
0.433471
0.427393
0.419928
0.414276
0.410475
0.408561
0.408557
0.410461
0.414252
0.419893
0.427349
0.420642
0.412429
0.4062
0.402008
0.399897
0.399892
0.401993
0.406174
0.412392
0.420593
0.41324
0.404225
0.397373
0.392758
0.390433
0.390428
0.392742
0.397345
0.404185
0.413188
0.405174
0.395286
0.387756
0.38268
0.380122
0.380117
0.382663
0.387727
0.395245
0.405121
0.396411
0.385563
0.377291
0.371712
0.368901
0.368894
0.371694
0.37726
0.38552
0.396355
0.386866
0.374971
0.365896
0.359773
0.356688
0.356682
0.359753
0.365862
0.374924
0.386806
0.376397
0.363393
0.353468
0.346773
0.343399
0.343392
0.346751
0.353431
0.363341
0.37633
0.364844
0.350707
0.339913
0.332628
0.328957
0.328949
0.332604
0.339871
0.350648
0.364767
0.352078
0.336823
0.325162
0.317286
0.313315
0.313306
0.317259
0.325116
0.336757
0.351991
0.338046
0.321708
0.309196
0.300734
0.296465
0.296455
0.300705
0.309145
0.321635
0.337949
0.322781
0.305397
0.292052
0.283011
0.278444
0.278434
0.28298
0.291999
0.30532
0.322678
0.30638
0.287981
0.273816
0.264196
0.259328
0.259318
0.264164
0.273762
0.287903
0.306274
0.288966
0.269584
0.254604
0.244397
0.239221
0.239211
0.244366
0.25455
0.269506
0.28886
0.270673
0.250347
0.234553
0.22374
0.21824
0.21823
0.22371
0.234501
0.250271
0.27057
0.251643
0.230428
0.213816
0.20236
0.196501
0.196492
0.202331
0.213767
0.230354
0.251544
0.232033
0.210007
0.192563
0.18039
0.17411
0.174101
0.180363
0.192517
0.209938
0.231938
0.212029
0.189301
0.170986
0.157959
0.151137
0.151129
0.157934
0.170942
0.189236
0.211939
0.19186
0.168575
0.149304
0.135171
0.127581
0.127574
0.135149
0.149264
0.168515
0.191776
0.171815
0.148153
0.127771
0.112102
0.103335
0.103328
0.112083
0.127735
0.148099
0.171739
0.152268
0.128398
0.10664
0.0887961
0.0781948
0.0781896
0.0887794
0.10661
0.128351
0.1522
0.13369
0.109577
0.0859921
0.0653196
0.0521631
0.052159
0.0653065
0.0859682
0.109539
0.133634
0.116553
0.091336
0.0651546
0.0419377
0.0267857
0.026783
0.0419289
0.0651379
0.0913089
0.116512
0.100657
0.0712837
0.0419276
0.0199315
0.00813983
0.00813881
0.0199273
0.0419187
0.0712686
0.100633
0.0813941
0.0428462
0.0164803
0.00522857
0.00247905
0.002479
0.00522793
0.0164779
0.0428416
0.0813868
0.0161188
0.0160514
0.0159714
0.0158787
0.0157732
0.0156547
0.0155232
0.0153784
0.0152201
0.0150483
0.0148625
0.0146627
0.0144485
0.0142196
0.0139758
0.0137167
0.0134426
0.0131555
0.0128546
0.0125373
0.0122023
0.0118484
0.0114747
0.0110803
0.0106641
0.0102249
0.00976119
0.00927156
0.00875419
0.00820702
0.00762764
0.00701311
0.00635982
0.00566314
0.00491688
0.00411241
0.00323759
0.00227773
0.0012346
0.000199223
0.0258661
0.0257802
0.0256783
0.0255602
0.0254256
0.0252745
0.0251067
0.0249218
0.0247196
0.0244998
0.024262
0.0240059
0.023731
0.0234368
0.0231228
0.0227883
0.0224328
0.0220556
0.0216564
0.0212338
0.0207863
0.0203124
0.0198105
0.0192789
0.0187155
0.018118
0.0174837
0.0168095
0.0160917
0.0153259
0.0145065
0.0136269
0.0126782
0.011649
0.0105231
0.00927635
0.00786815
0.0062144
0.00406549
0.000872298
0.0316348
0.0315376
0.0314222
0.0312884
0.031136
0.0309649
0.0307747
0.0305652
0.030336
0.0300868
0.0298171
0.0295265
0.0292144
0.0288802
0.0285233
0.0281428
0.0277379
0.0273077
0.0268514
0.0263676
0.0258546
0.0253109
0.0247344
0.0241231
0.0234744
0.0227857
0.0220538
0.0212748
0.0204445
0.0195575
0.0186075
0.0175866
0.0164845
0.0152876
0.0139762
0.0125195
0.010861
0.0088733
0.00615815
0.0015745
0.0357619
0.0356571
0.0355327
0.0353885
0.0352243
0.0350398
0.0348347
0.0346087
0.0343616
0.0340927
0.0338018
0.0334882
0.0331514
0.0327907
0.0324052
0.0319942
0.0315567
0.0310916
0.0305979
0.030074
0.0295184
0.0289292
0.0283043
0.0276414
0.0269378
0.0261906
0.0253963
0.0245509
0.0236496
0.0226869
0.0216559
0.0205478
0.0193514
0.0180511
0.0166236
0.0150309
0.0132011
0.0109694
0.00782774
0.00220613
0.0390377
0.0389275
0.0387966
0.0386449
0.038472
0.0382778
0.038062
0.0378241
0.0375639
0.0372809
0.0369746
0.0366445
0.0362898
0.0359099
0.035504
0.0350711
0.0346102
0.0341201
0.0335997
0.0330474
0.0324616
0.0318402
0.0311812
0.0304821
0.02974
0.028952
0.0281143
0.0272227
0.0262723
0.0252571
0.0241695
0.0230002
0.0217365
0.0203604
0.0188447
0.0171442
0.0151726
0.0127342
0.00923576
0.00277702
0.0417868
0.0416724
0.0415366
0.041379
0.0411996
0.0409979
0.0407738
0.0405268
0.0402566
0.0399627
0.0396446
0.0393017
0.0389334
0.0385388
0.0381172
0.0376676
0.0371888
0.0366798
0.0361392
0.0355655
0.0349569
0.0343115
0.0336269
0.0329007
0.03213
0.0313115
0.0304415
0.0295154
0.0285281
0.027473
0.0263422
0.025125
0.0238074
0.0223691
0.0207788
0.0189845
0.0168878
0.0142673
0.010461
0.00329909
0.0441783
0.0440605
0.0439206
0.0437583
0.0435735
0.0433658
0.0431349
0.0428805
0.0426021
0.0422993
0.0419716
0.0416183
0.0412388
0.0408323
0.040398
0.0399348
0.0394417
0.0389174
0.0383606
0.0377698
0.0371431
0.0364785
0.0357737
0.035026
0.0342325
0.0333899
0.032494
0.0315403
0.0305231
0.0294355
0.0282687
0.0270112
0.0256472
0.0241541
0.0224972
0.0206183
0.0184088
0.0156256
0.0115489
0.00378115
0.0463166
0.0461959
0.0460524
0.0458861
0.0456965
0.0454835
0.0452467
0.0449857
0.0447002
0.0443896
0.0440534
0.043691
0.0433018
0.0428849
0.0424395
0.0419646
0.0414591
0.0409217
0.040351
0.0397456
0.0391034
0.0384225
0.0377005
0.0369346
0.0361218
0.0352586
0.0343408
0.0333633
0.0323203
0.0312042
0.0300056
0.0287119
0.0273059
0.0257629
0.0240448
0.0220884
0.0197759
0.0168461
0.0125289
0.00422965
0.0482761
0.0481526
0.0480058
0.0478355
0.0476415
0.0474234
0.0471809
0.0469137
0.0466214
0.0463033
0.0459591
0.0455881
0.0451896
0.0447629
0.044307
0.043821
0.0433038
0.0427542
0.0421706
0.0415516
0.0408952
0.0401993
0.0394615
0.0386789
0.0378485
0.0369665
0.0360284
0.0350292
0.0339623
0.0328199
0.0315916
0.0302641
0.0288188
0.027229
0.0254537
0.0234254
0.0210183
0.017955
0.0134215
0.0046495
0.0501168
0.0499903
0.0498401
0.0496657
0.0494671
0.0492437
0.0489954
0.0487216
0.0484221
0.0480963
0.0477437
0.0473637
0.0469556
0.0465186
0.0460519
0.0455546
0.0450254
0.0444631
0.0438664
0.0432337
0.042563
0.0418521
0.0410985
0.0402994
0.0394515
0.0385509
0.037593
0.0365723
0.0354821
0.0343139
0.0330569
0.0316966
0.0302134
0.0285787
0.0267493
0.0246534
0.0221584
0.0189724
0.0142424
0.00504479
0.0518933
0.0517636
0.0516094
0.0514305
0.0512265
0.0509972
0.0507422
0.0504611
0.0501535
0.0498189
0.0494568
0.0490666
0.0486476
0.0481991
0.0477203
0.0472101
0.0466675
0.0460913
0.04548
0.0448322
0.0441457
0.0434185
0.0426479
0.041831
0.0409644
0.0400441
0.0390653
0.0380223
0.0369079
0.0357133
0.034427
0.0330339
0.031513
0.0298344
0.0279526
0.0257922
0.0232145
0.0199146
0.0150042
0.00541928
0.0536605
0.0535269
0.053368
0.0531836
0.0529734
0.052737
0.052474
0.0521841
0.0518667
0.0515216
0.051148
0.0507456
0.0503135
0.0498512
0.0493577
0.0488322
0.0482736
0.0476807
0.0470522
0.0463865
0.0456816
0.0449353
0.0441449
0.0433075
0.0424196
0.041477
0.0404748
0.0394071
0.0382664
0.0370434
0.0357261
0.0342986
0.0327392
0.0310165
0.0290828
0.0268598
0.0242029
0.0207957
0.0157178
0.00577651
0.055478
0.0553396
0.055175
0.0549839
0.054766
0.0545208
0.0542479
0.053947
0.0536176
0.0532593
0.0528715
0.0524538
0.0520054
0.0515258
0.051014
0.0504694
0.0498908
0.0492772
0.0486272
0.0479394
0.0472117
0.0464419
0.0456274
0.0447651
0.0438514
0.0428823
0.0418526
0.040756
0.0395851
0.03833
0.0369784
0.0355138
0.0339134
0.0321447
0.0301584
0.0278729
0.0251389
0.0216289
0.0163931
0.00612002
0.0574139
0.0572696
0.057098
0.0568986
0.056671
0.0564149
0.0561297
0.055815
0.0554705
0.0550956
0.0546899
0.0542528
0.0537837
0.053282
0.0527471
0.052178
0.0515739
0.0509337
0.0502564
0.0495404
0.0487837
0.0479841
0.047139
0.0462453
0.0452995
0.0442974
0.0432337
0.0421022
0.040895
0.0396021
0.0382109
0.0367041
0.0350584
0.0332402
0.0311983
0.0288488
0.0260374
0.022427
0.0170401
0.00645385
0.059548
0.0593965
0.0592163
0.0590067
0.0587672
0.0584975
0.058197
0.0578652
0.0575017
0.057106
0.0566776
0.056216
0.0557207
0.055191
0.0546263
0.054026
0.0533891
0.0527149
0.0520023
0.0512499
0.0504558
0.0496177
0.0487331
0.0477991
0.046812
0.0457676
0.0446609
0.0434853
0.042233
0.0408939
0.0394548
0.0378983
0.0362003
0.0343262
0.0322235
0.0298058
0.0269147
0.0232035
0.017669
0.00678261
0.0619747
0.0618146
0.061624
0.061402
0.0611482
0.060862
0.0605427
0.0601899
0.059803
0.0593815
0.0589249
0.0584328
0.0579045
0.0573395
0.0567372
0.0560971
0.0554185
0.0547006
0.0539427
0.0531434
0.0523008
0.0514129
0.0504771
0.0494906
0.0484498
0.0473507
0.0461881
0.0449558
0.0436458
0.042248
0.0407492
0.0391314
0.0373704
0.0354306
0.0332583
0.0307651
0.0277884
0.0239729
0.0182908
0.00711128
0.0648059
0.0646358
0.0644329
0.0641964
0.0639256
0.0636197
0.063278
0.0628998
0.0624847
0.0620319
0.0615409
0.0610113
0.0604423
0.0598336
0.0591846
0.0584948
0.0577636
0.0569906
0.0561751
0.055316
0.0544114
0.0534593
0.0524573
0.0514026
0.0502919
0.0491213
0.0478858
0.0465793
0.0451942
0.0437203
0.0421445
0.0404489
0.0386089
0.0365886
0.0343331
0.0317523
0.0286796
0.0247519
0.0189175
0.00744547
0.0681743
0.0679928
0.0677759
0.0675227
0.0672321
0.0669033
0.0665353
0.0661274
0.0656789
0.0651889
0.0646569
0.0640822
0.0634643
0.0628026
0.0620965
0.0613458
0.0605499
0.0597084
0.0588211
0.0578871
0.0569043
0.0558708
0.0547842
0.0536419
0.0524408
0.0511772
0.0498465
0.0484428
0.0469589
0.045385
0.0437083
0.0419113
0.0399694
0.0378465
0.0354872
0.0327999
0.0296147
0.0255609
0.0195634
0.00779165
0.0722381
0.0720438
0.0718113
0.0715392
0.0712262
0.0708712
0.0704731
0.0700309
0.0695436
0.0690103
0.0684302
0.0678026
0.0671268
0.0664021
0.065628
0.0648042
0.0639301
0.0630057
0.0620308
0.0610047
0.0599253
0.0587905
0.0575979
0.056345
0.0550287
0.0536458
0.0521918
0.0506616
0.0490481
0.0473425
0.0455325
0.0436013
0.0415248
0.0392676
0.0367742
0.0339519
0.0306284
0.0264256
0.0202458
0.00815736
0.0771881
0.0769798
0.0767299
0.0764367
0.0760987
0.0757143
0.075282
0.0748007
0.0742691
0.0736861
0.0730505
0.0723616
0.0716184
0.0708201
0.0699662
0.0690562
0.0680897
0.0670665
0.0659868
0.0648501
0.0636539
0.0623958
0.0610731
0.0596833
0.0582235
0.0566902
0.0550796
0.0533867
0.0516054
0.0497275
0.0477417
0.0456323
0.0433766
0.0409403
0.0382687
0.0352695
0.0317685
0.0273814
0.0209876
0.00855225
0.0832581
0.0830344
0.0827655
0.082449
0.082083
0.0816656
0.0811949
0.0806693
0.0800873
0.0794474
0.0787483
0.0779889
0.0771679
0.0762846
0.075338
0.0743276
0.073253
0.0721141
0.0709112
0.0696439
0.0683091
0.0669037
0.0654248
0.0638694
0.0622341
0.0605156
0.0587099
0.0568125
0.0548175
0.0527177
0.050503
0.048159
0.045665
0.0429885
0.0400772
0.0368403
0.0331036
0.028478
0.0218208
0.00898958
0.090737
0.0904969
0.0902072
0.0898651
0.0894681
0.0890137
0.0884997
0.087924
0.0872847
0.0865799
0.085808
0.0849675
0.0840571
0.0830755
0.0820217
0.0808949
0.0796948
0.0784211
0.0770743
0.0756544
0.0741573
0.0725788
0.0709152
0.0691626
0.0673172
0.0653749
0.0633315
0.0611822
0.0589213
0.0565419
0.0540348
0.0513871
0.0485801
0.0455841
0.04235
0.0387905
0.034734
0.029789
0.022792
0.00948846
0.0999802
0.0997227
0.0994109
0.0990411
0.0986102
0.0981149
0.0975526
0.0969205
0.0962163
0.0954376
0.0945825
0.0936489
0.0926353
0.0915401
0.0903621
0.0891004
0.0877544
0.086324
0.0848098
0.0832124
0.0815261
0.0797455
0.0778654
0.0758808
0.0737867
0.0715781
0.0692497
0.0667959
0.0642106
0.0614864
0.0586144
0.0555824
0.0523731
0.0489595
0.0452963
0.0413009
0.0368069
0.0314244
0.0239717
0.0100779
0.11141
0.111136
0.110802
0.110404
0.109938
0.109399
0.108784
0.108091
0.107314
0.106453
0.105504
0.104465
0.103333
0.102108
0.100786
0.0993686
0.0978534
0.0962409
0.0945318
0.092728
0.0908216
0.0888054
0.0866725
0.084416
0.0820293
0.0795059
0.0768389
0.0740214
0.0710458
0.0679037
0.0645851
0.0610775
0.0573634
0.0534172
0.0491963
0.0446224
0.0395352
0.0335495
0.0254684
0.0108032
0.125495
0.125208
0.124857
0.124434
0.123936
0.123356
0.122689
0.121933
0.121082
0.120133
0.119082
0.117927
0.116665
0.115293
0.113811
0.112215
0.110506
0.108684
0.10675
0.104708
0.102547
0.100257
0.0978292
0.0952547
0.0925245
0.0896299
0.086562
0.0833118
0.0798698
0.0762254
0.0723669
0.0682798
0.0639451
0.059336
0.0544093
0.0490881
0.0432149
0.0364069
0.0274499
0.0117356
0.142694
0.142406
0.142049
0.141615
0.141097
0.140488
0.139782
0.138973
0.138055
0.137024
0.135875
0.134605
0.133208
0.131683
0.130027
0.128239
0.126316
0.124261
0.122074
0.119761
0.11731
0.114707
0.11194
0.108997
0.105866
0.102535
0.0989936
0.0952295
0.0912308
0.0869843
0.0824756
0.0776875
0.0725981
0.067177
0.0613775
0.0551178
0.0482348
0.0403363
0.0301694
0.0129896
0.163357
0.163092
0.162756
0.16234
0.161833
0.161227
0.160512
0.159682
0.158728
0.157643
0.156422
0.155057
0.153545
0.15188
0.150059
0.14808
0.145941
0.143643
0.141188
0.138584
0.135816
0.132866
0.129719
0.126358
0.122768
0.118933
0.114838
0.110468
0.105807
0.10084
0.0955491
0.0899137
0.0839088
0.0774995
0.070633
0.063218
0.055075
0.0457797
0.033989
0.0147475
0.187595
0.187393
0.187126
0.18678
0.186342
0.185799
0.185141
0.184355
0.183431
0.182359
0.181128
0.179732
0.17816
0.176408
0.174468
0.172338
0.170015
0.167498
0.164791
0.1619
0.158813
0.155507
0.151959
0.148148
0.144053
0.139653
0.134928
0.129857
0.124421
0.1186
0.112372
0.105715
0.0985993
0.090987
0.0828188
0.0739918
0.0643024
0.0532704
0.0393819
0.0172857
0.215145
0.21507
0.214945
0.214752
0.214475
0.214097
0.213601
0.212973
0.212196
0.211255
0.210137
0.208827
0.207314
0.205587
0.203636
0.201454
0.199036
0.196381
0.193489
0.190369
0.18701
0.183382
0.179456
0.175203
0.170593
0.165597
0.160188
0.154338
0.148021
0.141211
0.133881
0.126005
0.11755
0.108476
0.0987194
0.0881657
0.0765845
0.0634214
0.0469085
0.0209909
0.245281
0.245419
0.245538
0.245616
0.245631
0.245562
0.245387
0.245085
0.244633
0.24401
0.243195
0.242167
0.240907
0.239398
0.237625
0.235574
0.233236
0.230605
0.227679
0.224464
0.220956
0.217116
0.212905
0.208284
0.203212
0.197649
0.191557
0.184895
0.177628
0.169718
0.161133
0.151838
0.141799
0.13097
0.119285
0.106622
0.0927216
0.0769423
0.0571932
0.0263575
0.276794
0.277252
0.277743
0.27824
0.278718
0.279149
0.279505
0.279756
0.279874
0.279826
0.279583
0.279115
0.278393
0.27739
0.276082
0.274446
0.272465
0.270125
0.267419
0.264347
0.260914
0.257072
0.25277
0.247955
0.242571
0.236564
0.229876
0.222452
0.214238
0.205182
0.195236
0.184356
0.172498
0.159613
0.145629
0.130415
0.113678
0.094678
0.0709456
0.03398
0.308064
0.308965
0.309976
0.311067
0.312209
0.313368
0.31451
0.315596
0.316587
0.317442
0.318119
0.318574
0.318766
0.318655
0.318202
0.317374
0.31614
0.314475
0.312361
0.309787
0.306774
0.303261
0.299183
0.294471
0.289051
0.282845
0.275772
0.267753
0.258709
0.248563
0.237245
0.22469
0.210838
0.195628
0.178978
0.16074
0.14058
0.117635
0.0890118
0.0445746
0.337221
0.338692
0.340379
0.342253
0.344279
0.346422
0.348638
0.350881
0.353103
0.355249
0.357262
0.359082
0.360651
0.361908
0.3628
0.363276
0.363289
0.362798
0.361768
0.360168
0.358039
0.355309
0.3519
0.347721
0.342675
0.336657
0.329555
0.321255
0.311644
0.300609
0.288043
0.273849
0.257936
0.240219
0.220591
0.198874
0.174669
0.146966
0.112402
0.0590207
0.36239
0.364551
0.367066
0.369908
0.373042
0.37643
0.380024
0.383771
0.387614
0.391486
0.395314
0.399014
0.402502
0.405691
0.408504
0.410869
0.412723
0.414005
0.414656
0.414625
0.413932
0.412539
0.410348
0.40725
0.403118
0.397812
0.391184
0.383075
0.373323
0.361767
0.348249
0.332618
0.314736
0.294466
0.271658
0.246073
0.217223
0.183908
0.142264
0.0783845
0.382034
0.384982
0.388452
0.392424
0.396867
0.401743
0.407004
0.412599
0.418468
0.424537
0.430714
0.436887
0.442925
0.448697
0.454091
0.459012
0.463379
0.46711
0.470117
0.472319
0.47366
0.474206
0.473842
0.472438
0.469839
0.465867
0.460326
0.453009
0.443694
0.432157
0.418166
0.401497
0.381929
0.359245
0.33321
0.303491
0.269463
0.229693
0.1798
0.103886
0.395246
0.399026
0.403527
0.408738
0.414637
0.421191
0.428363
0.436115
0.444402
0.453166
0.462305
0.471662
0.481026
0.490177
0.498938
0.507194
0.514853
0.521802
0.527895
0.532989
0.536983
0.540038
0.542064
0.542924
0.542443
0.540408
0.53658
0.530698
0.52248
0.511624
0.497807
0.480694
0.45994
0.435197
0.406088
0.372125
0.332491
0.28547
0.226176
0.136808
0.402027
0.406598
0.412091
0.418522
0.425889
0.434182
0.443389
0.453505
0.464531
0.476458
0.489222
0.50263
0.516338
0.529945
0.543159
0.555839
0.567898
0.579154
0.589318
0.598114
0.605404
0.611318
0.616059
0.619498
0.621452
0.621698
0.61998
0.616009
0.609457
0.599943
0.587029
0.570225
0.548998
0.522785
0.490979
0.452843
0.407281
0.352244
0.282401
0.178339
0.404802
0.409893
0.41606
0.423358
0.431843
0.441574
0.452612
0.46501
0.478806
0.494011
0.510602
0.528514
0.547468
0.566881
0.58627
0.605365
0.623958
0.641616
0.657681
0.671585
0.6831
0.692285
0.699833
0.705693
0.709762
0.711923
0.712021
0.709841
0.705076
0.697287
0.685893
0.670182
0.649332
0.62244
0.588517
0.546421
0.494616
0.430591
0.348678
0.229005
0.404532
0.409519
0.415582
0.42282
0.431358
0.441346
0.452953
0.466371
0.481804
0.499453
0.519433
0.5417
0.566199
0.592891
0.621635
0.651787
0.68171
0.710024
0.736059
0.758761
0.777425
0.791978
0.80251
0.81008
0.814889
0.817251
0.817455
0.815652
0.811739
0.805282
0.795516
0.781399
0.761667
0.734884
0.699457
0.653588
0.595035
0.520401
0.422133
0.285643
0.403556
0.408254
0.413979
0.420829
0.428926
0.43842
0.449487
0.462336
0.477216
0.494413
0.514244
0.537046
0.563276
0.593593
0.628637
0.668811
0.713347
0.759653
0.806455
0.85131
0.888818
0.917956
0.937532
0.947358
0.950938
0.950256
0.946973
0.942211
0.936465
0.929457
0.920232
0.907304
0.888781
0.862469
0.825933
0.776488
0.710983
0.624588
0.501043
0.309773
0.403296
0.407728
0.413138
0.419621
0.427294
0.436301
0.446817
0.459048
0.473242
0.489693
0.508746
0.530813
0.55639
0.586061
0.620493
0.660449
0.706829
0.760577
0.822566
0.893208
0.967703
1.03789
1.09508
1.12585
1.13447
1.13054
1.12047
1.10835
1.09625
1.08455
1.07245
1.05821
1.03932
1.01264
0.974595
0.921144
0.847469
0.746242
0.594651
0.346181
0.403747
0.407949
0.413084
0.419243
0.426541
0.435116
0.44514
0.456818
0.470398
0.486177
0.504514
0.525834
0.550648
0.579556
0.613262
0.652592
0.698505
0.752111
0.814708
0.88784
0.973222
1.07115
1.17915
1.28087
1.34763
1.37126
1.36709
1.34939
1.327
1.30366
1.28089
1.25825
1.23341
1.20247
1.16025
1.10059
1.01591
0.895405
0.710737
0.399399
0.40478
0.408785
0.413683
0.419561
0.426532
0.43473
0.444321
0.455507
0.468535
0.483703
0.501371
0.521975
0.546039
0.574188
0.607167
0.645856
0.691292
0.744688
0.807451
0.881182
0.967656
1.06879
1.18701
1.32563
1.4798
1.61456
1.67948
1.69027
1.67075
1.63444
1.59199
1.54924
1.50726
1.46298
1.40976
1.33825
1.23664
1.08921
0.861381
0.474355
0.406347
0.410187
0.414884
0.420525
0.427216
0.435087
0.444301
0.455055
0.467591
0.482205
0.499257
0.51919
0.542537
0.569947
0.602199
0.640223
0.685128
0.738223
0.801056
0.87546
0.963607
1.06811
1.1922
1.33996
1.51656
1.72797
1.94337
2.08264
2.12366
2.10024
2.04506
1.97802
1.90921
1.84048
1.76579
1.67276
1.54392
1.35656
1.06717
0.57865
0.408424
0.412131
0.416666
0.422113
0.428574
0.436176
0.445075
0.455462
0.467574
0.481701
0.498201
0.517514
0.540182
0.566868
0.59838
0.635692
0.679974
0.732616
0.795284
0.869982
0.959125
1.06563
1.19304
1.3456
1.52837
1.74727
2.00867
2.30646
2.56577
2.67678
2.67525
2.60969
2.51618
2.41312
2.30132
2.16963
1.99542
1.7461
1.36423
0.72739
0.410967
0.414573
0.418986
0.424286
0.430571
0.437966
0.44662
0.456719
0.46849
0.482214
0.49824
0.517
0.539034
0.565011
0.595762
0.6323
0.675841
0.727826
0.789991
0.864435
0.953708
1.0609
1.18977
1.34478
1.53129
1.75559
2.02512
2.34869
2.73942
3.16667
3.45944
3.53125
3.46908
3.33624
3.16015
2.95226
2.69401
2.34128
1.81448
0.948146
0.413929
0.417466
0.421796
0.426997
0.433166
0.440423
0.448914
0.458818
0.470352
0.483781
0.499434
0.51772
0.539162
0.564433
0.594389
0.630072
0.67274
0.723863
0.785204
0.858908
0.947591
1.05451
1.18369
1.34007
1.5297
1.76013
2.04104
2.38516
2.80986
3.33864
3.99175
4.60883
4.90665
4.81611
4.52617
4.1759
3.77085
3.25165
2.50409
1.28458
0.417257
0.420757
0.425042
0.430191
0.436303
0.443497
0.451916
0.461733
0.473153
0.486418
0.501826
0.51975
0.540658
0.565188
0.594247
0.628893
0.670499
0.720574
0.780846
0.853445
0.940943
1.04679
1.17534
1.33206
1.52359
1.75833
2.04717
2.40441
2.84895
3.40593
4.10881
5.0026
6.07878
6.89405
6.75754
6.1209
5.38237
4.56374
3.49299
1.7761
0.420894
0.42438
0.428652
0.433791
0.439897
0.447092
0.455521
0.465352
0.476787
0.490066
0.505463
0.523279
0.543718
0.567103
0.594747
0.62791
0.668037
0.716566
0.775274
0.846478
0.93287
1.03748
1.16488
1.32128
1.5136
1.75079
2.04447
2.40991
2.86729
3.44368
4.17586
5.11379
6.32419
7.90575
9.40728
9.17162
7.82893
6.35469
4.76087
2.4214
0.424768
0.428257
0.432536
0.437687
0.443816
0.451047
0.459529
0.469447
0.48104
0.494576
0.510267
0.527349
0.545908
0.567797
0.59416
0.62593
0.664324
0.710857
0.76747
0.83662
0.92127
1.02498
1.15197
1.30811