/*--------------------------------*- C++ -*----------------------------------*\
  =========                 |
  \\      /  F ield         | OpenFOAM: The Open Source CFD Toolbox
   \\    /   O peration     | Website:  https://openfoam.org
    \\  /    A nd           | Version:  8
     \\/     M anipulation  |
\*---------------------------------------------------------------------------*/
FoamFile
{
    version     2.0;
    format      ascii;
    class       surfaceScalarField;
    location    "0.2";
    object      phi;
}
// * * * * * * * * * * * * * * * * * * * * * * * * * * * * * * * * * * * * * //

dimensions      [0 3 -1 0 0 0 0];

internalField   nonuniform List<scalar> 
18095
(
1.53341e-07
-9.65709e-07
8.12367e-07
1.63297e-07
-1.24735e-06
1.23739e-06
1.21468e-07
-1.24311e-06
1.28494e-06
6.51611e-08
-1.26351e-06
1.31982e-06
-2.92009e-14
-1.28032e-06
1.34548e-06
-6.51611e-08
-1.28032e-06
1.34548e-06
-1.21468e-07
-1.26351e-06
1.31982e-06
-1.63297e-07
-1.24311e-06
1.28494e-06
-1.53341e-07
-1.24735e-06
1.23739e-06
-9.65709e-07
8.12367e-07
1.10494e-07
-1.0762e-06
9.93632e-08
-1.23621e-06
7.27611e-08
-1.21651e-06
4.0005e-08
-1.23076e-06
-2.38058e-14
-1.24032e-06
-4.0005e-08
-1.24032e-06
-7.27611e-08
-1.23076e-06
-9.93632e-08
-1.21651e-06
-1.10494e-07
-1.23621e-06
-1.0762e-06
6.70235e-08
-1.14323e-06
5.28917e-08
-1.22208e-06
4.19725e-08
-1.20559e-06
2.38123e-08
-1.2126e-06
-1.67188e-14
-1.21651e-06
-2.38123e-08
-1.21651e-06
-4.19725e-08
-1.2126e-06
-5.28918e-08
-1.20559e-06
-6.70235e-08
-1.22208e-06
-1.14323e-06
4.01846e-08
-1.18341e-06
2.69858e-08
-1.20888e-06
2.20496e-08
-1.20065e-06
1.25154e-08
-1.20306e-06
-3.41533e-15
-1.20399e-06
-1.25154e-08
-1.20399e-06
-2.20496e-08
-1.20306e-06
-2.69858e-08
-1.20065e-06
-4.01846e-08
-1.20888e-06
-1.18341e-06
1.65894e-08
7.70518e-09
7.05396e-09
3.99113e-09
2.54499e-15
-3.99113e-09
-7.05395e-09
-7.70517e-09
-1.65894e-08
-1.62645e-07
-1.16862e-06
1.33127e-06
-2.04079e-07
-1.21204e-06
1.25347e-06
-1.59132e-07
-1.21165e-06
1.1667e-06
-8.58244e-08
-1.20449e-06
1.13118e-06
-1.70574e-14
-1.20321e-06
1.11738e-06
8.58243e-08
-1.20321e-06
1.11738e-06
1.59132e-07
-1.20449e-06
1.13118e-06
2.04079e-07
-1.21165e-06
1.1667e-06
1.62645e-07
-1.21204e-06
1.25347e-06
-1.16862e-06
1.33127e-06
-9.67911e-08
-1.07183e-06
-9.6974e-08
-1.21185e-06
-7.88919e-08
-1.22973e-06
-4.40907e-08
-1.23929e-06
-3.42564e-14
-1.2473e-06
4.40906e-08
-1.2473e-06
7.88919e-08
-1.23929e-06
9.6974e-08
-1.22973e-06
9.6791e-08
-1.21185e-06
-1.07183e-06
-5.8921e-08
-1.01291e-06
-5.62403e-08
-1.21453e-06
-4.67042e-08
-1.23926e-06
-2.70517e-08
-1.25894e-06
-4.18504e-14
-1.27435e-06
2.70516e-08
-1.27435e-06
4.67041e-08
-1.25894e-06
5.62402e-08
-1.23926e-06
5.89209e-08
-1.21453e-06
-1.01291e-06
-7.38927e-08
-9.39018e-07
-6.06899e-08
-1.22774e-06
-4.79167e-08
-1.25204e-06
-2.74709e-08
-1.27939e-06
-3.39608e-14
-1.30182e-06
2.74708e-08
-1.30182e-06
4.79166e-08
-1.27939e-06
6.06898e-08
-1.25204e-06
7.38926e-08
-1.22774e-06
-9.39018e-07
-1.26651e-07
-1.16999e-07
-8.40976e-08
-4.36646e-08
-3.43077e-14
4.36645e-08
8.40975e-08
1.16998e-07
1.26651e-07
-7.13612e-08
-9.51516e-07
1.02288e-06
-1.03306e-08
-1.33569e-06
1.27466e-06
6.02386e-09
-1.268e-06
1.25165e-06
1.3759e-09
-1.22373e-06
1.22838e-06
5.15077e-13
-1.22106e-06
1.22243e-06
-1.37492e-09
-1.22106e-06
1.22243e-06
-6.02281e-09
-1.22373e-06
1.22838e-06
1.03311e-08
-1.268e-06
1.25165e-06
7.13605e-08
-1.33569e-06
1.27466e-06
-9.51516e-07
1.02288e-06
6.9712e-09
-9.58488e-07
1.60673e-08
-1.34478e-06
1.19371e-08
-1.26387e-06
5.81972e-09
-1.21762e-06
3.34099e-13
-1.21524e-06
-5.81907e-09
-1.21524e-06
-1.19365e-08
-1.21762e-06
-1.6067e-08
-1.26387e-06
-6.97142e-09
-1.34478e-06
-9.58488e-07
3.0042e-08
-9.8853e-07
2.22648e-08
-1.33701e-06
1.34732e-08
-1.25508e-06
4.69659e-09
-1.20884e-06
2.04068e-13
-1.21054e-06
-4.69618e-09
-1.21054e-06
-1.34728e-08
-1.20884e-06
-2.22645e-08
-1.25508e-06
-3.00419e-08
-1.33701e-06
-9.8853e-07
7.2285e-08
-1.06081e-06
4.14414e-08
-1.30616e-06
2.97223e-08
-1.24336e-06
2.05095e-08
-1.19963e-06
1.11632e-13
-1.19003e-06
-2.05094e-08
-1.19003e-06
-2.97221e-08
-1.19963e-06
-4.14412e-08
-1.24336e-06
-7.22849e-08
-1.30616e-06
-1.06081e-06
2.70453e-07
2.1776e-07
1.41097e-07
7.26508e-08
3.2013e-14
-7.26507e-08
-1.41097e-07
-2.1776e-07
-2.70452e-07
-1.16397e-08
-2.64634e-09
1.4286e-08
-8.94666e-09
-2.69328e-09
-6.21944e-09
-2.72728e-09
-3.47067e-09
-2.74879e-09
-7.12493e-10
-2.75814e-09
2.04325e-09
-2.75572e-09
4.78485e-09
-2.7415e-09
7.50041e-09
-2.71547e-09
1.01784e-08
-2.67794e-09
-2.62901e-09
1.28075e-08
-1.19139e-08
-5.40046e-09
1.46679e-08
-9.11579e-09
-5.49147e-09
-6.28527e-09
-5.55779e-09
-3.43339e-09
-5.60064e-09
-5.7185e-10
-5.61968e-09
2.28813e-09
-5.61563e-09
5.13549e-09
-5.58875e-09
7.95936e-09
-5.53922e-09
1.0749e-08
-5.46744e-09
-5.37383e-09
1.34938e-08
-1.19017e-08
-8.174e-09
1.46752e-08
-9.08599e-09
-8.30715e-09
-6.23865e-09
-8.40512e-09
-3.37046e-09
-8.46884e-09
-4.91622e-10
-8.49847e-09
2.38742e-09
-8.49458e-09
5.25613e-09
-8.45741e-09
8.10415e-09
-8.38722e-09
1.09212e-08
-8.28449e-09
-8.14918e-09
1.36965e-08
-1.20173e-08
-1.09903e-08
1.48336e-08
-9.15904e-09
-1.11652e-08
-6.26886e-09
-1.12952e-08
-3.35739e-09
-1.13803e-08
-4.34418e-10
-1.14214e-08
2.48967e-09
-1.14186e-08
5.40448e-09
-1.13722e-08
8.29977e-09
-1.12824e-08
1.11652e-08
-1.11499e-08
-1.09741e-08
1.399e-08
-1.23116e-08
-1.38908e-08
1.5212e-08
-9.36894e-09
-1.41078e-08
-6.39383e-09
-1.42704e-08
-3.39661e-09
-1.43775e-08
-3.87351e-10
-1.44306e-08
2.62344e-09
-1.44294e-08
5.62533e-09
-1.4374e-08
8.60785e-09
-1.4265e-08
1.15607e-08
-1.41028e-08
-1.38865e-08
1.4473e-08
-1.28032e-08
-1.69224e-08
1.58349e-08
-9.72836e-09
-1.71827e-08
-6.62068e-09
-1.7378e-08
-3.49009e-09
-1.75081e-08
-3.47208e-10
-1.75735e-08
2.79726e-09
-1.75739e-08
5.93267e-09
-1.75094e-08
9.04822e-09
-1.73805e-08
1.21334e-08
-1.7188e-08
-1.69307e-08
1.51776e-08
-1.35092e-08
-2.01363e-08
1.67232e-08
-1.02507e-08
-2.04412e-08
-6.95875e-09
-2.067e-08
-3.64323e-09
-2.08235e-08
-3.15385e-10
-2.09014e-08
3.01383e-09
-2.09031e-08
6.33333e-09
-2.08289e-08
9.63207e-09
-2.06793e-08
1.28991e-08
-2.04551e-08
-2.01554e-08
1.61239e-08
-1.4446e-08
-2.35867e-08
1.78963e-08
-1.09494e-08
-2.39378e-08
-7.41806e-09
-2.42012e-08
-3.86256e-09
-2.4379e-08
-2.94628e-10
-2.44693e-08
3.27435e-09
-2.4472e-08
6.83274e-09
-2.43873e-08
1.03691e-08
-2.42157e-08
1.38721e-08
-2.3958e-08
-2.3614e-08
1.73306e-08
-1.56313e-08
-2.73311e-08
1.93757e-08
-1.18382e-08
-2.77307e-08
-8.00835e-09
-2.8031e-08
-4.15338e-09
-2.8234e-08
-2.85513e-10
-2.83371e-08
3.58302e-09
-2.83406e-08
7.44006e-09
-2.82444e-08
1.12734e-08
-2.8049e-08
1.5071e-08
-2.77557e-08
-2.73643e-08
1.88214e-08
-1.70831e-08
-3.14321e-08
2.11841e-08
-1.29302e-08
-3.18835e-08
-8.73764e-09
-3.22235e-08
-4.51852e-09
-3.24531e-08
-2.85737e-10
-3.25699e-08
3.94748e-09
-3.25738e-08
8.16811e-09
-3.2465e-08
1.2363e-08
-3.22439e-08
1.65193e-08
-3.19121e-08
-3.14695e-08
2.06246e-08
-1.88211e-08
-3.59578e-08
2.33468e-08
-1.42391e-08
-3.64655e-08
-9.61401e-09
-3.68485e-08
-4.96028e-09
-3.71067e-08
-2.91923e-10
-3.72382e-08
4.37682e-09
-3.72425e-08
9.03161e-09
-3.71198e-08
1.36583e-08
-3.68706e-08
1.8243e-08
-3.64967e-08
-3.59984e-08
2.27719e-08
-2.08689e-08
-4.09832e-08
2.58943e-08
-1.57817e-08
-4.15526e-08
-1.06477e-08
-4.19826e-08
-5.48251e-09
-4.22719e-08
-3.01383e-10
-4.24193e-08
4.88011e-09
-4.2424e-08
1.00462e-08
-4.22859e-08
1.51816e-08
-4.20059e-08
2.0271e-08
-4.15861e-08
-4.10267e-08
2.52993e-08
-2.32569e-08
-4.65915e-08
2.88652e-08
-1.75807e-08
-4.72287e-08
-1.18532e-08
-4.771e-08
-6.09129e-09
-4.80337e-08
-3.11926e-10
-4.81986e-08
5.46772e-09
-4.82036e-08
1.12306e-08
-4.80488e-08
1.69596e-08
-4.7735e-08
2.2638e-08
-4.72646e-08
-4.66381e-08
2.82493e-08
-2.60225e-08
-5.28753e-08
3.23063e-08
-1.96637e-08
-5.35876e-08
-1.32483e-08
-5.41253e-08
-6.79488e-09
-5.44872e-08
-3.22109e-10
-5.46713e-08
6.15091e-09
-5.46767e-08
1.26054e-08
-5.45032e-08
1.90225e-08
-5.41521e-08
2.53838e-08
-5.36259e-08
-5.29254e-08
3.1671e-08
-2.92081e-08
-5.99381e-08
3.62708e-08
-2.20621e-08
-6.07333e-08
-1.4854e-08
-6.13334e-08
-7.6036e-09
-6.17376e-08
-3.31979e-10
-6.19431e-08
6.93997e-09
-6.19488e-08
1.41913e-08
-6.17547e-08
2.14013e-08
-6.13622e-08
2.85495e-08
-6.07741e-08
-5.99916e-08
3.56158e-08
-3.28578e-08
-6.78948e-08
4.08145e-08
-2.48097e-08
-6.87813e-08
-1.66929e-08
-6.94502e-08
-8.52958e-09
-6.99009e-08
-3.42854e-10
-7.01299e-08
7.84437e-09
-7.0136e-08
1.60089e-08
-6.99193e-08
2.41277e-08
-6.9481e-08
3.21782e-08
-6.88247e-08
-6.79516e-08
4.01381e-08
-3.70202e-08
-7.6872e-08
4.59975e-08
-2.79428e-08
-7.78589e-08
-1.87894e-08
-7.86037e-08
-9.58499e-09
-7.91054e-08
-3.54645e-10
-7.93603e-08
8.87622e-09
-7.93669e-08
1.80821e-08
-7.91251e-08
2.72377e-08
-7.86365e-08
3.63179e-08
-7.79049e-08
-7.69316e-08
4.52979e-08
-4.17504e-08
-8.70091e-08
5.18875e-08
-3.15026e-08
-8.81065e-08
-2.11712e-08
-8.89351e-08
-1.07834e-08
-8.94933e-08
-3.67059e-10
-8.97767e-08
1.00497e-08
-8.97837e-08
2.04387e-08
-8.95142e-08
3.07721e-08
-8.89699e-08
4.10222e-08
-8.81551e-08
-8.70712e-08
5.11617e-08
-4.71085e-08
-9.84603e-08
5.85597e-08
-3.55351e-08
-9.968e-08
-2.38691e-08
-1.00601e-07
-1.21411e-08
-1.01221e-07
-3.8165e-10
-1.01536e-07
1.1378e-08
-1.01543e-07
2.31069e-08
-1.01243e-07
3.47741e-08
-1.00637e-07
4.63495e-08
-9.97304e-08
-9.85243e-08
5.78026e-08
-5.31632e-08
-1.11397e-07
6.61e-08
-4.00911e-08
-1.12752e-07
-2.69174e-08
-1.13775e-07
-1.36753e-08
-1.14463e-07
-3.98881e-10
-1.14812e-07
1.28777e-08
-1.1482e-07
2.61203e-08
-1.14486e-07
3.92948e-08
-1.13812e-07
5.2368e-08
-1.12804e-07
-1.11463e-07
6.53064e-08
-5.99971e-08
-1.26012e-07
7.46118e-08
-4.52332e-08
-1.27516e-07
-3.03576e-08
-1.2865e-07
-1.54066e-08
-1.29414e-07
-4.18014e-10
-1.29801e-07
1.45706e-08
-1.29808e-07
2.95215e-08
-1.29437e-07
4.43975e-08
-1.28688e-07
5.91615e-08
-1.27568e-07
-1.26078e-07
7.3777e-08
-6.77109e-08
-1.42521e-07
8.42203e-08
-5.10375e-08
-1.44189e-07
-3.42408e-08
-1.45447e-07
-1.73614e-08
-1.46294e-07
-4.40478e-10
-1.46722e-07
1.64805e-08
-1.46729e-07
3.33599e-08
-1.46316e-07
5.01567e-08
-1.45484e-07
6.68304e-08
-1.44241e-07
-1.42588e-07
8.33404e-08
-7.64192e-08
-1.61172e-07
9.50697e-08
-5.75893e-08
-1.63019e-07
-3.86237e-08
-1.64412e-07
-1.95675e-08
-1.6535e-07
-4.65456e-10
-1.65824e-07
1.86368e-08
-1.65832e-07
3.76938e-08
-1.65373e-07
5.66601e-08
-1.64451e-07
7.54912e-08
-1.63072e-07
-1.6124e-07
9.41426e-08
-8.62413e-08
-1.82241e-07
1.0731e-07
-6.49763e-08
-1.84284e-07
-4.35632e-08
-1.85826e-07
-2.2051e-08
-1.86862e-07
-4.88836e-10
-1.87386e-07
2.10734e-08
-1.87394e-07
4.2586e-08
-1.86886e-07
6.39996e-08
-1.85864e-07
8.52656e-08
-1.84338e-07
-1.8231e-07
1.06336e-07
-9.72842e-08
-2.06035e-07
1.21079e-07
-7.32771e-08
-2.08291e-07
-4.91111e-08
-2.09992e-07
-2.48381e-08
-2.11135e-07
-5.11583e-10
-2.11713e-07
2.38149e-08
-2.1172e-07
4.80879e-08
-2.11158e-07
7.22541e-08
-2.10031e-07
9.62615e-08
-2.08346e-07
-2.06106e-07
1.20058e-07
-1.09617e-07
-2.32885e-07
1.36466e-07
-8.25435e-08
-2.35365e-07
-5.53015e-08
-2.37234e-07
-2.79465e-08
-2.3849e-07
-5.34774e-10
-2.39125e-07
2.68773e-08
-2.39133e-07
5.42331e-08
-2.38514e-07
8.14763e-08
-2.37274e-07
1.08551e-07
-2.35421e-07
-2.32957e-07
1.35402e-07
-1.23238e-07
-2.6312e-07
1.53473e-07
-9.2771e-08
-2.65832e-07
-6.21297e-08
-2.67875e-07
-3.1372e-08
-2.69248e-07
-5.55497e-10
-2.69941e-07
3.02611e-08
-2.69949e-07
6.10193e-08
-2.69272e-07
9.16612e-08
-2.67916e-07
1.22129e-07
-2.65889e-07
-2.63193e-07
1.52366e-07
-1.38022e-07
-2.9705e-07
1.71953e-07
-1.03862e-07
-2.99993e-07
-6.95284e-08
-3.02208e-07
-3.50802e-08
-3.03696e-07
-5.74308e-10
-3.04447e-07
3.39314e-08
-3.04455e-07
6.83795e-08
-3.03721e-07
1.02713e-07
-3.02249e-07
1.36874e-07
-3.0005e-07
-2.97124e-07
1.70805e-07
-1.53699e-07
-3.34924e-07
1.91573e-07
-1.15608e-07
-3.38084e-07
-7.73573e-08
-3.40459e-07
-3.89994e-08
-3.42054e-07
-5.87799e-10
-3.42858e-07
3.78239e-08
-3.42867e-07
7.61821e-08
-3.42079e-07
1.14433e-07
-3.405e-07
1.52523e-07
-3.3814e-07
-3.34998e-07
1.90397e-07
-1.69805e-07
-3.76884e-07
2.11765e-07
-1.27661e-07
-3.80228e-07
-8.53793e-08
-3.8274e-07
-4.3008e-08
-3.84425e-07
-5.92617e-10
-3.85274e-07
4.18219e-08
-3.85281e-07
8.41904e-08
-3.84447e-07
1.26468e-07
-3.82777e-07
1.68609e-07
-3.80282e-07
-3.76955e-07
2.10566e-07
-1.85627e-07
-4.22902e-07
2.31645e-07
-1.39478e-07
-4.26378e-07
-9.3235e-08
-4.28983e-07
-4.69299e-08
-4.3073e-07
-5.93861e-10
-4.3161e-07
4.57417e-08
-4.31617e-07
9.20454e-08
-4.30751e-07
1.38286e-07
-4.29018e-07
1.8443e-07
-4.26426e-07
-4.22968e-07
2.30443e-07
-2.00122e-07
-4.72705e-07
2.49924e-07
-1.5027e-07
-4.76229e-07
-1.00387e-07
-4.78866e-07
-5.04835e-08
-4.80634e-07
-5.72888e-10
-4.8152e-07
4.93355e-08
-4.81525e-07
9.92318e-08
-4.80647e-07
1.49105e-07
-4.78891e-07
1.98944e-07
-4.76265e-07
-4.72761e-07
2.48737e-07
-2.11785e-07
-5.25645e-07
2.64725e-07
-1.58911e-07
-5.29103e-07
-1.06091e-07
-5.31686e-07
-5.33052e-08
-5.33419e-07
-5.39981e-10
-5.34285e-07
5.22229e-08
-5.34288e-07
1.05e-07
-5.33425e-07
1.57809e-07
-5.317e-07
2.10665e-07
-5.29121e-07
-5.25687e-07
2.63591e-07
-2.18493e-07
-5.80545e-07
2.73393e-07
-1.63808e-07
-5.83788e-07
-1.0928e-07
-5.86215e-07
-5.48552e-08
-5.87844e-07
-4.85395e-10
-5.88655e-07
5.38811e-08
-5.88654e-07
1.08296e-07
-5.87839e-07
1.6281e-07
-5.86214e-07
2.17475e-07
-5.83786e-07
-5.80569e-07
2.72358e-07
-2.17339e-07
-6.35494e-07
2.72288e-07
-1.62789e-07
-6.38338e-07
-1.0851e-07
-6.40493e-07
-5.44193e-08
-6.41935e-07
-4.18969e-10
-6.42656e-07
5.35798e-08
-6.42653e-07
1.07671e-07
-6.4193e-07
1.61944e-07
-6.40487e-07
2.16491e-07
-6.38333e-07
-6.35495e-07
2.71417e-07
-2.04134e-07
-6.87481e-07
2.5612e-07
-1.52732e-07
-6.8974e-07
-1.01688e-07
-6.91537e-07
-5.09316e-08
-6.92691e-07
-3.08327e-10
-6.93279e-07
5.03118e-08
-6.93273e-07
1.0107e-07
-6.92688e-07
1.52097e-07
-6.91515e-07
2.03518e-07
-6.89754e-07
-6.87433e-07
2.55455e-07
-1.72946e-07
-7.31664e-07
2.17129e-07
-1.29239e-07
-7.33448e-07
-8.59605e-08
-7.34816e-07
-4.29736e-08
-7.35678e-07
-1.53631e-10
-7.36099e-07
4.26441e-08
-7.36071e-07
8.55842e-08
-7.35629e-07
1.28821e-07
-7.34752e-07
1.72447e-07
-7.3338e-07
-7.316e-07
2.16614e-07
-1.20718e-07
-7.63025e-07
1.5208e-07
-8.99474e-08
-7.64219e-07
-5.97814e-08
-7.64982e-07
-2.99751e-08
-7.65484e-07
-3.50112e-10
-7.65724e-07
2.93073e-08
-7.65728e-07
5.91735e-08
-7.65495e-07
8.94324e-08
-7.65011e-07
1.20271e-07
-7.64219e-07
-7.63058e-07
1.5173e-07
-6.3362e-08
-7.79402e-07
7.97395e-08
-4.73369e-08
-7.80244e-07
-3.14691e-08
-7.8085e-07
-1.5704e-08
-7.8125e-07
2.30105e-11
-7.81451e-07
1.57476e-08
-7.81453e-07
3.15077e-08
-7.81255e-07
4.73531e-08
-7.80856e-07
6.33861e-08
-7.80252e-07
-7.79412e-07
7.97399e-08
-5.90797e-08
-7.94329e-07
7.40064e-08
-4.42304e-08
-7.95093e-07
-2.94423e-08
-7.95638e-07
-1.46939e-08
-7.95998e-07
3.25431e-11
-7.96177e-07
1.47571e-08
-7.96177e-07
2.95013e-08
-7.95999e-07
4.42848e-08
-7.9564e-07
5.91312e-08
-7.95098e-07
-7.94335e-07
7.40543e-08
-5.60027e-08
-8.08235e-07
6.99085e-08
-4.20454e-08
-8.09051e-07
-2.80406e-08
-8.09643e-07
-1.40099e-08
-8.10029e-07
3.2839e-11
-8.1022e-07
1.40758e-08
-8.1022e-07
2.81071e-08
-8.10031e-07
4.2113e-08
-8.09646e-07
5.60717e-08
-8.09057e-07
-8.08243e-07
6.998e-08
-5.36163e-08
-8.21566e-07
6.69478e-08
-4.0244e-08
-8.22423e-07
-2.68374e-08
-8.23049e-07
-1.34057e-08
-8.2346e-07
3.85103e-11
-8.23664e-07
1.34832e-08
-8.23665e-07
2.69158e-08
-8.23463e-07
4.03243e-08
-8.23054e-07
5.36982e-08
-8.22431e-07
-8.21577e-07
6.70324e-08
-5.15474e-08
-8.3438e-07
6.43604e-08
-3.86881e-08
-8.35282e-07
-2.57964e-08
-8.35941e-07
-1.28815e-08
-8.36375e-07
4.52956e-11
-8.36591e-07
1.29724e-08
-8.36592e-07
2.5888e-08
-8.36379e-07
3.87809e-08
-8.35947e-07
5.16415e-08
-8.35291e-07
-8.34393e-07
6.44566e-08
-4.98175e-08
-8.46754e-07
6.21921e-08
-3.73929e-08
-8.47707e-07
-2.4931e-08
-8.48403e-07
-1.24448e-08
-8.48861e-07
5.39387e-11
-8.4909e-07
1.25529e-08
-8.49091e-07
2.50398e-08
-8.48866e-07
3.75024e-08
-8.4841e-07
4.99284e-08
-8.47717e-07
-8.46768e-07
6.23038e-08
-4.84099e-08
-8.58773e-07
6.04288e-08
-3.6338e-08
-8.59779e-07
-2.42267e-08
-8.60514e-07
-1.20897e-08
-8.60998e-07
6.03008e-11
-8.6124e-07
1.22105e-08
-8.61241e-07
2.4348e-08
-8.61003e-07
3.64601e-08
-8.60522e-07
4.85331e-08
-8.5979e-07
-8.58788e-07
6.0553e-08
-4.72348e-08
-8.70485e-07
5.89468e-08
-3.54616e-08
-8.71552e-07
-2.36435e-08
-8.72332e-07
-1.1796e-08
-8.72846e-07
6.61266e-11
-8.73102e-07
1.19283e-08
-8.73103e-07
2.37761e-08
-8.72851e-07
3.55947e-08
-8.7234e-07
4.73684e-08
-8.71564e-07
-8.705e-07
5.9081e-08
-4.6288e-08
-8.81935e-07
5.7738e-08
-3.47622e-08
-8.83078e-07
-2.31811e-08
-8.83913e-07
-1.15639e-08
-8.84463e-07
7.11113e-11
-8.84737e-07
1.17062e-08
-8.84738e-07
2.33234e-08
-8.84468e-07
3.49047e-08
-8.83922e-07
4.64306e-08
-8.8309e-07
-8.81951e-07
5.78808e-08
-4.56612e-08
-8.93201e-07
5.69272e-08
-3.43041e-08
-8.94435e-07
-2.28806e-08
-8.95337e-07
-1.14136e-08
-8.9593e-07
7.50238e-11
-8.96225e-07
1.15636e-08
-8.96227e-07
2.30306e-08
-8.95935e-07
3.4454e-08
-8.95345e-07
4.58108e-08
-8.94447e-07
-8.93217e-07
5.70766e-08
-4.55119e-08
-9.04415e-07
5.67261e-08
-3.41992e-08
-9.05748e-07
-2.28136e-08
-9.06722e-07
-1.13799e-08
-9.07364e-07
7.76421e-11
-9.07683e-07
1.15352e-08
-9.07685e-07
2.29687e-08
-9.07369e-07
3.4354e-08
-9.0673e-07
4.56662e-08
-9.05759e-07
-9.0443e-07
5.68798e-08
-4.5998e-08
-9.15758e-07
5.73408e-08
-3.45614e-08
-9.17184e-07
-2.30541e-08
-9.1823e-07
-1.14993e-08
-9.18919e-07
7.90525e-11
-9.19261e-07
1.16574e-08
-9.19263e-07
2.32117e-08
-9.18923e-07
3.47185e-08
-9.18237e-07
4.61543e-08
-9.17195e-07
-9.15772e-07
5.74961e-08
-4.72156e-08
-9.27433e-07
5.88908e-08
-3.54629e-08
-9.28937e-07
-2.36499e-08
-9.30043e-07
-1.17958e-08
-9.30773e-07
7.91412e-11
-9.31136e-07
1.19539e-08
-9.31138e-07
2.38075e-08
-9.30777e-07
3.56197e-08
-9.30049e-07
4.73712e-08
-9.28946e-07
-9.27445e-07
5.90448e-08
-4.91566e-08
-9.39633e-07
6.13559e-08
-3.69014e-08
-9.41192e-07
-2.46013e-08
-9.42343e-07
-1.22697e-08
-9.43104e-07
7.79257e-11
-9.43484e-07
1.24254e-08
-9.43485e-07
2.47563e-08
-9.43108e-07
3.70554e-08
-9.42348e-07
4.93091e-08
-9.412e-07
-9.39643e-07
6.15064e-08
-5.16982e-08
-9.52503e-07
6.45681e-08
-3.87918e-08
-9.54098e-07
-2.58545e-08
-9.5528e-07
-1.28952e-08
-9.56064e-07
7.55208e-11
-9.56455e-07
1.3046e-08
-9.56455e-07
2.60046e-08
-9.56066e-07
3.89406e-08
-9.55284e-07
5.18454e-08
-9.54105e-07
-9.5251e-07
6.47129e-08
-5.46326e-08
-9.6612e-07
6.82501e-08
-4.09855e-08
-9.67745e-07
-2.73141e-08
-9.68951e-07
-1.36255e-08
-9.69752e-07
7.20805e-11
-9.70152e-07
1.37694e-08
-9.70153e-07
2.74573e-08
-9.69754e-07
4.11274e-08
-9.68955e-07
5.47726e-08
-9.6775e-07
-9.66125e-07
6.83876e-08
-5.77409e-08
-9.80503e-07
7.21239e-08
-4.33215e-08
-9.82165e-07
-2.88741e-08
-9.83399e-07
-1.44078e-08
-9.84219e-07
6.7771e-11
-9.84628e-07
1.45431e-08
-9.84628e-07
2.90086e-08
-9.8422e-07
4.34547e-08
-9.83401e-07
5.78722e-08
-9.82167e-07
-9.80506e-07
7.22527e-08
-6.08349e-08
-9.95626e-07
7.59575e-08
-4.5657e-08
-9.97343e-07
-3.04388e-08
-9.98617e-07
-1.51944e-08
-9.99463e-07
6.27856e-11
-9.99885e-07
1.53197e-08
-9.99885e-07
3.05634e-08
-9.99463e-07
4.57803e-08
-9.98618e-07
6.09563e-08
-9.97343e-07
-9.95626e-07
7.60765e-08
-6.37865e-08
-1.01144e-06
7.96023e-08
-4.78912e-08
-1.01324e-06
-3.19389e-08
-1.01457e-06
-1.59498e-08
-1.01545e-06
5.70976e-11
-1.01589e-06
1.60638e-08
-1.01589e-06
3.20521e-08
-1.01545e-06
4.80032e-08
-1.01457e-06
6.38968e-08
-1.01324e-06
-1.01144e-06
7.97103e-08
-6.65258e-08
-1.0279e-06
8.29886e-08
-4.99644e-08
-1.0298e-06
-3.33314e-08
-1.0312e-06
-1.66517e-08
-1.03213e-06
5.08977e-11
-1.03259e-06
1.67533e-08
-1.03259e-06
3.34324e-08
-1.03213e-06
5.00644e-08
-1.0312e-06
6.66243e-08
-1.0298e-06
-1.0279e-06
8.30852e-08
-6.89673e-08
-1.04493e-06
8.59907e-08
-5.18176e-08
-1.04695e-06
-3.45784e-08
-1.04844e-06
-1.72812e-08
-1.04943e-06
4.45458e-11
-1.04992e-06
1.73701e-08
-1.04992e-06
3.46668e-08
-1.04943e-06
5.19051e-08
-1.04844e-06
6.90535e-08
-1.04695e-06
-1.04492e-06
8.60754e-08
-7.12024e-08
-1.0625e-06
8.8776e-08
-5.34973e-08
-1.06465e-06
-3.57015e-08
-1.06624e-06
-1.78465e-08
-1.06728e-06
3.79233e-11
-1.0678e-06
1.79222e-08
-1.0678e-06
3.57768e-08
-1.06728e-06
5.35719e-08
-1.06623e-06
7.12761e-08
-1.06465e-06
-1.06249e-06
8.88483e-08
-7.30667e-08
-1.08054e-06
9.1102e-08
-5.49021e-08
-1.08282e-06
-3.66433e-08
-1.0845e-06
-1.83216e-08
-1.08561e-06
3.15421e-11
-1.08616e-06
1.83847e-08
-1.08616e-06
3.67061e-08
-1.0856e-06
5.49644e-08
-1.08449e-06
7.31284e-08
-1.08281e-06
-1.08053e-06
9.11629e-08
-7.4632e-08
-1.09895e-06
9.30452e-08
-5.60818e-08
-1.10137e-06
-3.74329e-08
-1.10314e-06
-1.87198e-08
-1.10432e-06
2.53207e-11
-1.1049e-06
1.87704e-08
-1.1049e-06
3.74833e-08
-1.10432e-06
5.6132e-08
-1.10314e-06
7.4682e-08
-1.10136e-06
-1.09894e-06
9.30949e-08
-7.60301e-08
-1.11771e-06
9.47953e-08
-5.71174e-08
-1.12028e-06
-3.81153e-08
-1.12215e-06
-1.90606e-08
-1.12337e-06
1.9558e-11
-1.12398e-06
1.90997e-08
-1.12398e-06
3.81544e-08
-1.12337e-06
5.71564e-08
-1.12214e-06
7.60691e-08
-1.12028e-06
-1.11771e-06
9.48344e-08
-7.69752e-08
-1.13676e-06
9.60209e-08
-5.78007e-08
-1.13946e-06
-3.85613e-08
-1.14139e-06
-1.9283e-08
-1.14265e-06
1.45448e-11
-1.14328e-06
1.93121e-08
-1.14328e-06
3.85905e-08
-1.14265e-06
5.78303e-08
-1.14138e-06
7.7005e-08
-1.13945e-06
-1.13675e-06
9.60511e-08
-7.74106e-08
-1.15604e-06
9.66946e-08
-5.80985e-08
-1.15877e-06
-3.87519e-08
-1.16073e-06
-1.9378e-08
-1.16203e-06
1.05703e-11
-1.16267e-06
1.93992e-08
-1.16267e-06
3.87733e-08
-1.16202e-06
5.81205e-08
-1.16073e-06
7.74332e-08
-1.15876e-06
-1.15604e-06
9.67181e-08
-7.7541e-08
-1.17542e-06
9.69118e-08
-5.81884e-08
-1.17812e-06
-3.88083e-08
-1.18011e-06
-1.94059e-08
-1.18143e-06
7.69359e-12
-1.18208e-06
1.94214e-08
-1.18208e-06
3.88241e-08
-1.18143e-06
5.82046e-08
-1.18011e-06
7.7558e-08
-1.17812e-06
-1.17541e-06
9.693e-08
-7.73048e-08
-1.19457e-06
9.64619e-08
-5.80313e-08
-1.19739e-06
-3.87027e-08
-1.19944e-06
-1.93524e-08
-1.20078e-06
5.76539e-12
-1.20144e-06
1.9364e-08
-1.20144e-06
3.87146e-08
-1.20078e-06
5.80436e-08
-1.19944e-06
7.7318e-08
-1.19739e-06
-1.19457e-06
9.64764e-08
-7.64729e-08
-1.21351e-06
9.54143e-08
-5.73845e-08
-1.21648e-06
-3.82571e-08
-1.21857e-06
-1.91254e-08
-1.21991e-06
4.84795e-12
-1.22057e-06
1.91352e-08
-1.22057e-06
3.82671e-08
-1.21991e-06
5.73952e-08
-1.21857e-06
7.64844e-08
-1.21648e-06
-1.21351e-06
9.54269e-08
-7.4952e-08
-1.23242e-06
9.38611e-08
-5.61555e-08
-1.23528e-06
-3.741e-08
-1.23731e-06
-1.86952e-08
-1.23863e-06
4.51542e-12
-1.23927e-06
1.87043e-08
-1.23927e-06
3.74194e-08
-1.23862e-06
5.61654e-08
-1.23731e-06
7.49626e-08
-1.23528e-06
-1.23242e-06
9.38728e-08
-7.27993e-08
-1.251e-06
9.13769e-08
-5.44715e-08
-1.25361e-06
-3.62639e-08
-1.25552e-06
-1.81165e-08
-1.25677e-06
4.56075e-12
-1.25739e-06
1.81257e-08
-1.25739e-06
3.62733e-08
-1.25677e-06
5.44812e-08
-1.25552e-06
7.28095e-08
-1.25361e-06
-1.251e-06
9.13877e-08
-7.00045e-08
-1.26884e-06
8.78482e-08
-5.23845e-08
-1.27123e-06
-3.48753e-08
-1.27303e-06
-1.74227e-08
-1.27422e-06
4.74444e-12
-1.27482e-06
1.74323e-08
-1.27482e-06
3.4885e-08
-1.27422e-06
5.23944e-08
-1.27303e-06
7.00146e-08
-1.27123e-06
-1.26884e-06
8.78587e-08
-6.66251e-08
-1.28567e-06
8.34463e-08
-4.9912e-08
-1.28794e-06
-3.32468e-08
-1.2897e-06
-1.66127e-08
-1.29086e-06
4.98748e-12
-1.29144e-06
1.66228e-08
-1.29144e-06
3.32569e-08
-1.29086e-06
4.99222e-08
-1.2897e-06
6.66353e-08
-1.28794e-06
-1.28566e-06
8.34567e-08
-6.26999e-08
-1.30132e-06
7.83559e-08
-4.7017e-08
-1.30362e-06
-3.13279e-08
-1.30539e-06
-1.56551e-08
-1.30653e-06
5.1314e-12
-1.3071e-06
1.56654e-08
-1.3071e-06
3.13382e-08
-1.30653e-06
4.70274e-08
-1.30539e-06
6.27102e-08
-1.30362e-06
-1.30132e-06
7.83661e-08
-5.83239e-08
-1.31599e-06
7.29894e-08
-4.3685e-08
-1.31826e-06
-2.90976e-08
-1.31997e-06
-1.45392e-08
-1.32109e-06
5.04914e-12
-1.32164e-06
1.45493e-08
-1.32164e-06
2.91077e-08
-1.32109e-06
4.3695e-08
-1.31997e-06
5.83338e-08
-1.31826e-06
-1.31599e-06
7.29992e-08
-5.34484e-08
-1.32953e-06
6.69944e-08
-3.99909e-08
-1.33172e-06
-2.66198e-08
-1.33334e-06
-1.32967e-08
-1.33441e-06
4.76067e-12
-1.33494e-06
1.33062e-08
-1.33494e-06
2.66293e-08
-1.33441e-06
4.00003e-08
-1.33334e-06
5.34578e-08
-1.33172e-06
-1.32953e-06
6.70037e-08
-4.80476e-08
-1.34174e-06
6.02545e-08
-3.59333e-08
-1.34383e-06
-2.39087e-08
-1.34537e-06
-1.19394e-08
-1.34638e-06
4.30806e-12
-1.34689e-06
1.1948e-08
-1.34689e-06
2.39174e-08
-1.34638e-06
3.59419e-08
-1.34537e-06
4.80562e-08
-1.34383e-06
-1.34174e-06
6.02631e-08
-4.22819e-08
-1.35254e-06
5.30831e-08
-3.15974e-08
-1.35452e-06
-2.10139e-08
-1.35595e-06
-1.04911e-08
-1.35691e-06
3.76472e-12
-1.35738e-06
1.04986e-08
-1.35738e-06
2.10215e-08
-1.35691e-06
3.1605e-08
-1.35595e-06
4.22895e-08
-1.35452e-06
-1.35254e-06
5.30909e-08
-3.62226e-08
-1.36185e-06
4.55354e-08
-2.70466e-08
-1.36369e-06
-1.7978e-08
-1.36502e-06
-8.97287e-09
-1.36591e-06
3.23951e-12
-1.36636e-06
8.97936e-09
-1.36636e-06
1.79846e-08
-1.36591e-06
2.70532e-08
-1.36502e-06
3.62294e-08
-1.36369e-06
-1.36185e-06
4.55424e-08
-2.99058e-08
-1.36957e-06
3.76268e-08
-2.23173e-08
-1.37128e-06
-1.48282e-08
-1.37251e-06
-7.399e-09
-1.37334e-06
2.79109e-12
-1.37376e-06
7.4046e-09
-1.37376e-06
1.48339e-08
-1.37334e-06
2.2323e-08
-1.37251e-06
2.99117e-08
-1.37128e-06
-1.36957e-06
3.76329e-08
-2.33983e-08
-1.37563e-06
2.94571e-08
-1.74542e-08
-1.37723e-06
-1.15938e-08
-1.37837e-06
-5.78399e-09
-1.37915e-06
2.46085e-12
-1.37955e-06
5.78893e-09
-1.37955e-06
1.15988e-08
-1.37915e-06
1.74593e-08
-1.37837e-06
2.34035e-08
-1.37723e-06
-1.37563e-06
2.94624e-08
-1.67772e-08
-1.37999e-06
2.11353e-08
-1.25117e-08
-1.38149e-06
-8.30907e-09
-1.38257e-06
-4.14452e-09
-1.38331e-06
2.25801e-12
-1.38369e-06
4.14904e-09
-1.38369e-06
8.31363e-09
-1.38331e-06
1.25163e-08
-1.38257e-06
1.67819e-08
-1.38149e-06
-1.37999e-06
2.11401e-08
-1.0133e-08
-1.38264e-06
1.27785e-08
-7.55274e-09
-1.38407e-06
-5.01331e-09
-1.38511e-06
-2.49953e-09
-1.38583e-06
2.18605e-12
-1.38619e-06
2.50391e-09
-1.38619e-06
5.01772e-09
-1.38583e-06
7.55719e-09
-1.38511e-06
1.01375e-08
-1.38407e-06
-1.38264e-06
1.27831e-08
-3.54726e-09
-1.38359e-06
4.49876e-09
-2.63226e-09
-1.38499e-06
-1.7416e-09
-1.386e-06
-8.6623e-10
-1.3867e-06
2.21525e-12
-1.38706e-06
8.70672e-10
-1.38706e-06
1.74608e-09
-1.3867e-06
2.6368e-09
-1.386e-06
3.5519e-09
-1.38499e-06
-1.38359e-06
4.50353e-09
2.93714e-09
-1.38289e-06
-3.63804e-09
2.21501e-09
-1.38427e-06
1.48125e-09
-1.38527e-06
7.42677e-10
-1.38596e-06
2.29129e-12
-1.38632e-06
-7.3808e-10
-1.38632e-06
-1.47661e-09
-1.38596e-06
-2.21029e-09
-1.38527e-06
-2.93229e-09
-1.38427e-06
-1.38289e-06
-3.63295e-09
9.2756e-09
-1.38058e-06
-1.15839e-08
6.95159e-09
-1.38194e-06
4.62995e-09
-1.38295e-06
2.31428e-09
-1.38365e-06
2.36866e-12
-1.38401e-06
-2.30953e-09
-1.38401e-06
-4.62516e-09
-1.38365e-06
-6.94671e-09
-1.38295e-06
-9.27058e-09
-1.38194e-06
-1.38058e-06
-1.15786e-08
1.54086e-08
-1.37671e-06
-1.92809e-08
1.15343e-08
-1.37807e-06
7.67571e-09
-1.37909e-06
3.83417e-09
-1.37981e-06
2.42139e-12
-1.38018e-06
-3.82932e-09
-1.38018e-06
-7.67081e-09
-1.37981e-06
-1.15293e-08
-1.37909e-06
-1.54035e-08
-1.37807e-06
-1.37671e-06
-1.92755e-08
2.13307e-08
-1.37132e-06
-2.6722e-08
1.59532e-08
-1.37269e-06
1.06094e-08
-1.37375e-06
5.29709e-09
-1.3745e-06
2.43564e-12
-1.37488e-06
-5.2922e-09
-1.37488e-06
-1.06045e-08
-1.3745e-06
-1.59482e-08
-1.37375e-06
-2.13256e-08
-1.37269e-06
-1.37132e-06
-2.67168e-08
2.70274e-08
-1.36447e-06
-3.38754e-08
2.01987e-08
-1.36586e-06
1.34224e-08
-1.36697e-06
6.69747e-09
-1.36777e-06
2.40355e-12
-1.36819e-06
-6.69265e-09
-1.36819e-06
-1.34175e-08
-1.36777e-06
-2.01938e-08
-1.36697e-06
-2.70224e-08
-1.36586e-06
-1.36447e-06
-3.38703e-08
3.2467e-08
-1.35619e-06
-4.07463e-08
2.42356e-08
-1.35763e-06
1.6088e-08
-1.35882e-06
8.02135e-09
-1.3597e-06
2.32903e-12
-1.36017e-06
-8.01668e-09
-1.36017e-06
-1.60833e-08
-1.3597e-06
-2.42308e-08
-1.35882e-06
-3.24621e-08
-1.35763e-06
-1.35619e-06
-4.07413e-08
3.76429e-08
-1.34652e-06
-4.73117e-08
2.80571e-08
-1.34804e-06
1.85985e-08
-1.34936e-06
9.26338e-09
-1.35037e-06
2.23113e-12
-1.35091e-06
-9.25889e-09
-1.35091e-06
-1.85939e-08
-1.35037e-06
-2.80524e-08
-1.34936e-06
-3.76381e-08
-1.34804e-06
-1.34652e-06
-4.73067e-08
4.2584e-08
-1.3355e-06
-5.36065e-08
3.16806e-08
-1.33714e-06
2.09604e-08
-1.33864e-06
1.04244e-08
-1.33983e-06
2.13665e-12
-1.34049e-06
-1.04201e-08
-1.34049e-06
-2.0956e-08
-1.33983e-06
-3.1676e-08
-1.33864e-06
-4.25791e-08
-1.33714e-06
-1.3355e-06
-5.36014e-08
4.73009e-08
-1.32315e-06
-5.96501e-08
3.51083e-08
-1.32495e-06
2.31683e-08
-1.3267e-06
1.14982e-08
-1.32816e-06
2.05747e-12
-1.32899e-06
-1.1494e-08
-1.32899e-06
-2.31639e-08
-1.32816e-06
-3.51036e-08
-1.3267e-06
-4.72959e-08
-1.32495e-06
-1.32315e-06
-5.96449e-08
5.18019e-08
-1.30951e-06
-6.54411e-08
3.83366e-08
-1.31148e-06
2.52047e-08
-1.31357e-06
1.24675e-08
-1.31543e-06
1.99405e-12
-1.31652e-06
-1.24634e-08
-1.31653e-06
-2.52004e-08
-1.31543e-06
-3.83319e-08
-1.31357e-06
-5.17969e-08
-1.31148e-06
-1.30951e-06
-6.54357e-08
5.60133e-08
-1.29462e-06
-7.09029e-08
4.12777e-08
-1.29675e-06
2.69802e-08
-1.29927e-06
1.32716e-08
-1.30172e-06
1.93927e-12
-1.30326e-06
-1.32676e-08
-1.30326e-06
-2.69759e-08
-1.30172e-06
-4.1273e-08
-1.29927e-06
-5.60082e-08
-1.29675e-06
-1.29462e-06
-7.08974e-08
5.95784e-08
-1.27849e-06
-7.57052e-08
4.35791e-08
-1.28075e-06
2.82283e-08
-1.28392e-06
1.37763e-08
-1.28726e-06
1.89327e-12
-1.28948e-06
-1.37724e-08
-1.28948e-06
-2.8224e-08
-1.28727e-06
-4.35744e-08
-1.28392e-06
-5.95734e-08
-1.28075e-06
-1.2785e-06
-7.57e-08
6.15996e-08
-1.26093e-06
-7.91631e-08
4.43342e-08
-1.26348e-06
2.84302e-08
-1.26802e-06
1.38981e-08
-1.27273e-06
1.88489e-12
-1.27558e-06
-1.38942e-08
-1.27559e-06
-2.84261e-08
-1.27273e-06
-4.43299e-08
-1.26802e-06
-6.15952e-08
-1.26348e-06
-1.26093e-06
-7.91588e-08
5.99574e-08
-1.24047e-06
-8.04128e-08
4.14694e-08
-1.24499e-06
2.69068e-08
-1.25346e-06
1.39895e-08
-1.25982e-06
1.95042e-12
-1.2616e-06
-1.39857e-08
-1.2616e-06
-2.69031e-08
-1.25982e-06
-4.14657e-08
-1.25346e-06
-5.9954e-08
-1.245e-06
-1.24048e-06
-8.04099e-08
4.9e-08
-1.21045e-06
-7.90191e-08
3.24018e-08
-1.2284e-06
2.46861e-08
-1.24574e-06