/*--------------------------------*- C++ -*----------------------------------*\
  =========                 |
  \\      /  F ield         | OpenFOAM: The Open Source CFD Toolbox
   \\    /   O peration     | Website:  https://openfoam.org
    \\  /    A nd           | Version:  8
     \\/     M anipulation  |
\*---------------------------------------------------------------------------*/
FoamFile
{
    version     2.0;
    format      ascii;
    class       volVectorField;
    location    "0.2";
    object      U;
}
// * * * * * * * * * * * * * * * * * * * * * * * * * * * * * * * * * * * * * //

dimensions      [0 1 -1 0 0 0 0];

internalField   nonuniform List<vector> 
9150
(
(0.0550266 -0.424806 0)
(0.0875254 -0.620191 0)
(0.0722785 -0.631461 0)
(0.0486848 -0.643639 0)
(0.0168001 -0.654334 0)
(-0.0168001 -0.654334 0)
(-0.0486848 -0.643639 0)
(-0.0722785 -0.631461 0)
(-0.0875255 -0.620191 0)
(-0.0550266 -0.424806 0)
(0.0436644 -0.523526 0)
(0.0582116 -0.625668 0)
(0.0416736 -0.613738 0)
(0.029712 -0.622507 0)
(0.0102846 -0.62879 0)
(-0.0102846 -0.62879 0)
(-0.029712 -0.622507 0)
(-0.0416736 -0.613738 0)
(-0.0582117 -0.625668 0)
(-0.0436644 -0.523526 0)
(0.02791 -0.557498 0)
(0.032852 -0.613602 0)
(0.0225272 -0.604756 0)
(0.0176579 -0.610074 0)
(0.00611128 -0.613124 0)
(-0.0061113 -0.613124 0)
(-0.0176579 -0.610074 0)
(-0.0225272 -0.604756 0)
(-0.032852 -0.613602 0)
(-0.02791 -0.557498 0)
(0.0177726 -0.584589 0)
(0.0178287 -0.607435 0)
(0.0113764 -0.601282 0)
(0.00924833 -0.603366 0)
(0.00319883 -0.604354 0)
(-0.00319884 -0.604354 0)
(-0.00924833 -0.603366 0)
(-0.0113764 -0.601282 0)
(-0.0178287 -0.607435 0)
(-0.0177726 -0.584589 0)
(0.00768604 -0.597041 0)
(0.00572663 -0.601316 0)
(0.00339068 -0.600045 0)
(0.00284272 -0.600368 0)
(0.000996157 -0.600473 0)
(-0.000996154 -0.600473 0)
(-0.00284272 -0.600368 0)
(-0.00339067 -0.600045 0)
(-0.00572663 -0.601316 0)
(-0.00768604 -0.597041 0)
(0.47873 -1.17464 5.84152e-25)
(0.285384 -1.08549 0)
(0.168506 -1.07291 0)
(0.0949486 -1.05973 0)
(0.0303373 -1.05419 0)
(-0.0303373 -1.05419 0)
(-0.0949486 -1.05973 0)
(-0.168506 -1.07291 0)
(-0.285384 -1.08549 0)
(-0.478729 -1.17464 -5.84152e-25)
(0.333214 -0.84202 1.39901e-25)
(0.283011 -0.934733 0)
(0.187829 -0.93695 0)
(0.108976 -0.937127 0)
(0.035402 -0.939679 0)
(-0.0354021 -0.939679 0)
(-0.108976 -0.937127 0)
(-0.187829 -0.93695 0)
(-0.283011 -0.934732 0)
(-0.333214 -0.84202 -1.39901e-25)
(0.283821 -0.706318 3.2458e-26)
(0.257475 -0.804256 0)
(0.177224 -0.81872 0)
(0.105123 -0.8288 0)
(0.0346144 -0.836926 0)
(-0.0346145 -0.836926 0)
(-0.105123 -0.8288 0)
(-0.177224 -0.81872 0)
(-0.257475 -0.804256 0)
(-0.283821 -0.706317 -3.24581e-26)
(0.207447 -0.557839 5.31103e-26)
(0.217786 -0.708301 0)
(0.153557 -0.726406 0)
(0.0917781 -0.742131 0)
(0.0303942 -0.754105 0)
(-0.0303943 -0.754105 0)
(-0.0917781 -0.742132 0)
(-0.153557 -0.726406 0)
(-0.217786 -0.708301 0)
(-0.207447 -0.557839 -5.31101e-26)
(0.126119 -0.440586 -1.44087e-25)
(0.160708 -0.641392 -2.0879e-25)
(0.116584 -0.663601 -6.64713e-26)
(0.0712002 -0.681021 -4.37816e-26)
(0.0237943 -0.69414 -2.54708e-27)
(-0.0237943 -0.69414 -2.54706e-27)
(-0.0712003 -0.681021 -4.37816e-26)
(-0.116584 -0.663601 -6.64713e-26)
(-0.160709 -0.641392 -2.0879e-25)
(-0.126119 -0.440586 -1.44087e-25)
(-0.00643639 -0.952139 0)
(-0.0428181 -1.32882 0)
(0.0247277 -1.26084 0)
(-0.0148796 -1.22235 0)
(0.0147122 -1.21949 0)
(-0.0147117 -1.21949 0)
(0.0148802 -1.22235 0)
(-0.0247271 -1.26084 0)
(0.0428181 -1.32883 0)
(0.00643579 -0.952138 0)
(0.0357617 -0.922582 0)
(-0.0223413 -1.33181 0)
(0.0287461 -1.26395 0)
(-0.00969699 -1.21977 0)
(0.0116039 -1.21984 0)
(-0.0116037 -1.21984 0)
(0.00969726 -1.21977 0)
(-0.0287457 -1.26395 0)
(0.0223412 -1.33181 0)
(-0.0357618 -0.922582 0)
(0.0648874 -0.946298 0)
(-0.0210966 -1.34334 0)
(0.028675 -1.2709 0)
(-0.00520239 -1.22423 0)
(0.00597604 -1.22463 0)
(-0.00597593 -1.22463 0)
(0.00520259 -1.22423 0)
(-0.0286749 -1.2709 0)
(0.0210966 -1.34334 0)
(-0.0648873 -0.946298 0)
(0.121064 -1.0707 0)
(-0.0119007 -1.35932 0)
(0.0297093 -1.27273 0)
(0.0124432 -1.22227 0)
(0.00438165 -1.21415 0)
(-0.00438158 -1.21415 0)
(-0.0124431 -1.22227 0)
(-0.0297093 -1.27273 0)
(0.0119008 -1.35932 0)
(-0.121064 -1.0707 0)
(0.272863 -1.23576 0)
(0.0957806 -1.31967 0)
(0.0755344 -1.21637 0)
(0.0553497 -1.17149 0)
(0.0176648 -1.15771 0)
(-0.0176647 -1.15771 0)
(-0.0553496 -1.17149 0)
(-0.0755343 -1.21637 0)
(-0.0957805 -1.31967 0)
(-0.272863 -1.23576 0)
(-0.0064857 -0.00147704 0)
(-0.00514926 -0.00150262 0)
(-0.00379421 -0.00152184 0)
(-0.0024251 -0.00153337 0)
(-0.00104636 -0.00153857 0)
(0.000333273 -0.00153729 0)
(0.00170854 -0.00152915 0)
(0.00307386 -0.00151418 0)
(0.00442309 -0.00149277 0)
(0.00575004 -0.00146608 0)
(-0.00665094 -0.00401889 0)
(-0.00526207 -0.0040884 0)
(-0.00385335 -0.00413925 0)
(-0.00243187 -0.00417192 0)
(-0.00100182 -0.00418606 0)
(0.000429827 -0.00418243 0)
(0.00185788 -0.00416134 0)
(0.00327683 -0.00412294 0)
(0.00468078 -0.00406761 0)
(0.00606451 -0.00399624 0)
(-0.00664956 -0.00677877 0)
(-0.00525236 -0.00689088 0)
(-0.00383453 -0.00697324 0)
(-0.0024051 -0.00702715 0)
(-0.000966162 -0.00705203 0)
(0.00047461 -0.00704845 0)
(0.00191277 -0.00701664 0)
(0.0033431 -0.00695685 0)
(0.00476002 -0.00686959 0)
(0.00615822 -0.00675515 0)
(-0.00671815 -0.00956169 0)
(-0.00529971 -0.00971582 0)
(-0.00386072 -0.00983004 0)
(-0.00240979 -0.00990469 0)
(-0.000948681 -0.00994022 0)
(0.000514414 -0.00993693 0)
(0.00197537 -0.00989508 0)
(0.00342905 -0.00981502 0)
(0.00487002 -0.00969722 0)
(0.00629287 -0.00954137 0)
(-0.00688666 -0.0124159 0)
(-0.00542545 -0.012612 0)
(-0.00394471 -0.0127583 0)
(-0.00245066 -0.0128541 0)
(-0.000946805 -0.0129009 0)
(0.000559551 -0.0128985 0)
(0.002064 -0.0128472 0)
(0.00356132 -0.0127474 0)
(0.0050461 -0.0125996 0)
(0.00651292 -0.012403 0)
(-0.00716575 -0.0153729 0)
(-0.00563747 -0.0156113 0)
(-0.00409125 -0.0157899 0)
(-0.0025302 -0.0159078 0)
(-0.00096024 -0.0159665 0)
(0.000612952 -0.0159655 0)
(0.00218428 -0.0159051 0)
(0.00374832 -0.0157857 0)
(0.00529959 -0.0156079 0)
(0.00683271 -0.0153708 0)
(-0.00756471 -0.0184818 0)
(-0.0059441 -0.0187639 0)
(-0.00430612 -0.0189753 0)
(-0.00265246 -0.0191165 0)
(-0.000990656 -0.0191876 0)
(0.000674983 -0.0191884 0)
(0.0023386 -0.0191189 0)
(0.00399452 -0.0189797 0)
(0.00563718 -0.0187714 0)
(0.0072611 -0.0184932 0)
(-0.00809237 -0.0217963 0)
(-0.00635315 -0.0221237 0)
(-0.00459539 -0.0223692 0)
(-0.00282203 -0.0225346 0)
(-0.00104036 -0.0226187 0)
(0.000745286 -0.0226211 0)
(0.00252863 -0.0225422 0)
(0.00430374 -0.0223821 0)
(0.00606486 -0.022142 0)
(0.00780625 -0.0218211 0)
(-0.00875865 -0.0253752 0)
(-0.0068725 -0.0257499 0)
(-0.00496525 -0.0260315 0)
(-0.00304276 -0.026222 0)
(-0.00111081 -0.0263191 0)
(0.000824804 -0.0263228 0)
(0.00275777 -0.0262331 0)
(0.00468183 -0.0260505 0)
(0.00659089 -0.0257761 0)
(0.00847886 -0.0254097 0)
(-0.00957402 -0.0292806 0)
(-0.0075095 -0.0297054 0)
(-0.00542101 -0.0300252 0)
(-0.00331712 -0.0302416 0)
(-0.00120214 -0.030352 0)
(0.000916013 -0.0303562 0)
(0.00303114 -0.0302544 0)
(0.00513655 -0.030047 0)
(0.00722568 -0.0297355 0)
(0.00929199 -0.0293199 0)
(-0.0105497 -0.0335777 0)
(-0.00827199 -0.0340562 0)
(-0.00596795 -0.0344171 0)
(-0.0036473 -0.0346607 0)
(-0.00131409 -0.0347848 0)
(0.00102199 -0.0347892 0)
(0.00335464 -0.034674 0)
(0.00567666 -0.0344397 0)
(0.00798085 -0.0340879 0)
(0.0102602 -0.033619 0)
(-0.0116991 -0.0383364 0)
(-0.00917001 -0.0388735 0)
(-0.00661262 -0.0392789 0)
(-0.00403659 -0.0395519 0)
(-0.00144699 -0.0396909 0)
(0.00114561 -0.0396954 0)
(0.00373442 -0.0395654 0)
(0.00631154 -0.0393017 0)
(0.0088692 -0.0389061 0)
(0.0113996 -0.0383789 0)
(-0.0130395 -0.0436336 0)
(-0.010217 -0.0442352 0)
(-0.00736418 -0.0446894 0)
(-0.00449013 -0.0449949 0)
(-0.00160185 -0.0451504 0)
(0.00129001 -0.045155 0)
(0.00417771 -0.0450087 0)
(0.00705256 -0.0447125 0)
(0.00990607 -0.0442685 0)
(0.0127296 -0.0436772 0)
(-0.0145921 -0.0495557 0)
(-0.0114295 -0.0502286 0)
(-0.00823415 -0.0507367 0)
(-0.00501473 -0.0510784 0)
(-0.00178039 -0.0512521 0)
(0.00145838 -0.0512569 0)
(0.00469259 -0.0510929 0)
(0.0079126 -0.0507609 0)
(0.011109 -0.0502635 0)
(0.0142725 -0.0496015 0)
(-0.0163807 -0.0562012 0)
(-0.0128259 -0.0569528 0)
(-0.00923556 -0.0575201 0)
(-0.00561836 -0.0579019 0)
(-0.0019852 -0.058096 0)
(0.00165327 -0.0581013 0)
(0.00528673 -0.0579179 0)
(0.00890446 -0.0575468 0)
(0.0124961 -0.0569909 0)
(0.0160515 -0.0562511 0)
(-0.0184299 -0.0636802 0)
(-0.0144258 -0.0645185 0)
(-0.0103826 -0.0651511 0)
(-0.0063098 -0.0655772 0)
(-0.00221958 -0.0657938 0)
(0.00187673 -0.0657997 0)
(0.00596756 -0.065595 0)
(0.0100411 -0.0651808 0)
(0.0140858 -0.0645605 0)
(0.0180907 -0.0637349 0)
(-0.0207672 -0.072114 0)
(-0.0162508 -0.073048 0)
(-0.0116905 -0.0737528 0)
(-0.00709814 -0.0742277 0)
(-0.0024865 -0.0744689 0)
(0.00213187 -0.0744752 0)
(0.00674421 -0.0742466 0)
(0.0113376 -0.0737845 0)
(0.0158992 -0.0730924 0)
(0.020417 -0.0721718 0)
(-0.0234235 -0.0816349 0)
(-0.0183247 -0.0826745 0)
(-0.0131767 -0.0834592 0)
(-0.00799363 -0.0839879 0)
(-0.0027893 -0.0842563 0)
(0.00242238 -0.0842629 0)
(0.0076273 -0.0840078 0)
(0.0128112 -0.0834925 0)
(0.0179599 -0.0827212 0)
(0.0230604 -0.0816953 0)
(-0.0264329 -0.0923893 0)
(-0.0206734 -0.093545 0)
(-0.0148602 -0.0944177 0)
(-0.00900808 -0.0950055 0)
(-0.00313249 -0.0953038 0)
(0.0027511 -0.0953109 0)
(0.00862714 -0.0950267 0)
(0.0144797 -0.0944529 0)
(0.0202935 -0.0935943 0)
(0.026054 -0.0924522 0)
(-0.0298335 -0.104539 0)
(-0.023327 -0.105823 0)
(-0.0167624 -0.106792 0)
(-0.0101543 -0.107445 0)
(-0.00352057 -0.107776 0)
(0.00312196 -0.107783 0)
(0.00975612 -0.107467 0)
(0.0163643 -0.106828 0)
(0.0229296 -0.105874 0)
(0.0294363 -0.104603 0)
(-0.0336717 -0.118263 0)
(-0.0263224 -0.119689 0)
(-0.0189092 -0.120764 0)
(-0.0114479 -0.121489 0)
(-0.00395848 -0.121856 0)
(0.00354057 -0.121864 0)
(0.0110303 -0.121512 0)
(0.0184914 -0.120802 0)
(0.0259051 -0.119741 0)
(0.0332543 -0.11833 0)
(-0.0380042 -0.133764 0)
(-0.0297038 -0.135347 0)
(-0.0213322 -0.13654 0)
(-0.0129085 -0.137344 0)
(-0.00445317 -0.137751 0)
(0.0040126 -0.137759 0)
(0.012468 -0.137368 0)
(0.020892 -0.13658 0)
(0.0292638 -0.135401 0)
(0.0375645 -0.133834 0)
(-0.0428956 -0.151277 0)
(-0.033521 -0.153031 0)
(-0.024067 -0.154354 0)
(-0.0145571 -0.155245 0)
(-0.00501128 -0.155695 0)
(0.00454564 -0.155703 0)
(0.0140913 -0.155268 0)
(0.0236026 -0.154393 0)
(0.0330565 -0.153086 0)
(0.0424325 -0.151347 0)
(-0.048413 -0.171065 0)
(-0.037825 -0.173006 0)
(-0.0271503 -0.17447 0)
(-0.0164138 -0.175455 0)
(-0.00563823 -0.175953 0)
(0.00514921 -0.175961 0)
(0.0159244 -0.175478 0)
(0.0266618 -0.174508 0)
(0.0373367 -0.173059 0)
(0.0479265 -0.171132 0)
(-0.0546178 -0.193416 0)
(-0.0426621 -0.195562 0)
(-0.0306141 -0.19718 0)
(-0.0184978 -0.198267 0)
(-0.00634092 -0.198817 0)
(0.00582912 -0.198825 0)
(0.0179859 -0.19829 0)
(0.030102 -0.197218 0)
(0.0421507 -0.195615 0)
(0.0541078 -0.193484 0)
(-0.0615499 -0.218652 0)
(-0.0480629 -0.221018 0)
(-0.0344788 -0.2228 0)
(-0.020823 -0.223999 0)
(-0.0071241 -0.224604 0)
(0.00658903 -0.224612 0)
(0.0202882 -0.224023 0)
(0.0339447 -0.222839 0)
(0.0475299 -0.221072 0)
(0.0610181 -0.218723 0)
(-0.0692076 -0.247113 0)
(-0.0540259 -0.249708 0)
(-0.0387428 -0.251663 0)
(-0.0233868 -0.252978 0)
(-0.00798562 -0.253641 0)
(0.00742996 -0.253649 0)
(0.0228311 -0.253002 0)
(0.038188 -0.251704 0)
(0.0534711 -0.249765 0)
(0.0686542 -0.247186 0)
(-0.0775227 -0.279127 0)
(-0.0604937 -0.281955 0)
(-0.043365 -0.284086 0)
(-0.026163 -0.285517 0)
(-0.00891719 -0.286239 0)
(0.00834277 -0.286247 0)
(0.0255885 -0.285541 0)
(0.0427905 -0.284126 0)
(0.0599196 -0.282013 0)
(0.0769496 -0.2792 0)
(-0.086345 -0.314979 0)
(-0.0673474 -0.318036 0)
(-0.0482571 -0.320335 0)
(-0.029099 -0.321879 0)
(-0.00990026 -0.322658 0)
(0.00931221 -0.322666 0)
(0.0285115 -0.321903 0)
(0.04767 -0.320375 0)
(0.0667602 -0.318091 0)
(0.0857575 -0.315052 0)
(-0.0954146 -0.354877 0)
(-0.0743843 -0.358139 0)
(-0.053273 -0.360591 0)
(-0.0321048 -0.362237 0)
(-0.0109029 -0.363066 0)
(0.0103101 -0.363074 0)
(0.0315117 -0.362261 0)
(0.0526782 -0.360631 0)
(0.0737868 -0.358196 0)
(0.0948167 -0.354951 0)
(-0.104334 -0.3989 0)
(-0.0812867 -0.402326 0)
(-0.058187 -0.404898 0)
(-0.035047 -0.406622 0)
(-0.0118828 -0.40749 0)
(0.0112887 -0.407497 0)
(0.0344527 -0.406643 0)
(0.0575922 -0.404934 0)
(0.0806907 -0.402378 0)
(0.103734 -0.398969 0)
(-0.112516 -0.446917 0)
(-0.0876007 -0.450441 0)
(-0.0626666 -0.45308 0)
(-0.0377185 -0.454849 0)
(-0.0127645 -0.455738 0)
(0.0121912 -0.455744 0)
(0.0371439 -0.454866 0)
(0.0620873 -0.453109 0)
(0.0870155 -0.450483 0)
(0.111925 -0.446978 0)
(-0.119117 -0.498513 0)
(-0.0926652 -0.502036 0)
(-0.0662434 -0.504668 0)
(-0.039846 -0.506435 0)
(-0.0134598 -0.507321 0)
(0.0129195 -0.507325 0)
(0.0393028 -0.506448 0)
(0.0656972 -0.504693 0)
(0.0921102 -0.502069 0)
(0.118555 -0.498569 0)
(-0.122943 -0.552825 0)
(-0.0955521 -0.556216 0)
(-0.0682527 -0.558751 0)
(-0.0410256 -0.560452 0)
(-0.0138308 -0.561302 0)
(0.0133448 -0.561306 0)
(0.0405345 -0.56046 0)
(0.0677607 -0.558769 0)
(0.0950483 -0.556237 0)
(0.12243 -0.552871 0)
(-0.122357 -0.60818 0)
(-0.0949946 -0.611273 0)
(-0.0677904 -0.613591 0)
(-0.0407167 -0.615146 0)
(-0.0137015 -0.615918 0)
(0.0132822 -0.615915 0)
(0.0402948 -0.615134 0)
(0.0673753 -0.613578 0)
(0.0945702 -0.611252 0)
(0.12193 -0.608183 0)
(-0.114994 -0.663045 0)
(-0.0891697 -0.665607 0)
(-0.0635538 -0.667576 0)
(-0.0381331 -0.668884 0)
(-0.0127943 -0.669531 0)
(0.012491 -0.66951 0)
(0.0378204 -0.668833 0)
(0.0632513 -0.667499 0)
(0.0888511 -0.665526 0)
(0.114675 -0.662965 0)
(-0.0974534 -0.713967 0)
(-0.0754743 -0.71601 0)
(-0.0537483 -0.717683 0)
(-0.0322078 -0.718703 0)
(-0.0107666 -0.719245 0)
(0.0106191 -0.719254 0)
(0.0320292 -0.718755 0)
(0.0535493 -0.71773 0)
(0.0752487 -0.716145 0)
(0.0971902 -0.713981 0)
(-0.0681046 -0.736097 0)
(-0.0526035 -0.737781 0)
(-0.0374222 -0.738798 0)
(-0.0223839 -0.739475 0)
(-0.00759769 -0.739774 0)
(0.00723423 -0.739754 0)
(0.0220867 -0.739429 0)
(0.0371054 -0.738764 0)
(0.0523789 -0.737669 0)
(0.0679238 -0.736077 0)
(-0.0356891 -0.781233 0)
(-0.0276621 -0.782033 0)
(-0.0196978 -0.782637 0)
(-0.0117875 -0.783036 0)
(-0.00391714 -0.78324 0)
(0.00394084 -0.783244 0)
(0.011808 -0.783043 0)
(0.0197118 -0.782645 0)
(0.0276706 -0.782041 0)
(0.0356953 -0.781242 0)
(-0.0332517 -0.792299 0)
(-0.0258201 -0.792978 0)
(-0.0184137 -0.793507 0)
(-0.0110308 -0.793858 0)
(-0.00366364 -0.794034 0)
(0.00369622 -0.794034 0)
(0.0110615 -0.793859 0)
(0.0184418 -0.793508 0)
(0.0258468 -0.792982 0)
(0.033276 -0.792304 0)
(-0.0314788 -0.801438 0)
(-0.0245117 -0.802213 0)
(-0.0175235 -0.802778 0)
(-0.010515 -0.803146 0)
(-0.00349491 -0.803329 0)
(0.00352783 -0.803329 0)
(0.0105478 -0.803148 0)
(0.0175573 -0.802781 0)
(0.0245456 -0.802219 0)
(0.0315138 -0.801446 0)
(-0.030146 -0.814466 0)
(-0.023469 -0.815315 0)
(-0.0167744 -0.81593 0)
(-0.0100627 -0.816331 0)
(-0.00334286 -0.81653 0)
(0.00338128 -0.816531 0)
(0.010102 -0.816334 0)
(0.0168134 -0.815934 0)
(0.0235097 -0.815323 0)
(0.0301875 -0.814476 0)
(-0.0289846 -0.828107 0)
(-0.022565 -0.828989 0)
(-0.016125 -0.82963 0)
(-0.00967163 -0.830052 0)
(-0.00320976 -0.830261 0)
(0.00325512 -0.830262 0)
(0.00971713 -0.830055 0)
(0.0161709 -0.829635 0)
(0.0226116 -0.828996 0)
(0.029032 -0.828118 0)
(-0.0280103 -0.840684 0)
(-0.0218085 -0.84161 0)
(-0.0155848 -0.842285 0)
(-0.00934623 -0.842731 0)
(-0.00309845 -0.842953 0)
(0.0031524 -0.842954 0)
(0.00940036 -0.842735 0)
(0.0156394 -0.842292 0)
(0.0218636 -0.841619 0)
(0.028066 -0.840697 0)
(-0.0272179 -0.852843 0)
(-0.021193 -0.853821 0)
(-0.0151452 -0.854536 0)
(-0.00908151 -0.855007 0)
(-0.00300814 -0.855242 0)
(0.00306845 -0.855244 0)
(0.00914195 -0.855012 0)
(0.0152061 -0.854544 0)
(0.0212543 -0.853833 0)
(0.0272798 -0.852858 0)
(-0.0265548 -0.864702 0)
(-0.020681 -0.865735 0)
(-0.014781 -0.866491 0)
(-0.0088626 -0.866989 0)
(-0.00293338 -0.867236 0)
(0.00299953 -0.867238 0)
(0.00892881 -0.866993 0)
(0.0148474 -0.866499 0)
(0.0207477 -0.865747 0)
(0.0266218 -0.864717 0)
(-0.0260179 -0.876269 0)
(-0.0202709 -0.87737 0)
(-0.0144916 -0.878174 0)
(-0.00868958 -0.878704 0)
(-0.00287431 -0.878968 0)
(0.00294544 -0.87897 0)
(0.00876075 -0.878709 0)
(0.0145627 -0.878183 0)
(0.0203422 -0.877382 0)
(0.0260892 -0.876284 0)
(-0.0256604 -0.887601 0)
(-0.0200012 -0.888786 0)
(-0.0143031 -0.889652 0)
(-0.00857753 -0.890223 0)
(-0.00283594 -0.890506 0)
(0.00291099 -0.890508 0)
(0.00865255 -0.890228 0)
(0.0143779 -0.889661 0)
(0.0200761 -0.888798 0)
(0.0257351 -0.887617 0)
(-0.0255735 -0.898801 0)
(-0.0199384 -0.900084 0)
(-0.0142607 -0.901021 0)
(-0.00855279 -0.901639 0)
(-0.00282703 -0.901945 0)
(0.00290469 -0.901947 0)
(0.00863039 -0.901644 0)
(0.0143381 -0.90103 0)
(0.0200157 -0.900095 0)
(0.0256505 -0.898816 0)
(-0.0258476 -0.91003 0)
(-0.0201499 -0.911412 0)
(-0.0144112 -0.912424 0)
(-0.00864271 -0.91309 0)
(-0.00285653 -0.913421 0)
(0.00293559 -0.913423 0)
(0.00872168 -0.913095 0)
(0.0144899 -0.912432 0)
(0.0202283 -0.911423 0)
(0.0259254 -0.910044 0)
(-0.0265369 -0.921488 0)
(-0.0206779 -0.922958 0)
(-0.0147844 -0.924037 0)
(-0.00886526 -0.924748 0)
(-0.00293042 -0.925103 0)
(0.00300957 -0.925104 0)
(0.00894425 -0.924753 0)
(0.0148631 -0.924044 0)
(0.0207561 -0.922968 0)
(0.0266143 -0.921501 0)
(-0.0276355 -0.933381 0)
(-0.0215205 -0.934918 0)
(-0.0153804 -0.93605 0)
(-0.00922072 -0.936799 0)
(-0.00304892 -0.937172 0)
(0.00312686 -0.937173 0)
(0.00929847 -0.936803 0)
(0.0154577 -0.936057 0)
(0.0215971 -0.934927 0)
(0.0277113 -0.933392 0)
(-0.0290718 -0.945888 0)
(-0.0226266 -0.947469 0)
(-0.0161648 -0.948638 0)
(-0.00968953 -0.949412 0)
(-0.0032056 -0.949798 0)
(0.00328115 -0.949799 0)
(0.00976481 -0.949415 0)
(0.0162396 -0.948643 0)
(0.0227006 -0.947476 0)
(0.0291449 -0.945897 0)
(-0.0307254 -0.95912 0)
(-0.0239082 -0.960731 0)
(-0.0170775 -0.961925 0)
(-0.0102366 -0.962717 0)
(-0.00338886 -0.963113 0)
(0.00346099 -0.963114 0)
(0.0103084 -0.96272 0)
(0.0171488 -0.961929 0)
(0.0239787 -0.960736 0)
(0.0307949 -0.959127 0)
(-0.0324714 -0.973123 0)
(-0.0252706 -0.974762 0)
(-0.018052 -0.97598 0)
(-0.0108223 -0.976789 0)
(-0.00358552 -0.977193 0)
(0.00365334 -0.977194 0)
(0.0108897 -0.976791 0)
(0.018119 -0.975983 0)
(0.0253367 -0.974766 0)
(0.0325365 -0.973127 0)
(-0.0342028 -0.987885 0)
(-0.0266302 -0.989569 0)
(-0.0190286 -0.990819 0)
(-0.0114108 -0.991649 0)
(-0.0037836 -0.992063 0)
(0.00384641 -0.992064 0)
(0.0114733 -0.99165 0)
(0.0190906 -0.99082 0)
(0.0266914 -0.98957 0)
(0.034263 -0.987886 0)
(-0.0358482 -1.00337 0)
(-0.0279287 -1.00512 0)
(-0.0199643 -1.00642 0)
(-0.0119757 -1.00728 0)
(-0.00397419 -1.00771 0)
(0.00403131 -1.00771 0)
(0.0120326 -1.00728 0)
(0.0200208 -1.00642 0)
(0.0279843 -1.00512 0)
(0.0359029 -1.00337 0)
(-0.0373728 -1.01952 0)
(-0.0291313 -1.02136 0)
(-0.0208327 -1.02272 0)
(-0.0125005 -1.02363 0)
(-0.00415161 -1.02408 0)
(0.00420249 -1.02408 0)
(0.0125512 -1.02363 0)
(0.020883 -1.02272 0)
(0.029181 -1.02136 0)
(0.0374216 -1.01952 0)
(-0.0387288 -1.03628 0)
(-0.030201 -1.03823 0)
(-0.021609 -1.03968 0)
(-0.0129712 -1.04063 0)
(-0.00431103 -1.04111 0)
(0.00435556 -1.04111 0)
(0.0130155 -1.04063 0)
(0.0216531 -1.03967 0)
(0.0302445 -1.03823 0)
(0.0387715 -1.03627 0)
(-0.0399859 -1.05359 0)
(-0.0311706 -1.05568 0)
(-0.0223083 -1.05721 0)
(-0.013394 -1.05823 0)
(-0.00445438 -1.05873 0)
(0.00449228 -1.05873 0)
(0.0134318 -1.05823 0)
(0.0223458 -1.05721 0)
(0.0312077 -1.05567 0)
(0.0400225 -1.05359 0)
(-0.0410553 -1.07141 0)
(-0.0319779 -1.07363 0)
(-0.0228911 -1.07526 0)
(-0.0137488 -1.07634 0)
(-0.00457523 -1.07687 0)
(0.00460677 -1.07687 0)
(0.0137802 -1.07634 0)
(0.0229224 -1.07526 0)
(0.0320089 -1.07362 0)
(0.0410861 -1.0714 0)
(-0.0419986 -1.08964 0)
(-0.0326554 -1.092 0)
(-0.0233756 -1.09373 0)
(-0.0140451 -1.09487 0)
(-0.00467668 -1.09544 0)
(0.00470206 -1.09544 0)
(0.0140703 -1.09487 0)
(0.0234008 -1.09372 0)
(0.0326804 -1.09199 0)
(0.0420235 -1.08963 0)
(-0.0428786 -1.10828 0)
(-0.0332646 -1.11075 0)
(-0.0237957 -1.11257 0)
(-0.0142982 -1.11377 0)
(-0.00476315 -1.11437 0)
(0.00478279 -1.11437 0)
(0.0143177 -1.11377 0)
(0.0238152 -1.11257 0)
(0.0332841 -1.11075 0)
(0.0428982 -1.10827 0)
(-0.0435344 -1.12716 0)
(-0.0336877 -1.12981 0)
(-0.024069 -1.13172 0)
(-0.0144607 -1.13297 0)
(-0.00481939 -1.13359 0)
(0.00483401 -1.13359 0)
(0.0144753 -1.13297 0)
(0.0240836 -1.13172 0)
(0.0337024 -1.12981 0)
(0.0435496 -1.12715 0)
(-0.0440045 -1.14632 0)
(-0.0339186 -1.14907 0)
(-0.0241816 -1.15104 0)
(-0.0145246 -1.15232 0)
(-0.00484279 -1.15296 0)
(0.00485344 -1.15296 0)
(0.0145352 -1.15232 0)
(0.0241924 -1.15103 0)
(0.0339297 -1.14907 0)
(0.0440162 -1.14631 0)
(-0.0442604 -1.16576 0)
(-0.0340422 -1.16846 0)
(-0.0242167 -1.17043 0)
(-0.0145383 -1.17173 0)
(-0.00484871 -1.17238 0)
(0.00485647 -1.17238 0)
(0.0145461 -1.17173 0)
(0.0242247 -1.17042 0)
(0.0340505 -1.16845 0)
(0.0442694 -1.16576 0)
(-0.0441703 -1.18509 0)
(-0.0340152 -1.18781 0)
(-0.0241601 -1.18982 0)
(-0.0144936 -1.19114 0)
(-0.00483385 -1.1918 0)
(0.00483969 -1.19179 0)
(0.0144995 -1.19114 0)
(0.0241662 -1.18981 0)
(0.0340216 -1.18781 0)
(0.0441772 -1.18509 0)
(-0.0436449 -1.20405 0)
(-0.0337416 -1.20698 0)
(-0.0239043 -1.20907 0)
(-0.014319 -1.21042 0)
(-0.0047741 -1.21109 0)
(0.00477902 -1.21109 0)
(0.014324 -1.21042 0)
(0.0239094 -1.20907 0)
(0.0337472 -1.20698 0)
(0.043651 -1.20404 0)
(-0.0426292 -1.22299 0)
(-0.0331885 -1.22596 0)
(-0.023415 -1.22805 0)
(-0.0139911 -1.22939 0)
(-0.00466177 -1.23005 0)
(0.00466639 -1.23005 0)
(0.0139958 -1.22939 0)
(0.0234198 -1.22805 0)
(0.0331936 -1.22596 0)
(0.0426347 -1.22299 0)
(-0.0411785 -1.24185 0)
(-0.0323378 -1.24459 0)
(-0.0227404 -1.24657 0)
(-0.0135549 -1.24786 0)
(-0.00451297 -1.24849 0)
(0.00451764 -1.24849 0)
(0.0135596 -1.24786 0)
(0.0227451 -1.24657 0)
(0.0323427 -1.24459 0)
(0.0411837 -1.24185 0)
(-0.0392938 -1.26015 0)
(-0.0311889 -1.26263 0)
(-0.0219066 -1.26447 0)
(-0.0130356 -1.26569 0)
(-0.00433728 -1.26629 0)
(0.00434211 -1.26629 0)
(0.0130404 -1.26569 0)
(0.0219113 -1.26447 0)
(0.0311938 -1.26263 0)
(0.0392989 -1.26015 0)
(-0.0370468 -1.27755 0)
(-0.029762 -1.27984 0)
(-0.0209154 -1.2816 0)
(-0.0124318 -1.28277 0)
(-0.00413401 -1.28335 0)
(0.00413905 -1.28335 0)
(0.0124368 -1.28277 0)
(0.0209203 -1.2816 0)
(0.0297671 -1.27984 0)
(0.0370522 -1.27755 0)
(-0.0345402 -1.29375 0)
(-0.0280486 -1.29604 0)
(-0.0197438 -1.2978 0)
(-0.0117203 -1.29896 0)
(-0.00389437 -1.29953 0)
(0.00389952 -1.29953 0)
(0.0117255 -1.29896 0)
(0.0197488 -1.2978 0)
(0.0280538 -1.29604 0)
(0.0345455 -1.29374 0)
(-0.0318752 -1.30891 0)
(-0.0260287 -1.31122 0)
(-0.0183962 -1.31297 0)
(-0.0108957 -1.3141 0)
(-0.00361542 -1.31467 0)
(0.00362048 -1.31467 0)
(0.0109007 -1.3141 0)
(0.0184011 -1.31297 0)
(0.0260338 -1.31122 0)
(0.0318804 -1.30891 0)
(-0.0289746 -1.32308 0)
(-0.023787 -1.32531 0)
(-0.0168836 -1.32698 0)
(-0.00997642 -1.32808 0)
(-0.00330524 -1.32862 0)
(0.00331 -1.32862 0)
(0.00998115 -1.32808 0)
(0.0168882 -1.32698 0)
(0.0237918 -1.32531 0)
(0.0289796 -1.32308 0)
(-0.0258302 -1.33598 0)
(-0.0213277 -1.33813 0)
(-0.0152078 -1.33971 0)
(-0.00896855 -1.34075 0)
(-0.00296712 -1.34127 0)
(0.00297142 -1.34127 0)
(0.00897285 -1.34075 0)
(0.015212 -1.33971 0)
(0.021332 -1.33812 0)
(0.0258347 -1.33598 0)
(-0.0225438 -1.3475 0)
(-0.0187049 -1.34954 0)
(-0.0134043 -1.35103 0)
(-0.00789044 -1.35202 0)
(-0.00260678 -1.35251 0)
(0.00261054 -1.35251 0)
(0.00789421 -1.35202 0)
(0.0134081 -1.35103 0)
(0.0187087 -1.34954 0)
(0.0225478 -1.3475 0)
(-0.0191611 -1.35758 0)
(-0.015962 -1.3595 0)
(-0.0114982 -1.36088 0)
(-0.00675734 -1.3618 0)
(-0.00222939 -1.36226 0)
(0.00223263 -1.36226 0)
(0.00676059 -1.3618 0)
(0.0115015 -1.36088 0)
(0.0159653 -1.3595 0)
(0.0191646 -1.35758 0)
(-0.0157055 -1.36612 0)
(-0.0131263 -1.3679 0)
(-0.00950502 -1.36917 0)
(-0.00557915 -1.37003 0)
(-0.00183844 -1.37046 0)
(0.00184124 -1.37046 0)
(0.00558196 -1.37003 0)
(0.00950787 -1.36917 0)
(0.0131291 -1.36789 0)
(0.0157085 -1.36612 0)
(-0.0122094 -1.37303 0)
(-0.0102291 -1.37467 0)
(-0.00744526 -1.37585 0)
(-0.00436669 -1.37666 0)
(-0.0014374 -1.37706 0)
(0.00143986 -1.37706 0)
(0.00436917 -1.37666 0)
(0.0074478 -1.37585 0)
(0.0102316 -1.37467 0)
(0.0122119 -1.37303 0)
(-0.00870495 -1.37824 0)
(-0.00730476 -1.37978 0)
(-0.00534353 -1.38089 0)
(-0.00313281 -1.38165 0)
(-0.00103023 -1.38203 0)
(0.00103248 -1.38203 0)
(0.00313508 -1.38165 0)
(0.00534586 -1.38089 0)
(0.00730704 -1.37978 0)
(0.00870725 -1.37824 0)
(-0.00522745 -1.38174 0)
(-0.00438991 -1.3832 0)
(-0.00322799 -1.38426 0)
(-0.00189252 -1.38498 0)
(-0.000621534 -1.38536 0)
(0.000623714 -1.38536 0)
(0.00189472 -1.38498 0)
(0.00323024 -1.38426 0)
(0.00439211 -1.3832 0)
(0.00522965 -1.38174 0)
(-0.00180455 -1.38353 0)
(-0.00151295 -1.38494 0)
(-0.00112457 -1.38597 0)
(-0.000659415 -1.38667 0)
(-0.000215527 -1.38704 0)
(0.000217735 -1.38704 0)
(0.000661651 -1.38667 0)
(0.00112686 -1.38597 0)
(0.00151521 -1.38494 0)
(0.00180679 -1.38353 0)
(0.00155461 -1.38365 0)
(0.00131143 -1.38503 0)
(0.00094838 -1.38604 0)
(0.000556756 -1.38673 0)
(0.000184661 -1.38709 0)
(-0.000182377 -1.38709 0)
(-0.000554442 -1.38673 0)
(-0.000946014 -1.38604 0)
(-0.00130908 -1.38503 0)
(-0.00155228 -1.38365 0)
(0.00483052 -1.38213 0)
(0.00406589 -1.3835 0)
(0.00297463 -1.3845 0)
(0.00174553 -1.3852 0)
(0.00057565 -1.38555 0)
(-0.000573289 -1.38555 0)
(-0.00174314 -1.3852 0)
(-0.00297219 -1.3845 0)
(-0.00406346 -1.3835 0)
(-0.00482812 -1.38213 0)
(0.00800042 -1.37903 0)
(0.00673066 -1.38039 0)
(0.00493522 -1.3814 0)
(0.00289526 -1.3821 0)
(0.000953678 -1.38247 0)
(-0.000951264 -1.38247 0)
(-0.00289281 -1.3821 0)
(-0.00493273 -1.3814 0)
(-0.00672818 -1.38039 0)
(-0.00799797 -1.37903 0)
(0.0110646 -1.37439 0)
(0.00930452 -1.37575 0)
(0.00682459 -1.37678 0)
(0.00400162 -1.37751 0)
(0.00131726 -1.37789 0)
(-0.00131483 -1.37789 0)
(-0.00399917 -1.37751 0)
(-0.00682209 -1.37678 0)
(-0.00930204 -1.37575 0)
(-0.0110622 -1.37439 0)
(0.0140252 -1.36825 0)
(0.0117905 -1.36963 0)
(0.0086369 -1.37071 0)
(0.00505974 -1.37148 0)
(0.00166471 -1.37188 0)
(-0.00166231 -1.37188 0)
(-0.00505732 -1.37148 0)
(-0.00863443 -1.37071 0)
(-0.011788 -1.36963 0)
(-0.0140227 -1.36825 0)
(0.0168657 -1.36069 0)
(0.0141688 -1.36209 0)
(0.0103567 -1.36323 0)
(0.00605934 -1.36406 0)
(0.00199244 -1.3645 0)
(-0.00199012 -1.3645 0)
(-0.00605699 -1.36406 0)
(-0.0103543 -1.36323 0)
(-0.0141664 -1.36209 0)
(-0.0168633 -1.36069 0)
(0.0195864 -1.3517 0)
(0.0164413 -1.35317 0)
(0.0119795 -1.35441 0)
(0.00699641 -1.35535 0)
(0.0022989 -1.35584 0)
(-0.00229668 -1.35584 0)
(-0.00699415 -1.35535 0)
(-0.0119772 -1.35441 0)
(-0.016439 -1.35317 0)
(-0.019584 -1.3517 0)
(0.0222052 -1.34135 0)
(0.0186237 -1.34292 0)
(0.0135107 -1.34431 0)
(0.00787215 -1.34539 0)
(0.00258405 -1.34598 0)
(-0.00258193 -1.34598 0)
(-0.00786997 -1.34539 0)
(-0.0135084 -1.34431 0)
(-0.0186214 -1.34292 0)
(-0.0222029 -1.34135 0)
(0.0247267 -1.32965 0)
(0.02072 -1.33136 0)
(0.0149497 -1.33297 0)
(0.0086833 -1.33427 0)
(0.002846 -1.335 0)
(-0.00284395 -1.335 0)
(-0.00868117 -1.33427 0)
(-0.0149474 -1.33297 0)
(-0.0207176 -1.33136 0)
(-0.0247243 -1.32966 0)
(0.027153 -1.31665 0)
(0.0227338 -1.31853 0)
(0.0162912 -1.32043 0)
(0.00942032 -1.32205 0)
(0.00307975 -1.32298 0)
(-0.00307778 -1.32299 0)
(-0.00941823 -1.32205 0)
(-0.016289 -1.32043 0)
(-0.0227314 -1.31853 0)
(-0.0271506 -1.31665 0)
(0.0294399 -1.30237 0)
(0.0246234 -1.30443 0)
(0.017491 -1.30671 0)
(0.0100445 -1.3088 0)
(0.00326901 -1.31006 0)
(-0.00326709 -1.31006 0)
(-0.0100424 -1.3088 0)
(-0.0174887 -1.30671 0)
(-0.0246209 -1.30443 0)
(-0.0294373 -1.30237 0)
(0.031396 -1.28685 0)
(0.0262034 -1.28904 0)
(0.0183902 -1.29182 0)
(0.01046 -1.29461 0)
(0.00338126 -1.29641 0)
(-0.00337937 -1.29641 0)
(-0.010458 -1.29461 0)
(-0.0183879 -1.29182 0)
(-0.026201 -1.28904 0)
(-0.0313935 -1.28686 0)
(0.0325443 -1.27005 0)
(0.0270011 -1.27236 0)
(0.0186091 -1.27596 0)
(0.010549 -1.27982 0)
(0.00341261 -1.28242 0)
(-0.00341072 -1.28242 0)
(-0.010547 -1.27983 0)
(-0.018607 -1.27596 0)
(-0.026999 -1.27236 0)
(-0.0325422 -1.27005 0)
(0.0317253 -1.25155 0)
(0.0259573 -1.25462 0)
(0.0174189 -1.26021 0)
(0.0102938 -1.26564 0)
(0.00360431 -1.26877 0)
(-0.00360235 -1.26877 0)
(-0.0102919 -1.26564 0)
(-0.0174171 -1.26021 0)
(-0.0259556 -1.25463 0)
(-0.0317237 -1.25156 0)
(0.0264009 -1.22917 0)
(0.0211186 -1.23637 0)
(0.0145742 -1.24733 0)
(0.00980605 -1.25417 0)
(0.00521757 -1.25462 0)
(-0.00521563 -1.25462 0)
(-0.00980426 -1.25417 0)
(-0.0145727 -1.24733 0)
(-0.0211174 -1.23637 0)
(-0.0263999 -1.22917 0)
(0.0146453 -1.19289 0)
(0.0102063 -1.2203 0)
(0.0140647 -1.24239 0)
(0.00729876 -1.24555 0)
(0.0104537 -1.23771 0)
(-0.0104522 -1.23771 0)
(-0.00729697 -1.24555 0)
(-0.014064 -1.24239 0)
(-0.0102052 -1.2203 0)
(-0.0146446 -1.19289 0)
(0.00212412 -1.10817 0)
(-0.0117715 -1.23566 0)
(0.0219134 -1.25247 0)
(-0.00416472 -1.2337 0)
(0.0150878 -1.22442 0)
(-0.0150869 -1.22442 0)
(0.00416641 -1.2337 0)
(-0.0219134 -1.25247 0)
(0.0117724 -1.23567 0)
(-0.00212418 -1.10817 0)
(0.00713272 -0.00143347 0)
(0.00855315 -0.00139205 0)
(0.00992793 -0.00134254 0)
(0.0112492 -0.00128533 0)
(0.012509 -0.00122102 0)
(0.0137005 -0.00115 0)
(0.0148168 -0.00107256 0)
(0.0158517 -0.000989015 0)
(0.0167991 -0.000899715 0)
(0.0176535 -0.000805069 0)
(0.0184099 -0.000705549 0)
(0.0190637 -0.000601686 0)
(0.0196108 -0.00049406 0)
(0.020048 -0.000383273 0)
(0.0203722 -0.000269919 0)
(0.0205815 -0.000154569 0)
(0.0206752 -3.82093e-05 0)
(0.0206498 7.68393e-05 0)
(0.0205055 0.000191065 0)
(0.0202457 0.000303832 0)
(0.0198725 0.000413643 0)
(0.019388 0.000519668 0)
(0.0187956 0.000621306 0)
(0.0180994 0.000717926 0)
(0.0173041 0.000808884 0)
(0.0164152 0.00089357 0)
(0.0154389 0.000971437 0)
(0.0143819 0.001042 0)
(0.0132515 0.00110478 0)
(0.0120557 0.00115921 0)
(0.0108034 0.00120443 0)
(0.00950476 0.00123907 0)
(0.00817161 0.00126079 0)
(0.00681877 0.00126572 0)
(0.00546543 0.00124725 0)
(0.00413774 0.00119306 0)
(0.00287379 0.00107972 0)
(0.00173141 0.000872781 0)
(0.000786167 0.000558788 0)