/*--------------------------------*- C++ -*----------------------------------*\
  =========                 |
  \\      /  F ield         | OpenFOAM: The Open Source CFD Toolbox
   \\    /   O peration     | Website:  https://openfoam.org
    \\  /    A nd           | Version:  8
     \\/     M anipulation  |
\*---------------------------------------------------------------------------*/
FoamFile
{
    version     2.0;
    format      ascii;
    class       volScalarField;
    location    "1.1";
    object      epsilon;
}
// * * * * * * * * * * * * * * * * * * * * * * * * * * * * * * * * * * * * * //

dimensions      [0 2 -3 0 0 0 0];

internalField   nonuniform List<scalar> 
9150
(
0.0314049
0.01255
0.00319558
0.00107797
0.000658136
0.000658136
0.00107797
0.00319558
0.01255
0.0314049
0.0303104
0.00885025
0.00180943
0.00071701
0.000508026
0.000508026
0.00071701
0.00180943
0.00885025
0.0303104
0.0285131
0.00704639
0.0011856
0.000599672
0.000459841
0.000459841
0.000599672
0.0011856
0.00704639
0.0285131
0.0265773
0.00610946
0.000900128
0.000564992
0.000445824
0.000445824
0.000564992
0.000900128
0.00610946
0.0265773
0.0245701
0.00571184
0.000757098
0.000557988
0.000444363
0.000444363
0.000557988
0.000757098
0.00571184
0.0245701
0.125376
0.0543351
0.0256446
0.0174606
0.014407
0.014407
0.0174607
0.0256446
0.0543352
0.125376
0.0765358
0.0234364
0.0145044
0.0109495
0.00901227
0.00901227
0.0109495
0.0145045
0.0234364
0.0765358
0.0555449
0.0180633
0.0081845
0.0056048
0.00443594
0.00443595
0.00560481
0.00818451
0.0180633
0.0555449
0.0426496
0.0153592
0.00503699
0.00275931
0.00200791
0.00200791
0.00275931
0.00503699
0.0153592
0.0426496
0.0357361
0.0138186
0.00365058
0.00152233
0.00100746
0.00100746
0.00152233
0.00365057
0.0138186
0.0357361
1.74953
0.19668
0.0555167
0.0255891
0.017664
0.0176639
0.0255862
0.0554931
0.196526
1.74816
0.284538
0.120808
0.050009
0.0251005
0.0177981
0.0177981
0.0251005
0.0500086
0.120804
0.284535
0.238768
0.106341
0.0494221
0.0249227
0.0179697
0.0179697
0.0249227
0.0494221
0.10634
0.238769
0.199772
0.0948394
0.0488431
0.0247017
0.0181399
0.0181399
0.0247018
0.0488431
0.0948395
0.199772
0.158396
0.0894503
0.0449178
0.0233713
0.0177255
0.0177255
0.0233713
0.0449179
0.0894505
0.158397
368.659
371.524
373.429
374.492
374.873
374.846
374.387
373.215
371.181
368.17
157.286
158.416
159.226
159.736
159.969
159.942
159.653
159.083
158.209
157.009
121.616
122.426
123.021
123.406
123.586
123.564
123.34
122.909
122.266
121.404
111.157
111.818
112.305
112.622
112.774
112.761
112.582
112.235
111.716
111.019
109.192
109.739
110.143
110.41
110.542
110.542
110.407
110.135
109.722
109.159
111.604
112.039
112.361
112.578
112.695
112.712
112.629
112.442
112.144
111.725
116.89
117.194
117.423
117.584
117.685
117.727
117.709
117.626
117.471
117.229
124.355
124.498
124.61
124.703
124.786
124.86
124.926
124.977
125.004
124.99
133.608
133.546
133.512
133.519
133.578
133.693
133.863
134.083
134.342
134.623
144.384
144.064
143.843
143.739
143.764
143.926
144.223
144.652
145.2
145.85
156.475
155.826
155.365
155.115
155.091
155.301
155.747
156.425
157.324
158.427
169.693
168.621
167.85
167.407
167.309
167.565
168.178
169.146
170.459
172.1
183.835
182.218
181.05
180.355
180.149
180.443
181.24
182.537
184.328
186.597
198.634
196.337
194.673
193.66
193.31
193.63
194.623
196.291
198.626
201.62
213.718
210.617
208.368
206.976
206.445
206.779
207.98
210.054
213.002
216.825
228.624
224.632
221.733
219.916
219.173
219.504
220.914
223.415
227.023
231.761
242.857
237.931
234.346
232.073
231.092
231.397
232.996
235.908
240.167
245.823
255.926
250.065
245.79
243.05
241.812
242.062
243.807
247.068
251.891
258.347
267.348
260.612
255.682
252.49
250.991
251.16
252.998
256.525
261.786
268.85
276.748
269.225
263.706
260.104
258.36
258.44
260.336
264.065
269.666
277.203
283.829
275.63
269.613
265.67
263.723
263.727
265.67
269.566
275.456
283.409
288.269
279.58
273.215
269.038
266.955
266.915
268.902
272.936
279.071
287.395
289.811
280.924
274.421
270.153
268.019
267.966
269.981
274.095
280.379
288.949
288.465
279.721
273.318
269.112
267.009
266.96
268.958
273.042
279.297
287.857
284.642
276.321
270.212
266.192
264.178
264.127
266.039
269.951
275.947
284.162
279.008
271.267
265.573
261.817
259.925
259.858
261.611
265.216
270.739
278.287
272.21
265.14
259.933
256.491
254.743
254.651
256.205
259.424
264.352
271.061
264.802
258.479
253.819
250.731
249.153
249.049
250.405
253.228
257.545
263.405
257.336
251.82
247.747
245.045
243.663
243.572
244.757
247.222
250.984
256.078
250.408
245.696
242.212
239.902
238.731
238.676
239.727
241.889
245.176
249.616
244.556
240.586
237.65
235.713
234.748
234.741
235.688
237.595
240.48
244.37
240.181
236.864
234.416
232.81
232.03
232.067
232.924
234.61
237.145
240.559
237.563
234.809
232.78
231.456
230.827
230.893
231.658
233.137
235.35
238.329
236.919
234.645
232.963
231.863
231.344
231.41
232.069
233.339
235.242
237.809
238.454
236.567
235.152
234.212
233.75
233.778
234.308
235.357
236.947
239.109
242.375
240.761
239.517
238.656
238.192
238.138
238.51
239.323
240.592
242.343
248.863
247.382
246.192
245.317
244.782
244.603
244.795
245.367
246.325
247.676
258.066
256.546
255.265
254.267
253.587
253.246
253.255
253.612
254.308
255.33
270.114
268.312
266.752
265.498
264.596
264.068
263.917
264.13
264.677
265.517
285.03
282.614
280.537
278.876
277.676
276.955
276.706
276.897
277.478
278.375
302.569
299.153
296.306
294.091
292.538
291.65
291.401
291.747
292.615
293.906
322.06
317.312
313.502
310.644
308.731
307.738
307.627
308.341
309.799
311.894
342.362
336.191
331.392
327.91
325.694
324.697
324.87
326.16
328.505
331.821
362.261
354.887
349.267
345.293
342.886
341.988
342.556
344.558
347.969
352.771
381.035
372.877
366.701
362.408
359.923
359.195
360.193
362.911
367.364
373.589
398.982
390.239
383.667
379.168
376.67
376.127
377.52
380.861
386.19
393.587
416.407
407.187
400.314
395.676
393.197
392.828
394.554
398.387
404.377
412.608
433.479
423.949
416.877
412.163
409.734
409.54
411.558
415.797
422.296
431.13
450.796
440.94
433.696
428.947
426.607
426.618
428.948
433.59
440.567
449.926
468.537
458.408
451.048
446.326
444.146
444.442
447.172
452.319
459.89
469.913
486.91
476.586
469.182
464.566
462.639
463.335
466.61
472.441
480.827
491.783
506.202
495.734
488.334
483.886
482.303
483.527
487.521
494.265
503.756
516.014
526.808
516.135
508.705
504.43
503.247
505.114
510.01
517.918
528.831
542.751
549.167
538.007
530.389
526.215
525.433
528.028
534.008
543.382
556.147
572.25
572.946
561.198
553.261
549.072
548.624
551.959
559.154
570.319
585.592
605.147
598.335
585.779
577.251
572.781
572.438
576.326
584.598
597.465
615.196
638.154
626.156
612.081
602.369
597.13
596.475
600.545
609.531
623.697
643.39
669.054
656.965
640.136
628.398
621.775
620.319
624.14
633.416
648.413
669.502
697.16
689.258
668.858
654.526
646.09
643.478
646.719
655.942
671.383
693.402
722.488
720.517
696.655
679.709
669.375
665.486
667.996
676.977
692.62
715.241
745.28
749.592
722.664
703.306
691.175
686.054
687.846
696.578
712.39
735.553
766.465
776.634
746.752
725.099
711.278
705.032
706.227
714.849
730.989
754.822
786.575
801.483
768.762
744.898
729.48
722.235
723.021
731.824
748.747
774.011
807.96
824.25
788.611
762.49
745.471
737.283
737.792
746.993
765.004
792.073
828.584
844.834
806.111
777.526
758.764
749.589
749.879
759.639
779.003
808.228
847.66
864.286
821.215
789.473
768.605
758.287
758.355
768.812
789.836
821.789
865.227
880.115
832.054
796.799
773.641
762.103
761.938
773.124
795.86
830.565
877.861
888.812
836.136
797.608
772.312
759.648
759.309
771.256
795.721
833.205
884.49
887.781
831.662
790.44
763.327
749.718
749.284
761.988
788.089
828.104
882.714
879.315
818.693
774.619
745.804
731.381
730.906
744.35
772.102
814.968
874.177
857.305
794.077
748.394
718.651
703.797
703.301
717.138
745.789
790.258
852.096
819.954
756.877
711.384
681.809
667.045
666.533
680.249
708.703
752.954
814.628
769.185
708.58
664.913
636.534
622.358
621.837
634.942
662.163
704.523
763.611
707.884
651.871
611.387
585.027
571.838
571.328
583.465
608.671
647.822
702.228
641.542
590.686
553.922
529.973
517.984
517.52
528.548
551.443
586.983
636.351
572.953
527.807
495.102
473.771
463.095
462.705
472.579
493.044
524.775
568.796
505.289
465.834
437.181
418.469
409.11
408.802
417.531
435.574
463.493
502.13
440.966
406.783
381.912
365.654
357.532
357.298
364.945
380.701
405.028
438.611
381.421
351.935
330.454
316.404
309.394
309.223
315.883
329.566
350.651
379.699
327.324
301.948
283.442
271.334
265.303
265.181
270.964
282.81
301.033
326.097
278.864
257.049
241.125
230.704
225.52
225.436
230.449
240.69
256.42
278.02
235.946
217.192
203.489
194.521
190.065
190.01
194.352
203.202
216.777
235.389
198.285
182.148
170.348
162.623
158.79
158.754
162.516
170.166
181.886
197.934
165.483
151.582
141.409
134.748
131.445
131.423
134.682
141.298
151.422
165.269
137.091
125.106
116.328
110.578
107.729
107.716
110.539
116.263
125.011
136.965
112.663
102.326
94.7487
89.7828
87.3229
87.3155
89.7606
94.7116
102.273
112.593
91.7745
82.8612
76.3211
72.0319
69.9072
69.9033
72.0204
76.3027
82.8363
91.742
74.0315
66.3568
60.7163
57.0124
55.1765
55.1743
57.0066
60.7094
66.352
74.0315
59.0881
52.4921
47.63
44.4299
42.8411
42.8387
44.4241
47.6252
52.4952
59.1084
46.6468
40.9777
36.7798
34.007
32.6261
32.6214
33.9944
36.7644
40.9679
46.6551
36.4274
31.5361
27.8938
25.4769
24.268
24.2597
25.4531
27.8586
31.4958
36.3916
28.1302
23.8832
20.7025
18.5811
17.515
17.5034
18.5472
20.6485
23.8122
28.0464
21.4329
17.7316
14.9461
13.0786
12.1355
12.1224
13.0399
14.8823
17.6436
21.3206
16.0183
12.8126
10.3926
8.76144
7.93308
7.92053
8.72387
10.3299
12.7239
15.9012
11.6128
8.90242
6.85608
5.46795
4.75732
4.74678
5.4363
6.80276
8.82569
11.5092
8.01754
5.8391
4.20124
3.08116
2.49978
2.49214
3.05816
4.16206
5.7816
7.93816
5.1265
3.52581
2.32852
1.50281
1.0663
1.06176
1.48902
2.30433
3.4889
5.07362
2.92966
1.91345
1.13621
0.603022
0.325524
0.323616
0.596883
1.1245
1.89401
2.89968
1.47963
0.947977
0.477555
0.186397
0.0644686
0.0640763
0.184764
0.473702
0.940518
1.46674
0.87328
0.486241
0.164552
0.0460981
0.0198597
0.0198416
0.045943
0.163944
0.484637
0.870068
363.724
357.897
350.702
342.092
332.058
320.628
307.871
293.905
278.896
263.045
246.604
230.186
215.004
200.4
186.214
172.465
159.23
146.589
134.607
123.322
112.75
102.885
93.7036
85.1717
77.2461
69.8791
63.0219
56.6259
50.6445
45.0341
39.7535
34.7637
30.0264
25.5014
21.1105
16.7348
12.5476
8.48991
5.0694
2.66756
155.369
153.215
150.614
147.561
144.057
140.113
135.753
131.013
125.943
120.606
115.096
109.572
104.221
98.9107
93.5845
88.2313
82.8697
77.5354
72.2714
67.1213
62.1243
57.3129
52.7114
48.3358
44.1942
40.2882
36.6137
33.1626
29.9237
26.884
24.0296
21.3467
18.8227
16.4476
14.2182
12.1485
10.3102
8.85228
8.28574
13.0096
120.245
118.73
116.913
114.793
112.369
109.65
106.653
103.402
99.9293
96.2771
92.4945
88.6393
84.7675
80.8652
76.9243
72.9464
68.9431
64.9343
60.9452
57.004
53.1387
49.3755
45.7367
42.2404
38.9
35.7241
32.7176
29.8816
27.2151
24.7151
22.3785
20.2033
18.1904
16.3476
14.6958
13.2836
12.2234
11.8065
13.1129
25.9525
110.081
108.847
107.36
105.612
103.599
101.32
98.7837
96.0052
93.0096
89.8294
86.5035
83.0728
79.5727
76.0147
72.4115
68.7778
65.1309
61.4901
57.8763
54.3115
50.8169
47.4127
44.1164
40.9432
37.905
35.0109
32.2671
29.678
27.2462
24.9737
22.8632
20.9195
19.1524
17.5806
16.2408
15.2065
14.6399
14.9744
17.9111
38.6125
108.393
107.368
106.111
104.607
102.84
100.797
98.474
95.8729
93.0095
89.9121
86.6231
83.1915
79.6571
76.0511
72.4035
68.7414
65.0891
61.4683
57.8992
54.4003
50.9887
47.6794
44.486
41.4197
38.4899
35.7039
33.0675
30.5855
28.2619
26.1011
24.1089
22.2946
20.6738
19.2738
18.1442
17.3819
17.1993
18.1704
22.5792
50.718
111.138
110.327
109.302
108.032
106.488
104.639
102.459
99.9276
97.0396
93.8149
90.3164
86.6222
82.7919
78.8879
74.9617
71.0525
67.1891
63.3942
59.6863
56.0809
52.591
49.2274
45.9996
42.9151
39.9802
37.2002
34.5794
32.1217
29.8313
27.7136
25.7762
24.0314
22.4991
21.2136
20.2364
19.687
19.8279
21.3708
27.1484
62.1485
116.863
116.318
115.58
114.606
113.347
111.745
109.741
107.275
104.301
100.792
96.8555
92.6318
88.2455
83.8141
79.4131
75.0851
70.8566
66.7458
62.767
58.9313
55.2472
51.7214
48.3592
45.1646
42.1408
39.2905
36.6161
34.1203
31.8067
29.6806
27.7509
26.0315
24.5461
23.3353
22.4719
22.0976
22.5245
24.5988
31.6825
73.2442
124.912
124.72
124.371
123.807
122.957
121.734
120.051
117.812
114.9
110.972
106.141
100.997
95.7539
90.5776
85.5209
80.6168
75.8828
71.329
66.9625
62.7882
58.8094
55.0282
51.4455
48.0618
44.877
41.8908
39.1036
36.5161
34.1309
31.953
29.9912
28.2613
26.7899
25.6234
24.8455
24.6199
25.3075
27.8861
36.2317
84.1486
134.919
135.191
135.365
135.367
135.104
134.48
133.402
131.723
128.323
123.318
117.604
111.413
105.169
99.0567
93.1857
87.5634
82.1925
77.0737
72.2062
67.5885
63.2183
59.0927
55.2082
51.5612
48.148
44.9653
42.0104
39.2822
36.7815
34.5123
32.4835
30.7118
29.2265
28.0794
27.365
27.2683
28.1984
31.2624
40.8384
94.9596
146.623
147.494
148.354
149.114
149.669
149.895
149.551
147.758
143.279
137.021
130.215
123.219
116.087
109.05
102.298
95.8571
89.7378
83.9412
78.4642
73.3011
68.4448
63.8871
59.6213
55.6392
51.9329
48.4954
45.3209
42.4055
39.7481
37.3512
35.2234
33.3818
31.8581
30.7094
30.0404
30.0575
31.2171
34.7548
45.5459
105.817
159.788
161.41
163.147
164.921
166.646
168.208
168.835
166.915
161.455
153.701
145.459
137.263
128.9
120.71
112.902
105.496
98.4958
91.9006
85.703
79.8927
74.4577
69.3852
64.6621
60.2758
56.2141
52.466
49.0221
45.8754
43.0223
40.4635
38.207
36.2702
34.6866
33.5181
32.8799
32.9994
34.3806
38.3873
50.3932
116.837
174.167
176.696
179.504
182.529
185.713
188.939
191.094
189.207
182.395
173.076
163.512
153.636
143.611
134.052
125
116.463
108.439
100.918
93.886
87.3258
81.2195
75.5482
70.2932
65.4362
60.96
56.849
53.0898
49.6717
46.588
43.8375
41.4262
39.3716
37.7093
36.5061
35.8875
36.1029
37.7051
42.1899
55.4422
128.197
189.492
193.091
197.169
201.677
206.576
211.696
215.661
214.089
205.806
194.98
184.162
172.238
160.275
149.06
138.551
128.712
119.518
110.943
102.962
95.5502
88.6816
82.3305
76.4716
71.0802
66.1336
61.6106
57.4931
53.7661
50.4196
47.4493
44.8598
42.668
40.9115
39.662
39.0562
39.3663
41.198
46.1898
60.778
140.178
205.479
210.327
215.881
222.063
228.746
235.387
240.891
241.046
231.282
219.429
207.024
192.344
178.455
165.501
153.414
142.145
131.653
121.903
112.863
104.499
96.7794
89.6701
83.1386
77.1532
71.6842
66.7043
62.1897
58.1206
54.4825
51.2681
48.4797
46.1339
44.2696
42.9637
42.3639
42.7663
44.8307
50.3416
66.2979
152.531
221.809
228.155
235.522
243.803
252.706
261.287
268.153
268.437
256.748
244.753
230.844
213.847
198.03
183.281
169.517
156.692
144.77
133.719
123.505
114.087
105.428
97.4847
90.2162
83.582
77.5445
72.0686
67.1238
62.6844
58.731
55.2525
52.2485
49.7349
47.7517
46.381
45.7816
46.274
48.5727
54.6114
71.9646
165.238
238.02
246.135
255.764
266.888
279.126
290.882
298.441
295.39
282.361
270.325
255.153
236.669
219.104
202.504
186.908
172.344
158.815
146.305
134.782
124.201
114.512
105.663
97.5999
90.2705
83.6266
77.6241
72.2239
67.3934
63.1075
59.3505
56.1193
53.4281
51.3184
49.877
49.2742
49.8551
52.3904
58.9657
77.745
178.242
253.39
263.377
275.522
290.045
306.261
320.105
327.056
323.824
311.582
298.621
282.444
262.386
242.627
223.671
205.79
189.118
173.697
159.515
146.526
134.667
123.867
114.051
105.149
97.0923
89.8183
83.271
77.4017
72.1694
67.5424
63.5002
60.036
57.1628
54.923
53.4084
52.8009
53.4704
56.2446
63.3639
83.5917
191.47
267.047
278.644
292.941
310.405
329.809
346.513
358.24
359.703
349.731
336.798
318.457
293.898
269.897
247.217
226.156
206.799
189.118
173.032
158.434
145.209
133.245
122.434
112.678
103.887
95.9802
88.8889
82.5523
76.9207
71.9553
67.6301
63.935
60.8815
58.5131
56.9266
56.3155
57.0752
60.0907
67.7584
89.447
204.804
278.372
291.026
306.498
325.04
346.043
367.785
388.868
401.359
394.483
384.336
364.963
331.327
300.128
272.107
246.994
224.494
204.326
186.236
169.997
155.413
142.308
130.533
119.955
110.46
101.95
94.3398
87.558
81.5458
76.2576
71.6625
67.7473
64.5222
62.0321
60.379
59.7685
60.6211
63.8796
72.0958
95.2432
218.098
287.356
300.797
317.093
336.219
357.38
380.112
404.832
430.997
432.291
419.074
405.266
366.871
328.083
294.785
265.847
240.472
218.075
198.212
180.533
164.755
150.65
138.026
126.722
116.603
107.554
99.4791
92.2962
85.9396
80.3584
75.5177
71.402
68.021
65.4216
63.7114
63.1081
64.0574
67.5591
76.3185
100.905
231.173
294.144
308.366
325.594
345.6
367.515
391.697
418.587
447.682
453.081
435.613
424.886
388.321
346.597
310.83
279.871
252.836
229.061
208.036
189.365
172.733
157.885
144.612
132.739
122.12
112.632
104.171
96.6512
90.0026
84.1708
79.119
74.8307
71.3161
68.6249
66.8706
66.2833
67.3336
71.0769
80.3677
106.355
243.85
298.691
313.765
332.19
353.277
375.691
401.191
430.152
459.154
459.959
440.922
427.982
394.003
353.713
318.58
287.785
260.629
236.567
215.166
196.079
179.019
163.752
150.077
137.828
126.86
117.054
108.305
100.527
93.6502
87.6198
82.3991
77.9723
74.3514
71.5896
69.807
69.246
70.4015
74.3824
84.1861
111.517
255.945
300.656
316.438
336.002
357.904
380.75
407.332
437.159
456.013
448.992
431.185
414.444
385.999
351.12
319.083
290.192
264.167
240.735
219.64
200.651
183.558
168.177
154.341
141.907
130.745
120.744
111.809
103.857
96.8202
90.6476
85.3043
80.7767
77.0798
74.2709
72.4774
71.9536
73.218
77.4297
87.7208
116.317
267.284
299.607
315.563
335.532
357.894
380.679
405.689
428.494
438.58
431.382
413.503
395.407
373.053
344.166
315.728
289.247
264.82
242.43
221.997
203.409
186.541
171.264
157.452
144.989
133.764
123.681
114.653
106.605
99.4753
93.2165
87.7971
83.2071
79.4652
76.6336
74.8467
74.3709
75.7463
80.1793
90.9258
120.693
277.713
295.455
310.828
330.151
352.271
373.569
394.586
412.381
419.894
412.563
396.09
379.143
361.802
338.031
312.106
287.369
264.209
242.735
222.957
204.831
188.282
173.216
159.538
147.15
135.959
125.881
116.838
108.764
101.601
95.3075
89.8559
85.2402
81.4832
78.6525
76.8892
76.4709
77.958
82.5995
93.7635
124.592
287.099
288.623
302.597
319.972
340.495
361.824
382.022
396.831
400.95
393.474
379.299
364.455
350.779
333.888
310.366
286.085
263.419
242.423
223.074
205.313
189.061
174.232
160.736
148.484
137.393
127.385
118.39
110.345
103.2
96.9171
91.4727
86.8649
83.1207
80.3125
78.5882
78.2356
79.8332
84.6676
96.206
127.974
295.333
280.192
292.414
307.392
324.932
343.987
363.804
380.475
384.235
375.667
362.535
349.053
336.844
324.443
307.95
285.321
262.532
241.649
222.522
205.02
189.026
174.433
161.145
149.069
138.125
128.236
119.337
111.369
104.286
98.0526
92.6503
88.0803
84.3739
81.6078
79.9362
79.6558
81.361
86.3705
98.2359
130.81
302.332
271.339
281.879
294.668
309.486
325.759
343.332
360.692
367.101
358.876
346.196
333.282
321.429
310.262
297.978
281.83
260.786
240.041
221.143
203.909
188.19
173.86
160.813
148.953
138.197
128.471
119.711
111.861
104.877
98.7285
93.3991
88.8938
85.2473
82.5408
80.9337
80.7308
82.5395
87.7054
99.849
133.091
308.038
262.954
272.054
283.05
295.733
309.691
324.892
340.432
347.778
341.66
330.268
317.87
306.071
295.081
284.175
271.844
256.215
237.184
218.725
201.879
186.515
172.51
159.757
148.162
137.641
128.121
119.54
111.846
104.996
98.9639
93.7352
89.3185
85.7519
83.1205
81.5885
81.4674
83.3759
88.6818
101.063
134.862
312.589
255.602
263.515
273.062
284.011
296.073
309.354
322.163
327.752
323.686
314.233
302.766
291.267
280.361
269.891
259.117
246.902
232.224
215.259
198.914
183.991
170.386
157.993
146.719
136.483
127.214
118.853
111.351
104.668
98.7805
93.6775
89.3707
85.9014
83.3583
81.9097
81.8727
83.8746
89.3006
101.872
136.094
315.854
249.613
256.555
264.946
274.558
285.051
296.253
305.582
308.995
305.904
298.071
287.778
276.897
266.32
256.191
246.181
235.636
223.805
210.138
195.018
180.623
167.502
155.543
144.654
134.757
125.786
117.685
110.409
103.923
98.2061
93.2511
89.0727
85.7155
83.2714
81.912
81.9588
84.0453
89.5676
102.274
136.773
317.803
245.164
251.279
258.713
267.253
276.167
284.625
290.757
292.546
289.435
282.42
273.115
262.97
252.891
243.19
233.755
224.195
213.972
202.569
189.75
176.385
163.891
152.459
142.023
132.518
123.888
116.083
109.063
102.8
97.2759
92.4875
88.4528
85.2196
82.8825
81.616
81.7444
83.9047
89.4984
102.285
136.916
318.473
242.352
247.702
254.214
261.677
269.06
275.193
278.85
278.864
275.076
268.228
259.473
249.925
240.36
231.116
222.184
213.326
204.178
194.365
183.608
171.572
159.734
148.869
138.924
129.847
121.588
114.106
107.367
101.347
96.0326
91.425
87.5455
84.4447
82.2198
81.0474
81.2534
83.4757
89.1157
101.93
136.553
317.925
241.286
245.929
251.599
258.074
264.135
268.454
269.995
268.236
263.402
256.201
247.544
238.298
229.095
220.231
211.722
203.4
194.987
186.164
176.633
166.167
155.197
144.909
135.472
126.841
118.972
111.829
105.384
99.6195
94.5255
90.1074
86.3899
83.4263
81.3157
80.2364
80.5143
82.7859
88.447
101.237
135.721
316.234
242.055
246.02
250.89
256.395
261.397
264.344
264.046
260.499
254.371
246.451
237.537
228.32
219.284
210.657
202.448
194.517
186.639
178.519
169.854
160.446
150.346
140.68
131.774
123.6
116.127
109.329
103.184
97.6785
92.8084
88.5829
85.0293
82.2035
80.2062
79.2162
79.5585
81.8659
87.5237
100.241
134.463
313.493
244.745
247.992
251.927
256.213
260.522
262.566
260.308
254.887
247.348
238.571
229.255
219.93
210.941
202.441
194.418
186.745
179.224
171.584
163.541
154.889
145.481
136.386
127.98
120.244
113.155
106.691
100.839
95.5875
90.9375
86.9012
83.5085
80.817
78.9287
78.0219
78.4198
80.7489
86.3798
98.9794
132.827
309.809
249.54
252.046
254.933
257.913
261.248
262.354
258.106
250.771
241.857
232.243
222.501
213.015
204.011
195.57
187.654
180.147
172.863
165.547
157.898
149.665
140.76
132.17
124.214
116.879
110.145
103.996
98.4183
93.408
88.9675
85.1115
81.872
79.3078
77.5211
76.6894
77.1325
79.469
85.0504
97.4913
130.865
305.297
256.741
258.594
260.522
262.181
264.025
263.345
257.086
248.049
237.892
227.481
217.291
207.586
198.49
190.018
182.11
174.651
167.47
160.319
152.893
144.864
136.299
128.133
120.57
113.591
107.176
101.31
95.9849
91.1962
86.9491
83.2599
80.162
77.7148
76.0201
75.2536
75.7306
78.0602
83.5713
95.8169
128.629
300.083
266.663
268.092
269.167
269.275
269.152
266.181
257.74
247.027
235.665
224.431
213.714
203.688
194.391
185.782
177.775
170.248
163.035
155.908
148.569
140.404
132.084
124.316
117.106
110.44
104.306
98.6924
93.5909
89.0003
84.9269
81.3879
78.4173
76.0744
74.46
73.7475
74.2468
76.5556
81.9774
93.9963
126.175
294.295
279.565
280.945
281.339
279.48
276.623
270.639
260.04
247.717
235.145
223.048
211.73
201.273
191.652
182.789
174.572
166.858
159.448
152.093
144.495
136.314
128.293
120.823
113.893
107.486
101.588
96.1884
91.2797
86.861
82.939
79.5313
76.6717
74.4189
72.8723
72.2019
72.7115
74.9863
80.3022
92.0682
123.555
288.064
295.585
297.489
297.131
292.275
286.282
277.155
264.049
249.987
236.187
223.196
211.192
200.181
190.097
180.835
172.261
164.206
156.471
148.815
140.922
132.727
124.919
117.671
110.959
104.759
99.0542
93.8315
89.084
84.8101
81.0164
77.72
74.9542
72.7766
71.2844
70.644
71.1523
73.3812
78.5769
90.0691
120.82
281.514
314.633
317.83
316.614
307.927
298.372
285.466
269.536
253.702
238.668
224.721
211.921
200.219
189.522
179.708
170.626
162.105
153.947
145.917
137.637
129.495
121.9
114.845
108.311
102.276
96.725
91.645
87.028
82.8722
79.1835
75.9783
73.2889
71.1712
69.7201
69.0978
69.5938
71.7661
76.83
88.0331
118.019
274.768
336.25
341.699
339.633
326.026
312.057
294.939
276.326
258.808
242.47
227.414
213.649
201.101
189.657
179.179
169.505
160.45
151.789
143.262
134.79
126.762
119.297
112.373
105.965
100.052
94.6171
89.6456
85.1294
81.0656
77.459
74.3252
71.6949
69.6223
68.1992
67.5836
68.0573
70.1637
75.0867
85.9905
115.194
267.94
359.327
367.798
364.343
344.326
324.23
304.042
283.818
264.741
247.014
230.753
215.945
202.493
190.258
179.083
168.796
159.196
150.04
141.03
132.465
124.499
117.107
110.26
103.93
98.0969
92.7397
87.8441
83.3998
79.4028
75.8564
72.7749
70.1871
68.1451
66.7378
66.1183
66.5606
68.5933
73.3688
83.9673
112.383
261.111
382.148
393.326
388.152
361.956
336.559
313.449
291.479
270.751
251.695
234.314
218.539
204.239
191.252
179.399
168.49
158.29
148.5
139.262
130.672
122.705
115.325
108.501
102.205
96.4098
91.0955
86.2446
81.8451
77.8911
74.3842
71.3368
68.7759
66.7511
65.348
64.715
65.118
67.0709
71.6947
81.9867
109.62
254.378
403.765
417.059
409.289
378.116
349.005
322.941
298.988
276.753
256.488
238.083
221.415
206.32
192.607
180.075
168.514
157.643
147.495
138.095
129.399
121.36
113.934
107.084
100.777
94.9843
89.6803
84.8456
80.4659
76.5329
73.0463
70.0164
67.468
65.4481
64.0389
63.3838
63.7409
65.6094
70.0796
80.0677
106.934
247.813
423.867
438.24
427.638
392.912
361.003
332.383
306.617
283.094
261.628
242.213
224.67
208.786
194.344
181.096
168.836
157.507
147.069
137.451
128.588
120.422
112.902
105.985
99.6306
93.8066
88.4842
83.6404
79.258
75.3263
71.8429
68.8155
66.2666
64.2406
62.8162
62.1318
62.4377
64.219
68.5359
78.2259
104.345
241.471
443.108
457.674
443.93
406.706
372.637
342.061
314.638
289.77
267.17
246.785
228.353
211.625
196.377
182.412
169.619
157.889
147.127
137.248
128.175
119.842
112.191
105.172
98.7407
92.8584
87.4931
82.6183
78.2139
74.2664
70.7709
67.7328
65.1722
63.1305
61.683
60.9634
61.2143
62.9073
67.074
76.477
101.884
235.422
462.467
476.458
459.201
419.954
384.047
351.786
322.784
296.677
273.063
251.669
232.302
214.728
198.729
184.152
170.852
158.7
147.586
137.415
128.102
119.573
111.763
104.616
98.0825
92.1194
86.6908
81.7666
77.3235
73.3455
69.8249
66.7647
64.1826
62.117
60.64
59.8805
60.0739
61.6789
65.7007
74.8321
99.5712
229.735
483.205
496.219
474.253
433.084
395.551
361.768
331.345
303.927
279.176
256.795
236.527
218.148
201.458
186.281
172.463
159.871
148.384
137.898
128.322
119.574
111.583
104.288
97.6322
91.57
86.0609
81.0717
76.5758
72.5545
68.9975
65.9054
63.2931
61.1966
59.6844
58.8809
59.0147
60.5323
64.4135
73.2852
97.3904
224.366
506.175
517.729
489.926
446.751
407.571
372.252
340.409
311.687
285.761
262.334
241.143
221.951
204.551
188.756
174.405
161.354
149.475
138.656
128.798
119.812
111.622
104.159
97.3656
91.1888
85.5851
80.5177
75.9573
71.882
68.2791
65.1467
62.4972
60.3637
58.8116
57.961
58.0337
59.4646
63.2098
71.8338
95.3392
219.316
532.014
541.534
507.038
461.616
420.554
383.525
350.137
320.027
292.861
268.336
246.175
226.134
207.993
191.555
176.647
163.116
150.826
139.654
129.495
120.255
111.85
104.206
97.2597
90.9554
85.2453
80.089
75.4541
71.316
67.6594
64.4798
61.7871
59.6118
58.0161
57.1158
57.1264
58.4721
62.0862
70.4747
93.415
214.587
560.733
567.547
526.325
478.216
434.86
395.824
360.681
329.033
300.52
274.815
251.624
230.686
211.764
194.651
179.159
165.125
152.402
140.86
130.385
120.875
112.24
104.402
97.2925
90.8501
85.0237
79.7697
75.0522
70.8441
67.1273
63.8949
61.1543
58.9333
57.2911
56.3393
56.2876
57.5498
61.0381
69.2035
91.613
210.167
592.681
596.526
548.31
496.733
450.581
409.208
372.076
338.721
308.736
281.759
257.468
235.578
215.834
198.01
181.907
167.347
154.172
142.243
131.436
121.643
112.768
104.726
97.4424
90.8533
84.9028
79.5438
74.7375
70.4536
66.6716
63.3819
60.5897
58.32
56.6291
55.6248
55.511
56.6918
60.0596
68.0142
89.926
206.042
630.672
628.174
571.033
516.32
467.328
423.473
384.2
349.006
317.442
289.108
263.652
240.76
220.154
201.59
184.851
169.743
156.099
143.769
132.619
122.532
113.407
105.152
97.6877
90.9452
84.8647
79.3954
74.4952
70.1313
66.2802
62.93
60.0834
57.763
56.0221
54.9647
54.7895
55.8913
59.144
66.8994
88.3446
202.191
668.58
660.338
595.929
537.294
485.05
438.468
396.892
359.743
326.515
296.762
270.091
246.159
224.662
205.333
187.938
172.27
158.144
145.401
133.899
123.512
114.13
105.656
98.0063
91.1058
84.8911
79.3077
74.3105
69.8635
65.9408
62.528
59.6254
57.253
55.4612
54.3509
54.1153
55.1406
58.2833
65.8503
86.8575
198.591
703.259
691.668
621.508
558.789
503.18
453.79
409.851
370.704
335.777
304.576
276.669
251.679
229.276
209.172
191.112
174.874
160.261
147.101
135.242
124.55
114.909
106.213
98.3749
91.3141
84.9631
79.2638
74.1678
69.6363
65.6407
62.1643
59.2047
56.7799
54.9374
53.7745
53.4798
54.4313
57.469
64.8574
85.452
195.216
734.159
720.79
646.137
579.741
520.997
468.933
422.711
381.612
345.015
312.384
283.251
257.21
233.906
213.029
194.306
177.5
162.401
148.825
136.61
125.614
115.713
106.796
98.7695
91.5486
85.0613
79.2461
74.0513
69.4352
65.3667
61.8267
58.8105
56.3335
54.4408
53.2265
52.8743
53.7545
56.6915
63.91
84.1143
192.035
761.559
747.344
669.128
599.568
538.028
483.52
435.172
392.228
354.037
320.028
289.707
262.643
238.459
216.826
197.454
180.09
164.513
150.527
137.962
126.668
116.511
107.378
99.1655
91.7869
85.1657
79.2365
73.9445
69.2454
65.1053
61.5029
58.4311
55.9032
53.9616
52.6972
52.2893
53.1008
55.9409
62.9961
82.8283
189.036
785.664
771.492
690.421
618.119
554.098
497.367
447.055
402.39
362.695
327.379
295.925
267.88
242.85
220.487
200.487
182.585
166.545
152.164
139.26
127.676
117.272
107.928
99.5373
92.0065
85.2559
79.2167
73.8311
69.0519
64.8429
61.1804
58.0553
55.4784
53.4898
52.1772
51.7155
52.4605
55.2067
62.1036
81.5834
186.325
808.138
794.197
710.457
635.599
569.265
510.459
458.304
412.017
370.901
334.346
301.816
272.838
247.002
223.943
203.345
184.928
168.448
153.688
140.462
128.602
117.964
108.42
99.8593
92.1844
85.3114
79.1683
73.6943
68.8396
64.5658
60.8468
57.6715
55.0485
53.0154
51.6569
51.1438
51.8243
54.4781
61.2143
80.2977
182.886
828.893
815.954
729.825
652.368
583.715
522.873
468.928
421.078
378.602
340.865
307.31
277.447
250.846
227.13
205.967
187.066
170.17
155.057
141.528
129.411
118.554
108.824
100.106
92.2977
85.3118
79.073
73.5179
68.5941
64.2609
60.4902
57.2688
54.6034
52.5292
51.1279
50.5662
51.1849
53.7499
60.3378
79.0905
179.759
853.737
839.002
748.942
668.649
597.575
534.66
478.933
429.549
385.751
346.877
312.344
281.641
254.32
229.986
208.295
188.944
171.664
156.224
142.418
130.066
119.01
109.112
100.252
92.3237
85.2369
78.9131
73.286
68.3012
63.9156
60.0993
56.8373
54.1341
52.0229
50.5825
49.975
50.534