/*--------------------------------*- C++ -*----------------------------------*\
  =========                 |
  \\      /  F ield         | OpenFOAM: The Open Source CFD Toolbox
   \\    /   O peration     | Website:  https://openfoam.org
    \\  /    A nd           | Version:  8
     \\/     M anipulation  |
\*---------------------------------------------------------------------------*/
FoamFile
{
    version     2.0;
    format      ascii;
    class       volScalarField;
    location    "1.1";
    object      k;
}
// * * * * * * * * * * * * * * * * * * * * * * * * * * * * * * * * * * * * * //

dimensions      [0 2 -2 0 0 0 0];

internalField   nonuniform List<scalar> 
9150
(
0.00183117
0.000948672
0.000503843
0.00036132
0.000290017
0.000290017
0.00036132
0.000503843
0.000948672
0.00183117
0.00178838
0.000754386
0.000427686
0.000311742
0.000246436
0.000246436
0.000311742
0.000427685
0.000754385
0.00178838
0.00171696
0.00065907
0.00039545
0.000289959
0.000229591
0.000229591
0.000289958
0.000395449
0.00065907
0.00171696
0.00163834
0.000609142
0.000382905
0.000281612
0.000223621
0.000223621
0.000281612
0.000382905
0.000609142
0.00163834
0.00155478
0.000587801
0.000378486
0.000278894
0.000222048
0.000222048
0.000278894
0.000378486
0.000587801
0.00155478
0.00287705
0.00269855
0.00216257
0.00209944
0.00199068
0.00199068
0.00209944
0.00216257
0.00269856
0.00287705
0.00231308
0.00154619
0.00145214
0.00154923
0.00146944
0.00146945
0.00154923
0.00145214
0.00154619
0.00231308
0.00205431
0.00127352
0.000981956
0.00101985
0.000947786
0.000947786
0.00101985
0.000981957
0.00127352
0.00205431
0.00187206
0.00112534
0.000705234
0.000659063
0.000585937
0.000585937
0.000659064
0.000705235
0.00112534
0.00187206
0.00179164
0.00103177
0.00056137
0.000453616
0.000382625
0.000382625
0.000453616
0.00056137
0.00103177
0.00179164
0.0168055
0.00737866
0.00339614
0.00245797
0.00222857
0.00222854
0.00245762
0.00339399
0.00737176
0.016796
0.00501338
0.00394334
0.00286784
0.00240828
0.00224156
0.00224156
0.00240828
0.00286783
0.00394325
0.00501333
0.00446035
0.00357787
0.00285031
0.00240959
0.00226159
0.00226159
0.00240959
0.00285031
0.00357787
0.00446036
0.00396041
0.00331449
0.0028355
0.00240696
0.00228103
0.00228103
0.00240696
0.0028355
0.0033145
0.00396042
0.00339271
0.00326116
0.00272179
0.00235549
0.00225515
0.00225515
0.00235549
0.00272179
0.00326117
0.00339271
0.944984
0.949905
0.95318
0.95502
0.955701
0.955684
0.954929
0.952957
0.949514
0.944394
1.95386
1.96579
1.97459
1.98036
1.98315
1.98299
1.97987
1.97376
1.96458
1.95224
2.44005
2.45417
2.46465
2.47155
2.47492
2.47476
2.47106
2.46381
2.45294
2.43838
2.78671
2.80156
2.81259
2.81988
2.82346
2.82337
2.81957
2.81205
2.80074
2.78554
3.08171
3.09641
3.10733
3.11457
3.1182
3.11823
3.11465
3.10742
3.09644
3.0816
3.35631
3.37016
3.38047
3.38735
3.39089
3.39113
3.38804
3.38156
3.37159
3.35796
3.62503
3.63735
3.64654
3.65276
3.65612
3.65664
3.65432
3.64908
3.64078
3.62924
3.89529
3.90537
3.91295
3.9182
3.92125
3.92215
3.92089
3.91739
3.9115
3.90299
4.17072
4.17783
4.18325
4.1872
4.18981
4.19117
4.19127
4.19002
4.18728
4.18279
4.45266
4.45602
4.45868
4.46093
4.46293
4.46479
4.46651
4.46803
4.46918
4.46972
4.74101
4.73967
4.73887
4.73892
4.74006
4.74239
4.74596
4.75071
4.75649
4.76304
5.03463
5.02741
5.02224
5.01948
5.01939
5.02211
5.02768
5.03607
5.04713
5.06063
5.33142
5.31683
5.30619
5.29987
5.2981
5.30103
5.30871
5.3211
5.33807
5.35941
5.62799
5.60439
5.58712
5.57643
5.5725
5.57544
5.5853
5.60204
5.62556
5.65567
5.91923
5.88529
5.86039
5.84464
5.83813
5.8409
5.85299
5.8744
5.90512
5.94504
6.19885
6.15379
6.12067
6.09942
6.09
6.09241
6.1067
6.13294
6.17126
6.2218
6.46034
6.40398
6.36245
6.3355
6.32295
6.32476
6.34098
6.37177
6.41743
6.47842
6.69759
6.63027
6.58053
6.54792
6.53213
6.53303
6.55065
6.58519
6.63703
6.7068
6.90494
6.82766
6.77036
6.73242
6.71344
6.71319
6.73163
6.76889
6.82533
6.90148
7.07845
6.99241
6.92843
6.88576
6.86388
6.86246
6.88138
6.9207
6.98068
7.06171
7.21536
7.12182
7.05223
7.00566
6.98143
6.97912
6.99852
7.03969
7.10286
7.18842
7.31266
7.21355
7.13996
7.0907
7.06495
7.0622
7.08226
7.12523
7.19146
7.28155
7.36782
7.2662
7.19087
7.14051
7.11422
7.11151
7.13222
7.17658
7.24517
7.3389
7.3811
7.28064
7.20615
7.15637
7.13049
7.12805
7.14901
7.1937
7.26287
7.35772
7.35737
7.26108
7.18954
7.1417
7.11686
7.11466
7.13508
7.17851
7.24571
7.33793
7.30452
7.21411
7.14684
7.10179
7.07833
7.07612
7.09515
7.13567
7.19832
7.28406
7.23035
7.14683
7.08467
7.04298
7.02115
7.01882
7.0359
7.07252
7.12904
7.20608
7.14165
7.06608
7.00982
6.97204
6.95218
6.94987
6.96496
6.99748
7.04759
7.11562
7.04548
6.97883
6.92915
6.89578
6.87827
6.87632
6.88976
6.91857
6.96283
7.02274
6.94984
6.89236
6.84949
6.82077
6.80589
6.80462
6.81686
6.84259
6.88189
6.93492
6.86234
6.81351
6.77716
6.75297
6.74074
6.74035
6.75174
6.77496
6.81011
6.85739
6.78897
6.74792
6.71748
6.69743
6.68766
6.68812
6.69882
6.71986
6.75139
6.79368
6.73416
6.69999
6.67475
6.65831
6.65063
6.65172
6.66167
6.6806
6.70872
6.74632
6.70154
6.67334
6.65253
6.63906
6.63296
6.63432
6.64325
6.65994
6.68462
6.71761
6.69443
6.67122
6.65392
6.64264
6.63748
6.63858
6.64611
6.66027
6.6813
6.70952
6.71613
6.69654
6.68162
6.67156
6.66656
6.66681
6.67248
6.68376
6.70084
6.72395
6.76925
6.75165
6.7377
6.72774
6.72204
6.72083
6.72427
6.73247
6.7455
6.76342
6.85565
6.83804
6.82339
6.81223
6.80495
6.80179
6.80288
6.8082
6.81766
6.83107
6.97664
6.95625
6.93875
6.92487
6.9151
6.90969
6.90866
6.91188
6.91903
6.92962
7.13178
7.10489
7.08191
7.06365
7.05056
7.04284
7.04039
7.0429
7.04981
7.06034
7.31691
7.2794
7.24827
7.2241
7.20718
7.19749
7.19476
7.19853
7.20804
7.22229
7.52239
7.47112
7.43009
7.39931
7.37862
7.36776
7.36629
7.37365
7.38905
7.41143
7.73332
7.66817
7.61754
7.58075
7.55719
7.54636
7.54775
7.56088
7.58516
7.61986
7.93479
7.85913
7.8014
7.76046
7.73548
7.72589
7.73129
7.75139
7.78606
7.83523
8.1185
8.03757
7.9761
7.93321
7.9082
7.90061
7.91021
7.937
7.98118
8.04323
8.28812
8.20431
8.14102
8.09749
8.07315
8.06765
8.08088
8.11299
8.16442
8.23592
8.44735
8.36179
8.29767
8.25417
8.23074
8.22705
8.24301
8.27878
8.3348
8.41178
8.59816
8.51247
8.44849
8.40557
8.38323
8.38115
8.3992
8.43746
8.49622
8.57605
8.74691
8.66081
8.59709
8.55499
8.53395
8.53358
8.55364
8.59409
8.65501
8.73668
8.89539
8.80931
8.74629
8.70549
8.68627
8.68816
8.71086
8.75419
8.81809
8.90264
9.0455
8.96017
8.89853
8.85971
8.84307
8.84814
8.87459
8.92218
8.99077
9.08033
9.19973
9.11577
9.05601
9.01975
9.00645
9.01573
9.04728
9.10088
9.17639
9.27379
9.36147
9.27855
9.22052
9.18694
9.17747
9.19185
9.22988
9.29134
9.37603
9.48372
9.53446
9.45031
9.39279
9.36136
9.35575
9.37589
9.42176
9.49329
9.59023
9.71182
9.715
9.62916
9.57134
9.54128
9.53908
9.56507
9.61976
9.70383
9.8181
9.96362
9.90392
9.81507
9.75508
9.72446
9.72387
9.75414
9.81633
9.91181
10.0423
10.2102
10.1074
10.0103
9.94368
9.90874
9.90645
9.93793
10.0045
10.1077
10.2499
10.4335
10.3293
10.2146
10.1349
10.0909
10.0831
10.1123
10.1796
10.2867
10.4356
10.6291
10.5563
10.4183
10.3217
10.2655
10.2495
10.2738
10.3392
10.447
10.599
10.7978
10.7677
10.6084
10.4952
10.4266
10.4016
10.4199
10.482
10.5886
10.7412
10.942
10.9549
10.778
10.6503
10.5704
10.537
10.5496
10.6083
10.7135
10.8664
11.0687
11.12
10.9265
10.7856
10.6953
10.6546
10.6625
10.7189
10.824
10.9781
11.1816
11.2622
11.0533
10.8999
10.8002
10.7532
10.7579
10.8144
10.9228
11.0837
11.2983
11.3826
11.1579
10.9918
10.8829
10.8301
10.8329
10.891
11.0049
11.1753
11.4035
11.4807
11.2392
11.0592
10.9401
10.8814
10.8826
10.9436
11.065
11.2474
11.4915
11.5644
11.2972
11.0984
10.9665
10.9007
10.9004
10.9655
11.0967
11.2952
11.5629
11.6168
11.3192
11.0986
10.9524
10.8788
10.8769
10.9464
11.0881
11.3033
11.5941
11.6142
11.2878
11.0464
10.8863
10.8054
10.8022
10.8767
11.0294
11.2623
11.5778
11.5387
11.1902
10.9308
10.7584
10.6709
10.6671
10.7468
10.9108
11.1606
11.4977
11.4065
11.0267
10.7467
10.5615
10.4678
10.4637
10.5492
10.7256
10.9962
11.3654
11.1777
10.7756
10.4806
10.2862
10.1881
10.1839
10.2736
10.4591
10.7446
11.1365
10.8377
10.4277
10.1272
9.92942
9.82961
9.82533
9.91647
10.1052
10.3962
10.7959
10.3951
9.98928
9.69203
9.4964
9.39764
9.39328
9.48317
9.66948
9.95667
10.3514
9.86318
9.4739
9.1879
8.99933
8.90402
8.89971
8.98622
9.16541
9.44105
9.8185
9.27421
8.905
8.63375
8.45487
8.36445
8.36043
8.44264
8.61278
8.87433
9.23238
8.64406
8.29982
8.04642
7.87915
7.79466
7.79117
7.86856
8.02839
8.2738
8.60932
7.99438
7.67671
7.44236
7.2875
7.20936
7.20647
7.27875
7.42757
7.65561
7.96661
7.34383
7.05183
6.83605
6.69336
6.62147
6.61913
6.68631
6.82417
7.03495
7.32174
6.70567
6.43736
6.23887
6.10755
6.04149
6.03962
6.10194
6.22942
6.42395
6.68815
6.08859
5.8418
5.65905
5.53812
5.47735
5.47588
5.53368
5.6516
5.83123
6.07476
5.49824
5.27087
5.10232
4.99074
4.93475
4.93359
4.98727
5.09648
5.2626
5.48743
4.93829
4.72831
4.57247
4.46925
4.4175
4.4166
4.46653
4.56791
4.72186
4.9299
4.41085
4.21634
4.07181
3.97603
3.92804
3.92733
3.97389
4.06822
4.21129
4.4043
3.91678
3.73605
3.60158
3.51241
3.46774
3.46716
3.51068
3.5987
3.73201
3.91156
3.45616
3.28776
3.16227
3.07897
3.03724
3.03676
3.07753
3.15989
3.28442
3.45187
3.02868
2.87136
2.75392
2.67587
2.63676
2.63635
2.67464
2.75189
2.86853
3.02505
2.63381
2.48652
2.37633
2.30298
2.2662
2.26584
2.30191
2.37458
2.4841
2.63072
2.27094
2.13284
2.0292
1.96004
1.92531
1.92499
1.95908
2.02765
2.13077
2.2684
1.93966
1.80997
1.71218
1.64669
1.61372
1.61339
1.64574
1.7107
1.80809
1.93755
1.63989
1.51765
1.42488
1.36243
1.33086
1.3305
1.36137
1.42324
1.51561
1.63768
1.37143
1.25544
1.16667
1.10652
1.07595
1.07552
1.10525
1.16467
1.25287
1.3685
1.13327
1.02228
0.936513
0.877907
0.847936
0.84743
0.876419
0.934124
1.0191
1.12945
0.923296
0.816479
0.733029
0.67541
0.645707
0.645159
0.673792
0.730406
0.812932
0.918893
0.738581
0.636086
0.554971
0.498164
0.468551
0.468006
0.496554
0.552354
0.632519
0.734087
0.576193
0.479502
0.401799
0.346239
0.316737
0.316241
0.34478
0.399434
0.476271
0.572081
0.43401
0.346045
0.274083
0.221059
0.192001
0.191594
0.219873
0.272176
0.343431
0.430649
0.311546
0.236103
0.17311
0.12505
0.0975188
0.0972313
0.124226
0.171787
0.234259
0.309117
0.210651
0.150518
0.0990271
0.059524
0.0366216
0.0364686
0.0590847
0.0982963
0.149445
0.209154
0.134719
0.0883949
0.0483805
0.0214907
0.00872009
0.00867817
0.0213469
0.0481055
0.0879494
0.134036
0.0837569
0.0431476
0.0159925
0.00509526
0.00257327
0.0025708
0.00507847
0.0159454
0.0430654
0.0836353
0.936801
0.926798
0.914367
0.899378
0.881753
0.861456
0.838516
0.813034
0.785191
0.755235
0.723507
0.691039
0.660343
0.630137
0.60008
0.570207
0.540685
0.511708
0.483452
0.456057
0.429615
0.404178
0.379758
0.356334
0.33386
0.312267
0.291473
0.271385
0.251904
0.232922
0.214322
0.195976
0.177729
0.159382
0.140518
0.120342
0.0993153
0.076543
0.0542668
0.0241173
1.93563
1.91395
1.88794
1.85752
1.82265
1.7834
1.73994
1.69256
1.64168
1.58778
1.53142
1.47307
1.41334
1.35294
1.2924
1.2322
1.17274
1.11436
1.05733
1.00184
0.948025
0.895953
0.845641
0.79706
0.750142
0.704794
0.660894
0.618305
0.57687
0.536416
0.496752
0.457657
0.418873
0.380084
0.340883
0.300894
0.258983
0.213891
0.159845
0.0693432
2.41888
2.39336
2.36279
2.32707
2.28618
2.24016
2.18923
2.1337
2.07406
2.01091
1.94489
1.87667
1.80675
1.73569
1.66401
1.5922
1.52071
1.44994
1.38021
1.3118
1.24494
1.17977
1.11638
1.05482
0.995086
0.937126
0.880859
0.826174
0.77293
0.72096
0.670069
0.620029
0.570567
0.521342
0.471906
0.421611
0.369282
0.312231
0.24087
0.109898
2.76513
2.73832
2.70609
2.66827
2.62476
2.57552
2.52069
2.46053
2.39552
2.32629
2.25358
2.17818
2.10063
2.02157
1.9416
1.86127
1.78108
1.70148
1.62283
1.54544
1.46955
1.39535
1.32297
1.25247
1.18389
1.11719
1.05234
0.989236
0.927758
0.86775
0.809025
0.751352
0.69444
0.637903
0.581186
0.523387
0.462788
0.395395
0.308597
0.143234
3.06156
3.03503
3.00289
2.96484
2.92061
2.87
2.81296
2.74959
2.68025
2.60557
2.52646
2.44391
2.35864
2.27151
2.18331
2.09473
2.00634
1.91865
1.83202
1.74678
1.66316
1.58136
1.50149
1.42363
1.34781
1.27401
1.20219
1.13225
1.06409
0.997549
0.932424
0.868466
0.805342
0.742589
0.679502
0.6149
0.546527
0.469258
0.367598
0.171796
3.33938
3.31449
3.28397
3.24732
3.20407
3.15372
3.09589
3.03031
2.95702
2.87651
2.79004
2.69911
2.60478
2.50837
2.41099
2.31348
2.21648
2.12049
2.02587
1.93293
1.84188
1.75287
1.66602
1.58137
1.49894
1.4187
1.3406
1.26453
1.19038
1.11795
1.04704
0.977341
0.908473
0.839872
0.770678
0.699448
0.623463
0.536652
0.420985
0.196731
3.61326
3.59147
3.56425
3.53091
3.49067
3.44266
3.38592
3.31955
3.24287
3.15563
3.05981
2.95775
2.85173
2.74392
2.63578
2.52818
2.4217
2.31676
2.21367
2.11269
2.01398
1.91765
1.82377
1.73238
1.64344
1.55692
1.47273
1.39075
1.31081
1.23272
1.15622
1.08097
1.00649
0.932138
0.856896
0.779084
0.695575
0.599465
0.470431
0.219508
3.89084
3.87377
3.85178
3.82398
3.78927
3.74629
3.69371
3.63005
3.55345
3.45849
3.3469
3.22851
3.10707
2.98549
2.86477
2.7456
2.62844
2.51357
2.40119
2.29148
2.18453
2.08041
1.97914
1.8807
1.78504
1.69207
1.60168
1.5137
1.42795
1.34418
1.26208
1.18125
1.10115
1.02103
0.939724
0.855335
0.764359
0.65912
0.517152
0.240798
4.17581
4.16519
4.15053
4.13071
4.10435
4.07005
4.02645
3.97129
3.88653
3.77398
3.64811
3.51259
3.37455
3.23704
3.10208
2.96994
2.84082
2.71486
2.59217
2.47281
2.35683
2.24422
2.13495
2.02895
1.92614
1.82637
1.72948
1.63527
1.54351
1.45389
1.36606
1.27955
1.19375
1.10779
1.02037
0.929388
0.830969
0.716707
0.56208
0.261018
4.46927
4.46693
4.4618
4.4526
4.4378
4.41565
4.38261
4.32503
4.22338
4.09162
3.94918
3.80174
3.65012
3.49803
3.34877
3.20295
3.0609
2.92281
2.78876
2.65879
2.53288
2.41096
2.29298
2.17881
2.0683
1.96127
1.85749
1.75673
1.65867
1.56298
1.46923
1.37689
1.28526
1.19336
1.09977
1.00215
0.896289
0.773058
0.605933
0.280566
4.77047
4.77825
4.785
4.78964
4.79102
4.78759
4.76793
4.70782
4.59197
4.43888
4.27591
4.11133
3.9417
3.77241
3.60705
3.44609
3.28982
3.13841
2.99192
2.85033
2.71359
2.58159
2.45418
2.3312
2.21244
2.09764
1.98656
1.87886
1.77421
1.67217
1.57229
1.47395
1.37635
1.27842
1.17858
1.07428
0.960965
0.828783
0.64924
0.299737
5.07721
5.09681
5.11757
5.13867
5.15939
5.17815
5.17886
5.11859
4.98436
4.81066
4.63038
4.44253
4.24948
4.06083
3.87746
3.69973
3.52784
3.36187
3.20182
3.04763
2.89916
2.75625
2.61871
2.48628
2.35871
2.23569
2.11689
2.00194
1.89041
1.78182
1.67563
1.57113
1.46745
1.3634
1.25724
1.14623
1.02544
0.884313
0.692378
0.31888
5.38637
5.41941
5.45616
5.49599
5.53842
5.58108
5.60449
5.54794
5.39515
5.20321
5.00778
4.79288
4.5739
4.36282
4.15932
3.96319
3.77431
3.59261
3.41797
3.25022
3.08919
2.93463
2.78628
2.64384
2.50697
2.37529
2.24841
2.12589
2.00723
1.89188
1.77921
1.66843
1.55858
1.44835
1.33586
1.21813
1.08989
0.939835
0.735531
0.338467
5.69433
5.74253
5.79714
5.85711
5.92074
5.98055
6.02151
5.98737
5.81756
5.61519
5.40085
5.15064
4.90759
4.67425
4.45005
4.23464
4.02783
3.82942
3.63926
3.45712
3.28276
3.11589
2.95616
2.80321
2.65661
2.51592
2.38066
2.25033
2.12434
2.00208
1.88281
1.76569
1.64962
1.53319
1.41436
1.28995
1.1543
0.99539
0.778802
0.358083
5.99703
6.06295
6.13892
6.22345
6.31259
6.39379
6.44877
6.4149
6.22338
6.02248
5.79122
5.51384
5.24809
4.99298
4.74786
4.51252
4.28686
4.07082
3.86423
3.6669
3.47853
3.29875
3.12716
2.96329
2.80665
2.65669
2.51287
2.37457
2.24115
2.11189
1.98599
1.86249
1.74021
1.61761
1.4925
1.36147
1.21851
1.05086
0.822137
0.377712
6.28863
6.37511
6.47736
6.59482
6.72229
6.83896
6.89799
6.82111
6.61566
6.41674
6.1724
5.88028
5.59557
5.31933
5.05253
4.79594
4.55006
4.31511
4.09105
3.87768
3.67464
3.48147
3.29765
3.12261
2.95574
2.79641
2.64394
2.49765
2.35679
2.22056
2.08805
1.95823
1.82982
1.70114
1.56985
1.43234
1.28221
1.106
0.865337
0.397281
6.56012
6.66792
6.79875
6.95482
7.12665
7.26312
7.31023
7.23024
7.03685
6.82858
6.57511
6.26845
5.96075
5.65855
5.36569
5.08436
4.81564
4.55991
4.3171
4.08683
3.86858
3.66171
3.46551
3.27925
3.10218
2.93353
2.77252
2.61835
2.47018
2.32711
2.18815
2.05216
1.91776
1.78316
1.64588
1.50206
1.34498
1.16046
0.908149
0.416695
6.80095
6.92632
7.08049
7.26826
7.47285
7.63746
7.73657
7.71041
7.54642
7.34102
7.06562
6.71113
6.3577
6.01473
5.6864
5.37448
5.07939
4.80085
4.53818
4.29052
4.05693
3.83643
3.62806
3.43086
3.2439
3.06626
2.89702
2.73527
2.58008
2.43044
2.28529
2.14338
2.00324
1.86297
1.71993
1.57007
1.40632
1.2138
0.950227
0.435809
7.00413
7.14009
7.30533
7.50157
7.71957
7.93738
8.13837
8.23439
8.10892
7.93845
7.65588
7.20527
6.77488
6.3744
6.00191
5.65515
5.33191
5.0301
4.74784
4.4834
4.23524
4.00194
3.78219
3.5748
3.37863
3.19262
3.01572
2.84691
2.68515
2.52938
2.37841
2.23095
2.08541
1.93979
1.79131
1.63574
1.46566
1.26552
0.991174
0.454447
7.17071
7.31423
7.48666
7.68619
7.90145
8.12567
8.36236
8.60403
8.56989
8.37054
8.15305
7.65988
7.15166
6.6965
6.28382
5.9063
5.55866
5.23691
4.93792
4.65916
4.39852
4.15418
3.92457
3.70829
3.50403
3.31061
3.12689
2.95174
2.78407
2.62272
2.46646
2.3139
2.16338
2.01282
1.8593
1.69839
1.52239
1.3151
1.03055
0.472404
7.30363
7.45524
7.63688
7.84399
8.06428
8.30067
8.5567
8.82516
8.83372
8.5932
8.41161
7.94572
7.4117
6.93363
6.50144
6.1073
5.74531
5.411
5.10084
4.81203
4.54226
4.28957
4.05228
3.82888
3.61802
3.41844
3.22895
3.04839
2.87559
2.70936
2.54842
2.39131
2.23633
2.08129
1.92318
1.75739
1.57593
1.362
1.06791
0.489487
7.40347
7.56501
7.76029
7.97866
8.20228
8.45067
8.72616
8.98986
8.94893
8.69261
8.48968
8.05489
7.53983
7.07144
6.64317
6.24921
5.88505
5.54709
5.23244
4.93866
4.66369
4.40576
4.16328
3.93481
3.71904
3.51472
3.32066
3.13571
2.95867
2.78835
2.62341
2.46239
2.3035
2.14451
1.98231
1.81214
1.62574
1.40575
1.10287
0.505506
7.46662
7.63765
7.84758
8.07594
8.30445
8.56459
8.84887
9.00406
8.87872
8.63252
8.3901
8.01467
7.55862
7.12474
6.71823
6.33753
5.98094
5.64673
5.33327
5.03899
4.7624
4.50211
4.25681
4.02525
3.80623
3.59858
3.40118
3.21289
3.03255
2.85894
2.69075
2.52646
2.36428
2.2019
2.03614
1.86212
1.67132
1.4459
1.13506
0.520295
7.48761
7.66294
7.88047
8.11735
8.34848
8.59447
8.80481
8.86722
8.73733
8.48699
8.22907
7.91882
7.52735
7.1323
6.75207
6.38896
6.04388
5.71697
5.40784
5.11581
4.84001
4.5795
4.33325
4.10024
3.87941
3.66972
3.4701
3.27949
3.09674
2.92066
2.74993
2.58304
2.41818
2.25299
2.08423
1.90691
1.7123
1.48209
1.16417
0.533716
7.46443
7.63575
7.84951
8.08878
8.30816
8.51459
8.67471
8.71169
8.57903
8.34113
8.09427
7.83884
7.50326
7.1346
6.77248
6.42247
6.08683
5.76661
5.4621
5.17314
4.89922
4.63967
4.39368
4.1604
3.9389
3.72822
3.52737
3.33532
3.15099
2.9732
2.80064
2.63181
2.46487
2.29745
2.12625
1.94619
1.74836
1.51405
1.18997
0.545657
7.40117
7.55863
7.75287
7.97869
8.2055
8.40967
8.54194
8.54409
8.40914
8.19452
7.96957
7.75523
7.49855
7.15608
6.79682
6.45047
6.1187
5.80211
5.50076
5.21437
4.94245
4.68434
4.43932
4.20657
3.98523
3.77441
3.57315
3.38046
3.19529
3.01648
2.84275
2.67259
2.50416
2.33508
2.16199
1.97975
1.77929
1.54158
1.21228
0.556035
7.31062
7.4497
7.6186
7.81333
8.01936
8.22669
8.38801
8.38967
8.24189
8.03715
7.82579
7.62721
7.42323
7.16469
6.82364
6.47334
6.14082
5.82517
5.52553
5.24109
4.97107
4.71466
4.47107
4.23945
4.01895
3.80867
3.6077
3.41507
3.22973
3.05055
2.87626
2.70535
2.53599
2.36578
2.19135
2.00747
1.80498
1.56455
1.231
0.564793
7.20745
7.32863
7.47425
7.64018
7.81797
8.00496
8.18171
8.21846
8.07461
7.87333
7.66637
7.47002
7.27965
7.07216
6.81121
6.48106
6.14801
5.83332
5.53545
5.25314
4.98533
4.73105
4.48941
4.2595
4.04046
3.83138
3.63134
3.43938
3.25449
3.07553
2.90125
2.73015
2.56039
2.38959
2.21433
2.02935
1.8254
1.58292
1.24607
0.571898
7.10332
7.20922
7.33591
7.47952
7.6337
7.79734
7.95826
8.01019
7.89164
7.70422
7.50118
7.30312
7.11298
6.92142
6.70814
6.44706
6.13451
5.82344
5.52887
5.24973
4.98495
4.73353
4.49452
4.26701
4.05008
3.84283
3.64435
3.45369
3.26982
3.09165
2.91791
2.74714
2.5775
2.40659
2.231
2.04545
1.8406
1.59675
1.25752
0.577533
7.0061
7.09954
7.21111
7.33667
7.4715
7.61639
7.74849
7.78199
7.68892
7.52408
7.33046
7.1338
6.94254
6.75474
6.56031
6.34316
6.08787
5.79512
5.50528
5.23045
4.96973
4.72209
4.48657
4.26221
4.04811
3.84337
3.64708
3.45829
3.27602
3.09916
2.92648
2.75652
2.58747
2.41693
2.24149
2.05585
1.85065
1.60605
1.26536
0.581596
6.92081
7.00417
7.10392
7.21595
7.33482
7.45754
7.54923
7.55789
7.47771
7.33241
7.15193
6.9611
6.77201
6.58677
6.40083
6.20475
5.98716
5.739
5.46443
5.19508
4.93963
4.69689
4.46583
4.24549
4.03499
3.83344
3.63996
3.45363
3.27347
3.09843
2.92729
2.75861
2.59059
2.42086
2.24601
2.06075
1.8557
1.61098
1.26969
0.584042
6.85041
6.92519
7.01521
7.11671
7.21854
7.30876
7.36197
7.35199
7.27236
7.13712
6.96818
6.78527
6.60098
6.41975
6.24
6.05598
5.85944
5.64202
5.39913
5.14289
4.89486
4.65846
4.43295
4.21752
4.01137
3.81367
3.62359
3.44025
3.26271
3.08995
2.92079
2.7538
2.58722
2.41869
2.24484
2.06039
1.85596
1.6117
1.27066
0.584927
6.79676
6.8633
6.94346
7.03356
7.11811
7.18036
7.20345
7.17193
7.08424
6.95109
6.78865
6.61255
6.43383
6.25746
6.08333
5.90785
5.72536
5.5297
5.31589
5.07778
4.83781
4.6085
4.38927
4.17943
3.97824
3.78494
3.59876
3.41888
3.24439
3.07431
2.9075
2.74257
2.57778
2.41082
2.23834
2.05508
1.85173
1.60845
1.26846
0.584326
6.76193
6.82057
6.89142
6.97062
7.04001
7.08037
7.0772
7.02347
6.92263
6.78497
6.62355
6.45092
6.27635
6.10432
5.93518
5.76635
5.59346
5.41123
5.2145
4.99896
4.77074
4.54888
4.33638
4.13259
3.93682
3.74835
3.56646
3.39039
3.21929
3.05222
2.88807
2.7255
2.56282
2.39773
2.22693
2.04522
1.84332
1.60153
1.26329
0.582325
6.74761
6.79833
6.85991
6.92783
6.98504
7.00904
6.98277
6.90612
6.78861
6.64165
6.47688
6.30453
6.13199
5.96287
5.79745
5.63364
5.46788
5.2953
5.11067
4.91029
4.6943
4.48096
4.27583
4.07852
3.88849
3.70513
3.5278
3.35579
3.18831
3.02448
2.86322
2.70325
2.54291
2.37994
2.21109
2.03122
1.83113
1.59124
1.25541
0.57903
6.75527
6.79709
6.84699
6.89948
6.94922
6.96307
6.91155
6.81052
6.6747
6.51677
6.34705
6.17362
6.00197
5.83467
5.67178
5.51147
5.35058
5.18468
5.00888
4.81939
4.61321
4.40793
4.21
4.01914
3.83487
3.65668
3.48399
3.31614
3.15241
2.99195
2.83374
2.67652
2.51869
2.35803
2.19135
2.01355
1.81554
1.57795
1.24509
0.574558
6.78775
6.81995
6.85618
6.89166
6.92944
6.93225
6.85502
6.72905
6.57554
6.40718
6.23256
6.05774
5.88653
5.72052
5.55943
5.4016
5.24415
5.0829
4.9127
4.72906
4.53005
4.33215
4.14097
3.95623
3.77753
3.60439
3.43626
3.27256
3.11258
2.95553
2.80042
2.64604
2.49082
2.33261
2.16824
1.9927
1.79702
1.56202
1.23262
0.569037
6.84925
6.87277
6.89638
6.91452
6.93279
6.91244
6.8093
6.6616
6.49249
6.31452
6.13496
5.95823
5.78665
5.62092
5.46042
5.30358
5.14778
4.98898
4.82198
4.64102
4.44686
4.25543
4.07037
3.89133
3.71787
3.54952
3.38578
3.22609
3.06978
2.91609
2.76407
2.61255
2.45999
2.30428
2.14233
1.96919
1.776
1.54385
1.21831
0.562607
6.94387
6.96148
6.9738
6.97148
6.96369
6.91331
6.78218
6.61344
6.42959
6.24193
6.05659
5.87672
5.70343
5.53662
5.37533
5.21793
5.06188
4.90354
4.73783
4.55409
4.36359
4.17863
3.99942
3.82568
3.65708
3.49321
3.3336
3.17771
3.02491
2.87447
2.72546
2.57676
2.42685
2.27367
2.11418
1.94351
1.75295
1.52383
1.20249
0.55541
7.0743
7.09056
7.09379
7.06575
7.02179
6.93192
6.77367
6.58527
6.38701
6.18943
5.9975
5.8131
5.6365
5.46706
5.30348
5.14382
4.98509
4.82325
4.65327
4.46916
4.28373
4.10394
3.92965
3.76056
3.59631
3.43649
3.28067
3.12831
2.97881
2.83144
2.68532
2.53934
2.39203
2.24135
2.08433
1.91618
1.72833
1.50237
1.18546
0.547594
7.24102
7.26255
7.25547
7.18884
7.10434
6.97428
6.78482
6.57553
6.363
6.15537
5.95587
5.76534
5.58351
5.40939
5.24139
5.07725
4.91395
4.74766
4.57309
4.38905
4.20763
4.03205
3.86192
3.69684
3.53641
3.38023
3.22782
3.07868
2.93222
2.78772
2.64432
2.50093
2.35612
2.20788
2.0533
1.88767
1.70255
1.47985
1.16753
0.539305
7.44105
7.4762
7.45721
7.34304
7.21403
7.03671
6.8127
6.58259
6.35606
6.13775
5.92929
5.73079
5.54163
5.36064
5.18606
5.01557
4.84635
4.67466
4.49419
4.31175
4.13471
3.96313
3.79673
3.63518
3.47811
3.32512
3.17575
3.02951
2.8858
2.74394
2.60306
2.46211
2.31967
2.17378
2.02158
1.85843
1.67605
1.45663
1.14901
0.530687
7.66671
7.72516
7.69412
7.52145
7.33922
7.11072
6.85506
6.60581
6.36463
6.13371
5.91405
5.70547
5.50714
5.31774
5.13541
4.95773
4.78145
4.60254
4.41988
4.24044
4.06663
3.89821
3.73487
3.57627
3.42205
3.2718
3.12507
2.98138
2.84013
2.70064
2.56208
2.42339
2.28317
2.13952
1.9896
1.82888
1.6492
1.43306
1.13017
0.521876
7.90292
7.99114
7.94121
7.69478
7.44042
7.17659
6.90385
6.63749
6.38078
6.13612
5.90432
5.68495
5.47695
5.27881
5.08858
4.90374
4.72082
4.53521
4.35233
4.17529
4.0039
3.83789
3.67693
3.52068
3.36877
3.22079
3.07631
2.9348
2.7957
2.65833
2.52184
2.38521
2.24706
2.10551
1.95777
1.79939
1.62234
1.40944
1.11126
0.512979
8.12888
8.24091
8.16841
7.85375
7.53961
7.24358
6.95251
6.66817
6.39689
6.13979
5.897
5.6678
5.45083
5.24436
5.04628
4.85357
4.6619
4.47417
4.2925
4.11687
3.94701
3.7826
3.62332
3.46881
3.31868
3.17252
3.02985
2.89018
2.75292
2.61738
2.48274
2.34797
2.21171
2.07211
1.92643
1.77028
1.59578
1.38605
1.0925
0.504117
8.33441
8.46246
8.35875
7.99189
7.63838
7.31042
6.99816
6.69779
6.41362
6.14543
5.89277
5.65454
5.42909
5.2144
5.00814
4.80664
4.61106
4.42251
4.24075
4.06541
3.89614
3.73255
3.57428
3.42092
3.27205
3.12724
2.986
2.84782
2.71208
2.57811
2.44508
2.31197
2.17743
2.03963
1.89587
1.74184
1.56978
1.36311
1.07409
0.49539
8.51694
8.64967
8.51392
8.11223
7.73072
7.37617
7.04509
6.73166
6.43482
6.15584
5.89365
5.64658
5.41273
5.18944
4.97451
4.76786
4.56966
4.37939
4.19654
4.02061
3.85114
3.68769
3.52982
3.37707
3.229
3.08512
2.94494
2.80791
2.67341
2.54075
2.40911
2.27745
2.14445
2.0083
1.86633
1.71429
1.54456
1.34083
1.05618
0.486873
8.68401
8.81252
8.64325
8.21923
7.81772
7.44423
7.09673
6.76983
6.46144
6.17236
5.90063
5.64415
5.40099
5.16935
4.94852
4.73778
4.53642
4.34373
4.1591
3.98192
3.81165
3.64779
3.4898
3.33722
3.18952
3.04621
2.90674
2.77056
2.63703
2.50545
2.37498
2.24459
2.11296
1.9783
1.83798
1.68781
1.52028
1.31936
1.0389
0.478657
8.84576
8.96274
8.75796
8.31756
7.9004
7.51173
7.14924
6.81054
6.49243
6.19311
5.91154
5.64594
5.39456
5.15634
4.93017
4.71506
4.51011
4.31455
4.12765
3.94875
3.77723
3.6125
3.45399
3.30118
3.15351
3.01044
2.8714
2.7358
2.603
2.47228
2.34278
2.21349
2.08308
1.94977
1.81096
1.66253
1.49708
1.29883
1.02237
0.470873
9.0144
9.11619
8.86589
8.41124
7.98162
7.58042
7.2055
6.85474
6.52595
6.21713
5.92657
5.65277
5.39427
5.14981
4.91825
4.69854
4.48974
4.29099
4.10149
3.92052
3.74739
3.58146
3.42211
3.26876
3.12082
2.97771
2.83885
2.70361
2.57133
2.44126
2.31257
2.1842
2.05486
1.92277
1.78535
1.63853
1.47503
1.2793
1.00666
0.463457
9.19759
9.27981
8.97523
8.50665
8.06541
7.6525
7.26601
6.90404
6.56472
6.24623
5.94688
5.66513
5.39955
5.14885
4.91182
4.68738
4.47453
4.27236
4.08002
3.8967
3.72169
3.55429
3.39383
3.23968
3.09123
2.94786
2.80896
2.67387
2.54192
2.41235
2.2843
2.15672
2.02831
1.8973
1.76115
1.61583
1.45416
1.26081
0.991777
0.456423
9.40053
9.45817
9.0938
8.61018
8.15602
7.73057
7.33208
6.95877
6.60886
6.28061
5.97239
5.68262
5.40987
5.15281
4.91019
4.68087
4.46381
4.25803
4.06263
3.87677
3.69966
3.53057
3.36878
3.21364
3.06448
2.92066
2.78153
2.64644
2.51466
2.38544
2.25789
2.13098
2.00338
1.87335
1.73836
1.59443
1.43447
1.24337
0.977748
0.449781
9.62227
9.64999
9.22848
8.72684
8.25677
7.81677
7.40497
7.01948
6.65845
6.3201
6.00274
5.70476
5.42468
5.1611
4.91274
4.6784
4.45697
4.24742
4.0488
3.86022
3.68084
3.50988
3.34661
3.1903
3.04028
2.89586
2.75637
2.62112
2.48939
2.3604
2.23324
2.10688
1.97999
1.85084
1.71692
1.57428
1.41593
1.22694
0.96455
0.443527
9.86489
9.86163
9.38359
8.85799
8.36834
7.91149
7.48484
7.08612
6.71325
6.36429
6.03743
5.73097
5.44335
5.17309
4.91883
4.67932
4.45339
4.23994
4.03797
3.84654
3.66476
3.49182
3.32693
3.16933
3.01832
2.87318
2.73321
2.59771
2.46593
2.33706
2.2102
2.0843
1.95804
1.82968
1.69674
1.55531
1.39846
1.21149
0.952146
0.437648
10.1526
10.09
9.54104
8.99574
8.48703
8.01272
7.57041
7.15771
6.7724
6.41238
6.07568
5.7605
5.46514
5.18805
4.92778
4.68299
4.45245
4.23501
4.0296
3.83523
3.65097
3.47594
3.30934
3.15037
2.99828
2.85233
2.71181
2.57597
2.44404
2.31522
2.18859
2.06309
1.93738
1.80975
1.67771
1.53741
1.382
1.19693
0.940483
0.432122
10.4312
10.3169
9.71448
9.14325
8.61247
8.11908
7.6601
7.23279
6.83459
6.4632
6.11645
5.79238
5.48918
5.20517
4.93882
4.6887
4.45351
4.23202
4.02312
3.82576
3.63896
3.46181
3.29344
3.13303
2.97981
2.833
2.69186
2.55562
2.42351
2.29468
2.16822
2.04305
1.91785
1.79088
1.65971
1.52048
1.36643
1.18318
0.929496
0.426925
10.6761
10.5321
9.89091
9.29297
8.73964
8.22689
7.75109
7.30907
6.89796
6.51518
6.15839
5.82545
5.51442
5.22352
4.95111
4.69568
4.45584
4.23033
4.01794
3.81758
3.62824
3.44894
3.27879
3.11693
2.96255
2.81485
2.67306
2.53639
2.40405
2.27519
2.14886
2.02399
1.89926
1.77293
1.64256
1.50437
1.35163
1.17013
0.919105
0.422026
10.8852
10.7255
10.0567
9.43581
8.86224
8.33158
7.83994
7.38389
6.96035
6.56655
6.19999
5.85841
5.53974
5.2421
4.96375
4.70311
4.45872
4.22924
4.01343
3.81013
3.61828
3.43686
3.26495
3.10165
2.94612
2.79753
2.65509
2.51799
2.38541
2.25649
2.13028
2.0057
1.8814
1.75568
1.6261
1.4889
1.33745
1.15765
0.909214
0.417385
11.0621
10.8945
10.206
9.56673
8.976
8.42964
7.92375
7.45483
7.01972
6.61557
6.23976
5.88995
5.56397
5.25986
4.9758
4.71015
4.46138
4.22808
4.00896
3.80282
3.60854
3.42508
3.25147
3.08678
2.93013
2.78069
2.63761
2.5001
2.36729
2.23833
2.11224
1.98792
1.86406
1.73894
1.61013
1.47391
1.32371
1.14561
0.899733
0.412979
11.2089
11.0409
10.3385
9.68429
9.07919
8.51919
8.00066
7.52014
7.07447
6.66076
6.27636
5.91885
5.58601
5.2758
4.98636
4.71597
4.46304
4.22613
4.00388
3.79505
3.59848
3.4131
3.23788
3.07188
2.9142
2.76395
2.6203
2.48241
2.34941
2.22042
2.09446
1.97044
1.84702
1.72248
1.59443
1.45917
1.3102
1.13377
0.890478
0.408976
11.3384
11.1718
10.457
9.78973
9.1719
8.59976
8.06983
7.57877
7.12345
6.70097
6.30865
5.94402
5.60482
5.28896
4.99452
4.71973
4.46295
4.22268
3.99754
3.78623
3.58755
3.4004
3.22372
3.05654
2.89792
2.74697
2.60282
2.46461
2.33147
2.2025
2.07672
1.953
1.83003
1.70609
1.57879
1.44445
1.29661
1.12165
0.88055
0.404006
11.4495
11.2902
10.5658
9.88545
9.25521
8.67156
8.13095
7.6301
7.16586
6.7353
6.33569