/*--------------------------------*- C++ -*----------------------------------*\
  =========                 |
  \\      /  F ield         | OpenFOAM: The Open Source CFD Toolbox
   \\    /   O peration     | Website:  https://openfoam.org
    \\  /    A nd           | Version:  8
     \\/     M anipulation  |
\*---------------------------------------------------------------------------*/
FoamFile
{
    version     2.0;
    format      ascii;
    class       volScalarField;
    location    "1.1";
    object      p_rgh;
}
// * * * * * * * * * * * * * * * * * * * * * * * * * * * * * * * * * * * * * //

dimensions      [1 -1 -2 0 0 0 0];

internalField   nonuniform List<scalar> 
9150
(
2540.1
2513.22
2487.62
2470.38
2462.03
2462.03
2470.38
2487.62
2513.22
2540.1
2530.86
2511.42
2495.67
2483.85
2477.83
2477.83
2483.85
2495.67
2511.42
2530.86
2521.23
2507.75
2499.1
2491.36
2487.22
2487.22
2491.36
2499.1
2507.75
2521.23
2516.11
2506.21
2500.63
2495.29
2492.3
2492.3
2495.29
2500.63
2506.21
2516.11
2514.39
2505.68
2500.94
2496.79
2494.34
2494.34
2496.79
2500.94
2505.68
2514.39
2075.84
2071.21
2096.43
2110.76
2117.19
2117.19
2110.76
2096.43
2071.21
2075.84
2265.53
2241.14
2235.73
2234.43
2234.34
2234.34
2234.43
2235.73
2241.15
2265.53
2389.86
2358.1
2342
2332.06
2327.24
2327.24
2332.06
2342
2358.1
2389.86
2489.89
2447.42
2419.36
2402
2393.41
2393.41
2402
2419.36
2447.42
2489.89
2558.63
2506.88
2468.25
2446.2
2436.01
2436.01
2446.2
2468.25
2506.88
2558.63
1890.83
1931.26
1922.99
1929.58
1925.44
1925.45
1929.58
1923
1931.27
1890.84
1917.63
1938.53
1919.69
1926.7
1924.02
1924.02
1926.7
1919.7
1938.53
1917.63
1892.68
1926.32
1897.9
1903.27
1907.34
1907.34
1903.27
1897.9
1926.32
1892.68
1733.79
1859.57
1880.96
1898.48
1914.18
1914.18
1898.48
1880.96
1859.57
1733.79
1617.6
1849.12
1947.35
1977.48
1992.56
1992.56
1977.48
1947.35
1849.13
1617.6
2036.09
2061.52
2080.57
2093.05
2098.91
2098.26
2091.1
2077.27
2056.87
2030.08
1860.65
1882.16
1898.8
1910.12
1915.78
1915.08
1908.07
1895.44
1877.5
1854.71
1666.81
1681.18
1692.24
1699.59
1703.02
1702.37
1697.65
1689.03
1676.71
1661.12
1560.21
1570.34
1577.97
1582.96
1585.15
1584.51
1581.03
1574.77
1565.88
1554.52
1505.66
1511.96
1516.69
1519.74
1520.97
1520.35
1517.85
1513.55
1507.56
1500.01
1488.02
1490.69
1492.7
1493.93
1494.28
1493.69
1492.16
1489.74
1486.52
1482.65
1496.83
1495.68
1494.89
1494.28
1493.74
1493.21
1492.69
1492.24
1491.98
1492.05
1521.1
1516.34
1512.88
1510.54
1509.18
1508.73
1509.2
1510.68
1513.32
1517.25
1551.87
1544.03
1538.24
1534.39
1532.31
1531.94
1533.29
1536.48
1541.69
1548.98
1580.29
1570.91
1563.78
1558.97
1556.42
1556.06
1557.94
1562.2
1568.94
1578.11
1600.93
1591.87
1584.71
1579.67
1576.9
1576.4
1578.21
1582.41
1588.94
1597.77
1614.34
1606.1
1599.59
1594.72
1591.8
1590.89
1592
1595.07
1599.83
1606.71
1624.42
1615.5
1609.29
1604.49
1601.3
1599.82
1599.99
1601.56
1604.25
1609.54
1626.03
1617.35
1612.23
1608.15
1605.12
1603.33
1602.71
1602.9
1603.84
1608.2
1623.43
1614.5
1610.44
1607.32
1604.78
1603.11
1602.29
1602.07
1603.13
1609.87
1622.03
1610.47
1606.18
1603.51
1601.21
1599.51
1598.41
1597.81
1599.25
1608.73
1613.4
1601.56
1597.82
1595.9
1593.89
1591.89
1589.87
1587.75
1587.57
1595.57
1600.94
1590.44
1587.66
1586.71
1585.14
1582.88
1579.88
1576.13
1574.06
1579.01
1590.26
1581.23
1578.85
1578.69
1577.68
1575.5
1572.09
1567.73
1565.51
1568.6
1584.09
1576.6
1573.57
1573.63
1573.13
1571.42
1568.49
1565.04
1564.8
1569.1
1587.82
1578.93
1573.59
1572.6
1572.09
1571.02
1569.48
1568.62
1572.88
1582.72
1589.74
1579.86
1572.73
1570.87
1570.08
1569.06
1567.82
1567.8
1573.58
1583.5
1582.67
1575.27
1567.96
1566.17
1565.51
1564.35
1562.72
1562.25
1567.62
1574.03
1572.02
1569.19
1562.13
1560.52
1560.05
1558.78
1556.72
1555.9
1561.02
1564.2
1564.08
1565.75
1558.43
1556.24
1555.37
1553.59
1550.88
1549.43
1553.59
1551.76
1559.69
1565.63
1557.5
1553.97
1552.2
1549.66
1546.19
1544.13
1546.8
1537.85
1554.39
1564.72
1556.61
1552.43
1550.2
1547.21
1543.27
1540.78
1542.19
1527.37
1548.79
1564.76
1556.89
1552.37
1550.12
1547.27
1543.64
1541.8
1543.5
1526.01
1544.96
1566.8
1559.09
1554.12
1551.88
1549.3
1546.19
1545.17
1547.37
1528.11
1543.61
1570.28
1562.82
1557.37
1554.97
1552.48
1549.68
1549.21
1551.46
1529.84
1544.66
1574.68
1567.61
1561.71
1559.1
1556.66
1554.13
1554.22
1556.75
1533.14
1545.72
1578.96
1572.52
1566.37
1563.55
1561.06
1558.63
1559
1561.44
1535.21
1547.7
1583.83
1577.92
1571.41
1568.29
1565.61
1563.1
1563.5
1565.43
1536.36
1551.21
1589.48
1583.85
1576.89
1573.33
1570.3
1567.52
1567.63
1568.53
1536.97
1555.44
1595.22
1589.92
1582.57
1578.54
1575.08
1571.92
1571.53
1571.18
1537.31
1559.89
1601.11
1596.28
1588.58
1584.07
1580.14
1576.52
1575.51
1573.76
1537.1
1548.3
1607.03
1603.29
1595.25
1590.2
1585.79
1581.71
1580.04
1576.85
1539.26
1541.43
1613.45
1610.71
1602.51
1597
1592.22
1587.8
1585.66
1581.85
1545.92
1540.03
1620.94
1618.79
1610.38
1604.31
1598.92
1593.91
1591
1586.22
1550.89
1539.05
1629.95
1628.02
1619.08
1612.13
1605.76
1599.67
1595.32
1588.3
1550.23
1539.4
1641.23
1639.08
1629.2
1621.13
1613.62
1606.28
1600.14
1590.06
1530.14
1542.86
1655.86
1652.69
1641.26
1631.73
1622.84
1614.01
1605.76
1592.56
1519.07
1547.42
1672.04
1667.85
1654.86
1643.98
1633.89
1623.85
1613.96
1598.15
1506.5
1556.62
1690.29
1684.6
1670.13
1658.22
1647.43
1637.08
1627.21
1610.67
1496.71
1568.06
1707.13
1700.3
1685.15
1672.72
1661.59
1651.22
1641.73
1624.04
1478.93
1578.87
1720.38
1713.61
1699
1686.87
1676.03
1666.11
1657.08
1638.32
1460.99
1588.8
1732
1725.69
1712.06
1700.79
1690.89
1682.07
1674.02
1655.3
1445.85
1591.43
1739.87
1735.21
1723.33
1713.89
1706.07
1699.83
1694.84
1678.17
1430.29
1584.64
1743.3
1741.37
1731.81
1724.81
1719.78
1717.13
1716.68
1700.68
1395.53
1567
1741.15
1743.23
1736.56
1732.46
1730.65
1732.22
1736.8
1718.37
1336.87
1534.99
1731.98
1739.94
1736.91
1736.11
1737.71
1743.5
1752.34
1728.32
1260.23
1489.02
1719.15
1733.98
1734.36
1736.53
1741.15
1750.28
1761.21
1728.55
1171.47
1425.56
1703.74
1727.03
1730.6
1735.54
1743.05
1755.25
1767.44
1725.02
1077.99
1350
1690.1
1722.28
1728.31
1735.47
1745.53
1760.52
1773.62
1720.71
983.83
1270.21
1681.13
1721.36
1729.34
1738.4
1750.98
1768.76
1783.58
1727.14
923.838
1193.8
1682.33
1727.48
1735.62
1745.56
1760.14
1780.2
1797.46
1740.87
919.707
1096.02
1676.04
1730.39
1740.56
1751.73
1767.98
1789.32
1807.56
1744.39
935.956
1002.34
1672.54
1733.52
1745.68
1757.24
1773.75
1794.82
1812.98
1751.9
942.326
954.095
1689.67
1744.47
1754.57
1763.95
1778.3
1797.11
1813.42
1752.53
935.746
926.44
1707.52
1751.95
1760.26
1767.51
1779.16
1795.08
1808.83
1746.53
917.001
894.597
1719.49
1755.66
1762.14
1767.19
1776.07
1789.23
1800.47
1734.03
883.713
859.156
1712.68
1758.75
1761.71
1763.17
1768.44
1778.05
1785.22
1709.29
830.579
810.735
1689.38
1756.74
1756.73
1754.68
1756.58
1762.72
1765.35
1677.49
769.821
750.679
1666.87
1749.23
1747.16
1742.27
1741.55
1744.97
1743.86
1643.47
708.013
680.999
1635.24
1736.15
1733.36
1726.61
1724.26
1725.98
1722.36
1608.96
646.776
611.53
1598.56
1717.95
1715.74
1708.25
1705.15
1705.96
1700.57
1573.21
586.275
543.809
1558
1695.7
1695.23
1688.08
1685.03
1685.65
1679.13
1536.63
526.216
478.478
1517.16
1673.04
1674.37
1667.91
1665.46
1666.7
1660.15
1501.42
466.566
415.641
1476.2
1650.22
1653.37
1647.82
1646.06
1647.96
1641.41
1465.42
407.27
364.012
1439.86
1628.9
1633.31
1628.69
1627.49
1629.66
1623.06
1432.12
357.328
322.839
1408.68
1609.64
1614.73
1610.97
1610.11
1612.15
1605.47
1402.29
316.762
285.677
1381.04
1592.93
1598.27
1595.18
1594.57
1596.42
1589.92
1375.7
280.445
256.335
1359
1579.17
1584.21
1581.66
1581.21
1582.83
1576.89
1354.32
251.516
234.936
1341.38
1567.06
1571.81
1569.99
1569.66
1570.81
1565.41
1337.33
230.895
217.797
1328.76
1557.33
1561.65
1560.56
1560.31
1560.9
1556.09
1325.37
214.571
207.952
1321.48
1550.84
1554.42
1553.9
1553.7
1553.81
1549.84
1318.32
205.134
200.046
1319.25
1546.66
1549.89
1549.91
1549.75
1549.42
1545.87
1316.45
197.403
196.365
1321.32
1545.03
1547.95
1548.45
1548.33
1547.57
1544.42
1318.7
193.842
197.852
1329.89
1546.43
1548.5
1549.45
1549.35
1548.21
1545.95
1327.6
195.578
200.694
1341.57
1550.12
1551.44
1552.79
1552.71
1551.21
1549.74
1339.59
198.64
207.894
1357.53
1555.91
1556.66
1558.35
1558.29
1556.46
1555.61
1355.78
205.985
218.39
1376.99
1563.65
1564.02
1566.03
1565.98
1563.87
1563.43
1375.53
216.691
232.623
1399.84
1573.24
1573.42
1575.71
1575.67
1573.31
1573.08
1398.67
231.135
250.837
1425.83
1584.56
1584.74
1587.28
1587.25
1584.67
1584.46
1424.95
249.585
273.461
1454.7
1597.52
1597.88
1600.63
1600.62
1597.85
1597.47
1454.09
272.464
301.075
1486.15
1612
1612.74
1615.67
1615.66
1612.73
1611.99
1485.78
300.348
334.44
1519.81
1627.99
1629.22
1632.31
1632.31
1629.23
1628
1519.64
333.983
374.535
1555.37
1645.36
1647.25
1650.48
1650.49
1647.28
1645.39
1555.35
374.342
422.633
1592.39
1664.15
1666.79
1670.16
1670.17
1666.82
1664.19
1592.47
422.678
480.41
1630.36
1684.32
1687.8
1691.3
1691.32
1687.85
1684.38
1630.49
480.634
550.035
1668.72
1705.9
1710.27
1713.89
1713.9
1710.33
1705.98
1668.86
550.372
634.301
1706.67
1728.93
1734.13
1737.81
1737.83
1734.18
1729.01
1706.8
634.703
736.571
1743.16
1753.25
1759.1
1762.79
1762.81
1759.16
1753.34
1743.28
736.999
860.376
1776.06
1778.36
1784.62
1788.31
1788.33
1784.68
1778.46
1776.17
860.827
1007.33
1802.31
1803.56
1810.09
1813.81
1813.83
1810.15
1803.67
1802.43
1007.8
1168.35
1827.69
1828.1
1834.81
1838.32
1838.34
1834.87
1828.21
1827.81
1168.86
1338.18
1847.94
1850.85
1857.21
1859.82
1859.84
1857.25
1850.94
1848.05
1338.7
1494.1
1867.19
1873.81
1878.02
1879.66
1879.67
1878.05
1873.87
1867.29
1494.57
1659.74
1898.93
1903.82
1900.74
1900.03
1900.03
1900.76
1903.84
1898.98
1660.04
1788.14
1939.27
1927.87
1920.04
1916.07
1916.08
1920.05
1927.88
1939.29
1788.24
1995.15
1951.68
1902.36
1848.15
1790.3
1730.24
1669.53
1609.75
1552.48
1499.18
1451.12
1409.11
1372.45
1340.56
1313.19
1290.24
1271.42
1256.25
1244.25
1234.95
1227.93
1222.86
1219.41
1217.37
1216.53
1216.73
1217.86
1219.8
1222.48
1225.8
1229.7
1234.06
1238.81
1244.02
1250.52
1258.93
1259.48
1264.01
1266.07
1267.13
1825.98
1789.71
1749
1705.14
1659.35
1612.89
1567.11
1523.25
1482.38
1445.25
1412.24
1383.65
1360.58
1341.6
1326.04
1313.34
1302.89
1294.21
1286.92
1280.74
1275.49
1271.05
1267.34
1264.34
1262.01
1260.36
1259.37
1259.01
1259.23
1259.99
1261.17
1262.65
1264.23
1265.9
1267.73
1267.27
1263.46
1264.24
1263.12
1270.78
1641.53
1616.77
1589.22
1560.07
1530.33
1501.01
1473.06
1447.28
1424.29
1404.47
1387.9
1374.46
1363.77
1355.17
1348.07
1342
1336.6
1331.61
1326.85
1322.22
1317.7
1313.31
1309.07
1305.06
1301.32
1297.91
1294.85
1292.15
1289.8
1287.73
1285.87
1284.1
1282.28
1280.36
1278.37
1276.54
1274.48
1266.36
1273.17
1280.02
1540.05
1522.54
1503.49
1483.57
1463.43
1443.66
1424.76
1407.27
1391.69
1378.39
1367.58
1359.24
1353.1
1348.62
1345.32
1342.76
1340.55
1338.35
1335.95
1333.23
1330.18
1326.83
1323.23
1319.47
1315.61
1311.75
1307.93
1304.2
1300.56
1297.02
1293.55
1290.13
1286.81
1283.66
1280.92
1278.95
1278.91
1282.4
1285.73
1301.81
1490.51
1479.02
1466.51
1453.28
1439.51
1425.4
1411.45
1398.08
1384.7
1370.06
1356.2
1345.82
1338.94
1333.85
1330.01
1328.05
1327.63
1327.77
1327.78
1327.34
1326.33
1324.74
1322.58
1319.95
1316.92
1313.59
1310.02
1306.3
1302.49
1298.64
1294.8
1291.08
1287.62
1284.67
1282.62
1282.1
1284.55
1292.77
1306.2
1319.82
1477.99
1472.51
1466.66
1460.55
1454.7
1450.67
1449.13
1442.96
1416.23
1363.73
1316.39
1293.59
1296.05
1303.16
1301.65
1298.63
1299.85
1303.2
1306.72
1309.62
1311.64
1312.73
1312.9
1312.24
1310.85
1308.85
1306.35
1303.47
1300.32
1297.01
1293.67
1290.46
1287.62
1285.48
1284.5
1285.37
1289.5
1299.47
1315.93
1329.97
1492.69
1494.05
1496.47
1501.4
1512.35
1529.25
1529.21
1450.69
1263.95
1092.42
1044.62
1030.21
1083.51
1165.17
1217.63
1233.49
1248.28
1261.7
1272.92
1281.89
1288.81
1293.9
1297.4
1299.51
1300.46
1300.43
1299.62
1298.18
1296.28
1294.09
1291.78
1289.56
1287.71
1286.59
1286.64
1288.5
1293.38
1303.47
1319.06
1332.01
1522.96
1531
1543.1
1564.87
1594.96
1580.46
1399.31
1085.42
925.561
907.316
901.911
904.991
915.153
967.669
1088.12
1147.4
1185.5
1213.21
1234.09
1250.31
1262.89
1272.51
1279.71
1284.92
1288.51
1290.76
1291.93
1292.25
1291.91
1291.13
1290.1
1289.06
1288.29
1288.12
1288.95
1291.3
1296.15
1305.19
1318.43
1328.77
1559.16
1574.77
1602.27
1644.6
1643
1418.22
1038.56
907.352
902.293
901.153
900.848
901.158
901.519
909.145
1020.12
1095.57
1141.87
1177.06
1203.22
1223.78
1240.18
1253.18
1263.37
1271.24
1277.2
1281.6
1284.71
1286.79
1288.06
1288.73
1289.02
1289.15
1289.36
1289.95
1291.23
1293.6
1297.79
1304.99
1315.09
1322.45
1591.45
1615.91
1659.72
1687.97
1518.81
1069.47
907.014
899.709
899.172
899.678
899.994
900.181
899.969
912.081
1022.7
1075.94
1119.59
1155.47
1182.84
1204.92
1223.12
1238.05
1250.18
1259.96
1267.77
1273.93
1278.71
1282.36
1285.1
1287.11
1288.59
1289.74
1290.75
1291.86
1293.28
1295.3
1298.37
1303.26
1309.85
1314.26
1612.42
1643.6
1685.25
1623.36
1216.06
912.172
899.046
897.237
897.567
898.041
898.55
899.049
898.395
936.255
1053.34
1076.22
1114.85
1146.87
1172.4
1193.88
1212.21
1227.73
1240.78
1251.67
1260.7
1268.14
1274.22
1279.15
1283.1
1286.22
1288.69
1290.65
1292.25
1293.63
1294.95
1296.35
1298.06
1300.45
1303.48
1305.66
1620.89
1650.73
1660.05
1479.05
1015.97
899.447
895.224
894.953
895.124
895.49
896.214
897.235
900.769
1006.88
1064.85
1089.28
1120.7
1147.08
1169.45
1189.17
1206.55
1221.75
1234.91
1246.25
1255.95
1264.21
1271.18
1277.05
1281.91
1285.89
1289.11
1291.66
1293.64
1295.11
1296.14
1296.78
1297.05
1296.99
1296.65
1296.23
1624.02
1646.06
1591.79
1244.13
913.848
889.138
891.485
892.324
891.82
892.113
893.174
892.845
934.799
1080.17
1081.71
1106.02
1130.55
1151.81
1171.03
1188.67
1204.69
1219.07
1231.88
1243.2
1253.14
1261.83
1269.35
1275.82
1281.32
1285.9
1289.64
1292.59
1294.76
1296.17
1296.81
1296.64
1295.52
1293.2
1289.84
1287.05
1622.09
1629.11
1512.7
1074.82
889.966
880.749
885.303
885.801
885.125
885.602
888.023
889.265
1006.43
1089.68
1098.7
1120.31
1140.16
1157.98
1174.74
1190.51
1205.16
1218.6
1230.83
1241.87
1251.79
1260.62
1268.42
1275.23
1281.1
1286.07
1290.13
1293.29
1295.51
1296.76
1296.96
1296
1293.61
1289.3
1283.38
1278.59
1626.1
1611.83
1401.92
970.873
883.649
871.103
868.259
870.741
872.478
873.189
874.296
886.763
1057.76
1104.54
1115.13
1132.99
1149.43
1164.72
1179.48
1193.65
1207.03
1219.51
1231.09
1241.74
1251.45
1260.24
1268.09
1275.05
1281.11
1286.27
1290.47
1293.69
1295.87
1296.9
1296.67
1295
1291.52
1285.58
1277.55
1270.84
1625.99
1584.08
1266.31
905.683
868.142
857.178
854.75
857.185
859.716
860.434
859.623
879.213
1069.24
1119.29
1128.15
1143.22
1157.47
1171.02
1184.29
1197.19
1209.52
1221.19
1232.15
1242.35
1251.77
1260.38
1268.16
1275.09
1281.19
1286.38
1290.61
1293.81
1295.88
1296.68
1296.06
1293.82
1289.51
1282.36
1272.66
1263.4
1605.24
1530.55
1135.12
864.853
854.047
850.812
849.926
850.778
851.864
852.251
851.888
870.19
1067.92
1127.58
1135.61
1150.05
1163.52
1176.19
1188.57
1200.63
1212.19
1223.22
1233.64
1243.41
1252.49
1260.85
1268.45
1275.26
1281.27
1286.41
1290.58
1293.68
1295.61
1296.2
1295.28
1292.62
1287.73
1279.76
1268.66
1258.86
1576.27
1467.41
1016.61
840.058
840.188
844.857
848.056
848.011
846.398
845.696
845.584
857.082
1048.38
1131.88
1138.96
1154.29
1168.04
1180.46
1192.39
1203.92
1214.96
1225.47
1235.43
1244.78
1253.51
1261.55
1268.92
1275.55
1281.39
1286.4
1290.44
1293.42
1295.2
1295.61
1294.47
1291.54
1286.31
1277.9
1266.15
1256.02
1547.45
1356.26
899.599
789.297
809.231
831.264
843.204
842.618
837.11
833.877
831.35
837.88
1006.81
1138.72
1141.91
1157.86
1172.2
1184.58
1196.2
1207.34
1217.95
1228.02
1237.54
1246.45
1254.79
1262.52
1269.6
1275.97
1281.61
1286.42
1290.29
1293.13
1294.77
1295.06
1293.79
1290.74
1285.41
1276.9
1265.31
1255.45
1537.99
1289.81
837.644
753.694
774.631
817.584
834.011
822.908
814.689
811.257
809.149
812.923
937.126
1141.7
1145.39
1161.78
1176.69
1189.1
1200.46
1211.2
1221.38
1230.99
1240.01
1248.51
1256.45
1263.8
1270.54
1276.63
1282.02
1286.59
1290.27
1292.96
1294.49
1294.71
1293.42
1290.41
1285.19
1276.9
1266.12
1257.92
1551.95
1263.83
846.202
770.191
773.71
798.223
798.695
780.337
781.474
781.799
781.173
781.536
858.55
1125.28
1154.69
1169.24
1183.24
1195.1
1205.86
1215.98
1225.55
1234.56
1243.06
1251.06
1258.54
1265.47
1271.84
1277.62
1282.69
1287
1290.49
1293.04
1294.5
1294.71
1293.51
1290.68
1285.78
1278.02
1268.02
1260.41
1544.26
1205.59
835.319
778.046
778.919
780.819
751.819
743.235
749.939
752.811
752.471
749.472
786.066
1079.41
1172.83
1182.02
1192.89
1203.12
1212.7
1221.85
1230.58
1238.87
1246.72
1254.15
1261.12
1267.59
1273.57
1278.97
1283.73
1287.79
1291.09
1293.51
1294.94
1295.21
1294.18
1291.67
1287.27
1280.29
1271.28
1264.45
1518.4
1114.43
790.12
765.398
759.199
737.115
726.18
727.712
731.818
733.786
732.947
730.877
740.517
963.464
1188.1
1194.1
1202.64
1211.47
1220
1228.22
1236.14
1243.72
1250.92
1257.76
1264.2
1270.2
1275.77
1280.78
1285.22
1289.04
1292.15
1294.48
1295.91
1296.31
1295.54
1293.46
1289.72
1283.71
1275.92
1270.03
1492.44
1022.36
745.746
740.45
732.745
724.127
721.606
723.088
724.285
724.481
723.23
721.949
725.465
812.86
1151.68
1204.18
1211.76
1219.64
1227.38
1234.88
1242.09
1249.02
1255.63
1261.89
1267.79
1273.35
1278.47
1283.1
1287.23
1290.81
1293.77
1296.02
1297.49
1298.07
1297.64
1296.09
1293.12
1288.24
1281.86
1277.02
1462.38
951.46
727.023
725.576
724.103
722.101
720.753
720.084
719.463
718.676
717.37
715.41
714.764
730.627
956.796
1209.78
1222
1228.56
1235.31
1242.01
1248.53
1254.82
1260.84
1266.57
1271.97
1277.04
1281.72
1286
1289.81
1293.14
1295.99
1298.2
1299.75
1300.55
1300.52
1299.57
1297.46
1293.82
1288.96
1285.27
1413.87
893.926
715.722
716.339
719.274
720.582
719.144
716.325
714.48
713.254
711.849
710.129
708.704
708.514
749.509
1060.52
1229.87
1237.44
1243.43
1249.39
1255.3
1261.03
1266.53
1271.75
1276.67
1281.29
1285.57
1289.5
1293.01
1296.12
1298.85
1301.06
1302.72
1303.78
1304.2
1303.89
1302.7
1300.38
1297.09
1294.24
1377.92
841.572
703.552
707.409
716.569
718.789
715.04
710.898
708.949
707.864
706.825
705.522
704.173
703.295
702.999
775.798
1089.82
1239.41
1251.86
1257.24
1262.51
1267.74
1272.75
1277.5
1281.97
1286.16
1290.05
1293.64
1296.86
1299.79
1302.37
1304.61
1306.41
1307.76
1308.64
1309
1308.78
1307.8
1306.12
1304.26
1352.68
814.18
706.409
708.555
716.769
714.311
706.769
703.716
702.837
702.621
702.22
701.508
700.608
699.692
698.884
698.614
778.971
1050.02
1259.05
1265.3
1270.19
1274.96
1279.56
1283.88
1287.92
1291.68
1295.2
1298.44
1301.41
1304.15
1306.63
1308.87
1310.82
1312.46
1313.81
1314.86
1315.58
1315.94
1315.87
1315.15
1331.1
798.96
713.926
713.426
714.446
706.498
697.565
697.367
697.878
698.242
698.28
698.035
697.537
696.91
696.13
695.286
695.256
745.608
1136.69
1273.56
1278.83
1283.1
1287.16
1291.01
1294.6
1297.94
1301.02
1303.95
1306.68
1309.23
1311.6
1313.85
1315.93
1317.86
1319.66
1321.36
1323.01
1324.66
1326.14
1326.51
1305.46
781.327
715.75
713.557
708.875
695.617
692.121
693.399
694.477
695.019
695.342
695.321
695.013
694.577
693.974
693.268
692.847
692.983
792.078
1210.04
1288.97
1292.68
1295.89
1299.06
1302.11
1304.97
1307.64
1310.21
1312.66
1315
1317.26
1319.51
1321.71
1323.9
1326.13
1328.45
1330.95
1333.81
1336.76
1338.14
1277.54
761.2
710.376
703.628
695.374
690.587
690.532
691.73
692.599
693.087
693.331
693.377
693.195
692.912
692.486
691.979
691.503
691.18
691.464
877.043
1261.33
1302.89
1305.35
1307.84
1310.32
1312.71
1314.99
1317.17
1319.31
1321.44
1323.58
1325.81
1328.11
1330.52
1333.13
1335.98
1339.29
1343.24
1347.49
1350.28
1244.7
738.105
700.12
694.621
691.706
690.545
690.782
691.324
691.699
691.926
692.006
691.98
691.918
691.749
691.46
691.131
690.811
690.513
690.636
692.639
1068.97
1311.71
1315.29
1317.19
1319.15
1321.06
1322.93
1324.79
1326.62
1328.51
1330.52
1332.71
1335.06
1337.67
1340.59
1343.92
1347.91
1352.81
1358.22
1361.97
1210.59
721.234
694.696
691.976
691.274
691.011
690.952
690.988
691.028
691.039
691.01
690.975
690.923
690.756
690.514
690.265
690.017
689.791
689.542
688.888
785.181
1251.48
1326.19
1327.1
1328.53
1330
1331.45
1332.95
1334.52
1336.17
1338.04
1340.15
1342.52
1345.27
1348.42
1352.17
1356.71
1362.42
1368.77
1373.2
1175.89
710.954
692.794
690.9
690.955
690.811
690.611
690.468
690.359
690.258
690.161
690.103
690.027
689.886
689.677
689.471
689.252
689.024
688.738
688.518
689.29
1100.32
1337.75
1337.14
1338.21
1339.37
1340.45
1341.6
1342.89
1344.36
1346.06
1348.05
1350.42
1353.23
1356.59
1360.64
1365.62
1371.93
1379.02
1383.99
1137.93
701.949
689.703
690.059
691.222
690.737
690.232
689.9
689.683
689.508
689.366
689.266
689.187
689.06
688.96
688.83
688.644
688.521
688.437
688.441
688.721
963.865
1341.77
1347.35
1348.12
1349.1
1349.86
1350.68
1351.7
1352.95
1354.48
1356.37
1358.7
1361.52
1365.01
1369.25
1374.53
1381.26
1388.86
1394.2
1095.94
692.474
686.136
690.988
691.445
690.477
689.649
689.18
688.88
688.666
688.504
688.377
688.283
688.204
688.181
688.097
687.964
687.871
687.837
687.819
687.751
931.812
1348.18
1358.79
1358.83
1359.42
1359.77
1360.22
1360.93
1361.95
1363.29
1365.05
1367.3
1370.09
1373.61
1377.94
1383.38
1390.32
1398.2
1403.75
1057.26
693.271
689.297
696.32
689.749
688.819
688.258
687.954
687.754
687.606
687.497
687.421
687.391
687.391
687.355
687.311
687.221
687.179
687.189
687.159
686.803
948.677
1362.48
1370.1
1369.71
1369.96
1369.94
1370.06
1370.48
1371.26
1372.42
1374.02
1376.16
1378.88
1382.34
1386.67
1392.1
1399.07
1406.99
1412.59
1026.58
699.547
691.97
692.659
686.049
686.562
686.504
686.454
686.454
686.435
686.421
686.452
686.508
686.507
686.507
686.523
686.49
686.557
686.748
686.948
686.276
1019.52
1380.72
1380.68
1380.51
1380.56
1380.24
1380.07
1380.26
1380.82
1381.79
1383.23
1385.21
1387.83
1391.15
1395.36
1400.64
1407.46
1415.21
1420.7
992.167
697.601
685.363
686.437
683.005
684.898
685.068
685.13
685.2
685.291
685.414
685.498
685.53
685.556
685.588
685.609
685.602
685.657
685.838
686.427
698.77
1156.08
1395.76
1391.92
1391.77
1391.39
1390.72
1390.28
1390.24
1390.59
1391.36
1392.61
1394.41
1396.84
1399.99
1403.96
1408.94
1415.32
1422.82
1428.09
950.857
686.465
675.688
678.662
681.273
683.835
683.962
683.898
684.04
684.228
684.368
684.458
684.53
684.588
684.62
684.585
684.598
684.597
684.509
684.06
765.889
1296.02
1406.45
1403.63
1403.15
1402.23
1401.23
1400.57
1400.31
1400.46
1401
1402.05
1403.68
1405.89
1408.78
1412.44
1416.94
1422.91
1429.88
1434.79
916.728
679.862
662.662
673.658
679.651
683.19
683.09
682.867
682.985
683.193
683.363
683.5
683.615
683.673
683.714
683.776
683.847
683.962
684.001
683.114
926.535
1394.69
1415.58
1414.44
1413.89
1412.68
1411.52
1410.74
1410.34
1410.33
1410.57
1411.41
1412.95
1414.9
1417.48
1420.76
1424.75
1430.16
1436.43
1440.85
886.335
676.857
647.845
666.314
676.499
681.858
681.955
681.786
681.967
682.229
682.419
682.56
682.681
682.798
682.905
682.988
683.054
683.161
683.4
696.537
1189.93
1428.73
1425.17
1425.1
1424.29
1422.89
1421.67
1420.82
1420.31
1420.08
1420.21
1420.87
1422.09
1423.84
1426.06
1428.8
1432.34
1437.03
1442.52
1446.36
854.13
669.529
629.069
652.443
671.816
680.15
680.935
680.794
681.011
681.305
681.539
681.744
681.919
682.062
682.177
682.282
682.405
682.391
681.514
874.373
1394.56
1436.89
1435.97
1435.77
1434.46
1432.92
1431.68
1430.77
1430.15
1429.7
1429.78
1430.23
1431.11
1432.61
1434.43
1436.63
1439.66
1443.64
1448.18
1451.03
821.321
659.314
609.941
632.622
662.291
677.53
680.499
680.403
680.433
680.684
680.93
681.132
681.297
681.439
681.575
681.735
681.903
681.832
729.669
1254.43
1449.78
1446.86
1447.05
1446.04
1444.33
1442.76
1441.51
1440.54
1439.75
1439.27
1439.32
1439.44
1440.06
1441.06
1442.48
1444.33
1446.72
1449.99
1453.5
1453.08
776.127
636.207
591.307
601.006
672.197
676.14
680.015
680.091
680.022
680.198
680.405
680.574
680.709
680.829
680.959
681.081
680.95
696.204
1082.88
1455.61
1458.52
1458.17
1457.49
1455.72
1453.88
1452.33
1451.06
1450.04
1449.16
1448.71
1448.57
1448.47
1448.77
1449.44
1450.44
1451.78
1453.53
1455.99
1458.54
1456.96
742.742
628.172
590.563
610.386
797.001
676.666
679.741
679.855
679.724
679.811
679.961
680.093
680.208
680.309
680.399
680.233
692.577
998.442
1441.97
1471.72
1469.42
1468.74
1466.91
1464.84
1463.03
1461.51
1460.23
1459.18
1458.32
1457.77
1457.41
1457.23
1457.16
1457.51
1458.1
1458.93
1460.15
1461.69
1463.3
1460.97
723.796
637.728
616.279
659.496
1068.72
699.351
678.615
679.598
679.463
679.468
679.591
679.736
679.885
679.856
679.651
706.911
1003.07
1428.39
1484.36
1480.49
1479.56
1477.63
1475.38
1473.37
1471.66
1470.19
1468.92
1467.86
1467
1466.33
1465.85
1465.53
1465.19
1465.32
1465.57
1465.91
1466.44
1467.13
1467.8
1464.82
708.137
638.046
630.611
677.298
1160.43
989.995
677.446
678.765
679.111
679.297
679.405
679.385
679.254
678.861
758.124
1084.7
1443.49
1494.48
1490.64
1489.49
1487.47
1485.14
1483.05
1481.24
1479.66
1478.27
1477.06
1476.02
1475.14
1474.41
1473.82
1473.35
1472.93
1472.73
1472.57
1472.47
1472.41
1472.36
1472.04
1468.58
668.885
610.149
608.196
643.037
1170.54
1400.99
716.449
674.741
677.431
678.355
678.633
678.294
722.442
904.313
1240.01
1480.34
1501.61
1499.11
1497.96
1495.99
1493.76
1491.74
1489.97
1488.39
1486.98
1485.71
1484.59
1483.6
1482.72
1481.96
1481.28
1480.68
1480.15
1479.58
1479.14
1478.65
1478.1
1477.4
1476.19
1472.31
609.711
562.617
562.557
604.602
1198.51
1474.34
1158.46
828.792
753.667
751.909
816.375
976.001
1211.29
1427.48
1508.03
1505.68
1505.08
1504.34
1502.74
1500.89
1499.18
1497.62
1496.18
1494.86
1493.65
1492.54
1491.53
1490.6
1489.76
1488.97
1488.24
1487.54
1486.82
1485.96
1485.22
1484.44
1483.52
1482.26
1480.42
1477.22
550.271
514.887
515.173
577.585
1242.22
1486.94
1476.84
1378.15
1331.9
1336.12
1394.03
1471.8
1505.6
1505.86
1507.3
1508.66
1508.66
1507.75
1506.54
1505.31
1504.12
1502.95
1501.83
1500.77
1499.76
1498.81
1497.92
1497.07
1496.27
1495.49
1494.71
1493.92
1492.96
1492.04
1491.05
1489.97
1488.73
1487
1484.84
1483.59
501.79
476.948
476.697
587.864
1320.65
1501.68
1500.63
1498.9
1500.78
1503.52
1505.65
1507.91
1510.31
1512.12
1512.86
1512.72
1512.11
1511.33
1510.51
1509.66
1508.79
1507.91
1507.05
1506.21
1505.39
1504.57
1503.81
1503.06
1502.3
1501.54
1500.72
1499.75
1498.8
1497.77
1496.59
1495.33
1493.74
1491.65
1489.27
1487.59
463.07
443.506
444.658
686.531
1468.67
1506.64
1508.95
1509.57
1510.76
1512.31
1513.88
1515.18
1515.96
1516.21
1516.09
1515.79
1515.39
1514.92
1514.39
1513.81
1513.19
1512.56
1511.92
1511.26
1510.52
1509.78
1509.15
1508.61
1507.92
1507.11
1506.2
1505.31
1504.31
1503.17
1501.91
1500.46
1498.58
1496.2
1493.51
1491.61
421.648
402.01
407.678
889.741
1511.73
1519.33
1517.68
1517.04
1517.51
1518.16
1518.69
1519.04
1519.22
1519.26
1519.2
1519.06
1518.84
1518.56
1518.22
1517.83
1517.41
1516.94
1516.46
1515.97
1515.35
1514.78
1514.22
1513.64
1513.01
1512.26
1511.46
1510.55
1509.49
1508.29
1506.98
1505.29
1503.24
1500.67
1497.77
1495.6
410.655
377.497
405.309
1100.37
1529.37
1530.1
1525.29
1523.33
1522.87
1522.75
1522.7
1522.69
1522.68
1522.66
1522.6
1522.51
1522.37
1522.19
1521.98
1521.74
1521.45
1521.1
1520.78
1520.43
1520.07
1519.55
1519.03
1518.5
1517.9
1517.21
1516.41
1515.5
1514.47
1513.19
1511.66
1509.86
1507.33
1504.45
1501.36
1498.89
452.386
408.714
467.262
1239.35
1528.95
1529.09
1527.44
1526.8
1526.56
1526.38
1526.25
1526.15
1526.08
1526.01
1525.95
1525.88
1525.81
1525.73
1525.61
1525.51
1525.33
1525.12
1524.93
1524.71
1524.51
1524.16
1523.63
1523.13
1522.57
1521.89
1521.17
1520.26
1519.09
1517.71
1516.01
1513.33
1510.9
1508.19
1505.22
1503.15
506.367
472.971
546.302
1318.93
1529.2
1528.02
1529.71
1530.19
1530.01
1529.75
1529.56
1529.41
1529.28
1529.2
1529.15
1529.12
1529.1
1528.89
1529.03
1529.12
1529.07
1528.97
1528.9
1528.85
1528.7
1528.48
1528.14
1527.63
1527.09
1526.5
1525.69
1524.66
1523.37
1521.95
1520.18
1517.35
1514.99
1512.3
1509.42
1507.85
537.429
519.758
582.321
1329.82
1537.13
1531.28
1533.75
1534.26
1533.66
1533.09
1532.71
1532.44
1532.26
1532.16
1532.13
1532.15
1531.95
1532.04
1532.35
1532.56
1532.65
1532.71
1532.78
1532.8
1532.76
1532.64
1532.42
1532.06
1531.56
1530.88
1529.99
1528.78
1527.38
1525.92
1524.17
1522.01
1519.42
1516.59
1514.2
1512.73
544.612
535.92
581.2
1313.13
1548.81
1536.92
1538.32
1538.21
1537.03
1536.05
1535.44
1535.06
1534.85
1534.77
1534.8
1534.65
1534.73
1535
1535.54
1535.81
1536.05
1536.27
1536.47
1536.63
1536.73
1536.73
1536.61
1536.34
1535.88
1535.2
1534.24
1532.88
1531.42
1529.81
1527.88
1525.82
1523.54
1520.81
1518.14
1516.56
529.681
524.177
550.303
1273.63
1555.01
1539.74
1540.63
1540.39
1539.04
1537.96
1537.33
1536.99
1536.84
1536.79
1536.76
1536.93
1537.27
1537.91
1538.42
1538.84
1539.25
1539.65
1540.04
1540.4
1540.66
1540.82
1540.84
1540.68
1540.31
1539.66
1538.66
1537.19
1535.48
1533.45
1531.02
1528.81
1526.91
1524.37
1521.18
1497.2
494.367
490.075
500.831
1216.87
1553.24
1538.46
1539.96
1540.28
1539.34
1538.55
1538.14
1537.89
1537.83
1538.05
1538.43
1538.91
1539.55
1540.42
1541.03
1541.66
1542.29
1541.59
1539.89
1543.69
1544.62
1544.99
1545.21
1545.24
1545.04
1544.55
1543.67
1542.27
1540.37
1537.34
1534.86
1466.18
1416.47
1422.12
1272.49
1071.34
441.391
439.06
437.291
1152.54
1550.79
1537.17
1538.4
1538.99
1538.5
1538.15
1538.04
1538.03
1538.47
1539.04
1539.72
1540.48
1541.65
1542.55
1543.43
1544.32
1544.85
1541.79
1542.64
1544.33
1548.61
1549.25
1549.77
1550.12
1550.28
1550.19
1549.8
1549
1547.52
1530.24
1377.11
1056.46
1016.98
1018.75
1012.03
1012.12
389.088
386.823
385.459
1081.71
1547.04
1535.26
1535.87
1536.59
1536.64
1536.84
1537.23
1537.68
1538.55
1539.52
1540.58
1541.78
1543.26
1544.45
1545.65
1546.6
1544.31
1544.79
1545.95
1547.06
1552.56
1553.57
1554.46
1555.25
1555.94
1556.52
1556.97
1557.29
1557.23
1501.65
1030.46
1016.37
1015.24
1014
1013.33
1012.71
341.784
339.726
338.691
1025.72
1537.43
1529.59
1531.01
1532.54
1533.51
1534.54
1535.69
1536.76
1538.11
1539.58
1541.09
1542.98
1544.62
1546.19
1547.75
1548.8
1546.25
1547.73
1549.17
1550.88
1556.47
1557.77
1559.03
1560.26
1561.47
1562.67
1563.91
1565.26
1566.54
1515.58
1065.91
1018.99
1017.97
1015.8
1075.43
1163.08
298.4
296.16
295.206
988.024
1525.35
1521.84
1524.76
1527.48
1529.57
1531.59