/*--------------------------------*- C++ -*----------------------------------*\
  =========                 |
  \\      /  F ield         | OpenFOAM: The Open Source CFD Toolbox
   \\    /   O peration     | Website:  https://openfoam.org
    \\  /    A nd           | Version:  8
     \\/     M anipulation  |
\*---------------------------------------------------------------------------*/
FoamFile
{
    version     2.0;
    format      ascii;
    class       surfaceScalarField;
    location    "1.2";
    object      alphaPhi0.water;
}
// * * * * * * * * * * * * * * * * * * * * * * * * * * * * * * * * * * * * * //

dimensions      [0 3 -1 0 0 0 0];

internalField   nonuniform List<scalar> 
18095
(
1.58393e-07
-9.64802e-07
8.06409e-07
1.65525e-07
-1.24844e-06
1.24131e-06
1.22366e-07
-1.24245e-06
1.28561e-06
6.54259e-08
-1.2636e-06
1.32054e-06
1.08834e-12
-1.28071e-06
1.34613e-06
-6.54241e-08
-1.28071e-06
1.34613e-06
-1.22365e-07
-1.2636e-06
1.32054e-06
-1.65524e-07
-1.24245e-06
1.28561e-06
-1.58393e-07
-1.24844e-06
1.24131e-06
-9.64803e-07
8.0641e-07
1.11194e-07
-1.076e-06
9.96051e-08
-1.23685e-06
7.29907e-08
-1.21584e-06
4.01185e-08
-1.23073e-06
8.86412e-13
-1.24059e-06
-4.01169e-08
-1.24059e-06
-7.29897e-08
-1.23073e-06
-9.96046e-08
-1.21584e-06
-1.11194e-07
-1.23685e-06
-1.076e-06
6.74057e-08
-1.1434e-06
5.29252e-08
-1.22237e-06
4.22318e-08
-1.20514e-06
2.39221e-08
-1.21242e-06
9.17789e-13
-1.21667e-06
-2.39204e-08
-1.21667e-06
-4.22307e-08
-1.21242e-06
-5.29247e-08
-1.20514e-06
-6.74055e-08
-1.22237e-06
-1.1434e-06
3.98567e-08
-1.18326e-06
2.67311e-08
-1.20924e-06
2.20699e-08
-1.20048e-06
1.25697e-08
-1.20292e-06
6.0458e-13
-1.2041e-06
-1.25685e-08
-1.2041e-06
-2.20689e-08
-1.20292e-06
-2.67304e-08
-1.20048e-06
-3.98564e-08
-1.20924e-06
-1.18326e-06
1.67415e-08
7.49941e-09
7.01735e-09
4.09917e-09
6.01117e-14
-4.09912e-09
-7.01743e-09
-7.49951e-09
-1.67414e-08
-1.74857e-07
-1.16344e-06
1.33829e-06
-2.18667e-07
-1.21596e-06
1.25977e-06
-1.65022e-07
-1.21279e-06
1.15915e-06
-8.71779e-08
-1.20449e-06
1.12664e-06
9.52173e-12
-1.20331e-06
1.11612e-06
8.71966e-08
-1.20331e-06
1.11612e-06
1.65038e-07
-1.20449e-06
1.12665e-06
2.18682e-07
-1.2128e-06
1.15915e-06
1.74872e-07
-1.21597e-06
1.25978e-06
-1.16344e-06
1.33832e-06
-9.3079e-08
-1.07036e-06
-9.55865e-08
-1.21346e-06
-7.91499e-08
-1.22923e-06
-4.41702e-08
-1.23947e-06
4.89802e-12
-1.24748e-06
4.41796e-08
-1.24749e-06
7.91582e-08
-1.23947e-06
9.55933e-08
-1.22923e-06
9.30831e-08
-1.21346e-06
-1.07036e-06
-5.79681e-08
-1.01239e-06
-5.51195e-08
-1.2163e-06
-4.64072e-08
-1.23794e-06
-2.70481e-08
-1.25883e-06
2.96297e-12
-1.27453e-06
2.70538e-08
-1.27454e-06
4.6412e-08
-1.25883e-06
5.5123e-08
-1.23794e-06
5.79699e-08
-1.21631e-06
-1.01239e-06
-7.48746e-08
-9.37514e-07
-6.19538e-08
-1.22923e-06
-4.84604e-08
-1.25143e-06
-2.76715e-08
-1.27961e-06
2.01627e-12
-1.30221e-06
2.76753e-08
-1.30221e-06
4.84636e-08
-1.27962e-06
6.1956e-08
-1.25144e-06
7.48756e-08
-1.22923e-06
-9.37516e-07
-1.31105e-07
-1.19025e-07
-8.48482e-08
-4.39223e-08
1.46316e-12
4.3925e-08
8.48506e-08
1.19027e-07
1.31107e-07
-4.6302e-08
-9.33137e-07
9.79439e-07
3.96779e-09
-1.34015e-06
1.28988e-06
1.16901e-08
-1.27387e-06
1.26614e-06
5.30442e-09
-1.22766e-06
1.23404e-06
1.00751e-10
-1.22501e-06
1.23022e-06
-5.091e-09
-1.22504e-06
1.23023e-06
-1.15193e-08
-1.22765e-06
1.23408e-06
-3.76845e-09
-1.27384e-06
1.26609e-06
4.6542e-08
-1.34019e-06
1.28988e-06
-9.33466e-07
9.80008e-07
1.31592e-08
-9.46296e-07
1.96504e-08
-1.34664e-06
1.3478e-08
-1.26769e-06
6.83754e-09
-1.22102e-06
7.34657e-11
-1.21825e-06
-6.70095e-09
-1.21826e-06
-1.3351e-08
-1.221e-06
-1.94804e-08
-1.26771e-06
-1.30185e-08
-1.34665e-06
-9.46484e-07
2.79819e-08
-9.74278e-07
1.96395e-08
-1.33829e-06
1.16399e-08
-1.25969e-06
6.61234e-09
-1.21599e-06
4.17733e-11
-1.21168e-06
-6.54146e-09
-1.21168e-06
-1.15494e-08
-1.21599e-06
-1.9559e-08
-1.2597e-06
-2.79029e-08
-1.33831e-06
-9.74387e-07
7.91304e-08
-1.05341e-06
5.23747e-08
-1.31154e-06
3.35227e-08
-1.24084e-06
2.08361e-08
-1.2033e-06
2.53943e-11
-1.19087e-06
-2.07851e-08
-1.19087e-06
-3.34651e-08
-1.20331e-06
-5.2312e-08
-1.24085e-06
-7.90757e-08
-1.31154e-06
-1.05346e-06
2.84884e-07
2.33118e-07
1.51422e-07
7.47615e-08
1.62661e-11
-7.47287e-08
-1.51392e-07
-2.33092e-07
-2.84854e-07
-3.79562e-07
-9.26216e-08
4.72183e-07
-2.85463e-07
-9.40989e-08
-1.90331e-07
-9.51325e-08
-9.45475e-08
-9.57832e-08
1.45191e-09
-9.59995e-08
9.74951e-08
-9.60433e-08
1.93412e-07
-9.59166e-08
2.88771e-07
-9.53597e-08
3.832e-07
-9.44288e-08
-9.3076e-08
4.76276e-07
-3.20413e-07
-1.69595e-07
3.97387e-07
-2.41889e-07
-1.72623e-07
-1.62189e-07
-1.74833e-07
-8.16702e-08
-1.76302e-07
-6.05552e-10
-1.77064e-07
8.05117e-08
-1.77161e-07
1.61191e-07
-1.76596e-07
2.41167e-07
-1.75336e-07
3.20093e-07
-1.73356e-07
-1.70591e-07
3.97608e-07
-2.74903e-07
-2.35371e-07
3.40679e-07
-2.078e-07
-2.39726e-07
-1.3969e-07
-2.42944e-07
-7.0898e-08
-2.45094e-07
-1.73358e-09
-2.46229e-07
6.74811e-08
-2.46375e-07
1.36425e-07
-2.4554e-07
2.04794e-07
-2.43705e-07
2.72268e-07
-2.4083e-07
-2.36857e-07
3.38535e-07
-2.37807e-07
-2.9217e-07
2.94607e-07
-1.79889e-07
-2.97644e-07
-1.21138e-07
-3.01695e-07
-6.18258e-08
-3.04405e-07
-2.21788e-09
-3.05837e-07
5.74298e-08
-3.06023e-07
1.16862e-07
-3.04971e-07
1.75816e-07
-3.0266e-07
2.34026e-07
-2.9904e-07
-2.94041e-07
2.9121e-07
-2.05424e-07
-3.41274e-07
2.54528e-07
-1.55408e-07
-3.4766e-07
-1.04718e-07
-3.52385e-07
-5.35761e-08
-3.55548e-07
-2.19635e-09
-3.57216e-07
4.92111e-08
-3.57431e-07
1.00437e-07
-3.56198e-07
1.51269e-07
-3.53492e-07
2.01488e-07
-3.49259e-07
-3.43415e-07
2.50862e-07
-1.76567e-07
-3.8365e-07
2.18943e-07
-1.33474e-07
-3.90753e-07
-8.98531e-08
-3.96006e-07
-4.58778e-08
-3.99523e-07
-1.71758e-09
-4.01376e-07
4.2462e-08
-4.0161e-07
8.6496e-08
-4.00232e-07
1.30216e-07
-3.97212e-07
1.7345e-07
-3.92493e-07
-3.8598e-07
2.16015e-07
-1.5086e-07
-4.20124e-07
1.87334e-07
-1.13832e-07
-4.2778e-07
-7.63948e-08
-4.33443e-07
-3.86816e-08
-4.37237e-07
-8.21796e-10
-4.39236e-07
3.70569e-08
-4.39489e-07
7.4827e-08
-4.38002e-07
1.12359e-07
-4.34744e-07
1.4952e-07
-4.29655e-07
-4.22632e-07
1.86172e-07
-1.28577e-07
-4.51592e-07
1.60043e-07
-9.67003e-08
-4.59657e-07
-6.45145e-08
-4.65629e-07
-3.21145e-08
-4.69637e-07
4.05809e-10
-4.71757e-07
3.29522e-08
-4.72035e-07
6.54304e-08
-4.7048e-07
9.7745e-08
-4.67059e-07
1.29801e-07
-4.61711e-07
-4.54331e-07
1.615e-07
-1.10425e-07
-4.7917e-07
1.38003e-07
-8.26086e-08
-4.87473e-07
-5.45981e-08
-4.93641e-07
-2.64416e-08
-4.97793e-07
1.80716e-09
-5.00005e-07
3.00908e-08
-5.00319e-07
5.83506e-08
-4.9874e-07
8.6528e-08
-4.95239e-07
1.14568e-07
-4.89751e-07
-4.82183e-07
1.42418e-07
-9.70268e-08
-5.0416e-07
1.22017e-07
-7.20375e-08
-5.12462e-07
-4.70131e-08
-5.18665e-07
-2.19392e-08
-5.22867e-07
3.18309e-09
-5.25128e-07
2.83436e-08
-5.25479e-07
5.35291e-08
-5.23925e-07
7.87275e-08
-5.20438e-07
1.03933e-07
-5.14959e-07
-5.07401e-07
1.29151e-07
-8.82888e-08
-5.27732e-07
1.11861e-07
-6.49818e-08
-5.35768e-07
-4.18231e-08
-5.41824e-07
-1.87313e-08
-5.45959e-07
4.35007e-09
-5.48209e-07
2.74645e-08
-5.48594e-07
5.06503e-08
-5.4711e-07
7.39478e-08
-5.43735e-07
9.74073e-08
-5.38418e-07
-5.31091e-07
1.21098e-07
-8.34747e-08
-5.50758e-07
1.06501e-07
-6.09548e-08
-5.58288e-07
-3.87614e-08
-5.64018e-07
-1.67563e-08
-5.67963e-07
5.16963e-09
-5.70135e-07
2.71091e-08
-5.70533e-07
4.91472e-08
-5.69149e-07
7.13711e-08
-5.65958e-07
9.38771e-08
-5.60923e-07
-5.53995e-07
1.16782e-07
-8.12185e-08
-5.73657e-07
1.04118e-07
-5.89859e-08
-5.80521e-07
-3.72078e-08
-5.85796e-07
-1.57113e-08
-5.89459e-07
5.64778e-09
-5.91494e-07
2.69961e-08
-5.91882e-07
4.84516e-08
-5.90605e-07
7.0131e-08
-5.87637e-07
9.21588e-08
-5.82951e-07
-5.76511e-07
1.14675e-07
-7.99654e-08
-5.96343e-07
1.02651e-07
-5.79471e-08
-6.02541e-07
-3.64061e-08
-6.07337e-07
-1.51733e-08
-6.10692e-07
5.90158e-09
-6.12569e-07
2.6956e-08
-6.12936e-07
4.81215e-08
-6.1177e-07
6.9529e-08
-6.09045e-07
9.13154e-08
-6.04737e-07
-5.98825e-07
1.13629e-07
-7.90525e-08
-6.18737e-07
1.01447e-07
-5.72632e-08
-6.24331e-07
-3.59276e-08
-6.28676e-07
-1.48973e-08
-6.31724e-07
5.96799e-09
-6.33434e-07
2.68014e-08
-6.3377e-07
4.77318e-08
-6.327e-07
6.88872e-08
-6.302e-07
9.03984e-08
-6.26248e-07
-6.20829e-07
1.12402e-07
-7.77118e-08
-6.40681e-07
9.96556e-08
-5.62989e-08
-6.45744e-07
-3.52918e-08
-6.49683e-07
-1.45624e-08
-6.52454e-07
6.01345e-09
-6.5401e-07
2.65553e-08
-6.54311e-07
4.71794e-08
-6.53323e-07
6.80012e-08
-6.51022e-07
8.91353e-08
-6.47382e-07
-6.42384e-07
1.1069e-07
-7.53696e-08
-6.61839e-07
9.65281e-08
-5.4619e-08
-6.66495e-07
-3.41777e-08
-6.70125e-07
-1.39462e-08
-6.72686e-07
6.17347e-09
-6.7413e-07
2.62779e-08
-6.74416e-07
4.64642e-08
-6.7351e-07
6.6832e-08
-6.71389e-07
8.74852e-08
-6.68037e-07
-6.63423e-07
1.08524e-07
-7.24347e-08
-6.82078e-07
9.26738e-08
-5.24828e-08
-6.86443e-07
-3.27413e-08
-6.89866e-07
-1.31416e-08
-6.92285e-07
6.38126e-09
-6.93653e-07
2.58922e-08
-6.93927e-07
4.54595e-08
-6.93079e-07
6.51585e-08
-6.91088e-07
8.50742e-08
-6.87953e-07
-6.83651e-07
1.05303e-07
-6.92917e-08
-7.01401e-07
8.86155e-08
-5.01313e-08
-7.05604e-07
-3.10947e-08
-7.08903e-07
-1.21492e-08
-7.11231e-07
6.73598e-09
-7.12538e-07
2.55913e-08
-7.12782e-07
4.44504e-08
-7.11938e-07
6.33548e-08
-7.09995e-07
8.23585e-08
-7.06957e-07
-7.02831e-07
1.01539e-07
-6.59508e-08
-7.19868e-07
8.44179e-08
-4.7529e-08
-7.24026e-07
-2.91503e-08
-7.27281e-07
-1.08118e-08
-7.29569e-07
7.48833e-09
-7.30838e-07
2.57506e-08
-7.31045e-07
4.39773e-08
-7.30165e-07
6.21753e-08
-7.28193e-07
8.03593e-08
-7.25141e-07
-7.2103e-07
9.85577e-08
-6.23789e-08
-7.37508e-07
8.00188e-08
-4.46665e-08
-7.41739e-07
-2.69032e-08
-7.45044e-07
-9.11435e-09
-7.47358e-07
8.67371e-09
-7.48626e-07
2.64339e-08
-7.48805e-07
4.4139e-08
-7.47869e-07
6.17639e-08
-7.45818e-07
7.92843e-08
-7.42661e-07
-7.38416e-07
9.66707e-08
-5.9046e-08
-7.54502e-07
7.60394e-08
-4.18998e-08
-7.58885e-07
-2.46357e-08
-7.62309e-07
-7.29693e-09
-7.64697e-07
1.0069e-08
-7.65992e-07
2.7409e-08
-7.66145e-07
4.46659e-08
-7.65126e-07
6.1777e-08
-7.62928e-07
7.86732e-08
-7.59557e-07
-7.55027e-07
9.52841e-08
-5.58936e-08
-7.70919e-07
7.23107e-08
-3.92487e-08
-7.75534e-07
-2.24148e-08
-7.79142e-07
-5.44793e-09
-7.81664e-07
1.15844e-08
-7.83024e-07
2.86046e-08
-7.83165e-07
4.55256e-08
-7.82047e-07
6.2251e-08
-7.79654e-07
7.86736e-08
-7.7598e-07
-7.71032e-07
9.46785e-08
-5.27619e-08
-7.86646e-07
6.84883e-08
-3.66825e-08
-7.91613e-07
-2.02892e-08
-7.95535e-07
-3.6587e-09
-7.98294e-07
1.31129e-08
-7.99795e-07
2.99172e-08
-7.9997e-07
4.66368e-08
-7.98767e-07
6.31432e-08
-7.9616e-07
7.92964e-08
-7.92133e-07
-7.8668e-07
9.49441e-08
-5.03912e-08
-8.01663e-07
6.54082e-08
-3.4817e-08
-8.07187e-07
-1.87598e-08
-8.11593e-07
-2.34144e-09
-8.14712e-07
1.42978e-08
-8.16435e-07
3.10119e-08
-8.16684e-07
4.76483e-08
-8.15404e-07
6.40466e-08
-8.12559e-07
8.00293e-08
-8.08116e-07
-8.02054e-07
9.54033e-08
-5.01198e-08
-8.16308e-07
6.47652e-08
-3.46411e-08
-8.22666e-07
-1.85302e-08
-8.27704e-07
-1.98906e-09
-8.31253e-07
1.47905e-08
-8.33215e-07
3.16256e-08
-8.33519e-07
4.83376e-08
-8.32116e-07
6.47403e-08
-8.28962e-07
8.06196e-08
-8.23995e-07
-8.17145e-07
9.57108e-08
-5.28588e-08
-8.31518e-07
6.80691e-08
-3.66407e-08
-8.38884e-07
-1.9793e-08
-8.44551e-07
-2.58383e-09
-8.48463e-07
1.47746e-08
-8.50573e-07
3.21089e-08
-8.50853e-07
4.92622e-08
-8.49269e-07
6.60795e-08
-8.45778e-07
8.23832e-08
-8.40299e-07
-8.327e-07
9.79378e-08
-5.7549e-08
-8.48558e-07
7.45889e-08
-3.97424e-08
-8.5669e-07
-2.1571e-08
-8.62723e-07
-3.28592e-09
-8.66748e-07
1.49606e-08
-8.6882e-07
3.30644e-08
-8.68957e-07
5.09518e-08
-8.67136e-07
6.85574e-08
-8.63378e-07
8.58162e-08
-8.57558e-07
-8.49525e-07
1.02641e-07
-5.93619e-08
-8.6717e-07
7.79738e-08
-4.03898e-08
-8.75662e-07
-2.13416e-08
-8.81771e-07
-2.38098e-09
-8.85708e-07
1.64053e-08
-8.87605e-07
3.49772e-08
-8.87529e-07
5.3317e-08
-8.85476e-07
7.14254e-08
-8.81482e-07
8.93039e-08
-8.75436e-07
-8.67036e-07
1.06815e-07
-5.43777e-08
-8.85442e-07
7.26498e-08
-3.58323e-08
-8.94209e-07
-1.71695e-08
-9.00434e-07
1.4955e-09
-9.04373e-07
2.00933e-08
-9.06203e-07
3.85865e-08
-9.06022e-07
5.6961e-08
-9.03852e-07
7.52255e-08
-8.99744e-07
9.33958e-08
-8.93606e-07
-8.8432e-07
1.10681e-07
-4.70575e-08
-9.03269e-07
6.48845e-08
-2.91225e-08
-9.12144e-07
-1.10726e-08
-9.18484e-07
7.07385e-09
-9.22519e-07
2.52962e-08
-9.24425e-07
4.35811e-08
-9.24307e-07
6.19243e-08
-9.22196e-07
8.0331e-08
-9.18149e-07
9.87908e-08
-9.12066e-07
-8.9921e-07
1.1368e-07
-4.41061e-08
-9.22741e-07
6.35779e-08
-2.52272e-08
-9.31023e-07
-6.69425e-09
-9.37017e-07
1.16741e-08
-9.40888e-07
3.00033e-08
-9.42754e-07
4.83952e-08
-9.42699e-07
6.69291e-08
-9.40731e-07
8.56643e-08
-9.36885e-07
1.04617e-07
-9.31018e-07
-9.0585e-07
1.11257e-07
-4.51212e-08
-9.4486e-07
6.72402e-08
-2.44447e-08
-9.51699e-07
-4.76001e-09
-9.56702e-07
1.42802e-08
-9.59929e-07
3.29541e-08
-9.61428e-07
5.14894e-08
-9.61234e-07
7.00781e-08
-9.59321e-07
8.88746e-08
-9.55682e-07
1.07986e-07
-9.50129e-07
-8.86137e-07
9.44912e-08
-4.56804e-08
-9.68463e-07
6.9283e-08
-2.39646e-08
-9.73414e-07
-3.61649e-09
-9.7705e-07
1.57452e-08
-9.79291e-07
3.44393e-08
-9.80123e-07
5.27404e-08
-9.79535e-07
7.08824e-08
-9.77464e-07
8.90897e-08
-9.7389e-07
1.07619e-07
-9.68658e-07
-8.415e-07
7.14085e-08
-4.11085e-08
-9.90171e-07
6.2817e-08
-2.05062e-08
-9.94017e-07
-9.02887e-10
-9.96654e-07
1.78839e-08
-9.98077e-07
3.60674e-08
-9.98307e-07
5.38679e-08
-9.97336e-07
7.15163e-08
-9.95123e-07
8.92681e-08
-9.91645e-07
1.07422e-07
-9.86812e-07
-7.94629e-07
5.64085e-08
-3.39346e-08
-1.00925e-06
5.30141e-08
-1.52359e-08
-1.01272e-06
2.94835e-09
-1.01484e-06
2.06574e-08
-1.01579e-06
3.80041e-08
-1.01565e-06
5.51533e-08
-1.01448e-06
7.23054e-08
-1.01228e-06
8.97151e-08
-1.00906e-06
1.07709e-07
-1.00481e-06
-7.38251e-07
4.35037e-08
-2.78795e-08
-1.02677e-06
4.53959e-08
-1.06928e-08
-1.0299e-06
6.13806e-09
-1.03167e-06
2.26534e-08
-1.0323e-06
3.89422e-08
-1.03194e-06
5.51273e-08
-1.03067e-06
7.13568e-08
-1.02851e-06
8.78026e-08
-1.0255e-06
1.04663e-07
-1.02167e-06
-6.80976e-07
3.03889e-08
-2.37847e-08
-1.0433e-06
4.03166e-08
-7.82904e-09
-1.04586e-06
7.70771e-09
-1.0472e-06
2.29364e-08
-1.04753e-06
3.79566e-08
-1.04696e-06
5.28621e-08
-1.04558e-06
6.77431e-08
-1.04339e-06
8.26866e-08
-1.04044e-06
9.77268e-08
-1.03671e-06
-6.32681e-07
2.02229e-08
-2.19396e-08
-1.05876e-06
3.74052e-08
-7.21796e-09
-1.06058e-06
7.02072e-09
-1.06144e-06
2.09354e-08
-1.06144e-06
3.46346e-08
-1.06066e-06
4.81969e-08
-1.05914e-06
6.16799e-08
-1.05687e-06
7.51323e-08
-1.05389e-06
8.85267e-08
-1.05011e-06
-5.98075e-07
1.36796e-08
-2.36236e-08
-1.07334e-06
3.81973e-08
-9.91464e-09
-1.07429e-06
3.22825e-09
-1.07459e-06
1.6e-08
-1.07422e-06
2.85309e-08
-1.07319e-06
4.09088e-08
-1.07152e-06
5.31944e-08
-1.06916e-06
6.54324e-08
-1.06614e-06
7.74554e-08
-1.06213e-06
-5.77088e-07
9.67414e-09
-2.86608e-08
-1.08679e-06
4.21098e-08
-1.5996e-08
-1.08695e-06
-3.89239e-09
-1.08669e-06
7.83319e-09
-1.08594e-06
1.93093e-08
-1.08467e-06
3.06236e-08
-1.08283e-06
4.1834e-08
-1.08038e-06
5.29698e-08
-1.07728e-06
6.32387e-08
-1.0724e-06
-5.73054e-07
8.47397e-09
-3.66305e-08
-1.09883e-06
4.86764e-08
-2.51856e-08
-1.0984e-06
-1.41908e-08
-1.09769e-06
-3.50887e-09
-1.09662e-06
6.96628e-09
-1.09514e-06
1.73082e-08
-1.09317e-06
2.75569e-08
-1.09063e-06
3.77101e-08
-1.08743e-06
4.4769e-08
-1.07946e-06
-5.88717e-07
6.94705e-09
-4.72786e-08
-1.10932e-06
5.77612e-08
-3.71882e-08
-1.10849e-06
-2.73935e-08
-1.10748e-06
-1.7783e-08
-1.10623e-06
-8.2728e-09
-1.10465e-06
1.18907e-09
-1.10263e-06
1.06243e-08
-1.10006e-06
1.99856e-08
-1.09675e-06
2.40772e-08
-1.08646e-06
-6.16041e-07
4.41385e-09
-6.04592e-08
-1.11808e-06
6.92268e-08
-5.17779e-08
-1.11717e-06
-4.32055e-08
-1.11605e-06
-3.46403e-08
-1.1148e-06
-2.60187e-08
-1.11328e-06
-1.73043e-08
-1.11135e-06
-8.48986e-09
-1.10888e-06
4.04293e-10
-1.10562e-06
7.66024e-09
-1.0963e-06
-6.46052e-07
2.46802e-09
-7.57292e-08
-1.12472e-06
8.23621e-08
-6.84894e-08
-1.12441e-06
-6.11093e-08
-1.12343e-06
-5.35168e-08
-1.12239e-06
-4.56675e-08
-1.12113e-06
-3.75458e-08
-1.11947e-06
-2.91541e-08
-1.11727e-06
-2.05134e-08
-1.11426e-06
-1.16383e-08
-1.1066e-06
-6.83507e-07
-6.11736e-10
-9.27042e-08
-1.12812e-06
9.61062e-08
-8.67542e-08
-1.13036e-06
-8.03964e-08
-1.12979e-06
-7.35845e-08
-1.1292e-06
-6.63067e-08
-1.1284e-06
-5.85633e-08
-1.12721e-06
-5.03656e-08
-1.12547e-06
-4.17273e-08
-1.12291e-06
-3.26689e-08
-1.11603e-06
-7.28296e-07
-5.80726e-09
-1.10667e-07
-1.12505e-06
1.07602e-07
-1.0566e-07
-1.13537e-06
-1.00007e-07
-1.13544e-06
-9.37065e-08
-1.1355e-06
-8.67714e-08
-1.13534e-06
-7.92225e-08
-1.13476e-06
-7.10748e-08
-1.13362e-06
-6.23334e-08
-1.13166e-06
-5.29901e-08
-1.12544e-06
-7.80455e-07
-1.26643e-08
-1.26644e-07
-1.10748e-06
1.09058e-07
-1.22629e-07
-1.13938e-06
-1.17671e-07
-1.1404e-06
-1.11848e-07
-1.14132e-06
-1.05227e-07
-1.14196e-06
-9.78687e-08
-1.14212e-06
-8.98141e-08
-1.14167e-06
-8.10702e-08
-1.14041e-06
-7.15835e-08
-1.13496e-06
-8.40412e-07
-2.09955e-08
-1.36973e-07
-1.04754e-06
9.69761e-08
-1.34427e-07
-1.14193e-06
-1.30527e-07
-1.1443e-06
-1.2543e-07
-1.14642e-06
-1.19296e-07
-1.14809e-06
-1.12269e-07
-1.14915e-06
-1.04459e-07
-1.14948e-06
-9.59185e-08
-1.14895e-06
-8.62988e-08
-1.1446e-06
-9.0565e-07
-3.00697e-08
-1.41423e-07
-9.53739e-07
7.06091e-08
-1.40273e-07
-1.14308e-06
-1.37345e-07
-1.14723e-06
-1.32876e-07
-1.15089e-06
-1.27103e-07
-1.15387e-06
-1.20265e-07
-1.15599e-06
-1.12553e-07
-1.15719e-06
-1.04081e-07
-1.15742e-06
-9.42436e-08
-1.15445e-06
-9.70276e-07
-3.83726e-08
-1.40751e-07
-8.57524e-07
5.05179e-08
-1.40567e-07
-1.14326e-06
-1.38076e-07
-1.14972e-06
-1.33701e-07
-1.15527e-06
-1.27789e-07
-1.15978e-06
-1.2065e-07
-1.16313e-06
-1.12556e-07
-1.16529e-06
-1.03677e-07
-1.1663e-06
-9.34281e-08
-1.16471e-06
-1.0273e-06
-4.33535e-08
-1.36234e-07
-7.51076e-07
3.27067e-08
-1.36283e-07
-1.14321e-06
-1.33396e-07
-1.1526e-06
-1.2842e-07
-1.16024e-06
-1.21803e-07
-1.1664e-06
-1.13944e-07
-1.17098e-06
-1.05183e-07
-1.17405e-06
-9.57884e-08
-1.17569e-06
-8.53915e-08
-1.17512e-06
-1.07355e-06
-4.3733e-08
-1.30714e-07
-6.37816e-07
2.02411e-08
-1.29504e-07
-1.14442e-06
-1.24863e-07
-1.15725e-06
-1.18341e-07
-1.16676e-06
-1.10426e-07
-1.17431e-06
-1.01529e-07
-1.17988e-06
-9.20152e-08
-1.18356e-06
-8.2209e-08
-1.1855e-06
-7.20242e-08
-1.1853e-06
-1.10961e-06
-3.93707e-08
-1.18303e-07
-5.27712e-07
1.31008e-08
-1.17805e-07
-1.14492e-06
-1.11281e-07
-1.16377e-06
-1.03178e-07
-1.17487e-06
-9.40351e-08
-1.18345e-06
-8.42602e-08
-1.18966e-06
-7.41728e-08
-1.19365e-06
-6.40876e-08
-1.19559e-06
-5.40718e-08
-1.19532e-06
-1.1367e-06
-3.00055e-08
-9.4834e-08
-4.38124e-07
8.78996e-09
-1.00223e-07
-1.13953e-06
-9.22142e-08
-1.17178e-06
-8.30556e-08
-1.18403e-06
-7.3291e-08
-1.19322e-06
-6.32202e-08
-1.19973e-06
-5.30393e-08
-1.20383e-06
-4.29081e-08
-1.20572e-06
-3.28493e-08
-1.20538e-06
-1.15625e-06
-1.61082e-08
-6.59951e-08
-3.80559e-07
9.43763e-09
-7.90248e-08
-1.12402e-06
-6.94396e-08
-1.18136e-06
-5.97437e-08
-1.19373e-06
-5.01623e-08
-1.2028e-06
-4.07404e-08
-1.20915e-06
-3.143e-08
-1.21314e-06
-2.21564e-08
-1.21499e-06
-1.27477e-08
-1.21479e-06
-1.16869e-06
-2.3474e-09
-4.33448e-08
-3.43466e-07
7.33004e-09
-5.28823e-08
-1.11356e-06
-4.31276e-08
-1.19112e-06
-3.42793e-08
-1.20257e-06
-2.6223e-08
-1.21086e-06
-1.87989e-08
-1.21657e-06
-1.18596e-08
-1.22008e-06
-5.25234e-09
-1.2216e-06
1.17121e-09
-1.22121e-06
-1.17445e-06
5.221e-09
-2.34942e-08
-3.2361e-07
5.02324e-09
-2.51461e-08
-1.11067e-06
-1.63944e-08
-1.19987e-06
-8.83482e-09
-1.21013e-06
-2.20614e-09
-1.21749e-06
3.7453e-09
-1.22252e-06
9.20669e-09
-1.22554e-06
1.43715e-08
-1.22677e-06
1.94956e-08
-1.22633e-06
-1.17384e-06
1.73338e-08
-1.50888e-08
-3.11905e-07
3.31431e-09
-9.74913e-09
-1.11564e-06
7.54639e-10
-1.21035e-06
9.58749e-09
-1.21897e-06
1.70207e-08
-1.22492e-06
2.34434e-08
-1.22895e-06
2.91534e-08
-1.23125e-06
3.44003e-08
-1.23201e-06
3.94607e-08
-1.23139e-06
-1.16665e-06
3.00701e-08
-9.61636e-09
-3.0382e-07
1.18066e-09
2.23496e-10
-1.12583e-06
1.30466e-08
-1.22323e-06
2.36324e-08
-1.22956e-06
3.24529e-08
-1.23374e-06
3.98968e-08
-1.23639e-06
4.62622e-08
-1.23762e-06
5.18169e-08
-1.23757e-06
5.68297e-08
-1.23641e-06
-1.15208e-06
3.97932e-08
-8.13657e-10
-3.03154e-07
8.36551e-10
1.38113e-08
-1.14065e-06
2.6606e-08
-1.23605e-06
3.75105e-08
-1.24046e-06
4.68416e-08
-1.24307e-06
5.48305e-08
-1.24438e-06
6.16571e-08
-1.24445e-06
6.745e-08
-1.24336e-06
7.2326e-08
-1.24128e-06
-1.12875e-06
4.61527e-08
7.68276e-09
-3.10145e-07
3.07929e-10
2.58726e-08
-1.15892e-06
3.83224e-08
-1.24851e-06
4.924e-08
-1.25138e-06
5.88289e-08
-1.25266e-06
6.72237e-08
-1.25277e-06
7.44907e-08
-1.25171e-06
8.06252e-08
-1.24949e-06
8.55189e-08
-1.24618e-06
-1.09547e-06
4.91282e-08
1.60639e-08
-3.25151e-07
-1.36441e-11
3.6386e-08
-1.1789e-06
4.78335e-08
-1.25995e-06
5.8224e-08
-1.26177e-06
6.76358e-08
-1.26207e-06
7.6104e-08
-1.26124e-06
8.36018e-08
-1.25921e-06
9.00109e-08
-1.2559e-06
9.50724e-08
-1.25124e-06
-1.05197e-06
4.81788e-08
2.22674e-08
-3.46543e-07
-2.47417e-11
4.31428e-08
-1.19969e-06
5.35079e-08
-1.27032e-06
6.31966e-08
-1.27146e-06
7.22509e-08
-1.27112e-06
8.06569e-08
-1.26965e-06
8.83481e-08
-1.2669e-06
9.51799e-08
-1.26273e-06
1.00884e-07
-1.25694e-06
-9.9879e-07
4.40345e-08
2.45696e-08
-3.70748e-07
-6.42541e-11
4.45185e-08
-1.21981e-06
5.42099e-08
-1.28001e-06
6.33726e-08
-1.28062e-06
7.21376e-08
-1.27989e-06
8.05065e-08
-1.27802e-06
8.84361e-08
-1.27483e-06
9.58311e-08
-1.27013e-06
1.02522e-07
-1.26363e-06
-9.37301e-07
3.71747e-08
2.37947e-08
-3.94919e-07
-2.43796e-10
4.16396e-08
-1.23822e-06
5.06471e-08
-1.28901e-06
5.93005e-08
-1.28927e-06
6.77554e-08
-1.28834e-06
7.60311e-08
-1.28629e-06
8.41276e-08
-1.28293e-06
9.20403e-08
-1.27804e-06
9.97697e-08
-1.27136e-06
-8.70276e-07
2.87781e-08
2.06632e-08
-4.17048e-07
-7.70089e-10
3.56084e-08
-1.25422e-06
4.38531e-08
-1.29726e-06
5.19461e-08
-1.29737e-06
5.99697e-08
-1.29637e-06
6.79175e-08
-1.29424e-06
7.58047e-08
-1.29081e-06
8.36847e-08
-1.28592e-06
9.16844e-08
-1.27936e-06
-8.02148e-07
1.9906e-08
1.58186e-08
-4.35231e-07
-2.07346e-09
2.77662e-08
-1.26776e-06
3.53246e-08
-1.30482e-06
4.2867e-08
-1.30491e-06
5.03538e-08
-1.30386e-06
5.7724e-08
-1.30161e-06
6.49541e-08
-1.29804e-06
7.20737e-08
-1.29304e-06
7.91767e-08
-1.28647e-06
-7.3819e-07
1.22071e-08
1.03437e-08
-4.5049e-07
-1.17386e-09
1.98695e-08
-1.27949e-06
2.69054e-08
-1.31185e-06
3.39709e-08
-1.31197e-06
4.09604e-08
-1.31085e-06
4.77688e-08
-1.30842e-06
5.43203e-08
-1.30459e-06
6.05746e-08
-1.2993e-06
6.64729e-08
-1.29236e-06
-6.81391e-07
6.96865e-09
4.76861e-09
-4.62746e-07
0
1.25667e-08
-1.28994e-06
1.93507e-08
-1.31864e-06
2.61536e-08
-1.31878e-06
3.28831e-08
-1.31757e-06
3.94206e-08
-1.31496e-06
4.5659e-08
-1.31083e-06
5.14997e-08
-1.30514e-06
5.66578e-08
-1.29752e-06
-6.31358e-07
3.895e-09
-7.63689e-10
-4.71364e-07
0
5.6587e-09
-1.29938e-06
1.24917e-08
-1.32547e-06
1.93486e-08
-1.32563e-06
2.61615e-08
-1.32439e-06
3.28234e-08
-1.32162e-06
3.92144e-08
-1.31722e-06
4.52006e-08
-1.31112e-06
4.99818e-08
-1.3023e-06
-5.85832e-07
2.08664e-09
-5.72203e-09
-4.76905e-07
0
-7.9864e-10
-1.30752e-06
6.21992e-09
-1.33249e-06
1.33368e-08
-1.33275e-06
2.0497e-08
-1.33155e-06
2.76161e-08
-1.32874e-06
3.45809e-08
-1.32419e-06
4.12384e-08
-1.31778e-06
4.53566e-08
-1.30642e-06
-5.43524e-07
1.3984e-09
-1.03717e-08
-4.78662e-07
0
-6.92846e-09
-1.31452e-06
2.7064e-10
-1.33969e-06
7.67122e-09
-1.34015e-06
1.52497e-08
-1.33913e-06
2.29645e-08
-1.33645e-06
3.07432e-08
-1.33197e-06
3.84611e-08
-1.3255e-06
4.03292e-08
-1.30829e-06
-5.05325e-07
9.44969e-10
-1.48548e-08
-4.75869e-07
0
-1.29732e-08
-1.32042e-06
-5.73131e-09
-1.34693e-06
1.77673e-09
-1.34766e-06
9.57924e-09
-1.34693e-06
1.76964e-08
-1.34457e-06
2.61384e-08
-1.34041e-06
3.48975e-08
-1.33426e-06
3.37843e-08
-1.30624e-06
-4.74509e-07
1.53052e-09
-1.90409e-08
-4.68769e-07
0
-1.88669e-08
-1.32448e-06
-1.18266e-08
-1.35397e-06
-4.55368e-09
-1.35493e-06
3.01769e-09
-1.3545e-06
1.09614e-08
-1.35251e-06
1.9372e-08
-1.34882e-06
2.83924e-08
-1.34328e-06
2.82814e-08
-1.30561e-06
-4.50806e-07
2.71934e-09
-2.18979e-08
-4.58309e-07
0
-2.34894e-08
-1.32678e-06
-1.70515e-08
-1.36041e-06
-1.04662e-08
-1.36152e-06
-3.67041e-09
-1.3613e-06
3.41546e-09
-1.3596e-06
1.0912e-08
-1.35632e-06
1.90139e-08
-1.35138e-06
2.02971e-08
-1.30647e-06
-4.34939e-07
2.36399e-09
-2.17568e-08
-4.47139e-07
0
-2.49881e-08
-1.32724e-06
-1.97667e-08
-1.36563e-06
-1.43747e-08
-1.36691e-06
-8.82638e-09
-1.36684e-06
-3.09699e-09
-1.36533e-06
2.88624e-09
-1.3623e-06
9.24759e-09
-1.35774e-06
1.15091e-08
-1.30878e-06
-4.27502e-07
1.28934e-09
-1.84573e-08
-4.38066e-07
0
-2.27361e-08
-1.32635e-06
-1.91764e-08
-1.36919e-06
-1.52888e-08
-1.3708e-06
-1.11978e-08
-1.37094e-06
-6.95504e-09
-1.36957e-06
-2.56138e-09
-1.36669e-06
2.00717e-09
-1.36231e-06
4.80914e-09
-1.31206e-06
-4.26337e-07
5.2393e-10
-1.42589e-08
-4.32442e-07
4.7111e-10
-1.85318e-08
-1.32517e-06
-1.63312e-08
-1.37139e-06
-1.37062e-08
-1.37342e-06
-1.08075e-08
-1.37383e-06
-7.71751e-09
-1.37266e-06
-4.4755e-09
-1.36994e-06
-1.08197e-09
-1.3657e-06
1.72662e-09
-1.31563e-06
-4.28255e-07
2.57845e-10
-1.10879e-08
-4.29892e-07
1.03378e-09
-1.45851e-08
-1.32453e-06
-1.29812e-08
-1.37299e-06
-1.09833e-08
-1.37542e-06
-8.68438e-09
-1.37613e-06
-6.14745e-09
-1.3752e-06
-3.41424e-09
-1.37267e-06
-5.00977e-10
-1.36861e-06
1.80627e-09
-1.31926e-06
-4.31796e-07
3.49622e-10
-9.83985e-09
-4.28833e-07
1.26781e-09
-1.23913e-08
-1.32477e-06
-1.05499e-08
-1.37484e-06
-8.43158e-09
-1.37754e-06
-6.052e-09
-1.37851e-06
-3.42417e-09
-1.37783e-06
-5.58922e-10
-1.37554e-06
2.5231e-09
-1.37169e-06
4.09184e-09
-1.32273e-06
-4.34967e-07
8.15201e-10
-1.0389e-08
-4.27933e-07
1.34936e-09
-1.21065e-08
-1.32595e-06
-9.42431e-09
-1.37752e-06
-6.64293e-09
-1.38032e-06
-3.69863e-09
-1.38146e-06
-5.31073e-10
-1.38099e-06
2.91213e-09
-1.37898e-06
6.66909e-09
-1.37545e-06
7.61745e-09
-1.32614e-06
-4.36132e-07
1.25864e-09
-1.15789e-08
-4.26481e-07
1.07429e-09
-1.2571e-08
-1.32807e-06
-8.96676e-09
-1.38112e-06
-5.47075e-09
-1.38382e-06
-1.93109e-09
-1.385e-06
1.78945e-09
-1.38471e-06
5.81853e-09
-1.38301e-06
1.02805e-08
-1.37991e-06
1.08497e-08
-1.32954e-06
-4.35059e-07
9.01807e-10
-1.16294e-08
-4.24475e-07
3.85818e-10
-1.21389e-08
-1.33071e-06
-8.18867e-09
-1.38507e-06
-4.46774e-09
-1.38754e-06
-7.93125e-10
-1.38867e-06
3.00929e-09
-1.38852e-06
7.10269e-09
-1.3871e-06
1.16391e-08
-1.38445e-06
1.18715e-08
-1.33276e-06
-4.32738e-07
3.7399e-10
-9.92608e-09
-4.23674e-07
5.32258e-10
-1.0102e-08
-1.3336e-06
-6.60133e-09
-1.38858e-06
-3.33185e-09
-1.39081e-06
-1.54536e-10
-1.39185e-06
3.10366e-09
-1.39177e-06
6.6052e-09
-1.3906e-06
1.04672e-08
-1.38831e-06
1.05221e-08
-1.33587e-06
-4.31749e-07
5.54134e-10
-6.51968e-09
-4.2613e-07
6.37717e-10
-6.38533e-09
-1.33675e-06
-4.08778e-09
-1.39093e-06
-1.92395e-09
-1.39297e-06
1.44515e-10
-1.39392e-06
2.25854e-09
-1.39389e-06
4.55127e-09
-1.3929e-06
7.02939e-09
-1.39085e-06
7.1549e-09
-1.33903e-06
-4.34012e-07
6.69421e-10
-1.88654e-09
-4.3226e-07
3.20117e-10
-1.60137e-09
-1.33961e-06
-8.6271e-10
-1.3917e-06
-2.6885e-10
-1.39357e-06
2.54064e-10
-1.39444e-06
7.99535e-10
-1.39443e-06
1.45631e-09
-1.39356e-06
2.2728e-09
-1.3917e-06
2.43642e-09
-1.3417e-06
-4.39486e-07
3.79567e-10
3.73175e-09
-4.42766e-07
-1.19007e-22
3.95815e-09
-1.34186e-06
2.7998e-09
-1.39055e-06
1.55804e-09
-1.39233e-06
2.83712e-10
-1.39317e-06
-9.79943e-10
-1.39317e-06
-2.19213e-09
-1.39234e-06
-3.30911e-09
-1.39059e-06
-3.2362e-09
-1.34374e-06
-4.49463e-07
-2.54961e-23
1.00716e-08
-4.58906e-07
-1.00084e-22
9.94896e-09
-1.34339e-06
6.717e-09
-1.38732e-06
3.49559e-09
-1.38911e-06
2.8669e-10
-1.38996e-06
-2.91748e-09
-1.38997e-06
-6.12572e-09
-1.38914e-06
-9.33896e-09
-1.38738e-06
-9.65535e-09
-1.345e-06
-4.65104e-07
-1.68366e-23
1.701e-08
-4.81132e-07
-1.82066e-22
1.61851e-08
-1.3439e-06
1.07908e-08
-1.38193e-06
5.50647e-09
-1.38382e-06
2.85089e-10
-1.38474e-06
-4.93424e-09
-1.38475e-06
-1.02127e-08
-1.38386e-06
-1.55989e-08
-1.38199e-06
-1.66426e-08
-1.34521e-06
-4.86769e-07
-2.98259e-23
2.47383e-08
-5.10324e-07
-6.39942e-22
2.26894e-08
-1.34282e-06
1.50391e-08
-1.37428e-06
7.60366e-09
-1.37639e-06
2.84574e-10
-1.37742e-06
-7.03341e-09
-1.37743e-06
-1.44657e-08
-1.37642e-06
-2.21116e-08
-1.37435e-06
-2.43886e-08
-1.34384e-06
-5.15364e-07
-1.13654e-22
3.36393e-08
-5.47876e-07
-3.45984e-22
2.96583e-08
-1.33941e-06
1.96029e-08
-1.36422e-06
9.86003e-09
-1.36664e-06
2.8532e-10
-1.36784e-06
-9.28825e-09
-1.36786e-06
-1.90278e-08
-1.36669e-06
-2.90783e-08
-1.3643e-06
-3.328e-08
-1.34015e-06
-5.52279e-07
-7.14541e-23
4.42433e-08
-5.95691e-07
-1.28253e-22
3.73918e-08
-1.33279e-06
2.46905e-08
-1.35152e-06
1.23774e-08
-1.35433e-06
2.85757e-10
-1.35575e-06
-1.1804e-08
-1.35577e-06
-2.41115e-08
-1.35438e-06
-3.68048e-08
-1.35161e-06
-4.38518e-08
-1.3333e-06
-5.99429e-07
-6.11483e-23
5.69713e-08
-6.55769e-07
-6.13247e-23
4.60281e-08
-1.32199e-06
3.03538e-08
-1.33585e-06
1.51609e-08
-1.33914e-06
2.82878e-10
-1.34087e-06
-1.45921e-08
-1.34089e-06
-2.97757e-08
-1.33919e-06
-4.54369e-08
-1.33594e-06
-5.65318e-08
-1.32232e-06
-6.58839e-07
-5.69612e-23
7.12993e-08
-7.29501e-07
-1.61334e-23
5.48116e-08
-1.30563e-06
3.59716e-08
-1.31701e-06
1.78962e-08
-1.32106e-06
2.72714e-10
-1.32325e-06
-1.73472e-08
-1.32327e-06
-3.54113e-08
-1.32113e-06
-5.42329e-08
-1.31712e-06
-7.08128e-08
-1.30586e-06
-7.31911e-07
-3.68978e-23
8.25665e-08
-8.14173e-07
-1.31832e-23
6.08972e-08
-1.284e-06
3.97535e-08
-1.29587e-06
1.99903e-08
-1.3013e-06
2.52776e-10
-1.30351e-06
-1.94818e-08
-1.30354e-06
-3.92413e-08
-1.30137e-06
-6.03727e-08
-1.29599e-06
-8.20469e-08
-1.28423e-06
-8.15936e-07
2.12223e-26
8.31004e-08
-8.98777e-07
-1.52734e-23
5.88996e-08
-1.25981e-06
3.95961e-08
-1.27656e-06
2.11993e-08
-1.2829e-06
2.25885e-10
-1.28254e-06
-2.07431e-08
-1.28257e-06
-3.91552e-08
-1.28296e-06
-5.84868e-08
-1.27666e-06
-8.26864e-08
-1.26004e-06
-9.0003e-07
9.14669e-27
6.60055e-08
-9.64759e-07
1.17573e-26
4.61744e-08
-1.23998e-06
3.70917e-08
-1.26748e-06
2.1554e-08
-1.26736e-06
1.97356e-10
-1.26118e-06
-2.11563e-08
-1.26121e-06