/*--------------------------------*- C++ -*----------------------------------*\
  =========                 |
  \\      /  F ield         | OpenFOAM: The Open Source CFD Toolbox
   \\    /   O peration     | Website:  https://openfoam.org
    \\  /    A nd           | Version:  8
     \\/     M anipulation  |
\*---------------------------------------------------------------------------*/
FoamFile
{
    version     2.0;
    format      ascii;
    class       volScalarField;
    location    "1.2";
    object      p_rgh;
}
// * * * * * * * * * * * * * * * * * * * * * * * * * * * * * * * * * * * * * //

dimensions      [1 -1 -2 0 0 0 0];

internalField   nonuniform List<scalar> 
9150
(
2551.35
2524.16
2498.77
2481.57
2473.23
2473.23
2481.57
2498.77
2524.16
2551.35
2542.22
2522.39
2506.81
2495
2489
2489
2495
2506.81
2522.39
2542.22
2532.55
2518.71
2510.27
2502.48
2498.36
2498.36
2502.48
2510.27
2518.71
2532.55
2527.45
2517.17
2511.8
2506.4
2503.43
2503.43
2506.4
2511.8
2517.17
2527.45
2525.81
2516.57
2512.11
2507.91
2505.45
2505.45
2507.91
2512.11
2516.57
2525.81
2086.47
2082.95
2107.84
2121.51
2127.92
2127.92
2121.51
2107.83
2082.94
2086.46
2276.28
2252.27
2246.97
2245.44
2245.33
2245.33
2245.44
2246.96
2252.26
2276.27
2400.35
2368.98
2353.25
2343.19
2338.36
2338.36
2343.18
2353.24
2368.98
2400.35
2500.49
2458.25
2430.68
2413.23
2404.62
2404.62
2413.23
2430.68
2458.25
2500.49
2571.89
2518.13
2479.55
2457.46
2447.24
2447.24
2457.46
2479.55
2518.13
2571.89
1903.09
1940.88
1929.41
1938.12
1932.78
1932.75
1938.12
1929.37
1940.81
1903
1930.37
1949.43
1929.25
1938.37
1933.02
1933
1938.39
1929.19
1949.39
1930.31
1909.11
1939.96
1905.97
1915.89
1918.2
1918.2
1915.91
1905.91
1939.92
1909.05
1750.24
1875.49
1888.64
1908.38
1924.78
1924.78
1908.37
1888.61
1875.47
1750.19
1617.69
1862.63
1956.88
1986.8
2002.73
2002.73
1986.79
1956.87
1862.62
1617.65
2398.67
2416.08
2428.97
2437.24
2440.83
2439.81
2434.17
2423.88
2408.98
2389.57
2267.71
2282.45
2293.57
2300.81
2304.01
2302.85
2297.33
2287.77
2274.33
2257.29
2127.83
2138.26
2146.01
2150.83
2152.6
2151.24
2146.74
2139.18
2128.67
2115.49
2043.6
2051.31
2056.8
2060
2060.83
2059.25
2055.25
2048.88
2040.19
2029.35
1996.71
2001.94
2005.46
2007.26
2007.25
2005.41
2001.74
1996.27
1989.07
1980.29
1977.6
1980.41
1981.99
1982.36
1981.46
1979.28
1975.83
1971.12
1965.23
1958.29
1980.23
1980.3
1979.7
1978.46
1976.53
1973.89
1970.55
1966.55
1961.93
1956.84
1998.56
1995.43
1992.32
1989.24
1986.1
1982.89
1979.59
1976.23
1972.87
1969.68
2026.13
2019.68
2013.97
2008.98
2004.59
2000.73
1997.38
1994.57
1992.36
1990.97
2056.12
2047.07
2039.2
2032.59
2027.09
2022.62
2019.13
2016.63
2015.21
2015.04
2083.78
2073.21
2063.95
2056.2
2049.88
2044.88
2041.14
2038.66
2037.47
2037.62
2105.76
2094.95
2085.35
2077.16
2070.44
2065.11
2061.12
2058.46
2057.07
2056.87
2121.65
2111.38
2102.28
2094.26
2087.51
2082.03
2077.82
2074.85
2072.97
2072.06
2134.31
2124.01
2115.4
2107.65
2100.91
2095.28
2090.74
2087.21
2084.46
2082.51
2142.03
2132.12
2124.34
2117.15
2110.65
2105.01
2100.28
2096.34
2092.95
2090.74
2147.18
2137.33
2130.18
2123.52
2117.25
2111.61
2106.69
2102.33
2098.42
2096.45
2153.57
2142.01
2134.46
2127.79
2121.41
2115.56
2110.28
2105.36
2100.88
2099.15
2158.1
2144.8
2136.64
2129.8
2123.29
2117.28
2111.83
2106.75
2102.64
2102.92
2159.15
2144.8
2136.16
2129.2
2122.59
2116.45
2110.88
2105.78
2102.37
2105
2157.29
2142.38
2133.18
2125.92
2119
2112.44
2106.31
2100.61
2096.9
2099.58
2154.8
2139.05
2128.63
2120.59
2112.99
2105.65
2098.55
2091.79
2087.11
2088.05
2149.51
2133.38
2121.84
2113.06
2104.82
2096.74
2088.8
2081.31
2076.31
2075.55
2142.88
2126.02
2113.17
2103.55
2094.66
2085.92
2077.25
2069.16
2063.87
2061.26
2135.31
2116.91
2102.49
2091.99
2082.57
2073.37
2064.27
2055.9
2050.58
2046.2
2120.99
2102.39
2087.58
2077.07
2067.87
2058.92
2050.06
2042.07
2037.3
2031.66
2093.73
2078.96
2066.49
2057.8
2050.23
2042.75
2035.31
2029.05
2026.46
2021.38
2054.16
2047.73
2040.06
2034.8
2029.94
2024.59
2019.01
2014.95
2014.73
2006.16
2014.12
2016.81
2013.64
2011.7
2009.36
2005.83
2001.69
1999.57
2000.99
1983.82
1998.58
2001.51
1997.31
1995.14
1993.12
1990.18
1987.18
1987.61
1992.17
1968.92
2013.84
2003.99
1991.77
1984.88
1980.01
1975.42
1971.87
1973.14
1977.71
1941.87
2015.51
1997.02
1979.27
1969.36
1962.64
1956.85
1952.82
1954.4
1956.35
1901.82
1978.64
1965.22
1949.47
1941.71
1936.83
1932.24
1929.23
1931.91
1930.04
1852.4
1918.15
1918.9
1909.57
1907.33
1907.04
1906.16
1906.84
1913.57
1911.28
1812.65
1851.51
1870.68
1869.68
1873.33
1878.14
1882.07
1888.4
1901.59
1898.91
1731.38
1823.81
1844.18
1844.04
1847.65
1852.6
1857.03
1864.25
1877.1
1864.96
1634.69
1803.64
1822.57
1822.68
1825.24
1828.87
1831.98
1837.73
1846.57
1819.83
1520.45
1789.44
1805.99
1805.08
1806.54
1809.15
1811.59
1816.85
1823.63
1791.28
1442.27
1780.53
1794.09
1790.76
1790.74
1792.37
1794.24
1799.02
1804.67
1771.56
1385.15
1771.51
1782.41
1776.93
1775.66
1776.56
1777.97
1782.18
1786.58
1752.22
1331.1
1747.42
1762.23
1758.82
1758.59
1760.23
1762.15
1766.42
1770.03
1735.69
1291.12
1720.26
1740.71
1740.84
1742.59
1745.74
1748.96
1754.09
1758.18
1726.84
1270.54
1699.11
1723.15
1725.98
1729.53
1734.34
1739.16
1745.65
1751.12
1724.52
1266.45
1683.27
1709.19
1714.26
1719.6
1726.19
1732.86
1741
1748.29
1724.78
1289.48
1669.9
1696.77
1704.46
1712.1
1720.92
1729.91
1740.36
1750.17
1729.18
1311.6
1658.14
1685.4
1696.04
1706.55
1718.14
1730.02
1743.57
1757.18
1743.11
1339.54
1642.03
1672.22
1687.35
1701.65
1716.69
1731.97
1749.01
1766.67
1759.64
1379.52
1620.11
1656.18
1677.95
1697.18
1716.31
1735.41
1756.23
1778.34
1778.52
1431.13
1613.2
1647.24
1672.95
1695.99
1718.41
1740.72
1764.91
1791.35
1799.68
1495.66
1609.78
1648.27
1673.61
1698.37
1722.55
1746.79
1773.07
1802.55
1818.71
1568.61
1513.23
1648.02
1672.81
1699.55
1725.16
1750.37
1777.32
1807.61
1828.31
1631.32
1438.87
1647.15
1670.74
1699.38
1725.91
1750.98
1776.75
1804.92
1824.39
1668.72
1351.33
1650.78
1673.23
1702.21
1728.84
1753.24
1777.39
1802.79
1820.53
1701.81
1204.82
1639.76
1673.43
1705.6
1733.65
1758.32
1781.33
1804.18
1820.89
1735.33
1111.11
1658.93
1691.99
1723.42
1750.07
1772.79
1793.14
1812.39
1826.32
1761.55
1065.94
1707.49
1733.56
1758.88
1780.44
1798.72
1814.88
1829.76
1839.13
1778.97
1019.41
1743.62
1783.91
1803.93
1819.65
1832.97
1844.48
1854.41
1859.21
1804.03
1049.39
1787.16
1857.04
1865.91
1873.15
1881.47
1891.1
1902.69
1916.98
1887.93
1146.84
1896.27
1955.2
1938.88
1929.18
1926.74
1929.61
1937.33
1950.57
1925.2
1098.35
1889.84
1978.94
1964.09
1950.84
1944.66
1943.62
1946.87
1952.16
1903.57
982.942
1839.25
1967.43
1962.78
1951.6
1945.38
1942.98
1943.85
1944.76
1866.63
937.638
1837.75
1974.75
1965.54
1950.19
1940.41
1934.04
1929.86
1924.06
1816.39
911.633
1831.64
1964.23
1954.83
1938.84
1927.1
1917.32
1907.58
1893.6
1748.46
918.49
1837.32
1955.05
1944.19
1927.58
1914.3
1902.25
1889.38
1870.58
1676.45
933.735
1847.57
1946.87
1934.08
1917.11
1903.1
1890.25
1876.74
1855.24
1595.51
939.663
1850.42
1935.49
1922.7
1906.7
1893.45
1881.66
1869.86
1846.99
1506.3
942.706
1849.19
1922.36
1910.67
1896.47
1884.81
1874.91
1865.31
1840.64
1409.07
944.946
1842.77
1905.93
1897.14
1886.12
1877.17
1870.02
1863.19
1839.26
1322.35
942.254
1830.48
1887.09
1882.88
1876.11
1870.8
1867.24
1864.25
1846.19
1260.05
934.194
1821.34
1872.87
1871.2
1867.19
1864.52
1863.49
1863.07
1850.79
1205.37
921.893
1816.11
1863.45
1861.74
1858.58
1857.08
1857.09
1857.38
1847.18
1142.84
903.107
1807.75
1852.68
1851.27
1848.73
1847.93
1848.5
1848.84
1837.77
1071.71
880.481
1796.1
1840
1839.6
1837.84
1837.63
1838.62
1838.64
1824.16
993.192
854.949
1782.47
1826.88
1827.66
1826.97
1827.55
1829.23
1829
1808.84
910.134
822.164
1767.74
1813.93
1816.66
1817.48
1819.46
1822.72
1823.3
1791.36
833.796
784.186
1750.04
1801.45
1806.98
1810.22
1814.58
1820.53
1823.76
1771.42
784.725
745.431
1731.81
1789.65
1798.74
1805
1812.03
1820.53
1826.91
1771.61
769.783
722.338
1720.33
1781.45
1793.3
1802.08
1810.98
1820.81
1829.18
1776.13
775.748
719.868
1721.37
1780.66
1792.55
1802.06
1811.36
1821.33
1830.72
1781.49
781.066
723.093
1729.6
1785.49
1794.91
1803.2
1811.44
1820.43
1829.56
1782.32
775.629
722.163
1738.77
1791.97
1797.48
1803.17
1809.37
1816.58
1824.25
1776.98
761.451
708.784
1740.11
1793.63
1796.12
1799.33
1803.5
1808.87
1814.67
1765.33
736.311
679.227
1729.97
1787.82
1789.09
1790.66
1793.28
1797.12
1800.88
1746.49
698.6
637.23
1711.61
1776.5
1777.73
1778.33
1779.82
1782.29
1783.75
1721.3
649.083
596.71
1692.24
1763.14
1764.79
1765.02
1765.78
1767.11
1766.74
1698.21
605.968
566.575
1676.31
1750.25
1752.47
1752.81
1753.13
1753.43
1751.65
1680.23
575.28
549.101
1666.79
1740.17
1742.83
1743.5
1743.61
1743.15
1740.61
1669.95
558.079
547.592
1664.66
1733.66
1736.71
1737.82
1737.85
1736.8
1733.76
1667.13
556.335
553.524
1669.17
1731.31
1734.54
1736.09
1736.09
1734.54
1731.27
1671.37
561.66
570.868
1679.32
1732.97
1736.43
1738.39
1738.38
1736.39
1732.9
1681.18
578.694
598.991
1694.15
1738.32
1742.17
1744.53
1744.52
1742.12
1738.23
1695.66
606.257
638.948
1712.9
1747.09
1751.58
1754.37
1754.35
1751.52
1747
1714.05
645.589
692.94
1734.85
1759.19
1764.52
1767.74
1767.73
1764.47
1759.09
1735.64
698.888
764.293
1759.13
1774.49
1780.77
1784.39
1784.37
1780.72
1774.4
1759.6
769.463
857.127
1784.87
1792.65
1799.81
1803.77
1803.75
1799.75
1792.57
1785.07
861.466
975.686
1809.5
1812.92
1820.79
1825
1824.97
1820.73
1812.84
1809.5
979.173
1120.04
1831.18
1834.15
1842.38
1846.19
1846.17
1842.32
1834.07
1831.13
1122.64
1283.71
1849.25
1855.66
1862.82
1865.03
1865.01
1862.76
1855.58
1849.18
1285.47
1450.92
1870.17
1880.01
1883.19
1883.99
1883.97
1883.13
1879.92
1870.07
1451.96
1626.82
1905.29
1909.32
1905.88
1904.56
1904.54
1905.83
1909.26
1905.2
1627.26
1790.45
1943.48
1931.03
1925.58
1921.68
1921.66
1925.53
1931.01
1943.45
1790.51
2364.35
2332.81
2296.81
2256.86
2213.68
2168.1
2121.03
2073.48
2026.49
1981.11
1938.32
1899.01
1863.98
1833.46
1807.01
1784.21
1764.95
1749.15
1736.62
1727.02
1720
1715.23
1712.4
1711.2
1711.4
1712.77
1715.11
1718.27
1722.08
1726.42
1731.14
1736.12
1741.21
1746.28
1751.32
1757.14
1760.98
1763.58
1764.77
1766.31
2235.69
2208.43
2177.53
2143.73
2107.73
2070.33
2032.37
1994.76
1958.35
1923.92
1892.08
1863.24
1837.63
1815.81
1797.98
1783.51
1771.97
1763
1756.23
1751.29
1747.9
1745.79
1744.77
1744.67
1745.35
1746.71
1748.64
1751.06
1753.85
1756.9
1760.07
1763.2
1766.07
1768.45
1770.3
1771.46
1770.94
1765.64
1766.5
1771.13
2098.95
2078.21
2054.86
2029.6
2003.09
1976.02
1949.09
1923
1898.38
1875.75
1855.5
1837.85
1822.87
1810.54
1800.6
1792.72
1786.55
1781.83
1778.3
1775.77
1774.05
1772.99
1772.48
1772.43
1772.77
1773.44
1774.37
1775.5
1776.74
1777.99
1779.12
1779.97
1780.38
1780.2
1779.44
1778.23
1777.04
1777.7
1776.22
1784.16
2015.77
1999.34
1981.16
1961.67
1941.37
1920.79
1900.44
1880.79
1862.27
1845.34
1830.4
1817.67
1807.24
1799.06
1792.87
1788.3
1785.08
1782.94
1781.64
1780.96
1780.72
1780.78
1781.04
1781.41
1781.86
1782.33
1782.78
1783.18
1783.47
1783.57
1783.43
1782.96
1782.16
1781.06
1779.89
1779.16
1780.17
1785.94
1798.32
1803.23
1969.5
1956.61
1942.4
1927.17
1911.23
1894.85
1878.21
1861.61
1845.6
1830.76
1817.31
1804.87
1794.42
1786.99
1781.95
1778.19
1775.67
1774.57
1774.63
1775.39
1776.5
1777.72
1778.92
1780
1780.91
1781.62
1782.11
1782.35
1782.33
1782.05
1781.5
1780.71
1779.78
1778.92
1778.53
1779.3
1782.74
1791.89
1808.64
1815.25
1950.04
1940.39
1929.85
1918.56
1906.58
1893.94
1881
1868.63
1856.95
1842.58
1821.58
1794.57
1772.76
1763.25
1763.31
1763.82
1760.95
1758.77
1759.2
1761.37
1764.17
1767.03
1769.68
1771.99
1773.9
1775.37
1776.43
1777.08
1777.36
1777.32
1777.01
1776.56
1776.15
1776.1
1776.88
1779.21
1784.59
1795.71
1813.68
1818.25
1951.22
1945.07
1938.71
1932.12
1925.57
1920.22
1918
1915.59
1896.18
1827.91
1715.33
1630.1
1600.13
1606.15
1640.55
1699.3
1723.56
1728.25
1732.2
1738
1744.25
1750.06
1755.17
1759.49
1763.04
1765.86
1768.01
1769.57
1770.62
1771.27
1771.64
1771.91
1772.32
1773.22
1775.08
1778.6
1785.07
1796.7
1813.89
1814.77
1966.85
1964.52
1962.8
1962.12
1964.77
1974.58
1983.46
1939.05
1761.33
1539.39
1461.29
1457.81
1457.31
1461.95
1469.4
1514.17
1617.83
1667.39
1687.42
1703.97
1717.42
1728.37
1737.29
1744.54
1750.37
1755.01
1758.64
1761.43
1763.55
1765.14
1766.39
1767.5
1768.73
1770.41
1772.97
1776.99
1783.51
1794.19
1808.9
1811.44
1990.76
1992.03
1995.16
2003
2021.54
2041.2
1983.28
1709.57
1478.58
1455.95
1454.57
1454.55
1454.54
1454.66
1455.2
1455.54
1507.02
1612.29
1645.92
1672.82
1692.92
1708.25
1720.49
1730.38
1738.35
1744.74
1749.83
1753.88
1757.09
1759.65
1761.77
1763.65
1765.55
1767.75
1770.58
1774.51
1780.3
1789.11
1800.72
1810.07
2016.5
2020.14
2027.93
2046.39
2072.03
2029.95
1742.2
1467.33
1456.87
1454.6
1454.48
1454.52
1454.4
1454.34
1454.4
1454.01
1500.97
1593.3
1622.4
1653.36
1676.49
1693.88
1707.86
1719.33
1728.7
1736.34
1742.55
1747.6
1751.71
1755.08
1757.91
1760.38
1762.71
1765.11
1767.84
1771.22
1775.73
1782.14
1790.3
1797.03
2039.4
2044.19
2056.54
2079.72
2071
1869.65
1519.41
1454.67
1453.13
1453.5
1453.76
1453.84
1453.91
1454.07
1454.05
1453.57
1540.06
1593.97
1619.03
1647.87
1669.61
1686.5
1700.53
1712.31
1722.16
1730.35
1737.17
1742.83
1747.53
1751.45
1754.74
1757.56
1760.07
1762.42
1764.77
1767.32
1770.34
1774.26
1779.03
1782.88
2058.33
2064.73
2081.8
2094.76
1999.9
1616.34
1456.84
1452.22
1452.1
1452.56
1452.81
1452.99
1453.25
1453.49
1453.05
1488.17
1597.92
1606.47
1630.37
1652.78
1670.39
1685.14
1697.95
1709.04
1718.55
1726.66
1733.57
1739.44
1744.39
1748.55
1752.05
1754.99
1757.45
1759.54
1761.32
1762.9
1764.38
1765.92
1767.54
1768.73
2073.38
2082.51
2099.76
2071.24
1813.65
1483.88
1451.31
1450.5
1450.96
1451.34
1451.63
1451.98
1452.34
1452.21
1471.26
1608.01
1616.28
1628.48
1646.58
1662.06
1675.48
1687.64
1698.65
1708.47
1717.14
1724.74
1731.35
1737.07
1741.96
1746.11
1749.58
1752.41
1754.64
1756.3
1757.42
1757.99
1757.97
1757.32
1756.13
1754.97
2083.71
2094.05
2100.15
2008.8
1615.59
1453.25
1448.9
1448.94
1449.48
1449.85
1450.23
1450.66
1450.69
1465
1595.19
1634.87
1636.74
1649.23
1661.09
1671.84
1682.12
1691.92
1701.07
1709.47
1717.08
1723.9
1729.96
1735.29
1739.9
1743.82
1747.05
1749.6
1751.46
1752.61
1753
1752.57
1751.17
1748.58
1744.96
1741.78
2093.47
2104.2
2084.87
1884.88
1499.8
1447.66
1446.79
1447.22
1447.63
1448.02
1448.48
1448.69
1458.37
1589.51
1656.02
1649.93
1657.59
1665.79
1673.41
1681.13
1688.99
1696.72
1704.15
1711.14
1717.62
1723.57
1728.94
1733.72
1737.88
1741.4
1744.26
1746.42
1747.82
1748.39
1748.05
1746.67
1744.03
1739.77
1734.15
1729.31
2101.17
2108.36
2048.99
1701.5
1450.24
1444.09
1444.29
1444.91
1445.33
1445.73
1446.13
1449.37
1571.14
1678.02
1665.21
1668.84
1673.94
1678.62
1683.68
1689.29
1695.2
1701.2
1707.1
1712.8
1718.21
1723.25
1727.88
1732.03
1735.65
1738.68
1741.08
1742.76
1743.65
1743.63
1742.58
1740.35
1736.64
1731.01
1723.8
1717.69
2104.28
2101.38
2003.47
1574.39
1445.24
1442.08
1442.25
1442.65
1443.07
1443.48
1443.17
1529.18
1697.09
1680.74
1680.72
1683.53
1685.82
1688.5
1691.92
1695.92
1700.29
1704.84
1709.45
1714.01
1718.43
1722.62
1726.49
1729.99
1733.02
1735.52
1737.41
1738.59
1738.96
1738.37
1736.68
1733.7
1729.11
1722.4
1713.97
1706.79
2109.19
2087.41
1886.13
1489.14
1438.71
1438.65
1439.4
1439.72
1440.26
1440.77
1475.95
1696.27
1697.28
1692.19
1693.26
1693.83
1694.5
1695.95
1698.14
1700.88
1704.01
1707.37
1710.89
1714.49
1718.04
1721.44
1724.61
1727.46
1729.91
1731.87
1733.25
1733.94
1733.8
1732.69
1730.45
1726.87
1721.61
1714.12
1704.65
1695.87
2111.94
2071.56
1767.76
1446.74
1431.06
1432.85
1434.02
1434.77
1435.56
1444.24
1612.71
1718.44
1703.26
1702.27
1701.76
1700.87
1700.6
1701.15
1702.38
1704.13
1706.25
1708.68
1711.33
1714.09
1716.9
1719.59
1722.11
1724.37
1726.27
1727.72
1728.62
1728.85
1728.26
1726.69
1723.99
1719.94
1714.19
1706.17
1695.77
1686.93
2102.92
2044.86
1665.27
1433.26
1427.48
1427.3
1427.91
1428.79
1428.69
1491.84
1744.03
1715.69
1710.3
1709.01
1707.01
1705.27
1704.35
1704.21
1704.68
1705.63
1707.02
1708.73
1710.67
1712.77
1714.92
1717.01
1718.97
1720.7
1722.11
1723.11
1723.58
1723.39
1722.41
1720.47
1717.4
1713.01
1706.94
1698.61
1688
1678.9
2083.58
2003
1569.41
1424.45
1423.51
1423.81
1423.71
1424.22
1430.5
1612.31
1735.24
1716.78
1714.26
1712.04
1709.28
1707.12
1705.79
1705.13
1705.07
1705.5
1706.34
1707.49
1708.89
1710.48
1712.11
1713.7
1715.19
1716.48
1717.48
1718.09
1718.2
1717.67
1716.37
1714.14
1710.81
1706.19
1699.93
1691.49
1681.31
1673.19
2059.41
1906.27
1495.45
1413.61
1416.83
1417.7
1417.59
1418.22
1463.3
1753.63
1727.15
1718.12
1715.66
1712.34
1709.08
1706.67
1705.04
1704.08
1703.68
1703.76
1704.22
1705
1706.05
1707.23
1708.47
1709.7
1710.83
1711.77
1712.44
1712.75
1712.56
1711.77
1710.23
1707.79
1704.29
1699.56
1693.24
1684.82
1674.93
1666.7
2034.71
1818.86
1436.84
1396.29
1404.61
1405.59
1406.14
1406.3
1536.16
1751.25
1720.49
1715.79
1713.06
1709.37
1706.12
1703.74
1702.08
1701.06
1700.54
1700.47
1700.77
1701.34
1702.12
1703.1
1704.09
1705.06
1705.94
1706.64
1707.08
1707.15
1706.77
1705.79
1704.1
1701.55
1697.99
1693.25
1687
1678.65
1668.07
1659.18
2009.07
1716.62
1379.25
1367.94
1381.57
1386.13
1390.18
1399.65
1641.11
1731.98
1712.32
1709.77
1706.97
1703.46
1700.56
1698.45
1697.04
1696.17
1695.76
1695.75
1696.05
1696.58
1697.28
1698.14
1699.04
1699.88
1700.61
1701.16
1701.45
1701.39
1700.88
1699.81
1698.05
1695.47
1691.94
1687.3
1681.25
1672.7
1661.42
1654.28
1986.03
1615.93
1338.57
1333.6
1341.77
1353.35
1359.14
1387.53
1688.61
1716.62
1702.77
1700.67
1697.95
1694.92
1692.6
1691.02
1690.06
1689.58
1689.5
1689.72
1690.2
1690.83
1691.63
1692.5
1693.43
1694.25
1694.93
1695.43
1695.66
1695.54
1694.98
1693.88
1692.12
1689.59
1686.17
1681.7
1675.92
1667.78
1657.08
1650.19
1969.8
1530.31
1315.98
1293.34
1285.07
1298.05
1301.45
1339.77
1660.09
1698.13
1687.83
1686.82
1685.23
1683.4
1682.16
1681.49
1681.28
1681.44
1681.9
1682.56
1683.36
1684.31
1685.32
1686.36
1687.39
1688.27
1689.01
1689.53
1689.77
1689.66
1689.12
1688.06
1686.38
1683.96
1680.7
1676.47
1671.01
1663.7
1655.33
1648.57
1908.9
1422.01
1268.21
1247.17
1239.11
1239.91
1239.62
1279.89
1621.62
1675.54
1668.33
1669.28
1669.57
1669.45
1669.66
1670.24
1671.07
1672.11
1673.26
1674.5
1675.83
1677.18
1678.52
1679.84
1681.05
1682.09
1682.94
1683.55
1683.87
1683.85
1683.39
1682.43
1680.88
1678.63
1675.59
1671.66
1666.59
1660.08
1652.61
1646.87
1804.21
1285.07
1185.51
1197.91
1205.02
1197.94
1193.3
1224.35
1572.12
1650.83
1645.28
1649.03
1651.83
1653.78
1655.72
1657.77
1659.85
1661.93
1663.93
1665.91
1667.85
1669.7
1671.45
1673.12
1674.58
1675.84
1676.86
1677.63
1678.08
1678.19
1677.87
1677.06
1675.68
1673.65
1670.88
1667.29
1662.68
1656.73
1649.95
1644.76
1714.47
1186.3
1110.15
1135.81
1154.1
1159.29
1153.71
1165.04
1471.41
1624.35
1618.61
1626.25
1632.51
1637.01
1640.96
1644.68
1648.17
1651.4
1654.36
1657.14
1659.74
1662.15
1664.35
1666.41
1668.18
1669.69
1670.94
1671.89
1672.52
1672.79
1672.64
1672.02
1670.85
1669.07
1666.61
1663.4
1659.27
1653.94
1647.86
1643.26
1595.13
1112.79
1058.15
1067.22
1094.13
1105.89
1099.86
1097.7
1279.24
1595.34
1591.87
1603.33
1613.21
1620.43
1626.48
1631.89
1636.76
1641.14
1645.07
1648.62
1651.89
1654.84
1657.52
1659.96
1662.05
1663.83
1665.31
1666.48
1667.3
1667.76
1667.8
1667.38
1666.45
1664.95
1662.83
1660.03
1656.4
1651.71
1646.3
1641.85
1452.6
1055.9
1033.85
1034.06
1032.91
1026.71
1019.55
1015.04
1074.9
1482.7
1570.96
1584.51
1596.46
1605.76
1613.57
1620.42
1626.47
1631.84
1636.62
1640.87
1644.68
1648.13
1651.26
1654.02
1656.41
1658.46
1660.17
1661.53
1662.56
1663.2
1663.45
1663.25
1662.57
1661.36
1659.59
1657.21
1654.09
1650.05
1645.31
1641.32
1290.28
988.927
993.16
1000.3
976.78
945.261
933.923
932.104
946.863
1185.94
1538.3
1572.43
1584.71
1594.43
1603.14
1610.97
1617.88
1624
1629.44
1634.27
1638.55
1642.38
1645.82
1648.84
1651.48
1653.75
1655.66
1657.2
1658.34
1659.23
1659.67
1659.69
1659.26
1658.35
1656.93
1654.96
1652.35
1648.95
1644.93
1641.46
1157.53
937.565
945.853
949.113
912.725
886.879
870.094
861.534
868.367
935.631
1342.15
1563.55
1581.85
1589.45
1596.76
1604.25
1611.41
1617.98
1623.86
1629.1
1633.73
1637.83
1641.45
1644.64
1647.44
1649.86
1651.92
1653.59
1654.89
1655.88
1656.56
1656.78
1656.59
1655.97
1654.89
1653.32
1651.21
1648.41
1645.11
1642.1
1080.94
919.172
908.345
892.554
853.904
829.596
823.205
816.532
812.534
829.129
973.619
1370.09
1565.31
1587.81
1594.93
1600.73
1607.06
1613.61
1619.82
1625.39
1630.29
1634.56
1638.3
1641.57
1644.43
1646.91
1649.03
1650.76
1652.21
1653.33
1654.12
1654.58
1654.62
1654.26
1653.5
1652.32
1650.66
1648.43
1645.81
1643.42
989.145
871.964
865.864
850.969
816.553
800.191
796.328
792.923
790.139
788.808
789.182
921.943
1272.74
1509.7
1585.79
1598.85
1605.71
1611.8
1617.79
1623.28
1628.24
1632.6
1636.38
1639.64
1642.47
1644.93
1647.02
1648.81
1650.33
1651.55
1652.44
1653.09
1653.35
1653.25
1652.79
1651.97
1650.73
1649.01
1647
1645.47
896.844
828.955
856.878
849.455
801.363
786.507
781.907
779.78
777.507
775.609
774.301
772.829
834.439
1066.04
1356.59
1541.12
1601.45
1615.12
1622.29
1625.88
1629.09
1632.53
1635.89
1638.92
1641.57
1643.91
1645.92
1647.69
1649.23
1650.52
1651.53
1652.27
1652.79
1652.93
1652.75
1652.25
1651.4
1650.14
1648.63
1647.48
868.317
836.533
855.503
846.282
781.788
771.72
770.506
770.436
769.749
768.494
767.054
765.913
764.749
767.689
858.971
1080.55
1330.41
1477.5
1607.96
1632.25
1634.84
1635.57
1637.18
1639.35
1641.59
1643.69
1645.6
1647.32
1648.83
1650.17
1651.29
1652.18
1652.9
1653.26
1653.35
1653.11
1652.62
1651.8
1650.72
1649.88
852.693
829.673
844.216
814.964
766.576
762.827
763.589
764.275
764.226
763.556
762.482
761.243
760.121
759.427
758.262
761.643
818.033
932.094
1235.74
1510.12
1628.43
1639.38
1640.09
1640.52
1641.98
1643.84
1645.69
1647.42
1649
1650.38
1651.63
1652.7
1653.61
1654.2
1654.55
1654.6
1654.42
1653.97
1653.25
1652.67
825.941
805.608
831.124
783.465
760.895
759.677
760.308
760.719
760.653
760.211
759.465
758.482
757.405
756.455
755.855
755.449
754.992
754.556
792.236
992.44
1331.5
1590.98
1641.02
1642.35
1642.51
1643.93
1645.83
1647.7
1649.45
1651.04
1652.44
1653.75
1654.83
1655.68
1656.26
1656.62
1656.74
1656.62
1656.22
1655.85
804.447
793.376
820.667
771.939
757.926
757.648
758.011
758.185
758.1
757.802
757.322
756.684
755.932
755.149
754.429
753.797
753.406
753.396
753.657
755.303
843.02
1206.87
1593.45
1641.77
1643.4
1643.99
1645.82
1647.99
1650.06
1651.94
1653.65
1655.17
1656.5
1657.61
1658.45
1659.11
1659.53
1659.73
1659.62
1659.44
792.201
784.507
811.551
764.986
755.511
755.689
756.023
756.162
756.124
755.947
755.652
755.258
754.794
754.291
753.787
753.32
752.958
752.707
752.507
752.653
753.422
802.867
1230.42
1615
1643.13
1644.44
1645.88
1648.29
1650.76
1653.04
1655.08
1656.92
1658.54
1659.94
1661.07
1662.03
1662.76
1663.25
1663.43
1663.43
782.679
773.931
805.69
759.417
753.84
754.19
754.504
754.625
754.613
754.505
754.319
754.07
753.777
753.461
753.141
752.836
752.57
752.348
752.156
752.013
751.982
752.548
823.165
1448.2
1636.01
1644.41
1646.15
1648.71
1651.63
1654.35
1656.8
1658.98
1660.92
1662.63
1664.06
1665.32
1666.38
1667.16
1667.63
1667.85
774.642
763.464
802.986
755.862
752.925
753.212
753.417
753.481
753.453
753.366
753.233
753.064
752.873
752.67
752.467
752.274
752.104
751.964
751.849
751.746
751.653
751.754
753.123
1093.81
1600.22
1642.21
1646.18
1649.31
1652.74
1655.96
1658.82
1661.37
1663.63
1665.65
1667.38
1668.93
1670.33
1671.45
1672.25
1672.7
768.588
759.386
799.669
753.724
752.921
752.824
752.725
752.632
752.536
752.425
752.303
752.175
752.043
751.911
751.784
751.669
751.569
751.49
751.432
751.394
751.387
751.487
752.029
851.988
1517.44
1639.69
1646.38
1650.55
1654.48
1658.11
1661.32
1664.18
1666.72
1669.01
1671.06
1672.91
1674.59
1676.07
1677.26
1677.98
761.647
755.287
772.842
755.677
753.251
752.534
752.105
751.868
751.699
751.557
751.437
751.334
751.241
751.159
751.086
751.024
750.975
750.937
750.891
750.834
750.826
750.899
751.142
796.352
1430.3
1641.37
1648.41
1653.2
1657.39
1661.17
1664.54
1667.56
1670.28
1672.77
1675.06
1677.17
1679.16
1680.93
1682.57
1683.66
762.899
753.406
774.131
782.264
752.378
751.36
751.026
750.868
750.732
750.625
750.542
750.48
750.433
750.398
750.375
750.367
750.379
750.389
750.293
750.173
750.062
750.115
750.222
786.625
1401.14
1646.55
1652.33
1657.29
1661.5
1665.21
1668.54
1671.58
1674.37
1676.97
1679.42
1681.75
1684.03
1686.06
1688.21
1689.7
780.462
754.948
794.062
795.56
750.013
749.885
749.826
749.749
749.683
749.64
749.615
749.604
749.606
749.618
749.641
749.679
749.724
749.7
750.057
749.677
749.33
749.351
749.354
792.373
1421.7
1653.43
1658.06
1662.82
1666.78
1670.21
1673.34
1676.25
1678.99
1681.61
1684.16
1686.66
1689.16
1691.57
1694.19
1696.02
807.456
760.104
793.721
792.277
748.662
748.876
748.795
748.716
748.683
748.682
748.702
748.734
748.778
748.831
748.892
748.952
748.954
749.247
749.298
748.96
748.702
748.653
748.474
842.722
1502.38
1661.6
1665.58
1669.77
1673.18
1676.13
1678.91
1681.41
1683.95
1686.7
1689.26
1691.87
1694.44
1697.31
1700.4
1702.52
843.948
767.128
775.86
789.402
747.17
747.775
747.691
747.644
747.665
747.721
747.79
747.869
747.957
748.053
748.142
748.186
748.552
748.67
748.63
748.181
748.146
748.073
747.606
1000.05
1615.97
1670.81
1674.42
1677.78
1680.41
1682.77
1685.03
1687.17
1689.51
1692.11
1694.69
1697.34
1699.97
1703.19
1706.72
1709.05
875.522
763.597
753.707
776.128
743.753
745.994
746.368
746.503
746.626
746.761
746.887
747.011
747.14
747.264
747.437
747.914
747.996
748.027
748.056
747.713
747.876
748.016
747.27
1292.78
1677.04
1680.9
1683.94
1686.34
1688.15
1689.9
1691.57
1693.41
1695.47
1697.7
1700.32
1702.83
1705.74
1709.27
1713.03
1712.84
889.433
735.791
746.478
745.738
744.75
745.151
745.463
745.675
745.813
745.928
746.049
746.181
746.338
746.737
747.204
747.249
747.299
747.41
747.036
747.098
747.216
747.698
858.38
1568.64
1691.01
1691.75
1693.82
1695.13
1696.16
1697.31
1698.56
1699.98
1701.7
1703.7
1705.98
1708.58
1711.6
1715.39
1719.29
1718.47
916.052
715.861
756.016
742.486
745.879
745.782
745.315
745.16
745.156
745.181
745.264
745.437
746.078
746.406
746.467
746.545
746.67
746.365
746.399
746.565
746.54
745.445
1229.82
1696.54
1701.71
1702.73
1703.59
1703.88
1704.23
1704.82
1705.73
1706.86
1708.08
1709.84
1711.96
1714.47
1717.47
1721.34
1725.36
1724.58
956.952
712.998
736.007
739.664
743.822
745.481
744.825
744.386
744.342
744.369
744.62
745.363
745.575
745.659
745.759
745.844
745.581
745.669
745.932
746.227
746.279
909.096
1615.68
1714.27
1712.82
1713.2
1712.87
1712.38
1712.19
1712.31
1712.81
1713.62
1714.5
1716.01
1717.93
1720.3
1723.24
1727.11
1731.14
1730.33
987.789
708.132
708.348
735.004
738.966
743.714
743.55
743.263
743.278
743.521
744.285
744.634
744.789
744.918
744.688
744.568
744.676
744.855
745.074
745.203
788.445
1407.97
1728.36
1724.16
1723.71
1722.85
1721.58
1720.55
1719.91
1719.64
1719.75
1720.22
1720.96
1722.12
1724
1726.14
1729
1732.61
1736.5
1735.68
995.006
686.958
662.606
721.468
735.682
742.415
742.534
742.223
742.394
742.791
743.47
743.882
743.737
743.59
743.63
743.762
743.857
743.893
743.962
752.539
1200.31
1726.69
1737.12
1734.97
1733.56
1731.58
1729.72
1728.29
1727.28
1726.65
1726.41
1726.57
1727.15
1728.17
1729.67
1731.69
1734.32
1737.73
1741.34
1740.55
1013.33
682.734
612.888
711.514
733.203
741.288
741.653
741.454
741.758
742.196
742.47
742.644
742.775
742.928
743.09
743.256
743.403
743.274
743.038
1084.03
1692.75
1751.25
1746.7
1744.65
1742
1739.38
1737.2
1735.47
1734.14
1733.21
1732.68
1732.57
1732.9
1733.66
1734.91
1736.78
1739.23
1742.45
1745.76
1744.93
1108.55
771.306
602.517
727.339
731.895
740.438
741.242
741.085
741.308
741.638
741.907
742.113
742.286
742.448
742.602
742.795
742.896
744.688
1050.17
1658.09
1764.94
1758.37
1755.66
1752.46
1749.18
1746.32
1743.94
1741.98
1740.41
1739.24
1738.47
1738.13
1738.24
1738.67
1739.71
1741.39
1743.71
1746.7
1749.76
1751.08
1136.12
831.208
621.041
693.161
854.087
739.406
741.525
741.277
741.176
741.322
741.507
741.677
741.823
741.967
741.993
742
758.249
1085.57
1656.75
1776.95
1769.55
1766.27
1762.57
1758.75
1755.33
1752.39
1749.87
1747.75
1746.01
1744.66
1743.73
1743.21
1743.09
1743.33
1744.19
1745.62
1747.74
1750.48
1753.53
1756.17
1081.8
792.497
677.756
723.251
1238.84
736.742
740.384
740.771
740.736
740.872
741.066
741.269
741.335
741.315
741.392
804.915
1196.98
1696.13
1787.32
1779.99
1776.19
1772.02
1767.75
1763.9
1760.52
1757.56
1754.97
1752.76
1750.92
1749.48
1748.42
1747.73
1747.35
1747.54
1748.2
1749.47
1751.28
1753.74
1756.69
1758.99
989.291
729.2
699.849
723.169
1358.25
933.977
737.749
740.232
740.715
740.749
740.673
740.682
741.084
757.861
951.782
1395.56
1756.66
1795.76
1789.16
1784.93
1780.35
1775.79
1771.66
1768
1764.73
1761.83
1759.26
1757.05
1755.19
1753.7
1752.53
1751.61
1751.23
1751.25
1751.74
1752.82
1754.32
1756.49
1759.15
1760.83
911.639
689.74
683.274
698.502
1418.8
1568.28
896.989
741.769
739.423
740.439
740.283
790.824
962.127
1294.31
1648.78
1804.18
1802.22
1796.6
1792.01
1787.18
1782.52
1778.29
1774.51
1771.1
1767.97
1765.12
1762.79
1760.68
1758.86
1757.31
1756
1755.12
1754.59
1754.44
1754.83
1755.59
1756.83
1758.73
1760.9
1762.07
829.125
651.863
652.108
680.008
1477.27
1739.78
1547.18
1272.07
1137.76
1128.46
1236.43
1458.93
1684.13
1803.79
1812.03
1805.3
1800.91
1796.45
1791.82
1787.41
1783.39
1779.73
1776.38
1773.28
1770.33
1767.8
1765.54
1763.65
1761.89
1760.32
1759.09
1758.2
1757.58
1757.24
1757.29
1757.59
1758.11
1759.5
1761.55
1763.31
743.646
607.346
611.546
675.149
1538.1
1784.44
1780.28
1782.58
1777.83
1784.95
1805.42
1816.96
1812.02
1808.35
1805.33
1801.92
1798.06
1794.08
1790.27
1786.73
1783.44
1780.35
1777.48
1774.8
1772.27
1769.97
1767.94
1766.1
1764.46
1762.99
1761.73
1760.78
1759.97
1759.45
1759.27
1758.53
1759.17
1760.49
1762.38
1764.19
651.256
553.435
562.684
721.438
1630.42
1798.63
1797.51
1798.67
1801.33
1803.95
1805.43
1805.56
1804.55
1802.66
1800.09
1797.14
1794.09
1791.12
1788.27
1785.55
1782.92
1780.42
1778.08
1775.92
1773.85
1771.76
1769.96
1768.29
1766.73
1765.29
1764.09
1762.94
1761.96
1761.27
1760.79
1759.9
1760.02
1760.98
1762.8
1765.07
562.387
494.307
511.293
850.471
1717.38
1798.5
1797.41
1796.9
1797.53