/*--------------------------------*- C++ -*----------------------------------*\
  =========                 |
  \\      /  F ield         | OpenFOAM: The Open Source CFD Toolbox
   \\    /   O peration     | Website:  https://openfoam.org
    \\  /    A nd           | Version:  8
     \\/     M anipulation  |
\*---------------------------------------------------------------------------*/
FoamFile
{
    version     2.0;
    format      ascii;
    class       volVectorField;
    location    "1.2";
    object      U;
}
// * * * * * * * * * * * * * * * * * * * * * * * * * * * * * * * * * * * * * //

dimensions      [0 1 -1 0 0 0 0];

internalField   nonuniform List<vector> 
9150
(
(0.0538989 -0.427939 0)
(0.0881178 -0.622267 0)
(0.0732513 -0.631554 0)
(0.0486739 -0.643784 0)
(0.0170722 -0.654558 0)
(-0.0170711 -0.654558 0)
(-0.0486731 -0.643785 0)
(-0.0732508 -0.631554 0)
(-0.0881177 -0.622268 0)
(-0.0538989 -0.427939 0)
(0.0409203 -0.522556 0)
(0.0576243 -0.625843 0)
(0.0421805 -0.613306 0)
(0.0294352 -0.622481 0)
(0.0105182 -0.628932 0)
(-0.0105172 -0.628933 0)
(-0.0294345 -0.622482 0)
(-0.0421801 -0.613306 0)
(-0.0576242 -0.625843 0)
(-0.0409203 -0.522557 0)
(0.0254487 -0.557797 0)
(0.0326974 -0.613946 0)
(0.023043 -0.604521 0)
(0.0173049 -0.610002 0)
(0.00626162 -0.613228 0)
(-0.00626071 -0.613228 0)
(-0.0173042 -0.610002 0)
(-0.0230425 -0.604521 0)
(-0.0326973 -0.613946 0)
(-0.0254487 -0.557797 0)
(0.0155605 -0.584668 0)
(0.0176252 -0.607523 0)
(0.0117115 -0.601152 0)
(0.00891445 -0.603288 0)
(0.00325438 -0.604411 0)
(-0.00325388 -0.604411 0)
(-0.00891399 -0.603288 0)
(-0.0117111 -0.601152 0)
(-0.0176251 -0.607523 0)
(-0.0155605 -0.584668 0)
(0.00639605 -0.597162 0)
(0.00564178 -0.601402 0)
(0.00355238 -0.600042 0)
(0.00270238 -0.600352 0)
(0.00100101 -0.600486 0)
(-0.00100095 -0.600486 0)
(-0.00270236 -0.600352 0)
(-0.00355239 -0.600042 0)
(-0.00564172 -0.601402 0)
(-0.00639598 -0.597162 0)
(0.469704 -1.16324 1.36884e-24)
(0.282798 -1.08587 0)
(0.163328 -1.06959 0)
(0.0922608 -1.05824 0)
(0.0303934 -1.05378 0)
(-0.0303839 -1.05378 0)
(-0.0922525 -1.05825 0)
(-0.163321 -1.06959 0)
(-0.282793 -1.08587 0)
(-0.469706 -1.16325 -1.36896e-24)
(0.333593 -0.843667 3.69271e-25)
(0.2872 -0.936546 0)
(0.188299 -0.936856 0)
(0.10817 -0.937076 0)
(0.0357539 -0.939693 0)
(-0.0357488 -0.939694 0)
(-0.108166 -0.937079 0)
(-0.188296 -0.93686 0)
(-0.287199 -0.936551 0)
(-0.333595 -0.843673 -3.69294e-25)
(0.278743 -0.702156 5.84059e-26)
(0.259152 -0.804583 0)
(0.178196 -0.817588 0)
(0.104599 -0.828585 0)
(0.034877 -0.836884 0)
(-0.0348738 -0.836885 0)
(-0.104596 -0.828587 0)
(-0.178194 -0.81759 0)
(-0.259151 -0.804586 0)
(-0.278744 -0.702159 -5.84141e-26)
(0.199972 -0.554177 2.28601e-25)
(0.216935 -0.709384 0)
(0.154408 -0.725963 0)
(0.0913859 -0.742188 0)
(0.0305866 -0.754219 0)
(-0.0305846 -0.75422 0)
(-0.0913842 -0.742189 0)
(-0.154407 -0.725965 0)
(-0.216935 -0.709386 0)
(-0.199972 -0.554179 -2.28603e-25)
(0.119053 -0.444633 -3.76989e-25)
(0.15692 -0.644197 -5.41834e-25)
(0.116875 -0.663854 -1.81135e-25)
(0.0709767 -0.6813 -1.19307e-25)
(0.0240109 -0.694385 -6.93734e-27)
(-0.0240095 -0.694385 -6.9364e-27)
(-0.0709755 -0.681301 -1.19306e-25)
(-0.116874 -0.663855 -1.81135e-25)
(-0.15692 -0.644198 -5.41836e-25)
(-0.119053 -0.444634 -3.76991e-25)
(0.0165218 -0.918585 0)
(-0.0355308 -1.337 0)
(0.0244901 -1.26912 0)
(-0.00382051 -1.22683 0)
(0.00447654 -1.22507 0)
(-0.00441961 -1.22509 0)
(0.00392385 -1.22683 0)
(-0.0243879 -1.26909 0)
(0.035627 -1.33702 0)
(-0.0164338 -0.919008 0)
(0.0478808 -0.907626 0)
(-0.0214077 -1.3333 0)
(0.0246107 -1.27015 0)
(-3.14205e-05 -1.22478 0)
(0.00161458 -1.22336 0)
(-0.00157433 -1.22338 0)
(0.000116343 -1.22477 0)
(-0.0245548 -1.27015 0)
(0.0214844 -1.33333 0)
(-0.0478379 -0.907856 0)
(0.0746587 -0.94432 0)
(-0.0226783 -1.34735 0)
(0.0186563 -1.27546 0)
(0.00458353 -1.23112 0)
(-4.66521e-05 -1.22673 0)
(7.71051e-05 -1.22673 0)
(-0.00452721 -1.23112 0)
(-0.0186193 -1.27547 0)
(0.0227403 -1.34736 0)
(-0.0746266 -0.944461 0)
(0.140628 -1.07715 0)
(0.00102401 -1.36555 0)
(0.0171651 -1.27205 0)
(0.0211676 -1.22605 0)
(0.00554636 -1.21484 0)
(-0.00551847 -1.21484 0)
(-0.0211379 -1.22605 0)
(-0.0171482 -1.27206 0)
(-0.000980536 -1.36556 0)
(-0.140611 -1.07723 0)
(0.295026 -1.21968 0)
(0.123448 -1.3216 0)
(0.069425 -1.21087 0)
(0.0563008 -1.1696 0)
(0.0198458 -1.15726 0)
(-0.0198286 -1.15726 0)
(-0.0562865 -1.1696 0)
(-0.0694109 -1.21088 0)
(-0.123426 -1.32161 0)
(-0.295023 -1.21971 0)
(-0.212428 -0.0700454 0)
(-0.165738 -0.0713139 0)
(-0.118427 -0.0724164 0)
(-0.070715 -0.0732796 0)
(-0.022807 -0.0738048 0)
(0.0251583 -0.0738347 0)
(0.0731098 -0.0733686 0)
(0.120902 -0.0725628 0)
(0.168336 -0.0715206 0)
(0.215204 -0.0703283 0)
(-0.179064 -0.13678 0)
(-0.140156 -0.139177 0)
(-0.100587 -0.140955 0)
(-0.0605195 -0.142149 0)
(-0.0201129 -0.142777 0)
(0.0204365 -0.14284 0)
(0.0608894 -0.142343 0)
(0.101053 -0.141288 0)
(0.140773 -0.139669 0)
(0.179897 -0.137463 0)
(-0.153565 -0.20424 0)
(-0.120311 -0.207938 0)
(-0.0864855 -0.210657 0)
(-0.0522419 -0.212467 0)
(-0.0177367 -0.213412 0)
(0.0168723 -0.213524 0)
(0.0514236 -0.212806 0)
(0.0857608 -0.21124 0)
(0.119729 -0.208788 0)
(0.153181 -0.205398 0)
(-0.132795 -0.265503 0)
(-0.104083 -0.270444 0)
(-0.0748885 -0.274089 0)
(-0.0453517 -0.276521 0)
(-0.0156043 -0.277797 0)
(0.0142251 -0.27795 0)
(0.0440089 -0.276987 0)
(0.0736189 -0.274887 0)
(0.102924 -0.271604 0)
(0.131788 -0.267069 0)
(-0.114676 -0.318294 0)
(-0.0898646 -0.324241 0)
(-0.0646615 -0.328634 0)
(-0.0391821 -0.331568 0)
(-0.0135338 -0.333108 0)
(0.012179 -0.333291 0)
(0.0378521 -0.332125 0)
(0.0633808 -0.329587 0)
(0.0886573 -0.325623 0)
(0.113571 -0.320154 0)
(-0.0985394 -0.363853 0)
(-0.0771439 -0.370603 0)
(-0.0554414 -0.375588 0)
(-0.0335228 -0.378917 0)
(-0.0114723 -0.380662 0)
(0.0106278 -0.380865 0)
(0.0326953 -0.379532 0)
(0.0546473 -0.376639 0)
(0.0763981 -0.372125 0)
(0.0978616 -0.3659 0)
(-0.0841689 -0.403097 0)
(-0.0657704 -0.410471 0)
(-0.0471341 -0.415915 0)
(-0.0283301 -0.41955 0)
(-0.00942238 -0.421455 0)
(0.00952573 -0.421672 0)
(0.0284507 -0.42021 0)
(0.0472882 -0.417039 0)
(0.0659719 -0.412097 0)
(0.0844361 -0.405283 0)
(-0.0717231 -0.436832 0)
(-0.0558719 -0.444687 0)
(-0.0398419 -0.45049 0)
(-0.0236837 -0.454366 0)
(-0.00744262 -0.456402 0)
(0.00883456 -0.456639 0)
(0.0251009 -0.455085 0)
(0.0413085 -0.451712 0)
(0.0574082 -0.446452 0)
(0.0733536 -0.4392 0)
(-0.0616152 -0.466047 0)
(-0.0477616 -0.474241 0)
(-0.0337979 -0.480305 0)
(-0.0197508 -0.484367 0)
(-0.00564411 -0.48651 0)
(0.0084946 -0.486778 0)
(0.022636 -0.485177 0)
(0.0367501 -0.481676 0)
(0.0508062 -0.47621 0)
(0.0647793 -0.468673 0)
(-0.054201 -0.492014 0)
(-0.0417184 -0.500338 0)
(-0.0292176 -0.506528 0)
(-0.0166962 -0.510694 0)
(-0.00414976 -0.512912 0)
(0.0084189 -0.513217 0)
(0.0210034 -0.511615 0)
(0.0335961 -0.508075 0)
(0.0461906 -0.502536 0)
(0.0587875 -0.494898 0)
(-0.0494044 -0.516029 0)
(-0.0377217 -0.524221 0)
(-0.0261196 -0.530357 0)
(-0.0145695 -0.534518 0)
(-0.0030386 -0.536757 0)
(0.00849862 -0.537101 0)
(0.0200617 -0.535549 0)
(0.0316691 -0.532072 0)
(0.0433413 -0.526618 0)
(0.0551051 -0.519105 0)
(-0.0467896 -0.539161 0)
(-0.0354667 -0.546949 0)
(-0.0243169 -0.552839 0)
(-0.0132892 -0.556869 0)
(-0.00232861 -0.559063 0)
(0.00861579 -0.559431 0)
(0.019588 -0.557968 0)
(0.0306301 -0.554646 0)
(0.0417849 -0.549423 0)
(0.0530956 -0.542239 0)
(-0.045576 -0.562069 0)
(-0.0343727 -0.569244 0)
(-0.0234127 -0.574723 0)
(-0.0126249 -0.578502 0)
(-0.00194111 -0.580578 0)
(0.00870528 -0.580944 0)
(0.0193755 -0.579583 0)
(0.0301282 -0.57647 0)
(0.0410177 -0.57157 0)
(0.0520929 -0.564844 0)
(-0.0448696 -0.584867 0)
(-0.0337715 -0.591344 0)
(-0.0229368 -0.596335 0)
(-0.0122811 -0.599804 0)
(-0.00173954 -0.601723 0)
(0.00875638 -0.602069 0)
(0.0192747 -0.600817 0)
(0.0298807 -0.597942 0)
(0.0406321 -0.593415 0)
(0.0515824 -0.587211 0)
(-0.0443348 -0.607409 0)
(-0.0333491 -0.613232 0)
(-0.0226306 -0.617747 0)
(-0.0120828 -0.620902 0)
(-0.00164822 -0.622654 0)
(0.00873607 -0.622971 0)
(0.0191365 -0.621825 0)
(0.0296156 -0.619188 0)
(0.0402244 -0.615037 0)
(0.0510245 -0.609352 0)
(-0.043565 -0.629584 0)
(-0.0327527 -0.634844 0)
(-0.0222139 -0.638921 0)
(-0.0118286 -0.641773 0)
(-0.00154443 -0.643357 0)
(0.00869224 -0.643634 0)
(0.0189407 -0.642573 0)
(0.029255 -0.640145 0)
(0.0396767 -0.63633 0)
(0.0502827 -0.63111 0)
(-0.0422332 -0.651154 0)
(-0.0317273 -0.655935 0)
(-0.0214957 -0.659644 0)
(-0.0113818 -0.662242 0)
(-0.00133864 -0.663686 0)
(0.00867262 -0.663934 0)
(0.0186988 -0.662954 0)
(0.0287824 -0.660718 0)
(0.0389607 -0.657204 0)
(0.0493413 -0.652385 0)
(-0.0405522 -0.671825 0)
(-0.0304296 -0.676247 0)
(-0.0205715 -0.67969 0)
(-0.0107962 -0.682109 0)
(-0.00106316 -0.683458 0)
(0.00864825 -0.683695 0)
(0.0183669 -0.682791 0)
(0.0281179 -0.680721 0)
(0.0379368 -0.677469 0)
(0.0479768 -0.673007 0)
(-0.0387508 -0.691551 0)
(-0.0290152 -0.695731 0)
(-0.0195283 -0.698998 0)
(-0.010098 -0.701295 0)
(-0.00069124 -0.702571 0)
(0.00869516 -0.702786 0)
(0.01807 -0.701911 0)
(0.0274386 -0.699933 0)
(0.0368304 -0.696848 0)
(0.0464343 -0.692653 0)
(-0.0368619 -0.710359 0)
(-0.0274929 -0.714432 0)
(-0.0183482 -0.717606 0)
(-0.00923735 -0.719829 0)
(-0.000131336 -0.721048 0)
(0.00895933 -0.721221 0)
(0.0180262 -0.720324 0)
(0.0270581 -0.718349 0)
(0.0360781 -0.715309 0)
(0.0452781 -0.711225 0)
(-0.034886 -0.728303 0)
(-0.0258607 -0.732386 0)
(-0.0170315 -0.735558 0)
(-0.00821342 -0.737769 0)
(0.000624406 -0.738964 0)
(0.00946016 -0.739102 0)
(0.0182696 -0.738157 0)
(0.0270287 -0.736125 0)
(0.0357566 -0.733019 0)
(0.0446316 -0.72886 0)
(-0.033035 -0.745504 0)
(-0.0242884 -0.749685 0)
(-0.0157186 -0.752935 0)
(-0.00714537 -0.755192 0)
(0.001467 -0.7564 0)
(0.0100877 -0.756511 0)
(0.0186772 -0.755499 0)
(0.0271996 -0.753357 0)
(0.035675 -0.750095 0)
(0.0442589 -0.745726 0)
(-0.0312349 -0.762077 0)
(-0.0227606 -0.766438 0)
(-0.0144324 -0.769831 0)
(-0.00607783 -0.772188 0)
(0.00234354 -0.773439 0)
(0.0107915 -0.773531 0)
(0.019211 -0.772428 0)
(0.0275546 -0.770116 0)
(0.0358417 -0.766593 0)
(0.0441966 -0.761873 0)
(-0.0294503 -0.777956 0)
(-0.0213016 -0.782598 0)
(-0.0132356 -0.786241 0)
(-0.00509084 -0.788786 0)
(0.00316823 -0.790148 0)
(0.0114872 -0.790257 0)
(0.0197932 -0.78907 0)
(0.0280268 -0.786558 0)
(0.0362076 -0.782711 0)
(0.0444271 -0.777528 0)
(-0.0281714 -0.793038 0)
(-0.0203318 -0.798126 0)
(-0.0124661 -0.802182 0)
(-0.00445185 -0.80505 0)
(0.00372601 -0.806616 0)
(0.0119923 -0.806803 0)
(0.0202549 -0.805554 0)
(0.0284425 -0.802836 0)
(0.0365709 -0.798625 0)
(0.0446834 -0.792912 0)
(-0.0281983 -0.807475 0)
(-0.0204521 -0.813276 0)
(-0.0125505 -0.817929 0)
(-0.00445145 -0.821231 0)
(0.00382101 -0.823062 0)
(0.0121747 -0.823336 0)
(0.0205037 -0.822 0)
(0.0287326 -0.819006 0)
(0.0368771 -0.814311 0)
(0.0449235 -0.80786 0)
(-0.0300409 -0.821938 0)
(-0.0219029 -0.828757 0)
(-0.0135556 -0.834105 0)
(-0.00505643 -0.837853 0)
(0.00356244 -0.839906 0)
(0.0122092 -0.840209 0)
(0.0207936 -0.838713 0)
(0.0292697 -0.835376 0)
(0.0377033 -0.830123 0)
(0.0459738 -0.822874 0)
(-0.0328587 -0.837813 0)
(-0.0238459 -0.845601 0)
(-0.0147593 -0.851509 0)
(-0.00567182 -0.855515 0)
(0.00342026 -0.857634 0)
(0.0124661 -0.857851 0)
(0.021412 -0.856154 0)
(0.0302779 -0.852498 0)
(0.0392161 -0.846811 0)
(0.0479363 -0.838979 0)
(-0.0336688 -0.855657 0)
(-0.0241009 -0.864069 0)
(-0.0145998 -0.87018 0)
(-0.00521348 -0.874191 0)
(0.00411476 -0.87618 0)
(0.0133619 -0.876205 0)
(0.0225003 -0.874266 0)
(0.0315975 -0.870343 0)
(0.0408645 -0.864349 0)
(0.0497884 -0.856197 0)
(-0.0308575 -0.87385 0)
(-0.0215314 -0.882631 0)
(-0.0122808 -0.888901 0)
(-0.00310318 -0.892896 0)
(0.00608015 -0.894795 0)
(0.0152503 -0.894668 0)
(0.0243804 -0.892565 0)
(0.0335699 -0.888465 0)
(0.0430496 -0.882327 0)
(0.0519191 -0.874104 0)
(-0.0276949 -0.891255 0)
(-0.0184499 -0.900319 0)
(-0.00938012 -0.906815 0)
(-0.000403976 -0.910979 0)
(0.00862115 -0.912967 0)
(0.0176916 -0.912891 0)
(0.0268094 -0.910794 0)
(0.036102 -0.906692 0)
(0.0457918 -0.900511 0)
(0.0544681 -0.892217 0)
(-0.0275201 -0.909403 0)
(-0.0173758 -0.918337 0)
(-0.00779488 -0.924819 0)
(0.00145868 -0.929028 0)
(0.0106339 -0.931112 0)
(0.0198114 -0.931154 0)
(0.0290435 -0.929211 0)
(0.0385484 -0.925258 0)
(0.0485053 -0.919236 0)
(0.0570114 -0.911027 0)
(-0.0294829 -0.930539 0)
(-0.0180285 -0.938375 0)
(-0.00755332 -0.944134 0)
(0.00221821 -0.947907 0)
(0.0116945 -0.949766 0)
(0.0210166 -0.949769 0)
(0.0303279 -0.947917 0)
(0.0399069 -0.94416 0)
(0.0499596 -0.938314 0)
(0.058058 -0.930257 0)
(-0.0303236 -0.954596 0)
(-0.018343 -0.960458 0)
(-0.00739236 -0.96481 0)
(0.00265891 -0.96759 0)
(0.0122271 -0.968804 0)
(0.0215142 -0.968438 0)
(0.030684 -0.966468 0)
(0.0400902 -0.962792 0)
(0.0497235 -0.957284 0)
(0.0573381 -0.949616 0)
(-0.0271193 -0.977984 0)
(-0.0161777 -0.982281 0)
(-0.00579419 -0.985333 0)
(0.00388851 -0.987105 0)
(0.0131741 -0.987576 0)
(0.022215 -0.986731 0)
(0.0311917 -0.984518 0)
(0.0404641 -0.980875 0)
(0.0498302 -0.975696 0)
(0.0571436 -0.968706 0)
(-0.0227257 -0.998046 0)
(-0.0130321 -1.00191 0)
(-0.00352255 -1.00437 0)
(0.00553752 -1.00557 0)
(0.014344 -1.0056 0)
(0.0230154 -1.00448 0)
(0.0317346 -1.00223 0)
(0.0408558 -0.998801 0)
(0.0499118 -0.994202 0)
(0.0569887 -0.988018 0)
(-0.0192741 -1.01618 0)
(-0.0103644 -1.01981 0)
(-0.0015966 -1.02194 0)
(0.00680965 -1.02283 0)
(0.0150284 -1.02262 0)
(0.0231679 -1.02141 0)
(0.0313886 -1.01924 0)
(0.039973 -1.01613 0)
(0.0482557 -1.0121 0)
(0.0547033 -1.00677 0)
(-0.0170017 -1.03331 0)
(-0.00865449 -1.03647 0)
(-0.00051672 -1.03822 0)
(0.00722749 -1.03881 0)
(0.0147932 -1.03841 0)
(0.0222836 -1.0371 0)
(0.0298374 -1.03494 0)
(0.0376775 -1.03194 0)
(0.044995 -1.02811 0)
(0.0507008 -1.02296 0)
(-0.0160127 -1.04956 0)
(-0.00818186 -1.05194 0)
(-0.00065035 -1.05319 0)
(0.00645225 -1.05345 0)
(0.0133681 -1.05283 0)
(0.0202068 -1.0514 0)
(0.0270922 -1.04918 0)
(0.0342233 -1.04618 0)
(0.0407379 -1.04238 0)
(0.0457822 -1.03737 0)
(-0.0168362 -1.06495 0)
(-0.00950629 -1.06637 0)
(-0.00247723 -1.06701 0)
(0.00409725 -1.06689 0)
(0.0104611 -1.06603 0)
(0.0167306 -1.06445 0)
(0.0230376 -1.06215 0)
(0.0295551 -1.05912 0)
(0.0354337 -1.05536 0)
(0.039964 -1.05051 0)
(-0.0191211 -1.07933 0)
(-0.0124643 -1.07984 0)
(-0.00596196 -1.07986 0)
(0.000109164 -1.07931 0)
(0.00596132 -1.07818 0)
(0.0117136 -1.07643 0)
(0.0174877 -1.07403 0)
(0.0234414 -1.07095 0)
(0.0287551 -1.06717 0)
(0.0328374 -1.06243 0)
(-0.0227166 -1.0923 0)
(-0.0168346 -1.09213 0)
(-0.0109439 -1.09162 0)
(-0.00541796 -1.0907 0)
(-7.96641e-05 -1.08931 0)
(0.00517689 -1.08739 0)
(0.01046 -1.08487 0)
(0.015905 -1.08171 0)
(0.0207511 -1.07785 0)
(0.0244471 -1.0731 0)
(-0.0276121 -1.10376 0)
(-0.0225363 -1.10307 0)
(-0.0173159 -1.10218 0)
(-0.0123675 -1.10099 0)
(-0.00754381 -1.09943 0)
(-0.00275201 -1.0974 0)
(0.00209938 -1.09482 0)
(0.00712773 -1.09159 0)
(0.0116588 -1.08762 0)
(0.0150626 -1.08282 0)
(-0.03375 -1.11361 0)
(-0.0294861 -1.11259 0)
(-0.0249604 -1.11148 0)
(-0.0205901 -1.11019 0)
(-0.0162557 -1.1086 0)
(-0.0118784 -1.10659 0)
(-0.00737909 -1.10403 0)
(-0.00265025 -1.1008 0)
(0.00170388 -1.09678 0)
(0.00497598 -1.09182 0)
(-0.0409385 -1.12175 0)
(-0.0374836 -1.12061 0)
(-0.0336441 -1.11954 0)
(-0.0298211 -1.11834 0)
(-0.0259244 -1.11691 0)
(-0.0218938 -1.11507 0)
(-0.017656 -1.1127 0)
(-0.0130961 -1.10964 0)
(-0.00878006 -1.10574 0)
(-0.00553647 -1.10087 0)
(-0.0490614 -1.12825 0)
(-0.0463234 -1.12726 0)
(-0.043067 -1.12644 0)
(-0.0396841 -1.12559 0)
(-0.0361217 -1.12451 0)
(-0.0323331 -1.12306 0)
(-0.0282545 -1.12105 0)
(-0.0237554 -1.11836 0)
(-0.0193653 -1.11481 0)
(-0.0160364 -1.11031 0)
(-0.0575442 -1.13345 0)
(-0.0554232 -1.13287 0)
(-0.0526181 -1.13253 0)
(-0.0495539 -1.1322 0)
(-0.0462158 -1.13167 0)
(-0.0425879 -1.13074 0)
(-0.0386023 -1.12928 0)
(-0.0341266 -1.1271 0)
(-0.0296136 -1.12406 0)
(-0.02611 -1.12003 0)
(-0.064704 -1.13718 0)
(-0.0631966 -1.13749 0)
(-0.0609531 -1.13792 0)
(-0.0582564 -1.13832 0)
(-0.0551763 -1.13847 0)
(-0.0517204 -1.13822 0)
(-0.0478649 -1.1374 0)
(-0.0434671 -1.13589 0)
(-0.0388929 -1.13355 0)
(-0.0352395 -1.13028 0)
(-0.0691587 -1.13909 0)
(-0.0683042 -1.14068 0)
(-0.0667679 -1.14227 0)
(-0.0645845 -1.14369 0)
(-0.0618309 -1.14476 0)
(-0.0586115 -1.14531 0)
(-0.0549277 -1.14524 0)
(-0.0506912 -1.14445 0)
(-0.0461572 -1.1429 0)
(-0.0424414 -1.14052 0)
(-0.0710722 -1.13906 0)
(-0.0706622 -1.14241 0)
(-0.0697408 -1.14547 0)
(-0.0679605 -1.14824 0)
(-0.0654481 -1.15048 0)
(-0.062338 -1.15202 0)
(-0.0587218 -1.15279 0)
(-0.0545377 -1.15276 0)
(-0.0499766 -1.15196 0)
(-0.046192 -1.15036 0)
(-0.0707071 -1.13707 0)
(-0.0705151 -1.14291 0)
(-0.0699044 -1.14794 0)
(-0.0682777 -1.1524 0)
(-0.0657185 -1.15607 0)
(-0.0624727 -1.15878 0)
(-0.058661 -1.1605 0)
(-0.0542781 -1.16126 0)
(-0.049486 -1.16121 0)
(-0.0454779 -1.16034 0)
(-0.0688632 -1.13314 0)
(-0.0685459 -1.14265 0)
(-0.0677645 -1.15024 0)
(-0.065841 -1.15678 0)
(-0.0629322 -1.1621 0)
(-0.0593001 -1.1661 0)
(-0.0551359 -1.16881 0)
(-0.0504818 -1.17031 0)
(-0.0455181 -1.17081 0)
(-0.0413656 -1.17038 0)
(-0.0669384 -1.13062 0)
(-0.0659077 -1.14396 0)
(-0.0641724 -1.15392 0)
(-0.0613255 -1.16243 0)
(-0.0576555 -1.16927 0)
(-0.0534198 -1.1744 0)
(-0.048796 -1.17787 0)
(-0.043879 -1.17981 0)
(-0.0388636 -1.18046 0)
(-0.0347016 -1.17994 0)
(-0.0626974 -1.12902 0)
(-0.0603484 -1.14722 0)
(-0.0577266 -1.15962 0)
(-0.0540737 -1.16984 0)
(-0.0497439 -1.17788 0)
(-0.0449929 -1.18379 0)
(-0.0400114 -1.18766 0)
(-0.0348947 -1.18963 0)
(-0.0298091 -1.18988 0)
(-0.0256352 -1.1884 0)
(-0.0557214 -1.12785 0)
(-0.051774 -1.15172 0)
(-0.0484334 -1.16663 0)
(-0.0441969 -1.17843 0)
(-0.0394846 -1.1874 0)
(-0.0345357 -1.19382 0)
(-0.0294753 -1.19788 0)
(-0.0243376 -1.19976 0)
(-0.0192088 -1.19955 0)
(-0.0149348 -1.19714 0)
(-0.0483829 -1.13015 0)
(-0.0418061 -1.15871 0)
(-0.0375029 -1.17534 0)
(-0.0326626 -1.18795 0)
(-0.0278448 -1.1973 0)
(-0.0231108 -1.20386 0)
(-0.0184371 -1.20799 0)
(-0.0137612 -1.20986 0)
(-0.00902396 -1.20959 0)
(-0.00481099 -1.20682 0)
(-0.0378479 -1.13956 0)
(-0.0291166 -1.16904 0)
(-0.0243572 -1.18544 0)
(-0.0196387 -1.19754 0)
(-0.0153938 -1.20634 0)
(-0.011531 -1.21246 0)
(-0.00794561 -1.21623 0)
(-0.00454206 -1.21787 0)
(-0.00114278 -1.2174 0)
(0.00201273 -1.21436 0)
(-0.024092 -1.15038 0)
(-0.0151453 -1.17895 0)
(-0.0106068 -1.19423 0)
(-0.00639569 -1.20526 0)
(-0.0028682 -1.21326 0)
(0.000206594 -1.21872 0)
(0.00298222 -1.22204 0)
(0.00555845 -1.22343 0)
(0.0080919 -1.22307 0)
(0.0105629 -1.22042 0)
(-0.0169085 -1.17527 0)
(-0.00757468 -1.19276 0)
(-0.00236973 -1.20418 0)
(0.0026366 -1.21314 0)
(0.00669846 -1.21983 0)
(0.0100496 -1.22445 0)
(0.0129569 -1.22715 0)
(0.0155958 -1.22814 0)
(0.0180338 -1.22754 0)
(0.0202709 -1.22537 0)
(-0.0109175 -1.1912 0)
(-0.00269354 -1.2065 0)
(0.00319464 -1.21578 0)
(0.00924274 -1.2228 0)
(0.0141732 -1.22792 0)
(0.0181507 -1.23128 0)
(0.0214983 -1.23306 0)
(0.0244366 -1.2334 0)
(0.0270803 -1.23245 0)
(0.0290878 -1.23018 0)
(-0.00220511 -1.21245 0)
(0.00408796 -1.2226 0)
(0.00985028 -1.22902 0)
(0.0161164 -1.2338 0)
(0.02131 -1.23711 0)
(0.0255794 -1.23902 0)
(0.0292113 -1.2396 0)
(0.0323571 -1.239 0)
(0.0350378 -1.23738 0)
(0.0368675 -1.23486 0)
(0.0048374 -1.2308 0)
(0.0102322 -1.23744 0)
(0.0158021 -1.2417 0)
(0.0219988 -1.24474 0)
(0.0272764 -1.24658 0)
(0.0317402 -1.24719 0)
(0.0356207 -1.24661 0)
(0.0389933 -1.24489 0)
(0.0417326 -1.24216 0)
(0.0434705 -1.23839 0)
(0.011271 -1.24653 0)
(0.0157204 -1.25102 0)
(0.0208272 -1.25377 0)
(0.026632 -1.25549 0)
(0.0317333 -1.25614 0)
(0.0361936 -1.25566 0)
(0.0401804 -1.25398 0)
(0.0437109 -1.25109 0)
(0.0465563 -1.24698 0)
(0.0482943 -1.24122 0)
(0.0157184 -1.25883 0)
(0.0193859 -1.2627 0)
(0.0239955 -1.26461 0)
(0.0293217 -1.26551 0)
(0.0341414 -1.26537 0)
(0.0385025 -1.26408 0)
(0.0425373 -1.26155 0)
(0.0462601 -1.25764 0)
(0.0493874 -1.25224 0)
(0.0513364 -1.24452 0)
(0.016913 -1.26968 0)
(0.0202951 -1.27319 0)
(0.0245911 -1.27452 0)
(0.029576 -1.2749 0)
(0.0341666 -1.27425 0)
(0.0384353 -1.27245 0)
(0.0425212 -1.26932 0)
(0.0464848 -1.2647 0)
(0.0500019 -1.25832 0)
(0.0522535 -1.24903 0)
(0.0159799 -1.2802 0)
(0.0190549 -1.28298 0)
(0.0230354 -1.2838 0)
(0.0276896 -1.28381 0)
(0.0320509 -1.28287 0)
(0.036206 -1.28079 0)
(0.0403098 -1.27737 0)
(0.0444838 -1.27241 0)
(0.0483595 -1.26562 0)
(0.0509783 -1.25565 0)
(0.0135438 -1.28966 0)
(0.0162647 -1.29181 0)
(0.0198703 -1.29233 0)
(0.0241514 -1.29217 0)
(0.0282429 -1.29112 0)
(0.0322035 -1.28894 0)
(0.0361762 -1.28547 0)
(0.040306 -1.28047 0)
(0.0441927 -1.27372 0)
(0.0469829 -1.2638 0)
(0.0100958 -1.2971 0)
(0.012532 -1.29949 0)
(0.0157782 -1.30007 0)
(0.0197035 -1.29993 0)
(0.0235104 -1.29884 0)
(0.0271951 -1.29661 0)
(0.0308567 -1.29307 0)
(0.0346103 -1.28809 0)
(0.0380519 -1.2815 0)
(0.0405803 -1.2719 0)
(0.00641439 -1.30233 0)
(0.00865031 -1.30608 0)
(0.0116536 -1.30713 0)
(0.01531 -1.30711 0)
(0.0188653 -1.30597 0)
(0.0222859 -1.30359 0)
(0.0256295 -1.29986 0)
(0.0289546 -1.29469 0)
(0.0318639 -1.28799 0)
(0.0339767 -1.27819 0)
(0.00277032 -1.30805 0)
(0.00493786 -1.31251 0)
(0.00787587 -1.31384 0)
(0.0114155 -1.3139 0)
(0.0148349 -1.31268 0)
(0.0181214 -1.3101 0)
(0.0213168 -1.30607 0)
(0.0244375 -1.30052 0)
(0.0270673 -1.29339 0)
(0.0289482 -1.28262 0)
(-0.00086231 -1.31456 0)
(0.00135738 -1.31907 0)
(0.00435877 -1.3205 0)
(0.00794202 -1.32059 0)
(0.0113986 -1.31929 0)
(0.0147421 -1.31653 0)
(0.0180188 -1.3122 0)
(0.0212278 -1.30622 0)
(0.0238874 -1.29854 0)
(0.0257729 -1.28645 0)
(-0.00428734 -1.32128 0)
(-0.00201005 -1.32583 0)
(0.00107538 -1.32734 0)
(0.00478501 -1.32749 0)
(0.00840153 -1.32618 0)
(0.0119565 -1.3233 0)
(0.015515 -1.31874 0)
(0.0190778 -1.31239 0)
(0.0220363 -1.30415 0)
(0.0241665 -1.29062 0)
(-0.00752982 -1.32803 0)
(-0.00522126 -1.33276 0)
(-0.00206786 -1.33443 0)
(0.00176364 -1.33473 0)
(0.00555945 -1.33353 0)
(0.00937533 -1.3307 0)
(0.0133127 -1.32608 0)
(0.0174042 -1.3195 0)
(0.0208482 -1.31082 0)
(0.0234797 -1.29594 0)
(-0.0106727 -1.33468 0)
(-0.00837784 -1.33975 0)
(-0.00522864 -1.34168 0)
(-0.00135656 -1.34224 0)
(0.00252632 -1.3413 0)
(0.00649742 -1.33871 0)
(0.0107165 -1.33429 0)
(0.0152843 -1.32784 0)
(0.0192237 -1.31909 0)
(0.0225483 -1.30358 0)
(-0.0136556 -1.34148 0)
(-0.0114 -1.34674 0)
(-0.00835693 -1.3489 0)
(-0.00459475 -1.34974 0)
(-0.000825513 -1.34913 0)
(0.00304213 -1.34692 0)
(0.00721475 -1.34295 0)
(0.0118553 -1.33701 0)
(0.0159828 -1.32886 0)
(0.0198502 -1.31422 0)
(-0.0158117 -1.3485 0)
(-0.0136381 -1.35356 0)
(-0.0108834 -1.35581 0)
(-0.0074618 -1.35683 0)
(-0.00405567 -1.35648 0)
(-0.00059127 -1.35462 0)
(0.00312944 -1.35114 0)
(0.00727725 -1.34593 0)
(0.0110286 -1.33885 0)
(0.0148973 -1.32659 0)
(-0.015975 -1.3548 0)
(-0.0140834 -1.35954 0)
(-0.0119025 -1.36184 0)
(-0.00913955 -1.36297 0)
(-0.00635117 -1.36277 0)
(-0.00352903 -1.36114 0)
(-0.000543686 -1.35801 0)
(0.00271847 -1.35332 0)
(0.00566806 -1.34707 0)
(0.00886668 -1.33653 0)
(-0.0137498 -1.35816 0)
(-0.0124919 -1.36357 0)
(-0.0110854 -1.36626 0)
(-0.00919081 -1.36762 0)
(-0.00716617 -1.36759 0)
(-0.00507942 -1.36611 0)
(-0.0028846 -1.36315 0)
(-0.000528942 -1.35871 0)
(0.00159977 -1.35275 0)
(0.00390652 -1.34236 0)
(-0.0107345 -1.35836 0)
(-0.00999537 -1.36552 0)
(-0.00918944 -1.36894 0)
(-0.00800655 -1.37072 0)
(-0.00662694 -1.37094 0)
(-0.00513856 -1.36963 0)
(-0.0035433 -1.3668 0)
(-0.00181774 -1.3625 0)
(-0.000233337 -1.3567 0)
(0.00152448 -1.34617 0)
(-0.00840429 -1.3576 0)
(-0.00778958 -1.36641 0)
(-0.00720779 -1.37054 0)
(-0.00635815 -1.37277 0)
(-0.00531639 -1.37331 0)
(-0.00413737 -1.37222 0)
(-0.00282823 -1.36958 0)
(-0.0013762 -1.36543 0)
(-2.21493e-05 -1.35977 0)
(0.0015091 -1.3492 0)
(-0.00748058 -1.35801 0)
(-0.00665756 -1.36746 0)
(-0.00592814 -1.37198 0)
(-0.00498389 -1.37456 0)
(-0.00390581 -1.3754 0)
(-0.00270062 -1.37457 0)
(-0.00134637 -1.37215 0)
(0.000176601 -1.36818 0)
(0.00158848 -1.36266 0)
(0.00313759 -1.3521 0)
(-0.00785787 -1.35954 0)
(-0.00666135 -1.36927 0)
(-0.00553206 -1.37401 0)
(-0.0041718 -1.37682 0)
(-0.00277414 -1.37789 0)
(-0.00129499 -1.37731 0)
(0.000348941 -1.37514 0)
(0.00221153 -1.37141 0)
(0.00390774 -1.36606 0)
(0.00565714 -1.35571 0)
(-0.00870083 -1.36314 0)
(-0.00714964 -1.3725 0)
(-0.00557132 -1.37713 0)
(-0.00373039 -1.37995 0)
(-0.00196834 -1.38114 0)
(-0.000183997 -1.38077 0)
(0.00177829 -1.37889 0)
(0.0040232 -1.37553 0)
(0.00604583 -1.37061 0)
(0.00798688 -1.36112 0)
(-0.00871695 -1.36881 0)
(-0.00713542 -1.37694 0)
(-0.00535746 -1.38112 0)
(-0.00329464 -1.38374 0)
(-0.0013923 -1.38492 0)
(0.000481849 -1.38471 0)
(0.00252452 -1.38314 0)
(0.00486437 -1.38025 0)
(0.00693801 -1.376 0)
(0.00874578 -1.36805 0)
(-0.00750319 -1.37479 0)
(-0.00612404 -1.38156 0)
(-0.00450856 -1.38518 0)
(-0.00262892 -1.3875 0)
(-0.000927701 -1.38861 0)
(0.000722828 -1.3885 0)
(0.00251184 -1.38721 0)
(0.00455876 -1.38476 0)
(0.00634922 -1.38116 0)
(0.00786081 -1.37461 0)
(-0.00503827 -1.37985 0)
(-0.00409169 -1.38539 0)
(-0.0029694 -1.38849 0)
(-0.00165809 -1.39052 0)
(-0.000493292 -1.39152 0)
(0.000622516 -1.39147 0)
(0.00183614 -1.3904 0)
(0.00323713 -1.38833 0)
(0.00445234 -1.38527 0)
(0.00546473 -1.37991 0)
(-0.00166242 -1.38313 0)
(-0.00130231 -1.38769 0)
(-0.00090508 -1.39038 0)
(-0.000436595 -1.39218 0)
(-5.13421e-05 -1.39309 0)
(0.000304948 -1.39308 0)
(0.000713899 -1.39215 0)
(0.00122437 -1.39034 0)
(0.0016626 -1.38769 0)
(0.00204872 -1.38325 0)
(0.00226758 -1.38403 0)
(0.00195067 -1.38798 0)
(0.00148197 -1.39044 0)
(0.000949552 -1.39211 0)
(0.000412352 -1.39296 0)
(-0.000123592 -1.39296 0)
(-0.000649559 -1.39212 0)
(-0.00116261 -1.39046 0)
(-0.0016134 -1.38803 0)
(-0.00191817 -1.38415 0)
(0.00650624 -1.38251 0)
(0.00546056 -1.38611 0)
(0.00404861 -1.38847 0)
(0.00243245 -1.3901 0)
(0.0008965 -1.39094 0)
(-0.000603989 -1.39095 0)
(-0.00213471 -1.39013 0)
(-0.00374218 -1.38852 0)
(-0.0051476 -1.38618 0)
(-0.00618837 -1.38264 0)
(0.010956 -1.37854 0)
(0.00914037 -1.38197 0)
(0.00672452 -1.38437 0)
(0.00397393 -1.38605 0)
(0.00139734 -1.38693 0)
(-0.001107 -1.38694 0)
(-0.0036809 -1.38609 0)
(-0.00642768 -1.38442 0)
(-0.00884292 -1.38206 0)
(-0.010657 -1.37867 0)
(0.0156374 -1.37202 0)
(0.0130078 -1.37547 0)
(0.00951622 -1.37804 0)
(0.00557815 -1.37989 0)
(0.00191884 -1.38085 0)
(-0.00163018 -1.38086 0)
(-0.00528771 -1.37992 0)
(-0.00922356 -1.3781 0)
(-0.0127172 -1.37556 0)
(-0.0153471 -1.37214 0)
(0.0206775 -1.36281 0)
(0.017179 -1.36649 0)
(0.0125074 -1.36939 0)
(0.00729714 -1.37149 0)
(0.00247894 -1.3726 0)
(-0.00219095 -1.37261 0)
(-0.00700728 -1.37153 0)
(-0.0122149 -1.36945 0)
(-0.0168889 -1.36658 0)
(-0.0203882 -1.36293 0)
(0.0262646 -1.35079 0)
(0.0218298 -1.35486 0)
(0.015826 -1.35821 0)
(0.00920712 -1.36067 0)
(0.00310206 -1.36197 0)
(-0.00281512 -1.36198 0)
(-0.00891743 -1.36072 0)
(-0.0155318 -1.35828 0)
(-0.0215366 -1.35496 0)
(-0.0259711 -1.35092 0)
(0.0325065 -1.33589 0)
(0.0270511 -1.34037 0)
(0.0195145 -1.34422 0)
(0.0113176 -1.3471 0)
(0.00378659 -1.34865 0)
(-0.00350439 -1.34866 0)
(-0.0110313 -1.34715 0)
(-0.0192208 -1.3443 0)
(-0.0267553 -1.34049 0)
(-0.032208 -1.33602 0)
(0.0390615 -1.31803 0)
(0.0324714 -1.32273 0)
(0.0232081 -1.32705 0)
(0.0133911 -1.33048 0)
(0.00445438 -1.33239 0)
(-0.0041851 -1.33241 0)
(-0.0131169 -1.33054 0)
(-0.0229242 -1.32715 0)
(-0.0321817 -1.32286 0)
(-0.0387655 -1.31818 0)
(0.04448 -1.29694 0)
(0.0366391 -1.30158 0)
(0.0257015 -1.30671 0)
(0.014864 -1.31111 0)
(0.00498899 -1.31354 0)
(-0.00474253 -1.31356 0)
(-0.0146141 -1.31118 0)
(-0.0254459 -1.30683 0)
(-0.0363765 -1.30173 0)
(-0.0442069 -1.29711 0)
(0.0454416 -1.27107 0)
(0.0366453 -1.2768 0)
(0.0250962 -1.28507 0)
(0.0152299 -1.29128 0)
(0.00549297 -1.29336 0)
(-0.00527355 -1.29338 0)
(-0.0150108 -1.29135 0)
(-0.0248881 -1.2852 0)
(-0.0364405 -1.27699 0)
(-0.0452263 -1.27129 0)
(0.0374505 -1.23399 0)
(0.0294934 -1.24974 0)
(0.0215805 -1.2683 0)
(0.0145933 -1.27471 0)
(0.00651634 -1.27178 0)
(-0.00632244 -1.27181 0)
(-0.0144063 -1.27475 0)
(-0.0214124 -1.26837 0)
(-0.0293645 -1.24996 0)
(-0.0373221 -1.23433 0)
(0.0216528 -1.1691 0)
(0.0147848 -1.23096 0)
(0.021534 -1.26499 0)
(0.0119555 -1.25906 0)
(0.00773462 -1.24935 0)
(-0.00757544 -1.24938 0)
(-0.0118172 -1.2591 0)
(-0.0213653 -1.26493 0)
(-0.0147184 -1.2311 0)
(-0.0215886 -1.16966 0)
(0.0139276 -1.05912 0)
(-0.00825466 -1.25558 0)
(0.0266696 -1.27061 0)
(0.00367636 -1.2394 0)
(0.00679911 -1.23355 0)
(-0.00669414 -1.23357 0)
(-0.00356981 -1.23944 0)
(-0.026518 -1.27053 0)
(0.00830693 -1.25558 0)
(-0.0138429 -1.05976 0)
(0.264019 -0.0689227 0)
(0.314316 -0.0669713 0)
(0.362986 -0.0644708 0)
(0.409648 -0.0614339 0)
(0.453828 -0.057848 0)
(0.495026 -0.053678 0)
(0.532721 -0.048892 0)
(0.56638 -0.0434759 0)
(0.595476 -0.0374426 0)
(0.619521 -0.0308335 0)
(0.638096 -0.0237096 0)
(0.650867 -0.0161211 0)
(0.657798 -0.0080793 0)
(0.658509 0.000216735 0)
(0.652619 0.00830756 0)
(0.641037 0.0157741 0)
(0.624493 0.0223392 0)
(0.603604 0.027883 0)
(0.579024 0.032406 0)
(0.551412 0.0359784 0)
(0.521385 0.0387059 0)
(0.48948 0.0407118 0)
(0.456156 0.0421253 0)
(0.421795 0.0430727 0)
(0.386702 0.0436708 0)
(0.351114 0.0440217 0)
(0.315211 0.0442103 0)
(0.279124 0.0443013 0)
(0.242957 0.0443366 0)
(0.206804 0.0443306 0)
(0.170772 0.0442615 0)
(0.135019 0.0440572 0)
(0.0997645 0.0435672 0)
(0.065314 0.0424845 0)
(0.0332493 0.040216 0)
(0.00309898 0.0373688 0)
(-0.0237617 0.0277328 0)
(-0.0421267 0.00412726 0)
(-0.0444786 -0.0309447 0)
(-0.0202211 -0.0583173 0)
(0.2207 -0.134451 0)
(0.262724 -0.130354 0)
(0.303162 -0.125234 0)
(0.341665 -0.118983 0)
(0.377867 -0.111501 0)
(0.411372 -0.102704 0)
(0.441761 -0.0925472 0)
(0.46862 -0.0810439 0)
(0.491563 -0.0682846 0)
(0.510276 -0.0544486 0)
(0.524554 -0.0397986 0)
(0.534331 -0.024659 0)
(0.539698 -0.00936784 0)
(0.541098 0.00568257 0)
(0.539026 0.0199943 0)
(0.533543 0.0331405 0)
(0.524784 0.0448904 0)
(0.512958 0.0551484 0)
(0.498328 0.063904 0)
(0.481184 0.0712103 0)
(0.461824 0.0771713 0)
(0.440539 0.0819268 0)
(0.41761 0.0856365 0)
(0.393297 0.0884661 0)
(0.367836 0.0905748 0)
(0.341438 0.092106 0)