/*--------------------------------*- C++ -*----------------------------------*\
  =========                 |
  \\      /  F ield         | OpenFOAM: The Open Source CFD Toolbox
   \\    /   O peration     | Website:  https://openfoam.org
    \\  /    A nd           | Version:  8
     \\/     M anipulation  |
\*---------------------------------------------------------------------------*/
FoamFile
{
    version     2.0;
    format      ascii;
    class       volScalarField;
    location    "4.3";
    object      p_rgh;
}
// * * * * * * * * * * * * * * * * * * * * * * * * * * * * * * * * * * * * * //

dimensions      [1 -1 -2 0 0 0 0];

internalField   nonuniform List<scalar> 
9150
(
1962.86
1961.86
1961.24
1960.77
1960.53
1960.54
1960.78
1961.25
1961.86
1962.86
1962.43
1961.92
1961.5
1961.19
1961.01
1961
1961.17
1961.49
1961.92
1962.43
1962.16
1961.87
1961.62
1961.4
1961.29
1961.29
1961.41
1961.63
1961.88
1962.16
1962.04
1961.86
1961.69
1961.53
1961.46
1961.45
1961.53
1961.69
1961.86
1962.04
1962.04
1961.85
1961.72
1961.59
1961.53
1961.52
1961.6
1961.72
1961.86
1962.04
1951.07
1950.22
1950.46
1950.91
1951.09
1951.1
1950.94
1950.53
1950.29
1951.14
1955.11
1954.39
1954.19
1954.14
1954.25
1954.26
1954.17
1954.23
1954.44
1955.15
1958.23
1957.48
1957.15
1956.81
1956.75
1956.76
1956.82
1957.16
1957.48
1958.23
1960.96
1959.83
1959.39
1958.75
1958.57
1958.57
1958.74
1959.38
1959.83
1960.95
1963.57
1961.51
1960.76
1960.05
1959.78
1959.79
1960.05
1960.75
1961.51
1963.57
1945.33
1944.61
1943.02
1942.04
1941.45
1941.39
1941.88
1943.04
1945.17
1946.84
1945.13
1945.02
1944.12
1943.85
1943.5
1943.56
1944.1
1944.58
1945.63
1945.87
1945.01
1945.16
1944.17
1944.6
1944.15
1944.28
1944.75
1944.45
1945.48
1945.41
1941.92
1944.69
1943.68
1945.3
1945.08
1945.14
1945.35
1943.84
1944.85
1942.12
1935.58
1945.36
1945.75
1947.27
1947.64
1947.68
1947.35
1945.88
1945.49
1935.76
853.892
854.518
855.452
856.554
857.974
859.168
860.972
861.455
863.944
866.341
853.348
853.86
854.498
855.384
856.602
856.984
858.567
860.234
861.7
864.909
852.256
852.639
852.84
853.143
853.35
854.014
857.098
858.277
859.343
860.281
849.917
850.97
850.733
850.601
850.138
850.905
854.504
854.786
855.33
854.645
848.916
850.282
851.497
840.401
840.844
841.456
844.519
843.332
844.451
846.319
835.329
834.335
835.676
840.79
842.49
839.2
839.679
840.618
841.838
846.291
826.796
828.823
828.944
829.505
830.866
832.974
847.311
850.074
849.415
851.163
840.553
837.822
840.73
846.538
847.279
837.488
836.661
838.478
849.561
848.967
804.357
803.704
830.472
844.724
847.221
848.738
838.346
838.755
848.697
848.931
803.113
801.857
801.388
804.96
844.5
852.179
847.336
838.214
838.038
843.658
801.148
800.598
800.943
801.683
819.228
852.827
854.342
850.325
848.604
841.328
839.597
797.517
798.063
798.275
835.719
854.654
855.662
838.174
826.723
827.308
853.909
851.665
815.253
809.257
842.843
851.955
852.847
853.279
843.236
825.291
834.463
834.749
840.905
842.477
845.719
848.482
850.57
852.645
854.822
856.598
761.175
765.103
818.533
835.719
840.119
844.769
848.987
852.148
854.745
856.557
710.954
765.31
822.892
829.027
835.596
840.893
845.34
849.613
852.532
854.897
673.158
740.777
776.62
810.75
825.942
834.021
840.404
845.396
849.636
853.291
573.651
555.875
555.661
635.578
799.724
824.414
833.558
841.253
847.516
852.213
536.864
537.225
539.914
543.92
615.901
777.089
831.809
840.868
847.249
851.809
533.789
535.264
538.866
542.196
545.215
674.089
833.325
844.095
849.422
853.672
533.944
535.729
538.406
540.498
542.349
563.422
818.34
849.535
853.398
856.957
576.359
538.949
539.568
540.235
540.432
540.408
671.362
855.543
858.708
861.117
838.965
843.416
729.294
595.546
539.757
539.025
538.132
681.271
864.357
867.724
781.361
854.549
861.14
845.194
697.915
536.878
536.646
535.057
634.262
798.903
782.492
807.022
869.88
877.654
867.431
770.492
572.632
536.814
539.113
548.557
841.865
845.853
873.337
881.719
869.218
855.671
808.584
670.322
540.245
543.798
865.849
874.915
881.718
886.566
874.43
885.183
900.121
891.561
833.951
707.282
875.183
883.697
890.295
895.269
895.192
901.578
903.92
905.393
905.897
895.906
889.055
897.118
902.861
906.213
907.036
907.211
907.229
906.787
879.83
849.911
884.24
889.921
892.259
896.845
914.915
912.205
909.491
892.367
846.243
844.24
923.878
931.729
928.333
923.522
918.19
913.351
908.912
900.503
868.211
861.854
894.861
923.762
931.798
927.523
923.182
918.635
914.052
910.118
907.493
906.257
520.847
594.386
755.675
873.924
913.129
927.784
924.509
920.249
915.949
913.019
404.945
400.728
398.748
397.309
481.927
738.856
932.992
927.251
914.492
898.601
586.317
569.304
524.728
508.646
429.356
420.048
411.101
401.6
709.08
832.258
961.497
961.31
960.102
934.903
819.426
763.427
663.909
390.126
329.027
350.705
953.817
955.361
955.078
951.392
944.682
935.948
812.262
571.113
312.558
313.17
951.488
954.183
954.185
950.192
942.328
896.413
647.489
606.506
551.115
480.125
961.473
963.066
960.108
954.611
947.011
881.473
584.163
461.238
452.124
444.934
981.01
987.015
983.969
974.271
962.178
950.714
919.632
797.857
611.496
462.847
973.628
996.847
1010.29
1005.18
990.617
978.757
962.686
947.358
930.524
636.783
571.673
755.455
897.342
954.872
951.701
951.654
974.05
959.096
943.217
708.284
255.633
285.822
606.152
754.929
723.497
751.763
971.126
965.143
957.768
827.845
244.882
245.111
472.775
576.866
505.99
642.569
897.25
981.101
974.8
972.263
243.138
269.907
592.29
569.508
314.139
758.898
885.278
983.382
990.659
992.101
257.2
327.208
734.38
754.74
251.415
230
431.958
685.383
979.408
1013.67
345.764
341.038
707.231
829.573
530.984
224.32
212.452
208.465
490.568
1034.32
640.76
341.321
492.373
835.907
809.405
224.965
201.308
202.046
224.194
802.285
954.729
328.005
224.291
792.018
847.05
659.26
191.878
194.869
196.008
668.513
928.288
236.325
48.2798
449.001
837.488
786.97
186.828
188.205
206.763
848.194
607.994
137.956
4.30361
164.188
821.614
844.669
188.915
184.936
686.745
1072.07
52.8734
70.8291
1.64191
77.9067
828.673
839.331
182.288
298.375
829.956
1078.86
0.999115
0.368479
0.278856
31.4628
821.611
810.924
148.473
237.036
768.713
1085.52
0.0455342
-0.00529644
0.00625764
10.2738
773.991
782.546
121.092
233.692
845.044
1090.35
0.0526902
0.0209381
-0.00730003
0.0338391
737.338
739.418
44.7334
204.09
829.341
1068.19
0.107456
0.109957
0.0985939
0.0799918
764.574
742.87
11.0413
145.446
496.296
636.697
0.143114
0.15509
0.162995
0.170813
792.839
784.049
7.62573
46.0255
52.8141
33.7558
0.139733
0.20971
0.169126
0.170219
837.639
840.113
3.78627
2.05534
1.67559
2.3414
0.252857
0.261878
0.141515
3.60401
909.993
906.795
3.5339
0.797063
0.807585
0.864371
0.998748
0.20024
0.0907514
26.3397
970.361
964.437
23.1912
0.628024
0.53833
0.491644
0.58707
-0.0190727
-0.00870883
46.5434
1009.01
1010.53
46.4748
0.408024
0.425415
0.368995
0.027313
-0.0959657
-0.100635
70.0507
1039.69
1033.07
68.4184
0.366778
0.486533
0.434614
-0.104063
-0.100367
-0.144927
89.2298
1071.49
1035.64
87.0867
0.380745
0.33755
0.413035
-0.060124
-0.0516622
-0.0330361
94.7174
1046.68
1088.58
102.052
0.266801
0.326586
0.280928
-0.0266415
-0.0181135
0.0264028
96.7274
1059.94
1105.15
105.979
0.225244
0.42498
0.253748
-0.0326738
-0.0369438
-0.071256
104.005
1113.95
1080.7
97.5344
0.339882
0.414009
0.21403
-0.0308887
0.222562
0.0236092
88.2263
1090.94
1133.54
103.965
0.151602
0.231924
0.311736
-0.0385298
0.381403
-0.0194203
87.6204
1138.5
1129.26
87.8047
0.168552
0.220174
0.540359
0.0392679
0.394821
0.0130279
84.6897
1142.8
1163.67
87.2561
0.144814
0.624051
0.648268
0.502671
0.374932
-0.0168964
88.8069
1189.81
1162.32
83.9335
0.222218
0.971907
1.13778
0.622617
0.484093
0.0217777
93.658
1202.02
1207.62
96.2709
0.214617
0.817684
1.13908
0.625852
0.540753
0.0107477
113.442
1239.58
1235.59
114.219
0.216373
0.522817
1.14223
0.639186
0.505762
0.00724191
131.804
1271.74
1268.25
132.863
0.201246
0.573441
1.12682
0.661156
0.429008
0.0138074
148.993
1301.82
1298.67
150.181
0.18745
0.988664
1.14288
0.68674
0.412044
0.0295047
165.191
1329.1
1328.29
167.073
0.164338
0.903503
1.14252
0.711173
0.379127
0.0435428
180.872
1356.31
1355.95
182.77
0.139268
0.362669
0.763984
0.729759
0.300264
0.0497157
198.924
1384.58
1384.22
200.621
0.129177
0.135012
0.307076
0.71739
0.259904
0.0582279
222.289
1416.69
1413.51
222.49
0.127758
0.129756
0.287902
0.720156
0.337579
0.0508316
253.444
1449.89
1447.84
253.118
0.119532
0.118424
0.187013
0.601047
0.138835
0.0403822
296.905
1485.6
1486.3
297.356
0.107447
0.107804
0.135104
0.723287
0.14942
0.0312702
354.573
1525.1
1522.53
351.398
0.0982508
0.0977301
0.127424
0.748272
0.228973
0.0282318
419.95
1559.3
1561.8
419.185
0.079675
0.150401
0.0881829
0.488498
0.0889598
0.0131026
489.475
1589.98
1597.69
492.254
0.0640416
0.301398
0.0713076
0.0663969
0.0382926
-0.00928852
561.158
1620.63
1626.02
561.774
0.0617372
0.395326
0.128033
0.104499
0.0671928
-0.0158164
628.304
1648.07
1650.97
627.002
0.0778317
0.396135
0.577649
0.192441
0.111134
-0.0135121
686.82
1672.32
1674.42
685.064
0.0762738
0.360413
0.573565
0.197636
0.133008
-0.0130435
742.797
1695.8
1696.86
740.887
0.0817239
0.318904
0.578618
0.200521
0.0518829
-0.0183621
808.691
1718.47
1719.65
806.277
0.0896413
0.283257
0.577146
0.20129
-0.0190845
-0.0235432
896.713
1738.39
1744.55
893.824
0.0838652
0.255015
0.560865
-0.00325333
-0.0263058
-0.0252521
1005.7
1758.92
1768.15
1011.09
0.0539048
0.0598247
0.178246
-0.0184407
-0.0279458
-0.0440115
1178.58
1785.2
1779.3
1087.44
0.041447
0.0429093
0.0409296
0.00710968
-0.0168418
2.05289
1425.98
1800.75
1795.69
1111.58
0.0388172
0.0325442
0.0938368
0.00600772
-0.0171517
85.0933
1490.26
1817.84
1815.46
1490.14
17.7623
0.0320171
0.128896
-0.0143673
-0.0156495
189.138
1628.37
1834.85
1836.27
1664.14
245.954
0.0276805
0.146605
-0.0198352
-0.0222379
343.749
1727.12
1853.64
1855.3
1775.81
486.393
0.0214697
0.0284854
-0.0180428
-0.0215458
696.587
1829.42
1873.05
1873.41
1858.92
859.704
0.00558215
0.00782646
-0.0136323
0.0259149
1254.5
1891.7
1892.54
1892.33
1891.01
1277.97
0.0207928
0.0071342
-0.0215075
240.655
1676.71
1909.64
1910.74
1911.17
1910.73
1706.12
184.274
0.00900654
-0.00404452
1225.03
1927.26
1927.26
1926.88
1926.65
1926.48
1924
1056.73
0.00732273
688.699
1885.68
1938.81
1937.13
1936.55
1936.68
1937.51
1939.51
1883.72
635.658
869.114
871.816
873.55
873.985
870.692
867.506
856.26
847.616
838.424
828.347
817.643
806.852
800.291
791.181
783.577
779.943
778.907
779.035
781.651
786.434
795.662
805.95
816.842
825.445
836.726
838.321
842.88
846.633
851.054
855.397
858.094
859.233
859.771
861.121
863.593
866.443
869.048
867.124
868.516
865.857
867.202
869.359
870.807
872.084
867.524
862.902
852.169
841.6
829.861
818.635
803.165
798.202
785.751
779.01
770.811
767.077
767.021
769.878
774.821
779.356
787.094
798.333
813.47
824.527
830.811
837.636
843.722
848.43
851.57
855.827
857.67
856.956
856.26
857.451
858.361
859.238
860.343
860.612
855.375
853.809
862.313
863.065
863.904
864.255
856.569
849.109
840.756
832.854
814.695
803.76
794.23
781.028
772.696
760.401
761.086
764.307
766.069
767.383
766.888
767.824
777.312
790.721
805.834
818.582
829.952
838.215
844.571
846.942
849.709
852.083
854.845
856.951
857.399
855.928
857.523
860.262
861.722
862.158
855.256
852.181
856.046
857.448
856.836
855.206
846.67
836.821
826.36
828.091
810.368
798.334
789.212
786.194
759.362
743.272
743.302
747.045
743.615
744.922
754.163
765.002
776.806
787.954
799.152
810.195
820.603
830.744
840.201
847.865
854.221
858.319
861.153
861.587
853.506
854.063
853.83
865.732
866.024
863.587
855.79
845.885
853.123
852.987
851.884
849.859
846.385
828.783
820.39
811.221
804.746
795.124
789.08
782.697
768.819
728.509
713.654
720.826
714.058
714.043
716.904
736.414
761.264
783.409
795.562
804.555
813.678
823.813
832.725
842.68
848.951
853.699
854.927
856.472
857.789
856.774
855.065
852.619
837.631
834.846
857.161
840.072
851.914
850.789
849.364
847.418
844.925
836.968
816.815
809.207
800.174
797.613
791.63
786.899
762.427
725.726
719.096
714.061
713.299
714.389
717.385
721.606
725.727
760.039
797.414
807.307
813.155
822.171
830.101
839.359
847.418
849.909
851.771
851.902
855.589
848.091
821.628
802.172
802.625
806.926
852.364
840.146
850.565
849.114
846.547
844.379
845.303
842.703
832.178
810.37
803.62
797.013
799.708
794.944
776.124
731.641
727.071
724.198
722.759
722.593
724.404
727.257
729.907
741.596
800.352
813.915
817.899
824.69
831.994
843.062
849.383
851.499
853.294
855.773
859.698
809.387
789.94
792.53
795.588
796.414
852.009
848.644
848.283
847.197
842.483
842.049
841.014
844.482
843.052
837.669
810.879
804.948
799.992
803.966
798.793
789.037
744.95
730.064
728.954
728.351
729.945
731.557
732.858
763.691
815.369
821.658
823.919
829.651
840.345
848.556
854.247
857.822
859.626
864.486
868.852
824.057
791.814
793.566
792.86
831.588
880.745
859.448
848.573
847.202
842.809
843.099
842.569
843.724
846.23
844.46
841.5
822.695
809.369
807.518
806.236
828.26
821.881
813.016
802.653
742.564
734.498
735.069
783.515
827.454
830.362
829.539
832.652
838.857
848.021
853.758
858.955
858.219
865.851
872.576
873.437
873.087
826.281
809.997
829.113
877.877
880.664
865.225
850.557
850.725
846.32
844.728
845.431
849.75
849.039
847.937
846.535
845.115
834.97
819.643
830.576
839.494
838.108
834.049
830.521
817.351
811.624
820.53
833.38
836.139
838.425
835.755
843.208
850.248
854.79
858.652
860.323
852.327
865.459
872.669
872.949
874.126
869.49
854.648
870.247
876.99
876.761
879.129
829.181
839.542
851.467
851.659
852.006
851.545
850.923
850.135
849.421
848.935
848.315
847.326
847.376
847.234
837.171
834.651
833.344
836.084
843.787
843.028
842.917
843.882
835.391
838.399
851.81
857.504
863.179
867.508
860.136
807.14
852.73
844.265
847.38
856.602
871.706
873.973
873.403
871.881
817.156
830.04
826.931
827.397
852.006
853.184
853.18
852.927
852.461
851.462
845.819
850.969
852.519
853.114
852.676
842.392
841.773
840.811
839.691
844.984
849.139
848.291
848.437
849.381
833.666
829.894
846.879
862.851
868.399
872.433
835.77
787.471
792.951
845.448
859.287
871.659
873.914
823.798
786.974
789.182
787.52
788.996
825.368
825.098
824.523
850.57
853.963
854.6
854.764
841.281
836.051
837.919
854.925
856.066
856.757
854.621
851.784
853.249
854.46
852.514
851.1
850.655
850.508
841.255
822.847
826.066
844.902
867.57
870.87
850.139
766.708
771.384
796.449
875.05
873.452
843.419
828.616
868.344
876.842
881.602
840.433
793.006
837.394
824.026
823.656
822.894
834.542
857.645
857.376
835.187
835.694
835.677
835.033
852.675
857.888
858.153
857.436
856.103
854.49
852.602
839.954
837.129
844.622
834.93
821.468
823.216
858.9
868.094
827.105
749.419
750.179
752.561
832.597
868.766
866.348
842.802
788.395
814.637
852.004
864.401
873.491
851.643
857.645
857.94
830.159
823.436
823.926
824.345
833.085
845.376
839.627
836.665
836.814
836.623
845.017
860.193
858.962
855.044
834.401
832.83
841.726
837.412
825.427
821.944
821.489
789.938
790.638
796.335
738.161
740.381
741.511
767.187
865.082
863.09
859.699
853.999
768.374
738.784
741.37
841.827
870.279
861.247
857.119
858.817
860.203
837.256
824.895
826.086
827.114
841.267
856.795
840.037
839.851
839.874
845.258
865.965
841.13
837.061
833.905
850.579
842.403
806.942
710.979
661.563
754.877
841.817
835.073
756.472
735.283
738.186
802.808
848.36
869.496
828.388
809.602
767.767
746.964
746.239
761.022
844.134
869.477
869.747
856.249
858.864
861.311
863.392
831.825
827.844
828.962
849.469
862.164
845.289
845.176
854.793
852.987
841.181
839.918
846.306
865.202
858.352
771.493
569.012
564.471
640.376
831.893
846.146
848.352
835.699
826.325
846.588
859.07
855.402
816.44
815.166
818.462
828.044
834.554
804.198
831.522
865.043
868.336
872.048
855.858
858.986
861.967
864.633
856.706
830.867
839.535
872.703
870.414
849.147
853.436
851.393
846.563
845.72
858.76
873.981
871.959
855.692
602.139
550.073
551.104
590.793
817.777
850.571
851.998
854.459
854.807
852.666
848.7
841.985
807.815
804.38
812.574
814.723
739.709
728.573
725.999
800.066
849.488
866.335
856.181
860.451
863.789
866.272
868.517
863.038
869.886
875.333
877.661
878.052
857.582
849.532
850.771
860.765
883.119
881.818
879.141
853.177
623.55
545.128
543.549
539.455
583.062
691.364
776.094
789.877
768.402
725.811
673.552
614.403
587.444
645.115
721.495
735.664
718.978
723.707
723.802
750.764
758.698
776.615
858.055
861.949
864.834
867.632
870.474
872.801
874.613
876.511
878.614
880.915
853.791
851.116
856.346
886.89
887.801
888.265
889.759
890.07
831.932
566.502
540.353
537.183
533.338
532.6
539.108
541.553
537.444
527.142
521.644
522.132
522.393
522.68
607.502
708.266
727.697
727.496
731.69
818.177
834.768
820.131
860.254
863.11
865.406
867.818
870.429
872.989
875.088
876.623
878.142
879.845
864.814
853.652
883.698
887.502
888.754
890.127
892.317
895.445
894.205
829.216
630.848
568.255
537.217
534.528
530.594
527.056
524.899
523.667
523.101
523.065
523.685
524.453
525.169
621.211
789.543
827.783
828.75
887.294
889.42
889.611
863.026
864.471
865.787
867.537
869.857
872.121
873.809
874.932
876.13
877.663
879.406
880.706
882.265
884.313
886.634
889.216
892.346
881.715
867.97
865.61
847.539
805.903
749.865
702.87
667.921
643.091
617.785
594.628
571.529
528.566
523.776
524.722
525.451
596.873
762.448
805.372
823.558
892.216
894.819
896.666
868.753
853.682
822.592
792.052
785.419
817.368
845.482
838.52
826.807
833.537
818.95
796.142
822.268
861.254
884.353
888.221
892.319
897.476
880.793
873.364
873.997
873.993
883.417
887.323
892.586
899.232
896.274
888.767
878.004
838.553
736.935
644.934
595.488
620.62
691.26
732.453
809.328
884.428
860.673
900.743
867.58
840.06
804.852
767.437
768.854
768.555
767.361
763.338
758.918
756.11
754.561
756.825
756.67
758.51
764.59
772.278
793.861
884.24
894.053
897.986
894.144
875.324
873.057
874.094
894.276
913.689
916.567
919.576
923.483
927.794
931.251
907.098
782.828
653.531
675.402
752.078
869.72
902.287
871.734
905.664
640.581
825.187
821.189
782.492
781.498
776.327
797.057
822.859
807.074
837.089
778.018
788.67
819.217
794.477
733.123
736.623
738.707
742.371
747.245
764.068
882.215
902.421
870.372
871.44
881.094
912.491
915.638
919.172
923.43
927.733
932.68
843.926
728.462
704.449
783.086
876.708
932.281
912.962
882.032
909.665
541.783
587.84
735.625
857.366
861.963
863.102
868.596
869.778
865.389
861.273
858.909
857.685
858.882
861.592
846.654
871.749
893.638
811.34
747.777
820.761
902.4
906.421
907.381
871.067
870.962
872.198
874.541
898.172
919.435
923.872
858.922
716.459
719.76
808.872
929.225
943.785
940.701
923.479
921.013
922.254
542.066
549.238
550.15
650.36
851.141
879.692
878.31
873.514
857.61
749.587
731.721
696.599
741.673
822.644
864.844
877.868
887.029
893.757
899.097
890.709
895.99
905.033
904.859
875.624
865.28
869.666
901.976
907.141
911.995
918.18
728.146
708.739
731.741
913.337
940.73
944.687
949.857
952.405
952.84
952.565
801.311
716.067
590.576
598.647
699.601
874.966
878.423
874.141
867.558
850.865
624.915
450.654
442.052
459.275
705.719
870.1
884.555
892.834
898.574
902.638
904.895
903.247
889.817
882.327
889.858
890.736
887.122
864.558
896.153
867.033
726.592
766.129
888.028
927.668
927.925
924.88
924.308
920.922
933.347
936.469
850.641
880.334
859.839
793.373
795.383
871.575
878.947
878.232
876.073
873.088
672.2
441.494
438.351
438.399
477.284
798.345
889.486
899.262
904.899
908.121
907.816
900.388
902.977
898.632
871.212
727.278
758.313
864.557
884.397
857.978
866.111
903.22
909.714
908.495
901.719
788.776
623.297
771.842
874.477
899.63
842.023
883.851
891.581
884.782
881.402
878.727
879.241
882.086
884.678
875.341
569.029
440.254
440.084
440.592
442.948
735.99
900.239
910.573
915.918
918.924
920.495
916.196
917.443
894.05
633.005
510.685
779.535
884.899
889.619
888.2
898.495
899.973
900.407
836.716
665.499
505.775
497.095
583.799
827.705
888.732
889.288
894.002
888.455
863.168
775.4
638.965
657.234
727.836
704.428
540.953
437.335
438.805
439.924
441.363
476.723
815.067
915.076
924.029
928.841
930.694
931.949
931.101
927.632
772.421
469.466
478.74
800.606
900.145
900.238
897.307
873.892
713.802
601.101
522.104
506.074
506.576
504.159
767.467
872.525
875.254
904.687
891.099
789.502
535.245
464.97
461.742
456.496
449.497
439.18
438.017
438.459
439.975
441.332
479.492
813.25
924.625
930.72
936.42
940.001
941.116
941.99
940.653
935.158
650.878
459.238
455.679
667.431
906.503
904.318
905.524
659.701
527.921
528.617
527.411
528.424
669.556
929.126
927.35
890.977
891.722
910.64
882.587
833.011
745.12
634.195
530.288
475.293
451.681
438.066
439.623
441.685
464.862
647.958
886.38
933.551
936.13
939.431
943.636
947.005
947.866
948.69
948.76
946.305
672.887
445.136
442.401
444.653
624.981
756.119
803.296
696.85
526.629
698.746
853.623
853.051
939.816
945.11
909.653
876.292
907.422
894.119
892.895
893.791
896.693
893.985
858.108
813.183
779.377
780.012
774.853
796.191
863.744
924.551
934.161
935.197
936.924
940.944
946.339
949.234
950.584
951.989
953.301
947.12
788.621
437.108
434.141
429.76
426.419
428.556
435.294
628.133
733.035
901.248
931.674
937.812
943.257
949.933
900.433
884.86
952.131
770.592
752.485
811.189
859.05
860.811
838.741
843.456
901.098
928.229
931.603
933.572
932.973
931.781
931.464
932.128
934.502
939.429
945.027
948.969
951.83
954.54
957.587
953.947
938.019
660.678
433.695
431.518
429.367
427.789
426.44
548.783
907.808
942.494
944.412
949.57
954.832
960.082
922.27
954.764
960.862
337.513
331.629
451.995
678.871
837.231
856.548
773.068
661.885
656.749
695.578
859.016
928.642
928.114
913.066
876.119
820.274
861.139
923.115
949.99
953.69
957.383
961.172
965.694
970.414
959.184
700.286
530.006
456.355
467.639
515.059
691.567
946.983
961.086
962.355
966.491
970.832
974.16
963.551
970.693
970.795
310.858
307.996
305.703
301.612
634.039
853.224
854.757
852.538
643.989
600.457
621.645
818.316
917.612
805.347
792.608
796.824
801.265
809.089
830.292
889.628
951.261
964.658
968.552
972.067
974.562
940.362
873.397
852.486
875.614
912.216
945.146
970.538
976.954
978.826
981.911
984.972
987.153
975.064
968.14
980.472
439.142
525.532
607.969
646.714
635.609
504.096
641.098
823.922
757.979
583.341
599.082
829.503
919.408
810.468
795.895
799.786
803.311
807.474
832.529
844.275
876.132
941.12
963.405
975.82
951.673
921.909
957.232
984.189
989.428
989.673
989.894
990.238
991.196
992.816
995.027
997.225
998.623
973.186
913.387
972.83
545.762
586.835
525.345
438.855
352.612
362.032
481.934
768.753
674.439
567.399
652.646
877.126
910.133
900.198
813.311
803.528
805.923
883.85
947.256
950.01
942.904
904.945
908.568
912.091
909.553
913.604
928.555
995.43
1000.52
1001.47
1001.86
1002.36
1003.26
1004.61
1006.29
1008.28
1009.78
938.478
876.6
974.44
312.256
405.561
374.397
334.35
336.912
342.449
448.748
462.979
355.032
469.284
594.15
777.102
871.116
881.343
888.37
880.594
925.998
957.483
959.845
962.958
967.009
952.65
932.446
915.833
915.775
920.857
951.24
1008.56
1010.96
1011.92
1012.33
1012.37
1012.94
1014.44
1016.31
1018.46
1020.01
854.121
844.791
987.29
241.997
211.722
274.314
425.646
432.1
428.938
291.622
243.913
255.826
263.039
481.259
703.555
789.962
818.362
843.787
956.081
957.906
957.638
958.919
962.051
966.924
973.377
980.387
970.944
949.478
961.654
1001.81
1020.39
1022.11
1021.49
1020.03
1019.05
1016.46
1022.52
1025.41
1028.45
1029.51
764.976
832.139
1002.95
209.986
206.007
206.353
366.442
423.701
222.795
219.881
228.165
343.08
676.895
780.405
830.225
867.782
902.336
903.199
957.746
953.811
950.181
949.382
953.875
960.541
969.13
965.675
932.334
957.781
1022.47
1030.53
1033.33
1034.78
975.796
887.123
824.775
787.925
768.093
810.282
849.566
1016.62
750.836
850.18
999.326
294.834
204.575
203.638
203.951
203.198
203.284
207.613
604.345
946.059
955.352
956.329
953.348
946.232
938.39
929.96
899.229
768.089
648.915
543.429
561.696
659.022
651.737
875.954
955.383
1005.44
1031.71
1043.85
1038.24
964.909
957.315
956.758
842.081
719.485
720.745
724.256
728.747
740.314
748.851
866.534
1000.66
632.719
203.022
201.761
200.89
200.344
199.349
197.81
474.044
887.904
960.616
960.451
951.379
895.128
731.077
390.997
246.726
187.195
158.57
154.36
175.498
323.128
814.524
985.412
998.869
1011.81
1020.38
1026.44
1033.39
991.495
997.763
1038.62
1020.69
806.102
721.191
725.529
730.032
801.93
957.282
966.419
1016.23
985.056
540.061
199.766
198.997
198.468
197.375
195.834
203.18
233.393
627.196
900.094
786.579
269.528
142.541
142.216
141.949
142.211
142.758
144.166
149.138
469.668
982.07
991.09
994.69
998.836
995.757
954.503
919.701
976.572
1008.21
1019.15
1027.01
927.105
811.691
923.413
1007.91
1033.29
1050.56
1047.24
1047.19
1015.91
1002.08
518.081
198.281
197.711
196.642
194.773
192.35
189.964
189.319
300.221
325.179
142.494
142.428
142.444
142.415
142.505
142.502
142.601
144.848
490.738
1003.49
1009.39
1004
921.064
541.701
296.159
282.181
654.891
988.158
1006.86
1017.34
1014.68
1021.38
1037.31
1041.75
979.613
892.635
946.907
1038.61
1033.77
1031.84
1025.71
627.615
205.58
196.236
194.118
191.801
189.307
188.537
197.38
207.586
144.519
143.927
143.539
143.32
143.226
143.162
143.124
143.781
296.048
627.242
735.236
566.506
292.147
168.012
164.669
170.158
382.692
944.562
1007.71
1015.81
1019.19
1021
1023.97
1029.95
965.349
751.39
716.867
924.849
1049.05
1049.75
1046.23
1042.82
1032.22
626.955
270.122
213.431
203.801
273.538
197.228
146.108
145.474
144.954
144.974
144.636
144.357
143.808
143.579
143.328
147.457
152.595
161.083
160.913
166.512
171.586
168.351
273.194
806.88
1011.04
1014.11
1013.08
1016.76
1017.06
1018.31
1023.62
1004.2
951.533
707.173
656.822
1061.66
1063.84
1061.39
1059
1055.32
1051.71
1048.4
1045.15
862.157
362.646
145.277
145.556
145.474
145.216
144.996
144.768
144.411
144.121
143.864
143.415
143.073
143.639
144.726
145.721
207.376
327.064
581.251
898.372
1022.4
1022.21
1021.55
1019.98
1018.1
1018.59
1004.88
941.604
975.298
996.618
1002.72
655.846
1073.18
1074.9
1055.51
984.524
1029.84
1064.54
1064.32
1064.8
1063.2
923.159
363.864
145.676
145.479
145.103
144.881
144.745
144.594
144.283
143.806
143.234
142.489
218.718
351.147
596.304
805.507
955.053
1026.99
1038.31
1034.36
1031.08
1028.05
1024.79
1022.14
988.336
923.167
927.568
934.594
997.403
1000.9
751.337
1079.05
1080.64
991.69
959.158
956.891
1057.59
1073.31
1074.55
1076.04
1074.96
988.186
672.237
507.905
473.517
433.799
371.897
340.462
344.242
450.822
594.786
767.661
887.685
973.4
995.28
997.608
993.555
986.435
1000.84
1020.94
1023.12
971.134
940.349
936.591
934.883
975.116
977.352
960.129
907.793
955.748
743.8
1083.24
1085.25
1085.58
1048.59
957.04
957.147
958.131
1072.03
1081.08
1082.45
1082.75
1081.89
1073.19
1067.37
1048.38
1012.45
997.352
1026.2
1063.74
1080.35
1081.82
1078.85
1061.84
968.169
946.631
943.821
940.415
937.283
934.221
955.989
1005.42
1001.37
983.698
973.557
975.477
970.42
948.926
696.252
848.465
848.913
1090.21
1092.14
1090.58
1088.16
1075.34
1052.33
1059
1046.65
981.749
1057.6
1083.78
1085.05
1086.34
1087.82
1088.44
1071.59
1041.12
1084.95
1085.29
1084.18
1082.26
1080.07
1071.97
968.565
949.735
953.499
955.871
968.004
999.877
1016.77
1016.99
1013.3
873.238
425.4
423.826
502.739
480.388
428.676
644.673
841.794
1096.04
1091.91
1087.78
1085.52
1082.48
1079.88
1079.07
1055.42
972.883
972.496
1031.18
1085.27
1087.62
1089.75
1091.02
1080.5
1042.53
1040.74
1051.46
1082.02
1080.48
1078.65
1076.82
1069.57
1062.76
1059.42
1052.74
1025.98
1030.25
1040.94
1046.01
799.745
409.156
389.235
490.348
478.524
203.289
164.429
279.252
504.893
1087.16
1049.33
969.691
918.152
874.099
867.288
844.258
903.494
1034.53
1067.72
1074.26
1083.61
1086.73
1089.99
1092.55
1093.67
1088.42
1069.97
1066.19
1080.42
1080.93
1075.83
1066.35
1033.26
1056.98
1033.76
798.978
590.429
338.303
525.302
648.747
431.293
220.651
203.246
381.229
259.194
197.714
157.74
159.797
196.399
642.971
406.599
290.853
211.827
186.809
269.688
392.576
498.822
580.088
680.621
822.816
939.474
1025.53
1088.06
1096.87
1099.55
1094.42
1080.9
1063.9
1076.35
1054.31
886.068
545.817
364.428
299.178
39.194
37.4839
91.1767
57.3854
32.4399
46.3878
44.9947
41.4021
3.12923
1.5369
1.41482
93.6154
160.169
159.848
169.015
33.6841
6.73391
3.89564
5.34666
1.76922
0.186345
0.180659
0.210499
0.257901
0.327955
2.11739
49.8806
190.065
502.3
800.624
868.651
765.045
558.039
383.712
236.043
82.2073
19.3963
17.0713
25.0913
26.0185
57.5272
83.2965
81.617
22.6208
16.4138
14.4178
35.6236
18.5886
9.50351
0.697615
0.640555
0.562021
0.563192
0.569411
0.569548
1.71332
2.05722
0.864133
0.657964
1.64785
0.593447
0.243849
0.291757
0.334423
0.366552
0.403704
2.53756
28.7851
51.8159
43.3228
14.2745
14.4972
15.4248
29.6394
44.0213
53.2033
24.3591
5.91106
4.20678
38.869
85.229
87.8505
83.816
41.6195
21.0479
13.9591
1.31908
0.325031
0.408468
0.493971
0.563237
0.629131
0.533896
0.547954
0.558042
0.676529
0.549055
0.444544
0.429302
0.612332
1.0598
1.5887
1.60316
1.53829
0.532666
0.486931
0.508265
0.496575
0.442878
0.419916
4.52674
31.9035
32.9727
33.1714
23.6172
3.24374
2.47569
4.22923
3.41921
2.74593
0.671647
4.75437
2.90185
0.233378
0.259908
0.29934
0.317701
0.320947
0.351754
0.894965
1.03831
1.02857
0.740447
0.528378
0.969328
0.436621
0.405964
0.406478
0.432145
1.18386
1.71008
1.69735
1.68813
1.68795
1.69662
1.68559
1.02559
0.366867
0.318477
0.216384
0.0409717
1.56533
2.3812
1.97346
0.210683
0.247202
0.258743
0.267822
0.302675
0.173555
0.169462
0.193033
0.230112
0.305766
0.681665
0.741864
0.771567
0.377721
0.331318
0.341756
0.781444
1.04787
1.07391
0.842529
1.13267
0.355715
0.363502
0.381259
1.15415
1.72961
1.7059
1.19622
0.8551
1.70023
1.68805
1.65411
1.6278
1.27943
0.225161
0.0868119
-0.0202897
-0.105722
-0.107361
-0.0349562
0.640847
0.960451
0.563057
0.297428
0.252769
0.438684
0.646787
0.665355
0.371583
0.288061
0.269371
0.257764
0.276732
0.294332
0.308038
0.318978
0.328197
0.743759
1.10737
1.12888
1.13673
0.332368
0.337923
0.349767
1.06828
1.45313
0.859742
0.552161
0.521146
0.481947
0.986562
1.65445
1.6016
0.979399
0.14496
0.091791
0.0612711
0.042769
0.0436093
0.0680088
0.102154
0.89075
0.967656
0.961151
0.311913
0.176128
0.167672
0.465836
0.811666
0.839971
0.8653
0.480869
0.271875
0.287661
0.304546
0.318249
0.330134
0.340955
0.741832
0.743727
1.14217
0.318375
0.315081
0.354894
0.441705
0.45047
0.457578
0.946588
0.514849
0.473039