/*--------------------------------*- C++ -*----------------------------------*\
  =========                 |
  \\      /  F ield         | OpenFOAM: The Open Source CFD Toolbox
   \\    /   O peration     | Website:  https://openfoam.org
    \\  /    A nd           | Version:  8
     \\/     M anipulation  |
\*---------------------------------------------------------------------------*/
FoamFile
{
    version     2.0;
    format      ascii;
    class       surfaceScalarField;
    location    "4.3";
    object      phi;
}
// * * * * * * * * * * * * * * * * * * * * * * * * * * * * * * * * * * * * * //

dimensions      [0 3 -1 0 0 0 0];

internalField   nonuniform List<scalar> 
18095
(
1.97413e-08
-1.71989e-07
1.52248e-07
2.31899e-08
-1.97917e-07
1.94468e-07
2.03765e-08
-2.06135e-07
2.08948e-07
1.2576e-08
-2.11228e-07
2.19028e-07
1.89032e-09
-2.13597e-07
2.24282e-07
-9.38502e-09
-2.13396e-07
2.24671e-07
-1.92843e-08
-2.10092e-07
2.19991e-07
-2.30944e-08
-2.05533e-07
2.09343e-07
-1.97136e-08
-1.98029e-07
1.94648e-07
-1.72086e-07
1.52372e-07
1.55279e-08
-1.87517e-07
1.58414e-08
-1.9823e-07
1.16696e-08
-2.01963e-07
5.75323e-09
-2.05311e-07
-1.12396e-09
-2.06719e-07
-7.57962e-09
-2.0694e-07
-1.25063e-08
-2.05165e-07
-1.57653e-08
-2.02274e-07
-1.54819e-08
-1.98312e-07
-1.87568e-07
6.84106e-09
-1.94358e-07
8.36922e-09
-1.99758e-07
7.41362e-09
-2.01008e-07
4.38612e-09
-2.02284e-07
3.43338e-10
-2.02677e-07
-3.74011e-09
-2.02857e-07
-6.96746e-09
-2.01938e-07
-8.28754e-09
-2.00954e-07
-6.81823e-09
-1.99781e-07
-1.94386e-07
4.55711e-09
-1.98915e-07
4.72271e-09
-1.99924e-07
3.62232e-09
-1.99907e-07
1.81461e-09
-2.00476e-07
-1.29613e-10
-2.00732e-07
-2.14688e-09
-2.0084e-07
-3.72034e-09
-2.00364e-07
-4.7148e-09
-1.9996e-07
-4.537e-09
-1.99959e-07
-1.98923e-07
1.08499e-09
1.1612e-09
1.25397e-09
7.77874e-10
4.5406e-11
-7.94108e-10
-1.15849e-09
-1.11808e-09
-1.07724e-09
-2.73862e-08
-1.96711e-07
2.24097e-07
-2.98211e-08
-1.99132e-07
2.01567e-07
-2.4647e-08
-2.01657e-07
1.96483e-07
-1.30694e-08
-2.01829e-07
1.90251e-07
9.78055e-10
-2.02101e-07
1.88054e-07
1.44648e-08
-2.01632e-07
1.88145e-07
2.49294e-08
-2.00722e-07
1.90258e-07
2.98645e-08
-2.01074e-07
1.96139e-07
2.72693e-08
-1.98761e-07
2.01356e-07
-1.96382e-07
2.23651e-07
-9.67225e-09
-1.87038e-07
-1.51597e-08
-1.93645e-07
-1.38604e-08
-2.02956e-07
-6.91764e-09
-2.08771e-07
-2.62549e-10
-2.08756e-07
6.41496e-09
-2.08309e-07
1.40553e-08
-2.08363e-07
1.54525e-08
-2.02471e-07
9.74049e-09
-1.93049e-07
-1.86641e-07
-1.07272e-08
-1.76311e-07
-8.70414e-09
-1.95668e-07
-6.6137e-09
-2.05047e-07
-5.26473e-09
-2.1012e-07
-1.22303e-09
-2.12798e-07
3.07814e-09
-2.12611e-07
5.36081e-09
-2.10645e-07
8.11825e-09
-2.05229e-07
1.04909e-08
-1.95422e-07
-1.7615e-07
-6.73648e-09
-1.69575e-07
-9.09747e-09
-1.93307e-07
-8.60812e-09
-2.05536e-07
-3.59798e-09
-2.15131e-07
4.41506e-10
-2.16837e-07
4.44847e-09
-2.16617e-07
8.66068e-09
-2.14858e-07
8.52149e-09
-2.05089e-07
6.45174e-09
-1.93352e-07
-1.69698e-07
-1.7327e-08
-1.61657e-08
-1.27534e-08
-8.85565e-09
-1.41064e-09
6.64308e-09
1.17766e-08
1.60303e-08
1.73264e-08
2.73889e-08
-1.59104e-07
1.31715e-07
3.24675e-08
-1.99368e-07
1.94289e-07
2.38033e-08
-2.10638e-07
2.19302e-07
9.12477e-09
-2.16022e-07
2.30701e-07
-7.40217e-09
-2.17121e-07
2.33648e-07
-2.3854e-08
-2.17035e-07
2.33487e-07
-3.59502e-08
-2.15447e-07
2.27544e-07
-4.10923e-08
-2.10131e-07
2.15273e-07
-3.42211e-08
-1.98305e-07
1.91433e-07
-1.56829e-07
1.22608e-07
1.55882e-08
-1.74692e-07
1.83972e-08
-2.02177e-07
1.50972e-08
-2.07338e-07
7.15373e-09
-2.08079e-07
-1.91084e-09
-2.08057e-07
-1.0528e-08
-2.08418e-07
-1.68044e-08
-2.09171e-07
-1.98622e-08
-2.07073e-07
-1.70471e-08
-2.0112e-07
-1.73876e-07
9.64396e-09
-1.84336e-07
8.82337e-09
-2.01356e-07
7.20241e-09
-2.05717e-07
3.73574e-09
-2.04612e-07
3.44881e-10
-2.04666e-07
-3.4551e-09
-2.04618e-07
-8.21053e-09
-2.04416e-07
-9.7206e-09
-2.05563e-07
-9.97124e-09
-2.00869e-07
-1.83847e-07
7.17735e-09
-1.91514e-07
5.46286e-09
-1.99642e-07
5.7522e-09
-2.06007e-07
1.03964e-10
-1.98964e-07
-1.60467e-09
-2.02957e-07
-2.96746e-09
-2.03255e-07
-6.94626e-09
-2.00437e-07
-6.2498e-09
-2.06259e-07
-7.46259e-09
-1.99656e-07
-1.9131e-07
3.25832e-08
3.45086e-08
2.49848e-08
1.62719e-08
1.36826e-09
-1.37414e-08
-2.39205e-08
-3.4041e-08
-3.23411e-08
2.89475e-07
-1.7911e-09
-2.87684e-07
2.91995e-07
-2.51968e-09
2.93132e-07
-1.13764e-09
2.89289e-07
3.84275e-09
2.70669e-07
1.86206e-08
2.39233e-07
3.14355e-08
2.06669e-07
3.25644e-08
1.80025e-07
2.66443e-08
1.60479e-07
1.95453e-08
2.00947e-08
1.40385e-07
3.06129e-07
2.9977e-09
-3.10918e-07
3.00841e-07
2.76844e-09
2.92162e-07
7.54115e-09
2.76278e-07
1.9727e-08
2.60031e-07
3.48665e-08
2.4964e-07
4.1827e-08
2.39242e-07
4.29622e-08
2.20704e-07
4.51828e-08
1.96678e-07
4.35712e-08
5.52501e-08
1.61522e-07
2.71697e-07
1.69418e-08
-2.85641e-07
2.59235e-07
1.52296e-08
2.52695e-07
1.40809e-08
2.46074e-07
2.63484e-08
2.30837e-07
5.01033e-08
2.25448e-07
4.72162e-08
2.25275e-07
4.31345e-08
2.24061e-07
4.6397e-08
2.04222e-07
6.34107e-08
1.02788e-07
1.56684e-07
2.11057e-07
1.61061e-08
-2.10222e-07
2.12195e-07
1.40912e-08
2.22366e-07
3.91034e-09
2.32488e-07
1.62264e-08
2.22959e-07
5.96323e-08
2.24525e-07
4.56502e-08
2.26664e-07
4.09947e-08
2.1304e-07
6.00209e-08
1.72271e-07
1.0418e-07
1.3739e-07
1.37669e-07
1.62733e-07
1.11944e-08
-1.57821e-07
1.28735e-07
4.80885e-08
1.09531e-07
2.31139e-08
1.11897e-07
1.38608e-08
1.44297e-07
2.72323e-08
1.51843e-07
3.81038e-08
1.48798e-07
4.40402e-08
1.3462e-07
7.41985e-08
1.25805e-07
1.12995e-07
1.22796e-07
1.40399e-07
4.16412e-08
4.68169e-08
-7.72637e-08
-2.68904e-09
9.24185e-08
-3.28333e-08
5.32582e-08
-4.29889e-08
2.40164e-08
-1.4425e-08
-1.33176e-09
1.29812e-08
1.06976e-08
4.73062e-08
9.71531e-09
8.28396e-08
3.86651e-08
1.23045e-07
7.27899e-08
8.55365e-08
1.60305e-07
-6.8363e-08
4.58903e-08
6.92895e-08
-2.16554e-08
4.57108e-08
7.47504e-09
2.41278e-08
2.94821e-08
2.00926e-09
4.5414e-08
-1.72635e-08
7.13206e-08
-1.5209e-08
9.64359e-08
-1.54e-08
1.31207e-07
3.89363e-09
1.65733e-07
3.82647e-08
5.8517e-08
1.92752e-07
-3.25282e-08
6.19296e-08
1.64889e-08
-1.99816e-08
3.31643e-08
1.6125e-08
-1.19789e-08
4.60243e-08
-2.78901e-08
6.54659e-08
-3.67051e-08
9.89021e-08
-4.86452e-08
1.27815e-07
-4.43128e-08
1.27171e-07
4.53746e-09
1.38889e-07
2.65466e-08
3.82129e-08
1.59193e-07
1.65159e-07
8.10244e-08
-1.84254e-07
1.37449e-07
6.08749e-08
1.15876e-07
9.59414e-09
1.11607e-07
-2.36209e-08
1.21442e-07
-4.65404e-08
1.29336e-07
-5.65386e-08
1.07816e-07
-2.27931e-08
8.56781e-08
2.66752e-08
7.86112e-08
3.36135e-08
2.55914e-08
9.12327e-08
3.53246e-07
7.99744e-08
-3.52196e-07
3.37618e-07
7.65035e-08
2.89391e-07
5.78207e-08
2.41722e-07
2.40484e-08
1.93864e-07
1.31699e-09
1.40894e-07
-3.56793e-09
1.00385e-07
1.77156e-08
9.69898e-08
3.00704e-08
1.01655e-07
2.89482e-08
2.81358e-08
9.91107e-08
3.47073e-07
8.12576e-08
-3.48356e-07
3.35511e-07
8.80659e-08
3.11106e-07
8.22254e-08
2.70296e-07
6.48576e-08
2.19688e-07
5.19253e-08
1.71773e-07
4.43473e-08
1.4531e-07
4.41777e-08
1.3878e-07
3.66007e-08
1.26195e-07
4.15336e-08
4.82009e-08
1.06129e-07
3.78432e-07
8.43117e-08
-3.81486e-07
3.7529e-07
9.12076e-08
3.76106e-07
8.14097e-08
3.54868e-07
8.6096e-08
3.22375e-07
8.44179e-08
2.8601e-07
8.07127e-08
2.49355e-07
8.08328e-08
2.18638e-07
6.73173e-08
1.93729e-07
6.64429e-08
7.14773e-08
1.70453e-07
5.45936e-07
8.36199e-08
-5.45244e-07
5.33037e-07
1.04106e-07
5.0109e-07
1.13357e-07
4.80199e-07
1.06988e-07
4.53667e-07
1.10949e-07
4.2136e-07
1.1302e-07
3.94963e-07
1.0723e-07
3.68087e-07
9.41935e-08
3.49311e-07
8.52185e-08
8.26782e-08
3.38111e-07
6.4394e-07
1.34948e-07
-6.95268e-07
5.97316e-07
1.5073e-07
5.70222e-07
1.40451e-07
5.45509e-07
1.31701e-07
5.3002e-07
1.26438e-07
5.20113e-07
1.22927e-07
4.99733e-07
1.27609e-07
4.61245e-07
1.32682e-07
4.22703e-07
1.23761e-07
1.10112e-07
3.95269e-07
7.15444e-07
1.59351e-07
-7.39847e-07
6.90929e-07
1.75245e-07
6.66512e-07
1.64867e-07
6.45866e-07
1.52347e-07
6.18783e-07
1.53522e-07
5.77188e-07
1.64522e-07
5.32443e-07
1.72354e-07
4.86772e-07
1.78353e-07
4.35759e-07
1.74774e-07
1.53568e-07
3.92303e-07
7.34963e-07
1.43063e-07
-7.18675e-07
7.55006e-07
1.55203e-07
7.42379e-07
1.77494e-07
7.1556e-07
1.79166e-07
6.73693e-07
1.95389e-07
6.16146e-07
2.22069e-07
5.54298e-07
2.34203e-07
5.00254e-07
2.32397e-07
4.57891e-07
2.17136e-07
1.96835e-07
4.14624e-07
7.33635e-07
8.89609e-08
-6.79533e-07
7.41522e-07
1.47315e-07
6.79021e-07
2.39995e-07
6.02668e-07
2.55519e-07
5.42246e-07
2.55811e-07
4.97605e-07
2.66709e-07
4.62716e-07
2.69092e-07
4.40944e-07
2.54168e-07
4.29135e-07
2.28946e-07
2.12462e-07
4.13508e-07
5.97872e-07
1.18908e-07
-6.27819e-07
5.51111e-07
1.94075e-07
4.84551e-07
3.06555e-07
4.09664e-07
3.30406e-07
3.65047e-07
3.00428e-07
3.63824e-07
2.67932e-07
3.75422e-07
2.57494e-07
3.84474e-07
2.45116e-07
3.83509e-07
2.2991e-07
2.15015e-07
3.80957e-07
3.39935e-07
1.36141e-07
-3.57168e-07
2.91907e-07
2.42103e-07
2.8602e-07
3.12442e-07
2.76285e-07
3.40142e-07
2.54526e-07
3.22187e-07
2.62323e-07
2.60135e-07
2.81809e-07
2.38008e-07
3.00716e-07
2.26209e-07
3.16468e-07
2.14157e-07
2.06131e-07
3.25353e-07
1.78806e-07
9.16702e-08
-1.34335e-07
2.05282e-07
2.15627e-07
2.29656e-07
2.88068e-07
2.40505e-07
3.29292e-07
2.17082e-07
3.4561e-07
1.61647e-07
3.1557e-07
1.55064e-07
2.44591e-07
1.7298e-07
2.08293e-07
1.91224e-07
1.95914e-07
1.93821e-07
2.03534e-07
-1.53657e-07
3.61194e-08
2.09208e-07
-2.97824e-08
9.17522e-08
6.50965e-08
1.93189e-07
1.13338e-07
2.8105e-07
1.13019e-07
3.45929e-07
7.91237e-08
3.49466e-07
7.79863e-08
2.45729e-07
9.08406e-08
1.95439e-07
1.06743e-07
1.80011e-07
1.66457e-07
1.34107e-07
-1.6464e-07
4.19916e-08
1.58768e-07
-8.60238e-08
1.31359e-08
2.56383e-08
8.15269e-08
1.10119e-07
1.96569e-07
1.19948e-07
3.361e-07
1.20402e-07
3.49012e-07
8.75441e-08
2.78586e-07
7.63332e-08
2.0665e-07
7.23601e-08
1.83985e-07
1.51954e-07
8.68633e-08
-1.07656e-07
7.18828e-08
7.77647e-08
-1.39968e-07
4.54473e-08
-1.06108e-07
4.76671e-08
1.51157e-08
7.53455e-08
1.46691e-07
2.04525e-07
2.12051e-07
2.83652e-07
1.99879e-07
2.90759e-07
1.27072e-07
2.79457e-07
7.3039e-08
2.38017e-07
1.7235e-07
5.26427e-08
4.82767e-08
1.36281e-07
-1.12674e-07
-1.39074e-08
1.07631e-07
-3.95506e-08
7.33101e-08
-1.98296e-08
5.56245e-08
9.25495e-08
9.21454e-08
1.98999e-07
1.77203e-07
2.61879e-07
2.27879e-07
2.29914e-07
3.11421e-07
1.44373e-07
3.23559e-07
2.58683e-07
5.80397e-08
2.87821e-07
1.95371e-07
-3.46912e-07
2.27573e-07
1.6788e-07
1.47326e-07
1.53557e-07
8.47742e-08
1.18176e-07
7.74908e-08
9.94286e-08
1.41531e-07
1.13162e-07
1.79283e-07
1.90127e-07
2.06794e-07
2.83911e-07
2.40049e-07
2.90304e-07
2.96375e-07
2.02356e-07
3.49558e-07
2.19198e-07
-3.73385e-07
3.17993e-07
1.99446e-07
2.86094e-07
1.85455e-07
2.36678e-07
1.67593e-07
1.88848e-07
1.47259e-07
1.57094e-07
1.44916e-07
1.76644e-07
1.70577e-07
2.27009e-07
2.33546e-07
2.53e-07
2.64312e-07
2.64209e-07
2.85166e-07
3.15109e-07
2.23397e-07
-3.19308e-07
3.09511e-07
2.05043e-07
3.01727e-07
1.93239e-07
2.90764e-07
1.78556e-07
2.68783e-07
1.6924e-07
2.40826e-07
1.72872e-07
2.29172e-07
1.82231e-07
2.5431e-07
2.08408e-07
2.96149e-07
2.22473e-07
2.60264e-07
3.00095e-07
2.08475e-07
1.922e-07
-1.77278e-07
2.43238e-07
1.70281e-07
2.73002e-07
1.63475e-07
2.94904e-07
1.56653e-07
3.10344e-07
1.538e-07
3.251e-07
1.58116e-07
3.42287e-07
1.65044e-07
3.71661e-07
1.79033e-07
4.0246e-07
1.91675e-07
2.19623e-07
4.43101e-07
1.10973e-07
1.41059e-07
-5.98319e-08
1.51857e-07
1.29397e-07
2.11585e-07
1.03747e-07
2.72556e-07
9.56823e-08
3.27013e-07
9.93434e-08
3.76546e-07
1.08583e-07
4.21499e-07
1.20091e-07
4.61481e-07
1.39052e-07
4.95776e-07
1.57379e-07
1.81474e-07
5.33925e-07
-7.58729e-08
6.06128e-08
1.56319e-07
3.64097e-08
1.71147e-08
1.38578e-07
1.5789e-09
2.31209e-07
3.05133e-09
3.00597e-07
2.99557e-08
3.56577e-07
5.2602e-08
4.03508e-07
7.316e-08
4.4634e-07
9.62191e-08
4.83932e-07
1.19787e-07
1.50625e-07
5.14781e-07
-1.68936e-07
-4.75679e-08
2.77117e-07
-8.30369e-08
-6.87845e-08
-1.78192e-08
-6.36386e-08
3.8834e-08
-5.36017e-08
9.76436e-08
-2.88539e-08
1.55261e-07
-5.01522e-09
2.06808e-07
2.1612e-08
2.52874e-07
5.01534e-08
2.92757e-07
7.9904e-08
1.13689e-07
3.29692e-07
-2.58736e-07
-1.0543e-07
3.16598e-07
-2.04727e-07
-1.22793e-07
-1.77402e-07
-9.09632e-08
-1.58389e-07
-7.26152e-08
-1.23359e-07
-6.38831e-08
-7.54368e-08
-5.29376e-08
-2.59265e-08
-2.78984e-08
1.52933e-08
8.93358e-09
6.0676e-08
3.45212e-08
5.75135e-08
1.16852e-07
-1.43908e-07
-1.56313e-07
1.94792e-07
-1.25171e-07
-1.4153e-07
-1.69408e-07
-4.67263e-08
-1.98022e-07
-4.40013e-08
-2.05564e-07
-5.63409e-08
-1.93898e-07
-6.4604e-08
-1.67068e-07
-5.47284e-08
-1.36076e-07
-2.20586e-08
-1.01409e-07
-1.45309e-10
2.81927e-08
-7.20886e-08
-2.18469e-08
-2.25609e-07
9.11434e-08
3.81752e-08
-2.01552e-07
9.11192e-08
-9.96701e-08
1.28211e-07
-8.10926e-08
1.12528e-07
-4.06582e-08
-3.96429e-09
5.18879e-08
-1.29884e-07
7.11916e-08
-1.88884e-07
3.69413e-08
-1.97251e-07
8.22135e-09
-1.13889e-08
-1.5767e-07
-1.99509e-07
-3.0667e-07
2.80569e-07
-1.17037e-07
-2.84023e-07
1.61448e-08
-2.32852e-07
1.91959e-07
-2.56906e-07
3.4134e-07
-1.9004e-07
4.44441e-07
-5.12129e-08
4.79986e-07
3.56462e-08
3.08059e-07
2.08867e-07
8.33562e-08
2.32925e-07
6.29037e-08
9.06373e-09
-2.95187e-07
-3.1326e-07
3.01778e-07
-2.63405e-07
-3.15805e-07
-1.687e-07
-3.27557e-07
-8.08962e-08
-3.4471e-07
3.66649e-08
-3.07601e-07
2.24668e-07
-2.39216e-07
4.36651e-07
-1.76337e-07
5.93275e-07
5.22433e-08
5.38079e-07
2.88121e-07
2.30548e-07
3.70434e-07
-3.33595e-07
-3.58302e-07
3.78636e-07
-2.95842e-07
-3.53558e-07
-2.5304e-07
-3.70359e-07
-2.03935e-07
-3.93816e-07
-1.26369e-07
-3.85167e-07
-2.71412e-08
-3.38445e-07
5.0135e-08
-2.53613e-07
1.91545e-07
-8.91665e-08
2.95188e-07
1.84479e-07
9.15335e-08
4.34201e-07
-3.75899e-07
-4.24774e-07
4.42371e-07
-3.26716e-07
-4.02741e-07
-2.85977e-07
-4.11098e-07
-2.43062e-07
-4.3673e-07
-1.90644e-07
-4.37584e-07
-1.13587e-07
-4.15502e-07
-3.1808e-08
-3.35392e-07
7.36649e-08
-1.94639e-07
2.03066e-07
5.50781e-08
6.1417e-08
2.33182e-07
-4.66067e-07
-5.26895e-07
5.68188e-07
-4.01166e-07
-4.67642e-07
-3.5598e-07
-4.56283e-07
-3.27599e-07
-4.65111e-07
-2.9634e-07
-4.68844e-07
-2.4403e-07
-4.67811e-07
-1.3731e-07
-4.42113e-07
-3.7993e-09
-3.28151e-07
2.32663e-07
-1.81385e-07
-1.41895e-08
3.0827e-07
-5.24407e-07
-7.14079e-07
7.11591e-07
-4.04439e-07
-5.8761e-07
-3.33306e-07
-5.27416e-07
-3.24022e-07
-4.74394e-07
-3.33551e-07
-4.59315e-07
-3.29916e-07
-4.71446e-07
-3.09326e-07
-4.62703e-07
-2.19109e-07
-4.18369e-07
-2.99294e-08
-3.70564e-07
-2.33328e-07
1.89208e-07
-6.96428e-07
-8.91958e-07
8.74306e-07
-4.4737e-07
-8.36668e-07
-2.53205e-07
-7.21581e-07
-2.08678e-07
-5.18922e-07
-2.68369e-07
-3.99623e-07
-3.35709e-07
-4.04106e-07
-3.69211e-07
-4.29201e-07
-3.63753e-07
-4.23827e-07
-3.24471e-07
-4.09846e-07
-3.58749e-07
-1.9905e-07
-8.37937e-07
-9.90099e-07
9.36079e-07
-6.12032e-07
-1.06257e-06
-3.34651e-07
-9.98962e-07
-8.79846e-08
-7.65589e-07
-1.24893e-07
-3.62715e-07
-3.02265e-07
-2.26734e-07
-3.87205e-07
-3.44261e-07
-4.24994e-07
-3.86038e-07
-4.36218e-07
-3.98621e-07
-3.79112e-07
-4.15855e-07
-6.31743e-07
-9.63184e-07
6.04827e-07
-5.63948e-07
-1.13037e-06
-4.06243e-07
-1.15667e-06
-1.5691e-07
-1.01492e-06
-1.25187e-07
-3.94438e-07
-3.94438e-07
4.25166e-08
-4.91916e-07
-2.46783e-07
-5.26415e-07
-3.51539e-07
-5.5339e-07
-3.71646e-07
-3.62277e-07
-5.70225e-07
-3.97003e-07
-8.97085e-07
3.30905e-07
-3.73732e-07
-1.15364e-06
-3.36747e-07
-1.19365e-06
-2.6492e-07
-1.08675e-06
-2.68376e-07
-3.90982e-07
-3.29808e-07
1.03949e-07
-5.04717e-07
-7.18749e-08
-5.90525e-07
-2.6573e-07
-6.43094e-07
-3.19077e-07
-3.33639e-07
-6.71733e-07
-4.40071e-07
-7.30236e-07
2.7322e-07
-4.46357e-07
-1.14735e-06
-4.61011e-07
-1.179e-06
-4.30753e-07
-1.11701e-06
-5.13201e-07
-3.08534e-07
-4.73158e-07
6.39053e-08
-6.26468e-07
8.14348e-08
-6.67065e-07
-2.25133e-07
-6.81966e-07
-3.04176e-07
-3.22068e-07
-6.93536e-07
-4.14513e-07
-2.99333e-07
-1.63901e-08
-5.3268e-07
-1.02919e-06
-5.93706e-07
-1.11797e-06
-6.14093e-07
-1.09662e-06
-3.93541e-07
-5.29086e-07
-5.06958e-07
1.77323e-07
-5.97035e-07
1.7151e-07
-6.14792e-07
-2.07376e-07
-6.21877e-07
-2.9709e-07
-2.9891e-07
-6.45035e-07
-3.58801e-07
1.23689e-07
-6.42204e-08
-6.66937e-07
-7.21051e-07
-6.47545e-07
-1.13736e-06
-5.89011e-07
-1.15515e-06
-1.67351e-07
-9.50746e-07
-3.39945e-08
4.39661e-08
-2.02873e-07
3.40388e-07
-4.29414e-07
1.91639e-08
-4.99388e-07
-2.27117e-07
-2.65835e-07
-5.32464e-07
-6.65328e-08
3.11601e-07
-1.21379e-07
-5.21707e-07
-2.65877e-07
-5.80179e-07
-1.07889e-06
-5.72534e-07
-1.1628e-06
-4.31672e-07
-1.09161e-06
1.30646e-07
-5.18353e-07
6.83429e-08
4.02691e-07
-1.72205e-07
2.59714e-07
-3.45108e-07
-5.4213e-08
-1.78842e-07
-4.32101e-07
-8.21078e-09
4.12128e-07
-9.23163e-08
-4.55323e-07
1.81234e-07
-7.86295e-07
-7.4792e-07
-7.13176e-07
-1.23592e-06
-5.82929e-07
-1.22186e-06
-1.5045e-07
-9.50833e-07
-9.91572e-08
3.51399e-07
-1.4769e-07
3.08244e-07
-2.91346e-07
8.94429e-08
-1.06378e-07
-3.63811e-07
1.37928e-07
3.33104e-07
-5.89035e-08
-2.08424e-07
5.27588e-07
-6.35232e-07
-3.21112e-07
-4.94317e-07
-1.37683e-06
-4.11511e-07
-1.30466e-06
-2.22946e-07
-1.1394e-06
-1.88926e-07
3.1738e-07
-1.32818e-07
2.52135e-07
-2.37021e-07
1.93649e-07
-4.14568e-08
-3.01942e-07
3.1708e-08
2.62481e-07
3.89156e-08
-6.3789e-08
6.23086e-07
-3.85325e-07
4.19546e-10
-3.25931e-07
-1.43623e-06
-2.91273e-07
-1.33932e-06
-2.28833e-07
-1.20184e-06
-2.86959e-07
3.75504e-07
-4.0006e-07
3.65235e-07
-3.00623e-07
9.42117e-08
6.57642e-09
-3.48656e-07
4.25312e-08
4.37286e-07
-2.17337e-07
8.81085e-08
5.77509e-07
-8.03337e-08
1.6887e-07
-1.34288e-07
-1.38228e-06
-1.18269e-07
-1.35534e-06
-6.65954e-09
-1.31345e-06
7.72532e-08
2.91592e-07
2.12592e-08
4.2123e-07
-1.19141e-07
2.34611e-07
1.08922e-07
-2.21486e-07
-2.76699e-07
5.92645e-07
1.2134e-07
-4.61285e-07
7.62089e-07
1.1194e-08
-3.03611e-07
-3.11177e-08
-1.33996e-06
-4.53123e-08
-1.34115e-06
-2.99595e-08
-1.3288e-06
2.23047e-07
3.8586e-08
1.04237e-07
5.40041e-07
2.09631e-08
3.17884e-07
1.85178e-07
-5.52929e-08
-3.24478e-07
5.39943e-07
3.77171e-07
-1.18008e-07
5.55606e-07
9.86904e-09
-4.31508e-07
-1.25496e-08
-1.31754e-06
-1.28792e-08
-1.34082e-06
-1.24398e-08
-1.32924e-06
7.07227e-08
-4.45782e-08
-5.79303e-08
6.68695e-07
-8.11039e-08
3.41058e-07
2.56199e-07
-1.52125e-07
-2.20537e-07
3.95014e-07
3.65473e-07
6.07307e-08
2.74334e-07
9.23737e-08
-4.63156e-07
4.78566e-08
-1.27302e-06
4.30027e-08
-1.33596e-06
4.71147e-08
-1.33335e-06
-1.67629e-07
1.70162e-07
-2.2761e-07
7.28678e-07
-2.45302e-07
3.58749e-07
3.07757e-07
-2.96861e-07
-2.52017e-08
2.05806e-07
2.1441e-07
1.80522e-07
6.86141e-08
1.19581e-07
-4.02211e-07
9.49621e-08
-1.24841e-06
3.7295e-08
-1.2783e-06
-1.00465e-08
-1.28601e-06
6.39512e-09
1.53722e-07
-2.19292e-07
9.54364e-07
-2.51404e-07
3.90861e-07
3.22988e-07
-2.66634e-07
4.87908e-08
1.23124e-07
3.38899e-08
9.11767e-08
2.62322e-08
3.24631e-08
-3.435e-07
9.96068e-09
-1.22591e-06
-4.96088e-10
-1.26784e-06
-1.83189e-08
-1.26819e-06
6.53625e-07
-5.18226e-07
3.94118e-07
1.21387e-06
1.25379e-08
7.7244e-07
4.64503e-07
-1.2898e-07
6.42323e-08
1.55182e-07
-9.62943e-08
1.03703e-08
8.01158e-08
1.82012e-08
-3.51336e-07
1.86123e-08
-1.22633e-06
-1.17438e-09
-1.24805e-06
-2.08276e-08
-1.24853e-06
5.90574e-07
-1.12963e-06
1.08709e-06
7.17354e-07
9.39013e-07
9.20512e-07
6.64406e-07
7.39091e-07
2.99782e-08
2.34041e-07
-1.08839e-07
-5.43746e-08
1.6449e-07
5.92157e-09
-4.11622e-07
1.96331e-08
-1.24004e-06
8.1536e-10
-1.22923e-06
-1.66873e-08
-1.23103e-06
9.27577e-08
-1.23906e-06
7.51174e-07
5.89453e-08
1.07666e-06
5.95009e-07
6.25318e-07
1.11577e-06
1.83985e-08
2.59663e-07
-4.40232e-08
-8.45744e-08
2.6745e-07
1.94822e-08
-5.15675e-07
1.38533e-08
-1.23442e-06
8.12395e-11
-1.21546e-06
-1.5613e-08
-1.21533e-06
-2.49964e-08
-1.22968e-06
4.57191e-07
-4.23269e-07
8.49971e-07
2.02254e-07
5.04215e-07
9.71057e-07
-1.62593e-07
2.84442e-07
1.37815e-07
-1.21415e-07
2.26277e-07
2.69717e-08
-6.64052e-07
1.08372e-08
-1.21828e-06
-2.93804e-09
-1.20169e-06
-1.76032e-08
-1.20067e-06
-2.68565e-08
-1.22043e-06
1.34969e-07
-5.85079e-07
3.00118e-07
3.70826e-08
3.65585e-07
4.38757e-07
-3.13887e-07
2.36837e-07
3.61487e-07
-8.71215e-08
-4.9299e-10
3.06458e-08
-7.81821e-07
1.51025e-08
-1.20274e-06
4.17675e-09
-1.19076e-06
-9.17992e-09
-1.18731e-06
-2.92342e-08
-1.20037e-06
1.65905e-08
-6.30923e-07
4.77153e-08
5.95364e-09
2.51891e-07
1.61417e-07
-2.48875e-07
1.08579e-07
3.77135e-07
3.15388e-09
-2.52528e-07
5.08146e-08
-8.29483e-07
3.54495e-08
-1.18738e-06
1.63759e-08
-1.17169e-06
1.25031e-08
-1.18344e-06
-4.94713e-09
-1.18292e-06
3.25407e-09
-6.39111e-07
1.34438e-08
-4.25151e-09
2.29796e-07
3.55247e-08
-9.21789e-08
-5.32251e-08
2.53983e-07
5.61954e-09
-3.50311e-07
-1.76187e-08
-8.06251e-07
-3.27759e-08
-1.17223e-06
-3.30066e-08
-1.17146e-06
-5.43592e-08
-1.16209e-06
-6.69431e-08
-1.17034e-06
-4.20245e-09
-7.01843e-07
3.13585e-08
-3.98179e-08
2.31576e-07
2.9579e-08
1.37424e-08
-1.75903e-07
1.08935e-07
2.71672e-08
-3.63725e-07
2.49563e-08
-8.04038e-07
1.24824e-08
-1.15975e-06
-2.26832e-09
-1.1567e-06
-1.02088e-08
-1.15415e-06
-2.30775e-08
-1.15747e-06
-5.69757e-10
-7.24359e-07
3.15332e-08
-7.1914e-08
2.1364e-07
4.94799e-08
3.51471e-08
-2.26694e-07
1.56378e-08
4.39627e-08
-3.72557e-07
4.03924e-08
-8.00477e-07
2.62209e-08
-1.14558e-06
1.28305e-08
-1.14331e-06
-8.19848e-10
-1.1405e-06
-1.42824e-08
-1.14401e-06
-1.18204e-08
-7.26811e-07
1.11619e-08
-9.48917e-08
1.59999e-07
6.47958e-08
5.50201e-08
-2.54911e-07
-2.67997e-08
6.58103e-08
-3.83342e-07
4.80201e-08
-7.82691e-07
3.34194e-08
-1.13098e-06
1.42485e-08
-1.12414e-06
-3.59666e-10
-1.12589e-06
-1.6828e-08
-1.12754e-06
-5.36148e-08
-6.9002e-07
-3.39802e-08
-1.14531e-07
1.2054e-07
5.47986e-09
5.08246e-08
-2.77932e-07
-2.78072e-08
5.84865e-08
-3.9101e-07
3.74185e-08
-7.61621e-07
2.3191e-08
-1.11675e-06
5.08406e-09
-1.10604e-06
-1.6919e-08
-1.10389e-06
-3.06869e-08
-1.11377e-06
-8.82005e-08
-6.32509e-07
-2.87274e-08
-1.74008e-07
7.30553e-08
1.87606e-08
4.87553e-08
-3.11591e-07
-1.50979e-08
5.50722e-08
-3.97339e-07
4.19916e-08
-7.48552e-07
2.79348e-08
-1.10269e-06
8.2799e-09
-1.08638e-06
-1.0063e-08
-1.08554e-06
-2.3609e-08
-1.10023e-06
-5.73687e-08
-5.98744e-07
-5.85206e-08
-1.7285e-07
3.21374e-08
-1.76063e-08
7.15039e-08
-3.31832e-07
-5.12644e-08
7.87956e-08
-4.04624e-07
6.18371e-08
-7.31595e-07
4.3395e-08
-1.08425e-06
1.96998e-08
-1.06269e-06
2.3334e-09
-1.06818e-06
-1.79007e-08
-1.07999e-06
-7.05047e-08
-5.46141e-07
-1.23558e-07
-1.19796e-07
-5.13959e-08
-4.00266e-08
7.93695e-08
-3.41246e-07
-6.99557e-08
6.01379e-08
-3.85398e-07
2.8619e-08
-7.00077e-07
6.92604e-09
-1.06256e-06
-8.12175e-09
-1.04764e-06
-3.38405e-08
-1.04246e-06
-5.38689e-08
-1.05997e-06
-4.01583e-08
-5.59859e-07
-5.48719e-08
-1.0508e-07
-9.46915e-08
-1.15715e-08
5.53093e-08
-3.48682e-07
-4.78741e-08
4.07141e-08
-3.70813e-07
4.17256e-08
-7.01092e-07
2.49965e-08
-1.04583e-06
2.32577e-09
-1.02497e-06
-1.39969e-08
-1.02613e-06
-3.0794e-08
-1.04317e-06
-3.03513e-08
-5.60301e-07
-2.35973e-08
-1.11831e-07
-8.24834e-08
-3.57981e-08
5.89451e-08
-3.41661e-07
-6.59676e-08
4.20296e-08
-3.53894e-07
3.83701e-08
-6.97427e-07
1.99183e-08
-1.02738e-06
1.58158e-09
-1.00663e-06
-1.86172e-08
-1.00594e-06
-3.5408e-08
-1.02638e-06
-2.74253e-08
-5.68274e-07
-4.23369e-08
-9.69244e-08
-4.9537e-08
-7.52871e-08
7.74981e-08
-3.13728e-07
-1.05431e-07
5.26777e-08
-3.29074e-07
3.83029e-08
-6.83052e-07
1.90085e-08
-1.00808e-06
-1.13843e-09
-9.86484e-07
-1.96949e-08
-9.87379e-07
-3.87258e-08
-1.00735e-06
-3.22057e-08
-5.74787e-07
-1.20233e-07
-8.90104e-09
-4.71919e-08
-1.2258e-07
1.05662e-07
-2.64628e-07
-1.54761e-07
5.94351e-08
-2.82844e-07
3.66662e-08
-6.60284e-07
1.82171e-08
-9.89632e-07
-1.51082e-09
-9.66756e-07
-2.08216e-08
-9.68069e-07
-3.8592e-08
-9.89577e-07
-1.59755e-08
-5.97407e-07
-1.0124e-07
7.63715e-08
-2.69941e-08
-1.21434e-07
1.44243e-07
-2.05866e-07
-2.03003e-07
6.74448e-08
-2.06043e-07
4.06863e-08
-6.33523e-07
1.96642e-08
-9.68609e-07
-6.35486e-10
-9.46456e-07
-2.12619e-08
-9.47442e-07
-4.07317e-08
-9.70107e-07
-2.0579e-08
-6.17564e-07
-8.29445e-09
6.40902e-08
1.18197e-08
-4.7108e-08
9.88429e-08
-1.25144e-07
-1.79565e-07
4.45279e-08
-1.51737e-07
4.18839e-08
-6.30877e-07
2.23686e-08
-9.49092e-07
7.34859e-10
-9.24823e-07
-2.06889e-08
-9.26018e-07
-3.95996e-08
-9.51196e-07
-3.35567e-08
-6.23602e-07
-7.06494e-09
3.75934e-08
6.75311e-08
-6.27787e-08
1.4214e-07
-4.7477e-08
-2.19809e-07
6.33752e-08
-7.29798e-08
4.49453e-08
-6.12452e-07
2.49565e-08
-9.29105e-07
2.30022e-09
-9.02166e-07
-1.92627e-08
-9.04456e-07
-3.93506e-08
-9.31108e-07
-4.25496e-08
-6.20403e-07
-6.12683e-08
5.63052e-08
1.31976e-07
-1.25714e-07
9.21993e-08
-1.48951e-09
-1.38187e-07
3.89477e-08
-1.97235e-08
4.26943e-08
-6.162e-07
2.15696e-08
-9.07982e-07
-7.42227e-10
-8.79854e-07
-2.49564e-08
-8.80241e-07
-4.57222e-08
-9.10343e-07
-3.89627e-08
-6.27166e-07
-4.37939e-08
6.11405e-08
1.95009e-07
-1.06824e-07
2.87472e-08
2.1749e-08
-5.19869e-08
3.25623e-08
-2.35379e-08
4.50392e-08
-6.28677e-07
2.38643e-08
-8.86808e-07
4.53548e-10
-8.56444e-07
-2.20776e-08
-8.5771e-07
-4.39189e-08
-8.88502e-07
-3.93308e-08
-6.31751e-07
-2.77439e-08
4.95661e-08
2.19559e-07
-5.22869e-08
5.59388e-08
2.23266e-08
-5.65187e-08
4.36492e-08
-1.1252e-08
4.65287e-08
-6.31556e-07
2.34918e-08
-8.6377e-07
-2.30867e-10
-8.32721e-07
-2.24253e-08
-8.35516e-07
-4.62725e-08
-8.64655e-07
-4.76386e-08
-6.30381e-07
-2.30285e-08
2.49632e-08
2.3164e-07
-3.5103e-08
8.12425e-08
4.49438e-08
-1.03861e-07
4.34623e-08
2.65295e-08
3.89915e-08
-6.2708e-07
1.46068e-08
-8.39386e-07
-6.67981e-09
-8.11434e-07
-3.00419e-08
-8.12154e-07
-5.51155e-08
-8.39582e-07
-5.12652e-08
-6.34229e-07
-1.56087e-08
-1.06898e-08
2.23642e-07
-7.6049e-09
4.75091e-09
8.28122e-08
-4.26181e-08
3.10162e-08
2.67955e-10
4.10471e-08
-6.37106e-07
1.61047e-08
-8.14444e-07
-5.2016e-09
-7.90128e-07
-2.75612e-08
-7.89794e-07
-5.29759e-08
-8.14167e-07
-5.62399e-08
-6.30961e-07
-2.84676e-08
-3.84564e-08
1.82661e-07
1.25188e-08
-1.54634e-08
8.32912e-08
1.49859e-08
3.89299e-08
-5.41259e-08
4.62829e-08
-6.4446e-07
2.07718e-08
-7.88934e-07
-1.50939e-09
-7.67847e-07
-2.28241e-08
-7.68479e-07
-4.97755e-08
-7.87215e-07
-5.39359e-08
-6.26796e-07
-2.99808e-08
-6.24075e-08
1.26225e-07
2.64577e-08
4.48767e-08
6.16407e-08
-2.3226e-08
6.15807e-08
-7.08263e-08
4.77253e-08
-6.30605e-07
2.18551e-08
-7.63064e-07
3.96907e-10
-7.46389e-07
-2.11161e-08
-7.46966e-07
-4.7345e-08
-7.60985e-07
-8.21203e-08
-5.92018e-07
-7.29974e-08
-7.15281e-08
4.66102e-08
6.61873e-09
7.48346e-08
4.19135e-08
-5.51078e-08
7.21414e-08
-6.81284e-08
4.85219e-08
-6.06985e-07
2.28916e-08
-7.37432e-07
1.3448e-09
-7.24842e-07
-2.29774e-08
-7.22644e-07
-4.79022e-08
-7.3606e-07
-5.53505e-08
-5.84569e-07
-4.07186e-08
-8.61576e-08
1.55146e-08
-9.61989e-09
6.49433e-08
1.62449e-08
-3.9274e-08
6.83513e-08
-7.15343e-08
5.09774e-08
-5.89613e-07
2.58274e-08
-7.12281e-07
2.07649e-09
-7.01091e-07
-2.55374e-08
-6.9503e-07
-5.04834e-08
-7.11114e-07
-8.03237e-08
-5.54727e-07
-1.02543e-07
-6.39343e-08
1.84204e-08
-1.05445e-07
3.0783e-08
-1.58412e-08
1.30515e-09
7.02383e-08
-1.10989e-07
5.44245e-08
-5.738e-07
2.79702e-08
-6.85828e-07
-3.98994e-09
-6.69131e-07
-2.67902e-08
-6.7223e-07
-5.25261e-08
-6.85379e-07
-7.59994e-08
-5.3125e-07
-1.21183e-07
-1.87473e-08
3.39744e-08
-1.36738e-07
2.60985e-08
-6.02013e-08
1.82621e-08
7.13092e-08
-1.562e-07
5.16286e-08
-5.54118e-07
2.01012e-08
-6.54301e-07
-1.09176e-08
-6.38112e-07
-3.34315e-08
-6.49716e-07
-6.0322e-08
-6.58488e-07
-8.54311e-08
-5.06139e-07
-1.29193e-07
2.50101e-08
5.22614e-08
-1.47484e-07
2.85077e-08
-9.25911e-08
3.88064e-09
7.57842e-08
-2.03485e-07
5.18536e-08
-5.30188e-07
2.57583e-08
-6.28206e-07
1.76309e-08
-6.29985e-07
-2.19445e-08
-6.10141e-07
-4.6532e-08
-6.33902e-07
-4.39259e-08
-5.08747e-07
1.24512e-08
-3.13739e-08
5.95764e-08
5.13166e-09
6.88658e-08
-1.14711e-07
-4.67479e-08
1.06619e-07
-2.4124e-07
1.17891e-07
-5.41462e-07
9.18059e-08
-6.02122e-07
4.47806e-08
-5.8296e-07
2.89456e-08
-5.94306e-07
-6.66865e-09
-5.98288e-07
-1.77669e-08
-4.97652e-07
4.36691e-08
-9.28128e-08
2.88981e-08
7.43476e-08
2.97062e-08
-9.62665e-08
-4.81518e-08
1.7542e-08
-2.2907e-07
4.74552e-08
-5.71374e-07
4.38633e-09
-5.59053e-07
-2.87841e-08
-5.49789e-07
-5.29315e-08
-5.70158e-07
-8.66098e-08
-5.64609e-07
-8.01437e-08
-5.0412e-07
-3.18234e-08
-1.41132e-07
9.40829e-09
-1.23289e-08
1.02291e-07
-1.00837e-07
-9.77193e-08
1.18662e-07
-2.45444e-07
5.91349e-08
-5.11847e-07
1.74468e-08
-5.17365e-07
-1.41506e-08
-5.18192e-07
-6.60979e-08
-5.18211e-07
-9.93057e-08
-5.31402e-07
-3.92281e-08
-5.64197e-07
-2.38876e-08
-1.56471e-07
2.46793e-08
-3.91576e-08
7.97109e-08
-9.77661e-08
-8.27812e-08
7.1529e-08
-2.37275e-07
4.20109e-08
-4.82331e-07
1.48083e-08
-4.90162e-07
-8.93884e-09
-4.94444e-07
-4.31152e-08
-4.84035e-07
-8.96199e-08
-4.84897e-07
-1.68422e-07
-4.85394e-07
-1.28096e-07
-1.96796e-07
1.26197e-08
-1.1604e-07
1.29611e-07
-1.16689e-07
-1.1069e-07
1.21253e-07
-2.28917e-07
7.25608e-08
-4.33639e-07
2.82343e-08
-4.45836e-07
-1.48337e-08
-4.51377e-07
-5.22734e-08
-4.46595e-07
-8.67847e-08
-4.50386e-07
-1.35479e-07
-4.36699e-07
-1.2247e-07
-2.09806e-07
-1.45519e-08
-9.5302e-08
1.25129e-07
-1.45295e-07
-9.65259e-08
1.43502e-07
-2.47296e-07
9.70609e-08
-3.87199e-07
5.93996e-08
-4.08174e-07
1.99527e-08
-4.1193e-07
-1.99717e-08
-4.06671e-07
-7.7873e-08
-3.92484e-07
-1.30216e-07
-3.84357e-07
-1.11289e-07
-2.28735e-07
-4.96018e-08
-7.62395e-08
7.75758e-08
-1.50002e-07
-7.28704e-08
1.31981e-07
-3.01695e-07
8.18336e-08
-3.37051e-07
2.38389e-08
-3.5018e-07
-2.7681e-08
-3.6041e-07
-6.93415e-08
-3.6501e-07
-9.82768e-08
-3.63549e-07
-1.35942e-07
-3.46692e-07
-7.62666e-08
-2.8841e-07
-8.25503e-08
-4.33172e-08
1.69677e-07
-1.50391e-07
-1.69287e-07
1.47197e-07
-2.79209e-07
1.05994e-07
-2.95847e-07
6.85249e-08
-3.12711e-07
2.20438e-08
-3.13929e-07
-2.85999e-08
-3.14366e-07
-8.20938e-08
-3.10055e-07
-1.29632e-07
-2.99154e-07
-1.42427e-07
-2.75615e-07
-1.08001e-07
-1.16975e-07
1.95392e-07
-2.37694e-07
-1.08089e-07
1.32326e-07
-2.16142e-07
8.27754e-08
-2.46297e-07
2.60321e-08
-2.55968e-07
-2.47788e-08
-2.63118e-07
-7.22816e-08
-2.66864e-07
-1.15436e-07
-2.669e-07
-1.58139e-07