/*--------------------------------*- C++ -*----------------------------------*\
  =========                 |
  \\      /  F ield         | OpenFOAM: The Open Source CFD Toolbox
   \\    /   O peration     | Website:  https://openfoam.org
    \\  /    A nd           | Version:  8
     \\/     M anipulation  |
\*---------------------------------------------------------------------------*/
FoamFile
{
    version     2.0;
    format      ascii;
    class       volScalarField;
    location    "8.45";
    object      alpha.water;
}
// * * * * * * * * * * * * * * * * * * * * * * * * * * * * * * * * * * * * * //

dimensions      [0 0 0 0 0 0 0];

internalField   nonuniform List<scalar> 
9150
(
1
1
1
1
1
1
1
1
1
1
1
1
1
1
1
1
1
1
1
1
1
1
1
1
1
1
1
1
1
1
1
1
1
1
1
1
1
1
1
1
1
1
1
1
1
1
1
1
1
1
1
1
1
1
1
1
1
1
1
1
1
1
1
1
1
1
1
1
1
1
1
1
1
1
1
1
1
1
1
1
1
1
1
1
1
1
1
1
1
1
1
1
1
1
1
1
1
1
1
1
1
1
1
1
1
1
1
1
1
1
1
1
1
1
1
1
1
1
1
1
1
1
1
1
1
1
1
1
1
1
1
1
1
1
1
1
1
1
1
1
1
1
1
1
1
1
1
1
1
1
0.996139
0.995309
0.991085
0.991085
0.99801
0.998726
0.998726
0.998726
0.998648
0.997941
0.996164
0.99305
0.991085
0.991085
0.991532
0.997867
0.998726
0.998726
0.998726
0.998701
0.996214
0.996691
0.993068
0.991085
0.991086
0.991271
0.991846
0.997973
0.998726
0.998726
0.994571
0.99771
0.996139
0.991088
0.991546
0.991275
0.993049
0.998726
0.998726
0.998726
0.994211
0.997729
0.994315
0.993679
0.998296
0.99502
0.993182
0.998726
0.998726
0.998726
0.994212
0.998511
0.994331
0.995776
0.998721
0.997674
0.9957
0.998726
0.998726
0.998726
0.996433
0.998721
0.995501
0.998449
0.998722
0.996441
0.998243
0.998726
0.998726
0.998726
0.998715
0.998721
0.998721
0.998722
0.998722
0.995868
0.996752
0.998726
0.998726
0.998726
0.998721
0.998721
0.998722
0.998722
0.998722
0.995868
0.995868
0.998726
0.998726
0.998726
0.998721
0.998642
0.996889
0.998709
0.998722
0.997378
0.995869
0.996196
0.998623
0.998726
0.99872
0.995057
0.993998
0.99726
0.998724
0.998727
0.996978
0.996017
0.997864
0.998339
0.995757
0.993997
0.993999
0.997174
0.998727
0.998727
0.998727
0.996029
0.998235
0.998721
0.993992
0.994005
0.996073
0.998701
0.998727
0.998727
0.998727
0.998726
0.998726
0.998726
0.993994
0.996699
0.998726
0.998727
0.998727
0.998727
0.998727
0.998727
0.998727
0.998726
0.995987
0.998726
0.998727
0.998727
0.998727
0.998727
0.998727
0.998674
0.998671
0.99872
0.998726
0.998727
0.998727
0.998727
0.989794
0.997269
0.998727
0.998726
0.998726
0.998726
0.998355
0.997927
0.99497
0.983157
0.983004
0.9859
0.998726
0.998726
0.998726
0.998726
0.998079
0.997054
0.994634
0.989984
0.985778
0.968805
0.973467
0.991217
0.997533
0.998472
0.99835
0.998344
0.986687
0.969635
0.968805
0.968805
0.968805
0.968844
0.972201
0.973086
0.968258
0.968278
0.968386
0.968513
0.970312
0.984922
0.984922
0.988568
0.993127
0.992208
0.968246
0.968246
0.969377
0.995668
0.998068
0.998335
0.998335
0.998335
0.998332
0.998311
0.968246
0.968289
0.992653
0.998335
0.998335
0.998335
0.998335
0.998335
0.998335
0.998333
0.98582
0.97656
0.997842
0.998335
0.998335
0.998335
0.998335
0.998335
0.998335
0.998334
0.99867
0.99867
0.99867
0.998287
0.998083
0.998335
0.998335
0.998335
0.998335
0.998336
0.99867
0.99867
0.99867
0.99867
0.998064
0.998335
0.998335
0.998335
0.998335
0.961216
0.99867
0.99867
0.99867
0.998667
0.996654
0.949783
0.910738
0.90755
0.915681
0.888575
0.977543
0.99867
0.998667
0.986692
0.89723
0.888797
0.888796
0.888708
0.888575
0.888565
0.949875
0.984024
0.998583
0.998228
0.932669
0.888796
0.888797
0.888797
0.888708
0.917703
0.957989
0.957987
0.992302
0.998314
0.996406
0.947683
0.916934
0.967833
0.98983
0.99649
0.992895
0.982853
0.982915
0.997513
0.998715
0.998485
0.997589
0.998738
0.998741
0.998742
0.998677
0.998556
0.982979
0.994423
0.99872
0.998733
0.998738
0.998741
0.998742
0.998742
0.998681
0.998684
0.993703
0.995485
0.998731
0.998736
0.998739
0.99874
0.998741
0.998626
0.998684
0.998685
0.998702
0.998718
0.998728
0.998731
0.998736
0.988313
0.99874
0.998685
0.998685
0.998689
0.998694
0.998702
0.996989
0.953523
0.910219
0.973297
0.998738
0.998737
0.932102
0.96515
0.998689
0.994307
0.912055
0.885395
0.886615
0.97519
0.998737
0.998735
0.884801
0.885229
0.934152
0.904277
0.885319
0.885296
0.890428
0.991591
0.998679
0.998714
0.884751
0.884754
0.884834
0.885126
0.885297
0.885317
0.945622
0.998649
0.998692
0.998697
0.884751
0.88475
0.884754
0.889253
0.885319
0.930081
0.99648
0.998608
0.998458
0.998591
0.884751
0.884754
0.912769
0.95806
0.946011
0.97989
0.998563
0.998563
0.998563
0.9937
0.977997
0.972145
0.991475
0.977567
0.970259
0.953835
0.952989
0.958089
0.966286
0.988429
0.994812
0.994462
0.994096
0.991736
0.989704
0.963915
0.950685
0.95067
0.950397
0.950123
0.927709
0.903739
0.97588
0.99132
0.990873
0.989498
0.985529
0.978414
0.950271
0.950123
0.805588
0.756699
0.757679
0.757415
0.760571
0.852226
0.985035
0.98405
0.983865
0.98364
0.756517
0.756268
0.756235
0.75623
0.75623
0.756245
0.756283
0.75652
0.794992
0.97043
0.756268
0.756235
0.75623
0.75623
0.75623
0.75623
0.756245
0.756284
0.756322
0.756722
0.815237
0.812157
0.841718
0.880028
0.916439
0.952693
0.913018
0.756322
0.756722
0.757368
0.981117
0.981208
0.982458
0.98426
0.987135
0.989374
0.990032
0.970459
0.956283
0.960607
0.982236
0.982171
0.89496
0.777245
0.879834
0.980912
0.991265
0.991591
0.992002
0.992079
0.925069
0.71394
0.707184
0.707122
0.707114
0.731525
0.942968
0.992002
0.992079
0.992079
0.708117
0.707674
0.707147
0.707114
0.707108
0.707108
0.707108
0.868191
0.990619
0.965056
0.70836
0.708023
0.820631
0.717968
0.707114
0.707108
0.707108
0.764825
0.954976
0.952044
0.729581
0.746499
0.913888
0.973595
0.862686
0.707129
0.707135
0.70716
0.914109
0.967292
0.995845
0.98605
0.966675
0.996301
0.997086
0.762258
0.70716
0.707284
0.712397
0.874741
0.995347
0.997084
0.9911
0.997086
0.997086
0.97008
0.795426
0.707408
0.707686
0.707964
0.997085
0.997085
0.997086
0.997086
0.997086
0.997086
0.981553
0.904285
0.843213
0.811692
0.992495
0.995866
0.997086
0.997086
0.997086
0.997086
0.997086
0.997066
0.996519
0.992697
0.995663
0.995818
0.98938
0.971293
0.981008
0.997086
0.997072
0.997059
0.997025
0.99698
0.697411
0.68902
0.773731
0.975376
0.996103
0.996873
0.990004
0.973398
0.973337
0.973359
0.687954
0.687678
0.687577
0.68757
0.687569
0.69748
0.917206
0.986821
0.990041
0.974337
0.687678
0.687574
0.68761
0.687569
0.687569
0.687569
0.690914
0.935788
0.995141
0.99569
0.926848
0.926207
0.927127
0.885983
0.833544
0.899151
0.975075
0.995053
0.995709
0.995809
0.930066
0.928661
0.927884
0.920943
0.844111
0.846858
0.847046
0.932298
0.995114
0.995771
0.878276
0.878018
0.898954
0.920533
0.87506
0.847197
0.846858
0.848106
0.849815
0.963351
0.93957
0.973168
0.994538
0.994793
0.99482
0.955921
0.885757
0.953119
0.995187
0.995607
0.842213
0.878986
0.953943
0.994293
0.995026
0.995062
0.995068
0.995071
0.995068
0.989295
0.720783
0.722177
0.762266
0.960183
0.994894
0.995045
0.995062
0.995068
0.99507
0.992939
0.722177
0.723101
0.727326
0.91088
0.994698
0.995001
0.995045
0.994385
0.994797
0.994011
0.750355
0.788147
0.821249
0.891691
0.983298
0.99493
0.995001
0.994195
0.994437
0.753534
0.98854
0.975701
0.958379
0.789734
0.863782
0.985175
0.99493
0.994741
0.889006
0.489734
0.994889
0.950608
0.862323
0.788996
0.789171
0.952606
0.994639
0.994441
0.800889
0.489733
0.972792
0.875933
0.836482
0.789171
0.789029
0.939246
0.994369
0.99429
0.771727
0.489732
0.969864
0.876795
0.941739
0.813339
0.789171
0.967338
0.994208
0.994201
0.763232
0.489718
0.986823
0.920486
0.943476
0.859384
0.828875
0.994108
0.994201
0.993837
0.756195
0.489777
0.90299
0.94131
0.943089
0.827127
0.878972
0.994135
0.994028
0.987356
0.863753
0.552227
0.68347
0.902166
0.879906
0.827127
0.896387
0.994002
0.988621
0.93924
0.921737
0.942414
0.678952
0.682576
0.79252
0.928702
0.98545
0.987446
0.934337
0.935403
0.94784
0.948672
0.678312
0.728595
0.968685
0.986504
0.986118
0.942714
0.933946
0.939322
0.9503
0.9503
0.826452
0.986872
0.986857
0.986816
0.986587
0.964891
0.934748
0.919412
0.950128
0.919741
0.986872
0.986878
0.986872
0.986857
0.986816
0.986587
0.984454
0.902612
0.876422
0.874935
0.986878
0.986872
0.986857
0.986816
0.986118
0.981424
0.982645
0.977509
0.910876
0.876771
0.986213
0.956165
0.946293
0.981397
0.961489
0.92087
0.920676
0.921151
0.976861
0.98014
0.963663
0.795948
0.762663
0.937525
0.969134
0.944692
0.921193
0.921526
0.922155
0.96823
0.836787
0.762078
0.760123
0.766078
0.960994
0.975745
0.975745
0.976761
0.926753
0.933978
0.955533
0.768218
0.758643
0.758643
0.758515
0.757125
0.933969
0.988734
0.989903
0.991849
0.97303
0.978822
0.935718
0.789212
0.755267
0.752641
0.751374
0.751374
0.852128
0.992832
0.978706
0.987304
0.990207
0.990831
0.97681
0.96009
0.893854
0.753726
0.755756
0.755665
0.650121
0.770003
0.986934
0.991163
0.992215
0.959544
0.91654
0.885887
0.755433
0.755433
0.238525
0.219074
0.556863
0.992215
0.99454
0.90748
0.803323
0.832045
0.92097
0.873535
0.786888
0.197171
0.155862
0.97145
0.996222
0.93445
0.803159
0.811806
0.951478
0.953211
0.220433
0.220445
0.105962
0.79773
0.996629
0.987528
0.820789
0.811971
0.907484
0.953238
0.0132316
0.212535
0.0476201
0.667766
0.996743
0.997232
0.918742
0.816039
0.953238
0.953272
0.00060824
0.142794
0.015407
0.590295
0.997261
0.997504
0.91932
0.922477
0.936966
0.953238
0.00136687
0.0178847
0.0153514
0.720393
0.998974
0.999161
0.898536
0.611902
0.679625
0.64716
0.0018965
0.000593998
0.0355312
0.850916
0.999159
0.999282
0.895665
0.318631
0.389707
0.306102
0.00145166
0.000253277
0.180421
0.927547
0.99941
0.999516
0.933876
0.225733
0.208524
0.0218242
8.79717e-05
0.000141395
0.376327
0.980427
0.999889
0.999823
0.974572
0.317583
0.000650712
0.000299513
3.95591e-05
0.000144622
0.667576
0.999914
0.999963
0.999911
0.999604
0.585502
0.00037047
0.000340903
4.38454e-05
0.0828878
0.885403
0.999972
0.999995
0.999997
0.999913
0.845461
0.0585788
0.000146441
4.38454e-05
0.542283
0.998326
0.999993
1
1
0.999995
0.999631
0.56652
2.35238e-06
0.29579
0.958763
1
1
1
1
1
1
0.961669
0.304299
0.997941
0.99826
0.997849
0.99696
0.998607
0.9987
0.9987
0.997265
0.982386
0.982386
0.985992
0.998683
0.998683
0.998683
0.998683
0.998683
0.998683
0.998683
0.998681
0.998678
0.998683
0.998683
0.998682
0.99868
0.998679
0.998679
0.995902
0.989395
0.989394
0.989394
0.99268
0.998438
0.998438
0.998108
0.998017
0.998021
0.997987
0.99785
0.996782
0.996785
0.998258
0.995883
0.995885
0.997692
0.9987
0.9987
0.9987
0.9987
0.998672
0.997749
0.985329
0.96381
0.968079
0.997124
0.998683
0.998683
0.99865
0.997422
0.996477
0.998284
0.998683
0.99855
0.9973
0.998461
0.998679
0.998679
0.99864
0.994493
0.989395
0.991829
0.998391
0.998438
0.998438
0.998438
0.995827
0.982608
0.993024
0.997846
0.997827
0.989616
0.997069
0.995871
0.995871
0.99772
0.9987
0.9987
0.9987
0.9987
0.998186
0.972733
0.963786
0.963793
0.9638
0.98696
0.99331
0.98792
0.987616
0.980951
0.979454
0.998634
0.998682
0.996526
0.987036
0.981081
0.982508
0.986308
0.992774
0.989608
0.992065
0.997763
0.998438
0.998438
0.998438
0.996928
0.982919
0.982543
0.982549
0.990865
0.997823
0.989604
0.996217
0.995871
0.99595
0.9987
0.9987
0.9987
0.9987
0.997159
0.96915
0.963786
0.963786
0.963879
0.988987
0.989919
0.990475
0.9819
0.975159
0.97514
0.979403
0.998633
0.998668
0.99564
0.989853
0.974524
0.957522
0.957522
0.958657
0.957162
0.957162
0.971863
0.991177
0.998438
0.998438
0.987326
0.982544
0.982544
0.98313
0.997071
0.997779
0.961236
0.997298
0.995872
0.996528
0.998701
0.9987
0.995875
0.970261
0.963885
0.964035
0.967444
0.979197
0.979144
0.955566
0.947241
0.947241
0.97824
0.996736
0.996816
0.99646
0.995342
0.996461
0.998698
0.998698
0.998689
0.97928
0.957506
0.957327
0.957162
0.958886
0.958968
0.967685
0.991929
0.997903
0.997848
0.996822
0.994796
0.997441
0.997428
0.971537
0.939004
0.998723
0.997863
0.998723
0.998713
0.995961
0.968079
0.963548
0.963809
0.970631
0.970572
0.953923
0.954257
0.976863
0.997695
0.990204
0.9873
0.994726
0.998697
0.998697
0.998697
0.998698
0.998698
0.9987
0.998703
0.998717
0.993437
0.971104
0.982941
0.998688
0.998669
0.994148
0.987029
0.986716
0.99261
0.996818
0.993739
0.979311
0.966408
0.939004
0.939004
0.998726
0.998726
0.998725
0.998723
0.987701
0.963391
0.963419
0.975058
0.964267
0.941648
0.941812
0.956938
0.998803
0.998804
0.998799
0.997725
0.993882
0.994272
0.998627
0.998697
0.998698
0.998698
0.998706
0.998717
0.99872
0.99872
0.99872
0.99872
0.998715
0.996667
0.955119
0.940736
0.940737
0.940736
0.941821
0.941865
0.942055
0.942453
0.97286
0.960939
0.998726
0.998726
0.998726
0.998725
0.980223
0.963391
0.963391
0.986461
0.962881
0.941641
0.941648
0.966684
0.998805
0.998805
0.998804
0.998799
0.996728
0.994126
0.9908
0.988752
0.994757
0.99822
0.998386
0.998705
0.998717
0.99872
0.99872
0.998716
0.998635
0.99151
0.95103
0.940737
0.940734
0.940749
0.944943
0.989517
0.990176
0.98504
0.998301
0.998185
0.998726
0.998726
0.998726
0.994567
0.963406
0.963391
0.965455
0.998192
0.977559
0.941648
0.941641
0.967857
0.998805
0.998805
0.998805
0.998801
0.996321
0.92216
0.886413
0.886415
0.900596
0.938189
0.941015
0.977893
0.994781
0.998717
0.998716
0.997328
0.997235
0.998309
0.998881
0.988542
0.951171
0.943148
0.988261
0.997754
0.997775
0.998301
0.998301
0.998301
0.997368
0.998726
0.998726
0.991372
0.963469
0.963406
0.974307
0.998227
0.996398
0.954977
0.941988
0.979792
0.998805
0.998805
0.998805
0.998803
0.99251
0.892738
0.886415
0.886411
0.886415
0.886935
0.887997
0.889325
0.925187
0.997088
0.998676
0.998373
0.997235
0.997817
0.99889
0.998889
0.99889
0.998238
0.979822
0.979555
0.980928
0.993182
0.998301
0.99676
0.996018
0.998708
0.998714
0.997381
0.970641
0.963499
0.989358
0.998229
0.998227
0.990904
0.977302
0.997029
0.998805
0.998805
0.998803
0.991697
0.912298
0.886458
0.886412
0.90399
0.964357
0.988567
0.979104
0.91673
0.900432
0.920778
0.99866
0.998648
0.997766
0.997592
0.998429
0.99889
0.998889
0.998885
0.998881
0.998877
0.988964
0.980472
0.980813
0.984282
0.996021
0.998558
0.998702
0.998702
0.996949
0.987973
0.998229
0.998229
0.998228
0.996595
0.998755
0.998805
0.998805
0.998805
0.998804
0.986247
0.889958
0.886529
0.953781
0.998809
0.998812
0.998813
0.998813
0.998813
0.920567
0.902617
0.998636
0.998608
0.99842
0.998536
0.998894
0.998878
0.997811
0.998732
0.998882
0.99888
0.998878
0.982872
0.978673
0.978676
0.998582
0.995998
0.997517
0.989708
0.997416
0.998226
0.998228
0.998229
0.998081
0.996152
0.997152
0.998385
0.998805
0.998805
0.998805
0.997886
0.980839
0.971889
0.963676
0.978916
0.998809
0.998812
0.998813
0.998813
0.993976
0.911367
0.978084
0.977375
0.993317
0.998893
0.998895
0.997537
0.931908
0.99051
0.998295
0.998867
0.998856
0.994118
0.994087
0.981341
0.998726
0.998724
0.97431
0.956629
0.956883
0.969237
0.988827
0.998228
0.998108
0.996077
0.995797
0.995797
0.995875
0.997019
0.998792
0.998779
0.998791
0.998804
0.998803
0.998752
0.996154
0.997736
0.998812
0.998813
0.996379
0.923577
0.879592
0.885986
0.952602
0.99883
0.998893
0.992928
0.899594
0.974037
0.99877
0.998714
0.981366
0.96438
0.959129
0.981015
0.998726
0.998726
0.972705
0.95642
0.956373
0.956326
0.956327
0.966476
0.991243
0.998366
0.99838
0.996299
0.995713
0.995713
0.995713
0.998135
0.998805
0.998804
0.998804
0.995749
0.987576
0.988773
0.998478
0.998812
0.987927
0.881877
0.878817
0.878843
0.918417
0.998078
0.998893
0.991584
0.899463
0.965236
0.998774
0.996981
0.956254
0.945581
0.945503
0.96478
0.998726
0.998726
0.995257
0.971695
0.956326
0.956326
0.956326
0.956327
0.964401
0.997685
0.998401
0.998401
0.997312
0.995713
0.997202
0.998806
0.998806
0.998805
0.998684
0.988033
0.98756
0.987576
0.996132
0.998801
0.998772
0.918329
0.878864
0.87884
0.929829
0.998557
0.998903
0.992036
0.899371
0.951719
0.998757
0.998746
0.994462
0.952559
0.945503
0.945485
0.998726
0.998726
0.998726
0.997671
0.987011
0.9666
0.956327
0.960529
0.979924
0.994159
0.994059
0.99836
0.998629
0.998633
0.998806
0.998806
0.998806
0.997541
0.987643
0.987541
0.987546
0.991104
0.998762
0.998777
0.998765
0.928033
0.879377
0.882406
0.986508
0.998903
0.998905
0.98918
0.899354
0.899354
0.980269
0.998762
0.998762
0.998762
0.971865
0.959646
0.998149
0.99629
0.991873
0.9928
0.992852
0.992787
0.988541
0.9928
0.992465
0.974723
0.969221
0.979145
0.998517
0.998805
0.998806
0.998806
0.99388
0.987538
0.987538
0.987538
0.993973
0.996481
0.990865
0.998733
0.904242
0.880476
0.88013
0.979474
0.998905
0.998907
0.998905
0.989136
0.908614
0.899354
0.931522
0.996283
0.998762
0.998641
0.935068
0.959606
0.976798
0.985946
0.986518
0.990111
0.992881
0.992881
0.992881
0.992868
0.97619
0.969221
0.969221
0.970714
0.996948
0.998804
0.998805
0.9959
0.989227
0.989127
0.9969
0.997308
0.991899
0.996452
0.904297
0.882453
0.882566
0.889296
0.985487
0.998909
0.998909
0.998908
0.998904
0.998872
0.993009
0.925134
0.930677
0.989183
0.998754
0.998751
0.964729
0.814552
0.992123
0.994274
0.993269
0.990236
0.988007
0.991144
0.975385
0.969351
0.96925
0.969281
0.975301
0.989561
0.996767
0.998682
0.998668
0.997927
0.997607
0.99743
0.997415
0.964978
0.882375
0.882355
0.882355
0.882355
0.93368
0.998893
0.998909
0.998909
0.998909
0.998864
0.998854
0.998909
0.998911
0.998911
0.998911
0.995094
0.998771
0.998822
0.923484
0.762843
0.998276
0.994314
0.977758
0.972052
0.972173
0.972345
0.984552
0.987957
0.987479
0.992974
0.998016
0.997989
0.998299
0.998651
0.996323
0.96123
0.963625
0.967678
0.942704
0.882792
0.882748
0.952076
0.980651
0.980539
0.983089
0.997328
0.998908
0.998909
0.998909
0.998893
0.998854
0.998907
0.998911
0.998911
0.998911
0.998911
0.998911
0.998908
0.805394
0.76277
0.990006
0.972058
0.97205
0.972052
0.974128
0.997421
0.998876
0.998883
0.998884
0.998885
0.998886
0.998886
0.998886
0.998859
0.975216
0.96116
0.982534
0.97029
0.96632
0.963947
0.964011
0.954509
0.937262
0.937323
0.93822
0.990971
0.998903
0.998909
0.998909
0.998909
0.998855
0.998862
0.998911
0.998911
0.998911
0.998911
0.998911
0.902945
0.76277
0.762758
0.997523
0.9775
0.972058
0.983072
0.998878
0.998881
0.998883
0.998884
0.998885
0.998886
0.998886
0.998886
0.998886
0.998886
0.980795
0.975044
0.982534
0.961687
0.96301
0.938011
0.937985
0.937879
0.937587
0.949037
0.986871
0.99889
0.998904
0.998909
0.998909
0.998909
0.998857
0.998907
0.998911
0.998911
0.998911
0.998911
0.982821
0.769222
0.762758
0.762757
0.998333
0.997546
0.993517
0.998807
0.998879
0.99888
0.998881
0.998335
0.986495
0.973861
0.965121
0.964703
0.953682
0.941729
0.90452
0.904156
0.941976
0.961329
0.951105
0.951758
0.968408
0.98645
0.998628
0.99868
0.998756
0.998822
0.998889
0.998569
0.998909
0.998909
0.998883
0.998911
0.998911
0.998911
0.998911
0.998911
0.974632
0.762759
0.762757
0.762757
0.908122
0.991095
0.998731
0.998738
0.998803
0.998862
0.997474
0.98552
0.976976
0.973858
0.959648
0.95413
0.953156
0.904176
0.904156
0.904164
0.915223
0.986332
0.989133
0.9974
0.99806
0.998166
0.99838
0.998628
0.994771
0.99633
0.994014
0.996809
0.998907
0.998909
0.998908
0.998902
0.998907
0.998911
0.998911
0.998911
0.998411
0.864271
0.762757
0.762757
0.888565
0.888632
0.908473
0.95906
0.998796
0.998847
0.991087
0.931565
0.909813
0.909791
0.909812
0.930202
0.92418
0.90416
0.904159
0.904158
0.974747
0.997298
0.997315
0.997518
0.998035
0.997191
0.975409
0.936156
0.865639
0.89403
0.973988
0.998885
0.998907
0.998908
0.998908
0.998908
0.998908
0.998239
0.998626
0.998909
0.998908
0.966397
0.762757
0.762757
0.888575
0.888566
0.892221
0.980217
0.989772
0.993924
0.986323
0.948103
0.931982
0.944488
0.958556
0.998304
0.996384
0.979414
0.968364
0.982495
0.996327
0.996824
0.997298
0.988573
0.962638
0.906618
0.839
0.83894
0.83894
0.83894
0.951866
0.998861
0.998896
0.998907
0.998908
0.995834
0.979609
0.992045
0.998908
0.998908
0.998908
0.998477
0.87251
0.788691
0.916394
0.955873
0.978163
0.979725
0.979837
0.987916
0.998765
0.998765
0.998766
0.998767
0.998768
0.99834
0.986203
0.976688
0.976063
0.98083
0.983716
0.962162
0.950581
0.861416
0.84214
0.841288
0.839997
0.839
0.843366
0.922954
0.998613
0.998696
0.998591
0.994503
0.960183
0.945716
0.946423
0.987092
0.998908
0.998908
0.998908
0.998908
0.9967
0.967268
0.995721
0.998428
0.985192
0.977124
0.981105
0.998765
0.998765
0.998765
0.998765
0.998766
0.998767
0.998762
0.96651
0.934442
0.921525
0.897378
0.882664
0.852678
0.852608
0.854467
0.885457
0.906996
0.92848
0.952025
0.997915
0.997912
0.997961
0.996451
0.958251
0.945386
0.945509
0.94566
0.948808
0.996551
0.998908
0.998908
0.998908
0.989797
0.965781
0.957873
0.998742
0.998704
0.986384
0.977124
0.992973
0.998765
0.998765
0.998765
0.998765
0.998765
0.998765
0.997729
0.975014
0.887974
0.833654
0.833556
0.833754
0.872941
0.944935
0.991809
0.99729
0.997417
0.997616
0.997768
0.997869
0.997913
0.99127
0.950139
0.945328
0.945384
0.945386
0.960145
0.998898
0.998903
0.998908
0.99126
0.933756
0.906949
0.906658
0.906663
0.998743
0.998744
0.99442
0.991257
0.998765
0.998765
0.998765
0.998765
0.998765
0.998765
0.998767
0.995546
0.941313
0.834388
0.833556
0.858223
0.981556
0.997489
0.997498
0.99741
0.994724
0.990226
0.981663
0.980301
0.985915
0.965329
0.945245
0.945242
0.945258
0.945328
0.985119
0.998757
0.998813
0.998898
0.998815
0.98131
0.906679
0.906658
0.906641
0.906643
0.998178
0.998746
0.998762
0.998765
0.998765
0.998765
0.998765
0.998765
0.998765
0.998766
0.998768
0.995209
0.894903
0.834377
0.90611
0.997542
0.997548
0.997528
0.994058
0.974716
0.950352
0.945497
0.94525
0.945242
0.945239
0.945239
0.945239
0.945245
0.945469
0.985497
0.998125
0.998181
0.988181
0.980467
0.986216
0.989325
0.989266
0.936489
0.906643
0.906648
0.991517
0.992434
0.998763
0.998764
0.998765
0.998765
0.99871
0.998762
0.998765
0.998765
0.998765
0.998154
0.924657
0.869801
0.997518
0.997548
0.997528
0.979637
0.967067
0.966977
0.971522
0.985739
0.9723
0.945389
0.945242
0.945239
0.945245
0.960995
0.995149
0.995466
0.996708
0.986817
0.926402
0.926402
0.926402
0.945367
0.988539
0.976472
0.950839
0.959812
0.978965
0.953544
0.968236
0.980583
0.969734
0.9815
0.997803
0.998763
0.998765
0.998764
0.998761
0.997915
0.945815
0.896965
0.997525
0.996125
0.97472
0.984255
0.996095
0.99621
0.996245
0.996245
0.996222
0.996048
0.995798
0.97163
0.945725
0.946159
0.946185
0.947703
0.994272
0.983955
0.92671
0.926402
0.9273
0.92753
0.927903
0.928304
0.929361
0.934935
0.973878
0.953507
0.95342
0.95342
0.953528
0.953668
0.991099
0.998763
0.998763
0.998761
0.996104
0.971183
0.870949
0.93069
0.997434
0.996665
0.973862
0.973006
0.984638
0.986778
0.996245
0.995176
0.9862
0.99331
0.995152
0.994873
0.994809
0.95715
0.946206
0.946369
0.987491
0.998153
0.998154
0.998109
0.995248
0.978759
0.976522
0.982355
0.972921
0.952802
0.993004
0.953698
0.95342
0.95342
0.955368
0.97645
0.99876
0.998762
0.998209
0.98284
0.978083
0.960234
0.867334
0.86637
0.944492
0.996109
0.964217
0.848468
0.848039
0.866229
0.977319
0.981352
0.961199
0.962164
0.981487
0.994873
0.994657
0.993771
0.993343
0.992806
0.991934
0.992922
0.996213
0.998178
0.998178
0.998178
0.998177
0.99816
0.998146
0.984776
0.998699
0.989296
0.966829
0.970661
0.993805
0.998693
0.99876
0.99876
0.990048
0.960944
0.960743
0.975379
0.916234
0.866373
0.89574
0.995346
0.993763
0.929801
0.848057
0.848049
0.940547
0.973975
0.969471
0.958943
0.959268
0.955013
0.952073
0.949825
0.965945
0.988232
0.97144
0.977002
0.997081
0.998178
0.998178
0.998177
0.996456
0.998148
0.998089
0.927289
0.998703
0.998752
0.998198
0.998417
0.998759
0.998759
0.99876
0.998759
0.994262
0.961504
0.960018
0.981397
0.986705
0.930668
0.87727
0.980675
0.9929
0.975272
0.877005
0.850823
0.982314
0.982345
0.982182
0.973084
0.799315
0.591596
0.515301
0.426673
0.473272
0.6983
0.959533
0.997041
0.997218
0.997613
0.972955
0.970214
0.970282
0.990384
0.99804
0.903981
0.998251
0.998755
0.998758
0.998758
0.998759
0.998759
0.998759
0.998759
0.998583
0.977655
0.959915
0.987675
0.987689
0.987685
0.939484
0.815007
0.81321
0.794377
0.796146
0.921871
0.982343
0.982227
0.981659
0.840032
0.394591
0.386967
0.386967
0.386966
0.386967
0.387038
0.494872
0.698248
0.942643
0.988054
0.988029
0.987974
0.98796
0.978519
0.930885
0.898873
0.998755
0.998758
0.998758
0.998758
0.998758
0.998759
0.998759
0.998759
0.998758
0.97628
0.959689
0.975648
0.987687
0.987689
0.899887
0.792305
0.792241
0.792226
0.810132
0.981091
0.980894
0.914589
0.908585
0.767452
0.392598
0.386985
0.386965
0.386967
0.387038
0.387448
0.454623
0.885617
0.949123
0.940639
0.987909
0.974561
0.923311
0.898904
0.898873
0.898904
0.981127
0.998756
0.998758
0.998758
0.998756
0.998758
0.998759
0.998758
0.99688
0.963459
0.959684
0.959682
0.965397
0.985943
0.917576
0.792241
0.792226
0.792226
0.792226
0.976449
0.979115
0.750926
0.620831
0.823925
0.823977
0.402129
0.387109
0.387105
0.387448
0.396744
0.801093
0.968812
0.969242
0.958411
0.968115
0.973156
0.976096
0.972994
0.971951
0.965316
0.964411
0.998367
0.998749
0.998675
0.996438
0.998756
0.998758
0.998758
0.998218
0.973756
0.959683
0.959684
0.962778
0.979825
0.973268
0.897717
0.795036
0.792226
0.792276
0.947263
0.986613
0.764459
0.60917
0.759505
0.905561
0.91124
0.651263
0.58442
0.57574
0.652336
0.710835
0.937743
0.969467
0.969471
0.968157
0.979015
0.980002
0.980002
0.980002
0.922282
0.991641
0.998719
0.998732
0.998724
0.998592
0.979764
0.987828
0.998758
0.998743
0.996831
0.984159
0.983524
0.992174
0.995082
0.995313
0.994785
0.91001
0.792276
0.873979
0.986678
0.988537
0.871745
0.608109
0.603552
0.742287
0.933128
0.965793
0.966041
0.965914
0.966363
0.901457
0.872456
0.969212
0.969487
0.969483
0.956962
0.979218
0.930773
0.820138
0.789861
0.998643
0.99872
0.998724
0.998724
0.998724
0.979667
0.974366
0.974047
0.988363
0.997293
0.997436
0.997526
0.997573
0.997625
0.997591
0.997557
0.99753
0.800527
0.87755
0.988412
0.988591
0.845997
0.603552
0.603479
0.603401
0.6034
0.840701
0.964622
0.966363
0.966623
0.929134
0.851808
0.954436
0.969474
0.969487
0.955455
0.965643
0.792343
0.789861
0.789861
0.803967
0.986738
0.99872
0.998724
0.998715
0.994994
0.97401
0.97397
0.973894
0.973917
0.993402
0.997598
0.997821
0.997716
0.996068
0.997232
0.997377
0.961256
0.879074
0.969479
0.988676
0.86988
0.6035
0.603401
0.603398
0.603399
0.603397
0.716127
0.948374
0.967029
0.944573
0.851808
0.898407
0.969433
0.969474
0.919123
0.825699
0.793329
0.794672
0.896406
0.757629
0.786464
0.981081
0.998681
0.998704
0.998631
0.994904
0.973894
0.973862
0.973872
0.984437
0.997844
0.997871
0.964496
0.954292
0.988497
0.997335
0.997083
0.988028
0.988411
0.988676
0.988676
0.723903
0.6035
0.603401
0.603397
0.603397
0.603397
0.825589
0.967603
0.969089
0.941921
0.87466
0.967402
0.851515
0.796198
0.795681
0.795444
0.902996
0.898593
0.78411
0.779869
0.798958
0.978012
0.998631
0.998539
0.998462
0.994423
0.98653
0.9892
0.996794
0.997894
0.997889
0.945544
0.875071
0.970386
0.997106
0.996851
0.996823
0.992056
0.98403
0.980605
0.964955
0.651322
0.603468
0.603403
0.603397
0.603424
0.820979
0.968321
0.969139
0.968833
0.874832
0.890408
0.796184
0.796168
0.796532
0.943415
0.957579
0.871532
0.986957
0.795635
0.792738
0.828048
0.986183
0.998462
0.99838
0.998313
0.99824
0.998085
0.997928
0.997892
0.997892
0.961217
0.804099
0.915592
0.996748
0.996823
0.956257
0.797718
0.916993
0.980251
0.97826
0.738918
0.603688
0.603469
0.603424
0.776113
0.992498
0.976716
0.955012
0.968698
0.885126
0.886862
0.913855
0.922121
0.94406
0.957616
0.95761
0.873001
0.992079
0.968173
0.792738
0.863757
0.993068
0.997695
0.996529
0.988158
0.912003
0.886041
0.960854
0.997892
0.997889
0.968779
0.801213
0.792473
0.838471
0.810659
0.792456
0.792465
0.847534
0.976842
0.977223
0.713026
0.605422
0.603688
0.699874
0.982595
0.994587
0.978857
0.954518
0.969624
0.973658
0.856333
0.850894
0.898468
0.943307
0.903517
0.952976
0.942021
0.958383
0.938731
0.87332
0.871875
0.895458
0.889345
0.887541
0.885301
0.88492
0.885062
0.907628
0.995561
0.997822
0.91051
0.792473
0.792288
0.792287
0.792286
0.792371
0.792456
0.908965
0.970753
0.973118
0.795848
0.611704
0.745185
0.988484
0.994732
0.994657
0.994587
0.980144
0.93029
0.974062
0.978256
0.976287
0.78554
0.730001
0.72974
0.83717
0.947554
0.927622
0.928948
0.964897
0.913587
0.906547
0.922657
0.910494
0.899355
0.891178
0.925382
0.978425
0.995123
0.933111
0.792712
0.792288
0.792278
0.792282
0.792287
0.866714
0.921695
0.877442
0.877053
0.878104
0.966621
0.99471
0.994739
0.994741
0.994739
0.994732
0.994655
0.992696
0.844349
0.947769
0.978506
0.922795
0.729809
0.729729
0.72974
0.750048
0.947633
0.967435
0.982149
0.994607
0.990115
0.988945
0.993617
0.991062
0.989221
0.989058
0.994199
0.980316
0.861886
0.79251
0.79229
0.792283
0.792288
0.813619
0.941629
0.978797
0.979238
0.979191
0.973847
0.993311
0.99471
0.994739
0.99474
0.99474
0.99474
0.988183
0.97781
0.857756
0.843919
0.95033
0.978538
0.955036
0.82294
0.755362
0.822673
0.949669
0.956219
0.994447
0.994607
0.994619
0.994742
0.994842
0.994853
0.994852
0.994853
0.994853
0.994822
0.95177
0.83193
0.794178
0.79968
0.80366
0.854456
0.951434
0.958486
0.921578
0.763178
0.738652
0.773682
0.881867
0.982336
0.994717
0.99474
0.99474
0.981347
0.89493
0.847054
0.84697
0.861747
0.978534
0.978529
0.978537
0.97189
0.967031
0.968378
0.968368
0.890933
0.730161
0.824148
0.941441
0.994842
0.994852
0.994852
0.994853
0.994853
0.994853
0.994853
0.979862
0.971273
0.959515
0.975554
0.960939
0.890668
0.751137
0.740251
0.73869
0.738467
0.738441
0.738441
0.738441
0.864827
0.994545
0.994734
0.99474
0.931558
0.879874
0.880866
0.994704
0.992708
0.943546
0.872902
0.924157
0.973778
0.973778
0.922831
0.837653
0.836914
0.731243
0.733081
0.736005
0.802406
0.832426
0.836576
0.890936
0.962341
0.994853
0.994822
0.994273
0.993869
0.993523
0.992744
0.993151
0.993331
0.966808
0.759029
0.738582
0.738452
0.738441
0.738441
0.738441
0.836523
0.99308
0.994718
0.994734
0.932583
0.938253
0.99378
0.994706
0.994703
0.969119
0.851318
0.851092
0.860245
0.877574
0.83692
0.836914
0.836914
0.971079
0.922588
0.909656
0.807313
0.804696
0.804696
0.804696
0.887947
0.993659
0.94368
0.927247
0.926401
0.946057
0.992716
0.993331
0.993353
0.993373
0.99336
0.791015
0.738582
0.738452
0.738441
0.779912
0.969505
0.994328
0.994518
0.994258
0.988289
0.994704
0.994706
0.994706
0.994706
0.994551
0.978859
0.855075
0.838209
0.837853
0.837393
0.840676
0.836914
0.996933
0.996641
0.995769
0.979467
0.935577
0.919652
0.942674
0.976009
0.994814
0.994938
0.943226
0.92564
0.925395
0.966654
0.993262
0.993373
0.993378
0.993373
0.795071
0.740782
0.741671
0.946742
0.982115
0.977302
0.977402