/*--------------------------------*- C++ -*----------------------------------*\
  =========                 |
  \\      /  F ield         | OpenFOAM: The Open Source CFD Toolbox
   \\    /   O peration     | Website:  https://openfoam.org
    \\  /    A nd           | Version:  8
     \\/     M anipulation  |
\*---------------------------------------------------------------------------*/
FoamFile
{
    version     2.0;
    format      ascii;
    class       volScalarField;
    location    "8.45";
    object      p;
}
// * * * * * * * * * * * * * * * * * * * * * * * * * * * * * * * * * * * * * //

dimensions      [1 -1 -2 0 0 0 0];

internalField   nonuniform List<scalar> 
9150
(
-204.314
-205.342
-205.968
-206.435
-206.666
-206.655
-206.432
-205.971
-205.349
-204.315
-224.372
-224.896
-225.319
-225.628
-225.809
-225.839
-225.652
-225.323
-224.901
-224.374
-244.267
-244.555
-244.812
-245.032
-245.144
-245.148
-245.031
-244.81
-244.555
-244.268
-264.008
-264.186
-264.354
-264.517
-264.595
-264.592
-264.509
-264.354
-264.185
-264.007
-283.632
-283.813
-283.95
-284.081
-284.135
-284.134
-284.077
-283.948
-283.812
-283.631
-118.37
-119.111
-118.771
-118.428
-118.231
-118.22
-118.401
-118.748
-119.103
-118.362
-133.846
-134.547
-134.638
-134.722
-134.62
-134.612
-134.706
-134.614
-134.517
-133.812
-150.253
-151.027
-151.301
-151.687
-151.754
-151.721
-151.659
-151.272
-151.019
-150.257
-167.086
-168.274
-168.726
-169.341
-169.536
-169.538
-169.386
-168.753
-168.313
-167.119
-184.162
-186.245
-186.997
-187.686
-187.966
-187.964
-187.687
-187.001
-186.247
-184.159
-24.2976
-25.9613
-27.9274
-28.9819
-29.6029
-29.6861
-29.199
-28.1196
-26.1195
-24.532
-44.8864
-45.2615
-46.3445
-46.6912
-47.1513
-47.1484
-46.6072
-46.3748
-45.3306
-45.0051
-65.2345
-65.0273
-66.1162
-65.6566
-66.1938
-66.2233
-65.7625
-66.1857
-65.0801
-65.2834
-88.0507
-85.1284
-86.153
-84.6474
-84.7668
-84.7646
-84.6211
-86.1631
-85.1446
-88.0688
-113.461
-104.036
-103.523
-102.185
-101.721
-101.756
-102.232
-103.569
-104.064
-113.487
1663.43
1663.23
1663.37
1663.27
1663.25
1663.17
1663.09
1662.99
1662.89
1662.82
1643.86
1643.77
1643.71
1643.65
1643.57
1643.54
1643.47
1643.39
1643.29
1643.2
1624.23
1624.27
1624.22
1624.17
1624.12
1624.03
1623.94
1623.78
1623.73
1623.61
1604.52
1604.75
1604.63
1604.71
1604.63
1604.58
1604.37
1604.2
1604.08
1603.93
1584.85
1585.08
1585.01
1585
1585.08
1584.88
1584.9
1584.52
1584.4
1584.23
1564.95
1565.27
1565.25
1565.11
1565.19
1565.06
1565.09
1564.87
1564.73
1564.56
1545.02
1545.23
1545.27
1545.19
1545.24
1545.23
1545.15
1545.11
1545
1544.84
1525.08
1525.21
1525.3
1525.34
1525.36
1525.51
1525.42
1525.34
1525.27
1525.13
1505.33
1505.44
1505.53
1505.58
1505.63
1505.77
1505.76
1505.65
1505.6
1505.52
1485.7
1485.76
1485.88
1485.88
1485.95
1485.97
1486.11
1486.08
1486.04
1485.98
1466.32
1466.25
1466.43
1466.25
1466.35
1466.39
1466.4
1466.52
1466.43
1466.43
1446.68
1446.82
1446.81
1446.74
1446.73
1446.74
1446.74
1446.89
1446.73
1446.7
1427.34
1427.3
1427.26
1427.18
1427.12
1427.08
1427.02
1426.93
1426.82
1426.66
1407.88
1407.74
1407.64
1407.54
1407.46
1407.39
1407.29
1407.16
1406.98
1406.75
1388.38
1388.17
1388.02
1387.92
1387.85
1387.75
1387.63
1387.5
1387.36
1387.17
1368.78
1368.6
1368.43
1368.29
1368.56
1368.21
1368.17
1368.1
1368.01
1367.91
1349.04
1348.84
1348.79
1348.93
1348.98
1348.71
1348.85
1348.93
1348.94
1348.93
1328.77
1328.8
1328.96
1329.12
1329.24
1330.26
1329.96
1329.7
1329.83
1329.83
1308.72
1309.05
1309.23
1310.01
1310.53
1311.08
1311.4
1311.57
1311.4
1311.38
1291.02
1291.12
1291.36
1291.7
1291.93
1292.03
1292.18
1292.23
1292.07
1291.8
1272.82
1272.99
1273.1
1273.31
1273.4
1273.34
1273.22
1272.97
1272.61
1272.25
1254.77
1254.75
1254.55
1254.49
1254.37
1254.22
1254.05
1253.84
1253.56
1253.19
1235.61
1236.27
1235.31
1235.27
1235.18
1235.06
1234.97
1234.94
1234.93
1234.77
1216.62
1216.54
1216.39
1216.16
1215.92
1215.67
1215.53
1215.59
1215.68
1215.64
1198.07
1197.89
1197.59
1197.18
1196.72
1196.32
1196.23
1196.34
1196.38
1195.91
1179.91
1179.66
1179.26
1178.64
1178
1177.78
1178.49
1178.33
1178.26
1178.11
1161.87
1161.87
1161.74
1160.74
1161.92
1162.2
1162.11
1161.96
1161.82
1161.54
1144.27
1143.36
1144.07
1143.86
1144.36
1145.26
1145.01
1144.57
1144.23
1143.53
1126.13
1126.41
1125.21
1125.7
1125.55
1125.98
1127.41
1125.5
1125.45
1125.13
1106.2
1106.72
1107.2
1106.77
1106.55
1106.1
1105.75
1105.71
1105.58
1105.36
1086.63
1086.94
1088.31
1087.47
1087.07
1086.42
1085.75
1085.54
1085.45
1085.26
1066.26
1066.49
1066.87
1066.82
1066.62
1066.06
1065.13
1064.88
1065.08
1065.07
1045.68
1045.8
1045.69
1045.47
1045.29
1044.93
1043.9
1044.08
1044.12
1044.51
1025.09
1025.01
1025.36
1024.87
1024.61
1024.76
1027.33
1023.79
1024.35
1025.03
1006.63
1005.28
1007.31
1006.45
1005.69
1007.28
1007.25
1005.65
1006.38
1006.81
987.806
988.518
987.38
986.525
986.961
987.495
987.364
986.727
987.324
987.708
969.37
969.539
969.294
969.346
969.073
968.977
968.616
968.255
968.449
968.587
952.151
952.181
951.984
951.694
951.687
950.616
950.427
950.004
949.871
949.797
935.155
935.286
933.629
933.186
932.618
931.697
931.854
931.409
931.105
931.022
914.373
914.378
914.865
914.306
913.611
913.299
912.947
912.489
912.195
912.005
894.929
894.902
895.193
894.911
894.655
893.777
894.235
894.258
894.197
894.149
873.583
871.638
870.707
872.364
873.143
874.121
874.913
875.305
875.213
876.042
859.393
858.322
856.027
855.93
856.07
853.619
855.279
855.09
855.141
855.881
845.588
844.432
843.246
842.188
841.367
840.318
839.371
839.481
838.599
838.573
834.398
832.743
830.928
829.189
827.708
826.314
825.972
825.037
824.324
823.897
819.657
819.665
817.933
815.557
813.945
813.298
809.875
809.372
808.286
807.482
801.489
799.962
797.742
796.144
794.09
792.255
789.652
787.561
786.968
787.199
780.235
776.646
772.462
775.15
769.989
769.297
767.681
765.935
765.851
766.386
755.306
756.898
756.723
755.756
754.073
751.921
748.938
747.375
746.056
745.647
739.844
740.216
739.939
738.425
736.511
734.299
732.302
729.572
728.345
726.117
726.678
725.391
728.091
721.469
720.264
718.657
717.693
715.59
714.616
713.247
713.872
712.133
708.686
712.039
705.16
703.089
702.375
701.089
700.065
698.811
689.953
689.498
689.859
690.391
689.446
689.23
688.127
686.908
685.152
682.959
671.303
671.186
670.827
670.873
670.625
670.273
670.752
671.675
671.15
670.074
651.369
650.752
650.331
650.367
650.368
650.655
651.405
651.94
651.69
652.187
628.984
628.552
628.629
629.15
629.959
630.999
632.144
632.988
633.569
633.725
605.141
604.3
604.289
606.235
607.247
609.113
610.757
612.061
612.949
613.816
587.951
588.236
585.293
587.347
589.249
589.786
590.818
591.778
592.745
593.38
579.045
577.419
576.286
575.826
576.109
575.844
570.508
571.222
573.292
574.239
570.772
568.677
567.04
565.891
564.203
562.345
560.413
556.177
555.482
554.706
554.661
553.194
550.362
545.311
543.125
538.809
537.689
534.9
532.593
531.043
533.877
532.041
529.572
526.281
522.733
519.544
515.586
511.612
508.352
505.866
512.686
510.131
507.176
505.654
502.547
499.551
495.344
490.314
484.931
478.347
486.663
485.379
484.731
480.896
475.615
469.574
466.574
457.317
450.946
444.104
459.693
455.45
451.244
445.828
439.088
432.066
424.71
417.494
410.155
401.261
432.051
427.163
419.96
409.367
399.861
390.753
380.741
369.81
358.685
346.781
399.471
393.689
384.981
372.816
362.626
351.654
338.201
321.73
303.721
283.129
365.997
357.642
349.049
339.175
329.859
318.851
305.169
288.23
268.306
249.287
335.79
329.012
319.029
317.498
304.055
293.355
282.401
268.139
251.934
243.406
306.988
300.372
293.31
291.619
284.255
274.837
267.34
255.911
242.552
237.764
283.397
277.887
272.97
270.693
264.697
256.728
251.623
241.644
233.464
230.326
264.574
261.519
255.479
252.878
250.445
238.937
233.506
225.396
219.926
218.861
247.013
243.425
240.123
238.005
235.619
226.718
219.864
212.678
207.662
207.938
224.365
225.974
223.662
229.466
222.267
217.782
211.726
204.752
199.654
200.193
209.785
204.987
205.066
209.464
206.232
206.21
202.833
196.118
193.18
191.201
184.813
186.82
184.993
187.824
191.211
191.354
188.563
187.74
185.937
184.429
166.152
169.25
173.482
178.827
180.327
179.77
180.163
179.322
178.966
178.518
158.6
163.294
167.298
169.846
171.183
172.335
172.952
173.935
173.641
172.755
160.4
162.372
164.23
165.702
166.606
167.202
167.38
167.203
168.816
169.954
160.287
160.6
161.496
161.668
161.879
162.567
163.094
163.093
162.97
164.315
157.571
157.671
157.343
157.66
157.824
159.001
159.186
158.969
158.455
158.279
153.886
159.153
161.094
152.985
155.601
153.804
154.303
154.316
153.833
152.481
147.272
151.701
153.091
153.151
153.93
153.535
152.79
150.791
148.949
148.963
141.237
148.37
152.303
155.136
156.737
156.184
150.219
147.312
144.851
143.945
129.006
143.172
150.294
155.603
158.835
157.203
151.519
144.104
137.032
134.002
78.8704
96.2117
112.378
126.162
132.724
131.696
126.532
122.153
118.566
115.481
12.3864
16.5435
40.062
68.6311
82.5791
83.0804
77.1734
75.5928
82.4724
86.5987
17.7954
22.5853
23.6942
34.3263
43.2572
35.5229
32.8248
33.2379
53.6183
58.3133
-1.53917
27.1672
35.1931
26.6536
32.6643
25.286
34.1895
36.5804
43.1037
47.8289
0.699193
10.3989
15.6117
15.0757
25.8503
35.0119
40.7524
44.7013
40.2613
42.7846
-1.41271
-1.53345
-0.288662
-0.80612
13.4436
27.0468
34.8897
36.9892
32.5658
32.5152
-1.824
-2.9191
-1.24302
-4.15433
5.96024
15.848
17.4052
16.831
12.648
12.3822
-1.76211
-1.90354
-1.28458
-2.68137
1.03515
6.46269
-1.5139
10.9778
0.252322
1.90993
-1.78426
-1.78467
-2.26631
-2.50071
-1.13361
-0.15574
-8.26589
0.752841
-6.73961
-2.66547
-1.87667
-1.838
-2.3325
-2.10137
-1.4036
-1.47447
-8.04901
-7.24007
-5.33483
-2.15391
-1.87013
-1.82004
-2.13274
-2.05363
-0.957842
-1.70574
-5.03576
-5.37549
-1.87607
-1.87508
-1.90394
-1.88671
-2.9514
-1.60351
-1.20158
-1.81844
-3.21141
-4.8491
-1.93284
-1.90237
-1.949
-2.41562
-4.23247
-2.25337
-1.36411
-1.86259
-3.43321
-4.62942
-2.2225
-1.91076
-1.9821
-4.15351
-5.99215
-5.98017
-5.94488
-5.90588
-5.2666
-4.85243
-3.70454
-1.93932
-2.76238
-9.5464
-13.0669
-15.0459
-15.6026
-15.3724
-14.655
-12.927
-9.61589
-2.7765
1662.73
1662.65
1662.54
1662.38
1662.01
1661.71
1661.41
1661.05
1661.14
1660.93
1660.5
1660.91
1660.74
1660.65
1660.67
1660.82
1661
1661.12
1661.34
1661.65
1661.65
1661.15
1660.3
1659.49
1658.81
1658.22
1657.64
1657.25
1657.03
1656.92
1656.91
1656.94
1657.05
1657.15
1657.26
1657.3
1657.24
1657.29
1657.39
1657.41
1643.11
1643.04
1642.88
1642.63
1642.42
1642.18
1641.84
1641.53
1641.36
1640.98
1640.61
1641.4
1641.08
1640.3
1640.58
1640.85
1641.02
1641.03
1641.09
1641.16
1641.07
1640.66
1640.06
1639.07
1638.47
1638.03
1637.74
1637.29
1637.14
1637.06
1637.23
1637.29
1637.35
1637.38
1637.43
1638.08
1637.64
1637.79
1637.87
1638.27
1623.45
1623.35
1623.14
1622.88
1622.64
1622.41
1622.17
1621.96
1621.66
1621.33
1621.46
1621.37
1621.27
1621.2
1621.5
1621.58
1621.79
1622.21
1622.3
1621.37
1620.81
1619.97
1619.38
1618.82
1618.02
1617.47
1617.28
1616.98
1616.93
1617.07
1617.33
1617.52
1617.51
1617.42
1617.69
1617.94
1618.05
1618.06
1618.67
1618.78
1603.78
1603.6
1603.36
1603.09
1602.83
1602.56
1602.31
1602.02
1601.61
1601.63
1601.47
1601.34
1601.62
1601.78
1602.22
1602.55
1603.3
1603.5
1603.06
1602.21
1601.3
1599.8
1598.6
1597.76
1597.64
1597.3
1596.94
1596.9
1597.36
1597.23
1597.48
1598.05
1598.04
1597.87
1598.13
1598.26
1598.3
1599.12
1599.1
1600.26
1584.04
1583.88
1583.57
1583.34
1583.06
1582.73
1582.68
1582.68
1582.47
1582.25
1583.33
1583.23
1582.67
1583.65
1583.38
1582.53
1583.09
1583.37
1583.2
1582.29
1580.83
1579.41
1578.06
1577.01
1576.65
1577.18
1577.39
1577.71
1578.12
1578.66
1578.66
1578.73
1578.68
1578.73
1578.55
1578.59
1579.06
1579.47
1579.65
1581.05
1564.32
1564.09
1563.85
1563.64
1563.37
1563.2
1563.2
1562.96
1562.73
1562.37
1562.4
1562.07
1561.3
1561.4
1561.14
1561.08
1560.81
1560.61
1559.87
1559.25
1558.67
1557.86
1557.04
1556.6
1556.71
1557.09
1558.19
1558.25
1559.08
1559.67
1559.47
1559.15
1559.15
1559.1
1559.21
1559.55
1559.81
1560.23
1561.13
1561.68
1544.63
1544.37
1544.11
1543.93
1543.69
1543.68
1543.54
1543.33
1542.65
1542.85
1542.52
1541.11
1540.36
1539.71
1538.96
1538.11
1537.33
1536.16
1535.18
1534.56
1534.2
1533.97
1534.17
1534.78
1535.62
1536.65
1537.74
1538.88
1539.98
1540.67
1541.31
1542.26
1542.31
1542.13
1542.18
1542.52
1543.01
1543.2
1543.21
1543.07
1524.94
1524.67
1524.36
1524.07
1523.64
1524.03
1523.51
1524.35
1522.51
1523
1521.81
1520.31
1519.02
1517.85
1516.62
1515.29
1513.66
1511.56
1509.63
1508.52
1508.2
1508.36
1509.22
1510.81
1512.65
1514.82
1517.07
1518.98
1520.65
1521.96
1523.82
1524.92
1525.13
1525.06
1524.6
1524.52
1524.51
1524.47
1524.52
1524.57
1505.3
1505.04
1504.68
1504.35
1504.19
1503.85
1503.21
1504.84
1502.86
1502.55
1501.63
1498.95
1497.64
1496.3
1494.74
1492.94
1490.88
1488.91
1487.07
1484.83
1484.46
1484.79
1485.88
1487.38
1489.59
1492.4
1495.45
1498.05
1500.43
1502.51
1504.34
1505.44
1506.67
1507.21
1505.12
1504.97
1504.89
1504.85
1504.82
1504.85
1485.82
1485.5
1485.07
1484.66
1484.53
1484.11
1482.8
1483.42
1482.4
1482.08
1481.98
1478.48
1476.87
1475.35
1473.81
1472.19
1470.59
1469.05
1467.89
1466.63
1466.86
1467.93
1469.26
1469.26
1469.36
1471.11
1473.94
1476.81
1479.51
1481.8
1483.84
1485.34
1486.1
1486.38
1485.53
1485.75
1485.3
1485.06
1485.08
1485.05
1466.48
1465.84
1465.43
1464.78
1464.69
1464.66
1462.79
1462.33
1461.63
1460.49
1459.97
1458.08
1456.74
1455.35
1454.04
1452.79
1452.52
1452.86
1451.89
1450.48
1450.27
1451.32
1451.31
1451.54
1453.1
1452.33
1453.69
1456.14
1458.47
1460.7
1462.55
1464.07
1464.65
1464.92
1464.71
1464.62
1464.32
1464.52
1464.58
1464.66
1446.61
1446.18
1445.51
1444.81
1444.14
1443.47
1442.56
1441.89
1441.15
1440.35
1439.36
1438.09
1436.75
1435.35
1433.97
1432.64
1434.54
1434.08
1430.93
1431.12
1430.78
1431.47
1432.24
1433.37
1434.85
1436.48
1433.77
1435.45
1437.35
1439.3
1440.9
1442.18
1442.65
1443.14
1443.49
1443.97
1443.96
1444.06
1444.32
1444.71
1426.41
1426.18
1425.27
1424.42
1423.41
1422.92
1422.33
1421.8
1421.21
1420.51
1419.57
1418.57
1417.52
1416.15
1414.66
1413
1411.97
1411.08
1411.5
1411.38
1412.05
1412.63
1413.62
1414.49
1415.28
1417.99
1414.49
1414.73
1416.28
1418.34
1420.03
1421.07
1424.59
1422.47
1423.05
1423.68
1423.59
1423.69
1424.21
1424.63
1406.45
1406.03
1405.59
1405.44
1404.3
1402.89
1402.19
1401.63
1401.05
1400.64
1400.19
1399.53
1398.74
1397.81
1396.93
1396.05
1395.38
1394.96
1394.7
1394.82
1394.95
1395.2
1395.99
1396.49
1396.58
1396.39
1397.83
1397.31
1397.1
1398.95
1400.87
1401.72
1408.87
1403.96
1404.32
1404.26
1403.28
1403.54
1404.92
1405.28
1386.91
1386.52
1386.17
1385.87
1385.07
1384.22
1383.53
1382.73
1381.78
1381.36
1381.01
1380.57
1380.28
1379.86
1379.34
1378.78
1378.34
1378.04
1377.96
1377.97
1378.42
1378.52
1378.93
1379.23
1379.08
1379.62
1380.14
1379.83
1379.86
1381.38
1383.1
1383.6
1390.49
1385.72
1387.17
1386.41
1386.24
1387.19
1387.66
1387.48
1367.76
1367.52
1367.26
1367.08
1366.85
1366.26
1365.57
1364.9
1364.02
1363.34
1362.96
1362.65
1362.37
1362.19
1361.82
1361.51
1361.25
1361.07
1361.01
1361.04
1361.2
1361.38
1361.46
1361.71
1361.79
1361.5
1364.04
1364.25
1364.11
1364.63
1365.68
1365.72
1371.53
1368.16
1368.02
1368.03
1368.52
1370.43
1370.86
1370.42
1348.92
1348.93
1348.95
1348.76
1348.46
1348.13
1348.04
1347.17
1346.12
1345.78
1345.34
1345.04
1344.81
1344.56
1344.3
1344.08
1343.89
1343.72
1343.73
1343.71
1343.63
1343.67
1343.61
1343.55
1343.75
1343.44
1347.15
1347.92
1347.46
1347.99
1348.55
1348.21
1350.89
1351.23
1347.95
1348.76
1350.14
1352.56
1352.65
1352.17
1329.86
1329.87
1329.98
1330.04
1329.97
1329.75
1329.44
1329.26
1328.75
1328.19
1328.37
1327.71
1327.28
1327.05
1326.73
1326.45
1326.33
1326.29
1326.09
1325.84
1325.94
1325.97
1325.47
1325.57
1325.12
1327.41
1328.11
1329.19
1329.56
1330.17
1330.74
1330.88
1332.69
1334.1
1330.91
1330.24
1331.07
1331.91
1334.32
1333.66
1311.17
1310.78
1310.87
1310.99
1311.23
1311.36
1311.22
1310.85
1310.24
1310.42
1310.48
1310.25
1309.7
1309.48
1309.24
1308.94
1308.63
1308.27
1308.17
1307.97
1307.81
1307.51
1307.59
1308.37
1308.7
1308.75
1309.12
1309.59
1310.07
1310.69
1311.38
1311.99
1312.62
1314.23
1313.43
1310.52
1311.04
1311.08
1311.31
1316.55
1291.58
1291.54
1291.39
1291.59
1291.88
1292.18
1292.14
1292.51
1292.57
1292.41
1292.23
1292.06
1291.8
1291.41
1290.89
1290.37
1290.04
1289.91
1289.39
1289.07
1289.73
1289.84
1289.91
1290.16
1288.34
1289.19
1289.52
1289.89
1290.3
1290.76
1291.24
1291.5
1291.47
1291.16
1290.12
1289.47
1288.98
1288.47
1287.97
1294.2
1271.79
1271.62
1272.04
1272.88
1273.6
1274.02
1273.97
1273.94
1273.65
1273.62
1273.4
1273.15
1272.78
1272.43
1272.09
1272.26
1271.76
1271.07
1270.6
1273.69
1273.09
1269.45
1269.75
1269.24
1269.05
1269.37
1269.82
1270.21
1270.55
1270.86
1271.08
1271.1
1270.83
1270.33
1269.58
1268.54
1267.31
1265.81
1265.09
1268.25
1252.84
1253.28
1253.82
1254.54
1255.15
1255.46
1255.71
1255.64
1255.43
1255.12
1254.72
1254.3
1253.75
1253.22
1252.28
1252.5
1252.8
1251.56
1251.25
1251.16
1251.12
1250.89
1251.16
1251.2
1250.87
1250.19
1250.34
1250.66
1251.05
1251.38
1251.57
1251.55
1251.28
1250.71
1249.89
1248.56
1246.75
1244.92
1245.57
1246.43
1234.57
1234.85
1235.82
1235.93
1236.57
1237
1237.09
1236.94
1236.63
1236.14
1235.64
1235.16
1234.5
1233.64
1231.77
1230.49
1231.19
1231.3
1231.47
1231.62
1231.74
1231.97
1232.21
1231.8
1231.07
1230.83
1230.94
1231.19
1231.43
1231.73
1232.04
1232.23
1232.27
1232.09
1231.51
1230.19
1227.94
1227.88
1228.89
1229.04
1215.44
1215.57
1215.91
1216.91
1217.73
1218.29
1218.41
1218.26
1217.87
1217.42
1217.1
1216.54
1215.72
1214.8
1214.59
1213.66
1212.18
1212.71
1212.23
1211.61
1210.85
1211.06
1211.72
1211.86
1211.4
1210.96
1210.89
1211.12
1211.4
1211.85
1212.38
1212.92
1213.44
1213.71
1213.46
1212.63
1211.09
1212.47
1212.53
1212.79
1198
1194.82
1194.62
1195.63
1196.87
1197.91
1198.29
1198.57
1198.63
1198.59
1198.58
1198.44
1197.88
1198.27
1197.42
1196.46
1195.18
1194.17
1193.15
1191.85
1190.89
1190.7
1190.77
1190.4
1189.91
1189.83
1190.21
1190.6
1191
1191.57
1192.2
1192.9
1193.76
1194.59
1195.14
1195.33
1195.06
1195.9
1196.21
1196.43
1178.14
1177.25
1175.95
1174.98
1176.68
1178.44
1178.96
1180.6
1182.23
1182.41
1181.93
1181.28
1180.74
1180.77
1180.1
1179.21
1177.23
1176.34
1175.12
1173.55
1172.11
1171.18
1170.26
1169.52
1172.29
1171.71
1169.78
1170.01
1170.28
1170.75
1171.45
1172.28
1173.63
1175.11
1175.95
1176.59
1177.25
1178.4
1179.4
1179.74
1161.08
1160.82
1160.24
1158.46
1159.32
1160.27
1160.67
1162.39
1163.45
1163
1162.85
1163.27
1162.72
1161.25
1160.91
1160.22
1159.5
1158.15
1156.68
1155.02
1153.56
1152.71
1153.6
1153.2
1153.11
1153.07
1150.86
1150.11
1149.57
1149.52
1149.89
1151.18
1153.96
1155.1
1155.84
1156.68
1157.54
1158.44
1159.82
1162.54
1143.1
1142.18
1141.79
1141.7
1141.79
1141.78
1142.13
1142.55
1142.9
1143.18
1143.54
1143.46
1142.51
1141.68
1141.54
1141.31
1140.38
1138.72
1137.45
1137.56
1137.6
1136.64
1135.67
1134.72
1134.34
1132.45
1130.7
1129.97
1129.6
1129.87
1130.45
1132.78
1135.05
1135.35
1136.21
1136.8
1137.38
1137.96
1138.54
1138.4
1124.64
1124.19
1123.35
1123.7
1123.17
1123.01
1123.04
1123.2
1123.44
1123.64
1123.74
1123.36
1122.58
1122.37
1122.12
1121.75
1121.55
1121.78
1121.48
1119.73
1117.56
1116.07
1114.79
1113.53
1113.58
1112.75
1111.61
1110.79
1111.04
1112.04
1113.5
1115.2
1116.83
1116.87
1117.01
1117.04
1116.93
1117.11
1117.41
1117.89
1105.03
1104.66
1104.43
1104.86
1103.89
1103.75
1103.71
1103.74
1103.84
1103.99
1104.04
1103.79
1103.44
1103.61
1104.87
1105.04
1104.72
1102.3
1100.23
1099.63
1098.46
1097.3
1096.1
1094.85
1093.61
1092.68
1092.03
1092.51
1093.67
1095.1
1096.59
1097.79
1098.68
1098.47
1097.81
1097.04
1097.59
1098.58
1098.98
1099.26
1084.99
1084.78
1084.6
1084.51
1084.1
1083.98
1083.92
1083.92
1084.07
1084.37
1084.67
1084.95
1085.28
1086.21
1086.45
1084.24
1083.45
1083.44
1082.55
1081.09
1079.32
1077.51
1076.04
1075.37
1074.93
1074.15
1074.32
1075.26
1076.4
1077.71
1078.95
1079.46
1079.48
1079.33
1079.26
1078.98
1080.54
1081.4
1082.12
1082.69
1064.88
1064.75
1064.63
1064.5
1064.35
1064.33
1064.39
1064.53
1064.91
1065.42
1065.95
1066.35
1066.71
1070.58
1065.29
1065.57
1064.36
1062.9
1061.59
1060.4
1060.45
1060.14
1059.64
1059.39
1059.44
1059.49
1059.58
1059.62
1059.85
1060.38
1060.64
1060.49
1059.38
1059.5
1060
1061.06
1062.53
1063.63
1064.95
1065.54
1044.49
1044.47
1044.4
1044.36
1044.47
1044.84
1045.23
1045.67
1046.19
1046.77
1047.46
1047.99
1048.51
1051.22
1044.97
1043.78
1042.3
1040.81
1040.6
1040.62
1040.62
1041.2
1041.34
1042.39
1042.85
1043.2
1043.22
1042.51
1042.82
1042.5
1042.03
1040.83
1042
1042.01
1042.11
1041.86
1044.94
1045.46
1045.96
1046.08
1024.29
1025.75
1025.06
1025.34
1025.57
1025.61
1025.83
1026.54
1027.25
1027.96
1028.58
1028.87
1027.95
1029.02
1023.52
1022.37
1020.18
1017.66
1017.3
1017.82
1019.27
1021.2
1023.1
1024.46
1025.42
1025.51
1025.7
1025.14
1024.11
1022.84
1023.31
1021.57
1022.49
1022.17
1022.32
1023.26
1024.9
1026.38
1027.63
1028.17
1005.71
1006.61
1006.86
1006.84
1007.18
1007.36
1007.12
1007.58
1007.99
1008.17
1007.9
1006.63
1010.82
1004.54
1001.83
999.674
996.274
992.226
989.667
991.585
996.086
1000.41
1003.63
1005.54
1006.65
1007.38
1007.91
1007.07
1006.3
1004.38
1001.88
1001.2
1000.04
998.939
998.599
999.122
1000.58
1002.82
1004.75
1006.35
987.649
988.471
988.711
988.73
988.679
988.409
988.166
988.306
988.355
988.449
988.109
987.379
987.831
985.534
978.524
979.006
974.755
974.477
972.035
971.202
972.464
976.613
980.475
982.223
981.821
981.77
981.589
981.755
981.588
980.957
980.302
978.984
976.76
973.166
971.301
971.276
972.691
975.191
978.837
980.95
968.713
968.975
969.679
969.512
969.169
969.12
968.976
968.827
968.481
968.674
967.942
967.011
966.929
968.078
962.103
959.317
957.408
951.127
953.379
951.881
950.159
950.939
951.443
950.447
947.025
943.451
940.953
940.23
942.639
946.338
949.77
950.927
951.927
952.417
952.63
952.626
954.237
957.799
962.322
966.919
949.696
949.747
949.852
949.906
949.943
949.878
949.746
949.582
949.161
948.848
948.257
947.299
947.027
944.983
945.1
937.568
935.252
934.609
932.011
934.704
929.68
930.576
926.864
918.567
911.192
911.009
912.004
915.414
915.938
916.08
922.803
930.675
936.516
939.309
940.414
941.814
943.659
947.639
951.213
957.128
930.705
930.675
930.753
930.924
930.919
930.808
930.633
930.336
929.865
929.035
928.848
926.814
926.113
924.219
920.276
917.845
914.92
916.728
916.761
914.983
917.763
919.37
914.416
903.848
904.1
902.476
902.414
903.045
904.748
908.594
912.671
915.684
920.918
925.312
927.674
928.844
930.44
932.616
935.532
940.287
911.934
912.011
912.203
912.303
912.288
912.048
911.661
911.171
910.476
909.48
909.225
907.047
906.654
904.085
901.638
901.662
900.927
900.07
898.544
900.565
902.194
898.621
896.212
893.393
899.754
899.963
900.289
901.508
903.537
905.155
906.441
906.185
909.448
911.866
913.814
912.825
913.37
915.194
916.528
917.489
893.567
893.846
894.194
894.378
894.268
893.865
893.27
892.533
891.684
891.011
890.254
889.038
887.677
886.958
884.815
886.472
885.039
882.999
879.691
886.24
886.373
886.717
892.104
889.391
890.804
891.725
892.948
894.618
896.821
896.912
892.162
893.159
894.788
895.697
895.484
895.649
895.984
896.34
896.585
897.827
875.581
875.774
876.1
876.473
876.612
875.823
874.993
874.158
873.414
872.83
872.489
871.677
870.713
870.402
869.519
870.773
869.363
869.134
868.285
869.776
873.99
868.607
877.525
866.186
875.881
876.255
876.505
879.867
881.294
880.628
879.386
876.094
876.04
875.816
875.598
874.677
873.736
873.165
872.969
874.27
857.071
857.689
857.989
858.039
857.943
858.286
856.683
855.763
854.718
853.77
853.438
852.944
852.702
852.862
853.028
853.624
852.495
858.312
852.322
855.032
855.497
852.829
853.69
852.128
845.638
853.983
859.151
860.208
861.741
862.279
861.306
861.411
856.855
855.968
855.206
854.612
854.428
852.929
853.947
857.101
839.46
839.708
839.898
839.856
839.56
839.035
838.303
837.323
836.263
835.559
834.474
833.622
833.445
833.792
834.598
835.11
835.082
842.624
835.188
836.742
835.29
833.93
833.276
830.081
830.129
830.579
831.487
836.745
838.383
839.844
839.695
845.08
837.304
837.546
837.054
837.617
838.819
839.678
841.597
843.338
822.717
822.159
822.095
821.793
821.487
821.052
820.464
819.55
818.596
817.451
816.225
815.993
816.266
816.552
816.872
817.334
818.101
818.244
823.046
817.681
819.846
816.071
818.66
817.318
815.238
814.365
814.441
814.24
814.77
818.688
819.798
825.752
821.768
822.597
821.312
821.159
822.16
825.659
827.437
831.3
806.442
804.533
804.268
804.272
803.491
803.117
803.104
802.56
801.891
801.142
800.2
800.161
799.835
800.61
800.939
800.017
801.43
802.046
802.165
801.47
801.952
802.903
804.659
803.437
802.293
801.494
800.549
800.671
800.74
804.381
807.767
808.325
810.662
809.88
807.151
809.291
809.875
810.519
811.184
811.805
785.64
786.67
785.817
785.159
784.769
784.782
784.717
784.645
784.44
784.082
784.054
783.951
783.658
784.2
787.645
782.822
784.301
784.854
785.292
784.833
786.559
788.967
790.507
789.257
789.052
788.989
789.123
790.098
789.257
792.147
796.567
799.139
800.681
798.243
799.213
798.409
797.331
797.263
797.766
796.298
766.794
767.355
769.375
767.242
766.86
767.054
767.01
766.686
766.278
766.374
767.013
767.274
766.838
765.916
774.466
766.527
768.726
768.039
766.121
773.493
768.395
773.208
774.684
775.094
776.056
776.326
776.335
777.031
777.871
780.06
783.484
786.685
788.866
787.925
783.367
780.813
779.366
780.249
778.989
780.422
746.185
746.872
755.861
750.923
751.007
750.176
749.356
748.651
749.835
753.248
749.924
750.934
751.391
750.042
752.046
753.024
751.772
750.657
751.112
753.733
752.072
759.28
759.252
759.945
765.013
765.239
762.302
761.672
762.637
763.032
766.45
768.294
768.301
768.479
767.171
762.986
762.226
760.322
759.278
760.566
726.055
728.401
732.119
733.992
733.794
734.624
734.794
734.507
734.228
734.697
733.961
735.874
735.769
732.915
734.211
736.13
736.905
736.903
737.406
739.24
738.523
742.215
742.162
743.03
754.465
747.041
744.681
744.156
744.01
744.067
744.44
746.876
746.375
746.525
744.607
744.504
747.156
747.259
743.859
747.118
713.246
713.96
715.77
716.228
717.41
717.395
717.499
717.794
718.45
717.801
717.711
717.633
714.938
715.439
717.093
718.566
718.93
718.689
718.763
721.194
718.476
720.55
721.969
723.646
724.923
725.352
725.277
724.748
723.886
722.7
721.226
729.946
725.457
727.43
723.559
728.105
730.38
730.853
730.323
734.476
698.403
699.196
699.995
699.519
699.334
699.661
699.587
699.338
699.955
699.923
697.61
697.405
699.904
700.172
700.433
700.415
699.52
701.126
701.466
700.196
697.482
697.023
700.296
702.794
704.404
705.833
706.743
706.749
706.39
705.496
706.655
708.92
703.687
705.37
704.691
709.394
713.449
710.413
710.079
711.053
683.545
682.593
681.821
681.605
681.379
681.117
680.955
680.902
681.151
681.035
680.417
683.315
685.22
684.564
684.238
682.714
684.261
683.625
681.129
680.608
681.52
679.591
679.956
682.52
685.416
687.952
689.795
691.031
692.254
692.336
692.034
690.192
689.22
688.74
689.202
690.641
690.294
692.384
690.898
690.961
668.118
665.217
663.892
664.323
663.885
662.986
662.303
661.921
662.265
662.779
663.382
664.318
665.269
666.625
666.455
664.118
664.939
664.767
664.463
664.377
663.969
663.857
665.115
666.416
669.2
672.546
674.544
675.699
678.749
677.16
675.081
673.738
670.028
673.447
670.437
673.697
673.978
671.106
671.483
672.936
654.542
654.169
651.784
648.686
648.251
648.215
646.479
644.514
645.017
645.607
646.493
647.96
648.741
648.147
647.317
646.394
645.825
648.484
649.645
650.054
650.711
651.371
652.228
652.655
655.159
658.982
661.091
663.727
661.298
658.244
655.862
653.89
650.573
651.908
652.523
652
652.957
653.161
653.84
654.774
632.947
631.946
632.383
634.455
634.753
634.519
633.151
628.726
632.049
629.305
630.297
630.265
629.929
630.451
631.089
631.968
632.891
634.244
633.035
634.591
635.405
636.292
636.359
634.625
636.199
640.231
644.018
643.124
640.022
637.309
635.122
633.007
631.705
632.374
634.73
636.479
636.897
636.436
635.84
636.595
614.439
614.574
614.424
613.466
613.129
613.073
612.345
611.331
611.785
611.276
611.493
612.781
612.458
612.916
613.622
614.712
615.544
616.467
615.931
619.635
618.595
618.784
615.684
609.614
607.678
613.513
615.525
613.454
611.119
610.281
605.448
602.852
604.302
608.792
612.25
613.579
615.59
616.137
616.574
616.163
593.904
594.828
594.949
594.631
594.536
593.944
593.596
593.313
593.11
592.805
592.642
591.849
593.465
594.153
594.587
596.8
597.56
598.532
602.53
602.821
598.55
601.62
592.288
577.595
588.869
585.84
593.674
591.56
585.272
584.789
588.414
589.703
579.07
587.394
591.618
592.943
594.656
595.873
596.863
597.378
575.462
575.7
575.649
575.12
574.894
575.67
574.978
574.8
574.602
574.387
574.057
573.811
574.349
574.887
575.059
577.876
578.297
578.986
586.354
580.638
581.898
586.42
580.562
566.985
572.663
574.796
573.736
573.339
578.702
580.221
580.212
578.277
573.079
573.673
575.402
575.542
576.013
576.506
577.307
577.539
554.314
554.508
555.109
556.23
557.121
556.705
556.64
556.448
556.052
555.624
555.628
555.849
555.888
556.157
556.102
557.743
557.471
562.093
560.996
563.474
565.033
565.169
569.601
560.402
565.084
566.028
565.045
563.041
562.944
564.339
566.697
562.719
557.933
557.716
557.801
557.533
558.081
558.264
558.212
558.706
530.249
530.448
531.412
532.566
534.145
535.794
536.43
536.252
536.25
536.011
535.699
537.147
536.288
535.748
536.741
537.588
538.912
543.573
543.265
542.761
542.504
543.755
541.394
540.28
542.82
543.321
541.488
542.561
545.217
543.442
543.032
541.902
540.242
539.802
538.669
537.176
537.897
536.748
537.837
538.708
504.013
503.024
503.229
504.477
506.767
509.558
511.503
513.618
515.14
515.417
515.556
515.655
515.457
515.733
516.6
517.6
520.48
519.928
521.246
520.537
519.949
520.473
520.714
520.545
519.536
520.156
523.326
523.619
522.834
522.111
521.706
520.682
519.626
518.585
518.015
516.67
513.776
514.056
515.272
516.669
474.288
471.774
471.305
472.662
475.488
478.883
482.7
486.76
490.559
493.571
495.08
495.484
494.786
494.245
495.333
496.038
497.567
498.369
499.978
501.738
500.964
501.631
498.392
497.355
496.555
496.294
495.664
495.278
496.054
497.788
498.964
499.929
500.085
499.333
500.071
497.172
491.12
489
489.003
491.557
437.679
434.05
433.759
435.764
439.656
444.866
451.106
457.743
464.089
470.175
474.083
474.576
473.293
472.449
475.69
474.273