/*--------------------------------*- C++ -*----------------------------------*\
  =========                 |
  \\      /  F ield         | OpenFOAM: The Open Source CFD Toolbox
   \\    /   O peration     | Website:  https://openfoam.org
    \\  /    A nd           | Version:  8
     \\/     M anipulation  |
\*---------------------------------------------------------------------------*/
FoamFile
{
    version     2.0;
    format      ascii;
    class       volScalarField;
    location    "8.45";
    object      p_rgh;
}
// * * * * * * * * * * * * * * * * * * * * * * * * * * * * * * * * * * * * * //

dimensions      [1 -1 -2 0 0 0 0];

internalField   nonuniform List<scalar> 
9150
(
1963.7
1962.67
1962.04
1961.58
1961.34
1961.36
1961.58
1962.04
1962.66
1963.69
1963.26
1962.73
1962.31
1962
1961.82
1961.79
1961.98
1962.31
1962.73
1963.26
1962.98
1962.69
1962.44
1962.22
1962.11
1962.1
1962.22
1962.44
1962.69
1962.98
1962.86
1962.68
1962.52
1962.35
1962.27
1962.28
1962.36
1962.52
1962.68
1962.86
1962.86
1962.68
1962.54
1962.41
1962.35
1962.36
1962.41
1962.54
1962.68
1962.86
1951.84
1951.1
1951.44
1951.78
1951.98
1951.99
1951.81
1951.46
1951.1
1951.84
1955.94
1955.23
1955.14
1955.06
1955.16
1955.17
1955.08
1955.17
1955.26
1955.97
1959.11
1958.34
1958.07
1957.68
1957.61
1957.65
1957.71
1958.1
1958.35
1959.11
1961.88
1960.69
1960.24
1959.62
1959.43
1959.42
1959.58
1960.21
1960.65
1961.84
1964.4
1962.32
1961.57
1960.88
1960.6
1960.6
1960.88
1961.56
1962.32
1964.4
1947.51
1945.85
1943.88
1942.83
1942.21
1942.12
1942.61
1943.69
1945.69
1947.28
1946.54
1946.17
1945.09
1944.74
1944.28
1944.28
1944.82
1945.06
1946.1
1946.43
1945.82
1946.02
1944.93
1945.39
1944.86
1944.83
1945.29
1944.86
1945.97
1945.77
1942.62
1945.54
1944.52
1946.02
1945.9
1945.91
1946.05
1944.51
1945.53
1942.6
1936.83
1946.25
1946.77
1948.11
1948.57
1948.53
1948.06
1946.72
1946.23
1936.8
1673.2
1672.99
1673.09
1672.99
1673.04
1672.97
1672.88
1672.79
1672.69
1672.61
1673.17
1672.99
1672.88
1672.82
1672.75
1672.91
1672.87
1672.78
1672.69
1672.59
1673.09
1673.15
1672.93
1672.79
1672.73
1672.65
1672.59
1672.73
1672.72
1672.6
1672.82
1673.27
1673.03
1672.77
1672.72
1672.65
1672.56
1672.78
1672.66
1672.51
1672.63
1673.17
1672.8
1672.73
1673.22
1672.74
1672.59
1672.7
1672.58
1672.41
1672.24
1673.02
1672.54
1672.57
1672.97
1672.72
1672.54
1672.64
1672.51
1672.33
1672.1
1672.6
1672.23
1672.52
1672.6
1672.31
1672.46
1672.48
1672.37
1672.21
1672.04
1672.17
1672.26
1672.3
1672.33
1672.05
1672.09
1672.31
1672.23
1672.09
1671.89
1671.99
1672.08
1672.14
1672.19
1671.85
1671.84
1672.21
1672.16
1672.07
1671.85
1671.9
1671.69
1672.03
1672.1
1671.87
1671.73
1671.76
1672.17
1672.13
1672.06
1671.24
1671.2
1671.7
1672.1
1672.14
1671.79
1671.71
1672
1672.09
1671.36
1671.09
1671.09
1671.73
1672.07
1672.08
1672.08
1671.62
1671.97
1672.04
1671.12
1671.08
1671.55
1672.11
1672.05
1672.01
1671.95
1671.87
1671.76
1671.59
1671.16
1671.74
1672.17
1672.07
1671.99
1671.92
1671.82
1671.69
1671.51
1671.28
1671.73
1672.3
1672.15
1672.05
1671.98
1671.88
1671.76
1671.62
1671.47
1671.3
1672.51
1672.33
1672.16
1672.01
1669.57
1671.49
1671.89
1671.82
1671.74
1671.64
1672.24
1671.9
1670.89
1667.21
1667.22
1667.88
1672.17
1672.25
1672.26
1672.25
1671.46
1671.14
1670.47
1669.03
1667.71
1662.91
1664.21
1670.04
1672.33
1672.66
1671.09
1671.42
1667.37
1661.97
1662.19
1662.74
1663.05
1663.24
1664.29
1664.6
1661.48
1661.59
1661.87
1662.25
1663.18
1668.85
1669.01
1670.45
1672.03
1671.41
1662.27
1662.45
1663.01
1673.78
1674.83
1674.88
1674.76
1674.51
1674.15
1673.78
1663.21
1663.21
1673.29
1675.62
1675.5
1675.35
1675.17
1674.97
1674.69
1674.32
1670.81
1667.39
1675.81
1675.98
1675.89
1675.77
1675.69
1675.66
1675.64
1675.49
1677.07
1677
1676.85
1676.44
1676.11
1675.97
1675.83
1675.89
1675.98
1675.94
1678.12
1677.94
1677.64
1677.24
1676.48
1676.22
1676.12
1676.23
1676.27
1657.98
1679.55
1679.31
1678.91
1678.28
1676.64
1652.99
1634.19
1632.44
1636.43
1622.73
1670.14
1681.11
1680.98
1673.76
1628.47
1624.37
1624.28
1624.08
1623.87
1623.59
1656.8
1674.3
1682.86
1682.46
1647.61
1624.87
1624.62
1624.18
1623.79
1638.72
1661.83
1662.11
1680.08
1683.93
1682.72
1655.92
1640.18
1666.7
1678.94
1682.34
1680.88
1675.59
1676.11
1684.12
1684.59
1684.02
1683.15
1683.77
1683.64
1683.42
1684.25
1684.48
1676.54
1682.54
1684.71
1684.08
1683.41
1683.2
1683.11
1682.92
1683.47
1683.7
1681.02
1682.06
1683.87
1683.31
1682.38
1682.13
1682.33
1682.25
1682.49
1682.61
1682.51
1682.3
1682.13
1681.77
1680.74
1674.28
1680.97
1681.32
1681.5
1681.42
1681.78
1681.29
1679.9
1651.51
1625.65
1663.53
1680.79
1681.48
1637.6
1658.6
1683.31
1679.49
1623.11
1606.68
1607.47
1665.76
1682.41
1682.85
1604.16
1605.17
1638.07
1616.43
1603.67
1604.19
1607.63
1677.39
1682.92
1683.32
1603.05
1603.22
1603.03
1603.29
1603.14
1603.06
1645.84
1683.42
1683.64
1683.78
1603.19
1603.22
1603.03
1606.04
1603.15
1634.97
1683.59
1684.73
1684.49
1684.51
1603.56
1603.69
1623.17
1656.91
1647.25
1671.89
1686.14
1685.69
1685.39
1681.64
1672.33
1667.8
1683.26
1671.93
1665.57
1652.55
1651.54
1655.03
1661.08
1678.04
1685.42
1685.12
1685.12
1682.96
1681.09
1659.74
1649.7
1649.71
1649.43
1649.17
1629.01
1607.57
1665.32
1679.53
1679.95
1679.81
1677.37
1671.98
1648.99
1649.7
1531.29
1489.5
1488.02
1487.7
1490.47
1564.37
1676.66
1675.65
1675.55
1676.1
1491.46
1490.09
1488.88
1487.82
1486.99
1485.96
1485.04
1485.36
1517.28
1666.83
1494.9
1493.22
1491.4
1489.66
1488.18
1486.78
1486.46
1485.55
1484.87
1484.8
1547.59
1544.85
1569.48
1601.27
1632.13
1663.82
1625.01
1484.77
1484.04
1483.81
1696.61
1695.16
1694.08
1694.13
1694.69
1694.9
1692.9
1672.97
1659.45
1663.62
1695.65
1692
1606.62
1499.71
1590.06
1683.48
1691.5
1690.06
1690.35
1690.96
1635.64
1436.53
1429.94
1428.91
1427.22
1448.27
1646.29
1691.34
1690.1
1689.69
1427.84
1427.79
1427
1425.45
1423.53
1421.32
1419.32
1572.88
1690.43
1663.4
1428.82
1427.2
1541.36
1433.12
1421.17
1419.56
1418.59
1473.62
1660.86
1656.59
1451.34
1466.67
1632.19
1695.81
1576.98
1417.89
1417.18
1415.92
1623.79
1676.22
1715.73
1705.19
1685.62
1716.63
1716.5
1474.64
1416.84
1415.75
1419.25
1584.11
1716.09
1717.8
1711.16
1717.49
1717.24
1688.57
1505.9
1414.53
1414.29
1413.51
1717.55
1716.93
1716.51
1716.54
1716.55
1716.83
1700.99
1618.99
1553.5
1520.32
1709.73
1712.96
1714.37
1714.89
1715.7
1716.74
1717.88
1718.71
1718.69
1714.69
1708.87
1708.2
1701.06
1682.97
1694.75
1714.42
1716.04
1717.33
1718.18
1719
1375.08
1365.91
1458.43
1687.75
1713.01
1714.41
1707.7
1689.95
1690.85
1691.5
1369.02
1367.07
1365.82
1365.36
1365.64
1376.74
1623.34
1703.88
1709.64
1692.58
1373.93
1371.71
1370.11
1368.92
1367.23
1365.37
1367.34
1648.68
1717.2
1717.07
1654.93
1652.7
1650.96
1597.12
1532.75
1606.23
1695.14
1716.04
1714.51
1713.08
1656.21
1652.68
1649.27
1637.61
1541.45
1541.57
1537.84
1636.63
1709.09
1707.4
1589.82
1586.95
1609.64
1634.56
1575.74
1538.61
1533.99
1530.49
1527.2
1659.7
1657.32
1697.85
1723.8
1720.29
1715.04
1660.58
1570.25
1644.84
1690.83
1684.51
1525.7
1567.95
1658.51
1704.1
1698.29
1691.31
1683.96
1676.75
1669.41
1653.22
1358.7
1355.6
1399.86
1643.36
1678.42
1669.5
1659.51
1648.59
1637.47
1622.83
1342.08
1337.5
1334.3
1561.38
1660.45
1649.87
1636.47
1619.14
1601.67
1580.05
1360.06
1401.7
1436.91
1520.23
1632.11
1636.49
1622.91
1604.9
1585.3
1247.56
1664.37
1640.36
1607.12
1379.16
1465.14
1617.42
1619.56
1605.05
1446.88
902.28
1663.62
1596.68
1469.35
1367.77
1360.65
1573.87
1623.63
1611.93
1334.91
906.254
1629.01
1489.66
1430.23
1362.57
1356.38
1555.99
1627.05
1616.96
1301.24
908.434
1625.17
1491.69
1576.66
1394.12
1357.81
1595.99
1628.22
1620.1
1290.94
906.568
1650.74
1552.88
1582.25
1460.64
1414.9
1640.79
1634.07
1626.37
1283.66
905.346
1526.68
1583.49
1583.74
1422.49
1489.98
1651.4
1645.19
1628.61
1445.44
997.189
1209.27
1523.82
1491.39
1418.72
1516.62
1659.14
1647.91
1569.08
1540.59
1568.8
1191.03
1198.4
1359.27
1563.63
1650.99
1654.09
1572.7
1573.46
1590.06
1589.78
1184.73
1263.23
1627.46
1659.52
1660.44
1594.8
1582.05
1589.27
1605.37
1604.93
1415.53
1663.9
1667.88
1670.37
1671.36
1639.55
1594.38
1572.07
1618.43
1571.39
1680.37
1682.35
1684.2
1685.65
1686.49
1686.73
1683.63
1557.53
1518.85
1517.7
1699.63
1699.93
1700.81
1700.91
1700.04
1693.41
1695.84
1687.84
1583.89
1532.09
1715.23
1667.92
1652.01
1707.72
1676.47
1613.56
1613.44
1613.97
1701.36
1706.35
1694.87
1432.22
1380.99
1652.21
1705.32
1664.48
1627.44
1627.99
1628.51
1700.76
1502
1385.62
1383.85
1393.54
1709.51
1732.96
1732.22
1731.86
1649.16
1660.85
1706.73
1407.3
1395.56
1398.39
1399.79
1396.96
1680.42
1767.14
1766.6
1768.87
1742.23
1765.99
1701.72
1464.38
1411.39
1405.41
1397.63
1390.21
1550.01
1780.02
1720.7
1752.44
1773.48
1788.31
1771.37
1742.32
1626.16
1386.95
1386.76
1383.53
1116.32
1323.73
1715.04
1750.78
1766.51
1711.62
1632.8
1579.25
1364.95
1369.08
428.59
400.022
980.45
1737.72
1750.64
1593.6
1412.27
1461.94
1634.83
1558.17
1365.16
370.923
307.292
1713.5
1762.48
1647.95
1429.11
1446.5
1695.31
1703.04
389.146
398.866
203.25
1416.24
1775.93
1769.12
1482.36
1470.84
1633.96
1716.74
23.8336
377.245
85.9572
1185.48
1783.28
1797.75
1666.36
1486.28
1725.23
1725.24
1.06207
254.967
28.1837
1056.3
1796.28
1806.6
1667.94
1673.03
1694.83
1723.75
2.53091
32.337
28.3629
1305.23
1814.03
1819.79
1629.38
1122.19
1234.25
1177.05
3.5258
1.13839
64.6839
1558.75
1831.8
1833
1635
586.522
709.285
560.142
2.66624
0.485222
333.704
1717.79
1851.59
1851.72
1723.56
412.725
382.756
40.1237
0.168248
0.318338
704.163
1835.02
1872.54
1871.67
1821.08
590.961
1.21567
0.559273
0.0642108
0.28016
1261.62
1891.56
1892.06
1891.34
1889.37
1104.48
0.661211
0.635752
0.0477395
157.899
1689.72
1910.64
1911.58
1911.08
1909.35
1612.99
111.637
0.282046
0.0351183
1044.73
1923.35
1926.58
1926.62
1926.66
1927.29
1927.01
1091.97
-0.00221242
576.051
1862.22
1939.12
1937.14
1936.59
1936.82
1937.53
1939.26
1867.82
592.631
1672.52
1672.44
1672.33
1672.16
1671.81
1671.51
1671.2
1670.84
1670.78
1670.57
1670.17
1670.7
1670.54
1670.45
1670.47
1670.62
1670.79
1670.92
1671.13
1671.45
1671.45
1670.94
1670.09
1669.29
1668.6
1668.02
1667.41
1666.96
1666.74
1666.63
1666.65
1666.73
1666.84
1666.94
1667.05
1667.09
1667.03
1667.08
1667.17
1667.19
1672.49
1672.35
1672.19
1671.99
1671.81
1671.57
1671.23
1670.92
1670.75
1670.34
1669.61
1669.76
1669.58
1669.65
1669.98
1670.25
1670.41
1670.38
1670.42
1670.54
1670.46
1670.05
1669.41
1668.46
1667.86
1667.42
1667.13
1666.56
1666.26
1666.25
1666.61
1666.68
1666.74
1666.76
1666.74
1667
1666.87
1667.16
1667.24
1667.4
1672.36
1672.2
1671.99
1671.82
1671.62
1671.4
1671.15
1670.94
1670.62
1669.04
1668.73
1668.65
1668.55
1669.61
1670.22
1670.04
1670.24
1670.33
1670.35
1670.35
1669.8
1668.85
1667.79
1666.94
1666.22
1665.85
1665.97
1665.52
1665.59
1666.01
1666.31
1666.49
1666.49
1666.32
1665.9
1666.14
1666.24
1666.66
1667.61
1667.32
1672.19
1671.99
1671.75
1671.67
1671.41
1671.14
1670.9
1670.5
1668.16
1667.81
1667.66
1667.54
1669.53
1669.75
1670.24
1669.98
1670.27
1670.47
1670.31
1670.79
1669.88
1668.17
1666.57
1664.68
1663.4
1663.05
1662.77
1662.63
1663.09
1663.97
1665.55
1666.61
1666.6
1665.67
1665.6
1665.73
1665.82
1667.59
1667.62
1666.27
1672.09
1671.81
1671.55
1671.51
1671.24
1670.65
1668.34
1667.79
1667.58
1667.67
1669.79
1669.68
1667.04
1667.29
1667.01
1668.91
1671.09
1671.37
1671.18
1670.17
1668.81
1667.59
1666.24
1665.19
1663.11
1661.72
1661.92
1662.23
1662.78
1663.33
1664.1
1666.31
1666.78
1666.83
1666.56
1666.42
1667.12
1667.53
1665.43
1663.96
1672.09
1671.76
1671.62
1671.41
1670.85
1667.67
1667.19
1666.97
1667.48
1667.1
1665.34
1665.05
1666.72
1669.06
1668
1667.62
1668.15
1668.38
1667.64
1667.02
1666.44
1665.63
1664.81
1664.37
1664.49
1664.29
1662.99
1664.32
1666.84
1667.44
1666.75
1665.66
1665.63
1666.22
1666.78
1666.79
1665.49
1664.52
1662.47
1663.01
1672
1671.74
1671.48
1671.3
1669.66
1666.55
1666.41
1667.68
1665.62
1662.95
1662.64
1663.16
1667.74
1667.08
1666.34
1665.35
1664.08
1662.96
1662.54
1661.92
1661.56
1661.33
1661.53
1662.14
1662.99
1664.02
1665.11
1666.24
1667.35
1667.78
1663.13
1662.24
1662.29
1662.11
1662.29
1662.65
1663.16
1663.4
1667.28
1665.63
1671.9
1671.64
1671.32
1671.03
1667.88
1665.8
1665.28
1669.51
1664.21
1661.57
1660.38
1662.57
1665.99
1664.82
1663.59
1662.26
1660.33
1657.85
1655.43
1654.02
1654.58
1655.25
1656.14
1657.77
1659.61
1661.78
1664.03
1665.94
1667.6
1667.86
1663.77
1663.36
1663.57
1663.5
1663.66
1670.13
1670.21
1669.42
1671.42
1671.45
1671.86
1671.6
1671.23
1670.21
1664.87
1664.52
1664.23
1671.31
1665.89
1659.59
1658.67
1660.36
1664.21
1662.87
1661.32
1659.51
1657.04
1642.71
1634.91
1632.68
1634.67
1641.26
1642.82
1650.47
1655.49
1658.96
1662.01
1664.38
1666.74
1668.99
1670.93
1670.3
1665.31
1664.51
1669.93
1671.37
1671.29
1671.34
1671.31
1671.34
1671.72
1671.65
1671.23
1669.44
1664.12
1663.69
1664.4
1669.48
1668.11
1660.09
1657.57
1661.11
1663.04
1661.52
1659.98
1658.36
1655.59
1635.47
1633.13
1631.87
1632.1
1633.26
1634.79
1635.05
1641.82
1656.96
1660.09
1662.9
1665.38
1667.78
1670.02
1671.53
1672.29
1672.44
1668.17
1668.33
1668.14
1670.18
1671.16
1670.84
1671.67
1671.59
1671.18
1670.25
1664.65
1663.16
1666.61
1667.98
1667.27
1664.63
1661.31
1663.48
1662.5
1661.11
1659.8
1657.09
1640.48
1635.5
1634.52
1636.73
1648.95
1654.97
1653.02
1640.41
1638.62
1642.04
1659.43
1661.87
1664.02
1666.21
1668.23
1669.85
1670.43
1670.7
1670.49
1670.4
1668.05
1666.51
1666.64
1667.43
1671.35
1671.48
1670.85
1670.15
1669.08
1666.39
1667.79
1667.12
1666.38
1665.22
1664.71
1663.45
1662.11
1660.71
1659.33
1655.17
1635.37
1634.13
1646.14
1656.48
1656.14
1656.83
1657.61
1658.73
1642.58
1640.16
1659.09
1660.77
1662.63
1664.6
1666.28
1667.55
1667.78
1668.49
1668.87
1669.35
1669.34
1665.83
1665.15
1665.53
1671.31
1670.45
1669.92
1667.15
1668.03
1667.73
1667.14
1666.62
1665.99
1664.81
1664.13
1663.42
1662.47
1661.1
1659.62
1657.73
1652.53
1649.44
1647.85
1651.47
1657.01
1657.59
1658.58
1659.45
1659.06
1641.52
1654.37
1654.43
1659.89
1663.32
1665.01
1665.71
1653.15
1665.39
1667.88
1668.65
1668.56
1667.5
1668.01
1665.31
1670.98
1670.56
1663.66
1658.84
1657.76
1659.62
1664.11
1666.03
1665.42
1664.48
1663.95
1663.29
1662.52
1661.89
1661.48
1660.59
1659.93
1659.51
1659.25
1659.36
1658.8
1659.47
1660.55
1661.04
1660.5
1641.04
1630.83
1632.01
1649.43
1663.51
1665.45
1664.72
1647.17
1661.96
1668.87
1668.78
1663.22
1658.99
1658.97
1665.12
1671.04
1670.65
1662.9
1657.97
1657.16
1656.29
1655.61
1657.69
1663.78
1665.38
1665.04
1664.01
1663.55
1663.13
1662.61
1662.74
1662.49
1662.19
1662.11
1661.25
1659.38
1659.82
1662.98
1663.38
1660.14
1630.54
1630.19
1629.89
1641.17
1665.32
1667.27
1665.69
1646.41
1660.33
1671.31
1670.04
1658.3
1656.22
1656.66
1661.96
1671.48
1671.24
1669.93
1662.59
1657.7
1657.1
1656.41
1655.74
1657.32
1666.74
1666.58
1666.28
1665.66
1665
1665.08
1665.25
1665
1664.81
1664.72
1661.51
1661.53
1661.71
1664.4
1665.46
1665.52
1640.8
1631.35
1631.55
1646.9
1668.3
1669.46
1667.41
1645.06
1657.6
1671.75
1671.75
1670.94
1660.13
1658.41
1657.97
1672.24
1672.25
1672.27
1671.74
1667.99
1661.06
1657.64
1658.14
1663.36
1667.62
1667.14
1668.24
1668.09
1667.85
1667.65
1667.42
1667.24
1666.65
1663.46
1663.41
1663.34
1664.52
1666.94
1666.88
1667.08
1643.9
1631.87
1633.62
1666.83
1671.37
1671.93
1668.44
1642.07
1642.41
1665.29
1672.09
1673.47
1675.89
1667.28
1662.85
1672.58
1671.94
1670.54
1670.92
1670.87
1670.63
1668.86
1670.14
1669.51
1662.87
1661.16
1663.91
1670.12
1669.99
1669.67
1669.39
1667.58
1665.37
1665.17
1664.92
1667.22
1668.12
1665.68
1668.49
1635.63
1629.76
1630.34
1665.5
1672.54
1673.14
1673.71
1670.51
1644.69
1642.93
1650.77
1672.31
1673.99
1674.79
1655.4
1663.15
1665.72
1668.66
1668.96
1670.37
1671.62
1671.74
1671.61
1671.24
1664.58
1662.23
1662.29
1662.6
1671.56
1672.02
1671.78
1670.42
1667.7
1667.29
1670.01
1669.96
1667.84
1669.2
1635.86
1628.72
1629.09
1631.58
1666.83
1672.16
1672.64
1673.27
1673.95
1674.55
1673.06
1650.05
1651.26
1669.57
1673.56
1673.59
1661.49
1612.28
1671.16
1671.94
1671.41
1670.44
1669.88
1671.38
1665.32
1663.39
1663.4
1663.26
1665.38
1670.66
1673.15
1673.5
1672.97
1672.17
1671.71
1671.52
1670.99
1658.28
1627.36
1627.46
1627.53
1627.79
1645.58
1671.35
1671.7
1672.06
1672.47
1672.92
1673.39
1673.68
1673.65
1673.34
1672.29
1670.19
1671.1
1670.61
1641.32
1586.15
1673.3
1671.55
1665.32
1663.86
1664.63
1665.12
1669.97
1671.31
1670.83
1673.01
1674.81
1674.55
1674.31
1674.1
1672.82
1658.9
1659.35
1660.29
1649.79
1628.8
1628.19
1652.4
1664.19
1663.63
1664.46
1670.51
1671.59
1671.98
1672.32
1672.62
1672.83
1672.87
1672.6
1672.11
1671.35
1670.31
1669.09
1667.58
1589.11
1575.13
1670.46
1663.33
1663.87
1664.59
1666.08
1676.2
1677.07
1677
1676.79
1676.48
1676.08
1675.66
1675.11
1674.57
1663.66
1657.96
1667.27
1660.87
1658.89
1657.8
1657.79
1653.55
1646.55
1646.62
1646.66
1668.22
1671.71
1672.03
1672.42
1672.75
1672.92
1672.9
1672.65
1672.08
1671.26
1669.93
1668.12
1625.86
1567.43
1568.28
1674.93
1666.37
1664.95
1669.91
1677.52
1677.96
1678.05
1677.9
1677.59
1677.1
1676.6
1676.12
1675.46
1674.6
1664.75
1660.93
1664.94
1655.85
1656.6
1645.73
1645.84
1646.03
1646.14
1650.77
1666.73
1671.79
1671.91
1672.16
1672.4
1672.7
1672.99
1673.19
1673.24
1673.06
1672.48
1671.16
1661.82
1567.56
1565.72
1565.87
1675.75
1675.51
1673.99
1677.43
1678.29
1678.85
1678.97
1678.56
1672.72
1666.45
1662.1
1661.36
1655.46
1649.03
1631.68
1630.58
1646.52
1655.97
1650.78
1650.46
1657.37
1665.89
1672.16
1672.32
1671.9
1671.48
1671.45
1671.53
1671.97
1672.42
1672.93
1673.49
1674
1674.28
1674.03
1673.19
1660.48
1564.27
1564.32
1564.58
1634.57
1671.23
1674.7
1675.72
1676.98
1678.05
1677.77
1672.31
1668.26
1666.73
1659.89
1657.11
1656.07
1632.94
1632.08
1631.13
1635.16
1668.3
1668.62
1671.29
1670.65
1670.51
1670.68
1670.43
1668.09
1668.76
1668.02
1669.76
1671.16
1671.74
1672.36
1673.06
1673.93
1674.76
1675.3
1675.49
1674.99
1611.41
1562.97
1563.19
1622.75
1621.9
1630.51
1654.82
1676.39
1678.17
1674.81
1646.7
1637.47
1637.63
1637.16
1646.7
1643.16
1633.18
1632.5
1631.62
1664.92
1675.3
1674.09
1672.62
1671.44
1670.08
1658.28
1637.92
1605.44
1619.06
1657.09
1669.76
1670.05
1670.51
1671.21
1672.04
1673.39
1674.54
1675.57
1676.35
1677.02
1661.91
1561.13
1561.48
1623.13
1622.87
1624.19
1668.12
1673.94
1677.05
1673.5
1655.36
1648.05
1654.1
1661.25
1682.32
1680.77
1670.49
1664.41
1671.05
1677.52
1676.43
1675.21
1669.02
1654.08
1624.14
1589.9
1589.48
1589.39
1589.35
1645.79
1669.44
1668.93
1668.88
1669.26
1668.94
1663.3
1670.9
1675.2
1676.04
1676.91
1677.58
1613.53
1572.71
1637.59
1657.95
1669.57
1670.32
1670.48
1674.82
1681.02
1681.43
1681.78
1682.07
1682.42
1682.12
1674.62
1668.67
1668.19
1670.52
1671.15
1657.87
1650.36
1602.42
1592.06
1590.64
1588.98
1587.49
1589.46
1630.47
1669.5
1668.82
1668.39
1666.46
1648.54
1643.07
1645.72
1667.94
1675.17
1675.76
1676.35
1676.92
1676.31
1660.31
1681.42
1682.48
1674.24
1670.09
1671.79
1681.49
1681.52
1681.68
1681.92
1682.12
1682.22
1681.84
1663.04
1644.92
1637.45
1623.6
1615.18
1598.65
1598.32
1597.61
1612.75
1623.29
1634.01
1645.9
1671.58
1670.75
1669.64
1667.97
1646.89
1640.7
1642.23
1644.01
1647.41
1674.11
1675.57
1675.6
1675.49
1670.59
1657.47
1653.53
1683.09
1682.7
1675.35
1670.42
1678.61
1681.83
1681.79
1681.82
1681.91
1682.07
1682.11
1681.27
1667.79
1617.63
1587.48
1587.59
1587.39
1607.62
1647.18
1673.68
1675.68
1674.59
1673.51
1672.35
1671.17
1670.26
1665.78
1642.47
1640.84
1642.31
1643.8
1653.54
1676.83
1676.63
1675.97
1670.77
1638.08
1623.56
1623.8
1624.09
1682.65
1682.44
1679.67
1677.69
1681.77
1681.65
1681.59
1681.59
1681.74
1682.04
1682.34
1680.69
1648.61
1585.62
1585.36
1597.89
1670.83
1680.35
1679.46
1677.95
1674.58
1670.08
1663.49
1662
1664.92
1651.83
1640
1640.93
1642.08
1643.43
1668.46
1677.13
1677.19
1677.08
1676.96
1666.22
1623.16
1624.01
1624.71
1625.29
1681.79
1682.01
1681.89
1681.76
1681.62
1681.6
1681.66
1681.8
1682.18
1682.69
1683.21
1681.42
1619.85
1586.35
1625.35
1682.08
1680.87
1679.4
1675.95
1662.82
1647.83
1644.52
1643.87
1643.62
1643.66
1643.71
1643.8
1643.84
1644.21
1669.45
1677.51
1677.4
1670.12
1665.47
1669.52
1672.5
1673.93
1642.45
1625.34
1625.94
1676.74
1677.3
1681.26
1681.22
1681.34
1681.7
1682.06
1682.53
1683.05
1683.63
1684.32
1684.47
1638.16
1605.93
1681.04
1679.87
1678.38
1665.49
1657.27
1657.23
1660.13
1669.77
1661.35
1645.26
1645.62
1645.97
1645.99
1655.32
1677.38
1677.26
1677.58
1670.09
1632.76
1632.78
1632.88
1644.71
1675.29
1668.12
1652.3
1658.13
1667.75
1652.52
1661.47
1669.86
1662.97
1670.73
1681.66
1682.99
1683.71
1684.41
1685.03
1684.78
1649.64
1618.64
1679.16
1677.1
1660.85
1664.59
1672.01
1672.6
1674.08
1676.01
1677.89
1679.14
1679.94
1664.16
1647.34
1647.06
1646.04
1645.77
1676.82
1668.3
1631.64
1631.12
1631.85
1632.95
1634.83
1636.58
1638.52
1642.72
1664.94
1652.06
1652.25
1652.23
1652.64
1652.92
1677.99
1683.63
1684.04
1684.22
1682.16
1664.04
1600.44
1634.56
1676.98
1674.31
1655.49
1650.86
1656.17
1659.53
1670.44
1674.03
1671.19
1677.91
1680.26
1680.8
1681.29
1654.98
1646.81
1645.01
1670.31
1676.84
1675.68
1674.55
1672.28
1661.65
1661.59
1667.78
1663.33
1651.32
1679.29
1652.76
1652.81
1652.83
1654.13
1668.53
1683.81
1683.95
1683.62
1673.02
1669.37
1656.22
1592.03
1589.06
1636.41
1672.81
1646.37
1565.55
1562.81
1574.63
1653.19
1660.15
1649.99
1652.41
1665.45
1674.71
1674.38
1673.93
1673.47
1672.46
1671.2
1670.57
1670.64
1668.41
1666.54
1666.52
1667.93
1670.42
1674.06
1666.87
1683.91
1677.45
1662.08
1664.65
1680.87
1684.32
1684.22
1684.07
1677.49
1656.86
1655.99
1665.53
1623.13
1588.61
1603.64
1672.12
1669.08
1617.04
1560.81
1559.3
1623.76
1648.45
1645.73
1637.2
1634.02
1627.4
1622.8
1620.46
1634.41
1654.05
1645.47
1650.6
1665.97
1667.24
1667.46
1667.45
1667.83
1672.6
1677.09
1631.03
1684.49
1684.58
1684.28
1684.49
1684.78
1684.72
1684.58
1684.42
1680.69
1656.3
1654.62
1669.38
1673.01
1629.77
1590.64
1659.11
1665.78
1652.18
1577.36
1560.81
1652.43
1653.35
1649.52
1634.53
1499.44
1346.58
1291.49
1229.76
1264.53
1430.08
1628.81
1664.25
1670.22
1673.3
1656.29
1655.67
1657.57
1676.32
1685.52
1622.3
1684.76
1685.11
1685.19
1685.36
1685.35
1685.24
1685.07
1684.77
1684.17
1667.54
1653.97
1672.88
1672.19
1670.3
1629.98
1533.62
1529.34
1516.93
1518.3
1611.4
1659.81
1661.33
1655.95
1538.5
1202.62
1195.24
1195.18
1195.81
1197.51
1201.41
1286.86
1443.35
1633.01
1671.67
1674.01
1675.14
1676.72
1671.78
1638.75
1619.35
1685.96
1686.04
1686.23
1686.33
1686.32
1686.08
1685.69
1685.2
1684.5
1666.11
1653.01
1663.18
1672.11
1669.54
1599.12
1515.85
1515.07
1514.2
1526.54
1660.91
1662.39
1607.48
1600.43
1488.34
1204.48
1200.35
1200.66
1201.88
1203.96
1205.9
1259.19
1592.62
1645.05
1640.9
1679.44
1668.12
1628.99
1611.91
1613.22
1614.21
1673.2
1687.47
1687.82
1688
1687.89
1687.49
1686.89
1686.16
1683.82
1656.61
1652.86
1651.64
1654.82
1670.41
1614
1516.16
1514.71
1512.67
1509.37
1662.15
1664.4
1483.61
1385.72
1544.23
1545.68
1211.74
1201.04
1202.7
1205.18
1212.65
1528.88
1663.01
1664.98
1657.29
1664.78
1668.95
1671.62
1669.51
1668.93
1664.9
1660.86
1688.68
1689.31
1689.62
1687.94
1689.04
1688.21
1687.38
1686.19
1665.71
1653.93
1653.11
1654.67
1668.22
1662
1601.81
1516.87
1514.36
1513.55
1641.11
1677.33
1491.24
1373.85
1484.79
1613.29
1618.29
1407.07
1356.06
1350.42
1412.06
1458.4
1639.68
1665.43
1665.21
1663.93
1671.84
1671.7
1671.13
1670.93
1625.28
1683.96
1690.47
1690.78
1690.83
1690.62
1675.28
1680.39
1688.58
1687.52
1684.98
1674.09
1673.07
1680.03
1682.62
1682.97
1683.13
1611.38
1519.12
1581.19
1677.78
1679.8
1579.84
1361.09
1355.73
1464.81
1632.13
1664.51
1665.77
1667.2
1668.11
1613.07
1589.01
1665.06
1664.4
1663.63
1652.61
1670.97
1629.11
1537.97
1515.9
1691.77
1692.09
1692.28
1692.24
1691.94
1675.17
1669.92
1668.66
1679.81
1686.72
1685.76
1684.98
1684.85
1685.24
1686.01
1686.5
1686.45
1526.02
1584.26
1680.33
1679.03
1556.09
1348.73
1345.47
1345.45
1345.9
1549.14
1660.05
1663.17
1664.86
1632.74
1572.2
1651.92
1664.99
1664.51
1653.11
1663
1516.1
1515.9
1517.64
1524.82
1683.68
1694.07
1693.77
1693.46
1689.78
1670.89
1669.94
1668.92
1667.79
1683.56
1686.99
1687.46
1687.65
1686.53
1688.01
1688.9
1657.54
1590.66
1664.15
1683.06
1575.67
1345.92
1344.49
1342.41
1341.53
1341.61
1439.73
1642.83
1663.02
1644.54
1569.59
1606.25
1669.03
1667.78
1623.71
1543.22
1518.49
1521.44
1614.03
1483
1506.81
1680.11
1695.81
1695.04
1694.61
1691.27
1671.99
1671.29
1670.55
1679.03
1690.95
1690.65
1661.66
1652.89
1682.47
1691.76
1692.15
1684.2
1683.84
1684.56
1685.51
1451.14
1342.54
1341.31
1340.51
1339.56
1339.68
1537.91
1668.2
1672.91
1649.24
1591.59
1673.52
1567.44
1520.25
1520.37
1520.8
1617.38
1614.08
1501.2
1498.37
1514.91
1677.45
1695.85
1695.78
1695.65
1691.89
1684.49
1686.57
1693.46
1694.36
1694.06
1646.9
1586.11
1668.16
1693.99
1694.31
1694.73
1689.92
1684.33
1683.62
1670.9
1383.8
1339.98
1339.85
1339.98
1340.98
1538.42
1675.6
1680.77
1683.06
1598.93
1610.69
1525.78
1524.96
1524.22
1658.02
1671.43
1591.54
1686.6
1509.04
1508.36
1539.1
1685.95
1697.57
1697.45
1697.07
1696.59
1696.54
1697.03
1697.26
1696.83
1661.76
1524.03
1619.89
1697.65
1697.03
1657.35
1517.11
1623.06
1686.77
1686.39
1463.97
1339.03
1339.1
1339.07
1500.54
1702.84
1690.33
1673.55
1689.49
1613.87
1614.54
1635.11
1640.26
1659.24
1672.74
1671.47
1594.13
1690.23
1668.19
1510.4
1572.98
1695.99
1699.55
1697.63
1688.96
1617.75
1596.49
1664.28
1700.5
1700.95
1671.93
1514.65
1507.32
1549.79
1522.24
1505.39
1508.02
1558.71
1688.83
1689.17
1438.71
1341.49
1340.07
1428.57
1696.7
1709.06
1694.5
1674.78
1690.99
1694.83
1583.48
1577
1618.04
1659.9
1620.17
1666.15
1657.02
1656.87
1640.15
1580.4
1580.87
1603.56
1598.45
1596.87
1594.41
1593.76
1594.37
1615.53
1702.76
1704.85
1617.28
1504.05
1505.79
1506.57
1506.56
1507.15
1509.07
1621.39
1685.03
1687.27
1516.15
1348.92
1471
1704.7
1710.24
1710.02
1710.01
1696.37
1650.43
1692.4
1696.62
1692.79
1507.62
1456.39
1456.24
1557.07
1667.42
1632.41
1634.44
1671.83
1621.5
1615.72
1631.65
1619.71
1608.98
1601.55
1634.75
1687.17
1703.61
1639.54
1501.07
1502.31
1503.77
1504.14
1503.9
1577.64
1634.5
1587.98
1589.66
1592.12
1681.42
1710.5
1710.96
1710.88
1710.35
1709.48
1708.22
1704.81
1566.69
1664.57
1696.97
1637.95
1451.47
1453.67
1454.15
1473.73
1673.45
1675.96
1691.61
1704.98
1699.97
1698.6
1703.65
1700.99
1698.89
1699.34
1704.5
1688.17
1568.42
1500.89
1500.94
1501.19
1501.18
1521.81
1652.64
1690.49
1689.67
1686.91
1681.05
1703.97
1707.88
1709.52
1710.95
1711.86
1711.87
1704.89
1693.53
1573.5
1561.8
1663.98
1694.14
1669.73
1541.1
1476.94
1541.85
1669.7
1677.29
1707.88
1707.09
1706.33
1706.24
1706.12
1705.87
1705.71
1705.65
1705.9
1705.76
1660.84
1540.42
1503.48
1508.48
1512.25
1563
1664.33
1670.96
1630.48
1466.96
1442.64
1476.75
1588.44
1694.39
1710.03
1712.59
1714.43
1701.89
1614.18
1565
1564.61
1577.98
1697.18
1696.7
1697.17
1691.77
1686.42
1689.89
1688.4
1608.78
1434.83
1530.49
1652.16
1708.58
1708.16
1707.26
1706.58
1706.19
1706.54
1707.05
1691.94
1683.86
1672.49
1690.66
1675.17
1599.14
1453.65
1442.06
1440.12
1439.8
1439.36
1439.25
1440.51
1574.34
1713.15
1716.69
1718.7
1653.6
1602.45
1601.9
1719.2
1715.76
1660.5
1589.84
1640.58
1695.87
1696.15
1639.85
1550.91
1551.59
1436.74
1438.33
1439.07
1506.9
1538.53
1542.93
1599.26
1673.58
1708.81
1709.37
1709.67
1710.7
1711.11
1709.69
1709.29
1708.56
1679.66
1460.36
1439.68
1439.95
1440.6
1441.26
1442.12
1547.32
1717.06
1722.63
1724.76
1661
1664.63
1720.89
1719.5
1717.52
1686.88
1562.37
1562.75
1572
1591.47
1548.25
1548.92
1549.85
1690.4
1636.65
1623.01
1513.76
1511.21
1510.97
1509.61
1595.74
1714.06
1656.95
1640.06
1639.11
1660.16
1711.44
1712.74
1713.65
1714.59
1715.93
1494.61
1439.13
1439.8
1440.67
1485.85
1690.36
1718.94
1723.18
1726.68
1719.29
1723.17
1720.46
1718.27
1716.16
1714.69
1698.29
1565.99
1549.39
1549.42
1548.46
1551.43
1548.1
1719.57
1719.38
1718.27
1699.26
1650.32
1632.62
1657.39
1693.29
1714.57
1714.2
1657.15
1638.96
1638.37
1684.52
1714.69
1715.9
1716.74
1717.66
1497.52
1441.1
1441.05
1668.33
1704.41
1693.01
1691.18
1715.88
1717.91
1715.86
1713.63
1712.95
1701.1
1663.07
1701.74
1713.06
1716.17
1691.12
1636.57
1638.19
1699.53
1640
1703.95
1718.48
1718.23
1717.9
1691.42
1695.69
1714.08
1715.6
1715.51
1715.3
1715.09
1661.87
1636.35
1636.97
1691.32
1717.56
1718.25
1661.28
1480.87
1476.17
1620.08
1709.66
1700.19
1516.1
1254.13
1511.16
1715.55
1713.44
1547.97
1521.1
1232.15
1169.5
1569.72
1711.21
1715.4
1701.94
1692.85
1708.3
1709.29
1709.81
1693.08
1702.72
1718.58
1717.89
1715.04
1697.11
1708.69
1716.76
1716.62
1716.42
1682.19
1634.83
1635.25
1635.84
1662.43
1718.76
1718.55
1622.44
1482.09
1569.52
1615.04
1685.32
1707.86
1426.5
1167.22
1163
1341.92
1196.8
1124.54
1118.35
1116.35
1114.77
1353.01
1714.28
1718.33
1710.01
1694.42
1684.89
1699.8
1686.63
1712.41
1715.59
1717.7
1716.56
1708.73
1716.21
1718.12
1717.98
1717.61
1717.19
1660.38
1634.96
1634.97
1635.22
1703.16
1718.61
1691.02
1587.98
1603.04
1689.43
1515.62
1544.53
1713.1
1605.36
1163.35
1164.29
1163.31
1190.39
1252.77
1246.54
1186.79
1377.96
1714.07
1714.62
1715.91
1694.96
1662.51
1662.62
1663.83
1664.75
1712.36
1712.58
1713.54
1711.35
1704.66
1706.2
1711.82
1717.31
1717.34
1717.11
1706.75
1651.87
1663.57
1707.05
1717.14
1717.99
1667.28
1594.56
1691.51
1687.8
1507.25
1508.5
1541.95
1493.85
1421.99
1380.91
1451.48
1640.38
1689.26
1695.67
1676.36
1721.01
1721.43
1710.35
1716.1
1697.98
1661.03
1684.3
1705.5
1704.45
1705.67
1704.7
1704.9
1706.15
1698.48
1699.19
1701.09
1705.47
1715.76
1716.09
1716.3
1714.67
1715.1
1716.05
1716.71
1717.48
1665.07
1708.99
1699.56
1695.76
1632.76
1506.53
1459.94
1459.15
1457.82
1612.79
1724.49
1726.11
1725.98
1725.53
1725.16
1724.17
1723.11
1717.97
1678.92
1648.06
1700.59
1701.02
1702.31
1703.71
1695.36
1692.97
1692.52
1693.86
1694.54
1687.81
1691.59
1695.63
1705.15
1713.87
1715.37
1715.79
1715.09
1714.52
1686.46
1709.09
1712.13
1716.99
1707.68
1620.32
1636.12
1620.88
1554.3
1520.16
1479.63
1471.76
1482.74
1515.88
1650.05
1720.77
1721.95
1722.99
1723.14
1722.39
1630.04
1622.22
1688.67
1683.62
1695.2
1697.9
1678.18
1674.56
1674.5
1676.49
1680.38
1677.37
1679.31
1685.98
1701.32
1710.03
1713.94
1714.41
1713.12
1670.73
1604.36
1652.8
1713.23
1714.15
1715.67
1616.94
1423.38
1466.82
1545.6
1546.1
1546.44
1451.96
1436.52
1437.44
1439.04
1449.81
1625.98
1718.35
1723.65
1723.84
1715.66
1707.14
1675.55
1405.59
1487.85
1674.06
1629.99
1625.8
1629
1654.59