/*--------------------------------*- C++ -*----------------------------------*\
  =========                 |
  \\      /  F ield         | OpenFOAM: The Open Source CFD Toolbox
   \\    /   O peration     | Website:  https://openfoam.org
    \\  /    A nd           | Version:  8
     \\/     M anipulation  |
\*---------------------------------------------------------------------------*/
FoamFile
{
    version     2.0;
    format      ascii;
    class       surfaceScalarField;
    location    "8.45";
    object      phi;
}
// * * * * * * * * * * * * * * * * * * * * * * * * * * * * * * * * * * * * * //

dimensions      [0 3 -1 0 0 0 0];

internalField   nonuniform List<scalar> 
18095
(
1.99811e-08
-1.72029e-07
1.52048e-07
2.3312e-08
-1.97361e-07
1.9403e-07
2.07385e-08
-2.06296e-07
2.0887e-07
1.31045e-08
-2.11692e-07
2.19326e-07
1.88913e-09
-2.13305e-07
2.24521e-07
-1.07069e-08
-2.13103e-07
2.25699e-07
-2.01592e-08
-2.10684e-07
2.20137e-07
-2.31898e-08
-2.06033e-07
2.09063e-07
-1.99794e-08
-1.97402e-07
1.94191e-07
-1.72094e-07
1.52115e-07
1.55855e-08
-1.87614e-07
1.62945e-08
-1.9807e-07
1.18845e-08
-2.01886e-07
5.75564e-09
-2.05563e-07
-5.62425e-10
-2.06987e-07
-6.67426e-09
-2.06991e-07
-1.21913e-08
-2.05167e-07
-1.63004e-08
-2.01924e-07
-1.5552e-08
-1.9815e-07
-1.87646e-07
6.80176e-09
-1.94416e-07
8.46057e-09
-1.99729e-07
7.47115e-09
-2.00897e-07
4.26279e-09
-2.02355e-07
-2.45188e-10
-2.02479e-07
-4.57799e-09
-2.02659e-07
-7.37514e-09
-2.0237e-07
-8.37693e-09
-2.00922e-07
-6.78477e-09
-1.99742e-07
-1.94431e-07
4.5146e-09
-1.98931e-07
4.75312e-09
-1.99967e-07
3.72423e-09
-1.99868e-07
1.83912e-09
-2.0047e-07
1.5223e-10
-2.00792e-07
-1.70831e-09
-2.00798e-07
-3.64656e-09
-2.00432e-07
-4.71973e-09
-1.99849e-07
-4.50028e-09
-1.99962e-07
-1.98931e-07
1.06935e-09
1.10208e-09
1.23399e-09
7.64306e-10
-2.82094e-11
-8.26399e-10
-1.25829e-09
-1.10703e-09
-1.06874e-09
-2.85457e-08
-1.95895e-07
2.24441e-07
-3.07291e-08
-1.99256e-07
2.01439e-07
-2.48897e-08
-2.01387e-07
1.95548e-07
-1.36179e-08
-2.01538e-07
1.90266e-07
1.48169e-09
-2.02336e-07
1.87236e-07
1.59419e-08
-2.02175e-07
1.87715e-07
2.6305e-08
-2.01528e-07
1.91165e-07
3.12113e-08
-2.00938e-07
1.96032e-07
2.86528e-08
-1.99122e-07
2.0168e-07
-1.95825e-07
2.24478e-07
-9.38165e-09
-1.86513e-07
-1.50226e-08
-1.93615e-07
-1.2528e-08
-2.03882e-07
-6.4606e-09
-2.07606e-07
-9.65934e-10
-2.0783e-07
4.78572e-09
-2.07926e-07
1.18221e-08
-2.08565e-07
1.51047e-08
-2.04221e-07
9.53037e-09
-1.93547e-07
-1.86294e-07
-9.42851e-09
-1.77084e-07
-7.58643e-09
-1.95457e-07
-6.54264e-09
-2.04925e-07
-3.55333e-09
-2.10595e-07
2.32953e-09
-2.13713e-07
7.77393e-09
-2.13371e-07
8.59745e-09
-2.09388e-07
8.49635e-09
-2.0412e-07
9.6419e-09
-1.94693e-07
-1.76652e-07
-6.8254e-09
-1.70259e-07
-8.96537e-09
-1.93317e-07
-8.745e-09
-2.05146e-07
-4.02159e-09
-2.15319e-07
-1.22093e-09
-2.16514e-07
1.19983e-09
-2.15792e-07
5.85893e-09
-2.14048e-07
7.11664e-09
-2.05377e-07
6.19169e-09
-1.93768e-07
-1.70461e-07
-1.82114e-08
-1.74988e-08
-1.37749e-08
-9.76744e-09
-1.76023e-09
8.1476e-09
1.42367e-08
1.79227e-08
1.83461e-08
3.71154e-08
-1.5759e-07
1.20475e-07
3.98504e-08
-1.97772e-07
1.95037e-07
2.85397e-08
-2.09343e-07
2.20654e-07
1.15323e-08
-2.1549e-07
2.32497e-07
-7.02673e-09
-2.17964e-07
2.36523e-07
-2.2946e-08
-2.17654e-07
2.33573e-07
-3.353e-08
-2.16355e-07
2.26939e-07
-3.87404e-08
-2.11491e-07
2.16701e-07
-3.52595e-08
-1.98384e-07
1.94903e-07
-1.57955e-07
1.22696e-07
1.72987e-08
-1.74889e-07
2.04889e-08
-2.00962e-07
1.85546e-08
-2.07408e-07
1.26001e-08
-2.09536e-07
3.25572e-09
-2.0862e-07
-6.78858e-09
-2.0761e-07
-1.53241e-08
-2.0782e-07
-1.97353e-08
-2.0708e-07
-1.70028e-08
-2.01117e-07
-1.74958e-07
7.56659e-09
-1.82455e-07
8.47037e-09
-2.01866e-07
7.24567e-09
-2.06184e-07
1.57142e-09
-2.03862e-07
-2.48017e-09
-2.04568e-07
-5.326e-09
-2.04764e-07
-8.10452e-09
-2.05041e-07
-8.65828e-09
-2.06526e-07
-7.62239e-09
-2.02153e-07
-1.82581e-07
8.22495e-09
-1.90681e-07
5.55394e-09
-1.99195e-07
6.64082e-09
-2.07271e-07
2.77226e-09
-1.99993e-07
1.34506e-09
-2.03141e-07
-3.65817e-10
-2.03053e-07
-6.20426e-09
-1.99203e-07
-5.37288e-09
-2.07357e-07
-8.14025e-09
-1.99385e-07
-1.90721e-07
3.376e-08
3.60045e-08
2.42818e-08
1.45549e-08
-1.3501e-09
-1.66885e-08
-2.4726e-08
-3.60516e-08
-3.37568e-08
1.92513e-08
4.61122e-10
-1.97124e-08
2.28562e-08
-3.60413e-09
2.01835e-08
2.67292e-09
1.51165e-08
5.06719e-09
8.62016e-09
6.49662e-09
5.46731e-09
3.1531e-09
4.14772e-09
1.31986e-09
5.0817e-09
-9.33684e-10
5.98422e-09
-9.02195e-10
3.30665e-09
2.6779e-09
1.10818e-08
1.29559e-08
-2.35761e-08
2.07097e-09
5.40741e-09
-2.1481e-09
6.89234e-09
-3.74829e-09
6.66776e-09
-5.005e-09
7.75375e-09
-6.12981e-09
4.27837e-09
-6.20745e-09
1.398e-09
-8.05978e-09
9.19177e-10
-1.21753e-08
3.2139e-09
1.2428e-08
-2.12961e-08
3.44512e-08
2.93643e-08
-5.08594e-08
1.92752e-08
2.05837e-08
1.20117e-08
1.4156e-08
7.02548e-09
1.16542e-08
3.43781e-09
1.13417e-08
2.41646e-09
5.30003e-09
-7.30668e-10
4.54549e-09
-9.0633e-09
9.2522e-09
-2.06621e-08
1.48132e-08
2.48383e-08
-3.30719e-08
5.10784e-08
3.99995e-08
-6.17135e-08
3.95506e-08
3.21113e-08
2.98e-08
2.39066e-08
1.90764e-08
2.23778e-08
7.81771e-09
2.26005e-08
3.31085e-10
1.27868e-08
-6.67921e-09
1.1556e-08
-1.85548e-08
2.11281e-08
-3.16215e-08
2.78801e-08
3.49594e-08
-4.17423e-08
4.34845e-08
4.70363e-08
-5.05214e-08
3.36917e-08
4.19035e-08
2.42753e-08
3.3323e-08
1.39783e-08
3.26748e-08
2.25618e-09
3.43226e-08
-1.07387e-08
2.57818e-08
-2.10939e-08
2.19113e-08
-2.80979e-08
2.81322e-08
-3.81158e-08
3.78982e-08
4.26933e-08
-4.58496e-08
3.14334e-08
5.13124e-08
-3.57097e-08
2.41222e-08
4.92141e-08
1.61815e-08
4.12636e-08
1.00204e-08
3.88357e-08
3.71134e-09
4.06316e-08
-5.29963e-09
3.47927e-08
-1.57416e-08
3.23532e-08
-2.27765e-08
3.51671e-08
-3.13829e-08
4.65045e-08
5.08657e-08
-3.95553e-08
1.72266e-08
5.35836e-08
-1.9498e-08
1.52278e-08
5.12125e-08
1.04595e-08
4.60318e-08
7.70502e-09
4.15901e-08
7.2664e-09
4.10702e-08
2.1624e-09
3.98967e-08
-5.09764e-09
3.96132e-08
-1.28932e-08
4.29626e-08
-1.8668e-08
5.22792e-08
5.87109e-08
-2.65132e-08
1.42314e-08
5.33149e-08
-1.39628e-08
1.44116e-08
5.10323e-08
1.18196e-08
4.86239e-08
7.73236e-09
4.56773e-08
7.03592e-09
4.17666e-08
2.54326e-09
4.43893e-08
-3.73144e-09
4.58878e-08
-9.47049e-09
4.87016e-08
-1.11857e-08
5.39943e-08
6.24413e-08
-1.49163e-08
1.5418e-08
5.06224e-08
-1.27256e-08
1.49872e-08
5.14636e-08
1.11243e-08
5.24869e-08
6.2877e-09
5.0514e-08
3.52206e-09
4.45323e-08
1.01818e-09
4.68931e-08
-2.25418e-09
4.91602e-08
-4.29838e-09
5.07457e-08
-4.02137e-09
5.37172e-08
6.23646e-08
-3.94469e-09
1.68394e-08
4.76556e-08
-1.38724e-08
1.56995e-08
5.26041e-08
1.10701e-08
5.71166e-08
8.21658e-09
5.33676e-08
5.85539e-09
4.68936e-08
5.91431e-09
4.68343e-08
6.09223e-09
4.89822e-08
6.87928e-09
4.99586e-08
6.17426e-09
5.44222e-08
6.24992e-08
6.03957e-09
1.76095e-08
4.82456e-08
-1.81992e-08
1.65945e-08
5.36199e-08
1.71491e-08
5.65622e-08
1.84073e-08
5.21095e-08
1.93806e-08
4.59204e-08
2.13946e-08
4.48203e-08
2.49534e-08
4.54235e-08
2.70666e-08
4.78454e-08
2.45431e-08
5.69456e-08
6.58089e-08
2.12333e-08
1.68515e-08
4.85825e-08
-1.71881e-08
1.88195e-08
5.16524e-08
2.35661e-08
5.18156e-08
2.99046e-08
4.5771e-08
3.51988e-08
4.06262e-08
3.93511e-08
4.0668e-08
4.1162e-08
4.36125e-08
4.08486e-08
4.81588e-08
3.98583e-08
5.79358e-08
6.88045e-08
3.68626e-08
1.74068e-08
4.90323e-08
-1.78565e-08
2.03392e-08
4.872e-08
2.89127e-08
4.3242e-08
3.81149e-08
3.65687e-08
4.44357e-08
3.43053e-08
4.90775e-08
3.6026e-08
5.15271e-08
4.11627e-08
5.21601e-08
4.75257e-08
5.27894e-08
5.73063e-08
6.8599e-08
5.29948e-08
2.79742e-08
4.71255e-08
-2.60674e-08
3.50949e-08
4.15987e-08
4.46027e-08
3.3734e-08
5.09753e-08
3.01958e-08
5.49513e-08
3.0329e-08
5.67039e-08
3.42733e-08
5.6749e-08
4.11173e-08
5.53517e-08
4.89228e-08
5.53642e-08
5.72936e-08
6.74567e-08
5.65063e-08
5.25308e-08
3.76545e-08
-4.306e-08
6.0644e-08
3.34846e-08
6.35578e-08
3.08199e-08
6.34399e-08
3.03134e-08
5.97036e-08
3.4065e-08
5.56827e-08
3.82939e-08
5.25789e-08
4.42208e-08
4.97809e-08
5.17205e-08
4.97817e-08
5.72925e-08
6.50672e-08
5.21711e-08
7.0286e-08
2.72383e-08
-5.98701e-08
7.32675e-08
3.05021e-08
7.11899e-08
3.28971e-08
6.56758e-08
3.58272e-08
5.20785e-08
4.7662e-08
4.42022e-08
4.617e-08
3.88757e-08
4.95471e-08
3.69824e-08
5.36136e-08
3.8025e-08
5.62496e-08
6.12321e-08
4.18598e-08
7.26277e-08
2.13393e-08
-6.6729e-08
7.07867e-08
3.23422e-08
6.23696e-08
4.1314e-08
5.29295e-08
4.5267e-08
5.26575e-08
4.79338e-08
4.87587e-08
5.00686e-08
4.06747e-08
5.76308e-08
3.81085e-08
5.61797e-08
3.87026e-08
5.56553e-08
5.82281e-08
4.17064e-08
4.47678e-08
1.96301e-08
-4.30588e-08
4.45858e-08
3.25236e-08
4.30721e-08
4.28275e-08
4.07705e-08
4.75684e-08
4.28013e-08
4.59028e-08
3.90792e-08
5.37906e-08
3.66706e-08
6.00393e-08
3.64876e-08
5.63625e-08
4.13715e-08
5.07714e-08
5.25279e-08
4.70716e-08
-4.24376e-08
1.61801e-08
4.58874e-08
-3.28706e-08
2.29562e-08
-2.28891e-08
3.28458e-08
-1.53369e-08
4.00161e-08
-1.22983e-08
4.28641e-08
-3.43525e-09
4.49275e-08
7.76257e-09
4.88414e-08
2.05461e-08
4.3579e-08
3.07532e-08
4.05641e-08
4.16725e-08
4.16086e-08
-1.06184e-07
1.48185e-08
1.07545e-07
-1.01856e-07
1.86287e-08
-9.41081e-08
2.50976e-08
-8.11436e-08
2.70516e-08
-6.37006e-08
2.5421e-08
-4.44364e-08
2.56633e-08
-2.22389e-08
2.66439e-08
-3.71595e-09
2.5056e-08
1.21067e-08
2.47415e-08
2.93611e-08
2.4418e-08
-1.29926e-07
5.08224e-09
1.39662e-07
-1.17118e-07
5.82151e-09
-1.02441e-07
1.04202e-08
-8.84228e-08
1.30337e-08
-7.42418e-08
1.12401e-08
-5.87443e-08
1.01658e-08
-4.29493e-08
1.08489e-08
-3.04586e-08
1.25652e-08
-2.04256e-08
1.47084e-08
2.09931e-08
-1.20577e-08
-1.20244e-07
-4.11462e-09
1.29441e-07
-1.07098e-07
-7.32367e-09
-9.36469e-08
-3.03095e-09
-8.2179e-08
1.56587e-09
-7.44669e-08
3.52802e-09
-7.04435e-08
6.14245e-09
-7.0441e-08
1.08463e-08
-7.46688e-08
1.67929e-08
-8.24119e-08
2.24514e-08
3.14941e-08
-9.29131e-08
-1.05563e-07
-6.88451e-09
1.08333e-07
-1.01474e-07
-1.14126e-08
-9.22913e-08
-1.22134e-08
-8.10531e-08
-9.67225e-09
-7.28669e-08
-4.65816e-09
-7.11974e-08
4.47298e-09
-7.81469e-08
1.77957e-08
-9.31191e-08
3.17649e-08
-1.17417e-07
4.67495e-08
5.93207e-08
-1.45244e-07
-8.78153e-08
-9.19514e-09
9.01262e-08
-8.30896e-08
-1.61378e-08
-7.7896e-08
-1.74069e-08
-7.2186e-08
-1.53822e-08
-7.015e-08
-6.69429e-09
-7.68442e-08
1.11671e-08
-9.1655e-08
3.26064e-08
-1.10697e-07
5.08067e-08
-1.35029e-07
7.10814e-08
9.10271e-08
-1.66735e-07
-8.323e-08
-5.82673e-09
7.98618e-08
-8.22295e-08
-1.71385e-08
-8.11415e-08
-1.84951e-08
-8.2012e-08
-1.45118e-08
-9.07701e-08
2.06363e-09
-1.13979e-07
3.43755e-08
-1.38675e-07
5.73022e-08
-1.52092e-07
6.42237e-08
-1.53314e-07
7.23031e-08
1.0183e-07
-1.64117e-07
-8.9031e-08
9.9849e-09
7.32193e-08
-9.76193e-08
-8.55124e-09
-1.027e-07
-1.34145e-08
-1.09135e-07
-8.07712e-09
-1.21352e-07
1.428e-08
-1.34849e-07
4.78728e-08
-1.41683e-07
6.41355e-08
-1.48097e-07
7.06382e-08
-1.59605e-07
8.38112e-08
9.60353e-08
-1.5381e-07
-9.50944e-08
3.75047e-08
6.75743e-08
-1.18092e-07
1.44449e-08
-1.33428e-07
1.92162e-09
-1.46023e-07
4.5166e-09
-1.54596e-07
2.28536e-08
-1.50368e-07
4.36445e-08
-1.40824e-07
5.4591e-08
-1.38641e-07
6.84549e-08
-1.36357e-07
8.15273e-08
8.53506e-08
-1.25672e-07
-6.48011e-08
6.29283e-08
3.93769e-08
-9.15829e-08
4.12255e-08
-1.18707e-07
2.90457e-08
-1.37986e-07
2.37953e-08
-1.48033e-07
3.29004e-08
-1.43526e-07
3.9137e-08
-1.26458e-07
3.75234e-08
-1.15115e-07
5.71117e-08
-1.09188e-07
7.56003e-08
7.47072e-08
-9.85448e-08
-2.25687e-08
7.43239e-08
1.11727e-08
-4.62146e-08
6.48708e-08
-7.49139e-08
5.77448e-08
-1.00688e-07
4.95688e-08
-1.14605e-07
4.68176e-08
-1.24207e-07
4.87389e-08
-1.32193e-07
4.55095e-08
-1.23034e-07
4.79521e-08
-1.00525e-07
5.30912e-08
4.93117e-08
-7.51292e-08
1.91496e-08
7.13095e-08
-1.61354e-08
4.92463e-09
7.90954e-08
-2.70607e-08
8.97299e-08
-6.39337e-08
8.64416e-08
-9.00332e-08
7.2917e-08
-1.05432e-07
6.41375e-08
-1.12593e-07
5.26704e-08
-1.00551e-07
3.59097e-08
-7.84899e-08
3.103e-08
2.91941e-08
-5.83723e-08
5.39283e-08
6.96061e-08
-5.2225e-08
4.90829e-08
8.394e-08
2.85641e-08
1.10248e-07
-1.17399e-08
1.26745e-07
-5.55941e-08
1.16771e-07
-8.2873e-08
9.14162e-08
-9.3167e-08
6.29642e-08
-8.7855e-08
3.05975e-08
-7.36616e-08
1.68364e-08
1.41028e-08
-5.85704e-08
8.07254e-08
6.92764e-08
-8.03958e-08
7.63492e-08
8.83151e-08
6.53692e-08
1.21228e-07
3.75392e-08
1.54575e-07
-3.56031e-09
1.5787e-07
-5.11841e-08
1.3904e-07
-7.84038e-08
9.01837e-08
-7.97323e-08
3.19257e-08
-6.75514e-08
4.65532e-09
-4.1031e-10
-5.30385e-08
9.24455e-08
7.33987e-08
-9.65682e-08
7.76301e-08
1.0313e-07
6.71817e-08
1.31676e-07
5.50216e-08
1.66735e-07
3.17212e-08
1.8117e-07
-1.43101e-08
1.85071e-07
-5.49595e-08
1.30833e-07
-5.99863e-08
3.69522e-08
-5.11109e-08
-4.22044e-09
-1.20009e-08
-3.95206e-08
8.36599e-08
9.74108e-08
-1.07672e-07
3.94594e-08
1.4733e-07
2.87869e-08
1.42349e-07
2.6288e-08
1.69233e-07
1.30862e-08
1.94372e-07
-9.87236e-09
2.08029e-07
-2.79461e-08
1.48906e-07
-3.08735e-08
3.98794e-08
-3.67324e-08
1.63829e-09
-7.32905e-09
-4.14046e-08
4.63614e-08
1.44261e-07
-9.32115e-08
1.58292e-09
1.92109e-07
-1.74526e-08
1.61384e-07
-3.01912e-08
1.81972e-07
-2.69288e-08
1.91109e-07
-1.53122e-08
1.96412e-07
-3.70145e-09
1.37295e-07
-1.28616e-08
4.90393e-08
-2.95894e-08
1.83658e-08
9.17273e-09
-4.60913e-08
-1.30242e-08
1.73503e-07
-1.62179e-08
-1.77439e-08
1.9683e-07
-3.76653e-08
1.81306e-07
-4.39228e-08
1.8823e-07
-3.53054e-08
1.82492e-07
-1.25384e-08
1.73645e-07
5.40704e-09
1.1935e-07
-7.1708e-09
6.16171e-08
-2.71314e-08
3.83263e-08
2.19578e-08
-3.99166e-08
-3.85971e-08
1.67843e-07
4.42575e-08
-2.40857e-08
1.82318e-07
-2.6589e-08
1.83809e-07
-2.27006e-08
1.84341e-07
-6.11567e-09
1.65907e-07
2.33247e-08
1.44205e-07
3.64487e-08
1.06226e-07
2.20469e-08
7.60189e-08
-2.16737e-09
6.25405e-08
4.34354e-08
-2.36452e-08
-5.71213e-08
1.55306e-07
6.96583e-08
-3.13565e-08
1.56553e-07
-2.04779e-08
1.7293e-07
-3.31337e-09
1.67177e-07
2.29152e-08
1.39678e-07
4.84546e-08
1.18665e-07
5.97406e-08
9.49397e-08
5.29014e-08
8.2858e-08
3.74682e-08
7.79736e-08
7.0363e-08
1.05405e-08
-4.55279e-08
1.45816e-07
5.50181e-08
-3.58196e-08
1.46845e-07
-1.3803e-08
1.50914e-07
1.72614e-08
1.36112e-07
3.84379e-08
1.18502e-07
5.36298e-08
1.03473e-07
5.78915e-08
9.06779e-08
5.66298e-08
8.41198e-08
5.08726e-08
8.37306e-08
7.93097e-08
4.19259e-08
-4.79724e-08
1.34741e-07
5.90474e-08
-2.71586e-08
1.26031e-07
6.17731e-09
1.17578e-07
3.45948e-08
1.07695e-07
4.87081e-08
1.04388e-07
5.80017e-08
9.41799e-08
6.02937e-08
8.83858e-08
6.17394e-08
8.2674e-08
6.38826e-08
8.15874e-08
7.25745e-08
7.06177e-08
-4.60668e-08
1.34632e-07
4.61754e-08
-4.2068e-08
1.22032e-07
-1.63362e-08
9.18457e-08
1.08401e-08
8.05184e-08
3.21148e-08
8.31134e-08
4.90402e-08
7.72545e-08
6.54585e-08
7.19676e-08
8.29421e-08
6.51904e-08
1.01215e-07
6.33148e-08
5.95334e-08
1.14256e-07
2.33593e-08
1.4685e-07
-3.55768e-08
7.51783e-09
1.37873e-07
1.56414e-08
8.3722e-08
3.33042e-08
6.28555e-08
4.42752e-08
7.21423e-08
5.94173e-08
6.21123e-08
7.69197e-08
5.44651e-08
9.29298e-08
4.91804e-08
1.14034e-07
4.22109e-08
4.14715e-08
1.32096e-07
2.11527e-07
1.41469e-07
-2.06146e-07
2.16226e-07
1.33174e-07
1.95231e-07
1.04716e-07
1.80893e-07
7.71936e-08
1.78584e-07
7.44518e-08
1.69458e-07
7.12374e-08
1.70264e-07
5.36593e-08
1.74679e-07
4.47656e-08
1.69988e-07
4.69011e-08
3.33854e-08
1.78074e-07
2.93937e-07
1.21088e-07
-2.73557e-07
3.13563e-07
1.13548e-07
3.31817e-07
8.64622e-08
3.40772e-07
6.8238e-08
3.46979e-07
6.82447e-08
3.45915e-07
7.23011e-08
3.27706e-07
7.18684e-08
3.0845e-07
6.40218e-08
2.86588e-07
6.87633e-08
5.7234e-08
2.62739e-07
3.10144e-07
9.74585e-08
-2.86514e-07
3.37378e-07
8.63135e-08
3.63743e-07
6.0097e-08
3.82632e-07
4.93494e-08
3.89344e-07
6.15321e-08
3.86734e-07
7.49113e-08
3.94957e-07
6.36444e-08
3.90282e-07
6.8697e-08
3.84805e-07
7.424e-08
8.0037e-08
3.62002e-07
1.89986e-07
6.54891e-08
-1.58016e-07
2.19184e-07
5.71155e-08
2.58804e-07
2.04775e-08
3.03163e-07
4.99072e-09
3.47608e-07
1.70865e-08
3.83442e-07
3.9078e-08
4.11366e-07
3.57203e-08
4.27319e-07
5.27441e-08
4.22549e-07
7.901e-08
7.94702e-08
4.23116e-07
1.13879e-07
3.58045e-08
-8.41942e-08
1.47833e-07
2.31616e-08
1.83207e-07
-1.4896e-08
2.18621e-07
-3.04233e-08
2.68071e-07
-3.23636e-08
3.3102e-07
-2.38704e-08
3.75756e-07
-9.01561e-09
3.90969e-07
3.75319e-08
3.91896e-07
7.80829e-08
9.67375e-08
3.74629e-07
2.43935e-07
1.90578e-08
-2.27188e-07
2.45909e-07
2.11881e-08
2.24579e-07
6.43428e-09
2.06322e-07
-1.21655e-08
2.16394e-07
-4.24353e-08
2.36922e-07
-4.43983e-08
2.50687e-07
-2.27802e-08
2.74095e-07
1.41235e-08
2.98645e-07
5.35339e-08
8.58778e-08
3.09504e-07
2.59478e-07
-5.12742e-09
-2.35293e-07
2.72888e-07
7.77912e-09
2.86285e-07
-6.96257e-09
2.8354e-07
-9.41962e-09
2.57423e-07
-1.63176e-08
2.27404e-07
-1.4379e-08
2.09503e-07
-4.87832e-09
2.04492e-07
1.9135e-08
2.20543e-07
3.74833e-08
6.46476e-08
2.41773e-07
1.20351e-07
-3.73759e-08
-8.81024e-08
1.62379e-07
-3.42473e-08
1.89104e-07
-3.36874e-08
1.78846e-07
8.39054e-10
1.79607e-07
-1.70776e-08
1.58087e-07
7.14137e-09
1.21704e-07
3.15054e-08
9.34263e-08
4.74128e-08
8.06325e-08
5.02775e-08
5.83656e-08
8.69148e-08
9.27691e-08
-6.33232e-08
-6.68211e-08
1.28155e-07
-6.96314e-08
8.85479e-08
5.91954e-09
5.97898e-08
2.95975e-08
7.85399e-08
-3.58273e-08
4.3574e-08
4.21076e-08
-4.358e-09
7.9438e-08
-4.27683e-08
8.58236e-08
-5.82355e-08
6.5745e-08
6.77486e-08
-6.76182e-08
6.56084e-08
-5.29362e-08
-7.59947e-08
6.63497e-08
-7.03722e-08
5.75432e-08
1.47261e-08
3.82008e-08
4.89401e-08
1.4348e-08
-1.19743e-08
2.65729e-09
5.37987e-08
-1.60324e-08
9.81282e-08
-3.91855e-08
1.08977e-07
-6.75962e-08
9.41557e-08
8.01635e-08
-8.00111e-08
7.45534e-08
-1.67056e-08
-1.10784e-07
2.89723e-08
-2.47906e-08
3.92447e-08
4.45375e-09
5.51604e-08
3.30244e-08
3.56629e-08
7.52314e-09
4.91955e-08
4.02661e-08
4.72594e-08
1.00064e-07
4.0588e-08
1.15648e-07
2.32447e-08
1.11499e-07
1.08182e-07
-4.77399e-09
6.71867e-08
1.5446e-08
-9.93384e-08
2.24804e-08
1.99166e-08
1.08272e-08
1.61072e-08
2.01848e-08
2.36669e-08
1.52244e-08
1.24835e-08
3.55745e-08
1.9916e-08
6.85673e-08
6.7071e-08
9.03716e-08
9.38437e-08
1.02429e-07
9.94416e-08
9.57723e-08
1.14838e-07
5.2542e-08
3.32439e-08
-7.03401e-08
3.66213e-08
3.58386e-08
1.99111e-08
3.28173e-08
1.44335e-08
2.91445e-08
5.45098e-09
2.14657e-08
6.57948e-09
1.87873e-08
3.63402e-08
3.73103e-08
8.13657e-08
4.88179e-08
1.1479e-07
6.60173e-08
7.54457e-08
1.35115e-07
2.46274e-08
5.41934e-08
-4.55763e-08
2.26286e-08
3.78376e-08
2.39188e-08
3.15265e-08
2.79402e-08
2.51225e-08
3.18125e-08
1.75933e-08
3.54676e-08
1.51319e-08
4.95809e-08
2.31967e-08
7.06647e-08
2.77342e-08
1.02767e-07
3.3915e-08
4.00739e-08
1.38138e-07
1.71869e-07
1.01446e-07
-2.19122e-07
1.28646e-07
8.10596e-08
1.00045e-07
6.0128e-08
9.22048e-08
3.29624e-08
9.00755e-08
1.97224e-08
9.33745e-08
1.18327e-08
1.04562e-07
1.2009e-08
1.14142e-07
1.81532e-08
1.27357e-07
2.06997e-08
2.13431e-08
1.46087e-07
3.9067e-07
1.16047e-07
-4.05271e-07
3.76252e-07
9.54763e-08
3.52065e-07
8.4315e-08
3.29375e-07
5.56534e-08
2.97737e-07
5.13601e-08
2.66197e-07
4.33726e-08
2.47966e-07
3.02402e-08
2.39317e-07
2.68017e-08
2.34118e-07
2.58991e-08
2.39667e-08
2.31494e-07
4.82607e-07
8.09007e-08
-4.47462e-07
5.05531e-07
7.25541e-08
5.18759e-07
7.10867e-08
5.13153e-07
6.12588e-08
5.10909e-07
5.36046e-08
5.04118e-07
5.01642e-08
4.95468e-07
3.88903e-08
4.87013e-07
3.52571e-08
4.74227e-07
3.86845e-08
3.9605e-08
4.58588e-07
4.50536e-07
8.45838e-09
-3.78093e-07
4.95264e-07
2.78271e-08
5.31095e-07
3.52565e-08
5.77026e-07
1.53281e-08
6.17195e-07
1.34356e-08
6.38147e-07
2.92125e-08
6.44666e-07
3.23715e-08
6.46692e-07
3.32319e-08
6.46402e-07
3.89737e-08
4.84796e-08
6.37528e-07
3.5517e-07
-6.60031e-08
-2.80708e-07
4.4128e-07
-5.82823e-08
5.22848e-07
-4.63111e-08
5.73071e-07
-3.48946e-08
6.03454e-07
-1.69463e-08
6.34468e-07
-1.80155e-09
6.61233e-07
5.60645e-09
6.77905e-07
1.65609e-08
6.86435e-07
3.04434e-08
4.55418e-08
6.89374e-07
2.32651e-07
-1.18732e-07
-1.79922e-07
3.03646e-07
-1.29276e-07
3.63384e-07
-1.06048e-07
4.16911e-07
-8.84207e-08
4.69913e-07
-6.99479e-08
5.26705e-07
-5.85935e-08
5.72775e-07
-4.04631e-08
6.07188e-07
-1.78528e-08
6.35042e-07
2.58784e-09
2.43532e-08
6.5623e-07
9.12226e-08
-1.86103e-07
-2.38518e-08
1.46106e-07
-1.84159e-07
2.03299e-07
-1.63241e-07
2.72947e-07
-1.58069e-07
3.53348e-07
-1.50348e-07
4.40914e-07
-1.46158e-07
5.19508e-07
-1.19056e-07
5.81733e-07
-8.00772e-08
6.31604e-07
-4.72825e-08
-5.73925e-09
6.61697e-07
5.12739e-08
-2.29315e-07
-8.06149e-09
1.15322e-07
-2.48207e-07
1.93321e-07
-2.4124e-07
2.71379e-07
-2.36126e-07
3.36771e-07
-2.1574e-07
3.94596e-07
-2.03982e-07
4.56063e-07
-1.80523e-07
5.2439e-07
-1.48403e-07
5.96318e-07
-1.19209e-07
-6.3125e-08
6.53704e-07
5.74754e-08
-3.02437e-07
1.56473e-08
1.27883e-07
-3.18613e-07
2.07318e-07
-3.20674e-07
2.66879e-07
-2.95686e-07
3.1427e-07
-2.63131e-07
3.62082e-07
-2.51794e-07
4.17907e-07
-2.36348e-07
4.8075e-07
-2.11246e-07
5.49688e-07
-1.88147e-07
-1.42514e-07
6.29077e-07
9.9798e-08
-3.77442e-07
-2.47927e-08
1.62099e-07
-3.80916e-07
2.26368e-07
-3.84943e-07
2.68712e-07
-3.3803e-07
3.03162e-07
-2.97582e-07
3.40927e-07
-2.89559e-07
3.93165e-07
-2.88584e-07
4.57754e-07
-2.75836e-07
5.21105e-07
-2.51497e-07
-2.02578e-07
5.8117e-07
4.97578e-08
-4.28367e-07
1.16813e-09
1.24353e-07
-4.55508e-07
1.98909e-07
-4.59499e-07
2.34493e-07
-3.73614e-07
2.5747e-07
-3.20559e-07
2.92832e-07
-3.2492e-07
3.42255e-07
-3.38006e-07
4.02459e-07
-3.3604e-07
4.63069e-07
-3.12108e-07
-2.38422e-07
4.98912e-07
3.62535e-08
-4.61762e-07
-2.85875e-09
6.96183e-08
-4.88872e-07
1.16545e-07
-5.06425e-07
1.40289e-07
-3.97358e-07
1.42812e-07
-3.23082e-07
1.57243e-07
-3.39351e-07
1.8374e-07
-3.64503e-07
2.07377e-07
-3.59675e-07
2.20401e-07
-3.25131e-07
-2.50302e-07
2.3228e-07
4.56925e-08
-4.50995e-07
-5.64589e-08
5.85231e-08
-5.01704e-07
7.24487e-08
-5.20351e-07
8.31973e-08
-4.08106e-07
8.35265e-08
-3.23411e-07
8.62322e-08
-3.42057e-07
8.53822e-08
-3.63654e-07
7.87786e-08
-3.53072e-07
5.41262e-08
-3.00478e-07
-1.98359e-07
2.18354e-09
8.83862e-08
-4.35752e-07
-1.0363e-07
7.19029e-08
-4.85219e-07
6.47394e-08
-5.13187e-07
7.1061e-08
-4.14427e-07
6.22165e-08
-3.14566e-07
4.70445e-08
-3.26885e-07
2.74255e-08
-3.44036e-07
-9.22252e-10
-3.24724e-07
-4.08264e-08
-2.60575e-07
-1.40168e-07
-9.90155e-08
1.25273e-07
-4.39473e-07
-1.21553e-07
9.57266e-08
-4.55673e-07
6.19768e-08
-4.79438e-07
5.20289e-08
-4.04479e-07
4.38515e-08
-3.06387e-07
2.24914e-08
-3.05524e-07
-9.27594e-09
-3.12268e-07
-4.93588e-08
-2.84641e-07
-9.34739e-08
-2.16461e-07
-9.72913e-08
-1.36351e-07
1.03357e-07
-4.37875e-07
-1.04955e-07
8.76937e-08
-4.4001e-07
4.32698e-08
-4.35013e-07
-1.065e-08
-3.5056e-07
-2.338e-08
-2.93659e-07
-4.42962e-08
-2.84608e-07
-7.49726e-08
-2.81592e-07
-1.174e-07
-2.42214e-07
-1.47742e-07
-1.86118e-07
-8.89762e-08
-1.56057e-07
6.55879e-08
-4.13835e-07
-8.96277e-08
3.62213e-08
-4.10642e-07
-2.74512e-08
-3.7134e-07
-1.08747e-07
-2.69262e-07
-1.55323e-07
-2.47083e-07
-1.70057e-07
-2.69874e-07
-1.99177e-07
-2.52472e-07
-2.30416e-07
-2.10974e-07
-2.45764e-07
-1.70769e-07
-1.07328e-07
-2.27413e-07
5.69821e-08
-3.62569e-07
-1.08249e-07
1.37787e-08
-3.67439e-07
-6.55277e-08
-2.92035e-07
-1.5148e-07
-1.8331e-07
-2.21923e-07
-1.7664e-07
-2.73308e-07
-2.18489e-07
-3.13912e-07
-2.11867e-07
-3.4324e-07
-1.81646e-07
-3.47506e-07
-1.66503e-07
-1.19483e-07
-3.35351e-07
3.04263e-08
-2.86784e-07
-1.06211e-07
-5.35716e-08
-2.83439e-07
-1.57323e-07
-1.88283e-07
-2.17919e-07
-1.22714e-07
-2.6174e-07
-1.32819e-07
-3.24332e-07
-1.55897e-07
-3.85046e-07
-1.51153e-07
-4.20704e-07
-1.45989e-07
-4.46524e-07
-1.40683e-07
-1.10149e-07
-4.55858e-07
-1.4458e-07
-1.86363e-07
4.4159e-08
-2.82587e-07
-1.45433e-07
-3.72026e-07
-9.88433e-08
-3.94181e-07
-1.00559e-07
-4.03415e-07
-1.23583e-07
-4.29077e-07
-1.30234e-07
-4.58173e-07
-1.22057e-07
-4.84968e-07
-1.19194e-07
-5.17061e-07
-1.08591e-07
-8.38948e-08
-5.43317e-07
-4.57358e-07
-9.74944e-08
3.6849e-07
-5.24492e-07
-7.83007e-08
-5.36164e-07
-8.71712e-08
-5.3407e-07
-1.02654e-07
-5.46443e-07
-1.11211e-07
-5.66459e-07
-1.10217e-07
-5.86951e-07
-1.01566e-07
-6.12066e-07
-9.40798e-08
-6.36175e-07
-8.44816e-08
-6.6718e-08
-6.53351e-07
-6.4779e-07
-9.17946e-08
6.4209e-07
-6.35317e-07
-9.0768e-08
-6.22058e-07
-1.00431e-07
-6.15744e-07
-1.08968e-07
-6.19142e-07
-1.07813e-07
-6.27773e-07
-1.01587e-07
-6.37518e-07
-9.18197e-08
-6.51389e-07
-8.02088e-08
-6.65244e-07
-7.06263e-08
-5.27569e-08
-6.79204e-07
-7.05556e-07
-1.06729e-07
7.2049e-07
-6.91443e-07
-1.04879e-07
-6.87506e-07
-1.04369e-07
-6.93702e-07
-1.02772e-07
-7.05002e-07
-9.65136e-08
-7.16667e-07
-8.99216e-08
-7.2177e-07
-8.67166e-08
-7.18741e-07
-8.32378e-08
-7.12048e-07
-7.73201e-08
-6.76595e-08
-6.97146e-07
-7.48731e-07
-9.70993e-08
7.39101e-07
-7.63979e-07
-8.96284e-08
-7.77237e-07
-9.11082e-08
-7.84693e-07
-9.53172e-08
-7.87701e-07
-9.35047e-08
-7.87711e-07
-8.99112e-08
-7.82764e-07
-9.16633e-08
-7.68091e-07
-9.79105e-08
-7.47125e-07
-9.82876e-08
-9.07954e-08
-7.23989e-07
-7.61312e-07
-7.35169e-08
7.3773e-07
-7.8496e-07
-6.59809e-08
-8.012e-07
-7.48687e-08
-8.06602e-07
-8.99144e-08
-8.09129e-07
-9.09772e-08
-8.10132e-07
-8.89092e-08
-8.1029e-07
-9.15053e-08
-8.04394e-07
-1.03807e-07
-7.92318e-07
-1.10364e-07
-1.10883e-07
-7.7223e-07
-7.47668e-07
-5.15732e-08
7.25724e-07
-7.68225e-07
-4.54231e-08
-7.88214e-07
-5.48799e-08
-8.00209e-07
-7.79196e-08
-8.06473e-07
-8.47127e-08
-8.10055e-07
-8.53268e-08
-8.10227e-07
-9.13335e-08
-8.05802e-07
-1.08232e-07
-8.02039e-07
-1.14126e-07
-1.13807e-07
-7.99114e-07
-6.92796e-07
-5.63945e-08
6.97617e-07
-6.80313e-07
-5.79049e-08
-6.72092e-07
-6.31017e-08
-6.78374e-07
-7.16371e-08
-6.93145e-07
-6.99417e-08
-7.06336e-07
-7.21375e-08
-7.12572e-07
-8.50977e-08
-7.35186e-07
-8.56187e-08
-7.56784e-07
-9.25272e-08
-9.95509e-08
-7.71041e-07
-6.03965e-07
-1.04097e-07
6.51666e-07
-5.38953e-07
-1.22916e-07
-4.79105e-07
-1.22949e-07
-4.34639e-07
-1.16102e-07
-4.13764e-07
-9.08172e-08
-4.11924e-07
-7.39758e-08
-4.50026e-07
-4.69945e-08
-4.93923e-07
-4.17229e-08
-5.31247e-07
-5.52019e-08
-6.40549e-08
-5.66744e-07
-5.93311e-07
-2.1462e-07
7.03834e-07
-4.47647e-07
-2.68581e-07
-3.09953e-07
-2.60643e-07
-2.041e-07
-2.21955e-07
-1.20723e-07
-1.74194e-07
-6.54818e-08
-1.29218e-07
-1.07153e-07
-5.32254e-09
-1.89782e-07
4.09051e-08
-2.79269e-07
3.42845e-08
1.70715e-08
-3.60394e-07
-7.16484e-07
-3.0576e-07
8.07625e-07
-5.88857e-07
-3.9621e-07
-4.14377e-07
-4.35124e-07
-2.3237e-07
-4.03962e-07
-4.7668e-08
-3.58897e-07
1.2395e-07
-3.00836e-07
2.08716e-07
-9.00894e-08
1.48156e-07
1.01466e-07
3.77912e-08
1.44649e-07
1.43433e-07
-8.85707e-08
-6.86786e-07
-1.79467e-07
5.60491e-07
-6.24987e-07
-4.58007e-07
-4.77221e-07
-5.82889e-07
-2.98054e-07
-5.83128e-07
-1.15831e-07
-5.4112e-07
4.6305e-08
-4.6297e-07
1.90269e-07
-2.34054e-07
2.24281e-07
6.74551e-08
1.70429e-07
1.98502e-07
1.99034e-07
1.14828e-07
-2.53349e-08
-5.0158e-08
-1.03975e-07
-2.97142e-07
-1.86197e-07
-3.17305e-07
-5.62728e-07
-2.49974e-07
-6.50459e-07
-1.69269e-07
-6.21826e-07
-7.50494e-08
-5.57188e-07
2.01871e-08
-3.29291e-07
8.53943e-08
2.24778e-09
1.37297e-07
1.466e-07
1.80514e-07
1.55817e-07
4.28141e-07
-5.54062e-08
-4.22891e-07
7.56538e-08
1.66291e-07
-1.67533e-07
-3.19541e-07
-2.00112e-07
-6.1788e-07
-1.96869e-07
-6.25068e-07
-1.73764e-07
-5.80294e-07
-1.34676e-07
-3.68378e-07
-8.45551e-08
-4.78734e-08
1.78729e-08
4.41715e-08
8.33177e-08
1.15069e-07
5.44906e-08
2.04885e-07
-3.14782e-07
-7.16644e-08
2.92447e-07
-1.53174e-07
-2.38032e-07
-1.80436e-07
-5.90619e-07
-2.10711e-07
-5.94793e-07
-2.27503e-07
-5.63503e-07
-1.55438e-07
-4.40443e-07
-1.39678e-07
-6.36331e-08
-5.50847e-08
-4.04228e-08
-2.049e-08
4.87231e-08
-1.19394e-07
4.4753e-07
-1.23234e-07
-1.4683e-07
3.199e-07
-1.14581e-07
-2.70285e-07
-1.04603e-07
-6.00597e-07
-1.03723e-07
-5.95673e-07
-1.07526e-07
-5.59701e-07
-5.88863e-08
-4.89082e-07
-9.24599e-08
-3.0059e-08
-7.70718e-08
-5.58114e-08
-6.63533e-08
-3.12088e-08
1.97543e-07
3.90235e-07
-1.40225e-07
3.51252e-09
5.13934e-07
3.27543e-08
-2.99514e-07
6.49901e-09
-5.74346e-07
-2.83645e-08
-5.6081e-07
-4.14784e-08
-5.46588e-07
-1.98179e-08
-5.10742e-07
-4.013e-08
-9.74732e-09
-8.49959e-08
-1.09461e-08
-8.38109e-08
-6.75386e-08
4.35227e-08
4.32831e-07
-8.61161e-08
1.05928e-08
5.46876e-07
9.8561e-08
-3.87471e-07
4.19432e-08
-5.17727e-07
1.53794e-08
-5.34246e-07
-9.11953e-09
-5.22089e-07
1.06485e-08
-5.30511e-07
1.7235e-07
-1.7145e-07
1.35755e-07
2.56484e-08
-7.77909e-08
1.29734e-07
-2.53095e-08
4.43429e-07
1.46922e-08
-7.33154e-09
5.28976e-07
7.95039e-08
-4.74318e-07
5.66585e-08
-4.94882e-07
1.91937e-08
-4.96781e-07
-5.24729e-09
-4.97648e-07
-2.79297e-08
-5.07829e-07
1.78058e-07
-3.77438e-07
1.93284e-07
1.04233e-08
-9.90009e-08
2.14495e-07
-8.10973e-08
3.94825e-07
1.29717e-07
1.41725e-07
3.06126e-07
1.00024e-07
-4.32618e-07
5.50073e-08
-4.49865e-07
1.75502e-08
-4.59324e-07
-1.45222e-08
-4.65576e-07
-5.31581e-08
-4.69193e-07
2.64319e-08
-4.57029e-07
1.89978e-07
-1.53124e-07
8.33531e-08
7.62215e-09
-2.05346e-07
2.81228e-07
3.18916e-07
1.52369e-07
-5.151e-08
1.05797e-07
-3.86094e-07
6.49006e-08
-4.08969e-07
1.54205e-08
-4.09844e-07
-3.67255e-08
-4.1343e-07
-8.79847e-08
-4.17933e-07
-1.32502e-07
-4.12508e-07
-9.1611e-08
-1.94016e-07
1.49633e-07
-1.57877e-07
-8.72369e-08
9.31488e-08
2.75355e-07
1.32688e-07
-2.71296e-07
9.03759e-08
-3.43782e-07
4.14656e-08
-3.60058e-07
3.63005e-09
-3.7201e-07
-3.75677e-08
-3.72232e-07
-9.66599e-08
-3.58841e-07
-1.66598e-07
-3.42571e-07
-1.03134e-07
-2.57478e-07
2.61738e-08
2.03314e-08
1.21589e-07
-5.40899e-08
2.56001e-08
1.29626e-07
-2.79393e-07
8.87342e-08
-3.0289e-07
4.25299e-08
-3.13854e-07
-1.45216e-08
-3.14958e-07
-7.10665e-08
-3.15687e-07
-1.12283e-07
-3.17624e-07
-1.52924e-07
-3.01931e-07
-1.26431e-07
-2.8397e-07
-8.9432e-08
-1.08914e-08
2.12583e-07
-1.844e-07
-8.22631e-08
1.56641e-07
-2.23447e-07
1.08479e-07
-2.54728e-07
5.38753e-08
-2.5925e-07
2.44321e-09
-2.63526e-07
-4.54241e-08
-2.6782e-07
-9.71094e-08
-2.65939e-07
-1.4488e-07
-2.5416e-07
-2.08095e-07
-2.20756e-07
-1.9485e-07
-1.02672e-07
1.27339e-07
-1.91266e-07
9.89293e-08
6.48558e-08
3.81033e-08
1.11004e-08
-2.31464e-08
-6.21461e-08